# vtk DataFile Version 4.2
vtk output
ASCII
DATASET POLYDATA
POINTS 557 float
-27.2065 -39.6603 -15.4832 -18.831 -39.6603 -17.5514 -10.4556 -39.6603 -17.9475 
-2.08009 -39.6603 -18.4337 6.29538 -39.6603 -18.692 14.6708 -39.6603 -17.9861 
23.0463 -39.6603 -16.1205 -35.5819 -31.2848 -15.8873 -27.2065 -31.2848 -18.3711 
-18.831 -31.2848 -20.2691 -10.4556 -31.2848 -20.0369 -2.08009 -31.2848 -20.4883 
6.29538 -31.2848 -20.8924 14.6708 -31.2848 -20.7617 23.0463 -31.2848 -20.5226 
31.4218 -31.2848 -18.4099 39.7972 -31.2848 -16.6332 48.1727 -31.2848 -13.7394 
-43.9574 -22.9094 -15.5829 -35.5819 -22.9094 -17.7647 -27.2065 -22.9094 -18.82 
-18.831 -22.9094 -19.3844 -10.4556 -22.9094 -19.6425 -2.08009 -22.9094 -19.7691 
6.29538 -22.9094 -20.3837 14.6708 -22.9094 -20.767 23.0463 -22.9094 -20.8488 
31.4218 -22.9094 -20.6891 39.7972 -22.9094 -19.6229 48.1727 -22.9094 -18.0679 
56.5482 -22.9094 -15.5639 -52.3329 -14.5339 -13.0909 -43.9574 -14.5339 -16.0914 
-35.5819 -14.5339 -17.6826 -27.2065 -14.5339 -17.9586 -18.831 -14.5339 -17.7544 
-10.4556 -14.5339 -18.0699 -2.08009 -14.5339 -18.1822 6.29538 -14.5339 -18.4593 
14.6708 -14.5339 -19.7697 23.0463 -14.5339 -20.1172 31.4218 -14.5339 -20.3888 
39.7972 -14.5339 -20.5961 48.1727 -14.5339 -19.8744 56.5482 -14.5339 -17.7978 
64.9236 -14.5339 -14.5665 -52.3329 -6.15843 -13.3163 -43.9574 -6.15843 -16.0311 
-35.5819 -6.15843 -17.4775 -27.2065 -6.15843 -17.7637 -18.831 -6.15843 -17.0016 
-10.4556 -6.15843 -18.4288 -2.08009 -6.15843 -20.9394 6.29538 -6.15843 -18.9803 
14.6708 -6.15843 -18.6673 23.0463 -6.15843 -18.6149 31.4218 -6.15843 -19.6986 
39.7972 -6.15843 -20.4841 48.1727 -6.15843 -21.1911 56.5482 -6.15843 -19.4713 
64.9236 -6.15843 -15.101 -43.9574 2.21704 -15.1168 -35.5819 2.21704 -16.7548 
-27.2065 2.21704 -17.7487 -18.831 2.21704 -18.4914 -10.4556 2.21704 -20.0786 
-2.08009 2.21704 -17.0661 6.29538 2.21704 -18.1522 14.6708 2.21704 -17.9139 
23.0463 2.21704 -17.7201 31.4218 2.21704 -19.0908 39.7972 2.21704 -20.038 
48.1727 2.21704 -20.4492 56.5482 2.21704 -18.8991 64.9236 2.21704 -14.8781 
-43.9574 10.5925 -14.8091 -35.5819 10.5925 -16.298 -27.2065 10.5925 -17.6185 
-18.831 10.5925 -19.1684 -10.4556 10.5925 -19.8438 -2.08009 10.5925 -19.1086 
6.29538 10.5925 -18.0201 14.6708 10.5925 -16.7801 23.0463 10.5925 -17.7913 
31.4218 10.5925 -19.2215 39.7972 10.5925 -19.612 48.1727 10.5925 -19.683 
56.5482 10.5925 -18.1822 64.9236 10.5925 -14.1772 -43.9574 18.968 -13.514 
-35.5819 18.968 -16.2058 -27.2065 18.968 -17.7678 -18.831 18.968 -18.6666 
-10.4556 18.968 -18.3616 -2.08009 18.968 -18.6508 6.29538 18.968 -16.8404 
14.6708 18.968 -15.0747 23.0463 18.968 -16.7788 31.4218 18.968 -18.3626 
39.7972 18.968 -18.6548 48.1727 18.968 -18.2857 56.5482 18.968 -17.1511 
64.9236 18.968 -13.0719 -35.5819 27.3434 -15.62 -27.2065 27.3434 -17.3153 
-18.831 27.3434 -18.3611 -10.4556 27.3434 -17.9164 -2.08009 27.3434 -18.1577 
6.29538 27.3434 -15.5801 23.0463 27.3434 -14.2292 31.4218 27.3434 -14.9679 
39.7972 27.3434 -15.7102 48.1727 27.3434 -15.0057 -35.5819 35.7189 -13.7898 
-27.2065 35.7189 -15.5298 -18.831 35.7189 -16.9321 -10.4556 35.7189 -16.9855 
-2.08009 35.7189 -16.285 6.29538 35.7189 -13.8765 -27.2065 -42.6362 -13.0301 
-18.831 -44.7529 -13.0301 -18.831 -48.0357 -5.67158 -10.4556 -45.2706 -13.0301 
-2.08009 -45.3334 -13.0301 6.29538 -45.3011 -13.0301 14.6708 -44.3986 -13.0301 
23.0463 -42.2176 -13.0301 -43.9574 -39.6603 -5.5672 -33.4576 -39.6603 -13.0301 
-35.5819 -37.8099 -13.0301 -35.5819 -39.6603 -11.8125 30.9097 -39.6603 -13.0301 
31.4218 -39.4304 -13.0301 31.4218 -39.6603 -12.3019 39.7972 -35.4499 -13.0301 
48.1727 -31.8907 -13.0301 -52.3329 -31.2848 -7.36021 -43.7143 -31.2848 -13.0301 
-43.9574 -31.0425 -13.0301 -43.9574 -31.2848 -12.9254 49.5108 -31.2848 -13.0301 
56.5482 -26.8443 -13.0301 56.5482 -31.2848 -4.91398 -60.7083 -22.9094 -4.93177 
-49.3119 -22.9094 -13.0301 -52.3329 -14.8182 -13.0301 -52.3329 -22.9094 -11.2106 
60.9243 -22.9094 -13.0301 64.9236 -18.3747 -13.0301 64.9236 -22.9094 -6.08533 
-52.4612 -14.5339 -13.0301 -60.7083 -14.5339 -9.01485 66.6544 -14.5339 -13.0301 
-52.9512 -6.15843 -13.0301 -60.7083 -6.15843 -8.58522 -52.3329 -3.71237 -13.0301 
67.5057 -6.15843 -13.0301 -60.7083 2.21704 -7.69001 -50.4058 2.21704 -13.0301 
-52.3329 2.21704 -12.4284 67.4655 2.21704 -13.0301 73.2991 2.21704 -4.70168 
-60.7083 10.5925 -7.77704 -48.5082 10.5925 -13.0301 -52.3329 10.5925 -11.3769 
66.491 10.5925 -13.0301 -60.7083 18.968 -4.82399 -45.6839 18.968 -13.0301 
-52.3329 18.968 -10.603 -43.9574 21.9106 -13.0301 14.6708 27.2156 -13.0301 
56.5482 25.5743 -13.0301 64.9726 18.968 -13.0301 64.9236 19.0452 -13.0301 
-52.3329 27.3434 -7.51899 -41.8165 27.3434 -13.0301 -43.9574 27.3434 -12.1505 
14.5581 27.3434 -13.0301 14.8742 27.3434 -13.0301 14.6708 27.3434 -12.9994 
23.0463 29.2156 -13.0301 31.4218 30.0036 -13.0301 39.7972 31.9041 -13.0301 
53.81 27.3434 -13.0301 48.1727 30.6215 -13.0301 56.5482 27.3434 -11.7918 
-38.2891 35.7189 -13.0301 -43.9574 35.7189 -10.7998 -35.5819 37.4861 -13.0301 
-27.2065 41.3651 -13.0301 -18.831 43.5159 -13.0301 -10.4556 43.9523 -13.0301 
-2.08009 41.9805 -13.0301 8.22602 35.7189 -13.0301 6.29538 37.0521 -13.0301 
14.6708 35.7189 -9.43156 23.0463 35.7189 -7.36358 31.4218 35.7189 -8.45566 
39.7972 35.7189 -9.22772 48.1727 35.7189 -7.67269 -35.5819 44.0944 -9.15487 
-27.2065 44.0944 -11.3532 -18.831 44.0944 -12.6653 -10.4556 44.0944 -12.9178 
-2.08009 44.0944 -11.1438 6.29538 44.0944 -5.05687 -18.831 -48.3555 -4.65466 
-43.9574 -40.2527 -4.65466 -35.5819 -44.4332 -4.65466 -20.89 -48.0357 -4.65466 
-27.2065 -47.0351 -4.65466 -13.3446 -48.0357 -4.65466 -10.4556 -47.8735 -4.65466 
-2.08009 -46.953 -4.65466 6.29538 -46.6349 -4.65466 14.6708 -45.7064 -4.65466 
23.0463 -43.7086 -4.65466 31.4218 -41.3658 -4.65466 -44.8192 -39.6603 -4.65466 
-52.3329 -33.7907 -4.65466 36.7919 -39.6603 -4.65466 31.4218 -39.6603 1.76089 
39.7972 -38.7443 -4.65466 48.1727 -35.5321 -4.65466 56.5482 -31.3568 -4.65466 
-54.7677 -31.2848 -4.65466 -60.7083 -23.2738 -4.65466 56.645 -31.2848 -4.65466 
56.5482 -31.2848 -4.46583 64.9236 -23.3914 -4.65466 -60.9411 -22.9094 -4.65466 
65.3542 -22.9094 -4.65466 64.9236 -22.9094 -3.64156 -64.9402 -14.5339 -4.65466 
69.998 -14.5339 -4.65466 -64.6942 -6.15843 -4.65466 -69.0838 -6.15843 3.35271 
72.8382 -6.15843 -4.65466 73.2991 1.89442 -4.65466 -64.1693 2.21704 -4.65466 
-69.0838 2.21704 2.84312 73.2991 2.42347 -4.65466 73.2991 2.21704 -4.58299 
-63.9789 10.5925 -4.65466 72.5156 10.5925 -4.65466 -60.8812 18.968 -4.65466 
-60.7083 19.419 -4.65466 69.8163 18.968 -4.65466 64.9236 26.4411 -4.65466 
-55.9216 27.3434 -4.65466 -60.7083 27.3434 3.05863 -52.3329 33.0933 -4.65466 
64.0534 27.3434 -4.65466 56.5482 33.4834 -4.65466 -50.6791 35.7189 -4.65466 
-52.3329 35.7189 -2.18184 -43.9574 42.2788 -4.65466 14.6708 39.7445 -4.65466 
23.0463 38.0107 -4.65466 31.4218 38.7214 -4.65466 39.7972 38.1821 -4.65466 
52.0437 35.7189 -4.65466 48.1727 37.3683 -4.65466 -41.7058 44.0944 -4.65466 
-43.9574 44.0944 1.79352 -35.5819 47.1457 -4.65466 -27.2065 49.0005 -4.65466 
-18.831 50.297 -4.65466 -10.4556 49.5257 -4.65466 -2.08009 47.7307 -4.65466 
6.73689 44.0944 -4.65466 6.29538 44.3129 -4.65466 -18.831 -48.3354 3.7208 
-43.9574 -41.1018 3.7208 -35.5819 -44.6512 3.7208 -20.4446 -48.0357 3.7208 
-27.2065 -46.7802 3.7208 -16.3614 -48.0357 3.7208 -18.831 -48.0357 4.47446 
-10.4556 -47.33 3.7208 -2.08009 -45.6714 3.7208 6.29538 -43.7164 3.7208 
14.6708 -42.0962 3.7208 23.0463 -40.732 3.7208 -46.1448 -39.6603 3.7208 
-52.3329 -35.4318 3.7208 -43.9574 -39.6603 6.89949 6.29538 -39.6603 9.82631 
14.6708 -39.6603 7.00279 28.6748 -39.6603 3.7208 23.0463 -39.6603 5.23323 
31.4218 -39.0101 3.7208 39.7972 -35.3911 3.7208 48.1727 -32.4286 3.7208 
-56.875 -31.2848 3.7208 -60.7083 -27.0714 3.7208 31.4218 -31.2848 10.5927 
39.7972 -31.2848 8.70262 50.2556 -31.2848 3.7208 48.1727 -31.2848 5.02952 
56.5482 -27.034 3.7208 -63.7603 -22.9094 3.7208 -60.7083 -22.9094 11.8377 
48.1727 -22.9094 10.2888 60.9516 -22.9094 3.7208 56.5482 -22.9094 7.10683 
64.9236 -17.5535 3.7208 -67.5643 -14.5339 3.7208 -69.0838 -6.92795 3.7208 
56.5482 -14.5339 11.9494 66.6824 -14.5339 3.7208 64.9236 -14.5339 5.4967 
-69.2256 -6.15843 3.7208 -69.0838 -6.15843 4.28934 70.2247 -6.15843 3.7208 
64.9236 -6.15843 9.26103 -69.4614 2.21704 3.7208 -69.0838 4.63295 3.7208 
-69.0838 2.21704 5.7117 70.9937 2.21704 3.7208 64.9236 2.21704 10.2895 
-68.1524 10.5925 3.7208 70.878 10.5925 3.7208 64.9236 10.5925 10.3115 
-65.1385 18.968 3.7208 67.9111 18.968 3.7208 64.9236 24.1803 3.7208 
64.9236 18.968 7.34425 -60.9685 27.3434 3.7208 -60.7083 27.7282 3.7208 
-60.7083 27.3434 4.66577 62.6017 27.3434 3.7208 56.5482 32.9249 3.7208 
56.5482 27.3434 10.0309 -54.9654 35.7189 3.7208 -52.3329 38.3204 3.7208 
-52.3329 35.7189 9.79078 14.6708 41.6175 3.7208 23.0463 40.2497 3.7208 
31.4218 40.1178 3.7208 31.4218 35.7189 11.6834 39.7972 38.8349 3.7208 
39.7972 35.7189 11.8804 51.2434 35.7189 3.7208 48.1727 37.0645 3.7208 
48.1727 35.7189 6.09808 -44.4572 44.0944 3.7208 -43.9574 44.4218 3.7208 
-43.9574 44.0944 4.44703 -35.5819 47.6571 3.7208 -35.5819 44.0944 11.0153 
-27.2065 49.1839 3.7208 -27.2065 44.0944 11.9078 -18.831 50.1299 3.7208 
-18.831 44.0944 12.0776 -10.4556 48.9106 3.7208 -10.4556 44.0944 11.1753 
-2.08009 47.0297 3.7208 -2.08009 44.0944 8.81744 7.30769 44.0944 3.7208 
6.29538 44.4522 3.7208 6.29538 44.0944 4.46509 -35.5819 -40.1957 12.0963 
-27.2065 -42.8758 12.0963 -18.831 -43.996 12.0963 -10.4556 -43.5256 12.0963 
-2.08009 -41.0648 12.0963 -52.3329 -31.6076 12.0963 -37.0173 -39.6603 12.0963 
-43.9574 -36.271 12.0963 -35.5819 -39.6603 12.6917 -27.2065 -39.6603 14.9601 
-18.831 -39.6603 16.0046 -10.4556 -39.6603 15.8011 1.51755 -39.6603 12.0963 
-2.08009 -39.6603 13.4619 6.29538 -36.9626 12.0963 14.6708 -33.7138 12.0963 
23.0463 -32.1513 12.0963 -52.7002 -31.2848 12.0963 -52.3329 -31.2848 12.3939 
-43.9574 -31.2848 15.5082 -35.5819 -31.2848 17.7756 -27.2065 -31.2848 18.746 
[...]
POINT_DATA 557
SCALARS ImageScalars float
LOOKUP_TABLE default
0 0 0 0 0 0 0 0 0 
0 0 0 0 0 0 0 0 0 
0 0 0 0 0 0 0 0 0 
0 0 0 0 0 0 0 0 0 
0 0 0 0 0 0 0 0 0 
0 0 0 0 0 0 0 0 0 
0 0 0 0 0 0 0 0 0 
0 0 0 0 0 0 0 0 0 
0 0 0 0 0 0 0 0 0 
0 0 0 0 0 0 0 0 0 
0 0 0 0 0 0 0 0 0 
0 0 0 0 0 0 0 0 0 
0 0 0 0 0 0 0 0 0 
0 0 0 0 0 0 0 0 0 
0 0 0 0 0 0 0 0 0 
0 0 0 0 0 0 0 0 0 
0 0 0 0 0 0 0 0 0 
0 0 0 0 0 0 0 0 0 
0 0 0 0 0 0 0 0 0 
0 0 0 0 0 0 0 0 0 
0 0 0 0 0 0 0 0 0 
0 0 0 0 0 0 0 0 0 
0 0 0 0 0 0 0 0 0 
0 0 0 0 0 0 0 0 0 
0 0 0 0 0 0 0 0 0 
0 0 0 0 0 0 0 0 0 
0 0 0 0 0 0 0 0 0 
0 0 0 0 0 0 0 0 0 
0 0 0 0 0 0 0 0 0 
0 0 0 0 0 0 0 0 0 
0 0 0 0 0 0 0 0 0 
0 0 0 0 0 0 0 0 0 
0 0 0 0 0 0 0 0 0 
0 0 0 0 0 0 0 0 0 
0 0 0 0 0 0 0 0 0 
0 0 0 0 0 0 0 0 0 
0 0 0 0 0 0 0 0 0 
0 0 0 0 0 0 0 0 0 
0 0 0 0 0 0 0 0 0 
0 0 0 0 0 0 0 0 0 
0 0 0 0 0 0 0 0 0 
0 0 0 0 0 0 0 0 0 
0 0 0 0 0 0 0 0 0 
0 0 0 0 0 0 0 0 0 
0 0 0 0 0 0 0 0 0 
0 0 0 0 0 0 0 0 0 
0 0 0 0 0 0 0 0 0 
0 0 0 0 0 0 0 0 0 
0 0 0 0 0 0 0 0 0 
0 0 0 0 0 0 0 0 0 
0 0 0 0 0 0 0 0 0 
0 0 0 0 0 0 0 0 0 
0 0 0 0 0 0 0 0 0 
0 0 0 0 0 0 0 0 0 
0 0 0 0 0 0 0 0 0 
0 0 0 0 0 0 0 0 0 
0 0 0 0 0 0 0 0 0 
0 0 0 0 0 0 0 0 0 
0 0 0 0 0 0 0 0 0 
0 0 0 0 0 0 0 0 0 
0 0 0 0 0 0 0 0 0 
0 0 0 0 0 0 0 0 
NORMALS Normals float
-0.250866 -0.527167 -0.811887 -0.137942 -0.501564 -0.854052 -0.0477666 -0.473298 -0.879606 
-0.0440972 -0.492767 -0.869043 0.0241266 -0.51489 -0.856917 0.132749 -0.578375 -0.804898 
0.260621 -0.702213 -0.662551 -0.294123 -0.272669 -0.916047 -0.233191 -0.173582 -0.956813 
-0.103054 -0.0728262 -0.992006 -0.0136424 -0.089204 -0.99592 -0.0510804 -0.0690317 -0.996306 
-0.0164098 -0.086574 -0.99611 0.0211286 -0.140501 -0.989855 0.144138 -0.223888 -0.963898 
0.206612 -0.382781 -0.900439 0.222495 -0.543582 -0.80933 0.366574 -0.689441 -0.624735 
-0.332631 -0.145829 -0.931714 -0.195509 -0.0974536 -0.975848 -0.0943701 0.0237211 -0.995255 
-0.0482026 0.145247 -0.98822 -0.0223669 0.115976 -0.993 -0.0426162 0.139941 -0.989242 
-0.0586466 0.147388 -0.987339 -0.0260865 0.058815 -0.997928 0.00435546 0.0260105 -0.999652 
0.079208 -0.113364 -0.990391 0.139082 -0.196101 -0.97067 0.225415 -0.268576 -0.936512 
0.403938 -0.424186 -0.810494 -0.380367 -0.104688 -0.918892 -0.245784 -0.0274617 -0.968936 
-0.107021 0.0167741 -0.994115 -0.00423292 0.0619769 -0.998069 -0.00649865 0.139351 -0.990222 
-0.0260023 0.0788648 -0.996546 -0.0240624 -0.0582648 -0.998011 -0.0958348 0.0769424 -0.992419 
-0.0977894 0.124051 -0.987445 -0.0367072 0.131624 -0.99062 -0.0282908 0.0582922 -0.997899 
0.0293247 -0.0560411 -0.997998 0.166483 -0.173197 -0.970714 0.301392 -0.217234 -0.928425 
0.613728 -0.21791 -0.75885 -0.380522 0.0423317 -0.923803 -0.229755 0.0570107 -0.971577 
-0.0999708 0.054808 -0.99348 0.0256778 0.0125152 -0.999592 -0.0204221 -0.0447882 -0.998788 
-0.244715 -0.137043 -0.959861 0.00217102 0.0280968 -0.999603 0.122723 0.0131043 -0.992354 
0.0221866 0.109599 -0.993728 -0.06195 0.143793 -0.987667 -0.110297 0.0769074 -0.990919 
-0.0867266 0.0330383 -0.995684 0.0820134 -0.0334164 -0.996071 0.278918 -0.0546629 -0.958758 
0.595065 -0.0199462 -0.80343 -0.239533 0.0704178 -0.968331 -0.153404 0.0702572 -0.985663 
-0.102562 0.00858164 -0.99469 -0.139991 -0.125227 -0.982202 0.0552575 -0.0633352 -0.996461 
0.138012 0.0959725 -0.98577 -0.0437954 0.0620122 -0.997114 0.0252958 0.117014 -0.992808 
-0.0705595 0.048512 -0.996327 -0.136991 0.0282657 -0.990169 -0.0799083 0.0517472 -0.995458 
0.0818162 0.088085 -0.992747 0.261285 0.0793628 -0.961993 0.554977 0.0479173 -0.830485 
-0.272861 0.08776 -0.958042 -0.17084 0.0319649 -0.98478 -0.169939 -0.000922327 -0.985454 
-0.130475 -0.00924854 -0.991408 0.00354702 0.105254 -0.994439 0.104124 -0.0744363 -0.991775 
0.143451 0.0736461 -0.986913 0.00924125 0.158766 -0.987273 -0.146259 0.0541627 -0.987763 
-0.106656 0.0405771 -0.993468 -0.0271716 0.0815013 -0.996303 0.0908306 0.125925 -0.987873 
0.277043 0.09386 -0.956262 0.550887 0.101047 -0.82844 -0.296824 0.161932 -0.941102 
-0.241348 0.0384644 -0.969676 -0.14554 0.0179459 -0.98919 -0.0331997 0.0465936 -0.998362 
0.00164647 0.110562 -0.993868 0.0801828 0.0556292 -0.995227 0.212331 0.134136 -0.967948 
-0.00228272 0.223183 -0.974774 -0.185013 0.210529 -0.959921 -0.108626 0.204213 -0.972881 
0.00402096 0.212279 -0.977201 0.0743425 0.255797 -0.963868 0.30485 0.309378 -0.90075 
0.587304 0.309063 -0.748034 -0.28351 0.12327 -0.951013 -0.15468 0.123305 -0.98024 
-0.0347211 0.0932265 -0.995039 0.0119744 0.084486 -0.996353 0.117277 0.134962 -0.983886 
0.308882 0.166549 -0.936404 -0.102281 0.442363 -0.890985 -0.0872294 0.48364 -0.870909 
0.00390362 0.418529 -0.908195 0.1839 0.461495 -0.867873 -0.240918 0.311029 -0.919358 
-0.163414 0.288824 -0.943333 -0.0813513 0.315009 -0.945596 0.0359575 0.268155 -0.962704 
0.175141 0.333718 -0.92626 0.339561 0.373056 -0.86344 -0.26307 -0.685698 -0.678684 
-0.127564 -0.765736 -0.630377 -0.0556928 -0.97835 -0.199325 -0.0267715 -0.826823 -0.561824 
-0.00144549 -0.874918 -0.48427 0.0537721 -0.896069 -0.440646 0.178994 -0.87649 -0.446908 
0.277864 -0.845263 -0.456422 -0.530273 -0.765618 -0.364196 -0.364367 -0.587921 -0.722208 
-0.389282 -0.526449 -0.755851 -0.40845 -0.630914 -0.659633 0.334068 -0.797531 -0.502337 
0.335498 -0.790892 -0.511793 0.336264 -0.822545 -0.458636 0.31963 -0.753071 -0.575084 
0.375808 -0.720279 -0.583067 -0.629464 -0.539957 -0.558768 -0.40957 -0.420601 -0.809535 
-0.410336 -0.416739 -0.811143 -0.413557 -0.426496 -0.804408 0.397172 -0.707104 -0.585029 
0.476184 -0.594017 -0.648377 0.563441 -0.825569 0.0311544 -0.718407 -0.468515 -0.514183 
-0.455981 -0.212831 -0.864167 -0.384952 -0.10922 -0.916451 -0.533053 -0.268359 -0.802395 
0.561823 -0.530067 -0.635126 0.665577 -0.381095 -0.641696 0.76896 -0.637439 -0.048711 
-0.382609 -0.105638 -0.917851 -0.633117 -0.160739 -0.757183 0.717021 -0.238593 -0.654946 
-0.394648 0.0412874 -0.917904 -0.617892 0.0630395 -0.783732 -0.371208 0.0618234 -0.926489 
0.706202 -0.0436601 -0.706663 -0.584621 0.0352375 -0.810541 -0.326912 0.0958431 -0.940182 
-0.360319 0.104267 -0.926984 0.66537 0.0409927 -0.745387 0.996923 0.0177666 -0.0763443 
-0.570076 0.155636 -0.806716 -0.352374 0.0783019 -0.932578 -0.402129 0.0950297 -0.910638 
0.616196 0.116264 -0.778964 -0.665525 0.329984 -0.669467 -0.32899 0.15992 -0.930694 
-0.47197 0.175096 -0.864052 -0.32283 0.146064 -0.935118 0.0577381 0.267142 -0.961926 
0.367488 0.503648 -0.781851 0.589479 0.310215 -0.745843 0.588299 0.312813 -0.745689 
-0.578824 0.331413 -0.745069 -0.353216 0.115552 -0.928378 -0.391154 0.122824 -0.912093 
0.0620944 0.266547 -0.96182 0.0552062 0.27265 -0.960528 0.0590982 0.268365 -0.961503 
-0.0616979 0.50814 -0.859061 -0.0946596 0.563959 -0.820359 -0.022587 0.625621 -0.7798 
0.322863 0.514673 -0.794274 0.202342 0.57143 -0.795314 0.412219 0.572934 -0.708394 
-0.320881 0.324943 -0.889633 -0.50551 0.394574 -0.767315 -0.25824 0.376267 -0.889795 
-0.151565 0.511928 -0.845552 -0.0672725 0.544372 -0.836142 0.0468785 0.616028 -0.786328 
0.239796 0.578067 -0.779959 0.332988 0.404176 -0.851916 0.357398 0.430232 -0.828955 
0.32364 0.610526 -0.722852 0.0458039 0.779825 -0.62432 -0.0787864 0.790934 -0.606808 
0.0164904 0.860794 -0.508687 0.251072 0.866896 -0.430643 -0.34835 0.705125 -0.617618 
-0.152888 0.673883 -0.722847 -0.0638147 0.574325 -0.816136 0.048457 0.626137 -0.778206 
0.271123 0.730242 -0.627088 0.423207 0.863298 -0.274976 -0.0476738 -0.987087 -0.152926 
-0.529063 -0.787822 -0.315323 -0.368939 -0.892794 -0.258464 -0.0889304 -0.983743 -0.156018 
-0.219181 -0.959445 -0.177272 0.0376497 -0.993217 -0.110015 0.0816112 -0.992685 -0.0889758 
0.0761009 -0.997063 -0.00858299 0.070908 -0.993174 0.0926113 0.173484 -0.97648 0.128021 
0.233353 -0.968993 0.0812381 0.28285 -0.958697 0.0299292 -0.541612 -0.778213 -0.31787 
-0.645881 -0.651248 -0.39839 0.303497 -0.952638 0.0192214 0.270947 -0.892341 0.360992 
0.322966 -0.94628 0.015707 0.422936 -0.906065 0.0131272 0.561727 -0.825982 0.0470914 
-0.681454 -0.595294 -0.425728 -0.723168 -0.475694 -0.500743 0.563996 -0.824379 0.0480344 
0.563853 -0.823775 0.0588657 0.766235 -0.640513 0.051252 -0.727275 -0.469342 -0.500788 
0.775023 -0.630035 0.0489493 0.767378 -0.63484 0.090052 -0.820967 -0.200043 -0.534786 
0.911176 -0.411991 -0.00472425 -0.752088 0.0347892 -0.658144 -0.990719 -0.102433 -0.0893486 
0.982125 -0.176846 -0.064467 0.99725 0.00943302 -0.0735062 -0.725739 0.0364702 -0.687003 
-0.985721 0.0694669 -0.153388 0.996907 0.0225016 -0.0752942 0.997342 0.017258 -0.0707958 
-0.738188 0.177376 -0.650858 0.96966 0.205179 -0.132899 -0.671068 0.33273 -0.662539 
-0.671478 0.337359 -0.659777 0.904834 0.402905 -0.137633 0.724333 0.668799 -0.167484 
-0.674673 0.381518 -0.631871 -0.845844 0.525487 -0.0917117 -0.653865 0.448926 -0.609037 
0.693598 0.696612 -0.183447 0.497876 0.837514 -0.225142 -0.647515 0.507475 -0.568501 
-0.699859 0.581302 -0.415072 -0.561175 0.696243 -0.44758 0.344578 0.824181 -0.449435 
0.0537424 0.863373 -0.501695 -0.00537602 0.907761 -0.419453 0.073948 0.952919 -0.29407 
0.37248 0.900339 -0.22505 0.262613 0.9329 -0.24644 -0.508424 0.758083 -0.40843 
-0.514236 0.857609 0.00818445 -0.344853 0.874499 -0.34107 -0.184735 0.935318 -0.301749 
-0.0286787 0.962062 -0.27132 0.153202 0.965612 -0.210055 0.296131 0.937162 -0.184481 
0.418103 0.870117 -0.260932 0.420229 0.871068 -0.254262 -0.0317204 -0.9801 0.195953 
-0.4802 -0.865045 0.145275 -0.307807 -0.931326 0.194644 -0.0653549 -0.978817 0.194024 
-0.205242 -0.959757 0.191681 0.023005 -0.980387 0.195737 -0.0323727 -0.972992 0.228558 
0.15079 -0.967991 0.200639 0.204389 -0.938404 0.27861 0.19717 -0.882702 0.42657 
0.163126 -0.846091 0.507464 0.164669 -0.855217 0.491414 -0.514565 -0.846069 0.13925 
-0.618221 -0.779499 0.100915 -0.470494 -0.822256 0.320205 0.255063 -0.71136 0.654912 
0.172381 -0.768288 0.616456 0.228069 -0.850302 0.474311 0.161291 -0.820588 0.548289 
0.261172 -0.837861 0.479352 0.313917 -0.800613 0.510368 0.37094 -0.762039 0.530753 
-0.690305 -0.719835 0.0729157 -0.781745 -0.622542 0.0362756 0.184653 -0.531886 0.826438 
0.260544 -0.644284 0.719037 0.426733 -0.716495 0.551846 0.390785 -0.704083 0.592919 
0.539601 -0.601077 0.589523 -0.866714 -0.498637 0.0129748 -0.668958 -0.443402 0.596565 
0.31885 -0.420306 0.849516 0.628595 -0.58709 0.510092 0.416067 -0.550206 0.723991 
0.691996 -0.495619 0.524885 -0.950075 -0.312019 0.000912546 -0.990306 -0.123521 -0.0635336 
0.406725 -0.31347 0.858086 0.714313 -0.419058 0.560488 0.657825 -0.386292 0.646564 
-0.992164 -0.105343 -0.0671746 -0.993753 -0.107848 -0.0287175 0.862299 -0.233557 0.449323 
0.550765 -0.264479 0.791649 -0.991758 0.0635931 -0.111234 -0.986101 0.113432 -0.121401 
-0.997855 0.0603158 0.0254267 0.923509 -0.0347008 0.382005 0.548645 -0.0586506 0.833996 
-0.964162 0.23968 -0.113776 0.879527 0.171108 0.444021 0.608148 0.130243 0.783066 
-0.905628 0.405448 -0.124298 0.823627 0.387306 0.414285 0.737102 0.528922 0.420621 
0.68333 0.39126 0.616421 -0.848919 0.525838 -0.0531993 -0.846206 0.530511 -0.0499446 
-0.840985 0.540974 0.00957024 0.68933 0.613514 0.385261 0.533248 0.78537 0.31439 
0.5094 0.474633 0.717799 -0.740589 0.671883 -0.0100628 -0.669062 0.742896 0.0214752 
-0.583856 0.663177 0.468303 0.235233 0.967103 0.0968376 0.0881752 0.994328 0.0594742 
0.0836467 0.985696 0.146312 0.045208 0.714095 0.698588 0.177003 0.973551 0.144456 
0.180678 0.738092 0.650058 0.394256 0.873744 0.28484 0.32083 0.904324 0.281543 
0.347849 0.840992 0.414407 -0.49114 0.861795 0.126847 -0.481871 0.86655 0.129963 
-0.483979 0.857805 0.173017 -0.278778 0.939748 0.197879 -0.203007 0.749564 0.630033 
-0.138927 0.960918 0.239448 -0.0335653 0.705073 0.70834 0.0130379 0.957413 0.288428 
0.0268527 0.651774 0.757938 0.176314 0.9382 0.297816 0.113968 0.723358 0.681002 
0.251261 0.924536 0.286535 0.208712 0.816614 0.538127 0.305489 0.930292 0.203058 
0.313617 0.924493 0.216696 0.305675 0.917662 0.253887 -0.286346 -0.718446 0.63391 
-0.179017 -0.749479 0.637365 -0.0324989 -0.755276 0.654601 0.13771 -0.764257 0.630038 
0.272625 -0.688364 0.672184 -0.51158 -0.602672 0.612432 -0.307846 -0.710083 0.633255 
-0.368167 -0.639809 0.674609 -0.281171 -0.697601 0.659011 -0.150539 -0.596168 0.78862 
-0.0462528 -0.545266 0.836986 0.123438 -0.557491 0.820955 0.269156 -0.650442 0.710267 
0.272661 -0.616881 0.738318 0.254724 -0.566198 0.783923 0.153345 -0.509845 0.846489 
0.155846 -0.481884 0.862264 -0.517027 -0.597509 0.612917 -0.507315 -0.593145 0.625148 
-0.283585 -0.471897 0.834801 -0.184205 -0.340932 0.921864 -0.0918184 -0.26137 0.960862 
0.0101935 -0.20483 0.978744 0.132493 -0.147909 0.980086 0.190212 -0.209931 0.959035 
0.208995 -0.336699 0.918126 0.142874 -0.43207 0.890451 0.158549 -0.470934 0.867804 
0.150694 -0.452612 0.878882 0.157897 -0.433084 0.887416 0.218251 -0.373087 0.901761 
-0.654414 -0.438108 0.616282 -0.660517 -0.428413 0.616587 -0.373084 -0.345242 0.861171 
-0.13004 -0.254259 0.958354 -0.0570646 -0.174331 0.983032 -0.013919 -0.0954238 0.995339 
0.0588723 -0.00384606 0.998258 0.118358 0.00478739 0.992959 0.118767 -0.0441793 0.991939 
0.0872296 -0.201936 0.975506 0.0826893 -0.26313 0.96121 0.121361 -0.241446 0.962796 
0.144367 -0.287246 0.946915 0.242813 -0.334202 0.910687 0.204298 -0.295237 0.933326 
0.246549 -0.373982 0.894064 -0.725987 -0.271377 0.6319 -0.627201 -0.257905 0.734918 
-0.257035 -0.111198 0.959983 -0.139061 -0.0848018 0.986646 0.0787154 0.0133403 0.996808 
0.107313 0.0454439 0.993186 0.101422 -0.0776702 0.991807 -0.0259776 -0.0594961 0.99789 
-0.022428 -0.199704 0.9796 0.122126 -0.118922 0.985364 0.125233 -0.121388 0.984673 
0.095643 -0.19055 0.977007 0.12595 -0.248026 0.960531 0.392489 -0.314417 0.864346 
0.1961 -0.329767 0.923471 0.403752 -0.297116 0.865278 -0.770897 -0.138868 0.621638 
-0.505527 -0.148033 0.850017 -0.179891 -0.085988 0.979921 0.0469027 0.0388739 0.998143 
0.072029 0.0625556 0.995439 -0.0348702 0.0390904 0.998627 0.012556 -0.199602 0.979797 
0.00865367 -0.033884 0.999388 0.03018 -0.0356885 0.998907 0.151375 -0.00346112 0.98847 
0.0504549 -0.0992993 0.993778 0.0153634 -0.154622 0.987854 0.0869168 -0.180112 0.979798 
0.222076 -0.170394 0.960025 0.404172 -0.164827 0.899709 0.361243 -0.135977 0.922504 
-0.81138 0.0371766 0.583335 -0.472631 0.0226091 0.88097 -0.140354 0.017583 0.989945 
0.0756758 -0.0249725 0.99682 0.078977 -0.00513381 0.996863 -0.149186 0.0075578 0.98878 
0.14429 -0.0735406 0.986799 0.013726 -0.0666664 0.997681 0.0541409 -0.0253546 0.998211 
-0.0274132 -0.0691284 0.997231 0.0137271 -0.0897206 0.995872 0.106446 -0.0801631 0.991082 
0.225936 -0.0620023 0.972167 0.419107 -0.0622584 0.9058 0.340078 -0.067716 0.937956 
-0.772891 0.201047 0.601847 -0.529911 0.170591 0.830719 -0.193401 0.141516 0.97086 
-0.0898825 0.0226255 0.995695 0.105574 -0.0214328 0.99418 -0.0193517 -0.019973 0.999613 
-0.0592942 0.152917 0.986459 -0.0644862 -0.0361441 0.997264 0.146049 -0.0318488 0.988765 
-0.0107347 0.000730396 0.999942 0.00264142 0.00447854 0.999986 0.107271 -0.00204788 0.994228 
0.231412 0.0274846 0.972468 0.490421 0.0980444 0.865953 0.375648 0.0602015 0.924805 
-0.792395 0.337312 0.508262 -0.692617 0.460543 0.555142 -0.624739 0.328992 0.708142 
-0.304445 0.198558 0.931605 -0.141312 0.14888 0.978706 0.0316102 0.0800933 0.996286 
0.0409509 0.0482091 0.997997 0.0268441 0.00938756 0.999596 0.00517412 0.0723935 0.997363 
-0.0138355 0.0779364 0.996862 0.0197006 0.174646 0.984434 0.0519835 0.0787818 0.995536 
0.00852298 0.0970337 0.995245 0.0113886 0.0983802 0.995084 0.132633 0.17105 0.976294 
0.267838 0.166639 0.948944 0.502927 0.238907 0.830655 0.486611 0.286477 0.825313 
0.479916 0.224047 0.848224 -0.578096 0.530354 0.620105 -0.489877 0.569417 0.660141 
-0.406305 0.409411 0.816884 -0.213242 0.314588 0.924966 -0.0810786 0.224112 0.971185 
0.0277201 0.154778 0.98756 0.00611232 0.133893 0.990977 0.01138 0.137759 0.9904 
0.0385401 0.171287 0.984467 0.0656306 0.24015 0.968515 0.0628628 0.267872 0.961401 
0.0225849 0.297471 0.954464 0.0431815 0.68286 0.729272 0.0742008 0.358087 0.930735 
0.180215 0.723313 0.666589 0.16978 0.34962 0.92138 0.398831 0.448472 0.799879 
0.3409 0.542386 0.767857 0.31747 0.459546 0.829476 -0.423578 0.579689 0.696091 
-0.339422 0.580922 0.739812 -0.287996 0.515503 0.807041 -0.186898 0.683125 0.705981 
-0.141901 0.417949 0.89732 -0.031756 0.690717 0.722427 -0.054914 0.356368 0.93273 
0.0267112 0.650473 0.75906 0.000889749 0.35584 0.934546 0.101732 0.668438 0.736778 
0.0479681 0.384169 0.922016 0.159437 0.661159 0.733109 0.102409 0.445545 0.889383 
0.174224 0.675309 0.716661 0.133662 0.534837 0.834316 0.127162 0.714287 0.688203 
0.112797 0.634529 0.764624 0.0571977 0.696267 0.715501 0.100266 0.722811 0.683733 
0.098834 0.682456 0.724214 -0.0367705 -0.0883881 0.995407 -0.0780156 -0.0585861 0.995229 
-0.0539979 -0.0428422 0.997622 0.0549227 0.00140508 0.99849 0.0364585 0.0277181 0.998951 
-0.0267778 -0.0391831 0.998873 -0.0526013 -0.0423853 0.997716 -0.0172976 -0.0145066 0.999745 
-0.0482055 -0.0403019 0.998024 0.012684 -0.191732 0.981365 -0.0341963 0.0167589 0.999275 
0.0103139 0.003544 0.999941 -0.038127 0.0180376 0.99911 -0.0184621 0.0167501 0.999689 
0.0566877 -0.0106246 0.998335 -0.0579943 0.0117165 0.998248 0.0659272 -0.0181248 0.99766 
-0.0449959 0.127951 0.990759 0.0197001 0.0192401 0.999621 0.0464953 -0.0243383 0.998622 
-0.0464826 0.0202231 0.998714 0.0551512 0.00286157 0.998474 0.0266921 0.0447278 0.998643 
0.0210105 0.0178474 0.99962 -0.0171829 -0.0179536 0.999691 0.0957596 -0.00427572 0.995395 
0.0471504 0.0815417 0.995554 0.0663333 0.0136685 0.997704 
