# vtk DataFile Version 4.2
vtk output
ASCII
DATASET POLYDATA
POINTS 534 float
1.47454 -38.8798 -12.2814 8.90652 -38.8798 -12.1372 -13.3894 -31.4478 -12.5461 
-5.95743 -31.4478 -14.5035 1.47454 -31.4478 -14.9918 8.90652 -31.4478 -14.8941 
16.3385 -31.4478 -14.7218 23.7705 -31.4478 -13.6312 -28.2533 -24.0158 -12.4253 
-20.8214 -24.0158 -13.5826 -13.3894 -24.0158 -14.6594 -5.95743 -24.0158 -15.3746 
1.47454 -24.0158 -16.0827 8.90652 -24.0158 -16.2106 16.3385 -24.0158 -16.1179 
23.7705 -24.0158 -15.3372 31.2024 -24.0158 -14.6504 38.6344 -24.0158 -13.351 
-35.6853 -16.5839 -12.3441 -28.2533 -16.5839 -13.9176 -20.8214 -16.5839 -14.5308 
-13.3894 -16.5839 -14.79 -5.95743 -16.5839 -14.9075 1.47454 -16.5839 -15.6451 
8.90652 -16.5839 -16.0699 16.3385 -16.5839 -15.7746 23.7705 -16.5839 -15.7938 
31.2024 -16.5839 -15.1779 38.6344 -16.5839 -14.6169 46.0664 -16.5839 -13.284 
-35.6853 -9.1519 -12.2881 -28.2533 -9.1519 -12.9909 -20.8214 -9.1519 -13.6977 
-13.3894 -9.1519 -16.033 -5.95743 -9.1519 -16.0883 1.47454 -9.1519 -16.6359 
8.90652 -9.1519 -16.4068 16.3385 -9.1519 -13.9524 23.7705 -9.1519 -14.9177 
31.2024 -9.1519 -15.5685 38.6344 -9.1519 -15.505 46.0664 -9.1519 -14.612 
-20.8214 -1.71993 -12.4295 -13.3894 -1.71993 -16.5461 -5.95743 -1.71993 -17.7629 
1.47454 -1.71993 -14.6654 8.90652 -1.71993 -17.9624 16.3385 -1.71993 -16.9657 
23.7705 -1.71993 -16.1179 31.2024 -1.71993 -16.2767 38.6344 -1.71993 -15.5842 
46.0664 -1.71993 -14.0395 -20.8214 5.71204 -12.9352 -13.3894 5.71204 -14.1258 
-5.95743 5.71204 -14.9454 1.47454 5.71204 -15.8805 8.90652 5.71204 -17.5098 
16.3385 5.71204 -19.4188 23.7705 5.71204 -18.3242 31.2024 5.71204 -16.6076 
38.6344 5.71204 -14.761 -28.2533 13.144 -12.4556 -20.8214 13.144 -13.4214 
-13.3894 13.144 -12.8769 -5.95743 13.144 -13.4562 1.47454 13.144 -18.1387 
8.90652 13.144 -15.3191 16.3385 13.144 -16.9277 23.7705 13.144 -17.7972 
31.2024 13.144 -16.2188 38.6344 13.144 -13.3862 -28.2533 20.576 -12.1635 
-20.8214 20.576 -13.3464 -13.3894 20.576 -13.6718 -5.95743 20.576 -13.1122 
1.47454 20.576 -14.3878 8.90652 20.576 -15.5043 16.3385 20.576 -16.1539 
23.7705 20.576 -17.0066 31.2024 20.576 -15.7103 -20.8214 28.0079 -13.334 
-13.3894 28.0079 -13.3273 -5.95743 28.0079 -13.4243 1.47454 28.0079 -14.2216 
8.90652 28.0079 -15.7447 16.3385 28.0079 -16.4164 23.7705 28.0079 -16.0682 
31.2024 28.0079 -15.3443 -20.8214 35.4399 -13.227 -13.3894 35.4399 -12.6869 
-5.95743 35.4399 -12.7753 1.47454 35.4399 -13.3922 8.90652 35.4399 -15.147 
16.3385 35.4399 -16.4293 23.7705 35.4399 -15.6485 31.2024 35.4399 -13.9846 
8.90652 42.8719 -12.6215 16.3385 42.8719 -13.8123 23.7705 42.8719 -13.9362 
1.47454 -39.125 -12.1044 8.90652 -38.9256 -12.1044 -13.3894 -32.3424 -12.1044 
-13.3894 -38.8798 -7.70326 0.598972 -38.8798 -12.1044 -5.95743 -36.4124 -12.1044 
-5.95743 -38.8798 -10.3073 9.13473 -38.8798 -12.1044 16.3385 -36.8879 -12.1044 
16.3385 -38.8798 -10.7642 23.7705 -34.059 -12.1044 23.7705 -38.8798 -8.1439 
-35.6853 -31.4478 -6.40794 -28.2533 -24.7341 -12.1044 -28.2533 -31.4478 -8.50442 
-15.6237 -31.4478 -12.1044 -20.8214 -28.6499 -12.1044 -20.8214 -31.4478 -10.9632 
30.8804 -31.4478 -12.1044 31.2024 -31.2603 -12.1044 31.2024 -31.4478 -12.0161 
38.6344 -26.4882 -12.1044 38.6344 -31.4478 -7.53405 -43.1173 -24.0158 -8.75196 
-30.5378 -24.0158 -12.1044 -35.6853 -18.4758 -12.1044 -35.6853 -24.0158 -11.3609 
41.6773 -24.0158 -12.1044 46.0664 -19.0993 -12.1044 46.0664 -24.0158 -9.49171 
-50.5492 -16.5839 -5.72038 -36.4661 -16.5839 -12.1044 -43.1173 -16.5839 -10.1996 
48.5779 -16.5839 -12.1044 53.4983 -16.5839 -8.64514 -50.5492 -9.1519 -6.65346 
-36.6268 -9.1519 -12.1044 -43.1173 -9.1519 -10.7357 -35.6853 -7.54542 -12.1044 
-28.2533 -2.7089 -12.1044 52.3146 -9.1519 -12.1044 53.4983 -9.1519 -11.3228 
-50.5492 -1.71993 -6.6202 -43.1173 -1.71993 -9.73902 -35.6853 -1.71993 -11.4386 
-26.0486 -1.71993 -12.1044 -28.2533 -1.71993 -11.9686 49.6619 -1.71993 -12.1044 
46.0664 4.18421 -12.1044 53.4983 -1.71993 -9.28349 -50.5492 5.71204 -6.44098 
-43.1173 5.71204 -8.96932 -35.6853 5.71204 -11.5594 -28.2368 5.71204 -12.1044 
-28.2533 5.75207 -12.1044 -28.2533 5.71204 -12.1026 45.0578 5.71204 -12.1044 
46.0664 5.71204 -11.5833 -43.1173 13.144 -7.73346 -29.5885 13.144 -12.1044 
-35.6853 13.144 -10.4035 40.6624 13.144 -12.1044 38.6344 19.4361 -12.1044 
46.0664 13.144 -7.49282 -43.1173 20.576 -5.94402 -28.4122 20.576 -12.1044 
-35.6853 20.576 -9.41329 -28.2533 22.9718 -12.1044 38.2504 20.576 -12.1044 
38.6344 20.576 -11.8046 -35.6853 28.0079 -7.66696 -27.5761 28.0079 -12.1044 
-28.2533 28.0079 -11.9605 36.3545 28.0079 -12.1044 38.6344 28.0079 -9.71814 
-23.8232 35.4399 -12.1044 -28.2533 35.4399 -10.01 -20.8214 37.8185 -12.1044 
-13.3894 37.0898 -12.1044 -5.95743 37.4018 -12.1044 1.47454 39.5032 -12.1044 
34.3746 35.4399 -12.1044 31.2024 39.9938 -12.1044 38.6344 35.4399 -5.17232 
-28.2533 42.8719 -6.47258 -20.8214 42.8719 -8.76321 -13.3894 42.8719 -9.73595 
-5.95743 42.8719 -9.74321 6.48421 42.8719 -12.1044 1.47454 42.8719 -10.7834 
8.90652 43.893 -12.1044 16.3385 46.5891 -12.1044 27.4812 42.8719 -12.1044 
23.7705 45.0807 -12.1044 31.2024 42.8719 -8.60157 -13.3894 -41.1324 -4.67245 
-5.95743 -43.5072 -4.67245 1.47454 -44.9888 -4.67245 8.90652 -45.1981 -4.67245 
16.3385 -44.1489 -4.67245 23.7705 -41.6833 -4.67245 -35.6853 -32.9477 -4.67245 
-28.2533 -35.5359 -4.67245 -20.2931 -38.8798 -4.67245 -20.8214 -38.6631 -4.67245 
-20.8214 -38.8798 -3.81899 29.975 -38.8798 -4.67245 31.2024 -38.2977 -4.67245 
38.6344 -33.3277 -4.67245 -38.665 -31.4478 -4.67245 -43.1173 -28.726 -4.67245 
-43.1173 -31.4478 2.51709 41.3509 -31.4478 -4.67245 46.0664 -28.1005 -4.67245 
-48.6476 -24.0158 -4.67245 -50.5492 -19.9143 -4.67245 -50.5492 -24.0158 -0.85611 
50.586 -24.0158 -4.67245 53.4983 -20.2404 -4.67245 -51.6982 -16.5839 -4.67245 
55.7617 -16.5839 -4.67245 -53.0198 -9.1519 -4.67245 57.1842 -9.1519 -4.67245 
-52.9985 -1.71993 -4.67245 -57.9812 -1.71993 2.19768 56.1888 -1.71993 -4.67245 
53.4983 4.59561 -4.67245 -52.5779 5.71204 -4.67245 -50.5492 9.991 -4.67245 
52.8857 5.71204 -4.67245 -47.727 13.144 -4.67245 -50.5492 13.144 -1.36216 
48.342 13.144 -4.67245 46.0664 17.2978 -4.67245 -44.5295 20.576 -4.67245 
-43.1173 22.6806 -4.67245 44.3583 20.576 -4.67245 -39.259 28.0079 -4.67245 
-35.6853 35.3554 -4.67245 41.5787 28.0079 -4.67245 38.6344 28.0079 1.80623 
-35.6416 35.4399 -4.67245 -35.6853 35.4399 -4.42891 38.8308 35.4399 -4.67245 
38.6344 35.7482 -4.67245 38.6344 35.4399 -4.30422 -30.0841 42.8719 -4.67245 
-28.2533 44.3858 -4.67245 -20.8214 47.1726 -4.67245 -13.3894 47.5631 -4.67245 
-5.95743 47.0494 -4.67245 1.47454 47.2811 -4.67245 8.90652 47.6473 -4.67245 
16.3385 48.6956 -4.67245 23.7705 47.8143 -4.67245 23.7705 42.8719 2.0676 
32.9906 42.8719 -4.67245 31.2024 44.4816 -4.67245 31.2024 42.8719 -2.50598 
-20.8214 -40.1136 2.75952 -13.3894 -42.5344 2.75952 -5.95743 -44.52 2.75952 
1.47454 -45.6258 2.75952 8.90652 -46.2649 2.75952 16.3385 -45.6071 2.75952 
23.7705 -42.9074 2.75952 -43.1173 -31.5067 2.75952 -35.6853 -35.5446 2.75952 
-25.1116 -38.8798 2.75952 -28.2533 -37.9622 2.75952 -20.8214 -38.8798 6.87471 
30.0798 -38.8798 2.75952 31.2024 -38.0834 2.75952 38.6344 -32.5982 2.75952 
-43.2056 -31.4478 2.75952 -50.5492 -25.2596 2.75952 -43.1173 -31.4478 2.90603 
-35.6853 -31.4478 9.84691 40.0351 -31.4478 2.75952 38.6344 -31.4478 4.29362 
46.0664 -26.5693 2.75952 -51.626 -24.0158 2.75952 -50.5492 -24.0158 4.83997 
38.6344 -24.0158 9.55528 48.7519 -24.0158 2.75952 46.0664 -24.0158 5.53181 
53.4983 -18.2035 2.75952 -55.9428 -16.5839 2.75952 46.0664 -16.5839 10.0635 
54.5842 -16.5839 2.75952 53.4983 -16.5839 4.0688 -57.7846 -9.1519 2.75952 
-57.9812 -5.75442 2.75952 56.0466 -9.1519 2.75952 53.4983 -9.1519 5.80698 
-58.2148 -1.71993 2.75952 -57.9812 -0.874828 2.75952 -57.9812 -1.71993 3.44389 
55.3307 -1.71993 2.75952 53.4983 4.02247 2.75952 53.4983 -1.71993 5.1456 
-56.0826 5.71204 2.75952 52.8166 5.71204 2.75952 46.0664 5.71204 9.50219 
-52.4309 13.144 2.75952 -50.5492 16.6224 2.75952 -50.5492 13.144 8.39864 
38.6344 13.144 9.36436 47.7422 13.144 2.75952 46.0664 15.5587 2.75952 
46.0664 13.144 4.7569 -47.9908 20.576 2.75952 -43.1173 26.9613 2.75952 
31.2024 20.576 9.0924 42.0441 20.576 2.75952 38.6344 26.9524 2.75952 
38.6344 20.576 6.16609 -42.2958 28.0079 2.75952 -35.6853 28.0079 9.0058 
-5.95743 28.0079 9.98124 1.47454 28.0079 8.74906 8.90652 28.0079 8.55843 
16.3385 28.0079 8.88328 23.7705 28.0079 8.21777 37.8228 28.0079 2.75952 
31.2024 28.0079 6.64929 -36.7963 35.4399 2.75952 -35.6853 36.7853 2.75952 
-35.6853 35.4399 4.30174 -20.8214 35.4399 9.62207 -13.3894 35.4399 9.30868 
-5.95743 35.4399 7.49836 1.47454 35.4399 6.36238 8.90652 35.4399 6.58335 
16.3385 35.4399 6.7227 23.7705 41.5901 2.75952 23.7705 35.4399 5.56908 
32.9925 35.4399 2.75952 31.2024 37.3341 2.75952 31.2024 35.4399 3.93296 
-29.1378 42.8719 2.75952 -28.2533 43.4755 2.75952 -28.2533 42.8719 3.48622 
-20.8214 45.779 2.75952 -20.8214 42.8719 5.83338 -13.3894 45.2343 2.75952 
-13.3894 42.8719 5.16891 -5.95743 43.7319 2.75952 -5.95743 42.8719 3.44251 
1.47454 43.1351 2.75952 1.47454 42.8719 2.92271 8.90652 43.2114 2.75952 
8.90652 42.8719 2.91837 19.9929 42.8719 2.75952 16.3385 44.0561 2.75952 
16.3385 42.8719 3.25977 -13.3894 -39.3704 10.1915 -5.95743 -41.1358 10.1915 
1.47454 -42.3772 10.1915 8.90652 -43.2064 10.1915 16.3385 -42.6911 10.1915 
23.7705 -39.4576 10.1915 -28.2533 -35.0068 10.1915 -15.6155 -38.8798 10.1915 
-20.8214 -37.5451 10.1915 -13.3894 -38.8798 10.7561 -5.95743 -38.8798 12.572 
1.47454 -38.8798 13.3091 8.90652 -38.8798 13.9503 16.3385 -38.8798 13.6694 
24.5318 -38.8798 10.1915 23.7705 -38.8798 10.7715 31.2024 -32.615 10.1915 
-43.1173 -26.1 10.1915 -35.2004 -31.4478 10.1915 -35.6853 -31.1722 10.1915 
-28.2533 -31.4478 13.2339 -20.8214 -31.4478 15.1593 -13.3894 -31.4478 16.6009 
-5.95743 -31.4478 17.1438 1.47454 -31.4478 17.0248 16.3385 -31.4478 17.5881 
23.7705 -31.4478 16.1232 32.4099 -31.4478 10.1915 31.2024 -31.4478 11.0859 
[...]
POINT_DATA 534
SCALARS ImageScalars float
LOOKUP_TABLE default
0 0 0 0 0 0 0 0 0 
0 0 0 0 0 0 0 0 0 
0 0 0 0 0 0 0 0 0 
0 0 0 0 0 0 0 0 0 
0 0 0 0 0 0 0 0 0 
0 0 0 0 0 0 0 0 0 
0 0 0 0 0 0 0 0 0 
0 0 0 0 0 0 0 0 0 
0 0 0 0 0 0 0 0 0 
0 0 0 0 0 0 0 0 0 
0 0 0 0 0 0 0 0 0 
0 0 0 0 0 0 0 0 0 
0 0 0 0 0 0 0 0 0 
0 0 0 0 0 0 0 0 0 
0 0 0 0 0 0 0 0 0 
0 0 0 0 0 0 0 0 0 
0 0 0 0 0 0 0 0 0 
0 0 0 0 0 0 0 0 0 
0 0 0 0 0 0 0 0 0 
0 0 0 0 0 0 0 0 0 
0 0 0 0 0 0 0 0 0 
0 0 0 0 0 0 0 0 0 
0 0 0 0 0 0 0 0 0 
0 0 0 0 0 0 0 0 0 
0 0 0 0 0 0 0 0 0 
0 0 0 0 0 0 0 0 0 
0 0 0 0 0 0 0 0 0 
0 0 0 0 0 0 0 0 0 
0 0 0 0 0 0 0 0 0 
0 0 0 0 0 0 0 0 0 
0 0 0 0 0 0 0 0 0 
0 0 0 0 0 0 0 0 0 
0 0 0 0 0 0 0 0 0 
0 0 0 0 0 0 0 0 0 
0 0 0 0 0 0 0 0 0 
0 0 0 0 0 0 0 0 0 
0 0 0 0 0 0 0 0 0 
0 0 0 0 0 0 0 0 0 
0 0 0 0 0 0 0 0 0 
0 0 0 0 0 0 0 0 0 
0 0 0 0 0 0 0 0 0 
0 0 0 0 0 0 0 0 0 
0 0 0 0 0 0 0 0 0 
0 0 0 0 0 0 0 0 0 
0 0 0 0 0 0 0 0 0 
0 0 0 0 0 0 0 0 0 
0 0 0 0 0 0 0 0 0 
0 0 0 0 0 0 0 0 0 
0 0 0 0 0 0 0 0 0 
0 0 0 0 0 0 0 0 0 
0 0 0 0 0 0 0 0 0 
0 0 0 0 0 0 0 0 0 
0 0 0 0 0 0 0 0 0 
0 0 0 0 0 0 0 0 0 
0 0 0 0 0 0 0 0 0 
0 0 0 0 0 0 0 0 0 
0 0 0 0 0 0 0 0 0 
0 0 0 0 0 0 0 0 0 
0 0 0 0 0 0 0 0 0 
0 0 0 
NORMALS Normals float
0.0864307 0.529952 0.843612 -0.0776022 0.524735 0.847721 0.227763 0.362382 0.903772 
0.148311 0.275074 0.949915 0.0270456 0.240235 0.970338 -0.0180825 0.261233 0.965106 
-0.0755482 0.315037 0.946068 -0.179146 0.370441 0.911417 0.141444 0.306963 0.941152 
0.141578 0.218284 0.965561 0.122216 0.135192 0.983253 0.0940223 0.0295945 0.99513 
0.0559428 0.0420734 0.997547 0.00205406 0.075286 0.99716 -0.0568731 0.0685754 0.996024 
-0.0964552 0.130509 0.986744 -0.140628 0.205944 0.968406 -0.270658 0.31503 0.909671 
0.248952 0.054212 0.966998 0.14212 0.0320121 0.989332 0.0597643 0.0131447 0.998126 
0.0251945 0.0831592 0.996218 0.0589055 0.0368629 0.997583 0.0756681 0.027069 0.996766 
0.0086915 0.0104883 0.999907 -0.0186393 -0.141473 0.989767 -0.0401937 -0.0286656 0.998781 
-0.07707 0.0589602 0.995281 -0.11238 0.148718 0.982473 -0.316542 0.286826 0.904175 
0.142416 -0.0601598 0.987977 0.0898882 -0.133143 0.987012 0.193349 -0.144831 0.970381 
0.158381 0.115222 0.980632 0.038369 0.180751 0.98278 0.0197554 -0.0300578 0.999353 
-0.189166 0.117641 0.974873 -0.0822959 0.0263032 0.996261 0.104672 0.0159887 0.994378 
0.039642 0.0734002 0.996514 -0.0552876 0.0643783 0.996393 -0.284306 0.0453765 0.957659 
0.220629 -0.0444041 0.974346 0.391144 -0.135184 0.910347 -0.105485 -0.0863763 0.990662 
0.018414 -0.0654216 0.997688 0.119594 0.0707629 0.990298 -0.119142 0.400818 0.908378 
-0.0316543 0.231766 0.972256 -0.0344344 0.0697298 0.996971 -0.131545 -0.0479198 0.990151 
-0.367626 -0.169846 0.914332 0.12797 0.0658019 0.989593 0.135382 -0.200097 0.970378 
0.108983 -0.230448 0.966963 0.198561 0.209439 0.957449 0.224267 -0.175195 0.958651 
0.0467819 -0.0294091 0.998472 -0.184359 0.103882 0.977354 -0.228509 -0.0030561 0.973537 
-0.281251 -0.134794 0.95012 0.192923 0.00489312 0.981202 0.0287993 0.0274525 0.999208 
-0.0143091 -0.023924 0.999611 0.322772 -0.139018 0.936212 0.00609983 -0.160296 0.98705 
-0.0408741 -0.129779 0.9907 0.171492 -0.238129 0.955973 -0.0519001 -0.0914271 0.994458 
-0.266454 -0.0612418 0.9619 -0.458308 -0.172401 0.871912 0.25811 -0.0311087 0.965615 
0.0979367 -0.00580829 0.995176 -0.0161412 0.0275645 0.99949 0.0475552 0.00743819 0.998841 
0.161962 -0.192707 0.967798 0.119682 0.0285464 0.992402 0.100182 -0.0287224 0.994554 
-0.0325366 -0.109265 0.99348 -0.290101 -0.0538062 0.955482 0.0934402 -0.00956827 0.995579 
0.00605384 -0.0647029 0.997886 0.0574488 -0.0205998 0.998136 0.157807 -0.063337 0.985437 
0.1438 -0.0198474 0.989408 0.0217393 0.0183494 0.999595 -0.0652039 -0.0855784 0.994196 
-0.298769 -0.132753 0.945047 0.150338 -0.244746 0.957861 -0.0358554 -0.20024 0.979091 
0.0452508 -0.201238 0.978497 0.153444 -0.215237 0.964431 0.191088 -0.20253 0.960451 
0.0323594 -0.209148 0.977349 -0.183477 -0.118788 0.97582 -0.37966 -0.265512 0.886206 
0.214972 -0.44124 0.87126 0.0845871 -0.410955 0.907723 -0.197093 -0.494241 0.846688 
0.0867735 0.542094 0.835825 -0.0776142 0.526889 0.846383 0.237099 0.393718 0.888127 
0.290017 0.740602 0.606134 0.102304 0.538699 0.836264 0.197544 0.487691 0.850373 
0.223869 0.64525 0.730434 -0.0806644 0.526561 0.846301 -0.15057 0.508891 0.84756 
-0.184017 0.611247 0.76975 -0.19589 0.482607 0.85365 -0.289532 0.75104 0.593389 
0.317491 0.727596 0.608115 0.147006 0.330663 0.932229 0.231446 0.621693 0.748285 
0.226209 0.393346 0.891128 0.190197 0.369985 0.90936 0.228117 0.481835 0.846048 
-0.27411 0.437106 0.856623 -0.274711 0.433652 0.858184 -0.280769 0.443148 0.851345 
-0.314332 0.429739 0.846475 -0.491274 0.761333 0.42311 0.465995 0.399543 0.789439 
0.153353 0.295408 0.942983 0.234008 0.103555 0.966704 0.195658 0.282836 0.939 
-0.3549 0.374218 0.856742 -0.366634 0.339652 0.86615 -0.549072 0.550324 0.629018 
0.679346 0.177455 0.712038 0.256944 0.0562307 0.964789 0.360781 0.0958053 0.927717 
-0.422129 0.303764 0.854128 -0.760205 0.375197 0.530392 0.553433 0.0479302 0.831514 
0.161449 -0.0545766 0.985371 0.314358 -0.025853 0.948952 0.14244 -0.0569766 0.988162 
0.068637 -0.069792 0.995197 -0.562596 0.0219009 0.826442 -0.647259 0.020501 0.761995 
0.544758 -0.015243 0.838455 0.269748 -0.117544 0.95573 0.142033 -0.0490117 0.988648 
0.110122 -0.0545134 0.992422 0.0659888 -0.0595231 0.996043 -0.51545 -0.204874 0.832068 
-0.442112 -0.309555 0.841851 -0.752957 -0.250089 0.608697 0.560415 -0.208833 0.801451 
0.331745 -0.10617 0.937376 0.212658 -0.0615715 0.975185 0.0896697 0.0321197 0.995453 
0.0901603 0.0318938 0.995416 0.0896061 0.0320404 0.995462 -0.436773 -0.310255 0.844376 
-0.48119 -0.346478 0.805239 0.471696 -0.205493 0.857482 0.203834 -0.0225282 0.978746 
0.275656 -0.143603 0.950469 -0.513519 -0.2115 0.831604 -0.570279 -0.173823 0.802849 
-0.764742 -0.416882 0.491303 0.635502 -0.349998 0.688214 0.260809 -0.0335107 0.964809 
0.400781 -0.170208 0.900224 0.284934 -0.0649141 0.956346 -0.575121 -0.166961 0.80085 
-0.604619 -0.180397 0.775818 0.613893 -0.277327 0.73907 0.31821 -0.124466 0.939814 
0.342541 -0.138091 0.929299 -0.60081 -0.17639 0.779689 -0.821518 -0.258273 0.508333 
0.272546 -0.255097 0.927709 0.493335 -0.29197 0.819374 0.152046 -0.341701 0.927428 
-0.0202862 -0.259228 0.965603 0.051864 -0.285083 0.957099 0.153474 -0.334771 0.929717 
-0.589741 -0.304278 0.748078 -0.486389 -0.489869 0.723501 -0.880487 -0.473134 -0.0297939 
0.519983 -0.699595 0.490086 0.183722 -0.67094 0.718391 0.0669401 -0.627724 0.775552 
0.0691343 -0.685109 0.725152 0.199874 -0.43982 0.875562 0.156482 -0.545894 0.823112 
0.231941 -0.470199 0.851538 0.0352473 -0.569475 0.821253 -0.410209 -0.586645 0.698266 
-0.302493 -0.618136 0.725539 -0.626276 -0.740359 0.244224 0.299681 0.86059 0.411797 
0.241839 0.901183 0.359697 0.0987638 0.942638 0.318872 -0.0480683 0.928902 0.367193 
-0.200665 0.890389 0.408584 -0.35526 0.851086 0.386577 0.348357 0.794966 0.496666 
0.283139 0.801837 0.526203 0.306822 0.840782 0.446034 0.308236 0.837393 0.451401 
0.311632 0.86588 0.391326 -0.463693 0.847638 0.257872 -0.483406 0.843067 0.235703 
-0.539232 0.813371 0.218304 0.40518 0.770166 0.492619 0.509804 0.691911 0.511232 
0.529778 0.846376 -0.0546167 -0.54896 0.8151 0.18508 -0.606429 0.775814 0.17423 
0.651991 0.498845 0.571018 0.712223 0.310634 0.629479 0.777334 0.589934 0.218471 
-0.747478 0.640134 0.177495 -0.849189 0.502414 0.162661 0.744952 0.189231 0.639717 
-0.9051 0.379812 0.191148 0.706768 0.0637908 0.704564 -0.980461 0.0297569 0.194452 
0.626075 -0.0276977 0.779271 0.990266 -0.11188 0.0827996 -0.937471 -0.263581 0.227318 
-0.856971 -0.46182 0.228743 0.698659 -0.217853 0.68148 0.628773 -0.335055 0.7017 
-0.841701 -0.484094 0.239149 0.58355 -0.380828 0.717245 0.766582 -0.493269 0.411142 
-0.827459 -0.49028 0.273749 -0.874506 -0.441299 0.201235 0.68779 -0.379091 0.61906 
0.694852 -0.392816 0.602392 -0.906781 -0.400358 0.132141 0.709361 -0.411923 0.57195 
0.778112 -0.449638 0.438597 -0.93406 -0.351611 0.0624616 -0.665743 -0.448644 -0.596242 
0.778529 -0.450509 0.436961 0.783253 -0.460322 0.417874 -0.876664 -0.476728 -0.0647315 
-0.87331 -0.482673 -0.0660073 -0.873354 -0.478279 -0.09221 0.597638 -0.732863 0.325177 
0.543362 -0.781921 0.305545 0.218041 -0.929411 0.297747 -0.0124752 -0.985798 0.16747 
-0.0179848 -0.987514 0.156501 0.0422948 -0.996735 0.0687753 0.101624 -0.994685 -0.0165538 
0.0126064 -0.998187 -0.0588505 -0.265385 -0.962009 -0.0641037 -0.340962 -0.553001 -0.76022 
-0.685256 -0.718927 -0.116483 -0.589479 -0.797311 -0.129653 -0.594155 -0.744423 -0.304654 
0.297656 0.953482 -0.0476648 0.273234 0.957744 -0.0898307 0.20817 0.969163 -0.131861 
0.117125 0.984532 -0.130299 -0.000518532 0.995929 -0.0901405 -0.208311 0.975672 -0.0683398 
-0.435732 0.894106 -0.103498 0.528372 0.84617 -0.0694244 0.392946 0.916847 -0.0705983 
0.292606 0.955638 -0.0337387 0.290825 0.956545 -0.0210322 0.267352 0.912254 -0.310347 
-0.561625 0.802559 -0.201184 -0.581711 0.781395 -0.225905 -0.624658 0.709263 -0.326724 
0.5308 0.844627 -0.0696918 0.759857 0.643959 -0.0890782 0.529263 0.844769 -0.0790371 
0.371969 0.700949 -0.608531 -0.620517 0.704042 -0.345375 -0.625168 0.657481 -0.420575 
-0.608502 0.665375 -0.432436 0.786206 0.612037 -0.085387 0.737736 0.62956 -0.243722 
-0.481395 0.410078 -0.774658 -0.662494 0.621607 -0.417979 -0.538761 0.583011 -0.60814 
-0.75586 0.475947 -0.449612 0.924349 0.381313 -0.0133918 -0.467959 0.245829 -0.848871 
-0.793473 0.402799 -0.456238 -0.738986 0.393587 -0.546799 0.99018 0.138768 0.0169476 
0.999351 0.0249952 0.0259498 -0.907031 0.0511761 -0.417943 -0.754969 0.0673569 -0.652291 
0.993472 -0.107869 0.037112 0.989993 -0.135239 0.040304 0.993896 -0.108431 -0.0203451 
-0.899212 -0.208613 -0.384576 -0.850106 -0.388779 -0.355205 -0.797626 -0.195116 -0.570721 
0.93052 -0.364743 0.0330909 -0.833838 -0.436667 -0.337693 -0.508089 -0.277195 -0.815481 
0.868953 -0.490898 0.0627611 0.843004 -0.535592 0.0498537 0.743499 -0.433486 -0.509214 
-0.398659 -0.354045 -0.846004 -0.74297 -0.557798 -0.369943 -0.748153 -0.524872 -0.405926 
-0.673107 -0.538901 -0.50647 0.807814 -0.589096 0.020073 0.799747 -0.597976 -0.0531995 
-0.233418 -0.32423 -0.916729 -0.73769 -0.444275 -0.508363 -0.608089 -0.444752 -0.657589 
-0.561445 -0.420214 -0.712882 0.796898 -0.598951 -0.0788124 0.453864 -0.464776 -0.760257 
-0.178292 -0.280247 -0.943225 -0.0905076 -0.359876 -0.9286 0.00783583 -0.295863 -0.955198 
-0.0262235 -0.260177 -0.965205 -0.125069 -0.285713 -0.950119 -0.580453 -0.435287 -0.688185 
-0.356177 -0.342823 -0.869259 0.732581 -0.640545 -0.230276 0.71533 -0.663746 -0.218504 
0.713246 -0.59264 -0.374244 -0.0497158 -0.386378 -0.921 -0.132742 -0.404954 -0.90465 
-0.202989 -0.400367 -0.893589 -0.0575431 -0.398318 -0.915441 0.0236493 -0.387799 -0.921441 
-0.0575096 -0.357422 -0.932171 -0.294509 -0.48336 -0.824396 -0.186358 -0.346549 -0.919334 
-0.467504 -0.433122 -0.770614 -0.398946 -0.476758 -0.78329 -0.37861 -0.419942 -0.824805 
0.501961 -0.767537 -0.39865 0.465109 -0.778566 -0.421317 0.442856 -0.762649 -0.471428 
0.112872 -0.888054 -0.445667 0.0876661 -0.698955 -0.709772 -0.101855 -0.832674 -0.544316 
-0.13729 -0.671964 -0.727747 -0.144642 -0.690683 -0.708545 -0.166765 -0.643214 -0.747306 
-0.0244064 -0.567595 -0.822946 -0.0295325 -0.55771 -0.82951 0.029517 -0.489121 -0.871716 
0.0243357 -0.482211 -0.875717 -0.176445 -0.466571 -0.866705 -0.0444626 -0.453761 -0.890013 
-0.0322873 -0.434745 -0.899975 0.19277 0.797568 -0.571599 0.165523 0.782226 -0.600604 
0.117966 0.76684 -0.630904 0.0160635 0.786621 -0.617227 -0.192522 0.786412 -0.586935 
-0.447222 0.683586 -0.576804 0.310112 0.738489 -0.598719 0.200789 0.802746 -0.561501 
0.22926 0.797341 -0.55829 0.187942 0.779152 -0.597997 0.133452 0.687607 -0.713714 
0.0787567 0.586745 -0.805933 0.0210316 0.573476 -0.818953 -0.164944 0.609579 -0.775376 
-0.462856 0.667819 -0.582908 -0.443527 0.663226 -0.602839 -0.558685 0.491665 -0.667935 
0.471734 0.544247 -0.69373 0.363755 0.682169 -0.634293 0.365688 0.676586 -0.639143 
0.283869 0.553507 -0.782974 0.200964 0.482455 -0.852555 0.117774 0.421474 -0.89916 
0.0260009 0.337574 -0.94094 0.0398236 0.278353 -0.959653 -0.0960734 0.308554 -0.946343 
-0.350252 0.34669 -0.870132 -0.556966 0.469221 -0.685288 -0.551757 0.450568 -0.701821 
0.499992 0.516013 -0.695513 0.609444 0.41385 -0.676244 0.449362 0.46063 -0.765437 
0.2484 0.341088 -0.906618 0.204054 0.240916 -0.948853 -0.304138 0.0726047 -0.949857 
-0.476278 0.376804 -0.794467 -0.452869 0.224055 -0.862965 -0.446666 0.36357 -0.8175 
0.686795 0.310709 -0.657095 0.566548 0.29875 -0.767966 0.308761 0.198029 -0.930296 
0.193633 0.129658 -0.972469 0.0759491 0.081065 -0.993811 -0.24362 -0.0580691 -0.968131 
-0.337655 0.0611286 -0.939283 -0.459897 0.242564 -0.8542 -0.329977 0.191401 -0.924381 
-0.449969 0.153785 -0.879703 0.679161 0.0932222 -0.728045 0.539518 0.0758614 -0.838549 
0.232114 0.0697626 -0.970184 0.121283 -0.0134012 -0.992527 0.0356057 -0.0452444 -0.998341 
-0.0265895 -0.105511 -0.994063 -0.071 -0.128158 -0.989209 0.0342855 -0.0751836 -0.99658 
0.117274 0.0335737 -0.992532 -0.197061 -0.113421 -0.973808 -0.227192 -0.0305947 -0.973369 
-0.282306 0.0438222 -0.958323 -0.42372 0.0196034 -0.905581 -0.417471 0.0188676 -0.908494 
0.670648 -0.0860041 -0.736773 0.526415 -0.0822915 -0.846236 0.213285 -0.0634838 -0.974925 
0.0762544 -0.0699883 -0.994629 -0.0144607 -0.112986 -0.993491 -0.0250308 -0.163406 -0.986241 
0.04623 -0.184821 -0.981684 0.140695 0.070726 -0.987524 -0.130036 -0.0825021 -0.988071 
-0.151398 -0.087261 -0.984614 -0.175423 -0.0577778 -0.982796 -0.263293 -0.0568591 -0.963039 
-0.439278 -0.047524 -0.897093 -0.448735 -0.101041 -0.887935 -0.429483 -0.0441405 -0.901995 
0.665043 -0.216514 -0.71473 0.62885 -0.309303 -0.713358 0.55954 -0.214555 -0.800551 
0.255017 -0.111648 -0.960469 0.0760387 -0.127221 -0.988955 -0.0598321 -0.143165 -0.987889 
-0.117732 -0.180864 -0.976436 0.117152 -0.25103 -0.960864 0.0125219 -0.178696 -0.983825 
-0.0671001 -0.030953 -0.997266 0.170332 -0.106403 -0.979625 -0.0204704 -0.140413 -0.989881 
-0.174921 -0.139436 -0.974659 -0.196914 -0.164255 -0.966564 -0.447944 -0.255684 -0.856721 
-0.356817 -0.310754 -0.880973 -0.289236 -0.215773 -0.932622 0.608145 -0.361129 -0.706927 
0.332175 -0.24983 -0.90953 0.0411316 -0.205809 -0.977727 -0.0600743 -0.141221 -0.988154 
-0.111254 -0.0938768 -0.989348 0.0389597 -0.0719788 -0.996645 0.25955 -0.305341 -0.916188 
0.0879826 -0.00639884 -0.996101 -0.138534 -0.166195 -0.976313 -0.166971 -0.385308 -0.907556 
-0.155508 -0.312008 -0.937266 -0.335016 -0.335451 -0.880475 -0.220409 -0.318207 -0.922043 
-0.232237 -0.315014 -0.920235 0.53082 -0.469103 -0.705813 0.502923 -0.478286 -0.719938 
0.47705 -0.454003 -0.752532 0.343838 -0.409663 -0.844956 0.170438 -0.316792 -0.933056 
0.0310845 -0.171457 -0.984701 -0.0532171 -0.111434 -0.992346 -0.0848567 -0.0916649 -0.992168 
-0.164477 -0.275383 -0.94716 -0.0132998 -0.281553 -0.959453 -0.0733709 -0.442414 -0.893805 
0.0107478 -0.558501 -0.829434 -0.0381621 -0.415167 -0.908944 -0.11049 -0.511231 -0.852312 
-0.0488953 -0.305298 -0.951001 -0.0690623 -0.336593 -0.939114 -0.132395 -0.329374 -0.934871 
-0.111825 -0.326272 -0.938638 -0.110931 -0.334536 -0.935831 0.337035 -0.366046 -0.86742 
0.158483 -0.228687 -0.960513 -0.0597103 -0.341458 -0.937998 -0.047775 -0.229054 -0.972241 
-0.171115 -0.268535 -0.94795 -0.128492 -0.321624 -0.938109 -0.13249 -0.213678 -0.967878 
0.196403 -0.468331 -0.861447 0.153437 -0.45987 -0.874629 0.185409 -0.47432 -0.860606 
0.186666 -0.46911 -0.863187 0.0344552 0.275662 -0.960637 0.169923 0.199311 -0.965091 
0.0817141 0.265801 -0.960558 0.00517232 0.248829 -0.968534 0.036518 0.264241 -0.963765 
0.00963591 0.147995 -0.988941 -0.0752904 0.301263 -0.950564 0.0359561 0.260167 -0.964894 
-0.0949496 0.302499 -0.948409 0.175136 0.17363 -0.969113 0.16663 0.160268 -0.972907 
0.0466465 0.100159 -0.993877 -0.0422471 0.0644406 -0.997027 -0.014596 0.0517704 -0.998552 
0.0517289 0.0431969 -0.997727 -0.286203 0.072992 -0.955385 -0.0562632 0.0855363 -0.994745 
0.0683856 0.0310379 -0.997176 0.0155062 -0.0766143 -0.99694 0.0578088 -0.0450184 -0.997312 
-0.0256643 -0.123874 -0.991966 0.0124676 -0.119545 -0.992751 -0.0126462 -0.131484 -0.991238 
-0.0285375 -0.155318 -0.987452 0.062554 -0.00739005 -0.998014 0.0184091 -0.0460517 -0.998769 
0.0733351 -0.0257058 -0.996976 -0.225235 -0.0589486 -0.97252 -0.0603374 -0.0597221 -0.99639 
0.0825563 0.00511612 -0.996573 0.101283 -0.0194587 -0.994667 0.0361177 -0.0436272 -0.998395 
-0.115236 -0.12937 -0.984878 -0.103785 -0.118457 -0.98752 -0.0907939 -0.133834 -0.986836 
0.120563 -0.0241328 -0.992412 0.00810025 -0.219496 -0.97558 0.0391667 -0.226067 -0.973324 
-0.107306 -0.147472 -0.983228 -0.0864127 -0.157132 -0.98379 -0.102319 -0.159741 -0.981842 

