# vtk DataFile Version 4.2
vtk output
ASCII
DATASET POLYDATA
POINTS 502 float
-11.0027 -27.9564 -25.7794 -18.5305 -35.4843 -20.5079 -11.0027 -28.9253 -25.4843 
-11.0027 -35.4843 -22.7733 -3.47478 -35.4843 -23.3838 4.0531 -35.4843 -22.8386 
11.581 -35.4843 -21.2775 19.1088 -35.4843 -18.6405 -26.0584 -27.9564 -21.7843 
-12.5996 -27.9564 -25.4843 -18.5305 -27.9564 -24.273 -7.44763 -27.9564 -25.4843 
-11.0027 -24.0689 -25.4843 -3.47478 -27.9564 -25.1265 4.0531 -27.9564 -24.6023 
11.581 -27.9564 -23.9306 19.1088 -27.9564 -22.8249 26.6367 -27.9564 -19.7411 
-33.5863 -20.4286 -19.3352 -26.0584 -20.4286 -23.227 -18.5305 -20.4286 -24.752 
-11.0027 -20.4286 -25.1871 -3.47478 -20.4286 -25.1051 4.0531 -20.4286 -24.4817 
11.581 -20.4286 -23.9677 19.1088 -20.4286 -23.3736 26.6367 -20.4286 -22.1183 
34.1646 -20.4286 -19.244 -33.5863 -12.9007 -20.7184 -26.0584 -12.9007 -23.2333 
-18.5305 -12.9007 -23.8033 -11.0027 -12.9007 -23.9614 -3.47478 -12.9007 -23.8784 
4.0531 -12.9007 -23.3299 11.581 -12.9007 -22.749 19.1088 -12.9007 -22.8451 
26.6367 -12.9007 -22.4683 34.1646 -12.9007 -21.2282 -33.5863 -5.3728 -20.2199 
-26.0584 -5.3728 -22.1078 -18.5305 -5.3728 -22.6397 -11.0027 -5.3728 -22.7971 
-3.47478 -5.3728 -23.0395 4.0531 -5.3728 -22.645 11.581 -5.3728 -21.9704 
19.1088 -5.3728 -22.141 26.6367 -5.3728 -22.5345 34.1646 -5.3728 -21.6845 
41.6925 -5.3728 -18.84 -33.5863 2.15508 -19.2152 -26.0584 2.15508 -20.7026 
-18.5305 2.15508 -21.5533 -11.0027 2.15508 -22.5298 -3.47478 2.15508 -21.1952 
4.0531 2.15508 -20.7872 11.581 2.15508 -21.2267 19.1088 2.15508 -21.31 
26.6367 2.15508 -21.858 34.1646 2.15508 -21.1931 41.6925 2.15508 -18.6073 
-26.0584 9.68295 -18.5612 -18.5305 9.68295 -19.4033 -11.0027 9.68295 -20.9019 
-3.47478 9.68295 -20.2171 4.0531 9.68295 -19.4594 11.581 9.68295 -19.2661 
19.1088 9.68295 -19.7302 26.6367 9.68295 -20.1171 34.1646 9.68295 -19.5636 
26.6367 17.2108 -18.1113 -18.5305 -37.7818 -17.9564 -11.0027 -39.9797 -17.9564 
-3.47478 -40.8227 -17.9564 -3.47478 -43.0122 -10.6763 4.0531 -40.5541 -17.9564 
4.0531 -43.0122 -10.7805 11.581 -39.2008 -17.9564 19.1088 -36.2179 -17.9564 
-22.628 -35.4843 -17.9564 -26.0584 -32.9587 -17.9564 -26.0584 -35.4843 -12.6238 
20.5675 -35.4843 -17.9564 26.6367 -31.055 -17.9564 26.6367 -35.4843 -11.2858 
-30.9543 -27.9564 -17.9564 -33.5863 -23.4579 -17.9564 -33.5863 -27.9564 -12.9926 
29.9338 -27.9564 -17.9564 34.1646 -22.9425 -17.9564 34.1646 -27.9564 -13.7086 
-35.18 -20.4286 -17.9564 35.9831 -20.4286 -17.9564 41.6925 -20.4286 -11.6365 
-37.4759 -12.9007 -17.9564 -41.1142 -12.9007 -13.2689 40.7875 -12.9007 -17.9564 
41.6925 -10.0999 -17.9564 41.6925 -12.9007 -17.2361 -37.6973 -5.3728 -17.9564 
-41.1142 -5.3728 -15.2671 42.8943 -5.3728 -17.9564 -36.1923 2.15508 -17.9564 
-41.1142 2.15508 -14.8401 -33.5863 6.24405 -17.9564 42.6336 2.15508 -17.9564 
41.6925 6.12043 -17.9564 49.2203 2.15508 -10.4784 -41.1142 9.68295 -13.019 
-28.7792 9.68295 -17.9564 -33.5863 9.68295 -16.8321 -26.0584 11.3293 -17.9564 
-18.5305 12.8646 -17.9564 -11.0027 14.9847 -17.9564 -3.47478 14.9569 -17.9564 
4.0531 13.2709 -17.9564 11.581 12.8785 -17.9564 19.1088 15.264 -17.9564 
39.7762 9.68295 -17.9564 34.1646 14.2857 -17.9564 41.6925 9.68295 -17.2323 
-33.5863 17.2108 -13.7667 -26.0584 17.2108 -15.532 -18.5305 17.2108 -15.9717 
-11.0027 17.2108 -16.6181 -3.47478 17.2108 -16.8706 4.0531 17.2108 -16.1693 
11.581 17.2108 -16.1743 25.1547 17.2108 -17.9564 19.1088 17.2108 -17.3087 
27.6233 17.2108 -17.9564 26.6367 17.5621 -17.9564 34.1646 17.2108 -16.8549 
41.6925 17.2108 -12.8324 -26.0584 24.7387 -11.7132 -18.5305 24.7387 -12.6337 
-11.0027 24.7387 -13.0259 -3.47478 24.7387 -13.5026 4.0531 24.7387 -13.497 
11.581 24.7387 -13.6495 19.1088 24.7387 -14.5117 26.6367 24.7387 -14.3007 
34.1646 24.7387 -12.2562 -3.47478 32.2666 -10.4749 4.0531 32.2666 -10.6127 
11.581 32.2666 -10.953 -3.47478 -43.0745 -10.4285 4.0531 -43.1117 -10.4285 
-26.0584 -36.2768 -10.4285 -18.5305 -40.2634 -10.4285 -4.04605 -43.0122 -10.4285 
-11.0027 -42.234 -10.4285 -3.47478 -43.0122 -9.60174 5.19067 -43.0122 -10.4285 
4.0531 -43.0122 -9.29902 11.581 -42.4183 -10.4285 19.1088 -39.7678 -10.4285 
26.6367 -35.8324 -10.4285 -27.1822 -35.4843 -10.4285 -33.5863 -29.3861 -10.4285 
27.1559 -35.4843 -10.4285 26.6367 -35.4843 -6.75095 34.1646 -30.1054 -10.4285 
-34.7352 -27.9564 -10.4285 36.4086 -27.9564 -10.4285 41.6925 -21.4974 -10.4285 
-39.5287 -20.4286 -10.4285 -41.1142 -16.8508 -10.4285 42.4151 -20.4286 -10.4285 
-42.7127 -12.9007 -10.4285 46.4783 -12.9007 -10.4285 -44.5866 -5.3728 -10.4285 
48.9601 -5.3728 -10.4285 49.2203 1.34215 -10.4285 49.2203 -5.3728 -7.44361 
-45.117 2.15508 -10.4285 49.2479 2.15508 -10.4285 49.2203 2.30945 -10.4285 
-43.9408 9.68295 -10.4285 -41.1142 15.3387 -10.4285 47.6484 9.68295 -10.4285 
-39.6411 17.2108 -10.4285 -41.1142 17.2108 -9.37053 -33.5863 23.0548 -10.4285 
43.8958 17.2108 -10.4285 41.6925 20.2059 -10.4285 -30.3962 24.7387 -10.4285 
-33.5863 24.7387 -9.23217 -26.0584 27.0013 -10.4285 -18.5305 29.0451 -10.4285 
-11.0027 31.4742 -10.4285 19.1088 32.1086 -10.4285 26.6367 30.1047 -10.4285 
36.9006 24.7387 -10.4285 34.1646 26.7999 -10.4285 -26.0584 32.2666 -6.58354 
-18.5305 32.2666 -8.45552 -4.4486 32.2666 -10.4285 -11.0027 32.2666 -10.0949 
-3.47478 32.3478 -10.4285 4.0531 32.5943 -10.4285 18.0533 32.2666 -10.4285 
11.581 33.1083 -10.4285 19.1088 32.2666 -10.3172 26.6367 32.2666 -8.33678 
-11.0027 39.7945 -3.24216 -3.47478 39.7945 -4.68302 4.0531 39.7945 -4.83271 
11.581 39.7945 -3.96733 -26.0584 -35.8146 -2.90064 -18.5305 -39.577 -2.90064 
-11.0027 -41.6041 -2.90064 -3.47478 -42.5053 -2.90064 4.0531 -42.4446 -2.90064 
11.581 -41.4094 -2.90064 19.1088 -38.8331 -2.90064 -26.5321 -35.4843 -2.90064 
-33.5863 -29.3382 -2.90064 -26.0584 -35.4843 -1.75061 25.9544 -35.4843 -2.90064 
19.1088 -35.4843 4.22837 26.6367 -35.1089 -2.90064 34.1646 -29.8388 -2.90064 
-34.8026 -27.9564 -2.90064 -33.5863 -27.9564 2.86091 36.2129 -27.9564 -2.90064 
34.1646 -27.9564 1.0433 41.6925 -21.769 -2.90064 -40.2342 -20.4286 -2.90064 
-41.1142 -18.8494 -2.90064 42.7197 -20.4286 -2.90064 41.6925 -20.4286 -0.130536 
-44.172 -12.9007 -2.90064 46.9609 -12.9007 -2.90064 49.2203 -6.43207 -2.90064 
-46.875 -5.3728 -2.90064 49.5687 -5.3728 -2.90064 49.2203 -5.3728 -1.59414 
-48.2255 2.15508 -2.90064 49.9964 2.15508 -2.90064 49.2203 7.55433 -2.90064 
49.2203 2.15508 0.442852 -47.9261 9.68295 -2.90064 48.9058 9.68295 -2.90064 
-45.5842 17.2108 -2.90064 -41.1142 24.2411 -2.90064 46.0675 17.2108 -2.90064 
41.6925 23.721 -2.90064 -40.6278 24.7387 -2.90064 -41.1142 24.7387 -0.874151 
-33.5863 31.022 -2.90064 40.8885 24.7387 -2.90064 34.1646 31.046 -2.90064 
-31.6517 32.2666 -2.90064 -33.5863 32.2666 0.965792 -26.0584 35.2762 -2.90064 
-18.5305 37.9517 -2.90064 19.1088 38.5107 -2.90064 32.4749 32.2666 -2.90064 
26.6367 35.891 -2.90064 -12.0144 39.7945 -2.90064 -18.5305 39.7945 1.74127 
-11.0027 40.0406 -2.90064 -3.47478 41.0583 -2.90064 4.0531 41.1256 -2.90064 
14.3665 39.7945 -2.90064 11.581 40.5006 -2.90064 19.1088 39.7945 2.61617 
-18.5305 -37.2587 4.62723 -11.0027 -39.3811 4.62723 -3.47478 -40.3197 4.62723 
4.0531 -39.9617 4.62723 11.581 -38.2182 4.62723 -22.3242 -35.4843 4.62723 
-26.0584 -33.5246 4.62723 -18.5305 -35.4843 7.56822 -11.0027 -35.4843 10.8079 
4.0531 -35.4843 11.4473 18.5841 -35.4843 4.62723 11.581 -35.4843 8.48619 
19.1088 -35.2387 4.62723 26.6367 -30.905 4.62723 -33.1259 -27.9564 4.62723 
-33.5863 -27.5092 4.62723 19.1088 -27.9564 11.6431 31.1131 -27.9564 4.62723 
26.6367 -27.9564 7.5662 34.1646 -25.6343 4.62723 -39.1764 -20.4286 4.62723 
-41.1142 -17.5923 4.62723 39.2215 -20.4286 4.62723 34.1646 -20.4286 9.05901 
41.6925 -17.4316 4.62723 -43.8957 -12.9007 4.62723 -41.1142 -12.9007 11.3545 
44.4065 -12.9007 4.62723 41.6925 -12.9007 8.187 -46.9253 -5.3728 4.62723 
47.2587 -5.3728 4.62723 41.6925 -5.3728 11.9311 -48.5404 2.15508 4.62723 
48.1279 2.15508 4.62723 -48.4781 9.68295 4.62723 47.2562 9.68295 4.62723 
-46.2391 17.2108 4.62723 44.6666 17.2108 4.62723 41.6925 22.5359 4.62723 
41.6925 17.2108 9.63158 -42.0738 24.7387 4.62723 -41.1142 25.9149 4.62723 
-41.1142 24.7387 6.97265 40.2657 24.7387 4.62723 34.1646 31.1932 4.62723 
-34.763 32.2666 4.62723 -33.5863 33.2061 4.62723 -33.5863 32.2666 7.286 
-26.0584 37.7691 4.62723 32.9866 32.2666 4.62723 26.6367 36.7659 4.62723 
-21.0597 39.7945 4.62723 -18.5305 40.734 4.62723 -18.5305 39.7945 9.26846 
-11.0027 42.3047 4.62723 -3.47478 42.9112 4.62723 4.0531 42.9272 4.62723 
11.581 42.2059 4.62723 20.1239 39.7945 4.62723 19.1088 40.2093 4.62723 
19.1088 39.7945 7.18094 -3.47478 -35.5142 12.1551 -26.0584 -27.9714 12.1551 
-18.5305 -31.8968 12.1551 -3.69773 -35.4843 12.1551 -11.0027 -34.2716 12.1551 
-3.07253 -35.4843 12.1551 -3.47478 -35.4843 12.1861 4.0531 -34.822 12.1551 
11.581 -31.8592 12.1551 -26.0791 -27.9564 12.1551 -33.5863 -21.7452 12.1551 
-26.0584 -27.9564 12.1684 -18.5305 -27.9564 15.335 -11.0027 -27.9564 16.8199 
-3.47478 -27.9564 17.7356 4.0531 -27.9564 17.0915 18.0793 -27.9564 12.1551 
11.581 -27.9564 14.9205 19.1088 -27.1321 12.1551 26.6367 -21.8602 12.1551 
-34.8183 -20.4286 12.1551 -33.5863 -20.4286 13.1826 -26.0584 -20.4286 17.0973 
-18.5305 -20.4286 18.925 11.581 -20.4286 18.0532 19.1088 -20.4286 15.5335 
28.5611 -20.4286 12.1551 26.6367 -20.4286 12.9976 34.1646 -15.5428 12.1551 
-40.6558 -12.9007 12.1551 -41.1142 -12.118 12.1551 -33.5863 -12.9007 17.8451 
19.1088 -12.9007 18.2357 26.6367 -12.9007 16.3455 36.5322 -12.9007 12.1551 
34.1646 -12.9007 13.5022 -44.2892 -5.3728 12.1551 -41.1142 -5.3728 15.7622 
26.6367 -5.3728 18.5665 41.4332 -5.3728 12.1551 34.1646 -5.3728 16.5488 
41.6925 -4.47279 12.1551 -46.0082 2.15508 12.1551 -41.1142 2.15508 17.5947 
34.1646 2.15508 18.0409 43.0886 2.15508 12.1551 41.6925 2.15508 13.4657 
-45.7281 9.68295 12.1551 -41.1142 9.68295 17.3261 34.1646 9.68295 18.2887 
42.586 9.68295 12.1551 41.6925 12.3972 12.1551 41.6925 9.68295 13.0624 
-43.4925 17.2108 12.1551 -41.1142 21.214 12.1551 -41.1142 17.2108 15.2845 
[...]
POINT_DATA 502
SCALARS ImageScalars float
LOOKUP_TABLE default
0 0 0 0 0 0 0 0 0 
0 0 0 0 0 0 0 0 0 
0 0 0 0 0 0 0 0 0 
0 0 0 0 0 0 0 0 0 
0 0 0 0 0 0 0 0 0 
0 0 0 0 0 0 0 0 0 
0 0 0 0 0 0 0 0 0 
0 0 0 0 0 0 0 0 0 
0 0 0 0 0 0 0 0 0 
0 0 0 0 0 0 0 0 0 
0 0 0 0 0 0 0 0 0 
0 0 0 0 0 0 0 0 0 
0 0 0 0 0 0 0 0 0 
0 0 0 0 0 0 0 0 0 
0 0 0 0 0 0 0 0 0 
0 0 0 0 0 0 0 0 0 
0 0 0 0 0 0 0 0 0 
0 0 0 0 0 0 0 0 0 
0 0 0 0 0 0 0 0 0 
0 0 0 0 0 0 0 0 0 
0 0 0 0 0 0 0 0 0 
0 0 0 0 0 0 0 0 0 
0 0 0 0 0 0 0 0 0 
0 0 0 0 0 0 0 0 0 
0 0 0 0 0 0 0 0 0 
0 0 0 0 0 0 0 0 0 
0 0 0 0 0 0 0 0 0 
0 0 0 0 0 0 0 0 0 
0 0 0 0 0 0 0 0 0 
0 0 0 0 0 0 0 0 0 
0 0 0 0 0 0 0 0 0 
0 0 0 0 0 0 0 0 0 
0 0 0 0 0 0 0 0 0 
0 0 0 0 0 0 0 0 0 
0 0 0 0 0 0 0 0 0 
0 0 0 0 0 0 0 0 0 
0 0 0 0 0 0 0 0 0 
0 0 0 0 0 0 0 0 0 
0 0 0 0 0 0 0 0 0 
0 0 0 0 0 0 0 0 0 
0 0 0 0 0 0 0 0 0 
0 0 0 0 0 0 0 0 0 
0 0 0 0 0 0 0 0 0 
0 0 0 0 0 0 0 0 0 
0 0 0 0 0 0 0 0 0 
0 0 0 0 0 0 0 0 0 
0 0 0 0 0 0 0 0 0 
0 0 0 0 0 0 0 0 0 
0 0 0 0 0 0 0 0 0 
0 0 0 0 0 0 0 0 0 
0 0 0 0 0 0 0 0 0 
0 0 0 0 0 0 0 0 0 
0 0 0 0 0 0 0 0 0 
0 0 0 0 0 0 0 0 0 
0 0 0 0 0 0 0 0 0 
0 0 0 0 0 0 0 
NORMALS Normals float
0.0530383 0.120469 0.991299 0.348464 0.664342 0.661228 0.0642742 0.165221 0.98416 
0.152798 0.560495 0.813939 0.00175567 0.472942 0.881092 -0.123762 0.471889 0.872928 
-0.247042 0.538489 0.805605 -0.34934 0.636312 0.6878 0.475292 0.37868 0.794165 
0.0895038 0.137502 0.986449 0.23493 0.2195 0.946904 -0.009885 0.106293 0.994286 
0.0379747 -0.00321849 0.999274 -0.0797385 0.0930779 0.992461 -0.0751949 0.0887113 0.993215 
-0.113432 0.156045 0.981215 -0.254359 0.259558 0.931628 -0.41841 0.392601 0.819022 
0.62776 0.269114 0.730408 0.312274 0.0790246 0.9467 0.129517 -0.0308414 0.991097 
0.0226887 -0.119402 0.992587 -0.0466897 -0.0822903 0.995514 -0.0749208 -0.0839763 0.993647 
-0.0723725 -0.078167 0.99431 -0.117075 -0.00385474 0.993116 -0.234347 0.164561 0.958124 
-0.4712 0.348857 0.810105 0.473033 0.0472294 0.879778 0.194108 -0.0766199 0.977983 
0.0467832 -0.138746 0.989222 0.00478723 -0.157882 0.987446 -0.0414317 -0.135781 0.989872 
-0.0745929 -0.121388 0.989798 -0.031909 -0.132298 0.990696 -0.0183057 -0.0805711 0.996581 
-0.108628 0.0255642 0.993754 -0.297802 0.133407 0.94526 0.370375 -0.0968654 0.923818 
0.147064 -0.157825 0.976454 0.0460144 -0.145619 0.98827 0.026278 -0.0942892 0.995198 
-0.00991316 -0.168487 0.985654 -0.0702386 -0.161971 0.984293 -0.0329763 -0.0997863 0.994462 
0.0371198 -0.100692 0.994225 -0.0279439 -0.0399946 0.998809 -0.221751 -0.00112545 0.975103 
-0.51611 0.0704102 0.853623 0.323437 -0.205229 0.923726 0.151918 -0.232501 0.960658 
0.118872 -0.200593 0.972436 -0.0189705 -0.1169 0.992963 -0.119287 -0.191631 0.974191 
0.00366238 -0.21323 0.976995 0.0331563 -0.170503 0.984799 0.0412316 -0.156517 0.986814 
-0.0068188 -0.153997 0.988048 -0.196006 -0.133585 0.971461 -0.481931 -0.0907164 0.8715 
0.155233 -0.313164 0.936926 0.147642 -0.349877 0.925088 0.0469745 -0.358885 0.932199 
-0.0910668 -0.249656 0.964043 -0.0612091 -0.278012 0.958625 0.0173485 -0.321133 0.946875 
0.0530517 -0.254902 0.96551 -0.0101849 -0.240354 0.970632 -0.169428 -0.263679 0.949615 
-0.024552 -0.340259 0.940011 0.356819 0.780396 0.51348 0.17929 0.84834 0.498172 
0.0358288 0.859171 0.510432 0.0562374 0.993531 0.0986605 -0.0891968 0.834489 0.543757 
-0.042654 0.992649 0.113264 -0.238432 0.754873 0.610996 -0.358407 0.671102 0.648973 
0.465373 0.721865 0.51219 0.546272 0.636984 0.54391 0.550526 0.803282 0.227285 
-0.385454 0.657543 0.64735 -0.468576 0.535841 0.702362 -0.541883 0.820881 0.180326 
0.666791 0.476542 0.572972 0.688193 0.368352 0.625066 0.773968 0.5592 0.297102 
-0.498476 0.469203 0.728951 -0.519599 0.426456 0.740373 -0.646408 0.635158 0.422766 
0.687046 0.303536 0.660177 -0.528428 0.38922 0.754501 -0.786061 0.520521 0.333417 
0.640203 0.122341 0.758401 0.846421 0.253391 0.468363 -0.577058 0.255837 0.775598 
-0.58352 0.197194 0.787794 -0.634395 0.280223 0.720429 0.53765 -0.0391471 0.842259 
0.729295 0.0487589 0.68246 -0.574852 0.0803542 0.814303 0.41356 -0.187473 0.890967 
0.642031 -0.118117 0.757525 0.312732 -0.265389 0.912013 -0.526359 -0.0869229 0.845807 
-0.474325 -0.188132 0.860013 -0.941121 -0.0726198 0.330178 0.590411 -0.276742 0.758174 
0.208105 -0.314238 0.926254 0.30659 -0.315855 0.897908 0.147081 -0.330941 0.932119 
0.109343 -0.382513 0.917458 0.0590819 -0.462679 0.884555 -0.0484157 -0.39137 0.918959 
-0.0579854 -0.341306 0.938162 0.0382748 -0.340048 0.939629 0.103288 -0.306933 0.94611 
-0.384378 -0.278334 0.880218 -0.215359 -0.35026 0.911558 -0.482781 -0.286678 0.827489 
0.317476 -0.421085 0.849645 0.125136 -0.402214 0.906954 0.0618485 -0.415424 0.907523 
0.0546568 -0.482056 0.874434 -0.0288974 -0.445365 0.894883 -0.0412282 -0.39125 0.919361 
0.0700704 -0.353726 0.932721 0.00378569 -0.337788 0.941215 0.119032 -0.325587 0.93799 
-0.0543328 -0.349275 0.935444 -0.0281753 -0.347901 0.937108 -0.261372 -0.413017 0.872411 
-0.620431 -0.50472 0.600269 0.182075 -0.468924 0.864268 0.0740703 -0.423043 0.903077 
0.0548588 -0.382394 0.92237 0.0278472 -0.367798 0.929489 0.00925259 -0.326701 0.945082 
0.0616249 -0.32131 0.944967 0.0439315 -0.418855 0.90699 -0.11984 -0.522931 0.843908 
-0.363079 -0.624821 0.691211 0.0298259 -0.45429 0.890355 0.0299692 -0.446615 0.894224 
-0.0159562 -0.465973 0.884655 0.0566048 0.994568 0.08735 -0.0412783 0.994492 0.0963389 
0.540463 0.832758 0.120058 0.357982 0.928582 0.0979011 0.0652332 0.99405 0.0872287 
0.175125 0.980611 0.0879398 0.0564948 0.996619 0.0596501 -0.0671182 0.993089 0.0962731 
-0.0450276 0.99753 0.053919 -0.213388 0.971889 0.0994902 -0.381266 0.916873 0.118237 
-0.537486 0.833029 0.131038 0.568684 0.813044 0.124733 0.767775 0.618701 0.166524 
-0.548008 0.825696 0.133844 -0.529209 0.847335 -0.0442891 -0.665806 0.714715 0.214205 
0.792423 0.583512 0.177706 -0.699647 0.678483 0.223955 -0.796424 0.546265 0.259431 
0.865346 0.434529 0.249721 0.884638 0.364455 0.290841 -0.808749 0.525647 0.263856 
0.895347 0.295375 0.333329 -0.882585 0.373605 0.285416 0.88472 0.144878 0.443035 
-0.938227 0.168146 0.30242 -0.944448 -0.0469178 0.325294 -0.973077 0.181157 0.142487 
0.830642 -0.0265657 0.556173 -0.942075 -0.0724698 0.327478 -0.941561 -0.0766111 0.328016 
0.726918 -0.249623 0.639749 0.597034 -0.373966 0.709718 -0.878449 -0.292085 0.378171 
0.535345 -0.414989 0.735656 0.617565 -0.41549 0.667819 0.347833 -0.521553 0.779099 
-0.728131 -0.503305 0.465305 -0.664678 -0.568757 0.484478 0.285295 -0.515621 0.807924 
0.382394 -0.571096 0.726378 0.20849 -0.514993 0.831453 0.120767 -0.491467 0.862482 
0.100934 -0.454321 0.885101 -0.117787 -0.567705 0.814762 -0.22084 -0.64132 0.734805 
-0.486793 -0.654044 0.579015 -0.401618 -0.678566 0.615021 0.305635 -0.700092 0.645336 
0.175383 -0.588647 0.789136 0.0396789 -0.456072 0.889058 0.107997 -0.472519 0.874679 
0.0301417 -0.456919 0.888998 0.0289182 -0.458374 0.888289 -0.105887 -0.557086 0.823677 
-0.0228419 -0.497742 0.867024 -0.122074 -0.574192 0.809569 -0.299302 -0.731311 0.612864 
0.176644 -0.848251 0.499266 0.0722829 -0.825167 0.560245 -0.0301191 -0.830523 0.55617 
-0.149426 -0.861878 0.484601 0.529254 0.835569 -0.147358 0.340251 0.923659 -0.176304 
0.182076 0.967694 -0.174401 0.0537577 0.984027 -0.169709 -0.0679629 0.978994 -0.192231 
-0.223339 0.944995 -0.238966 -0.376969 0.891075 -0.252744 0.540655 0.828482 -0.14598 
0.733365 0.674428 -0.0855719 0.524583 0.831885 -0.181056 -0.489459 0.841284 -0.229503 
-0.365444 0.771801 -0.52036 -0.500785 0.835201 -0.227274 -0.638746 0.743414 -0.198343 
0.757468 0.648635 -0.0742625 0.694901 0.671893 -0.256267 -0.673804 0.714849 -0.18703 
-0.603214 0.70858 -0.366125 -0.78619 0.600999 -0.143892 0.853545 0.52072 -0.0176711 
0.870551 0.492069 0.00300435 -0.80604 0.576223 -0.135157 -0.769356 0.585586 -0.255304 
0.914791 0.397639 0.0710017 -0.909969 0.399487 -0.111208 -0.970738 0.220273 -0.0956429 
0.958623 0.249919 0.136317 -0.977057 0.191422 -0.0933634 -0.969915 0.196181 -0.144147 
0.979462 0.0684732 0.189648 -0.997031 -0.0423998 -0.0642709 -0.982762 -0.180616 -0.0394664 
-0.979773 -0.0274009 -0.198226 0.958829 -0.165992 0.230422 -0.971192 -0.2367 -0.0275713 
0.870169 -0.398549 0.289766 0.707819 -0.628301 0.322847 -0.888406 -0.457889 0.0327576 
-0.782472 -0.615685 0.0931088 0.690742 -0.643412 0.329994 0.735736 -0.643505 0.211174 
0.527573 -0.744672 0.408816 -0.756141 -0.645196 0.10942 -0.595892 -0.778124 0.198584 
0.48838 -0.762569 0.424232 0.582313 -0.793872 0.175157 0.370683 -0.799225 0.47311 
0.26207 -0.811813 0.521803 -0.277715 -0.884251 0.375466 -0.553645 -0.799659 0.232426 
-0.402152 -0.860592 0.312499 0.189401 -0.853403 0.485624 0.285592 -0.931781 0.224102 
0.176234 -0.857818 0.482794 0.0680292 -0.884302 0.461933 -0.0356972 -0.891449 0.451712 
-0.208633 -0.890377 0.404599 -0.160292 -0.888871 0.429202 -0.323047 -0.940376 0.106463 
0.325924 0.860029 -0.392585 0.180088 0.900114 -0.39669 0.0354607 0.917267 -0.39669 
-0.119861 0.898581 -0.42212 -0.266327 0.837524 -0.477099 0.406683 0.828143 -0.38573 
0.491357 0.785373 -0.376508 0.320665 0.806897 -0.496076 0.170577 0.75379 -0.63459 
-0.148412 0.728125 -0.669184 -0.357873 0.767586 -0.531732 -0.293572 0.742187 -0.602473 
-0.364938 0.760676 -0.536836 -0.446037 0.699575 -0.558253 0.66604 0.675603 -0.316151 
0.677318 0.667189 -0.309999 -0.366481 0.531214 -0.763874 -0.501966 0.666805 -0.550819 
-0.420764 0.621538 -0.660793 -0.549634 0.638388 -0.538854 0.787791 0.565324 -0.244529 
0.82668 0.521324 -0.211712 -0.655331 0.567449 -0.49854 -0.494919 0.52979 -0.688751 
-0.719095 0.509043 -0.473051 0.876796 0.447311 -0.176469 0.744649 0.453972 -0.489293 
-0.790474 0.406494 -0.458162 -0.681094 0.406215 -0.60918 0.947544 0.287723 -0.139196 
-0.881923 0.215731 -0.419132 -0.638211 0.24446 -0.730018 0.988099 0.0990446 -0.117687 
-0.924428 -0.00317181 -0.381343 0.983096 -0.14137 -0.116344 -0.916535 -0.193816 -0.349857 
0.919994 -0.375213 -0.113253 -0.8594 -0.401621 -0.316437 -0.807552 -0.523585 -0.271512 
-0.776532 -0.360058 -0.517066 0.794869 -0.599451 -0.0940325 0.772751 -0.628199 -0.0906803 
0.770366 -0.599923 -0.215936 -0.778053 -0.578681 -0.244462 -0.675901 -0.720208 -0.156393 
0.623311 -0.780835 -0.042184 0.599278 -0.799771 -0.0350835 0.614568 -0.767638 -0.181764 
0.442291 -0.896577 0.0229972 -0.648795 -0.748765 -0.135705 -0.503885 -0.860963 -0.0695862 
0.337098 -0.940312 0.0466792 0.284966 -0.956908 0.055881 0.302268 -0.933602 -0.192409 
0.138894 -0.988997 0.0509235 0.0403628 -0.998686 0.031567 -0.0480961 -0.998553 0.0240634 
-0.172174 -0.984908 0.0177029 -0.350576 -0.936433 0.0137758 -0.328402 -0.94432 0.0203173 
-0.339833 -0.936313 -0.0884968 0.0239462 0.730345 -0.682659 0.423131 0.60799 -0.671795 
0.282624 0.658525 -0.697473 0.0280922 0.729846 -0.683034 0.163 0.69644 -0.698858 
0.0147336 0.729468 -0.683857 0.0238956 0.729362 -0.68371 -0.150937 0.697081 -0.700925 
-0.309031 0.593048 -0.743501 0.42352 0.60783 -0.671694 0.538378 0.57256 -0.618324 
0.422999 0.607642 -0.672193 0.247481 0.530041 -0.811055 0.135467 0.500097 -0.855308 
0.0148863 0.470611 -0.882215 -0.159891 0.453967 -0.876555 -0.356739 0.520368 -0.775857 
-0.302961 0.472069 -0.827868 -0.357648 0.509833 -0.782406 -0.348667 0.478084 -0.806143 
0.564459 0.559499 -0.606916 0.521199 0.550244 -0.652368 0.310348 0.433252 -0.846154 
0.191572 0.363801 -0.911564 -0.262334 0.311818 -0.913209 -0.297338 0.373461 -0.878702 
-0.365643 0.470729 -0.802945 -0.332082 0.453019 -0.827343 -0.432172 0.438307 -0.788108 
0.714978 0.450966 -0.534261 0.729786 0.433937 -0.52831 0.396567 0.380818 -0.835292 
-0.242111 0.276082 -0.93014 -0.277144 0.333105 -0.901239 -0.479425 0.400212 -0.781013 
-0.412331 0.395841 -0.820544 0.812625 0.28128 -0.510413 0.670214 0.274624 -0.689489 
-0.215056 0.222936 -0.950816 -0.625581 0.24564 -0.740479 -0.368597 0.26162 -0.892015 
-0.638891 0.22223 -0.7365 0.859463 0.0814864 -0.504662 0.643962 0.07899 -0.760969 
-0.369469 0.105265 -0.923262 -0.705702 0.0479552 -0.706884 -0.654334 0.0595276 -0.753859 
0.852222 -0.146711 -0.502188 0.644423 -0.106473 -0.75722 -0.407677 -0.0475064 -0.91189 
-0.731995 -0.153478 -0.663798 -0.726339 -0.219372 -0.651389 -0.70147 -0.146973 -0.69738 
0.798812 -0.36069 -0.481459 0.733248 -0.47117 -0.490252 0.705507 -0.347409 -0.617711 
-0.713351 -0.321644 -0.622636 -0.556144 -0.212882 -0.803359 0.67535 -0.550769 -0.490464 
0.605631 -0.647303 -0.462828 0.558016 -0.485327 -0.673109 -0.704371 -0.471674 -0.530458 
-0.687913 -0.51637 -0.510037 -0.677052 -0.44279 -0.587824 0.561461 -0.701706 -0.438601 
0.463479 -0.786069 -0.409002 0.461376 -0.639247 -0.61522 0.306426 -0.883377 -0.354609 
-0.356201 -0.875318 -0.327017 -0.598173 -0.671983 -0.43661 -0.550259 -0.725963 -0.412544 
-0.551891 -0.642242 -0.531923 0.255059 -0.902798 -0.346267 0.150976 -0.927843 -0.341049 
0.151826 -0.886355 -0.437406 0.0370576 -0.942713 -0.33154 0.0471764 -0.875172 -0.481506 
-0.0496245 -0.944977 -0.323351 -0.0427113 -0.880645 -0.471847 -0.26749 -0.908588 -0.320807 
-0.165247 -0.930791 -0.326068 -0.163154 -0.893984 -0.417341 0.116205 0.398304 -0.909863 
-0.0173467 0.349238 -0.936873 -0.163352 0.252701 -0.953655 0.225655 0.306279 -0.92481 
0.149879 0.36905 -0.917245 0.187438 0.332221 -0.92439 0.110304 0.37602 -0.920023 
-0.0389608 0.28927 -0.956454 -0.171892 0.247554 -0.953504 -0.163593 0.241451 -0.956524 
-0.205059 0.26978 -0.940834 0.245459 0.301506 -0.921327 0.342068 0.258652 -0.903376 
0.213944 0.28521 -0.934282 0.190612 0.258258 -0.947085 0.0667875 0.270989 -0.960263 
-0.130716 0.188376 -0.973359 -0.140054 0.15964 -0.97719 -0.202509 0.261057 -0.943843 
-0.184092 0.256341 -0.948894 -0.231895 0.175567 -0.956766 0.370148 0.230058 -0.900036 
0.330619 0.228717 -0.915631 0.178313 0.202382 -0.962936 0.177799 0.184113 -0.96669 
0.0349111 0.151645 -0.987818 -0.155384 0.164861 -0.974 -0.09651 0.175328 -0.979768 
-0.148397 0.115664 -0.982141 -0.224587 0.167112 -0.960018 -0.228673 0.14867 -0.962084 
-0.164461 0.131463 -0.977584 0.477439 0.0854453 -0.8745 0.317262 0.0963648 -0.943429 
0.158388 0.128369 -0.978997 0.141959 0.128993 -0.981432 0.0451463 0.0781503 -0.995919 
-0.109433 0.126525 -0.985909 -0.1878 0.107257 -0.976333 -0.211894 0.0115707 -0.977224 
-0.136358 0.093733 -0.986215 -0.178041 0.115212 -0.977255 -0.155478 0.115789 -0.98103 
0.495372 -0.0804222 -0.86495 0.37831 -0.073499 -0.922757 0.203089 0.00975372 -0.979112 
0.130669 0.0576557 -0.989748 0.0310343 0.0532672 -0.998098 -0.119607 0.0657435 -0.990642 
-0.213514 0.0894662 -0.972835 -0.162987 0.130238 -0.977994 -0.122012 0.132905 -0.98359 
-0.263894 0.0268521 -0.964178 -0.197361 0.0616572 -0.97839 0.468668 -0.263333 -0.843212 
0.454937 -0.312435 -0.833917 0.41671 -0.243997 -0.875681 0.288872 -0.150045 -0.945537 
0.183981 -0.0687924 -0.98052 0.0514525 -0.0339894 -0.998097 -0.0703223 0.022178 -0.997278 
-0.131603 0.104819 -0.985745 -0.161986 0.142802 -0.976406 -0.209315 0.100547 -0.972665 
-0.387157 -0.0699756 -0.919355 -0.307899 -0.0109247 -0.951356 0.446789 -0.401737 -0.799367 
0.409624 -0.452261 -0.792255 0.375633 -0.355329 -0.855945 0.239388 -0.26527 -0.933983 
0.120751 -0.228249 -0.966086 0.0212369 -0.167396 -0.985661 -0.0923698 -0.106994 -0.98996 
-0.163885 -0.0912141 -0.982253 -0.276671 -0.124752 -0.952833 -0.484315 -0.26835 -0.832723 
-0.478319 -0.301381 -0.824852 -0.464726 -0.252501 -0.848689 0.341775 -0.561044 -0.753936 
0.29956 -0.597671 -0.743676 0.297492 -0.546509 -0.782832 0.148714 -0.661269 -0.73526 
0.146471 -0.518655 -0.842344 0.0601886 -0.699673 -0.711924 0.0550718 -0.498827 -0.86495 
-0.03675 -0.708216 -0.705039 -0.0494 -0.471581 -0.880438 -0.170685 -0.655207 -0.735914 
-0.176719 -0.456612 -0.871938 -0.391442 -0.518988 -0.759885 -0.362508 -0.548511 -0.753475 
-0.359376 -0.501 -0.787304 
