# vtk DataFile Version 4.2
vtk output
ASCII
DATASET POLYDATA
POINTS 554 float
-32.5347 -35.7766 -13.8634 -24.6148 -35.7766 -14.9466 -16.6949 -35.7766 -15.0683 
-8.77498 -35.7766 -13.9417 -0.855082 -35.7766 -12.5365 -40.4546 -27.8567 -15.0135 
-32.5347 -27.8567 -16.5104 -24.6148 -27.8567 -16.9939 -16.6949 -27.8567 -17.3201 
-8.77498 -27.8567 -16.3897 -0.855082 -27.8567 -16.0664 7.06482 -27.8567 -16.0704 
14.9847 -27.8567 -15.0283 22.9046 -27.8567 -13.7724 30.8245 -27.8567 -12.628 
-56.2944 -19.9368 -12.9499 -48.3745 -19.9368 -15.7962 -40.4546 -19.9368 -16.4484 
-32.5347 -19.9368 -16.875 -24.6148 -19.9368 -17.5366 -16.6949 -19.9368 -16.7297 
-8.77498 -19.9368 -16.0203 -0.855082 -19.9368 -16.338 7.06482 -19.9368 -16.4068 
14.9847 -19.9368 -16.3926 22.9046 -19.9368 -17.1026 30.8245 -19.9368 -16.3103 
38.7444 -19.9368 -16.517 46.6643 -19.9368 -15.4303 54.5842 -19.9368 -13.9517 
-56.2944 -12.0169 -14.2538 -48.3745 -12.0169 -16.704 -40.4546 -12.0169 -17.6182 
-32.5347 -12.0169 -17.0572 -24.6148 -12.0169 -16.2518 -16.6949 -12.0169 -15.2315 
-8.77498 -12.0169 -14.8158 -0.855082 -12.0169 -16.0014 7.06482 -12.0169 -15.6458 
14.9847 -12.0169 -15.3421 22.9046 -12.0169 -16.115 30.8245 -12.0169 -17.4128 
38.7444 -12.0169 -19.1787 46.6643 -12.0169 -16.9744 54.5842 -12.0169 -16.6096 
62.5041 -12.0169 -14.0589 -64.2143 -4.09698 -12.9007 -56.2944 -4.09698 -15.6902 
-48.3745 -4.09698 -16.7054 -40.4546 -4.09698 -17.9322 -32.5347 -4.09698 -17.0826 
-24.6148 -4.09698 -15.9226 -16.6949 -4.09698 -14.3992 -8.77498 -4.09698 -18.3833 
-0.855082 -4.09698 -14.9873 7.06482 -4.09698 -18.6386 14.9847 -4.09698 -14.6685 
22.9046 -4.09698 -15.2164 30.8245 -4.09698 -16.8624 38.7444 -4.09698 -17.3452 
46.6643 -4.09698 -17.3713 54.5842 -4.09698 -17.3069 62.5041 -4.09698 -14.1746 
-64.2143 3.82292 -12.9278 -56.2944 3.82292 -15.4118 -48.3745 3.82292 -16.5586 
-40.4546 3.82292 -17.7421 -32.5347 3.82292 -16.9086 -24.6148 3.82292 -15.8102 
-16.6949 3.82292 -14.4687 -8.77498 3.82292 -18.2866 -0.855082 3.82292 -14.1528 
7.06482 3.82292 -17.6877 14.9847 3.82292 -15.2442 22.9046 3.82292 -14.3758 
30.8245 3.82292 -15.7759 38.7444 3.82292 -17.3574 46.6643 3.82292 -16.8434 
54.5842 3.82292 -17.0467 62.5041 3.82292 -13.878 -64.2143 11.7428 -12.0997 
-56.2944 11.7428 -14.5794 -48.3745 11.7428 -15.9783 -40.4546 11.7428 -17.4474 
-32.5347 11.7428 -16.873 -24.6148 11.7428 -16.1714 -16.6949 11.7428 -15.0275 
-8.77498 11.7428 -15.4489 -0.855082 11.7428 -17.1376 7.06482 11.7428 -15.8406 
14.9847 11.7428 -14.9518 22.9046 11.7428 -14.2713 30.8245 11.7428 -14.8071 
38.7444 11.7428 -15.3704 46.6643 11.7428 -14.9255 54.5842 11.7428 -14.0392 
62.5041 11.7428 -12.5427 -56.2944 19.6627 -12.1789 -48.3745 19.6627 -16.4636 
-40.4546 19.6627 -16.844 -32.5347 19.6627 -16.9678 -24.6148 19.6627 -17.2702 
-16.6949 19.6627 -16.2933 -8.77498 19.6627 -15.4569 -0.855082 19.6627 -15.217 
7.06482 19.6627 -15.1237 14.9847 19.6627 -15.254 22.9046 19.6627 -14.3107 
30.8245 19.6627 -13.7523 38.7444 19.6627 -13.2014 46.6643 19.6627 -12.2578 
54.5842 19.6627 -11.8594 -48.3745 27.5826 -13.2729 -40.4546 27.5826 -16.0428 
-32.5347 27.5826 -16.8021 -24.6148 27.5826 -16.4797 -16.6949 27.5826 -16.207 
-8.77498 27.5826 -15.3579 -0.855082 27.5826 -14.3739 7.06482 27.5826 -14.0638 
14.9847 27.5826 -13.9338 22.9046 27.5826 -12.7159 30.8245 27.5826 -11.9238 
-32.5347 35.5025 -13.9662 -24.6148 35.5025 -14.0921 -16.6949 35.5025 -13.7343 
-8.77498 35.5025 -12.5353 -32.5347 -38.5237 -11.8242 -24.6148 -39.779 -11.8242 
-16.6949 -39.8755 -11.8242 -16.6949 -43.6965 -4.19078 -8.77498 -37.9731 -11.8242 
-0.855082 -36.5015 -11.8242 -37.1776 -35.7766 -11.8242 -40.4546 -33.6386 -11.8242 
-40.4546 -35.7766 -9.12944 4.192 -35.7766 -11.8242 7.06482 -35.2079 -11.8242 
7.06482 -35.7766 -10.0865 14.9847 -32.4758 -11.8242 22.9046 -30.0861 -11.8242 
30.8245 -28.6176 -11.8242 -56.2944 -21.8493 -11.8242 -47.333 -27.8567 -11.8242 
-48.3745 -26.7791 -11.8242 -48.3745 -27.8567 -11.0559 36.1669 -27.8567 -11.8242 
38.7444 -27.3562 -11.8242 38.7444 -27.8567 -10.9431 46.6643 -25.3994 -11.8242 
46.6643 -27.8567 -5.01482 54.5842 -22.5966 -11.8242 -57.9914 -19.9368 -11.8242 
58.712 -19.9368 -11.8242 62.5041 -16.4666 -11.8242 62.5041 -19.9368 -7.71231 
-62.6466 -12.0169 -11.8242 -64.2143 -9.72063 -11.8242 -64.2143 -12.0169 -11.1136 
66.186 -12.0169 -11.8242 70.424 -12.0169 -6.57305 -65.7617 -4.09698 -11.8242 
-72.1342 -4.09698 -4.02374 67.7861 -4.09698 -11.8242 70.424 -4.09698 -10.3601 
-65.8115 3.82292 -11.8242 -72.1342 3.82292 -4.55801 67.3125 3.82292 -11.8242 
70.424 3.82292 -10.3627 -64.5979 11.7428 -11.8242 -64.2143 12.5539 -11.8242 
63.7749 11.7428 -11.8242 62.5041 13.2956 -11.8242 70.424 11.7428 -6.61723 
-57.1194 19.6627 -11.8242 -64.2143 19.6627 -8.17476 -56.2944 21.9235 -11.8242 
38.7444 22.5866 -11.8242 46.6643 20.7011 -11.8242 54.676 19.6627 -11.8242 
54.5842 19.7138 -11.8242 62.5041 19.6627 -7.68083 -53.1979 27.5826 -11.8242 
-56.2944 27.5826 -10.646 -48.3745 31.772 -11.8242 -40.4546 35.4795 -11.8242 
-0.855082 34.3391 -11.8242 7.06482 34.8815 -11.8242 14.9847 32.8977 -11.8242 
22.9046 29.5581 -11.8242 31.1638 27.5826 -11.8242 30.8245 27.8014 -11.8242 
38.7444 27.5826 -9.11109 46.6643 27.5826 -8.3846 54.5842 27.5826 -4.65174 
-48.3745 35.5025 -9.26743 -40.398 35.5025 -11.8242 -40.4546 35.5025 -11.8004 
-32.5347 38.5045 -11.8242 -24.6148 39.1912 -11.8242 -16.6949 37.8742 -11.8242 
-4.26431 35.5025 -11.8242 -8.77498 36.3755 -11.8242 -0.855082 35.5025 -11.2793 
7.06482 35.5025 -11.5453 14.9847 35.5025 -10.2361 22.9046 35.5025 -7.95444 
30.8245 35.5025 -5.61723 -16.6949 -43.7916 -3.90425 -40.4546 -38.6538 -3.90425 
-32.5347 -42.2474 -3.90425 -19.0937 -43.6965 -3.90425 -24.6148 -43.4776 -3.90425 
-16.3949 -43.6965 -3.90425 -16.6949 -43.6965 -3.07666 -8.77498 -41.3338 -3.90425 
-0.855082 -38.8988 -3.90425 7.06482 -37.1498 -3.90425 -45.025 -35.7766 -3.90425 
-48.3745 -33.6258 -3.90425 12.5404 -35.7766 -3.90425 14.9847 -35.1222 -3.90425 
22.9046 -32.3559 -3.90425 30.8245 -30.6527 -3.90425 38.7444 -30.3187 -3.90425 
46.6643 -28.1301 -3.90425 -55.8638 -27.8567 -3.90425 -56.2944 -27.493 -3.90425 
47.8398 -27.8567 -3.90425 46.6643 -27.8567 -1.84401 54.5842 -26.1374 -3.90425 
62.5041 -21.8416 -3.90425 -64.1743 -19.9368 -3.90425 -64.2143 -19.8911 -3.90425 
65.1466 -19.9368 -3.90425 70.424 -14.3021 -3.90425 -69.7258 -12.0169 -3.90425 
-72.1342 -4.36368 -3.90425 72.1526 -12.0169 -3.90425 -72.2134 -4.09698 -3.90425 
-72.1342 -4.09698 -2.73756 75.369 -4.09698 -3.90425 -72.5764 3.82292 -3.90425 
-72.1342 7.35582 -3.90425 75.9625 3.82292 -3.90425 -71.3894 11.7428 -3.90425 
72.8785 11.7428 -3.90425 70.424 15.5026 -3.90425 -67.7778 19.6627 -3.90425 
-64.2143 25.9529 -3.90425 66.8869 19.6627 -3.90425 62.5041 23.0136 -3.90425 
-62.9947 27.5826 -3.90425 -56.2944 33.1604 -3.90425 38.7444 34.0435 -3.90425 
46.6643 31.2621 -3.90425 55.6255 27.5826 -3.90425 54.5842 28.2105 -3.90425 
-52.7124 35.5025 -3.90425 -48.3745 37.8435 -3.90425 -40.4546 40.76 -3.90425 
-32.5347 41.6253 -3.90425 -24.6148 42.1627 -3.90425 -16.6949 42.2095 -3.90425 
-8.77498 41.9988 -3.90425 -0.855082 41.3925 -3.90425 7.06482 40.4833 -3.90425 
14.9847 39.6222 -3.90425 22.9046 38.2887 -3.90425 34.7909 35.5025 -3.90425 
30.8245 36.5502 -3.90425 -40.4546 -36.9588 4.01565 -32.5347 -40.6645 4.01565 
-24.6148 -42.6817 4.01565 -16.6949 -42.8487 4.01565 -8.77498 -40.7993 4.01565 
-0.855082 -38.5865 4.01565 7.06482 -36.5625 4.01565 -42.3644 -35.7766 4.01565 
-48.3745 -32.0167 4.01565 -40.4546 -35.7766 5.66391 -32.5347 -35.7766 10.6173 
9.54178 -35.7766 4.01565 7.06482 -35.7766 7.86327 14.9847 -33.8448 4.01565 
22.9046 -31.0407 4.01565 30.8245 -29.7432 4.01565 38.7444 -29.2183 4.01565 
-53.8481 -27.8567 4.01565 -56.2944 -25.567 4.01565 -48.3745 -27.8567 8.83813 
30.8245 -27.8567 9.93101 43.7544 -27.8567 4.01565 38.7444 -27.8567 7.10988 
46.6643 -27.0754 4.01565 54.5842 -25.0183 4.01565 62.5041 -20.601 4.01565 
-62.6584 -19.9368 4.01565 -64.2143 -18.407 4.01565 -56.2944 -19.9368 9.85809 
63.4939 -19.9368 4.01565 62.5041 -19.9368 5.23286 70.424 -13.16 4.01565 
-68.8251 -12.0169 4.01565 -64.2143 -12.0169 9.20972 71.2894 -12.0169 4.01565 
70.424 -12.0169 5.20804 -71.4435 -4.09698 4.01565 -72.1342 0.879359 4.01565 
-64.2143 -4.09698 11.4716 75.6047 -4.09698 4.01565 70.424 -4.09698 10.811 
-72.4046 3.82292 4.01565 -72.1342 5.61362 4.01565 -72.1342 3.82292 4.36079 
-16.6949 3.82292 11.9319 76.09 3.82292 4.01565 70.424 3.82292 11.6997 
-70.8365 11.7428 4.01565 -64.2143 11.7428 11.2086 74.012 11.7428 4.01565 
70.424 17.6337 4.01565 70.424 11.7428 9.04462 -67.4983 19.6627 4.01565 
-64.2143 25.2214 4.01565 -64.2143 19.6627 7.49897 -8.77498 19.6627 11.8002 
68.8898 19.6627 4.01565 62.5041 24.8624 4.01565 62.5041 19.6627 11.8717 
-62.1351 27.5826 4.01565 -56.2944 31.9124 4.01565 -56.2944 27.5826 8.16287 
-24.6148 27.5826 11.2368 -16.6949 27.5826 10.1996 -8.77498 27.5826 10.146 
-0.855082 27.5826 10.3637 7.06482 27.5826 9.99056 14.9847 27.5826 10.9756 
38.7444 35.3353 4.01565 46.6643 33.0218 4.01565 58.4685 27.5826 4.01565 
54.5842 29.9684 4.01565 54.5842 27.5826 8.68927 -48.7934 35.5025 4.01565 
-48.3745 35.6743 4.01565 -48.3745 35.5025 4.28518 -40.4546 38.3764 4.01565 
-40.4546 35.5025 7.19045 -32.5347 38.538 4.01565 -32.5347 35.5025 7.4638 
-24.6148 37.8661 4.01565 -24.6148 35.5025 6.73518 -16.6949 37.3251 4.01565 
-16.6949 35.5025 5.86188 -8.77498 37.778 4.01565 -8.77498 35.5025 6.00105 
-0.855082 38.0199 4.01565 -0.855082 35.5025 6.29765 7.06482 37.3646 4.01565 
7.06482 35.5025 5.76212 14.9847 37.0176 4.01565 14.9847 35.5025 5.60153 
22.9046 37.1642 4.01565 22.9046 35.5025 6.64903 37.8864 35.5025 4.01565 
30.8245 36.8275 4.01565 30.8245 35.5025 5.91099 -24.6148 -37.7571 11.9356 
-16.6949 -38.893 11.9356 -8.77498 -37.9551 11.9356 -0.855082 -36.5149 11.9356 
-40.4546 -27.9344 11.9356 -29.584 -35.7766 11.9356 -32.5347 -33.7675 11.9356 
-24.6148 -35.7766 13.5726 -16.6949 -35.7766 14.8507 -8.77498 -35.7766 14.242 
2.70545 -35.7766 11.9356 -0.855082 -35.7766 12.8805 7.06482 -34.7125 11.9356 
[...]
POINT_DATA 554
SCALARS ImageScalars float
LOOKUP_TABLE default
0 0 0 0 0 0 0 0 0 
0 0 0 0 0 0 0 0 0 
0 0 0 0 0 0 0 0 0 
0 0 0 0 0 0 0 0 0 
0 0 0 0 0 0 0 0 0 
0 0 0 0 0 0 0 0 0 
0 0 0 0 0 0 0 0 0 
0 0 0 0 0 0 0 0 0 
0 0 0 0 0 0 0 0 0 
0 0 0 0 0 0 0 0 0 
0 0 0 0 0 0 0 0 0 
0 0 0 0 0 0 0 0 0 
0 0 0 0 0 0 0 0 0 
0 0 0 0 0 0 0 0 0 
0 0 0 0 0 0 0 0 0 
0 0 0 0 0 0 0 0 0 
0 0 0 0 0 0 0 0 0 
0 0 0 0 0 0 0 0 0 
0 0 0 0 0 0 0 0 0 
0 0 0 0 0 0 0 0 0 
0 0 0 0 0 0 0 0 0 
0 0 0 0 0 0 0 0 0 
0 0 0 0 0 0 0 0 0 
0 0 0 0 0 0 0 0 0 
0 0 0 0 0 0 0 0 0 
0 0 0 0 0 0 0 0 0 
0 0 0 0 0 0 0 0 0 
0 0 0 0 0 0 0 0 0 
0 0 0 0 0 0 0 0 0 
0 0 0 0 0 0 0 0 0 
0 0 0 0 0 0 0 0 0 
0 0 0 0 0 0 0 0 0 
0 0 0 0 0 0 0 0 0 
0 0 0 0 0 0 0 0 0 
0 0 0 0 0 0 0 0 0 
0 0 0 0 0 0 0 0 0 
0 0 0 0 0 0 0 0 0 
0 0 0 0 0 0 0 0 0 
0 0 0 0 0 0 0 0 0 
0 0 0 0 0 0 0 0 0 
0 0 0 0 0 0 0 0 0 
0 0 0 0 0 0 0 0 0 
0 0 0 0 0 0 0 0 0 
0 0 0 0 0 0 0 0 0 
0 0 0 0 0 0 0 0 0 
0 0 0 0 0 0 0 0 0 
0 0 0 0 0 0 0 0 0 
0 0 0 0 0 0 0 0 0 
0 0 0 0 0 0 0 0 0 
0 0 0 0 0 0 0 0 0 
0 0 0 0 0 0 0 0 0 
0 0 0 0 0 0 0 0 0 
0 0 0 0 0 0 0 0 0 
0 0 0 0 0 0 0 0 0 
0 0 0 0 0 0 0 0 0 
0 0 0 0 0 0 0 0 0 
0 0 0 0 0 0 0 0 0 
0 0 0 0 0 0 0 0 0 
0 0 0 0 0 0 0 0 0 
0 0 0 0 0 0 0 0 0 
0 0 0 0 0 0 0 0 0 
0 0 0 0 0 
NORMALS Normals float
0.252554 0.4984 0.829345 0.072336 0.459069 0.885451 -0.0533753 0.491576 0.869198 
-0.148669 0.585479 0.796939 -0.143419 0.712161 0.68721 0.269036 0.303393 0.914097 
0.135472 0.175192 0.975169 0.0478999 0.148418 0.987764 -0.0441378 0.0832914 0.995547 
-0.074413 0.0937966 0.992807 -0.0222109 0.205801 0.978342 -0.0628291 0.264519 0.962332 
-0.167193 0.409921 0.896667 -0.145271 0.634981 0.758746 -0.13579 0.742231 0.656243 
0.459772 0.328435 0.82507 0.229681 0.299572 0.926015 0.0628299 0.173899 0.982757 
0.066939 0.0328031 0.997218 -0.0092869 -0.0480168 0.998803 -0.0942204 -0.128228 0.987259 
-0.0246009 -0.100843 0.994598 0.0245124 -0.00370945 0.999693 0.00345691 -0.0261507 0.999652 
0.0409061 0.011083 0.999102 -0.00405442 0.131094 0.991362 -0.0355297 0.257147 0.965719 
-0.0581199 0.36262 0.930123 -0.160696 0.366678 0.916365 -0.345705 0.521215 0.780271 
0.3956 0.169018 0.902737 0.171662 0.0441806 0.984165 0.0336836 0.0918678 0.995201 
-0.084739 0.013053 0.996318 -0.114017 -0.100556 0.988377 -0.0902675 -0.144443 0.985387 
0.0482134 0.0613506 0.996951 0.0537213 -0.0728664 0.995894 -0.0418132 0.111718 0.99286 
0.0295295 -0.0954148 0.995 0.12876 -0.112683 0.985253 0.183892 0.0339774 0.982359 
-0.023659 0.0387316 0.99897 -0.150278 0.122147 0.981069 -0.212186 0.219571 0.952242 
-0.402595 0.250901 0.880321 0.494503 0.103244 0.863022 0.298925 0.0677676 0.951867 
0.130086 -0.00909749 0.991461 0.0231325 0.00747398 0.999704 -0.124931 -0.00930591 0.992122 
-0.1634 -0.0274897 0.986177 0.059068 -0.0514825 0.996926 0.0889683 0.269018 0.959017 
0.0908957 -0.14346 0.985473 0.00713947 0.159777 0.987127 -0.214529 -0.0231324 0.976444 
0.126074 -0.112481 0.985623 0.13647 -0.105161 0.985047 0.0304784 -0.107267 0.993763 
-0.0021513 -0.00868074 0.99996 -0.198033 0.0233423 0.979917 -0.345242 -0.00964872 0.938464 
0.481077 -0.0534216 0.875049 0.271585 -0.0650539 0.960213 0.137128 -0.0449435 0.989533 
0.0215005 -0.0303307 0.999309 -0.120274 -0.0131448 0.992654 -0.150544 0.0155361 0.988481 
0.0677906 0.0408446 0.996863 0.0574242 -0.198499 0.978417 0.0243321 0.183245 0.982766 
0.0718324 -0.197224 0.977723 -0.223861 0.00850178 0.974584 0.0521842 -0.0590653 0.996889 
0.18283 -0.124387 0.975244 0.0653947 -0.114545 0.991263 -0.019677 -0.151158 0.988314 
-0.1812 -0.199278 0.963045 -0.340052 -0.0986675 0.935216 0.499665 -0.228044 0.835662 
0.261476 -0.179618 0.94835 0.162524 -0.00999707 0.986654 0.0554162 -0.0562868 0.996876 
-0.079283 0.00372671 0.996845 -0.113824 0.0911744 0.989308 -0.0487513 0.114887 0.992182 
0.135958 -0.117736 0.983694 0.0137929 0.0163867 0.999771 -0.133052 -0.138254 0.981419 
-0.100014 0.00704035 0.994961 -0.00911143 -0.00427894 0.999949 0.0673557 -0.123992 0.989995 
0.00818075 -0.257266 0.966306 -0.0770411 -0.26495 0.961179 -0.150971 -0.31576 0.936752 
-0.365952 -0.304128 0.879537 0.406647 -0.197036 0.892085 0.25374 -0.133943 0.957954 
0.0291259 -0.101367 0.994423 0.0265452 -0.00365144 0.999641 -0.0430944 0.0206562 0.998857 
-0.113368 0.0720577 0.990937 -0.0675728 -0.00548497 0.997699 -0.0209572 -0.165342 0.986014 
0.00233795 -0.10602 0.994361 -0.0476557 -0.0613878 0.996976 -0.0955239 -0.093562 0.99102 
-0.068624 -0.190114 0.979361 -0.0851473 -0.341199 0.936127 -0.0866153 -0.36797 0.925795 
-0.220991 -0.489516 0.843527 0.359231 -0.33738 0.870131 0.173787 -0.223843 0.959006 
0.0404046 -0.19479 0.980012 -0.0351396 -0.178882 0.983243 -0.0693073 -0.135073 0.988409 
-0.112958 -0.147973 0.982519 -0.0773235 -0.212949 0.973999 -0.027142 -0.214653 0.976313 
-0.0791288 -0.268324 0.960073 -0.128595 -0.299835 0.945284 -0.190757 -0.334144 0.923016 
0.112316 -0.511644 0.851825 -0.0123976 -0.458122 0.888803 -0.0902567 -0.507015 0.857198 
-0.137347 -0.522111 0.841746 0.276765 0.654741 0.70336 0.0623033 0.725806 0.685072 
-0.0973546 0.723775 0.683134 -0.146539 0.980345 0.132096 -0.174113 0.732229 0.658426 
-0.150599 0.755179 0.637985 0.358564 0.618018 0.699633 0.383454 0.585087 0.714588 
0.454893 0.75318 0.475176 -0.173224 0.792607 0.58461 -0.184241 0.798128 0.573625 
-0.204592 0.872964 0.442805 -0.267308 0.746272 0.609611 -0.19549 0.766061 0.612319 
-0.156896 0.790041 0.592637 0.495564 0.446761 0.744864 0.439699 0.472799 0.763627 
0.429014 0.483027 0.763303 0.480077 0.522559 0.704598 -0.161377 0.812281 0.560497 
-0.157181 0.813976 0.559229 -0.165065 0.859901 0.483037 -0.230795 0.755768 0.612819 
-0.248919 0.962081 0.111533 -0.385808 0.62928 0.674655 0.493569 0.392679 0.776011 
-0.457773 0.580995 0.67297 -0.501783 0.473056 0.724177 -0.566408 0.72191 0.397526 
0.488756 0.286449 0.824054 0.508586 0.262143 0.820135 0.534769 0.331197 0.777387 
-0.541561 0.339205 0.769189 -0.768068 0.525035 0.366618 0.537386 0.113228 0.8357 
0.929692 0.181639 0.320436 -0.464051 0.0577741 0.883922 -0.606214 0.147381 0.781526 
0.526338 -0.0581842 0.848282 0.920529 -0.0446995 0.388108 -0.395507 -0.149213 0.906261 
-0.519126 -0.203965 0.830004 0.509593 -0.228431 0.829539 0.497231 -0.254325 0.829506 
-0.399652 -0.332527 0.854227 -0.402403 -0.342448 0.849 -0.657682 -0.492404 0.570082 
0.412438 -0.216341 0.884925 0.635701 -0.454248 0.624134 0.419019 -0.24643 0.873897 
-0.121203 -0.403413 0.906955 -0.10059 -0.396299 0.912594 -0.224786 -0.490059 0.842207 
-0.221511 -0.491727 0.842103 -0.50832 -0.5826 0.634183 0.413771 -0.356991 0.837467 
0.47619 -0.431622 0.766124 0.377275 -0.466839 0.799828 0.210931 -0.662394 0.718848 
-0.0546804 -0.486338 0.872058 -0.0375408 -0.530802 0.846664 -0.129831 -0.470144 0.872988 
-0.140183 -0.387301 0.911234 -0.190971 -0.340875 0.920508 -0.192793 -0.343708 0.919073 
-0.205601 -0.557785 0.804117 -0.223196 -0.659673 0.717646 -0.434433 -0.741898 0.51074 
0.417784 -0.726485 0.545597 0.210397 -0.662725 0.7187 0.211173 -0.664531 0.716802 
0.157793 -0.664773 0.730191 -0.0323737 -0.630038 0.775889 -0.124248 -0.645948 0.753203 
-0.0857425 -0.532676 0.841965 -0.137003 -0.568639 0.811098 -0.0550919 -0.562712 0.824815 
-0.0416459 -0.574166 0.817679 -0.163148 -0.667299 0.726702 -0.208398 -0.803641 0.557433 
-0.244002 -0.869824 0.428801 -0.147258 0.982436 0.114605 0.486767 0.866286 0.112281 
0.278703 0.957903 0.0688965 -0.0718972 0.990831 0.114385 0.0904015 0.989379 0.113825 
-0.153449 0.981536 0.114193 -0.145157 0.986383 0.0773188 -0.275138 0.953618 0.122115 
-0.247781 0.963493 0.101423 -0.237057 0.969435 0.0632366 0.533098 0.839748 0.103102 
0.568906 0.813226 0.122512 -0.267306 0.962784 0.0399168 -0.285936 0.957577 0.0358643 
-0.261205 0.964697 0.0336328 -0.111129 0.992619 0.0485527 -0.157113 0.983928 0.0848597 
-0.244886 0.968037 0.0541718 0.623993 0.768338 0.142441 0.628217 0.765683 0.138104 
-0.26401 0.962602 0.060802 -0.24504 0.96948 -0.00798649 -0.384448 0.916376 0.111604 
-0.541787 0.828312 0.142706 0.745996 0.631633 0.211023 0.746755 0.630511 0.211689 
-0.639752 0.750129 0.167402 -0.787239 0.577694 0.215697 0.882111 0.393541 0.258856 
0.931205 0.189621 0.311289 -0.819761 0.539299 0.192739 0.933063 0.181751 0.31042 
0.958338 0.193043 0.210531 -0.951873 0.203609 0.229086 0.941972 -0.0436418 0.332842 
0.927338 -0.149356 0.343128 -0.970761 -0.12451 0.205231 0.904597 -0.273097 0.327296 
-0.774383 -0.496249 0.392514 -0.705421 -0.564886 0.428118 0.858597 -0.448094 0.249044 
0.757734 -0.581365 0.2964 -0.616726 -0.648556 0.446121 -0.524233 -0.755476 0.392984 
0.729091 -0.625155 0.278582 0.601175 -0.769827 0.214369 -0.313891 -0.837821 0.446686 
-0.302687 -0.830758 0.467143 -0.468179 -0.756167 0.457187 -0.449282 -0.755002 0.477616 
0.524214 -0.840327 0.138025 0.417247 -0.905985 0.0713921 0.242866 -0.96764 0.0684774 
0.0878206 -0.995161 -0.0440748 0.0372607 -0.992507 -0.116367 -0.0107004 -0.999179 -0.0390783 
-0.0522929 -0.99804 0.0343623 -0.100947 -0.988884 0.109172 -0.117968 -0.987012 0.109044 
-0.143019 -0.982913 0.11588 -0.205363 -0.949046 0.239034 -0.282912 -0.888086 0.362305 
-0.241924 -0.916809 0.3177 0.471956 0.789514 -0.392333 0.327677 0.865899 -0.377951 
0.120229 0.954296 -0.273612 -0.117302 0.964096 -0.23824 -0.259891 0.947819 -0.18465 
-0.258801 0.956355 -0.135673 -0.283588 0.950039 -0.130401 0.488072 0.782971 -0.385672 
0.522111 0.756563 -0.393716 0.465818 0.747275 -0.473913 0.356249 0.637881 -0.682785 
-0.301878 0.942725 -0.141916 -0.273929 0.922299 -0.272632 -0.332739 0.927359 -0.171142 
-0.232611 0.961168 -0.148486 -0.113148 0.973057 -0.200892 -0.165422 0.947137 -0.274895 
0.563281 0.715041 -0.414041 0.581396 0.697221 -0.419358 0.447406 0.570698 -0.688572 
-0.211575 0.902486 -0.375173 -0.212018 0.95169 -0.222114 -0.155313 0.911265 -0.381411 
-0.239172 0.948951 -0.205644 -0.380755 0.86858 -0.317166 -0.532044 0.788483 -0.308584 
0.677574 0.6095 -0.411586 0.708657 0.570965 -0.414494 0.444407 0.544151 -0.711619 
-0.566336 0.762645 -0.312466 -0.539684 0.759273 -0.363656 -0.734719 0.590994 -0.333037 
0.813201 0.408891 -0.414141 0.683629 0.38042 -0.622842 -0.750116 0.579318 -0.318929 
-0.719111 0.577935 -0.385838 0.867857 0.204532 -0.45276 0.895474 0.058694 -0.441227 
0.619612 0.186062 -0.762536 -0.917456 0.247425 -0.311538 -0.713902 0.257473 -0.651193 
0.905398 -0.0322696 -0.423336 0.898805 -0.0903173 -0.428944 0.89247 -0.0313118 -0.450019 
0.0240944 0.012592 -0.99963 -0.948629 -0.0823286 -0.305491 -0.695721 -0.0663938 -0.715237 
0.871869 -0.26837 -0.40966 0.612198 -0.289441 -0.735824 -0.888148 -0.423662 -0.178057 
-0.788443 -0.581203 -0.201395 -0.70045 -0.422612 -0.575125 0.835 -0.440757 -0.329407 
0.713124 -0.581735 -0.391202 0.663725 -0.421935 -0.617608 0.0276761 -0.168528 -0.985308 
-0.743735 -0.642662 -0.183966 -0.58404 -0.800065 -0.13709 -0.435849 -0.46508 -0.770543 
0.64418 -0.652354 -0.399332 0.500316 -0.740974 -0.44793 0.460315 -0.629283 -0.62619 
-0.112671 -0.369608 -0.922331 -0.0620291 -0.324559 -0.943829 0.0100042 -0.331558 -0.943382 
-0.0102739 -0.363189 -0.931659 0.0337104 -0.357981 -0.93312 0.144587 -0.428232 -0.892027 
-0.230547 -0.956622 -0.178107 -0.317669 -0.94385 -0.0907387 -0.51991 -0.845259 -0.123411 
-0.458231 -0.881362 -0.115006 -0.491684 -0.725421 -0.481675 0.356846 -0.830031 -0.428613 
0.347035 -0.834632 -0.427735 0.346428 -0.829021 -0.43899 0.168058 -0.825484 -0.538825 
0.125867 -0.735689 -0.665521 -0.0255366 -0.840354 -0.541436 -0.0186208 -0.661547 -0.749672 
-0.0676159 -0.758455 -0.648209 -0.0791803 -0.660608 -0.746544 -0.0067703 -0.698872 -0.715215 
-0.0324262 -0.637429 -0.769826 0.033894 -0.704697 -0.708698 0.0225568 -0.620284 -0.784053 
-0.0233717 -0.746655 -0.6648 -0.013317 -0.638612 -0.769414 -0.0541035 -0.765375 -0.641306 
-0.0391119 -0.684163 -0.728279 -0.00988979 -0.810232 -0.586026 0.03079 -0.754427 -0.655661 
-0.0139574 -0.921848 -0.387301 0.0240097 -0.837945 -0.545227 -0.219803 -0.956087 -0.193865 
-0.119605 -0.941751 -0.314324 -0.0978296 -0.895046 -0.435111 0.200529 0.660343 -0.723696 
0.000519424 0.748144 -0.663536 -0.138541 0.791903 -0.594724 -0.186923 0.837424 -0.513596 
0.305632 0.465109 -0.83082 0.295018 0.600584 -0.743144 0.343861 0.527244 -0.777028 
0.1962 0.560666 -0.804462 0.0411806 0.578187 -0.814865 -0.102015 0.665656 -0.739253 
-0.217231 0.848954 -0.481754 -0.173099 0.80291 -0.570414 -0.248757 0.847322 -0.469217 
-0.294843 0.833737 -0.466852 -0.262351 0.878679 -0.398868 0.306123 0.463883 -0.831325 
0.326987 0.37286 -0.868364 0.304583 0.462715 -0.832541 0.282056 0.261666 -0.923025 
0.20515 0.193795 -0.959352 0.0538739 0.128705 -0.990219 -0.0176825 0.151405 -0.988314 
0.00250688 0.235126 -0.971962 -0.0884196 0.364563 -0.926971 -0.177504 0.586551 -0.790222 
-0.247556 0.868756 -0.428928 -0.223171 0.788996 -0.572434 -0.242792 0.85627 -0.45591 
-0.175391 0.787331 -0.591056 -0.276934 0.697725 -0.660672 -0.339535 0.631239 -0.697319 
0.340542 0.402101 -0.84991 0.379291 0.406917 -0.830998 0.301564 0.341628 -0.89014 
0.184951 0.175717 -0.966911 0.147826 0.0573068 -0.987352 0.0960891 -0.0729176 -0.992698 
0.00322808 -0.163074 -0.986609 0.0107779 -0.167699 -0.985779 0.0775978 -0.0713446 -0.994429 
0.0794221 0.019848 -0.996643 0.0712467 0.145143 -0.986842 -0.000906428 0.235108 -0.971969 
-0.141654 0.343145 -0.92854 -0.245026 0.470787 -0.847539 -0.275394 0.524309 -0.805766 
-0.351358 0.624126 -0.697864 -0.33535 0.618972 -0.710221 -0.484964 0.454436 -0.747193 
0.519717 0.290827 -0.803314 0.28343 0.187105 -0.940563 0.11135 0.197402 -0.973978 
0.0111431 0.045697 -0.998893 0.0156439 -0.0644403 -0.997799 -0.0121428 -0.204401 -0.978812 
-0.053096 -0.305259 -0.950788 0.0758431 -0.105948 -0.991475 0.210336 -0.0317742 -0.977113 
0.14567 0.00666095 -0.989311 0.119155 -0.0820175 -0.989482 -0.118231 0.148707 -0.981788 
-0.161561 0.261019 -0.951718 -0.295322 0.340186 -0.892781 -0.494834 0.416408 -0.762721 
-0.462759 0.389962 -0.796106 0.556561 0.143622 -0.818299 0.605159 0.103173 -0.789391 
0.260765 -0.0229669 -0.965129 0.117282 0.0341811 -0.99251 -0.0507217 0.00983583 -0.998664 
-0.108808 -0.0569994 -0.992427 -0.148756 -0.122854 -0.981213 0.0241987 0.0113598 -0.999643 
0.0539144 -0.205414 -0.977189 0.370852 0.129009 -0.919688 0.124323 -0.181718 -0.97546 
0.0085436 0.109248 -0.993978 -0.0136629 -0.156196 -0.987631 0.0924149 -0.221242 -0.97083 
0.0884976 -0.134537 -0.986949 -0.134894 0.0829332 -0.987383 -0.210103 0.0826378 -0.97418 
-0.640751 0.218299 -0.73606 -0.37395 0.136733 -0.917314 0.599762 -0.0141862 -0.800053 
0.595616 -0.147547 -0.789602 0.567513 -0.0142429 -0.823241 0.226786 -0.0164213 -0.973806 
0.0917466 0.0330576 -0.995234 -0.0881033 -0.0247178 -0.995805 -0.115143 -0.00896148 -0.993308 
0.0237259 0.0125646 -0.99964 -0.151585 0.0139956 -0.988345 0.0241933 0.0123688 -0.999631 
0.0236786 0.0125687 -0.999641 0.0777682 -0.302177 -0.950074 0.263283 -0.117149 -0.957579 
-0.199153 -0.209805 -0.957246 0.0922823 -0.159069 -0.982945 0.153665 -0.117518 -0.98111 
0.0947267 -0.137725 -0.98593 -0.065719 -0.0868476 -0.994052 -0.222501 -0.000971399 -0.974932 
-0.672433 -0.064775 -0.737318 -0.327988 -0.0705858 -0.942041 0.491095 -0.200417 -0.847738 
0.250323 -0.0195396 -0.967965 0.124642 -0.118048 -0.985154 -0.083863 -0.0296971 -0.996035 
-0.075237 -0.0223404 -0.996915 -0.12623 0.0153309 -0.991883 -0.075283 0.00296757 -0.997158 
0.0411536 -0.164788 -0.98547 0.145418 -0.17847 -0.97314 0.272886 -0.0507838 -0.960705 
-0.0466887 -0.474032 -0.879269 -0.0799728 -0.170228 -0.982154 0.154562 -0.0836473 -0.984436 
0.116296 -0.108382 -0.987284 0.0273296 -0.145337 -0.989005 0.0127298 -0.210903 -0.977424 
-0.201252 -0.183469 -0.962204 -0.496814 -0.279094 -0.821756 -0.433938 -0.457231 -0.776297 
-0.409506 -0.207101 -0.88849 0.385134 -0.307402 -0.870158 0.371267 -0.38441 -0.845216 
0.299863 -0.230045 -0.92583 0.132597 -0.261019 -0.956184 0.0154301 -0.169338 -0.985437 
-0.0777126 -0.152852 -0.985189 -0.118668 -0.315327 -0.941534 -0.132636 -0.168832 -0.97668 
-0.0306893 -0.161959 -0.98632 -0.122297 -0.168176 -0.978141 -0.129597 -0.150262 -0.980115 
0.0251969 -0.18651 -0.98213 0.00521602 -0.296306 -0.955079 0.0188868 -0.28171 -0.959314 
0.0505444 -0.377296 -0.924712 0.0509839 -0.381203 -0.923085 0.15992 -0.34359 -0.925403 
0.16436 -0.220885 -0.961351 0.173192 -0.19355 -0.965683 0.0887513 -0.213536 -0.972896 
-0.00124541 -0.200041 -0.979787 -0.109029 -0.233626 -0.966194 -0.43126 -0.461793 -0.775088 
-0.396257 -0.520414 -0.756406 -0.294736 -0.452362 -0.841724 0.2377 -0.422982 -0.874405 
0.210778 -0.423739 -0.880919 0.195801 -0.384598 -0.902079 -0.0166205 -0.471079 -0.881934 
-0.0166068 -0.458143 -0.888724 -0.0659471 -0.382059 -0.921782 -0.0480225 -0.395248 -0.917318 
-0.0518248 -0.38757 -0.920382 0.167226 -0.390933 -0.9051 0.16211 -0.419991 -0.892932 
0.172659 -0.380228 -0.908634 0.0179929 -0.593074 -0.804947 0.0712076 -0.484933 -0.871648 
-0.0150188 -0.636018 -0.771528 0.0118736 -0.536808 -0.843621 -0.347881 -0.615393 -0.707298 
-0.196176 -0.709146 -0.677219 -0.206045 -0.604037 -0.769861 0.045447 -0.0427763 -0.99805 
-0.0576787 0.0352054 -0.997714 0.0518826 -0.0682324 -0.996319 0.050258 -0.0705739 -0.99624 
0.0493495 -0.0677573 -0.996481 -0.05661 0.0229458 -0.998133 -0.0373971 -0.00249244 -0.999297 
-0.0513212 0.0121787 -0.998608 -0.00965307 -0.0101384 -0.999902 0.13523 0.0172519 -0.990664 
-0.00552101 -0.0157314 -0.999861 -0.0103466 -0.0111781 -0.999884 -0.00623922 -0.0148305 -0.999871 
-0.00768196 -0.0129931 -0.999886 0.159314 -0.00857286 -0.987191 0.134087 -0.0162117 -0.990837 
0.132631 -0.0689818 -0.988762 0.157117 -0.00137023 -0.987579 
