# vtk DataFile Version 4.2
vtk output
ASCII
DATASET POLYDATA
POINTS 622 float
-31.2438 -0.935434 -17.4737 -31.2438 6.98876 -17.8487 -31.2438 -40.5564 -11.1961 
-23.3196 -40.5564 -11.5677 -15.3954 -40.5564 -12.3079 -7.47119 -40.5564 -11.6362 
32.1498 -40.5564 -9.91511 -47.0922 -32.6322 -10.6811 -39.168 -32.6322 -11.8466 
-31.2438 -32.6322 -13.5444 -23.3196 -32.6322 -13.6454 -15.3954 -32.6322 -14.0578 
-7.47119 -32.6322 -13.7056 0.453004 -32.6322 -12.0486 8.3772 -32.6322 -10.4423 
16.3014 -32.6322 -11.1761 24.2256 -32.6322 -12.168 32.1498 -32.6322 -13.2363 
40.074 -32.6322 -12.0502 47.9982 -32.6322 -11.7764 -55.0164 -24.708 -10.4455 
-47.0922 -24.708 -12.5688 -39.168 -24.708 -14.489 -31.2438 -24.708 -14.9684 
-23.3196 -24.708 -14.863 -15.3954 -24.708 -14.4278 -7.47119 -24.708 -13.8844 
0.453004 -24.708 -12.4486 8.3772 -24.708 -11.3227 16.3014 -24.708 -12.8729 
24.2256 -24.708 -13.8816 32.1498 -24.708 -14.0183 40.074 -24.708 -16.3274 
47.9982 -24.708 -13.2556 55.9224 -24.708 -12.0176 -55.0164 -16.7838 -12.463 
-47.0922 -16.7838 -15.0491 -39.168 -16.7838 -15.8328 -31.2438 -16.7838 -15.9865 
-23.3196 -16.7838 -15.4758 -15.3954 -16.7838 -14.2092 -7.47119 -16.7838 -12.9114 
0.453004 -16.7838 -11.4674 8.3772 -16.7838 -11.2387 16.3014 -16.7838 -12.8825 
24.2256 -16.7838 -13.6986 32.1498 -16.7838 -14.9609 40.074 -16.7838 -14.9313 
47.9982 -16.7838 -15.9635 55.9224 -16.7838 -12.7884 63.8466 -16.7838 -10.9193 
-55.0164 -8.85963 -12.8382 -47.0922 -8.85963 -15.6423 -39.168 -8.85963 -16.8336 
-31.2438 -1.5999 -17.4158 -31.2438 -8.85963 -16.7828 -23.3196 -8.85963 -15.9735 
-15.3954 -8.85963 -14.4248 -7.47119 -8.85963 -13.6018 0.453004 -8.85963 -12.929 
8.3772 -8.85963 -13.302 16.3014 -8.85963 -11.7563 24.2256 -8.85963 -13.524 
32.1498 -8.85963 -14.6123 40.074 -8.85963 -15.3439 47.9982 -8.85963 -17.0536 
55.9224 -8.85963 -13.959 63.8466 -8.85963 -14.9934 -55.0164 -0.935434 -13.1854 
-47.0922 -0.935434 -15.7754 -32.3968 -0.935434 -17.4158 -39.168 -0.935434 -17.0863 
-30.7403 -0.935434 -17.4158 -23.3196 -0.935434 -16.5082 -15.3954 -0.935434 -14.3184 
-7.47119 -0.935434 -14.8217 8.3772 -0.935434 -15.3803 16.3014 -0.935434 -12.3335 
24.2256 -0.935434 -13.2388 32.1498 -0.935434 -14.9194 40.074 -0.935434 -15.6959 
47.9982 -0.935434 -15.7457 55.9224 -0.935434 -14.3853 63.8466 -0.935434 -15.3778 
-55.0164 6.98876 -12.1708 -47.0922 6.98876 -15.479 -36.0261 6.98876 -17.4158 
-39.168 6.98876 -17.1369 -28.0064 6.98876 -17.4158 -31.2438 13.903 -17.4158 
-23.3196 6.98876 -16.7867 -15.3954 6.98876 -15.4984 -7.47119 6.98876 -16.0016 
0.453004 6.98876 -13.013 8.3772 6.98876 -16.1878 16.3014 6.98876 -14.8344 
24.2256 6.98876 -14.2795 32.1498 6.98876 -15.1522 40.074 6.98876 -15.7988 
47.9982 6.98876 -15.5103 55.9224 6.98876 -14.0168 63.8466 6.98876 -13.4368 
-55.0164 14.913 -10.7639 -47.0922 14.913 -14.719 -39.168 14.913 -16.5483 
-31.2438 14.913 -17.3525 -23.3196 14.913 -17.1877 -15.3954 14.913 -16.1445 
-7.47119 14.913 -14.3613 0.453004 14.913 -13.6342 8.3772 14.913 -15.7344 
16.3014 14.913 -15.8745 24.2256 14.913 -15.1755 32.1498 14.913 -15.0068 
40.074 14.913 -14.8279 47.9982 14.913 -14.6274 55.9224 14.913 -11.9425 
-47.0922 22.8372 -11.8016 -39.168 22.8372 -15.0297 -31.2438 22.8372 -17.0092 
-23.3196 22.8372 -16.7624 -15.3954 22.8372 -15.8817 -7.47119 22.8372 -14.7821 
0.453004 22.8372 -15.2124 8.3772 22.8372 -16.7374 16.3014 22.8372 -16.4612 
24.2256 22.8372 -14.9405 32.1498 22.8372 -13.8908 40.074 22.8372 -13.5933 
47.9982 22.8372 -11.4588 -39.168 30.7614 -12.7534 -31.2438 30.7614 -14.5412 
-23.3196 30.7614 -15.5977 -15.3954 30.7614 -15.1207 -7.47119 30.7614 -14.8043 
0.453004 30.7614 -15.4928 8.3772 30.7614 -16.7472 16.3014 30.7614 -15.6787 
24.2256 30.7614 -13.5443 32.1498 30.7614 -11.5632 40.074 30.7614 -10.366 
-31.2438 38.6856 -11.4045 -23.3196 38.6856 -13.569 -15.3954 38.6856 -13.543 
-7.47119 38.6856 -13.3868 0.453004 38.6856 -14.0826 8.3772 38.6856 -14.5975 
16.3014 38.6856 -13.5541 24.2256 38.6856 -10.048 -15.3954 46.6098 -9.99415 
0.453004 46.6098 -9.7703 8.3772 46.6098 -10.6749 -31.2438 -42.7379 -9.49163 
-23.3196 -43.3517 -9.49163 -23.3196 -48.4806 -1.97428 -15.3954 -44.3553 -9.49163 
-7.47119 -43.2071 -9.49163 32.1498 -41.147 -9.49163 -47.0922 -34.4357 -9.49163 
-47.0922 -40.5564 -2.86446 -36.5042 -40.5564 -9.49163 -39.168 -38.1084 -9.49163 
-39.168 -40.5564 -8.23174 -1.1148 -40.5564 -9.49163 0.453004 -39.4528 -9.49163 
0.453004 -40.5564 -8.80573 8.3772 -37.2818 -9.49163 8.3772 -40.5564 -7.96864 
16.3014 -36.7644 -9.49163 16.3014 -40.5564 -6.57626 28.6669 -40.5564 -9.49163 
24.2256 -39.1962 -9.49163 24.2256 -40.5564 -8.47974 34.5815 -40.5564 -9.49163 
40.074 -38.0625 -9.49163 40.074 -40.5564 -7.67253 47.9982 -36.6064 -9.49163 
47.9982 -40.5564 -4.9295 -49.2062 -32.6322 -9.49163 -55.0164 -25.9996 -9.49163 
-55.0164 -32.6322 -4.7386 54.27 -32.6322 -9.49163 55.9224 -31.1357 -9.49163 
55.9224 -32.6322 -8.38555 -56.0378 -24.708 -9.49163 -62.9406 -24.708 -3.20336 
60.9322 -24.708 -9.49163 63.8466 -19.187 -9.49163 63.8466 -24.708 -6.83847 
-59.855 -16.7838 -9.49163 -62.9406 -16.7838 -6.84022 65.6372 -16.7838 -9.49163 
71.7708 -16.7838 -1.78036 -61.2534 -8.85963 -9.49163 -62.9406 -8.85963 -8.50444 
0.453004 -1.40884 -9.49163 67.462 -8.85963 -9.49163 71.7708 -8.85963 -4.43664 
-62.0194 -0.935434 -9.49163 -62.9406 -0.935434 -8.97715 0.112083 -0.935434 -9.49163 
0.811112 -0.935434 -9.49163 0.453004 -0.455033 -9.49163 0.453004 -0.935434 -9.26657 
67.2284 -0.935434 -9.49163 71.7708 -0.935434 -4.0863 -59.2164 6.98876 -9.49163 
-62.9406 6.98876 -6.6412 66.4833 6.98876 -9.49163 63.8466 11.8943 -9.49163 
71.7708 6.98876 -3.13193 -56.7147 14.913 -9.49163 -62.9406 14.913 -2.27491 
-55.0164 17.9769 -9.49163 60.8357 14.913 -9.49163 55.9224 20.8966 -9.49163 
63.8466 14.913 -7.45797 -51.0039 22.8372 -9.49163 -55.0164 22.8372 -6.50935 
-47.0922 28.7154 -9.49163 53.6011 22.8372 -9.49163 47.9982 26.1291 -9.49163 
55.9224 22.8372 -8.35469 -45.5177 30.7614 -9.49163 -47.0922 30.7614 -8.42801 
-39.168 37.627 -9.49163 32.1498 34.0414 -9.49163 42.1297 30.7614 -9.49163 
40.074 31.8873 -9.49163 47.9982 30.7614 -5.35175 -37.5002 38.6856 -9.49163 
-39.168 38.6856 -8.7846 -31.2438 41.5327 -9.49163 -23.3196 45.3082 -9.49163 
-7.47119 46.2537 -9.49163 16.3014 44.6085 -9.49163 25.4124 38.6856 -9.49163 
24.2256 39.3075 -9.49163 32.1498 38.6856 -4.95255 -31.2438 46.6098 -4.06683 
-18.8039 46.6098 -9.49163 -23.3196 46.6098 -8.20481 -9.59864 46.6098 -9.49163 
-15.3954 47.1514 -9.49163 -3.833 46.6098 -9.49163 -7.47119 46.6098 -9.23777 
0.453004 46.8962 -9.49163 11.8381 46.6098 -9.49163 8.3772 47.7073 -9.49163 
16.3014 46.6098 -5.89168 -23.3196 -48.6453 -1.56743 -47.0922 -41.5197 -1.56743 
-39.168 -45.5303 -1.56743 -24.5252 -48.4806 -1.56743 -31.2438 -47.5328 -1.56743 
-17.1644 -48.4806 -1.56743 -23.3196 -48.4806 -0.924686 -15.3954 -48.4294 -1.56743 
-7.47119 -47.4332 -1.56743 0.453004 -44.9141 -1.56743 8.3772 -43.3081 -1.56743 
16.3014 -43.2496 -1.56743 24.2256 -44.5027 -1.56743 32.1498 -44.4444 -1.56743 
40.074 -44.0523 -1.56743 47.9982 -42.559 -1.56743 -48.7566 -40.5564 -1.56743 
-55.0164 -35.9867 -1.56743 -47.0922 -40.5564 5.47993 0.453004 -40.5564 5.01049 
8.3772 -40.5564 3.03147 16.3014 -40.5564 3.26581 24.2256 -40.5564 4.78814 
32.1498 -40.5564 5.32837 51.6086 -40.5564 -1.56743 47.9982 -40.5564 5.31906 
55.9224 -37.7815 -1.56743 -58.0463 -32.6322 -1.56743 -62.9406 -26.6184 -1.56743 
62.4538 -32.6322 -1.56743 63.8466 -30.9732 -1.56743 -64.5838 -24.708 -1.56743 
68.0661 -24.708 -1.56743 71.7708 -16.9666 -1.56743 -67.6077 -16.7838 -1.56743 
71.8491 -16.7838 -1.56743 71.7708 -16.7838 -1.25236 -68.9712 -8.85963 -1.56743 
-70.8648 -8.85963 5.7465 73.9292 -8.85963 -1.56743 -69.5739 -0.935434 -1.56743 
-70.8648 -0.935434 4.45934 73.8132 -0.935434 -1.56743 71.7708 -0.935434 4.27832 
-67.0433 6.98876 -1.56743 72.9967 6.98876 -1.56743 71.7708 9.28125 -1.56743 
71.7708 6.98876 1.98131 -63.5207 14.913 -1.56743 -62.9406 15.8102 -1.56743 
68.5636 14.913 -1.56743 63.8466 21.2795 -1.56743 -58.8432 22.8372 -1.56743 
-55.0164 28.0038 -1.56743 62.3948 22.8372 -1.56743 55.9224 28.8004 -1.56743 
-52.7358 30.7614 -1.56743 -47.0922 37.2408 -1.56743 40.074 37.1963 -1.56743 
52.8528 30.7614 -1.56743 47.9982 33.4505 -1.56743 -45.6283 38.6856 -1.56743 
-39.168 43.8607 -1.56743 24.2256 44.2597 -1.56743 36.7529 38.6856 -1.56743 
32.1498 40.742 -1.56743 -34.1156 46.6098 -1.56743 -31.2438 47.9372 -1.56743 
-31.2438 46.6098 1.97936 -23.3196 49.9388 -1.56743 -23.3196 46.6098 5.90928 
-15.3954 51.0207 -1.56743 -7.47119 51.8736 -1.56743 0.453004 51.658 -1.56743 
8.3772 50.7807 -1.56743 19.5542 46.6098 -1.56743 16.3014 48.2247 -1.56743 
16.3014 46.6098 3.47521 -39.168 -43.7975 6.35676 -31.2438 -45.0986 6.35676 
-23.3196 -45.6327 6.35676 -15.3954 -43.9285 6.35676 -7.47119 -42.102 6.35676 
40.074 -41.9195 6.35676 -55.0164 -36.2049 6.35676 -46.7603 -40.5564 6.35676 
-47.0922 -40.429 6.35676 -39.168 -40.5564 9.23585 -31.2438 -40.5564 10.4264 
-23.3196 -40.5564 9.93219 -15.3954 -40.5564 8.82851 -3.39438 -40.5564 6.35676 
-7.47119 -40.5564 7.34617 0.453004 -38.831 6.35676 8.3772 -36.9945 6.35676 
16.3014 -37.3504 6.35676 24.2256 -38.6672 6.35676 34.5414 -40.5564 6.35676 
32.1498 -39.4469 6.35676 46.5639 -40.5564 6.35676 40.074 -40.5564 7.69696 
47.9982 -39.7545 6.35676 55.9224 -35.8724 6.35676 -58.5071 -32.6322 6.35676 
-62.9406 -27.8947 6.35676 -55.0164 -32.6322 10.281 -47.0922 -32.6322 13.0798 
-31.2438 -32.6322 14.1319 -23.3196 -32.6322 13.4532 -15.3954 -32.6322 12.0494 
-7.47119 -32.6322 10.7364 0.453004 -32.6322 9.56363 8.3772 -32.6322 9.24386 
16.3014 -32.6322 9.27242 24.2256 -32.6322 9.76746 32.1498 -32.6322 10.2619 
40.074 -32.6322 10.7376 47.9982 -32.6322 10.4662 59.9447 -32.6322 6.35676 
55.9224 -32.6322 9.33228 63.8466 -28.2592 6.35676 -65.2235 -24.708 6.35676 
-62.9406 -24.708 9.81811 -55.0164 -24.708 13.6342 -15.3954 -24.708 13.7148 
-7.47119 -24.708 12.1628 0.453004 -24.708 11.6776 8.3772 -24.708 11.1561 
16.3014 -24.708 11.1813 24.2256 -24.708 11.9926 32.1498 -24.708 13.0864 
[...]
POINT_DATA 622
SCALARS ImageScalars float
LOOKUP_TABLE default
0 0 0 0 0 0 0 0 0 
0 0 0 0 0 0 0 0 0 
0 0 0 0 0 0 0 0 0 
0 0 0 0 0 0 0 0 0 
0 0 0 0 0 0 0 0 0 
0 0 0 0 0 0 0 0 0 
0 0 0 0 0 0 0 0 0 
0 0 0 0 0 0 0 0 0 
0 0 0 0 0 0 0 0 0 
0 0 0 0 0 0 0 0 0 
0 0 0 0 0 0 0 0 0 
0 0 0 0 0 0 0 0 0 
0 0 0 0 0 0 0 0 0 
0 0 0 0 0 0 0 0 0 
0 0 0 0 0 0 0 0 0 
0 0 0 0 0 0 0 0 0 
0 0 0 0 0 0 0 0 0 
0 0 0 0 0 0 0 0 0 
0 0 0 0 0 0 0 0 0 
0 0 0 0 0 0 0 0 0 
0 0 0 0 0 0 0 0 0 
0 0 0 0 0 0 0 0 0 
0 0 0 0 0 0 0 0 0 
0 0 0 0 0 0 0 0 0 
0 0 0 0 0 0 0 0 0 
0 0 0 0 0 0 0 0 0 
0 0 0 0 0 0 0 0 0 
0 0 0 0 0 0 0 0 0 
0 0 0 0 0 0 0 0 0 
0 0 0 0 0 0 0 0 0 
0 0 0 0 0 0 0 0 0 
0 0 0 0 0 0 0 0 0 
0 0 0 0 0 0 0 0 0 
0 0 0 0 0 0 0 0 0 
0 0 0 0 0 0 0 0 0 
0 0 0 0 0 0 0 0 0 
0 0 0 0 0 0 0 0 0 
0 0 0 0 0 0 0 0 0 
0 0 0 0 0 0 0 0 0 
0 0 0 0 0 0 0 0 0 
0 0 0 0 0 0 0 0 0 
0 0 0 0 0 0 0 0 0 
0 0 0 0 0 0 0 0 0 
0 0 0 0 0 0 0 0 0 
0 0 0 0 0 0 0 0 0 
0 0 0 0 0 0 0 0 0 
0 0 0 0 0 0 0 0 0 
0 0 0 0 0 0 0 0 0 
0 0 0 0 0 0 0 0 0 
0 0 0 0 0 0 0 0 0 
0 0 0 0 0 0 0 0 0 
0 0 0 0 0 0 0 0 0 
0 0 0 0 0 0 0 0 0 
0 0 0 0 0 0 0 0 0 
0 0 0 0 0 0 0 0 0 
0 0 0 0 0 0 0 0 0 
0 0 0 0 0 0 0 0 0 
0 0 0 0 0 0 0 0 0 
0 0 0 0 0 0 0 0 0 
0 0 0 0 0 0 0 0 0 
0 0 0 0 0 0 0 0 0 
0 0 0 0 0 0 0 0 0 
0 0 0 0 0 0 0 0 0 
0 0 0 0 0 0 0 0 0 
0 0 0 0 0 0 0 0 0 
0 0 0 0 0 0 0 0 0 
0 0 0 0 0 0 0 0 0 
0 0 0 0 0 0 0 0 0 
0 0 0 0 0 0 0 0 0 
0 
NORMALS Normals float
-0.0328264 0.0680649 0.997141 -0.0204358 -0.00752632 0.999763 0.174686 0.503686 0.846041 
0.0712951 0.429036 0.900469 0.00594831 0.448759 0.893633 -0.178936 0.491922 0.852053 
-0.0196482 0.584146 0.81141 0.308553 0.393146 0.866159 0.193483 0.37865 0.90509 
0.0968128 0.239347 0.966096 0.0317783 0.180585 0.983046 0.00428422 0.118655 0.992926 
-0.126557 0.113513 0.985443 -0.203289 0.171051 0.964062 -0.0515034 0.16231 0.985395 
0.11209 0.315819 0.942175 0.119534 0.309146 0.943473 0.00568318 0.308595 0.951177 
-0.0831334 0.402056 0.911833 -0.14925 0.340749 0.928232 0.45339 0.401116 0.795955 
0.221597 0.26804 0.937576 0.135063 0.218849 0.966366 0.0249391 0.161375 0.986578 
-0.0338992 0.111229 0.993216 -0.060886 0.00868877 0.998107 -0.124446 -0.046168 0.991152 
-0.163023 -0.0338198 0.986042 0.024515 0.0488067 0.998507 0.161289 0.109517 0.980812 
0.0719262 0.101445 0.992238 0.132897 0.104208 0.985636 -0.0338531 0.164652 0.985771 
-0.267379 0.26971 0.925076 -0.281273 0.182974 0.942022 0.399234 0.106434 0.91065 
0.223916 0.181586 0.957543 0.0548409 0.152004 0.986857 -0.0227391 0.11229 0.993415 
-0.110899 0.0693645 0.991408 -0.155338 -0.00056802 0.987861 -0.170441 -0.0218638 0.985125 
-0.104074 0.0194627 0.994379 0.0900626 0.0913529 0.991738 0.157198 -0.0712024 0.984997 
0.135404 -0.0220139 0.990546 0.0748689 0.0356406 0.996556 0.056086 -0.0492248 0.997212 
-0.129684 0.233288 0.963721 -0.238283 0.124163 0.963226 -0.441778 0.383082 0.811222 
0.385622 0.0459505 0.921512 0.22229 0.0400696 0.974157 0.0782546 0.0780628 0.993872 
-0.0346627 0.0702084 0.99693 -0.0536856 0.0919577 0.994315 -0.146781 0.0626856 0.987181 
-0.145345 0.00695787 0.989357 -0.0949106 0.108918 0.989509 -0.0237157 -0.0434453 0.998774 
-0.0900847 0.257261 0.962134 0.0404168 -0.0423886 0.998283 0.181743 -0.0292341 0.982911 
0.114453 -0.00417807 0.99342 0.14376 0.0476679 0.988464 -0.0681782 -0.0199082 0.997474 
-0.155174 0.0996076 0.982853 -0.359809 0.155675 0.919947 0.352831 -0.0377948 0.934923 
0.229662 -0.0100906 0.973218 -0.0125283 0.060612 0.998083 0.102561 0.0185169 0.994554 
-0.0434255 0.0670744 0.996803 -0.197409 0.0515821 0.978963 -0.109088 0.0675053 0.991737 
-0.210791 0.186552 0.959565 0.0557352 0.171119 0.983673 -0.0844802 0.207935 0.974488 
0.155555 0.0481754 0.986652 0.153084 0.0336878 0.987639 0.0516944 0.028586 0.998254 
-0.0766819 -0.0914765 0.99285 -0.0578425 0.00379536 0.998318 -0.380658 -0.05744 0.92293 
0.461901 -0.144237 0.875125 0.28105 -0.0561385 0.95805 0.0828644 -0.0212175 0.996335 
0.149072 -0.0312848 0.988331 -0.072019 0.0117128 0.997334 0.0300163 -0.0458799 0.998496 
-0.146619 0.0423475 0.988286 -0.0531588 0.115559 0.991877 -0.138607 -0.0458296 0.989287 
-0.00592956 0.198748 0.980033 0.0976694 0.00802857 0.995187 -0.112472 0.205966 0.972074 
0.0228265 0.121207 0.992365 0.0947177 0.00539157 0.99549 0.0204898 -0.0542485 0.998317 
-0.0988199 -0.0611643 0.993224 -0.132311 -0.148319 0.980049 -0.467974 -0.30261 0.830318 
0.516162 -0.238699 0.822557 0.346353 -0.198006 0.91697 0.150041 -0.139327 0.978813 
0.037753 -0.0516735 0.99795 -0.0738821 -0.00151792 0.997266 -0.175668 0.0227096 0.984187 
-0.155517 -0.0683849 0.985463 0.085006 0.136815 0.986943 0.137776 0.0374948 0.989753 
-0.036378 0.0996042 0.994362 -0.0524057 0.0415287 0.997762 -0.0215735 -0.0760949 0.996867 
-0.022677 -0.124282 0.991988 -0.177678 -0.255513 0.950339 -0.335738 -0.269009 0.902726 
0.43884 -0.335864 0.833436 0.276348 -0.202088 0.93957 0.10978 -0.165815 0.980027 
-0.0700541 -0.0963731 0.992877 -0.124301 -0.0672917 0.98996 -0.0418597 0.0271178 0.998755 
0.121215 0.114541 0.985996 0.0801067 0.0621472 0.994847 -0.110697 -0.0141544 0.993753 
-0.159034 -0.0977541 0.982422 -0.0816621 -0.192316 0.977929 -0.143295 -0.288749 0.946621 
-0.232351 -0.409313 0.882313 0.349059 -0.381885 0.855758 0.154079 -0.304094 0.940099 
0.0316191 -0.180508 0.983065 -0.0466113 -0.147464 0.987968 0.0215493 -0.0834563 0.996278 
0.117681 -0.0661064 0.990849 0.0114097 -0.126354 0.99192 -0.188283 -0.169855 0.967315 
-0.246184 -0.263644 0.932676 -0.204804 -0.419032 0.884572 -0.25199 -0.531155 0.808935 
0.263703 -0.455983 0.850023 0.109695 -0.407598 0.906549 -0.0105913 -0.316167 0.948644 
0.0312979 -0.295381 0.954867 0.0726827 -0.29506 0.95271 -0.0309656 -0.34562 0.937864 
-0.234037 -0.419649 0.876996 -0.399082 -0.568142 0.719686 0.0334906 -0.671578 0.740176 
0.0783729 -0.667689 0.740303 -0.101314 -0.697343 0.709541 0.137423 0.622845 0.770181 
0.0828697 0.606096 0.791063 0.0599054 0.993731 0.0943944 -0.00743333 0.676447 0.736454 
-0.203429 0.644679 0.73689 -0.0230864 0.622636 0.782171 0.31738 0.460915 0.82875 
0.470815 0.82049 0.324238 0.305342 0.445817 0.841436 0.323517 0.385027 0.864344 
0.401147 0.471826 0.78515 -0.179066 0.585681 0.790514 -0.178397 0.541495 0.821558 
-0.187156 0.650223 0.736331 -0.0685298 0.425812 0.902213 -0.0922506 0.726849 0.680574 
0.0603353 0.490418 0.869397 0.035113 0.822726 0.567353 0.0423158 0.602244 0.79719 
0.122745 0.564082 0.816544 0.12858 0.677707 0.724003 -0.0894133 0.606861 0.789762 
-0.165127 0.562895 0.809866 -0.222579 0.753537 0.61858 -0.188112 0.550306 0.813497 
-0.317562 0.863937 0.390854 0.361585 0.410734 0.836991 0.470614 0.42253 0.77459 
0.637251 0.568584 0.520215 -0.339607 0.482197 0.80756 -0.373546 0.450739 0.810739 
-0.428797 0.560914 0.708172 0.486258 0.405718 0.773916 0.741505 0.461436 0.48708 
-0.46207 0.233833 0.855461 -0.473544 0.319856 0.820639 -0.672222 0.367839 0.642505 
0.528176 0.203847 0.824304 0.670364 0.271843 0.690445 -0.515629 0.291499 0.805702 
-0.944117 0.321504 0.0726548 0.516393 0.0894343 0.851669 0.58183 0.121857 0.80413 
-0.0230899 -0.014976 0.999621 -0.711015 0.0444666 0.701769 -0.894704 0.0482025 0.444051 
0.503657 -0.084612 0.85975 0.540603 -0.0949188 0.835906 -0.0391664 0.00459918 0.999222 
-0.00798645 0.00733961 0.999941 -0.0201018 0.0190033 0.999617 -0.00406612 -0.00636911 0.999971 
-0.706311 -0.0585872 0.705473 -0.92746 -0.0630868 0.368563 0.561067 -0.206015 0.801724 
0.691619 -0.322811 0.646109 -0.684807 -0.234049 0.690116 -0.59285 -0.32834 0.735338 
-0.91214 -0.270807 0.307675 0.559811 -0.259993 0.786775 0.795061 -0.441445 0.415937 
0.535001 -0.346646 0.770461 -0.492401 -0.328123 0.80615 -0.326759 -0.504187 0.79939 
-0.665236 -0.429392 0.610805 0.515533 -0.410368 0.752213 0.629834 -0.543722 0.554685 
0.52671 -0.403064 0.748409 -0.285744 -0.529722 0.798589 -0.328717 -0.495304 0.804126 
-0.369737 -0.612594 0.698587 0.505823 -0.425708 0.750277 0.569792 -0.458878 0.681739 
0.408269 -0.520286 0.750079 -0.276801 -0.531345 0.800658 -0.308129 -0.553649 0.773646 
-0.264816 -0.577234 0.772446 -0.469556 -0.753249 0.46058 0.38137 -0.53176 0.756167 
0.435734 -0.564752 0.70085 0.302066 -0.568278 0.765387 0.200381 -0.648905 0.734009 
-0.017239 -0.610883 0.791533 -0.354506 -0.694695 0.625879 -0.398792 -0.587068 0.704497 
-0.40737 -0.593344 0.694257 -0.416753 -0.791919 0.446297 0.396299 -0.886371 0.23936 
0.103684 -0.6873 0.718935 0.210377 -0.754259 0.62196 -0.00499143 -0.641006 0.767519 
0.0361538 -0.703303 0.70997 0.0259632 -0.646911 0.762124 -0.0163225 -0.639382 0.768716 
0.075156 -0.681115 0.728309 -0.228143 -0.750691 0.620011 -0.111644 -0.769093 0.629311 
-0.395499 -0.860426 0.321323 0.0539369 0.995991 0.0713575 0.479204 0.84435 0.239657 
0.348905 0.931344 0.104228 0.0757288 0.993782 0.0816285 0.202532 0.970854 0.128153 
-0.0451716 0.998979 -0.000274795 0.0507633 0.998326 0.0277211 -0.075187 0.996917 -0.0224338 
-0.217946 0.975258 -0.0370408 -0.267285 0.962742 -0.041076 -0.110449 0.992528 -0.0518558 
0.083239 0.996395 0.016366 0.0830156 0.996462 0.0131087 -0.0298017 0.997692 -0.0610077 
-0.1228 0.98977 0.0726327 -0.363482 0.925164 0.109326 0.50631 0.828037 0.240843 
0.650909 0.702801 0.287034 0.379335 0.882986 -0.27648 -0.211897 0.68855 -0.693541 
-0.0864534 0.877682 -0.471381 0.0859117 0.883904 -0.45971 0.0890933 0.768811 -0.633239 
0.142925 0.768256 -0.623983 -0.464143 0.882972 0.0702296 -0.370287 0.7343 -0.568938 
-0.565622 0.82241 0.0609473 0.707086 0.634859 0.311421 0.75772 0.53211 0.377783 
-0.739017 0.673399 0.019688 -0.769926 0.637203 0.0344329 0.794518 0.467917 0.387034 
-0.82877 0.539101 0.150034 -0.942207 0.330319 0.0560001 0.89282 0.249439 0.375037 
-0.943905 0.3254 0.0561964 -0.944537 0.32685 0.0319406 0.926887 0.11982 0.355702 
0.980573 0.124574 -0.15152 -0.966512 0.134014 0.218848 0.939309 -0.115301 0.323118 
0.988647 -0.135745 -0.0644245 -0.980968 -0.0578312 0.185358 -0.904954 -0.102568 -0.412964 
0.869421 -0.335393 0.362793 -0.932247 -0.30694 0.191583 -0.916495 -0.363636 0.166752 
-0.937192 -0.307154 -0.16531 0.807712 -0.448642 0.382521 0.803203 -0.465916 0.371196 
-0.848082 -0.524218 0.077152 -0.717593 -0.690883 0.0879788 0.778974 -0.568538 0.264507 
0.744688 -0.602532 0.287045 -0.694431 -0.71214 0.103064 -0.588933 -0.778505 0.216998 
0.742004 -0.614908 0.267055 0.688005 -0.68755 0.232214 -0.394356 -0.881166 0.260827 
-0.52509 -0.819541 0.229418 -0.462461 -0.862484 0.205549 0.665246 -0.714918 0.215268 
0.538022 -0.82587 0.168733 -0.442004 -0.886794 0.135015 -0.406845 -0.879284 0.247664 
-0.421211 -0.881876 0.21184 0.425166 -0.897572 0.116615 0.360171 -0.93087 0.0612995 
0.308834 -0.93266 -0.186458 0.195057 -0.9784 0.0684527 0.170372 -0.784859 -0.595793 
0.127163 -0.990103 0.059372 0.0415512 -0.995795 0.0816471 -0.069801 -0.994345 0.0800378 
-0.207812 -0.977675 0.0310703 -0.404288 -0.912762 0.0584544 -0.374956 -0.926356 0.035673 
-0.339745 -0.876781 -0.340336 0.253594 0.807139 -0.53312 0.0886535 0.82931 -0.551711 
-0.0431296 0.766407 -0.640906 -0.150241 0.691022 -0.707047 -0.1984 0.581863 -0.788716 
-0.00124491 0.800812 -0.598915 0.602642 0.742081 -0.293493 0.351955 0.864905 -0.357864 
0.354723 0.866988 -0.350005 0.182809 0.680363 -0.709709 0.0335103 0.584307 -0.810841 
-0.0957495 0.536495 -0.838454 -0.162087 0.51328 -0.842776 -0.191864 0.565631 -0.802028 
-0.192915 0.512914 -0.836483 -0.176609 0.558921 -0.810195 -0.0517841 0.610955 -0.78997 
0.0644466 0.620394 -0.781638 0.0803587 0.616486 -0.783254 0.118994 0.722446 -0.681111 
0.156244 0.680247 -0.716136 -0.288743 0.695159 -0.658317 -0.0114604 0.688453 -0.725191 
-0.336299 0.666 -0.665843 -0.414126 0.700939 -0.580675 0.678503 0.679477 -0.279184 
0.773029 0.586107 -0.242703 0.538175 0.569215 -0.62158 0.206248 0.453846 -0.866883 
-0.0826539 0.348683 -0.933589 -0.126083 0.311811 -0.941741 -0.169781 0.279843 -0.944914 
-0.146806 0.280787 -0.948476 -0.0921166 0.363508 -0.927026 -0.0192231 0.38723 -0.921783 
0.0334427 0.385103 -0.922267 0.0601915 0.370652 -0.926819 0.0630856 0.401034 -0.913888 
0.0161229 0.370365 -0.928747 -0.113326 0.538392 -0.83504 -0.556622 0.602453 -0.572034 
-0.399924 0.59484 -0.697299 -0.64543 0.481499 -0.592941 0.828943 0.497295 -0.256029 
0.68715 0.507898 -0.519485 0.332605 0.290533 -0.897198 -0.187484 0.0988928 -0.977277 
-0.126815 0.0969498 -0.987177 -0.0662451 0.203946 -0.976738 -0.0330915 0.150994 -0.987981 
0.0538687 0.147001 -0.987668 0.124998 0.207165 -0.970288 0.113171 0.257694 -0.959576 
-0.00965165 0.31017 -0.950632 -0.0697692 0.267653 -0.960986 -0.282387 0.24569 -0.927305 
-0.751369 0.426356 -0.503651 -0.520071 0.401921 -0.753648 0.910112 0.342241 -0.233596 
0.970806 0.144174 -0.191704 -0.216529 -0.0461375 -0.975186 -0.062721 -0.00274278 -0.998027 
-0.0219916 0.0958886 -0.995149 -0.0693925 0.100927 -0.992471 0.0916133 0.0876406 -0.99193 
0.190338 0.144718 -0.970993 -0.234767 0.0780944 -0.968909 -0.738091 0.220555 -0.637634 
-0.644742 0.270443 -0.714961 -0.794706 0.102178 -0.598332 0.974109 0.12356 -0.189328 
0.970896 0.125829 -0.203782 0.578253 -0.0328676 -0.815195 -0.183 -0.0404618 -0.98228 
0.00441436 0.255893 -0.966695 0.0454513 -0.161623 -0.985805 -0.0417946 0.251592 -0.966931 
0.109081 0.159809 -0.981103 -0.429934 0.0926717 -0.898092 -0.805354 0.0763147 -0.587862 
-0.799608 0.0228292 -0.600088 -0.791465 0.0768225 -0.606367 0.975311 -0.138694 -0.17185 
0.970012 -0.170319 -0.173402 0.967154 -0.139886 -0.212238 0.532902 -0.0794748 -0.842437 
0.0687205 0.0630575 -0.995641 0.0209969 0.0179225 -0.999619 -0.0134075 0.148591 -0.988808 
-0.778635 -0.101722 -0.619177 -0.486358 -0.0414194 -0.872777 0.90538 -0.345648 -0.246606 
0.667491 -0.187259 -0.720687 -0.125367 0.0625407 -0.990137 0.00422108 -0.309973 -0.950736 
0.0812018 0.190375 -0.978347 -0.179924 -0.135119 -0.974356 -0.753802 -0.260605 -0.603215 
-0.514398 -0.218768 -0.829177 0.840777 -0.512752 -0.173722 0.81334 -0.552105 -0.18346 
0.749621 -0.45041 -0.484973 -0.2326 -0.00348799 -0.972566 -0.0368292 -0.0391832 -0.998553 
0.210717 -0.0218037 -0.977304 -0.439101 -0.176117 -0.881007 -0.745356 -0.327453 -0.580705 
-0.74442 -0.36649 -0.558143 -0.735863 -0.328228 -0.592261 0.736448 -0.603556 -0.305555 
0.684076 -0.651775 -0.327459 0.572128 -0.515209 -0.638145 -0.137994 -0.0542986 -0.988944 
-0.0157324 0.0779245 -0.996835 0.148097 0.000382302 -0.988973 -0.267481 -0.324544 -0.907262 
-0.683308 -0.553699 -0.475927 -0.569781 -0.6928 -0.442016 -0.491261 -0.473951 -0.730776 
0.654526 -0.656869 -0.374325 0.587941 -0.686907 -0.427182 0.448769 -0.531096 -0.71871 
0.234171 -0.445518 -0.864105 0.0137474 -0.303934 -0.952594 -0.0516246 -0.221783 -0.973729 
-0.0426706 -0.103152 -0.99375 0.0203613 -0.0454879 -0.998757 0.0873976 -0.101471 -0.990992 
-0.364428 -0.877331 -0.312222 -0.242727 -0.518677 -0.819791 -0.554914 -0.756488 -0.346117 
-0.519413 -0.796562 -0.309354 -0.477469 -0.685291 -0.549909 0.536754 -0.682801 -0.495658 
0.430127 -0.696758 -0.574037 0.372839 -0.591772 -0.714701 0.190186 -0.799875 -0.569235 
0.157418 -0.479188 -0.86348 0.157457 -0.749506 -0.642999 0.0627261 -0.407266 -0.911153 
0.056231 -0.293534 -0.954294 -0.00683181 -0.318384 -0.947937 0.0212737 -0.316433 -0.948376 
0.0399073 -0.377904 -0.924984 -0.268484 -0.77177 -0.576444 -0.0826303 -0.497286 -0.863643 
-0.289243 -0.852639 -0.435139 -0.213909 -0.641597 -0.736611 -0.336941 -0.878439 -0.338846 
-0.321651 -0.864012 -0.387329 -0.2868 -0.8227 -0.490827 0.147822 -0.75642 -0.637164 
0.0981615 -0.756169 -0.646972 0.0734853 -0.719885 -0.690192 0.0551759 -0.675247 -0.735525 
0.0331595 -0.613414 -0.789065 -0.022238 -0.725935 -0.687404 -7.42311e-05 -0.641851 -0.76683 
-0.222244 -0.769719 -0.598448 -0.159498 -0.76596 -0.622788 -0.141663 -0.718199 -0.681265 
0.0638063 0.449834 -0.89083 0.11193 0.422309 -0.899515 0.181139 0.373178 -0.909905 
-0.05773 0.361038 -0.930762 0.0618866 0.417489 -0.906572 -0.082908 0.335839 -0.938263 
-0.143286 0.216547 -0.9657 0.505232 0.139953 -0.85156 0.28831 0.272548 -0.91793 
0.280775 0.288738 -0.915312 0.146481 0.238438 -0.960047 -0.0319476 0.173271 -0.984356 
-0.0699533 0.155093 -0.98542 -0.174183 0.112436 -0.978273 -0.163113 0.132735 -0.977638 
0.119927 0.197211 -0.972998 0.0045472 0.268816 -0.963181 -0.100407 0.211666 -0.972171 
0.520912 0.107409 -0.846826 0.516782 0.0584339 -0.854121 0.496603 0.103081 -0.861835 
0.188928 0.346762 -0.918729 0.0837549 0.0656448 -0.994322 -0.0206984 0.104811 -0.994277 
-0.141767 0.027719 -0.989512 -0.204368 -0.0334332 -0.978323 -0.181549 -0.000190182 -0.983382 
0.143908 0.164087 -0.975892 0.201134 0.130497 -0.970832 0.121197 0.174985 -0.977083 
0.0379582 0.142073 -0.989128 -0.175221 0.129466 -0.97598 -0.139367 0.188935 -0.97205 
-0.13411 0.0987342 -0.986036 0.520616 -0.0217044 -0.853515 0.278913 0.0244218 -0.960006 
-0.0955837 0.0884635 -0.991483 -0.0776563 -0.00425607 -0.996971 -0.169499 0.0361662 -0.984867 
-0.219238 -0.0306785 -0.975189 -0.244991 -0.0272884 -0.969141 -0.0714848 0.239209 -0.968333 
0.0853956 0.192615 -0.977552 0.199427 0.13053 -0.97118 0.201415 0.130126 -0.970824 
0.122686 0.091059 -0.988259 0.00594451 0.100321 -0.994937 -0.114258 0.0318843 -0.992939 
-0.160363 0.0991136 -0.982069 -0.132336 0.0999606 -0.986152 0.483101 -0.0743123 -0.872405 
0.216194 -0.0604297 -0.974479 0.0102636 -0.0244625 -0.999648 -0.0718644 0.00109774 -0.997414 
-0.170122 0.0267197 -0.985061 -0.11095 0.0533339 -0.992394 -0.248948 0.0411157 -0.967644 
0.0103156 0.0875006 -0.996111 -0.154408 0.111808 -0.98166 -0.0180618 -0.261967 -0.964908 
-0.172149 0.087758 -0.981154 0.149095 0.116763 -0.981905 0.0134622 0.144822 -0.989366 
0.190597 0.113175 -0.975123 0.00975727 0.139708 -0.990145 0.00341083 0.141853 -0.989882 
0.139618 0.0982618 -0.985318 0.0896474 0.0522893 -0.9946 -0.0192092 0.0300335 -0.999364 
-0.138586 0.00051879 -0.99035 -0.222705 -0.0138571 -0.974787 -0.178814 -0.0844253 -0.980254 
-0.184357 -0.00941181 -0.982814 0.518902 -0.182014 -0.835232 0.352962 -0.193467 -0.915417 
-0.0205971 -0.127141 -0.991671 -0.025983 -0.0087012 -0.999624 -0.133276 -0.0274228 -0.990699 
-0.142337 0.0520868 -0.988447 -0.214548 0.015002 -0.976598 0.0713678 0.121261 -0.990052 
0.0546312 -0.0300053 -0.998056 0.0634418 0.125066 -0.990118 0.10309 0.087811 -0.990788 
0.0553808 0.0292765 -0.998036 -0.0460885 -0.00399612 -0.998929 -0.174404 -0.123558 -0.976891 
-0.150408 0.0152475 -0.988506 0.275364 -0.403873 -0.872388 0.274576 -0.404308 -0.872435 
0.273928 -0.404389 -0.872602 0.181914 -0.163684 -0.969595 0.0268848 -0.146266 -0.98888 
-0.14047 -0.0803012 -0.986823 -0.223191 -0.00872992 -0.974736 -0.167418 -0.0385684 -0.985131 
0.18342 -0.00731587 -0.983007 0.157345 0.0183175 -0.987374 0.102301 0.0709233 -0.992222 
0.0464677 0.0427396 -0.998005 -0.0018181 0.0213323 -0.999771 -0.0415245 -0.0965293 -0.994464 
-0.331088 -0.138932 -0.933316 -0.239801 -0.246916 -0.938897 -0.238718 -0.123857 -0.963158 
0.311801 -0.379842 -0.870919 0.298254 -0.384479 -0.873625 0.288715 -0.373806 -0.881426 
0.169024 -0.367465 -0.914549 0.0735564 -0.24619 -0.966426 0.00616671 -0.286244 -0.958137 
-0.0274134 -0.17236 -0.984653 -0.137287 -0.0742507 -0.987745 -0.0835016 -0.175327 -0.980963 
-0.137274 -0.107747 -0.984655 0.152567 -0.0195742 -0.988099 0.156189 -0.0377056 -0.987007 
0.0864163 -0.0686959 -0.993888 0.0527842 -0.0882672 -0.994697 -0.0853923 -0.119986 -0.989096 
-0.217714 -0.259046 -0.941008 -0.199551 -0.311384 -0.929096 -0.195212 -0.215064 -0.956891 
0.0899962 -0.153351 -0.984065 0.0891363 -0.183661 -0.97894 0.0910877 -0.165028 -0.982074 
0.00713808 -0.282949 -0.959108 0.0444765 -0.193058 -0.980179 -0.0335096 -0.368095 -0.929184 
0.0110667 -0.318808 -0.947755 -0.162067 -0.428595 -0.888842 -0.148807 -0.467348 -0.87146 
-0.134358 -0.405639 -0.904104 
