# vtk DataFile Version 4.2
vtk output
ASCII
DATASET POLYDATA
POINTS 548 float
-19.82 -34.2191 -14.9887 -11.6057 -34.2191 -16.0382 -3.39143 -34.2191 -15.7898 
4.82287 -34.2191 -15.9941 13.0372 -34.2191 -16.1869 21.2514 -34.2191 -14.3973 
-44.4629 -26.0048 -15.2971 -36.2486 -26.0048 -17.0924 -28.0343 -26.0048 -17.6895 
-19.82 -26.0048 -18.3782 -11.6057 -26.0048 -18.9462 -3.39143 -26.0048 -18.4212 
4.82287 -26.0048 -18.6444 13.0372 -26.0048 -19.2662 21.2514 -26.0048 -17.8664 
29.4657 -26.0048 -16.5347 37.68 -26.0048 -15.1873 -52.6772 -17.7905 -15.9613 
-44.4629 -17.7905 -18.5692 -36.2486 -17.7905 -19.0884 -28.0343 -17.7905 -19.1067 
-19.82 -17.7905 -18.9105 -11.6057 -17.7905 -19.2819 -3.39143 -17.7905 -18.8543 
4.82287 -17.7905 -19.3874 13.0372 -17.7905 -20.0118 21.2514 -17.7905 -19.062 
29.4657 -17.7905 -18.8906 37.68 -17.7905 -18.1378 45.8943 -17.7905 -16.5668 
54.1086 -17.7905 -14.0914 -52.6772 -9.5762 -17.6789 -44.4629 -9.5762 -19.6942 
-36.2486 -9.5762 -20.4598 -28.0343 -9.5762 -19.4221 -19.82 -9.5762 -18.5035 
-11.6057 -9.5762 -20.0086 -3.39143 -9.5762 -19.2637 4.82287 -9.5762 -19.8056 
13.0372 -9.5762 -19.5202 21.2514 -9.5762 -18.6429 29.4657 -9.5762 -19.2736 
37.68 -9.5762 -19.7739 45.8943 -9.5762 -19.199 54.1086 -9.5762 -16.9937 
62.3229 -9.5762 -13.896 -60.8915 -1.36191 -15.2994 -52.6772 -1.36191 -18.7085 
-44.4629 -1.36191 -19.9433 -36.2486 -1.36191 -20.5425 -28.0343 -1.36191 -19.1536 
-19.82 -1.36191 -17.602 -11.6057 -1.36191 -21.4248 -3.39143 -1.36191 -18.6533 
4.82287 -1.36191 -19.7382 13.0372 -1.36191 -19.4436 21.2514 -1.36191 -18.3859 
29.4657 -1.36191 -19.9638 37.68 -1.36191 -20.6597 45.8943 -1.36191 -19.9629 
54.1086 -1.36191 -18.0148 -60.8915 6.85238 -14.7889 -52.6772 6.85238 -18.4091 
-44.4629 6.85238 -19.9995 -36.2486 6.85238 -20.5515 -28.0343 6.85238 -19.5775 
-19.82 6.85238 -18.0486 -11.6057 6.85238 -19.31 -3.39143 6.85238 -19.1515 
4.82287 6.85238 -20.9614 13.0372 6.85238 -18.8164 21.2514 6.85238 -18.5731 
29.4657 6.85238 -20.1686 37.68 6.85238 -20.8637 45.8943 6.85238 -20.0493 
54.1086 6.85238 -18.3447 -52.6772 15.0667 -17.9939 -44.4629 15.0667 -20.6084 
-36.2486 15.0667 -20.5104 -28.0343 15.0667 -20.0797 -19.82 15.0667 -19.3855 
-11.6057 15.0667 -18.8467 -3.39143 15.0667 -18.917 4.82287 15.0667 -19.1302 
13.0372 15.0667 -17.9588 21.2514 15.0667 -18.677 29.4657 15.0667 -19.8944 
37.68 15.0667 -20.2386 45.8943 15.0667 -19.8358 54.1086 15.0667 -16.3571 
-52.6772 23.281 -15.755 -44.4629 23.281 -18.2378 -36.2486 23.281 -19.3799 
-28.0343 23.281 -20.6418 -19.82 23.281 -19.8949 -11.6057 23.281 -19.4632 
-3.39143 23.281 -19.8162 4.82287 23.281 -19.7168 13.0372 23.281 -18.6394 
21.2514 23.281 -18.7481 29.4657 23.281 -19.364 37.68 23.281 -19.9895 
45.8943 23.281 -16.9695 -44.4629 31.4953 -13.9378 -36.2486 31.4953 -16.8449 
-28.0343 31.4953 -18.254 -19.82 31.4953 -19.1235 -11.6057 31.4953 -19.3843 
-3.39143 31.4953 -19.6117 4.82287 31.4953 -19.4633 13.0372 31.4953 -18.8172 
21.2514 31.4953 -17.7203 29.4657 31.4953 -17.5364 37.68 31.4953 -15.9739 
-19.82 39.7095 -15.1746 -11.6057 39.7095 -16.3422 -3.39143 39.7095 -17.2447 
4.82287 39.7095 -17.1902 13.0372 39.7095 -15.8269 21.2514 39.7095 -14.5766 
-19.82 -35.6402 -13.7315 -11.6057 -36.9189 -13.7315 -3.39143 -36.7445 -13.7315 
4.82287 -37.0778 -13.7315 13.0372 -37.248 -13.7315 21.2514 -35.016 -13.7315 
-44.4629 -28.3708 -13.7315 -36.2486 -30.8601 -13.7315 -36.2486 -34.2191 -10.1612 
-26.6182 -34.2191 -13.7315 -28.0343 -33.7535 -13.7315 -28.0343 -34.2191 -13.2943 
23.1943 -34.2191 -13.7315 29.4657 -30.96 -13.7315 29.4657 -34.2191 -10.724 
37.68 -28.1256 -13.7315 37.68 -34.2191 -6.55587 -47.9261 -26.0048 -13.7315 
-52.6772 -21.9921 -13.7315 -52.6772 -26.0048 -10.3398 43.3166 -26.0048 -13.7315 
45.8943 -24.3862 -13.7315 45.8943 -26.0048 -12.7309 54.1086 -18.4278 -13.7315 
54.1086 -26.0048 -7.83581 -57.6668 -17.7905 -13.7315 -60.8915 -17.7905 -11.1305 
54.8397 -17.7905 -13.7315 62.3229 -10.0137 -13.7315 62.3229 -17.7905 -8.77256 
-60.8277 -9.5762 -13.7315 -60.8915 -9.38394 -13.7315 -60.8915 -9.5762 -13.6909 
62.535 -9.5762 -13.7315 62.3229 -4.65041 -13.7315 -62.9414 -1.36191 -13.7315 
-69.1058 -1.36191 -6.23883 62.1259 -1.36191 -13.7315 62.3229 -1.36191 -13.5838 
-62.2233 6.85238 -13.7315 -60.8915 12.094 -13.7315 61.9944 6.85238 -13.7315 
62.3229 6.85238 -13.4529 -60.1223 15.0667 -13.7315 -60.8915 15.0667 -13.0303 
58.6124 15.0667 -13.7315 54.1086 21.4853 -13.7315 62.3229 15.0667 -10.1286 
-55.1711 23.281 -13.7315 -60.8915 23.281 -6.29295 -52.6772 25.7015 -13.7315 
52.5954 23.281 -13.7315 45.8943 28.8635 -13.7315 54.1086 23.281 -12.5375 
-44.886 31.4953 -13.7315 -44.4629 31.7389 -13.7315 -36.2486 35.3611 -13.7315 
-28.0343 39.1978 -13.7315 29.4657 36.7826 -13.7315 42.6297 31.4953 -13.7315 
37.68 34.1476 -13.7315 45.8943 31.4953 -10.7338 -26.2042 39.7095 -13.7315 
-28.0343 39.7095 -12.8464 -19.82 41.0739 -13.7315 -11.6057 42.765 -13.7315 
-3.39143 43.9399 -13.7315 4.82287 43.8637 -13.7315 13.0372 42.2366 -13.7315 
23.7558 39.7095 -13.7315 21.2514 40.6088 -13.7315 29.4657 39.7095 -8.93063 
-36.2486 -36.6951 -5.51719 -28.0343 -38.676 -5.51719 -19.82 -40.1472 -5.51719 
-11.6057 -41.1648 -5.51719 -3.39143 -41.6175 -5.51719 4.82287 -42.1479 -5.51719 
13.0372 -42.2118 -5.51719 21.2514 -40.703 -5.51719 29.4657 -37.8607 -5.51719 
37.68 -34.8675 -5.51719 -52.6772 -29.6875 -5.51719 -43.3813 -34.2191 -5.51719 
-44.4629 -33.8129 -5.51719 -44.4629 -34.2191 0.288292 39.8876 -34.2191 -5.51719 
45.8943 -32.12 -5.51719 54.1086 -27.6696 -5.51719 -58.1126 -26.0048 -5.51719 
-60.8915 -23.2748 -5.51719 56.6134 -26.0048 -5.51719 62.3229 -20.9665 -5.51719 
-64.3595 -17.7905 -5.51719 64.8292 -17.7905 -5.51719 -67.8611 -9.5762 -5.51719 
-69.1058 -3.42789 -5.51719 69.0153 -9.5762 -5.51719 70.5372 -9.5762 -0.722295 
-69.4675 -1.36191 -5.51719 -69.1058 4.14519 -5.51719 69.6299 -1.36191 -5.51719 
70.5372 -1.36191 -2.08725 -68.9011 6.85238 -5.51719 69.1131 6.85238 -5.51719 
70.5372 6.85238 0.79064 -66.8435 15.0667 -5.51719 65.251 15.0667 -5.51719 
62.3229 20.2787 -5.51719 -61.255 23.281 -5.51719 -60.8915 23.6993 -5.51719 
-60.8915 23.281 -2.39059 -52.6772 30.554 -5.51719 60.1075 23.281 -5.51719 
54.1086 28.965 -5.51719 -51.1076 31.4953 -5.51719 -44.4629 35.1011 -5.51719 
-36.2486 39.2747 -5.51719 37.68 38.0579 -5.51719 50.6689 31.4953 -5.51719 
45.8943 34.2481 -5.51719 -35.1601 39.7095 -5.51719 -28.0343 42.3175 -5.51719 
-28.0343 39.7095 0.644589 -19.82 44.533 -5.51719 -11.6057 45.6853 -5.51719 
-3.39143 46.3329 -5.51719 4.82287 46.46 -5.51719 13.0372 45.5061 -5.51719 
21.2514 43.5735 -5.51719 21.2514 39.7095 2.23409 33.0194 39.7095 -5.51719 
29.4657 40.9519 -5.51719 29.4657 39.7095 -2.57093 -44.4629 -34.387 2.6971 
-36.2486 -37.3054 2.6971 -28.0343 -38.7921 2.6971 -19.82 -40.0124 2.6971 
-11.6057 -40.9331 2.6971 -3.39143 -41.4904 2.6971 4.82287 -42.0742 2.6971 
13.0372 -42.2592 2.6971 21.2514 -41.3078 2.6971 29.4657 -38.9745 2.6971 
37.68 -36.3641 2.6971 -44.8898 -34.2191 2.6971 -52.6772 -30.66 2.6971 
-44.4629 -34.2191 3.31078 45.138 -34.2191 2.6971 37.68 -34.2191 9.59521 
45.8943 -33.9934 2.6971 54.1086 -30.2926 2.6971 -59.3951 -26.0048 2.6971 
-60.8915 -24.4592 2.6971 60.3984 -26.0048 2.6971 62.3229 -24.4247 2.6971 
-65.1199 -17.7905 2.6971 67.9502 -17.7905 2.6971 70.5372 -11.6036 2.6971 
-68.5567 -9.5762 2.6971 -69.1058 -7.08569 2.6971 71.3849 -9.5762 2.6971 
70.5372 -9.5762 5.27994 -70.3676 -1.36191 2.6971 -69.1058 6.26498 2.6971 
-69.1058 -1.36191 5.69749 71.5451 -1.36191 2.6971 70.5372 -1.36191 5.82648 
-69.007 6.85238 2.6971 70.8867 6.85238 2.6971 70.5372 7.55825 2.6971 
70.5372 6.85238 3.81325 -66.059 15.0667 2.6971 -60.8915 22.4136 2.6971 
-60.8915 15.0667 10.4622 66.3908 15.0667 2.6971 62.3229 20.8363 2.6971 
-60.0032 23.281 2.6971 -52.6772 28.4654 2.6971 -52.6772 23.281 9.95335 
59.9889 23.281 2.6971 54.1086 28.6124 2.6971 54.1086 23.281 10.056 
-46.6874 31.4953 2.6971 -44.4629 32.5184 2.6971 -44.4629 31.4953 4.53666 
-36.2486 35.8476 2.6971 -36.2486 31.4953 8.59145 -28.0343 38.6178 2.6971 
-28.0343 31.4953 10.4107 21.2514 39.398 2.6971 21.2514 31.4953 9.93774 
29.4657 37.0875 2.6971 29.4657 31.4953 8.76344 37.68 35.1584 2.6971 
37.68 31.4953 7.78407 48.2137 31.4953 2.6971 45.8943 32.4632 2.6971 
45.8943 31.4953 4.17618 -24.554 39.7095 2.6971 -19.82 40.9993 2.6971 
-19.82 39.7095 4.45466 -11.6057 42.1599 2.6971 -11.6057 39.7095 5.78355 
-3.39143 42.4624 2.6971 -3.39143 39.7095 5.81816 4.82287 42.2666 2.6971 
4.82287 39.7095 5.61406 20.0928 39.7095 2.6971 13.0372 41.2977 2.6971 
13.0372 39.7095 4.6069 -36.2486 -34.7239 10.9114 -28.0343 -36.1734 10.9114 
-19.82 -37.5099 10.9114 -11.6057 -38.404 10.9114 -3.39143 -38.7231 10.9114 
4.82287 -38.8725 10.9114 13.0372 -38.5869 10.9114 21.2514 -37.3933 10.9114 
29.4657 -35.4533 10.9114 -52.6772 -27.6265 10.9114 -37.7507 -34.2191 10.9114 
-44.4629 -31.9081 10.9114 -36.2486 -34.2191 11.6233 -28.0343 -34.2191 13.6578 
-19.82 -34.2191 14.9594 -11.6057 -34.2191 15.8317 -3.39143 -34.2191 16.0626 
4.82287 -34.2191 15.877 13.0372 -34.2191 15.1255 21.2514 -34.2191 14.0446 
35.3944 -34.2191 10.9114 29.4657 -34.2191 12.1837 37.68 -33.6166 10.9114 
45.8943 -30.7005 10.9114 54.1086 -27.7005 10.9114 -54.8836 -26.0048 10.9114 
-60.8915 -19.3516 10.9114 -52.6772 -26.0048 12.8015 -44.4629 -26.0048 17.3664 
13.0372 -26.0048 18.6836 21.2514 -26.0048 17.8366 29.4657 -26.0048 17.1586 
37.68 -26.0048 16.7061 45.8943 -26.0048 15.2961 56.6352 -26.0048 10.9114 
54.1086 -26.0048 12.7835 62.3229 -21.1978 10.9114 -61.9158 -17.7905 10.9114 
-60.8915 -17.7905 12.0761 -52.6772 -17.7905 18.1888 21.2514 -17.7905 18.7739 
54.1086 -17.7905 18.9552 65.1386 -17.7905 10.9114 62.3229 -17.7905 13.6437 
-65.0747 -9.5762 10.9114 -60.8915 -9.5762 15.6817 21.2514 -9.5762 18.3812 
68.1184 -9.5762 10.9114 62.3229 -9.5762 16.3135 -66.3171 -1.36191 10.9114 
-60.8915 -1.36191 16.9552 21.2514 -1.36191 18.1886 68.3304 -1.36191 10.9114 
62.3229 -1.36191 16.7022 -65.0242 6.85238 10.9114 -60.8915 14.5361 10.9114 
[...]
POINT_DATA 548
SCALARS ImageScalars float
LOOKUP_TABLE default
0 0 0 0 0 0 0 0 0 
0 0 0 0 0 0 0 0 0 
0 0 0 0 0 0 0 0 0 
0 0 0 0 0 0 0 0 0 
0 0 0 0 0 0 0 0 0 
0 0 0 0 0 0 0 0 0 
0 0 0 0 0 0 0 0 0 
0 0 0 0 0 0 0 0 0 
0 0 0 0 0 0 0 0 0 
0 0 0 0 0 0 0 0 0 
0 0 0 0 0 0 0 0 0 
0 0 0 0 0 0 0 0 0 
0 0 0 0 0 0 0 0 0 
0 0 0 0 0 0 0 0 0 
0 0 0 0 0 0 0 0 0 
0 0 0 0 0 0 0 0 0 
0 0 0 0 0 0 0 0 0 
0 0 0 0 0 0 0 0 0 
0 0 0 0 0 0 0 0 0 
0 0 0 0 0 0 0 0 0 
0 0 0 0 0 0 0 0 0 
0 0 0 0 0 0 0 0 0 
0 0 0 0 0 0 0 0 0 
0 0 0 0 0 0 0 0 0 
0 0 0 0 0 0 0 0 0 
0 0 0 0 0 0 0 0 0 
0 0 0 0 0 0 0 0 0 
0 0 0 0 0 0 0 0 0 
0 0 0 0 0 0 0 0 0 
0 0 0 0 0 0 0 0 0 
0 0 0 0 0 0 0 0 0 
0 0 0 0 0 0 0 0 0 
0 0 0 0 0 0 0 0 0 
0 0 0 0 0 0 0 0 0 
0 0 0 0 0 0 0 0 0 
0 0 0 0 0 0 0 0 0 
0 0 0 0 0 0 0 0 0 
0 0 0 0 0 0 0 0 0 
0 0 0 0 0 0 0 0 0 
0 0 0 0 0 0 0 0 0 
0 0 0 0 0 0 0 0 0 
0 0 0 0 0 0 0 0 0 
0 0 0 0 0 0 0 0 0 
0 0 0 0 0 0 0 0 0 
0 0 0 0 0 0 0 0 0 
0 0 0 0 0 0 0 0 0 
0 0 0 0 0 0 0 0 0 
0 0 0 0 0 0 0 0 0 
0 0 0 0 0 0 0 0 0 
0 0 0 0 0 0 0 0 0 
0 0 0 0 0 0 0 0 0 
0 0 0 0 0 0 0 0 0 
0 0 0 0 0 0 0 0 0 
0 0 0 0 0 0 0 0 0 
0 0 0 0 0 0 0 0 0 
0 0 0 0 0 0 0 0 0 
0 0 0 0 0 0 0 0 0 
0 0 0 0 0 0 0 0 0 
0 0 0 0 0 0 0 0 0 
0 0 0 0 0 0 0 0 0 
0 0 0 0 0 0 0 0 
NORMALS Normals float
0.14014 0.613852 0.776882 0.0450941 0.55138 0.833035 -0.00307208 0.525107 0.851031 
0.02211 0.508925 0.860527 -0.0853837 0.53475 0.840686 -0.2505 0.572698 0.780555 
0.279888 0.470497 0.836837 0.141637 0.414376 0.899017 0.0738306 0.296398 0.952206 
0.0725651 0.20892 0.975237 0.00215018 0.17803 0.984023 -0.0166429 0.159525 0.987054 
0.0490878 0.179091 0.982607 -0.0430983 0.212619 0.976184 -0.158354 0.245766 0.956307 
-0.154652 0.380312 0.911837 -0.197595 0.496427 0.845291 0.349648 0.316867 0.88167 
0.18293 0.265327 0.946646 0.0307734 0.183983 0.982448 -0.0108251 0.100424 0.994886 
0.0106473 0.00964662 0.999897 -0.00334399 0.0606422 0.998154 0.00569429 0.0511542 0.998675 
0.0709898 0.0710333 0.994945 -0.0193927 0.0133853 0.999722 -0.0684749 0.0447715 0.996648 
-0.0579084 0.162074 0.985078 -0.126841 0.261432 0.956851 -0.219048 0.345417 0.912527 
-0.349525 0.412808 0.841084 0.319355 0.155139 0.93485 0.153084 0.0746508 0.98539 
-0.0125143 0.0865663 0.996167 -0.113775 0.00444634 0.993497 0.0301799 -0.0823445 0.996147 
0.0460969 0.110676 0.992787 -0.0116815 -0.00166669 0.99993 0.0148675 0.0227235 0.999631 
-0.0728745 -0.0349865 0.996727 -0.0143219 -0.0396361 0.999112 0.0684479 0.0641635 0.995589 
-0.00251169 0.158804 0.987307 -0.166926 0.19803 0.965878 -0.313077 0.200564 0.928309 
-0.573764 0.172434 0.800663 0.541864 0.0567457 0.838548 0.241154 0.0429111 0.969538 
0.101941 0.0197281 0.994595 -0.0419778 0.00573799 0.999102 -0.176506 0.00735463 0.984272 
0.078206 -0.0254895 0.996611 0.133732 -0.0420249 0.990126 -0.0818777 -0.00726516 0.996616 
0.0393207 0.077224 0.996238 -0.0864097 -0.0448552 0.995249 0.0465863 -0.00535435 0.9989 
0.132883 0.0542914 0.989644 -0.00151641 0.065424 0.997856 -0.157141 0.0480186 0.986408 
-0.344277 0.0780224 0.935621 0.561613 -0.108056 0.820314 0.271467 -0.0444277 0.961422 
0.119379 0.0368976 0.992163 -0.0211413 -0.00205224 0.999774 -0.153017 0.0556614 0.986655 
-0.0158733 0.109743 0.993833 0.0743784 -0.128676 0.988893 0.097209 0.00766113 0.995234 
-0.0103444 -0.0597315 0.998161 -0.1465 -0.0903452 0.985076 0.0872139 0.0177822 0.996031 
0.130884 -0.00420436 0.991389 -0.00909933 -0.024895 0.999649 -0.149437 -0.00611219 0.988752 
-0.33715 -0.088785 0.937255 0.359009 -0.107407 0.927133 0.15496 -0.0849101 0.984265 
-0.0319795 -0.069996 0.997035 -0.0677582 0.0600484 0.995893 -0.0744509 0.111249 0.991 
-0.0284799 0.0122628 0.999519 0.0172168 0.0396351 0.999066 -0.0587074 -0.0670382 0.996022 
-0.0276852 -0.00519652 0.999603 0.11702 0.0100622 0.993079 0.0943588 -0.0479113 0.994385 
-0.00112327 -0.0516289 0.998666 -0.225366 -0.179839 0.957532 -0.427806 -0.266118 0.863808 
0.458216 -0.467221 0.756137 0.172799 -0.363084 0.915593 0.132862 -0.192945 0.972173 
0.0290625 -0.109193 0.993596 -0.0698931 -0.0124368 0.997477 -0.00506802 0.0323755 0.999463 
0.0156621 0.0432434 0.998942 -0.0715872 0.0206698 0.99722 -0.0595068 0.053248 0.996807 
0.0428619 -0.0537498 0.997634 0.0711318 -0.121822 0.99 -0.128022 -0.240996 0.962045 
-0.33524 -0.358716 0.87117 0.382289 -0.635935 0.670404 0.2562 -0.512025 0.819873 
0.121195 -0.37928 0.91731 0.0742241 -0.235109 0.969131 0.0274394 -0.165849 0.985769 
0.00609055 -0.146863 0.989138 -0.0508631 -0.145119 0.988106 -0.0991856 -0.150084 0.983685 
-0.0830786 -0.237374 0.967859 -0.105998 -0.422277 0.900248 -0.2484 -0.564518 0.787158 
0.169886 -0.677273 0.715849 0.112773 -0.59529 0.795558 0.0521484 -0.526655 0.848478 
-0.0874241 -0.520026 0.849664 -0.15689 -0.591722 0.790728 -0.240105 -0.650006 0.721001 
0.149556 0.681396 0.716472 0.0566212 0.699206 0.712674 0.0061616 0.665422 0.746442 
0.0231106 0.660927 0.750095 -0.0936646 0.670776 0.735722 -0.251949 0.605781 0.754686 
0.302552 0.579404 0.756804 0.192103 0.596624 0.77919 0.245631 0.803431 0.542369 
0.18813 0.673349 0.714989 0.192905 0.662165 0.724103 0.197769 0.697115 0.689143 
-0.261704 0.595395 0.759615 -0.236483 0.545759 0.80388 -0.305715 0.719115 0.624029 
-0.221332 0.578561 0.785035 -0.293844 0.860793 0.415562 0.355763 0.531936 0.768425 
0.406321 0.470097 0.783525 0.496574 0.664502 0.558436 -0.267136 0.538098 0.79943 
-0.290991 0.50674 0.811504 -0.308677 0.572133 0.759857 -0.356679 0.429625 0.829579 
-0.460082 0.706273 0.538056 0.510642 0.348852 0.785842 0.685531 0.393591 0.612481 
-0.370832 0.420343 0.828128 -0.577266 0.187782 0.794671 -0.644895 0.4765 0.597543 
0.57813 0.166599 0.798756 0.579157 0.164161 0.798516 0.581117 0.167379 0.796422 
-0.581848 0.173365 0.794605 -0.600399 0.0547356 0.797825 0.607162 0.0576775 0.792482 
0.937955 0.0561635 0.34218 -0.605736 -0.0188634 0.795442 -0.61389 -0.0204952 0.789125 
0.603811 -0.109323 0.789595 0.610598 -0.195192 0.767509 -0.645304 -0.114981 0.755223 
-0.660072 -0.11816 0.741851 0.611384 -0.23662 0.75513 0.654167 -0.259832 0.710319 
-0.560955 -0.287888 0.776177 -0.499787 -0.4081 0.763982 -0.76026 -0.341463 0.552637 
0.542194 -0.510385 0.667483 0.752917 -0.630183 0.189701 0.499065 -0.579061 0.644688 
-0.486113 -0.435901 0.75742 -0.400931 -0.595027 0.696561 -0.554606 -0.489932 0.672592 
0.392563 -0.643336 0.657277 0.385747 -0.647893 0.656836 0.319104 -0.687456 0.652363 
0.250973 -0.7407 0.623199 -0.260357 -0.665577 0.699443 -0.359866 -0.65497 0.664462 
-0.298536 -0.689593 0.659801 -0.455209 -0.779087 0.431055 0.240683 -0.748795 0.617557 
0.268188 -0.794898 0.544254 0.188617 -0.74536 0.639424 0.151755 -0.752859 0.640448 
0.0609046 -0.776378 0.627318 -0.0912676 -0.768809 0.632931 -0.176883 -0.720881 0.670106 
-0.272718 -0.69066 0.669786 -0.250877 -0.695066 0.673753 -0.345253 -0.906549 0.242837 
0.267921 0.927883 0.259328 0.20993 0.948783 0.236094 0.143154 0.968182 0.205257 
0.0874595 0.978085 0.188945 0.0591705 0.977664 0.201671 0.0356908 0.977094 0.209792 
-0.0786697 0.971458 0.223787 -0.240404 0.928 0.284644 -0.326132 0.883373 0.336586 
-0.297599 0.879657 0.370996 0.529594 0.78714 0.316133 0.345192 0.90856 0.235291 
0.359659 0.903006 0.235003 0.356028 0.934475 -0.000262696 -0.313967 0.871441 0.376849 
-0.368395 0.835025 0.408678 -0.46889 0.770638 0.431578 0.636735 0.706735 0.308374 
0.72645 0.620052 0.296322 -0.512237 0.737034 0.440902 -0.670728 0.575859 0.467451 
0.830305 0.471841 0.29658 -0.740937 0.473443 0.476303 0.908442 0.271891 0.317503 
0.946211 0.109945 0.304298 -0.851451 0.237707 0.467467 -0.959351 0.229397 0.164388 
0.950654 0.0550977 0.305322 0.957223 -0.0771323 0.278883 -0.89879 0.00167119 0.438376 
-0.974803 -0.0135491 0.222654 0.952866 -0.143129 0.267507 -0.884999 -0.230993 0.404252 
-0.957662 -0.285072 0.0402086 0.89362 -0.398791 0.205935 -0.852119 -0.417185 0.31599 
-0.796465 -0.5527 0.245288 0.757497 -0.636565 0.144856 0.749022 -0.647309 0.141272 
0.742962 -0.668969 -0.0220914 0.566361 -0.822245 0.0561169 -0.734289 -0.644821 0.212192 
-0.625728 -0.762653 0.163785 0.533131 -0.845038 0.0410101 0.445372 -0.895342 0.00266236 
0.410485 -0.911866 -0.00183566 -0.373559 -0.927139 0.0294532 -0.550673 -0.825851 0.121362 
-0.470701 -0.876191 0.103588 0.397919 -0.917383 -0.00833696 0.30522 -0.951381 -0.0414008 
0.271769 -0.873403 -0.404115 0.201182 -0.979173 -0.0273279 0.110435 -0.992303 -0.0560297 
0.0469501 -0.993803 -0.100751 -0.0483384 -0.992922 -0.108483 -0.183854 -0.979818 -0.0784492 
-0.259784 -0.964646 -0.0443902 -0.223378 -0.781082 -0.583107 -0.342556 -0.939465 -0.00786101 
-0.323211 -0.946047 -0.0230081 -0.307793 -0.92892 -0.205844 0.349008 0.932822 -0.0896507 
0.245214 0.964866 -0.0943557 0.168384 0.976329 -0.135751 0.127888 0.981799 -0.140415 
0.0883052 0.984942 -0.148631 0.0684849 0.985973 -0.152208 0.0460445 0.985177 -0.165248 
-0.0443101 0.983841 -0.173474 -0.19932 0.968186 -0.151289 -0.279163 0.953546 -0.113213 
-0.295072 0.953604 -0.0597662 0.358678 0.929079 -0.0903449 0.542968 0.834015 -0.098005 
0.350498 0.929976 -0.110891 -0.352849 0.934032 -0.0555157 -0.241168 0.850737 -0.466996 
-0.357377 0.93229 -0.0558357 -0.474642 0.880118 -0.0103606 0.683928 0.720653 -0.113586 
0.736993 0.665168 -0.119967 -0.609899 0.792387 -0.0120655 -0.670057 0.742244 -0.00986913 
0.867458 0.484283 -0.113956 -0.873728 0.486415 0.000562563 -0.96067 0.275837 -0.0320558 
0.951671 0.279182 -0.127987 0.969891 0.202732 -0.134952 -0.976129 0.214317 -0.0352096 
-0.962537 0.214795 -0.165486 0.988595 0.0283758 -0.147898 0.95887 -0.205931 -0.195346 
0.953957 0.011124 -0.299735 -0.998176 -0.0309569 -0.0518216 -0.971679 -0.0293574 -0.234474 
0.954144 -0.224294 -0.198247 -0.954337 -0.291584 -0.0649566 -0.948071 -0.310478 -0.0690289 
-0.94687 -0.294691 -0.128816 0.842952 -0.473951 -0.254561 0.688881 -0.660548 -0.298529 
0.574817 -0.507316 -0.64204 -0.853389 -0.507516 -0.118976 -0.740748 -0.647135 -0.1803 
0.660625 -0.68507 -0.307008 0.490462 -0.784879 -0.378698 0.407955 -0.664454 -0.626158 
-0.671644 -0.70811 -0.217886 -0.553782 -0.786602 -0.273097 -0.437601 -0.65506 -0.615956 
0.390901 -0.835925 -0.385261 0.358318 -0.850583 -0.384859 0.35293 -0.81788 -0.454437 
0.315104 -0.814401 -0.487299 0.201484 -0.729249 -0.653911 0.249222 -0.81259 -0.526863 
0.150822 -0.631107 -0.760892 -0.216799 -0.75948 -0.613342 -0.122203 -0.574831 -0.809096 
-0.215604 -0.80085 -0.558707 -0.095609 -0.674163 -0.732368 -0.240673 -0.866041 -0.438234 
-0.172918 -0.738921 -0.651225 -0.389857 -0.850951 -0.351987 -0.328122 -0.866686 -0.375754 
-0.317206 -0.846189 -0.428188 0.221489 -0.822342 -0.524115 0.18235 -0.831117 -0.52535 
0.173768 -0.797485 -0.577773 0.0806099 -0.834663 -0.54483 0.0556224 -0.758292 -0.649537 
0.00598885 -0.811059 -0.584934 -0.00810667 -0.72489 -0.688816 -0.0616456 -0.80229 -0.593743 
-0.0539092 -0.72805 -0.683401 -0.209825 -0.765841 -0.607833 -0.139238 -0.799615 -0.584147 
-0.142174 -0.756077 -0.638854 0.226022 0.853122 -0.47021 0.150078 0.873107 -0.463854 
0.124537 0.866021 -0.484251 0.067034 0.867028 -0.493729 0.0258402 0.858317 -0.512469 
-0.00601333 0.832804 -0.553536 -0.074696 0.78912 -0.60968 -0.162932 0.761655 -0.627164 
-0.189835 0.761447 -0.619808 0.51457 0.712797 -0.47659 0.246172 0.851582 -0.462825 
0.343729 0.823607 -0.451134 0.221525 0.837317 -0.499826 0.136344 0.802651 -0.580656 
0.0954527 0.727068 -0.679898 0.0512096 0.646951 -0.76081 0.00187434 0.618862 -0.785497 
-0.0479681 0.600159 -0.798441 -0.0928265 0.588933 -0.802833 -0.151648 0.608438 -0.778978 
-0.211197 0.792713 -0.571841 -0.176395 0.70969 -0.682074 -0.220581 0.799143 -0.559209 
-0.292082 0.765468 -0.573365 -0.417572 0.741432 -0.525274 0.560947 0.676158 -0.47765 
0.721957 0.464029 -0.513278 0.50216 0.662325 -0.556022 0.319722 0.556294 -0.767017 
-0.0943775 0.248789 -0.963949 -0.0882178 0.239476 -0.966886 -0.0609857 0.388841 -0.919284 
-0.0980541 0.472153 -0.876046 -0.204487 0.584497 -0.785206 -0.475124 0.728136 -0.494039 
-0.370696 0.692239 -0.619185 -0.630266 0.592068 -0.502215 0.746144 0.42449 -0.512911 
0.713317 0.418495 -0.562176 0.436221 0.345701 -0.830784 -0.00374366 0.0287456 -0.99958 
-0.290355 0.308894 -0.905692 -0.712965 0.443394 -0.543215 -0.600962 0.395799 -0.694397 
0.804275 0.212943 -0.554795 0.649351 0.205448 -0.732212 0.00388833 -0.0357228 -0.999354 
-0.82034 0.182583 -0.541947 -0.509181 0.181701 -0.841261 0.805651 -0.00732162 -0.592346 
0.595621 -0.0471893 -0.801878 0.00648014 -0.00826292 -0.999945 -0.814855 -0.0275872 -0.579008 
-0.571695 -0.0260216 -0.820053 0.772989 -0.234424 -0.58952 0.570457 -0.488997 -0.659894 
0.58438 -0.287431 -0.75887 0.301991 -0.235959 -0.923647 -0.0666131 -0.0408566 -0.996942 
-0.258717 -0.191369 -0.946807 -0.776663 -0.278857 -0.56483 -0.571481 -0.28432 -0.769787 
0.552368 -0.50556 -0.662796 0.397257 -0.633275 -0.664191 0.370066 -0.432311 -0.822289 
0.151946 -0.393365 -0.90674 0.0204615 -0.338215 -0.940846 -0.0145366 -0.266242 -0.963796 
0.0428215 -0.19809 -0.979248 0.0407007 -0.29998 -0.953077 -0.163051 -0.294395 -0.941672 
-0.0627047 -0.203541 -0.977056 0.0409696 -0.273086 -0.961117 0.0105673 -0.343605 -0.939055 
-0.106014 -0.379274 -0.919191 -0.417464 -0.625478 -0.659167 -0.345421 -0.431285 -0.833473 
-0.633998 -0.507658 -0.583378 -0.630182 -0.511143 -0.584469 -0.6276 -0.506053 -0.591632 
0.364225 -0.639093 -0.677422 0.289624 -0.632199 -0.718639 0.239578 -0.586937 -0.773374 
0.163774 -0.659672 -0.733493 0.117683 -0.519581 -0.846278 0.139836 -0.61242 -0.778067 
0.069201 -0.433798 -0.898349 0.0434907 -0.371054 -0.927592 -0.0511853 -0.386489 -0.920872 
-0.0154892 -0.35819 -0.93352 0.0186815 -0.442893 -0.89638 -0.0870991 -0.415795 -0.905278 
-0.103699 -0.537081 -0.837132 -0.0526291 -0.404011 -0.913239 -0.0567615 -0.604959 -0.794231 
-0.00807101 -0.458027 -0.888902 -0.117779 -0.610258 -0.783399 -0.0622024 -0.509713 -0.858093 
-0.382631 -0.640627 -0.665725 -0.224187 -0.681091 -0.697033 -0.194867 -0.60192 -0.774416 
0.130049 -0.607896 -0.783294 0.0979145 -0.59089 -0.800788 0.0846842 -0.550464 -0.830553 
-0.00649813 -0.5637 -0.825954 -0.0152378 -0.524252 -0.851427 -0.0170502 -0.522833 -0.852265 
-0.0161227 -0.491043 -0.870986 -0.0292612 -0.553707 -0.832197 -0.0251059 -0.527575 -0.849138 
-0.105045 -0.548788 -0.829335 -0.0995164 -0.552056 -0.827847 -0.0981516 -0.540819 -0.835393 
0.15711 0.530217 -0.833179 0.0350536 0.493534 -0.86902 -0.0118128 0.421639 -0.906687 
-0.0153605 0.327086 -0.94487 -0.016949 0.263139 -0.964609 -0.0552513 0.278905 -0.958728 
0.208614 0.505646 -0.837139 0.291829 0.427227 -0.855753 0.146714 0.486236 -0.861423 
0.0116774 0.413787 -0.910299 -0.0347003 0.348922 -0.936509 -0.0298909 0.269303 -0.962591 
-0.0193447 0.207261 -0.978094 -0.0709403 0.248482 -0.966035 -0.0546575 0.249371 -0.966864 
-0.104522 0.178951 -0.97829 0.0111136 0.201984 -0.979326 -0.0365436 0.243897 -0.969112 
-0.0266811 0.285118 -0.958121 0.379862 0.321728 -0.867293 0.405073 0.26439 -0.875222 
0.240671 0.274501 -0.930982 0.0882513 0.182603 -0.979218 -0.0284422 0.151606 -0.988032 
-0.0998236 0.131656 -0.986257 -0.112278 0.14174 -0.983516 -0.026424 0.039566 -0.998868 
-0.0220491 0.113189 -0.993329 -0.0421361 0.0368881 -0.998431 -0.123691 0.0642929 -0.990236 
0.00905618 0.0671484 -0.997702 0.0337381 0.138828 -0.989742 -0.0320636 0.225881 -0.973627 
-0.162051 0.29406 -0.941949 -0.0211043 0.274508 -0.961353 -0.262983 0.190986 -0.945708 
0.448353 0.168455 -0.87784 0.37036 0.147732 -0.917065 0.151959 0.0764328 -0.985427 
0.00152545 0.0072009 -0.999973 -0.0490739 -0.0479233 -0.997645 -0.0428026 -0.0599552 -0.997283 
-0.121887 0.129607 -0.984046 -0.0525552 0.00833024 -0.998583 -0.0199474 0.0181353 -0.999637 
-0.112738 -0.00901479 -0.993584 -0.20069 0.0179053 -0.979491 0.0894632 -0.00611913 -0.995971 
0.149515 0.0132705 -0.98867 0.0550098 0.088651 -0.994543 -0.0869132 0.086819 -0.992426 
-0.236943 0.0525013 -0.970104 -0.223473 0.0453815 -0.973653 0.445547 -0.0819474 -0.8915 
0.301516 -0.216684 -0.928513 0.315347 -0.0987334 -0.943826 0.0958981 -0.126197 -0.987359 
-0.0311948 -0.125528 -0.9916 -0.0944605 -0.151357 -0.983955 0.0760223 -0.159981 -0.984188 
-0.00935888 0.00397582 -0.999948 -0.17605 0.0202048 -0.984174 -0.00434904 0.00694609 -0.999966 
-0.0865331 0.0336189 -0.995682 -0.202228 0.0808866 -0.975992 0.0774097 -0.00960108 -0.996953 
0.156172 -0.0112036 -0.987666 0.0558235 -0.0181517 -0.998276 -0.0636336 0.00749929 -0.997945 
-0.291783 -0.0196692 -0.956282 -0.251867 -0.160656 -0.954334 -0.213913 -0.0164334 -0.976714 
0.276636 -0.235488 -0.931675 0.139186 -0.33375 -0.932329 0.125968 -0.238434 -0.962954 
0.0191824 -0.33489 -0.942062 -0.0235261 -0.208374 -0.977766 -0.0351837 -0.24737 -0.968282 
-0.0838387 -0.203475 -0.975484 0.0609834 -0.177773 -0.98218 0.0993422 -0.137635 -0.985489 
0.0639959 -0.245508 -0.96728 0.0141189 -0.234507 -0.972012 -0.038135 -0.130819 -0.990673 
0.0264701 -0.0561782 -0.99807 -0.120406 -0.050871 -0.991421 -0.166961 -0.282438 -0.944644 
-0.228114 -0.0859071 -0.969837 0.0790825 -0.104698 -0.991355 0.117298 -0.15764 -0.980505 
0.137559 -0.127263 -0.982284 0.0360395 -0.268483 -0.96261 0.0753841 -0.151921 -0.985514 
-0.245977 -0.189271 -0.950617 -0.0964241 -0.291811 -0.951603 -0.0872973 -0.160904 -0.983102 
0.00116803 -0.267197 -0.963641 -0.0140108 -0.315771 -0.948732 -0.0330467 -0.324349 -0.94536 
-0.0299708 -0.320655 -0.946722 0.0455157 -0.305814 -0.951003 -0.143529 -0.297184 -0.943971 
0.0409282 -0.349491 -0.936045 0.0466855 -0.308838 -0.949968 
