# vtk DataFile Version 4.2
vtk output
ASCII
DATASET POLYDATA
POINTS 480 float
-24.8192 -31.7105 -16.2828 -17.4392 -31.7105 -18.4961 -10.0591 -31.7105 -18.9016 
-2.67906 -31.7105 -18.6111 4.70099 -31.7105 -18.3447 12.081 -31.7105 -17.6803 
19.4611 -31.7105 -15.954 -32.1993 -24.3304 -17.424 -24.8192 -24.3304 -20.7367 
-17.4392 -24.3304 -21.9325 -10.0591 -24.3304 -22.1987 -2.67906 -24.3304 -21.0849 
4.70099 -24.3304 -20.9775 12.081 -24.3304 -21.4134 19.4611 -24.3304 -20.8756 
26.8411 -24.3304 -17.6869 -32.1993 -16.9504 -19.6368 -24.8192 -16.9504 -21.6849 
-17.4392 -16.9504 -22.4092 -10.0591 -16.9504 -22.1035 -2.67906 -16.9504 -21.4999 
4.70099 -16.9504 -21.7695 12.081 -16.9504 -22.1582 19.4611 -16.9504 -22.2582 
26.8411 -16.9504 -20.6179 34.2212 -16.9504 -16.8592 -39.5793 -9.57031 -17.7339 
-32.1993 -9.57031 -20.4829 -24.8192 -9.57031 -21.4982 -17.4392 -9.57031 -21.7353 
-10.0591 -9.57031 -21.9566 -2.67906 -9.57031 -21.2525 4.70099 -9.57031 -21.8126 
12.081 -9.57031 -22.2314 19.4611 -9.57031 -21.8464 26.8411 -9.57031 -21.1108 
34.2212 -9.57031 -19.4172 -39.5793 -2.19026 -18.6269 -32.1993 -2.19026 -20.8741 
-24.8192 -2.19026 -21.2296 -17.4392 -2.19026 -20.7824 -10.0591 -2.19026 -22.6109 
-2.67906 -2.19026 -22.2096 4.70099 -2.19026 -21.6235 12.081 -2.19026 -22.1687 
19.4611 -2.19026 -21.6558 26.8411 -2.19026 -21.558 34.2212 -2.19026 -20.4373 
41.6012 -2.19026 -17.1839 -39.5793 5.1898 -19.0977 -32.1993 5.1898 -21.1459 
-24.8192 5.1898 -21.3893 -17.4392 5.1898 -20.7435 -10.0591 5.1898 -22.1037 
-2.67906 5.1898 -22.0322 4.70099 5.1898 -21.4038 12.081 5.1898 -22.007 
19.4611 5.1898 -21.5787 26.8411 5.1898 -21.3524 34.2212 5.1898 -20.4265 
41.6012 5.1898 -17.3346 -39.5793 12.5698 -19.126 -32.1993 12.5698 -21.1513 
-24.8192 12.5698 -21.8182 -17.4392 12.5698 -21.7502 -10.0591 12.5698 -21.6609 
-2.67906 12.5698 -21.7571 4.70099 12.5698 -22.1523 12.081 12.5698 -22.5041 
19.4611 12.5698 -21.7922 26.8411 12.5698 -20.9349 34.2212 12.5698 -19.2541 
-39.5793 19.9499 -17.3165 -32.1993 19.9499 -20.6084 -24.8192 19.9499 -22.369 
-17.4392 19.9499 -21.9862 -10.0591 19.9499 -21.1191 -2.67906 19.9499 -20.5869 
4.70099 19.9499 -21.1123 12.081 19.9499 -21.8488 19.4611 19.9499 -21.4411 
26.8411 19.9499 -19.9902 34.2212 19.9499 -18.2005 -32.1993 27.3299 -18.6564 
-24.8192 27.3299 -20.3493 -17.4392 27.3299 -20.7129 -10.0591 27.3299 -19.702 
-2.67906 27.3299 -18.3796 4.70099 27.3299 -17.7285 12.081 27.3299 -18.3752 
19.4611 27.3299 -18.5172 26.8411 27.3299 -17.4848 -24.8192 34.71 -16.5989 
-17.4392 34.71 -17.8263 -10.0591 34.71 -16.5323 -24.8192 -32.2603 -15.7205 
-17.4392 -34.5372 -15.7205 -10.0591 -35.1156 -15.7205 -2.67906 -34.9759 -15.7205 
4.70099 -34.6478 -15.7205 12.081 -33.746 -15.7205 19.4611 -31.9031 -15.7205 
-25.7096 -31.7105 -15.7205 -32.1993 -26.6412 -15.7205 19.7966 -31.7105 -15.7205 
26.8411 -26.7468 -15.7205 -34.2152 -24.3304 -15.7205 29.4197 -24.3304 -15.7205 
34.2212 -18.6128 -15.7205 -39.0501 -16.9504 -15.7205 -39.5793 -15.917 -15.7205 
-39.5793 -16.9504 -14.9399 35.5814 -16.9504 -15.7205 -42.4295 -9.57031 -15.7205 
40.3785 -9.57031 -15.7205 41.6012 -6.96059 -15.7205 41.6012 -9.57031 -13.9311 
-43.2466 -2.19026 -15.7205 43.2649 -2.19026 -15.7205 -43.8684 5.1898 -15.7205 
43.5603 5.1898 -15.7205 41.6012 12.5534 -15.7205 -44.0774 12.5698 -15.7205 
41.5944 12.5698 -15.7205 41.6012 12.5698 -15.7155 -41.3969 19.9499 -15.7205 
-39.5793 23.4195 -15.7205 37.6348 19.9499 -15.7205 34.2212 24.0999 -15.7205 
41.6012 19.9499 -10.5082 -36.8797 27.3299 -15.7205 -39.5793 27.3299 -9.7969 
-32.1993 31.524 -15.7205 -2.67906 32.4403 -15.7205 4.70099 30.0576 -15.7205 
12.081 29.9297 -15.7205 19.4611 30.2496 -15.7205 30.1374 27.3299 -15.7205 
26.8411 29.2828 -15.7205 34.2212 27.3299 -12.4958 -26.8432 34.71 -15.7205 
-32.1993 34.71 -10.062 -24.8192 35.8132 -15.7205 -17.4392 37.3656 -15.7205 
-7.34275 34.71 -15.7205 -10.0591 35.7549 -15.7205 -2.67906 34.71 -14.0489 
4.70099 34.71 -8.41582 -17.4392 42.09 -9.2664 -10.0591 42.09 -9.0543 
-24.8192 -35.8005 -8.34049 -17.4392 -37.7066 -8.34049 -10.0591 -38.7045 -8.34049 
-10.0591 -39.0905 -1.28682 -2.67906 -38.7642 -8.34049 4.70099 -38.2298 -8.34049 
12.081 -36.7968 -8.34049 19.4611 -34.1367 -8.34049 -31.6294 -31.7105 -8.34049 
-32.1993 -31.2732 -8.34049 -32.1993 -31.7105 -2.9599 23.7284 -31.7105 -8.34049 
26.8411 -29.4892 -8.34049 -38.2535 -24.3304 -8.34049 -39.5793 -22.0702 -8.34049 
32.61 -24.3304 -8.34049 34.2212 -22.6466 -8.34049 -42.3027 -16.9504 -8.34049 
38.5419 -16.9504 -8.34049 41.6012 -13.0657 -8.34049 -45.4204 -9.57031 -8.34049 
44.0081 -9.57031 -8.34049 -46.7679 -2.19026 -8.34049 47.251 -2.19026 -8.34049 
-46.939 5.1898 -8.34049 47.9359 5.1898 -8.34049 -46.0227 12.5698 -8.34049 
46.4961 12.5698 -8.34049 -43.8646 19.9499 -8.34049 42.9171 19.9499 -8.34049 
41.6012 22.0122 -8.34049 -39.9944 27.3299 -8.34049 -39.5793 27.8728 -8.34049 
-39.5793 27.3299 -6.67504 12.081 32.8209 -8.34049 19.4611 33.3655 -8.34049 
26.8411 33.1032 -8.34049 37.5123 27.3299 -8.34049 34.2212 29.9938 -8.34049 
-33.0448 34.71 -8.34049 -32.1993 35.4275 -8.34049 -32.1993 34.71 -3.04836 
-24.8192 40.2561 -8.34049 -2.67906 39.2777 -8.34049 4.8196 34.71 -8.34049 
4.70099 34.7512 -8.34049 4.70099 34.71 -7.87009 -19.2494 42.09 -8.34049 
-17.4392 42.6128 -8.34049 -8.93413 42.09 -8.34049 -10.0591 42.5196 -8.34049 
-10.0591 -39.1073 -0.960435 -32.1993 -31.8486 -0.960435 -24.8192 -36.4948 -0.960435 
-10.2529 -39.0905 -0.960435 -17.4392 -38.4484 -0.960435 -9.02214 -39.0905 -0.960435 
-10.0591 -39.0905 -0.803287 -2.67906 -38.9873 -0.960435 4.70099 -37.8405 -0.960435 
12.081 -35.6266 -0.960435 19.4611 -32.2395 -0.960435 -32.352 -31.7105 -0.960435 
-32.1993 -31.7105 -0.271703 20.3445 -31.7105 -0.960435 19.4611 -31.7105 1.25423 
26.8411 -27.3769 -0.960435 -38.2761 -24.3304 -0.960435 -39.5793 -22.0218 -0.960435 
30.3557 -24.3304 -0.960435 34.2212 -20.6656 -0.960435 -42.1071 -16.9504 -0.960435 
37.7307 -16.9504 -0.960435 41.6012 -12.3919 -0.960435 -44.2166 -9.57031 -0.960435 
43.6766 -9.57031 -0.960435 -45.1865 -2.19026 -0.960435 47.2274 -2.19026 -0.960435 
-44.7821 5.1898 -0.960435 -39.5793 5.1898 6.32935 48.3431 5.1898 -0.960435 
-43.5343 12.5698 -0.960435 -39.5793 12.5698 4.56781 47.0126 12.5698 -0.960435 
-41.9473 19.9499 -0.960435 -39.5793 24.5213 -0.960435 -39.5793 19.9499 2.30931 
43.814 19.9499 -0.960435 41.6012 23.3081 -0.960435 41.6012 19.9499 6.24164 
-37.7372 27.3299 -0.960435 -32.1993 34.277 -0.960435 -32.1993 27.3299 6.09939 
4.70099 34.174 -0.960435 12.081 31.2889 -0.960435 19.4611 32.2693 -0.960435 
26.8411 32.9469 -0.960435 38.2672 27.3299 -0.960435 34.2212 30.3814 -0.960435 
-31.7186 34.71 -0.960435 -24.8192 39.4698 -0.960435 -24.8192 34.71 5.63664 
4.00377 34.71 -0.960435 -2.67906 39.6596 -0.960435 -18.9439 42.09 -0.960435 
-17.4392 42.5945 -0.960435 -17.4392 42.09 -0.00122917 -8.15001 42.09 -0.960435 
-10.0591 42.8261 -0.960435 -10.0591 42.09 0.654832 -24.8192 -35.4679 6.41962 
-17.4392 -37.7427 6.41962 -10.0591 -38.2982 6.41962 -2.67906 -37.7617 6.41962 
4.70099 -36.2496 6.41962 12.081 -33.7979 6.41962 -30.2612 -31.7105 6.41962 
-32.1993 -29.9057 6.41962 -24.8192 -31.7105 13.2191 16.8161 -31.7105 6.41962 
19.4611 -30.4716 6.41962 26.8411 -25.5725 6.41962 -36.2081 -24.3304 6.41962 
-39.5793 -16.9879 6.41962 -32.1993 -24.3304 12.8624 28.2622 -24.3304 6.41962 
34.2212 -18.526 6.41962 -39.5951 -16.9504 6.41962 -39.5793 -16.9504 6.44911 
35.6627 -16.9504 6.41962 34.2212 -16.9504 12.3359 41.6012 -9.61144 6.41962 
-40.7817 -9.57031 6.41962 -39.5793 -9.57031 8.08802 41.6313 -9.57031 6.41962 
41.6012 -9.57031 6.50815 -40.5434 -2.19026 6.41962 -39.5793 4.69221 6.41962 
-39.5793 -2.19026 7.59469 45.396 -2.19026 6.41962 -39.5051 5.1898 6.41962 
-32.1993 5.1898 13.6191 46.5641 5.1898 6.41962 -38.0781 12.5698 6.41962 
-32.1993 12.5698 12.0683 45.2666 12.5698 6.41962 41.6012 19.8461 6.41962 
-36.0419 19.9499 6.41962 -32.1993 26.9033 6.41962 -32.1993 19.9499 10.2602 
41.5378 19.9499 6.41962 -31.9055 27.3299 6.41962 -24.8192 34.0571 6.41962 
-24.8192 27.3299 11.8112 4.70099 31.0309 6.41962 12.081 28.8552 6.41962 
12.081 27.3299 11.5698 19.4611 29.9098 6.41962 19.4611 27.3299 12.7327 
26.8411 30.2051 6.41962 26.8411 27.3299 11.7011 34.6859 27.3299 6.41962 
34.2212 27.667 6.41962 34.2212 27.3299 6.98832 -23.8437 34.71 6.41962 
-17.4392 38.0476 6.41962 -17.4392 34.71 9.94932 -10.0591 38.7528 6.41962 
-10.0591 34.71 10.7099 -0.422115 34.71 6.41962 -2.67906 36.3686 6.41962 
-2.67906 34.71 8.56111 -17.4392 -34.6083 13.7997 -10.0591 -35.5494 13.7997 
-2.67906 -35.4987 13.7997 4.70099 -34.5805 13.7997 12.081 -32.9997 13.7997 
-24.0773 -31.7105 13.7997 -24.8192 -31.2224 13.7997 -17.4392 -31.7105 17.1644 
-10.0591 -31.7105 18.8235 -2.67906 -31.7105 20.6774 15.7444 -31.7105 13.7997 
12.081 -31.7105 19.8278 19.4611 -30.3171 13.7997 26.8411 -25.3524 13.7997 
-31.3344 -24.3304 13.7997 -32.1993 -22.4746 13.7997 -24.8192 -24.3304 18.2331 
-17.4392 -24.3304 21.0455 27.9054 -24.3304 13.7997 26.8411 -24.3304 16.4458 
-34.3215 -16.9504 13.7997 -32.1993 -16.9504 15.7098 -24.8192 -16.9504 20.5258 
33.8669 -16.9504 13.7997 34.2212 -16.4434 13.7997 -34.8307 -9.57031 13.7997 
-32.1993 -9.57031 16.1288 -24.8192 -9.57031 20.9296 38.9314 -9.57031 13.7997 
34.2212 -9.57031 19.3805 41.6012 -4.02175 13.7997 -33.7793 -2.19026 13.7997 
-32.1993 4.3749 13.7997 -32.1993 -2.19026 15.1528 -24.8192 -2.19026 20.2072 
42.3773 -2.19026 13.7997 41.6012 -2.19026 14.9146 -31.9548 5.1898 13.7997 
-24.8192 5.1898 18.3153 43.2495 5.1898 13.7997 41.6012 5.1898 15.9602 
-29.8301 12.5698 13.7997 -24.8192 12.5698 16.8998 -17.4392 12.5698 19.2262 
-10.0591 12.5698 21.1038 34.2212 12.5698 20.0268 41.71 12.5698 13.7997 
41.6012 12.7757 13.7997 41.6012 12.5698 13.9427 -27.1739 19.9499 13.7997 
-24.8192 23.21 13.7997 -24.8192 19.9499 15.2117 -17.4392 19.9499 17.334 
-10.0591 19.9499 18.7196 -2.67906 19.9499 20.7451 12.081 26.6034 13.7997 
12.081 19.9499 20.9669 19.4611 26.8207 13.7997 19.4611 19.9499 20.5243 
26.8411 25.9303 13.7997 26.8411 19.9499 19.2807 36.6075 19.9499 13.7997 
[...]
POINT_DATA 480
SCALARS ImageScalars float
LOOKUP_TABLE default
0 0 0 0 0 0 0 0 0 
0 0 0 0 0 0 0 0 0 
0 0 0 0 0 0 0 0 0 
0 0 0 0 0 0 0 0 0 
0 0 0 0 0 0 0 0 0 
0 0 0 0 0 0 0 0 0 
0 0 0 0 0 0 0 0 0 
0 0 0 0 0 0 0 0 0 
0 0 0 0 0 0 0 0 0 
0 0 0 0 0 0 0 0 0 
0 0 0 0 0 0 0 0 0 
0 0 0 0 0 0 0 0 0 
0 0 0 0 0 0 0 0 0 
0 0 0 0 0 0 0 0 0 
0 0 0 0 0 0 0 0 0 
0 0 0 0 0 0 0 0 0 
0 0 0 0 0 0 0 0 0 
0 0 0 0 0 0 0 0 0 
0 0 0 0 0 0 0 0 0 
0 0 0 0 0 0 0 0 0 
0 0 0 0 0 0 0 0 0 
0 0 0 0 0 0 0 0 0 
0 0 0 0 0 0 0 0 0 
0 0 0 0 0 0 0 0 0 
0 0 0 0 0 0 0 0 0 
0 0 0 0 0 0 0 0 0 
0 0 0 0 0 0 0 0 0 
0 0 0 0 0 0 0 0 0 
0 0 0 0 0 0 0 0 0 
0 0 0 0 0 0 0 0 0 
0 0 0 0 0 0 0 0 0 
0 0 0 0 0 0 0 0 0 
0 0 0 0 0 0 0 0 0 
0 0 0 0 0 0 0 0 0 
0 0 0 0 0 0 0 0 0 
0 0 0 0 0 0 0 0 0 
0 0 0 0 0 0 0 0 0 
0 0 0 0 0 0 0 0 0 
0 0 0 0 0 0 0 0 0 
0 0 0 0 0 0 0 0 0 
0 0 0 0 0 0 0 0 0 
0 0 0 0 0 0 0 0 0 
0 0 0 0 0 0 0 0 0 
0 0 0 0 0 0 0 0 0 
0 0 0 0 0 0 0 0 0 
0 0 0 0 0 0 0 0 0 
0 0 0 0 0 0 0 0 0 
0 0 0 0 0 0 0 0 0 
0 0 0 0 0 0 0 0 0 
0 0 0 0 0 0 0 0 0 
0 0 0 0 0 0 0 0 0 
0 0 0 0 0 0 0 0 0 
0 0 0 0 0 0 0 0 0 
0 0 0 
NORMALS Normals float
0.365987 0.683279 0.63181 0.137313 0.634629 0.76052 0.00577025 0.590125 0.807291 
-0.0340251 0.541869 0.839774 -0.0557664 0.561233 0.825777 -0.128258 0.658973 0.741151 
-0.365039 0.763757 0.532375 0.546678 0.433683 0.716283 0.267873 0.291979 0.918146 
0.0917957 0.218575 0.971493 -0.0574541 0.179436 0.982091 -0.0779999 0.168647 0.982585 
0.0196766 0.202462 0.979092 -0.000865379 0.26706 0.963679 -0.222232 0.329411 0.917661 
-0.515512 0.522274 0.679321 0.386958 0.176924 0.904965 0.178844 0.0473949 0.982735 
0.0302125 -0.012542 0.999465 -0.0614264 -0.0161634 0.997981 -0.0232016 0.0119732 0.999659 
0.0449038 0.0575009 0.997335 0.0318898 0.0514894 0.998164 -0.089617 0.0510293 0.994668 
-0.311554 0.203698 0.928138 -0.590396 0.458706 0.664095 0.52817 0.203448 0.824406 
0.234514 0.0810851 0.968725 0.0820199 -0.0314175 0.996135 0.0307908 -0.109576 0.993501 
-0.0326212 0.0322221 0.998948 -0.0105171 0.0454912 0.998909 0.0669886 -0.00993841 0.997704 
0.00192139 0.000705137 0.999998 -0.074835 -0.0388206 0.99644 -0.157581 0.0593662 0.98572 
-0.366084 0.207107 0.907243 0.488976 0.0892784 0.867716 0.153773 0.0440012 0.987126 
-0.0071204 -0.0075237 0.999946 0.087395 -0.0667513 0.993935 0.101174 0.0107099 0.994811 
-0.067379 0.0548858 0.996217 -0.000961942 -0.0278097 0.999613 0.00182649 -0.0152087 0.999883 
-0.0413053 -0.0180525 0.998984 -0.0799532 0.015779 0.996674 -0.264968 0.0639245 0.962136 
-0.597739 0.137698 0.789777 0.466481 0.0320771 0.88395 0.136353 0.0186444 0.990485 
-0.0283936 0.0405463 0.998774 0.0483417 0.0637381 0.996795 0.0895692 -0.0642797 0.993904 
-0.0484373 -0.0309255 0.998347 -0.000278428 0.0364009 0.999337 0.0115628 0.0226321 0.999677 
-0.0442171 0.00915207 0.99898 -0.0802173 -0.0431834 0.995842 -0.243572 -0.0769503 0.966825 
-0.578414 -0.08747 0.81104 0.480825 -0.112657 0.869549 0.174964 -0.0374335 0.983863 
0.0389847 0.063852 0.997198 -0.010732 0.0845389 0.996362 0.000601472 -0.0658101 0.997832 
0.0331819 -0.0953683 0.994889 0.0504881 -0.0165739 0.998587 -0.0241951 -0.00921617 0.999665 
-0.108074 -0.00832428 0.994108 -0.164797 -0.0860651 0.982565 -0.319901 -0.147557 0.93589 
0.626801 -0.311219 0.714327 0.296496 -0.150907 0.943036 0.0928838 -0.0914262 0.991471 
-0.0836671 -0.0638131 0.994448 -0.0930367 -0.128196 0.987375 -0.00173785 -0.220263 0.975439 
0.0843654 -0.271335 0.95878 0.0212272 -0.235435 0.971658 -0.120361 -0.191226 0.974138 
-0.211911 -0.210118 0.954434 -0.426094 -0.33102 0.841944 0.369115 -0.424316 0.826867 
0.123872 -0.346134 0.929971 -0.0431046 -0.275425 0.960356 -0.146631 -0.265946 0.952771 
-0.124129 -0.360949 0.924288 -0.00713809 -0.54484 0.83851 0.0494233 -0.648179 0.759883 
-0.0537793 -0.598038 0.799661 -0.292873 -0.551703 0.780929 0.260054 -0.605847 0.751879 
-0.000283485 -0.524794 0.851229 -0.205275 -0.525424 0.825707 0.369994 0.709231 0.60008 
0.150079 0.782636 0.604117 0.0254522 0.771513 0.635705 -0.0263341 0.735448 0.67707 
-0.0703114 0.738919 0.670116 -0.162866 0.760149 0.629006 -0.368431 0.772498 0.51721 
0.396653 0.694746 0.599995 0.579671 0.536865 0.612991 -0.377345 0.768628 0.516548 
-0.548591 0.634282 0.544733 0.627972 0.48243 0.610666 -0.603777 0.574911 0.552205 
-0.632783 0.512195 0.580725 0.675044 0.370819 0.637816 0.676881 0.359868 0.642127 
0.718143 0.390789 0.575808 -0.637964 0.500276 0.585428 0.698459 0.232381 0.676871 
-0.664704 0.353568 0.658147 -0.682381 0.291452 0.670382 -0.754548 0.417096 0.506644 
0.726722 0.0705725 0.683297 -0.676343 0.156141 0.719847 0.757499 0.0437504 0.651369 
-0.669456 -0.0850583 0.737966 -0.598324 -0.279681 0.750858 0.792477 -0.141037 0.593371 
-0.598062 -0.279999 0.750948 -0.59847 -0.28015 0.750566 0.727222 -0.355916 0.586917 
0.699339 -0.441401 0.562219 -0.579018 -0.379191 0.72177 -0.478699 -0.488111 0.729791 
-0.783516 -0.474863 0.400759 0.627437 -0.537579 0.563322 0.808954 -0.579353 0.0997207 
0.476986 -0.644784 0.597276 -0.221929 -0.542808 0.810005 -0.0948626 -0.653586 0.750884 
0.0127836 -0.797717 0.602896 -0.033442 -0.771501 0.635349 -0.391273 -0.589256 0.706882 
-0.276452 -0.669142 0.689799 -0.527456 -0.668492 0.524317 0.342859 -0.657922 0.670512 
0.604765 -0.770481 0.201539 0.282495 -0.654686 0.701129 0.00266006 -0.646744 0.762702 
-0.230346 -0.564109 0.79292 -0.209456 -0.569374 0.794948 -0.307989 -0.662235 0.683073 
-0.418751 -0.888118 0.189458 0.123944 -0.937636 0.324772 -0.197846 -0.911408 0.360821 
0.376849 0.900899 0.215328 0.179084 0.95885 0.220309 0.068951 0.973418 0.218413 
0.0368306 0.999175 -0.0170985 -0.0306714 0.977355 0.209371 -0.126216 0.978545 0.162846 
-0.257601 0.961991 0.0906386 -0.429743 0.902899 0.00974945 0.610719 0.764464 0.206437 
0.631985 0.747336 0.205143 0.649396 0.760278 0.0161932 -0.532955 0.846138 0.00304137 
-0.611998 0.790797 0.0099464 0.811407 0.556263 0.179419 0.843477 0.509945 0.168827 
-0.726203 0.686815 0.0302379 -0.747163 0.663031 0.0462358 0.891663 0.428159 0.147025 
-0.766205 0.636708 0.0867933 -0.808156 0.577247 0.116917 0.957305 0.284137 0.0532354 
-0.858611 0.490836 0.147874 0.993215 0.0958001 0.0659326 -0.951818 0.234565 0.197541 
0.998705 -0.0485556 0.0152138 -0.966977 -0.0487084 0.250168 0.979109 -0.198178 -0.0455092 
-0.915136 -0.297308 0.272277 0.926704 -0.375675 0.00942847 -0.818878 -0.491802 0.295922 
-0.793298 -0.536555 0.287729 0.819281 -0.573234 0.0134867 0.809175 -0.587351 0.0159454 
0.815829 -0.57488 -0.0627356 -0.0813033 -0.994594 0.0646017 0.0198634 -0.995023 0.0976471 
-0.210773 -0.958497 0.191988 -0.651414 -0.70465 0.281298 -0.519131 -0.815176 0.256888 
0.63827 -0.762525 0.105675 0.619904 -0.776462 0.113248 0.652352 -0.738235 -0.1716 
0.422016 -0.891013 0.167328 -0.420593 -0.853415 0.307871 -0.415141 -0.891221 0.182708 
-0.420692 -0.888132 0.185038 -0.431059 -0.888153 0.159287 0.208249 -0.945403 0.250689 
0.136599 -0.952606 0.271813 -0.230807 -0.91964 0.31779 -0.196963 -0.926884 0.319517 
0.0352507 0.998995 -0.0277001 0.650813 0.757334 -0.0537318 0.391897 0.919878 -0.0155279 
0.03841 0.9989 -0.0269147 0.161846 0.986809 0.00363207 0.0189973 0.999269 -0.0331864 
0.034511 0.998904 -0.0316051 -0.0808997 0.994533 -0.0660242 -0.220428 0.966764 -0.129535 
-0.347459 0.917972 -0.191309 -0.477492 0.851624 -0.21619 0.655419 0.753301 -0.0544332 
0.654921 0.751765 -0.0769861 -0.491948 0.843322 -0.216322 -0.475616 0.85977 -0.185968 
-0.605439 0.771233 -0.196579 0.838401 0.532326 -0.117102 0.870757 0.47284 -0.134922 
-0.65577 0.730027 -0.19242 -0.697667 0.692878 -0.182157 0.9202 0.35215 -0.170947 
-0.730653 0.665355 -0.153131 -0.782544 0.60507 -0.146683 0.942877 0.195806 -0.269525 
-0.831651 0.537536 -0.139326 0.931767 0.0367331 -0.361194 -0.949908 0.289118 -0.118683 
0.899519 -0.0949145 -0.426446 0.751511 -0.125438 -0.647685 -0.996066 -0.0165814 -0.0870514 
0.874714 -0.169353 -0.454088 0.772643 -0.170868 -0.611415 -0.957445 -0.278482 -0.0758135 
0.850184 -0.318142 -0.419492 0.803435 -0.457765 -0.380713 0.791547 -0.280124 -0.543124 
-0.867842 -0.491582 -0.0721006 -0.806229 -0.586001 -0.0812311 -0.786574 -0.50964 -0.348666 
0.76625 -0.536327 -0.353856 0.652466 -0.698203 -0.294619 0.626703 -0.455783 -0.632065 
-0.537763 -0.810867 -0.230881 -0.100598 -0.959505 -0.263115 0.102829 -0.969028 -0.224523 
-0.127479 -0.973643 -0.189123 -0.652285 -0.749755 -0.111318 -0.466646 -0.875117 -0.12811 
0.638504 -0.712378 -0.291257 0.484614 -0.832881 -0.267316 0.450884 -0.651833 -0.609768 
-0.550823 -0.804167 -0.223404 -0.465649 -0.869262 -0.165999 0.246339 -0.934974 -0.255227 
0.18318 -0.948647 -0.257904 0.179778 -0.934405 -0.307517 -0.237273 -0.951521 -0.195729 
-0.172925 -0.964641 -0.198911 -0.161517 -0.944875 -0.284821 0.421981 0.865297 -0.270542 
0.167521 0.959881 -0.224868 0.000120434 0.976401 -0.215967 -0.132876 0.965305 -0.224789 
-0.250962 0.945788 -0.206161 -0.352688 0.921018 -0.165337 0.614655 0.728861 -0.301598 
0.693208 0.646325 -0.318946 0.460347 0.66913 -0.583392 -0.422836 0.89638 -0.133091 
-0.472993 0.874195 -0.109824 -0.633116 0.766336 -0.109058 0.816495 0.454561 -0.355965 
0.874074 0.261315 -0.409523 0.688163 0.398153 -0.606553 -0.654235 0.747355 -0.115917 
-0.721361 0.667121 -0.185977 0.874203 0.260468 -0.409787 0.873901 0.260161 -0.410626 
-0.732854 0.648974 -0.204348 -0.765111 0.573188 -0.29336 -0.795325 0.545534 -0.264294 
0.853256 0.0646212 -0.517473 0.82997 0.0354109 -0.556683 -0.795879 0.544638 -0.264474 
-0.795726 0.544045 -0.266149 0.799408 -0.0671816 -0.597021 0.753231 -0.122012 -0.64634 
0.782164 -0.0791953 -0.618019 -0.909276 0.288444 -0.300029 0.749674 -0.125879 -0.649726 
0.60967 -0.160285 -0.776281 -0.947952 -0.00792769 -0.318314 0.736957 -0.172259 -0.653621 
0.622457 -0.166474 -0.764744 -0.902196 -0.283973 -0.324657 -0.78577 -0.506362 -0.355194 
0.707239 -0.263677 -0.655963 0.625046 -0.442294 -0.64319 0.63139 -0.2802 -0.723073 
-0.783151 -0.509955 -0.355838 0.61564 -0.454571 -0.643702 0.446075 -0.622853 -0.642706 
0.419081 -0.467389 -0.778408 -0.428281 -0.815883 -0.388471 -0.0560495 -0.95251 -0.299304 
-0.0416411 -0.925468 -0.37653 0.0864898 -0.938401 -0.33455 -0.0121326 -0.88054 -0.473817 
-0.122871 -0.906018 -0.405012 -0.183932 -0.829405 -0.5275 -0.47493 -0.774396 -0.418034 
-0.455219 -0.786005 -0.418296 -0.456842 -0.776316 -0.434314 0.4162 -0.644369 -0.641534 
0.196866 -0.754179 -0.626465 0.229156 -0.647063 -0.727184 -0.0958968 -0.788221 -0.607875 
-0.0539508 -0.676437 -0.734522 -0.440528 -0.761649 -0.475212 -0.400856 -0.771842 -0.493533 
-0.370939 -0.747439 -0.551126 0.22644 0.79806 -0.558413 0.0502129 0.870111 -0.490291 
-0.0620862 0.922746 -0.380376 -0.158215 0.953868 -0.255157 -0.26591 0.952738 -0.146906 
0.438443 0.663266 -0.606503 0.459826 0.639216 -0.616411 0.268897 0.653431 -0.707618 
0.150276 0.704586 -0.693524 0.121563 0.780435 -0.613306 -0.344709 0.930805 -0.121564 
-0.208349 0.915637 -0.343803 -0.435807 0.894107 -0.103176 -0.669693 0.726141 -0.155663 
0.650964 0.387362 -0.652838 0.672253 0.331645 -0.661882 0.432109 0.368474 -0.82311 
0.319646 0.303938 -0.897468 -0.696944 0.69729 -0.167496 -0.695432 0.660908 -0.282091 
0.703793 0.172735 -0.689085 0.635801 0.156787 -0.755761 0.407011 0.15647 -0.899922 
-0.77174 0.552141 -0.315527 -0.771133 0.546993 -0.325811 0.699331 -0.0246563 -0.714372 
0.63069 -0.0308807 -0.77542 0.453771 -0.0185915 -0.890924 -0.782059 0.459314 -0.421205 
-0.640134 0.336259 -0.690766 -0.828993 0.292456 -0.476696 0.655057 -0.131205 -0.744101 
0.610669 -0.157598 -0.776045 0.623152 -0.136525 -0.770093 0.50413 -0.15183 -0.850177 
-0.838625 0.235278 -0.491277 -0.815216 0.227372 -0.532658 0.60352 -0.161344 -0.780853 
0.462864 -0.19511 -0.86469 -0.840455 -0.038014 -0.540546 -0.782155 -0.046934 -0.621314 
0.550022 -0.171012 -0.817454 0.4097 -0.179468 -0.894392 0.251405 -0.26617 -0.930564 
0.270138 -0.368549 -0.889493 -0.459245 -0.311522 -0.831895 -0.768353 -0.318354 -0.555234 
-0.765322 -0.324154 -0.556064 -0.764681 -0.318986 -0.55992 0.470503 -0.285543 -0.83492 
0.405699 -0.36347 -0.838629 0.393985 -0.290371 -0.872044 0.210307 -0.277875 -0.937313 
0.209124 -0.30873 -0.927875 0.168555 -0.418897 -0.892252 -0.0412168 -0.901484 -0.430845 
-0.0533874 -0.5282 -0.84744 -0.0323416 -0.859146 -0.510708 -0.0928358 -0.513837 -0.85285 
-0.212579 -0.770108 -0.601451 -0.223271 -0.529512 -0.818393 -0.586016 -0.544719 -0.599889 
-0.494805 -0.616023 -0.612931 -0.497552 -0.540972 -0.67808 0.296298 -0.437175 -0.849167 
0.239132 -0.463608 -0.853161 0.2419 -0.423687 -0.872911 0.0265735 -0.550784 -0.834225 
0.0848487 -0.452227 -0.887858 -0.175187 -0.676144 -0.715639 -0.0777842 -0.621953 -0.779181 
-0.142683 -0.863514 -0.48372 -0.177435 -0.845424 -0.503761 -0.167711 -0.841122 -0.514186 
-0.00184656 0.882144 -0.470977 0.237462 0.529913 -0.814127 0.0750961 0.82211 -0.564354 
0.142793 0.755202 -0.63975 -0.106554 0.896765 -0.429486 0.00511321 0.868262 -0.49608 
-0.196037 0.896378 -0.397589 -0.488561 0.735978 -0.468662 0.318806 0.304896 -0.897441 
0.317981 0.29373 -0.901449 0.319052 0.339858 -0.884705 0.308695 0.377678 -0.872964 
-0.649943 0.555411 -0.518741 -0.509981 0.464679 -0.723874 -0.6751 0.441993 -0.590662 
0.372672 0.162754 -0.913579 0.299124 0.180728 -0.936943 0.325834 0.152238 -0.933089 
0.282014 0.0339518 -0.958809 -0.384584 0.086477 -0.91903 -0.667328 0.330143 -0.667592 
-0.604773 0.253644 -0.754927 0.442994 -0.0117427 -0.896448 0.324599 0.078594 -0.942581 
0.210662 0.0742872 -0.974732 0.173416 -0.0893677 -0.980785 -0.301273 -0.0368546 -0.952825 
-0.55042 0.241648 -0.799152 -0.415103 0.0960455 -0.90469 -0.534158 0.183676 -0.82519 
0.479884 -0.150184 -0.864382 0.393788 -0.131149 -0.909797 0.154735 -0.0781625 -0.984859 
0.0987377 -0.0734369 -0.9924 0.101551 -0.0827421 -0.991383 -0.0934093 -0.0815736 -0.99228 
-0.225025 -0.0437587 -0.97337 -0.298222 0.0257422 -0.954149 -0.527636 0.136591 -0.838417 
-0.492929 0.126617 -0.860808 0.393606 -0.294311 -0.870894 0.35584 -0.305 -0.883376 
0.381568 -0.312516 -0.869908 0.271162 -0.369141 -0.888935 0.270303 -0.336283 -0.902136 
0.17064 -0.199022 -0.965024 0.0827982 -0.200885 -0.976109 -0.0879681 -0.235346 -0.967923 
-0.189301 -0.169692 -0.967145 -0.261414 -0.121866 -0.957503 -0.490952 -0.0962707 -0.865851 
-0.446893 -0.190337 -0.874105 -0.443642 -0.101048 -0.890489 0.2692 -0.36875 -0.889694 
0.180783 -0.406449 -0.89561 0.221861 -0.349298 -0.910367 0.0597281 -0.37802 -0.923869 
-0.0531103 -0.515158 -0.855448 -0.054388 -0.401615 -0.914192 -0.0940889 -0.47266 -0.876207 
-0.102724 -0.346522 -0.9324 -0.36116 -0.30786 -0.880219 -0.221929 -0.405007 -0.886971 
-0.226412 -0.310106 -0.923348 0.0766835 -0.474916 -0.876684 -0.0254147 -0.516653 -0.855817 
0.0118801 -0.520788 -0.853603 0.0151117 -0.507482 -0.86153 0.133066 0.366256 -0.920951 
-0.191639 0.384163 -0.903157 0.133237 0.366114 -0.920982 0.133074 0.366108 -0.921008 
-0.210983 0.368011 -0.905568 -0.189989 0.36373 -0.911924 0.226148 0.0217713 -0.97385 
0.096153 -5.89464e-05 -0.995367 -0.252461 0.0275021 -0.967216 -0.15624 -0.00725183 -0.987693 
0.098114 -0.115839 -0.98841 0.0947797 -0.113246 -0.989036 0.0938137 -0.117003 -0.988691 
-0.132781 -0.0873846 -0.987286 -0.114698 -0.0875768 -0.989533 -0.121654 -0.0898141 -0.988501 

