# vtk DataFile Version 4.2
vtk output
ASCII
DATASET POLYDATA
POINTS 560 float
27.4817 15.0513 -21.7995 -22.2301 -42.9457 -13.8975 -13.9448 -42.9457 -15.2135 
-5.65948 -42.9457 -17.2728 2.62581 -42.9457 -17.6453 10.9111 -42.9457 -17.9799 
19.1964 -42.9457 -16.6302 -30.5153 -34.6604 -14.7141 -22.2301 -34.6604 -15.854 
-13.9448 -34.6604 -16.9803 -5.65948 -34.6604 -18.3526 2.62581 -34.6604 -19.3506 
10.9111 -34.6604 -20.2847 19.1964 -34.6604 -18.7294 27.4817 -34.6604 -17.8636 
35.767 -34.6604 -15.5827 -38.8006 -26.3751 -13.8017 -30.5153 -26.3751 -15.2463 
-22.2301 -26.3751 -16.2812 -13.9448 -26.3751 -16.8084 -5.65948 -26.3751 -17.8855 
2.62581 -26.3751 -19.047 10.9111 -26.3751 -19.6384 19.1964 -26.3751 -18.9112 
27.4817 -26.3751 -18.5539 35.767 -26.3751 -18.2985 44.0522 -26.3751 -16.0535 
-38.8006 -18.0898 -14.854 -30.5153 -18.0898 -15.8011 -22.2301 -18.0898 -15.7729 
-13.9448 -18.0898 -15.7485 -5.65948 -18.0898 -16.3259 2.62581 -18.0898 -17.8162 
10.9111 -18.0898 -17.6526 19.1964 -18.0898 -18.0376 27.4817 -18.0898 -18.5835 
35.767 -18.0898 -18.9696 44.0522 -18.0898 -18.266 52.3375 -18.0898 -15.2991 
-47.0859 -9.80451 -15.362 -38.8006 -9.80451 -16.6003 -30.5153 -9.80451 -16.6041 
-22.2301 -9.80451 -15.969 -13.9448 -9.80451 -16.2487 -5.65948 -9.80451 -18.059 
2.62581 -9.80451 -18.4215 10.9111 -9.80451 -16.2133 19.1964 -9.80451 -17.2738 
27.4817 -9.80451 -19.2481 35.767 -9.80451 -20.5485 44.0522 -9.80451 -19.7306 
52.3375 -9.80451 -17.367 -47.0859 -1.51923 -15.82 -38.8006 -1.51923 -17.196 
-30.5153 -1.51923 -17.0587 -22.2301 -1.51923 -16.2709 -13.9448 -1.51923 -17.904 
-5.65948 -1.51923 -18.6701 2.62581 -1.51923 -16.5839 10.9111 -1.51923 -20.3162 
19.1964 -1.51923 -18.919 27.4817 -1.51923 -20.3243 35.767 -1.51923 -21.1741 
44.0522 -1.51923 -20.8014 52.3375 -1.51923 -18.6158 -47.0859 6.76606 -16.2892 
-38.8006 6.76606 -17.843 -30.5153 6.76606 -18.0687 -22.2301 6.76606 -17.2366 
-13.9448 6.76606 -17.2293 -5.65948 6.76606 -20.0575 2.62581 6.76606 -20.4138 
10.9111 6.76606 -19.6437 19.1964 6.76606 -19.5286 27.4817 14.569 -21.7547 
27.4817 6.76606 -21.008 35.767 6.76606 -21.7526 44.0522 6.76606 -21.3891 
52.3375 6.76606 -19.3262 60.6228 6.76606 -13.9902 -47.0859 15.0513 -16.3831 
-38.8006 15.0513 -18.1866 -30.5153 15.0513 -18.9655 -22.2301 15.0513 -18.0445 
-13.9448 15.0513 -16.6425 -5.65948 15.0513 -16.9726 2.62581 15.0513 -20.3346 
10.9111 15.0513 -19.7242 27.2176 15.0513 -21.7547 19.1964 15.0513 -20.2633 
29.0142 15.0513 -21.7547 27.4817 15.3891 -21.7547 35.767 15.0513 -21.5646 
44.0522 15.0513 -20.7367 52.3375 15.0513 -18.0011 -47.0859 23.3366 -14.5544 
-38.8006 23.3366 -17.2018 -30.5153 23.3366 -17.9973 -22.2301 23.3366 -17.9949 
-13.9448 23.3366 -17.4852 -5.65948 23.3366 -17.7915 2.62581 23.3366 -19.862 
10.9111 23.3366 -21.1567 19.1964 23.3366 -21.2633 27.4817 23.3366 -20.7734 
35.767 23.3366 -20.3337 44.0522 23.3366 -18.9195 52.3375 23.3366 -14.1787 
-38.8006 31.6219 -14.8281 -30.5153 31.6219 -16.8736 -22.2301 31.6219 -17.274 
-13.9448 31.6219 -18.0157 -5.65948 31.6219 -18.7073 2.62581 31.6219 -20.3307 
10.9111 31.6219 -20.8135 19.1964 31.6219 -20.9028 27.4817 31.6219 -18.8912 
35.767 31.6219 -17.0275 -22.2301 39.9072 -15.6458 -13.9448 39.9072 -16.8722 
-5.65948 39.9072 -17.6487 2.62581 39.9072 -18.5048 10.9111 39.9072 -17.8743 
19.1964 39.9072 -16.3738 -22.2301 -43.6838 -13.4694 -13.9448 -45.4573 -13.4694 
-5.65948 -47.5794 -13.4694 2.62581 -48.4457 -13.4694 2.62581 -51.2309 -6.13573 
10.9111 -47.6122 -13.4694 19.1964 -46.15 -13.4694 -23.2882 -42.9457 -13.4694 
-30.5153 -37.2701 -13.4694 -30.5153 -42.9457 -9.25616 26.942 -42.9457 -13.4694 
27.4817 -42.5563 -13.4694 27.4817 -42.9457 -12.8697 35.767 -37.6958 -13.4694 
-47.0859 -34.6604 -5.79249 -33.2651 -34.6604 -13.4694 -38.8006 -27.307 -13.4694 
-38.8006 -34.6604 -10.1827 39.87 -34.6604 -13.4694 44.0522 -30.911 -13.4694 
44.0522 -34.6604 -9.18575 -39.6009 -26.3751 -13.4694 -47.0859 -26.3751 -9.65022 
48.3956 -26.3751 -13.4694 52.3375 -21.0854 -13.4694 52.3375 -26.3751 -8.97011 
-55.3712 -18.0898 -8.39165 -46.0637 -18.0898 -13.4694 -47.0859 -17.3642 -13.4694 
-47.0859 -18.0898 -13.2446 54.4097 -18.0898 -13.4694 -51.1796 -9.80451 -13.4694 
-55.3712 -9.80451 -11.0122 58.9487 -9.80451 -13.4694 60.6228 -9.80451 -11.0212 
-53.1076 -1.51923 -13.4694 -55.3712 -1.51923 -12.4337 60.1015 -1.51923 -13.4694 
60.6228 2.38507 -13.4694 60.6228 -1.51923 -12.8765 -53.541 6.76606 -13.4694 
-55.3712 6.76606 -12.51 61.0535 6.76606 -13.4694 60.6228 8.78351 -13.4694 
-52.3816 15.0513 -13.4694 -55.3712 15.0513 -11.0247 58.8837 15.0513 -13.4694 
60.6228 15.0513 -10.7831 -49.0209 23.3366 -13.4694 -55.3712 23.3366 -8.76581 
-47.0859 25.4955 -13.4694 44.0522 30.8769 -13.4694 53.2018 23.3366 -13.4694 
52.3375 24.2503 -13.4694 -41.7278 31.6219 -13.4694 -47.0859 31.6219 -9.77462 
-38.8006 34.0575 -13.4694 -30.5153 38.9551 -13.4694 27.4817 38.8264 -13.4694 
42.8478 31.6219 -13.4694 35.767 35.2392 -13.4694 44.0522 31.6219 -12.4107 
-38.8006 39.9072 -7.97011 -29.1895 39.9072 -13.4694 -30.5153 39.9072 -12.8226 
-22.2301 42.7799 -13.4694 -13.9448 44.1481 -13.4694 -5.65948 45.5663 -13.4694 
2.62581 45.6104 -13.4694 10.9111 44.2576 -13.4694 25.4203 39.9072 -13.4694 
19.1964 42.4182 -13.4694 27.4817 39.9072 -11.261 -13.9448 48.1925 -6.4001 
-5.65948 48.1925 -6.37862 2.62581 -51.4934 -5.18408 -30.5153 -46.8766 -5.18408 
-22.2301 -49.9538 -5.18408 -13.9448 -51.2103 -5.18408 -2.32321 -51.2309 -5.18408 
-5.65948 -51.0537 -5.18408 4.60887 -51.2309 -5.18408 2.62581 -51.2309 -4.30692 
10.9111 -50.3089 -5.18408 19.1964 -48.5137 -5.18408 27.4817 -45.548 -5.18408 
-47.0859 -35.2469 -5.18408 -38.569 -42.9457 -5.18408 -38.8006 -42.7852 -5.18408 
-38.8006 -42.9457 -4.19313 33.9859 -42.9457 -5.18408 35.767 -42.1981 -5.18408 
44.0522 -36.9385 -5.18408 -47.6754 -34.6604 -5.18408 46.8511 -34.6604 -5.18408 
52.3375 -29.1534 -5.18408 -53.9665 -26.3751 -5.18408 -55.3712 -24.0414 -5.18408 
-55.3712 -26.3751 -2.15954 54.6511 -26.3751 -5.18408 -58.0467 -18.0898 -5.18408 
59.8787 -18.0898 -5.18408 60.6228 -16.2747 -5.18408 -61.5745 -9.80451 -5.18408 
63.0157 -9.80451 -5.18408 -62.9614 -1.51923 -5.18408 -63.6565 -1.51923 -2.05093 
64.7263 -1.51923 -5.18408 -62.4874 6.76606 -5.18408 65.2804 6.76606 -5.18408 
-60.6976 15.0513 -5.18408 63.0034 15.0513 -5.18408 60.6228 19.5645 -5.18408 
-57.6634 23.3366 -5.18408 -55.3712 26.7941 -5.18408 58.2243 23.3366 -5.18408 
52.3375 29.1315 -5.18408 -51.25 31.6219 -5.18408 -47.0859 35.6228 -5.18408 
35.767 38.8462 -5.18408 49.0732 31.6219 -5.18408 44.0522 34.9633 -5.18408 
-41.561 39.9072 -5.18408 -38.8006 41.6584 -5.18408 -30.5153 45.3643 -5.18408 
-22.2301 47.4574 -5.18408 2.62581 47.6541 -5.18408 10.9111 46.649 -5.18408 
19.1964 44.702 -5.18408 33.1521 39.9072 -5.18408 27.4817 42.0285 -5.18408 
-17.1996 48.1925 -5.18408 -13.9448 48.6163 -5.18408 -13.9448 48.1925 -1.86037 
-2.47685 48.1925 -5.18408 -5.65948 48.5264 -5.18408 -5.65948 48.1925 -3.236 
-38.8006 -43.6011 3.1012 -30.5153 -47.1404 3.1012 -22.2301 -48.7749 3.1012 
-13.9448 -49.1099 3.1012 -5.65948 -48.7844 3.1012 2.62581 -48.6039 3.1012 
10.9111 -47.5376 3.1012 19.1964 -45.8778 3.1012 27.4817 -43.3999 3.1012 
-39.8681 -42.9457 3.1012 -47.0859 -37.7689 3.1012 -38.8006 -42.9457 4.66611 
-30.5153 -42.9457 10.2101 -22.2301 -42.9457 10.8789 -13.9448 -42.9457 10.5505 
-5.65948 -42.9457 10.5198 2.62581 -42.9457 10.717 10.9111 -42.9457 9.97295 
19.1964 -42.9457 8.01362 28.6918 -42.9457 3.1012 27.4817 -42.9457 3.86407 
35.767 -40.0997 3.1012 44.0522 -35.2503 3.1012 -50.4495 -34.6604 3.1012 
-55.3712 -28.6337 3.1012 35.767 -34.6604 9.81389 44.8132 -34.6604 3.1012 
44.0522 -34.6604 3.99453 52.3375 -27.476 3.1012 -56.9956 -26.3751 3.1012 
-55.3712 -26.3751 8.1806 53.2985 -26.3751 3.1012 52.3375 -26.3751 4.50615 
-60.8964 -18.0898 3.1012 59.0196 -18.0898 3.1012 60.6228 -14.3034 3.1012 
-63.0697 -9.80451 3.1012 -63.6565 -6.55347 3.1012 62.3302 -9.80451 3.1012 
60.6228 -9.80451 6.20068 -64.5651 -1.51923 3.1012 -63.6565 6.47954 3.1012 
-63.6565 -1.51923 5.1235 64.25 -1.51923 3.1012 60.6228 -1.51923 9.70757 
-63.6242 6.76606 3.1012 64.839 6.76606 3.1012 60.6228 6.76606 11.3182 
-62.2265 15.0513 3.1012 62.5544 15.0513 3.1012 60.6228 18.7227 3.1012 
60.6228 15.0513 6.83778 -58.7684 23.3366 3.1012 -55.3712 28.5066 3.1012 
57.7377 23.3366 3.1012 52.3375 28.946 3.1012 -53.002 31.6219 3.1012 
-47.0859 37.1067 3.1012 35.767 39.342 3.1012 49.0116 31.6219 3.1012 
44.0522 35.0372 3.1012 44.0522 31.6219 10.937 -43.1158 39.9072 3.1012 
-38.8006 42.5182 3.1012 -38.8006 39.9072 9.99876 -30.5153 45.7016 3.1012 
-22.2301 47.0726 3.1012 -13.9448 47.5072 3.1012 -5.65948 47.1183 3.1012 
2.62581 46.619 3.1012 10.9111 45.6567 3.1012 19.1964 44.519 3.1012 
34.3461 39.9072 3.1012 27.4817 42.4572 3.1012 -47.0859 -34.6781 11.3865 
-38.8006 -39.3784 11.3865 -30.5153 -42.012 11.3865 -22.2301 -42.398 11.3865 
-13.9448 -41.85 11.3865 -5.65948 -41.7583 11.3865 2.62581 -42.2375 11.3865 
10.9111 -41.5961 11.3865 19.1964 -39.9688 11.3865 27.4817 -36.9896 11.3865 
-47.1054 -34.6604 11.3865 -47.0859 -34.6604 11.4053 -38.8006 -34.6604 15.4393 
-30.5153 -34.6604 17.2035 -22.2301 -34.6604 16.9268 -13.9448 -34.6604 15.6935 
-5.65948 -34.6604 15.0787 2.62581 -34.6604 16.0378 10.9111 -34.6604 16.1233 
19.1964 -34.6604 15.2932 32.4167 -34.6604 11.3865 27.4817 -34.6604 13.2139 
35.767 -32.6307 11.3865 44.0522 -26.8256 11.3865 -53.8618 -26.3751 11.3865 
-55.3712 -23.9128 11.3865 -47.0859 -26.3751 15.7524 -38.8006 -26.3751 19.6534 
-13.9448 -26.3751 18.3424 -5.65948 -26.3751 17.1172 2.62581 -26.3751 17.9317 
10.9111 -26.3751 18.465 19.1964 -26.3751 18.0558 27.4817 -26.3751 17.0162 
35.767 -26.3751 15.0818 44.5515 -26.3751 11.3865 44.0522 -26.3751 11.7061 
52.3375 -19.2812 11.3865 -57.6581 -18.0898 11.3865 -55.3712 -18.0898 13.6748 
-47.0859 -18.0898 17.5668 -5.65948 -18.0898 18.2953 2.62581 -18.0898 18.4018 
10.9111 -18.0898 19.0835 19.1964 -18.0898 18.9595 27.4817 -18.0898 18.5681 
35.767 -18.0898 17.6944 44.0522 -18.0898 15.7079 53.2041 -18.0898 11.3865 
[...]
POINT_DATA 560
SCALARS ImageScalars float
LOOKUP_TABLE default
0 0 0 0 0 0 0 0 0 
0 0 0 0 0 0 0 0 0 
0 0 0 0 0 0 0 0 0 
0 0 0 0 0 0 0 0 0 
0 0 0 0 0 0 0 0 0 
0 0 0 0 0 0 0 0 0 
0 0 0 0 0 0 0 0 0 
0 0 0 0 0 0 0 0 0 
0 0 0 0 0 0 0 0 0 
0 0 0 0 0 0 0 0 0 
0 0 0 0 0 0 0 0 0 
0 0 0 0 0 0 0 0 0 
0 0 0 0 0 0 0 0 0 
0 0 0 0 0 0 0 0 0 
0 0 0 0 0 0 0 0 0 
0 0 0 0 0 0 0 0 0 
0 0 0 0 0 0 0 0 0 
0 0 0 0 0 0 0 0 0 
0 0 0 0 0 0 0 0 0 
0 0 0 0 0 0 0 0 0 
0 0 0 0 0 0 0 0 0 
0 0 0 0 0 0 0 0 0 
0 0 0 0 0 0 0 0 0 
0 0 0 0 0 0 0 0 0 
0 0 0 0 0 0 0 0 0 
0 0 0 0 0 0 0 0 0 
0 0 0 0 0 0 0 0 0 
0 0 0 0 0 0 0 0 0 
0 0 0 0 0 0 0 0 0 
0 0 0 0 0 0 0 0 0 
0 0 0 0 0 0 0 0 0 
0 0 0 0 0 0 0 0 0 
0 0 0 0 0 0 0 0 0 
0 0 0 0 0 0 0 0 0 
0 0 0 0 0 0 0 0 0 
0 0 0 0 0 0 0 0 0 
0 0 0 0 0 0 0 0 0 
0 0 0 0 0 0 0 0 0 
0 0 0 0 0 0 0 0 0 
0 0 0 0 0 0 0 0 0 
0 0 0 0 0 0 0 0 0 
0 0 0 0 0 0 0 0 0 
0 0 0 0 0 0 0 0 0 
0 0 0 0 0 0 0 0 0 
0 0 0 0 0 0 0 0 0 
0 0 0 0 0 0 0 0 0 
0 0 0 0 0 0 0 0 0 
0 0 0 0 0 0 0 0 0 
0 0 0 0 0 0 0 0 0 
0 0 0 0 0 0 0 0 0 
0 0 0 0 0 0 0 0 0 
0 0 0 0 0 0 0 0 0 
0 0 0 0 0 0 0 0 0 
0 0 0 0 0 0 0 0 0 
0 0 0 0 0 0 0 0 0 
0 0 0 0 0 0 0 0 0 
0 0 0 0 0 0 0 0 0 
0 0 0 0 0 0 0 0 0 
0 0 0 0 0 0 0 0 0 
0 0 0 0 0 0 0 0 0 
0 0 0 0 0 0 0 0 0 
0 0 0 0 0 0 0 0 0 
0 0 
NORMALS Normals float
-0.0712204 0.0201717 -0.997257 -0.26844 -0.402656 -0.875105 -0.191694 -0.399935 -0.896273 
-0.13907 -0.413229 -0.899945 -0.0365618 -0.430954 -0.901633 0.0541749 -0.527634 -0.847743 
0.270797 -0.567512 -0.77756 -0.28472 -0.259653 -0.922776 -0.143165 -0.145074 -0.979008 
-0.143492 -0.0794576 -0.986457 -0.147059 -0.0255221 -0.988798 -0.111463 -0.0798499 -0.990555 
0.0360967 -0.0742004 -0.99659 0.13563 -0.118884 -0.983601 0.193388 -0.279908 -0.940347 
0.338164 -0.452569 -0.825122 -0.289545 -0.23758 -0.92721 -0.155505 -0.0697316 -0.985371 
-0.0914795 0.00628672 -0.995787 -0.0960143 0.0690769 -0.99298 -0.13325 0.114247 -0.984475 
-0.102668 0.0923461 -0.99042 0.00856825 0.160002 -0.98708 0.0620817 0.0422855 -0.997175 
0.0356669 -0.0376822 -0.998653 0.159062 -0.214134 -0.963767 0.37461 -0.35025 -0.858483 
-0.134607 -0.161885 -0.977586 -0.0530779 -0.0800525 -0.995376 0.00305524 0.0188123 -0.999818 
-0.0322435 0.0409858 -0.998639 -0.127355 0.017514 -0.991703 -0.074447 0.0408983 -0.996386 
-0.0135367 0.182163 -0.983175 -0.0566513 0.0974983 -0.993622 -0.0557898 -0.0414884 -0.99758 
0.0143413 -0.129491 -0.991477 0.179773 -0.236258 -0.954916 0.515828 -0.364311 -0.77537 
-0.288144 -0.133212 -0.948276 -0.0793186 -0.140708 -0.986869 0.0375985 -0.075733 -0.996419 
0.024801 -0.0301969 -0.999236 -0.109473 -0.126489 -0.985909 -0.125243 -0.143268 -0.981727 
0.0971804 0.0405074 -0.994442 0.0686854 -0.13695 -0.988194 -0.176643 -0.0502577 -0.982991 
-0.188064 -0.104225 -0.976611 -0.0274549 -0.133188 -0.99071 0.179563 -0.138551 -0.973941 
0.40327 -0.161908 -0.900644 -0.250617 -0.0550338 -0.966521 -0.0703702 -0.072652 -0.994872 
0.0558189 -0.0885181 -0.994509 -0.0356132 -0.0764449 -0.996438 -0.147875 -0.0486726 -0.987808 
0.0559467 -0.120183 -0.991174 -0.131248 -0.113332 -0.98485 -0.0776925 -0.176562 -0.981218 
-0.0136727 -0.134826 -0.990775 -0.131484 -0.105226 -0.985718 -0.0285471 -0.0713321 -0.997044 
0.142022 -0.10068 -0.98473 0.385552 -0.112788 -0.915767 -0.278663 -0.0330596 -0.95982 
-0.101999 -0.0607754 -0.992926 0.036546 -0.114089 -0.992798 0.0502972 -0.105282 -0.99317 
-0.151641 0.0730028 -0.985736 -0.193381 0.109492 -0.974995 0.0295363 -0.176574 -0.983844 
0.0466564 0.0305346 -0.998444 -0.0827788 -0.0767152 -0.993611 -0.0748155 0.0139362 -0.9971 
-0.132736 -0.087543 -0.987278 -0.0232624 -0.0227336 -0.999471 0.135144 0.00601233 -0.990808 
0.359637 0.0357766 -0.932406 0.753019 0.0516164 -0.655971 -0.355024 0.0780103 -0.931597 
-0.15553 0.0330594 -0.987278 0.00441338 0.00370173 -0.999983 0.138871 -0.0464112 -0.989222 
0.069468 -0.0193073 -0.997397 -0.223622 0.118284 -0.967472 -0.145793 0.0346635 -0.988708 
0.00285516 -0.0935716 -0.995608 -0.0728396 0.0162219 -0.997212 -0.125641 -0.10267 -0.986749 
-0.0457169 0.0308944 -0.998477 -0.066146 0.0258195 -0.997476 0.0636301 0.0774108 -0.994967 
0.198678 0.127758 -0.971702 0.448827 0.251384 -0.857531 -0.398831 0.332532 -0.854609 
-0.174835 0.205105 -0.962998 -0.0441802 0.119655 -0.991832 0.0310411 0.0460458 -0.998457 
0.012486 -0.0802735 -0.996695 -0.144155 -0.0952217 -0.984963 -0.204589 -0.000817393 -0.978848 
-0.0830335 -0.0626396 -0.994576 0.0271723 -0.0388732 -0.998875 0.0495638 0.15674 -0.986395 
0.10553 0.238598 -0.965367 0.305533 0.388228 -0.869442 0.558109 0.50542 -0.658077 
-0.320394 0.383101 -0.866361 -0.146488 0.283727 -0.94765 -0.065396 0.13795 -0.988278 
-0.0851902 0.0243726 -0.996067 -0.135963 0.00944016 -0.990669 -0.124907 0.0762484 -0.989234 
-0.0328196 0.169913 -0.984912 0.106561 0.233354 -0.966535 0.201163 0.39835 -0.894903 
0.305163 0.564437 -0.766998 -0.211935 0.44609 -0.869533 -0.12745 0.406959 -0.904511 
-0.0924294 0.375919 -0.922031 -0.0228062 0.455991 -0.889692 0.118776 0.57955 -0.806234 
0.2487 0.69069 -0.679041 -0.268168 -0.440787 -0.856617 -0.162899 -0.557251 -0.814208 
-0.133467 -0.705444 -0.696086 0.00295222 -0.783233 -0.621721 0.039459 -0.998093 -0.0474673 
0.125157 -0.808583 -0.574917 0.259349 -0.789509 -0.556249 -0.279035 -0.42265 -0.862268 
-0.309003 -0.351795 -0.883605 -0.395583 -0.650838 -0.648016 0.400927 -0.68027 -0.613588 
0.401865 -0.668169 -0.626143 0.409481 -0.709422 -0.573624 0.396724 -0.595255 -0.698772 
-0.612431 -0.589074 -0.527181 -0.334668 -0.28886 -0.896971 -0.306058 -0.249113 -0.918842 
-0.452383 -0.390547 -0.801762 0.4481 -0.551398 -0.703681 0.476287 -0.511482 -0.715218 
0.592337 -0.713772 -0.373719 -0.305244 -0.247859 -0.919452 -0.475004 -0.361433 -0.802333 
0.529474 -0.432737 -0.729655 0.578281 -0.42616 -0.695686 0.727207 -0.562467 -0.393447 
-0.66342 -0.340557 -0.666254 -0.267255 -0.309962 -0.912413 -0.287436 -0.316268 -0.904077 
-0.291873 -0.333045 -0.8966 0.599016 -0.403628 -0.691567 -0.416162 -0.143258 -0.897934 
-0.581563 -0.174865 -0.794485 0.69907 -0.226656 -0.67818 0.829135 -0.254646 -0.497685 
-0.427181 -0.0689935 -0.90153 -0.522985 -0.0788119 -0.848691 0.727165 -0.0832101 -0.681401 
0.754941 -0.0203604 -0.655477 0.765188 -0.0871518 -0.637881 -0.481112 0.031815 -0.876082 
-0.562859 0.0632367 -0.82413 0.771774 0.0528873 -0.633694 0.76761 0.116998 -0.630148 
-0.541113 0.119011 -0.832486 -0.676236 0.160326 -0.719027 0.71488 0.303544 -0.629927 
0.821722 0.338521 -0.45845 -0.460476 0.348381 -0.816451 -0.738774 0.39872 -0.543356 
-0.437186 0.388569 -0.8111 0.438669 0.654961 -0.615301 0.580034 0.520358 -0.626728 
0.567214 0.541925 -0.62015 -0.398615 0.426557 -0.811884 -0.576151 0.553891 -0.601044 
-0.354551 0.469752 -0.808472 -0.305921 0.517227 -0.799305 0.348204 0.76048 -0.54811 
0.432195 0.665063 -0.609014 0.347069 0.734553 -0.583074 0.45676 0.696668 -0.553195 
-0.458857 0.759233 -0.461536 -0.305505 0.535475 -0.787359 -0.329995 0.57051 -0.752078 
-0.202198 0.624743 -0.754196 -0.139017 0.668734 -0.73039 -0.0651797 0.768555 -0.636455 
0.0747976 0.844988 -0.529528 0.183838 0.832372 -0.522839 0.342291 0.77939 -0.524774 
0.277162 0.814086 -0.510338 0.355717 0.832249 -0.425237 -0.071016 0.980581 -0.182805 
0.0477224 0.991798 -0.118569 0.0428481 -0.999026 0.0105465 -0.427929 -0.837538 -0.339715 
-0.221643 -0.960799 -0.166551 -0.0589395 -0.993479 -0.0976036 0.00606888 -0.999965 -0.00578185 
-0.0169766 -0.999648 -0.0203902 0.071323 -0.997265 0.0194021 0.0459952 -0.997187 0.0591756 
0.167359 -0.985368 0.0322762 0.27259 -0.961691 0.0290523 0.35567 -0.934457 -0.0169917 
-0.622608 -0.608588 -0.491914 -0.549942 -0.75473 -0.357696 -0.552673 -0.750967 -0.361389 
-0.551439 -0.78103 -0.293099 0.419917 -0.905415 -0.0623984 0.447885 -0.890794 -0.0767135 
0.600225 -0.791194 -0.117223 -0.629197 -0.599335 -0.494883 0.647323 -0.751702 -0.126158 
0.747209 -0.648417 -0.145715 -0.682402 -0.475317 -0.555339 -0.716583 -0.455563 -0.528178 
-0.784342 -0.523807 -0.332316 0.786049 -0.59633 -0.162838 -0.774427 -0.370369 -0.512922 
0.884279 -0.437383 -0.163542 0.901521 -0.404217 -0.154491 -0.861833 -0.236049 -0.448915 
0.946523 -0.286856 -0.147676 -0.905626 -0.0436186 -0.421828 -0.978237 -0.0400762 -0.203584 
0.972792 -0.129509 -0.192101 -0.913651 0.111976 -0.390773 0.976888 0.10111 -0.188327 
-0.868604 0.271897 -0.414245 0.921178 0.352386 -0.165093 0.853208 0.495566 -0.162637 
-0.828573 0.439302 -0.347104 -0.787609 0.508711 -0.347685 0.766547 0.618444 -0.173008 
0.626755 0.761513 -0.165156 -0.695863 0.613894 -0.372706 -0.607205 0.709188 -0.358267 
0.401038 0.896563 -0.187997 0.564102 0.808719 -0.166619 0.48341 0.859958 -0.163669 
-0.509662 0.79761 -0.322588 -0.468228 0.826249 -0.31317 -0.329515 0.90859 -0.256679 
-0.183528 0.96481 -0.188303 0.113327 0.992718 -0.0408331 0.176263 0.982351 -0.0625967 
0.262574 0.958454 -0.111446 0.379662 0.907036 -0.182052 0.322 0.931175 -0.170967 
-0.105469 0.984715 -0.138606 -0.0601328 0.991914 -0.111758 -0.0374552 0.999259 0.0088859 
0.0795561 0.995734 -0.0467303 0.0571416 0.997035 -0.0515416 0.0585869 0.998282 0.00061405 
-0.472137 -0.869572 0.144677 -0.279761 -0.936895 0.209671 -0.118786 -0.928069 0.352957 
-0.000195447 -0.901188 0.433428 0.0278869 -0.889562 0.455962 0.0726007 -0.874542 0.479484 
0.150173 -0.88935 0.431862 0.227459 -0.88699 0.401885 0.308308 -0.868732 0.387622 
-0.496144 -0.858226 0.13149 -0.655536 -0.75472 0.0258846 -0.457679 -0.863879 0.210341 
-0.162123 -0.785757 0.596911 -0.00971716 -0.707738 0.706408 0.0146281 -0.658777 0.752196 
-0.00637789 -0.646489 0.762897 0.0193417 -0.706195 0.707753 0.0949575 -0.750816 0.65365 
0.209214 -0.803184 0.557786 0.327043 -0.862609 0.385938 0.308853 -0.85718 0.412132 
0.422928 -0.811879 0.402473 0.56171 -0.745338 0.359099 -0.716913 -0.697035 0.013342 
-0.821011 -0.570907 0.00227473 0.365907 -0.641378 0.67435 0.573133 -0.737984 0.356229 
0.554736 -0.731744 0.396004 0.695942 -0.637017 0.331472 -0.849384 -0.527649 0.0115231 
-0.795135 -0.511667 0.325512 0.712249 -0.619701 0.329654 0.681948 -0.617287 0.392307 
-0.944182 -0.326368 0.0447696 0.843489 -0.447422 0.297221 0.879188 -0.376736 0.291717 
-0.969621 -0.207558 0.12944 -0.981014 -0.142565 0.13148 0.911056 -0.295099 0.287911 
0.848629 -0.296226 0.438268 -0.989926 -0.034075 0.137422 -0.982255 0.127073 0.137942 
-0.962954 -0.0335671 0.267567 0.953022 -0.142813 0.26712 0.781381 -0.159092 0.603435 
-0.981521 0.132484 0.138075 0.959615 0.0981854 0.263628 0.751879 0.0812484 0.654276 
-0.952526 0.28197 0.114837 0.902212 0.34944 0.252796 0.851758 0.462369 0.246421 
0.831679 0.35424 0.427578 -0.87925 0.466866 0.0946324 -0.821013 0.564499 0.0853193 
0.762687 0.604897 0.228927 0.648416 0.73803 0.186732 -0.761942 0.64243 0.0820232 
-0.603453 0.791648 0.0955929 0.41719 0.903513 0.0980634 0.581337 0.795535 0.170797 
0.508795 0.847459 0.151461 0.52153 0.677869 0.51817 -0.51362 0.851257 0.107501 
-0.433293 0.89291 0.122346 -0.387302 0.799895 0.458438 -0.274879 0.946715 0.167843 
-0.101733 0.974439 0.200299 -0.00218979 0.979148 0.203136 0.0525711 0.982034 0.181232 
0.0872836 0.985857 0.143065 0.123405 0.986057 0.111634 0.183931 0.981135 0.0595218 
0.396855 0.913572 0.0888346 0.291061 0.954931 0.0582349 -0.572602 -0.631523 0.522786 
-0.338639 -0.73301 0.589933 -0.133345 -0.730036 0.670274 0.00103077 -0.683732 0.729732 
0.0233286 -0.613071 0.789683 -0.0145834 -0.587378 0.809181 0.0102055 -0.671097 0.741299 
0.0858492 -0.685147 0.723328 0.188167 -0.66824 0.719756 0.273009 -0.622671 0.733312 
-0.573064 -0.631158 0.522721 -0.57244 -0.630908 0.523707 -0.277639 -0.540483 0.794226 
-0.0756181 -0.465108 0.882019 0.0843923 -0.446459 0.890815 0.099131 -0.396855 0.912513 
-0.0227272 -0.34157 0.939582 -0.0611102 -0.362953 0.929801 0.037852 -0.410243 0.911191 
0.156959 -0.462645 0.872539 0.316532 -0.594449 0.739215 0.253595 -0.547948 0.797147 
0.342327 -0.569047 0.747661 0.435759 -0.521293 0.733735 -0.694228 -0.458016 0.55522 
-0.734035 -0.383464 0.560489 -0.473419 -0.307147 0.825552 -0.236109 -0.235331 0.9428 
0.158446 -0.246722 0.956046 0.0232139 -0.189429 0.98162 -0.0783688 -0.137512 0.987395 
-0.00662614 -0.170844 0.985276 0.0839839 -0.193056 0.977587 0.164908 -0.291784 0.942161 
0.270472 -0.395959 0.877532 0.442849 -0.51743 0.732224 0.431908 -0.510942 0.743232 
0.5744 -0.401975 0.713078 -0.767321 -0.194172 0.61116 -0.682089 -0.173754 0.710326 
-0.35321 -0.135649 0.925658 0.102555 -0.248772 0.963117 -0.0469055 -0.149624 0.98763 
-0.0331249 -0.160353 0.986504 0.0321596 -0.0810569 0.99619 0.0752932 -0.140939 0.987151 
0.165101 -0.222989 0.960738 0.308104 -0.297413 0.903669 0.589795 -0.380088 0.712514 
0.562186 -0.373956 0.737634 -0.697096 -0.0780556 0.712717 -0.593689 -0.0624314 0.802269 
-0.304905 -0.0581662 0.950605 0.103112 -0.0399557 0.993867 0.0111806 -0.0561072 0.998362 
0.0951556 -0.120853 0.988099 0.247252 -0.184009 0.951319 0.638687 -0.254814 0.72605 
0.502515 -0.213868 0.837698 -0.705025 -0.0349359 0.708321 -0.552278 -0.0381976 0.832785 
-0.232545 -0.0162554 0.97245 -0.0676732 -0.0199456 0.997508 0.0413139 -0.0119865 0.999074 
-0.0946534 0.00081282 0.99551 -0.185915 -0.126873 0.97434 0.24899 0.00195639 0.968504 
-0.00106647 -0.0105989 0.999943 0.0395602 -0.0727697 0.996564 0.202687 -0.0736269 0.976472 
0.692802 -0.155964 0.70406 0.441559 -0.101927 0.891424 -0.726807 0.0621172 0.684027 
-0.585486 0.0355602 0.809902 -0.272605 -0.0227315 0.961858 0.102862 0.00742811 0.994668 
-0.0654259 -0.0373848 0.997157 0.217414 -0.00875597 0.97604 0.748277 0.080904 0.658434 
0.416698 0.0243546 0.908719 -0.758183 0.170549 0.629342 -0.657704 0.142818 0.739614 
-0.322729 0.0793871 0.943156 0.0281312 0.092616 0.995304 -0.0682342 -0.0402473 0.996857 
0.249085 0.148975 0.956955 0.669991 0.300259 0.678938 0.508902 0.227676 0.83017 
-0.74969 0.370972 0.548037 -0.742282 0.387375 0.54677 -0.737249 0.370018 0.565287 
-0.421754 0.24906 0.871833 0.207801 0.196957 0.958137 0.517198 0.659785 0.545152 
0.349877 0.352785 0.86783 0.621896 0.477731 0.620498 0.612479 0.496009 0.615504 
0.602547 0.470549 0.644609 -0.592537 0.608537 0.52781 -0.549995 0.647391 0.527627 
-0.530112 0.583787 0.614958 -0.367054 0.75528 0.542977 -0.256819 0.458057 0.851016 
-0.125539 0.396954 0.909213 -0.0410542 0.27003 0.961976 -0.0413918 0.144894 0.988581 
0.196343 0.349572 0.916105 0.515538 0.665695 0.53951 0.435134 0.753838 0.492328 
0.345909 0.510684 0.787114 -0.329263 0.764396 0.554333 -0.227445 0.765684 0.601662 
-0.209762 0.704165 0.678344 -0.153481 0.802972 0.575917 -0.173901 0.627944 0.758581 
-0.0899721 0.854789 0.511117 -0.0926671 0.568604 0.817375 -0.0198834 0.889376 0.456745 
-0.0211745 0.577875 0.815851 0.0330957 0.911219 0.41059 0.0169723 0.571053 0.820737 
0.0893943 0.91237 0.399486 0.0629567 0.601515 0.796377 0.218933 0.894945 0.388771 
0.183567 0.662057 0.726625 0.382056 0.817796 0.430398 0.356191 0.83425 0.420898 
0.356129 0.786659 0.50432 -0.0227578 -0.260936 0.965088 0.113782 -0.221204 0.968567 
-0.230966 -0.234756 0.944216 -0.235104 -0.228512 0.944726 -0.0112353 -0.207422 0.978187 
0.117878 -0.21596 0.969261 0.115035 -0.213536 0.970139 0.160544 -0.183757 0.969773 
-0.228262 -0.0359152 0.972937 -0.198449 -0.013881 0.980013 -0.0476506 0.0156508 0.998741 
0.0415092 -0.0149364 0.999026 0.147834 -0.185392 0.971481 0.159343 -0.162124 0.97382 
0.0756603 -0.212518 0.974224 -0.0135259 -0.0868014 0.996134 -0.00618872 -0.191749 0.981425 
-0.116845 0.0224701 0.992896 -0.0755577 -0.000193418 0.997141 -0.0898413 0.0362597 0.995296 
0.0393721 -0.00856842 0.999188 -0.00874565 0.0724151 0.997336 -0.0689884 0.0955099 0.993035 
-0.0584064 0.130116 0.989777 -0.0810642 -0.0811201 0.993402 0.0431677 -0.16214 0.985823 
-0.103838 -0.0966602 0.989886 0.0057634 -0.0567059 0.998374 0.0990563 -0.0740673 0.992321 
0.0667616 -0.270781 0.960323 -0.0713002 -0.0277012 0.99707 0.0405674 -0.0146459 0.999069 
-0.11059 -0.00308326 0.993861 -0.0671395 -0.0923318 0.993462 -0.142312 -0.0142115 0.98972 
-0.0843914 -0.125729 0.988469 0.138839 -0.101413 0.985109 -0.167473 -0.118509 0.978728 
-0.138755 -0.121056 0.9829 0.246372 0.00185084 0.969173 -0.00799388 -0.0371811 0.999277 
0.0392001 -0.0702184 0.996761 -0.151539 -0.0535659 0.986999 -0.0930507 -0.0695063 0.993232 
0.0118615 -0.108079 0.994072 -0.0554322 -0.124499 0.99067 -0.178196 0.101307 0.978766 
-0.0522546 0.0471136 0.997522 0.066422 -0.0298098 0.997346 0.119834 0.0502968 0.991519 
0.0802317 0.159681 0.983903 0.189391 0.295602 0.93635 -0.0620516 -0.0369477 0.997389 
-0.0633658 -0.0374658 0.997287 0.137712 -0.0175251 0.990317 0.0321022 -0.0257177 0.999154 
-0.23976 0.0524227 0.969416 -0.142496 0.0173286 0.989644 -0.0098406 -0.0555322 0.998408 
0.0893608 -0.0408025 0.995163 0.045184 0.0654536 0.996832 -0.00965799 0.138134 0.990367 
0.0632056 0.116673 0.991157 0.0788316 0.124777 0.989048 0.0211435 -0.0372112 0.999084 
-0.057821 -0.0397772 0.997534 -0.0572274 -0.035256 0.997738 -0.0334998 -0.0368866 0.998758 
0.127055 0.124276 0.984079 0.103819 0.133219 0.985634 0.0646928 0.111081 0.991704 
-0.229935 0.192465 0.953985 -0.216867 0.206298 0.954154 -0.216097 0.189281 0.957849 
-0.0982362 0.313091 0.944629 -0.0492207 0.151754 0.987192 -0.0201129 0.235916 0.971565 
0.0724111 0.084841 0.99376 -0.0298171 0.112427 0.993213 0.00448951 0.0230087 0.999725 
-0.0133316 0.00508494 0.999898 0.0538352 -0.0127535 0.998468 0.020209 -0.0490836 0.99859 
-0.0313803 -0.0263476 0.99916 0.126643 0.137607 0.982357 0.111231 0.167941 0.979502 
0.0814175 0.107465 0.99087 -0.04203 0.150446 0.987724 -0.0383876 0.23606 0.97098 
-0.0455871 0.170993 0.984217 0.0219638 0.232644 0.972314 0.02429 0.147773 0.988723 
0.0215909 0.149389 0.988543 0.0205837 0.135608 0.990549 0.113525 0.197149 0.973778 
0.106695 0.21118 0.971606 0.101329 0.177696 0.978855 
