# vtk DataFile Version 4.2
vtk output
ASCII
DATASET POLYDATA
POINTS 506 float
-21.9525 -34.6796 -16.6517 -14.2407 -34.6796 -18.5916 -6.52885 -34.6796 -18.9324 
1.18298 -34.6796 -18.6515 8.89481 -34.6796 -18.4613 16.6066 -34.6796 -18.1068 
24.3185 -34.6796 -16.1469 -29.6643 -26.9678 -18.2231 -21.9525 -26.9678 -20.1356 
-14.2407 -26.9678 -21.2093 -6.52885 -26.9678 -21.3109 1.18298 -26.9678 -20.3569 
8.89481 -26.9678 -19.8465 16.6066 -26.9678 -19.9258 24.3185 -26.9678 -20.1126 
32.0303 -26.9678 -17.7248 -37.3762 -19.256 -17.8875 -29.6643 -19.256 -19.8371 
-21.9525 -19.256 -20.5708 -14.2407 -19.256 -21.5272 -6.52885 -19.256 -21.6765 
1.18298 -19.256 -20.211 8.89481 -19.256 -19.3161 16.6066 -19.256 -20.1256 
24.3185 -19.256 -20.3717 32.0303 -19.256 -19.7335 39.7421 -19.256 -16.1863 
-45.088 -11.5442 -16.1671 -37.3762 -11.5442 -19.8415 -29.6643 -11.5442 -20.9514 
-21.9525 -11.5442 -20.7954 -14.2407 -11.5442 -21.0468 -6.52885 -11.5442 -21.845 
1.18298 -11.5442 -20.292 8.89481 -11.5442 -19.2508 16.6066 -11.5442 -19.5604 
24.3185 -11.5442 -19.6759 32.0303 -11.5442 -19.2747 39.7421 -11.5442 -17.5662 
-45.088 -3.83232 -17.8087 -37.3762 -3.83232 -20.6841 -29.6643 -3.83232 -21.3065 
-21.9525 -3.83232 -21.0066 -14.2407 -3.83232 -21.1637 -6.52885 -3.83232 -21.8122 
1.18298 -3.83232 -21.1658 8.89481 -3.83232 -22.6369 16.6066 -3.83232 -19.4333 
24.3185 -3.83232 -19.3698 32.0303 -3.83232 -19.2747 39.7421 -3.83232 -18.0136 
-45.088 3.87951 -17.8584 -37.3762 3.87951 -20.8145 -29.6643 3.87951 -21.514 
-21.9525 3.87951 -21.2634 -14.2407 3.87951 -21.3611 -6.52885 3.87951 -21.7286 
1.18298 3.87951 -20.9563 8.89481 3.87951 -22.3138 16.6066 3.87951 -19.6412 
24.3185 3.87951 -19.734 32.0303 3.87951 -19.6692 39.7421 3.87951 -18.2925 
-45.088 11.5913 -16.3882 -37.3762 11.5913 -20.483 -29.6643 11.5913 -21.7143 
-21.9525 11.5913 -21.3462 -14.2407 11.5913 -21.3928 -6.52885 11.5913 -21.4227 
1.18298 11.5913 -20.7369 8.89481 11.5913 -19.877 16.6066 11.5913 -19.6031 
24.3185 11.5913 -19.9005 32.0303 11.5913 -19.551 39.7421 11.5913 -17.9155 
-37.3762 19.3032 -18.906 -29.6643 19.3032 -20.9039 -21.9525 19.3032 -21.7434 
-14.2407 19.3032 -21.7757 -6.52885 19.3032 -21.3226 1.18298 19.3032 -20.4548 
8.89481 19.3032 -19.7199 16.6066 19.3032 -19.4075 24.3185 19.3032 -19.5081 
32.0303 19.3032 -18.8095 39.7421 19.3032 -16.1515 -37.3762 27.015 -15.9685 
-29.6643 27.015 -19.8275 -21.9525 27.015 -21.3055 -14.2407 27.015 -21.4778 
-6.52885 27.015 -20.9627 1.18298 27.015 -20.2384 8.89481 27.015 -19.2689 
16.6066 27.015 -18.4003 24.3185 27.015 -17.2486 32.0303 27.015 -15.6556 
-29.6643 34.7268 -15.5354 -21.9525 34.7268 -18.8801 -14.2407 34.7268 -19.9004 
-6.52885 34.7268 -19.0934 1.18298 34.7268 -18.1701 8.89481 34.7268 -16.7296 
-21.9525 -35.9665 -15.4233 -14.2407 -37.9568 -15.4233 -6.52885 -39.0242 -15.4233 
1.18298 -39.0637 -15.4233 8.89481 -38.4478 -15.4233 16.6066 -37.8943 -15.4233 
24.3185 -35.5253 -15.4233 -24.8104 -34.6796 -15.4233 -29.6643 -31.6445 -15.4233 
-29.6643 -34.6796 -11.2503 26.219 -34.6796 -15.4233 32.0303 -31.0862 -15.4233 
32.0303 -34.6796 -9.79232 -35.57 -26.9678 -15.4233 -37.3762 -24.9889 -15.4233 
-37.3762 -26.9678 -13.9433 36.5023 -26.9678 -15.4233 39.7421 -21.3731 -15.4233 
39.7421 -26.9678 -11.4525 -42.4255 -19.256 -15.4233 -45.088 -13.8832 -15.4233 
-45.088 -19.256 -12.5827 40.7728 -19.256 -15.4233 -45.8782 -11.5442 -15.4233 
43.7685 -11.5442 -15.4233 47.454 -11.5442 -12.4351 -48.1389 -3.83232 -15.4233 
45.926 -3.83232 -15.4233 47.454 -3.83232 -14.562 -48.1394 3.87951 -15.4233 
46.4547 3.87951 -15.4233 47.454 3.87951 -14.877 -46.0172 11.5913 -15.4233 
-45.088 14.4103 -15.4233 44.5929 11.5913 -15.4233 47.454 11.5913 -13.2467 
-43.0428 19.3032 -15.4233 -45.088 19.3032 -12.2459 40.8431 19.3032 -15.4233 
39.7421 20.694 -15.4233 47.454 19.3032 -9.10047 -37.8771 27.015 -15.4233 
-37.3762 27.6313 -15.4233 16.6066 33.1576 -15.4233 24.3185 29.6501 -15.4233 
32.575 27.015 -15.4233 32.0303 27.325 -15.4233 39.7421 27.015 -10.4795 
-29.824 34.7268 -15.4233 -29.6643 34.8455 -15.4233 -21.9525 38.6465 -15.4233 
-14.2407 39.8585 -15.4233 -6.52885 40.0315 -15.4233 1.18298 38.598 -15.4233 
13.3427 34.7268 -15.4233 8.89481 36.2053 -15.4233 16.6066 34.7268 -13.8076 
24.3185 34.7268 -9.41914 -14.2407 42.4387 -9.96278 -6.52885 42.4387 -10.7482 
1.18298 42.4387 -8.3434 -29.6643 -36.3084 -7.71149 -21.9525 -39.073 -7.71149 
-14.2407 -40.8247 -7.71149 -6.52885 -41.7774 -7.71149 1.18298 -42.3542 -7.71149 
8.89481 -42.1287 -7.71149 16.6066 -41.2319 -7.71149 24.3185 -39.1774 -7.71149 
32.0303 -35.5487 -7.71149 -32.5301 -34.6796 -7.71149 -37.3762 -31.4444 -7.71149 
33.2373 -34.6796 -7.71149 39.7421 -29.1427 -7.71149 -42.0011 -26.9678 -7.71149 
-45.088 -22.9765 -7.71149 41.723 -26.9678 -7.71149 -47.5721 -19.256 -7.71149 
47.2677 -19.256 -7.71149 47.454 -18.8853 -7.71149 47.454 -19.256 -6.16345 
-50.9472 -11.5442 -7.71149 50.9318 -11.5442 -7.71149 -52.5403 -3.83232 -7.71149 
-52.7998 -3.83232 -2.45565 53.0948 -3.83232 -7.71149 55.1658 -3.83232 -1.24382 
-52.3699 3.87951 -7.71149 -52.7998 3.87951 -2.52067 53.4013 3.87951 -7.71149 
55.1658 3.87951 -2.49738 -50.5546 11.5913 -7.71149 51.7773 11.5913 -7.71149 
-46.9941 19.3032 -7.71149 -45.088 22.2381 -7.71149 48.4746 19.3032 -7.71149 
47.454 20.8503 -7.71149 -41.6444 27.015 -7.71149 -37.3762 31.8613 -7.71149 
32.0303 33.2002 -7.71149 42.2576 27.015 -7.71149 39.7421 29.0409 -7.71149 
-34.0991 34.7268 -7.71149 -29.6643 37.9044 -7.71149 -21.9525 41.3912 -7.71149 
8.89481 40.113 -7.71149 16.6066 37.7199 -7.71149 27.4035 34.7268 -7.71149 
24.3185 35.6394 -7.71149 32.0303 34.7268 -0.452424 -17.5829 42.4387 -7.71149 
-14.2407 43.2044 -7.71149 -6.52885 43.5238 -7.71149 1.91928 42.4387 -7.71149 
1.18298 42.6676 -7.71149 1.18298 42.4387 -5.43613 -29.6643 -35.7338 0.000343326 
-21.9525 -38.2822 0.000343326 -14.2407 -39.9747 0.000343326 -6.52885 -40.9176 0.000343326 
1.18298 -41.4383 0.000343326 8.89481 -41.4585 0.000343326 16.6066 -40.6122 0.000343326 
24.3185 -38.5976 0.000343326 32.0303 -34.7199 0.000343326 -31.8872 -34.6796 0.000343326 
-37.3762 -31.6498 0.000343326 -29.6643 -34.6796 2.68965 32.0945 -34.6796 0.000343326 
32.0303 -34.6796 0.0994557 39.7421 -28.66 0.000343326 -42.5247 -26.9678 0.000343326 
-45.088 -24.012 0.000343326 41.4423 -26.9678 0.000343326 39.7421 -26.9678 2.89849 
47.454 -20.356 0.000343326 -48.2466 -19.256 0.000343326 48.1726 -19.256 0.000343326 
47.454 -19.256 1.75511 -51.7844 -11.5442 0.000343326 -52.7998 -4.71795 0.000343326 
52.6416 -11.5442 0.000343326 55.1658 -4.85566 0.000343326 -52.9219 -3.83232 0.000343326 
-52.7998 -3.83232 0.571139 55.5162 -3.83232 0.000343326 55.1658 -3.83232 2.53157 
-53.002 3.87951 0.000343326 -52.7998 4.70945 0.000343326 -52.7998 3.87951 0.833986 
55.961 3.87951 0.000343326 55.1658 8.2195 0.000343326 -50.9245 11.5913 0.000343326 
54.542 11.5913 0.000343326 -47.0871 19.3032 0.000343326 -45.088 22.2552 0.000343326 
-45.088 19.3032 7.3295 50.9951 19.3032 0.000343326 47.454 24.3598 0.000343326 
-41.2712 27.015 0.000343326 -37.3762 31.0901 0.000343326 45.0602 27.015 0.000343326 
39.7421 31.3916 0.000343326 -32.6291 34.7268 0.000343326 -29.6643 36.6622 0.000343326 
-29.6643 34.7268 4.14499 -21.9525 40.4927 0.000343326 1.18298 41.8101 0.000343326 
8.89481 39.4617 0.000343326 16.6066 37.5934 0.000343326 24.3185 36.5263 0.000343326 
24.3185 34.7268 6.94881 32.2662 34.7268 0.000343326 32.0303 34.8141 0.000343326 
32.0303 34.7268 0.407489 -15.1542 42.4387 0.000343326 -14.2407 42.6716 0.000343326 
-14.2407 42.4387 0.552266 -3.53618 42.4387 0.000343326 -6.52885 42.7972 0.000343326 
-6.52885 42.4387 0.823023 -21.9525 -35.4348 7.71217 -14.2407 -37.0594 7.71217 
-6.52885 -37.8839 7.71217 1.18298 -38.2408 7.71217 8.89481 -38.3055 7.71217 
16.6066 -37.9685 7.71217 24.3185 -35.9613 7.71217 -37.3762 -28.1306 7.71217 
-24.1618 -34.6796 7.71217 -29.6643 -32.5888 7.71217 -21.9525 -34.6796 8.98883 
-14.2407 -34.6796 11.5992 -6.52885 -34.6796 12.666 1.18298 -34.6796 12.7797 
8.89481 -34.6796 13.5706 16.6066 -34.6796 12.9345 26.7921 -34.6796 7.71217 
24.3185 -34.6796 9.90996 32.0303 -31.3078 7.71217 -38.7502 -26.9678 7.71217 
-45.088 -20.2983 7.71217 -37.3762 -26.9678 9.45098 -29.6643 -26.9678 15.1178 
36.9661 -26.9678 7.71217 32.0303 -26.9678 12.2075 39.7421 -24.2017 7.71217 
-45.8481 -19.256 7.71217 -45.088 -19.256 9.06103 44.3532 -19.256 7.71217 
39.7421 -19.256 12.0072 47.454 -15.8206 7.71217 -49.6991 -11.5442 7.71217 
-45.088 -11.5442 15.1676 50.5172 -11.5442 7.71217 47.454 -11.5442 11.8314 
-51.2461 -3.83232 7.71217 54.329 -3.83232 7.71217 55.1658 2.9921 7.71217 
-51.0213 3.87951 7.71217 55.2645 3.87951 7.71217 55.1658 4.38664 7.71217 
55.1658 3.87951 7.89997 -48.9366 11.5913 7.71217 -45.088 19.0962 7.71217 
-45.088 11.5913 14.3668 53.7188 11.5913 7.71217 -44.9604 19.3032 7.71217 
49.9282 19.3032 7.71217 47.454 22.8009 7.71217 47.454 19.3032 11.464 
-37.7437 27.015 7.71217 -37.3762 27.357 7.71217 -37.3762 27.015 8.20119 
-29.6643 32.9267 7.71217 -29.6643 27.015 14.6269 24.3185 34.5048 7.71217 
32.0303 33.0448 7.71217 32.0303 27.015 15.2499 43.2497 27.015 7.71217 
39.7421 29.5638 7.71217 39.7421 27.015 11.2271 -26.361 34.7268 7.71217 
-21.9525 36.8252 7.71217 -21.9525 34.7268 10.3429 -14.2407 38.6239 7.71217 
-14.2407 34.7268 12.0542 -6.52885 38.9562 7.71217 -6.52885 34.7268 12.42 
1.18298 37.7836 7.71217 1.18298 34.7268 11.1893 8.89481 36.0047 7.71217 
8.89481 34.7268 9.38768 20.8386 34.7268 7.71217 16.6066 34.989 7.71217 
16.6066 34.7268 8.15213 -21.9525 -29.6897 15.424 -14.2407 -31.6505 15.424 
-6.52885 -32.0711 15.424 1.18298 -31.6895 15.424 8.89481 -32.7802 15.424 
16.6066 -32.2702 15.424 24.3185 -29.5109 15.424 -37.3762 -21.2854 15.424 
-28.9589 -26.9678 15.424 -29.6643 -26.6534 15.424 -21.9525 -26.9678 17.7503 
-14.2407 -26.9678 19.2476 -6.52885 -26.9678 19.0553 1.18298 -26.9678 18.3059 
8.89481 -26.9678 18.8068 16.6066 -26.9678 19.0152 27.3077 -26.9678 15.424 
24.3185 -26.9678 17.0672 32.0303 -22.062 15.424 -39.4207 -19.256 15.424 
[...]
POINT_DATA 506
SCALARS ImageScalars float
LOOKUP_TABLE default
0 0 0 0 0 0 0 0 0 
0 0 0 0 0 0 0 0 0 
0 0 0 0 0 0 0 0 0 
0 0 0 0 0 0 0 0 0 
0 0 0 0 0 0 0 0 0 
0 0 0 0 0 0 0 0 0 
0 0 0 0 0 0 0 0 0 
0 0 0 0 0 0 0 0 0 
0 0 0 0 0 0 0 0 0 
0 0 0 0 0 0 0 0 0 
0 0 0 0 0 0 0 0 0 
0 0 0 0 0 0 0 0 0 
0 0 0 0 0 0 0 0 0 
0 0 0 0 0 0 0 0 0 
0 0 0 0 0 0 0 0 0 
0 0 0 0 0 0 0 0 0 
0 0 0 0 0 0 0 0 0 
0 0 0 0 0 0 0 0 0 
0 0 0 0 0 0 0 0 0 
0 0 0 0 0 0 0 0 0 
0 0 0 0 0 0 0 0 0 
0 0 0 0 0 0 0 0 0 
0 0 0 0 0 0 0 0 0 
0 0 0 0 0 0 0 0 0 
0 0 0 0 0 0 0 0 0 
0 0 0 0 0 0 0 0 0 
0 0 0 0 0 0 0 0 0 
0 0 0 0 0 0 0 0 0 
0 0 0 0 0 0 0 0 0 
0 0 0 0 0 0 0 0 0 
0 0 0 0 0 0 0 0 0 
0 0 0 0 0 0 0 0 0 
0 0 0 0 0 0 0 0 0 
0 0 0 0 0 0 0 0 0 
0 0 0 0 0 0 0 0 0 
0 0 0 0 0 0 0 0 0 
0 0 0 0 0 0 0 0 0 
0 0 0 0 0 0 0 0 0 
0 0 0 0 0 0 0 0 0 
0 0 0 0 0 0 0 0 0 
0 0 0 0 0 0 0 0 0 
0 0 0 0 0 0 0 0 0 
0 0 0 0 0 0 0 0 0 
0 0 0 0 0 0 0 0 0 
0 0 0 0 0 0 0 0 0 
0 0 0 0 0 0 0 0 0 
0 0 0 0 0 0 0 0 0 
0 0 0 0 0 0 0 0 0 
0 0 0 0 0 0 0 0 0 
0 0 0 0 0 0 0 0 0 
0 0 0 0 0 0 0 0 0 
0 0 0 0 0 0 0 0 0 
0 0 0 0 0 0 0 0 0 
0 0 0 0 0 0 0 0 0 
0 0 0 0 0 0 0 0 0 
0 0 0 0 0 0 0 0 0 
0 0 
NORMALS Normals float
0.285761 0.647926 0.706068 0.135578 0.571654 0.809216 0.000561102 0.504062 0.863667 
-0.0283189 0.434621 0.900168 -0.0360194 0.450109 0.892247 -0.139467 0.493195 0.858666 
-0.292242 0.623462 0.725182 0.316835 0.351498 0.880946 0.188512 0.215263 0.958188 
0.07617 0.156063 0.984806 -0.0528891 0.16389 0.98506 -0.0977113 0.0974953 0.990428 
-0.0259953 0.0367788 0.998985 0.0165762 0.12398 0.992146 -0.13354 0.235631 0.962624 
-0.370108 0.362114 0.855508 0.350319 0.288488 0.891096 0.165206 0.166966 0.972023 
0.110629 0.0427367 0.992942 0.0710907 -0.0102256 0.997417 -0.0834448 0.0342178 0.995925 
-0.154414 -0.0040617 0.987998 -0.00406844 -0.0408106 0.999159 0.0678612 -0.0240371 0.997405 
-0.0215179 -0.0308383 0.999293 -0.219886 0.0930133 0.971081 -0.527201 0.241679 0.814647 
0.609177 0.237069 0.75677 0.256441 0.187869 0.948126 0.0556348 0.0998287 0.993448 
0.00639883 0.0281885 0.999582 0.067901 -0.0235544 0.997414 -0.0452861 0.0087775 0.998936 
-0.169679 0.0622023 0.983534 -0.0463862 0.196486 0.979409 0.0268339 -0.0447377 0.998638 
-0.0181318 -0.0639631 0.997788 -0.131591 -0.0264261 0.990952 -0.352996 0.0980864 0.930469 
0.536298 0.0833335 0.839905 0.20353 0.0567916 0.97742 0.0227944 0.0358909 0.999096 
-0.00931024 0.030407 0.999494 0.0529234 0.0207735 0.998382 0.000774396 -0.00760398 0.999971 
0.0441169 0.0424002 0.998126 -0.120057 0.207269 0.970889 -0.19361 0.00526896 0.981064 
-0.0101998 0.00376614 0.999941 -0.0847454 0.0254766 0.996077 -0.274439 0.0448941 0.960556 
0.548727 -0.0662425 0.833373 0.212525 -0.00989816 0.977105 0.0312447 0.0261013 0.999171 
-0.00991588 0.0220044 0.999709 0.0302673 0.0150356 0.999429 -0.0259453 -0.0254487 0.999339 
0.0308484 -0.0282748 0.999124 -0.0912095 -0.187574 0.978007 -0.154482 0.0111928 0.987932 
0.00178184 0.0343873 0.999407 -0.0857376 0.0179456 0.996156 -0.293729 -0.00701241 0.955863 
0.657141 -0.230867 0.717542 0.268087 -0.119732 0.955925 0.0476039 -0.0390659 0.998102 
-0.0207424 0.0317531 0.999281 0.00492768 0.0268701 0.999627 -0.0426334 -0.0260802 0.99875 
-0.0992538 -0.0321468 0.994543 -0.0737687 -0.153624 0.985372 0.00169132 -0.0150394 0.999885 
-0.00297668 -0.0139513 0.999898 -0.126988 -0.0511257 0.990586 -0.33689 -0.115122 0.934479 
0.399801 -0.230642 0.887109 0.175652 -0.111012 0.978173 0.0552306 -0.00110381 0.998473 
-0.0265841 0.00465557 0.999636 -0.0861765 -0.0296408 0.995839 -0.102438 -0.0319821 0.994225 
-0.0677263 -0.039754 0.996912 -0.0138346 -0.0784374 0.996823 -0.0348905 -0.152099 0.987749 
-0.192409 -0.237347 0.952179 -0.445233 -0.34051 0.828143 0.620814 -0.50963 0.595707 
0.268914 -0.299289 0.915484 0.0959261 -0.167919 0.981122 -0.0217801 -0.101231 0.994624 
-0.0814494 -0.138254 0.987042 -0.109475 -0.13897 0.984227 -0.117327 -0.15899 0.980284 
-0.122055 -0.277044 0.953074 -0.170636 -0.42853 0.887268 -0.284849 -0.531915 0.797451 
0.485729 -0.639266 0.59616 0.244579 -0.525987 0.814567 0.00730567 -0.424461 0.905417 
-0.101962 -0.413484 0.904784 -0.138621 -0.452493 0.880928 -0.233477 -0.572808 0.785735 
0.294825 0.720374 0.627805 0.168076 0.778448 0.604789 0.061903 0.775958 0.62774 
-0.0268496 0.721209 0.692197 -0.0629555 0.699277 0.712074 -0.150832 0.714728 0.682945 
-0.301671 0.664143 0.684039 0.349225 0.691869 0.631949 0.415009 0.597256 0.686333 
0.448676 0.819101 0.35744 -0.345495 0.650417 0.676455 -0.442722 0.55526 0.704048 
-0.530014 0.810251 0.250157 0.506675 0.498159 0.703647 0.510869 0.472831 0.717944 
0.579704 0.559707 0.592175 -0.532621 0.442083 0.721719 -0.565987 0.314194 0.762195 
-0.706186 0.583906 0.400444 0.567675 0.378395 0.731138 0.636987 0.294671 0.712332 
0.730541 0.447417 0.515876 -0.559526 0.26496 0.785319 0.646691 0.24788 0.72135 
-0.508298 0.172759 0.843675 -0.713088 0.267226 0.648147 0.686129 0.105856 0.719738 
-0.512276 0.0873061 0.854372 -0.590725 0.104919 0.800022 0.700299 -0.105175 0.706059 
-0.526843 -0.0486548 0.848569 -0.573789 -0.0573899 0.81699 0.699011 -0.248639 0.670494 
0.698507 -0.299923 0.649719 -0.523457 -0.180449 0.832725 -0.668717 -0.231438 0.706579 
0.662314 -0.368492 0.652345 0.790122 -0.442027 0.42464 -0.476523 -0.356426 0.803671 
-0.460479 -0.390785 0.797023 -0.748823 -0.449352 0.487183 0.637777 -0.522329 0.566051 
0.629587 -0.534367 0.563979 -0.256173 -0.605957 0.753121 -0.222631 -0.566265 0.793587 
-0.300603 -0.537699 0.78773 -0.28777 -0.544537 0.787825 -0.541702 -0.663921 0.515526 
0.490351 -0.641805 0.589612 0.487108 -0.644102 0.589795 0.259103 -0.761643 0.593941 
0.0740834 -0.78835 0.61075 -0.0587856 -0.718709 0.692821 -0.184326 -0.668392 0.720608 
-0.265957 -0.648652 0.713104 -0.257636 -0.66231 0.70354 -0.283901 -0.744414 0.604358 
-0.273875 -0.8854 0.375579 0.120298 -0.964042 0.236963 -0.0416017 -0.94934 0.311485 
-0.207642 -0.963838 0.167036 0.425178 0.890453 0.162228 0.274712 0.954964 0.112148 
0.17024 0.981131 0.091657 0.0997674 0.991861 0.0791096 0.022544 0.995411 0.0930032 
-0.0718643 0.990811 0.114585 -0.184135 0.974242 0.130182 -0.323416 0.935768 0.140502 
-0.527182 0.840298 0.126409 0.489189 0.852451 0.184451 0.614384 0.75263 0.236813 
-0.554738 0.821205 0.133747 -0.712734 0.681204 0.167246 0.729371 0.634364 0.256125 
0.795692 0.549992 0.253737 -0.748376 0.638538 0.179449 0.842102 0.478165 0.249447 
-0.824589 0.481674 0.29672 -0.826522 0.475294 0.301591 -0.837111 0.503578 0.213668 
0.910544 0.299254 0.285231 -0.859732 0.324229 0.394634 0.969609 0.083208 0.230077 
0.996907 0.0765267 0.0178761 -0.875433 0.141451 0.462178 -0.974308 0.186039 0.126937 
0.963816 -0.115912 0.240047 0.992802 -0.117716 0.0220816 -0.874658 -0.0763783 0.478685 
-0.973343 -0.0665566 0.219486 0.912801 -0.327363 0.244189 -0.844253 -0.26126 0.467954 
0.856274 -0.482941 0.183203 0.828617 -0.531835 0.174773 -0.783681 -0.455761 0.42205 
-0.759816 -0.495316 0.42112 0.775164 -0.61238 0.155279 0.698996 -0.704211 0.124468 
-0.356491 -0.863036 0.357888 -0.611774 -0.685383 0.394946 -0.544193 -0.742423 0.390719 
0.616877 -0.780583 0.100762 0.514937 -0.853404 0.0808767 0.309482 -0.947318 0.0825224 
-0.311488 -0.939457 0.142814 -0.273794 -0.941585 0.196098 -0.295097 -0.901769 0.315802 
-0.263107 -0.918258 0.295934 -0.294543 -0.955587 0.00989964 0.203067 -0.973209 0.107833 
0.129817 -0.983315 0.127433 -0.035175 -0.992364 0.118223 -0.217175 -0.967632 0.128544 
-0.207358 -0.969767 0.128663 -0.209299 -0.977747 0.0142949 0.362196 0.908504 -0.208409 
0.247503 0.944472 -0.216134 0.157943 0.961356 -0.225497 0.0917532 0.967281 -0.236536 
0.0329518 0.969105 -0.244436 -0.0505708 0.971932 -0.229764 -0.169137 0.965027 -0.200287 
-0.320355 0.928603 -0.18727 -0.498277 0.840716 -0.211934 0.426264 0.881957 -0.201121 
0.597335 0.783032 -0.173354 0.371662 0.883796 -0.284205 -0.49968 0.839868 -0.211995 
-0.498948 0.839541 -0.214991 -0.671953 0.709193 -0.213364 0.719037 0.681656 -0.135395 
0.790509 0.60227 -0.111201 -0.696612 0.687802 -0.204108 -0.666195 0.675077 -0.316947 
-0.81003 0.571669 -0.130561 0.867231 0.488886 -0.0943477 -0.824742 0.552539 -0.120418 
-0.794702 0.570831 -0.2064 0.95637 0.284142 -0.0679648 0.992255 0.0962694 -0.0784971 
-0.902271 0.430742 -0.0192116 -0.973316 0.221627 0.0594834 0.994142 0.0727373 -0.0799388 
0.992574 0.0723009 -0.0978233 -0.978628 0.193326 0.0700852 -0.973995 0.2194 -0.0565435 
0.989672 -0.117679 -0.0818621 0.986421 -0.141911 -0.0826703 0.986941 -0.118189 -0.109445 
-0.992512 -0.060858 0.105905 -0.977402 -0.181982 0.107553 0.932583 -0.349699 -0.0894417 
-0.954296 -0.278922 0.107337 0.849931 -0.51495 -0.111554 0.81313 -0.56772 -0.128506 
0.776525 -0.533222 -0.335683 -0.857156 -0.509659 0.074366 -0.771069 -0.633795 0.0612899 
0.735705 -0.653825 -0.176779 0.658232 -0.721347 -0.21538 -0.690699 -0.721676 0.0460159 
-0.536206 -0.843725 0.0247295 0.553011 -0.794657 -0.2504 0.495687 -0.827617 -0.263334 
0.48134 -0.79276 -0.373955 0.327582 -0.90865 -0.258929 -0.203895 -0.94001 -0.273511 
-0.250159 -0.939168 -0.235338 -0.179911 -0.970407 -0.161065 -0.170606 -0.983194 -0.0649865 
-0.11865 -0.924947 -0.361102 -0.297322 -0.954732 -0.00933902 -0.290628 -0.956779 -0.0104103 
-0.289334 -0.95679 -0.0289743 0.158578 -0.955426 -0.249028 0.136643 -0.959245 -0.247341 
0.136285 -0.953422 -0.269095 -0.109956 -0.958667 -0.262425 -0.0507921 -0.965458 -0.255559 
-0.0515787 -0.956959 -0.285604 0.246994 0.867539 -0.431706 0.142856 0.885939 -0.441254 
0.0692926 0.887837 -0.454911 0.0251226 0.873442 -0.48628 -0.016948 0.88798 -0.45957 
-0.130755 0.899024 -0.417923 -0.341879 0.846987 -0.407102 0.551329 0.717964 -0.424929 
0.283684 0.856351 -0.431493 0.376924 0.813369 -0.443125 0.24536 0.848154 -0.469503 
0.131924 0.820373 -0.556404 0.0442556 0.784757 -0.618222 0.0342826 0.742624 -0.66883 
0.00805601 0.756044 -0.654471 -0.126177 0.78765 -0.603065 -0.410528 0.810116 -0.418543 
-0.349596 0.800343 -0.487067 -0.541626 0.693339 -0.475312 0.585832 0.694371 -0.417911 
0.754871 0.53511 -0.379245 0.548009 0.695018 -0.465443 0.323295 0.649625 -0.68809 
-0.603088 0.628567 -0.49111 -0.525732 0.551411 -0.647728 -0.618484 0.605451 -0.500906 
0.773552 0.513328 -0.371634 0.74843 0.517137 -0.415238 -0.642036 0.579058 -0.502475 
-0.543437 0.505565 -0.670135 -0.68925 0.561954 -0.45732 0.881359 0.310986 -0.35566 
0.705571 0.310848 -0.636822 -0.770565 0.484706 -0.413872 -0.633773 0.485127 -0.602482 
0.939961 0.0721159 -0.333576 -0.900184 0.269989 -0.341724 -0.953875 -0.00508355 -0.300161 
0.9301 -0.128151 -0.344226 -0.95462 -0.0400028 -0.295128 -0.95383 -0.0557872 -0.29512 
-0.95175 -0.0397424 -0.304292 0.871804 -0.350839 -0.341862 0.774558 -0.52866 -0.347244 
0.72917 -0.34721 -0.589709 -0.909002 -0.289686 -0.299661 0.770364 -0.53409 -0.348263 
-0.797809 -0.521399 -0.302727 -0.729723 -0.605913 -0.316818 -0.692326 -0.509351 -0.511122 
0.606538 -0.680017 -0.411932 0.599554 -0.684262 -0.415116 0.596404 -0.680195 -0.426189 
0.454832 -0.753616 -0.474543 0.323896 -0.630427 -0.705445 -0.11225 -0.910528 -0.397919 
-0.262912 -0.882309 -0.390394 -0.188688 -0.563611 -0.804201 -0.588534 -0.73056 -0.34628 
-0.490753 -0.792567 -0.361937 -0.466155 -0.705179 -0.534249 0.385855 -0.773777 -0.502379 
0.287517 -0.797431 -0.530508 0.26124 -0.73758 -0.622679 0.11985 -0.810939 -0.572725 
0.0952164 -0.684822 -0.722463 -0.0470306 -0.812628 -0.580882 -0.042386 -0.638214 -0.768691 
-0.168432 -0.798944 -0.577337 -0.142998 -0.684924 -0.714445 -0.156111 -0.832905 -0.530941 
-0.129985 -0.794401 -0.593322 -0.0995261 -0.906053 -0.411294 -0.085701 -0.897755 -0.432078 
-0.0809658 -0.88942 -0.449863 0.225435 0.671593 -0.705792 0.105815 0.705396 -0.700871 
0.00560013 0.67102 -0.741418 0.023985 0.607738 -0.793775 0.0197518 0.655503 -0.754934 
-0.120121 0.649997 -0.750383 -0.357674 0.505549 -0.785169 0.492176 0.52848 -0.691717 
0.311558 0.643071 -0.699565 0.320325 0.638367 -0.699914 0.21389 0.589639 -0.778831 
0.0677149 0.562581 -0.823965 -0.0545605 0.52107 -0.851768 -0.0117664 0.466102 -0.884653 
0.0420145 0.421471 -0.905868 -0.0940584 0.392918 -0.91475 -0.420229 0.441098 -0.792994 
-0.349709 0.381024 -0.855876 -0.410485 0.391667 -0.823468 0.537341 0.489046 -0.687095 
0.473876 0.476048 -0.740824 0.283624 0.409541 -0.867083 0.177952 0.358884 -0.916262 
-0.0929768 0.43234 -0.896904 -0.0517795 0.373892 -0.926026 -0.181276 0.152238 -0.971577 
-0.273849 0.126707 -0.95339 -0.406309 0.376285 -0.83266 -0.350305 0.307136 -0.884847 
-0.388759 0.410025 -0.825073 0.693683 0.310581 -0.64988 0.702487 0.291256 -0.649371 
0.379916 0.279268 -0.881858 0.199334 0.219027 -0.95514 -0.354761 0.0501434 -0.933611 
-0.205775 0.09661 -0.973819 -0.160971 0.205876 -0.965248 -0.414474 0.407455 -0.813751 
-0.321597 0.375022 -0.869445 -0.546243 0.302279 -0.781183 0.749225 0.0900409 -0.656167 
0.681341 0.0848209 -0.727035 0.368303 0.0522103 -0.928239 -0.356561 -0.0643002 -0.932057 
-0.107963 0.0967062 -0.98944 -0.0633886 0.197968 -0.978157 -0.226308 0.224968 -0.947721 
-0.568963 0.260942 -0.779865 -0.531667 0.259195 -0.806318 0.747971 -0.125767 -0.651707 
0.713016 -0.282274 -0.641817 0.685424 -0.119532 -0.718266 0.367419 -0.0824641 -0.926392 
-0.155057 -0.170457 -0.973089 0.0355592 -0.00959591 -0.999322 -0.0391146 0.0188225 -0.999057 
-0.230933 0.0173023 -0.972816 -0.634911 -0.00207276 -0.772582 -0.528099 0.00333287 -0.849176 
0.682731 -0.344857 -0.644168 0.383221 -0.302735 -0.872636 0.166469 -0.251421 -0.953454 
-0.252266 -0.326643 -0.91086 -0.00108707 -0.162656 -0.986682 0.0720109 -0.12272 -0.989825 
-0.0351934 -0.142126 -0.989223 -0.236463 -0.184447 -0.953973 -0.61507 -0.240529 -0.750889 
-0.586234 -0.295052 -0.754502 -0.568456 -0.240194 -0.78687 0.525016 -0.505207 -0.684926 
0.500008 -0.525023 -0.688726 0.484331 -0.496567 -0.720309 0.305357 -0.602741 -0.737198 
0.23042 -0.420682 -0.877458 0.0476145 -0.369477 -0.928019 -0.039472 -0.412667 -0.910026 
-0.0942086 -0.466791 -0.879335 -0.103418 -0.430535 -0.896629 -0.0464095 -0.258419 -0.964918 
0.0419388 -0.198504 -0.979202 0.0484084 -0.242879 -0.968848 -0.18308 -0.549597 -0.815123 
-0.100064 -0.306542 -0.946583 -0.446313 -0.433045 -0.78312 -0.365636 -0.491763 -0.79024 
-0.324355 -0.387921 -0.862735 0.260461 -0.600929 -0.755674 0.166239 -0.578191 -0.798787 
0.141057 -0.540714 -0.829295 0.0342641 -0.526056 -0.849759 -0.00898668 -0.443677 -0.896142 
-0.0741997 -0.452131 -0.88886 -0.0842796 -0.395989 -0.91438 -0.0495646 -0.431244 -0.900873 
-0.0417664 -0.405789 -0.913012 0.00114186 -0.462588 -0.886573 0.00611761 -0.428466 -0.903537 
-0.000722568 -0.468071 -0.88369 0.00393309 -0.419714 -0.907648 -0.159775 -0.547774 -0.821228 
-0.0526839 -0.531771 -0.845248 -0.0450801 -0.492736 -0.86901 0.0735689 0.399076 -0.913962 
-0.0834053 0.439756 -0.894236 0.092555 0.384554 -0.918451 0.18828 0.274365 -0.943014 
0.0758442 0.390502 -0.917473 -0.0855281 0.437356 -0.895212 -0.0835577 0.437309 -0.895421 
-0.0983822 0.340757 -0.93499 -0.139121 0.318239 -0.937747 0.196699 0.212324 -0.957198 
0.201118 0.17301 -0.964168 0.198187 0.193421 -0.96089 0.129477 0.217806 -0.967366 
-0.0414561 0.157997 -0.986569 -0.0894469 0.131466 -0.987277 -0.30339 0.145679 -0.941665 
-0.222202 0.233876 -0.946535 0.270324 0.0568052 -0.961092 0.208211 0.0672912 -0.975766 
0.183911 0.0469054 -0.981823 0.0581227 0.0607766 -0.996458 -0.169113 -0.00271388 -0.985593 
-0.0263454 -0.0847893 -0.996051 -0.297471 -0.0722195 -0.951995 -0.129666 -0.078774 -0.988424 
0.255842 -0.0949352 -0.962046 0.185502 -0.172528 -0.96738 0.203949 -0.107284 -0.973085 
0.191861 -0.11284 -0.974914 0.0823166 -0.149551 -0.985322 -0.19143 -0.0641456 -0.979408 
-0.159657 -0.0505975 -0.985875 -0.218519 -0.308552 -0.925767 -0.234765 -0.338082 -0.911365 
-0.220177 -0.326871 -0.919063 0.127922 -0.273433 -0.953347 0.11579 -0.28375 -0.951882 
0.121881 -0.278043 -0.952805 0.063 -0.410491 -0.909686 0.103068 -0.400668 -0.910408 
-0.0641197 -0.44194 -0.89475 -0.0546036 -0.384583 -0.921474 -0.28091 -0.318565 -0.905321 
-0.27016 -0.324482 -0.90649 -0.279006 -0.30751 -0.909722 
