# vtk DataFile Version 4.2
vtk output
ASCII
DATASET POLYDATA
POINTS 554 float
-38.2473 -35.8937 -16.4059 -29.6568 -35.8937 -17.0586 -21.0664 -35.8937 -17.5527 
-12.4759 -35.8937 -17.1997 -3.88546 -35.8937 -17.2142 4.705 -35.8937 -17.221 
13.2955 -35.8937 -16.9726 21.8859 -35.8937 -16.7276 30.4764 -35.8937 -15.0118 
-46.8378 -27.3032 -17.1165 -38.2473 -27.3032 -18.7255 -29.6568 -27.3032 -18.6258 
-21.0664 -27.3032 -18.9844 -12.4759 -27.3032 -18.128 -3.88546 -27.3032 -17.979 
4.705 -27.3032 -17.8887 13.2955 -27.3032 -17.8411 21.8859 -27.3032 -18.0358 
30.4764 -27.3032 -17.5957 39.0668 -27.3032 -15.3248 -55.4282 -18.7128 -15.5767 
-46.8378 -18.7128 -18.3455 -38.2473 -18.7128 -19.1026 -29.6568 -18.7128 -19.391 
-21.0664 -18.7128 -18.3335 -12.4759 -18.7128 -17.4834 -3.88546 -18.7128 -17.0944 
4.705 -18.7128 -16.4468 13.2955 -18.7128 -16.8237 21.8859 -18.7128 -17.6322 
30.4764 -18.7128 -17.8212 39.0668 -18.7128 -16.8013 47.6573 -18.7128 -14.9712 
-55.4282 -10.1223 -16.9667 -46.8378 -10.1223 -19.5751 -38.2473 -10.1223 -19.3769 
-29.6568 -10.1223 -18.4724 -21.0664 -10.1223 -17.0958 -12.4759 -10.1223 -17.5695 
-3.88546 -10.1223 -21.327 4.705 -10.1223 -18.0832 13.2955 -10.1223 -15.6379 
21.8859 -10.1223 -16.8152 30.4764 -10.1223 -17.9856 39.0668 -10.1223 -17.4726 
47.6573 -10.1223 -15.8819 -55.4282 -1.53187 -17.2284 -46.8378 -1.53187 -19.8131 
-38.2473 -1.53187 -19.4229 -29.6568 -1.53187 -18.4883 -21.0664 -1.53187 -17.3092 
-12.4759 -1.53187 -22.7252 -3.88546 -1.53187 -18.0696 4.705 -1.53187 -18.8928 
13.2955 -1.53187 -16.7113 21.8859 -1.53187 -16.4897 30.4764 -1.53187 -17.7274 
39.0668 -1.53187 -18.0255 47.6573 -1.53187 -16.9799 -55.4282 7.05859 -16.3402 
-46.8378 7.05859 -19.1398 -38.2473 7.05859 -19.2244 -29.6568 7.05859 -18.6446 
-21.0664 7.05859 -18.0503 -12.4759 7.05859 -21.455 -3.88546 7.05859 -18.0815 
4.705 7.05859 -18.9025 13.2955 7.05859 -15.0631 21.8859 7.05859 -16.4411 
30.4764 7.05859 -18.1499 39.0668 7.05859 -18.763 47.6573 7.05859 -18.1682 
56.2478 7.05859 -16.373 -46.8378 15.6491 -17.6502 -38.2473 15.6491 -18.7342 
-29.6568 15.6491 -18.4392 -21.0664 15.6491 -18.2242 -12.4759 15.6491 -16.9924 
-3.88546 15.6491 -17.0439 4.705 15.6491 -18.378 13.2955 15.6491 -15.6369 
21.8859 15.6491 -17.036 30.4764 15.6491 -18.7872 39.0668 15.6491 -18.8505 
47.6573 15.6491 -18.3395 56.2478 15.6491 -15.2646 -46.8378 24.2395 -16.7643 
-38.2473 24.2395 -18.289 -29.6568 24.2395 -18.2123 -21.0664 24.2395 -18.0188 
-12.4759 24.2395 -16.4536 -3.88546 24.2395 -15.9287 4.705 24.2395 -16.3529 
13.2955 24.2395 -15.9771 21.8859 24.2395 -16.8557 30.4764 24.2395 -17.726 
39.0668 24.2395 -18.2759 47.6573 24.2395 -16.8222 -38.2473 32.83 -16.8451 
-29.6568 32.83 -17.0541 -21.0664 32.83 -16.9684 -12.4759 32.83 -15.9583 
-3.88546 32.83 -15.522 4.705 32.83 -15.5438 13.2955 32.83 -15.3895 
21.8859 32.83 -15.5935 30.4764 32.83 -15.525 39.0668 32.83 -15.726 
-21.0664 41.4204 -15.0128 -38.2473 -38.8115 -14.5615 -38.2473 -44.4842 -8.35577 
-29.6568 -41.0739 -14.5615 -29.6568 -44.4842 -12.4018 -21.0664 -43.2007 -14.5615 
-21.0664 -44.4842 -13.8052 -12.4759 -44.019 -14.5615 -12.4759 -44.4842 -14.3543 
-3.88546 -42.6388 -14.5615 -3.88546 -44.4842 -13.6156 4.705 -42.5044 -14.5615 
4.705 -44.4842 -13.4541 13.2955 -41.9724 -14.5615 13.2955 -44.4842 -13.0539 
21.8859 -40.0484 -14.5615 21.8859 -44.4842 -11.1599 30.4764 -36.6857 -14.5615 
30.4764 -44.4842 -7.89213 -42.7229 -35.8937 -14.5615 -46.8378 -32.553 -14.5615 
-46.8378 -35.8937 -11.8843 32.1445 -35.8937 -14.5615 39.0668 -29.8218 -14.5615 
39.0668 -35.8937 -12.3283 47.6573 -35.8937 -7.22244 -51.6593 -27.3032 -14.5615 
-55.4282 -20.8936 -14.5615 -55.4282 -27.3032 -10.9911 41.5319 -27.3032 -14.5615 
47.6573 -20.3288 -14.5615 47.6573 -27.3032 -12.5154 56.2478 -27.3032 -7.85981 
-56.7757 -18.7128 -14.5615 49.7035 -18.7128 -14.5615 56.2478 -18.7128 -12.2677 
-60.1159 -10.1223 -14.5615 51.1398 -10.1223 -14.5615 56.2478 -10.1223 -12.4373 
64.8382 -10.1223 -6.59189 -60.8622 -1.53187 -14.5615 -64.0187 -1.53187 -7.44204 
55.1767 -1.53187 -14.5615 56.2478 0.051482 -14.5615 56.2478 -1.53187 -14.2082 
64.8382 -1.53187 -8.82256 -58.6945 7.05859 -14.5615 -55.4282 14.939 -14.5615 
59.9042 7.05859 -14.5615 64.8382 7.05859 -11.0697 -54.9649 15.6491 -14.5615 
-55.4282 15.6491 -14.322 57.4343 15.6491 -14.5615 56.2478 19.0197 -14.5615 
64.8382 15.6491 -8.73851 -51.0052 24.2395 -14.5615 -55.4282 24.2395 -10.5652 
-46.8378 30.1215 -14.5615 53.7451 24.2395 -14.5615 47.6573 30.1148 -14.5615 
56.2478 24.2395 -13.4251 64.8382 24.2395 -6.02158 -44.2707 32.83 -14.5615 
-46.8378 32.83 -13.1752 -38.2473 37.4945 -14.5615 -29.6568 40.8473 -14.5615 
-12.4759 38.2228 -14.5615 -3.88546 37.3944 -14.5615 4.705 37.1681 -14.5615 
13.2955 39.842 -14.5615 21.8859 36.1219 -14.5615 30.4764 34.8549 -14.5615 
43.6735 32.83 -14.5615 39.0668 34.67 -14.5615 47.6573 32.83 -13.2611 
56.2478 32.83 -9.94566 -46.8378 41.4204 -7.04745 -38.2473 41.4204 -11.7636 
-27.4298 41.4204 -14.5615 -29.6568 41.4204 -14.3497 -17.9061 41.4204 -14.5615 
-21.0664 42.2096 -14.5615 -12.4759 41.4204 -13.7085 -3.88546 41.4204 -13.7017 
4.705 41.4204 -13.5708 13.2955 41.4204 -14.3148 21.8859 41.4204 -12.4858 
30.4764 41.4204 -10.8116 39.0668 41.4204 -8.14831 -29.6568 50.0109 -7.60285 
-21.0664 50.0109 -8.02094 -12.4759 50.0109 -8.51991 -3.88546 50.0109 -8.85226 
4.705 50.0109 -8.48384 13.2955 50.0109 -6.64306 -38.2473 -46.1786 -5.97101 
-29.6568 -49.4127 -5.97101 -21.0664 -51.3693 -5.97101 -12.4759 -51.5226 -5.97101 
-12.4759 -53.0746 2.00235 -3.88546 -51.098 -5.97101 4.705 -50.5022 -5.97101 
13.2955 -49.4676 -5.97101 21.8859 -48.0311 -5.97101 30.4764 -45.8587 -5.97101 
-41.6813 -44.4842 -5.97101 -46.8378 -41.4272 -5.97101 35.3806 -44.4842 -5.97101 
39.0668 -43.1709 -5.97101 39.0668 -44.4842 -1.3246 47.6573 -36.9779 -5.97101 
-53.1389 -35.8937 -5.97101 -55.4282 -33.1686 -5.97101 49.098 -35.8937 -5.97101 
56.2478 -29.7722 -5.97101 -58.8411 -27.3032 -5.97101 58.0482 -27.3032 -5.97101 
-62.1206 -18.7128 -5.97101 61.9458 -18.7128 -5.97101 64.8382 -11.8515 -5.97101 
64.8382 -18.7128 0.777712 -63.7545 -10.1223 -5.97101 -64.0187 -6.3005 -5.97101 
65.34 -10.1223 -5.97101 -64.3592 -1.53187 -5.97101 -64.0187 0.656772 -5.97101 
-64.0187 -1.53187 -4.95195 66.9846 -1.53187 -5.97101 -63.0434 7.05859 -5.97101 
67.9517 7.05859 -5.97101 -61.3039 15.6491 -5.97101 66.628 15.6491 -5.97101 
-58.6975 24.2395 -5.97101 -55.4282 31.2629 -5.97101 64.8714 24.2395 -5.97101 
64.8382 24.2898 -5.97101 64.8382 24.2395 -5.68337 -54.5508 32.83 -5.97101 
47.6573 40.4113 -5.97101 58.78 32.83 -5.97101 56.2478 35.2426 -5.97101 
-47.624 41.4204 -5.97101 -46.8378 42.2419 -5.97101 -38.2473 47.4756 -5.97101 
21.8859 49.3938 -5.97101 30.4764 46.3407 -5.97101 44.7253 41.4204 -5.97101 
39.0668 43.2836 -5.97101 -32.5968 50.0109 -5.97101 -29.6568 51.0116 -5.97101 
-21.0664 51.8704 -5.97101 -12.4759 52.4459 -5.97101 -3.88546 52.8511 -5.97101 
4.705 52.5661 -5.97101 18.1413 50.0109 -5.97101 13.2955 50.6344 -5.97101 
-12.4759 -53.1758 2.61945 -38.2473 -46.9146 2.61945 -29.6568 -50.5902 2.61945 
-15.2644 -53.0746 2.61945 -21.0664 -52.8568 2.61945 -10.3805 -53.0746 2.61945 
-12.4759 -53.0746 3.07397 -3.88546 -52.7617 2.61945 4.705 -52.1098 2.61945 
13.2955 -51.1051 2.61945 21.8859 -49.6787 2.61945 30.4764 -47.9265 2.61945 
39.0668 -45.3326 2.61945 -42.0238 -44.4842 2.61945 -46.8378 -40.6612 2.61945 
-38.2473 -44.4842 7.93659 40.6959 -44.4842 2.61945 39.0668 -44.4842 5.23581 
47.6573 -40.7737 2.61945 -51.3221 -35.8937 2.61945 -55.4282 -29.7478 2.61945 
-46.8378 -35.8937 8.80858 53.8223 -35.8937 2.61945 56.2478 -33.3176 2.61945 
-56.9819 -27.3032 2.61945 -55.4282 -27.3032 4.58654 60.8926 -27.3032 2.61945 
64.8382 -19.8454 2.61945 -59.6138 -18.7128 2.61945 -55.4282 -18.7128 7.72751 
65.3656 -18.7128 2.61945 64.8382 -18.7128 3.73633 -61.0428 -10.1223 2.61945 
-55.4282 -10.1223 9.0881 67.5005 -10.1223 2.61945 64.8382 -10.1223 8.57133 
-61.2728 -1.53187 2.61945 -55.4282 -1.53187 9.49112 68.3074 -1.53187 2.61945 
64.8382 -1.53187 8.62496 -60.4323 7.05859 2.61945 -55.4282 7.05859 8.88948 
68.4301 7.05859 2.61945 64.8382 7.05859 8.42755 -59.3719 15.6491 2.61945 
-55.4282 15.6491 8.20865 66.7573 15.6491 2.61945 64.8382 21.623 2.61945 
64.8382 15.6491 5.5638 -57.7176 24.2395 2.61945 -55.4282 29.394 2.61945 
-55.4282 24.2395 6.8989 63.838 24.2395 2.61945 -53.6252 32.83 2.61945 
47.6573 40.1794 2.61945 57.7038 32.83 2.61945 56.2478 34.2236 2.61945 
56.2478 32.83 4.47973 -47.9173 41.4204 2.61945 -46.8378 42.6501 2.61945 
-46.8378 41.4204 4.47386 -38.2473 48.7895 2.61945 21.8859 49.7362 2.61945 
30.4764 46.9349 2.61945 45.0104 41.4204 2.61945 39.0668 44.0246 2.61945 
39.0668 41.4204 6.71401 -35.3612 50.0109 2.61945 -29.6568 52.1856 2.61945 
-29.6568 50.0109 8.34469 -21.0664 54.1368 2.61945 -21.0664 50.0109 10.408 
-12.4759 54.7115 2.61945 -12.4759 50.0109 10.6774 -3.88546 54.8756 2.61945 
-3.88546 50.0109 9.91121 4.705 54.3509 2.61945 4.705 50.0109 10.4226 
21.2058 50.0109 2.61945 13.2955 52.6358 2.61945 13.2955 50.0109 6.82953 
-29.6568 -46.6046 11.2099 -21.0664 -49.6874 11.2099 -12.4759 -50.7857 11.2099 
-3.88546 -50.4815 11.2099 4.705 -49.5381 11.2099 13.2955 -48.6624 11.2099 
21.8859 -46.8839 11.2099 30.4764 -44.7998 11.2099 -34.2691 -44.4842 11.2099 
-38.2473 -41.3861 11.2099 -29.6568 -44.4842 13.4082 -21.0664 -44.4842 15.8454 
-12.4759 -44.4842 16.9431 -3.88546 -44.4842 16.8005 4.705 -44.4842 16.0462 
13.2955 -44.4842 15.1705 21.8859 -44.4842 13.7168 31.5968 -44.4842 11.2099 
30.4764 -44.4842 11.5996 39.0668 -41.68 11.2099 47.6573 -37.656 11.2099 
-43.736 -35.8937 11.2099 -46.8378 -30.0758 11.2099 -38.2473 -35.8937 14.3894 
-29.6568 -35.8937 17.746 -21.0664 -35.8937 19.2058 -3.88546 -35.8937 19.6553 
4.705 -35.8937 18.9972 13.2955 -35.8937 18.4272 21.8859 -35.8937 17.881 
30.4764 -35.8937 17.1271 39.0668 -35.8937 16.183 49.7892 -35.8937 11.2099 
47.6573 -35.8937 12.7847 56.2478 -28.5713 11.2099 -47.9633 -27.3032 11.2099 
-46.8378 -27.3032 12.0185 -38.2473 -27.3032 16.746 -29.6568 -27.3032 18.7401 
[...]
POINT_DATA 554
SCALARS ImageScalars float
LOOKUP_TABLE default
0 0 0 0 0 0 0 0 0 
0 0 0 0 0 0 0 0 0 
0 0 0 0 0 0 0 0 0 
0 0 0 0 0 0 0 0 0 
0 0 0 0 0 0 0 0 0 
0 0 0 0 0 0 0 0 0 
0 0 0 0 0 0 0 0 0 
0 0 0 0 0 0 0 0 0 
0 0 0 0 0 0 0 0 0 
0 0 0 0 0 0 0 0 0 
0 0 0 0 0 0 0 0 0 
0 0 0 0 0 0 0 0 0 
0 0 0 0 0 0 0 0 0 
0 0 0 0 0 0 0 0 0 
0 0 0 0 0 0 0 0 0 
0 0 0 0 0 0 0 0 0 
0 0 0 0 0 0 0 0 0 
0 0 0 0 0 0 0 0 0 
0 0 0 0 0 0 0 0 0 
0 0 0 0 0 0 0 0 0 
0 0 0 0 0 0 0 0 0 
0 0 0 0 0 0 0 0 0 
0 0 0 0 0 0 0 0 0 
0 0 0 0 0 0 0 0 0 
0 0 0 0 0 0 0 0 0 
0 0 0 0 0 0 0 0 0 
0 0 0 0 0 0 0 0 0 
0 0 0 0 0 0 0 0 0 
0 0 0 0 0 0 0 0 0 
0 0 0 0 0 0 0 0 0 
0 0 0 0 0 0 0 0 0 
0 0 0 0 0 0 0 0 0 
0 0 0 0 0 0 0 0 0 
0 0 0 0 0 0 0 0 0 
0 0 0 0 0 0 0 0 0 
0 0 0 0 0 0 0 0 0 
0 0 0 0 0 0 0 0 0 
0 0 0 0 0 0 0 0 0 
0 0 0 0 0 0 0 0 0 
0 0 0 0 0 0 0 0 0 
0 0 0 0 0 0 0 0 0 
0 0 0 0 0 0 0 0 0 
0 0 0 0 0 0 0 0 0 
0 0 0 0 0 0 0 0 0 
0 0 0 0 0 0 0 0 0 
0 0 0 0 0 0 0 0 0 
0 0 0 0 0 0 0 0 0 
0 0 0 0 0 0 0 0 0 
0 0 0 0 0 0 0 0 0 
0 0 0 0 0 0 0 0 0 
0 0 0 0 0 0 0 0 0 
0 0 0 0 0 0 0 0 0 
0 0 0 0 0 0 0 0 0 
0 0 0 0 0 0 0 0 0 
0 0 0 0 0 0 0 0 0 
0 0 0 0 0 0 0 0 0 
0 0 0 0 0 0 0 0 0 
0 0 0 0 0 0 0 0 0 
0 0 0 0 0 0 0 0 0 
0 0 0 0 0 0 0 0 0 
0 0 0 0 0 0 0 0 0 
0 0 0 0 0 
NORMALS Normals float
0.211294 0.411818 0.886432 0.0710761 0.293906 0.953188 0.00626495 0.272031 0.962268 
-0.0205184 0.20789 0.977937 0.00120044 0.219423 0.975629 -0.0136755 0.218874 0.975657 
-0.026992 0.233617 0.971954 -0.108564 0.310282 0.944425 -0.209116 0.415301 0.885323 
0.306393 0.265612 0.914097 0.0989479 0.168273 0.980762 0.0151621 0.127682 0.991699 
-0.0295724 0.0488801 0.998367 -0.0576217 0.0147497 0.99823 -0.0139504 -0.00817053 0.999869 
-0.00802191 -0.0393113 0.999195 0.00841149 -0.0100275 0.999914 -0.0160263 0.0453357 0.998843 
-0.145329 0.147951 0.978259 -0.278371 0.215628 0.935956 0.488837 0.288194 0.823397 
0.166206 0.149419 0.974705 0.0577307 0.0363578 0.99767 -0.0456069 -0.00943117 0.998915 
-0.109643 -0.108062 0.988079 -0.071779 -0.0335099 0.996857 -0.0581436 0.14385 0.98789 
-0.0165921 -0.0230928 0.999596 0.0670289 -0.125423 0.989836 0.0579387 -0.0684387 0.995972 
-0.0460046 0.0235394 0.998664 -0.169902 0.1228 0.97778 -0.211522 0.180388 0.960583 
0.390146 0.0745111 0.917733 0.156068 0.0840532 0.984163 -0.0631916 0.018567 0.997829 
-0.131546 -0.0519582 0.989947 -0.0589858 -0.0600063 0.996454 0.22657 0.192633 0.954756 
0.0544853 0.153104 0.986707 -0.345604 0.148961 0.926482 -0.0287569 -0.0239076 0.9993 
0.134921 -0.0668722 0.988597 0.0349232 -0.00554431 0.999375 -0.119181 0.0689424 0.990476 
-0.26782 0.114174 0.95668 0.374957 -0.0366096 0.926319 0.145886 -0.02493 0.988987 
-0.0752895 -0.0088438 0.997123 -0.122031 0.00995487 0.992476 0.108434 0.0580934 0.992405 
0.204796 0.232836 0.950708 -0.169884 -0.222267 0.960071 -0.0850942 0.0410805 0.995526 
-0.125368 -0.0157671 0.991985 0.0626294 -0.0208049 0.99782 0.0888203 0.00952593 0.996002 
-0.0417593 0.0753488 0.996282 -0.201263 0.129432 0.970948 0.419168 -0.141529 0.896809 
0.179505 -0.12278 0.976065 -0.0291927 -0.0399974 0.998773 -0.0681169 -0.00284812 0.997673 
0.127254 0.0553018 0.990327 0.0360703 -0.333823 0.941945 -0.138019 -0.0622325 0.988472 
-0.153573 -0.0289824 0.987712 -0.138501 -0.0417016 0.989484 0.161827 0.0320198 0.9863 
0.131402 0.0600415 0.989509 0.0019373 0.0478933 0.998851 -0.122279 0.0781861 0.989411 
-0.35252 0.0631178 0.933673 0.204491 -0.136624 0.969287 0.0411504 -0.0528806 0.997753 
-0.0301566 -0.0255607 0.999218 -0.0860923 -0.00172806 0.996286 -0.0691187 -0.237811 0.968849 
0.0716629 -0.126123 0.989423 -0.104875 -0.161614 0.981266 -0.0483855 0.045421 0.997795 
0.178433 0.023009 0.983683 0.106142 -0.0247074 0.994044 -0.024909 -0.0262588 0.999345 
-0.180221 -0.0766936 0.980632 -0.43245 -0.141678 0.890457 0.31696 -0.203223 0.926411 
0.0934111 -0.123953 0.987882 -0.0153827 -0.0764773 0.996953 -0.100618 -0.0743407 0.992144 
-0.120106 -0.0596052 0.99097 -0.00583233 -0.0784433 0.996902 0.00272688 -0.140895 0.990021 
0.0289762 -0.0140127 0.999482 0.101467 -0.079204 0.991681 0.078625 -0.176669 0.981125 
-0.0514917 -0.189202 0.980587 -0.232307 -0.238931 0.942839 0.167354 -0.293696 0.941135 
0.0085075 -0.230036 0.973145 -0.0619952 -0.178404 0.982002 -0.0841093 -0.149103 0.985238 
-0.0238921 -0.1256 0.991793 -0.00762856 -0.156076 0.987716 0.00223317 -0.0969436 0.995287 
0.00830401 -0.231718 0.972748 0.00770438 -0.32769 0.944754 -0.0930473 -0.415454 0.904843 
-0.0357988 -0.405971 0.913184 0.246553 0.524016 0.815242 0.369023 0.812054 0.452095 
0.147718 0.499147 0.853833 0.216973 0.676766 0.703499 0.0712801 0.496128 0.865318 
0.0825586 0.556207 0.826933 -0.0107944 0.518699 0.854889 -0.00933023 0.541637 0.840561 
-0.0294578 0.479518 0.877037 -0.038913 0.575339 0.816989 -0.0156507 0.495771 0.868313 
-0.0233757 0.608513 0.7932 -0.0679109 0.490593 0.868739 -0.0893162 0.641402 0.761989 
-0.153762 0.480423 0.863453 -0.199838 0.736484 0.646263 -0.215603 0.44443 0.869481 
-0.250962 0.819053 0.515918 0.319516 0.492689 0.809424 0.378751 0.444123 0.811974 
0.475721 0.617513 0.626393 -0.227836 0.425243 0.875933 -0.292921 0.281476 0.913766 
-0.342119 0.487425 0.80335 -0.5193 0.639074 0.567373 0.47987 0.321844 0.816174 
0.52958 0.322653 0.7845 0.741527 0.415822 0.526527 -0.30865 0.240879 0.92017 
-0.237801 0.204676 0.949504 -0.387644 0.324653 0.862747 -0.648128 0.443965 0.618729 
0.553634 0.312364 0.771958 -0.283964 0.188671 0.940089 -0.545901 0.218725 0.808797 
0.638548 0.138051 0.757099 -0.339908 0.0908257 0.936063 -0.466433 0.108036 0.877934 
-0.802284 0.245327 0.544201 0.66334 -0.0507009 0.746599 0.997425 -0.0449413 0.0558847 
-0.360618 0.188006 0.913569 -0.377866 0.173831 0.909395 -0.388226 0.196291 0.900417 
-0.787222 0.179354 0.590012 0.583065 -0.192931 0.789185 0.511767 -0.276827 0.813303 
-0.481645 0.0493173 0.874978 -0.755434 0.0129626 0.655096 0.504245 -0.276338 0.818153 
0.534245 -0.289061 0.794372 -0.467518 -0.145853 0.871868 -0.439977 -0.159563 0.883719 
-0.850399 -0.177631 0.495246 0.49363 -0.251637 0.832471 0.76467 -0.34204 0.546158 
0.408081 -0.341418 0.846702 -0.384759 -0.211818 0.898384 -0.238651 -0.368455 0.898491 
-0.487962 -0.221246 0.84436 -0.865637 -0.42678 0.261785 0.361123 -0.374851 0.85386 
0.474874 -0.424348 0.770989 0.21858 -0.4522 0.864718 0.144011 -0.371083 0.917365 
-0.0803281 -0.274218 0.958307 -0.0152738 -0.22898 0.973311 0.0154212 -0.247282 0.968821 
-0.0289855 -0.332475 0.942666 -0.0611471 -0.286467 0.956137 -0.0286735 -0.386727 0.921748 
-0.16682 -0.425595 0.889404 -0.0997747 -0.471257 0.876334 -0.272824 -0.48112 0.833121 
-0.595967 -0.624565 0.50472 0.623357 -0.68863 0.370425 0.289574 -0.617799 0.731076 
0.103301 -0.390407 0.914829 0.155243 -0.386785 0.909009 -0.0513876 -0.388045 0.920207 
-0.0371585 -0.432494 0.900871 -0.0676701 -0.363761 0.929031 -0.00777441 -0.331256 0.943509 
0.0254759 -0.35336 0.93514 -0.0386445 -0.391737 0.919265 -0.175908 -0.451592 0.874712 
-0.203184 -0.674252 0.71 -0.233296 -0.83201 0.503321 0.193037 -0.856992 0.477809 
0.0402097 -0.77861 0.626218 0.0401538 -0.732399 0.67969 -0.00226417 -0.711969 0.702207 
-0.107869 -0.726569 0.678573 -0.144186 -0.810528 0.567674 0.39867 0.854506 0.33299 
0.25665 0.897779 0.357943 0.118926 0.914138 0.387566 -0.0145163 0.908251 0.418173 
-0.00690251 0.999976 -2.53103e-05 -0.0527503 0.91177 0.407299 -0.0883663 0.913458 0.397222 
-0.13115 0.916542 0.377822 -0.19204 0.904568 0.380627 -0.243766 0.868703 0.4312 
0.46635 0.835616 0.290283 0.5722 0.78487 0.237836 -0.330388 0.835032 0.439961 
-0.401938 0.790067 0.462862 -0.40351 0.899091 0.169749 -0.528507 0.679951 0.508278 
0.720657 0.677511 0.147076 0.791065 0.599274 0.122826 -0.544229 0.663992 0.512766 
-0.674858 0.513561 0.529926 0.88218 0.44843 0.143769 -0.715818 0.448861 0.534909 
0.959719 0.278242 0.0389893 -0.750555 0.336349 0.568803 -0.810812 0.265135 0.521811 
-0.935776 0.350201 0.0410107 0.991727 0.124602 -0.0308613 0.997807 0.0504065 -0.0428979 
-0.826728 0.24067 0.508525 0.998125 -0.0414673 -0.045011 0.996267 -0.0745944 -0.043447 
0.993848 -0.0416645 -0.102617 -0.889235 0.146568 0.433334 0.984289 -0.176565 -0.00088095 
-0.94638 -0.0211777 0.322362 0.964778 -0.24444 0.0972284 -0.932726 -0.167994 0.319063 
0.897359 -0.383757 0.217894 0.848594 -0.492235 0.193887 -0.866613 -0.426875 0.258379 
-0.866029 -0.428266 0.258036 -0.870863 -0.430288 0.237592 0.832968 -0.516532 0.198392 
-0.415854 -0.880578 0.227263 -0.714049 -0.667999 0.209551 -0.634293 -0.744244 0.209221 
0.653632 -0.696523 0.296009 0.633394 -0.7122 0.302626 0.397048 -0.823562 0.405091 
-0.22609 -0.906709 0.356037 -0.27214 -0.881886 0.384989 -0.365299 -0.891176 0.269002 
-0.295551 -0.881936 0.367203 0.276972 -0.88309 0.378734 0.214883 -0.897104 0.386043 
0.0839218 -0.844322 0.529224 0.0512157 -0.835986 0.546355 0.0069403 -0.841237 0.540622 
-0.117951 -0.835363 0.536895 -0.196559 -0.87989 0.432619 -0.162462 -0.830632 0.532594 
-0.00620899 0.999556 -0.0291276 0.490955 0.856563 -0.158942 0.315996 0.942819 -0.106019 
0.0439943 0.998148 -0.042013 0.150215 0.986208 -0.0694936 -0.0195723 0.99942 -0.0278591 
-0.00433902 0.998732 -0.0501532 -0.0616566 0.997803 -0.0242581 -0.0986814 0.994205 -0.0426334 
-0.136734 0.990245 -0.0268113 -0.180674 0.982449 -0.0463771 -0.238548 0.970032 -0.0461848 
-0.385876 0.921237 -0.0492232 0.568275 0.79644 -0.206754 0.665246 0.689585 -0.286216 
0.515421 0.731863 -0.445777 -0.413244 0.909572 -0.0436888 -0.389595 0.898688 -0.201433 
-0.539173 0.84217 0.00656552 0.727717 0.593704 -0.343429 0.773896 0.471425 -0.422899 
0.630588 0.483175 -0.607372 -0.685595 0.727869 -0.0129096 -0.745554 0.665471 -0.0360081 
0.811175 0.411513 -0.415515 0.747175 0.405072 -0.526922 -0.833225 0.552092 -0.0305127 
-0.930062 0.358833 -0.0788877 0.857095 0.221697 -0.465015 0.673819 0.18962 -0.714152 
-0.939534 0.33268 -0.0812428 -0.930627 0.336199 -0.144581 0.876187 0.0947863 -0.472559 
0.612929 0.0773064 -0.786347 -0.982565 0.170144 -0.0749511 -0.832593 0.144155 -0.534797 
0.833405 -0.0353976 -0.551528 0.654519 -0.0070266 -0.756013 -0.985584 0.0548896 -0.160033 
-0.782831 -0.00620881 -0.622204 0.88219 -0.112789 -0.457187 0.662306 -0.0557289 -0.747158 
-0.975391 -0.0917191 -0.200497 -0.779699 -0.133226 -0.611818 0.888655 -0.16534 -0.427732 
0.770834 -0.0729455 -0.632846 -0.929461 -0.243534 -0.277114 -0.856739 -0.383745 -0.344584 
-0.843389 -0.274021 -0.462177 0.906417 -0.302534 -0.294757 0.871483 -0.396027 -0.289274 
0.826261 -0.267288 -0.495833 -0.824741 -0.438908 -0.356597 0.845554 -0.457986 -0.274385 
-0.463462 -0.841607 -0.277309 -0.68203 -0.659826 -0.31538 -0.647731 -0.695451 -0.311115 
-0.646394 -0.648342 -0.402277 0.741095 -0.638972 -0.206138 0.712085 -0.672146 -0.202864 
0.711533 -0.637367 -0.295776 0.435648 -0.88808 -0.146714 -0.330792 -0.909323 -0.252405 
-0.29429 -0.924254 -0.243202 -0.436578 -0.860464 -0.262679 -0.37145 -0.895423 -0.245443 
-0.36236 -0.794006 -0.488109 0.373621 -0.918063 -0.132545 0.283414 -0.952834 -0.108554 
0.258869 -0.877033 -0.404722 0.147916 -0.982834 -0.110262 0.058465 -0.800237 -0.596827 
0.0435289 -0.991342 -0.123881 -0.0235964 -0.754014 -0.656434 -0.0211422 -0.986291 -0.163657 
-0.0108901 -0.738253 -0.674437 -0.137653 -0.975194 -0.173343 -0.11536 -0.668248 -0.73494 
-0.328473 -0.911916 -0.245996 -0.267086 -0.944114 -0.193167 -0.270425 -0.830331 -0.487259 
0.337631 0.713966 -0.613398 0.193687 0.797023 -0.572048 0.0364088 0.855148 -0.517104 
-0.064501 0.858111 -0.509397 -0.0932156 0.837367 -0.538635 -0.13962 0.817279 -0.559071 
-0.198081 0.800808 -0.565217 -0.238729 0.793023 -0.560466 0.420219 0.651317 -0.631824 
0.47967 0.561488 -0.674276 0.317324 0.618799 -0.718605 0.16561 0.555211 -0.815055 
0.0509786 0.511746 -0.857623 -0.0473604 0.493079 -0.868695 -0.0896834 0.54429 -0.834089 
-0.121531 0.579183 -0.806088 -0.168403 0.682142 -0.711563 -0.254199 0.786212 -0.563253 
-0.237216 0.778493 -0.581099 -0.331695 0.715628 -0.6147 -0.475152 0.64748 -0.595819 
0.537907 0.418353 -0.731872 0.570717 0.284495 -0.770289 0.425708 0.362611 -0.829027 
0.250112 0.250864 -0.935153 0.106159 0.194538 -0.975133 -0.0478005 0.133456 -0.989901 
-0.0703551 0.165326 -0.983726 -0.0644035 0.194673 -0.978752 -0.069165 0.271695 -0.959895 
-0.0898864 0.323944 -0.941796 -0.243329 0.445026 -0.861825 -0.53444 0.621361 -0.572962 
-0.441072 0.589643 -0.676593 -0.644376 0.449124 -0.618924 0.561192 0.226322 -0.796142 
0.552432 0.213316 -0.805801 0.340563 0.170814 -0.924575 0.166563 0.0958385 -0.981362 
0.0786432 0.0212198 -0.996677 -0.0528383 -0.0685266 -0.996249 -0.0222739 -0.0642161 -0.997687 
0.0118826 -0.00675279 -0.999907 -0.0182916 0.0428391 -0.998915 -0.0778025 0.110983 -0.990772 
-0.0798605 0.117926 -0.989806 -0.324365 0.225684 -0.918615 -0.647412 0.416089 -0.638536 
-0.616892 0.393168 -0.681809 0.537869 0.155963 -0.828476 0.497221 0.137183 -0.85671 
0.279539 0.0743706 -0.95725 0.082208 0.0459227 -0.995557 -0.030268 -0.0471432 -0.998429 
-0.0616108 -0.153108 -0.986287 -0.0595125 0.000555809 -0.998227 -0.00810153 0.0405709 -0.999144 
0.038309 -0.0529263 -0.997863 0.0496463 -0.130815 -0.990163 -0.00339574 -0.042778 -0.999079 
-0.11507 0.00480109 -0.993346 -0.213591 0.0150242 -0.976808 -0.666793 0.22662 -0.709951 
-0.501026 0.18285 -0.845895 0.530163 0.0687934 -0.8451 0.46574 0.0540955 -0.883267 
0.25801 0.0600837 -0.964272 0.0473531 0.080529 -0.995627 -0.11919 0.063549 -0.990836 
0.0160993 0.017101 -0.999724 0.149596 0.0113462 -0.988682 -0.16765 0.0183446 -0.985676 
-0.00378228 -0.138124 -0.990408 0.0578657 -0.117254 -0.991415 -0.0313352 -0.0580425 -0.997822 
-0.150747 -0.00774483 -0.988542 -0.646684 0.0989936 -0.756306 -0.42623 0.00747178 -0.904584 
0.592897 0.000903756 -0.805278 0.489216 0.0252377 -0.871798 0.31876 0.109662 -0.94147 
-0.116566 0.166706 -0.979092 -0.0758957 0.103889 -0.991689 0.0133089 -0.0344404 -0.999318 
-0.129643 0.0360619 -0.990905 -0.0585708 0.0079578 -0.998252 0.0785076 -0.030582 -0.996444 
-0.0126734 -0.0373692 -0.999221 -0.151306 -0.0448987 -0.987467 -0.582934 -0.0354078 -0.811748 
-0.405094 -0.0528203 -0.912748 0.58533 -0.0212301 -0.810517 0.548567 0.0248577 -0.835737 
-0.160412 0.0282608 -0.986646 -0.120388 -0.0500325 -0.991465 -0.0707605 0.120005 -0.990248 
0.00975776 0.0514495 -0.998628 -0.0458057 0.0143397 -0.998847 -0.176245 -0.0404583 -0.983514 
-0.551581 -0.130212 -0.823895 -0.360223 -0.113458 -0.925941 0.675469 -0.0344856 -0.736582 
0.577134 -0.0182428 -0.816446 -0.151299 -0.179263 -0.972098 -0.0165581 -0.112733 -0.993487 
0.00726228 0.0116078 -0.999906 -0.0236524 -0.00341507 -0.999714 -0.109432 -0.0592392 -0.992227 
-0.270339 -0.105907 -0.956922 -0.541649 -0.181527 -0.820771 -0.47825 -0.158361 -0.863828 
0.673248 -0.18145 -0.716808 0.573485 -0.110904 -0.811674 0.322391 -0.148116 -0.934947 
-0.204439 -0.149965 -0.967324 -0.105976 -0.137179 -0.984861 0.0500483 -0.145885 -0.988035 
0.0375982 -0.169922 -0.98474 -0.0646207 -0.16935 -0.983435 -0.15444 -0.200646 -0.967414 
-0.285168 -0.265538 -0.920961 -0.497104 -0.29832 -0.814796 -0.496884 -0.299195 -0.814609 
-0.49628 -0.297952 -0.815433 0.692191 -0.357299 -0.627064 0.662261 -0.414436 -0.624222 
0.655266 -0.341178 -0.673962 0.319654 -0.281377 -0.904792 0.147105 -0.264753 -0.95303 
-0.152549 -0.178627 -0.972019 -0.174851 -0.170761 -0.969674 -0.133253 -0.154953 -0.978894 
-0.0441443 -0.205994 -0.977557 -0.0140626 -0.302993 -0.952889 -0.0607055 -0.32965 -0.94215 
-0.272028 -0.561949 -0.781162 -0.211574 -0.440747 -0.872341 -0.370975 -0.481517 -0.794052 
-0.351374 -0.496384 -0.793813 -0.34608 -0.469806 -0.812102 0.501576 -0.592609 -0.630267 
0.444656 -0.644616 -0.621893 0.429194 -0.579147 -0.693095 0.231206 -0.769917 -0.594787 
0.160501 -0.472827 -0.866414 0.0446534 -0.752453 -0.65713 0.0187583 -0.45562 -0.889977 
-0.0314894 -0.716344 -0.697036 -0.0896177 -0.386811 -0.917794 -0.0329098 -0.632569 -0.773804 
-0.149704 -0.354792 -0.922882 -0.111951 -0.584868 -0.803366 -0.136696 -0.301928 -0.94348 
-0.175083 -0.512941 -0.840379 -0.113759 -0.383639 -0.91645 -0.118893 -0.536608 -0.835414 
-0.11037 -0.529044 -0.841386 -0.165386 -0.645595 -0.745557 -0.161598 -0.647316 -0.744895 
-0.160419 -0.642292 -0.749484 0.0288133 0.170456 -0.984944 0.0307529 0.169269 -0.98509 
0.0206187 0.164929 -0.98609 0.0287237 0.168538 -0.985277 0.0714099 0.016683 -0.997308 
-0.0356337 -0.0556599 -0.997814 -0.0361885 -0.0771915 -0.996359 -0.0243213 -0.0460105 -0.998645 
-0.0729384 0.0274875 -0.996958 0.0540185 0.0918723 -0.994305 -0.106424 0.115342 -0.987608 
0.00676294 0.0217836 -0.99974 -0.0917231 0.0279443 -0.995392 -0.0688246 0.0191032 -0.997446 
-0.0797028 0.0276067 -0.996436 0.227416 0.12733 -0.965437 0.344827 0.0877263 -0.934558 
0.0825915 0.147877 -0.985551 -0.104629 0.166883 -0.98041 -0.0935519 0.165127 -0.981825 
-0.0770142 0.118755 -0.989932 -0.0576051 0.111427 -0.992102 0.369744 0.0749953 -0.926102 
0.354994 0.0773384 -0.931664 0.0918241 0.0817322 -0.992415 -0.102892 0.0692492 -0.992279 
-0.0379295 0.0661032 -0.997092 -0.147281 0.0384929 -0.988345 -0.0424807 0.110416 -0.992977 
0.388012 -0.0248685 -0.921319 0.329088 -0.120315 -0.936603 0.354449 -0.0282343 -0.934649 
0.0701387 -0.0432816 -0.996598 -0.11559 -0.0232335 -0.993025 -0.079996 -0.012919 -0.996711 
-0.122773 -0.165779 -0.978491 -0.142671 -0.1522 -0.977998 -0.0996931 -0.153345 -0.983131 
0.296029 -0.148482 -0.943568 0.146028 -0.261578 -0.954072 0.0993635 -0.146694 -0.984179 
-0.0715746 -0.0740692 -0.994681 -0.168986 -0.0937226 -0.981152 -0.156803 -0.108055 -0.981701 
-0.157609 -0.0763789 -0.984543 0.137388 -0.263359 -0.954865 -0.0974486 -0.206846 -0.973508 
-0.025025 -0.28017 -0.959624 -0.0392914 -0.234758 -0.971259 
