# vtk DataFile Version 4.2
vtk output
ASCII
DATASET POLYDATA
POINTS 526 float
-17.2292 -11.5079 -24.8363 -17.2292 -32.2232 -18.5324 -10.3241 -32.2232 -21.1771 
-3.41902 -32.2232 -21.4951 3.48608 -32.2232 -20.4881 -24.1343 -25.3181 -20.0972 
-17.2292 -25.3181 -22.9168 -10.3241 -25.3181 -23.7348 -3.41902 -25.3181 -24.0913 
3.48608 -25.3181 -23.2507 10.3912 -25.3181 -20.8 -31.0394 -18.413 -19.4605 
-24.1343 -18.413 -23.0172 -17.2292 -12.5629 -24.7625 -17.2292 -18.413 -24.3428 
-10.3241 -18.413 -24.2619 -3.41902 -18.413 -24.0982 3.48608 -18.413 -23.4942 
10.3912 -18.413 -20.9898 -31.0394 -11.5079 -21.5314 -17.7236 -11.5079 -24.7625 
-24.1343 -11.5079 -23.8122 -16.5803 -11.5079 -24.7625 -17.2292 -10.2132 -24.7625 
-10.3241 -11.5079 -24.0396 -3.41902 -11.5079 -22.713 3.48608 -11.5079 -22.3703 
10.3912 -11.5079 -19.9667 -37.9445 -4.60279 -17.8886 -31.0394 -4.60279 -21.3553 
-24.1343 -4.60279 -23.1602 -17.2292 -4.60279 -24.4371 -10.3241 -4.60279 -24.2365 
-3.41902 -4.60279 -22.0209 3.48608 -4.60279 -20.8456 10.3912 -4.60279 -19.5481 
17.2963 -4.60279 -18.1303 24.2014 -4.60279 -17.8735 -31.0394 2.30231 -20.6999 
-24.1343 2.30231 -21.5681 -17.2292 2.30231 -22.2347 -10.3241 2.30231 -22.8066 
-3.41902 2.30231 -20.6078 3.48608 2.30231 -18.2294 10.3912 2.30231 -18.6809 
17.2963 2.30231 -18.9007 24.2014 2.30231 -19.0639 31.1065 2.30231 -18.0918 
-31.0394 9.20742 -19.7043 -24.1343 9.20742 -20.6681 -17.2292 9.20742 -20.4501 
-10.3241 9.20742 -20.2405 -3.41902 9.20742 -19.3525 3.48608 9.20742 -18.3494 
10.3912 9.20742 -18.5127 17.2963 9.20742 -19.1352 24.2014 9.20742 -19.0199 
31.1065 9.20742 -17.9707 -31.0394 16.1125 -19.3665 -24.1343 16.1125 -20.1194 
-17.2292 16.1125 -20.6657 -10.3241 16.1125 -20.8943 -3.41902 16.1125 -20.8877 
3.48608 16.1125 -20.6149 10.3912 16.1125 -20.1242 17.2963 16.1125 -19.7145 
24.2014 16.1125 -18.7956 -24.1343 23.0176 -19.5492 -17.2292 23.0176 -20.6131 
-10.3241 23.0176 -21.5761 -3.41902 23.0176 -21.2189 3.48608 23.0176 -20.7525 
10.3912 23.0176 -20.2879 17.2963 23.0176 -19.2619 -17.2292 29.9227 -18.5214 
-10.3241 29.9227 -18.7767 -3.41902 29.9227 -18.3085 -17.2292 -32.8167 -17.8574 
-10.3241 -35.3585 -17.8574 -3.41902 -36.0753 -17.8574 3.48608 -35.1335 -17.8574 
-18.3398 -32.2232 -17.8574 -24.1343 -28.1018 -17.8574 10.2132 -32.2232 -17.8574 
10.3912 -32.0744 -17.8574 10.3912 -32.2232 -17.7614 17.2963 -32.2232 -12.6612 
-27.26 -25.3181 -17.8574 -31.0394 -21.0667 -17.8574 -31.0394 -25.3181 -12.4886 
15.5797 -25.3181 -17.8574 17.2963 -25.3181 -16.8398 24.2014 -25.3181 -12.7548 
-33.1034 -18.413 -17.8574 16.3014 -18.413 -17.8574 17.2963 -18.413 -17.381 
24.2014 -18.413 -15.3445 31.1065 -18.413 -12.3232 -36.5262 -11.5079 -17.8574 
-37.9445 -4.80352 -17.8574 -37.9445 -11.5079 -16.4912 15.8745 -11.5079 -17.8574 
17.2963 -7.11987 -17.8574 17.2963 -11.5079 -17.3683 24.2014 -4.68681 -17.8574 
24.2014 -11.5079 -16.5126 31.1065 -11.5079 -14.9796 38.0116 -11.5079 -11.1516 
-37.9798 -4.60279 -17.8574 -37.9445 -3.85394 -17.8574 24.3804 -4.60279 -17.8574 
31.1065 0.396023 -17.8574 31.1065 -4.60279 -17.1886 38.0116 -4.60279 -13.7947 
-37.4609 2.30231 -17.8574 -37.9445 2.30231 -17.5978 31.7235 2.30231 -17.8574 
38.0116 2.30231 -14.9149 -35.5916 9.20742 -17.8574 -37.9445 9.20742 -16.693 
31.4034 9.20742 -17.8574 31.1065 10.0071 -17.8574 38.0116 9.20742 -14.6101 
-34.6972 16.1125 -17.8574 -37.9445 16.1125 -15.7891 -31.0394 21.8357 -17.8574 
27.7652 16.1125 -17.8574 24.2014 21.9882 -17.8574 31.1065 16.1125 -16.9136 
38.0116 16.1125 -12.0985 -37.9445 23.0176 -11.3217 -29.8655 23.0176 -17.8574 
-31.0394 23.0176 -17.4395 -24.1343 27.2357 -17.8574 3.48608 29.6852 -17.8574 
10.3912 28.4129 -17.8574 23.5307 23.0176 -17.8574 17.2963 26.2862 -17.8574 
24.2014 23.0176 -17.6749 31.1065 23.0176 -14.1474 -31.0394 29.9227 -11.7497 
-19.7657 29.9227 -17.8574 -24.1343 29.9227 -16.2321 -17.2292 30.6952 -17.8574 
-10.3241 30.8985 -17.8574 2.02182 29.9227 -17.8574 -3.41902 30.3919 -17.8574 
3.48608 29.9227 -17.64 10.3912 29.9227 -16.7574 17.2963 29.9227 -15.4483 
24.2014 29.9227 -12.7637 -17.2292 -35.6321 -10.9523 -10.3241 -37.7697 -10.9523 
-3.41902 -38.6089 -10.9523 -3.41902 -39.1283 -5.27736 3.48608 -38.4233 -10.9523 
3.48608 -39.1283 -6.08745 10.3912 -36.9506 -10.9523 17.2963 -33.5993 -10.9523 
-31.0394 -26.1567 -10.9523 -23.4012 -32.2232 -10.9523 -24.1343 -31.7686 -10.9523 
-24.1343 -32.2232 -7.98355 19.4678 -32.2232 -10.9523 24.2014 -27.9387 -10.9523 
-31.9421 -25.3181 -10.9523 27.0056 -25.3181 -10.9523 31.1065 -20.6975 -10.9523 
31.1065 -25.3181 -6.55946 -37.9376 -18.413 -10.9523 -37.9445 -18.4016 -10.9523 
-37.9445 -18.413 -10.9143 32.9905 -18.413 -10.9523 38.0116 -11.8605 -10.9523 
38.0116 -18.413 -4.87774 -41.7073 -11.5079 -10.9523 38.2164 -11.5079 -10.9523 
-43.4137 -4.60279 -10.9523 40.9628 -4.60279 -10.9523 -43.7986 2.30231 -10.9523 
-44.8497 2.30231 -5.13126 41.9415 2.30231 -10.9523 -43.3019 9.20742 -10.9523 
-44.8497 9.20742 -4.19919 41.4164 9.20742 -10.9523 -41.6554 16.1125 -10.9523 
39.048 16.1125 -10.9523 38.0116 17.9873 -10.9523 -38.2251 23.0176 -10.9523 
-37.9445 23.3951 -10.9523 34.6532 23.0176 -10.9523 31.1065 26.6356 -10.9523 
38.0116 23.0176 -4.18426 -31.7626 29.9227 -10.9523 -31.0394 30.4651 -10.9523 
-24.1343 33.6841 -10.9523 -17.2292 34.8232 -10.9523 -10.3241 34.5056 -10.9523 
-3.41902 33.4613 -10.9523 3.48608 32.977 -10.9523 10.3912 33.3366 -10.9523 
17.2963 33.2456 -10.9523 26.6834 29.9227 -10.9523 24.2014 31.2682 -10.9523 
-3.41902 -39.2431 -4.0472 3.48608 -39.4099 -4.0472 -24.1343 -32.8095 -4.0472 
-17.2292 -36.2818 -4.0472 -4.26295 -39.1283 -4.0472 -10.3241 -38.2767 -4.0472 
-3.41902 -39.1283 -2.78265 5.42327 -39.1283 -4.0472 3.48608 -39.1283 0.193261 
10.3912 -38.354 -4.0472 17.2963 -35.7068 -4.0472 -25.0161 -32.2232 -4.0472 
-31.0394 -27.5911 -4.0472 -24.1343 -32.2232 0.425184 23.3489 -32.2232 -4.0472 
24.2014 -31.6534 -4.0472 31.1065 -26.825 -4.0472 -33.43 -25.3181 -4.0472 
-37.9445 -20.0803 -4.0472 32.7888 -25.3181 -4.0472 38.0116 -19.0491 -4.0472 
-39.1411 -18.413 -4.0472 -37.9445 -18.413 1.39993 38.4805 -18.413 -4.0472 
-42.7217 -11.5079 -4.0472 42.2729 -11.5079 -4.0472 -44.4164 -4.60279 -4.0472 
-44.8497 0.34619 -4.0472 44.3555 -4.60279 -4.0472 44.9167 -4.60279 1.53277 
-45.0193 2.30231 -4.0472 -44.8497 2.30231 -3.08161 44.8677 2.30231 -4.0472 
44.9167 2.30231 -3.30079 -44.8777 9.20742 -4.0472 -44.8497 9.31675 -4.0472 
-44.8497 9.20742 -3.84512 44.1932 9.20742 -4.0472 -42.9763 16.1125 -4.0472 
42.1445 16.1125 -4.0472 -39.7526 23.0176 -4.0472 -37.9445 25.43 -4.0472 
31.1065 29.7333 -4.0472 38.0643 23.0176 -4.0472 38.0116 23.0841 -4.0472 
-33.4602 29.9227 -4.0472 -31.0394 31.663 -4.0472 -24.1343 34.6701 -4.0472 
-17.2292 35.8577 -4.0472 -10.3241 35.2928 -4.0472 -3.41902 34.029 -4.0472 
3.48608 33.6542 -4.0472 10.3912 34.5669 -4.0472 17.2963 34.9908 -4.0472 
30.8192 29.9227 -4.0472 24.2014 33.3457 -4.0472 31.1065 29.9227 -1.62274 
-17.2292 -35.4489 2.8579 -10.3241 -37.515 2.8579 -3.41902 -38.6119 2.8579 
3.48608 -38.9459 2.8579 10.3912 -38.0889 2.8579 17.2963 -35.4825 2.8579 
-31.0394 -26.3329 2.8579 -23.5639 -32.2232 2.8579 -24.1343 -31.9063 2.8579 
23.259 -32.2232 2.8579 24.2014 -31.6718 2.8579 31.1065 -27.3403 2.8579 
-32.0568 -25.3181 2.8579 -31.0394 -25.3181 4.5904 33.5055 -25.3181 2.8579 
38.0116 -20.3873 2.8579 -37.6062 -18.413 2.8579 -37.9445 -17.8156 2.8579 
39.5443 -18.413 2.8579 -41.0848 -11.5079 2.8579 -37.9445 -11.5079 7.8242 
43.1195 -11.5079 2.8579 44.9167 -5.05142 2.8579 -42.8827 -4.60279 2.8579 
45.0383 -4.60279 2.8579 44.9167 -4.60279 3.58378 -43.7442 2.30231 2.8579 
45.3094 2.30231 2.8579 44.9167 5.67095 2.8579 44.9167 2.30231 4.81536 
-43.8301 9.20742 2.8579 44.4961 9.20742 2.8579 -42.2296 16.1125 2.8579 
42.3538 16.1125 2.8579 -38.7661 23.0176 2.8579 -37.9445 24.0753 2.8579 
-37.9445 23.0176 4.79368 38.3949 23.0176 2.8579 38.0116 23.5102 2.8579 
38.0116 23.0176 4.75048 -31.9327 29.9227 2.8579 -31.0394 30.5667 2.8579 
-31.0394 29.9227 4.44024 -24.1343 33.7868 2.8579 -17.2292 35.2186 2.8579 
-10.3241 35.2381 2.8579 -3.41902 34.3773 2.8579 3.48608 34.0515 2.8579 
10.3912 34.8599 2.8579 17.2963 35.464 2.8579 24.2014 33.728 2.8579 
31.5383 29.9227 2.8579 31.1065 30.2485 2.8579 31.1065 29.9227 5.59755 
-17.2292 -32.5539 9.76301 -10.3241 -35.0635 9.76301 -3.41902 -36.6363 9.76301 
3.48608 -37.3674 9.76301 10.3912 -36.501 9.76301 17.2963 -33.8735 9.76301 
-17.8657 -32.2232 9.76301 -24.1343 -28.4509 9.76301 -17.2292 -32.2232 10.167 
-10.3241 -32.2232 13.1116 -3.41902 -32.2232 15.4875 20.3751 -32.2232 9.76301 
17.2963 -32.2232 12.8525 24.2014 -30.0583 9.76301 31.1065 -25.5744 9.76301 
-27.6516 -25.3181 9.76301 -31.0394 -20.8907 9.76301 -24.1343 -25.3181 12.6139 
-17.2292 -25.3181 15.6706 31.4196 -25.3181 9.76301 31.1065 -25.3181 10.2029 
38.0116 -18.5768 9.76301 -32.8912 -18.413 9.76301 -31.0394 -18.413 11.3069 
-24.1343 -18.413 15.6052 38.1398 -18.413 9.76301 38.0116 -18.413 9.97751 
-36.2467 -11.5079 9.76301 -37.9445 -7.17053 9.76301 -31.0394 -11.5079 13.681 
41.8223 -11.5079 9.76301 38.0116 -11.5079 15.7132 -38.7659 -4.60279 9.76301 
-37.9445 -4.60279 10.6402 -31.0394 -4.60279 15.7502 43.724 -4.60279 9.76301 
-40.2202 2.30231 9.76301 -37.9445 2.30231 12.4209 43.7961 2.30231 9.76301 
-40.6556 9.20742 9.76301 -37.9445 9.20742 13.1301 42.7517 9.20742 9.76301 
38.0116 9.20742 16.3302 -39.3509 16.1125 9.76301 -37.9445 18.9528 9.76301 
-37.9445 16.1125 11.6276 40.4963 16.1125 9.76301 38.0116 21.0427 9.76301 
38.0116 16.1125 13.5329 -35.2482 23.0176 9.76301 -31.0394 27.1045 9.76301 
-31.0394 23.0176 13.9272 36.8569 23.0176 9.76301 31.1065 29.2945 9.76301 
-26.6764 29.9227 9.76301 -24.1343 31.2481 9.76301 -24.1343 29.9227 11.7261 
-17.2292 33.7059 9.76301 -17.2292 29.9227 15.8549 -10.3241 34.6865 9.76301 
-3.41902 34.5946 9.76301 3.48608 34.5326 9.76301 10.3912 35.0573 9.76301 
17.2963 34.9213 9.76301 30.3233 29.9227 9.76301 24.2014 33.3957 9.76301 
3.48608 -32.7974 16.6681 10.3912 -32.4288 16.6681 -10.3241 -26.8609 16.6681 
[...]
POINT_DATA 526
SCALARS ImageScalars float
LOOKUP_TABLE default
0 0 0 0 0 0 0 0 0 
0 0 0 0 0 0 0 0 0 
0 0 0 0 0 0 0 0 0 
0 0 0 0 0 0 0 0 0 
0 0 0 0 0 0 0 0 0 
0 0 0 0 0 0 0 0 0 
0 0 0 0 0 0 0 0 0 
0 0 0 0 0 0 0 0 0 
0 0 0 0 0 0 0 0 0 
0 0 0 0 0 0 0 0 0 
0 0 0 0 0 0 0 0 0 
0 0 0 0 0 0 0 0 0 
0 0 0 0 0 0 0 0 0 
0 0 0 0 0 0 0 0 0 
0 0 0 0 0 0 0 0 0 
0 0 0 0 0 0 0 0 0 
0 0 0 0 0 0 0 0 0 
0 0 0 0 0 0 0 0 0 
0 0 0 0 0 0 0 0 0 
0 0 0 0 0 0 0 0 0 
0 0 0 0 0 0 0 0 0 
0 0 0 0 0 0 0 0 0 
0 0 0 0 0 0 0 0 0 
0 0 0 0 0 0 0 0 0 
0 0 0 0 0 0 0 0 0 
0 0 0 0 0 0 0 0 0 
0 0 0 0 0 0 0 0 0 
0 0 0 0 0 0 0 0 0 
0 0 0 0 0 0 0 0 0 
0 0 0 0 0 0 0 0 0 
0 0 0 0 0 0 0 0 0 
0 0 0 0 0 0 0 0 0 
0 0 0 0 0 0 0 0 0 
0 0 0 0 0 0 0 0 0 
0 0 0 0 0 0 0 0 0 
0 0 0 0 0 0 0 0 0 
0 0 0 0 0 0 0 0 0 
0 0 0 0 0 0 0 0 0 
0 0 0 0 0 0 0 0 0 
0 0 0 0 0 0 0 0 0 
0 0 0 0 0 0 0 0 0 
0 0 0 0 0 0 0 0 0 
0 0 0 0 0 0 0 0 0 
0 0 0 0 0 0 0 0 0 
0 0 0 0 0 0 0 0 0 
0 0 0 0 0 0 0 0 0 
0 0 0 0 0 0 0 0 0 
0 0 0 0 0 0 0 0 0 
0 0 0 0 0 0 0 0 0 
0 0 0 0 0 0 0 0 0 
0 0 0 0 0 0 0 0 0 
0 0 0 0 0 0 0 0 0 
0 0 0 0 0 0 0 0 0 
0 0 0 0 0 0 0 0 0 
0 0 0 0 0 0 0 0 0 
0 0 0 0 0 0 0 0 0 
0 0 0 0 0 0 0 0 0 
0 0 0 0 0 0 0 0 0 
0 0 0 0 
NORMALS Normals float
0.0178137 0.00636396 0.999821 0.372129 0.714776 0.592128 0.169797 0.603242 0.779274 
-0.0460289 0.559625 0.827467 -0.228353 0.563844 0.793684 0.465036 0.504318 0.727602 
0.225658 0.343202 0.911751 0.0787147 0.176961 0.981065 -0.0354515 0.160376 0.986419 
-0.213553 0.180026 0.960201 -0.425745 0.187983 0.885101 0.549654 0.364323 0.751764 
0.3093 0.225416 0.923862 0.0276242 0.0251207 0.999303 0.0848277 0.132132 0.987596 
-0.0168493 0.0229718 0.999594 -0.0556158 -0.0994622 0.993486 -0.199803 -0.0614727 0.977906 
-0.430089 -0.0529545 0.901232 0.428765 0.10942 0.896765 0.0311666 0.00638582 0.999494 
0.212435 0.00777132 0.977144 0.00195873 0.00576993 0.999981 0.028595 -0.0261175 0.99925 
-0.153651 -0.00212859 0.988123 -0.118669 -0.142549 0.982648 -0.172108 -0.183055 0.96792 
-0.373107 -0.0975907 0.922641 0.618381 0.0462352 0.784517 0.319234 -0.054456 0.94611 
0.219974 -0.161621 0.962024 0.0751839 -0.168988 0.982746 -0.165463 -0.0789172 0.983054 
-0.24558 -0.139129 0.95934 -0.16637 -0.274879 0.946976 -0.198734 -0.0916051 0.975763 
-0.118501 0.112376 0.986574 -0.0623972 0.178534 0.981953 0.24601 -0.116465 0.962245 
0.100237 -0.174832 0.979483 0.0878554 -0.296697 0.950922 -0.102712 -0.298372 0.948907 
-0.323773 -0.199492 0.924864 -0.11987 -0.183359 0.97571 0.0464183 -0.0723509 0.996298 
0.0274153 0.0721678 0.997016 -0.0564213 0.0821355 0.995023 -0.25362 0.0514188 0.965936 
0.244632 -0.0923076 0.965212 0.0513225 -0.104046 0.993247 -0.0307202 -0.098448 0.994668 
-0.0777676 -0.121233 0.989573 -0.136713 0.0291189 0.990183 -0.0612226 0.17681 0.982339 
0.0575358 0.106074 0.992692 0.0350654 0.0579605 0.997703 -0.0818128 -0.0185816 0.996475 
-0.260892 -0.0764144 0.962339 0.254415 -0.136697 0.957386 0.0952073 -0.0767357 0.992495 
0.0549711 0.011739 0.998419 0.0163486 0.0955628 0.995289 -0.0205505 0.134611 0.990685 
-0.0547954 0.169448 0.984015 -0.0652219 0.124986 0.990012 -0.0938828 0.00836048 0.995548 
-0.189723 -0.0975533 0.976979 0.202177 -0.211735 0.956187 0.137925 -0.136365 0.98101 
0.0426276 -0.113147 0.992663 -0.0577729 -0.152839 0.986561 -0.0648716 -0.171955 0.982967 
-0.113606 -0.184301 0.976282 -0.176042 -0.23014 0.957102 0.134872 -0.559289 0.817927 
-0.0134425 -0.621099 0.783617 -0.068213 -0.669466 0.739704 0.37507 0.744209 0.552699 
0.204199 0.809444 0.550549 -0.01013 0.810274 0.585963 -0.205318 0.742201 0.637952 
0.401819 0.729196 0.553908 0.516232 0.616883 0.594105 -0.413895 0.542138 0.731285 
-0.419913 0.532594 0.734858 -0.418308 0.543112 0.728044 -0.493182 0.664326 0.561642 
0.554327 0.568171 0.608196 0.596607 0.464115 0.65472 0.654679 0.679965 0.330216 
-0.482997 0.207876 0.850589 -0.494271 0.234962 0.836952 -0.516182 0.430516 0.740414 
0.617166 0.400278 0.677409 -0.367617 0.015953 0.92984 -0.352734 0.0319554 0.935178 
-0.310266 0.232449 0.921793 -0.484642 0.4206 0.766954 0.645305 0.215957 0.732765 
0.621186 0.0518036 0.781949 0.721767 0.26077 0.641133 -0.251922 0.0254112 0.967414 
-0.157013 0.0901373 0.983474 -0.220026 0.0513263 0.974143 -0.0636308 0.178418 0.981895 
-0.166143 0.174351 0.970566 -0.320762 0.293964 0.900387 -0.638739 0.371012 0.674064 
0.619875 0.046635 0.783314 0.612655 0.0336875 0.789632 -0.0668681 0.179572 0.98147 
-0.250486 0.0964524 0.963303 -0.246938 0.216786 0.944471 -0.593833 0.222479 0.773218 
0.536929 -0.0750191 0.840285 0.564843 -0.0700885 0.822217 -0.277511 0.0518078 0.959325 
-0.595157 0.049709 0.80207 0.437364 -0.086824 0.895084 0.572976 -0.100765 0.813354 
-0.273082 -0.0794489 0.958704 -0.273989 -0.091896 0.957332 -0.625207 -0.151031 0.765706 
0.442823 -0.18716 0.876857 0.653928 -0.250579 0.713854 0.387127 -0.336222 0.858538 
-0.287354 -0.154096 0.945348 -0.278577 -0.26755 0.922395 -0.388911 -0.224186 0.893582 
-0.70218 -0.352696 0.618506 0.746682 -0.516124 0.419622 0.378297 -0.350621 0.856712 
0.423844 -0.384194 0.820214 0.278905 -0.445977 0.85048 -0.0814871 -0.674949 0.733351 
-0.118178 -0.550901 0.826161 -0.279469 -0.290109 0.915278 -0.184552 -0.407053 0.894566 
-0.295087 -0.300253 0.907068 -0.530533 -0.473485 0.703098 0.522042 -0.746867 0.411901 
0.200689 -0.578223 0.790811 0.322024 -0.650323 0.688027 0.132936 -0.607044 0.78347 
-0.0207626 -0.680699 0.732269 -0.0782226 -0.688638 0.720873 -0.0697426 -0.700104 0.710627 
-0.0794091 -0.702771 0.706971 -0.102544 -0.695547 0.711125 -0.187792 -0.687181 0.701795 
-0.36701 -0.736034 0.568821 0.378544 0.90127 0.210752 0.201503 0.963691 0.175205 
0.0447997 0.981216 0.187638 0.073935 0.996701 0.0334797 -0.106545 0.962165 0.250772 
-0.0725149 0.992735 0.0960149 -0.31113 0.889065 0.3358 -0.479486 0.743729 0.465791 
0.656148 0.707196 0.263331 0.524061 0.822378 0.221482 0.541677 0.809462 0.226621 
0.535024 0.834781 0.129957 -0.513131 0.70583 0.488365 -0.552945 0.561633 0.615484 
0.66901 0.694368 0.265101 -0.549264 0.503822 0.666688 -0.527787 0.481402 0.699781 
-0.628246 0.665029 0.403787 0.790581 0.535599 0.29684 0.790779 0.535273 0.296903 
0.791114 0.535785 0.29508 -0.547067 0.454116 0.703204 -0.6439 0.377231 0.66565 
-0.766007 0.550354 0.33218 0.883342 0.328606 0.334253 -0.648943 0.37146 0.663996 
0.926154 0.135491 0.351966 -0.756759 0.216905 0.616659 0.919793 -0.00516237 0.392369 
0.998486 0.0283529 0.0471362 -0.815159 0.0243351 0.578726 0.890205 -0.141999 0.432863 
0.98942 -0.141701 0.0311108 -0.810619 -0.169731 0.560436 0.862531 -0.302325 0.405759 
-0.746586 -0.362324 0.55797 -0.728065 -0.408094 0.550801 0.75793 -0.518043 0.396452 
0.750592 -0.529158 0.395731 -0.657851 -0.536005 0.529085 -0.571615 -0.642868 0.509878 
-0.784605 -0.592407 0.182892 0.545099 -0.755566 0.363301 0.523822 -0.771496 0.361116 
0.287283 -0.892405 0.34797 0.04962 -0.950839 0.305686 -0.0993913 -0.962842 0.251112 
-0.107622 -0.971268 0.212262 -0.00997464 -0.972954 0.230784 0.0208324 -0.946783 0.321199 
-0.135038 -0.893835 0.427579 -0.440453 -0.762295 0.474243 -0.366914 -0.804857 0.466454 
0.0798621 0.996805 0.00116833 -0.061657 0.99746 0.0356678 0.520826 0.853633 0.00718063 
0.35339 0.935393 -0.0124602 0.0946595 0.995509 -0.00124191 0.203884 0.978819 -0.018586 
0.0840046 0.996033 -0.0293654 -0.116176 0.992231 0.044499 -0.0444387 0.99645 -0.0714965 
-0.255727 0.964296 0.0688283 -0.424445 0.899377 0.104728 0.539113 0.842196 0.00795361 
0.664652 0.747095 0.00933605 0.520145 0.841377 -0.146744 -0.536997 0.832461 0.13654 
-0.55106 0.821003 0.149292 -0.632819 0.732323 0.251483 0.706724 0.707488 0.000954208 
0.813624 0.581122 -0.0177146 -0.667767 0.696725 0.262033 -0.772942 0.565522 0.287656 
0.840131 0.541828 -0.0245377 0.818362 0.517666 -0.249611 -0.781173 0.552343 0.291008 
0.939304 0.340622 -0.0410531 -0.891275 0.360514 0.275062 0.98721 0.155587 -0.034782 
0.997592 0.0672901 -0.0167918 -0.954618 0.179613 0.237578 -0.986876 0.160976 0.012763 
0.999421 0.0325862 -0.00983264 0.998148 0.0369219 -0.0483428 -0.979793 -0.0135601 0.199555 
-0.985237 -0.0165091 0.170398 0.989668 -0.141458 0.023383 0.98925 -0.144346 0.0234213 
0.989942 -0.140638 0.0153435 -0.966289 -0.181725 0.182376 0.943197 -0.330713 0.031739 
-0.900565 -0.391787 0.188379 0.84141 -0.539784 0.0257614 0.782065 -0.622848 0.0208702 
-0.570862 -0.803265 0.169949 -0.785767 -0.592695 0.176871 -0.784458 -0.594417 0.176902 
0.59506 -0.803669 0.00451535 0.512672 -0.858585 0.000364201 0.291857 -0.956452 0.00431939 
0.0392897 -0.998848 0.0275401 -0.130725 -0.990018 0.0526825 -0.117717 -0.990773 0.0671703 
0.0383286 -0.996129 0.0791102 0.0961409 -0.989353 0.109257 -0.0892306 -0.984833 0.148804 
-0.55997 -0.811184 0.168567 -0.32538 -0.933395 0.15133 -0.571928 -0.813797 0.103115 
0.357255 0.906173 -0.226318 0.211694 0.955868 -0.203722 0.100375 0.980447 -0.16926 
-0.0341913 0.989575 -0.139898 -0.23553 0.964293 -0.121099 -0.411455 0.904795 -0.109776 
0.684566 0.67963 -0.263576 0.502318 0.833694 -0.229416 0.516743 0.824533 -0.230482 
-0.503537 0.858854 -0.0939172 -0.515776 0.852163 -0.0882816 -0.60794 0.790707 -0.0720502 
0.701709 0.659205 -0.270283 0.688356 0.640489 -0.3405 -0.665903 0.743502 -0.0614716 
-0.782981 0.621524 -0.0254693 0.80392 0.505803 -0.312852 0.811558 0.490726 -0.317115 
-0.819768 0.572339 -0.020216 0.871917 0.328892 -0.362753 0.749606 0.305366 -0.587233 
-0.937313 0.34746 -0.0267667 -0.985129 0.16777 -0.0370636 0.921259 0.176022 -0.34684 
-0.987081 0.155619 -0.0381292 -0.985639 0.15399 -0.0693078 0.951599 0.0624299 -0.300936 
-0.996991 -0.037938 -0.067595 -0.990443 -0.114636 -0.0766876 -0.987424 -0.0454343 -0.151422 
0.957753 -0.104833 -0.267804 -0.976446 -0.196928 -0.0881612 0.919972 -0.315905 -0.232069 
-0.913668 -0.393825 -0.100565 0.79349 -0.560144 -0.237931 0.768217 -0.593882 -0.239055 
0.769404 -0.560587 -0.306204 -0.81011 -0.582676 -0.0648836 -0.80085 -0.59549 -0.0634869 
-0.807611 -0.574623 -0.132564 0.547887 -0.798899 -0.248152 0.521314 -0.817123 -0.246052 
0.526627 -0.795627 -0.299401 0.313893 -0.92417 -0.217674 0.0951606 -0.984565 -0.146887 
-0.0607107 -0.99724 -0.0427289 -0.0856218 -0.995507 0.040427 0.0349238 -0.997403 0.0629841 
0.100366 -0.994343 0.0347795 -0.0803644 -0.996748 -0.0058366 -0.330548 -0.943776 0.00500002 
-0.582127 -0.812811 -0.0215795 -0.568739 -0.822279 -0.0198207 -0.591787 -0.798729 -0.108719 
0.373696 0.762013 -0.528855 0.25214 0.822465 -0.509879 0.151844 0.88516 -0.439813 
-0.0101068 0.92999 -0.367445 -0.215839 0.915346 -0.339934 -0.402484 0.855924 -0.324654 
0.38598 0.754838 -0.53032 0.504852 0.64859 -0.56961 0.373227 0.748066 -0.548725 
0.2635 0.679284 -0.684939 0.217664 0.636843 -0.73963 -0.444926 0.836156 -0.320754 
-0.383614 0.801297 -0.459091 -0.492884 0.808889 -0.320568 -0.579922 0.739073 -0.342727 
0.586939 0.558102 -0.586536 0.628979 0.454976 -0.630383 0.481343 0.513795 -0.710158 
0.291223 0.41949 -0.859777 -0.586284 0.734103 -0.342586 -0.578859 0.73137 -0.360584 
-0.752833 0.568076 -0.332464 0.646818 0.406732 -0.645133 0.58758 0.380225 -0.714268 
0.392693 0.257655 -0.88284 -0.756093 0.563723 -0.332474 -0.752017 0.563286 -0.342315 
0.668917 0.287744 -0.685386 0.720051 0.241017 -0.650721 0.506577 0.263505 -0.820942 
-0.878089 0.33935 -0.337344 -0.694796 0.286084 -0.659859 0.74321 0.210869 -0.634959 
0.712788 0.216634 -0.667085 0.421287 0.232585 -0.876596 -0.923669 0.131184 -0.360036 
0.802633 0.110845 -0.586083 0.713323 0.131219 -0.688441 -0.919988 -0.0622151 -0.386977 
0.838371 -0.0579228 -0.542014 0.726902 -0.0366629 -0.685762 -0.891037 -0.207988 -0.403477 
-0.650336 -0.159505 -0.742713 0.804841 -0.28958 -0.518049 0.762968 -0.391653 -0.514284 
0.749456 -0.283846 -0.598119 -0.849309 -0.362141 -0.384094 -0.804872 -0.485464 -0.34133 
-0.760402 -0.321682 -0.564189 0.672052 -0.544239 -0.502146 0.547148 -0.67235 -0.498573 
0.534455 -0.502323 -0.679728 -0.778076 -0.539444 -0.321866 -0.621091 -0.741335 -0.254301 
0.438738 -0.772952 -0.458317 0.383427 -0.809834 -0.444018 0.394735 -0.756848 -0.520928 
0.222508 -0.905966 -0.36016 0.30139 -0.681268 -0.667111 0.0596748 -0.970992 -0.231546 
-0.0109465 -0.991589 -0.128966 0.0330351 -0.996002 -0.0830027 0.0280189 -0.99461 -0.0998295 
-0.111575 -0.978791 -0.171813 -0.588307 -0.771432 -0.242462 -0.355308 -0.913137 -0.199844 
0.0692997 0.668841 -0.740168 -0.159049 0.717378 -0.678286 0.237787 0.43506 -0.868435 
0.126596 0.635025 -0.762048 0.226787 0.546147 -0.806406 0.0746342 0.642 -0.763064 
-0.175593 0.71633 -0.675307 -0.157051 0.709047 -0.687449 -0.333791 0.676662 -0.656287 
-0.441541 0.621237 -0.647384 0.255024 0.395133 -0.882515 0.281295 0.3362 -0.898801 
0.233091 0.387738 -0.891812 0.233961 0.347183 -0.908145 0.134666 0.334167 -0.932844 
-0.0553941 0.40002 -0.914831 -0.269466 0.503134 -0.821124 -0.444082 0.618744 -0.648033 
-0.438995 0.614847 -0.655169 -0.525528 0.510745 -0.680412 0.33589 0.245297 -0.9094 
0.362969 0.17939 -0.91437 0.279532 0.247766 -0.927617 0.213814 0.294963 -0.931279 
0.18877 0.212934 -0.958658 0.160878 0.161059 -0.973744 0.0242142 0.216344 -0.976017 
-0.160127 0.267351 -0.950201 -0.328693 0.3523 -0.876268 -0.548176 0.478425 -0.686012 
-0.512278 0.463141 -0.723237 0.368369 0.16864 -0.914256 0.357526 0.161065 -0.919909 
0.341823 0.16301 -0.925519 0.201694 0.214153 -0.95575 0.105731 0.113255 -0.987924 
0.157857 0.0824137 -0.984017 -0.254121 0.123809 -0.959215 -0.642275 0.268767 -0.717808 
-0.418485 0.208387 -0.883994 -0.659396 0.163168 -0.733876 0.37024 0.208583 -0.905216 
0.403858 0.193737 -0.894072 0.307092 0.166986 -0.936915 0.332388 0.0876095 -0.939065 
0.159723 0.0323915 -0.98663 0.0575045 -0.0145355 -0.998239 -0.231419 -0.025206 -0.972528 
-0.346279 0.0232973 -0.937842 -0.662208 0.0702532 -0.74602 -0.634852 0.0677033 -0.769662 
0.448655 0.15524 -0.880119 0.395806 0.155267 -0.905113 0.233745 0.132874 -0.963176 
0.210145 0.0620741 -0.975698 0.106741 -0.0106732 -0.99423 0.0560674 0.0337375 -0.997857 
0.179283 -0.0472834 -0.982661 -0.213437 -0.0353796 -0.976316 -0.339782 -0.0615571 -0.938488 
-0.635674 -0.0508449 -0.770282 -0.633674 -0.115034 -0.764999 -0.614072 -0.0509796 -0.787602 
0.492761 -0.0273144 -0.869736 0.395273 -0.0228764 -0.918279 0.224786 0.0234014 -0.974127 
0.187286 0.0414691 -0.98143 0.139365 0.0421644 -0.989343 0.0229396 0.107169 -0.993976 
0.0344958 0.028775 -0.998991 -0.0947431 -0.00485531 -0.99549 -0.217742 -0.00327522 -0.976001 
-0.627613 -0.151774 -0.763587 -0.392703 -0.0890881 -0.91534 0.477609 -0.231224 -0.8476 
0.466168 -0.266446 -0.84362 0.454015 -0.225198 -0.862065 0.291525 -0.150455 -0.944657 
0.228378 -0.0841158 -0.969932 0.177718 -0.0577204 -0.982387 -0.298382 -0.0440165 -0.953431 
-0.624489 -0.24557 -0.741423 -0.491241 -0.165038 -0.855246 0.399611 -0.432128 -0.808441 
0.363195 -0.480435 -0.798293 0.345735 -0.406018 -0.845941 0.303534 -0.619384 -0.724038 
0.27652 -0.326508 -0.903841 0.20268 -0.274522 -0.939978 0.0885364 -0.275738 -0.957147 
0.0196648 -0.229002 -0.973227 0.00493612 -0.2338 -0.972272 -0.0994637 -0.25928 -0.960667 
-0.343078 -0.297375 -0.890991 -0.624062 -0.42239 -0.657369 -0.609836 -0.45278 -0.650454 
-0.602386 -0.408463 -0.685776 0.274581 -0.66992 -0.689792 0.1756 -0.755221 -0.631511 
0.183251 -0.668317 -0.720952 0.0737266 -0.815372 -0.574224 0.0760269 -0.693669 -0.71627 
0.0648792 -0.844266 -0.531983 0.0572993 -0.679285 -0.731634 0.00299347 -0.843985 -0.536359 
0.00138908 -0.645383 -0.763858 -0.179407 -0.816524 -0.548727 -0.163653 -0.646065 -0.745532 
-0.421605 -0.690402 -0.587873 -0.399257 -0.705666 -0.585346 -0.397563 -0.685893 -0.609504 
0.029656 0.203838 -0.978555 -0.140632 0.189564 -0.971745 0.145348 0.0902947 -0.985252 
0.18048 0.0251335 -0.983257 0.0576672 0.141714 -0.988226 -0.188283 0.121042 -0.974627 
-0.12753 0.120261 -0.984517 0.180213 -0.0150823 -0.983512 0.192197 -0.0227312 -0.981093 
0.195703 -0.0148364 -0.980551 0.0591641 0.00435479 -0.998239 -0.20802 -0.0242721 -0.977823 
-0.176572 -0.018434 -0.984115 0.149471 -0.066698 -0.986514 0.0523968 -0.122231 -0.991118 
-0.173243 -0.0681606 -0.982518 -0.105604 -0.0171238 -0.994261 -0.159433 -0.0788391 -0.984056 
0.036121 0.0269934 -0.998983 0.0337687 -0.0468721 -0.99833 0.00828435 0.0119162 -0.999895 
-0.0369623 -0.0295999 -0.998878 0.0337873 -0.0595457 -0.997654 -0.0958941 -0.00712647 -0.995366 
0.078231 -0.026807 -0.996575 0.0550146 -0.0802102 -0.995259 0.0426146 -0.0167122 -0.998952 
0.00801678 0.00425765 -0.999959 0.0076932 0.0115559 -0.999904 0.0144553 -0.124139 -0.992159 
0.0222884 -0.0325892 -0.99922 -0.14472 -0.0193164 -0.989284 -0.0983284 -0.136069 -0.985808 
-0.0991191 -0.0145798 -0.994969 
