# vtk DataFile Version 4.2
vtk output
ASCII
DATASET POLYDATA
POINTS 593 float
9.45306 2.35878 -20.8934 -5.82471 -35.8356 -13.3585 1.81417 -35.8356 -13.351 
-28.7414 -28.1968 -14.3279 -21.1025 -28.1968 -15.8737 -13.4636 -28.1968 -16.3278 
-5.82471 -28.1968 -16.2455 1.81417 -28.1968 -16.0376 9.45306 -28.1968 -15.9995 
17.0919 -28.1968 -14.9914 24.7308 -28.1968 -13.48 -44.0191 -20.5579 -13.5631 
-36.3802 -20.5579 -15.3657 -28.7414 -20.5579 -16.578 -21.1025 -20.5579 -16.9822 
-13.4636 -20.5579 -16.9703 -5.82471 -20.5579 -16.9789 1.81417 -20.5579 -17.0325 
9.45306 -20.5579 -17.1491 17.0919 -20.5579 -17.1067 24.7308 -20.5579 -16.5689 
32.3697 -20.5579 -16.0408 40.0086 -20.5579 -14.4416 -44.0191 -12.919 -15.0053 
-36.3802 -12.919 -16.8046 -28.7414 -12.919 -17.8284 -21.1025 -12.919 -16.9582 
-13.4636 -12.919 -16.5699 -5.82471 -12.919 -17.7755 1.81417 -12.919 -17.5011 
9.45306 -12.919 -17.5329 17.0919 -12.919 -17.5104 24.7308 -12.919 -16.9726 
32.3697 -12.919 -16.8456 40.0086 -12.919 -16.6573 47.6475 -12.919 -15.2744 
-51.658 -5.28011 -14.1123 -44.0191 -5.28011 -16.1881 -36.3802 -5.28011 -17.1764 
-28.7414 -5.28011 -17.1782 -21.1025 -5.28011 -16.6325 -13.4636 -5.28011 -17.1182 
-5.82471 -5.28011 -19.6964 1.81417 -5.28011 -16.6189 9.45306 2.30191 -20.8842 
9.45306 -5.28011 -19.5661 17.0919 -5.28011 -16.641 24.7308 -5.28011 -16.1464 
32.3697 -5.28011 -16.8781 40.0086 -5.28011 -17.6157 47.6475 -5.28011 -15.9962 
55.2864 -5.28011 -14.1997 -51.658 2.35878 -15.5877 -44.0191 2.35878 -17.4897 
-36.3802 2.35878 -17.9808 -28.7414 2.35878 -17.6963 -21.1025 2.35878 -16.8984 
-13.4636 2.35878 -17.7738 -5.82471 2.35878 -18.8976 9.43561 2.35878 -20.8842 
1.81417 2.35878 -15.057 9.47084 2.35878 -20.8842 9.45306 2.38617 -20.8842 
17.0919 2.35878 -14.629 24.7308 2.35878 -15.3022 32.3697 2.35878 -16.6144 
40.0086 2.35878 -17.4861 47.6475 2.35878 -16.4453 55.2864 2.35878 -14.9293 
-59.2969 9.99766 -13.6004 -51.658 9.99766 -16.1697 -44.0191 9.99766 -18.7823 
-36.3802 9.99766 -18.726 -28.7414 9.99766 -18.2689 -21.1025 9.99766 -17.1661 
-13.4636 9.99766 -16.3734 -5.82471 9.99766 -18.0287 1.81417 9.99766 -18.2647 
9.45306 9.99766 -17.9408 17.0919 9.99766 -15.4318 24.7308 9.99766 -15.8531 
32.3697 9.99766 -16.7394 40.0086 9.99766 -17.6206 47.6475 9.99766 -16.2904 
55.2864 9.99766 -15.0986 -59.2969 17.6365 -13.3702 -51.658 17.6365 -16.7092 
-44.0191 17.6365 -18.017 -36.3802 17.6365 -18.6284 -28.7414 17.6365 -18.8816 
-21.1025 17.6365 -17.7798 -13.4636 17.6365 -17.0998 -5.82471 17.6365 -17.8919 
1.81417 17.6365 -16.788 9.45306 17.6365 -16.4145 17.0919 17.6365 -16.7907 
24.7308 17.6365 -16.8423 32.3697 17.6365 -17.4203 40.0086 17.6365 -17.4709 
47.6475 17.6365 -16.9735 55.2864 17.6365 -14.4834 -51.658 25.2754 -14.249 
-44.0191 25.2754 -16.3523 -36.3802 25.2754 -18.0797 -28.7414 25.2754 -17.3142 
-21.1025 25.2754 -17.4135 -13.4636 25.2754 -16.6961 -5.82471 25.2754 -15.7218 
9.45306 25.2754 -14.4543 17.0919 25.2754 -16.9224 24.7308 25.2754 -17.3561 
32.3697 25.2754 -17.924 40.0086 25.2754 -16.474 47.6475 25.2754 -15.058 
-36.3802 32.9143 -14.1313 -28.7414 32.9143 -14.7438 -21.1025 32.9143 -13.8981 
17.0919 32.9143 -13.4529 24.7308 32.9143 -14.9952 32.3697 32.9143 -15.8795 
40.0086 32.9143 -14.1039 -5.82471 -36.0003 -13.2453 1.81417 -35.9856 -13.2453 
-28.7414 -29.9722 -13.2453 -28.7414 -35.8356 -7.96893 -21.1025 -33.7652 -13.2453 
-21.1025 -35.8356 -11.64 -7.82847 -35.8356 -13.2453 -13.4636 -35.1322 -13.2453 
-13.4636 -35.8356 -12.8513 2.7971 -35.8356 -13.2453 9.45306 -34.3982 -13.2453 
9.45306 -35.8356 -12.3328 17.0919 -31.755 -13.2453 17.0919 -35.8356 -10.2817 
24.7308 -28.5299 -13.2453 24.7308 -35.8356 -5.77575 -44.0191 -21.0523 -13.2453 
-44.0191 -28.1968 -8.41497 -33.0772 -28.1968 -13.2453 -36.3802 -26.1097 -13.2453 
-36.3802 -28.1968 -12.2623 25.8571 -28.1968 -13.2453 32.3697 -25.7958 -13.2453 
32.3697 -28.1968 -11.6604 40.0086 -22.7801 -13.2453 40.0086 -28.1968 -9.30842 
47.6475 -28.1968 -5.83805 -44.5462 -20.5579 -13.2453 -51.658 -20.5579 -9.01245 
44.0953 -20.5579 -13.2453 47.6475 -18.1839 -13.2453 47.6475 -20.5579 -12.0763 
55.2864 -20.5579 -8.53418 -59.2969 -12.919 -8.5025 -49.0867 -12.919 -13.2453 
-51.658 -8.82679 -13.2453 -51.658 -12.919 -12.3196 52.4375 -12.919 -13.2453 
55.2864 -8.28829 -13.2453 55.2864 -12.919 -11.7512 62.9252 -12.919 -6.58537 
-53.8601 -5.28011 -13.2453 -59.2969 -5.28011 -10.0371 58.0712 -5.28011 -13.2453 
62.9252 -5.28011 -10.4917 -56.1218 2.35878 -13.2453 -59.2969 8.60334 -13.2453 
-59.2969 2.35878 -11.0893 61.0373 2.35878 -13.2453 62.9252 2.35878 -12.3286 
-59.746 9.99766 -13.2453 61.7422 9.99766 -13.2453 62.9252 9.99766 -12.6867 
-59.4563 17.6365 -13.2453 -59.2969 18.0378 -13.2453 1.81417 24.1878 -13.2453 
57.3036 17.6365 -13.2453 55.2864 22.9112 -13.2453 62.9252 17.6365 -9.13054 
-53.519 25.2754 -13.2453 -59.2969 25.2754 -9.74924 -51.658 27.3707 -13.2453 
-44.0191 30.9753 -13.2453 -13.4636 32.2037 -13.2453 0.337506 25.2754 -13.2453 
-5.82471 28.7934 -13.2453 4.23069 25.2754 -13.2453 1.81417 25.2754 -12.4247 
9.45306 27.3747 -13.2453 53.4959 25.2754 -13.2453 47.6475 28.3212 -13.2453 
55.2864 25.2754 -12.4446 -51.658 32.9143 -8.82189 -39.8452 32.9143 -13.2453 
-44.0191 32.9143 -11.5242 -36.3802 34.0063 -13.2453 -28.7414 34.4861 -13.2453 
-16.5426 32.9143 -13.2453 -21.1025 33.5638 -13.2453 -13.4636 32.9143 -12.5353 
-5.82471 32.9143 -7.84371 16.6557 32.9143 -13.2453 9.45306 32.9143 -7.70785 
17.0919 33.1886 -13.2453 24.7308 34.9839 -13.2453 32.3697 36.4444 -13.2453 
41.7602 32.9143 -13.2453 40.0086 33.9724 -13.2453 47.6475 32.9143 -9.59416 
32.3697 40.5532 -6.91116 -28.7414 -37.4882 -5.60643 -21.1025 -40.0685 -5.60643 
-13.4636 -41.6902 -5.60643 -5.82471 -42.5585 -5.60643 1.81417 -42.7548 -5.60643 
9.45306 -41.4581 -5.60643 17.0919 -39.1944 -5.60643 24.7308 -35.9488 -5.60643 
-44.0191 -30.8012 -5.60643 -33.6256 -35.8356 -5.60643 -36.3802 -34.7724 -5.60643 
-36.3802 -35.8356 -2.15043 25.0937 -35.8356 -5.60643 32.3697 -33.4604 -5.60643 
32.3697 -35.8356 -0.14685 40.0086 -31.9522 -5.60643 47.6475 -28.3635 -5.60643 
-48.5332 -28.1968 -5.60643 -51.658 -25.5323 -5.60643 -51.658 -28.1968 -0.198134 
47.946 -28.1968 -5.60643 55.2864 -23.225 -5.60643 -56.3994 -20.5579 -5.60643 
-59.2969 -17.2762 -5.60643 -59.2969 -20.5579 -0.300955 58.4655 -20.5579 -5.60643 
62.9252 -14.4731 -5.60643 -61.7771 -12.919 -5.60643 63.6723 -12.919 -5.60643 
-63.0389 -5.28011 -5.60643 66.2032 -5.28011 -5.60643 -65.4757 2.35878 -5.60643 
-66.9358 2.35878 0.61868 67.3336 2.35878 -5.60643 -65.1748 9.99766 -5.60643 
-66.9358 9.99766 1.17249 67.3358 9.99766 -5.60643 -64.8274 17.6365 -5.60643 
65.3448 17.6365 -5.60643 62.9252 21.6822 -5.60643 -62.156 25.2754 -5.60643 
-59.2969 28.6695 -5.60643 1.81417 30.5064 -5.60643 60.2025 25.2754 -5.60643 
55.2864 30.8197 -5.60643 -53.9097 32.9143 -5.60643 -51.658 34.416 -5.60643 
-44.0191 36.5073 -5.60643 -36.3802 38.119 -5.60643 -28.7414 38.323 -5.60643 
-21.1025 37.9073 -5.60643 -13.4636 36.7039 -5.60643 -3.18063 32.9143 -5.60643 
-5.82471 34.0902 -5.60643 6.6927 32.9143 -5.60643 9.45306 34.1904 -5.60643 
17.0919 37.1841 -5.60643 24.7308 39.8943 -5.60643 40.0086 38.9293 -5.60643 
52.4228 32.9143 -5.60643 47.6475 35.506 -5.60643 28.4995 40.5532 -5.60643 
34.615 40.5532 -5.60643 32.3697 40.5532 -3.09639 -36.3802 -36.784 2.03246 
-28.7414 -39.1122 2.03246 -21.1025 -41.143 2.03246 -13.4636 -42.5092 2.03246 
-5.82471 -43.3441 2.03246 1.81417 -43.2959 2.03246 9.45306 -42.5956 2.03246 
17.0919 -40.9028 2.03246 24.7308 -38.6474 2.03246 32.3697 -36.6703 2.03246 
-51.658 -28.9223 2.03246 -38.5564 -35.8356 2.03246 -44.0191 -33.1506 2.03246 
-36.3802 -35.8356 5.37892 34.5313 -35.8356 2.03246 32.3697 -35.8356 9.53792 
40.0086 -33.895 2.03246 47.6475 -30.5211 2.03246 -52.615 -28.1968 2.03246 
-59.2969 -21.6914 2.03246 -51.658 -28.1968 4.38385 51.4646 -28.1968 2.03246 
55.2864 -25.2827 2.03246 -60.1361 -20.5579 2.03246 -59.2969 -20.5579 4.90332 
60.1003 -20.5579 2.03246 62.9252 -15.9485 2.03246 -64.5023 -12.919 2.03246 
64.3737 -12.919 2.03246 62.9252 -12.919 4.62011 -66.3244 -5.28011 2.03246 
-66.9358 0.202941 2.03246 67.4603 -5.28011 2.03246 62.9252 -5.28011 8.8372 
-67.1724 2.35878 2.03246 -66.9358 2.35878 2.71111 68.0427 2.35878 2.03246 
62.9252 2.35878 9.28273 -67.1034 9.99766 2.03246 -66.9358 10.8791 2.03246 
-66.9358 9.99766 2.41362 67.3439 9.99766 2.03246 62.9252 9.99766 8.09373 
-65.4702 17.6365 2.03246 64.9288 17.6365 2.03246 62.9252 20.7387 2.03246 
62.9252 17.6365 4.73221 -61.643 25.2754 2.03246 -59.2969 27.8395 2.03246 
-59.2969 25.2754 5.675 1.81417 32.2604 2.03246 58.9967 25.2754 2.03246 
55.2864 28.7969 2.03246 55.2864 25.2754 5.71643 -52.592 32.9143 2.03246 
-51.658 33.6136 2.03246 -51.658 32.9143 2.9904 -44.0191 35.6506 2.03246 
-44.0191 32.9143 6.79837 -36.3802 37.4906 2.03246 -36.3802 32.9143 9.49906 
-28.7414 37.4306 2.03246 -21.1025 37.4356 2.03246 -21.1025 32.9143 9.2244 
-13.4636 36.7309 2.03246 -13.4636 32.9143 8.8425 -0.921432 32.9143 2.03246 
-5.82471 34.2764 2.03246 -5.82471 32.9143 5.68876 5.0917 32.9143 2.03246 
9.45306 33.9886 2.03246 9.45306 32.9143 4.62642 17.0919 37.225 2.03246 
17.0919 32.9143 9.45418 24.7308 38.9472 2.03246 32.3697 38.881 2.03246 
40.0086 37.1858 2.03246 40.0086 32.9143 7.586 48.9906 32.9143 2.03246 
47.6475 33.6893 2.03246 47.6475 32.9143 3.04332 -28.7414 -36.2144 9.67134 
-21.1025 -38.233 9.67134 -13.4636 -39.487 9.67134 -5.82471 -40.0146 9.67134 
1.81417 -39.9875 9.67134 9.45306 -39.9192 9.67134 17.0919 -39.2569 9.67134 
24.7308 -37.8745 9.67134 -44.0191 -30.6494 9.67134 -30.2824 -35.8356 9.67134 
-36.3802 -33.9939 9.67134 -28.7414 -35.8356 10.1504 -21.1025 -35.8356 12.1649 
-13.4636 -35.8356 13.3022 -5.82471 -35.8356 13.686 1.81417 -35.8356 13.501 
9.45306 -35.8356 13.857 17.0919 -35.8356 13.8834 32.3136 -35.8356 9.67134 
24.7308 -35.8356 12.537 32.3697 -35.8189 9.67134 40.0086 -32.5971 9.67134 
47.6475 -28.6506 9.67134 -48.6179 -28.1968 9.67134 -51.658 -26.0053 9.67134 
-44.0191 -28.1968 12.505 -36.3802 -28.1968 14.0487 -28.7414 -28.1968 15.5168 
[...]
POINT_DATA 593
SCALARS ImageScalars float
LOOKUP_TABLE default
0 0 0 0 0 0 0 0 0 
0 0 0 0 0 0 0 0 0 
0 0 0 0 0 0 0 0 0 
0 0 0 0 0 0 0 0 0 
0 0 0 0 0 0 0 0 0 
0 0 0 0 0 0 0 0 0 
0 0 0 0 0 0 0 0 0 
0 0 0 0 0 0 0 0 0 
0 0 0 0 0 0 0 0 0 
0 0 0 0 0 0 0 0 0 
0 0 0 0 0 0 0 0 0 
0 0 0 0 0 0 0 0 0 
0 0 0 0 0 0 0 0 0 
0 0 0 0 0 0 0 0 0 
0 0 0 0 0 0 0 0 0 
0 0 0 0 0 0 0 0 0 
0 0 0 0 0 0 0 0 0 
0 0 0 0 0 0 0 0 0 
0 0 0 0 0 0 0 0 0 
0 0 0 0 0 0 0 0 0 
0 0 0 0 0 0 0 0 0 
0 0 0 0 0 0 0 0 0 
0 0 0 0 0 0 0 0 0 
0 0 0 0 0 0 0 0 0 
0 0 0 0 0 0 0 0 0 
0 0 0 0 0 0 0 0 0 
0 0 0 0 0 0 0 0 0 
0 0 0 0 0 0 0 0 0 
0 0 0 0 0 0 0 0 0 
0 0 0 0 0 0 0 0 0 
0 0 0 0 0 0 0 0 0 
0 0 0 0 0 0 0 0 0 
0 0 0 0 0 0 0 0 0 
0 0 0 0 0 0 0 0 0 
0 0 0 0 0 0 0 0 0 
0 0 0 0 0 0 0 0 0 
0 0 0 0 0 0 0 0 0 
0 0 0 0 0 0 0 0 0 
0 0 0 0 0 0 0 0 0 
0 0 0 0 0 0 0 0 0 
0 0 0 0 0 0 0 0 0 
0 0 0 0 0 0 0 0 0 
0 0 0 0 0 0 0 0 0 
0 0 0 0 0 0 0 0 0 
0 0 0 0 0 0 0 0 0 
0 0 0 0 0 0 0 0 0 
0 0 0 0 0 0 0 0 0 
0 0 0 0 0 0 0 0 0 
0 0 0 0 0 0 0 0 0 
0 0 0 0 0 0 0 0 0 
0 0 0 0 0 0 0 0 0 
0 0 0 0 0 0 0 0 0 
0 0 0 0 0 0 0 0 0 
0 0 0 0 0 0 0 0 0 
0 0 0 0 0 0 0 0 0 
0 0 0 0 0 0 0 0 0 
0 0 0 0 0 0 0 0 0 
0 0 0 0 0 0 0 0 0 
0 0 0 0 0 0 0 0 0 
0 0 0 0 0 0 0 0 0 
0 0 0 0 0 0 0 0 0 
0 0 0 0 0 0 0 0 0 
0 0 0 0 0 0 0 0 0 
0 0 0 0 0 0 0 0 0 
0 0 0 0 0 0 0 0 0 
0 0 0 0 0 0 0 0 
NORMALS Normals float
0.00572894 -0.102852 0.99468 0.0251447 0.514029 0.857404 -0.0496234 0.497398 0.866102 
0.216896 0.411424 0.885261 0.117745 0.289288 0.949973 0.0246558 0.231999 0.972403 
-0.0179804 0.217455 0.975905 -0.0164247 0.221228 0.975084 -0.0617556 0.2703 0.960793 
-0.15572 0.365173 0.917823 -0.184265 0.507474 0.841734 0.354771 0.350115 0.866924 
0.168595 0.274613 0.946659 0.0974756 0.206842 0.973507 0.0245751 0.0714778 0.997139 
-0.00021634 0.012904 0.999917 0.00405445 0.0988722 0.995092 0.0110896 0.0935193 0.995556 
0.00489309 0.100846 0.99489 -0.0369955 0.154098 0.987363 -0.0661375 0.198849 0.977796 
-0.135625 0.28723 0.948211 -0.218419 0.375054 0.900904 0.272975 0.144839 0.951055 
0.170999 0.106515 0.979497 0.0173301 0.0369533 0.999167 -0.0829125 -0.0235049 0.99628 
0.0513264 0.00548937 0.998667 0.0629427 0.168256 0.983732 -0.0152193 -0.0212331 0.999659 
0.000573527 0.146602 0.989195 -0.036704 -0.0218475 0.999087 -0.0433017 -0.0285788 0.998653 
-0.0200723 0.0491333 0.998591 -0.110229 0.199356 0.973708 -0.271788 0.209462 0.939285 
0.328252 0.216807 0.919372 0.182597 0.157927 0.970421 0.0614762 0.0780424 0.995053 
-0.0356225 -0.00755349 0.999337 -0.0076543 -0.00266108 0.999967 0.19828 0.0796334 0.976905 
-0.033725 0.0873588 0.995606 -0.00192237 -0.144011 0.989574 0.00587164 -0.100103 0.99496 
0.0129672 0.220509 0.975299 -0.228199 -0.152129 0.961656 0.020707 -0.108697 0.993859 
0.0940506 -0.0151087 0.995453 -0.0596771 0.0521462 0.996855 -0.196651 0.0761018 0.977516 
-0.282205 0.18075 0.942173 0.351288 0.113151 0.929405 0.163093 0.163727 0.972931 
0.0121428 0.100971 0.994815 -0.0704622 0.0710889 0.994978 -0.00267649 0.0349216 0.999386 
0.129338 -0.0604876 0.989754 -0.135001 -0.127721 0.982579 0.00604428 -0.102412 0.994724 
0.0806979 0.158536 0.98405 0.00474266 -0.102955 0.994675 0.0049623 -0.103658 0.994601 
-0.284193 -0.0705894 0.956165 0.11328 -0.0192598 0.993376 0.140623 -0.00898458 0.990022 
-0.0104208 0.00045962 0.999946 -0.154303 0.0194215 0.987833 -0.274196 0.0559909 0.960042 
0.571438 0.117126 0.812244 0.355525 0.0691558 0.932105 0.162093 0.0352704 0.986145 
-0.0334199 0.0422649 0.998547 -0.10119 0.0731152 0.992177 -0.123072 0.0570009 0.990759 
0.054505 -0.0323507 0.997989 0.126029 -0.0544215 0.990533 -0.00325992 0.0569171 0.998374 
-0.203179 -0.252286 0.946081 -0.119149 0.118794 0.985744 0.0850576 0.100253 0.99132 
0.114593 0.0494934 0.992179 -0.0284048 -0.000771016 0.999596 -0.152148 0.0460071 0.987286 
-0.262819 -0.0239613 0.964548 0.583721 -0.179853 0.791784 0.327866 -0.0930328 0.940132 
0.110323 -0.15405 0.981885 0.0533459 -0.0375339 0.99787 -0.0581483 -0.0616607 0.996402 
-0.109626 0.0180794 0.993809 0.00639644 0.022499 0.999726 -0.0135603 -0.137627 0.990391 
-0.0979631 -0.318663 0.942792 8.79534e-05 -0.207006 0.97834 0.0289347 0.100837 0.994482 
0.0391202 0.0997261 0.994246 0.0424723 0.0776655 0.996074 -0.038747 -0.071984 0.996653 
-0.145857 -0.0484016 0.988121 -0.476152 -0.150458 0.866396 0.391318 -0.360025 0.846907 
0.201669 -0.298789 0.932767 0.0601007 -0.289052 0.955425 -0.0366448 -0.23778 0.970627 
-0.0406484 -0.211458 0.976542 -0.104237 -0.245686 0.963729 -0.237846 -0.463929 0.853346 
0.257075 -0.404325 0.877744 0.188311 -0.200919 0.961338 0.0617608 -0.0919931 0.993842 
-0.0514939 -0.10706 0.992918 -0.162089 -0.179408 0.97033 -0.24053 -0.390476 0.888636 
0.137718 -0.586744 0.797976 -0.00573622 -0.602439 0.798144 -0.117091 -0.649568 0.751233 
0.313415 -0.585783 0.747415 0.161404 -0.495308 0.853592 -0.038736 -0.445498 0.894445 
-0.33056 -0.485513 0.809325 0.0260898 0.521347 0.852946 -0.050159 0.503758 0.862387 
0.242958 0.477476 0.844386 0.307359 0.795231 0.522626 0.175838 0.549707 0.816641 
0.211281 0.681237 0.700911 0.0381157 0.529287 0.847586 0.0703365 0.540831 0.838185 
0.0792065 0.583053 0.808564 -0.0602076 0.507685 0.859437 -0.119742 0.515411 0.848536 
-0.143046 0.599338 0.787611 -0.212368 0.49519 0.842429 -0.283103 0.699941 0.655695 
-0.190514 0.519039 0.833248 -0.31732 0.826434 0.465097 0.358973 0.368367 0.85758 
0.407667 0.669133 0.621344 0.265666 0.45756 0.848564 0.268238 0.431127 0.861497 
0.305989 0.512403 0.80238 -0.187386 0.521388 0.832491 -0.181881 0.505722 0.843306 
-0.206491 0.618507 0.758163 -0.229107 0.448103 0.864126 -0.26858 0.668043 0.693963 
-0.409038 0.792354 0.452618 0.36641 0.355559 0.859838 0.529068 0.43737 0.727183 
-0.254365 0.423488 0.869457 -0.283693 0.385866 0.877853 -0.300053 0.477155 0.826009 
-0.544318 0.571859 0.613755 0.664033 0.30204 0.683983 0.330918 0.234022 0.914181 
0.337896 0.250743 0.907168 0.365685 0.276398 0.888751 -0.384622 0.248203 0.889079 
-0.343814 0.210971 0.915032 -0.469899 0.29654 0.83142 -0.801309 0.386185 0.456908 
0.406208 0.199682 0.891696 0.642471 0.139047 0.753589 -0.388252 0.214235 0.896306 
-0.686431 0.252099 0.682098 0.482986 0.136387 0.864941 0.576836 0.125216 0.807205 
0.601636 0.141373 0.78616 -0.493274 0.0726702 0.866833 -0.597311 0.0797167 0.798038 
0.593436 0.115542 0.796544 -0.498108 -0.130285 0.857272 -0.563279 -0.143624 0.813689 
0.591655 -0.180631 0.785695 0.584743 -0.194801 0.787482 -0.0803796 -0.589148 0.804017 
-0.527824 -0.190258 0.82777 -0.486324 -0.283622 0.826467 -0.752888 -0.368487 0.545323 
0.438391 -0.370457 0.818887 0.665894 -0.476198 0.5743 0.398937 -0.40953 0.820447 
0.21648 -0.609531 0.762633 -0.211564 -0.639524 0.739087 -0.11625 -0.607733 0.785587 
-0.310969 -0.624928 0.716075 0.036053 -0.571309 0.819943 -0.0693574 -0.652399 0.754695 
0.304624 -0.499346 0.811084 -0.42137 -0.37602 0.825261 -0.279081 -0.501511 0.818902 
-0.514506 -0.386217 0.765585 0.474441 -0.767519 0.431068 0.177151 -0.642158 0.745822 
0.233454 -0.769637 0.594271 0.146018 -0.637691 0.756326 -0.0249266 -0.702993 0.71076 
-0.180655 -0.670142 0.719912 -0.116719 -0.68354 0.720521 -0.226221 -0.702125 0.675162 
-0.374852 -0.843755 0.384139 0.319661 -0.594601 0.737744 0.418059 -0.818698 0.39365 
0.317444 -0.596516 0.737155 0.172278 -0.624675 0.761644 -0.0325048 -0.659553 0.750955 
-0.354394 -0.518986 0.777855 -0.341995 -0.535623 0.772106 -0.44375 -0.752822 0.486152 
-0.0570707 -0.975073 0.214419 0.311918 0.863026 0.397357 0.252792 0.899073 0.357442 
0.149314 0.927572 0.342513 0.0663564 0.939513 0.336024 -0.0627221 0.941781 0.330324 
-0.21402 0.902646 0.373396 -0.320704 0.856486 0.404451 -0.317703 0.830068 0.458315 
0.422085 0.769741 0.478897 0.336632 0.843612 0.418328 0.355355 0.82464 0.440105 
0.36074 0.907101 0.216872 -0.311763 0.831111 0.460499 -0.203555 0.832599 0.515115 
-0.277857 0.933376 0.227165 -0.297113 0.820574 0.488244 -0.411809 0.797164 0.441524 
0.510862 0.697923 0.50192 0.572796 0.611686 0.54566 0.585417 0.797796 0.144249 
-0.416736 0.795082 0.440655 -0.580954 0.691451 0.429404 0.638745 0.526007 0.561534 
0.713305 0.442326 0.543639 0.79074 0.585926 0.17726 -0.654623 0.625855 0.423999 
-0.806925 0.425551 0.409608 0.782495 0.301022 0.545057 -0.833451 0.376932 0.404082 
0.791031 0.202783 0.577191 -0.886047 0.233974 0.40022 0.863651 0.0986144 0.494351 
0.998294 0.0582302 0.00423396 -0.920841 0.0704469 0.383522 0.884163 -0.0331624 0.466 
0.993707 -0.093046 -0.0623612 -0.940507 -0.147912 0.305888 0.904788 -0.213086 0.368719 
-0.883264 -0.372528 0.284725 -0.819981 -0.514988 0.249837 0.830356 -0.479671 0.283592 
0.705347 -0.662965 0.250924 0.00283585 -0.914053 0.405584 -0.756474 -0.622641 0.200164 
-0.648791 -0.752394 0.113899 0.516543 -0.837491 0.178301 0.455962 -0.875523 0.159869 
0.253505 -0.949664 0.184046 0.107577 -0.981345 0.159341 -0.0121334 -0.987034 0.160053 
-0.0989595 -0.975347 0.197245 -0.251817 -0.939852 0.230795 -0.252817 -0.918799 0.303136 
-0.377885 -0.887899 0.262369 0.27759 -0.909292 0.310051 0.413387 -0.870003 0.268712 
0.366158 -0.911528 0.187205 0.244108 -0.95667 0.158726 -0.338879 -0.936796 0.0870275 
-0.567579 -0.814793 0.11818 -0.468957 -0.87279 0.135342 0.0973195 -0.985409 0.139633 
-0.150094 -0.982943 0.106276 -0.084285 -0.99429 -0.0654461 0.348251 0.936992 -0.027681 
0.288447 0.955157 -0.0668835 0.214913 0.972109 -0.0939002 0.140471 0.984024 -0.109383 
0.0507198 0.991266 -0.121736 -0.0484303 0.989588 -0.135537 -0.151816 0.985277 -0.078614 
-0.25329 0.967388 0.00197094 -0.266522 0.957901 0.106733 -0.305846 0.943784 0.125418 
0.564822 0.825193 0.00572352 0.372585 0.927667 -0.0247875 0.443124 0.896383 -0.01178 
0.339949 0.91035 -0.236005 -0.318357 0.943534 0.0916098 -0.308212 0.902549 -0.300683 
-0.351659 0.935955 0.0180031 -0.486086 0.873664 0.0207564 0.587486 0.809168 0.0103761 
0.795443 0.605323 0.0292425 0.570985 0.807343 -0.148912 -0.56819 0.822477 -0.0262914 
-0.665111 0.742607 -0.078495 0.816598 0.576473 0.0290836 0.794325 0.583035 -0.170643 
-0.770495 0.618226 -0.15535 -0.852874 0.481754 -0.201294 0.933243 0.359146 0.00849941 
-0.892938 0.410387 -0.18505 -0.855537 0.400078 -0.328626 0.985465 0.169777 -0.00591545 
0.994164 0.082886 -0.0690445 -0.962097 0.222882 -0.157142 -0.726216 0.178233 -0.663961 
0.99492 0.0498564 -0.0874584 0.99152 0.0440832 -0.122247 -0.984142 -0.00572163 -0.177288 
-0.672227 -0.0399308 -0.739267 0.98824 -0.097116 -0.118113 0.983154 -0.122891 -0.135299 
0.984788 -0.103174 -0.139811 -0.947106 -0.206208 -0.245904 -0.684008 -0.23755 -0.689712 
0.908433 -0.337342 -0.246879 -0.858604 -0.399881 -0.320772 -0.775295 -0.53674 -0.332908 
-0.766722 -0.409001 -0.494829 0.785065 -0.556539 -0.271915 0.666039 -0.690698 -0.281652 
0.675804 -0.576151 -0.459716 -0.0213221 -0.995206 -0.0954467 -0.652214 -0.674102 -0.346704 
-0.607033 -0.704142 -0.368369 -0.556768 -0.610556 -0.563232 0.45792 -0.821119 -0.340694 
0.442503 -0.825202 -0.351044 0.432901 -0.811536 -0.392436 0.210628 -0.937119 -0.278289 
0.252042 -0.793065 -0.554547 0.119305 -0.936323 -0.330251 0.121975 -0.710986 -0.692547 
-0.00309847 -0.953849 -0.300271 -0.044941 -0.959538 -0.27797 -0.0496608 -0.708548 -0.703913 
-0.188843 -0.95508 -0.228387 -0.0876327 -0.75526 -0.649541 -0.1168 -0.98668 -0.113229 
-0.290807 -0.944573 -0.152358 -0.259025 -0.891851 -0.370821 0.124899 -0.982967 -0.134818 
0.323673 -0.926811 -0.190415 0.297204 -0.892097 -0.340341 0.289043 -0.933924 -0.210332 
0.157499 -0.687078 -0.709308 0.101777 -0.940598 -0.323909 -0.115666 -0.874304 -0.471396 
-0.285402 -0.881906 -0.375217 -0.303538 -0.614588 -0.728112 -0.464343 -0.792 -0.396385 
-0.431588 -0.80854 -0.399994 -0.426936 -0.786104 -0.446952 0.232081 0.801323 -0.55138 
0.18658 0.792711 -0.580342 0.0996346 0.801608 -0.58949 0.0278209 0.795413 -0.605428 
-0.00524081 0.791065 -0.61171 -0.0438342 0.836884 -0.545622 -0.127483 0.88678 -0.444263 
-0.208278 0.908596 -0.362042 0.373792 0.775995 -0.508046 0.245541 0.800745 -0.546367 
0.284762 0.77443 -0.56495 0.226246 0.784616 -0.577227 0.157769 0.668828 -0.726483 
0.082842 0.600646 -0.795211 0.0105907 0.567722 -0.823152 0.00906749 0.575043 -0.818073 
0.0222279 0.612625 -0.790061 -0.0611142 0.698391 -0.713102 -0.30696 0.900246 -0.30876 
-0.169467 0.820331 -0.546203 -0.307772 0.899985 -0.308713 -0.407589 0.810993 -0.419717 
-0.557396 0.688786 -0.463555 0.460692 0.722644 -0.515313 0.527732 0.659457 -0.535364 
0.323637 0.664358 -0.673711 0.159832 0.526763 -0.83485 0.119716 0.370633 -0.921032 
0.075526 0.255319 -0.963902 0.0569402 0.193555 -0.979436 -0.000833396 0.236277 -0.971685 
0.0327154 0.239765 -0.97028 0.0960137 0.231767 -0.968022 -0.192159 0.33904 -0.920938 
-0.366116 0.545451 -0.753951 -0.566986 0.679384 -0.465794 -0.551442 0.673476 -0.492282 
-0.623582 0.527796 -0.576695 0.659337 0.532495 -0.530776 0.707394 0.472156 -0.525988 
0.456382 0.518409 -0.723165 0.200883 0.308313 -0.929833 -0.0638441 0.139416 -0.988174 
-0.0190856 0.059758 -0.99803 0.0690712 -0.0246136 -0.997308 -0.414567 0.287134 -0.863532 
-0.632442 0.503599 -0.588562 -0.619891 0.493492 -0.610083 0.781678 0.338508 -0.523824 
0.668396 0.310095 -0.676082 -0.0953743 0.0368976 -0.994757 0.0878935 0.0429984 -0.995201 
-0.315311 0.097578 -0.943958 -0.67594 0.299871 -0.673188 -0.486304 0.217617 -0.846257 
0.832823 0.134121 -0.537046 0.556003 0.0741874 -0.827863 0.323605 -0.0686096 -0.943701 
-0.239934 0.0290453 -0.970354 -0.663481 0.14924 -0.733158 -0.403943 0.058261 -0.912927 
0.81171 -0.0308373 -0.583246 0.522105 -0.0503973 -0.851391 0.316441 -0.057356 -0.946877 
-0.246741 -0.124298 -0.961077 0.0401355 0.0151237 -0.99908 0.00983978 -0.0811191 -0.996656 
-0.229791 -0.0820859 -0.969772 -0.636812 -0.0434913 -0.769791 -0.360745 -0.0752188 -0.929626 
0.733829 -0.207312 -0.646928 0.522766 -0.202039 -0.828188 0.300081 -0.127634 -0.945336 
-0.0755109 -0.0971209 -0.992404 0.000616703 -0.191183 -0.981554 0.040278 -0.117122 -0.9923 
-0.0897438 -0.0791268 -0.992817 -0.0471291 -0.156826 -0.986501 0.0954276 -0.0592678 -0.99367 
0.0790877 -0.069096 -0.99447 -0.258143 -0.146902 -0.954873 -0.569986 -0.209959 -0.794376 
-0.409969 -0.165915 -0.896882 0.610418 -0.343244 -0.713844 0.591224 -0.390177 -0.705844 
0.575144 -0.333559 -0.746959 0.368348 -0.307212 -0.877463 0.164347 -0.254482 -0.95301 
-0.0814795 -0.20017 -0.976367 -0.0769667 -0.181228 -0.980425 -0.0566784 -0.158233 -0.985774 
-0.101167 -0.237591 -0.966083 -0.022304 -0.340706 -0.939905 0.112502 -0.190245 -0.975269 
0.100301 -0.152483 -0.983203 0.0221131 -0.178233 -0.98374 -0.0680966 -0.244776 -0.967185 
-0.141932 -0.280087 -0.949424 -0.258883 -0.330837 -0.907484 -0.49918 -0.346876 -0.794038 
-0.451628 -0.409615 -0.792621 -0.428053 -0.330817 -0.84103 0.438997 -0.51811 -0.73406 
0.338212 -0.574067 -0.745694 0.3169 -0.490339 -0.811876 0.233241 -0.638515 -0.733415 
0.186842 -0.496547 -0.847662 0.120983 -0.701583 -0.702242 0.0586596 -0.456185 -0.887949 
-0.00504196 -0.416 -0.909351 -0.0474249 -0.67745 -0.734038 -0.0235325 -0.385988 -0.922204 
-0.071362 -0.69571 -0.714769 -0.0573956 -0.365106 -0.929195 -0.198349 -0.699043 -0.68702 
-0.154691 -0.407379 -0.900063 -0.0312322 -0.633467 -0.773139 -0.0325569 -0.482832 -0.875108 
0.211028 -0.659119 -0.721824 0.157193 -0.427511 -0.890239 0.150351 -0.67069 -0.726339 
0.101808 -0.361989 -0.926606 -0.0252645 -0.365869 -0.930323 -0.101598 -0.372002 -0.922655 
-0.266038 -0.507035 -0.819841 -0.191261 -0.44684 -0.87393 -0.341346 -0.498412 -0.796912 
-0.3157 -0.513552 -0.797871 -0.309448 -0.483984 -0.818536 0.0901582 -0.708426 -0.700003 
-0.0312752 -0.701376 -0.712105 -0.0101517 -0.719537 -0.69438 -0.0108269 -0.705382 -0.708745 
0.127354 -0.666811 -0.734265 0.032064 -0.636561 -0.770559 0.0332103 -0.613964 -0.788635 
-0.171388 -0.616189 -0.768724 -0.12458 -0.653223 -0.746847 -0.131779 -0.628737 -0.766371 
0.0156889 0.343209 -0.939128 -0.0677271 0.355515 -0.932214 0.0755845 0.314735 -0.946165 
0.0221481 0.163828 -0.98624 0.0233005 0.152621 -0.98801 0.0926078 0.232113 -0.96827 
0.0946985 0.21927 -0.971058 0.0340857 0.242755 -0.969489 -0.18789 0.337739 -0.922296 
-0.0631952 0.310018 -0.948628 -0.19113 0.336625 -0.922037 -0.2084 0.227907 -0.951119 
0.33535 0.200467 -0.920518 0.109107 0.287037 -0.951686 0.117055 0.250906 -0.960908 
-0.0510257 0.154035 -0.986747 0.0651904 0.280823 -0.957543 -0.0698311 0.13302 -0.98865 
0.0621325 0.0176889 -0.997911 0.0482534 0.089718 -0.994798 0.0168398 0.0930341 -0.995521 
0.068418 0.0389289 -0.996897 0.0539143 0.0105593 -0.99849 0.00679761 0.078905 -0.996859 
-0.100135 0.150709 -0.983494 -0.215181 0.220346 -0.951391 -0.204298 0.218248 -0.954269 
0.35143 0.138082 -0.925975 0.319691 0.00643984 -0.9475 0.303966 0.11172 -0.94611 
0.0543423 0.195485 -0.9792 -0.0375097 0.0776614 -0.996274 -0.105843 0.0610775 -0.992505 
-0.113143 0.0829323 -0.990112 -0.0657592 0.0555261 -0.996289 0.104736 0.0518084 -0.99315 
0.0933645 0.130401 -0.987056 0.117034 0.0574069 -0.991467 -0.0183941 -0.0181554 -0.999666 
0.00618735 0.0308025 -0.999506 0.0804921 -0.0696876 -0.994316 0.0745637 -0.054656 -0.995717 
-0.0669201 -0.0254297 -0.997434 -0.245547 0.0553018 -0.967806 -0.212358 0.0393747 -0.976398 
0.289197 -0.054242 -0.955732 0.137757 0.0462667 -0.989385 -0.0430592 0.0250852 -0.998758 
-0.111174 0.0374314 -0.993096 -0.058275 0.0589398 -0.996559 0.095392 0.160932 -0.982345 
-0.230569 -0.122123 -0.965362 -0.023347 -0.055662 -0.998177 -0.00929172 -0.201091 -0.979529 
-0.00992153 -0.204913 -0.97873 0.0163503 -0.0234121 -0.999592 -0.0138669 -0.0892765 -0.99591 
-0.0308416 -0.0966654 -0.994839 0.051633 -0.0981219 -0.993834 -0.00587665 -0.0954809 -0.995414 
-0.196675 0.0151489 -0.980352 -0.0964743 -0.0191173 -0.995152 0.277222 -0.0639847 -0.958673 
0.147736 -0.0690709 -0.986612 -0.0499043 -0.0594227 -0.996985 -0.0805227 -0.0454932 -0.995714 
-0.0415998 -0.0701902 -0.996666 0.0192797 -0.0221574 -0.999569 -0.230251 -0.121638 -0.965499 
-0.00937743 -0.156404 -0.987649 -0.021849 -0.0743028 -0.996996 0.0888837 -0.182332 -0.979211 
0.0726831 -0.167264 -0.983229 0.0799506 -0.192021 -0.978129 0.0926053 -0.194556 -0.97651 
0.0529633 -0.0678506 -0.996289 0.0788507 -0.06751 -0.994598 0.0773637 -0.0606171 -0.995158 
0.0115724 -0.0534765 -0.998502 -0.14338 -0.0591278 -0.9879 -0.0981697 -0.0457208 -0.994119 
0.207696 -0.164308 -0.964295 0.155266 -0.216354 -0.96389 0.151503 -0.196656 -0.968697 
-0.0185982 -0.0985813 -0.994955 -0.0748925 -0.0971888 -0.992444 -0.0792504 -0.156017 -0.98457 
-0.0737782 -0.0971016 -0.992536 0.0701289 -0.0752333 -0.994697 -0.00924322 -0.148522 -0.988866 
0.00938544 -0.116084 -0.993195 -0.135637 -0.144623 -0.980146 -0.128149 -0.151421 -0.980127 
-0.127945 -0.144706 -0.981168 0.0643526 -0.237292 -0.969305 0.00537188 -0.223828 -0.974614 
0.0482746 -0.248883 -0.96733 0.0482275 -0.234889 -0.970825 
