# vtk DataFile Version 4.2
vtk output
ASCII
DATASET POLYDATA
POINTS 556 float
41.1067 16.2086 -23.9672 22.7576 34.5577 -23.8942 -23.1153 -48.0135 -14.5187 
-13.9407 -48.0135 -15.3764 -4.76616 -48.0135 -16.2182 4.40841 -48.0135 -15.8938 
13.583 -48.0135 -16.5105 22.7576 -48.0135 -14.4106 -32.2899 -38.8389 -17.0084 
-23.1153 -38.8389 -19.0868 -13.9407 -38.8389 -18.8696 -4.76616 -38.8389 -18.4667 
4.40841 -38.8389 -18.8033 13.583 -38.8389 -18.7756 22.7576 -38.8389 -19.1614 
31.9321 -38.8389 -16.371 -41.4645 -29.6643 -16.6427 -32.2899 -29.6643 -19.0093 
-23.1153 -29.6643 -20.3639 -13.9407 -29.6643 -19.5115 -4.76616 -29.6643 -19.1935 
4.40841 -29.6643 -19.385 13.583 -29.6643 -19.4572 22.7576 -29.6643 -20.3178 
31.9321 -29.6643 -18.966 41.1067 -29.6643 -14.3776 -41.4645 -20.4897 -16.8376 
-32.2899 -20.4897 -19.4781 -23.1153 -20.4897 -20.2249 -13.9407 -20.4897 -19.2888 
-4.76616 -20.4897 -18.9123 4.40841 -20.4897 -18.5978 13.583 -20.4897 -18.6389 
22.7576 -20.4897 -20.1809 31.9321 -20.4897 -20.5295 41.1067 -20.4897 -17.2721 
-41.4645 -11.3152 -17.6056 -32.2899 -11.3152 -19.9519 -23.1153 -11.3152 -20.6045 
-13.9407 -11.3152 -19.6221 -4.76616 -11.3152 -21.6267 4.40841 -11.3152 -20.4332 
13.583 -11.3152 -18.3469 22.7576 -11.3152 -20.6278 31.9321 -11.3152 -21.3704 
41.1067 -11.3152 -20.0822 50.2813 -11.3152 -16.3817 -50.639 -2.14059 -15.1063 
-41.4645 -2.14059 -18.7056 -32.2899 -2.14059 -20.6845 -23.1153 -2.14059 -21.6882 
-13.9407 -2.14059 -22.488 -4.76616 -2.14059 -20.02 4.40841 -2.14059 -21.2321 
13.583 -2.14059 -20.6457 22.7576 -2.14059 -20.6694 31.9321 -2.14059 -22.1725 
41.1067 -2.14059 -22.3542 50.2813 -2.14059 -20.5944 59.4559 -2.14059 -16.2241 
-50.639 7.03399 -16.7149 -41.4645 7.03399 -19.5662 -32.2899 7.03399 -20.9711 
-23.1153 7.03399 -20.6158 -13.9407 7.03399 -20.6227 -4.76616 7.03399 -21.2454 
4.40841 7.03399 -22.9651 13.583 7.03399 -20.0646 22.7576 7.03399 -20.2459 
31.9321 7.03399 -22.6379 41.1067 10.8693 -23.3025 41.1067 7.03399 -22.8333 
50.2813 7.03399 -22.0603 59.4559 7.03399 -19.0575 68.6304 7.03399 -14.5962 
-50.639 16.2086 -17.8578 -41.4645 16.2086 -20.3675 -32.2899 16.2086 -21.7436 
-23.1153 16.2086 -21.6266 -13.9407 16.2086 -21.1756 -4.76616 16.2086 -20.7116 
4.40841 16.2086 -20.9573 13.583 16.2086 -20.6881 22.7576 16.2086 -21.5726 
35.4778 16.2086 -23.3025 31.9321 16.2086 -22.8912 44.8522 16.2086 -23.3025 
41.1067 23.7079 -23.3025 50.2813 16.2086 -22.3918 59.4559 16.2086 -19.3756 
-50.639 25.3831 -17.9498 -41.4645 25.3831 -20.8043 -32.2899 25.3831 -23.1478 
-23.1153 25.3831 -22.8617 -13.9407 25.3831 -21.8209 -4.76616 25.3831 -21.0579 
4.40841 25.3831 -20.8766 13.583 25.3831 -21.9059 22.7576 27.5474 -23.3025 
22.7576 25.3831 -23.0945 31.9321 25.3831 -23.2285 41.1067 25.3831 -23.1528 
50.2813 25.3831 -21.9986 59.4559 25.3831 -18.2808 -50.639 34.5577 -14.6662 
-41.4645 34.5577 -19.2313 -32.2899 34.5577 -21.0592 -23.1153 34.5577 -22.3442 
-13.9407 34.5577 -21.4794 -4.76616 34.5577 -21.2352 4.40841 34.5577 -21.5333 
19.3496 34.5577 -23.3025 13.583 34.5577 -22.1583 28.0247 34.5577 -23.3025 
22.7576 36.5961 -23.3025 31.9321 34.5577 -22.7764 41.1067 34.5577 -22.485 
50.2813 34.5577 -18.1677 -32.2899 43.7323 -15.6506 -23.1153 43.7323 -18.1496 
-13.9407 43.7323 -19.1019 -4.76616 43.7323 -20 4.40841 43.7323 -20.6678 
13.583 43.7323 -20.916 22.7576 43.7323 -20.8391 31.9321 43.7323 -20.144 
41.1067 43.7323 -15.5988 -4.76616 52.9069 -15.4381 4.40841 52.9069 -16.7806 
13.583 52.9069 -16.3903 -23.1153 -48.5528 -14.1279 -13.9407 -49.8391 -14.1279 
-4.76616 -50.7576 -14.1279 4.40841 -50.4752 -14.1279 4.40841 -57.188 -5.2579 
13.583 -51.2964 -14.1279 22.7576 -48.3601 -14.1279 -24.8045 -48.0135 -14.1279 
-32.2899 -44.542 -14.1279 -32.2899 -48.0135 -11.5151 23.4214 -48.0135 -14.1279 
31.9321 -42.4396 -14.1279 31.9321 -48.0135 -7.07706 -38.7603 -38.8389 -14.1279 
-41.4645 -36.0631 -14.1279 -41.4645 -38.8389 -12.5944 35.8519 -38.8389 -14.1279 
41.1067 -30.3098 -14.1279 41.1067 -38.8389 -9.29447 -45.5277 -29.6643 -14.1279 
-50.639 -29.6643 -9.27282 41.4826 -29.6643 -14.1279 50.2813 -29.6643 -6.0771 
-46.4993 -20.4897 -14.1279 -50.639 -20.4897 -11.6153 46.11 -20.4897 -14.1279 
50.2813 -15.5342 -14.1279 50.2813 -20.4897 -10.809 -59.8136 -11.3152 -6.94785 
-49.4472 -11.3152 -14.1279 -50.639 -8.06942 -14.1279 -50.639 -11.3152 -13.5806 
54.0577 -11.3152 -14.1279 59.4559 -5.73222 -14.1279 59.4559 -11.3152 -9.56615 
-52.4995 -2.14059 -14.1279 -59.8136 -2.14059 -9.01514 62.1702 -2.14059 -14.1279 
68.6304 6.2372 -14.1279 68.6304 -2.14059 -6.74988 -55.5765 7.03399 -14.1279 
-59.8136 7.03399 -10.8954 69.0615 7.03399 -14.1279 68.6304 9.42627 -14.1279 
-56.4883 16.2086 -14.1279 -59.8136 16.2086 -11.1813 66.95 16.2086 -14.1279 
68.6304 16.2086 -10.8894 -56.5033 25.3831 -14.1279 -59.8136 25.3831 -10.7869 
63.7695 25.3831 -14.1279 59.4559 31.4627 -14.1279 -51.3205 34.5577 -14.1279 
-50.639 35.2871 -14.1279 -41.4645 42.7799 -14.1279 56.797 34.5577 -14.1279 
50.2813 39.7136 -14.1279 -38.649 43.7323 -14.1279 -41.4645 43.7323 -10.8657 
-32.2899 45.1098 -14.1279 -23.1153 47.324 -14.1279 -13.9407 50.2983 -14.1279 
22.7576 52.1946 -14.1279 31.9321 49.1838 -14.1279 43.6941 43.7323 -14.1279 
41.1067 44.9576 -14.1279 -8.00204 52.9069 -14.1279 -4.76616 54.0481 -14.1279 
4.40841 55.2328 -14.1279 20.6057 52.9069 -14.1279 13.583 54.8511 -14.1279 
4.40841 -57.3343 -4.95331 -32.2899 -52.2452 -4.95331 -23.1153 -54.8537 -4.95331 
-13.9407 -56.0424 -4.95331 -0.611646 -57.188 -4.95331 -4.76616 -57.059 -4.95331 
5.40909 -57.188 -4.95331 4.40841 -57.188 -3.9805 13.583 -55.9823 -4.95331 
22.7576 -53.3473 -4.95331 31.9321 -49.0807 -4.95331 -40.711 -48.0135 -4.95331 
-41.4645 -47.448 -4.95331 33.5373 -48.0135 -4.95331 41.1067 -42.0852 -4.95331 
-50.2954 -38.8389 -4.95331 -50.639 -38.1976 -4.95331 -50.639 -38.8389 -3.60901 
44.1326 -38.8389 -4.95331 50.2813 -30.759 -4.95331 -54.7 -29.6643 -4.95331 
51.084 -29.6643 -4.95331 -59.1185 -20.4897 -4.95331 -59.8136 -18.2716 -4.95331 
-59.8136 -20.4897 -3.92092 56.4272 -20.4897 -4.95331 59.4559 -16.6914 -4.95331 
59.4559 -20.4897 -0.142339 -61.612 -11.3152 -4.95331 63.1249 -11.3152 -4.95331 
68.6304 -3.95027 -4.95331 -63.5917 -2.14059 -4.95331 69.6621 -2.14059 -4.95331 
-64.8229 7.03399 -4.95331 -68.9882 7.03399 4.07659 72.051 7.03399 -4.95331 
-65.495 16.2086 -4.95331 70.7054 16.2086 -4.95331 68.6304 20.7496 -4.95331 
-63.8141 25.3831 -4.95331 -59.8136 33.5945 -4.95331 66.0355 25.3831 -4.95331 
59.4559 32.4365 -4.95331 -59.2167 34.5577 -4.95331 -59.8136 34.5577 -1.19141 
-50.639 41.5936 -4.95331 56.8667 34.5577 -4.95331 50.2813 39.6527 -4.95331 
50.2813 34.5577 2.9092 -44.409 43.7323 -4.95331 -41.4645 44.6459 -4.95331 
-41.4645 43.7323 -0.307341 -32.2899 46.5434 -4.95331 -23.1153 48.7054 -4.95331 
-13.9407 51.2316 -4.95331 22.7576 51.2952 -4.95331 31.9321 49.1229 -4.95331 
31.9321 43.7323 1.51672 42.2898 43.7323 -4.95331 41.1067 44.4009 -4.95331 
41.1067 43.7323 -4.03294 -9.33607 52.9069 -4.95331 -4.76616 54.7757 -4.95331 
-4.76616 52.9069 -2.15016 4.40841 55.6879 -4.95331 4.40841 52.9069 -1.24421 
18.0736 52.9069 -4.95331 13.583 54.6044 -4.95331 13.583 52.9069 -2.6162 
-32.2899 -52.0843 4.22127 -23.1153 -54.0482 4.22127 -13.9407 -55.1527 4.22127 
-4.76616 -55.884 4.22127 4.40841 -55.7218 4.22127 13.583 -54.1019 4.22127 
22.7576 -51.8131 4.22127 31.9321 -48.3633 4.22127 -50.639 -40.5522 4.22127 
-41.1066 -48.0135 4.22127 -41.4645 -47.8217 4.22127 -32.2899 -48.0135 10.6925 
-23.1153 -48.0135 12.4894 4.40841 -48.0135 13.3014 13.583 -48.0135 11.7004 
22.7576 -48.0135 9.69302 32.6715 -48.0135 4.22127 31.9321 -48.0135 4.96938 
41.1067 -43.5661 4.22127 -52.2062 -38.8389 4.22127 -50.639 -38.8389 7.93541 
46.738 -38.8389 4.22127 50.2813 -35.3759 4.22127 -59.097 -29.6643 4.22127 
-59.8136 -28.3326 4.22127 55.2178 -29.6643 4.22127 59.4559 -23.5867 4.22127 
-63.6149 -20.4897 4.22127 61.6714 -20.4897 4.22127 -66.8899 -11.3152 4.22127 
67.2796 -11.3152 4.22127 68.6304 -8.29942 4.22127 -68.6837 -2.14059 4.22127 
-68.9882 5.6761 4.22127 71.1163 -2.14059 4.22127 68.6304 -2.14059 11.7882 
-69.0401 7.03399 4.22127 -68.9882 9.34238 4.22127 -68.9882 7.03399 4.62554 
72.005 7.03399 4.22127 -68.8281 16.2086 4.22127 69.2337 16.2086 4.22127 
68.6304 17.2133 4.22127 68.6304 16.2086 5.18448 -66.2791 25.3831 4.22127 
50.2813 33.5667 4.22127 50.2813 25.3831 11.3564 61.6604 25.3831 4.22127 
59.4559 27.7388 4.22127 59.4559 25.3831 6.32348 -60.6165 34.5577 4.22127 
-59.8136 35.5497 4.22127 -59.8136 34.5577 6.38705 -50.639 41.1036 4.22127 
-41.4645 42.9274 4.22127 4.40841 34.5577 13.1187 13.583 34.5577 12.4859 
22.7576 34.5577 11.8671 31.9321 41.3433 4.22127 31.9321 34.5577 10.1715 
48.5346 34.5577 4.22127 41.1067 38.2305 4.22127 41.1067 34.5577 7.81866 
-35.5814 43.7323 4.22127 -32.2899 44.2447 4.22127 -32.2899 43.7323 5.18264 
-23.1153 43.8635 4.22127 -23.1153 43.7323 4.40875 -13.9407 45.3881 4.22127 
-13.9407 43.7323 5.95959 -4.76616 47.7885 4.22127 -4.76616 43.7323 7.60321 
4.40841 47.7335 4.22127 4.40841 43.7323 7.24079 13.583 45.9004 4.22127 
13.583 43.7323 5.80196 25.7173 43.7323 4.22127 22.7576 44.7175 4.22127 
22.7576 43.7323 5.17235 -13.9407 -48.1749 13.3958 -4.76616 -48.6628 13.3958 
-41.4645 -41.854 13.3958 -32.2899 -45.1513 13.3958 -15.4238 -48.0135 13.3958 
-23.1153 -47 13.3958 -13.9407 -48.0135 13.5269 3.19501 -48.0135 13.3958 
-4.76616 -48.0135 13.8988 4.40841 -47.8821 13.3958 13.583 -46.0406 13.3958 
22.7576 -44.478 13.3958 31.9321 -43.4098 13.3958 41.1067 -39.9372 13.3958 
-46.2952 -38.8389 13.3958 -50.639 -35.3383 13.3958 -41.4645 -38.8389 15.6862 
-32.2899 -38.8389 17.7444 -23.1153 -38.8389 18.5577 -13.9407 -38.8389 18.6263 
-4.76616 -38.8389 18.2825 4.40841 -38.8389 18.1727 13.583 -38.8389 17.8447 
22.7576 -38.8389 17.8108 31.9321 -38.8389 17.8846 43.1656 -38.8389 13.3958 
41.1067 -38.8389 14.5228 50.2813 -34.5193 13.3958 -55.836 -29.6643 13.3958 
-59.8136 -23.3848 13.3958 -50.639 -29.6643 16.668 -41.4645 -29.6643 20.1689 
-32.2899 -29.6643 20.9124 -23.1153 -29.6643 21.138 -13.9407 -29.6643 20.8659 
[...]
POINT_DATA 556
SCALARS ImageScalars float
LOOKUP_TABLE default
0 0 0 0 0 0 0 0 0 
0 0 0 0 0 0 0 0 0 
0 0 0 0 0 0 0 0 0 
0 0 0 0 0 0 0 0 0 
0 0 0 0 0 0 0 0 0 
0 0 0 0 0 0 0 0 0 
0 0 0 0 0 0 0 0 0 
0 0 0 0 0 0 0 0 0 
0 0 0 0 0 0 0 0 0 
0 0 0 0 0 0 0 0 0 
0 0 0 0 0 0 0 0 0 
0 0 0 0 0 0 0 0 0 
0 0 0 0 0 0 0 0 0 
0 0 0 0 0 0 0 0 0 
0 0 0 0 0 0 0 0 0 
0 0 0 0 0 0 0 0 0 
0 0 0 0 0 0 0 0 0 
0 0 0 0 0 0 0 0 0 
0 0 0 0 0 0 0 0 0 
0 0 0 0 0 0 0 0 0 
0 0 0 0 0 0 0 0 0 
0 0 0 0 0 0 0 0 0 
0 0 0 0 0 0 0 0 0 
0 0 0 0 0 0 0 0 0 
0 0 0 0 0 0 0 0 0 
0 0 0 0 0 0 0 0 0 
0 0 0 0 0 0 0 0 0 
0 0 0 0 0 0 0 0 0 
0 0 0 0 0 0 0 0 0 
0 0 0 0 0 0 0 0 0 
0 0 0 0 0 0 0 0 0 
0 0 0 0 0 0 0 0 0 
0 0 0 0 0 0 0 0 0 
0 0 0 0 0 0 0 0 0 
0 0 0 0 0 0 0 0 0 
0 0 0 0 0 0 0 0 0 
0 0 0 0 0 0 0 0 0 
0 0 0 0 0 0 0 0 0 
0 0 0 0 0 0 0 0 0 
0 0 0 0 0 0 0 0 0 
0 0 0 0 0 0 0 0 0 
0 0 0 0 0 0 0 0 0 
0 0 0 0 0 0 0 0 0 
0 0 0 0 0 0 0 0 0 
0 0 0 0 0 0 0 0 0 
0 0 0 0 0 0 0 0 0 
0 0 0 0 0 0 0 0 0 
0 0 0 0 0 0 0 0 0 
0 0 0 0 0 0 0 0 0 
0 0 0 0 0 0 0 0 0 
0 0 0 0 0 0 0 0 0 
0 0 0 0 0 0 0 0 0 
0 0 0 0 0 0 0 0 0 
0 0 0 0 0 0 0 0 0 
0 0 0 0 0 0 0 0 0 
0 0 0 0 0 0 0 0 0 
0 0 0 0 0 0 0 0 0 
0 0 0 0 0 0 0 0 0 
0 0 0 0 0 0 0 0 0 
0 0 0 0 0 0 0 0 0 
0 0 0 0 0 0 0 0 0 
0 0 0 0 0 0 0 
NORMALS Normals float
-0.0290209 0.0145046 0.999474 0.0347347 -0.109996 0.993325 0.151172 0.567207 0.809582 
0.0898355 0.521033 0.848796 0.0286957 0.469312 0.882566 0.0159283 0.467341 0.883933 
-0.0744143 0.471978 0.878464 -0.306832 0.602557 0.736735 0.286945 0.320112 0.902879 
0.0888195 0.29313 0.951938 -0.0317569 0.215008 0.976096 -0.00486058 0.161394 0.986878 
0.0167041 0.173582 0.984678 0.0168369 0.15841 0.98723 -0.118409 0.288686 0.950074 
-0.377413 0.4112 0.829743 0.436728 0.178613 0.881684 0.196087 0.12002 0.973214 
0.0309265 0.0550066 0.998007 -0.0626145 0.0238207 0.997754 -0.00688504 0.0233288 0.999704 
0.0143686 -0.0120088 0.999825 0.0492969 -0.00848166 0.998748 -0.0292825 0.0484007 0.998399 
-0.268212 0.201322 0.942089 -0.550688 0.300872 0.778601 0.37446 0.0502665 0.92588 
0.174049 0.0528819 0.983316 -0.0116783 0.0131702 0.999845 -0.0712833 0.00567556 0.99744 
-0.0383446 0.103231 0.993918 -0.0155442 0.0239991 0.999591 0.0858692 -0.0592932 0.994541 
0.101358 0.016054 0.99472 -0.129045 0.132384 0.982762 -0.424699 0.280168 0.860893 
0.323808 0.0967272 0.941165 0.156778 0.064328 0.985537 -0.0177772 0.0805341 0.996593 
0.0337985 0.178841 0.983297 0.0741043 0.0819737 0.993876 -0.193949 0.167646 0.966581 
0.0468393 0.10885 0.992954 0.159043 0.0270782 0.9869 -0.027679 0.0864378 0.995873 
-0.240273 0.252965 0.937165 -0.426871 0.418519 0.801637 0.432124 0.158745 0.887732 
0.284917 0.101278 0.953187 0.16038 0.0551875 0.985511 0.0968331 0.000245775 0.995301 
-0.0736191 0.055534 0.995739 -0.0861235 -0.00676415 0.996261 0.0299769 0.124027 0.991826 
-0.0269752 0.09275 0.995324 0.0813949 -0.0203018 0.996475 0.0921657 0.0672791 0.993468 
-0.0780367 0.145189 0.986322 -0.28956 0.272059 0.917681 -0.516627 0.352665 0.780207 
0.394899 0.14371 0.907415 0.227317 0.0887021 0.969773 0.0537883 0.0572805 0.996908 
-0.0192982 -0.00502693 0.999801 0.0331613 -0.0728411 0.996792 0.121165 0.0304652 0.992165 
-0.0623522 -0.023429 0.997779 -0.141649 0.00413411 0.989908 0.133559 0.0504639 0.989755 
0.139871 0.0393718 0.989387 -0.0338345 0.0596468 0.997646 -0.0344753 0.090756 0.995276 
-0.172408 0.0898112 0.980923 -0.40588 0.157547 0.900244 -0.741063 0.186716 0.644952 
0.405697 0.0646252 0.91172 0.215529 0.0680733 0.974122 0.0656218 0.115217 0.99117 
-0.0311955 0.122891 0.99193 -0.0492646 0.0643872 0.996708 -0.0131277 -0.00861742 0.999877 
-0.0013389 -0.107915 0.994159 0.0342568 0.0969694 0.994698 0.118506 0.150606 0.981465 
0.0683133 0.0249625 0.997352 0.127874 0.0308603 0.99131 -0.113203 0.0130241 0.993487 
-0.0537967 -0.0577902 0.996878 -0.229443 -0.000429543 0.973322 -0.459083 -0.0242631 0.888062 
0.416259 -0.124465 0.900687 0.268146 -0.0473851 0.962212 0.111612 -0.0365515 0.993079 
-0.0721349 0.0394108 0.996616 -0.0973466 0.0166589 0.995111 -0.0518608 0.0287443 0.998241 
0.0464123 0.0318642 0.998414 0.120105 0.0794388 0.989578 0.062282 0.0709767 0.995532 
0.0711561 0.128415 0.989164 0.00328876 -0.0050355 0.999982 -0.060372 -0.0760577 0.995274 
-0.213589 -0.215864 0.952776 -0.582653 -0.31079 0.75095 0.517111 -0.461201 0.721034 
0.308924 -0.358261 0.881031 0.149677 -0.330179 0.931976 0.0257343 -0.222347 0.974628 
-0.0578697 -0.144012 0.987882 0.00305898 -0.0531305 0.998583 0.0508117 -0.00827714 0.998674 
0.0692297 -0.0879311 0.993718 0.131099 -0.050126 0.990101 -0.0278867 -0.126879 0.991526 
0.0228 -0.172853 0.984684 -0.0815132 -0.147132 0.985752 -0.207376 -0.293514 0.933191 
-0.474403 -0.510862 0.716911 0.223318 -0.784008 0.579189 0.168417 -0.675428 0.717937 
0.0968871 -0.468009 0.878397 0.0912164 -0.296079 0.950798 0.0526127 -0.244931 0.968112 
0.0098224 -0.29738 0.954709 -0.0365184 -0.462872 0.885673 -0.260373 -0.548824 0.794354 
-0.428519 -0.794981 0.429391 0.252223 -0.788392 0.56109 0.0510719 -0.759925 0.648001 
-0.159078 -0.798665 0.580369 0.157715 0.586589 0.79438 0.0867482 0.597807 0.796933 
0.0238034 0.602898 0.797463 0.0214239 0.578665 0.815284 -0.0560625 0.981949 0.180647 
-0.0924307 0.648211 0.75583 -0.312849 0.615389 0.723479 0.179369 0.581549 0.793491 
0.29394 0.525569 0.798359 0.320083 0.711602 0.625436 -0.324285 0.611972 0.721339 
-0.431329 0.547157 0.717339 -0.521291 0.806054 0.280237 0.421666 0.390234 0.818483 
0.473296 0.339559 0.812829 0.504733 0.42528 0.751253 -0.507335 0.45825 0.729807 
-0.561035 0.313979 0.765935 -0.68553 0.535115 0.49366 0.546309 0.19675 0.814147 
0.683669 0.263815 0.680439 -0.558464 0.30683 0.770697 -0.722698 0.473163 0.503811 
0.472633 0.0999439 0.875574 0.561758 0.181336 0.807183 -0.512963 0.345845 0.785659 
-0.497212 0.411096 0.764055 -0.590041 0.403317 0.699419 0.707855 0.183385 0.682137 
0.429542 0.15061 0.890399 0.440405 0.158291 0.883735 0.449278 0.157859 0.879335 
-0.501695 0.454732 0.735882 -0.553608 0.408824 0.725521 -0.626874 0.510475 0.588595 
0.470941 0.160847 0.867377 0.661828 0.147895 0.734922 -0.581293 0.392869 0.712568 
-0.743322 0.217791 0.632487 -0.827984 0.389425 0.403473 0.531801 0.114225 0.839131 
0.673506 0.0835594 0.734443 -0.757323 0.184509 0.626433 -0.776292 0.0827469 0.624919 
0.586584 0.0258575 0.809475 0.699493 -0.00353035 0.714631 -0.764945 -0.169789 0.621313 
-0.886547 -0.221961 0.405917 0.649478 -0.162898 0.742726 0.781117 -0.194668 0.593262 
-0.733455 -0.444967 0.513857 -0.69807 -0.596923 0.39545 0.53299 -0.463755 0.70771 
0.517958 -0.49336 0.698796 0.343563 -0.773613 0.532435 -0.660253 -0.652541 0.371829 
-0.560603 -0.744838 0.361857 0.30167 -0.810785 0.501621 0.310795 -0.899539 0.306979 
0.227799 -0.847518 0.479396 0.24285 -0.853246 0.461515 0.305335 -0.817292 0.488677 
-0.287588 -0.900002 0.327551 -0.355702 -0.884637 0.301486 -0.477722 -0.820428 0.314133 
-0.44291 -0.834146 0.32868 0.293351 -0.839199 0.457919 0.254029 -0.843773 0.472775 
0.0470227 -0.891202 0.451162 -0.273344 -0.901317 0.336021 -0.174311 -0.895635 0.409211 
-0.0588626 0.984584 0.16471 0.355243 0.903607 0.239367 0.202282 0.959382 0.19664 
0.115585 0.975838 0.185421 0.00970609 0.982087 0.18818 0.0665847 0.976073 0.206997 
-0.0753733 0.984614 0.157649 -0.0617691 0.9916 0.113643 -0.208821 0.973069 0.0976246 
-0.350403 0.929555 0.114651 -0.515306 0.837872 0.180085 0.574233 0.780489 0.247171 
0.595647 0.760726 0.257878 -0.540351 0.817514 0.199227 -0.678213 0.66113 0.320833 
0.758858 0.522251 0.389087 0.761882 0.510092 0.399176 0.771349 0.551757 0.317151 
-0.720098 0.588544 0.367525 -0.732418 0.494451 0.468063 0.74936 0.374123 0.546344 
-0.729096 0.487777 0.480096 0.747044 0.272218 0.606484 0.751849 0.248938 0.610535 
0.784338 0.293117 0.546714 -0.674505 0.506322 0.537291 -0.680892 0.53692 0.4981 
-0.754321 0.55695 0.347572 0.746126 0.191309 0.637728 -0.688812 0.542301 0.48109 
-0.837693 0.403993 0.367505 0.742757 0.144276 0.653833 -0.870484 0.355555 0.34035 
0.816965 0.0810634 0.570962 0.992665 0.00880413 0.120579 -0.983327 0.0638381 0.170271 
0.850182 -0.0591895 0.523151 -0.962873 -0.256288 0.0848031 -0.91108 -0.412229 0.000241672 
0.869534 -0.260354 0.419674 0.789914 -0.518364 0.327619 -0.796207 -0.598596 -0.087965 
-0.655697 -0.742493 -0.136986 0.769367 -0.558594 0.309916 0.7754 -0.613083 0.151276 
0.443779 -0.880481 0.166772 -0.613098 -0.770233 -0.175647 -0.540114 -0.803525 -0.250247 
-0.412686 -0.719668 -0.558363 0.289124 -0.95701 0.0232158 0.240834 -0.97036 -0.0200092 
0.196095 -0.974674 -0.10751 0.198484 -0.978463 -0.0566967 0.264303 -0.946698 -0.184136 
0.292398 -0.929914 -0.223075 -0.243224 -0.906527 -0.345038 -0.323898 -0.895033 -0.306605 
-0.317523 -0.731192 -0.60377 -0.432196 -0.848461 -0.305485 -0.419096 -0.856278 -0.301904 
-0.410236 -0.844973 -0.343114 0.26013 -0.932231 -0.251549 0.232931 -0.938361 -0.255386 
0.207028 -0.88731 -0.412092 -0.00871844 -0.952397 -0.304737 -0.0199125 -0.85256 -0.522249 
-0.237207 -0.903303 -0.357459 -0.232262 -0.909316 -0.345251 -0.222497 -0.846899 -0.482968 
0.294523 0.916256 -0.271536 0.169408 0.932409 -0.319239 0.0908176 0.943056 -0.319997 
0.0289011 0.940052 -0.339805 -0.0837246 0.921065 -0.380301 -0.19946 0.893671 -0.401955 
-0.266641 0.892981 -0.362612 -0.394604 0.885 -0.24711 0.724723 0.683496 -0.0872314 
0.488838 0.849024 -0.200491 0.497184 0.845224 -0.19597 0.230775 0.779443 -0.582418 
0.105919 0.685171 -0.72064 -0.08754 0.597709 -0.796919 -0.138543 0.676382 -0.723404 
-0.182978 0.795012 -0.578338 -0.405866 0.883316 -0.234575 -0.380734 0.88296 -0.274632 
-0.551161 0.829969 -0.0858641 0.751405 0.656668 -0.0646415 0.684461 0.674441 -0.276845 
-0.662476 0.748049 0.0393347 -0.722119 0.680519 0.124249 0.853922 0.516306 0.0651501 
0.863565 0.499137 0.0715327 -0.778549 0.602051 0.177191 -0.796464 0.565644 0.213754 
0.910638 0.400162 0.102997 -0.807304 0.554625 0.201623 0.954333 0.256784 0.152679 
-0.886122 0.448567 0.116514 -0.928404 0.368536 0.047405 0.97998 0.115639 0.162072 
0.992307 0.0236096 0.121533 -0.971079 0.227159 -0.0735161 -0.870295 0.159003 -0.466159 
0.993415 0.0078641 0.114304 0.994099 -0.0317267 0.103729 0.995618 0.00648437 0.0932889 
-0.981156 -0.104187 -0.162722 0.985839 -0.152619 0.0694845 -0.833739 -0.418675 -0.359986 
-0.811892 -0.448453 -0.373792 -0.800338 -0.43732 -0.410135 0.930154 -0.367164 0.00210017 
-0.3829 -0.688308 -0.616133 -0.313608 -0.560771 -0.766281 -0.590815 -0.622336 -0.513454 
-0.555126 -0.631022 -0.541891 -0.517498 -0.610729 -0.599338 0.737655 -0.669198 -0.0896619 
0.709336 -0.698566 -0.0940698 0.719966 -0.667765 -0.189046 0.312994 -0.929024 -0.197357 
0.14646 -0.967954 -0.203998 -0.0551521 -0.521302 -0.851588 -0.0561876 -0.576219 -0.815362 
-0.0991718 -0.57869 -0.809496 -0.258546 -0.670792 -0.695121 -0.177863 -0.59748 -0.78191 
-0.364543 -0.692849 -0.622148 -0.29927 -0.69091 -0.658088 -0.269716 -0.635237 -0.72369 
0.0901396 -0.945193 -0.313822 0.0566981 -0.92288 -0.380891 0.0328632 -0.913707 -0.405042 
0.0443595 -0.846436 -0.53064 0.040693 -0.845901 -0.531786 0.164861 -0.734281 -0.658523 
0.126226 -0.714188 -0.688478 0.101163 -0.676628 -0.729343 0.0489317 -0.610626 -0.790406 
-0.0613093 -0.632492 -0.772136 -0.0779718 -0.578112 -0.812223 -0.117279 -0.618306 -0.777138 
-0.0956663 -0.605205 -0.7903 -0.195446 -0.67676 -0.709786 -0.157434 -0.685483 -0.710864 
-0.149482 -0.665751 -0.731048 0.0568577 0.628669 -0.775592 -0.00886432 0.599648 -0.800214 
0.32758 0.623504 -0.709883 0.181693 0.647882 -0.739754 0.0639504 0.630681 -0.773403 
0.0988277 0.637684 -0.763932 0.0561464 0.623831 -0.77954 -0.0771868 0.593852 -0.800864 
-0.0102736 0.578244 -0.815799 -0.0864084 0.592253 -0.801105 -0.112137 0.600274 -0.791894 
-0.093907 0.661552 -0.743996 -0.188342 0.754063 -0.629218 -0.369367 0.757067 -0.538904 
0.436213 0.605116 -0.665998 0.526587 0.573995 -0.627086 0.290282 0.532793 -0.794901 
0.143147 0.443229 -0.884905 0.0423185 0.408151 -0.911933 -0.014237 0.354027 -0.935127 
-0.0239774 0.328064 -0.944351 -0.0222227 0.350466 -0.936312 -0.0189503 0.420079 -0.907289 
0.00143547 0.49598 -0.868333 -0.133722 0.591718 -0.794977 -0.414188 0.762176 -0.49753 
-0.348102 0.737954 -0.578142 -0.592178 0.717633 -0.366507 0.635701 0.488136 -0.598003 
0.742185 0.434271 -0.51046 0.442317 0.411153 -0.797063 0.20942 0.276669 -0.937869 
0.0482291 0.191774 -0.980253 -0.00255278 0.15096 -0.988537 -0.0375739 0.157728 -0.986767 
-0.0198145 0.132348 -0.991005 0.0200937 0.163326 -0.986367 0.0495965 0.208169 -0.976835 
0.0563112 0.218325 -0.97425 0.0511968 0.250009 -0.966889 -0.1553 0.366001 -0.917565 
-0.69689 0.639073 -0.325468 -0.526887 0.560827 -0.638642 -0.778644 0.558075 -0.286819 
0.768139 0.398783 -0.500934 0.706854 0.372976 -0.601038 0.263131 0.29373 -0.918959 
0.0860215 0.105691 -0.990671 0.0154369 0.0286628 -0.99947 -0.00395226 -0.016231 -0.99986 
-0.0421838 0.0470483 -0.998002 -0.0167419 0.0687642 -0.997492 0.0528707 0.12478 -0.990775 
0.054607 0.0693106 -0.996099 0.0704101 -0.00745182 -0.99749 -0.811802 0.492243 -0.314126 
-0.741247 0.435687 -0.510618 0.810763 0.277193 -0.515584 0.562032 0.177139 -0.807924 
0.245336 0.0941362 -0.964857 -0.0429909 0.0922437 -0.994808 -0.0772821 0.00153243 -0.997008 
0.0133144 -0.0996847 -0.99493 0.0538175 0.045309 -0.997522 0.0608927 0.0507693 -0.996852 
-0.0938084 0.136984 -0.986121 0.0680051 -0.0761992 -0.994771 -0.867111 0.281401 -0.411013 
-0.535544 0.131026 -0.834281 0.877154 0.101247 -0.469415 0.461226 0.104531 -0.881104 
0.193761 0.0180632 -0.980882 -0.16921 0.0620543 -0.983624 0.00485313 0.0258819 -0.999653 
0.0233856 0.0547149 -0.998228 -0.102182 -0.053009 -0.993352 0.115831 -0.125413 -0.98532 
-0.161404 -0.0988482 -0.981925 -0.813245 0.119128 -0.569597 -0.439099 -0.0777623 -0.895067 
-0.781845 -0.0742331 -0.619038 0.885956 -0.0242765 -0.463133 0.477056 0.0188797 -0.87867 
0.215029 0.0454244 -0.975551 -0.0265388 0.195851 -0.980275 0.0835687 -0.0170579 -0.996356 
-0.00895434 -0.113058 -0.993548 -0.050119 -0.223056 -0.973516 -0.060198 -0.0671106 -0.995928 
0.0673132 -0.162136 -0.98447 -0.0194026 -0.216952 -0.975989 -0.164265 -0.277876 -0.946468 
-0.364156 -0.301957 -0.881029 -0.720736 -0.254333 -0.644867 -0.689498 -0.287329 -0.664857 
-0.690134 -0.266958 -0.672643 0.85075 -0.192764 -0.488945 0.516534 -0.0666936 -0.853666 
-0.063404 -0.122419 -0.990451 -0.0840276 -0.180897 -0.979906 -0.0948687 -0.133152 -0.986545 
-0.053394 -0.19819 -0.978708 -0.0753065 -0.139665 -0.987331 -0.0478396 -0.261356 -0.964056 
-0.103955 -0.366022 -0.924782 -0.284145 -0.516095 -0.808027 -0.235655 -0.439955 -0.866549 
-0.434877 -0.464055 -0.771709 -0.432725 -0.465121 -0.772277 -0.432822 -0.463316 -0.773307 
0.768379 -0.414593 -0.487551 0.675369 -0.533361 -0.509315 0.605613 -0.361238 -0.709041 
0.226356 -0.278917 -0.933257 -0.205445 -0.330969 -0.921006 -0.125409 -0.385103 -0.914313 
-0.0694412 -0.420807 -0.904488 -0.0530588 -0.516035 -0.854922 -0.0282902 -0.376192 -0.92611 
-0.0509215 -0.558365 -0.828031 -0.0386503 -0.382132 -0.923299 -0.103909 -0.540298 -0.835034 
-0.128047 -0.375211 -0.918053 -0.178365 -0.505059 -0.844454 -0.170437 -0.418373 -0.892141 
-0.233052 -0.510448 -0.827726 -0.214456 -0.506458 -0.83517 -0.206628 -0.494318 -0.844367 
0.543473 -0.655501 -0.524362 0.309446 -0.787641 -0.53279 0.29959 -0.656467 -0.692312 
0.0419611 -0.808944 -0.586386 0.0341745 -0.622672 -0.781737 -0.116242 -0.784416 -0.609245 
-0.090874 -0.68776 -0.720228 -0.117931 -0.753946 -0.646264 -0.161561 -0.666458 -0.727826 
-0.0996496 -0.616828 -0.780765 -0.115045 -0.607009 -0.786324 -0.0473517 -0.524793 -0.849912 
-0.036398 -0.530948 -0.846623 -0.0402979 -0.528317 -0.84809 0.0654323 0.158738 -0.98515 
-0.14019 0.334069 -0.932065 -0.280195 0.212456 -0.936137 0.0278355 0.104857 -0.994098 
0.070744 0.0220526 -0.997251 0.0722381 0.0784781 -0.994295 -0.0246438 0.0719678 -0.997102 
-0.287454 0.202254 -0.936196 -0.270082 0.195877 -0.942703 -0.0288408 0.0953333 -0.995028 
0.123745 0.0326825 -0.991776 0.0331035 0.0870743 -0.995652 -0.0282026 0.117609 -0.992659 
0.0241922 0.102299 -0.994459 -0.103805 0.121138 -0.987193 0.109046 -0.0705348 -0.991531 
0.123069 -0.103673 -0.986968 0.128209 -0.0613539 -0.989848 -0.0374416 -0.0343239 -0.998709 
-0.20235 -0.012131 -0.979238 -0.171755 -0.0638781 -0.983066 -0.184344 -0.0176981 -0.982702 
0.0713296 0.0660368 -0.995264 -0.0613742 0.0879361 -0.994234 -0.00358079 0.0990728 -0.995074 
-0.161672 0.150514 -0.975299 0.126792 0.0308424 -0.99145 0.121405 0.0329089 -0.992057 
0.122622 0.0235248 -0.992175 0.128542 0.0309382 -0.991221 0.107719 -0.052571 -0.99279 
-0.0507867 0.0284649 -0.998304 0.119742 -0.125931 -0.984786 0.161692 -0.120096 -0.979506 
-0.128382 -0.0202686 -0.991518 -0.0536146 -0.21551 -0.975029 -0.163588 0.0120119 -0.986456 
0.061753 -0.118462 -0.991036 -0.114165 -0.10158 -0.988255 0.0131842 -0.141019 -0.989919 
0.023318 -0.110492 -0.993603 0.204155 0.0484526 -0.977739 0.237835 0.00795053 -0.971273 
0.0179952 0.0983913 -0.994985 -0.15097 0.163174 -0.974978 -0.160487 0.160912 -0.973833 
-0.0834144 0.0833127 -0.993026 -0.00989652 0.00317415 -0.999946 -0.064081 0.00129508 -0.997944 
-0.0758829 -0.0566616 -0.995506 -0.0691642 0.0181697 -0.99744 0.257384 -0.0180369 -0.966141 
0.250019 -0.0465098 -0.967123 0.253234 -0.0176878 -0.967243 0.0991785 -0.0374203 -0.994366 
-0.0842576 0.0395493 -0.995659 -0.0801954 -0.0815412 -0.993438 -0.160946 -0.136183 -0.977523 
-0.120175 0.0178175 -0.992593 0.158778 -0.281934 -0.946204 0.0823249 -0.335638 -0.938387 
0.0757056 -0.28799 -0.954636 -0.150454 -0.295809 -0.943324 -0.089652 -0.362738 -0.927569 
-0.0829145 -0.261882 -0.961532 
