# vtk DataFile Version 4.2
vtk output
ASCII
DATASET POLYDATA
POINTS 522 float
-13.6277 -42.8499 -12.9793 -5.59002 -42.8499 -14.1519 2.44767 -42.8499 -14.018 
10.4854 -42.8499 -12.6824 -37.7408 -34.8122 -12.7337 -29.7031 -34.8122 -15.4567 
-21.6654 -34.8122 -16.2885 -13.6277 -34.8122 -16.491 -5.59002 -34.8122 -16.224 
2.44767 -34.8122 -16.3719 10.4854 -34.8122 -16.1129 18.5231 -34.8122 -14.8938 
26.5608 -34.8122 -13.0691 -45.7785 -26.7745 -13.7019 -37.7408 -26.7745 -17.3035 
-29.7031 -26.7745 -18.1788 -21.6654 -26.7745 -18.6723 -13.6277 -26.7745 -17.5097 
-5.59002 -26.7745 -16.8823 2.44767 -26.7745 -16.987 10.4854 -26.7745 -16.8401 
18.5231 -26.7745 -16.3247 26.5608 -26.7745 -15.0606 34.5984 -26.7745 -13.0078 
-53.8162 -18.7368 -12.1982 -45.7785 -18.7368 -16.2685 -37.7408 -18.7368 -18.1913 
-29.7031 -18.7368 -18.8969 -21.6654 -18.7368 -18.4191 -13.6277 -18.7368 -17.3284 
-5.59002 -18.7368 -16.3428 2.44767 -18.7368 -16.205 10.4854 -18.7368 -16.5174 
18.5231 -18.7368 -15.9319 26.5608 -18.7368 -15.2097 34.5984 -18.7368 -14.3145 
42.6361 -18.7368 -12.6644 -53.8162 -10.6991 -14.2388 -45.7785 -10.6991 -17.1898 
-37.7408 -10.6991 -17.9468 -29.7031 -10.6991 -17.7041 -21.6654 -10.6991 -16.7619 
-13.6277 -10.6991 -16.0852 -5.59002 -10.6991 -16.9804 2.44767 -10.6991 -18.1145 
10.4854 -10.6991 -16.88 18.5231 -10.6991 -15.1051 26.5608 -10.6991 -15.6678 
34.5984 -10.6991 -15.5091 42.6361 -10.6991 -14.2803 -53.8162 -2.66142 -15.7752 
-45.7785 -2.66142 -17.9942 -37.7408 -2.66142 -18.2734 -29.7031 -2.66142 -17.5658 
-21.6654 -2.66142 -16.058 -13.6277 -2.66142 -16.1649 -5.59002 -2.66142 -18.5954 
2.44767 -2.66142 -14.9068 10.4854 -2.66142 -18.1969 18.5231 -2.66142 -15.7921 
26.5608 -2.66142 -15.9798 34.5984 -2.66142 -15.9851 42.6361 -2.66142 -15.0445 
50.6738 -2.66142 -12.7906 -53.8162 5.37627 -16.4502 -45.7785 5.37627 -18.6438 
-37.7408 5.37627 -18.9476 -29.7031 5.37627 -18.3416 -21.6654 5.37627 -17.3384 
-13.6277 5.37627 -16.6922 -5.59002 5.37627 -18.2246 2.44767 5.37627 -17.5713 
10.4854 5.37627 -15.1498 18.5231 5.37627 -15.1468 26.5608 5.37627 -15.8443 
34.5984 5.37627 -15.7785 42.6361 5.37627 -14.7901 50.6738 5.37627 -12.7215 
-53.8162 13.414 -15.2703 -45.7785 13.414 -18.3076 -37.7408 13.414 -19.2039 
-29.7031 13.414 -18.9928 -21.6654 13.414 -17.7288 -13.6277 13.414 -16.2204 
-5.59002 13.414 -16.3648 2.44767 13.414 -16.4227 10.4854 13.414 -14.3998 
18.5231 13.414 -15.4739 26.5608 13.414 -15.8125 34.5984 13.414 -15.6151 
42.6361 13.414 -14.2293 -45.7785 21.4517 -16.847 -37.7408 21.4517 -18.5315 
-29.7031 21.4517 -19.349 -21.6654 21.4517 -18.4059 -13.6277 21.4517 -17.6909 
-5.59002 21.4517 -16.9469 2.44767 21.4517 -16.2615 10.4854 21.4517 -16.2066 
18.5231 21.4517 -16.2968 26.5608 21.4517 -15.6757 34.5984 21.4517 -14.4458 
-45.7785 29.4894 -13.1597 -37.7408 29.4894 -17.0751 -29.7031 29.4894 -18.019 
-21.6654 29.4894 -18.4724 -13.6277 29.4894 -17.9695 -5.59002 29.4894 -17.5223 
2.44767 29.4894 -16.9425 10.4854 29.4894 -17.5 18.5231 29.4894 -16.7776 
26.5608 29.4894 -15.7634 34.5984 29.4894 -12.6678 -29.7031 37.5271 -15.2575 
-21.6654 37.5271 -16.8525 -13.6277 37.5271 -16.7452 -5.59002 37.5271 -16.6237 
2.44767 37.5271 -16.3924 10.4854 37.5271 -16.2721 18.5231 37.5271 -15.6203 
26.5608 37.5271 -13.4642 -5.59002 45.5647 -12.1963 2.44767 45.5647 -12.7186 
-13.6277 -44.1232 -11.9998 -5.59002 -46.0762 -11.9998 2.44767 -45.7024 -11.9998 
10.4854 -43.7021 -11.9998 -37.7408 -35.5197 -11.9998 -29.7031 -39.0437 -11.9998 
-29.7031 -42.8499 -5.0123 -17.4838 -42.8499 -11.9998 -21.6654 -41.2396 -11.9998 
-21.6654 -42.8499 -10.3605 12.7221 -42.8499 -11.9998 18.5231 -39.7971 -11.9998 
18.5231 -42.8499 -8.97531 26.5608 -36.6602 -11.9998 -38.9032 -34.8122 -11.9998 
-45.7785 -28.7677 -11.9998 28.9867 -34.8122 -11.9998 34.5984 -29.1725 -11.9998 
34.5984 -34.8122 -8.53373 -47.6253 -26.7745 -11.9998 -53.8162 -19.0699 -11.9998 
37.0937 -26.7745 -11.9998 42.6361 -20.3884 -11.9998 42.6361 -26.7745 -9.17177 
50.6738 -26.7745 -4.41087 -54.0062 -18.7368 -11.9998 44.9059 -18.7368 -11.9998 
50.6738 -18.7368 -9.80632 -56.2564 -10.6991 -11.9998 49.7094 -10.6991 -11.9998 
50.6738 -8.30578 -11.9998 50.6738 -10.6991 -11.6677 58.7115 -10.6991 -7.19982 
-58.2744 -2.66142 -11.9998 52.5285 -2.66142 -11.9998 58.7115 -2.66142 -8.37851 
-58.6654 5.37627 -11.9998 -61.8539 5.37627 -4.44427 52.2777 5.37627 -11.9998 
50.6738 8.42053 -11.9998 58.7115 5.37627 -8.6318 -57.0077 13.414 -11.9998 
-53.8162 20.2442 -11.9998 48.0653 13.414 -11.9998 42.6361 20.7062 -11.9998 
50.6738 13.414 -10.6958 58.7115 13.414 -4.88933 -53.2187 21.4517 -11.9998 
-53.8162 21.4517 -10.9649 41.9082 21.4517 -11.9998 42.6361 21.4517 -11.7306 
50.6738 21.4517 -7.40607 -47.0045 29.4894 -11.9998 -45.7785 30.6954 -11.9998 
-37.7408 37.0553 -11.9998 36.142 29.4894 -11.9998 34.5984 30.8945 -11.9998 
42.6361 29.4894 -7.99001 -36.96 37.5271 -11.9998 -37.7408 37.5271 -10.6909 
-29.7031 41.338 -11.9998 -21.6654 43.4031 -11.9998 -13.6277 44.8428 -11.9998 
10.4854 45.5375 -11.9998 18.5231 43.1797 -11.9998 29.191 37.5271 -11.9998 
26.5608 39.679 -11.9998 34.5984 37.5271 -6.33466 -7.71429 45.5647 -11.9998 
-13.6277 45.5647 -10.0799 -5.59002 45.7621 -11.9998 10.2988 45.5647 -11.9998 
2.44767 46.356 -11.9998 10.4854 45.5647 -11.9669 18.5231 45.5647 -8.48972 
-29.7031 -43.314 -3.96207 -21.6654 -46.8828 -3.96207 -13.6277 -49.5666 -3.96207 
-5.59002 -50.8517 -3.96207 2.44767 -50.5389 -3.96207 10.4854 -48.3261 -3.96207 
18.5231 -45.586 -3.96207 -30.4539 -42.8499 -3.96207 -37.7408 -38.3337 -3.96207 
-29.7031 -42.8499 2.72512 26.1877 -42.8499 -3.96207 26.5608 -42.7028 -3.96207 
34.5984 -38.7075 -3.96207 -42.282 -34.8122 -3.96207 -45.7785 -31.6265 -3.96207 
41.3323 -34.8122 -3.96207 42.6361 -33.7834 -3.96207 42.6361 -34.8122 1.90396 
50.6738 -27.208 -3.96207 -50.4082 -26.7745 -3.96207 -53.8162 -22.0727 -3.96207 
51.1178 -26.7745 -3.96207 -55.9618 -18.7368 -3.96207 -53.8162 -18.7368 1.89873 
57.9757 -18.7368 -3.96207 58.7115 -17.6584 -3.96207 58.7115 -18.7368 -2.3202 
-59.8334 -10.6991 -3.96207 61.7124 -10.6991 -3.96207 -61.7669 -2.66142 -3.96207 
-61.8539 0.523271 -3.96207 62.6645 -2.66142 -3.96207 -61.9841 5.37627 -3.96207 
-61.8539 6.06385 -3.96207 -61.8539 5.37627 -3.44235 62.8654 5.37627 -3.96207 
-60.3317 13.414 -3.96207 59.5106 13.414 -3.96207 58.7115 14.7355 -3.96207 
-56.6163 21.4517 -3.96207 -53.8162 25.2143 -3.96207 54.0336 21.4517 -3.96207 
50.6738 25.2925 -3.96207 -49.9657 29.4894 -3.96207 -45.7785 33.4327 -3.96207 
46.499 29.4894 -3.96207 42.6361 32.9422 -3.96207 -40.3597 37.5271 -3.96207 
-37.7408 39.2636 -3.96207 -37.7408 37.5271 1.02137 -29.7031 43.0493 -3.96207 
-21.6654 45.334 -3.96207 26.5608 43.8881 -3.96207 36.6923 37.5271 -3.96207 
34.5984 39.0244 -3.96207 -20.5944 45.5647 -3.96207 -13.6277 47.023 -3.96207 
-13.6277 45.5647 0.98087 -5.59002 48.6686 -3.96207 2.44767 49.722 -3.96207 
10.4854 49.2079 -3.96207 22.8439 45.5647 -3.96207 18.5231 47.4024 -3.96207 
-21.6654 -47.3468 4.07562 -13.6277 -49.8654 4.07562 -5.59002 -50.4368 4.07562 
2.44767 -49.6371 4.07562 10.4854 -46.7999 4.07562 18.5231 -44.4916 4.07562 
-37.7408 -36.7503 4.07562 -29.5422 -42.8499 4.07562 -29.7031 -42.7478 4.07562 
2.44767 -42.8499 11.1851 10.4854 -42.8499 9.17151 24.1042 -42.8499 4.07562 
18.5231 -42.8499 6.49375 26.5608 -42.0271 4.07562 34.5984 -39.019 4.07562 
42.6361 -35.059 4.07562 -39.8262 -34.8122 4.07562 -45.7785 -28.4493 4.07562 
-37.7408 -34.8122 6.61472 34.5984 -34.8122 9.59016 43.0208 -34.8122 4.07562 
42.6361 -34.8122 4.60828 50.6738 -29.4699 4.07562 -47.1346 -26.7745 4.07562 
-45.7785 -26.7745 5.61033 53.6749 -26.7745 4.07562 50.6738 -26.7745 9.54915 
58.7115 -21.0645 4.07562 -52.7199 -18.7368 4.07562 -53.8162 -17.0674 4.07562 
-45.7785 -18.7368 10.1129 60.5243 -18.7368 4.07562 58.7115 -18.7368 8.43495 
-57.0859 -10.6991 4.07562 -53.8162 -10.6991 8.16962 64.2351 -10.6991 4.07562 
-59.0702 -2.66142 4.07562 -53.8162 -2.66142 10.7938 65.7574 -2.66142 4.07562 
-59.5236 5.37627 4.07562 -53.8162 5.37627 10.7269 65.2551 5.37627 4.07562 
-58.1124 13.414 4.07562 -53.8162 13.414 9.96853 61.7774 13.414 4.07562 
58.7115 18.287 4.07562 58.7115 13.414 10.8875 -54.3639 21.4517 4.07562 
-53.8162 22.1659 4.07562 -53.8162 21.4517 4.84981 -45.7785 21.4517 11.7059 
56.3318 21.4517 4.07562 50.6738 27.2183 4.07562 50.6738 21.4517 11.9074 
-46.993 29.4894 4.07562 -45.7785 30.6041 4.07562 -45.7785 29.4894 5.47211 
-37.7408 36.0542 4.07562 -37.7408 29.4894 10.6302 48.0828 29.4894 4.07562 
42.6361 34.2055 4.07562 42.6361 29.4894 11.2652 -35.1756 37.5271 4.07562 
-29.7031 39.9324 4.07562 -29.7031 37.5271 7.0099 -21.6654 41.9215 4.07562 
-21.6654 37.5271 9.19439 -13.6277 44.4347 4.07562 -13.6277 37.5271 11.9821 
26.5608 42.7823 4.07562 37.1957 37.5271 4.07562 34.5984 39.0093 4.07562 
34.5984 37.5271 6.70305 -10.5046 45.5647 4.07562 -5.59002 47.0313 4.07562 
-5.59002 45.5647 6.42247 2.44767 48.1426 4.07562 2.44767 45.5647 8.46756 
10.4854 48.097 4.07562 10.4854 45.5647 8.57029 20.0884 45.5647 4.07562 
18.5231 46.167 4.07562 18.5231 45.5647 5.22201 -21.6654 -42.9756 12.1133 
-13.6277 -44.7645 12.1133 -5.59002 -44.1099 12.1133 -21.9112 -42.8499 12.1133 
-29.7031 -38.0409 12.1133 -21.6654 -42.8499 12.2252 -13.6277 -42.8499 13.5469 
-1.23597 -42.8499 12.1133 -5.59002 -42.8499 13.0247 2.44767 -41.3257 12.1133 
10.4854 -39.0634 12.1133 18.5231 -37.0034 12.1133 26.5608 -35.4139 12.1133 
-32.9131 -34.8122 12.1133 -37.7408 -28.531 12.1133 -29.7031 -34.8122 14.3943 
-21.6654 -34.8122 17.1577 -13.6277 -34.8122 16.7264 -5.59002 -34.8122 16.0053 
2.44767 -34.8122 14.9856 10.4854 -34.8122 14.3792 18.5231 -34.8122 13.6404 
28.1284 -34.8122 12.1133 26.5608 -34.8122 12.5412 34.5984 -31.8532 12.1133 
42.6361 -28.609 12.1133 -39.0254 -26.7745 12.1133 -37.7408 -26.7745 13.0755 
-29.7031 -26.7745 16.5082 -21.6654 -26.7745 18.5914 -13.6277 -26.7745 17.5476 
-5.59002 -26.7745 16.3455 2.44767 -26.7745 15.9464 10.4854 -26.7745 16.4158 
18.5231 -26.7745 16.6181 26.5608 -26.7745 16.1196 34.5984 -26.7745 15.2001 
[...]
POINT_DATA 522
SCALARS ImageScalars float
LOOKUP_TABLE default
0 0 0 0 0 0 0 0 0 
0 0 0 0 0 0 0 0 0 
0 0 0 0 0 0 0 0 0 
0 0 0 0 0 0 0 0 0 
0 0 0 0 0 0 0 0 0 
0 0 0 0 0 0 0 0 0 
0 0 0 0 0 0 0 0 0 
0 0 0 0 0 0 0 0 0 
0 0 0 0 0 0 0 0 0 
0 0 0 0 0 0 0 0 0 
0 0 0 0 0 0 0 0 0 
0 0 0 0 0 0 0 0 0 
0 0 0 0 0 0 0 0 0 
0 0 0 0 0 0 0 0 0 
0 0 0 0 0 0 0 0 0 
0 0 0 0 0 0 0 0 0 
0 0 0 0 0 0 0 0 0 
0 0 0 0 0 0 0 0 0 
0 0 0 0 0 0 0 0 0 
0 0 0 0 0 0 0 0 0 
0 0 0 0 0 0 0 0 0 
0 0 0 0 0 0 0 0 0 
0 0 0 0 0 0 0 0 0 
0 0 0 0 0 0 0 0 0 
0 0 0 0 0 0 0 0 0 
0 0 0 0 0 0 0 0 0 
0 0 0 0 0 0 0 0 0 
0 0 0 0 0 0 0 0 0 
0 0 0 0 0 0 0 0 0 
0 0 0 0 0 0 0 0 0 
0 0 0 0 0 0 0 0 0 
0 0 0 0 0 0 0 0 0 
0 0 0 0 0 0 0 0 0 
0 0 0 0 0 0 0 0 0 
0 0 0 0 0 0 0 0 0 
0 0 0 0 0 0 0 0 0 
0 0 0 0 0 0 0 0 0 
0 0 0 0 0 0 0 0 0 
0 0 0 0 0 0 0 0 0 
0 0 0 0 0 0 0 0 0 
0 0 0 0 0 0 0 0 0 
0 0 0 0 0 0 0 0 0 
0 0 0 0 0 0 0 0 0 
0 0 0 0 0 0 0 0 0 
0 0 0 0 0 0 0 0 0 
0 0 0 0 0 0 0 0 0 
0 0 0 0 0 0 0 0 0 
0 0 0 0 0 0 0 0 0 
0 0 0 0 0 0 0 0 0 
0 0 0 0 0 0 0 0 0 
0 0 0 0 0 0 0 0 0 
0 0 0 0 0 0 0 0 0 
0 0 0 0 0 0 0 0 0 
0 0 0 0 0 0 0 0 0 
0 0 0 0 0 0 0 0 0 
0 0 0 0 0 0 0 0 0 
0 0 0 0 0 0 0 0 0 
0 0 0 0 0 0 0 0 0 

NORMALS Normals float
0.18015 0.571244 0.800766 0.0608867 0.446716 0.892602 -0.0882039 0.484862 0.870131 
-0.218192 0.589873 0.777459 0.41464 0.674012 0.611377 0.192275 0.506162 0.840732 
0.059947 0.416652 0.907087 -0.00500623 0.255949 0.966677 -0.00825099 0.166077 0.986078 
-0.00769209 0.177684 0.984058 -0.0825338 0.233904 0.96875 -0.191196 0.335775 0.922334 
-0.305406 0.389166 0.869067 0.56692 0.506688 0.649515 0.228094 0.322204 0.918781 
0.0763935 0.193789 0.978064 -0.0431618 0.117809 0.992098 -0.108448 0.0534339 0.992665 
-0.0324484 0.00629789 0.999454 -0.00261619 -0.0117173 0.999928 -0.0403893 0.0264352 0.998834 
-0.107354 0.0557868 0.992654 -0.207305 0.129869 0.969618 -0.308432 0.272499 0.91138 
0.741527 0.35996 0.566186 0.354469 0.164136 0.920549 0.158734 0.0307035 0.986844 
0.0190857 -0.0303858 0.999356 -0.0959664 -0.116296 0.988568 -0.128061 -0.0877927 0.987873 
-0.0705683 -6.53137e-05 0.997507 0.0109354 0.061996 0.998016 -0.0169291 -0.000593595 0.999857 
-0.0807444 -0.0748246 0.993922 -0.0982817 0.037061 0.994468 -0.147436 0.160257 0.976002 
-0.243649 0.285784 0.926802 0.5752 0.197706 0.793762 0.190724 0.112328 0.975196 
0.0280595 0.00346294 0.9996 -0.0765007 -0.0858451 0.993367 -0.103561 -0.151198 0.983064 
0.00538883 -0.0757335 0.997114 0.13199 0.123893 0.983478 -0.00708422 -0.0256022 0.999647 
-0.193605 0.103335 0.975622 -0.0604823 -0.00868862 0.998131 0.0248215 0.0474291 0.998566 
-0.084115 0.0999688 0.991429 -0.224357 0.133269 0.965351 0.489784 0.106563 0.865307 
0.124347 0.0881931 0.988312 -0.0277032 0.0619545 0.997694 -0.136377 0.0392645 0.989879 
-0.0886745 0.0356604 0.995422 0.144097 0.0415105 0.988693 -0.0709556 0.0873232 0.99365 
0.0216629 -0.0859111 0.996067 -0.00292711 -0.083822 0.996476 -0.1258 0.00421437 0.992047 
0.0120905 0.0110097 0.999866 -0.0570496 0.0175128 0.998218 -0.186324 0.031252 0.981991 
-0.326564 0.0585985 0.943357 0.49981 -0.0186938 0.865933 0.122376 0.0200273 0.992282 
-0.0202163 0.0577879 0.998124 -0.100654 0.0894673 0.990891 -0.0979454 0.103583 0.989787 
0.0415617 -0.00286378 0.999132 0.0648141 -0.139066 0.98816 -0.184614 0.0708847 0.980251 
-0.120349 -0.236184 0.964227 0.0441983 -0.0200934 0.998821 0.0373863 -0.0101993 0.999249 
-0.0641671 -0.0225361 0.997685 -0.177241 -0.0502711 0.982883 -0.334105 -0.112471 0.935801 
0.577382 -0.233568 0.782353 0.19178 -0.115078 0.974668 0.0376341 -0.0287318 0.998878 
-0.0907285 0.0618497 0.993953 -0.166319 0.0673607 0.983768 -0.0893543 0.0605784 0.994156 
0.0122432 -0.0634555 0.99791 -0.123408 -0.0694194 0.989925 -0.0421432 0.0691997 0.996712 
0.0818396 0.0715676 0.994073 0.00935975 -0.0104501 0.999902 -0.100584 -0.0798662 0.991718 
-0.275618 -0.165122 0.946979 0.354614 -0.246391 0.901965 0.146054 -0.125098 0.981335 
-0.00454038 -0.066754 0.997759 -0.0978699 0.0456653 0.994151 -0.093776 0.103569 0.990192 
-0.0845338 0.0671 0.994159 -0.0457206 0.033929 0.998378 0.00226154 0.184778 0.982778 
-0.0332194 0.0805659 0.996196 -0.112516 -0.00357432 0.993644 -0.21884 -0.167312 0.961309 
0.587834 -0.574145 0.56992 0.24188 -0.332733 0.911473 0.0834694 -0.228882 0.969869 
-0.00140529 -0.0806322 0.996743 -0.0581404 -0.0571127 0.996673 -0.0637594 -0.0207785 0.997749 
-0.00192622 0.00664312 0.999976 -0.00982574 -0.0052999 0.999938 -0.102424 -0.0341474 0.994155 
-0.242385 -0.132033 0.961154 -0.375653 -0.315329 0.871466 0.251889 -0.563596 0.78671 
0.0972502 -0.420399 0.902112 -0.0138755 -0.348125 0.937345 -0.0224927 -0.285698 0.958056 
-0.0219271 -0.230199 0.972896 -0.0428486 -0.29536 0.954425 -0.17834 -0.322508 0.929615 
-0.379218 -0.4485 0.809346 0.0719089 -0.750722 0.656693 -0.0133353 -0.686023 0.727458 
0.199162 0.623968 0.755645 0.0734005 0.626895 0.775638 -0.112086 0.636882 0.76277 
-0.228705 0.631314 0.741037 0.427175 0.707701 0.562744 0.277051 0.716585 0.640116 
0.460956 0.861942 0.21113 0.211756 0.633697 0.744035 0.20772 0.643576 0.736656 
0.262244 0.732841 0.627832 -0.236253 0.621246 0.747153 -0.247712 0.560246 0.79042 
-0.308231 0.792641 0.526037 -0.32542 0.479267 0.81511 0.452831 0.695523 0.557847 
0.603635 0.601384 0.523414 -0.347589 0.435142 0.830562 -0.349696 0.353825 0.867479 
-0.470989 0.626302 0.621221 0.633028 0.56603 0.528096 0.746224 0.369852 0.553498 
-0.344223 0.317616 0.883533 -0.278087 0.315886 0.90713 -0.447261 0.46027 0.766883 
-0.607703 0.61196 0.506165 0.749037 0.361402 0.555277 -0.297639 0.301834 0.905708 
-0.467077 0.360289 0.807484 0.710523 0.228765 0.66545 -0.359807 0.138382 0.922708 
-0.361302 0.113199 0.925552 -0.381305 0.1449 0.913023 -0.673079 0.241813 0.698921 
0.730908 0.111931 0.673235 -0.38547 0.0619773 0.920637 -0.675225 0.0731275 0.733977 
0.759591 -0.0604369 0.647586 0.995865 -0.081012 0.0411128 -0.383467 -0.12379 0.915221 
-0.383291 -0.162725 0.90918 -0.654701 -0.160906 0.738564 0.750804 -0.272774 0.60157 
0.725193 -0.397387 0.562298 -0.403514 -0.225287 0.886805 -0.354568 -0.294568 0.887419 
-0.474693 -0.266378 0.838874 -0.7216 -0.441777 0.533036 0.716503 -0.413227 0.562021 
0.755551 -0.442393 0.483147 -0.350346 -0.293826 0.889339 -0.367668 -0.310879 0.876456 
-0.594735 -0.478581 0.64595 0.628428 -0.598745 0.496571 0.608979 -0.623071 0.490843 
0.475708 -0.745533 0.466778 -0.401438 -0.342555 0.849414 -0.407803 -0.362496 0.838029 
-0.584929 -0.545685 0.600072 0.464228 -0.752143 0.467732 0.493469 -0.787858 0.368467 
0.317194 -0.79608 0.515407 0.185082 -0.841489 0.507583 0.10919 -0.796173 0.595135 
-0.132025 -0.702928 0.6989 -0.248325 -0.673591 0.696139 -0.446948 -0.495617 0.744715 
-0.404683 -0.561462 0.721798 -0.578203 -0.723889 0.376385 0.0839534 -0.774006 0.627588 
0.143037 -0.895063 0.422378 0.0740361 -0.760573 0.645018 -0.129465 -0.704229 0.698069 
-0.00928714 -0.727491 0.686055 -0.132266 -0.705774 0.69598 -0.294883 -0.879557 0.373394 
0.47437 0.864612 0.165586 0.349415 0.89752 0.26901 0.234289 0.937518 0.257233 
0.0555948 0.983733 0.17082 -0.156639 0.974184 0.162574 -0.289996 0.948566 0.126982 
-0.333821 0.928749 0.161209 0.482089 0.861563 0.159059 0.565683 0.82147 0.0720397 
0.52497 0.838351 -0.146882 -0.373328 0.910921 0.17564 -0.376569 0.909194 0.177657 
-0.481921 0.814868 0.322089 0.637918 0.770091 0.00456571 0.693134 0.720527 -0.02014 
-0.557542 0.739176 0.377843 -0.561932 0.722149 0.403401 -0.533704 0.845394 -0.0216595 
-0.617498 0.621084 0.48265 0.767428 0.639321 -0.0482001 0.832882 0.549681 -0.064487 
-0.624756 0.615494 0.480465 0.868498 0.492873 -0.0527907 0.782945 0.49302 -0.37938 
-0.689982 0.510588 0.513054 -0.711715 0.47705 0.51564 -0.744488 0.538251 0.394997 
0.941796 0.336143 0.00524166 -0.82577 0.237324 0.511645 0.991905 0.126979 2.8541e-05 
0.999036 0.0437711 0.00332074 -0.8142 0.067355 0.576664 0.996691 -0.0807086 0.00965293 
0.994885 -0.100632 0.00881284 0.996577 -0.0806308 -0.0182457 -0.838637 -0.172066 0.516798 
0.946455 -0.322308 0.0184439 -0.754572 -0.441806 0.485209 -0.737833 -0.468246 0.486157 
0.853223 -0.520681 0.0300406 0.793628 -0.608364 0.00689083 -0.693294 -0.55592 0.45858 
-0.666508 -0.613889 0.422974 0.715469 -0.698356 -0.0200791 0.644558 -0.763898 -0.0317069 
-0.651088 -0.663899 0.367862 -0.625443 -0.704105 0.33624 0.545034 -0.836841 -0.0513386 
0.501108 -0.863665 -0.0545217 0.492932 -0.814321 -0.30643 0.352824 -0.931602 -0.0873656 
0.235157 -0.968037 -0.0872142 -0.451454 -0.885798 0.10748 -0.581188 -0.772863 0.254762 
-0.566621 -0.791175 0.230181 0.22981 -0.969906 -0.0804331 0.201459 -0.978873 -0.0349639 
0.249289 -0.927485 -0.278614 0.161711 -0.985576 0.0499038 0.0354052 -0.995951 0.0826282 
-0.136953 -0.984764 0.107161 -0.373932 -0.922109 0.0994488 -0.304641 -0.947199 0.100042 
0.378182 0.909523 -0.17247 0.178344 0.962147 -0.206074 -0.00528146 0.95751 -0.288353 
-0.207926 0.913997 -0.348391 -0.280163 0.874718 -0.395445 -0.26296 0.891195 -0.369627 
0.642281 0.688026 -0.33778 0.526005 0.824167 -0.209921 0.529713 0.82144 -0.211285 
-0.185225 0.551333 -0.813464 -0.208517 0.704978 -0.677884 -0.287758 0.900411 -0.326274 
-0.23575 0.837031 -0.493761 -0.302452 0.901053 -0.310847 -0.390483 0.883052 -0.260272 
-0.500006 0.85054 -0.163018 0.659167 0.656407 -0.366919 0.695116 0.550793 -0.461997 
0.642191 0.610994 -0.462902 -0.293084 0.734434 -0.612135 -0.504364 0.848457 -0.160427 
-0.495923 0.846273 -0.194631 -0.61597 0.781918 -0.0958395 0.70134 0.525924 -0.481172 
0.683376 0.494561 -0.537035 -0.681746 0.7274 -0.0781756 -0.545796 0.683442 -0.484782 
-0.800246 0.596721 -0.0594213 0.721763 0.466711 -0.511115 0.742014 0.445185 -0.501223 
0.559417 0.351858 -0.750499 -0.833714 0.549298 -0.0565005 -0.760752 0.529979 -0.374671 
0.808061 0.324112 -0.491923 0.680441 0.327252 -0.655672 -0.94961 0.305253 -0.0711387 
0.861533 0.132889 -0.490001 0.662838 0.108755 -0.740822 -0.996929 0.0597599 -0.0506013 
0.876004 -0.0560597 -0.479035 0.681931 -0.0337094 -0.730639 -0.967878 -0.240322 -0.0738752 
0.858898 -0.284154 -0.426088 0.686829 -0.236219 -0.687362 -0.883756 -0.463007 -0.0678192 
-0.813902 -0.57729 -0.0655694 -0.722343 -0.379068 -0.578384 0.7306 -0.530199 -0.430248 
0.719629 -0.545322 -0.429835 0.713268 -0.52964 -0.459054 0.503839 -0.450578 -0.73697 
-0.756478 -0.64772 -0.0905527 -0.670116 -0.733295 -0.11499 -0.528575 -0.523115 -0.66855 
0.602335 -0.661338 -0.447018 0.579247 -0.679555 -0.450197 0.569221 -0.65083 -0.502401 
0.458101 -0.747841 -0.480496 0.382182 -0.595642 -0.706504 -0.63991 -0.758068 -0.125892 
-0.569693 -0.809238 -0.14347 -0.517497 -0.610197 -0.599881 0.407893 -0.772098 -0.487327 
0.295889 -0.801979 -0.518922 0.265609 -0.747775 -0.60851 0.233781 -0.821287 -0.520417 
0.218226 -0.698586 -0.681436 0.265362 -0.850672 -0.453806 0.224895 -0.596885 -0.770163 
-0.382998 -0.873593 -0.300247 -0.494821 -0.846019 -0.198505 -0.464254 -0.854611 -0.232611 
-0.433094 -0.828055 -0.356026 0.245927 -0.870194 -0.426945 0.208232 -0.892008 -0.4012 
0.213442 -0.839095 -0.500362 0.067511 -0.930054 -0.361167 0.0841007 -0.842628 -0.531888 
-0.116971 -0.939071 -0.323209 -0.103333 -0.848565 -0.518903 -0.314761 -0.896391 -0.312103 
-0.295957 -0.901294 -0.316351 -0.292411 -0.886694 -0.358147 0.276702 0.667548 -0.691242 
0.0577864 0.631518 -0.773205 -0.11736 0.578893 -0.806913 0.282809 0.666382 -0.689894 
0.483217 0.564052 -0.669587 0.274446 0.662872 -0.69662 0.04003 0.540534 -0.840369 
-0.154693 0.527906 -0.835096 -0.125748 0.524109 -0.842317 -0.166576 0.473966 -0.864643 
-0.144124 0.509473 -0.848331 -0.131348 0.555386 -0.821154 -0.187156 0.573628 -0.797448 
0.531282 0.479026 -0.698766 0.555208 0.374302 -0.742726 0.453496 0.41846 -0.786913 
0.121771 0.340228 -0.932425 -0.0704878 0.233645 -0.969764 -0.107512 0.18452 -0.976931 
-0.101647 0.256459 -0.961196 -0.0784805 0.365653 -0.927437 -0.106379 0.475976 -0.873001 
-0.195917 0.575191 -0.794212 -0.180904 0.551977 -0.813999 -0.221647 0.581956 -0.782432 
-0.298268 0.600522 -0.741896 0.551661 0.344618 -0.759545 0.5275 0.327263 -0.783992 
0.310226 0.162125 -0.936737 0.0612472 0.0633591 -0.99611 -0.136278 0.0351702 -0.990046 
-0.0988836 -0.0208773 -0.99488 0.00405382 0.0676919 -0.997698 0.0407228 0.176696 -0.983423 
-0.0190991 0.231873 -0.972559 -0.0779146 0.311284 -0.947118 -0.128771 0.436053 -0.890661 
-0.374045 0.589375 -0.716049 -0.263587 0.541393 -0.798383 -0.453152 0.556965 -0.69602 
0.491636 0.285636 -0.822622 0.464576 0.306178 -0.830918 0.384058 0.190908 -0.903357 
0.206666 0.08327 -0.974862 -0.00222105 -0.0452935 -0.998971 -0.166402 -0.061733 -0.984124 
-0.0806117 -0.0356626 -0.996107 0.10696 0.113893 -0.987719 0.101618 0.105815 -0.98918 
0.0395937 0.114909 -0.992587 0.0291609 0.193866 -0.980594 -0.0431107 0.258616 -0.965018 
-0.174435 0.277848 -0.944655 -0.562319 0.453796 -0.691279 -0.378366 0.39678 -0.836304 
-0.678465 0.251724 -0.690159 0.467062 0.300977 -0.831424 0.414934 0.28374 -0.864478 
0.270955 0.186016 -0.944448 0.0878247 0.105297 -0.990555 -0.0811402 0.00304791 -0.996698 
-0.120608 -0.035881 -0.992052 0.0778967 0.159736 -0.984082 0.136509 0.0986716 -0.985712 
0.0149299 0.198872 -0.979912 0.0730016 0.146647 -0.986492 0.0854148 0.108262 -0.990446 
-0.0178444 0.100343 -0.994793 -0.158717 0.125886 -0.979266 -0.316037 0.133753 -0.939272 
-0.697443 0.188216 -0.691483 -0.665941 0.184118 -0.722927 0.594763 0.119168 -0.795019 
0.397282 0.171803 -0.901471 0.213577 0.160308 -0.963684 0.0221524 0.132473 -0.990939 
-0.142737 0.0716233 -0.987166 -0.0168569 0.0984498 -0.994999 0.0442913 0.267824 -0.962449 
0.155425 0.0945057 -0.983317 -0.0635673 0.0628875 -0.995994 -0.0223658 -0.00487275 -0.999738 
-0.0171076 -0.0348807 -0.999245 -0.117074 -0.00115201 -0.993123 -0.270767 0.0335282 -0.962061 
-0.656246 0.0396529 -0.753504 -0.607911 0.0384334 -0.793075 0.619772 -0.0336423 -0.784061 
0.438309 -0.0140971 -0.898714 0.220889 0.0184909 -0.975124 -0.00574599 0.0244819 -0.999684 
-0.11893 0.056945 -0.991268 0.0830844 0.131541 -0.987823 0.0325181 0.186139 -0.981985 
-0.106222 -0.0342743 -0.993752 -0.00929493 -0.0216983 -0.999721 -0.0139828 -0.0289641 -0.999483 
-0.0966479 -0.0352458 -0.994694 -0.270217 -0.11943 -0.955363 -0.690056 -0.143572 -0.709373 
-0.679299 -0.272232 -0.681501 -0.660982 -0.136971 -0.737795 0.581649 -0.228197 -0.780776 
0.497091 -0.427326 -0.755177 0.450833 -0.219978 -0.865078 0.238342 -0.173803 -0.955503 
0.0601401 -0.135302 -0.988977 -0.0335126 -0.0402074 -0.998629 0.0599073 0.0145019 -0.998099 
-0.0482244 -0.0591803 -0.997082 -0.0216501 0.00669179 -0.999743 -0.0185128 -0.0139905 -0.999731 
-0.0313818 -0.0805529 -0.996256 -0.20737 -0.174364 -0.962598 -0.639936 -0.352445 -0.682835 
-0.51728 -0.51179 -0.685924 -0.383585 -0.302122 -0.872688 0.485729 -0.445996 -0.751768 
0.363251 -0.545116 -0.755577 0.302821 -0.397611 -0.866144 0.140814 -0.307504 -0.94107 
0.0378585 -0.228342 -0.972845 0.0377959 -0.137635 -0.989762 0.0683719 -0.164149 -0.984063 
0.0659063 -0.0887939 -0.993867 0.0102467 -0.0329838 -0.999403 -0.0587327 -0.0251071 -0.997958 
-0.0928564 -0.102514 -0.990388 -0.177665 -0.204867 -0.96253 -0.517513 -0.512173 -0.685463 
-0.490413 -0.561195 -0.666749 -0.329231 -0.35209 -0.87615 0.324155 -0.566583 -0.757567 
0.242813 -0.591022 -0.769243 0.229987 -0.526228 -0.818651 0.187002 -0.593035 -0.78316 
0.12902 -0.458262 -0.879403 0.223026 -0.590151 -0.775874 0.130892 -0.350658 -0.927312 
0.141556 -0.259199 -0.955394 0.0916231 -0.194347 -0.976645 0.0127188 -0.219093 -0.975621 
-0.0919972 -0.233945 -0.967888 -0.198583 -0.341301 -0.918737 -0.482588 -0.580281 -0.656035 
-0.355091 -0.668657 -0.653306 -0.300267 -0.482325 -0.822923 0.225119 -0.592854 -0.773204 
0.230587 -0.621179 -0.748977 0.225437 -0.541299 -0.810045 0.107154 -0.692551 -0.713366 
0.107035 -0.483402 -0.86883 -0.0840034 -0.701064 -0.708133 -0.0440628 -0.491418 -0.869808 
-0.227148 -0.704589 -0.672278 -0.186159 -0.5719 -0.798922 -0.323007 -0.693821 -0.643645 
-0.320563 -0.693545 -0.645163 -0.318303 -0.685926 -0.654362 0.122384 0.182874 -0.975489 
0.106969 0.149013 -0.983032 0.156029 0.160666 -0.974598 -0.0589487 0.0653335 -0.996121 
0.153775 0.174285 -0.972614 0.114075 0.127073 -0.985312 0.0670447 0.161003 -0.984674 
0.118642 0.127784 -0.98468 0.0189613 0.127209 -0.991695 -0.0105544 0.0695445 -0.997523 
-0.0723046 -0.0476603 -0.996243 -0.0391284 -0.0617009 -0.997327 -0.0238893 -0.0645924 -0.997626 
0.0909196 -0.085415 -0.992188 0.0917256 -0.113875 -0.989252 0.0964767 -0.104329 -0.989852 
-0.0469658 -0.0380137 -0.998173 -0.0192693 -0.0426924 -0.998902 -0.0472218 -0.0292066 -0.998457 

