# vtk DataFile Version 4.2
vtk output
ASCII
DATASET POLYDATA
POINTS 558 float
-54.9526 -21.4108 -19.4331 -46.3428 -21.4108 -22.155 -37.733 -21.4108 -21.9551 
-29.1232 -21.4108 -20.1917 -3.29385 -21.4108 -19.3932 5.31594 -21.4108 -20.6923 
13.9257 -21.4108 -19.3936 -54.9526 -12.801 -23.7758 -46.3428 -12.801 -25.7169 
-37.733 -12.801 -25.1183 -29.1232 -12.801 -23.1607 -20.5134 -12.801 -19.9549 
-3.29385 -12.801 -20.4771 5.31594 -12.801 -23.1338 13.9257 -12.801 -22.1267 
22.5355 -12.801 -19.6667 31.1453 -12.801 -18.3661 -54.9526 -4.19118 -24.4387 
-46.3428 -4.19118 -26.5096 -37.733 -4.19118 -26.5746 -29.1232 -4.19118 -24.7644 
-20.5134 -4.19118 -22.6577 -11.9036 -4.19118 -23.226 -3.29385 -4.19118 -23.9195 
5.31594 -4.19118 -22.6473 13.9257 -4.19118 -24.2182 22.5355 -4.19118 -22.367 
31.1453 -4.19118 -21.2329 39.7551 -4.19118 -19.531 -54.9526 4.41861 -23.9811 
-46.3428 4.41861 -26.4292 -37.733 4.41861 -26.6969 -29.1232 4.41861 -25.2444 
-20.5134 4.41861 -23.5472 -11.9036 4.41861 -25.0087 -3.29385 4.41861 -25.2276 
5.31594 4.41861 -23.5469 13.9257 4.41861 -25.0458 22.5355 4.41861 -24.4525 
31.1453 4.41861 -23.7656 39.7551 4.41861 -22.4259 48.3649 4.41861 -19.6167 
-54.9526 13.0284 -23.2035 -46.3428 13.0284 -26.5924 -37.733 13.0284 -26.6509 
-29.1232 13.0284 -25.5504 -20.5134 13.0284 -24.0687 -11.9036 13.0284 -24.0379 
-3.29385 13.0284 -25.0524 5.31594 13.0284 -24.7089 13.9257 13.0284 -25.1142 
22.5355 13.0284 -25.3266 31.1453 13.0284 -24.8887 39.7551 13.0284 -23.7627 
48.3649 13.0284 -21.0041 -54.9526 21.6382 -19.3393 -46.3428 21.6382 -24.5089 
-37.733 21.6382 -25.2536 -29.1232 21.6382 -26.4012 -20.5134 21.6382 -24.971 
-11.9036 21.6382 -23.8057 -3.29385 21.6382 -23.7869 5.31594 21.6382 -24.5481 
13.9257 21.6382 -25.3599 22.5355 21.6382 -25.7336 31.1453 21.6382 -25.2838 
39.7551 21.6382 -23.852 48.3649 21.6382 -20.6614 -46.3428 30.248 -20.4006 
-37.733 30.248 -23.1455 -29.1232 30.248 -23.4646 -20.5134 30.248 -22.9751 
-11.9036 30.248 -21.3874 -3.29385 30.248 -21.9365 5.31594 30.248 -23.2302 
13.9257 30.248 -24.4073 22.5355 30.248 -24.7103 31.1453 30.248 -23.2736 
39.7551 30.248 -21.2553 5.31594 38.8578 -18.5498 13.9257 38.8578 -19.9209 
22.5355 38.8578 -19.8918 -37.733 -38.6303 -11.4937 -29.1232 -38.6303 -13.2352 
-20.5134 -38.6303 -13.9733 -11.9036 -38.6303 -15.2724 -3.29385 -38.6303 -15.0935 
5.31594 -38.6303 -13.8099 13.9257 -38.6303 -12.5953 22.5355 -38.6303 -10.9319 
-54.9526 -22.7709 -18.3338 -54.9526 -30.0205 -9.90931 -46.3428 -27.5958 -18.3338 
-46.3428 -30.0205 -16.6414 -37.733 -28.4417 -18.3338 -37.733 -30.0205 -17.5391 
-29.1232 -26.2775 -18.3338 -29.1232 -30.0205 -16.9493 -20.5134 -30.0205 -16.367 
-11.9036 -30.0205 -17.2056 -3.29385 -28.955 -18.3338 -3.29385 -30.0205 -18.1891 
5.31594 -28.3408 -18.3338 5.31594 -30.0205 -17.7537 13.9257 -25.1702 -18.3338 
13.9257 -30.0205 -16.9059 22.5355 -30.0205 -15.4211 31.1453 -30.0205 -13.0713 
-56.1153 -21.4108 -18.3338 -22.9717 -21.4108 -18.3338 -20.5134 -18.6804 -18.3338 
-20.5134 -21.4108 -17.6076 -6.44604 -21.4108 -18.3338 -11.9036 -21.4108 -16.5491 
19.5087 -21.4108 -18.3338 22.5355 -18.8199 -18.3338 22.5355 -21.4108 -17.7817 
31.1453 -12.907 -18.3338 31.1453 -21.4108 -15.6487 39.7551 -21.4108 -12.8989 
-60.857 -12.801 -18.3338 -17.1145 -12.801 -18.3338 -7.06874 -12.801 -18.3338 
-11.9036 -9.22056 -18.3338 -11.9036 -12.801 -15.9024 31.2938 -12.801 -18.3338 
39.7551 -7.42378 -18.3338 39.7551 -12.801 -16.2913 48.3649 -12.801 -13.0995 
-61.9037 -4.19118 -18.3338 -63.5624 -4.19118 -10.1931 44.0202 -4.19118 -18.3338 
48.3649 0.0790633 -18.3338 48.3649 -4.19118 -17.0115 56.9747 -4.19118 -12.5405 
-61.0101 4.41861 -18.3338 50.6657 4.41861 -18.3338 56.9747 4.41861 -14.5461 
-59.392 13.0284 -18.3338 53.3163 13.0284 -18.3338 56.9747 13.0284 -15.861 
-55.7787 21.6382 -18.3338 -54.9526 23.0299 -18.3338 52.2034 21.6382 -18.3338 
48.3649 28.8982 -18.3338 56.9747 21.6382 -14.8317 -49.2342 30.248 -18.3338 
-46.3428 32.7562 -18.3338 -37.733 37.1295 -18.3338 -29.1232 37.7804 -18.3338 
-20.5134 36.8 -18.3338 -11.9036 35.3501 -18.3338 -3.29385 36.1693 -18.3338 
31.1453 38.5777 -18.3338 47.3493 30.248 -18.3338 39.7551 34.8439 -18.3338 
48.3649 30.248 -17.6665 -37.733 38.8578 -15.702 -29.1232 38.8578 -17.0167 
-20.5134 38.8578 -15.7567 -11.9036 38.8578 -14.3736 4.4677 38.8578 -18.3338 
-3.29385 38.8578 -14.928 5.31594 39.069 -18.3338 13.9257 40.3997 -18.3338 
30.1306 38.8578 -18.3338 22.5355 40.2983 -18.3338 31.1453 38.8578 -17.8591 
39.7551 38.8578 -11.2293 -37.733 -39.9468 -9.72402 -29.1232 -41.7406 -9.72402 
-20.5134 -43.3505 -9.72402 -11.9036 -44.3946 -9.72402 -3.29385 -44.1773 -9.72402 
5.31594 -43.0825 -9.72402 13.9257 -41.9981 -9.72402 22.5355 -40.1195 -9.72402 
-54.9526 -30.1616 -9.72402 -41.1082 -38.6303 -9.72402 -46.3428 -36.4857 -9.72402 
-46.3428 -38.6303 -1.36644 26.1334 -38.6303 -9.72402 31.1453 -35.8916 -9.72402 
31.1453 -38.6303 -7.50973 39.7551 -38.6303 -1.6671 -55.0809 -30.0205 -9.72402 
39.0405 -30.0205 -9.72402 39.7551 -29.2695 -9.72402 39.7551 -30.0205 -9.33266 
48.3649 -30.0205 -3.1229 -60.7382 -21.4108 -9.72402 47.155 -21.4108 -9.72402 
48.3649 -20.1669 -9.72402 48.3649 -21.4108 -9.11603 56.9747 -21.4108 -1.89518 
-63.3596 -12.801 -9.72402 -63.5624 -6.60115 -9.72402 53.8008 -12.801 -9.72402 
56.9747 -9.32905 -9.72402 56.9747 -12.801 -7.36646 -63.6405 -4.19118 -9.72402 
-63.5624 -3.37247 -9.72402 -63.5624 -4.19118 -9.30619 60.0297 -4.19118 -9.72402 
65.5845 -4.19118 -1.49977 -62.809 4.41861 -9.72402 62.0054 4.41861 -9.72402 
65.5845 4.41861 -3.81915 -61.5879 13.0284 -9.72402 62.575 13.0284 -9.72402 
65.5845 13.0284 -3.66381 -58.7552 21.6382 -9.72402 -54.9526 28.5374 -9.72402 
61.5922 21.6382 -9.72402 56.9747 27.8533 -9.72402 -53.8493 30.248 -9.72402 
-46.3428 37.3687 -9.72402 54.909 30.248 -9.72402 48.3649 35.4741 -9.72402 
56.9747 30.248 -4.88027 -43.2844 38.8578 -9.72402 -37.733 41.293 -9.72402 
-29.1232 42.8412 -9.72402 -20.5134 42.0631 -9.72402 -11.9036 41.1002 -9.72402 
-3.29385 41.3627 -9.72402 5.31594 42.7301 -9.72402 13.9257 43.7174 -9.72402 
22.5355 43.109 -9.72402 31.1453 41.6199 -9.72402 41.0657 38.8578 -9.72402 
39.7551 39.3807 -9.72402 -46.3428 -38.6918 -1.11423 -37.733 -42.5928 -1.11423 
-29.1232 -45.2163 -1.11423 -20.5134 -46.168 -1.11423 -11.9036 -46.6947 -1.11423 
-3.29385 -46.9446 -1.11423 5.31594 -47.1557 -1.11423 13.9257 -47.0988 -1.11423 
22.5355 -45.9967 -1.11423 31.1453 -43.3922 -1.11423 39.7551 -39.0548 -1.11423 
-46.4376 -38.6303 -1.11423 -54.9526 -31.0521 -1.11423 -46.3428 -38.6303 -0.930499 
40.5123 -38.6303 -1.11423 48.3649 -32.4536 -1.11423 -55.7767 -30.0205 -1.11423 
-54.9526 -30.0205 0.602768 50.9237 -30.0205 -1.11423 56.9747 -22.4092 -1.11423 
-59.4101 -21.4108 -1.11423 57.6797 -21.4108 -1.11423 -61.3966 -12.801 -1.11423 
63.3701 -12.801 -1.11423 65.5845 -5.23105 -1.11423 65.5845 -12.801 6.09769 
-61.8187 -4.19118 -1.11423 65.8191 -4.19118 -1.11423 -61.1101 4.41861 -1.11423 
67.0965 4.41861 -1.11423 -60.5151 13.0284 -1.11423 66.7131 13.0284 -1.11423 
65.5845 17.3333 -1.11423 -57.7435 21.6382 -1.11423 -54.9526 27.8301 -1.11423 
-54.9526 21.6382 7.39331 64.3182 21.6382 -1.11423 -53.6502 30.248 -1.11423 
-46.3428 37.8883 -1.11423 48.3649 36.37 -1.11423 58.2551 30.248 -1.11423 
56.9747 31.3923 -1.11423 56.9747 30.248 2.51338 -44.8783 38.8578 -1.11423 
-37.733 42.5024 -1.11423 -29.1232 44.2018 -1.11423 -20.5134 43.4636 -1.11423 
-11.9036 41.8464 -1.11423 -3.29385 40.7019 -1.11423 -3.29385 38.8578 4.31899 
5.31594 41.1031 -1.11423 5.31594 38.8578 4.58582 13.9257 41.8299 -1.11423 
13.9257 38.8578 6.24284 22.5355 41.7887 -1.11423 22.5355 38.8578 5.88045 
31.1453 40.8521 -1.11423 31.1453 38.8578 4.22398 40.6225 38.8578 -1.11423 
39.7551 39.1064 -1.11423 39.7551 38.8578 -0.475179 -37.733 -40.3292 7.49556 
-29.1232 -42.4243 7.49556 -20.5134 -43.4171 7.49556 -11.9036 -44.2062 7.49556 
-3.29385 -45.305 7.49556 5.31594 -46.1572 7.49556 13.9257 -46.5429 7.49556 
22.5355 -46.0901 7.49556 31.1453 -44.3302 7.49556 39.7551 -41.5089 7.49556 
-40.925 -38.6303 7.49556 -46.3428 -35 7.49556 -37.733 -38.6303 9.93471 
-29.1232 -38.6303 13.1219 -20.5134 -38.6303 14.39 45.4371 -38.6303 7.49556 
39.7551 -38.6303 16.0045 48.3649 -36.9089 7.49556 -51.1791 -30.0205 7.49556 
-54.9526 -22.4855 7.49556 -46.3428 -30.0205 12.7549 56.1721 -30.0205 7.49556 
56.9747 -29.057 7.49556 -55.4014 -21.4108 7.49556 -54.9526 -21.4108 8.16678 
62.2747 -21.4108 7.49556 65.5845 -13.6233 7.49556 -58.3202 -12.801 7.49556 
-54.9526 -12.801 12.1333 65.8933 -12.801 7.49556 65.5845 -12.801 8.46523 
-57.966 -4.19118 7.49556 -54.9526 -4.19118 12.6681 68.2797 -4.19118 7.49556 
65.5845 -4.19118 13.8289 -57.8188 4.41861 7.49556 -54.9526 4.41861 12.8798 
68.4469 4.41861 7.49556 65.5845 4.41861 13.8881 -57.4839 13.0284 7.49556 
-54.9526 21.5171 7.49556 -54.9526 13.0284 12.0139 66.6445 13.0284 7.49556 
65.5845 15.9891 7.49556 65.5845 13.0284 9.56421 -54.9177 21.6382 7.49556 
62.8248 21.6382 7.49556 56.9747 27.9301 7.49556 56.9747 21.6382 14.0329 
-50.8521 30.248 7.49556 -46.3428 35.5911 7.49556 -46.3428 30.248 14.3403 
-3.29385 37.682 7.49556 5.31594 37.6244 7.49556 13.9257 38.3036 7.49556 
22.5355 38.103 7.49556 31.1453 37.3702 7.49556 31.1453 30.248 15.491 
39.7551 35.5531 7.49556 39.7551 30.248 14.2123 53.2112 30.248 7.49556 
48.3649 32.8038 7.49556 48.3649 30.248 10.6706 -42.5113 38.8578 7.49556 
-37.733 41.6525 7.49556 -37.733 38.8578 12.918 -29.1232 43.3734 7.49556 
-20.5134 42.5847 7.49556 -20.5134 38.8578 15.4123 -7.39149 38.8578 7.49556 
-11.9036 40.1192 7.49556 -11.9036 38.8578 10.2364 -11.9036 -38.6451 16.1053 
-3.29385 -40.1514 16.1053 5.31594 -40.9182 16.1053 13.9257 -41.4299 16.1053 
22.5355 -41.7089 16.1053 31.1453 -40.8799 16.1053 -37.733 -32.1906 16.1053 
-29.1232 -35.744 16.1053 -11.9931 -38.6303 16.1053 -20.5134 -36.8766 16.1053 
-11.9036 -38.6303 16.1206 -3.29385 -38.6303 17.6201 5.31594 -38.6303 18.2423 
13.9257 -38.6303 18.6653 22.5355 -38.6303 18.8101 39.6242 -38.6303 16.1053 
31.1453 -38.6303 18.5037 39.7551 -38.5871 16.1053 48.3649 -34.0509 16.1053 
[...]
POINT_DATA 558
SCALARS ImageScalars float
LOOKUP_TABLE default
0 0 0 0 0 0 0 0 0 
0 0 0 0 0 0 0 0 0 
0 0 0 0 0 0 0 0 0 
0 0 0 0 0 0 0 0 0 
0 0 0 0 0 0 0 0 0 
0 0 0 0 0 0 0 0 0 
0 0 0 0 0 0 0 0 0 
0 0 0 0 0 0 0 0 0 
0 0 0 0 0 0 0 0 0 
0 0 0 0 0 0 0 0 0 
0 0 0 0 0 0 0 0 0 
0 0 0 0 0 0 0 0 0 
0 0 0 0 0 0 0 0 0 
0 0 0 0 0 0 0 0 0 
0 0 0 0 0 0 0 0 0 
0 0 0 0 0 0 0 0 0 
0 0 0 0 0 0 0 0 0 
0 0 0 0 0 0 0 0 0 
0 0 0 0 0 0 0 0 0 
0 0 0 0 0 0 0 0 0 
0 0 0 0 0 0 0 0 0 
0 0 0 0 0 0 0 0 0 
0 0 0 0 0 0 0 0 0 
0 0 0 0 0 0 0 0 0 
0 0 0 0 0 0 0 0 0 
0 0 0 0 0 0 0 0 0 
0 0 0 0 0 0 0 0 0 
0 0 0 0 0 0 0 0 0 
0 0 0 0 0 0 0 0 0 
0 0 0 0 0 0 0 0 0 
0 0 0 0 0 0 0 0 0 
0 0 0 0 0 0 0 0 0 
0 0 0 0 0 0 0 0 0 
0 0 0 0 0 0 0 0 0 
0 0 0 0 0 0 0 0 0 
0 0 0 0 0 0 0 0 0 
0 0 0 0 0 0 0 0 0 
0 0 0 0 0 0 0 0 0 
0 0 0 0 0 0 0 0 0 
0 0 0 0 0 0 0 0 0 
0 0 0 0 0 0 0 0 0 
0 0 0 0 0 0 0 0 0 
0 0 0 0 0 0 0 0 0 
0 0 0 0 0 0 0 0 0 
0 0 0 0 0 0 0 0 0 
0 0 0 0 0 0 0 0 0 
0 0 0 0 0 0 0 0 0 
0 0 0 0 0 0 0 0 0 
0 0 0 0 0 0 0 0 0 
0 0 0 0 0 0 0 0 0 
0 0 0 0 0 0 0 0 0 
0 0 0 0 0 0 0 0 0 
0 0 0 0 0 0 0 0 0 
0 0 0 0 0 0 0 0 0 
0 0 0 0 0 0 0 0 0 
0 0 0 0 0 0 0 0 0 
0 0 0 0 0 0 0 0 0 
0 0 0 0 0 0 0 0 0 
0 0 0 0 0 0 0 0 0 
0 0 0 0 0 0 0 0 0 
0 0 0 0 0 0 0 0 0 
0 0 0 0 0 0 0 0 0 

NORMALS Normals float
0.506963 0.493374 0.706803 0.103358 0.445369 0.889362 -0.105646 0.395136 0.912528 
-0.231469 0.330456 0.914998 0.235154 0.121584 0.964323 0.00196414 0.301499 0.953464 
-0.161098 0.280056 0.94637 0.464275 0.238812 0.852888 0.0496096 0.239966 0.969513 
-0.136702 0.251301 0.958207 -0.283256 0.254016 0.924793 -0.371737 0.279888 0.885141 
0.399893 0.260495 0.878765 0.0743521 0.109142 0.991242 -0.194617 0.270532 0.942834 
-0.205411 0.251985 0.94568 -0.175316 0.299665 0.937798 0.439327 0.00395264 0.898319 
0.116356 0.0366212 0.992532 -0.106173 0.0949417 0.989805 -0.223761 0.116203 0.967692 
-0.10465 0.206421 0.972851 0.0805615 0.485695 0.870408 -0.0504275 0.270583 0.961375 
0.0232942 0.0227769 0.999469 -0.0150339 0.162923 0.986524 -0.167794 0.270607 0.947954 
-0.152525 0.309058 0.938733 -0.216711 0.326322 0.920081 0.508801 -0.0591778 0.858848 
0.134868 0.00357585 0.990857 -0.0714321 0.00471139 0.997434 -0.182134 0.0458578 0.982204 
-0.0325173 0.0812878 0.99616 0.105817 0.0156739 0.994262 -0.0912068 0.064028 0.993771 
-0.00175477 0.121384 0.992604 0.0487631 0.0506406 0.997526 -0.0735366 0.164773 0.983586 
-0.112222 0.199843 0.97338 -0.219894 0.230774 0.947834 -0.394176 0.207381 0.895332 
0.581208 -0.210854 0.785963 0.132117 -0.10488 0.98567 -0.0614471 -0.0826156 0.994685 
-0.147085 0.0637207 0.987069 -0.0881203 0.080458 0.992855 0.058597 -0.0589572 0.996539 
0.0365372 -0.0821802 0.995948 0.00368958 0.0552059 0.998468 0.0360161 0.0182493 0.999185 
-0.0128387 0.0732512 0.997231 -0.0910049 0.0861315 0.992119 -0.211251 0.0772443 0.974375 
-0.405162 0.0544962 0.912619 0.718068 -0.404444 0.566395 0.249745 -0.319791 0.913981 
0.104575 -0.183135 0.97751 -0.0149701 -0.107729 0.994068 -0.144873 -0.0526078 0.988051 
-0.0672707 -0.138569 0.988065 0.042104 -0.176886 0.98333 0.0908367 -0.0810653 0.992561 
0.067593 -0.0411936 0.996862 -0.00358931 -0.0298112 0.999549 -0.105258 -0.0913476 0.990241 
-0.231502 -0.131294 0.963934 -0.441761 -0.153085 0.883975 0.412864 -0.553484 0.723325 
0.167628 -0.401045 0.900591 -0.0100301 -0.424806 0.905229 -0.113163 -0.409255 0.905375 
-0.0543916 -0.395245 0.916964 0.0990602 -0.365888 0.925372 0.144281 -0.299114 0.943246 
0.0792141 -0.264769 0.961053 -0.0630405 -0.27596 0.959099 -0.183243 -0.349655 0.918784 
-0.279623 -0.409418 0.86844 0.181229 -0.719938 0.669959 0.0676299 -0.709914 0.701033 
-0.0907175 -0.724746 0.683018 0.246748 0.780586 0.574283 0.113263 0.644098 0.756511 
0.104149 0.522992 0.845951 0.0621634 0.470782 0.880057 -0.0743685 0.538127 0.839576 
-0.125406 0.573791 0.809344 -0.141698 0.571682 0.808147 -0.223118 0.584049 0.780452 
0.515761 0.537279 0.667325 0.686163 0.663112 0.299104 0.184734 0.56139 0.806669 
0.246759 0.63516 0.731902 -0.0187894 0.445861 0.894905 0.00696723 0.467895 0.883757 
-0.138308 0.314846 0.939012 -0.064743 0.322093 0.944492 0.0146871 0.190983 0.981484 
0.105977 0.0578398 0.992685 0.0568398 0.203576 0.977408 0.0313685 0.216288 0.975826 
-0.0534828 0.339929 0.938929 -0.0692655 0.350842 0.93387 -0.146084 0.303596 0.941536 
-0.127015 0.348696 0.92859 -0.199833 0.35077 0.914892 -0.312988 0.379884 0.870475 
0.565205 0.496746 0.658625 -0.211496 0.236746 0.948272 -0.265953 0.224465 0.937488 
-0.202027 0.191778 0.96042 0.190371 0.047007 0.980586 0.101455 -0.0750111 0.992008 
-0.188543 0.245485 0.950888 -0.202405 0.235191 0.950641 -0.203796 0.2294 0.951758 
-0.176279 0.299339 0.937722 -0.261441 0.276683 0.924714 -0.33011 0.344589 0.878798 
0.788224 0.267065 0.554418 -0.249922 0.30536 0.918855 0.272944 0.296235 0.915285 
0.0411749 0.424375 0.90455 0.00724637 0.272593 0.962102 -0.176672 0.300493 0.937279 
-0.231855 0.335898 0.912916 -0.263652 0.351953 0.898118 -0.404563 0.383173 0.830366 
0.882885 -0.00363585 0.469576 0.999455 -0.0311228 0.0109626 -0.287068 0.325546 0.900895 
-0.382635 0.266298 0.88469 -0.363205 0.3262 0.87274 -0.568134 0.310761 0.762005 
0.873132 -0.119278 0.472667 -0.447588 0.204545 0.870532 -0.608637 0.159513 0.777249 
0.820722 -0.2824 0.496654 -0.522666 0.0433245 0.851436 -0.635953 0.0219214 0.771416 
0.755868 -0.405705 0.513875 0.737714 -0.427495 0.522519 -0.52421 -0.196479 0.828613 
-0.504062 -0.451476 0.736268 -0.668571 -0.283938 0.687308 0.5273 -0.57849 0.622338 
0.434966 -0.64285 0.630514 0.218913 -0.747352 0.62733 -0.0146584 -0.723194 0.690489 
-0.0854204 -0.694898 0.714016 -0.0280464 -0.626458 0.778951 0.121926 -0.644958 0.754429 
-0.22209 -0.751551 0.621166 -0.484722 -0.493918 0.721866 -0.348378 -0.629303 0.694702 
-0.518402 -0.518635 0.67991 0.247045 -0.846957 0.470779 -0.00813984 -0.78676 0.617205 
-0.0794544 -0.818387 0.569148 -0.0281308 -0.866393 0.49857 0.175761 -0.726502 0.664306 
0.115939 -0.86286 0.491966 0.181332 -0.729328 0.659696 0.0634716 -0.781176 0.621076 
-0.208332 -0.762348 0.612718 -0.0941155 -0.794992 0.599275 -0.223783 -0.779897 0.584536 
-0.328515 -0.919519 0.215783 0.256527 0.842325 0.474006 0.180781 0.794781 0.579345 
0.134067 0.798448 0.586947 0.0416188 0.852486 0.521091 -0.0626091 0.841985 0.535856 
-0.101567 0.767177 0.633344 -0.127249 0.696591 0.706094 -0.225002 0.634744 0.739239 
0.688558 0.66344 0.292805 0.308195 0.829793 0.465253 0.400378 0.808877 0.430598 
0.514511 0.857052 -0.0271959 -0.273473 0.603036 0.749373 -0.335921 0.544554 0.768517 
-0.357136 0.664216 0.656713 -0.4664 0.746543 0.474493 0.692537 0.660376 0.290337 
-0.422954 0.441325 0.791418 -0.424208 0.435646 0.793889 -0.435174 0.451291 0.779077 
-0.539512 0.565004 0.624258 0.909529 0.398514 0.118086 -0.399551 0.406764 0.821524 
-0.411705 0.411659 0.813041 -0.421717 0.422859 0.802088 -0.679365 0.472975 0.561032 
0.987491 0.156633 -0.0180865 0.999684 0.0211408 -0.0135773 -0.508329 0.387511 0.769049 
-0.575636 0.36239 0.733019 -0.593004 0.404785 0.696057 0.999449 -0.0314536 -0.0105642 
0.999186 -0.0391277 -0.00983392 0.999254 -0.0302732 -0.0239655 -0.673813 0.288792 0.680128 
-0.888907 0.169209 0.42569 0.993363 -0.11499 -0.00276726 -0.761597 0.119976 0.636849 
-0.907626 0.0709671 0.413737 0.972258 -0.230808 0.037967 -0.812106 -0.0179164 0.583235 
-0.946248 -0.103702 0.306367 0.91993 -0.38323 0.0828452 0.841202 -0.523216 0.136472 
-0.814156 -0.34038 0.470416 -0.714469 -0.557347 0.422963 0.804415 -0.573654 0.154394 
0.507386 -0.835142 0.212362 -0.672895 -0.6393 0.372167 -0.516896 -0.809066 0.279698 
-0.687102 -0.706341 0.170213 0.411317 -0.882568 0.227796 0.275319 -0.927723 0.252049 
0.0423027 -0.950177 0.308827 -0.0989671 -0.944805 0.312329 -0.0396885 -0.963424 0.265028 
0.0940754 -0.979947 0.175651 0.134396 -0.987458 0.082857 0.0216323 -0.998289 0.0543167 
-0.120159 -0.990804 0.0622062 -0.204798 -0.974046 0.0964002 -0.336972 -0.927529 0.161678 
-0.313046 -0.938565 0.145252 0.516196 0.85551 -0.04056 0.339319 0.940431 0.0212642 
0.197208 0.980315 0.00956127 0.0844987 0.996251 -0.0185581 0.0449158 0.99872 -0.0232407 
0.026526 0.998775 0.0417766 0.00917091 0.991774 0.127672 -0.0638462 0.980121 0.187845 
-0.195867 0.949783 0.244026 -0.348106 0.874571 0.337563 -0.465455 0.759941 0.453698 
0.518659 0.853971 -0.0415433 0.804424 0.571089 -0.163584 0.517779 0.854096 -0.0492431 
-0.476512 0.749773 0.459104 -0.553941 0.621175 0.554339 0.826776 0.537017 -0.167493 
0.810087 0.537861 -0.233375 -0.585231 0.580617 0.566028 -0.688072 0.487149 0.537813 
0.920171 0.285129 -0.268301 -0.697727 0.478375 0.53323 0.961282 0.117743 -0.249146 
-0.819392 0.33849 0.462625 -0.88963 0.18253 0.418618 -0.944498 0.327326 0.0279493 
0.950495 -0.0132213 -0.31046 -0.894122 0.167966 0.415131 0.958578 -0.0680436 -0.276584 
-0.943224 0.0468374 0.328838 0.959105 -0.184906 -0.214306 -0.969367 -0.145164 0.19813 
-0.948527 -0.284117 0.139909 0.922652 -0.328379 -0.202189 0.864457 -0.477479 -0.15725 
0.882712 -0.30164 -0.360322 -0.898496 -0.434253 0.0642636 0.821123 -0.55363 -0.138747 
0.594594 -0.801691 -0.061234 -0.428222 -0.896736 -0.11176 -0.684879 -0.728657 0.000110962 
-0.638341 -0.769586 -0.0160375 -0.619271 -0.762952 -0.185493 0.539285 -0.841292 -0.0374154 
0.315176 -0.948809 0.020633 0.0549398 -0.997973 0.0321253 -0.134374 -0.990497 0.0293289 
-0.159175 -0.985912 -0.0513926 -0.0434498 -0.978922 -0.199561 -0.101362 -0.941226 -0.322211 
0.0647331 -0.958295 -0.278353 0.0434119 -0.927446 -0.371428 0.0388916 -0.955835 -0.291319 
0.0287329 -0.908141 -0.417678 -0.0565864 -0.962151 -0.266577 -0.044382 -0.895302 -0.443244 
-0.146332 -0.964761 -0.218686 -0.139733 -0.911546 -0.386729 -0.259111 -0.946316 -0.193256 
-0.238136 -0.949983 -0.202049 -0.236244 -0.946433 -0.220121 0.339115 0.83906 -0.425417 
0.158388 0.885054 -0.437713 0.0943607 0.893119 -0.439811 0.10344 0.908951 -0.403866 
0.105062 0.937301 -0.332309 0.0678726 0.954672 -0.289818 -0.00631936 0.966169 -0.257832 
-0.12109 0.976654 -0.177437 -0.25087 0.959266 -0.129897 -0.390163 0.920176 -0.0323952 
0.420327 0.790425 -0.445593 0.56087 0.679269 -0.473307 0.346596 0.777496 -0.524758 
0.159243 0.762461 -0.627132 0.104468 0.733241 -0.671895 -0.498262 0.867026 9.7237e-05 
-0.312574 0.800528 -0.511324 -0.572949 0.81917 0.0262834 0.679743 0.537915 -0.498595 
0.818834 0.324888 -0.473242 0.53248 0.542844 -0.64945 -0.75156 0.658583 0.0377544 
-0.768711 0.638373 0.0395296 0.829644 0.300274 -0.470666 0.821114 0.300932 -0.484987 
-0.870786 0.488895 0.0520888 -0.939162 0.341022 -0.0409623 0.874123 0.124861 -0.469382 
0.782229 0.149304 -0.604835 -0.944529 0.325131 -0.0464138 -0.943853 0.316981 -0.09308 
0.899507 -0.0240214 -0.436246 0.835619 0.0243676 -0.548769 -0.987597 0.142447 -0.0660427 
-0.905282 0.103224 -0.412079 0.917666 -0.0246166 -0.396588 0.851349 -0.0188477 -0.524261 
-0.989001 -0.0861643 -0.120217 -0.889749 -0.129303 -0.437752 0.908507 -0.153662 -0.388591 
0.882527 -0.299249 -0.362761 0.845255 -0.145886 -0.514064 -0.934801 -0.268163 -0.232888 
-0.896266 -0.358631 -0.260942 -0.903681 -0.281895 -0.322327 0.881894 -0.301437 -0.36249 
-0.758914 -0.553877 -0.342446 -0.563513 -0.707862 -0.425893 -0.522 -0.5933 -0.61279 
0.766806 -0.52672 -0.366844 0.654989 -0.68123 -0.326978 0.637381 -0.50705 -0.580213 
-0.132551 -0.907912 -0.397651 0.032159 -0.90577 -0.422548 0.0260229 -0.895693 -0.44391 
-0.0456219 -0.870508 -0.490035 -0.131016 -0.851036 -0.5085 -0.128643 -0.635766 -0.761086 
-0.200495 -0.857087 -0.474556 -0.174143 -0.684544 -0.707866 -0.46347 -0.759867 -0.455848 
-0.366073 -0.799276 -0.476601 -0.344157 -0.748183 -0.567255 0.516588 -0.802786 -0.297777 
0.357383 -0.893593 -0.271605 0.366255 -0.780511 -0.506616 0.0513463 -0.964413 -0.259367 
-0.176947 -0.951733 -0.250789 -0.165809 -0.803871 -0.571225 -0.197217 -0.914152 -0.354163 
-0.264859 -0.914411 -0.30611 -0.269871 -0.885415 -0.378432 0.137746 0.704785 -0.69592 
0.10421 0.732666 -0.672563 0.0588366 0.727566 -0.68351 0.0353819 0.724071 -0.688817 
-0.0314099 0.741012 -0.670756 -0.150906 0.787376 -0.597718 0.335537 0.549168 -0.765395 
0.160782 0.638377 -0.752744 0.137408 0.70447 -0.696306 0.101574 0.654884 -0.748872 
0.137757 0.704274 -0.696435 0.097292 0.680867 -0.725917 0.0499452 0.647223 -0.760663 
0.0276073 0.617269 -0.786268 -0.00812755 0.620631 -0.784061 -0.308543 0.797412 -0.518589 
-0.117032 0.704156 -0.700334 -0.310806 0.796928 -0.517982 -0.514417 0.691296 -0.50743 
0.392941 0.509301 -0.765643 0.52351 0.394984 -0.754934 0.326902 0.496609 -0.804061 
0.143953 0.440618 -0.886078 0.0746162 0.407571 -0.91012 0.121011 0.351765 -0.928233 
0.0970558 0.335256 -0.937115 0.0104568 0.338622 -0.940864 0.00722889 0.298357 -0.954427 
0.0496968 0.294498 -0.954359 -0.0530852 0.326646 -0.943655 -0.197445 0.415977 -0.887682 
-0.620381 0.600922 -0.504005 -0.482599 0.545845 -0.684947 -0.689554 0.500606 -0.523362 
0.590315 0.316496 -0.742535 0.526485 0.321232 -0.787161 0.246534 0.297295 -0.922408 
0.0793929 0.24699 -0.96576 0.0338519 0.210107 -0.977092 0.0847252 0.157004 -0.983957 
0.0879889 0.0986946 -0.99122 -0.0171375 0.0677989 -0.997552 0.0306767 0.0344534 -0.998935 
-0.327251 0.205088 -0.922413 -0.748819 0.40933 -0.521267 -0.629088 0.393387 -0.670443 
0.673207 0.174984 -0.718451 0.511974 0.186172 -0.838584 0.214832 0.169785 -0.96178 
0.0499393 0.133062 -0.989849 -0.0112721 0.148446 -0.988856 0.0133768 0.207795 -0.978081 
0.0476759 0.0264717 -0.998512 -0.0695931 -0.00223768 -0.997573 0.0206027 -0.0658077 -0.99762 
0.0650142 -0.0330484 -0.997337 -0.203738 0.114021 -0.972363 -0.803076 0.211862 -0.556941 
-0.524806 0.182167 -0.831501 0.746879 0.0570844 -0.662506 0.513465 0.087285 -0.85366 
-0.0690519 0.0460877 -0.996548 0.00294787 0.0173334 -0.999845 0.0914367 0.00885547 -0.995772 
-0.810244 0.0794866 -0.580677 -0.424739 0.0427305 -0.904307 0.766873 -0.0178168 -0.641551 
0.504428 -0.0334279 -0.862807 0.0162105 -0.135956 -0.990582 -0.0160372 -0.0232892 -0.9996 
-0.171383 -0.12871 -0.976761 -0.78646 -0.134385 -0.602844 -0.381239 -0.13296 -0.914865 
0.727254 -0.141263 -0.671674 0.49948 -0.118766 -0.858146 0.211897 -0.0824822 -0.973805 
-0.206607 -0.104649 -0.972811 -0.099906 -0.0685715 -0.992631 0.0380881 -0.218641 -0.975062 
0.0516015 -0.198868 -0.978667 0.0258714 -0.230002 -0.972846 -0.0537695 -0.245811 -0.967825 
-0.211508 -0.274225 -0.938118 -0.664535 -0.320525 -0.675023 -0.497586 -0.51508 -0.697926 
-0.469166 -0.315471 -0.82484 0.697956 -0.298147 -0.651127 0.616758 -0.441561 -0.651639 
0.566696 -0.277509 -0.775786 0.256632 -0.195348 -0.946562 -0.111707 -0.253562 -0.960847 
-0.119755 -0.28448 -0.951173 -0.102545 -0.204513 -0.973478 -0.0844933 -0.232075 -0.969021 
-0.0337574 -0.331827 -0.942736 -0.118438 -0.610476 -0.78313 -0.00323195 -0.401198 -0.915986 
-0.151183 -0.612637 -0.775771 -0.091797 -0.458158 -0.884118 -0.409451 -0.568156 -0.713826 
-0.297628 -0.59481 -0.746739 -0.266917 -0.507973 -0.818974 0.574324 -0.485161 -0.659372 
0.36851 -0.646302 -0.668203 0.342014 -0.434803 -0.83305 0.116878 -0.401567 -0.908341 
-0.162266 -0.77737 -0.607755 -0.0619224 -0.438647 -0.896523 -0.258304 -0.751051 -0.60762 
-0.202882 -0.520183 -0.829607 -0.128913 -0.738387 -0.661941 -0.124556 -0.644082 -0.754748 
-0.00729671 -0.71817 -0.69583 -0.0236596 -0.616487 -0.787009 -0.0492974 -0.657808 -0.751571 
-0.069294 -0.550398 -0.832022 -0.128471 -0.605013 -0.785783 -0.123234 -0.596379 -0.793187 
-0.123047 -0.548644 -0.826952 0.110843 -0.762674 -0.637214 -0.0279425 -0.781185 -0.623675 
0.0733512 -0.770349 -0.63339 0.0742049 -0.760709 -0.644838 0.00327114 0.140539 -0.99007 
-0.00668728 0.155157 -0.987867 -0.135 0.180926 -0.974187 0.0583471 0.100397 -0.993235 
-0.011711 0.0780991 -0.996877 0.0021387 0.103349 -0.994643 0.030591 0.0342189 -0.998946 
0.0580765 -0.0218853 -0.998072 0.0247487 0.0295194 -0.999258 -0.15761 0.149924 -0.976054 
-0.124261 0.141147 -0.982159 0.190633 0.0885761 -0.977657 0.0495161 0.103586 -0.993387 
0.0153333 0.129573 -0.991451 0.00534766 0.208309 -0.978049 0.040071 0.0219055 -0.998957 
0.0224427 0.0250535 -0.999434 -0.0443831 -0.00801407 -0.998982 -0.0207955 -0.0154496 -0.999664 
0.044246 -0.0263698 -0.998673 -0.0907085 0.0392776 -0.995103 -0.0341875 0.00229266 -0.999413 
-0.162266 0.0197656 -0.986549 0.200067 0.0806841 -0.976454 0.187938 0.0804467 -0.978881 
0.0467694 0.0383608 -0.998169 0.109685 0.0665196 -0.991738 -0.0301492 0.195371 -0.980266 
-0.143882 0.0179911 -0.989431 -0.0295973 -0.0792911 -0.996412 -0.0249038 -0.0933071 -0.995326 
-0.0253077 -0.0927578 -0.995367 -0.0419853 0.00516749 -0.999105 0.0710949 0.00864982 -0.997432 
0.0666375 -0.0456323 -0.996733 0.0140288 0.00682866 -0.999878 -0.164618 0.0111516 -0.986294 
-0.160061 -0.00620194 -0.987088 -0.158739 0.0104496 -0.987265 0.197305 -0.0441802 -0.979346 
0.182356 -0.053946 -0.981752 0.171235 -0.0448836 -0.984207 0.0351038 -0.0145346 -0.999278 
0.150253 -0.0352706 -0.988018 -0.0202904 -0.0686734 -0.997433 -0.228368 -0.0530878 -0.972126 
-0.241684 -0.0676179 -0.967996 -0.267957 -0.0374362 -0.962703 0.0327756 -0.121573 -0.992041 
0.0159193 -0.0771206 -0.996895 0.0402923 -0.130494 -0.99063 0.0382711 -0.114899 -0.99264 
0.0500142 -0.0608637 -0.996892 0.0562772 -0.0722631 -0.995797 0.0576114 -0.0651639 -0.99621 
-0.099197 -0.109023 -0.989077 -0.0387991 -0.13652 -0.989877 -0.0320836 -0.0882062 -0.995585 
0.100755 -0.0325219 -0.99438 0.0576532 -0.0150381 -0.998223 0.0530056 -0.0286708 -0.998183 
-0.175362 -0.123026 -0.976787 -0.0939458 -0.236804 -0.967005 -0.0316922 -0.194022 -0.980485 
0.108943 -0.1584 -0.981346 0.0861294 -0.170493 -0.981587 0.0838867 -0.15178 -0.984848 
-0.0725253 -0.191063 -0.978895 -0.0351096 -0.17483 -0.983972 -0.0316713 -0.129592 -0.991062 

