# vtk DataFile Version 4.2
vtk output
ASCII
DATASET POLYDATA
POINTS 574 float
-40.4419 -7.69859 -22.9678 -40.4419 0.697971 -22.9159 -40.4419 9.09454 -23.4293 
-32.0453 -41.2849 -16.7926 -23.6488 -41.2849 -19.4794 -15.2522 -41.2849 -19.351 
-6.85562 -41.2849 -18.9986 1.54094 -41.2849 -18.0744 9.93751 -41.2849 -16.491 
18.3341 -41.2849 -15.5325 26.7306 -41.2849 -15.9309 -40.4419 -32.8883 -18.691 
-32.0453 -32.8883 -20.325 -23.6488 -32.8883 -21.3782 -15.2522 -32.8883 -20.9051 
-6.85562 -32.8883 -20.4702 1.54094 -32.8883 -19.4784 9.93751 -32.8883 -18.9055 
18.3341 -32.8883 -18.7522 26.7306 -32.8883 -18.5159 35.1272 -32.8883 -18.6712 
43.5238 -32.8883 -17.0048 -48.8384 -24.4917 -18.5908 -40.4419 -24.4917 -20.8499 
-32.0453 -24.4917 -22.2236 -23.6488 -24.4917 -21.4034 -15.2522 -24.4917 -20.6365 
-6.85562 -24.4917 -20.0408 1.54094 -24.4917 -19.2009 9.93751 -24.4917 -18.9003 
18.3341 -24.4917 -19.2008 26.7306 -24.4917 -20.2345 35.1272 -24.4917 -19.2582 
43.5238 -24.4917 -19.628 51.9203 -24.4917 -17.8509 -57.235 -16.0952 -16.3007 
-48.8384 -16.0952 -21.571 -40.4419 -12.3135 -22.8138 -40.4419 -16.0952 -22.6834 
-32.0453 -16.0952 -22.112 -23.6488 -16.0952 -21.0437 -15.2522 -16.0952 -19.5385 
-6.85562 -16.0952 -18.5473 1.54094 -16.0952 -18.079 9.93751 -16.0952 -18.3366 
18.3341 -16.0952 -18.2728 26.7306 -16.0952 -18.954 35.1272 -16.0952 -19.4513 
43.5238 -16.0952 -20.6134 51.9203 -16.0952 -17.9334 -57.235 -7.69859 -18.5599 
-41.6654 -7.69859 -22.8138 -48.8384 -7.69859 -21.951 -36.7134 -7.69859 -22.8138 
-32.0453 -7.69859 -22.6054 -23.6488 -7.69859 -20.6332 -15.2522 -7.69859 -18.7594 
-6.85562 -7.69859 -20.5907 1.54094 -7.69859 -18.0548 9.93751 -7.69859 -19.334 
18.3341 -7.69859 -16.7954 26.7306 -7.69859 -17.6553 35.1272 -7.69859 -18.4805 
43.5238 -7.69859 -19.3411 51.9203 -7.69859 -17.0406 60.3169 -7.69859 -14.9836 
-57.235 0.697971 -18.9977 -41.4281 0.697971 -22.8138 -48.8384 0.697971 -22.1012 
-38.5568 0.697971 -22.8138 -32.0453 0.697971 -22.4279 -23.6488 0.697971 -19.7751 
-15.2522 0.697971 -16.6448 -6.85562 0.697971 -20.3176 9.93751 0.697971 -20.9954 
18.3341 0.697971 -16.5885 26.7306 0.697971 -15.8591 35.1272 0.697971 -16.711 
43.5238 0.697971 -16.8955 51.9203 0.697971 -16.3771 -57.235 9.09454 -17.6631 
-43.0256 9.09454 -22.8138 -48.8384 9.09454 -21.5158 -37.2305 9.09454 -22.8138 
-40.4419 12.6398 -22.8138 -32.0453 9.09454 -21.8478 -23.6488 9.09454 -19.4706 
-15.2522 9.09454 -16.3024 -6.85562 9.09454 -17.2728 1.54094 9.09454 -16.5046 
9.93751 9.09454 -16.4548 35.1272 9.09454 -15.17 43.5238 9.09454 -14.5611 
-57.235 17.4911 -14.7551 -48.8384 17.4911 -20.3736 -40.4419 17.4911 -21.9668 
-32.0453 17.4911 -21.0549 -23.6488 17.4911 -19.4631 -15.2522 17.4911 -16.246 
-6.85562 17.4911 -14.7168 1.54094 17.4911 -14.4237 -48.8384 25.8877 -17.4616 
-40.4419 25.8877 -19.5677 -32.0453 25.8877 -19.2637 -23.6488 25.8877 -17.6379 
-40.4419 34.2842 -15.2301 -32.0453 34.2842 -15.0724 -32.0453 -43.7435 -14.4173 
-23.6488 -46.2781 -14.4173 -15.2522 -47.8199 -14.4173 -15.2522 -49.6814 -6.21135 
-6.85562 -47.3774 -14.4173 -6.85562 -49.6814 -6.436 1.54094 -46.3866 -14.4173 
9.93751 -44.1872 -14.4173 18.3341 -42.57 -14.4173 26.7306 -42.9728 -14.4173 
-36.301 -41.2849 -14.4173 -40.4419 -38.534 -14.4173 -40.4419 -41.2849 -6.40087 
34.3125 -41.2849 -14.4173 35.1272 -40.9351 -14.4173 35.1272 -41.2849 -13.908 
43.5238 -36.7964 -14.4173 43.5238 -41.2849 -6.12109 -47.023 -32.8883 -14.4173 
-48.8384 -31.0162 -14.4173 -48.8384 -32.8883 -11.0608 48.9774 -32.8883 -14.4173 
51.9203 -29.6315 -14.4173 51.9203 -32.8883 -9.78708 -54.7575 -24.4917 -14.4173 
-57.235 -20.1725 -14.4173 -57.235 -24.4917 -8.90636 58.4278 -24.4917 -14.4173 
60.3169 -24.4917 -11.0343 -59.402 -16.0952 -14.4173 58.3632 -16.0952 -14.4173 
60.3169 -10.1699 -14.4173 60.3169 -16.0952 -12.948 -62.0627 -7.69859 -14.4173 
1.54094 -1.50469 -14.4173 61.3356 -7.69859 -14.4173 60.3169 -6.00744 -14.4173 
68.7135 -7.69859 -6.78681 -62.492 0.697971 -14.4173 -65.6316 0.697971 -6.58812 
-0.497499 0.697971 -14.4173 3.24884 0.697971 -14.4173 1.54094 4.16923 -14.4173 
1.54094 0.697971 -13.0723 18.3341 6.87325 -14.4173 26.7306 8.18116 -14.4173 
56.4215 0.697971 -14.4173 51.9203 6.35963 -14.4173 60.3169 0.697971 -12.436 
-60.7839 9.09454 -14.4173 16.3388 9.09454 -14.4173 9.93751 12.0762 -14.4173 
18.3341 9.09454 -13.9376 28.3401 9.09454 -14.4173 26.7306 9.09454 -14.2403 
35.1272 11.7455 -14.4173 44.5401 9.09454 -14.4173 43.5238 9.66535 -14.4173 
51.9203 9.09454 -13.305 60.3169 9.09454 -10.2912 -57.5442 17.4911 -14.4173 
-57.235 18.2887 -14.4173 -15.2522 24.8143 -14.4173 -6.85562 18.2768 -14.4173 
1.55735 17.4911 -14.4173 1.54094 17.5049 -14.4173 9.93751 17.4911 -11.6302 
18.3341 17.4911 -12.1345 26.7306 17.4911 -12.9685 35.1272 17.4911 -12.7861 
43.5238 17.4911 -12.3275 51.9203 17.4911 -10.4381 60.3169 17.4911 -6.05623 
-53.3324 25.8877 -14.4173 -57.235 25.8877 -6.91305 -48.8384 30.7225 -14.4173 
-15.9735 25.8877 -14.4173 -23.6488 32.1147 -14.4173 -15.2522 25.8877 -14.1527 
-6.85562 25.8877 -11.8297 1.54094 25.8877 -10.9253 9.93751 25.8877 -9.84064 
18.3341 25.8877 -10.2827 26.7306 25.8877 -10.9941 35.1272 25.8877 -10.4003 
43.5238 25.8877 -10.1972 51.9203 25.8877 -6.06778 -42.685 34.2842 -14.4173 
-48.8384 34.2842 -10.4363 -40.4419 35.2518 -14.4173 -29.0704 34.2842 -14.4173 
-32.0453 35.0864 -14.4173 -23.6488 34.2842 -13.1031 -15.2522 34.2842 -9.80934 
-6.85562 34.2842 -7.44018 1.54094 34.2842 -6.9342 9.93751 34.2842 -6.33808 
18.3341 34.2842 -6.66919 26.7306 34.2842 -6.41366 35.1272 34.2842 -6.11822 
-15.2522 -49.713 -6.02069 -6.85562 -49.7664 -6.02069 -40.4419 -41.3985 -6.02069 
-32.0453 -46.0228 -6.02069 -15.517 -49.6814 -6.02069 -23.6488 -48.5567 -6.02069 
-15.2522 -49.6814 -5.93184 -5.81942 -49.6814 -6.02069 -6.85562 -49.6814 -5.84145 
1.54094 -49.0297 -6.02069 9.93751 -48.0937 -6.02069 18.3341 -47.3479 -6.02069 
26.7306 -46.1568 -6.02069 35.1272 -43.9449 -6.02069 43.5238 -41.3277 -6.02069 
-40.6024 -41.2849 -6.02069 -48.8384 -35.0625 -6.02069 -40.4419 -41.2849 -5.76007 
26.7306 -41.2849 2.09145 35.1272 -41.2849 -1.6359 43.6063 -41.2849 -6.02069 
43.5238 -41.2849 -5.90629 51.9203 -34.8918 -6.02069 -51.0002 -32.8883 -6.02069 
-57.235 -25.7506 -6.02069 -48.8384 -32.8883 -1.06804 53.7635 -32.8883 -6.02069 
51.9203 -32.8883 -3.62411 60.3169 -26.0881 -6.02069 -58.2187 -24.4917 -6.02069 
-57.235 -24.4917 -1.72006 61.6258 -24.4917 -6.02069 60.3169 -24.4917 -3.78348 
-63.0983 -16.0952 -6.02069 65.9587 -16.0952 -6.02069 68.7135 -8.67593 -6.02069 
-65.3569 -7.69859 -6.02069 -65.6316 -2.56219 -6.02069 69.0215 -7.69859 -6.02069 
68.7135 -0.332533 -6.02069 68.7135 -7.69859 -4.34179 -65.805 0.697971 -6.02069 
-65.6316 1.78204 -6.02069 -65.6316 0.697971 0.374397 68.6475 0.697971 -6.02069 
-64.4186 9.09454 -6.02069 65.1067 9.09454 -6.02069 -61.2708 17.4911 -6.02069 
60.3586 17.4911 -6.02069 60.3169 17.5561 -6.02069 -57.5383 25.8877 -6.02069 
-57.235 26.3559 -6.02069 -57.235 25.8877 -2.15159 43.5238 31.4092 -6.02069 
52.0111 25.8877 -6.02069 51.9203 25.9669 -6.02069 60.3169 25.8877 1.15572 
-51.5126 34.2842 -6.02069 -48.8384 36.8243 -6.02069 -40.4419 41.6336 -6.02069 
-32.0453 41.9974 -6.02069 -23.6488 40.8553 -6.02069 -15.2522 38.6803 -6.02069 
-6.85562 36.382 -6.02069 1.54094 35.7077 -6.02069 9.93751 34.7897 -6.02069 
18.3341 35.215 -6.02069 26.7306 34.8247 -6.02069 35.5024 34.2842 -6.02069 
35.1272 34.4138 -6.02069 43.5238 34.2842 -3.61723 51.9203 34.2842 1.12975 
-32.0453 42.6808 -3.48566 -23.6488 42.6808 -2.07455 -15.2522 42.6808 0.257012 
-6.85562 42.6808 0.0110435 1.54094 42.6808 -0.112878 9.93751 42.6808 0.424945 
18.3341 42.6808 1.16459 26.7306 42.6808 1.62801 -32.0453 -41.6197 2.37588 
-23.6488 -44.3112 2.37588 -15.2522 -45.4271 2.37588 -6.85562 -44.6097 2.37588 
1.54094 -44.5167 2.37588 9.93751 -44.2917 2.37588 18.3341 -42.9391 2.37588 
-32.6548 -41.2849 2.37588 -40.4419 -37.3839 2.37588 -32.0453 -41.2849 2.70042 
-23.6488 -41.2849 5.26545 -15.2522 -41.2849 6.33052 -6.85562 -41.2849 5.90875 
1.54094 -41.2849 5.80633 9.93751 -41.2849 5.01365 25.7564 -41.2849 2.37588 
18.3341 -41.2849 3.79579 26.7306 -41.0207 2.37588 35.1272 -38.446 2.37588 
43.5238 -35.2375 2.37588 -46.6779 -32.8883 2.37588 -48.8384 -31.1348 2.37588 
-40.4419 -32.8883 6.9569 -32.0453 -32.8883 10.1314 9.93751 -32.8883 9.91347 
18.3341 -32.8883 8.707 26.7306 -32.8883 7.4156 35.1272 -32.8883 6.75653 
45.7268 -32.8883 2.37588 43.5238 -32.8883 3.6225 51.9203 -28.4964 2.37588 
-55.9307 -24.4917 2.37588 -57.235 -22.8724 2.37588 -48.8384 -24.4917 8.66099 
35.1272 -24.4917 9.95708 43.5238 -24.4917 8.5611 56.1046 -24.4917 2.37588 
51.9203 -24.4917 5.47773 60.3169 -20.015 2.37588 -61.274 -16.0952 2.37588 
-57.235 -16.0952 8.03555 51.9203 -16.0952 10.0341 63.1818 -16.0952 2.37588 
60.3169 -16.0952 5.38194 -64.5842 -7.69859 2.37588 67.1412 -7.69859 2.37588 
60.3169 -7.69859 9.58121 -65.5755 0.697971 2.37588 68.4416 0.697971 2.37588 
-63.9082 9.09454 2.37588 68.5555 9.09454 2.37588 -60.5699 17.4911 2.37588 
-57.235 25.0823 2.37588 -57.235 17.4911 9.76377 66.0538 17.4911 2.37588 
-56.8291 25.8877 2.37588 61.0047 25.8877 2.37588 60.3169 26.8164 2.37588 
60.3169 25.8877 6.02551 -50.9653 34.2842 2.37588 -48.8384 36.5119 2.37588 
-48.8384 34.2842 7.10656 -40.4419 42.3162 2.37588 35.1272 42.6172 2.37588 
43.5238 39.3477 2.37588 52.9916 34.2842 2.37588 51.9203 35.0925 2.37588 
-38.9662 42.6808 2.37588 -32.0453 44.0981 2.37588 -32.0453 42.6808 7.648 
-23.6488 44.2144 2.37588 -15.2522 43.6469 2.37588 -6.85562 44.2812 2.37588 
1.54094 44.4937 2.37588 9.93751 44.3964 2.37588 18.3341 43.6943 2.37588 
34.3454 42.6808 2.37588 26.7306 43.1876 2.37588 35.1272 42.6808 2.79995 
-23.6488 -34.4677 10.7724 -15.2522 -34.9357 10.7724 -6.85562 -34.1179 10.7724 
1.54094 -33.0457 10.7724 -40.4419 -27.4885 10.7724 -29.125 -32.8883 10.7724 
-32.0453 -31.838 10.7724 -23.6488 -32.8883 11.8216 -15.2522 -32.8883 11.948 
-6.85562 -32.8883 11.4459 2.2956 -32.8883 10.7724 1.54094 -32.8883 10.8549 
9.93751 -30.6285 10.7724 18.3341 -27.3921 10.7724 26.7306 -25.7179 10.7724 
[...]
POINT_DATA 574
SCALARS ImageScalars float
LOOKUP_TABLE default
0 0 0 0 0 0 0 0 0 
0 0 0 0 0 0 0 0 0 
0 0 0 0 0 0 0 0 0 
0 0 0 0 0 0 0 0 0 
0 0 0 0 0 0 0 0 0 
0 0 0 0 0 0 0 0 0 
0 0 0 0 0 0 0 0 0 
0 0 0 0 0 0 0 0 0 
0 0 0 0 0 0 0 0 0 
0 0 0 0 0 0 0 0 0 
0 0 0 0 0 0 0 0 0 
0 0 0 0 0 0 0 0 0 
0 0 0 0 0 0 0 0 0 
0 0 0 0 0 0 0 0 0 
0 0 0 0 0 0 0 0 0 
0 0 0 0 0 0 0 0 0 
0 0 0 0 0 0 0 0 0 
0 0 0 0 0 0 0 0 0 
0 0 0 0 0 0 0 0 0 
0 0 0 0 0 0 0 0 0 
0 0 0 0 0 0 0 0 0 
0 0 0 0 0 0 0 0 0 
0 0 0 0 0 0 0 0 0 
0 0 0 0 0 0 0 0 0 
0 0 0 0 0 0 0 0 0 
0 0 0 0 0 0 0 0 0 
0 0 0 0 0 0 0 0 0 
0 0 0 0 0 0 0 0 0 
0 0 0 0 0 0 0 0 0 
0 0 0 0 0 0 0 0 0 
0 0 0 0 0 0 0 0 0 
0 0 0 0 0 0 0 0 0 
0 0 0 0 0 0 0 0 0 
0 0 0 0 0 0 0 0 0 
0 0 0 0 0 0 0 0 0 
0 0 0 0 0 0 0 0 0 
0 0 0 0 0 0 0 0 0 
0 0 0 0 0 0 0 0 0 
0 0 0 0 0 0 0 0 0 
0 0 0 0 0 0 0 0 0 
0 0 0 0 0 0 0 0 0 
0 0 0 0 0 0 0 0 0 
0 0 0 0 0 0 0 0 0 
0 0 0 0 0 0 0 0 0 
0 0 0 0 0 0 0 0 0 
0 0 0 0 0 0 0 0 0 
0 0 0 0 0 0 0 0 0 
0 0 0 0 0 0 0 0 0 
0 0 0 0 0 0 0 0 0 
0 0 0 0 0 0 0 0 0 
0 0 0 0 0 0 0 0 0 
0 0 0 0 0 0 0 0 0 
0 0 0 0 0 0 0 0 0 
0 0 0 0 0 0 0 0 0 
0 0 0 0 0 0 0 0 0 
0 0 0 0 0 0 0 0 0 
0 0 0 0 0 0 0 0 0 
0 0 0 0 0 0 0 0 0 
0 0 0 0 0 0 0 0 0 
0 0 0 0 0 0 0 0 0 
0 0 0 0 0 0 0 0 0 
0 0 0 0 0 0 0 0 0 
0 0 0 0 0 0 0 0 0 
0 0 0 0 0 0 0 
NORMALS Normals float
0.0419431 0.0132876 0.999032 0.0244469 0.0263844 0.999353 0.0222201 -0.0560198 0.998182 
0.36911 0.642753 0.671287 0.139444 0.509053 0.849365 -0.0280135 0.41471 0.909522 
-0.0842444 0.403942 0.910897 -0.157215 0.412691 0.897201 -0.149007 0.498551 0.853958 
-0.0363549 0.569079 0.821479 -0.0833773 0.61228 0.786233 0.379697 0.460406 0.802407 
0.146176 0.277779 0.949459 0.042176 0.089486 0.995095 -0.0523791 0.0737638 0.995899 
-0.083273 0.057137 0.994887 -0.0948539 0.0668207 0.993246 -0.0411544 0.135298 0.98995 
-0.023747 0.181566 0.983092 -0.00596999 0.249827 0.968272 -0.111485 0.318112 0.941476 
-0.286044 0.431653 0.855485 0.40081 0.420846 0.813781 0.194877 0.218298 0.956226 
0.0368744 0.11964 0.992132 -0.0921728 -0.0197354 0.995547 -0.0803569 -0.0804021 0.993518 
-0.086056 -0.11022 0.990175 -0.0677182 -0.0827955 0.994263 2.30628e-05 -0.0338869 0.999426 
0.077887 -0.0277746 0.996575 0.00402446 0.0244967 0.999692 -0.0382876 0.0408409 0.998432 
-0.057107 0.249586 0.966667 -0.36662 0.258298 0.893796 0.63562 0.295349 0.713271 
0.311711 0.183579 0.932274 0.0305357 0.0785434 0.996443 0.0218986 0.132648 0.990921 
-0.0956451 0.0207605 0.995199 -0.152209 -0.0436052 0.987386 -0.145674 -0.112733 0.982889 
-0.0886647 0.00496343 0.996049 -0.0111523 -0.0683625 0.997598 0.011637 0.0178465 0.999773 
0.036912 -0.142568 0.989097 0.0682393 -0.149524 0.9864 0.0926992 -0.0456364 0.994648 
-0.103069 -0.0246541 0.994369 -0.374673 -0.0472005 0.925955 0.559028 0.136082 0.817905 
0.069021 0.0139267 0.997518 0.228142 0.0277435 0.973233 -0.0338033 0.0170564 0.999283 
-0.132754 0.0202978 0.990941 -0.224967 -0.0706611 0.971801 -0.0185981 -0.165701 0.986001 
-0.0475167 0.119716 0.99167 -0.05369 -0.197869 0.978757 -0.0782729 0.145081 0.986319 
-0.0824396 -0.0950347 0.992055 0.0984303 -0.181271 0.978495 0.0972532 -0.159903 0.98233 
-0.0822239 -0.212837 0.973622 -0.220263 -0.0923633 0.971058 -0.387163 -0.0500527 0.920652 
0.550632 -0.0466327 0.833444 0.0454291 0.02001 0.998767 0.20111 -0.0255639 0.979235 
-0.018148 0.0101596 0.999784 -0.172911 -0.0453665 0.983892 -0.324276 -0.0654838 0.943693 
-0.0162261 -0.158477 0.987229 -0.0548523 -0.200869 0.978081 0.131317 -0.129556 0.982838 
-0.297132 -0.15719 0.941809 0.0240904 -0.198069 0.979892 0.0604288 -0.19287 0.979362 
-0.0220042 -0.27246 0.961916 -0.232366 -0.198504 0.952157 0.607677 -0.202197 0.768013 
0.106442 -0.0631731 0.99231 0.289514 -0.0926072 0.952683 -0.0747548 -0.0661229 0.995007 
0.0228917 -0.130199 0.991224 -0.223792 -0.0764157 0.971637 -0.317391 -0.0160556 0.948159 
-0.146141 -0.0239194 0.988975 0.018309 -0.281529 0.959378 -0.0449334 0.040431 0.998172 
-0.128407 -0.533571 0.835951 0.0182863 -0.231181 0.972739 -0.102431 -0.25479 0.961556 
0.719286 -0.312218 0.620603 0.33459 -0.223973 0.915361 0.0283366 -0.22568 0.973789 
-0.142562 -0.14559 0.97902 -0.26736 -0.088119 0.959559 -0.261874 -0.114038 0.958341 
-0.103152 -0.297906 0.949006 -0.188064 -0.322908 0.927557 0.402162 -0.406499 0.820381 
0.0898388 -0.354725 0.930645 -0.0992584 -0.303489 0.947651 -0.283338 -0.333768 0.899065 
0.140185 -0.620217 0.771802 -0.101264 -0.580292 0.808088 0.363845 0.776859 0.513914 
0.216975 0.817691 0.533201 0.0551994 0.845842 0.53057 0.066393 0.993888 -0.0882017 
-0.0703328 0.823015 0.563649 -0.0408503 0.992793 -0.112661 -0.15021 0.760101 0.632205 
-0.175141 0.663475 0.727411 -0.0525903 0.660218 0.74923 -0.0777985 0.723738 0.685676 
0.42131 0.73493 0.531391 0.476558 0.683518 0.552897 0.535856 0.843664 -0.0330089 
-0.285061 0.666224 0.689119 -0.299209 0.654399 0.694432 -0.311413 0.698457 0.644345 
-0.357799 0.635864 0.683854 -0.411313 0.910939 0.0317977 0.584452 0.577653 0.569854 
0.595225 0.557652 0.57856 0.669499 0.66341 0.334153 -0.479325 0.564398 0.672088 
-0.507511 0.527706 0.681145 -0.671731 0.713046 0.200855 0.695511 0.476657 0.537645 
0.713489 0.40675 0.570516 0.802918 0.566265 0.186189 -0.632083 0.312427 0.709126 
-0.812987 0.460535 0.356314 0.710256 0.336385 0.61837 -0.538283 0.0566881 0.840855 
-0.449768 -0.0112474 0.893075 -0.651128 0.136397 0.746611 0.792747 0.135134 0.594382 
0.0480909 -0.199436 0.97873 -0.430082 -0.0428837 0.901771 -0.404607 -0.0812436 0.910875 
-0.974736 0.138414 0.175302 0.812696 -0.0615673 0.579426 0.98498 -0.0546814 0.163783 
-0.0032814 -0.158747 0.987314 0.109261 -0.162445 0.98065 0.0187955 -0.0389529 0.999064 
0.0674872 -0.126281 0.989696 -0.152327 -0.232041 0.960705 0.070487 -0.173754 0.982263 
-0.361308 -0.202251 0.910248 -0.205747 -0.301702 0.930937 -0.501103 -0.221712 0.836504 
0.764456 -0.234977 0.600327 -0.125312 -0.3127 0.94155 -0.146562 -0.455613 0.87803 
-0.106892 -0.241437 0.964511 0.0619625 -0.182377 0.981274 0.0719128 -0.170646 0.982705 
0.00312478 -0.240886 0.970548 -0.112801 -0.266551 0.957197 -0.104866 -0.252427 0.961917 
-0.202057 -0.344026 0.916962 -0.482575 -0.33154 0.81068 0.730657 -0.318555 0.603873 
0.729537 -0.330065 0.599027 -0.294976 -0.296822 0.908232 -0.111977 -0.302026 0.9467 
-0.187928 -0.322956 0.927568 -0.187916 -0.323038 0.927542 -0.120929 -0.315075 0.941331 
0.0773984 -0.20996 0.974642 0.0383227 -0.182918 0.982381 -0.0351711 -0.26192 0.964448 
-0.136197 -0.234336 0.962568 -0.286721 -0.348959 0.892199 -0.575952 -0.395124 0.715651 
0.639875 -0.460135 0.615496 0.85024 -0.503039 0.155062 0.483159 -0.579281 0.656499 
-0.296714 -0.323891 0.898363 -0.272886 -0.484774 0.83098 -0.296775 -0.323783 0.898381 
-0.177417 -0.380489 0.907608 -0.109601 -0.39988 0.909991 -0.0344805 -0.293198 0.95543 
0.0632944 -0.30657 0.949741 0.00838021 -0.343857 0.938985 -0.0420774 -0.348665 0.936302 
-0.199456 -0.410305 0.889869 -0.406584 -0.493991 0.768545 0.237019 -0.651585 0.720596 
0.569515 -0.708727 0.416364 0.153483 -0.650371 0.743949 -0.160774 -0.567136 0.80778 
-0.0947785 -0.604695 0.790798 -0.260127 -0.560093 0.78653 -0.256236 -0.571318 0.779705 
-0.141883 -0.521357 0.841461 -0.056559 -0.499451 0.864494 -0.01355 -0.478898 0.877766 
0.00499135 -0.521256 0.853386 -0.0282904 -0.55834 0.82913 -0.124919 -0.562416 0.817364 
0.0663355 0.992737 -0.100368 -0.0393339 0.989418 -0.13966 0.534777 0.842993 -0.0581012 
0.375158 0.924344 -0.0696029 0.0701736 0.992543 -0.0996698 0.193928 0.977635 -0.0813684 
0.0656473 0.99228 -0.105218 -0.0466751 0.989363 -0.137773 -0.0403912 0.987855 -0.150034 
-0.0966692 0.98846 -0.116626 -0.100267 0.994961 0.000348172 -0.109633 0.993898 0.0121376 
-0.204655 0.978103 -0.0378387 -0.270124 0.956587 -0.10943 -0.410754 0.911395 0.0253026 
0.537073 0.841552 -0.0578125 0.676732 0.736144 -0.0112534 0.532987 0.842989 -0.072757 
-0.217205 0.673 -0.707031 -0.228406 0.893337 -0.387014 -0.413014 0.910376 0.0251807 
-0.410627 0.911648 0.0168291 -0.664381 0.742654 -0.0840435 0.71003 0.704168 0.00231898 
0.796439 0.603188 0.0429949 0.637792 0.709403 -0.299949 -0.701934 0.707938 -0.0781809 
-0.639777 0.730435 -0.239061 -0.794788 0.597417 -0.10679 0.810229 0.584462 0.0439658 
0.790168 0.58751 -0.174548 -0.81285 0.573898 -0.0995802 -0.776304 0.585637 -0.233196 
0.918661 0.389683 0.064879 -0.919357 0.376575 0.113899 -0.978433 0.173028 0.112831 
0.984331 0.144177 0.101515 0.991964 0.0236156 0.124296 -0.981802 0.148017 0.118978 
-0.935499 -0.128994 0.32894 -0.98391 0.177458 0.0207331 0.988647 -0.0538472 0.14028 
0.987145 -0.0808633 0.13786 0.989675 -0.0437088 -0.136504 -0.917448 -0.170495 0.359472 
0.957133 -0.256905 0.13378 -0.714545 -0.379862 0.587479 0.917859 -0.373933 0.133074 
-0.577435 -0.394988 0.71453 -0.576257 -0.395876 0.714989 0.856588 -0.502674 0.116518 
0.852576 -0.509514 0.116234 0.860151 -0.507853 -0.0471748 -0.238448 -0.571729 0.785028 
-0.407956 -0.495505 0.766842 -0.406858 -0.49702 0.766445 -0.746098 -0.621786 0.23816 
0.702165 -0.686994 0.187093 0.602517 -0.769659 0.211185 0.2645 -0.911801 0.314101 
-0.0346844 -0.917437 0.396365 -0.157304 -0.850005 0.502739 -0.181422 -0.719611 0.670259 
-0.119789 -0.579767 0.805928 -0.053555 -0.524662 0.849624 -0.0151204 -0.489115 0.872088 
0.000107812 -0.544661 0.838656 -0.029966 -0.567948 0.822519 -0.130516 -0.566498 0.813662 
-0.125623 -0.566033 0.814755 -0.274802 -0.698012 0.661259 -0.550127 -0.773912 0.313722 
0.0123482 -0.964538 0.263655 -0.0852559 -0.952393 0.29271 -0.0418 -0.93457 0.353317 
0.0125955 -0.875042 0.483882 -0.0190228 -0.806675 0.590689 -0.0555303 -0.783495 0.618912 
-0.0525387 -0.823877 0.564329 -0.0500162 -0.881471 0.469582 0.318826 0.737737 -0.595058 
0.159011 0.784921 -0.598845 0.00958546 0.789098 -0.614193 -0.0397516 0.763856 -0.644162 
-0.014199 0.78404 -0.620548 -0.0733976 0.758541 -0.647478 -0.136222 0.710484 -0.690403 
0.325815 0.735586 -0.593935 0.422079 0.724805 -0.544524 0.316832 0.730215 -0.605313 
0.156657 0.70441 -0.69229 0.0298213 0.661433 -0.749412 -0.0237378 0.67445 -0.737939 
-0.0436184 0.657827 -0.751905 -0.103077 0.631879 -0.768182 -0.20614 0.6592 -0.723161 
-0.14229 0.646524 -0.749506 -0.211093 0.652816 -0.72751 -0.18772 0.70228 -0.686705 
-0.40546 0.548495 -0.73127 0.53104 0.66968 -0.519157 0.562096 0.655712 -0.504073 
0.386666 0.622579 -0.680356 0.226394 0.550599 -0.803484 -0.118337 0.407928 -0.905313 
-0.135055 0.413991 -0.900206 -0.109594 0.456206 -0.8831 -0.192691 0.447813 -0.873117 
-0.446871 0.520577 -0.727534 -0.409496 0.475412 -0.77865 -0.456451 0.587005 -0.668639 
0.71436 0.567999 -0.408738 0.746187 0.539102 -0.390608 0.45018 0.558405 -0.696794 
-0.141376 0.385268 -0.911911 -0.244062 0.459237 -0.854128 -0.548308 0.536978 -0.641103 
-0.405034 0.488848 -0.772642 -0.640957 0.526182 -0.558843 0.823057 0.452875 -0.342757 
0.640467 0.456355 -0.617691 -0.350563 0.443153 -0.825059 -0.715481 0.472741 -0.514396 
-0.584179 0.471631 -0.66053 0.936294 0.21789 -0.275457 -0.861162 0.290298 -0.417286 
-0.53906 0.383248 -0.750023 0.974355 -0.0398404 -0.221462 -0.96308 0.0702819 -0.25988 
0.938999 -0.271799 -0.210727 -0.988402 -0.140488 -0.0576647 0.894243 -0.387331 -0.224286 
0.841797 -0.484074 -0.238851 0.77512 -0.368516 -0.513211 -0.919878 -0.389725 0.0440264 
0.83445 -0.49529 -0.24162 -0.769597 -0.619236 0.155776 -0.757177 -0.632611 0.162744 
-0.799826 -0.591209 -0.103686 0.734714 -0.644375 -0.212076 0.670924 -0.713293 -0.202665 
0.656327 -0.625421 -0.422 0.386531 -0.9078 -0.162765 -0.205119 -0.90305 0.377394 
-0.36691 -0.867831 0.335033 -0.58288 -0.770358 0.258456 -0.554757 -0.787771 0.267698 
0.336636 -0.932012 -0.134272 0.111269 -0.993665 -0.0157597 0.193389 -0.936327 -0.293073 
-0.026211 -0.994416 0.102227 -0.00138205 -0.966793 0.255556 0.0534713 -0.926497 0.372483 
0.0065221 -0.88807 0.459663 -0.0429788 -0.849272 0.526204 -0.0675923 -0.856467 0.511757 
-0.190938 -0.903906 0.382749 -0.0572921 -0.901796 0.428348 -0.210342 -0.914491 0.345634 
0.0984003 0.532721 -0.840551 -0.00752994 0.498727 -0.866727 -0.0560475 0.463359 -0.884397 
-0.0812681 0.42372 -0.90214 0.307029 0.513772 -0.801107 0.174186 0.533105 -0.827924 
0.217719 0.527388 -0.821255 0.0858782 0.502814 -0.860118 -0.0203371 0.459337 -0.888029 
-0.0592986 0.43307 -0.899408 -0.0850353 0.419178 -0.903913 -0.0817518 0.420716 -0.903501 
-0.120729 0.384573 -0.915166 -0.106777 0.365855 -0.924527 -0.107458 0.390839 -0.914165 
0.351021 0.508795 -0.786074 0.417274 0.504191 -0.756091 0.279673 0.474989 -0.834367 
0.170828 0.381793 -0.908323 0.043538 0.328885 -0.943366 -0.0675717 0.315395 -0.946552 
-0.08975 0.247399 -0.964748 -0.0895176 0.275513 -0.95712 -0.119941 0.361337 -0.924689 
-0.0916476 0.353208 -0.931045 -0.118241 0.384017 -0.915724 -0.103555 0.383769 -0.917604 
-0.133694 0.397909 -0.907631 -0.207488 0.416994 -0.88491 0.512476 0.444975 -0.734415 
0.607405 0.364568 -0.705796 0.395525 0.431469 -0.810799 0.155044 0.368811 -0.916482 
0.0494799 0.266879 -0.962459 0.0134516 0.19027 -0.98164 -0.0941852 0.206536 -0.973895 
-0.105191 0.336225 -0.935889 0.0420603 0.357982 -0.932781 -0.00803341 0.457574 -0.889135 
-0.111227 0.482312 -0.86891 -0.0975607 0.446793 -0.889302 -0.126035 0.445676 -0.886278 
-0.295225 0.42826 -0.85407 -0.189861 0.406112 -0.893882 -0.342676 0.427949 -0.836321 
0.699411 0.267624 -0.662723 0.601322 0.299802 -0.740629 0.321893 0.268429 -0.907927 
-0.0171525 0.129018 -0.991494 0.10416 0.0629556 -0.992566 -0.160259 0.416846 -0.894738 
-0.227613 0.402793 -0.886538 -0.466217 0.381778 -0.798052 -0.334294 0.371979 -0.865956 
-0.530134 0.34755 -0.773413 0.784588 0.0276226 -0.619402 0.619877 0.0529616 -0.78291 
0.127698 0.112846 -0.985372 -0.36301 0.265593 -0.893132 -0.638613 0.246737 -0.728899 
-0.544342 0.257967 -0.798213 0.784936 -0.226719 -0.576606 0.755411 -0.342558 -0.558577 
0.685655 -0.216982 -0.694835 -0.344155 0.106811 -0.932818 -0.806436 -0.0149414 -0.591133 
-0.56018 0.0324588 -0.827735 0.74412 -0.362572 -0.561095 0.463045 -0.283518 -0.839766 
-0.417622 -0.0382684 -0.907815 -0.796982 -0.267087 -0.541742 -0.764981 -0.427583 -0.481639 
-0.704903 -0.241818 -0.66681 0.670098 -0.436707 -0.600213 0.618494 -0.506191 -0.601029 
0.595902 -0.405466 -0.69318 0.327242 -0.27995 -0.902519 -0.75008 -0.489626 -0.444575 
-0.525176 -0.304051 -0.794823 0.534351 -0.598865 -0.596515 0.434123 -0.680797 -0.589961 
0.422087 -0.582048 -0.695027 0.247399 -0.840497 -0.482036 0.226722 -0.473185 -0.851289 
0.140676 -0.445436 -0.884193 -0.452908 -0.849864 -0.269455 -0.403288 -0.574175 -0.712517 
-0.645846 -0.684693 -0.337754 -0.633094 -0.698466 -0.333673 -0.626581 -0.682057 -0.377086 
0.170223 -0.895154 -0.411975 0.143082 -0.909391 -0.390558 0.145464 -0.897112 -0.417169 
0.126382 -0.959142 -0.253128 0.139948 -0.884331 -0.445392 0.162832 -0.96211 -0.218699 
0.162008 -0.851213 -0.499188 0.099819 -0.986136 -0.132557 0.168696 -0.747085 -0.642967 
-0.045709 -0.995472 -0.0833387 -0.122148 -0.986784 -0.106478 -0.179932 -0.743792 -0.643738 
-0.158277 -0.974833 -0.157001 -0.204953 -0.880952 -0.426518 -0.311385 -0.917205 -0.248543 
-0.255862 -0.932487 -0.254958 -0.256795 -0.902994 -0.344469 0.100996 0.251696 -0.962522 
-0.0206852 0.211935 -0.977065 0.0208074 0.375143 -0.926734 0.0181433 0.372071 -0.928027 
-0.00344853 0.362737 -0.931885 -0.0841307 0.410293 -0.908065 -0.119515 0.424779 -0.897373 
0.130365 0.241716 -0.96155 0.299435 0.14115 -0.943618 0.095765 0.238132 -0.9665 
-0.0232054 0.165969 -0.985858 -0.0302104 0.204144 -0.978475 -0.0408384 0.130104 -0.990659 
0.104412 0.0724327 -0.991893 0.0895666 0.358782 -0.929114 -0.00480323 0.341106 -0.940013 
-0.0126016 0.280867 -0.959664 -0.0693515 0.363891 -0.928856 -0.131472 0.418319 -0.898735 
-0.119025 0.418366 -0.900446 -0.160988 0.374744 -0.913044 -0.242995 0.291517 -0.925187 
0.332323 0.0989732 -0.937958 0.29866 0.105333 -0.948529 0.0729343 0.105676 -0.991722 
-0.0696843 0.123318 -0.989918 0.0530969 0.119503 -0.991413 -0.129378 0.12895 -0.983175 
0.133919 0.117238 -0.984033 0.127041 0.137012 -0.982389 0.16879 0.127057 -0.977429 
0.0043938 0.163808 -0.986482 0.0445596 0.187837 -0.981189 0.00926902 0.188855 -0.981961 
-0.0604344 0.227872 -0.971814 -0.153373 0.267513 -0.951269 -0.269045 0.266127 -0.92563 
-0.24595 0.268013 -0.931492 0.368414 -0.138457 -0.919293 0.361926 -0.149948 -0.920068 
0.351498 -0.133402 -0.926635 0.116704 -0.062521 -0.991197 -0.0105625 0.0214289 -0.999715 
-0.025399 0.1274 -0.991526 0.121801 0.251084 -0.960272 0.128269 0.0930242 -0.987367 
0.0488289 0.10958 -0.992778 0.0126656 0.0901738 -0.995845 -0.0194953 0.0714487 -0.997254 
-0.0366752 0.0686957 -0.996963 -0.121955 0.0985803 -0.987628 -0.330646 0.105719 -0.937815 
-0.232735 0.103331 -0.967035 0.297273 -0.19876 -0.933875 0.272578 -0.21544 -0.937703 
0.224955 -0.167179 -0.95992 0.115217 -0.0595514 -0.991554 0.0978464 0.0427158 -0.994284 
0.0957856 0.0686055 -0.993035 0.0369846 -0.0051925 -0.999302 0.00573544 -0.00709943 -0.999958 
0.00723081 -0.0167731 -0.999833 -0.0129784 -0.0146464 -0.999808 -0.0330566 -0.0282557 -0.999054 
-0.11776 -0.0328065 -0.9925 -0.397173 -0.0313152 -0.91721 -0.227595 -0.0256052 -0.973419 
0.266402 -0.240782 -0.933303 0.202809 -0.317958 -0.926159 0.200576 -0.207194 -0.957518 
0.139305 -0.430162 -0.891939 0.109515 -0.167974 -0.979689 0.07284 -0.161789 -0.984133 
0.0499815 -0.151034 -0.987264 0.0369844 -0.0748937 -0.996505 0.00511026 -0.077115 -0.997009 
-0.0322216 -0.111915 -0.993195 -0.0564803 -0.134171 -0.989347 -0.12745 -0.184244 -0.974582 
-0.422655 -0.265143 -0.866638 -0.29593 -0.378314 -0.8771 -0.239779 -0.237945 -0.941216 
0.136903 -0.436462 -0.889246 0.120188 -0.455321 -0.882178 0.106872 -0.386434 -0.916104 
0.121671 -0.49949 -0.857733 0.113366 -0.350738 -0.929587 0.148512 -0.556808 -0.817257 
0.0832926 -0.287939 -0.954019 -0.0260423 -0.235515 -0.971522 -0.161398 -0.584067 -0.795497 
-0.0685865 -0.278693 -0.957928 -0.156948 -0.521292 -0.838822 -0.097412 -0.352364 -0.930779 
-0.266191 -0.455074 -0.849735 -0.223886 -0.488857 -0.843145 -0.215816 -0.42 -0.881489 
0.0657132 -0.657938 -0.7502 -0.0449896 -0.662475 -0.747731 0.0270708 -0.675949 -0.736451 
0.0265386 -0.646055 -0.762829 
