# vtk DataFile Version 4.2
vtk output
ASCII
DATASET POLYDATA
POINTS 594 float
-40.1609 -31.886 -15.3213 -31.7731 -31.886 -15.0935 -23.3854 -31.886 -14.8766 
18.5532 -31.886 -15.4079 26.9409 -31.886 -16.8018 35.3286 -31.886 -17.3353 
43.7163 -31.886 -17.419 52.1041 -31.886 -15.5904 -48.5486 -23.4983 -17.3393 
-40.1609 -23.4983 -17.7065 -31.7731 -23.4983 -17.9695 -23.3854 -23.4983 -18.0166 
-14.9977 -23.4983 -16.5749 -6.60998 -23.4983 -15.7589 1.77774 -23.4983 -16.4252 
10.1655 -23.4983 -17.5763 18.5532 -23.4983 -18.4226 26.9409 -23.4983 -20.1187 
35.3286 -23.4983 -19.4946 43.7163 -23.4983 -19.8816 52.1041 -23.4983 -18.1297 
60.4918 -23.4983 -16.5357 -65.324 -15.1105 -16.217 -56.9363 -15.1105 -17.0526 
-48.5486 -15.1105 -17.9323 -40.1609 -15.1105 -18.7881 -31.7731 -15.1105 -19.2674 
-23.3854 -15.1105 -18.2187 -14.9977 -15.1105 -17.082 -6.60998 -15.1105 -16.1351 
1.77774 -15.1105 -16.9432 10.1655 -15.1105 -18.153 18.5532 -15.1105 -18.4642 
26.9409 -15.1105 -19.274 35.3286 -15.1105 -19.9891 43.7163 -15.1105 -20.0681 
52.1041 -15.1105 -19.2479 60.4918 -15.1105 -18.9172 -56.9363 -6.72281 -18.0652 
-48.5486 -6.72281 -18.9008 -40.1609 -6.72281 -19.4831 -31.7731 -6.72281 -19.2763 
-23.3854 -6.72281 -18.2934 -14.9977 -6.72281 -17.1904 -6.60998 -6.72281 -18.9008 
1.77774 -6.72281 -18.0668 10.1655 -6.72281 -20.3987 18.5532 -6.72281 -17.7462 
26.9409 -6.72281 -18.3435 35.3286 -6.72281 -19.7072 43.7163 -6.72281 -19.8478 
52.1041 -6.72281 -20.1363 60.4918 -6.72281 -21.6644 68.8795 -6.72281 -15.5837 
-56.9363 1.66491 -18.2048 -48.5486 1.66491 -19.0586 -40.1609 1.66491 -19.4762 
-31.7731 1.66491 -19.2302 -23.3854 1.66491 -18.2615 -14.9977 1.66491 -16.8671 
-6.60998 1.66491 -19.6829 1.77774 1.66491 -17.5368 10.1655 1.66491 -22.3003 
18.5532 1.66491 -18.5297 26.9409 1.66491 -18.0682 35.3286 1.66491 -19.4218 
43.7163 1.66491 -19.4995 52.1041 1.66491 -19.5584 60.4918 1.66491 -19.8828 
68.8795 1.66491 -14.9407 -56.9363 10.0526 -16.6752 -48.5486 10.0526 -17.9971 
-40.1609 10.0526 -18.6797 -31.7731 10.0526 -18.6008 -23.3854 10.0526 -17.6964 
-14.9977 10.0526 -16.8396 -6.60998 10.0526 -18.9448 1.77774 10.0526 -18.783 
10.1655 10.0526 -20.2358 18.5532 10.0526 -18.4596 26.9409 10.0526 -18.3783 
35.3286 10.0526 -18.9791 43.7163 10.0526 -19.0392 52.1041 10.0526 -18.6539 
60.4918 10.0526 -17.9267 68.8795 10.0526 -15.5712 -48.5486 18.4403 -16.0086 
-40.1609 18.4403 -17.6453 -31.7731 18.4403 -17.683 -23.3854 18.4403 -17.6183 
-14.9977 18.4403 -17.631 -6.60998 18.4403 -17.7761 1.77774 18.4403 -18.0092 
10.1655 18.4403 -18.5105 18.5532 18.4403 -18.1448 26.9409 18.4403 -17.98 
35.3286 18.4403 -17.9059 43.7163 18.4403 -17.909 52.1041 18.4403 -18.039 
-40.1609 26.8281 -14.6601 -31.7731 26.8281 -15.8434 -23.3854 26.8281 -16.1842 
-14.9977 26.8281 -16.4595 -6.60998 26.8281 -16.3493 1.77774 26.8281 -16.6885 
10.1655 26.8281 -16.5913 18.5532 26.8281 -16.0225 26.9409 26.8281 -15.5565 
35.3286 26.8281 -15.1312 43.7163 26.8281 -14.3727 -40.1609 -33.2493 -14.3355 
-31.7731 -32.8661 -14.3355 -23.3854 -32.4963 -14.3355 18.5532 -33.1438 -14.3355 
26.9409 -34.8003 -14.3355 35.3286 -35.3482 -14.3355 35.3286 -40.2737 -5.99412 
43.7163 -36.4647 -14.3355 43.7163 -40.2737 -5.9939 52.1041 -33.4114 -14.3355 
-65.324 -31.886 -6.23309 -56.9363 -31.886 -11.0383 -44.1348 -31.886 -14.3355 
-48.5486 -29.8266 -14.3355 -48.5486 -31.886 -13.0638 -19.6891 -31.886 -14.3355 
-14.9977 -30.2574 -14.3355 -14.9977 -31.886 -13.2201 -6.60998 -27.823 -14.3355 
-6.60998 -31.886 -11.9031 1.77774 -28.6063 -14.3355 1.77774 -31.886 -12.2136 
12.9999 -31.886 -14.3355 10.1655 -30.7406 -14.3355 10.1655 -31.886 -13.3731 
54.5726 -31.886 -14.3355 60.4918 -27.4144 -14.3355 60.4918 -31.886 -11.5225 
-65.324 -20.0944 -14.3355 -65.324 -23.4983 -11.4207 -56.7945 -23.4983 -14.3355 
-56.9363 -23.3001 -14.3355 -56.9363 -23.4983 -14.2814 66.4515 -23.4983 -14.3355 
68.8795 -23.4983 -13.0305 -68.3801 -15.1105 -14.3355 -73.7117 -15.1105 -9.80221 
-65.324 -7.66447 -14.3355 67.8916 -15.1105 -14.3355 68.8795 -12.4875 -14.3355 
68.8795 -15.1105 -13.781 77.2672 -15.1105 -6.88555 -73.7117 -6.72281 -9.19939 
-64.6159 -6.72281 -14.3355 -65.324 -6.72281 -14.0371 71.3665 -6.72281 -14.3355 
77.2672 -6.72281 -10.4178 -73.7117 1.66491 -11.003 -64.831 1.66491 -14.3355 
-65.324 1.66491 -14.1225 70.064 1.66491 -14.3355 77.2672 1.66491 -9.67195 
-73.7117 10.0526 -8.58529 -61.7102 10.0526 -14.3355 -65.324 10.0526 -12.612 
-56.9363 16.2065 -14.3355 60.4918 18.4297 -14.3355 70.8254 10.0526 -14.3355 
68.8795 12.7378 -14.3355 77.2672 10.0526 -7.06166 -65.324 18.4403 -9.70127 
-54.2443 18.4403 -14.3355 -56.9363 18.4403 -13.5435 -48.5486 22.72 -14.3355 
60.4806 18.4403 -14.3355 52.1041 24.0201 -14.3355 60.4918 18.4403 -14.3307 
68.8795 18.4403 -9.80086 -56.9363 26.8281 -11.0059 -41.5428 26.8281 -14.3355 
-48.5486 26.8281 -12.5352 -40.1609 27.3696 -14.3355 -31.7731 29.4619 -14.3355 
-23.3854 30.4359 -14.3355 -14.9977 31.0669 -14.3355 -6.60998 31.4828 -14.3355 
1.77774 32.7949 -14.3355 10.1655 31.5074 -14.3355 18.5532 29.8068 -14.3355 
26.9409 28.9108 -14.3355 35.3286 27.969 -14.3355 43.8969 26.8281 -14.3355 
43.7163 26.8807 -14.3355 52.1041 26.8281 -12.2199 60.4918 26.8281 -8.72798 
-48.5486 35.2158 -6.30063 -40.1609 35.2158 -7.84891 -31.7731 35.2158 -9.65264 
-23.3854 35.2158 -10.571 -14.9977 35.2158 -11.1789 -6.60998 35.2158 -12.1804 
1.77774 35.2158 -13.1565 10.1655 35.2158 -12.0229 18.5532 35.2158 -10.2685 
26.9409 35.2158 -8.77856 35.3286 35.2158 -7.1655 35.3286 -40.292 -5.94779 
43.7163 -40.2882 -5.94779 -65.324 -32.1253 -5.94779 -56.9363 -36.4101 -5.94779 
-48.5486 -38.9828 -5.94779 -40.1609 -39.5017 -5.94779 -31.7731 -38.5562 -5.94779 
-23.3854 -37.7226 -5.94779 -14.9977 -35.3948 -5.94779 -6.60998 -35.0636 -5.94779 
1.77774 -35.9464 -5.94779 10.1655 -35.7091 -5.94779 18.5532 -37.1761 -5.94779 
35.2197 -40.2737 -5.94779 26.9409 -38.8409 -5.94779 35.3286 -40.2737 -5.84458 
43.8087 -40.2737 -5.94779 43.7163 -40.2737 -5.85907 52.1041 -38.8004 -5.94779 
60.4918 -36.1111 -5.94779 -65.7144 -31.886 -5.94779 -14.9977 -31.886 2.29238 
-6.60998 -31.886 2.34339 66.0882 -31.886 -5.94779 68.8795 -29.0514 -5.94779 
-73.1815 -23.4983 -5.94779 -73.7117 -23.0359 -5.94779 -73.7117 -23.4983 -5.21187 
73.9129 -23.4983 -5.94779 77.2672 -16.5483 -5.94779 -77.892 -15.1105 -5.94779 
77.8615 -15.1105 -5.94779 77.2672 -15.1105 1.11915 -77.3875 -6.72281 -5.94779 
-82.0995 -6.72281 2.14397 80.3601 -6.72281 -5.94779 -79.0024 1.66491 -5.94779 
79.8871 1.66491 -5.94779 -76.3832 10.0526 -5.94779 -73.7117 14.9861 -5.94779 
78.0771 10.0526 -5.94779 77.2672 11.3393 -5.94779 -70.0195 18.4403 -5.94779 
-73.7117 18.4403 -0.300429 -65.324 24.0724 -5.94779 72.1682 18.4403 -5.94779 
68.8795 21.9001 -5.94779 -63.4057 26.8281 -5.94779 -65.324 26.8281 -1.59896 
-56.9363 31.1017 -5.94779 43.7163 34.822 -5.94779 52.1041 32.0983 -5.94779 
63.3138 26.8281 -5.94779 60.4918 28.9285 -5.94779 -49.0321 35.2158 -5.94779 
-48.5486 35.4371 -5.94779 -40.1609 36.729 -5.94779 -31.7731 37.768 -5.94779 
-23.3854 38.2355 -5.94779 -14.9977 39.0964 -5.94779 -6.60998 40.5492 -5.94779 
1.77774 41.7653 -5.94779 10.1655 40.927 -5.94779 18.5532 39.0616 -5.94779 
26.9409 37.3413 -5.94779 41.204 35.2158 -5.94779 35.3286 36.1161 -5.94779 
43.7163 35.2158 -4.848 -65.324 -33.5342 2.43993 -56.9363 -38.0366 2.43993 
-48.5486 -38.1748 2.43993 -40.1609 -38.4083 2.43993 -31.7731 -37.1239 2.43993 
-23.3854 -34.2317 2.43993 1.77774 -34.4151 2.43993 10.1655 -34.2008 2.43993 
18.5532 -35.7728 2.43993 26.9409 -37.1549 2.43993 35.3286 -38.584 2.43993 
43.7163 -38.6499 2.43993 52.1041 -37.1517 2.43993 60.4918 -34.7391 2.43993 
-68.4954 -31.886 2.43993 -73.7117 -27.5816 2.43993 -65.324 -31.886 5.13685 
-56.9363 -31.886 10.4557 -48.5486 -31.886 10.4365 -31.7731 -31.886 8.03364 
-15.2761 -31.886 2.43993 -23.3854 -31.886 5.45569 -14.9977 -31.7847 2.43993 
-6.48263 -31.886 2.43993 -6.60998 -31.8343 2.43993 1.77774 -31.886 5.88022 
10.1655 -31.886 5.77986 18.5532 -31.886 8.00995 26.9409 -31.886 10.7292 
43.7163 -31.886 10.604 52.1041 -31.886 9.66664 63.7074 -31.886 2.43993 
60.4918 -31.886 5.23303 68.8795 -27.3344 2.43993 -76.3199 -23.4983 2.43993 
-73.7117 -23.4983 7.11689 -14.9977 -23.4983 8.52423 -6.60998 -23.4983 9.63616 
72.6796 -23.4983 2.43993 68.8795 -23.4983 6.53897 -80.9221 -15.1105 2.43993 
-82.0995 -7.43175 2.43993 -14.9977 -15.1105 10.8249 77.1527 -15.1105 2.43993 
77.2672 -14.8635 2.43993 -82.202 -6.72281 2.43993 -82.0995 -3.13409 2.43993 
-82.0995 -6.72281 2.73596 80.6304 -6.72281 2.43993 77.2672 -6.72281 7.3491 
-81.958 1.66491 2.43993 79.7167 1.66491 2.43993 77.2672 1.66491 6.59052 
-79.5764 10.0526 2.43993 78.4051 10.0526 2.43993 77.2672 12.1548 2.43993 
77.2672 10.0526 4.71018 -74.9796 18.4403 2.43993 -73.7117 19.6422 2.43993 
-73.7117 18.4403 4.59604 73.502 18.4403 2.43993 68.8795 23.474 2.43993 
68.8795 18.4403 9.64384 -66.7173 26.8281 2.43993 -65.324 28.0352 2.43993 
-65.324 26.8281 5.29308 -56.9363 32.7748 2.43993 52.1041 33.829 2.43993 
64.6215 26.8281 2.43993 60.4918 30.0151 2.43993 60.4918 26.8281 8.89444 
-50.945 35.2158 2.43993 -48.5486 36.1163 2.43993 -48.5486 35.2158 4.37649 
-40.1609 38.1495 2.43993 -40.1609 35.2158 8.77538 -31.7731 38.5684 2.43993 
-31.7731 35.2158 9.58996 -23.3854 38.7276 2.43993 -23.3854 35.2158 9.18161 
-14.9977 39.8892 2.43993 -14.9977 35.2158 10.5233 -6.60998 42.2802 2.43993 
1.77774 43.3867 2.43993 10.1655 43.3783 2.43993 18.5532 42.149 2.43993 
26.9409 40.5874 2.43993 35.3286 39.1038 2.43993 48.9991 35.2158 2.43993 
43.7163 37.2736 2.43993 43.7163 35.2158 10.0236 -40.1609 -32.5413 10.8276 
35.3286 -33.5797 10.8276 -65.324 -28.1911 10.8276 -56.9363 -31.4302 10.8276 
-45.5742 -31.886 10.8276 -48.5486 -31.3777 10.8276 -38.3189 -31.886 10.8276 
-40.1609 -31.886 11.469 -31.7731 -28.7784 10.8276 -23.3854 -24.1487 10.8276 
1.77774 -24.2857 10.8276 10.1655 -25.663 10.8276 18.5532 -28.9163 10.8276 
27.2679 -31.886 10.8276 26.9409 -31.7799 10.8276 42.9071 -31.886 10.8276 
35.3286 -31.886 12.3608 43.7163 -31.6211 10.8276 52.1041 -30.1058 10.8276 
[...]
POINT_DATA 594
SCALARS ImageScalars float
LOOKUP_TABLE default
0 0 0 0 0 0 0 0 0 
0 0 0 0 0 0 0 0 0 
0 0 0 0 0 0 0 0 0 
0 0 0 0 0 0 0 0 0 
0 0 0 0 0 0 0 0 0 
0 0 0 0 0 0 0 0 0 
0 0 0 0 0 0 0 0 0 
0 0 0 0 0 0 0 0 0 
0 0 0 0 0 0 0 0 0 
0 0 0 0 0 0 0 0 0 
0 0 0 0 0 0 0 0 0 
0 0 0 0 0 0 0 0 0 
0 0 0 0 0 0 0 0 0 
0 0 0 0 0 0 0 0 0 
0 0 0 0 0 0 0 0 0 
0 0 0 0 0 0 0 0 0 
0 0 0 0 0 0 0 0 0 
0 0 0 0 0 0 0 0 0 
0 0 0 0 0 0 0 0 0 
0 0 0 0 0 0 0 0 0 
0 0 0 0 0 0 0 0 0 
0 0 0 0 0 0 0 0 0 
0 0 0 0 0 0 0 0 0 
0 0 0 0 0 0 0 0 0 
0 0 0 0 0 0 0 0 0 
0 0 0 0 0 0 0 0 0 
0 0 0 0 0 0 0 0 0 
0 0 0 0 0 0 0 0 0 
0 0 0 0 0 0 0 0 0 
0 0 0 0 0 0 0 0 0 
0 0 0 0 0 0 0 0 0 
0 0 0 0 0 0 0 0 0 
0 0 0 0 0 0 0 0 0 
0 0 0 0 0 0 0 0 0 
0 0 0 0 0 0 0 0 0 
0 0 0 0 0 0 0 0 0 
0 0 0 0 0 0 0 0 0 
0 0 0 0 0 0 0 0 0 
0 0 0 0 0 0 0 0 0 
0 0 0 0 0 0 0 0 0 
0 0 0 0 0 0 0 0 0 
0 0 0 0 0 0 0 0 0 
0 0 0 0 0 0 0 0 0 
0 0 0 0 0 0 0 0 0 
0 0 0 0 0 0 0 0 0 
0 0 0 0 0 0 0 0 0 
0 0 0 0 0 0 0 0 0 
0 0 0 0 0 0 0 0 0 
0 0 0 0 0 0 0 0 0 
0 0 0 0 0 0 0 0 0 
0 0 0 0 0 0 0 0 0 
0 0 0 0 0 0 0 0 0 
0 0 0 0 0 0 0 0 0 
0 0 0 0 0 0 0 0 0 
0 0 0 0 0 0 0 0 0 
0 0 0 0 0 0 0 0 0 
0 0 0 0 0 0 0 0 0 
0 0 0 0 0 0 0 0 0 
0 0 0 0 0 0 0 0 0 
0 0 0 0 0 0 0 0 0 
0 0 0 0 0 0 0 0 0 
0 0 0 0 0 0 0 0 0 
0 0 0 0 0 0 0 0 0 
0 0 0 0 0 0 0 0 0 
0 0 0 0 0 0 0 0 0 
0 0 0 0 0 0 0 0 0 

NORMALS Normals float
-0.100365 -0.475146 -0.874164 0.0251666 -0.523512 -0.851646 0.0847026 -0.614716 -0.784188 
-0.179813 -0.600899 -0.778837 -0.101601 -0.555681 -0.825164 -0.0399904 -0.468543 -0.882535 
0.0709418 -0.444106 -0.893161 0.349517 -0.515831 -0.782149 -0.175296 -0.237378 -0.95547 
-0.0412306 -0.21497 -0.97575 -0.0169174 -0.219544 -0.975456 0.0831183 -0.159212 -0.983739 
0.131509 -0.183528 -0.974178 0.00726026 -0.179436 -0.983743 -0.102683 -0.213893 -0.971445 
-0.120001 -0.225016 -0.966937 -0.140738 -0.160988 -0.97687 -0.0640367 -0.142841 -0.987672 
0.0106224 -0.130085 -0.991446 0.0774359 -0.161581 -0.983817 0.185231 -0.167215 -0.968364 
0.273806 -0.370018 -0.88776 -0.356518 -0.0987915 -0.929051 -0.129814 -0.221385 -0.966508 
-0.0983123 -0.0976438 -0.990354 -0.0770134 -0.100357 -0.991966 0.0342715 -0.07562 -0.996548 
0.12747 -0.0161854 -0.99171 0.123338 -0.035802 -0.991719 0.00858868 -0.15809 -0.987387 
-0.11967 -0.0988903 -0.987876 -0.0891471 -0.144666 -0.985457 -0.0639932 0.039938 -0.997151 
-0.0924363 0.103422 -0.990333 -0.0451212 -0.0118619 -0.998911 0.0423226 0.00159776 -0.999103 
0.0658976 -0.117178 -0.990922 0.30378 -0.275686 -0.911984 -0.270226 -0.0599163 -0.960931 
-0.0806326 -0.0658178 -0.994568 -0.0219625 -0.040848 -0.998924 0.0713699 0.00224354 -0.997447 
0.121535 -0.00252982 -0.992584 -0.0189891 0.0130149 -0.999735 -0.0557212 -0.227698 -0.972136 
-0.0781015 -0.0380158 -0.99622 0.0186674 -0.254228 -0.966964 0.103283 0.00471415 -0.994641 
-0.118631 0.0701468 -0.990458 -0.0902323 0.0341393 -0.995335 -0.0251674 0.0338298 -0.999111 
-0.0935226 -0.0181419 -0.995452 0.213337 -0.0396719 -0.976173 0.47712 -0.0560024 -0.877052 
-0.270776 0.0745286 -0.959753 -0.0719638 0.0526283 -0.996018 -0.00947259 0.0475959 -0.998822 
0.0719217 0.0400038 -0.996608 0.139757 0.0352256 -0.989559 -0.0696819 0.020927 -0.99735 
-0.054776 0.00333759 -0.998493 -0.151331 -0.0460002 -0.987412 -0.0854252 0.027515 -0.995965 
0.260387 -0.0481668 -0.964302 -0.0594611 -0.00218802 -0.998228 -0.0863831 0.0439009 -0.995294 
-0.0080884 0.0480438 -0.998812 -0.0203328 0.0864172 -0.996052 0.228308 0.181096 -0.956598 
0.456123 -0.0046775 -0.889905 -0.295158 0.244334 -0.923679 -0.112642 0.177946 -0.977572 
-0.0341956 0.104855 -0.993899 0.0581611 0.090749 -0.994174 0.104256 0.0386512 -0.993799 
-0.0687619 -0.0461727 -0.996564 -0.115948 0.113299 -0.986772 -0.0753933 -0.0223641 -0.996903 
0.0133279 0.215496 -0.976414 0.114597 0.0238635 -0.993125 -0.0310719 0.00662413 -0.999495 
-0.0390257 0.088503 -0.995311 0.0182907 0.0892464 -0.995842 0.0615653 0.0847757 -0.994496 
0.203973 0.309102 -0.928898 0.436239 0.20689 -0.875724 -0.215712 0.277572 -0.936174 
-0.0969803 0.23103 -0.968101 0.00176221 0.151872 -0.988399 0.00301887 0.0846654 -0.996405 
-0.00932676 0.0234443 -0.999682 -0.0222415 0.146405 -0.988975 -0.0431986 0.120399 -0.991785 
-0.00726096 0.206167 -0.97849 0.0316731 0.132358 -0.990696 0.0139877 0.157112 -0.987482 
0.00443463 0.207305 -0.978266 -0.00648782 0.258029 -0.966115 0.189942 0.312899 -0.9306 
-0.159761 0.418428 -0.894088 -0.0879093 0.368832 -0.92533 -0.0345793 0.31805 -0.947443 
-0.00906437 0.298421 -0.954391 -0.0126551 0.283356 -0.958931 -0.0139576 0.259252 -0.965709 
0.0367408 0.331266 -0.942822 0.0595432 0.385749 -0.920681 0.0477002 0.42136 -0.905638 
0.0644382 0.471804 -0.879346 0.132526 0.516436 -0.846009 -0.0868359 -0.53961 -0.837425 
0.0341765 -0.581284 -0.812982 0.0863198 -0.646482 -0.75803 -0.186675 -0.668156 -0.720222 
-0.102501 -0.715613 -0.690935 -0.0840395 -0.685854 -0.72287 -0.0836882 -0.990347 -0.110499 
0.0611839 -0.713203 -0.698282 0.0791532 -0.993764 -0.0785316 0.339381 -0.580383 -0.740254 
-0.499254 -0.701704 -0.508288 -0.335692 -0.601865 -0.724616 -0.137584 -0.493046 -0.859055 
-0.179621 -0.442627 -0.878531 -0.19468 -0.544261 -0.816014 0.0976642 -0.61982 -0.778643 
0.121305 -0.52638 -0.841552 0.120086 -0.688914 -0.714827 0.0301356 -0.39453 -0.918389 
0.0305968 -0.762169 -0.646655 -0.0733771 -0.460173 -0.884792 -0.0509949 -0.718864 -0.693278 
-0.164359 -0.650493 -0.741516 -0.148212 -0.610951 -0.777671 -0.143082 -0.715995 -0.683285 
0.376005 -0.509784 -0.773783 0.33692 -0.424984 -0.840162 0.45761 -0.619618 -0.637704 
-0.404841 -0.312591 -0.859297 -0.457917 -0.455354 -0.763521 -0.2858 -0.244181 -0.926657 
-0.283093 -0.243548 -0.927654 -0.288471 -0.244949 -0.925626 0.466887 -0.341678 -0.815643 
0.588068 -0.378605 -0.714727 -0.440845 -0.133594 -0.887586 -0.622078 -0.189095 -0.759777 
-0.382012 0.12501 -0.915663 0.468196 -0.128013 -0.874303 0.484881 -0.0927324 -0.86965 
0.499008 -0.12455 -0.857601 0.883098 -0.350091 -0.312368 -0.605227 -0.0803957 -0.791983 
-0.375166 0.133161 -0.917343 -0.385566 0.142694 -0.91158 0.556585 -0.0628233 -0.828412 
0.828478 -0.101941 -0.550666 -0.505604 0.0729648 -0.859675 -0.380786 0.0735611 -0.921732 
-0.384576 0.0747384 -0.920063 0.492693 0.00480146 -0.87019 0.836763 0.135046 -0.53065 
-0.593174 0.366077 -0.71703 -0.386001 0.193742 -0.901924 -0.434628 0.190092 -0.88032 
-0.277681 0.270278 -0.92187 0.344176 0.391394 -0.853436 0.532463 0.232181 -0.813987 
0.468456 0.310671 -0.827062 0.82596 0.400963 -0.396256 -0.569556 0.459816 -0.681304 
-0.251467 0.281113 -0.926142 -0.283505 0.283858 -0.915997 -0.200776 0.355719 -0.912772 
0.344216 0.391472 -0.853385 0.216325 0.536077 -0.815981 0.344443 0.391591 -0.853238 
0.579901 0.569843 -0.582233 -0.382661 0.560075 -0.73477 -0.16324 0.421596 -0.89197 
-0.205728 0.467775 -0.859571 -0.159598 0.436204 -0.885581 -0.103045 0.468826 -0.877259 
-0.0503881 0.470755 -0.880824 -0.029321 0.479347 -0.877135 -0.0428305 0.439241 -0.897347 
0.0024942 0.451493 -0.892271 0.0835575 0.46402 -0.881875 0.0784713 0.482779 -0.872219 
0.0628951 0.495551 -0.866299 0.0726123 0.513919 -0.85476 0.134403 0.518754 -0.844293 
0.132841 0.518139 -0.844917 0.239427 0.655096 -0.716606 0.462743 0.714062 -0.525342 
-0.308398 0.867145 -0.391088 -0.130472 0.843521 -0.521007 -0.116764 0.805671 -0.580741 
-0.0635992 0.792016 -0.607178 -0.0705357 0.74343 -0.665084 -0.0900957 0.630164 -0.771218 
0.00775939 0.560423 -0.82817 0.130517 0.61458 -0.777982 0.139479 0.696707 -0.703666 
0.125319 0.780318 -0.612698 0.12506 0.83775 -0.531541 -0.08342 -0.99062 -0.108226 
0.0793095 -0.993937 -0.0761588 -0.497042 -0.710892 -0.497576 -0.384433 -0.81637 -0.43099 
-0.138629 -0.965128 -0.222056 0.0301356 -0.974711 -0.22143 0.0981702 -0.980571 -0.169835 
0.205798 -0.976804 -0.0591758 0.143895 -0.989399 -0.0195796 -0.0359478 -0.996173 -0.0796725 
-0.0416249 -0.983615 -0.175412 -0.0685837 -0.989175 -0.129729 -0.191549 -0.975193 -0.110942 
-0.0846123 -0.990526 -0.108163 -0.181538 -0.978036 -0.102416 -0.0837305 -0.991155 -0.102962 
0.081116 -0.993801 -0.0760187 0.0794875 -0.994245 -0.0718194 0.255766 -0.962015 -0.0954515 
0.446696 -0.874494 -0.189005 -0.504443 -0.701363 -0.503614 0.119383 -0.771236 0.625255 
-0.159662 -0.805466 0.57073 0.64874 -0.739349 -0.180275 0.723702 -0.668781 -0.170255 
-0.639718 -0.481946 -0.598739 -0.649297 -0.467427 -0.599937 -0.677061 -0.499632 -0.540331 
0.812973 -0.541787 -0.213403 0.888542 -0.381929 -0.254211 -0.829333 -0.212527 -0.516758 
0.89997 -0.351297 -0.258155 0.908497 -0.397966 0.127497 -0.793284 -0.0700858 -0.604805 
-0.998243 -0.0580431 -0.0119469 0.932403 -0.112906 -0.343331 -0.882825 0.0933945 -0.460323 
0.938877 0.120505 -0.322473 -0.757075 0.361068 -0.544488 -0.63784 0.503963 -0.582393 
0.843457 0.407999 -0.349452 0.831182 0.431744 -0.350332 -0.608727 0.542682 -0.578747 
-0.722996 0.673555 -0.153626 -0.629025 0.555017 -0.544319 0.723558 0.576961 -0.37892 
0.634242 0.675735 -0.375659 -0.602439 0.617504 -0.505723 -0.660759 0.716043 -0.225122 
-0.450119 0.778314 -0.437745 0.197104 0.878129 -0.435935 0.301061 0.863234 -0.405204 
0.53084 0.76821 -0.357858 0.479656 0.799054 -0.36255 -0.318754 0.871935 -0.371651 
-0.308707 0.876833 -0.368598 -0.1375 0.893945 -0.426562 -0.086125 0.929344 -0.35903 
-0.0748198 0.94641 -0.314183 -0.131605 0.922347 -0.363259 -0.151671 0.890107 -0.429774 
-0.0244108 0.896044 -0.443294 0.143761 0.847565 -0.510848 0.187415 0.817625 -0.544394 
0.14598 0.847684 -0.510021 0.176455 0.876097 -0.448685 0.136302 0.860892 -0.490191 
0.210894 0.902649 -0.375166 -0.448414 -0.878876 0.162796 -0.266484 -0.933107 0.241449 
-0.0199567 -0.968347 0.248807 0.0455874 -0.927213 0.371749 0.209827 -0.875911 0.434456 
0.266511 -0.808437 0.524787 -0.1079 -0.899346 0.423716 -0.0777553 -0.911714 0.4034 
-0.172342 -0.912146 0.37187 -0.154059 -0.932678 0.326157 -0.0870889 -0.924711 0.370575 
0.0830079 -0.909207 0.407986 0.183711 -0.896318 0.403563 0.482031 -0.757992 0.439425 
-0.529985 -0.832466 0.161604 -0.765365 -0.635139 0.103992 -0.424216 -0.847724 0.318441 
-0.183411 -0.702961 0.687173 -0.04786 -0.570051 0.820214 0.227012 -0.693087 0.684175 
0.123681 -0.765272 0.631713 0.264494 -0.722292 0.639012 0.118594 -0.761818 0.636843 
-0.1602 -0.80237 0.574924 -0.161019 -0.800301 0.577574 -0.144005 -0.77537 0.614869 
-0.0867424 -0.810717 0.578976 -0.18921 -0.755731 0.626953 -0.200545 -0.646747 0.735867 
0.132258 -0.643185 0.754202 0.229145 -0.64495 0.729062 0.544211 -0.71985 0.430871 
0.463781 -0.655442 0.596073 0.602628 -0.71238 0.359658 -0.848743 -0.528292 0.0232986 
-0.734485 -0.572232 0.364805 0.079201 -0.435236 0.896826 -0.152673 -0.498446 0.853372 
0.745762 -0.574948 0.336562 0.565415 -0.581781 0.584668 -0.950372 -0.309974 0.0266196 
-0.996916 -0.0784569 0.00159295 0.0237889 -0.127877 0.991505 0.894757 -0.399829 0.198865 
0.897343 -0.393333 0.20016 -0.998307 -0.0581232 -0.00233754 -0.999468 0.0321931 -0.00514536 
-0.998121 -0.059268 0.0155624 0.962191 -0.138067 0.234788 0.800315 -0.0807961 0.594111 
-0.987817 0.155245 -0.0107832 0.960281 0.130594 0.246589 0.866061 0.0906506 0.491651 
-0.947588 0.31925 -0.0125039 0.920708 0.333219 0.20313 0.903401 0.38783 0.182908 
0.896822 0.307306 0.318235 -0.753819 0.656474 0.0282557 -0.732186 0.679894 0.0405864 
-0.724618 0.670707 0.158372 0.808102 0.575254 0.126706 0.659756 0.737336 0.145112 
0.632672 0.511254 0.581675 -0.641744 0.765474 0.0470502 -0.610773 0.790751 0.0408571 
-0.620028 0.760961 0.191057 -0.43283 0.894375 0.112924 0.388909 0.920093 0.0466681 
0.577346 0.805117 0.135862 0.52197 0.841774 0.137707 0.500483 0.738599 0.451652 
-0.323643 0.933016 0.157281 -0.285535 0.944004 0.165306 -0.2914 0.913586 0.28363 
-0.1479 0.978909 0.140935 -0.149655 0.810322 0.566552 -0.0344569 0.984227 0.173522 
-0.0104156 0.787816 0.615823 -0.0775794 0.977509 0.196106 -0.0359292 0.760764 0.648034 
-0.201968 0.965805 0.162572 -0.183208 0.638449 0.747541 -0.220411 0.970017 0.102398 
-0.058541 0.996307 0.062808 0.0729098 0.99727 0.0116704 0.164844 0.984255 -0.0637908 
0.17853 0.97805 -0.107449 0.203097 0.97624 -0.0755447 0.345732 0.938036 0.0236045 
0.281951 0.959281 -0.0168271 0.334605 0.848918 0.409119 0.113364 -0.650846 0.750698 
0.00468829 -0.69361 0.720335 -0.351083 -0.591972 0.725472 -0.169243 -0.680504 0.712931 
0.00447892 -0.584298 0.811526 -0.0440034 -0.546501 0.836302 0.132774 -0.63986 0.756934 
0.103832 -0.62552 0.773268 0.215385 -0.546709 0.809147 0.312343 -0.364706 0.877172 
-0.127534 -0.36722 0.921349 -0.157186 -0.513492 0.843575 -0.19683 -0.622222 0.757692 
-0.193185 -0.643925 0.740297 -0.199772 -0.640865 0.741204 0.121729 -0.639357 0.759213 
0.00368644 -0.612615 0.790373 0.133351 -0.631739 0.763625 0.224106 -0.573011 0.788311 
0.37907 -0.547603 0.745947 -0.504353 -0.520874 0.688708 -0.559675 -0.478198 0.676824 
-0.287818 -0.385452 0.876691 -0.166189 -0.447967 0.878469 0.0778126 -0.383842 0.920115 
0.128411 -0.333615 0.933923 0.188998 -0.341287 0.920762 0.2882 -0.35092 0.890952 
0.313979 -0.343574 0.885084 -0.12919 -0.377881 0.916797 -0.14928 -0.400227 0.904176 
-0.124811 -0.341507 0.931555 -0.179134 -0.466993 0.865926 -0.194739 -0.479573 0.855621 
-0.0829071 -0.395066 0.914904 0.0120827 -0.36605 0.930517 0.105379 -0.391074 0.914306 
0.157606 -0.4251 0.89132 0.414088 -0.515939 0.749892 0.355063 -0.497903 0.791216 
0.431899 -0.428198 0.793795 -0.632614 -0.301736 0.713271 -0.47819 -0.288496 0.82952 
-0.399967 -0.289015 0.869768 0.122338 -0.186265 0.974853 0.139814 -0.223716 0.964574 
0.254374 -0.186095 0.949032 0.0240451 -0.127919 0.991493 0.263532 -0.184022 0.946936 
0.0235607 -0.12794 0.991502 0.0250388 -0.129769 0.991228 -0.16609 -0.257835 0.951806 
-0.154962 -0.221957 0.962664 -0.263006 -0.44398 0.856569 -0.0795662 -0.254147 0.963887 
-0.0236381 -0.193307 0.980853 -0.0165049 -0.21095 0.977358 0.0764113 -0.262383 0.961934 
0.179458 -0.266877 0.946874 0.279194 -0.252438 0.926459 0.469633 -0.394245 0.789946 
0.423461 -0.402108 0.811782 -0.743038 -0.0923075 0.662852 -0.489442 -0.0909879 0.867276 
-0.335931 -0.167775 0.926823 -0.0549281 0.0314877 0.997994 0.164969 -0.083268 0.982777 
0.228454 -0.119366 0.966209 0.312339 -0.144582 0.938904 0.0945243 -0.244241 0.965097 
-0.302401 -0.222165 0.926928 -0.346155 -0.144182 0.927032 0.273466 -0.204168 0.939964 
0.614534 -0.102164 0.782247 0.461713 -0.142251 0.875549 -0.76469 0.142406 0.628466 
-0.537214 0.0276287 0.842993 0.191123 -0.0663247 0.979323 0.131461 -0.100407 0.986223 
-0.0264779 -0.162586 0.986339 -0.0389365 0.0168563 0.999099 -0.288863 -0.304267 0.907733 
-0.00226512 -0.0112264 0.999934 0.313258 -0.0548933 0.94808 0.682544 0.0343589 0.730036 
0.502041 0.0172405 0.864672 -0.73066 0.384355 0.564276 -0.66131 0.507592 0.552286 
-0.607111 0.312879 0.730427 -0.236099 0.324683 0.915881 -0.132002 0.107683 0.985383 
0.0980528 0.0711188 0.992637 0.149478 0.0506968 0.987464 0.234434 0.0193621 0.971939 
0.0666076 0.0177139 0.997622 -0.29735 -0.0106178 0.954709 0.339065 0.15319 0.928207 
0.676625 0.236586 0.697284 0.601474 0.450722 0.659605 0.52722 0.246 0.813341 
-0.572106 0.539563 0.617711 -0.539247 0.593062 0.597904 -0.420488 0.388104 0.820101 
-0.225083 0.366908 0.902616 -0.0386803 0.289332 0.956447 0.0408337 0.253913 0.966365 
0.130425 0.20871 0.969242 0.115345 0.0961135 0.988665 -0.0414964 -0.0219157 0.998898 
-0.23312 -0.0717155 0.9698 -0.154206 0.0917708 0.983768 0.249677 0.248798 0.935821 
0.594794 0.478178 0.646194 0.482258 0.679081 0.553423 0.416156 0.394558 0.81923 
-0.391128 0.676682 0.623796 -0.281805 0.695669 0.66078 -0.258799 0.639207 0.72418 
-0.207653 0.641464 0.738515 -0.124879 0.553042 0.823741 -0.12503 0.677008 0.725278 
-0.0108523 0.440091 0.897887 -0.000924978 0.686833 0.726815 0.00862564 0.351662 0.936087 
-0.0250461 0.620265 0.783992 -0.0111524 0.316892 0.948396 -0.18065 0.605617 0.77498 
-0.119476 0.212402 0.969851 -0.190483 0.162758 0.968104 -0.129455 0.200426 0.971118 
-0.0944405 0.188482 0.977525 0.335179 0.821947 0.460497 0.203924 0.448509 0.870204 
0.468248 0.701736 0.536946 0.419462 0.758928 0.498075 0.38546 0.566718 0.728183 
-0.186939 0.621753 0.760577 -0.238643 0.684678 0.68867 -0.233333 0.569741 0.788004 
-0.131464 0.746046 0.652788 -0.136453 0.524355 0.840495 -0.0261344 0.807829 0.588837 
-0.0800497 0.528834 0.844941 0.0680905 0.876108 0.477283 -0.0295542 0.570783 0.820569 
0.171767 0.903012 0.393783 0.101885 0.650331 0.752787 0.328819 0.828978 0.452409 
0.25527 0.871445 0.418833 0.24199 0.765206 0.596574 -0.124843 -0.243914 0.961728 
-0.194895 -0.235849 0.952046 0.0205546 -0.177616 0.983885 -0.0564785 0.0110648 0.998343 
-0.0697919 -0.166918 0.983498 0.0669501 -0.17106 0.982983 -0.225763 -0.295823 0.928181 
0.0600385 -0.0648087 0.99609 -0.0356267 -0.122555 0.991822 -0.0302772 -0.17948 0.983296 
0.060402 -0.215281 0.974682 0.127768 -0.195325 0.97238 -0.34114 -0.0197677 0.939805 
-0.0418331 0.00322684 0.999119 -0.0636598 0.0337796 0.9974 0.103086 -0.121264 0.987253 
0.0275894 -0.168888 0.985249 0.187622 -0.0235428 0.981959 -0.220419 -0.206182 0.953365 
-0.183385 -0.185586 0.965364 0.0529564 -0.0392891 0.997824 0.0711391 -0.0485336 0.996285 
-0.0370319 -0.114084 0.992781 -0.0419244 -0.15014 0.987776 0.0354495 -0.155641 0.987177 
0.136315 -0.193153 0.971653 0.125339 -0.192116 0.973335 -0.342545 0.0940808 0.934779 
-0.325374 0.12175 0.937715 -0.336391 0.10159 0.936227 -0.105249 0.0591902 0.992683 
-0.0900464 0.0369146 0.995253 0.0182088 0.00357318 0.999828 0.190664 -0.0173892 0.981501 
0.172125 0.00276821 0.985071 0.190681 -0.0147883 0.981541 -0.144789 -0.0309855 0.988977 
-0.249414 -0.106073 0.96257 -0.0231581 0.00654095 0.99971 -0.0866723 0.064917 0.99412 
-0.0308532 -0.0299843 0.999074 -0.0420875 -0.0455489 0.998075 -0.126563 -0.089346 0.987927 
-0.062122 -0.101271 0.992917 0.0382725 -0.087457 0.995433 0.275964 -0.0588814 0.959363 
0.143061 -0.0667893 0.987458 -0.0745564 0.153661 0.985307 0.0576007 0.115813 0.991599 
-0.0236525 0.221757 0.974815 -0.0234257 0.20388 0.978716 -0.255137 -0.0732498 0.964126 
-0.211997 -0.0132018 0.977181 -0.24593 -0.0775568 0.96618 0.00337881 0.0568811 0.998375 
-0.0813697 -0.078803 0.993564 -0.12707 -0.0668707 0.989637 -0.040398 -0.0380121 0.99846 
0.0677141 0.0438457 0.996741 0.304876 0.144985 0.941292 0.225477 0.203451 0.952769 
0.162245 0.0929067 0.982367 -0.0962843 0.0438334 0.994388 -0.0944682 0.0475326 0.994392 
-0.0943975 0.0421147 0.994643 -0.121018 -0.000500309 0.99265 -0.0871108 0.021315 0.995971 
0.0494434 0.133709 0.989787 0.226519 0.229121 0.946675 0.176876 0.306436 0.935314 
0.163553 0.186014 0.968839 -0.0938259 0.202126 0.974855 -0.0899608 0.237399 0.967238 
-0.0939867 0.210134 0.973145 0.0315493 0.360699 0.932148 0.0104406 0.258424 0.965975 
0.131284 0.357202 0.924755 0.129663 0.358425 0.92451 0.128067 0.353379 0.926673 

