# vtk DataFile Version 4.2
vtk output
ASCII
DATASET POLYDATA
POINTS 505 float
-29.1048 15.4866 -22.51 -21.3699 -38.6576 -14.8586 -13.635 -38.6576 -18.1508 
-5.90015 -38.6576 -19.338 1.83474 -38.6576 -18.7666 9.56963 -38.6576 -16.5883 
-29.1048 -30.9227 -15.4014 -21.3699 -30.9227 -19.2613 -13.635 -30.9227 -20.868 
-5.90015 -30.9227 -21.8943 1.83474 -30.9227 -21.5989 9.56963 -30.9227 -19.9739 
17.3045 -30.9227 -18.2074 25.0394 -30.9227 -16.4929 -29.1048 -23.1878 -18.9128 
-21.3699 -23.1878 -21.1631 -13.635 -23.1878 -21.9163 -5.90015 -23.1878 -22.0203 
1.83474 -23.1878 -21.9014 9.56963 -23.1878 -21.3403 17.3045 -23.1878 -20.3357 
25.0394 -23.1878 -19.9229 32.7743 -23.1878 -18.6838 40.5092 -23.1878 -15.1132 
-36.8397 -15.4529 -18.127 -29.1048 -15.4529 -20.9152 -21.3699 -15.4529 -21.9248 
-13.635 -15.4529 -21.7082 -5.90015 -15.4529 -21.5917 1.83474 -15.4529 -21.7537 
9.56963 -15.4529 -21.0711 17.3045 -15.4529 -20.8883 25.0394 -15.4529 -21.1572 
32.7743 -15.4529 -20.672 40.5092 -15.4529 -18.113 -44.5746 -7.71806 -16.0121 
-36.8397 -7.71806 -20.3285 -29.1048 -7.71806 -21.8695 -21.3699 -7.71806 -22.1474 
-13.635 -7.71806 -21.6782 -5.90015 -7.71806 -21.5377 1.83474 -7.71806 -21.8846 
9.56963 -7.71806 -20.952 17.3045 -7.71806 -20.8844 25.0394 -7.71806 -21.6877 
32.7743 -7.71806 -21.2584 40.5092 -7.71806 -19.3884 -44.5746 0.0168313 -17.9373 
-36.8397 0.0168313 -21.3078 -29.1048 0.0168313 -22.2844 -21.3699 0.0168313 -21.9718 
-13.635 0.0168313 -21.2625 -5.90015 0.0168313 -21.9327 1.83474 0.0168313 -21.9496 
9.56963 0.0168313 -20.3511 17.3045 0.0168313 -20.2714 25.0394 0.0168313 -21.1178 
32.7743 0.0168313 -20.8071 40.5092 0.0168313 -18.9915 48.2441 0.0168313 -15.0325 
-44.5746 7.75172 -17.9753 -36.8397 7.75172 -21.4304 -29.1048 14.1728 -22.4819 
-29.1048 7.75172 -22.3503 -21.3699 7.75172 -22.039 -13.635 7.75172 -21.2582 
-5.90015 7.75172 -22.0871 1.83474 7.75172 -21.9283 9.56963 7.75172 -19.5167 
17.3045 7.75172 -19.4428 25.0394 7.75172 -19.9448 32.7743 7.75172 -19.5311 
40.5092 7.75172 -17.9275 -44.5746 15.4866 -16.5341 -29.2851 15.4866 -22.4819 
-36.8397 15.4866 -21.1767 -27.2678 15.4866 -22.4819 -29.1048 15.5936 -22.4819 
-21.3699 15.4866 -22.3944 -13.635 15.4866 -21.5629 -5.90015 15.4866 -21.3251 
1.83474 15.4866 -21.0838 9.56963 15.4866 -19.525 17.3045 15.4866 -19.0571 
25.0394 15.4866 -18.8089 32.7743 15.4866 -17.953 40.5092 15.4866 -15.5939 
-36.8397 23.2215 -18.3526 -29.1048 23.2215 -20.4798 -21.3699 23.2215 -21.1537 
-13.635 23.2215 -20.6961 -5.90015 23.2215 -20.627 1.83474 23.2215 -20.5286 
9.56963 23.2215 -19.4859 17.3045 23.2215 -18.3776 25.0394 23.2215 -17.186 
32.7743 23.2215 -15.2386 -29.1048 30.9564 -16.5695 -21.3699 30.9564 -18.2492 
-13.635 30.9564 -18.6174 -5.90015 30.9564 -18.9311 1.83474 30.9564 -18.887 
9.56963 30.9564 -17.5566 17.3045 30.9564 -15.7051 -5.90015 38.6913 -15.052 
-21.3699 -38.7803 -14.747 -13.635 -42.5844 -14.747 -5.90015 -44.0085 -14.747 
-5.90015 -46.3925 -8.05562 1.83474 -43.2174 -14.747 9.56963 -40.5644 -14.747 
-21.5485 -38.6576 -14.747 -29.1048 -31.8681 -14.747 13.3382 -38.6576 -14.747 
17.3045 -36.0812 -14.747 17.3045 -38.6576 -10.0092 25.0394 -32.8913 -14.747 
-29.8961 -30.9227 -14.747 29.617 -30.9227 -14.747 32.7743 -29.2191 -14.747 
32.7743 -30.9227 -11.4015 40.5092 -23.6124 -14.747 -35.5163 -23.1878 -14.747 
-36.8397 -21.5763 -14.747 -36.8397 -23.1878 -13.0772 40.9057 -23.1878 -14.747 
-41.1675 -15.4529 -14.747 -44.5746 -10.1709 -14.747 -44.5746 -15.4529 -8.87887 
45.476 -15.4529 -14.747 48.2441 -15.4529 -10.6469 -45.8548 -7.71806 -14.747 
47.8729 -7.71806 -14.747 48.2441 -4.0192 -14.747 48.2441 -7.71806 -14.3421 
-48.2364 0.0168313 -14.747 48.578 0.0168313 -14.747 48.2441 2.38233 -14.747 
-48.148 7.75172 -14.747 47.0618 7.75172 -14.747 48.2441 7.75172 -13.9762 
-46.2281 15.4866 -14.747 -44.5746 19.0062 -14.747 42.1702 15.4866 -14.747 
40.5092 17.5589 -14.747 48.2441 15.4866 -10.8797 -42.0175 23.2215 -14.747 
-44.5746 23.2215 -10.5928 -36.8397 28.6002 -14.747 25.0394 28.5568 -14.747 
34.2543 23.2215 -14.747 32.7743 24.19 -14.747 40.5092 23.2215 -11.8515 
-33.0613 30.9564 -14.747 -36.8397 30.9564 -11.2588 -29.1048 32.9932 -14.747 
-21.3699 35.8911 -14.747 -13.635 37.7801 -14.747 1.83474 38.299 -14.747 
9.56963 35.7142 -14.747 20.8441 30.9564 -14.747 17.3045 32.5079 -14.747 
25.0394 30.9564 -13.4156 32.7743 30.9564 -9.66712 -21.3699 38.6913 -11.3142 
-8.58941 38.6913 -14.747 -13.635 38.6913 -13.9421 -1.54743 38.6913 -14.747 
-5.90015 39.0335 -14.747 1.83474 38.6913 -14.3741 9.56963 38.6913 -11.5758 
17.3045 38.6913 -7.84875 -5.90015 -46.6805 -7.0121 -21.3699 -43.2846 -7.0121 
-8.62809 -46.3925 -7.0121 -13.635 -45.8511 -7.0121 -2.17894 -46.3925 -7.0121 
-5.90015 -46.3925 -5.00954 1.83474 -46.0597 -7.0121 9.56963 -43.2674 -7.0121 
17.3045 -39.7321 -7.0121 -28.1451 -38.6576 -7.0121 -29.1048 -37.7698 -7.0121 
19.5488 -38.6576 -7.0121 17.3045 -38.6576 -2.26213 25.0394 -35.9457 -7.0121 
32.7743 -32.4521 -7.0121 -34.8419 -30.9227 -7.0121 -36.8397 -28.0135 -7.0121 
35.3404 -30.9227 -7.0121 40.5092 -27.3151 -7.0121 -40.0561 -23.1878 -7.0121 
-44.5746 -16.6687 -7.0121 44.5581 -23.1878 -7.0121 48.2441 -18.1471 -7.0121 
-45.3748 -15.4529 -7.0121 49.9826 -15.4529 -7.0121 -49.6834 -7.71806 -7.0121 
52.874 -7.71806 -7.0121 -52.2246 0.0168313 -7.0121 54.3205 0.0168313 -7.0121 
-51.9219 7.75172 -7.0121 54.0316 7.75172 -7.0121 55.979 7.75172 -0.252765 
-50.0707 15.4866 -7.0121 51.3067 15.4866 -7.0121 48.2441 20.0628 -7.0121 
-46.2004 23.2215 -7.0121 -44.5746 25.5709 -7.0121 45.4908 23.2215 -7.0121 
40.5092 27.8082 -7.0121 48.2441 23.2215 -0.0554419 -39.5732 30.9564 -7.0121 
-36.8397 33.1615 -7.0121 -29.1048 37.7729 -7.0121 25.0394 36.5345 -7.0121 
36.0971 30.9564 -7.0121 32.7743 33.0083 -7.0121 -27.029 38.6913 -7.0121 
-21.3699 41.0315 -7.0121 -13.635 43.153 -7.0121 -5.90015 43.7924 -7.0121 
1.83474 43.0207 -7.0121 9.56963 41.195 -7.0121 18.6956 38.6913 -7.0121 
17.3045 39.1295 -7.0121 -21.3699 -43.0765 0.722788 -13.635 -45.0948 0.722788 
-5.90015 -45.5248 0.722788 1.83474 -44.2941 0.722788 9.56963 -41.8647 0.722788 
-28.914 -38.6576 0.722788 -29.1048 -38.5111 0.722788 15.865 -38.6576 0.722788 
9.56963 -38.6576 6.34553 17.3045 -37.9417 0.722788 25.0394 -34.7896 0.722788 
32.7743 -31.2154 0.722788 -35.7188 -30.9227 0.722788 -36.8397 -29.1828 0.722788 
33.3413 -30.9227 0.722788 32.7743 -30.9227 1.36899 40.5092 -26.5316 0.722788 
-40.5002 -23.1878 0.722788 -44.5746 -16.8379 0.722788 43.7311 -23.1878 0.722788 
40.5092 -23.1878 6.775 48.2441 -17.9229 0.722788 -45.4254 -15.4529 0.722788 
-44.5746 -15.4529 3.93748 49.9766 -15.4529 0.722788 48.2441 -15.4529 5.25718 
-49.6564 -7.71806 0.722788 53.6136 -7.71806 0.722788 -52.0947 0.0168313 0.722788 
55.8475 0.0168313 0.722788 55.979 2.68609 0.722788 -51.9592 7.75172 0.722788 
55.979 8.68598 0.722788 55.979 7.75172 1.57588 -49.9446 15.4866 0.722788 
53.9013 15.4866 0.722788 -45.998 23.2215 0.722788 -44.5746 25.0718 0.722788 
-44.5746 23.2215 4.15266 40.5092 30.1173 0.722788 48.4935 23.2215 0.722788 
48.2441 23.4864 0.722788 48.2441 23.2215 1.36479 -39.2267 30.9564 0.722788 
-36.8397 33.0167 0.722788 -36.8397 30.9564 5.54797 -29.1048 38.3242 0.722788 
25.0394 38.1437 0.722788 39.25 30.9564 0.722788 32.7743 34.7914 0.722788 
-28.3839 38.6913 0.722788 -21.3699 41.9595 0.722788 -13.635 44.0289 0.722788 
-5.90015 44.3852 0.722788 1.83474 43.5642 0.722788 9.56963 41.8501 0.722788 
23.0694 38.6913 0.722788 17.3045 40.2387 0.722788 17.3045 38.6913 6.39326 
-21.3699 -40.4274 8.45768 -13.635 -41.7817 8.45768 -5.90015 -41.6941 8.45768 
1.83474 -40.0468 8.45768 -24.9116 -38.6576 8.45768 -29.1048 -36.2395 8.45768 
-21.3699 -38.6576 11.3183 -13.635 -38.6576 12.9848 -5.90015 -38.6576 12.5729 
5.915 -38.6576 8.45768 1.83474 -38.6576 10.319 9.56963 -37.2849 8.45768 
17.3045 -33.8259 8.45768 25.0394 -31.2137 8.45768 -34.1234 -30.9227 8.45768 
-36.8397 -26.4819 8.45768 9.56963 -30.9227 15.801 17.3045 -30.9227 12.5219 
25.7201 -30.9227 8.45768 25.0394 -30.9227 8.9128 32.7743 -27.4666 8.45768 
-38.8203 -23.1878 8.45768 -36.8397 -23.1878 12.5571 39.2357 -23.1878 8.45768 
32.7743 -23.1878 13.5343 40.5092 -22.0485 8.45768 -43.3273 -15.4529 8.45768 
-44.5746 -13.1912 8.45768 46.5137 -15.4529 8.45768 40.5092 -15.4529 13.8118 
48.2441 -12.7213 8.45768 -47.4034 -7.71806 8.45768 -44.5746 -7.71806 13.1963 
50.6956 -7.71806 8.45768 48.2441 -7.71806 11.4462 -49.6998 0.0168313 8.45768 
-44.5746 0.0168313 15.9615 53.1408 0.0168313 8.45768 48.2441 0.0168313 14.1262 
-49.4716 7.75172 8.45768 -44.5746 7.75172 15.4036 53.4627 7.75172 8.45768 
48.2441 7.75172 14.2853 -47.2371 15.4866 8.45768 -44.5746 20.2835 8.45768 
-44.5746 15.4866 12.1881 40.5092 15.4866 15.6945 50.9933 15.4866 8.45768 
48.2441 19.383 8.45768 48.2441 15.4866 11.6594 -42.5332 23.2215 8.45768 
-36.8397 29.4366 8.45768 -36.8397 23.2215 14.4049 32.7743 23.2215 15.0565 
44.6235 23.2215 8.45768 40.5092 26.7541 8.45768 40.5092 23.2215 11.9398 
-35.1717 30.9564 8.45768 -29.1048 35.3956 8.45768 -29.1048 30.9564 13.6303 
17.3045 38.0103 8.45768 17.3045 30.9564 15.5211 25.0394 35.408 8.45768 
25.0394 30.9564 13.0358 34.4149 30.9564 8.45768 32.7743 31.9499 8.45768 
32.7743 30.9564 9.6493 -23.1363 38.6913 8.45768 -21.3699 39.5496 8.45768 
-21.3699 38.6913 9.69902 -13.635 41.5574 8.45768 -13.635 38.6913 12.4135 
-5.90015 41.8275 8.45768 -5.90015 38.6913 12.8817 1.83474 40.9719 8.45768 
1.83474 38.6913 11.6157 13.908 38.6913 8.45768 9.56963 39.4645 8.45768 
9.56963 38.6913 9.60411 -29.1048 -30.9603 16.1926 -21.3699 -35.032 16.1926 
-13.635 -36.0273 16.1926 -5.90015 -35.3328 16.1926 1.83474 -33.3221 16.1926 
-29.1449 -30.9227 16.1926 -29.1048 -30.9227 16.2298 -21.3699 -30.9227 19.9772 
-13.635 -30.9227 20.729 -5.90015 -30.9227 19.7651 8.52587 -30.9227 16.1926 
1.83474 -30.9227 18.2171 9.56963 -30.5145 16.1926 17.3045 -27.6596 16.1926 
25.0394 -24.6544 16.1926 -34.7498 -23.1878 16.1926 -36.8397 -19.3535 16.1926 
-29.1048 -23.1878 21.1101 1.83474 -23.1878 22.9708 9.56963 -23.1878 21.4289 
[...]
POINT_DATA 505
SCALARS ImageScalars float
LOOKUP_TABLE default
0 0 0 0 0 0 0 0 0 
0 0 0 0 0 0 0 0 0 
0 0 0 0 0 0 0 0 0 
0 0 0 0 0 0 0 0 0 
0 0 0 0 0 0 0 0 0 
0 0 0 0 0 0 0 0 0 
0 0 0 0 0 0 0 0 0 
0 0 0 0 0 0 0 0 0 
0 0 0 0 0 0 0 0 0 
0 0 0 0 0 0 0 0 0 
0 0 0 0 0 0 0 0 0 
0 0 0 0 0 0 0 0 0 
0 0 0 0 0 0 0 0 0 
0 0 0 0 0 0 0 0 0 
0 0 0 0 0 0 0 0 0 
0 0 0 0 0 0 0 0 0 
0 0 0 0 0 0 0 0 0 
0 0 0 0 0 0 0 0 0 
0 0 0 0 0 0 0 0 0 
0 0 0 0 0 0 0 0 0 
0 0 0 0 0 0 0 0 0 
0 0 0 0 0 0 0 0 0 
0 0 0 0 0 0 0 0 0 
0 0 0 0 0 0 0 0 0 
0 0 0 0 0 0 0 0 0 
0 0 0 0 0 0 0 0 0 
0 0 0 0 0 0 0 0 0 
0 0 0 0 0 0 0 0 0 
0 0 0 0 0 0 0 0 0 
0 0 0 0 0 0 0 0 0 
0 0 0 0 0 0 0 0 0 
0 0 0 0 0 0 0 0 0 
0 0 0 0 0 0 0 0 0 
0 0 0 0 0 0 0 0 0 
0 0 0 0 0 0 0 0 0 
0 0 0 0 0 0 0 0 0 
0 0 0 0 0 0 0 0 0 
0 0 0 0 0 0 0 0 0 
0 0 0 0 0 0 0 0 0 
0 0 0 0 0 0 0 0 0 
0 0 0 0 0 0 0 0 0 
0 0 0 0 0 0 0 0 0 
0 0 0 0 0 0 0 0 0 
0 0 0 0 0 0 0 0 0 
0 0 0 0 0 0 0 0 0 
0 0 0 0 0 0 0 0 0 
0 0 0 0 0 0 0 0 0 
0 0 0 0 0 0 0 0 0 
0 0 0 0 0 0 0 0 0 
0 0 0 0 0 0 0 0 0 
0 0 0 0 0 0 0 0 0 
0 0 0 0 0 0 0 0 0 
0 0 0 0 0 0 0 0 0 
0 0 0 0 0 0 0 0 0 
0 0 0 0 0 0 0 0 0 
0 0 0 0 0 0 0 0 0 
0 
NORMALS Normals float
0.0696724 -0.119324 0.990408 0.436971 0.605335 0.665301 0.250343 0.526333 0.81259 
0.0378453 0.481001 0.875903 -0.15737 0.522673 0.837883 -0.332116 0.625156 0.706314 
0.549345 0.472617 0.689096 0.300908 0.345776 0.88876 0.152767 0.224165 0.962503 
0.0446339 0.154735 0.986947 -0.115566 0.16925 0.978774 -0.206401 0.269616 0.940588 
-0.210541 0.424048 0.880827 -0.268837 0.630591 0.728067 0.391974 0.308795 0.866604 
0.167722 0.150961 0.974207 0.0529977 0.0510936 0.997287 -0.00101277 -0.0200613 0.999798 
-0.0432698 0.00866218 0.999026 -0.101638 0.0642109 0.992747 -0.0890707 0.156924 0.983586 
-0.0998934 0.26481 0.959113 -0.280669 0.401069 0.871991 -0.591752 0.528945 0.608314 
0.474165 0.357505 0.804585 0.216286 0.1745 0.960609 0.0473297 0.0616952 0.996972 
-0.0212349 -0.0151993 0.999659 0.00293633 -0.0312862 0.999506 -0.0335712 -0.00104379 0.999436 
-0.0559039 -0.0246421 0.998132 0.00548873 0.0365422 0.999317 -0.0145142 0.114415 0.993327 
-0.176524 0.15182 0.972517 -0.468408 0.242608 0.84955 0.654947 0.307165 0.69043 
0.323544 0.182394 0.928467 0.109817 0.0844927 0.990354 -0.0126348 0.00310518 0.999915 
-0.0393752 -0.0283984 0.998821 0.0133326 0.0217662 0.999674 -0.0375047 0.0126196 0.999217 
-0.065063 -0.0456525 0.996836 0.047552 -0.0395858 0.998084 0.0246601 -0.00265359 0.999692 
-0.144811 0.0100705 0.989408 -0.372413 0.0505099 0.926692 0.586923 0.10489 0.80282 
0.243788 0.0653505 0.967624 0.0445951 0.0306567 0.998535 -0.0667669 -0.00715457 0.997743 
-0.00153368 -0.0273449 0.999625 0.0440838 0.0355011 0.998397 -0.0992106 0.00288371 0.995062 
-0.109729 -0.0926713 0.989632 0.0496286 -0.0931104 0.994418 0.0345991 -0.110481 0.993276 
-0.130091 -0.109109 0.98548 -0.338551 -0.0921715 0.936423 -0.617912 -0.0236937 0.78589 
0.591722 -0.0664983 0.803394 0.248054 -0.006019 0.968728 0.0645241 -0.0961902 0.993269 
0.0400757 0.0141606 0.999096 -0.0704 0.0267796 0.997159 0.0017697 0.0193186 0.999812 
0.044419 -0.0395676 0.998229 -0.163847 -0.0561655 0.984886 -0.156758 -0.0526972 0.98623 
0.0270301 -0.0782694 0.996566 0.00633564 -0.147601 0.989027 -0.12614 -0.174912 0.97647 
-0.317752 -0.190347 0.928871 0.669265 -0.270868 0.691892 0.0745145 -0.120428 0.989922 
0.296241 -0.172685 0.939373 0.0379391 -0.103529 0.993903 0.0706761 -0.122008 0.99001 
-0.0613392 -0.0530762 0.996705 -0.0683313 -0.0349855 0.997049 -0.0306981 -0.0937684 0.995121 
-0.115453 -0.0891085 0.989308 -0.130243 -0.00194723 0.99148 -0.0457208 -0.0668096 0.996718 
-0.067924 -0.168797 0.983308 -0.182092 -0.264539 0.947028 -0.366856 -0.330246 0.869686 
0.400872 -0.422674 0.812803 0.157522 -0.319799 0.934299 0.0128539 -0.239221 0.97088 
-0.0326383 -0.184745 0.982244 -0.0107057 -0.144309 0.989475 -0.0710815 -0.131219 0.988802 
-0.137148 -0.119019 0.983374 -0.138813 -0.193631 0.971204 -0.189762 -0.30455 0.933402 
-0.267121 -0.395085 0.87895 0.276113 -0.608869 0.743667 0.109024 -0.465285 0.878421 
0.0393752 -0.374996 0.92619 0.0170646 -0.334842 0.94212 -0.0834152 -0.341493 0.936175 
-0.18715 -0.375062 0.907912 -0.236302 -0.438773 0.866972 0.0200123 -0.639799 0.768282 
0.437555 0.609991 0.660649 0.260858 0.740627 0.619213 0.0349218 0.820193 0.571019 
0.017419 0.992578 0.120353 -0.189603 0.79205 0.580265 -0.353223 0.730541 0.584418 
0.441331 0.607057 0.660839 0.560377 0.496525 0.662903 -0.373747 0.709345 0.597615 
-0.349072 0.672712 0.652386 -0.424564 0.869569 0.25218 -0.31787 0.720349 0.616487 
0.575013 0.482597 0.660651 -0.380218 0.714948 0.586757 -0.419565 0.689133 0.590814 
-0.46093 0.820367 0.33844 -0.596813 0.546523 0.587475 0.615135 0.465305 0.636475 
0.624394 0.46953 0.624239 0.685378 0.502654 0.526873 -0.605872 0.534867 0.588927 
0.651537 0.450398 0.610443 0.694261 0.373124 0.615451 0.804195 0.530815 0.267406 
-0.654791 0.323947 0.682867 -0.811475 0.413788 0.412659 0.706158 0.325727 0.628684 
-0.69374 0.127422 0.708864 -0.668026 0.0568222 0.741965 -0.718158 0.138141 0.682031 
0.748557 0.120941 0.651948 -0.629466 -0.02074 0.776751 -0.610322 -0.0716357 0.788907 
0.758898 -0.103634 0.64291 -0.544312 -0.187296 0.817707 -0.599696 -0.184079 0.778768 
0.73619 -0.290593 0.611212 0.706906 -0.372015 0.601572 -0.405356 -0.346129 0.846097 
-0.3905 -0.375356 0.840606 -0.637072 -0.420898 0.645743 0.631022 -0.465266 0.620757 
0.785033 -0.510194 0.351319 0.474379 -0.611626 0.633149 -0.241887 -0.463047 0.852689 
-0.301021 -0.414079 0.859026 -0.281407 -0.422694 0.861475 -0.496063 -0.539451 0.680378 
0.386256 -0.660746 0.6436 0.5365 -0.737199 0.410738 0.306007 -0.677051 0.669299 
0.204344 -0.662864 0.720316 0.121287 -0.636879 0.761364 -0.127632 -0.671911 0.729551 
-0.20931 -0.60069 0.771596 -0.250051 -0.484905 0.838059 -0.251229 -0.508987 0.823296 
-0.279855 -0.56716 0.774604 -0.439948 -0.711621 0.54776 0.277542 -0.821461 0.498168 
0.0584245 -0.652789 0.755284 0.136157 -0.693154 0.707813 -0.0643709 -0.669638 0.739893 
0.0192158 -0.654166 0.756107 -0.132414 -0.699926 0.701833 -0.228985 -0.811188 0.538089 
-0.28053 -0.890919 0.357165 0.0136183 0.997734 0.0658883 0.417194 0.885983 0.202442 
0.0790206 0.993648 0.0801262 0.202351 0.972738 0.113295 -0.0901493 0.99482 0.0469665 
-0.000677053 0.999759 -0.0219423 -0.205645 0.978175 0.0297471 -0.378929 0.92352 0.0593518 
-0.4202 0.905609 0.0574758 0.640082 0.726471 0.250069 0.668013 0.698879 0.255591 
-0.420419 0.905109 0.0634523 -0.409393 0.895561 -0.174265 -0.420654 0.903176 0.0855734 
-0.463043 0.882654 0.0807022 0.78855 0.557073 0.260497 0.806001 0.539482 0.243559 
-0.508999 0.855356 0.0963599 -0.651202 0.74777 0.129525 0.807702 0.547331 0.219195 
0.819111 0.542913 0.185212 -0.75539 0.641194 0.135116 -0.838357 0.511822 0.187602 
0.825585 0.534539 0.18077 -0.868658 0.451837 0.203167 0.903493 0.384506 0.189353 
-0.91993 0.258005 0.295233 0.972356 0.137989 0.188369 -0.919062 0.0693011 0.387971 
0.972685 -0.128736 0.193162 -0.876503 -0.172346 0.449488 -0.992274 -0.118823 0.0356942 
0.927835 -0.323137 0.186291 -0.792122 -0.419194 0.443643 -0.707839 -0.538875 0.456702 
0.834851 -0.523843 0.169149 0.796891 -0.582591 0.159853 -0.651057 -0.610108 0.451544 
-0.55939 -0.703876 0.437768 -0.734923 -0.677916 0.0178328 0.638937 -0.749957 0.171243 
0.576723 -0.796062 0.183509 0.423136 -0.870518 0.251305 -0.338065 -0.852675 0.398318 
-0.499663 -0.757595 0.419984 -0.45592 -0.788599 0.412612 0.390941 -0.88285 0.260271 
0.310602 -0.905029 0.290599 0.168559 -0.933929 0.315221 -0.00734799 -0.959113 0.282929 
-0.165646 -0.946983 0.27529 -0.238453 -0.929133 0.282579 -0.287194 -0.900981 0.325197 
-0.276398 -0.907606 0.315999 0.364586 0.915639 -0.169361 0.147749 0.959544 -0.239678 
-0.0465888 0.957112 -0.285946 -0.213147 0.916337 -0.338962 -0.365296 0.871986 -0.325883 
0.613535 0.784532 -0.0899145 0.621445 0.778653 -0.0866346 -0.389828 0.861608 -0.325063 
-0.342259 0.802614 -0.488537 -0.387883 0.862688 -0.324524 -0.375168 0.885091 -0.275431 
-0.417741 0.869495 -0.263575 0.826679 0.561148 -0.0414119 0.841535 0.538067 -0.0479944 
-0.427912 0.864834 -0.26259 -0.417956 0.864096 -0.280448 -0.628069 0.739323 -0.242759 
0.848935 0.524101 -0.0680258 0.843624 0.526652 -0.104579 -0.709152 0.668042 -0.225439 
-0.610112 0.660341 -0.43785 -0.804821 0.566299 -0.177676 0.848114 0.51802 -0.111169 
0.842664 0.501849 -0.195103 -0.841876 0.514594 -0.162596 -0.774685 0.522653 -0.355946 
0.912259 0.387355 -0.133189 -0.926332 0.359335 -0.113085 0.977691 0.14835 -0.148703 
-0.98628 0.154692 -0.0576315 -0.996881 0.0651727 -0.044499 0.981189 -0.12861 -0.143973 
-0.988674 -0.149049 -0.0175303 -0.991193 -0.113134 -0.0688224 0.928709 -0.334464 -0.160102 
-0.895554 -0.44479 -0.0120219 0.817419 -0.549338 -0.173363 0.786419 -0.590492 -0.181285 
0.776054 -0.555459 -0.298674 -0.58615 -0.80872 -0.0490008 -0.735432 -0.67704 -0.0275106 
-0.729925 -0.682922 -0.0287702 -0.730641 -0.679708 -0.0644998 0.667251 -0.724427 -0.173151 
0.623841 -0.764027 -0.164575 0.620546 -0.705774 -0.341768 0.485647 -0.866241 -0.117359 
-0.322086 -0.945378 -0.050209 -0.561691 -0.825815 -0.0503249 -0.462877 -0.884718 -0.0549401 
0.471376 -0.874642 -0.113163 0.336913 -0.937857 -0.0831446 0.148725 -0.984867 -0.0889867 
-0.0279683 -0.993487 -0.110459 -0.164289 -0.979435 -0.117116 -0.205122 -0.97376 -0.0985762 
-0.296454 -0.953671 -0.0512458 -0.22872 -0.971605 -0.0605799 -0.223131 -0.912555 -0.342718 
0.283933 0.860645 -0.422697 0.0736547 0.865453 -0.495546 -0.0942118 0.836033 -0.54053 
-0.230047 0.799228 -0.55526 0.402911 0.826909 -0.39228 0.574644 0.743566 -0.341897 
0.264661 0.824601 -0.499988 0.0430737 0.801541 -0.596387 -0.106862 0.767988 -0.631486 
-0.280228 0.785502 -0.551778 -0.227934 0.773177 -0.591814 -0.319934 0.773938 -0.5465 
-0.317482 0.79615 -0.515122 -0.32078 0.822426 -0.469803 0.765201 0.573808 -0.291912 
0.816849 0.505653 -0.27762 -0.247917 0.670813 -0.698961 -0.270626 0.753341 -0.599365 
-0.329351 0.819895 -0.468294 -0.319133 0.817278 -0.479802 -0.432147 0.751946 -0.497821 
0.825565 0.487999 -0.28337 0.787018 0.455581 -0.415991 -0.56495 0.656753 -0.499506 
-0.420901 0.605086 -0.675805 -0.591266 0.630427 -0.502957 0.828797 0.458962 -0.320076 
0.834188 0.432435 -0.342243 -0.696493 0.509371 -0.505409 -0.531852 0.436616 -0.725603 
-0.739388 0.451261 -0.499669 0.85347 0.349812 -0.386292 0.780655 0.299989 -0.548255 
-0.795382 0.343629 -0.499286 -0.709947 0.324909 -0.624827 0.899863 0.124896 -0.417909 
0.707511 0.0759256 -0.702612 -0.841714 0.152216 -0.518023 -0.620191 0.12545 -0.774355 
0.889223 -0.136938 -0.436499 0.690581 -0.149844 -0.707563 -0.831265 -0.123778 -0.54192 
-0.602336 -0.114557 -0.78998 0.822707 -0.349509 -0.448326 0.753404 -0.474093 -0.455652 
0.736296 -0.355406 -0.575807 -0.331116 -0.333216 -0.882796 -0.754857 -0.411456 -0.510778 
-0.679336 -0.531351 -0.50613 -0.631778 -0.40737 -0.659474 0.694825 -0.546241 -0.467802 
0.601254 -0.652833 -0.460763 0.516262 -0.501403 -0.694312 -0.270489 -0.411891 -0.870162 
-0.592793 -0.623696 -0.50951 -0.53012 -0.673882 -0.514642 -0.471134 -0.563021 -0.679 
0.575085 -0.676377 -0.460208 0.475295 -0.749738 -0.46042 0.417751 -0.606607 -0.676396 
-0.217973 -0.86124 -0.459079 -0.212406 -0.524543 -0.824462 -0.326776 -0.796533 -0.508678 
-0.284813 -0.596629 -0.750277 -0.454578 -0.735229 -0.50279 -0.430348 -0.749665 -0.502795 
-0.42196 -0.714919 -0.557531 0.365677 -0.814998 -0.449509 0.330067 -0.829761 -0.450057 
0.327532 -0.803504 -0.497096 0.133404 -0.874453 -0.466406 0.129456 -0.768431 -0.626702 
-0.0341517 -0.88268 -0.468731 -0.0335767 -0.758139 -0.651227 -0.141944 -0.869484 -0.473127 
-0.135363 -0.787462 -0.601315 -0.193909 -0.871504 -0.450422 -0.168773 -0.875051 -0.453654 
-0.165075 -0.848998 -0.501949 0.517456 0.598944 -0.611151 0.226277 0.70837 -0.668588 
0.0177447 0.726016 -0.687449 -0.122372 0.679365 -0.723524 -0.212266 0.654887 -0.725304 
0.518923 0.597957 -0.610873 0.517338 0.597888 -0.612284 0.209431 0.585795 -0.782932 
-0.0125925 0.554351 -0.832188 -0.133027 0.567721 -0.812402 -0.240082 0.661055 -0.710891 
-0.197716 0.603589 -0.772392 -0.243017 0.659277 -0.711545 -0.247717 0.645089 -0.722839 
-0.303589 0.591351 -0.747087 0.702927 0.420337 -0.573768 0.722186 0.375466 -0.580924 
0.477847 0.34771 -0.806697 -0.145522 0.397887 -0.90582 -0.191661 0.436226 -0.879189 
-0.228394 0.483196 -0.845197 -0.340922 0.554497 -0.759148 -0.300341 0.533623 -0.790596 
-0.396589 0.436724 -0.807459 0.719194 0.344019 -0.603665 0.663372 0.305687 -0.683003 
0.380819 0.146995 -0.91289 -0.214521 0.155434 -0.964272 -0.263397 0.204464 -0.942771 
-0.439439 0.357764 -0.823953 -0.366218 0.297532 -0.88168 -0.443279 0.280738 -0.851287 
0.696168 0.24562 -0.674552 0.526895 0.147603 -0.837015 0.269759 0.0179168 -0.962761 
-0.20309 -0.0137731 -0.979063 -0.180469 0.0287641 -0.98316 -0.246265 0.118705 -0.961906 
-0.456012 0.234472 -0.858531 -0.405405 0.212832 -0.889016 0.696069 0.0728612 -0.714269 
0.419233 0.000197006 -0.907878 0.186296 -0.0713182 -0.979902 -0.203887 -0.0402337 -0.978167 
-0.137896 -0.0429689 -0.989514 -0.189535 -0.00561308 -0.981858 -0.461465 0.0933084 -0.882238 
-0.331686 0.0552735 -0.941769 0.647091 -0.151788 -0.74715 0.397247 -0.135269 -0.907688 
0.203029 -0.134999 -0.969822 0.121888 -0.0929505 -0.988182 -0.143917 -0.142138 -0.979329 
-0.220838 -0.105539 -0.969583 -0.148617 -0.114802 -0.982209 -0.152637 -0.121719 -0.980758 
-0.450414 -0.122628 -0.884358 -0.318509 -0.292135 -0.901781 -0.290165 -0.127044 -0.948506 
0.563021 -0.333456 -0.756184 0.480156 -0.426058 -0.766762 0.435309 -0.314244 -0.843657 
0.230999 -0.252461 -0.939629 0.158881 -0.174457 -0.971762 0.0893579 -0.166644 -0.98196 
-0.137404 -0.214367 -0.96704 -0.140968 -0.240131 -0.960451 -0.167672 -0.187885 -0.967773 
-0.159933 -0.204542 -0.965704 -0.3003 -0.316585 -0.899774 -0.240293 -0.347761 -0.906268 
-0.201684 -0.265391 -0.94281 0.433043 -0.453259 -0.779121 0.364178 -0.490816 -0.791501 
0.332937 -0.398043 -0.854819 0.205229 -0.326373 -0.922693 0.0500607 -0.32114 -0.945707 
-0.0701033 -0.319752 -0.944904 -0.10662 -0.28585 -0.952324 -0.120497 -0.291436 -0.948971 
-0.202537 -0.471926 -0.858059 -0.171857 -0.286847 -0.942435 -0.238168 -0.361171 -0.901571 
-0.231468 -0.383407 -0.894104 -0.221213 -0.330549 -0.917498 0.290442 -0.541496 -0.78894 
0.260716 -0.556297 -0.789025 0.252328 -0.525443 -0.812551 0.111726 -0.589072 -0.80032 
0.0902334 -0.476331 -0.874624 -0.0318748 -0.584284 -0.810923 -0.0333075 -0.459896 -0.887348 
-0.104479 -0.557565 -0.823532 -0.09372 -0.45743 -0.884293 -0.182595 -0.499854 -0.846643 
-0.145355 -0.526887 -0.837414 -0.140894 -0.481809 -0.864875 0.180644 0.312901 -0.932449 
-0.00206882 0.348049 -0.937474 -0.0859833 0.348831 -0.933233 0.182676 0.311593 -0.932491 
0.180648 0.311432 -0.93294 -0.000649067 0.317639 -0.948211 -0.0875708 0.348711 -0.93313 
-0.0856832 0.347107 -0.933903 -0.134883 0.293031 -0.946541 -0.181121 0.172055 -0.968293 
0.316068 0.119747 -0.941149 0.178713 0.0600818 -0.982065 0.0221178 0.0616787 -0.997851 
-0.0522995 0.0913631 -0.994443 -0.118432 0.125934 -0.984944 -0.182806 0.161495 -0.969794 
-0.180756 0.16235 -0.970036 0.254209 0.00828136 -0.967114 0.103975 -0.0840106 -0.991025 
0.0296845 -0.0997802 -0.994567 -0.0246377 -0.0954517 -0.995129 -0.0733607 -0.0887196 -0.993351 
-0.178531 0.00664789 -0.983912 -0.17159 0.0116613 -0.985099 0.117814 -0.0759766 -0.990125 
0.102909 -0.0878872 -0.9908 0.0686519 -0.0791753 -0.994494 0.0132195 -0.0569326 -0.99829 
-0.042067 -0.0269425 -0.998751 -0.013001 -0.0657185 -0.997754 -0.121438 -0.0281055 -0.992201 
-0.139562 -0.128236 -0.981875 -0.106843 -0.0263892 -0.993926 0.114469 -0.0841383 -0.989857 
0.0893241 -0.165911 -0.982087 0.0823998 -0.0431077 -0.995667 -0.0330278 -0.0176842 -0.999298 
-0.13162 -0.129525 -0.982802 -0.0832732 -0.0907162 -0.992389 -0.0739 -0.0699165 -0.994812 
0.0861887 -0.167565 -0.982086 -0.0799791 -0.21127 -0.97415 -0.0699512 -0.219448 -0.973113 
-0.0690525 -0.21026 -0.975204 
