# vtk DataFile Version 4.2
vtk output
ASCII
DATASET POLYDATA
POINTS 560 float
36.9023 3.52272 -23.6094 -33.5997 -35.645 -16.6625 -25.7661 -35.645 -18.2096 
-17.9326 -35.645 -18.4507 -10.099 -35.645 -18.4249 -2.2655 -35.645 -18.0087 
5.56805 -35.645 -17.6529 13.4016 -35.645 -17.412 21.2352 -35.645 -17.4793 
29.0687 -35.645 -16.4861 -41.4333 -27.8115 -17.5645 -33.5997 -27.8115 -19.5221 
-25.7661 -27.8115 -21.1595 -17.9326 -27.8115 -20.2462 -10.099 -27.8115 -20.7067 
-2.2655 -27.8115 -19.89 5.56805 -27.8115 -20.0133 13.4016 -27.8115 -20.1333 
21.2352 -27.8115 -20.2543 29.0687 -27.8115 -20.1992 36.9023 -27.8115 -19.1823 
44.7358 -27.8115 -17.2803 -49.2668 -19.9779 -15.995 -41.4333 -19.9779 -19.4351 
-33.5997 -19.9779 -21.1687 -25.7661 -19.9779 -20.7978 -17.9326 -19.9779 -20.0686 
-10.099 -19.9779 -19.5836 -2.2655 -19.9779 -19.9222 5.56805 -19.9779 -19.6656 
13.4016 -19.9779 -19.9076 21.2352 -19.9779 -20.3859 29.0687 -19.9779 -21.2566 
36.9023 -19.9779 -21.9242 44.7358 -19.9779 -19.9966 52.5694 -19.9779 -16.2916 
-49.2668 -12.1444 -16.727 -41.4333 -12.1444 -19.7491 -33.5997 -12.1444 -20.6512 
-25.7661 -12.1444 -20.0666 -17.9326 -12.1444 -18.7982 -10.099 -12.1444 -18.6039 
-2.2655 -12.1444 -19.93 5.56805 -12.1444 -19.1309 13.4016 -12.1444 -18.7599 
21.2352 -12.1444 -20.6092 29.0687 -12.1444 -21.9579 36.9023 -12.1444 -22.5047 
44.7358 -12.1444 -21.9432 52.5694 -12.1444 -19.0497 -49.2668 -4.31083 -16.7008 
-41.4333 -4.31083 -19.9088 -33.5997 -4.31083 -20.6207 -25.7661 -4.31083 -19.9706 
-17.9326 -4.31083 -18.721 -10.099 -4.31083 -20.1424 -2.2655 -4.31083 -20.7993 
5.56805 -4.31083 -20.9802 13.4016 -4.31083 -19.7845 21.2352 -4.31083 -21.0353 
29.0687 -4.31083 -22.6619 36.9023 0.0506788 -23.5614 36.9023 -4.31083 -23.501 
44.7358 -4.31083 -23.0823 52.5694 -4.31083 -19.9866 -49.2668 3.52272 -15.7891 
-41.4333 3.52272 -19.5223 -33.5997 3.52272 -20.6661 -25.7661 3.52272 -20.447 
-17.9326 3.52272 -20.0129 -10.099 3.52272 -21.6269 -2.2655 3.52272 -19.3778 
5.56805 3.52272 -21.1526 13.4016 3.52272 -21.1461 21.2352 3.52272 -21.6988 
36.2507 3.52272 -23.5614 29.0687 3.52272 -23.0329 37.3135 3.52272 -23.5614 
36.9023 3.94492 -23.5614 44.7358 3.52272 -22.6399 52.5694 3.52272 -18.2789 
-41.4333 11.3563 -18.8717 -33.5997 11.3563 -20.411 -25.7661 11.3563 -21.0611 
-17.9326 11.3563 -20.9001 -10.099 11.3563 -20.5898 -2.2655 11.3563 -19.7639 
5.56805 11.3563 -21.202 13.4016 11.3563 -21.3394 21.2352 11.3563 -21.9625 
29.0687 11.3563 -22.6831 36.9023 11.3563 -22.7855 44.7358 11.3563 -20.7158 
-41.4333 19.1898 -16.6842 -33.5997 19.1898 -19.987 -25.7661 19.1898 -21.2648 
-17.9326 19.1898 -21.1807 -10.099 19.1898 -20.3233 -2.2655 19.1898 -19.7947 
5.56805 19.1898 -20.6797 13.4016 19.1898 -21.5995 21.2352 19.1898 -22.2497 
29.0687 19.1898 -22.4013 36.9023 19.1898 -21.3562 44.7358 19.1898 -16.8803 
-33.5997 27.0234 -17.2499 -25.7661 27.0234 -19.6502 -17.9326 27.0234 -20.5425 
-10.099 27.0234 -20.1353 -2.2655 27.0234 -19.3906 5.56805 27.0234 -19.7902 
13.4016 27.0234 -20.876 21.2352 27.0234 -21.3305 29.0687 27.0234 -20.9858 
36.9023 27.0234 -17.0539 -25.7661 34.8569 -15.7933 -17.9326 34.8569 -18.1215 
-10.099 34.8569 -18.0955 -2.2655 34.8569 -17.7532 5.56805 34.8569 -17.8023 
13.4016 34.8569 -18.255 21.2352 34.8569 -18.2529 -33.5997 -36.7253 -15.7278 
-25.7661 -39.3495 -15.7278 -17.9326 -39.482 -15.7278 -17.9326 -43.4786 -7.96182 
-10.099 -38.8943 -15.7278 -2.2655 -38.1063 -15.7278 5.56805 -37.7146 -15.7278 
13.4016 -37.6477 -15.7278 21.2352 -37.8985 -15.7278 29.0687 -36.3944 -15.7278 
-35.6825 -35.645 -15.7278 -41.4333 -31.1671 -15.7278 -41.4333 -35.645 -11.453 
32.2673 -35.645 -15.7278 36.9023 -34.1259 -15.7278 36.9023 -35.645 -13.8078 
44.7358 -29.7444 -15.7278 -44.3535 -27.8115 -15.7278 -49.2668 -20.6373 -15.7278 
-49.2668 -27.8115 -10.641 46.9671 -27.8115 -15.7278 52.5694 -20.9021 -15.7278 
52.5694 -27.8115 -8.09241 -49.5703 -19.9779 -15.7278 53.2388 -19.9779 -15.7278 
-50.545 -12.1444 -15.7278 55.9291 -12.1444 -15.7278 -50.4287 -4.31083 -15.7278 
56.3051 -4.31083 -15.7278 -49.3347 3.52272 -15.7278 -49.2668 3.81273 -15.7278 
54.8024 3.52272 -15.7278 52.5694 8.22323 -15.7278 -46.9825 11.3563 -15.7278 
-49.2668 11.3563 -13.1319 50.8661 11.3563 -15.7278 52.5694 11.3563 -9.73226 
-42.5689 19.1898 -15.7278 -41.4333 20.8772 -15.7278 45.7032 19.1898 -15.7278 
44.7358 20.3854 -15.7278 -36.3144 27.0234 -15.7278 -41.4333 27.0234 -10.079 
-33.5997 29.4181 -15.7278 29.0687 34.6153 -15.7278 38.4841 27.0234 -15.7278 
36.9023 28.6074 -15.7278 -25.9034 34.8569 -15.7278 -33.5997 34.8569 -8.75977 
-25.7661 34.9365 -15.7278 -17.9326 37.9208 -15.7278 -10.099 38.0737 -15.7278 
-2.2655 37.6897 -15.7278 5.56805 37.6664 -15.7278 13.4016 38.05 -15.7278 
28.609 34.8569 -15.7278 21.2352 37.7593 -15.7278 29.0687 34.8569 -15.3019 
-10.099 42.6905 -9.26747 -2.2655 42.6905 -9.50873 5.56805 42.6905 -9.1997 
13.4016 42.6905 -8.35986 -17.9326 -43.5003 -7.89427 -41.4333 -37.8673 -7.89427 
-33.5997 -41.6019 -7.89427 -18.8103 -43.4786 -7.89427 -25.7661 -43.3112 -7.89427 
-17.7826 -43.4786 -7.89427 -17.9326 -43.4786 -7.67114 -10.099 -42.3684 -7.89427 
-2.2655 -41.2148 -7.89427 5.56805 -41.0459 -7.89427 13.4016 -41.6593 -7.89427 
21.2352 -42.0799 -7.89427 29.0687 -40.6349 -7.89427 36.9023 -38.3849 -7.89427 
-44.3501 -35.645 -7.89427 -49.2668 -30.3705 -7.89427 42.7009 -35.645 -7.89427 
44.7358 -34.4924 -7.89427 52.5694 -27.9306 -7.89427 -51.0091 -27.8115 -7.89427 
52.6753 -27.8115 -7.89427 52.5694 -27.8115 -6.29042 -54.4142 -19.9779 -7.89427 
57.3628 -19.9779 -7.89427 -56.768 -12.1444 -7.89427 -57.1004 -12.1444 -5.76911 
59.1056 -12.1444 -7.89427 -56.0849 -4.31083 -7.89427 -57.1004 -4.31083 -1.96301 
59.083 -4.31083 -7.89427 -54.7207 3.52272 -7.89427 57.3331 3.52272 -7.89427 
-52.3564 11.3563 -7.89427 -49.2668 17.6724 -7.89427 52.9996 11.3563 -7.89427 
52.5694 12.0277 -7.89427 52.5694 11.3563 -4.08879 -48.4658 19.1898 -7.89427 
-49.2668 19.1898 -4.63462 47.4569 19.1898 -7.89427 44.7358 22.5986 -7.89427 
-42.7548 27.0234 -7.89427 -41.4333 28.437 -7.89427 40.9624 27.0234 -7.89427 
36.9023 31.3759 -7.89427 -34.2146 34.8569 -7.89427 -33.5997 35.3138 -7.89427 
-25.7661 39.6502 -7.89427 -17.9326 42.2173 -7.89427 21.2352 41.4397 -7.89427 
32.9775 34.8569 -7.89427 29.0687 37.6813 -7.89427 -14.5964 42.6905 -7.89427 
-17.9326 42.6905 -4.55087 -10.099 43.3259 -7.89427 -2.2655 43.5139 -7.89427 
5.56805 43.3365 -7.89427 14.5554 42.6905 -7.89427 13.4016 42.8937 -7.89427 
-41.4333 -37.998 -0.0607203 -33.5997 -41.3299 -0.0607203 -25.7661 -42.5367 -0.0607203 
-17.9326 -42.6194 -0.0607203 -10.099 -40.5588 -0.0607203 -2.2655 -39.0963 -0.0607203 
5.56805 -39.3642 -0.0607203 13.4016 -40.647 -0.0607203 21.2352 -41.4152 -0.0607203 
29.0687 -40.1457 -0.0607203 36.9023 -37.8577 -0.0607203 -44.7833 -35.645 -0.0607203 
-49.2668 -31.3773 -0.0607203 -41.4333 -35.645 5.13095 -2.2655 -35.645 5.47083 
5.56805 -35.645 6.30461 42.5247 -35.645 -0.0607203 36.9023 -35.645 4.39552 
44.7358 -34.5592 -0.0607203 -51.8095 -27.8115 -0.0607203 -49.2668 -27.8115 7.69571 
52.03 -27.8115 -0.0607203 52.5694 -27.1444 -0.0607203 -55.5497 -19.9779 -0.0607203 
-57.1004 -14.9033 -0.0607203 57.2227 -19.9779 -0.0607203 -57.8487 -12.1444 -0.0607203 
-57.1004 -12.1444 4.49545 58.8411 -12.1444 -0.0607203 -57.4006 -4.31083 -0.0607203 
-57.1004 -2.32729 -0.0607203 -57.1004 -4.31083 2.87799 58.5429 -4.31083 -0.0607203 
-56.1656 3.52272 -0.0607203 56.5391 3.52272 -0.0607203 52.5694 10.5815 -0.0607203 
-53.8229 11.3563 -0.0607203 52.0908 11.3563 -0.0607203 -50.2073 19.1898 -0.0607203 
-49.2668 20.6703 -0.0607203 46.2189 19.1898 -0.0607203 44.7358 21.1971 -0.0607203 
-44.633 27.0234 -0.0607203 -41.4333 30.3977 -0.0607203 40.1337 27.0234 -0.0607203 
36.9023 30.7657 -0.0607203 -36.363 34.8569 -0.0607203 -33.5997 36.8701 -0.0607203 
-25.7661 40.7014 -0.0607203 21.2352 41.7855 -0.0607203 32.549 34.8569 -0.0607203 
29.0687 37.4451 -0.0607203 -19.8731 42.6905 -0.0607203 -17.9326 43.2979 -0.0607203 
-10.099 44.3409 -0.0607203 -2.2655 44.644 -0.0607203 5.56805 44.4158 -0.0607203 
17.7396 42.6905 -0.0607203 13.4016 43.6896 -0.0607203 13.4016 42.6905 6.93086 
-33.5997 -37.8517 7.77283 -25.7661 -38.9366 7.77283 -17.9326 -37.8087 7.77283 
-10.099 -35.7033 7.77283 13.4016 -36.2024 7.77283 21.2352 -37.0396 7.77283 
29.0687 -36.384 7.77283 -38.9404 -35.645 7.77283 -41.4333 -34.4776 7.77283 
-33.5997 -35.645 10.919 -25.7661 -35.645 11.725 -17.9326 -35.645 10.4147 
-9.81834 -35.645 7.77283 -10.099 -35.645 7.84043 -2.2655 -33.8248 7.77283 
10.5187 -35.645 7.77283 5.56805 -34.4629 7.77283 13.4016 -35.645 8.41836 
21.2352 -35.645 9.34383 31.3411 -35.645 7.77283 29.0687 -35.645 8.57271 
36.9023 -33.6477 7.77283 44.7358 -29.4428 7.77283 -49.2369 -27.8115 7.77283 
-49.2668 -27.7763 7.77283 -41.4333 -27.8115 15.3222 -10.099 -27.8115 14.593 
-2.2655 -27.8115 12.7513 5.56805 -27.8115 12.7065 13.4016 -27.8115 13.7773 
21.2352 -27.8115 14.5034 29.0687 -27.8115 14.5808 36.9023 -27.8115 13.2211 
46.7768 -27.8115 7.77283 44.7358 -27.8115 9.50413 52.5694 -20.9862 7.77283 
-54.0647 -19.9779 7.77283 5.56805 -19.9779 15.2298 44.7358 -19.9779 15.4312 
53.2685 -19.9779 7.77283 52.5694 -19.9779 8.54758 -56.4682 -12.1444 7.77283 
55.5845 -12.1444 7.77283 52.5694 -12.1444 11.8503 -56.5712 -4.31083 7.77283 
55.6134 -4.31083 7.77283 52.5694 -4.31083 12.535 -55.464 3.52272 7.77283 
53.9204 3.52272 7.77283 52.5694 6.19047 7.77283 52.5694 3.52272 10.1486 
-53.3091 11.3563 7.77283 49.8474 11.3563 7.77283 -49.5659 19.1898 7.77283 
-49.2668 19.6736 7.77283 -49.2668 19.1898 8.63505 44.9424 19.1898 7.77283 
44.7358 19.4989 7.77283 44.7358 19.1898 8.83689 -44.1693 27.0234 7.77283 
-41.4333 30.0117 7.77283 -41.4333 27.0234 15.0383 39.2814 27.0234 7.77283 
36.9023 29.7618 7.77283 -36.0889 34.8569 7.77283 -33.5997 36.6766 7.77283 
-33.5997 34.8569 14.3281 -25.7661 40.5505 7.77283 13.4016 42.5707 7.77283 
21.2352 40.6194 7.77283 31.4772 34.8569 7.77283 29.0687 36.6373 7.77283 
-18.9837 42.6905 7.77283 -17.9326 43.0104 7.77283 -17.9326 42.6905 9.73707 
[...]
POINT_DATA 560
SCALARS ImageScalars float
LOOKUP_TABLE default
0 0 0 0 0 0 0 0 0 
0 0 0 0 0 0 0 0 0 
0 0 0 0 0 0 0 0 0 
0 0 0 0 0 0 0 0 0 
0 0 0 0 0 0 0 0 0 
0 0 0 0 0 0 0 0 0 
0 0 0 0 0 0 0 0 0 
0 0 0 0 0 0 0 0 0 
0 0 0 0 0 0 0 0 0 
0 0 0 0 0 0 0 0 0 
0 0 0 0 0 0 0 0 0 
0 0 0 0 0 0 0 0 0 
0 0 0 0 0 0 0 0 0 
0 0 0 0 0 0 0 0 0 
0 0 0 0 0 0 0 0 0 
0 0 0 0 0 0 0 0 0 
0 0 0 0 0 0 0 0 0 
0 0 0 0 0 0 0 0 0 
0 0 0 0 0 0 0 0 0 
0 0 0 0 0 0 0 0 0 
0 0 0 0 0 0 0 0 0 
0 0 0 0 0 0 0 0 0 
0 0 0 0 0 0 0 0 0 
0 0 0 0 0 0 0 0 0 
0 0 0 0 0 0 0 0 0 
0 0 0 0 0 0 0 0 0 
0 0 0 0 0 0 0 0 0 
0 0 0 0 0 0 0 0 0 
0 0 0 0 0 0 0 0 0 
0 0 0 0 0 0 0 0 0 
0 0 0 0 0 0 0 0 0 
0 0 0 0 0 0 0 0 0 
0 0 0 0 0 0 0 0 0 
0 0 0 0 0 0 0 0 0 
0 0 0 0 0 0 0 0 0 
0 0 0 0 0 0 0 0 0 
0 0 0 0 0 0 0 0 0 
0 0 0 0 0 0 0 0 0 
0 0 0 0 0 0 0 0 0 
0 0 0 0 0 0 0 0 0 
0 0 0 0 0 0 0 0 0 
0 0 0 0 0 0 0 0 0 
0 0 0 0 0 0 0 0 0 
0 0 0 0 0 0 0 0 0 
0 0 0 0 0 0 0 0 0 
0 0 0 0 0 0 0 0 0 
0 0 0 0 0 0 0 0 0 
0 0 0 0 0 0 0 0 0 
0 0 0 0 0 0 0 0 0 
0 0 0 0 0 0 0 0 0 
0 0 0 0 0 0 0 0 0 
0 0 0 0 0 0 0 0 0 
0 0 0 0 0 0 0 0 0 
0 0 0 0 0 0 0 0 0 
0 0 0 0 0 0 0 0 0 
0 0 0 0 0 0 0 0 0 
0 0 0 0 0 0 0 0 0 
0 0 0 0 0 0 0 0 0 
0 0 0 0 0 0 0 0 0 
0 0 0 0 0 0 0 0 0 
0 0 0 0 0 0 0 0 0 
0 0 0 0 0 0 0 0 0 
0 0 
NORMALS Normals float
-0.0212083 -0.049588 0.998545 0.293145 0.548644 0.782978 0.0931086 0.467956 0.878833 
0.0146803 0.427364 0.90396 -0.025072 0.492359 0.870031 -0.046082 0.544688 0.837372 
-0.034778 0.584126 0.810918 -0.00939909 0.559679 0.828656 -0.0450479 0.553622 0.831549 
-0.166518 0.64907 0.74228 0.389745 0.362032 0.846777 0.201234 0.245401 0.948305 
0.0415012 0.155504 0.986963 -0.025997 0.0894842 0.995649 -0.0234406 0.0478251 0.998581 
-0.0411011 0.096627 0.994472 0.0149219 0.0959079 0.995278 0.017047 0.130156 0.991347 
0.00410007 0.165818 0.986148 -0.0714762 0.256991 0.963767 -0.164399 0.389286 0.906327 
-0.424766 0.524793 0.737677 0.62942 0.222086 0.744653 0.290725 0.114837 0.94989 
0.0951291 0.0698799 0.993009 -0.068942 -0.0676829 0.995322 -0.0768516 -0.0903762 0.992938 
-0.00936785 -0.131595 0.991259 0.00521305 0.00252435 0.999983 -0.000948701 -0.0568271 0.998384 
0.0462622 -0.0837466 0.995413 0.0889587 0.0244434 0.995735 0.0944408 0.104832 0.989995 
-0.0788795 0.21587 0.973231 -0.304752 0.269224 0.913589 -0.59528 0.420036 0.68499 
0.527038 0.0427005 0.848769 0.220578 0.0309387 0.974879 0.0176049 -0.0333998 0.999287 
-0.119359 -0.0537463 0.991395 -0.0945427 -0.0872957 0.991686 0.0703403 0.0150038 0.99741 
0.0360611 0.0540004 0.99789 -0.0725958 0.083733 0.99384 0.0961554 -0.0108744 0.995307 
0.198248 0.0412669 0.979283 0.124706 0.0924191 0.98788 0.000796317 0.0988397 0.995103 
-0.198458 0.191841 0.961151 -0.575873 0.202883 0.791965 0.562672 -0.0511213 0.825098 
0.217439 -0.0134552 0.975981 0.00179763 0.000931974 0.999998 -0.120175 0.0241302 0.992459 
-0.00852251 0.0755045 0.997109 0.142981 0.211316 0.966903 0.0465337 -0.0309981 0.998436 
-0.0632959 0.126624 0.989929 0.00327548 0.153438 0.988153 0.180361 0.0680038 0.981247 
0.154556 0.0677086 0.985661 0.000512065 0.00317615 0.999995 0.0279673 0.0698971 0.997162 
-0.177097 0.0438685 0.983215 -0.607488 -0.0296138 0.793777 0.630449 -0.143482 0.762855 
0.270864 -0.0663291 0.96033 0.0542026 -0.0131749 0.998443 -0.0402848 0.0694042 0.996775 
0.0751339 0.140691 0.987199 -0.0327495 0.0102583 0.999411 -0.0416053 -0.0648178 0.997029 
0.111182 0.01506 0.993686 0.0338908 0.0967385 0.994733 0.122065 0.0591916 0.990755 
-0.00991567 -0.0454545 0.998917 0.1181 0.00113039 0.993001 -0.033194 -0.0540417 0.997987 
-0.0257807 -0.0533498 0.998243 -0.272656 -0.140024 0.951868 -0.69295 -0.27096 0.668133 
0.346808 -0.144099 0.926801 0.137984 -0.040122 0.989622 0.0304832 0.0517218 0.998196 
-0.0294355 0.0717407 0.996989 -0.0732466 -0.0831905 0.993838 0.0385803 0.0244132 0.998957 
0.101866 -0.0295101 0.99436 0.0485801 0.0290588 0.998397 0.0856095 0.0343055 0.995738 
0.0528761 -0.039476 0.99782 -0.106414 -0.125467 0.986374 -0.442829 -0.29071 0.848169 
0.537595 -0.375664 0.754896 0.236699 -0.184297 0.953943 0.0689921 -0.0919515 0.993371 
-0.0599192 -0.0210186 0.997982 -0.0879614 -0.0288237 0.995707 0.0206307 -0.0236314 0.999508 
0.116374 -0.0896976 0.989147 0.0974857 -0.0295793 0.994797 0.0508625 -0.0377075 0.997994 
-0.0482481 -0.0950039 0.994307 -0.259827 -0.330364 0.907386 -0.660437 -0.557761 0.502718 
0.40002 -0.432706 0.807929 0.18662 -0.299315 0.935726 0.0304415 -0.185705 0.982134 
-0.0711398 -0.119753 0.990252 -0.0236165 -0.114008 0.993199 0.0949815 -0.161388 0.98231 
0.0952373 -0.183839 0.978332 0.0114386 -0.23415 0.972133 -0.227539 -0.372372 0.899758 
-0.547636 -0.578608 0.604406 0.351224 -0.616883 0.704341 0.130048 -0.501274 0.85546 
-0.0212425 -0.43988 0.897805 -0.0166204 -0.405523 0.913934 0.0283247 -0.438841 0.898118 
0.0255117 -0.497067 0.867337 -0.146301 -0.57879 0.802246 0.306992 0.603077 0.736243 
0.128014 0.668798 0.73234 -0.0224375 0.673025 0.73928 -0.0584415 0.99188 0.112952 
-0.0704532 0.725048 0.685085 -0.0622949 0.72727 0.683519 -0.0245302 0.729642 0.683389 
0.00953423 0.682447 0.730873 -0.0638453 0.678663 0.73167 -0.179413 0.689281 0.701928 
0.344865 0.576751 0.740558 0.426288 0.476357 0.769001 0.523325 0.721398 0.453559 
-0.234361 0.686551 0.688275 -0.288641 0.657843 0.69565 -0.335196 0.774812 0.536014 
-0.455085 0.590487 0.666501 0.481142 0.399547 0.780298 0.634558 0.238784 0.735063 
0.763414 0.473811 0.438978 -0.503273 0.549873 0.6666 -0.611125 0.440354 0.657734 
-0.747589 0.630448 0.208918 0.644239 0.222332 0.731796 -0.625262 0.419752 0.657918 
0.58813 0.0466462 0.80742 -0.782577 0.149062 0.604445 0.619675 -0.0589794 0.78264 
-0.826463 -0.0658694 0.559125 0.633664 -0.143873 0.760112 0.634129 -0.148755 0.758783 
-0.795412 -0.291638 0.531289 -0.781466 -0.398992 0.479705 0.60876 -0.25501 0.751253 
0.755372 -0.30966 0.577515 -0.75671 -0.452511 0.47183 -0.842402 -0.521955 0.133871 
0.576885 -0.401016 0.711611 0.566072 -0.425574 0.70601 -0.695549 -0.579597 0.424593 
-0.685684 -0.591864 0.423714 0.490308 -0.480145 0.727364 0.684321 -0.605535 0.406241 
0.446962 -0.520262 0.727704 -0.416398 -0.702357 0.577328 -0.602126 -0.614162 0.510146 
-0.578154 -0.629814 0.518722 0.35456 -0.619151 0.700671 0.532356 -0.774822 0.340951 
0.352172 -0.620233 0.700918 0.147596 -0.667704 0.729648 -0.00873701 -0.632004 0.774916 
-0.017652 -0.582382 0.812724 0.0166325 -0.602552 0.797906 0.00129614 -0.6717 0.740822 
-0.405011 -0.705541 0.581531 -0.181103 -0.736979 0.651202 -0.427535 -0.717914 0.549376 
0.0709615 -0.936243 0.344111 -0.00267571 -0.924294 0.381673 -0.0326371 -0.931872 0.361317 
-0.108143 -0.95456 0.277705 -0.0586128 0.992279 0.109301 0.533644 0.811019 0.239734 
0.301634 0.931574 0.202946 -0.0395559 0.993219 0.109323 0.113068 0.987345 0.111199 
-0.0602462 0.992321 0.108028 -0.0600135 0.993355 0.0982063 -0.149693 0.987505 0.0492578 
-0.0858776 0.995945 0.0268073 0.0288753 0.997698 0.0613572 0.0676147 0.990394 0.120612 
-0.064291 0.985099 0.15952 -0.226402 0.958072 0.175615 -0.352027 0.92038 0.170227 
0.612685 0.750971 0.246291 0.785478 0.552413 0.27904 -0.492525 0.844777 0.209216 
-0.54606 0.808271 0.220265 -0.747717 0.633714 0.198308 0.833998 0.475122 0.280546 
-0.751001 0.629934 0.197943 -0.759287 0.640362 0.115845 0.896969 0.311575 0.313637 
-0.900728 0.391565 0.188058 0.940717 0.0929573 0.326207 0.967949 0.0985308 0.231013 
-0.982802 0.0929892 0.159542 0.933146 -0.117981 0.339586 0.989098 -0.110123 0.0977682 
-0.986783 -0.111659 0.117439 0.909772 -0.217375 0.353643 -0.933128 -0.34893 0.0867166 
0.876447 -0.351263 0.329324 0.824962 -0.45853 0.330436 -0.847788 -0.528014 0.0495565 
-0.8424 -0.536637 0.0488201 -0.844337 -0.532991 -0.054905 0.808241 -0.485451 0.333291 
0.843055 -0.494177 0.212245 -0.783863 -0.620457 0.0243231 -0.766532 -0.641201 0.0359229 
0.717496 -0.620424 0.316661 0.695322 -0.646822 0.313287 -0.742086 -0.667085 0.0656224 
-0.693823 -0.714299 0.0915836 0.543843 -0.781174 0.306598 0.533294 -0.788931 0.305263 
0.392869 -0.878197 0.272807 0.207533 -0.941048 0.26713 -0.294712 -0.934602 0.199157 
-0.606851 -0.785711 0.119961 -0.516057 -0.844973 0.140378 0.150104 -0.950362 0.272546 
0.213817 -0.96206 0.169479 0.0775329 -0.956204 0.282247 0.000546685 -0.950807 0.309784 
-0.0378567 -0.952465 0.302286 -0.137171 -0.958736 0.249016 -0.111714 -0.959942 0.256965 
0.490376 0.855585 -0.165848 0.244086 0.945289 -0.216449 0.0708303 0.969164 -0.236016 
-0.11223 0.94056 -0.320549 -0.197781 0.907544 -0.370468 -0.0677625 0.914026 -0.399955 
0.0917085 0.930285 -0.35519 0.119576 0.946337 -0.300246 -0.0322621 0.957035 -0.288172 
-0.199853 0.953757 -0.224515 -0.325641 0.914442 -0.240319 0.587321 0.795545 -0.148867 
0.763649 0.637675 -0.101046 0.460504 0.805257 -0.373493 -0.0562058 0.804222 -0.591665 
0.110926 0.785509 -0.608828 -0.459417 0.855119 -0.240223 -0.331541 0.839722 -0.430056 
-0.525162 0.817594 -0.236105 0.845237 0.528653 -0.0781083 0.707693 0.584644 -0.396689 
-0.73661 0.637468 -0.22592 -0.756214 0.614433 -0.224973 0.944504 0.327808 -0.0212894 
0.98263 0.184544 -0.0195241 -0.895513 0.395658 -0.203743 0.9938 0.110205 -0.0146791 
0.975659 0.13334 -0.174096 -0.975856 0.0681364 -0.207514 0.994018 -0.105715 0.0274256 
0.990635 -0.133222 0.029893 0.993615 -0.0914089 -0.0661355 -0.966867 -0.143112 -0.211395 
0.975664 -0.21572 0.0393144 -0.90574 -0.372496 -0.202193 -0.838864 -0.515994 -0.173368 
0.932231 -0.358512 0.0491409 -0.830958 -0.530128 -0.168739 0.867419 -0.494739 0.0530791 
0.852295 -0.520104 0.0555507 -0.788752 -0.600916 -0.129497 -0.784124 -0.609616 -0.116267 
0.760771 -0.645676 0.0658018 0.697382 -0.713378 0.0689182 -0.760761 -0.643853 -0.0818261 
-0.723782 -0.686412 -0.0705534 0.592302 -0.802439 0.0725938 0.535757 -0.841414 0.0706184 
0.381102 -0.923339 0.0469601 -0.341975 -0.938479 -0.0480574 -0.626463 -0.777058 -0.0610292 
-0.551525 -0.832168 -0.0575919 0.263303 -0.963646 0.0453705 0.222764 -0.97374 0.0469708 
0.0842063 -0.995838 0.0348819 0.00539616 -0.999583 0.0283731 -0.0604099 -0.998113 0.0109996 
-0.257487 -0.96562 -0.0357652 -0.161139 -0.986719 -0.0204709 -0.168759 -0.965018 -0.20065 
0.217112 0.843591 -0.491139 0.000558836 0.829027 -0.559209 -0.167857 0.792064 -0.586905 
-0.19653 0.758108 -0.621811 0.128325 0.764025 -0.632296 0.0107676 0.77763 -0.62863 
-0.169908 0.774262 -0.60963 0.368361 0.794687 -0.482475 0.441672 0.76032 -0.476277 
0.207646 0.770921 -0.602133 -0.0257481 0.733067 -0.679669 -0.174122 0.740582 -0.649015 
-0.191772 0.757929 -0.623512 -0.19686 0.756732 -0.62338 -0.0591928 0.728807 -0.682155 
0.123449 0.754109 -0.645042 0.108474 0.722408 -0.682906 0.129674 0.743083 -0.656515 
0.00575151 0.728033 -0.685518 -0.218922 0.766268 -0.604074 -0.167628 0.747215 -0.643094 
-0.321045 0.742116 -0.588382 -0.482941 0.671552 -0.561949 0.705498 0.585019 -0.400032 
0.706757 0.583969 -0.399343 0.373412 0.574789 -0.728136 -0.219477 0.52759 -0.820657 
-0.100034 0.537565 -0.837267 0.0599029 0.446645 -0.892704 0.104498 0.404102 -0.908726 
0.0467483 0.423947 -0.90448 -0.0628395 0.500009 -0.863737 -0.233929 0.573885 -0.784814 
-0.542195 0.635361 -0.549855 -0.468253 0.634906 -0.614519 -0.716553 0.43062 -0.548743 
0.876734 0.36331 -0.315187 -0.00785454 0.326967 -0.945003 -0.411437 0.395415 -0.821199 
-0.728384 0.40274 -0.554307 -0.712375 0.401039 -0.575925 0.944224 0.148411 -0.293965 
-0.860952 0.106607 -0.497391 -0.746227 0.160397 -0.646079 0.970985 -0.061524 -0.23109 
-0.8922 -0.0963767 -0.441239 -0.790689 -0.0503502 -0.610144 0.960082 -0.193522 -0.201969 
-0.859966 -0.319271 -0.398152 -0.850125 -0.373761 -0.370931 -0.831753 -0.29239 -0.471906 
0.919876 -0.346459 -0.183834 -0.832397 -0.466868 -0.29858 0.85545 -0.482319 -0.188608 
0.851143 -0.490084 -0.188079 0.848145 -0.481976 -0.219885 -0.826558 -0.544213 -0.143643 
-0.824965 -0.5471 -0.141826 -0.828113 -0.532035 -0.176546 0.757463 -0.631623 -0.165232 
0.707319 -0.689626 -0.155293 0.681959 -0.580477 -0.444948 -0.767491 -0.632544 -0.104147 
-0.732013 -0.672787 -0.107303 0.591181 -0.795401 -0.133574 0.537139 -0.833756 -0.1278 
0.539571 -0.735191 -0.410314 0.369612 -0.922693 -0.109659 -0.169788 -0.960002 -0.222638 
-0.334716 -0.92313 -0.189201 -0.596835 -0.792971 -0.122416 -0.538827 -0.832565 -0.128456 
0.228834 -0.968476 -0.0984389 0.206951 -0.973401 -0.0982933 0.205854 -0.963385 -0.171796 
0.0598855 -0.990167 -0.126427 0.0218729 -0.936839 -0.349078 -0.0241709 -0.985958 -0.165233 
-0.0622604 -0.933797 -0.352345 -0.158908 -0.962442 -0.220124 -0.0868505 -0.974363 -0.207541 
-0.0981684 -0.946834 -0.306379 0.16107 0.584323 -0.795376 -0.0422169 0.584466 -0.810319 
-0.196279 0.511661 -0.836468 0.624864 0.424029 -0.655549 0.34732 0.567576 -0.746476 
0.366419 0.563322 -0.740544 0.142363 0.515649 -0.84489 -0.0459351 0.459691 -0.88689 
-0.211806 0.49182 -0.844542 -0.194611 0.449555 -0.871795 -0.21201 0.47499 -0.85407 
-0.167573 0.457049 -0.873513 0.118861 0.30862 -0.94373 0.073309 0.371567 -0.925507 
-0.0346818 0.454753 -0.889942 -0.184533 0.467588 -0.86447 0.64349 0.406788 -0.648416 
0.617784 0.409164 -0.671512 0.286082 0.381125 -0.879148 0.0587277 0.334733 -0.940481 
-0.124294 0.270425 -0.954684 -0.148797 0.257254 -0.954819 -0.167171 0.329316 -0.929303 
-0.0630031 0.364949 -0.928893 -0.185788 0.442638 -0.877243 0.0375463 0.312146 -0.949292 
-0.0218358 0.346074 -0.937953 0.127159 0.282458 -0.950814 0.117912 0.317136 -0.941021 
0.0117937 0.352766 -0.935637 -0.393916 0.393721 -0.83055 -0.161354 0.382102 -0.909925 
-0.410826 0.383482 -0.827142 0.748698 0.197702 -0.632745 0.607465 0.196222 -0.769729 
0.251342 0.224602 -0.941478 -0.144899 0.179511 -0.973026 -0.120484 0.191304 -0.974108 
-0.0206999 0.279947 -0.959792 -0.0654757 0.306446 -0.949633 -0.119742 0.483857 -0.866917 
0.0507252 0.415765 -0.908056 0.103399 0.262859 -0.959278 0.018088 0.224764 -0.974245 
-0.136934 0.24154 -0.960681 -0.54687 0.198639 -0.813312 -0.418736 0.212254 -0.882954 
0.817575 0.0128891 -0.575679 0.620203 0.0271056 -0.783973 0.234707 0.0396193 -0.971258 
-0.0504431 0.151436 -0.987179 -0.0547305 0.226289 -0.972521 -0.0110616 0.115633 -0.99323 
0.0780789 0.163436 -0.983459 -0.0605131 0.253125 -0.965539 -0.0602933 0.184193 -0.981039 
-0.0181928 0.162402 -0.986557 -0.168631 0.11487 -0.978963 -0.648827 0.00649555 -0.760908 
-0.450689 0.0511465 -0.891215 0.823542 -0.157684 -0.544899 0.669563 -0.117695 -0.733371 
0.271911 -0.0312847 -0.961814 -0.109644 0.121319 -0.986539 0.0354664 -0.0221601 -0.999125 
0.0260207 0.0134837 -0.99957 -0.00255215 0.14994 -0.988692 -0.048701 0.141913 -0.98868 
-0.240334 0.0761383 -0.9677 -0.70403 -0.177282 -0.687687 -0.547934 -0.0843346 -0.832259 
0.798216 -0.333926 -0.501343 0.781527 -0.376023 -0.497819 0.748865 -0.318471 -0.581186 
0.336772 -0.180294 -0.924164 -0.022211 0.00606958 -0.999735 0.116334 0.0226629 -0.992952 
-0.365664 -0.0102568 -0.93069 -0.77203 -0.282839 -0.569186 -0.793891 -0.360111 -0.489956 
-0.723082 -0.241045 -0.64734 0.727155 -0.437651 -0.528873 0.674739 -0.565975 -0.473708 
0.519249 -0.353045 -0.778293 0.214653 -0.195996 -0.956823 0.00504832 0.0326891 -0.999453 
-0.797817 -0.425639 -0.42699 -0.526909 -0.2434 -0.814324 0.671858 -0.57115 -0.471586 
0.533655 -0.701872 -0.471793 0.377662 -0.381821 -0.843554 0.169385 -0.202925 -0.964433 
-0.116102 -0.101069 -0.988082 -0.0202939 -0.123754 -0.992105 0.0497816 -0.22299 -0.973549 
-0.291977 -0.429339 -0.854645 -0.728634 -0.589622 -0.348481 -0.706173 -0.615214 -0.350474 
-0.690124 -0.578961 -0.434204 0.51894 -0.716768 -0.465773 0.383374 -0.817785 -0.429246 
0.339245 -0.59664 -0.727278 0.199268 -0.883133 -0.424698 0.140681 -0.464807 -0.874164 
0.00904196 -0.904168 -0.427082 -0.0150673 -0.456462 -0.889615 -0.0895339 -0.861702 -0.499452 
-0.124997 -0.434001 -0.892199 -0.120214 -0.805892 -0.57973 -0.117182 -0.484827 -0.866724 
-0.12493 -0.792109 -0.597457 -0.0632155 -0.555802 -0.828908 -0.253125 -0.827248 -0.501586 
-0.166027 -0.67116 -0.722481 -0.476821 -0.791406 -0.382516 -0.466079 -0.796515 -0.385141 
-0.462493 -0.789117 -0.404222 -0.00797549 0.163412 -0.986526 -0.00578966 0.163211 -0.986574 
-0.00956865 0.162733 -0.986624 -0.00833335 0.162609 -0.986655 -0.111989 0.122134 -0.986175 
0.202701 0.0423964 -0.978322 0.0238723 0.0608674 -0.99786 -0.0898407 0.116774 -0.989087 
-0.1022 0.105589 -0.989144 -0.00474354 0.0668273 -0.997753 -0.0517831 0.158932 -0.985931 
0.237913 -0.0222236 -0.971032 0.0558763 0.0209825 -0.998217 -0.0573194 0.0422368 -0.997462 
-0.000334998 0.0583274 -0.998297 -0.0787203 0.0924756 -0.992598 -0.0436628 0.0611445 -0.997173 
-0.0996078 0.0595642 -0.993242 0.0221762 0.144441 -0.989265 -0.0563858 0.135337 -0.989194 
0.243138 -0.149647 -0.958379 0.167668 -0.160371 -0.972712 0.104847 -0.104654 -0.988966 
-0.0670625 -0.020493 -0.997538 -0.0288729 0.0486835 -0.998397 0.00231073 0.00938857 -0.999953 
-0.0901413 0.0438244 -0.994964 -0.0981297 0.0480949 -0.994011 0.103015 0.0505224 -0.993396 
0.139173 0.00548521 -0.990253 0.0599537 0.137382 -0.988702 -0.228826 0.0535564 -0.971993 
-0.08225 0.106643 -0.99089 0.139988 -0.123496 -0.982422 0.135219 -0.145608 -0.980058 
0.0941526 -0.0756936 -0.992676 0.0291283 0.0330513 -0.999029 -0.0457676 0.0514266 -0.997627 
-0.0954909 -0.00904142 -0.995389 -0.112376 -0.0576543 -0.991992 -0.108477 -0.0146671 -0.993991 
0.128587 0.000313654 -0.991698 0.122467 -0.0780243 -0.989401 0.156465 -0.00749926 -0.987655 
0.0800585 -0.0357601 -0.996149 -0.348313 -0.162874 -0.92312 -0.23293 -0.285849 -0.929534 
-0.175525 -0.0937144 -0.980004 0.144364 -0.174371 -0.97404 0.112716 -0.221991 -0.968512 
0.0994 -0.130503 -0.986453 -0.110846 -0.100555 -0.988737 -0.0270434 -0.309692 -0.950452 
-0.0435607 -0.0918118 -0.994823 0.000692338 -0.261964 -0.965077 -0.0895777 -0.318681 -0.94362 
-0.0434099 -0.316793 -0.947501 -0.0372291 -0.292625 -0.955502 
