# vtk DataFile Version 4.2
vtk output
ASCII
DATASET POLYDATA
POINTS 534 float
-44.4885 -12.5717 -14.4921 -38.0557 -12.5717 -15.8716 -31.6229 -12.5717 -16.2977 
-25.1901 -12.5717 -16.315 -18.7573 -12.5717 -15.7926 -12.3245 -12.5717 -15.4836 
-5.89166 -12.5717 -15.7802 0.54115 -12.5717 -16.0217 6.97396 -12.5717 -15.6657 
13.4068 -12.5717 -15.8386 19.8396 -12.5717 -16.1919 26.2724 -12.5717 -16.0082 
32.7052 -12.5717 -16.0144 39.138 -12.5717 -15.6726 45.5708 -12.5717 -14.5146 
-44.4885 -6.13892 -15.2004 -38.0557 -6.13892 -16.5569 -31.6229 -6.13892 -17.7448 
-25.1901 -6.13892 -17.2812 -18.7573 -6.13892 -16.4374 -12.3245 -6.13892 -16.4278 
-5.89166 -6.13892 -16.5613 0.54115 -6.13892 -15.7565 6.97396 -6.13892 -17.475 
13.4068 -6.13892 -16.1324 19.8396 -6.13892 -16.2105 26.2724 -6.13892 -16.8825 
32.7052 -6.13892 -17.5286 39.138 -6.13892 -17.3456 45.5708 -6.13892 -16.3601 
52.0036 -6.13892 -14.9756 -44.4885 0.293889 -16.2694 -38.0557 0.293889 -17.2627 
-31.6229 0.293889 -17.3905 -25.1901 0.293889 -17.1767 -18.7573 0.293889 -16.6093 
-12.3245 0.293889 -18.9439 -5.89166 0.293889 -19.8122 0.54115 0.293889 -17.5029 
6.97396 0.293889 -18.6712 13.4068 0.293889 -15.3853 19.8396 0.293889 -15.8574 
26.2724 0.293889 -16.9859 32.7052 0.293889 -17.8067 39.138 0.293889 -17.3655 
45.5708 0.293889 -16.6102 52.0036 0.293889 -15.3378 -44.4885 6.7267 -15.6554 
-38.0557 6.7267 -16.977 -31.6229 6.7267 -18.2379 -25.1901 6.7267 -18.1238 
-18.7573 6.7267 -17.7832 -12.3245 6.7267 -19.3383 -5.89166 6.7267 -18.5228 
0.54115 6.7267 -16.2112 6.97396 6.7267 -17.8823 13.4068 6.7267 -16.1074 
19.8396 6.7267 -16.202 26.2724 6.7267 -16.8229 32.7052 6.7267 -17.452 
39.138 6.7267 -17.2258 45.5708 6.7267 -16.195 52.0036 6.7267 -14.6462 
-44.4885 13.1595 -14.9553 -38.0557 13.1595 -16.4823 -31.6229 13.1595 -17.7434 
-25.1901 13.1595 -18.0225 -18.7573 13.1595 -18.0652 -12.3245 13.1595 -17.8472 
-5.89166 13.1595 -16.5403 0.54115 13.1595 -16.4801 6.97396 13.1595 -17.3948 
13.4068 13.1595 -16.5988 19.8396 13.1595 -16.3556 26.2724 13.1595 -16.0589 
32.7052 13.1595 -15.9729 39.138 13.1595 -15.582 45.5708 13.1595 -14.3765 
-31.6229 19.5923 -15.2042 -25.1901 19.5923 -15.9612 -18.7573 19.5923 -16.2728 
-12.3245 19.5923 -15.7065 -5.89166 19.5923 -15.1091 0.54115 19.5923 -15.3521 
6.97396 19.5923 -15.7179 13.4068 19.5923 -14.5216 -44.4885 -13.2281 -14.1893 
-44.4885 -19.0045 -10.108 -38.0557 -16.4147 -14.1893 -38.0557 -19.0045 -12.6298 
-31.6229 -18.0143 -14.1893 -31.6229 -19.0045 -13.742 -25.1901 -18.472 -14.1893 
-25.1901 -19.0045 -13.9145 -18.7573 -17.1126 -14.1893 -18.7573 -19.0045 -13.1254 
-12.3245 -15.855 -14.1893 -12.3245 -19.0045 -12.3443 -5.89166 -17.482 -14.1893 
-5.89166 -19.0045 -13.3498 0.54115 -16.8501 -14.1893 0.54115 -19.0045 -12.4079 
6.97396 -15.1519 -14.1893 6.97396 -19.0045 -10.642 13.4068 -15.6306 -14.1893 
13.4068 -19.0045 -11.4926 19.8396 -16.5017 -14.1893 19.8396 -19.0045 -12.4147 
26.2724 -16.8087 -14.1893 26.2724 -19.0045 -12.9083 32.7052 -16.992 -14.1893 
32.7052 -19.0045 -12.8297 39.138 -15.5871 -14.1893 39.138 -19.0045 -11.813 
45.5708 -13.1036 -14.1893 45.5708 -19.0045 -8.95366 -45.0338 -12.5717 -14.1893 
-50.9213 -12.5717 -9.73491 46.3674 -12.5717 -14.1893 52.0036 -7.52892 -14.1893 
52.0036 -12.5717 -11.6603 -46.9528 -6.13892 -14.1893 -50.9213 -6.13892 -12.4036 
53.1125 -6.13892 -14.1893 58.4364 -6.13892 -10.501 -50.3146 0.293889 -14.1893 
-50.9213 0.293889 -13.9466 53.4448 0.293889 -14.1893 58.4364 0.293889 -10.4272 
-47.7393 6.7267 -14.1893 -50.9213 6.7267 -12.5131 52.9249 6.7267 -14.1893 
52.0036 7.3641 -14.1893 58.4364 6.7267 -10.1412 -45.7221 13.1595 -14.1893 
-50.9213 13.1595 -8.88706 -44.4885 14.663 -14.1893 -38.0557 18.6313 -14.1893 
19.8396 18.1869 -14.1893 26.2724 18.1302 -14.1893 32.7052 16.5145 -14.1893 
39.138 15.712 -14.1893 45.9465 13.1595 -14.1893 45.5708 13.4387 -14.1893 
52.0036 13.1595 -10.218 -44.4885 19.5923 -7.9748 -36.0729 19.5923 -14.1893 
-38.0557 19.5923 -13.272 -31.6229 20.8574 -14.1893 -25.1901 21.5893 -14.1893 
-18.7573 22.333 -14.1893 -12.3245 21.775 -14.1893 -5.89166 20.9701 -14.1893 
0.54115 21.2193 -14.1893 6.97396 21.4686 -14.1893 15.5564 19.5923 -14.1893 
13.4068 19.998 -14.1893 19.8396 19.5923 -13.2865 26.2724 19.5923 -13.3811 
32.7052 19.5923 -11.747 39.138 19.5923 -11.0764 -18.7573 26.0251 -7.98097 
-12.3245 26.0251 -8.57534 -44.4885 -20.7169 -7.75651 -38.0557 -22.8444 -7.75651 
-31.6229 -23.7745 -7.75651 -25.1901 -23.7822 -7.75651 -25.1901 -25.4373 -1.77866 
-18.7573 -22.6248 -7.75651 -12.3245 -22.2582 -7.75651 -5.89166 -22.4664 -7.75651 
0.54115 -21.4384 -7.75651 6.97396 -20.8479 -7.75651 13.4068 -21.72 -7.75651 
19.8396 -22.3806 -7.75651 26.2724 -22.857 -7.75651 32.7052 -22.3419 -7.75651 
39.138 -21.7989 -7.75651 45.5708 -19.912 -7.75651 -47.0399 -19.0045 -7.75651 
-50.9213 -15.0377 -7.75651 47.9267 -19.0045 -7.75651 52.0036 -17.1601 -7.75651 
52.0036 -19.0045 -1.74032 -53.1037 -12.5717 -7.75651 56.9003 -12.5717 -7.75651 
58.4364 -10.4513 -7.75651 58.4364 -12.5717 -4.46112 -55.4043 -6.13892 -7.75651 
-57.3541 -6.13892 -2.00202 61.8419 -6.13892 -7.75651 -56.6899 0.293889 -7.75651 
-57.3541 0.293889 -5.75328 61.4877 0.293889 -7.75651 -55.1736 6.7267 -7.75651 
60.1948 6.7267 -7.75651 58.4364 8.74951 -7.75651 -52.0341 13.1595 -7.75651 
-50.9213 14.2335 -7.75651 45.5708 19.0428 -7.75651 54.7255 13.1595 -7.75651 
52.0036 15.631 -7.75651 -44.6496 19.5923 -7.75651 -44.4885 19.6898 -7.75651 
-38.0557 22.401 -7.75651 -31.6229 24.004 -7.75651 -25.1901 25.5963 -7.75651 
-5.89166 25.9882 -7.75651 0.54115 25.4848 -7.75651 6.97396 25.4174 -7.75651 
13.4068 24.1776 -7.75651 19.8396 23.3932 -7.75651 26.2724 23.0889 -7.75651 
32.7052 22.3326 -7.75651 44.2825 19.5923 -7.75651 39.138 21.5182 -7.75651 
45.5708 19.5923 -4.9325 -19.9916 26.0251 -7.75651 -18.7573 26.1236 -7.75651 
-18.7573 26.0251 -4.11586 -6.41071 26.0251 -7.75651 -12.3245 26.4353 -7.75651 
-5.89166 26.0251 -7.37994 -25.1901 -25.5471 -1.3237 -44.4885 -22.5396 -1.3237 
-38.0557 -25.2789 -1.3237 -26.9969 -25.4373 -1.3237 -31.6229 -25.1563 -1.3237 
-24.6089 -25.4373 -1.3237 -25.1901 -25.4373 4.09538 -18.7573 -24.326 -1.3237 
-12.3245 -23.9353 -1.3237 -5.89166 -23.9129 -1.3237 0.54115 -22.4035 -1.3237 
6.97396 -22.1593 -1.3237 13.4068 -23.0625 -1.3237 19.8396 -23.832 -1.3237 
26.2724 -23.931 -1.3237 32.7052 -24.0981 -1.3237 39.138 -23.1342 -1.3237 
45.5708 -22.0477 -1.3237 52.0036 -19.1071 -1.3237 -50.2868 -19.0045 -1.3237 
-50.9213 -18.4493 -1.3237 52.2326 -19.0045 -1.3237 52.0036 -19.0045 -0.555827 
58.4364 -14.3965 -1.3237 -55.7999 -12.5717 -1.3237 -57.3541 -7.06221 -1.3237 
59.6347 -12.5717 -1.3237 58.4364 -12.5717 3.28241 -57.5581 -6.13892 -1.3237 
-57.3541 -6.13892 0.304056 63.648 -6.13892 -1.3237 -58.6936 0.293889 -1.3237 
-57.3541 4.86495 -1.3237 63.3958 0.293889 -1.3237 -56.8085 6.7267 -1.3237 
62.1849 6.7267 -1.3237 58.4364 11.2061 -1.3237 -53.4734 13.1595 -1.3237 
-50.9213 15.7085 -1.3237 56.8131 13.1595 -1.3237 52.0036 17.1983 -1.3237 
-45.1869 19.5923 -1.3237 -44.4885 19.9591 -1.3237 -44.4885 19.5923 1.2968 
-38.0557 22.8838 -1.3237 -31.6229 23.9506 -1.3237 -25.1901 25.1563 -1.3237 
-18.7573 25.9497 -1.3237 0.54115 25.9515 -1.3237 6.97396 25.9082 -1.3237 
13.4068 24.5151 -1.3237 19.8396 23.8015 -1.3237 26.2724 23.2709 -1.3237 
32.7052 23.2039 -1.3237 39.138 21.9293 -1.3237 46.967 19.5923 -1.3237 
45.5708 20.2652 -1.3237 45.5708 19.5923 1.20952 -18.1959 26.0251 -1.3237 
-12.3245 26.7805 -1.3237 -12.3245 26.0251 1.6559 -0.206653 26.0251 -1.3237 
-5.89166 26.5838 -1.3237 -5.89166 26.0251 1.41495 -44.4885 -22.1633 5.10911 
-38.0557 -24.7424 5.10911 -31.6229 -25.0628 5.10911 -25.1901 -25.4167 5.10911 
-18.7573 -24.3383 5.10911 -12.3245 -23.7999 5.10911 -5.89166 -23.2801 5.10911 
0.54115 -20.9538 5.10911 6.97396 -20.6465 5.10911 13.4068 -21.8446 5.10911 
19.8396 -22.821 5.10911 26.2724 -23.1477 5.10911 32.7052 -23.1167 5.10911 
39.138 -22.6759 5.10911 45.5708 -20.6526 5.10911 -49.591 -19.0045 5.10911 
-50.9213 -17.6178 5.10911 0.54115 -19.0045 10.6479 6.97396 -19.0045 8.44449 
13.4068 -19.0045 10.0911 19.8396 -19.0045 11.4088 39.138 -19.0045 10.4717 
49.7951 -19.0045 5.10911 45.5708 -19.0045 7.99293 52.0036 -17.9242 5.10911 
-54.9144 -12.5717 5.10911 -50.9213 -12.5717 10.4361 57.7656 -12.5717 5.10911 
52.0036 -12.5717 10.3772 58.4364 -11.8265 5.10911 -56.6347 -6.13892 5.10911 
-57.3541 -0.55715 5.10911 61.8019 -6.13892 5.10911 58.4364 -6.13892 8.84387 
-57.4522 0.293889 5.10911 -57.3541 0.619829 5.10911 -57.3541 0.293889 5.29426 
60.2033 0.293889 5.10911 58.4364 0.293889 7.03257 -55.2264 6.7267 5.10911 
-50.9213 6.7267 11.3935 52.0036 6.7267 11.47 59.5362 6.7267 5.10911 
58.4364 8.06514 5.10911 58.4364 6.7267 6.32056 -51.5771 13.1595 5.10911 
-50.9213 13.72 5.10911 -50.9213 13.1595 6.02632 -44.4885 18.8944 5.10911 
45.5708 18.3355 5.10911 45.5708 13.1595 10.0793 53.1404 13.1595 5.10911 
52.0036 14.1486 5.10911 52.0036 13.1595 6.15323 -42.4871 19.5923 5.10911 
-38.0557 20.8612 5.10911 -38.0557 19.5923 8.03715 -31.6229 22.6915 5.10911 
-25.1901 23.292 5.10911 -18.7573 24.0579 5.10911 -12.3245 25.0753 5.10911 
-5.89166 25.2091 5.10911 0.54115 24.4799 5.10911 6.97396 23.4785 5.10911 
6.97396 19.5923 9.4977 13.4068 22.1835 5.10911 13.4068 19.5923 8.47321 
19.8396 21.9803 5.10911 19.8396 19.5923 8.89767 26.2724 22.0876 5.10911 
26.2724 19.5923 9.41909 32.7052 21.4402 5.10911 32.7052 19.5923 8.12452 
41.8469 19.5923 5.10911 39.138 20.3469 5.10911 39.138 19.5923 6.30162 
-44.4885 -19.5921 11.5419 -38.0557 -21.9449 11.5419 -31.6229 -23.3229 11.5419 
-25.1901 -23.312 11.5419 -18.7573 -22.3552 11.5419 -12.3245 -21.5353 11.5419 
-5.89166 -20.6385 11.5419 26.2724 -19.2104 11.5419 32.7052 -19.121 11.5419 
-45.2705 -19.0045 11.5419 -44.4885 -19.0045 12.2079 -38.0557 -19.0045 15.0876 
-31.6229 -19.0045 16.9153 -25.1901 -19.0045 17.1408 -18.7573 -19.0045 16.2384 
-12.3245 -19.0045 14.9295 -0.452257 -19.0045 11.5419 -5.89166 -19.0045 13.8864 
0.54115 -18.6569 11.5419 6.97396 -17.0726 11.5419 13.4068 -17.698 11.5419 
[...]
POINT_DATA 534
SCALARS ImageScalars float
LOOKUP_TABLE default
0 0 0 0 0 0 0 0 0 
0 0 0 0 0 0 0 0 0 
0 0 0 0 0 0 0 0 0 
0 0 0 0 0 0 0 0 0 
0 0 0 0 0 0 0 0 0 
0 0 0 0 0 0 0 0 0 
0 0 0 0 0 0 0 0 0 
0 0 0 0 0 0 0 0 0 
0 0 0 0 0 0 0 0 0 
0 0 0 0 0 0 0 0 0 
0 0 0 0 0 0 0 0 0 
0 0 0 0 0 0 0 0 0 
0 0 0 0 0 0 0 0 0 
0 0 0 0 0 0 0 0 0 
0 0 0 0 0 0 0 0 0 
0 0 0 0 0 0 0 0 0 
0 0 0 0 0 0 0 0 0 
0 0 0 0 0 0 0 0 0 
0 0 0 0 0 0 0 0 0 
0 0 0 0 0 0 0 0 0 
0 0 0 0 0 0 0 0 0 
0 0 0 0 0 0 0 0 0 
0 0 0 0 0 0 0 0 0 
0 0 0 0 0 0 0 0 0 
0 0 0 0 0 0 0 0 0 
0 0 0 0 0 0 0 0 0 
0 0 0 0 0 0 0 0 0 
0 0 0 0 0 0 0 0 0 
0 0 0 0 0 0 0 0 0 
0 0 0 0 0 0 0 0 0 
0 0 0 0 0 0 0 0 0 
0 0 0 0 0 0 0 0 0 
0 0 0 0 0 0 0 0 0 
0 0 0 0 0 0 0 0 0 
0 0 0 0 0 0 0 0 0 
0 0 0 0 0 0 0 0 0 
0 0 0 0 0 0 0 0 0 
0 0 0 0 0 0 0 0 0 
0 0 0 0 0 0 0 0 0 
0 0 0 0 0 0 0 0 0 
0 0 0 0 0 0 0 0 0 
0 0 0 0 0 0 0 0 0 
0 0 0 0 0 0 0 0 0 
0 0 0 0 0 0 0 0 0 
0 0 0 0 0 0 0 0 0 
0 0 0 0 0 0 0 0 0 
0 0 0 0 0 0 0 0 0 
0 0 0 0 0 0 0 0 0 
0 0 0 0 0 0 0 0 0 
0 0 0 0 0 0 0 0 0 
0 0 0 0 0 0 0 0 0 
0 0 0 0 0 0 0 0 0 
0 0 0 0 0 0 0 0 0 
0 0 0 0 0 0 0 0 0 
0 0 0 0 0 0 0 0 0 
0 0 0 0 0 0 0 0 0 
0 0 0 0 0 0 0 0 0 
0 0 0 0 0 0 0 0 0 
0 0 0 0 0 0 0 0 0 
0 0 0 
NORMALS Normals float
0.376204 0.281818 0.882638 0.148318 0.262053 0.953588 0.0301477 0.276822 0.960448 
-0.0390841 0.234275 0.971384 -0.061948 0.210916 0.975539 -0.000838176 0.246248 0.969207 
0.0398919 0.195568 0.979878 -0.00786011 0.171764 0.985107 -0.0129844 0.387787 0.921657 
0.0387087 0.267717 0.96272 0.0133787 0.230381 0.973008 -0.0126972 0.260593 0.965365 
-0.0236571 0.298534 0.954106 -0.111576 0.366055 0.92388 -0.253838 0.392336 0.884103 
0.274666 0.129037 0.952842 0.185877 0.0971484 0.977759 0.0545878 0.079089 0.995372 
-0.103657 0.0654266 0.992459 -0.0672773 0.0642833 0.995661 0.00862503 0.216999 0.976134 
-0.0523841 0.298788 0.952881 0.0757576 0.119145 0.989982 0.0235254 0.225664 0.973921 
-0.0955819 -0.0270526 0.995054 0.0599552 -0.0268582 0.99784 0.097587 0.0743445 0.992446 
0.0353224 0.133423 0.990429 -0.0844237 0.116397 0.989608 -0.163723 0.1547 0.974301 
-0.413495 0.263283 0.87161 0.206823 0.0329882 0.977822 0.08153 0.0328009 0.996131 
-0.00487572 0.0477259 0.998849 -0.0637049 0.0606355 0.996125 0.0896265 0.107083 0.990202 
0.271834 0.243346 0.931069 -0.141208 0.150271 0.978509 -0.0736452 0.0347772 0.996678 
-0.132003 0.0291493 0.990821 -0.219287 -0.00612297 0.975641 0.118445 0.00122419 0.99296 
0.149304 -0.00458541 0.988781 0.0295593 -0.00581472 0.999546 -0.0905872 -0.0100156 0.995838 
-0.139678 -0.0118545 0.990126 -0.445042 -0.0183688 0.895321 0.286022 -0.0981341 0.953185 
0.199969 -0.0590579 0.978021 0.082 0.0256261 0.996303 -0.0387338 0.0605289 0.997415 
0.0910896 0.11428 0.989264 0.0735513 -0.0928471 0.99296 -0.253222 -0.262371 0.93115 
-0.0135974 -0.0839079 0.996381 -0.0048334 -0.0961727 0.995353 -0.13445 0.0876654 0.987035 
0.0547444 0.0378253 0.997784 0.0956834 -0.0709097 0.992883 0.0302274 -0.137388 0.990056 
-0.0892257 -0.115257 0.98932 -0.177421 -0.174968 0.968456 -0.340044 -0.338684 0.877305 
0.424055 -0.305664 0.852495 0.213218 -0.218922 0.952161 0.121106 -0.224177 0.966994 
0.0255635 -0.132093 0.990908 -0.0128276 -0.107505 0.994122 -0.114838 -0.260574 0.9586 
-0.10094 -0.223814 0.969391 0.0678386 -0.0623857 0.995744 0.0068989 -0.149242 0.988777 
-0.0802521 -0.105979 0.991125 -0.0417572 -0.182076 0.982397 -0.0280677 -0.231478 0.972435 
-0.0318701 -0.329808 0.94351 -0.126931 -0.39218 0.911089 -0.308324 -0.438413 0.844234 
0.152529 -0.574858 0.803911 0.0840646 -0.537753 0.838901 -0.022995 -0.478397 0.877843 
-0.0840208 -0.46595 0.880813 -0.026496 -0.416095 0.908935 0.0447318 -0.422917 0.905064 
-0.0591263 -0.496639 0.865941 -0.159506 -0.5509 0.819187 0.37874 0.31624 0.869798 
0.417599 0.694677 0.585693 0.171265 0.4661 0.867997 0.211176 0.632769 0.744989 
0.0632228 0.461435 0.884918 0.0688477 0.518819 0.852107 -0.0249651 0.551391 0.833873 
-0.0286292 0.588266 0.80816 -0.0784291 0.486362 0.87023 -0.0869985 0.645092 0.759136 
0.00679396 0.422806 0.906195 0.00851385 0.6785 0.734551 0.0318038 0.504867 0.862611 
0.017582 0.647486 0.761874 -0.0985412 0.510635 0.854132 -0.138836 0.757618 0.637762 
-0.0349246 0.524913 0.850439 -0.024852 0.823817 0.56631 0.0549146 0.467448 0.882313 
0.092152 0.751161 0.653655 0.0488118 0.489044 0.870892 0.0793116 0.699084 0.710627 
0.0172983 0.477559 0.878429 0.0232435 0.641688 0.766614 -0.0455962 0.533726 0.844427 
-0.0600692 0.692075 0.719321 -0.156996 0.482444 0.861742 -0.19976 0.703288 0.682262 
-0.259627 0.417424 0.870834 -0.29811 0.807145 0.509556 0.393325 0.288568 0.87294 
0.609629 0.454911 0.649159 -0.270769 0.402872 0.874287 -0.420847 0.309552 0.852681 
-0.453822 0.472283 0.755641 0.360565 0.170568 0.917006 0.554697 0.265727 0.78848 
-0.453662 0.242576 0.857524 -0.621115 0.217759 0.752859 0.458483 0.0181287 0.888518 
0.496617 0.0152579 0.867836 -0.501715 -0.000344673 0.865033 -0.663336 -0.0162278 0.748146 
0.41927 -0.169756 0.89185 0.597053 -0.282525 0.750804 -0.38347 -0.325794 0.864181 
-0.354887 -0.36602 0.860282 -0.727045 -0.349555 0.590946 0.477854 -0.33391 0.812502 
0.668069 -0.57707 0.46976 0.456966 -0.399712 0.794614 0.278754 -0.600404 0.749541 
-0.0631483 -0.521124 0.851142 -0.0675002 -0.501027 0.862795 -0.0795662 -0.511754 0.85544 
-0.156082 -0.503766 0.849622 -0.318112 -0.447392 0.83585 -0.312812 -0.45591 0.833243 
-0.534806 -0.598096 0.596878 0.479287 -0.843265 0.243286 0.242525 -0.643535 0.725978 
0.299191 -0.701533 0.64679 0.159047 -0.669712 0.72539 0.0929698 -0.658579 0.746746 
0.0122075 -0.662638 0.748841 -0.0710743 -0.589935 0.804317 -0.0291681 -0.512558 0.858157 
0.0279025 -0.555061 0.831341 -0.0755674 -0.638031 0.766294 -0.128433 -0.574437 0.808411 
-0.160585 -0.578702 0.799573 -0.0664289 -0.65114 0.756045 -0.0804096 -0.627076 0.774797 
-0.12667 -0.768999 0.626574 -0.229848 -0.787105 0.572395 0.0616901 -0.97477 0.214518 
-0.0134978 -0.946256 0.323138 0.416521 0.797195 0.437025 0.232752 0.8418 0.487031 
0.0592868 0.938468 0.34024 -0.0839005 0.895812 0.436443 -0.0639682 0.989447 0.130007 
-0.106902 0.906309 0.408872 -0.0112534 0.909638 0.415249 -0.0617054 0.927764 0.36803 
-0.121571 0.948053 0.293966 0.0194031 0.92167 0.387489 0.113701 0.907106 0.405254 
0.0849287 0.909099 0.407831 -0.001003 0.928227 0.372014 -0.0807606 0.907747 0.411672 
-0.168342 0.905736 0.388976 -0.289171 0.844343 0.451072 0.537275 0.711038 0.453609 
0.647647 0.56434 0.511931 -0.340431 0.824418 0.452152 -0.470952 0.726604 0.500251 
-0.402534 0.912578 0.0718867 0.705319 0.477057 0.524349 -0.664277 0.538853 0.518048 
-0.698014 0.470617 0.539719 -0.790101 0.559037 0.251434 0.851106 0.214989 0.478955 
0.97417 0.192155 0.118611 -0.757022 0.273968 0.593177 0.90094 -0.0180681 0.433567 
0.954014 -0.0318838 0.298062 -0.79788 -0.0961704 0.595096 0.866583 -0.263791 0.423612 
-0.785841 -0.426058 0.448251 -0.763631 -0.493448 0.416386 0.706487 -0.584413 0.399172 
0.676837 -0.615808 0.403328 -0.37646 -0.848324 0.372323 -0.634499 -0.628799 0.44947 
-0.537076 -0.717698 0.443237 0.483648 -0.844342 0.230589 0.476684 -0.849009 0.227939 
0.326906 -0.911715 0.248813 0.224176 -0.958638 0.175382 0.162163 -0.970732 0.177149 
-0.0714139 -0.956759 0.28198 -0.0424674 -0.965202 0.258033 -0.0975563 -0.961842 0.255621 
-0.155865 -0.950001 0.270562 -0.0869153 -0.948636 0.304196 -0.0764791 -0.96372 0.255723 
-0.129356 -0.931429 0.340158 -0.348539 -0.867947 0.353819 -0.23188 -0.928393 0.290377 
-0.3747 -0.906933 0.192541 0.082563 -0.977525 0.193982 0.0636217 -0.977828 0.199512 
0.0987968 -0.995107 -0.000910249 -0.0665385 -0.957706 0.27995 -0.0106907 -0.963342 0.268065 
-0.071207 -0.962569 0.261515 -0.0634841 0.991964 0.109439 0.426999 0.898709 0.0999722 
0.196909 0.972372 0.125376 -0.0402269 0.993305 0.10829 0.0215376 0.994376 0.103694 
-0.0690429 0.991513 0.110159 -0.0572984 0.991988 -0.11259 -0.124152 0.984757 0.121822 
-0.0317187 0.993282 0.111283 -0.110645 0.992116 0.0588553 -0.140025 0.989859 -0.0239384 
0.0523526 0.998511 -0.0153204 0.129134 0.991606 0.00640432 0.0671449 0.997328 0.0287824 
0.0205483 0.999548 0.0219305 -0.061614 0.996983 0.0472105 -0.148336 0.987118 0.0599546 
-0.30462 0.950686 0.0583356 -0.399813 0.915304 0.0486728 0.666302 0.735106 0.125142 
0.698156 0.704851 0.125554 -0.408322 0.911508 0.049263 -0.406522 0.913609 0.00771045 
-0.789297 0.612248 0.0465023 0.874683 0.47492 0.0968505 0.969685 0.228216 0.0873425 
-0.836896 0.546432 0.0319084 -0.763442 0.558923 -0.323668 0.977825 0.192068 0.0834698 
0.983156 0.182213 -0.0142319 -0.962313 0.268093 -0.0455973 0.99762 -0.0562595 0.0398609 
0.969913 -0.241848 0.0278965 -0.993794 -0.0905391 -0.0646282 0.946362 -0.322807 0.0139334 
-0.875474 -0.479491 -0.0602697 -0.789876 -0.611809 -0.0422593 0.777103 -0.629026 -0.0209217 
0.700295 -0.71285 -0.0378249 -0.733979 -0.676607 -0.0589817 -0.514329 -0.854752 -0.0697452 
0.456787 -0.888424 -0.0452609 0.430769 -0.901286 -0.0460625 0.430316 -0.892322 -0.136341 
0.303602 -0.946957 -0.105345 0.161843 -0.981088 -0.106172 0.150895 -0.9743 -0.167245 
0.123516 -0.980394 -0.153531 -0.0523643 -0.996336 -0.06762 -0.108807 -0.986798 -0.119961 
-0.163609 -0.977249 -0.134968 -0.0954249 -0.99032 -0.100798 -0.0461858 -0.995749 -0.0796872 
-0.103604 -0.992864 -0.0590533 -0.209047 -0.974834 -0.0774471 -0.381895 -0.923287 -0.0412037 
-0.356602 -0.933495 -0.0377257 -0.363198 -0.912926 -0.186156 0.116773 -0.981964 -0.148695 
0.0483902 -0.994024 -0.0978532 0.0668422 -0.974128 -0.215886 -0.0536176 -0.996385 -0.0658966 
-0.0640466 -0.996421 -0.055173 -0.0544048 -0.983594 -0.171995 0.433931 0.879949 -0.193377 
0.215074 0.947723 -0.23572 0.0495541 0.989098 -0.13867 -0.0558116 0.986525 -0.153796 
-0.123309 0.983164 -0.134844 -0.0796144 0.982844 -0.166372 -0.19183 0.953851 -0.231018 
-0.205348 0.939441 -0.274376 0.0683998 0.936869 -0.342927 0.15924 0.928632 -0.33509 
0.0969755 0.943604 -0.316556 0.0223595 0.959466 -0.280935 -0.0372829 0.941647 -0.334532 
-0.164007 0.94912 -0.268837 -0.344399 0.870911 -0.350577 0.657947 0.711552 -0.246574 
0.721428 0.634517 -0.277363 -0.230291 0.870734 -0.434498 0.0188459 0.879161 -0.476153 
0.122982 0.784517 -0.60779 0.0772562 0.672683 -0.735887 -0.157501 0.683278 -0.712969 
-0.408291 0.843619 -0.34872 -0.322888 0.774822 -0.543501 -0.46438 0.796386 -0.387454 
0.841097 0.436832 -0.318958 0.729535 0.394111 -0.558976 -0.691988 0.543765 -0.474839 
-0.466174 0.385378 -0.796345 -0.718824 0.503383 -0.479476 0.930856 0.14717 -0.334436 
0.931671 -0.0604394 -0.35824 -0.838966 0.160588 -0.519949 -0.696246 0.156606 -0.700511 
0.92773 -0.0916158 -0.361834 0.926426 -0.102216 -0.362335 0.924377 -0.0918792 -0.370252 
-0.771921 -0.16155 -0.614849 -0.740652 -0.161701 -0.65214 0.868376 -0.316405 -0.381852 
0.746218 -0.305277 -0.591577 -0.427458 -0.301699 -0.852207 -0.730628 -0.385726 -0.563381 
-0.710082 -0.442356 -0.547818 -0.710796 -0.377831 -0.593307 0.671522 -0.647656 -0.360001 
0.654246 -0.664136 -0.361781 0.652424 -0.646276 -0.395815 0.427832 -0.853824 -0.296554 
-0.370387 -0.810963 -0.452938 -0.354282 -0.507865 -0.785212 -0.571267 -0.612929 -0.545868 
-0.543766 -0.643924 -0.53822 -0.536704 -0.599103 -0.594158 0.3798 -0.875646 -0.298321 
0.292355 -0.895413 -0.335803 0.300901 -0.873898 -0.381787 0.159634 -0.957659 -0.239597 
0.106376 -0.943181 -0.314792 0.128551 -0.934352 -0.332355 0.084553 -0.929075 -0.360098 
-0.0416103 -0.939379 -0.340346 -0.120398 -0.919883 -0.373255 -0.162019 -0.836701 -0.523145 
-0.191656 -0.65299 -0.732716 -0.102146 -0.860178 -0.49966 -0.0408612 -0.773804 -0.632106 
-0.00521246 -0.90998 -0.41462 0.047584 -0.821126 -0.56876 -0.0361806 -0.939763 -0.339907 
-0.0316397 -0.801804 -0.596749 -0.130371 -0.911272 -0.390624 -0.1477 -0.81926 -0.554073 
-0.266409 -0.868887 -0.417208 -0.203873 -0.891292 -0.405011 -0.207603 -0.854087 -0.476902 
0.467064 0.696224 -0.54509 0.256522 0.816179 -0.517734 0.0913727 0.912312 -0.399171 
-0.0674215 0.885378 -0.459957 -0.124852 0.888104 -0.442361 -0.119862 0.868688 -0.48064 
-0.194616 0.851692 -0.486564 0.0140357 0.650313 -0.759537 -0.0691655 0.665371 -0.743302 
0.505195 0.658783 -0.557479 0.475391 0.66009 -0.581623 0.279412 0.675606 -0.682265 
0.116999 0.609889 -0.783803 -0.0320132 0.658092 -0.752256 -0.119091 0.70033 -0.703815 
-0.118236 0.738576 -0.663721 -0.227416 0.854772 -0.466527 -0.183634 0.78119 -0.596675 
-0.236358 0.849011 -0.472563 -0.0664825 0.753599 -0.653964 0.0836057 0.672064 -0.735758 
0.0554924 0.65882 -0.750251 0.0749039 0.657032 -0.750132 0.0140938 0.638833 -0.769216 
-0.0782782 0.658485 -0.748511 -0.0697693 0.658746 -0.749123 -0.152813 0.577218 -0.802164 
-0.289932 0.449021 -0.845175 0.696199 0.379446 -0.609367 0.730947 0.30121 -0.612364 
0.479158 0.372063 -0.79497 -0.274635 0.421068 -0.864452 -0.155718 0.47046 -0.868573 
-0.037626 0.290841 -0.956031 -0.00274331 0.21136 -0.977404 0.0228486 0.20896 -0.977657 
-0.0396959 0.248601 -0.967792 -0.169464 0.278327 -0.945419 -0.370003 0.353411 -0.859185 
-0.293136 0.367713 -0.882529 -0.431967 0.177652 -0.884219 0.76565 0.158907 -0.623321 
0.727656 0.145032 -0.670435 -0.281314 0.284487 -0.916477 -0.203237 0.0783179 -0.975992 
-0.0127128 0.00812049 -0.999886 0.0487511 0.0303341 -0.99835 0.0154048 0.0284065 -0.999478 
-0.0208075 0.0708835 -0.997268 -0.215555 0.0985502 -0.971506 -0.45966 0.0827498 -0.884232 
-0.41259 0.069248 -0.908281 0.744463 -0.088218 -0.66181 0.743964 -0.293127 -0.600495 
0.690423 -0.0860643 -0.718268 -0.344346 0.117867 -0.931415 -0.0446704 0.101715 -0.99381 
0.04719 0.0253512 -0.998564 -0.00200366 -0.0225433 -0.999744 -0.10699 -0.0614817 -0.992357 
-0.251365 -0.117229 -0.960767 -0.420348 -0.0407686 -0.906447 -0.424529 -0.158983 -0.891347 
-0.41534 -0.0399545 -0.908788 0.742522 -0.304704 -0.596503 0.51234 -0.302866 -0.803605 
-0.183367 -0.388296 -0.903107 -0.0955405 -0.122385 -0.987873 -0.100651 0.0101777 -0.99487 
-0.0751718 -0.051256 -0.995852 -0.0727598 -0.118378 -0.990299 -0.129198 -0.205481 -0.970096 
-0.420056 -0.300263 -0.856385 -0.287768 -0.403408 -0.868591 -0.226794 -0.293637 -0.928624 
0.559934 -0.60134 -0.569969 0.517783 -0.649955 -0.55629 0.531633 -0.595729 -0.602058 
0.324387 -0.827551 -0.458184 0.360901 -0.548022 -0.754601 -0.137613 -0.365934 -0.92041 
-0.0865988 -0.365786 -0.926661 -0.262499 -0.437466 -0.860069 -0.169936 -0.56392 -0.808156 
-0.146101 -0.505379 -0.850439 0.0380228 -0.647215 -0.761359 0.0769067 -0.501977 -0.861455 
0.0543907 -0.684315 -0.727155 0.0158968 -0.403559 -0.914816 -0.0447628 -0.638868 -0.768013 
-0.0768347 -0.352622 -0.932606 -0.155843 -0.57151 -0.805661 -0.155587 -0.38415 -0.910067 
-0.271388 -0.453603 -0.848877 -0.232207 -0.49351 -0.838169 -0.234203 -0.434311 -0.869783 
0.2373 -0.854349 -0.46236 0.187514 -0.866782 -0.46209 0.190015 -0.830837 -0.523071 
0.0487002 -0.89829 -0.436697 0.0440765 -0.857713 -0.512235 0.045093 -0.865081 -0.499601 
-0.00586063 -0.80256 -0.596542 0.0171355 -0.789203 -0.613894 -0.0205903 -0.709598 -0.704306 
-0.075222 -0.761944 -0.64326 -0.0834289 -0.676026 -0.73214 -0.230189 -0.660354 -0.714805 
-0.234931 -0.696487 -0.678021 -0.245298 -0.668518 -0.702078 0.285941 0.448326 -0.846901 
0.11669 0.519737 -0.84632 -0.0217847 0.580511 -0.813961 -0.107439 0.540449 -0.834489 
-0.102263 0.463979 -0.879924 -0.153138 0.470687 -0.868909 0.350224 0.373193 -0.85911 
0.465276 0.195884 -0.863219 0.282736 0.365394 -0.886875 0.0991838 0.351521 -0.930911 
-0.0293022 0.343861 -0.938563 -0.0906784 0.306814 -0.94744 -0.0871683 0.330865 -0.939644 
-0.224409 0.394745 -0.890964 -0.146053 0.379117 -0.91375 -0.262075 0.331964 -0.906155 
0.484346 0.159193 -0.860271 0.466112 0.163177 -0.869548 0.275917 0.172532 -0.94557 
0.111455 0.153398 -0.981859 -0.0700505 0.151575 -0.98596 -0.145326 0.107617 -0.983514 
-0.053275 0.0667022 -0.99635 -0.0993477 0.100645 -0.98995 -0.269469 0.265877 -0.925579 
-0.234622 0.22106 -0.946618 -0.295047 0.199929 -0.934332 0.561588 -0.0563772 -0.825494 
0.520549 -0.214713 -0.826394 0.52945 -0.0487765 -0.846938 0.272765 -0.0196 -0.961881 
0.0751596 0.0459085 -0.996114 -0.0864575 0.0119444 -0.996184 -0.180186 -0.00551091 -0.983617 
-0.0892912 -0.0680827 -0.993676 0.00239781 -0.0895515 -0.995979 -0.0932474 0.00543029 -0.995628 
-0.336484 0.0459107 -0.940569 -0.233129 -0.266787 -0.935134 -0.296827 -0.00217853 -0.954929 
0.484085 -0.296924 -0.823102 0.358929 -0.517843 -0.776537 0.345421 -0.258047 -0.902273 
0.155238 -0.211063 -0.965067 -0.118769 -0.169963 -0.978267 -0.221827 -0.155315 -0.962637 
-0.137743 -0.363039 -0.921536 -0.136465 -0.167591 -0.976366 -0.0694839 -0.321919 -0.944214 
-0.0311762 -0.219618 -0.975088 -0.176921 -0.347921 -0.920679 -0.208185 -0.349653 -0.913456 
-0.144758 -0.261377 -0.95432 0.336769 -0.54271 -0.76945 0.186657 -0.632402 -0.751816 
0.176815 -0.542556 -0.8212 0.0122681 -0.658501 -0.75248 -0.0242236 -0.480007 -0.87693 
-0.138242 -0.366374 -0.920141 -0.136369 -0.5301 -0.836897 -0.171811 -0.405847 -0.897646 

