# vtk DataFile Version 4.2
vtk output
ASCII
DATASET POLYDATA
POINTS 536 float
-19.6437 -38.3626 -14.0098 -11.3177 -38.3626 -16.145 -2.9918 -38.3626 -18.5134 
5.33414 -38.3626 -19.2817 13.6601 -38.3626 -18.76 21.986 -38.3626 -17.5912 
30.3119 -38.3626 -14.5898 -36.2955 -30.0367 -15.8075 -27.9696 -30.0367 -17.758 
-19.6437 -30.0367 -18.9746 -11.3177 -30.0367 -19.7314 -2.9918 -30.0367 -21.2394 
5.33414 -30.0367 -20.9601 13.6601 -30.0367 -19.7315 21.986 -30.0367 -19.1003 
30.3119 -30.0367 -18.2499 38.6379 -30.0367 -15.0182 -44.6215 -21.7107 -16.1994 
-36.2955 -21.7107 -18.1095 -27.9696 -21.7107 -19.8939 -19.6437 -21.7107 -20.3445 
-11.3177 -21.7107 -20.3888 -2.9918 -21.7107 -20.2469 5.33414 -21.7107 -19.3993 
13.6601 -21.7107 -18.33 21.986 -21.7107 -18.2059 30.3119 -21.7107 -18.2984 
38.6379 -21.7107 -18.1798 46.9638 -21.7107 -15.6446 -44.6215 -13.3848 -17.293 
-36.2955 -13.3848 -19.0367 -27.9696 -13.3848 -19.5773 -19.6437 -13.3848 -19.6522 
-11.3177 -13.3848 -19.5444 -2.9918 -13.3848 -18.9777 5.33414 -13.3848 -17.8839 
13.6601 -13.3848 -16.206 21.986 -13.3848 -17.642 30.3119 -13.3848 -19.1702 
38.6379 -13.3848 -19.4678 46.9638 -13.3848 -19.0917 55.2897 -13.3848 -15.2484 
-52.9474 -5.05885 -14.644 -44.6215 -5.05885 -18.537 -36.2955 -5.05885 -19.7318 
-27.9696 -5.05885 -19.7395 -19.6437 -5.05885 -19.3809 -11.3177 -5.05885 -20.4161 
-2.9918 -5.05885 -17.3522 5.33414 -5.05885 -20.7745 13.6601 -5.05885 -17.5109 
21.986 -5.05885 -18.6322 30.3119 -5.05885 -20.5909 38.6379 -5.05885 -21.6145 
46.9638 -5.05885 -20.5582 55.2897 -5.05885 -17.8135 -52.9474 3.26708 -14.3569 
-44.6215 3.26708 -18.0194 -36.2955 3.26708 -19.0682 -27.9696 3.26708 -18.882 
-19.6437 3.26708 -17.6636 -11.3177 3.26708 -19.2823 -2.9918 3.26708 -17.5596 
5.33414 3.26708 -20.2774 13.6601 3.26708 -19.1357 21.986 3.26708 -19.7174 
30.3119 3.26708 -21.0496 38.6379 3.26708 -21.6937 46.9638 3.26708 -20.604 
55.2897 3.26708 -17.2635 -44.6215 11.593 -15.2443 -36.2955 11.593 -16.931 
-27.9696 11.593 -17.1589 -19.6437 11.593 -16.1922 -11.3177 11.593 -17.6042 
-2.9918 11.593 -21.6727 5.33414 11.593 -21.2554 13.6601 11.593 -19.0543 
21.986 11.593 -20.3738 30.3119 11.593 -21.3391 38.6379 11.593 -21.0936 
46.9638 11.593 -19.1533 55.2897 11.593 -13.8389 -36.2955 19.919 -14.6489 
-27.9696 19.919 -16.0759 -19.6437 19.919 -16.748 -11.3177 19.919 -17.7048 
-2.9918 19.919 -18.0408 5.33414 19.919 -17.8184 13.6601 19.919 -18.9592 
21.986 19.919 -20.582 30.3119 19.919 -20.6215 38.6379 19.919 -19.4738 
46.9638 19.919 -15.843 -27.9696 28.2449 -15.023 -19.6437 28.2449 -16.8626 
-11.3177 28.2449 -17.4189 -2.9918 28.2449 -16.7961 5.33414 28.2449 -16.9565 
13.6601 28.2449 -18.1306 21.986 28.2449 -19.1926 30.3119 28.2449 -19.1855 
38.6379 28.2449 -16.9832 -19.6437 36.5708 -15.5139 -11.3177 36.5708 -16.1074 
-2.9918 36.5708 -16.0516 5.33414 36.5708 -16.1835 13.6601 36.5708 -16.4895 
21.986 36.5708 -16.8054 30.3119 36.5708 -15.6819 -19.6437 -38.675 -13.6675 
-11.3177 -40.652 -13.6675 -2.9918 -43.0601 -13.6675 5.33414 -44.6728 -13.6675 
5.33414 -46.6885 -5.9664 13.6601 -45.2797 -13.6675 13.6601 -46.6885 -8.69053 
21.986 -43.2431 -13.6675 30.3119 -39.5837 -13.6675 -36.2955 -33.8784 -13.6675 
-36.2955 -38.3626 -9.44806 -21.6478 -38.3626 -13.6675 -27.9696 -36.9761 -13.6675 
-27.9696 -38.3626 -12.3378 32.0485 -38.3626 -13.6675 38.6379 -32.4144 -13.6675 
-42.0108 -30.0367 -13.6675 -44.6215 -27.9175 -13.6675 -44.6215 -30.0367 -12.4949 
41.1593 -30.0367 -13.6675 46.9638 -24.8993 -13.6675 46.9638 -30.0367 -7.20915 
-49.0458 -21.7107 -13.6675 -52.9474 -21.7107 -10.2915 50.8851 -21.7107 -13.6675 
55.2897 -16.6766 -13.6675 55.2897 -21.7107 -8.61001 -52.0558 -13.3848 -13.6675 
-52.9474 -10.8593 -13.6675 -52.9474 -13.3848 -13.1256 57.4538 -13.3848 -13.6675 
-54.3536 -5.05885 -13.6675 61.4391 -5.05885 -13.6675 63.6157 -5.05885 -9.97087 
-53.7895 3.26708 -13.6675 -52.9474 5.7184 -13.6675 60.1035 3.26708 -13.6675 
63.6157 3.26708 -7.25379 -49.094 11.593 -13.6675 -52.9474 11.593 -11.4336 
-44.6215 15.3228 -13.6675 55.4714 11.593 -13.6675 55.2897 11.8712 -13.6675 
-39.1374 19.919 -13.6675 -44.6215 19.919 -11.3153 -36.2955 23.845 -13.6675 
49.6442 19.919 -13.6675 46.9638 23.4125 -13.6675 -44.6215 28.2449 -5.59444 
-32.5779 28.2449 -13.6675 -36.2955 28.2449 -12.4159 -27.9696 36.2788 -13.6675 
43.1031 28.2449 -13.6675 38.6379 32.7218 -13.6675 -36.2955 36.5708 -7.09561 
-27.7492 36.5708 -13.6675 -27.9696 36.5708 -13.6129 -19.6437 41.0248 -13.6675 
-11.3177 43.7957 -13.6675 -2.9918 44.5838 -13.6675 5.33414 44.4722 -13.6675 
13.6601 43.1424 -13.6675 21.986 41.2614 -13.6675 33.786 36.5708 -13.6675 
30.3119 38.7255 -13.6675 -27.9696 44.8968 -7.93322 -19.6437 44.8968 -11.82 
-11.3177 44.8968 -13.223 -2.9918 44.8968 -13.5411 5.33414 44.8968 -13.4923 
13.6601 44.8968 -12.5314 21.986 44.8968 -9.25896 -11.3177 53.2227 -6.60551 
-2.9918 53.2227 -5.8875 5.33414 53.2227 -5.91497 5.33414 -46.815 -5.34154 
13.6601 -47.3882 -5.34154 -36.2955 -40.7657 -5.34154 -27.9696 -43.0393 -5.34154 
-19.6437 -43.1667 -5.34154 -11.3177 -44.0478 -5.34154 4.52857 -46.6885 -5.34154 
-2.9918 -45.4973 -5.34154 5.33414 -46.6885 -4.79857 20.5987 -46.6885 -5.34154 
13.6601 -46.6885 -2.94726 21.986 -46.5432 -5.34154 30.3119 -43.8455 -5.34154 
-43.267 -38.3626 -5.34154 -44.6215 -37.7515 -5.34154 -44.6215 -38.3626 -3.06461 
38.4483 -38.3626 -5.34154 38.6379 -38.2257 -5.34154 46.9638 -31.2125 -5.34154 
-52.8536 -30.0367 -5.34154 -52.9474 -29.8865 -5.34154 -52.9474 -30.0367 -4.98112 
48.3625 -30.0367 -5.34154 55.2897 -23.7032 -5.34154 -56.8725 -21.7107 -5.34154 
57.0593 -21.7107 -5.34154 -59.6084 -13.3848 -5.34154 62.9421 -13.3848 -5.34154 
63.6157 -11.2684 -5.34154 -60.888 -5.05885 -5.34154 -61.2733 -5.05885 1.4045 
65.3602 -5.05885 -5.34154 -60.2594 3.26708 -5.34154 64.3096 3.26708 -5.34154 
63.6157 4.73107 -5.34154 -57.4109 11.593 -5.34154 -52.9474 19.0094 -5.34154 
59.8545 11.593 -5.34154 55.2897 17.7013 -5.34154 -52.2454 19.919 -5.34154 
-52.9474 19.919 -1.82478 53.5115 19.919 -5.34154 46.9638 27.5347 -5.34154 
-44.8188 28.2449 -5.34154 -44.6215 28.5176 -5.34154 46.3004 28.2449 -5.34154 
38.6379 35.9851 -5.34154 -38.1745 36.5708 -5.34154 -36.2955 39.016 -5.34154 
37.9766 36.5708 -5.34154 30.3119 42.2871 -5.34154 -31.0842 44.8968 -5.34154 
-27.9696 47.2315 -5.34154 -19.6437 51.8149 -5.34154 13.6601 50.7375 -5.34154 
25.6564 44.8968 -5.34154 21.986 46.9024 -5.34154 -15.032 53.2227 -5.34154 
-19.6437 53.2227 -0.323989 -11.3177 54.1056 -5.34154 -2.9918 53.5701 -5.34154 
6.51348 53.2227 -5.34154 5.33414 53.5828 -5.34154 -44.6215 -39.6884 2.9844 
-36.2955 -42.6476 2.9844 -27.9696 -44.2052 2.9844 -19.6437 -44.9286 2.9844 
-11.3177 -45.1297 2.9844 -2.9918 -45.1551 2.9844 5.33414 -44.8926 2.9844 
13.6601 -44.8687 2.9844 21.986 -44.0812 2.9844 30.3119 -42.0693 2.9844 
-46.5683 -38.3626 2.9844 -52.9474 -32.2646 2.9844 -44.6215 -38.3626 7.71534 
36.9766 -38.3626 2.9844 30.3119 -38.3626 10.8595 38.6379 -37.267 2.9844 
46.9638 -30.545 2.9844 -54.519 -30.0367 2.9844 -52.9474 -30.0367 7.94765 
47.6069 -30.0367 2.9844 46.9638 -30.0367 3.90714 55.2897 -22.937 2.9844 
-58.2584 -21.7107 2.9844 56.6897 -21.7107 2.9844 55.2897 -21.7107 4.79981 
-60.9791 -13.3848 2.9844 -61.2733 -6.88827 2.9844 62.4328 -13.3848 2.9844 
63.6157 -9.1475 2.9844 -61.3524 -5.05885 2.9844 -61.2733 -3.83762 2.9844 
-61.2733 -5.05885 3.22474 64.6865 -5.05885 2.9844 63.6157 -5.05885 5.13323 
-60.8013 3.26708 2.9844 63.7091 3.26708 2.9844 63.6157 3.4508 2.9844 
63.6157 3.26708 3.16201 -58.4216 11.593 2.9844 58.6926 11.593 2.9844 
55.2897 15.799 2.9844 55.2897 11.593 8.15073 -53.5889 19.919 2.9844 
-52.9474 20.7959 2.9844 -52.9474 19.919 4.79787 51.4886 19.919 2.9844 
46.9638 24.9227 2.9844 46.9638 19.919 8.65853 -47.1798 28.2449 2.9844 
-44.6215 31.6638 2.9844 -44.6215 28.2449 8.60911 43.6946 28.2449 2.9844 
38.6379 33.2624 2.9844 38.6379 28.2449 8.33773 -40.8922 36.5708 2.9844 
-36.2955 42.1257 2.9844 -36.2955 36.5708 10.6331 34.8665 36.5708 2.9844 
30.3119 40.1023 2.9844 30.3119 36.5708 7.46408 -33.5128 44.8968 2.9844 
-27.9696 49.2696 2.9844 -27.9696 44.8968 10.5553 13.6601 51.5477 2.9844 
23.2652 44.8968 2.9844 21.986 45.7284 2.9844 21.986 44.8968 4.49046 
-21.0633 53.2227 2.9844 -19.6437 53.9179 2.9844 -19.6437 53.2227 5.05291 
-11.3177 55.4696 2.9844 -11.3177 53.2227 9.664 -2.9918 55.9188 2.9844 
-2.9918 53.2227 9.59331 9.25875 53.2227 2.9844 5.33414 54.4406 2.9844 
5.33414 53.2227 6.36375 -36.2955 -40.7463 11.3103 -27.9696 -43.1802 11.3103 
-19.6437 -43.9829 11.3103 -11.3177 -44.4062 11.3103 -2.9918 -43.7826 11.3103 
5.33414 -42.3114 11.3103 13.6601 -41.167 11.3103 21.986 -40.443 11.3103 
-42.2067 -38.3626 11.3103 -44.6215 -37.003 11.3103 -36.2955 -38.3626 14.3016 
-27.9696 -38.3626 16.5693 -19.6437 -38.3626 18.0732 -11.3177 -38.3626 18.018 
-2.9918 -38.3626 17.5658 5.33414 -38.3626 16.0974 13.6601 -38.3626 14.8483 
29.4502 -38.3626 11.3103 21.986 -38.3626 13.9233 30.3119 -38.0665 11.3103 
38.6379 -32.0173 11.3103 -51.5119 -30.0367 11.3103 -52.9474 -27.3634 11.3103 
-44.6215 -30.0367 16.688 30.3119 -30.0367 17.8091 41.0685 -30.0367 11.3103 
38.6379 -30.0367 13.0502 46.9638 -24.6358 11.3103 -55.2102 -21.7107 11.3103 
-52.9474 -21.7107 14.3238 38.6379 -21.7107 17.9948 50.0441 -21.7107 11.3103 
46.9638 -21.7107 13.3784 55.2897 -15.2972 11.3103 -57.6722 -13.3848 11.3103 
-52.9474 -13.3848 15.9921 38.6379 -13.3848 18.8223 46.9638 -13.3848 16.7419 
56.4998 -13.3848 11.3103 55.2897 -13.3848 12.3596 -57.9003 -5.05885 11.3103 
-52.9474 -5.05885 16.3628 21.986 -5.05885 19.3275 30.3119 -5.05885 19.6163 
38.6379 -5.05885 19.2376 46.9638 -5.05885 18.0121 59.1194 -5.05885 11.3103 
55.2897 -5.05885 14.3895 -57.188 3.26708 11.3103 -52.9474 3.26708 15.6267 
21.986 3.26708 19.5778 30.3119 3.26708 19.0545 38.6379 3.26708 18.6687 
46.9638 3.26708 17.0395 57.4992 3.26708 11.3103 55.2897 7.17505 11.3103 
55.2897 3.26708 13.1276 -54.6614 11.593 11.3103 -52.9474 14.9118 11.3103 
-52.9474 11.593 13.346 -44.6215 11.593 18.9351 -19.6437 11.593 19.6118 
[...]
POINT_DATA 536
SCALARS ImageScalars float
LOOKUP_TABLE default
0 0 0 0 0 0 0 0 0 
0 0 0 0 0 0 0 0 0 
0 0 0 0 0 0 0 0 0 
0 0 0 0 0 0 0 0 0 
0 0 0 0 0 0 0 0 0 
0 0 0 0 0 0 0 0 0 
0 0 0 0 0 0 0 0 0 
0 0 0 0 0 0 0 0 0 
0 0 0 0 0 0 0 0 0 
0 0 0 0 0 0 0 0 0 
0 0 0 0 0 0 0 0 0 
0 0 0 0 0 0 0 0 0 
0 0 0 0 0 0 0 0 0 
0 0 0 0 0 0 0 0 0 
0 0 0 0 0 0 0 0 0 
0 0 0 0 0 0 0 0 0 
0 0 0 0 0 0 0 0 0 
0 0 0 0 0 0 0 0 0 
0 0 0 0 0 0 0 0 0 
0 0 0 0 0 0 0 0 0 
0 0 0 0 0 0 0 0 0 
0 0 0 0 0 0 0 0 0 
0 0 0 0 0 0 0 0 0 
0 0 0 0 0 0 0 0 0 
0 0 0 0 0 0 0 0 0 
0 0 0 0 0 0 0 0 0 
0 0 0 0 0 0 0 0 0 
0 0 0 0 0 0 0 0 0 
0 0 0 0 0 0 0 0 0 
0 0 0 0 0 0 0 0 0 
0 0 0 0 0 0 0 0 0 
0 0 0 0 0 0 0 0 0 
0 0 0 0 0 0 0 0 0 
0 0 0 0 0 0 0 0 0 
0 0 0 0 0 0 0 0 0 
0 0 0 0 0 0 0 0 0 
0 0 0 0 0 0 0 0 0 
0 0 0 0 0 0 0 0 0 
0 0 0 0 0 0 0 0 0 
0 0 0 0 0 0 0 0 0 
0 0 0 0 0 0 0 0 0 
0 0 0 0 0 0 0 0 0 
0 0 0 0 0 0 0 0 0 
0 0 0 0 0 0 0 0 0 
0 0 0 0 0 0 0 0 0 
0 0 0 0 0 0 0 0 0 
0 0 0 0 0 0 0 0 0 
0 0 0 0 0 0 0 0 0 
0 0 0 0 0 0 0 0 0 
0 0 0 0 0 0 0 0 0 
0 0 0 0 0 0 0 0 0 
0 0 0 0 0 0 0 0 0 
0 0 0 0 0 0 0 0 0 
0 0 0 0 0 0 0 0 0 
0 0 0 0 0 0 0 0 0 
0 0 0 0 0 0 0 0 0 
0 0 0 0 0 0 0 0 0 
0 0 0 0 0 0 0 0 0 
0 0 0 0 0 0 0 0 0 
0 0 0 0 0 
NORMALS Normals float
0.175422 0.721269 0.670073 0.231921 0.651855 0.722009 0.16084 0.531835 0.831434 
0.00852427 0.447712 0.894137 -0.0905836 0.358653 0.929065 -0.255381 0.411385 0.874953 
-0.390932 0.539803 0.74551 0.268118 0.381742 0.884526 0.1689 0.362036 0.916735 
0.115278 0.300815 0.94669 0.133464 0.215898 0.967252 0.0695797 0.0753025 0.99473 
-0.0905712 -0.00268962 0.995886 -0.109295 -0.025335 0.993686 -0.0843231 0.0189179 0.996259 
-0.234836 0.205314 0.950104 -0.401841 0.413368 0.817099 0.371306 0.225583 0.900691 
0.210799 0.171476 0.962372 0.134662 0.103018 0.985522 0.0280624 0.0342851 0.999018 
-0.00589571 -0.0126996 0.999902 -0.0562961 -0.131799 0.989677 -0.117574 -0.178983 0.976802 
-0.0684949 -0.200302 0.977337 -0.00188109 -0.0826401 0.996578 -0.000567916 0.0550872 0.998481 
-0.150297 0.259359 0.954014 -0.35178 0.447709 0.822075 0.301548 0.137624 0.943466 
0.127411 0.0993994 0.986857 0.0362625 -0.00838734 0.999307 -0.00199573 -0.0571624 0.998363 
-0.040342 0.000269967 0.999186 -0.0920976 -0.161685 0.982535 -0.167752 0.0674774 0.983517 
-0.0113296 -0.066326 0.997734 0.173599 0.0207639 0.984598 0.10159 0.13557 0.985546 
-0.00262201 0.198329 0.980132 -0.228487 0.294324 0.927991 -0.513879 0.34751 0.784324 
0.530608 0.0559929 0.845766 0.285335 0.0390712 0.957631 0.06648 0.00183704 0.997786 
-0.0212049 -0.0416249 0.998908 0.0387023 -0.110588 0.993113 -0.104334 -0.011011 0.994481 
-0.00238271 -0.097444 0.995238 0.0302495 0.144976 0.988973 -0.124979 0.194404 0.972927 
0.178596 0.125297 0.975912 0.165902 0.111043 0.97987 -0.00325403 0.131614 0.991296 
-0.213706 0.0802086 0.9736 -0.454217 0.103989 0.884802 0.557093 -0.132641 0.819789 
0.236838 -0.187823 0.953221 0.0458583 -0.164367 0.985333 -0.0786613 -0.154598 0.984841 
0.0181426 -0.197431 0.980149 0.00981895 -0.158979 0.987233 0.0488344 0.28657 0.956814 
0.0676366 0.0265776 0.997356 -0.0237119 0.0757283 0.996846 0.1159 0.100295 0.988184 
0.120229 0.0454663 0.991705 -0.027063 -0.0307593 0.99916 -0.237334 -0.0700962 0.968896 
-0.517198 -0.187348 0.835109 0.247162 -0.34028 0.90726 0.101982 -0.246038 0.96388 
-0.0443287 -0.165133 0.985275 0.0127613 -0.0503298 0.998651 0.332102 -0.0936122 0.938587 
0.188735 -0.0117543 0.981958 -0.168226 -0.166333 0.971614 -0.0314817 -0.0105264 0.999449 
0.136457 0.0512002 0.989322 0.0434461 -0.0289957 0.998635 -0.114458 -0.131527 0.984683 
-0.362131 -0.254613 0.896679 -0.649302 -0.426442 0.629726 0.239799 -0.252306 0.937464 
0.117007 -0.123282 0.985449 0.0991751 0.0410925 0.994221 0.0734959 -0.0122254 0.997221 
0.0071915 -0.287161 0.957855 0.0567878 -0.229376 0.97168 0.164104 -0.0527054 0.985034 
0.099434 -0.0703344 0.992555 -0.0623432 -0.125669 0.990111 -0.252619 -0.225355 0.940956 
-0.550447 -0.433351 0.713593 0.247676 -0.145211 0.957899 0.136505 -0.0675158 0.988336 
-0.00437505 -0.0977793 0.995198 -0.0277371 -0.116614 0.99279 0.0759964 -0.0998356 0.992097 
0.13377 -0.150184 0.979566 0.0594622 -0.199605 0.978071 -0.113155 -0.276561 0.954311 
-0.439239 -0.460815 0.77118 0.151224 -0.259302 0.953884 0.0284267 -0.24009 0.970334 
0.0048225 -0.190297 0.981715 0.0266653 -0.203091 0.978797 0.0349086 -0.297009 0.954236 
-0.0396161 -0.438679 0.89777 -0.306671 -0.625185 0.717703 0.172662 0.73536 0.655311 
0.236513 0.767684 0.595587 0.213088 0.829929 0.515569 0.123009 0.859617 0.495911 
0.118401 0.992833 0.0162429 -0.0565102 0.83746 0.543569 -0.0280468 0.985304 0.168494 
-0.275957 0.726676 0.629118 -0.407728 0.600652 0.687732 0.286404 0.545556 0.787618 
0.281518 0.795536 0.536536 0.169665 0.716257 0.676897 0.158829 0.633443 0.757313 
0.152325 0.712026 0.685431 -0.436785 0.58062 0.687095 -0.462378 0.499277 0.732755 
0.382468 0.455774 0.803734 0.423119 0.417664 0.804069 0.445237 0.491748 0.748297 
-0.457263 0.490844 0.741608 -0.433503 0.534082 0.725832 -0.626939 0.724045 0.287586 
0.535029 0.264421 0.802387 0.707684 0.314213 0.632814 -0.448744 0.516833 0.729049 
-0.538881 0.439704 0.718518 -0.679411 0.641045 0.357017 0.542002 0.19308 0.817896 
0.558862 0.156128 0.81443 0.583869 0.205626 0.785376 -0.596263 0.355838 0.719618 
0.58273 0.0555571 0.810765 -0.741211 0.0998893 0.663799 -0.909188 0.0893241 0.406692 
0.590077 -0.142811 0.794616 0.56958 -0.207202 0.79539 -0.71319 -0.250203 0.654797 
-0.926028 -0.290674 0.240793 0.42345 -0.360436 0.83113 0.635465 -0.399009 0.661041 
0.31173 -0.364493 0.877479 -0.654618 -0.430212 0.621606 -0.654488 -0.433414 0.619514 
0.288824 -0.297583 0.909959 0.440136 -0.442797 0.78116 0.295932 -0.289259 0.910359 
-0.645248 -0.486103 0.589372 -0.6441 -0.505994 0.573678 0.724577 -0.540343 0.427806 
0.305597 -0.248486 0.919165 0.38655 -0.353943 0.851648 0.360908 -0.294536 0.884869 
-0.624761 -0.555078 0.549146 -0.551922 -0.614999 0.563168 0.653556 -0.506696 0.562249 
0.359426 -0.29922 0.883901 0.365868 -0.300911 0.880678 0.193763 -0.384538 0.902545 
0.0765085 -0.402745 0.912109 0.0145554 -0.41069 0.911659 -0.0367788 -0.421758 0.905962 
-0.0908301 -0.51685 0.851244 -0.182638 -0.619012 0.763851 -0.427317 -0.682207 0.59329 
-0.336838 -0.714077 0.613705 0.47164 -0.673475 0.569198 0.253062 -0.535062 0.80602 
0.0808637 -0.436725 0.895953 0.0144469 -0.422836 0.906091 -0.0411229 -0.438395 0.897841 
-0.142408 -0.611306 0.778476 -0.364976 -0.835544 0.41068 0.0861944 -0.86156 0.500284 
-0.0304646 -0.872666 0.487367 -0.15205 -0.9032 0.401386 0.11618 0.993097 -0.0161217 
-0.0166573 0.998791 -0.0462591 0.270749 0.88932 0.368516 0.129383 0.933851 0.333439 
0.0577125 0.943627 0.32594 0.133274 0.96246 0.236448 0.120682 0.992681 -0.00453965 
0.156519 0.981986 0.105856 0.10779 0.993685 -0.0311807 -0.159524 0.986844 -0.0262998 
-0.0259466 0.991578 -0.126883 -0.188021 0.981963 -0.0199439 -0.44058 0.894066 0.0808429 
0.433021 0.810402 0.39464 0.470626 0.782357 0.407956 0.47755 0.832084 0.282104 
-0.588648 0.795825 0.14197 -0.591583 0.793354 0.143592 -0.64126 0.743875 0.188241 
0.759411 0.521374 0.389183 0.762086 0.517908 0.388584 0.768056 0.523252 0.369185 
-0.645206 0.739321 0.192649 -0.714999 0.678691 0.167791 0.851192 0.35178 0.389516 
-0.739899 0.650998 0.169562 0.906426 0.214533 0.363824 -0.896039 0.407275 0.176751 
-0.932944 0.321575 0.161878 0.957008 0.03265 0.288217 0.998045 -0.00293087 -0.0624303 
-0.986909 0.0725005 0.144064 0.944745 -0.169142 0.280797 -0.946965 -0.288859 0.140775 
-0.9337 -0.331558 0.135182 0.840283 -0.432973 0.326279 0.750652 -0.56596 0.340898 
-0.83512 -0.535678 0.124994 -0.778986 -0.621586 0.082538 0.736131 -0.577013 0.353789 
0.796026 -0.586136 0.150955 -0.767226 -0.638324 0.0625025 -0.736376 -0.67626 0.0205636 
0.728429 -0.545111 0.415024 0.728937 -0.544388 0.415082 -0.732065 -0.681055 0.0156336 
-0.689121 -0.724534 0.0127695 0.693542 -0.543979 0.472321 0.685446 -0.561746 0.463255 
-0.678663 -0.734299 0.014882 -0.51201 -0.856 0.07149 0.580324 -0.690365 0.431997 
0.501184 -0.746596 0.437503 0.329279 -0.841944 0.42744 -0.350743 -0.873512 0.337573 
-0.454068 -0.882204 0.124657 -0.430462 -0.888092 0.161232 0.197909 -0.884665 0.422138 
0.342705 -0.931847 0.119222 0.0901293 -0.897924 0.430824 -0.0329326 -0.886391 0.461765 
-0.183963 -0.913058 0.363982 -0.154095 -0.916815 0.368382 0.472923 0.880753 -0.0248733 
0.248819 0.968548 0.00219329 0.125993 0.991969 0.0111001 0.0604693 0.996944 0.049464 
0.0135265 0.999649 0.0227871 -0.0141119 0.995541 -0.0932686 -0.016837 0.970198 -0.241727 
-0.0479505 0.943514 -0.327846 -0.158038 0.933223 -0.322675 -0.351998 0.889457 -0.291484 
0.539758 0.841453 -0.0248718 0.807075 0.588894 -0.0428209 0.493306 0.824988 -0.275762 
-0.526821 0.813279 -0.247056 -0.350052 0.771958 -0.530607 -0.561545 0.790123 -0.245709 
-0.616014 0.752189 -0.233963 0.851487 0.522062 -0.0492038 0.806767 0.501975 -0.311687 
-0.619942 0.748864 -0.234255 -0.613014 0.742618 -0.269691 -0.664019 0.702799 -0.25525 
0.937014 0.339353 -0.0827264 -0.683806 0.686616 -0.246917 -0.653589 0.675043 -0.342254 
0.980672 0.178166 -0.08087 0.991602 0.03047 -0.125687 -0.904247 0.324196 -0.27791 
-0.942618 0.184634 -0.278175 0.990395 -0.0104803 -0.13787 0.989941 -0.0311536 -0.13801 
0.988898 -0.0111039 -0.148182 -0.959969 0.0678582 -0.271762 -0.919957 0.0675869 -0.38615 
0.977814 -0.156292 -0.139473 -0.910174 -0.299553 -0.286096 -0.907992 -0.305125 -0.287138 
-0.906974 -0.300387 -0.295238 0.907552 -0.398643 -0.132032 -0.773299 -0.559409 -0.298447 
-0.719733 -0.617982 -0.31636 -0.655606 -0.531665 -0.536203 0.822021 -0.56152 -0.0947498 
0.81518 -0.571934 -0.0915017 0.809559 -0.557868 -0.182753 -0.677875 -0.646422 -0.350176 
-0.663165 -0.650044 -0.37102 -0.572121 -0.56801 -0.591643 0.797368 -0.600112 -0.0638051 
0.798906 -0.597614 -0.0678727 0.730483 -0.56463 -0.384171 -0.65371 -0.647112 -0.392312 
-0.622191 -0.673542 -0.399023 -0.553996 -0.566965 -0.609622 0.781294 -0.619188 -0.0786465 
0.721956 -0.685101 -0.0970385 0.616904 -0.549863 -0.563099 -0.590615 -0.702832 -0.396487 
-0.548336 -0.741327 -0.386991 -0.514759 -0.643803 -0.566163 0.666599 -0.737392 -0.10908 
0.553234 -0.826133 -0.10694 0.475866 -0.66756 -0.572639 -0.454409 -0.876097 -0.16114 
-0.543148 -0.785632 -0.296264 -0.542956 -0.790534 -0.283293 -0.538908 -0.767369 -0.347452 
0.371029 -0.926165 -0.0675042 0.333847 -0.940642 -0.0611456 0.347376 -0.918857 -0.187169 
0.120296 -0.989641 -0.0783576 0.0959977 -0.87547 -0.473641 -0.0581914 -0.996703 -0.0565353 
-0.0746195 -0.875275 -0.477835 -0.336772 -0.932746 -0.128722 -0.242339 -0.962748 -0.119949 
-0.241251 -0.923263 -0.29897 0.301347 0.8381 -0.454729 0.176357 0.896689 -0.406013 
0.0665775 0.921634 -0.382307 -0.012133 0.93173 -0.362948 -0.118108 0.907763 -0.402514 
-0.140856 0.863095 -0.485001 -0.0996923 0.840041 -0.533285 -0.159255 0.828498 -0.53687 
0.429915 0.769291 -0.472614 0.487295 0.719359 -0.495042 0.283694 0.7417 -0.607782 
0.166361 0.617327 -0.768916 0.0707388 0.552307 -0.830634 -0.0259344 0.553574 -0.832396 
-0.0952262 0.601954 -0.792832 -0.12642 0.677027 -0.725019 -0.0964427 0.734016 -0.672249 
-0.328143 0.76962 -0.547729 -0.155591 0.750378 -0.642436 -0.349601 0.758261 -0.550291 
-0.513251 0.612767 -0.600908 0.714728 0.472333 -0.515815 0.764613 0.405342 -0.501064 
0.457422 0.436369 -0.774821 -0.354223 0.414636 -0.838215 -0.525725 0.596435 -0.60653 
-0.49307 0.556657 -0.668592 -0.528296 0.545192 -0.650898 0.814929 0.287712 -0.503103 
0.728707 0.260291 -0.633431 -0.35683 0.271323 -0.8939 -0.534258 0.512703 -0.672089 
-0.493723 0.454674 -0.741289 -0.595215 0.372047 -0.71225 0.819234 0.139973 -0.556114 
0.635887 0.0851736 -0.767068 -0.183455 0.0642686 -0.980925 -0.344227 0.233694 -0.909338 
-0.621522 0.319806 -0.715146 -0.576687 0.317724 -0.752651 0.823033 -0.0233142 -0.567514 
0.630358 -0.0171249 -0.776115 -0.111092 -0.0947644 -0.989282 -0.00521896 -0.0572141 -0.998348 
-0.0917337 -0.00756664 -0.995755 -0.262657 0.0162747 -0.964752 -0.663471 0.0461011 -0.74678 
-0.533202 0.0360075 -0.845222 0.80003 -0.158355 -0.578684 0.637548 -0.130138 -0.75934 
-0.241655 0.0276424 -0.969968 -0.0544301 -0.0786667 -0.995414 -0.114895 -0.139857 -0.983483 
-0.293555 -0.212579 -0.932006 -0.617778 -0.264374 -0.740579 -0.587506 -0.366151 -0.721644 
-0.552344 -0.250031 -0.795236 0.762539 -0.342837 -0.548633 0.737131 -0.406322 -0.539945 
0.703339 -0.326647 -0.63136 0.339717 -0.263948 -0.902731 -0.055844 -0.0840882 -0.994892 
-0.171203 -0.11679 -0.978289 -0.237345 -0.263165 -0.9351 -0.516169 -0.457085 -0.724322 
-0.484194 -0.483403 -0.729299 -0.385228 -0.388863 -0.83689 0.668907 -0.482986 -0.565056 
0.64349 -0.514196 -0.56703 0.488876 -0.42226 -0.763346 0.214257 -0.289039 -0.933033 
0.038436 -0.175108 -0.983799 0.00269142 -0.0247361 -0.99969 0.0173806 -0.0288598 -0.999432 
-0.01743 -0.0809216 -0.996568 0.0215586 -0.0179592 -0.999606 -0.152082 -0.154411 -0.976232 
-0.287254 -0.241486 -0.926914 -0.48524 -0.487283 -0.726015 -0.470461 -0.482473 -0.738841 
-0.391238 -0.397362 -0.830082 0.631039 -0.514549 -0.580542 0.587096 -0.528661 -0.613054 
0.375014 -0.363737 -0.852678 0.191005 -0.205575 -0.959821 0.0912462 -0.0919991 -0.99157 
0.0186512 -0.0271353 -0.999458 0.0241088 0.0156934 -0.999586 -0.147435 -0.174416 -0.973572 
-0.249878 -0.311392 -0.91684 -0.474696 -0.495626 -0.727337 -0.454308 -0.519985 -0.723339 
-0.4047 -0.428429 -0.807877 0.582399 -0.528428 -0.617718 0.453678 -0.629529 -0.630769 
0.30747 -0.335946 -0.890282 0.175382 -0.261944 -0.949013 0.127541 -0.166124 -0.977822 
-0.0108641 -0.140027 -0.990088 -0.172458 -0.223135 -0.959411 -0.288272 -0.338562 -0.895698 
-0.449672 -0.535164 -0.715119 -0.454628 -0.554084 -0.697355 -0.412439 -0.481121 -0.773574 
0.443518 -0.631765 -0.63574 0.341165 -0.663351 -0.666012 0.281473 -0.467239 -0.838129 
0.0922916 -0.798678 -0.594639 0.142108 -0.412169 -0.899957 -0.074676 -0.782344 -0.618354 
-0.0410423 -0.423828 -0.904812 -0.239417 -0.742839 -0.625196 -0.249062 -0.471257 -0.8461 
-0.441077 -0.574813 -0.689232 -0.434663 -0.580855 -0.688241 -0.42644 -0.556241 -0.713263 
0.203942 0.386728 -0.899361 0.0551247 0.351054 -0.934731 0.0324542 0.302938 -0.952458 
0.0056953 0.322261 -0.946634 -0.047197 0.357106 -0.932871 -0.0602073 0.342014 -0.937764 
-0.0199348 0.40023 -0.916198 -0.133816 0.39082 -0.910688 0.24476 0.357337 -0.901334 
0.345241 0.220036 -0.912356 0.194842 0.340576 -0.919807 0.0173302 0.27958 -0.959966 
0.00789016 0.169419 -0.985512 0.030669 0.165024 -0.985813 -0.0197873 0.191681 -0.981258 
-0.0394114 0.253028 -0.966656 -0.00884011 0.347046 -0.937807 -0.197752 0.35654 -0.913112 
-0.127828 0.334802 -0.933578 -0.241088 0.194099 -0.950896 0.361996 0.194567 -0.911648 
0.330497 0.188785 -0.924734 0.124903 0.134987 -0.982943 -0.0309149 0.0919314 -0.995285 
-0.0430172 0.0676347 -0.996782 0.00690543 0.0525702 -0.998593 0.0112327 0.113503 -0.993474 
0.0400138 0.0909195 -0.995054 0.00662031 0.07102 -0.997453 -0.115936 0.0479696 -0.992098 
-0.24464 0.153028 -0.957462 -0.196686 0.107755 -0.974527 0.378845 0.0468587 -0.924273 
0.318891 0.0488839 -0.94653 0.100492 0.0281634 -0.994539 -0.0399267 0.0224591 -0.99895 
-0.0358879 -0.0149131 -0.999245 0.0752758 0.0322997 -0.996639 0.0119319 0.0277827 -0.999543 
-0.0700314 0.017599 -0.99739 -0.0482736 -0.0316718 -0.998332 -0.111076 -0.102879 -0.988473 
-0.102572 -0.136519 -0.985313 -0.154813 -0.010332 -0.98789 -0.0122409 -0.0563609 -0.998335 
-0.142601 -0.0392846 -0.989 0.394361 -0.0173236 -0.918792 0.308205 -0.0179425 -0.951151 
0.0867624 -0.03053 -0.995761 -0.0731051 -0.0365095 -0.996656 -0.0369829 -0.0715253 -0.996753 
0.0451689 -0.0263064 -0.998633 -0.00283246 -0.139825 -0.990172 -0.0151424 -0.0336485 -0.999319 
-0.117323 -0.0717181 -0.990501 -0.153415 0.0957277 -0.983514 0.347037 -0.10319 -0.932157 
0.31913 -0.177324 -0.930974 0.306911 -0.105196 -0.945907 0.0862712 -0.0979653 -0.991443 
-0.0768002 -0.0997084 -0.992048 -0.0550665 -0.0842861 -0.994919 -0.0277295 -0.0928929 -0.99529 
0.0130201 -0.114408 -0.993348 0.0037945 -0.0560076 -0.998423 0.165447 -0.0990006 -0.981237 
-0.240302 0.0272051 -0.970317 -0.118924 -0.00422352 -0.992894 -0.229211 0.0126059 -0.973295 
0.255403 -0.240961 -0.936326 0.148187 -0.243204 -0.958589 0.0961662 -0.196217 -0.975834 
-0.056327 -0.0854635 -0.994748 0.00831987 -0.168315 -0.985698 -0.0739035 -0.145107 -0.986652 
-0.0379672 -0.0889423 -0.995313 0.0598753 -0.0899328 -0.994146 0.0818805 -0.12099 -0.989271 
-0.0113195 -0.0825231 -0.996525 0.016693 -0.0885367 -0.995933 0.0294023 -0.0937711 -0.99516 
0.0345747 -0.14501 -0.988826 -0.0202075 -0.218538 -0.975619 -0.191172 -0.0367111 -0.98087 
-0.183875 -0.0571863 -0.981285 -0.194524 -0.028418 -0.980486 0.00710377 -0.170494 -0.985333 
-0.0547506 -0.0189747 -0.99832 0.000241671 -0.174869 -0.984592 0.00376632 -0.175651 -0.984445 
0.0065796 -0.175809 -0.984402 -0.0333337 -0.00724795 -0.999418 -0.0666694 -0.0269179 -0.997412 
-0.069087 -0.0311273 -0.997125 -0.062608 -0.0188311 -0.997861 
