# vtk DataFile Version 4.2
vtk output
ASCII
DATASET POLYDATA
POINTS 558 float
-31.6153 -31.7568 -12.5355 -24.0126 -31.7568 -12.8365 -16.4099 -31.7568 -13.2367 
-8.80727 -31.7568 -12.7863 21.6034 -31.7568 -12.457 -39.2179 -24.1541 -14.3028 
-31.6153 -24.1541 -15.0242 -24.0126 -24.1541 -15.1504 -16.4099 -24.1541 -15.4466 
-8.80727 -24.1541 -14.875 -1.2046 -24.1541 -14.2605 6.39806 -24.1541 -14.2697 
14.0007 -24.1541 -14.4387 21.6034 -24.1541 -13.9439 29.2061 -24.1541 -13.9353 
36.8087 -24.1541 -14.8905 44.4114 -24.1541 -14.1599 -54.4233 -16.5514 -13.1889 
-46.8206 -16.5514 -14.2246 -39.2179 -16.5514 -15.0599 -31.6153 -16.5514 -15.5648 
-24.0126 -16.5514 -15.8577 -16.4099 -16.5514 -15.3962 -8.80727 -16.5514 -15.3226 
-1.2046 -16.5514 -14.9502 6.39806 -16.5514 -15.0968 14.0007 -16.5514 -14.2318 
21.6034 -16.5514 -14.2715 29.2061 -16.5514 -14.5995 36.8087 -16.5514 -15.426 
44.4114 -16.5514 -16.0859 52.0141 -16.5514 -14.9241 -54.4233 -8.94878 -12.9291 
-46.8206 -8.94878 -15.5226 -39.2179 -8.94878 -15.9618 -31.6153 -8.94878 -15.7126 
-24.0126 -8.94878 -15.061 -16.4099 -8.94878 -14.5499 -8.80727 -8.94878 -15.5764 
-1.2046 -8.94878 -15.2336 6.39806 -8.94878 -16.8077 14.0007 -8.94878 -13.1262 
21.6034 -8.94878 -13.2637 29.2061 -8.94878 -14.9309 36.8087 -8.94878 -16.2777 
44.4114 -8.94878 -16.0987 52.0141 -8.94878 -17.2276 59.6167 -8.94878 -13.623 
-54.4233 -1.34611 -13.7707 -46.8206 -1.34611 -15.3784 -39.2179 -1.34611 -16.499 
-31.6153 -1.34611 -15.9301 -24.0126 -1.34611 -14.9408 -16.4099 -1.34611 -13.8372 
-8.80727 -1.34611 -17.0867 6.39806 -1.34611 -17.5036 14.0007 -1.34611 -15.9329 
21.6034 -1.34611 -13.573 29.2061 -1.34611 -15.1436 36.8087 -1.34611 -16.0659 
44.4114 -1.34611 -16.4014 52.0141 -1.34611 -17.889 59.6167 -1.34611 -13.9329 
67.2194 -1.34611 -12.6675 -54.4233 6.25655 -13.9558 -46.8206 6.25655 -15.6542 
-39.2179 6.25655 -16.8108 -31.6153 6.25655 -16.2415 -24.0126 6.25655 -15.223 
-16.4099 6.25655 -13.7414 -8.80727 6.25655 -15.6677 -1.2046 6.25655 -16.3064 
6.39806 6.25655 -15.6974 14.0007 6.25655 -14.734 21.6034 6.25655 -13.8292 
29.2061 6.25655 -15.1422 36.8087 6.25655 -16.7519 44.4114 6.25655 -16.1824 
52.0141 6.25655 -17.1922 59.6167 6.25655 -13.7021 67.2194 6.25655 -12.8031 
-54.4233 13.8592 -12.8365 -46.8206 13.8592 -15.7995 -39.2179 13.8592 -16.5411 
-31.6153 13.8592 -16.3295 -24.0126 13.8592 -15.552 -16.4099 13.8592 -14.7293 
-8.80727 13.8592 -14.4489 -1.2046 13.8592 -14.8798 6.39806 13.8592 -15.437 
14.0007 13.8592 -15.0092 21.6034 13.8592 -14.2566 29.2061 13.8592 -14.793 
36.8087 13.8592 -15.5829 44.4114 13.8592 -14.9028 52.0141 13.8592 -14.5867 
59.6167 13.8592 -13.9289 -46.8206 21.4619 -14.0203 -39.2179 21.4619 -15.0252 
-31.6153 21.4619 -16.5152 -24.0126 21.4619 -15.8373 -16.4099 21.4619 -15.3724 
-8.80727 21.4619 -14.9416 -1.2046 21.4619 -14.7597 6.39806 21.4619 -15.6 
14.0007 21.4619 -15.5276 21.6034 21.4619 -14.4609 29.2061 21.4619 -14.1823 
36.8087 21.4619 -14.7065 44.4114 21.4619 -13.5896 -39.2179 29.0645 -12.6616 
-31.6153 29.0645 -13.8954 -24.0126 29.0645 -15.0359 -16.4099 29.0645 -15.0118 
-8.80727 29.0645 -13.9068 -1.2046 29.0645 -13.7642 6.39806 29.0645 -14.2843 
14.0007 29.0645 -14.4507 21.6034 29.0645 -12.5959 -31.6153 -32.1694 -12.2814 
-24.0126 -32.5937 -12.2814 -16.4099 -33.0474 -12.2814 -8.80727 -32.5103 -12.2814 
21.6034 -31.9709 -12.2814 -46.8206 -31.7568 -8.10459 -32.6578 -31.7568 -12.2814 
-39.2179 -28.6225 -12.2814 -39.2179 -31.7568 -10.2446 -5.13872 -31.7568 -12.2814 
-1.2046 -30.1737 -12.2814 -1.2046 -31.7568 -11.5937 6.39806 -28.8573 -12.2814 
6.39806 -31.7568 -10.5399 20.4859 -31.7568 -12.2814 14.0007 -29.292 -12.2814 
14.0007 -31.7568 -10.7585 23.633 -31.7568 -12.2814 29.2061 -29.9845 -12.2814 
29.2061 -31.7568 -11.608 36.8087 -29.2946 -12.2814 36.8087 -31.7568 -10.0999 
44.4114 -28.5653 -12.2814 44.4114 -31.7568 -9.89972 52.0141 -31.7568 -5.49052 
-54.4233 -19.2492 -12.2814 -54.4233 -24.1541 -9.96097 -45.2787 -24.1541 -12.2814 
-46.8206 -22.306 -12.2814 -46.8206 -24.1541 -11.6872 48.8217 -24.1541 -12.2814 
52.0141 -21.6096 -12.2814 52.0141 -24.1541 -11.1211 59.6167 -24.1541 -8.84989 
-56.0431 -16.5514 -12.2814 -62.0259 -16.5514 -7.58797 57.4258 -16.5514 -12.2814 
59.6167 -13.2756 -12.2814 59.6167 -16.5514 -11.3847 67.2194 -16.5514 -7.24978 
-56.2662 -8.94878 -12.2814 -62.0259 -8.94878 -9.56771 -1.2046 -1.49444 -12.2814 
64.8035 -8.94878 -12.2814 67.2194 -3.0072 -12.2814 67.2194 -8.94878 -11.4954 
-59.4838 -1.34611 -12.2814 -62.0259 -1.34611 -11.2784 -1.34479 -1.34611 -12.2814 
-1.08243 -1.34611 -12.2814 -1.2046 -1.20303 -12.2814 -1.2046 -1.34611 -12.1908 
67.3848 -1.34611 -12.2814 -59.473 6.25655 -12.2814 -62.0259 6.25655 -11.1275 
67.4428 6.25655 -12.2814 67.2194 6.69082 -12.2814 -56.1634 13.8592 -12.2814 
-62.0259 13.8592 -10.0924 -54.4233 19.3787 -12.2814 52.0141 18.955 -12.2814 
62.509 13.8592 -12.2814 59.6167 17.4521 -12.2814 67.2194 13.8592 -7.44735 
-53.5655 21.4619 -12.2814 -54.4233 21.4619 -11.9597 -46.8206 26.1777 -12.2814 
29.2061 26.7654 -12.2814 36.8087 26.0247 -12.2814 48.4397 21.4619 -12.2814 
44.4114 24.6646 -12.2814 52.0141 21.4619 -11.1624 59.6167 21.4619 -9.11762 
-41.1783 29.0645 -12.2814 -46.8206 29.0645 -10.4597 -39.2179 29.6782 -12.2814 
-31.6153 32.1913 -12.2814 -24.0126 35.0757 -12.2814 -16.4099 36.3678 -12.2814 
-8.80727 35.0739 -12.2814 -1.2046 33.831 -12.2814 6.39806 33.958 -12.2814 
14.0007 32.6825 -12.2814 23.5137 29.0645 -12.2814 21.6034 29.4731 -12.2814 
29.2061 29.0645 -11.1757 36.8087 29.0645 -9.84772 44.4114 29.0645 -8.95013 
52.0141 29.0645 -6.55899 -31.6153 36.6672 -8.59741 -24.0126 36.6672 -11.253 
-16.4099 36.6672 -12.1058 -8.80727 36.6672 -11.6623 -1.2046 36.6672 -10.9624 
6.39806 36.6672 -10.35 14.0007 36.6672 -7.06987 -46.8206 -34.2258 -4.67875 
-39.2179 -37.1817 -4.67875 -31.6153 -38.416 -4.67875 -24.0126 -38.9954 -4.67875 
-16.4099 -39.2932 -4.67875 -8.80727 -38.6283 -4.67875 -1.2046 -37.2524 -4.67875 
6.39806 -35.9237 -4.67875 14.0007 -35.8896 -4.67875 21.6034 -36.6376 -4.67875 
29.2061 -36.7379 -4.67875 36.8087 -35.7943 -4.67875 44.4114 -34.4822 -4.67875 
52.0141 -32.2057 -4.67875 -51.2781 -31.7568 -4.67875 -54.4233 -29.8573 -4.67875 
52.9792 -31.7568 -4.67875 52.0141 -31.7568 -1.17475 59.6167 -27.7673 -4.67875 
-60.4249 -24.1541 -4.67875 -62.0259 -21.6804 -4.67875 -62.0259 -24.1541 1.62413 
63.5147 -24.1541 -4.67875 67.2194 -19.5826 -4.67875 -64.8577 -16.5514 -4.67875 
69.083 -16.5514 -4.67875 -66.8919 -8.94878 -4.67875 72.5402 -8.94878 -4.67875 
-68.9153 -1.34611 -4.67875 -69.6286 -1.34611 -2.10084 71.8953 -1.34611 -4.67875 
-68.049 6.25655 -4.67875 72.6578 6.25655 -4.67875 -66.3969 13.8592 -4.67875 
-62.0259 20.2598 -4.67875 69.4167 13.8592 -4.67875 67.2194 18.3288 -4.67875 
-60.8488 21.4619 -4.67875 -54.4233 27.139 -4.67875 64.9799 21.4619 -4.67875 
59.6167 25.407 -4.67875 -51.8807 29.0645 -4.67875 -46.8206 32.1831 -4.67875 
-39.2179 36.1207 -4.67875 21.6034 35.4515 -4.67875 29.2061 34.0604 -4.67875 
36.8087 33.1255 -4.67875 44.4114 31.5012 -4.67875 54.0756 29.0645 -4.67875 
52.0141 30.2395 -4.67875 -37.9945 36.6672 -4.67875 -31.6153 39.1358 -4.67875 
-24.0126 41.2515 -4.67875 -16.4099 42.3234 -4.67875 -8.80727 41.8562 -4.67875 
-1.2046 41.0219 -4.67875 6.39806 39.9114 -4.67875 17.7601 36.6672 -4.67875 
14.0007 37.8321 -4.67875 14.0007 36.6672 1.80287 -46.8206 -35.4916 2.92392 
-39.2179 -38.0066 2.92392 -31.6153 -38.4611 2.92392 -24.0126 -38.5149 2.92392 
-16.4099 -38.3748 2.92392 -8.80727 -37.7132 2.92392 -1.2046 -36.3929 2.92392 
6.39806 -34.477 2.92392 14.0007 -33.993 2.92392 21.6034 -34.511 2.92392 
29.2061 -34.764 2.92392 36.8087 -34.7363 2.92392 44.4114 -33.6475 2.92392 
-62.0259 -24.5113 2.92392 -53.8395 -31.7568 2.92392 -54.4233 -31.3891 2.92392 
-8.80727 -31.7568 10.4462 -1.2046 -31.7568 8.58295 6.39806 -31.7568 6.21401 
14.0007 -31.7568 5.53262 21.6034 -31.7568 6.66715 29.2061 -31.7568 7.31438 
36.8087 -31.7568 6.82989 50.3126 -31.7568 2.92392 44.4114 -31.7568 5.43498 
52.0141 -30.9467 2.92392 59.6167 -26.0718 2.92392 -62.3088 -24.1541 2.92392 
-62.0259 -24.1541 3.49545 52.0141 -24.1541 9.19898 61.6238 -24.1541 2.92392 
59.6167 -24.1541 4.73509 67.2194 -16.9224 2.92392 -66.9296 -16.5514 2.92392 
59.6167 -16.5514 8.97287 67.448 -16.5514 2.92392 67.2194 -16.5514 3.15802 
-69.4408 -8.94878 2.92392 -69.6286 -7.65422 2.92392 71.1671 -8.94878 2.92392 
67.2194 -8.94878 6.65238 -70.5438 -1.34611 2.92392 -69.6286 5.37374 2.92392 
-69.6286 -1.34611 4.91202 71.4573 -1.34611 2.92392 67.2194 -1.34611 7.29345 
-69.5064 6.25655 2.92392 71.2999 6.25655 2.92392 67.2194 6.25655 7.27149 
-67.0912 13.8592 2.92392 -62.0259 20.5114 2.92392 -62.0259 13.8592 9.76061 
68.6869 13.8592 2.92392 67.2194 16.6498 2.92392 67.2194 13.8592 4.57016 
-61.1359 21.4619 2.92392 -54.4233 26.8485 2.92392 64.1727 21.4619 2.92392 
59.6167 25.5593 2.92392 59.6167 21.4619 7.81249 -51.2553 29.0645 2.92392 
-46.8206 31.7745 2.92392 -46.8206 29.0645 7.28991 -39.2179 35.288 2.92392 
14.0007 36.4449 2.92392 21.6034 34.2226 2.92392 21.6034 29.0645 9.63461 
29.2061 33.9523 2.92392 29.2061 29.0645 9.56114 36.8087 33.0991 2.92392 
36.8087 29.0645 9.69423 44.4114 32.4843 2.92392 44.4114 29.0645 8.85208 
54.3623 29.0645 2.92392 52.0141 30.3433 2.92392 52.0141 29.0645 5.12804 
-35.9758 36.6672 2.92392 -31.6153 38.4344 2.92392 -31.6153 36.6672 5.91358 
-24.0126 40.7641 2.92392 -24.0126 36.6672 8.58169 -16.4099 41.6998 2.92392 
-16.4099 36.6672 9.87121 -8.80727 41.3603 2.92392 -8.80727 36.6672 9.55951 
-1.2046 40.4448 2.92392 -1.2046 36.6672 8.41 13.4416 36.6672 2.92392 
6.39806 39.1412 2.92392 6.39806 36.6672 6.62052 -46.8206 -32.8415 10.5266 
-39.2179 -33.1499 10.5266 -31.6153 -34.6991 10.5266 -24.0126 -34.1662 10.5266 
-16.4099 -32.9719 10.5266 -48.645 -31.7568 10.5266 -54.4233 -27.0325 10.5266 
-46.8206 -31.7568 11.6595 -39.2179 -31.7568 11.9302 -31.6153 -31.7568 13.305 
-24.0126 -31.7568 12.674 -9.27037 -31.7568 10.5266 -16.4099 -31.7568 11.5622 
-8.80727 -31.6328 10.5266 -1.2046 -28.3466 10.5266 6.39806 -24.5463 10.5266 
[...]
POINT_DATA 558
SCALARS ImageScalars float
LOOKUP_TABLE default
0 0 0 0 0 0 0 0 0 
0 0 0 0 0 0 0 0 0 
0 0 0 0 0 0 0 0 0 
0 0 0 0 0 0 0 0 0 
0 0 0 0 0 0 0 0 0 
0 0 0 0 0 0 0 0 0 
0 0 0 0 0 0 0 0 0 
0 0 0 0 0 0 0 0 0 
0 0 0 0 0 0 0 0 0 
0 0 0 0 0 0 0 0 0 
0 0 0 0 0 0 0 0 0 
0 0 0 0 0 0 0 0 0 
0 0 0 0 0 0 0 0 0 
0 0 0 0 0 0 0 0 0 
0 0 0 0 0 0 0 0 0 
0 0 0 0 0 0 0 0 0 
0 0 0 0 0 0 0 0 0 
0 0 0 0 0 0 0 0 0 
0 0 0 0 0 0 0 0 0 
0 0 0 0 0 0 0 0 0 
0 0 0 0 0 0 0 0 0 
0 0 0 0 0 0 0 0 0 
0 0 0 0 0 0 0 0 0 
0 0 0 0 0 0 0 0 0 
0 0 0 0 0 0 0 0 0 
0 0 0 0 0 0 0 0 0 
0 0 0 0 0 0 0 0 0 
0 0 0 0 0 0 0 0 0 
0 0 0 0 0 0 0 0 0 
0 0 0 0 0 0 0 0 0 
0 0 0 0 0 0 0 0 0 
0 0 0 0 0 0 0 0 0 
0 0 0 0 0 0 0 0 0 
0 0 0 0 0 0 0 0 0 
0 0 0 0 0 0 0 0 0 
0 0 0 0 0 0 0 0 0 
0 0 0 0 0 0 0 0 0 
0 0 0 0 0 0 0 0 0 
0 0 0 0 0 0 0 0 0 
0 0 0 0 0 0 0 0 0 
0 0 0 0 0 0 0 0 0 
0 0 0 0 0 0 0 0 0 
0 0 0 0 0 0 0 0 0 
0 0 0 0 0 0 0 0 0 
0 0 0 0 0 0 0 0 0 
0 0 0 0 0 0 0 0 0 
0 0 0 0 0 0 0 0 0 
0 0 0 0 0 0 0 0 0 
0 0 0 0 0 0 0 0 0 
0 0 0 0 0 0 0 0 0 
0 0 0 0 0 0 0 0 0 
0 0 0 0 0 0 0 0 0 
0 0 0 0 0 0 0 0 0 
0 0 0 0 0 0 0 0 0 
0 0 0 0 0 0 0 0 0 
0 0 0 0 0 0 0 0 0 
0 0 0 0 0 0 0 0 0 
0 0 0 0 0 0 0 0 0 
0 0 0 0 0 0 0 0 0 
0 0 0 0 0 0 0 0 0 
0 0 0 0 0 0 0 0 0 
0 0 0 0 0 0 0 0 0 

NORMALS Normals float
0.136181 0.458943 0.877967 0.0428955 0.457004 0.88843 -0.00463853 0.4732 0.880943 
-0.0913152 0.456266 0.885146 0.0391604 0.534357 0.844351 0.185525 0.24933 0.950482 
0.0631952 0.204174 0.976893 0.026019 0.18028 0.983271 -0.0174741 0.120838 0.992518 
-0.0756941 0.157983 0.984536 -0.0385037 0.197264 0.979594 0.0113729 0.249319 0.968355 
-0.0217831 0.16792 0.98556 -0.0316607 0.11632 0.992707 0.0767755 0.148412 0.985941 
0.0193459 0.25217 0.967489 -0.240771 0.377466 0.894175 0.35631 0.171731 0.918451 
0.141256 0.253011 0.957096 0.0831175 0.11341 0.990065 0.0528096 0.0427522 0.997689 
-0.0108759 -0.00601157 0.999923 -0.0365548 -0.0586586 0.997609 -0.0292421 0.0439038 0.998608 
-0.0147324 0.062659 0.997926 -0.0464118 0.155029 0.986819 -0.0550671 -0.0587096 0.996755 
0.0238052 -0.0448083 0.998712 0.074845 0.06277 0.995218 0.111466 0.0997062 0.988754 
-0.0189069 0.0934357 0.995446 -0.321438 0.36216 0.874939 0.32728 0.0289626 0.944484 
0.173832 0.0644317 0.982665 0.0163073 0.0943356 0.995407 -0.0588029 0.0239528 0.997982 
-0.07617 -0.0625847 0.995129 0.0287881 -0.101961 0.994372 0.048806 0.0865357 0.995053 
0.0783758 -0.103127 0.991576 -0.0555795 0.162191 0.985193 -0.26688 -0.0129558 0.963643 
0.113033 -0.0458687 0.992532 0.196204 0.0350415 0.979937 0.0759663 0.0411814 0.99626 
0.0529595 0.0210421 0.998375 -0.14776 0.182895 0.971965 -0.285341 0.152025 0.946292 
0.268122 0.0646289 0.961215 0.162945 0.00701922 0.98661 0.0357674 0.055614 0.997811 
-0.101306 0.0346054 0.994253 -0.136551 0.0104991 0.990577 0.0667365 -0.0550027 0.996253 
0.0302859 0.0460759 0.998479 0.274264 -0.103811 0.956035 -0.346655 0.094498 0.933221 
0.0514616 0.0379759 0.997953 0.162088 0.0135316 0.986684 0.0825619 0.0305921 0.996116 
0.10804 0.00564305 0.994131 -0.130055 -0.00219847 0.991504 -0.258181 0.00415616 0.966088 
-0.779045 0.076306 0.622307 0.29755 -0.0542971 0.953161 0.16788 0.0279381 0.985411 
0.0381718 0.00305547 0.999267 -0.10306 0.0260959 0.994333 -0.162513 0.039694 0.985908 
-0.022651 0.0540472 0.998281 0.202659 -0.176347 0.96324 -0.014763 0.0884415 0.995972 
-0.0877048 -0.116313 0.989333 -0.145597 -0.0106444 0.989287 0.0452466 0.0450705 0.997959 
0.187716 -0.0226937 0.981961 0.0710794 -0.0306369 0.997 0.0215217 -0.0983036 0.994924 
-0.153062 -0.210308 0.965579 -0.225049 0.00540416 0.974333 -0.642012 -0.296756 0.706935 
0.360614 -0.11899 0.925094 0.199873 -0.0790042 0.976632 0.0431937 -0.114746 0.992455 
-0.0643554 0.0177477 0.997769 -0.102419 0.0409048 0.9939 -0.0742428 0.110759 0.99107 
0.0111127 -0.0155551 0.999817 0.0670156 -0.081755 0.994397 0.00764449 -0.00474161 0.99996 
-0.0795655 0.0474099 0.995702 -0.0141172 0.0411657 0.999053 0.0851762 -0.0601869 0.994546 
0.00802814 -0.145436 0.989335 -0.0593101 -0.151178 0.986726 -0.0796201 -0.36546 0.927415 
-0.316597 -0.199512 0.927341 0.216685 -0.338994 0.915495 0.147736 -0.215369 0.965293 
0.0482298 -0.145903 0.988123 -0.0744506 -0.0290304 0.996802 -0.0586257 0.0131386 0.998194 
-0.0406215 -0.0351245 0.998557 0.0435635 -0.0711294 0.996515 0.0501486 -0.0709123 0.996221 
-0.0735388 -0.0358953 0.996646 -0.0882286 -0.0890421 0.992113 0.022917 -0.220403 0.97514 
-0.02958 -0.28934 0.956769 -0.241687 -0.296298 0.92401 0.181419 -0.453987 0.872344 
0.129848 -0.38558 0.913492 0.071974 -0.27612 0.958425 -0.0708779 -0.201073 0.977009 
-0.0871836 -0.198458 0.976224 0.0232272 -0.213652 0.976634 0.0445926 -0.277326 0.95974 
-0.0934917 -0.350985 0.931702 -0.208589 -0.474979 0.854918 0.137367 0.479975 0.866461 
0.0369512 0.502514 0.863779 -0.0049469 0.538592 0.842552 -0.0910399 0.494253 0.864538 
0.0392155 0.549969 0.834264 0.382994 0.677006 0.628473 0.145187 0.473812 0.868575 
0.196838 0.434992 0.878656 0.217166 0.61016 0.761934 -0.101097 0.482736 0.869911 
-0.098504 0.443054 0.891067 -0.121248 0.542903 0.830997 -0.0169375 0.461207 0.887131 
-0.046585 0.680428 0.731333 0.0463696 0.548867 0.834622 0.0597067 0.475328 0.87778 
0.0905307 0.697607 0.710738 -0.00452109 0.537464 0.843274 -0.0739853 0.440295 0.894799 
-0.133624 0.576683 0.805966 -0.0299918 0.528357 0.848492 -0.0846201 0.737533 0.669988 
-0.200551 0.524103 0.827705 -0.178256 0.750004 0.636961 -0.382347 0.881492 0.277096 
0.378506 0.274572 0.883937 0.433276 0.475182 0.765816 0.263716 0.286865 0.920957 
0.241726 0.290742 0.925763 0.284083 0.305659 0.908774 -0.258116 0.385822 0.88573 
-0.293407 0.374213 0.879703 -0.284111 0.426066 0.858923 -0.574396 0.633769 0.518078 
0.400125 0.207788 0.892594 0.646137 0.347042 0.679757 -0.362724 0.257154 0.895714 
-0.332358 0.186621 0.924506 -0.380599 0.253659 0.88927 -0.774745 0.50221 0.384131 
0.398995 0.0658302 0.914587 0.655742 0.206309 0.72625 0.050543 0.00568252 0.998706 
-0.512529 0.231259 0.826942 -0.768005 0.124655 0.628195 -0.659608 0.261462 0.704667 
0.423384 0.0689935 0.903319 0.518773 0.0713916 0.851926 0.045284 0.00931255 0.998931 
0.051022 0.00953068 0.998652 0.0507183 0.0166144 0.998575 0.0458548 0.00943223 0.998904 
-0.811292 0.0699777 0.580438 0.450632 -0.0599816 0.890693 0.553846 -0.057163 0.830654 
-0.685942 -0.285118 0.669471 -0.669943 -0.312228 0.673565 0.431593 -0.162821 0.887252 
0.673231 -0.359797 0.645992 0.435504 -0.305222 0.846862 -0.170066 -0.371016 0.912921 
-0.450407 -0.346617 0.822794 -0.39424 -0.438544 0.807623 -0.725197 -0.507172 0.465689 
0.426816 -0.373778 0.823479 0.462078 -0.38864 0.797147 0.311255 -0.484243 0.817697 
-0.0883232 -0.41284 0.906511 -0.0485038 -0.514237 0.856276 -0.249742 -0.333539 0.909055 
-0.202942 -0.440756 0.874385 -0.253785 -0.40794 0.877028 -0.46955 -0.667683 0.577687 
0.235755 -0.488637 0.840032 0.411847 -0.636854 0.651766 0.194214 -0.482973 0.853826 
0.165114 -0.509045 0.844755 0.132443 -0.51177 0.848852 0.0129466 -0.553211 0.832941 
-0.060851 -0.460656 0.88549 -0.0191145 -0.43045 0.902412 -0.0505589 -0.518725 0.853445 
-0.177945 -0.559741 0.809337 -0.192784 -0.483431 0.85389 -0.210166 -0.499691 0.840321 
-0.148102 -0.550274 0.821744 -0.0943804 -0.721812 0.685624 -0.157485 -0.762105 0.628008 
-0.372713 -0.804384 0.462656 0.270328 -0.813091 0.515564 0.151664 -0.620564 0.769349 
0.0164186 -0.574001 0.81869 -0.0526389 -0.560122 0.826736 -0.0582115 -0.628248 0.775833 
-0.138145 -0.738553 0.65989 -0.279461 -0.907193 0.314488 0.399853 0.827644 0.393857 
0.258868 0.885553 0.385725 0.104961 0.958561 0.264847 0.0527097 0.973107 0.224242 
-0.0224712 0.978537 0.204844 -0.129177 0.969152 0.209898 -0.17981 0.955252 0.234866 
-0.0903701 0.975855 0.198847 0.0475053 0.987374 0.151117 0.0578351 0.990493 0.124815 
-0.0557514 0.990658 0.124455 -0.149199 0.966806 0.207428 -0.239662 0.952817 0.186283 
-0.370038 0.904918 0.210229 0.482139 0.770681 0.416646 0.541236 0.714167 0.44388 
-0.400737 0.891005 0.213355 -0.406967 0.90975 -0.0820529 -0.609902 0.756692 0.235451 
0.711102 0.525115 0.467534 0.739016 0.464833 0.487634 0.801354 0.597959 -0.0166734 
-0.692687 0.683736 0.229542 -0.789638 0.570492 0.225855 0.80769 0.362296 0.465165 
-0.844237 0.483083 0.232152 0.811976 0.21088 0.544266 -0.945074 0.193763 0.263233 
0.849547 0.0556879 0.524565 0.955924 0.038431 0.291088 -0.946658 0.014166 0.32193 
0.861667 -0.146961 0.485729 -0.956617 -0.162999 0.241487 0.851747 -0.362134 0.378664 
0.736167 -0.586371 0.337976 -0.842221 -0.471662 0.261148 -0.766783 -0.549668 0.331525 
0.709177 -0.626433 0.323496 0.580329 -0.772419 0.258045 -0.702236 -0.618121 0.353259 
-0.53703 -0.764447 0.356679 0.537094 -0.810554 0.233524 0.483456 -0.852939 0.19689 
0.426032 -0.889751 0.163827 -0.236016 -0.95401 0.184828 -0.156023 -0.951641 0.264644 
-0.1503 -0.940704 0.304116 -0.208148 -0.918233 0.336931 -0.410287 -0.851472 0.326587 
-0.356808 -0.8762 0.323978 0.409351 -0.897131 0.166098 0.315888 -0.922596 0.221429 
0.209554 -0.950003 0.231478 0.0411847 -0.962191 0.269244 -0.0877364 -0.954368 0.285453 
-0.13104 -0.95651 0.260611 -0.207485 -0.956995 0.202759 -0.255697 -0.954639 0.152592 
-0.287965 -0.947695 0.13766 -0.302104 -0.908149 -0.289825 0.377498 0.920318 -0.102514 
0.191801 0.964319 -0.182484 0.0318476 0.977796 -0.207126 -0.00466041 0.96948 -0.245126 
-0.0485996 0.947564 -0.315848 -0.119682 0.932254 -0.341435 -0.200059 0.907437 -0.369505 
-0.150622 0.878108 -0.454135 0.00429761 0.858127 -0.513419 0.0487497 0.872629 -0.485944 
0.0151744 0.892878 -0.450042 -0.073909 0.91999 -0.384909 -0.230016 0.884804 -0.405235 
0.786761 0.605772 -0.118524 0.555395 0.822357 -0.123551 0.57027 0.811154 -0.1297 
-0.151983 0.58455 -0.796996 -0.211814 0.62724 -0.74947 -0.160078 0.726617 -0.668134 
0.0200209 0.757906 -0.652057 0.087807 0.752363 -0.65287 0.00666664 0.748457 -0.66315 
-0.0890208 0.738436 -0.668422 -0.365815 0.829116 -0.422783 -0.230552 0.825523 -0.515128 
-0.403207 0.806204 -0.432964 -0.603932 0.6576 -0.450365 0.795141 0.595831 -0.112854 
0.786444 0.600275 -0.145522 -0.377205 0.553578 -0.742474 -0.639444 0.626177 -0.446108 
-0.556718 0.572676 -0.601753 -0.708112 0.487479 -0.510825 0.887094 0.44895 -0.107276 
-0.543476 0.418023 -0.727936 -0.710797 0.477653 -0.516347 -0.702768 0.47102 -0.533158 
0.971268 0.210216 -0.111569 0.977688 0.174127 -0.117495 -0.854506 0.255934 -0.452015 
-0.632989 0.25185 -0.73205 0.992643 0.00534862 -0.120959 0.970075 -0.169148 -0.174192 
0.970212 -0.000639407 -0.242258 -0.943833 0.00644288 -0.330361 -0.672414 0.0407745 -0.739052 
0.964833 -0.193425 -0.177998 -0.910101 -0.161033 -0.381818 -0.682296 -0.139803 -0.717584 
0.853652 -0.468489 -0.227589 0.737884 -0.619627 -0.267562 0.567279 -0.480875 -0.668546 
-0.805823 -0.425226 -0.412107 -0.765963 -0.481412 -0.426078 -0.740462 -0.410913 -0.531851 
0.719769 -0.643433 -0.260628 0.529532 -0.801901 -0.276678 -0.717283 -0.584906 -0.37867 
-0.606858 -0.730785 -0.312533 -0.632488 -0.551169 -0.544216 0.504485 -0.810782 -0.296861 
0.473011 -0.834411 -0.282877 0.448595 -0.697113 -0.559281 0.395783 -0.860296 -0.32132 
-0.29868 -0.882424 -0.363481 -0.145064 -0.920347 -0.363206 -0.0819504 -0.643882 -0.760723 
-0.0745886 -0.954867 -0.287515 0.00192613 -0.719135 -0.694867 -0.092428 -0.962115 -0.2565 
-0.0253523 -0.765031 -0.643494 -0.184789 -0.961079 -0.205379 -0.178321 -0.749148 -0.637949 
-0.468018 -0.839117 -0.277202 -0.400919 -0.881396 -0.24981 -0.427528 -0.818409 -0.383961 
0.37915 -0.87011 -0.314886 0.337935 -0.889055 -0.308838 0.319872 -0.821317 -0.472356 
0.201223 -0.926635 -0.31758 0.159873 -0.730769 -0.663639 0.0420822 -0.94448 -0.325863 
0.0478523 -0.676574 -0.734819 -0.0801102 -0.946192 -0.313532 -0.0634767 -0.692345 -0.718769 
-0.145257 -0.934825 -0.324041 -0.132163 -0.739307 -0.660272 -0.295948 -0.884896 -0.359687 
-0.245763 -0.907405 -0.340906 -0.228678 -0.798978 -0.556184 0.296728 0.723734 -0.623026 
0.114322 0.708336 -0.696556 0.0441081 0.751728 -0.657996 -0.0866816 0.719844 -0.688703 
-0.12088 0.658737 -0.742599 0.370179 0.709205 -0.599997 0.524114 0.582228 -0.621543 
0.272836 0.67414 -0.686364 0.104868 0.658024 -0.745659 0.0266974 0.629506 -0.776537 
-0.0989139 0.623884 -0.775232 -0.150509 0.584202 -0.797531 -0.127775 0.613206 -0.77952 
-0.152857 0.578275 -0.801394 -0.208155 0.443334 -0.871852 -0.0966157 0.37461 -0.922135 
0.0583841 0.477374 -0.876759 0.105788 0.511357 -0.852832 0.0135373 0.542407 -0.840007 
-0.0958055 0.496756 -0.862586 -0.163488 0.482407 -0.860555 0.549387 0.527132 -0.648311 
0.604847 0.406691 -0.684662 0.433927 0.426984 -0.793343 0.228895 0.341348 -0.911641 
0.107905 0.377281 -0.919791 0.0281864 0.306963 -0.951304 -0.10763 0.308176 -0.945221 
-0.16019 0.346121 -0.924413 -0.212455 0.359819 -0.908512 -0.208108 0.309121 -0.927974 
-0.0919459 0.362278 -0.927524 0.0609522 0.462773 -0.884379 0.0900306 0.438689 -0.894117 
0.035365 0.415936 -0.908706 -0.0778229 0.429403 -0.899754 -0.219566 0.474139 -0.852633 
-0.153387 0.445837 -0.881874 -0.324751 0.376956 -0.867433 0.609701 0.376961 -0.697255 
0.590299 0.368622 -0.718098 0.390677 0.29304 -0.872639 0.23667 0.146623 -0.960463 
-0.06544 0.0475066 -0.996725 -0.0923359 0.0758623 -0.992834 -0.206995 0.204291 -0.956775 
-0.231697 0.284935 -0.930123 -0.0255807 0.241157 -0.970149 0.108306 0.284788 -0.952452 
0.0724088 0.242092 -0.967548 -0.0125447 0.209182 -0.977796 -0.0410964 0.193063 -0.980325 
-0.183216 0.236059 -0.95431 -0.392976 0.320992 -0.861704 -0.266442 0.21043 -0.9406 
-0.503659 0.356738 -0.786807 0.691683 0.213683 -0.689865 0.539606 0.192641 -0.819582 
0.312393 0.161756 -0.93608 -0.0848845 -0.0441059 -0.995414 -0.00256099 -0.0837705 -0.996482 
0.00450279 -0.0256845 -0.99966 -0.209052 0.148422 -0.966576 -0.0884281 0.114873 -0.989437 
0.074662 0.14257 -0.986965 0.0187925 0.0857987 -0.996135 -0.00784403 0.0792784 -0.996822 
-0.0651478 0.0877693 -0.994008 -0.133944 0.0568924 -0.989354 -0.120959 0.156392 -0.98026 
-0.49975 0.244312 -0.831001 -0.422284 0.179446 -0.888525 0.739361 -0.0174396 -0.673083 
0.512607 -0.0183782 -0.858427 -0.134952 -0.00437438 -0.990843 -0.0756554 -0.0397055 -0.996343 
0.0168143 -0.171953 -0.984962 -0.0999933 -0.0624445 -0.993027 -0.0265325 0.0898323 -0.995603 
0.082791 -0.0105836 -0.996511 0.00652989 0.0105893 -0.999923 -0.011781 0.0564888 -0.998334 
-0.0577256 0.0372861 -0.997636 -0.107433 0.0664012 -0.991992 -0.193166 0.0981909 -0.976241 
-0.456748 0.0825519 -0.885758 -0.382064 0.0574002 -0.922352 0.651283 -0.258936 -0.71329 
0.547441 -0.436517 -0.713975 0.523063 -0.232749 -0.819898 0.303657 -0.238517 -0.922444 
0.0907578 -0.167937 -0.981611 -0.109987 -0.00297846 -0.993929 -0.165054 0.0307932 -0.985804 
-0.0421575 -0.0479078 -0.997962 0.0758801 -0.0640622 -0.995057 -0.052559 0.0796536 -0.995436 
-0.00662574 -0.0963797 -0.995323 0.0837019 -0.0412205 -0.995638 0.0188607 -0.00114603 -0.999821 
-0.05267 0.0440176 -0.997641 -0.0719758 0.0228434 -0.997145 -0.179395 -0.0546421 -0.982259 
-0.521578 -0.0993062 -0.847405 -0.407638 -0.0161318 -0.913001 0.529446 -0.446786 -0.721159 
0.394239 -0.352343 -0.848781 0.214909 -0.263839 -0.940321 0.0950455 -0.223521 -0.970054 
-0.027152 -0.155439 -0.987472 -0.053925 -0.0810046 -0.995254 -0.11744 -0.0159807 -0.992951 
-0.0747684 0.0597581 -0.995409 0.0247248 -0.0401689 -0.998887 -0.0695313 -0.061988 -0.995652 
-0.0270687 -0.0994619 -0.994673 0.101301 -0.144692 -0.984278 0.073403 -0.111034 -0.991102 
-0.045945 -0.0945486 -0.994459 -0.183093 -0.0940814 -0.978583 -0.266183 -0.170933 -0.948646 
-0.536879 -0.376395 -0.755041 -0.557197 -0.422775 -0.714698 -0.504166 -0.339424 -0.794109 
0.433009 -0.549924 -0.714204 0.416547 -0.561325 -0.715125 0.397759 -0.529975 -0.748942 
0.324572 -0.568884 -0.755661 0.251993 -0.51463 -0.819546 0.161927 -0.381965 -0.909881 
0.0902455 -0.303222 -0.948637 0.0327784 -0.203804 -0.978463 -0.023485 -0.143682 -0.989345 
-0.0591738 -0.0831167 -0.994781 -0.0509402 -0.123876 -0.990989 -0.10743 -0.186305 -0.976601 
-0.0944162 -0.202395 -0.974742 -0.0552069 -0.563445 -0.824307 0.0568228 -0.320709 -0.945472 
0.0227571 -0.647933 -0.761357 0.0816632 -0.343544 -0.935579 -0.0226849 -0.709822 -0.704015 
-0.0431712 -0.346571 -0.93703 -0.165312 -0.625568 -0.762455 -0.168047 -0.392727 -0.904171 
-0.493419 -0.454747 -0.741447 -0.371484 -0.505713 -0.778623 -0.282108 -0.329989 -0.900845 
0.260791 -0.617719 -0.741897 0.238441 -0.630084 -0.739013 0.230868 -0.614039 -0.754755 
0.209853 -0.584016 -0.784147 0.170182 -0.477268 -0.862122 0.142102 -0.603979 -0.78423 
0.122194 -0.410183 -0.90378 0.0486602 -0.626894 -0.777583 0.0123286 -0.358321 -0.933517 
-0.062297 -0.615723 -0.785496 -0.0579388 -0.349254 -0.935235 -0.119736 -0.580816 -0.805181 
-0.0895195 -0.374629 -0.922843 -0.17579 -0.562483 -0.807905 -0.142258 -0.433679 -0.889767 
-0.137641 -0.556301 -0.819502 -0.186908 -0.539076 -0.821257 -0.178755 -0.50782 -0.842713 
0.0985515 0.217805 -0.971004 -0.0315524 0.166545 -0.985529 0.15742 0.132934 -0.978544 
0.083261 0.111103 -0.990315 0.0965447 0.128609 -0.986985 -0.0701396 0.046745 -0.996441 
-0.0776327 0.047865 -0.995832 0.0972774 0.114572 -0.988641 0.287362 0.0134233 -0.957728 
0.0769316 0.110082 -0.990941 0.0100647 -0.0286264 -0.999539 -0.0718168 -0.0231209 -0.99715 
-0.0654451 -0.014769 -0.997747 0.286333 -0.0274188 -0.957738 0.283561 -0.0571814 -0.957248 
0.277602 -0.0275239 -0.960302 0.0589329 -0.10615 -0.992602 0.0316421 -0.0279241 -0.999109 
-0.0185693 -0.0193745 -0.99964 -0.0963475 -0.0124336 -0.99527 -0.0885419 -0.0140556 -0.995973 
0.0461416 -0.10062 -0.993854 0.0488604 -0.116811 -0.991952 0.0236743 -0.0633233 -0.997712 
-0.0525469 -0.0482235 -0.997453 -0.0506822 -0.0517182 -0.997375 -0.0511335 -0.0492743 -0.997476 

