# vtk DataFile Version 4.2
vtk output
ASCII
DATASET POLYDATA
POINTS 496 float
-11.8547 -33.3338 -17.7353 -4.07751 -33.3338 -19.3603 3.69972 -33.3338 -19.4472 
11.4769 -33.3338 -18.6877 19.2542 -33.3338 -17.7974 27.0314 -33.3338 -16.3548 
-27.4092 -25.5566 -17.0732 -19.632 -25.5566 -19.6042 -11.8547 -25.5566 -21.4315 
-4.07751 -25.5566 -22.4127 3.69972 -25.5566 -22.0266 11.4769 -25.5566 -21.0659 
19.2542 -25.5566 -20.8 27.0314 -25.5566 -19.9829 34.8086 -25.5566 -18.4403 
-35.1864 -17.7793 -18.2185 -27.4092 -17.7793 -20.4701 -19.632 -17.7793 -21.5854 
-11.8547 -17.7793 -22.3039 -4.07751 -17.7793 -22.8027 3.69972 -17.7793 -22.2325 
11.4769 -17.7793 -21.0357 19.2542 -17.7793 -21.1574 27.0314 -17.7793 -21.576 
34.8086 -17.7793 -20.89 42.5858 -17.7793 -17.8146 -42.9636 -10.0021 -16.0526 
-35.1864 -10.0021 -19.6767 -27.4092 -10.0021 -21.3582 -19.632 -10.0021 -22.2682 
-11.8547 -10.0021 -22.0261 -4.07751 -10.0021 -21.3558 3.69972 -10.0021 -21.8883 
11.4769 -10.0021 -20.4137 19.2542 -10.0021 -20.5687 27.0314 -10.0021 -21.349 
34.8086 -10.0021 -21.1507 42.5858 -10.0021 -19.4115 -42.9636 -2.22488 -16.809 
-35.1864 -2.22488 -19.8732 -27.4092 -2.22488 -20.9852 -19.632 -2.22488 -21.808 
-11.8547 -2.22488 -22.5179 -4.07751 -2.22488 -21.0307 3.69972 -2.22488 -23.2199 
11.4769 -2.22488 -22.0157 19.2542 -2.22488 -20.5536 27.0314 -2.22488 -21.5219 
34.8086 -2.22488 -21.4277 42.5858 -2.22488 -19.7157 -42.9636 5.55234 -16.3519 
-35.1864 5.55234 -19.3315 -27.4092 5.55234 -20.2521 -19.632 5.55234 -20.9938 
-11.8547 5.55234 -22.3819 -4.07751 5.55234 -21.9033 3.69972 5.55234 -22.2664 
11.4769 5.55234 -22.0976 19.2542 5.55234 -21.3937 27.0314 5.55234 -21.9178 
34.8086 5.55234 -21.5594 42.5858 5.55234 -19.9163 -35.1864 13.3296 -18.9074 
-27.4092 13.3296 -20.7211 -19.632 13.3296 -20.8813 -11.8547 13.3296 -21.515 
-4.07751 13.3296 -21.0608 3.69972 13.3296 -20.5082 11.4769 13.3296 -21.0913 
19.2542 13.3296 -21.7714 27.0314 13.3296 -21.9305 34.8086 13.3296 -21.1647 
42.5858 13.3296 -18.7371 -35.1864 21.1068 -17.8405 -27.4092 21.1068 -20.1247 
-19.632 21.1068 -20.8931 -11.8547 21.1068 -21.4344 -4.07751 21.1068 -21.6003 
3.69972 21.1068 -21.3478 11.4769 21.1068 -20.9324 19.2542 21.1068 -21.2158 
27.0314 21.1068 -21.0584 34.8086 21.1068 -19.5583 -27.4092 28.884 -18.2137 
-19.632 28.884 -19.7526 -11.8547 28.884 -21.0227 -4.07751 28.884 -21.3001 
3.69972 28.884 -21.0292 11.4769 28.884 -20.7228 19.2542 28.884 -19.6583 
27.0314 28.884 -18.2686 -11.8547 36.6612 -17.9899 -4.07751 36.6612 -18.7549 
3.69972 36.6612 -18.3063 11.4769 36.6612 -17.0569 -11.8547 -35.0937 -15.9751 
-4.07751 -36.8003 -15.9751 3.69972 -37.2636 -15.9751 11.4769 -36.8318 -15.9751 
11.4769 -41.111 -8.19828 19.2542 -35.5146 -15.9751 27.0314 -33.7646 -15.9751 
-27.4092 -27.0151 -15.9751 -27.4092 -33.3338 -8.54719 -16.6242 -33.3338 -15.9751 
-19.632 -31.7165 -15.9751 -19.632 -33.3338 -14.3034 28.0901 -33.3338 -15.9751 
34.8086 -29.6423 -15.9751 34.8086 -33.3338 -9.88017 -29.7462 -25.5566 -15.9751 
-35.1864 -21.6433 -15.9751 -35.1864 -25.5566 -12.3571 40.1842 -25.5566 -15.9751 
42.5858 -22.5807 -15.9751 42.5858 -25.5566 -13.4852 -39.0072 -17.7793 -15.9751 
-42.9636 -10.2446 -15.9751 -42.9636 -17.7793 -12.2786 45.6105 -17.7793 -15.9751 
50.3631 -17.7793 -9.85613 -43.0645 -10.0021 -15.9751 48.5583 -10.0021 -15.9751 
50.3631 -10.0021 -14.1615 -44.1511 -2.22488 -15.9751 49.6514 -2.22488 -15.9751 
50.3631 -2.22488 -15.4036 -43.4986 5.55234 -15.9751 -42.9636 7.99696 -15.9751 
49.6907 5.55234 -15.9751 50.3631 5.55234 -15.3639 -41.2386 13.3296 -15.9751 
-42.9636 13.3296 -14.8958 46.6858 13.3296 -15.9751 42.5858 20.0646 -15.9751 
50.3631 13.3296 -11.5856 -38.7393 21.1068 -15.9751 -42.9636 21.1068 -11.3127 
-35.1864 25.0384 -15.9751 41.6681 21.1068 -15.9751 34.8086 28.0242 -15.9751 
42.5858 21.1068 -15.3191 -31.6298 28.884 -15.9751 -35.1864 28.884 -12.5231 
-27.4092 32.0341 -15.9751 -19.632 36.3487 -15.9751 19.2542 35.4236 -15.9751 
33.521 28.884 -15.9751 27.0314 32.0997 -15.9751 34.8086 28.884 -15.3065 
-27.4092 36.6612 -8.97546 -18.9301 36.6612 -15.9751 -19.632 36.6612 -15.6587 
-11.8547 38.8206 -15.9751 -4.07751 39.9204 -15.9751 3.69972 39.3118 -15.9751 
15.8642 36.6612 -15.9751 11.4769 37.8005 -15.9751 19.2542 36.6612 -14.7027 
27.0314 36.6612 -9.94604 11.4769 -41.1112 -8.19789 -27.4092 -33.5475 -8.19789 
-19.632 -36.8575 -8.19789 -11.8547 -39.022 -8.19789 -4.07751 -40.3248 -8.19789 
11.4452 -41.111 -8.19789 3.69972 -41.0728 -8.19789 3.69972 -41.111 -3.65471 
11.4777 -41.111 -8.19789 11.4769 -41.111 -8.19529 19.2542 -39.6107 -8.19789 
27.0314 -37.4228 -8.19789 34.8086 -33.9843 -8.19789 -27.7923 -33.3338 -8.19789 
-35.1864 -28.7061 -8.19789 35.8921 -33.3338 -8.19789 42.5858 -28.5205 -8.19789 
-38.9267 -25.5566 -8.19789 -42.9636 -21.4841 -8.19789 45.6093 -25.5566 -8.19789 
50.3631 -19.1066 -8.19789 -45.6842 -17.7793 -8.19789 51.1754 -17.7793 -8.19789 
-48.9464 -10.0021 -8.19789 54.0039 -10.0021 -8.19789 -50.1674 -2.22488 -8.19789 
-50.7409 -2.22488 -4.71293 55.1417 -2.22488 -8.19789 -49.7479 5.55234 -8.19789 
-50.7409 5.55234 -1.94661 54.9896 5.55234 -8.19789 -48.169 13.3296 -8.19789 
52.4034 13.3296 -8.19789 50.3631 17.29 -8.19789 -44.6959 21.1068 -8.19789 
-42.9636 23.6706 -8.19789 48.1523 21.1068 -8.19789 42.5858 27.5832 -8.19789 
-38.5417 28.884 -8.19789 -35.1864 31.8619 -8.19789 41.1795 28.884 -8.19789 
34.8086 33.6973 -8.19789 -28.0897 36.6612 -8.19789 -27.4092 37.0574 -8.19789 
-19.632 40.6553 -8.19789 -11.8547 42.6869 -8.19789 -4.07751 43.1182 -8.19789 
3.69972 42.6096 -8.19789 11.4769 41.7058 -8.19789 19.2542 40.0747 -8.19789 
28.9018 36.6612 -8.19789 27.0314 37.5218 -8.19789 3.69972 -41.1374 -0.420662 
-27.4092 -35.7065 -0.420662 -19.632 -38.6006 -0.420662 -11.8547 -40.2001 -0.420662 
2.44441 -41.111 -0.420662 -4.07751 -40.9744 -0.420662 4.12624 -41.111 -0.420662 
3.69972 -41.111 -0.315702 11.4769 -40.6196 -0.420662 19.2542 -39.0549 -0.420662 
27.0314 -36.7607 -0.420662 34.8086 -33.4751 -0.420662 -31.6946 -33.3338 -0.420662 
-35.1864 -31.1539 -0.420662 27.0314 -33.3338 6.30041 35.0637 -33.3338 -0.420662 
34.8086 -33.3338 -0.121368 42.5858 -28.4338 -0.420662 -41.5696 -25.5566 -0.420662 
-42.9636 -24.0453 -0.420662 45.731 -25.5566 -0.420662 42.5858 -25.5566 4.62552 
50.3631 -19.8657 -0.420662 -47.2939 -17.7793 -0.420662 51.7361 -17.7793 -0.420662 
50.3631 -17.7793 2.5407 -50.5271 -10.0021 -0.420662 -50.7409 -8.16113 -0.420662 
54.7782 -10.0021 -0.420662 -51.3837 -2.22488 -0.420662 -50.7409 -2.22488 3.40199 
56.2492 -2.22488 -0.420662 -50.9636 5.55234 -0.420662 -50.7409 6.57362 -0.420662 
-50.7409 5.55234 0.71347 56.1458 5.55234 -0.420662 -49.0614 13.3296 -0.420662 
53.6703 13.3296 -0.420662 50.3631 19.2176 -0.420662 -45.6006 21.1068 -0.420662 
-42.9636 24.7971 -0.420662 49.0593 21.1068 -0.420662 42.5858 28.1323 -0.420662 
-39.2994 28.884 -0.420662 -35.1864 32.4546 -0.420662 41.6803 28.884 -0.420662 
34.8086 33.788 -0.420662 -28.6231 36.6612 -0.420662 -27.4092 37.3329 -0.420662 
-27.4092 36.6612 1.42889 -19.632 40.4398 -0.420662 -11.8547 41.9826 -0.420662 
-4.07751 42.1193 -0.420662 3.69972 41.6563 -0.420662 11.4769 41.1488 -0.420662 
19.2542 39.9625 -0.420662 19.2542 36.6612 7.00626 29.0808 36.6612 -0.420662 
27.0314 37.5808 -0.420662 27.0314 36.6612 1.70405 -27.4092 -35.4532 7.35656 
-19.632 -38.3005 7.35656 -11.8547 -39.8224 7.35656 -4.07751 -40.0241 7.35656 
3.69972 -38.9587 7.35656 11.4769 -36.8989 7.35656 19.2542 -34.883 7.35656 
-31.2536 -33.3338 7.35656 -35.1864 -30.87 7.35656 -27.4092 -33.3338 14.4661 
11.4769 -33.3338 11.5783 24.8301 -33.3338 7.35656 19.2542 -33.3338 9.09016 
27.0314 -32.6221 7.35656 34.8086 -29.1033 7.35656 -40.9867 -25.5566 7.35656 
-42.9636 -23.1308 7.35656 19.2542 -25.5566 14.4618 27.0314 -25.5566 13.3493 
40.1816 -25.5566 7.35656 34.8086 -25.5566 10.917 42.5858 -23.5268 7.35656 
-46.3882 -17.7793 7.35656 34.8086 -17.7793 14.7994 47.5301 -17.7793 7.35656 
42.5858 -17.7793 11.5372 50.3631 -12.1055 7.35656 -49.1998 -10.0021 7.35656 
42.5858 -10.0021 13.7119 51.27 -10.0021 7.35656 50.3631 -10.0021 8.31902 
-50.0722 -2.22488 7.35656 42.5858 -2.22488 15.0325 53.113 -2.22488 7.35656 
50.3631 -2.22488 10.2862 -49.4239 5.55234 7.35656 53.1665 5.55234 7.35656 
50.3631 5.55234 10.4833 -47.4773 13.3296 7.35656 42.5858 13.3296 13.6721 
50.438 13.3296 7.35656 50.3631 13.4575 7.35656 50.3631 13.3296 7.44446 
-43.5469 21.1068 7.35656 -42.9636 21.8948 7.35656 -42.9636 21.1068 9.68161 
34.8086 21.1068 13.2364 44.9678 21.1068 7.35656 42.5858 23.4776 7.35656 
42.5858 21.1068 9.52938 -36.2438 28.884 7.35656 -35.1864 29.7446 7.35656 
-35.1864 28.884 9.51117 -27.4092 34.5049 7.35656 11.4769 28.884 15.0546 
19.2542 36.4379 7.35656 19.2542 28.884 13.7641 27.0314 33.2776 7.35656 
27.0314 28.884 11.1057 35.6939 28.884 7.35656 34.8086 29.546 7.35656 
34.8086 28.884 7.99198 -21.3246 36.6612 7.35656 -19.632 37.2605 7.35656 
-19.632 36.6612 8.25865 -11.8547 38.4397 7.35656 -11.8547 36.6612 9.57255 
-4.07751 38.3752 7.35656 -4.07751 36.6612 9.48135 3.69972 38.2017 7.35656 
3.69972 36.6612 9.37129 18.125 36.6612 7.35656 11.4769 37.7301 7.35656 
11.4769 36.6612 8.72873 -19.632 -35.8916 15.1338 -11.8547 -37.2375 15.1338 
-4.07751 -36.6228 15.1338 3.69972 -33.6036 15.1338 -35.1864 -28.5417 15.1338 
-26.8332 -33.3338 15.1338 -27.4092 -33.1179 15.1338 -19.632 -33.3338 18.8102 
-11.8547 -33.3338 20.1396 -4.07751 -33.3338 18.802 4.25382 -33.3338 15.1338 
3.69972 -33.3338 15.4121 11.4769 -27.8276 15.1338 -38.4951 -25.5566 15.1338 
-42.9636 -20.2822 15.1338 -35.1864 -25.5566 19.3846 3.69972 -25.5566 20.2127 
16.4005 -25.5566 15.1338 11.4769 -25.5566 16.3095 19.2542 -23.6288 15.1338 
27.0314 -21.2116 15.1338 -44.5541 -17.7793 15.1338 -42.9636 -17.7793 18.0123 
3.69972 -17.7793 22.8346 11.4769 -17.7793 18.1266 19.2542 -17.7793 16.9938 
33.2209 -17.7793 15.1338 27.0314 -17.7793 16.3595 34.8086 -15.9219 15.1338 
-47.2409 -10.0021 15.1338 -42.9636 -10.0021 22.7635 11.4769 -10.0021 18.4315 
19.2542 -10.0021 16.9237 27.0314 -10.0021 16.9108 38.1356 -10.0021 15.1338 
[...]
POINT_DATA 496
SCALARS ImageScalars float
LOOKUP_TABLE default
0 0 0 0 0 0 0 0 0 
0 0 0 0 0 0 0 0 0 
0 0 0 0 0 0 0 0 0 
0 0 0 0 0 0 0 0 0 
0 0 0 0 0 0 0 0 0 
0 0 0 0 0 0 0 0 0 
0 0 0 0 0 0 0 0 0 
0 0 0 0 0 0 0 0 0 
0 0 0 0 0 0 0 0 0 
0 0 0 0 0 0 0 0 0 
0 0 0 0 0 0 0 0 0 
0 0 0 0 0 0 0 0 0 
0 0 0 0 0 0 0 0 0 
0 0 0 0 0 0 0 0 0 
0 0 0 0 0 0 0 0 0 
0 0 0 0 0 0 0 0 0 
0 0 0 0 0 0 0 0 0 
0 0 0 0 0 0 0 0 0 
0 0 0 0 0 0 0 0 0 
0 0 0 0 0 0 0 0 0 
0 0 0 0 0 0 0 0 0 
0 0 0 0 0 0 0 0 0 
0 0 0 0 0 0 0 0 0 
0 0 0 0 0 0 0 0 0 
0 0 0 0 0 0 0 0 0 
0 0 0 0 0 0 0 0 0 
0 0 0 0 0 0 0 0 0 
0 0 0 0 0 0 0 0 0 
0 0 0 0 0 0 0 0 0 
0 0 0 0 0 0 0 0 0 
0 0 0 0 0 0 0 0 0 
0 0 0 0 0 0 0 0 0 
0 0 0 0 0 0 0 0 0 
0 0 0 0 0 0 0 0 0 
0 0 0 0 0 0 0 0 0 
0 0 0 0 0 0 0 0 0 
0 0 0 0 0 0 0 0 0 
0 0 0 0 0 0 0 0 0 
0 0 0 0 0 0 0 0 0 
0 0 0 0 0 0 0 0 0 
0 0 0 0 0 0 0 0 0 
0 0 0 0 0 0 0 0 0 
0 0 0 0 0 0 0 0 0 
0 0 0 0 0 0 0 0 0 
0 0 0 0 0 0 0 0 0 
0 0 0 0 0 0 0 0 0 
0 0 0 0 0 0 0 0 0 
0 0 0 0 0 0 0 0 0 
0 0 0 0 0 0 0 0 0 
0 0 0 0 0 0 0 0 0 
0 0 0 0 0 0 0 0 0 
0 0 0 0 0 0 0 0 0 
0 0 0 0 0 0 0 0 0 
0 0 0 0 0 0 0 0 0 
0 0 0 0 0 0 0 0 0 
0 
NORMALS Normals float
0.238879 0.639687 0.730573 0.0926138 0.586992 0.804278 -0.0420897 0.528919 0.847628 
-0.0931988 0.489864 0.866803 -0.142104 0.538124 0.8308 -0.242622 0.655443 0.715212 
0.340654 0.511854 0.788644 0.248721 0.358713 0.899702 0.174136 0.246676 0.953324 
0.0358094 0.181921 0.982661 -0.0843461 0.15421 0.984431 -0.0788494 0.138297 0.987247 
-0.0714782 0.182653 0.980576 -0.138949 0.294236 0.945578 -0.296644 0.408945 0.862999 
0.384626 0.337924 0.858994 0.201988 0.234221 0.950969 0.11203 0.159985 0.980742 
0.0755931 0.0362219 0.996481 -0.00346709 -0.0661804 0.997802 -0.114309 -0.00883951 0.993406 
-0.0658379 -0.0410802 0.996984 0.0340471 -0.0162436 0.999288 -0.0137883 0.0910713 0.995749 
-0.21621 0.159778 0.963185 -0.45761 0.265302 0.848651 0.57964 0.188677 0.792728 
0.308673 0.0975814 0.946149 0.164261 0.0293361 0.985981 0.0422697 0.0129254 0.999023 
-0.057328 0.0132915 0.998267 -0.00925115 -0.11255 0.993603 -0.0597226 0.0579866 0.996529 
-0.0868728 0.0478848 0.995068 0.0598448 -0.0385944 0.997461 0.0374495 -0.0030547 0.999294 
-0.121232 0.0328397 0.992081 -0.359321 0.110856 0.926606 0.527958 0.0161669 0.849116 
0.247888 -0.022859 0.968519 0.127066 -0.0705045 0.989385 0.096747 -0.0808754 0.992018 
-0.0489577 0.0234273 0.998526 0.0372406 0.0358048 0.998665 0.0770853 0.0306997 0.996552 
-0.179863 0.116507 0.976768 -0.0167273 0.0539014 0.998406 0.0548931 0.0364948 0.997825 
-0.10976 0.0260756 0.993616 -0.339454 0.0321954 0.940072 0.522852 -0.0949729 0.847116 
0.229977 -0.059745 0.97136 0.107711 -0.0174502 0.994029 0.133535 -0.0592459 0.989272 
0.0586229 -0.0654541 0.996132 -0.00860691 0.00092221 0.999963 0.0135208 -0.181311 0.983333 
-0.0571258 -0.0624334 0.996413 -0.00956864 0.0775398 0.996943 0.011029 0.0262576 0.999594 
-0.127009 -0.0175861 0.991746 -0.341875 -0.0620693 0.937693 0.303809 -0.0941848 0.948066 
0.114249 -0.0103137 0.993399 0.0512296 -0.00644868 0.998666 0.0113664 -0.0589273 0.998198 
-0.0651147 -0.0188215 0.9977 0.00192569 -0.0488092 0.998806 0.0810736 -0.0718828 0.994113 
0.05377 -0.0109903 0.998493 -0.0400015 -0.0526422 0.997812 -0.198132 -0.112843 0.973658 
-0.44603 -0.230856 0.864733 0.396508 -0.264126 0.879215 0.187761 -0.149433 0.970781 
0.0865907 -0.0716861 0.993661 0.0449792 -0.029805 0.998543 -0.00555917 0.0157993 0.99986 
-0.0428742 0.0338677 0.998506 -0.00872291 -0.0224508 0.99971 0.00859922 -0.133543 0.991006 
-0.0950127 -0.211501 0.972749 -0.306649 -0.33439 0.891151 0.323983 -0.435815 0.839703 
0.169179 -0.284742 0.943557 0.0987995 -0.180247 0.978647 -0.0004636 -0.165822 0.986156 
-0.0350378 -0.175065 0.983933 -0.0870992 -0.207452 0.97436 -0.138589 -0.335211 0.931894 
-0.239681 -0.459689 0.855125 0.175021 -0.569769 0.802952 0.0143089 -0.54177 0.840405 
-0.0984442 -0.564597 0.819475 -0.183881 -0.631048 0.753635 0.241189 0.724587 0.645602 
0.115936 0.775617 0.620466 0.00421047 0.751705 0.659486 -0.0843261 0.686358 0.722359 
-0.0984093 0.980997 0.167213 -0.160491 0.674469 0.720648 -0.248493 0.677619 0.692158 
0.363768 0.557968 0.745885 0.428703 0.81364 0.392688 0.308531 0.676284 0.668916 
0.337989 0.624536 0.704073 0.349004 0.718668 0.601425 -0.27187 0.674437 0.686456 
-0.397491 0.596026 0.697677 -0.471174 0.851449 0.230284 0.386591 0.548827 0.741172 
0.441506 0.490404 0.751383 0.518268 0.652071 0.553355 -0.522923 0.506518 0.685559 
-0.558019 0.44377 0.701201 -0.644205 0.589108 0.487802 0.529184 0.393969 0.751501 
0.583065 0.19646 0.788314 0.704287 0.458824 0.54172 -0.572463 0.326935 0.751931 
-0.835729 0.437323 0.332122 0.583543 0.190108 0.789517 -0.626853 0.143629 0.765785 
-0.749844 0.17542 0.637935 0.579447 0.0206424 0.814748 -0.63005 0.0423188 0.7754 
-0.674868 0.0448873 0.736572 0.546359 -0.0996429 0.831603 0.548403 -0.121509 0.827339 
-0.652822 -0.127629 0.746682 -0.694841 -0.137818 0.705835 0.537779 -0.158996 0.827958 
0.636077 -0.197472 0.74593 -0.603805 -0.292189 0.74165 -0.539511 -0.426699 0.725848 
-0.794948 -0.35628 0.491043 0.538674 -0.319795 0.779462 0.774102 -0.450901 0.444358 
0.492512 -0.422779 0.760717 -0.524446 -0.443097 0.727064 -0.399873 -0.548047 0.734674 
-0.564606 -0.465349 0.681667 0.462928 -0.523433 0.715343 0.598089 -0.634199 0.489981 
0.385479 -0.588596 0.710605 0.306797 -0.641901 0.702736 -0.229414 -0.63914 0.734077 
-0.382707 -0.559003 0.735562 -0.294259 -0.610443 0.735371 -0.422429 -0.591365 0.686907 
0.463777 -0.844287 0.268497 0.300964 -0.651289 0.696594 0.315837 -0.66662 0.675177 
0.188981 -0.692651 0.696075 0.0243352 -0.728791 0.684304 -0.11692 -0.718708 0.685412 
-0.219942 -0.672664 0.706505 -0.19203 -0.691388 0.696497 -0.249762 -0.735523 0.629782 
-0.375162 -0.873453 0.310377 -0.0984107 0.981001 0.167191 0.428193 0.82018 0.379414 
0.317091 0.885232 0.34032 0.20782 0.939107 0.273658 0.125103 0.967755 0.218633 
-0.0978023 0.981044 0.167294 0.0492126 0.980464 0.190442 0.00870685 0.999929 0.00818211 
-0.098423 0.981 0.167188 -0.0984218 0.981021 0.167066 -0.220879 0.964812 0.142651 
-0.339868 0.93021 0.138562 -0.468068 0.872956 0.137335 0.434024 0.817088 0.379461 
0.553886 0.737333 0.386717 -0.489805 0.860048 0.142859 -0.66521 0.722288 0.189196 
0.626269 0.683123 0.375671 0.725877 0.582591 0.365637 -0.731027 0.649342 0.209652 
-0.844589 0.47683 0.24352 0.80022 0.480364 0.359023 -0.861342 0.444005 0.246881 
0.899128 0.255343 0.355485 -0.923801 0.233985 0.303054 0.939512 0.0463441 0.339365 
0.983713 0.0374609 0.175797 -0.937875 0.0601421 0.341721 0.93226 -0.118745 0.341746 
0.989724 -0.136242 0.0433995 -0.925857 -0.165621 0.339643 0.899319 -0.287618 0.329396 
-0.867476 -0.372603 0.329623 -0.836699 -0.449284 0.313175 0.829916 -0.484863 0.275947 
0.791088 -0.550051 0.267626 -0.792394 -0.53345 0.295876 -0.668614 -0.698007 0.2564 
0.678178 -0.685454 0.265006 0.613695 -0.746911 0.255934 -0.639159 -0.728532 0.24641 
-0.507686 -0.828962 0.234685 0.476277 -0.848155 0.231932 0.465544 -0.854255 0.231337 
0.336728 -0.921615 0.192979 0.147822 -0.979227 0.138788 -0.00536444 -0.995251 0.0971975 
-0.0889755 -0.990326 0.106481 -0.168532 -0.972305 0.161925 -0.249809 -0.947138 0.201307 
-0.404176 -0.887191 0.22256 -0.373906 -0.90039 0.222467 -0.0204447 0.992335 -0.121875 
0.419018 0.90203 0.103758 0.267114 0.960018 0.0837589 0.147504 0.987915 0.0476064 
-0.0075468 0.994401 -0.105401 0.0591039 0.998069 -0.0190902 -0.0260813 0.991472 -0.127683 
-0.0223035 0.991901 -0.125037 -0.125905 0.964957 -0.230229 -0.231794 0.93808 -0.257446 
-0.32106 0.91301 -0.251662 -0.440292 0.866194 -0.236328 0.50444 0.856973 0.105532 
0.586084 0.803368 0.10538 -0.292284 0.788261 -0.541493 -0.445313 0.864032 -0.23483 
-0.43867 0.863706 -0.248154 -0.625972 0.753129 -0.202375 0.716982 0.69232 0.0814255 
0.756345 0.650433 0.0698497 -0.699078 0.68962 -0.188981 -0.594028 0.672094 -0.442063 
-0.826604 0.537715 -0.166095 0.882473 0.469031 0.0353741 -0.858215 0.486222 -0.164482 
-0.824956 0.478231 -0.301235 0.968622 0.24843 0.00739261 0.980624 0.195884 0.00258227 
-0.955345 0.264977 -0.130779 0.999571 0.0271695 -0.0108976 0.994207 0.0201142 -0.10558 
-0.9918 0.0827689 -0.0973755 0.990005 -0.138566 -0.0262481 0.986527 -0.161122 -0.0283525 
0.988491 -0.140896 -0.0550783 -0.982794 -0.161999 -0.0887281 0.948424 -0.314028 -0.0433417 
-0.913916 -0.395299 -0.0921738 -0.838874 -0.531411 -0.11787 0.858162 -0.509432 -0.0635444 
0.793259 -0.604106 -0.0761349 -0.803583 -0.580668 -0.13069 -0.64381 -0.743214 -0.182046 
0.695392 -0.712385 -0.0945368 0.610394 -0.784433 -0.109929 -0.624415 -0.758195 -0.187739 
-0.495693 -0.847069 -0.191735 0.460955 -0.875793 -0.143205 0.437576 -0.886915 -0.148018 
0.424646 -0.88185 -0.204979 0.276423 -0.940364 -0.198256 0.101407 -0.962552 -0.251418 
-0.0201331 -0.959538 -0.280857 -0.0608314 -0.961698 -0.267276 -0.108838 -0.967454 -0.228443 
-0.212459 -0.95778 -0.193699 -0.211438 -0.798959 -0.562991 -0.395345 -0.898663 -0.190016 
-0.360627 -0.912528 -0.192978 -0.361083 -0.883384 -0.298751 0.413241 0.89943 -0.142328 
0.262279 0.952799 -0.152914 0.104936 0.980338 -0.167113 -0.0482988 0.970205 -0.237421 
-0.180385 0.90377 -0.388151 -0.227236 0.807768 -0.543943 -0.223741 0.764966 -0.60396 
0.492272 0.859702 -0.136309 0.592974 0.794706 -0.12971 0.381823 0.8446 -0.375316 
-0.27703 0.662705 -0.695756 -0.26772 0.759206 -0.593239 -0.223751 0.712014 -0.665562 
-0.281248 0.752527 -0.595485 -0.389385 0.707169 -0.590163 0.736488 0.662431 -0.137005 
0.794913 0.589088 -0.145222 -0.169137 0.419817 -0.89171 -0.180072 0.481613 -0.857684 
-0.504365 0.636891 -0.583083 -0.359962 0.577731 -0.732567 -0.556447 0.589229 -0.585813 
0.885349 0.436308 -0.160597 -0.27034 0.275721 -0.922439 -0.692042 0.44636 -0.56731 
-0.474119 0.387663 -0.790525 -0.745071 0.320362 -0.58501 0.95557 0.218789 -0.197526 
-0.40996 0.19136 -0.891804 -0.751879 0.275744 -0.598868 -0.722265 0.264851 -0.638895 
0.978874 0.0133273 -0.204029 -0.360769 0.0916731 -0.928139 -0.803486 0.099667 -0.586921 
-0.693645 0.105711 -0.712518 0.964926 -0.15255 -0.213651 -0.812177 -0.147297 -0.56451 
-0.709482 -0.132183 -0.692216 0.918606 -0.333409 -0.212134 -0.464116 -0.294354 -0.835435 
-0.741599 -0.38431 -0.549852 -0.740449 -0.386781 -0.549669 -0.739276 -0.383672 -0.553413 
0.811808 -0.541677 -0.218066 0.798331 -0.559894 -0.221778 0.793143 -0.553042 -0.255086 
-0.303102 -0.463075 -0.832881 -0.61064 -0.560237 -0.559691 -0.553673 -0.609158 -0.567779 
-0.519572 -0.540247 -0.661951 0.605104 -0.744185 -0.28291 0.580966 -0.760779 -0.289298 
0.560043 -0.761377 -0.326583 0.379224 -0.843306 -0.38082 -0.105604 -0.409928 -0.905984 
-0.21153 -0.784391 -0.583083 -0.209183 -0.452092 -0.867096 -0.31964 -0.711816 -0.625418 
-0.29238 -0.569081 -0.768544 -0.448746 -0.658859 -0.603765 -0.434798 -0.666367 -0.605727 
-0.426266 -0.645673 -0.633563 0.254302 -0.852834 -0.456075 0.220215 -0.852856 -0.473437 
0.206458 -0.843881 -0.495217 0.0643727 -0.828643 -0.556064 0.0460946 -0.778805 -0.625571 
-0.0137391 -0.82356 -0.567062 -0.0090689 -0.767786 -0.640643 -0.0364073 -0.841043 -0.539742 
-0.0334444 -0.788377 -0.614283 -0.194548 -0.793891 -0.576097 -0.0976254 -0.828226 -0.551825 
-0.101479 -0.792752 -0.601038 0.231673 0.866964 -0.441249 0.044579 0.875008 -0.482052 
-0.17789 0.803929 -0.567497 -0.34169 0.651879 -0.67698 0.56949 0.733433 -0.371157 
0.366589 0.839025 -0.402057 0.377122 0.835515 -0.399617 0.200568 0.781289 -0.591067 
-0.0105383 0.715434 -0.698601 -0.215378 0.670713 -0.709758 -0.340533 0.640949 -0.687911 
-0.345402 0.641197 -0.685248 -0.312513 0.409711 -0.857014 0.656065 0.664347 -0.35808 
0.788134 0.510466 -0.343903 0.53727 0.65098 -0.536252 -0.421745 0.344526 -0.838709 
-0.222005 0.384387 -0.89608 -0.318212 0.331989 -0.887989 -0.152558 0.348277 -0.924894 
-0.148706 0.318142 -0.936308 0.830444 0.436924 -0.34563 0.773679 0.439745 -0.456119 
-0.541979 0.201018 -0.815997 -0.313743 0.121041 -0.941761 -0.109389 0.138036 -0.984368 
-0.240269 0.257784 -0.935852 -0.13163 0.208132 -0.969203 -0.247657 0.236169 -0.939622 
0.913894 0.208314 -0.348429 0.722861 0.207478 -0.65911 -0.390113 0.0737847 -0.917806 
-0.0854843 0.00756668 -0.996311 -0.0518313 0.0808397 -0.995379 -0.270628 0.154479 -0.950209 
-0.184853 0.13228 -0.973823 0.941515 0.0102407 -0.336815 -0.364591 -0.156791 -0.917873 
-0.340465 0.134529 -0.930584 -0.093283 0.117477 -0.988685 -0.00336093 0.0903355 -0.995906 
-0.350466 0.091298 -0.932115 -0.158781 0.0874362 -0.983435 -0.365335 0.0318892 -0.93033 
0.929296 -0.158516 -0.333589 -0.21047 -0.198595 -0.957216 -0.154643 -0.0444561 -0.98697 
-0.142558 0.0666286 -0.987541 -0.0776157 0.0034169 -0.996978 -0.180929 -0.0256543 -0.983161 
-0.383498 -0.0734924 -0.920613 -0.382025 -0.0966368 -0.919086 -0.3709 -0.0716718 -0.925903 
0.875842 -0.331591 -0.350639 0.795633 -0.491856 -0.353618 0.787243 -0.337721 -0.515939 
-0.324956 -0.375416 -0.868024 -0.12308 -0.216286 -0.968541 -0.0598655 -0.212725 -0.975276 
-0.0698791 -0.152372 -0.98585 -0.0979131 -0.180628 -0.978666 -0.354943 -0.263342 -0.897032 
-0.25857 -0.346016 -0.901895 -0.228001 -0.235491 -0.944754 0.710436 -0.596326 -0.373733 
0.497262 -0.745662 -0.44353 0.408961 -0.620829 -0.668822 -0.290774 -0.458528 -0.839763 
-0.162773 -0.309858 -0.936746 -0.0547331 -0.213552 -0.975397 -0.105282 -0.40237 -0.909403 
-0.092284 -0.22841 -0.969181 -0.158459 -0.344452 -0.925334 -0.113335 -0.264249 -0.957772 
-0.181091 -0.372194 -0.910317 -0.174972 -0.371462 -0.911812 -0.168523 -0.362131 -0.916766 
0.319984 -0.794898 -0.515507 0.239155 -0.801983 -0.547383 0.211408 -0.783691 -0.584068 
0.0446683 -0.721355 -0.691123 -0.0262227 -0.665951 -0.745535 -0.0674494 -0.585734 -0.807692 
-0.105552 -0.545489 -0.831445 -0.0415616 -0.457235 -0.888374 -0.0487518 -0.427011 -0.902932 
-0.0970334 -0.40993 -0.906941 -0.0347456 -0.451066 -0.891814 -0.0354787 -0.416398 -0.90849 
0.266796 0.605793 -0.749556 0.124016 0.60162 -0.789097 -0.053742 0.567868 -0.821363 
-0.281772 0.468058 -0.837571 0.327399 0.590353 -0.737763 0.4733 0.513522 -0.715739 
0.24889 0.565321 -0.786426 0.0880786 0.486355 -0.869311 -0.0766858 0.442033 -0.893715 
-0.33667 0.403763 -0.850664 -0.295954 0.423211 -0.856331 0.569057 0.413954 -0.710504 
0.434222 0.391024 -0.811512 0.181793 0.306502 -0.934349 0.0371428 0.234785 -0.971337 
-0.0904563 0.198247 -0.975969 -0.539564 0.201589 -0.817455 -0.308994 0.195839 -0.930682 
-0.542443 0.185088 -0.819449 0.714698 0.207145 -0.668055 0.719175 0.18863 -0.668735 
0.352502 0.188953 -0.916536 0.103119 0.119323 -0.987486 -0.032505 0.0695254 -0.99705 
-0.122993 0.00723231 -0.992381 -0.304938 -0.062511 -0.950318 -0.519166 -0.00557779 -0.854655 
-0.427549 -0.112474 -0.896968 -0.521916 -0.0300159 -0.852469 0.730563 0.0201823 -0.682547 
0.694886 0.0183451 -0.718886 0.32142 0.0313905 -0.946416 0.0540267 -0.00460995 -0.998529 
-0.0712294 -0.0154676 -0.99734 -0.219232 -0.0869333 -0.971792 -0.366826 -0.166561 -0.915257 
-0.368409 -0.180286 -0.912015 0.722865 -0.159861 -0.672242 0.718716 -0.176156 -0.672619 
0.714599 -0.159159 -0.681188 0.344881 -0.131963 -0.929324 0.0498863 -0.0927359 -0.99444 
-0.115339 -0.133005 -0.984381 -0.279866 -0.203561 -0.93821 -0.326701 -0.248097 -0.911984 
-0.379067 -0.32619 -0.865973 -0.400184 -0.268488 -0.876223 0.62524 -0.339857 -0.702547 
0.39379 -0.568194 -0.722554 0.367365 -0.324725 -0.871549 0.0510805 -0.293397 -0.954625 
-0.178696 -0.350729 -0.91927 -0.359999 -0.395175 -0.845126 -0.336844 -0.433348 -0.83591 
-0.355069 -0.389959 -0.849622 0.266846 -0.60027 -0.753969 0.0630604 -0.601083 -0.796695 
0.045459 -0.556494 -0.829607 -0.182718 -0.521268 -0.833603 -0.175346 -0.525551 -0.832496 
-0.176776 -0.523356 -0.833576 
