# vtk DataFile Version 4.2
vtk output
ASCII
DATASET POLYDATA
POINTS 542 float
-28.0959 -34.485 -15.1529 -20.2777 -34.485 -15.6227 -12.4595 -34.485 -15.0443 
-4.64128 -34.485 -14.6814 3.17691 -34.485 -14.0824 10.9951 -34.485 -13.4642 
18.8133 -34.485 -13.5157 26.6315 -34.485 -12.9373 -43.7322 -26.6668 -12.4071 
-35.914 -26.6668 -17.0317 -28.0959 -26.6668 -18.1728 -20.2777 -26.6668 -18.9083 
-12.4595 -26.6668 -17.3855 -4.64128 -26.6668 -16.5307 3.17691 -26.6668 -16.084 
10.9951 -26.6668 -16.4258 18.8133 -26.6668 -17.108 26.6315 -26.6668 -17.1713 
34.4497 -26.6668 -17.3034 42.2679 -26.6668 -15.6324 -43.7322 -18.8486 -16.193 
-35.914 -18.8486 -18.4438 -28.0959 -18.8486 -19.2591 -20.2777 -18.8486 -18.957 
-12.4595 -18.8486 -18.0054 -4.64128 -18.8486 -16.5062 3.17691 -18.8486 -16.1649 
10.9951 -18.8486 -16.5012 18.8133 -18.8486 -17.5434 26.6315 -18.8486 -18.1332 
34.4497 -18.8486 -18.4494 42.2679 -18.8486 -18.3091 50.0861 -18.8486 -15.9119 
57.9042 -18.8486 -12.4587 -51.5504 -11.0304 -13.0556 -43.7322 -11.0304 -17.2129 
-35.914 -11.0304 -19.0764 -28.0959 -11.0304 -19.5076 -20.2777 -11.0304 -19.276 
-12.4595 -11.0304 -18.4446 -4.64128 -11.0304 -16.5194 3.17691 -11.0304 -16.1413 
10.9951 -11.0304 -15.4827 18.8133 -11.0304 -16.37 26.6315 -11.0304 -18.0313 
34.4497 -11.0304 -19.6771 42.2679 -11.0304 -19.0861 50.0861 -11.0304 -17.9199 
57.9042 -11.0304 -14.5636 -51.5504 -3.2122 -14.4232 -43.7322 -3.2122 -17.7174 
-35.914 -3.2122 -18.9927 -28.0959 -3.2122 -18.971 -20.2777 -3.2122 -18.274 
-12.4595 -3.2122 -19.7974 -4.64128 -3.2122 -16.9566 3.17691 -3.2122 -16.1467 
10.9951 -3.2122 -16.6139 18.8133 -3.2122 -15.5375 26.6315 -3.2122 -18.1254 
34.4497 -3.2122 -19.2291 42.2679 -3.2122 -19.7419 50.0861 -3.2122 -19.0707 
57.9042 -3.2122 -16.7785 -51.5504 4.60599 -15.0383 -43.7322 4.60599 -17.6944 
-35.914 4.60599 -18.5124 -28.0959 4.60599 -18.1858 -20.2777 4.60599 -16.9379 
-12.4595 4.60599 -17.3267 -4.64128 4.60599 -16.3779 3.17691 4.60599 -14.8702 
10.9951 4.60599 -16.6767 18.8133 4.60599 -16.1545 26.6315 4.60599 -18.2962 
34.4497 4.60599 -19.3804 42.2679 4.60599 -19.8248 50.0861 4.60599 -19.2663 
57.9042 4.60599 -17.7461 -51.5504 12.4242 -15.3707 -43.7322 12.4242 -17.5122 
-35.914 12.4242 -18.1874 -28.0959 12.4242 -17.9909 -20.2777 12.4242 -16.7237 
-12.4595 12.4242 -16.1985 -4.64128 12.4242 -16.5737 3.17691 12.4242 -12.4436 
10.9951 12.4242 -14.2349 18.8133 12.4242 -16.4493 26.6315 12.4242 -18.1355 
34.4497 12.4242 -19.3438 42.2679 12.4242 -19.4019 50.0861 12.4242 -18.1162 
57.9042 12.4242 -15.5964 -51.5504 20.2424 -13.7498 -43.7322 20.2424 -17.0859 
-35.914 20.2424 -18.0585 -28.0959 20.2424 -18.5968 -20.2777 20.2424 -17.2079 
-12.4595 20.2424 -16.4908 -4.64128 20.2424 -14.9985 3.17691 20.2424 -12.7156 
10.9951 20.2424 -14.4009 18.8133 20.2424 -16.4685 26.6315 20.2424 -18.3767 
34.4497 20.2424 -18.6274 42.2679 20.2424 -18.3584 50.0861 20.2424 -16.7456 
57.9042 20.2424 -14.8662 -51.5504 28.0606 -13.2507 -43.7322 28.0606 -15.1546 
-35.914 28.0606 -16.5803 -28.0959 28.0606 -16.5341 -20.2777 28.0606 -15.6732 
-12.4595 28.0606 -14.05 10.9951 28.0606 -12.8054 18.8133 28.0606 -15.528 
26.6315 28.0606 -16.8433 34.4497 28.0606 -17.0611 42.2679 28.0606 -16.5056 
50.0861 28.0606 -14.3674 26.6315 35.8788 -12.8382 34.4497 35.8788 -13.5059 
-28.0959 -37.4251 -12.3907 -20.2777 -37.8136 -12.3907 -12.4595 -37.7608 -12.3907 
-4.64128 -37.6314 -12.3907 3.17691 -36.8557 -12.3907 10.9951 -35.8163 -12.3907 
18.8133 -35.5795 -12.3907 26.6315 -34.9958 -12.3907 -43.7322 -26.6941 -12.3907 
-35.2247 -34.485 -12.3907 -35.914 -34.0437 -12.3907 -35.914 -34.485 -11.8498 
30.6732 -34.485 -12.3907 34.4497 -33.8422 -12.3907 34.4497 -34.485 -11.3904 
42.2679 -30.8876 -12.3907 42.2679 -34.485 -6.24217 -43.7536 -26.6668 -12.3907 
48.5521 -26.6668 -12.3907 50.0861 -25.247 -12.3907 50.0861 -26.6668 -10.9511 
57.9042 -18.94 -12.3907 -48.8501 -18.8486 -12.3907 -51.5504 -12.6598 -12.3907 
-51.5504 -18.8486 -9.05878 57.9743 -18.8486 -12.3907 -52.2762 -11.0304 -12.3907 
-59.3686 -11.0304 -4.81115 60.4469 -11.0304 -12.3907 -54.3526 -3.2122 -12.3907 
-59.3686 -3.2122 -8.13906 63.6247 -3.2122 -12.3907 65.7224 -3.2122 -9.60582 
-55.7283 4.60599 -12.3907 -59.3686 4.60599 -9.36281 64.9175 4.60599 -12.3907 
65.7224 4.60599 -11.4667 -57.5138 12.4242 -12.3907 -59.3686 12.4242 -11.0555 
62.4235 12.4242 -12.3907 65.7224 12.4242 -8.84616 -53.7629 20.2424 -12.3907 
-59.3686 20.2424 -8.30087 -4.64128 26.6322 -12.3907 3.17691 21.4095 -12.3907 
61.0495 20.2424 -12.3907 57.9042 24.4612 -12.3907 65.7224 20.2424 -4.99249 
-52.9065 28.0606 -12.3907 -59.3686 28.0606 -5.02388 -51.5504 29.4369 -12.3907 
-43.7322 34.537 -12.3907 -35.914 35.8657 -12.3907 -28.0959 34.8727 -12.3907 
-20.2777 32.6709 -12.3907 -6.85087 28.0606 -12.3907 -12.4595 30.2324 -12.3907 
-4.64128 28.0606 -11.2857 9.6736 28.0606 -12.3907 3.17691 28.0606 -9.40905 
10.9951 28.6808 -12.3907 18.8133 33.921 -12.3907 42.2679 34.6061 -12.3907 
53.5003 28.0606 -12.3907 50.0861 31.1699 -12.3907 57.9042 28.0606 -8.12991 
-43.7322 35.8788 -10.9712 -35.914 35.8788 -12.3773 -28.0959 35.8788 -10.9561 
-20.2777 35.8788 -6.84651 24.6223 35.8788 -12.3907 18.8133 35.8788 -8.95137 
26.6315 36.3554 -12.3907 38.1769 35.8788 -12.3907 34.4497 36.8967 -12.3907 
42.2679 35.8788 -11.1382 50.0861 35.8788 -6.19189 -35.914 -37.7731 -4.5725 
-28.0959 -40.5088 -4.5725 -20.2777 -41.045 -4.5725 -12.4595 -41.6781 -4.5725 
-4.64128 -42.1835 -4.5725 3.17691 -42.1064 -4.5725 10.9951 -40.5738 -4.5725 
18.8133 -39.3009 -4.5725 26.6315 -38.2916 -4.5725 34.4497 -37.2096 -4.5725 
42.2679 -35.1607 -4.5725 -41.3139 -34.485 -4.5725 -43.7322 -32.5415 -4.5725 
43.5444 -34.485 -4.5725 42.2679 -34.485 0.838955 50.0861 -30.3957 -4.5725 
-49.2731 -26.6668 -4.5725 -51.5504 -23.5016 -4.5725 54.2316 -26.6668 -4.5725 
57.9042 -22.5081 -4.5725 -54.6638 -18.8486 -4.5725 -59.3686 -11.3298 -4.5725 
60.8308 -18.8486 -4.5725 -59.5379 -11.0304 -4.5725 65.0412 -11.0304 -4.5725 
65.7224 -9.36511 -4.5725 -62.0648 -3.2122 -4.5725 67.9936 -3.2122 -4.5725 
-63.1367 4.60599 -4.5725 69.1589 4.60599 -4.5725 -63.5475 12.4242 -4.5725 
68.0438 12.4242 -4.5725 -62.27 20.2424 -4.5725 65.9444 20.2424 -4.5725 
65.7224 20.6109 -4.5725 -59.6409 28.0606 -4.5725 -59.3686 28.4136 -4.5725 
-51.5504 35.5237 -4.5725 -12.4595 34.0133 -4.5725 -4.64128 31.6115 -4.5725 
3.17691 31.2357 -4.5725 10.9951 34.4816 -4.5725 60.208 28.0606 -4.5725 
57.9042 30.8964 -4.5725 -50.9675 35.8788 -4.5725 -51.5504 35.8788 2.8816 
-43.7322 38.5311 -4.5725 -35.914 39.5287 -4.5725 -28.0959 38.6721 -4.5725 
-17.7102 35.8788 -4.5725 -20.2777 36.8022 -4.5725 -20.2777 35.8788 -0.703176 
14.8014 35.8788 -4.5725 18.8133 37.4633 -4.5725 26.6315 40.0022 -4.5725 
34.4497 41.0289 -4.5725 42.2679 40.1087 -4.5725 51.4382 35.8788 -4.5725 
50.0861 36.6359 -4.5725 50.0861 35.8788 2.07641 -35.914 -36.8267 3.24569 
-28.0959 -39.1031 3.24569 -20.2777 -39.7343 3.24569 -12.4595 -40.4092 3.24569 
-4.64128 -41.7403 3.24569 3.17691 -41.9325 3.24569 10.9951 -40.1888 3.24569 
18.8133 -38.6669 3.24569 26.6315 -37.3704 3.24569 34.4497 -36.2428 3.24569 
-40.054 -34.485 3.24569 -43.7322 -32.0203 3.24569 -35.914 -34.485 7.36293 
-28.0959 -34.485 10.7869 18.8133 -34.485 10.6691 26.6315 -34.485 9.51421 
41.0434 -34.485 3.24569 34.4497 -34.485 6.86517 42.2679 -34.0824 3.24569 
50.0861 -29.0913 3.24569 -49.6504 -26.6668 3.24569 -51.5504 -24.8229 3.24569 
52.8562 -26.6668 3.24569 50.0861 -26.6668 6.91555 57.9042 -21.066 3.24569 
-56.8323 -18.8486 3.24569 -59.3686 -15.6209 3.24569 59.6831 -18.8486 3.24569 
57.9042 -18.8486 6.20251 -62.5727 -11.0304 3.24569 64.1145 -11.0304 3.24569 
65.7224 -7.45361 3.24569 -65.3594 -3.2122 3.24569 67.4212 -3.2122 3.24569 
65.7224 -3.2122 6.21392 -67.0982 4.60599 3.24569 68.5705 4.60599 3.24569 
65.7224 4.60599 8.13518 -66.9082 12.4242 3.24569 67.8597 12.4242 3.24569 
65.7224 12.4242 6.99393 -64.732 20.2424 3.24569 65.9238 20.2424 3.24569 
65.7224 20.5711 3.24569 65.7224 20.2424 3.60475 -60.9371 28.0606 3.24569 
-59.3686 29.7619 3.24569 -59.3686 28.0606 6.90291 -20.2777 34.7935 3.24569 
-20.2777 28.0606 10.829 -12.4595 31.9306 3.24569 -12.4595 28.0606 7.82124 
-4.64128 29.455 3.24569 -4.64128 28.0606 5.11302 3.17691 29.2638 3.24569 
3.17691 28.0606 4.87957 10.9951 32.0979 3.24569 10.9951 28.0606 7.9454 
18.8133 28.0606 10.9805 50.0861 35.7417 3.24569 59.9149 28.0606 3.24569 
57.9042 30.2723 3.24569 57.9042 28.0606 6.02382 -51.5669 35.8788 3.24569 
-51.5504 35.8897 3.24569 -51.5504 35.8788 3.26941 -43.7322 38.0002 3.24569 
-43.7322 35.8788 7.4036 -35.914 38.6331 3.24569 -35.914 35.8788 7.44271 
-23.0619 35.8788 3.24569 -28.0959 37.5309 3.24569 -28.0959 35.8788 6.2693 
18.7537 35.8788 3.24569 18.8133 35.9054 3.24569 18.8133 35.8788 3.2838 
26.6315 38.3154 3.24569 26.6315 35.8788 7.0214 34.4497 39.1369 3.24569 
34.4497 35.8788 8.4074 49.7683 35.8788 3.24569 42.2679 38.7682 3.24569 
42.2679 35.8788 8.48887 -20.2777 -35.4188 11.0639 -12.4595 -36.4009 11.0639 
-4.64128 -37.7312 11.0639 3.17691 -37.8682 11.0639 10.9951 -35.9831 11.0639 
-43.7322 -27.595 11.0639 -35.914 -31.6501 11.0639 -26.7934 -34.485 11.0639 
-28.0959 -34.254 11.0639 -20.2777 -34.485 12.0964 -12.4595 -34.485 12.9701 
-4.64128 -34.485 14.0105 3.17691 -34.485 13.7608 17.3993 -34.485 11.0639 
10.9951 -34.485 12.2905 18.8133 -34.1081 11.0639 26.6315 -33.267 11.0639 
34.4497 -31.4109 11.0639 42.2679 -27.8678 11.0639 -44.9949 -26.6668 11.0639 
-51.5504 -22.2138 11.0639 -43.7322 -26.6668 12.0198 -35.914 -26.6668 15.3647 
-28.0959 -26.6668 16.557 -20.2777 -26.6668 17.3081 -12.4595 -26.6668 17.3495 
-4.64128 -26.6668 17.1287 3.17691 -26.6668 16.1319 10.9951 -26.6668 15.6635 
18.8133 -26.6668 15.2017 26.6315 -26.6668 15.3508 34.4497 -26.6668 14.2829 
44.2196 -26.6668 11.0639 42.2679 -26.6668 12.0625 50.0861 -21.3853 11.0639 
-55.1989 -18.8486 11.0639 -59.3686 -14.8823 11.0639 -51.5504 -18.8486 15.0106 
-43.7322 -18.8486 18.2916 -12.4595 -18.8486 18.8627 -4.64128 -18.8486 17.8113 
3.17691 -18.8486 15.9884 10.9951 -18.8486 15.3207 18.8133 -18.8486 16.1206 
[...]
POINT_DATA 542
SCALARS ImageScalars float
LOOKUP_TABLE default
0 0 0 0 0 0 0 0 0 
0 0 0 0 0 0 0 0 0 
0 0 0 0 0 0 0 0 0 
0 0 0 0 0 0 0 0 0 
0 0 0 0 0 0 0 0 0 
0 0 0 0 0 0 0 0 0 
0 0 0 0 0 0 0 0 0 
0 0 0 0 0 0 0 0 0 
0 0 0 0 0 0 0 0 0 
0 0 0 0 0 0 0 0 0 
0 0 0 0 0 0 0 0 0 
0 0 0 0 0 0 0 0 0 
0 0 0 0 0 0 0 0 0 
0 0 0 0 0 0 0 0 0 
0 0 0 0 0 0 0 0 0 
0 0 0 0 0 0 0 0 0 
0 0 0 0 0 0 0 0 0 
0 0 0 0 0 0 0 0 0 
0 0 0 0 0 0 0 0 0 
0 0 0 0 0 0 0 0 0 
0 0 0 0 0 0 0 0 0 
0 0 0 0 0 0 0 0 0 
0 0 0 0 0 0 0 0 0 
0 0 0 0 0 0 0 0 0 
0 0 0 0 0 0 0 0 0 
0 0 0 0 0 0 0 0 0 
0 0 0 0 0 0 0 0 0 
0 0 0 0 0 0 0 0 0 
0 0 0 0 0 0 0 0 0 
0 0 0 0 0 0 0 0 0 
0 0 0 0 0 0 0 0 0 
0 0 0 0 0 0 0 0 0 
0 0 0 0 0 0 0 0 0 
0 0 0 0 0 0 0 0 0 
0 0 0 0 0 0 0 0 0 
0 0 0 0 0 0 0 0 0 
0 0 0 0 0 0 0 0 0 
0 0 0 0 0 0 0 0 0 
0 0 0 0 0 0 0 0 0 
0 0 0 0 0 0 0 0 0 
0 0 0 0 0 0 0 0 0 
0 0 0 0 0 0 0 0 0 
0 0 0 0 0 0 0 0 0 
0 0 0 0 0 0 0 0 0 
0 0 0 0 0 0 0 0 0 
0 0 0 0 0 0 0 0 0 
0 0 0 0 0 0 0 0 0 
0 0 0 0 0 0 0 0 0 
0 0 0 0 0 0 0 0 0 
0 0 0 0 0 0 0 0 0 
0 0 0 0 0 0 0 0 0 
0 0 0 0 0 0 0 0 0 
0 0 0 0 0 0 0 0 0 
0 0 0 0 0 0 0 0 0 
0 0 0 0 0 0 0 0 0 
0 0 0 0 0 0 0 0 0 
0 0 0 0 0 0 0 0 0 
0 0 0 0 0 0 0 0 0 
0 0 0 0 0 0 0 0 0 
0 0 0 0 0 0 0 0 0 
0 0 
NORMALS Normals float
0.192967 0.585505 0.787368 -0.00814479 0.588151 0.80871 -0.0541027 0.512197 0.857163 
-0.0601679 0.452422 0.889772 -0.0746895 0.459347 0.885111 -0.0364814 0.576609 0.816205 
-0.0270694 0.6577 0.752794 -0.0882371 0.727487 0.680425 0.561313 0.474917 0.677777 
0.309002 0.348585 0.884876 0.105513 0.238492 0.965396 -0.0501191 0.16088 0.985701 
-0.143453 0.171969 0.974601 -0.0824766 0.11135 0.990353 -0.00476052 0.125845 0.992038 
0.060901 0.170874 0.983409 0.0521785 0.214598 0.975308 0.0114684 0.272334 0.962134 
-0.0968212 0.364564 0.926131 -0.297121 0.460538 0.836435 0.446915 0.246919 0.859824 
0.183077 0.111689 0.976734 0.0348955 0.0809757 0.996105 -0.080806 0.0240601 0.996439 
-0.152936 0.066633 0.985987 -0.117203 -0.000742961 0.993108 0.00069105 0.00369023 0.999993 
0.0875743 -0.0596513 0.99437 0.103756 -0.0483815 0.993425 0.0616178 0.0551198 0.996577 
0.0118017 0.139373 0.99017 -0.15782 0.215665 0.963629 -0.352024 0.339623 0.872202 
-0.650058 0.443051 0.617358 0.601425 0.229612 0.765223 0.330752 0.0956309 0.93886 
0.13626 0.0378488 0.98995 0.0117719 -0.0184565 0.99976 -0.066911 -0.0429503 0.996834 
-0.174964 0.106909 0.978753 -0.152236 0.0198456 0.988145 -0.0678454 -0.00133089 0.997695 
0.0160341 -0.0239684 0.999584 0.159948 -0.12083 0.979702 0.206325 -0.000520318 0.978483 
0.0674965 0.0522893 0.996348 -0.10712 0.0866248 0.990465 -0.240163 0.191219 0.951713 
-0.573268 0.254515 0.778836 0.502953 0.1004 0.858463 0.245635 0.027214 0.96898 
0.074153 -0.0362164 0.996589 -0.0452592 -0.0841607 0.995424 0.0423523 -0.150798 0.987657 
-0.0225314 -0.0538984 0.998292 -0.265872 -0.00272294 0.964005 -0.0252064 -0.0875168 0.995844 
-0.0543878 0.0995419 0.993546 0.130387 -0.0169152 0.991319 0.217706 0.0167756 0.97587 
0.107402 -0.0194838 0.994025 -0.0085065 0.0470181 0.998858 -0.160361 0.0839814 0.983479 
-0.462609 0.15746 0.872468 0.436316 0.0493521 0.898439 0.199406 -0.0129151 0.979832 
0.0279097 -0.0511513 0.998301 -0.099578 -0.0622321 0.993082 -0.0600577 -0.100658 0.993107 
-0.0244553 -0.235058 0.971674 -0.150463 -0.0155524 0.988493 0.0107194 -0.257068 0.966334 
0.0577866 -0.166451 0.984355 0.115702 0.0555218 0.991731 0.196031 0.000636054 0.980597 
0.0994091 0.00745062 0.995019 -0.00599519 -0.0217051 0.999746 -0.111607 -0.0597043 0.991957 
-0.422617 -0.0622021 0.904172 0.378149 -0.072185 0.922926 0.164478 -0.0384031 0.985633 
0.0279416 -0.0296474 0.99917 -0.0931458 0.0247921 0.995344 -0.117175 0.0174925 0.992957 
-0.0113364 -0.0426728 0.999025 -0.21724 -0.0922014 0.971754 -0.152346 -0.0945472 0.983795 
0.246887 -0.105494 0.963285 0.236408 0.0189422 0.971469 0.181065 0.00476137 0.98346 
0.0805015 -0.0469692 0.995647 -0.0735371 -0.089424 0.993275 -0.2116 -0.15974 0.964214 
-0.478815 -0.163815 0.862497 0.477469 -0.123109 0.869981 0.246111 -0.148926 0.957732 
0.0880771 -0.0887376 0.992153 -0.0524362 -0.0964803 0.993953 -0.133064 -0.0587411 0.989365 
-0.132989 -0.110608 0.984926 -0.245198 -0.266583 0.932101 -0.0348789 -0.122016 0.991915 
0.241783 -0.0843552 0.966657 0.244934 -0.0601907 0.96767 0.135595 -0.0893039 0.986731 
-0.000671815 -0.136092 0.990696 -0.123336 -0.191145 0.973782 -0.224743 -0.215909 0.950197 
-0.504946 -0.323641 0.800179 0.449193 -0.362753 0.816478 0.203751 -0.307296 0.929546 
0.0926781 -0.307191 0.947124 -0.0523027 -0.371223 0.92707 -0.1536 -0.398956 0.904014 
-0.243887 -0.52822 0.813328 0.334385 -0.412169 0.847527 0.251262 -0.301601 0.91973 
0.096198 -0.299578 0.94921 -0.0219321 -0.258389 0.965792 -0.149761 -0.355541 0.922585 
-0.392332 -0.425992 0.815234 0.12826 -0.695735 0.706754 -0.0770022 -0.656655 0.75025 
0.182156 0.760002 0.623873 0.0192638 0.770441 0.63722 -0.00899739 0.704909 0.709241 
-0.0427411 0.639539 0.76757 -0.0875971 0.587287 0.804625 -0.0602125 0.644838 0.761944 
-0.0450494 0.723598 0.68875 -0.0891717 0.755028 0.649601 0.56169 0.475839 0.676817 
0.393795 0.651825 0.648112 0.410288 0.638889 0.650756 0.419945 0.672086 0.609875 
-0.149089 0.753028 0.640876 -0.197107 0.740606 0.64238 -0.207334 0.802848 0.55897 
-0.351189 0.676409 0.647407 -0.382724 0.897393 0.219562 0.561895 0.475278 0.677041 
-0.495208 0.578112 0.648502 -0.505712 0.55914 0.656976 -0.56234 0.625138 0.541272 
-0.651231 0.446237 0.613817 0.639622 0.312633 0.702242 0.630455 0.254866 0.733192 
0.740748 0.397902 0.541264 -0.653054 0.443468 0.613887 0.620054 0.237943 0.747607 
0.785798 0.37911 0.488669 -0.666975 0.282156 0.689589 0.5772 0.139712 0.804562 
0.743315 0.184445 0.643011 -0.698842 0.184586 0.691049 -0.843517 0.220641 0.489691 
0.564903 0.0996779 0.819115 0.70531 0.114812 0.69954 -0.716815 -0.0412764 0.696041 
-0.773022 -0.0351911 0.633403 0.60607 -0.0644786 0.792794 0.688023 -0.0559348 0.72353 
-0.62959 -0.170072 0.758085 -0.832722 -0.221259 0.507562 0.527408 -0.137445 0.838421 
0.728797 -0.22418 0.646991 -0.241073 -0.564231 0.789637 -0.0210504 -0.178882 0.983645 
-0.643265 -0.33098 0.690408 -0.564734 -0.435939 0.700737 -0.85717 -0.430297 0.283027 
0.527554 -0.379877 0.759856 0.760054 -0.529249 0.377112 0.490818 -0.419907 0.763398 
0.26115 -0.63487 0.727146 -0.00346099 -0.72153 0.692374 -0.132657 -0.699315 0.702397 
-0.204474 -0.693706 0.690624 -0.240396 -0.610777 0.754428 -0.267196 -0.652633 0.708997 
-0.235055 -0.69642 0.678048 0.294982 -0.438513 0.848936 0.12247 -0.732658 0.669487 
0.344196 -0.445152 0.826661 0.320996 -0.637424 0.700466 -0.212078 -0.634167 0.743542 
-0.488008 -0.487914 0.723732 -0.392491 -0.560846 0.728974 -0.681763 -0.574861 0.452475 
0.27612 -0.755491 0.59413 -0.00361907 -0.722793 0.691055 -0.155423 -0.802673 0.575813 
-0.275573 -0.935915 0.21937 0.174244 -0.714954 0.677111 0.354698 -0.849814 0.389878 
0.125743 -0.719299 0.683226 -0.154139 -0.679513 0.717289 -0.0781176 -0.707214 0.702671 
-0.238174 -0.722399 0.649163 -0.467646 -0.844075 0.262384 0.431115 0.896277 0.104053 
0.20102 0.976406 0.0788874 0.0722943 0.994633 0.0740198 0.0729279 0.991778 0.10516 
0.0264619 0.984558 0.173044 -0.0983324 0.971155 0.217229 -0.18403 0.961421 0.204458 
-0.140855 0.97884 0.148436 -0.132793 0.984837 0.11163 -0.205242 0.972769 0.107688 
-0.378719 0.91623 0.130745 0.59034 0.797613 0.123746 0.660992 0.735339 0.149555 
-0.412036 0.90199 0.129001 -0.396345 0.901789 -0.172302 -0.603219 0.7873 0.127612 
0.749075 0.62131 0.229914 0.777654 0.558693 0.288298 -0.700271 0.701693 0.131331 
-0.769667 0.631807 0.0918335 0.789284 0.490074 0.369944 0.788824 0.386941 0.477529 
-0.819824 0.563899 0.0995351 0.78892 0.381592 0.481657 -0.898351 0.416253 0.140354 
-0.913953 0.380033 0.142357 0.832221 0.198984 0.517508 -0.954757 0.241952 0.172913 
0.821022 0.0844464 0.564617 -0.980959 0.00554387 0.194136 0.854807 -0.0530515 0.516227 
-0.948723 -0.207616 0.238369 0.84212 -0.235807 0.485004 -0.863895 -0.431361 0.260026 
-0.858013 -0.443028 0.259884 0.767209 -0.528928 0.362803 0.757322 -0.54317 0.362532 
0.558449 -0.77741 0.289428 -0.326159 -0.943574 0.0573431 -0.18229 -0.979424 0.0865989 
0.193591 -0.966967 0.165824 0.381682 -0.918285 0.105222 -0.764485 -0.599566 0.236818 
-0.71644 -0.665299 0.20998 0.531469 -0.800538 0.276911 0.453064 -0.872467 -0.183121 
0.229855 -0.959897 0.160513 0.00797661 -0.992868 0.118948 -0.166945 -0.980574 0.10298 
-0.303648 -0.950387 0.0675457 -0.288767 -0.953795 0.0829958 -0.311321 -0.938509 -0.149264 
0.364869 -0.92777 0.0781868 0.355988 -0.932199 0.0654067 0.207387 -0.974858 0.0814973 
0.00681649 -0.996194 0.0869021 -0.260568 -0.953823 0.149418 -0.514332 -0.843162 0.156651 
-0.481021 -0.86237 0.157913 -0.435189 -0.86253 -0.258171 0.379424 0.876105 -0.297453 
0.180273 0.923476 -0.338664 0.0775922 0.946748 -0.312487 0.122701 0.952249 -0.279581 
0.0923378 0.969594 -0.22663 -0.0957481 0.97527 -0.199199 -0.210337 0.955542 -0.206636 
-0.174456 0.950156 -0.258397 -0.146699 0.952573 -0.266618 -0.2044 0.936186 -0.285965 
0.487168 0.829214 -0.273991 0.579661 0.7829 -0.225965 0.354658 0.805323 -0.47505 
0.179543 0.741361 -0.646644 -0.115522 0.708775 -0.695911 -0.121935 0.805213 -0.580313 
-0.36194 0.879898 -0.307863 -0.217443 0.8654 -0.451444 -0.392534 0.863756 -0.31598 
-0.582825 0.744954 -0.324589 0.669056 0.729636 -0.141401 0.704115 0.704878 -0.0858428 
-0.646606 0.687991 -0.329498 -0.568012 0.642955 -0.51378 -0.732736 0.60739 -0.306879 
0.795149 0.605401 0.0350435 0.826955 0.553197 0.100591 -0.762581 0.571162 -0.303717 
-0.692588 0.560412 -0.454158 0.867172 0.468648 0.168468 -0.852881 0.423487 -0.305373 
-0.888022 0.348964 -0.299401 0.939014 0.28155 0.197439 -0.925352 0.255791 -0.279812 
-0.856302 0.263796 -0.444025 0.977738 0.0907986 0.189166 -0.96293 0.0294211 -0.268142 
-0.825855 0.0335077 -0.562886 0.973911 -0.137624 0.180433 -0.952373 -0.169511 -0.253479 
-0.860564 -0.177396 -0.477452 0.934506 -0.351777 0.0543262 -0.873123 -0.408714 -0.265723 
-0.867134 -0.419785 -0.268065 -0.866154 -0.410779 -0.284671 0.786186 -0.611595 -0.0886752 
0.725178 -0.677895 -0.120729 0.689625 -0.671464 -0.271207 -0.316146 -0.856039 -0.408961 
-0.272877 -0.519052 -0.810014 -0.308127 -0.837891 -0.450551 -0.274712 -0.645232 -0.712888 
-0.140358 -0.871884 -0.469167 -0.13059 -0.813519 -0.566686 0.143664 -0.878319 -0.455979 
0.134115 -0.832539 -0.537487 0.367288 -0.802296 -0.470554 0.294982 -0.655829 -0.694891 
0.25703 -0.538963 -0.802156 -0.420164 -0.847049 -0.325531 -0.717518 -0.639581 -0.27587 
-0.673727 -0.691456 -0.260728 -0.689112 -0.606515 -0.396566 0.446309 -0.871437 -0.203482 
0.4458 -0.87169 -0.203516 0.445777 -0.87138 -0.204888 0.169158 -0.944964 -0.280051 
0.115499 -0.870975 -0.477559 -0.030171 -0.939672 -0.340744 -0.0400769 -0.829447 -0.557145 
-0.282689 -0.885197 -0.369478 -0.215353 -0.919018 -0.330195 -0.207532 -0.853308 -0.478326 
0.348379 -0.846662 -0.402238 0.34783 -0.846959 -0.402089 0.347955 -0.84613 -0.403721 
0.187901 -0.907859 -0.374814 0.210294 -0.775685 -0.595054 0.0282195 -0.909017 -0.415803 
0.0579328 -0.778064 -0.625508 -0.410592 -0.851147 -0.327053 -0.192235 -0.927441 -0.32078 
-0.204067 -0.733855 -0.64793 0.109556 0.761939 -0.638315 0.122004 0.755231 -0.644004 
0.0776826 0.737997 -0.670317 -0.0779697 0.69865 -0.711203 -0.19423 0.65919 -0.72646 
0.44483 0.692678 -0.567735 0.301128 0.705412 -0.64165 0.167987 0.736627 -0.655104 
0.178353 0.729067 -0.660796 0.106268 0.725766 -0.679685 0.102654 0.672312 -0.733116 
0.0403939 0.569453 -0.821031 -0.0945338 0.501333 -0.860075 -0.125353 0.679432 -0.722951 
-0.180104 0.576429 -0.797052 -0.108534 0.678535 -0.726506 -0.109526 0.714264 -0.691253 
-0.216329 0.673765 -0.706571 -0.351639 0.61625 -0.704688 0.459509 0.695713 -0.552118 
0.554388 0.709692 -0.434731 0.429396 0.674012 -0.601105 0.223206 0.553704 -0.802241 
0.106074 0.440562 -0.891433 0.0460749 0.36134 -0.931295 -0.0110406 0.320004 -0.947352 
-0.0777755 0.219604 -0.972484 -0.0891158 0.128977 -0.987635 -0.0597711 0.150133 -0.986857 
-0.0195084 0.287324 -0.957635 -0.0529409 0.37142 -0.926954 -0.170483 0.453737 -0.874676 
-0.391518 0.58511 -0.710183 -0.341218 0.5738 -0.74453 -0.490642 0.459968 -0.740067 
0.643654 0.669236 -0.371258 0.738786 0.619318 -0.265783 0.487533 0.628166 -0.606399 
0.202967 0.501731 -0.840875 -0.0853336 0.0931157 -0.991992 -0.177305 0.0834115 -0.980615 
-0.161388 -0.0494822 -0.98565 0.0112151 -0.0760182 -0.997043 0.104864 0.0135683 -0.994394 
0.0387671 0.0716984 -0.996673 -0.0856564 0.179457 -0.98003 -0.230321 0.251124 -0.940154 
-0.516686 0.438405 -0.735416 -0.461824 0.410918 -0.786044 -0.580089 0.323227 -0.747677 
0.817663 0.533086 -0.217361 0.587876 0.492671 -0.64162 -0.0601637 -0.0222469 -0.997941 
-0.218962 0.0221856 -0.975481 -0.252411 0.0680551 -0.965224 0.00671219 -0.0433213 -0.999039 
0.142971 -0.121929 -0.982188 0.129943 -0.0422816 -0.99062 0.0214174 0.0615424 -0.997875 
-0.102441 0.187554 -0.976898 -0.313825 0.214677 -0.924893 -0.589347 0.298694 -0.750634 
-0.569008 0.291101 -0.769084 0.929069 0.272793 -0.249828 -0.0717534 -0.148839 -0.986255 
-0.0632901 -0.0229534 -0.997731 -0.133562 0.084 -0.987474 -0.236668 0.0870764 -0.967681 
0.113595 -0.0538135 -0.992069 0.214481 -0.00275047 -0.976724 0.136647 0.0419305 -0.989732 
-0.0720776 0.155189 -0.985252 -0.278203 0.07623 -0.957493 -0.610597 0.194013 -0.767809 
-0.473349 0.161177 -0.866004 0.963561 0.0790495 -0.25554 -0.261981 -0.202141 -0.943666 
-0.0109856 -0.349419 -0.936902 0.0071184 -0.206584 -0.978403 -0.135754 -0.141359 -0.980606 
-0.140029 -0.0688056 -0.987754 0.0831261 0.0824003 -0.993127 0.220729 0.0285126 -0.974918 
0.173334 0.0165347 -0.984724 -0.286498 0.0171782 -0.957927 -0.631387 0.0269711 -0.774999 
-0.425945 0.0125744 -0.904661 0.922954 -0.240056 -0.30088 -0.331806 -0.207389 -0.920269 
-0.123486 -0.251181 -0.960031 0.132257 -0.410797 -0.902083 -0.0125002 -0.282452 -0.9592 
0.0162887 -0.165561 -0.986065 0.151426 0.0217127 -0.98823 0.139296 -0.0348697 -0.989637 
0.110705 -0.0329158 -0.993308 -0.084098 -0.176493 -0.980703 -0.254226 -0.0586389 -0.965365 
-0.638713 -0.126455 -0.758983 -0.483762 -0.107036 -0.86863 0.76956 -0.447066 -0.455971 
0.625429 -0.624886 -0.467286 0.606927 -0.448936 -0.655818 0.189362 -0.436565 -0.879519 
-0.12568 -0.36766 -0.921429 -0.228551 -0.322979 -0.918395 -0.27111 -0.500154 -0.822402 
-0.283185 -0.298463 -0.911442 -0.201802 -0.343725 -0.917131 -0.186324 -0.271348 -0.944274 
-0.0200053 -0.413004 -0.910509 -0.0179893 -0.408747 -0.912471 0.0918922 -0.516654 -0.851249 
0.0894571 -0.496078 -0.863657 0.225792 -0.449846 -0.864093 0.196518 -0.340968 -0.919305 
0.255572 -0.532541 -0.806897 0.211735 -0.249278 -0.945002 0.159101 -0.20751 -0.965208 
0.0339552 -0.225708 -0.973603 -0.0951072 -0.260642 -0.960739 -0.252596 -0.254189 -0.933586 
-0.567055 -0.342056 -0.749297 -0.558805 -0.389596 -0.732087 -0.48821 -0.298021 -0.820265 
0.52397 -0.665737 -0.531272 0.366909 -0.669266 -0.646112 0.277193 -0.611328 -0.741243 
0.059621 -0.7367 -0.673586 0.0387966 -0.536151 -0.84323 -0.0840543 -0.673803 -0.734114 
-0.1059 -0.528797 -0.842116 -0.267398 -0.509978 -0.81757 -0.204168 -0.607163 -0.767899 
-0.221682 -0.488123 -0.844153 0.25398 -0.534698 -0.805973 0.209864 -0.538593 -0.816011 
0.177761 -0.451607 -0.87433 0.0549731 -0.635023 -0.770535 0.0399646 -0.452571 -0.890832 
-0.161448 -0.567105 -0.807667 -0.0888697 -0.461421 -0.882719 -0.439089 -0.532466 -0.723658 
-0.315109 -0.607477 -0.729163 -0.294374 -0.509003 -0.808863 0.0639189 0.363089 -0.92956 
0.00957929 0.268064 -0.963353 -0.0116954 0.163765 -0.98643 0.281557 0.497416 -0.820551 
0.108825 0.408796 -0.906114 0.177006 0.467094 -0.866309 0.0484619 0.348187 -0.936172 
-0.00543293 0.248135 -0.96871 -0.0813393 0.0953562 -0.992114 -0.0221791 0.128617 -0.991446 
0.411605 0.466533 -0.782897 0.596097 0.220074 -0.772163 0.234669 0.446088 -0.863676 
0.0752364 0.334321 -0.939451 -0.0441249 0.224946 -0.973372 -0.137591 0.140505 -0.980473 
-0.0604974 -0.0220936 -0.997924 -0.12622 0.00722304 -0.991976 0.630755 0.108111 -0.768414 
0.603727 0.103329 -0.790466 0.249611 0.153596 -0.956087 0.0236753 0.140545 -0.989791 
-0.171178 0.0647949 -0.983107 -0.232902 -0.018066 -0.972332 -0.124544 -0.115764 -0.985438 
-0.205382 -0.124182 -0.970771 -0.178267 -0.0864746 -0.980175 -0.0688968 0.0960831 -0.992986 
0.606891 0.0132802 -0.794674 0.54172 0.00358254 -0.840551 0.210427 -0.061258 -0.975688 
-0.0186884 -0.15898 -0.987105 -0.203919 -0.124746 -0.971008 -0.266018 -0.186754 -0.945705 
-0.281317 -0.142443 -0.948984 0.038194 0.0067729 -0.999247 -0.116536 -0.000314417 -0.993186 
-0.0783593 -0.109195 -0.990927 -0.062908 -0.000438335 -0.998019 0.5119 -0.245642 -0.823175 
0.490677 -0.26791 -0.829132 0.467608 -0.22979 -0.853545 0.177675 -0.423638 -0.888236 
0.131372 -0.315345 -0.93984 -0.0323916 -0.298057 -0.953998 -0.13376 -0.34508 -0.928993 
-0.153865 -0.262647 -0.952545 -0.306028 -0.225678 -0.924887 -0.30285 -0.228946 -0.92513 
-0.305076 -0.226 -0.925123 0.0642829 -0.417708 -0.906304 -0.0470211 -0.392311 -0.91863 
-0.00627785 -0.41077 -0.911717 -0.00989267 -0.402104 -0.915541 
