# vtk DataFile Version 4.2
vtk output
ASCII
DATASET POLYDATA
POINTS 600 float
-43.0143 -1.43988 -19.2144 -35.5128 -1.43988 -19.2106 47.0032 6.06159 -19.227 
-43.0143 13.563 -19.5547 39.5018 13.563 -19.2049 -43.0143 -31.4457 -12.2948 
-35.5128 -31.4457 -12.4484 -28.0114 -31.4457 -12.095 -50.5158 -23.9443 -13.4771 
-43.0143 -23.9443 -15.9427 -35.5128 -23.9443 -16.4429 -28.0114 -23.9443 -16.1172 
-20.5099 -23.9443 -14.1839 -13.0085 -23.9443 -11.8367 -58.0172 -16.4428 -14.1939 
-50.5158 -16.4428 -16.7669 -43.0143 -16.4428 -18.7935 -35.5128 -16.4428 -18.0323 
-28.0114 -16.4428 -17.2704 -20.5099 -16.4428 -15.1519 -13.0085 -16.4428 -12.9041 
9.49593 -16.4428 -12.014 16.9974 -16.4428 -13.167 24.4989 -16.4428 -13.9544 
32.0003 -16.4428 -14.3002 39.5018 -16.4428 -14.0577 47.0032 -16.4428 -13.0115 
-58.0172 -8.94134 -15.8622 -50.5158 -8.94134 -17.9983 -43.0143 -4.00675 -19.1265 
-43.0143 -8.94134 -18.9798 -35.5128 -5.48187 -19.1265 -35.5128 -8.94134 -19.0539 
-28.0114 -8.94134 -17.5704 -20.5099 -8.94134 -15.7113 -13.0085 -8.94134 -13.1722 
-5.507 -8.94134 -12.0574 1.99446 -8.94134 -13.0062 9.49593 -8.94134 -13.3693 
16.9974 -8.94134 -14.527 24.4989 -8.94134 -15.756 32.0003 -8.94134 -16.6108 
39.5018 -8.94134 -17.0709 47.0032 -8.94134 -16.1595 54.5047 -8.94134 -14.51 
-58.0172 -1.43988 -16.895 -44.2305 -1.43988 -19.1265 -50.5158 -1.43988 -18.6388 
-43.0143 -0.0299572 -19.1265 -35.1159 -1.43988 -19.1265 -35.5128 -0.0244355 -19.1265 
-28.0114 -1.43988 -17.604 -20.5099 -1.43988 -15.5597 -13.0085 -1.43988 -14.7775 
-5.507 -1.43988 -16.3076 1.99446 -1.43988 -12.8562 9.49593 -1.43988 -14.0363 
16.9974 -1.43988 -14.0182 24.4989 -1.43988 -16.093 32.0003 -1.43988 -17.8274 
39.5018 -1.43988 -18.0794 47.0032 5.42793 -19.1265 47.0032 -1.43988 -18.0574 
54.5047 -1.43988 -17.8534 62.0062 -1.43988 -12.947 -58.0172 6.06159 -15.6613 
-50.5158 6.06159 -17.8737 -43.0143 9.75363 -19.1265 -43.0143 6.06159 -18.7469 
-35.5128 6.06159 -18.7649 -28.0114 6.06159 -17.2573 -20.5099 6.06159 -15.3124 
-13.0085 6.06159 -14.5373 -5.507 6.06159 -15.8739 1.99446 6.06159 -15.8623 
16.9974 6.06159 -13.7099 24.4989 6.06159 -16.2826 32.0003 6.06159 -18.4488 
45.5825 6.06159 -19.1265 39.5018 12.1962 -19.1265 39.5018 6.06159 -18.7135 
47.4369 6.06159 -19.1265 47.0032 6.543 -19.1265 54.5047 6.06159 -17.6924 
62.0062 6.06159 -15.0233 -58.0172 13.563 -15.1223 -44.1407 13.563 -19.1265 
-50.5158 13.563 -17.1647 -40.4473 13.563 -19.1265 -43.0143 15.6193 -19.1265 
-35.5128 13.563 -18.373 -28.0114 13.563 -17.603 -20.5099 13.563 -16.4751 
-13.0085 13.563 -14.9451 -5.507 13.563 -13.4353 1.99446 13.563 -13.6321 
9.49593 13.563 -12.6957 16.9974 13.563 -13.9582 24.4989 13.563 -15.9686 
39.0843 13.563 -19.1265 32.0003 13.563 -17.5359 39.9622 13.563 -19.1265 
39.5018 13.7981 -19.1265 47.0032 13.563 -17.6613 54.5047 13.563 -16.635 
62.0062 13.563 -12.3342 -58.0172 21.0645 -11.6335 -50.5158 21.0645 -16.9431 
-43.0143 21.0645 -17.9503 -35.5128 21.0645 -17.752 -28.0114 21.0645 -18.1455 
-20.5099 21.0645 -16.752 -13.0085 21.0645 -15.2443 -5.507 21.0645 -13.8111 
1.99446 21.0645 -13.5832 9.49593 21.0645 -13.1627 16.9974 21.0645 -13.4156 
24.4989 21.0645 -14.6585 32.0003 21.0645 -15.6856 39.5018 21.0645 -15.8487 
47.0032 21.0645 -15.2661 54.5047 21.0645 -12.3523 -50.5158 28.566 -13.0123 
-43.0143 28.566 -15.4848 -35.5128 28.566 -16.8457 -28.0114 28.566 -16.5956 
-20.5099 28.566 -15.6316 -13.0085 28.566 -14.108 -5.507 28.566 -12.6025 
1.99446 28.566 -12.497 -35.5128 36.0674 -13.1152 -28.0114 36.0674 -12.7539 
-20.5099 36.0674 -11.8459 -43.0143 -32.0257 -11.6251 -35.5128 -32.4535 -11.6251 
-28.0114 -32.106 -11.6251 -44.4055 -31.4457 -11.6251 -50.5158 -26.6794 -11.6251 
-50.5158 -31.4457 -4.90159 -25.804 -31.4457 -11.6251 -20.5099 -29.3619 -11.6251 
-20.5099 -31.4457 -10.1673 -13.0085 -24.3822 -11.6251 -13.0085 -31.4457 -7.14322 
-54.9736 -23.9443 -11.6251 -58.0172 -21.9264 -11.6251 -58.0172 -23.9443 -8.7454 
-12.4908 -23.9443 -11.6251 -5.507 -23.9443 -8.43172 1.99446 -23.9443 -7.45559 
9.49593 -17.3532 -11.6251 9.49593 -23.9443 -8.29596 16.9974 -19.3204 -11.6251 
16.9974 -23.9443 -8.56915 24.4989 -20.3436 -11.6251 24.4989 -23.9443 -9.03673 
32.0003 -20.9509 -11.6251 32.0003 -23.9443 -9.55259 39.5018 -21.2155 -11.6251 
39.5018 -23.9443 -9.42752 47.0032 -18.85 -11.6251 47.0032 -23.9443 -7.54053 
-60.8069 -16.4428 -11.6251 -8.02686 -16.4428 -11.6251 -5.507 -11.3894 -11.6251 
-5.507 -16.4428 -10.9775 5.95407 -16.4428 -11.6251 1.99446 -14.6095 -11.6251 
1.99446 -16.4428 -11.1893 52.1302 -16.4428 -11.6251 54.5047 -15.0989 -11.6251 
54.5047 -16.4428 -10.9878 62.0062 -16.4428 -6.75689 -62.7185 -8.94134 -11.6251 
61.8829 -8.94134 -11.6251 62.0062 -8.67148 -11.6251 62.0062 -8.94134 -11.5722 
-63.9425 -1.43988 -11.6251 -65.5187 -1.43988 -6.61964 9.49593 5.03542 -11.6251 
63.9617 -1.43988 -11.6251 69.5076 -1.43988 -6.68806 -62.4119 6.06159 -11.6251 
9.04507 6.06159 -11.6251 10.232 6.06159 -11.6251 9.49593 7.3385 -11.6251 
9.49593 6.06159 -11.4053 66.5632 6.06159 -11.6251 69.5076 6.06159 -6.45209 
-61.6304 13.563 -11.6251 62.8668 13.563 -11.6251 62.0062 14.9166 -11.6251 
-58.0251 21.0645 -11.6251 -58.0172 21.0784 -11.6251 9.49593 27.9429 -11.6251 
16.9974 25.677 -11.6251 24.4989 26.7597 -11.6251 32.0003 25.8864 -11.6251 
39.5018 25.8378 -11.6251 47.0032 24.5597 -11.6251 55.8173 21.0645 -11.6251 
54.5047 21.7883 -11.6251 -52.2486 28.566 -11.6251 -50.5158 30.1225 -11.6251 
-43.0143 34.7264 -11.6251 -13.0085 33.5308 -11.6251 -5.507 30.6709 -11.6251 
8.47022 28.566 -11.6251 1.99446 29.9204 -11.6251 9.49593 28.566 -11.4212 
16.9974 28.566 -9.93166 24.4989 28.566 -9.70949 32.0003 28.566 -7.09807 
39.5018 28.566 -5.26725 -39.3506 36.0674 -11.6251 -35.5128 37.0911 -11.6251 
-28.0114 37.3092 -11.6251 -19.5751 36.0674 -11.6251 -20.5099 36.291 -11.6251 
-13.0085 36.0674 -9.3289 -5.507 36.0674 -6.81824 -50.5158 -31.7678 -4.12359 
-43.0143 -35.61 -4.12359 -35.5128 -37.9491 -4.12359 -28.0114 -38.2783 -4.12359 
-28.0114 -38.9472 2.55544 -20.5099 -36.5053 -4.12359 -13.0085 -34.1415 -4.12359 
-50.9199 -31.4457 -4.12359 -58.0172 -25.717 -4.12359 -50.5158 -31.4457 -1.62423 
-8.49178 -31.4457 -4.12359 -5.507 -29.3234 -4.12359 -5.507 -31.4457 -0.595909 
1.99446 -27.8001 -4.12359 1.99446 -31.4457 1.36149 9.49593 -28.7206 -4.12359 
9.49593 -31.4457 -0.170173 16.9974 -28.7898 -4.12359 16.9974 -31.4457 -0.369652 
24.4989 -28.7583 -4.12359 24.4989 -31.4457 0.45343 32.0003 -28.8906 -4.12359 
32.0003 -31.4457 1.18693 39.5018 -28.0388 -4.12359 39.5018 -31.4457 2.45414 
47.0032 -26.4215 -4.12359 -59.5609 -23.9443 -4.12359 -58.0172 -23.9443 1.21061 
53.8618 -23.9443 -4.12359 54.5047 -23.7028 -4.12359 54.5047 -23.9443 -3.51361 
62.0062 -18.9418 -4.12359 -63.3938 -16.4428 -4.12359 64.4099 -16.4428 -4.12359 
-65.2276 -8.94134 -4.12359 -65.5187 -6.25381 -4.12359 69.0662 -8.94134 -4.12359 
69.5076 -7.57199 -4.12359 69.5076 -8.94134 -2.20175 -66.0401 -1.43988 -4.12359 
-65.5187 1.03214 -4.12359 -65.5187 -1.43988 -2.78385 71.1415 -1.43988 -4.12359 
-64.4338 6.06159 -4.12359 70.6806 6.06159 -4.12359 69.5076 8.84516 -4.12359 
-62.4699 13.563 -4.12359 67.1042 13.563 -4.12359 62.0062 19.5499 -4.12359 
-58.6784 21.0645 -4.12359 -58.0172 22.1477 -4.12359 -58.0172 21.0645 -2.92504 
47.0032 27.0442 -4.12359 59.8723 21.0645 -4.12359 54.5047 24.1423 -4.12359 
-53.1976 28.566 -4.12359 -50.5158 31.286 -4.12359 -50.5158 28.566 -0.203408 
-43.0143 35.9577 -4.12359 1.99446 35.4756 -4.12359 9.49593 33.9608 -4.12359 
16.9974 32.3808 -4.12359 24.4989 31.3066 -4.12359 32.0003 29.8576 -4.12359 
40.8645 28.566 -4.12359 39.5018 28.9565 -4.12359 39.5018 28.566 -0.915597 
-42.727 36.0674 -4.12359 -35.5128 38.6142 -4.12359 -28.0114 40.0813 -4.12359 
-20.5099 39.8467 -4.12359 -13.0085 38.8118 -4.12359 -0.212789 36.0674 -4.12359 
-5.507 37.4699 -4.12359 -28.0114 -39.0188 3.37787 -43.0143 -35.3435 3.37787 
-28.8156 -38.9472 3.37787 -35.5128 -38.259 3.37787 -27.3386 -38.9472 3.37787 
-28.0114 -38.9472 3.58513 -20.5099 -38.2161 3.37787 -13.0085 -36.3794 3.37787 
-5.507 -33.4105 3.37787 1.99446 -32.4779 3.37787 9.49593 -33.3023 3.37787 
16.9974 -33.5384 3.37787 24.4989 -33.0083 3.37787 32.0003 -32.3704 3.37787 
39.5018 -31.8192 3.37787 -49.5759 -31.4457 3.37787 -50.5158 -30.7409 3.37787 
-43.0143 -31.4457 10.5828 1.99446 -31.4457 10.1719 40.7241 -31.4457 3.37787 
39.5018 -31.4457 5.82509 47.0032 -29.5273 3.37787 54.5047 -26.5487 3.37787 
-57.2471 -23.9443 3.37787 -58.0172 -22.7039 3.37787 58.4302 -23.9443 3.37787 
62.0062 -21.2471 3.37787 -61.3378 -16.4428 3.37787 -58.0172 -16.4428 7.45932 
66.1629 -16.4428 3.37787 69.5076 -10.9701 3.37787 -62.6407 -8.94134 3.37787 
-58.0172 -8.94134 8.74405 70.7475 -8.94134 3.37787 69.5076 -8.94134 5.81318 
-62.9695 -1.43988 3.37787 -58.0172 -1.43988 8.91546 71.142 -1.43988 3.37787 
69.5076 -1.43988 6.49617 -60.7727 6.06159 3.37787 -58.0172 6.06159 6.24741 
-50.5158 6.06159 10.8195 71.5127 6.06159 3.37787 69.5076 9.21005 3.37787 
69.5076 6.06159 6.4855 -58.2073 13.563 3.37787 -58.0172 13.924 3.37787 
-58.0172 13.563 3.57225 -50.5158 13.563 9.03984 66.1135 13.563 3.37787 
62.0062 18.0636 3.37787 62.0062 13.563 8.78089 -54.2982 21.0645 3.37787 
-50.5158 25.8635 3.37787 -50.5158 21.0645 6.68928 -43.0143 21.0645 9.96516 
39.5018 28.0002 3.37787 47.0032 25.7936 3.37787 57.5287 21.0645 3.37787 
54.5047 22.8465 3.37787 54.5047 21.0645 6.54446 -46.9309 28.566 3.37787 
-43.0143 31.4636 3.37787 -43.0143 28.566 6.06545 -35.5128 28.566 9.52145 
1.99446 34.9687 3.37787 9.49593 33.6043 3.37787 16.9974 32.5906 3.37787 
24.4989 31.2464 3.37787 24.4989 28.566 10.0425 36.7975 28.566 3.37787 
32.0003 29.4871 3.37787 32.0003 28.566 5.82453 -36.0047 36.0674 3.37787 
-35.5128 36.2983 3.37787 -35.5128 36.0674 3.67997 -28.0114 37.8104 3.37787 
-28.0114 36.0674 6.02638 -20.5099 38.6537 3.37787 -20.5099 36.0674 7.83514 
-13.0085 38.4916 3.37787 -13.0085 36.0674 8.51564 -1.9611 36.0674 3.37787 
-5.507 37.0733 3.37787 -5.507 36.0674 6.11799 -35.5128 -33.1458 10.8793 
-28.0114 -35.3337 10.8793 -20.5099 -34.766 10.8793 -13.0085 -33.6958 10.8793 
[...]
POINT_DATA 600
SCALARS ImageScalars float
LOOKUP_TABLE default
0 0 0 0 0 0 0 0 0 
0 0 0 0 0 0 0 0 0 
0 0 0 0 0 0 0 0 0 
0 0 0 0 0 0 0 0 0 
0 0 0 0 0 0 0 0 0 
0 0 0 0 0 0 0 0 0 
0 0 0 0 0 0 0 0 0 
0 0 0 0 0 0 0 0 0 
0 0 0 0 0 0 0 0 0 
0 0 0 0 0 0 0 0 0 
0 0 0 0 0 0 0 0 0 
0 0 0 0 0 0 0 0 0 
0 0 0 0 0 0 0 0 0 
0 0 0 0 0 0 0 0 0 
0 0 0 0 0 0 0 0 0 
0 0 0 0 0 0 0 0 0 
0 0 0 0 0 0 0 0 0 
0 0 0 0 0 0 0 0 0 
0 0 0 0 0 0 0 0 0 
0 0 0 0 0 0 0 0 0 
0 0 0 0 0 0 0 0 0 
0 0 0 0 0 0 0 0 0 
0 0 0 0 0 0 0 0 0 
0 0 0 0 0 0 0 0 0 
0 0 0 0 0 0 0 0 0 
0 0 0 0 0 0 0 0 0 
0 0 0 0 0 0 0 0 0 
0 0 0 0 0 0 0 0 0 
0 0 0 0 0 0 0 0 0 
0 0 0 0 0 0 0 0 0 
0 0 0 0 0 0 0 0 0 
0 0 0 0 0 0 0 0 0 
0 0 0 0 0 0 0 0 0 
0 0 0 0 0 0 0 0 0 
0 0 0 0 0 0 0 0 0 
0 0 0 0 0 0 0 0 0 
0 0 0 0 0 0 0 0 0 
0 0 0 0 0 0 0 0 0 
0 0 0 0 0 0 0 0 0 
0 0 0 0 0 0 0 0 0 
0 0 0 0 0 0 0 0 0 
0 0 0 0 0 0 0 0 0 
0 0 0 0 0 0 0 0 0 
0 0 0 0 0 0 0 0 0 
0 0 0 0 0 0 0 0 0 
0 0 0 0 0 0 0 0 0 
0 0 0 0 0 0 0 0 0 
0 0 0 0 0 0 0 0 0 
0 0 0 0 0 0 0 0 0 
0 0 0 0 0 0 0 0 0 
0 0 0 0 0 0 0 0 0 
0 0 0 0 0 0 0 0 0 
0 0 0 0 0 0 0 0 0 
0 0 0 0 0 0 0 0 0 
0 0 0 0 0 0 0 0 0 
0 0 0 0 0 0 0 0 0 
0 0 0 0 0 0 0 0 0 
0 0 0 0 0 0 0 0 0 
0 0 0 0 0 0 0 0 0 
0 0 0 0 0 0 0 0 0 
0 0 0 0 0 0 0 0 0 
0 0 0 0 0 0 0 0 0 
0 0 0 0 0 0 0 0 0 
0 0 0 0 0 0 0 0 0 
0 0 0 0 0 0 0 0 0 
0 0 0 0 0 0 0 0 0 
0 0 0 0 0 0 
NORMALS Normals float
0.0354509 -0.0140385 0.999273 -0.105538 -0.0192434 0.994229 -0.0799319 -0.0248613 0.99649 
0.103376 -0.0439543 0.993671 0.009839 -0.152878 0.988196 0.203137 0.715731 0.66818 
-0.014636 0.58937 0.80773 -0.111677 0.556667 0.823195 0.362167 0.525526 0.769843 
0.140587 0.356684 0.923587 0.0165092 0.310942 0.950285 -0.147255 0.307249 0.940167 
-0.256327 0.267383 0.928872 -0.348266 0.293834 0.890153 0.560587 0.312172 0.767001 
0.271991 0.218209 0.937233 0.0977909 0.222012 0.970128 -0.0965639 0.160748 0.98226 
-0.183637 0.088287 0.979021 -0.281259 0.0989464 0.954517 -0.265332 0.0844832 0.960449 
0.125219 0.287875 0.949446 0.121662 0.33294 0.935066 0.0716776 0.377175 0.923364 
0.00662709 0.41286 0.91077 -0.0735583 0.414389 0.907122 -0.183205 0.455752 0.871049 
0.546997 0.178325 0.817921 0.18747 0.131024 0.973493 0.0447175 -0.000200798 0.999 
0.0610931 0.0251793 0.997814 -0.0976599 0.0322855 0.994696 -0.0914229 0.0767124 0.992853 
-0.209042 0.0215709 0.977669 -0.288606 0.025829 0.9571 -0.218799 0.116866 0.968746 
-0.0138675 0.310375 0.950513 0.0734452 0.120918 0.989942 0.101853 0.114189 0.988224 
0.154317 0.0516721 0.986669 0.136884 0.132212 0.981724 0.0840043 0.213154 0.973401 
-0.0276108 0.255568 0.966397 -0.150537 0.297222 0.942867 -0.234828 0.393774 0.888706 
0.460627 -0.0091312 0.887547 0.0493612 -0.0132571 0.998693 0.132213 -0.00862637 0.991184 
0.0393072 -0.00759393 0.999198 -0.112587 -0.0192895 0.993455 -0.103981 -0.0260428 0.994238 
-0.23683 -0.0202363 0.97134 -0.179509 -0.0253859 0.983429 0.021479 0.0994694 0.994809 
-0.0791097 0.218118 0.972711 -0.17082 0.232545 0.957467 0.0670826 -0.0754585 0.99489 
0.140422 -0.0554483 0.988538 0.241828 0.0343586 0.969711 0.133869 0.120979 0.983587 
0.0140226 0.105436 0.994327 -0.0734724 -0.00582166 0.99728 -0.0128768 0.195645 0.98059 
-0.276118 0.172303 0.945553 -0.525562 0.219306 0.822003 0.578949 -0.115843 0.807093 
0.173893 -0.10616 0.979026 0.078653 -0.0117478 0.996833 0.0555815 0.01802 0.998292 
-0.097292 -0.0554557 0.99371 -0.226759 -5.55338e-05 0.973951 -0.174984 0.0615648 0.982645 
0.0274533 0.0150605 0.99951 0.0873646 -0.210857 0.973605 -0.206223 -0.0187537 0.978325 
0.255409 -0.00430372 0.966824 0.294273 -0.00797756 0.955688 0.165769 -0.0221849 0.985915 
-0.055431 -0.00528093 0.998449 0.0162983 -0.113789 0.993371 0.0485801 0.0733696 0.996121 
-0.0948579 -0.0268026 0.99513 -0.0839235 -0.0361715 0.995815 -0.291816 -0.0597478 0.954607 
-0.468273 -0.0369313 0.882812 0.613578 -0.241312 0.751858 0.1325 -0.0442158 0.990196 
0.274251 -0.0553065 0.960066 0.0220949 -0.0545782 0.998265 0.0823303 -0.118619 0.989521 
-0.121719 -0.0664619 0.990337 -0.135477 0.0625675 0.988803 -0.177085 0.0952936 0.979571 
-0.201832 0.0423171 0.978506 -0.0882238 -0.113579 0.989604 -0.0504368 -0.126403 0.990696 
0.0191184 0.083702 0.996307 0.216451 -0.018632 0.976116 0.229514 -0.108123 0.967281 
0.0204534 -0.153484 0.987939 0.202433 -0.157783 0.966502 0.00136683 -0.15583 0.987783 
0.00976143 -0.16258 0.986647 -0.149712 -0.217905 0.964419 -0.320551 -0.316019 0.892961 
-0.568958 -0.440425 0.694487 0.734556 -0.490493 0.468875 0.365176 -0.238782 0.899794 
0.0398926 -0.296041 0.954342 0.0140348 -0.0949403 0.995384 -0.0671376 -0.069974 0.995287 
-0.185475 -0.052769 0.981231 -0.196048 -0.0519199 0.979219 -0.106357 -0.0507857 0.99303 
-0.0431362 -0.0761901 0.99616 -0.0115243 -0.0748377 0.997129 0.0995965 -0.204039 0.973883 
0.137198 -0.323016 0.936396 0.0817045 -0.446649 0.890971 -0.0194553 -0.539467 0.841782 
-0.207454 -0.531989 0.820945 -0.398421 -0.675539 0.620409 0.545775 -0.605258 0.579476 
0.224856 -0.406341 0.885622 0.0896158 -0.24502 0.965367 -0.0742774 -0.31033 0.947723 
-0.161656 -0.269883 0.949226 -0.192542 -0.285646 0.938794 -0.103659 -0.298017 0.948915 
-0.0740178 -0.396255 0.915152 0.129929 -0.783977 0.607041 -0.0677116 -0.690271 0.720376 
-0.158733 -0.689565 0.706615 0.203203 0.757192 0.620781 0.0111823 0.631974 0.774909 
-0.108154 0.580639 0.806946 0.258976 0.726906 0.636034 0.439783 0.584973 0.681467 
0.576432 0.799576 0.16854 -0.149454 0.560346 0.814663 -0.252522 0.481106 0.839505 
-0.255823 0.603593 0.755135 -0.351591 0.309675 0.883451 -0.387873 0.662115 0.641217 
0.499986 0.595323 0.628972 0.597489 0.535172 0.597158 0.668322 0.644133 0.372074 
-0.343642 0.302876 0.888919 -0.257643 0.475381 0.841209 -0.0109822 0.578702 0.815465 
0.118309 0.318523 0.940503 0.0611746 0.577183 0.81432 0.0922434 0.440855 0.892826 
0.0393425 0.624748 0.779835 0.0579231 0.516844 0.854118 0.0518198 0.650907 0.757387 
0.0307918 0.52991 0.847495 0.0218079 0.632648 0.774132 -0.0691339 0.582267 0.810053 
-0.0860013 0.702718 0.706252 -0.213887 0.514011 0.830689 -0.245243 0.723849 0.644902 
0.768318 0.325376 0.551197 -0.162671 0.163323 0.973069 -0.0492528 0.266692 0.962522 
-0.111541 0.206952 0.971972 0.0960252 0.29846 0.949579 0.0735356 0.258202 0.963288 
0.0651033 0.311241 0.948098 -0.273299 0.481527 0.83273 -0.305521 0.469407 0.828441 
-0.315599 0.502914 0.804658 -0.576742 0.587332 0.567811 0.779181 0.179518 0.600541 
-0.512309 0.35001 0.78424 -0.517012 0.345664 0.78308 -0.51776 0.349731 0.780777 
0.820161 -0.0151774 0.571931 0.993498 -0.0412504 0.106112 -0.0881691 -0.0466142 0.995014 
-0.558531 0.23946 0.794167 -0.868068 0.128617 0.479496 0.806052 -0.133422 0.57661 
-0.135007 -0.0195897 0.990651 -0.0684716 -0.0250578 0.997338 -0.0933103 0.00298212 0.995633 
-0.11593 -0.0253295 0.992934 -0.713909 -0.0799906 0.695655 -0.90322 -0.198747 0.380385 
0.833493 -0.260365 0.48734 -0.600037 -0.452607 0.659623 -0.579404 -0.494207 0.648113 
0.735003 -0.490566 0.468098 0.734776 -0.490825 0.468183 -0.128404 -0.436261 0.890611 
0.00544456 -0.445074 0.895477 -0.015906 -0.620751 0.783847 -0.036581 -0.735816 0.676193 
-0.0715466 -0.79398 0.60372 -0.241077 -0.787226 0.567589 -0.434097 -0.684991 0.585104 
-0.401116 -0.706193 0.583436 0.626218 -0.618288 0.474944 0.579826 -0.656272 0.482813 
0.36071 -0.784266 0.504792 -0.192982 -0.542216 0.817777 -0.129015 -0.407259 0.904154 
-0.129504 -0.460233 0.878302 -0.0950824 -0.481108 0.87149 -0.141149 -0.48066 0.865472 
-0.0845484 -0.683763 0.724789 -0.0894107 -0.785384 0.612517 -0.133386 -0.930049 0.342371 
-0.1816 -0.969412 0.165109 0.271905 -0.840554 0.468547 0.15565 -0.866032 0.475144 
-0.0430784 -0.754535 0.654844 -0.162952 -0.690382 0.704854 -0.158903 -0.700619 0.695617 
-0.189004 -0.780918 0.595353 -0.227389 -0.87819 0.420804 0.571931 0.81213 0.115498 
0.352141 0.915448 0.194812 0.169398 0.956176 0.238814 -0.0796833 0.944674 0.318185 
-0.0161316 0.99628 -0.0846536 -0.243979 0.881372 0.404546 -0.384002 0.79181 0.474952 
0.578779 0.807278 0.1154 0.742414 0.668855 0.0381318 0.595021 0.803138 -0.03032 
-0.355144 0.755552 0.550467 -0.313756 0.713113 0.626918 -0.297214 0.87519 0.381715 
-0.027623 0.717935 0.695562 -0.00488799 0.952269 0.30522 0.0476834 0.746079 0.664148 
0.0587248 0.912576 0.404668 0.00158153 0.762379 0.647129 -0.0204578 0.901874 0.431515 
0.00636889 0.786435 0.617641 -0.0518273 0.923985 0.378901 -0.0373759 0.821045 0.569639 
-0.057265 0.961293 0.26951 -0.141497 0.817286 0.558589 -0.181391 0.968023 0.173289 
-0.240068 0.824434 0.51252 0.799204 0.600768 0.0187509 0.77479 0.564574 -0.284528 
-0.380768 0.787254 0.485023 -0.393873 0.781312 0.484165 -0.405639 0.79667 0.448078 
-0.603823 0.682943 0.41108 0.930079 0.366221 0.0288843 -0.703019 0.594931 0.389644 
0.985592 0.161834 -0.0491748 0.994118 0.0849536 -0.0671802 -0.806017 0.420771 0.41628 
-0.841051 0.366559 0.397829 -0.868466 0.410281 0.278272 0.994691 -0.050262 -0.089796 
0.988485 -0.108119 -0.105866 0.983986 -0.0592881 -0.168094 -0.958595 0.0704087 0.275933 
0.965269 -0.229823 -0.124244 -0.939379 -0.217765 0.264851 -0.913291 -0.329228 0.23981 
0.91678 -0.355332 -0.182354 -0.822986 -0.547318 0.152112 -0.632958 -0.771206 0.0678575 
0.8542 -0.487135 -0.181776 0.84241 -0.510306 -0.173014 0.846485 -0.471178 -0.247899 
-0.276151 -0.960073 0.0447227 -0.572704 -0.818564 0.0443003 -0.470874 -0.880436 0.0557689 
0.718703 -0.682736 -0.131673 0.643896 -0.74387 -0.17904 0.557363 -0.708612 -0.432685 
0.393367 -0.908093 -0.14363 -0.219503 -0.95233 0.211863 -0.203695 -0.951395 0.230987 
-0.176549 -0.946178 0.27125 -0.163823 -0.965141 0.204121 -0.156768 -0.97214 0.174265 
-0.209479 -0.973591 0.0907697 -0.196715 -0.974961 0.103701 -0.216959 -0.975123 -0.0454217 
0.386826 -0.911487 -0.13985 0.257663 -0.964903 -0.0507185 0.0813002 -0.996683 0.00350911 
-0.0836792 -0.991047 0.104038 -0.157501 -0.968368 0.193537 -0.220266 -0.953564 0.205424 
-0.226442 -0.950399 0.213228 -0.00876309 0.991416 -0.130452 0.412129 0.876553 -0.248604 
0.0166645 0.990376 -0.137397 0.23462 0.950282 -0.204737 -0.0217184 0.991856 -0.125501 
-0.0074709 0.989769 -0.142485 -0.156445 0.984683 -0.0769728 -0.300663 0.95361 -0.0151384 
-0.249354 0.959999 0.127377 -0.00120562 0.985206 0.17137 0.068793 0.980317 0.185057 
-0.0174279 0.975711 0.218369 -0.0789583 0.972128 0.220757 -0.0728896 0.984319 0.160633 
-0.185806 0.974832 0.123205 0.579214 0.754557 -0.308471 0.602423 0.731358 -0.31969 
0.382718 0.647367 -0.659123 0.0244988 0.884937 -0.465066 -0.20426 0.971308 0.121815 
-0.194965 0.980026 -0.0392264 -0.310516 0.945515 0.0978851 -0.478906 0.876669 0.0458277 
0.748548 0.532728 -0.394812 0.763036 0.498668 -0.411225 -0.557556 0.830034 0.0131949 
-0.665651 0.744911 -0.0448949 0.853131 0.329569 -0.404414 0.66776 0.284355 -0.687923 
-0.814331 0.573065 -0.0919885 -0.915226 0.3856 -0.116934 0.866513 0.105611 -0.487854 
0.6065 0.0715148 -0.79186 -0.940597 0.316489 -0.122934 -0.908937 0.30956 -0.279295 
0.828905 -0.104281 -0.549583 0.614713 -0.134089 -0.777269 -0.974306 0.048408 -0.219965 
-0.910783 0.0210313 -0.41235 0.745265 -0.285277 -0.602659 0.629607 -0.292453 -0.719768 
0.459896 -0.217055 -0.861036 -0.938515 -0.280987 -0.200588 -0.860997 -0.427246 -0.275942 
-0.834146 -0.311269 -0.455315 0.668532 -0.356949 -0.652421 0.668828 -0.358501 -0.651265 
0.662077 -0.355967 -0.659501 0.495352 -0.257616 -0.829615 -0.743278 -0.59491 -0.305975 
-0.613109 -0.728743 -0.305009 -0.586999 -0.544294 -0.599312 0.665634 -0.36118 -0.653055 
0.47138 -0.568623 -0.674143 0.489293 -0.392296 -0.778907 0.399736 -0.328533 -0.855732 
-0.237325 -0.935658 -0.261193 -0.297571 -0.90578 -0.301685 -0.484793 -0.823288 -0.295252 
-0.430851 -0.848402 -0.307542 -0.41216 -0.789447 -0.454859 0.422811 -0.625107 -0.656104 
0.459896 -0.613209 -0.642239 0.429402 -0.543163 -0.721518 0.333204 -0.503633 -0.797075 
-0.2225 -0.953909 -0.201373 -0.151949 -0.970141 -0.189043 -0.154916 -0.978221 -0.138149 
-0.20203 -0.964064 -0.172522 -0.211591 -0.832219 -0.512485 -0.227205 -0.945116 -0.234806 
-0.207705 -0.957451 -0.200365 -0.211252 -0.927105 -0.309594 0.330774 -0.783705 -0.525734 
0.314275 -0.796641 -0.516328 0.321024 -0.782989 -0.532796 0.151147 -0.880182 -0.449927 
0.183231 -0.808927 -0.558627 0.0418352 -0.939327 -0.340462 0.0982337 -0.820594 -0.563006 
-0.098585 -0.96828 -0.229596 -0.0307878 -0.85289 -0.521182 -0.22895 -0.953633 -0.195363 
-0.23012 -0.954047 -0.191938 -0.211922 -0.919865 -0.330057 0.22486 0.67341 -0.704242 
0.0691048 0.730773 -0.679113 -0.0897862 0.760222 -0.64343 -0.177327 0.748843 -0.638584 
-0.145596 0.811749 -0.565566 0.0979468 0.855641 -0.508217 0.0324329 0.880558 -0.472828 
-0.0681899 0.915137 -0.397335 -0.144051 0.892253 -0.427942 0.51977 0.437408 -0.733835 
0.36032 0.638524 -0.680042 0.376392 0.626555 -0.682465 0.19905 0.609324 -0.767531 
0.0676577 0.520722 -0.851041 -0.0697154 0.534625 -0.842209 -0.154656 0.615487 -0.772825 
-0.00703951 0.843277 -0.537433 -0.137306 0.786109 -0.602644 0.0349455 0.849272 -0.526798 
0.0267867 0.844869 -0.534302 0.0977033 0.808352 -0.580536 0.0464337 0.802413 -0.59496 
-0.0579801 0.821327 -0.567503 -0.161758 0.891469 -0.423223 -0.141046 0.874402 -0.464249 
-0.200718 0.877202 -0.436153 -0.3389 0.811357 -0.476284 -0.501417 0.650231 -0.570771 
0.529568 0.416483 -0.738986 0.506723 0.410262 -0.758233 0.312553 0.336554 -0.88828 
0.158398 0.29509 -0.942248 0.0195407 0.265773 -0.963838 -0.0629771 0.233065 -0.97042 
-0.0992349 0.226547 -0.968932 -0.0217365 0.309584 -0.950624 0.0575696 0.3922 -0.918077 
0.0726616 0.360768 -0.929821 0.0455153 0.291698 -0.955427 0.0716552 0.27447 -0.958922 
-0.0426349 0.323206 -0.945368 -0.148937 0.452472 -0.879253 -0.296649 0.561702 -0.772328 
-0.511873 0.646222 -0.566024 -0.494202 0.637195 -0.591394 -0.580109 0.502806 -0.640827 
0.52786 0.164064 -0.833335 0.49948 0.132068 -0.8562 0.285609 0.18619 -0.940086 
0.119728 0.130752 -0.984159 -0.0111651 0.137699 -0.990411 -0.115281 0.0810705 -0.990019 
-0.0928546 0.074676 -0.992875 0.0591392 0.141457 -0.988176 0.104678 0.186104 -0.976938 
-0.00640331 0.22291 -0.974818 -0.0255995 0.00880261 -0.999634 0.0397151 0.0519736 -0.997858 
0.0866 0.0268591 -0.995881 -0.193626 0.179227 -0.964566 -0.425579 0.413784 -0.804777 
-0.584109 0.488004 -0.64859 -0.572639 0.479788 -0.664747 0.506768 0.033533 -0.86143 
0.48773 0.00778039 -0.87296 0.311855 -0.0136063 -0.950032 -0.127683 0.01125 -0.991751 
-0.0401164 0.127687 -0.991003 0.0965155 0.171215 -0.980495 -0.123216 -0.0325229 -0.991847 
0.0962232 -0.00144374 -0.995359 0.0679682 0.0345772 -0.997088 -0.694975 0.249886 -0.674216 
-0.51664 0.212482 -0.829418 0.527205 -0.146555 -0.837004 0.459583 -0.215328 -0.861636 
0.447099 -0.163569 -0.879402 0.278678 -0.193069 -0.940778 0.142139 -0.152637 -0.978007 
0.00444601 -0.0255204 -0.999664 0.0878649 0.139267 -0.986349 -0.16876 0.0951618 -0.981053 
0.103175 0.0301102 -0.994207 -0.285974 -0.0500631 -0.956929 -0.714085 -0.0526803 -0.698074 
-0.467388 -0.0483123 -0.882731 0.457632 -0.217084 -0.862234 0.323491 -0.22735 -0.918513 
0.200878 -0.191256 -0.960765 0.0942491 -0.108491 -0.98962 -0.00356868 -0.06099 -0.998132 
0.0712854 -0.150972 -0.985964 -0.129954 0.0800801 -0.988281 0.0471624 0.0615573 -0.996989 
-0.283685 -0.1885 -0.940208 -0.594713 -0.322625 -0.736362 -0.53848 -0.447799 -0.713804 
-0.508221 -0.295068 -0.809102 0.410693 -0.263009 -0.873016 0.381797 -0.29763 -0.875013 
0.342123 -0.253618 -0.904782 0.266414 -0.202568 -0.942332 0.138851 -0.132011 -0.981475 
-0.0327927 -0.090423 -0.995363 -0.0694016 -0.0329173 -0.997046 0.173876 -0.158302 -0.971961 
-0.00934244 -0.0672624 -0.997692 -0.0300745 -0.180776 -0.983064 -0.128681 -0.27755 -0.952054 
-0.250943 -0.381251 -0.889761 -0.479626 -0.498086 -0.722405 -0.381136 -0.587333 -0.713985 
-0.374835 -0.491468 -0.786103 0.383406 -0.315536 -0.868008 0.3279 -0.428466 -0.841961 
0.316482 -0.293431 -0.902074 0.212802 -0.266115 -0.940159 0.0939532 -0.182631 -0.978682 
-0.00832894 -0.0797117 -0.996783 -0.000442378 -0.0533248 -0.998577 0.0511547 -0.299002 -0.95288 
0.0144345 -0.294297 -0.955605 -0.0326949 -0.30427 -0.952025 -0.209112 -0.79783 -0.565455 
-0.0862436 -0.395834 -0.914263 -0.208657 -0.775016 -0.5965 -0.159889 -0.520171 -0.838962 
-0.235724 -0.745419 -0.623526 -0.227443 -0.613971 -0.75585 -0.305042 -0.683599 -0.663055 
-0.300081 -0.689991 -0.658684 -0.298416 -0.677023 -0.672746 0.293463 -0.483502 -0.824685 
0.248169 -0.545354 -0.800625 0.247199 -0.461188 -0.852172 0.139304 -0.645335 -0.751091 
0.153066 -0.436065 -0.886802 0.0174435 -0.714711 -0.699203 0.0652924 -0.409567 -0.90994 
-0.144255 -0.745481 -0.65073 -0.0705984 -0.402753 -0.912582 -0.169607 -0.753694 -0.634963 
-0.108922 -0.574988 -0.810879 -0.103446 -0.806503 -0.58211 -0.0719222 -0.692747 -0.717585 
-0.19649 -0.807048 -0.556835 -0.142337 -0.821553 -0.552079 -0.136025 -0.752676 -0.644187 
-0.0632216 0.206899 -0.976318 0.0993847 0.0363832 -0.994384 -0.0166795 0.108399 -0.993967 
0.146231 -0.0671556 -0.986968 -0.0386345 0.205292 -0.977938 0.0264372 0.0877982 -0.995787 
-0.0917792 0.165116 -0.981995 -0.047706 0.161021 -0.985797 -0.0205201 0.118396 -0.992754 
-0.262513 0.107475 -0.958924 0.12992 -0.00943537 -0.99148 0.104169 -0.048603 -0.993371 
0.0890012 -0.00849996 -0.995995 -0.0891021 0.0108704 -0.995963 -0.0345603 0.0108043 -0.999344 
0.0721413 0.0347167 -0.99679 0.146002 -0.0667413 -0.98703 -0.0330195 0.145737 -0.988772 
0.146849 -0.0743627 -0.98636 0.147872 -0.0779323 -0.985931 -0.129361 0.0769699 -0.988606 
-0.115598 0.148771 -0.982092 0.0466509 0.0238572 -0.998626 0.0938225 0.0402953 -0.994773 
0.0266055 0.0130763 -0.99956 -0.00140101 0.112464 -0.993655 -0.262443 0.0810999 -0.961533 
-0.256635 0.0527511 -0.965068 -0.245123 0.0719557 -0.966818 0.0146198 -0.101335 -0.994745 
0.00762137 -0.0938065 -0.995561 0.0101832 -0.0987295 -0.995062 0.00770076 -0.0984707 -0.99511 
0.0648271 0.0150084 -0.997784 0.0822958 0.0085848 -0.996571 0.0817815 0.0272257 -0.996278 
-0.0984725 0.123802 -0.987409 -0.149814 0.110537 -0.982516 0.0591238 0.0926114 -0.993945 
0.0820163 0.178234 -0.980564 -0.0860408 0.069872 -0.993838 0.0327716 0.0341579 -0.998879 
0.102812 0.0410935 -0.993852 0.103 0.041766 -0.993804 0.031068 0.0134487 -0.999427 
-0.182277 -0.0202822 -0.983038 -0.130668 -0.00514802 -0.991413 0.185847 -0.195964 -0.962839 
0.231346 -0.216563 -0.948462 0.235678 -0.211896 -0.948449 0.0744868 0.171496 -0.982365 
-0.138341 0.0492188 -0.989161 -0.173361 -0.0986269 -0.979908 0.047125 0.0294251 -0.998456 
0.0119383 -0.079053 -0.996799 -0.00924786 -0.136669 -0.990574 0.0480731 -0.0140861 -0.998744 
-0.0794855 -0.181411 -0.98019 -0.0194439 -0.0722354 -0.997198 -0.0850369 -0.179601 -0.980057 
-0.0720821 -0.183199 -0.98043 -0.0688994 -0.179445 -0.981352 0.179048 -0.251241 -0.95122 
0.138846 -0.273679 -0.951747 0.168656 -0.264315 -0.949575 -0.033905 -0.144996 -0.988851 
-0.0464764 -0.215557 -0.975385 -0.0554859 -0.207845 -0.976587 0.00393864 -0.0959205 -0.995381 
-0.0024421 -0.120616 -0.992696 0.00489924 -0.107024 -0.994244 0.0065016 -0.101219 -0.994843 

