# vtk DataFile Version 4.2
vtk output
ASCII
DATASET POLYDATA
POINTS 595 float
-37.9497 -27.3252 -12.063 -30.9403 -27.3252 -13.2152 -23.9309 -27.3252 -12.8927 
-16.9215 -27.3252 -12.684 -9.91205 -27.3252 -12.4259 -2.90264 -27.3252 -12.0091 
4.10678 -27.3252 -12.2351 11.1162 -27.3252 -12.9989 18.1256 -27.3252 -13.5991 
25.135 -27.3252 -14.2605 32.1444 -27.3252 -14.3413 39.1539 -27.3252 -13.8319 
46.1633 -27.3252 -13.0614 -51.9685 -20.3158 -11.8666 -44.9591 -20.3158 -15.6595 
-37.9497 -20.3158 -15.4405 -30.9403 -20.3158 -15.817 -23.9309 -20.3158 -15.3078 
-16.9215 -20.3158 -14.8685 -9.91205 -20.3158 -14.5383 -2.90264 -20.3158 -14.4365 
4.10678 -20.3158 -14.8498 11.1162 -20.3158 -15.4486 18.1256 -20.3158 -15.5786 
25.135 -20.3158 -16.0686 32.1444 -20.3158 -17.1078 39.1539 -20.3158 -15.7854 
46.1633 -20.3158 -15.5645 53.1727 -20.3158 -13.1393 -58.978 -13.3064 -11.89 
-51.9685 -13.3064 -15.0862 -44.9591 -13.3064 -16.3058 -37.9497 -13.3064 -17.2115 
-30.9403 -13.3064 -17.0969 -23.9309 -13.3064 -16.2821 -16.9215 -13.3064 -15.1701 
-9.91205 -13.3064 -14.6604 -2.90264 -13.3064 -14.9053 4.10678 -13.3064 -15.4345 
11.1162 -13.3064 -15.2327 18.1256 -13.3064 -15.5742 25.135 -13.3064 -15.9945 
32.1444 -13.3064 -16.6114 39.1539 -13.3064 -17.3456 46.1633 -13.3064 -15.4893 
53.1727 -13.3064 -13.9802 60.1821 -13.3064 -11.1347 -58.978 -6.29699 -12.837 
-51.9685 -6.29699 -16.2229 -44.9591 -6.29699 -17.259 -37.9497 -6.29699 -17.755 
-30.9403 -6.29699 -17.5677 -23.9309 -6.29699 -16.9775 -16.9215 -6.29699 -15.7606 
-9.91205 -6.29699 -16.8356 -2.90264 -6.29699 -15.9124 4.10678 -6.29699 -15.4679 
11.1162 -6.29699 -15.1018 18.1256 -6.29699 -14.2976 25.135 -6.29699 -15.2874 
32.1444 -6.29699 -16.2961 39.1539 -6.29699 -17.3412 46.1633 -6.29699 -16.1065 
53.1727 -6.29699 -15.6379 60.1821 -6.29699 -13.4784 -58.978 0.71242 -12.765 
-51.9685 0.71242 -15.7075 -44.9591 0.71242 -16.9949 -37.9497 0.71242 -17.5103 
-30.9403 0.71242 -17.3154 -23.9309 0.71242 -16.7755 -16.9215 0.71242 -15.3991 
-9.91205 0.71242 -17.1971 -2.90264 0.71242 -15.2484 4.10678 0.71242 -15.2069 
11.1162 0.71242 -15.6672 18.1256 0.71242 -13.1217 25.135 0.71242 -14.5385 
32.1444 0.71242 -15.7253 39.1539 0.71242 -16.3983 46.1633 0.71242 -15.6361 
53.1727 0.71242 -14.5727 60.1821 0.71242 -12.1936 -51.9685 7.72183 -13.9324 
-44.9591 7.72183 -15.8607 -37.9497 7.72183 -16.9818 -30.9403 7.72183 -17.0435 
-23.9309 7.72183 -16.299 -16.9215 7.72183 -15.2923 -9.91205 7.72183 -15.1024 
-2.90264 7.72183 -16.0614 4.10678 7.72183 -14.6331 11.1162 7.72183 -13.5839 
18.1256 7.72183 -13.3586 25.135 7.72183 -14.695 32.1444 7.72183 -15.2474 
39.1539 7.72183 -15.7073 46.1633 7.72183 -15.3664 53.1727 7.72183 -13.4332 
-51.9685 14.7312 -11.9411 -44.9591 14.7312 -13.8376 -37.9497 14.7312 -15.5493 
-30.9403 14.7312 -16.0119 -23.9309 14.7312 -16.0098 -16.9215 14.7312 -15.6155 
-9.91205 14.7312 -15.224 -2.90264 14.7312 -13.9475 4.10678 14.7312 -13.1447 
11.1162 14.7312 -13.7773 18.1256 14.7312 -14.0467 25.135 14.7312 -14.6953 
32.1444 14.7312 -15.4348 39.1539 14.7312 -14.4226 46.1633 14.7312 -14.2848 
-44.9591 21.7407 -11.5734 -37.9497 21.7407 -13.0811 -30.9403 21.7407 -15.1875 
-23.9309 21.7407 -15.4323 -16.9215 21.7407 -15.4973 -9.91205 21.7407 -14.9751 
-2.90264 21.7407 -13.7428 4.10678 21.7407 -13.4445 11.1162 21.7407 -13.8171 
18.1256 21.7407 -13.8895 25.135 21.7407 -13.9755 32.1444 21.7407 -13.2216 
39.1539 21.7407 -12.5833 -30.9403 28.7501 -11.1473 -23.9309 28.7501 -13.0929 
-16.9215 28.7501 -13.677 -9.91205 28.7501 -13.3726 -2.90264 28.7501 -12.6699 
4.10678 28.7501 -12.5623 11.1162 28.7501 -12.4127 18.1256 28.7501 -11.7663 
25.135 28.7501 -11.1224 -37.9497 -28.5934 -11.12 -30.9403 -30.0229 -11.12 
-23.9309 -29.4404 -11.12 -16.9215 -29.4221 -11.12 -9.91205 -28.9534 -11.12 
-2.90264 -28.3565 -11.12 4.10678 -28.558 -11.12 11.1162 -29.4396 -11.12 
18.1256 -30.3933 -11.12 25.135 -31.18 -11.12 32.1444 -31.0606 -11.12 
39.1539 -29.9203 -11.12 46.1633 -29.3352 -11.12 -51.9685 -21.6135 -11.12 
-51.9685 -27.3252 -6.14825 -41.3727 -27.3252 -11.12 -44.9591 -25.9133 -11.12 
-44.9591 -27.3252 -9.87754 49.5765 -27.3252 -11.12 53.1727 -23.9198 -11.12 
53.1727 -27.3252 -6.54228 -53.3675 -20.3158 -11.12 -58.978 -15.0035 -11.12 
-58.978 -20.3158 -6.85266 56.5205 -20.3158 -11.12 60.1821 -13.3521 -11.12 
60.1821 -20.3158 -7.33377 -59.9644 -13.3064 -11.12 60.2016 -13.3064 -11.12 
-61.1077 -6.29699 -11.12 63.1478 -6.29699 -11.12 67.1915 -6.29699 -4.40271 
-61.0782 0.71242 -11.12 -58.978 5.69324 -11.12 61.6384 0.71242 -11.12 
60.1821 7.38003 -11.12 -57.4846 7.72183 -11.12 -58.978 7.72183 -10.1393 
59.9702 7.72183 -11.12 53.1727 13.5276 -11.12 60.1821 7.72183 -11.0353 
-53.1568 14.7312 -11.12 -51.9685 16.1691 -11.12 52.2277 14.7312 -11.12 
46.1633 20.3582 -11.12 53.1727 14.7312 -10.6658 60.1821 14.7312 -6.5898 
-45.7915 21.7407 -11.12 -51.9685 21.7407 -5.88717 -44.9591 22.3064 -11.12 
-37.9497 25.2647 -11.12 32.1444 25.7116 -11.12 43.9896 21.7407 -11.12 
39.1539 24.9284 -11.12 46.1633 21.7407 -10.3067 53.1727 21.7407 -6.8071 
-31.0271 28.7501 -11.12 -37.9497 28.7501 -7.19086 -30.9403 28.7838 -11.12 
-23.9309 31.1707 -11.12 -16.9215 32.353 -11.12 -9.91205 32.2371 -11.12 
-2.90264 31.6191 -11.12 4.10678 31.3955 -11.12 11.1162 30.8825 -11.12 
18.1256 29.6308 -11.12 25.1455 28.7501 -11.12 25.135 28.7533 -11.12 
32.1444 28.7501 -8.76163 39.1539 28.7501 -7.22206 -16.9215 35.7595 -6.39585 
-9.91205 35.7595 -6.98875 -2.90264 35.7595 -6.95062 4.10678 35.7595 -6.73765 
11.1162 35.7595 -5.69464 -51.9685 -28.5345 -4.11055 -44.9591 -31.7111 -4.11055 
-37.9497 -33.4458 -4.11055 -30.9403 -34.0325 -4.11055 -23.9309 -34.3097 -4.11055 
-16.9215 -33.7367 -4.11055 -9.91205 -32.857 -4.11055 -2.90264 -32.2496 -4.11055 
4.10678 -32.2068 -4.11055 11.1162 -32.7799 -4.11055 18.1256 -33.7966 -4.11055 
25.135 -33.8626 -4.11055 32.1444 -34.1972 -4.11055 39.1539 -33.5696 -4.11055 
46.1633 -31.796 -4.11055 53.1727 -28.5687 -4.11055 -54.0542 -27.3252 -4.11055 
-58.978 -22.9584 -4.11055 54.7649 -27.3252 -4.11055 60.1821 -22.789 -4.11055 
-60.8471 -20.3158 -4.11055 62.3741 -20.3158 -4.11055 -65.3052 -13.3064 -4.11055 
65.1975 -13.3064 -4.11055 67.1915 -6.88822 -4.11055 -65.9146 -6.29699 -4.11055 
67.1915 -3.67973 -4.11055 67.1915 -6.29699 0.3321 -65.8283 0.71242 -4.11055 
-65.9874 0.71242 2.67745 66.8347 0.71242 -4.11055 -63.2287 7.72183 -4.11055 
-58.978 14.6661 -4.11055 65.9386 7.72183 -4.11055 -58.917 14.7312 -4.11055 
-58.978 14.7312 -3.79893 62.141 14.7312 -4.11055 60.1821 17.5906 -4.11055 
-53.3528 21.7407 -4.11055 -51.9685 22.902 -4.11055 -44.9591 26.8157 -4.11055 
46.1633 27.6704 -4.11055 55.9343 21.7407 -4.11055 53.1727 23.7872 -4.11055 
-41.5229 28.7501 -4.11055 -37.9497 30.3594 -4.11055 -30.9403 33.2006 -4.11055 
-23.9309 35.4293 -4.11055 18.1256 35.454 -4.11055 25.135 33.5421 -4.11055 
32.1444 31.9533 -4.11055 43.3979 28.7501 -4.11055 39.1539 30.3657 -4.11055 
-22.3787 35.7595 -4.11055 -16.9215 36.83 -4.11055 -9.91205 37.2579 -4.11055 
-2.90264 37.345 -4.11055 4.10678 37.2355 -4.11055 16.4485 35.7595 -4.11055 
11.1162 36.6191 -4.11055 18.1256 35.7595 2.33112 -51.9685 -27.9616 2.89886 
-44.9591 -31.2357 2.89886 -37.9497 -33.0694 2.89886 -30.9403 -33.4837 2.89886 
-23.9309 -33.7382 2.89886 -16.9215 -32.8529 2.89886 -9.91205 -32.3143 2.89886 
-2.90264 -32.0711 2.89886 4.10678 -31.6153 2.89886 11.1162 -31.3519 2.89886 
18.1256 -31.9795 2.89886 25.135 -32.5695 2.89886 32.1444 -32.7952 2.89886 
39.1539 -32.8383 2.89886 46.1633 -30.5453 2.89886 53.1727 -27.4449 2.89886 
-53.0582 -27.3252 2.89886 -58.978 -22.4378 2.89886 -51.9685 -27.3252 3.80202 
-44.9591 -27.3252 9.20301 11.1162 -27.3252 8.62039 18.1256 -27.3252 9.3876 
46.1633 -27.3252 8.06416 53.3349 -27.3252 2.89886 53.1727 -27.3252 3.05898 
60.1821 -21.4311 2.89886 -60.4835 -20.3158 2.89886 -58.978 -20.3158 4.8359 
61.1897 -20.3158 2.89886 60.1821 -20.3158 4.16299 -64.9308 -13.3064 2.89886 
-58.978 -13.3064 9.74459 64.5542 -13.3064 2.89886 60.1821 -13.3064 8.15273 
-65.8158 -6.29699 2.89886 -65.9874 0.55593 2.89886 67.0865 -6.29699 2.89886 
-65.9916 0.71242 2.89886 -65.9874 0.725389 2.89886 -65.9874 0.71242 2.90672 
66.7625 0.71242 2.89886 -63.8237 7.72183 2.89886 66.0181 7.72183 2.89886 
-60.0974 14.7312 2.89886 -58.978 15.9861 2.89886 -58.978 14.7312 4.91069 
62.2402 14.7312 2.89886 60.1821 17.6916 2.89886 60.1821 14.7312 5.87997 
-53.5982 21.7407 2.89886 -51.9685 23.0683 2.89886 -51.9685 21.7407 6.57705 
-44.9591 27.9504 2.89886 46.1633 28.0006 2.89886 56.2586 21.7407 2.89886 
53.1727 24.1931 2.89886 53.1727 21.7407 6.79927 -43.1438 28.7501 2.89886 
-37.9497 30.815 2.89886 -37.9497 28.7501 8.79855 -30.9403 33.3821 2.89886 
-23.9309 35.3822 2.89886 25.135 34.0463 2.89886 32.1444 32.4593 2.89886 
44.531 28.7501 2.89886 39.1539 31.0244 2.89886 39.1539 28.7501 7.82347 
-21.6071 35.7595 2.89886 -16.9215 36.4869 2.89886 -16.9215 35.7595 4.83961 
-9.91205 37.2673 2.89886 -9.91205 35.7595 6.84979 -2.90264 37.6475 2.89886 
-2.90264 35.7595 7.93709 4.10678 37.6774 2.89886 4.10678 35.7595 8.44644 
11.1162 37.0661 2.89886 11.1162 35.7595 7.2692 18.2229 35.7595 2.89886 
18.1256 35.7836 2.89886 18.1256 35.7595 2.98589 -37.9497 -29.011 9.90827 
-30.9403 -29.0736 9.90827 -23.9309 -29.2926 9.90827 -16.9215 -29.0457 9.90827 
-9.91205 -29.2066 9.90827 -2.90264 -28.8387 9.90827 4.10678 -27.4142 9.90827 
25.135 -27.7869 9.90827 32.1444 -28.361 9.90827 39.1539 -28.0061 9.90827 
-51.9685 -22.2926 9.90827 -43.4763 -27.3252 9.90827 -44.9591 -26.2883 9.90827 
-37.9497 -27.3252 11.4937 -30.9403 -27.3252 11.4548 -23.9309 -27.3252 11.5304 
-16.9215 -27.3252 11.5401 -9.91205 -27.3252 11.815 -2.90264 -27.3252 11.4472 
4.64116 -27.3252 9.90827 4.10678 -27.3252 9.99245 11.1162 -25.8862 9.90827 
21.74 -27.3252 9.90827 18.1256 -26.7648 9.90827 25.135 -27.3252 10.2864 
32.1444 -27.3252 10.8623 41.6146 -27.3252 9.90827 39.1539 -27.3252 10.5318 
46.1633 -24.8397 9.90827 53.1727 -20.5014 9.90827 -54.0762 -20.3158 9.90827 
-51.9685 -20.3158 11.2424 -44.9591 -20.3158 12.7493 -37.9497 -20.3158 13.9699 
[...]
POINT_DATA 595
SCALARS ImageScalars float
LOOKUP_TABLE default
0 0 0 0 0 0 0 0 0 
0 0 0 0 0 0 0 0 0 
0 0 0 0 0 0 0 0 0 
0 0 0 0 0 0 0 0 0 
0 0 0 0 0 0 0 0 0 
0 0 0 0 0 0 0 0 0 
0 0 0 0 0 0 0 0 0 
0 0 0 0 0 0 0 0 0 
0 0 0 0 0 0 0 0 0 
0 0 0 0 0 0 0 0 0 
0 0 0 0 0 0 0 0 0 
0 0 0 0 0 0 0 0 0 
0 0 0 0 0 0 0 0 0 
0 0 0 0 0 0 0 0 0 
0 0 0 0 0 0 0 0 0 
0 0 0 0 0 0 0 0 0 
0 0 0 0 0 0 0 0 0 
0 0 0 0 0 0 0 0 0 
0 0 0 0 0 0 0 0 0 
0 0 0 0 0 0 0 0 0 
0 0 0 0 0 0 0 0 0 
0 0 0 0 0 0 0 0 0 
0 0 0 0 0 0 0 0 0 
0 0 0 0 0 0 0 0 0 
0 0 0 0 0 0 0 0 0 
0 0 0 0 0 0 0 0 0 
0 0 0 0 0 0 0 0 0 
0 0 0 0 0 0 0 0 0 
0 0 0 0 0 0 0 0 0 
0 0 0 0 0 0 0 0 0 
0 0 0 0 0 0 0 0 0 
0 0 0 0 0 0 0 0 0 
0 0 0 0 0 0 0 0 0 
0 0 0 0 0 0 0 0 0 
0 0 0 0 0 0 0 0 0 
0 0 0 0 0 0 0 0 0 
0 0 0 0 0 0 0 0 0 
0 0 0 0 0 0 0 0 0 
0 0 0 0 0 0 0 0 0 
0 0 0 0 0 0 0 0 0 
0 0 0 0 0 0 0 0 0 
0 0 0 0 0 0 0 0 0 
0 0 0 0 0 0 0 0 0 
0 0 0 0 0 0 0 0 0 
0 0 0 0 0 0 0 0 0 
0 0 0 0 0 0 0 0 0 
0 0 0 0 0 0 0 0 0 
0 0 0 0 0 0 0 0 0 
0 0 0 0 0 0 0 0 0 
0 0 0 0 0 0 0 0 0 
0 0 0 0 0 0 0 0 0 
0 0 0 0 0 0 0 0 0 
0 0 0 0 0 0 0 0 0 
0 0 0 0 0 0 0 0 0 
0 0 0 0 0 0 0 0 0 
0 0 0 0 0 0 0 0 0 
0 0 0 0 0 0 0 0 0 
0 0 0 0 0 0 0 0 0 
0 0 0 0 0 0 0 0 0 
0 0 0 0 0 0 0 0 0 
0 0 0 0 0 0 0 0 0 
0 0 0 0 0 0 0 0 0 
0 0 0 0 0 0 0 0 0 
0 0 0 0 0 0 0 0 0 
0 0 0 0 0 0 0 0 0 
0 0 0 0 0 0 0 0 0 
0 
NORMALS Normals float
-0.19829 -0.554881 -0.807953 -0.0525294 -0.521365 -0.851715 0.0389786 -0.502728 -0.863566 
0.0300399 -0.511613 -0.858691 0.047138 -0.534518 -0.843842 0.0146672 -0.586336 -0.809935 
-0.0665463 -0.605735 -0.792879 -0.0938876 -0.577034 -0.811306 -0.0819836 -0.504943 -0.85925 
-0.0525255 -0.478988 -0.876248 0.0199681 -0.512416 -0.858505 0.0979912 -0.544597 -0.832954 
0.305617 -0.595741 -0.742759 -0.403264 -0.392489 -0.826638 -0.20017 -0.349939 -0.915137 
-0.0157939 -0.344577 -0.938625 0.0100737 -0.266229 -0.963857 0.0712626 -0.210754 -0.974938 
0.0514992 -0.164212 -0.98508 0.0331294 -0.150302 -0.988085 -0.0225385 -0.183272 -0.982804 
-0.0710655 -0.199911 -0.977233 -0.0531396 -0.138113 -0.98899 -0.0429354 -0.126272 -0.991066 
-0.103731 -0.101083 -0.989455 0.0176515 -0.151528 -0.988295 0.100122 -0.201846 -0.974286 
0.198049 -0.169886 -0.965358 0.397332 -0.325505 -0.858005 -0.519073 -0.25891 -0.814573 
-0.33702 -0.27373 -0.900827 -0.139403 -0.101497 -0.98502 -0.0513984 -0.148666 -0.987551 
0.0673657 -0.127464 -0.989553 0.134827 -0.111234 -0.984606 0.115017 -0.0651563 -0.991224 
0.0187407 -0.143111 -0.989529 -0.0548052 -0.0967713 -0.993797 -0.0231767 -0.0443908 -0.998745 
-0.00829899 0.0227376 -0.999707 -0.055939 0.0935395 -0.994043 -0.0719473 0.055196 -0.99588 
-0.0935913 0.0545785 -0.994114 0.0799717 -0.109948 -0.990715 0.212119 -0.037653 -0.976518 
0.325427 -0.170817 -0.93001 0.521436 -0.341656 -0.781906 -0.55869 -0.0603806 -0.827176 
-0.321039 -0.032612 -0.946504 -0.100606 -0.0484817 -0.993744 -0.0204484 -0.023598 -0.999512 
0.0521118 -0.015058 -0.998528 0.133066 -0.0371348 -0.990411 0.0136791 -0.0164131 -0.999772 
-0.0208044 -0.191659 -0.981241 0.0979322 -0.045021 -0.994174 0.0530848 0.0117326 -0.998521 
0.0927678 -0.0102231 -0.995635 -0.0236718 0.168563 -0.985407 -0.141247 0.102623 -0.984641 
-0.142619 0.0622482 -0.987818 0.0120955 0.0681229 -0.997604 0.116284 -0.0100402 -0.993165 
0.245155 -0.0397272 -0.96867 0.478565 -0.0616397 -0.875886 -0.539606 0.173492 -0.823848 
-0.296713 0.141034 -0.944495 -0.117056 0.0986767 -0.988211 -0.0210975 0.0571856 -0.998141 
0.0499529 0.0376714 -0.998041 0.140424 0.0486264 -0.988897 -0.0165755 0.0338348 -0.99929 
-0.0393806 0.135479 -0.989997 0.154378 -0.0151847 -0.987895 -0.0170439 0.0705678 -0.997361 
0.222141 0.133495 -0.965833 -0.01844 0.0697608 -0.997393 -0.183047 0.0425718 -0.982182 
-0.130651 0.0741871 -0.988649 0.00616711 0.114307 -0.993426 0.119526 0.0550649 -0.991303 
0.287369 0.145736 -0.946668 0.505832 0.157763 -0.848083 -0.380811 0.256931 -0.888239 
-0.199411 0.219709 -0.954967 -0.078082 0.127871 -0.988712 0.0485417 0.0915117 -0.99462 
0.123484 0.0515948 -0.991004 0.0856419 -0.0156559 -0.996203 -0.0516064 0.122219 -0.991161 
0.0264781 0.117099 -0.992767 0.170054 0.146098 -0.974545 0.0902515 0.0598374 -0.99412 
-0.073736 -0.0685021 -0.994922 -0.132033 -0.0115754 -0.991178 -0.0670891 0.0211784 -0.997522 
-0.00473041 0.138433 -0.99036 0.133301 0.0783982 -0.98797 0.275625 0.248283 -0.928648 
-0.464841 0.410467 -0.7845 -0.25103 0.29389 -0.922287 -0.1546 0.278444 -0.947928 
-0.0303519 0.123822 -0.99184 0.0282221 0.0603169 -0.99778 0.0556965 -0.0149901 -0.998335 
0.119949 0.00925268 -0.992737 0.145931 0.154348 -0.97718 0.0112635 0.0728653 -0.997278 
-0.0641619 -0.0145939 -0.997833 -0.0649981 -0.0338966 -0.99731 -0.0967749 0.0530464 -0.993892 
0.0172498 0.137089 -0.990409 0.0759412 0.213562 -0.973973 0.223691 0.312628 -0.923161 
-0.370892 0.552559 -0.746403 -0.234282 0.405048 -0.883769 -0.160066 0.302466 -0.939624 
-0.0198372 0.182216 -0.983059 0.0318383 0.12713 -0.991375 0.122889 0.125594 -0.984441 
0.10905 0.0937545 -0.989605 -0.00618706 0.0425991 -0.999073 -0.0310417 0.0935752 -0.995128 
-0.0116742 0.142046 -0.989791 0.0432732 0.236389 -0.970694 0.0998384 0.357117 -0.928709 
0.176171 0.347744 -0.92089 -0.256565 0.609163 -0.750397 -0.169685 0.519149 -0.83767 
-0.0147899 0.439764 -0.897992 0.0725785 0.401443 -0.913004 0.0546152 0.328353 -0.942975 
0.0182364 0.32091 -0.946934 0.0507324 0.384664 -0.921662 0.0935264 0.484734 -0.869647 
0.148287 0.570012 -0.808144 -0.192498 -0.614129 -0.765369 -0.0384647 -0.685642 -0.726922 
0.0355901 -0.647396 -0.761323 0.0270182 -0.6437 -0.764801 0.0612297 -0.640905 -0.765175 
0.0221476 -0.656596 -0.753917 -0.0647889 -0.688642 -0.722201 -0.108427 -0.712135 -0.693619 
-0.0995252 -0.700385 -0.706793 -0.0383311 -0.753722 -0.656074 0.0666779 -0.768695 -0.63613 
0.122553 -0.725367 -0.677365 0.277553 -0.714911 -0.641768 -0.410545 -0.46239 -0.785906 
-0.457553 -0.829754 -0.319616 -0.23655 -0.579496 -0.77989 -0.259653 -0.563103 -0.784535 
-0.277813 -0.656667 -0.701148 0.428085 -0.617334 -0.660032 0.503921 -0.475647 -0.720988 
0.581244 -0.744169 -0.329193 -0.454441 -0.424337 -0.783212 -0.554828 -0.330488 -0.763508 
-0.732087 -0.557931 -0.390847 0.582794 -0.389166 -0.713373 0.522934 -0.342881 -0.780367 
0.748499 -0.531983 -0.395908 -0.553864 -0.282961 -0.78305 0.522389 -0.34219 -0.781035 
-0.651208 -0.0627306 -0.756302 0.69416 -0.0670422 -0.716691 0.950716 -0.110607 -0.289663 
-0.634958 0.191262 -0.748497 -0.57874 0.321407 -0.749505 0.592579 0.182175 -0.784642 
0.570809 0.333848 -0.750148 -0.541301 0.339992 -0.769025 -0.613722 0.371236 -0.696799 
0.566079 0.338348 -0.751714 0.39327 0.305045 -0.867344 0.576563 0.341185 -0.742407 
-0.530424 0.432193 -0.729287 -0.503589 0.44795 -0.738742 0.381896 0.328294 -0.863932 
0.28079 0.479558 -0.831373 0.415439 0.334028 -0.846071 0.697367 0.529283 -0.483259 
-0.397431 0.566053 -0.722241 -0.589813 0.689409 -0.420519 -0.381912 0.577776 -0.721331 
-0.29865 0.571819 -0.764088 0.125398 0.541643 -0.831203 0.25881 0.459202 -0.849795 
0.204035 0.5048 -0.838777 0.306136 0.540296 -0.783812 0.538904 0.698124 -0.471387 
-0.258103 0.610694 -0.748622 -0.398239 0.807079 -0.435923 -0.257109 0.610692 -0.748966 
-0.187327 0.658611 -0.728794 -0.0553593 0.645408 -0.761829 0.0312494 0.587746 -0.808442 
0.0368505 0.489526 -0.87121 0.0316547 0.4779 -0.877844 0.0790224 0.506221 -0.858776 
0.103982 0.535933 -0.837833 0.148306 0.570195 -0.808012 0.148334 0.570192 -0.808009 
0.180043 0.761394 -0.622787 0.268016 0.824162 -0.498923 -0.113489 0.927821 -0.355342 
-0.0195136 0.893649 -0.448342 0.0104723 0.871741 -0.489854 0.0509459 0.874994 -0.481446 
0.122099 0.909972 -0.396286 -0.468159 -0.855777 -0.220168 -0.317719 -0.928321 -0.19307 
-0.159268 -0.965764 -0.204779 -0.0560777 -0.98234 -0.178506 0.0191442 -0.980116 -0.197502 
0.0988933 -0.982482 -0.157952 0.102784 -0.979787 -0.17162 0.0455318 -0.977932 -0.2039 
-0.038162 -0.984943 -0.168615 -0.113925 -0.989032 -0.0940005 -0.0750983 -0.995237 -0.0621582 
-0.0283752 -0.998868 -0.0381813 0.0189747 -0.994693 -0.101127 0.165309 -0.975821 -0.142992 
0.32434 -0.942421 -0.0815283 0.556602 -0.819734 -0.135021 -0.534697 -0.817249 -0.214948 
-0.733188 -0.639724 -0.230626 0.591088 -0.792809 -0.148553 0.721014 -0.664573 -0.196169 
-0.779959 -0.575634 -0.245579 0.800543 -0.553213 -0.230405 -0.919221 -0.290326 -0.265978 
0.912929 -0.332362 -0.236848 0.953216 -0.131362 -0.272255 -0.954301 -0.0360052 -0.296671 
0.951736 -0.0384013 -0.304506 0.984102 -0.138608 0.111045 -0.933625 0.198904 -0.297961 
-0.963124 0.142297 0.22835 0.928181 0.1082 -0.356053 -0.873121 0.353404 -0.335806 
-0.692822 0.623499 -0.362281 0.89285 0.303053 -0.333132 -0.690947 0.625441 -0.362514 
-0.699053 0.628551 -0.340953 0.78522 0.525845 -0.326981 0.721259 0.612044 -0.324326 
-0.638627 0.700462 -0.318605 -0.588763 0.746472 -0.310062 -0.491521 0.809487 -0.321151 
0.388404 0.872179 -0.297398 0.608161 0.728651 -0.314973 0.546577 0.774101 -0.319407 
-0.452684 0.844549 -0.286032 -0.405825 0.877207 -0.256544 -0.328548 0.916544 -0.228044 
-0.248697 0.947488 -0.201038 0.214005 0.933912 -0.286375 0.228021 0.932647 -0.279601 
0.213846 0.927476 -0.30669 0.350381 0.893832 -0.279815 0.289686 0.916328 -0.276451 
-0.222384 0.954683 -0.197802 -0.128728 0.971631 -0.198401 -0.0372705 0.97004 -0.240071 
0.00156812 0.960489 -0.278313 0.051978 0.955185 -0.291411 0.193149 0.939496 -0.282915 
0.12482 0.948855 -0.28999 0.210834 0.974052 0.0822946 -0.471799 -0.817742 0.329703 
-0.336438 -0.903539 0.265382 -0.148101 -0.949381 0.277025 -0.0448762 -0.970201 0.238109 
0.0431757 -0.96163 0.27093 0.0957094 -0.956813 0.274498 0.0536103 -0.974338 0.218614 
0.0483169 -0.979047 0.197819 0.0503846 -0.959578 0.276897 -0.0225851 -0.927297 0.373644 
-0.0836072 -0.912002 0.401575 -0.0518701 -0.943139 0.328327 -0.0185852 -0.929772 0.367667 
0.161184 -0.914268 0.371662 0.316976 -0.877752 0.359275 0.507769 -0.775689 0.374802 
-0.498757 -0.797964 0.338371 -0.711249 -0.618529 0.333985 -0.474272 -0.793254 0.381856 
-0.370075 -0.578768 0.726685 0.0239671 -0.707636 0.706171 -0.0844508 -0.689485 0.71936 
0.33834 -0.68833 0.64166 0.511689 -0.77351 0.373975 0.507768 -0.771565 0.383221 
0.699146 -0.611049 0.371233 -0.768601 -0.56154 0.306473 -0.70632 -0.553719 0.44103 
0.731172 -0.572661 0.370739 0.689306 -0.56449 0.454103 -0.879541 -0.33412 0.338778 
-0.585288 -0.378605 0.717005 0.883608 -0.372925 0.283132 0.587867 -0.390214 0.708622 
-0.954779 -0.0626267 0.290646 -0.96025 0.135319 0.244151 0.934578 -0.144082 0.325275 
-0.959907 0.139979 0.242868 -0.959867 0.14028 0.242853 -0.959807 0.139935 0.243289 
0.949623 0.0673287 0.306077 -0.920114 0.332575 0.206845 0.937194 0.314374 0.151114 
-0.788799 0.597269 0.145144 -0.772828 0.619401 0.138129 -0.779322 0.583129 0.229387 
0.830276 0.506736 0.232079 0.762552 0.597448 0.248132 0.734984 0.506243 0.451128 
-0.648233 0.748547 0.13954 -0.601026 0.787714 0.135184 -0.578368 0.73621 0.351405 
-0.468039 0.876971 0.108912 0.414527 0.890985 0.185241 0.618575 0.756381 0.212725 
0.546397 0.809135 0.216218 0.539005 0.73802 0.405956 -0.44291 0.889836 0.109645 
-0.381643 0.91586 0.124697 -0.325117 0.831708 0.450068 -0.289573 0.943468 0.161292 
-0.227602 0.9558 0.186127 0.229654 0.966613 0.113662 0.207106 0.966088 0.154214 
0.38794 0.905609 0.171391 0.298474 0.940129 0.164533 0.288169 0.825198 0.485805 
-0.197301 0.961453 0.191523 -0.130281 0.97024 0.20411 -0.130609 0.946794 0.294148 
-0.0815631 0.980728 0.17754 -0.0840009 0.920667 0.381203 -0.0291592 0.988202 0.150358 
-0.0436536 0.900524 0.432609 0.0409723 0.991079 0.126821 0.011775 0.89795 0.439941 
0.132064 0.985264 0.108692 0.11496 0.933572 0.339451 0.209457 0.971299 0.112723 
0.209215 0.971339 0.112825 0.209247 0.970823 0.117126 -0.117612 -0.705841 0.698538 
-0.0164058 -0.666219 0.745576 0.00422488 -0.667381 0.744704 0.00324073 -0.727412 0.686193 
0.0127781 -0.775397 0.631345 0.106761 -0.756243 0.645521 0.152078 -0.67137 0.725352 
-0.0827256 -0.646788 0.75817 -0.006966 -0.688436 0.725264 0.137502 -0.683874 0.716526 
-0.41576 -0.480989 0.771877 -0.31185 -0.567429 0.762085 -0.344713 -0.526541 0.777128 
-0.138408 -0.591552 0.794298 -0.00231872 -0.567099 0.823646 -0.00474677 -0.560012 0.828471 
-0.0174392 -0.629188 0.777057 0.00470377 -0.665914 0.746013 0.112838 -0.672416 0.731521 
0.143207 -0.668382 0.729903 0.152837 -0.666675 0.729511 0.0203937 -0.623221 0.78178 
-0.0838343 -0.653344 0.752405 -0.0825374 -0.657644 0.748793 -0.0831288 -0.628992 0.772955 
-0.0129827 -0.648923 0.760743 0.211666 -0.655671 0.724771 0.137091 -0.659552 0.739052 
0.320305 -0.559441 0.764481 0.455629 -0.513851 0.726884 -0.445596 -0.437913 0.780818 
-0.372902 -0.386121 0.843715 -0.226455 -0.40318 0.886659 -0.0969782 -0.267396 0.958694 
-0.0261162 -0.231129 0.972572 -0.021402 -0.219446 0.97539 -0.0747959 -0.220602 0.972492 
-0.0358962 -0.282585 0.95857 0.109424 -0.321507 0.940563 0.118089 -0.379092 0.917793 
-0.0223114 -0.438786 0.898315 -0.0719447 -0.392557 0.91691 -0.030935 -0.377617 0.925445 
0.0429508 -0.358469 0.932553 0.144008 -0.352875 0.924522 0.210687 -0.423123 0.881236 
0.459047 -0.508194 0.728708 0.451879 -0.504198 0.735928 -0.571421 -0.367432 0.733807 
-0.578332 -0.359406 0.732366 -0.302773 -0.232351 0.924306 -0.182196 -0.171683 0.968158 
-0.0632294 -0.181309 0.981391 0.0446386 -0.128852 0.990659 0.01787 -0.0832564 0.996368 
-0.10359 -0.0102249 0.994568 -0.109988 -0.148497 0.982777 0.0112708 -0.12248 0.992407 
0.0465353 -0.291979 0.955292 0.0276717 -0.279965 0.959611 -0.0112136 -0.138779 0.99026 
-0.0216658 -0.130776 0.991175 0.0100168 -0.155422 0.987797 0.115975 -0.231319 0.965941 
0.241419 -0.21662 0.945935 0.477928 -0.315433 0.819809 0.397874 -0.200749 0.895207 
0.528643 -0.238628 0.814612 -0.601877 -0.160634 0.782266 -0.524735 -0.128742 0.841474 
-0.329106 -0.222158 0.917788 -0.120384 -0.158005 0.980072 -0.0410793 -0.109894 0.993094 
0.0606948 -0.10628 0.992482 0.101419 -0.0842277 0.991272 -0.13311 -0.0439753 0.990125 
0.0701693 0.00476744 0.997524 -0.050805 -0.0437018 0.997752 0.204645 -0.0949727 0.974218 
0.344673 -0.133956 0.929116 0.588319 -0.122134 0.799352 0.526055 -0.131933 0.840154 
-0.690647 0.0713439 0.719665 -0.543226 0.0474783 0.838243 -0.316883 -0.019766 0.948259 
-0.068723 -0.0505174 0.996356 0.080672 -0.123595 0.989048 -0.146391 -0.141417 0.979066 
0.065861 -0.0218582 0.997589 0.00997342 -0.0403825 0.999135 -0.109134 -0.042768 0.993107 
0.0945017 -0.0191569 0.99534 0.18711 0.00213301 0.982337 0.346458 0.00705389 0.938039 
0.612889 0.0101187 0.790104 0.561646 0.0129502 0.827276 -0.642322 0.298718 0.705825 
-0.660006 0.341992 0.668905 -0.617812 0.276829 0.735985 -0.424345 0.197187 0.88377 
-0.180838 0.0982584 0.978592 0.00118132 -0.106722 0.994288 -0.00462923 -0.107268 0.994219 
0.228598 -0.00171279 0.973519 0.296018 0.180073 0.938055 0.534859 0.269554 0.800791 
0.535625 0.325599 0.779161 0.521794 0.267417 0.810073 -0.693976 0.447344 0.564164 
-0.540373 0.609293 0.580309 -0.438373 0.365907 0.820939 -0.285281 0.216076 0.93377 
0.06221 0.125386 0.990156 0.0529371 0.239884 0.969357 0.284342 0.240234 0.928136 
0.505682 0.371593 0.778591 0.495205 0.477776 0.725604 0.468883 0.298136 0.831423 
-0.489021 0.66474 0.564782 -0.445002 0.671616 0.592373 -0.399777 0.582914 0.707382 
-0.309774 0.79187 0.526291 -0.213232 0.450765 0.8668 -0.129803 0.361831 0.923163 
-0.0519592 0.254291 0.965731 -0.00419966 0.191305 0.981522 0.00402649 0.137466 0.990498 
-0.00339779 0.11125 0.993787 0.0536574 0.176486 0.98284 0.0887193 0.254363 0.963031 
0.169838 0.357195 0.918459 0.273979 0.710568 0.648096 0.249614 0.441563 0.861809 
0.416171 0.615042 0.66972 0.381521 0.620216 0.6854 0.335799 0.584431 0.738701 
-0.291202 0.793582 0.534255 -0.232441 0.775525 0.586968 -0.211786 0.695938 0.686161 
-0.184884 0.790222 0.584266 -0.149778 0.606105 0.781155 -0.121943 0.799772 0.587787 
-0.0894583 0.539741 0.837065 -0.0808765 0.813232 0.576292 -0.0636569 0.475725 0.877288 
-0.0473023 0.82075 0.569326 -0.0399577 0.428417 0.902697 0.00157513 0.83948 0.543389 
-0.0144609 0.408115 0.912816 0.0985767 0.854313 0.510326 0.0710405 0.437009 0.896647 
0.201905 0.817104 0.539977 0.172339 0.535552 0.82673 0.249291 0.799673 0.546238 
0.227017 0.643654 0.730871 0.242272 0.749889 0.615605 0.232448 0.757099 0.610549 
0.229371 0.736387 0.636492 -0.133513 -0.150084 0.979617 -0.0134109 -0.0418519 0.999034 
0.0142504 -0.218743 0.975679 0.0864698 -0.166117 0.982307 -0.0424407 -0.0836106 0.995594 
0.088275 -0.0911092 0.991921 -0.0182385 -0.0936335 0.99544 0.0721243 -0.0944371 0.992915 
-0.164156 -0.124879 0.978498 -0.161698 -0.147458 0.975761 -0.00486776 0.00375253 0.999981 
-0.0289302 0.0108177 0.999523 -0.0395576 -0.0893605 0.995214 0.103191 -0.0321733 0.994141 
0.131899 -0.0708644 0.988727 -0.0442881 -0.07956 0.995846 -0.0439665 -0.0814249 0.995709 
0.0989164 -0.0644058 0.993009 0.0919558 -0.0258405 0.995428 0.0797705 -0.0564073 0.995216 
-0.048288 -0.0622717 0.99689 -0.00771111 -0.0872109 0.99616 0.0721363 -0.0944459 0.992913 
0.0721299 -0.0944277 0.992915 0.0636505 -0.112592 0.991601 -0.119987 -0.0735125 0.99005 
0.0441793 -0.0101977 0.998972 -0.0633894 0.0384033 0.99725 0.0293764 -0.00376082 0.999561 
0.0159562 -0.0280408 0.999479 -0.0348205 0.0243965 0.999096 0.123518 0.0325836 0.991807 
0.133894 0.040138 0.990182 -0.0838982 -0.0402933 0.995659 -0.0795398 -0.0357726 0.99619 
0.0851886 -0.0204259 0.996155 -0.00688145 -0.0326942 0.999442 0.0957346 -0.0141816 0.995306 
-0.136733 0.0455197 0.989561 -0.085717 -0.0199911 0.996119 0.0253574 -0.0703863 0.997197 
0.0166104 -0.107139 0.994105 0.0591067 -0.107572 0.992439 -0.00884015 -0.0513473 0.998642 
0.00697943 -0.0892413 0.995986 -0.0336843 0.0867022 0.995665 -0.0354267 -0.0324291 0.998846 
0.0179996 0.03823 0.999107 0.021736 -0.0730444 0.997092 0.0579881 -0.0249911 0.998004 
-0.0162957 -0.0810873 0.996574 -0.000591 -0.0869345 0.996214 -0.0405349 -0.0267303 0.99882 
0.0462824 0.10811 0.993061 -0.0183785 0.0373212 0.999134 0.142341 0.0221141 0.989571 
0.0817004 0.122364 0.989117 0.108243 0.0377037 0.993409 -0.201185 0.175186 0.96376 
-0.171344 0.227402 0.958608 -0.167233 0.166839 0.971698 -0.0810019 0.250312 0.964771 
-0.0167896 0.10098 0.994747 -0.0447646 0.23568 0.970799 0.0401405 0.0206366 0.998981 
-0.00419227 0.19127 0.981528 0.0348003 -0.00737598 0.999367 0.00410286 0.136913 0.990575 
0.0206342 0.0158077 0.999662 0.000162961 0.0877593 0.996142 0.00924043 0.0313397 0.999466 
-0.0224936 0.0474818 0.998619 -0.0175574 -0.00955286 0.9998 0.0488007 0.153517 0.98694 
0.0156572 -0.00306696 0.999873 0.0529293 0.0997465 0.993604 0.0507516 0.11377 0.99221 
0.0338349 0.0475434 0.998296 -0.0141007 0.1001 0.994878 -0.0226882 0.102282 0.994497 
-0.0229736 0.0911689 0.99557 0.0455608 0.165692 0.985125 0.0176932 0.164143 0.986278 
0.00688119 0.115942 0.993232 
