# vtk DataFile Version 4.2
vtk output
ASCII
DATASET POLYDATA
POINTS 517 float
-4.81589 -30.4315 -16.7384 2.83266 -30.4315 -15.8412 -20.113 -22.783 -16.7203 
-12.4644 -22.783 -18.4299 -4.81589 -22.783 -20.3228 2.83266 -22.783 -20.0153 
10.4812 -22.783 -19.4235 18.1298 -22.783 -19.2615 25.7783 -22.783 -18.3212 
33.4268 -22.783 -16.5843 -27.7615 -15.1345 -16.551 -20.113 -15.1345 -17.0355 
-12.4644 -15.1345 -18.9122 -4.81589 -15.1345 -21.3321 2.83266 -15.1345 -20.488 
10.4812 -15.1345 -20.6541 18.1298 -15.1345 -21.035 25.7783 -15.1345 -20.78 
33.4268 -15.1345 -20.0676 41.0754 -15.1345 -19.7471 48.7239 -15.1345 -18.8761 
-35.4101 -7.4859 -16.1771 -27.7615 -7.4859 -16.8389 -20.113 -7.4859 -16.9952 
-12.4644 -7.4859 -19.4018 -4.81589 -7.4859 -20.8144 2.83266 -7.4859 -19.2592 
10.4812 -7.4859 -21.8133 18.1298 -7.4859 -20.3258 25.7783 -7.4859 -20.0332 
33.4268 -7.4859 -20.6378 41.0754 -7.4859 -21.4956 48.7239 -7.4859 -22.4105 
56.3725 -7.4859 -20.2155 64.021 -7.4859 -16.5985 -35.4101 0.162643 -16.8863 
-27.7615 0.162643 -17.0958 -20.113 0.162643 -16.5487 -12.4644 0.162643 -17.3955 
-4.81589 0.162643 -20.1417 2.83266 0.162643 -19.8154 10.4812 0.162643 -23.1402 
18.1298 0.162643 -18.7382 25.7783 0.162643 -19.2942 33.4268 0.162643 -20.8849 
41.0754 0.162643 -22.2455 48.7239 0.162643 -21.6229 56.3725 0.162643 -20.9005 
64.021 0.162643 -19.4081 -43.0586 7.81119 -15.7431 -35.4101 7.81119 -17.5812 
-27.7615 7.81119 -17.5848 -20.113 7.81119 -16.6286 -4.81589 7.81119 -17.8172 
2.83266 7.81119 -16.4703 10.4812 7.81119 -18.9324 18.1298 7.81119 -18.9391 
25.7783 7.81119 -19.9041 33.4268 7.81119 -20.9362 41.0754 7.81119 -22.1208 
48.7239 7.81119 -21.7987 56.3725 7.81119 -20.9095 64.021 7.81119 -18.897 
-35.4101 15.4597 -17.973 -27.7615 15.4597 -18.0381 -20.113 15.4597 -17.9875 
-12.4644 15.4597 -16.5622 -4.81589 15.4597 -16.3462 10.4812 15.4597 -16.5342 
18.1298 15.4597 -19.0772 25.7783 15.4597 -20.7317 33.4268 15.4597 -20.2714 
41.0754 15.4597 -20.5809 48.7239 15.4597 -20.4723 56.3725 15.4597 -18.008 
-35.4101 23.1083 -17.4016 -27.7615 23.1083 -17.607 -20.113 23.1083 -17.3535 
-12.4644 23.1083 -15.8069 18.1298 23.1083 -16.1489 25.7783 23.1083 -17.0433 
33.4268 23.1083 -17.0891 41.0754 23.1083 -16.8429 -4.81589 -31.6947 -15.6219 
2.83266 -30.6501 -15.6219 -27.7615 -30.4315 -11.6395 -20.113 -26.3796 -15.6219 
-20.113 -30.4315 -14.0749 -12.0333 -30.4315 -15.6219 -12.4644 -30.2809 -15.6219 
-12.4644 -30.4315 -15.5511 3.69618 -30.4315 -15.6219 10.4812 -28.2814 -15.6219 
10.4812 -30.4315 -12.082 18.1298 -27.2755 -15.6219 25.7783 -25.7225 -15.6219 
33.4268 -23.7345 -15.6219 -43.0586 -22.783 -8.24656 -35.4101 -22.783 -12.619 
-26.7948 -22.783 -15.6219 -27.7615 -21.579 -15.6219 -27.7615 -22.783 -15.4317 
36.9977 -22.783 -15.6219 41.0754 -21.479 -15.6219 41.0754 -22.783 -10.7839 
48.7239 -18.8277 -15.6219 -43.0586 -15.1345 -12.4417 -34.2565 -15.1345 -15.6219 
-35.4101 -13.4111 -15.6219 -35.4101 -15.1345 -15.4433 55.896 -15.1345 -15.6219 
56.3725 -14.7916 -15.6219 56.3725 -15.1345 -15.1663 64.021 -8.29771 -15.6219 
-50.7072 -7.4859 -9.89787 -37.5788 -7.4859 -15.6219 -43.0586 -7.4859 -14.1676 
65.0269 -7.4859 -15.6219 -50.7072 0.162643 -11.7278 -41.6283 0.162643 -15.6219 
-43.0586 5.67169 -15.6219 -43.0586 0.162643 -15.3385 -12.4644 5.75005 -15.6219 
67.631 0.162643 -15.6219 -43.3312 7.81119 -15.6219 -50.7072 7.81119 -11.9909 
-43.0586 11.4655 -15.6219 -14.7413 7.81119 -15.6219 -11.123 7.81119 -15.6219 
-12.4644 10.206 -15.6219 -12.4644 7.81119 -15.1883 2.83266 12.412 -15.6219 
67.8784 7.81119 -15.6219 64.021 11.5289 -15.6219 71.6696 7.81119 -9.12327 
-50.7072 15.4597 -10.9779 -42.6754 15.4597 -15.6219 -43.0586 15.4597 -15.492 
-0.0054354 15.4597 -15.6219 -4.81589 19.5597 -15.6219 5.43508 15.4597 -15.6219 
2.83266 15.4597 -15.197 10.4812 18.1943 -15.6219 48.7239 21.0722 -15.6219 
60.4043 15.4597 -15.6219 56.3725 18.2774 -15.6219 64.021 15.4597 -10.165 
-50.7072 23.1083 -8.2153 -41.5494 23.1083 -15.6219 -43.0586 23.1083 -15.0626 
-35.4101 27.3372 -15.6219 -27.7615 27.8863 -15.6219 -20.113 27.4333 -15.6219 
-10.7839 23.1083 -15.6219 -12.4644 23.5517 -15.6219 -4.81589 23.1083 -14.908 
2.83266 23.1083 -13.596 16.3723 23.1083 -15.6219 10.4812 23.1083 -13.7822 
18.1298 23.6775 -15.6219 25.7783 24.5746 -15.6219 33.4268 24.5496 -15.6219 
44.2086 23.1083 -15.6219 41.0754 24.0227 -15.6219 48.7239 23.1083 -10.3531 
-43.0586 30.7568 -8.70647 -35.4101 30.7568 -13.534 -27.7615 30.7568 -13.9321 
-20.113 30.7568 -13.249 -12.4644 30.7568 -10.7826 -27.7615 -34.2148 -7.97337 
-20.113 -36.3032 -7.97337 -20.113 -38.0801 -1.04127 -12.4644 -36.8283 -7.97337 
-4.81589 -36.2156 -7.97337 2.83266 -34.3855 -7.97337 10.4812 -32.0601 -7.97337 
-43.0586 -23.1486 -7.97337 -35.004 -30.4315 -7.97337 -35.4101 -30.1309 -7.97337 
-35.4101 -30.4315 -7.60226 17.1018 -30.4315 -7.97337 18.1298 -30.1784 -7.97337 
25.7783 -28.3612 -7.97337 33.4268 -26.0589 -7.97337 41.0754 -23.3113 -7.97337 
-43.3906 -22.783 -7.97337 42.9987 -22.783 -7.97337 41.0754 -22.783 -4.98566 
48.7239 -21.1487 -7.97337 56.3725 -18.2746 -7.97337 -48.6191 -15.1345 -7.97337 
-50.7072 -11.6787 -7.97337 -50.7072 -15.1345 -5.07549 61.0798 -15.1345 -7.97337 
56.3725 -15.1345 -0.604164 64.021 -12.1915 -7.97337 -52.6714 -7.4859 -7.97337 
69.5761 -7.4859 -7.97337 -54.598 0.162643 -7.97337 -58.3557 0.162643 -0.713466 
71.459 0.162643 -7.97337 71.6696 2.9602 -7.97337 -54.6711 7.81119 -7.97337 
71.6696 8.30069 -7.97337 71.6696 7.81119 -5.98794 -53.4705 15.4597 -7.97337 
56.3725 20.5737 -7.97337 65.1154 15.4597 -7.97337 64.021 16.8621 -7.97337 
64.021 15.4597 -5.07291 -50.8914 23.1083 -7.97337 -50.7072 23.3574 -7.97337 
-4.81589 30.5177 -7.97337 2.83266 29.0968 -7.97337 10.4812 28.3969 -7.97337 
18.1298 27.9837 -7.97337 25.7783 27.6057 -7.97337 33.4268 26.4905 -7.97337 
41.0754 24.8265 -7.97337 50.2387 23.1083 -7.97337 48.7239 23.7342 -7.97337 
48.7239 23.1083 -5.21481 -43.7046 30.7568 -7.97337 -43.0586 31.2523 -7.97337 
-35.4101 34.8182 -7.97337 -27.7615 34.9889 -7.97337 -20.113 34.0126 -7.97337 
-5.6235 30.7568 -7.97337 -12.4644 32.5067 -7.97337 -4.81589 30.7568 -6.88062 
2.83266 30.7568 -2.97339 -20.113 -38.2418 -0.324826 -35.4101 -34.7079 -0.324826 
-21.8191 -38.0801 -0.324826 -27.7615 -37.4758 -0.324826 -18.0229 -38.0801 -0.324826 
-20.113 -38.0801 1.5764 -12.4644 -37.6371 -0.324826 -4.81589 -36.2138 -0.324826 
2.83266 -34.2269 -0.324826 10.4812 -31.7904 -0.324826 -41.2287 -30.4315 -0.324826 
-43.0586 -28.8101 -0.324826 14.7439 -30.4315 -0.324826 10.4812 -30.4315 3.37904 
18.1298 -29.3378 -0.324826 25.7783 -26.7535 -0.324826 33.4268 -24.2328 -0.324826 
-48.156 -22.783 -0.324826 -50.7072 -19.1693 -0.324826 38.1635 -22.783 -0.324826 
33.4268 -22.783 2.2894 41.0754 -21.8419 -0.324826 48.7239 -19.3953 -0.324826 
-53.1438 -15.1345 -0.324826 56.125 -15.1345 -0.324826 48.7239 -15.1345 4.86875 
56.3725 -14.9322 -0.324826 64.021 -9.73342 -0.324826 -56.671 -7.4859 -0.324826 
-58.3557 -0.552342 -0.324826 66.3278 -7.4859 -0.324826 64.021 -7.4859 2.07206 
-58.5288 0.162643 -0.324826 -58.3557 2.79355 -0.324826 -58.3557 0.162643 1.92007 
67.689 0.162643 -0.324826 64.021 0.162643 3.15332 -58.0358 7.81119 -0.324826 
56.3725 7.81119 7.28523 69.8839 7.81119 -0.324826 64.021 13.1717 -0.324826 
64.021 7.81119 3.85137 -56.5285 15.4597 -0.324826 48.7239 21.6891 -0.324826 
48.7239 15.4597 7.21802 61.1845 15.4597 -0.324826 56.3725 18.2713 -0.324826 
56.3725 15.4597 3.6754 -53.1105 23.1083 -0.324826 -50.7072 26.3152 -0.324826 
10.4812 30.6685 -0.324826 18.1298 28.4132 -0.324826 25.7783 25.6946 -0.324826 
25.7783 23.1083 6.31986 33.4268 24.2167 -0.324826 33.4268 23.1083 1.61002 
41.7399 23.1083 -0.324826 41.0754 23.2098 -0.324826 41.0754 23.1083 -0.125168 
-46.1098 30.7568 -0.324826 -43.0586 32.8431 -0.324826 -35.4101 36.0405 -0.324826 
-27.7615 36.2251 -0.324826 -20.113 35.0941 -0.324826 -12.4644 33.4065 -0.324826 
-4.81589 31.9136 -0.324826 -4.81589 30.7568 5.8974 9.66113 30.7568 -0.324826 
2.83266 31.5044 -0.324826 2.83266 30.7568 4.04094 -35.4101 -35.1306 7.32372 
-27.7615 -37.3737 7.32372 -20.113 -37.5905 7.32372 -12.4644 -36.4424 7.32372 
-4.81589 -34.479 7.32372 2.83266 -31.5384 7.32372 -41.8859 -30.4315 7.32372 
-43.0586 -29.3483 7.32372 5.96938 -30.4315 7.32372 2.83266 -30.4315 9.27183 
10.4812 -28.5731 7.32372 18.1298 -26.6047 7.32372 25.7783 -23.8677 7.32372 
-48.3569 -22.783 7.32372 -50.7072 -19.0885 7.32372 10.4812 -22.783 12.3377 
18.1298 -22.783 11.8989 27.8889 -22.783 7.32372 25.7783 -22.783 8.66564 
33.4268 -19.0096 7.32372 41.0754 -15.436 7.32372 -52.9984 -15.1345 7.32372 
-50.7072 -15.1345 11.7831 25.7783 -15.1345 14.1927 33.4268 -15.1345 10.2907 
41.8136 -15.1345 7.32372 41.0754 -15.1345 7.56631 48.7239 -11.2969 7.32372 
56.3725 -7.88354 7.32372 -56.0914 -7.4859 7.32372 33.4268 -7.4859 13.2316 
41.0754 -7.4859 11.46 48.7239 -7.4859 9.54739 56.8829 -7.4859 7.32372 
56.3725 -7.4859 7.58766 -57.9355 0.162643 7.32372 33.4268 0.162643 14.1461 
41.0754 0.162643 12.7556 48.7239 0.162643 10.6478 57.3302 0.162643 7.32372 
56.3725 7.18446 7.32372 56.3725 0.162643 7.74052 -57.355 7.81119 7.32372 
33.4268 7.81119 14.2142 41.0754 7.81119 12.6074 56.2949 7.81119 7.32372 
48.7239 15.3109 7.32372 48.7239 7.81119 10.4509 -55.3409 15.4597 7.32372 
25.7783 22.5875 7.32372 25.7783 15.4597 13.5629 33.4268 19.5463 7.32372 
33.4268 15.4597 11.0849 48.4081 15.4597 7.32372 41.0754 17.6539 7.32372 
41.0754 15.4597 8.97086 -51.4962 23.1083 7.32372 -50.7072 24.0407 7.32372 
-50.7072 23.1083 8.85286 -4.81589 30.4631 7.32372 2.83266 30.1064 7.32372 
2.83266 23.1083 14.8767 10.4812 29.8786 7.32372 10.4812 23.1083 13.4793 
25.0767 23.1083 7.32372 18.1298 27.1606 7.32372 18.1298 23.1083 12.011 
-43.6901 30.7568 7.32372 -43.0586 31.2032 7.32372 -43.0586 30.7568 8.29526 
-35.4101 34.2115 7.32372 -35.4101 30.7568 14.7479 -27.7615 34.8437 7.32372 
-20.113 34.0243 7.32372 -5.98933 30.7568 7.32372 -12.4644 32.355 7.32372 
-12.4644 30.7568 12.2767 -35.4101 -32.2877 14.9723 -27.7615 -35.0989 14.9723 
[...]
POINT_DATA 517
SCALARS ImageScalars float
LOOKUP_TABLE default
0 0 0 0 0 0 0 0 0 
0 0 0 0 0 0 0 0 0 
0 0 0 0 0 0 0 0 0 
0 0 0 0 0 0 0 0 0 
0 0 0 0 0 0 0 0 0 
0 0 0 0 0 0 0 0 0 
0 0 0 0 0 0 0 0 0 
0 0 0 0 0 0 0 0 0 
0 0 0 0 0 0 0 0 0 
0 0 0 0 0 0 0 0 0 
0 0 0 0 0 0 0 0 0 
0 0 0 0 0 0 0 0 0 
0 0 0 0 0 0 0 0 0 
0 0 0 0 0 0 0 0 0 
0 0 0 0 0 0 0 0 0 
0 0 0 0 0 0 0 0 0 
0 0 0 0 0 0 0 0 0 
0 0 0 0 0 0 0 0 0 
0 0 0 0 0 0 0 0 0 
0 0 0 0 0 0 0 0 0 
0 0 0 0 0 0 0 0 0 
0 0 0 0 0 0 0 0 0 
0 0 0 0 0 0 0 0 0 
0 0 0 0 0 0 0 0 0 
0 0 0 0 0 0 0 0 0 
0 0 0 0 0 0 0 0 0 
0 0 0 0 0 0 0 0 0 
0 0 0 0 0 0 0 0 0 
0 0 0 0 0 0 0 0 0 
0 0 0 0 0 0 0 0 0 
0 0 0 0 0 0 0 0 0 
0 0 0 0 0 0 0 0 0 
0 0 0 0 0 0 0 0 0 
0 0 0 0 0 0 0 0 0 
0 0 0 0 0 0 0 0 0 
0 0 0 0 0 0 0 0 0 
0 0 0 0 0 0 0 0 0 
0 0 0 0 0 0 0 0 0 
0 0 0 0 0 0 0 0 0 
0 0 0 0 0 0 0 0 0 
0 0 0 0 0 0 0 0 0 
0 0 0 0 0 0 0 0 0 
0 0 0 0 0 0 0 0 0 
0 0 0 0 0 0 0 0 0 
0 0 0 0 0 0 0 0 0 
0 0 0 0 0 0 0 0 0 
0 0 0 0 0 0 0 0 0 
0 0 0 0 0 0 0 0 0 
0 0 0 0 0 0 0 0 0 
0 0 0 0 0 0 0 0 0 
0 0 0 0 0 0 0 0 0 
0 0 0 0 0 0 0 0 0 
0 0 0 0 0 0 0 0 0 
0 0 0 0 0 0 0 0 0 
0 0 0 0 0 0 0 0 0 
0 0 0 0 0 0 0 0 0 
0 0 0 0 0 0 0 0 0 
0 0 0 0 
NORMALS Normals float
0.0247347 0.6187 0.785238 -0.159962 0.713519 0.682131 0.191819 0.171536 0.966323 
0.235504 0.195161 0.952077 0.10292 0.263201 0.959235 -0.0551886 0.247313 0.967363 
-0.0500722 0.368847 0.92814 -0.0697667 0.469829 0.879996 -0.159665 0.584513 0.79552 
-0.228307 0.714103 0.661765 0.109276 0.0951268 0.989449 0.139114 0.0185075 0.990103 
0.299266 0.0603009 0.952262 0.0903946 0.0323212 0.995381 -0.0455042 -0.0478549 0.997817 
0.0358867 0.144351 0.988876 0.00702996 0.0560975 0.998401 -0.0636376 0.0921984 0.993705 
-0.0717013 0.217502 0.973423 -0.0789279 0.358075 0.930351 -0.254025 0.57982 0.774132 
0.161967 0.0907647 0.982613 0.052611 0.034872 0.998006 0.142248 -0.031242 0.989338 
0.265564 -0.0616242 0.962122 -0.0208996 -0.0780841 0.996728 0.0681185 -0.0535199 0.996241 
0.0686899 0.153301 0.985789 -0.113878 -0.139253 0.983687 0.0212751 -0.102679 0.994487 
0.0909993 0.0546825 0.994349 0.107728 0.166837 0.980082 -0.0803516 0.169994 0.982164 
-0.25865 0.321905 0.910756 -0.606193 0.515007 0.60605 0.109051 0.0909695 0.989865 
-0.0214393 0.0486039 0.998588 0.000263006 -0.024282 0.999705 0.249629 -0.275469 0.928333 
0.104766 -0.188823 0.976407 0.17835 -0.148385 0.972714 -0.0725311 -0.148567 0.986239 
-0.214591 -0.0971894 0.971856 0.133854 -0.00840336 0.990965 0.189348 0.0191664 0.981723 
0.0480544 0.0393902 0.998068 -0.0818618 -0.0297378 0.9962 -0.118837 0.0496168 0.991673 
-0.486238 0.080315 0.870128 0.318591 0.0107898 0.947831 0.112567 0.071157 0.991093 
-0.0619177 0.061371 0.996193 -0.145403 0.0919522 0.98509 0.0910353 -0.245296 0.965165 
0.0527605 -0.301758 0.951923 0.133818 -0.399082 0.907098 0.0586472 0.019842 0.998082 
0.133858 0.0922818 0.986695 0.137488 -0.0391827 0.989728 0.0531493 -0.102566 0.993305 
-0.0643976 -0.0485657 0.996742 -0.171232 -0.215393 0.961398 -0.453077 -0.338986 0.824506 
0.150646 -0.00787895 0.988556 0.000883946 0.00294421 0.999995 -0.0996836 0.0470199 0.993908 
-0.10905 0.0355125 0.993402 -0.0879588 -0.173101 0.980968 0.250387 -0.267795 0.930372 
0.247383 -0.149021 0.957389 0.0766072 -0.154811 0.984969 -0.00944767 -0.212004 0.977223 
0.016191 -0.303962 0.952547 -0.177062 -0.44436 0.878176 -0.372574 -0.511053 0.774605 
0.160428 -0.237831 0.957966 -0.00564067 -0.207121 0.978299 -0.109068 -0.232613 0.966434 
-0.160387 -0.247847 0.955431 0.188187 -0.614215 0.766372 0.056064 -0.669301 0.740873 
-0.0112143 -0.711768 0.702325 -0.178641 -0.805037 0.565688 0.00115266 0.684667 0.728855 
-0.163387 0.724295 0.669852 0.326514 0.578464 0.747508 0.197274 0.297184 0.934219 
0.208576 0.481879 0.851051 0.14164 0.507973 0.849648 0.150199 0.494024 0.856376 
0.147747 0.502681 0.851753 -0.162652 0.72794 0.666069 -0.147781 0.711951 0.686503 
-0.217656 0.889896 0.400888 -0.136704 0.765387 0.628884 -0.195658 0.776659 0.598764 
-0.245975 0.766493 0.593283 0.576398 0.509422 0.638949 0.374215 0.391775 0.840521 
0.234448 0.251784 0.938956 0.221974 0.237252 0.945748 0.241759 0.264338 0.933637 
-0.26656 0.792982 0.547837 -0.266628 0.794998 0.544874 -0.294081 0.941746 0.163191 
-0.328254 0.747894 0.576979 0.470934 0.313986 0.824399 0.202363 0.189433 0.960814 
0.205767 0.179112 0.96207 0.220022 0.207781 0.953109 -0.444879 0.655554 0.610189 
-0.450779 0.645898 0.616129 -0.459291 0.67515 0.577256 -0.63566 0.546609 0.545119 
0.643326 0.277418 0.713562 0.214006 0.103922 0.971289 0.362494 0.164499 0.917354 
-0.63432 0.525378 0.567112 0.60378 0.117867 0.788389 0.259365 0.0953954 0.961057 
0.311961 0.0345954 0.949465 0.29387 0.0970492 0.950906 0.1146 -0.0819218 0.990028 
-0.679655 0.115804 0.724333 0.326429 0.0098144 0.945171 0.623291 -0.0371617 0.781106 
0.348632 -0.00996237 0.937207 -0.000723554 0.0189171 0.999821 0.0713309 -0.0545808 0.995958 
0.012182 0.00255266 0.999923 0.0671826 -0.0168355 0.997599 0.0204904 -0.205671 0.978407 
-0.624327 -0.365771 0.690238 -0.600798 -0.495554 0.62727 -0.887542 -0.425468 0.176765 
0.691949 -0.183271 0.698297 0.369636 -0.0323909 0.928612 0.382656 -0.0354709 0.92321 
-0.0285754 -0.161982 0.98638 -0.110109 -0.26517 0.957894 0.0892071 -0.195927 0.976553 
0.00559628 -0.15781 0.987454 0.219423 -0.346275 0.912112 -0.302364 -0.759446 0.576037 
-0.52082 -0.58897 0.617949 -0.386865 -0.722031 0.573591 -0.713933 -0.670392 0.202172 
0.756144 -0.457347 0.46806 0.372306 -0.256854 0.89186 0.435115 -0.273537 0.857819 
0.179885 -0.430645 0.884413 0.00106996 -0.475403 0.879768 -0.117199 -0.433524 0.893489 
-0.154195 -0.270948 0.950164 -0.165072 -0.270222 0.948542 -0.134288 -0.373146 0.918003 
-0.0702979 -0.440675 0.89491 0.183168 -0.598936 0.779567 0.116806 -0.557853 0.821679 
0.182216 -0.651054 0.736835 0.0486805 -0.755673 0.653137 -0.041554 -0.803874 0.593346 
-0.254843 -0.826945 0.501216 -0.185805 -0.867071 0.462238 -0.303945 -0.936446 0.175177 
0.5313 -0.733163 0.424489 0.21556 -0.649763 0.728932 -0.0115854 -0.683674 0.729696 
-0.137163 -0.699351 0.701495 -0.231981 -0.815747 0.52985 0.315915 0.752761 0.577537 
0.145636 0.886313 0.43959 0.01935 0.994946 0.0985328 -0.00798041 0.947084 0.320888 
-0.152584 0.962958 0.22233 -0.258615 0.948876 0.180977 -0.259676 0.952185 0.160972 
0.581652 0.517229 0.627818 0.468843 0.643909 0.604622 0.473199 0.636352 0.609212 
0.478314 0.653071 0.587124 -0.230952 0.968472 0.0934009 -0.227974 0.969953 0.0849605 
-0.266188 0.962916 0.0439961 -0.308158 0.951199 0.0161068 -0.284334 0.958719 0.00351321 
0.587665 0.512177 0.626358 -0.300553 0.953712 0.0101144 -0.287567 0.949474 -0.125719 
-0.356012 0.934014 0.0295455 -0.439432 0.898275 -0.00160126 0.652988 0.403076 0.641199 
0.689043 0.354721 0.631975 0.770628 0.446682 0.454541 -0.628429 0.777653 0.0182423 
-0.490912 0.72045 -0.489855 -0.716317 0.696308 0.0452138 0.725074 0.281456 0.62853 
-0.768271 0.64012 0.00227046 0.784663 0.109859 0.610111 0.975745 0.0884547 0.200243 
-0.99383 0.110119 0.0132526 -0.997517 -0.0598167 0.0371597 0.813379 -0.0626212 0.578354 
-0.890774 -0.448194 0.0751236 -0.889235 -0.440482 -0.123433 0.809569 -0.21812 0.544998 
-0.348202 -0.937419 -0.000688754 -0.732702 -0.67943 0.0390188 -0.68361 -0.728415 0.0457028 
-0.710245 -0.680574 -0.179918 0.760581 -0.460567 0.457596 0.756822 -0.468477 0.455796 
-0.201809 -0.897542 0.392035 -0.122706 -0.854195 0.505267 -0.0667039 -0.877259 0.47536 
-0.049297 -0.96624 0.252882 -0.0983906 -0.993953 0.048751 -0.177712 -0.983681 -0.0281214 
-0.173392 -0.983543 -0.050787 -0.277747 -0.960557 0.0136972 -0.271498 -0.962316 0.0154077 
-0.285577 -0.947893 -0.141225 0.553313 -0.735613 0.390793 0.531225 -0.752905 0.388502 
0.232107 -0.895024 0.380865 -0.0541313 -0.927381 0.370181 -0.160572 -0.934681 0.317157 
-0.204488 -0.902056 0.380106 -0.22626 -0.912378 0.341134 -0.190134 -0.92517 0.328495 
-0.0995017 -0.976942 0.188903 0.0085171 0.997539 0.0695921 0.47024 0.852026 0.230057 
0.0468993 0.994898 0.0893228 0.191115 0.967871 0.163403 -0.0286221 0.998643 0.043509 
-0.00846893 0.999862 0.0142657 -0.129405 0.991222 -0.0270656 -0.216806 0.970717 -0.103461 
-0.277239 0.946827 -0.163268 -0.298694 0.936892 -0.181702 0.621973 0.747398 0.233548 
0.667731 0.708127 0.229546 -0.299863 0.934658 -0.191042 -0.292923 0.892181 -0.343817 
-0.303115 0.931722 -0.20004 -0.305745 0.916731 -0.257147 -0.295713 0.888248 -0.351525 
0.77022 0.604108 0.204485 0.82114 0.537173 0.192805 -0.287194 0.891189 -0.351142 
-0.324257 0.83625 -0.442203 -0.281945 0.885278 -0.369851 -0.377728 0.825627 -0.419121 
0.861188 0.470516 0.192276 -0.485825 0.712522 -0.506248 -0.340311 0.63606 -0.692543 
-0.488014 0.709028 -0.50904 -0.649306 0.560766 -0.513754 0.933589 0.313455 0.173661 
0.977466 0.109284 0.180603 -0.684603 0.475461 -0.552499 -0.644246 0.442176 -0.624042 
0.979505 0.0874858 0.181426 0.985427 0.013966 0.169527 0.994983 0.0873318 0.0488139 
-0.722615 0.159854 -0.672513 -0.668468 0.0858222 -0.738773 0.981893 -0.121875 0.145027 
-0.415924 -0.178807 -0.891647 -0.66674 -0.362406 -0.651245 -0.631137 -0.539668 -0.557158 
-0.594359 -0.308352 -0.742736 0.947986 -0.302746 0.0983188 -0.293722 -0.845084 -0.446721 
-0.254927 -0.609199 -0.750926 -0.554141 -0.664026 -0.501994 -0.389431 -0.805529 -0.446617 
-0.434634 -0.625417 -0.648033 0.852542 -0.521263 0.0381631 0.791682 -0.610582 0.0206983 
-0.200914 -0.975364 0.0910987 -0.306321 -0.950873 -0.0448165 -0.254703 -0.923746 -0.28604 
-0.397232 -0.785224 -0.475005 -0.154973 -0.905268 -0.395566 -0.168696 -0.87522 -0.453356 
-0.145828 -0.921169 -0.360806 -0.132711 -0.925643 -0.354362 -0.133744 -0.922794 -0.361336 
0.596846 -0.802355 0.00144431 0.47069 -0.882256 -0.00867045 0.224513 -0.973485 -0.0438331 
-0.0626185 -0.997964 -0.0121477 -0.174978 -0.984572 -0.000233712 -0.217379 -0.97605 -0.00850583 
-0.113956 -0.99347 -0.0056356 -0.129918 -0.961967 -0.240294 -0.188215 -0.978214 0.0875954 
-0.0787519 -0.99543 0.0540179 -0.0546129 -0.979389 -0.194461 0.444819 0.886895 -0.124717 
0.134756 0.981262 -0.137717 -0.0591962 0.985869 -0.156713 -0.194651 0.962115 -0.19091 
-0.295478 0.909358 -0.292849 -0.332774 0.846203 -0.416175 0.650203 0.747512 -0.135877 
0.688948 0.710847 -0.141586 -0.313068 0.830256 -0.461155 -0.368195 0.799692 -0.474262 
-0.271451 0.78169 -0.561494 -0.256786 0.827483 -0.499332 -0.37397 0.769923 -0.517073 
0.804526 0.574447 -0.150829 0.838269 0.512081 -0.187293 -0.221083 0.540333 -0.811888 
-0.1779 0.669028 -0.721632 -0.377261 0.747625 -0.546562 -0.373416 0.72604 -0.577431 
-0.369135 0.635103 -0.678515 -0.291868 0.573285 -0.765609 0.868158 0.444641 -0.220445 
0.799676 0.397467 -0.450042 -0.357268 0.327331 -0.874765 -0.351939 0.466415 -0.81154 
-0.293024 0.565951 -0.770608 -0.290378 0.561878 -0.774579 -0.285331 0.477116 -0.831232 
-0.388465 0.374256 -0.842038 0.920075 0.28865 -0.264845 -0.226213 0.223445 -0.948103 
-0.20858 0.289004 -0.934329 -0.256574 0.331881 -0.907758 -0.401364 0.360406 -0.84203 
-0.385054 0.356376 -0.85131 0.957259 0.0810187 -0.277654 -0.204516 0.058413 -0.977119 
-0.218327 0.0646954 -0.973729 -0.306913 0.0432141 -0.950756 -0.395424 -0.00986304 -0.918446 
-0.411855 -0.163545 -0.896453 -0.368438 -0.0145477 -0.929538 0.948068 -0.155311 -0.27757 
-0.198462 -0.171856 -0.964924 -0.239643 -0.219325 -0.945763 -0.414778 -0.177996 -0.892343 
-0.255946 -0.599921 -0.758015 -0.296976 -0.181405 -0.937495 0.892612 -0.333723 -0.303106 
-0.409687 -0.752913 -0.515052 -0.316568 -0.450014 -0.835028 -0.224208 -0.719329 -0.657493 
-0.251495 -0.537507 -0.804883 -0.252622 -0.605116 -0.754994 -0.208713 -0.637799 -0.741385 
-0.216196 -0.543017 -0.811413 0.771305 -0.563298 -0.296284 0.7503 -0.586048 -0.305938 
0.7419 -0.567037 -0.357845 -0.135485 -0.944791 -0.298353 -0.0349834 -0.91663 -0.398204 
-0.256216 -0.633047 -0.730482 -0.179579 -0.903903 -0.388214 -0.14667 -0.526197 -0.837618 
-0.413404 -0.761473 -0.499256 -0.400955 -0.827382 -0.393286 -0.320584 -0.629861 -0.707461 
0.509979 -0.80362 -0.306785 0.485688 -0.819918 -0.303054 0.49373 -0.802881 -0.334085 
0.224423 -0.923288 -0.311728 0.259528 -0.800826 -0.539743 -0.0148654 -0.966666 -0.255611 
-0.153931 -0.971792 -0.178675 -0.14836 -0.947897 -0.281924 -0.23 -0.949501 -0.213418 
-0.279071 -0.87644 -0.392393 0.469457 0.728188 -0.499352 0.179741 0.868474 -0.462003 
-0.0385394 0.896366 -0.441637 -0.262769 0.848499 -0.459349 -0.406633 0.748555 -0.523751 
0.543686 0.669411 -0.506254 0.664338 0.520346 -0.536559 0.479067 0.639655 -0.601113 
0.201263 0.583207 -0.786996 -0.0525554 0.582324 -0.811256 -0.248313 0.626871 -0.738494 
-0.414115 0.733453 -0.539032 -0.407449 0.728483 -0.550724 -0.500853 0.511096 -0.698518 
0.694921 0.468965 -0.545121 0.637589 0.431024 -0.638513 0.359955 0.270858 -0.892787 
-0.336269 0.329658 -0.882184 -0.416092 0.464301 -0.781852 -0.514078 0.431576 -0.74126 
-0.17738 0.462284 -0.868809 -0.133108 0.441527 -0.88732 0.691315 0.325323 -0.645173 
0.718695 0.263971 -0.64327 0.514456 0.213892 -0.830413 0.299379 0.11159 -0.947586 
-0.418191 0.285547 -0.86231 -0.179005 0.442417 -0.878763 -0.276791 0.328907 -0.902888 
-0.127747 0.348868 -0.928424 -0.329336 0.16568 -0.929563 0.729597 0.21576 -0.64895 
0.679377 0.208897 -0.703426 0.405742 0.145883 -0.90227 -0.0893012 0.0347414 -0.995399 
-0.170926 0.0458979 -0.984214 -0.218009 0.255012 -0.942041 -0.283035 0.164878 -0.944831 
-0.304851 0.11905 -0.94493 -0.31911 0.104697 -0.941917 0.725631 0.0726063 -0.684243 
0.615359 0.0681783 -0.785293 0.348295 0.0490279 -0.936102 -0.168801 0.0902287 -0.981512 
-0.135577 0.0388357 -0.990005 -0.300993 0.0151829 -0.953505 -0.254143 0.0490156 -0.965924 
-0.309693 0.0382133 -0.950069 0.74026 -0.116845 -0.66209 0.62631 -0.106544 -0.772259 
0.411584 -0.0730709 -0.908438 -0.28983 -0.178 -0.94038 -0.285518 -0.160866 -0.944776 
-0.229643 -0.150544 -0.961562 -0.292295 -0.257821 -0.920919 -0.274815 -0.131471 -0.952466 
0.714962 -0.295564 -0.633618 0.706798 -0.31543 -0.633199 0.705483 -0.295251 -0.644299 
0.457111 -0.205796 -0.865273 -0.25954 -0.629798 -0.732116 -0.343157 -0.431038 -0.834535 
-0.171975 -0.461277 -0.87043 -0.264981 -0.423323 -0.866362 -0.269782 -0.39797 -0.876834 
-0.235319 -0.434483 -0.869396 -0.219352 -0.365689 -0.90452 0.585415 -0.523022 -0.619465 
0.516542 -0.603189 -0.607739 0.505932 -0.480914 -0.716069 0.261317 -0.793524 -0.549576 
0.244264 -0.420908 -0.873597 0.0372201 -0.369615 -0.928439 -0.0918179 -0.387156 -0.917431 
-0.298768 -0.80243 -0.51657 -0.19545 -0.456989 -0.867733 -0.259922 -0.632905 -0.729296 
-0.299041 -0.752801 -0.5864 -0.287514 -0.634146 -0.717771 0.247375 -0.801217 -0.544846 
0.0865941 -0.859316 -0.504061 0.0822502 -0.802652 -0.59075 -0.239976 -0.831861 -0.500419 
-0.133438 -0.856917 -0.497883 -0.136867 -0.79095 -0.596376 0.176626 0.356423 -0.917478 
-0.0487526 0.380622 -0.923445 -0.170837 0.248337 -0.95349 0.265075 0.225524 -0.937483 
0.16008 0.188256 -0.968986 -0.0506707 0.170009 -0.984139 -0.206839 0.218659 -0.953628 
-0.157229 0.179106 -0.971185 -0.189334 0.0912616 -0.977662 0.281727 0.103272 -0.953921 
0.286212 0.105792 -0.952308 0.106201 0.0259707 -0.994006 -0.0470837 -0.00479256 -0.998879 
-0.0974185 0.00684939 -0.99522 -0.18896 0.0735623 -0.979226 -0.122285 0.0451887 -0.991466 
-0.169617 0.0592227 -0.983729 0.278035 0.102427 -0.955094 0.222729 0.0760947 -0.971906 
0.0370652 0.0194103 -0.999124 -0.0698088 0.0190115 -0.997379 -0.0907884 0.0385024 -0.995126 
-0.0993756 0.0594284 -0.993274 -0.104136 0.0443405 -0.993574 0.270811 0.0551201 -0.961053 
0.165984 0.0594294 -0.984336 0.0567018 0.0414963 -0.997528 -0.00694443 0.0339362 -0.9994 
-0.078029 0.0494173 -0.995726 -0.190305 0.101392 -0.976475 -0.197711 0.106083 -0.974503 
-0.214825 0.0595819 -0.974833 0.341249 -0.0517504 -0.938547 0.208086 -0.00811532 -0.978077 
0.00889289 -0.0120995 -0.999887 -0.0617902 -0.0431445 -0.997156 -0.0275922 -0.0859053 -0.995921 
-0.043506 -0.00988197 -0.999004 -0.251373 -0.00830914 -0.967855 -0.295623 -0.183933 -0.93743 
-0.233732 0.0455697 -0.971233 0.290774 -0.180292 -0.939652 0.222597 -0.276319 -0.934932 
0.211631 -0.178717 -0.960871 0.0342985 -0.340939 -0.93946 0.0209511 -0.157128 -0.987356 
-0.085722 -0.308054 -0.947499 -0.0798043 -0.157388 -0.984307 -0.0716735 -0.234723 -0.969416 
-0.0466242 -0.191183 -0.980447 -0.188594 -0.360246 -0.913595 -0.0962748 -0.35043 -0.931628 
-0.0663807 -0.307406 -0.94926 
