# vtk DataFile Version 4.2
vtk output
ASCII
DATASET POLYDATA
POINTS 511 float
6.00939 -36.7372 -20.7061 -25.0095 -28.9825 -21.4561 -17.2547 -28.9825 -22.867 
-9.50004 -28.9825 -23.2151 -1.74532 -28.9825 -23.7555 6.00939 -28.9825 -24.0934 
13.7641 -28.9825 -23.3851 21.5188 -28.9825 -20.9418 -32.7642 -21.2277 -22.7452 
-25.0095 -21.2277 -24.7845 -17.2547 -21.2277 -25.2237 -9.50004 -21.2277 -24.667 
-1.74532 -21.2277 -24.3286 6.00939 -21.2277 -24.612 13.7641 -21.2277 -24.5937 
21.5188 -21.2277 -23.2989 -40.5189 -13.473 -20.909 -32.7642 -13.473 -25.4361 
-25.0095 -13.473 -26.8119 -17.2547 -13.473 -26.7184 -9.50004 -13.473 -25.5765 
-1.74532 -13.473 -24.3408 6.00939 -13.473 -24.158 13.7641 -13.473 -24.5067 
21.5188 -13.473 -23.9471 29.2735 -13.473 -22.6051 -40.5189 -5.71831 -23.0586 
-32.7642 -5.71831 -26.9766 -25.0095 -5.71831 -27.8511 -17.2547 -5.71831 -27.7811 
-9.50004 -5.71831 -26.7146 -1.74532 -5.71831 -25.2895 6.00939 -5.71831 -24.3246 
13.7641 -5.71831 -23.885 21.5188 -5.71831 -23.5833 29.2735 -5.71831 -22.5052 
-40.5189 2.0364 -23.1081 -32.7642 2.0364 -26.8322 -25.0095 2.0364 -27.9129 
-17.2547 2.0364 -28.2263 -9.50004 2.0364 -28.1121 -1.74532 2.0364 -26.5694 
6.00939 2.0364 -24.0143 13.7641 2.0364 -22.8475 21.5188 2.0364 -22.591 
29.2735 2.0364 -21.7631 -40.5189 9.79111 -21.3138 -32.7642 9.79111 -25.2189 
-25.0095 9.79111 -26.671 -17.2547 9.79111 -27.2518 -9.50004 9.79111 -27.8858 
-1.74532 9.79111 -26.059 6.00939 9.79111 -22.1217 13.7641 9.79111 -21.6227 
21.5188 9.79111 -22.0972 29.2735 9.79111 -21.8006 -32.7642 17.5458 -22.4532 
-25.0095 17.5458 -24.1673 -17.2547 17.5458 -24.3 -9.50004 17.5458 -24.0477 
-1.74532 17.5458 -21.6804 13.7641 17.5458 -20.889 21.5188 17.5458 -21.6725 
29.2735 17.5458 -21.0041 -25.0095 25.3005 -20.8878 -17.2547 25.3005 -20.8159 
6.00939 -36.8928 -20.5846 -25.0095 -30.1945 -20.5846 -25.0095 -36.7372 -13.0662 
-17.2547 -32.9185 -20.5846 -17.2547 -36.7372 -17.4121 -9.50004 -35.0037 -20.5846 
-9.50004 -36.7372 -19.5676 2.81382 -36.7372 -20.5846 -1.74532 -36.3772 -20.5846 
-1.74532 -36.7372 -20.3935 6.84739 -36.7372 -20.5846 13.7641 -34.8514 -20.5846 
13.7641 -36.7372 -19.1933 21.5188 -29.5146 -20.5846 -26.8354 -28.9825 -20.5846 
-32.7642 -24.5647 -20.5846 -32.7642 -28.9825 -16.1579 22.0936 -28.9825 -20.5846 
29.2735 -28.9825 -13.6687 -35.9267 -21.2277 -20.5846 -40.5189 -14.1414 -20.5846 
-40.5189 -21.2277 -15.0219 28.8317 -21.2277 -20.5846 29.2735 -20.6837 -20.5846 
29.2735 -21.2277 -20.3748 37.0282 -21.2277 -14.0184 -40.8609 -13.473 -20.5846 
34.202 -13.473 -20.5846 37.0282 -13.473 -19.0493 -43.1272 -5.71831 -20.5846 
36.0556 -5.71831 -20.5846 37.0282 -5.71831 -20.2686 44.783 -5.71831 -13.6951 
-43.2643 2.0364 -20.5846 33.3959 2.0364 -20.5846 37.0282 2.0364 -19.3951 
44.783 2.0364 -12.9866 -41.4098 9.79111 -20.5846 -40.5189 11.9487 -20.5846 
6.00939 14.4961 -20.5846 32.3827 9.79111 -20.5846 37.0282 9.79111 -18.3675 
-36.7226 17.5458 -20.5846 -40.5189 17.5458 -18.1635 -32.7642 21.8499 -20.5846 
-9.50004 23.9379 -20.5846 2.06423 17.5458 -20.5846 -1.74532 19.6064 -20.5846 
11.7867 17.5458 -20.5846 6.00939 17.5458 -19.6916 13.7641 18.9298 -20.5846 
21.5188 21.7641 -20.5846 30.2279 17.5458 -20.5846 29.2735 19.1985 -20.5846 
37.0282 17.5458 -17.1356 -26.3381 25.3005 -20.5846 -32.7642 25.3005 -18.9267 
-25.0095 25.8665 -20.5846 -15.2813 25.3005 -20.5846 -17.2547 25.8072 -20.5846 
-9.50004 25.3005 -19.8949 -1.74532 25.3005 -18.143 6.00939 25.3005 -17.4983 
13.7641 25.3005 -18.9455 21.5188 25.3005 -19.5647 29.2735 25.3005 -18.7762 
37.0282 25.3005 -13.9067 -32.7642 33.0552 -13.7063 -25.0095 33.0552 -16.2228 
-17.2547 33.0552 -16.9474 -9.50004 33.0552 -16.1599 -1.74532 33.0552 -15.0444 
6.00939 33.0552 -14.4745 13.7641 33.0552 -14.3221 21.5188 33.0552 -13.8661 
-25.0095 -36.8909 -12.8299 -17.2547 -40.1629 -12.8299 -9.50004 -42.114 -12.8299 
-1.74532 -43.187 -12.8299 -1.74532 -44.4919 -6.0909 6.00939 -43.0319 -12.8299 
13.7641 -41.0621 -12.8299 -25.2698 -36.7372 -12.8299 -32.7642 -31.5666 -12.8299 
21.0399 -36.7372 -12.8299 21.5188 -36.3946 -12.8299 21.5188 -36.7372 -11.6942 
29.2735 -29.6016 -12.8299 -35.6107 -28.9825 -12.8299 -40.5189 -23.1668 -12.8299 
29.9936 -28.9825 -12.8299 37.0282 -22.3327 -12.8299 -41.8618 -21.2277 -12.8299 
38.0837 -21.2277 -12.8299 -45.5595 -13.473 -12.8299 43.4822 -13.473 -12.8299 
44.783 -8.65343 -12.8299 44.783 -13.473 -10.4768 -47.3565 -5.71831 -12.8299 
-48.2736 -5.71831 -6.06126 45.4655 -5.71831 -12.8299 -47.6656 2.0364 -12.8299 
-48.2736 2.0364 -8.64785 44.9123 2.0364 -12.8299 44.783 2.87473 -12.8299 
-46.6531 9.79111 -12.8299 43.5463 9.79111 -12.8299 44.783 9.79111 -10.7526 
-44.3303 17.5458 -12.8299 -40.5189 25.119 -12.8299 41.8105 17.5458 -12.8299 
44.783 17.5458 -7.27183 -40.3879 25.3005 -12.8299 -40.5189 25.3005 -12.5275 
29.2735 31.9176 -12.8299 38.0695 25.3005 -12.8299 37.0282 26.4441 -12.8299 
-33.6768 33.0552 -12.8299 -32.7642 33.7761 -12.8299 -25.0095 36.7513 -12.8299 
-17.2547 37.5174 -12.8299 -9.50004 36.7968 -12.8299 -1.74532 35.6931 -12.8299 
6.00939 34.9997 -12.8299 13.7641 34.6018 -12.8299 25.2613 33.0552 -12.8299 
21.5188 33.9513 -12.8299 29.2735 33.0552 -10.2224 -17.2547 40.81 -5.14696 
-1.74532 -44.6675 -5.07521 -25.0095 -38.8415 -5.07521 -17.2547 -42.0847 -5.07521 
-3.67554 -44.4919 -5.07521 -9.50004 -43.9488 -5.07521 3.13005 -44.4919 -5.07521 
-1.74532 -44.4919 -4.36095 6.00939 -44.386 -5.07521 13.7641 -42.5466 -5.07521 
21.5188 -38.6618 -5.07521 -28.5349 -36.7372 -5.07521 -32.7642 -33.7519 -5.07521 
23.9688 -36.7372 -5.07521 29.2735 -32.5368 -5.07521 -37.9124 -28.9825 -5.07521 
-40.5189 -25.7486 -5.07521 33.7491 -28.9825 -5.07521 37.0282 -26.0781 -5.07521 
-43.5343 -21.2277 -5.07521 41.6868 -21.2277 -5.07521 44.783 -17.3338 -5.07521 
-46.804 -13.473 -5.07521 -48.2736 -6.38068 -5.07521 47.0297 -13.473 -5.07521 
-48.4036 -5.71831 -5.07521 -48.2736 -5.71831 -4.2913 48.7693 -5.71831 -5.07521 
-48.7733 2.0364 -5.07521 -48.2736 6.97977 -5.07521 -48.2736 2.0364 -1.69468 
48.525 2.0364 -5.07521 -47.9868 9.79111 -5.07521 47.3531 9.79111 -5.07521 
-45.9196 17.5458 -5.07521 45.7022 17.5458 -5.07521 44.783 19.6205 -5.07521 
-42.7384 25.3005 -5.07521 -40.5189 28.6389 -5.07521 41.7129 25.3005 -5.07521 
37.0282 30.4152 -5.07521 -36.9208 33.0552 -5.07521 -32.7642 36.4602 -5.07521 
-25.0095 39.8641 -5.07521 -9.50004 40.4118 -5.07521 -1.74532 39.782 -5.07521 
6.00939 39.2826 -5.07521 13.7641 38.4431 -5.07521 21.5188 37.1003 -5.07521 
32.8911 33.0552 -5.07521 29.2735 34.8595 -5.07521 -17.4506 40.81 -5.07521 
-16.8113 40.81 -5.07521 -17.2547 40.81 -4.88613 -25.0095 -37.5754 2.6795 
-17.2547 -40.607 2.6795 -9.50004 -42.0368 2.6795 -1.74532 -42.5712 2.6795 
6.00939 -42.4146 2.6795 13.7641 -41.3499 2.6795 21.5188 -38.4696 2.6795 
-26.4401 -36.7372 2.6795 -32.7642 -32.3329 2.6795 -25.0095 -36.7372 4.51174 
-17.2547 -36.7372 10.068 24.4481 -36.7372 2.6795 21.5188 -36.7372 7.99919 
29.2735 -33.6758 2.6795 -36.3618 -28.9825 2.6795 -40.5189 -23.65 2.6795 
-32.7642 -28.9825 8.51172 35.4497 -28.9825 2.6795 37.0282 -27.6307 2.6795 
-42.0918 -21.2277 2.6795 -40.5189 -21.2277 5.79953 43.1124 -21.2277 2.6795 
44.783 -18.9272 2.6795 -45.4018 -13.473 2.6795 47.8381 -13.473 2.6795 
-47.0846 -5.71831 2.6795 49.6584 -5.71831 2.6795 -47.6144 2.0364 2.6795 
49.4387 2.0364 2.6795 -46.8508 9.79111 2.6795 48.2052 9.79111 2.6795 
-44.8791 17.5458 2.6795 46.0873 17.5458 2.6795 44.783 20.2656 2.6795 
-41.4236 25.3005 2.6795 -40.5189 26.7113 2.6795 -40.5189 25.3005 4.94222 
41.8192 25.3005 2.6795 37.0282 29.9557 2.6795 -35.492 33.0552 2.6795 
-32.7642 35.2806 2.6795 -32.7642 33.0552 7.54427 -25.0095 39.083 2.6795 
-17.2547 39.828 2.6795 -9.50004 39.334 2.6795 -1.74532 38.7859 2.6795 
6.00939 38.702 2.6795 13.7641 38.1838 2.6795 21.5188 36.8964 2.6795 
32.1868 33.0552 2.6795 29.2735 34.5598 2.6795 -9.50004 -37.6242 10.4342 
-1.74532 -37.7059 10.4342 6.00939 -37.684 10.4342 13.7641 -37.4207 10.4342 
-25.0095 -33.5174 10.4342 -15.7325 -36.7372 10.4342 -17.2547 -36.5078 10.4342 
-9.50004 -36.7372 11.4932 -1.74532 -36.7372 11.4807 6.00939 -36.7372 11.4795 
17.2308 -36.7372 10.4342 13.7641 -36.7372 11.2661 21.5188 -35.8954 10.4342 
29.2735 -32.5872 10.4342 -31.2457 -28.9825 10.4342 -32.7642 -27.5253 10.4342 
-25.0095 -28.9825 15.129 6.00939 -28.9825 17.8716 13.7641 -28.9825 18.0847 
34.6661 -28.9825 10.4342 29.2735 -28.9825 16.1342 37.0282 -27.1853 10.4342 
-37.776 -21.2277 10.4342 -40.5189 -15.8258 10.4342 -32.7642 -21.2277 15.0087 
42.6414 -21.2277 10.4342 44.783 -17.858 10.4342 -41.5614 -13.473 10.4342 
-40.5189 -13.473 11.6816 -32.7642 -13.473 18.1463 46.9631 -13.473 10.4342 
44.783 -13.473 15.2649 -43.7727 -5.71831 10.4342 -40.5189 -5.71831 14.5145 
48.749 -5.71831 10.4342 -44.6217 2.0364 10.4342 -40.5189 2.0364 15.665 
48.4876 2.0364 10.4342 -44.0183 9.79111 10.4342 -40.5189 9.79111 15.1724 
47.1463 9.79111 10.4342 44.783 9.79111 15.7597 -41.8398 17.5458 10.4342 
-40.5189 20.4542 10.4342 -40.5189 17.5458 12.3252 44.8475 17.5458 10.4342 
44.783 17.6806 10.4342 44.783 17.5458 10.582 -37.8516 25.3005 10.4342 
-32.7642 31.2061 10.4342 -32.7642 25.3005 16.2671 40.1286 25.3005 10.4342 
37.0282 28.4771 10.4342 37.0282 25.3005 16.2266 -30.2147 33.0552 10.4342 
-25.0095 35.9033 10.4342 -25.0095 33.0552 14.8284 -17.2547 37.409 10.4342 
-9.50004 37.2242 10.4342 -1.74532 36.7199 10.4342 6.00939 36.7736 10.4342 
13.7641 36.7996 10.4342 21.5188 35.8986 10.4342 30.1719 33.0552 10.4342 
29.2735 33.5478 10.4342 29.2735 33.0552 11.7289 -17.2547 -29.2076 18.1889 
-9.50004 -30.0444 18.1889 -1.74532 -29.2891 18.1889 21.5188 -29.1613 18.1889 
-17.7553 -28.9825 18.1889 -25.0095 -23.6257 18.1889 -17.2547 -28.9825 18.3702 
-9.50004 -28.9825 19.0757 1.70794 -28.9825 18.1889 -1.74532 -28.9825 18.4413 
6.00939 -28.5279 18.1889 17.002 -28.9825 18.1889 13.7641 -28.8285 18.1889 
22.3238 -28.9825 18.1889 21.5188 -28.9825 18.3432 29.2735 -27.1712 18.1889 
37.0282 -22.2229 18.1889 -27.2204 -21.2277 18.1889 -25.0095 -21.2277 19.3167 
-17.2547 -21.2277 22.0589 -9.50004 -21.2277 23.6228 -1.74532 -21.2277 23.6419 
[...]
POINT_DATA 511
SCALARS ImageScalars float
LOOKUP_TABLE default
0 0 0 0 0 0 0 0 0 
0 0 0 0 0 0 0 0 0 
0 0 0 0 0 0 0 0 0 
0 0 0 0 0 0 0 0 0 
0 0 0 0 0 0 0 0 0 
0 0 0 0 0 0 0 0 0 
0 0 0 0 0 0 0 0 0 
0 0 0 0 0 0 0 0 0 
0 0 0 0 0 0 0 0 0 
0 0 0 0 0 0 0 0 0 
0 0 0 0 0 0 0 0 0 
0 0 0 0 0 0 0 0 0 
0 0 0 0 0 0 0 0 0 
0 0 0 0 0 0 0 0 0 
0 0 0 0 0 0 0 0 0 
0 0 0 0 0 0 0 0 0 
0 0 0 0 0 0 0 0 0 
0 0 0 0 0 0 0 0 0 
0 0 0 0 0 0 0 0 0 
0 0 0 0 0 0 0 0 0 
0 0 0 0 0 0 0 0 0 
0 0 0 0 0 0 0 0 0 
0 0 0 0 0 0 0 0 0 
0 0 0 0 0 0 0 0 0 
0 0 0 0 0 0 0 0 0 
0 0 0 0 0 0 0 0 0 
0 0 0 0 0 0 0 0 0 
0 0 0 0 0 0 0 0 0 
0 0 0 0 0 0 0 0 0 
0 0 0 0 0 0 0 0 0 
0 0 0 0 0 0 0 0 0 
0 0 0 0 0 0 0 0 0 
0 0 0 0 0 0 0 0 0 
0 0 0 0 0 0 0 0 0 
0 0 0 0 0 0 0 0 0 
0 0 0 0 0 0 0 0 0 
0 0 0 0 0 0 0 0 0 
0 0 0 0 0 0 0 0 0 
0 0 0 0 0 0 0 0 0 
0 0 0 0 0 0 0 0 0 
0 0 0 0 0 0 0 0 0 
0 0 0 0 0 0 0 0 0 
0 0 0 0 0 0 0 0 0 
0 0 0 0 0 0 0 0 0 
0 0 0 0 0 0 0 0 0 
0 0 0 0 0 0 0 0 0 
0 0 0 0 0 0 0 0 0 
0 0 0 0 0 0 0 0 0 
0 0 0 0 0 0 0 0 0 
0 0 0 0 0 0 0 0 0 
0 0 0 0 0 0 0 0 0 
0 0 0 0 0 0 0 0 0 
0 0 0 0 0 0 0 0 0 
0 0 0 0 0 0 0 0 0 
0 0 0 0 0 0 0 0 0 
0 0 0 0 0 0 0 0 0 
0 0 0 0 0 0 0 
NORMALS Normals float
0.0470857 -0.560648 -0.826715 -0.29221 -0.512992 -0.807126 -0.10109 -0.406702 -0.907951 
-0.05456 -0.292733 -0.954636 -0.0531799 -0.220304 -0.973981 0.0221436 -0.216566 -0.976017 
0.176544 -0.290133 -0.940561 0.422634 -0.43783 -0.793527 -0.397668 -0.431955 -0.80949 
-0.143127 -0.31934 -0.936769 0.00951964 -0.235333 -0.971868 0.056168 -0.143171 -0.988103 
0.00327279 -0.0354852 -0.999365 -0.0170672 -0.00215189 -0.999852 0.0799206 -0.06792 -0.994485 
0.248382 -0.169974 -0.953633 -0.653579 -0.309078 -0.690873 -0.320132 -0.245085 -0.915122 
-0.0763717 -0.188578 -0.979084 0.0773614 -0.162695 -0.983639 0.152184 -0.129686 -0.979807 
0.0885401 -0.0597701 -0.994278 -0.0107984 0.0186536 -0.999768 0.012981 0.0457275 -0.99887 
0.123961 -0.0153123 -0.992169 0.277776 -0.114396 -0.95381 -0.612441 -0.11454 -0.782175 
-0.262137 -0.0828021 -0.961472 -0.0478432 -0.0692378 -0.996452 0.0709853 -0.0959746 -0.992849 
0.157855 -0.16014 -0.974391 0.152747 -0.14104 -0.978149 0.0882609 0.00835043 -0.996062 
0.0477354 0.104926 -0.993334 0.0858216 0.0862365 -0.992571 0.205704 0.0529619 -0.97718 
-0.594389 0.0961613 -0.798407 -0.268359 0.108971 -0.957136 -0.084577 0.0707205 -0.993904 
-0.0127642 0.0313556 -0.999427 0.102745 -0.0738626 -0.991962 0.258999 -0.0517307 -0.964491 
0.233681 0.128458 -0.96379 0.0886281 0.142988 -0.985748 0.0679116 0.0961195 -0.99305 
0.190155 0.0435655 -0.980787 -0.594438 0.243823 -0.766286 -0.292473 0.249113 -0.923256 
-0.126998 0.224364 -0.966195 -0.0739905 0.237561 -0.968551 0.064215 0.222547 -0.972805 
0.342949 0.255836 -0.903844 0.259149 0.272373 -0.926636 -0.00235039 0.12545 -0.992097 
-0.00953264 0.0586636 -0.998232 0.211303 0.044811 -0.976393 -0.300622 0.356747 -0.88451 
-0.10461 0.34083 -0.934287 0.00595624 0.386722 -0.922177 0.135274 0.486502 -0.863144 
0.256703 0.473294 -0.842672 -0.126704 0.157228 -0.979401 -0.00959537 0.150993 -0.988488 
0.245363 0.17366 -0.95375 -0.0954055 0.424463 -0.900405 0.0572423 0.410242 -0.910178 
0.0480088 -0.567994 -0.821631 -0.308971 -0.553676 -0.773292 -0.433871 -0.808671 -0.39725 
-0.168425 -0.533267 -0.829011 -0.258842 -0.718159 -0.645948 -0.112209 -0.507965 -0.854038 
-0.136993 -0.599171 -0.788813 0.00503177 -0.552045 -0.833799 -0.0548984 -0.522257 -0.851019 
-0.0553168 -0.542656 -0.838132 0.0720464 -0.567969 -0.819891 0.258648 -0.531631 -0.806517 
0.300571 -0.644323 -0.70321 0.433383 -0.456795 -0.776864 -0.3438 -0.542778 -0.766285 
-0.4515 -0.516135 -0.727841 -0.552682 -0.654532 -0.515878 0.437331 -0.451302 -0.777861 
0.615482 -0.660292 -0.430344 -0.529759 -0.459518 -0.71288 -0.659657 -0.323563 -0.678351 
-0.75833 -0.497289 -0.421472 0.424461 -0.368459 -0.827086 0.424004 -0.361313 -0.830466 
0.437887 -0.383637 -0.813067 0.644616 -0.571386 -0.507925 -0.666439 -0.309845 -0.678126 
0.429318 -0.200076 -0.880713 0.53894 -0.265859 -0.799289 -0.730622 -0.120226 -0.672114 
0.393892 -0.00127848 -0.919156 0.427701 -0.0116137 -0.903846 0.805959 -0.0669448 -0.588174 
-0.721254 0.0777392 -0.688295 0.312986 0.0739868 -0.946872 0.442219 0.105183 -0.890718 
0.796388 0.0983187 -0.596741 -0.632826 0.241682 -0.735609 -0.598381 0.270783 -0.754067 
0.118941 0.281282 -0.952226 0.321072 0.0746183 -0.944111 0.513457 0.120244 -0.849649 
-0.446808 0.361592 -0.8183 -0.651272 0.356828 -0.669715 -0.319944 0.404554 -0.856722 
0.163077 0.436426 -0.884838 0.144652 0.382798 -0.912437 0.224459 0.443925 -0.867496 
-0.0860908 0.190204 -0.977963 0.0316401 0.281006 -0.959184 -0.130172 0.192557 -0.972614 
-0.000419589 0.287588 -0.957754 0.279742 0.174567 -0.944071 0.244858 0.221843 -0.943838 
0.581382 0.213303 -0.785173 -0.135557 0.427753 -0.893673 -0.369352 0.450962 -0.812534 
-0.0982367 0.43528 -0.89492 0.084012 0.414506 -0.90616 0.0547153 0.416746 -0.907375 
0.160612 0.424052 -0.891282 0.140409 0.362932 -0.921176 -0.0385498 0.307627 -0.950726 
-0.128066 0.366495 -0.921564 0.00721881 0.415411 -0.909605 0.259431 0.445219 -0.857016 
0.627097 0.507364 -0.591042 -0.463811 0.691398 -0.553939 -0.155403 0.641132 -0.751532 
0.00690535 0.587206 -0.809408 0.109284 0.575839 -0.810226 0.0982993 0.556833 -0.824788 
0.042431 0.572577 -0.818752 0.0322001 0.668886 -0.742667 0.124547 0.773365 -0.621606 
-0.435665 -0.812453 -0.387449 -0.294672 -0.861419 -0.413673 -0.177046 -0.895023 -0.409376 
-0.0532799 -0.92621 -0.373223 -0.0307784 -0.999457 -0.0118024 0.125148 -0.926916 -0.353786 
0.342826 -0.871566 -0.350489 -0.440748 -0.809981 -0.386874 -0.590744 -0.717322 -0.369419 
0.572659 -0.737167 -0.358673 0.583609 -0.727327 -0.361104 0.583413 -0.746149 -0.320767 
0.621386 -0.675326 -0.397258 -0.648608 -0.669735 -0.361611 -0.772487 -0.53992 -0.334292 
0.622062 -0.672427 -0.401099 0.65198 -0.601513 -0.461631 -0.801322 -0.498882 -0.330151 
0.666656 -0.582137 -0.465497 -0.900706 -0.307216 -0.307159 0.772911 -0.339216 -0.536229 
0.817342 -0.17306 -0.549547 0.825734 -0.35188 -0.440845 -0.952592 -0.123587 -0.27802 
-0.992307 -0.122302 -0.0191821 0.829544 -0.0713514 -0.553864 -0.956113 0.03981 -0.290282 
-0.991164 0.0318421 -0.128763 0.800977 0.0980319 -0.590615 0.799945 0.103995 -0.590993 
-0.925018 0.202781 -0.321281 0.778193 0.150868 -0.609634 0.851452 0.161302 -0.49901 
-0.85543 0.349929 -0.381824 -0.740272 0.514297 -0.433009 0.760157 0.256055 -0.597157 
0.900528 0.301496 -0.313288 -0.735609 0.517881 -0.436669 -0.745985 0.518132 -0.418385 
0.336831 0.782194 -0.524135 0.668705 0.518113 -0.533284 0.634524 0.557953 -0.534853 
-0.503946 0.699646 -0.506492 -0.47205 0.723094 -0.504285 -0.213493 0.761541 -0.611944 
-0.000363585 0.777677 -0.628664 0.0958576 0.743273 -0.662085 0.0955071 0.684486 -0.722743 
0.0576733 0.669134 -0.7409 0.0590587 0.731634 -0.679135 0.231667 0.804218 -0.547325 
0.139169 0.80653 -0.574579 0.351413 0.854286 -0.38302 -0.0336569 0.993691 -0.106985 
-0.0275042 -0.998944 0.0367951 -0.459569 -0.887498 -0.0338351 -0.303229 -0.952705 -0.0201491 
-0.0602246 -0.997727 0.0302305 -0.159753 -0.987117 0.00885378 0.0717463 -0.996766 0.0361905 
-0.0274165 -0.997382 0.066916 0.130125 -0.990855 0.0357021 0.31458 -0.949134 -0.0135697 
0.547197 -0.831619 -0.0947893 -0.532383 -0.845785 -0.0348846 -0.627595 -0.777816 -0.033577 
0.582729 -0.801765 -0.132663 0.622741 -0.758146 -0.193414 -0.735888 -0.676525 -0.0279835 
-0.806334 -0.591153 -0.019059 0.644194 -0.734306 -0.21403 0.673409 -0.702824 -0.229258 
-0.874388 -0.485148 -0.00876398 0.739003 -0.63452 -0.226404 0.829266 -0.507199 -0.234663 
-0.959353 -0.282002 0.0107925 -0.990766 -0.134562 0.0166361 0.89999 -0.367643 -0.234215 
-0.992431 -0.121597 0.0171509 -0.991566 -0.122888 0.0411748 0.965697 -0.0954754 -0.241482 
-0.999628 0.0268319 0.00481556 -0.992443 0.122693 -0.00177761 -0.994033 0.0216674 0.106904 
0.962829 0.0873105 -0.255613 -0.984295 0.176419 -0.00629309 0.952634 0.173461 -0.2498 
-0.947514 0.318407 -0.0288788 0.923753 0.316086 -0.216264 0.902225 0.380415 -0.203161 
-0.875334 0.481071 -0.0485925 -0.824429 0.563182 -0.0560666 0.797837 0.57913 -0.167524 
0.634296 0.760706 -0.137822 -0.689707 0.720679 -0.0701895 -0.530995 0.844027 -0.0752485 
-0.26337 0.959485 -0.100124 0.0677832 0.991283 -0.112976 0.0729804 0.988026 -0.135937 
0.0860799 0.981219 -0.172624 0.136525 0.973527 -0.183318 0.218129 0.961989 -0.164308 
0.47936 0.867741 -0.131299 0.379122 0.915658 -0.133554 -0.0397579 0.993902 -0.102851 
-0.0282247 0.994238 -0.103409 -0.0334229 0.994847 -0.0957181 -0.436002 -0.858268 0.270699 
-0.258493 -0.915609 0.307962 -0.116842 -0.927495 0.355106 -0.0225383 -0.922469 0.385413 
0.0740798 -0.926514 0.368895 0.225482 -0.93274 0.281343 0.43252 -0.88931 0.148508 
-0.467465 -0.84236 0.268153 -0.618488 -0.740059 0.264167 -0.427327 -0.841798 0.329799 
-0.205634 -0.808808 0.550949 0.489083 -0.867434 0.0914117 0.323532 -0.878173 0.352334 
0.572553 -0.819868 0.000360846 -0.697136 -0.665715 0.266128 -0.805533 -0.524164 0.276347 
-0.602045 -0.641586 0.4753 0.644813 -0.763339 -0.0391078 0.67078 -0.740099 -0.0480494 
-0.838148 -0.467343 0.281245 -0.798129 -0.458937 0.390343 0.782663 -0.62099 -0.0425328 
0.837391 -0.546011 -0.0254577 -0.915464 -0.282769 0.286298 0.932725 -0.360574 0.00328578 
-0.956013 -0.131709 0.262091 0.994755 -0.102282 0.000723883 -0.970376 0.0146329 0.241158 
0.995827 0.0912374 0.00223209 -0.959647 0.167207 0.226095 0.97919 0.202569 0.0123662 
-0.921952 0.311784 0.229771 0.930854 0.361833 0.0508661 0.896961 0.43847 0.0566145 
-0.839842 0.483107 0.247534 -0.819781 0.516863 0.246599 -0.817585 0.485149 0.310138 
0.782293 0.618504 0.0739635 0.623618 0.776706 0.0884785 -0.64242 0.722096 0.25666 
-0.552315 0.793727 0.254843 -0.560206 0.725321 0.400098 -0.266421 0.937589 0.223488 
-0.0129528 0.977251 0.211691 0.0650146 0.977656 0.199906 0.0403561 0.979981 0.194957 
0.0381636 0.987071 0.155673 0.113231 0.988306 0.102131 0.22517 0.971563 0.0732335 
0.46355 0.882346 0.0811628 0.38463 0.920191 0.0728638 -0.0627188 -0.798189 0.599133 
-0.00319579 -0.76075 0.649037 0.0154118 -0.762515 0.646787 0.0968193 -0.808258 0.580814 
-0.400501 -0.733281 0.549452 -0.174724 -0.801764 0.57153 -0.202672 -0.800403 0.564162 
-0.0539139 -0.778723 0.625048 0.000610231 -0.738051 0.674744 0.00954082 -0.735516 0.67744 
0.169455 -0.831393 0.529217 0.0872443 -0.788154 0.609263 0.258029 -0.851658 0.456179 
0.455573 -0.836725 0.303883 -0.55457 -0.623918 0.550616 -0.588125 -0.586706 0.556673 
-0.404147 -0.571955 0.713815 0.0174091 -0.577466 0.816229 -0.0234576 -0.574601 0.818097 
0.573931 -0.779218 0.251838 0.353185 -0.738852 0.573898 0.639226 -0.733638 0.230578 
-0.693851 -0.434678 0.574131 -0.753816 -0.33943 0.562627 -0.546979 -0.404731 0.732807 
0.776087 -0.588686 0.226137 0.846472 -0.474636 0.241259 -0.772484 -0.298696 0.560401 
-0.738258 -0.301098 0.603585 -0.454203 -0.250269 0.855024 0.90805 -0.334265 0.252412 
0.82218 -0.3342 0.460793 -0.834491 -0.16578 0.525492 -0.705601 -0.178814 0.685677 
0.961741 -0.0960317 0.256576 -0.867829 -0.0134218 0.496682 -0.709212 -0.0312387 0.704302 
0.96211 0.0980846 0.254409 -0.865846 0.157641 0.474827 -0.734436 0.137108 0.664685 
0.940385 0.218222 0.260873 0.85982 0.216545 0.462404 -0.820097 0.314254 0.478211 
-0.793598 0.373854 0.480037 -0.778295 0.309234 0.546472 0.889605 0.3647 0.274949 
0.888035 0.368476 0.274988 0.88811 0.364566 0.279914 -0.72997 0.48613 0.480439 
-0.572472 0.657446 0.489939 -0.594974 0.4517 0.66481 0.738508 0.616786 0.27236 
0.647831 0.717976 0.254608 0.673377 0.583611 0.453829 -0.481333 0.735366 0.477028 
-0.31916 0.830323 0.456838 -0.373537 0.734125 0.567036 -0.0677952 0.930785 0.359225 
0.0422684 0.957466 0.285433 0.0275566 0.960583 0.276626 -0.00491996 0.96085 0.277024 
0.0529078 0.968887 0.241783 0.187888 0.959554 0.209653 0.418991 0.877602 0.232942 
0.395362 0.888762 0.231928 0.396886 0.87675 0.271644 -0.191043 -0.576092 0.794746 
-0.0038509 -0.63287 0.774248 0.0605456 -0.627218 0.776487 0.0657554 -0.632273 0.771951 
-0.204602 -0.568657 0.796723 -0.391694 -0.380796 0.837598 -0.192029 -0.569317 0.799377 
-0.0048725 -0.61163 0.791129 0.0431952 -0.603501 0.796191 0.0626282 -0.623544 0.779276 
0.0198665 -0.569758 0.821572 0.0119105 -0.597378 0.801872 -0.0238767 -0.571389 0.820332 
0.0890715 -0.638699 0.764284 0.0630443 -0.628053 0.775612 0.294213 -0.657805 0.693348 
0.529333 -0.57627 0.622671 -0.425501 -0.332218 0.841772 -0.384887 -0.310707 0.869093 
-0.248014 -0.293687 0.923167 -0.0953391 -0.348701 0.932372 0.0509712 -0.421352 0.905464 
0.0470847 -0.448717 0.892433 -0.0188584 -0.432523 0.901426 0.0248419 -0.434699 0.900233 
0.211775 -0.472337 0.855599 0.559829 -0.549368 0.620311 0.521191 -0.546579 0.655447 
-0.452026 -0.249377 0.856436 -0.452978 -0.248019 0.856328 -0.327545 -0.182397 0.927063 
-0.25402 -0.152403 0.955116 -0.149243 -0.162434 0.975367 0.00963234 -0.271413 0.962415 
-0.0315273 -0.312117 0.94952 0.185278 -0.273046 0.94399 0.718251 -0.326637 0.614348 
0.470313 -0.315672 0.82411 0.794818 -0.139711 0.590547 -0.504316 -0.168676 0.846885 
-0.41539 -0.166778 0.894224 -0.280861 -0.140631 0.949389 -0.243859 -0.122947 0.961986 
0.428314 -0.12556 0.894864 0.802845 -0.0967214 0.58829 0.790524 -0.0973179 0.60465 
-0.568369 -0.0463612 0.821467 -0.412854 -0.0575021 0.90898 -0.266612 -0.0738276 0.960972 
-0.253584 -0.0507755 0.96598 0.467704 0.0354667 0.883174 0.815914 0.0867172 0.571633 
0.814798 0.103503 0.570431 0.809472 0.0859663 0.580831 -0.579932 0.105001 0.80787 
-0.440644 0.0854551 0.893605 -0.268867 0.00943895 0.963131 -0.212961 0.0137599 0.976964 
0.792623 0.208818 0.572838 0.53204 0.160439 0.83138 -0.573471 0.24039 0.783162 
-0.558601 0.326279 0.762566 -0.524323 0.218467 0.823017 -0.33225 0.133653 0.933674 
-0.190091 0.075753 0.97884 0.744302 0.351039 0.568143 0.67074 0.516113 0.532668 
0.622339 0.318094 0.7152 -0.530465 0.42682 0.732415 -0.41553 0.57739 0.70282 
-0.407306 0.379946 0.830508 -0.23363 0.304426 0.92344 -0.0772665 0.313078 0.946579 
-0.0125358 0.334439 0.942334 -0.0432293 0.373859 0.926477 0.63576 0.570337 0.52012 
0.429619 0.755929 0.493962 0.402318 0.516373 0.755975 -0.24545 0.756934 0.605644 
-0.192141 0.787977 0.584957 -0.197997 0.760293 0.61867 -0.0208297 0.846821 0.53147 
-0.0269722 0.78923 0.613505 0.0223107 0.8605 0.508962 0.0191832 0.821263 0.570227 
-0.00910126 0.857331 0.514685 -0.0158056 0.819419 0.572977 0.036503 0.878715 0.475948 
0.0283381 0.833601 0.55164 0.231695 0.858753 0.457012 0.200546 0.868154 0.453971 
0.20108 0.853688 0.4804 -0.0240188 -0.185684 0.982316 0.0116602 -0.31536 0.948901 
-0.0351251 -0.179312 0.983165 -0.140462 -0.146138 0.979242 -0.0180656 -0.200187 0.979591 
-0.0256508 -0.180603 0.983222 -0.000106183 -0.261233 0.965276 -0.0213844 -0.309933 0.950518 
-0.0326708 -0.307005 0.951147 0.102239 -0.28696 0.952471 0.0128313 -0.30196 0.953234 
0.185347 -0.244293 0.951823 -0.158195 -0.134359 0.978224 -0.134384 -0.137415 0.981355 
-0.0666976 -0.142818 0.987499 -0.0764804 -0.185462 0.979671 -0.0475536 -0.20279 0.978067 
0.0472296 -0.166835 0.984853 0.318735 -0.130649 0.938796 0.189015 -0.138371 0.972176 
-0.236349 -0.0488866 0.970438 -0.16664 -0.043824 0.985044 -0.0750912 -0.0664527 0.99496 
-0.0570665 -0.0661875 0.996174 -0.0160502 -0.0691623 0.997476 0.0772616 -0.0590272 0.995262 
0.396263 0.0182202 0.917956 0.225586 -0.0290668 0.97379 -0.193176 0.0335578 0.98059 
-0.151951 0.0746753 0.985563 -0.090317 0.0931947 0.991543 -0.0810032 0.0855447 0.993036 
-0.0390383 0.0503143 0.99797 0.0869921 0.0428068 0.995289 0.400277 0.115496 0.909087 
0.276215 0.0651538 0.958885 -0.126604 0.0899455 0.987867 -0.0836516 0.181345 0.979855 
-0.087961 0.0995878 0.991133 -0.0316683 0.258337 0.965536 -0.063048 0.149946 0.986682 
-0.0564697 0.327516 0.943157 -0.100895 0.178141 0.978819 -0.0592788 0.171657 0.983372 
0.0887808 0.184788 0.97876 0.38892 0.23574 0.8906 0.354054 0.29188 0.888511 
0.343961 0.225681 0.91146 -0.0340902 0.389815 0.920262 -0.0256295 0.422106 0.906184 
-0.0274996 0.403281 0.914663 0.137338 0.432756 0.890989 0.130316 0.435399 0.890756 
0.129693 0.430891 0.893036 
