# vtk DataFile Version 4.2
vtk output
ASCII
DATASET POLYDATA
POINTS 524 float
-6.77133 1.12911 -23.9634 -37.4253 -21.8614 -17.4783 -29.7618 -21.8614 -18.1102 
-22.0983 -21.8614 -17.6583 -14.4348 -21.8614 -17.1697 0.892155 -21.8614 -16.4429 
8.55564 -21.8614 -16.8973 -45.0888 -14.1979 -17.4815 -37.4253 -14.1979 -18.9976 
-29.7618 -14.1979 -19.3031 -22.0983 -14.1979 -18.7078 -14.4348 -14.1979 -18.1853 
-6.77133 -14.1979 -18.1949 0.892155 -14.1979 -19.3399 8.55564 -14.1979 -20.4887 
16.2191 -14.1979 -18.9669 23.8826 -14.1979 -18.5108 31.5461 -14.1979 -18.4307 
39.2096 -14.1979 -17.7486 -52.7523 -6.53438 -16.4961 -45.0888 -6.53438 -19.3594 
-37.4253 -6.53438 -20.6439 -29.7618 -6.53438 -20.5055 -22.0983 -6.53438 -19.5594 
-14.4348 -6.53438 -20.095 -6.77133 1.07565 -23.9532 -6.77133 -6.53438 -22.2959 
0.892155 -6.53438 -21.3284 8.55564 -6.53438 -23.4672 16.2191 -6.53438 -22.3587 
23.8826 -6.53438 -20.8697 31.5461 -6.53438 -20.9184 39.2096 -6.53438 -20.207 
46.8731 -6.53438 -18.2335 -52.7523 1.12911 -17.1589 -45.0888 1.12911 -20.5875 
-37.4253 1.12911 -21.6227 -29.7618 1.12911 -21.7718 -22.0983 1.12911 -21.2044 
-6.81598 1.12911 -23.9532 -14.4348 1.12911 -22.043 -6.74463 1.12911 -23.9532 
-6.77133 1.20142 -23.9532 0.892155 1.12911 -20.9849 8.55564 1.12911 -22.9164 
16.2191 1.12911 -23.4009 23.8826 1.12911 -22.6006 31.5461 1.12911 -22.2673 
39.2096 1.12911 -21.5407 46.8731 1.12911 -19.3917 -45.0888 8.7926 -20.0142 
-37.4253 8.7926 -22.3149 -29.7618 8.7926 -22.5992 -22.0983 8.7926 -22.3409 
-14.4348 8.7926 -21.9098 -6.77133 8.7926 -22.8545 0.892155 8.7926 -21.8931 
8.55564 8.7926 -22.304 16.2191 8.7926 -23.2366 23.8826 8.7926 -23.1534 
31.5461 8.7926 -22.7909 39.2096 8.7926 -21.7981 46.8731 8.7926 -18.7658 
-45.0888 16.4561 -16.6466 -37.4253 16.4561 -21.3886 -29.7618 16.4561 -22.8201 
-22.0983 16.4561 -22.9146 -14.4348 16.4561 -22.5097 -6.77133 16.4561 -22.3202 
0.892155 16.4561 -22.4251 8.55564 16.4561 -23.0532 16.2191 16.4561 -23.5049 
23.8826 16.4561 -22.9213 31.5461 16.4561 -21.8548 39.2096 16.4561 -19.4303 
-29.7618 24.1196 -19.2327 -22.0983 24.1196 -21.4954 -14.4348 24.1196 -21.8086 
-6.77133 24.1196 -21.832 0.892155 24.1196 -21.7543 8.55564 24.1196 -22.1314 
16.2191 24.1196 -22.1505 23.8826 24.1196 -20.6499 31.5461 24.1196 -17.3095 
-14.4348 31.7831 -18.9108 -6.77133 31.7831 -19.6882 0.892155 31.7831 -19.4059 
8.55564 31.7831 -18.8357 16.2191 31.7831 -16.92 -37.4253 -24.4898 -16.2897 
-37.4253 -29.5248 -13.5396 -29.7618 -26.3991 -16.2897 -29.7618 -29.5248 -14.7871 
-22.0983 -26.4958 -16.2897 -22.0983 -29.5248 -15.1797 -14.4348 -23.9807 -16.2897 
-14.4348 -29.5248 -13.6382 -6.77133 -29.5248 -12.4853 0.892155 -22.1938 -16.2897 
0.892155 -29.5248 -12.3239 8.55564 -22.9864 -16.2897 8.55564 -29.5248 -11.8039 
16.2191 -29.5248 -9.73277 -52.7523 -21.8614 -8.9284 -42.7799 -21.8614 -16.2897 
-45.0888 -19.6046 -16.2897 -45.0888 -21.8614 -15.6003 -9.05852 -21.8614 -16.2897 
-1.26389 -21.8614 -16.2897 -6.77133 -20.5672 -16.2897 -6.77133 -21.8614 -15.9242 
14.1153 -21.8614 -16.2897 16.2191 -21.2828 -16.2897 16.2191 -21.8614 -16.0505 
23.8826 -19.9066 -16.2897 23.8826 -21.8614 -15.404 31.5461 -19.2516 -16.2897 
31.5461 -21.8614 -14.8497 39.2096 -16.8816 -16.2897 39.2096 -21.8614 -12.9298 
46.8731 -21.8614 -9.26142 -47.7681 -14.1979 -16.2897 -52.7523 -7.26695 -16.2897 
-52.7523 -14.1979 -13.5468 43.7148 -14.1979 -16.2897 46.8731 -11.3893 -16.2897 
46.8731 -14.1979 -15.1215 54.5366 -14.1979 -9.81555 -53.0063 -6.53438 -16.2897 
50.5368 -6.53438 -16.2897 54.5366 -6.53438 -13.7956 -53.7528 1.12911 -16.2897 
-52.7523 4.13411 -16.2897 52.516 1.12911 -16.2897 54.5366 1.12911 -14.7757 
-50.8532 8.7926 -16.2897 -52.7523 8.7926 -14.0721 50.8553 8.7926 -16.2897 
46.8731 15.2241 -16.2897 54.5366 8.7926 -12.5698 -45.5035 16.4561 -16.2897 
-45.0888 16.8494 -16.2897 -37.4253 23.0477 -16.2897 45.8336 16.4561 -16.2897 
39.2096 20.6046 -16.2897 46.8731 16.4561 -15.2887 -35.8364 24.1196 -16.2897 
-37.4253 24.1196 -13.7448 -29.7618 27.3259 -16.2897 -22.0983 31.4054 -16.2897 
23.8826 28.8582 -16.2897 33.3646 24.1196 -16.2897 31.5461 25.0455 -16.2897 
39.2096 24.1196 -9.00491 -21.3948 31.7831 -16.2897 -22.0983 31.7831 -15.643 
-14.4348 35.044 -16.2897 -6.77133 36.7224 -16.2897 0.892155 35.8656 -16.2897 
8.55564 34.3377 -16.2897 17.5274 31.7831 -16.2897 16.2191 32.2995 -16.2897 
-14.4348 39.4465 -9.46754 -6.77133 39.4465 -12.5593 0.892155 39.4465 -11.0693 
-37.4253 -33.5435 -8.62621 -29.7618 -35.3048 -8.62621 -22.0983 -35.5843 -8.62621 
-22.0983 -37.1883 -2.41596 -14.4348 -34.8089 -8.62621 -6.77133 -33.3729 -8.62621 
0.892155 -32.9428 -8.62621 8.55564 -32.2401 -8.62621 16.2191 -30.3221 -8.62621 
-52.7523 -22.1549 -8.62621 -44.952 -29.5248 -8.62621 -45.0888 -29.4171 -8.62621 
-45.0888 -29.5248 -8.30992 22.3171 -29.5248 -8.62621 23.8826 -29.2934 -8.62621 
23.8826 -29.5248 -7.86724 31.5461 -27.9085 -8.62621 31.5461 -29.5248 -4.25106 
39.2096 -25.8852 -8.62621 46.8731 -22.4372 -8.62621 -52.9946 -21.8614 -8.62621 
47.6659 -21.8614 -8.62621 54.5366 -15.5874 -8.62621 -56.9517 -14.1979 -8.62621 
55.5691 -14.1979 -8.62621 -58.8217 -6.53438 -8.62621 -60.4157 -6.53438 -1.48083 
59.4565 -6.53438 -8.62621 62.2001 -6.53438 -1.26048 -58.7855 1.12911 -8.62621 
59.3741 1.12911 -8.62621 -56.0458 8.7926 -8.62621 -52.7523 13.2422 -8.62621 
57.2581 8.7926 -8.62621 54.5366 13.1545 -8.62621 -49.8257 16.4561 -8.62621 
-45.0888 20.422 -8.62621 51.7178 16.4561 -8.62621 46.8731 20.031 -8.62621 
-39.5998 24.1196 -8.62621 -37.4253 25.4912 -8.62621 -29.7618 29.7572 -8.62621 
23.8826 31.4478 -8.62621 31.5461 28.2529 -8.62621 39.4821 24.1196 -8.62621 
39.2096 24.2538 -8.62621 -26.5023 31.7831 -8.62621 -22.0983 34.8193 -8.62621 
8.55564 37.9886 -8.62621 23.0754 31.7831 -8.62621 16.2191 34.6374 -8.62621 
-15.1291 39.4465 -8.62621 -14.4348 39.8271 -8.62621 -6.77133 41.1595 -8.62621 
4.40848 39.4465 -8.62621 0.892155 40.5541 -8.62621 -22.0983 -37.5068 -0.962718 
-45.0888 -31.1733 -0.962718 -37.4253 -35.2922 -0.962718 -28.4143 -37.1883 -0.962718 
-29.7618 -37.1197 -0.962718 -17.2789 -37.1883 -0.962718 -22.0983 -37.1883 0.519695 
-14.4348 -36.9883 -0.962718 -6.77133 -35.7114 -0.962718 0.892155 -35.1228 -0.962718 
8.55564 -34.1469 -0.962718 16.2191 -32.3887 -0.962718 23.8826 -31.1647 -0.962718 
31.5461 -30.5138 -0.962718 -47.1486 -29.5248 -0.962718 -52.7523 -24.2627 -0.962718 
-45.0888 -29.5248 2.67027 37.2559 -29.5248 -0.962718 39.2096 -29.1675 -0.962718 
46.8731 -26.1561 -0.962718 -54.7765 -21.8614 -0.962718 -52.7523 -21.8614 3.69153 
52.8863 -21.8614 -0.962718 54.5366 -20.3012 -0.962718 -58.942 -14.1979 -0.962718 
-60.4157 -7.1212 -0.962718 59.0119 -14.1979 -0.962718 62.2001 -6.7496 -0.962718 
-60.5235 -6.53438 -0.962718 -60.4157 -4.86627 -0.962718 -60.4157 -6.53438 -0.400916 
62.2001 -5.55333 -0.962718 -60.0103 1.12911 -0.962718 61.623 1.12911 -0.962718 
-57.5229 8.7926 -0.962718 -52.7523 14.8049 -0.962718 58.9331 8.7926 -0.962718 
54.5366 15.5778 -0.962718 -51.1277 16.4561 -0.962718 -45.0888 21.4437 -0.962718 
53.6329 16.4561 -0.962718 46.8731 20.8898 -0.962718 -41.0047 24.1196 -0.962718 
-37.4253 26.4363 -0.962718 -29.7618 30.7516 -0.962718 23.8826 30.5887 -0.962718 
31.5461 27.8029 -0.962718 40.0902 24.1196 -0.962718 39.2096 24.4941 -0.962718 
39.2096 24.1196 0.674671 -28.0406 31.7831 -0.962718 -29.7618 31.7831 4.55216 
-22.0983 35.5722 -0.962718 8.55564 37.437 -0.962718 20.8833 31.7831 -0.962718 
16.2191 33.7591 -0.962718 16.2191 31.7831 5.52836 -15.8729 39.4465 -0.962718 
-14.4348 40.1515 -0.962718 -14.4348 39.4465 2.49673 -6.77133 41.3189 -0.962718 
-6.77133 39.4465 5.79044 3.73418 39.4465 -0.962718 0.892155 40.4681 -0.962718 
0.892155 39.4465 1.72529 -37.4253 -32.1714 6.70077 -29.7618 -35.0837 6.70077 
-22.0983 -35.8155 6.70077 -14.4348 -35.2325 6.70077 -6.77133 -33.6472 6.70077 
0.892155 -32.9588 6.70077 8.55564 -32.7501 6.70077 16.2191 -31.7309 6.70077 
23.8826 -30.6128 6.70077 31.5461 -30.2518 6.70077 -41.8058 -29.5248 6.70077 
-45.0888 -27.0555 6.70077 -37.4253 -29.5248 9.99943 -29.7618 -29.5248 13.5273 
-6.77133 -29.5248 13.2185 0.892155 -29.5248 12.6099 8.55564 -29.5248 13.5582 
16.2191 -29.5248 11.5899 23.8826 -29.5248 9.76061 37.6293 -29.5248 6.70077 
31.5461 -29.5248 8.70977 39.2096 -29.3261 6.70077 46.8731 -26.5244 6.70077 
-50.7909 -21.8614 6.70077 -52.7523 -19.1568 6.70077 -45.0888 -21.8614 11.3315 
53.8463 -21.8614 6.70077 54.5366 -21.2012 6.70077 -55.9235 -14.1979 6.70077 
-52.7523 -14.1979 9.74198 59.5753 -14.1979 6.70077 62.2001 -7.57509 6.70077 
-58.6846 -6.53438 6.70077 -52.7523 -6.53438 13.1255 62.2001 -4.70106 6.70077 
62.2001 -6.53438 7.67426 -58.5929 1.12911 6.70077 -52.7523 1.12911 14.1758 
60.9505 1.12911 6.70077 -55.8694 8.7926 6.70077 -52.7523 13.274 6.70077 
-52.7523 8.7926 11.3871 57.4162 8.7926 6.70077 54.5366 12.4546 6.70077 
54.5366 8.7926 11.4127 -50.1898 16.4561 6.70077 -45.0888 21.2829 6.70077 
39.2096 22.722 6.70077 50.2676 16.4561 6.70077 46.8731 18.7825 6.70077 
46.8731 16.4561 10.812 -41.5503 24.1196 6.70077 -37.4253 27.1629 6.70077 
16.2191 31.4194 6.70077 23.8826 28.7256 6.70077 23.8826 24.1196 14.2325 
35.9591 24.1196 6.70077 31.5461 25.9691 6.70077 31.5461 24.1196 10.094 
-30.3722 31.7831 6.70077 -29.7618 32.1653 6.70077 -29.7618 31.7831 8.9317 
-22.0983 36.1202 6.70077 -14.4348 38.5578 6.70077 -6.77133 39.1596 6.70077 
0.892155 37.0583 6.70077 0.892155 31.7831 12.7735 15.1954 31.7831 6.70077 
8.55564 34.2246 6.70077 8.55564 31.7831 10.0785 -22.0983 -30.7107 14.3643 
-14.4348 -30.1737 14.3643 -37.4253 -23.2774 14.3643 -26.4816 -29.5248 14.3643 
-29.7618 -28.2532 14.3643 -22.0983 -29.5248 15.379 -11.15 -29.5248 14.3643 
-14.4348 -29.5248 14.9822 -6.77133 -28.5609 14.3643 0.892155 -28.3089 14.3643 
8.55564 -29.0122 14.3643 16.2191 -27.607 14.3643 23.8826 -27.2292 14.3643 
31.5461 -26.8942 14.3643 39.2096 -25.8824 14.3643 46.8731 -23.3672 14.3643 
-39.1504 -21.8614 14.3643 -45.0888 -15.9494 14.3643 -37.4253 -21.8614 15.121 
-29.7618 -21.8614 17.9189 -22.0983 -21.8614 19.2678 -14.4348 -21.8614 19.8793 
[...]
POINT_DATA 524
SCALARS ImageScalars float
LOOKUP_TABLE default
0 0 0 0 0 0 0 0 0 
0 0 0 0 0 0 0 0 0 
0 0 0 0 0 0 0 0 0 
0 0 0 0 0 0 0 0 0 
0 0 0 0 0 0 0 0 0 
0 0 0 0 0 0 0 0 0 
0 0 0 0 0 0 0 0 0 
0 0 0 0 0 0 0 0 0 
0 0 0 0 0 0 0 0 0 
0 0 0 0 0 0 0 0 0 
0 0 0 0 0 0 0 0 0 
0 0 0 0 0 0 0 0 0 
0 0 0 0 0 0 0 0 0 
0 0 0 0 0 0 0 0 0 
0 0 0 0 0 0 0 0 0 
0 0 0 0 0 0 0 0 0 
0 0 0 0 0 0 0 0 0 
0 0 0 0 0 0 0 0 0 
0 0 0 0 0 0 0 0 0 
0 0 0 0 0 0 0 0 0 
0 0 0 0 0 0 0 0 0 
0 0 0 0 0 0 0 0 0 
0 0 0 0 0 0 0 0 0 
0 0 0 0 0 0 0 0 0 
0 0 0 0 0 0 0 0 0 
0 0 0 0 0 0 0 0 0 
0 0 0 0 0 0 0 0 0 
0 0 0 0 0 0 0 0 0 
0 0 0 0 0 0 0 0 0 
0 0 0 0 0 0 0 0 0 
0 0 0 0 0 0 0 0 0 
0 0 0 0 0 0 0 0 0 
0 0 0 0 0 0 0 0 0 
0 0 0 0 0 0 0 0 0 
0 0 0 0 0 0 0 0 0 
0 0 0 0 0 0 0 0 0 
0 0 0 0 0 0 0 0 0 
0 0 0 0 0 0 0 0 0 
0 0 0 0 0 0 0 0 0 
0 0 0 0 0 0 0 0 0 
0 0 0 0 0 0 0 0 0 
0 0 0 0 0 0 0 0 0 
0 0 0 0 0 0 0 0 0 
0 0 0 0 0 0 0 0 0 
0 0 0 0 0 0 0 0 0 
0 0 0 0 0 0 0 0 0 
0 0 0 0 0 0 0 0 0 
0 0 0 0 0 0 0 0 0 
0 0 0 0 0 0 0 0 0 
0 0 0 0 0 0 0 0 0 
0 0 0 0 0 0 0 0 0 
0 0 0 0 0 0 0 0 0 
0 0 0 0 0 0 0 0 0 
0 0 0 0 0 0 0 0 0 
0 0 0 0 0 0 0 0 0 
0 0 0 0 0 0 0 0 0 
0 0 0 0 0 0 0 0 0 
0 0 0 0 0 0 0 0 0 
0 0 
NORMALS Normals float
-0.0782653 0.0253403 0.99661 0.154716 0.314618 0.936525 0.00590245 0.251203 0.967916 
-0.0574321 0.208391 0.976358 -0.111181 0.264322 0.958005 0.0594899 0.378153 0.92383 
-0.0239755 0.442391 0.896502 0.299419 0.240497 0.923314 0.106868 0.202007 0.973536 
-0.0195158 0.150731 0.988382 -0.0715402 0.11789 0.990446 -0.0334912 0.177608 0.983531 
0.067118 0.375016 0.924586 0.139538 0.310303 0.940341 -0.0277482 0.409984 0.911671 
-0.117695 0.378738 0.91799 -0.0331746 0.329938 0.94342 -0.0452985 0.349577 0.935812 
-0.188322 0.396261 0.898617 0.562783 0.167782 0.809397 0.265877 0.186393 0.945816 
0.0765164 0.160324 0.984094 -0.0675073 0.160661 0.984698 -0.0301056 0.165111 0.985815 
0.166148 0.249517 0.954011 -0.0773731 0.027664 0.996618 0.0697713 0.359495 0.930535 
0.0818138 0.0947676 0.992132 0.0745344 0.139847 0.987364 -0.169191 0.28669 0.942965 
-0.0833414 0.262174 0.961415 -0.0404542 0.251677 0.966965 -0.157341 0.243865 0.956961 
-0.348308 0.248614 0.90381 0.623357 -0.0834924 0.777467 0.266398 0.0472143 0.962706 
0.0817339 0.117396 0.989716 -0.0271551 0.135974 0.99034 0.0130662 0.173782 0.984698 
-0.0768236 0.025804 0.996711 0.185345 0.11377 0.976065 -0.0782691 0.0254158 0.996608 
-0.0775718 0.0241005 0.996695 -0.0719342 0.038644 0.99666 0.1622 -0.0779336 0.983676 
-0.0224879 0.0496896 0.998511 -0.0733524 0.143616 0.986911 -0.0692936 0.118304 0.990557 
-0.177678 0.0946924 0.979522 -0.379485 0.0269264 0.924806 0.435193 -0.211059 0.875249 
0.161448 -0.00176624 0.98688 0.00325288 0.0669388 0.997752 -0.0446371 0.109486 0.992986 
0.0321055 0.031136 0.998999 -0.00102057 -0.104718 0.994501 -0.0349016 0.0937093 0.994988 
0.0881741 0.0116105 0.996037 0.054755 0.00655715 0.998478 -0.0294625 0.0210957 0.999343 
-0.0825177 -0.0262803 0.996243 -0.241782 -0.115224 0.963465 -0.451509 -0.191215 0.871537 
0.565716 -0.560592 0.604733 0.346281 -0.351448 0.869812 0.083815 -0.193121 0.977589 
-0.0211037 -0.0423077 0.998882 -0.0383098 -0.00466946 0.999255 -0.00548006 -0.0664139 0.997777 
0.047545 -0.00840292 0.998834 0.0699704 -0.0110447 0.997488 -0.00752927 -0.0658127 0.997804 
-0.108942 -0.138903 0.984295 -0.206444 -0.273453 0.93947 -0.356626 -0.448488 0.819559 
0.319777 -0.587075 0.743697 0.150072 -0.349906 0.924686 0.0193688 -0.214024 0.976636 
-0.00347754 -0.151102 0.988512 0.0193536 -0.176232 0.984158 0.0253765 -0.232687 0.972221 
-0.0833822 -0.352259 0.932181 -0.263681 -0.491475 0.830015 -0.383482 -0.692979 0.610509 
0.187013 -0.539212 0.821144 0.0293674 -0.433172 0.900833 -0.0484555 -0.472922 0.879771 
-0.130732 -0.631372 0.764381 -0.28231 -0.789701 0.544677 0.189145 0.410735 0.89192 
0.287206 0.633132 0.718788 0.0510284 0.423025 0.90468 0.0821149 0.581625 0.809302 
-0.0633112 0.366813 0.928138 -0.065501 0.509176 0.858166 -0.122393 0.336331 0.933757 
-0.146988 0.569567 0.808695 -0.0766162 0.623279 0.778237 0.0562015 0.38604 0.920768 
-0.035154 0.6734 0.738442 -0.0287132 0.465235 0.884721 -0.11936 0.740599 0.661261 
-0.165554 0.835712 0.523619 0.695035 0.558414 0.452879 0.327855 0.382124 0.863998 
0.368122 0.355776 0.859017 0.409198 0.42148 0.809266 -0.0647432 0.298968 0.952064 
0.0295306 0.359635 0.932626 -0.0279514 0.319139 0.947296 -0.0442143 0.313434 0.94858 
-0.0664519 0.431846 0.899496 -0.0845966 0.42244 0.902435 -0.0848566 0.433474 0.897162 
-0.0499229 0.436801 0.898172 -0.0644637 0.492557 0.867889 -0.0935897 0.468486 0.8785 
-0.125618 0.563304 0.816645 -0.217713 0.464806 0.858228 -0.265418 0.63761 0.723192 
-0.445943 0.684452 0.576768 0.36125 0.278244 0.889988 0.559324 0.182827 0.808537 
0.583977 0.359355 0.727898 -0.31102 0.415415 0.854808 -0.378323 0.36461 0.850842 
-0.396054 0.437188 0.80747 -0.665484 0.468482 0.581082 0.575047 0.164145 0.801485 
-0.457884 0.253685 0.852048 -0.617868 0.243168 0.747735 0.66749 -0.0928593 0.738806 
0.664751 -0.200131 0.719759 -0.569395 -0.00256906 0.82206 -0.667412 -0.0343287 0.743897 
0.642474 -0.338887 0.687301 0.718217 -0.395409 0.572552 -0.576263 -0.256899 0.775837 
-0.539815 -0.514974 0.665884 -0.75031 -0.350007 0.56083 0.5753 -0.568275 0.588298 
0.56863 -0.57953 0.583785 0.505965 -0.690636 0.516742 -0.526413 -0.557757 0.641714 
-0.43427 -0.64992 0.623709 -0.556661 -0.595549 0.57918 0.485969 -0.704768 0.516852 
0.52098 -0.765525 0.37756 0.397544 -0.734909 0.549425 0.394394 -0.722605 0.567711 
-0.372804 -0.763435 0.527431 -0.405588 -0.727882 0.552889 -0.397282 -0.733083 0.552048 
-0.448695 -0.875055 0.181523 0.387199 -0.72092 0.574762 0.416048 -0.742854 0.524473 
0.252911 -0.682812 0.685423 0.0432624 -0.682632 0.729481 -0.122231 -0.68009 0.722867 
-0.194258 -0.754758 0.626581 -0.305609 -0.80747 0.504574 -0.291266 -0.808607 0.511193 
0.356903 -0.889436 0.285525 0.0506651 -0.893706 0.445783 -0.193207 -0.917135 0.348618 
0.336725 0.830741 0.443268 0.118186 0.885593 0.449173 -0.0257277 0.890971 0.453332 
-0.0102245 0.996917 0.0777939 -0.126669 0.849232 0.512601 -0.104751 0.832107 0.544634 
-0.0652561 0.850048 0.522647 -0.156633 0.867479 0.472171 -0.175732 0.86957 0.461482 
0.696853 0.568812 0.436863 0.558 0.712608 0.425236 0.561014 0.710382 0.424996 
0.565978 0.718655 0.403985 -0.139131 0.878816 0.456426 -0.131448 0.878145 0.459981 
-0.130884 0.900282 0.415164 -0.18048 0.845341 0.502817 -0.15315 0.949084 0.275291 
-0.281862 0.79181 0.54184 -0.450516 0.701757 0.551881 0.702389 0.560845 0.438296 
-0.465694 0.692327 0.551192 -0.665308 0.516059 0.539489 0.833039 0.357386 0.422282 
-0.704362 0.46592 0.53553 0.902777 0.098868 0.418592 0.997518 0.0616084 0.0340836 
-0.81462 0.223811 0.535073 -0.969425 0.164436 0.182143 0.917889 -0.175052 0.356141 
-0.885477 -0.118042 0.449441 0.829322 -0.449542 0.331868 0.759124 -0.581018 0.293512 
-0.838562 -0.398042 0.37199 -0.757548 -0.552348 0.347898 0.689867 -0.679076 0.250876 
0.582236 -0.781648 0.223667 -0.664768 -0.686657 0.294253 -0.565101 -0.786564 0.248954 
0.520356 -0.836205 0.173178 0.507894 -0.846387 0.160229 0.510997 -0.843085 0.167599 
-0.386896 -0.919038 0.0753718 -0.407971 -0.903961 0.128122 -0.450279 -0.876966 0.167866 
-0.446885 -0.879193 0.165271 0.525694 -0.831852 0.177957 0.53761 -0.820442 0.19455 
-0.351712 -0.922354 0.159877 -0.386865 -0.919266 0.072705 -0.388986 -0.917395 0.0841209 
0.381971 -0.891855 0.242266 0.360402 -0.900309 0.244039 0.0478231 -0.97642 0.210517 
-0.27002 -0.943713 0.191035 -0.196061 -0.95804 0.209094 -0.00803448 0.999965 0.00247755 
0.580756 0.809323 -0.0878604 0.36914 0.926711 -0.070298 0.106956 0.994084 -0.018906 
0.131776 0.991013 -0.023003 -0.0776763 0.996969 0.00447756 -0.00451 0.998171 -0.0602859 
-0.119737 0.992777 0.00754383 -0.11587 0.993264 0.00122741 -0.0978245 0.995157 -0.00963675 
-0.178474 0.983815 0.0159826 -0.186991 0.979584 0.0738156 -0.11652 0.990179 0.0772614 
-0.123914 0.984046 0.127663 0.627495 0.77374 -0.0870412 0.748545 0.658661 -0.0764633 
0.578126 0.756719 -0.305199 -0.22936 0.958381 0.170001 -0.265873 0.945914 0.185901 
-0.449388 0.868783 0.208009 0.800228 0.59492 -0.0755318 0.739926 0.587296 -0.328013 
-0.616836 0.750111 0.238428 -0.684917 0.689296 0.236134 0.931688 0.362272 -0.0267674 
0.996713 0.0807454 0.00666231 -0.873841 0.435335 0.216529 -0.970703 0.168526 0.171272 
0.998189 0.0596582 0.00771832 0.999966 0.0059019 0.00569341 0.997823 0.0625905 -0.0207715 
-0.980257 0.11595 0.160163 0.979141 -0.203107 -0.00558987 -0.978532 -0.185966 0.0888372 
0.883337 -0.46872 -0.00411507 0.760815 -0.648903 0.00917832 -0.883557 -0.468067 0.0154775 
-0.715363 -0.69765 -0.03925 0.717397 -0.696454 0.0171122 0.563194 -0.824838 0.0495585 
-0.677171 -0.734377 -0.0461508 -0.532316 -0.84397 -0.065992 0.522638 -0.849291 0.0745294 
0.51058 -0.85445 0.096034 0.528911 -0.837108 0.139654 -0.363147 -0.918358 -0.157299 
-0.353836 -0.925868 -0.132545 -0.410823 -0.907838 -0.083998 -0.394311 -0.914981 -0.0856126 
-0.396137 -0.908709 -0.131616 0.532479 -0.835772 0.133985 0.519185 -0.853599 0.0426079 
0.517 -0.852797 0.0738162 -0.392487 -0.896093 -0.207297 -0.376927 -0.910737 -0.168771 
-0.397248 -0.899034 -0.184207 -0.325095 -0.877285 -0.353106 0.364832 -0.929319 -0.0571248 
0.324329 -0.942553 -0.0800257 0.26159 -0.949567 -0.172898 0.0208559 -0.992217 -0.122765 
-0.0566308 -0.922379 -0.382113 -0.296981 -0.933901 -0.199077 -0.2338 -0.953796 -0.188706 
-0.252681 -0.920905 -0.296793 0.408879 0.76471 -0.498033 0.202407 0.880577 -0.428503 
0.00915988 0.937602 -0.347591 -0.132241 0.922395 -0.362905 -0.136133 0.908425 -0.395262 
-0.0540915 0.918373 -0.392001 -0.079168 0.953123 -0.292042 -0.133288 0.961284 -0.241179 
-0.0936152 0.976285 -0.195201 -0.0792501 0.978467 -0.19058 0.488319 0.700069 -0.521006 
0.531218 0.649676 -0.543808 0.41728 0.665289 -0.619086 0.243707 0.615756 -0.749301 
-0.100406 0.771372 -0.628413 0.0054329 0.841248 -0.540622 -0.0258613 0.826923 -0.561719 
-0.104524 0.869406 -0.482917 -0.0798372 0.934321 -0.347378 -0.203333 0.963632 -0.173408 
-0.0824493 0.956628 -0.279402 -0.235963 0.956862 -0.169519 -0.427039 0.893275 -0.140346 
0.657397 0.553672 -0.511152 0.693217 0.495537 -0.523348 0.452634 0.5148 -0.728083 
-0.642087 0.755248 -0.131619 -0.674998 0.725789 -0.132694 0.745638 0.391959 -0.538881 
0.6482 0.363278 -0.669227 -0.896141 0.422028 -0.137195 -0.976147 0.125557 -0.177122 
0.888264 0.120188 -0.44333 0.601405 0.200806 -0.773297 -0.979997 -0.00209937 -0.198999 
-0.970291 0.0784122 -0.22888 0.914173 -0.168695 -0.368551 0.614729 -0.0548483 -0.786829 
-0.932666 -0.267262 -0.242293 0.827601 -0.432298 -0.358042 0.786479 -0.534108 -0.310129 
0.725924 -0.366387 -0.582061 -0.785854 -0.536473 -0.307619 -0.704835 -0.623344 -0.3386 
-0.691795 -0.546806 -0.471617 0.739128 -0.623887 -0.25388 0.631716 -0.753927 -0.180357 
-0.387674 -0.861838 -0.327024 -0.570904 -0.747732 -0.339066 -0.503669 -0.798101 -0.330683 
-0.48635 -0.742333 -0.460875 0.593765 -0.796772 -0.112237 0.570228 -0.818835 -0.0659531 
-0.310146 -0.868023 -0.387745 -0.316876 -0.881984 -0.348846 -0.229534 -0.701155 -0.675053 
-0.366704 -0.868615 -0.333219 -0.340308 -0.873367 -0.348453 -0.315599 -0.821276 -0.475292 
0.514944 -0.857219 0.00283248 0.510048 -0.860145 0.00112567 0.50228 -0.855177 -0.128014 
0.383741 -0.916228 -0.115195 0.177778 -0.942089 -0.284364 -0.0700677 -0.904691 -0.420267 
-0.280219 -0.814055 -0.508715 -0.24054 -0.629237 -0.739054 -0.310348 -0.863955 -0.396567 
-0.307628 -0.826364 -0.471686 -0.256128 -0.766715 -0.588682 0.0704803 0.649209 -0.757337 
-0.103092 0.70184 -0.704835 0.358633 0.437834 -0.824429 0.171287 0.605883 -0.776896 
0.244784 0.559169 -0.792093 0.0745853 0.60247 -0.794649 -0.0967689 0.715571 -0.691804 
-0.0951415 0.680017 -0.726997 -0.0836797 0.727492 -0.680994 0.0220748 0.800646 -0.598731 
-0.0256375 0.793681 -0.607794 -0.0891152 0.720853 -0.687335 -0.0352204 0.748843 -0.661811 
-0.0694201 0.80101 -0.594612 -0.187308 0.792851 -0.579917 -0.39603 0.732763 -0.55337 
0.360451 0.418826 -0.833463 0.416324 0.36314 -0.833549 0.350099 0.397057 -0.848396 
0.2413 0.331561 -0.912054 0.114072 0.297911 -0.947754 0.0224483 0.364645 -0.930876 
0.0362612 0.461208 -0.886551 0.0411069 0.540687 -0.840219 -0.134595 0.429427 -0.893015 
-0.104785 0.370441 -0.922927 0.0339991 0.455505 -0.889584 0.00193754 0.558961 -0.829191 
-0.155318 0.628115 -0.762462 -0.460979 0.69263 -0.554763 -0.383266 0.670511 -0.635234 
-0.657289 0.50441 -0.559948 0.449971 0.327403 -0.830863 0.415166 0.332626 -0.846757 
0.26013 0.281766 -0.923548 0.175097 0.180762 -0.967815 0.121428 0.126993 -0.984443 
0.0873072 0.140139 -0.986275 -0.0867612 0.143873 -0.985786 0.165261 0.239794 -0.956654 
-0.347461 0.338169 -0.874593 -0.709678 0.410733 -0.572412 -0.649935 0.401786 -0.645099 
0.529436 0.205181 -0.823163 0.3875 0.186147 -0.90288 0.177425 0.156595 -0.971596 
0.080345 0.102957 -0.991436 0.0830297 0.0453285 -0.995516 -0.0142211 0.190067 -0.981668 
-0.812563 0.0442427 -0.581192 -0.611458 0.0480939 -0.789814 0.602192 -0.050823 -0.796732 
0.370933 0.0141252 -0.928552 0.177815 0.0489354 -0.982846 0.0639241 0.0451562 -0.996933 
0.0372346 -0.0311089 -0.998822 -0.0220014 -0.140695 -0.989809 -0.092522 -0.19532 -0.976366 
0.150823 -0.202911 -0.967512 -0.353247 -0.191828 -0.915652 -0.74628 -0.295227 -0.596579 
-0.668626 -0.448772 -0.59291 -0.654628 -0.28652 -0.699549 0.62207 -0.293155 -0.726009 
0.479131 -0.19144 -0.856612 0.196143 -0.0607072 -0.978694 -0.00733243 -0.0427936 -0.999057 
-0.0979898 -0.0422985 -0.994288 -0.104206 -0.111693 -0.988264 -0.000750066 -0.11222 -0.993683 
0.209275 -0.0524966 -0.976447 -0.190114 -0.406187 -0.893795 -0.592641 -0.540287 -0.597382 
-0.466978 -0.642919 -0.607114 -0.42111 -0.487966 -0.764563 0.63148 -0.474952 -0.612906 
0.626804 -0.486305 -0.608789 0.619357 -0.470353 -0.628622 0.322014 -0.296838 -0.898996 
0.0854614 -0.14678 -0.98547 -0.0337844 -0.0542828 -0.997954 -0.100873 -0.0329269 -0.994354 
-0.0316159 -0.0464772 -0.998419 0.0570247 -0.172054 -0.983436 0.0176731 -0.348895 -0.936995 
-0.0372187 -0.380395 -0.924075 -0.226009 -0.69501 -0.682554 -0.0762752 -0.441784 -0.893873 
-0.252842 -0.710906 -0.656265 -0.176493 -0.558251 -0.810683 -0.384989 -0.684284 -0.619305 
-0.336202 -0.700283 -0.62974 -0.315043 -0.658025 -0.683923 0.578985 -0.650633 -0.491379 
0.574373 -0.661436 -0.482285 0.562387 -0.632214 -0.532941 0.436868 -0.75752 -0.485088 
0.246089 -0.38789 -0.888246 0.0173106 -0.252661 -0.9674 -0.0900877 -0.174966 -0.980444 
-0.147207 -0.229499 -0.962112 -0.199199 -0.542956 -0.815793 -0.115908 -0.372014 -0.920962 
-0.144946 -0.597005 -0.789034 -0.0857153 -0.498465 -0.862662 -0.223046 -0.693464 -0.685097 
-0.157312 -0.655495 -0.738634 -0.123795 -0.592242 -0.796193 0.368445 -0.782215 -0.502383 
0.215941 -0.799033 -0.561173 0.18622 -0.690487 -0.698964 -0.0259463 -0.718803 -0.69473 
-0.0691364 -0.561373 -0.82467 -0.20726 -0.571607 -0.79392 -0.192532 -0.589281 -0.784653 
-0.196893 -0.53924 -0.818813 0.155838 0.141703 -0.977566 0.034981 0.375196 -0.926285 
-0.265385 0.213323 -0.940247 0.118724 0.290281 -0.949548 -0.092141 0.348806 -0.932655 
0.154613 0.13959 -0.978064 0.0592 0.0467631 -0.99715 0.156543 0.139565 -0.977761 
0.0356157 0.135673 -0.990113 -0.26587 0.159483 -0.950725 -0.293318 0.161411 -0.94229 
0.137798 0.258147 -0.956228 0.181867 0.187101 -0.965359 0.128464 0.261421 -0.956638 
-0.192579 0.306845 -0.932073 -0.0801792 0.289632 -0.953774 -0.297494 0.130277 -0.945793 
0.0566837 0.0253556 -0.99807 0.0230344 -0.0424249 -0.998834 0.051265 0.0216019 -0.998451 
0.0573207 -0.0718214 -0.995769 0.066903 -0.0634943 -0.995737 0.090734 -0.224452 -0.970252 
0.0516081 -0.222848 -0.973486 -0.113348 0.11017 -0.987428 -0.170766 0.0495349 -0.984066 
0.133206 0.175903 -0.975353 -0.0011333 0.133428 -0.991058 0.18451 0.167913 -0.968381 
0.0863048 0.0974242 -0.991494 -0.0707211 0.0608329 -0.995639 -0.308774 0.0467827 -0.949984 
-0.329798 -0.116194 -0.936874 -0.272728 0.0468597 -0.960949 0.14556 -0.102563 -0.984019 
0.135683 -0.026925 -0.990386 0.00956707 0.103853 -0.994547 0.0800017 -0.0164895 -0.996658 
0.02177 -0.0801321 -0.996547 -0.328886 -0.184307 -0.92621 -0.172473 -0.337479 -0.925398 
-0.128449 -0.143237 -0.981317 0.15621 -0.171986 -0.972635 0.124034 -0.219251 -0.967752 
0.1433 -0.192777 -0.970722 -0.0178773 -0.206155 -0.978356 -0.0160192 -0.177681 -0.983958 
-0.0052252 -0.238812 -0.971052 -0.00196313 -0.22904 -0.973415 -0.0979754 -0.354113 -0.930056 
-0.0522307 -0.343744 -0.93761 -0.0418055 -0.322637 -0.945599 
