# vtk DataFile Version 4.2
vtk output
ASCII
DATASET POLYDATA
POINTS 512 float
-18.7091 -37.2388 -18.5039 -10.7646 -37.2388 -20.8673 -2.82011 -37.2388 -22.1944 
5.12442 -37.2388 -22.301 13.0689 -37.2388 -21.4091 21.0135 -37.2388 -20.6292 
28.958 -37.2388 -17.6429 -26.6537 -29.2942 -18.9727 -18.7091 -29.2942 -21.8709 
-10.7646 -29.2942 -23.2213 -2.82011 -29.2942 -24.0309 5.12442 -29.2942 -24.1965 
13.0689 -29.2942 -23.6234 21.0135 -29.2942 -23.1737 28.958 -29.2942 -22.5224 
36.9025 -29.2942 -19.5643 -34.5982 -21.3497 -17.203 -26.6537 -21.3497 -20.9737 
-18.7091 -21.3497 -23.0185 -10.7646 -21.3497 -23.5526 -2.82011 -21.3497 -23.3789 
5.12442 -21.3497 -23.6276 13.0689 -21.3497 -23.5341 21.0135 -21.3497 -23.0294 
28.958 -21.3497 -22.6516 36.9025 -21.3497 -22.3221 44.847 -21.3497 -19.7185 
-34.5982 -13.4052 -19.3328 -26.6537 -13.4052 -21.9395 -18.7091 -13.4052 -23.2727 
-10.7646 -13.4052 -23.2569 -2.82011 -13.4052 -22.3471 5.12442 -13.4052 -23.0855 
13.0689 -13.4052 -22.697 21.0135 -13.4052 -22.0749 28.958 -13.4052 -22.463 
36.9025 -13.4052 -22.3316 44.847 -13.4052 -21.4054 -34.5982 -5.46067 -20.5348 
-26.6537 -5.46067 -22.5009 -18.7091 -5.46067 -23.4211 -10.7646 -5.46067 -23.7147 
-2.82011 -5.46067 -21.9237 5.12442 -5.46067 -23.9011 13.0689 -5.46067 -23.1486 
21.0135 -5.46067 -21.9954 28.958 -5.46067 -22.8787 36.9025 -5.46067 -23.2508 
44.847 -5.46067 -22.2602 52.7915 -5.46067 -18.141 -42.5427 2.48385 -17.3752 
-34.5982 2.48385 -20.9275 -26.6537 2.48385 -22.6371 -18.7091 2.48385 -23.1111 
-10.7646 2.48385 -23.2937 -2.82011 2.48385 -21.8712 5.12442 2.48385 -23.8536 
13.0689 2.48385 -23.2228 21.0135 2.48385 -22.4656 28.958 2.48385 -23.4301 
36.9025 2.48385 -23.6576 44.847 2.48385 -22.3426 52.7915 2.48385 -17.3633 
-34.5982 10.4284 -20.5943 -26.6537 10.4284 -22.3222 -18.7091 10.4284 -22.905 
-10.7646 10.4284 -23.045 -2.82011 10.4284 -22.8626 5.12442 10.4284 -23.0963 
13.0689 10.4284 -21.9717 21.0135 10.4284 -22.422 28.958 10.4284 -23.0843 
36.9025 10.4284 -23.0259 44.847 10.4284 -21.2889 -34.5982 18.3729 -19.1747 
-26.6537 18.3729 -22.0361 -18.7091 18.3729 -22.8936 -10.7646 18.3729 -23.027 
-2.82011 18.3729 -23.1522 5.12442 18.3729 -22.7056 13.0689 18.3729 -21.7176 
21.0135 18.3729 -21.6934 28.958 18.3729 -21.9941 36.9025 18.3729 -21.6781 
44.847 18.3729 -17.8921 -26.6537 26.3174 -19.9401 -18.7091 26.3174 -21.6658 
-10.7646 26.3174 -22.2642 -2.82011 26.3174 -22.2427 5.12442 26.3174 -22.0661 
13.0689 26.3174 -20.9964 21.0135 26.3174 -20.1758 28.958 26.3174 -19.6483 
36.9025 26.3174 -17.6556 -18.7091 34.2619 -18.2125 -10.7646 34.2619 -19.2374 
-2.82011 34.2619 -19.5333 5.12442 34.2619 -19.0468 13.0689 34.2619 -17.918 
21.0135 34.2619 -17.0407 -18.7091 -39.0389 -16.7032 -10.7646 -42.0044 -16.7032 
-2.82011 -43.7167 -16.7032 5.12442 -43.7588 -16.7032 13.0689 -42.5012 -16.7032 
21.0135 -41.108 -16.7032 28.958 -38.1632 -16.7032 -21.5733 -37.2388 -16.7032 
-26.6537 -32.5964 -16.7032 -26.6537 -37.2388 -10.3543 31.047 -37.2388 -16.7032 
36.9025 -33.7394 -16.7032 -29.8077 -29.2942 -16.7032 -34.5982 -22.4179 -16.7032 
-34.5982 -29.2942 -11.4656 42.2569 -29.2942 -16.7032 44.847 -26.0521 -16.7032 
-35.2704 -21.3497 -16.7032 48.0112 -21.3497 -16.7032 -38.896 -13.4052 -16.7032 
-42.5427 -13.4052 -13.1976 52.3478 -13.4052 -16.7032 52.7915 -11.5778 -16.7032 
52.7915 -13.4052 -15.2855 -42.2473 -5.46067 -16.7032 -42.5427 -3.95206 -16.7032 
-42.5427 -5.46067 -16.4868 53.8928 -5.46067 -16.7032 -43.3436 2.48385 -16.7032 
-42.5427 7.88291 -16.7032 53.3111 2.48385 -16.7032 52.7915 4.57706 -16.7032 
-42.0081 10.4284 -16.7032 -42.5427 10.4284 -16.2759 51.0118 10.4284 -16.7032 
52.7915 10.4284 -11.5755 -38.5404 18.3729 -16.7032 -42.5427 18.3729 -13.1647 
-34.5982 24.8826 -16.7032 46.2664 18.3729 -16.7032 44.847 20.3667 -16.7032 
-33.5404 26.3174 -16.7032 -34.5982 26.3174 -15.9741 -26.6537 32.2747 -16.7032 
28.958 31.4227 -16.7032 38.6951 26.3174 -16.7032 36.9025 27.8008 -16.7032 
44.847 26.3174 -9.63609 -23.0546 34.2619 -16.7032 -26.6537 34.2619 -14.9953 
-18.7091 36.0368 -16.7032 -10.7646 37.6239 -16.7032 -2.82011 38.0123 -16.7032 
5.12442 37.2821 -16.7032 13.0689 35.8451 -16.7032 22.3972 34.2619 -16.7032 
21.0135 34.6854 -16.7032 28.958 34.2619 -14.5951 36.9025 34.2619 -9.32264 
-10.7646 42.2065 -10.5835 -2.82011 42.2065 -10.9801 5.12442 42.2065 -9.69848 
-26.6537 -38.005 -8.75868 -18.7091 -41.7963 -8.75868 -10.7646 -43.9005 -8.75868 
-2.82011 -44.6722 -8.75868 5.12442 -44.3726 -8.75868 13.0689 -43.5223 -8.75868 
21.0135 -41.9359 -8.75868 28.958 -39.3795 -8.75868 -27.8217 -37.2388 -8.75868 
-34.5982 -31.494 -8.75868 33.6566 -37.2388 -8.75868 28.958 -37.2388 -2.89677 
36.9025 -35.6344 -8.75868 -36.5061 -29.2942 -8.75868 44.5894 -29.2942 -8.75868 
44.847 -29.0105 -8.75868 -41.7204 -21.3497 -8.75868 -42.5427 -19.7889 -8.75868 
-42.5427 -21.3497 -6.29584 50.5582 -21.3497 -8.75868 52.7915 -16.6425 -8.75868 
-45.4789 -13.4052 -8.75868 54.1549 -13.4052 -8.75868 52.7915 -13.4052 -5.19803 
-47.8519 -5.46067 -8.75868 56.0955 -5.46067 -8.75868 -48.7949 2.48385 -8.75868 
-50.4872 2.48385 -1.63615 55.6332 2.48385 -8.75868 -48.0687 10.4284 -8.75868 
53.5057 10.4284 -8.75868 52.7915 12.1952 -8.75868 52.7915 10.4284 -5.2958 
-45.5843 18.3729 -8.75868 -42.5427 23.7479 -8.75868 50.0806 18.3729 -8.75868 
-40.8192 26.3174 -8.75868 -42.5427 26.3174 -4.08429 -34.5982 33.2079 -8.75868 
45.2864 26.3174 -8.75868 44.847 26.8802 -8.75868 -33.3247 34.2619 -8.75868 
-34.5982 34.2619 -5.89463 -26.6537 38.6487 -8.75868 -18.7091 41.7015 -8.75868 
13.0689 41.5793 -8.75868 21.0135 40.7186 -8.75868 28.958 38.5877 -8.75868 
37.349 34.2619 -8.75868 36.9025 34.6029 -8.75868 -16.1157 42.2065 -8.75868 
-18.7091 42.2065 -5.93011 -10.7646 43.1568 -8.75868 -2.82011 43.3308 -8.75868 
8.63756 42.2065 -8.75868 5.12442 42.6639 -8.75868 13.0689 42.2065 -4.40803 
21.0135 42.2065 -1.47325 -26.6537 -38.7798 -0.814163 -18.7091 -41.4097 -0.814163 
-10.7646 -42.2356 -0.814163 -2.82011 -42.0306 -0.814163 5.12442 -40.9352 -0.814163 
13.0689 -39.6258 -0.814163 21.0135 -38.6825 -0.814163 -29.4362 -37.2388 -0.814163 
-34.5982 -33.6065 -0.814163 5.12442 -37.2388 4.94226 13.0689 -37.2388 2.4591 
26.0862 -37.2388 -0.814163 21.0135 -37.2388 0.906413 28.958 -36.032 -0.814163 
36.9025 -31.3316 -0.814163 -38.9817 -29.2942 -0.814163 -42.5427 -24.1775 -0.814163 
28.958 -29.2942 4.41927 39.3238 -29.2942 -0.814163 36.9025 -29.2942 1.16417 
44.847 -23.3057 -0.814163 -44.2082 -21.3497 -0.814163 36.9025 -21.3497 5.0987 
46.3767 -21.3497 -0.814163 44.847 -21.3497 0.690346 -47.5128 -13.4052 -0.814163 
50.415 -13.4052 -0.814163 44.847 -13.4052 4.21697 52.7915 -8.05749 -0.814163 
-49.6634 -5.46067 -0.814163 -50.4872 1.02418 -0.814163 53.6148 -5.46067 -0.814163 
52.7915 -5.46067 0.396213 -50.6702 2.48385 -0.814163 -50.4872 6.49495 -0.814163 
-50.4872 2.48385 3.75467 53.4015 2.48385 -0.814163 52.7915 5.66753 -0.814163 
52.7915 2.48385 0.192967 -50.2995 10.4284 -0.814163 51.7369 10.4284 -0.814163 
-47.9575 18.3729 -0.814163 49.1111 18.3729 -0.814163 -43.6023 26.3174 -0.814163 
-42.5427 27.6982 -0.814163 45.7651 26.3174 -0.814163 44.847 27.6767 -0.814163 
44.847 26.3174 1.5172 -36.4057 34.2619 -0.814163 -34.5982 35.7316 -0.814163 
-26.6537 40.4148 -0.814163 28.958 40.1236 -0.814163 38.7961 34.2619 -0.814163 
36.9025 35.8933 -0.814163 36.9025 34.2619 4.44306 -21.4165 42.2065 -0.814163 
-18.7091 43.051 -0.814163 -18.7091 42.2065 3.46535 -10.7646 44.2107 -0.814163 
-2.82011 44.1244 -0.814163 5.12442 43.2801 -0.814163 5.12442 42.2065 4.06759 
13.0689 42.686 -0.814163 13.0689 42.2065 1.43952 21.4341 42.2065 -0.814163 
21.0135 42.3142 -0.814163 21.0135 42.2065 -0.243521 -26.6537 -37.9594 7.13036 
-18.7091 -39.5756 7.13036 -10.7646 -39.5144 7.13036 -2.82011 -38.066 7.13036 
-28.1311 -37.2388 7.13036 -34.5982 -33.6224 7.13036 -26.6537 -37.2388 10.6141 
-10.7646 -37.2388 14.372 0.241256 -37.2388 7.13036 -2.82011 -37.2388 9.01241 
5.12442 -35.8174 7.13036 13.0689 -33.5997 7.13036 21.0135 -30.5455 7.13036 
-39.4319 -29.2942 7.13036 -42.5427 -25.137 7.13036 13.0689 -29.2942 13.2001 
23.3355 -29.2942 7.13036 21.0135 -29.2942 8.44706 28.958 -24.629 7.13036 
-44.7611 -21.3497 7.13036 32.679 -21.3497 7.13036 28.958 -21.3497 9.01231 
36.9025 -17.7326 7.13036 -47.7952 -13.4052 7.13036 28.958 -13.4052 14.0451 
40.6302 -13.4052 7.13036 36.9025 -13.4052 9.47623 44.847 -6.92418 7.13036 
-49.5242 -5.46067 7.13036 36.9025 -5.46067 13.5778 45.6562 -5.46067 7.13036 
44.847 -5.46067 7.84842 -50.3522 2.48385 7.13036 47.3286 2.48385 7.13036 
44.847 2.48385 9.72116 -50.2898 10.4284 7.13036 46.7716 10.4284 7.13036 
44.847 10.4284 9.4503 -47.8845 18.3729 7.13036 44.8674 18.3729 7.13036 
44.847 18.4305 7.13036 44.847 18.3729 7.15593 -43.6394 26.3174 7.13036 
-42.5427 27.7056 7.13036 -42.5427 26.3174 10.1619 41.879 26.3174 7.13036 
36.9025 32.9824 7.13036 36.9025 26.3174 12.782 -35.9004 34.2619 7.13036 
-34.5982 35.2328 7.13036 -34.5982 34.2619 9.6273 -26.6537 39.2382 7.13036 
-18.7091 41.4541 7.13036 5.12442 41.4881 7.13036 13.0689 40.9194 7.13036 
21.0135 40.4984 7.13036 35.5864 34.2619 7.13036 28.958 38.157 7.13036 
28.958 34.2619 12.6138 -13.0165 42.2065 7.13036 -10.7646 42.4931 7.13036 
-10.7646 42.2065 7.73996 -1.40456 42.2065 7.13036 -2.82011 42.3588 7.13036 
-2.82011 42.2065 7.46453 -18.7091 -37.6621 15.0749 -34.5982 -32.0169 15.0749 
-21.3567 -37.2388 15.0749 -26.6537 -36.2639 15.0749 -13.4543 -37.2388 15.0749 
-18.7091 -37.2388 15.9428 -10.7646 -37.0036 15.0749 -2.82011 -34.4309 15.0749 
5.12442 -31.0674 15.0749 -37.5812 -29.2942 15.0749 -42.5427 -23.2203 15.0749 
-34.5982 -29.2942 18.854 -2.82011 -29.2942 21.4763 9.78857 -29.2942 15.0749 
5.12442 -29.2942 17.2813 13.0689 -27.9066 15.0749 21.0135 -22.0754 15.0749 
-43.676 -21.3497 15.0749 -42.5427 -21.3497 17.0335 13.0689 -21.3497 21.6357 
21.6847 -21.3497 15.0749 21.0135 -21.3497 15.7894 -46.3676 -13.4052 15.0749 
-42.5427 -13.4052 21.201 27.7486 -13.4052 15.0749 21.0135 -13.4052 21.5248 
28.958 -11.8588 15.0749 -47.7493 -5.46067 15.0749 -42.5427 -5.46067 22.9541 
[...]
POINT_DATA 512
SCALARS ImageScalars float
LOOKUP_TABLE default
0 0 0 0 0 0 0 0 0 
0 0 0 0 0 0 0 0 0 
0 0 0 0 0 0 0 0 0 
0 0 0 0 0 0 0 0 0 
0 0 0 0 0 0 0 0 0 
0 0 0 0 0 0 0 0 0 
0 0 0 0 0 0 0 0 0 
0 0 0 0 0 0 0 0 0 
0 0 0 0 0 0 0 0 0 
0 0 0 0 0 0 0 0 0 
0 0 0 0 0 0 0 0 0 
0 0 0 0 0 0 0 0 0 
0 0 0 0 0 0 0 0 0 
0 0 0 0 0 0 0 0 0 
0 0 0 0 0 0 0 0 0 
0 0 0 0 0 0 0 0 0 
0 0 0 0 0 0 0 0 0 
0 0 0 0 0 0 0 0 0 
0 0 0 0 0 0 0 0 0 
0 0 0 0 0 0 0 0 0 
0 0 0 0 0 0 0 0 0 
0 0 0 0 0 0 0 0 0 
0 0 0 0 0 0 0 0 0 
0 0 0 0 0 0 0 0 0 
0 0 0 0 0 0 0 0 0 
0 0 0 0 0 0 0 0 0 
0 0 0 0 0 0 0 0 0 
0 0 0 0 0 0 0 0 0 
0 0 0 0 0 0 0 0 0 
0 0 0 0 0 0 0 0 0 
0 0 0 0 0 0 0 0 0 
0 0 0 0 0 0 0 0 0 
0 0 0 0 0 0 0 0 0 
0 0 0 0 0 0 0 0 0 
0 0 0 0 0 0 0 0 0 
0 0 0 0 0 0 0 0 0 
0 0 0 0 0 0 0 0 0 
0 0 0 0 0 0 0 0 0 
0 0 0 0 0 0 0 0 0 
0 0 0 0 0 0 0 0 0 
0 0 0 0 0 0 0 0 0 
0 0 0 0 0 0 0 0 0 
0 0 0 0 0 0 0 0 0 
0 0 0 0 0 0 0 0 0 
0 0 0 0 0 0 0 0 0 
0 0 0 0 0 0 0 0 0 
0 0 0 0 0 0 0 0 0 
0 0 0 0 0 0 0 0 0 
0 0 0 0 0 0 0 0 0 
0 0 0 0 0 0 0 0 0 
0 0 0 0 0 0 0 0 0 
0 0 0 0 0 0 0 0 0 
0 0 0 0 0 0 0 0 0 
0 0 0 0 0 0 0 0 0 
0 0 0 0 0 0 0 0 0 
0 0 0 0 0 0 0 0 0 
0 0 0 0 0 0 0 0 
NORMALS Normals float
0.399369 0.601351 0.692013 0.212375 0.506397 0.835739 0.08809 0.443961 0.891706 
-0.0484328 0.45114 0.891138 -0.104346 0.506905 0.855663 -0.214391 0.569491 0.793546 
-0.370056 0.722731 0.583711 0.460561 0.38624 0.799188 0.231083 0.241503 0.942485 
0.127652 0.152946 0.979955 0.0610485 0.0668741 0.995892 -0.02596 0.0756637 0.996795 
-0.0628044 0.120868 0.99068 -0.0669042 0.136372 0.988396 -0.222344 0.265536 0.938112 
-0.392356 0.437161 0.809288 0.539441 0.327931 0.775542 0.325517 0.160799 0.931763 
0.152474 0.082604 0.984849 0.0217153 0.00170843 0.999763 0.00470874 -0.104426 0.994521 
0.00995962 -0.0704808 0.997463 -0.0374833 -0.0579624 0.997615 -0.0549127 -0.0684229 0.996144 
-0.042649 -0.00535195 0.999076 -0.142233 0.189442 0.971536 -0.530387 0.37292 0.761328 
0.427905 0.182935 0.885117 0.233358 0.0887477 0.968332 0.0838459 0.0248489 0.996169 
-0.0580125 0.00980732 0.998268 -0.0108361 -0.0916421 0.995733 0.022019 0.0140106 0.999659 
-0.0638971 -0.0269448 0.997593 -0.0145722 -0.0647843 0.997793 0.016268 0.0145402 0.999762 
-0.0681987 0.05828 0.995968 -0.316284 0.123681 0.940568 0.337903 0.09465 0.93641 
0.171375 0.0438683 0.984229 0.0746919 -0.0102149 0.997154 -0.0944508 0.00250191 0.995526 
0.00547111 -0.0301269 0.999531 0.0846176 0.0505228 0.995132 -0.125139 0.0350668 0.991519 
-0.0104968 0.0247161 0.999639 0.0785095 0.0606706 0.995066 -0.0329137 0.0822092 0.996071 
-0.259022 0.0661991 0.9636 -0.764241 0.0598834 0.642144 0.592005 -0.009049 0.805884 
0.306058 0.00234918 0.95201 0.128891 -0.0109875 0.991598 0.0406653 -0.0324397 0.998646 
-0.0777258 -0.042064 0.996087 0.0309454 0.0591809 0.997768 0.0905619 -0.0527422 0.994493 
-0.0900738 -0.0771369 0.992943 0.0162005 0.0272187 0.999498 0.0746719 0.0129881 0.997124 
-0.0611928 -0.013596 0.998033 -0.315278 -0.0618916 0.946979 -0.798273 -0.156216 0.581684 
0.329968 -0.0943221 0.939268 0.144653 -0.0363993 0.988813 0.0446102 -0.0136279 0.998911 
-0.00263304 -0.0166376 0.999858 0.00315159 0.0803373 0.996763 -0.0552626 -0.0702198 0.996 
-0.0427265 -0.0911312 0.994922 0.0695564 -0.0471056 0.996465 0.0380554 -0.0874047 0.995446 
-0.106952 -0.114078 0.987698 -0.402539 -0.247741 0.881242 0.431153 -0.248632 0.867346 
0.20804 -0.139635 0.968102 0.0573938 -0.0751864 0.995516 0.0166011 -0.047265 0.998744 
-0.0199486 -0.0383211 0.999066 -0.0907279 -0.0630997 0.993875 -0.0634733 -0.059698 0.996196 
0.0167967 -0.138292 0.990249 0.000986039 -0.201331 0.979523 -0.2144 -0.309513 0.926409 
-0.556147 -0.451079 0.698018 0.302804 -0.347483 0.887448 0.135216 -0.250905 0.958522 
0.0360578 -0.221031 0.9746 -0.0117555 -0.209807 0.977672 -0.0758224 -0.209009 0.97497 
-0.113787 -0.217874 0.969321 -0.0795394 -0.271041 0.959276 -0.144777 -0.394136 0.907577 
-0.335644 -0.50494 0.795223 0.20365 -0.567561 0.797747 0.0695076 -0.506258 0.859576 
-0.0109543 -0.494938 0.868859 -0.0932823 -0.516113 0.851426 -0.116236 -0.530143 0.839903 
-0.162134 -0.558333 0.813619 0.412523 0.707887 0.573342 0.255279 0.806919 0.532649 
0.0959093 0.886636 0.452414 -0.0689694 0.901449 0.427355 -0.15785 0.8656 0.475206 
-0.250129 0.846389 0.470171 -0.381755 0.771062 0.509635 0.459168 0.648151 0.607507 
0.50559 0.516673 0.690961 0.51335 0.796947 0.318351 -0.417715 0.757571 0.501598 
-0.4863 0.677805 0.551446 0.547309 0.429773 0.718156 0.558677 0.348649 0.752545 
0.69898 0.538962 0.470049 -0.607149 0.572436 0.551077 -0.650602 0.552277 0.521255 
0.560957 0.338607 0.755428 -0.684922 0.475139 0.552381 0.571794 0.244257 0.783192 
0.747136 0.315866 0.584822 -0.810022 0.257213 0.526978 -0.825371 0.214061 0.522437 
-0.870049 0.280546 0.40535 0.610497 0.170547 0.773438 0.617682 0.139242 0.774003 
0.626979 0.174493 0.759242 -0.833773 0.0562945 0.54923 0.626631 -0.00790121 0.779276 
0.620156 -0.121729 0.774976 -0.826066 -0.156122 0.541517 -0.82106 -0.203121 0.533481 
0.609179 -0.16977 0.774647 0.638555 -0.175398 0.749321 -0.767405 -0.319762 0.555735 
-0.925332 -0.33241 0.182382 0.551915 -0.300338 0.777938 0.718447 -0.353452 0.599088 
0.516988 -0.399914 0.75683 -0.61485 -0.474528 0.629906 -0.584596 -0.499986 0.638954 
0.50398 -0.419929 0.754761 0.543293 -0.44109 0.714333 0.366225 -0.549855 0.750692 
-0.220258 -0.540702 0.811866 -0.408996 -0.532918 0.740757 -0.361031 -0.544711 0.756932 
-0.757038 -0.592977 0.274355 0.302741 -0.602802 0.738226 0.397158 -0.649351 0.648544 
0.21495 -0.639305 0.738299 0.0870185 -0.645281 0.758973 -0.0159356 -0.659638 0.751415 
-0.0966564 -0.648967 0.754652 -0.119299 -0.602067 0.789483 -0.178814 -0.57063 0.801503 
-0.163508 -0.577343 0.799962 -0.278571 -0.663179 0.694689 -0.538638 -0.771134 0.339443 
0.0961965 -0.912858 0.396784 -0.0273104 -0.916339 0.399471 -0.1053 -0.940707 0.322463 
0.50048 0.832126 0.238927 0.331205 0.936628 0.114156 0.17263 0.984979 -0.00379256 
0.0312301 0.99405 -0.104355 -0.074618 0.984497 -0.15874 -0.166314 0.973094 -0.159463 
-0.251904 0.958237 -0.135376 -0.381298 0.917962 -0.109352 0.525657 0.813234 0.24967 
0.702569 0.627499 0.335621 -0.455733 0.880338 -0.131576 -0.38785 0.816737 -0.427215 
-0.517061 0.844124 -0.141784 0.734846 0.572744 0.363271 -0.720553 0.67831 -0.143868 
-0.726625 0.672051 -0.142699 0.801399 0.45155 0.392253 0.814833 0.429776 0.389023 
0.831822 0.455654 0.316941 -0.857549 0.502217 -0.111302 -0.91259 0.395135 -0.105114 
0.860749 0.331586 0.386215 -0.941885 0.324879 -0.0854734 -0.889228 0.357551 -0.285361 
0.908895 0.19168 0.370363 -0.995709 0.0880339 -0.0285384 0.926311 0.014967 0.376462 
0.992381 0.0377162 0.117289 -0.987646 -0.156329 -0.0108352 0.893481 -0.183336 0.409975 
-0.947086 -0.320411 0.019114 -0.935986 -0.350067 0.0371877 -0.946651 -0.290962 -0.138542 
0.830837 -0.371165 0.414664 0.771934 -0.488389 0.406932 -0.879094 -0.46243 0.115551 
0.737437 -0.543297 0.401268 0.787367 -0.568143 0.239306 0.611583 -0.694881 0.378294 
-0.775479 -0.587658 0.230848 -0.76569 -0.597736 0.23755 0.581673 -0.723838 0.371101 
0.609291 -0.745491 0.2702 0.431013 -0.8317 0.350005 0.249559 -0.911423 0.327152 
-0.113521 -0.941081 0.318557 -0.173468 -0.912735 0.369897 -0.3241 -0.867774 0.376732 
-0.555528 -0.771143 0.311011 -0.542875 -0.778545 0.314889 0.19803 -0.92674 0.319275 
0.242971 -0.948841 0.201658 0.0944816 -0.945752 0.310847 -0.031432 -0.956671 0.289469 
-0.108153 -0.950537 0.291173 -0.105116 -0.95524 0.276527 -0.0845792 -0.989488 0.117299 
-0.157849 -0.987344 0.0153567 0.412269 0.911043 -0.00598304 0.207189 0.9687 -0.13672 
0.0390044 0.961886 -0.270655 -0.073696 0.908243 -0.411903 -0.133585 0.856815 -0.49802 
-0.125378 0.824965 -0.551101 -0.178902 0.803319 -0.568043 0.486856 0.873269 0.0193146 
0.645497 0.758793 0.0869866 -0.201955 0.830499 -0.519121 -0.158262 0.799707 -0.579157 
-0.300566 0.773297 -0.558276 -0.181716 0.765895 -0.616753 -0.370839 0.737602 -0.564289 
-0.486299 0.619203 -0.616523 0.754002 0.642584 0.13626 0.84469 0.510956 0.159445 
-0.359747 0.531723 -0.766715 -0.526786 0.591222 -0.6107 -0.464511 0.563593 -0.683076 
-0.618054 0.500963 -0.605842 0.877316 0.452579 0.159651 -0.418237 0.421419 -0.804664 
-0.630788 0.473915 -0.61442 -0.593533 0.460306 -0.66018 0.941218 0.311124 0.131567 
-0.74254 0.350836 -0.570568 -0.579578 0.340688 -0.740284 -0.828764 0.217366 -0.515657 
0.977308 0.188394 0.0968354 0.993573 0.0666263 0.0915074 -0.85526 0.139996 -0.49893 
-0.82709 0.149916 -0.541707 0.995146 0.0394492 0.0901563 0.992195 -0.0627367 0.107766 
0.998087 0.0447723 -0.0426267 -0.895898 -0.10501 -0.431671 -0.901143 -0.156565 -0.404263 
-0.880822 -0.0954495 -0.463727 0.978728 -0.163396 0.124068 -0.903683 -0.231165 -0.360443 
0.92362 -0.362968 0.123208 -0.895843 -0.354715 -0.267662 0.807874 -0.573752 0.134717 
0.786312 -0.603792 0.13095 -0.857169 -0.488774 -0.162359 -0.836612 -0.52718 -0.148867 
-0.846483 -0.469073 -0.251867 0.633676 -0.76719 0.0993683 0.592399 -0.800824 0.0880013 
0.40902 -0.912113 0.0274315 -0.343196 -0.939024 -0.0212449 -0.672541 -0.736641 -0.0710533 
-0.623495 -0.779918 -0.0546054 -0.646844 -0.702835 -0.296 0.286136 -0.958185 -0.00278756 
0.225794 -0.974041 -0.0161644 0.205627 -0.963547 -0.171154 0.0643624 -0.997169 -0.0388698 
-0.0585482 -0.996641 -0.0572601 -0.0905664 -0.993543 -0.0683343 -0.0879291 -0.970964 -0.222478 
-0.0631224 -0.997243 -0.039022 -0.0589277 -0.991245 -0.118156 -0.16496 -0.986207 -0.0135477 
-0.155714 -0.987711 -0.0133895 -0.155946 -0.987128 -0.035491 0.327614 0.933306 -0.146998 
0.0864415 0.970267 -0.226077 -0.0843333 0.951117 -0.297092 -0.202233 0.887781 -0.413457 
0.373687 0.917637 -0.135277 0.588303 0.805108 -0.0755021 0.308743 0.921902 -0.234038 
-0.169412 0.907924 -0.383371 -0.215166 0.86545 -0.452438 -0.230479 0.879484 -0.416399 
-0.234291 0.825125 -0.514079 -0.247935 0.774986 -0.581312 -0.320838 0.643302 -0.695144 
0.733078 0.677565 -0.0591868 0.841145 0.539583 -0.0364139 -0.33702 0.749505 -0.569789 
-0.346912 0.598552 -0.722072 -0.35765 0.636535 -0.683308 -0.412475 0.46787 -0.78164 
0.896384 0.442087 -0.0324886 -0.426774 0.432379 -0.7943 -0.468691 0.448189 -0.76122 
-0.429952 0.419674 -0.799384 0.957549 0.280299 -0.0673259 -0.529885 0.476712 -0.701404 
-0.503531 0.384079 -0.773912 -0.462858 0.423675 -0.778629 -0.607147 0.283971 -0.742114 
0.981728 0.153971 -0.111819 -0.530876 0.374157 -0.76038 -0.630277 0.258756 -0.731981 
-0.616662 0.270889 -0.739154 0.988897 0.0476169 -0.140769 -0.745836 0.0372218 -0.665088 
-0.708079 0.0710206 -0.702553 0.978483 -0.150566 -0.141067 -0.798033 -0.119566 -0.590633 
-0.764538 -0.101978 -0.63646 0.924581 -0.355222 -0.137722 -0.80307 -0.239311 -0.545718 
-0.803004 -0.240367 -0.545351 -0.802666 -0.239032 -0.546435 0.796316 -0.587475 -0.144066 
0.769755 -0.621124 -0.147251 0.760474 -0.59714 -0.255153 -0.768509 -0.41315 -0.48857 
-0.646206 -0.629025 -0.432141 -0.63127 -0.376172 -0.678228 0.573369 -0.797859 -0.186198 
0.539794 -0.819311 -0.193268 0.525537 -0.803184 -0.280547 0.348261 -0.899413 -0.26414 
0.184888 -0.933304 -0.307833 -0.0845344 -0.942769 -0.322553 -0.057683 -0.941729 -0.331389 
-0.154781 -0.921777 -0.355485 -0.593978 -0.683772 -0.423846 -0.359761 -0.843365 -0.399133 
-0.372328 -0.681671 -0.629839 0.0895626 -0.94145 -0.325038 0.0524299 -0.941891 -0.331802 
0.0517783 -0.935052 -0.350708 -0.0640751 -0.942748 -0.327292 -0.0595894 -0.942472 -0.328932 
-0.058824 -0.938968 -0.338938 0.0385522 0.937408 -0.346093 0.572826 0.749587 -0.331648 
0.116012 0.930324 -0.347905 0.288206 0.890205 -0.352806 -0.103696 0.919531 -0.379091 
0.0383251 0.925676 -0.376371 -0.178118 0.900562 -0.396562 -0.314502 0.820697 -0.477017 
-0.324747 0.76923 -0.550295 0.659176 0.674596 -0.332276 0.815799 0.484452 -0.315877 
0.561163 0.642725 -0.521536 -0.334252 0.60986 -0.718573 -0.343522 0.748005 -0.567874 
-0.326948 0.717636 -0.614902 -0.363592 0.727077 -0.582374 -0.578118 0.537509 -0.613892 
0.84553 0.430236 -0.316189 0.806643 0.424301 -0.411455 -0.319801 0.565149 -0.760482 
-0.586422 0.521495 -0.6198 -0.585494 0.524056 -0.618516 0.910687 0.239119 -0.336855 
0.735236 0.213502 -0.643307 -0.55776 0.468917 -0.684851 -0.598808 0.344568 -0.722981 
-0.538075 0.454621 -0.709785 0.925609 0.108429 -0.362616 0.650135 0.0707398 -0.756518 
-0.524107 0.378445 -0.762949 -0.494856 0.316245 -0.809387 -0.552424 0.282223 -0.784333 
0.913707 -0.00234797 -0.406368 -0.369066 0.08175 -0.925801 -0.597032 0.152536 -0.787582 
-0.556669 0.159499 -0.815279 0.884082 -0.15716 -0.440113 0.662949 -0.172102 -0.728615 
-0.230569 -0.0897391 -0.968909 -0.297215 -0.0675373 -0.952419 -0.608447 -0.0587049 -0.79142 
-0.537654 -0.0580769 -0.841163 0.818096 -0.354858 -0.452542 0.731856 -0.505988 -0.456469 
0.695968 -0.349464 -0.627298 -0.255343 -0.114789 -0.960012 -0.342188 -0.140693 -0.929039 
-0.588929 -0.192721 -0.78487 -0.5841 -0.223189 -0.780394 -0.574492 -0.19168 -0.79575 
0.653247 -0.592277 -0.471674 0.4831 -0.716454 -0.503298 0.44341 -0.541082 -0.714575 
-0.172082 -0.336788 -0.925722 -0.224197 -0.306715 -0.92502 -0.530584 -0.354913 -0.769751 
-0.379553 -0.539925 -0.751279 -0.376156 -0.32618 -0.867245 0.33247 -0.77117 -0.542918 
0.276294 -0.780529 -0.560746 0.264302 -0.755027 -0.600065 0.140968 -0.797877 -0.586107 
0.122607 -0.700888 -0.702655 0.0368918 -0.785988 -0.61714 0.025727 -0.667887 -0.743818 
-0.03617 -0.789703 -0.612422 -0.0308558 -0.659157 -0.751372 -0.0759536 -0.789548 -0.60897 
-0.084523 -0.6739 -0.733972 -0.109529 -0.754314 -0.647313 -0.127559 -0.664099 -0.736683 
-0.258071 -0.649599 -0.715137 -0.212991 -0.673015 -0.708298 -0.214568 -0.641433 -0.736562 
0.305928 0.618013 -0.724202 0.031767 0.677722 -0.734632 -0.222658 0.612909 -0.758133 
0.3714 0.576466 -0.727838 0.485895 0.446529 -0.751344 0.307561 0.569594 -0.762213 
0.0105112 0.506884 -0.86195 -0.285341 0.563524 -0.775256 -0.218029 0.527382 -0.821177 
-0.310225 0.514257 -0.799562 -0.229376 0.491189 -0.84031 0.540998 0.374422 -0.75308 
0.463164 0.35914 -0.810245 0.208436 0.229109 -0.950822 0.014001 0.206411 -0.978365 
-0.15204 0.236632 -0.95963 -0.248386 0.339267 -0.907305 -0.243918 0.498759 -0.831711 
-0.218152 0.472894 -0.853687 -0.303101 0.4999 -0.811313 0.619993 0.192854 -0.760536 
0.359409 0.132387 -0.923742 0.156792 0.0815744 -0.984257 0.0157332 0.0471196 -0.998765 
-0.0763054 0.0724906 -0.994446 -0.0956461 0.156345 -0.983061 -0.108461 0.309905 -0.944561 
-0.521473 0.335113 -0.784707 -0.284196 0.335474 -0.898159 -0.545798 0.18148 -0.818028 
0.645321 0.0699353 -0.760704 0.640969 -0.0166678 -0.767386 0.338141 0.0350693 -0.940442 
0.113896 0.0313335 -0.992998 0.00756462 0.0261579 -0.999629 -0.045786 0.0198586 -0.998754 
-0.00777027 -0.0199524 -0.999771 -0.039553 0.0310813 -0.998734 -0.285221 0.0267798 -0.958087 
-0.502799 0.110486 -0.857313 -0.504175 0.074893 -0.860348 0.637785 -0.0481495 -0.768708 
0.63724 -0.050552 -0.769005 0.637016 -0.048198 -0.769343 0.344147 -0.0397392 -0.938074 
0.137499 -0.0130463 -0.990416 0.00578136 -0.00265011 -0.99998 -0.12439 -0.0219988 -0.99199 
-0.0808393 -0.0879245 -0.992842 -0.0593251 -0.160976 -0.985174 -0.264114 -0.20431 -0.942603 
-0.348182 -0.0723929 -0.934628 -0.315577 -0.0899676 -0.944625 -0.348449 -0.0926288 -0.93274 
0.58792 -0.172305 -0.790355 0.354502 -0.161623 -0.920981 0.160302 -0.139598 -0.977147 
-0.00154121 -0.132744 -0.991149 -0.130609 -0.124175 -0.983627 -0.143227 -0.0885577 -0.98572 
-0.154181 -0.147904 -0.97691 -0.238929 -0.11401 -0.964321 -0.253697 -0.167597 -0.952654 
0.455053 -0.335679 -0.824771 0.390622 -0.395932 -0.831055 0.377021 -0.332479 -0.864473 
0.176356 -0.302322 -0.936749 0.0187485 -0.291837 -0.956284 -0.0742755 -0.25974 -0.962818 
-0.104613 -0.185894 -0.976985 -0.148078 -0.17941 -0.972566 -0.232055 -0.134715 -0.963329 
-0.197065 -0.228208 -0.95346 -0.214256 -0.149027 -0.965342 0.222264 -0.505347 -0.8338 
0.192544 -0.517998 -0.83343 0.190477 -0.502783 -0.843165 0.0629689 -0.50703 -0.859625 
0.0502526 -0.463611 -0.884613 -0.0041383 -0.479534 -0.877513 -0.0143601 -0.421594 -0.906671 
-0.0543388 -0.432192 -0.900143 -0.0606894 -0.381957 -0.922185 -0.127486 -0.356247 -0.925654 
-0.115401 -0.37642 -0.919234 -0.117033 -0.36129 -0.92508 
