# vtk DataFile Version 4.2
vtk output
ASCII
DATASET POLYDATA
POINTS 546 float
-30.0329 -37.6405 -14.8731 -21.956 -37.6405 -15.1327 -13.8791 -37.6405 -14.9366 
-5.80212 -37.6405 -15.1896 2.2748 -37.6405 -16.2154 10.3517 -37.6405 -15.7703 
18.4287 -37.6405 -14.2824 -38.1098 -29.5635 -14.3257 -30.0329 -29.5635 -15.8276 
-21.956 -29.5635 -16.8066 -13.8791 -29.5635 -17.261 -5.80212 -29.5635 -16.9855 
2.2748 -29.5635 -17.5941 10.3517 -29.5635 -17.5104 18.4287 -29.5635 -16.5856 
26.5056 -29.5635 -16.0622 34.5825 -29.5635 -15.5385 -30.0329 -21.4866 -15.8489 
-21.956 -21.4866 -16.7445 -13.8791 -21.4866 -16.9707 -5.80212 -21.4866 -16.6397 
2.2748 -21.4866 -17.5898 10.3517 -21.4866 -17.0036 18.4287 -21.4866 -16.7584 
26.5056 -21.4866 -17.6731 34.5825 -21.4866 -17.8388 42.6595 -21.4866 -17.4333 
50.7364 -21.4866 -15.9001 -38.1098 -13.4097 -14.2449 -30.0329 -13.4097 -15.3401 
-21.956 -13.4097 -15.2312 -13.8791 -13.4097 -16.0834 -5.80212 -13.4097 -18.4571 
2.2748 -13.4097 -17.6547 10.3517 -13.4097 -15.7852 18.4287 -13.4097 -16.7962 
26.5056 -13.4097 -18.6061 34.5825 -13.4097 -19.7222 42.6595 -13.4097 -19.6376 
50.7364 -13.4097 -17.9845 58.8133 -13.4097 -14.6069 -46.1868 -5.33275 -14.2399 
-38.1098 -5.33275 -16.1158 -30.0329 -5.33275 -16.208 -21.956 -5.33275 -15.8493 
-13.8791 -5.33275 -18.3451 -5.80212 -5.33275 -21.6356 2.2748 -5.33275 -17.7435 
10.3517 -5.33275 -18.8657 18.4287 -5.33275 -17.8089 26.5056 -5.33275 -18.8911 
34.5825 -5.33275 -19.9958 42.6595 -5.33275 -20.2437 50.7364 -5.33275 -19.5695 
58.8133 -5.33275 -16.6941 -46.1868 2.74418 -15.5598 -38.1098 2.74418 -17.7221 
-30.0329 2.74418 -18.4716 -21.956 2.74418 -18.5535 -13.8791 2.74418 -19.2976 
-5.80212 2.74418 -18.5962 2.2748 2.74418 -18.4588 10.3517 2.74418 -20.3274 
18.4287 2.74418 -17.2871 26.5056 2.74418 -18.5925 34.5825 2.74418 -19.7391 
42.6595 2.74418 -19.9434 50.7364 2.74418 -18.9504 58.8133 2.74418 -16.4312 
-46.1868 10.8211 -16.4459 -38.1098 10.8211 -18.6099 -30.0329 10.8211 -19.4477 
-21.956 10.8211 -19.1397 -13.8791 10.8211 -18.4325 -5.80212 10.8211 -18.6486 
2.2748 10.8211 -19.8588 10.3517 10.8211 -18.4353 18.4287 10.8211 -17.9828 
26.5056 10.8211 -19.1128 34.5825 10.8211 -20.4612 42.6595 10.8211 -19.3568 
50.7364 10.8211 -17.74 58.8133 10.8211 -14.1092 -46.1868 18.898 -16.0998 
-38.1098 18.898 -18.3597 -30.0329 18.898 -19.8331 -21.956 18.898 -19.6332 
-13.8791 18.898 -19.1489 -5.80212 18.898 -18.8112 2.2748 18.898 -18.5015 
10.3517 18.898 -18.4514 18.4287 18.898 -19.0384 26.5056 18.898 -19.4432 
34.5825 18.898 -19.2111 42.6595 18.898 -18.6971 50.7364 18.898 -16.0769 
-38.1098 26.975 -16.3671 -30.0329 26.975 -18.0883 -21.956 26.975 -19.1527 
-13.8791 26.975 -19.185 -5.80212 26.975 -19.2094 2.2748 26.975 -18.8856 
10.3517 26.975 -19.0452 18.4287 26.975 -18.871 26.5056 26.975 -19.1325 
34.5825 26.975 -17.8268 42.6595 26.975 -16.1525 -30.0329 35.0519 -13.9673 
-21.956 35.0519 -15.604 -13.8791 35.0519 -17.2138 -5.80212 35.0519 -18.4553 
2.2748 35.0519 -18.4593 10.3517 35.0519 -17.2092 18.4287 35.0519 -16.3761 
26.5056 35.0519 -15.3222 -30.0329 -39.6055 -13.6867 -30.0329 -45.7174 -6.09144 
-21.956 -39.8262 -13.6867 -21.956 -45.7174 -6.46765 -13.8791 -39.1837 -13.6867 
-5.80212 -39.828 -13.6867 2.2748 -41.1901 -13.6867 10.3517 -40.4011 -13.6867 
18.4287 -38.2189 -13.6867 -32.6712 -37.6405 -13.6867 -38.1098 -31.2702 -13.6867 
-38.1098 -37.6405 -10.2942 20.0028 -37.6405 -13.6867 26.5056 -33.711 -13.6867 
26.5056 -37.6405 -8.63997 34.5825 -31.8645 -13.6867 -39.4536 -29.5635 -13.6867 
-46.1868 -29.5635 -8.20793 -38.1098 -21.9976 -13.6867 40.3561 -29.5635 -13.6867 
42.6595 -28.1199 -13.6867 42.6595 -29.5635 -12.3097 50.7364 -24.1025 -13.6867 
50.7364 -29.5635 -6.0765 -46.1868 -21.4866 -10.6657 -37.9377 -21.4866 -13.6867 
-38.1098 -20.8451 -13.6867 -38.1098 -21.4866 -13.6407 55.4089 -21.4866 -13.6867 
58.8133 -16.5486 -13.6867 58.8133 -21.4866 -10.7385 -54.2637 -13.4097 -6.35532 
-40.1026 -13.4097 -13.6867 -46.1868 -7.37992 -13.6867 -46.1868 -13.4097 -12.011 
60.0409 -13.4097 -13.6867 -47.6908 -5.33275 -13.6867 -54.2637 -5.33275 -9.68848 
63.4783 -5.33275 -13.6867 66.8902 -5.33275 -10.2588 -49.8727 2.74418 -13.6867 
-54.2637 2.74418 -11.0549 62.7998 2.74418 -13.6867 66.8902 2.74418 -9.43506 
-51.7779 10.8211 -13.6867 -54.2637 10.8211 -12.0194 59.3616 10.8211 -13.6867 
58.8133 15.4097 -13.6867 -49.8978 18.898 -13.6867 -54.2637 18.898 -9.60597 
-46.1868 25.2136 -13.6867 58.0434 18.898 -13.6867 50.7364 23.1717 -13.6867 
58.8133 18.898 -12.9274 -44.389 26.975 -13.6867 -46.1868 26.975 -12.7399 
-38.1098 31.4484 -13.6867 34.5825 33.7795 -13.6867 46.8716 26.975 -13.6867 
42.6595 30.0962 -13.6867 50.7364 26.975 -9.35707 -30.937 35.0519 -13.6867 
-38.1098 35.0519 -10.671 -30.0329 35.3588 -13.6867 -21.956 37.3183 -13.6867 
-13.8791 40.0588 -13.6867 -5.80212 42.7046 -13.6867 2.2748 42.8656 -13.6867 
10.3517 40.3971 -13.6867 18.4287 38.0831 -13.6867 31.4706 35.0519 -13.6867 
26.5056 36.4378 -13.6867 34.5825 35.0519 -11.3048 -13.8791 43.1288 -7.09567 
-5.80212 43.1288 -12.8368 2.2748 43.1288 -13.0861 10.3517 43.1288 -6.07144 
-30.0329 -45.9704 -5.60981 -21.956 -46.0899 -5.60981 -30.7489 -45.7174 -5.60981 
-38.1098 -42.3572 -5.60981 -30.0329 -45.7174 -3.34892 -19.3551 -45.7174 -5.60981 
-21.956 -45.7174 -3.88316 -13.8791 -44.8558 -5.60981 -5.80212 -44.0949 -5.60981 
2.2748 -44.2493 -5.60981 10.3517 -43.262 -5.60981 18.4287 -41.6171 -5.60981 
26.5056 -38.7815 -5.60981 -44.5061 -37.6405 -5.60981 -46.1868 -34.7083 -5.60981 
18.4287 -37.6405 2.1013 29.9371 -37.6405 -5.60981 26.5056 -37.6405 -2.94854 
34.5825 -36.1059 -5.60981 42.6595 -33.5149 -5.60981 50.7364 -29.776 -5.60981 
-48.6266 -29.5635 -5.60981 51.0834 -29.5635 -5.60981 50.7364 -29.5635 -4.74373 
58.8133 -23.9717 -5.60981 -53.0696 -21.4866 -5.60981 -54.2637 -16.4806 -5.60981 
-54.2637 -21.4866 -3.53262 61.5492 -21.4866 -5.60981 -54.9834 -13.4097 -5.60981 
66.5133 -13.4097 -5.60981 66.8902 -12.3907 -5.60981 -57.6563 -5.33275 -5.60981 
69.1341 -5.33275 -5.60981 -59.8287 2.74418 -5.60981 -62.3406 2.74418 1.24534 
68.7893 2.74418 -5.60981 66.8902 8.99229 -5.60981 -59.4916 10.8211 -5.60981 
66.2094 10.8211 -5.60981 -57.5629 18.898 -5.60981 -54.2637 26.3092 -5.60981 
61.7035 18.898 -5.60981 58.8133 22.0788 -5.60981 -53.8844 26.975 -5.60981 
-54.2637 26.975 -3.82399 -46.1868 34.2961 -5.60981 42.6595 33.8822 -5.60981 
53.4027 26.975 -5.60981 50.7364 29.0232 -5.60981 -45.045 35.0519 -5.60981 
-46.1868 35.0519 -1.34438 -38.1098 38.2468 -5.60981 -30.0329 40.3 -5.60981 
-21.956 41.7693 -5.60981 18.4287 40.5483 -5.60981 26.5056 38.6956 -5.60981 
39.7318 35.0519 -5.60981 34.5825 37.0249 -5.60981 34.5825 35.0519 1.09311 
-15.9982 43.1288 -5.60981 -13.8791 43.5944 -5.60981 -13.8791 43.1288 0.000720847 
-5.80212 45.1241 -5.60981 2.2748 44.9623 -5.60981 2.2748 43.1288 0.590385 
10.6488 43.1288 -5.60981 10.3517 43.2258 -5.60981 10.3517 43.1288 -5.3032 
-38.1098 -42.5956 2.46711 -30.0329 -44.9664 2.46711 -21.956 -44.101 2.46711 
-13.8791 -42.7494 2.46711 -5.80212 -41.5371 2.46711 2.2748 -40.7097 2.46711 
10.3517 -39.4823 2.46711 -45.8051 -37.6405 2.46711 -46.1868 -37.27 2.46711 
-5.80212 -37.6405 9.05984 2.2748 -37.6405 7.22396 17.6101 -37.6405 2.46711 
10.3517 -37.6405 4.85211 18.4287 -37.3885 2.46711 26.5056 -34.9636 2.46711 
34.5825 -33.3516 2.46711 42.6595 -31.2988 2.46711 -52.3983 -29.5635 2.46711 
-54.2637 -26.3437 2.46711 18.4287 -29.5635 9.86849 26.5056 -29.5635 8.35968 
34.5825 -29.5635 7.25811 46.5219 -29.5635 2.46711 42.6595 -29.5635 4.73536 
50.7364 -27.6189 2.46711 58.8133 -22.0532 2.46711 -56.7262 -21.4866 2.46711 
50.7364 -21.4866 9.65119 59.475 -21.4866 2.46711 58.8133 -21.4866 3.19593 
-59.8586 -13.4097 2.46711 65.3591 -13.4097 2.46711 58.8133 -13.4097 10.3387 
66.8902 -9.83387 2.46711 -61.6865 -5.33275 2.46711 -62.3406 -0.0531596 2.46711 
68.5902 -5.33275 2.46711 66.8902 -5.33275 5.4126 -62.6829 2.74418 2.46711 
-62.3406 6.47091 2.46711 -62.3406 2.74418 4.2491 68.3396 2.74418 2.46711 
66.8902 7.65413 2.46711 66.8902 2.74418 5.09218 -61.9411 10.8211 2.46711 
65.8357 10.8211 2.46711 -59.5797 18.898 2.46711 60.8116 18.898 2.46711 
58.8133 20.9531 2.46711 58.8133 18.898 5.83808 -55.3682 26.975 2.46711 
-54.2637 28.3132 2.46711 -54.2637 26.975 5.66201 34.5825 34.6358 2.46711 
42.6595 32.0103 2.46711 42.6595 26.975 10.0982 52.3132 26.975 2.46711 
50.7364 28.1003 2.46711 50.7364 26.975 4.31235 -46.9577 35.0519 2.46711 
-46.1868 35.5767 2.46711 -46.1868 35.0519 4.38084 -38.1098 39.5696 2.46711 
-30.0329 41.4837 2.46711 -21.956 42.1553 2.46711 -13.8791 42.9287 2.46711 
2.2748 42.5373 2.46711 10.3517 40.3679 2.46711 18.4287 38.2592 2.46711 
18.4287 35.0519 8.10516 32.7136 35.0519 2.46711 26.5056 36.4049 2.46711 
26.5056 35.0519 5.18361 -10.809 43.1288 2.46711 -2.73552 43.1288 2.46711 
-5.80212 43.4636 2.46711 -5.80212 43.1288 3.38951 -38.1098 -38.2167 10.544 
-30.0329 -39.6835 10.544 -21.956 -39.4451 10.544 -13.8791 -38.1787 10.544 
-39.2084 -37.6405 10.544 -46.1868 -32.8459 10.544 -38.1098 -37.6405 11.2799 
-30.0329 -37.6405 12.6546 -21.956 -37.6405 12.8562 -10.9827 -37.6405 10.544 
-13.8791 -37.6405 11.2629 -5.80212 -36.5702 10.544 2.2748 -34.6873 10.544 
10.3517 -31.6274 10.544 -49.4065 -29.5635 10.544 -54.2637 -23.9156 10.544 
-46.1868 -29.5635 13.9845 -38.1098 -29.5635 17.2161 -13.8791 -29.5635 18.5676 
-5.80212 -29.5635 17.0389 2.2748 -29.5635 14.7481 16.1616 -29.5635 10.544 
10.3517 -29.5635 12.118 18.4287 -28.5312 10.544 26.5056 -26.4797 10.544 
34.5825 -25.5637 10.544 42.6595 -23.4299 10.544 -55.7746 -21.4866 10.544 
-54.2637 -21.4866 12.6855 -46.1868 -21.4866 17.9906 2.2748 -21.4866 17.5023 
10.3517 -21.4866 15.7519 18.4287 -21.4866 14.3055 26.5056 -21.4866 13.4496 
34.5825 -21.4866 13.0888 47.9486 -21.4866 10.544 42.6595 -21.4866 12.0065 
50.7364 -20.1478 10.544 -58.7397 -13.4097 10.544 -54.2637 -13.4097 16.9547 
10.3517 -13.4097 18.3217 18.4287 -13.4097 16.6472 26.5056 -13.4097 16.547 
34.5825 -13.4097 16.545 42.6595 -13.4097 16.2483 58.4542 -13.4097 10.544 
[...]
POINT_DATA 546
SCALARS ImageScalars float
LOOKUP_TABLE default
0 0 0 0 0 0 0 0 0 
0 0 0 0 0 0 0 0 0 
0 0 0 0 0 0 0 0 0 
0 0 0 0 0 0 0 0 0 
0 0 0 0 0 0 0 0 0 
0 0 0 0 0 0 0 0 0 
0 0 0 0 0 0 0 0 0 
0 0 0 0 0 0 0 0 0 
0 0 0 0 0 0 0 0 0 
0 0 0 0 0 0 0 0 0 
0 0 0 0 0 0 0 0 0 
0 0 0 0 0 0 0 0 0 
0 0 0 0 0 0 0 0 0 
0 0 0 0 0 0 0 0 0 
0 0 0 0 0 0 0 0 0 
0 0 0 0 0 0 0 0 0 
0 0 0 0 0 0 0 0 0 
0 0 0 0 0 0 0 0 0 
0 0 0 0 0 0 0 0 0 
0 0 0 0 0 0 0 0 0 
0 0 0 0 0 0 0 0 0 
0 0 0 0 0 0 0 0 0 
0 0 0 0 0 0 0 0 0 
0 0 0 0 0 0 0 0 0 
0 0 0 0 0 0 0 0 0 
0 0 0 0 0 0 0 0 0 
0 0 0 0 0 0 0 0 0 
0 0 0 0 0 0 0 0 0 
0 0 0 0 0 0 0 0 0 
0 0 0 0 0 0 0 0 0 
0 0 0 0 0 0 0 0 0 
0 0 0 0 0 0 0 0 0 
0 0 0 0 0 0 0 0 0 
0 0 0 0 0 0 0 0 0 
0 0 0 0 0 0 0 0 0 
0 0 0 0 0 0 0 0 0 
0 0 0 0 0 0 0 0 0 
0 0 0 0 0 0 0 0 0 
0 0 0 0 0 0 0 0 0 
0 0 0 0 0 0 0 0 0 
0 0 0 0 0 0 0 0 0 
0 0 0 0 0 0 0 0 0 
0 0 0 0 0 0 0 0 0 
0 0 0 0 0 0 0 0 0 
0 0 0 0 0 0 0 0 0 
0 0 0 0 0 0 0 0 0 
0 0 0 0 0 0 0 0 0 
0 0 0 0 0 0 0 0 0 
0 0 0 0 0 0 0 0 0 
0 0 0 0 0 0 0 0 0 
0 0 0 0 0 0 0 0 0 
0 0 0 0 0 0 0 0 0 
0 0 0 0 0 0 0 0 0 
0 0 0 0 0 0 0 0 0 
0 0 0 0 0 0 0 0 0 
0 0 0 0 0 0 0 0 0 
0 0 0 0 0 0 0 0 0 
0 0 0 0 0 0 0 0 0 
0 0 0 0 0 0 0 0 0 
0 0 0 0 0 0 0 0 0 
0 0 0 0 0 0 
NORMALS Normals float
-0.229907 -0.347423 -0.909087 -0.00801171 -0.396647 -0.917936 -0.00546226 -0.499504 -0.866294 
-0.0805925 -0.462416 -0.882993 -0.0405339 -0.446005 -0.894112 0.10746 -0.499318 -0.859729 
0.281899 -0.620939 -0.731415 -0.336125 -0.146977 -0.930278 -0.166013 -0.0654551 -0.983949 
-0.0849252 -0.0852235 -0.992736 -0.00986208 -0.0937686 -0.995545 -0.0202497 -0.0855043 -0.996132 
-0.0351242 -0.0854784 -0.995721 0.0589833 -0.0727729 -0.995603 0.0849197 -0.11653 -0.98955 
0.0687927 -0.358371 -0.931041 0.143847 -0.527207 -0.837473 -0.188287 0.0304451 -0.981642 
-0.0678418 0.0971069 -0.992959 0.0064904 0.0631423 -0.997983 -0.0383836 -0.0612156 -0.997386 
-0.0247508 -0.00351062 -0.999687 0.0527169 0.106359 -0.992929 -0.0405338 -0.0124787 -0.9991 
-0.069976 -0.13977 -0.987708 0.0124678 -0.249964 -0.968175 0.0957332 -0.33515 -0.937289 
0.299028 -0.463425 -0.834158 -0.200258 -0.155787 -0.967278 -0.057972 -0.0197646 -0.998123 
-0.0372798 0.059763 -0.997516 -0.182781 -0.0347578 -0.982539 -0.0878306 -0.295259 -0.951372 
0.157941 -0.00962718 -0.987402 0.0472147 -0.0696135 -0.996456 -0.172002 -0.0638615 -0.983024 
-0.178369 -0.0735013 -0.981215 -0.0639202 -0.147531 -0.98699 0.0996313 -0.156137 -0.982698 
0.266654 -0.181656 -0.946518 0.530649 -0.230881 -0.81554 -0.305008 -0.207246 -0.929526 
-0.119639 -0.204584 -0.97151 0.0140587 -0.195202 -0.980662 -0.0770703 -0.212094 -0.974205 
-0.350626 -0.209358 -0.912815 0.110856 0.0143699 -0.993733 0.14196 -0.0398457 -0.98907 
0.000405797 -0.296755 -0.954954 -0.0194392 -0.0302366 -0.999354 -0.135614 0.000246497 -0.990762 
-0.0833446 -0.000609032 -0.996521 0.0245083 -0.0209174 -0.999481 0.179773 -0.0587347 -0.981953 
0.463708 -0.089579 -0.881448 -0.350691 -0.131692 -0.927186 -0.170491 -0.156192 -0.972901 
-0.0498083 -0.190525 -0.980418 -0.04716 -0.185888 -0.981439 -0.00927386 0.0175048 -0.999804 
0.0520353 0.154059 -0.98669 -0.1079 -0.151585 -0.982537 0.124515 0.0492708 -0.990994 
0.0762293 -0.00766587 -0.997061 -0.156623 -0.0142374 -0.987556 -0.0805482 -0.0278479 -0.996362 
0.0457938 0.0546986 -0.997452 0.182014 0.110278 -0.977092 0.457859 0.126931 -0.879917 
-0.337852 -0.0306258 -0.940701 -0.172538 -0.0372364 -0.984299 -0.0315501 -0.0826915 -0.996076 
0.0614643 -0.0657657 -0.99594 0.0307745 0.00416495 -0.999518 -0.0830844 -0.0130096 -0.996458 
0.00783363 0.0272491 -0.999598 0.1135 0.0992117 -0.988572 -0.0459888 -0.113865 -0.992431 
-0.145154 -0.0514418 -0.988071 -0.0148018 0.0302791 -0.999432 0.159829 0.0715485 -0.984548 
0.271877 0.171968 -0.946842 0.559978 0.165611 -0.811787 -0.430088 0.17023 -0.886592 
-0.218261 0.116735 -0.968883 -0.0815486 0.0854169 -0.993002 0.0422145 -0.00320345 -0.999103 
0.0508216 -0.0456108 -0.997666 0.0400286 -0.034659 -0.998597 0.0222328 0.0532568 -0.998333 
-0.0337148 -0.0376788 -0.998721 -0.0612569 -0.0487798 -0.996929 -0.0109771 -0.00278337 -0.999936 
0.0425211 0.159719 -0.986246 0.201432 0.197273 -0.959431 0.326097 0.338524 -0.882645 
-0.282934 0.391963 -0.875394 -0.147445 0.306621 -0.940342 -0.0690742 0.218733 -0.973337 
-0.00339567 0.111162 -0.993796 0.0185543 0.016172 -0.999697 0.0103209 -0.000956001 -0.999946 
0.000747045 0.0624686 -0.998047 -0.00424645 0.147388 -0.98907 0.0690998 0.211802 -0.974867 
0.173746 0.332959 -0.926796 0.354497 0.477416 -0.803993 -0.222812 0.655966 -0.721154 
-0.183909 0.57319 -0.798518 -0.165627 0.41877 -0.89286 -0.0763689 0.28579 -0.955244 
0.073273 0.254608 -0.964264 0.131213 0.409746 -0.902713 0.10626 0.570923 -0.814098 
0.203808 0.721961 -0.661237 -0.214367 -0.459246 -0.862056 -0.185216 -0.95401 -0.235713 
0.0177021 -0.525743 -0.850459 0.0617818 -0.98431 -0.165277 -0.0048356 -0.578954 -0.815346 
-0.0931967 -0.602746 -0.792471 -0.0250049 -0.70759 -0.70618 0.15746 -0.693427 -0.703111 
0.293004 -0.662116 -0.689747 -0.302015 -0.373248 -0.877196 -0.359356 -0.202785 -0.910902 
-0.500993 -0.506702 -0.701612 0.301402 -0.653575 -0.694259 0.215279 -0.57028 -0.79274 
0.354851 -0.906218 -0.229889 0.215142 -0.664364 -0.715776 -0.380481 -0.157933 -0.911203 
-0.690045 -0.305539 -0.656113 -0.295828 -0.00116986 -0.955241 0.293841 -0.67367 -0.678105 
0.318268 -0.655986 -0.684388 0.358705 -0.757342 -0.545677 0.353387 -0.587898 -0.727663 
0.485683 -0.865502 -0.122548 -0.484874 -0.179927 -0.855876 -0.290927 0.00922558 -0.956701 
-0.286555 -0.00385903 -0.958056 -0.293125 0.00849199 -0.956036 0.467553 -0.518805 -0.715706 
0.554497 -0.339044 -0.759988 0.63931 -0.611079 -0.466761 -0.711485 -0.219455 -0.667554 
-0.237405 -0.169811 -0.956453 -0.313557 -0.209276 -0.926221 -0.367136 -0.199249 -0.908576 
0.56947 -0.242448 -0.785445 -0.359412 -0.204203 -0.910563 -0.645156 -0.210343 -0.734526 
0.618131 -0.104222 -0.779135 0.841106 -0.130032 -0.525008 -0.458637 -0.104681 -0.882436 
-0.620181 -0.0953974 -0.778637 0.605894 0.150909 -0.781101 0.864221 0.179225 -0.470108 
-0.55634 0.0188121 -0.830742 -0.676954 0.0576899 -0.733761 0.576636 0.171562 -0.798785 
0.601082 0.301352 -0.740194 -0.559519 0.19997 -0.804333 -0.739436 0.251803 -0.624364 
-0.452285 0.401801 -0.796238 0.592251 0.398706 -0.700195 0.441733 0.513102 -0.735934 
0.64094 0.425279 -0.63901 -0.416287 0.452857 -0.788433 -0.464185 0.479591 -0.744664 
-0.319376 0.518321 -0.793311 0.298367 0.720806 -0.625633 0.477477 0.569003 -0.669515 
0.409495 0.650062 -0.640104 0.584567 0.716316 -0.381015 -0.23315 0.654626 -0.719101 
-0.326285 0.705045 -0.629642 -0.221398 0.669351 -0.709191 -0.214949 0.674622 -0.706174 
-0.23659 0.717323 -0.655342 -0.127484 0.812742 -0.568506 0.0978621 0.829733 -0.549515 
0.228769 0.751011 -0.619393 0.19529 0.763801 -0.615199 0.280757 0.768509 -0.574952 
0.224907 0.801564 -0.553996 0.31691 0.851304 -0.418151 -0.216251 0.95852 -0.185673 
-0.126398 0.859025 -0.496083 0.101139 0.863229 -0.494577 0.268178 0.963044 0.0250216 
-0.185295 -0.961159 -0.204545 0.0658635 -0.991202 -0.114803 -0.212237 -0.956054 -0.202276 
-0.512669 -0.806245 -0.295193 -0.1703 -0.983148 -0.0664692 0.0850349 -0.990989 -0.103489 
0.0831346 -0.996353 -0.0192156 0.127114 -0.986963 -0.0987191 0.0387506 -0.998704 -0.0329962 
0.0518709 -0.995739 0.0762432 0.158595 -0.984263 0.0779316 0.268719 -0.962361 0.0406402 
0.329664 -0.943881 0.0202415 -0.666895 -0.622078 -0.410207 -0.715932 -0.526273 -0.45878 
0.245448 -0.774646 0.58282 0.319036 -0.947712 -0.00767416 0.309356 -0.932622 0.185782 
0.310609 -0.948553 -0.0613986 0.366251 -0.92356 -0.113561 0.484933 -0.869342 -0.0953151 
-0.749353 -0.367245 -0.551 0.492224 -0.865322 -0.0945145 0.488658 -0.87135 -0.0442947 
0.671067 -0.735516 -0.0932001 -0.745304 -0.267709 -0.610618 -0.74714 -0.231996 -0.622864 
-0.827184 -0.307352 -0.470427 0.738956 -0.664763 -0.109697 -0.737478 -0.219007 -0.638876 
0.90584 -0.386817 -0.172707 0.919648 -0.353208 -0.171735 -0.771837 -0.228047 -0.593517 
0.971124 -0.128443 -0.201051 -0.839203 -0.0838123 -0.53732 -0.993843 -0.023303 -0.108321 
0.962372 0.1651 -0.215831 0.911114 0.34565 -0.224495 -0.873656 0.116542 -0.47238 
0.886906 0.396608 -0.236853 -0.845379 0.293392 -0.446381 -0.783217 0.506567 -0.360501 
0.794016 0.591679 -0.139479 0.730932 0.673652 -0.109231 -0.771404 0.528417 -0.354558 
-0.795844 0.548936 -0.25554 -0.537353 0.771898 -0.339743 0.446038 0.892274 -0.0699741 
0.623418 0.764982 -0.161718 0.578758 0.801903 -0.148293 -0.502226 0.797594 -0.334085 
-0.548363 0.827795 -0.118544 -0.31871 0.890978 -0.32339 -0.211568 0.927643 -0.307762 
-0.192514 0.954784 -0.226552 0.26066 0.965351 0.0124039 0.211581 0.977331 0.00759643 
0.385207 0.921616 -0.0473188 0.283159 0.958928 -0.0166987 0.246958 0.915957 0.316283 
-0.197805 0.970748 -0.136091 -0.202819 0.973126 -0.109039 -0.11779 0.990743 0.0674855 
-0.0846417 0.995977 -0.0294266 0.12098 0.992116 0.032706 0.160175 0.945907 0.282142 
0.266198 0.9625 0.0522695 0.266148 0.962502 0.0524946 0.266359 0.961625 0.0658059 
-0.3676 -0.905009 0.214078 -0.103897 -0.942112 0.318795 0.131971 -0.916245 0.378259 
0.147948 -0.916231 0.372334 0.121613 -0.901255 0.415872 0.113492 -0.870791 0.478374 
0.170726 -0.81713 0.550592 -0.678404 -0.72187 0.136641 -0.693387 -0.709426 0.126211 
0.146887 -0.810662 0.566791 0.16091 -0.796512 0.582818 0.236799 -0.764017 0.60017 
0.201504 -0.768952 0.60672 0.240373 -0.757412 0.607081 0.205695 -0.806455 0.554365 
0.196907 -0.840513 0.504742 0.301855 -0.834807 0.460413 -0.824273 -0.56513 -0.0346614 
-0.869492 -0.488229 -0.0749479 0.183685 -0.576469 0.796205 0.121718 -0.635289 0.762623 
0.154017 -0.727819 0.66825 0.385295 -0.80866 0.44454 0.302968 -0.791318 0.531061 
0.448206 -0.785269 0.427158 0.60203 -0.705008 0.374865 -0.911389 -0.391452 -0.127027 
0.337357 -0.579348 0.741988 0.625559 -0.686892 0.369939 0.597657 -0.691736 0.405348 
-0.942569 -0.298734 -0.149403 0.842199 -0.412464 0.347237 0.523622 -0.400145 0.752133 
0.895966 -0.298629 0.328735 -0.978367 -0.167218 -0.121805 -0.995354 -0.0669826 -0.0691625 
0.943357 -0.163475 0.288711 0.875641 -0.182232 0.447264 -0.998929 -0.0149725 -0.0437845 
-0.996158 0.0758151 -0.0438278 -0.998794 -0.0106417 0.0479365 0.949393 0.153209 0.27419 
0.916762 0.290917 0.273706 0.899186 0.14965 0.411181 -0.982524 0.181141 -0.0428414 
0.887236 0.381921 0.258745 -0.937811 0.346541 0.0205005 0.732331 0.628279 0.262595 
0.692584 0.669516 0.268469 0.667896 0.616796 0.416506 -0.810483 0.582525 0.0614951 
-0.783255 0.617988 0.0678427 -0.767578 0.600498 0.224111 0.237382 0.891718 0.385343 
0.37556 0.850629 0.367947 0.309408 0.687903 0.656548 0.544299 0.781071 0.306051 
0.510751 0.803618 0.305502 0.505315 0.768135 0.393224 -0.560735 0.825884 0.059089 
-0.540818 0.83919 0.0572447 -0.549588 0.823156 0.142713 -0.317908 0.94745 0.0356776 
-0.165974 0.985487 0.0355965 -0.0878585 0.995059 0.0462484 -0.0791165 0.986124 0.145944 
0.172241 0.916725 0.360484 0.246471 0.876346 0.413847 0.218093 0.899074 0.379608 
0.177792 0.809114 0.560112 0.228823 0.898093 0.375593 0.205226 0.910964 0.35781 
0.203612 0.872144 0.444867 -0.0418181 0.979727 0.195925 0.0771575 0.948499 0.307239 
0.0196402 0.960854 0.276358 0.0328511 0.953348 0.300081 -0.287406 -0.748529 0.59758 
-0.0665124 -0.762365 0.643721 0.078879 -0.805491 0.587335 0.139904 -0.808304 0.571902 
-0.316577 -0.73831 0.595548 -0.551135 -0.654333 0.517782 -0.283707 -0.726431 0.625945 
-0.0665262 -0.713404 0.697588 0.0545169 -0.759731 0.647948 0.143897 -0.800167 0.58226 
0.139854 -0.794422 0.591045 0.161642 -0.770322 0.616827 0.212257 -0.680958 0.700887 
0.244385 -0.585683 0.772821 -0.648371 -0.595618 0.474188 -0.777298 -0.487385 0.397823 
-0.513888 -0.563206 0.647084 -0.216296 -0.449135 0.866888 0.106803 -0.418184 0.902061 
0.205401 -0.463787 0.861808 0.258893 -0.475967 0.840494 0.202092 -0.561636 0.802324 
0.251304 -0.522342 0.814865 0.178339 -0.547245 0.817752 0.0968762 -0.541127 0.835342 
0.110051 -0.588624 0.800881 0.202819 -0.612269 0.764193 -0.814396 -0.443703 0.374016 
-0.739132 -0.449468 0.501659 -0.359534 -0.34446 0.867227 0.214842 -0.223891 0.950639 
0.182854 -0.331209 0.92567 0.133269 -0.369361 0.91968 0.0698986 -0.437968 0.896269 
0.075122 -0.483495 0.872118 0.279073 -0.564892 0.77654 0.183831 -0.546648 0.816934 
0.327722 -0.534855 0.778799 -0.885643 -0.288438 0.363924 -0.646427 -0.216758 0.731538 
0.138848 -0.251396 0.957873 0.103056 -0.21043 0.972162 0.00605292 -0.295489 0.955327 
0.0170976 -0.349032 0.936955 0.119549 -0.360219 0.925176 0.511173 -0.397644 0.761959 
0.321952 -0.389685 0.86284 0.520642 -0.386395 0.761334 -0.918618 -0.119914 0.376512 
-0.587961 -0.0397587 0.807912 0.0748017 -0.119896 0.989965 0.295878 -0.160546 0.941638 
0.642917 -0.185893 0.743035 0.501225 -0.185384 0.845226 -0.909426 0.0115883 0.415705 
-0.577566 0.0331383 0.815671 0.303942 0.0540507 0.951156 0.684581 0.0960994 0.722575 
0.535677 0.0779144 0.84082 -0.875635 0.203713 0.437909 -0.622409 0.158794 0.766414 
0.174301 0.217927 0.960274 0.353885 0.245141 0.902591 0.634983 0.308657 0.708186 
0.603264 0.398311 0.690957 0.573778 0.29512 0.763991 -0.812253 0.369046 0.45172 
-0.713297 0.51962 0.470322 -0.682878 0.348712 0.641933 0.0652159 0.186568 0.980275 
0.0856648 0.253838 0.963446 0.134125 0.368074 0.920072 0.301821 0.669801 0.678433 
0.21394 0.434859 0.874716 0.503969 0.542504 0.67209 0.423466 0.574936 0.70009 
0.384389 0.507017 0.771479 -0.646489 0.580122 0.49549 -0.540541 0.692674 0.477513 
-0.498123 0.497374 0.710277 0.154505 0.276279 0.948577 0.100883 0.408497 0.907167 
0.158703 0.722763 0.672627 0.0986091 0.467281 0.878592 0.189453 0.698981 0.689589 
0.167941 0.528561 0.832117 0.28944 0.671664 0.681977 0.21317 0.665627 0.715192 
0.196153 0.600829 0.774938 -0.453815 0.76157 0.46267 -0.337923 0.823245 0.456153 
-0.331937 0.725383 0.603024 -0.196818 0.890792 0.409575 -0.187887 0.643333 0.742173 
-0.0760073 0.923889 0.375036 -0.0380848 0.588641 0.807497 0.0480148 0.907031 0.418317 
0.0892825 0.570841 0.816192 0.165086 0.813609 0.557483 0.213927 0.548584 0.808264 
0.234771 0.72691 0.645356 0.239625 0.615897 0.7505 0.204997 0.720553 0.662404 
0.211194 0.717496 0.663774 0.20941 0.710799 0.6715 -0.0964645 -0.444887 0.890376 
0.00688193 -0.411699 0.911294 -0.0993399 -0.442673 0.891164 -0.200758 -0.358024 0.911875 
-0.0962859 -0.442637 0.891516 0.0961155 -0.413598 0.905372 0.00500564 -0.380745 0.924667 
0.106682 -0.409716 0.905954 0.19504 -0.262046 0.945141 -0.305034 -0.32258 0.896045 
-0.333477 -0.308778 0.890757 -0.186285 -0.280234 0.941683 -0.0571103 -0.196136 0.978912 
0.0433572 -0.121689 0.991621 0.107451 -0.0811169 0.990896 0.199172 -0.184638 0.962413 
0.187798 -0.157248 0.969539 0.126064 -0.175983 0.976288 -0.504677 -0.198972 0.840066 
-0.282372 -0.177307 0.942777 -0.0976803 -0.158974 0.982439 0.0850663 -0.0870748 0.992563 
0.134354 -0.00958521 0.990887 0.0726916 0.0402622 0.996541 0.065527 -0.0357894 0.997209 
0.12064 -0.209008 0.970444 0.100706 -0.164652 0.981197 0.140896 -0.232967 0.962224 
-0.0753972 -0.16001 0.984232 -0.00187741 -0.22619 0.974081 0.121776 -0.178903 0.976301 
-0.498285 -0.0304618 0.866478 -0.270545 -0.0584139 0.960934 -0.0706088 -0.0459848 0.996444 
0.083356 -0.074625 0.993722 0.165218 -0.108127 0.980312 0.0802258 -0.146672 0.985927 
-0.0117134 -0.0777202 0.996906 0.00174729 -0.0705929 0.997504 0.103274 -0.125962 0.986645 
0.148512 -0.139027 0.979089 -0.0752424 -0.159902 0.984261 0.079571 -0.0534679 0.995394 
-0.0754375 -0.15995 0.984238 -0.00455702 -0.193243 0.98114 0.131677 -0.171052 0.976423 
0.122604 -0.172192 0.977404 -0.516121 0.024628 0.856161 -0.28732 0.000103959 0.957835 
-0.100386 0.000237585 0.994949 0.024089 -0.0461053 0.998646 0.0576279 -0.106104 0.992684 
0.0996087 -0.149204 0.983777 0.143675 -0.0642558 0.987537 0.0437653 -0.0748202 0.996236 
0.100272 -0.0716797 0.992375 0.0795878 -0.0531453 0.99541 -0.0646079 -0.025928 0.997574 
0.000216766 -0.00214654 0.999998 0.188177 0.0219998 0.981889 0.17145 0.195782 0.965544 
0.14494 0.00993084 0.989391 -0.515612 0.144089 0.84462 -0.294919 0.132476 0.946294 
-0.121893 0.092514 0.988222 -0.0226846 0.0566101 0.998139 0.0633971 0.0303589 0.997527 
0.130859 0.0694237 0.988967 0.0651875 0.0893483 0.993865 -0.00733031 0.0944927 0.995499 
0.160581 0.111562 0.980698 0.103855 0.0690556 0.992192 0.120564 0.0199691 0.992505 
0.0115901 0.140511 0.990011 -0.0244282 0.09109 0.995543 0.159047 0.213134 0.963991 
0.0561558 0.218371 0.974249 0.0328641 0.173527 0.984281 -0.393266 0.318121 0.862636 
-0.367562 0.348396 0.862275 -0.338797 0.310956 0.887988 -0.188428 0.20087 0.961325 
-0.0397492 0.152556 0.987495 0.0691174 0.125154 0.989727 0.153851 0.0932911 0.98368 
0.162536 0.134119 0.977545 0.0655334 0.249391 0.966183 0.0611348 0.249126 0.96654 
0.0367969 0.258733 0.965248 0.0277789 0.297085 0.954447 0.0246478 0.292096 0.956071 
-0.320493 0.397965 0.859598 -0.276566 0.430404 0.859223 -0.262406 0.37229 0.890249 
-0.140398 0.476261 0.868023 -0.0912597 0.317352 0.943906 -0.0247142 0.476452 0.878853 
0.000184992 0.25897 0.965885 0.105227 0.440232 0.891697 0.141191 0.205843 0.968346 
0.210435 0.206681 0.95551 0.215778 0.216894 0.952049 0.215995 0.20186 0.9553 

