# vtk DataFile Version 4.2
vtk output
ASCII
DATASET POLYDATA
POINTS 528 float
-46.777 -36.9114 -13.6237 -38.5704 -36.9114 -15.1691 -30.3637 -36.9114 -17.0191 
-22.1571 -36.9114 -16.7214 -13.9505 -36.9114 -14.8357 -5.74389 -36.9114 -12.5141 
18.876 -36.9114 -12.4468 -54.9836 -28.7048 -12.6011 -46.777 -28.7048 -16.7218 
-38.5704 -28.7048 -18.0899 -30.3637 -28.7048 -18.1026 -22.1571 -28.7048 -18.5624 
-13.9505 -28.7048 -17.7015 -5.74389 -28.7048 -16.5843 2.46272 -28.7048 -16.0048 
10.6693 -28.7048 -16.622 18.876 -28.7048 -16.9387 27.0826 -28.7048 -17.3075 
35.2892 -28.7048 -16.9341 43.4958 -28.7048 -15.0874 51.7024 -28.7048 -12.9267 
-54.9836 -20.4982 -13.3871 -46.777 -20.4982 -16.8807 -38.5704 -20.4982 -19.2995 
-30.3637 -20.4982 -18.5264 -22.1571 -20.4982 -17.9703 -13.9505 -20.4982 -17.2269 
-5.74389 -20.4982 -17.18 2.46272 -20.4982 -17.1253 10.6693 -20.4982 -17.0412 
18.876 -20.4982 -17.868 27.0826 -20.4982 -18.969 35.2892 -20.4982 -18.4398 
43.4958 -20.4982 -17.2543 51.7024 -20.4982 -14.996 -54.9836 -12.2916 -14.7999 
-46.777 -12.2916 -17.2556 -38.5704 -12.2916 -18.2443 -30.3637 -12.2916 -18.4386 
-22.1571 -12.2916 -17.048 -13.9505 -12.2916 -16.008 -5.74389 -12.2916 -17.1535 
2.46272 -12.2916 -17.9017 10.6693 -12.2916 -16.5737 18.876 -12.2916 -17.0024 
27.0826 -12.2916 -17.9895 35.2892 -12.2916 -18.7343 43.4958 -12.2916 -18.2542 
51.7024 -12.2916 -16.1911 59.909 -12.2916 -12.6126 -54.9836 -4.08498 -13.9474 
-46.777 -4.08498 -17.1142 -38.5704 -4.08498 -18.1355 -30.3637 -4.08498 -17.8385 
-22.1571 -4.08498 -16.7748 -13.9505 -4.08498 -17.2731 -5.74389 -4.08498 -19.6312 
2.46272 -4.08498 -16.6267 10.6693 -4.08498 -18.3689 18.876 -4.08498 -16.002 
27.0826 -4.08498 -17.5879 35.2892 -4.08498 -18.6083 43.4958 -4.08498 -19.1492 
51.7024 -4.08498 -17.2148 59.909 -4.08498 -14.2869 -46.777 4.12164 -16.216 
-38.5704 4.12164 -17.7177 -30.3637 4.12164 -17.7875 -22.1571 4.12164 -16.9042 
-13.9505 4.12164 -17.2945 -5.74389 4.12164 -18.647 2.46272 4.12164 -16.5617 
10.6693 4.12164 -19.1762 18.876 4.12164 -16.376 27.0826 4.12164 -17.7907 
35.2892 4.12164 -18.7537 43.4958 4.12164 -18.9548 51.7024 4.12164 -16.8286 
59.909 4.12164 -13.2518 -46.777 12.3283 -15.1834 -38.5704 12.3283 -17.2914 
-30.3637 12.3283 -18.2389 -22.1571 12.3283 -17.4689 -13.9505 12.3283 -16.6005 
-5.74389 12.3283 -17.1883 2.46272 12.3283 -17.6344 10.6693 12.3283 -16.9813 
18.876 12.3283 -16.8349 27.0826 12.3283 -17.7758 35.2892 12.3283 -18.2543 
43.4958 12.3283 -17.7769 51.7024 12.3283 -15.7282 -46.777 20.5349 -12.9298 
-38.5704 20.5349 -16.3401 -30.3637 20.5349 -17.6136 -22.1571 20.5349 -17.9863 
-13.9505 20.5349 -17.6286 -5.74389 20.5349 -17.2934 2.46272 20.5349 -17.124 
10.6693 20.5349 -17.0837 18.876 20.5349 -17.4459 27.0826 20.5349 -17.8724 
35.2892 20.5349 -18.2754 43.4958 20.5349 -15.627 -38.5704 28.7415 -14.2839 
-30.3637 28.7415 -17.1298 -22.1571 28.7415 -17.941 -13.9505 28.7415 -18.1191 
-5.74389 28.7415 -18.0235 2.46272 28.7415 -17.971 10.6693 28.7415 -17.8943 
18.876 28.7415 -17.9806 27.0826 28.7415 -16.8406 35.2892 28.7415 -15.3096 
-30.3637 36.9481 -14.1334 -22.1571 36.9481 -16.6898 -13.9505 36.9481 -17.594 
-5.74389 36.9481 -17.8364 2.46272 36.9481 -18.0634 10.6693 36.9481 -17.6306 
18.876 36.9481 -17.693 27.0826 36.9481 -15.2797 -22.1571 45.1547 -12.3723 
-13.9505 45.1547 -15.2331 -5.74389 45.1547 -15.9758 2.46272 45.1547 -16.3943 
10.6693 45.1547 -16.0376 18.876 45.1547 -13.5915 -46.777 -38.6128 -12.1408 
-38.5704 -41.6763 -12.1408 -30.3637 -43.4483 -12.1408 -30.3637 -45.1181 -7.35348 
-22.1571 -42.1748 -12.1408 -22.1571 -45.1181 -4.23855 -13.9505 -39.9611 -12.1408 
-5.74389 -37.3435 -12.1408 18.876 -37.193 -12.1408 -48.9461 -36.9114 -12.1408 
-54.9836 -29.5595 -12.1408 -3.67882 -36.9114 -12.1408 2.46272 -35.414 -12.1408 
2.46272 -36.9114 -10.1005 16.7896 -36.9114 -12.1408 10.6693 -35.6735 -12.1408 
10.6693 -36.9114 -9.96737 25.2401 -36.9114 -12.1408 27.0826 -36.8063 -12.1408 
27.0826 -36.9114 -11.9073 35.2892 -35.7753 -12.1408 35.2892 -36.9114 -10.0821 
43.4958 -33.055 -12.1408 43.4958 -36.9114 -5.43512 51.7024 -29.6627 -12.1408 
-55.5456 -28.7048 -12.1408 52.6389 -28.7048 -12.1408 -56.5929 -20.4982 -12.1408 
56.9574 -20.4982 -12.1408 59.909 -14.4149 -12.1408 59.909 -20.4982 -8.78665 
-58.5275 -12.2916 -12.1408 -63.1902 -12.2916 -5.34717 60.4308 -12.2916 -12.1408 
-57.2744 -4.08498 -12.1408 -54.9836 3.53992 -12.1408 62.36 -4.08498 -12.1408 
-54.767 4.12164 -12.1408 -54.9836 4.12164 -11.9851 61.0702 4.12164 -12.1408 
59.909 7.06845 -12.1408 -52.8718 12.3283 -12.1408 -54.9836 12.3283 -9.53029 
56.5841 12.3283 -12.1408 51.7024 18.4631 -12.1408 59.909 12.3283 -5.23601 
-47.7088 20.5349 -12.1408 -46.777 22.3656 -12.1408 49.9465 20.5349 -12.1408 
43.4958 25.9798 -12.1408 51.7024 20.5349 -6.79112 -42.6714 28.7415 -12.1408 
-46.777 28.7415 -7.30963 -38.5704 32.6359 -12.1408 40.5544 28.7415 -12.1408 
35.2892 33.5577 -12.1408 -34.0595 36.9481 -12.1408 -38.5704 36.9481 -7.71468 
-30.3637 40.6511 -12.1408 31.8796 36.9481 -12.1408 27.0826 41.3589 -12.1408 
-22.6967 45.1547 -12.1408 -30.3637 45.1547 -4.80041 -22.1571 45.4007 -12.1408 
-13.9505 49.984 -12.1408 -5.74389 50.7667 -12.1408 2.46272 51.0427 -12.1408 
10.6693 50.0147 -12.1408 21.5745 45.1547 -12.1408 18.876 46.9912 -12.1408 
-5.74389 53.3613 -7.45779 2.46272 53.3613 -6.92649 -30.3637 -46.0381 -3.93418 
-22.1571 -45.1985 -3.93418 -46.777 -41.0931 -3.93418 -34.8594 -45.1181 -3.93418 
-38.5704 -44.3586 -3.93418 -30.3637 -45.1181 -1.31229 -21.7681 -45.1181 -3.93418 
-22.1571 -45.1181 -3.64885 -13.9505 -43.4749 -3.93418 -5.74389 -41.6245 -3.93418 
2.46272 -39.5472 -3.93418 10.6693 -38.8499 -3.93418 18.876 -38.8207 -3.93418 
27.0826 -39.268 -3.93418 35.2892 -39.0303 -3.93418 43.4958 -37.4283 -3.93418 
-53.1401 -36.9114 -3.93418 -54.9836 -35.0986 -3.93418 44.5049 -36.9114 -3.93418 
43.4958 -36.9114 -0.526168 51.7024 -32.4761 -3.93418 -59.5736 -28.7048 -3.93418 
55.8854 -28.7048 -3.93418 59.909 -23.5328 -3.93418 -62.5505 -20.4982 -3.93418 
-63.1902 -16.2017 -3.93418 62.0422 -20.4982 -3.93418 -63.7562 -12.2916 -3.93418 
-63.1902 -6.77586 -3.93418 -63.1902 -12.2916 -0.869784 64.7812 -12.2916 -3.93418 
-62.8815 -4.08498 -3.93418 66.1742 -4.08498 -3.93418 -60.5746 4.12164 -3.93418 
64.798 4.12164 -3.93418 -57.4832 12.3283 -3.93418 -54.9836 17.5105 -3.93418 
60.3241 12.3283 -3.93418 59.909 12.9799 -3.93418 59.909 12.3283 -2.7161 
-53.4622 20.5349 -3.93418 43.4958 27.5001 -3.93418 52.5892 20.5349 -3.93418 
51.7024 21.1648 -3.93418 51.7024 20.5349 -2.84692 -48.4038 28.7415 -3.93418 
-46.777 30.8069 -3.93418 41.7734 28.7415 -3.93418 35.2892 34.6273 -3.93418 
35.2892 28.7415 1.61583 -41.1357 36.9481 -3.93418 -38.5704 39.4098 -3.93418 
33.2426 36.9481 -3.93418 27.0826 42.8347 -3.93418 27.0826 36.9481 2.54211 
-30.8209 45.1547 -3.93418 -30.3637 45.4661 -3.93418 -30.3637 45.1547 -1.54548 
-22.1571 50.284 -3.93418 -13.9505 53.2951 -3.93418 10.6693 52.0024 -3.93418 
23.9507 45.1547 -3.93418 18.876 48.54 -3.93418 18.876 45.1547 0.821677 
-13.5192 53.3613 -3.93418 -5.74389 54.5288 -3.93418 -5.74389 53.3613 -0.917759 
5.69929 53.3613 -3.93418 2.46272 54.1989 -3.93418 2.46272 53.3613 -1.89369 
-46.777 -37.9415 4.27244 -38.5704 -40.8447 4.27244 -30.3637 -42.4649 4.27244 
-22.1571 -42.334 4.27244 -13.9505 -41.5336 4.27244 -5.74389 -40.3924 4.27244 
2.46272 -38.8069 4.27244 10.6693 -37.7803 4.27244 18.876 -37.9638 4.27244 
27.0826 -37.8386 4.27244 35.2892 -37.4884 4.27244 -48.5887 -36.9114 4.27244 
-54.9836 -31.4475 4.27244 -46.777 -36.9114 5.40554 -38.5704 -36.9114 8.98741 
-30.3637 -36.9114 9.57178 -22.1571 -36.9114 10.432 -13.9505 -36.9114 10.4734 
-5.74389 -36.9114 10.2381 2.46272 -36.9114 8.51456 10.6693 -36.9114 6.18434 
18.876 -36.9114 6.35102 27.0826 -36.9114 6.26316 38.7486 -36.9114 4.27244 
35.2892 -36.9114 5.42383 43.4958 -35.8614 4.27244 51.7024 -30.9312 4.27244 
-56.8697 -28.7048 4.27244 -54.9836 -28.7048 6.28282 -46.777 -28.7048 10.8945 
43.4958 -28.7048 12.4295 54.3534 -28.7048 4.27244 51.7024 -28.7048 7.99981 
59.909 -22.2373 4.27244 -60.2232 -20.4982 4.27244 -54.9836 -20.4982 10.7414 
61.1992 -20.4982 4.27244 59.909 -20.4982 6.35255 -62 -12.2916 4.27244 
-54.9836 -12.2916 11.2457 64.2061 -12.2916 4.27244 59.909 -12.2916 11.4929 
-61.1549 -4.08498 4.27244 -54.9836 -4.08498 10.3056 65.2802 -4.08498 4.27244 
-58.4927 4.12164 4.27244 -54.9836 4.12164 9.64775 63.6381 4.12164 4.27244 
59.909 9.39694 4.27244 59.909 4.12164 9.68061 -56.2338 12.3283 4.27244 
-54.9836 14.9839 4.27244 -54.9836 12.3283 6.08505 56.2571 12.3283 4.27244 
51.7024 15.9195 4.27244 51.7024 12.3283 8.53739 -52.0771 20.5349 4.27244 
-46.777 20.5349 10.0932 18.876 20.5349 10.8697 27.0826 20.5349 7.95362 
35.2892 24.0871 4.27244 35.2892 20.5349 6.14659 45.2304 20.5349 4.27244 
43.4958 21.5647 4.27244 43.4958 20.5349 5.30347 -47.2966 28.7415 4.27244 
-46.777 29.3998 4.27244 -46.777 28.7415 5.0286 -38.5704 28.7415 11.9958 
18.876 28.7415 9.18585 29.4509 28.7415 4.27244 27.0826 31.8583 4.27244 
27.0826 28.7415 5.15539 -39.8535 36.9481 4.27244 -38.5704 38.1209 4.27244 
-38.5704 36.9481 5.9111 -30.3637 44.225 4.27244 -30.3637 36.9481 11.2001 
2.46272 36.9481 12.0361 10.6693 36.9481 9.57703 23.4176 36.9481 4.27244 
18.876 40.3683 4.27244 18.876 36.9481 6.01807 -28.6215 45.1547 4.27244 
-22.1571 48.1179 4.27244 -22.1571 45.1547 7.67702 -13.9505 50.4906 4.27244 
-13.9505 45.1547 9.71791 -5.74389 50.5627 4.27244 -5.74389 45.1547 9.12076 
2.46272 49.0521 4.27244 2.46272 45.1547 7.25392 11.4228 45.1547 4.27244 
10.6693 45.4747 4.27244 10.6693 45.1547 4.55764 -38.5704 -31.412 12.4791 
-30.3637 -32.8593 12.4791 -22.1571 -34.1883 12.4791 -13.9505 -34.6512 12.4791 
-5.74389 -34.951 12.4791 2.46272 -34.2989 12.4791 10.6693 -33.0591 12.4791 
18.876 -32.9637 12.4791 27.0826 -32.8619 12.4791 35.2892 -31.9234 12.4791 
-42.3161 -28.7048 12.4791 -46.777 -25.0931 12.4791 -38.5704 -28.7048 13.7478 
-30.3637 -28.7048 14.9946 -22.1571 -28.7048 15.66 -13.9505 -28.7048 16.3818 
-5.74389 -28.7048 16.8281 2.46272 -28.7048 16.4503 10.6693 -28.7048 16.0459 
[...]
POINT_DATA 528
SCALARS ImageScalars float
LOOKUP_TABLE default
0 0 0 0 0 0 0 0 0 
0 0 0 0 0 0 0 0 0 
0 0 0 0 0 0 0 0 0 
0 0 0 0 0 0 0 0 0 
0 0 0 0 0 0 0 0 0 
0 0 0 0 0 0 0 0 0 
0 0 0 0 0 0 0 0 0 
0 0 0 0 0 0 0 0 0 
0 0 0 0 0 0 0 0 0 
0 0 0 0 0 0 0 0 0 
0 0 0 0 0 0 0 0 0 
0 0 0 0 0 0 0 0 0 
0 0 0 0 0 0 0 0 0 
0 0 0 0 0 0 0 0 0 
0 0 0 0 0 0 0 0 0 
0 0 0 0 0 0 0 0 0 
0 0 0 0 0 0 0 0 0 
0 0 0 0 0 0 0 0 0 
0 0 0 0 0 0 0 0 0 
0 0 0 0 0 0 0 0 0 
0 0 0 0 0 0 0 0 0 
0 0 0 0 0 0 0 0 0 
0 0 0 0 0 0 0 0 0 
0 0 0 0 0 0 0 0 0 
0 0 0 0 0 0 0 0 0 
0 0 0 0 0 0 0 0 0 
0 0 0 0 0 0 0 0 0 
0 0 0 0 0 0 0 0 0 
0 0 0 0 0 0 0 0 0 
0 0 0 0 0 0 0 0 0 
0 0 0 0 0 0 0 0 0 
0 0 0 0 0 0 0 0 0 
0 0 0 0 0 0 0 0 0 
0 0 0 0 0 0 0 0 0 
0 0 0 0 0 0 0 0 0 
0 0 0 0 0 0 0 0 0 
0 0 0 0 0 0 0 0 0 
0 0 0 0 0 0 0 0 0 
0 0 0 0 0 0 0 0 0 
0 0 0 0 0 0 0 0 0 
0 0 0 0 0 0 0 0 0 
0 0 0 0 0 0 0 0 0 
0 0 0 0 0 0 0 0 0 
0 0 0 0 0 0 0 0 0 
0 0 0 0 0 0 0 0 0 
0 0 0 0 0 0 0 0 0 
0 0 0 0 0 0 0 0 0 
0 0 0 0 0 0 0 0 0 
0 0 0 0 0 0 0 0 0 
0 0 0 0 0 0 0 0 0 
0 0 0 0 0 0 0 0 0 
0 0 0 0 0 0 0 0 0 
0 0 0 0 0 0 0 0 0 
0 0 0 0 0 0 0 0 0 
0 0 0 0 0 0 0 0 0 
0 0 0 0 0 0 0 0 0 
0 0 0 0 0 0 0 0 0 
0 0 0 0 0 0 0 0 0 
0 0 0 0 0 0 
NORMALS Normals float
0.432445 0.569576 0.698981 0.210107 0.446465 0.869784 0.102663 0.353535 0.929771 
-0.123443 0.408179 0.904518 -0.221737 0.549569 0.805485 -0.209387 0.651781 0.72893 
0.045813 0.797854 0.601107 0.603062 0.309276 0.735299 0.325821 0.187521 0.926648 
0.0662549 0.255621 0.964504 0.0277765 0.092097 0.995363 -0.0284831 0.0565845 0.997991 
-0.113964 0.110614 0.987308 -0.107512 0.228596 0.967567 -0.00151746 0.292653 0.956217 
0.0583512 0.281001 0.957932 0.0437768 0.294581 0.954623 0.000346386 0.333417 0.94278 
-0.136966 0.333003 0.932925 -0.250153 0.424531 0.870171 -0.521418 0.504347 0.6883 
0.519089 0.121833 0.845993 0.303313 0.0287638 0.952457 0.0970533 0.00252558 0.995276 
-0.0780602 0.0207067 0.996734 -0.0786799 -0.0856765 0.993211 -0.0489531 -0.101784 0.993601 
-0.00615716 0.0339329 0.999405 -0.00846173 0.113297 0.993525 0.0451099 -0.00606276 0.998964 
0.115602 -0.000512912 0.993295 0.0361436 0.0455947 0.998306 -0.0993943 0.0999618 0.990014 
-0.182661 0.182364 0.966115 -0.397358 0.221669 0.890488 0.505395 0.0324585 0.862277 
0.179257 0.0137109 0.983707 0.0673903 -0.0670889 0.995469 -0.0678752 -0.0437047 0.996736 
-0.141295 -0.0753624 0.987095 0.00832504 -0.0149448 0.999854 0.113934 0.115606 0.986739 
-0.0395618 -0.0127966 0.999135 -0.0530068 0.0528587 0.997194 0.0855315 -0.109801 0.990267 
0.104532 -0.0822197 0.991117 0.0172923 0.00991545 0.999801 -0.158014 0.112181 0.981044 
-0.322334 0.124324 0.938426 -0.636279 0.205918 0.743469 0.532439 -0.139534 0.834889 
0.209373 -0.0599492 0.975996 0.0407058 -0.0319061 0.998662 -0.0824864 -0.0362992 0.995931 
-0.0414574 -0.00726639 0.999114 0.161231 0.086108 0.983153 -0.0336553 0.111167 0.993232 
-0.0745885 -0.0987148 0.992316 -0.0675081 0.176402 0.982001 -0.00910939 -0.0398115 0.999166 
0.153069 -0.0120152 0.988142 0.093125 0.00118039 0.995654 -0.0922128 0.0388622 0.994981 
-0.281214 0.0362572 0.95896 -0.58386 0.0372877 0.810998 0.287302 -0.117513 0.950604 
0.089018 -0.0529766 0.99462 -0.0494937 0.0240309 0.998485 -0.0324467 0.0400476 0.998671 
0.100339 -0.0461074 0.993884 -0.0263163 -0.150098 0.988321 0.0242272 0.0717939 0.997125 
-0.0506665 -0.106689 0.993001 -0.0441713 0.0505054 0.997747 0.140634 0.0113044 0.989997 
0.0712492 -0.0210284 0.997237 -0.117251 -0.0728846 0.990424 -0.327076 -0.0735881 0.942128 
-0.64917 -0.22972 0.725125 0.365716 -0.160758 0.916738 0.178935 -0.0757621 0.98094 
0.017217 -0.0101512 0.9998 -0.101787 0.0675911 0.992507 -0.0158406 0.0249429 0.999563 
0.0628663 -0.0674597 0.995739 -0.0131224 0.0199905 0.999714 -0.0471583 -0.0998268 0.993887 
0.0485894 0.0639812 0.996768 0.0857792 0.00484308 0.996302 0.00260261 -0.0301733 0.999541 
-0.135493 -0.222008 0.965585 -0.432046 -0.300489 0.850319 0.546376 -0.327176 0.770993 
0.239431 -0.187169 0.952702 0.0931407 -0.0646826 0.99355 0.000601123 0.0267805 0.999641 
-0.0428826 0.0940367 0.994645 -0.0309567 0.0509721 0.99822 -0.0129054 0.0237053 0.999636 
0.0195903 0.0552405 0.998281 0.0477714 0.0693433 0.996448 0.0504417 -0.0667689 0.996493 
-0.141263 -0.1855 0.972437 -0.379765 -0.385255 0.841045 0.399296 -0.350228 0.847292 
0.209782 -0.194678 0.958171 0.0562902 -0.0709474 0.99589 0.00478711 -0.00430666 0.999979 
-0.00901773 0.0332349 0.999407 -0.0078594 0.0569637 0.998345 0.000448118 0.0336934 0.999432 
-0.0743028 0.0190013 0.997055 -0.172473 -0.167689 0.970636 -0.374526 -0.453685 0.808641 
0.374836 -0.415262 0.828888 0.213714 -0.26744 0.939576 0.0614491 -0.168308 0.983817 
0.0296735 -0.111725 0.993296 -0.0124855 -0.0847363 0.996325 -0.0241325 -0.120142 0.992463 
-0.15131 -0.259611 0.953786 -0.403502 -0.422441 0.811622 0.359662 -0.623035 0.694601 
0.162452 -0.446708 0.879808 0.0729861 -0.385821 0.919682 0.000785985 -0.407401 0.913249 
-0.168291 -0.442137 0.881018 -0.405022 -0.61116 0.68003 0.459965 0.635996 0.61963 
0.25574 0.72302 0.641747 0.0137534 0.821129 0.570577 0.0333691 0.983836 0.175937 
-0.183222 0.801408 0.569363 -0.152876 0.98823 0.00543617 -0.22416 0.741969 0.63185 
-0.215337 0.673274 0.707342 0.0455347 0.815933 0.576351 0.517823 0.582801 0.626261 
0.621342 0.34113 0.705382 -0.175848 0.693609 0.698559 -0.0600832 0.711794 0.699814 
-0.090203 0.851509 0.516523 0.0537108 0.807204 0.587823 0.0713911 0.753303 0.653788 
0.0429038 0.886169 0.461371 -0.0392407 0.826273 0.561902 -0.0611642 0.82618 0.560076 
-0.0598095 0.838556 0.541523 -0.167223 0.785411 0.595959 -0.152802 0.894087 0.421022 
-0.296446 0.656252 0.693869 -0.354873 0.917577 0.179213 -0.538437 0.547957 0.640178 
0.633957 0.315933 0.705892 -0.578079 0.515616 0.632428 0.616005 0.129497 0.777026 
-0.60279 0.354368 0.71489 -0.656563 0.260291 0.707936 -0.763848 0.459881 0.452819 
0.654475 0.028963 0.755529 0.977705 0.0243697 0.208563 -0.664404 0.210552 0.717102 
0.631357 -0.156694 0.759497 0.617691 -0.159615 0.770053 -0.738435 0.0296479 0.673672 
0.614703 -0.159003 0.772566 0.630025 -0.16415 0.759028 -0.716464 -0.235453 0.656689 
-0.692307 -0.316195 0.648638 0.631058 -0.261786 0.730228 0.792078 -0.33562 0.509874 
-0.629069 -0.443239 0.638601 -0.615649 -0.556631 0.557797 -0.838921 -0.538835 0.0766 
0.580994 -0.352979 0.733384 0.580122 -0.366988 0.727171 -0.609824 -0.580383 0.539694 
-0.569454 -0.65816 0.492492 -0.635174 -0.769904 0.0616595 0.534396 -0.421824 0.732452 
0.748689 -0.559885 0.354956 0.48041 -0.476963 0.736011 -0.583539 -0.667755 0.462153 
-0.624247 -0.639751 0.448369 0.469946 -0.500727 0.726928 0.628172 -0.668134 0.398743 
0.435725 -0.551488 0.71134 -0.614787 -0.638291 0.463273 -0.542333 -0.6691 0.508115 
0.370833 -0.631372 0.681067 0.554161 -0.819197 0.14772 0.365587 -0.632412 0.682936 
0.21872 -0.707592 0.671919 0.0477017 -0.72762 0.68432 -0.0482169 -0.77853 0.625752 
-0.196434 -0.79613 0.572356 -0.49775 -0.681448 0.536539 -0.434059 -0.702686 0.56376 
0.0543113 -0.97591 0.211303 -0.137525 -0.980415 0.14097 0.0501647 0.997745 -0.0445984 
-0.151777 0.988373 -0.00911288 0.477005 0.878053 -0.0385976 0.170398 0.983659 -0.0581282 
0.270602 0.96052 -0.0646185 0.0586329 0.978546 -0.19751 -0.154035 0.988044 -0.00658215 
-0.149716 0.988455 -0.0232768 -0.209183 0.976497 0.0519176 -0.241947 0.964368 0.107034 
-0.159003 0.976949 0.142437 -0.0434327 0.995899 0.0793683 0.0257198 0.999057 0.0349677 
0.0132182 0.998968 0.043454 -0.116914 0.991311 0.0602818 -0.34832 0.932803 0.0924788 
0.672014 0.739924 0.0301477 0.739627 0.670993 0.0521532 -0.374317 0.922646 0.0927933 
-0.356289 0.930447 -0.0855986 -0.607081 0.792195 0.0622897 0.872048 0.485541 0.061503 
-0.735555 0.669806 0.101576 -0.824672 0.547085 0.143579 0.968916 0.218929 0.115207 
0.986853 0.116684 0.111827 -0.860522 0.4836 0.160105 0.993449 0.0211248 0.112311 
0.985303 -0.122877 0.118654 0.996218 0.0298447 -0.081603 -0.951652 0.234909 0.19793 
0.973769 -0.190697 0.124134 -0.987779 -0.0013752 0.155858 0.943289 -0.304055 0.133251 
-0.942206 -0.307493 0.133024 0.904991 -0.405637 0.128256 0.88139 -0.453239 0.133143 
-0.843266 -0.53742 -0.00903828 -0.832589 -0.553738 -0.0129936 -0.823822 -0.56189 -0.07482 
0.864605 -0.479535 0.150014 -0.614532 -0.74356 -0.26357 -0.600016 -0.789251 -0.130625 
-0.590953 -0.793516 -0.145285 -0.57681 -0.795914 -0.183879 0.796156 -0.588524 0.140621 
0.769036 -0.624434 0.136624 -0.625926 -0.723384 -0.291433 -0.68951 -0.651672 -0.316068 
-0.482879 -0.552272 -0.679576 0.688048 -0.706755 0.164582 0.651927 -0.741176 0.160154 
-0.702179 -0.644514 -0.302565 -0.57242 -0.777493 -0.260462 -0.521262 -0.477913 -0.707026 
0.560237 -0.822691 0.0965138 0.555746 -0.82584 0.0955747 0.551209 -0.833773 -0.0314768 
0.435564 -0.896161 0.0847302 0.236895 -0.971518 -0.00584549 -0.307556 -0.936602 -0.167887 
-0.540959 -0.807038 -0.236755 -0.506094 -0.841449 -0.189296 -0.496307 -0.661414 -0.562327 
0.226839 -0.973903 -0.0075555 0.0532532 -0.997972 -0.0348716 0.029107 -0.973644 -0.226209 
-0.21622 -0.970877 -0.103185 -0.154425 -0.985293 -0.0731501 -0.174424 -0.962059 -0.209805 
0.388419 0.746636 -0.540061 0.234953 0.796636 -0.556927 0.0735211 0.809492 -0.582509 
-0.0504486 0.861852 -0.504645 -0.108576 0.906192 -0.408691 -0.154275 0.935935 -0.316583 
-0.152986 0.957212 -0.245643 -0.048989 0.958944 -0.279332 0.00362626 0.956546 -0.291559 
-0.0277111 0.949354 -0.312983 -0.10638 0.934651 -0.339279 0.439443 0.716337 -0.541988 
0.671631 0.530092 -0.517605 0.391787 0.701427 -0.595401 0.196327 0.648469 -0.735488 
0.0623845 0.643546 -0.76286 0.0429531 0.659486 -0.750489 -0.00638196 0.716593 -0.697462 
-0.0564769 0.80273 -0.593662 -0.126809 0.882873 -0.452166 -0.0565266 0.932526 -0.356651 
0.00216847 0.92584 -0.37791 -0.0273882 0.920832 -0.388997 -0.207554 0.915037 -0.345873 
-0.110245 0.917935 -0.381106 -0.344162 0.866134 -0.362442 -0.551831 0.763717 -0.334991 
0.739944 0.457231 -0.493379 0.639301 0.471594 -0.607366 0.366662 0.447557 -0.815629 
-0.293166 0.652481 -0.6988 -0.63582 0.698441 -0.3285 -0.5354 0.68549 -0.493406 
-0.782458 0.539059 -0.311729 0.839439 0.261515 -0.476395 0.609142 0.231862 -0.758411 
-0.805261 0.505161 -0.31043 -0.763042 0.50724 -0.400593 0.902863 0.0427085 -0.427802 
0.590715 -0.027356 -0.806416 -0.931861 0.218141 -0.289912 -0.733769 0.202737 -0.648445 
0.874553 -0.179551 -0.450465 0.656133 -0.0693438 -0.751453 -0.946006 -0.0359453 -0.322149 
0.867259 -0.264981 -0.421482 0.713323 -0.172501 -0.679274 -0.839143 -0.395021 -0.373895 
-0.685557 -0.579445 -0.440743 -0.668637 -0.419487 -0.613966 0.860317 -0.334502 -0.38466 
0.848073 -0.373092 -0.376263 0.813247 -0.331739 -0.478099 -0.559923 -0.649686 -0.514192 
-0.461698 -0.697558 -0.547949 -0.432225 -0.622179 -0.652745 0.806253 -0.447279 -0.387165 
0.623463 -0.337793 -0.705117 -0.496547 -0.396897 -0.771955 -0.234824 -0.433782 -0.86988 
-0.262716 -0.516627 -0.814909 -0.14159 -0.555637 -0.81928 -0.320264 -0.683147 -0.656309 
-0.298859 -0.661714 -0.687618 -0.259861 -0.663273 -0.701813 0.752218 -0.560971 -0.345659 
0.744177 -0.572053 -0.3449 0.737339 -0.554702 -0.385535 0.436197 -0.369139 -0.820652 
-0.394515 -0.250663 -0.88404 -0.390777 -0.334707 -0.857476 -0.419777 -0.332675 -0.844461 
-0.382223 -0.274633 -0.882317 0.636285 -0.69362 -0.337687 0.616899 -0.709739 -0.340157 
0.600843 -0.677109 -0.424865 0.495554 -0.787136 -0.367209 0.386749 -0.540361 -0.747285 
-0.227104 -0.382175 -0.895749 -0.307294 -0.385903 -0.869856 -0.431708 -0.4076 -0.804668 
-0.3949 -0.441791 -0.805527 -0.37422 -0.38736 -0.842562 0.459656 -0.800354 -0.384903 
0.32327 -0.824542 -0.464357 0.263958 -0.743663 -0.614241 0.12254 -0.839472 -0.529407 
0.0583725 -0.646532 -0.76065 -0.052342 -0.777522 -0.626673 -0.119763 -0.600476 -0.790624 
-0.221456 -0.68478 -0.694287 -0.22309 -0.565648 -0.793897 -0.279192 -0.599816 -0.749848 
-0.2662 -0.613614 -0.743381 -0.267029 -0.601837 -0.752654 0.211105 0.429968 -0.877817 
0.081431 0.532018 -0.842808 0.0616848 0.562683 -0.824368 0.0271498 0.621399 -0.783024 
-0.0156414 0.687413 -0.726098 -0.0848938 0.706775 -0.702327 -0.0562611 0.715266 -0.696584 
-0.00887806 0.725855 -0.68779 -0.044276 0.72463 -0.687715 -0.166941 0.694061 -0.700292 
0.279642 0.393013 -0.87598 0.324301 0.364934 -0.872727 0.215463 0.366383 -0.905174 
0.104626 0.420717 -0.901139 0.0756251 0.427952 -0.900632 0.0648518 0.478349 -0.875772 
0.00294945 0.463123 -0.886289 -0.043282 0.455209 -0.889332 -0.0147196 0.516051 -0.856431 
-0.00879476 0.536079 -0.844122 -0.0592954 0.564799 -0.823095 -0.291038 0.65112 -0.700956 
-0.150871 0.579395 -0.800961 -0.292976 0.65018 -0.701021 -0.50188 0.489652 -0.712991 
0.46355 0.247683 -0.850749 0.298735 0.26009 -0.918211 0.181719 0.214828 -0.959597 
0.128632 0.18699 -0.973904 0.129205 0.209004 -0.969342 0.0831184 0.279465 -0.956551 
-0.0444134 0.338472 -0.939928 -0.0487117 0.335018 -0.940952 0.00376751 0.26666 -0.963783 
0.0229565 0.246898 -0.96877 0.00865521 0.304358 -0.952518 -0.095413 0.351604 -0.931274 
-0.25781 0.364457 -0.894821 -0.550764 0.436315 -0.711539 -0.491179 0.413704 -0.766546 
0.515388 -0.00874944 -0.856912 0.329708 0.050215 -0.942747 0.162752 0.0314481 -0.986166 
0.115922 -0.00237926 -0.993255 0.181264 -0.0415726 -0.982555 -0.23961 0.168164 -0.956195 
-0.682766 0.196286 -0.703777 -0.456026 0.159852 -0.875493 -0.691242 -0.048471 -0.720996 
0.533048 -0.0480704 -0.844719 0.334396 -0.0764041 -0.939331 0.137756 -0.0504889 -0.989178 
0.0583868 -0.0689471 -0.99591 0.128321 -0.120405 -0.984397 0.269916 -0.0818552 -0.959398 
-0.448466 -0.0883527 -0.889422 -0.688369 -0.0804492 -0.720886 -0.684967 -0.0934782 -0.722552 
-0.684972 -0.0806209 -0.724095 0.520756 -0.15554 -0.839417 0.347769 -0.146876 -0.926004 
0.168575 -0.0527332 -0.984277 0.0427633 -0.0179509 -0.998924 0.152019 -0.0169093 -0.988233 
0.331653 -0.0770244 -0.940252 0.0175676 -0.091234 -0.995674 -0.280362 -0.455512 -0.84493 
-0.5483 -0.419798 -0.723282 -0.42409 -0.52998 -0.734349 -0.428205 -0.421422 -0.799402 
0.483523 -0.245226 -0.84028 0.483713 -0.247404 -0.839531 0.463985 -0.230091 -0.855439 
0.234251 -0.117391 -0.965062 0.0926954 -0.0230492 -0.995428 0.086608 0.0242849 -0.995946 
0.120798 -0.14421 -0.982146 0.055479 -0.327479 -0.943228 0.14421 -0.0979959 -0.984683 
-0.483511 -0.522346 -0.702404 -0.368167 -0.608542 -0.702944 -0.216899 -0.645793 -0.732056 
-0.233084 -0.700493 -0.674523 -0.100385 -0.699241 -0.707803 -0.101385 -0.702256 -0.704668 
-0.157888 -0.66274 -0.732016 -0.154692 -0.663372 -0.732126 -0.155167 -0.663083 -0.732287 
0.471544 -0.263433 -0.841575 0.414097 -0.336261 -0.845844 0.340641 -0.222723 -0.913432 
0.174931 -0.126297 -0.976447 0.0517789 -0.0698963 -0.99621 -0.0296337 -0.109901 -0.993501 
-0.0163266 -0.194065 -0.980853 0.0270947 -0.308334 -0.950892 -0.484042 -0.44156 -0.755466 
-0.239247 -0.521248 -0.819183 0.402776 -0.351917 -0.844941 0.338822 -0.455761 -0.823093 
0.249662 -0.277985 -0.927574 0.103411 -0.198419 -0.974647 -0.0240161 -0.165575 -0.985905 
-0.13769 -0.189141 -0.972249 -0.225465 -0.365965 -0.902904 -0.198031 -0.300411 -0.933025 
-0.3011 -0.38486 -0.87248 -0.295469 -0.390837 -0.871748 -0.2941 -0.395723 -0.870005 
0.30365 -0.488289 -0.818151 0.187494 -0.524804 -0.830317 0.160862 -0.42113 -0.892621 
-0.00842317 -0.496474 -0.86801 -0.0353284 -0.378517 -0.92492 -0.2064 -0.385526 -0.899315 
-0.143273 -0.449044 -0.881948 -0.150809 -0.385086 -0.910475 0.147758 0.145364 -0.978283 
-0.0213992 0.291446 -0.956348 -0.0816467 0.251544 -0.964396 -0.0914609 0.188481 -0.977809 
0.0428541 0.21105 -0.976535 0.0274007 0.253048 -0.967066 -0.0764693 0.255411 -0.963804 
0.19965 -0.00597274 -0.979849 0.245023 -0.0392492 -0.968722 0.207773 0.0153824 -0.978056 
0.0654366 0.117262 -0.990943 -0.118169 0.139459 -0.983152 -0.100389 0.181613 -0.978233 
0.04455 0.209067 -0.976886 0.0424986 0.216062 -0.975454 -0.192338 0.177562 -0.965131 
-0.0691932 0.200184 -0.977312 -0.27889 0.0471868 -0.959163 0.221914 -0.0648849 -0.972905 
0.0721807 -0.0239458 -0.997104 0.00928679 -0.182935 -0.983081 0.00728485 -0.216045 -0.976356 
0.0716655 0.104917 -0.991895 0.0595559 0.184026 -0.981115 0.00564516 0.0593924 -0.998219 
-0.123937 -0.0352982 -0.991662 -0.32291 -0.0657709 -0.944142 -0.31162 -0.126524 -0.941745 
-0.311994 -0.0644368 -0.947896 0.244301 -0.0986749 -0.964666 -0.0285032 -0.125296 -0.99171 
0.0114844 -0.274729 -0.961453 -0.0763603 -0.133326 -0.988126 0.149004 -0.055251 -0.987292 
0.286995 0.00161253 -0.957931 -0.353657 -0.585628 -0.72936 -0.00665161 -0.0992721 -0.995038 
-0.230985 -0.522744 -0.8206 -0.189649 -0.379398 -0.905589 -0.1987 -0.43462 -0.878421 
-0.192561 -0.44027 -0.876973 -0.192869 -0.433267 -0.880387 0.116827 -0.157347 -0.980609 
-0.334603 -0.58082 -0.742084 -0.0414584 -0.39645 -0.91712 0.0588047 -0.260846 -0.963588 

