# vtk DataFile Version 4.2
vtk output
ASCII
DATASET POLYDATA
POINTS 503 float
-29.3395 -21.4839 -25.7671 -29.3395 -13.0463 -25.9623 -29.3395 3.82888 -25.7263 
-12.4643 -38.3591 -18.149 -4.02669 -38.3591 -19.1812 4.41091 -38.3591 -19.0062 
12.8485 -38.3591 -18.143 -37.7771 -29.9215 -19.0007 -29.3395 -21.7736 -25.6661 
-29.3395 -29.9215 -21.8332 -20.9019 -29.9215 -23.2649 -12.4643 -29.9215 -23.4358 
-4.02669 -29.9215 -23.2482 4.41091 -29.9215 -22.5962 12.8485 -29.9215 -21.9726 
21.2861 -29.9215 -21.2316 29.7237 -29.9215 -19.1847 -46.2147 -21.4839 -19.4875 
-29.7669 -21.4839 -25.6661 -37.7771 -21.4839 -23.4705 -26.0912 -21.4839 -25.6661 
-20.9019 -21.4839 -25.4868 -12.4643 -21.4839 -25.1662 -4.02669 -21.4839 -24.66 
4.41091 -21.4839 -24.0841 12.8485 -21.4839 -23.8147 21.2861 -21.4839 -23.1689 
29.7237 -21.4839 -21.5046 38.1613 -21.4839 -18.3342 -46.2147 -13.0463 -21.9214 
-32.1502 -13.0463 -25.6661 -37.7771 -13.0463 -25.0429 -25.8397 -13.0463 -25.6661 
-29.3395 -8.76134 -25.6661 -20.9019 -13.0463 -25.2381 -12.4643 -13.0463 -24.6194 
-4.02669 -13.0463 -24.5801 4.41091 -13.0463 -24.4008 12.8485 -13.0463 -24.4438 
21.2861 -13.0463 -23.7259 29.7237 -13.0463 -22.1725 38.1613 -13.0463 -19.8528 
-46.2147 -4.60873 -22.3557 -37.7771 -4.60873 -25.4761 -29.3395 2.36613 -25.6661 
-29.3395 -4.60873 -25.3826 -20.9019 -4.60873 -24.5217 -12.4643 -4.60873 -23.8759 
-4.02669 -4.60873 -23.9109 4.41091 -4.60873 -23.3056 12.8485 -4.60873 -24.1772 
21.2861 -4.60873 -23.6365 29.7237 -4.60873 -22.5945 38.1613 -4.60873 -20.847 
-46.2147 3.82888 -21.4093 -30.038 3.82888 -25.6661 -37.7771 3.82888 -24.9579 
-28.9634 3.82888 -25.6661 -29.3395 4.36614 -25.6661 -20.9019 3.82888 -24.389 
-12.4643 3.82888 -24.0161 -4.02669 3.82888 -24.5263 4.41091 3.82888 -23.1562 
12.8485 3.82888 -23.7692 21.2861 3.82888 -23.8581 29.7237 3.82888 -23.4495 
38.1613 3.82888 -21.8229 46.5989 3.82888 -17.7249 -46.2147 12.2665 -18.9479 
-37.7771 12.2665 -23.6515 -29.3395 12.2665 -24.7684 -20.9019 12.2665 -24.271 
-12.4643 12.2665 -23.3019 -4.02669 12.2665 -23.1455 4.41091 12.2665 -22.4805 
12.8485 12.2665 -22.6421 21.2861 12.2665 -23.4114 29.7237 12.2665 -23.3665 
38.1613 12.2665 -21.9683 46.5989 12.2665 -17.4167 -37.7771 20.7041 -21.5329 
-29.3395 20.7041 -23.7562 -20.9019 20.7041 -23.9345 -12.4643 20.7041 -23.6292 
-4.02669 20.7041 -23.5891 4.41091 20.7041 -23.4526 12.8485 20.7041 -23.0303 
21.2861 20.7041 -23.0239 29.7237 20.7041 -22.6631 38.1613 20.7041 -20.7094 
-29.3395 29.1417 -21.6288 -20.9019 29.1417 -22.8961 -12.4643 29.1417 -23.557 
-4.02669 29.1417 -24.8812 4.41091 29.1417 -24.9136 12.8485 29.1417 -23.7851 
21.2861 29.1417 -22.7685 29.7237 29.1417 -21.2332 38.1613 29.1417 -17.635 
-20.9019 37.5793 -20.0194 -12.4643 37.5793 -21.9428 -4.02669 37.5793 -23.6537 
4.41091 37.5793 -23.9953 12.8485 37.5793 -22.8987 21.2861 37.5793 -20.8069 
29.7237 37.5793 -17.5163 -4.02669 46.0169 -18.2108 4.41091 46.0169 -19.5182 
12.8485 46.0169 -18.4649 -12.4643 -39.1915 -17.2285 -4.02669 -40.5003 -17.2285 
4.41091 -40.5616 -17.2285 12.8485 -39.4447 -17.2285 -37.7771 -31.5794 -17.2285 
-29.3395 -34.6539 -17.2285 -15.7145 -38.3591 -17.2285 -20.9019 -36.8648 -17.2285 
-20.9019 -38.3591 -11.4314 17.9719 -38.3591 -17.2285 21.2861 -37.4337 -17.2285 
21.2861 -38.3591 -16.4511 29.7237 -32.979 -17.2285 29.7237 -38.3591 -11.3093 
-40.6119 -29.9215 -17.2285 -46.2147 -24.9295 -17.2285 33.1318 -29.9215 -17.2285 
38.1613 -23.8129 -17.2285 38.1613 -29.9215 -12.751 -48.5058 -21.4839 -17.2285 
39.7797 -21.4839 -17.2285 46.5989 -21.4839 -9.81498 -51.5428 -13.0463 -17.2285 
-54.6523 -13.0463 -9.00451 42.7009 -13.0463 -17.2285 46.5989 -13.0463 -14.426 
-51.6876 -4.60873 -17.2285 46.3852 -4.60873 -17.2285 46.5989 -3.10241 -17.2285 
46.5989 -4.60873 -17.0956 -50.42 3.82888 -17.2285 47.2246 3.82888 -17.2285 
-47.8419 12.2665 -17.2285 -46.2147 16.0406 -17.2285 46.8146 12.2665 -17.2285 
46.5989 13.0577 -17.2285 -43.5226 20.7041 -17.2285 -46.2147 20.7041 -12.5427 
-37.7771 28.6334 -17.2285 43.8063 20.7041 -17.2285 46.5989 20.7041 -14.3638 
-37.2837 29.1417 -17.2285 -37.7771 29.1417 -16.7625 -29.3395 35.762 -17.2285 
38.7868 29.1417 -17.2285 38.1613 29.9237 -17.2285 -26.9056 37.5793 -17.2285 
-29.3395 37.5793 -15.1837 -20.9019 40.7618 -17.2285 -12.4643 43.8751 -17.2285 
21.2861 43.3173 -17.2285 30.29 37.5793 -17.2285 29.7237 37.9978 -17.2285 
-6.74962 46.0169 -17.2285 -12.4643 46.0169 -12.3135 -4.02669 46.7974 -17.2285 
4.41091 48.0377 -17.2285 16.2959 46.0169 -17.2285 12.8485 47.1951 -17.2285 
21.2861 46.0169 -12.83 -20.9019 -38.8935 -8.7909 -12.4643 -42.1153 -8.7909 
-4.02669 -44.7989 -8.7909 4.41091 -46.0633 -8.7909 4.41091 -46.7967 -2.17195 
12.8485 -45.6109 -8.7909 12.8485 -46.7967 -0.639528 21.2861 -43.5478 -8.7909 
29.7237 -39.8682 -8.7909 -37.7771 -34.4228 -8.7909 -23.0513 -38.3591 -8.7909 
-29.3395 -36.7973 -8.7909 -20.9019 -38.3591 -3.90802 32.0109 -38.3591 -8.7909 
38.1613 -33.2403 -8.7909 -45.6226 -29.9215 -8.7909 -46.2147 -29.455 -8.7909 
41.3822 -29.9215 -8.7909 46.5989 -22.6157 -8.7909 -51.8935 -21.4839 -8.7909 
-54.6523 -13.2508 -8.7909 47.3169 -21.4839 -8.7909 -54.7168 -13.0463 -8.7909 
-54.6523 -8.35954 -8.7909 -54.6523 -13.0463 -6.56665 51.1802 -13.0463 -8.7909 
-54.6033 -4.60873 -8.7909 53.3677 -4.60873 -8.7909 55.0365 -4.60873 -0.781551 
-53.4033 3.82888 -8.7909 53.7123 3.82888 -8.7909 -51.1945 12.2665 -8.7909 
52.5792 12.2665 -8.7909 -47.6382 20.7041 -8.7909 -46.2147 23.3193 -8.7909 
49.9048 20.7041 -8.7909 46.5989 26.6661 -8.7909 -42.5663 29.1417 -8.7909 
-37.7771 34.9059 -8.7909 45.0844 29.1417 -8.7909 38.1613 36.8608 -8.7909 
-34.6995 37.5793 -8.7909 -29.3395 41.2535 -8.7909 -20.9019 44.8317 -8.7909 
37.3897 37.5793 -8.7909 29.7237 43.3176 -8.7909 -16.5935 46.0169 -8.7909 
-12.4643 47.1103 -8.7909 -4.02669 49.0015 -8.7909 4.41091 50.2021 -8.7909 
12.8485 49.806 -8.7909 24.2516 46.0169 -8.7909 21.2861 47.3852 -8.7909 
4.41091 -46.9882 -0.353301 12.8485 -46.8345 -0.353301 -12.4643 -41.2681 -0.353301 
3.50239 -46.7967 -0.353301 -4.02669 -45.1141 -0.353301 4.41091 -46.7967 0.706846 
13.0083 -46.7967 -0.353301 12.8485 -46.7967 -0.159719 21.2861 -44.6633 -0.353301 
29.7237 -41.149 -0.353301 -37.7771 -33.4331 -0.353301 -29.3395 -35.7569 -0.353301 
-19.8516 -38.3591 -0.353301 -20.9019 -37.94 -0.353301 34.1183 -38.3591 -0.353301 
38.1613 -35.3553 -0.353301 -44.7944 -29.9215 -0.353301 -46.2147 -28.9009 -0.353301 
43.778 -29.9215 -0.353301 46.5989 -26.332 -0.353301 -51.4506 -21.4839 -0.353301 
49.9032 -21.4839 -0.353301 -54.4605 -13.0463 -0.353301 53.4475 -13.0463 -0.353301 
55.0365 -5.00725 -0.353301 -54.179 -4.60873 -0.353301 55.0365 -0.42909 -0.353301 
55.0365 -4.60873 0.0066528 -52.9043 3.82888 -0.353301 54.9551 3.82888 -0.353301 
-50.6895 12.2665 -0.353301 52.8551 12.2665 -0.353301 -47.589 20.7041 -0.353301 
-46.2147 23.2456 -0.353301 -46.2147 20.7041 3.26349 49.3164 20.7041 -0.353301 
46.5989 25.7958 -0.353301 46.5989 20.7041 4.73199 -42.5483 29.1417 -0.353301 
-37.7771 35.1334 -0.353301 44.4406 29.1417 -0.353301 38.1613 35.8419 -0.353301 
38.1613 29.1417 7.88227 -35.1012 37.5793 -0.353301 -29.3395 41.7277 -0.353301 
-20.9019 45.1077 -0.353301 36.0186 37.5793 -0.353301 29.7237 41.6815 -0.353301 
29.7237 37.5793 5.60313 -16.7454 46.0169 -0.353301 -12.4643 46.907 -0.353301 
-12.4643 46.0169 3.1411 -4.02669 48.0791 -0.353301 -4.02669 46.0169 6.26513 
4.41091 48.7119 -0.353301 4.41091 46.0169 5.94177 12.8485 47.9448 -0.353301 
12.8485 46.0169 3.40463 21.558 46.0169 -0.353301 21.2861 46.1363 -0.353301 
21.2861 46.0169 -0.145715 -12.4643 -39.7677 8.0843 -4.02669 -43.7132 8.0843 
4.41091 -45.4418 8.0843 12.8485 -45.0935 8.0843 21.2861 -42.9979 8.0843 
29.7237 -39.3928 8.0843 -37.7771 -30.533 8.0843 -29.3395 -33.3524 8.0843 
-15.435 -38.3591 8.0843 -20.9019 -35.9562 8.0843 -12.4643 -38.3591 13.6978 
31.4322 -38.3591 8.0843 29.7237 -38.3591 10.8312 38.1613 -33.7618 8.0843 
-38.8383 -29.9215 8.0843 -46.2147 -24.0447 8.0843 -37.7771 -29.9215 9.26196 
42.3643 -29.9215 8.0843 38.1613 -29.9215 16.4823 46.5989 -24.7175 8.0843 
-48.1584 -21.4839 8.0843 -46.2147 -21.4839 11.1695 48.8203 -21.4839 8.0843 
46.5989 -21.4839 13.5303 -50.929 -13.0463 8.0843 -46.2147 -13.0463 14.8118 
52.3055 -13.0463 8.0843 -50.9943 -4.60873 8.0843 -46.2147 -4.60873 14.7052 
53.1913 -4.60873 8.0843 -49.6504 3.82888 8.0843 -46.2147 3.82888 12.7103 
52.1217 3.82888 8.0843 46.5989 3.82888 16.1133 -47.307 12.2665 8.0843 
-46.2147 15.1834 8.0843 -46.2147 12.2665 9.65049 49.1463 12.2665 8.0843 
46.5989 17.3168 8.0843 46.5989 12.2665 11.4796 -43.8891 20.7041 8.0843 
-37.7771 20.7041 14.6923 44.4829 20.7041 8.0843 38.1613 28.9454 8.0843 
38.1613 20.7041 14.1022 -39.035 29.1417 8.0843 -37.7771 30.7675 8.0843 
-37.7771 29.1417 9.76793 37.9371 29.1417 8.0843 29.7237 35.3771 8.0843 
29.7237 29.1417 13.2428 -30.6901 37.5793 8.0843 -29.3395 38.602 8.0843 
-29.3395 37.5793 9.50515 -20.9019 42.6868 8.0843 -20.9019 37.5793 15.2194 
-12.4643 44.6775 8.0843 -4.02669 45.4084 8.0843 4.41091 44.9832 8.0843 
12.8485 43.0525 8.0843 12.8485 37.5793 13.8547 25.8289 37.5793 8.0843 
21.2861 39.7586 8.0843 21.2861 37.5793 10.257 -4.02669 -41.2402 16.5219 
4.41091 -42.4778 16.5219 12.8485 -41.7058 16.5219 21.2861 -39.3699 16.5219 
-29.3395 -30.4967 16.5219 -20.9019 -33.5055 16.5219 -10.7945 -38.3591 16.5219 
-12.4643 -37.5552 16.5219 -4.02669 -38.3591 20.7428 4.41091 -38.3591 22.025 
12.8485 -38.3591 20.8489 23.8562 -38.3591 16.5219 21.2861 -38.3591 17.9121 
29.7237 -35.7158 16.5219 -30.5028 -29.9215 16.5219 -37.7771 -24.8822 16.5219 
-29.3395 -29.9215 17.3315 -20.9019 -29.9215 21.4103 38.1326 -29.9215 16.5219 
29.7237 -29.9215 22.4453 38.1613 -29.8969 16.5219 -41.5039 -21.4839 16.5219 
-37.7771 -21.4839 19.3211 -29.3395 -21.4839 24.1062 45.1151 -21.4839 16.5219 
38.1613 -21.4839 23.4291 46.5989 -17.5157 16.5219 -44.5508 -13.0463 16.5219 
-37.7771 -13.0463 21.427 48.0198 -13.0463 16.5219 46.5989 -13.0463 18.1873 
-44.3107 -4.60873 16.5219 -37.7771 -4.60873 20.9809 -29.3395 -4.60873 24.5962 
[...]
POINT_DATA 503
SCALARS ImageScalars float
LOOKUP_TABLE default
0 0 0 0 0 0 0 0 0 
0 0 0 0 0 0 0 0 0 
0 0 0 0 0 0 0 0 0 
0 0 0 0 0 0 0 0 0 
0 0 0 0 0 0 0 0 0 
0 0 0 0 0 0 0 0 0 
0 0 0 0 0 0 0 0 0 
0 0 0 0 0 0 0 0 0 
0 0 0 0 0 0 0 0 0 
0 0 0 0 0 0 0 0 0 
0 0 0 0 0 0 0 0 0 
0 0 0 0 0 0 0 0 0 
0 0 0 0 0 0 0 0 0 
0 0 0 0 0 0 0 0 0 
0 0 0 0 0 0 0 0 0 
0 0 0 0 0 0 0 0 0 
0 0 0 0 0 0 0 0 0 
0 0 0 0 0 0 0 0 0 
0 0 0 0 0 0 0 0 0 
0 0 0 0 0 0 0 0 0 
0 0 0 0 0 0 0 0 0 
0 0 0 0 0 0 0 0 0 
0 0 0 0 0 0 0 0 0 
0 0 0 0 0 0 0 0 0 
0 0 0 0 0 0 0 0 0 
0 0 0 0 0 0 0 0 0 
0 0 0 0 0 0 0 0 0 
0 0 0 0 0 0 0 0 0 
0 0 0 0 0 0 0 0 0 
0 0 0 0 0 0 0 0 0 
0 0 0 0 0 0 0 0 0 
0 0 0 0 0 0 0 0 0 
0 0 0 0 0 0 0 0 0 
0 0 0 0 0 0 0 0 0 
0 0 0 0 0 0 0 0 0 
0 0 0 0 0 0 0 0 0 
0 0 0 0 0 0 0 0 0 
0 0 0 0 0 0 0 0 0 
0 0 0 0 0 0 0 0 0 
0 0 0 0 0 0 0 0 0 
0 0 0 0 0 0 0 0 0 
0 0 0 0 0 0 0 0 0 
0 0 0 0 0 0 0 0 0 
0 0 0 0 0 0 0 0 0 
0 0 0 0 0 0 0 0 0 
0 0 0 0 0 0 0 0 0 
0 0 0 0 0 0 0 0 0 
0 0 0 0 0 0 0 0 0 
0 0 0 0 0 0 0 0 0 
0 0 0 0 0 0 0 0 0 
0 0 0 0 0 0 0 0 0 
0 0 0 0 0 0 0 0 0 
0 0 0 0 0 0 0 0 0 
0 0 0 0 0 0 0 0 0 
0 0 0 0 0 0 0 0 0 
0 0 0 0 0 0 0 0 
NORMALS Normals float
0.108702 0.195223 0.974716 0.00928921 -0.0206671 0.999743 -0.0381749 -0.036617 0.9986 
0.162168 0.760538 0.628716 0.0399031 0.624774 0.779785 -0.0516316 0.555926 0.829627 
-0.123833 0.580781 0.804586 0.386601 0.678277 0.624884 0.111039 0.20564 0.972308 
0.209286 0.588839 0.780684 0.0827192 0.441085 0.893645 -0.00179625 0.350643 0.936508 
-0.0485026 0.293373 0.954767 -0.0731038 0.27639 0.958261 -0.0771041 0.289074 0.954197 
-0.153422 0.339118 0.928149 -0.36307 0.407866 0.837751 0.621643 0.381413 0.684167 
0.118048 0.198618 0.972942 0.309593 0.281414 0.908272 0.0546185 0.160324 0.985552 
-0.0354623 0.100972 0.994257 -0.0490552 0.0672252 0.996531 -0.0633492 0.0738757 0.995253 
-0.0497364 0.102311 0.993508 -0.0528707 0.143201 0.98828 -0.136269 0.144459 0.980083 
-0.266739 0.165032 0.949534 -0.490091 0.284502 0.823936 0.529266 0.146899 0.835643 
0.0775637 0.0220875 0.996743 0.218032 0.114804 0.969166 -0.026801 -0.0378834 0.998923 
-0.0245537 -0.018964 0.999519 -0.0793799 -0.0574661 0.995187 -0.0378985 -0.0764658 0.996352 
-0.0129166 -0.0441734 0.99894 -0.00804862 -0.0450369 0.998953 -0.0395178 0.0209717 0.998999 
-0.134557 0.0266761 0.990547 -0.21089 0.0633457 0.975455 -0.383725 0.141536 0.912536 
0.521241 -0.0248254 0.853049 0.16 -0.00466966 0.987106 -0.0416334 -0.0325695 0.998602 
-0.0581493 -0.0152697 0.998191 -0.0891341 -0.0486743 0.99483 -0.0359991 -0.0348317 0.998745 
-0.033426 -0.00339945 0.999435 0.0161615 -0.0745414 0.997087 0.0187455 -0.0396847 0.999036 
-0.0926657 0.00788064 0.995666 -0.162943 0.074847 0.983792 -0.29329 0.106291 0.950096 
0.576652 -0.168507 0.799424 -0.0168799 -0.0426642 0.998947 0.222652 -0.109027 0.968782 
-0.040863 -0.0353995 0.998537 -0.0331972 -0.0412054 0.998599 -0.0959877 -0.0147802 0.995273 
0.00807036 -0.0342904 0.999379 -0.0511782 -0.0456606 0.997645 -0.0445887 -0.0486117 0.997822 
0.0416635 -0.0910852 0.994971 -0.0187562 -0.0133437 0.999735 -0.116964 0.045218 0.992106 
-0.305481 0.0658949 0.949915 -0.582251 0.0166498 0.812838 0.694435 -0.301536 0.653327 
0.278902 -0.174422 0.944347 0.0359141 -0.110355 0.993243 -0.086071 -0.026639 0.995933 
-0.0665886 -0.022927 0.997517 -0.0491035 -0.055557 0.997247 -0.0297917 0.0172386 0.999407 
0.0554859 -0.0434088 0.997515 0.0433194 -0.0498006 0.997819 -0.0853725 -0.0449646 0.995334 
-0.301949 -0.056123 0.951671 -0.641767 -0.114879 0.758246 0.408811 -0.348308 0.843537 
0.115835 -0.160626 0.980195 -0.0083943 -0.0776789 0.996943 -0.0201991 0.0151448 0.999681 
-0.0103855 0.0996106 0.994972 -0.0330072 0.143 0.989172 -0.0252108 0.067304 0.997414 
-0.0210486 -0.0375349 0.999074 -0.123594 -0.115716 0.985563 -0.357881 -0.237544 0.903047 
0.290779 -0.385582 0.875656 0.103606 -0.216391 0.970794 0.111676 -0.0925886 0.989422 
0.0812116 0.0103338 0.996643 -0.0651781 0.0359223 0.997227 -0.124234 -0.00808871 0.99222 
-0.140222 -0.114812 0.983441 -0.275419 -0.275176 0.921098 -0.481883 -0.398217 0.780521 
0.304559 -0.514062 0.801863 0.20121 -0.394081 0.89678 0.119862 -0.321709 0.939221 
-0.049424 -0.272616 0.960853 -0.166368 -0.262905 0.95037 -0.317559 -0.351367 0.880737 
-0.401796 -0.507887 0.761979 0.203549 -0.797041 0.56859 0.0072268 -0.737198 0.675638 
-0.192918 -0.723662 0.662644 0.179443 0.795218 0.579162 0.0725598 0.719861 0.690315 
-0.0440396 0.649071 0.759452 -0.126805 0.626486 0.769049 0.399189 0.747926 0.530335 
0.260575 0.821237 0.507613 0.196947 0.818711 0.539373 0.220812 0.841326 0.493368 
0.290519 0.942804 0.16346 -0.193121 0.616768 0.763086 -0.22876 0.600899 0.765891 
-0.245219 0.652529 0.716989 -0.401142 0.532086 0.745633 -0.471223 0.773505 0.423838 
0.478171 0.700443 0.529842 0.648883 0.518289 0.557071 -0.465543 0.466071 0.752361 
-0.523835 0.350138 0.776531 -0.625761 0.570415 0.532023 0.715663 0.404095 0.569679 
-0.535117 0.303483 0.788383 -0.773242 0.446148 0.45061 0.798747 0.159137 0.580241 
0.978675 0.148005 0.142443 -0.522409 0.206764 0.827247 -0.67154 0.273237 0.688749 
0.82878 -0.0584831 0.55651 -0.564744 0.145898 0.812267 -0.574871 0.123007 0.808945 
-0.575122 0.146749 0.804798 0.805529 -0.19633 0.559087 -0.600973 0.0136158 0.799154 
0.760509 -0.310267 0.570405 0.73349 -0.359604 0.576781 -0.648769 -0.116984 0.75194 
-0.64885 -0.132189 0.749347 0.663209 -0.421635 0.618367 0.833622 -0.438032 0.336456 
0.553558 -0.500849 0.665375 -0.593377 -0.288057 0.751616 -0.770483 -0.348054 0.534055 
0.546005 -0.503277 0.669769 0.571768 -0.515214 0.638463 0.41467 -0.597506 0.68632 
-0.503739 -0.406929 0.762008 -0.495283 -0.422191 0.759243 0.404571 -0.620375 0.671905 
0.457308 -0.690946 0.559877 0.337038 -0.684734 0.646177 0.276009 -0.752029 0.598558 
-0.379853 -0.664444 0.643604 -0.415415 -0.518828 0.74716 -0.409256 -0.524029 0.746929 
0.233791 -0.818044 0.525496 0.261795 -0.919705 0.292586 0.207585 -0.831522 0.515246 
0.0282601 -0.839326 0.542893 -0.277537 -0.762044 0.585031 -0.201931 -0.782671 0.58877 
-0.38591 -0.875855 0.289744 0.307396 0.950676 0.0415048 0.334205 0.937213 0.0996919 
0.226674 0.950923 0.210626 0.0496035 0.957086 0.285527 0.0881738 0.995669 0.0294797 
-0.13934 0.935798 0.32383 -0.130702 0.991199 -0.0210082 -0.307636 0.899774 0.309462 
-0.478351 0.817835 0.319884 0.397125 0.913856 0.0846073 0.290496 0.955975 0.0415165 
0.241646 0.969359 0.0441618 0.305839 0.94866 -0.0806624 -0.524281 0.787582 0.323797 
-0.645378 0.672992 0.361342 0.626264 0.770889 0.116286 0.654251 0.746742 0.119716 
-0.696863 0.608334 0.379884 -0.780567 0.474066 0.407403 0.891347 0.433508 0.132557 
0.978964 0.154314 0.133481 -0.789562 0.454755 0.412055 0.98001 0.147593 0.133406 
0.992142 0.0217767 0.123209 0.988118 0.146961 0.0450096 -0.844893 0.302416 0.441248 
0.990603 -0.07517 0.114257 -0.900747 0.141426 0.410676 -0.996051 0.0887647 0.0016656 
0.974405 -0.192334 0.116376 -0.936209 -0.0484307 0.34809 0.938573 -0.318734 0.132244 
-0.941931 -0.205532 0.26556 0.8868 -0.43445 0.157603 0.865488 -0.474374 0.160932 
-0.893648 -0.399182 0.205055 -0.841581 -0.505716 0.189716 0.793601 -0.579783 0.184525 
0.689826 -0.695297 0.20175 -0.80912 -0.55745 0.185943 -0.673939 -0.723992 0.147111 
0.607361 -0.76568 0.211769 0.477284 -0.847484 0.232315 0.311315 -0.929272 0.198838 
-0.661163 -0.736583 0.14251 -0.512167 -0.851759 0.110419 0.266792 -0.950337 0.160253 
0.233256 -0.963556 0.130964 0.17753 -0.982023 0.0641362 0.0465414 -0.998512 0.0284066 
-0.156024 -0.987418 0.0257378 -0.406919 -0.909465 0.0853772 -0.356531 -0.930959 0.0787427 
0.0968926 0.994567 -0.038062 -0.130236 0.990956 -0.0323361 0.404692 0.904884 -0.131948 
0.119947 0.99195 -0.0405822 0.312628 0.947831 -0.0622823 0.0953031 0.993409 -0.063683 
-0.133735 0.990489 -0.0323553 -0.130351 0.99075 -0.0377232 -0.31293 0.949265 -0.0311624 
-0.469533 0.882505 -0.0268863 0.361086 0.909881 -0.204289 0.233899 0.953152 -0.191814 
0.314331 0.933903 -0.170355 0.299471 0.938385 -0.172486 -0.553591 0.832669 -0.014119 
-0.635893 0.771678 0.0124104 0.578914 0.789841 -0.202509 0.647714 0.734248 -0.203337 
-0.745091 0.665654 0.0417559 -0.806474 0.588504 0.0571207 0.875873 0.446086 -0.183993 
-0.868378 0.490941 0.0699772 0.968094 0.139639 -0.208077 -0.958872 0.278796 0.0532571 
-0.99542 0.0945939 -0.0138099 0.977298 -0.085518 -0.193844 -0.998632 -0.0155536 -0.0499175 
-0.99613 0.082596 -0.0300653 0.961303 -0.192208 -0.197364 -0.988679 -0.123912 -0.0846108 
0.932779 -0.3008 -0.198603 -0.934554 -0.305918 -0.18172 0.892727 -0.415227 -0.174998 
0.872552 -0.456639 -0.173592 0.860337 -0.409796 -0.303128 -0.869803 -0.428276 -0.244996 
-0.820075 -0.506684 -0.265986 -0.779333 -0.452714 -0.433231 0.812921 -0.559379 -0.162034 
0.709822 -0.688621 -0.14817 -0.763602 -0.579025 -0.28573 -0.627602 -0.714106 -0.310111 
-0.554286 -0.581699 -0.595309 0.631759 -0.762458 -0.139779 0.482296 -0.867803 -0.119621 
0.275487 -0.954827 -0.111411 -0.580187 -0.747027 -0.324551 -0.470777 -0.813989 -0.340281 
-0.43891 -0.70216 -0.56065 0.220088 -0.967772 -0.122383 0.168386 -0.976592 -0.133847 
0.15848 -0.960927 -0.226943 0.10373 -0.974253 -0.200178 0.0387318 -0.936364 -0.348888 
-0.0056729 -0.958704 -0.284348 -0.0787073 -0.895758 -0.43752 -0.147399 -0.926557 -0.346071 
-0.179991 -0.872334 -0.454574 -0.318274 -0.88185 -0.347912 -0.312748 -0.883545 -0.34862 
-0.313017 -0.880483 -0.356047 0.43706 0.879841 -0.186705 0.307667 0.928625 -0.207357 
0.0789943 0.966703 -0.243403 -0.135106 0.952834 -0.271759 -0.307824 0.9128 -0.268406 
-0.45493 0.852657 -0.256931 0.402611 0.837323 -0.369857 0.289673 0.916407 -0.276203 
0.405047 0.892034 -0.200528 0.331734 0.916703 -0.222731 0.420255 0.853922 -0.306925 
-0.482884 0.838052 -0.253953 -0.449524 0.833101 -0.322291 -0.609494 0.755359 -0.240727 
0.431429 0.819502 -0.377208 0.716109 0.549656 -0.430193 0.41732 0.81872 -0.394387 
-0.693467 0.682251 -0.231598 -0.579908 0.656893 -0.48187 -0.799841 0.556053 -0.225964 
0.786858 0.449094 -0.423285 0.741061 0.446814 -0.501183 -0.847599 0.478556 -0.229261 
-0.79901 0.444773 -0.404673 0.872755 0.137141 -0.468499 0.739979 0.107001 -0.664064 
-0.933634 0.226715 -0.277357 0.882008 -0.0658206 -0.466616 0.72721 -0.0807449 -0.68165 
-0.933812 -0.00730466 -0.357691 0.854933 -0.190648 -0.482434 0.754023 -0.188315 -0.629274 
-0.875124 -0.213869 -0.434072 -0.683727 -0.266203 -0.679451 0.830705 -0.284554 -0.478496 
0.816472 -0.321263 -0.479753 0.800401 -0.279504 -0.530316 -0.794242 -0.351007 -0.495958 
-0.735601 -0.425443 -0.527152 -0.722466 -0.375875 -0.580311 0.779863 -0.387082 -0.491915 
0.608796 -0.307402 -0.731349 -0.683516 -0.463468 -0.563918 -0.551786 -0.577293 -0.601885 
-0.522598 -0.456432 -0.720112 0.722774 -0.514369 -0.461544 0.69826 -0.54776 -0.46086 
0.692847 -0.503988 -0.515712 -0.547195 -0.579918 -0.603551 -0.415808 -0.640161 -0.645985 
-0.37396 -0.55099 -0.746032 0.54074 -0.71649 -0.440729 0.509705 -0.741507 -0.436312 
0.513048 -0.708671 -0.484321 0.302083 -0.860587 -0.410043 0.307331 -0.652576 -0.692598 
0.143688 -0.916578 -0.373147 0.0188037 -0.9179 -0.396366 -0.110528 -0.86053 -0.497264 
-0.240075 -0.767859 -0.593933 -0.285141 -0.620803 -0.730273 -0.374739 -0.665455 -0.645554 
-0.315375 -0.693739 -0.647507 -0.319862 -0.64781 -0.691397 0.250489 0.869068 -0.426586 
0.0272722 0.87983 -0.474506 -0.159127 0.847419 -0.506518 -0.289276 0.815743 -0.500883 
0.375175 0.797447 -0.472569 0.356557 0.832157 -0.424715 0.378408 0.841012 -0.386661 
0.404803 0.831435 -0.380593 0.218974 0.767521 -0.602463 0.000523952 0.719899 -0.694079 
-0.155461 0.735509 -0.659438 -0.33005 0.803705 -0.495102 -0.28249 0.788124 -0.546863 
-0.426807 0.756883 -0.494938 0.39254 0.780123 -0.487156 0.519179 0.567055 -0.639454 
0.378538 0.775943 -0.5046 0.328273 0.687817 -0.647414 -0.579091 0.656574 -0.483284 
-0.391516 0.56437 -0.726775 -0.579719 0.656015 -0.483291 0.60973 0.430206 -0.665696 
0.516039 0.410686 -0.751692 0.367295 0.345926 -0.863382 -0.749117 0.417166 -0.514584 
-0.51843 0.347696 -0.781241 -0.784788 0.281887 -0.551949 0.680848 0.0961334 -0.726089 
0.518217 0.071491 -0.852256 -0.796735 0.138334 -0.588284 -0.76086 0.130216 -0.635717 
0.651886 -0.0878832 -0.753207 0.474414 -0.108963 -0.873532 0.36086 -0.148489 -0.920723 
-0.406565 -0.148195 -0.901523 -0.765467 -0.0825849 -0.638154 -0.68912 -0.237859 -0.684498 
-0.716192 -0.0924822 -0.691749 0.592941 -0.183866 -0.783974 0.464662 -0.179997 -0.867001 
0.376578 -0.16892 -0.910854 -0.667892 -0.2686 -0.6941 -0.44611 -0.288346 -0.847256 
0.548988 -0.233277 -0.802617 0.542895 -0.250923 -0.801438 0.511576 -0.22625 -0.828915 
0.388488 -0.15971 -0.907507 -0.33464 -0.343972 -0.877325 -0.565188 -0.374753 -0.734931 
-0.504069 -0.412842 -0.758601 -0.488701 -0.36982 -0.790193 0.537886 -0.275225 -0.796825 
0.416039 -0.235689 -0.878272 0.284787 -0.257322 -0.923408 -0.131429 -0.351084 -0.927074 
-0.151612 -0.399897 -0.903934 -0.220258 -0.447967 -0.866494 -0.43116 -0.457057 -0.777946 
-0.356578 -0.493527 -0.793274 -0.347176 -0.453411 -0.820906 0.456446 -0.423092 -0.78272 
0.445531 -0.436741 -0.781511 0.440075 -0.418228 -0.794619 0.297822 -0.58321 -0.755756 
0.272306 -0.382895 -0.882746 0.129815 -0.369821 -0.919989 -0.0381739 -0.367591 -0.929204 
-0.176173 -0.364585 -0.914353 -0.278243 -0.529594 -0.801318 -0.248064 -0.444154 -0.860925 
-0.286879 -0.518806 -0.805321 -0.284406 -0.519782 -0.805568 -0.283401 -0.517551 -0.807356 
0.232268 -0.631002 -0.740194 0.14412 -0.674016 -0.724522 0.13918 -0.616267 -0.775141 
-0.0396373 -0.677364 -0.73458 -0.044683 -0.603099 -0.796414 -0.218808 -0.606553 -0.764341 
-0.204481 -0.620037 -0.757457 -0.204864 -0.604104 -0.770123 0.270852 0.534699 -0.80046 
0.150511 0.561923 -0.813381 -0.00670268 0.554882 -0.831902 -0.115791 0.536674 -0.835807 
-0.232225 0.509587 -0.828488 0.272632 0.531101 -0.802249 0.286972 0.437066 -0.85242 
0.265522 0.519461 -0.812193 0.125997 0.444757 -0.886745 -0.0108376 0.415901 -0.909346 
-0.0985633 0.428263 -0.898263 -0.272384 0.488903 -0.828722 -0.222289 0.467038 -0.855841 
-0.325832 0.402027 -0.855691 0.331136 0.325304 -0.885735 0.362134 0.176458 -0.915272 
0.261462 0.300002 -0.917408 0.197024 0.275939 -0.940765 0.0874926 0.241729 -0.966391 
-0.0168489 0.246455 -0.969008 -0.0963261 0.232976 -0.9677 -0.177352 0.218617 -0.959559 
-0.409494 0.311901 -0.85734 -0.277202 0.271739 -0.921584 -0.463097 0.0699381 -0.883544 
0.380848 0.0248388 -0.924304 0.360263 -0.0936545 -0.928138 0.352773 0.0209481 -0.935475 
0.274892 0.0473032 -0.960311 0.206803 0.0981776 -0.973444 0.100205 0.08904 -0.990975 
-0.0288025 0.0877925 -0.995722 -0.135947 0.0621831 -0.988763 -0.191551 0.0107191 -0.981424 
-0.263574 0.0171916 -0.964486 -0.463404 0.0491256 -0.884784 -0.445537 -0.00435558 -0.895253 
-0.457991 0.0473269 -0.887696 0.359448 -0.142278 -0.922255 0.345164 -0.0855924 -0.934631 
0.230743 0.0055084 -0.972999 0.0777923 -0.0438486 -0.996005 -0.0421329 -0.0957223 -0.994516 
-0.17649 -0.0970266 -0.979509 -0.221689 -0.130436 -0.966354 -0.384557 -0.148316 -0.911108 
-0.249723 -0.148613 -0.956845 0.400995 -0.152902 -0.90323 0.421165 -0.133486 -0.897107 
0.238809 -0.107159 -0.965136 -0.00205654 -0.150635 -0.988587 -0.0822063 -0.234784 -0.968565 
-0.16895 -0.229118 -0.958624 -0.233735 -0.210242 -0.949298 -0.304527 -0.251917 -0.918586 
-0.289348 -0.262156 -0.920626 -0.279887 -0.242111 -0.929002 0.404662 -0.186557 -0.895235 
0.397213 -0.192626 -0.897283 0.40575 -0.188055 -0.894429 0.20803 -0.291474 -0.933684 
-0.0509442 -0.316846 -0.947108 -0.12818 -0.35323 -0.926714 -0.119491 -0.349514 -0.92928 
-0.141939 -0.380326 -0.913896 -0.141573 -0.359395 -0.922384 -0.239883 -0.323985 -0.915145 
-0.22439 -0.333118 -0.915795 -0.225586 -0.320244 -0.920084 0.15288 -0.352003 -0.923429 
0.131193 -0.364615 -0.92187 0.132191 -0.366483 -0.920986 -0.0872549 -0.354114 -0.931123 
-0.0507308 -0.354775 -0.933574 -0.0544975 -0.356422 -0.932734 
