# vtk DataFile Version 4.2
vtk output
ASCII
DATASET POLYDATA
POINTS 524 float
-19.7047 -36.1134 -13.5616 -35.7536 -28.089 -13.6459 -27.7291 -28.089 -15.0939 
-19.7047 -28.089 -15.2134 -11.6802 -28.089 -15.1791 -3.6558 -28.089 -14.4912 
4.36864 -28.089 -14.666 12.3931 -28.089 -15.0505 20.4175 -28.089 -14.5905 
-43.778 -20.0646 -14.0057 -35.7536 -20.0646 -16.1144 -27.7291 -20.0646 -16.503 
-19.7047 -20.0646 -16.2975 -11.6802 -20.0646 -16.0456 -3.6558 -20.0646 -15.1376 
4.36864 -20.0646 -15.3522 12.3931 -20.0646 -16.5443 20.4175 -20.0646 -16.1553 
28.442 -20.0646 -14.537 -43.778 -12.0401 -15.2079 -35.7536 -12.0401 -16.6274 
-27.7291 -12.0401 -16.7355 -19.7047 -12.0401 -16.2619 -11.6802 -12.0401 -16.99 
-3.6558 -12.0401 -18.8933 4.36864 -12.0401 -18.7137 12.3931 -12.0401 -17.917 
20.4175 -12.0401 -16.5739 28.442 -12.0401 -16.1748 36.4664 -12.0401 -15.0335 
-43.778 -4.01568 -16.2064 -35.7536 -4.01568 -17.0832 -27.7291 -4.01568 -16.9549 
-19.7047 -4.01568 -17.0327 -11.6802 -4.01568 -20.4232 -3.6558 -4.01568 -17.365 
4.36864 -4.01568 -18.1109 12.3931 -4.01568 -18.0765 20.4175 -4.01568 -16.2426 
28.442 -4.01568 -16.5586 36.4664 -4.01568 -16.3755 44.4908 -4.01568 -15.0092 
-51.8024 4.00876 -14.1316 -43.778 4.00876 -16.4825 -35.7536 4.00876 -17.2702 
-27.7291 4.00876 -17.2523 -19.7047 4.00876 -17.6849 -11.6802 4.00876 -20.2258 
-3.6558 4.00876 -17.0747 4.36864 4.00876 -20.2423 12.3931 4.00876 -16.8588 
20.4175 4.00876 -15.8724 28.442 4.00876 -16.9458 36.4664 4.00876 -17.244 
44.4908 4.00876 -16.073 -51.8024 12.0332 -13.5179 -43.778 12.0332 -16.1943 
-35.7536 12.0332 -17.3666 -27.7291 12.0332 -17.6182 -19.7047 12.0332 -17.1453 
-11.6802 12.0332 -15.8591 -3.6558 12.0332 -16.3423 4.36864 12.0332 -16.8541 
12.3931 12.0332 -14.5302 20.4175 12.0332 -16.2935 28.442 12.0332 -17.1279 
36.4664 12.0332 -17.5336 44.4908 12.0332 -16.0258 -43.778 20.0576 -15.3777 
-35.7536 20.0576 -17.6695 -27.7291 20.0576 -18.4553 -19.7047 20.0576 -17.6879 
-11.6802 20.0576 -16.5678 -3.6558 20.0576 -15.7707 4.36864 20.0576 -14.1918 
12.3931 20.0576 -14.1803 20.4175 20.0576 -16.282 28.442 20.0576 -16.7695 
36.4664 20.0576 -17.4344 44.4908 20.0576 -15.7674 -43.778 28.0821 -14.4776 
-35.7536 28.0821 -16.8954 -27.7291 28.0821 -17.6328 -19.7047 28.0821 -18.3642 
-11.6802 28.0821 -17.25 -3.6558 28.0821 -16.2353 4.36864 28.0821 -14.1009 
20.4175 28.0821 -14.4139 28.442 28.0821 -14.7553 36.4664 28.0821 -13.971 
-35.7536 36.1065 -14.7706 -27.7291 36.1065 -16.5303 -19.7047 36.1065 -17.8322 
-11.6802 36.1065 -16.1398 -3.6558 36.1065 -13.6481 -19.7047 -36.3219 -13.4413 
-19.7047 -44.1379 -7.19084 -11.6802 -44.1379 -9.15314 -3.6558 -44.1379 -9.63047 
4.36864 -44.1379 -9.38248 12.3931 -44.1379 -8.02408 -35.7536 -28.4476 -13.4413 
-35.7536 -36.1134 -6.31277 -20.2282 -36.1134 -13.4413 -27.7291 -31.7594 -13.4413 
-27.7291 -36.1134 -11.0979 -17.6328 -36.1134 -13.4413 -11.6802 -34.7289 -13.4413 
-11.6802 -36.1134 -13.0846 -3.6558 -33.7316 -13.4413 -3.6558 -36.1134 -12.9749 
4.36864 -34.0198 -13.4413 4.36864 -36.1134 -13.0224 12.3931 -33.716 -13.4413 
12.3931 -36.1134 -12.7269 20.4175 -31.3294 -13.4413 20.4175 -36.1134 -11.2924 
-36.2167 -28.089 -13.4413 -43.778 -21.2445 -13.4413 -43.778 -28.089 -7.79335 
24.1918 -28.089 -13.4413 28.442 -23.7393 -13.4413 28.442 -28.089 -11.7637 
36.4664 -28.089 -5.5869 -44.7545 -20.0646 -13.4413 32.2731 -20.0646 -13.4413 
36.4664 -16.431 -13.4413 36.4664 -20.0646 -11.9877 44.4908 -20.0646 -7.25841 
-47.9329 -12.0401 -13.4413 -51.8024 -12.0401 -11.104 42.0382 -12.0401 -13.4413 
44.4908 -9.68 -13.4413 44.4908 -12.0401 -12.6998 52.5153 -12.0401 -7.58108 
-51.78 -4.01568 -13.4413 -51.8024 -3.90444 -13.4413 -51.8024 -4.01568 -13.4317 
48.581 -4.01568 -13.4413 52.5153 -4.01568 -11.7305 -52.8714 4.00876 -13.4413 
51.658 4.00876 -13.4413 52.5153 4.00876 -13.0977 60.5397 4.00876 -7.15892 
-51.934 12.0332 -13.4413 -51.8024 12.3451 -13.4413 51.76 12.0332 -13.4413 
52.5153 12.0332 -13.1475 60.5397 12.0332 -6.86074 -48.249 20.0576 -13.4413 
-51.8024 20.0576 -11.5027 12.3931 26.2484 -13.4413 49.6341 20.0576 -13.4413 
44.4908 25.6003 -13.4413 52.5153 20.0576 -11.5482 -45.7372 28.0821 -13.4413 
-51.8024 28.0821 -8.05911 -43.778 29.8464 -13.4413 10.3256 28.0821 -13.4413 
4.36864 29.7316 -13.4413 13.8663 28.0821 -13.4413 12.3931 28.0821 -13.2118 
20.4175 30.0162 -13.4413 28.442 30.1864 -13.4413 38.8897 28.0821 -13.4413 
36.4664 28.8512 -13.4413 44.4908 28.0821 -11.7123 52.5153 28.0821 -6.26442 
-38.375 36.1065 -13.4413 -43.778 36.1065 -8.6256 -35.7536 38.2891 -13.4413 
-27.7291 41.954 -13.4413 -19.7047 43.07 -13.4413 -11.6802 40.6399 -13.4413 
-3.10368 36.1065 -13.4413 -3.6558 36.3881 -13.4413 4.36864 36.1065 -9.28672 
12.3931 36.1065 -7.71415 20.4175 36.1065 -7.08775 28.442 36.1065 -6.72486 
-27.7291 44.131 -11.1973 -19.7047 44.131 -12.0973 -11.6802 44.131 -7.39064 
-19.7047 -45.9876 -5.41689 -11.6802 -48.44 -5.41689 -3.6558 -49.4573 -5.41689 
-3.6558 -52.1623 2.57044 4.36864 -48.77 -5.41689 12.3931 -46.6474 -5.41689 
-35.7536 -36.8046 -5.41689 -24.3642 -44.1379 -5.41689 -27.7291 -42.6839 -5.41689 
17.9077 -44.1379 -5.41689 20.4175 -42.8086 -5.41689 20.4175 -44.1379 -1.14452 
-36.5955 -36.1134 -5.41689 -43.778 -29.9396 -5.41689 27.9565 -36.1134 -5.41689 
28.442 -35.652 -5.41689 28.442 -36.1134 -4.15419 36.4664 -28.2651 -5.41689 
-45.5687 -28.089 -5.41689 -43.778 -28.089 2.54885 36.6692 -28.089 -5.41689 
44.4908 -21.9291 -5.41689 -51.372 -20.0646 -5.41689 -51.8024 -19.3654 -5.41689 
46.7024 -20.0646 -5.41689 52.5153 -14.2149 -5.41689 -55.8551 -12.0401 -5.41689 
54.2863 -12.0401 -5.41689 -58.2622 -4.01568 -5.41689 59.8595 -4.01568 -5.41689 
60.5397 -1.69209 -5.41689 60.5397 -4.01568 -2.31781 -59.6835 4.00876 -5.41689 
61.8164 4.00876 -5.41689 -59.7298 12.0332 -5.41689 61.5442 12.0332 -5.41689 
60.5397 17.0169 -5.41689 -56.9339 20.0576 -5.41689 59.6104 20.0576 -5.41689 
60.5397 20.0576 -0.141583 -53.227 28.0821 -5.41689 -51.8024 29.9881 -5.41689 
-51.8024 28.0821 0.178556 36.4664 35.5691 -5.41689 44.4908 32.7521 -5.41689 
53.0874 28.0821 -5.41689 52.5153 28.6067 -5.41689 -46.3972 36.1065 -5.41689 
-43.778 38.4452 -5.41689 -43.778 36.1065 2.14227 -35.7536 43.673 -5.41689 
-3.6558 41.5335 -5.41689 4.36864 38.483 -5.41689 12.3931 37.141 -5.41689 
12.3931 36.1065 -1.57709 20.4175 36.9449 -5.41689 20.4175 36.1065 -2.37732 
32.8719 36.1065 -5.41689 28.442 36.7285 -5.41689 28.442 36.1065 -1.93867 
-34.6477 44.131 -5.41689 -27.7291 46.7749 -5.41689 -19.7047 46.9859 -5.41689 
-19.7047 44.131 2.54005 -9.92966 44.131 -5.41689 -11.6802 44.8297 -5.41689 
-11.6802 44.131 -3.23895 -3.6558 -52.171 2.60755 -19.7047 -48.7871 2.60755 
-3.75221 -52.1623 2.60755 -11.6802 -51.4177 2.60755 -3.55995 -52.1623 2.60755 
-3.6558 -52.1623 2.64283 4.36864 -51.4191 2.60755 12.3931 -49.1423 2.60755 
20.4175 -45.0354 2.60755 -35.7536 -36.883 2.60755 -27.0933 -44.1379 2.60755 
-27.7291 -43.7019 2.60755 21.6538 -44.1379 2.60755 20.4175 -44.1379 4.78539 
28.442 -38.2381 2.60755 -36.5604 -36.1134 2.60755 -35.7536 -36.1134 3.83501 
30.7443 -36.1134 2.60755 28.442 -36.1134 6.1129 36.4664 -31.1084 2.60755 
-43.7635 -28.089 2.60755 -43.778 -28.0712 2.60755 40.0225 -28.089 2.60755 
36.4664 -28.089 8.98626 44.4908 -24.4864 2.60755 -49.1334 -20.0646 2.60755 
-51.8024 -14.6787 2.60755 -43.778 -20.0646 8.85411 49.6806 -20.0646 2.60755 
52.5153 -17.187 2.60755 -53.1271 -12.0401 2.60755 -51.8024 -12.0401 4.07621 
-43.778 -12.0401 9.56865 56.7911 -12.0401 2.60755 60.5397 -5.63076 2.60755 
-55.7598 -4.01568 2.60755 -51.8024 -4.01568 6.75943 61.3521 -4.01568 2.60755 
60.5397 -4.01568 5.16317 -57.0011 4.00876 2.60755 -51.8024 4.00876 8.17752 
63.2733 4.00876 2.60755 60.5397 4.00876 10.4899 -57.3651 12.0332 2.60755 
-51.8024 12.0332 9.15748 63.0056 12.0332 2.60755 60.5397 12.0332 9.55803 
-55.6775 20.0576 2.60755 -51.8024 27.0957 2.60755 -51.8024 20.0576 7.26806 
60.8627 20.0576 2.60755 60.5397 20.519 2.60755 60.5397 20.0576 3.56607 
-51.0187 28.0821 2.60755 -43.778 35.9194 2.60755 -43.778 28.0821 9.99465 
12.3931 34.7847 2.60755 20.4175 34.5316 2.60755 28.442 35.1294 2.60755 
36.4664 34.0094 2.60755 44.4908 32.5843 2.60755 53.9396 28.0821 2.60755 
52.5153 29.221 2.60755 52.5153 28.0821 5.34458 -43.554 36.1065 2.60755 
-35.7536 40.9093 2.60755 -35.7536 36.1065 8.59159 -27.7291 36.1065 10.5329 
-19.7047 44.1012 2.60755 -11.6802 41.9735 2.60755 -11.6802 36.1065 10.5636 
-3.6558 39.0794 2.60755 -3.6558 36.1065 7.29998 5.65712 36.1065 2.60755 
4.36864 36.3384 2.60755 4.36864 36.1065 2.99862 -28.5273 44.131 2.60755 
-20.3251 44.131 2.60755 -27.7291 44.475 2.60755 -27.7291 44.131 3.03049 
-19.7047 -44.5857 10.632 -11.6802 -48.2588 10.632 -3.6558 -49.4697 10.632 
4.36864 -48.0253 10.632 12.3931 -44.4788 10.632 -20.6805 -44.1379 10.632 
-27.7291 -39.0476 10.632 -19.7047 -44.1379 11.1251 -11.6802 -44.1379 14.1453 
-3.6558 -44.1379 15.1102 4.36864 -44.1379 13.8329 13.1453 -44.1379 10.632 
12.3931 -44.1379 10.9278 20.4175 -39.7392 10.632 -30.1436 -36.1134 10.632 
-35.7536 -29.0238 10.632 -27.7291 -36.1134 12.2703 -19.7047 -36.1134 16.1997 
-11.6802 -36.1134 17.6943 -3.6558 -36.1134 18.3456 4.36864 -36.1134 17.3835 
12.3931 -36.1134 15.6166 24.1463 -36.1134 10.632 20.4175 -36.1134 12.6335 
28.442 -32.8659 10.632 -36.3954 -28.089 10.632 -35.7536 -28.089 11.1444 
-27.7291 -28.089 15.9798 -19.7047 -28.089 18.1142 12.3931 -28.089 17.1128 
20.4175 -28.089 15.8259 35.1068 -28.089 10.632 28.442 -28.089 14.0903 
36.4664 -27.146 10.632 44.4908 -20.9988 10.632 -41.0659 -20.0646 10.632 
-35.7536 -20.0646 13.4761 -27.7291 -20.0646 17.3346 12.3931 -20.0646 17.9629 
20.4175 -20.0646 18.191 28.442 -20.0646 18.0974 36.4664 -20.0646 16.2002 
45.5745 -20.0646 10.632 44.4908 -20.0646 11.52 52.5153 -13.6081 10.632 
-41.8445 -12.0401 10.632 -43.778 -6.07331 10.632 -35.7536 -12.0401 13.7863 
-27.7291 -12.0401 17.5503 -11.6802 -12.0401 18.3152 44.4908 -12.0401 16.7509 
53.7417 -12.0401 10.632 52.5153 -12.0401 11.9702 -44.4755 -4.01568 10.632 
-43.778 -4.01568 10.9886 -35.7536 -4.01568 14.242 -27.7291 -4.01568 16.9847 
[...]
POINT_DATA 524
SCALARS ImageScalars float
LOOKUP_TABLE default
0 0 0 0 0 0 0 0 0 
0 0 0 0 0 0 0 0 0 
0 0 0 0 0 0 0 0 0 
0 0 0 0 0 0 0 0 0 
0 0 0 0 0 0 0 0 0 
0 0 0 0 0 0 0 0 0 
0 0 0 0 0 0 0 0 0 
0 0 0 0 0 0 0 0 0 
0 0 0 0 0 0 0 0 0 
0 0 0 0 0 0 0 0 0 
0 0 0 0 0 0 0 0 0 
0 0 0 0 0 0 0 0 0 
0 0 0 0 0 0 0 0 0 
0 0 0 0 0 0 0 0 0 
0 0 0 0 0 0 0 0 0 
0 0 0 0 0 0 0 0 0 
0 0 0 0 0 0 0 0 0 
0 0 0 0 0 0 0 0 0 
0 0 0 0 0 0 0 0 0 
0 0 0 0 0 0 0 0 0 
0 0 0 0 0 0 0 0 0 
0 0 0 0 0 0 0 0 0 
0 0 0 0 0 0 0 0 0 
0 0 0 0 0 0 0 0 0 
0 0 0 0 0 0 0 0 0 
0 0 0 0 0 0 0 0 0 
0 0 0 0 0 0 0 0 0 
0 0 0 0 0 0 0 0 0 
0 0 0 0 0 0 0 0 0 
0 0 0 0 0 0 0 0 0 
0 0 0 0 0 0 0 0 0 
0 0 0 0 0 0 0 0 0 
0 0 0 0 0 0 0 0 0 
0 0 0 0 0 0 0 0 0 
0 0 0 0 0 0 0 0 0 
0 0 0 0 0 0 0 0 0 
0 0 0 0 0 0 0 0 0 
0 0 0 0 0 0 0 0 0 
0 0 0 0 0 0 0 0 0 
0 0 0 0 0 0 0 0 0 
0 0 0 0 0 0 0 0 0 
0 0 0 0 0 0 0 0 0 
0 0 0 0 0 0 0 0 0 
0 0 0 0 0 0 0 0 0 
0 0 0 0 0 0 0 0 0 
0 0 0 0 0 0 0 0 0 
0 0 0 0 0 0 0 0 0 
0 0 0 0 0 0 0 0 0 
0 0 0 0 0 0 0 0 0 
0 0 0 0 0 0 0 0 0 
0 0 0 0 0 0 0 0 0 
0 0 0 0 0 0 0 0 0 
0 0 0 0 0 0 0 0 0 
0 0 0 0 0 0 0 0 0 
0 0 0 0 0 0 0 0 0 
0 0 0 0 0 0 0 0 0 
0 0 0 0 0 0 0 0 0 
0 0 0 0 0 0 0 0 0 
0 0 
NORMALS Normals float
0.0884806 0.397461 0.913343 0.294277 0.415512 0.860669 0.0975162 0.297646 0.949683 
0.00458895 0.17187 0.985109 -0.044673 0.17794 0.983027 -0.0313763 0.128734 0.991183 
0.0342533 0.138063 0.989831 -0.00473707 0.228477 0.973538 -0.173669 0.271032 0.946774 
0.401643 0.299439 0.865459 0.165091 0.194203 0.96697 0.00921551 0.0952199 0.995414 
-0.0281385 0.0637989 0.997566 -0.0705124 0.10635 0.991825 -0.0446846 0.243549 0.968859 
0.091414 0.234866 0.96772 0.0431278 0.169586 0.984571 -0.12387 0.121806 0.984794 
-0.238975 0.242319 0.940304 0.266284 0.135317 0.954349 0.0855262 0.0558177 0.994771 
-0.0224909 0.0276222 0.999365 0.0118131 0.0443981 0.998944 0.151412 0.235954 0.959896 
0.108487 0.176472 0.978309 -0.0615359 0.176081 0.98245 -0.130123 0.0984577 0.986597 
-0.103807 0.00583077 0.99458 -0.0907284 0.12778 0.987644 -0.199651 0.245667 0.948571 
0.190209 0.0772914 0.978696 0.0424785 0.0398183 0.998304 -0.00327643 0.0324244 0.999469 
0.181101 0.0914083 0.979207 0.0781112 0.20887 0.974819 -0.143599 -0.119984 0.982336 
0.0375903 0.0709716 0.99677 -0.12876 -0.0432864 0.990731 -0.0788564 -0.043214 0.995949 
0.00854522 0.0469987 0.998858 -0.0922718 0.127731 0.987507 -0.253681 0.190204 0.948403 
0.432873 0.00325198 0.901449 0.165476 -0.00109551 0.986213 0.0448369 0.0176297 0.998839 
0.0245654 0.0413087 0.998844 0.161338 0.00606675 0.986881 -0.00624822 -0.302488 0.953133 
-0.0206619 -0.0588311 0.998054 0.033317 0.0199945 0.999245 -0.254105 -0.222887 0.941144 
0.0275782 0.00291741 0.999615 0.0849519 0.035307 0.995759 -0.0515206 0.0712226 0.996129 
-0.231321 0.0611093 0.970956 0.424932 -0.135714 0.894994 0.204877 -0.0660009 0.97656 
0.0844717 0.0263344 0.996078 -0.0138511 0.0745089 0.997124 -0.105523 0.00177348 0.994415 
-0.0591432 -0.174383 0.9829 0.050954 -0.0861228 0.994981 -0.125624 -0.425806 0.896051 
0.0528967 -0.129827 0.990125 0.144182 0.0263302 0.989201 0.0781182 -0.0106511 0.996887 
-0.0643772 0.0119966 0.997854 -0.241582 -0.0194826 0.970185 0.333443 -0.0888518 0.938574 
0.173849 -0.0242659 0.984473 0.00495836 0.00145191 0.999987 -0.115612 0.0744282 0.990502 
-0.120862 0.0856453 0.988968 -0.145841 0.00234496 0.989305 -0.102385 -0.0796575 0.99155 
0.125423 -0.0755001 0.989226 0.162911 -0.118778 0.979465 0.0706684 -0.131878 0.988744 
-0.0684409 -0.198623 0.977683 -0.299198 -0.183593 0.936362 0.383154 -0.293072 0.875958 
0.160568 -0.187582 0.969036 0.0865447 -0.110562 0.990094 -0.0242919 0.0146321 0.999598 
-0.130501 -0.0250412 0.991132 -0.188461 -0.110419 0.975854 -0.19153 -0.190613 0.9628 
0.0895075 -0.351248 0.931994 -0.023878 -0.414366 0.909797 -0.132695 -0.505803 0.852382 
0.322112 -0.395083 0.860321 0.188062 -0.274753 0.942944 -0.0336093 -0.310778 0.949888 
-0.230007 -0.338593 0.912388 -0.335753 -0.514373 0.789107 0.089763 0.404613 0.910072 
0.247477 0.721402 0.646788 0.124492 0.603789 0.787363 0.0126026 0.537707 0.843038 
-0.0849329 0.589267 0.803461 -0.237342 0.702982 0.670437 0.301128 0.427685 0.852295 
0.555499 0.751937 0.354982 0.101045 0.402746 0.909717 0.183171 0.376139 0.908277 
0.322941 0.527243 0.785954 0.05641 0.37959 0.923433 -0.0358775 0.29916 0.953528 
-0.0310108 0.325885 0.944901 -0.012498 0.235124 0.971885 -0.00387755 0.282368 0.959298 
-0.00193712 0.247835 0.9688 -0.0142127 0.289921 0.956945 -0.0564438 0.324387 0.944239 
-0.090511 0.374088 0.922966 -0.212257 0.330571 0.919603 -0.326027 0.474087 0.817892 
0.308756 0.425901 0.850458 0.424116 0.343132 0.838085 0.658095 0.665493 0.352179 
-0.279517 0.322284 0.904435 -0.31486 0.303121 0.899434 -0.427676 0.411704 0.804731 
-0.580461 0.654695 0.484189 0.441506 0.319379 0.838493 -0.291652 0.323992 0.899982 
-0.278571 0.339856 0.898274 -0.358822 0.444108 0.820984 -0.528722 0.632602 0.565922 
0.417796 0.209953 0.883949 0.680442 0.356566 0.640202 -0.272805 0.331488 0.903157 
-0.291721 0.314174 0.903434 -0.323044 0.379456 0.866981 -0.651927 0.530014 0.542288 
0.483696 0.146978 0.862807 0.483857 0.14517 0.863022 0.485024 0.147359 0.861996 
-0.368254 0.19657 0.908708 -0.51031 0.235292 0.827177 0.485143 0.00988117 0.874379 
-0.424437 0.0750173 0.902345 -0.454358 0.0778059 0.887415 -0.832352 0.0968391 0.545721 
0.430892 -0.136374 0.892039 0.429724 -0.137129 0.892487 -0.425872 -0.0631017 0.90258 
-0.452061 -0.0727229 0.889018 -0.851665 -0.109565 0.512506 0.453342 -0.141841 0.879978 
0.628317 -0.23016 0.743131 0.045683 -0.174069 0.983673 -0.454349 -0.226487 0.861552 
-0.309332 -0.467177 0.828287 -0.569442 -0.282938 0.771804 0.453214 -0.317546 0.832924 
0.802124 -0.491745 0.338798 0.421017 -0.363445 0.831055 -0.0343006 -0.204957 0.97817 
-0.195927 -0.278706 0.940179 0.0332379 -0.234738 0.97149 0.0210148 -0.217251 0.97589 
0.0546482 -0.441392 0.895649 -0.0492743 -0.505659 0.861325 -0.180145 -0.535476 0.825114 
-0.141433 -0.540877 0.829125 -0.335497 -0.645097 0.686506 -0.631504 -0.685904 0.361578 
0.395851 -0.450038 0.80048 0.636366 -0.672946 0.37707 0.35707 -0.505981 0.785165 
0.203624 -0.624569 0.753957 -0.0607641 -0.694737 0.716692 -0.26857 -0.618076 0.738818 
-0.329056 -0.525754 0.784414 -0.341331 -0.529249 0.776781 -0.249636 -0.832067 0.495325 
-0.0899108 -0.946589 0.309652 -0.0307037 -0.967182 0.252223 -0.0877826 -0.965435 0.245415 
0.223039 -0.837057 0.499589 -0.0805656 -0.806165 0.58618 -0.322321 -0.933623 0.156387 
0.29797 0.777352 0.55402 0.163202 0.792015 0.588284 0.0159994 0.802052 0.59704 
-0.00020029 0.999992 -0.00390423 -0.146356 0.807595 0.571289 -0.29562 0.79646 0.527503 
0.571596 0.761432 0.305777 0.3932 0.799439 0.454192 0.457568 0.802271 0.383398 
-0.419253 0.782185 0.460883 -0.477428 0.764678 0.432816 -0.534314 0.832815 0.144667 
0.57954 0.759241 0.296118 0.683971 0.701866 0.198919 -0.618242 0.657749 0.430282 
-0.622301 0.653988 0.430164 -0.645326 0.684343 0.339454 -0.58366 0.658224 0.475481 
0.724323 0.666377 0.176911 0.724853 0.583703 -0.365895 -0.582337 0.659315 0.475592 
-0.560746 0.680043 0.47234 0.83918 0.53039 0.120262 0.846216 0.519792 0.1172 
-0.579639 0.664296 0.471942 -0.677864 0.594588 0.432395 0.912604 0.398744 0.090313 
-0.710115 0.556153 0.431775 0.969937 0.232562 0.0716705 -0.828381 0.355769 0.432681 
-0.856094 0.284132 0.431707 -0.901348 0.366076 0.231431 0.992862 0.0882944 0.0801825 
-0.889264 0.0956298 0.447286 0.981555 -0.158126 0.107448 -0.895143 -0.11692 0.430173 
-0.857338 -0.31643 0.406009 0.911215 -0.35781 0.204107 -0.80991 -0.434133 0.394429 
-0.879644 -0.472133 0.0575942 0.837595 -0.532264 0.123002 0.809446 -0.576331 0.11243 
0.782505 -0.558011 -0.276244 -0.217001 -0.962544 0.162542 -0.405156 -0.880903 0.244658 
-0.64596 -0.69759 0.310007 -0.628317 -0.716703 0.30258 0.693202 -0.707828 0.135832 
0.646165 -0.75187 0.131005 0.581793 -0.695145 -0.422245 0.431159 -0.90015 0.061897 
-0.407757 -0.910028 0.0747265 -0.278626 -0.949721 0.142818 -0.100675 -0.989579 0.102945 
-0.106412 -0.978159 -0.178555 -0.0268827 -0.992876 0.11608 -0.00919681 -0.995691 -0.0922733 
-0.15671 -0.976065 0.150793 -0.0872558 -0.98546 0.145788 -0.0697723 -0.995377 -0.0660034 
0.396412 -0.916139 0.0595519 0.197837 -0.977711 0.0703011 -0.117526 -0.992895 0.0186485 
-0.129405 -0.872428 -0.4713 -0.337054 -0.941297 0.0188079 -0.314532 -0.949056 0.0190298 
-0.319084 -0.942047 -0.103595 -0.000272042 0.999981 -0.00609132 0.424895 0.903059 -0.0628368 
0.00191134 0.999979 -0.00613435 0.192242 0.981311 -0.00852091 -0.00228643 0.999977 -0.00636507 
-0.00028885 0.999967 -0.00810036 -0.178138 0.983564 -0.0294663 -0.376274 0.924074 -0.0671163 
-0.549069 0.832149 -0.077789 0.688373 0.691528 -0.218932 0.570911 0.816825 -0.0828062 
0.583691 0.806964 -0.0900779 -0.571511 0.816494 -0.0819333 -0.546265 0.808908 -0.217398 
-0.663721 0.740212 -0.107515 0.690703 0.685642 -0.229835 0.688489 0.666997 -0.284775 
-0.665327 0.74031 -0.0963343 -0.620557 0.720194 -0.310211 -0.649074 0.758864 -0.0531862 
0.724188 0.582244 -0.369517 0.724303 0.581929 -0.369788 -0.636055 0.770819 -0.0356681 
-0.535591 0.71345 -0.451808 -0.632342 0.774018 -0.0322494 0.753322 0.453799 -0.475997 
0.745946 0.407995 -0.526407 0.637738 0.263624 -0.723735 -0.682928 0.72956 -0.036759 
-0.733011 0.679615 -0.0286062 0.768351 0.354327 -0.532999 0.714043 0.359717 -0.600622 
0.517805 0.119676 -0.847086 -0.8172 0.575153 -0.037198 -0.916492 0.393901 -0.0698833 
0.831351 0.218056 -0.511182 0.634193 0.207057 -0.744934 -0.933371 0.351732 -0.0714365 
-0.909791 0.356309 -0.212895 0.86859 0.10509 -0.48426 0.548466 0.126326 -0.826575 
-0.99221 0.101491 -0.0722477 -0.839288 0.0860293 -0.536838 0.849515 -0.0928842 -0.519324 
0.624763 -0.0490333 -0.779274 -0.986942 -0.143078 -0.0739939 -0.85931 -0.145051 -0.490455 
0.862587 -0.333321 -0.380579 0.739115 -0.513697 -0.435688 0.63224 -0.31123 -0.709513 
-0.876581 -0.469735 -0.104664 -0.867364 -0.486174 -0.106367 -0.867046 -0.473807 -0.154069 
0.718277 -0.541364 -0.437039 0.571032 -0.682686 -0.455919 0.488026 -0.419014 -0.765675 
-0.101799 -0.881003 -0.462029 0.0194338 -0.891856 -0.451903 -0.0378393 -0.931157 -0.36265 
-0.144729 -0.935399 -0.322617 -0.29673 -0.928555 -0.22302 -0.603024 -0.783774 -0.148528 
-0.547837 -0.821459 -0.158368 -0.54545 -0.787611 -0.286624 0.565002 -0.686979 -0.456982 
0.404876 -0.776132 -0.483419 0.341028 -0.615124 -0.710861 0.127607 -0.594564 -0.793858 
-0.129099 -0.870157 -0.475563 -0.274795 -0.845238 -0.458323 -0.162755 -0.705585 -0.689681 
-0.313799 -0.854768 -0.413404 -0.270446 -0.797926 -0.538677 -0.216993 -0.884364 -0.413296 
-0.236434 -0.884104 -0.403063 -0.237886 -0.878499 -0.414306 0.197753 -0.832645 -0.517296 
-0.108116 -0.870605 -0.479956 0.167782 -0.838894 -0.51779 0.172016 -0.826218 -0.536446 
0.369754 0.70335 -0.607109 0.230203 0.767969 -0.597687 -0.00930908 0.812568 -0.582793 
-0.223708 0.746962 -0.626101 -0.335202 0.637308 -0.693887 0.389871 0.69515 -0.60396 
0.523366 0.539531 -0.659541 0.362302 0.685249 -0.631799 0.184528 0.578253 -0.794716 
-0.0182926 0.541422 -0.840552 -0.216523 0.565284 -0.795972 -0.346074 0.63387 -0.691695 
-0.330744 0.624146 -0.707849 -0.433576 0.566023 -0.701163 0.543097 0.476911 -0.691087 
0.589921 0.375406 -0.714887 0.48822 0.435 -0.756582 0.296141 0.319105 -0.900263 
0.114381 0.246058 -0.962482 -0.0194985 0.266534 -0.963628 -0.147352 0.273726 -0.950453 
-0.278505 0.318016 -0.906256 -0.458197 0.557684 -0.69213 -0.375342 0.439127 -0.816263 
-0.455534 0.619615 -0.639191 0.584313 0.362289 -0.726172 0.580618 0.347745 -0.736177 
0.367458 0.268706 -0.890377 0.154696 0.162234 -0.974551 -0.179971 0.128867 -0.975194 
-0.173007 0.313098 -0.93383 -0.471687 0.662827 -0.581525 -0.301615 0.499025 -0.812405 
-0.481129 0.670971 -0.564193 -0.553597 0.635239 -0.538518 0.55968 0.203147 -0.803424 
0.463427 0.133912 -0.875958 0.31475 0.0833868 -0.945505 -0.0665176 0.161243 -0.984671 
0.00880529 0.301375 -0.953465 -0.102306 0.381596 -0.91865 -0.314596 0.491632 -0.81199 
-0.563438 0.628428 -0.536299 -0.538071 0.611138 -0.580509 -0.661705 0.543173 -0.516826 
0.483574 0.0894744 -0.870719 0.429817 0.143097 -0.891505 0.423563 0.0431706 -0.904837 
0.325011 -0.0214289 -0.945467 0.0235678 0.051152 -0.998413 -0.391179 0.401906 -0.827919 
-0.684848 0.508076 -0.522343 -0.642716 0.493793 -0.585734 0.412822 0.161414 -0.896395 
0.401874 0.153297 -0.902772 0.340476 0.0785994 -0.936962 0.314005 0.00507143 -0.949408 
-0.767606 0.322347 -0.553962 -0.568238 0.243499 -0.786011 0.410598 0.138775 -0.901194 
0.37553 0.114982 -0.91965 0.312202 0.0955406 -0.945199 0.297719 0.0845655 -0.950901 
-0.833139 0.0855313 -0.54641 -0.500783 0.0458722 -0.864356 0.528251 -0.0450714 -0.847891 
0.379629 -0.00384527 -0.925131 0.317045 0.0161481 -0.948273 0.239882 0.00308452 -0.970797 
0.0585733 -0.216327 -0.974562 -0.813363 -0.143937 -0.563669 -0.506655 -0.126681 -0.852791 
0.453504 -0.213487 -0.865308 0.46887 -0.35154 -0.810296 0.434965 -0.169227 -0.884403 
0.302704 -0.175303 -0.936824 0.191356 -0.180831 -0.964719 0.0463734 -0.216051 -0.97528 
-0.0320244 -0.197452 -0.979789 -0.0552417 -0.218979 -0.974165 -0.127523 -0.334105 -0.933869 
-0.013927 -0.397627 -0.917441 0.160436 -0.464259 -0.871047 -0.254153 -0.419388 -0.871505 
-0.691112 -0.460547 -0.55701 -0.522915 -0.633658 -0.570121 -0.507378 -0.432488 -0.745333 
0.444072 -0.397881 -0.802802 0.309175 -0.486167 -0.817345 0.289873 -0.348873 -0.891213 
0.128367 -0.589975 -0.797152 0.18537 -0.372967 -0.909139 0.0489619 -0.38934 -0.919792 
-0.161379 -0.702983 -0.692656 -0.0366246 -0.400408 -0.915605 -0.237681 -0.71306 -0.659586 
-0.151895 -0.503921 -0.850289 -0.247341 -0.698274 -0.671741 -0.235875 -0.614699 -0.752667 
-0.105975 -0.680053 -0.725464 -0.105571 -0.673771 -0.73136 0.0642334 -0.728738 -0.681773 
0.0650807 -0.720477 -0.690419 0.083212 -0.750712 -0.655368 0.0959056 -0.717271 -0.690162 
-0.051013 -0.809844 -0.584423 -0.0283983 -0.738341 -0.67383 -0.30316 -0.776637 -0.552204 
-0.241873 -0.797019 -0.553406 -0.240937 -0.77764 -0.580711 0.114611 -0.596802 -0.794161 
-0.152615 -0.700735 -0.696906 -0.00518104 -0.638829 -0.769331 0.00487663 -0.617367 -0.78666 
0.0949193 0.065879 -0.993303 -0.0126715 0.217065 -0.976075 -0.158365 0.136417 -0.977912 
0.0961175 0.0658197 -0.993191 0.109782 0.106605 -0.988222 0.0946192 0.0634 -0.993493 
0.0100042 0.0554728 -0.99841 -0.162518 0.119161 -0.979484 -0.159936 0.118994 -0.979929 
0.134939 0.0727807 -0.988177 0.0804053 0.0684406 -0.99441 0.0174606 -0.0138858 -0.999751 
0.0166729 -0.0213457 -0.999633 0.0386336 0.0042407 -0.999244 -0.0762136 0.134943 -0.987918 
-0.0855167 0.108384 -0.990424 -0.0365862 0.171177 -0.984561 0.0217489 0.289479 -0.956937 
-0.0917661 0.353913 -0.930766 -0.243153 0.340525 -0.908251 0.146009 0.0105083 -0.989227 
0.0303915 0.0441883 -0.998561 0.0390542 0.0299252 -0.998789 0.0540942 0.0464403 -0.997455 
0.0216459 0.0708473 -0.997252 0.149704 0.0286308 -0.988316 -0.000668623 0.0711058 -0.997469 
0.0113737 0.185199 -0.982635 0.0626988 0.223534 -0.972677 -0.0647371 0.242948 -0.967877 
-0.278363 0.323039 -0.904522 -0.220918 0.28648 -0.932268 -0.330228 0.275434 -0.902821 
0.209273 0.0275282 -0.97747 0.150701 0.0442269 -0.98759 0.0148112 0.121019 -0.99254 
0.0545956 0.0257863 -0.998176 0.0710913 -0.0465602 -0.996383 0.0952779 -0.00317937 -0.995446 
0.0776147 0.0379392 -0.996261 -0.02681 0.102136 -0.994409 -0.148962 0.171353 -0.973883 
-0.377571 0.209986 -0.901857 -0.302332 0.203801 -0.931161 0.23861 0.0551573 -0.969548 
0.159336 0.0150773 -0.987109 0.0114175 -0.00558978 -0.999919 -0.0261743 -0.0181335 -0.999493 
-0.0253578 -0.0569253 -0.998056 0.0662485 -0.202769 -0.976983 0.0933795 -0.156306 -0.983285 
0.168298 -0.097355 -0.980917 0.066063 -0.0458979 -0.996759 -0.117886 0.0235162 -0.992749 
-0.40448 0.0310515 -0.914019 -0.311967 0.0237544 -0.949796 0.209957 -0.0110522 -0.977648 
0.0466482 -0.213354 -0.975861 0.0607919 -0.0826931 -0.994719 -0.030461 -0.178559 -0.983458 
-0.0192843 -0.112018 -0.993519 -0.0315464 -0.179989 -0.983163 0.00213787 -0.127492 -0.991837 
0.0244229 -0.195915 -0.980317 -0.0908894 -0.216484 -0.972046 -0.0693849 -0.14069 -0.987619 
0.0774613 -0.218898 -0.972668 0.177918 -0.354489 -0.917977 0.181536 -0.229458 -0.956239 
0.0971041 -0.205912 -0.973741 -0.0740227 -0.172093 -0.982296 -0.38473 -0.134377 -0.913195 
-0.272779 -0.319593 -0.907443 -0.293306 -0.141736 -0.945454 0.136333 -0.45995 -0.877416 
0.123419 -0.479571 -0.868781 0.125451 -0.459528 -0.879259 -0.160796 -0.443685 -0.881639 
-0.0587263 -0.503389 -0.862062 -0.0610638 -0.468103 -0.881561 
