# vtk DataFile Version 4.2
vtk output
ASCII
DATASET POLYDATA
POINTS 578 float
-25.503 15.1762 -18.432 -32.7653 -35.6596 -13.273 -25.503 -35.6596 -14.5489 
-18.2408 -35.6596 -14.7261 -10.9785 -35.6596 -14.1431 -3.71628 -35.6596 -12.325 
3.54597 -35.6596 -11.5618 10.8082 -35.6596 -11.3231 18.0705 -35.6596 -11.1977 
-47.2898 -28.3973 -11.8355 -40.0275 -28.3973 -15.3966 -32.7653 -28.3973 -16.0098 
-25.503 -28.3973 -16.6947 -18.2408 -28.3973 -16.6516 -10.9785 -28.3973 -16.5176 
-3.71628 -28.3973 -15.4599 3.54597 -28.3973 -14.4741 10.8082 -28.3973 -14.2306 
18.0705 -28.3973 -14.4041 25.3327 -28.3973 -13.9656 32.595 -28.3973 -13.6018 
39.8572 -28.3973 -11.4232 -47.2898 -21.1351 -14.0942 -40.0275 -21.1351 -15.7494 
-32.7653 -21.1351 -17.0226 -25.503 -21.1351 -17.4078 -18.2408 -21.1351 -16.7053 
-10.9785 -21.1351 -16.303 -3.71628 -21.1351 -15.6911 3.54597 -21.1351 -15.231 
10.8082 -21.1351 -15.254 18.0705 -21.1351 -15.2689 25.3327 -21.1351 -15.6225 
32.595 -21.1351 -15.7086 39.8572 -21.1351 -15.0149 47.1195 -21.1351 -12.2881 
-54.552 -13.8728 -11.9887 -47.2898 -13.8728 -15.4879 -40.0275 -13.8728 -16.2008 
-32.7653 -13.8728 -16.9804 -25.503 -13.8728 -16.7056 -18.2408 -13.8728 -15.7891 
-10.9785 -13.8728 -15.1036 -3.71628 -13.8728 -15.8953 3.54597 -13.8728 -16.4602 
10.8082 -13.8728 -15.3489 18.0705 -13.8728 -15.6528 25.3327 -13.8728 -16.47 
32.595 -13.8728 -16.3455 39.8572 -13.8728 -15.7918 47.1195 -13.8728 -14.4639 
54.3817 -13.8728 -11.9291 -54.552 -6.61059 -12.2983 -47.2898 -6.61059 -15.5176 
-40.0275 -6.61059 -16.0124 -32.7653 -6.61059 -16.265 -25.503 -6.61059 -16.319 
-18.2408 -6.61059 -15.6086 -10.9785 -6.61059 -15.5911 -3.71628 -6.61059 -17.0767 
3.54597 -6.61059 -16.5484 10.8082 -6.61059 -16.2625 18.0705 -6.61059 -16.0665 
25.3327 -6.61059 -16.3333 32.595 -6.61059 -16.3448 39.8572 -6.61059 -15.9183 
47.1195 -6.61059 -14.6018 54.3817 -6.61059 -11.4611 -47.2898 0.651664 -14.5984 
-40.0275 0.651664 -16.2763 -32.7653 0.651664 -16.5435 -25.503 0.651664 -16.5228 
-18.2408 0.651664 -16.4806 -10.9785 0.651664 -17.9172 -3.71628 0.651664 -15.9523 
3.54597 0.651664 -14.5057 10.8082 0.651664 -16.2792 18.0705 0.651664 -14.3702 
25.3327 0.651664 -14.8819 32.595 0.651664 -15.0409 39.8572 0.651664 -14.5788 
47.1195 0.651664 -13.2616 54.3817 0.651664 -11.3283 -54.552 7.91392 -12.5881 
-47.2898 7.91392 -15.4763 -40.0275 7.91392 -16.386 -32.7653 7.91392 -17.652 
-25.503 15.002 -18.4153 -25.503 7.91392 -17.7336 -18.2408 7.91392 -17.6926 
-10.9785 7.91392 -17.2942 -3.71628 7.91392 -16.6524 3.54597 7.91392 -15.4342 
10.8082 7.91392 -14.0417 18.0705 7.91392 -13.0197 25.3327 7.91392 -13.4388 
32.595 7.91392 -13.7466 39.8572 7.91392 -12.9257 47.1195 7.91392 -11.2226 
-54.552 15.1762 -12.0425 -47.2898 15.1762 -15.281 -40.0275 15.1762 -16.7249 
-26.5966 15.1762 -18.4153 -32.7653 15.1762 -18.3189 -24.8246 15.1762 -18.4153 
-25.503 15.4306 -18.4153 -18.2408 15.1762 -18.2534 -10.9785 15.1762 -17.6713 
-3.71628 15.1762 -16.3912 3.54597 15.1762 -14.0012 10.8082 15.1762 -14.0125 
18.0705 15.1762 -13.7782 25.3327 15.1762 -13.4938 32.595 15.1762 -12.6555 
39.8572 15.1762 -11.9789 -47.2898 22.4384 -13.9042 -40.0275 22.4384 -15.9179 
-32.7653 22.4384 -17.2418 -25.503 22.4384 -17.9243 -18.2408 22.4384 -17.5491 
-10.9785 22.4384 -17.3133 -3.71628 22.4384 -16.4598 3.54597 22.4384 -14.8887 
10.8082 22.4384 -14.1872 18.0705 22.4384 -14.3525 25.3327 22.4384 -14.3132 
32.595 22.4384 -12.8182 -40.0275 29.7007 -12.6877 -32.7653 29.7007 -14.3496 
-25.503 29.7007 -14.5075 -18.2408 29.7007 -14.1405 -10.9785 29.7007 -14.3317 
-3.71628 29.7007 -14.2464 3.54597 29.7007 -13.5172 10.8082 29.7007 -13.2266 
18.0705 29.7007 -13.2448 25.3327 29.7007 -12.3148 32.595 29.7007 -11.1652 
-32.7653 -37.6321 -11.153 -25.503 -40.2809 -11.153 -18.2408 -40.0981 -11.153 
-18.2408 -42.9218 -4.71544 -10.9785 -39.06 -11.153 -3.71628 -36.9411 -11.153 
3.54597 -36.1121 -11.153 10.8082 -35.856 -11.153 18.0705 -35.7119 -11.153 
-47.2898 -29.3495 -11.153 -38.3653 -35.6596 -11.153 -40.0275 -34.7904 -11.153 
-40.0275 -35.6596 -9.67414 18.3837 -35.6596 -11.153 25.3327 -33.7543 -11.153 
25.3327 -35.6596 -9.58705 32.595 -32.2082 -11.153 32.595 -35.6596 -7.4307 
39.8572 -28.9113 -11.153 39.8572 -35.6596 -4.448 -48.1522 -28.3973 -11.153 
41.4395 -28.3973 -11.153 47.1195 -25.169 -11.153 47.1195 -28.3973 -9.88544 
-51.6048 -21.1351 -11.153 -54.552 -16.4562 -11.153 -54.552 -21.1351 -7.83118 
50.1975 -21.1351 -11.153 54.3817 -16.7387 -11.153 54.3817 -21.1351 -9.30676 
-55.6046 -13.8728 -11.153 55.4389 -13.8728 -11.153 -56.0547 -6.61059 -11.153 
-54.552 -0.856044 -11.153 54.9021 -6.61059 -11.153 61.644 -6.61059 -6.07065 
-61.8143 0.651664 -4.19618 -53.9732 0.651664 -11.153 -54.552 1.87884 -11.153 
-54.552 0.651664 -10.7566 54.6228 0.651664 -11.153 54.3817 1.18832 -11.153 
-56.4251 7.91392 -11.153 47.3156 7.91392 -11.153 47.1195 13.0832 -11.153 
54.3817 7.91392 -8.52733 -55.6907 15.1762 -11.153 -54.552 18.2644 -11.153 
46.8781 15.1762 -11.153 39.8572 19.7713 -11.153 47.1195 15.1762 -11.1163 
54.3817 15.1762 -5.75424 -51.8354 22.4384 -11.153 -54.552 22.4384 -9.16224 
-47.2898 29.2663 -11.153 38.4435 22.4384 -11.153 39.8572 22.4384 -10.7225 
47.1195 22.4384 -7.15471 -46.4891 29.7007 -11.153 -47.2898 29.7007 -10.9118 
-40.0275 31.3199 -11.153 -32.7653 33.2404 -11.153 -25.503 33.1978 -11.153 
-18.2408 32.6451 -11.153 -10.9785 33.0112 -11.153 -3.71628 33.4799 -11.153 
3.54597 33.4301 -11.153 10.8082 33.705 -11.153 18.0705 34.0233 -11.153 
25.3327 32.1848 -11.153 32.6394 29.7007 -11.153 32.595 29.7266 -11.153 
39.8572 29.7007 -8.68143 47.1195 29.7007 -4.53163 -32.7653 36.9629 -3.92566 
-25.503 36.9629 -5.3955 -10.9785 36.9629 -4.4427 -3.71628 36.9629 -6.27433 
3.54597 36.9629 -7.60275 10.8082 36.9629 -8.67291 18.0705 36.9629 -9.10268 
25.3327 36.9629 -8.17553 32.595 36.9629 -6.74915 -18.2408 -43.1629 -3.89076 
-40.0275 -37.5467 -3.89076 -32.7653 -40.6043 -3.89076 -20.7748 -42.9218 -3.89076 
-25.503 -42.4825 -3.89076 -16.3675 -42.9218 -3.89076 -18.2408 -42.9218 -2.69277 
-10.9785 -42.2279 -3.89076 -3.71628 -40.7058 -3.89076 3.54597 -39.5962 -3.89076 
10.8082 -39.6997 -3.89076 18.0705 -39.202 -3.89076 25.3327 -38.9648 -3.89076 
32.595 -37.9528 -3.89076 39.8572 -35.8947 -3.89076 -42.9725 -35.6596 -3.89076 
-47.2898 -32.6285 -3.89076 -40.0275 -35.6596 2.41885 40.4092 -35.6596 -3.89076 
39.8572 -35.6596 -0.13327 47.1195 -32.4741 -3.89076 -51.7329 -28.3973 -3.89076 
-54.552 -24.5614 -3.89076 53.3106 -28.3973 -3.89076 54.3817 -27.373 -3.89076 
-56.6235 -21.1351 -3.89076 59.1014 -21.1351 -3.89076 -60.3324 -13.8728 -3.89076 
61.5468 -13.8728 -3.89076 61.644 -13.5459 -3.89076 61.644 -13.8728 -2.99115 
-61.0939 -6.61059 -3.89076 -61.8143 -1.14152 -3.89076 63.2422 -6.61059 -3.89076 
61.644 -0.541855 -3.89076 -62.0036 0.651664 -3.89076 -61.8143 4.82049 -3.89076 
-61.8143 0.651664 1.5732 61.2105 0.651664 -3.89076 61.644 0.651664 -1.08081 
-61.6286 7.91392 -3.89076 59.0485 7.91392 -3.89076 -60.8385 15.1762 -3.89076 
56.2096 15.1762 -3.89076 54.3817 18.8425 -3.89076 -58.0609 22.4384 -3.89076 
-54.552 27.5907 -3.89076 51.4455 22.4384 -3.89076 54.3817 22.4384 1.67166 
-52.6692 29.7007 -3.89076 -47.2898 33.6852 -3.89076 -40.0275 36.5153 -3.89076 
-18.2408 36.9519 -3.89076 39.8572 36.4232 -3.89076 47.7973 29.7007 -3.89076 
47.1195 30.4788 -3.89076 -33.0401 36.9629 -3.89076 -32.7653 36.9778 -3.89076 
-18.3307 36.9629 -3.89076 -25.503 37.757 -3.89076 -17.9738 36.9629 -3.89076 
-18.2408 36.9629 -3.80813 -10.9785 37.2295 -3.89076 -3.71628 38.2852 -3.89076 
3.54597 39.4785 -3.89076 10.8082 40.7448 -3.89076 18.0705 40.7611 -3.89076 
25.3327 40.6977 -3.89076 38.9695 36.9629 -3.89076 32.595 39.5861 -3.89076 
39.8572 36.9629 -2.91267 -32.7653 -38.839 3.37149 -25.503 -40.9237 3.37149 
-18.2408 -41.5354 3.37149 -10.9785 -40.7047 3.37149 -3.71628 -39.2745 3.37149 
3.54597 -38.2011 3.37149 10.8082 -38.0518 3.37149 18.0705 -38.1313 3.37149 
25.3327 -37.9552 3.37149 32.595 -37.4925 3.37149 -47.2898 -30.1235 3.37149 
-39.4676 -35.6596 3.37149 -40.0275 -35.2808 3.37149 -32.7653 -35.6596 8.00925 
-25.503 -35.6596 10.41 -3.71628 -35.6596 9.25987 3.54597 -35.6596 7.8646 
10.8082 -35.6596 7.31974 18.0705 -35.6596 7.34353 25.3327 -35.6596 7.48057 
39.0756 -35.6596 3.37149 32.595 -35.6596 6.65785 39.8572 -35.4209 3.37149 
47.1195 -32.6962 3.37149 -49.0945 -28.3973 3.37149 -54.552 -21.8496 3.37149 
-47.2898 -28.3973 5.11885 -40.0275 -28.3973 10.3658 54.0345 -28.3973 3.37149 
54.3817 -28.0929 3.37149 -55.058 -21.1351 3.37149 -54.552 -21.1351 3.94241 
-47.2898 -21.1351 9.87838 59.8459 -21.1351 3.37149 61.644 -15.8019 3.37149 
-58.6222 -13.8728 3.37149 -54.552 -13.8728 7.65514 62.1693 -13.8728 3.37149 
61.644 -13.8728 4.30032 -60.0982 -6.61059 3.37149 -54.552 -6.61059 9.86839 
63.6101 -6.61059 3.37149 61.644 -6.61059 6.96038 -61.7318 0.651664 3.37149 
62.1351 0.651664 3.37149 61.644 3.0942 3.37149 61.644 0.651664 4.2509 
-61.2206 7.91392 3.37149 60.6398 7.91392 3.37149 -60.5134 15.1762 3.37149 
-54.552 15.1762 10.2139 57.9999 15.1762 3.37149 54.3817 15.1762 9.35346 
-57.524 22.4384 3.37149 -54.552 26.6969 3.37149 -54.552 22.4384 7.15056 
54.9185 22.4384 3.37149 54.3817 23.5017 3.37149 54.3817 22.4384 4.59762 
-51.9031 29.7007 3.37149 -47.2898 33.2788 3.37149 -47.2898 29.7007 8.09975 
-40.0275 36.1085 3.37149 50.6902 29.7007 3.37149 47.1195 33.597 3.37149 
-35.0236 36.9629 3.37149 -32.7653 37.2715 3.37149 -32.7653 36.9629 4.09554 
-25.503 38.1018 3.37149 -25.503 36.9629 5.71477 -18.2408 37.8241 3.37149 
-18.2408 36.9629 5.54095 -10.9785 38.5173 3.37149 -10.9785 36.9629 7.77912 
-3.71628 40.051 3.37149 3.54597 41.6511 3.37149 10.8082 42.3318 3.37149 
18.0705 42.8709 3.37149 25.3327 42.9115 3.37149 32.595 41.6792 3.37149 
42.935 36.9629 3.37149 39.8572 38.8463 3.37149 39.8572 36.9629 8.95543 
-18.2408 -36.5071 10.6337 -10.9785 -35.9119 10.6337 -32.7653 -32.0597 10.6337 
-24.139 -35.6596 10.6337 -25.503 -35.3986 10.6337 -18.2408 -35.6596 11.4261 
-9.5407 -35.6596 10.6337 -10.9785 -35.6596 10.8763 -3.71628 -34.3239 10.6337 
[...]
POINT_DATA 578
SCALARS ImageScalars float
LOOKUP_TABLE default
0 0 0 0 0 0 0 0 0 
0 0 0 0 0 0 0 0 0 
0 0 0 0 0 0 0 0 0 
0 0 0 0 0 0 0 0 0 
0 0 0 0 0 0 0 0 0 
0 0 0 0 0 0 0 0 0 
0 0 0 0 0 0 0 0 0 
0 0 0 0 0 0 0 0 0 
0 0 0 0 0 0 0 0 0 
0 0 0 0 0 0 0 0 0 
0 0 0 0 0 0 0 0 0 
0 0 0 0 0 0 0 0 0 
0 0 0 0 0 0 0 0 0 
0 0 0 0 0 0 0 0 0 
0 0 0 0 0 0 0 0 0 
0 0 0 0 0 0 0 0 0 
0 0 0 0 0 0 0 0 0 
0 0 0 0 0 0 0 0 0 
0 0 0 0 0 0 0 0 0 
0 0 0 0 0 0 0 0 0 
0 0 0 0 0 0 0 0 0 
0 0 0 0 0 0 0 0 0 
0 0 0 0 0 0 0 0 0 
0 0 0 0 0 0 0 0 0 
0 0 0 0 0 0 0 0 0 
0 0 0 0 0 0 0 0 0 
0 0 0 0 0 0 0 0 0 
0 0 0 0 0 0 0 0 0 
0 0 0 0 0 0 0 0 0 
0 0 0 0 0 0 0 0 0 
0 0 0 0 0 0 0 0 0 
0 0 0 0 0 0 0 0 0 
0 0 0 0 0 0 0 0 0 
0 0 0 0 0 0 0 0 0 
0 0 0 0 0 0 0 0 0 
0 0 0 0 0 0 0 0 0 
0 0 0 0 0 0 0 0 0 
0 0 0 0 0 0 0 0 0 
0 0 0 0 0 0 0 0 0 
0 0 0 0 0 0 0 0 0 
0 0 0 0 0 0 0 0 0 
0 0 0 0 0 0 0 0 0 
0 0 0 0 0 0 0 0 0 
0 0 0 0 0 0 0 0 0 
0 0 0 0 0 0 0 0 0 
0 0 0 0 0 0 0 0 0 
0 0 0 0 0 0 0 0 0 
0 0 0 0 0 0 0 0 0 
0 0 0 0 0 0 0 0 0 
0 0 0 0 0 0 0 0 0 
0 0 0 0 0 0 0 0 0 
0 0 0 0 0 0 0 0 0 
0 0 0 0 0 0 0 0 0 
0 0 0 0 0 0 0 0 0 
0 0 0 0 0 0 0 0 0 
0 0 0 0 0 0 0 0 0 
0 0 0 0 0 0 0 0 0 
0 0 0 0 0 0 0 0 0 
0 0 0 0 0 0 0 0 0 
0 0 0 0 0 0 0 0 0 
0 0 0 0 0 0 0 0 0 
0 0 0 0 0 0 0 0 0 
0 0 0 0 0 0 0 0 0 
0 0 0 0 0 0 0 0 0 
0 0 
NORMALS Normals float
-0.00469752 0.0151845 0.999874 0.267847 0.606225 0.748832 0.0714147 0.473441 0.877926 
-0.0231084 0.464896 0.885064 -0.143258 0.500623 0.853729 -0.161494 0.593591 0.788397 
-0.0607311 0.63684 0.768601 -0.0244394 0.623791 0.781209 -0.0768034 0.661527 0.745978 
0.542565 0.465946 0.698941 0.291005 0.311971 0.904428 0.0862891 0.210818 0.973709 
0.0385131 0.184142 0.982145 -0.0120447 0.113892 0.99342 -0.0801296 0.121732 0.989323 
-0.134945 0.18639 0.973164 -0.0807441 0.233452 0.96901 -0.00349411 0.249686 0.968321 
-0.0155879 0.258002 0.966019 -0.0596292 0.319769 0.945617 -0.132041 0.399106 0.907348 
-0.24072 0.509405 0.826172 0.425803 0.231936 0.874584 0.189967 0.0484764 0.980593 
0.103676 0.0579863 0.992919 -0.0194817 0.00509978 0.999797 -0.0730827 -0.0589572 0.995582 
-0.0724101 -0.0931776 0.993013 -0.0697596 0.0285834 0.997154 -0.0298834 0.12679 0.991479 
0.00259534 0.0742444 0.997237 0.0248808 0.087557 0.995849 0.0298781 0.161638 0.986398 
-0.049263 0.205122 0.977496 -0.190818 0.232309 0.953741 -0.383657 0.269899 0.883155 
0.5557 0.181999 0.811218 0.309505 0.0797227 0.94755 0.091989 0.0173351 0.995609 
0.033391 -0.0535723 0.998006 -0.0804405 -0.0741574 0.993997 -0.108901 -0.0772015 0.99105 
0.00715553 -0.0473033 0.998855 0.0906084 0.0913825 0.991685 -0.0399715 0.0947993 0.994694 
-0.0500301 0.0679804 0.996431 0.0778201 0.0553613 0.995429 0.0478697 0.0486269 0.997669 
-0.0451193 0.0405106 0.99816 -0.122859 0.0694964 0.989988 -0.279789 0.135638 0.950432 
-0.518021 0.109665 0.848309 0.547159 -0.0654518 0.834466 0.281838 -0.0696435 0.956931 
0.0463499 0.0051162 0.998912 0.0208769 -0.0284042 0.999379 -0.0451071 -0.012617 0.998902 
-0.0499246 0.0451411 0.997732 0.0973069 0.202976 0.974337 0.0642069 0.0185989 0.997763 
-0.0575193 -0.124297 0.990576 -0.031544 0.0646837 0.997407 0.00511121 -0.075387 0.997141 
0.0191372 -0.10778 0.993991 -0.0279238 -0.0885821 0.995677 -0.125134 -0.0823494 0.988716 
-0.272413 -0.0742545 0.959311 -0.482572 -0.0435108 0.874775 0.314787 -0.000649762 0.949162 
0.149691 0.025512 0.988404 0.0161873 0.0948909 0.995356 -0.00421423 0.0973154 0.995245 
0.0952729 0.143299 0.985083 -0.0154245 0.102838 0.994579 -0.254483 -0.0247445 0.966761 
0.0339851 -0.0831716 0.995956 -0.0163584 -0.142001 0.989731 -0.0890428 -0.221566 0.971072 
0.0428414 -0.19966 0.978928 -0.0201399 -0.176392 0.984114 -0.114537 -0.201618 0.972744 
-0.233862 -0.231215 0.944377 -0.502797 -0.176907 0.846108 0.531526 0.0655846 0.844499 
0.289707 0.056491 0.955447 0.142632 0.030183 0.989316 0.0890955 0.120947 0.988652 
-0.00448026 0.0178934 0.99983 0.00279929 0.130851 0.991398 -0.0301235 0.118962 0.992442 
-0.0717939 -0.0164478 0.997284 -0.114218 0.0222362 0.993207 -0.184454 -0.0449481 0.981813 
-0.160753 -0.151907 0.975235 -0.0325901 -0.0344672 0.998874 0.0500017 -0.0949006 0.99423 
-0.0348903 -0.162827 0.986037 -0.159744 -0.166828 0.97296 -0.273335 -0.134572 0.952459 
0.561581 -0.184792 0.806523 0.331455 -0.0843914 0.939689 0.196569 -0.030307 0.980021 
0.0127879 0.00854317 0.999882 0.113171 -0.0291353 0.993148 -0.00911207 0.0128879 0.999875 
-0.00370017 0.00674284 0.99997 -0.0521479 -0.00888698 0.9986 -0.123756 0.00136598 0.992312 
-0.249557 -0.0136195 0.968264 -0.161114 -0.0227995 0.986672 -0.0142118 0.010268 0.999846 
-0.036855 0.0945431 0.994838 -0.0748494 0.0573018 0.995547 -0.100652 -0.0619982 0.992988 
-0.121506 -0.156274 0.980212 0.409853 -0.276912 0.869103 0.201656 -0.212462 0.956135 
0.126005 -0.246897 0.960815 0.0229475 -0.239076 0.97073 -0.0407071 -0.234999 0.971143 
-0.0730794 -0.192961 0.978481 -0.164112 -0.129265 0.977935 -0.156194 -0.0331215 0.987171 
-0.0361161 -0.054625 0.997854 0.00881986 -0.0330215 0.999416 -0.117724 -0.0771475 0.990045 
-0.224364 -0.0843911 0.970844 0.230588 -0.592817 0.77162 0.0918485 -0.556598 0.825689 
-0.010393 -0.586618 0.809797 -0.0106627 -0.622585 0.782479 0.00544583 -0.583938 0.81178 
-0.0555112 -0.488866 0.870591 -0.0655218 -0.376149 0.92424 -0.0181969 -0.303573 0.952635 
-0.0615539 -0.299835 0.952003 -0.124768 -0.337646 0.932968 -0.199971 -0.336651 0.920151 
0.307416 0.730469 0.609844 0.12959 0.796707 0.590309 -0.0679752 0.770008 0.634403 
-0.0218697 0.995474 0.0924884 -0.172809 0.748977 0.639664 -0.165655 0.683293 0.711105 
-0.0595833 0.668268 0.741531 -0.023818 0.63622 0.77114 -0.0773223 0.664699 0.743099 
0.561331 0.506109 0.654798 0.399609 0.682436 0.612041 0.416413 0.658465 0.626917 
0.454434 0.74657 0.485925 -0.0817541 0.663566 0.743638 -0.14935 0.600023 0.785918 
-0.168002 0.765834 0.620704 -0.143406 0.584432 0.79867 -0.178852 0.848937 0.49731 
-0.245148 0.524059 0.815637 -0.35653 0.907209 0.223287 0.588433 0.478625 0.651663 
-0.270451 0.510462 0.816263 -0.380613 0.399916 0.833787 -0.396385 0.559556 0.727857 
0.585549 0.31618 0.746433 0.600937 0.257113 0.756814 0.76876 0.449564 0.454863 
-0.425655 0.31926 0.846694 -0.512736 0.223492 0.828947 -0.540553 0.416582 0.730932 
0.602959 0.194454 0.77371 -0.560602 0.117848 0.819656 0.605587 -0.0557538 0.793823 
0.561088 0.00272048 0.827752 -0.497312 -0.0436245 0.866474 -0.845267 -0.0259067 0.533715 
0.942656 0.0319744 0.33223 0.542358 0.0233592 0.839823 0.559786 0.0351235 0.827892 
0.573286 0.024357 0.818993 -0.51269 -0.180939 0.839291 -0.505097 -0.190669 0.841738 
0.616359 0.055069 0.785537 -0.280049 -0.138899 0.949884 -0.338476 -0.177806 0.924023 
-0.575202 -0.306353 0.758479 0.602563 -0.198729 0.772932 0.587655 -0.274139 0.761255 
-0.356441 -0.194583 0.913831 -0.243761 -0.165148 0.955671 -0.364241 -0.196375 0.910365 
-0.661832 -0.391495 0.639305 0.542143 -0.337217 0.769653 0.668484 -0.398374 0.628035 
0.401251 -0.545401 0.735891 -0.296309 -0.152977 0.942761 -0.318716 -0.173078 0.931914 
-0.568653 -0.368202 0.735569 0.38233 -0.5669 0.72969 0.403875 -0.569762 0.715721 
0.229754 -0.661918 0.713497 0.08736 -0.772327 0.629189 -0.0336886 -0.751093 0.659336 
-0.0107504 -0.76124 0.648381 0.0450252 -0.755323 0.653804 0.0246229 -0.690368 0.723039 
0.00768337 -0.571594 0.8205 0.0218697 -0.499715 0.865914 -0.0471034 -0.504458 0.86215 
-0.12639 -0.429469 0.894194 -0.201039 -0.336837 0.91985 -0.200012 -0.337555 0.919811 
-0.407089 -0.405444 0.818471 -0.614439 -0.478701 0.627144 0.0808615 -0.96864 0.234942 
-0.00738904 -0.935864 0.352283 0.0843917 -0.935501 0.343099 0.11635 -0.879385 0.461676 
0.100112 -0.791477 0.602945 0.066828 -0.70916 0.701873 -0.0268837 -0.69603 0.717509 
-0.113762 -0.68003 0.724305 -0.247706 -0.684422 0.685717 -0.0167458 0.998889 0.0440424 
0.481699 0.876267 0.011085 0.311758 0.949605 0.0325168 0.0477476 0.998324 0.0326884 
0.167199 0.985825 0.0138899 -0.0571048 0.997282 0.0465578 -0.0169939 0.99967 -0.0192612 
-0.171692 0.98338 0.0590341 -0.181822 0.978733 0.0949883 -0.0732005 0.991831 0.104466 
-0.0280735 0.99447 0.101196 -0.0526337 0.991439 0.11949 -0.0857845 0.982333 0.166323 
-0.210494 0.945554 0.248235 -0.355574 0.917146 0.180027 0.53819 0.842762 0.0102138 
0.63995 0.768052 0.0236529 0.507044 0.763079 -0.40077 -0.365429 0.911722 0.187682 
-0.334666 0.941943 -0.0272415 -0.471851 0.830941 0.294775 0.74328 0.66664 0.05591 
0.814821 0.57041 0.103438 -0.640997 0.69132 0.333467 -0.674432 0.652424 0.345666 
0.865386 0.482441 0.135489 -0.819581 0.442998 0.363374 0.94516 0.2776 0.172076 
-0.886974 0.253732 0.385873 -0.889842 0.242501 0.386491 -0.913998 0.257539 0.313498 
0.9591 0.106835 0.262134 0.951717 0.0521572 0.302514 -0.934921 -0.0182122 0.354388 
-0.87591 -0.234078 0.421887 0.950745 0.032296 0.308287 0.949188 -0.025932 0.31364 
0.9762 0.0549303 -0.209798 -0.862151 -0.270814 0.428201 -0.948195 -0.261402 0.18054 
0.947585 -0.06956 0.31184 -0.828281 -0.286879 0.481301 0.923661 -0.244821 0.294811 
-0.765273 -0.397564 0.506261 -0.696652 -0.446821 0.561273 0.872075 -0.419741 0.251602 
0.753777 -0.617354 0.225153 -0.661961 -0.427104 0.615947 -0.884085 -0.459212 0.0867026 
0.670653 -0.710587 0.212817 0.452814 -0.866385 0.210562 0.233008 -0.945298 0.228297 
-0.0368318 -0.953009 0.300696 -0.465781 -0.703635 0.536606 -0.6423 -0.501718 0.579422 
-0.631533 -0.524219 0.57128 0.0864897 -0.968542 0.233336 0.0809432 -0.968972 0.233541 
-0.0364199 -0.953112 0.300418 -0.00141844 -0.959087 0.283106 -0.0323285 -0.952911 0.301523 
-0.0361259 -0.954577 0.295766 0.0868369 -0.942412 0.322984 0.144823 -0.917648 0.370066 
0.15413 -0.885226 0.438883 0.0855772 -0.891988 0.443884 -0.00276433 -0.888857 0.458177 
-0.064992 -0.856354 0.512283 -0.441549 -0.72371 0.530357 -0.268348 -0.803288 0.531712 
-0.477188 -0.752911 0.45323 0.320009 0.855827 -0.406393 0.171304 0.908588 -0.380949 
-0.014837 0.925815 -0.377685 -0.1433 0.921387 -0.361263 -0.160031 0.921175 -0.35472 
-0.0780773 0.935092 -0.345698 -0.00442084 0.924271 -0.381711 -0.00685059 0.935427 -0.353452 
-0.0429567 0.942267 -0.332096 -0.172909 0.938359 -0.299308 0.596894 0.646488 -0.475153 
0.489164 0.742383 -0.457806 0.499481 0.731438 -0.464238 0.335074 0.695018 -0.636141 
0.161823 0.65678 -0.736515 -0.126303 0.752567 -0.64629 -0.0773047 0.8357 -0.543718 
-0.0194458 0.836436 -0.54772 0.00623408 0.827623 -0.561249 -0.0253109 0.839553 -0.542688 
-0.288585 0.930789 -0.224388 -0.133753 0.863113 -0.486977 -0.30117 0.928251 -0.218282 
-0.444025 0.866379 -0.228537 0.631363 0.61402 -0.473667 0.703654 0.534009 -0.468727 
0.570292 0.572731 -0.588851 0.403741 0.444918 -0.7994 -0.65116 0.725932 -0.221389 
-0.664202 0.713903 -0.22176 0.714523 0.515942 -0.472504 0.696582 0.506224 -0.508439 
0.471908 0.320118 -0.821479 -0.854064 0.472745 -0.216996 -0.925258 0.298102 -0.234591 
0.857899 0.303598 -0.414533 0.59197 0.334154 -0.733425 -0.943671 0.2358 -0.232126 
-0.926477 0.237693 -0.291792 0.883595 0.190676 -0.427671 0.556776 0.217036 -0.801808 
-0.972854 -0.00237617 -0.231408 -0.895916 -0.000633301 -0.444224 0.927448 0.0593691 -0.36921 
-0.954241 -0.205211 -0.217513 -0.953646 -0.229471 -0.194684 -0.938789 -0.205479 -0.276503 
0.926065 -0.0756584 -0.369702 -0.952491 -0.271572 -0.137875 0.904397 -0.231351 -0.358528 
0.523302 -0.197027 -0.829057 -0.92244 -0.360258 -0.138994 -0.72011 -0.290213 -0.630253 
0.821606 -0.477322 -0.311653 0.720684 -0.592234 -0.36038 0.628743 -0.499026 -0.596369 
-0.902279 -0.427602 -0.0552179 -0.892007 -0.449121 -0.0511304 -0.890235 -0.428609 -0.154192 
0.641622 -0.678053 -0.35856 0.461954 -0.821586 -0.334058 0.500636 -0.553871 -0.665275 
0.279808 -0.911248 -0.302218 -0.793525 -0.60776 -0.0307525 -0.706018 -0.708067 -0.0134062 
0.168308 -0.96039 -0.222091 0.122432 -0.974425 -0.18843 0.127019 -0.963813 -0.234371 
0.0378225 -0.977982 -0.205231 0.0440931 -0.932493 -0.358486 0.0283165 -0.991347 -0.128174 
0.0507853 -0.961133 -0.271374 0.15098 -0.986179 -0.0682293 0.187198 -0.886582 -0.423 
0.212174 -0.977068 -0.0178936 0.155789 -0.98779 0.000429049 0.0842084 -0.996388 -0.0109544 
0.039899 -0.999023 0.0190267 -0.0845261 -0.996278 -0.0168779 -0.257192 -0.965875 -0.0306147 
-0.559223 -0.828975 -0.00837677 -0.457354 -0.889156 -0.0151166 -0.441671 -0.760443 -0.476082 
0.0199692 0.703978 -0.709941 -0.102289 0.68436 -0.721934 0.310113 0.492195 -0.813372 
0.135465 0.658476 -0.74031 0.164576 0.642535 -0.748374 0.0232789 0.675021 -0.737431 
-0.105197 0.685034 -0.720876 -0.101084 0.67482 -0.731026 -0.106927 0.664444 -0.739649 
-0.0592007 0.705956 -0.705777 -0.0420016 0.693738 -0.719002 -0.0106188 0.651285 -0.758759 
-0.0160936 0.66671 -0.745144 -0.0897681 0.67011 -0.736813 -0.197817 0.661858 -0.723058 
-0.357876 0.615992 -0.701768 0.390853 0.429507 -0.814099 0.387596 0.419074 -0.821064 
0.299618 0.333767 -0.893772 0.22214 0.342086 -0.913034 0.0207378 0.352087 -0.935737 
-0.093015 0.337128 -0.936853 -0.0502398 0.345776 -0.936971 -0.0119573 0.440647 -0.897601 
-0.0556407 0.472117 -0.879778 -0.0379819 0.474127 -0.879637 -0.0174072 0.480839 -0.876636 
-0.0721131 0.545725 -0.834856 -0.168275 0.572128 -0.802716 -0.372086 0.607869 -0.701461 
-0.355898 0.605338 -0.711971 -0.535428 0.438812 -0.721637 0.407419 0.292719 -0.865058 
0.416537 0.199503 -0.886959 0.271744 0.236886 -0.93276 0.255406 0.156676 -0.954055 
0.214446 0.0527947 -0.975308 0.0130879 0.0798205 -0.996723 -0.121402 0.0855623 -0.988909 
-0.00574827 0.0635931 -0.997959 0.0581001 0.164447 -0.984673 -0.0240203 0.154645 -0.987678 
0.0137496 0.19134 -0.981428 0.0705218 0.245667 -0.966786 -0.0495126 0.253803 -0.965988 
-0.172745 0.293076 -0.940354 -0.336781 0.301449 -0.892024 -0.537037 0.42969 -0.725918 
-0.517158 0.416382 -0.747779 0.402397 0.167325 -0.900044 0.39079 0.154012 -0.907504 
0.242109 0.102834 -0.964784 0.166043 0.0442285 -0.985126 0.147887 -0.0839804 -0.985432 
0.0591174 -0.126292 -0.99023 -0.109217 0.0170982 -0.993871 0.0253742 0.107416 -0.99389 
0.0934116 0.106083 -0.98996 -0.0333575 -0.0483555 -0.998273 0.0477269 0.0142283 -0.998759 
0.0706933 0.0488254 -0.996302 0.00524672 0.0374964 -0.999283 -0.179569 0.119908 -0.97641 
-0.311439 0.112529 -0.94358 -0.663272 0.152871 -0.732598 -0.507784 0.127266 -0.852032 
0.481597 0.214605 -0.849711 0.525228 0.166169 -0.83458 0.295252 0.19377 -0.935564 
0.143832 0.0745421 -0.986791 0.068977 0.0232747 -0.997347 0.0516849 -0.0571972 -0.997024 
0.119824 -0.103894 -0.987344 0.108425 0.0648171 -0.991989 0.0861836 0.0411096 -0.995431 
-0.108432 0.0184509 -0.993933 0.120558 -0.0273218 -0.99233 0.0987686 -0.0475862 -0.993972 
0.0168295 -0.0472673 -0.99874 -0.124462 -0.0525421 -0.990832 -0.275811 -0.0127015 -0.961128 
-0.659106 -0.0541771 -0.750096 -0.481894 -0.074263 -0.873077 0.546461 0.0705933 -0.834504 
0.503463 0.0684634 -0.8613 0.263991 0.0773352 -0.96142 0.0848616 0.0556874 -0.994835 
0.0281876 0.0532039 -0.998186 0.0214694 0.0343297 -0.99918 0.175058 0.0204425 -0.984346 
-0.106634 -0.00721154 -0.994272 0.0786292 -0.0367422 -0.996227 -0.00305651 0.120324 -0.99273 
-0.0139667 0.01014 -0.999851 0.049531 -0.0608427 -0.996918 -0.00226354 -0.0766362 -0.997057 
-0.136389 -0.0948479 -0.986104 -0.300194 -0.107479 -0.947804 -0.612139 -0.0507315 -0.789121 
-0.544936 -0.037707 -0.837629 0.552954 -0.0795209 -0.829409 0.514798 -0.154511 -0.843273 
0.525941 -0.0770085 -0.847028 0.302981 -0.0647827 -0.950792 0.114278 -0.0170647 -0.993302 
0.0475376 0.0322346 -0.998349 0.0183209 0.0451196 -0.998814 0.111866 -0.00687356 -0.9937 
0.0972295 -0.221948 -0.970199 0.00886279 -0.115601 -0.993256 0.0201883 -0.0650012 -0.997681 
-0.0748027 -0.0654252 -0.99505 -0.0558793 0.0220333 -0.998194 0.0127083 0.0173583 -0.999769 
-0.0214139 -0.0214758 -0.99954 -0.154424 -0.0486731 -0.986805 -0.28247 -0.0253154 -0.958942 
-0.644701 -0.14717 -0.750134 -0.632927 -0.220916 -0.742024 -0.514325 -0.121932 -0.848883 
0.474872 -0.192911 -0.858651 0.296047 -0.170179 -0.939891 0.182631 -0.0238144 -0.982893 
0.0849567 -0.0596286 -0.994599 -0.0146213 -0.0509847 -0.998592 -0.0677607 -0.065853 -0.995526 
-0.0649942 -0.186326 -0.980336 0.0464565 -0.141319 -0.988873 0.111654 -0.120061 -0.986468 
0.0805486 -0.0383722 -0.996012 0.0648593 0.0381952 -0.997163 0.00625597 0.0646085 -0.997891 
-0.0667304 0.0746361 -0.994976 -0.117897 -0.0604814 -0.991182 -0.625359 -0.254106 -0.737805 
-0.39383 -0.117688 -0.911618 0.410544 -0.285364 -0.866037 0.414458 -0.294618 -0.86106 
0.400824 -0.272817 -0.874592 0.223454 -0.182115 -0.95755 0.0196281 -0.193175 -0.980968 
0.0156142 -0.187441 -0.982152 -0.0336094 -0.150706 -0.988007 -0.000153932 -0.0860783 -0.996288 
0.0889451 -0.00725651 -0.99601 0.137129 0.00963346 -0.990506 0.0966352 0.007346 -0.995293 
0.0473738 -0.0212966 -0.99865 0.0547399 -0.0662065 -0.996303 -0.333128 -0.111235 -0.936297 
-0.567897 -0.291051 -0.769924 -0.477788 -0.257533 -0.839879 0.35891 -0.505796 -0.784445 
0.257794 -0.627058 -0.735078 0.255649 -0.510544 -0.820968 0.104545 -0.612704 -0.783368 
0.0792774 -0.461703 -0.883485 0.0483765 -0.632014 -0.773446 0.0277427 -0.41267 -0.910458 
0.0800585 -0.636753 -0.766901 0.0414947 -0.391756 -0.919133 0.179404 -0.665731 -0.724304 
0.0827885 -0.289397 -0.953622 0.141809 -0.213745 -0.966542 0.126103 -0.16884 -0.977543 
0.0452542 -0.194328 -0.979892 -0.0027686 -0.19468 -0.980863 -0.0514584 -0.259936 -0.964254 
-0.128487 -0.333804 -0.933845 -0.399461 -0.64703 -0.649449 -0.309475 -0.332244 -0.890977 
-0.612196 -0.430014 -0.663554 -0.610911 -0.43371 -0.662331 -0.608301 -0.426809 -0.669181 
0.205383 -0.726846 -0.655373 0.211669 -0.736152 -0.642866 0.210308 -0.683031 -0.699456 
0.157747 -0.760137 -0.630324 0.139306 -0.612949 -0.777745 0.111819 -0.786263 -0.60769 
0.0838136 -0.564197 -0.821375 -0.00762141 -0.794172 -0.607645 -0.0243838 -0.545374 -0.837838 
-0.11803 -0.749197 -0.651746 -0.106224 -0.582446 -0.805899 -0.355936 -0.67741 -0.643758 
-0.25293 -0.684006 -0.684224 -0.218884 -0.604559 -0.765897 -0.0529405 -0.012416 -0.99852 
0.045812 0.052011 -0.997595 -0.0564371 -0.0298268 -0.997961 -0.106673 -0.0488666 -0.993093 
-0.083068 -0.0529493 -0.995136 -0.104921 -0.0547842 -0.99297 0.0458773 0.0500237 -0.997694 
0.0370831 0.0492182 -0.998099 0.0503896 0.0119554 -0.998658 0.0420897 0.0509656 -0.997813 
-0.128786 -0.0633774 -0.989645 -0.123111 -0.0649842 -0.990263 -0.130367 -0.0649209 -0.989338 
-0.129209 -0.0660485 -0.989415 -0.12939 -0.0647739 -0.989476 
