# vtk DataFile Version 4.2
vtk output
ASCII
DATASET POLYDATA
POINTS 556 float
-34.5607 -35.3533 -12.486 -26.6397 -35.3533 -14.0386 -18.7187 -35.3533 -13.7222 
-10.7977 -35.3533 -13.3171 -2.87668 -35.3533 -13.0169 5.04433 -35.3533 -13.1295 
12.9653 -35.3533 -13.0197 20.8863 -35.3533 -13.0116 -42.4817 -27.4322 -14.1456 
-34.5607 -27.4322 -14.9332 -26.6397 -27.4322 -15.9885 -18.7187 -27.4322 -15.2583 
-10.7977 -27.4322 -14.9193 -2.87668 -27.4322 -14.5905 5.04433 -27.4322 -14.915 
12.9653 -27.4322 -15.0677 20.8863 -27.4322 -15.2799 28.8073 -27.4322 -14.8888 
36.7284 -27.4322 -14.8565 44.6494 -27.4322 -12.635 -50.4027 -19.5112 -13.4419 
-42.4817 -19.5112 -15.4262 -34.5607 -19.5112 -16.9526 -26.6397 -19.5112 -16.1732 
-18.7187 -19.5112 -15.1668 -10.7977 -19.5112 -14.7833 -2.87668 -19.5112 -14.4738 
5.04433 -19.5112 -14.9373 12.9653 -19.5112 -15.0626 20.8863 -19.5112 -15.7 
28.8073 -19.5112 -15.7867 36.7284 -19.5112 -15.992 44.6494 -19.5112 -15.413 
52.5704 -19.5112 -12.4234 -58.3237 -11.5902 -12.2368 -50.4027 -11.5902 -15.8686 
-42.4817 -11.5902 -16.5867 -34.5607 -11.5902 -16.848 -26.6397 -11.5902 -16.1522 
-18.7187 -11.5902 -15.0581 -10.7977 -11.5902 -13.8562 -2.87668 -11.5902 -15.0048 
5.04433 -11.5902 -15.2857 12.9653 -11.5902 -13.8885 20.8863 -11.5902 -14.8133 
28.8073 -11.5902 -15.9028 36.7284 -11.5902 -16.2664 44.6494 -11.5902 -15.4199 
52.5704 -11.5902 -13.9358 -58.3237 -3.66922 -13.3545 -50.4027 -3.66922 -16.2125 
-42.4817 -3.66922 -16.6818 -34.5607 -3.66922 -16.7621 -26.6397 -3.66922 -16.2015 
-18.7187 -3.66922 -15.6573 -10.7977 -3.66922 -18.8341 -2.87668 -3.66922 -15.6559 
5.04433 -3.66922 -16.042 12.9653 -3.66922 -15.0781 20.8863 -3.66922 -14.2527 
28.8073 -3.66922 -15.378 36.7284 -3.66922 -15.8226 44.6494 -3.66922 -15.3384 
52.5704 -3.66922 -14.2457 60.4914 -3.66922 -12.7586 -58.3237 4.25178 -13.2742 
-50.4027 4.25178 -15.8032 -42.4817 4.25178 -16.2331 -34.5607 4.25178 -16.3231 
-26.6397 4.25178 -15.6967 -18.7187 4.25178 -15.2431 -10.7977 4.25178 -19.2149 
-2.87668 4.25178 -14.5318 5.04433 4.25178 -15.576 12.9653 4.25178 -16.6248 
20.8863 4.25178 -13.6835 28.8073 4.25178 -14.6674 36.7284 4.25178 -15.4609 
44.6494 4.25178 -15.0738 52.5704 4.25178 -14.2589 60.4914 4.25178 -13.0451 
-58.3237 12.1728 -13.2668 -50.4027 12.1728 -15.4222 -42.4817 12.1728 -15.9882 
-34.5607 12.1728 -16.0902 -26.6397 12.1728 -16.2926 -18.7187 12.1728 -15.3189 
-10.7977 12.1728 -16.6655 -2.87668 12.1728 -17.5269 5.04433 12.1728 -15.2218 
12.9653 12.1728 -14.28 20.8863 12.1728 -14.2434 28.8073 12.1728 -14.7563 
36.7284 12.1728 -15.3505 44.6494 12.1728 -14.7501 52.5704 12.1728 -13.3367 
60.4914 12.1728 -13.2209 -50.4027 20.0938 -14.0445 -42.4817 20.0938 -15.6534 
-34.5607 20.0938 -16.5743 -26.6397 20.0938 -15.8044 -18.7187 20.0938 -15.0804 
-10.7977 20.0938 -16.1341 -2.87668 20.0938 -17.0203 5.04433 20.0938 -15.2009 
12.9653 20.0938 -14.5943 20.8863 20.0938 -14.9974 28.8073 20.0938 -14.8429 
36.7284 20.0938 -14.7326 44.6494 20.0938 -14.7095 52.5704 20.0938 -12.34 
-42.4817 28.0148 -15.5404 -34.5607 28.0148 -14.7641 -26.6397 28.0148 -14.9 
-18.7187 28.0148 -14.4076 -10.7977 28.0148 -14.6724 -2.87668 28.0148 -15.8624 
5.04433 28.0148 -15.4005 12.9653 28.0148 -14.4158 20.8863 28.0148 -15.166 
28.8073 28.0148 -14.3751 36.7284 28.0148 -14.4397 44.6494 28.0148 -12.5108 
-42.4817 35.9358 -13.0249 -34.5607 35.9358 -12.5078 -2.87668 35.9358 -13.0561 
5.04433 35.9358 -12.9667 12.9653 35.9358 -12.3315 20.8863 35.9358 -13.058 
28.8073 35.9358 -12.4674 -34.5607 -35.9917 -12.1053 -34.5607 -43.2743 -5.44334 
-26.6397 -39.0315 -12.1053 -26.6397 -43.2743 -8.89952 -18.7187 -38.9607 -12.1053 
-18.7187 -43.2743 -9.73779 -10.7977 -38.1525 -12.1053 -10.7977 -43.2743 -9.54399 
-2.87668 -37.4239 -12.1053 -2.87668 -43.2743 -9.14811 5.04433 -37.5023 -12.1053 
5.04433 -43.2743 -8.78239 12.9653 -37.0381 -12.1053 12.9653 -43.2743 -7.62166 
20.8863 -36.7766 -12.1053 20.8863 -43.2743 -5.13767 -36.6012 -35.3533 -12.1053 
-42.4817 -32.6294 -12.1053 -42.4817 -35.3533 -10.4554 27.7309 -35.3533 -12.1053 
28.8073 -34.9429 -12.1053 28.8073 -35.3533 -11.8889 36.7284 -32.2983 -12.1053 
36.7284 -35.3533 -9.07992 44.6494 -28.4329 -12.1053 44.6494 -35.3533 -5.47763 
-49.6791 -27.4322 -12.1053 -50.4027 -26.4048 -12.1053 -50.4027 -27.4322 -11.789 
46.4473 -27.4322 -12.1053 52.5704 -20.7388 -12.1053 52.5704 -27.4322 -9.51373 
-53.0904 -19.5112 -12.1053 -58.3237 -12.0674 -12.1053 -58.3237 -19.5112 -8.36085 
53.445 -19.5112 -12.1053 60.4914 -19.5112 -8.85778 -58.4899 -11.5902 -12.1053 
59.5937 -11.5902 -12.1053 60.4914 -9.8488 -12.1053 60.4914 -11.5902 -11.7709 
-60.0321 -3.66922 -12.1053 61.4983 -3.66922 -12.1053 68.4124 -3.66922 -5.16842 
-59.9428 4.25178 -12.1053 61.9578 4.25178 -12.1053 68.4124 4.25178 -6.3571 
-59.8946 12.1728 -12.1053 -58.3237 18.5436 -12.1053 61.2803 12.1728 -12.1053 
60.4914 15.1745 -12.1053 68.4124 12.1728 -5.4217 -57.0983 20.0938 -12.1053 
-58.3237 20.0938 -11.595 -50.4027 27.2718 -12.1053 53.9632 20.0938 -12.1053 
52.5704 23.741 -12.1053 60.4914 20.0938 -10.9193 -58.3237 28.0148 -9.45005 
-49.9466 28.0148 -12.1053 -50.4027 28.0148 -11.9216 -26.6397 35.6099 -12.1053 
-18.7187 34.8163 -12.1053 -10.7977 35.4842 -12.1053 36.7284 33.4607 -12.1053 
49.1867 28.0148 -12.1053 44.6494 29.6216 -12.1053 52.5704 28.0148 -11.698 
60.4914 28.0148 -6.06538 -45.6599 35.9358 -12.1053 -50.4027 35.9358 -9.89224 
-42.4817 37.2692 -12.1053 -28.5685 35.9358 -12.1053 -34.5607 36.4557 -12.1053 
-26.6397 35.9358 -11.9629 -18.7187 35.9358 -11.6271 -9.5346 35.9358 -12.1053 
-10.7977 35.9358 -11.9187 -2.87668 37.1927 -12.1053 5.04433 37.1962 -12.1053 
12.9653 36.3019 -12.1053 20.8863 37.455 -12.1053 30.3543 35.9358 -12.1053 
28.8073 36.5436 -12.1053 36.7284 35.9358 -10.7047 44.6494 35.9358 -10.0326 
52.5704 35.9358 -4.95364 5.04433 43.8568 -4.42326 12.9653 43.8568 -4.60823 
20.8863 43.8568 -4.88243 28.8073 43.8568 -4.71563 -34.5607 -44.0013 -4.18431 
-26.6397 -46.9479 -4.18431 -18.7187 -48.8978 -4.18431 -10.7977 -48.9345 -4.18431 
-2.87668 -48.5648 -4.18431 5.04433 -47.9053 -4.18431 12.9653 -46.1615 -4.18431 
20.8863 -43.8956 -4.18431 -35.9216 -43.2743 -4.18431 -42.4817 -39.4177 -4.18431 
22.5785 -43.2743 -4.18431 28.8073 -40.9684 -4.18431 36.7284 -38.744 -4.18431 
44.6494 -35.9192 -4.18431 -47.962 -35.3533 -4.18431 -50.4027 -33.2267 -4.18431 
45.7295 -35.3533 -4.18431 44.6494 -35.3533 -1.22925 52.5704 -30.9996 -4.18431 
-55.7497 -27.4322 -4.18431 -58.3237 -23.9258 -4.18431 56.7307 -27.4322 -4.18431 
60.4914 -23.7374 -4.18431 -61.0133 -19.5112 -4.18431 63.7738 -19.5112 -4.18431 
-63.7606 -11.5902 -4.18431 66.7802 -11.5902 -4.18431 68.4124 -6.59946 -4.18431 
-65.7334 -3.66922 -4.18431 69.1681 -3.66922 -4.18431 -66.1019 4.25178 -4.18431 
70.3716 4.25178 -4.18431 -65.9259 12.1728 -4.18431 69.5457 12.1728 -4.18431 
68.4124 16.6606 -4.18431 -64.5131 20.0938 -4.18431 67.4544 20.0938 -4.18431 
-62.4137 28.0148 -4.18431 -58.3237 34.4407 -4.18431 62.4181 28.0148 -4.18431 
60.4914 30.3887 -4.18431 -56.8791 35.9358 -4.18431 -50.4027 40.2785 -4.18431 
-42.4817 43.505 -4.18431 -34.5607 43.6539 -4.18431 -26.6397 43.2893 -4.18431 
-18.7187 42.9551 -4.18431 -10.7977 42.9086 -4.18431 -2.87668 43.5672 -4.18431 
36.7284 43.0567 -4.18431 44.6494 40.4379 -4.18431 53.561 35.9358 -4.18431 
52.5704 36.5835 -4.18431 2.58753 43.8568 -4.18431 5.04433 43.9787 -4.18431 
5.04433 43.8568 -3.57239 12.9653 44.0957 -4.18431 12.9653 43.8568 -2.64748 
20.8863 44.2696 -4.18431 20.8863 43.8568 -1.47126 31.076 43.8568 -4.18431 
28.8073 44.1134 -4.18431 28.8073 43.8568 -2.17305 -34.5607 -43.6213 3.7367 
-26.6397 -47.7027 3.7367 -18.7187 -49.5992 3.7367 -10.7977 -50.981 3.7367 
-2.87668 -51.1654 3.7367 5.04433 -50.547 3.7367 12.9653 -48.4687 3.7367 
20.8863 -44.8859 3.7367 -35.1307 -43.2743 3.7367 -42.4817 -38.2535 3.7367 
-34.5607 -43.2743 4.26151 -26.6397 -43.2743 9.31351 24.3255 -43.2743 3.7367 
20.8863 -43.2743 7.38174 28.8073 -40.8416 3.7367 36.7284 -37.6415 3.7367 
-46.3867 -35.3533 3.7367 -50.4027 -31.7971 3.7367 -42.4817 -35.3533 7.19396 
-34.5607 -35.3533 10.6431 28.8073 -35.3533 10.0657 42.1661 -35.3533 3.7367 
36.7284 -35.3533 6.90218 44.6494 -33.8136 3.7367 52.5704 -29.3829 3.7367 
-54.2516 -27.4322 3.7367 -58.3237 -22.1751 3.7367 -50.4027 -27.4322 7.86727 
-42.4817 -27.4322 11.5571 44.6494 -27.4322 10.4652 54.9036 -27.4322 3.7367 
52.5704 -27.4322 5.86528 60.4914 -21.6179 3.7367 -60.0725 -19.5112 3.7367 
-58.3237 -19.5112 6.03102 -50.4027 -19.5112 11.6519 62.2522 -19.5112 3.7367 
60.4914 -19.5112 5.67115 -63.7393 -11.5902 3.7367 -58.3237 -11.5902 11.0475 
66.6147 -11.5902 3.7367 60.4914 -11.5902 10.1365 68.4124 -7.23675 3.7367 
-65.38 -3.66922 3.7367 69.7999 -3.66922 3.7367 68.4124 -3.66922 5.59852 
-66.0504 4.25178 3.7367 70.7893 4.25178 3.7367 68.4124 4.25178 6.78072 
-65.887 12.1728 3.7367 70.3592 12.1728 3.7367 68.4124 20.0068 3.7367 
68.4124 12.1728 6.31163 -64.2067 20.0938 3.7367 -58.3237 20.0938 10.7384 
68.3891 20.0938 3.7367 60.4914 20.0938 11.134 -62.0295 28.0148 3.7367 
-58.3237 33.6605 3.7367 -58.3237 28.0148 8.15397 62.7395 28.0148 3.7367 
60.4914 30.6763 3.7367 60.4914 28.0148 6.05583 -56.1692 35.9358 3.7367 
-50.4027 39.9719 3.7367 -50.4027 35.9358 8.79623 -42.4817 43.6214 3.7367 
-34.5607 43.8482 3.7367 -26.6397 43.6079 3.7367 -18.7187 43.1744 3.7367 
-10.7977 42.4561 3.7367 -10.7977 35.9358 10.5856 -2.87668 42.0633 3.7367 
-2.87668 35.9358 9.45333 5.04433 41.9575 3.7367 5.04433 35.9358 9.17284 
12.9653 42.5655 3.7367 12.9653 35.9358 9.68992 20.8863 42.8819 3.7367 
20.8863 35.9358 10.0235 28.8073 42.8513 3.7367 28.8073 35.9358 9.6176 
36.7284 41.8742 3.7367 36.7284 35.9358 10.3625 44.6494 38.9578 3.7367 
44.6494 35.9358 7.62314 53.2768 35.9358 3.7367 52.5704 36.3226 3.7367 
52.5704 35.9358 4.19223 -18.7187 -43.6161 11.6577 -10.7977 -46.2843 11.6577 
-2.87668 -47.8674 11.6577 5.04433 -47.5699 11.6577 12.9653 -44.6003 11.6577 
-19.541 -43.2743 11.6577 -26.6397 -39.8224 11.6577 -18.7187 -43.2743 11.9411 
-10.7977 -43.2743 13.5619 -2.87668 -43.2743 14.6851 5.04433 -43.2743 14.7793 
[...]
POINT_DATA 556
SCALARS ImageScalars float
LOOKUP_TABLE default
0 0 0 0 0 0 0 0 0 
0 0 0 0 0 0 0 0 0 
0 0 0 0 0 0 0 0 0 
0 0 0 0 0 0 0 0 0 
0 0 0 0 0 0 0 0 0 
0 0 0 0 0 0 0 0 0 
0 0 0 0 0 0 0 0 0 
0 0 0 0 0 0 0 0 0 
0 0 0 0 0 0 0 0 0 
0 0 0 0 0 0 0 0 0 
0 0 0 0 0 0 0 0 0 
0 0 0 0 0 0 0 0 0 
0 0 0 0 0 0 0 0 0 
0 0 0 0 0 0 0 0 0 
0 0 0 0 0 0 0 0 0 
0 0 0 0 0 0 0 0 0 
0 0 0 0 0 0 0 0 0 
0 0 0 0 0 0 0 0 0 
0 0 0 0 0 0 0 0 0 
0 0 0 0 0 0 0 0 0 
0 0 0 0 0 0 0 0 0 
0 0 0 0 0 0 0 0 0 
0 0 0 0 0 0 0 0 0 
0 0 0 0 0 0 0 0 0 
0 0 0 0 0 0 0 0 0 
0 0 0 0 0 0 0 0 0 
0 0 0 0 0 0 0 0 0 
0 0 0 0 0 0 0 0 0 
0 0 0 0 0 0 0 0 0 
0 0 0 0 0 0 0 0 0 
0 0 0 0 0 0 0 0 0 
0 0 0 0 0 0 0 0 0 
0 0 0 0 0 0 0 0 0 
0 0 0 0 0 0 0 0 0 
0 0 0 0 0 0 0 0 0 
0 0 0 0 0 0 0 0 0 
0 0 0 0 0 0 0 0 0 
0 0 0 0 0 0 0 0 0 
0 0 0 0 0 0 0 0 0 
0 0 0 0 0 0 0 0 0 
0 0 0 0 0 0 0 0 0 
0 0 0 0 0 0 0 0 0 
0 0 0 0 0 0 0 0 0 
0 0 0 0 0 0 0 0 0 
0 0 0 0 0 0 0 0 0 
0 0 0 0 0 0 0 0 0 
0 0 0 0 0 0 0 0 0 
0 0 0 0 0 0 0 0 0 
0 0 0 0 0 0 0 0 0 
0 0 0 0 0 0 0 0 0 
0 0 0 0 0 0 0 0 0 
0 0 0 0 0 0 0 0 0 
0 0 0 0 0 0 0 0 0 
0 0 0 0 0 0 0 0 0 
0 0 0 0 0 0 0 0 0 
0 0 0 0 0 0 0 0 0 
0 0 0 0 0 0 0 0 0 
0 0 0 0 0 0 0 0 0 
0 0 0 0 0 0 0 0 0 
0 0 0 0 0 0 0 0 0 
0 0 0 0 0 0 0 0 0 
0 0 0 0 0 0 0 
NORMALS Normals float
0.200376 0.424877 0.882796 0.0559007 0.360323 0.931151 -0.0448578 0.293923 0.954776 
-0.0416399 0.292047 0.955497 -0.0111234 0.29786 0.954545 0.000301406 0.325769 0.945449 
-0.0071533 0.374302 0.927279 -0.0535307 0.452193 0.890312 0.204828 0.279716 0.937979 
0.103444 0.240373 0.965153 0.0185013 0.144546 0.989325 -0.0658781 0.0857615 0.994135 
-0.0422209 0.0871495 0.9953 -0.000481597 0.0862637 0.996272 0.0299981 0.108023 0.993696 
0.0241097 0.119003 0.992601 -0.00964864 0.164937 0.986257 -0.0301174 0.212287 0.976743 
-0.108268 0.315407 0.94276 -0.298127 0.442263 0.845887 0.359683 0.238516 0.902075 
0.194046 0.134326 0.971752 0.044928 0.119304 0.991841 -0.110576 0.0100025 0.993817 
-0.0870262 -0.0118717 0.996135 -0.0435328 -0.0604708 0.99722 0.00971302 0.023322 0.999681 
0.0371731 0.0220757 0.999065 0.0477386 -0.0739526 0.996118 0.0458614 -0.0273589 0.998573 
0.0180573 0.0601158 0.998028 -0.0292206 0.0982751 0.99473 -0.182716 0.132978 0.974131 
-0.381822 0.202741 0.901725 0.582289 0.21697 0.783495 0.293588 0.149602 0.944153 
0.0550617 0.0785541 0.995388 -0.0274249 -0.0117539 0.999555 -0.106422 0.00179511 0.994319 
-0.141549 0.0317781 0.989421 -0.00283748 0.161939 0.986797 0.0880698 0.0642623 0.994039 
-0.0761961 0.0656921 0.994927 -0.0252321 -0.0230133 0.999417 0.125936 -0.0901878 0.98793 
0.0908921 -0.0256364 0.995531 -0.0315545 -0.0120203 0.99943 -0.134885 -0.00461833 0.990851 
-0.252848 0.105551 0.961731 0.51394 0.0668297 0.855219 0.23942 -0.00458431 0.970905 
0.0307255 -0.0225227 0.999274 -0.0304096 -0.0330909 0.99899 -0.0690775 -0.0286978 0.997198 
0.104306 0.0101533 0.994493 0.0857559 0.355565 0.930709 -0.166578 -0.0165442 0.985889 
-0.0346168 0.0296037 0.998962 -0.126399 0.168046 0.977642 0.0360544 -0.0729605 0.996683 
0.099885 -0.0784925 0.991898 -0.00245449 -0.050303 0.998731 -0.0967353 -0.0219466 0.995068 
-0.180995 0.0187293 0.983306 -0.427154 0.0773921 0.900861 0.500491 -0.00612155 0.86572 
0.218043 -0.0449677 0.974903 0.029424 -0.0437065 0.998611 -0.0339041 -0.0423541 0.998527 
-0.0662632 0.00570453 0.997786 0.181823 -0.0225218 0.983073 0.0374782 -0.139058 0.989575 
-0.257517 0.191928 0.947021 0.122832 -0.0660155 0.990229 -0.17309 -0.103119 0.979493 
-0.0565824 -0.0004383 0.998398 0.11144 -0.0389415 0.993008 0.0256827 -0.0300972 0.999217 
-0.0728176 -0.0370309 0.996658 -0.146785 -0.0564235 0.987558 -0.406769 0.0258673 0.913165 
0.492772 -0.0985714 0.864558 0.204989 -0.107157 0.972881 0.0384951 -0.0361599 0.998604 
0.0191299 0.015184 0.999702 -0.0500054 0.00711248 0.998724 0.0117056 -0.0107819 0.999873 
0.14894 -0.174061 0.973406 -0.102267 0.103306 0.989378 -0.200288 -0.0182684 0.979567 
-0.0625133 -0.0757409 0.995166 0.030316 0.0835631 0.996041 0.0695565 0.0110468 0.997517 
-0.000335486 -0.0459402 0.998944 -0.118198 -0.0221503 0.992743 -0.0980421 -0.119248 0.988012 
-0.533697 -0.127188 0.836057 0.265114 -0.204209 0.942345 0.142336 -0.0261102 0.989474 
0.00865238 -0.0796554 0.996785 -0.0927332 -0.0813091 0.992366 0.0198772 -0.0557849 0.998245 
0.120245 -0.117498 0.985766 -0.0537736 -0.105914 0.99292 -0.152617 0.0110525 0.988224 
-0.0107117 0.00878414 0.999904 0.0156734 0.0574761 0.998224 -0.0166667 -0.0228922 0.999599 
-0.00833654 -0.0601342 0.998155 -0.148237 -0.126529 0.980824 -0.207924 -0.0896725 0.974026 
0.156436 -0.193859 0.968476 -0.0333166 -0.224648 0.97387 -0.0240767 -0.209681 0.977473 
-0.0116689 -0.208098 0.978038 0.0934028 -0.242576 0.965625 0.0438704 -0.215656 0.975483 
-0.0910122 -0.121287 0.988436 -0.0158818 -0.131406 0.991201 -0.00167266 -0.133341 0.991069 
-0.0431771 -0.131445 0.990383 -0.0950311 -0.20646 0.973829 -0.185241 -0.243087 0.952153 
0.131538 -0.492907 0.860082 -0.0697241 -0.499178 0.86369 0.0584949 -0.501721 0.86305 
-0.0426118 -0.450758 0.891628 0.014488 -0.417302 0.908652 0.0108404 -0.432322 0.901654 
-0.147771 -0.396033 0.906268 0.210855 0.450257 0.867646 0.418795 0.846674 0.328259 
0.0870401 0.501316 0.860876 0.159433 0.730969 0.663525 -0.0239782 0.409876 0.911826 
0.0321532 0.622028 0.782334 -0.0411358 0.379055 0.924459 -0.0321935 0.598454 0.80051 
-0.0166551 0.361751 0.932126 -0.0403434 0.596653 0.801484 -0.0127214 0.396527 0.917935 
-0.0739915 0.64029 0.764561 -0.0244091 0.437717 0.898781 -0.163008 0.745555 0.646202 
-0.0770163 0.514933 0.853764 -0.272348 0.873783 0.402901 0.242643 0.461823 0.853137 
0.301656 0.46417 0.832796 0.398734 0.612654 0.682397 -0.177866 0.551111 0.815255 
-0.189303 0.549085 0.814045 -0.201749 0.575326 0.792652 -0.164106 0.542686 0.823748 
-0.234856 0.778712 0.581765 -0.305861 0.47058 0.827649 -0.42447 0.877664 0.222555 
0.442193 0.389884 0.807748 0.451054 0.376587 0.809155 0.476274 0.410928 0.777368 
-0.332714 0.451122 0.828125 -0.396839 0.241646 0.885509 -0.521706 0.575763 0.629539 
0.444253 0.268669 0.854667 0.584462 0.226409 0.779194 0.735758 0.40606 0.542011 
-0.411179 0.222276 0.884039 -0.695061 0.450944 0.559946 0.588338 0.218648 0.778493 
-0.438321 0.176665 0.881285 -0.456095 0.159878 0.875452 -0.474803 0.186466 0.860112 
0.586414 0.0775583 0.80629 -0.467609 0.0772799 0.880551 -0.860822 0.187722 0.473019 
0.570227 -0.00727607 0.821455 -0.462528 -0.0128288 0.886512 -0.80321 0.00490573 0.595676 
0.566326 -0.100272 0.818059 0.50792 -0.183139 0.841711 -0.602509 -0.186731 0.775961 
-0.563836 -0.269275 0.780756 -0.794707 -0.191339 0.576047 0.469984 -0.203893 0.858803 
0.526385 -0.202184 0.825858 0.305573 -0.209433 0.928851 -0.26639 -0.135787 0.954253 
-0.272678 -0.195005 0.942136 -0.548388 -0.358272 0.755587 0.656691 -0.420951 0.625745 
0.304927 -0.207852 0.929418 0.314774 -0.213686 0.924801 -0.0505337 -0.470345 0.881034 
-0.0024909 -0.43015 0.902754 0.077366 -0.489945 0.868313 -0.109229 -0.415353 0.903078 
-0.275145 -0.287432 0.91743 -0.194299 -0.287917 0.937737 -0.351409 -0.336928 0.873494 
-0.610272 -0.577169 0.542627 0.250906 -0.485659 0.837366 0.443631 -0.533763 0.719923 
0.132543 -0.565025 0.814358 -0.0590355 -0.487648 0.871042 -0.0699871 -0.534692 0.842144 
-0.0514904 -0.48672 0.872039 -0.00118167 -0.484912 0.874562 0.0732587 -0.506727 0.858988 
0.0768546 -0.512172 0.855437 0.0637974 -0.566981 0.821256 -0.0333203 -0.517672 0.85493 
0.0156746 -0.435174 0.90021 0.0127176 -0.504605 0.863257 -0.144908 -0.41969 0.896026 
-0.146661 -0.426492 0.892522 -0.129839 -0.556963 0.820326 -0.274733 -0.592684 0.757131 
-0.515783 -0.752616 0.409313 0.0324307 -0.983905 0.175724 0.0172189 -0.970416 0.240824 
0.00502384 -0.960411 0.278542 -0.070115 -0.970727 0.229722 0.432019 0.868569 0.242789 
0.266556 0.889331 0.371535 0.126378 0.914047 0.385417 -0.0172292 0.868483 0.495419 
-0.0528131 0.837763 0.543473 -0.129734 0.833839 0.536546 -0.226916 0.850197 0.475053 
-0.289102 0.889713 0.353313 0.454034 0.859733 0.233906 0.544021 0.815924 0.195729 
-0.290883 0.897122 0.332504 -0.304459 0.917744 0.25505 -0.320696 0.924715 0.205078 
-0.42332 0.8984 0.116951 0.627326 0.75697 0.182918 0.67236 0.718049 0.179825 
-0.444677 0.887258 0.122617 -0.454993 0.886125 -0.088109 -0.596131 0.786101 0.163319 
0.762277 0.623457 0.173882 0.817679 0.540454 0.198269 -0.666348 0.72462 0.175804 
-0.755032 0.626498 0.193458 0.874873 0.427501 0.227684 -0.843329 0.478403 0.244799 
0.91704 0.270324 0.293194 -0.886153 0.33962 0.315265 -0.889157 0.260019 0.376549 
0.943475 0.132719 0.303713 -0.891202 0.20138 0.406455 0.938187 0.0105624 0.345969 
-0.900709 0.026471 0.433616 0.937427 -0.0806326 0.338716 -0.849942 -0.188162 0.492132 
-0.82498 -0.288221 0.486144 0.913789 -0.217695 0.342926 -0.816269 -0.3415 0.465921 
0.868397 -0.38188 0.316314 0.731862 -0.600395 0.322342 -0.69212 -0.613175 0.380769 
-0.641092 -0.674501 0.366128 0.67448 -0.665067 0.320565 0.411753 -0.857277 0.309089 
0.206847 -0.920755 0.330793 -0.0124495 -0.946219 0.323288 -0.0387098 -0.959989 0.27735 
-0.0208071 -0.948984 0.314637 0.0384639 -0.958764 0.281587 0.0626628 -0.981326 0.181859 
-0.218506 -0.939177 0.264955 -0.355457 -0.900929 0.248952 -0.549581 -0.761061 0.344597 
-0.530551 -0.768147 0.358422 0.0422834 -0.985173 0.166273 0.0332828 -0.986595 0.15976 
0.0333407 -0.992619 0.116602 0.0193191 -0.977297 0.210992 0.0249824 -0.995128 0.0953775 
0.00119982 -0.973531 0.228553 0.00654128 -0.999793 0.0192924 -0.112128 -0.971993 0.206534 
-0.0700167 -0.979638 0.18817 -0.0654367 -0.997178 0.0367962 0.531017 0.786948 -0.31422 
0.343064 0.903502 -0.256887 0.20666 0.956754 -0.204728 0.0942624 0.991922 -0.084888 
-0.0269962 0.999575 -0.0110248 -0.161674 0.986844 0.00045222 -0.341154 0.939242 -0.0379383 
-0.436763 0.889654 -0.133241 0.535792 0.782241 -0.317845 0.541486 0.74799 -0.383803 
0.529602 0.774288 -0.34641 0.317988 0.670603 -0.670206 -0.433125 0.883393 -0.17894 
-0.447645 0.81296 -0.372438 -0.42037 0.862781 -0.280887 -0.364966 0.849111 -0.381851 
0.584635 0.713916 -0.385392 0.641984 0.659664 -0.390768 0.481084 0.641133 -0.597919 
0.356513 0.502645 -0.787557 -0.363784 0.581697 -0.727523 -0.425558 0.795314 -0.431714 
-0.348499 0.743609 -0.570608 -0.452256 0.764579 -0.459221 -0.540697 0.715419 -0.442518 
0.696623 0.596357 -0.398841 0.74707 0.547944 -0.376355 0.56062 0.52184 -0.642952 
0.367982 0.396481 -0.841066 -0.32579 0.512479 -0.794497 -0.600187 0.681554 -0.418641 
-0.499995 0.64512 -0.577776 -0.658308 0.630103 -0.411826 0.789779 0.508994 -0.342306 
0.70241 0.531755 -0.473134 0.446689 0.31129 -0.838789 -0.689876 0.5895 -0.420193 
-0.616696 0.549397 -0.563781 0.908151 0.281345 -0.310011 0.567197 0.284271 -0.772967 
-0.850577 0.396421 -0.345499 -0.550313 0.425379 -0.718476 -0.885768 0.324722 -0.331618 
0.92861 0.145684 -0.341262 -0.917147 0.254985 -0.306306 -0.87061 0.245603 -0.426283 
0.943396 0.0265626 -0.330604 -0.946365 0.0373009 -0.320938 -0.853604 0.034938 -0.51975 
0.938706 -0.0932107 -0.331879 -0.941472 -0.159361 -0.297043 -0.865272 -0.383337 -0.323044 
-0.86803 -0.167065 -0.46756 0.898918 -0.234298 -0.370204 0.555163 -0.254 -0.792009 
-0.864325 -0.385383 -0.323144 -0.459334 -0.432261 -0.775991 0.867998 -0.40915 -0.281381 
0.717158 -0.573279 -0.396277 0.626873 -0.439266 -0.643487 -0.739054 -0.615361 -0.274098 
-0.675164 -0.662198 -0.325033 -0.648107 -0.598519 -0.470884 0.644608 -0.65883 -0.387845 
0.440524 -0.823414 -0.35767 0.465274 -0.666732 -0.582228 0.235837 -0.906375 -0.350521 
-0.00332816 -0.95923 -0.282606 -0.038806 -0.974372 -0.221571 -0.065009 -0.964491 -0.255991 
-0.0638113 -0.937288 -0.342666 -0.12 -0.49634 -0.859794 -0.0282313 -0.889606 -0.455855 
-0.077066 -0.510025 -0.8567 0.0261042 -0.865066 -0.500979 0.0135842 -0.537371 -0.843236 
0.0496786 -0.888579 -0.456026 0.0491274 -0.519183 -0.85325 0.0148822 -0.908397 -0.417844 
-0.00498633 -0.504416 -0.863446 -0.0485507 -0.895768 -0.441862 0.00701622 -0.564838 -0.825172 
-0.204318 -0.871757 -0.445302 -0.0612532 -0.557864 -0.827669 -0.316523 -0.890787 -0.326056 
-0.356956 -0.686581 -0.633395 -0.375358 -0.851066 -0.367142 -0.356561 -0.860393 -0.364127 
-0.355761 -0.846909 -0.395195 0.254019 0.564638 -0.785275 0.175831 0.620229 -0.76446 
0.053375 0.709526 -0.702654 -0.148588 0.735291 -0.661264 -0.325122 0.671495 -0.665875 
0.2566 0.557677 -0.7894 0.275359 0.492913 -0.825357 0.249616 0.551924 -0.795658 
0.148004 0.460177 -0.875404 0.0770718 0.403109 -0.911901 -0.108241 0.466992 -0.877612 
-0.354485 0.64631 -0.67574 -0.304563 0.610836 -0.730835 -0.422092 0.563207 -0.710378 
0.320825 0.448448 -0.834246 0.322122 0.445653 -0.835243 0.24016 0.328215 -0.913564 
0.13805 0.22956 -0.963454 0.0597449 0.168526 -0.983885 0.0630526 0.122503 -0.990463 
0.0211567 0.17018 -0.985186 -0.150606 0.285547 -0.946457 -0.369116 0.488316 -0.79076 
-0.375475 0.399482 -0.836321 -0.32835 0.464217 -0.822611 -0.219093 0.413207 -0.883888 
0.363341 0.392648 -0.844874 0.364127 0.391764 -0.844945 0.217733 0.283482 -0.933933 
0.119681 0.167127 -0.978645 0.0386179 0.0633656 -0.997243 0.0180386 -0.00907803 -0.999796 
0.0702631 -0.0436895 -0.996571 0.0886706 -0.0123721 -0.995984 -0.0363731 0.0959366 -0.994723 
-0.234882 0.203181 -0.950551 -0.267287 0.307017 -0.913399 -0.240034 0.422865 -0.873824 
-0.210867 0.392381 -0.895306 -0.262895 0.418716 -0.869231 -0.368186 0.385188 -0.846209 
0.446324 0.311115 -0.839048 0.446316 0.311026 -0.839086 0.242904 0.247693 -0.937894 
0.117685 0.175644 -0.977394 0.00894621 0.0708515 -0.997447 -0.0421326 -0.0237013 -0.998831 
-0.0448883 -0.0825738 -0.995574 0.0559149 -0.0270909 -0.998068 0.168037 -0.075328 -0.982898 
0.0485764 -0.00252306 -0.998816 -0.145712 0.0471727 -0.988202 -0.186041 0.147895 -0.971347 
-0.161795 0.241619 -0.956788 -0.185823 0.292327 -0.938091 -0.376595 0.372712 -0.848093 
-0.362989 0.367721 -0.856166 0.509354 0.277504 -0.814586 0.553536 0.238162 -0.798046 
0.332673 0.220428 -0.916919 0.158629 0.170662 -0.972477 0.0395561 0.094517 -0.994737 
-0.0779265 0.0516363 -0.995621 -0.114702 -0.0403718 -0.992579 0.00781291 -0.101962 -0.994758 
0.0945672 0.178515 -0.979382 0.101162 -0.0830318 -0.991399 0.0821902 -0.025641 -0.996287 
-0.0746946 -0.0317166 -0.996702 -0.0850095 0.0567885 -0.994761 -0.0999553 0.134799 -0.985818 
-0.190865 0.182911 -0.964424 -0.400103 0.315426 -0.860479 -0.271673 0.219675 -0.936983 
-0.483371 0.355727 -0.799882 0.613618 0.123423 -0.779897 0.548555 0.1144 -0.828251 
0.294665 0.0559839 -0.953959 0.156878 0.0524461 -0.986225 -0.00480569 0.0158461 -0.999863 
-0.121449 -0.00596264 -0.99258 -0.199309 -0.0327504 -0.979389 0.132915 0.02823 -0.990725 
0.0865825 -0.0172848 -0.996095 -0.00265708 -0.062418 -0.998047 0.100001 -0.0950445 -0.990437 
-0.0647292 -0.163803 -0.984367 -0.0200018 -0.0420062 -0.998917 -0.0310208 0.0123253 -0.999443 
-0.0782291 0.0842583 -0.993368 -0.212547 0.162237 -0.963589 -0.556188 0.228737 -0.798958 
-0.42004 0.183886 -0.88868 0.609193 0.0194895 -0.792782 0.518003 0.0161568 -0.855226 
0.263622 -0.00102388 -0.964625 0.130961 -0.0724304 -0.988738 -0.0180642 -0.0782852 -0.996767 
-0.124166 -0.0689423 -0.989863 -0.0733733 -0.0418427 -0.996426 0.0549361 0.0232301 -0.99822 
-0.017252 -0.239144 -0.970831 -0.0167534 0.0156494 -0.999737 -0.0415247 -0.284452 -0.95779 
0.00844611 -0.234242 -0.972142 0.0998768 -0.126398 -0.986939 0.0280721 -0.0568637 -0.997987 
-0.0468658 -0.0373836 -0.998201 -0.190203 -0.0260519 -0.981399 -0.57863 0.0268223 -0.815149 
-0.388064 0.0133283 -0.921536 0.584143 -0.12494 -0.801977 0.52382 -0.2192 -0.823143 
0.499803 -0.123387 -0.857306 0.240666 -0.109359 -0.964428 0.0687383 -0.119805 -0.990415 
-0.000580226 -0.0905201 -0.995894 -0.0947022 -0.0921034 -0.991236 -0.101398 -0.0196776 -0.994651 
-0.0352452 -0.0919087 -0.995143 0.0634295 -0.193211 -0.979105 -0.0413856 -0.129563 -0.990707 
-0.139776 -0.120507 -0.982823 0.0666821 -0.0874974 -0.99393 0.154958 -0.10135 -0.982709 
0.050526 -0.120668 -0.991406 -0.0496442 -0.0679649 -0.996452 -0.15642 -0.187751 -0.969682 
-0.550981 -0.192014 -0.812127 -0.43937 -0.395626 -0.806495 -0.364085 -0.130013 -0.922247 
0.468753 -0.217108 -0.856233 0.285482 -0.125319 -0.950155 0.130665 -0.103898 -0.985968 
0.0118108 -0.146171 -0.989189 -0.0522093 -0.0995969 -0.993657 -0.0815082 -0.0545355 -0.99518 
-0.118756 -0.0802642 -0.989674 -0.037851 -0.135071 -0.990113 0.0362051 -0.194638 -0.980207 
0.00193298 -0.0662227 -0.997803 0.0328905 -0.0246172 -0.999156 0.0637713 -0.0903694 -0.993864 
0.0638725 -0.174605 -0.982565 -0.114328 -0.248312 -0.96191 -0.372768 -0.337383 -0.864417 
-0.224109 -0.174901 -0.958741 0.395395 -0.331054 -0.856777 0.400895 -0.450346 -0.797792 
0.278401 -0.205228 -0.938283 0.0731618 -0.239783 -0.968066 0.0129069 -0.236056 -0.971654 
0.00121562 -0.183611 -0.982998 -0.0779835 -0.210232 -0.974536 -0.125588 -0.368257 -0.921203 
-0.129583 -0.20642 -0.969845 -0.0596543 -0.259911 -0.963788 -0.0549622 -0.212377 -0.975641 
0.0359356 -0.30576 -0.95143 0.0430938 -0.245488 -0.968441 0.0347628 -0.333723 -0.94203 
0.035145 -0.237303 -0.9708 0.031465 -0.324678 -0.945301 0.0531875 -0.206371 -0.977027 
0.021408 -0.402517 -0.915162 0.00383704 -0.250643 -0.968072 -0.0771334 -0.415159 -0.906473 
-0.123901 -0.259497 -0.957763 -0.0444072 -0.356377 -0.933286 -0.0399319 -0.354164 -0.93433 
-0.259135 -0.375174 -0.889997 -0.251476 -0.377236 -0.891321 -0.230731 -0.348319 -0.908536 
0.206739 -0.529247 -0.822895 0.144538 -0.521889 -0.840679 0.127344 -0.483543 -0.866008 
-0.0135096 -0.470011 -0.882557 -0.0137272 -0.462417 -0.886556 -0.00412982 -0.488426 -0.872596 
-0.00829548 -0.464814 -0.885369 -0.0746253 -0.448796 -0.890513 -0.07443 -0.449125 -0.890363 
-0.0744376 -0.448732 -0.890561 
