# vtk DataFile Version 4.2
vtk output
ASCII
DATASET POLYDATA
POINTS 572 float
21.5171 18.6464 -17.9752 28.9457 18.6464 -17.9856 -37.9119 -33.3539 -10.6512 
-30.4833 -33.3539 -10.6367 6.65982 -33.3539 -11.9619 14.0884 -33.3539 -13.0808 
21.5171 -33.3539 -11.9977 -52.7691 -25.9253 -12.4549 -45.3405 -25.9253 -14.8016 
-37.9119 -25.9253 -15.4473 -30.4833 -25.9253 -15.6027 -23.0547 -25.9253 -14.2282 
-0.7688 -25.9253 -11.7344 6.65982 -25.9253 -14.269 14.0884 -25.9253 -15.0415 
21.5171 -25.9253 -14.5487 28.9457 -25.9253 -13.618 36.3743 -25.9253 -12.4878 
43.8029 -25.9253 -12.0513 -52.7691 -18.4967 -13.0501 -45.3405 -18.4967 -15.5781 
-37.9119 -18.4967 -17.3871 -30.4833 -18.4967 -16.3454 -23.0547 -18.4967 -16.07 
-15.626 -18.4967 -13.5434 -8.19742 -18.4967 -11.9377 -0.7688 -18.4967 -13.0475 
6.65982 -18.4967 -14.1646 14.0884 -18.4967 -15.5064 21.5171 -18.4967 -15.8407 
28.9457 -18.4967 -15.4167 36.3743 -18.4967 -14.8348 43.8029 -18.4967 -14.1442 
51.2315 -18.4967 -12.8187 -60.1977 -11.0681 -11.2529 -52.7691 -11.0681 -15.362 
-45.3405 -11.0681 -16.1135 -37.9119 -11.0681 -17.6351 -30.4833 -11.0681 -16.5706 
-23.0547 -11.0681 -15.5023 -15.626 -11.0681 -13.4393 -8.19742 -11.0681 -11.9668 
-0.7688 -11.0681 -13.9199 6.65982 -11.0681 -13.4372 14.0884 -11.0681 -15.6808 
21.5171 -11.0681 -16.3837 28.9457 -11.0681 -16.4659 36.3743 -11.0681 -16.1101 
43.8029 -11.0681 -15.1621 51.2315 -11.0681 -13.5332 58.6601 -11.0681 -11.0897 
-60.1977 -3.63945 -11.6364 -52.7691 -3.63945 -14.701 -45.3405 -3.63945 -16.0208 
-37.9119 -3.63945 -16.666 -30.4833 -3.63945 -16.7614 -23.0547 -3.63945 -15.6981 
-15.626 -3.63945 -14.2511 -8.19742 -3.63945 -13.3016 -0.7688 -3.63945 -13.1649 
6.65982 -3.63945 -16.0747 14.0884 -3.63945 -17.1515 21.5171 -3.63945 -16.7103 
28.9457 -3.63945 -16.7443 36.3743 -3.63945 -16.6406 43.8029 -3.63945 -15.9182 
51.2315 -3.63945 -14.4555 58.6601 -3.63945 -11.9165 -60.1977 3.78917 -10.9458 
-52.7691 3.78917 -14.2826 -45.3405 3.78917 -15.8744 -37.9119 3.78917 -16.7974 
-30.4833 3.78917 -17.1071 -23.0547 3.78917 -16.4512 -15.626 3.78917 -16.1187 
-8.19742 3.78917 -15.5804 -0.7688 3.78917 -13.6718 6.65982 3.78917 -15.6354 
14.0884 3.78917 -16.4092 21.5171 3.78917 -16.9832 28.9457 3.78917 -17.2949 
36.3743 3.78917 -17.0889 43.8029 3.78917 -16.1202 51.2315 3.78917 -14.3195 
58.6601 3.78917 -11.1172 -52.7691 11.2178 -12.6791 -45.3405 11.2178 -15.5247 
-37.9119 11.2178 -17.3611 -30.4833 11.2178 -17.2618 -23.0547 11.2178 -17.217 
-15.626 11.2178 -16.8509 -8.19742 11.2178 -16.4571 -0.7688 11.2178 -15.4425 
6.65982 11.2178 -15.0892 14.0884 11.2178 -16.371 21.5171 17.6636 -17.8936 
21.5171 11.2178 -17.3474 28.9457 16.1429 -17.8936 28.9457 11.2178 -17.7184 
36.3743 11.2178 -17.1338 43.8029 11.2178 -15.6094 51.2315 11.2178 -13.027 
-52.7691 18.6464 -10.5404 -45.3405 18.6464 -14.0542 -37.9119 18.6464 -15.6746 
-30.4833 18.6464 -16.5975 -23.0547 18.6464 -17.3531 -15.626 18.6464 -17.4575 
-8.19742 18.6464 -16.5808 -0.7688 18.6464 -15.0358 6.65982 18.6464 -15.8572 
20.8157 18.6464 -17.8936 14.0884 18.6464 -17.0878 21.5171 19.4554 -17.8936 
29.6717 18.6464 -17.8936 28.9457 20.2724 -17.8936 36.3743 18.6464 -17.008 
43.8029 18.6464 -14.6517 51.2315 18.6464 -12.0146 -37.9119 26.075 -12.8584 
-30.4833 26.075 -15.4293 -23.0547 26.075 -16.8405 -15.626 26.075 -17.4674 
-8.19742 26.075 -15.8012 -0.7688 26.075 -14.7942 6.65982 26.075 -15.5725 
14.0884 26.075 -16.6763 21.5171 26.075 -17.1728 28.9457 26.075 -17.5094 
36.3743 26.075 -14.9791 43.8029 26.075 -11.953 -23.0547 33.5036 -13.2461 
-15.626 33.5036 -14.3184 -8.19742 33.5036 -13.3115 -0.7688 33.5036 -13.4604 
6.65982 33.5036 -13.9121 14.0884 33.5036 -14.4082 21.5171 33.5036 -13.996 
28.9457 33.5036 -12.5919 36.3743 33.5036 -10.6398 -37.9119 -33.5043 -10.465 
-30.4833 -33.5015 -10.465 6.65982 -35.1597 -10.465 14.0884 -36.6213 -10.465 
14.0884 -40.7825 -3.17808 21.5171 -35.2905 -10.465 -52.7691 -28.5537 -10.465 
-41.1235 -33.3539 -10.465 -45.3405 -33.0041 -10.465 -45.3405 -33.3539 -9.83079 
-30.0258 -33.3539 -10.465 -23.0547 -30.1247 -10.465 4.33566 -33.3539 -10.465 
-0.7688 -28.1878 -10.465 -0.7688 -33.3539 -4.61991 25.8497 -33.3539 -10.465 
28.9457 -31.4431 -10.465 28.9457 -33.3539 -8.83057 36.3743 -29.1475 -10.465 
36.3743 -33.3539 -6.33527 43.8029 -27.9458 -10.465 -55.2679 -25.9253 -10.465 
-60.1977 -25.9253 -3.43803 -16.5565 -25.9253 -10.465 -15.626 -25.0334 -10.465 
-15.626 -25.9253 -9.61561 -3.63825 -25.9253 -10.465 -8.19742 -21.797 -10.465 
-8.19742 -25.9253 -6.84641 47.5428 -25.9253 -10.465 51.2315 -23.073 -10.465 
51.2315 -25.9253 -7.96565 -58.3272 -18.4967 -10.465 -60.1977 -14.9579 -10.465 
-60.1977 -18.4967 -9.28931 56.3652 -18.4967 -10.465 58.6601 -13.653 -10.465 
58.6601 -18.4967 -8.9982 -61.182 -11.0681 -10.465 59.586 -11.0681 -10.465 
66.0888 -11.0681 -4.37737 -61.7148 -3.63945 -10.465 60.6099 -3.63945 -10.465 
66.0888 -3.63945 -4.57124 -60.8009 3.78917 -10.465 -60.1977 5.54008 -10.465 
59.4525 3.78917 -10.465 58.6601 6.01457 -10.465 -56.7857 11.2178 -10.465 
-60.1977 11.2178 -8.09094 55.7308 11.2178 -10.465 58.6601 11.2178 -8.08267 
-52.8692 18.6464 -10.465 -52.7691 18.7553 -10.465 -45.3405 24.7173 -10.465 
53.1054 18.6464 -10.465 51.2315 21.2336 -10.465 -43.643 26.075 -10.465 
-45.3405 26.075 -8.92003 -37.9119 29.1765 -10.465 -30.4833 33.489 -10.465 
45.8268 26.075 -10.465 43.8029 27.946 -10.465 51.2315 26.075 -5.08955 
-30.4549 33.5036 -10.465 -30.4833 33.5036 -10.4285 -23.0547 36.0764 -10.465 
-15.626 37.1738 -10.465 -8.19742 37.0861 -10.465 -0.7688 37.002 -10.465 
6.65982 37.4216 -10.465 14.0884 37.5566 -10.465 21.5171 37.152 -10.465 
28.9457 35.5351 -10.465 36.6765 33.5036 -10.465 36.3743 33.6533 -10.465 
43.8029 33.5036 -3.08646 14.0884 -40.8368 -3.03638 -45.3405 -35.0931 -3.03638 
-37.9119 -35.5864 -3.03638 -30.4833 -34.3821 -3.03638 -0.7688 -34.5218 -3.03638 
13.7636 -40.7825 -3.03638 6.65982 -39.5107 -3.03638 14.3545 -40.7825 -3.03638 
14.0884 -40.7825 -2.77217 21.5171 -39.2513 -3.03638 28.9457 -37.0924 -3.03638 
36.3743 -35.1089 -3.03638 -60.1977 -26.2076 -3.03638 -50.5087 -33.3539 -3.03638 
-52.7691 -32.3776 -3.03638 -45.3405 -33.3539 2.67993 -25.9988 -33.3539 -3.03638 
-30.4833 -33.3539 1.19171 -23.0547 -32.6358 -3.03638 -15.626 -29.1139 -3.03638 
-1.6862 -33.3539 -3.03638 -8.19742 -27.9748 -3.03638 43.4291 -33.3539 -3.03638 
43.8029 -33.2287 -3.03638 43.8029 -33.3539 -2.48746 51.2315 -29.9426 -3.03638 
-60.4431 -25.9253 -3.03638 -60.1977 -25.9253 -0.517375 58.1636 -25.9253 -3.03638 
58.6601 -25.582 -3.03638 58.6601 -25.9253 -2.06201 -64.6083 -18.4967 -3.03638 
65.0033 -18.4967 -3.03638 66.0888 -15.1002 -3.03638 66.0888 -18.4967 0.984551 
-66.8584 -11.0681 -3.03638 67.1413 -11.0681 -3.03638 -67.2919 -3.63945 -3.03638 
-67.6264 -3.63945 0.604824 67.2523 -3.63945 -3.03638 66.0888 1.42724 -3.03638 
-66.3279 3.78917 -3.03638 65.4165 3.78917 -3.03638 66.0888 3.78917 2.11651 
-63.7389 11.2178 -3.03638 -60.1977 16.2308 -3.03638 62.264 11.2178 -3.03638 
58.6601 18.3822 -3.03638 -58.1442 18.6464 -3.03638 -52.7691 23.6044 -3.03638 
58.514 18.6464 -3.03638 -49.3251 26.075 -3.03638 -45.3405 29.1126 -3.03638 
-37.9119 32.4215 -3.03638 52.5861 26.075 -3.03638 51.2315 27.5073 -3.03638 
-35.2199 33.5036 -3.03638 -30.4833 35.2723 -3.03638 -23.0547 37.4894 -3.03638 
-15.626 38.8937 -3.03638 -8.19742 39.8381 -3.03638 -0.7688 40.5416 -3.03638 
6.65982 40.6091 -3.03638 14.0884 39.9903 -3.03638 21.5171 39.3879 -3.03638 
28.9457 38.3471 -3.03638 36.3743 36.4852 -3.03638 43.8378 33.5036 -3.03638 
43.8029 33.5292 -3.03638 43.8029 33.5036 -2.59981 -37.9119 -33.389 4.39224 
-0.7688 -33.4964 4.39224 6.65982 -37.9625 4.39224 14.0884 -38.9193 4.39224 
21.5171 -37.6547 4.39224 28.9457 -36.3898 4.39224 36.3743 -35.2541 4.39224 
43.8029 -34.5449 4.39224 -52.7691 -29.8982 4.39224 -38.3663 -33.3539 4.39224 
-45.3405 -32.6545 4.39224 -37.5945 -33.3539 4.39224 -37.9119 -33.3539 4.44504 
-30.4833 -32.3715 4.39224 -23.0547 -30.2295 4.39224 -15.626 -27.169 4.39224 
-0.903223 -33.3539 4.39224 -8.19742 -27.6722 4.39224 -0.7688 -33.3539 4.5776 
6.65982 -33.3539 9.83134 14.0884 -33.3539 10.3043 21.5171 -33.3539 9.48682 
28.9457 -33.3539 9.11338 36.3743 -33.3539 8.54397 46.9124 -33.3539 4.39224 
43.8029 -33.3539 6.98749 51.2315 -31.6996 4.39224 58.6601 -28.1149 4.39224 
-59.358 -25.9253 4.39224 -60.1977 -25.0943 4.39224 -52.7691 -25.9253 8.94307 
-45.3405 -25.9253 10.7967 -30.4833 -25.9253 11.7622 -23.0547 -25.9253 9.74269 
-15.626 -25.9253 6.63149 -8.19742 -25.9253 7.75098 60.7814 -25.9253 4.39224 
58.6601 -25.9253 7.83072 66.0888 -19.633 4.39224 -64.0746 -18.4967 4.39224 
-60.1977 -18.4967 9.39203 66.8037 -18.4967 4.39224 66.0888 -18.4967 5.81541 
-66.9909 -11.0681 4.39224 -67.6264 -6.19653 4.39224 68.8527 -11.0681 4.39224 
66.0888 -11.0681 9.3458 -67.9071 -3.63945 4.39224 -67.6264 -1.87353 4.39224 
-67.6264 -3.63945 4.89273 67.7254 -3.63945 4.39224 66.0888 -3.63945 7.59441 
-66.5085 3.78917 4.39224 66.3261 3.78917 4.39224 66.0888 4.27736 4.39224 
66.0888 3.78917 4.80429 -63.9198 11.2178 4.39224 -60.1977 16.2441 4.39224 
-60.1977 11.2178 10.439 62.3221 11.2178 4.39224 58.6601 17.9599 4.39224 
58.6601 11.2178 9.44003 -57.5282 18.6464 4.39224 -52.7691 22.7139 4.39224 
-52.7691 18.6464 11.7281 58.1452 18.6464 4.39224 -48.5731 26.075 4.39224 
-45.3405 28.4352 4.39224 -45.3405 26.075 8.32485 -37.9119 31.3962 4.39224 
43.8029 33.0256 4.39224 43.8029 26.075 11.3293 52.176 26.075 4.39224 
51.2315 27.0753 4.39224 51.2315 26.075 5.68303 -31.5875 33.5036 4.39224 
-30.4833 33.8365 4.39224 -30.4833 33.5036 5.16135 -23.0547 35.4025 4.39224 
-23.0547 33.5036 7.68053 -15.626 36.1712 4.39224 -15.626 33.5036 8.16266 
-8.19742 37.4178 4.39224 -8.19742 33.5036 9.23382 -0.7688 38.9467 4.39224 
-0.7688 33.5036 11.3999 6.65982 39.2721 4.39224 14.0884 38.4654 4.39224 
21.5171 37.9634 4.39224 21.5171 33.5036 10.9869 28.9457 37.3351 4.39224 
28.9457 33.5036 10.4959 42.8036 33.5036 4.39224 36.3743 35.7984 4.39224 
36.3743 33.5036 8.65879 -37.9119 -27.3665 11.8209 -0.7688 -26.6432 11.8209 
[...]
POINT_DATA 572
SCALARS ImageScalars float
LOOKUP_TABLE default
0 0 0 0 0 0 0 0 0 
0 0 0 0 0 0 0 0 0 
0 0 0 0 0 0 0 0 0 
0 0 0 0 0 0 0 0 0 
0 0 0 0 0 0 0 0 0 
0 0 0 0 0 0 0 0 0 
0 0 0 0 0 0 0 0 0 
0 0 0 0 0 0 0 0 0 
0 0 0 0 0 0 0 0 0 
0 0 0 0 0 0 0 0 0 
0 0 0 0 0 0 0 0 0 
0 0 0 0 0 0 0 0 0 
0 0 0 0 0 0 0 0 0 
0 0 0 0 0 0 0 0 0 
0 0 0 0 0 0 0 0 0 
0 0 0 0 0 0 0 0 0 
0 0 0 0 0 0 0 0 0 
0 0 0 0 0 0 0 0 0 
0 0 0 0 0 0 0 0 0 
0 0 0 0 0 0 0 0 0 
0 0 0 0 0 0 0 0 0 
0 0 0 0 0 0 0 0 0 
0 0 0 0 0 0 0 0 0 
0 0 0 0 0 0 0 0 0 
0 0 0 0 0 0 0 0 0 
0 0 0 0 0 0 0 0 0 
0 0 0 0 0 0 0 0 0 
0 0 0 0 0 0 0 0 0 
0 0 0 0 0 0 0 0 0 
0 0 0 0 0 0 0 0 0 
0 0 0 0 0 0 0 0 0 
0 0 0 0 0 0 0 0 0 
0 0 0 0 0 0 0 0 0 
0 0 0 0 0 0 0 0 0 
0 0 0 0 0 0 0 0 0 
0 0 0 0 0 0 0 0 0 
0 0 0 0 0 0 0 0 0 
0 0 0 0 0 0 0 0 0 
0 0 0 0 0 0 0 0 0 
0 0 0 0 0 0 0 0 0 
0 0 0 0 0 0 0 0 0 
0 0 0 0 0 0 0 0 0 
0 0 0 0 0 0 0 0 0 
0 0 0 0 0 0 0 0 0 
0 0 0 0 0 0 0 0 0 
0 0 0 0 0 0 0 0 0 
0 0 0 0 0 0 0 0 0 
0 0 0 0 0 0 0 0 0 
0 0 0 0 0 0 0 0 0 
0 0 0 0 0 0 0 0 0 
0 0 0 0 0 0 0 0 0 
0 0 0 0 0 0 0 0 0 
0 0 0 0 0 0 0 0 0 
0 0 0 0 0 0 0 0 0 
0 0 0 0 0 0 0 0 0 
0 0 0 0 0 0 0 0 0 
0 0 0 0 0 0 0 0 0 
0 0 0 0 0 0 0 0 0 
0 0 0 0 0 0 0 0 0 
0 0 0 0 0 0 0 0 0 
0 0 0 0 0 0 0 0 0 
0 0 0 0 0 0 0 0 0 
0 0 0 0 0 0 0 0 0 
0 0 0 0 0 
NORMALS Normals float
0.0593464 -0.00872194 0.998199 -0.0629169 -0.0103998 0.997965 0.0225023 0.851402 0.524031 
-0.167528 0.83294 0.527395 0.321948 0.504587 0.801088 -0.00592806 0.463924 0.885855 
-0.216317 0.537613 0.814972 0.480344 0.356106 0.801535 0.233027 0.369053 0.899721 
0.0408422 0.330913 0.942777 -0.066106 0.377207 0.923767 -0.311891 0.443627 0.84019 
0.423331 0.360093 0.831339 0.200027 0.11397 0.973139 0.0207416 0.145098 0.9892 
-0.087635 0.243141 0.966024 -0.127968 0.353229 0.926743 -0.105743 0.436246 0.893592 
-0.241302 0.492138 0.836405 0.361245 0.179708 0.91499 0.237147 0.0693583 0.968995 
0.0745337 0.17092 0.982462 -0.0846387 0.0575241 0.99475 -0.185788 0.0558868 0.980999 
-0.266883 0.163919 0.949686 -0.030574 0.210101 0.977201 0.151079 0.138247 0.978807 
0.16255 -0.0527757 0.985288 0.112851 0.0413304 0.992752 -0.00554718 0.120623 0.992683 
-0.0667955 0.177333 0.981881 -0.0801113 0.219963 0.972213 -0.148489 0.221845 0.963709 
-0.267747 0.298567 0.916062 0.559386 0.0937994 0.823583 0.35263 0.0968095 0.930742 
0.143543 0.0362069 0.988981 0.0286827 -0.0507904 0.998297 -0.139221 0.0275379 0.989878 
-0.206557 -0.0237915 0.978145 -0.233654 0.043733 0.971336 0.0287495 0.0763965 0.996663 
0.0996035 0.015071 0.994913 0.118701 0.112973 0.986482 0.190307 0.111266 0.975399 
0.0504283 0.0602453 0.996909 -0.0200748 0.0885895 0.995866 -0.0833948 0.113234 0.990062 
-0.165148 0.108264 0.980309 -0.285988 0.115663 0.951227 -0.475615 0.167314 0.863595 
0.544226 -0.0201524 0.838696 0.326405 -0.0654826 0.942959 0.121688 -0.0156982 0.992444 
0.0489704 -0.054407 0.997317 -0.0615087 0.0351676 0.997487 -0.163365 0.0644328 0.984459 
-0.149739 0.185563 0.971156 -0.0734222 0.255197 0.964097 0.188706 -0.0245493 0.981727 
0.256232 0.148577 0.955128 0.0340119 0.046031 0.998361 -0.0272365 0.0402572 0.998818 
-0.00470985 0.0556637 0.998438 -0.0543606 0.0673602 0.996247 -0.139702 0.0638278 0.988134 
-0.288994 0.0501931 0.956014 -0.504039 0.00481625 0.863668 0.549579 -0.163858 0.819215 
0.345545 -0.11995 0.930704 0.153636 -0.0358466 0.987477 0.0794408 0.0441858 0.99586 
-0.0234834 0.0343602 0.999134 -0.0646247 0.100072 0.992879 -0.0564579 0.163437 0.984937 
-0.143038 0.188914 0.97152 0.00413757 0.169979 0.985439 0.165293 -0.0665309 0.983998 
0.0889792 -0.0529704 0.994624 0.0581905 0.0427414 0.99739 0.00739841 0.065413 0.997831 
-0.0783618 0.0335838 0.996359 -0.174964 -0.0198563 0.984375 -0.332673 -0.0860986 0.939104 
-0.573629 -0.181776 0.798691 0.427209 -0.240012 0.871715 0.263317 -0.0964867 0.959872 
0.125745 -0.0624485 0.990095 -0.0093218 -0.0337912 0.999385 -0.0271763 0.060133 0.99782 
-0.0518917 0.0908702 0.99451 -0.0901759 0.0632564 0.993915 -0.0945292 0.0692218 0.993113 
0.0640774 0.0169063 0.997802 0.15086 0.0451486 0.987524 0.0632044 0.00094961 0.998 
0.0896387 0.0662671 0.993767 -0.0460866 0.00941338 0.998893 -0.0141901 0.0458466 0.998848 
-0.138693 -0.00493889 0.990323 -0.253121 -0.096373 0.962622 -0.39737 -0.15293 0.904826 
0.526657 -0.432159 0.732032 0.326741 -0.359713 0.873983 0.152841 -0.287239 0.945586 
0.107629 -0.112013 0.987861 0.056685 -0.0233329 0.998119 -0.0478847 0.0407646 0.998021 
-0.166818 -0.047913 0.984823 -0.0418799 -0.0418818 0.998244 0.137784 0.0336066 0.989892 
0.0669555 -0.0064477 0.997735 0.141391 0.0196605 0.989759 0.0598025 -0.0313842 0.997717 
-0.0782289 -0.0224796 0.996682 -0.0806471 -0.0738412 0.994004 -0.214465 -0.136554 0.967139 
-0.316525 -0.187827 0.929802 -0.534354 -0.325744 0.779972 0.340511 -0.501604 0.795264 
0.252539 -0.323491 0.911909 0.12422 -0.232585 0.964611 -0.0783762 -0.159535 0.984076 
-0.167172 -0.197542 0.965935 -0.0222961 -0.0860594 0.996041 0.130273 -0.109243 0.985441 
0.0998264 -0.142717 0.984716 0.0542715 -0.230775 0.971492 -0.13991 -0.296972 0.944581 
-0.285223 -0.34718 0.893372 -0.474456 -0.473257 0.74224 0.211782 -0.678743 0.703176 
-0.00570445 -0.61162 0.791131 -0.0465825 -0.533991 0.844206 0.0365017 -0.459862 0.88724 
0.0547667 -0.482115 0.874394 0.00455187 -0.553433 0.832881 -0.106354 -0.596361 0.79564 
-0.177027 -0.674694 0.716554 -0.335029 -0.741522 0.581293 0.0219996 0.857542 0.513944 
-0.169325 0.841969 0.512267 0.329516 0.623599 0.708903 0.00155705 0.682226 0.731139 
-0.0183072 0.995189 0.0962524 -0.225267 0.640279 0.734369 0.529495 0.547867 0.64767 
0.126563 0.822184 0.554973 0.262769 0.749235 0.607947 0.259748 0.796838 0.545509 
-0.186601 0.838918 0.511269 -0.418661 0.736976 0.53065 0.414116 0.561249 0.716595 
0.488026 0.457546 0.743291 0.743302 0.607262 0.280599 -0.245788 0.604152 0.758016 
-0.236869 0.569442 0.787165 -0.271842 0.708049 0.651743 -0.156846 0.571695 0.805335 
-0.25303 0.839218 0.481341 -0.221827 0.634202 0.740662 0.574105 0.440937 0.689912 
0.753579 0.612344 0.239068 -0.350164 0.663083 0.661594 -0.340731 0.621795 0.705176 
-0.346513 0.722555 0.5982 0.331989 0.487024 0.807831 0.0347109 0.387055 0.921403 
0.123874 0.833045 0.539157 -0.351161 0.51406 0.782578 -0.401017 0.418551 0.814862 
-0.443238 0.571474 0.690621 0.621424 0.300668 0.723485 0.623066 0.230351 0.747481 
0.707471 0.376776 0.597934 -0.496831 0.368462 0.785744 -0.51929 0.258201 0.814659 
-0.583308 0.403933 0.704692 0.589614 0.120094 0.798707 -0.503682 0.176915 0.84558 
-0.816317 0.140154 0.560342 0.605627 -0.0203605 0.795488 -0.571745 -0.0145337 0.820303 
-0.85934 -0.0997421 0.501583 0.571962 -0.180127 0.800258 0.582969 -0.227458 0.780006 
-0.600049 -0.196777 0.775384 -0.604507 -0.247465 0.757187 0.591609 -0.319147 0.740368 
0.708721 -0.43802 0.553039 -0.573905 -0.279627 0.769702 -0.722173 -0.380412 0.577714 
0.52958 -0.435644 0.727845 0.529439 -0.438283 0.726362 0.450699 -0.593285 0.666996 
-0.600634 -0.355315 0.716233 -0.569611 -0.413075 0.710571 0.44732 -0.60834 0.655612 
0.495549 -0.674372 0.547406 0.392743 -0.666434 0.633734 0.377783 -0.773798 0.508445 
-0.51558 -0.514155 0.685435 -0.492932 -0.544446 0.678673 -0.68311 -0.643708 0.344964 
0.377326 -0.774315 0.507998 0.377846 -0.775812 0.50532 0.233424 -0.836543 0.49569 
0.0684302 -0.838857 0.540033 -0.00974473 -0.736909 0.675921 0.0184809 -0.67125 0.741001 
0.0306413 -0.709363 0.704177 -0.0172701 -0.793052 0.608909 -0.129527 -0.803 0.581733 
-0.20182 -0.77464 0.599334 -0.342294 -0.743328 0.574716 -0.33507 -0.749089 0.571484 
-0.503204 -0.842275 0.193284 -0.0179929 0.995965 0.0879186 0.17234 0.984645 -0.0278087 
-0.0471583 0.998481 -0.0284879 -0.193636 0.979932 -0.0473123 0.74817 0.638719 0.179666 
-0.00635433 0.996007 0.0890502 0.302606 0.946341 0.113442 -0.0260952 0.995713 0.0887367 
-0.0185309 0.997231 0.0720242 -0.262146 0.958822 0.109272 -0.280788 0.941599 0.185876 
-0.246097 0.933233 0.261748 0.751533 0.623531 0.215421 0.421205 0.906678 0.0228202 
0.544566 0.837064 0.0526449 0.200763 0.920662 -0.334776 -0.284884 0.957863 -0.0366053 
-0.195236 0.933416 -0.301028 -0.34476 0.938571 -0.0150027 -0.287595 0.95502 0.072296 
0.73902 0.648308 0.183158 0.182837 0.961874 0.203393 -0.314827 0.863681 0.393624 
-0.318493 0.85913 0.400571 -0.315868 0.876556 0.363149 -0.387035 0.845357 0.368205 
0.759681 0.613402 0.215922 0.752231 0.658126 0.0319 -0.557973 0.682196 0.47252 
-0.571365 0.669157 0.475154 -0.59076 0.698334 0.404144 0.871966 0.4146 0.260352 
-0.784964 0.406823 0.467253 -0.829729 0.288564 0.477788 -0.888232 0.437625 0.139746 
0.940952 0.149596 0.303696 -0.867892 0.136666 0.477583 0.933852 -0.0331755 0.356117 
0.997791 -0.0303468 0.0591008 -0.915871 -0.112263 0.385457 -0.888408 -0.242116 0.390014 
0.924984 -0.218922 0.310609 -0.879008 -0.294504 0.374984 -0.93912 -0.339885 -0.0503186 
0.838976 -0.45187 0.303206 0.766279 -0.585367 0.264882 -0.867913 -0.407016 0.284719 
-0.813552 -0.514504 0.270958 0.738794 -0.637084 0.219791 0.612259 -0.772753 0.167309 
-0.811693 -0.519099 0.26775 0.556613 -0.814928 0.161476 0.506338 -0.847464 0.159457 
0.380766 -0.919776 0.0950266 -0.722464 -0.65537 0.22031 -0.695973 -0.684997 0.215405 
0.347953 -0.935669 0.0587588 0.311887 -0.950064 0.0102003 0.228255 -0.97238 -0.0487589 
0.160571 -0.984743 -0.0670706 0.1112 -0.993791 -0.0038334 0.0518166 -0.996445 0.0664313 
-0.0369946 -0.99699 0.0681305 -0.0821849 -0.996182 0.0294461 -0.118505 -0.992517 0.0294216 
-0.171645 -0.981658 0.0829777 -0.306287 -0.943788 0.124309 -0.50368 -0.842668 0.190308 
-0.502899 -0.843103 0.190445 -0.505937 -0.846876 0.163795 -0.0161505 0.874445 -0.484855 
0.601943 0.739541 -0.301235 0.267717 0.870361 -0.413278 -0.0192664 0.886721 -0.461903 
-0.157118 0.888503 -0.431134 -0.148418 0.939011 -0.31021 -0.121756 0.969892 -0.210913 
-0.23662 0.961802 -0.137651 0.400726 0.782586 -0.476422 -0.00351133 0.875936 -0.482415 
0.194702 0.869131 -0.454646 -0.0234447 0.873778 -0.485759 -0.0170958 0.873712 -0.486143 
-0.180611 0.845171 -0.503056 -0.298545 0.843129 -0.447218 -0.139387 0.913434 -0.382373 
0.600744 0.741224 -0.299489 0.359328 0.897284 -0.256446 0.600769 0.737036 -0.309603 
0.218684 0.624973 -0.74939 -0.0173074 0.591423 -0.806176 -0.0593976 0.701917 -0.709777 
-0.0379007 0.808126 -0.587788 -0.0751065 0.8994 -0.430626 -0.278533 0.952162 -0.125725 
-0.233871 0.916811 -0.32367 -0.34367 0.932095 -0.114413 -0.615832 0.781676 -0.0986547 
0.639063 0.68016 -0.35914 0.679595 0.646687 -0.346333 0.327109 0.676096 -0.660222 
0.212963 0.574803 -0.790094 -0.161214 0.660377 -0.733425 -0.202338 0.72257 -0.661023 
-0.103481 0.872699 -0.477167 0.28981 0.842762 -0.453611 -0.684683 0.721453 -0.103507 
-0.604567 0.701242 -0.377835 -0.870206 0.474187 -0.133745 0.82879 0.43521 -0.351708 
0.623392 0.440537 -0.645995 -0.894986 0.424877 -0.135937 -0.879363 0.424035 -0.216599 
0.935221 0.228962 -0.270069 0.963321 0.0636355 -0.260699 -0.987514 0.0634102 -0.144208 
-0.805434 0.0624978 -0.589381 0.966685 -0.0247864 -0.254765 0.962112 -0.0842246 -0.259318 
0.95932 -0.0256819 -0.28115 -0.962725 -0.170775 -0.209753 -0.902173 -0.189251 -0.387643 
0.925141 -0.265468 -0.27137 -0.912293 -0.336409 -0.233561 -0.907359 -0.3479 -0.235937 
-0.905279 -0.339445 -0.255434 0.853855 -0.454392 -0.253889 0.736927 -0.622127 -0.26438 
0.621488 -0.440542 -0.647824 -0.837246 -0.469674 -0.280044 -0.771277 -0.550065 -0.320251 
-0.655568 -0.398975 -0.641131 0.677277 -0.686253 -0.265241 0.600854 -0.753979 -0.2655 
0.52667 -0.524322 -0.669108 -0.763669 -0.559456 -0.322208 0.53737 -0.799265 -0.269088 
0.479946 -0.831966 -0.27836 0.468046 -0.739909 -0.483185 0.32582 -0.898395 -0.294495 
-0.499377 -0.807883 -0.312964 -0.441495 -0.508361 -0.739359 -0.705142 -0.637611 -0.310205 
-0.687143 -0.658599 -0.306727 -0.66957 -0.631937 -0.390296 0.248165 -0.923918 -0.291187 
0.237468 -0.925921 -0.293733 0.232668 -0.917803 -0.32172 0.144129 -0.907717 -0.394052 
0.0906552 -0.848692 -0.521061 0.122137 -0.868543 -0.480329 0.0683367 -0.781798 -0.619776 
0.170427 -0.855697 -0.488608 0.149426 -0.691309 -0.706939 0.113252 -0.904803 -0.410494 
0.159331 -0.633524 -0.75714 -0.0317095 -0.930292 -0.365446 -0.0825818 -0.926391 -0.367396 
-0.0776645 -0.927444 -0.365808 -0.0594805 -0.688806 -0.722502 -0.131799 -0.944883 -0.299708 
-0.0862687 -0.680078 -0.728047 -0.471653 -0.827947 -0.303394 -0.268513 -0.916523 -0.296456 
-0.265143 -0.810807 -0.521815 0.0272665 0.665593 -0.745817 0.276726 0.485969 -0.829009 
0.152003 0.487773 -0.859635 0.00558509 0.497384 -0.867512 -0.00610964 0.560212 -0.828327 
0.0157259 0.638194 -0.769715 -0.0274243 0.731299 -0.681505 -0.176754 0.701648 -0.690252 
-0.302265 0.666794 -0.681191 0.327918 0.49864 -0.802389 0.152659 0.585942 -0.795844 
0.219271 0.540961 -0.811961 -0.154607 0.658642 -0.736402 0.0475279 0.595405 -0.802019 
-0.160485 0.658044 -0.735678 -0.166152 0.649167 -0.742277 -0.0602325 0.665159 -0.744269 
0.250932 0.515047 -0.819609 0.141718 0.613047 -0.777232 0.251416 0.461709 -0.850656 
0.114797 0.388165 -0.914412 0.0524839 0.389511 -0.919525 0.0535731 0.414869 -0.908303 
0.0344905 0.445093 -0.89482 0.0300829 0.467575 -0.883441 -0.110483 0.514213 -0.850517 
-0.37408 0.616244 -0.693042 -0.318537 0.59807 -0.735422 -0.50838 0.482261 -0.713424 
0.439766 0.426359 -0.790458 0.568902 0.310009 -0.761738 0.356765 0.422404 -0.833243 
0.177706 0.427463 -0.886395 0.0553421 0.400559 -0.914598 -0.0494238 0.44083 -0.896229 
-0.132173 0.487246 -0.863204 -0.0936394 0.523055 -0.847139 0.0356377 0.402474 -0.914738 
0.158308 0.282721 -0.946048 0.107857 0.362761 -0.92562 0.00703091 0.231945 -0.972704 
0.0660841 0.200879 -0.977385 0.0704629 0.201326 -0.976987 -0.00603804 0.22851 -0.973523 
-0.0211523 0.180542 -0.98334 -0.227735 0.199797 -0.953005 -0.659741 0.315267 -0.682164 
-0.46485 0.281091 -0.839585 0.649604 0.187091 -0.736893 0.561001 0.174232 -0.809272 
0.329809 0.182545 -0.926231 0.119242 0.241131 -0.963139 0.0535973 0.208613 -0.976529 
-0.0309479 0.21157 -0.976873 -0.0987348 0.224134 -0.969544 -0.15801 0.256749 -0.953474 
-0.0558383 0.244727 -0.967983 0.207831 0.0654786 -0.975971 -0.104517 0.152169 -0.982813 
0.0376688 0.0969719 -0.994574 0.0863881 0.0681466 -0.993928 0.0434953 0.0719306 -0.996461 
-0.130811 0.0718482 -0.988801 -0.258897 -0.0322738 -0.965366 -0.593198 0.00364245 -0.805048 
-0.454277 -0.0426921 -0.889837 0.657792 -0.0309775 -0.752563 0.602679 -0.0309537 -0.797383 
0.371161 -0.0557459 -0.926894 -0.0959836 0.0258132 -0.995048 -0.17875 0.0893817 -0.979826 
-0.0251333 0.0184243 -0.999514 0.203099 -0.127141 -0.970869 0.0275983 0.0847301 -0.996022 
-0.010903 0.0656153 -0.997785 0.0380154 0.00458821 -0.999267 -0.00263838 -0.0505381 -0.998719 
-0.144078 -0.0768689 -0.986576 -0.280909 -0.0534684 -0.958244 -0.630749 -0.152208 -0.760913 
-0.477991 -0.125653 -0.869331 0.669964 -0.135109 -0.729995 0.603423 -0.313352 -0.733274 
0.597814 -0.12081 -0.792479 0.366931 -0.121777 -0.922243 0.241844 -0.149131 -0.958786 
-0.11088 -0.0671863 -0.99156 -0.0738235 -0.220333 -0.972627 -0.00465892 -0.0179964 -0.999827 
0.136034 -0.0398793 -0.989901 0.080452 -0.121832 -0.989285 -0.0400366 -0.0359103 -0.998553 
-0.0293454 -0.0621314 -0.997636 -0.0389499 -0.106667 -0.993532 -0.14721 -0.181659 -0.972281 
-0.301939 -0.187037 -0.9348 -0.603282 -0.216938 -0.767456 -0.578564 -0.240286 -0.77944 
-0.567024 -0.207196 -0.797216 0.540494 -0.403711 -0.738163 0.523572 -0.5188 -0.67581 
0.415689 -0.307844 -0.855824 0.222795 -0.288674 -0.931144 0.127403 -0.149596 -0.980505 
-0.0969569 -0.0550986 -0.993762 -0.280753 -0.0492886 -0.958514 -0.146044 -0.157753 -0.976619 
0.165357 -0.0789867 -0.983066 0.0882918 -0.0175747 -0.99594 0.038138 -0.156123 -0.987001 
0.0467785 -0.118354 -0.991869 -0.0305782 -0.0910718 -0.995375 -0.11972 -0.120405 -0.985479 
-0.213096 -0.215188 -0.95304 -0.482362 -0.313129 -0.818094 -0.373148 -0.252839 -0.892655 
0.52206 -0.520808 -0.675435 0.388251 -0.584534 -0.712447 0.333826 -0.426508 -0.840626 
0.241711 -0.341305 -0.908343 0.0684926 -0.24181 -0.967903 -0.0588668 -0.23511 -0.970185 
-0.232928 -0.170012 -0.957518 -0.0916052 -0.0592674 -0.99403 0.155721 -0.0240209 -0.987509 
0.0500272 -0.0635162 -0.996726 -0.0181856 -0.0898934 -0.995785 0.0272784 -0.159406 -0.986836 
-0.034086 -0.155695 -0.987217 -0.170619 -0.204337 -0.963917 -0.411534 -0.475559 -0.777486 
-0.238059 -0.251815 -0.938039 -0.559473 -0.371493 -0.740934 -0.526839 -0.408986 -0.745098 
-0.508245 -0.355735 -0.784309 0.330601 -0.662522 -0.672137 0.297182 -0.680425 -0.669855 
0.291941 -0.648754 -0.702772 0.175994 -0.732793 -0.657298 0.153074 -0.567951 -0.808703 
0.015657 -0.701514 -0.712484 -0.0173706 -0.539356 -0.841899 -0.0217129 -0.625912 -0.779591 
-0.0839391 -0.487315 -0.869183 0.110476 -0.493126 -0.862915 0.0518982 -0.311837 -0.948717 
0.161806 -0.597325 -0.785508 0.144871 -0.256055 -0.955745 0.0290191 -0.267286 -0.96318 
-0.0602071 -0.270369 -0.960872 -0.0596501 -0.621671 -0.781004 -0.0243194 -0.335035 -0.941892 
-0.0716995 -0.577737 -0.813067 -0.0701081 -0.382379 -0.921342 -0.410187 -0.485563 -0.771994 
-0.232772 -0.612078 -0.755763 -0.205142 -0.372865 -0.904925 0.115433 -0.636054 -0.762961 
0.0186574 -0.680798 -0.732234 0.0242317 -0.650092 -0.759469 -0.078345 -0.667459 -0.740513 
-0.0788829 -0.668291 -0.739706 -0.0789288 -0.667323 -0.740574 0.059095 0.0701808 -0.995782 
0.185148 0.0917975 -0.978414 0.0515807 0.192882 -0.979865 -0.03095 0.211264 -0.976939 
-0.0922243 0.110801 -0.989554 0.0601481 0.0670559 -0.995935 0.055833 0.068655 -0.996077 
0.0612643 0.0637266 -0.996085 0.0586591 0.067051 -0.996024 0.230683 0.0179229 -0.972864 
0.229703 -0.0619159 -0.971289 0.212355 0.0324824 -0.976653 0.0377528 0.0369316 -0.998604 
-0.0322788 0.0374598 -0.998777 -0.0914241 0.0342418 -0.995223 -0.0884972 0.0408323 -0.995239 
0.17302 -0.129289 -0.976396 0.0866387 -0.117418 -0.989296 0.0559613 -0.096268 -0.993781 
-0.0281881 -0.055419 -0.998065 -0.111396 -0.0266889 -0.993418 -0.0999405 -0.0488853 -0.993792 
-0.111806 -0.0241848 -0.993436 0.040368 -0.0982381 -0.994344 0.0208621 -0.0921363 -0.995528 
0.0400558 -0.0984352 -0.994337 0.0399875 -0.0980195 -0.994381 
