# vtk DataFile Version 4.2
vtk output
ASCII
DATASET POLYDATA
POINTS 516 float
-24.8138 -32.4898 -12.7832 -16.8929 -32.4898 -13.8162 -8.97209 -32.4898 -14.7722 
-1.05124 -32.4898 -14.6568 6.8696 -32.4898 -12.9954 -32.7346 -24.569 -13.8797 
-24.8138 -24.569 -15.2576 -16.8929 -24.569 -15.3144 -8.97209 -24.569 -15.6276 
-1.05124 -24.569 -15.9852 6.8696 -24.569 -14.9621 14.7904 -24.569 -14.6068 
22.7113 -24.569 -14.7325 30.6321 -24.569 -14.4476 38.553 -24.569 -13.5521 
-40.6555 -16.6481 -14.4509 -32.7346 -16.6481 -15.9711 -24.8138 -16.6481 -16.5045 
-16.8929 -16.6481 -15.7865 -8.97209 -16.6481 -15.587 -1.05124 -16.6481 -16.4607 
6.8696 -16.6481 -16.514 14.7904 -16.6481 -15.8664 22.7113 -16.6481 -16.1172 
30.6321 -16.6481 -16.6167 38.553 -16.6481 -16.8364 46.4738 -16.6481 -15.6225 
54.3947 -16.6481 -12.73 -40.6555 -8.72729 -15.3076 -32.7346 -8.72729 -16.563 
-24.8138 -8.72729 -16.6091 -16.8929 -8.72729 -16.0428 -8.97209 -8.72729 -17.1046 
-1.05124 -8.72729 -18.2982 6.8696 -8.72729 -19.2105 14.7904 -8.72729 -16.4715 
22.7113 -8.72729 -16.5057 30.6321 -8.72729 -17.3538 38.553 -8.72729 -17.8292 
46.4738 -8.72729 -17.2644 54.3947 -8.72729 -15.5201 -48.5763 -0.806452 -12.0296 
-40.6555 -0.806452 -15.7574 -32.7346 -0.806452 -17.0467 -24.8138 -0.806452 -17.0473 
-16.8929 -0.806452 -16.5687 -8.97209 -0.806452 -19.7643 -1.05124 -0.806452 -14.5432 
6.8696 -0.806452 -18.7088 14.7904 -0.806452 -17.3836 22.7113 -0.806452 -16.5881 
30.6321 -0.806452 -17.6559 38.553 -0.806452 -18.1923 46.4738 -0.806452 -17.7449 
54.3947 -0.806452 -16.3216 -40.6555 7.11439 -15.9725 -32.7346 7.11439 -17.6233 
-24.8138 7.11439 -17.6075 -16.8929 7.11439 -16.737 -8.97209 7.11439 -18.2883 
-1.05124 7.11439 -18.175 6.8696 7.11439 -19.0208 14.7904 7.11439 -17.4202 
22.7113 7.11439 -16.808 30.6321 7.11439 -17.6207 38.553 7.11439 -17.8303 
46.4738 7.11439 -16.9175 54.3947 7.11439 -14.6716 -40.6555 15.0352 -15.705 
-32.7346 15.0352 -17.5452 -24.8138 15.0352 -17.7266 -16.8929 15.0352 -16.9631 
-8.97209 15.0352 -16.6936 -1.05124 15.0352 -17.6974 6.8696 15.0352 -17.0553 
14.7904 15.0352 -16.8376 22.7113 15.0352 -17.144 30.6321 15.0352 -17.448 
38.553 15.0352 -17.5375 46.4738 15.0352 -15.3179 -40.6555 22.9561 -14.7863 
-32.7346 22.9561 -16.9656 -24.8138 22.9561 -17.8903 -16.8929 22.9561 -17.4048 
-8.97209 22.9561 -17.0553 -1.05124 22.9561 -17.3749 6.8696 22.9561 -17.1919 
14.7904 22.9561 -17.4852 22.7113 22.9561 -17.802 30.6321 22.9561 -16.9588 
38.553 22.9561 -14.8869 -32.7346 30.8769 -15.145 -24.8138 30.8769 -16.7509 
-16.8929 30.8769 -17.3561 -8.97209 30.8769 -18.172 -1.05124 30.8769 -17.6348 
6.8696 30.8769 -17.6318 14.7904 30.8769 -17.9508 22.7113 30.8769 -16.8811 
30.6321 30.8769 -15.6351 38.553 30.8769 -12.676 -24.8138 38.7978 -14.6997 
-16.8929 38.7978 -15.9658 -8.97209 38.7978 -17.4072 -1.05124 38.7978 -16.7977 
6.8696 38.7978 -16.6189 14.7904 38.7978 -17.0786 22.7113 38.7978 -15.7316 
30.6321 38.7978 -12.5851 -8.97209 46.7186 -12.6144 -1.05124 46.7186 -13.1156 
6.8696 46.7186 -12.7566 -24.8138 -34.0944 -11.888 -24.8138 -40.4107 -7.32158 
-16.8929 -36.4238 -11.888 -16.8929 -40.4107 -9.53032 -8.97209 -39.0195 -11.888 
-8.97209 -40.4107 -11.0472 -1.05124 -38.0875 -11.888 -1.05124 -40.4107 -10.2067 
6.8696 -34.4104 -11.888 6.8696 -40.4107 -6.7307 -40.6555 -32.4898 -5.64069 
-28.3616 -32.4898 -11.888 -32.7346 -29.5435 -11.888 -32.7346 -32.4898 -10.4649 
11.4099 -32.4898 -11.888 14.7904 -30.6467 -11.888 14.7904 -32.4898 -10.9137 
22.7113 -29.825 -11.888 22.7113 -32.4898 -9.7136 30.6321 -28.4488 -11.888 
30.6321 -32.4898 -8.12558 38.553 -27.0061 -11.888 38.553 -32.4898 -4.1946 
-48.5763 -24.569 -5.03652 -39.7353 -24.569 -11.888 -40.6555 -23.9093 -11.888 
-40.6555 -24.569 -11.5769 45.0719 -24.569 -11.888 46.4738 -23.921 -11.888 
46.4738 -24.569 -11.3323 54.3947 -18.0604 -11.888 54.3947 -24.569 -4.37177 
-45.2954 -16.6481 -11.888 -48.5763 -16.6481 -9.18203 55.6431 -16.6481 -11.888 
-47.3116 -8.72729 -11.888 -48.5763 -2.03412 -11.888 -48.5763 -8.72729 -11.0828 
59.859 -8.72729 -11.888 62.3155 -8.72729 -8.87187 -48.751 -0.806452 -11.888 
-48.5763 5.36294 -11.888 60.7997 -0.806452 -11.888 62.3155 -0.806452 -9.45168 
-48.5097 7.11439 -11.888 -48.5763 7.11439 -11.844 57.9909 7.11439 -11.888 
54.3947 12.24 -11.888 -47.3338 15.0352 -11.888 -48.5763 15.0352 -10.9036 
52.4169 15.0352 -11.888 46.4738 22.2175 -11.888 54.3947 15.0352 -9.15298 
-46.5493 22.9561 -11.888 -48.5763 22.9561 -9.75706 -40.6555 30.6031 -11.888 
45.551 22.9561 -11.888 46.4738 22.9561 -11.0644 -40.3891 30.8769 -11.888 
-40.6555 30.8769 -11.7128 -32.7346 37.7261 -11.888 39.7473 30.8769 -11.888 
38.553 32.424 -11.888 -31.6123 38.7978 -11.888 -32.7346 38.7978 -10.9156 
-24.8138 43.9472 -11.888 -16.8929 45.6686 -11.888 14.7904 46.2424 -11.888 
22.7113 44.3616 -11.888 31.9185 38.7978 -11.888 30.6321 39.4921 -11.888 
-13.1869 46.7186 -11.888 -16.8929 46.7186 -9.99642 -8.97209 47.4867 -11.888 
-1.05124 47.9897 -11.888 12.6719 46.7186 -11.888 6.8696 47.5712 -11.888 
14.7904 46.7186 -9.32251 -24.8138 -43.2897 -3.96715 -16.8929 -45.6943 -3.96715 
-8.97209 -46.7395 -3.96715 -8.97209 -48.3315 2.15866 -1.05124 -45.3045 -3.96715 
6.8696 -42.4043 -3.96715 -40.6555 -33.8566 -3.96715 -30.4228 -40.4107 -3.96715 
-32.7346 -39.0265 -3.96715 -32.7346 -40.4107 0.406576 11.9997 -40.4107 -3.96715 
14.7904 -39.2508 -3.96715 14.7904 -40.4107 0.483309 22.7113 -37.0083 -3.96715 
30.6321 -35.39 -3.96715 38.553 -32.6029 -3.96715 -42.3003 -32.4898 -3.96715 
-48.5763 -25.6616 -3.96715 38.8621 -32.4898 -3.96715 46.4738 -29.599 -3.96715 
54.3947 -24.7973 -3.96715 -49.3641 -24.569 -3.96715 54.6357 -24.569 -3.96715 
54.3947 -24.569 -2.63627 -52.8635 -16.6481 -3.96715 61.8995 -16.6481 -3.96715 
62.3155 -15.5813 -3.96715 -54.9629 -8.72729 -3.96715 64.5217 -8.72729 -3.96715 
62.3155 -8.72729 3.8039 -55.6214 -0.806452 -3.96715 -56.4971 -0.806452 0.673879 
64.1222 -0.806452 -3.96715 62.3155 4.74608 -3.96715 62.3155 -0.806452 0.819366 
-54.9771 7.11439 -3.96715 61.4408 7.11439 -3.96715 -53.7039 15.0352 -3.96715 
56.8295 15.0352 -3.96715 54.3947 18.3098 -3.96715 54.3947 15.0352 0.467072 
-51.3369 22.9561 -3.96715 -48.5763 27.6469 -3.96715 50.414 22.9561 -3.96715 
46.4738 27.8406 -3.96715 46.4738 22.9561 2.17417 -46.2877 30.8769 -3.96715 
-40.6555 37.0003 -3.96715 43.9464 30.8769 -3.96715 38.553 36.5876 -3.96715 
38.553 30.8769 3.63065 -38.376 38.7978 -3.96715 -32.7346 42.4546 -3.96715 
-24.8138 46.1685 -3.96715 22.7113 45.7866 -3.96715 35.9563 38.7978 -3.96715 
30.6321 42.3315 -3.96715 30.6321 38.7978 1.50308 -22.9663 46.7186 -3.96715 
-16.8929 48.5075 -3.96715 -16.8929 46.7186 -0.668101 -8.97209 49.312 -3.96715 
-8.97209 46.7186 0.535531 -1.05124 49.7474 -3.96715 -1.05124 46.7186 -0.164938 
6.8696 48.5477 -3.96715 6.8696 46.7186 -1.75855 17.9749 46.7186 -3.96715 
14.7904 47.4555 -3.96715 14.7904 46.7186 -3.10496 -8.97209 -48.7213 3.95369 
-32.7346 -41.4107 3.95369 -24.8138 -45.5034 3.95369 -13.5525 -48.3315 3.95369 
-16.8929 -48.0472 3.95369 -7.04853 -48.3315 3.95369 -8.97209 -48.3315 5.65356 
-1.05124 -47.1019 3.95369 6.8696 -44.1947 3.95369 14.7904 -41.2022 3.95369 
-34.3461 -40.4107 3.95369 -40.6555 -35.8563 3.95369 -32.7346 -40.4107 7.48188 
17.2623 -40.4107 3.95369 14.7904 -40.4107 7.15462 22.7113 -38.6737 3.95369 
30.6321 -36.3402 3.95369 38.553 -32.9848 3.95369 -44.3787 -32.4898 3.95369 
-48.5763 -27.5377 3.95369 -40.6555 -32.4898 10.8337 30.6321 -32.4898 11.598 
39.6696 -32.4898 3.95369 38.553 -32.4898 5.04179 46.4738 -29.226 3.95369 
-50.6883 -24.569 3.95369 -48.5763 -24.569 8.00241 53.0339 -24.569 3.95369 
46.4738 -24.569 9.61671 54.3947 -23.4067 3.95369 -54.2321 -16.6481 3.95369 
59.744 -16.6481 3.95369 54.3947 -16.6481 9.51344 -56.1121 -8.72729 3.95369 
-56.4971 -5.4537 3.95369 62.2534 -8.72729 3.95369 54.3947 -8.72729 11.7687 
-57.0327 -0.806452 3.95369 -56.4971 3.36608 3.95369 -56.4971 -0.806452 5.54 
60.4745 -0.806452 3.95369 54.3947 -0.806452 9.12388 -55.9975 7.11439 3.95369 
46.4738 7.11439 9.83062 57.8603 7.11439 3.95369 54.3947 11.7195 3.95369 
54.3947 7.11439 6.61152 -54.0456 15.0352 3.95369 30.6321 15.0352 11.1202 
38.553 15.0352 9.64519 51.9841 15.0352 3.95369 46.4738 21.4938 3.95369 
46.4738 15.0352 7.80511 -50.9285 22.9561 3.95369 -48.5763 26.6029 3.95369 
-48.5763 22.9561 7.70478 6.8696 22.9561 11.2471 14.7904 22.9561 11.0278 
22.7113 22.9561 10.7121 30.6321 22.9561 9.32491 44.4506 22.9561 3.95369 
38.553 30.3811 3.95369 38.553 22.9561 7.1956 -45.1103 30.8769 3.95369 
-40.6555 34.9252 3.95369 -40.6555 30.8769 8.49227 -32.7346 30.8769 11.6405 
-8.97209 30.8769 11.3298 -1.05124 30.8769 9.95259 6.8696 30.8769 8.71091 
14.7904 30.8769 8.28069 22.7113 30.8769 8.15944 37.9537 30.8769 3.95369 
30.6321 35.5795 3.95369 30.6321 30.8769 6.55924 -34.2232 38.7978 3.95369 
-32.7346 39.594 3.95369 -32.7346 38.7978 4.89306 -24.8138 41.8717 3.95369 
-24.8138 38.7978 7.00784 -16.8929 43.2014 3.95369 -16.8929 38.7978 7.52995 
-8.97209 43.5359 3.95369 -8.97209 38.7978 7.17305 -1.05124 42.1932 3.95369 
-1.05124 38.7978 6.13568 6.8696 40.4011 3.95369 6.8696 38.7978 5.05404 
14.7904 39.3013 3.95369 14.7904 38.7978 4.31379 25.4244 38.7978 3.95369 
22.7113 39.7406 3.95369 22.7113 38.7978 4.70267 -24.8138 -43.878 11.8745 
-16.8929 -46.2088 11.8745 -8.97209 -46.6579 11.8745 -1.05124 -44.9461 11.8745 
6.8696 -42.1339 11.8745 -30.6549 -40.4107 11.8745 -32.7346 -38.7987 11.8745 
-24.8138 -40.4107 16.186 -16.8929 -40.4107 18.2067 -8.97209 -40.4107 18.8258 
-1.05124 -40.4107 17.5232 11.4314 -40.4107 11.8745 6.8696 -40.4107 14.3146 
14.7904 -39.0465 11.8745 22.7113 -35.8217 11.8745 -40.0024 -32.4898 11.8745 
-40.6555 -31.7796 11.8745 -32.7346 -32.4898 17.1725 14.7904 -32.4898 18.7536 
30.2632 -32.4898 11.8745 22.7113 -32.4898 15.2932 30.6321 -32.259 11.8745 
38.553 -27.6565 11.8745 -46.2302 -24.569 11.8745 -48.5763 -20.1437 11.8745 
-40.6555 -24.569 16.385 -32.7346 -24.569 19.5955 22.7113 -24.569 18.535 
30.6321 -24.569 16.4366 42.802 -24.569 11.8745 38.553 -24.569 13.8687 
[...]
POINT_DATA 516
SCALARS ImageScalars float
LOOKUP_TABLE default
0 0 0 0 0 0 0 0 0 
0 0 0 0 0 0 0 0 0 
0 0 0 0 0 0 0 0 0 
0 0 0 0 0 0 0 0 0 
0 0 0 0 0 0 0 0 0 
0 0 0 0 0 0 0 0 0 
0 0 0 0 0 0 0 0 0 
0 0 0 0 0 0 0 0 0 
0 0 0 0 0 0 0 0 0 
0 0 0 0 0 0 0 0 0 
0 0 0 0 0 0 0 0 0 
0 0 0 0 0 0 0 0 0 
0 0 0 0 0 0 0 0 0 
0 0 0 0 0 0 0 0 0 
0 0 0 0 0 0 0 0 0 
0 0 0 0 0 0 0 0 0 
0 0 0 0 0 0 0 0 0 
0 0 0 0 0 0 0 0 0 
0 0 0 0 0 0 0 0 0 
0 0 0 0 0 0 0 0 0 
0 0 0 0 0 0 0 0 0 
0 0 0 0 0 0 0 0 0 
0 0 0 0 0 0 0 0 0 
0 0 0 0 0 0 0 0 0 
0 0 0 0 0 0 0 0 0 
0 0 0 0 0 0 0 0 0 
0 0 0 0 0 0 0 0 0 
0 0 0 0 0 0 0 0 0 
0 0 0 0 0 0 0 0 0 
0 0 0 0 0 0 0 0 0 
0 0 0 0 0 0 0 0 0 
0 0 0 0 0 0 0 0 0 
0 0 0 0 0 0 0 0 0 
0 0 0 0 0 0 0 0 0 
0 0 0 0 0 0 0 0 0 
0 0 0 0 0 0 0 0 0 
0 0 0 0 0 0 0 0 0 
0 0 0 0 0 0 0 0 0 
0 0 0 0 0 0 0 0 0 
0 0 0 0 0 0 0 0 0 
0 0 0 0 0 0 0 0 0 
0 0 0 0 0 0 0 0 0 
0 0 0 0 0 0 0 0 0 
0 0 0 0 0 0 0 0 0 
0 0 0 0 0 0 0 0 0 
0 0 0 0 0 0 0 0 0 
0 0 0 0 0 0 0 0 0 
0 0 0 0 0 0 0 0 0 
0 0 0 0 0 0 0 0 0 
0 0 0 0 0 0 0 0 0 
0 0 0 0 0 0 0 0 0 
0 0 0 0 0 0 0 0 0 
0 0 0 0 0 0 0 0 0 
0 0 0 0 0 0 0 0 0 
0 0 0 0 0 0 0 0 0 
0 0 0 0 0 0 0 0 0 
0 0 0 0 0 0 0 0 0 
0 0 0 
NORMALS Normals float
0.171392 0.42545 0.888604 0.1272 0.303756 0.94422 0.0470457 0.254445 0.965942 
-0.105898 0.306249 0.946043 -0.214815 0.384287 0.897874 0.209171 0.31197 0.926781 
0.0817998 0.223964 0.971159 0.0231519 0.116769 0.992889 0.0423339 0.0533693 0.997677 
-0.0412285 0.114994 0.99251 -0.0852927 0.213715 0.973165 -0.0137357 0.272894 0.961946 
-0.00823828 0.326777 0.945065 -0.0748948 0.418071 0.905322 -0.153725 0.497584 0.853686 
0.342751 0.191148 0.919774 0.127513 0.153682 0.979858 -0.00960841 0.0898464 0.995909 
-0.0558797 0.0454491 0.997403 0.0418047 0.0798115 0.995933 0.0591515 0.146725 0.987407 
-0.0371483 0.24839 0.967947 -0.0242023 0.112115 0.9934 0.0459921 0.110652 0.992795 
0.0441068 0.165497 0.985223 -0.0654999 0.264199 0.962241 -0.21356 0.297885 0.930407 
-0.479509 0.400663 0.780731 0.290208 0.0836785 0.953298 0.0769339 0.0703053 0.994554 
-0.0327826 0.0339153 0.998887 0.0221816 0.0496809 0.998519 0.154086 0.271561 0.950006 
0.118546 -0.0549108 0.991429 -0.113133 0.148729 0.982385 -0.160759 0.0887204 0.982998 
0.0579141 0.0308881 0.997844 0.0805281 0.0654033 0.994604 -0.00425925 0.0811927 0.996689 
-0.125796 0.13633 0.982644 -0.417372 0.198477 0.886796 0.568918 0.0386432 0.821486 
0.27183 0.0397835 0.961523 0.075649 0.0653086 0.994993 -0.0302111 0.0634977 0.997525 
0.161397 0.0455934 0.985836 -0.0351479 0.0694819 0.996964 -0.136035 -0.0597981 0.988898 
0.139178 -0.0115448 0.9902 -0.128476 0.0653006 0.98956 0.0266795 0.0187269 0.999469 
0.10068 0.0167106 0.994778 0.00662466 4.13202e-05 0.999978 -0.0987966 -0.0207826 0.994891 
-0.404332 -0.0379244 0.913826 0.309398 -0.00283833 0.950928 0.0961099 0.0319326 0.994858 
-0.056147 0.0430776 0.997493 0.0267816 0.0248682 0.999332 0.0993026 -0.198355 0.975087 
0.0494268 0.148745 0.98764 -0.0525962 -0.112406 0.992269 -0.142281 -0.0371752 0.989128 
0.0153353 0.0349468 0.999272 0.0647284 -0.0129669 0.997819 -0.0410639 -0.0392735 0.998384 
-0.168079 -0.154873 0.973532 -0.486962 -0.316054 0.814235 0.345622 -0.0747785 0.93539 
0.117139 -0.0439258 0.992144 -0.0369205 0.0176377 0.999163 -0.0646309 0.0420224 0.997024 
0.047656 -0.0631369 0.996866 0.0229127 -0.0464974 0.998656 -0.0556088 -0.110644 0.992303 
0.00590828 0.00676154 0.99996 0.0381781 0.0620172 0.997345 0.0244895 -0.0457394 0.998653 
-0.144205 -0.180488 0.972949 -0.365244 -0.272403 0.890165 0.374326 -0.190943 0.907425 
0.185687 -0.134302 0.973388 0.0316941 -0.0668759 0.997258 -0.0520304 0.0248244 0.998337 
-0.00191522 0.0921208 0.995746 0.00861757 -0.00388039 0.999955 0.00695336 0.036183 0.999321 
0.0380681 0.0690627 0.996886 -0.0397603 -0.0153906 0.999091 -0.159996 -0.0985004 0.982191 
-0.326011 -0.266454 0.907039 0.266945 -0.299041 0.916141 0.123873 -0.191363 0.973671 
0.091705 -0.0802585 0.992547 0.0170044 0.0302009 0.999399 -0.0337858 -0.0407527 0.998598 
0.0198823 -0.0419161 0.998923 -0.0490572 -0.0155869 0.998674 -0.141199 -0.139415 0.980115 
-0.236764 -0.2457 0.939986 -0.509092 -0.390658 0.76695 0.233041 -0.400187 0.886308 
0.179217 -0.301441 0.93649 0.0394947 -0.315927 0.947961 -0.0474577 -0.269514 0.961826 
0.0121019 -0.291601 0.956463 -0.061722 -0.378627 0.923489 -0.215965 -0.369449 0.903807 
-0.475833 -0.597855 0.645099 0.100203 -0.745671 0.658737 0.00916004 -0.74826 0.663342 
-0.0972375 -0.795584 0.597989 0.190969 0.472323 0.860489 0.303388 0.699007 0.647569 
0.16207 0.433385 0.886516 0.190658 0.608173 0.770568 0.0439963 0.507884 0.860301 
0.0360185 0.580103 0.813746 -0.155057 0.525019 0.836847 -0.183242 0.650822 0.736785 
-0.23868 0.455645 0.857566 -0.320356 0.771227 0.550074 0.553406 0.67907 0.482292 
0.231268 0.464474 0.854856 0.277657 0.436224 0.85593 0.323014 0.53076 0.783553 
-0.190122 0.464466 0.864942 -0.12614 0.466881 0.875278 -0.174056 0.54638 0.819252 
-0.0743659 0.544326 0.835571 -0.129228 0.696665 0.705661 -0.112518 0.574162 0.810973 
-0.194954 0.796964 0.5717 -0.182586 0.600764 0.778297 -0.323184 0.909495 0.261479 
0.757336 0.492579 0.428729 0.361028 0.410793 0.837202 0.378895 0.402357 0.833395 
0.386624 0.426226 0.817835 -0.282641 0.605348 0.744089 -0.303698 0.600438 0.739758 
-0.321366 0.643106 0.695082 -0.497662 0.435251 0.75026 -0.635776 0.751928 0.174336 
0.526332 0.212158 0.823385 0.692762 0.248639 0.676948 -0.523073 0.407867 0.748357 
0.545255 0.119876 0.829655 0.573443 0.0531944 0.817517 0.610885 0.135805 0.779985 
-0.645767 0.189864 0.739551 -0.865537 0.179565 0.467549 0.5755 0.0381954 0.816909 
0.601151 -0.031048 0.798532 -0.713524 -0.0755589 0.696544 -0.881246 -0.117602 0.457794 
0.606977 -0.0504537 0.793116 0.61068 -0.0511511 0.790224 -0.669442 -0.357619 0.651119 
-0.62622 -0.408938 0.663791 0.614672 -0.0638315 0.786196 0.690103 -0.0833118 0.7189 
-0.603009 -0.419441 0.678564 -0.535434 -0.477108 0.696906 -0.755826 -0.517084 0.401685 
0.633828 -0.259109 0.728783 0.769316 -0.313404 0.556714 0.532932 -0.456086 0.712719 
-0.532314 -0.469488 0.704431 -0.590403 -0.527803 0.610613 0.529507 -0.460959 0.712137 
0.543456 -0.469883 0.695604 0.455737 -0.565531 0.68737 -0.558206 -0.433582 0.707399 
-0.550873 -0.464915 0.693104 0.448031 -0.579924 0.680409 0.493238 -0.646359 0.582182 
0.320597 -0.705625 0.631911 0.172913 -0.773204 0.610129 -0.173913 -0.810658 0.559096 
-0.295063 -0.803572 0.516924 -0.516051 -0.622841 0.588015 -0.494311 -0.640303 0.587935 
0.146385 -0.792455 0.592103 0.191769 -0.904798 0.380218 0.111762 -0.785478 0.608714 
0.0033976 -0.820114 0.572191 -0.156366 -0.823223 0.54576 -0.099138 -0.844154 0.526855 
-0.193113 -0.93522 0.296766 0.341492 0.808369 0.479503 0.199676 0.858256 0.472785 
-0.0289155 0.89551 0.4441 -0.0548579 0.994866 0.0850458 -0.24238 0.879508 0.409534 
-0.340569 0.846398 0.409418 0.572763 0.717698 0.396046 0.428758 0.782982 0.450672 
0.454501 0.77113 0.445856 0.496705 0.847423 0.187504 -0.313457 0.85617 0.410752 
-0.293765 0.856162 0.425076 -0.323059 0.930942 0.170235 -0.218282 0.887573 0.405669 
-0.255395 0.903803 0.343385 -0.325493 0.911828 0.250246 0.605318 0.694535 0.388859 
0.765405 0.527003 0.369355 -0.327317 0.911676 0.248416 -0.405113 0.887211 0.220771 
-0.634821 0.758441 0.147547 0.784089 0.498376 0.3699 -0.639496 0.754362 0.148264 
-0.647665 0.759341 0.0627028 0.869369 0.294407 0.396891 -0.873364 0.478448 0.0912333 
-0.898644 0.430906 0.0822126 0.911618 0.153657 0.381236 -0.987892 0.136406 0.0739079 
-0.844095 0.0793451 -0.53029 0.928246 -0.00109785 0.371964 0.995448 -0.00553016 0.0951472 
-0.985242 -0.169808 -0.0215136 -0.933685 -0.356775 -0.0307363 -0.905802 -0.195462 -0.375923 
0.932062 -0.109862 0.345241 -0.897548 -0.440023 -0.0280603 0.927881 -0.225979 0.296599 
-0.829102 -0.557371 -0.0439116 -0.791272 -0.607562 -0.0689728 -0.747009 -0.552694 -0.369468 
0.89689 -0.396209 0.196486 0.837017 -0.520795 0.167855 -0.752502 -0.654128 -0.0765393 
-0.755101 -0.646872 -0.10667 -0.598725 -0.59655 -0.534468 0.782898 -0.600243 0.163641 
0.665406 -0.74097 0.0905441 -0.744835 -0.656381 -0.119933 -0.666931 -0.727023 -0.163221 
-0.48626 -0.517108 -0.704379 0.608067 -0.791476 0.0618086 0.491511 -0.870652 0.0195277 
0.341377 -0.930607 -0.13203 -0.300187 -0.918832 -0.256195 -0.615134 -0.767849 -0.178936 
-0.506666 -0.853579 -0.121211 -0.463681 -0.655534 -0.59605 0.30908 -0.941264 -0.135984 
0.199287 -0.972401 -0.121333 0.177321 -0.914093 -0.364681 0.0760426 -0.986314 -0.146295 
0.0136722 -0.850827 -0.525268 -0.0393644 -0.969245 -0.242929 -0.104541 -0.826257 -0.553508 
-0.137486 -0.943526 -0.301424 -0.144964 -0.876795 -0.458493 -0.23125 -0.925199 -0.300881 
-0.1778 -0.92987 -0.322069 -0.170907 -0.908126 -0.382228 -0.0583852 0.998281 -0.00517367 
0.50208 0.864818 0.00248898 0.379741 0.924412 0.0354729 0.0856811 0.996295 0.007465 
0.189498 0.981713 0.0181883 -0.109727 0.993919 -0.00926396 -0.0631509 0.99378 -0.0917263 
-0.269518 0.962805 -0.0191694 -0.356517 0.934199 -0.0129414 -0.330004 0.943948 -0.00767963 
0.527185 0.84972 -0.00716293 0.654909 0.752974 -0.0642247 0.530995 0.824211 -0.196778 
-0.316816 0.948272 -0.0202119 -0.336537 0.926356 -0.169139 -0.2897 0.955671 -0.0526029 
-0.333779 0.932353 -0.138956 -0.400395 0.897593 -0.184423 0.716563 0.692181 -0.0861536 
0.798243 0.58975 -0.12249 0.621399 0.613699 -0.48707 -0.363492 0.698722 -0.616167 
-0.408329 0.891861 -0.194555 -0.405958 0.880952 -0.243148 -0.483582 0.822125 -0.300431 
0.842923 0.520957 -0.134476 0.795194 0.49523 -0.349877 -0.613046 0.705505 -0.35558 
-0.491648 0.565783 -0.661946 -0.646277 0.663881 -0.376282 0.949754 0.294527 -0.105933 
-0.801313 0.373085 -0.467659 -0.583459 0.335078 -0.739796 0.980087 0.169507 -0.103421 
0.990547 0.0977851 -0.0961984 -0.83713 0.076764 -0.541591 -0.500409 -0.00193472 -0.865787 
0.996182 -0.00666032 -0.0870494 0.98956 -0.0964967 -0.107049 0.982999 -0.0106219 -0.183305 
-0.748082 -0.192128 -0.635185 -0.518618 -0.249537 -0.817781 0.975656 -0.177483 -0.128824 
-0.324702 -0.277732 -0.90412 -0.673576 -0.386885 -0.629775 -0.620504 -0.452053 -0.640799 
-0.518909 -0.373214 -0.769054 0.930869 -0.295444 -0.214931 -0.165122 -0.229689 -0.959155 
-0.208226 -0.278221 -0.937675 -0.60142 -0.473831 -0.643255 -0.523167 -0.528481 -0.668584 
-0.402481 -0.368975 -0.837775 0.838298 -0.468281 -0.27923 0.779262 -0.549484 -0.301361 
0.727995 -0.465711 -0.503127 -0.158446 -0.340936 -0.926638 -0.0329534 -0.282019 -0.958843 
-0.0983586 -0.246133 -0.964232 -0.198107 -0.2594 -0.945233 -0.503664 -0.522002 -0.688357 
-0.468551 -0.499472 -0.728689 -0.367964 -0.366789 -0.854441 0.676575 -0.647811 -0.350125 
0.549831 -0.727133 -0.411051 0.466693 -0.619471 -0.631232 0.182119 -0.51606 -0.836967 
-0.121566 -0.429656 -0.894772 -0.147841 -0.422334 -0.894303 -0.0953341 -0.34702 -0.933 
-0.0320772 -0.386897 -0.921565 -0.0881437 -0.384483 -0.918914 -0.459792 -0.501043 -0.733176 
-0.352911 -0.494626 -0.794228 -0.267926 -0.416819 -0.868607 0.373327 -0.783031 -0.497484 
0.339779 -0.784707 -0.518445 0.323535 -0.77099 -0.548543 0.185278 -0.733372 -0.654093 
0.123501 -0.66646 -0.73524 0.0807121 -0.687574 -0.721614 0.0057641 -0.579692 -0.814815 
-0.0356184 -0.624525 -0.780192 -0.0775454 -0.527105 -0.846255 -0.117661 -0.566236 -0.815802 
-0.114157 -0.497038 -0.860187 -0.113053 -0.544053 -0.831399 -0.103584 -0.493088 -0.863791 
-0.0195243 -0.54489 -0.83828 -0.0160588 -0.529782 -0.847982 -0.204331 -0.563499 -0.800448 
-0.105456 -0.599526 -0.793377 -0.106962 -0.557857 -0.823016 0.380473 0.829143 -0.409589 
0.157734 0.88397 -0.440132 -0.0742488 0.887095 -0.455577 -0.249382 0.862422 -0.440496 
-0.326196 0.846543 -0.420667 0.501642 0.737315 -0.452463 0.530709 0.696117 -0.483496 
0.359522 0.628572 -0.689668 0.125388 0.568866 -0.812815 -0.0288946 0.583109 -0.81188 
-0.191616 0.662635 -0.724015 -0.329182 0.84567 -0.420097 -0.308716 0.788372 -0.532132 
-0.334996 0.832649 -0.440991 -0.351776 0.764123 -0.540712 0.594774 0.586032 -0.550282 
0.601904 0.573289 -0.555925 0.42827 0.428118 -0.795801 -0.295921 0.447017 -0.84416 
-0.362531 0.687177 -0.629571 -0.359179 0.585711 -0.72659 -0.36125 0.679773 -0.638285 
-0.390811 0.551517 -0.73695 0.690965 0.42453 -0.585099 0.703444 0.355466 -0.615475 
0.483977 0.374951 -0.790682 0.277095 0.162773 -0.946955 -0.253862 0.18165 -0.95003 
-0.278093 0.307099 -0.91014 -0.423697 0.461789 -0.77925 -0.357844 0.404623 -0.841563 
-0.43441 0.369733 -0.821332 0.714101 0.293344 -0.635617 0.656858 0.268515 -0.704583 
0.353583 0.13122 -0.926153 -0.13275 -0.0658257 -0.988961 -0.176006 0.0438211 -0.983413 
-0.22516 0.131532 -0.965403 -0.457622 0.276479 -0.845069 -0.388283 0.217665 -0.895465 
0.767685 0.144054 -0.624427 0.584593 0.111259 -0.803662 0.272079 -0.0252671 -0.961943 
-0.18744 -0.245124 -0.951199 -0.100327 -0.206363 -0.973319 -0.0332935 -0.201401 -0.978943 
-0.0848708 -0.149549 -0.985105 -0.202861 -0.100691 -0.974017 -0.49125 -0.00295252 -0.871013 
-0.276791 -0.0765432 -0.957877 0.751986 -0.0330149 -0.658352 0.516211 -0.0492498 -0.855044 
0.240049 -0.0719727 -0.968089 0.047171 -0.0922749 -0.994616 -0.088041 -0.137352 -0.986602 
0.0336031 -0.18285 -0.982566 -0.189428 -0.122629 -0.974207 -0.146996 -0.125065 -0.981199 
-0.0770138 -0.237823 -0.968251 -0.0806116 -0.249938 -0.9649 -0.169099 -0.232345 -0.957821 
-0.328441 -0.263724 -0.90696 -0.292701 -0.264524 -0.918887 -0.286057 -0.25507 -0.92364 
0.705942 -0.206318 -0.677554 0.552422 -0.169528 -0.816143 0.24866 -0.12152 -0.960938 
0.0310917 -0.115153 -0.992861 -0.112476 -0.110888 -0.987448 -0.0386976 -0.0914156 -0.995061 
0.0414244 -0.199786 -0.978964 -0.0394455 -0.192277 -0.980548 -0.117613 -0.208571 -0.97091 
-0.222337 -0.211323 -0.951792 -0.132128 -0.210622 -0.968597 -0.131962 -0.237191 -0.962459 
-0.0783534 -0.256662 -0.96332 -0.224286 -0.287274 -0.93122 -0.200317 -0.281956 -0.938282 
-0.196889 -0.286546 -0.937617 0.644607 -0.312296 -0.69782 0.6378 -0.319919 -0.700617 
0.635545 -0.310486 -0.706882 0.267287 -0.256794 -0.92877 0.0638412 -0.182118 -0.981202 
-0.062294 -0.149389 -0.986814 -0.0497442 -0.109295 -0.992764 0.00267844 -0.174065 -0.984731 
-0.129655 -0.222768 -0.966211 -0.172721 -0.34237 -0.923553 -0.213844 -0.337163 -0.916838 
-0.0697346 -0.264908 -0.961749 -0.133839 -0.264046 -0.955179 -0.143565 -0.19589 -0.97006 
-0.122503 -0.194894 -0.973144 -0.132662 -0.178724 -0.974914 0.45856 -0.414028 -0.786323 
0.364821 -0.466796 -0.80561 0.344093 -0.395896 -0.851391 0.177591 -0.505168 -0.844552 
0.133896 -0.356715 -0.924568 -0.0282011 -0.304871 -0.951976 -0.0630372 -0.271232 -0.960448 
-0.120446 -0.414883 -0.901867 -0.0885785 -0.320697 -0.943031 -0.174251 -0.361164 -0.916077 
-0.178724 -0.421799 -0.8889 -0.201824 -0.409593 -0.889663 0.144004 -0.504158 -0.85152 
0.031661 -0.494594 -0.868547 0.0230581 -0.468856 -0.882974 -0.0851061 -0.440883 -0.893521 
-0.0692137 -0.449119 -0.890787 -0.0709972 -0.443591 -0.893413 0.252041 0.282038 -0.925705 
0.129141 0.393428 -0.91024 -0.00996381 0.490477 -0.871397 -0.139617 0.482377 -0.864766 
-0.209369 0.452468 -0.866855 0.26147 0.272016 -0.926089 0.245953 0.259415 -0.933922 
0.138796 0.214829 -0.966739 0.0317482 0.22607 -0.973594 -0.0996176 0.292388 -0.951097 
-0.244098 0.401536 -0.882715 -0.190466 0.376398 -0.906668 -0.271326 0.237853 -0.932635 
0.262221 0.149826 -0.953306 0.230979 0.123775 -0.965054 0.15634 0.0636958 -0.985647 
0.103053 -0.00822463 -0.994642 0.0627588 -0.0437814 -0.997068 -0.0223019 0.0219721 -0.99951 
-0.156531 0.0606746 -0.985808 -0.248271 0.101646 -0.963343 -0.24597 0.0581825 -0.96753 
0.217981 0.0750424 -0.973064 0.129154 0.0385593 -0.990875 0.0736575 -0.051273 -0.995965 
0.0384189 -0.138414 -0.989629 0.0617371 -0.162588 -0.984761 0.00275185 -0.157559 -0.987506 
-0.181534 -0.239351 -0.953812 -0.148456 -0.199083 -0.968673 -0.175573 -0.16527 -0.970495 
-0.178221 -0.184952 -0.966452 -0.183375 -0.183019 -0.965856 0.156031 -0.0345043 -0.987149 
0.0574771 -0.081611 -0.995006 0.0989909 -0.0356689 -0.994449 -0.0615858 -0.128937 -0.989739 
-0.018322 -0.114875 -0.993211 -0.0015263 -0.19618 -0.980567 -0.00667198 -0.19718 -0.980345 
0.0427225 -0.102697 -0.993795 -0.141434 -0.213665 -0.966615 -0.0651988 -0.157149 -0.98542 
0.0975949 -0.177573 -0.979256 0.100354 -0.184457 -0.977704 0.111561 -0.172104 -0.978741 
-0.144883 -0.184522 -0.972091 -0.138112 -0.188284 -0.972355 -0.142513 -0.187087 -0.971951 

