# vtk DataFile Version 4.2
vtk output
ASCII
DATASET POLYDATA
POINTS 564 float
1.46872 -9.65293 -19.7333 -30.323 -41.4446 -13.6844 -22.3751 -41.4446 -13.8576 
-14.4271 -41.4446 -13.1958 -6.47921 -41.4446 -12.199 -38.2709 -33.4967 -15.2798 
-30.323 -33.4967 -17.4314 -22.3751 -33.4967 -17.1365 -14.4271 -33.4967 -15.94 
-6.47921 -33.4967 -14.6837 1.46872 -33.4967 -14.8484 9.41664 -33.4967 -14.7368 
17.3646 -33.4967 -13.8954 25.3125 -33.4967 -12.5779 -46.2188 -25.5488 -14.7478 
-38.2709 -25.5488 -17.7768 -30.323 -25.5488 -18.7069 -22.3751 -25.5488 -18.8499 
-14.4271 -25.5488 -17.0908 -6.47921 -25.5488 -15.3857 1.46872 -25.5488 -15.7727 
9.41664 -25.5488 -16.6261 17.3646 -25.5488 -16.6522 25.3125 -25.5488 -15.8846 
33.2604 -25.5488 -14.8942 41.2083 -25.5488 -14.1911 -54.1668 -17.6009 -12.6147 
-46.2188 -17.6009 -16.7885 -38.2709 -17.6009 -18.6112 -30.323 -17.6009 -19.4855 
-22.3751 -17.6009 -18.5892 -14.4271 -17.6009 -16.8688 -6.47921 -17.6009 -15.2698 
1.46872 -9.95121 -19.6206 1.46872 -17.6009 -16.3733 9.41664 -17.6009 -17.4123 
17.3646 -17.6009 -16.9036 25.3125 -17.6009 -16.5761 33.2604 -17.6009 -16.3848 
41.2083 -17.6009 -14.6249 49.1563 -17.6009 -13.3861 -54.1668 -9.65293 -14.4412 
-46.2188 -9.65293 -17.6157 -38.2709 -9.65293 -18.6222 -30.323 -9.65293 -18.4827 
-22.3751 -9.65293 -17.3711 -14.4271 -9.65293 -15.9712 0.860916 -9.65293 -19.6206 
-6.47921 -9.65293 -17.742 2.02412 -9.65293 -19.6206 1.46872 -9.45693 -19.6206 
9.41664 -9.65293 -18.0444 17.3646 -9.65293 -15.8122 25.3125 -9.65293 -15.2738 
33.2604 -9.65293 -15.2637 41.2083 -9.65293 -14.7004 49.1563 -9.65293 -13.6248 
57.1042 -9.65293 -12.3504 -54.1668 -1.70501 -15.3066 -46.2188 -1.70501 -17.7527 
-38.2709 -1.70501 -18.2239 -30.323 -1.70501 -17.6103 -22.3751 -1.70501 -15.9119 
-14.4271 -1.70501 -13.7695 -6.47921 -1.70501 -15.2619 9.41664 -1.70501 -17.3134 
17.3646 -1.70501 -15.1138 25.3125 -1.70501 -13.926 33.2604 -1.70501 -14.3326 
41.2083 -1.70501 -14.2032 49.1563 -1.70501 -13.188 57.1042 -1.70501 -11.816 
-54.1668 6.24292 -13.8308 -46.2188 6.24292 -16.6145 -38.2709 6.24292 -17.4849 
-30.323 6.24292 -17.2375 -22.3751 6.24292 -15.6378 -14.4271 6.24292 -13.6672 
-6.47921 6.24292 -12.2638 1.46872 6.24292 -14.7972 9.41664 6.24292 -14.0084 
17.3646 6.24292 -13.4998 25.3125 6.24292 -14.1316 33.2604 6.24292 -14.6699 
41.2083 6.24292 -14.0213 49.1563 6.24292 -12.9816 57.1042 6.24292 -11.7545 
-46.2188 14.1908 -15.849 -38.2709 14.1908 -17.6973 -30.323 14.1908 -17.4629 
-22.3751 14.1908 -16.2877 -14.4271 14.1908 -14.2292 9.41664 14.1908 -12.1364 
17.3646 14.1908 -12.8609 25.3125 14.1908 -14.033 33.2604 14.1908 -14.495 
41.2083 14.1908 -14.4281 -46.2188 22.1388 -15.3013 -38.2709 22.1388 -16.7499 
-30.323 22.1388 -17.5669 -22.3751 22.1388 -16.7634 -14.4271 22.1388 -13.7917 
1.46872 22.1388 -12.3639 9.41664 22.1388 -13.6523 17.3646 22.1388 -13.6892 
25.3125 22.1388 -14.3613 33.2604 22.1388 -13.6877 41.2083 22.1388 -12.9827 
49.1563 22.1388 -11.9874 -46.2188 30.0867 -12.008 -38.2709 30.0867 -16.1548 
-30.323 30.0867 -17.1279 -22.3751 30.0867 -16.4209 -14.4271 30.0867 -13.7054 
-6.47921 30.0867 -11.7337 1.46872 30.0867 -12.4682 9.41664 30.0867 -13.9454 
17.3646 30.0867 -14.0441 25.3125 30.0867 -13.047 33.2604 30.0867 -12.6355 
-38.2709 38.0346 -13.1761 -30.323 38.0346 -15.1547 -22.3751 38.0346 -13.4867 
1.46872 38.0346 -11.7805 9.41664 38.0346 -13.3562 17.3646 38.0346 -13.0731 
-30.323 -43.7319 -11.6726 -22.3751 -44.5259 -11.6726 -22.3751 -49.3926 -4.06935 
-14.4271 -43.5833 -11.6726 -6.47921 -42.1951 -11.6726 -38.0319 -41.4446 -11.6726 
-38.2709 -41.3393 -11.6726 -38.2709 -41.4446 -11.5518 -2.53524 -41.4446 -11.6726 
1.46872 -40.3541 -11.6726 1.46872 -41.4446 -10.9116 9.41664 -38.679 -11.6726 
9.41664 -41.4446 -8.77912 17.3646 -36.483 -11.6726 17.3646 -41.4446 -4.35294 
25.3125 -34.6161 -11.6726 -45.9474 -33.4967 -11.6726 -46.2188 -33.0906 -11.6726 
-46.2188 -33.4967 -11.2931 29.3921 -33.4967 -11.6726 33.2604 -31.9271 -11.6726 
33.2604 -33.4967 -10.4813 41.2083 -29.126 -11.6726 41.2083 -33.4967 -7.97885 
-49.7296 -25.5488 -11.6726 -54.1668 -19.3636 -11.6726 46 -25.5488 -11.6726 
49.1563 -21.8084 -11.6726 49.1563 -25.5488 -10.2965 57.1042 -25.5488 -5.37136 
-55.0632 -17.6009 -11.6726 52.9408 -17.6009 -11.6726 57.1042 -12.2644 -11.6726 
57.1042 -17.6009 -10.0603 -57.2085 -9.65293 -11.6726 1.46872 -1.72497 -11.6726 
58.2611 -9.65293 -11.6726 65.0521 -9.65293 -5.82301 -58.5074 -1.70501 -11.6726 
-62.1147 -1.70501 -5.68445 1.41003 -1.70501 -11.6726 1.49565 -1.70501 -11.6726 
1.46872 -1.65745 -11.6726 1.46872 -1.70501 -11.6449 57.3373 -1.70501 -11.6726 
65.0521 -1.70501 -5.63435 -56.9271 6.24292 -11.6726 -54.1668 13.1605 -11.6726 
-6.47921 8.66768 -11.6726 1.46872 13.0791 -11.6726 49.1563 13.8758 -11.6726 
57.2318 6.24292 -11.6726 57.1042 6.53602 -11.6726 65.0521 6.24292 -4.83893 
-53.7532 14.1908 -11.6726 -54.1668 14.1908 -11.3215 -8.52042 14.1908 -11.6726 
-6.47921 14.1908 -10.6727 5.54611 14.1908 -11.6726 1.46872 17.3415 -11.6726 
1.46872 14.1908 -11.1359 49.0265 14.1908 -11.6726 49.1563 15.1879 -11.6726 
49.1563 14.1908 -11.6186 57.1042 14.1908 -8.29361 -52.2157 22.1388 -11.6726 
-54.1668 22.1388 -9.58281 -7.71278 22.1388 -11.6726 -3.79792 22.1388 -11.6726 
-6.47921 28.9148 -11.6726 -6.47921 22.1388 -11.3205 41.2083 25.528 -11.6726 
49.7654 22.1388 -11.6726 49.1563 22.9838 -11.6726 57.1042 22.1388 -6.09265 
-46.6785 30.0867 -11.6726 -46.2188 31.112 -11.6726 -14.4271 37.6568 -11.6726 
-6.47921 31.0167 -11.6726 25.3125 35.3541 -11.6726 35.9322 30.0867 -11.6726 
33.2604 33.1543 -11.6726 41.2083 30.0867 -9.87428 49.1563 30.0867 -7.5355 
-41.4334 38.0346 -11.6726 -46.2188 38.0346 -6.94452 -38.2709 40.1588 -11.6726 
-30.323 45.7701 -11.6726 -14.8714 38.0346 -11.6726 -22.3751 43.4323 -11.6726 
-14.4271 38.0346 -11.5607 -0.00156513 38.0346 -11.6726 -6.47921 38.0346 -11.1484 
1.46872 38.3925 -11.6726 9.41664 41.0722 -11.6726 22.7346 38.0346 -11.6726 
17.3646 41.3509 -11.6726 25.3125 38.0346 -10.8438 33.2604 38.0346 -9.39303 
41.2083 38.0346 -4.78033 -38.2709 45.9825 -4.29978 -30.323 45.9825 -11.4894 
-22.3751 45.9825 -9.92073 -14.4271 45.9825 -8.49289 -6.47921 45.9825 -7.71732 
1.46872 45.9825 -8.09219 9.41664 45.9825 -7.9433 17.3646 45.9825 -7.55382 
-22.3751 -49.5393 -3.72472 -38.2709 -44.6296 -3.72472 -23.3191 -49.3926 -3.72472 
-30.323 -48.2662 -3.72472 -20.2301 -49.3926 -3.72472 -22.3751 -49.3926 -1.53238 
-14.4271 -48.9734 -3.72472 -6.47921 -47.7546 -3.72472 1.46872 -46.4942 -3.72472 
9.41664 -44.3282 -3.72472 17.3646 -41.7333 -3.72472 -42.1164 -41.4446 -3.72472 
-46.2188 -36.9282 -3.72472 18.364 -41.4446 -3.72472 25.3125 -39.4144 -3.72472 
33.2604 -38.0155 -3.72472 41.2083 -36.0409 -3.72472 -48.8749 -33.4967 -3.72472 
47.2071 -33.4967 -3.72472 49.1563 -32.4881 -3.72472 57.1042 -27.2017 -3.72472 
-53.4892 -25.5488 -3.72472 -54.1668 -24.3712 -3.72472 58.5809 -25.5488 -3.72472 
-57.8087 -17.6009 -3.72472 63.9472 -17.6009 -3.72472 65.0521 -14.572 -3.72472 
65.0521 -17.6009 3.10442 -61.1967 -9.65293 -3.72472 -62.1147 -5.24184 -3.72472 
66.8728 -9.65293 -3.72472 -62.8507 -1.70501 -3.72472 -62.1147 6.212 -3.72472 
-62.1147 -1.70501 -0.499896 66.7845 -1.70501 -3.72472 -62.1116 6.24292 -3.72472 
66.0303 6.24292 -3.72472 65.0521 9.07048 -3.72472 -59.9258 14.1908 -3.72472 
62.3592 14.1908 -3.72472 -56.8983 22.1388 -3.72472 -54.1668 27.5201 -3.72472 
59.4657 22.1388 -3.72472 57.1042 25.2245 -3.72472 -52.7135 30.0867 -3.72472 
53.0512 30.0867 -3.72472 49.1563 33.6391 -3.72472 -47.8703 38.0346 -3.72472 
-46.2188 39.7422 -3.72472 -46.2188 38.0346 0.548029 25.3125 45.3762 -3.72472 
33.2604 42.0777 -3.72472 42.5073 38.0346 -3.72472 41.2083 38.7841 -3.72472 
-38.698 45.9825 -3.72472 -38.2709 46.2475 -3.72472 -38.2709 45.9825 -2.79073 
-30.323 49.073 -3.72472 -22.3751 49.2766 -3.72472 -14.4271 49.5818 -3.72472 
-6.47921 49.0847 -3.72472 1.46872 49.0121 -3.72472 9.41664 49.3761 -3.72472 
23.6612 45.9825 -3.72472 17.3646 47.9146 -3.72472 -38.2709 -43.4217 4.22321 
-30.323 -47.7122 4.22321 -22.3751 -48.9534 4.22321 -14.4271 -48.8764 4.22321 
-6.47921 -47.801 4.22321 1.46872 -46.5425 4.22321 9.41664 -44.3497 4.22321 
17.3646 -41.8923 4.22321 -40.6142 -41.4446 4.22321 -46.2188 -35.2552 4.22321 
-38.2709 -41.4446 7.33711 -30.323 -41.4446 11.08 9.41664 -41.4446 10.7878 
18.8133 -41.4446 4.22321 17.3646 -41.4446 5.40597 25.3125 -39.3647 4.22321 
33.2604 -37.4979 4.22321 41.2083 -34.915 4.22321 -47.5245 -33.4967 4.22321 
-46.2188 -33.4967 6.33251 33.2604 -33.4967 10.2572 45.3345 -33.4967 4.22321 
41.2083 -33.4967 6.41168 49.1563 -32.0975 4.22321 57.1042 -27.1595 4.22321 
-51.8433 -25.5488 4.22321 -54.1668 -21.5519 4.22321 -46.2188 -25.5488 10.4974 
49.1563 -25.5488 10.8258 58.7221 -25.5488 4.22321 57.1042 -25.5488 6.11822 
65.0521 -17.8853 4.22321 -56.0678 -17.6009 4.22321 -54.1668 -17.6009 6.87511 
65.2269 -17.6009 4.22321 65.0521 -17.6009 4.48743 -58.9685 -9.65293 4.22321 
-54.1668 -9.65293 10.8003 67.8006 -9.65293 4.22321 65.0521 -9.65293 8.58392 
-60.6747 -1.70501 4.22321 -54.1668 -1.70501 10.3295 68.3791 -1.70501 4.22321 
65.0521 -1.70501 9.71376 -60.1358 6.24292 4.22321 -54.1668 6.24292 11.9058 
67.8337 6.24292 4.22321 65.0521 13.3746 4.22321 65.0521 6.24292 8.87458 
-57.7103 14.1908 4.22321 -54.1668 14.1908 8.87494 64.65 14.1908 4.22321 
57.1042 14.1908 11.7 -55.3939 22.1388 4.22321 -54.1668 24.3446 4.22321 
-54.1668 22.1388 5.83599 -46.2188 22.1388 10.904 60.7144 22.1388 4.22321 
57.1042 26.6295 4.22321 57.1042 22.1388 8.96922 -49.8158 30.0867 4.22321 
-46.2188 35.6291 4.22321 -46.2188 30.0867 7.98323 -38.2709 30.0867 11.4907 
41.2083 30.0867 12.0416 53.9579 30.0867 4.22321 49.1563 34.127 4.22321 
49.1563 30.0867 9.96315 -43.99 38.0346 4.22321 -38.2709 42.6932 4.22321 
-38.2709 38.0346 8.23454 -30.323 38.0346 10.3634 17.3646 38.0346 12.0496 
25.3125 44.4664 4.22321 25.3125 38.0346 10.4532 33.2604 41.5952 4.22321 
33.2604 38.0346 8.48899 42.6605 38.0346 4.22321 41.2083 38.8269 4.22321 
41.2083 38.0346 5.46648 -33.8265 45.9825 4.22321 -30.323 47.5689 4.22321 
[...]
POINT_DATA 564
SCALARS ImageScalars float
LOOKUP_TABLE default
0 0 0 0 0 0 0 0 0 
0 0 0 0 0 0 0 0 0 
0 0 0 0 0 0 0 0 0 
0 0 0 0 0 0 0 0 0 
0 0 0 0 0 0 0 0 0 
0 0 0 0 0 0 0 0 0 
0 0 0 0 0 0 0 0 0 
0 0 0 0 0 0 0 0 0 
0 0 0 0 0 0 0 0 0 
0 0 0 0 0 0 0 0 0 
0 0 0 0 0 0 0 0 0 
0 0 0 0 0 0 0 0 0 
0 0 0 0 0 0 0 0 0 
0 0 0 0 0 0 0 0 0 
0 0 0 0 0 0 0 0 0 
0 0 0 0 0 0 0 0 0 
0 0 0 0 0 0 0 0 0 
0 0 0 0 0 0 0 0 0 
0 0 0 0 0 0 0 0 0 
0 0 0 0 0 0 0 0 0 
0 0 0 0 0 0 0 0 0 
0 0 0 0 0 0 0 0 0 
0 0 0 0 0 0 0 0 0 
0 0 0 0 0 0 0 0 0 
0 0 0 0 0 0 0 0 0 
0 0 0 0 0 0 0 0 0 
0 0 0 0 0 0 0 0 0 
0 0 0 0 0 0 0 0 0 
0 0 0 0 0 0 0 0 0 
0 0 0 0 0 0 0 0 0 
0 0 0 0 0 0 0 0 0 
0 0 0 0 0 0 0 0 0 
0 0 0 0 0 0 0 0 0 
0 0 0 0 0 0 0 0 0 
0 0 0 0 0 0 0 0 0 
0 0 0 0 0 0 0 0 0 
0 0 0 0 0 0 0 0 0 
0 0 0 0 0 0 0 0 0 
0 0 0 0 0 0 0 0 0 
0 0 0 0 0 0 0 0 0 
0 0 0 0 0 0 0 0 0 
0 0 0 0 0 0 0 0 0 
0 0 0 0 0 0 0 0 0 
0 0 0 0 0 0 0 0 0 
0 0 0 0 0 0 0 0 0 
0 0 0 0 0 0 0 0 0 
0 0 0 0 0 0 0 0 0 
0 0 0 0 0 0 0 0 0 
0 0 0 0 0 0 0 0 0 
0 0 0 0 0 0 0 0 0 
0 0 0 0 0 0 0 0 0 
0 0 0 0 0 0 0 0 0 
0 0 0 0 0 0 0 0 0 
0 0 0 0 0 0 0 0 0 
0 0 0 0 0 0 0 0 0 
0 0 0 0 0 0 0 0 0 
0 0 0 0 0 0 0 0 0 
0 0 0 0 0 0 0 0 0 
0 0 0 0 0 0 0 0 0 
0 0 0 0 0 0 0 0 0 
0 0 0 0 0 0 0 0 0 
0 0 0 0 0 0 0 0 0 
0 0 0 0 0 0 
NORMALS Normals float
-0.00993848 -0.106449 0.994268 0.127986 0.581078 0.803721 -0.0301879 0.520687 0.853214 
-0.10194 0.499763 0.860142 -0.123449 0.500128 0.857107 0.322922 0.350744 0.879034 
0.111647 0.26386 0.958078 -0.0880493 0.289302 0.95318 -0.152428 0.222209 0.96301 
-0.0670047 0.190912 0.979317 0.0033949 0.267268 0.963616 -0.0531909 0.375584 0.925261 
-0.129547 0.478081 0.86871 -0.169204 0.589281 0.790011 0.531127 0.316753 0.785857 
0.199868 0.207766 0.957542 0.062415 0.119846 0.990829 -0.0956753 0.0919826 0.991154 
-0.217972 0.057375 0.974267 -0.0773418 0.0360249 0.996354 0.0797326 0.094143 0.992361 
0.0514935 0.164722 0.984995 -0.0491638 0.165601 0.984967 -0.102341 0.219413 0.970249 
-0.101951 0.295886 0.949767 -0.269185 0.314342 0.910345 0.715638 0.310707 0.625558 
0.341596 0.138484 0.929588 0.162469 0.046774 0.985604 0.00259816 -0.0144104 0.999893 
-0.161553 -0.0883649 0.9829 -0.202108 -0.0667628 0.977085 -0.0402562 0.110723 0.993036 
-0.00407198 -0.0943731 0.995529 0.142754 0.224963 0.963853 0.0259607 0.0860261 0.995955 
-0.0526869 -0.0500827 0.997354 -0.0323443 -0.0359015 0.998832 -0.118522 0.0199426 0.992751 
-0.168632 0.0250499 0.985361 -0.257385 0.19044 0.947357 0.560914 0.144511 0.815164 
0.221972 0.0636657 0.972972 0.0492028 -0.0243624 0.998492 -0.0752931 -0.116584 0.990323 
-0.159821 -0.17137 0.972157 -0.00383453 -0.18894 0.981981 0.0105132 -0.0924305 0.995664 
0.24773 0.0619482 0.966846 -0.0267382 -0.0987734 0.994751 -0.0081553 -0.113221 0.993536 
-0.226652 3.98456e-05 0.973976 -0.168764 -0.104708 0.980079 -0.0324931 -0.163744 0.985968 
-0.0362917 -0.128464 0.99105 -0.0975892 -0.0265326 0.994873 -0.166511 -0.0142883 0.985936 
-0.386845 0.0908665 0.917657 0.489142 -0.0337796 0.87155 0.152339 -0.0646214 0.986213 
-0.0110699 -0.0713271 0.997392 -0.142097 -0.0762776 0.986909 -0.234848 -0.105025 0.966341 
-0.0769073 -0.147522 0.986064 -0.0524469 -0.313528 0.948129 0.0981876 -0.213293 0.972042 
-0.215612 -0.141655 0.96615 -0.0342089 -0.0717964 0.996832 0.0170828 -0.0353577 0.999229 
-0.0689456 -0.0425578 0.996712 -0.164271 -0.0393944 0.985628 -0.412302 -0.0421373 0.910072 
0.521381 -0.20716 0.827797 0.192065 -0.119226 0.974113 0.0373091 -0.033664 0.998737 
-0.113448 -0.00943755 0.993499 -0.212982 0.0240373 0.97676 -0.180379 0.0297075 0.983148 
0.0832853 -0.285583 0.954728 0.0860977 -0.0889075 0.992312 -0.08732 -0.355971 0.930409 
0.0186483 -0.133155 0.99092 0.0685889 0.00666598 0.997623 -0.00679266 0.010306 0.999924 
-0.102121 0.0170761 0.994625 -0.15966 -0.0971062 0.982384 -0.418891 -0.154827 0.894739 
0.318242 -0.0701958 0.945407 0.115806 -0.045575 0.992226 -0.0867375 0.0198044 0.996034 
-0.197446 0.0650313 0.978154 -0.336705 0.00792729 0.941577 0.0995672 0.0112649 0.994967 
0.114971 0.0158115 0.993243 0.10205 0.0140434 0.99468 0.0243411 -0.0615274 0.997809 
-0.163228 -0.055784 0.98501 0.374989 -0.208302 0.903324 0.124875 -0.100643 0.987055 
0.00255765 -0.019641 0.999804 -0.222118 0.00931317 0.974975 -0.332692 -0.0324712 0.942476 
0.15067 0.0699968 0.986103 0.0829432 0.106734 0.990822 0.0446902 0.0749878 0.996183 
-0.00165286 -0.0616407 0.998097 -0.0825352 -0.107041 0.990823 -0.118255 -0.282327 0.952002 
-0.347242 -0.181166 0.920109 0.593022 -0.300666 0.746944 0.251266 -0.174333 0.952089 
0.0260779 -0.131279 0.991002 -0.214114 -0.194677 0.957213 -0.283017 -0.130508 0.950194 
-0.0764534 -0.00627868 0.997053 0.142518 -0.0360016 0.989137 0.0923768 -0.0213657 0.995495 
-0.0570199 -0.042312 0.997476 -0.0802737 -0.189967 0.978503 -0.199391 -0.234628 0.951416 
0.306364 -0.514852 0.800667 0.000365281 -0.372568 0.928005 -0.202871 -0.36204 0.909819 
0.149657 -0.195726 0.969172 0.0762714 -0.303879 0.949653 -0.139084 -0.276439 0.950914 
0.174507 0.687204 0.705194 -0.00730556 0.65438 0.756131 0.0414858 0.978914 0.200016 
-0.101924 0.601935 0.792014 -0.126374 0.5394 0.832512 0.438895 0.652775 0.617459 
0.445711 0.649877 0.615632 0.449885 0.656312 0.605687 -0.129188 0.548042 0.826414 
-0.11669 0.547035 0.828937 -0.14361 0.620982 0.770557 -0.14369 0.60122 0.786058 
-0.222818 0.796178 0.562542 -0.175397 0.634661 0.752623 -0.288237 0.923316 0.253787 
-0.179888 0.643445 0.744056 0.649535 0.493699 0.578243 0.655178 0.490654 0.574456 
0.668984 0.503531 0.546733 -0.196515 0.620734 0.758993 -0.206167 0.575114 0.791668 
-0.217391 0.687446 0.692935 -0.279574 0.510972 0.812863 -0.296164 0.810522 0.505313 
0.661093 0.43274 0.612938 0.734858 0.351738 0.579883 -0.340305 0.370094 0.864421 
-0.328065 0.294101 0.897707 -0.396864 0.437711 0.806789 -0.647386 0.64125 0.411934 
0.749935 0.316208 0.581043 -0.393955 0.246804 0.885374 -0.438104 0.172617 0.882195 
-0.555026 0.310264 0.771805 0.709771 0.183191 0.680196 0.25764 -0.373101 0.891301 
-0.427276 0.109624 0.897451 -0.784727 0.171422 0.595666 0.701262 -0.00629307 0.712876 
0.976796 0.0468301 0.20899 0.254579 -0.373155 0.892157 0.25777 -0.372983 0.891313 
0.257245 -0.371264 0.892182 0.25741 -0.373056 0.891386 -0.41852 -0.0431636 0.907182 
-0.758208 -0.0554215 0.649653 0.63287 -0.197036 0.748767 0.614772 -0.171948 0.769733 
-0.0201178 -0.19629 0.98034 0.101815 -0.146722 0.983924 -0.33719 -0.0566405 0.939731 
-0.422618 -0.156487 0.892696 -0.423224 -0.161625 0.891492 -0.781936 -0.206691 0.588094 
0.612356 -0.165517 0.773062 0.64136 -0.176236 0.746725 -0.241935 -0.0353522 0.969648 
-0.206573 -0.0320793 0.977905 0.103563 -0.0607278 0.992767 0.122562 -0.0567591 0.990837 
0.105146 -0.140667 0.984458 -0.341584 -0.0552132 0.938228 -0.345773 -0.0714094 0.935597 
-0.345614 -0.0560015 0.936704 -0.593148 -0.309628 0.743173 0.62145 -0.266277 0.736815 
0.765158 -0.310092 0.564249 -0.115007 0.0439982 0.99239 -0.00141716 0.064803 0.997897 
-0.0765988 0.00282254 0.997058 -0.0787978 0.0614544 0.994995 -0.16624 -0.327764 0.930019 
-0.362011 -0.203575 0.909673 -0.364424 -0.23007 0.902365 -0.657405 -0.439178 0.612325 
0.605801 -0.30368 0.73538 0.59449 -0.323595 0.736117 -0.145514 -0.276159 0.950033 
-0.0670867 -0.0247479 0.99744 -0.151919 -0.329425 0.93188 -0.222083 -0.276927 0.934875 
-0.222086 -0.345499 0.911761 -0.27849 -0.417906 0.864753 -0.526714 -0.620207 0.581305 
0.398368 -0.526572 0.751016 0.716687 -0.624248 0.310926 0.333897 -0.577789 0.744763 
0.156851 -0.617311 0.770925 -0.141153 -0.287733 0.947252 -0.160471 -0.534415 0.829849 
-0.138709 -0.28692 0.947859 0.127346 -0.192987 0.972902 0.0144366 -0.194733 0.98075 
0.143617 -0.214208 0.966173 0.0569363 -0.442912 0.894756 -0.178827 -0.360725 0.915368 
-0.141258 -0.453133 0.88018 -0.206018 -0.445078 0.871471 -0.290849 -0.611828 0.735577 
-0.462846 -0.795418 0.39126 0.471277 -0.873461 0.122323 0.16099 -0.633946 0.756436 
-0.118274 -0.702299 0.701988 -0.0797338 -0.694991 0.714584 -0.0259996 -0.698084 0.715543 
0.00851651 -0.740643 0.671845 -0.0196753 -0.782169 0.622755 -0.193114 -0.847473 0.494466 
0.0437343 0.98278 0.179527 0.544817 0.8319 0.105436 0.0719447 0.981759 0.175991 
0.278983 0.948473 0.150225 0.00292464 0.982157 0.188042 0.0466361 0.997446 0.054093 
-0.107827 0.970441 0.215911 -0.157316 0.955 0.251449 -0.212976 0.941871 0.259845 
-0.284761 0.928166 0.239623 -0.291907 0.929865 0.223921 0.672321 0.733802 0.0975655 
0.778182 0.622749 0.0813443 -0.283827 0.93296 0.221423 -0.225499 0.949644 0.217545 
-0.228241 0.947457 0.224124 -0.308443 0.928842 0.205219 0.822187 0.564805 0.0707424 
-0.402124 0.887652 0.224435 -0.439521 0.861999 0.252547 -0.659164 0.682314 0.316148 
0.855382 0.513324 0.0694278 0.86194 0.503115 0.0627321 -0.702742 0.644326 0.301658 
0.905058 0.422324 0.0501343 -0.824274 0.367118 0.431042 -0.839738 0.309827 0.445924 
-0.888357 0.436607 -0.142114 0.953731 0.295719 0.0542889 0.984525 0.164121 0.0614438 
-0.878008 0.181681 0.442825 0.995761 0.0566839 0.0724335 0.978566 -0.176967 0.105315 
0.98742 0.0634933 -0.144814 -0.860192 -0.0542478 0.507077 0.978383 -0.177888 0.105465 
-0.831911 -0.211118 0.513179 -0.808506 -0.265076 0.525408 0.934427 -0.326515 0.142247 
-0.775131 -0.342261 0.531065 0.906884 -0.402883 0.123477 0.885214 -0.453683 0.1028 
-0.779164 -0.465309 0.419988 -0.722792 -0.524685 0.449752 0.871366 -0.480453 0.0994349 
-0.662419 -0.632667 0.401165 -0.588312 -0.710899 0.385373 0.776935 -0.628123 0.0428245 
0.741807 -0.669022 0.0461764 0.711535 -0.644956 -0.278838 -0.333526 -0.912058 0.238558 
-0.396328 -0.87806 0.268206 -0.475929 -0.81096 0.340346 -0.451691 -0.826844 0.335119 
0.480945 -0.873108 0.0798454 0.465088 -0.881521 0.0813269 0.48099 -0.876595 0.0151592 
0.184822 -0.979478 0.0803987 0.0395163 -0.974557 0.22063 -0.00977205 -0.933158 0.359332 
-0.0445418 -0.899907 0.433802 0.0222965 -0.926956 0.374507 -0.0750871 -0.958337 0.275595 
-0.317369 -0.922575 0.219392 -0.252652 -0.949674 0.185163 0.553356 0.760575 -0.339593 
0.314477 0.889388 -0.331804 0.0556454 0.953252 -0.297008 -0.0704525 0.969897 -0.233102 
-0.140015 0.966892 -0.213342 -0.209434 0.955457 -0.20794 -0.27767 0.942545 -0.185763 
-0.294849 0.940376 -0.169577 0.619452 0.706143 -0.342989 0.75591 0.557428 -0.343328 
0.533586 0.68 -0.502879 0.261039 0.621329 -0.738788 -0.225491 0.832348 -0.506311 
-0.286906 0.942249 -0.172778 -0.292795 0.929684 -0.223515 -0.258127 0.944721 -0.202171 
-0.269761 0.917829 -0.291237 -0.299622 0.884289 -0.358132 0.777151 0.525905 -0.34563 
0.734719 0.509136 -0.448296 -0.309638 0.702447 -0.640853 -0.335004 0.881535 -0.332668 
-0.294571 0.831807 -0.470451 -0.386936 0.865312 -0.318616 -0.622374 0.726112 -0.292253 
0.795658 0.464303 -0.389037 0.817453 0.42195 -0.392083 0.646166 0.30742 -0.698543 
-0.344135 0.520461 -0.781467 -0.656281 0.696857 -0.289285 -0.616268 0.701297 -0.358325 
-0.865051 0.443045 -0.235368 0.835 0.362716 -0.413777 0.76759 0.347924 -0.538288 
-0.871863 0.432296 -0.230161 -0.865411 0.435806 -0.247259 0.853406 0.253376 -0.455519 
0.654131 0.137805 -0.743722 -0.951764 0.204703 -0.228565 -0.826373 0.239803 -0.509512 
0.86133 0.0637904 -0.504025 0.628443 0.0420332 -0.776719 -0.983174 0.000373032 -0.182671 
-0.760625 0.0117452 -0.649085 0.875654 -0.148135 -0.459659 0.593589 -0.0298961 -0.804213 
-0.959555 -0.225063 -0.169119 -0.90176 -0.389163 -0.188096 -0.796016 -0.220606 -0.563642 
0.833464 -0.279386 -0.476739 0.67232 -0.262519 -0.692149 -0.892746 -0.40787 -0.191433 
-0.531509 -0.243371 -0.811337 0.81183 -0.374726 -0.447787 0.789851 -0.406013 -0.459663 
0.753739 -0.375529 -0.539311 0.449812 -0.263306 -0.853428 -0.807669 -0.541753 -0.232753 
-0.744768 -0.62588 -0.231505 -0.636289 -0.469415 -0.612197 0.721964 -0.475305 -0.502846 
0.630109 -0.550092 -0.548052 0.581575 -0.422252 -0.695323 0.248115 -0.323085 -0.913266 
-0.24703 -0.457853 -0.854018 -0.679483 -0.694404 -0.236866 -0.562436 -0.785278 -0.258851 
-0.456307 -0.57565 -0.678536 0.568063 -0.590908 -0.572828 0.481538 -0.674812 -0.559241 
0.394039 -0.522161 -0.756361 0.199704 -0.410406 -0.889767 -0.124483 -0.444305 -0.887185 
-0.300052 -0.871569 -0.387731 -0.191688 -0.618763 -0.761832 -0.315467 -0.883012 -0.347519 
-0.226939 -0.745447 -0.626744 -0.44238 -0.848463 -0.290535 -0.415087 -0.860399 -0.295662 
-0.40527 -0.833189 -0.376234 0.362765 -0.766426 -0.530088 0.255212 -0.841683 -0.475853 
0.275034 -0.729591 -0.626142 0.117516 -0.89514 -0.430016 0.106772 -0.780946 -0.615405 
0.0884255 -0.908391 -0.408664 0.0644791 -0.745405 -0.663487 0.00971599 -0.94405 -0.32966 
0.0278434 -0.769182 -0.638423 -0.0990598 -0.935932 -0.337962 -0.0939702 -0.774084 -0.62607 
-0.160536 -0.878961 -0.449061 -0.130042 -0.800079 -0.58563 -0.242934 -0.891708 -0.381891 
-0.196459 -0.899602 -0.390027 -0.183026 -0.861892 -0.47291 0.149735 0.616366 -0.773093 
0.0308656 0.675237 -0.736955 -0.078991 0.732191 -0.676503 -0.157038 0.764661 -0.625006 
0.43631 0.433453 -0.788513 0.207922 0.585145 -0.78382 0.254444 0.555225 -0.791823 
0.14971 0.55898 -0.815554 0.0595501 0.55712 -0.828294 -0.0454361 0.631413 -0.774115 
-0.1888 0.778658 -0.59837 -0.144624 0.731788 -0.666011 -0.209408 0.779701 -0.590097 
-0.263386 0.737526 -0.621839 -0.300431 0.685715 -0.662975 0.452892 0.415256 -0.788955 
0.431535 0.409914 -0.803585 0.229979 0.348343 -0.908717 0.0965333 0.300276 -0.948955 
0.0768789 0.251581 -0.964778 0.0574883 0.275395 -0.959611 0.0027527 0.343709 -0.939072 
-0.13245 0.409192 -0.902784 -0.238154 0.507152 -0.828299 -0.310009 0.627213 -0.714492 
-0.299511 0.594521 -0.746215 -0.282297 0.556356 -0.781522 -0.2749 0.563636 -0.778938 
0.567309 0.273891 -0.776624 0.553122 0.253658 -0.793545 0.365349 0.230852 -0.901792 
0.177746 0.158046 -0.971302 0.0605328 0.111918 -0.991872 0.0236555 0.0356506 -0.999084 
0.0869403 0.0359401 -0.995565 0.0273579 0.0477904 -0.998483 -0.0731592 0.0383206 -0.996584 
-0.150283 0.132322 -0.979748 -0.205594 0.207642 -0.956356 -0.15113 0.346656 -0.925737 
-0.299545 0.488822 -0.819345 -0.269224 0.480925 -0.834404 -0.273551 0.468479 -0.840058 
-0.462895 0.393536 -0.794265 0.533504 0.252482 -0.807234 0.492286 0.216114 -0.843178 
0.309103 0.0978416 -0.945982 0.0783157 0.0390844 -0.996162 -0.0310672 -0.0406319 -0.998691 
0.00710031 -0.0686308 -0.997617 0.0777459 -0.0635919 -0.994943 0.0123326 -0.135999 -0.990632 
-0.0388998 -0.119067 -0.992124 -0.0773799 -0.0586149 -0.995277 -0.0956958 0.0353012 -0.994784 
-0.0952396 0.142663 -0.985178 -0.102233 0.184092 -0.977578 -0.209983 0.371078 -0.904549 
-0.486957 0.321925 -0.811934 -0.415313 0.257427 -0.872494 0.57002 0.12655 -0.811827 
0.367194 0.110101 -0.923605 0.204989 -0.0212442 -0.978534 0.0580109 -0.0578566 -0.996638 
-0.0490102 -0.0771185 -0.995817 -0.000923105 -0.0646224 -0.997909 0.0176989 0.0351528 -0.999225 
-0.0307891 -0.170554 -0.984867 0.00670325 0.018075 -0.999814 0.00380943 -0.0206218 -0.99978 
0.00170416 -0.0203532 -0.999791 0.00309087 0.0697014 -0.997563 -0.0827812 0.101312 -0.991405 
-0.210656 0.0605944 -0.975681 -0.537618 0.102498 -0.836935 -0.41609 0.0570755 -0.907531 
0.533879 0.0309542 -0.844994 0.338928 -0.00419191 -0.940803 0.151543 -0.0437027 -0.987484 
0.0296576 -0.0821426 -0.996179 -0.0366638 -0.112702 -0.992952 0.117767 -0.0872805 -0.989198 
-0.0269001 0.0568262 -0.998022 -0.00544574 -0.00319492 -0.99998 0.121605 0.0427942 -0.991656 
-0.12607 -0.0232463 -0.991749 -0.00471207 -0.0110601 -0.999928 0.0231327 0.00479708 -0.999721 
-0.0882913 0.0213673 -0.995866 -0.194467 -0.0100686 -0.980857 -0.521791 0.0196843 -0.852846 
-0.384175 0.0318218 -0.922712 0.572239 -0.0317293 -0.819473 0.287037 -0.0906888 -0.953617 
0.13741 -0.0788455 -0.987371 -0.0124297 -0.0921067 -0.995672 -0.0585627 -0.0924635 -0.993992 
0.154514 -0.106055 -0.982282 0.10558 -0.154079 -0.982401 -0.0528507 0.0170725 -0.998456 
-0.0109604 -0.220874 -0.975241 -0.0350705 -0.097194 -0.994647 0.0279803 -0.0175413 -0.999455 
0.0371843 -0.0568999 -0.997687 -0.0874982 -0.0448867 -0.995153 -0.219984 -0.0714322 -0.972885 
-0.517868 -0.16654 -0.839093 -0.492092 -0.21429 -0.843757 -0.401604 -0.146764 -0.903977 
0.446604 -0.265144 -0.854543 0.392165 -0.252599 -0.884534 0.354904 -0.24518 -0.902181 
0.138684 -0.146904 -0.97938 0.0202753 -0.109432 -0.993788 -0.0473276 -0.0654392 -0.996734 
0.0561095 -0.0550054 -0.996908 0.0977688 -0.174695 -0.979756 -0.0507765 -0.0724449 -0.996079 
-0.00805869 -0.103994 -0.994545 0.0671783 -0.0671648 -0.995478 0.0347266 -0.0569547 -0.997773 
-0.0058067 -0.0740623 -0.997237 -0.115353 -0.190381 -0.97491 -0.491604 -0.229106 -0.84014 
-0.280413 -0.185818 -0.941722 0.369439 -0.242669 -0.89701 0.234055 -0.296007 -0.926066 
0.226035 -0.222057 -0.948472 0.0607304 -0.18041 -0.981715 -0.00443251 -0.104571 -0.994507 
0.0558318 -0.0460962 -0.997376 0.0827702 -0.0822805 -0.993166 0.00624988 -0.0604148 -0.998154 
-0.00480584 -0.0560565 -0.998416 0.0200817 -0.101802 -0.994602 0.0193046 -0.136029 -0.990517 
-0.0963073 -0.185886 -0.97784 -0.243797 -0.44601 -0.861184 -0.205115 -0.260848 -0.943338 
-0.358685 -0.333409 -0.871885 -0.336451 -0.37395 -0.864269 -0.312282 -0.318584 -0.894977 
0.200624 -0.299324 -0.932821 0.163791 -0.313848 -0.935239 0.151249 -0.274671 -0.949568 
0.0873331 -0.161532 -0.982996 0.080056 -0.142043 -0.986618 0.0771473 -0.164265 -0.983395 
-0.0213488 -0.16897 -0.98539 -0.0449203 -0.200459 -0.978672 -0.120125 -0.434783 -0.892487 
-0.0155539 -0.255071 -0.966797 -0.126775 -0.495299 -0.859422 -0.0430783 -0.322614 -0.94555 
-0.240678 -0.4517 -0.859093 -0.166103 -0.526217 -0.833969 -0.139672 -0.401455 -0.905166 
0.163789 -0.353243 -0.921082 0.158519 -0.367969 -0.916226 0.160744 -0.351426 -0.922313 
0.0546319 -0.386627 -0.920616 0.0552916 -0.346858 -0.936287 0.0459749 -0.43933 -0.897149 
0.0528563 -0.350991 -0.934886 -0.045885 -0.474996 -0.878791 -0.0311088 -0.382266 -0.923529 
-0.118983 -0.437986 -0.891073 -0.0910927 -0.456983 -0.884799 -0.0928713 -0.41458 -0.905262 

