# vtk DataFile Version 4.2
vtk output
ASCII
DATASET POLYDATA
POINTS 514 float
10.9394 -0.204832 -21.9433 -11.6515 -30.3259 -14.5616 -4.12119 -30.3259 -16.1244 
3.40908 -30.3259 -17.7504 10.9394 -30.3259 -18.5166 18.4696 -30.3259 -18.5209 
25.9999 -30.3259 -17.0425 33.5302 -30.3259 -15.5944 -26.712 -22.7957 -16.4062 
-19.1817 -22.7957 -17.4715 -11.6515 -22.7957 -17.7553 -4.12119 -22.7957 -18.3433 
3.40908 -22.7957 -19.8409 10.9394 -22.7957 -20.8192 18.4696 -22.7957 -20.051 
25.9999 -22.7957 -19.6597 33.5302 -22.7957 -18.4172 41.0605 -22.7957 -15.7145 
-34.2423 -15.2654 -15.8491 -26.712 -15.2654 -17.2743 -19.1817 -15.2654 -18.3756 
-11.6515 -15.2654 -18.8051 -4.12119 -15.2654 -19.1029 3.40908 -15.2654 -20.3617 
10.9394 -15.2654 -20.5534 18.4696 -15.2654 -20.296 25.9999 -15.2654 -20.5111 
33.5302 -15.2654 -20.0441 41.0605 -15.2654 -18.2681 48.5907 -15.2654 -16.0216 
-34.2423 -7.73511 -15.1982 -26.712 -7.73511 -16.5561 -19.1817 -7.73511 -17.7004 
-11.6515 -7.73511 -19.4819 -4.12119 -7.73511 -20.0412 3.40908 -7.73511 -20.4249 
10.9394 -0.723077 -21.8471 10.9394 -7.73511 -20.547 18.4696 -7.73511 -20.1905 
25.9999 -7.73511 -20.3258 33.5302 -7.73511 -20.2006 41.0605 -7.73511 -19.3047 
48.5907 -7.73511 -17.1439 -34.2423 -0.204832 -15.6077 -26.712 -0.204832 -16.9063 
-19.1817 -0.204832 -17.9563 -11.6515 -0.204832 -20.6852 -4.12119 -0.204832 -19.4771 
10.5756 -0.204832 -21.8471 3.40908 -0.204832 -19.7592 11.5022 -0.204832 -21.8471 
10.9394 0.260349 -21.8471 18.4696 -0.204832 -20.6551 25.9999 -0.204832 -20.4267 
33.5302 -0.204832 -20.3635 41.0605 -0.204832 -19.6181 48.5907 -0.204832 -17.6176 
-34.2423 7.32544 -16.5562 -26.712 7.32544 -17.5647 -19.1817 7.32544 -17.8835 
-11.6515 7.32544 -18.7436 -4.12119 7.32544 -19.5969 3.40908 7.32544 -19.9525 
10.9394 7.32544 -20.3666 18.4696 7.32544 -20.1262 25.9999 7.32544 -20.2421 
33.5302 7.32544 -20.1496 41.0605 7.32544 -19.3311 48.5907 7.32544 -17.2652 
-34.2423 14.8557 -16.0063 -26.712 14.8557 -16.9488 -19.1817 14.8557 -16.877 
-11.6515 14.8557 -16.9685 -4.12119 14.8557 -18.6528 3.40908 14.8557 -18.8622 
10.9394 14.8557 -19.0739 18.4696 14.8557 -19.9294 25.9999 14.8557 -20.6462 
33.5302 14.8557 -20.3171 41.0605 14.8557 -18.736 48.5907 14.8557 -16.7017 
-26.712 22.386 -14.9877 -19.1817 22.386 -16.235 -11.6515 22.386 -17.0927 
-4.12119 22.386 -17.8403 3.40908 22.386 -18.1273 10.9394 22.386 -18.4858 
18.4696 22.386 -19.5791 25.9999 22.386 -19.5308 33.5302 22.386 -18.6476 
41.0605 22.386 -16.561 -11.6515 29.9163 -14.9789 -4.12119 29.9163 -15.7449 
3.40908 29.9163 -16.2388 10.9394 29.9163 -16.7597 18.4696 29.9163 -17.354 
25.9999 29.9163 -17.1317 33.5302 29.9163 -15.4436 -11.6515 -30.6007 -14.3168 
-4.12119 -32.57 -14.3168 3.40908 -34.4067 -14.3168 10.9394 -35.3372 -14.3168 
18.4696 -35.4089 -14.3168 25.9999 -33.831 -14.3168 33.5302 -31.6262 -14.3168 
-34.2423 -30.3259 -7.72704 -26.712 -26.5659 -14.3168 -26.712 -30.3259 -10.7567 
-13.8668 -30.3259 -14.3168 -19.1817 -29.2913 -14.3168 -19.1817 -30.3259 -13.3046 
35.6623 -30.3259 -14.3168 41.0605 -25.0481 -14.3168 41.0605 -30.3259 -8.48645 
-41.7726 -22.7957 -9.6664 -32.7664 -22.7957 -14.3168 -34.2423 -21.0813 -14.3168 
-34.2423 -22.7957 -13.7866 43.507 -22.7957 -14.3168 48.5907 -18.428 -14.3168 
48.5907 -22.7957 -9.81272 -37.6945 -15.2654 -14.3168 -41.7726 -15.2654 -11.9764 
50.884 -15.2654 -14.3168 56.121 -15.2654 -7.19004 -49.3028 -7.73511 -8.13596 
-37.0061 -7.73511 -14.3168 -41.7726 -7.73511 -12.721 53.3589 -7.73511 -14.3168 
56.121 -7.73511 -11.7848 -49.3028 -0.204832 -9.30177 -39.5984 -0.204832 -14.3168 
-41.7726 -0.204832 -13.7802 54.216 -0.204832 -14.3168 56.121 -0.204832 -12.7105 
-49.3028 7.32544 -8.80313 -40.1145 7.32544 -14.3168 -41.7726 7.32544 -13.6524 
53.715 7.32544 -14.3168 56.121 7.32544 -12.2314 -49.3028 14.8557 -6.84251 
-39.7813 14.8557 -14.3168 -41.7726 14.8557 -13.4949 -34.2423 20.282 -14.3168 
51.8107 14.8557 -14.3168 48.5907 19.6831 -14.3168 56.121 14.8557 -8.21394 
-41.7726 22.386 -9.47651 -30.3995 22.386 -14.3168 -34.2423 22.386 -13.5564 
-26.712 24.2869 -14.3168 -19.1817 29.2002 -14.3168 45.2678 22.386 -14.3168 
41.0605 26.2481 -14.3168 48.5907 22.386 -11.592 -34.2423 29.9163 -8.61827 
-26.712 29.9163 -11.9438 -17.1986 29.9163 -14.3168 -19.1817 29.9163 -14.0609 
-11.6515 30.9297 -14.3168 -4.12119 32.1267 -14.3168 3.40908 32.9593 -14.3168 
10.9394 33.7772 -14.3168 18.4696 34.0704 -14.3168 25.9999 33.4859 -14.3168 
35.9208 29.9163 -14.3168 33.5302 31.0039 -14.3168 41.0605 29.9163 -10.0563 
-11.6515 37.4465 -6.93993 -4.12119 37.4465 -7.76232 3.40908 37.4465 -8.8589 
10.9394 37.4465 -9.33392 18.4696 37.4465 -7.05478 -34.2423 -31.0114 -6.78652 
-26.712 -32.6089 -6.78652 -19.1817 -33.5351 -6.78652 -11.6515 -35.14 -6.78652 
-4.12119 -36.6326 -6.78652 3.40908 -37.2984 -6.78652 10.9394 -37.8133 -6.78652 
18.4696 -37.766 -6.78652 25.9999 -37.2246 -6.78652 33.5302 -35.2476 -6.78652 
41.0605 -31.263 -6.78652 -35.6337 -30.3259 -6.78652 -41.7726 -26.3783 -6.78652 
42.3095 -30.3259 -6.78652 41.0605 -30.3259 -1.54886 48.5907 -24.9715 -6.78652 
-46.4812 -22.7957 -6.78652 -49.3028 -22.7957 -2.63106 50.6897 -22.7957 -6.78652 
56.121 -15.6502 -6.78652 -48.8021 -15.2654 -6.78652 -49.3028 -13.6594 -6.78652 
-49.3028 -15.2654 -6.25445 56.3767 -15.2654 -6.78652 56.121 -15.2654 -5.35302 
-50.8864 -7.73511 -6.78652 59.4159 -7.73511 -6.78652 -52.05 -0.204832 -6.78652 
-56.8331 -0.204832 0.598651 60.1278 -0.204832 -6.78652 -51.4105 7.32544 -6.78652 
59.9508 7.32544 -6.78652 -49.3562 14.8557 -6.78652 -49.3028 14.9835 -6.78652 
57.0586 14.8557 -6.78652 56.121 16.4106 -6.78652 56.121 14.8557 -1.42457 
-45.2235 22.386 -6.78652 -41.7726 25.8346 -6.78652 51.9849 22.386 -6.78652 
48.5907 25.9535 -6.78652 -36.9118 29.9163 -6.78652 -34.2423 31.6487 -6.78652 
-26.712 35.136 -6.78652 -19.1817 36.9766 -6.78652 25.9999 36.371 -6.78652 
33.5302 34.5246 -6.78652 43.472 29.9163 -6.78652 41.0605 31.5346 -6.78652 
41.0605 29.9163 -0.988783 -12.8943 37.4465 -6.78652 -19.1817 37.4465 -3.36374 
-11.6515 37.5296 -6.78652 -4.12119 37.9399 -6.78652 3.40908 38.4878 -6.78652 
10.9394 38.5989 -6.78652 10.9394 37.4465 -0.86808 18.9799 37.4465 -6.78652 
18.4696 37.5237 -6.78652 18.4696 37.4465 -6.43442 -34.2423 -33.012 0.743752 
-26.712 -33.6084 0.743752 -19.1817 -34.1371 0.743752 -11.6515 -35.2541 0.743752 
-4.12119 -36.1858 0.743752 3.40908 -36.4164 0.743752 10.9394 -36.8864 0.743752 
18.4696 -37.6477 0.743752 25.9999 -36.2771 0.743752 33.5302 -34.3584 0.743752 
-49.3028 -24.2518 0.743752 -40.784 -30.3259 0.743752 -41.7726 -29.8647 0.743752 
40.3427 -30.3259 0.743752 33.5302 -30.3259 6.22702 41.0605 -29.8647 0.743752 
48.5907 -23.1204 0.743752 -50.5307 -22.7957 0.743752 48.897 -22.7957 0.743752 
48.5907 -22.7957 1.06574 -54.0869 -15.2654 0.743752 54.9192 -15.2654 0.743752 
48.5907 -15.2654 7.6349 56.121 -12.6453 0.743752 -56.0433 -7.73511 0.743752 
-56.8331 -0.870138 0.743752 58.2699 -7.73511 0.743752 56.121 -7.73511 3.46033 
-56.9006 -0.204832 0.743752 -56.8331 0.215663 0.743752 59.1722 -0.204832 0.743752 
56.121 -0.204832 4.4798 -55.5896 7.32544 0.743752 58.7362 7.32544 0.743752 
56.121 13.8635 0.743752 56.121 7.32544 4.01869 -53.1151 14.8557 0.743752 
-49.3028 21.2656 0.743752 55.7206 14.8557 0.743752 -48.4968 22.386 0.743752 
-41.7726 29.2055 0.743752 41.0605 29.4052 0.743752 50.2961 22.386 0.743752 
48.5907 24.074 0.743752 48.5907 22.386 2.44986 -40.836 29.9163 0.743752 
-34.2423 34.1033 0.743752 -26.712 36.9607 0.743752 10.9394 37.0966 0.743752 
18.4696 35.7109 0.743752 25.9999 34.6596 0.743752 25.9999 29.9163 7.12151 
39.8453 29.9163 0.743752 33.5302 32.464 0.743752 33.5302 29.9163 4.25 
-23.0452 37.4465 0.743752 -19.1817 37.937 0.743752 -19.1817 37.4465 2.52768 
-11.6515 38.0368 0.743752 -11.6515 37.4465 2.568 -4.12119 38.0019 0.743752 
-4.12119 37.4465 2.26466 8.1626 37.4465 0.743752 3.40908 38.0017 0.743752 
3.40908 37.4465 1.99975 -34.2423 -32.0179 8.27403 -26.712 -32.4823 8.27403 
-19.1817 -32.5335 8.27403 -11.6515 -32.9397 8.27403 -4.12119 -33.3347 8.27403 
3.40908 -33.2174 8.27403 10.9394 -33.2364 8.27403 18.4696 -33.0744 8.27403 
25.9999 -31.262 8.27403 -49.3028 -23.9109 8.27403 -38.9288 -30.3259 8.27403 
-41.7726 -29.2658 8.27403 -34.2423 -30.3259 11.3492 -26.712 -30.3259 12.4849 
-19.1817 -30.3259 12.2889 -11.6515 -30.3259 11.9115 -4.12119 -30.3259 11.9248 
3.40908 -30.3259 11.6769 10.9394 -30.3259 11.4646 18.4696 -30.3259 10.8562 
28.7335 -30.3259 8.27403 25.9999 -30.3259 9.15993 33.5302 -27.7433 8.27403 
41.0605 -23.0356 8.27403 -50.3428 -22.7957 8.27403 -49.3028 -22.7957 10.3832 
10.9394 -22.7957 15.7466 18.4696 -22.7957 14.5445 25.9999 -22.7957 13.3771 
33.5302 -22.7957 11.0654 41.3253 -22.7957 8.27403 41.0605 -22.7957 8.44216 
-54.6843 -15.2654 8.27403 25.9999 -15.2654 14.8996 33.5302 -15.2654 13.3359 
47.4126 -15.2654 8.27403 41.0605 -15.2654 11.1079 48.5907 -13.7132 8.27403 
-56.7205 -7.73511 8.27403 -56.8331 -6.61266 8.27403 33.5302 -7.73511 14.6246 
41.0605 -7.73511 12.8647 51.3137 -7.73511 8.27403 48.5907 -7.73511 10.118 
-57.4759 -0.204832 8.27403 -56.8331 2.98383 8.27403 -56.8331 -0.204832 10.3619 
33.5302 -0.204832 14.9322 41.0605 -0.204832 13.414 52.4834 -0.204832 8.27403 
48.5907 -0.204832 10.9923 -55.9369 7.32544 8.27403 25.9999 7.32544 15.6436 
33.5302 7.32544 14.6082 41.0605 7.32544 13.026 51.8174 7.32544 8.27403 
48.5907 7.32544 10.4379 -52.8802 14.8557 8.27403 -49.3028 20.2918 8.27403 
25.9999 14.8557 15.4368 33.5302 14.8557 13.7942 41.0605 14.8557 11.7668 
48.6958 14.8557 8.27403 48.5907 14.9676 8.27403 48.5907 14.8557 8.33254 
-47.5786 22.386 8.27403 -41.7726 27.8547 8.27403 3.40908 22.386 15.4879 
10.9394 22.386 14.4448 18.4696 22.386 13.7997 25.9999 28.7409 8.27403 
25.9999 22.386 12.9703 33.5302 26.1782 8.27403 33.5302 22.386 11.2576 
41.9442 22.386 8.27403 41.0605 23.0783 8.27403 41.0605 22.386 8.80076 
-38.6898 29.9163 8.27403 -34.2423 32.5962 8.27403 -34.2423 29.9163 12.0407 
-26.712 34.8585 8.27403 -26.712 29.9163 14.8675 -19.1817 35.6292 8.27403 
[...]
POINT_DATA 514
SCALARS ImageScalars float
LOOKUP_TABLE default
0 0 0 0 0 0 0 0 0 
0 0 0 0 0 0 0 0 0 
0 0 0 0 0 0 0 0 0 
0 0 0 0 0 0 0 0 0 
0 0 0 0 0 0 0 0 0 
0 0 0 0 0 0 0 0 0 
0 0 0 0 0 0 0 0 0 
0 0 0 0 0 0 0 0 0 
0 0 0 0 0 0 0 0 0 
0 0 0 0 0 0 0 0 0 
0 0 0 0 0 0 0 0 0 
0 0 0 0 0 0 0 0 0 
0 0 0 0 0 0 0 0 0 
0 0 0 0 0 0 0 0 0 
0 0 0 0 0 0 0 0 0 
0 0 0 0 0 0 0 0 0 
0 0 0 0 0 0 0 0 0 
0 0 0 0 0 0 0 0 0 
0 0 0 0 0 0 0 0 0 
0 0 0 0 0 0 0 0 0 
0 0 0 0 0 0 0 0 0 
0 0 0 0 0 0 0 0 0 
0 0 0 0 0 0 0 0 0 
0 0 0 0 0 0 0 0 0 
0 0 0 0 0 0 0 0 0 
0 0 0 0 0 0 0 0 0 
0 0 0 0 0 0 0 0 0 
0 0 0 0 0 0 0 0 0 
0 0 0 0 0 0 0 0 0 
0 0 0 0 0 0 0 0 0 
0 0 0 0 0 0 0 0 0 
0 0 0 0 0 0 0 0 0 
0 0 0 0 0 0 0 0 0 
0 0 0 0 0 0 0 0 0 
0 0 0 0 0 0 0 0 0 
0 0 0 0 0 0 0 0 0 
0 0 0 0 0 0 0 0 0 
0 0 0 0 0 0 0 0 0 
0 0 0 0 0 0 0 0 0 
0 0 0 0 0 0 0 0 0 
0 0 0 0 0 0 0 0 0 
0 0 0 0 0 0 0 0 0 
0 0 0 0 0 0 0 0 0 
0 0 0 0 0 0 0 0 0 
0 0 0 0 0 0 0 0 0 
0 0 0 0 0 0 0 0 0 
0 0 0 0 0 0 0 0 0 
0 0 0 0 0 0 0 0 0 
0 0 0 0 0 0 0 0 0 
0 0 0 0 0 0 0 0 0 
0 0 0 0 0 0 0 0 0 
0 0 0 0 0 0 0 0 0 
0 0 0 0 0 0 0 0 0 
0 0 0 0 0 0 0 0 0 
0 0 0 0 0 0 0 0 0 
0 0 0 0 0 0 0 0 0 
0 0 0 0 0 0 0 0 0 
0 
NORMALS Normals float
0.0461779 -0.010297 0.99888 0.149408 0.621939 0.768681 0.193228 0.510753 0.837731 
0.154518 0.501101 0.851482 0.0490143 0.49354 0.868341 -0.0966233 0.452378 0.886577 
-0.167049 0.517093 0.83947 -0.343709 0.607468 0.716133 0.22535 0.291537 0.929636 
0.085959 0.269314 0.959208 0.0546679 0.237977 0.969731 0.140507 0.182335 0.973145 
0.156638 0.156057 0.975249 0.01353 0.120184 0.992659 -0.0755482 0.0974328 0.992371 
-0.1084 0.207548 0.9722 -0.230464 0.254785 0.939133 -0.40994 0.435918 0.801202 
0.315341 0.0769729 0.945852 0.167607 0.00567638 0.985838 0.104906 0.0143187 0.994379 
0.0476498 0.112761 0.992479 0.10372 0.111037 0.988389 0.095116 0.0390488 0.9947 
-0.00432027 -0.0175377 0.999837 -0.00314661 0.00962492 0.999949 -0.0153235 0.0476549 0.998746 
-0.148128 0.118417 0.981853 -0.252561 0.197431 0.947224 -0.482354 0.289801 0.82665 
0.23656 -0.0200895 0.971409 0.15929 -0.028236 0.986828 0.189472 -0.0289868 0.981458 
0.153454 0.123376 0.980423 0.0605121 0.0267651 0.997809 0.0337801 -0.0360094 0.99878 
0.042479 -0.00348812 0.999091 -0.0157754 0.0930016 0.995541 -0.0146328 0.023716 0.999612 
0.000697428 -0.00532145 0.999986 -0.0658764 0.0206269 0.997615 -0.186804 0.0910152 0.978172 
-0.378727 0.108778 0.919094 0.19291 0.0890885 0.977164 0.146597 0.0685718 0.986817 
0.243779 0.011787 0.969759 0.09806 -0.0399729 0.994377 -0.0626746 -0.0314221 0.997539 
0.0520773 -0.0115743 0.998576 0.174254 -0.0337613 0.984122 0.0357158 -0.0101074 0.999311 
0.0445902 -0.0217168 0.998769 -0.100399 -0.00423381 0.994938 -0.0192727 -0.00555307 0.999799 
-0.0526108 -0.00338113 0.998609 -0.171584 0.00161524 0.985168 -0.35209 0.00725271 0.935938 
0.243226 0.0194259 0.969775 0.0856641 -0.0024972 0.996321 0.0719975 -0.0753942 0.994551 
0.119684 -0.252185 0.960249 0.0736493 -0.0546868 0.995784 0.0514411 -0.0612134 0.996798 
0.0114609 -0.194474 0.980841 -0.00800494 -0.0480079 0.998815 0.00156784 0.0140613 0.9999 
-0.0590025 -0.0036015 0.998251 -0.176414 -0.0603234 0.982466 -0.363875 -0.0652147 0.929162 
0.216977 -0.178977 0.959629 0.0570167 -0.160468 0.985393 0.000993655 -0.108923 0.99405 
0.117178 -0.096576 0.988404 0.124973 -0.116292 0.985321 0.0277479 -0.119221 0.99248 
0.0699105 -0.121185 0.990165 0.102769 -0.0352025 0.994082 0.0271734 -0.0552701 0.998102 
-0.1297 -0.0894125 0.987514 -0.241331 -0.152865 0.958327 -0.455838 -0.252033 0.853634 
0.168687 -0.293214 0.941047 0.129852 -0.178288 0.975373 0.109732 -0.1193 0.986776 
0.0664768 -0.185325 0.980426 0.0421906 -0.169904 0.984557 0.0923769 -0.14806 0.984655 
0.0688018 -0.150287 0.986245 -0.0543843 -0.212212 0.975709 -0.182553 -0.26588 0.946563 
-0.369193 -0.405353 0.836293 0.107006 -0.428314 0.897272 0.0777958 -0.42912 0.899891 
0.0650474 -0.407241 0.911001 0.0669679 -0.393246 0.916991 0.0256608 -0.443875 0.895721 
-0.0986249 -0.532261 0.840816 -0.313004 -0.629559 0.711115 0.152838 0.63725 0.75535 
0.201465 0.646997 0.735395 0.147077 0.764604 0.627494 0.0538334 0.812134 0.580982 
-0.0784433 0.799849 0.595053 -0.201011 0.722821 0.661154 -0.356619 0.67756 0.643223 
0.329243 0.807288 0.48978 0.242583 0.523889 0.816513 0.211771 0.82302 0.52706 
0.151441 0.648902 0.745649 0.147505 0.647833 0.747365 0.157335 0.741803 0.651901 
-0.403178 0.636586 0.657424 -0.461976 0.499314 0.732982 -0.561433 0.783331 0.266806 
0.51641 0.43409 0.738165 0.332558 0.350394 0.875574 0.350995 0.294617 0.888821 
0.36294 0.366388 0.856758 -0.470734 0.496166 0.72954 -0.532167 0.43251 0.727828 
-0.663796 0.661058 0.349825 0.383165 0.109414 0.917177 0.48971 0.16298 0.856517 
-0.58949 0.32318 0.740309 -0.85265 0.471458 0.225201 0.634572 0.142077 0.759692 
0.294201 0.0158802 0.955612 0.408346 0.100388 0.907291 -0.595204 0.1701 0.785365 
-0.792006 0.24076 0.561035 0.63124 0.039435 0.774584 0.305688 0.0685756 0.949659 
0.360191 0.0597806 0.930961 -0.615615 0.0142992 0.787917 -0.762376 0.0190736 0.646854 
0.678138 -0.122789 0.724604 0.388786 0.000548444 0.921328 0.433746 -0.0151337 0.900908 
-0.596972 -0.133673 0.791048 -0.768155 -0.202038 0.607551 0.74234 -0.270947 0.612796 
0.404241 -0.191969 0.89428 0.479085 -0.204157 0.853696 0.26296 -0.325527 0.908231 
-0.621076 -0.265106 0.737552 -0.496355 -0.439305 0.748761 -0.86537 -0.405544 0.294396 
0.540597 -0.501254 0.675647 0.224521 -0.338849 0.913658 0.290613 -0.389853 0.873819 
0.19618 -0.344602 0.918021 0.160206 -0.399663 0.902554 -0.433321 -0.497816 0.751273 
-0.411723 -0.546882 0.728975 -0.587025 -0.61379 0.527886 0.426972 -0.671839 0.60525 
0.289527 -0.550382 0.783105 0.148123 -0.425928 0.89255 0.164955 -0.430989 0.887152 
0.103534 -0.48339 0.869261 0.0828583 -0.54089 0.837002 0.0700098 -0.563843 0.822909 
0.0475639 -0.604729 0.79501 -0.0192213 -0.719852 0.693862 -0.156666 -0.750374 0.64218 
-0.367849 -0.656004 0.659049 -0.327414 -0.691879 0.643509 -0.493324 -0.800665 0.339951 
0.0603195 -0.95074 0.304066 0.0661815 -0.948677 0.309244 0.0531144 -0.934893 0.350933 
-0.029263 -0.948844 0.314385 -0.140043 -0.988925 0.0491533 0.318862 0.840355 0.438328 
0.147631 0.935706 0.320404 0.163573 0.954402 0.249721 0.201218 0.952557 0.228355 
0.143306 0.975147 0.168973 0.0774542 0.993133 0.0876788 0.0310612 0.997341 0.0659288 
-0.0382861 0.994483 0.097659 -0.155627 0.982601 0.101365 -0.363857 0.918789 0.153085 
-0.552612 0.819269 0.153031 0.358026 0.817696 0.450766 0.531708 0.62299 0.573734 
-0.574089 0.803834 0.155797 -0.54565 0.808939 -0.218822 -0.694299 0.700247 0.166139 
0.662451 0.454512 0.595464 0.778004 0.531009 0.335766 -0.735273 0.659186 0.157633 
-0.851885 0.484751 0.198262 0.701435 0.182512 0.688969 0.698053 0.173397 0.694734 
0.72593 0.19234 0.660327 -0.856578 0.475712 0.19993 -0.871291 0.478986 0.106887 
0.686833 0.149003 0.711378 -0.948412 0.243824 0.202643 0.735344 0.022916 0.677307 
0.958725 -0.0295934 0.282792 -0.977843 0.033747 0.206599 0.751489 -0.136157 0.645543 
-0.955461 -0.203664 0.213577 0.743789 -0.272015 0.610562 0.743559 -0.275888 0.609103 
-0.880921 -0.426735 0.204635 -0.862387 -0.467235 0.194884 -0.893683 -0.416806 -0.166144 
0.665282 -0.522385 0.533398 0.592061 -0.605017 0.532371 -0.750514 -0.644372 0.146676 
-0.669741 -0.727782 0.147581 0.500965 -0.705755 0.500942 0.446669 -0.743446 0.49777 
0.295589 -0.83083 0.471538 0.137071 -0.924506 0.355668 -0.196056 -0.979692 0.0420109 
-0.293863 -0.953665 0.0645482 -0.536427 -0.837514 0.104 -0.478985 -0.872491 0.0966061 
-0.441509 -0.840225 -0.314789 0.071352 -0.950189 0.303396 0.104596 -0.983335 0.148703 
0.0595016 -0.953421 0.295718 0.0626232 -0.966574 0.248621 0.0438331 -0.977088 0.208272 
-0.0641097 -0.990571 0.121072 -0.127816 -0.959042 -0.252786 -0.14524 -0.988846 0.0330095 
-0.142279 -0.989265 0.033336 -0.14308 -0.989598 0.0149911 0.239948 0.969647 0.0470023 
0.0718101 0.99736 -0.0108092 0.107734 0.992123 -0.0639174 0.134762 0.981753 -0.134164 
0.0756591 0.977808 -0.195364 0.0446944 0.96898 -0.243065 0.0774087 0.961108 -0.265102 
-0.0349953 0.972675 -0.22952 -0.189485 0.931939 -0.309169 -0.365534 0.869489 -0.332226 
0.766468 0.625196 0.147164 0.438099 0.893931 0.0946427 0.473415 0.874271 0.107368 
-0.505495 0.774094 -0.381122 -0.38695 0.645751 -0.658237 -0.51839 0.764277 -0.383606 
-0.664381 0.634277 -0.395337 0.806207 0.569618 0.159893 -0.669417 0.628687 -0.39577 
-0.662189 0.625493 -0.412631 0.895547 0.339546 0.287585 -0.82647 0.445469 -0.344244 
-0.475322 0.408775 -0.779084 -0.853248 0.37615 -0.36122 0.944228 0.159746 0.28795 
0.960821 -0.013584 0.276835 -0.876056 0.258041 -0.407358 -0.803976 0.210699 -0.556083 
0.960525 -0.0301816 0.27655 0.960933 -0.0415619 0.273642 -0.913524 0.0280423 -0.405816 
-0.793781 0.0253797 -0.607674 0.946135 -0.225954 0.231892 -0.886694 -0.214054 -0.409823 
-0.866121 -0.372392 -0.333404 -0.795318 -0.156608 -0.585614 0.898737 -0.401917 0.175311 
0.803761 -0.587503 0.0938551 -0.857163 -0.398141 -0.326734 0.778872 -0.621947 0.0808763 
0.629316 -0.774864 0.0595572 -0.416224 -0.797692 -0.436401 -0.65793 -0.641884 -0.393844 
-0.613944 -0.680993 -0.399151 -0.608675 -0.627642 -0.485367 0.604857 -0.794594 0.0526254 
0.450358 -0.892099 0.036561 0.235516 -0.971577 -0.0238857 -0.143208 -0.923014 -0.357124 
-0.148134 -0.899566 -0.410897 -0.18365 -0.899857 -0.395639 -0.177108 -0.714454 -0.676896 
-0.392902 -0.809909 -0.435518 -0.282129 -0.863311 -0.418446 -0.29287 -0.775191 -0.559738 
0.152124 -0.987021 -0.0514501 0.0681827 -0.99467 -0.0773445 0.0598979 -0.985907 -0.156203 
0.00439571 -0.992251 -0.12417 -0.00662242 -0.978694 -0.205217 -0.00226989 -0.984976 -0.172675 
-0.0140561 -0.969827 -0.24339 -0.111022 -0.942775 -0.314404 -0.0556027 -0.967884 -0.24517 
-0.0699792 -0.950951 -0.301323 0.202997 0.928648 -0.310491 0.0317318 0.951901 -0.304757 
0.0280204 0.935773 -0.351488 0.0498376 0.886749 -0.459557 0.017864 0.850567 -0.525563 
-0.00595132 0.833163 -0.552995 -0.00722871 0.80404 -0.594531 -0.100731 0.716659 -0.690111 
-0.219706 0.664606 -0.714162 0.717181 0.663471 -0.213209 0.340792 0.910893 -0.232669 
0.42516 0.883839 -0.195108 0.164836 0.885127 -0.435178 0.0321543 0.870692 -0.490776 
-0.0237741 0.8488 -0.528179 -0.0129728 0.779786 -0.625912 -0.0120164 0.710277 -0.703819 
-0.0236798 0.696481 -0.717184 -0.0444335 0.67408 -0.737321 -0.121085 0.600388 -0.790489 
-0.277624 0.618129 -0.735419 -0.226917 0.623091 -0.74851 -0.346007 0.522701 -0.779143 
-0.425645 0.470449 -0.772984 0.751628 0.627309 -0.203811 0.708224 0.637069 -0.304239 
-0.100454 0.3145 -0.943927 -0.141998 0.294976 -0.944895 -0.197971 0.310777 -0.929637 
-0.300906 0.384376 -0.872761 -0.429159 0.466642 -0.773348 -0.423118 0.462727 -0.779009 
0.913425 0.375232 -0.157658 -0.178606 0.158787 -0.971024 -0.230399 0.212905 -0.94952 
-0.437785 0.382558 -0.81363 -0.337577 0.278529 -0.899146 -0.46379 0.360799 -0.809149 
0.978715 0.16969 -0.115419 0.983872 0.137 -0.115011 -0.195615 0.097977 -0.975774 
-0.288331 0.136982 -0.947682 -0.567895 0.183355 -0.802419 -0.472334 0.197338 -0.859045 
0.992508 -0.0492032 -0.111835 0.982009 -0.145038 -0.120926 0.976422 -0.0489405 -0.21025 
-0.176634 -0.00143975 -0.984276 -0.259278 0.00977651 -0.965753 -0.608718 0.0216257 -0.793092 
-0.45799 0.0192452 -0.888749 0.951241 -0.277634 -0.134384 -0.155072 -0.0410309 -0.987051 
-0.168685 -0.0702003 -0.983167 -0.270915 -0.0972336 -0.95768 -0.577575 -0.139844 -0.804271 
-0.46047 -0.163796 -0.872432 0.86619 -0.464747 -0.183643 0.770587 -0.599757 -0.215607 
-0.160298 -0.162544 -0.973593 -0.222973 -0.194676 -0.955188 -0.33344 -0.258475 -0.906647 
-0.443879 -0.364637 -0.818542 -0.441622 -0.367694 -0.818395 -0.44036 -0.364457 -0.82052 
0.711939 -0.658505 -0.243957 0.578469 -0.767483 -0.276305 -0.123659 -0.368681 -0.921294 
-0.0993504 -0.375641 -0.921425 -0.0884023 -0.434667 -0.896242 -0.168819 -0.662944 -0.729387 
-0.139781 -0.439783 -0.88716 -0.259045 -0.608822 -0.749821 -0.249652 -0.466003 -0.848832 
-0.406059 -0.504634 -0.76188 -0.387399 -0.520422 -0.760975 -0.38673 -0.495677 -0.777653 
0.502507 -0.803655 -0.318788 0.386822 -0.84511 -0.368996 0.331575 -0.779901 -0.53086 
0.174068 -0.889308 -0.422886 0.122046 -0.701157 -0.702484 0.0288454 -0.891345 -0.452407 
-0.0345469 -0.629635 -0.776122 -0.0495043 -0.863928 -0.501176 -0.103715 -0.594682 -0.797243 
-0.0821728 -0.81048 -0.579974 -0.137818 -0.571652 -0.808839 -0.142288 -0.742647 -0.654392 
-0.152532 -0.567965 -0.808795 -0.186286 -0.696727 -0.692726 -0.176237 -0.620091 -0.764479 
-0.157984 -0.679323 -0.716632 -0.155245 -0.680777 -0.71585 -0.154683 -0.67447 -0.721916 
0.393426 0.656073 -0.644037 0.127059 0.755456 -0.642762 0.00309723 0.738975 -0.673726 
-0.0884383 0.677558 -0.730133 -0.103019 0.573107 -0.812979 -0.0835682 0.482975 -0.871637 
-0.0554433 0.414195 -0.908498 0.483456 0.600371 -0.637044 0.659832 0.463974 -0.591059 
0.377543 0.579675 -0.722107 0.110533 0.556521 -0.823448 -0.0499524 0.532659 -0.844854 
-0.130744 0.502982 -0.854351 -0.140932 0.481652 -0.864956 -0.0986442 0.449196 -0.887971 
-0.0950841 0.323918 -0.941295 -0.059766 0.392947 -0.917617 -0.102934 0.311189 -0.944757 
-0.151786 0.202582 -0.96743 0.707578 0.387509 -0.590906 0.65053 0.376605 -0.65953 
0.302348 0.35081 -0.886294 -0.137017 0.3549 -0.924809 -0.126064 0.400919 -0.907398 
-0.144083 0.412981 -0.89927 -0.193755 0.301567 -0.93355 -0.178883 0.248416 -0.951993 
-0.161214 0.174076 -0.971446 -0.155539 0.182837 -0.970762 -0.18067 0.0814526 -0.980165 
0.808174 0.204405 -0.552335 0.620378 0.196944 -0.759174 -0.213496 0.139359 -0.966953 
-0.231941 0.115259 -0.965877 -0.220736 0.215207 -0.951295 -0.245439 0.119697 -0.961994 
-0.18197 0.0751021 -0.980432 -0.181336 0.073288 -0.980687 0.85795 -0.0413673 -0.512066 
0.598699 -0.0119225 -0.800885 -0.251481 -0.0495844 -0.966591 -0.140023 0.0671808 -0.987867 
-0.181863 -0.0137962 -0.983227 -0.309462 -0.0361219 -0.950226 -0.185297 -0.0136547 -0.982588 
-0.167491 -0.0317903 -0.985361 -0.188491 -0.0172139 -0.981924 0.806809 -0.27802 -0.52131 
0.662612 -0.25095 -0.70567 -0.160651 -0.284689 -0.945063 -0.0597704 -0.217345 -0.974263 
-0.19124 -0.126821 -0.973316 -0.327171 -0.238368 -0.914407 -0.163403 -0.0479743 -0.985392 
-0.226962 -0.107349 -0.967969 0.717552 -0.462037 -0.521191 0.707459 -0.47543 -0.522942 
0.704319 -0.460158 -0.540546 0.358946 -0.42123 -0.832901 -0.221538 -0.337299 -0.914959 
-0.180798 -0.305285 -0.93494 -0.108223 -0.382854 -0.917448 -0.125259 -0.374095 -0.918892 
-0.14931 -0.43258 -0.889146 -0.108365 -0.324081 -0.939802 -0.132071 -0.299658 -0.944861 
-0.129431 -0.172629 -0.976446 -0.0900268 -0.233849 -0.968096 -0.09183 -0.187538 -0.977955 
0.481317 -0.638042 -0.60103 0.476413 -0.640141 -0.602702 0.474353 -0.636541 -0.608115 
0.260878 -0.685802 -0.679425 0.193341 -0.571416 -0.797561 0.0996474 -0.658842 -0.745653 
-0.0104254 -0.491104 -0.871038 -0.0524122 -0.583521 -0.810405 -0.130809 -0.405179 -0.904831 
-0.133051 -0.484275 -0.86474 -0.181202 -0.344796 -0.921022 -0.13667 -0.362168 -0.922039 
-0.162667 -0.384563 -0.908653 -0.167016 -0.350251 -0.921645 0.0810489 0.356127 -0.930916 
-0.0625224 0.367684 -0.927847 0.125544 0.342404 -0.931127 0.295385 0.268066 -0.916999 
0.0832601 0.344419 -0.935117 -0.0819306 0.356164 -0.930825 -0.0641076 0.356756 -0.931995 
-0.126724 0.315364 -0.940471 -0.119441 0.274475 -0.954147 0.394482 0.188602 -0.899341 
0.304469 0.197 -0.931928 0.0891166 0.210267 -0.973574 -0.0456382 0.228151 -0.972556 
-0.105182 0.218456 -0.970162 -0.213134 0.139603 -0.966998 -0.118792 0.202311 -0.97209 
0.460556 0.00141031 -0.88763 0.318095 0.0105831 -0.948 0.113064 0.0236532 -0.993306 
-0.0641701 0.018902 -0.99776 -0.161199 -0.00833858 -0.986887 -0.241843 -0.057421 -0.968615 
-0.171333 -0.244611 -0.954364 -0.203942 -0.0809932 -0.975627 0.434802 -0.214201 -0.87468 
0.34091 -0.306273 -0.888807 0.335503 -0.207441 -0.918916 0.0948743 -0.203954 -0.974372 
-0.0796178 -0.214226 -0.973534 -0.169429 -0.277958 -0.945533 -0.217211 -0.303974 -0.927588 
-0.203259 -0.23553 -0.950374 0.163945 -0.390395 -0.905933 0.111166 -0.400458 -0.909547 
0.108279 -0.384806 -0.916624 -0.130744 -0.359153 -0.924075 -0.0822454 -0.381176 -0.920837 
-0.0898247 -0.365242 -0.926569 
