# vtk DataFile Version 4.2
vtk output
ASCII
DATASET POLYDATA
POINTS 556 float
28.3117 10.6243 -19.7658 -17.6413 -42.9875 -13.6095 -9.98246 -42.9875 -14.9459 
-2.32364 -42.9875 -15.1036 5.33518 -42.9875 -14.5125 12.994 -42.9875 -13.8982 
20.6528 -42.9875 -12.6554 -32.9589 -35.3287 -14.3888 -25.3001 -35.3287 -16.6922 
-17.6413 -35.3287 -17.6651 -9.98246 -35.3287 -18.3799 -2.32364 -35.3287 -18.1968 
5.33518 -35.3287 -17.4101 12.994 -35.3287 -17.2595 20.6528 -35.3287 -17.1566 
28.3117 -35.3287 -16.831 35.9705 -35.3287 -14.0113 -40.6177 -27.6699 -15.1321 
-32.9589 -27.6699 -17.8627 -25.3001 -27.6699 -18.3433 -17.6413 -27.6699 -18.745 
-9.98246 -27.6699 -19.3719 -2.32364 -27.6699 -19.0198 5.33518 -27.6699 -18.1807 
12.994 -27.6699 -17.9837 20.6528 -27.6699 -19.2811 28.3117 -27.6699 -18.794 
35.9705 -27.6699 -17.7783 43.6293 -27.6699 -13.8937 -48.2766 -20.011 -12.031 
-40.6177 -20.011 -16.7411 -32.9589 -20.011 -18.0776 -25.3001 -20.011 -18.1683 
-17.6413 -20.011 -18.2736 -9.98246 -20.011 -18.4252 -2.32364 -20.011 -18.183 
5.33518 -20.011 -17.0083 12.994 -20.011 -17.6138 20.6528 -20.011 -19.0883 
28.3117 -20.011 -19.2706 35.9705 -20.011 -18.6721 43.6293 -20.011 -16.255 
-48.2766 -12.3522 -13.0797 -40.6177 -12.3522 -17.2724 -32.9589 -12.3522 -18.3827 
-25.3001 -12.3522 -17.76 -17.6413 -12.3522 -16.4436 -9.98246 -12.3522 -16.0349 
-2.32364 -12.3522 -18.0918 5.33518 -12.3522 -15.4168 12.994 -12.3522 -16.5497 
20.6528 -12.3522 -18.191 28.3117 -12.3522 -18.8973 35.9705 -12.3522 -18.8146 
43.6293 -12.3522 -16.8933 51.2881 -12.3522 -12.2449 -48.2766 -4.69339 -12.23 
-40.6177 -4.69339 -16.6347 -32.9589 -4.69339 -18.0391 -25.3001 -4.69339 -17.665 
-17.6413 -4.69339 -15.9084 -9.98246 -4.69339 -17.0146 -2.32364 -4.69339 -18.0981 
5.33518 -4.69339 -18.1777 12.994 -4.69339 -17.4816 20.6528 -4.69339 -17.679 
28.3117 -4.69339 -18.6687 35.9705 -4.69339 -18.7037 43.6293 -4.69339 -17.2287 
51.2881 -4.69339 -12.9776 -40.6177 2.96543 -15.4061 -32.9589 2.96543 -17.2452 
-25.3001 2.96543 -17.5958 -17.6413 2.96543 -17.0295 -9.98246 2.96543 -18.5727 
-2.32364 2.96543 -14.8625 5.33518 2.96543 -17.6921 12.994 2.96543 -17.7873 
20.6528 2.96543 -18.0735 28.3117 9.45428 -19.6558 28.3117 2.96543 -19.0463 
35.9705 2.96543 -18.9961 43.6293 2.96543 -17.2008 51.2881 2.96543 -12.3449 
-40.6177 10.6243 -14.3921 -32.9589 10.6243 -16.5299 -25.3001 10.6243 -17.233 
-17.6413 10.6243 -16.919 -9.98246 10.6243 -16.3292 -2.32364 10.6243 -18.3868 
5.33518 10.6243 -17.8796 12.994 10.6243 -16.6089 27.58 10.6243 -19.6558 
20.6528 10.6243 -18.5888 29.9836 10.6243 -19.6558 28.3117 12.2793 -19.6558 
35.9705 10.6243 -19.246 43.6293 10.6243 -16.8683 -40.6177 18.2831 -13.8339 
-32.9589 18.2831 -16.1389 -25.3001 18.2831 -17.3327 -17.6413 18.2831 -17.3579 
-9.98246 18.2831 -17.0154 -2.32364 18.2831 -17.1018 5.33518 18.2831 -16.1594 
12.994 18.2831 -16.3188 20.6528 18.2831 -18.366 28.3117 18.2831 -19.2546 
35.9705 18.2831 -18.788 43.6293 18.2831 -15.4455 -32.9589 25.9419 -15.412 
-25.3001 25.9419 -16.788 -17.6413 25.9419 -17.3695 -9.98246 25.9419 -16.7301 
-2.32364 25.9419 -15.3736 5.33518 25.9419 -14.7103 12.994 25.9419 -15.9068 
20.6528 25.9419 -17.8301 28.3117 25.9419 -17.9168 35.9705 25.9419 -17.2751 
43.6293 25.9419 -12.2194 -32.9589 33.6007 -13.3667 -25.3001 33.6007 -15.6348 
-17.6413 33.6007 -16.2178 -9.98246 33.6007 -15.5268 -2.32364 33.6007 -14.2377 
5.33518 33.6007 -13.9196 12.994 33.6007 -14.7334 20.6528 33.6007 -15.6808 
28.3117 33.6007 -15.64 35.9705 33.6007 -13.3346 -25.3001 41.2595 -12.2669 
-17.6413 41.2595 -13.5745 -9.98246 41.2595 -13.1898 -2.32364 41.2595 -12.0772 
12.994 41.2595 -12.3246 20.6528 41.2595 -12.846 -17.6413 -44.674 -11.997 
-9.98246 -46.1058 -11.997 -2.32364 -46.4268 -11.997 5.33518 -45.8902 -11.997 
12.994 -45.363 -11.997 20.6528 -43.6583 -11.997 -32.9589 -38.4208 -11.997 
-22.6953 -42.9875 -11.997 -25.3001 -41.9078 -11.997 -25.3001 -42.9875 -10.5021 
23.0488 -42.9875 -11.997 28.3117 -41.3999 -11.997 28.3117 -42.9875 -9.68346 
35.9705 -37.892 -11.997 -37.4873 -35.3287 -11.997 -40.6177 -32.8066 -11.997 
-40.6177 -35.3287 -8.80621 39.5564 -35.3287 -11.997 43.6293 -31.1989 -11.997 
43.6293 -35.3287 -6.16056 -45.4328 -27.6699 -11.997 -48.2766 -20.1187 -11.997 
-48.2766 -27.6699 -7.70231 45.9608 -27.6699 -11.997 -48.3082 -20.011 -11.997 
49.618 -20.011 -11.997 51.2881 -13.4149 -11.997 51.2881 -20.011 -9.76886 
-49.5701 -12.3522 -11.997 51.5369 -12.3522 -11.997 -48.5146 -4.69339 -11.997 
-48.2766 -3.36122 -11.997 52.2774 -4.69339 -11.997 -46.659 2.96543 -11.997 
-48.2766 2.96543 -10.8133 51.6197 2.96543 -11.997 51.2881 4.52138 -11.997 
-44.9429 10.6243 -11.997 -48.2766 10.6243 -9.57547 49.7514 10.6243 -11.997 
51.2881 10.6243 -9.16768 -43.8828 18.2831 -11.997 -48.2766 18.2831 -7.94247 
-40.6177 25.0244 -11.997 47.162 18.2831 -11.997 -48.2766 25.9419 -5.44763 
-40.063 25.9419 -11.997 -40.6177 25.9419 -11.6898 43.8242 25.9419 -11.997 
43.6293 26.3119 -11.997 -36.2046 33.6007 -11.997 -40.6177 33.6007 -8.84781 
-32.9589 37.0341 -11.997 5.33518 40.3629 -11.997 28.3117 39.8724 -11.997 
37.9162 33.6007 -11.997 35.9705 35.9202 -11.997 -26.168 41.2595 -11.997 
-32.9589 41.2595 -9.1054 -25.3001 41.5877 -11.997 -17.6413 43.647 -11.997 
-9.98246 43.5952 -11.997 -0.41269 41.2595 -11.997 -2.32364 41.45 -11.997 
8.53893 41.2595 -11.997 5.33518 41.2595 -11.7039 12.994 42.1457 -11.997 
24.791 41.2595 -11.997 20.6528 42.7592 -11.997 28.3117 41.2595 -11.0298 
35.9705 41.2595 -6.7374 -17.6413 48.9184 -6.16004 -9.98246 48.9184 -7.54611 
-2.32364 48.9184 -7.47729 5.33518 48.9184 -6.30111 12.994 48.9184 -7.2358 
20.6528 48.9184 -7.04703 -25.3001 -45.8971 -4.33816 -17.6413 -48.4719 -4.33816 
-9.98246 -50.0083 -4.33816 -2.32364 -50.5827 -4.33816 5.33518 -50.4304 -4.33816 
12.994 -49.5759 -4.33816 20.6528 -48.0013 -4.33816 28.3117 -45.7547 -4.33816 
-40.6177 -38.0298 -4.33816 -31.9686 -42.9875 -4.33816 -32.9589 -42.5224 -4.33816 
34.3326 -42.9875 -4.33816 35.9705 -42.1086 -4.33816 43.6293 -36.0389 -4.33816 
-43.5278 -35.3287 -4.33816 -48.2766 -29.9059 -4.33816 44.3417 -35.3287 -4.33816 
43.6293 -35.3287 0.556619 -49.8578 -27.6699 -4.33816 50.3865 -27.6699 -4.33816 
51.2881 -26.1217 -4.33816 -52.9242 -20.011 -4.33816 54.4299 -20.011 -4.33816 
-54.7045 -12.3522 -4.33816 56.3421 -12.3522 -4.33816 -54.2409 -4.69339 -4.33816 
-55.9354 -4.69339 3.05102 56.9956 -4.69339 -4.33816 -53.5887 2.96543 -4.33816 
-55.9354 2.96543 3.12025 55.9487 2.96543 -4.33816 -52.7491 10.6243 -4.33816 
53.1645 10.6243 -4.33816 51.2881 15.1556 -4.33816 -50.937 18.2831 -4.33816 
49.9179 18.2831 -4.33816 -49.1491 25.9419 -4.33816 -48.2766 27.981 -4.33816 
46.3688 25.9419 -4.33816 43.6293 31.6971 -4.33816 -44.8503 33.6007 -4.33816 
-40.6177 37.7723 -4.33816 42.6147 33.6007 -4.33816 -37.2086 41.2595 -4.33816 
-32.9589 44.3869 -4.33816 -25.3001 47.8738 -4.33816 28.3117 48.4237 -4.33816 
37.4657 41.2595 -4.33816 35.9705 42.9545 -4.33816 -21.7732 48.9184 -4.33816 
-17.6413 49.9776 -4.33816 -9.98246 50.9021 -4.33816 -2.32364 51.1593 -4.33816 
5.33518 50.3676 -4.33816 12.994 50.8102 -4.33816 27.1386 48.9184 -4.33816 
20.6528 50.9351 -4.33816 28.3117 48.9184 -2.15234 -25.3001 -45.9773 3.32066 
-17.6413 -48.4879 3.32066 -9.98246 -49.783 3.32066 -2.32364 -50.1733 3.32066 
5.33518 -50.0357 3.32066 12.994 -49.2738 3.32066 20.6528 -47.9649 3.32066 
28.3117 -45.4159 3.32066 -40.6177 -38.1218 3.32066 -32.051 -42.9875 3.32066 
-32.9589 -42.5554 3.32066 -25.3001 -42.9875 10.1327 20.6528 -42.9875 10.9317 
33.0065 -42.9875 3.32066 28.3117 -42.9875 8.33319 35.9705 -41.1923 3.32066 
-43.6687 -35.3287 3.32066 -48.2766 -30.3449 3.32066 -40.6177 -35.3287 9.29428 
43.1292 -35.3287 3.32066 35.9705 -35.3287 10.9077 43.6293 -34.804 3.32066 
-50.2276 -27.6699 3.32066 -48.2766 -27.6699 8.74574 49.5951 -27.6699 3.32066 
51.2881 -24.8307 3.32066 -53.6577 -20.011 3.32066 53.6524 -20.011 3.32066 
51.2881 -20.011 7.29207 -55.88 -12.3522 3.32066 -55.9354 -8.57896 3.32066 
56.2992 -12.3522 3.32066 51.2881 -12.3522 10.6801 -55.9901 -4.69339 3.32066 
-55.9354 -4.69339 3.64265 57.0879 -4.69339 3.32066 -55.988 2.96543 3.32066 
-55.9354 3.8881 3.32066 -55.9354 2.96543 3.70016 56.0715 2.96543 3.32066 
-55.5689 10.6243 3.32066 52.9968 10.6243 3.32066 51.2881 14.0784 3.32066 
51.2881 10.6243 7.05296 -54.0521 18.2831 3.32066 49.1475 18.2831 3.32066 
-51.6372 25.9419 3.32066 -48.2766 31.6772 3.32066 45.9356 25.9419 3.32066 
43.6293 30.4544 3.32066 43.6293 25.9419 8.23265 -46.9378 33.6007 3.32066 
-40.6177 40.2569 3.32066 42.1174 33.6007 3.32066 -39.2089 41.2595 3.32066 
-32.9589 44.8208 3.32066 -32.9589 41.2595 10.2359 -25.3001 47.8525 3.32066 
37.7402 41.2595 3.32066 35.9705 43.5647 3.32066 35.9705 41.2595 6.73527 
-21.6742 48.9184 3.32066 -17.6413 49.9719 3.32066 -17.6413 48.9184 5.37784 
-9.98246 51.2163 3.32066 -9.98246 48.9184 7.51212 -2.32364 52.1318 3.32066 
-2.32364 48.9184 9.54333 5.33518 53.1044 3.32066 5.33518 48.9184 9.31894 
12.994 53.4519 3.32066 12.994 48.9184 10.7958 20.6528 52.6655 3.32066 
29.9509 48.9184 3.32066 28.3117 49.9227 3.32066 28.3117 48.9184 5.50439 
-17.6413 -44.5829 10.9795 -9.98246 -45.415 10.9795 -2.32364 -45.1048 10.9795 
5.33518 -44.5731 10.9795 12.994 -44.3872 10.9795 -32.9589 -39.0117 10.9795 
-23.6261 -42.9875 10.9795 -25.3001 -42.4351 10.9795 -17.6413 -42.9875 12.5218 
-9.98246 -42.9875 13.0013 -2.32364 -42.9875 12.5804 5.33518 -42.9875 12.1379 
20.4201 -42.9875 10.9795 12.994 -42.9875 12.054 20.6528 -42.9334 10.9795 
28.3117 -40.9106 10.9795 -39.239 -35.3287 10.9795 -40.6177 -34.3134 10.9795 
-32.9589 -35.3287 14.284 -25.3001 -35.3287 16.2022 -17.6413 -35.3287 16.6389 
-9.98246 -35.3287 16.4267 -2.32364 -35.3287 15.6298 5.33518 -35.3287 15.1762 
12.994 -35.3287 15.9776 20.6528 -35.3287 15.6995 35.8666 -35.3287 10.9795 
28.3117 -35.3287 14.3178 35.9705 -35.2308 10.9795 43.6293 -27.9276 10.9795 
-47.1038 -27.6699 10.9795 -48.2766 -26.001 10.9795 -40.6177 -27.6699 15.6664 
-32.9589 -27.6699 18.2134 -25.3001 -27.6699 18.3323 -17.6413 -27.6699 18.0788 
[...]
POINT_DATA 556
SCALARS ImageScalars float
LOOKUP_TABLE default
0 0 0 0 0 0 0 0 0 
0 0 0 0 0 0 0 0 0 
0 0 0 0 0 0 0 0 0 
0 0 0 0 0 0 0 0 0 
0 0 0 0 0 0 0 0 0 
0 0 0 0 0 0 0 0 0 
0 0 0 0 0 0 0 0 0 
0 0 0 0 0 0 0 0 0 
0 0 0 0 0 0 0 0 0 
0 0 0 0 0 0 0 0 0 
0 0 0 0 0 0 0 0 0 
0 0 0 0 0 0 0 0 0 
0 0 0 0 0 0 0 0 0 
0 0 0 0 0 0 0 0 0 
0 0 0 0 0 0 0 0 0 
0 0 0 0 0 0 0 0 0 
0 0 0 0 0 0 0 0 0 
0 0 0 0 0 0 0 0 0 
0 0 0 0 0 0 0 0 0 
0 0 0 0 0 0 0 0 0 
0 0 0 0 0 0 0 0 0 
0 0 0 0 0 0 0 0 0 
0 0 0 0 0 0 0 0 0 
0 0 0 0 0 0 0 0 0 
0 0 0 0 0 0 0 0 0 
0 0 0 0 0 0 0 0 0 
0 0 0 0 0 0 0 0 0 
0 0 0 0 0 0 0 0 0 
0 0 0 0 0 0 0 0 0 
0 0 0 0 0 0 0 0 0 
0 0 0 0 0 0 0 0 0 
0 0 0 0 0 0 0 0 0 
0 0 0 0 0 0 0 0 0 
0 0 0 0 0 0 0 0 0 
0 0 0 0 0 0 0 0 0 
0 0 0 0 0 0 0 0 0 
0 0 0 0 0 0 0 0 0 
0 0 0 0 0 0 0 0 0 
0 0 0 0 0 0 0 0 0 
0 0 0 0 0 0 0 0 0 
0 0 0 0 0 0 0 0 0 
0 0 0 0 0 0 0 0 0 
0 0 0 0 0 0 0 0 0 
0 0 0 0 0 0 0 0 0 
0 0 0 0 0 0 0 0 0 
0 0 0 0 0 0 0 0 0 
0 0 0 0 0 0 0 0 0 
0 0 0 0 0 0 0 0 0 
0 0 0 0 0 0 0 0 0 
0 0 0 0 0 0 0 0 0 
0 0 0 0 0 0 0 0 0 
0 0 0 0 0 0 0 0 0 
0 0 0 0 0 0 0 0 0 
0 0 0 0 0 0 0 0 0 
0 0 0 0 0 0 0 0 0 
0 0 0 0 0 0 0 0 0 
0 0 0 0 0 0 0 0 0 
0 0 0 0 0 0 0 0 0 
0 0 0 0 0 0 0 0 0 
0 0 0 0 0 0 0 0 0 
0 0 0 0 0 0 0 0 0 
0 0 0 0 0 0 0 
NORMALS Normals float
0.0424763 0.0134695 0.999007 0.202896 0.658053 0.72512 0.08257 0.590107 0.803092 
-0.0268394 0.551556 0.833706 -0.0730569 0.554398 0.829039 -0.102333 0.584695 0.804773 
-0.178059 0.69075 0.700828 0.340047 0.521027 0.782878 0.196598 0.378625 0.904429 
0.0988464 0.281842 0.954355 0.0361277 0.260562 0.964781 -0.0626508 0.239996 0.96875 
-0.0590847 0.222889 0.973052 -0.015818 0.237076 0.971362 -0.0250022 0.350724 0.936145 
-0.178484 0.41901 0.890266 -0.395989 0.543748 0.739953 0.428996 0.329662 0.841002 
0.193503 0.206923 0.959031 0.054292 0.0826951 0.995095 0.0663844 0.0421079 0.996905 
0.0176655 -0.00080097 0.999844 -0.077668 -0.00420519 0.99697 -0.0673927 -0.0241061 0.997435 
0.0693628 0.0253298 0.99727 0.0555321 0.127067 0.990338 -0.0895502 0.144244 0.985482 
-0.288768 0.271119 0.918209 -0.562677 0.371728 0.738386 0.70018 0.182778 0.690174 
0.323121 0.134658 0.936728 0.0840028 0.0319966 0.995952 0.0120644 -0.0377268 0.999215 
0.017397 -0.154001 0.987917 -0.00671044 -0.200889 0.979591 -0.0891631 -0.0607338 0.994164 
-0.037869 -0.183271 0.982333 0.132845 -0.0923279 0.986827 0.106817 -0.0699309 0.991816 
-0.0281907 0.00573324 0.999586 -0.189022 0.0590294 0.980197 -0.429072 0.165824 0.887919 
0.614609 0.00816909 0.78879 0.303335 -0.00599165 0.952865 0.0244407 -0.00222138 0.999699 
-0.123528 -0.0325876 0.991806 -0.109453 -0.140186 0.984057 0.109957 -0.11979 0.986691 
-0.053609 -0.00582826 0.998545 -0.0982635 0.0505969 0.993873 0.183011 -0.0146451 0.983002 
0.150648 -0.0898892 0.984492 0.040421 -0.039227 0.998412 -0.121374 0.00246594 0.992604 
-0.36071 0.0622172 0.9306 -0.686133 0.128787 0.715986 0.651159 -0.119723 0.749439 
0.302361 -0.109206 0.946917 0.0578257 -0.0742536 0.995561 -0.131409 -0.0107241 0.99127 
-0.0687858 0.0402114 0.996821 0.151187 0.183147 0.971391 0.062495 -0.202049 0.977379 
-0.0418652 0.174214 0.983818 -0.0272393 0.0864448 0.995884 0.0776148 -0.00771703 0.996954 
0.0641955 0.00969249 0.99789 -0.0866134 0.0117231 0.996173 -0.31625 0.0191507 0.948483 
-0.665762 0.00484698 0.746149 0.352663 -0.133727 0.926146 0.130764 -0.0969524 0.986662 
-0.0147485 -0.0284133 0.999487 0.0531781 0.0610628 0.996716 -0.099498 -0.0852714 0.991377 
-0.0820356 0.0590985 0.994876 0.180922 -0.0187865 0.983318 0.025818 -0.0617444 0.997758 
0.082109 0.0586474 0.994896 0.0451945 0.022682 0.998721 0.0610305 0.0728597 0.995473 
-0.110711 0.0349866 0.993237 -0.358509 -0.0201919 0.933308 -0.712948 -0.119074 0.691033 
0.379143 -0.0956482 0.920382 0.174841 -0.0716191 0.981988 0.0242286 -0.0167507 0.999566 
-0.0587688 0.0213978 0.998042 0.0875929 -0.0873379 0.99232 0.112467 0.109977 0.987551 
-0.122058 -0.100969 0.987374 0.0586216 -0.0906396 0.994157 0.0572667 0.0143537 0.998256 
0.201805 0.0191626 0.979238 -0.00192586 0.00741153 0.999971 0.0385979 -0.0144562 0.99915 
-0.168573 -0.0149189 0.985576 -0.451569 -0.0974228 0.886901 0.41777 -0.144454 0.896996 
0.224667 -0.0669406 0.972134 0.078885 -0.027621 0.996501 -0.0207563 0.029712 0.999343 
-0.0171562 0.0269101 0.999491 -0.0525922 -0.19846 0.978697 -0.0495625 -0.197259 0.979098 
0.142439 -0.0447626 0.988791 0.192583 -0.0455145 0.980224 0.0260527 -0.117509 0.99273 
-0.201031 -0.110161 0.973371 -0.611642 -0.252126 0.749884 0.286998 -0.17806 0.941237 
0.121131 -0.105519 0.987012 -0.00272859 -0.0734473 0.997295 -0.132786 -0.100673 0.986019 
-0.127401 -0.179327 0.975505 0.0329626 -0.133295 0.990528 0.188049 -0.0977121 0.977287 
0.134323 -0.172132 0.975873 -0.0305425 -0.224564 0.97398 -0.28935 -0.320113 0.902111 
-0.722449 -0.403657 0.561363 0.333251 -0.306581 0.891601 0.184546 -0.247792 0.951074 
-0.0118074 -0.24245 0.970092 -0.128552 -0.223191 0.966261 -0.10521 -0.211242 0.971755 
0.0287919 -0.198101 0.979759 0.109714 -0.24131 0.964226 0.0567106 -0.317262 0.946641 
-0.126523 -0.387836 0.913003 -0.4192 -0.470833 0.776265 0.218724 -0.554447 0.802962 
0.0384275 -0.47114 0.881221 -0.0989508 -0.414949 0.904448 -0.0965509 -0.364131 0.92633 
0.0724498 -0.340642 0.937397 -0.0546353 -0.441811 0.895443 0.215512 0.737118 0.640477 
0.0933268 0.756103 0.647764 -0.0110814 0.74273 0.6695 -0.0550306 0.707719 0.704347 
-0.115292 0.701981 0.702802 -0.192108 0.717186 0.669879 0.378264 0.652833 0.656297 
0.267193 0.725566 0.634162 0.289579 0.708047 0.64406 0.311733 0.783582 0.537422 
-0.210039 0.72748 0.653189 -0.25415 0.732472 0.631579 -0.291515 0.830332 0.47494 
-0.429249 0.646841 0.630351 0.462011 0.601805 0.651442 0.506863 0.552205 0.661937 
0.577113 0.68715 0.441323 -0.516327 0.598337 0.612699 -0.603925 0.50663 0.615306 
-0.692628 0.693904 0.196886 0.634439 0.380997 0.672554 0.701361 0.185879 0.688143 
0.800246 0.457288 0.387936 -0.644237 0.413613 0.643337 0.701473 0.183231 0.688739 
-0.695185 0.244445 0.675992 -0.698405 0.148102 0.700211 -0.80189 0.297177 0.518323 
0.667231 0.0138789 0.744721 -0.69519 0.129787 0.707012 0.660162 -0.120558 0.741385 
0.650213 -0.121954 0.7499 -0.704304 0.00208522 0.709896 0.580431 -0.127498 0.804267 
0.656498 -0.124661 0.743956 -0.725704 -0.123649 0.676804 -0.739507 -0.144926 0.657362 
0.530917 -0.096916 0.841864 0.670473 -0.122187 0.731804 -0.767348 -0.220776 0.602026 
-0.864785 -0.291878 0.4086 0.537489 -0.166755 0.826619 0.742957 -0.188443 0.642264 
0.50031 -0.231657 0.834281 -0.785204 -0.311695 0.535071 0.784852 -0.290395 0.547428 
0.495757 -0.237992 0.835215 0.515309 -0.24641 0.820816 -0.730916 -0.406338 0.548316 
-0.726609 -0.411574 0.550133 0.425511 -0.347636 0.835518 0.604203 -0.468605 0.644475 
0.374447 -0.433742 0.819547 0.0171983 -0.32213 0.946539 -0.21311 -0.531972 0.819506 
-0.522145 -0.495461 0.694178 -0.451282 -0.519473 0.725598 0.244557 -0.561125 0.790778 
0.468093 -0.661253 0.586203 0.223389 -0.567633 0.792396 0.0811193 -0.579375 0.811014 
-0.0626407 -0.510136 0.857809 -0.0681342 -0.358332 0.931105 -0.0948902 -0.371366 0.923625 
0.040199 -0.338799 0.94 0.0175554 -0.347959 0.937345 0.0623702 -0.373872 0.925381 
-0.152321 -0.504531 0.849851 -0.0829724 -0.485731 0.870162 -0.251532 -0.579329 0.775312 
-0.620353 -0.674096 0.400945 0.175226 -0.904156 0.389613 0.053382 -0.830714 0.554134 
-0.0504792 -0.765105 0.641924 -0.0232222 -0.771264 0.636092 0.0287952 -0.763455 0.645219 
-0.135912 -0.783796 0.605964 0.349979 0.915428 0.198764 0.252805 0.948556 0.19061 
0.132035 0.972389 0.192424 0.0264517 0.980638 0.194037 -0.0630782 0.975262 0.211862 
-0.150367 0.972344 0.178707 -0.233139 0.949256 0.211093 -0.35239 0.915732 0.193016 
0.600493 0.771972 0.20849 0.413793 0.892146 0.181247 0.42642 0.88617 0.181297 
-0.490858 0.860349 0.137323 -0.530505 0.838518 0.124307 -0.695593 0.71195 0.0963217 
0.671413 0.713037 0.201948 0.806447 0.555333 0.203099 -0.711053 0.69671 0.0948624 
-0.706397 0.68979 -0.158724 0.843024 0.491925 0.217533 -0.82716 0.540844 0.152626 
-0.847366 0.505513 0.162567 0.923661 0.268518 0.273401 -0.914026 0.362696 0.181682 
0.941233 0.0877256 0.326166 -0.957703 0.157474 0.240846 0.918605 -0.0635915 0.390027 
0.999587 0.00467317 0.0283407 -0.968029 -0.0267297 0.249411 0.879359 -0.0853912 0.468441 
0.997025 -0.0298356 0.0710657 -0.943559 -0.235217 0.233172 0.844554 -0.142809 0.516076 
-0.920148 -0.357446 0.159875 -0.907079 -0.403938 0.118497 0.8355 -0.204056 0.510197 
-0.899751 -0.426028 0.0945951 0.815745 -0.297327 0.496141 0.803246 -0.36122 0.473621 
-0.904468 -0.412852 0.10719 -0.881595 -0.458585 0.111762 0.730992 -0.54718 0.407731 
0.665578 -0.633254 0.394961 -0.862042 -0.487856 0.137406 0.605129 -0.721582 0.33636 
0.5055 -0.812047 0.291633 0.325644 -0.909245 0.259286 -0.408798 -0.81522 0.410244 
-0.705172 -0.662034 0.253857 -0.658527 -0.699597 0.27732 0.261103 -0.928635 0.263555 
0.18663 -0.9409 0.282625 0.082921 -0.937801 0.337124 -0.0256308 -0.90007 0.434992 
-0.0308775 -0.837339 0.545811 0.0339151 -0.863179 0.503757 -0.367595 -0.831448 0.416615 
-0.131926 -0.87517 0.465482 -0.436285 -0.86317 0.254153 0.349062 0.920459 -0.175815 
0.234632 0.951525 -0.198868 0.106599 0.968863 -0.223475 0.0163816 0.966262 -0.257041 
-0.0581182 0.960855 -0.270888 -0.130062 0.961582 -0.241753 -0.234506 0.941569 -0.241774 
-0.385826 0.893977 -0.227912 0.599479 0.783586 -0.163148 0.417059 0.893482 -0.166587 
0.428916 0.887869 -0.166492 0.297867 0.799139 -0.522162 -0.15201 0.702188 -0.695575 
-0.487782 0.835432 -0.253224 -0.352523 0.789139 -0.502979 -0.553541 0.783367 -0.282718 
0.668233 0.727814 -0.154114 0.792255 0.59582 -0.131646 0.562156 0.692171 -0.452637 
-0.683275 0.66546 -0.300497 -0.485744 0.539236 -0.687951 -0.691203 0.657114 -0.300732 
0.843059 0.522456 -0.127635 0.753946 0.529446 -0.388912 -0.783851 0.545094 -0.297406 
-0.81912 0.491782 -0.295284 0.94187 0.327549 -0.0747855 -0.869319 0.395888 -0.295901 
-0.767248 0.373779 -0.521172 0.987664 0.143863 -0.0618379 0.996743 0.077128 -0.0235425 
-0.944326 0.206224 -0.256361 -0.686465 0.196174 -0.700201 0.999838 0.00708683 0.0165236 
0.999955 0.00951503 -1.16081e-05 -0.977112 -0.0151377 -0.212184 0.99768 -0.0285978 0.0617794 
0.997215 -0.0396804 0.0631427 0.998773 -0.0281426 0.0407523 -0.94469 -0.249443 -0.212931 
0.990279 -0.119133 0.071792 -0.891635 -0.404602 -0.203183 -0.87662 -0.426561 -0.222671 
-0.830692 -0.386334 -0.400871 0.967913 -0.242099 0.0673236 -0.866321 -0.430114 -0.25395 
0.909777 -0.413614 0.0350651 0.826004 -0.563455 -0.0153496 -0.881828 -0.411378 -0.230539 
-0.88018 -0.415338 -0.229736 -0.79664 -0.373198 -0.475486 0.784506 -0.618539 -0.0442659 
0.624487 -0.776632 -0.0828219 -0.876888 -0.423039 -0.228266 0.584641 -0.805011 -0.100758 
0.432372 -0.881505 -0.189747 0.281317 -0.728559 -0.62455 0.304131 -0.918158 -0.253947 
-0.784602 -0.593265 -0.180103 -0.746445 -0.644917 -0.164021 -0.728528 -0.572744 -0.37578 
0.26177 -0.932644 -0.248297 0.210946 -0.944721 -0.251008 0.20686 -0.90221 -0.378451 
0.145182 -0.959038 -0.243244 0.146502 -0.832648 -0.534073 0.131129 -0.973836 -0.185605 
0.0643392 -0.7482 -0.660346 0.0906932 -0.987338 -0.130149 0.0579267 -0.738937 -0.67128 
-0.0290929 -0.995231 -0.0931018 0.121144 -0.69119 -0.712447 -0.207249 -0.974916 -0.081163 
-0.51003 -0.851541 -0.121437 -0.454065 -0.883297 -0.116669 -0.464555 -0.844389 -0.266826 
0.154155 0.737887 -0.657084 0.0301039 0.704435 -0.70913 -0.0392871 0.645857 -0.762447 
-0.0330805 0.612745 -0.789588 -0.079486 0.635431 -0.768056 0.367025 0.717119 -0.592481 
0.255407 0.76286 -0.593979 0.28147 0.762011 -0.583193 0.119722 0.66469 -0.737465 
0.000533469 0.590679 -0.806907 -0.0516721 0.545004 -0.83684 -0.0317309 0.539372 -0.841469 
-0.148765 0.697075 -0.701395 -0.053786 0.573685 -0.817308 -0.15079 0.698507 -0.699535 
-0.307639 0.64888 -0.695926 0.50317 0.661351 -0.556268 0.529519 0.644331 -0.551768 
0.303279 0.572735 -0.761575 0.138469 0.405341 -0.903618 0.0103477 0.317142 -0.948322 
-0.0662963 0.257751 -0.963934 -0.0824047 0.22452 -0.970979 0.0155867 0.224705 -0.974302 
0.037824 0.293432 -0.955231 -0.106003 0.318057 -0.942127 -0.481743 0.536294 -0.693045 
-0.245962 0.418529 -0.874263 -0.482928 0.534847 -0.693339 -0.559869 0.421056 -0.713623 
0.679712 0.513433 -0.523811 0.712573 0.479185 -0.512466 0.407222 0.425179 -0.808327 
0.140662 0.276328 -0.950714 -0.0110809 0.154194 -0.987978 -0.0518596 0.0959852 -0.994031 
-0.113708 0.0463218 -0.992434 -0.103533 0.0343856 -0.994031 0.0391714 0.0278912 -0.998843 
0.0900707 0.0228308 -0.995674 0.0149091 0.102603 -0.994611 -0.176167 0.173912 -0.968875 
-0.346141 0.291106 -0.891876 -0.562667 0.416887 -0.71387 -0.556001 0.414956 -0.720191 
0.790528 0.335559 -0.512314 0.643343 0.305243 -0.702094 0.285513 0.196787 -0.937954 
-0.114199 -0.0485647 -0.99227 -0.12874 -0.10132 -0.986489 -0.100346 0.0332286 -0.994398 
0.0203276 0.0136829 -0.9997 0.120734 -0.0625576 -0.990712 0.0494833 -0.0432848 -0.997837 
-0.0542914 -0.0109439 -0.998465 -0.195357 0.153303 -0.968676 -0.577856 0.31993 -0.750818 
-0.4501 0.267663 -0.85192 0.852734 0.170466 -0.493748 0.548702 0.13853 -0.824461 
-0.21026 -0.0791895 -0.974433 -0.0309459 0.0138918 -0.999425 0.0217344 0.0801336 -0.996547 
-0.0585779 0.171943 -0.983364 0.0312286 0.038288 -0.998779 0.0673691 -0.0792989 -0.994572 
0.0083973 -0.00795566 -0.999933 -0.107686 0.0423816 -0.993281 -0.666346 0.192638 -0.720329 
-0.324507 0.120824 -0.938135 -0.67533 0.17068 -0.717494 0.888905 0.0696706 -0.452763 
0.494752 0.0227188 -0.868737 -0.171363 -0.0872974 -0.981333 -0.0632958 -0.075232 -0.995155 
0.0437691 0.165306 -0.985271 0.0545853 -0.0736458 -0.99579 -0.029658 0.106001 -0.993924 
-0.149825 0.0594572 -0.986923 0.0029482 -0.0177873 -0.999837 0.0652656 0.0106726 -0.997811 
-0.06609 0.0379656 -0.997091 -0.268431 0.0306034 -0.962813 -0.696433 0.0322214 -0.716898 
-0.633211 0.0377947 -0.773055 0.894809 -0.0181238 -0.446081 0.462273 -0.04345 -0.885673 
-0.190078 -0.0343895 -0.981166 -0.0232007 -0.0326886 -0.999196 0.01178 -0.134218 -0.990882 
-0.0366002 0.137352 -0.989846 0.0595657 -0.0684634 -0.995874 -0.0693648 -0.0799099 -0.994386 
0.0302008 0.0270176 -0.999179 0.062587 0.0138969 -0.997943 -0.0853929 -0.0178188 -0.996188 
-0.321996 -0.0855892 -0.942864 -0.703427 -0.186135 -0.685963 -0.704754 -0.210129 -0.677619 
-0.686333 -0.183059 -0.703873 0.867729 -0.13526 -0.478279 0.488331 -0.133662 -0.862361 
0.188721 -0.0283777 -0.981621 -0.185036 0.00941219 -0.982687 -0.127817 0.0833343 -0.98829 
0.139939 -0.0610293 -0.988278 0.089292 -0.022746 -0.995746 -0.168608 -0.0885961 -0.981694 
-0.045944 0.00548506 -0.998929 0.082804 0.0837356 -0.993042 0.0207384 0.0258439 -0.999451 
-0.162412 -0.0630763 -0.984705 -0.672055 -0.312686 -0.671244 -0.442076 -0.218971 -0.869839 
0.804656 -0.252949 -0.537164 0.59721 -0.207006 -0.774912 0.246579 -0.143704 -0.958409 
-0.0206348 -0.0633382 -0.997779 -0.0587991 -0.013574 -0.998178 -0.0941346 0.0496776 -0.994319 
-0.0861415 0.0184617 -0.996112 -0.0309833 -0.18434 -0.982374 0.0458943 -0.083558 -0.995445 
0.093884 0.0768583 -0.992612 0.0531171 0.107213 -0.992816 -0.0813679 -0.0164856 -0.996548 
-0.315009 -0.135971 -0.939298 -0.659493 -0.323507 -0.678537 -0.679247 -0.321184 -0.659897 
-0.623161 -0.295605 -0.724077 0.767786 -0.388247 -0.509676 0.717705 -0.470703 -0.513165 
0.694043 -0.365376 -0.620326 0.30833 -0.300632 -0.902526 0.102425 -0.19157 -0.97612 
-0.073364 -0.119913 -0.99007 -0.0897051 -0.0774237 -0.992954 -0.103013 -0.0893157 -0.990662 
-0.0175471 -0.0743679 -0.997077 0.100791 -0.0315979 -0.994406 0.144399 -0.0106843 -0.989462 
-0.0128531 -0.0458253 -0.998867 -0.216054 -0.0979633 -0.971455 -0.682407 -0.314626 -0.659797 
-0.424708 -0.182264 -0.886793 0.507764 -0.62298 -0.595039 0.463846 -0.635221 -0.617529 
0.427376 -0.586349 -0.688146 0.260573 -0.686712 -0.678623 0.186718 -0.441393 -0.877672 
0.0641708 -0.298692 -0.95219 -0.0506553 -0.275244 -0.960039 -0.0743939 -0.206655 -0.975582 
0.0218445 -0.133201 -0.990848 0.108594 -0.131117 -0.985401 0.0890573 -0.138402 -0.986364 
-0.0339543 -0.184396 -0.982265 -0.232765 -0.182411 -0.955273 -0.653389 -0.364281 -0.663613 
-0.61724 -0.419663 -0.665505 -0.568616 -0.328777 -0.754043 0.2173 -0.690115 -0.690305 
0.155601 -0.675577 -0.720683 0.136109 -0.648092 -0.749301 0.129735 -0.59312 -0.794593 
0.0598722 -0.487885 -0.870852 0.110311 -0.568383 -0.815335 0.0616545 -0.392429 -0.917713 
0.0467451 -0.619552 -0.783563 0.0557691 -0.302103 -0.951643 0.047367 -0.563676 -0.824637 
0.0803004 -0.334707 -0.938895 0.123907 -0.671527 -0.730546 0.0889624 -0.311904 -0.945939 
-0.0502893 -0.34255 -0.938153 -0.539996 -0.486803 -0.686606 -0.431664 -0.574842 -0.695142 
-0.369511 -0.435605 -0.820798 0.0813724 -0.690386 -0.71885 -0.200197 -0.717253 -0.667435 
-0.137044 -0.744046 -0.653922 -0.139914 -0.701644 -0.698655 0.0964007 0.213641 -0.972144 
-0.0520075 0.0919054 -0.994409 0.259318 0.186584 -0.947597 0.268295 0.167085 -0.948736 
0.00961124 0.09978 -0.994963 -0.0849332 0.0275992 -0.996004 -0.0729404 0.0578681 -0.995656 
0.232249 0.0498948 -0.971376 0.190711 0.0358908 -0.98099 0.0135973 0.013547 -0.999816 
-0.177718 -0.0391578 -0.983302 -0.169899 -0.0791548 -0.982277 -0.157341 -0.0169286 -0.987399 
0.233591 -0.00858735 -0.972297 0.164214 -0.0151039 -0.986309 -0.160644 -0.0840848 -0.983424 
-0.0414473 -0.0427928 -0.998224 0.163639 -0.0590182 -0.984753 0.157675 -0.0504924 -0.986199 
0.145409 -0.0598753 -0.987558 -0.104259 -0.0232516 -0.994278 -0.0563887 -0.016607 -0.998271 
0.118982 -0.0305057 -0.992428 -0.107397 -0.0125854 -0.994137 -0.0204803 -0.0579801 -0.998108 
-0.0152513 -0.0376683 -0.999174 
