# vtk DataFile Version 4.2
vtk output
ASCII
DATASET POLYDATA
POINTS 544 float
-36.6146 -37.9928 -13.8994 -28.4919 -37.9928 -15.4805 -20.3692 -37.9928 -14.5674 
-12.2466 -37.9928 -14.6805 -4.12389 -37.9928 -15.3224 3.99879 -37.9928 -16.8642 
12.1215 -37.9928 -17.5693 20.2441 -37.9928 -17.3028 28.3668 -37.9928 -16.9462 
36.4895 -37.9928 -13.8341 -44.7373 -29.8701 -14.7406 -36.6146 -29.8701 -16.2093 
-28.4919 -29.8701 -17.3488 -20.3692 -29.8701 -16.8203 -12.2466 -29.8701 -17.0813 
-4.12389 -29.8701 -17.8898 3.99879 -29.8701 -19.2399 12.1215 -29.8701 -19.4667 
20.2441 -29.8701 -19.9712 28.3668 -29.8701 -18.9832 36.4895 -29.8701 -18.3641 
44.6122 -29.8701 -14.8645 -44.7373 -21.7474 -16.6204 -36.6146 -21.7474 -17.8975 
-28.4919 -21.7474 -18.1748 -20.3692 -21.7474 -17.4735 -12.2466 -21.7474 -17.0857 
-4.12389 -21.7474 -17.5682 3.99879 -21.7474 -19.0512 12.1215 -21.7474 -18.6942 
20.2441 -21.7474 -19.3512 28.3668 -21.7474 -20.4135 36.4895 -21.7474 -19.154 
44.6122 -21.7474 -16.8653 -44.7373 -13.6247 -16.7098 -36.6146 -13.6247 -18.9992 
-28.4919 -13.6247 -19.069 -20.3692 -13.6247 -18.2697 -12.2466 -13.6247 -16.8781 
-4.12389 -13.6247 -17.2142 3.99879 -13.6247 -17.6398 12.1215 -13.6247 -16.848 
20.2441 -13.6247 -18.1293 28.3668 -13.6247 -19.1165 36.4895 -13.6247 -19.3602 
44.6122 -13.6247 -17.6269 52.7348 -13.6247 -14.1086 -44.7373 -5.50206 -17.0859 
-36.6146 -5.50206 -20.0121 -28.4919 -5.50206 -20.3364 -20.3692 -5.50206 -18.6883 
-12.2466 -5.50206 -17.4715 -4.12389 -5.50206 -17.7395 3.99879 -5.50206 -18.9786 
12.1215 -5.50206 -18.6218 20.2441 -5.50206 -17.4111 28.3668 -5.50206 -18.4952 
36.4895 -5.50206 -19.0317 44.6122 -5.50206 -18.4128 52.7348 -5.50206 -15.8394 
-44.7373 2.62061 -16.6619 -36.6146 2.62061 -20.0698 -28.4919 2.62061 -19.8777 
-20.3692 2.62061 -17.6771 -12.2466 2.62061 -14.8833 -4.12389 2.62061 -18.3411 
3.99879 2.62061 -18.0131 12.1215 2.62061 -20.5432 20.2441 2.62061 -17.3695 
28.3668 2.62061 -18.5011 36.4895 2.62061 -19.0794 44.6122 2.62061 -18.8136 
52.7348 2.62061 -16.2993 -44.7373 10.7433 -15.4064 -36.6146 10.7433 -19.086 
-28.4919 10.7433 -19.0525 -20.3692 10.7433 -17.3089 -12.2466 10.7433 -16.6613 
-4.12389 10.7433 -20.6199 3.99879 10.7433 -17.6578 12.1215 10.7433 -18.662 
20.2441 10.7433 -18.5709 28.3668 10.7433 -19.2759 36.4895 10.7433 -19.4333 
44.6122 10.7433 -19.2482 52.7348 10.7433 -16.5335 -36.6146 18.866 -17.7173 
-28.4919 18.866 -18.8308 -20.3692 18.866 -17.2597 -12.2466 18.866 -15.9364 
-4.12389 18.866 -16.6066 3.99879 18.866 -18.1041 12.1215 18.866 -19.2523 
20.2441 18.866 -19.4612 28.3668 18.866 -18.9543 36.4895 18.866 -18.8935 
44.6122 18.866 -17.9886 52.7348 18.866 -15.3068 -36.6146 26.9886 -15.4225 
-28.4919 26.9886 -16.6638 -20.3692 26.9886 -16.0075 -12.2466 26.9886 -16.1572 
-4.12389 26.9886 -17.1088 3.99879 26.9886 -19.1598 12.1215 26.9886 -19.4118 
20.2441 26.9886 -18.4395 28.3668 26.9886 -17.2623 36.4895 26.9886 -16.4175 
44.6122 26.9886 -14.0588 -20.3692 35.1113 -13.8635 -12.2466 35.1113 -15.6193 
-4.12389 35.1113 -17.0546 3.99879 35.1113 -18.5026 12.1215 35.1113 -17.8575 
20.2441 35.1113 -14.5475 -4.12389 43.234 -14.5681 3.99879 43.234 -15.1489 
-36.6146 -38.9344 -13.3339 -28.4919 -41.1269 -13.3339 -28.4919 -46.1154 -6.11999 
-20.3692 -39.8439 -13.3339 -20.3692 -46.1154 -5.67046 -12.2466 -39.5672 -13.3339 
-4.12389 -40.325 -13.3339 3.99879 -41.916 -13.3339 12.1215 -43.2074 -13.3339 
12.1215 -46.1154 -6.32746 20.2441 -43.0284 -13.3339 20.2441 -46.1154 -6.01257 
28.3668 -41.894 -13.3339 36.4895 -38.6033 -13.3339 -52.8599 -37.9928 -5.2838 
-42.9335 -37.9928 -13.3339 -44.7373 -37.1691 -13.3339 -44.7373 -37.9928 -13.0671 
37.5214 -37.9928 -13.3339 44.6122 -32.4888 -13.3339 44.6122 -37.9928 -5.62729 
-48.3994 -29.8701 -13.3339 -52.8599 -29.8701 -10.7789 47.4274 -29.8701 -13.3339 
-50.3908 -21.7474 -13.3339 -52.8599 -21.7474 -11.2529 50.8972 -21.7474 -13.3339 
52.7348 -16.793 -13.3339 52.7348 -21.7474 -11.7462 -50.5471 -13.6247 -13.3339 
-52.8599 -13.6247 -11.6926 53.6871 -13.6247 -13.3339 -49.4485 -5.50206 -13.3339 
-52.8599 -5.50206 -9.14493 57.1705 -5.50206 -13.3339 60.8575 -5.50206 -8.96023 
-48.0583 2.62061 -13.3339 58.1986 2.62061 -13.3339 60.8575 2.62061 -9.99951 
-46.5903 10.7433 -13.3339 -44.7373 17.6051 -13.3339 58.6411 10.7433 -13.3339 
60.8575 10.7433 -9.82982 -44.2399 18.866 -13.3339 -44.7373 18.866 -12.6336 
54.8846 18.866 -13.3339 52.7348 21.464 -13.3339 -40.1097 26.9886 -13.3339 
-44.7373 26.9886 -7.76241 -36.6146 30.8454 -13.3339 -28.4919 34.9819 -13.3339 
28.3668 32.8994 -13.3339 36.4895 30.2058 -13.3339 46.008 26.9886 -13.3339 
44.6122 27.6981 -13.3339 -36.6146 35.1113 -9.85706 -27.6498 35.1113 -13.3339 
-28.4919 35.1113 -13.2644 -20.3692 36.3803 -13.3339 -12.2466 43.2129 -13.3339 
12.1215 42.0231 -13.3339 23.5542 35.1113 -13.3339 20.2441 36.552 -13.3339 
28.3668 35.1113 -9.24782 -28.4919 43.234 -6.39272 -20.3692 43.234 -9.89741 
-12.1978 43.234 -13.3339 -12.2466 43.234 -13.326 -4.12389 44.9911 -13.3339 
9.26846 43.234 -13.3339 3.99879 45.2609 -13.3339 12.1215 43.234 -10.8924 
-12.2466 51.3567 -5.30772 -4.12389 51.3567 -6.36075 -28.4919 -46.5852 -5.21122 
-20.3692 -46.3113 -5.21122 12.1215 -46.4566 -5.21122 20.2441 -46.3532 -5.21122 
-52.8599 -38.0387 -5.21122 -44.7373 -43.1729 -5.21122 -35.1221 -46.1154 -5.21122 
-36.6146 -45.9971 -5.21122 -28.4919 -46.1154 -3.59879 -19.4499 -46.1154 -5.21122 
-20.3692 -46.1154 -4.71708 -12.2466 -44.4893 -5.21122 -4.12389 -43.6866 -5.21122 
10.3441 -46.1154 -5.21122 3.99879 -44.8387 -5.21122 12.1215 -46.1154 -3.2372 
21.7611 -46.1154 -5.21122 20.2441 -46.1154 -3.61136 28.3668 -45.0169 -5.21122 
36.4895 -42.5389 -5.21122 44.6122 -38.1598 -5.21122 -52.9089 -37.9928 -5.21122 
-52.8599 -37.9928 -4.86501 44.8178 -37.9928 -5.21122 44.6122 -37.9928 -4.15178 
-57.3121 -29.8701 -5.21122 52.3477 -29.8701 -5.21122 52.7348 -29.2969 -5.21122 
-58.9275 -21.7474 -5.21122 57.1381 -21.7474 -5.21122 -59.3462 -13.6247 -5.21122 
-60.9826 -13.6247 0.570514 59.8636 -13.6247 -5.21122 60.8575 -10.8942 -5.21122 
-55.2837 -5.50206 -5.21122 -52.8599 -0.618833 -5.21122 62.5624 -5.50206 -5.21122 
-51.3669 2.62061 -5.21122 62.8916 2.62061 -5.21122 -49.2539 10.7433 -5.21122 
62.5036 10.7433 -5.21122 60.8575 15.8491 -5.21122 60.8575 10.7433 2.86114 
-47.6971 18.866 -5.21122 59.6361 18.866 -5.21122 52.7348 26.4204 -5.21122 
-46.0218 26.9886 -5.21122 -44.7373 29.5983 -5.21122 36.4895 33.6389 -5.21122 
51.8929 26.9886 -5.21122 44.6122 30.8302 -5.21122 -40.9662 35.1113 -5.21122 
-36.6146 39.1692 -5.21122 20.2441 39.9575 -5.21122 32.5081 35.1113 -5.21122 
28.3668 36.5205 -5.21122 28.3668 35.1113 0.613415 -30.2184 43.234 -5.21122 
-28.4919 44.2226 -5.21122 -20.3692 48.1781 -5.21122 3.99879 50.1363 -5.21122 
15.3377 43.234 -5.21122 12.1215 45.3169 -5.21122 -12.4318 51.3567 -5.21122 
-12.2466 51.4131 -5.21122 -1.12053 51.3567 -5.21122 -4.12389 51.9984 -5.21122 
-44.7373 -41.8914 2.91145 -36.6146 -43.1639 2.91145 -28.4919 -43.2101 2.91145 
-20.3692 -41.5399 2.91145 -12.2466 -40.9282 2.91145 -4.12389 -40.3727 2.91145 
3.99879 -42.6067 2.91145 12.1215 -44.8256 2.91145 20.2441 -45.0665 2.91145 
28.3668 -43.9124 2.91145 36.4895 -41.0824 2.91145 -51.1467 -37.9928 2.91145 
-52.8599 -36.8215 2.91145 -44.7373 -37.9928 6.71563 -36.6146 -37.9928 9.54077 
-28.4919 -37.9928 7.77585 -20.3692 -37.9928 6.17532 -12.2466 -37.9928 5.91611 
-4.12389 -37.9928 5.70146 3.99879 -37.9928 9.31957 42.3521 -37.9928 2.91145 
36.4895 -37.9928 7.94278 44.6122 -36.524 2.91145 -58.8793 -29.8701 2.91145 
-52.8599 -29.8701 9.85944 -20.3692 -29.8701 10.7509 -12.2466 -29.8701 9.88847 
-4.12389 -29.8701 10.875 51.1606 -29.8701 2.91145 52.7348 -27.7962 2.91145 
-60.8001 -21.7474 2.91145 -60.9826 -19.5593 2.91145 56.5008 -21.7474 2.91145 
52.7348 -21.7474 9.52054 -61.4775 -13.6247 2.91145 -60.9826 -12.6515 2.91145 
-60.9826 -13.6247 4.2054 59.8284 -13.6247 2.91145 60.8575 -10.2084 2.91145 
-57.2227 -5.50206 2.91145 -52.8599 2.16937 2.91145 62.2217 -5.50206 2.91145 
60.8575 -5.50206 5.59641 -52.6021 2.62061 2.91145 62.2436 2.62061 2.91145 
60.8575 10.6847 2.91145 60.8575 2.62061 5.65928 -50.1266 10.7433 2.91145 
60.8446 10.7433 2.91145 -48.3108 18.866 2.91145 56.7803 18.866 2.91145 
52.7348 23.1022 2.91145 52.7348 18.866 7.42292 -46.767 26.9886 2.91145 
-44.7373 31.452 2.91145 28.3668 34.4563 2.91145 36.4895 31.2778 2.91145 
36.4895 26.9886 9.46935 47.0705 26.9886 2.91145 44.6122 28.3437 2.91145 
44.6122 26.9886 4.95397 -42.7429 35.1113 2.91145 -36.6146 41.0928 2.91145 
26.8438 35.1113 2.91145 20.2441 38.0405 2.91145 20.2441 35.1113 10.692 
-33.6057 43.234 2.91145 -28.4919 46.4134 2.91145 -20.3692 50.3397 2.91145 
3.99879 49.3382 2.91145 12.7777 43.234 2.91145 12.1215 43.7453 2.91145 
12.1215 43.234 4.63967 -16.6562 51.3567 2.91145 -12.2466 52.4612 2.91145 
-12.2466 51.3567 7.34163 -1.29889 51.3567 2.91145 -4.12389 52.3105 2.91145 
-4.12389 51.3567 6.57434 12.1215 -39.6414 11.0341 20.2441 -40.365 11.0341 
28.3668 -39.0265 11.0341 -44.7373 -31.2883 11.0341 -36.6146 -33.3321 11.0341 
-28.4919 -30.525 11.0341 7.90579 -37.9928 11.0341 3.99879 -35.5359 11.0341 
12.1215 -37.9928 12.4623 20.2441 -37.9928 13.1466 31.0618 -37.9928 11.0341 
28.3668 -37.9928 11.9927 36.4895 -35.2959 11.0341 44.6122 -29.9938 11.0341 
-48.5743 -29.8701 11.0341 -52.8599 -26.0679 11.0341 -44.7373 -29.8701 11.8925 
-36.6146 -29.8701 11.9416 -24.7084 -29.8701 11.0341 -28.4919 -29.8701 11.2477 
-20.3692 -28.5315 11.0341 -12.2466 -22.2279 11.0341 -3.71119 -29.8701 11.0341 
-4.12389 -29.1787 11.0341 3.99879 -29.8701 13.8193 12.1215 -29.8701 16.2528 
20.2441 -29.8701 17.1149 28.3668 -29.8701 16.7618 36.4895 -29.8701 14.6059 
44.7433 -29.8701 11.0341 44.6122 -29.8701 11.1305 -54.5652 -21.7474 11.0341 
-52.8599 -21.7474 12.2522 -44.7373 -21.7474 15.1433 -36.6146 -21.7474 14.6514 
-28.4919 -21.7474 13.7239 -20.3692 -21.7474 12.1893 -12.2466 -21.7474 11.0995 
-4.12389 -21.7474 12.5947 3.99879 -21.7474 15.2649 12.1215 -21.7474 17.4606 
20.2441 -21.7474 18.5836 28.3668 -21.7474 18.6413 36.4895 -21.7474 18.0585 
[...]
POINT_DATA 544
SCALARS ImageScalars float
LOOKUP_TABLE default
0 0 0 0 0 0 0 0 0 
0 0 0 0 0 0 0 0 0 
0 0 0 0 0 0 0 0 0 
0 0 0 0 0 0 0 0 0 
0 0 0 0 0 0 0 0 0 
0 0 0 0 0 0 0 0 0 
0 0 0 0 0 0 0 0 0 
0 0 0 0 0 0 0 0 0 
0 0 0 0 0 0 0 0 0 
0 0 0 0 0 0 0 0 0 
0 0 0 0 0 0 0 0 0 
0 0 0 0 0 0 0 0 0 
0 0 0 0 0 0 0 0 0 
0 0 0 0 0 0 0 0 0 
0 0 0 0 0 0 0 0 0 
0 0 0 0 0 0 0 0 0 
0 0 0 0 0 0 0 0 0 
0 0 0 0 0 0 0 0 0 
0 0 0 0 0 0 0 0 0 
0 0 0 0 0 0 0 0 0 
0 0 0 0 0 0 0 0 0 
0 0 0 0 0 0 0 0 0 
0 0 0 0 0 0 0 0 0 
0 0 0 0 0 0 0 0 0 
0 0 0 0 0 0 0 0 0 
0 0 0 0 0 0 0 0 0 
0 0 0 0 0 0 0 0 0 
0 0 0 0 0 0 0 0 0 
0 0 0 0 0 0 0 0 0 
0 0 0 0 0 0 0 0 0 
0 0 0 0 0 0 0 0 0 
0 0 0 0 0 0 0 0 0 
0 0 0 0 0 0 0 0 0 
0 0 0 0 0 0 0 0 0 
0 0 0 0 0 0 0 0 0 
0 0 0 0 0 0 0 0 0 
0 0 0 0 0 0 0 0 0 
0 0 0 0 0 0 0 0 0 
0 0 0 0 0 0 0 0 0 
0 0 0 0 0 0 0 0 0 
0 0 0 0 0 0 0 0 0 
0 0 0 0 0 0 0 0 0 
0 0 0 0 0 0 0 0 0 
0 0 0 0 0 0 0 0 0 
0 0 0 0 0 0 0 0 0 
0 0 0 0 0 0 0 0 0 
0 0 0 0 0 0 0 0 0 
0 0 0 0 0 0 0 0 0 
0 0 0 0 0 0 0 0 0 
0 0 0 0 0 0 0 0 0 
0 0 0 0 0 0 0 0 0 
0 0 0 0 0 0 0 0 0 
0 0 0 0 0 0 0 0 0 
0 0 0 0 0 0 0 0 0 
0 0 0 0 0 0 0 0 0 
0 0 0 0 0 0 0 0 0 
0 0 0 0 0 0 0 0 0 
0 0 0 0 0 0 0 0 0 
0 0 0 0 0 0 0 0 0 
0 0 0 0 0 0 0 0 0 
0 0 0 0 
NORMALS Normals float
-0.16746 -0.408298 -0.897357 -0.0276515 -0.440485 -0.897334 0.0598525 -0.425181 -0.903127 
-0.0467561 -0.529159 -0.847234 -0.126418 -0.560517 -0.818437 -0.137719 -0.529394 -0.837123 
-0.0256791 -0.460424 -0.887327 0.0363026 -0.480324 -0.876339 0.195618 -0.506076 -0.840012 
0.389812 -0.615264 -0.685198 -0.292402 -0.259449 -0.920428 -0.147144 -0.21578 -0.965291 
-0.0328966 -0.16853 -0.985147 0.020656 -0.154691 -0.987747 -0.0656593 -0.113461 -0.99137 
-0.131109 -0.1238 -0.983608 -0.0962914 -0.120778 -0.987998 -0.043614 -0.0613366 -0.997164 
0.029442 -0.117658 -0.992618 0.0917331 -0.19819 -0.975861 0.24128 -0.295373 -0.924413 
0.453478 -0.376116 -0.808019 -0.319097 -0.0914673 -0.943298 -0.101947 -0.159908 -0.981854 
0.0244443 -0.111795 -0.993431 0.0670695 -0.0860178 -0.994034 -0.00634249 0.0120436 -0.999907 
-0.118434 0.0417785 -0.992083 -0.0702742 0.0956043 -0.992936 -0.0194744 0.159019 -0.987083 
-0.103015 0.109831 -0.988598 0.0107995 -0.00577215 -0.999925 0.199275 -0.0546294 -0.97842 
0.36056 -0.158681 -0.919139 -0.374797 -0.02619 -0.926737 -0.132698 -0.130871 -0.982478 
0.0426896 -0.12861 -0.990776 0.133287 -0.0749283 -0.988241 0.0614548 -0.0227885 -0.99785 
-0.0452993 -0.00937521 -0.998929 0.0233923 0.00716644 -0.999701 -0.0329111 0.0336775 -0.998891 
-0.137732 0.118102 -0.983403 -0.0745612 0.115383 -0.990519 0.0879615 0.0077826 -0.996093 
0.270555 -0.0884013 -0.958637 0.561046 -0.207487 -0.801359 -0.48747 -0.000375771 -0.87314 
-0.17422 -0.0655953 -0.98252 0.0840987 -0.0537086 -0.995009 0.168681 0.0315627 -0.985165 
0.0606988 0.107822 -0.992316 -0.0889517 -0.0646766 -0.993934 -0.0661242 -0.0354474 -0.997182 
0.112087 -0.238514 -0.964649 -0.0121519 0.0471067 -0.998816 -0.0991222 0.0377157 -0.99436 
0.00355605 0.0171031 -0.999847 0.192384 -0.0713228 -0.978724 0.416907 -0.110961 -0.902151 
-0.602022 0.0877472 -0.793644 -0.163654 0.0563075 -0.98491 0.135935 0.0795429 -0.987519 
0.28286 0.0870234 -0.955205 -0.0229698 0.0700788 -0.997277 -0.200333 -0.158573 -0.96681 
-0.128759 0.0934626 -0.987262 0.0797947 0.0334662 -0.996249 0.0850734 -0.073038 -0.993694 
-0.105241 -0.048275 -0.993274 -0.0200449 -0.0247223 -0.999493 0.167072 -0.0484295 -0.984755 
0.397695 -0.0414071 -0.916583 -0.673467 0.188971 -0.714655 -0.179941 0.150127 -0.972154 
0.107843 0.0583352 -0.992455 0.139483 0.0231552 -0.989954 -0.148543 -0.0572278 -0.987249 
-0.0186583 0.161992 -0.986616 0.0670941 -0.00992803 -0.997697 -0.0565856 0.0560204 -0.996825 
-0.0378405 -0.127842 -0.991072 -0.0528909 -0.0279034 -0.99821 0.000886913 0.0107375 -0.999942 
0.18677 0.0451291 -0.981367 0.402095 0.0358511 -0.914896 -0.269993 0.210725 -0.939521 
0.0285574 0.163498 -0.98613 0.167959 0.0789492 -0.982627 0.0399563 0.0232206 -0.998932 
-0.133829 0.145652 -0.980242 -0.159997 -0.0913768 -0.982879 -0.0842821 -0.0466893 -0.995347 
0.0184759 0.00728573 -0.999803 0.0341508 0.11882 -0.992328 0.0532685 0.15886 -0.985863 
0.173856 0.280469 -0.943987 0.537547 0.377691 -0.753918 -0.332305 0.380087 -0.863196 
-0.0322811 0.309047 -0.950499 0.0332252 0.198096 -0.979619 -0.0634733 0.0219708 -0.997742 
-0.188084 -0.028784 -0.981731 -0.132028 -0.0275352 -0.990863 0.0444803 0.083124 -0.995546 
0.130956 0.259326 -0.95687 0.121164 0.385918 -0.914542 0.188918 0.563175 -0.804453 
0.351723 0.666618 -0.6572 -0.149385 0.31634 -0.93681 -0.183795 0.171147 -0.96795 
-0.179525 0.135214 -0.974417 -0.0502634 0.208455 -0.976739 0.216704 0.367559 -0.9044 
0.371238 0.618404 -0.692647 -0.107607 0.450708 -0.886162 0.107871 0.574712 -0.811215 
-0.170403 -0.458062 -0.872434 -0.0190292 -0.614132 -0.788974 -0.0170569 -0.98407 -0.176964 
0.0761716 -0.521294 -0.849971 0.122672 -0.991381 -0.0459917 -0.0308059 -0.614087 -0.788637 
-0.121974 -0.707428 -0.696181 -0.149422 -0.776239 -0.612475 -0.0614271 -0.782306 -0.619859 
-0.0924279 -0.987082 -0.13087 0.0717588 -0.766366 -0.638384 0.0867263 -0.989278 -0.117503 
0.206448 -0.766206 -0.608529 0.395756 -0.642014 -0.656655 -0.698107 -0.67469 -0.239667 
-0.279063 -0.468904 -0.838006 -0.307377 -0.463677 -0.830977 -0.317261 -0.492806 -0.810239 
0.415963 -0.630763 -0.655067 0.498961 -0.499671 -0.708073 0.598247 -0.790513 -0.13111 
-0.423518 -0.225893 -0.877271 -0.626568 -0.225652 -0.745985 0.568842 -0.426119 -0.70345 
-0.56224 -0.0423017 -0.825891 -0.671477 -0.036794 -0.740111 0.598796 -0.208812 -0.773202 
0.604293 -0.220459 -0.765655 0.714583 -0.266296 -0.646883 -0.55724 0.0410545 -0.829336 
-0.656532 0.0704238 -0.751003 0.597415 -0.227461 -0.768997 -0.67867 0.10896 -0.726316 
-0.813021 0.278706 -0.511195 0.606865 -0.172562 -0.775846 0.876752 -0.192971 -0.440532 
-0.778154 0.148736 -0.610208 0.647851 -0.0507238 -0.760077 0.872738 -0.0272135 -0.487429 
-0.790691 0.195936 -0.580014 -0.737362 0.268878 -0.619679 0.680028 0.134629 -0.72072 
0.896431 0.171445 -0.408678 -0.715554 0.278483 -0.640648 -0.765013 0.275857 -0.581943 
0.625727 0.431013 -0.650149 0.571667 0.520145 -0.634544 -0.528556 0.409245 -0.743739 
-0.849255 0.368447 -0.378172 -0.388952 0.500008 -0.773763 -0.158416 0.483181 -0.86107 
0.277086 0.711272 -0.646 0.25764 0.746425 -0.613573 0.395338 0.684849 -0.61212 
0.35731 0.705481 -0.612067 -0.482326 0.644542 -0.593235 -0.159657 0.469888 -0.868168 
-0.161847 0.487465 -0.858011 -0.174969 0.346737 -0.921498 -0.223168 0.418695 -0.880279 
0.383806 0.696962 -0.605753 0.357046 0.707758 -0.609587 0.412338 0.676184 -0.610534 
0.327496 0.894415 -0.304579 -0.397964 0.757202 -0.517948 -0.337102 0.583862 -0.738558 
-0.222473 0.419595 -0.880026 -0.223312 0.419508 -0.879855 -0.0755677 0.535099 -0.841403 
0.310037 0.703369 -0.639647 0.142243 0.688363 -0.711283 0.458032 0.784598 -0.417867 
-0.189499 0.912086 -0.363578 0.058786 0.935602 -0.348128 -0.0181297 -0.993129 -0.115613 
0.125668 -0.991942 -0.0160885 -0.092841 -0.993345 -0.0681594 0.0853732 -0.993563 -0.0744576 
-0.697304 -0.676635 -0.236498 -0.487614 -0.847114 -0.211258 -0.137232 -0.989316 -0.0492133 
-0.165234 -0.985546 -0.0373738 -0.0114035 -0.999795 0.0167022 0.12977 -0.991476 -0.0116485 
0.130071 -0.991445 0.0108367 0.16427 -0.986408 -0.00375984 -0.0209044 -0.999684 0.0139374 
-0.111701 -0.992078 -0.0574839 -0.167195 -0.985681 -0.0218633 -0.106065 -0.994045 0.0249936 
0.108593 -0.991051 -0.07763 0.0820811 -0.996607 -0.00604369 0.216326 -0.971666 -0.095225 
0.399594 -0.912522 -0.0873437 0.596884 -0.794915 -0.108807 -0.698941 -0.674673 -0.237272 
-0.696716 -0.684906 -0.213286 0.602527 -0.790621 -0.108992 0.600258 -0.797866 -0.0556798 
-0.827555 -0.34244 -0.444845 0.800607 -0.592028 -0.0923641 0.809521 -0.57868 -0.0990229 
-0.881601 -0.0890131 -0.463526 0.888557 -0.41115 -0.203521 -0.868812 0.210567 -0.448138 
-0.969203 0.237219 -0.066127 0.92086 -0.308032 -0.239027 0.939177 -0.267119 -0.215854 
-0.858256 0.365756 -0.360027 -0.872975 0.384492 -0.300135 0.962766 -0.179485 -0.202157 
-0.895838 0.368557 -0.248274 0.985804 0.00267531 -0.16788 -0.958372 0.216894 -0.185686 
0.979999 0.184826 -0.0737704 0.921112 0.385259 -0.0559351 0.875207 0.275153 0.397874 
-0.963626 0.189227 -0.188727 0.859392 0.508667 -0.051998 0.61701 0.78684 -0.0134495 
-0.901668 0.336778 -0.271249 -0.858805 0.423343 -0.288504 0.333139 0.942187 -0.0360755 
0.582602 0.812696 -0.00997917 0.395116 0.918264 -0.0259887 -0.689446 0.625497 -0.365264 
-0.556532 0.731072 -0.394721 0.502674 0.863177 -0.047378 0.327306 0.944111 -0.0390446 
0.332771 0.942015 -0.0432558 0.347502 0.912363 0.216419 -0.43991 0.777047 -0.450198 
-0.417389 0.783878 -0.459697 -0.378466 0.793094 -0.477247 0.368273 0.914234 -0.168969 
0.540864 0.839634 -0.0498056 0.531847 0.844226 -0.0664895 -0.193489 0.912685 -0.359956 
-0.188754 0.914334 -0.35828 0.179734 0.952153 -0.247186 0.0683454 0.955114 -0.288246 
-0.363325 -0.843592 0.395409 -0.0740475 -0.88963 0.450638 0.0782247 -0.76731 0.636487 
0.113455 -0.730561 0.673357 0.059134 -0.781541 0.621045 -0.0997148 -0.811032 0.57644 
-0.24095 -0.874449 0.421048 -0.143011 -0.929386 0.340277 0.0547767 -0.95297 0.298073 
0.218096 -0.927968 0.302175 0.402082 -0.854794 0.328113 -0.543407 -0.7744 0.324057 
-0.587837 -0.759235 0.279301 -0.332953 -0.646215 0.686694 -0.0721794 -0.463453 0.883177 
0.177061 -0.619752 0.764564 0.0888029 -0.549136 0.831002 0.0226077 -0.616808 0.786789 
-0.140953 -0.710114 0.689834 -0.305288 -0.640021 0.705105 0.526118 -0.787974 0.31984 
0.384261 -0.749937 0.53846 0.578421 -0.751536 0.317211 -0.84972 -0.454755 0.266784 
-0.545331 -0.436036 0.715881 0.0778026 -0.310221 0.947475 -0.00958258 -0.290795 0.956737 
-0.225584 -0.338968 0.913352 0.733176 -0.617559 0.284736 0.770051 -0.577581 0.270962 
-0.982244 -0.136602 0.128592 -0.991784 -0.0455937 0.119526 0.852265 -0.458402 0.252016 
0.690345 -0.425856 0.584868 -0.968301 0.232686 0.0908367 -0.963023 0.255749 0.0847276 
-0.956738 0.220437 0.189895 0.924647 -0.313369 0.216398 0.941827 -0.240188 0.235097 
-0.921082 0.387909 0.0336737 -0.894096 0.447831 -0.0062905 0.955055 -0.140589 0.260967 
0.915458 -0.130552 0.380648 -0.893257 0.449476 -0.00797229 0.956566 0.077406 0.281051 
0.874634 0.274113 0.399846 0.90752 0.0973669 0.408567 -0.966328 0.257287 -0.00378529 
0.873716 0.27564 0.400804 -0.982212 0.187756 -0.00275205 0.744588 0.487144 0.456377 
0.566742 0.665535 0.48566 0.580072 0.54035 0.60954 -0.953661 0.300689 0.0108165 
-0.899491 0.436411 0.0214615 0.349046 0.879143 0.324461 0.322952 0.861565 0.391673 
0.339843 0.724275 0.599943 0.436438 0.781946 0.445065 0.398342 0.809695 0.430949 
0.410687 0.768198 0.491129 -0.810064 0.585413 0.0329848 -0.617272 0.785867 0.0372679 
0.371988 0.87633 0.306057 0.496862 0.835531 0.234555 0.528864 0.758517 0.380728 
-0.55637 0.830051 0.0383045 -0.481241 0.875851 0.0359481 -0.357953 0.932775 0.0424387 
0.448638 0.87586 0.177744 0.593242 0.780921 0.195516 0.595571 0.779939 0.192328 
0.591101 0.776168 0.21946 -0.244834 0.968239 0.0506897 -0.110041 0.992181 0.0588847 
-0.118081 0.957934 0.26157 0.259029 0.956853 0.131667 0.163216 0.980896 0.105849 
0.177355 0.953601 0.243289 -0.185494 -0.671758 0.71717 0.0328131 -0.709134 0.70431 
0.213935 -0.677206 0.704006 -0.12705 -0.464642 0.876337 -0.0155377 -0.342941 0.939228 
0.0750725 -0.331965 0.9403 -0.258024 -0.61061 0.748718 -0.319679 -0.517817 0.793518 
-0.187917 -0.605572 0.773285 0.0249382 -0.608702 0.793007 0.261577 -0.665389 0.699168 
0.206762 -0.638856 0.741021 0.340984 -0.624522 0.702639 0.4941 -0.537678 0.683203 
-0.290988 -0.439428 0.849841 -0.49268 -0.290202 0.820396 -0.0899042 -0.450656 0.888159 
0.0395562 -0.310302 0.949815 0.0715063 -0.307697 0.948794 0.0684287 -0.306919 0.949272 
0.0904795 -0.280978 0.95544 -0.0181793 -0.133191 0.990924 -0.231015 -0.335652 0.913219 
-0.227766 -0.325468 0.917711 -0.314651 -0.301288 0.900122 -0.188125 -0.271121 0.943982 
-0.031048 -0.30069 0.953216 0.1426 -0.360567 0.921768 0.283733 -0.452099 0.845637 
0.496736 -0.53592 0.682674 0.492695 -0.534424 0.686762 -0.550008 -0.204195 0.809812 
-0.446715 -0.173262 0.877739 -0.115267 -0.230105 0.966315 0.0800934 -0.254841 0.96366 
0.149866 -0.232341 0.961019 0.155089 -0.163535 0.974271 -0.0191916 -0.125761 0.991875 
-0.244614 -0.224892 0.94318 -0.291819 -0.0638516 0.95434 -0.192963 -0.119414 0.973913 
-0.0733473 -0.102948 0.991979 0.0289845 -0.139472 0.989802 0.196864 -0.251775 0.947551 
0.617065 -0.400552 0.67734 0.401019 -0.336206 0.852144 0.651099 -0.365224 0.665343 
-0.662892 0.0408415 0.7476 -0.516145 -0.0361887 0.855736 -0.143695 -0.0945787 0.985092 
0.0394961 -0.164448 0.985595 0.190443 -0.16908 0.967028 0.149714 -0.116638 0.981825 
-0.0895815 -0.151944 0.984321 -0.118109 -0.248271 0.961463 -0.207537 -0.136797 0.968615 
-0.222515 -0.195728 0.95508 -0.052538 -0.025425 0.998295 0.0895635 -0.129773 0.98749 
0.299856 -0.237811 0.923868 0.699187 -0.264566 0.664185 0.606652 -0.266379 0.74901 
-0.777874 0.239377 0.581043 -0.810816 0.29049 0.508126 -0.69468 0.197834 0.691579 
-0.237667 -0.0960909 0.966582 0.0210648 -0.182055 0.983063 0.183695 -0.208838 0.960543 
0.168059 -0.233427 0.957741 -0.14827 -0.26538 0.952675 -0.204611 -0.19123 0.959982 
-0.289604 -0.330821 0.898158 0.0312305 -0.10008 0.994489 0.749753 -0.0909694 0.655435 
0.570727 -0.0674948 0.818361 -0.844518 0.295968 0.44631 -0.430941 -0.0435741 0.901327 
0.109793 -0.279304 0.953905 0.127421 -0.308855 0.942535 -0.0707364 -0.244484 0.96707 
-0.181447 -0.254811 0.949815 0.299589 0.139397 0.94383 0.711261 0.146726 0.687444 
0.566753 0.174734 0.805146 -0.926426 0.210591 0.312067 -0.60045 0.0569679 0.79763 
-0.0790294 -0.170239 0.982229 0.374527 0.331565 0.865907 0.611074 0.327855 0.720486 
0.583033 0.369126 0.723753 0.581756 0.324667 0.745755 -0.930613 0.20962 0.300032 
-0.758801 0.204747 0.618304 0.348663 0.666902 0.658541 0.349905 0.45481 0.818972 
0.449171 0.510811 0.733019 0.410309 0.549461 0.727832 0.405947 0.501775 0.763825 
-0.858403 0.374269 0.350808 -0.819721 0.440518 0.366061 -0.808471 0.385119 0.445037 
0.530768 0.752872 0.389191 0.370628 0.690378 0.6213 0.430759 0.721118 0.542619 
0.436501 0.619195 0.652736 -0.637722 0.617947 0.45984 -0.54055 0.688388 0.483661 
-0.488636 0.602065 0.631468 -0.229767 0.400349 0.887089 -0.191692 0.259521 0.946522 
0.532266 0.753108 0.38668 0.567665 0.752122 0.334767 -0.420268 0.766508 0.485633 
-0.418716 0.767209 0.485867 -0.417371 0.764537 0.491207 -0.346377 0.764069 0.544262 
-0.31065 0.608059 0.73059 -0.128013 0.876608 0.463864 -0.202876 0.48363 0.851436 
0.174925 0.883026 0.435506 0.0329876 0.59382 0.803922 0.523804 0.78066 0.34088 
0.4265 0.828803 0.362193 0.347193 0.700616 0.623373 -0.00928028 -0.0999987 0.994944 
-0.158045 -0.218753 0.962896 -0.0218507 -0.0809675 0.996477 0.0422379 -0.113931 0.99259 
-0.014466 -0.0947651 0.995395 0.0877055 -0.127514 0.987951 0.234941 -0.0776089 0.968906 
-0.0649233 -0.217936 0.973801 -0.218603 -0.321176 0.921444 -0.259565 -0.259808 0.930121 
0.0271872 -0.113065 0.993216 0.00889858 -0.250389 0.968105 0.0178761 -0.0986345 0.994963 
0.0383446 -0.108896 0.993313 -0.0791431 -0.0886349 0.992915 0.0648537 -0.0882063 0.993989 
0.239469 -0.0694245 0.968419 0.250102 -0.016269 0.968083 0.232338 -0.0690853 0.970178 
-0.112456 -0.202826 0.972736 0.00932038 -0.249642 0.968293 -0.076882 -0.222057 0.971998 
0.108166 -0.26779 0.957386 0.167101 -0.186255 0.968187 -0.195368 -0.234965 0.952168 
-0.182562 -0.24667 0.951748 -0.228686 -0.169393 0.958649 -0.0360712 -0.0535961 0.997911 
0.0945272 -0.185036 0.978175 0.00187821 -0.0573634 0.998352 0.273247 0.128313 0.953348 
0.104472 0.0464387 0.993443 -0.420642 -0.0085918 0.907186 -0.195808 -0.0918935 0.976327 
0.103842 -0.155422 0.982375 0.110719 -0.168795 0.979413 0.174049 -0.168143 0.970276 
-0.113359 -0.1728 0.978412 -0.0946251 -0.158904 0.982749 -0.177101 -0.189955 0.965687 
-0.0670798 -0.183254 0.980774 -0.0489447 -0.0251715 0.998484 0.0522324 -0.0640224 0.996581 
0.149404 0.0709701 0.986226 0.271444 0.237449 0.932704 0.270367 0.248379 0.930166 
0.259962 0.225626 0.938889 -0.428192 0.147151 0.891627 -0.253296 0.129695 0.958656 
0.0338816 0.0364935 0.998759 0.10308 -0.0294106 0.994238 -0.104176 -0.157923 0.981941 
-0.198173 -0.13877 0.970294 -0.0259881 -0.137873 0.990109 0.0755552 -0.02126 0.996915 
0.190386 0.134774 0.972414 0.294061 0.327314 0.897994 0.298304 0.331611 0.895014 
0.290131 0.318224 0.902528 -0.310895 0.309709 0.898568 -0.309125 0.311035 0.898721 
-0.308282 0.309088 0.899681 -0.12292 0.295153 0.94751 -0.0522895 0.235794 0.970395 
-0.155105 0.218577 0.963414 -0.0283047 0.0812048 0.996295 -0.19329 -0.0726428 0.978449 
-0.139071 -0.0419607 0.989393 0.0449108 0.0245389 0.99869 0.224462 0.172287 0.959132 
0.398427 0.410514 0.820204 0.407829 0.415023 0.813284 0.391772 0.392937 0.831935 
-0.196432 0.244017 0.949668 -0.214391 0.3705 0.903751 -0.231924 0.158036 0.95981 
0.0269083 0.578985 0.814894 -0.0927268 0.208621 0.973591 0.2773 0.564813 0.777233 
0.193468 0.314744 0.92925 0.447862 0.503355 0.738955 0.445629 0.506619 0.738073 
0.438928 0.492133 0.751763 
