# vtk DataFile Version 4.2
vtk output
ASCII
DATASET POLYDATA
POINTS 524 float
15.0792 -32.5263 -10.5707 22.9753 -32.5263 -10.7062 -40.1932 -24.6302 -10.0076 
-32.2971 -24.6302 -11.2258 -24.4011 -24.6302 -11.0598 -16.505 -24.6302 -10.6135 
-8.60896 -24.6302 -9.90238 -0.7129 -24.6302 -10.3661 7.18316 -24.6302 -11.854 
15.0792 -24.6302 -12.5929 22.9753 -24.6302 -12.6477 30.8713 -24.6302 -12.6074 
38.7674 -24.6302 -11.1991 46.6635 -24.6302 -10.8143 -48.0893 -16.7342 -11.6248 
-40.1932 -16.7342 -13.2797 -32.2971 -16.7342 -13.149 -24.4011 -16.7342 -12.672 
-16.505 -16.7342 -11.5405 -8.60896 -16.7342 -10.39 -0.7129 -16.7342 -10.8275 
7.18316 -16.7342 -12.9116 15.0792 -16.7342 -12.7458 22.9753 -16.7342 -12.9799 
30.8713 -16.7342 -13.5071 38.7674 -16.7342 -13.6575 46.6635 -16.7342 -11.9304 
54.5595 -16.7342 -10.6345 -55.9853 -8.8381 -12.0562 -48.0893 -8.8381 -15.451 
-40.1932 -8.8381 -14.9395 -32.2971 -8.8381 -14.4518 -24.4011 -8.8381 -13.6186 
-16.505 -8.8381 -11.6731 -8.60896 -8.8381 -12.6158 -0.7129 -8.8381 -14.9604 
7.18316 -8.8381 -15.4581 15.0792 -8.8381 -11.969 22.9753 -8.8381 -13.6259 
30.8713 -8.8381 -14.4873 38.7674 -8.8381 -14.7718 46.6635 -8.8381 -14.6164 
54.5595 -8.8381 -12.7645 -55.9853 -0.942035 -12.5933 -48.0893 -0.942035 -16.23 
-40.1932 -0.942035 -15.6803 -32.2971 -0.942035 -15.2558 -24.4011 -0.942035 -13.7275 
-16.505 -0.942035 -11.9564 -8.60896 -0.942035 -15.9495 -0.7129 -0.942035 -11.5551 
7.18316 -0.942035 -17.3374 15.0792 -0.942035 -12.7953 22.9753 -0.942035 -14.2999 
30.8713 -0.942035 -15.4677 38.7674 -0.942035 -15.9678 46.6635 -0.942035 -15.3429 
54.5595 -0.942035 -12.478 -55.9853 6.95403 -10.8876 -48.0893 6.95403 -15.2734 
-40.1932 6.95403 -15.46 -32.2971 6.95403 -15.1289 -24.4011 6.95403 -14.2438 
-16.505 6.95403 -13.5389 -8.60896 6.95403 -16.9764 -0.7129 6.95403 -15.9788 
7.18316 6.95403 -17.2983 15.0792 6.95403 -13.8692 22.9753 6.95403 -14.9473 
30.8713 6.95403 -15.8752 38.7674 6.95403 -16.4589 46.6635 6.95403 -15.4151 
54.5595 6.95403 -12.7084 -48.0893 14.8501 -12.1916 -40.1932 14.8501 -14.4541 
-32.2971 14.8501 -15.3622 -24.4011 14.8501 -15.4864 -16.505 14.8501 -15.2603 
-8.60896 14.8501 -15.8581 -0.7129 14.8501 -16.8784 7.18316 14.8501 -16.3484 
15.0792 14.8501 -15.3089 22.9753 14.8501 -15.6143 30.8713 14.8501 -16.0802 
38.7674 14.8501 -16.1513 46.6635 14.8501 -17.44 54.5595 14.8501 -12.4933 
-48.0893 22.7462 -11.4542 -40.1932 22.7462 -15.827 -32.2971 22.7462 -16.0979 
-24.4011 22.7462 -16.0222 -16.505 22.7462 -16.0328 -8.60896 22.7462 -16.3968 
-0.7129 22.7462 -16.6098 7.18316 22.7462 -16.3187 15.0792 22.7462 -15.8952 
22.9753 22.7462 -16.2987 30.8713 22.7462 -17.1076 38.7674 22.7462 -15.2328 
46.6635 22.7462 -13.1829 -40.1932 30.6422 -13.0345 -32.2971 30.6422 -14.6229 
-24.4011 30.6422 -16.3423 -16.505 30.6422 -15.9941 -8.60896 30.6422 -16.7184 
-0.7129 30.6422 -17.3111 7.18316 30.6422 -16.7259 15.0792 30.6422 -15.6746 
22.9753 30.6422 -16.073 30.8713 30.6422 -14.6943 38.7674 30.6422 -14.3626 
46.6635 30.6422 -11.3346 -40.1932 38.5383 -10.008 -32.2971 38.5383 -12.6396 
-24.4011 38.5383 -14.0356 -16.505 38.5383 -14.5165 -8.60896 38.5383 -15.9006 
-0.7129 38.5383 -16.9133 7.18316 38.5383 -16.0404 15.0792 38.5383 -13.9256 
22.9753 38.5383 -12.9772 30.8713 38.5383 -11.9384 38.7674 38.5383 -9.9182 
-16.505 46.4343 -11.8359 -8.60896 46.4343 -12.1231 -0.7129 46.4343 -14.0115 
7.18316 46.4343 -12.6733 15.0792 46.4343 -11.1078 -24.4011 -40.4223 -2.63327 
-16.505 -40.4223 -4.43596 -8.60896 -40.4223 -5.35905 -0.7129 -40.4223 -5.51704 
7.18316 -40.4223 -5.94577 15.0792 -33.9868 -9.88988 15.0792 -40.4223 -6.36727 
22.9753 -34.0615 -9.88988 22.9753 -40.4223 -5.92531 30.8713 -40.4223 -3.58427 
-40.1932 -24.8543 -9.88988 -40.1932 -32.5263 -5.11879 -32.2971 -28.7856 -9.88988 
-32.2971 -32.5263 -8.58439 -24.4011 -28.0068 -9.88988 -24.4011 -32.5263 -8.23162 
-16.505 -27.1972 -9.88988 -16.505 -32.5263 -8.41398 -8.60896 -24.6981 -9.88988 
-8.60896 -32.5263 -8.3666 -0.7129 -27.3434 -9.88988 -0.7129 -32.5263 -8.9245 
7.9584 -32.5263 -9.88988 7.18316 -32.2511 -9.88988 7.18316 -32.5263 -9.81371 
28.6851 -32.5263 -9.88988 30.8713 -31.8507 -9.88988 30.8713 -32.5263 -9.58345 
38.7674 -29.3889 -9.88988 38.7674 -32.5263 -8.85456 46.6635 -26.1315 -9.88988 
46.6635 -32.5263 -3.3668 -40.7243 -24.6302 -9.88988 -48.0893 -20.7794 -9.88988 
-48.0893 -24.6302 -7.96759 48.2812 -24.6302 -9.88988 54.5595 -18.0176 -9.88988 
54.5595 -24.6302 -3.84044 -52.6971 -16.7342 -9.88988 -55.9853 -14.2415 -9.88988 
-55.9853 -16.7342 -8.30802 55.6235 -16.7342 -9.88988 -58.9925 -8.8381 -9.88988 
-63.8814 -8.8381 -2.2127 58.9448 -8.8381 -9.88988 62.4556 -8.8381 -5.65731 
-59.6922 -0.942035 -9.88988 -63.8814 -0.942035 -2.70668 59.319 -0.942035 -9.88988 
62.4556 -0.942035 -7.36309 -57.2186 6.95403 -9.88988 -55.9853 9.33671 -9.88988 
59.5388 6.95403 -9.88988 62.4556 6.95403 -6.98642 -51.5212 14.8501 -9.88988 
-55.9853 14.8501 -2.67452 57.9186 14.8501 -9.88988 54.5595 21.7571 -9.88988 
-49.8919 22.7462 -9.88988 -48.0893 26.0637 -9.88988 53.4564 22.7462 -9.88988 
54.5595 22.7462 -8.8389 -44.2678 30.6422 -9.88988 48.6833 30.6422 -9.88988 
46.6635 32.6348 -9.88988 -40.3515 38.5383 -9.88988 -40.1932 38.6839 -9.88988 
-32.2971 42.5039 -9.88988 -24.4011 45.7638 -9.88988 22.9753 43.5702 -9.88988 
30.8713 40.5816 -9.88988 38.8158 38.5383 -9.88988 38.7674 38.5664 -9.88988 
-22.945 46.4343 -9.88988 -24.4011 46.4343 -8.12446 -16.505 48.1393 -9.88988 
-8.60896 48.4707 -9.88988 -0.7129 49.9245 -9.88988 7.18316 48.9539 -9.88988 
18.054 46.4343 -9.88988 15.0792 47.5602 -9.88988 -24.4011 -41.0207 -1.99381 
-16.505 -43.3829 -1.99381 -8.60896 -44.0227 -1.99381 -0.7129 -44.3674 -1.99381 
-0.7129 -48.3184 5.16844 7.18316 -44.521 -1.99381 7.18316 -48.3184 5.29013 
15.0792 -44.4232 -1.99381 22.9753 -43.7263 -1.99381 30.8713 -41.6274 -1.99381 
-40.1932 -35.2985 -1.99381 -26.2687 -40.4223 -1.99381 -32.2971 -38.7419 -1.99381 
-32.2971 -40.4223 5.39006 33.8497 -40.4223 -1.99381 38.7674 -38.5394 -1.99381 
46.6635 -33.7691 -1.99381 -45.2775 -32.5263 -1.99381 -48.0893 -30.762 -1.99381 
48.1224 -32.5263 -1.99381 46.6635 -32.5263 5.2141 54.5595 -26.4499 -1.99381 
-55.1164 -24.6302 -1.99381 -55.9853 -23.7316 -1.99381 -55.9853 -24.6302 1.4334 
56.1273 -24.6302 -1.99381 -60.9968 -16.7342 -1.99381 -63.8814 -9.16894 -1.99381 
62.0544 -16.7342 -1.99381 62.4556 -15.7347 -1.99381 -63.9915 -8.8381 -1.99381 
-63.8814 -8.8381 -0.82719 64.9378 -8.8381 -1.99381 -64.2099 -0.942035 -1.99381 
-63.8814 -0.126674 -1.99381 -63.8814 -0.942035 0.916101 65.6468 -0.942035 -1.99381 
-60.8744 6.95403 -1.99381 -55.9853 6.95403 5.6766 64.984 6.95403 -1.99381 
62.4556 13.5271 -1.99381 62.4556 6.95403 3.36781 -56.2779 14.8501 -1.99381 
-55.9853 15.2884 -1.99381 -55.9853 14.8501 -1.53137 61.9106 14.8501 -1.99381 
54.5595 14.8501 5.69188 -52.1573 22.7462 -1.99381 -48.0893 30.3158 -1.99381 
-48.0893 22.7462 4.02926 57.748 22.7462 -1.99381 54.5595 27.2929 -1.99381 
54.5595 22.7462 2.75962 -47.8874 30.6422 -1.99381 -40.1932 30.6422 5.56668 
38.7674 30.6422 5.66156 51.8429 30.6422 -1.99381 46.6635 35.5168 -1.99381 
46.6635 30.6422 4.06565 -43.2009 38.5383 -1.99381 -40.1932 41.452 -1.99381 
-40.1932 38.5383 1.9636 -32.2971 46.1701 -1.99381 -32.2971 38.5383 5.53457 
22.9753 45.404 -1.99381 22.9753 38.5383 4.06246 30.8713 42.8384 -1.99381 
30.8713 38.5383 4.64986 41.6693 38.5383 -1.99381 38.7674 40.0382 -1.99381 
38.7674 38.5383 0.16824 -31.2098 46.4343 -1.99381 -24.4011 47.7408 -1.99381 
-24.4011 46.4343 0.511649 -16.505 49.1081 -1.99381 -16.505 46.4343 2.50491 
-8.60896 50.4335 -1.99381 -8.60896 46.4343 4.28798 -0.7129 51.036 -1.99381 
-0.7129 46.4343 5.56463 7.18316 50.922 -1.99381 7.18316 46.4343 4.53185 
20.5779 46.4343 -1.99381 15.0792 48.3157 -1.99381 15.0792 46.4343 0.731791 
-0.7129 -48.6129 5.90225 7.18316 -48.5627 5.90225 -32.2971 -40.5442 5.90225 
-24.4011 -43.0986 5.90225 -16.505 -45.266 5.90225 -2.85966 -48.3184 5.90225 
-8.60896 -47.4982 5.90225 -0.7129 -48.3184 6.7139 9.006 -48.3184 5.90225 
7.18316 -48.3184 6.64804 15.0792 -47.4658 5.90225 22.9753 -45.3515 5.90225 
30.8713 -42.6253 5.90225 -32.6026 -40.4223 5.90225 -40.1932 -37.0966 5.90225 
-32.2971 -40.4223 6.1087 -24.4011 -40.4223 11.0041 -16.505 -40.4223 13.1211 
22.9753 -40.4223 13.5363 36.9601 -40.4223 5.90225 30.8713 -40.4223 9.22161 
38.7674 -39.5859 5.90225 -55.9853 -25.5884 5.90225 -47.1559 -32.5263 5.90225 
-48.0893 -31.8181 5.90225 -40.1932 -32.5263 11.6831 46.5136 -32.5263 5.90225 
38.7674 -32.5263 10.8402 46.6635 -32.3658 5.90225 54.5595 -25.9941 5.90225 
-56.8351 -24.6302 5.90225 -55.9853 -24.6302 7.41447 -48.0893 -24.6302 12.8738 
46.6635 -24.6302 10.1992 55.4741 -24.6302 5.90225 54.5595 -24.6302 6.83524 
-60.7526 -16.7342 5.90225 -55.9853 -16.7342 10.8754 38.7674 -16.7342 13.5148 
46.6635 -16.7342 11.778 58.2686 -16.7342 5.90225 54.5595 -16.7342 9.21448 
62.4556 -9.95866 5.90225 -63.0125 -8.8381 5.90225 -55.9853 -8.8381 12.269 
15.0792 -8.8381 13.332 22.9753 -8.8381 13.179 30.8713 -8.8381 13.4687 
38.7674 -8.8381 13.434 46.6635 -8.8381 12.4038 54.5595 -8.8381 12.5615 
62.8999 -8.8381 5.90225 62.4556 -8.8381 6.32935 -62.6841 -0.942035 5.90225 
-55.9853 6.62613 5.90225 -55.9853 -0.942035 10.8963 15.0792 -0.942035 9.61792 
22.9753 -0.942035 11.3346 30.8713 -0.942035 12.5272 38.7674 -0.942035 12.8641 
46.6635 -0.942035 11.9419 54.5595 -0.942035 11.5419 62.9343 -0.942035 5.90225 
62.4556 1.26805 5.90225 62.4556 -0.942035 6.35436 -55.7522 6.95403 5.90225 
-48.0893 6.95403 11.3604 -40.1932 6.95403 13.7219 -32.2971 6.95403 13.3746 
-24.4011 6.95403 13.1496 -16.505 6.95403 11.9595 -8.60896 6.95403 11.331 
-0.7129 6.95403 10.5665 7.18316 6.95403 9.16158 15.0792 6.95403 8.7209 
22.9753 6.95403 10.3977 30.8713 6.95403 11.5891 38.7674 6.95403 12.2512 
46.6635 6.95403 10.9323 59.9655 6.95403 5.90225 54.5595 14.3169 5.90225 
54.5595 6.95403 9.22179 -48.373 14.8501 5.90225 -48.0893 15.6106 5.90225 
-48.0893 14.8501 6.09187 -40.1932 14.8501 9.33657 -32.2971 14.8501 10.7151 
[...]
POINT_DATA 524
SCALARS ImageScalars float
LOOKUP_TABLE default
0 0 0 0 0 0 0 0 0 
0 0 0 0 0 0 0 0 0 
0 0 0 0 0 0 0 0 0 
0 0 0 0 0 0 0 0 0 
0 0 0 0 0 0 0 0 0 
0 0 0 0 0 0 0 0 0 
0 0 0 0 0 0 0 0 0 
0 0 0 0 0 0 0 0 0 
0 0 0 0 0 0 0 0 0 
0 0 0 0 0 0 0 0 0 
0 0 0 0 0 0 0 0 0 
0 0 0 0 0 0 0 0 0 
0 0 0 0 0 0 0 0 0 
0 0 0 0 0 0 0 0 0 
0 0 0 0 0 0 0 0 0 
0 0 0 0 0 0 0 0 0 
0 0 0 0 0 0 0 0 0 
0 0 0 0 0 0 0 0 0 
0 0 0 0 0 0 0 0 0 
0 0 0 0 0 0 0 0 0 
0 0 0 0 0 0 0 0 0 
0 0 0 0 0 0 0 0 0 
0 0 0 0 0 0 0 0 0 
0 0 0 0 0 0 0 0 0 
0 0 0 0 0 0 0 0 0 
0 0 0 0 0 0 0 0 0 
0 0 0 0 0 0 0 0 0 
0 0 0 0 0 0 0 0 0 
0 0 0 0 0 0 0 0 0 
0 0 0 0 0 0 0 0 0 
0 0 0 0 0 0 0 0 0 
0 0 0 0 0 0 0 0 0 
0 0 0 0 0 0 0 0 0 
0 0 0 0 0 0 0 0 0 
0 0 0 0 0 0 0 0 0 
0 0 0 0 0 0 0 0 0 
0 0 0 0 0 0 0 0 0 
0 0 0 0 0 0 0 0 0 
0 0 0 0 0 0 0 0 0 
0 0 0 0 0 0 0 0 0 
0 0 0 0 0 0 0 0 0 
0 0 0 0 0 0 0 0 0 
0 0 0 0 0 0 0 0 0 
0 0 0 0 0 0 0 0 0 
0 0 0 0 0 0 0 0 0 
0 0 0 0 0 0 0 0 0 
0 0 0 0 0 0 0 0 0 
0 0 0 0 0 0 0 0 0 
0 0 0 0 0 0 0 0 0 
0 0 0 0 0 0 0 0 0 
0 0 0 0 0 0 0 0 0 
0 0 0 0 0 0 0 0 0 
0 0 0 0 0 0 0 0 0 
0 0 0 0 0 0 0 0 0 
0 0 0 0 0 0 0 0 0 
0 0 0 0 0 0 0 0 0 
0 0 0 0 0 0 0 0 0 
0 0 0 0 0 0 0 0 0 
0 0 
NORMALS Normals float
0.053362 0.35034 0.935101 -0.0563698 0.362535 0.930264 0.162833 0.425769 0.89006 
0.061042 0.28861 0.955499 -0.0366216 0.265107 0.963523 -0.0718838 0.193599 0.978444 
-0.0152649 0.122121 0.992398 0.121806 0.111922 0.986223 0.139924 0.189198 0.971919 
0.0490772 0.129298 0.990391 0.000701681 0.129742 0.991548 -0.0794625 0.217903 0.97273 
-0.123337 0.302527 0.945127 -0.292703 0.358404 0.886494 0.237484 0.363627 0.900764 
0.0839904 0.282626 0.955546 -0.0391867 0.191961 0.98062 -0.0984308 0.155817 0.982869 
-0.145353 0.0657584 0.987192 -0.0470932 0.121915 0.991423 0.16211 0.257803 0.952501 
0.112149 0.183966 0.976514 0.00429526 -0.0393727 0.999215 0.0477703 0.0612108 0.996981 
0.0437017 0.123279 0.991409 -0.0868821 0.202304 0.975461 -0.206479 0.23724 0.949254 
-0.397532 0.408985 0.821401 0.477212 0.179762 0.860206 0.228167 0.284888 0.93101 
-0.0591708 0.153229 0.986418 -0.0811379 0.131348 0.98801 -0.174556 0.0684552 0.982265 
-0.0841603 0.0260003 0.996113 0.222686 0.304515 0.926111 0.133599 0.0972575 0.986252 
-0.222206 0.286085 0.932084 -0.0558027 0.00133777 0.998441 0.160008 0.0837363 0.983558 
0.0722642 0.123676 0.989688 0.00896939 0.150691 0.98854 -0.150051 0.219629 0.963975 
-0.379289 0.125835 0.916682 0.505038 -0.0682313 0.860396 0.210295 -0.00581621 0.977621 
-0.0563303 0.0304335 0.997948 -0.12327 0.0422216 0.991475 -0.207834 0.0397732 0.977355 
0.0271888 0.118692 0.992559 0.0674503 0.264601 0.961996 0.170552 0.0689706 0.982932 
-0.0196902 0.0970859 0.995081 -0.122966 0.125734 0.984414 0.165326 0.0828903 0.982749 
0.103848 0.0869028 0.990789 -0.0135494 0.105846 0.99429 -0.18386 0.044169 0.98196 
-0.402611 -0.00828426 0.915333 0.59419 -0.293702 0.748784 0.289902 -0.202699 0.935345 
-0.0119263 -0.0771472 0.996948 -0.076178 0.0067646 0.997071 -0.10008 0.113052 0.988536 
0.143753 0.205931 0.96795 0.170469 -0.0382061 0.984622 0.0122715 0.291678 0.956438 
-0.167327 -0.0700049 0.983413 -0.105267 0.165796 0.980526 0.127209 0.0833657 0.988366 
0.0947185 0.0387763 0.994749 -0.0396279 0.0121884 0.99914 -0.197382 0.0948291 0.975729 
-0.395702 -0.00221671 0.918376 0.446257 -0.249853 0.859318 0.176855 0.00181019 0.984235 
0.0649723 0.0574469 0.996232 -0.00568517 0.113775 0.99349 0.0239962 0.157188 0.987277 
0.102448 -0.0264507 0.994387 0.0318119 0.0306356 0.999024 -0.105177 -0.0511003 0.99314 
-0.046953 0.13181 0.990162 0.0498117 0.0868617 0.994974 0.0342006 0.0753796 0.996568 
0.0689306 -0.0778918 0.994576 -0.241406 -0.0515613 0.969053 -0.540334 -0.183848 0.821121 
0.625038 -0.270147 0.732358 0.296204 -0.0431965 0.954147 0.00872637 -0.047012 0.998856 
-0.00367535 0.0536941 0.998551 0.0239858 0.0441043 0.998739 0.0375187 0.0555429 0.997751 
-0.00501072 0.0271117 0.99962 -0.0465595 0.024205 0.998622 -0.00137011 0.0240917 0.999709 
0.0764779 0.031493 0.996574 -0.0601422 -0.0738821 0.995452 -0.227065 -0.104776 0.968227 
-0.391916 -0.359672 0.846781 0.478602 -0.370891 0.795851 0.189976 -0.191617 0.962908 
0.0880807 -0.128475 0.987794 0.0254188 -0.0892814 0.995682 0.0851611 -0.0259725 0.996029 
0.000596874 0.0221404 0.999755 -0.106812 -0.0127827 0.994197 -0.0458215 -0.11872 0.99187 
-0.0630502 -0.237907 0.969239 -0.107091 -0.308706 0.94511 -0.225458 -0.337681 0.91386 
-0.500587 -0.428686 0.752091 0.509787 -0.558281 0.654553 0.296448 -0.488054 0.820927 
0.0999123 -0.411243 0.906034 0.123421 -0.273096 0.954037 0.156428 -0.246767 0.956366 
0.00815276 -0.142547 0.989754 -0.193548 -0.211206 0.958087 -0.209568 -0.312845 0.926396 
-0.114785 -0.497669 0.859738 -0.212612 -0.627585 0.748954 -0.385791 -0.718894 0.578236 
0.161215 -0.701674 0.69402 0.107975 -0.681754 0.72357 0.0300942 -0.638109 0.769358 
-0.163317 -0.651318 0.741021 -0.281639 -0.722911 0.630935 0.231057 0.789671 0.56836 
0.152517 0.646219 0.747756 0.062629 0.560874 0.825529 0.0323749 0.525008 0.850481 
0.0456257 0.560634 0.826806 0.0428071 0.382086 0.923135 4.09796e-05 0.62071 0.78404 
-0.0612241 0.39833 0.915196 -0.123497 0.694089 0.709217 -0.309125 0.826068 0.471226 
0.169137 0.428629 0.887507 0.418634 0.675042 0.607506 0.101969 0.321955 0.941248 
0.149511 0.412536 0.898588 -0.0282105 0.327671 0.944371 -0.00726297 0.443917 0.896038 
-0.0458343 0.241397 0.969344 0.007936 0.355033 0.93482 -0.0148181 0.12343 0.992243 
0.0311311 0.282237 0.958839 0.110825 0.161954 0.980555 0.0874416 0.271728 0.958394 
0.0941386 0.325634 0.940798 0.10035 0.318158 0.942712 0.0986897 0.323306 0.941134 
-0.0853181 0.4154 0.905629 -0.0950716 0.416028 0.904368 -0.0998119 0.444178 0.890361 
-0.200921 0.398139 0.895051 -0.276644 0.501934 0.819469 -0.318015 0.403656 0.857863 
-0.566768 0.741903 0.358266 0.173129 0.434159 0.884043 0.289108 0.452538 0.843579 
0.375931 0.592297 0.712643 -0.346602 0.39207 0.852143 -0.422708 0.436195 0.794388 
-0.696182 0.604212 0.387631 0.348334 0.439099 0.828164 0.448779 0.400685 0.798779 
0.505857 0.522094 0.686677 -0.44948 0.410127 0.793577 0.607016 0.176625 0.774813 
0.962957 0.171496 0.208094 -0.603513 0.178614 0.777091 -0.859589 0.256108 0.442171 
0.673957 -0.095176 0.732614 0.958968 -0.185275 0.2146 -0.599734 0.0281727 0.799703 
-0.838782 0.0706538 0.539864 0.639735 -0.324617 0.69668 0.637441 -0.37429 0.673481 
-0.658226 -0.0955628 0.74673 -0.891967 -0.225534 0.391829 0.627028 -0.342149 0.699835 
0.815663 -0.577318 -0.03739 -0.696271 -0.247765 0.673661 -0.586966 -0.413155 0.696257 
0.719462 -0.303283 0.624815 0.683578 -0.347831 0.641666 -0.562458 -0.432539 0.704664 
-0.635275 -0.482198 0.603251 0.631309 -0.406015 0.660758 -0.57889 -0.512101 0.634539 
-0.558721 -0.564943 0.607183 0.517667 -0.561687 0.64539 0.513113 -0.566675 0.644667 
0.349975 -0.643532 0.680723 0.242547 -0.772336 0.587084 -0.302689 -0.74882 0.589617 
-0.275419 -0.751149 0.599933 -0.387914 -0.720189 0.575197 -0.386564 -0.72059 0.575602 
0.231165 -0.790613 0.567004 0.248003 -0.872784 0.420407 0.162286 -0.829788 0.533962 
0.111207 -0.817065 0.565719 0.0315761 -0.863966 0.502559 -0.162816 -0.801813 0.574966 
-0.309704 -0.782969 0.539485 -0.281224 -0.795314 0.537018 0.253188 0.811171 0.52716 
0.169076 0.79882 0.577321 0.0487227 0.773848 0.631494 0.0292779 0.745955 0.665352 
0.0654993 0.995965 0.0613441 0.00169157 0.780117 0.625631 -0.068377 0.995286 0.0687802 
-0.0475129 0.840132 0.540296 -0.157432 0.890391 0.427106 -0.314021 0.868348 0.383879 
0.423661 0.81082 0.403834 0.272064 0.828647 0.489208 0.318577 0.870528 0.375087 
0.339888 0.931586 -0.12893 -0.343029 0.855713 0.38741 -0.389361 0.841848 0.373752 
-0.589206 0.767415 0.252807 0.520928 0.754386 0.39942 0.559834 0.737808 0.377127 
-0.609872 0.752135 0.249699 -0.628014 0.706806 -0.325613 -0.718245 0.646767 0.256546 
0.658592 0.677841 0.326785 0.681325 0.661056 0.314327 0.730048 0.672963 0.118955 
-0.736633 0.631013 0.243298 0.861842 0.471811 0.186071 0.963629 0.18358 0.194209 
-0.866771 0.467849 0.1727 -0.879078 0.441115 0.180666 0.965408 0.173208 0.1949 
0.978071 0.170052 0.120244 -0.958049 0.234365 0.164971 0.966763 -0.190333 0.17071 
0.963985 -0.210864 0.162079 0.969273 -0.242352 -0.0421348 -0.998297 0.000343848 0.0583414 
0.910354 -0.413727 -0.00924983 0.650509 -0.456409 -0.607066 -0.97291 -0.231185 0.000505759 
-0.926469 -0.37637 0.00080112 -0.812707 -0.294173 -0.502961 0.815051 -0.573666 -0.0812347 
0.818369 -0.568612 -0.0833791 0.809107 -0.577218 -0.110295 -0.912665 -0.40841 -0.0156363 
-0.512685 -0.279934 -0.811659 0.88483 -0.442412 -0.146106 0.865389 -0.477141 -0.153098 
0.629935 -0.338433 -0.699032 -0.830039 -0.553138 -0.0712282 -0.783563 -0.61242 -0.104745 
-0.672503 -0.486211 -0.557977 0.863679 -0.480331 -0.152778 0.513784 -0.240992 -0.823377 
-0.17942 -0.481715 -0.857764 -0.731634 -0.668256 -0.134705 -0.583419 -0.794733 -0.1674 
-0.431322 -0.541764 -0.721425 0.719201 -0.677701 -0.153204 0.630998 -0.763241 -0.138937 
0.591035 -0.615951 -0.520847 0.352811 -0.924813 -0.142287 0.286144 -0.496759 -0.819361 
-0.343449 -0.899065 -0.271524 -0.0980514 -0.607493 -0.78825 -0.306191 -0.930328 -0.201832 
-0.149409 -0.635166 -0.757787 -0.479395 -0.851786 -0.211285 -0.425675 -0.875177 -0.229925 
-0.435244 -0.827624 -0.354402 0.327807 -0.93371 -0.143973 0.184462 -0.970024 -0.158199 
0.177143 -0.917358 -0.356476 0.178371 -0.957344 -0.227326 0.145634 -0.819482 -0.554292 
0.125389 -0.96974 -0.209478 0.112001 -0.692435 -0.712734 0.0371682 -0.965633 -0.257239 
0.00732385 -0.630406 -0.776231 -0.175951 -0.957602 -0.22812 -0.192441 -0.63754 -0.745996 
-0.34984 -0.897258 -0.269332 -0.339772 -0.899176 -0.275748 -0.3366 -0.804738 -0.488975 
0.0645843 0.99777 0.0168766 -0.0692682 0.99701 0.0342353 0.337825 0.928056 -0.156799 
0.289423 0.951322 -0.105925 0.26847 0.951047 -0.153082 0.106516 0.994302 0.0042692 
0.219771 0.974455 -0.0462445 0.0727637 0.99655 -0.0399122 -0.0992924 0.99479 0.0231021 
-0.0717695 0.997273 -0.0171985 -0.204483 0.978403 -0.0302401 -0.289318 0.947848 -0.133709 
-0.36858 0.901529 -0.226704 0.342493 0.926674 -0.154837 0.487743 0.859276 -0.154115 
0.338532 0.925576 -0.169427 0.278944 0.794823 -0.538932 0.18452 0.65888 -0.729266 
-0.292294 0.580296 -0.760145 -0.44901 0.860026 -0.242374 -0.383038 0.802442 -0.457568 
-0.478368 0.833853 -0.275415 0.746846 0.642178 -0.17271 0.601571 0.782303 -0.161601 
0.612372 0.772186 -0.169497 0.393167 0.672573 -0.626949 -0.617038 0.68329 -0.390356 
-0.425775 0.429395 -0.796452 -0.616296 0.681149 -0.395241 -0.735903 0.478959 -0.478587 
0.773125 0.608139 -0.180127 0.74503 0.599034 -0.293408 0.417777 0.501051 -0.757898 
-0.41437 0.252939 -0.874253 -0.75857 0.426919 -0.492251 -0.722134 0.422717 -0.54757 
0.860527 0.356476 -0.363894 0.714929 0.196432 -0.671037 -0.14304 -0.04908 -0.988499 
-0.255512 0.157103 -0.953956 -0.681893 0.346863 -0.643978 -0.583918 0.32177 -0.745321 
-0.747504 0.228244 -0.623813 0.903361 0.104696 -0.415906 0.597259 0.00927202 -0.801995 
-0.218156 -0.462875 -0.859159 0.0105354 -0.248672 -0.968531 0.0151801 -0.118314 -0.99286 
-0.0646557 -0.0420339 -0.997022 -0.0635298 0.00687337 -0.997956 -0.350643 0.0884947 -0.932319 
-0.761525 0.193988 -0.618424 -0.740011 0.190415 -0.645078 0.807223 -0.320818 -0.495446 
0.639361 -0.451166 -0.622629 0.567129 -0.29072 -0.770615 -0.0612324 -0.270141 -0.960872 
0.17916 -0.170123 -0.968999 0.0958608 -0.118861 -0.988273 -0.0354593 -0.0742979 -0.996605 
-0.078035 -0.0930128 -0.992602 -0.361447 -0.15567 -0.919306 -0.731236 -0.0987935 -0.674933 
-0.699852 -0.153472 -0.697606 -0.703462 -0.100173 -0.703638 0.634689 -0.45429 -0.625133 
0.32083 -0.456431 -0.829903 0.107935 -0.457591 -0.882587 -0.0310093 -0.448693 -0.893148 
-0.0806766 -0.431387 -0.898553 -0.110862 -0.371716 -0.921703 -0.0964499 -0.361456 -0.927387 
-0.114852 -0.206151 -0.971757 -0.132927 -0.166244 -0.977084 0.0905983 -0.0201519 -0.995684 
0.170199 -0.0651192 -0.983256 0.114279 -0.103434 -0.988049 -0.0401605 -0.143903 -0.988777 
-0.161531 -0.141052 -0.976735 -0.585458 -0.287012 -0.758197 -0.497216 -0.27322 -0.823485 
-0.398509 -0.299169 -0.867 0.464614 -0.403057 -0.788466 0.46552 -0.387597 -0.795651 
0.453996 -0.401208 -0.795563 0.235345 -0.30408 -0.923119 0.0781401 -0.19928 -0.976822 
-0.0100478 -0.162278 -0.986694 -0.0118659 -0.0314092 -0.999436 0.0213526 -0.0163455 -0.999638 
-0.0468101 0.0108096 -0.998845 -0.105542 0.0436336 -0.993457 0.0361897 0.0326254 -0.998812 
0.101523 -0.034871 -0.994222 0.0183525 -0.123235 -0.992208 -0.0762165 -0.191319 -0.978564 
-0.494453 -0.273145 -0.825171 -0.243288 -0.217225 -0.945317 0.442999 -0.261177 -0.857635 
0.47301 -0.227346 -0.85122 0.337915 -0.207795 -0.917951 0.150893 -0.128648 -0.980143 
0.0750412 -0.041188 -0.996329 0.0254208 -0.00738577 -0.99965 -0.0305012 -0.029718 -0.999093 
-0.0531185 -0.0592944 -0.996826 -0.0933758 -0.0100861 -0.99558 -0.0121042 -0.0588824 -0.998192 
0.0200905 -0.123051 -0.992197 -0.0323153 -0.169667 -0.984971 -0.174483 -0.462556 -0.869251 
-0.137282 -0.252565 -0.957792 -0.402203 -0.340631 -0.849826 -0.357174 -0.379141 -0.853627 
-0.357558 -0.33391 -0.872156 0.480531 -0.231399 -0.845899 0.275704 -0.461207 -0.843371 
0.23116 -0.233678 -0.944436 0.106623 -0.113245 -0.987829 0.000945773 -0.202327 -0.979318 
-0.0273816 -0.180369 -0.983218 -0.0304539 -0.157011 -0.987127 -0.101799 -0.145533 -0.984102 
-0.0744039 -0.187385 -0.979465 -0.0510319 -0.46075 -0.886062 -0.0205093 -0.311995 -0.949862 
-0.178093 -0.455667 -0.872153 -0.148962 -0.501328 -0.852338 -0.166673 -0.317808 -0.933391 
0.263507 -0.479482 -0.837055 0.150754 -0.596186 -0.788566 0.13035 -0.448527 -0.884213 
0.0620509 -0.559551 -0.82647 -0.0198641 -0.390748 -0.920284 0.0873888 -0.532169 -0.842116 
0.0219423 -0.335485 -0.94179 0.00504776 -0.595517 -0.803327 -0.0164174 -0.276993 -0.960732 
-0.182889 -0.489275 -0.852737 -0.134822 -0.299475 -0.944531 -0.218295 -0.373911 -0.901409 
-0.224575 -0.372164 -0.900589 -0.222741 -0.368284 -0.902637 0.213316 0.628762 -0.747766 
0.135329 0.709491 -0.691599 -0.0765907 0.747569 -0.659753 -0.233873 0.676921 -0.697913 
0.254574 0.556242 -0.791067 0.215196 0.566568 -0.795419 0.182591 0.609548 -0.771435 
0.168742 0.59552 -0.785419 0.200136 0.557039 -0.806011 0.130789 0.506641 -0.852179 
-0.0308384 0.505939 -0.862018 -0.285409 0.568971 -0.771242 -0.239591 0.572961 -0.783781 
-0.286609 0.55056 -0.784053 -0.374521 0.362075 -0.853602 0.267348 0.547313 -0.793079 
0.324182 0.505292 -0.799741 0.232365 0.512618 -0.826576 0.159139 0.377307 -0.912313 
0.145906 0.341807 -0.928374 0.143219 0.3078 -0.94061 0.0833843 0.255199 -0.963286 
-0.033314 0.197967 -0.979642 -0.240408 0.143991 -0.959933 -0.262504 0.166498 -0.950458 
-0.36734 0.264 -0.891833 -0.349418 0.19381 -0.916703 -0.343924 0.212148 -0.914718 
0.371111 0.449096 -0.812766 0.398459 0.421901 -0.814389 0.28144 0.347309 -0.894521 
0.133931 0.256523 -0.957214 0.0868921 0.171722 -0.981306 0.117542 0.0961404 -0.988403 
0.109077 0.110661 -0.987854 0.0111111 0.0468067 -0.998842 -0.134042 -0.0557601 -0.989406 
-0.252208 -0.139387 -0.957581 -0.260002 -0.10282 -0.960118 -0.136119 -0.0409564 -0.989846 
-0.346619 0.176552 -0.921241 -0.207965 0.0248626 -0.97782 -0.337318 0.171472 -0.925642 
0.562385 0.164857 -0.810275 0.388271 0.169831 -0.905761 0.189783 0.139789 -0.971824 
0.0396781 0.0899086 -0.995159 -0.0203312 0.0166334 -0.999655 0.074743 -0.110513 -0.99106 
0.102818 -0.116958 -0.9878 -0.083785 -0.146869 -0.985601 -0.230893 -0.240058 -0.9429 
-0.227666 -0.447314 -0.864916 -0.250696 -0.318719 -0.914095 -0.0415308 -0.235571 -0.970969 
-0.15468 -0.213478 -0.964625 -0.129362 -0.0625828 -0.989621 -0.029967 -0.105464 -0.993972 
-0.109814 -0.0845149 -0.990353 0.508378 -0.01466 -0.861009 0.355303 -0.0687063 -0.932223 
0.154414 -0.0974468 -0.983189 0.0130695 -0.101359 -0.994764 -0.106077 -0.115861 -0.987585 
-0.0323507 -0.186861 -0.981854 0.0657599 -0.291971 -0.954164 -0.109483 -0.315697 -0.942523 
-0.239638 -0.439967 -0.86545 -0.313014 -0.267099 -0.911417 0.426634 -0.285921 -0.85804 
0.303087 -0.383548 -0.87237 0.303209 -0.312432 -0.90025 0.108032 -0.455142 -0.883841 
0.145044 -0.31901 -0.936587 -0.027472 -0.444036 -0.895588 0.0280613 -0.334775 -0.94188 
-0.0777456 -0.428933 -0.899985 -0.0965426 -0.324534 -0.940934 -0.0902412 -0.378449 -0.921213 
-0.091021 -0.330259 -0.939492 -0.100428 -0.425376 -0.899427 -0.054309 -0.388088 -0.920021 
-0.0638976 -0.501464 -0.862816 -0.0552299 -0.535782 -0.842548 -0.372493 -0.42716 -0.823883 
-0.31778 -0.460589 -0.828778 -0.37211 -0.43484 -0.820029 
