# vtk DataFile Version 4.2
vtk output
ASCII
DATASET POLYDATA
POINTS 508 float
2.14553 -31.1804 -14.6514 9.26009 -31.1804 -14.937 16.3747 -31.1804 -14.7736 
-19.1982 -24.0658 -14.8488 -12.0836 -24.0658 -15.7513 -4.96903 -24.0658 -16.7817 
2.14553 -24.0658 -17.6891 9.26009 -24.0658 -18.1759 16.3747 -24.0658 -18.7109 
23.4892 -24.0658 -18.58 30.6038 -24.0658 -17.7913 37.7184 -24.0658 -14.748 
-26.3127 -16.9512 -15.725 -19.1982 -16.9512 -16.7225 -12.0836 -16.9512 -17.1491 
-4.96903 -16.9512 -18.006 2.14553 -16.9512 -18.3619 9.26009 -16.9512 -18.6864 
16.3747 -16.9512 -19.8622 23.4892 -16.9512 -20.3297 30.6038 -16.9512 -19.2506 
37.7184 -16.9512 -17.1223 44.8329 -16.9512 -14.3808 -33.4273 -9.83668 -15.2897 
-26.3127 -9.83668 -16.899 -19.1982 -9.83668 -17.5177 -12.0836 -9.83668 -17.4868 
-4.96903 -9.83668 -18.7007 2.14553 -9.83668 -18.7783 9.26009 -9.83668 -18.6565 
16.3747 -9.83668 -19.8342 23.4892 -9.83668 -19.8751 30.6038 -9.83668 -19.2177 
37.7184 -9.83668 -17.6112 44.8329 -9.83668 -15.1279 -33.4273 -2.72212 -15.9279 
-26.3127 -2.72212 -17.2985 -19.1982 -2.72212 -17.8666 -12.0836 -2.72212 -18.6405 
-4.96903 -2.72212 -19.2132 2.14553 -2.72212 -19.3752 9.26009 -2.72212 -20.71 
16.3747 -2.72212 -20.0959 23.4892 -2.72212 -19.1808 30.6038 -2.72212 -18.5901 
37.7184 -2.72212 -17.8432 44.8329 -2.72212 -16.1899 -33.4273 4.39245 -15.6574 
-26.3127 4.39245 -16.9471 -19.1982 4.39245 -17.7023 -12.0836 4.39245 -19.1018 
-4.96903 4.39245 -18.7302 2.14553 4.39245 -17.8674 9.26009 4.39245 -19.8935 
16.3747 4.39245 -18.8744 23.4892 4.39245 -18.3104 30.6038 4.39245 -18.3059 
37.7184 4.39245 -18.0826 44.8329 4.39245 -16.4342 -33.4273 11.507 -15.3223 
-26.3127 11.507 -16.5455 -19.1982 11.507 -17.2445 -12.0836 11.507 -17.7611 
-4.96903 11.507 -17.2759 2.14553 11.507 -17.6297 9.26009 11.507 -17.9608 
16.3747 11.507 -17.5131 23.4892 11.507 -18.0262 30.6038 11.507 -18.5974 
37.7184 11.507 -17.4086 44.8329 11.507 -15.9084 -33.4273 18.6216 -13.9556 
-26.3127 18.6216 -15.9002 -19.1982 18.6216 -16.3719 -12.0836 18.6216 -16.1117 
-4.96903 18.6216 -15.6657 2.14553 18.6216 -17.0057 9.26009 18.6216 -17.6626 
16.3747 18.6216 -17.1704 23.4892 18.6216 -16.8516 30.6038 18.6216 -16.7809 
37.7184 18.6216 -16.552 44.8329 18.6216 -14.871 -19.1982 25.7361 -14.1507 
-12.0836 25.7361 -14.1074 -4.96903 25.7361 -14.2165 2.14553 25.7361 -15.4162 
9.26009 25.7361 -16.0223 16.3747 25.7361 -15.5984 23.4892 25.7361 -15.2323 
30.6038 25.7361 -14.2668 2.14553 -32.1759 -13.8188 9.26009 -32.2957 -13.8188 
16.3747 -32.0271 -13.8188 -26.3127 -31.1804 -7.96416 -19.1982 -26.1173 -13.8188 
-19.1982 -31.1804 -10.5709 -12.0836 -28.3564 -13.8188 -12.0836 -31.1804 -12.1463 
-2.93069 -31.1804 -13.8188 -4.96903 -30.5382 -13.8188 -4.96903 -31.1804 -13.4046 
22.8723 -31.1804 -13.8188 23.4892 -31.0727 -13.8188 23.4892 -31.1804 -13.6337 
30.6038 -29.7596 -13.8188 30.6038 -31.1804 -11.2336 37.7184 -25.3138 -13.8188 
-33.4273 -24.0658 -10.6257 -23.8193 -24.0658 -13.8188 -26.3127 -22.5108 -13.8188 
-26.3127 -24.0658 -13.2219 38.99 -24.0658 -13.8188 44.8329 -17.9996 -13.8188 
44.8329 -24.0658 -7.88785 -40.5419 -16.9512 -10.2913 -32.804 -16.9512 -13.8188 
-33.4273 -16.1731 -13.8188 -33.4273 -16.9512 -13.6234 45.6513 -16.9512 -13.8188 
-47.6564 -9.83668 -7.73845 -38.2674 -9.83668 -13.8188 -40.5419 -9.83668 -12.9864 
47.1448 -9.83668 -13.8188 51.9475 -9.83668 -9.94548 -47.6564 -2.72212 -9.24174 
-39.4848 -2.72212 -13.8188 -40.5419 -2.72212 -13.4373 49.8906 -2.72212 -13.8188 
51.9475 -2.72212 -12.6864 -47.6564 4.39245 -9.20595 -38.93 4.39245 -13.8188 
-40.5419 4.39245 -13.2656 51.5404 4.39245 -13.8188 51.9475 4.39245 -13.639 
-47.6564 11.507 -8.03454 -38.6341 11.507 -13.8188 -40.5419 11.507 -13.1079 
50.0479 11.507 -13.8188 51.9475 11.507 -12.9397 -33.8177 18.6216 -13.8188 
-40.5419 18.6216 -11.3214 -33.4273 19.0959 -13.8188 -26.3127 25.0207 -13.8188 
37.7184 24.7029 -13.8188 46.8801 18.6216 -13.8188 44.8329 20.7643 -13.8188 
51.9475 18.6216 -9.62214 -33.4273 25.7361 -11.6219 -23.3491 25.7361 -13.8188 
-26.3127 25.7361 -13.5668 -19.1982 26.4339 -13.8188 -12.0836 26.3466 -13.8188 
-4.96903 26.7508 -13.8188 2.14553 29.2557 -13.8188 9.26009 29.9119 -13.8188 
16.3747 28.8572 -13.8188 23.4892 28.1221 -13.8188 33.9588 25.7361 -13.8188 
30.6038 26.3019 -13.8188 37.7184 25.7361 -13.1643 44.8329 25.7361 -8.66939 
-26.3127 32.8507 -8.03798 -19.1982 32.8507 -9.96691 -12.0836 32.8507 -10.2581 
-4.96903 32.8507 -10.8906 2.14553 32.8507 -11.6879 9.26009 32.8507 -11.6177 
16.3747 32.8507 -10.3353 23.4892 32.8507 -8.43369 -26.3127 -32.2377 -6.7042 
-19.1982 -34.3734 -6.7042 -12.0836 -35.6395 -6.7042 -4.96903 -36.6354 -6.7042 
-4.96903 -38.2949 -0.3044 2.14553 -36.8596 -6.7042 9.26009 -36.0227 -6.7042 
16.3747 -34.7275 -6.7042 23.4892 -33.921 -6.7042 30.6038 -32.9878 -6.7042 
-28.4457 -31.1804 -6.7042 -33.4273 -28.3453 -6.7042 -33.4273 -31.1804 -2.28412 
36.8043 -31.1804 -6.7042 37.7184 -30.8589 -6.7042 44.8329 -24.8924 -6.7042 
-38.6401 -24.0658 -6.7042 -40.5419 -22.1112 -6.7042 -40.5419 -24.0658 -4.52749 
45.6277 -24.0658 -6.7042 44.8329 -24.0658 -2.55607 -44.8043 -16.9512 -6.7042 
-47.6564 -11.8727 -6.7042 -47.6564 -16.9512 -2.80856 51.1836 -16.9512 -6.7042 
51.9475 -15.3814 -6.7042 -48.8019 -9.83668 -6.7042 54.4384 -9.83668 -6.7042 
-50.6401 -2.72212 -6.7042 -54.771 -2.72212 0.372456 57.1385 -2.72212 -6.7042 
-50.6676 4.39245 -6.7042 -54.771 4.39245 0.384839 58.1882 4.39245 -6.7042 
-49.2451 11.507 -6.7042 -47.6564 14.6585 -6.7042 57.5092 11.507 -6.7042 
-45.8607 18.6216 -6.7042 -47.6564 18.6216 -4.0534 -40.5419 25.6817 -6.7042 
54.8954 18.6216 -6.7042 51.9475 21.5105 -6.7042 -40.4865 25.7361 -6.7042 
-40.5419 25.7361 -6.64164 -33.4273 31.1241 -6.7042 30.6038 32.1588 -6.7042 
37.7184 30.3722 -6.7042 46.6844 25.7361 -6.7042 44.8329 26.8519 -6.7042 
-29.3344 32.8507 -6.7042 -33.4273 32.8507 -3.55078 -26.3127 33.9475 -6.7042 
-19.1982 35.5728 -6.7042 -12.0836 36.3298 -6.7042 -4.96903 36.9721 -6.7042 
2.14553 36.9562 -6.7042 9.26009 36.3197 -6.7042 16.3747 35.2228 -6.7042 
27.7237 32.8507 -6.7042 23.4892 33.7923 -6.7042 -4.96903 -38.4528 0.410365 
-33.4273 -32.5616 0.410365 -26.3127 -35.7031 0.410365 -19.1982 -37.1602 0.410365 
-7.4717 -38.2949 0.410365 -12.0836 -37.997 0.410365 -2.0788 -38.2949 0.410365 
-4.96903 -38.2949 1.78633 2.14553 -38.0599 0.410365 9.26009 -36.828 0.410365 
16.3747 -35.1813 0.410365 23.4892 -33.947 0.410365 30.6038 -32.7193 0.410365 
-35.7556 -31.1804 0.410365 -40.5419 -27.6175 0.410365 34.4528 -31.1804 0.410365 
30.6038 -31.1804 3.44415 37.7184 -29.6302 0.410365 -44.2091 -24.0658 0.410365 
-47.6564 -19.8422 0.410365 44.1668 -24.0658 0.410365 37.7184 -24.0658 6.88913 
44.8329 -23.3147 0.410365 -49.5807 -16.9512 0.410365 50.6502 -16.9512 0.410365 
44.8329 -16.9512 5.50163 51.9475 -14.4355 0.410365 -53.3749 -9.83668 0.410365 
-54.771 -2.81885 0.410365 53.8557 -9.83668 0.410365 51.9475 -9.83668 3.54658 
-54.7866 -2.72212 0.410365 -54.771 -2.72212 0.925448 57.2369 -2.72212 0.410365 
51.9475 -2.72212 5.94336 -54.7812 4.39245 0.410365 -54.771 4.46449 0.410365 
-54.771 4.39245 0.613544 58.6614 4.39245 0.410365 51.9475 4.39245 7.22621 
-53.5695 11.507 0.410365 58.0257 11.507 0.410365 51.9475 11.507 6.19977 
-50.23 18.6216 0.410365 -47.6564 22.6155 0.410365 54.1735 18.6216 0.410365 
51.9475 20.9585 0.410365 51.9475 18.6216 3.87957 -45.2517 25.7361 0.410365 
-40.5419 29.9292 0.410365 30.6038 32.1343 0.410365 37.7184 29.9497 0.410365 
37.7184 25.7361 5.83446 47.3606 25.7361 0.410365 44.8329 27.347 0.410365 
44.8329 25.7361 2.65409 -36.2392 32.8507 0.410365 -33.4273 34.4423 0.410365 
-26.3127 36.7364 0.410365 -19.1982 38.1199 0.410365 -12.0836 38.8807 0.410365 
-4.96903 38.7588 0.410365 2.14553 38.1443 0.410365 9.26009 36.9976 0.410365 
16.3747 35.7761 0.410365 16.3747 32.8507 6.52126 28.1025 32.8507 0.410365 
23.4892 34.1217 0.410365 23.4892 32.8507 3.09833 -33.4273 -33.1269 7.52493 
-26.3127 -35.8441 7.52493 -19.1982 -37.0789 7.52493 -12.0836 -37.569 7.52493 
-4.96903 -37.5893 7.52493 2.14553 -36.7185 7.52493 9.26009 -35.163 7.52493 
16.3747 -33.3077 7.52493 23.4892 -31.3101 7.52493 -36.5836 -31.1804 7.52493 
-40.5419 -28.2731 7.52493 -33.4273 -31.1804 12.1234 2.14553 -31.1804 14.3256 
9.26009 -31.1804 12.6346 16.3747 -31.1804 10.3194 23.8911 -31.1804 7.52493 
23.4892 -31.1804 7.69492 30.6038 -27.8076 7.52493 -44.8659 -24.0658 7.52493 
-47.6564 -20.5754 7.52493 23.4892 -24.0658 12.7977 36.5313 -24.0658 7.52493 
30.6038 -24.0658 10.0198 37.7184 -22.355 7.52493 -50.0982 -16.9512 7.52493 
-47.6564 -16.9512 12.2151 23.4892 -16.9512 13.417 30.6038 -16.9512 11.6486 
41.071 -16.9512 7.52493 37.7184 -16.9512 9.00663 44.8329 -12.4185 7.52493 
-53.5235 -9.83668 7.52493 23.4892 -9.83668 13.1723 30.6038 -9.83668 12.2218 
37.7184 -9.83668 10.7945 46.9991 -9.83668 7.52493 44.8329 -9.83668 8.39527 
-54.5655 -2.72212 7.52493 23.4892 -2.72212 13.815 30.6038 -2.72212 12.9534 
37.7184 -2.72212 12.0828 49.5033 -2.72212 7.52493 44.8329 -2.72212 9.9846 
-54.4149 4.39245 7.52493 30.6038 4.39245 14.0584 37.7184 4.39245 12.8841 
51.3824 4.39245 7.52493 44.8329 4.39245 10.9425 -53.11 11.507 7.52493 
30.6038 11.507 13.7442 37.7184 11.507 12.6294 49.8302 11.507 7.52493 
44.8329 11.507 10.1543 -49.829 18.6216 7.52493 -47.6564 21.7021 7.52493 
-47.6564 18.6216 11.0136 23.4892 18.6216 13.9168 30.6038 18.6216 12.3262 
37.7184 23.7787 7.52493 37.7184 18.6216 10.7161 46.3623 18.6216 7.52493 
44.8329 19.3704 7.52493 44.8329 18.6216 8.03856 -44.1785 25.7361 7.52493 
-40.5419 28.9317 7.52493 -40.5419 25.7361 12.0645 2.14553 25.7361 14.2433 
9.26009 25.7361 13.9998 16.3747 32.1943 7.52493 16.3747 25.7361 12.951 
23.4892 29.8883 7.52493 23.4892 25.7361 10.8306 33.9197 25.7361 7.52493 
30.6038 27.0774 7.52493 30.6038 25.7361 8.69163 -34.1648 32.8507 7.52493 
-33.4273 33.257 7.52493 -33.4273 32.8507 8.19876 -26.3127 35.4651 7.52493 
-26.3127 32.8507 11.1596 -19.1982 36.58 7.52493 -19.1982 32.8507 12.3549 
-12.0836 36.8274 7.52493 -12.0836 32.8507 12.4354 -4.96903 36.0029 7.52493 
[...]
POINT_DATA 508
SCALARS ImageScalars float
LOOKUP_TABLE default
0 0 0 0 0 0 0 0 0 
0 0 0 0 0 0 0 0 0 
0 0 0 0 0 0 0 0 0 
0 0 0 0 0 0 0 0 0 
0 0 0 0 0 0 0 0 0 
0 0 0 0 0 0 0 0 0 
0 0 0 0 0 0 0 0 0 
0 0 0 0 0 0 0 0 0 
0 0 0 0 0 0 0 0 0 
0 0 0 0 0 0 0 0 0 
0 0 0 0 0 0 0 0 0 
0 0 0 0 0 0 0 0 0 
0 0 0 0 0 0 0 0 0 
0 0 0 0 0 0 0 0 0 
0 0 0 0 0 0 0 0 0 
0 0 0 0 0 0 0 0 0 
0 0 0 0 0 0 0 0 0 
0 0 0 0 0 0 0 0 0 
0 0 0 0 0 0 0 0 0 
0 0 0 0 0 0 0 0 0 
0 0 0 0 0 0 0 0 0 
0 0 0 0 0 0 0 0 0 
0 0 0 0 0 0 0 0 0 
0 0 0 0 0 0 0 0 0 
0 0 0 0 0 0 0 0 0 
0 0 0 0 0 0 0 0 0 
0 0 0 0 0 0 0 0 0 
0 0 0 0 0 0 0 0 0 
0 0 0 0 0 0 0 0 0 
0 0 0 0 0 0 0 0 0 
0 0 0 0 0 0 0 0 0 
0 0 0 0 0 0 0 0 0 
0 0 0 0 0 0 0 0 0 
0 0 0 0 0 0 0 0 0 
0 0 0 0 0 0 0 0 0 
0 0 0 0 0 0 0 0 0 
0 0 0 0 0 0 0 0 0 
0 0 0 0 0 0 0 0 0 
0 0 0 0 0 0 0 0 0 
0 0 0 0 0 0 0 0 0 
0 0 0 0 0 0 0 0 0 
0 0 0 0 0 0 0 0 0 
0 0 0 0 0 0 0 0 0 
0 0 0 0 0 0 0 0 0 
0 0 0 0 0 0 0 0 0 
0 0 0 0 0 0 0 0 0 
0 0 0 0 0 0 0 0 0 
0 0 0 0 0 0 0 0 0 
0 0 0 0 0 0 0 0 0 
0 0 0 0 0 0 0 0 0 
0 0 0 0 0 0 0 0 0 
0 0 0 0 0 0 0 0 0 
0 0 0 0 0 0 0 0 0 
0 0 0 0 0 0 0 0 0 
0 0 0 0 0 0 0 0 0 
0 0 0 0 0 0 0 0 0 
0 0 0 0 
NORMALS Normals float
0.0850179 0.583964 0.807315 0.00903089 0.663442 0.748173 -0.0668245 0.737603 0.67192 
0.163903 0.351815 0.921609 0.129081 0.30117 0.944794 0.129344 0.264929 0.955554 
0.0978782 0.232394 0.967684 0.0669388 0.210731 0.975249 0.0307846 0.30932 0.95046 
-0.0626011 0.363846 0.929353 -0.212217 0.374102 0.90278 -0.496839 0.452866 0.740313 
0.195348 0.237391 0.951569 0.0950068 0.173511 0.980239 0.0879589 0.11547 0.989409 
0.0840128 0.131089 0.987804 0.0471888 0.0737593 0.996159 0.103978 0.0343429 0.993986 
0.115111 0.0725787 0.990698 -0.0390912 0.085189 0.995598 -0.221572 0.0981111 0.970196 
-0.323323 0.152606 0.933902 -0.517967 0.299438 0.801278 0.258407 0.14627 0.954898 
0.149258 0.104083 0.983305 0.0406592 0.078679 0.996071 0.0801988 0.10146 0.991602 
0.0922277 0.0862043 0.991999 -0.00327064 0.0717468 0.997418 0.0729111 0.139879 0.987481 
0.0857817 0.0165967 0.996176 -0.0406282 -0.0779883 0.996126 -0.159817 -0.0470998 0.986022 
-0.262549 0.0491607 0.963666 -0.420297 0.122569 0.89907 0.251024 0.0239241 0.967685 
0.132441 0.00315177 0.991186 0.0919848 0.0128829 0.995677 0.0956483 0.114127 0.988851 
0.0498951 0.00220559 0.998752 0.104013 -0.0626581 0.9926 0.049001 0.0904151 0.994698 
-0.105353 -0.0623766 0.992477 -0.106206 -0.110449 0.988191 -0.0922691 -0.0617757 0.993816 
-0.161125 0.0326395 0.986394 -0.293146 0.0841445 0.952358 0.239347 -0.0417289 0.970037 
0.14014 -0.0520802 0.988761 0.149093 -0.0431331 0.987882 0.073286 -0.0612313 0.99543 
-0.0869021 -0.136094 0.986877 0.0778696 -0.124623 0.989144 0.073606 -0.19729 0.977578 
-0.111211 -0.188689 0.97572 -0.0370018 -0.0790428 0.996184 -0.0159017 -9.09878e-05 0.999874 
-0.124156 -0.0303816 0.991797 -0.254836 -0.0184475 0.966808 0.228746 -0.10829 0.967444 
0.135652 -0.0699149 0.988287 0.0838598 -0.0916825 0.992251 0.00319603 -0.207241 0.978285 
-0.00872804 -0.214914 0.976594 0.0472871 -0.0594443 0.997111 -0.0081441 -0.148548 0.988872 
0.00462407 -0.113354 0.993544 0.0742939 -0.100688 0.99214 -0.0417588 -0.0977451 0.994335 
-0.173293 -0.0964667 0.980135 -0.262826 -0.110001 0.958552 0.289058 -0.230661 0.929108 
0.155459 -0.18867 0.969658 0.0133151 -0.204282 0.978822 -0.0488903 -0.242847 0.968832 
0.0611908 -0.20752 0.976315 0.143163 -0.149332 0.978368 0.00947649 -0.125929 0.991994 
-0.0573741 -0.127183 0.990218 -0.0273563 -0.191554 0.981101 -0.0189068 -0.265887 0.963819 
-0.146397 -0.287781 0.946441 -0.348604 -0.300583 0.887764 0.033228 -0.372532 0.927424 
0.00477598 -0.352773 0.935697 0.0852799 -0.291053 0.952899 0.126186 -0.323037 0.937936 
0.011575 -0.357184 0.933962 -0.0537472 -0.370936 0.927102 -0.0807317 -0.393135 0.91593 
-0.134677 -0.523147 0.841534 0.0764929 0.636647 0.767353 -0.0114705 0.730405 0.682918 
-0.0768286 0.790064 0.608191 0.333857 0.718193 0.610523 0.176166 0.43345 0.883791 
0.210733 0.684237 0.698149 0.143687 0.468721 0.871581 0.145567 0.623728 0.767968 
0.127597 0.596779 0.792195 0.14455 0.568831 0.809652 0.143187 0.609106 0.780056 
-0.123009 0.802166 0.584294 -0.126594 0.801029 0.585087 -0.127787 0.811541 0.57015 
-0.240904 0.739042 0.629113 -0.223607 0.875044 0.4293 -0.500583 0.515548 0.695433 
0.421149 0.504609 0.75366 0.212102 0.389983 0.896061 0.230694 0.369217 0.900255 
0.242847 0.416371 0.876163 -0.516273 0.484525 0.706185 -0.528483 0.342566 0.776759 
-0.698346 0.664146 0.266876 0.500071 0.401977 0.767035 0.321382 0.273256 0.906667 
0.324712 0.262465 0.908666 0.334901 0.278454 0.900169 -0.548042 0.305496 0.778667 
0.658791 0.282103 0.697432 0.370993 0.169344 0.913064 0.436442 0.184129 0.88069 
-0.504511 0.161141 0.848235 -0.775612 0.351719 0.524137 0.625887 0.0793977 0.775862 
0.386028 0.0120503 0.922408 0.412587 0.0136102 0.910816 -0.470423 0.153389 0.869008 
-0.593563 0.204197 0.778451 0.619291 -0.0700888 0.782027 0.360281 -0.0190373 0.932649 
0.399936 -0.0198903 0.916327 -0.472043 0.0136769 0.881469 -0.496062 0.0161983 0.868136 
0.641978 -0.229639 0.731526 0.376356 -0.113475 0.9195 0.437549 -0.117376 0.891501 
-0.420213 -0.169327 0.891487 -0.525388 -0.217067 0.822708 0.295052 -0.23645 0.925762 
0.460514 -0.335399 0.821848 0.293166 -0.244638 0.924232 0.148298 -0.403439 0.902909 
-0.195891 -0.537335 0.820303 -0.414246 -0.33393 0.846694 -0.375485 -0.419811 0.826299 
-0.660761 -0.54103 0.52027 0.374246 -0.473722 0.7972 0.0991023 -0.404794 0.909022 
0.148595 -0.43148 0.8898 0.0387771 -0.396741 0.917111 0.00835644 -0.371903 0.928234 
0.0868214 -0.323181 0.942346 0.0947761 -0.451559 0.887194 -0.0212913 -0.532889 0.845917 
-0.0690406 -0.519463 0.851699 -0.114451 -0.525012 0.843364 -0.17057 -0.552545 0.815843 
-0.143262 -0.549552 0.823085 -0.222179 -0.606786 0.763183 -0.473914 -0.787547 0.393924 
0.255951 -0.761746 0.595173 0.114124 -0.705203 0.69976 0.0537406 -0.648897 0.758976 
0.0807493 -0.604008 0.792877 0.0457455 -0.651329 0.757415 -0.0639057 -0.728869 0.681664 
-0.13724 -0.806567 0.574991 -0.197352 -0.899314 0.390238 0.328369 0.760653 0.559983 
0.202686 0.830045 0.519561 0.140277 0.869509 0.473579 0.0790823 0.906466 0.414807 
0.0107316 0.996362 0.0845474 -0.0439892 0.94406 0.326826 -0.144149 0.955146 0.258683 
-0.140815 0.970453 0.19594 -0.116201 0.978223 0.17198 -0.214499 0.962992 0.163209 
0.36272 0.736533 0.570923 0.43974 0.665083 0.603567 0.45212 0.806005 0.382025 
-0.415955 0.898334 0.141338 -0.450807 0.881153 0.142626 -0.706207 0.683981 0.182872 
0.545779 0.563797 0.619886 0.573297 0.524352 0.629592 0.606275 0.601366 0.520374 
-0.723108 0.667146 0.178975 -0.730938 0.678306 -0.075043 0.655367 0.426174 0.623594 
0.681793 0.33528 0.650189 0.773399 0.46994 0.425453 -0.825869 0.51028 0.239906 
-0.83402 0.490087 0.253428 0.69071 0.296895 0.659374 -0.874826 0.397783 0.276494 
0.740354 0.0909572 0.666035 0.976335 0.0832074 0.199617 -0.933297 0.239149 0.267889 
0.736458 -0.0673156 0.673126 0.980358 -0.073849 0.182881 -0.96448 0.0266767 0.262806 
0.693881 -0.254873 0.673476 0.698342 -0.308505 0.645866 -0.943048 -0.174727 0.283074 
0.706627 -0.372473 0.601616 0.791192 -0.418019 0.446403 0.559288 -0.569826 0.602076 
-0.743598 -0.597138 0.300814 -0.685118 -0.673576 0.277325 0.558135 -0.57143 0.601626 
0.560197 -0.573054 0.598154 0.384449 -0.731248 0.563449 -0.224416 -0.934459 0.276449 
-0.333313 -0.908382 0.252478 -0.537039 -0.798453 0.272144 -0.479983 -0.833773 0.272834 
0.306031 -0.783866 0.540277 0.40072 -0.845219 0.353595 0.257774 -0.809262 0.52787 
0.144047 -0.833863 0.532845 0.0903278 -0.815698 0.571382 0.0402627 -0.850915 0.523759 
-0.0478585 -0.905288 0.422094 -0.118459 -0.93232 0.341683 -0.172985 -0.930058 0.324142 
-0.216881 -0.937674 0.271533 -0.206724 -0.93768 0.279325 0.00441039 0.998583 0.053039 
0.456506 0.854807 0.246794 0.298045 0.931482 0.208591 0.14978 0.975414 0.161661 
0.0335981 0.996659 0.0744391 0.0883335 0.989383 0.115406 -0.0413219 0.998696 0.0299733 
-0.00625556 0.999911 -0.0117463 -0.109335 0.993991 -0.00518997 -0.201691 0.978372 -0.045928 
-0.191384 0.977658 -0.0869252 -0.158977 0.975099 -0.154623 -0.276211 0.930374 -0.241065 
0.507886 0.825694 0.245522 0.63015 0.733058 0.256001 -0.368704 0.883577 -0.288701 
-0.32015 0.849309 -0.419737 -0.474951 0.812839 -0.337216 0.700581 0.661666 0.267177 
0.78426 0.559791 0.267524 -0.699782 0.653051 -0.289534 -0.400735 0.468191 -0.787533 
-0.70717 0.640738 -0.298941 0.830592 0.486953 0.270176 -0.792231 0.497144 -0.353862 
-0.552814 0.374677 -0.744321 -0.82627 0.461819 -0.322493 0.917971 0.320165 0.234145 
0.976437 0.0863212 0.197787 -0.853069 0.417515 -0.312978 -0.763687 0.355601 -0.538823 
0.976772 0.0831609 0.197485 0.982687 0.0814674 0.166399 -0.893286 0.312731 -0.32286 
-0.623318 0.171767 -0.76287 0.980636 -0.0738757 0.181373 0.980488 -0.0760857 0.181256 
0.982798 -0.0745365 0.168975 -0.966858 0.054048 -0.24953 -0.521785 0.0134862 -0.85297 
0.937584 -0.295761 0.182928 -0.913276 -0.241678 -0.327902 -0.602811 -0.134462 -0.786472 
0.862656 -0.46468 0.199741 0.806376 -0.567144 0.167645 -0.73404 -0.608933 -0.300643 
-0.723361 -0.634893 -0.271404 -0.665354 -0.521332 -0.534337 0.732206 -0.666379 0.140758 
0.598847 -0.792066 0.11838 -0.267541 -0.927058 -0.262651 -0.324576 -0.900574 -0.289166 
-0.312786 -0.650867 -0.691764 -0.550459 -0.779641 -0.298589 -0.444497 -0.846739 -0.292328 
-0.442896 -0.775151 -0.450537 0.480692 -0.87164 0.0958042 0.410942 -0.906222 0.0994411 
0.261414 -0.961507 0.0846623 0.145294 -0.987474 0.0615249 0.0438463 -0.998756 0.023765 
-0.0494831 -0.997374 -0.052881 -0.125167 -0.98382 -0.128184 -0.163723 -0.972181 -0.167509 
-0.193832 -0.965559 -0.173563 -0.177527 -0.824612 -0.537121 -0.256203 -0.937617 -0.23502 
-0.242965 -0.950914 -0.191652 -0.2601 -0.899099 -0.352092 0.449736 0.881055 -0.14656 
0.266735 0.945656 -0.185975 0.11454 0.974732 -0.191774 0.0354637 0.971593 -0.233986 
-0.054425 0.951692 -0.302194 -0.155959 0.913713 -0.375241 -0.226941 0.880106 -0.417027 
-0.240164 0.858523 -0.453055 -0.279749 0.795911 -0.536904 0.526217 0.836371 -0.153556 
0.629054 0.761126 -0.158045 0.42996 0.788967 -0.438937 -0.176037 0.563232 -0.807329 
-0.214484 0.641406 -0.736611 -0.242537 0.741863 -0.625152 -0.28539 0.788762 -0.544433 
-0.281631 0.789265 -0.54566 -0.368201 0.570044 -0.734492 0.722235 0.670888 -0.168187 
0.79717 0.576584 -0.179085 -0.297647 0.280888 -0.912419 -0.375264 0.437309 -0.817275 
-0.362617 0.364385 -0.857749 -0.375602 0.395331 -0.838234 0.857477 0.481221 -0.182099 
0.737769 0.477447 -0.477222 -0.261718 0.0214311 -0.964906 -0.288994 0.136356 -0.94757 
-0.422788 0.269828 -0.865126 -0.35201 0.240711 -0.904515 -0.40399 0.28357 -0.869701 
0.929553 0.290463 -0.227075 -0.190115 0.0271845 -0.981385 -0.160187 0.0885297 -0.983109 
-0.259165 0.202271 -0.944415 -0.438828 0.274335 -0.85567 -0.357183 0.258621 -0.897517 
0.970199 0.0548204 -0.236028 -0.206378 0.144913 -0.967682 -0.119991 0.125956 -0.984752 
-0.195501 0.136477 -0.971161 -0.500861 0.130867 -0.855577 -0.363124 0.16184 -0.917578 
0.96238 -0.0910618 -0.255992 -0.164114 0.054522 -0.984933 -0.19544 0.0393158 -0.979927 
-0.496321 0.0126838 -0.868046 -0.345311 0.0119043 -0.938413 0.914014 -0.303071 -0.26968 
-0.184086 -0.116509 -0.97598 -0.239726 -0.135494 -0.961339 -0.509224 -0.112399 -0.853263 
-0.380003 -0.152376 -0.912348 0.819989 -0.498505 -0.281267 0.764136 -0.574264 -0.293796 
0.711354 -0.500432 -0.493502 -0.233167 -0.275102 -0.932712 -0.207827 -0.309681 -0.92785 
-0.302005 -0.541064 -0.784884 -0.247573 -0.395613 -0.88442 -0.378505 -0.433066 -0.818039 
-0.334749 -0.461824 -0.821378 -0.330639 -0.428321 -0.840963 0.665779 -0.675202 -0.317553 
0.561753 -0.763303 -0.319063 0.506692 -0.620931 -0.598087 -0.0804716 -0.453802 -0.887461 
-0.0768639 -0.485209 -0.871014 -0.17511 -0.776745 -0.604982 -0.18991 -0.496305 -0.847122 
-0.264486 -0.693085 -0.670582 -0.250636 -0.508335 -0.823879 -0.282048 -0.599116 -0.749339 
-0.26408 -0.649258 -0.713251 -0.269594 -0.585835 -0.764275 0.410549 -0.840236 -0.354194 
0.394672 -0.846765 -0.356684 0.389691 -0.831885 -0.395105 0.218531 -0.895939 -0.386701 
0.182299 -0.786064 -0.590653 0.0910678 -0.900079 -0.426103 0.0617769 -0.70762 -0.703887 
-0.0336811 -0.87281 -0.486897 -0.0667793 -0.657331 -0.750637 -0.139892 -0.81766 -0.558446 
-0.168863 -0.655085 -0.736443 -0.155845 -0.766904 -0.622552 -0.151654 -0.705683 -0.692107 
-0.149581 -0.786538 -0.599153 -0.130909 -0.78636 -0.603739 -0.125056 -0.769569 -0.626199 
0.22739 0.721081 -0.654474 0.0920033 0.760128 -0.643227 -0.0512885 0.736311 -0.674697 
-0.155731 0.640087 -0.752354 0.554494 0.545047 -0.628857 0.304081 0.707816 -0.637598 
0.385939 0.664167 -0.640261 0.221322 0.672552 -0.70618 0.0840709 0.621429 -0.778947 
-0.0757299 0.585653 -0.807017 -0.173563 0.557386 -0.811909 -0.169675 0.566947 -0.806091 
-0.177804 0.529893 -0.829216 -0.194595 0.408819 -0.891628 -0.204077 0.287292 -0.93585 
0.557262 0.541705 -0.629297 0.552745 0.539572 -0.635087 0.293858 0.41738 -0.859908 
0.147272 0.315569 -0.937405 0.0415956 0.243904 -0.968907 -0.0866063 0.226096 -0.970247 
-0.177192 0.242835 -0.953747 -0.204145 0.239192 -0.949269 -0.18575 0.249339 -0.950435 
-0.209008 0.268407 -0.940358 -0.202395 0.269345 -0.941536 0.609949 0.424428 -0.669196 
0.67281 0.355428 -0.648843 0.421925 0.300789 -0.855281 0.229068 0.189977 -0.954692 
0.0363198 0.12032 -0.992071 -0.0271905 0.0136479 -0.999537 -0.0854747 -0.0055164 -0.996325 
-0.175161 0.027375 -0.984159 -0.194675 0.0792632 -0.97766 -0.182601 0.130381 -0.974504 
-0.249183 0.0180746 -0.968288 -0.241181 0.0265654 -0.970116 0.729778 0.210539 -0.650459 
0.6089 0.195384 -0.768808 0.265878 0.137949 -0.954085 0.112888 0.0522964 -0.992231 
-0.0156097 0.0135241 -0.999787 -0.0836107 -0.0424788 -0.995593 -0.0787334 -0.0932458 -0.992525 
-0.0932555 -0.0390956 -0.994874 -0.102706 -0.03445 -0.994115 -0.234073 0.143633 -0.96155 
-0.30416 0.0291699 -0.952174 -0.341202 0.0377099 -0.939233 0.690677 -0.00450242 -0.72315 
0.568604 -0.018547 -0.822402 0.283558 0.00876675 -0.958915 0.0825711 0.0101841 -0.996533 
-0.0556106 -0.0134324 -0.998362 -0.136926 -0.0444521 -0.989583 -0.0789464 -0.0652694 -0.99474 
-0.118181 0.0431163 -0.992056 -0.0183467 -0.0756396 -0.996966 -0.0626494 -0.0179873 -0.997873 
-0.277769 0.159239 -0.947358 -0.394369 0.182528 -0.900643 -0.229519 0.121915 -0.965639 
0.66465 -0.0703082 -0.74384 0.569409 -0.0714846 -0.81894 0.286844 -0.0923232 -0.953518 
0.0841464 -0.0898078 -0.992398 -0.0683291 -0.07812 -0.9946 -0.138037 -0.0921702 -0.986129 
0.00883289 -0.0927196 -0.995653 -0.0768957 -0.00987477 -0.99699 -0.179355 0.0713831 -0.981191 
0.00546264 -0.0947579 -0.995485 -0.181987 0.0292001 -0.982867 -0.201102 0.0776959 -0.976484 
-0.242727 0.103418 -0.964566 0.651345 -0.248907 -0.716795 0.619502 -0.306188 -0.722818 
0.595571 -0.242984 -0.765672 0.291936 -0.183448 -0.93868 0.099055 -0.163006 -0.98164 
-0.0617963 -0.140104 -0.988207 -0.151348 -0.113098 -0.981989 -0.00522325 -0.0836806 -0.996479 
0.0428388 -0.196891 -0.979489 -0.100312 -0.0348849 -0.994344 -0.113473 -0.0667342 -0.991297 
-0.162828 -0.126706 -0.978485 -0.207696 -0.101627 -0.9729 -0.231436 -0.179996 -0.956054 
-0.225322 -0.0894557 -0.970169 0.498183 -0.434747 -0.750206 0.42811 -0.484156 -0.763096 
0.399973 -0.400239 -0.824518 0.138275 -0.297082 -0.944787 -0.00327603 -0.246835 -0.969052 
-0.0689505 -0.140283 -0.987708 -0.0699333 -0.130611 -0.988964 -0.0440998 -0.250535 -0.967103 
-0.0745025 -0.430147 -0.89968 -0.0372225 -0.288982 -0.956611 -0.0780509 -0.430526 -0.899197 
-0.0942762 -0.239403 -0.966332 -0.221259 -0.264864 -0.938558 -0.194376 -0.351616 -0.915742 
-0.19557 -0.252174 -0.947713 0.30241 -0.541669 -0.78431 0.25605 -0.55598 -0.790775 
0.247512 -0.531146 -0.810322 0.127129 -0.546414 -0.827811 0.0930515 -0.417301 -0.903992 
0.0199428 -0.52784 -0.84911 -0.0319107 -0.362536 -0.931423 -0.0880976 -0.453524 -0.886879 
-0.108294 -0.321108 -0.940831 -0.0973746 -0.42154 -0.901567 -0.138076 -0.40931 -0.901887 
-0.126092 -0.369365 -0.92069 
