# vtk DataFile Version 4.2
vtk output
ASCII
DATASET POLYDATA
POINTS 532 float
-36.7576 -22.215 -23.2436 -36.7576 -39.3616 -15.5503 -28.1843 -39.3616 -16.8166 
-19.611 -39.3616 -16.2817 -11.0377 -39.3616 -15.786 -2.46437 -39.3616 -16.7226 
6.10895 -39.3616 -17.106 -45.3309 -30.7883 -19.1442 -36.7576 -22.6873 -23.1091 
-36.7576 -30.7883 -20.8155 -28.1843 -30.7883 -21.419 -19.611 -30.7883 -20.4337 
-11.0377 -30.7883 -19.3111 -2.46437 -30.7883 -19.2864 6.10895 -30.7883 -20.6224 
14.6823 -30.7883 -18.7301 40.4022 -30.7883 -15.2918 -53.9042 -22.215 -17.0801 
-39.1865 -22.215 -23.1091 -45.3309 -22.215 -22.7074 -34.3364 -22.215 -23.1091 
-36.7576 -20.0264 -23.1091 -28.1843 -22.215 -22.779 -19.611 -22.215 -21.8264 
-11.0377 -22.215 -20.5797 -2.46437 -22.215 -19.6698 6.10895 -22.215 -21.8578 
14.6823 -22.215 -21.502 23.2556 -22.215 -19.3934 31.8289 -22.215 -20.2199 
40.4022 -22.215 -20.7562 48.9755 -22.215 -20.3926 57.5488 -22.215 -18.4299 
66.1221 -22.215 -14.8618 -53.9042 -13.6416 -19.1792 -45.3309 -13.6416 -22.0262 
-36.7576 -13.6416 -22.7354 -28.1843 -13.6416 -22.043 -19.611 -13.6416 -21.1868 
-11.0377 -13.6416 -21.0971 -2.46437 -13.6416 -20.0047 6.10895 -13.6416 -21.6009 
14.6823 -13.6416 -21.245 23.2556 -13.6416 -20.4783 31.8289 -13.6416 -21.6695 
40.4022 -13.6416 -22.6375 48.9755 -13.6416 -22.3661 57.5488 -13.6416 -18.208 
-53.9042 -5.06832 -19.0526 -45.3309 -5.06832 -21.9523 -36.7576 -5.06832 -22.4073 
-28.1843 -5.06832 -21.2925 -19.611 -5.06832 -19.6242 -11.0377 -5.06832 -21.5855 
-2.46437 -5.06832 -20.9178 6.10895 -5.06832 -21.0548 14.6823 -5.06832 -20.4685 
23.2556 -5.06832 -20.5162 31.8289 -5.06832 -21.806 40.4022 -5.06832 -22.2179 
48.9755 -5.06832 -19.8408 -53.9042 3.50499 -17.5665 -45.3309 3.50499 -21.0845 
-36.7576 3.50499 -21.9462 -28.1843 3.50499 -21.248 -19.611 3.50499 -19.7947 
-11.0377 3.50499 -21.206 -2.46437 3.50499 -21.4061 6.10895 3.50499 -21.8449 
14.6823 3.50499 -21.1781 23.2556 3.50499 -20.9194 31.8289 3.50499 -21.2817 
40.4022 3.50499 -20.0073 48.9755 3.50499 -15.9671 -53.9042 12.0783 -15.3479 
-45.3309 12.0783 -19.8803 -36.7576 12.0783 -21.6315 -28.1843 12.0783 -21.7948 
-19.611 12.0783 -20.954 -11.0377 12.0783 -20.0683 -2.46437 12.0783 -20.6158 
6.10895 12.0783 -20.2848 14.6823 12.0783 -20.003 23.2556 12.0783 -21.8682 
31.8289 12.0783 -21.9699 40.4022 12.0783 -18.3989 -45.3309 20.6516 -18.3168 
-36.7576 20.6516 -21.0465 -28.1843 20.6516 -22.0862 -19.611 20.6516 -21.6939 
-11.0377 20.6516 -20.767 -2.46437 20.6516 -21.3338 6.10895 20.6516 -20.6889 
14.6823 20.6516 -20.6687 23.2556 20.6516 -21.8351 31.8289 20.6516 -21.9702 
40.4022 20.6516 -19.1523 -36.7576 29.2249 -18.875 -28.1843 29.2249 -21.2436 
-19.611 29.2249 -21.3264 -11.0377 29.2249 -21.6719 -2.46437 29.2249 -21.9487 
6.10895 29.2249 -21.9404 14.6823 29.2249 -21.3373 23.2556 29.2249 -21.4637 
31.8289 29.2249 -21.3235 40.4022 29.2249 -19.2761 -28.1843 37.7982 -17.5967 
-19.611 37.7982 -18.9281 -11.0377 37.7982 -20.1226 -2.46437 37.7982 -20.9542 
6.10895 37.7982 -21.14 14.6823 37.7982 -20.7027 23.2556 37.7982 -19.6971 
31.8289 37.7982 -19.3926 40.4022 37.7982 -15.0614 -11.0377 46.3716 -14.8931 
-2.46437 46.3716 -16.8873 6.10895 46.3716 -17.6067 14.6823 46.3716 -16.6098 
23.2556 46.3716 -14.7938 -36.7576 -40.3103 -14.5358 -28.1843 -41.7881 -14.5358 
-19.611 -41.2337 -14.5358 -11.0377 -41.03 -14.5358 -2.46437 -42.3669 -14.5358 
6.10895 -42.382 -14.5358 -38.9206 -39.3616 -14.5358 -45.3309 -36.3378 -14.5358 
-45.3309 -39.3616 -8.72823 11.8032 -39.3616 -14.5358 14.6823 -36.9986 -14.5358 
14.6823 -39.3616 -10.1138 40.4022 -31.5929 -14.5358 -51.3348 -30.7883 -14.5358 
-53.9042 -26.8586 -14.5358 -53.9042 -30.7883 -8.79823 23.2232 -30.7883 -14.5358 
23.2556 -30.7675 -14.5358 23.2556 -30.7883 -14.505 36.3498 -30.7883 -14.5358 
31.8289 -29.7697 -14.5358 31.8289 -30.7883 -12.9572 45.1446 -30.7883 -14.5358 
48.9755 -30.06 -14.5358 48.9755 -30.7883 -13.5489 57.5488 -28.9652 -14.5358 
57.5488 -30.7883 -13.0327 66.1221 -22.6958 -14.5358 -56.3327 -22.215 -14.5358 
66.6005 -22.215 -14.5358 66.1221 -20.838 -14.5358 -58.9908 -13.6416 -14.5358 
63.427 -13.6416 -14.5358 57.5488 -6.79311 -14.5358 66.1221 -13.6416 -10.8874 
-58.7234 -5.06832 -14.5358 55.9888 -5.06832 -14.5358 57.5488 -5.06832 -12.818 
-57.2565 3.50499 -14.5358 50.7946 3.50499 -14.5358 48.9755 5.99194 -14.5358 
-54.8575 12.0783 -14.5358 -53.9042 13.948 -14.5358 45.0214 12.0783 -14.5358 
48.9755 12.0783 -7.31098 -50.1883 20.6516 -14.5358 -53.9042 20.6516 -10.0242 
-45.3309 28.1262 -14.5358 45.5649 20.6516 -14.5358 48.9755 20.6516 -6.38901 
-44.4454 29.2249 -14.5358 -45.3309 29.2249 -13.6558 -36.7576 36.9361 -14.5358 
45.5678 29.2249 -14.5358 48.9755 29.2249 -7.13815 -35.3894 37.7982 -14.5358 
-36.7576 37.7982 -13.5524 -28.1843 41.2102 -14.5358 -19.611 44.0354 -14.5358 
31.8289 42.8197 -14.5358 41.0054 37.7982 -14.5358 40.4022 38.407 -14.5358 
-12.3249 46.3716 -14.5358 -19.611 46.3716 -10.887 -11.0377 46.695 -14.5358 
-2.46437 48.5068 -14.5358 6.10895 49.1298 -14.5358 14.6823 48.3267 -14.5358 
23.8826 46.3716 -14.5358 23.2556 46.6053 -14.5358 31.8289 46.3716 -6.2874 
-45.3309 -40.6384 -5.96245 -36.7576 -44.4291 -5.96245 -28.1843 -46.4112 -5.96245 
-19.611 -47.0368 -5.96245 -11.0377 -47.3244 -5.96245 -2.46437 -47.7443 -5.96245 
6.10895 -46.3352 -5.96245 14.6823 -40.6056 -5.96245 -46.9926 -39.3616 -5.96245 
-53.9042 -32.1931 -5.96245 16.2492 -39.3616 -5.96245 23.2556 -34.1964 -5.96245 
31.8289 -34.0446 -5.96245 40.4022 -33.1963 -5.96245 48.9755 -34.95 -5.96245 
57.5488 -34.0431 -5.96245 -54.8911 -30.7883 -5.96245 -53.9042 -30.7883 1.98031 
63.4164 -30.7883 -5.96245 66.1221 -28.1725 -5.96245 -59.004 -22.215 -5.96245 
70.1058 -22.215 -5.96245 -61.7963 -13.6416 -5.96245 68.3795 -13.6416 -5.96245 
66.1221 -9.99436 -5.96245 -62.3153 -5.06832 -5.96245 62.2294 -5.06832 -5.96245 
57.5488 1.5507 -5.96245 -62.0388 3.50499 -5.96245 -62.4776 3.50499 -2.01479 
55.824 3.50499 -5.96245 -60.3026 12.0783 -5.96245 49.5897 12.0783 -5.96245 
-56.4207 20.6516 -5.96245 -53.9042 24.7439 -5.96245 49.1167 20.6516 -5.96245 
-50.7336 29.2249 -5.96245 -45.3309 34.729 -5.96245 49.3676 29.2249 -5.96245 
48.9755 30.1301 -5.96245 48.9755 29.2249 -4.07969 -41.9514 37.7982 -5.96245 
-36.7576 41.4601 -5.96245 -28.1843 45.3533 -5.96245 44.8367 37.7982 -5.96245 
40.4022 42.3025 -5.96245 -25.4915 46.3716 -5.96245 -19.611 48.5076 -5.96245 
-11.0377 50.8763 -5.96245 -2.46437 52.4496 -5.96245 6.10895 52.9427 -5.96245 
14.6823 51.9074 -5.96245 23.2556 49.2061 -5.96245 32.0996 46.3716 -5.96245 
31.8289 46.4841 -5.96245 31.8289 46.3716 -5.57646 -45.3309 -39.677 2.61086 
-36.7576 -44.204 2.61086 -28.1843 -46.4839 2.61086 -19.611 -47.5187 2.61086 
-11.0377 -47.4322 2.61086 -2.46437 -46.8487 2.61086 6.10895 -44.6738 2.61086 
14.6823 -39.688 2.61086 -45.7514 -39.3616 2.61086 -45.3309 -39.3616 3.26642 
6.10895 -39.3616 10.4776 15.2374 -39.3616 2.61086 14.6823 -39.3616 3.46117 
23.2556 -35.1836 2.61086 31.8289 -35.1756 2.61086 40.4022 -34.7643 2.61086 
48.9755 -35.5128 2.61086 57.5488 -34.3944 2.61086 -53.8243 -30.7883 2.61086 
-53.9042 -30.6604 2.61086 63.3243 -30.7883 2.61086 66.1221 -27.5729 2.61086 
-58.4844 -22.215 2.61086 69.6117 -22.215 2.61086 66.1221 -22.215 8.87916 
-61.176 -13.6416 2.61086 68.1245 -13.6416 2.61086 66.1221 -10.0245 2.61086 
66.1221 -13.6416 7.22915 -62.4714 -5.06832 2.61086 -62.4776 -4.95634 2.61086 
62.9495 -5.06832 2.61086 57.5488 3.34076 2.61086 -62.9461 3.50499 2.61086 
-62.4776 6.57302 2.61086 -62.4776 3.50499 5.34649 57.42 3.50499 2.61086 
-61.5954 12.0783 2.61086 50.8438 12.0783 2.61086 -57.869 20.6516 2.61086 
-53.9042 26.0682 2.61086 48.9837 20.6516 2.61086 48.9755 20.7007 2.61086 
48.9755 20.6516 2.63772 -51.0673 29.2249 2.61086 -45.3309 34.3443 2.61086 
-45.3309 29.2249 10.1806 47.4198 29.2249 2.61086 -40.4602 37.7982 2.61086 
-36.7576 40.2917 2.61086 -36.7576 37.7982 6.73064 -28.1843 44.6701 2.61086 
31.8289 43.8846 2.61086 31.8289 37.7982 11.1396 41.631 37.7982 2.61086 
40.4022 38.9337 2.61086 40.4022 37.7982 4.23657 -24.2905 46.3716 2.61086 
-19.611 48.243 2.61086 -19.611 46.3716 6.81546 -11.0377 50.9069 2.61086 
-2.46437 52.3987 2.61086 6.10895 52.1354 2.61086 14.6823 50.1208 2.61086 
14.6823 46.3716 10.3872 25.9296 46.3716 2.61086 23.2556 47.4365 2.61086 
23.2556 46.3716 4.63187 -36.7576 -40.8354 11.1842 -28.1843 -42.6941 11.1842 
-19.611 -43.4928 11.1842 -11.0377 -42.841 11.1842 -2.46437 -41.0715 11.1842 
-39.3343 -39.3616 11.1842 -45.3309 -34.7702 11.1842 -36.7576 -39.3616 12.8071 
-28.1843 -39.3616 14.5709 -19.611 -39.3616 15.1886 -11.0377 -39.3616 14.31 
3.91649 -39.3616 11.1842 -2.46437 -39.3616 12.6254 6.10895 -38.587 11.1842 
14.6823 -36.0679 11.1842 23.2556 -34.3993 11.1842 31.8289 -34.0803 11.1842 
40.4022 -33.837 11.1842 48.9755 -32.7602 11.1842 57.5488 -30.9584 11.1842 
-49.2434 -30.7883 11.1842 -53.9042 -24.9801 11.1842 -45.3309 -30.7883 14.792 
-36.7576 -30.7883 18.7849 -28.1843 -30.7883 19.7383 -11.0377 -30.7883 18.5587 
-2.46437 -30.7883 16.5207 6.10895 -30.7883 15.8707 14.6823 -30.7883 16.635 
23.2556 -30.7883 16.3624 31.8289 -30.7883 15.9955 40.4022 -30.7883 15.5033 
48.9755 -30.7883 13.8865 57.7863 -30.7883 11.1842 57.5488 -30.7883 11.3873 
-55.583 -22.215 11.1842 -53.9042 -22.215 13.7465 -2.46437 -22.215 18.8835 
6.10895 -22.215 18.3185 48.9755 -22.215 18.9746 63.6499 -22.215 11.1842 
57.5488 -22.215 15.4195 -58.6893 -13.6416 11.1842 -53.9042 -13.6416 17.7971 
63.6983 -13.6416 11.1842 57.5488 -13.6416 17.2315 -60.687 -5.06832 11.1842 
48.9755 -5.06832 19.7279 61.4317 -5.06832 11.1842 57.5488 -0.411562 11.1842 
57.5488 -5.06832 14.541 -61.3533 3.50499 11.1842 54.9131 3.50499 11.1842 
48.9755 3.50499 16.7176 -59.33 12.0783 11.1842 -53.9042 12.0783 17.4462 
-28.1843 12.0783 19.7532 -19.611 12.0783 18.7437 31.8289 12.0783 19.7333 
40.4022 12.0783 18.1001 49.4759 12.0783 11.1842 48.9755 13.3397 11.1842 
48.9755 12.0783 11.8421 -55.1463 20.6516 11.1842 -53.9042 22.091 11.1842 
-53.9042 20.6516 12.6549 -45.3309 28.2318 11.1842 -45.3309 20.6516 16.8066 
[...]
POINT_DATA 532
SCALARS ImageScalars float
LOOKUP_TABLE default
0 0 0 0 0 0 0 0 0 
0 0 0 0 0 0 0 0 0 
0 0 0 0 0 0 0 0 0 
0 0 0 0 0 0 0 0 0 
0 0 0 0 0 0 0 0 0 
0 0 0 0 0 0 0 0 0 
0 0 0 0 0 0 0 0 0 
0 0 0 0 0 0 0 0 0 
0 0 0 0 0 0 0 0 0 
0 0 0 0 0 0 0 0 0 
0 0 0 0 0 0 0 0 0 
0 0 0 0 0 0 0 0 0 
0 0 0 0 0 0 0 0 0 
0 0 0 0 0 0 0 0 0 
0 0 0 0 0 0 0 0 0 
0 0 0 0 0 0 0 0 0 
0 0 0 0 0 0 0 0 0 
0 0 0 0 0 0 0 0 0 
0 0 0 0 0 0 0 0 0 
0 0 0 0 0 0 0 0 0 
0 0 0 0 0 0 0 0 0 
0 0 0 0 0 0 0 0 0 
0 0 0 0 0 0 0 0 0 
0 0 0 0 0 0 0 0 0 
0 0 0 0 0 0 0 0 0 
0 0 0 0 0 0 0 0 0 
0 0 0 0 0 0 0 0 0 
0 0 0 0 0 0 0 0 0 
0 0 0 0 0 0 0 0 0 
0 0 0 0 0 0 0 0 0 
0 0 0 0 0 0 0 0 0 
0 0 0 0 0 0 0 0 0 
0 0 0 0 0 0 0 0 0 
0 0 0 0 0 0 0 0 0 
0 0 0 0 0 0 0 0 0 
0 0 0 0 0 0 0 0 0 
0 0 0 0 0 0 0 0 0 
0 0 0 0 0 0 0 0 0 
0 0 0 0 0 0 0 0 0 
0 0 0 0 0 0 0 0 0 
0 0 0 0 0 0 0 0 0 
0 0 0 0 0 0 0 0 0 
0 0 0 0 0 0 0 0 0 
0 0 0 0 0 0 0 0 0 
0 0 0 0 0 0 0 0 0 
0 0 0 0 0 0 0 0 0 
0 0 0 0 0 0 0 0 0 
0 0 0 0 0 0 0 0 0 
0 0 0 0 0 0 0 0 0 
0 0 0 0 0 0 0 0 0 
0 0 0 0 0 0 0 0 0 
0 0 0 0 0 0 0 0 0 
0 0 0 0 0 0 0 0 0 
0 0 0 0 0 0 0 0 0 
0 0 0 0 0 0 0 0 0 
0 0 0 0 0 0 0 0 0 
0 0 0 0 0 0 0 0 0 
0 0 0 0 0 0 0 0 0 
0 0 0 0 0 0 0 0 0 
0 
NORMALS Normals float
-0.00108494 -0.110486 -0.993877 -0.231183 -0.721607 -0.652562 -0.0300471 -0.625598 -0.779566 
0.0528063 -0.602385 -0.796457 -0.0294592 -0.535487 -0.84403 -0.0712762 -0.476556 -0.87625 
0.160061 -0.579004 -0.799459 -0.360877 -0.473733 -0.803334 -0.00606586 -0.123048 -0.992382 
-0.114472 -0.352739 -0.928693 0.0201744 -0.301633 -0.953211 0.117309 -0.270209 -0.955629 
0.0619896 -0.260326 -0.963529 -0.0729127 -0.164419 -0.983692 0.00242314 -0.25244 -0.96761 
0.364357 -0.471118 -0.803301 -0.022413 -0.783852 -0.620543 -0.678175 -0.302449 -0.669779 
-0.0820425 -0.11848 -0.989561 -0.281701 -0.136666 -0.949719 0.0239098 -0.0868441 -0.995935 
0.000458166 -0.0691246 -0.997608 0.0816402 -0.028956 -0.996241 0.126655 -0.0394904 -0.99116 
0.126078 -0.102833 -0.986676 -0.0654546 -0.0408269 -0.99702 -0.110885 -0.0546929 -0.992327 
0.137916 -0.101212 -0.985259 0.077776 -0.298848 -0.951126 -0.0794079 -0.371102 -0.925191 
-0.00873712 -0.370646 -0.928733 0.110422 -0.312985 -0.943317 0.336883 -0.22276 -0.914816 
0.544914 -0.24421 -0.802141 -0.523706 -0.0982324 -0.846216 -0.190376 0.0370799 -0.981011 
0.000641783 0.047287 -0.998881 0.0915396 0.0898306 -0.991741 0.05611 0.130092 -0.989913 
0.068858 -0.0535465 -0.996188 -0.0291482 -0.0661944 -0.997381 -0.0752556 0.0439936 -0.996193 
0.0680582 0.0598081 -0.995887 -0.0285993 -0.0619385 -0.99767 -0.123543 -0.083335 -0.988834 
-0.0431885 -0.0805927 -0.995811 0.240911 0.00646046 -0.970526 0.470994 0.175446 -0.864513 
-0.535808 0.086408 -0.839907 -0.178859 0.0535284 -0.982417 0.0390728 0.0458979 -0.998182 
0.160371 0.0458329 -0.985992 0.00345078 0.0775561 -0.996982 -0.0926589 -0.0104032 -0.995644 
0.027439 -0.0890946 -0.995645 0.0269721 -0.0130077 -0.999552 0.0303354 0.00017269 -0.99954 
-0.0802129 -0.0264486 -0.996427 -0.0907982 0.0223303 -0.995619 0.0876481 0.158224 -0.983506 
0.357011 0.331278 -0.873383 -0.572194 0.191143 -0.797533 -0.227069 0.118124 -0.966688 
-0.00733268 0.0463424 -0.998899 0.124515 -0.0286915 -0.991803 0.012598 -0.0791228 -0.996785 
-0.102563 0.0932926 -0.990342 -0.0379498 0.0224446 -0.999028 0.0152731 0.0448165 -0.998878 
0.0533897 0.0265932 -0.99822 -0.00594169 -0.0775875 -0.996968 0.0504745 -0.00907763 -0.998684 
0.273242 0.195958 -0.941775 0.582231 0.431274 -0.68921 -0.619222 0.293445 -0.728323 
-0.323082 0.141923 -0.935669 -0.104426 0.0487954 -0.993335 0.0390426 -0.0488758 -0.998042 
0.0991979 -0.108887 -0.989092 0.0206644 0.0175122 -0.999633 -0.0141432 0.00243464 -0.999897 
0.0362118 0.0666071 -0.997122 -0.0968456 0.0302105 -0.994841 -0.108661 -0.0532726 -0.99265 
0.172356 -0.0396123 -0.984238 0.570509 0.0567187 -0.819331 -0.456163 0.292275 -0.84053 
-0.195482 0.155316 -0.96833 -0.0345831 0.0282876 -0.999001 0.0770415 -0.0221225 -0.996782 
0.0210329 -0.0922224 -0.995516 0.00451385 -0.0777252 -0.996965 0.0383038 -0.0970469 -0.994542 
-0.0635173 -0.0758568 -0.995094 -0.0776364 0.0240455 -0.996692 0.134927 0.0352204 -0.990229 
0.535293 -0.0474986 -0.84333 -0.356164 0.344212 -0.868715 -0.129696 0.209549 -0.969159 
-0.0243451 0.15244 -0.988013 -0.0355237 0.0281419 -0.998973 -0.0153471 0.0230819 -0.999616 
0.03549 -0.025227 -0.999052 0.0280286 -0.00541625 -0.999592 0.000324828 0.123926 -0.992291 
0.104239 0.127865 -0.986299 0.474118 0.204069 -0.856486 -0.251691 0.557454 -0.791136 
-0.12604 0.429276 -0.894335 -0.115738 0.326832 -0.937969 -0.0546795 0.233908 -0.97072 
0.012303 0.193629 -0.980998 0.0909406 0.240463 -0.966389 0.068019 0.334574 -0.939912 
0.227595 0.478975 -0.847811 0.55695 0.552826 -0.619831 -0.202373 0.731519 -0.651095 
-0.127589 0.673443 -0.728145 0.0162493 0.649324 -0.760338 0.136525 0.670248 -0.729471 
0.261589 0.770198 -0.581693 -0.24063 -0.75436 -0.610768 -0.045018 -0.727904 -0.684199 
0.0335666 -0.67296 -0.738917 -0.0459581 -0.600275 -0.798472 -0.0567337 -0.620961 -0.781786 
0.225382 -0.711466 -0.665596 -0.292608 -0.746088 -0.598108 -0.452495 -0.682892 -0.573505 
-0.513954 -0.817615 -0.259532 0.460371 -0.668495 -0.5841 0.538973 -0.650986 -0.534534 
0.637286 -0.7162 -0.284469 -0.0202496 -0.818642 -0.573947 -0.66736 -0.525046 -0.528164 
-0.734252 -0.440504 -0.516557 -0.8187 -0.534631 -0.209524 0.229981 -0.74184 -0.629907 
0.22905 -0.741508 -0.630637 0.229158 -0.743359 -0.628414 -0.025855 -0.810453 -0.585233 
-0.0422837 -0.787655 -0.614664 -0.0214607 -0.847918 -0.529693 0.0466623 -0.814602 -0.57814 
0.100898 -0.794481 -0.598848 0.0704827 -0.842338 -0.534322 0.308669 -0.625095 -0.716924 
0.302351 -0.73709 -0.604386 0.557409 -0.272529 -0.784235 -0.773161 -0.34261 -0.533705 
0.575201 -0.242124 -0.781357 0.603583 -0.156395 -0.781811 -0.828443 -0.122124 -0.546596 
0.67653 0.254028 -0.691215 0.558909 0.473244 -0.680926 0.831951 0.326346 -0.448728 
-0.798104 0.0830917 -0.596763 0.551492 0.507364 -0.662147 0.615698 0.558972 -0.555397 
-0.72471 0.175416 -0.666351 0.637301 0.457732 -0.619942 0.673834 0.388079 -0.628763 
-0.65491 0.296055 -0.695302 -0.645841 0.312491 -0.696591 0.733627 0.16803 -0.658451 
0.908341 0.257002 -0.32995 -0.617912 0.35271 -0.702695 -0.769546 0.413859 -0.486333 
-0.554358 0.475946 -0.682761 0.79022 -0.025035 -0.612312 0.984416 0.00723729 -0.175707 
-0.544182 0.486105 -0.68379 -0.579119 0.516543 -0.630718 -0.441696 0.62812 -0.640602 
0.749876 0.208308 -0.627928 0.970135 0.205789 -0.128412 -0.422235 0.647018 -0.63489 
-0.461204 0.679532 -0.57055 -0.310858 0.704084 -0.638462 -0.21443 0.709217 -0.671589 
0.332084 0.718082 -0.61162 0.583503 0.555443 -0.592459 0.560688 0.575223 -0.595607 
-0.206792 0.744657 -0.634605 -0.263744 0.864239 -0.428404 -0.203008 0.744804 -0.635654 
-0.127321 0.772855 -0.621679 0.0106314 0.785149 -0.619215 0.137722 0.765346 -0.628711 
0.268092 0.777446 -0.56895 0.261906 0.780436 -0.567736 0.340273 0.93932 -0.0435049 
-0.527326 -0.838698 -0.136059 -0.293963 -0.940296 -0.17155 -0.139867 -0.970011 -0.198788 
-0.0534395 -0.959435 -0.276819 -0.0408466 -0.963896 -0.263128 0.0548616 -0.983939 -0.169863 
0.366646 -0.926459 -0.0851148 0.660287 -0.746691 -0.0804587 -0.576087 -0.806676 -0.131903 
-0.820594 -0.563973 -0.092518 0.632034 -0.767766 -0.105208 0.253338 -0.939251 -0.231576 
0.054162 -0.958734 -0.279097 -0.0457364 -0.986715 -0.155888 -0.0347844 -0.967096 -0.252022 
0.266081 -0.93515 -0.233869 -0.843928 -0.528849 -0.090025 -0.820119 -0.53409 0.20531 
0.605268 -0.761391 -0.232238 0.795834 -0.570185 -0.203808 -0.929037 -0.357247 -0.0962528 
0.973638 -0.1958 -0.11701 -0.979401 -0.179168 -0.0931259 0.919212 0.341727 -0.195635 
0.849416 0.500787 -0.166448 -0.983315 -0.0157926 -0.181224 0.749581 0.629814 -0.203627 
0.734032 0.624032 -0.267919 -0.956915 0.104171 -0.271038 -0.988837 0.0774108 -0.127312 
0.735626 0.624831 -0.261611 -0.911093 0.287547 -0.295339 0.920696 0.273247 -0.278667 
-0.838045 0.443108 -0.318333 -0.806846 0.521846 -0.276905 0.987464 0.00987078 -0.157537 
-0.751965 0.619287 -0.225903 -0.671552 0.71766 -0.184341 0.976888 0.204689 -0.0615849 
0.9687 0.241071 -0.0592019 0.972358 0.232423 0.0223496 -0.609275 0.780327 -0.140974 
-0.504028 0.854062 -0.128582 -0.380503 0.91577 -0.128776 0.804346 0.593715 -0.0230233 
0.634149 0.773187 -0.0061575 -0.353988 0.924592 -0.140793 -0.295291 0.938843 -0.177138 
-0.231365 0.948968 -0.214315 -0.113598 0.975625 -0.187752 0.0293769 0.990307 -0.135755 
0.214285 0.973334 -0.0818728 0.291264 0.955909 -0.0374631 0.345 0.938301 -0.0238082 
0.33791 0.940842 -0.0251809 0.342481 0.939498 -0.00707745 -0.548977 -0.801578 0.236849 
-0.349017 -0.918366 0.186522 -0.178365 -0.969476 0.168231 -0.057741 -0.985702 0.158299 
0.0362474 -0.97974 0.196965 0.146833 -0.943417 0.29733 0.370896 -0.862619 0.343984 
0.490965 -0.847173 0.203103 -0.560079 -0.794115 0.235994 -0.5504 -0.793808 0.258707 
0.242389 -0.673209 0.698596 0.478391 -0.857341 0.190022 0.469449 -0.851987 0.231809 
0.242923 -0.969966 -0.0123917 0.0244293 -0.99969 -0.00478661 -0.0177812 -0.99944 -0.0283486 
0.034669 -0.991981 0.121538 0.311081 -0.936336 0.162801 -0.814457 -0.533189 0.228845 
-0.816734 -0.530212 0.227643 0.637776 -0.735796 0.227696 0.812699 -0.516231 0.270232 
-0.912952 -0.367956 0.176426 0.952825 -0.198372 0.229725 0.707773 -0.268688 0.653349 
-0.95875 -0.229095 0.168266 0.929874 0.303364 0.2081 0.886128 0.445734 0.12688 
0.881411 0.212848 0.421676 -0.991318 -0.0986142 0.0869727 -0.991564 -0.096714 0.0862952 
0.813558 0.581184 0.0186508 0.782294 0.621099 0.0474557 -0.998262 0.0484567 0.0335337 
-0.991106 0.128368 0.035082 -0.989991 0.0489544 0.132367 0.781636 0.622025 0.0461432 
-0.961177 0.273214 0.0386407 0.916987 0.398884 0.005073 -0.862231 0.502914 0.0602929 
-0.770577 0.624784 0.125918 0.971946 0.176736 0.155197 0.971643 0.1775 0.156216 
0.971699 0.17722 0.156186 -0.696395 0.690467 0.195677 -0.58408 0.770022 0.256744 
-0.452234 0.660529 0.599321 0.877039 0.334768 0.344578 -0.532355 0.79185 0.299286 
-0.493866 0.811998 0.311056 -0.456523 0.731836 0.505967 -0.416276 0.868376 0.269513 
0.399556 0.819024 0.411769 0.372625 0.624152 0.686721 0.630571 0.661992 0.40515 
0.590866 0.692383 0.414105 0.588241 0.668891 0.454487 -0.381216 0.895338 0.230315 
-0.340543 0.916774 0.2087 -0.349779 0.842323 0.410057 -0.227307 0.95852 0.171963 
-0.0687318 0.983388 0.167997 0.123921 0.966321 0.225539 0.259841 0.916808 0.303226 
0.293307 0.794589 0.531601 0.352198 0.865883 0.355251 0.323186 0.884829 0.335602 
0.338213 0.851956 0.399728 -0.326561 -0.759057 0.563197 -0.135552 -0.78863 0.59974 
-0.00932587 -0.785779 0.618437 0.10801 -0.736841 0.667382 0.180208 -0.649531 0.738671 
-0.389619 -0.728272 0.563753 -0.533648 -0.632785 0.561074 -0.315923 -0.711204 0.627998 
-0.114836 -0.662253 0.740428 0.0146321 -0.619049 0.785216 0.129164 -0.594237 0.793851 
0.216555 -0.64254 0.735014 0.17956 -0.582539 0.792721 0.214322 -0.636552 0.740856 
0.178509 -0.800405 0.572264 0.102029 -0.928967 0.355824 0.0325733 -0.93363 0.356754 
0.0729354 -0.929354 0.361914 0.167916 -0.858463 0.484608 0.429585 -0.649565 0.627313 
-0.624177 -0.556534 0.548337 -0.752046 -0.467288 0.464832 -0.494849 -0.544285 0.677406 
-0.216967 -0.461083 0.860423 -0.0567824 -0.379309 0.923526 0.185565 -0.337298 0.922928 
0.144566 -0.326214 0.934176 0.00310159 -0.386372 0.922338 -0.0325138 -0.578536 0.815009 
0.0277722 -0.744769 0.666745 0.036993 -0.770589 0.636258 0.0881159 -0.763072 0.640279 
0.192994 -0.773039 0.604288 0.439403 -0.640149 0.630185 0.432154 -0.638858 0.636478 
-0.79132 -0.420558 0.443783 -0.726565 -0.427571 0.537853 0.147166 -0.314816 0.937674 
-0.06167 -0.236292 0.969723 0.246448 -0.279358 0.928021 0.595939 -0.261401 0.759293 
0.499048 -0.274705 0.821881 -0.867129 -0.275717 0.414811 -0.667295 -0.254254 0.700052 
0.76908 0.07696 0.634503 0.541203 0.0252115 0.840514 -0.920695 -0.139848 0.364366 
0.321057 0.173837 0.930969 0.761475 0.441383 0.474697 0.745658 0.48698 0.454801 
0.650522 0.375304 0.66028 -0.925839 0.0589581 0.373292 0.743342 0.516449 0.425116 
0.540022 0.379505 0.751234 -0.833634 0.327577 0.444688 -0.574145 0.331545 0.748623 
0.163224 0.284433 0.944699 -0.03195 0.172181 0.984547 0.128197 0.0888211 0.987763 
0.344615 0.226118 0.911105 0.816053 0.411063 0.406306 0.818594 0.39355 0.418356 
0.800994 0.402178 0.443466 -0.664372 0.553454 0.502293 -0.618721 0.590617 0.518031 
-0.602544 0.559087 0.569528 -0.416929 0.634679 0.650656 -0.230696 0.517913 0.823739 
-0.0424729 0.413329 0.90959 -0.0247404 0.225548 0.973918 -0.106994 0.0953203 0.98968 
-0.19529 0.064116 0.978648 0.267001 0.162274 0.949935 0.765578 0.339752 0.546314 
0.483982 0.298592 0.82256 -0.395912 0.618897 0.678395 -0.32802 0.575729 0.748959 
-0.240156 0.487013 0.839728 -0.191882 0.326552 0.925497 -0.203404 0.145592 0.96821 
-0.21904 0.105078 0.970041 0.272124 0.30677 0.912053 0.37251 0.622204 0.688548 
0.34853 0.374968 0.859026 0.578796 0.443954 0.684032 0.54101 0.479708 0.690788 
0.537114 0.447321 0.715131 -0.364216 0.53809 0.760136 -0.364544 0.537693 0.760259 
-0.362024 0.530652 0.766386 -0.356448 0.656482 0.664813 -0.335186 0.384439 0.860149 
-0.227839 0.328538 0.916598 -0.124927 0.300292 0.945631 0.29602 0.77265 0.561591 
0.254981 0.49458 0.830889 0.372119 0.623287 0.687779 0.348083 0.684086 0.640987 
0.336463 0.569784 0.749759 -0.275952 0.753001 0.597361 -0.244257 0.772489 0.586173 
-0.247011 0.737554 0.62849 -0.0618677 0.821784 0.566431 -0.0741536 0.70868 0.701622 
0.273111 0.784749 0.556398 0.157015 0.822175 0.547152 0.144511 0.747412 0.648454 
0.061219 -0.31937 0.945651 -0.351001 -0.381159 0.855287 -0.184778 -0.415555 0.890602 
-0.043908 -0.372063 0.927168 -0.0559879 -0.377953 0.92413 0.0779374 -0.31289 0.946586 
0.0629262 -0.309645 0.948768 0.168175 -0.278641 0.945556 -0.162639 -0.252349 0.95387 
-0.0577265 -0.42757 0.902137 0.0481189 -0.440308 0.896556 0.140842 -0.383307 0.912819 
-0.364584 -0.375072 0.85229 -0.343647 -0.370253 0.863029 -0.118635 -0.301632 0.946015 
0.0482137 -0.208582 0.976816 0.073809 -0.153055 0.985457 0.145669 -0.280311 0.948792 
0.13968 -0.227628 0.963678 0.147282 -0.292445 0.944873 -0.154194 -0.230286 0.960829 
0.0143757 -0.25497 0.966842 -0.170331 -0.229364 0.958321 -0.0886697 -0.268516 0.959185 
0.0412888 -0.261686 0.964269 0.197365 -0.291579 0.935964 0.143279 -0.311843 0.939268 
0.251789 -0.155928 0.955138 -0.524121 -0.238155 0.817667 -0.613141 -0.122206 0.780464 
-0.295144 -0.226593 0.928195 -0.0406015 -0.140513 0.989246 0.0922597 -0.111705 0.989449 
0.0443173 -0.0674359 0.996739 0.00661701 -0.176138 0.984343 0.148454 -0.209899 0.966387 
0.0446328 -0.265364 0.963115 -0.113809 -0.153173 0.981624 -0.0529309 0.0300312 0.998147 
-0.000500801 -0.0243557 0.999703 0.0951999 -0.0701876 0.992981 0.334993 -0.0296575 0.941754 
0.318735 0.165969 0.9332 0.267103 -0.0440903 0.962659 -0.625719 -0.0864315 0.775246 
-0.606522 -0.083424 0.790678 -0.226973 -0.0178314 0.973738 0.00274699 0.0322748 0.999475 
0.131353 0.0492095 0.990113 0.0178287 0.0795873 0.996668 -0.000100282 -0.0318952 0.999491 
0.0564063 0.0521429 0.997045 -0.0149016 -0.21819 0.975793 0.124955 -0.122084 0.984623 
0.0422901 0.137365 0.989617 -0.0534482 0.0913255 0.994386 0.318204 0.172915 0.932119 
0.124957 0.122903 0.98452 -0.526314 0.123151 0.841325 -0.522924 0.132345 0.842042 
-0.521973 0.123958 0.843907 -0.183564 0.188717 0.964723 0.0237498 0.183646 0.982706 
0.163209 0.284417 0.944706 0.140853 0.235492 0.961615 -0.036731 0.196336 0.979848 
-0.036278 0.227094 0.973197 -0.0317169 0.182514 0.982692 -0.0403079 0.0025654 0.999184 
-0.123989 -0.137237 0.982748 0.285406 -0.0606036 0.956489 0.125167 0.0346881 0.991529 
0.124488 0.0897228 0.988156 -0.0174302 0.126673 0.991791 0.21982 0.224937 0.949254 
0.206298 0.206586 0.956433 0.17858 0.20757 0.961782 -0.336986 0.316726 0.886637 
-0.186985 0.373811 0.908461 -0.18055 0.299536 0.936846 0.163026 0.284596 0.944684 
0.031842 0.372188 0.927611 0.0571997 0.338478 0.939234 -0.15143 0.204275 0.96713 
-0.19826 0.0772107 0.977104 -0.231702 0.229379 0.945357 -0.242877 0.00542703 0.970042 
-0.100814 0.0386248 0.994155 0.30568 0.0032217 0.952129 0.130577 0.0831005 0.987949 
0.19996 -0.0671106 0.977503 -0.195977 0.065266 0.978434 -0.222749 0.0841677 0.971236 
-0.121209 0.1689 0.978152 0.156384 0.107812 0.981795 0.258332 0.125071 0.957926 
0.265561 0.249361 0.931288 0.240195 0.0522398 0.969318 -0.201127 0.104366 0.97399 
-0.128803 0.280418 0.951197 -0.160826 0.102257 0.981671 -0.0543628 0.199224 0.978445 
0.252812 0.298851 0.920203 0.216865 0.403501 0.888907 0.158515 0.265815 0.950902 
-0.0794479 0.319889 0.944118 0.0984082 0.401769 0.910438 0.0609009 0.397802 0.915448 
0.0539683 0.377679 0.924362 
