# vtk DataFile Version 4.2
vtk output
ASCII
DATASET POLYDATA
POINTS 532 float
-15.2821 -27.1968 -21.5464 7.77993 3.55259 -21.4585 -15.2821 -42.5715 -18.5062 
-7.59476 -42.5715 -18.7943 0.0925876 -42.5715 -18.2399 7.77993 -42.5715 -16.8891 
15.4673 -42.5715 -15.7594 -30.6568 -34.8841 -14.4944 -22.9695 -34.8841 -17.8152 
-15.2821 -28.6082 -21.4518 -15.2821 -34.8841 -20.987 -7.59476 -34.8841 -20.6983 
0.0925876 -34.8841 -20.0821 7.77993 -34.8841 -19.5559 15.4673 -34.8841 -19.4672 
23.1546 -34.8841 -18.1118 30.842 -34.8841 -15.3958 -38.3441 -27.1968 -15.1949 
-30.6568 -27.1968 -17.5599 -15.6664 -27.1968 -21.4518 -22.9695 -27.1968 -19.7283 
-13.6396 -27.1968 -21.4518 -15.2821 -26.2598 -21.4518 -7.59476 -27.1968 -21.112 
0.0925876 -27.1968 -20.3738 7.77993 -27.1968 -20.0748 15.4673 -27.1968 -20.4812 
23.1546 -27.1968 -19.8144 30.842 -27.1968 -18.5871 38.5293 -27.1968 -15.0669 
-46.0315 -19.5094 -14.382 -38.3441 -19.5094 -17.8059 -30.6568 -19.5094 -19.2447 
-22.9695 -19.5094 -19.8974 -15.2821 -19.5094 -20.7834 -7.59476 -19.5094 -20.8428 
0.0925876 -19.5094 -19.9201 7.77993 -19.5094 -19.8767 15.4673 -19.5094 -20.168 
23.1546 -19.5094 -20.0912 30.842 -19.5094 -19.9619 38.5293 -19.5094 -18.0536 
-46.0315 -11.8221 -16.0152 -38.3441 -11.8221 -17.9001 -30.6568 -11.8221 -19.0275 
-22.9695 -11.8221 -19.1182 -15.2821 -11.8221 -19.662 -7.59476 -11.8221 -20.6242 
0.0925876 -11.8221 -20.3265 7.77993 -11.8221 -20.6291 15.4673 -11.8221 -19.1461 
23.1546 -11.8221 -19.1277 30.842 -11.8221 -19.1781 38.5293 -11.8221 -18.293 
46.2167 -11.8221 -14.9785 -46.0315 -4.13475 -14.9913 -38.3441 -4.13475 -17.9117 
-30.6568 -4.13475 -18.7802 -22.9695 -4.13475 -18.6254 -15.2821 -4.13475 -19.4041 
-7.59476 -4.13475 -20.7982 0.0925876 -4.13475 -18.4946 7.77993 3.42344 -21.4518 
7.77993 -4.13475 -21.0502 15.4673 -4.13475 -17.8424 23.1546 -4.13475 -18.4103 
30.842 -4.13475 -18.8785 38.5293 -4.13475 -18.1574 46.2167 -4.13475 -14.9918 
-46.0315 3.55259 -14.3568 -38.3441 3.55259 -17.1929 -30.6568 3.55259 -18.3365 
-22.9695 3.55259 -18.3912 -15.2821 3.55259 -19.6192 -7.59476 3.55259 -21.4107 
7.75891 3.55259 -21.4518 0.0925876 3.55259 -18.6969 7.79492 3.55259 -21.4518 
7.77993 3.58973 -21.4518 15.4673 3.55259 -17.979 23.1546 3.55259 -18.0136 
30.842 3.55259 -18.1704 38.5293 3.55259 -17.4241 46.2167 3.55259 -14.0413 
-38.3441 11.2399 -16.2497 -30.6568 11.2399 -17.8947 -22.9695 11.2399 -18.067 
-15.2821 11.2399 -18.2895 -7.59476 11.2399 -19.3392 0.0925876 11.2399 -19.9721 
7.77993 11.2399 -19.9971 15.4673 11.2399 -18.3897 23.1546 11.2399 -17.9771 
30.842 11.2399 -18.2244 38.5293 11.2399 -15.915 -38.3441 18.9273 -14.1005 
-30.6568 18.9273 -16.4924 -22.9695 18.9273 -17.2644 -15.2821 18.9273 -17.4806 
-7.59476 18.9273 -18.0955 0.0925876 18.9273 -19.334 7.77993 18.9273 -19.1988 
15.4673 18.9273 -18.4681 23.1546 18.9273 -17.8916 30.842 18.9273 -16.6635 
38.5293 18.9273 -13.7949 -30.6568 26.6146 -13.9326 -22.9695 26.6146 -15.4956 
-15.2821 26.6146 -16.8614 -7.59476 26.6146 -18.3071 0.0925876 26.6146 -19.0812 
7.77993 26.6146 -19.446 15.4673 26.6146 -18.0247 23.1546 26.6146 -16.714 
30.842 26.6146 -14.4946 -15.2821 34.302 -14.1555 -7.59476 34.302 -16.0598 
0.0925876 34.302 -17.6709 7.77993 34.302 -17.7607 15.4673 34.302 -16.2854 
-15.2821 -46.5067 -13.7644 -7.59476 -48.6015 -13.7644 -7.59476 -50.2588 -6.99126 
0.0925876 -48.3633 -13.7644 0.0925876 -50.2588 -6.68055 7.77993 -46.4738 -13.7644 
15.4673 -44.3902 -13.7644 -30.6568 -35.6647 -13.7644 -22.6286 -42.5715 -13.7644 
-22.9695 -42.2797 -13.7644 -22.9695 -42.5715 -13.0692 21.2934 -42.5715 -13.7644 
23.1546 -41.8413 -13.7644 23.1546 -42.5715 -11.4169 30.842 -36.6386 -13.7644 
-31.6455 -34.8841 -13.7644 -38.3441 -29.059 -13.7644 32.8989 -34.8841 -13.7644 
38.5293 -28.9978 -13.7644 -40.4297 -27.1968 -13.7644 -46.0315 -20.6227 -13.7644 
-46.0315 -27.1968 -7.17353 40.1007 -27.1968 -13.7644 -46.8814 -19.5094 -13.7644 
44.846 -19.5094 -13.7644 46.2167 -16.3539 -13.7644 46.2167 -19.5094 -12.0853 
-48.951 -11.8221 -13.7644 -53.7188 -11.8221 -6.67044 47.6335 -11.8221 -13.7644 
-47.6036 -4.13475 -13.7644 47.6544 -4.13475 -13.7644 -46.756 3.55259 -13.7644 
-46.0315 5.79682 -13.7644 46.5752 3.55259 -13.7644 46.2167 4.44833 -13.7644 
-43.3524 11.2399 -13.7644 -46.0315 11.2399 -11.6656 42.5673 11.2399 -13.7644 
46.2167 11.2399 -10.8971 -38.9118 18.9273 -13.7644 -46.0315 18.9273 -7.91922 
-38.3441 19.7659 -13.7644 38.577 18.9273 -13.7644 38.5293 18.9992 -13.7644 
46.2167 18.9273 -6.80429 -31.1093 26.6146 -13.7644 -38.3441 26.6146 -10.2421 
-30.6568 26.9315 -13.7644 -22.9695 30.8958 -13.7644 23.1546 33.5882 -13.7644 
32.2039 26.6146 -13.7644 30.842 27.8074 -13.7644 38.5293 26.6146 -9.26752 
-30.6568 34.302 -8.97877 -16.9452 34.302 -13.7644 -22.9695 34.302 -12.1291 
-15.2821 34.9671 -13.7644 -7.59476 37.7294 -13.7644 0.0925876 39.8502 -13.7644 
7.77993 40.0831 -13.7644 22.332 34.302 -13.7644 15.4673 37.9603 -13.7644 
23.1546 34.302 -13.3452 30.842 34.302 -8.1347 -15.2821 41.9893 -7.48753 
-7.59476 41.9893 -9.45878 0.0925876 41.9893 -11.2626 7.77993 41.9893 -11.4639 
15.4673 41.9893 -8.69335 -7.59476 -50.433 -6.07707 0.0925876 -50.3787 -6.07707 
-22.9695 -44.2519 -6.07707 -8.28749 -50.2588 -6.07707 -15.2821 -48.223 -6.07707 
-7.59476 -50.2588 -5.67953 0.762479 -50.2588 -6.07707 0.0925876 -50.2588 -5.81342 
7.77993 -48.8442 -6.07707 15.4673 -46.82 -6.07707 23.1546 -43.7 -6.07707 
-25.3922 -42.5715 -6.07707 -30.6568 -38.831 -6.07707 -22.9695 -42.5715 -2.01011 
25.0579 -42.5715 -6.07707 23.1546 -42.5715 -4.09823 30.842 -38.7642 -6.07707 
-46.0315 -27.9255 -6.07707 -36.8748 -34.8841 -6.07707 -38.3441 -33.885 -6.07707 
35.6442 -34.8841 -6.07707 30.842 -34.8841 0.524584 38.5293 -32.3431 -6.07707 
-46.7327 -27.1968 -6.07707 -46.0315 -27.1968 0.599115 43.7675 -27.1968 -6.07707 
46.2167 -24.1432 -6.07707 -51.5165 -19.5094 -6.07707 -53.7188 -12.869 -6.07707 
49.5469 -19.5094 -6.07707 -54.0245 -11.8221 -6.07707 -53.7188 -7.7863 -6.07707 
-53.7188 -11.8221 -3.43602 52.5406 -11.8221 -6.07707 -53.425 -4.13475 -6.07707 
53.4602 -4.13475 -6.07707 53.904 -4.13475 -3.59937 -51.9923 3.55259 -6.07707 
52.5877 3.55259 -6.07707 53.904 3.55259 -1.00973 -50.1644 11.2399 -6.07707 
50.0206 11.2399 -6.07707 -47.3877 18.9273 -6.07707 -46.0315 21.6095 -6.07707 
46.7702 18.9273 -6.07707 46.2167 19.903 -6.07707 -42.7024 26.6146 -6.07707 
-38.3441 31.1739 -6.07707 41.5618 26.6146 -6.07707 38.5293 29.6579 -6.07707 
-34.6612 34.302 -6.07707 -38.3441 34.302 -0.698856 -30.6568 37.4517 -6.07707 
-22.9695 40.6908 -6.07707 23.1546 40.3863 -6.07707 33.0217 34.302 -6.07707 
30.842 35.8274 -6.07707 -18.86 41.9893 -6.07707 -22.9695 41.9893 -3.92697 
-15.2821 42.9797 -6.07707 -7.59476 44.3042 -6.07707 0.0925876 45.0047 -6.07707 
7.77993 44.955 -6.07707 19.3826 41.9893 -6.07707 15.4673 43.4565 -6.07707 
23.1546 41.9893 1.36588 -15.2821 -45.028 1.61028 -7.59476 -46.6165 1.61028 
0.0925876 -46.4663 1.61028 7.77993 -45.5223 1.61028 15.4673 -42.638 1.61028 
-30.6568 -37.0261 1.61028 -19.8342 -42.5715 1.61028 -22.9695 -41.1158 1.61028 
-15.2821 -42.5715 4.87154 -7.59476 -42.5715 7.07433 0.0925876 -42.5715 6.91281 
7.77993 -42.5715 4.96544 15.592 -42.5715 1.61028 15.4673 -42.5715 1.68704 
23.1546 -38.95 1.61028 -34.9186 -34.8841 1.61028 -38.3441 -33.0621 1.61028 
-30.6568 -34.8841 5.53173 29.7973 -34.8841 1.61028 23.1546 -34.8841 6.66476 
30.842 -34.2234 1.61028 38.5293 -29.3642 1.61028 -45.8933 -27.1968 1.61028 
-46.0315 -27.0553 1.61028 40.8808 -27.1968 1.61028 38.5293 -27.1968 4.79141 
46.2167 -22.4484 1.61028 -50.8343 -19.5094 1.61028 48.7384 -19.5094 1.61028 
46.2167 -19.5094 7.54441 -53.0978 -11.8221 1.61028 52.9505 -11.8221 1.61028 
53.904 -7.74463 1.61028 -53.0841 -4.13475 1.61028 54.7072 -4.13475 1.61028 
53.904 -4.13475 7.69246 -52.6301 3.55259 1.61028 54.4899 3.55259 1.61028 
53.904 5.90427 1.61028 53.904 3.55259 7.81596 -51.7952 11.2399 1.61028 
52.5177 11.2399 1.61028 -49.1919 18.9273 1.61028 -46.0315 25.5801 1.61028 
49.3797 18.9273 1.61028 46.2167 23.7485 1.61028 -45.4838 26.6146 1.61028 
44.0261 26.6146 1.61028 38.5293 31.9083 1.61028 -39.4614 34.302 1.61028 
-38.3441 35.4186 1.61028 -38.3441 34.302 6.98758 -30.6568 41.3313 1.61028 
35.5332 34.302 1.61028 30.842 37.7262 1.61028 -29.2706 41.9893 1.61028 
-22.9695 44.6381 1.61028 -15.2821 46.3311 1.61028 -7.59476 47.2415 1.61028 
0.0925876 47.0209 1.61028 7.77993 46.5714 1.61028 15.4673 45.0864 1.61028 
23.2428 41.9893 1.61028 23.1546 42.0361 1.61028 23.1546 41.9893 1.874 
-22.9695 -36.3789 9.29762 -15.2821 -39.0421 9.29762 -7.59476 -40.5669 9.29762 
0.0925876 -40.3237 9.29762 7.77993 -38.5179 9.29762 15.4673 -35.8267 9.29762 
-38.3441 -28.3936 9.29762 -26.1574 -34.8841 9.29762 -30.6568 -32.5089 9.29762 
-22.9695 -34.8841 11.0207 -15.2821 -34.8841 13.4316 -7.59476 -34.8841 14.6258 
0.0925876 -34.8841 14.1508 7.77993 -34.8841 12.6964 17.6272 -34.8841 9.29762 
15.4673 -34.8841 10.2207 23.1546 -32.4562 9.29762 30.842 -28.5305 9.29762 
-39.7661 -27.1968 9.29762 -46.0315 -19.9097 9.29762 -38.3441 -27.1968 10.4158 
-30.6568 -27.1968 13.9103 -22.9695 -27.1968 16.5759 15.4673 -27.1968 16.8364 
23.1546 -27.1968 14.6644 33.3589 -27.1968 9.29762 30.842 -27.1968 11.0044 
38.5293 -24.6798 9.29762 -46.2828 -19.5094 9.29762 -46.0315 -19.5094 9.54247 
-38.3441 -19.5094 13.8439 -30.6568 -19.5094 16.3285 45.2573 -19.5094 9.29762 
38.5293 -19.5094 15.4296 46.2167 -18.5436 9.29762 -48.0607 -11.8221 9.29762 
-46.0315 -11.8221 11.2688 -38.3441 -11.8221 15.6053 51.0214 -11.8221 9.29762 
46.2167 -11.8221 15.5377 -49.146 -4.13475 9.29762 -46.0315 -4.13475 12.4618 
-38.3441 -4.13475 16.8221 53.6691 -4.13475 9.29762 -49.9595 3.55259 9.29762 
-46.0315 3.55259 13.8216 53.7569 3.55259 9.29762 -49.8619 11.2399 9.29762 
-46.0315 11.2399 13.8223 52.1125 11.2399 9.29762 -47.5695 18.9273 9.29762 
-46.0315 22.2714 9.29762 -46.0315 18.9273 11.7446 48.7708 18.9273 9.29762 
46.2167 22.6109 9.29762 46.2167 18.9273 13.5843 -43.5788 26.6146 9.29762 
-38.3441 33.6568 9.29762 -38.3441 26.6146 14.4544 42.8422 26.6146 9.29762 
[...]
POINT_DATA 532
SCALARS ImageScalars float
LOOKUP_TABLE default
0 0 0 0 0 0 0 0 0 
0 0 0 0 0 0 0 0 0 
0 0 0 0 0 0 0 0 0 
0 0 0 0 0 0 0 0 0 
0 0 0 0 0 0 0 0 0 
0 0 0 0 0 0 0 0 0 
0 0 0 0 0 0 0 0 0 
0 0 0 0 0 0 0 0 0 
0 0 0 0 0 0 0 0 0 
0 0 0 0 0 0 0 0 0 
0 0 0 0 0 0 0 0 0 
0 0 0 0 0 0 0 0 0 
0 0 0 0 0 0 0 0 0 
0 0 0 0 0 0 0 0 0 
0 0 0 0 0 0 0 0 0 
0 0 0 0 0 0 0 0 0 
0 0 0 0 0 0 0 0 0 
0 0 0 0 0 0 0 0 0 
0 0 0 0 0 0 0 0 0 
0 0 0 0 0 0 0 0 0 
0 0 0 0 0 0 0 0 0 
0 0 0 0 0 0 0 0 0 
0 0 0 0 0 0 0 0 0 
0 0 0 0 0 0 0 0 0 
0 0 0 0 0 0 0 0 0 
0 0 0 0 0 0 0 0 0 
0 0 0 0 0 0 0 0 0 
0 0 0 0 0 0 0 0 0 
0 0 0 0 0 0 0 0 0 
0 0 0 0 0 0 0 0 0 
0 0 0 0 0 0 0 0 0 
0 0 0 0 0 0 0 0 0 
0 0 0 0 0 0 0 0 0 
0 0 0 0 0 0 0 0 0 
0 0 0 0 0 0 0 0 0 
0 0 0 0 0 0 0 0 0 
0 0 0 0 0 0 0 0 0 
0 0 0 0 0 0 0 0 0 
0 0 0 0 0 0 0 0 0 
0 0 0 0 0 0 0 0 0 
0 0 0 0 0 0 0 0 0 
0 0 0 0 0 0 0 0 0 
0 0 0 0 0 0 0 0 0 
0 0 0 0 0 0 0 0 0 
0 0 0 0 0 0 0 0 0 
0 0 0 0 0 0 0 0 0 
0 0 0 0 0 0 0 0 0 
0 0 0 0 0 0 0 0 0 
0 0 0 0 0 0 0 0 0 
0 0 0 0 0 0 0 0 0 
0 0 0 0 0 0 0 0 0 
0 0 0 0 0 0 0 0 0 
0 0 0 0 0 0 0 0 0 
0 0 0 0 0 0 0 0 0 
0 0 0 0 0 0 0 0 0 
0 0 0 0 0 0 0 0 0 
0 0 0 0 0 0 0 0 0 
0 0 0 0 0 0 0 0 0 
0 0 0 0 0 0 0 0 0 
0 
NORMALS Normals float
-0.0937995 0.0164151 -0.995456 0.0657256 0.0658143 -0.995665 -0.257177 -0.575256 -0.776492 
0.0249518 -0.446486 -0.894443 0.124394 -0.442765 -0.887967 0.149062 -0.55096 -0.821111 
0.219161 -0.676623 -0.702958 -0.507902 -0.584317 -0.632937 -0.389088 -0.346429 -0.853579 
-0.10687 -0.010441 -0.994218 -0.166592 -0.14106 -0.975884 0.0568711 -0.144555 -0.987861 
0.0756074 -0.134485 -0.988027 0.0380397 -0.188437 -0.981348 0.100679 -0.256129 -0.961385 
0.237231 -0.386101 -0.89143 0.496991 -0.596407 -0.630316 -0.441217 -0.482346 -0.75675 
-0.281705 -0.264476 -0.922331 -0.10186 0.0104179 -0.994744 -0.244151 -0.117621 -0.962578 
-0.0571462 0.0112507 -0.998302 -0.0898749 0.0294047 -0.995519 0.0752905 -0.00916906 -0.997119 
0.0673943 0.010828 -0.997668 -0.00657656 -0.0226578 -0.999722 0.0195101 -0.0390659 -0.999046 
0.121693 -0.121357 -0.985121 0.282844 -0.25459 -0.924761 0.586149 -0.466994 -0.662078 
-0.526932 -0.357091 -0.771252 -0.299318 -0.156159 -0.941288 -0.124009 -0.0955114 -0.987674 
-0.0985521 0.0396242 -0.994343 -0.0604218 0.118072 -0.991165 0.0566997 0.0318816 -0.997882 
0.0613522 0.0030321 -0.998112 -0.0160902 -0.0358837 -0.999226 -0.0140074 0.086096 -0.996188 
0.0130094 0.0444629 -0.998926 0.115862 -0.043954 -0.992292 0.401327 -0.178789 -0.898316 
-0.462341 -0.0413416 -0.885738 -0.197601 -0.00589614 -0.980265 -0.0755881 0.0294416 -0.996704 
-0.039787 0.0819664 -0.995841 -0.0987078 0.0895693 -0.991077 -0.0408616 0.00339999 -0.999159 
-0.000532967 0.0754896 -0.997146 0.0773898 -0.0767964 -0.994039 0.09788 0.150821 -0.983703 
-0.0020743 0.108973 -0.994043 0.0524778 0.0664954 -0.996406 0.251239 -0.00398147 -0.967917 
0.594619 -0.117287 -0.795407 -0.516576 0.107885 -0.849418 -0.218683 0.0441063 -0.974799 
-0.0439136 0.0447214 -0.998034 -0.036457 0.0470863 -0.998225 -0.143684 0.00359469 -0.989617 
0.0466514 -0.0493437 -0.997692 -0.0247054 0.119801 -0.992491 0.0658311 0.0637885 -0.99579 
0.0655748 -0.0534064 -0.996417 0.171499 0.0784416 -0.982057 -0.0667051 0.0721826 -0.995158 
0.0149462 0.0653088 -0.997753 0.213909 0.0576235 -0.975153 0.576302 0.0578685 -0.815185 
-0.560431 0.158531 -0.812887 -0.24376 0.105999 -0.964025 -0.0744208 0.0590603 -0.995476 
-0.0759696 0.0361111 -0.996456 -0.196092 0.0771375 -0.977547 0.0519726 0.0936715 -0.994246 
0.0655986 0.0654788 -0.995695 -0.0133888 -0.103654 -0.994523 0.0661028 0.065654 -0.995651 
0.0659784 0.066262 -0.995619 0.221813 -0.0368917 -0.974391 -0.0123615 0.0280728 -0.999529 
0.0389927 0.0428722 -0.998319 0.241504 0.139119 -0.960376 0.56999 0.187569 -0.799955 
-0.32882 0.176752 -0.927705 -0.112958 0.111951 -0.987273 -0.0260753 0.0724152 -0.997034 
-0.0798473 0.133795 -0.987787 -0.110988 0.208044 -0.971802 -0.0408991 -0.0323733 -0.998639 
0.106221 0.147627 -0.983323 0.127406 -0.0317884 -0.991341 0.0114448 0.0078512 -0.999904 
0.12643 0.0911155 -0.987782 0.366314 0.209109 -0.90669 -0.409248 0.318143 -0.855161 
-0.183754 0.242855 -0.9525 -0.0607839 0.158514 -0.985484 -0.0529683 0.0920376 -0.994346 
-0.121003 0.0628466 -0.990661 -0.0709259 0.0563501 -0.995889 0.056051 0.0334028 -0.997869 
0.0848911 0.02317 -0.996121 0.112377 0.0764173 -0.990723 0.238903 0.211534 -0.947723 
0.458426 0.319946 -0.829144 -0.264042 0.398455 -0.878359 -0.179967 0.295632 -0.938197 
-0.170761 0.197431 -0.96533 -0.149356 0.120738 -0.981384 -0.0707238 0.0959267 -0.992873 
0.0660193 0.0785858 -0.994719 0.167563 0.132907 -0.976861 0.204732 0.253576 -0.945402 
0.366947 0.395805 -0.841836 -0.218025 0.444962 -0.868604 -0.208097 0.426545 -0.880202 
-0.102743 0.374775 -0.921405 0.0855724 0.38305 -0.919755 0.240326 0.412734 -0.878575 
-0.361017 -0.812327 -0.458031 -0.105339 -0.863199 -0.493752 -0.12772 -0.989606 0.0660802 
0.113726 -0.829508 -0.546793 0.0985559 -0.991193 0.0884531 0.214673 -0.779091 -0.589009 
0.268466 -0.778446 -0.567405 -0.526949 -0.615035 -0.586563 -0.551901 -0.691414 -0.46621 
-0.555056 -0.682423 -0.475617 -0.563543 -0.712344 -0.418312 0.362153 -0.775743 -0.516787 
0.385772 -0.766088 -0.514091 0.440785 -0.846461 -0.298685 0.537968 -0.675113 -0.504789 
-0.51694 -0.61332 -0.597169 -0.489218 -0.539838 -0.685011 0.565517 -0.647248 -0.511137 
0.633142 -0.520313 -0.573067 -0.521355 -0.507789 -0.685813 -0.547675 -0.399476 -0.735168 
-0.705082 -0.657307 -0.266097 0.653197 -0.488657 -0.578402 -0.56514 -0.366539 -0.739098 
0.637278 -0.338231 -0.692442 0.653798 -0.25914 -0.710911 0.721869 -0.397431 -0.566527 
-0.630494 -0.0327441 -0.775503 -0.966228 -0.105275 -0.235205 0.663707 -0.120957 -0.738147 
-0.594943 0.113403 -0.795727 0.636423 0.0500221 -0.769716 -0.598234 0.156272 -0.785936 
-0.573326 0.196104 -0.795512 0.585361 0.187044 -0.788903 0.578457 0.199017 -0.791062 
-0.499681 0.253548 -0.82827 -0.653633 0.292749 -0.697898 0.498085 0.263052 -0.826265 
0.678867 0.307533 -0.666756 -0.431112 0.323053 -0.842484 -0.770107 0.377837 -0.513979 
-0.417253 0.331661 -0.846109 0.459972 0.320373 -0.828122 0.459282 0.321453 -0.828087 
0.769612 0.409263 -0.490104 -0.275467 0.401773 -0.873325 -0.514036 0.494752 -0.700705 
-0.267168 0.405582 -0.874142 -0.225674 0.410566 -0.883463 0.36196 0.510388 -0.780057 
0.397849 0.415274 -0.818085 0.384888 0.432873 -0.815157 0.595394 0.548627 -0.586954 
-0.398369 0.603098 -0.691068 -0.22515 0.459278 -0.859285 -0.259929 0.523786 -0.811225 
-0.219411 0.470184 -0.85486 -0.188831 0.564385 -0.803625 -0.0987571 0.672717 -0.733279 
0.0842659 0.684742 -0.723897 0.361076 0.523692 -0.771603 0.263074 0.59107 -0.762514 
0.379181 0.544777 -0.747957 0.50296 0.711909 -0.490119 -0.20302 0.795125 -0.571454 
-0.143692 0.785452 -0.602012 -0.080427 0.80534 -0.587332 0.0891255 0.810617 -0.578755 
0.266403 0.845231 -0.463264 -0.127696 -0.983383 0.129041 0.0965841 -0.986473 0.132445 
-0.525273 -0.848258 0.0674321 -0.149356 -0.980902 0.124596 -0.360847 -0.929819 0.0722891 
-0.123937 -0.980734 0.150997 0.108348 -0.986115 0.125846 0.0942654 -0.984636 0.146986 
0.225467 -0.973101 0.0473206 0.306601 -0.948681 0.0774677 0.473125 -0.867495 0.153638 
-0.54933 -0.834558 0.041821 -0.560945 -0.826057 -0.054506 -0.480144 -0.83702 0.262411 
0.505736 -0.850845 0.142457 0.457493 -0.846486 0.272328 0.581118 -0.808246 0.0950773 
-0.702598 -0.682043 -0.20291 -0.555523 -0.818938 -0.143994 -0.565795 -0.807249 -0.168004 
0.635097 -0.770687 0.0519046 0.48358 -0.737834 0.470904 0.66409 -0.747653 -0.00034951 
-0.720928 -0.661389 -0.20695 -0.700593 -0.679702 0.217197 0.75381 -0.655387 -0.0473134 
0.808605 -0.578406 -0.107729 -0.90132 -0.40211 -0.161027 -0.96999 -0.147915 -0.192979 
0.858204 -0.485287 -0.167281 -0.974105 -0.109763 -0.197664 -0.97635 0.0129748 -0.215805 
-0.992135 -0.120575 -0.033617 0.938859 -0.211553 -0.271642 -0.965133 0.122995 -0.231062 
0.938677 -0.00435105 -0.344769 0.972339 -0.0355131 -0.230859 -0.933738 0.192647 -0.301696 
0.898829 0.188165 -0.395854 0.974011 0.153699 -0.16637 -0.88832 0.275891 -0.367112 
0.837808 0.311835 -0.448148 -0.821635 0.379854 -0.425001 -0.791061 0.431949 -0.433176 
0.786069 0.414509 -0.458561 0.778455 0.435247 -0.452292 -0.693218 0.542977 -0.473946 
-0.591681 0.625327 -0.508803 0.692291 0.589881 -0.41566 0.638049 0.653632 -0.407011 
-0.524093 0.656256 -0.542822 -0.675184 0.707245 -0.209598 -0.433541 0.694489 -0.574219 
-0.262546 0.770793 -0.580472 0.414124 0.829867 -0.373927 0.548178 0.744154 -0.381753 
0.517678 0.766365 -0.380387 -0.224381 0.808227 -0.544448 -0.275541 0.84254 -0.462821 
-0.195218 0.829447 -0.523362 -0.117886 0.871178 -0.476605 -0.0378286 0.922493 -0.384157 
0.0934893 0.933597 -0.345913 0.334078 0.873022 -0.355281 0.258893 0.900825 -0.348553 
0.431773 0.901822 -0.0170038 -0.304326 -0.820926 0.483183 -0.0699868 -0.845887 0.52875 
0.0537589 -0.843629 0.534228 0.198849 -0.822258 0.533245 0.334007 -0.744927 0.577515 
-0.43391 -0.84427 0.314533 -0.383745 -0.804609 0.453149 -0.411833 -0.811178 0.415193 
-0.289053 -0.774897 0.562124 -0.074195 -0.771946 0.631343 0.087619 -0.762365 0.641188 
0.223511 -0.74622 0.627056 0.334441 -0.744327 0.578037 0.3337 -0.743638 0.57935 
0.380372 -0.746412 0.546065 -0.483241 -0.827263 0.286555 -0.538481 -0.798708 0.268521 
-0.412614 -0.799983 0.435635 0.452326 -0.721951 0.52363 0.362149 -0.708088 0.606185 
0.45878 -0.723356 0.51602 0.56282 -0.729977 0.387771 -0.686544 -0.671845 0.277996 
-0.69103 -0.667046 0.278436 0.613097 -0.71222 0.341841 0.507548 -0.741064 0.439568 
0.719557 -0.657844 0.22244 -0.869836 -0.399286 0.289752 0.774454 -0.600124 0.200182 
0.683095 -0.617478 0.390003 -0.947659 -0.13356 0.290008 0.940728 -0.328985 0.0824659 
0.97925 -0.200157 0.0317163 -0.974574 0.0298564 0.222066 0.995477 -0.0941546 -0.0126931 
0.960761 -0.140783 0.238997 -0.990466 0.0811253 0.111337 0.988702 0.135582 -0.0639221 
0.980165 0.184207 -0.0730993 0.973007 0.106542 0.20471 -0.977033 0.212477 0.0161485 
0.947427 0.301857 -0.106133 -0.929957 0.367653 -0.00339311 -0.870935 0.490976 -0.0203836 
0.875147 0.473483 -0.0996621 0.810315 0.582058 -0.0678129 -0.856846 0.514989 -0.0245177 
0.755941 0.6528 -0.0490412 0.649124 0.760033 -0.0314291 -0.708193 0.699837 -0.09323 
-0.685173 0.721156 -0.102332 -0.706019 0.665283 0.242766 -0.499818 0.857637 -0.120997 
0.605496 0.795643 -0.0180672 0.544396 0.838698 -0.0147682 -0.460724 0.876862 -0.137281 
-0.290922 0.936533 -0.195628 -0.161183 0.970656 -0.178458 -0.0446596 0.983771 -0.173782 
0.0433129 0.993636 -0.103974 0.120824 0.991432 -0.0496387 0.27632 0.96066 -0.0279281 
0.432939 0.901401 -0.00633167 0.431773 0.901959 -0.00644997 0.432768 0.901494 0.00456674 
-0.307319 -0.733159 0.606658 -0.214538 -0.726172 0.653183 -0.0592264 -0.731485 0.679281 
0.0913312 -0.710843 0.697396 0.205169 -0.679527 0.704378 0.27307 -0.679005 0.681458 
-0.495658 -0.604717 0.623411 -0.334478 -0.733108 0.59218 -0.375016 -0.697735 0.610351 
-0.293666 -0.696926 0.654258 -0.173171 -0.647632 0.742014 -0.0321649 -0.604506 0.795951 
0.0944044 -0.598743 0.795358 0.189235 -0.630804 0.752514 0.289673 -0.681968 0.671573 
0.265833 -0.671563 0.691618 0.329851 -0.693385 0.640637 0.368311 -0.733882 0.570757 
-0.519182 -0.577855 0.629709 -0.646756 -0.345421 0.679993 -0.491986 -0.558132 0.668161 
-0.325014 -0.462549 0.824872 -0.25656 -0.371663 0.892213 0.155183 -0.52623 0.836062 
0.2483 -0.63474 0.731746 0.376359 -0.747141 0.547845 0.35221 -0.726272 0.590319 
0.430393 -0.741347 0.514943 -0.654806 -0.331519 0.679209 -0.64366 -0.332402 0.689356 
-0.402248 -0.276083 0.872912 -0.262823 -0.208137 0.942127 0.641727 -0.620093 0.4513 
0.396437 -0.591954 0.701732 0.671637 -0.592424 0.444902 -0.692343 -0.158088 0.704037 
-0.620745 -0.159883 0.767537 -0.338859 -0.176455 0.924142 0.820662 -0.416593 0.391106 
0.598943 -0.42825 0.67666 -0.764031 -0.100531 0.637299 -0.644836 -0.126745 0.753739 
-0.330027 -0.157255 0.930781 0.938588 -0.15317 0.309179 -0.855946 -0.0379157 0.515674 
-0.677167 -0.0722214 0.732276 0.957612 0.0976605 0.271001 -0.88115 0.146068 0.449711 
-0.700746 0.0834988 0.708507 0.925256 0.283965 0.251526 -0.861537 0.333427 0.382858 
-0.828684 0.403031 0.388391 -0.795512 0.316003 0.517012 0.830832 0.490863 0.262242 
0.775513 0.577129 0.255934 0.733009 0.46365 0.497721 -0.75315 0.498824 0.428882 
-0.68105 0.612356 0.401486 -0.541301 0.413303 0.732239 0.682201 0.67245 0.287076 
0.599337 0.740824 0.303274 0.527687 0.613173 0.587848 -0.674283 0.620943 0.399715 
-0.528823 0.761988 0.373794 -0.447216 0.494093 0.745567 0.436118 0.828292 0.351757 
0.294468 0.517728 0.803272 0.539427 0.770178 0.340359 0.504354 0.78116 0.367989 
0.463795 0.73793 0.490259 -0.474736 0.812426 0.338511 -0.34557 0.883925 0.315051 
-0.355885 0.753785 0.552408 -0.181721 0.948736 0.258608 -0.200293 0.622511 0.756547 
-0.0388925 0.968522 0.24587 0.0975631 0.962401 0.253506 0.0846111 0.581942 0.808817 
0.180551 0.934338 0.307267 0.186765 0.691152 0.69816 0.390044 0.854529 0.342994 
0.306006 0.885832 0.348801 0.301474 0.80595 0.509468 -0.149448 -0.436828 0.887043 
-0.0185128 -0.459341 0.888067 0.0791008 -0.427859 0.900377 0.117163 -0.434656 0.892943 
-0.230412 -0.360939 0.903678 -0.248044 -0.302783 0.920215 -0.136795 -0.342255 0.929596 
-0.00744794 -0.324076 0.946002 0.0684548 -0.318003 0.945615 0.146818 -0.507326 0.849155 
0.0987628 -0.389571 0.915686 0.149196 -0.516257 0.843338 0.185895 -0.529788 0.827507 
0.249947 -0.540783 0.803169 -0.245143 -0.165857 0.955194 -0.205269 -0.171869 0.963497 
-0.218005 -0.086594 0.972098 -0.142213 -0.070297 0.987337 -0.00675409 -0.121795 0.992532 
0.0360912 -0.0955426 0.994771 -0.0161374 -0.186029 0.982412 0.023367 -0.264921 0.963987 
0.122395 -0.373205 0.91964 0.303245 -0.53083 0.791367 0.21954 -0.479128 0.849846 
0.361472 -0.510537 0.780186 -0.209962 -0.151533 0.965895 -0.150398 -0.137603 0.979003 
-0.121599 -0.0474139 0.991446 -0.172556 0.0285194 0.984587 -0.0283068 -0.0343135 0.99901 
0.000456356 0.0639123 0.997955 -0.0836263 -0.0935208 0.992099 -0.051189 -0.0832778 0.995211 
-0.00141086 -0.140527 0.990076 0.106637 -0.234112 0.966344 0.501634 -0.405962 0.76391 
0.299798 -0.349534 0.887664 0.566453 -0.326232 0.756772 -0.311435 -0.155639 0.937435 
-0.329088 -0.149576 0.932378 -0.134306 -0.14908 0.979662 -0.0539758 -0.10701 0.992792 
-0.135734 -0.0200692 0.990542 0.0327818 -0.0123577 0.999386 -0.0208483 0.0311575 0.999297 
-0.169438 -0.0924442 0.981196 -0.0266395 -0.0590134 0.997902 -0.0309757 -0.046962 0.998416 
0.0170395 -0.0824705 0.996448 0.198294 -0.126546 0.971939 0.626422 -0.183378 0.757607 
0.530405 -0.170382 0.830446 -0.424538 -0.0915782 0.900767 -0.327223 -0.0945253 0.940208 
-0.0942641 -0.0889043 0.99157 0.00450519 -0.0320842 0.999475 -0.0750622 0.0447555 0.996174 
0.0160037 0.0895116 0.995857 -0.0773898 -0.112214 0.990666 -0.168422 -0.00744723 0.985687 
-0.00623691 -0.0232735 0.99971 -0.0271948 -0.029948 0.999181 0.0218544 -0.0532327 0.998343 
0.20575 -0.0131601 0.978516 0.658393 0.0547207 0.750682 0.530215 0.0434326 0.84675 
-0.433576 0.0499975 0.899729 -0.322661 0.0600941 0.944605 -0.0661722 0.0265987 0.997454 
0.0768016 0.0400234 0.996243 -0.00382332 0.0441813 0.999016 -0.126189 0.0770677 0.989008 
-0.116793 -0.0440324 0.99218 -0.0885383 0.110081 0.989971 -0.0495256 0.0746859 0.995977 
-0.0604885 0.0533561 0.996742 0.0286896 0.0893234 0.995589 0.298349 0.154987 0.941789 
0.630398 0.238831 0.73862 0.615354 0.285529 0.73472 0.588976 0.227619 0.775434 
-0.370828 0.208908 0.9049 -0.361144 0.228242 0.904146 -0.332642 0.198355 0.921957 
-0.125478 0.134142 0.982986 0.0196641 0.00986229 0.999758 -0.0401415 -0.0841011 0.995648 
-0.0758058 -0.0567388 0.995507 -0.0455191 -0.00432868 0.998954 -0.0472765 0.0754588 0.996028 
-0.059702 0.100731 0.993121 -0.0186082 0.157083 0.98741 0.115541 0.239483 0.964001 
0.535583 0.39509 0.746361 0.441235 0.47323 0.762473 0.359829 0.35558 0.862604 
-0.349073 0.297889 0.888487 -0.320091 0.330472 0.88788 -0.250969 0.246977 0.935958 
-0.137899 0.0827033 0.986987 -0.0716911 -0.0183375 0.997258 -0.0411086 -0.0201772 0.998951 
0.0114811 0.0314765 0.999439 0.0217949 0.0635246 0.997742 0.0274281 0.152723 0.987888 
0.274509 0.492558 0.825852 0.0918922 0.285141 0.954071 0.383643 0.52338 0.760849 
0.319421 0.555114 0.767997 0.260012 0.46203 0.847893 -0.308479 0.365445 0.878231 
-0.269754 0.404301 0.873941 -0.241736 0.304751 0.921244 -0.188766 0.485383 0.853681 
-0.1562 0.245606 0.956702 -0.0220179 0.191802 0.981187 0.0828917 0.562489 0.822639 
0.0405938 0.23045 0.972237 0.156514 0.530306 0.833234 0.0737826 0.258714 0.963132 
0.27398 0.491489 0.826664 0.21735 0.491499 0.84332 0.188477 0.386734 0.902725 
-0.0696746 0.583104 0.809404 0.0317338 0.57981 0.814134 -0.0455815 0.592076 0.804592 
-0.0456884 0.582487 0.811555 
