# vtk DataFile Version 4.2
vtk output
ASCII
DATASET POLYDATA
POINTS 510 float
26.9064 -9.43692 -23.9769 34.8429 -9.43692 -24.0095 -20.7127 -41.183 -17.8438 
-12.7762 -41.183 -20.0614 -4.83969 -41.183 -20.5398 3.09683 -41.183 -19.387 
11.0334 -41.183 -17.0378 -28.6493 -33.2465 -18.5929 -20.7127 -33.2465 -21.2165 
-12.7762 -33.2465 -22.6554 -4.83969 -33.2465 -23.2351 3.09683 -33.2465 -22.3828 
11.0334 -33.2465 -20.9864 18.9699 -33.2465 -20.3035 26.9064 -33.2465 -18.3429 
-28.6493 -25.31 -20.0592 -20.7127 -25.31 -22.3704 -12.7762 -25.31 -23.0268 
-4.83969 -25.31 -22.8759 3.09683 -25.31 -22.3047 11.0334 -25.31 -22.075 
18.9699 -25.31 -21.9098 26.9064 -25.31 -21.8777 34.8429 -25.31 -20.9127 
42.7795 -25.31 -16.7622 -36.5858 -17.3734 -16.3964 -28.6493 -17.3734 -19.6681 
-20.7127 -17.3734 -21.6391 -12.7762 -17.3734 -22.3267 -4.83969 -17.3734 -22.1945 
3.09683 -17.3734 -21.6386 11.0334 -17.3734 -21.6899 18.9699 -17.3734 -22.4961 
26.9064 -11.0677 -23.8405 26.9064 -17.3734 -23.3106 34.8429 -10.9836 -23.8405 
34.8429 -17.3734 -23.1332 42.7795 -17.3734 -20.9461 -36.5858 -9.43692 -16.0452 
-28.6493 -9.43692 -18.503 -20.7127 -9.43692 -20.3133 -12.7762 -9.43692 -21.6586 
-4.83969 -9.43692 -22.3569 3.09683 -9.43692 -22.0647 11.0334 -9.43692 -21.4238 
26.2027 -9.43692 -23.8405 18.9699 -9.43692 -22.4282 26.9064 -8.2279 -23.8405 
35.8879 -9.43692 -23.8405 34.8429 -6.24001 -23.8405 42.7795 -9.43692 -22.6342 
50.716 -9.43692 -18.1184 -28.6493 -1.50039 -16.6547 -20.7127 -1.50039 -18.0286 
-12.7762 -1.50039 -20.6111 -4.83969 -1.50039 -20.907 3.09683 -1.50039 -21.9497 
11.0334 -1.50039 -21.501 18.9699 -1.50039 -21.525 26.9064 -1.50039 -23.0336 
34.8429 -1.50039 -23.5913 42.7795 -1.50039 -22.6176 50.716 -1.50039 -18.832 
-28.6493 6.43613 -15.9363 -20.7127 6.43613 -16.7504 -12.7762 6.43613 -19.364 
-4.83969 6.43613 -19.4184 3.09683 6.43613 -20.3044 11.0334 6.43613 -21.0888 
18.9699 6.43613 -20.7579 26.9064 6.43613 -21.8662 34.8429 6.43613 -22.3533 
42.7795 6.43613 -21.443 50.716 6.43613 -17.8069 -20.7127 14.3727 -17.9134 
-12.7762 14.3727 -20.2774 -4.83969 14.3727 -20.3829 3.09683 14.3727 -20.0201 
11.0334 14.3727 -20.2925 18.9699 14.3727 -20.1676 26.9064 14.3727 -20.8839 
34.8429 14.3727 -20.8553 42.7795 14.3727 -19.6844 -20.7127 22.3092 -18.224 
-12.7762 22.3092 -19.4699 -4.83969 22.3092 -19.0612 3.09683 22.3092 -18.1677 
11.0334 22.3092 -18.4396 18.9699 22.3092 -19.1997 26.9064 22.3092 -19.2954 
34.8429 22.3092 -19.0373 42.7795 22.3092 -16.0476 -20.7127 30.2457 -15.9223 
-12.7762 30.2457 -17.0656 -4.83969 30.2457 -16.3175 26.9064 30.2457 -15.9996 
-20.7127 -43.4697 -15.9039 -12.7762 -46.0509 -15.9039 -4.83969 -46.3909 -15.9039 
3.09683 -45.0052 -15.9039 11.0334 -42.3305 -15.9039 -25.2381 -41.183 -15.9039 
-28.6493 -38.556 -15.9039 -28.6493 -41.183 -13.2001 14.1784 -41.183 -15.9039 
18.9699 -39.0473 -15.9039 18.9699 -41.183 -11.8709 26.9064 -36.0829 -15.9039 
-32.8274 -33.2465 -15.9039 -36.5858 -33.2465 -11.62 32.4522 -33.2465 -15.9039 
34.8429 -31.951 -15.9039 34.8429 -33.2465 -13.5562 42.7795 -26.1778 -15.9039 
-36.3869 -25.31 -15.9039 -36.5858 -23.9377 -15.9039 -36.5858 -25.31 -15.7586 
43.6415 -25.31 -15.9039 -37.2639 -17.3734 -15.9039 -44.5223 -17.3734 -8.09379 
50.0303 -17.3734 -15.9039 50.716 -15.6569 -15.9039 50.716 -17.3734 -14.3953 
-36.8471 -9.43692 -15.9039 -44.5223 -9.43692 -10.4332 -36.5858 -8.3857 -15.9039 
52.5844 -9.43692 -15.9039 -44.5223 -1.50039 -10.517 -32.1958 -1.50039 -15.9039 
-36.5858 -1.50039 -14.8888 53.4457 -1.50039 -15.9039 -44.5223 6.43613 -9.90635 
-28.7894 6.43613 -15.9039 -36.5858 6.43613 -13.8212 -28.6493 13.7034 -15.9039 
52.6227 6.43613 -15.9039 50.716 13.3249 -15.9039 -44.5223 14.3727 -8.34399 
-36.5858 14.3727 -13.0773 -28.6359 14.3727 -15.9039 -28.6493 14.3727 -15.9006 
50.2776 14.3727 -15.9039 50.716 14.3727 -15.3412 -36.5858 22.3092 -11.8007 
-27.3568 22.3092 -15.9039 -28.6493 22.3092 -15.4421 3.09683 29.2372 -15.9039 
11.0334 29.0954 -15.9039 18.9699 30.075 -15.9039 34.8429 27.9595 -15.9039 
42.9857 22.3092 -15.9039 42.7795 22.5158 -15.9039 -20.7712 30.2457 -15.9039 
-28.6493 30.2457 -13.1326 -20.7127 30.2811 -15.9039 -12.7762 32.2601 -15.9039 
-0.552689 30.2457 -15.9039 -4.83969 30.9866 -15.9039 3.09683 30.2457 -15.5429 
11.0334 30.2457 -15.4353 22.4607 30.2457 -15.9039 18.9699 30.2457 -15.8208 
27.4155 30.2457 -15.9039 26.9064 30.3747 -15.9039 34.8429 30.2457 -13.9494 
-20.7127 38.1822 -10.4634 -12.7762 38.1822 -11.5871 -4.83969 38.1822 -11.065 
3.09683 38.1822 -9.84481 11.0334 38.1822 -9.09165 18.9699 38.1822 -8.26407 
-28.6493 -44.0395 -7.96742 -20.7127 -47.8468 -7.96742 -12.7762 -49.0862 -7.96742 
-4.83969 -49.0484 -7.96742 3.09683 -47.7894 -7.96742 11.0334 -45.6812 -7.96742 
18.9699 -42.5389 -7.96742 -32.5775 -41.183 -7.96742 -36.5858 -36.7368 -7.96742 
22.4487 -41.183 -7.96742 26.9064 -39.4077 -7.96742 34.8429 -35.6869 -7.96742 
-38.9911 -33.2465 -7.96742 38.753 -33.2465 -7.96742 42.7795 -30.2987 -7.96742 
-42.4191 -25.31 -7.96742 -44.5223 -17.6996 -7.96742 47.6675 -25.31 -7.96742 
50.716 -20.8826 -7.96742 -44.6112 -17.3734 -7.96742 52.7395 -17.3734 -7.96742 
-46.5474 -9.43692 -7.96742 55.2558 -9.43692 -7.96742 -47.0779 -1.50039 -7.96742 
56.2841 -1.50039 -7.96742 -46.6443 6.43613 -7.96742 55.9745 6.43613 -7.96742 
-44.9609 14.3727 -7.96742 -44.5223 15.4205 -7.96742 53.6359 14.3727 -7.96742 
50.716 20.158 -7.96742 -41.27 22.3092 -7.96742 -44.5223 22.3092 -3.6764 
-36.5858 29.4032 -7.96742 49.5039 22.3092 -7.96742 42.7795 29.9933 -7.96742 
-35.979 30.2457 -7.96742 -36.5858 30.2457 -7.15291 -28.6493 36.3647 -7.96742 
26.9064 37.362 -7.96742 42.4124 30.2457 -7.96742 34.8429 34.9432 -7.96742 
42.7795 30.2457 -5.26835 -25.3034 38.1822 -7.96742 -28.6493 38.1822 -4.83181 
-20.7127 40.2243 -7.96742 -12.7762 41.5232 -7.96742 -4.83969 41.1261 -7.96742 
3.09683 39.8937 -7.96742 11.0334 39.0829 -7.96742 20.5452 38.1822 -7.96742 
18.9699 38.392 -7.96742 26.9064 38.1822 -5.61432 -28.6493 -44.262 -0.030894 
-20.7127 -47.5573 -0.030894 -12.7762 -48.4212 -0.030894 -4.83969 -47.9932 -0.030894 
3.09683 -46.3478 -0.030894 11.0334 -43.7733 -0.030894 18.9699 -41.3571 -0.030894 
-33.1988 -41.183 -0.030894 -36.5858 -38.0378 -0.030894 -28.6493 -41.183 6.28937 
3.09683 -41.183 6.8086 11.0334 -41.183 3.53256 19.4472 -41.183 -0.030894 
18.9699 -41.183 0.237996 26.9064 -38.1875 -0.030894 34.8429 -34.5234 -0.030894 
-40.3049 -33.2465 -0.030894 26.9064 -33.2465 7.09946 36.976 -33.2465 -0.030894 
34.8429 -33.2465 1.96257 42.7795 -28.9227 -0.030894 -44.3706 -25.31 -0.030894 
-44.5223 -24.9134 -0.030894 46.1227 -25.31 -0.030894 42.7795 -25.31 4.4244 
50.716 -18.8766 -0.030894 -47.321 -17.3734 -0.030894 51.5297 -17.3734 -0.030894 
50.716 -17.3734 1.26305 -49.8776 -9.43692 -0.030894 53.1744 -9.43692 -0.030894 
50.716 -9.43692 3.37009 -51.6344 -1.50039 -0.030894 53.8194 -1.50039 -0.030894 
50.716 -1.50039 4.05101 -51.7603 6.43613 -0.030894 53.4497 6.43613 -0.030894 
50.716 6.43613 3.41205 -50.2256 14.3727 -0.030894 51.2674 14.3727 -0.030894 
50.716 16.0613 -0.030894 50.716 14.3727 0.743982 -46.6736 22.3092 -0.030894 
-44.5223 25.5886 -0.030894 48.3328 22.3092 -0.030894 42.7795 22.3092 6.83656 
-40.9786 30.2457 -0.030894 -36.5858 34.5373 -0.030894 34.8429 36.7954 -0.030894 
43.2964 30.2457 -0.030894 42.7795 30.7659 -0.030894 42.7795 30.2457 0.724832 
-32.0237 38.1822 -0.030894 -28.6493 40.514 -0.030894 -20.7127 43.9725 -0.030894 
-12.7762 45.4505 -0.030894 -4.83969 45.3131 -0.030894 3.09683 44.2411 -0.030894 
11.0334 42.9532 -0.030894 18.9699 41.7387 -0.030894 31.7134 38.1822 -0.030894 
26.9064 40.1098 -0.030894 -12.7762 46.1188 6.35444 -4.83969 46.1188 6.20601 
-20.7127 -42.9156 7.90563 -12.7762 -43.5335 7.90563 -4.83969 -42.6688 7.90563 
-36.5858 -33.8432 7.90563 -26.1084 -41.183 7.90563 -28.6493 -40.1555 7.90563 
-20.7127 -41.183 9.77442 -12.7762 -41.183 10.2698 0.0264014 -41.183 7.90563 
-4.83969 -41.183 9.28884 3.09683 -39.9322 7.90563 11.0334 -36.632 7.90563 
18.9699 -34.2599 7.90563 -37.0995 -33.2465 7.90563 -36.5858 -33.2465 8.49951 
-28.6493 -33.2465 13.7264 -20.7127 -33.2465 15.4458 -12.7762 -33.2465 14.9602 
-4.83969 -33.2465 13.5713 3.09683 -33.2465 12.0025 11.0334 -33.2465 10.1078 
23.6434 -33.2465 7.90563 18.9699 -33.2465 8.72832 26.9064 -32.3944 7.90563 
34.8429 -28.0422 7.90563 -42.2015 -25.31 7.90563 -44.5223 -21.2612 7.90563 
-36.5858 -25.31 14.0786 3.09683 -25.31 14.1802 11.0334 -25.31 13.237 
18.9699 -25.31 12.9118 26.9064 -25.31 12.1775 38.5605 -25.31 7.90563 
34.8429 -25.31 9.9459 42.7795 -20.5323 7.90563 -46.4171 -17.3734 7.90563 
-44.5223 -17.3734 11.1889 11.0334 -17.3734 15.4836 18.9699 -17.3734 15.4293 
26.9064 -17.3734 15.0096 34.8429 -17.3734 13.1956 44.6738 -17.3734 7.90563 
42.7795 -17.3734 9.3494 -49.6922 -9.43692 7.90563 34.8429 -9.43692 14.5339 
46.2627 -9.43692 7.90563 42.7795 -9.43692 10.5837 -51.7269 -1.50039 7.90563 
34.8429 -1.50039 14.7074 46.7007 -1.50039 7.90563 42.7795 -1.50039 10.8762 
-52.4239 6.43613 7.90563 34.8429 6.43613 14.8138 46.0739 6.43613 7.90563 
42.7795 6.43613 10.4374 -51.0901 14.3727 7.90563 34.8429 14.3727 14.8694 
45.2466 14.3727 7.90563 42.7795 20.3763 7.90563 42.7795 14.3727 10.1537 
-47.3591 22.3092 7.90563 -44.5223 26.3514 7.90563 -44.5223 22.3092 14.9359 
41.9058 22.3092 7.90563 34.8429 22.3092 14.2262 -41.2398 30.2457 7.90563 
-36.5858 34.5473 7.90563 38.4349 30.2457 7.90563 34.8429 34.1748 7.90563 
34.8429 30.2457 11.9743 -31.9873 38.1822 7.90563 -28.6493 40.4676 7.90563 
-28.6493 38.1822 13.6534 -20.7127 44.4346 7.90563 3.09683 45.4745 7.90563 
11.0334 44.1036 7.90563 18.9699 42.447 7.90563 29.3167 38.1822 7.90563 
26.9064 39.6123 7.90563 26.9064 38.1822 10.6805 -13.4838 46.1188 7.90563 
-12.7762 46.2718 7.90563 -12.7762 46.1188 8.62237 -2.91853 46.1188 7.90563 
-4.83969 46.322 7.90563 -4.83969 46.1188 9.03665 -28.6493 -29.1851 15.8422 
-20.7127 -32.3713 15.8422 -12.7762 -30.7903 15.8422 -4.83969 -25.9771 15.8422 
-33.045 -25.31 15.8422 -36.5858 -22.2188 15.8422 -28.6493 -25.31 17.5767 
[...]
POINT_DATA 510
SCALARS ImageScalars float
LOOKUP_TABLE default
0 0 0 0 0 0 0 0 0 
0 0 0 0 0 0 0 0 0 
0 0 0 0 0 0 0 0 0 
0 0 0 0 0 0 0 0 0 
0 0 0 0 0 0 0 0 0 
0 0 0 0 0 0 0 0 0 
0 0 0 0 0 0 0 0 0 
0 0 0 0 0 0 0 0 0 
0 0 0 0 0 0 0 0 0 
0 0 0 0 0 0 0 0 0 
0 0 0 0 0 0 0 0 0 
0 0 0 0 0 0 0 0 0 
0 0 0 0 0 0 0 0 0 
0 0 0 0 0 0 0 0 0 
0 0 0 0 0 0 0 0 0 
0 0 0 0 0 0 0 0 0 
0 0 0 0 0 0 0 0 0 
0 0 0 0 0 0 0 0 0 
0 0 0 0 0 0 0 0 0 
0 0 0 0 0 0 0 0 0 
0 0 0 0 0 0 0 0 0 
0 0 0 0 0 0 0 0 0 
0 0 0 0 0 0 0 0 0 
0 0 0 0 0 0 0 0 0 
0 0 0 0 0 0 0 0 0 
0 0 0 0 0 0 0 0 0 
0 0 0 0 0 0 0 0 0 
0 0 0 0 0 0 0 0 0 
0 0 0 0 0 0 0 0 0 
0 0 0 0 0 0 0 0 0 
0 0 0 0 0 0 0 0 0 
0 0 0 0 0 0 0 0 0 
0 0 0 0 0 0 0 0 0 
0 0 0 0 0 0 0 0 0 
0 0 0 0 0 0 0 0 0 
0 0 0 0 0 0 0 0 0 
0 0 0 0 0 0 0 0 0 
0 0 0 0 0 0 0 0 0 
0 0 0 0 0 0 0 0 0 
0 0 0 0 0 0 0 0 0 
0 0 0 0 0 0 0 0 0 
0 0 0 0 0 0 0 0 0 
0 0 0 0 0 0 0 0 0 
0 0 0 0 0 0 0 0 0 
0 0 0 0 0 0 0 0 0 
0 0 0 0 0 0 0 0 0 
0 0 0 0 0 0 0 0 0 
0 0 0 0 0 0 0 0 0 
0 0 0 0 0 0 0 0 0 
0 0 0 0 0 0 0 0 0 
0 0 0 0 0 0 0 0 0 
0 0 0 0 0 0 0 0 0 
0 0 0 0 0 0 0 0 0 
0 0 0 0 0 0 0 0 0 
0 0 0 0 0 0 0 0 0 
0 0 0 0 0 0 0 0 0 
0 0 0 0 0 0 
NORMALS Normals float
0.0980553 -0.014515 0.995075 -0.0777151 0.0279147 0.996585 0.308073 0.563625 0.766432 
0.155075 0.50929 0.846508 -0.0365675 0.494369 0.868483 -0.189752 0.543941 0.817387 
-0.29054 0.663631 0.689333 0.437609 0.292059 0.850412 0.236936 0.245847 0.939904 
0.125032 0.171956 0.977138 -0.0151753 0.126221 0.991886 -0.139303 0.162278 0.976863 
-0.120536 0.263647 0.957059 -0.151723 0.415648 0.896782 -0.269698 0.600271 0.752953 
0.377011 0.062442 0.924102 0.166857 0.0252345 0.985658 0.0301054 -0.0217302 0.99931 
-0.045259 -0.0638856 0.99693 -0.0502945 -0.0464045 0.997656 -0.0254324 0.0413676 0.99882 
-0.012253 0.116421 0.993124 -0.0562194 0.274016 0.960081 -0.243465 0.416384 0.875985 
-0.580927 0.57808 0.573016 0.519462 0.0116088 0.854415 0.309282 -0.0910769 0.946599 
0.161092 -0.125276 0.978956 0.0340123 -0.0862671 0.995691 -0.0433019 -0.0330213 0.998516 
-0.0320405 -0.0165546 0.999349 0.0548332 -0.041436 0.997635 0.100858 0.0345389 0.994301 
0.0867012 0.0158399 0.996108 0.0401147 0.132663 0.990349 -0.0884812 0.057183 0.994435 
-0.133105 0.180139 0.974594 -0.398274 0.281845 0.872893 0.411642 -0.0862843 0.907252 
0.256766 -0.179109 0.949732 0.190953 -0.217053 0.957301 0.123909 -0.102648 0.98697 
0.0268373 -0.0737118 0.996918 -0.0600733 0.0210376 0.997972 0.0246609 -0.0112828 0.999632 
0.103831 -0.0185349 0.994422 0.161617 -0.0610108 0.984966 0.103239 -0.0324358 0.994128 
-0.103494 0.0364656 0.993961 -0.056779 -0.0249036 0.998076 -0.296829 0.0979453 0.949894 
-0.719588 0.168751 0.673584 0.186946 -0.158671 0.969471 0.237647 -0.22087 0.945907 
0.180152 -0.143458 0.973121 0.0812789 -0.189926 0.978428 0.0338511 -0.109979 0.993357 
-0.0242545 -0.019836 0.999509 0.0917973 -0.10551 0.990172 0.130622 -0.134386 0.982282 
-0.024316 -0.102808 0.994404 -0.248662 -0.0711319 0.965975 -0.65749 -0.0183637 0.753239 
0.167703 -0.0445203 0.984832 0.204234 -0.00945874 0.978876 0.174497 -0.0189089 0.984476 
0.0568788 -0.0272882 0.998008 0.105522 -0.117486 0.987452 0.0257905 -0.0783691 0.996591 
0.049973 -0.0852878 0.995102 0.0989598 -0.133513 0.986094 -0.022045 -0.177171 0.983933 
-0.235615 -0.184341 0.954203 -0.639909 -0.181535 0.7467 0.268252 0.0916563 0.958979 
0.145826 0.00272096 0.989306 -0.016451 -0.0237204 0.999583 -0.0051708 -0.130732 0.991404 
0.00912923 -0.155378 0.987813 0.0394359 -0.0945982 0.994734 0.0418923 -0.157812 0.98658 
-0.0713646 -0.202845 0.976607 -0.290974 -0.27994 0.91486 0.241111 -0.114755 0.963689 
0.0499403 -0.194841 0.979563 -0.0801806 -0.239979 0.967461 -0.0386656 -0.267996 0.962644 
0.0623271 -0.29081 0.954749 0.0509467 -0.248497 0.967292 -0.0105069 -0.291181 0.95661 
-0.160851 -0.354022 0.921301 -0.456492 -0.48832 0.743746 0.214318 -0.379337 0.900095 
0.0219704 -0.402794 0.915027 -0.0893752 -0.419048 0.903554 -0.0739184 -0.537446 0.840052 
0.312923 0.669933 0.673252 0.142525 0.786001 0.601572 -0.0556572 0.825334 0.561895 
-0.215062 0.780657 0.586791 -0.299755 0.720139 0.625738 0.418381 0.603375 0.678893 
0.488968 0.50818 0.708988 0.519984 0.680755 0.515936 -0.301784 0.720489 0.624358 
-0.279442 0.710819 0.645484 -0.347806 0.878944 0.326327 -0.322263 0.72335 0.610664 
0.579729 0.341553 0.739767 0.752817 0.435645 0.493437 -0.388608 0.722222 0.572171 
-0.417057 0.712544 0.56422 -0.451182 0.795482 0.404529 -0.591455 0.606163 0.53174 
0.608137 0.16947 0.775531 0.598983 0.144539 0.787609 0.617185 0.174709 0.767176 
-0.609358 0.590076 0.529616 0.541753 0.0235924 0.840206 0.853659 0.225313 0.469576 
-0.749939 0.400375 0.526585 -0.774508 0.356687 0.52241 -0.805613 0.412654 0.425093 
0.419661 -0.0820287 0.903967 0.74009 0.0987709 0.665215 0.401149 -0.091311 0.91145 
-0.812283 0.187323 0.552365 0.636059 -0.0302525 0.771047 0.249131 -0.14258 0.957917 
0.336877 -0.123071 0.933471 -0.801284 0.0067697 0.598246 0.603096 -0.114947 0.789343 
0.17071 -0.0457545 0.984258 0.348854 -0.106289 0.93113 0.277809 -0.0308207 0.960142 
-0.737854 -0.182595 0.649793 -0.695559 -0.338578 0.63369 0.650173 -0.236229 0.72213 
0.41072 -0.103249 0.905897 0.288021 -0.0293026 0.957176 0.288049 -0.0295057 0.957161 
-0.677856 -0.359434 0.641342 -0.719819 -0.366802 0.589335 0.532091 -0.274094 0.801094 
0.323193 -0.137681 0.936264 0.34214 -0.145581 0.928303 -0.0482024 -0.398599 0.915858 
0.0220901 -0.430285 0.902423 0.0320523 -0.495063 0.868266 -0.253175 -0.579337 0.774772 
-0.463832 -0.491134 0.737325 -0.458951 -0.493084 0.739075 0.215744 -0.379538 0.89967 
0.419081 -0.441278 0.793502 0.214427 -0.380521 0.899569 0.0175776 -0.46716 0.883998 
-0.0674083 -0.419431 0.905281 -0.088573 -0.439649 0.893792 -0.0497245 -0.422457 0.905018 
0.0141519 -0.460373 0.887613 -0.0161733 -0.518096 0.85517 0.030939 -0.501531 0.864586 
-0.0867007 -0.546241 0.833129 -0.0756245 -0.54253 0.836626 -0.312094 -0.683332 0.660042 
0.240453 -0.72199 0.648778 0.0237924 -0.703025 0.710767 -0.0838266 -0.689433 0.719482 
-0.0939143 -0.722052 0.685435 -0.0680588 -0.781147 0.620626 -0.0957144 -0.843667 0.528265 
0.52163 0.825357 0.216073 0.291405 0.93744 0.190496 0.0682332 0.991796 0.108095 
-0.0793517 0.994119 0.0736993 -0.209856 0.97595 0.0590118 -0.312114 0.948374 0.0563196 
-0.362058 0.928618 0.0811386 0.630603 0.73548 0.247809 0.765416 0.570474 0.297822 
-0.370992 0.924942 0.082755 -0.391955 0.915905 0.086536 -0.480996 0.869777 0.110143 
0.821053 0.470443 0.323349 -0.549212 0.828491 0.109401 -0.653436 0.749701 0.104735 
0.869395 0.2948 0.396543 0.856809 0.229155 0.461917 -0.772506 0.628632 0.0897563 
-0.858438 0.50737 0.0752271 0.856003 0.226772 0.46458 -0.905344 0.420109 0.0621407 
0.817227 0.139237 0.559243 -0.978144 0.206385 0.0253087 0.75114 0.00872798 0.660085 
-0.998967 0.0442293 0.0104082 0.697306 -0.100131 0.709746 -0.985605 -0.167028 0.0261612 
0.665416 -0.236824 0.707909 0.661173 -0.256826 0.704905 -0.929635 -0.366013 0.0425849 
-0.864063 -0.489293 0.118267 0.649032 -0.360104 0.670136 0.779744 -0.438061 0.447327 
0.622292 -0.50264 0.600088 -0.822329 -0.545397 0.162226 -0.619358 -0.731892 0.284129 
0.613771 -0.522647 0.591714 0.636062 -0.541713 0.54952 0.44806 -0.687961 0.570922 
-0.178599 -0.870133 0.459315 -0.60965 -0.736908 0.29205 -0.370688 -0.837545 0.401384 
-0.676922 -0.725845 0.122171 0.364149 -0.747679 0.555312 0.471534 -0.781097 0.409322 
0.246303 -0.794137 0.555591 0.0487659 -0.810416 0.583821 -0.0851576 -0.786757 0.611361 
-0.10926 -0.781266 0.614561 -0.0798872 -0.809705 0.581374 -0.114503 -0.856116 0.503939 
-0.098033 -0.850465 0.516817 -0.212222 -0.912392 0.350004 0.46234 0.867976 -0.181271 
0.23651 0.933494 -0.26954 0.0231074 0.955129 -0.295288 -0.116259 0.936728 -0.33019 
-0.234808 0.896389 -0.375969 -0.290303 0.86409 -0.411183 -0.301102 0.877638 -0.372946 
0.605461 0.7782 -0.166798 0.732241 0.669481 -0.124972 0.416252 0.760926 -0.497721 
-0.246511 0.681156 -0.689391 -0.271983 0.771691 -0.574907 -0.304087 0.877667 -0.370447 
-0.29858 0.873042 -0.385549 -0.35996 0.870372 -0.335978 -0.449509 0.832289 -0.324401 
0.831466 0.549246 -0.0836268 -0.258854 0.680134 -0.685866 -0.493522 0.809437 -0.318195 
-0.438751 0.799712 -0.409826 -0.658308 0.681653 -0.319342 0.922946 0.384929 -0.000815139 
0.924965 0.380016 0.00529858 -0.733246 0.59328 -0.332219 -0.631885 0.552628 -0.543436 
-0.845252 0.395434 -0.359417 0.943801 0.316194 0.0962348 -0.862741 0.348263 -0.366594 
-0.842456 0.338742 -0.418953 0.95188 0.250267 0.176894 -0.883826 0.141061 -0.446042 
-0.80947 0.113346 -0.576117 0.961439 0.113651 0.250438 -0.87548 0.0164094 -0.482975 
-0.7775 0.000286901 -0.628883 0.95103 -0.0765546 0.299467 -0.858223 -0.146792 -0.491838 
-0.779219 -0.135823 -0.611857 0.91423 -0.27681 0.295905 -0.861418 -0.251814 -0.441077 
-0.862736 -0.279041 -0.421691 -0.850884 -0.241783 -0.466409 0.841894 -0.470582 0.264135 
0.803444 -0.541355 0.247815 -0.842096 -0.414243 -0.345366 -0.694178 -0.360985 -0.622741 
0.729629 -0.650774 0.210085 0.658694 -0.729568 0.183992 -0.498154 -0.866701 -0.025922 
-0.740714 -0.633771 -0.222885 -0.727698 -0.649673 -0.219956 -0.73756 -0.621637 -0.263767 
0.562128 -0.806707 0.182304 0.490255 -0.8513 0.186917 0.271898 -0.934534 0.229605 
0.0757091 -0.964019 0.254825 -0.0700562 -0.958697 0.275667 -0.143596 -0.941795 0.303977 
-0.145792 -0.947882 0.283308 -0.163682 -0.961005 0.222883 -0.395124 -0.917653 0.0422994 
-0.272422 -0.953871 0.126161 0.104258 -0.994548 0.00215864 -0.0539638 -0.998006 0.0327516 
0.159235 0.770282 -0.617503 -0.00985106 0.748364 -0.663215 -0.159446 0.689464 -0.706552 
0.639164 0.593599 -0.488987 0.320413 0.738123 -0.593725 0.394994 0.711533 -0.58112 
0.150218 0.711392 -0.686554 -0.0276995 0.660093 -0.750673 -0.215484 0.653639 -0.725481 
-0.164993 0.630115 -0.75877 -0.238538 0.620031 -0.747437 -0.222522 0.566002 -0.793805 
-0.167642 0.60562 -0.777895 0.653254 0.579907 -0.486792 0.634351 0.578009 -0.513327 
0.31247 0.523781 -0.792474 0.0553662 0.464629 -0.883773 -0.107306 0.402226 -0.90923 
-0.171529 0.373136 -0.911782 -0.19729 0.375288 -0.905669 -0.183344 0.461834 -0.86781 
-0.210158 0.630159 -0.747485 -0.152882 0.576324 -0.802794 -0.239494 0.639933 -0.730156 
-0.374387 0.580761 -0.722877 0.781007 0.46414 -0.417854 0.834871 0.428581 -0.345411 
0.517773 0.433347 -0.737646 -0.167136 0.240206 -0.956225 -0.0765209 0.312032 -0.946985 
-0.0623135 0.379303 -0.923172 -0.156566 0.42974 -0.889275 -0.45933 0.510296 -0.727058 
-0.348172 0.485176 -0.80211 -0.576465 0.354448 -0.736244 0.866507 0.396744 -0.302918 
0.788656 0.409809 -0.458343 -0.0410964 0.292631 -0.955342 -0.0294922 0.250849 -0.967577 
-0.134292 0.243327 -0.960603 -0.321174 0.240539 -0.915963 -0.61918 0.262852 -0.739949 
-0.554587 0.256818 -0.791504 0.921338 0.325742 -0.212198 -0.318835 0.091118 -0.94342 
-0.636368 0.0859963 -0.766577 -0.53043 0.0836304 -0.843594 0.97637 0.154804 -0.150787 
-0.358686 0.0158434 -0.933324 -0.636582 -0.00772604 -0.77117 -0.529058 -0.00771918 -0.848551 
0.995135 -0.0354612 -0.0919124 -0.426616 0.00922258 -0.904386 -0.635047 -0.0683143 -0.769447 
-0.553407 -0.0391814 -0.831989 0.955548 -0.278491 -0.096799 -0.485342 -0.0294348 -0.873829 
-0.669407 -0.167202 -0.723835 -0.666732 -0.301663 -0.681519 -0.604112 -0.150963 -0.78247 
0.84986 -0.515797 -0.108131 0.790901 -0.597434 -0.132469 0.73255 -0.514785 -0.445384 
-0.672872 -0.327992 -0.663072 -0.571064 -0.134453 -0.80982 0.716113 -0.681142 -0.152408 
0.647069 -0.74471 -0.163427 -0.690139 -0.479308 -0.542192 -0.623567 -0.638741 -0.450749 
-0.645142 -0.432003 -0.63021 0.571934 -0.804566 -0.159892 0.514054 -0.843251 -0.157085 
0.510145 -0.759185 -0.404216 0.329064 -0.937577 -0.112546 -0.141809 -0.989458 -0.0293808 
-0.186054 -0.981725 -0.0400069 -0.265236 -0.955905 -0.126076 -0.496447 -0.813991 -0.301594 
-0.444562 -0.858011 -0.257259 -0.48411 -0.783293 -0.389986 0.128278 -0.989855 -0.0610885 
0.109797 -0.992343 -0.056571 0.114389 -0.989475 -0.0886194 -0.0714878 -0.997019 -0.0290265 
-0.0489852 -0.998364 -0.0294779 -0.0482959 -0.995514 -0.0813631 0.267008 0.426385 -0.864235 
0.0478738 0.443875 -0.894809 -0.126383 0.362118 -0.923525 -0.209791 0.256297 -0.943557 
0.37642 0.39496 -0.838042 0.450933 0.40331 -0.796241 0.242592 0.354439 -0.903062 
0.00495574 0.303848 -0.952708 -0.15754 0.286498 -0.94504 -0.207789 0.246644 -0.946568 
-0.212943 0.247921 -0.945088 -0.145645 0.30164 -0.942232 0.53967 0.397383 -0.742188 
0.657561 0.386591 -0.646653 0.387027 0.372732 -0.843375 0.144617 0.285975 -0.947261 
-0.0223856 0.233367 -0.972131 -0.155887 0.253031 -0.954816 -0.222682 0.295515 -0.929023 
-0.0993109 0.304078 -0.947457 -0.143527 0.311738 -0.939265 -0.052973 0.298012 -0.953091 
-0.0485826 0.244199 -0.968507 -0.147701 0.177223 -0.973024 0.669738 0.381081 -0.63736 
0.64371 0.379919 -0.664303 0.295471 0.319731 -0.900261 0.0797682 0.267848 -0.960153 
-0.0305183 0.193026 -0.980719 -0.0845601 0.199266 -0.97629 -0.167937 0.29461 -0.940746 
-0.160264 0.28395 -0.945351 -0.121343 0.331636 -0.935571 -0.111871 0.231445 -0.966394 
-0.20009 0.127086 -0.9715 -0.157556 0.140287 -0.977495 0.780443 0.232508 -0.580386 
0.587488 0.237646 -0.773551 0.254954 0.237596 -0.937308 -0.0957941 0.148712 -0.98423 
-0.0433156 0.141928 -0.988929 -0.115945 0.264497 -0.957391 -0.121953 0.304562 -0.944653 
-0.102794 0.246801 -0.963599 -0.228555 0.228372 -0.946366 -0.316786 0.0550024 -0.946901 
-0.272 0.111804 -0.95578 0.857259 -0.0158248 -0.514642 0.575128 0.0106319 -0.817995 
-0.185347 0.0424443 -0.981756 -0.241777 0.101742 -0.964983 -0.402752 0.0341693 -0.914671 
-0.35549 0.0900393 -0.930333 0.818206 -0.274229 -0.505309 0.717984 -0.490817 -0.493556 
0.654171 -0.257061 -0.711323 -0.200149 -0.00859241 -0.979728 -0.134932 0.00282531 -0.990851 
-0.172048 0.0283171 -0.984682 -0.462719 -0.0123353 -0.886419 -0.37148 0.0312166 -0.927916 
0.703835 -0.509452 -0.49505 0.388401 -0.393835 -0.83309 -0.153496 0.017531 -0.987994 
-0.202679 -0.0350689 -0.978617 -0.517931 -0.110686 -0.848231 -0.414791 -0.0861698 -0.905827 
0.586311 -0.626433 -0.513635 0.58232 -0.629536 -0.514381 0.578222 -0.623196 -0.52658 
0.494657 -0.701677 -0.5128 0.364279 -0.440524 -0.820512 -0.178224 -0.154543 -0.971778 
-0.182743 -0.133307 -0.974081 -0.277648 -0.241192 -0.929913 -0.52047 -0.331392 -0.78695 
-0.490206 -0.438852 -0.753065 -0.455919 -0.302769 -0.83694 0.473115 -0.72192 -0.504969 
0.360856 -0.790764 -0.494445 0.331362 -0.620615 -0.710659 0.153587 -0.869993 -0.468534 
0.111572 -0.528297 -0.841697 -0.0390802 -0.890678 -0.452951 -0.0509713 -0.509945 -0.858696 
-0.152575 -0.859621 -0.487619 -0.139973 -0.512175 -0.847398 -0.249574 -0.806711 -0.535659 
-0.241627 -0.566716 -0.787686 -0.38616 -0.668447 -0.635656 -0.356471 -0.696361 -0.622905 
-0.354403 -0.655707 -0.666669 0.036511 0.217206 -0.975443 0.208417 0.228604 -0.950948 
0.250206 0.211567 -0.944794 -0.0936692 0.149428 -0.984326 0.00771716 0.182429 -0.983189 
-0.0953913 0.147858 -0.984397 -0.00038409 0.12476 -0.992187 -0.081184 0.214777 -0.973283 
-0.184161 0.140914 -0.972742 0.341414 0.0382343 -0.939135 0.226237 0.0509872 -0.972737 
-0.0174379 0.0483141 -0.99868 -0.0712485 0.101143 -0.992317 0.0261905 0.113919 -0.993145 
-0.0118575 0.109306 -0.993937 -0.187967 0.118242 -0.975032 -0.192474 0.0856303 -0.977559 
-0.188172 0.127159 -0.97387 0.326944 -0.169581 -0.929704 0.303818 -0.220157 -0.926944 
0.276318 -0.163205 -0.947107 0.0583503 -0.064003 -0.996242 -0.032473 0.0367317 -0.998797 
-0.0288658 0.0791613 -0.996444 -0.173849 -0.010834 -0.984713 -0.0960845 -0.0188883 -0.995194 
-0.170895 0.00923206 -0.985246 0.237763 -0.251905 -0.93809 0.226795 -0.26106 -0.938302 
0.183614 -0.200927 -0.962244 0.0719471 -0.098644 -0.992518 -0.029624 -0.0147584 -0.999452 
-0.101693 0.00124181 -0.994815 -0.16637 0.0119641 -0.985991 -0.169658 -0.0238693 -0.985214 
-0.166496 0.0117698 -0.985972 0.159251 -0.279285 -0.94691 0.153543 -0.278993 -0.947939 
0.149784 -0.271749 -0.95064 0.0749259 -0.294526 -0.952702 0.0671783 -0.195432 -0.978414 
-0.16241 -0.15529 -0.974427 -0.0629515 -0.297407 -0.952673 -0.0706773 -0.155813 -0.985255 

