# vtk DataFile Version 4.2
vtk output
ASCII
DATASET POLYDATA
POINTS 546 float
-28.4434 -38.8679 -15.2511 -20.4754 -38.8679 -16.277 -12.5075 -38.8679 -16.8886 
-4.5395 -38.8679 -15.7286 3.42846 -38.8679 -14.8834 11.3964 -38.8679 -14.4866 
19.3644 -38.8679 -14.0361 -44.3793 -30.9 -13.9578 -36.4113 -30.9 -17.2702 
-28.4434 -30.9 -18.5781 -20.4754 -30.9 -19.0066 -12.5075 -30.9 -18.527 
-4.5395 -30.9 -18.2498 3.42846 -30.9 -18.194 11.3964 -30.9 -18.1048 
19.3644 -30.9 -18.4024 27.3323 -30.9 -17.9368 35.3003 -30.9 -17.5727 
43.2682 -30.9 -13.6596 -44.3793 -22.932 -17.4135 -36.4113 -22.932 -18.9272 
-28.4434 -22.932 -19.9967 -20.4754 -22.932 -19.1772 -12.5075 -22.932 -18.5049 
-4.5395 -22.932 -18.5718 3.42846 -22.932 -18.8931 11.3964 -22.932 -18.8871 
19.3644 -22.932 -19.0846 27.3323 -22.932 -19.8896 35.3003 -22.932 -19.0124 
43.2682 -22.932 -18.3721 51.2362 -22.932 -15.4777 -52.3472 -14.9641 -14.9514 
-44.3793 -14.9641 -18.7748 -36.4113 -14.9641 -19.5788 -28.4434 -14.9641 -19.201 
-20.4754 -14.9641 -18.0522 -12.5075 -14.9641 -17.1237 -4.5395 -14.9641 -17.8504 
3.42846 -14.9641 -18.8803 11.3964 -14.9641 -17.924 19.3644 -14.9641 -18.0057 
27.3323 -14.9641 -19.3132 35.3003 -14.9641 -20.5428 43.2682 -14.9641 -19.7732 
51.2362 -14.9641 -18.6296 59.2041 -14.9641 -13.7563 -52.3472 -6.9961 -15.7151 
-44.3793 -6.9961 -20.0194 -36.4113 -6.9961 -20.1877 -28.4434 -6.9961 -19.0492 
-20.4754 -6.9961 -17.4426 -12.5075 -6.9961 -16.7027 -4.5395 -6.9961 -19.0215 
3.42846 -6.9961 -19.2236 11.3964 -6.9961 -16.6327 19.3644 -6.9961 -16.8957 
27.3323 -6.9961 -19.3905 35.3003 -6.9961 -20.4422 43.2682 -6.9961 -20.7652 
51.2362 -6.9961 -20.1864 59.2041 -6.9961 -17.6545 -52.3472 0.971854 -16.1463 
-44.3793 0.971854 -19.1467 -36.4113 0.971854 -20.7563 -28.4434 0.971854 -19.4908 
-20.4754 0.971854 -17.614 -12.5075 0.971854 -19.429 -4.5395 0.971854 -17.6717 
3.42846 0.971854 -16.4651 11.3964 0.971854 -16.962 19.3644 0.971854 -16.5857 
27.3323 0.971854 -18.9844 35.3003 0.971854 -20.1214 43.2682 0.971854 -20.5571 
51.2362 0.971854 -19.81 59.2041 0.971854 -17.0578 -52.3472 8.93981 -15.083 
-44.3793 8.93981 -19.4481 -36.4113 8.93981 -20.3199 -28.4434 8.93981 -19.789 
-20.4754 8.93981 -18.953 -12.5075 8.93981 -19.1542 -4.5395 8.93981 -18.452 
3.42846 8.93981 -17.7122 11.3964 8.93981 -13.1612 19.3644 8.93981 -14.9237 
27.3323 8.93981 -17.2655 35.3003 8.93981 -18.8346 43.2682 8.93981 -19.0986 
51.2362 8.93981 -17.9919 59.2041 8.93981 -14.5274 -44.3793 16.9078 -17.3242 
-36.4113 16.9078 -18.9456 -28.4434 16.9078 -19.2767 -20.4754 16.9078 -19.0966 
-12.5075 16.9078 -18.8228 -4.5395 16.9078 -17.6389 3.42846 16.9078 -15.6494 
11.3964 16.9078 -14.1027 19.3644 16.9078 -14.0307 27.3323 16.9078 -15.2458 
35.3003 16.9078 -16.6012 43.2682 16.9078 -15.9504 51.2362 16.9078 -14.3505 
-44.3793 24.8757 -13.8133 -36.4113 24.8757 -17.2617 -28.4434 24.8757 -18.1338 
-20.4754 24.8757 -18.4949 -12.5075 24.8757 -18.0018 -4.5395 24.8757 -16.3355 
3.42846 24.8757 -15.0127 11.3964 24.8757 -14.9541 19.3644 24.8757 -13.7564 
27.3323 24.8757 -13.6667 35.3003 24.8757 -13.6591 -28.4434 32.8437 -15.0282 
-20.4754 32.8437 -15.8671 -12.5075 32.8437 -15.5683 -4.5395 32.8437 -14.4608 
3.42846 32.8437 -13.6608 11.3964 32.8437 -13.0457 -28.4434 -41.5942 -12.8255 
-20.4754 -42.7 -12.8255 -12.5075 -43.2781 -12.8255 -12.5075 -46.8359 -5.37043 
-4.5395 -42.6358 -12.8255 3.42846 -41.2701 -12.8255 11.3964 -40.2928 -12.8255 
19.3644 -39.859 -12.8255 -44.3793 -32.4416 -12.8255 -34.8057 -38.8679 -12.8255 
-36.4113 -37.8924 -12.8255 -36.4113 -38.8679 -11.256 25.8413 -38.8679 -12.8255 
27.3323 -38.5665 -12.8255 27.3323 -38.8679 -11.7592 35.3003 -36.2415 -12.8255 
43.2682 -31.7993 -12.8255 -45.9229 -30.9 -12.8255 45.0859 -30.9 -12.8255 
51.2362 -26.3344 -12.8255 -51.5974 -22.932 -12.8255 -52.3472 -20.947 -12.8255 
-52.3472 -22.932 -11.717 54.2988 -22.932 -12.8255 59.2041 -16.4975 -12.8255 
-54.409 -14.9641 -12.8255 60.0624 -14.9641 -12.8255 -55.9158 -6.9961 -12.8255 
63.8416 -6.9961 -12.8255 -56.4232 0.971854 -12.8255 63.9773 0.971854 -12.8255 
67.1721 0.971854 -5.51738 -54.9525 8.93981 -12.8255 -52.3472 15.4881 -12.8255 
61.2822 8.93981 -12.8255 59.2041 13.9826 -12.8255 -51.5791 16.9078 -12.8255 
-52.3472 16.9078 -12.0433 43.2682 22.9292 -12.8255 56.1411 16.9078 -12.8255 
51.2362 19.8548 -12.8255 59.2041 16.9078 -11.3662 -45.883 24.8757 -12.8255 
-44.3793 26.5256 -12.8255 -36.4113 32.3711 -12.8255 19.3644 28.5658 -12.8255 
27.3323 26.9178 -12.8255 39.1389 24.8757 -12.8255 35.3003 26.821 -12.8255 
43.2682 24.8757 -11.6053 51.2362 24.8757 -8.5551 -44.3793 32.8437 -6.25938 
-35.4878 32.8437 -12.8255 -36.4113 32.8437 -12.4457 -28.4434 35.6943 -12.8255 
-20.4754 37.3775 -12.8255 -12.5075 37.3041 -12.8255 -4.5395 35.83 -12.8255 
3.42846 34.5161 -12.8255 12.6653 32.8437 -12.8255 11.3964 33.2107 -12.8255 
19.3644 32.8437 -11.61 27.3323 32.8437 -9.94204 35.3003 32.8437 -7.79897 
-28.4434 40.8116 -6.88251 -20.4754 40.8116 -9.15825 -12.5075 40.8116 -9.60739 
-4.5395 40.8116 -8.87222 3.42846 40.8116 -7.82733 11.3964 40.8116 -5.91374 
-12.5075 -47.0078 -4.85755 -36.4113 -41.2353 -4.85755 -28.4434 -44.5784 -4.85755 
-14.8475 -46.8359 -4.85755 -20.4754 -46.4165 -4.85755 -9.65714 -46.8359 -4.85755 
-12.5075 -46.8359 -4.11364 -4.5395 -46.5202 -4.85755 3.42846 -45.0076 -4.85755 
11.3964 -43.5465 -4.85755 19.3644 -42.0339 -4.85755 27.3323 -40.3498 -4.85755 
-40.4534 -38.8679 -4.85755 -44.3793 -36.2472 -4.85755 31.9103 -38.8679 -4.85755 
27.3323 -38.8679 -1.38538 35.3003 -37.7982 -4.85755 43.2682 -34.0236 -4.85755 
-49.9325 -30.9 -4.85755 -52.3472 -27.7805 -4.85755 47.8419 -30.9 -4.85755 
43.2682 -30.9 1.54385 51.2362 -28.4051 -4.85755 -55.5125 -22.932 -4.85755 
57.0668 -22.932 -4.85755 59.2041 -20.4792 -4.85755 -58.567 -14.9641 -4.85755 
63.0411 -14.9641 -4.85755 -59.8941 -6.9961 -4.85755 66.9543 -6.9961 -4.85755 
67.1721 -2.97407 -4.85755 -60.2304 0.971854 -4.85755 -60.3152 0.971854 -3.50627 
67.364 0.971854 -4.85755 67.1721 2.54726 -4.85755 67.1721 0.971854 -3.826 
-59.1593 8.93981 -4.85755 66.2717 8.93981 -4.85755 -56.5539 16.9078 -4.85755 
-52.3472 24.8633 -4.85755 62.8692 16.9078 -4.85755 59.2041 21.2671 -4.85755 
-52.3388 24.8757 -4.85755 -52.3472 24.8757 -4.81067 43.2682 32.1444 -4.85755 
54.3451 24.8757 -4.85755 51.2362 27.2028 -4.85755 -45.3658 32.8437 -4.85755 
-44.3793 33.7005 -4.85755 -36.4113 38.9016 -4.85755 19.3644 39.5767 -4.85755 
27.3323 37.2779 -4.85755 41.3554 32.8437 -4.85755 35.3003 34.6979 -4.85755 
43.2682 32.8437 -2.2188 -31.8341 40.8116 -4.85755 -28.4434 42.0136 -4.85755 
-20.4754 43.4255 -4.85755 -12.5075 43.9538 -4.85755 -4.5395 43.6799 -4.85755 
3.42846 42.8253 -4.85755 14.3478 40.8116 -4.85755 11.3964 41.4701 -4.85755 
-36.4113 -39.5803 3.1104 -28.4434 -42.8209 3.1104 -20.4754 -44.3017 3.1104 
-12.5075 -44.8495 3.1104 -4.5395 -44.02 3.1104 3.42846 -42.2218 3.1104 
11.3964 -40.6484 3.1104 19.3644 -39.1239 3.1104 -37.6404 -38.8679 3.1104 
-44.3793 -34.4933 3.1104 -36.4113 -38.8679 4.33004 -28.4434 -38.8679 8.31577 
-20.4754 -38.8679 9.9012 -12.5075 -38.8679 10.0094 -4.5395 -38.8679 8.86493 
3.42846 -38.8679 7.12722 11.3964 -38.8679 5.29316 20.3003 -38.8679 3.1104 
19.3644 -38.8679 3.44229 27.3323 -36.52 3.1104 35.3003 -34.0115 3.1104 
-48.4378 -30.9 3.1104 -52.3472 -26.5098 3.1104 -44.3793 -30.9 9.41218 
19.3644 -30.9 10.2557 27.3323 -30.9 8.26909 41.6846 -30.9 3.1104 
35.3003 -30.9 6.73168 43.2682 -29.9081 3.1104 51.2362 -24.7814 3.1104 
-54.9293 -22.932 3.1104 -52.3472 -22.932 8.30786 43.2682 -22.932 9.62569 
53.3134 -22.932 3.1104 51.2362 -22.932 5.04372 59.2041 -16.8553 3.1104 
-58.4586 -14.9641 3.1104 60.5735 -14.9641 3.1104 59.2041 -14.9641 4.88541 
-60.2243 -6.9961 3.1104 -60.3152 -5.5368 3.1104 65.0535 -6.9961 3.1104 
59.2041 -6.9961 9.87953 -60.7221 0.971854 3.1104 -60.3152 4.13546 3.1104 
-60.3152 0.971854 5.21408 65.8132 0.971854 3.1104 -59.6973 8.93981 3.1104 
65.4599 8.93981 3.1104 -57.241 16.9078 3.1104 62.3437 16.9078 3.1104 
59.2041 21.3288 3.1104 59.2041 16.9078 8.19307 -53.5821 24.8757 3.1104 
-52.3472 26.6228 3.1104 -52.3472 24.8757 9.65912 56.0818 24.8757 3.1104 
51.2362 29.1004 3.1104 -47.2098 32.8437 3.1104 -44.3793 35.4062 3.1104 
-36.4113 40.4769 3.1104 19.3644 40.3883 3.1104 27.3323 38.5584 3.1104 
35.3003 36.675 3.1104 45.2019 32.8437 3.1104 43.2682 33.9899 3.1104 
43.2682 32.8437 6.75358 -35.6122 40.8116 3.1104 -28.4434 43.547 3.1104 
-20.4754 44.8526 3.1104 -12.5075 45.3097 3.1104 -4.5395 44.9585 3.1104 
3.42846 43.9223 3.1104 17.3143 40.8116 3.1104 11.3964 42.0902 3.1104 
11.3964 40.8116 6.83051 -36.4113 -32.9772 11.0784 -28.4434 -35.957 11.0784 
-20.4754 -37.3822 11.0784 -12.5075 -37.3319 11.0784 -4.5395 -35.5234 11.0784 
3.42846 -33.4186 11.0784 11.3964 -31.65 11.0784 -41.3594 -30.9 11.0784 
-44.3793 -29.2998 11.0784 -36.4113 -30.9 12.6011 -28.4434 -30.9 14.6971 
-20.4754 -30.9 14.8077 -12.5075 -30.9 14.5247 -4.5395 -30.9 13.5058 
3.42846 -30.9 12.4751 14.4415 -30.9 11.0784 11.3964 -30.9 11.539 
19.3644 -29.2035 11.0784 27.3323 -26.5033 11.0784 35.3003 -24.2228 11.0784 
-50.08 -22.932 11.0784 -52.3472 -20.2162 11.0784 -44.3793 -22.932 14.8608 
-36.4113 -22.932 17.9447 -28.4434 -22.932 17.7406 -20.4754 -22.932 17.2959 
-12.5075 -22.932 16.7477 -4.5395 -22.932 15.7416 3.42846 -22.932 15.149 
11.3964 -22.932 14.9054 19.3644 -22.932 13.769 27.3323 -22.932 13.1038 
38.2775 -22.932 11.0784 35.3003 -22.932 11.7386 43.2682 -20.8483 11.0784 
51.2362 -15.2712 11.0784 -55.2814 -14.9641 11.0784 -52.3472 -14.9641 14.7997 
-20.4754 -14.9641 18.5549 -12.5075 -14.9641 17.7744 -4.5395 -14.9641 18.0552 
3.42846 -14.9641 17.5682 11.3964 -14.9641 17.2924 19.3644 -14.9641 16.3213 
27.3323 -14.9641 16.1305 35.3003 -14.9641 15.945 43.2682 -14.9641 14.304 
51.5473 -14.9641 11.0784 51.2362 -14.9641 11.2764 -57.9699 -6.9961 11.0784 
-52.3472 -6.9961 17.7935 3.42846 -6.9961 18.2021 19.3644 -6.9961 18.323 
27.3323 -6.9961 18.3429 35.3003 -6.9961 18.2084 43.2682 -6.9961 17.1786 
57.5153 -6.9961 11.0784 51.2362 -6.9961 14.7818 59.2041 -2.68743 11.0784 
[...]
POINT_DATA 546
SCALARS ImageScalars float
LOOKUP_TABLE default
0 0 0 0 0 0 0 0 0 
0 0 0 0 0 0 0 0 0 
0 0 0 0 0 0 0 0 0 
0 0 0 0 0 0 0 0 0 
0 0 0 0 0 0 0 0 0 
0 0 0 0 0 0 0 0 0 
0 0 0 0 0 0 0 0 0 
0 0 0 0 0 0 0 0 0 
0 0 0 0 0 0 0 0 0 
0 0 0 0 0 0 0 0 0 
0 0 0 0 0 0 0 0 0 
0 0 0 0 0 0 0 0 0 
0 0 0 0 0 0 0 0 0 
0 0 0 0 0 0 0 0 0 
0 0 0 0 0 0 0 0 0 
0 0 0 0 0 0 0 0 0 
0 0 0 0 0 0 0 0 0 
0 0 0 0 0 0 0 0 0 
0 0 0 0 0 0 0 0 0 
0 0 0 0 0 0 0 0 0 
0 0 0 0 0 0 0 0 0 
0 0 0 0 0 0 0 0 0 
0 0 0 0 0 0 0 0 0 
0 0 0 0 0 0 0 0 0 
0 0 0 0 0 0 0 0 0 
0 0 0 0 0 0 0 0 0 
0 0 0 0 0 0 0 0 0 
0 0 0 0 0 0 0 0 0 
0 0 0 0 0 0 0 0 0 
0 0 0 0 0 0 0 0 0 
0 0 0 0 0 0 0 0 0 
0 0 0 0 0 0 0 0 0 
0 0 0 0 0 0 0 0 0 
0 0 0 0 0 0 0 0 0 
0 0 0 0 0 0 0 0 0 
0 0 0 0 0 0 0 0 0 
0 0 0 0 0 0 0 0 0 
0 0 0 0 0 0 0 0 0 
0 0 0 0 0 0 0 0 0 
0 0 0 0 0 0 0 0 0 
0 0 0 0 0 0 0 0 0 
0 0 0 0 0 0 0 0 0 
0 0 0 0 0 0 0 0 0 
0 0 0 0 0 0 0 0 0 
0 0 0 0 0 0 0 0 0 
0 0 0 0 0 0 0 0 0 
0 0 0 0 0 0 0 0 0 
0 0 0 0 0 0 0 0 0 
0 0 0 0 0 0 0 0 0 
0 0 0 0 0 0 0 0 0 
0 0 0 0 0 0 0 0 0 
0 0 0 0 0 0 0 0 0 
0 0 0 0 0 0 0 0 0 
0 0 0 0 0 0 0 0 0 
0 0 0 0 0 0 0 0 0 
0 0 0 0 0 0 0 0 0 
0 0 0 0 0 0 0 0 0 
0 0 0 0 0 0 0 0 0 
0 0 0 0 0 0 0 0 0 
0 0 0 0 0 0 0 0 0 
0 0 0 0 0 0 
NORMALS Normals float
0.213938 0.604606 0.767256 0.0908678 0.533376 0.840983 -0.0384748 0.477093 0.87801 
-0.10747 0.498368 0.860278 -0.0705271 0.598796 0.79779 -0.0476415 0.710638 0.701943 
-0.100429 0.769057 0.631241 0.493598 0.528351 0.690802 0.278455 0.379287 0.882385 
0.0930878 0.259334 0.961291 -0.00192679 0.150411 0.988622 -0.0461988 0.0768852 0.995969 
-0.0209316 0.163967 0.986244 -0.00892264 0.220336 0.975383 0.0115328 0.211315 0.97735 
-0.0115714 0.262277 0.964923 -0.0493548 0.383672 0.92215 -0.254719 0.425779 0.868234 
-0.434513 0.669834 0.602097 0.330714 0.26457 0.905887 0.151835 0.123625 0.980644 
0.0222321 0.0441118 0.998779 -0.0917392 -0.0594126 0.994009 -0.0378634 -0.0872791 0.995464 
0.024277 -0.0249893 0.999393 0.0198165 0.0442727 0.998823 0.0119898 -0.00734826 0.999901 
0.0635625 -0.0277319 0.997593 -0.00273738 0.0876209 0.99615 -0.0934024 0.181602 0.978926 
-0.171373 0.371179 0.91261 -0.508401 0.508268 0.69512 0.624839 0.177948 0.760205 
0.227768 0.165983 0.959464 0.0208033 0.0830178 0.996331 -0.094544 -0.0579602 0.993832 
-0.133327 -0.111424 0.984789 -0.0129821 -0.110397 0.993803 0.110779 0.0160095 0.993716 
0.00799308 0.0190809 0.999786 -0.0563674 -0.12851 0.990105 0.0871868 -0.129541 0.987733 
0.155159 -0.0317959 0.987378 0.0245765 0.087749 0.995839 -0.115099 0.133472 0.984346 
-0.300548 0.221033 0.927801 -0.708448 0.395539 0.584509 0.576411 0.0568934 0.815177 
0.244372 0.0104582 0.969625 -0.0626802 0.0732547 0.995342 -0.169799 0.0154404 0.985358 
-0.139657 -0.0278098 0.989809 0.0865701 0.106243 0.990565 0.144387 0.0205543 0.989308 
-0.129377 -0.10227 0.986307 -0.1515 -0.0701734 0.985963 0.164661 -0.0907205 0.982169 
0.209457 -0.0185409 0.977642 0.0810915 -0.026114 0.996365 -0.012597 0.05603 0.99835 
-0.158991 0.0824571 0.983831 -0.536385 0.152601 0.830063 0.545284 -0.0350755 0.837517 
0.252671 -0.0299683 0.967088 0.0357361 0.00882205 0.999322 -0.200229 0.0477273 0.978586 
-0.0283285 0.0917662 0.995378 0.0500526 0.141291 0.988702 -0.176736 -0.0348764 0.98364 
-0.0378846 -0.110661 0.993136 -0.000569075 -0.166858 0.985981 0.127048 -0.116214 0.985065 
0.212209 -0.123988 0.969327 0.0920342 -0.0927873 0.991423 -0.0172647 -0.106044 0.994212 
-0.18161 -0.131313 0.974564 -0.521327 -0.15511 0.839142 0.602393 -0.185247 0.776406 
0.282578 -0.094904 0.954538 0.0155249 -0.111978 0.993589 -0.0808109 -0.0150481 0.996616 
-0.0413506 0.0953215 0.994587 -0.0299955 -0.0335514 0.998987 -0.0947011 -0.0190136 0.995324 
-0.23426 -0.0771102 0.969111 -0.214831 -0.121242 0.969096 0.218208 -0.1622 0.962329 
0.221721 -0.224663 0.948876 0.109519 -0.230702 0.966841 -0.0485562 -0.263691 0.963384 
-0.239165 -0.291652 0.926142 -0.554172 -0.290459 0.780081 0.325801 -0.311395 0.892685 
0.111978 -0.176286 0.977949 0.00858975 -0.100129 0.994937 -0.028319 -0.030344 0.999138 
-0.0891229 -0.0697753 0.993574 -0.197834 -0.124152 0.972341 -0.216003 -0.162844 0.962717 
-0.101416 0.0914278 0.990634 0.0699404 -0.0657311 0.995383 0.161601 -0.204479 0.965439 
0.0459238 -0.312264 0.948885 -0.119917 -0.418715 0.900165 -0.241183 -0.460695 0.854161 
0.461515 -0.449135 0.765037 0.235808 -0.348306 0.907236 0.0711295 -0.236306 0.969072 
-0.0081309 -0.185959 0.982524 -0.129121 -0.193051 0.972656 -0.184389 -0.1932 0.963678 
-0.0803936 -0.124182 0.988997 -0.0753298 -0.0524016 0.995781 -0.0766419 -0.130759 0.988447 
-0.00583204 -0.279777 0.960047 -0.101689 -0.401331 0.910271 0.182546 -0.504973 0.843611 
0.0263121 -0.455079 0.890062 -0.0836581 -0.417897 0.904634 -0.115849 -0.360576 0.925508 
-0.0805567 -0.321457 0.943492 -0.119263 -0.393664 0.911485 0.231211 0.761141 0.605976 
0.0878431 0.739225 0.667705 -0.00241631 0.73803 0.674763 0.00634734 0.996502 0.0833314 
-0.100775 0.698889 0.708095 -0.120636 0.715729 0.68788 -0.0786058 0.792841 0.604338 
-0.101743 0.832792 0.544156 0.517268 0.589227 0.620682 0.37261 0.702619 0.606208 
0.401894 0.679752 0.613529 0.431058 0.761653 0.483811 -0.186274 0.837208 0.514184 
-0.200669 0.83344 0.514888 -0.218528 0.877411 0.427078 -0.350035 0.814404 0.462841 
-0.452463 0.708459 0.541631 0.550394 0.553921 0.62469 -0.488335 0.70137 0.519239 
-0.584757 0.661579 0.469438 0.726341 0.348174 0.592624 0.733354 0.32333 0.598038 
0.772828 0.375411 0.511668 -0.613458 0.600284 0.513156 -0.728042 0.436131 0.528909 
0.718432 0.227917 0.657198 -0.746177 0.397855 0.533789 0.732013 0.091814 0.675075 
-0.796086 0.203471 0.569953 0.747039 -0.0487461 0.662991 -0.763334 -0.108252 0.63687 
-0.994931 -0.0407279 0.0919418 0.709961 -0.220265 0.668909 0.672953 -0.33575 0.659095 
-0.640394 -0.295508 0.708922 -0.548252 -0.415687 0.725688 0.654121 -0.359459 0.665518 
0.701809 -0.367792 0.610076 -0.183809 -0.497311 0.847877 -0.425905 -0.486267 0.762987 
-0.291395 -0.527054 0.798313 -0.573448 -0.517072 0.635448 0.508681 -0.468596 0.722262 
0.4795 -0.496669 0.723464 0.320157 -0.574179 0.753537 -0.115844 -0.260615 0.958468 
-0.0280527 -0.345531 0.937988 -0.14685 -0.459677 0.875861 -0.124209 -0.466067 0.875987 
-0.219126 -0.550133 0.805815 -0.455552 -0.708426 0.539078 0.590831 -0.711358 0.380644 
0.308378 -0.580174 0.753858 0.329421 -0.594053 0.733882 0.20192 -0.616359 0.761137 
0.0662348 -0.625973 0.777027 -0.0522073 -0.574687 0.816706 -0.0971036 -0.476586 0.873749 
-0.0866221 -0.392061 0.915852 -0.1268 -0.39849 0.908365 -0.122454 -0.409761 0.903937 
-0.170134 -0.46354 0.869589 -0.176972 -0.638345 0.74913 -0.262756 -0.782115 0.565028 
0.243445 -0.856911 0.454355 0.0993937 -0.81847 0.565886 -0.0146838 -0.779028 0.626817 
-0.0753129 -0.773858 0.628865 -0.121084 -0.818475 0.561638 -0.188081 -0.89662 0.400871 
0.00656747 0.998681 0.0509128 0.444784 0.894066 0.0530415 0.303178 0.951814 0.0461805 
0.0477513 0.997517 0.0517583 0.148961 0.987328 0.054716 -0.0398004 0.998075 0.047553 
0.00508468 0.999934 0.0103177 -0.125279 0.991234 0.0419602 -0.18828 0.981773 0.0259208 
-0.186444 0.982348 0.0152051 -0.184859 0.981934 -0.0404129 -0.251156 0.964151 -0.0856348 
0.521898 0.851523 0.0503134 0.619729 0.782584 0.0591352 -0.318975 0.941008 -0.112956 
-0.280999 0.911216 -0.301204 -0.366853 0.922059 -0.123394 -0.513371 0.853097 -0.0931438 
0.759356 0.644789 0.0873204 0.817892 0.564474 0.111455 -0.571029 0.813663 -0.10899 
-0.459829 0.756541 -0.464977 -0.625727 0.774193 -0.0953462 0.878949 0.451352 0.154048 
-0.71835 0.693671 -0.0528551 -0.771801 0.634962 -0.0338586 0.94828 0.263305 0.177302 
-0.871699 0.489935 0.0102543 0.974276 0.0988031 0.202544 -0.965934 0.254372 0.0475989 
-0.993171 0.105394 0.0500305 0.978615 -0.0432742 0.201098 0.986984 -0.0416172 0.155343 
-0.99799 -0.0358164 0.0522749 -0.994176 -0.081978 0.0699595 -0.999524 -0.0308319 -0.00127597 
0.948974 -0.215581 0.23016 -0.944871 -0.284561 0.162 0.89282 -0.366568 0.261725 
0.780784 -0.552462 0.291825 -0.822399 -0.53028 0.206065 -0.685976 -0.681793 0.254156 
0.780517 -0.552782 0.291935 0.781237 -0.552739 0.290084 -0.39464 -0.816424 0.421558 
-0.565881 -0.757235 0.32615 -0.516605 -0.779601 0.354037 0.622214 -0.71367 0.321752 
0.600036 -0.730869 0.32525 0.430043 -0.832971 0.34817 -0.24055 -0.900166 0.363093 
-0.269506 -0.878161 0.395222 -0.376147 -0.830444 0.410946 -0.296687 -0.862697 0.409548 
-0.420223 -0.869881 0.258301 0.326901 -0.876409 0.353614 0.251196 -0.896306 0.365425 
0.114596 -0.927966 0.354607 0.0162768 -0.92811 0.371951 -0.0703623 -0.915287 0.396608 
-0.135197 -0.917472 0.374121 -0.209932 -0.918463 0.335194 -0.19233 -0.922384 0.334987 
0.439509 0.825208 -0.354772 0.269164 0.868941 -0.415323 0.115232 0.892423 -0.436238 
-0.0141027 0.891372 -0.453053 -0.149722 0.853876 -0.498477 -0.18878 0.835845 -0.515486 
-0.177955 0.830733 -0.527461 -0.205943 0.821556 -0.531633 0.457203 0.816899 -0.351627 
0.570472 0.756751 -0.3192 0.42779 0.807948 -0.405236 0.202149 0.741264 -0.640049 
0.0756854 0.681561 -0.727837 -0.0499585 0.631352 -0.773886 -0.135245 0.642465 -0.754286 
-0.167034 0.701535 -0.692783 -0.169552 0.769451 -0.61579 -0.215929 0.814573 -0.538374 
-0.206878 0.811139 -0.547042 -0.261476 0.753476 -0.603245 -0.317523 0.75645 -0.571807 
0.669146 0.683549 -0.291557 0.768333 0.584629 -0.260523 0.491717 0.664406 -0.562831 
-0.169569 0.502157 -0.847988 -0.173435 0.596405 -0.783722 -0.408497 0.722424 -0.557883 
-0.273284 0.671389 -0.688878 -0.42821 0.710231 -0.558756 -0.53141 0.672313 -0.515363 
0.830073 0.507289 -0.231594 0.716074 0.546095 -0.434763 -0.314791 0.5826 -0.749322 
-0.564644 0.664612 -0.489355 -0.493967 0.644767 -0.583329 -0.707707 0.551668 -0.441376 
0.936323 0.309062 -0.166673 -0.735011 0.515535 -0.440435 -0.692783 0.502702 -0.517052 
0.986064 0.131871 -0.101431 0.990273 0.101927 -0.0947158 -0.858874 0.291803 -0.420935 
-0.617963 0.309544 -0.722706 0.997359 -0.032878 -0.0647607 0.992336 -0.101918 -0.0698644 
0.988982 -0.0294463 -0.145078 -0.924436 0.017885 -0.380918 0.97561 -0.205768 -0.0764453 
-0.928796 -0.207253 -0.307221 0.937883 -0.341981 -0.0585243 -0.845672 -0.453068 -0.282079 
-0.777252 -0.589603 -0.219655 -0.738245 -0.416058 -0.530933 0.853167 -0.521339 -0.0176666 
0.828927 -0.559242 -0.0113481 0.823193 -0.498604 -0.271563 -0.697907 -0.705059 -0.125768 
-0.588775 -0.805022 -0.0726922 0.705774 -0.708309 0.0134668 0.643761 -0.764831 0.0246187 
0.433151 -0.901069 0.0213446 -0.210121 -0.973525 -0.0899843 -0.224049 -0.973625 -0.0430808 
-0.267233 -0.963223 -0.0280656 -0.463074 -0.885113 -0.0462424 -0.426856 -0.903375 -0.0413203 
-0.44114 -0.861453 -0.251584 0.414274 -0.909912 0.0209045 0.255571 -0.966356 0.0289791 
0.11187 -0.993612 -0.0148176 0.00627292 -0.999234 -0.0386173 -0.0857267 -0.994908 -0.0530009 
-0.176192 -0.980654 -0.0852928 -0.21325 -0.971882 -0.0998531 -0.221733 -0.967531 -0.121317 
-0.20684 -0.935783 -0.285531 0.276835 0.626778 -0.728363 0.161249 0.623745 -0.764815 
0.0578061 0.614223 -0.787013 -0.0584337 0.56259 -0.824668 -0.127823 0.503287 -0.854613 
-0.127123 0.477478 -0.869399 -0.126695 0.498562 -0.857546 0.385366 0.629233 -0.674951 
0.458578 0.616468 -0.640058 0.243363 0.587122 -0.77205 0.113342 0.467804 -0.876535 
-0.0105938 0.387812 -0.921678 -0.0762117 0.362366 -0.928915 -0.120762 0.367634 -0.922097 
-0.112936 0.411223 -0.904511 -0.14007 0.484564 -0.863468 -0.122547 0.478426 -0.869535 
-0.156564 0.459987 -0.874014 -0.134956 0.492918 -0.859546 -0.183796 0.485129 -0.854909 
0.607271 0.5381 -0.584526 0.686346 0.495801 -0.532081 0.385581 0.494156 -0.77919 
0.139732 0.411119 -0.900809 -0.0398936 0.30899 -0.950228 -0.0580933 0.220823 -0.973582 
-0.0988913 0.197919 -0.975217 -0.0949254 0.262205 -0.960332 -0.051064 0.298819 -0.952943 
-0.0795258 0.329053 -0.940957 -0.10588 0.346312 -0.932125 -0.1161 0.423648 -0.898356 
-0.219693 0.503171 -0.835796 -0.171515 0.464542 -0.868783 -0.290128 0.527697 -0.798349 
-0.429023 0.454729 -0.780487 0.776013 0.378559 -0.504476 0.656421 0.363035 -0.661299 
-0.132985 0.161966 -0.977794 -0.0316963 0.181534 -0.982874 -0.0122601 0.286814 -0.957908 
-0.0459256 0.187246 -0.981239 -0.0756802 0.311888 -0.9471 -0.0686794 0.270051 -0.960393 
-0.0222815 0.306569 -0.951587 -0.0988587 0.368375 -0.924406 -0.250993 0.399936 -0.881506 
-0.436036 0.449278 -0.779757 -0.427918 0.449326 -0.784214 0.877682 0.192724 -0.438785 
0.603366 0.190135 -0.774466 -0.0141324 0.0439483 -0.998934 -0.107674 0.137128 -0.984684 
-0.00687826 0.175932 -0.984378 -0.069131 0.200386 -0.977275 -0.190377 0.247168 -0.950087 
-0.556961 0.299607 -0.774616 -0.3857 0.259157 -0.885479 -0.611164 0.196738 -0.766664 
0.916161 -0.014081 -0.400563 0.0310064 0.0890616 -0.995543 -0.126101 0.0241274 -0.991724 
-0.195524 0.0973567 -0.975855 -0.383201 0.0677038 -0.92118 -0.643008 0.105757 -0.758523 
-0.610816 0.106002 -0.784645 0.899469 -0.196238 -0.390442 0.636864 -0.15747 -0.754723 
-0.0250511 0.101465 -0.994524 -0.204047 -0.0322035 -0.978431 -0.381554 -0.00797343 -0.924312 
-0.673565 -0.148048 -0.724149 -0.660549 -0.235556 -0.712874 -0.618393 -0.139534 -0.773382 
0.862731 -0.323241 -0.388857 0.813694 -0.475603 -0.334221 0.739218 -0.283293 -0.610985 
-0.18583 -0.189791 -0.964078 -0.638769 -0.35239 -0.683956 -0.47366 -0.240381 -0.847268 
0.807165 -0.487936 -0.33227 0.444511 -0.32502 -0.834729 -0.233383 -0.288267 -0.928674 
-0.424796 -0.717353 -0.552226 -0.382944 -0.410017 -0.827792 -0.586611 -0.544712 -0.599313 
-0.579563 -0.552496 -0.599045 -0.572448 -0.541845 -0.615393 0.671957 -0.66583 -0.324259 
0.639518 -0.698274 -0.321606 0.632908 -0.653892 -0.414552 0.42263 -0.851652 -0.309958 
0.310276 -0.487482 -0.816144 -0.064307 -0.409735 -0.909935 -0.176761 -0.848241 -0.499241 
-0.0791102 -0.509957 -0.856555 -0.147987 -0.867788 -0.474388 -0.112495 -0.605031 -0.788215 
-0.20655 -0.863747 -0.459651 -0.193201 -0.667879 -0.718757 -0.362569 -0.780164 -0.509792 
-0.293672 -0.813241 -0.50239 -0.29667 -0.758593 -0.580106 0.333707 -0.884608 -0.325742 
0.219249 -0.908375 -0.356069 0.197827 -0.841406 -0.502892 0.0426808 -0.92038 -0.38869 
0.0330536 -0.819335 -0.572361 -0.028914 -0.894703 -0.445724 -0.0485346 -0.789344 -0.612029 
-0.119486 -0.867095 -0.4836 -0.123156 -0.789537 -0.601219 -0.190457 -0.85226 -0.487215 
-0.191997 -0.851209 -0.488447 -0.190358 -0.837503 -0.512203 0.252928 0.365098 -0.895953 
0.0869995 0.35159 -0.932103 -0.0876735 0.255033 -0.962949 0.296026 0.345658 -0.890443 
0.244106 0.344789 -0.906384 0.0257404 0.281293 -0.959277 -0.125191 0.184602 -0.974807 
-0.11526 0.219098 -0.968871 -0.120508 0.161727 -0.97945 0.0106639 0.205581 -0.978582 
-0.0490982 0.257785 -0.964954 -0.0274533 0.275215 -0.960991 0.474763 0.179307 -0.861655 
0.582306 0.0390601 -0.812031 0.228948 0.177878 -0.957049 -0.00419267 0.152631 -0.988274 
-0.150802 0.152652 -0.976707 -0.0938354 0.155702 -0.983337 0.0423342 0.22772 -0.972806 
-0.0516974 0.101977 -0.993443 -0.115376 0.204322 -0.972081 -0.00838649 0.137318 -0.990492 
-0.0641317 0.181791 -0.981244 0.00366361 0.245605 -0.969363 0.0441624 0.0882227 -0.995121 
-0.0400929 0.109329 -0.993197 0.58737 0.0242681 -0.808955 0.588681 -0.000670009 -0.808365 
0.582524 0.0247436 -0.812437 0.213264 0.0613024 -0.975069 -0.00849643 0.0550722 -0.998446 
-0.129904 0.0844744 -0.987922 -0.0676876 0.124315 -0.989931 0.0133517 0.114698 -0.993311 
-0.0345728 0.0739097 -0.996665 -0.209349 0.0218646 -0.977596 0.022088 0.062908 -0.997775 
-0.0278405 0.103065 -0.994285 -0.105233 0.018 -0.994285 -0.00812669 -0.0166588 -0.999828 
0.0245977 0.0698875 -0.997252 0.0502559 0.0772619 -0.995743 -0.0958872 0.0874329 -0.991545 
-0.0323087 0.0803633 -0.996242 0.56685 -0.144197 -0.811103 0.253089 -0.0930783 -0.962955 
0.0195577 -0.020701 -0.999594 -0.0809938 0.0468543 -0.995613 -0.069983 0.120283 -0.99027 
-0.0552071 0.0392367 -0.997704 -0.14582 -0.030375 -0.988845 -0.0564854 0.107639 -0.992584 
-0.0313207 0.0659168 -0.997333 -0.0452526 -0.0315655 -0.998477 0.0053407 0.0836127 -0.996484 
-0.0301409 0.103385 -0.994185 0.0496066 0.0569559 -0.997144 -0.164619 -0.0250508 -0.986039 
-0.0434526 -0.00343924 -0.99905 0.491187 -0.215981 -0.843853 0.440672 -0.320391 -0.838545 
0.351841 -0.19968 -0.914514 0.127806 -0.0676114 -0.989492 0.0138732 0.0101639 -0.999852 
-0.0673701 0.0637939 -0.995686 -0.144712 0.0315465 -0.988971 -0.121068 0.014079 -0.992544 
0.00194383 0.069741 -0.997563 0.00498609 0.0334784 -0.999427 -0.0443884 0.10609 -0.993365 
-0.0563105 0.0162674 -0.998281 -0.130306 -0.0684645 -0.989107 -0.177373 -0.161943 -0.970728 
-0.121303 -0.0451134 -0.99159 0.439266 -0.322105 -0.838626 0.308798 -0.483391 -0.819132 
0.233617 -0.2231 -0.946388 0.0478931 -0.126971 -0.99075 -0.0472928 -0.10586 -0.993256 
-0.105435 -0.0920886 -0.990153 -0.100809 -0.0859719 -0.991184 -0.0542721 -0.317645 -0.946655 
-0.041631 -0.0938573 -0.994715 -0.047305 -0.358759 -0.932231 -0.0107878 -0.148263 -0.988889 
-0.0691132 -0.336686 -0.939077 -0.0427728 -0.158839 -0.986378 -0.204237 -0.267894 -0.941552 
-0.119146 -0.305343 -0.944759 -0.102252 -0.207368 -0.972904 0.306575 -0.485506 -0.818716 
0.145285 -0.540001 -0.829031 0.136911 -0.439247 -0.887872 0.00412824 -0.542424 -0.840095 
-0.0208926 -0.378253 -0.925466 -0.108393 -0.480621 -0.870204 -0.125441 -0.365103 -0.922477 
-0.115069 -0.363392 -0.924503 -0.126892 -0.366279 -0.921813 -0.126728 -0.356049 -0.925834 

