# vtk DataFile Version 4.2
vtk output
ASCII
DATASET POLYDATA
POINTS 542 float
-22.4012 -43.9778 -12.1775 -14.6486 -43.9778 -13.8246 -6.89603 -43.9778 -14.1257 
0.85654 -43.9778 -13.5633 8.6091 -43.9778 -11.7985 -37.9063 -36.2252 -11.2062 
-30.1537 -36.2252 -13.9887 -22.4012 -36.2252 -15.9393 -14.6486 -36.2252 -16.9674 
-6.89603 -36.2252 -16.1096 0.85654 -36.2252 -15.8884 8.6091 -36.2252 -15.5644 
16.3617 -36.2252 -14.539 24.1142 -36.2252 -14.1617 31.8668 -36.2252 -13.1966 
-37.9063 -28.4726 -14.3331 -30.1537 -28.4726 -16.5968 -22.4012 -28.4726 -16.7478 
-14.6486 -28.4726 -17.094 -6.89603 -28.4726 -16.3519 0.85654 -28.4726 -15.9926 
8.6091 -28.4726 -16.3331 16.3617 -28.4726 -16.3993 24.1142 -28.4726 -16.4162 
31.8668 -28.4726 -16.1212 39.6194 -28.4726 -14.4695 47.3719 -28.4726 -11.8575 
-45.6588 -20.7201 -13.3009 -37.9063 -20.7201 -16.3417 -30.1537 -20.7201 -17.2897 
-22.4012 -20.7201 -17.0502 -14.6486 -20.7201 -16.2136 -6.89603 -20.7201 -15.347 
0.85654 -20.7201 -14.8451 8.6091 -20.7201 -15.8184 16.3617 -20.7201 -16.613 
24.1142 -20.7201 -17.5118 31.8668 -20.7201 -17.0179 39.6194 -20.7201 -16.1412 
47.3719 -20.7201 -14.3163 -45.6588 -12.9675 -14.9279 -37.9063 -12.9675 -17.1573 
-30.1537 -12.9675 -17.8903 -22.4012 -12.9675 -16.8199 -14.6486 -12.9675 -15.0897 
-6.89603 -12.9675 -13.2434 0.85654 -12.9675 -14.1902 8.6091 -12.9675 -15.4835 
16.3617 -12.9675 -15.8184 24.1142 -12.9675 -16.5735 31.8668 -12.9675 -17.2246 
39.6194 -12.9675 -17.5488 47.3719 -12.9675 -15.1837 55.1245 -12.9675 -12.0557 
-53.4114 -5.21495 -11.4589 -45.6588 -5.21495 -15.6919 -37.9063 -5.21495 -17.339 
-30.1537 -5.21495 -17.2817 -22.4012 -5.21495 -15.9689 -14.6486 -5.21495 -14.0292 
-6.89603 -5.21495 -15.7466 0.85654 -5.21495 -16.2874 8.6091 -5.21495 -17.487 
16.3617 -5.21495 -15.111 24.1142 -5.21495 -16.2253 31.8668 -5.21495 -17.1058 
39.6194 -5.21495 -17.8296 47.3719 -5.21495 -16.2854 55.1245 -5.21495 -12.3364 
-53.4114 2.53761 -12.5963 -45.6588 2.53761 -15.8488 -37.9063 2.53761 -17.0754 
-30.1537 2.53761 -17.0507 -22.4012 2.53761 -15.3006 -14.6486 2.53761 -12.9755 
-6.89603 2.53761 -17.8198 0.85654 2.53761 -12.63 8.6091 2.53761 -18.6543 
16.3617 2.53761 -16.3271 24.1142 2.53761 -16.2446 31.8668 2.53761 -16.983 
39.6194 2.53761 -17.5282 47.3719 2.53761 -15.7174 55.1245 2.53761 -12.7472 
-53.4114 10.2902 -12.5767 -45.6588 10.2902 -15.3574 -37.9063 10.2902 -17.2015 
-30.1537 10.2902 -16.3733 -22.4012 10.2902 -14.9095 -14.6486 10.2902 -13.2367 
-6.89603 10.2902 -15.0623 0.85654 10.2902 -16.6016 8.6091 10.2902 -18.2667 
16.3617 10.2902 -16.0523 24.1142 10.2902 -16.0539 31.8668 10.2902 -16.7416 
39.6194 10.2902 -16.847 47.3719 10.2902 -15.8841 55.1245 10.2902 -12.3789 
-53.4114 18.0427 -12.056 -45.6588 18.0427 -15.3598 -37.9063 18.0427 -15.6478 
-30.1537 18.0427 -15.6492 -22.4012 18.0427 -15.4222 -14.6486 18.0427 -14.6854 
-6.89603 18.0427 -14.3626 0.85654 18.0427 -15.0044 8.6091 18.0427 -15.8186 
16.3617 18.0427 -15.4839 24.1142 18.0427 -15.9271 31.8668 18.0427 -16.2852 
39.6194 18.0427 -15.7875 47.3719 18.0427 -15.2597 55.1245 18.0427 -12.5713 
-45.6588 25.7953 -11.5861 -37.9063 25.7953 -14.2756 -30.1537 25.7953 -14.8412 
-22.4012 25.7953 -14.951 -14.6486 25.7953 -14.9764 -6.89603 25.7953 -14.9233 
0.85654 25.7953 -14.4847 8.6091 25.7953 -14.8477 16.3617 25.7953 -14.7772 
24.1142 25.7953 -15.27 31.8668 25.7953 -14.7567 39.6194 25.7953 -15.1741 
47.3719 25.7953 -12.1309 -30.1537 33.5479 -13.0071 -22.4012 33.5479 -13.3332 
-14.6486 33.5479 -13.8031 -6.89603 33.5479 -13.7932 0.85654 33.5479 -13.5709 
8.6091 33.5479 -13.4523 16.3617 33.5479 -13.0813 24.1142 33.5479 -12.9686 
31.8668 33.5479 -11.9748 -22.4012 -45.2622 -10.9089 -14.6486 -47.9177 -10.9089 
-6.89603 -48.6172 -10.9089 -6.89603 -51.7303 -3.81803 0.85654 -47.7976 -10.9089 
8.6091 -45.1277 -10.9089 -37.9063 -36.5857 -10.9089 -25.761 -43.9778 -10.9089 
-30.1537 -41.7095 -10.9089 -30.1537 -43.9778 -7.54868 12.2833 -43.9778 -10.9089 
16.3617 -42.3697 -10.9089 16.3617 -43.9778 -9.34646 24.1142 -41.6363 -10.9089 
24.1142 -43.9778 -7.16959 31.8668 -38.5866 -10.9089 -38.284 -36.2252 -10.9089 
39.0374 -36.2252 -10.9089 39.6194 -35.9372 -10.9089 39.6194 -36.2252 -10.5058 
47.3719 -29.7671 -10.9089 -44.5247 -28.4726 -10.9089 -45.6588 -26.6097 -10.9089 
-45.6588 -28.4726 -9.52007 48.5317 -28.4726 -10.9089 -48.2192 -20.7201 -10.9089 
52.6082 -20.7201 -10.9089 55.1245 -16.5206 -10.9089 55.1245 -20.7201 -7.04076 
-52.389 -12.9675 -10.9089 -53.4114 -8.50092 -10.9089 -53.4114 -12.9675 -9.25669 
56.4105 -12.9675 -10.9089 -53.9788 -5.21495 -10.9089 56.8805 -5.21495 -10.9089 
-55.4482 2.53761 -10.9089 57.6287 2.53761 -10.9089 -55.5326 10.2902 -10.9089 
-61.164 10.2902 -3.81211 57.2166 10.2902 -10.9089 -54.8692 18.0427 -10.9089 
-53.4114 20.8637 -10.9089 57.1526 18.0427 -10.9089 55.1245 21.5916 -10.9089 
-47.3129 25.7953 -10.9089 -53.4114 25.7953 -7.47812 -45.6588 27.3378 -10.9089 
-37.9063 32.6826 -10.9089 39.6194 32.3718 -10.9089 49.9774 25.7953 -10.9089 
47.3719 28.2204 -10.9089 55.1245 25.7953 -7.06096 -45.6588 33.5479 -6.94618 
-36.3015 33.5479 -10.9089 -37.9063 33.5479 -10.32 -30.1537 37.249 -10.9089 
-22.4012 38.3783 -10.9089 -14.6486 39.5721 -10.9089 -6.89603 40.569 -10.9089 
0.85654 40.1486 -10.9089 8.6091 39.5538 -10.9089 16.3617 38.3031 -10.9089 
24.1142 39.1082 -10.9089 36.3561 33.5479 -10.9089 31.8668 35.5473 -10.9089 
39.6194 33.5479 -10.1805 47.3719 33.5479 -6.76864 -30.1537 41.3004 -7.48575 
-22.4012 41.3004 -9.06058 -14.6486 41.3004 -9.89442 -6.89603 41.3004 -10.5576 
0.85654 41.3004 -10.3831 8.6091 41.3004 -10.0748 16.3617 41.3004 -9.27085 
24.1142 41.3004 -9.2717 31.8668 41.3004 -6.24631 -6.89603 -51.9209 -3.15633 
-30.1537 -45.7253 -3.15633 -22.4012 -49.0977 -3.15633 -8.92382 -51.7303 -3.15633 
-14.6486 -51.1867 -3.15633 -3.27515 -51.7303 -3.15633 -6.89603 -51.7303 -2.10805 
0.85654 -51.5129 -3.15633 8.6091 -49.6635 -3.15633 16.3617 -47.5882 -3.15633 
24.1142 -45.4325 -3.15633 -32.9632 -43.9778 -3.15633 -37.9063 -40.568 -3.15633 
28.2895 -43.9778 -3.15633 31.8668 -42.6914 -3.15633 39.6194 -39.009 -3.15633 
-42.5663 -36.2252 -3.15633 -45.6588 -32.5125 -3.15633 43.837 -36.2252 -3.15633 
47.3719 -33.344 -3.15633 -48.5294 -28.4726 -3.15633 51.8946 -28.4726 -3.15633 
55.1245 -23.3805 -3.15633 -52.6723 -20.7201 -3.15633 -53.4114 -18.88 -3.15633 
56.5724 -20.7201 -3.15633 55.1245 -20.7201 1.09924 -55.8977 -12.9675 -3.15633 
59.6289 -12.9675 -3.15633 -58.5088 -5.21495 -3.15633 61.8898 -5.21495 -3.15633 
-60.7245 2.53761 -3.15633 -61.164 6.80988 -3.15633 62.7216 2.53761 -3.15633 
-61.499 10.2902 -3.15633 -61.164 12.2766 -3.15633 -61.164 10.2902 3.3189 
62.8233 10.2902 -3.15633 -60.1279 18.0427 -3.15633 61.4947 18.0427 -3.15633 
-56.5847 25.7953 -3.15633 -53.4114 29.6003 -3.15633 57.5709 25.7953 -3.15633 
55.1245 29.1143 -3.15633 -49.1021 33.5479 -3.15633 -45.6588 36.1213 -3.15633 
-37.9063 40.5266 -3.15633 39.6194 40.0979 -3.15633 50.6061 33.5479 -3.15633 
47.3719 36.0445 -3.15633 -36.3344 41.3004 -3.15633 -30.1537 43.9036 -3.15633 
-22.4012 46.014 -3.15633 -14.6486 47.2244 -3.15633 -6.89603 48.1838 -3.15633 
0.85654 48.8566 -3.15633 8.6091 48.5035 -3.15633 16.3617 47.3982 -3.15633 
24.1142 45.3895 -3.15633 36.4957 41.3004 -3.15633 31.8668 43.0425 -3.15633 
-6.89603 49.053 1.79213 0.85654 49.053 -1.63374 8.6091 49.053 -0.0672098 
-30.1537 -44.4512 4.59623 -22.4012 -46.8473 4.59623 -14.6486 -49.0487 4.59623 
-6.89603 -50.2559 4.59623 0.85654 -49.8348 4.59623 8.6091 -48.3639 4.59623 
16.3617 -46.449 4.59623 24.1142 -44.4492 4.59623 -30.9571 -43.9778 4.59623 
-37.9063 -38.8567 4.59623 -30.1537 -43.9778 5.33295 -22.4012 -43.9778 8.05052 
-14.6486 -43.9778 10.279 -6.89603 -43.9778 11.4348 0.85654 -43.9778 11.4091 
8.6091 -43.9778 10.3611 16.3617 -43.9778 8.13963 25.3655 -43.9778 4.59623 
24.1142 -43.9778 5.41332 31.8668 -40.8779 4.59623 39.6194 -37.0348 4.59623 
-40.9343 -36.2252 4.59623 -45.6588 -31.2481 4.59623 -37.9063 -36.2252 7.7134 
-30.1537 -36.2252 12.2353 31.8668 -36.2252 9.33357 40.7143 -36.2252 4.59623 
39.6194 -36.2252 5.58303 47.3719 -30.291 4.59623 -47.6207 -28.4726 4.59623 
-45.6588 -28.4726 7.58904 39.6194 -28.4726 10.0448 48.9411 -28.4726 4.59623 
47.3719 -28.4726 6.20272 -51.6391 -20.7201 4.59623 -53.4114 -16.947 4.59623 
-45.6588 -20.7201 11.7655 53.2811 -20.7201 4.59623 47.3719 -20.7201 9.56328 
55.1245 -17.4746 4.59623 -55.2119 -12.9675 4.59623 -53.4114 -12.9675 7.55435 
47.3719 -12.9675 10.9175 56.8082 -12.9675 4.59623 55.1245 -12.9675 6.38468 
-57.7219 -5.21495 4.59623 -53.4114 -5.21495 10.474 58.3068 -5.21495 4.59623 
55.1245 -5.21495 7.92769 -60.6907 2.53761 4.59623 59.4449 2.53761 4.59623 
55.1245 2.53761 9.09644 -61.0899 10.2902 4.59623 60.0091 10.2902 4.59623 
55.1245 10.2902 9.40027 -59.9227 18.0427 4.59623 -53.4114 18.0427 11.7954 
47.3719 18.0427 12.0197 58.4118 18.0427 4.59623 55.1245 18.0427 8.45528 
-56.7951 25.7953 4.59623 -53.4114 29.6319 4.59623 -53.4114 25.7953 9.2956 
47.3719 25.7953 9.94007 55.6157 25.7953 4.59623 55.1245 26.5216 4.59623 
55.1245 25.7953 5.10718 -49.2021 33.5479 4.59623 -45.6588 36.1813 4.59623 
-45.6588 33.5479 8.66762 -37.9063 40.4709 4.59623 -37.9063 33.5479 11.2755 
31.8668 33.5479 12.3088 39.6194 39.3634 4.59623 39.6194 33.5479 9.22036 
49.0321 33.5479 4.59623 47.3719 34.9181 4.59623 47.3719 33.5479 6.00702 
-35.9264 41.3004 4.59623 -30.1537 43.4293 4.59623 -30.1537 41.3004 7.27112 
-22.4012 45.9563 4.59623 -22.4012 41.3004 10.4763 -14.6486 47.8596 4.59623 
16.3617 48.573 4.59623 24.1142 45.9712 4.59623 24.1142 41.3004 9.91243 
37.0094 41.3004 4.59623 31.8668 43.8925 4.59623 31.8668 41.3004 8.28747 
-9.11645 49.053 4.59623 -6.89603 49.4722 4.59623 -6.89603 49.053 5.30489 
0.85654 49.6864 4.59623 0.85654 49.053 5.70281 13.3827 49.053 4.59623 
8.6091 49.7146 4.59623 8.6091 49.053 5.7247 -22.4012 -39.4739 12.3488 
-14.6486 -41.0132 12.3488 -6.89603 -42.5001 12.3488 0.85654 -42.626 12.3488 
8.6091 -41.5003 12.3488 16.3617 -39.3749 12.3488 24.1142 -37.0049 12.3488 
-37.9063 -30.3112 12.3488 -29.8486 -36.2252 12.3488 -30.1537 -36.0151 12.3488 
[...]
POINT_DATA 542
SCALARS ImageScalars float
LOOKUP_TABLE default
0 0 0 0 0 0 0 0 0 
0 0 0 0 0 0 0 0 0 
0 0 0 0 0 0 0 0 0 
0 0 0 0 0 0 0 0 0 
0 0 0 0 0 0 0 0 0 
0 0 0 0 0 0 0 0 0 
0 0 0 0 0 0 0 0 0 
0 0 0 0 0 0 0 0 0 
0 0 0 0 0 0 0 0 0 
0 0 0 0 0 0 0 0 0 
0 0 0 0 0 0 0 0 0 
0 0 0 0 0 0 0 0 0 
0 0 0 0 0 0 0 0 0 
0 0 0 0 0 0 0 0 0 
0 0 0 0 0 0 0 0 0 
0 0 0 0 0 0 0 0 0 
0 0 0 0 0 0 0 0 0 
0 0 0 0 0 0 0 0 0 
0 0 0 0 0 0 0 0 0 
0 0 0 0 0 0 0 0 0 
0 0 0 0 0 0 0 0 0 
0 0 0 0 0 0 0 0 0 
0 0 0 0 0 0 0 0 0 
0 0 0 0 0 0 0 0 0 
0 0 0 0 0 0 0 0 0 
0 0 0 0 0 0 0 0 0 
0 0 0 0 0 0 0 0 0 
0 0 0 0 0 0 0 0 0 
0 0 0 0 0 0 0 0 0 
0 0 0 0 0 0 0 0 0 
0 0 0 0 0 0 0 0 0 
0 0 0 0 0 0 0 0 0 
0 0 0 0 0 0 0 0 0 
0 0 0 0 0 0 0 0 0 
0 0 0 0 0 0 0 0 0 
0 0 0 0 0 0 0 0 0 
0 0 0 0 0 0 0 0 0 
0 0 0 0 0 0 0 0 0 
0 0 0 0 0 0 0 0 0 
0 0 0 0 0 0 0 0 0 
0 0 0 0 0 0 0 0 0 
0 0 0 0 0 0 0 0 0 
0 0 0 0 0 0 0 0 0 
0 0 0 0 0 0 0 0 0 
0 0 0 0 0 0 0 0 0 
0 0 0 0 0 0 0 0 0 
0 0 0 0 0 0 0 0 0 
0 0 0 0 0 0 0 0 0 
0 0 0 0 0 0 0 0 0 
0 0 0 0 0 0 0 0 0 
0 0 0 0 0 0 0 0 0 
0 0 0 0 0 0 0 0 0 
0 0 0 0 0 0 0 0 0 
0 0 0 0 0 0 0 0 0 
0 0 0 0 0 0 0 0 0 
0 0 0 0 0 0 0 0 0 
0 0 0 0 0 0 0 0 0 
0 0 0 0 0 0 0 0 0 
0 0 0 0 0 0 0 0 0 
0 0 0 0 0 0 0 0 0 
0 0 
NORMALS Normals float
0.265134 0.63702 0.723816 0.0989257 0.515208 0.851337 -0.0182454 0.440941 0.89735 
-0.137381 0.471088 0.871322 -0.213545 0.57168 0.7922 0.513135 0.551401 0.657761 
0.272915 0.398395 0.87567 0.185734 0.235135 0.954052 0.00578963 0.191579 0.98146 
-0.0655269 0.135228 0.988645 -0.0324669 0.148408 0.988393 -0.0826063 0.261259 0.961728 
-0.0872018 0.351118 0.932262 -0.06917 0.416641 0.906436 -0.210837 0.558269 0.802424 
0.35678 0.29507 0.886364 0.152604 0.210324 0.965648 0.0312067 0.0674454 0.997235 
-0.0256277 -0.0492332 0.998458 -0.0734439 -0.0449511 0.996286 -0.00144597 -0.0668509 0.997762 
0.0265178 0.0138219 0.999553 0.00531817 0.123369 0.992347 -0.0161982 0.209076 0.977765 
-0.128508 0.203336 0.970639 -0.252369 0.311111 0.916253 -0.542312 0.477606 0.691223 
0.555369 0.279112 0.783366 0.212941 0.184094 0.959565 0.0407518 0.0797188 0.995984 
-0.0717692 0.00478712 0.99741 -0.104492 -0.127894 0.986268 -0.0903047 -0.204301 0.974734 
0.030487 -0.112447 0.99319 0.115831 -0.0553083 0.991728 0.105784 -0.0375903 0.993678 
0.0255252 0.00946272 0.999629 -0.0846136 0.06557 0.994254 -0.148475 0.191438 0.97021 
-0.403814 0.211802 0.889986 0.408304 0.126225 0.904077 0.177422 0.0583915 0.982401 
-0.0199915 -0.0005081 0.9998 -0.177168 -0.068292 0.981808 -0.228732 -0.139375 0.963461 
-0.0652841 -0.019711 0.997672 0.157752 0.0731637 0.984765 0.097386 0.0861711 0.991509 
0.0697374 -0.0953279 0.993 0.0907727 -0.0824634 0.992452 0.0618101 0.00561101 0.998072 
-0.138538 0.107427 0.984513 -0.327688 0.120901 0.937019 -0.632242 0.167859 0.756368 
0.664612 0.134815 0.734926 0.323638 0.0573046 0.944444 0.0943899 -0.00486729 0.995523 
-0.0892342 -0.0541335 0.994538 -0.210057 -0.0944657 0.973115 -0.0528168 -0.131016 0.989972 
0.172706 0.266041 0.948364 0.103654 -0.0600945 0.992796 -0.0990333 0.205107 0.973716 
-0.0538337 0.0277626 0.998164 0.128583 -0.0212756 0.991471 0.101136 -0.0154847 0.994752 
-0.0632386 -0.00162736 0.997997 -0.280689 0.0343055 0.959185 -0.605004 0.0398538 0.795224 
0.568176 0.0597815 0.820733 0.25079 -0.0214929 0.967803 0.0734708 -0.00911999 0.997256 
-0.106428 -0.0603564 0.992487 -0.245384 -0.0691091 0.966959 -0.0159456 -0.0560647 0.9983 
0.0714068 -0.0890002 0.993469 0.20173 0.0737119 0.976663 0.154766 0.0417962 0.987067 
-0.128774 0.0658189 0.989487 0.0432282 -0.0111785 0.999003 0.0815366 -0.0233655 0.996396 
-0.0761676 -0.0600263 0.995287 -0.263083 -0.029168 0.964332 -0.483546 0.0016247 0.875317 
0.505825 -0.0387783 0.861764 0.257303 -0.0298372 0.96587 0.0632594 -0.0911909 0.993822 
-0.143211 -0.0858572 0.985961 -0.197897 0.0102707 0.980169 -0.0143046 0.109896 0.99384 
0.245841 -0.131978 0.960283 0.182284 0.0835911 0.979686 -0.0338518 -0.178654 0.98333 
-0.140138 -0.0550865 0.988598 0.0442907 -0.0203915 0.998811 0.0509084 -0.0472407 0.997585 
-0.0611148 -0.109342 0.992124 -0.238969 -0.0223225 0.970771 -0.524911 -0.00646232 0.851133 
0.531673 -0.191046 0.825122 0.235976 -0.199556 0.951048 0.0160373 -0.192592 0.981148 
-0.0144974 -0.0963676 0.99524 -0.0620865 0.00247546 0.998068 -0.0677921 0.109012 0.991726 
0.0192184 7.73718e-05 0.999815 0.0941084 -0.135135 0.986348 0.0293032 -0.212323 0.97676 
0.00712326 -0.080476 0.996731 0.0535785 -0.0483772 0.997391 -0.00759638 -0.118709 0.9929 
-0.065191 -0.101738 0.992673 -0.217208 -0.219297 0.951173 -0.512707 -0.177238 0.84007 
0.349086 -0.402632 0.846184 0.171746 -0.282859 0.94366 0.0465509 -0.151915 0.987297 
0.0083041 -0.127005 0.991867 -0.00174984 -0.0521643 0.998637 -0.0314099 -0.0309477 0.999027 
-0.00374697 -0.0868884 0.996211 0.0185667 -0.143412 0.989489 0.0254398 -0.149774 0.988393 
-0.00030751 -0.193699 0.981061 -0.0100648 -0.247069 0.968946 -0.143874 -0.305782 0.941168 
-0.348744 -0.373805 0.859446 0.16586 -0.376464 0.911463 0.045835 -0.320819 0.946031 
0.0287984 -0.281109 0.959244 -0.0142596 -0.242613 0.970018 -0.0208586 -0.228574 0.973303 
-0.0302428 -0.271701 0.961906 -0.0298975 -0.307351 0.951126 -0.0574703 -0.331528 0.941693 
-0.169116 -0.415283 0.893834 0.287102 0.700035 0.653852 0.162941 0.722472 0.671926 
-0.00530169 0.723298 0.690516 0.0188818 0.995342 0.0945392 -0.159565 0.691681 0.704356 
-0.235651 0.623689 0.745306 0.518951 0.564013 0.642323 0.340036 0.678795 0.650855 
0.382267 0.621111 0.684174 0.460594 0.794931 0.39489 -0.196002 0.641059 0.742043 
-0.137172 0.647099 0.749964 -0.184673 0.772729 0.607277 -0.173112 0.687478 0.70527 
-0.256086 0.888462 0.380861 -0.274457 0.688631 0.671163 0.525958 0.557331 0.642457 
-0.386996 0.674741 0.628457 -0.394322 0.668079 0.631015 -0.409053 0.693945 0.592551 
-0.578817 0.515914 0.631509 0.622343 0.424372 0.657722 0.645744 0.409204 0.644644 
0.698945 0.467529 0.541196 -0.610244 0.492164 0.620787 0.66766 0.341003 0.661775 
-0.625833 0.360347 0.691725 -0.684006 0.274629 0.675807 -0.836323 0.443656 0.322078 
0.718454 0.259043 0.645539 0.711853 0.191861 0.675614 0.801299 0.297172 0.519238 
-0.713574 0.179248 0.677261 0.6978 0.141889 0.702099 -0.688569 0.0574217 0.722894 
0.650988 0.0791306 0.754952 -0.620102 0.0185594 0.784302 0.621976 -0.0343644 0.782282 
0.963118 -0.0418403 0.265807 -0.614406 -0.020665 0.788719 0.59139 -0.220378 0.775688 
0.562594 -0.332298 0.757011 -0.634547 -0.228985 0.738184 -0.581324 -0.371624 0.72385 
0.41128 -0.433951 0.801583 0.643841 -0.589776 0.487476 0.378305 -0.430516 0.819476 
0.256855 -0.500725 0.82662 -0.19851 -0.530996 0.823794 -0.448575 -0.45992 0.766325 
-0.390695 -0.484879 0.782464 -0.703353 -0.60291 0.376555 0.496864 -0.683463 0.534794 
0.248823 -0.498077 0.830666 0.27864 -0.544916 0.790839 0.191234 -0.527655 0.827653 
0.0703635 -0.504124 0.86076 0.0641373 -0.511653 0.856795 0.0198819 -0.510308 0.859762 
-0.027085 -0.471408 0.881499 -0.0519103 -0.466429 0.883034 -0.0125495 -0.457108 0.889323 
-0.0758185 -0.544423 0.835377 -0.195138 -0.500516 0.843448 -0.214413 -0.485268 0.847669 
-0.220495 -0.581284 0.783256 -0.535178 -0.743492 0.401005 0.267523 -0.789743 0.55203 
0.104688 -0.677305 0.728216 0.0799677 -0.607751 0.790091 0.0251673 -0.546232 0.837256 
-0.0273015 -0.523685 0.851475 -0.0617513 -0.538697 0.840234 -0.0464488 -0.598284 0.799937 
-0.10895 -0.683315 0.721949 -0.290326 -0.810835 0.50819 0.0205064 0.998414 0.0524388 
0.474784 0.875667 0.088246 0.333067 0.940947 0.060697 0.0598172 0.997128 0.046449 
0.173572 0.984291 0.032302 -0.0555388 0.996595 0.0609405 0.0235187 0.999716 -0.00380162 
-0.142203 0.987222 0.071909 -0.249522 0.959929 0.12757 -0.278826 0.946079 0.164895 
-0.297553 0.948499 0.108679 0.521122 0.847857 0.09783 0.621038 0.777933 0.0955592 
-0.333631 0.937286 0.10092 -0.369611 0.924411 0.0940898 -0.506021 0.86113 0.0489654 
0.7205 0.683844 0.115056 0.785602 0.604788 0.130615 -0.597676 0.801302 0.0264238 
-0.688714 0.724911 0.0133422 0.841579 0.52421 0.130192 -0.791697 0.6109 0.00415707 
-0.872316 0.488913 0.00533935 0.900352 0.412138 0.139671 0.906257 0.400807 0.134358 
-0.899277 0.437165 0.0137214 -0.836419 0.457278 -0.302159 0.9191 0.367388 0.14241 
-0.946198 0.323164 0.0165326 0.944697 0.277516 0.174738 -0.979161 0.195866 0.0536696 
0.955928 0.185063 0.227933 0.970543 0.0662153 0.231651 -0.997001 0.0593473 0.0496682 
0.972383 -0.0361182 0.230579 0.964686 -0.097003 0.244891 0.97895 -0.0398575 -0.20017 
-0.992977 -0.0793055 0.0877883 0.92529 -0.270052 0.266292 -0.950989 -0.297954 0.082726 
0.783375 -0.551342 0.286959 0.697855 -0.657398 0.2843 -0.804846 -0.574991 0.146999 
-0.738212 -0.654621 0.162835 0.610081 -0.740567 0.281712 0.542607 -0.791832 0.280321 
0.441308 -0.859734 0.257109 -0.380184 -0.885665 0.266568 -0.638047 -0.743667 0.199636 
-0.564224 -0.796728 0.216507 0.421661 -0.873354 0.243834 0.333807 -0.910446 0.244254 
0.201603 -0.930735 0.305105 0.133747 -0.929201 0.344524 0.0917319 -0.919183 0.382998 
0.0200063 -0.923505 0.383063 -0.0790306 -0.909939 0.407143 -0.167475 -0.895018 0.413394 
-0.272096 -0.899555 0.341708 -0.338895 -0.896245 0.286174 -0.298128 -0.89886 0.321202 
0.111098 -0.993712 -0.0138959 0.0203275 -0.965288 0.260394 -0.0785632 -0.985721 0.148935 
0.405044 0.832773 -0.377397 0.270396 0.840651 -0.469246 0.183522 0.867789 -0.461803 
0.0425697 0.905187 -0.422875 -0.109144 0.898838 -0.424474 -0.194835 0.904508 -0.379347 
-0.240387 0.897666 -0.369337 -0.301502 0.888871 -0.34497 0.423327 0.82474 -0.374965 
0.571285 0.725573 -0.383638 0.398386 0.81735 -0.416206 0.218074 0.752824 -0.621048 
0.160239 0.660704 -0.733344 0.0539461 0.579306 -0.813323 -0.0471689 0.621893 -0.78168 
-0.142859 0.696953 -0.702743 -0.206276 0.804505 -0.556976 -0.31931 0.880413 -0.350591 
-0.298179 0.870756 -0.390989 -0.406866 0.798746 -0.443244 -0.512795 0.720399 -0.466975 
0.629537 0.682203 -0.371864 0.752555 0.572276 -0.325823 0.529081 0.650456 -0.544959 
0.323494 0.471212 -0.820555 -0.357871 0.597949 -0.717207 -0.533462 0.701904 -0.471963 
-0.508754 0.684255 -0.52246 -0.644037 0.552968 -0.528624 0.795754 0.512077 -0.323347 
0.719988 0.489075 -0.492364 -0.428706 0.371468 -0.823542 -0.672955 0.508725 -0.536964 
-0.614021 0.49284 -0.616512 0.845578 0.414211 -0.33679 0.866783 0.39105 -0.309464 
0.589293 0.318248 -0.742598 -0.694515 0.411175 -0.59041 -0.521287 0.262261 -0.812083 
-0.735831 0.344988 -0.582697 0.880641 0.362254 -0.305358 0.815136 0.335877 -0.471954 
-0.427613 0.156954 -0.890232 -0.789419 0.232719 -0.56803 -0.699561 0.233513 -0.675341 
0.893718 0.309566 -0.324711 0.715507 0.242908 -0.655016 -0.764931 0.14749 -0.626998 
-0.672877 0.135876 -0.727168 0.941844 0.196108 -0.272894 -0.76025 0.0859698 -0.643917 
-0.618977 0.0660067 -0.782631 0.958752 -0.0397289 -0.281455 -0.773855 -0.0646984 -0.630049 
-0.588233 -0.0289942 -0.808172 0.921057 -0.236861 -0.309114 0.620991 -0.174383 -0.764174 
-0.279873 -0.166415 -0.945504 -0.78917 -0.230134 -0.569429 -0.695434 -0.231232 -0.680369 
0.80003 -0.533169 -0.275105 0.707017 -0.650192 -0.278167 0.617126 -0.484103 -0.620322 
-0.433629 -0.344628 -0.832584 -0.733834 -0.442811 -0.515176 -0.720484 -0.462033 -0.517135 
-0.70754 -0.443847 -0.549897 0.605275 -0.748487 -0.270943 0.529111 -0.803069 -0.274083 
0.469063 -0.690061 -0.551177 0.417544 -0.860654 -0.291429 0.288765 -0.54903 -0.784335 
-0.278678 -0.317014 -0.906554 -0.490557 -0.770986 -0.406122 -0.366919 -0.513946 -0.77539 
-0.582674 -0.671088 -0.458401 -0.54568 -0.7054 -0.452376 -0.535399 -0.659035 -0.528225 
0.388628 -0.870666 -0.301513 0.318854 -0.882681 -0.345263 0.285753 -0.811841 -0.509176 
0.258788 -0.919987 -0.294369 0.271089 -0.673593 -0.687592 0.208794 -0.952922 -0.219876 
-0.222096 -0.958083 -0.180971 -0.305119 -0.906971 -0.290355 -0.252464 -0.663946 -0.703874 
-0.457232 -0.826976 -0.327186 -0.364405 -0.890454 -0.272583 -0.33313 -0.736718 -0.588447 
0.139634 -0.965235 -0.220963 0.112447 -0.967704 -0.22562 0.108035 -0.956042 -0.272601 
0.0159099 -0.972829 -0.230976 0.0166904 -0.952841 -0.303011 -0.160556 -0.967859 -0.193573 
-0.0685494 -0.973365 -0.218772 -0.0606373 -0.953698 -0.29459 0.169566 0.545295 -0.820914 
0.112509 0.52627 -0.842842 0.0530636 0.511295 -0.857766 -0.0352715 0.551454 -0.833459 
-0.115974 0.550327 -0.826856 -0.165334 0.545972 -0.821328 -0.261445 0.46799 -0.844175 
0.391771 0.418832 -0.819204 0.315852 0.467186 -0.825818 0.318718 0.463376 -0.826862 
0.159993 0.411809 -0.897115 0.0554761 0.357041 -0.93244 0.0287911 0.304724 -0.952005 
-0.00815354 0.302868 -0.952998 -0.0649778 0.337786 -0.938977 -0.153951 0.41255 -0.897831 
-0.27306 0.455801 -0.847162 -0.25897 0.435223 -0.862273 -0.323499 0.403664 -0.855806 
0.433517 0.384664 -0.814921 0.367755 0.362674 -0.856285 0.185687 0.277478 -0.942617 
0.0762091 0.167806 -0.98287 0.0215992 0.119138 -0.992643 -0.00477788 0.0829605 -0.996541 
0.00460672 0.0811706 -0.99669 -0.0200648 0.0977066 -0.995013 -0.0967186 0.138808 -0.985585 
-0.162302 0.214278 -0.963194 -0.360745 0.322951 -0.874966 -0.293669 0.294089 -0.909544 
-0.320805 0.244331 -0.915088 0.540799 0.301763 -0.78516 0.550774 0.294396 -0.781011 
0.271578 0.224204 -0.935937 0.100783 0.142634 -0.984631 0.00927706 0.0612562 -0.998079 
-0.0321401 -0.0460358 -0.998423 -0.0163764 -0.0684923 -0.997517 0.00766937 -0.0132976 -0.999882 
-0.00085222 -0.0402202 -0.99919 -0.0244718 -0.011653 -0.999633 -0.103389 0.0641875 -0.992568 
-0.226383 0.108296 -0.967999 -0.334602 0.221168 -0.916038 -0.294742 0.2136 -0.931398 
0.558089 0.250504 -0.791066 0.435944 0.205273 -0.876251 0.22679 0.137712 -0.964159 
0.0321371 0.0828903 -0.99604 -0.116392 0.000109292 -0.993203 -0.110811 -0.081356 -0.990506 
0.0243356 0.0103631 -0.99965 0.0340212 0.131213 -0.99077 -0.0167632 0.00522103 -0.999846 
0.00749742 -0.0248844 -0.999662 -0.0495471 0.00495706 -0.99876 -0.148625 0.0469184 -0.98778 
-0.347098 0.117122 -0.930487 -0.275902 0.109062 -0.954978 -0.329396 0.116484 -0.936979 
0.597207 0.201163 -0.776452 0.622415 0.166124 -0.764854 0.371886 0.167819 -0.912983 
0.144423 0.0958002 -0.984868 -0.0389881 0.0251679 -0.998923 -0.152507 0.00669303 -0.98828 
-0.0192576 0.00400496 -0.999807 0.234956 0.240675 -0.941738 -0.0514191 -0.047131 -0.997564 
-0.158562 0.0512996 -0.986015 -0.0274792 0.0175976 -0.999467 -0.0303356 0.00876146 -0.999501 
-0.114574 0.033277 -0.992857 -0.210772 0.0694347 -0.975066 -0.331107 0.11739 -0.936263 
-0.325898 0.116028 -0.938258 0.623981 0.144077 -0.768043 0.595542 0.139441 -0.79113 
0.274675 0.0656524 -0.959293 0.0869733 0.0158662 -0.996084 -0.0578966 -0.0119375 -0.998251 
-0.137947 -0.00602167 -0.990421 0.0808402 0.0155493 -0.996606 -0.01338 0.0310943 -0.999427 
-0.121048 -0.0638182 -0.990593 0.0474419 2.68637e-05 -0.998874 -0.0333943 -0.0200423 -0.999241 
-0.0337292 -0.0283029 -0.99903 -0.0908321 -0.00796659 -0.995834 -0.193082 0.0147758 -0.981071 
-0.364701 0.0344148 -0.930488 -0.316268 0.0290862 -0.948224 0.604872 -0.067417 -0.793464 
0.593685 -0.135473 -0.793212 0.564253 -0.0780411 -0.821905 0.24139 -0.0544525 -0.968899 
0.069879 -0.0553981 -0.996016 -0.0584933 -0.068007 -0.995969 -0.131728 -0.0460234 -0.990217 
0.058236 0.0266093 -0.997948 0.119987 -0.106755 -0.987019 -0.0720154 0.0732385 -0.994711 
-0.109729 -0.0114726 -0.993895 -0.0559616 -0.0246312 -0.998129 -0.0186412 -0.0322208 -0.999307 
-0.0723334 -0.0321695 -0.996862 -0.174405 -0.0576898 -0.982983 -0.351768 -0.051377 -0.934676 
-0.284183 -0.122431 -0.950921 -0.307145 -0.0562835 -0.949997 0.580664 -0.171422 -0.795892 
0.279035 -0.182664 -0.942748 0.0859549 -0.182479 -0.979445 -0.043678 -0.101315 -0.993895 
-0.0435029 -0.037614 -0.998345 0.0317709 0.0503077 -0.998228 0.0262206 -0.0556086 -0.998108 
-0.0325873 -0.0465828 -0.998383 -0.0549625 -0.00704727 -0.998464 -0.0541558 0.0228788 -0.99827 
-0.0420299 -0.0302525 -0.998658 -0.112487 -0.0916516 -0.989417 -0.262803 -0.15564 -0.952213 
-0.217481 -0.100795 -0.970846 0.3563 -0.423254 -0.83301 0.319738 -0.460071 -0.828313 
0.304427 -0.421279 -0.854311 0.248324 -0.474028 -0.844768 0.17832 -0.329307 -0.927232 
0.0796064 -0.224731 -0.971164 0.0304579 -0.121428 -0.992133 0.0426145 -0.0616297 -0.997189 
0.0147781 -0.0807521 -0.996625 -0.0202114 -0.0585196 -0.998082 -0.0391325 -0.0510011 -0.997932 
-0.08293 -0.0576978 -0.994884 -0.130559 -0.116119 -0.984617 -0.275967 -0.31385 -0.908482 
-0.152866 -0.189789 -0.969852 -0.309101 -0.295695 -0.903892 -0.285362 -0.329207 -0.900106 
-0.276066 -0.293737 -0.915154 0.234802 -0.484176 -0.842877 0.198286 -0.514778 -0.834078 
0.167716 -0.411097 -0.896031 0.205984 -0.505182 -0.83807 0.115048 -0.30387 -0.945741 
0.0703289 -0.247288 -0.966386 0.0265656 -0.213805 -0.976515 -0.00159069 -0.211097 -0.977464 
-0.0517523 -0.175285 -0.983157 -0.123193 -0.226776 -0.966124 -0.275623 -0.316224 -0.907763 
-0.204851 -0.425939 -0.881256 -0.170127 -0.303958 -0.937372 0.189225 -0.539948 -0.820153 
0.170263 -0.543891 -0.821701 0.166261 -0.520256 -0.83767 0.0448996 -0.572047 -0.818991 
0.0472725 -0.473135 -0.879721 0.0239351 -0.53793 -0.842649 0.0223942 -0.466198 -0.884397 
-0.02622 -0.569641 -0.821475 -0.0433985 -0.44057 -0.896669 -0.229263 -0.461871 -0.856804 
-0.223962 -0.475081 -0.850964 -0.22183 -0.437628 -0.871363 
