# vtk DataFile Version 4.2
vtk output
ASCII
DATASET POLYDATA
POINTS 568 float
-27.2064 -36.6056 -14.2873 -19.2944 -36.6056 -15.9927 -11.3824 -36.6056 -16.4237 
-3.47046 -36.6056 -16.402 4.44151 -36.6056 -16.0736 12.3535 -36.6056 -15.9183 
20.2655 -36.6056 -16.0076 28.1774 -36.6056 -14.6526 -43.0303 -28.6936 -14.3798 
-35.1184 -28.6936 -16.0065 -27.2064 -28.6936 -17.2321 -19.2944 -28.6936 -17.8944 
-11.3824 -28.6936 -18.245 -3.47046 -28.6936 -18.2046 4.44151 -28.6936 -18.1036 
12.3535 -28.6936 -18.273 20.2655 -28.6936 -19.083 28.1774 -28.6936 -18.3246 
36.0894 -28.6936 -17.3065 44.0014 -28.6936 -14.6837 -50.9423 -20.7817 -15.2872 
-43.0303 -20.7817 -17.0744 -35.1184 -20.7817 -17.7986 -27.2064 -20.7817 -18.4491 
-19.2944 -20.7817 -18.0662 -11.3824 -20.7817 -18.2296 -3.47046 -20.7817 -18.0327 
4.44151 -20.7817 -17.9305 12.3535 -20.7817 -18.3548 20.2655 -20.7817 -19.0059 
28.1774 -20.7817 -19.6771 36.0894 -20.7817 -18.7684 44.0014 -20.7817 -17.5647 
51.9134 -20.7817 -15.0602 -58.8543 -12.8697 -14.0211 -50.9423 -12.8697 -16.798 
-43.0303 -12.8697 -19.0764 -35.1184 -12.8697 -19.0093 -27.2064 -12.8697 -18.0622 
-19.2944 -12.8697 -16.9765 -11.3824 -12.8697 -17.2725 -3.47046 -12.8697 -18.4988 
4.44151 -12.8697 -17.4095 12.3535 -12.8697 -17.32 20.2655 -12.8697 -17.9637 
28.1774 -12.8697 -18.7989 36.0894 -12.8697 -19.3493 44.0014 -12.8697 -18.7251 
51.9134 -12.8697 -16.6245 59.8253 -12.8697 -13.4806 -58.8543 -4.95771 -12.685 
-50.9423 -4.95771 -17.0862 -43.0303 -4.95771 -18.6688 -35.1184 -4.95771 -19.3941 
-27.2064 -4.95771 -18.7354 -19.2944 -4.95771 -16.9905 -11.3824 -4.95771 -18.5264 
-3.47046 -4.95771 -18.781 4.44151 -4.95771 -18.8879 12.3535 -4.95771 -17.9694 
20.2655 -4.95771 -17.2319 28.1774 -4.95771 -18.4268 36.0894 -4.95771 -19.2097 
44.0014 -4.95771 -19.8549 51.9134 -4.95771 -17.146 59.8253 -4.95771 -13.3988 
-50.9423 2.95427 -15.5688 -43.0303 2.95427 -17.7552 -35.1184 2.95427 -18.4094 
-27.2064 2.95427 -18.2386 -19.2944 2.95427 -17.6605 -11.3824 2.95427 -19.3504 
-3.47046 2.95427 -16.7873 4.44151 2.95427 -18.3625 12.3535 2.95427 -19.0463 
20.2655 2.95427 -16.9493 28.1774 2.95427 -18.2527 36.0894 2.95427 -18.9582 
44.0014 2.95427 -19.2396 51.9134 2.95427 -17.0735 59.8253 2.95427 -13.4153 
-43.0303 10.8662 -14.8174 -35.1184 10.8662 -16.2079 -27.2064 10.8662 -16.8438 
-19.2944 10.8662 -17.5519 -11.3824 10.8662 -18.6875 -3.47046 10.8662 -18.5719 
4.44151 10.8662 -18.9563 12.3535 10.8662 -17.4461 20.2655 10.8662 -17.5231 
28.1774 10.8662 -18.4535 36.0894 10.8662 -18.7454 44.0014 10.8662 -18.5851 
51.9134 10.8662 -16.8015 59.8253 10.8662 -12.6444 -35.1184 18.7782 -13.6247 
-27.2064 18.7782 -15.305 -19.2944 18.7782 -17.0098 -11.3824 18.7782 -17.7517 
-3.47046 18.7782 -17.0048 4.44151 18.7782 -17.0394 12.3535 18.7782 -17.6022 
20.2655 18.7782 -18.3624 28.1774 18.7782 -19.2243 36.0894 18.7782 -18.3723 
44.0014 18.7782 -17.5409 51.9134 18.7782 -16.1771 -27.2064 26.6902 -13.4244 
-19.2944 26.6902 -16.0571 -11.3824 26.6902 -16.7859 -3.47046 26.6902 -16.2019 
4.44151 26.6902 -16.1598 12.3535 26.6902 -16.8134 20.2655 26.6902 -17.3687 
28.1774 26.6902 -17.4973 36.0894 26.6902 -17.0061 44.0014 26.6902 -15.5722 
-19.2944 34.6022 -13.5467 -11.3824 34.6022 -14.459 -3.47046 34.6022 -14.1298 
4.44151 34.6022 -13.6038 12.3535 34.6022 -13.4901 20.2655 34.6022 -13.6622 
28.1774 34.6022 -13.6288 -27.2064 -38.6077 -12.6227 -19.2944 -40.3962 -12.6227 
-11.3824 -41.6449 -12.6227 -11.3824 -44.5176 -6.27745 -3.47046 -41.5152 -12.6227 
-3.47046 -44.5176 -5.5797 4.44151 -40.855 -12.6227 12.3535 -40.4246 -12.6227 
20.2655 -39.7886 -12.6227 28.1774 -38.5519 -12.6227 -43.0303 -31.5103 -12.6227 
-32.524 -36.6056 -12.6227 -35.1184 -35.0432 -12.6227 -35.1184 -36.6056 -10.8443 
33.9251 -36.6056 -12.6227 36.0894 -35.5529 -12.6227 36.0894 -36.6056 -10.7643 
44.0014 -31.5738 -12.6227 -47.7298 -28.6936 -12.6227 -50.9423 -25.8938 -12.6227 
-50.9423 -28.6936 -9.87389 48.2018 -28.6936 -12.6227 51.9134 -24.9811 -12.6227 
51.9134 -28.6936 -8.38326 -55.0542 -20.7817 -12.6227 -58.8543 -16.1514 -12.6227 
-58.8543 -20.7817 -8.33731 55.8634 -20.7817 -12.6227 59.8253 -15.3095 -12.6227 
59.8253 -20.7817 -7.66423 -60.3507 -12.8697 -12.6227 60.8309 -12.8697 -12.6227 
-58.9333 -4.95771 -12.6227 -58.8543 -3.01162 -12.6227 60.8596 -4.95771 -12.6227 
-58.4505 2.95427 -12.6227 -58.8543 2.95427 -12.371 -50.9423 10.5345 -12.6227 
60.933 2.95427 -12.6227 67.7373 2.95427 -5.14762 -58.8543 10.8662 -9.28718 
-50.4845 10.8662 -12.6227 -50.9423 10.8662 -12.4798 -43.0303 16.263 -12.6227 
59.8554 10.8662 -12.6227 59.8253 11.5891 -12.6227 -50.9423 18.7782 -9.28681 
-39.0234 18.7782 -12.6227 -43.0303 18.7782 -11.5887 -35.1184 21.6802 -12.6227 
59.3353 18.7782 -12.6227 51.9134 24.7383 -12.6227 59.8253 18.7782 -12.3075 
-43.0303 26.6902 -7.51711 -29.6987 26.6902 -12.6227 -35.1184 26.6902 -10.8377 
-27.2064 29.0855 -12.6227 36.0894 33.8948 -12.6227 50.0512 26.6902 -12.6227 
44.0014 31.0155 -12.6227 51.9134 26.6902 -11.3618 -35.1184 34.6022 -5.46591 
-21.8439 34.6022 -12.6227 -27.2064 34.6022 -10.4394 -19.2944 36.018 -12.6227 
-11.3824 37.6541 -12.6227 -3.47046 37.0323 -12.6227 4.44151 36.0138 -12.6227 
12.3535 35.709 -12.6227 20.2655 35.8134 -12.6227 33.6358 34.6022 -12.6227 
28.1774 35.6881 -12.6227 36.0894 34.6022 -11.9277 44.0014 34.6022 -8.45957 
-19.2944 42.5141 -6.88463 -11.3824 42.5141 -8.10154 -3.47046 42.5141 -7.00429 
4.44151 42.5141 -4.75752 -11.3824 -44.9977 -4.71074 -3.47046 -44.78 -4.71074 
-35.1184 -39.2862 -4.71074 -27.2064 -42.352 -4.71074 -14.6678 -44.5176 -4.71074 
-19.2944 -43.8137 -4.71074 -11.3824 -44.5176 -2.50592 -0.00104616 -44.5176 -4.71074 
-3.47046 -44.5176 -3.10388 4.44151 -44.1612 -4.71074 12.3535 -43.6363 -4.71074 
20.2655 -42.4628 -4.71074 28.1774 -40.8256 -4.71074 36.0894 -38.8017 -4.71074 
-50.9423 -31.5159 -4.71074 -41.6579 -36.6056 -4.71074 -43.0303 -35.9915 -4.71074 
42.0453 -36.6056 -4.71074 44.0014 -35.8059 -4.71074 51.9134 -30.3768 -4.71074 
-54.0503 -28.6936 -4.71074 -58.8543 -23.3901 -4.71074 53.9123 -28.6936 -4.71074 
59.8253 -22.4328 -4.71074 -60.6841 -20.7817 -4.71074 61.1739 -20.7817 -4.71074 
59.8253 -20.7817 2.34027 -64.6128 -12.8697 -4.71074 65.1588 -12.8697 -4.71074 
-65.9788 -4.95771 -4.71074 67.7085 -4.95771 -4.71074 67.7373 -4.16994 -4.71074 
-65.0788 2.95427 -4.71074 -66.7663 2.95427 0.544569 67.964 2.95427 -4.71074 
67.7373 4.66504 -4.71074 67.7373 2.95427 -0.205129 -62.7741 10.8662 -4.71074 
-58.8543 16.9371 -4.71074 66.7686 10.8662 -4.71074 -57.166 18.7782 -4.71074 
-58.8543 18.7782 -2.84846 -50.9423 24.6397 -4.71074 64.2425 18.7782 -4.71074 
59.8253 25.0961 -4.71074 -48.1281 26.6902 -4.71074 -50.9423 26.6902 -2.57879 
-43.0303 30.2377 -4.71074 58.3332 26.6902 -4.71074 51.9134 32.2935 -4.71074 
-36.4242 34.6022 -4.71074 -43.0303 34.6022 0.695709 -35.1184 35.4261 -4.71074 
-27.2064 41.3078 -4.71074 12.3535 41.4087 -4.71074 20.2655 40.5367 -4.71074 
28.1774 39.8185 -4.71074 36.0894 38.833 -4.71074 48.1747 34.6022 -4.71074 
44.0014 36.6953 -4.71074 -24.3301 42.5141 -4.71074 -27.2064 42.5141 -2.3376 
-19.2944 44.123 -4.71074 -11.3824 44.7801 -4.71074 -3.47046 43.9279 -4.71074 
4.6334 42.5141 -4.71074 4.44151 42.5399 -4.71074 -35.1184 -37.9273 3.20123 
-27.2064 -40.5397 3.20123 -19.2944 -41.9632 3.20123 -11.3824 -43.0902 3.20123 
-3.47046 -43.3963 3.20123 4.44151 -42.9448 3.20123 12.3535 -42.357 3.20123 
20.2655 -41.4177 3.20123 28.1774 -39.7413 3.20123 36.0894 -37.2863 3.20123 
-50.9423 -29.8393 3.20123 -38.4977 -36.6056 3.20123 -43.0303 -34.7393 3.20123 
-35.1184 -36.6056 5.76838 -27.2064 -36.6056 8.99019 28.1774 -36.6056 8.98767 
37.8381 -36.6056 3.20123 36.0894 -36.6056 4.43141 44.0014 -33.951 3.20123 
51.9134 -29.2327 3.20123 -52.2038 -28.6936 3.20123 -58.8543 -21.9054 3.20123 
-50.9423 -28.6936 4.6661 -43.0303 -28.6936 10.5191 44.0014 -28.6936 10.1369 
52.5766 -28.6936 3.20123 51.9134 -28.6936 3.98003 -59.7045 -20.7817 3.20123 
-58.8543 -20.7817 4.48598 59.6378 -20.7817 3.20123 59.8253 -20.526 3.20123 
-64.5901 -12.8697 3.20123 64.3304 -12.8697 3.20123 59.8253 -12.8697 9.20804 
-66.4933 -4.95771 3.20123 -66.7663 -2.62893 3.20123 67.1487 -4.95771 3.20123 
-67.4132 2.95427 3.20123 -66.7663 6.87953 3.20123 -66.7663 2.95427 5.28264 
67.535 2.95427 3.20123 -66.1092 10.8662 3.20123 66.2937 10.8662 3.20123 
-62.104 18.7782 3.20123 -58.8543 23.0978 3.20123 63.3217 18.7782 3.20123 
59.8253 23.5104 3.20123 59.8253 18.7782 7.60442 -55.4055 26.6902 3.20123 
-50.9423 30.6241 3.20123 44.0014 26.6902 10.6876 56.9928 26.6902 3.20123 
51.9134 30.9598 3.20123 51.9134 26.6902 8.2375 -45.1953 34.6022 3.20123 
-43.0303 35.9665 3.20123 -35.1184 40.819 3.20123 12.3535 41.8134 3.20123 
20.2655 40.7837 3.20123 28.1774 39.5593 3.20123 28.1774 34.6022 10.7529 
36.0894 38.0224 3.20123 36.0894 34.6022 8.9193 45.8262 34.6022 3.20123 
44.0014 35.5679 3.20123 44.0014 34.6022 4.67136 -31.5497 42.5141 3.20123 
-27.2064 44.4445 3.20123 -19.2944 46.5268 3.20123 -11.3824 46.4107 3.20123 
-3.47046 44.9792 3.20123 -3.47046 42.5141 10.1413 8.18245 42.5141 3.20123 
4.44151 43.146 3.20123 4.44151 42.5141 5.00485 -19.2944 -36.8147 11.1132 
-11.3824 -38.4544 11.1132 -3.47046 -39.1779 11.1132 4.44151 -39.1877 11.1132 
12.3535 -38.6607 11.1132 20.2655 -37.3702 11.1132 -35.1184 -32.309 11.1132 
-20.193 -36.6056 11.1132 -27.2064 -34.5802 11.1132 -19.2944 -36.6056 11.3217 
-11.3824 -36.6056 12.9705 -3.47046 -36.6056 13.546 4.44151 -36.6056 13.5876 
12.3535 -36.6056 13.2069 23.1613 -36.6056 11.1132 20.2655 -36.6056 11.9388 
28.1774 -34.7797 11.1132 36.0894 -31.3208 11.1132 -50.9423 -21.6056 11.1132 
-41.7042 -28.6936 11.1132 -43.0303 -27.8915 11.1132 -35.1184 -28.6936 13.5573 
-27.2064 -28.6936 15.2665 -19.2944 -28.6936 16.443 -11.3824 -28.6936 17.1372 
-3.47046 -28.6936 17.5681 4.44151 -28.6936 17.425 12.3535 -28.6936 17.0545 
20.2655 -28.6936 16.7773 28.1774 -28.6936 15.4628 41.8903 -28.6936 11.1132 
36.0894 -28.6936 12.9711 44.0014 -27.3408 11.1132 51.9134 -21.1217 11.1132 
-51.7497 -20.7817 11.1132 -58.8543 -13.1087 11.1132 -50.9423 -20.7817 11.6684 
[...]
POINT_DATA 568
SCALARS ImageScalars float
LOOKUP_TABLE default
0 0 0 0 0 0 0 0 0 
0 0 0 0 0 0 0 0 0 
0 0 0 0 0 0 0 0 0 
0 0 0 0 0 0 0 0 0 
0 0 0 0 0 0 0 0 0 
0 0 0 0 0 0 0 0 0 
0 0 0 0 0 0 0 0 0 
0 0 0 0 0 0 0 0 0 
0 0 0 0 0 0 0 0 0 
0 0 0 0 0 0 0 0 0 
0 0 0 0 0 0 0 0 0 
0 0 0 0 0 0 0 0 0 
0 0 0 0 0 0 0 0 0 
0 0 0 0 0 0 0 0 0 
0 0 0 0 0 0 0 0 0 
0 0 0 0 0 0 0 0 0 
0 0 0 0 0 0 0 0 0 
0 0 0 0 0 0 0 0 0 
0 0 0 0 0 0 0 0 0 
0 0 0 0 0 0 0 0 0 
0 0 0 0 0 0 0 0 0 
0 0 0 0 0 0 0 0 0 
0 0 0 0 0 0 0 0 0 
0 0 0 0 0 0 0 0 0 
0 0 0 0 0 0 0 0 0 
0 0 0 0 0 0 0 0 0 
0 0 0 0 0 0 0 0 0 
0 0 0 0 0 0 0 0 0 
0 0 0 0 0 0 0 0 0 
0 0 0 0 0 0 0 0 0 
0 0 0 0 0 0 0 0 0 
0 0 0 0 0 0 0 0 0 
0 0 0 0 0 0 0 0 0 
0 0 0 0 0 0 0 0 0 
0 0 0 0 0 0 0 0 0 
0 0 0 0 0 0 0 0 0 
0 0 0 0 0 0 0 0 0 
0 0 0 0 0 0 0 0 0 
0 0 0 0 0 0 0 0 0 
0 0 0 0 0 0 0 0 0 
0 0 0 0 0 0 0 0 0 
0 0 0 0 0 0 0 0 0 
0 0 0 0 0 0 0 0 0 
0 0 0 0 0 0 0 0 0 
0 0 0 0 0 0 0 0 0 
0 0 0 0 0 0 0 0 0 
0 0 0 0 0 0 0 0 0 
0 0 0 0 0 0 0 0 0 
0 0 0 0 0 0 0 0 0 
0 0 0 0 0 0 0 0 0 
0 0 0 0 0 0 0 0 0 
0 0 0 0 0 0 0 0 0 
0 0 0 0 0 0 0 0 0 
0 0 0 0 0 0 0 0 0 
0 0 0 0 0 0 0 0 0 
0 0 0 0 0 0 0 0 0 
0 0 0 0 0 0 0 0 0 
0 0 0 0 0 0 0 0 0 
0 0 0 0 0 0 0 0 0 
0 0 0 0 0 0 0 0 0 
0 0 0 0 0 0 0 0 0 
0 0 0 0 0 0 0 0 0 
0 0 0 0 0 0 0 0 0 
0 
NORMALS Normals float
0.213922 0.581671 0.784791 0.134311 0.489113 0.861817 0.0213083 0.439153 0.89816 
-0.0219062 0.444704 0.89541 -0.0309132 0.484143 0.874442 -0.00509438 0.525188 0.850971 
-0.0692143 0.592454 0.802625 -0.221537 0.692094 0.686969 0.271312 0.456152 0.847535 
0.193144 0.322718 0.926579 0.102374 0.22928 0.967962 0.0702163 0.107757 0.991695 
0.0188084 0.107347 0.994044 -0.00890429 0.0976194 0.995184 0.00427504 0.108827 0.994052 
0.0581895 0.13854 0.988646 -4.97333e-05 0.155352 0.987859 -0.0973441 0.264204 0.959542 
-0.23368 0.380656 0.894704 -0.365111 0.48419 0.795144 0.394472 0.33859 0.854253 
0.135905 0.285424 0.948717 0.0807017 0.172463 0.981705 0.0168472 0.0616436 0.997956 
-0.0133282 -0.0586391 0.99819 -0.0021338 -0.0571661 0.998362 -0.0189163 0.0176797 0.999665 
0.0207807 -0.044077 0.998812 0.0664947 -0.0600808 0.995976 0.0820841 -0.0698044 0.994178 
-0.01401 0.0352147 0.999282 -0.127278 0.115961 0.985065 -0.197385 0.236465 0.95138 
-0.424826 0.347382 0.835972 0.609033 0.129671 0.782473 0.300718 0.0921577 0.94925 
0.154868 0.0927835 0.983568 -0.0635884 0.0995012 0.993004 -0.127183 0.0185357 0.991706 
-0.0511058 -0.0678231 0.996388 0.0979778 0.000562347 0.995188 0.0043789 0.047008 0.998885 
-0.0727426 0.05254 0.995966 0.0349907 -0.0296728 0.998947 0.0926906 -0.111014 0.989487 
0.0865552 -0.0772159 0.99325 -0.00281927 0.0272813 0.999624 -0.175882 0.139452 0.974484 
-0.317177 0.106345 0.942385 -0.603621 0.161373 0.780769 0.620742 -0.0949697 0.778241 
0.318714 -0.0709681 0.94519 0.147398 -0.0752578 0.98621 0.00740645 -0.0367779 0.999296 
-0.144096 0.011343 0.989499 -0.0367774 0.0447943 0.998319 0.117565 0.140558 0.983068 
0.0215422 -0.103155 0.994432 -0.0514029 0.0756564 0.995808 -0.110294 0.106126 0.988217 
0.0352346 -0.06384 0.997338 0.123801 -0.0342596 0.991715 0.0878406 -0.024527 0.995833 
-0.119938 0.0293427 0.992348 -0.341412 0.0279839 0.939497 -0.546225 -0.00438053 0.837627 
0.318605 -0.239621 0.9171 0.176969 -0.237447 0.955144 0.0281034 -0.196604 0.98008 
-0.0469271 -0.117599 0.991952 0.0666949 0.0324188 0.997247 -0.0290284 -0.00148947 0.999577 
-0.0917009 0.00596974 0.995769 0.145997 0.00830191 0.98925 -0.107488 -0.0446508 0.993203 
-0.0217509 0.0188314 0.999586 0.122815 0.00169291 0.992428 0.0615661 -0.0292808 0.997673 
-0.111555 -0.0746644 0.990949 -0.309803 -0.0221483 0.950543 -0.524986 -0.0414082 0.850103 
0.188409 -0.352001 0.916841 0.118326 -0.280491 0.952535 0.0829084 -0.181073 0.979969 
0.115667 -0.0405322 0.992461 0.0642321 -0.0996767 0.992945 0.0164059 -0.00406188 0.999857 
-0.0701561 -0.0924355 0.993244 -0.0892286 -0.0709877 0.993478 0.0636044 0.0874128 0.99414 
0.0767909 0.0596563 0.995261 0.00876733 -0.0369075 0.99928 -0.131885 -0.105113 0.985676 
-0.314185 -0.0450824 0.948291 -0.592176 -0.0528642 0.804073 0.21529 -0.313308 0.924926 
0.199836 -0.200746 0.959045 0.150989 -0.091085 0.98433 -0.000903595 -0.118178 0.992992 
-0.044367 -0.145194 0.988408 0.0373981 -0.169824 0.984765 0.0826356 -0.0408403 0.995743 
0.101248 -0.00558613 0.994846 0.000318078 -0.0664309 0.997791 -0.0999682 -0.0982279 0.99013 
-0.119349 -0.186253 0.975226 -0.33758 -0.279281 0.898912 0.304768 -0.266786 0.914299 
0.200104 -0.199537 0.959241 0.00743047 -0.198826 0.980007 -0.0389239 -0.175709 0.983672 
0.0391394 -0.203879 0.978213 0.0723693 -0.233518 0.969656 0.0453696 -0.257875 0.965113 
-0.0194496 -0.305159 0.952103 -0.126358 -0.299716 0.945624 -0.279539 -0.398453 0.873552 
0.217125 -0.43531 0.873706 0.030119 -0.415025 0.909311 -0.0512206 -0.414078 0.908799 
-0.0390368 -0.480444 0.876156 0.00213852 -0.568319 0.822805 0.00839039 -0.593975 0.80444 
-0.0686601 -0.668124 0.740876 0.233493 0.696356 0.678653 0.159782 0.724909 0.670057 
0.0536567 0.74749 0.662103 0.0593055 0.988179 0.141366 -0.0409303 0.751944 0.657955 
-0.0531786 0.991413 0.11947 -0.0570761 0.748815 0.660317 -0.0600533 0.758513 0.648884 
-0.106747 0.804886 0.583749 -0.215582 0.807474 0.549099 0.321915 0.585921 0.743685 
0.29113 0.682809 0.670086 0.309252 0.647125 0.696845 0.349896 0.782527 0.514999 
-0.302846 0.746816 0.592072 -0.329159 0.70953 0.623074 -0.335905 0.81376 0.474301 
-0.402104 0.626715 0.667488 0.42365 0.535306 0.730731 0.484276 0.506291 0.713545 
0.576631 0.650976 0.493687 -0.481431 0.562367 0.672285 -0.519621 0.505621 0.688724 
-0.617995 0.703818 0.350316 0.545927 0.432429 0.717613 0.652024 0.269043 0.708859 
0.752798 0.527157 0.394208 -0.56924 0.443873 0.692057 -0.646212 0.261116 0.717098 
-0.769205 0.563397 0.301509 0.695544 0.140626 0.704587 -0.661806 0.177209 0.728429 
0.624217 -0.0942747 0.775542 0.612681 -0.104435 0.7834 -0.600979 0.00438091 0.799253 
0.569824 -0.143759 0.809094 0.587894 -0.136786 0.797289 0.291526 -0.36357 0.884777 
-0.584379 -0.0399646 0.810496 -0.964041 -0.0518094 0.260653 0.562965 -0.402364 0.721923 
0.285761 -0.365375 0.885913 0.293262 -0.366908 0.882823 0.211676 -0.361489 0.90803 
-0.593567 -0.0531771 0.803026 -0.594332 -0.075147 0.800701 0.412838 -0.479633 0.774285 
0.214702 -0.340335 0.915464 0.223419 -0.379025 0.898011 0.241099 -0.328437 0.913236 
-0.58178 -0.286853 0.761083 -0.451627 -0.449291 0.770825 -0.607445 -0.290195 0.739458 
0.402898 -0.528378 0.747321 0.297653 -0.29625 0.907545 0.29705 -0.382561 0.874876 
0.319904 -0.321175 0.891352 -0.221848 -0.686488 0.692473 -0.443185 -0.46781 0.764684 
-0.293419 -0.606075 0.739309 -0.513783 -0.520335 0.682114 0.438929 -0.604117 0.66512 
0.262678 -0.444229 0.85654 0.373233 -0.469747 0.800022 0.221649 -0.49062 0.842712 
0.0359527 -0.533216 0.845215 -0.0659565 -0.519018 0.852215 -0.0532923 -0.542799 0.83817 
-0.00814272 -0.619137 0.785241 -0.00171303 -0.655225 0.755432 -0.18066 -0.707894 0.682824 
-0.0826315 -0.717723 0.691409 -0.227125 -0.743523 0.628958 -0.337611 -0.841074 0.422627 
0.197667 -0.801621 0.564209 0.00965677 -0.816908 0.576687 -0.124461 -0.868885 0.479112 
-0.149427 -0.938476 0.311344 0.0593433 0.997303 0.0431976 -0.0531833 0.996196 0.069025 
0.366644 0.925456 0.0954103 0.270451 0.959714 0.0761924 0.103248 0.993766 0.0420608 
0.165321 0.985175 0.0458116 0.0665236 0.996062 -0.058613 -0.0604385 0.9955 0.072984 
-0.0458261 0.998949 0.000614603 -0.0704947 0.99419 0.0813447 -0.113076 0.990527 0.0779065 
-0.163577 0.983983 0.0708477 -0.22545 0.972667 0.0556027 -0.312755 0.947693 0.0637409 
0.603807 0.788318 0.118205 0.4097 0.907279 0.0948172 0.424462 0.899812 0.100847 
-0.414493 0.907411 0.0692935 -0.45416 0.887775 0.0747879 -0.615731 0.780208 0.110227 
0.674764 0.727774 0.12263 0.785071 0.601403 0.148249 -0.659306 0.741957 0.121716 
-0.787159 0.607437 0.106776 0.829401 0.534834 0.16139 -0.811322 0.572554 0.118061 
-0.748067 0.589328 -0.305102 0.925456 0.291393 0.242118 -0.916956 0.354902 0.182309 
0.941588 0.0423101 0.334098 -0.957093 0.170892 0.234026 -0.960486 0.149302 0.234895 
0.859491 -0.160597 0.485266 0.989425 -0.0657759 0.129271 -0.969122 -0.0514094 0.241162 
-0.966509 -0.0926787 0.239315 -0.99485 -0.0556364 -0.0847207 0.749958 -0.36515 0.55157 
0.635327 -0.469045 0.61348 -0.939512 -0.236976 0.247302 0.596109 -0.499927 0.628273 
0.676661 -0.528898 0.512247 0.45401 -0.588512 0.668976 -0.884841 -0.416297 0.209172 
-0.755145 -0.631816 0.174824 0.439759 -0.595425 0.67237 0.503489 -0.659298 0.558412 
0.436514 -0.612245 0.659251 -0.710902 -0.677566 0.188478 -0.560129 -0.814049 0.153558 
0.441556 -0.62454 0.644188 0.52887 -0.779435 0.335824 0.445966 -0.629698 0.636078 
0.377149 -0.748318 0.545691 -0.124059 -0.950186 0.28593 -0.0927426 -0.971037 0.220195 
-0.108078 -0.975092 0.193689 -0.202062 -0.963743 0.174269 -0.461507 -0.874378 0.149916 
-0.361584 -0.914992 0.179015 0.301781 -0.804281 0.511918 0.366404 -0.848171 0.382562 
0.182514 -0.859759 0.476973 -0.0151644 -0.915094 0.402955 -0.13908 -0.925946 0.351114 
-0.149259 -0.939621 0.307952 -0.149706 -0.939277 0.308783 0.322927 0.892123 -0.315967 
0.233677 0.894067 -0.382151 0.145727 0.915938 -0.373926 0.0823481 0.933362 -0.349363 
-0.0101131 0.955957 -0.293331 -0.0631417 0.962976 -0.262087 -0.0953736 0.961943 -0.256066 
-0.155499 0.948188 -0.277054 -0.245352 0.92292 -0.296684 -0.327174 0.88268 -0.337391 
0.589205 0.727595 -0.351345 0.350843 0.879153 -0.322489 0.402711 0.846347 -0.348599 
0.313063 0.847655 -0.428336 0.190882 0.754714 -0.627671 -0.260876 0.779696 -0.569225 
-0.354006 0.86983 -0.343621 -0.33165 0.860708 -0.386251 -0.441263 0.815715 -0.374026 
-0.573561 0.743532 -0.343785 0.612653 0.709579 -0.348072 0.755676 0.571042 -0.320725 
0.581633 0.696613 -0.420039 0.369554 0.602926 -0.707043 -0.388462 0.605646 -0.694472 
-0.589345 0.728664 -0.348885 -0.575015 0.721561 -0.385626 0.776622 0.549693 -0.307727 
0.738557 0.553357 -0.385136 -0.73157 0.5828 -0.353765 -0.735995 0.577517 -0.35325 
0.882255 0.392886 -0.259359 -0.859706 0.380293 -0.341002 -0.642357 0.375369 -0.668188 
0.969763 0.154851 -0.188628 0.984758 0.10065 -0.141847 -0.928436 0.182811 -0.323399 
0.999175 -0.0249241 -0.0320613 0.987733 -0.155654 -0.0124707 0.985507 -0.00305871 -0.16961 
-0.94411 -0.0535175 -0.325256 0.957044 -0.289769 0.00998471 -0.917528 -0.234037 -0.321511 
0.817132 -0.556638 0.149832 0.741715 -0.651837 0.158011 -0.800112 -0.469046 -0.37392 
-0.71107 -0.587774 -0.385877 -0.685768 -0.466621 -0.558558 0.670999 -0.71556 0.194254 
0.599118 -0.768859 0.223414 -0.292665 -0.503837 -0.812709 -0.653225 -0.650722 -0.387114 
-0.517886 -0.763342 -0.386139 -0.432273 -0.618235 -0.656449 0.558325 -0.804397 0.203022 
0.547008 -0.81403 0.195289 0.465112 -0.875655 0.129999 -0.148601 -0.97838 -0.143843 
-0.139181 -0.975444 -0.170696 -0.173981 -0.948624 -0.264279 -0.180163 -0.623509 -0.760775 
-0.256477 -0.910488 -0.324394 -0.253147 -0.719852 -0.64632 -0.423827 -0.82143 -0.381607 
-0.395091 -0.836945 -0.378717 -0.402536 -0.788237 -0.465453 0.403545 -0.910843 0.0866937 
0.33492 -0.940914 0.0501044 0.121688 -0.992422 0.0170459 -0.0961157 -0.994583 -0.0395851 
-0.202142 -0.97511 -0.0910992 -0.218751 -0.837669 -0.500458 -0.173561 -0.975711 -0.133658 
-0.195756 -0.972091 -0.129298 -0.196404 -0.954998 -0.222272 0.173529 0.703873 -0.688804 
0.119799 0.734129 -0.668358 0.0376373 0.751219 -0.658979 -0.0262251 0.767252 -0.640809 
-0.100725 0.766246 -0.634604 -0.173293 0.749299 -0.639156 0.272429 0.623901 -0.732482 
0.173755 0.70091 -0.691762 0.176262 0.657227 -0.732793 0.173527 0.696619 -0.69614 
0.11506 0.654666 -0.74711 0.0317624 0.637655 -0.769667 -0.0167879 0.642126 -0.766416 
-0.0875712 0.658543 -0.747431 -0.201135 0.729285 -0.653979 -0.172281 0.717628 -0.674781 
-0.257144 0.668139 -0.698189 -0.294456 0.597033 -0.746222 0.468694 0.465084 -0.751014 
0.345706 0.577533 -0.739556 0.357771 0.570408 -0.739347 0.241682 0.499904 -0.831677 
0.162893 0.448605 -0.87876 0.108451 0.37749 -0.919641 0.0677867 0.299821 -0.951584 
0.0168204 0.28836 -0.957374 -0.0319804 0.254431 -0.966562 -0.0409435 0.235537 -0.971003 
-0.0883777 0.30487 -0.948285 -0.224589 0.399998 -0.888573 -0.350086 0.565558 -0.746715 
-0.270129 0.501011 -0.822203 -0.365587 0.543777 -0.755416 -0.461579 0.431959 -0.774827 
0.474002 0.457951 -0.752066 0.605177 0.369109 -0.705351 0.461627 0.450902 -0.763929 
0.286088 0.36867 -0.884441 0.170558 0.289493 -0.941862 0.0710057 0.208615 -0.975417 
0.0328864 0.115662 -0.992744 0.0258933 0.0636664 -0.997635 -0.024171 0.124693 -0.991901 
-0.0605974 0.105387 -0.992583 -0.0283697 0.0315475 -0.9991 -0.0319914 0.0513705 -0.998167 
-0.0713719 0.136968 -0.988001 -0.187355 0.255772 -0.948409 -0.297243 0.332743 -0.894946 
-0.464273 0.430866 -0.773825 -0.454879 0.425702 -0.782217 0.611111 0.363195 -0.703302 
0.604894 0.364559 -0.707955 0.35106 0.332832 -0.875203 0.159569 0.25241 -0.954373 
0.0593631 0.149475 -0.986982 -0.023055 0.0606998 -0.99789 -0.0394036 -0.0177796 -0.999065 
0.0739643 -0.0441836 -0.996282 -0.0922216 0.0523433 -0.994362 0.021361 -0.0272472 -0.9994 
-0.00695735 0.0355131 -0.999345 -0.0910945 0.0878682 -0.991958 -0.199713 0.213957 -0.95621 
-0.52615 0.332248 -0.782801 -0.380702 0.274584 -0.882989 -0.59088 0.27216 -0.759467 
0.695493 0.237026 -0.678313 0.594496 0.237034 -0.768368 0.294171 0.170101 -0.940494 
-0.0734028 -0.0211415 -0.997078 -0.0156484 0.0633114 -0.997871 0.117821 -0.168705 -0.978599 
-0.16984 0.116315 -0.978583 -0.0474756 -0.0734983 -0.996165 0.0457529 -0.0332785 -0.998398 
-0.00785426 0.0211388 -0.999746 -0.119225 0.068207 -0.990522 -0.319959 0.11443 -0.940496 
-0.631752 0.174581 -0.755255 -0.570139 0.164962 -0.804816 0.784807 0.0754487 -0.615131 
0.538399 0.111421 -0.835292 -0.00308381 -0.00512681 -0.999982 -0.138034 -0.0302732 -0.989965 
0.156775 -0.270093 -0.949985 -0.094257 -0.113987 -0.989001 0.0888589 -0.0780615 -0.992981 
0.0101333 -0.0854913 -0.996287 -0.102387 -0.102784 -0.98942 -0.301544 -0.0870048 -0.949474 
-0.628051 -0.0693985 -0.775072 -0.548424 -0.0745114 -0.832874 0.800025 -0.17038 -0.575266 
0.600418 -0.136953 -0.787872 -0.105049 0.0237281 -0.994184 -0.0369723 -0.0269147 -0.998954 
-0.130093 0.064368 -0.98941 -0.0535544 -0.0216712 -0.99833 -0.0344346 -0.119055 -0.99229 
0.0134452 -0.00490988 -0.999898 0.0733364 -0.0980904 -0.992472 -0.0345545 -0.133297 -0.990474 
-0.126926 -0.196212 -0.972312 -0.31036 -0.172018 -0.934926 -0.532484 -0.244493 -0.810361 
-0.534348 -0.252066 -0.806805 -0.527408 -0.242437 -0.814288 0.794893 -0.40624 -0.450683 
0.75711 -0.50683 -0.4122 0.718834 -0.39029 -0.575284 0.368663 -0.240033 -0.898038 
-0.0289062 0.0553809 -0.998047 -0.0275674 0.0847867 -0.996018 -0.12825 0.0496484 -0.990498 
-0.05745 0.0684699 -0.995998 -0.0262554 0.0131896 -0.999568 -0.0792883 0.0287517 -0.996437 
-0.0450722 -0.113887 -0.992471 -0.0872002 -0.219346 -0.971742 -0.272952 -0.479456 -0.834038 
-0.137618 -0.280252 -0.95001 -0.533128 -0.382432 -0.754666 -0.374879 -0.473666 -0.796936 
-0.316365 -0.331641 -0.888779 0.670422 -0.645135 -0.366517 0.587782 -0.722725 -0.363568 
0.499975 -0.550514 -0.66855 0.253216 -0.391311 -0.884736 -0.0335769 -0.101301 -0.994289 
0.0286235 -0.0267495 -0.999232 -0.131361 -0.0831762 -0.987839 -0.0957656 -0.0950821 -0.990852 
-0.0683244 -0.16589 -0.983775 -0.122346 -0.198151 -0.972506 -0.176626 -0.589791 -0.788004 
-0.169958 -0.2879 -0.942458 -0.282374 -0.476236 -0.832745 -0.24191 -0.553104 -0.797217 
-0.211954 -0.340101 -0.916192 0.475041 -0.808447 -0.347489 0.454787 -0.817373 -0.353652 
0.431139 -0.784335 -0.446025 0.368879 -0.798224 -0.4762 0.250618 -0.577868 -0.776698 
0.165622 -0.386256 -0.9074 0.0232683 -0.299872 -0.953696 -0.085047 -0.332127 -0.939393 
-0.217676 -0.790469 -0.572517 -0.170055 -0.383086 -0.907924 -0.185231 -0.743068 -0.64307 
-0.156517 -0.454598 -0.876837 -0.141709 -0.732339 -0.666032 -0.131766 -0.533557 -0.835437 
-0.179034 -0.605476 -0.775465 -0.187951 -0.673585 -0.714813 -0.184802 -0.564775 -0.804287 
0.260062 -0.819182 -0.511184 0.257238 -0.818921 -0.513027 0.256168 -0.816508 -0.51739 
0.0815659 -0.834958 -0.544235 0.0783542 -0.756518 -0.649261 -0.19609 -0.807704 -0.556025 
-0.123683 -0.832953 -0.539344 -0.116246 -0.774689 -0.621566 -0.00514183 0.0846441 -0.996398 
-0.122361 0.107175 -0.986682 0.139558 0.159171 -0.977337 0.0397637 0.132783 -0.990347 
-0.0781207 0.0368565 -0.996262 0.0664573 -0.048562 -0.996607 0.085192 -0.0843346 -0.992789 
0.0624884 -0.0482886 -0.996877 -0.130638 0.102939 -0.986072 -0.133848 0.107854 -0.985115 
0.155221 0.144521 -0.977251 0.214145 0.11779 -0.969674 0.137567 0.14195 -0.980268 
-0.00623354 0.0918679 -0.995752 -0.0991466 0.0225893 -0.994816 -0.101709 0.0272505 -0.994441 
-0.0322686 0.0210908 -0.999257 0.0960727 -0.120472 -0.988057 -0.139047 0.0874596 -0.986416 
0.0956879 -0.180388 -0.97893 0.0632185 -0.0819119 -0.994633 -0.146825 0.00692106 -0.989138 
0.221785 0.115778 -0.968198 0.211251 0.115856 -0.970541 0.0662946 0.0590194 -0.996053 
-0.0544642 0.0377051 -0.997804 -0.114244 0.030714 -0.992978 -0.143093 0.0384341 -0.988963 
-0.0276266 0.0012427 -0.999618 -0.0529593 -0.00253209 -0.998593 -0.0382338 -0.00625553 -0.999249 
-0.0355361 0.00468682 -0.999357 -0.0674843 -0.182275 -0.980929 -0.10563 -0.155951 -0.982101 
-0.0980035 -0.159064 -0.982392 -0.108377 -0.160739 -0.981029 0.272139 -0.10743 -0.956242 
0.259235 -0.121929 -0.958087 0.243536 -0.103316 -0.964373 0.059164 0.00135274 -0.998247 
-0.0322146 -0.027862 -0.999093 -0.122762 0.010086 -0.992385 -0.139338 -0.00354948 -0.990238 
0.236799 -0.197365 -0.951301 0.179208 -0.251157 -0.951212 0.129728 -0.166252 -0.977513 
-0.0655518 -0.058884 -0.99611 -0.071085 -0.0242712 -0.997175 -0.057937 -0.0795197 -0.995148 
-0.0864834 -0.0535156 -0.994815 -0.0324696 0.0244681 -0.999173 0.122505 -0.273121 -0.954147 
0.0012065 -0.143631 -0.989631 0.104609 -0.280015 -0.954279 0.0908203 -0.248889 -0.964265 
0.0122509 -0.034095 -0.999344 -0.0655694 -0.0650691 -0.995724 -0.0486221 -0.109391 -0.992809 
-0.0398272 -0.0570828 -0.997575 
