# vtk DataFile Version 4.2
vtk output
ASCII
DATASET POLYDATA
POINTS 532 float
-24.4312 -43.5646 -15.4619 -15.849 -43.5646 -17.6743 -7.26678 -43.5646 -18.4597 
1.31542 -43.5646 -18.961 9.89762 -43.5646 -18.522 18.4798 -43.5646 -17.8944 
27.062 -43.5646 -16.2158 -33.0134 -34.9824 -16.2256 -24.4312 -34.9824 -18.6977 
-15.849 -34.9824 -20.1844 -7.26678 -34.9824 -20.7089 1.31542 -34.9824 -21.0264 
9.89762 -34.9824 -20.3384 18.4798 -34.9824 -20.0429 27.062 -34.9824 -18.8174 
35.6442 -34.9824 -15.5915 -41.5956 -26.4002 -16.5275 -33.0134 -26.4002 -19.1163 
-24.4312 -26.4002 -19.7928 -15.849 -26.4002 -20.4048 -7.26678 -26.4002 -20.9163 
1.31542 -26.4002 -21.0066 9.89762 -26.4002 -20.2045 18.4798 -26.4002 -20.1564 
27.062 -26.4002 -19.7206 35.6442 -26.4002 -17.7353 44.2264 -26.4002 -15.4398 
-50.1778 -17.818 -15.7765 -41.5956 -17.818 -18.9373 -33.0134 -17.818 -19.9498 
-24.4312 -17.818 -19.8743 -15.849 -17.818 -19.5694 -7.26678 -17.818 -19.7945 
1.31542 -17.818 -19.6795 9.89762 -17.818 -18.907 18.4798 -17.818 -19.557 
27.062 -17.818 -19.3546 35.6442 -17.818 -18.0438 44.2264 -17.818 -15.8192 
-50.1778 -9.23577 -17.0518 -41.5956 -9.23577 -18.59 -33.0134 -9.23577 -19.4896 
-24.4312 -9.23577 -19.7362 -15.849 -9.23577 -20.1206 -7.26678 -9.23577 -20.6871 
1.31542 -9.23577 -19.7761 9.89762 -9.23577 -21.1678 18.4798 -9.23577 -20.3773 
27.062 -9.23577 -19.442 35.6442 -9.23577 -18.794 44.2264 -9.23577 -17.5486 
52.8086 -9.23577 -15.2421 -50.1778 -0.653573 -16.0724 -41.5956 -0.653573 -18.1275 
-33.0134 -0.653573 -18.7106 -24.4312 -0.653573 -19.0391 -15.849 -0.653573 -22.3078 
-7.26678 -0.653573 -22.1734 1.31542 -0.653573 -19.0786 9.89762 -0.653573 -23.2673 
18.4798 -0.653573 -19.9198 27.062 -0.653573 -19.3262 35.6442 -0.653573 -19.8113 
44.2264 -0.653573 -18.9402 52.8086 -0.653573 -17.2545 -50.1778 7.92863 -15.8934 
-41.5956 7.92863 -17.7284 -33.0134 7.92863 -18.0234 -24.4312 7.92863 -17.4949 
-15.849 7.92863 -19.0003 -7.26678 7.92863 -20.1846 1.31542 7.92863 -21.2955 
9.89762 7.92863 -20.0672 18.4798 7.92863 -17.6839 27.062 7.92863 -19.3518 
35.6442 7.92863 -20.4309 44.2264 7.92863 -19.512 52.8086 7.92863 -17.711 
-41.5956 16.5108 -16.0142 -33.0134 16.5108 -17.5133 -24.4312 16.5108 -18.4696 
-15.849 16.5108 -19.3964 -7.26678 16.5108 -19.4175 1.31542 16.5108 -21.1085 
9.89762 16.5108 -20.4612 18.4798 16.5108 -19.1629 27.062 16.5108 -19.5393 
35.6442 16.5108 -20.0921 44.2264 16.5108 -20.0022 52.8086 16.5108 -18.1283 
-33.0134 25.093 -17.0224 -24.4312 25.093 -18.7028 -15.849 25.093 -19.8999 
-7.26678 25.093 -19.1886 1.31542 25.093 -19.2433 9.89762 25.093 -19.7475 
18.4798 25.093 -19.7125 27.062 25.093 -19.6906 35.6442 25.093 -19.0955 
44.2264 25.093 -17.7876 -24.4312 33.6752 -16.3458 -15.849 33.6752 -17.6226 
-7.26678 33.6752 -17.289 1.31542 33.6752 -16.538 9.89762 33.6752 -17.3004 
18.4798 33.6752 -17.3498 27.062 33.6752 -16.8654 35.6442 33.6752 -16.3923 
-24.4312 -44.0032 -15.0647 -15.849 -46.334 -15.0647 -7.26678 -48.2513 -15.0647 
1.31542 -49.0319 -15.0647 1.31542 -52.1468 -8.2101 9.89762 -48.5012 -15.0647 
9.89762 -52.1468 -6.62008 18.4798 -46.8176 -15.0647 27.062 -45.005 -15.0647 
-25.2201 -43.5646 -15.0647 -33.0134 -36.8821 -15.0647 -33.0134 -43.5646 -7.34565 
29.3417 -43.5646 -15.0647 35.6442 -36.0953 -15.0647 35.6442 -43.5646 -9.93111 
-35.8389 -34.9824 -15.0647 -41.5956 -29.7663 -15.0647 -41.5956 -34.9824 -11.6105 
36.6387 -34.9824 -15.0647 44.2264 -27.2684 -15.0647 44.2264 -34.9824 -10.3143 
-44.8039 -26.4002 -15.0647 -50.1778 -19.9165 -15.0647 -50.1778 -26.4002 -11.8493 
45.2436 -26.4002 -15.0647 52.8086 -26.4002 -9.19432 -51.7789 -17.818 -15.0647 
-58.76 -17.818 -9.45872 46.2395 -17.818 -15.0647 52.8086 -9.75772 -15.0647 
52.8086 -17.818 -12.6049 -53.8069 -9.23577 -15.0647 -58.76 -9.23577 -11.399 
53.2276 -9.23577 -15.0647 61.3908 -9.23577 -10.3508 -52.4321 -0.653573 -15.0647 
-58.76 -0.653573 -11.9912 56.9988 -0.653573 -15.0647 61.3908 -0.653573 -12.0549 
-51.7534 7.92863 -15.0647 -58.76 7.92863 -10.3567 -50.1778 11.1173 -15.0647 
58.8192 7.92863 -15.0647 61.3908 7.92863 -13.745 -58.76 16.5108 -7.25468 
-44.8074 16.5108 -15.0647 -50.1778 16.5108 -13.476 -41.5956 21.671 -15.0647 
57.982 16.5108 -15.0647 52.8086 25.0032 -15.0647 61.3908 16.5108 -11.883 
-50.1778 25.093 -9.18348 -39.6133 25.093 -15.0647 -41.5956 25.093 -14.3134 
-33.0134 30.138 -15.0647 52.6803 25.093 -15.0647 44.2264 30.9757 -15.0647 
52.8086 25.093 -15.0165 61.3908 25.093 -9.10501 -41.5956 33.6752 -7.9074 
-28.3482 33.6752 -15.0647 -33.0134 33.6752 -13.0682 -24.4312 35.4456 -15.0647 
-15.849 37.3558 -15.0647 -7.26678 36.9882 -15.0647 1.31542 36.0804 -15.0647 
9.89762 37.0447 -15.0647 18.4798 37.1561 -15.0647 27.062 36.3712 -15.0647 
40.1596 33.6752 -15.0647 35.6442 35.4061 -15.0647 44.2264 33.6752 -13.4226 
52.8086 33.6752 -7.66609 -15.849 42.2574 -9.16047 -7.26678 42.2574 -9.35098 
1.31542 42.2574 -9.24421 9.89762 42.2574 -9.73185 18.4798 42.2574 -9.56053 
27.062 42.2574 -8.40179 1.31542 -52.6859 -6.48249 9.89762 -52.1874 -6.48249 
-33.0134 -44.0098 -6.48249 -24.4312 -48.2051 -6.48249 -15.849 -50.7817 -6.48249 
-5.93218 -52.1468 -6.48249 -7.26678 -52.0533 -6.48249 1.31542 -52.1468 -5.11448 
10.6329 -52.1468 -6.48249 9.89762 -52.1468 -6.37414 18.4798 -51.7 -6.48249 
27.062 -49.6885 -6.48249 35.6442 -45.9384 -6.48249 -33.8896 -43.5646 -6.48249 
-41.5956 -38.9857 -6.48249 -33.0134 -43.5646 -4.586 39.7102 -43.5646 -6.48249 
44.2264 -39.7143 -6.48249 -47.3016 -34.9824 -6.48249 -50.1778 -32.4663 -6.48249 
49.0649 -34.9824 -6.48249 52.8086 -29.6835 -6.48249 -55.9856 -26.4002 -6.48249 
-58.76 -21.9757 -6.48249 55.0968 -26.4002 -6.48249 -61.0285 -17.818 -6.48249 
60.5403 -17.818 -6.48249 61.3908 -16.0232 -6.48249 61.3908 -17.818 -4.74084 
-63.9214 -9.23577 -6.48249 64.7263 -9.23577 -6.48249 -65.7815 -0.653573 -6.48249 
-67.3422 -0.653573 -1.82284 67.3612 -0.653573 -6.48249 -63.3152 7.92863 -6.48249 
68.4242 7.92863 -6.48249 -59.4732 16.5108 -6.48249 -58.76 18.1925 -6.48249 
66.2578 16.5108 -6.48249 -54.6102 25.093 -6.48249 -58.76 25.093 1.22033 
-50.1778 29.1631 -6.48249 63.0196 25.093 -6.48249 61.3908 27.4942 -6.48249 
-44.0788 33.6752 -6.48249 -50.1778 33.6752 -0.322746 -41.5956 34.9353 -6.48249 
-33.0134 39.2994 -6.48249 -24.4312 42.1373 -6.48249 35.6442 42.138 -6.48249 
44.2264 39.2395 -6.48249 53.8129 33.6752 -6.48249 52.8086 34.3281 -6.48249 
-33.0134 42.2574 1.61894 -23.815 42.2574 -6.48249 -24.4312 42.2574 -6.12342 
-15.849 43.7098 -6.48249 -7.26678 43.9678 -6.48249 1.31542 44.0991 -6.48249 
9.89762 44.3076 -6.48249 18.4798 44.1351 -6.48249 34.9029 42.2574 -6.48249 
27.062 43.4375 -6.48249 35.6442 42.2574 -5.94749 -24.4312 -45.7548 2.09971 
-15.849 -47.7893 2.09971 -7.26678 -48.3691 2.09971 1.31542 -48.4677 2.09971 
9.89762 -48.4538 2.09971 18.4798 -47.9999 2.09971 27.062 -46.7898 2.09971 
35.6442 -44.3207 2.09971 -41.5956 -37.8263 2.09971 -29.1107 -43.5646 2.09971 
-33.0134 -41.9436 2.09971 -24.4312 -43.5646 4.51723 -15.849 -43.5646 6.84286 
-7.26678 -43.5646 7.50665 1.31542 -43.5646 7.05485 9.89762 -43.5646 6.94032 
18.4798 -43.5646 6.86098 27.062 -43.5646 5.81845 36.85 -43.5646 2.09971 
35.6442 -43.5646 2.98355 44.2264 -39.3749 2.09971 -47.1037 -34.9824 2.09971 
-50.1778 -33.1744 2.09971 -41.5956 -34.9824 6.43479 -33.0134 -34.9824 10.0959 
50.2087 -34.9824 2.09971 44.2264 -34.9824 8.02647 52.8086 -32.6421 2.09971 
-57.5205 -26.4002 2.09971 -58.76 -25.0179 2.09971 58.4219 -26.4002 2.09971 
52.8086 -26.4002 9.81864 61.3908 -22.2077 2.09971 -63.7704 -17.818 2.09971 
64.1058 -17.818 2.09971 61.3908 -17.818 6.64986 -67.006 -9.23577 2.09971 
-67.3422 -6.90451 2.09971 67.6994 -9.23577 2.09971 -68.2436 -0.653573 2.09971 
-67.3422 5.88403 2.09971 -67.3422 -0.653573 6.32179 69.0576 -0.653573 2.09971 
-67.0601 7.92863 2.09971 69.3623 7.92863 2.09971 -64.1642 16.5108 2.09971 
67.1928 16.5108 2.09971 61.3908 16.5108 10.2596 -59.0319 25.093 2.09971 
-58.76 25.4214 2.09971 -58.76 25.093 6.72958 63.1731 25.093 2.09971 
61.3908 27.5406 2.09971 61.3908 25.093 4.86541 -51.3761 33.6752 2.09971 
-50.1778 34.6315 2.09971 -41.5956 39.3623 2.09971 44.2264 40.5973 2.09971 
55.6115 33.6752 2.09971 52.8086 35.8465 2.09971 52.8086 33.6752 6.44251 
-33.4913 42.2574 2.09971 -33.0134 42.4095 2.09971 -24.4312 44.7241 2.09971 
-15.849 46.2671 2.09971 -7.26678 46.8168 2.09971 1.31542 46.5869 2.09971 
9.89762 46.3469 2.09971 18.4798 45.8133 2.09971 27.062 45.0451 2.09971 
39.7882 42.2574 2.09971 35.6442 43.7241 2.09971 35.6442 42.2574 7.19507 
-24.4312 -35.7735 10.6819 -15.849 -37.372 10.6819 -7.26678 -36.8558 10.6819 
1.31542 -35.5427 10.6819 9.89762 -36.3106 10.6819 18.4798 -36.5387 10.6819 
27.062 -36.1297 10.6819 35.6442 -35.9645 10.6819 -50.1778 -28.0071 10.6819 
-41.5956 -31.8436 10.6819 -28.6931 -34.9824 10.6819 -33.0134 -34.1862 10.6819 
-24.4312 -34.9824 11.1476 -15.849 -34.9824 11.8515 -7.26678 -34.9824 11.3658 
1.31542 -34.9824 10.8817 9.89762 -34.9824 11.2617 18.4798 -34.9824 11.3959 
27.062 -34.9824 11.3426 38.0596 -34.9824 10.6819 35.6442 -34.9824 11.3304 
44.2264 -30.3336 10.6819 -52.6907 -26.4002 10.6819 -58.76 -20.8675 10.6819 
-50.1778 -26.4002 12.1403 -41.5956 -26.4002 15.1222 -33.0134 -26.4002 15.4046 
-24.4312 -26.4002 15.0435 -15.849 -26.4002 14.2145 -7.26678 -26.4002 13.5585 
1.31542 -26.4002 12.6004 9.89762 -26.4002 12.4946 18.4798 -26.4002 13.3956 
27.062 -26.4002 13.782 35.6442 -26.4002 14.3672 50.6217 -26.4002 10.6819 
44.2264 -26.4002 12.3896 52.8086 -24.6087 10.6819 -60.6795 -17.818 10.6819 
-58.76 -17.818 12.7327 -50.1778 -17.818 17.5377 -24.4312 -17.818 17.9299 
-15.849 -17.818 15.9094 -7.26678 -17.818 14.6436 1.31542 -17.818 13.179 
9.89762 -17.818 12.7306 18.4798 -17.818 14.1583 27.062 -17.818 15.2047 
35.6442 -17.818 16.1896 44.2264 -17.818 15.5981 56.7863 -17.818 10.6819 
52.8086 -17.818 12.8982 61.3908 -11.4133 10.6819 -64.3386 -9.23577 10.6819 
-58.76 -9.23577 17.2554 -15.849 -9.23577 17.3307 -7.26678 -9.23577 17.1138 
1.31542 -9.23577 15.4699 9.89762 -9.23577 13.3179 18.4798 -9.23577 14.2262 
[...]
POINT_DATA 532
SCALARS ImageScalars float
LOOKUP_TABLE default
0 0 0 0 0 0 0 0 0 
0 0 0 0 0 0 0 0 0 
0 0 0 0 0 0 0 0 0 
0 0 0 0 0 0 0 0 0 
0 0 0 0 0 0 0 0 0 
0 0 0 0 0 0 0 0 0 
0 0 0 0 0 0 0 0 0 
0 0 0 0 0 0 0 0 0 
0 0 0 0 0 0 0 0 0 
0 0 0 0 0 0 0 0 0 
0 0 0 0 0 0 0 0 0 
0 0 0 0 0 0 0 0 0 
0 0 0 0 0 0 0 0 0 
0 0 0 0 0 0 0 0 0 
0 0 0 0 0 0 0 0 0 
0 0 0 0 0 0 0 0 0 
0 0 0 0 0 0 0 0 0 
0 0 0 0 0 0 0 0 0 
0 0 0 0 0 0 0 0 0 
0 0 0 0 0 0 0 0 0 
0 0 0 0 0 0 0 0 0 
0 0 0 0 0 0 0 0 0 
0 0 0 0 0 0 0 0 0 
0 0 0 0 0 0 0 0 0 
0 0 0 0 0 0 0 0 0 
0 0 0 0 0 0 0 0 0 
0 0 0 0 0 0 0 0 0 
0 0 0 0 0 0 0 0 0 
0 0 0 0 0 0 0 0 0 
0 0 0 0 0 0 0 0 0 
0 0 0 0 0 0 0 0 0 
0 0 0 0 0 0 0 0 0 
0 0 0 0 0 0 0 0 0 
0 0 0 0 0 0 0 0 0 
0 0 0 0 0 0 0 0 0 
0 0 0 0 0 0 0 0 0 
0 0 0 0 0 0 0 0 0 
0 0 0 0 0 0 0 0 0 
0 0 0 0 0 0 0 0 0 
0 0 0 0 0 0 0 0 0 
0 0 0 0 0 0 0 0 0 
0 0 0 0 0 0 0 0 0 
0 0 0 0 0 0 0 0 0 
0 0 0 0 0 0 0 0 0 
0 0 0 0 0 0 0 0 0 
0 0 0 0 0 0 0 0 0 
0 0 0 0 0 0 0 0 0 
0 0 0 0 0 0 0 0 0 
0 0 0 0 0 0 0 0 0 
0 0 0 0 0 0 0 0 0 
0 0 0 0 0 0 0 0 0 
0 0 0 0 0 0 0 0 0 
0 0 0 0 0 0 0 0 0 
0 0 0 0 0 0 0 0 0 
0 0 0 0 0 0 0 0 0 
0 0 0 0 0 0 0 0 0 
0 0 0 0 0 0 0 0 0 
0 0 0 0 0 0 0 0 0 
0 0 0 0 0 0 0 0 0 
0 
NORMALS Normals float
0.331875 0.615565 0.7148 0.17455 0.535538 0.826276 0.0650215 0.44582 0.892758 
0.00263806 0.434142 0.90084 -0.0555143 0.426526 0.90277 -0.139633 0.490094 0.860413 
-0.306569 0.529672 0.790862 0.326695 0.442065 0.835374 0.200829 0.232746 0.951576 
0.127092 0.128737 0.983501 0.0464643 0.133873 0.989909 -0.021542 0.11292 0.993371 
-0.0561496 0.0944153 0.993948 -0.09231 0.103654 0.990321 -0.227329 0.193332 0.954434 
-0.413608 0.311298 0.855583 0.354188 0.322791 0.8777 0.170185 0.184324 0.968019 
0.0746613 0.0684615 0.994856 0.069365 -0.0376734 0.99688 0.0334643 -0.0532589 0.99802 
-0.0418454 -0.0762327 0.996212 -0.0480101 -0.0831901 0.995377 -0.0274117 -0.028639 0.999214 
-0.133967 0.0326863 0.990447 -0.254576 0.126163 0.958788 -0.326745 0.245665 0.912626 
0.392252 0.237537 0.888659 0.241599 0.105395 0.964636 0.0519195 0.0266932 0.998294 
-0.0220507 -0.00295904 0.999752 -0.00470915 -0.0157499 0.999865 0.00679558 -0.0178454 0.999818 
-0.0531592 -0.0714192 0.996029 -0.00531876 0.0354977 0.999356 0.0261222 0.0125391 0.99958 
-0.0868425 -0.0155203 0.996101 -0.192398 0.0590438 0.979539 -0.293633 0.117851 0.948626 
0.34477 0.0189918 0.938495 0.147084 -0.0454756 0.988078 0.0656497 -0.0710804 0.995308 
0.0358991 -0.048341 0.998186 0.0569919 0.147567 0.987409 -0.0216988 0.133509 0.99081 
0.0200066 -0.0296858 0.999359 0.0380357 0.265894 0.963252 -0.0977793 0.0240309 0.994918 
-0.0906813 -0.00167162 0.995879 -0.106502 0.101681 0.9891 -0.186843 0.179375 0.965875 
-0.32977 0.284994 0.900016 0.320266 -0.0711993 0.944648 0.145895 -0.048284 0.988121 
0.0531937 -0.0859716 0.994877 0.176704 -0.131282 0.97547 0.205605 -0.0465609 0.977527 
-0.180452 -0.0346506 0.982973 0.0644985 0.0905668 0.9938 0.0270359 -0.0431519 0.998703 
-0.214017 -0.168252 0.962231 -0.0040909 -0.00546859 0.999977 -0.023262 0.0934333 0.995354 
-0.15029 0.107954 0.98273 -0.338919 0.11892 0.933269 0.359773 -0.132892 0.923527 
0.133047 -0.118879 0.983954 -0.014378 -0.0692768 0.997494 0.0442002 -0.0370512 0.998335 
0.167117 -0.148673 0.974663 0.122523 -0.147659 0.98142 0.00735125 0.105988 0.99434 
-0.2292 -0.151915 0.961452 -0.0180603 -0.0356609 0.999201 0.165139 0.0128458 0.986187 
0.00384629 0.0164641 0.999857 -0.149266 0.0595562 0.987002 -0.290675 0.0558164 0.955192 
0.222423 -0.18758 0.956735 0.134543 -0.05881 0.989161 0.109216 0.0718007 0.991422 
0.0522652 0.0496543 0.997398 0.091701 -0.0554685 0.994241 0.0638374 -0.11699 0.991079 
-0.115798 -0.0242888 0.992976 -0.0518936 0.117663 0.991697 0.0537892 0.0182231 0.998386 
0.0273861 -0.0821955 0.99624 -0.131854 -0.088697 0.987293 -0.360356 -0.103381 0.927068 
0.237004 -0.205096 0.949613 0.170085 -0.113641 0.978855 0.0259661 -0.0904428 0.995563 
-0.0376001 -0.109657 0.993258 0.03201 -0.246553 0.9686 0.0259241 -0.167393 0.985549 
-0.00327899 -0.0975359 0.995227 -0.040097 -0.152894 0.987429 -0.0989497 -0.200831 0.974616 
-0.205711 -0.304876 0.929911 0.218579 -0.458673 0.861303 0.0522801 -0.431768 0.900468 
-0.0599769 -0.4014 0.913937 0.00112492 -0.424971 0.905206 0.0450125 -0.429767 0.901817 
-0.0248444 -0.427167 0.903831 -0.0527515 -0.457509 0.887639 -0.147523 -0.517325 0.842978 
0.330344 0.639172 0.694501 0.209104 0.684769 0.698117 0.118913 0.708834 0.695279 
0.0106619 0.737886 0.674842 0.00874831 0.997008 0.0768048 -0.0940398 0.716176 0.691555 
-0.0577286 0.997841 -0.0313189 -0.165521 0.65551 0.736824 -0.300904 0.610531 0.732604 
0.340166 0.626917 0.700901 0.358338 0.496217 0.790799 0.461388 0.869303 0.177293 
-0.35032 0.548363 0.759324 -0.426597 0.340016 0.838096 -0.510053 0.739491 0.439317 
0.355895 0.471539 0.806839 0.389995 0.392375 0.833034 0.49705 0.630031 0.596659 
-0.425898 0.325822 0.844068 -0.340436 0.266212 0.901795 -0.585712 0.506782 0.632545 
0.415397 0.352318 0.83864 0.414013 0.286657 0.863956 0.563904 0.473773 0.676425 
-0.35603 0.255388 0.898899 -0.658393 0.449934 0.60339 0.437251 0.242187 0.866116 
0.736074 0.310861 0.601299 -0.324031 0.129961 0.937077 -0.334673 0.282212 0.899083 
-0.465784 0.239834 0.851777 0.465444 0.0180079 0.884894 0.647868 0.0942449 0.7559 
-0.342047 0.284624 0.895541 -0.658022 0.279759 0.699101 0.370031 -0.0688876 0.926462 
0.544039 -0.0548654 0.837264 -0.46462 0.120446 0.877281 -0.630696 0.146902 0.761999 
0.402327 -0.135866 0.905358 0.604754 -0.195031 0.772163 0.355142 -0.203603 0.91237 
-0.450653 0.0255823 0.892333 -0.559599 -0.00131214 0.828762 0.718843 -0.314946 0.619737 
0.269476 -0.234898 0.933919 0.36391 -0.322192 0.873935 0.317048 -0.267867 0.909795 
-0.547101 -0.127059 0.827367 -0.357995 -0.411568 0.838124 -0.713963 -0.177963 0.67719 
0.480943 -0.496862 0.722372 0.339555 -0.296272 0.892706 0.378877 -0.333331 0.863332 
0.301268 -0.396944 0.866991 -0.355835 -0.413473 0.838106 -0.266649 -0.50456 0.821168 
-0.358778 -0.415942 0.835626 -0.762054 -0.456749 0.458971 0.415307 -0.683426 0.600375 
0.277025 -0.496929 0.822386 0.354928 -0.567472 0.742968 0.223431 -0.54414 0.808697 
0.0644099 -0.607123 0.791993 -0.0461697 -0.561201 0.826391 0.00204991 -0.516184 0.856475 
0.0376168 -0.56924 0.82131 -0.0263299 -0.573658 0.818672 -0.0708542 -0.56352 0.823058 
-0.217205 -0.564232 0.796532 -0.167413 -0.589237 0.790426 -0.299746 -0.626931 0.719104 
-0.525231 -0.772779 0.356293 0.0931799 -0.869589 0.484904 0.00197934 -0.853239 0.521517 
0.0135281 -0.832115 0.554438 0.012008 -0.842879 0.53797 -0.0456781 -0.858959 0.510003 
-0.112686 -0.880388 0.460673 0.00805739 0.999237 -0.0382072 -0.0570877 0.997564 -0.0400945 
0.45535 0.881952 0.121724 0.369364 0.924711 0.0920856 0.226083 0.973594 0.0316361 
0.0902839 0.995503 -0.028685 0.105172 0.99412 -0.0257619 0.00654163 0.993853 -0.11051 
-0.0640076 0.997223 -0.0380672 -0.0571967 0.99732 -0.0456177 -0.140302 0.990078 -0.00776345 
-0.317403 0.946577 0.0569918 -0.482086 0.857467 0.179844 0.465266 0.876532 0.123366 
0.568938 0.797516 0.200694 0.452657 0.891636 0.00933693 -0.567967 0.801955 0.185155 
-0.657527 0.695341 0.290102 0.620672 0.741205 0.255696 0.651865 0.692872 0.30822 
-0.697637 0.595821 0.397869 -0.70506 0.561631 0.432968 0.735442 0.571296 0.364344 
0.77857 0.476596 0.40827 -0.707674 0.521759 0.476409 0.799755 0.376724 0.467409 
-0.763526 0.369437 0.529665 -0.771042 0.363678 0.522716 -0.822706 0.405468 0.398434 
0.811679 0.202098 0.548027 -0.770076 0.34215 0.538439 0.834847 -0.0220204 0.550041 
0.972577 -0.00629139 0.232495 -0.840012 0.186351 0.509562 0.751606 -0.251895 0.609621 
-0.923306 -0.064247 0.378653 0.738276 -0.327006 0.589929 0.726918 -0.364434 0.582047 
-0.869139 -0.289685 0.400848 0.599192 -0.539302 0.591711 0.781749 -0.607086 0.142533 
0.513693 -0.609417 0.603929 -0.827454 -0.48426 0.284276 -0.775442 -0.562519 0.286814 
0.450924 -0.697125 0.557391 0.581343 -0.771496 0.258522 0.417149 -0.72135 0.552848 
0.337542 -0.819309 0.463463 0.215851 -0.89255 0.395933 -0.223507 -0.889863 0.397728 
-0.355532 -0.863596 0.357489 -0.550299 -0.781977 0.292715 -0.532418 -0.793006 0.296095 
0.285326 -0.938122 0.196257 0.206659 -0.895412 0.394371 0.215435 -0.897181 0.385556 
0.0993546 -0.913964 0.393444 0.0212545 -0.905252 0.424342 0.0185887 -0.894804 0.446072 
0.00170407 -0.913765 0.40624 -0.0477379 -0.924888 0.377231 -0.213693 -0.893247 0.395532 
-0.106568 -0.919928 0.377327 -0.226507 -0.901643 0.36842 0.300628 0.815287 -0.494904 
0.125223 0.844447 -0.520796 0.0355851 0.812247 -0.582227 0.00437902 0.798656 -0.601772 
-0.0259195 0.812672 -0.582144 -0.0911012 0.826818 -0.555043 -0.189054 0.845087 -0.500086 
-0.401781 0.803047 -0.440099 0.442671 0.838228 -0.31846 0.356966 0.809749 -0.465707 
0.376307 0.822141 -0.427175 0.285675 0.735796 -0.613998 0.125799 0.641574 -0.756675 
0.0104013 0.600488 -0.799566 -0.0264717 0.559105 -0.828674 -0.00919387 0.575227 -0.817942 
-0.0532612 0.601677 -0.796961 -0.175381 0.70109 -0.691169 -0.429605 0.800062 -0.418737 
-0.383403 0.786716 -0.483818 -0.522205 0.817062 -0.244359 0.511951 0.824852 -0.239843 
0.562265 0.805523 -0.187056 0.347996 0.795479 -0.496097 0.172975 0.637095 -0.751125 
-0.621058 0.744834 -0.243944 -0.45693 0.560491 -0.690699 -0.675159 0.710419 -0.198657 
0.719542 0.690814 -0.0709582 0.754193 0.654796 -0.0493466 -0.772413 0.621473 -0.130955 
-0.47669 0.5001 -0.722957 -0.832766 0.541159 -0.116822 0.878092 0.477812 -0.0254915 
-0.882905 0.463625 -0.0743745 -0.777413 0.48543 -0.399982 0.973214 0.229437 0.014573 
0.985725 0.167893 0.0126083 -0.952995 0.283894 -0.105852 0.999946 0.00319517 0.00992572 
0.985605 -0.164255 0.040044 0.977203 0.0118069 -0.21198 -0.976025 0.092967 -0.196805 
0.974922 -0.216523 0.0514315 -0.972627 -0.107267 -0.206133 0.896818 -0.425351 0.121631 
-0.923497 -0.309949 -0.226021 -0.605835 -0.276115 -0.746139 0.787533 -0.607807 0.101794 
0.783669 -0.612476 0.103619 0.800444 -0.587727 -0.117757 -0.820132 -0.526192 -0.224734 
-0.779554 -0.576117 -0.245732 -0.762541 -0.529902 -0.371127 0.612094 -0.776303 0.150649 
0.57978 -0.800338 0.152688 0.427327 -0.879301 0.210291 -0.389903 -0.9157 -0.0973135 
-0.642844 -0.749822 -0.156583 -0.589969 -0.796478 -0.132511 -0.598708 -0.703048 -0.383761 
0.291268 -0.938791 0.183942 0.283472 -0.941298 0.183306 0.213283 -0.95868 0.188263 
0.118266 -0.978948 0.166352 0.0190254 -0.989094 0.146054 -0.0268529 -0.995528 0.0905716 
-0.044792 -0.998941 0.0105492 -0.0749936 -0.996474 -0.0376201 -0.126263 -0.990724 -0.0502341 
-0.310031 -0.948458 -0.065634 -0.243414 -0.968365 -0.0549494 -0.260004 -0.906159 -0.333577 
0.101406 0.49044 -0.865555 0.0400516 0.421538 -0.905926 -0.0412033 0.351054 -0.935448 
-0.00657453 0.281834 -0.959441 0.0215423 0.325965 -0.945136 -0.00622073 0.365758 -0.930689 
-0.0180356 0.425458 -0.904799 -0.12977 0.546572 -0.827296 0.406635 0.681794 -0.608116 
0.230258 0.688336 -0.687877 0.12652 0.552779 -0.823667 0.147033 0.613079 -0.776219 
0.0858971 0.476931 -0.874733 0.0106476 0.370514 -0.928766 -0.0552876 0.300138 -0.952292 
-0.00414007 0.269603 -0.962963 0.0291847 0.292484 -0.955825 0.00520023 0.335467 -0.942038 
-0.00390436 0.396929 -0.917841 -0.20689 0.503627 -0.838783 -0.133802 0.513542 -0.847568 
-0.328611 0.422417 -0.844736 0.469433 0.66879 -0.5765 0.67798 0.516456 -0.523084 
0.383866 0.649718 -0.656135 0.147258 0.561332 -0.814384 -0.00494536 0.455656 -0.890142 
-0.065311 0.360829 -0.930342 -0.0822838 0.231197 -0.969421 -0.0914713 0.183421 -0.978769 
-0.0610769 0.129128 -0.989745 0.0444562 0.0855683 -0.99534 0.0745474 0.159724 -0.984343 
0.0592002 0.208107 -0.976313 -0.0613226 0.274934 -0.959506 -0.396628 0.45796 -0.795587 
-0.254398 0.410244 -0.875775 -0.443196 0.428159 -0.787564 0.735515 0.436887 -0.517829 
0.654608 0.442153 -0.613179 0.310818 0.412513 -0.856285 -0.191565 0.258166 -0.946918 
-0.178181 0.172056 -0.968839 -0.152608 0.193338 -0.969191 -0.113688 0.150627 -0.982032 
0.0575057 0.0413223 -0.99749 0.145542 0.0475783 -0.988207 0.115676 0.123941 -0.985524 
0.0193674 0.14201 -0.989676 -0.158567 0.197817 -0.967329 -0.529637 0.347414 -0.773814 
-0.396738 0.284707 -0.872663 -0.585456 0.279082 -0.761153 0.824945 0.261849 -0.5009 
0.568795 0.278229 -0.77399 -0.147134 0.187959 -0.971094 -0.0950053 0.259346 -0.9611 
-0.210912 0.0279639 -0.977105 -0.0627813 0.218181 -0.973887 0.144595 0.0223789 -0.989238 
0.134295 0.0452615 -0.989907 0.0235232 0.043902 -0.998759 -0.0636148 0.0846926 -0.994374 
-0.295232 0.169306 -0.940305 -0.60026 0.220103 -0.768923 -0.559464 0.209594 -0.801917 
0.88469 0.0242639 -0.465548 -0.0712424 0.207658 -0.975604 -0.142149 0.243863 -0.959335 
0.0320995 0.106845 -0.993757 -0.0194661 0.0918832 -0.995579 0.139973 0.0533313 -0.988718 
0.057288 0.0486107 -0.997174 -0.0435441 0.0433595 -0.99811 -0.27139 0.0434974 -0.961486 
-0.636267 0.0560445 -0.769431 -0.549973 0.0540872 -0.83343 0.878035 -0.165759 -0.448975 
0.592554 -0.123577 -0.795995 -0.209032 0.0768705 -0.974883 0.0830053 0.185234 -0.979183 
0.0922359 0.135693 -0.986448 0.013158 0.0658336 -0.997744 -0.064555 0.0168791 -0.997771 
-0.275774 -0.0652901 -0.959003 -0.621489 -0.105687 -0.776261 -0.583401 -0.247536 -0.773543 
-0.524531 -0.0981434 -0.845716 0.866319 -0.330679 -0.374356 0.786257 -0.53683 -0.305963 
0.682122 -0.290205 -0.671186 -0.161204 0.198919 -0.966667 0.0314875 0.165936 -0.985634 
0.0213049 0.123331 -0.992137 -0.058006 0.0705909 -0.995817 -0.174083 -0.0286911 -0.984313 
-0.573746 -0.265034 -0.774966 -0.371645 -0.188763 -0.908982 0.780336 -0.546933 -0.303216 
0.508111 -0.340356 -0.791189 -0.11922 0.0457854 -0.991812 0.00605409 0.00454301 -0.999971 
-0.000251889 -0.0218187 -0.999762 -0.141271 -0.107487 -0.984118 -0.303587 -0.18553 -0.934566 
-0.550437 -0.357362 -0.754527 -0.54074 -0.425053 -0.7259 -0.494778 -0.306704 -0.813098 
0.635003 -0.731719 -0.247706 0.626192 -0.740677 -0.243478 0.628294 -0.722552 -0.288383 
0.46401 -0.869012 -0.171791 -0.125708 -0.237641 -0.963185 -0.0448801 -0.305538 -0.951122 
-0.10085 -0.34942 -0.931523 -0.258607 -0.775252 -0.576288 -0.223133 -0.444574 -0.867505 
-0.466404 -0.593525 -0.655893 -0.397893 -0.669388 -0.627376 -0.369174 -0.558666 -0.742699 
0.348222 -0.927233 -0.137767 0.314707 -0.939812 -0.133089 0.314563 -0.920734 -0.230866 
0.194199 -0.972187 -0.130917 0.139551 -0.779871 -0.610186 0.0734559 -0.976265 -0.203744 
-0.0493175 -0.697083 -0.715292 -0.0557147 -0.952999 -0.297807 -0.114736 -0.717246 -0.687309 
-0.124595 -0.922901 -0.364321 -0.155258 -0.70931 -0.687586 -0.146199 -0.870423 -0.470096 
-0.168315 -0.744361 -0.646217 -0.112818 -0.846561 -0.520199 -0.109998 -0.802983 -0.585764 
-0.144899 -0.844269 -0.51596 -0.127782 -0.849682 -0.511578 -0.127342 -0.84245 -0.523509 
0.0962262 0.37586 -0.921667 -0.0939826 0.31952 -0.942907 0.135387 0.368114 -0.919871 
0.253341 0.324606 -0.91129 0.0924885 0.356833 -0.929579 -0.0985855 0.316122 -0.943583 
-0.0949292 0.317957 -0.943341 -0.216463 0.184506 -0.958698 0.382521 0.270616 -0.883428 
0.537033 0.0810894 -0.839655 0.21784 0.235546 -0.947135 0.040805 0.220478 -0.974538 
-0.118812 0.190022 -0.974564 -0.208801 0.163321 -0.964224 -0.222968 0.157765 -0.961975 
-0.248617 0.269275 -0.93042 0.543127 0.0565306 -0.837745 0.55231 0.000712233 -0.833639 
0.533388 0.056984 -0.843949 0.221533 0.0788417 -0.97196 0.0583897 0.117467 -0.991359 
-0.143659 0.123442 -0.981898 -0.0797201 0.202785 -0.975973 -0.208905 0.141217 -0.967686 
-0.126757 0.224975 -0.966084 -0.0673733 0.207484 -0.975916 -0.268758 0.269126 -0.924846 
-0.265801 0.265665 -0.9267 -0.334134 0.349582 -0.875298 0.549388 -0.116026 -0.827473 
0.278425 -0.0062684 -0.960438 0.0950241 0.0136576 -0.995381 -0.0975214 0.101984 -0.989994 
-0.141499 0.162323 -0.976539 -0.0327392 0.205632 -0.978082 -0.0389218 0.147406 -0.98831 
-0.340518 0.296454 -0.892279 -0.345637 0.336304 -0.876033 0.495076 -0.229067 -0.83811 
0.500583 -0.33105 -0.799889 0.39387 -0.150409 -0.906776 0.134776 -0.07526 -0.988014 
-0.00281634 0.0333303 -0.99944 -0.0925239 0.113608 -0.989208 -0.0899611 0.162378 -0.982619 
-0.111771 0.0543629 -0.992246 -0.21925 0.115175 -0.968847 -0.261848 0.0329356 -0.964547 
0.499266 -0.333929 -0.799515 0.250497 -0.211471 -0.944739 0.0923487 -0.0987731 -0.990816 
-0.0211651 -0.0119089 -0.999705 -0.0987644 0.011512 -0.995044 -0.169388 -0.0109072 -0.985489 
-0.130025 0.0362023 -0.99085 -0.203186 -0.038535 -0.978382 0.418423 -0.501823 -0.75703 
0.402661 -0.518449 -0.75437 0.395362 -0.487474 -0.778498 0.277223 -0.651797 -0.705909 
0.218363 -0.368105 -0.903779 0.120855 -0.706472 -0.697346 0.0208885 -0.260708 -0.965192 
-0.056568 -0.659956 -0.749171 -0.0915432 -0.237725 -0.967009 -0.144506 -0.510728 -0.847511 
-0.166626 -0.240965 -0.956123 -0.155634 -0.221921 -0.962564 -0.184401 -0.311613 -0.932145 
-0.190416 -0.21816 -0.957156 
