# vtk DataFile Version 4.2
vtk output
ASCII
DATASET POLYDATA
POINTS 512 float
13.0924 -4.05614 -24.8446 -29.6389 -29.695 -17.8074 -21.0927 -29.695 -18.4572 
-12.5464 -29.695 -18.6285 -4.00012 -29.695 -18.7945 4.54616 -29.695 -19.1409 
13.0924 -29.695 -19.4034 21.6387 -29.695 -19.2142 30.185 -29.695 -18.8022 
38.7313 -29.695 -17.2356 -46.7315 -21.1487 -17.4541 -38.1852 -21.1487 -19.5548 
-29.6389 -21.1487 -20.1813 -21.0927 -21.1487 -20.4141 -12.5464 -21.1487 -20.4334 
-4.00012 -21.1487 -20.7809 4.54616 -21.1487 -21.4928 13.0924 -21.1487 -22.003 
21.6387 -21.1487 -21.624 30.185 -21.1487 -21.0802 38.7313 -21.1487 -20.8118 
47.2775 -21.1487 -19.5699 -46.7315 -12.6024 -20.1845 -38.1852 -12.6024 -21.554 
-29.6389 -12.6024 -21.312 -21.0927 -12.6024 -20.6327 -12.5464 -12.6024 -21.0644 
-4.00012 -12.6024 -21.6439 4.54616 -12.6024 -22.7394 13.0924 -4.18453 -24.8316 
13.0924 -12.6024 -23.9415 21.6387 -12.6024 -21.5329 30.185 -12.6024 -21.8216 
38.7313 -12.6024 -22.7261 47.2775 -12.6024 -21.1889 55.8238 -12.6024 -18.5082 
-55.2778 -4.05614 -18.0929 -46.7315 -4.05614 -21.1754 -38.1852 -4.05614 -21.6958 
-29.6389 -4.05614 -20.966 -21.0927 -4.05614 -19.8446 -12.5464 -4.05614 -22.1581 
-4.00012 -4.05614 -20.5426 13.0561 -4.05614 -24.8316 4.54616 -4.05614 -20.8576 
13.1176 -4.05614 -24.8316 13.0924 -3.99377 -24.8316 21.6387 -4.05614 -20.4484 
30.185 -4.05614 -21.2568 38.7313 -4.05614 -21.7691 47.2775 -4.05614 -21.572 
55.8238 -4.05614 -19.9163 -55.2778 4.49013 -18.5973 -46.7315 4.49013 -20.9771 
-38.1852 4.49013 -21.9345 -29.6389 4.49013 -21.0385 -21.0927 4.49013 -19.58 
-12.5464 4.49013 -21.3391 -4.00012 4.49013 -22.0463 4.54616 4.49013 -20.8757 
13.0924 4.49013 -22.7677 21.6387 4.49013 -20.1071 30.185 4.49013 -21.4199 
38.7313 4.49013 -21.9137 47.2775 4.49013 -21.7309 55.8238 4.49013 -20.0703 
-55.2778 13.0364 -17.7338 -46.7315 13.0364 -20.9614 -38.1852 13.0364 -22.9087 
-29.6389 13.0364 -22.2371 -21.0927 13.0364 -20.5321 -12.5464 13.0364 -19.9564 
-4.00012 13.0364 -21.4 4.54616 13.0364 -20.4518 13.0924 13.0364 -19.208 
21.6387 13.0364 -20.5004 30.185 13.0364 -21.8105 38.7313 13.0364 -23.12 
47.2775 13.0364 -21.2849 55.8238 13.0364 -18.9226 -46.7315 21.5827 -20.1364 
-38.1852 21.5827 -21.6147 -29.6389 21.5827 -21.9364 -21.0927 21.5827 -21.3078 
-12.5464 21.5827 -21.057 -4.00012 21.5827 -20.6299 4.54616 21.5827 -20.1303 
13.0924 21.5827 -19.3495 21.6387 21.5827 -20.5884 30.185 21.5827 -21.2764 
38.7313 21.5827 -21.7074 47.2775 21.5827 -21.0449 55.8238 21.5827 -17.8444 
-46.7315 30.129 -16.6366 -38.1852 30.129 -19.9766 -29.6389 30.129 -20.8061 
-21.0927 30.129 -20.4894 -12.5464 30.129 -20.2439 -4.00012 30.129 -20.1546 
4.54616 30.129 -19.395 13.0924 30.129 -18.668 21.6387 30.129 -19.5659 
30.185 30.129 -19.5352 38.7313 30.129 -20.2071 47.2775 30.129 -18.1551 
-21.0927 38.6752 -16.5137 -12.5464 38.6752 -16.3395 -29.6389 -32.437 -16.2854 
-29.6389 -38.2412 -11.4265 -21.0927 -33.9324 -16.2854 -21.0927 -38.2412 -13.5171 
-12.5464 -34.8772 -16.2854 -12.5464 -38.2412 -14.3482 -4.00012 -35.2466 -16.2854 
-4.00012 -38.2412 -14.5834 4.54616 -35.6649 -16.2854 4.54616 -38.2412 -14.667 
13.0924 -35.3987 -16.2854 13.0924 -38.2412 -14.0126 21.6387 -34.2524 -16.2854 
21.6387 -38.2412 -11.5232 30.185 -33.1077 -16.2854 38.7313 -30.6376 -16.2854 
-46.7315 -23.0273 -16.2854 -46.7315 -29.695 -10.2085 -35.1184 -29.695 -16.2854 
-38.1852 -27.9901 -16.2854 -38.1852 -29.695 -15.1831 41.6008 -29.695 -16.2854 
47.2775 -26.8026 -16.2854 47.2775 -29.695 -12.5668 -48.5871 -21.1487 -16.2854 
-55.2778 -21.1487 -9.61724 55.3128 -21.1487 -16.2854 55.8238 -20.4433 -16.2854 
55.8238 -21.1487 -15.955 -54.3303 -12.6024 -16.2854 -55.2778 -10.9055 -16.2854 
-55.2778 -12.6024 -15.5652 59.8327 -12.6024 -16.2854 64.3701 -12.6024 -12.234 
-57.4668 -4.05614 -16.2854 62.7292 -4.05614 -16.2854 64.3701 -4.05614 -15.0406 
-58.0928 4.49013 -16.2854 62.9369 4.49013 -16.2854 64.3701 4.49013 -15.1406 
-57.0645 13.0364 -16.2854 -55.2778 17.528 -16.2854 60.353 13.0364 -16.2854 
64.3701 13.0364 -12.4074 -52.9275 21.5827 -16.2854 -55.2778 21.5827 -14.1289 
58.0877 21.5827 -16.2854 55.8238 24.36 -16.2854 -47.2226 30.129 -16.2854 
-46.7315 30.5924 -16.2854 -38.1852 35.5324 -16.2854 -29.6389 38.0059 -16.2854 
-4.00012 37.8002 -16.2854 4.54616 36.7382 -16.2854 13.0924 36.0028 -16.2854 
21.6387 36.6257 -16.2854 30.185 36.6328 -16.2854 38.7313 35.7085 -16.2854 
50.4147 30.129 -16.2854 47.2775 32.6156 -16.2854 55.8238 30.129 -9.43335 
-38.1852 38.6752 -12.6993 -24.0732 38.6752 -16.2854 -29.6389 38.6752 -15.5653 
-21.0927 38.9171 -16.2854 -11.6876 38.6752 -16.2854 -12.5464 38.7314 -16.2854 
-4.00012 38.6752 -15.4066 4.54616 38.6752 -14.5962 13.0924 38.6752 -14.5512 
21.6387 38.6752 -14.854 30.185 38.6752 -14.4434 38.7313 38.6752 -12.1267 
-29.6389 -41.1452 -7.73908 -21.0927 -43.18 -7.73908 -12.5464 -43.9276 -7.73908 
-4.00012 -43.9914 -7.73908 4.54616 -43.7115 -7.73908 13.0924 -42.6005 -7.73908 
21.6387 -40.3004 -7.73908 -46.7315 -31.6692 -7.73908 -36.6629 -38.2412 -7.73908 
-38.1852 -37.5204 -7.73908 -38.1852 -38.2412 -6.07039 29.4131 -38.2412 -7.73908 
30.185 -38.0356 -7.73908 38.7313 -34.7704 -7.73908 47.2775 -31.7928 -7.73908 
-48.9406 -29.695 -7.73908 -55.2778 -22.833 -7.73908 51.679 -29.695 -7.73908 
55.8238 -27.2736 -7.73908 -56.5469 -21.1487 -7.73908 62.714 -21.1487 -7.73908 
64.3701 -18.5858 -7.73908 -61.1051 -12.6024 -7.73908 67.1262 -12.6024 -7.73908 
-62.8786 -4.05614 -7.73908 69.5044 -4.05614 -7.73908 -63.4384 4.49013 -7.73908 
69.3708 4.49013 -7.73908 -62.4212 13.0364 -7.73908 67.22 13.0364 -7.73908 
64.3701 20.3674 -7.73908 -59.3332 21.5827 -7.73908 -55.2778 27.9575 -7.73908 
63.8168 21.5827 -7.73908 -53.6345 30.129 -7.73908 -46.7315 36.3123 -7.73908 
47.2775 37.1249 -7.73908 56.8151 30.129 -7.73908 55.8238 31.0754 -7.73908 
55.8238 30.129 -5.30487 -42.8717 38.6752 -7.73908 -38.1852 41.1423 -7.73908 
-29.6389 42.8918 -7.73908 -21.0927 43.2977 -7.73908 -12.5464 42.8477 -7.73908 
-4.00012 42.2783 -7.73908 4.54616 42.234 -7.73908 13.0924 42.8618 -7.73908 
21.6387 43.3708 -7.73908 30.185 42.2089 -7.73908 43.6966 38.6752 -7.73908 
38.7313 40.5746 -7.73908 38.7313 38.6752 -1.49172 -38.1852 -40.4988 0.807196 
-29.6389 -44.3496 0.807196 -21.0927 -46.1695 0.807196 -12.5464 -46.6686 0.807196 
-4.00012 -46.4658 0.807196 4.54616 -45.7372 0.807196 13.0924 -43.8113 0.807196 
21.6387 -40.5749 0.807196 -41.6523 -38.2412 0.807196 -46.7315 -34.3576 0.807196 
27.3078 -38.2412 0.807196 21.6387 -38.2412 9.0874 30.185 -37.0732 0.807196 
38.7313 -34.2375 0.807196 47.2775 -30.1933 0.807196 -51.5921 -29.695 0.807196 
-55.2778 -25.0745 0.807196 48.1943 -29.695 0.807196 47.2775 -29.695 1.70729 
55.8238 -25.1523 0.807196 -57.9318 -21.1487 0.807196 60.619 -21.1487 0.807196 
55.8238 -21.1487 6.53124 64.3701 -15.6201 0.807196 -61.6288 -12.6024 0.807196 
65.9369 -12.6024 0.807196 64.3701 -12.6024 3.16811 -63.402 -4.05614 0.807196 
68.4942 -4.05614 0.807196 64.3701 -4.05614 7.18725 -63.663 4.49013 0.807196 
68.3658 4.49013 0.807196 64.3701 4.49013 6.66939 -62.9594 13.0364 0.807196 
65.2305 13.0364 0.807196 64.3701 15.6342 0.807196 64.3701 13.0364 2.01312 
-59.7984 21.5827 0.807196 -55.2778 28.8762 0.807196 61.6426 21.5827 0.807196 
55.8238 27.0043 0.807196 55.8238 21.5827 5.87953 -54.3465 30.129 0.807196 
-46.7315 36.9559 0.807196 38.7313 37.8243 0.807196 52.2361 30.129 0.807196 
47.2775 34.5494 0.807196 47.2775 30.129 4.63877 -43.9395 38.6752 0.807196 
-38.1852 41.6621 0.807196 -29.6389 43.4548 0.807196 -21.0927 43.6147 0.807196 
-12.5464 43.021 0.807196 -4.00012 42.3176 0.807196 4.54616 42.1589 0.807196 
13.0924 42.4577 0.807196 13.0924 38.6752 9.03807 21.6387 42.3524 0.807196 
21.6387 38.6752 6.58731 36.3679 38.6752 0.807196 30.185 40.6844 0.807196 
30.185 38.6752 3.67913 -38.1852 -38.9202 9.35347 -29.6389 -43.0132 9.35347 
-21.0927 -45.3583 9.35347 -12.5464 -46.274 9.35347 -4.00012 -45.9596 9.35347 
4.54616 -44.6742 9.35347 13.0924 -42.0403 9.35347 -39.224 -38.2412 9.35347 
-46.7315 -32.3774 9.35347 -38.1852 -38.2412 10.523 -29.6389 -38.2412 16.2862 
21.4743 -38.2412 9.35347 13.0924 -38.2412 15.6994 21.6387 -38.1578 9.35347 
30.185 -33.515 9.35347 38.7313 -29.9643 9.35347 -49.4214 -29.695 9.35347 
-55.2778 -21.6679 9.35347 -46.7315 -29.695 13.0523 30.185 -29.695 14.3779 
39.2906 -29.695 9.35347 38.7313 -29.695 9.71789 47.2775 -25.079 9.35347 
-55.5984 -21.1487 9.35347 -55.2778 -21.1487 9.85091 38.7313 -21.1487 17.4614 
52.975 -21.1487 9.35347 47.2775 -21.1487 13.2657 55.8238 -18.3644 9.35347 
-59.315 -12.6024 9.35347 -55.2778 -12.6024 15.6402 47.2775 -12.6024 17.4469 
59.9005 -12.6024 9.35347 55.8238 -12.6024 12.8604 -60.7322 -4.05614 9.35347 
-55.2778 -4.05614 16.5935 62.5922 -4.05614 9.35347 55.8238 -4.05614 14.8097 
-60.5064 4.49013 9.35347 -55.2778 4.49013 15.9608 62.0596 4.49013 9.35347 
55.8238 4.49013 14.341 -59.7256 13.0364 9.35347 -55.2778 13.0364 14.7707 
38.7313 13.0364 17.614 47.2775 13.0364 15.4317 58.49 13.0364 9.35347 
55.8238 16.8997 9.35347 55.8238 13.0364 11.4805 -56.647 21.5827 9.35347 
-55.2778 23.9177 9.35347 -55.2778 21.5827 11.0681 21.6387 21.5827 16.4269 
30.185 21.5827 15.431 38.7313 21.5827 13.8624 50.82 21.5827 9.35347 
47.2775 24.4112 9.35347 47.2775 21.5827 11.2211 -50.9763 30.129 9.35347 
-46.7315 34.1524 9.35347 -46.7315 30.129 13.8813 13.0924 38.4892 9.35347 
13.0924 30.129 17.0286 21.6387 36.3157 9.35347 21.6387 30.129 13.9849 
30.185 32.8419 9.35347 30.185 30.129 11.151 39.0705 30.129 9.35347 
38.7313 30.3894 9.35347 38.7313 30.129 9.50152 -39.4404 38.6752 9.35347 
-38.1852 39.3137 9.35347 -38.1852 38.6752 10.4065 -29.6389 41.4758 9.35347 
-29.6389 38.6752 13.7163 -21.0927 41.7761 9.35347 -21.0927 38.6752 14.5799 
-12.5464 41.2391 9.35347 -12.5464 38.6752 13.9963 -4.00012 40.407 9.35347 
-4.00012 38.6752 12.506 11.9885 38.6752 9.35347 4.54616 39.6599 9.35347 
4.54616 38.6752 10.983 -21.0927 -40.3703 17.8997 -12.5464 -41.8982 17.8997 
-4.00012 -41.837 17.8997 4.54616 -39.8469 17.8997 -38.1852 -31.6532 17.8997 
[...]
POINT_DATA 512
SCALARS ImageScalars float
LOOKUP_TABLE default
0 0 0 0 0 0 0 0 0 
0 0 0 0 0 0 0 0 0 
0 0 0 0 0 0 0 0 0 
0 0 0 0 0 0 0 0 0 
0 0 0 0 0 0 0 0 0 
0 0 0 0 0 0 0 0 0 
0 0 0 0 0 0 0 0 0 
0 0 0 0 0 0 0 0 0 
0 0 0 0 0 0 0 0 0 
0 0 0 0 0 0 0 0 0 
0 0 0 0 0 0 0 0 0 
0 0 0 0 0 0 0 0 0 
0 0 0 0 0 0 0 0 0 
0 0 0 0 0 0 0 0 0 
0 0 0 0 0 0 0 0 0 
0 0 0 0 0 0 0 0 0 
0 0 0 0 0 0 0 0 0 
0 0 0 0 0 0 0 0 0 
0 0 0 0 0 0 0 0 0 
0 0 0 0 0 0 0 0 0 
0 0 0 0 0 0 0 0 0 
0 0 0 0 0 0 0 0 0 
0 0 0 0 0 0 0 0 0 
0 0 0 0 0 0 0 0 0 
0 0 0 0 0 0 0 0 0 
0 0 0 0 0 0 0 0 0 
0 0 0 0 0 0 0 0 0 
0 0 0 0 0 0 0 0 0 
0 0 0 0 0 0 0 0 0 
0 0 0 0 0 0 0 0 0 
0 0 0 0 0 0 0 0 0 
0 0 0 0 0 0 0 0 0 
0 0 0 0 0 0 0 0 0 
0 0 0 0 0 0 0 0 0 
0 0 0 0 0 0 0 0 0 
0 0 0 0 0 0 0 0 0 
0 0 0 0 0 0 0 0 0 
0 0 0 0 0 0 0 0 0 
0 0 0 0 0 0 0 0 0 
0 0 0 0 0 0 0 0 0 
0 0 0 0 0 0 0 0 0 
0 0 0 0 0 0 0 0 0 
0 0 0 0 0 0 0 0 0 
0 0 0 0 0 0 0 0 0 
0 0 0 0 0 0 0 0 0 
0 0 0 0 0 0 0 0 0 
0 0 0 0 0 0 0 0 0 
0 0 0 0 0 0 0 0 0 
0 0 0 0 0 0 0 0 0 
0 0 0 0 0 0 0 0 0 
0 0 0 0 0 0 0 0 0 
0 0 0 0 0 0 0 0 0 
0 0 0 0 0 0 0 0 0 
0 0 0 0 0 0 0 0 0 
0 0 0 0 0 0 0 0 0 
0 0 0 0 0 0 0 0 0 
0 0 0 0 0 0 0 0 
NORMALS Normals float
-0.0895971 -0.0599197 0.994174 0.154861 0.398228 0.90412 0.0469608 0.332491 0.941936 
0.0181115 0.312814 0.949642 0.0280903 0.319219 0.947265 0.0329358 0.346944 0.937307 
0.00379314 0.385658 0.922634 -0.0327539 0.42586 0.904196 -0.0993067 0.475032 0.874347 
-0.239668 0.647908 0.723032 0.399808 0.420495 0.814455 0.145049 0.31381 0.938341 
0.0497288 0.19824 0.978891 0.0152672 0.117268 0.992983 0.0209532 0.135923 0.990498 
0.0609027 0.157077 0.985707 0.0712019 0.197943 0.977624 0.00577281 0.24453 0.969625 
-0.0522082 0.124329 0.990867 -0.0481401 0.165481 0.985037 -0.0773114 0.26793 0.960331 
-0.259392 0.362013 0.895356 0.300025 0.207959 0.930988 0.0563906 0.132015 0.989642 
-0.0532704 0.0484021 0.997406 -0.0149624 -0.0330412 0.999342 0.0599169 0.0937763 0.993789 
0.0948264 0.000484796 0.995494 0.13661 -0.0131029 0.990538 -0.0892776 -0.0562271 0.994418 
-0.0687835 0.15553 0.985433 -0.118747 -0.0700018 0.990454 0.0669156 0.0122607 0.997683 
-0.0472529 0.053685 0.997439 -0.2148 0.097684 0.971761 -0.400566 0.203802 0.893315 
0.557652 0.145236 0.817271 0.194936 0.0378697 0.980085 -0.0100118 0.0218991 0.99971 
-0.109276 -0.0164513 0.993875 0.051528 -0.0620493 0.996742 0.0673296 0.0270956 0.997363 
-0.0818319 0.00881638 0.996607 -0.0883329 -0.0601876 0.994271 0.236484 -0.127105 0.963286 
-0.0899542 -0.0601149 0.99413 -0.0895321 -0.06231 0.994033 -0.159175 -0.083014 0.983754 
0.0801783 -0.0252834 0.99646 0.0157997 -0.0453748 0.998845 -0.101839 0.0337306 0.994229 
-0.285154 0.0832372 0.954861 0.504146 -0.0199708 0.863387 0.19195 -0.0135414 0.981311 
0.00167189 0.0684737 0.997652 -0.140024 0.0755933 0.987258 -0.000612296 0.0363769 0.999338 
0.156034 -0.137183 0.978179 -0.0307275 0.036155 0.998874 0.0444531 -0.0271675 0.998642 
-0.0631339 -0.327194 0.942846 -0.0618425 0.00315136 0.998081 0.10949 0.0326571 0.993451 
0.0158564 0.0769904 0.996906 -0.101407 -0.0165349 0.994708 -0.286552 -0.0526446 0.956617 
0.565597 -0.195002 0.801296 0.276668 -0.0397226 0.960144 0.0842194 -0.0159467 0.99632 
-0.129255 0.0527168 0.990209 -0.136686 0.104183 0.985121 0.0523506 -0.00236683 0.998626 
0.0292896 -0.0772233 0.996584 -0.131481 -0.0417856 0.990438 0.00522672 -0.168596 0.985671 
0.152068 0.0278878 0.987977 0.14938 -0.00998863 0.988729 -0.0303686 -0.01163 0.999471 
-0.222883 -0.0372564 0.974133 -0.380012 -0.127858 0.916102 0.354279 -0.242609 0.903121 
0.0924635 -0.15339 0.98383 -0.0188927 -0.0803139 0.996591 -0.0509401 -0.00528656 0.998688 
-0.0398008 0.016946 0.999064 -0.0537331 -0.068693 0.99619 -0.0757904 -0.0593275 0.995357 
0.0261527 -0.0299976 0.999208 0.113072 -0.0482382 0.992415 0.0644194 -0.124861 0.990081 
-0.00806904 -0.152882 0.988212 -0.217097 -0.175394 0.960263 -0.483184 -0.306776 0.820013 
0.467187 -0.498541 0.730201 0.232553 -0.386939 0.892299 0.0214202 -0.291241 0.95641 
-0.0311937 -0.244441 0.969162 -0.0189306 -0.240022 0.970583 -0.0478645 -0.242589 0.968948 
-0.0825006 -0.248082 0.96522 0.0066701 -0.225757 0.974161 0.0508896 -0.264031 0.963171 
0.0308947 -0.307672 0.950991 -0.0788215 -0.392679 0.916292 -0.361292 -0.485124 0.796318 
0.0243397 -0.676998 0.735583 -0.0386739 -0.688436 0.724265 0.180998 0.487238 0.854306 
0.258209 0.734181 0.627938 0.0738828 0.479275 0.874549 0.121761 0.667777 0.734335 
0.0355072 0.469742 0.882089 0.0472253 0.614243 0.787703 0.0206679 0.483061 0.875343 
0.0143483 0.610709 0.791725 0.00245428 0.51977 0.854303 -0.0215829 0.636507 0.770969 
-0.0488692 0.564513 0.823976 -0.106958 0.718116 0.687655 -0.083153 0.612779 0.785867 
-0.200287 0.866228 0.457749 -0.163156 0.65167 0.740747 -0.254836 0.699003 0.668172 
0.426171 0.459381 0.779325 0.540998 0.661352 0.519553 0.253611 0.491092 0.833373 
0.278983 0.494682 0.823079 0.32136 0.550792 0.770296 -0.28531 0.682147 0.673256 
-0.329885 0.601451 0.727621 -0.378567 0.827788 0.41407 0.476238 0.43448 0.764477 
0.742001 0.517818 0.425792 -0.485282 0.432733 0.759766 -0.495163 0.414732 0.763421 
-0.510021 0.446832 0.734996 0.561944 0.32289 0.761552 0.591345 0.294915 0.750557 
0.61024 0.33526 0.71778 -0.547792 0.245171 0.799884 -0.811354 0.335831 0.478459 
0.663304 0.145351 0.734098 -0.6077 0.100854 0.787737 -0.722203 0.109557 0.682949 
0.65363 -0.0178005 0.756605 -0.631976 -0.082091 0.770628 -0.734771 -0.09546 0.671564 
0.652242 -0.195527 0.732359 0.604439 -0.299908 0.738044 -0.574026 -0.17703 0.799471 
-0.839431 -0.278775 0.466519 0.554624 -0.361669 0.749392 0.671196 -0.407724 0.619078 
-0.588146 -0.34966 0.729262 -0.553452 -0.41369 0.722877 0.483211 -0.503972 0.715904 
0.471735 -0.516481 0.714642 0.290777 -0.618712 0.729825 0.119321 -0.697396 0.706684 
-0.0585046 -0.666206 0.74347 -0.0498661 -0.592344 0.80414 -0.00290599 -0.501108 0.86538 
0.0161224 -0.568181 0.822746 -0.0338148 -0.623951 0.780732 -0.165222 -0.655981 0.736472 
-0.47801 -0.541841 0.691313 -0.387542 -0.609671 0.691457 -0.691168 -0.703936 0.163591 
0.329509 -0.79686 0.506397 0.0594469 -0.697247 0.714362 0.124103 -0.748393 0.651542 
0.0253363 -0.688192 0.725086 -0.0407357 -0.691128 0.721583 -0.0388112 -0.691135 0.721683 
-0.0565295 -0.743822 0.665983 -0.0260027 -0.755162 0.655022 0.0111143 -0.700486 0.71358 
-0.00189842 -0.709204 0.705001 -0.0801636 -0.792167 0.605017 -0.254805 -0.890629 0.376635 
0.279003 0.828351 0.48579 0.140056 0.856884 0.496119 0.0420267 0.875692 0.481037 
-0.0117666 0.88679 0.462023 -0.0767102 0.902895 0.422962 -0.189015 0.91893 0.34618 
-0.254854 0.93353 0.252131 0.57366 0.706636 0.414223 0.408228 0.781509 0.471798 
0.433788 0.768259 0.470751 0.453251 0.802887 0.387216 -0.292621 0.943802 0.153659 
-0.297643 0.943498 0.145672 -0.334965 0.928713 0.159028 -0.378239 0.919197 0.109598 
0.618221 0.674332 0.403831 0.754696 0.550756 0.356512 -0.463098 0.880202 0.103847 
-0.587495 0.799425 0.125581 0.777836 0.522731 0.348887 -0.775055 0.606313 0.177971 
-0.830406 0.524455 0.188078 0.889794 0.337106 0.307613 -0.913547 0.355097 0.198339 
0.952313 0.114953 0.282639 -0.968536 0.12744 0.21377 0.963343 -0.0234864 0.267241 
-0.969277 -0.12735 0.210438 0.936265 -0.22186 0.272371 -0.936705 -0.309148 0.16435 
-0.862103 -0.481497 0.157919 0.869695 -0.418274 0.262063 0.783462 -0.554839 0.279895 
-0.846563 -0.509997 0.152428 0.741361 -0.610771 0.278105 0.541042 -0.799012 0.262398 
-0.481194 -0.870899 0.0999332 -0.700279 -0.710693 0.0672694 -0.678026 -0.732539 0.0605581 
-0.685387 -0.725289 -0.0648125 0.437564 -0.861674 0.257012 0.329407 -0.910031 0.251664 
0.125886 -0.959344 0.252612 -0.00362365 -0.97362 0.228148 -0.0587863 -0.976667 0.206559 
-0.0354858 -0.97914 0.200066 0.0343736 -0.97546 0.217479 0.0682734 -0.969477 0.235484 
-0.0396888 -0.977266 0.208269 -0.160412 -0.975733 0.149042 -0.388962 -0.916839 0.0900853 
-0.274398 -0.959187 0.0683088 -0.282005 -0.921206 -0.268052 0.48713 0.871242 0.0603518 
0.31527 0.945157 0.0853362 0.127627 0.985993 0.107374 0.0161501 0.99308 0.116327 
-0.0533429 0.993897 0.0965552 -0.150148 0.987544 0.0470415 -0.279277 0.959787 -0.0285134 
-0.369307 0.923575 -0.103065 0.54727 0.834997 0.0572319 0.643153 0.764848 0.0368921 
-0.355103 0.916191 -0.185731 -0.42721 0.819758 -0.38143 -0.34301 0.911437 -0.227213 
-0.338286 0.90831 -0.24604 -0.430438 0.852339 -0.297055 0.739587 0.67289 0.0151908 
0.822096 0.568957 -0.02113 -0.439722 0.845898 -0.301829 -0.43246 0.842261 -0.321829 
-0.574267 0.748527 -0.33155 0.871442 0.488247 -0.0469516 -0.694239 0.63869 -0.331825 
-0.569663 0.630871 -0.526769 -0.829707 0.440955 -0.342264 0.945751 0.308093 -0.103118 
-0.87117 0.357117 -0.336944 -0.83692 0.345342 -0.424621 0.986957 0.112674 -0.114985 
-0.93778 0.118819 -0.326268 -0.79608 0.110524 -0.595013 0.988465 -0.024042 -0.14953 
-0.926877 -0.162012 -0.338601 -0.79509 -0.180138 -0.579122 0.96626 -0.218346 -0.136626 
-0.864157 -0.308205 -0.397796 -0.843088 -0.360437 -0.399108 -0.845456 -0.303984 -0.439087 
0.897639 -0.420444 -0.132181 0.801436 -0.586897 -0.115117 -0.729001 -0.535087 -0.426894 
-0.605008 -0.654788 -0.45301 -0.543169 -0.541588 -0.641599 0.77297 -0.624509 -0.111829 
0.552614 -0.828321 -0.0922119 -0.281599 -0.864502 -0.416339 -0.565084 -0.669116 -0.482664 
-0.460488 -0.741437 -0.48808 -0.441033 -0.624913 -0.644184 0.473003 -0.876334 -0.091139 
0.326166 -0.940573 -0.0945394 0.120218 -0.989429 -0.0810986 -0.025562 -0.995966 -0.0860086 
-0.075303 -0.992976 -0.0912546 -0.0501032 -0.993159 -0.105471 0.00737411 -0.989794 -0.142313 
0.0122356 -0.973414 -0.228725 -0.142995 -0.825983 -0.545257 -0.0970304 -0.932712 -0.347323 
-0.171605 -0.798373 -0.577194 -0.264197 -0.875561 -0.404466 -0.232803 -0.887218 -0.398305 
-0.218218 -0.814906 -0.536944 0.489238 0.806498 -0.331975 0.336489 0.883743 -0.325228 
0.177123 0.947076 -0.26772 0.0320037 0.975696 -0.216777 -0.0882609 0.972626 -0.214964 
-0.212588 0.938722 -0.271306 -0.335123 0.880451 -0.335408 0.506662 0.795345 -0.332747 
0.639853 0.68796 -0.342489 0.485034 0.786789 -0.381714 0.324439 0.66656 -0.671146 
-0.426903 0.816267 -0.389181 -0.357355 0.708291 -0.608786 -0.428329 0.814624 -0.391053 
-0.396367 0.792972 -0.462698 -0.367486 0.762402 -0.532632 0.682625 0.639696 -0.353289 
0.79642 0.463878 -0.387985 0.614066 0.608446 -0.502708 -0.367186 0.66086 -0.654552 
-0.372549 0.759294 -0.533554 -0.367462 0.755341 -0.542615 -0.434879 0.674596 -0.596491 
0.802291 0.45221 -0.38966 0.7937 0.45216 -0.406929 -0.31193 0.440185 -0.841984 
-0.499259 0.595562 -0.629323 -0.425103 0.535909 -0.729445 -0.560144 0.509447 -0.653225 
0.874783 0.262153 -0.407469 0.724106 0.223776 -0.652377 -0.365547 0.248236 -0.897081 
-0.666814 0.324062 -0.671076 -0.550366 0.315022 -0.773213 0.880316 0.0679786 -0.469491 
0.645386 0.00820402 -0.763813 -0.712807 0.0956459 -0.694808 -0.513854 0.0717825 -0.854869 
0.856223 -0.0537533 -0.513802 0.658538 -0.0754153 -0.748759 -0.689384 -0.174342 -0.703104 
-0.487168 -0.16897 -0.856806 0.835905 -0.197892 -0.511959 0.669061 -0.196774 -0.716685 
-0.163599 -0.315333 -0.934773 -0.308684 -0.344775 -0.886479 -0.596462 -0.342606 -0.725847 
-0.525702 -0.41173 -0.74439 -0.516565 -0.347056 -0.78276 0.780141 -0.386985 -0.491552 
0.752006 -0.44016 -0.490658 0.730778 -0.386016 -0.562987 -0.215496 -0.21674 -0.952148 
-0.133518 -0.378675 -0.915848 -0.212879 -0.424627 -0.879986 -0.414916 -0.498795 -0.760952 
-0.360789 -0.53134 -0.766492 -0.340613 -0.487702 -0.803822 0.65662 -0.589028 -0.471059 
0.55502 -0.701784 -0.446601 0.537005 -0.536212 -0.651231 -0.149972 -0.814814 -0.559988 
-0.268056 -0.438637 -0.857755 -0.217474 -0.675417 -0.70464 -0.291241 -0.429934 -0.854596 
-0.207795 -0.5662 -0.797646 -0.228172 -0.501509 -0.834521 -0.293862 -0.499276 -0.815088 
-0.290064 -0.503002 -0.814158 -0.288768 -0.495353 -0.819292 0.377747 -0.826563 -0.417253 
0.349813 -0.839621 -0.415532 0.351178 -0.816483 -0.45829 0.134821 -0.911001 -0.389743 
0.143778 -0.806557 -0.573406 -0.0139388 -0.931305 -0.363973 0.0129765 -0.798705 -0.601583 
-0.0771787 -0.935447 -0.344939 -0.0693056 -0.828256 -0.556048 -0.0885633 -0.929064 -0.359161 
-0.101084 -0.862575 -0.495729 -0.142363 -0.829692 -0.539763 -0.100427 -0.901604 -0.420742 
-0.119483 -0.86619 -0.485221 0.22553 0.663403 -0.713465 0.0677986 0.730527 -0.67951 
-0.0937457 0.755891 -0.647951 -0.240558 0.680517 -0.692119 0.372484 0.517058 -0.770653 
0.282465 0.610176 -0.740202 0.293641 0.575369 -0.763365 0.227857 0.559442 -0.796935 
0.0752472 0.556603 -0.827364 -0.0883207 0.596207 -0.797958 -0.29777 0.643333 -0.705306 
-0.237449 0.615281 -0.751696 -0.33299 0.565919 -0.754224 -0.321419 0.509324 -0.798298 
0.415697 0.489716 -0.766403 0.536932 0.402452 -0.741442 0.351518 0.457572 -0.816739 
0.211756 0.368252 -0.90529 0.127828 0.251072 -0.959491 0.122564 0.233651 -0.964565 
-0.0349462 0.26431 -0.963804 -0.229225 0.283323 -0.931227 -0.268381 0.304296 -0.913989 
-0.319305 0.50615 -0.80116 -0.305457 0.473811 -0.825954 -0.289005 0.446823 -0.846655 
0.562466 0.357235 -0.745664 0.514474 0.331147 -0.790985 0.230598 0.241028 -0.942725 
0.109249 0.162954 -0.980567 0.0888429 0.137222 -0.986548 0.107083 0.136314 -0.984861 
-0.21826 0.136802 -0.966255 -0.206325 0.118877 -0.971236 -0.163145 0.15716 -0.974004 
-0.296264 0.415576 -0.859956 -0.219752 0.314594 -0.923439 -0.297635 0.397473 -0.868003 
0.599206 0.176101 -0.780987 0.386005 0.0796776 -0.919049 0.219436 0.0400221 -0.974806 
0.114487 0.0297663 -0.992979 0.0992033 0.0711823 -0.992518 -0.227477 0.0288664 -0.973356 
-0.260733 0.0336737 -0.964824 -0.101572 -0.0272026 -0.994456 -0.0854888 0.072188 -0.993721 
-0.339689 0.233452 -0.911105 -0.219289 0.184838 -0.957991 -0.351131 0.176953 -0.919453 
0.556331 -0.0019947 -0.830958 0.357465 -0.0254231 -0.933581 0.193936 -0.0725838 -0.978325 
0.141001 -0.109257 -0.983962 0.215583 -0.0887458 -0.972444 -0.154889 -0.186756 -0.970119 
-0.161115 -0.130501 -0.97827 -0.288234 -0.0614985 -0.955583 -0.111251 -0.11856 -0.986695 
0.000134331 -0.0695936 -0.997575 -0.125977 -0.0115855 -0.991965 -0.360972 0.0455636 -0.931463 
-0.322805 0.0365456 -0.94576 0.534544 -0.0734989 -0.841939 0.316715 -0.0771864 -0.945375 
0.139807 -0.0721676 -0.987545 0.0913471 -0.112908 -0.989398 0.17577 -0.208038 -0.962198 
0.00574256 -0.307809 -0.951431 -0.135334 -0.198845 -0.970642 -0.100537 -0.145801 -0.984192 
-0.266907 -0.146498 -0.952522 -0.0881639 -0.17182 -0.981175 0.0203189 -0.162551 -0.986491 
-0.158718 -0.299062 -0.940941 -0.117842 -0.192561 -0.974183 -0.300343 -0.186238 -0.935473 
-0.291234 -0.201485 -0.935193 -0.28954 -0.186722 -0.938777 0.460615 -0.174484 -0.870281 
0.346639 -0.139423 -0.927579 0.175897 -0.0868247 -0.980572 0.0140681 -0.0464586 -0.998821 
0.0294406 -0.0856892 -0.995887 0.0317701 -0.2116 -0.97684 0.000162896 -0.104689 -0.994505 
-0.115579 -0.106615 -0.98756 -0.312309 -0.146333 -0.938643 -0.114658 -0.176979 -0.977513 
-0.111112 -0.175653 -0.978162 -0.113613 -0.295061 -0.9487 -0.0370972 -0.277645 -0.959967 
-0.0183535 -0.257178 -0.96619 0.444154 -0.271685 -0.853765 0.442723 -0.276554 -0.852945 
0.440452 -0.269656 -0.856322 0.220736 -0.202379 -0.954106 0.0899155 -0.12624 -0.987916 
0.00135095 -0.0883915 -0.996085 -0.0111912 -0.13261 -0.991105 -0.0205133 -0.163285 -0.986366 
-0.147881 -0.221027 -0.963991 -0.262841 -0.193839 -0.945167 -0.285304 -0.344163 -0.894513 
-0.309971 -0.185952 -0.932384 0.327048 -0.418544 -0.847267 0.300165 -0.440476 -0.846098 
0.295761 -0.405762 -0.864802 0.140799 -0.548009 -0.824537 0.132978 -0.371995 -0.91866 
0.0251688 -0.577482 -0.816015 0.0210868 -0.343275 -0.938998 -0.0547983 -0.579184 -0.813353 
-0.044948 -0.3486 -0.936193 -0.0997671 -0.550947 -0.828556 -0.0876561 -0.390696 -0.916337 
-0.227441 -0.437135 -0.870163 -0.16398 -0.517173 -0.840025 -0.157045 -0.445763 -0.881268 
-0.0264085 0.112594 -0.99329 -0.0207857 0.108987 -0.993826 0.101108 0.14692 -0.983967 
-0.0312571 0.108562 -0.993598 -0.0261631 0.107883 -0.993819 0.0994041 0.131819 -0.986277 
0.0991498 0.150851 -0.983572 -0.172434 0.0181298 -0.984854 -0.141964 -0.167236 -0.975642 
-0.035319 -0.00393018 -0.999368 0.170227 -0.0708941 -0.982851 -0.145125 -0.177638 -0.973336 
0.00685923 -0.292752 -0.956164 0.0265279 -0.0196368 -0.999455 
