# vtk DataFile Version 4.2
vtk output
ASCII
DATASET POLYDATA
POINTS 506 float
41.0728 -4.26473 -24.3839 49.19 -4.26473 -24.2753 -40.0991 -28.6163 -17.3579 
-31.9819 -28.6163 -19.2363 -23.8647 -28.6163 -19.5264 -15.7475 -28.6163 -19.2818 
-7.63031 -28.6163 -17.8883 0.48687 -28.6163 -16.7948 8.60405 -28.6163 -17.0968 
16.7212 -28.6163 -16.9631 24.8384 -28.6163 -16.6857 -48.2162 -20.4991 -18.8144 
-40.0991 -20.4991 -21.2077 -31.9819 -20.4991 -22.2733 -23.8647 -20.4991 -22.0835 
-15.7475 -20.4991 -21.8616 -7.63031 -20.4991 -20.6254 0.48687 -20.4991 -20.0888 
8.60405 -20.4991 -20.2992 16.7212 -20.4991 -20.624 24.8384 -20.4991 -21.3616 
32.9556 -20.4991 -22.831 41.0728 -20.4991 -21.8563 49.19 -20.4991 -20.781 
57.3072 -20.4991 -17.1898 -56.3334 -12.3819 -16.3426 -48.2162 -12.3819 -20.4587 
-40.0991 -12.3819 -21.992 -31.9819 -12.3819 -22.3994 -23.8647 -12.3819 -22.2614 
-15.7475 -12.3819 -21.4173 -7.63031 -12.3819 -20.9456 0.48687 -12.3819 -20.156 
8.60405 -12.3819 -20.2339 16.7212 -12.3819 -20.7507 24.8384 -12.3819 -22.1121 
32.9556 -12.3819 -23.745 41.0728 -6.9087 -24.2416 41.0728 -12.3819 -23.9653 
49.19 -4.77155 -24.2416 49.19 -12.3819 -23.7329 57.3072 -12.3819 -22.1563 
65.4243 -12.3819 -17.424 -48.2162 -4.26473 -18.2134 -40.0991 -4.26473 -19.9715 
-31.9819 -4.26473 -20.4039 -23.8647 -4.26473 -20.0713 -15.7475 -4.26473 -20.1152 
-7.63031 -4.26473 -21.2545 0.48687 -4.26473 -18.4158 8.60405 -4.26473 -19.0661 
16.7212 -4.26473 -19.1965 24.8384 -4.26473 -21.479 40.2184 -4.26473 -24.2416 
32.9556 -4.26473 -23.0154 41.0728 -3.53478 -24.2416 50.9088 -4.26473 -24.2416 
49.19 -4.01618 -24.2416 57.3072 -4.26473 -24.0954 65.4243 -4.26473 -19.674 
-40.0991 3.85245 -17.1671 -31.9819 3.85245 -17.7667 -23.8647 3.85245 -17.0533 
-15.7475 3.85245 -18.6431 -7.63031 3.85245 -21.3127 0.48687 3.85245 -16.8386 
8.60405 3.85245 -19.3184 16.7212 3.85245 -17.4275 24.8384 3.85245 -19.5557 
32.9556 3.85245 -21.7056 41.0728 3.85245 -22.7752 49.19 3.85245 -23.1521 
57.3072 3.85245 -21.8772 65.4243 3.85245 -17.4701 -15.7475 11.9696 -17.732 
-7.63031 11.9696 -18.6683 0.48687 11.9696 -18.0073 8.60405 11.9696 -19.2464 
16.7212 11.9696 -16.3142 24.8384 11.9696 -17.2156 32.9556 11.9696 -18.4901 
41.0728 11.9696 -19.1231 49.19 11.9696 -19.0043 57.3072 11.9696 -16.5683 
-15.7475 20.0868 -16.211 -7.63031 20.0868 -16.9646 0.48687 20.0868 -17.2815 
8.60405 20.0868 -17.5667 -40.0991 -29.6618 -16.1245 -31.9819 -32.0894 -16.1245 
-23.8647 -32.7857 -16.1245 -15.7475 -32.2718 -16.1245 -7.63031 -30.5421 -16.1245 
0.48687 -29.3499 -16.1245 8.60405 -29.5683 -16.1245 16.7212 -29.4389 -16.1245 
24.8384 -29.1161 -16.1245 -42.4459 -28.6163 -16.1245 -48.2162 -24.8158 -16.1245 
-48.2162 -28.6163 -11.7313 30.0812 -28.6163 -16.1245 32.9556 -28.2795 -16.1245 
32.9556 -28.6163 -15.3687 41.0728 -27.4367 -16.1245 41.0728 -28.6163 -12.2969 
49.19 -25.017 -16.1245 57.3072 -21.371 -16.1245 -52.354 -20.4991 -16.1245 
-56.3334 -13.0567 -16.1245 -56.3334 -20.4991 -12.3026 58.901 -20.4991 -16.1245 
65.4243 -14.0624 -16.1245 -56.6148 -12.3819 -16.1245 -56.3334 -11.4387 -16.1245 
66.5298 -12.3819 -16.1245 -52.6666 -4.26473 -16.1245 -56.3334 -4.26473 -14.1629 
-48.2162 1.75207 -16.1245 69.7911 -4.26473 -16.1245 -56.3334 3.85245 -9.60184 
-45.134 3.85245 -16.1245 -48.2162 3.85245 -15.2872 -40.0991 6.16309 -16.1245 
-31.9819 8.22036 -16.1245 -23.8647 8.50376 -16.1245 67.3795 3.85245 -16.1245 
65.4243 5.85425 -16.1245 -48.2162 11.9696 -10.3831 -40.0991 11.9696 -13.3024 
-31.9819 11.9696 -14.6569 -21.3092 11.9696 -16.1245 -23.8647 11.9696 -15.4726 
16.7212 13.274 -16.1245 24.8384 14.5238 -16.1245 32.9556 15.4455 -16.1245 
41.0728 16.0569 -16.1245 49.19 15.1422 -16.1245 58.0286 11.9696 -16.1245 
57.3072 12.5023 -16.1245 -40.0991 20.0868 -10.0601 -31.9819 20.0868 -12.4338 
-16.1539 20.0868 -16.1245 -23.8647 20.0868 -14.469 -15.7475 20.5159 -16.1245 
-7.63031 27.0135 -16.1245 0.48687 25.5603 -16.1245 13.527 20.0868 -16.1245 
8.60405 24.6387 -16.1245 16.7212 20.0868 -15.1531 24.8384 20.0868 -13.5507 
32.9556 20.0868 -12.3519 41.0728 20.0868 -11.8212 49.19 20.0868 -8.02825 
-31.9819 28.204 -9.01189 -23.8647 28.204 -12.1279 -15.7475 28.204 -14.516 
-7.63031 28.204 -15.9716 0.48687 28.204 -15.5628 8.60405 28.204 -14.8703 
16.7212 28.204 -12.1449 -15.7475 36.3212 -10.6294 -7.63031 36.3212 -12.6295 
0.48687 36.3212 -12.1169 8.60405 36.3212 -9.26864 -48.2162 -30.9166 -8.00727 
-40.0991 -33.7247 -8.00727 -31.9819 -35.801 -8.00727 -23.8647 -36.6799 -8.00727 
-23.8647 -36.7335 -7.14107 -15.7475 -36.0984 -8.00727 -7.63031 -34.8226 -8.00727 
0.48687 -33.3443 -8.00727 8.60405 -33.1722 -8.00727 16.7212 -33.0766 -8.00727 
24.8384 -32.128 -8.00727 32.9556 -30.8695 -8.00727 41.0728 -29.6648 -8.00727 
-51.1425 -28.6163 -8.00727 -56.3334 -24.1475 -8.00727 44.5898 -28.6163 -8.00727 
41.0728 -28.6163 -0.843675 49.19 -27.3088 -8.00727 57.3072 -23.8196 -8.00727 
-59.3765 -20.4991 -8.00727 64.4905 -20.4991 -8.00727 65.4243 -19.7707 -8.00727 
-62.7768 -12.3819 -8.00727 -64.4506 -12.3819 -1.14579 69.9756 -12.3819 -8.00727 
-61.866 -4.26473 -8.00727 -64.4506 -4.26473 -1.1976 72.735 -4.26473 -8.00727 
-58.068 3.85245 -8.00727 -56.3334 6.70443 -8.00727 71.5626 3.85245 -8.00727 
65.4243 11.2999 -8.00727 -52.1196 11.9696 -8.00727 -56.3334 11.9696 -3.12195 
-48.2162 15.8152 -8.00727 64.6148 11.9696 -8.00727 57.3072 18.6458 -8.00727 
-43.7636 20.0868 -8.00727 -48.2162 20.0868 -3.95336 -40.0991 23.2101 -8.00727 
24.8384 27.7901 -8.00727 32.9556 24.1846 -8.00727 41.0728 22.3363 -8.00727 
49.2626 20.0868 -8.00727 49.19 20.0974 -8.00727 -33.8126 28.204 -8.00727 
-40.0991 28.204 -3.01627 -31.9819 29.5686 -8.00727 -23.8647 34.6815 -8.00727 
24.2623 28.204 -8.00727 16.7212 33.2599 -8.00727 24.8384 28.204 -7.43713 
-31.9819 36.3212 0.0576087 -21.4274 36.3212 -8.00727 -23.8647 36.3212 -6.3453 
-15.7475 39.7832 -8.00727 -7.63031 41.7795 -8.00727 0.48687 40.6786 -8.00727 
11.1272 36.3212 -8.00727 8.60405 37.4973 -8.00727 16.7212 36.3212 -2.86 
-15.7475 44.4384 -1.20951 -7.63031 44.4384 -3.68368 0.48687 44.4384 -0.791007 
-23.8647 -37.1808 0.109912 -48.2162 -31.6473 0.109912 -40.0991 -34.6687 0.109912 
-28.7446 -36.7335 0.109912 -31.9819 -36.44 0.109912 -20.1512 -36.7335 0.109912 
-23.8647 -36.7335 2.04312 -15.7475 -36.2015 0.109912 -7.63031 -34.511 0.109912 
0.48687 -33.1648 0.109912 8.60405 -32.7876 0.109912 16.7212 -31.9905 0.109912 
24.8384 -30.9738 0.109912 32.9556 -29.8369 0.109912 -52.8142 -28.6163 0.109912 
-56.3334 -25.8646 0.109912 16.7212 -28.6163 7.40251 24.8384 -28.6163 4.96539 
40.2481 -28.6163 0.109912 32.9556 -28.6163 2.63017 41.0728 -28.4563 0.109912 
49.19 -25.3864 0.109912 57.3072 -22.1454 0.109912 -60.9226 -20.4991 0.109912 
-64.4506 -13.0375 0.109912 49.19 -20.4991 6.98658 60.6131 -20.4991 0.109912 
57.3072 -20.4991 2.98718 65.4243 -14.4313 0.109912 -64.7299 -12.3819 0.109912 
-64.4506 -12.3819 1.39614 66.4512 -12.3819 0.109912 65.4243 -12.3819 1.54962 
-64.8817 -4.26473 0.109912 -64.4506 -2.80918 0.109912 -64.4506 -4.26473 2.04149 
71.6707 -4.26473 0.109912 65.4243 -4.26473 6.42863 -62.1794 3.85245 0.109912 
69.9483 3.85245 0.109912 65.4243 10.7208 0.109912 65.4243 3.85245 5.48172 
-58.1149 11.9696 0.109912 -56.3334 14.5147 0.109912 64.4804 11.9696 0.109912 
57.3072 17.2214 0.109912 -51.5922 20.0868 0.109912 -48.2162 23.7073 0.109912 
32.9556 27.4641 0.109912 41.0728 23.8043 0.109912 51.578 20.0868 0.109912 
49.19 21.246 0.109912 49.19 20.0868 3.61546 -43.3326 28.204 0.109912 
-40.0991 30.6805 0.109912 31.6403 28.204 0.109912 24.8384 32.7499 0.109912 
-32.0347 36.3212 0.109912 -31.9819 36.3529 0.109912 -23.8647 40.8387 0.109912 
8.60405 41.3724 0.109912 19.2003 36.3212 0.109912 16.7212 37.6467 0.109912 
-17.0807 44.4384 0.109912 -15.7475 45.0075 0.109912 -7.63031 46.1878 0.109912 
1.41082 44.4384 0.109912 0.48687 44.8007 0.109912 -48.2162 -29.7894 8.2271 
-40.0991 -32.9728 8.2271 -31.9819 -34.8633 8.2271 -23.8647 -35.1808 8.2271 
-15.7475 -33.8381 8.2271 -7.63031 -31.9234 8.2271 0.48687 -30.8865 8.2271 
8.60405 -30.0407 8.2271 -49.7731 -28.6163 8.2271 -56.3334 -23.2076 8.2271 
-48.2162 -28.6163 9.95743 -15.7475 -28.6163 15.0091 -7.63031 -28.6163 12.8719 
0.48687 -28.6163 11.8502 14.8894 -28.6163 8.2271 8.60405 -28.6163 10.259 
16.7212 -28.1369 8.2271 24.8384 -26.6189 8.2271 32.9556 -25.0644 8.2271 
41.0728 -23.0221 8.2271 -58.6058 -20.4991 8.2271 -56.3334 -20.4991 11.3854 
16.7212 -20.4991 15.4892 24.8384 -20.4991 14.2393 32.9556 -20.4991 12.683 
47.0034 -20.4991 8.2271 41.0728 -20.4991 10.7724 49.19 -19.3395 8.2271 
57.3072 -13.8763 8.2271 -62.6988 -12.3819 8.2271 41.0728 -12.3819 15.9966 
49.19 -12.3819 13.2922 58.5468 -12.3819 8.2271 57.3072 -12.3819 9.05134 
-62.9747 -4.26473 8.2271 49.19 -4.26473 15.9538 63.5706 -4.26473 8.2271 
57.3072 -4.26473 12.4906 -61.3339 3.85245 8.2271 -56.3334 3.85245 15.9219 
49.19 3.85245 16.2501 62.9827 3.85245 8.2271 57.3072 3.85245 12.6417 
-58.0326 11.9696 8.2271 -56.3334 14.7651 8.2271 -56.3334 11.9696 11.848 
49.19 18.2394 8.2271 49.19 11.9696 14.1058 57.7498 11.9696 8.2271 
57.3072 12.393 8.2271 57.3072 11.9696 8.54596 -52.8674 20.0868 8.2271 
-48.2162 25.5448 8.2271 -48.2162 20.0868 16.1105 32.9556 26.901 8.2271 
46.3415 20.0868 8.2271 41.0728 22.8647 8.2271 41.0728 20.0868 12.1022 
-45.435 28.204 8.2271 -40.0991 32.5405 8.2271 31.2682 28.204 8.2271 
24.8384 33.462 8.2271 -34.1019 36.3212 8.2271 -31.9819 37.5668 8.2271 
-31.9819 36.3212 12.6453 -23.8647 42.1068 8.2271 8.60405 41.316 8.2271 
19.9977 36.3212 8.2271 16.7212 38.0217 8.2271 16.7212 36.3212 11.7736 
-17.8553 44.4384 8.2271 -15.7475 45.2115 8.2271 -15.7475 44.4384 10.55 
-7.63031 46.4018 8.2271 -7.63031 44.4384 12.9501 1.04158 44.4384 8.2271 
0.48687 44.654 8.2271 0.48687 44.4384 8.74828 -40.0991 -28.7829 16.3443 
-31.9819 -29.9369 16.3443 -23.8647 -29.1511 16.3443 -40.4357 -28.6163 16.3443 
-48.2162 -23.0983 16.3443 -40.0991 -28.6163 16.5185 -31.9819 -28.6163 17.3986 
-21.4945 -28.6163 16.3443 -23.8647 -28.6163 16.8314 -15.7475 -26.7681 16.3443 
[...]
POINT_DATA 506
SCALARS ImageScalars float
LOOKUP_TABLE default
0 0 0 0 0 0 0 0 0 
0 0 0 0 0 0 0 0 0 
0 0 0 0 0 0 0 0 0 
0 0 0 0 0 0 0 0 0 
0 0 0 0 0 0 0 0 0 
0 0 0 0 0 0 0 0 0 
0 0 0 0 0 0 0 0 0 
0 0 0 0 0 0 0 0 0 
0 0 0 0 0 0 0 0 0 
0 0 0 0 0 0 0 0 0 
0 0 0 0 0 0 0 0 0 
0 0 0 0 0 0 0 0 0 
0 0 0 0 0 0 0 0 0 
0 0 0 0 0 0 0 0 0 
0 0 0 0 0 0 0 0 0 
0 0 0 0 0 0 0 0 0 
0 0 0 0 0 0 0 0 0 
0 0 0 0 0 0 0 0 0 
0 0 0 0 0 0 0 0 0 
0 0 0 0 0 0 0 0 0 
0 0 0 0 0 0 0 0 0 
0 0 0 0 0 0 0 0 0 
0 0 0 0 0 0 0 0 0 
0 0 0 0 0 0 0 0 0 
0 0 0 0 0 0 0 0 0 
0 0 0 0 0 0 0 0 0 
0 0 0 0 0 0 0 0 0 
0 0 0 0 0 0 0 0 0 
0 0 0 0 0 0 0 0 0 
0 0 0 0 0 0 0 0 0 
0 0 0 0 0 0 0 0 0 
0 0 0 0 0 0 0 0 0 
0 0 0 0 0 0 0 0 0 
0 0 0 0 0 0 0 0 0 
0 0 0 0 0 0 0 0 0 
0 0 0 0 0 0 0 0 0 
0 0 0 0 0 0 0 0 0 
0 0 0 0 0 0 0 0 0 
0 0 0 0 0 0 0 0 0 
0 0 0 0 0 0 0 0 0 
0 0 0 0 0 0 0 0 0 
0 0 0 0 0 0 0 0 0 
0 0 0 0 0 0 0 0 0 
0 0 0 0 0 0 0 0 0 
0 0 0 0 0 0 0 0 0 
0 0 0 0 0 0 0 0 0 
0 0 0 0 0 0 0 0 0 
0 0 0 0 0 0 0 0 0 
0 0 0 0 0 0 0 0 0 
0 0 0 0 0 0 0 0 0 
0 0 0 0 0 0 0 0 0 
0 0 0 0 0 0 0 0 0 
0 0 0 0 0 0 0 0 0 
0 0 0 0 0 0 0 0 0 
0 0 0 0 0 0 0 0 0 
0 0 0 0 0 0 0 0 0 
0 0 
NORMALS Normals float
0.0755445 -0.0705105 0.994646 -0.0162694 -0.0344834 0.999273 0.309267 0.669093 0.675773 
0.100853 0.565974 0.818231 0.00221366 0.507612 0.861583 -0.0880971 0.520065 0.849571 
-0.148073 0.572016 0.806766 -0.0437074 0.640796 0.766466 0.0104814 0.663398 0.748193 
-0.0214412 0.692054 0.721527 -0.0586654 0.754539 0.653628 0.402045 0.354934 0.844027 
0.200435 0.214718 0.955888 0.0483896 0.167152 0.984743 -0.024689 0.15014 0.988356 
-0.089443 0.114233 0.989419 -0.106369 0.15685 0.981878 -0.0195779 0.181071 0.983275 
0.0323281 0.155982 0.987231 0.0626331 0.193202 0.979158 0.120112 0.270156 0.955295 
0.0301578 0.376408 0.925963 -0.0981102 0.430281 0.897347 -0.223882 0.562761 0.795724 
-0.414316 0.715281 0.562775 0.57466 0.0416736 0.81733 0.325249 -0.0361377 0.944937 
0.109008 -0.0761293 0.991121 0.0156121 -0.110599 0.993742 -0.0603506 -0.118888 0.991072 
-0.0812364 -0.102552 0.991405 -0.077327 0.0375362 0.996299 -0.0437461 -0.0960475 0.994415 
0.0366639 -0.076026 0.996432 0.115077 -0.0837485 0.98982 0.181176 0.00795539 0.983418 
0.115569 -0.000140206 0.993299 0.0510535 -0.00077511 0.998696 -0.000652934 0.138976 0.990296 
-0.0209088 -0.022935 0.999518 -0.0936557 0.159323 0.982774 -0.299128 0.343451 0.890261 
-0.672423 0.407136 0.618132 0.296916 -0.291077 0.909459 0.1215 -0.294255 0.947973 
0.00560422 -0.295602 0.955295 -0.0174547 -0.320082 0.947229 0.0734533 -0.154235 0.9853 
-0.101298 0.0230213 0.99459 -0.13556 -0.202981 0.969754 0.0451938 -0.0566468 0.997371 
0.136989 -0.204423 0.96925 0.232923 -0.154778 0.960099 0.0862967 -0.0760039 0.993366 
0.176987 -0.125719 0.976151 0.0771191 -0.0893248 0.993012 -0.0695157 -0.0324784 0.997052 
-0.0171497 -0.0415463 0.998989 -0.288436 -0.0227314 0.957229 -0.57308 -0.0427014 0.818386 
0.136664 -0.373537 0.917493 -0.00497725 -0.340226 0.94033 0.0282668 -0.274702 0.961114 
0.265245 -0.153628 0.951863 -0.137566 -0.156077 0.978118 -0.0918234 -0.0239133 0.995488 
0.0268264 0.0119881 0.999568 0.0103579 -0.171512 0.985128 0.249699 -0.240231 0.938051 
0.192097 -0.258441 0.946735 0.0824762 -0.284247 0.955197 -0.0434105 -0.273699 0.960835 
-0.327764 -0.391102 0.860006 -0.523421 -0.392878 0.756094 0.20537 -0.1468 0.967612 
0.0140724 -0.253553 0.967219 0.0365601 0.0223042 0.999083 -0.0960668 -0.109078 0.98938 
-0.122117 -0.137189 0.982989 0.120483 -0.3346 0.934626 0.105457 -0.463908 0.879584 
0.0291268 -0.524467 0.850933 -0.132247 -0.610507 0.780892 -0.3684 -0.616186 0.696129 
0.149836 -0.18317 0.971596 0.0652973 -0.156579 0.985505 0.036282 -0.145702 0.988663 
-0.116005 -0.247399 0.961944 0.306522 0.723235 0.61885 0.159761 0.74926 0.642718 
0.0095895 0.735615 0.677332 -0.110579 0.731032 0.673324 -0.155153 0.687111 0.709793 
-0.0480727 0.684294 0.72762 0.0044839 0.72444 0.689323 -0.0255721 0.735816 0.676698 
-0.0638762 0.782164 0.619789 0.369765 0.672706 0.640891 0.469886 0.496573 0.72981 
0.505719 0.71988 0.475417 -0.0783636 0.812194 0.578101 -0.0825137 0.824814 0.55935 
-0.0951331 0.856758 0.506869 -0.150835 0.859491 0.48839 -0.188543 0.947782 0.257217 
-0.317578 0.799167 0.510368 -0.423771 0.753138 0.50319 0.547534 0.406388 0.731475 
0.585953 0.0742222 0.806939 0.690879 0.493714 0.52814 -0.465272 0.722145 0.511887 
-0.68311 0.488859 0.542566 0.586493 0.0438163 0.808769 0.575868 0.00211081 0.81754 
-0.709261 0.440921 0.550035 0.438103 -0.300531 0.847199 0.578307 -0.316421 0.751957 
0.341939 -0.367027 0.865083 -0.765922 0.0527058 0.64077 0.616175 -0.436459 0.655616 
0.269084 -0.390524 0.880389 0.357062 -0.402297 0.843009 0.156663 -0.377444 0.912685 
0.0601477 -0.325671 0.943568 0.106723 -0.203803 0.973178 -0.574778 -0.411213 0.707485 
-0.540743 -0.475379 0.693983 0.410644 -0.487399 0.770593 0.228427 -0.38803 0.892891 
0.126441 -0.303968 0.944254 0.181881 -0.142966 0.972872 0.170654 -0.151413 0.973628 
-0.140027 -0.151644 0.978466 0.0450689 -0.373851 0.926393 0.046672 -0.550491 0.833535 
-0.0187912 -0.64006 0.768095 -0.149638 -0.728469 0.668536 -0.389718 -0.625623 0.675807 
-0.368947 -0.635239 0.67849 0.368716 -0.458751 0.808452 0.251867 -0.313217 0.915674 
0.153603 -0.182731 0.97109 0.222681 -0.190756 0.956047 0.153168 -0.188316 0.970091 
0.06112 -0.222441 0.973028 -0.0279511 -0.230129 0.972759 -0.190241 -0.23238 0.953838 
-0.148945 -0.331423 0.931651 -0.239501 -0.231837 0.94281 -0.150248 -0.485402 0.861284 
-0.0863555 -0.709611 0.699282 -0.133162 -0.838095 0.529022 -0.210766 -0.930389 0.299925 
0.399405 -0.505742 0.764657 0.308704 -0.396022 0.864794 0.212695 -0.29652 0.931041 
0.0606541 -0.2358 0.969907 -0.0599827 -0.276129 0.959247 -0.180492 -0.416253 0.891154 
-0.361712 -0.479162 0.79973 0.295232 -0.539615 0.78845 0.0765308 -0.512512 0.855263 
-0.162765 -0.572982 0.803243 -0.325994 -0.695421 0.640404 0.480404 0.836512 0.263552 
0.259279 0.930889 0.257331 0.169529 0.962183 0.213223 0.0173566 0.978655 0.204776 
0.0140135 0.98464 0.174035 -0.109535 0.976763 0.184216 -0.16767 0.969418 0.179209 
-0.0997391 0.977057 0.188179 -0.0160588 0.986948 0.160239 -0.0664809 0.990305 0.12197 
-0.129041 0.988201 0.0825046 -0.151507 0.985671 0.07415 -0.219755 0.974469 0.0460169 
0.544299 0.782189 0.303181 0.683638 0.642816 0.345582 -0.260526 0.965178 0.023602 
-0.240828 0.924889 -0.294248 -0.316858 0.94847 0.00241722 -0.4431 0.895825 0.0340619 
0.792685 0.49691 0.353173 -0.621579 0.781622 0.0520356 -0.666196 0.74421 0.0483075 
0.912448 0.125211 0.389565 0.975552 0.211473 0.0598148 -0.890533 0.454916 -0.00189559 
0.844424 -0.214134 0.491015 0.982746 -0.145994 0.113558 -0.993124 0.0742681 0.0904977 
0.677003 -0.425676 0.600389 0.629573 -0.463802 0.623318 -0.930596 -0.35594 0.0854259 
-0.661955 -0.727644 0.179862 0.530445 -0.496839 0.686861 0.746515 -0.53489 0.395737 
0.48186 -0.512367 0.710838 -0.635131 -0.748251 0.191649 -0.412123 -0.893797 0.176868 
0.451331 -0.508113 0.733568 0.604552 -0.592584 0.532317 0.417725 -0.526505 0.740471 
-0.410863 -0.666583 0.621979 -0.259619 -0.809377 0.52679 -0.211925 -0.915738 0.341338 
-0.212608 -0.930609 0.297935 -0.210961 -0.930581 0.299188 0.4184 -0.538523 0.731392 
0.521824 -0.682696 0.511493 0.411997 -0.548602 0.727527 0.391484 -0.589502 0.70656 
-0.41928 -0.663085 0.620099 -0.413536 -0.681509 0.603766 -0.43064 -0.682136 0.590966 
0.483176 -0.811158 0.329489 0.377817 -0.611278 0.695409 0.416931 -0.662692 0.622099 
0.296659 -0.670679 0.679841 0.0252941 -0.752416 0.658203 -0.212147 -0.763838 0.609546 
-0.36406 -0.726196 0.583181 -0.341404 -0.734265 0.586769 -0.444746 -0.829969 0.336679 
0.289543 -0.911723 0.291419 -0.00711452 -0.91265 0.408681 -0.275551 -0.933011 0.231435 
-0.0140988 0.996401 -0.0835895 0.45699 0.887908 -0.0527301 0.282637 0.95836 -0.0407771 
0.0826754 0.994316 -0.0670797 0.146164 0.987703 -0.0554905 -0.0809925 0.991588 -0.100965 
-0.0223965 0.988235 -0.151294 -0.159274 0.979538 -0.12303 -0.183272 0.969957 -0.159986 
-0.103081 0.984789 -0.139875 -0.0692848 0.982802 -0.171172 -0.110732 0.957242 -0.267255 
-0.127623 0.947977 -0.291636 -0.149573 0.944804 -0.291502 0.554469 0.830897 -0.0466265 
0.666014 0.744788 -0.0414411 -0.16923 0.837249 -0.519976 -0.135366 0.869811 -0.474453 
-0.232217 0.913604 -0.33377 -0.160775 0.90757 -0.387902 -0.242106 0.909006 -0.339252 
-0.333646 0.867784 -0.368281 -0.419315 0.833987 -0.358666 0.852189 0.521711 -0.0398915 
0.969729 0.244182 -0.000677871 -0.296595 0.696616 -0.653267 -0.517608 0.757216 -0.398379 
-0.422202 0.767571 -0.482265 -0.740307 0.487041 -0.463398 0.974634 0.223781 0.00328058 
0.972009 0.227022 -0.0605006 -0.767993 0.437714 -0.46754 -0.748444 0.420527 -0.512825 
0.989077 -0.137519 0.0530598 0.982407 -0.176658 0.0605601 0.990531 -0.128181 -0.049166 
-0.855735 0.17276 -0.487721 -0.699778 0.113278 -0.705322 0.918154 -0.375274 0.127131 
-0.826233 -0.34296 -0.446898 -0.749776 -0.599278 -0.280539 -0.747109 -0.224913 -0.625493 
0.821523 -0.529165 0.212332 0.788985 -0.567183 0.236235 -0.709905 -0.660903 -0.243395 
-0.489007 -0.841452 -0.229846 0.708626 -0.630095 0.317537 0.672102 -0.65411 0.347014 
-0.456304 -0.879997 0.131879 -0.340929 -0.939323 0.0379399 -0.398202 -0.909309 -0.120797 
-0.374006 -0.923745 -0.0825488 -0.403029 -0.881554 -0.245824 0.601788 -0.710366 0.365008 
0.549254 -0.747554 0.373473 -0.474883 -0.866419 0.154287 -0.54008 -0.80616 0.241701 
0.483695 -0.811684 0.327427 0.483327 -0.811976 0.327244 0.457427 -0.832729 0.311968 
-0.387109 -0.903789 0.182518 -0.480203 -0.849352 0.219105 -0.447826 -0.868622 0.212007 
0.320032 -0.91785 0.234801 0.28746 -0.930401 0.22742 -0.0139764 -0.973713 0.22735 
-0.293384 -0.93716 0.188832 -0.279474 -0.941131 0.190174 0.476582 0.800493 -0.363428 
0.267602 0.907186 -0.324657 0.122869 0.945053 -0.30295 -0.0556142 0.91908 -0.390126 
-0.181856 0.883435 -0.431823 -0.166668 0.878187 -0.448341 -0.103974 0.904456 -0.413701 
-0.150471 0.866005 -0.476859 0.502118 0.778623 -0.376329 0.670194 0.624298 -0.401363 
0.487254 0.75304 -0.44217 -0.169926 0.661816 -0.730154 -0.13161 0.756477 -0.640641 
-0.102882 0.827814 -0.551489 -0.170415 0.82786 -0.534422 -0.163935 0.816034 -0.554268 
-0.174835 0.813638 -0.55446 -0.14333 0.783258 -0.604949 -0.175911 0.756613 -0.629755 
-0.244276 0.72471 -0.644302 0.758078 0.515123 -0.399958 0.670243 0.517504 -0.531943 
-0.181957 0.539287 -0.822229 -0.135171 0.580317 -0.803094 -0.171012 0.611233 -0.772754 
-0.280426 0.673031 -0.684391 -0.251032 0.637112 -0.728746 -0.302268 0.640734 -0.705758 
-0.478361 0.468538 -0.742727 0.879914 0.229811 -0.415859 -0.213395 0.39339 -0.894263 
-0.317771 0.412637 -0.85367 -0.511832 0.423829 -0.747259 -0.484818 0.41756 -0.768501 
0.913932 -0.078722 -0.398161 -0.344247 0.158887 -0.925337 -0.632138 0.120952 -0.765357 
-0.460376 0.153128 -0.874417 0.905688 -0.282185 -0.316388 0.679429 -0.164632 -0.715033 
-0.327558 -0.0848863 -0.94101 -0.671144 -0.195428 -0.715104 -0.516486 -0.175432 -0.838132 
0.867672 -0.451972 -0.207043 0.845422 -0.498841 -0.19084 0.811106 -0.422259 -0.404728 
-0.442468 -0.75276 -0.487416 -0.436529 -0.422497 -0.794317 -0.556487 -0.518121 -0.649518 
-0.550434 -0.531808 -0.643586 -0.549263 -0.514054 -0.658831 0.792667 -0.589038 -0.157204 
0.717828 -0.688187 -0.105458 0.66802 -0.429615 -0.607602 -0.553048 -0.799845 -0.233208 
-0.43416 -0.796756 -0.420338 -0.445248 -0.830202 -0.335438 -0.447656 -0.69893 -0.557764 
0.668815 -0.738941 -0.0815597 0.600625 -0.797385 -0.0585469 -0.566427 -0.798501 -0.203856 
-0.560543 -0.812808 -0.158536 0.523688 -0.850267 -0.0528808 0.499931 -0.864509 -0.0518874 
0.498428 -0.82158 -0.276724 0.414735 -0.907327 -0.0689439 -0.366462 -0.907178 -0.206723 
-0.469787 -0.865816 -0.172228 -0.416393 -0.891141 -0.180237 -0.394338 -0.838042 -0.377071 
0.290649 -0.948002 -0.129677 0.248038 -0.957691 -0.145961 0.23093 -0.93934 -0.253596 
-0.0340581 -0.983072 -0.180026 -0.0597751 -0.900391 -0.430957 -0.302401 -0.929908 -0.209342 
-0.296266 -0.931642 -0.210402 -0.296083 -0.925853 -0.234799 0.26379 0.706873 -0.656313 
0.02684 0.671129 -0.740854 -0.116828 0.652247 -0.748949 0.273163 0.701038 -0.658732 
0.463153 0.512426 -0.723124 0.263003 0.699741 -0.664223 0.0172633 0.616183 -0.787414 
-0.129784 0.635719 -0.760932 -0.113792 0.63146 -0.767013 -0.160901 0.565339 -0.809013 
-0.0687547 0.555223 -0.828855 -0.0834705 0.628043 -0.773689 -0.204357 0.56976 -0.795997 
0.503569 0.454661 -0.734644 0.612005 0.233558 -0.755579 0.434311 0.423992 -0.794736 
0.18039 0.348763 -0.919687 0.028333 0.318278 -0.947574 -0.117272 0.30996 -0.943489 
-0.149772 0.313269 -0.93778 -0.0204512 0.392694 -0.919442 -0.0463609 0.456331 -0.888601 
-0.191886 0.523381 -0.830212 -0.207475 0.503459 -0.838739 -0.181113 0.479949 -0.858398 
-0.132347 0.430814 -0.892683 -0.143408 0.385003 -0.911705 0.615995 0.22324 -0.755457 
0.61037 0.223755 -0.759857 0.359218 0.145519 -0.921839 0.169593 0.115458 -0.978728 
-0.0188621 0.0992893 -0.99488 -0.135547 0.0775758 -0.987729 -0.106516 0.148011 -0.983233 
0.0298527 0.214455 -0.976278 0.00597985 0.0893298 -0.995984 -0.131993 0.203339 -0.970171 
-0.170725 0.252704 -0.952362 -0.129526 0.284041 -0.950023 -0.19094 0.375964 -0.906749 
-0.133144 0.331655 -0.933958 -0.209211 0.359604 -0.909349 0.651595 -0.0238788 -0.758191 
0.657113 -0.120997 -0.744018 0.616044 -0.0220894 -0.787402 0.334694 0.00435994 -0.942317 
0.131301 -0.0188503 -0.991163 -0.0099136 0.00125245 -0.99995 -0.0635352 0.0241552 -0.997687 
-0.016574 0.11346 -0.993404 -0.0703758 0.125476 -0.989597 -0.04886 0.0320464 -0.998291 
-0.0549612 0.0228147 -0.998228 -0.127332 0.00745554 -0.991832 -0.0676176 0.0871769 -0.993895 
-0.0781888 0.132139 -0.988143 -0.321283 0.155865 -0.934068 -0.181562 0.143476 -0.972857 
0.652314 -0.155164 -0.741897 0.376833 -0.0652021 -0.923984 0.167309 0.00315882 -0.985899 
0.0282653 0.0271437 -0.999232 -0.0228198 0.0868 -0.995964 -0.00750197 0.0926198 -0.995673 
-0.0520642 0.0069167 -0.99862 -0.0945708 0.0366654 -0.994843 -0.160489 -0.00801545 -0.987005 
-0.102561 0.0297723 -0.994281 -0.00580933 0.0209367 -0.999764 -0.0734379 0.0023383 -0.997297 
-0.321498 -0.0829533 -0.94327 -0.190767 -0.0512541 -0.980296 0.635785 -0.327992 -0.698713 
0.658008 -0.417732 -0.626518 0.49032 -0.223606 -0.84237 0.191967 -0.0692334 -0.978956 
0.064112 0.0110256 -0.997882 0.00403541 0.0859562 -0.996291 -0.0940294 0.0793109 -0.992405 
-0.127141 0.00768532 -0.991855 -0.0635638 -0.000676645 -0.997978 -0.0621048 0.0161749 -0.997939 
-0.0971456 0.097089 -0.990523 -0.0958313 -0.013562 -0.995305 -0.149816 -0.128587 -0.980317 
-0.331467 -0.322465 -0.886649 -0.324309 -0.373918 -0.868913 -0.275474 -0.2868 -0.917529 
0.658502 -0.420978 -0.623821 0.38217 -0.289994 -0.877411 0.183527 -0.0946061 -0.978451 
-0.0845177 0.0119867 -0.99635 -0.135897 0.0561561 -0.98913 -0.0875183 0.0325013 -0.995633 
-0.0579206 -0.0373336 -0.997623 -0.13516 -0.0458754 -0.989761 -0.235153 -0.168751 -0.957197 
-0.385808 -0.475106 -0.790839 -0.403023 -0.488046 -0.774199 -0.362733 -0.427512 -0.828045 
0.560427 -0.613849 -0.555977 0.545292 -0.633176 -0.549313 0.536506 -0.597226 -0.596223 
0.465775 -0.723659 -0.509285 0.329876 -0.395544 -0.857162 0.1119 -0.26202 -0.958553 
-0.0131827 -0.17595 -0.984311 -0.103629 -0.117738 -0.987623 -0.158821 -0.149903 -0.975861 
-0.138379 -0.25963 -0.955742 -0.318916 -0.629824 -0.708247 -0.232193 -0.381723 -0.894636 
-0.486542 -0.534842 -0.690812 -0.483889 -0.537443 -0.690656 -0.479078 -0.521839 -0.705811 
0.438571 -0.745683 -0.50161 0.342915 -0.778775 -0.525279 0.284668 -0.625487 -0.726451 
0.155223 -0.789291 -0.594076 0.0731089 -0.507231 -0.858703 -0.0815182 -0.755536 -0.650016 
-0.0950422 -0.455577 -0.885108 -0.266559 -0.687294 -0.675702 -0.24063 -0.510309 -0.825641 
-0.306157 -0.658905 -0.687104 -0.30291 -0.657738 -0.689657 -0.298384 -0.640959 -0.707205 
0.0339382 0.00414506 -0.999415 0.0595173 -0.0298248 -0.997782 -0.0112349 -0.00801046 -0.999905 
0.0512827 -0.0529127 -0.997281 0.0431179 -0.0223543 -0.99882 
