# vtk DataFile Version 4.2
vtk output
ASCII
DATASET POLYDATA
POINTS 528 float
-23.0314 -30.4092 -17.4454 -15.707 -30.4092 -18.1324 -8.3826 -30.4092 -18.6561 
-1.0582 -30.4092 -18.9693 6.2662 -30.4092 -18.854 13.5906 -30.4092 -17.4208 
-37.6802 -23.0848 -17.3448 -30.3558 -23.0848 -20.47 -23.0314 -23.0848 -21.4515 
-15.707 -23.0848 -21.5006 -8.3826 -23.0848 -21.7012 -1.0582 -23.0848 -22.2778 
6.2662 -23.0848 -22.5142 13.5906 -23.0848 -21.4619 20.915 -23.0848 -19.5427 
28.2394 -23.0848 -17.6577 -37.6802 -15.7604 -19.9284 -30.3558 -15.7604 -21.8612 
-23.0314 -15.7604 -22.4506 -15.707 -15.7604 -22.5371 -8.3826 -15.7604 -22.3437 
-1.0582 -15.7604 -22.3641 6.2662 -15.7604 -22.8298 13.5906 -15.7604 -22.2361 
20.915 -15.7604 -20.9051 28.2394 -15.7604 -19.7441 35.5638 -15.7604 -18.0845 
-45.0046 -8.43603 -17.0283 -37.6802 -8.43603 -21.1207 -30.3558 -8.43603 -21.736 
-23.0314 -8.43603 -21.8904 -15.707 -8.43603 -22.3312 -8.3826 -8.43603 -22.7081 
-1.0582 -8.43603 -21.592 6.2662 -8.43603 -22.5513 13.5906 -8.43603 -22.4521 
20.915 -8.43603 -21.0279 28.2394 -8.43603 -20.5142 35.5638 -8.43603 -19.7838 
42.8882 -8.43603 -17.3343 -45.0046 -1.11163 -17.1506 -37.6802 -1.11163 -20.1613 
-30.3558 -1.11163 -20.9961 -23.0314 -1.11163 -20.9839 -15.707 -1.11163 -21.5365 
-8.3826 -1.11163 -23.5944 -1.0582 -1.11163 -21.9046 6.2662 -1.11163 -23.1627 
13.5906 -1.11163 -23.193 20.915 -1.11163 -21.0908 28.2394 -1.11163 -20.5836 
35.5638 -1.11163 -20.0783 42.8882 -1.11163 -18.1699 -37.6802 6.21278 -19.947 
-30.3558 6.21278 -21.1115 -23.0314 6.21278 -20.6271 -15.707 6.21278 -21.3335 
-8.3826 6.21278 -23.18 -1.0582 6.21278 -21.7676 6.2662 6.21278 -22.3433 
13.5906 6.21278 -22.2747 20.915 6.21278 -20.8065 28.2394 6.21278 -20.2863 
35.5638 6.21278 -19.7012 42.8882 6.21278 -17.8381 -37.6802 13.5372 -18.6893 
-30.3558 13.5372 -20.7486 -23.0314 13.5372 -21.4354 -15.707 13.5372 -22.2245 
-8.3826 13.5372 -22.9076 -1.0582 13.5372 -21.8134 6.2662 13.5372 -21.1215 
13.5906 13.5372 -20.915 20.915 13.5372 -20.2256 28.2394 13.5372 -19.5071 
35.5638 13.5372 -18.2244 -37.6802 20.8616 -16.8297 -30.3558 20.8616 -19.6619 
-23.0314 20.8616 -21.2352 -15.707 20.8616 -22.3278 -8.3826 20.8616 -22.5463 
-1.0582 20.8616 -21.3594 6.2662 20.8616 -20.251 13.5906 20.8616 -19.8505 
20.915 20.8616 -18.9852 28.2394 20.8616 -17.5275 -30.3558 28.186 -16.6666 
-23.0314 28.186 -19.2878 -15.707 28.186 -20.7809 -8.3826 28.186 -20.4205 
-1.0582 28.186 -19.1745 6.2662 28.186 -17.864 13.5906 28.186 -17.3354 
-23.0314 -31.5443 -16.405 -15.707 -32.3881 -16.405 -8.3826 -32.7677 -16.405 
-1.0582 -32.9733 -16.405 6.2662 -32.7112 -16.405 13.5906 -31.3297 -16.405 
-37.6802 -24.5339 -16.405 -27.5215 -30.4092 -16.405 -30.3558 -29.448 -16.405 
-30.3558 -30.4092 -15.5087 16.5813 -30.4092 -16.405 20.915 -28.3397 -16.405 
20.915 -30.4092 -14.3118 28.2394 -24.9532 -16.405 28.2394 -30.4092 -10.8263 
-39.1163 -23.0848 -16.405 -45.0046 -23.0848 -9.0821 31.9529 -23.0848 -16.405 
35.5638 -20.1035 -16.405 35.5638 -23.0848 -14.9077 42.8882 -23.0848 -10.3151 
-43.3965 -15.7604 -16.405 -45.0046 -10.9852 -16.405 -45.0046 -15.7604 -14.9637 
39.9439 -15.7604 -16.405 42.8882 -11.8269 -16.405 42.8882 -15.7604 -15.0452 
-45.6553 -8.43603 -16.405 44.626 -8.43603 -16.405 50.2126 -8.43603 -12.0821 
-45.9998 -1.11163 -16.405 -45.0046 4.82501 -16.405 46.3166 -1.11163 -16.405 
50.2126 -1.11163 -13.5392 -44.6536 6.21278 -16.405 -45.0046 6.21278 -16.1777 
45.8031 6.21278 -16.405 42.8882 11.5691 -16.405 50.2126 6.21278 -13.1663 
-41.7854 13.5372 -16.405 -45.0046 13.5372 -13.8476 41.1499 13.5372 -16.405 
35.5638 18.7004 -16.405 42.8882 13.5372 -15.7346 50.2126 13.5372 -9.40339 
-38.4105 20.8616 -16.405 -37.6802 21.6507 -16.405 20.915 26.834 -16.405 
32.4907 20.8616 -16.405 28.2394 22.9206 -16.405 35.5638 20.8616 -15.4075 
42.8882 20.8616 -10.6161 -30.8315 28.186 -16.405 -37.6802 28.186 -9.35885 
-30.3558 28.526 -16.405 -23.0314 32.3562 -16.405 -15.707 34.7267 -16.405 
-8.3826 34.4074 -16.405 -1.0582 32.4703 -16.405 6.2662 30.5197 -16.405 
18.0544 28.186 -16.405 13.5906 29.4893 -16.405 20.915 28.186 -15.6315 
28.2394 28.186 -12.291 -23.0314 35.5104 -12.272 -15.707 35.5104 -15.4841 
-8.3826 35.5104 -15.2027 -1.0582 35.5104 -13.147 6.2662 35.5104 -10.8242 
-30.3558 -34.2294 -9.08059 -23.0314 -36.5702 -9.08059 -15.707 -37.0484 -9.08059 
-15.707 -37.7336 -3.32415 -8.3826 -36.8557 -9.08059 -1.0582 -36.4732 -9.08059 
6.2662 -35.9896 -9.08059 13.5906 -34.9877 -9.08059 20.915 -33.4287 -9.08059 
28.2394 -31.5169 -9.08059 -45.0046 -23.0859 -9.08059 -37.3474 -30.4092 -9.08059 
-37.6802 -30.184 -9.08059 -37.6802 -30.4092 -7.52877 31.4814 -30.4092 -9.08059 
35.5638 -28.7014 -9.08059 35.5638 -30.4092 -3.91558 42.8882 -24.0987 -9.08059 
-45.0055 -23.0848 -9.08059 43.9876 -23.0848 -9.08059 -48.9741 -15.7604 -9.08059 
49.6229 -15.7604 -9.08059 50.2126 -14.5415 -9.08059 50.2126 -15.7604 -7.65626 
-50.8665 -8.43603 -9.08059 52.5079 -8.43603 -9.08059 -51.4137 -1.11163 -9.08059 
-52.329 -1.11163 -3.65199 53.6413 -1.11163 -9.08059 -50.3449 6.21278 -9.08059 
53.3728 6.21278 -9.08059 -48.3082 13.5372 -9.08059 -45.0046 20.207 -9.08059 
50.4523 13.5372 -9.08059 50.2126 13.8851 -9.08059 -44.6088 20.8616 -9.08059 
-45.0046 20.8616 -6.27916 35.5638 26.6636 -9.08059 44.2904 20.8616 -9.08059 
42.8882 22.0848 -9.08059 -37.8653 28.186 -9.08059 -37.6802 28.344 -9.08059 
-30.3558 33.3714 -9.08059 13.5906 35.2312 -9.08059 20.915 33.3996 -9.08059 
32.8089 28.186 -9.08059 28.2394 30.3463 -9.08059 35.5638 28.186 -3.57284 
-26.3288 35.5104 -9.08059 -23.0314 37.075 -9.08059 -15.707 38.8269 -9.08059 
-8.3826 39.0419 -9.08059 -1.0582 37.9236 -9.08059 11.9961 35.5104 -9.08059 
6.2662 36.4667 -9.08059 13.5906 35.5104 -6.24678 -15.707 -37.907 -1.75619 
-37.6802 -31.1793 -1.75619 -30.3558 -34.9425 -1.75619 -17.2319 -37.7336 -1.75619 
-23.0314 -37.0809 -1.75619 -8.70662 -37.7336 -1.75619 -15.707 -37.7336 -1.01873 
-8.3826 -37.7257 -1.75619 -1.0582 -37.303 -1.75619 6.2662 -36.8361 -1.75619 
13.5906 -35.9253 -1.75619 20.915 -34.6289 -1.75619 28.2394 -33.0935 -1.75619 
35.5638 -30.921 -1.75619 -38.8197 -30.4092 -1.75619 -45.0046 -24.7776 -1.75619 
-37.6802 -30.4092 2.06986 36.509 -30.4092 -1.75619 35.5638 -30.4092 1.61485 
42.8882 -26.2117 -1.75619 -46.3592 -23.0848 -1.75619 46.3676 -23.0848 -1.75619 
50.2126 -18.4102 -1.75619 -50.302 -15.7604 -1.75619 51.9863 -15.7604 -1.75619 
-52.2353 -8.43603 -1.75619 -52.329 -6.6611 -1.75619 54.6057 -8.43603 -1.75619 
-52.6219 -1.11163 -1.75619 -52.329 0.704071 -1.75619 -52.329 -1.11163 0.73957 
55.7186 -1.11163 -1.75619 -51.4262 6.21278 -1.75619 55.5562 6.21278 -1.75619 
-49.3113 13.5372 -1.75619 52.7138 13.5372 -1.75619 50.2126 17.117 -1.75619 
-45.5627 20.8616 -1.75619 -45.0046 21.6193 -1.75619 -45.0046 20.8616 0.77506 
46.8876 20.8616 -1.75619 42.8882 24.1997 -1.75619 -38.8719 28.186 -1.75619 
-37.6802 29.1837 -1.75619 -37.6802 28.186 3.21785 -30.3558 34.0326 -1.75619 
20.915 33.9737 -1.75619 28.2394 31.4958 -1.75619 36.2807 28.186 -1.75619 
35.5638 28.5812 -1.75619 35.5638 28.186 1.46528 -27.3443 35.5104 -1.75619 
-23.0314 37.4997 -1.75619 -15.707 39.4523 -1.75619 -8.3826 39.9211 -1.75619 
-1.0582 39.0404 -1.75619 6.2662 37.5099 -1.75619 15.1441 35.5104 -1.75619 
13.5906 35.9137 -1.75619 13.5906 35.5104 0.591536 -30.3558 -33.3983 5.56821 
-23.0314 -35.3581 5.56821 -15.707 -35.9956 5.56821 -8.3826 -35.9403 5.56821 
-1.0582 -35.6604 5.56821 6.2662 -35.2712 5.56821 13.5906 -34.4217 5.56821 
20.915 -33.1506 5.56821 28.2394 -31.7227 5.56821 -45.0046 -23.4383 5.56821 
-36.3701 -30.4092 5.56821 -37.6802 -29.6668 5.56821 -30.3558 -30.4092 10.7274 
-23.0314 -30.4092 12.7825 -1.0582 -30.4092 12.8683 6.2662 -30.4092 12.3902 
13.5906 -30.4092 11.4884 20.915 -30.4092 10.1474 33.0741 -30.4092 5.56821 
28.2394 -30.4092 8.14173 35.5638 -29.6622 5.56821 42.8882 -25.4095 5.56821 
-45.3022 -23.0848 5.56821 -45.0046 -23.0848 6.10785 45.5308 -23.0848 5.56821 
42.8882 -23.0848 9.62637 50.2126 -17.2853 5.56821 -49.4821 -15.7604 5.56821 
51.1958 -15.7604 5.56821 50.2126 -15.7604 7.56244 -51.5827 -8.43603 5.56821 
53.6997 -8.43603 5.56821 50.2126 -8.43603 12.2461 -51.7232 -1.11163 5.56821 
54.7976 -1.11163 5.56821 -50.1616 6.21278 5.56821 54.6507 6.21278 5.56821 
-47.6933 13.5372 5.56821 -45.0046 18.7974 5.56821 -45.0046 13.5372 10.3594 
51.7193 13.5372 5.56821 50.2126 15.8381 5.56821 50.2126 13.5372 8.59369 
-43.7903 20.8616 5.56821 -37.6802 27.6214 5.56821 35.5638 27.6068 5.56821 
45.9436 20.8616 5.56821 42.8882 23.3279 5.56821 42.8882 20.8616 10.6187 
-37.0359 28.186 5.56821 -30.3558 32.7705 5.56821 13.5906 34.6278 5.56821 
20.915 32.4942 5.56821 34.0362 28.186 5.56821 28.2394 30.2217 5.56821 
28.2394 28.186 11.6468 -24.7712 35.5104 5.56821 -23.0314 36.2856 5.56821 
-23.0314 35.5104 7.63337 -15.707 38.2455 5.56821 -15.707 35.5104 12.8451 
-8.3826 38.8707 5.56821 -1.0582 38.1618 5.56821 10.2625 35.5104 5.56821 
6.2662 36.5586 5.56821 6.2662 35.5104 8.98807 -15.707 -30.8242 12.8926 
-8.3826 -30.6813 12.8926 -37.6802 -25.4518 12.8926 -30.3558 -28.7596 12.8926 
-21.7394 -30.4092 12.8926 -23.0314 -30.3076 12.8926 -15.707 -30.4092 13.2983 
-1.58388 -30.4092 12.8926 -8.3826 -30.4092 13.1506 -1.0582 -30.3823 12.8926 
6.2662 -29.8659 12.8926 13.5906 -29.0921 12.8926 20.915 -28.46 12.8926 
28.2394 -27.5563 12.8926 35.5638 -25.262 12.8926 -40.4701 -23.0848 12.8926 
-45.0046 -17.3723 12.8926 -37.6802 -23.0848 15.2753 -30.3558 -23.0848 17.6468 
-23.0314 -23.0848 18.7357 -15.707 -23.0848 18.6064 -8.3826 -23.0848 18.1299 
-1.0582 -23.0848 17.8277 6.2662 -23.0848 17.6456 13.5906 -23.0848 17.8344 
20.915 -23.0848 18.0941 28.2394 -23.0848 17.6574 39.2713 -23.0848 12.8926 
35.5638 -23.0848 15.3049 42.8882 -20.3138 12.8926 -46.0205 -15.7604 12.8926 
-45.0046 -15.7604 14.0487 -37.6802 -15.7604 19.5264 35.5638 -15.7604 20.2162 
46.6609 -15.7604 12.8926 42.8882 -15.7604 16.402 -48.0927 -8.43603 12.8926 
-45.0046 -8.43603 16.397 49.7778 -8.43603 12.8926 42.8882 -8.43603 18.7529 
50.2126 -5.90829 12.8926 -48.3035 -1.11163 12.8926 -45.0046 -1.11163 16.6001 
[...]
POINT_DATA 528
SCALARS ImageScalars float
LOOKUP_TABLE default
0 0 0 0 0 0 0 0 0 
0 0 0 0 0 0 0 0 0 
0 0 0 0 0 0 0 0 0 
0 0 0 0 0 0 0 0 0 
0 0 0 0 0 0 0 0 0 
0 0 0 0 0 0 0 0 0 
0 0 0 0 0 0 0 0 0 
0 0 0 0 0 0 0 0 0 
0 0 0 0 0 0 0 0 0 
0 0 0 0 0 0 0 0 0 
0 0 0 0 0 0 0 0 0 
0 0 0 0 0 0 0 0 0 
0 0 0 0 0 0 0 0 0 
0 0 0 0 0 0 0 0 0 
0 0 0 0 0 0 0 0 0 
0 0 0 0 0 0 0 0 0 
0 0 0 0 0 0 0 0 0 
0 0 0 0 0 0 0 0 0 
0 0 0 0 0 0 0 0 0 
0 0 0 0 0 0 0 0 0 
0 0 0 0 0 0 0 0 0 
0 0 0 0 0 0 0 0 0 
0 0 0 0 0 0 0 0 0 
0 0 0 0 0 0 0 0 0 
0 0 0 0 0 0 0 0 0 
0 0 0 0 0 0 0 0 0 
0 0 0 0 0 0 0 0 0 
0 0 0 0 0 0 0 0 0 
0 0 0 0 0 0 0 0 0 
0 0 0 0 0 0 0 0 0 
0 0 0 0 0 0 0 0 0 
0 0 0 0 0 0 0 0 0 
0 0 0 0 0 0 0 0 0 
0 0 0 0 0 0 0 0 0 
0 0 0 0 0 0 0 0 0 
0 0 0 0 0 0 0 0 0 
0 0 0 0 0 0 0 0 0 
0 0 0 0 0 0 0 0 0 
0 0 0 0 0 0 0 0 0 
0 0 0 0 0 0 0 0 0 
0 0 0 0 0 0 0 0 0 
0 0 0 0 0 0 0 0 0 
0 0 0 0 0 0 0 0 0 
0 0 0 0 0 0 0 0 0 
0 0 0 0 0 0 0 0 0 
0 0 0 0 0 0 0 0 0 
0 0 0 0 0 0 0 0 0 
0 0 0 0 0 0 0 0 0 
0 0 0 0 0 0 0 0 0 
0 0 0 0 0 0 0 0 0 
0 0 0 0 0 0 0 0 0 
0 0 0 0 0 0 0 0 0 
0 0 0 0 0 0 0 0 0 
0 0 0 0 0 0 0 0 0 
0 0 0 0 0 0 0 0 0 
0 0 0 0 0 0 0 0 0 
0 0 0 0 0 0 0 0 0 
0 0 0 0 0 0 0 0 0 
0 0 0 0 0 0 
NORMALS Normals float
0.137405 0.633699 0.761279 0.0679395 0.594766 0.801023 0.0504913 0.602007 0.796892 
0.0119963 0.627516 0.778511 -0.0849622 0.664252 0.742664 -0.218615 0.695933 0.684021 
0.457101 0.43166 0.777643 0.25126 0.354706 0.900584 0.0585612 0.279137 0.958464 
0.0169415 0.267137 0.96351 0.0508092 0.212847 0.975763 0.0561808 0.195351 0.979123 
-0.0517374 0.224183 0.973173 -0.188673 0.263546 0.946016 -0.235234 0.334878 0.912426 
-0.266551 0.42458 0.865264 0.37283 0.228435 0.899342 0.159818 0.0707277 0.98461 
0.0444381 0.0253579 0.99869 -0.00733836 0.0539046 0.998519 -0.011774 0.0681245 0.997607 
0.0331488 -0.0469491 0.998347 -0.0087719 0.00203618 0.999959 -0.127995 0.062955 0.989775 
-0.169302 0.0923501 0.981228 -0.179656 0.176946 0.967685 -0.272664 0.285327 0.918827 
0.633079 0.103488 0.767139 0.254403 0.00311095 0.967093 0.0456676 -0.0565798 0.997353 
0.0412759 -0.0992216 0.994209 0.0550345 -0.0661152 0.996293 -0.0508823 0.0862963 0.994969 
-0.010124 -0.0319446 0.999438 0.0596025 0.0205813 0.99801 -0.10342 0.0626158 0.992665 
-0.132746 0.0123924 0.991073 -0.0798089 0.0541135 0.99534 -0.211352 0.1267 0.969163 
-0.399504 0.17398 0.900071 0.554203 -0.0425225 0.831295 0.239318 -0.0689948 0.968487 
0.0576911 -0.0460741 0.997271 0.0353744 -0.0859326 0.995673 0.184318 -0.069725 0.98039 
0.0222468 0.0305234 0.999286 -0.0362788 0.0126383 0.999262 0.0888266 -0.0129158 0.995963 
-0.145501 -0.0115714 0.98929 -0.168458 -0.0149458 0.985596 -0.0705208 -0.0152821 0.997393 
-0.159398 -0.00778884 0.987184 -0.373946 0.0319768 0.926899 0.267708 -0.0918587 0.959111 
0.0382591 -0.0160593 0.999139 0.014005 0.0303991 0.99944 0.177544 0.0480155 0.982941 
0.0275849 -0.047354 0.998497 -0.0603274 -0.00617826 0.99816 0.0350659 -0.140237 0.989497 
-0.106364 -0.154632 0.98223 -0.133135 -0.0577231 0.989416 -0.075977 -0.0705256 0.994612 
-0.160717 -0.116102 0.980148 -0.357914 -0.137501 0.923575 0.366767 -0.195518 0.909535 
0.172538 -0.0983086 0.980085 0.0986404 0.0413608 0.994263 0.100101 0.0660883 0.99278 
-0.0275678 -0.0424175 0.99872 -0.122107 -0.0268584 0.992153 -0.0606465 -0.137028 0.988709 
-0.0594754 -0.1592 0.985453 -0.0942337 -0.11755 0.988586 -0.129026 -0.17054 0.976867 
-0.227777 -0.27025 0.935458 0.465486 -0.360742 0.8082 0.280031 -0.239652 0.929597 
0.178788 -0.130369 0.975212 0.0892182 -0.0839459 0.992468 -0.0635888 -0.162072 0.984728 
-0.150977 -0.167622 0.974222 -0.09853 -0.207702 0.973217 -0.0805217 -0.225959 0.970803 
-0.142459 -0.258849 0.955355 -0.21663 -0.375999 0.900942 0.40178 -0.53953 0.739919 
0.247286 -0.428928 0.868833 0.070631 -0.373838 0.924801 -0.100568 -0.402025 0.910089 
-0.162604 -0.418482 0.893551 -0.117752 -0.439212 0.890633 -0.123342 -0.492928 0.861283 
0.142689 0.682281 0.71703 0.0634211 0.684935 0.725839 0.0325158 0.730923 0.681685 
-0.00437913 0.769734 0.63835 -0.0977811 0.788072 0.607768 -0.216117 0.74271 0.633778 
0.470143 0.494381 0.731132 0.231124 0.658414 0.716291 0.285937 0.629748 0.722258 
0.300129 0.689299 0.659386 -0.244648 0.707457 0.663063 -0.274179 0.606991 0.745914 
-0.268601 0.7589 0.593232 -0.275089 0.506667 0.817077 -0.283555 0.836037 0.469723 
0.506631 0.448369 0.736404 0.768957 0.563878 0.301242 -0.3125 0.456325 0.833133 
-0.330035 0.396001 0.85689 -0.377266 0.514999 0.769705 -0.582701 0.636827 0.504888 
0.610263 0.262047 0.747603 0.651913 0.167466 0.739571 0.704581 0.292727 0.646434 
-0.393211 0.327717 0.859062 -0.432437 0.261396 0.862943 -0.49491 0.375425 0.783658 
0.659402 0.113522 0.74317 -0.456911 0.190795 0.868809 -0.749634 0.232107 0.619818 
0.600642 -0.0413203 0.798449 0.605059 -0.142749 0.783279 -0.503868 0.0422253 0.862748 
-0.710758 0.0507435 0.701604 0.600039 -0.165827 0.782594 0.622138 -0.169026 0.764444 
-0.47078 -0.160017 0.867618 -0.415873 -0.301097 0.858132 -0.714671 -0.18934 0.673347 
0.536027 -0.222227 0.814426 0.72731 -0.293893 0.6202 -0.385312 -0.340731 0.857576 
-0.298899 -0.424738 0.854551 -0.446085 -0.370848 0.814543 -0.753434 -0.4577 0.472068 
0.494196 -0.374206 0.784691 0.483624 -0.395465 0.780843 -0.226633 -0.517338 0.825227 
-0.279988 -0.444419 0.85094 -0.253427 -0.452059 0.855229 -0.341236 -0.514148 0.786899 
-0.56196 -0.650913 0.510404 0.415673 -0.549778 0.724541 0.628118 -0.726431 0.278865 
0.407514 -0.555715 0.724647 0.275745 -0.638005 0.718967 0.0937351 -0.714499 0.693329 
-0.0950234 -0.683148 0.724072 -0.161264 -0.609135 0.776498 -0.13048 -0.551105 0.824171 
-0.197678 -0.543141 0.81604 -0.141302 -0.55338 0.820856 -0.251298 -0.598055 0.761038 
-0.379235 -0.742099 0.552694 0.324161 -0.844754 0.425806 0.100164 -0.774745 0.62429 
-0.0914277 -0.762232 0.640815 -0.165813 -0.813831 0.556943 -0.172275 -0.890042 0.422073 
0.365262 0.889762 0.273692 0.183438 0.942446 0.279547 0.016387 0.954188 0.298758 
0.0380611 0.999206 0.0118062 -0.0376084 0.959368 0.27964 -0.0567091 0.965628 0.253666 
-0.0959116 0.964431 0.246322 -0.164774 0.947872 0.272742 -0.220062 0.920675 0.322381 
-0.27901 0.882633 0.378302 0.768957 0.563915 0.301172 0.545948 0.794471 0.266003 
0.555556 0.787279 0.267488 0.553191 0.807907 0.20314 -0.338694 0.854971 0.392824 
-0.42174 0.799664 0.427402 -0.41297 0.899143 0.144908 -0.587476 0.678818 0.440543 
0.768979 0.563885 0.301174 -0.620301 0.647277 0.443012 0.879964 0.330663 0.341064 
-0.762834 0.453116 0.46127 -0.783718 0.4199 0.457678 -0.799606 0.463091 0.382331 
0.925147 0.150311 0.348583 -0.852264 0.243665 0.462897 0.93849 -0.0339282 0.343636 
0.994131 -0.0493238 0.0962864 -0.881694 0.0536683 0.468759 0.920877 -0.194711 0.337749 
-0.861266 -0.198034 0.467979 0.878095 -0.342891 0.333729 0.801865 -0.526494 0.282519 
-0.762983 -0.457369 0.456804 -0.755794 -0.469395 0.456556 0.791497 -0.543592 0.279358 
0.818508 -0.5538 0.152807 -0.456813 -0.78864 0.411544 -0.597525 -0.672848 0.436165 
-0.570568 -0.700629 0.428452 0.63185 -0.727854 0.266448 0.628338 -0.73101 0.266112 
0.487089 -0.836939 0.249555 -0.189928 -0.933873 0.302999 -0.303928 -0.898406 0.317008 
-0.436306 -0.814287 0.382849 -0.398176 -0.848221 0.349251 -0.450593 -0.883325 0.129241 
0.404591 -0.88246 0.239937 0.334734 -0.909697 0.245775 0.131865 -0.95711 0.257978 
-0.0587543 -0.951625 0.301591 -0.169379 -0.926986 0.334675 -0.186528 -0.934087 0.304448 
-0.177862 -0.928234 0.326722 -0.209062 -0.963658 0.166302 0.0442734 0.997118 -0.0616009 
0.53079 0.847005 -0.02906 0.358534 0.932259 -0.0484387 0.0749672 0.995098 -0.064495 
0.190701 0.978966 -0.0725118 -0.037275 0.997948 -0.0520581 0.0437369 0.994657 -0.0935141 
-0.0410242 0.997824 -0.0516205 -0.0605335 0.997129 -0.0454892 -0.0930044 0.994857 -0.0401283 
-0.148403 0.988332 -0.0343028 -0.187201 0.982162 -0.0177306 -0.255122 0.966838 0.0116816 
-0.402148 0.914643 0.0412928 0.559103 0.828781 -0.0229363 0.778751 0.627181 0.0138399 
0.516389 0.839518 -0.168972 -0.424518 0.904303 0.0449377 -0.391787 0.91326 -0.111622 
-0.608949 0.790111 0.0700416 0.816405 0.577244 0.0164882 -0.716157 0.69349 0.0786775 
-0.837755 0.53918 0.0863221 0.93808 0.345034 0.0309315 -0.880667 0.466415 0.0829658 
0.988059 0.147524 0.0444538 0.994342 0.0990715 0.0383289 -0.966748 0.24621 0.0691248 
0.998392 -0.053857 0.0176723 0.995619 -0.0927342 0.0119585 0.995229 -0.065558 -0.0722532 
-0.995765 0.0613794 0.068447 0.977013 -0.212968 -0.00947342 -0.976714 -0.201123 0.0746974 
0.931719 -0.361762 -0.0320534 -0.878152 -0.473182 0.0703453 -0.801999 -0.592114 0.0787299 
0.832917 -0.551797 -0.0420583 0.819491 -0.571629 -0.0409242 0.824251 -0.550321 -0.133253 
-0.685718 -0.723661 0.0781431 -0.576436 -0.814725 0.0628109 0.654331 -0.755437 -0.0341471 
0.631021 -0.775028 -0.0338127 0.638013 -0.745422 -0.193093 0.476548 -0.878513 -0.0334252 
-0.285828 -0.956423 -0.0596524 -0.35387 -0.935251 -0.00907154 -0.450701 -0.891532 0.0451662 
-0.440172 -0.896895 0.0427493 -0.429261 -0.90011 -0.0744183 0.41983 -0.906688 -0.040746 
0.342182 -0.938353 -0.0490381 0.163088 -0.985928 -0.0367063 -0.0286479 -0.999519 -0.0118643 
-0.161439 -0.98679 0.0134941 -0.209671 -0.977762 0.00439188 -0.242675 -0.969052 -0.0452343 
-0.231905 -0.971936 -0.0395095 -0.241654 -0.965617 -0.095845 0.330937 0.880471 -0.339488 
0.160449 0.908194 -0.386575 0.0361842 0.913076 -0.40618 -0.0210042 0.916435 -0.399633 
-0.0421351 0.919525 -0.390766 -0.0795416 0.918781 -0.386671 -0.134117 0.916099 -0.377856 
-0.169393 0.91892 -0.356219 -0.222089 0.92107 -0.319854 0.743434 0.609832 -0.274611 
0.465358 0.829151 -0.309758 0.499857 0.81209 -0.301086 0.279228 0.789721 -0.546235 
0.100327 0.724821 -0.681593 -0.0362753 0.670663 -0.740875 -0.061173 0.697938 -0.713541 
-0.0917405 0.75892 -0.644689 -0.122002 0.84271 -0.524361 -0.315463 0.898598 -0.304967 
-0.198374 0.888644 -0.413472 -0.366832 0.881369 -0.297696 -0.582429 0.767114 -0.26891 
0.752311 0.599702 -0.272737 0.742633 0.601188 -0.295074 -0.673291 0.689947 -0.265806 
-0.572232 0.685506 -0.450146 -0.828297 0.49157 -0.268856 0.902894 0.355569 -0.241564 
-0.851103 0.44842 -0.273024 -0.822274 0.443628 -0.356453 0.960523 0.137188 -0.242021 
-0.93231 0.235231 -0.274707 -0.788202 0.215493 -0.576456 0.963039 -0.0876836 -0.254691 
-0.956167 0.0602564 -0.286555 0.924149 -0.242168 -0.295472 -0.940816 -0.199307 -0.274119 
0.867452 -0.372879 -0.329377 0.813788 -0.48528 -0.319771 0.781357 -0.360289 -0.509581 
-0.846337 -0.455476 -0.276143 -0.805736 -0.529022 -0.266317 -0.805752 -0.440537 -0.395841 
0.782338 -0.537916 -0.313995 0.638227 -0.719026 -0.27508 -0.406395 -0.884597 -0.228758 
-0.650154 -0.71978 -0.243344 -0.56089 -0.792132 -0.240687 -0.566353 -0.696107 -0.441223 
0.621686 -0.735217 -0.270115 0.478985 -0.842035 -0.248095 -0.260578 -0.940041 -0.220051 
-0.276624 -0.929364 -0.244461 -0.385171 -0.894139 -0.228384 -0.313553 -0.920688 -0.232418 
-0.31475 -0.865226 -0.390278 0.365727 -0.896572 -0.249805 0.33313 -0.908436 -0.252523 
0.332166 -0.889568 -0.313584 0.168219 -0.953039 -0.25183 0.163886 -0.854292 -0.493281 
-0.00693813 -0.96975 -0.244004 -0.150719 -0.964051 -0.218835 -0.244884 -0.94617 -0.211646 
-0.22801 -0.95173 -0.205479 -0.213295 -0.926807 -0.309085 0.0193307 0.710534 -0.703398 
-0.0227678 0.686572 -0.726706 0.452791 0.671699 -0.586345 0.240711 0.727171 -0.642869 
0.0851608 0.719539 -0.68921 0.0991308 0.720671 -0.686153 0.0174952 0.69902 -0.714888 
-0.0353226 0.670786 -0.740809 -0.0238719 0.678065 -0.734614 -0.0362518 0.669501 -0.741926 
-0.0569555 0.675099 -0.735525 -0.0654754 0.706906 -0.704271 -0.0765693 0.769222 -0.634377 
-0.165472 0.783879 -0.598459 -0.338274 0.737534 -0.584478 0.542637 0.602501 -0.585268 
0.705334 0.419985 -0.571065 0.432876 0.591816 -0.67998 0.184256 0.547006 -0.816599 
0.0538624 0.508171 -0.85957 -0.0350472 0.478908 -0.877165 -0.046689 0.48148 -0.875213 
-0.0283899 0.500537 -0.86525 -0.000260125 0.52575 -0.850639 0.025104 0.576754 -0.816532 
-0.00704764 0.603608 -0.79725 -0.132451 0.634696 -0.761326 -0.443136 0.675412 -0.589448 
-0.338665 0.669449 -0.661168 -0.562943 0.570885 -0.59765 0.739083 0.367361 -0.564626 
0.697382 0.369315 -0.614219 0.386658 0.325088 -0.863025 -0.297893 0.327275 -0.896745 
-0.686725 0.422583 -0.591466 -0.55718 0.406432 -0.72413 0.809597 0.125747 -0.573358 
0.676981 0.123138 -0.725627 -0.763454 0.213142 -0.609678 -0.506654 0.169012 -0.845421 
-0.777386 0.155658 -0.60946 0.812789 -0.100407 -0.573841 0.665592 -0.103705 -0.739075 
-0.471685 0.0273609 -0.881342 -0.788749 0.0509013 -0.612604 -0.767538 0.0484017 -0.639174 
0.753864 -0.268769 -0.599544 0.733607 -0.307389 -0.60608 0.701839 -0.268498 -0.659796 
0.388827 -0.213372 -0.896262 -0.476557 -0.111634 -0.872027 -0.763003 -0.179328 -0.621022 
-0.759739 -0.219948 -0.611898 -0.749572 -0.177179 -0.637769 0.705447 -0.337707 -0.623136 
0.518359 -0.266713 -0.812508 -0.71063 -0.41038 -0.571483 -0.568708 -0.61892 -0.541765 
-0.546211 -0.362203 -0.75529 0.668791 -0.473742 -0.572963 0.642337 -0.519622 -0.563379 
0.626567 -0.454164 -0.633363 0.369868 -0.320595 -0.872018 -0.31694 -0.844884 -0.430952 
-0.529871 -0.667511 -0.523131 -0.441013 -0.745339 -0.499977 -0.424343 -0.610372 -0.668864 
0.514366 -0.679027 -0.523785 0.474352 -0.712932 -0.516447 0.470016 -0.66043 -0.585592 
0.327225 -0.799754 -0.503307 0.277682 -0.552512 -0.78589 0.163828 -0.853086 -0.495383 
0.110202 -0.48683 -0.866517 -0.0315193 -0.445942 -0.894507 -0.190089 -0.869065 -0.456719 
-0.0555835 -0.550582 -0.832928 -0.245853 -0.870183 -0.42701 -0.164758 -0.684489 -0.710162 
-0.306898 -0.85353 -0.421071 -0.275134 -0.870568 -0.407936 -0.260778 -0.796281 -0.545831 
0.158915 -0.853972 -0.495458 0.00490058 -0.863333 -0.50461 0.00628008 -0.841436 -0.54032 
-0.119108 -0.870664 -0.477239 -0.115162 -0.870083 -0.479263 -0.114559 -0.867573 -0.483935 
0.147131 0.345025 -0.92699 0.0413007 0.382408 -0.92307 -0.0307591 0.37325 -0.927221 
-0.0348043 0.372252 -0.927479 -0.00105707 0.348014 -0.937489 0.0426932 0.398784 -0.916051 
0.0460145 0.47177 -0.88052 -0.00578766 0.485392 -0.874277 -0.129504 0.452864 -0.882124 
0.283672 0.304588 -0.909261 0.356548 0.227459 -0.906165 0.131848 0.26931 -0.953985 
0.0298382 0.245209 -0.969011 -0.0233301 0.276047 -0.960861 -0.0289676 0.310306 -0.950195 
0.0112817 0.274329 -0.96157 0.0639352 0.321611 -0.944711 0.0570617 0.36521 -0.929175 
-0.0212233 0.346233 -0.937908 -0.29782 0.327262 -0.896774 -0.142463 0.321879 -0.936001 
-0.29788 0.327178 -0.896784 0.389836 0.0986968 -0.91558 0.322366 0.0846589 -0.942822 
0.113107 0.0481008 -0.992418 0.0509172 0.0467967 -0.997606 0.0280898 0.0844301 -0.996033 
-0.0478395 0.18675 -0.981242 -0.0143607 0.121745 -0.992458 0.110026 0.112426 -0.98755 
0.0645297 0.0887167 -0.993964 -0.0376169 0.0689498 -0.996911 -0.132243 0.106304 -0.985501 
-0.394739 0.148602 -0.906696 -0.276581 0.137069 -0.951165 0.370415 -0.0967717 -0.923812 
0.346126 -0.164328 -0.923684 0.293969 -0.0950173 -0.95108 0.103599 -0.0473544 -0.993491 
0.0658346 -0.0561349 -0.99625 0.116428 -0.0263897 -0.992848 0.0120546 0.0470458 -0.99882 
-0.0648632 0.0950974 -0.993353 0.0326673 0.0656003 -0.997311 0.0158827 -0.00991427 -0.999825 
-0.00491329 -0.0312562 -0.999499 -0.0754955 -0.00168192 -0.997145 -0.418871 0.0238982 -0.907731 
-0.249501 0.013757 -0.968277 0.311968 -0.174667 -0.933899 0.149919 -0.0770105 -0.985694 
0.0715462 -0.0281245 -0.997041 0.13059 -0.0305188 -0.990967 0.0726212 -0.111387 -0.99112 
0.00343066 -0.0393003 -0.999222 0.00713605 0.0238033 -0.999691 -0.0311213 0.0378185 -0.9988 
-0.0304631 0.00512103 -0.999523 -0.0884385 -0.0688124 -0.993702 -0.394381 -0.09654 -0.913862 
-0.248038 -0.0830684 -0.965182 0.315426 -0.169175 -0.933748 0.308966 -0.208871 -0.927854 
0.278449 -0.150928 -0.948518 0.114053 -0.0300184 -0.993021 0.0325684 -0.0227663 -0.99921 
0.00222529 -0.116734 -0.993161 0.0705901 -0.108947 -0.991538 0.108427 -0.0797466 -0.990901 
-0.00188021 -0.0574285 -0.998348 -0.111344 -0.0852756 -0.990116 -0.164134 -0.184761 -0.968981 
-0.358802 -0.289218 -0.887477 -0.322471 -0.353209 -0.878212 -0.288454 -0.265453 -0.919961 
0.291917 -0.265389 -0.918887 0.228652 -0.351231 -0.90794 0.193622 -0.208052 -0.958762 
0.0972974 -0.435682 -0.894827 0.0428622 -0.155067 -0.986974 -0.0159741 -0.150651 -0.988458 
-0.0160825 -0.393892 -0.919016 0.0425248 -0.168292 -0.984819 -0.040644 -0.511947 -0.858055 
0.0546673 -0.232786 -0.97099 -0.117776 -0.54677 -0.828958 -0.0421773 -0.312427 -0.949005 
-0.203276 -0.525627 -0.826072 -0.163729 -0.371252 -0.913983 -0.272931 -0.462388 -0.843627 
-0.272514 -0.46263 -0.843629 -0.272294 -0.461834 -0.844136 0.0289629 -0.428494 -0.90308 
-0.00878986 -0.415736 -0.909443 -0.000973987 -0.418108 -0.908397 -0.00198498 -0.407181 -0.913345 

