# vtk DataFile Version 4.2
vtk output
ASCII
DATASET POLYDATA
POINTS 550 float
-40.5226 15.4962 -22.7455 -32.8554 15.4962 -22.8542 -32.8554 23.1634 -23.6109 
-17.521 -22.8399 -15.2108 -9.85379 -22.8399 -16.3929 -2.18658 -22.8399 -16.7131 
5.48063 -22.8399 -16.6778 13.1478 -22.8399 -16.4194 20.8151 -22.8399 -15.5519 
-48.1898 -15.1726 -15.3437 -40.5226 -15.1726 -16.6065 -32.8554 -15.1726 -16.7476 
-25.1882 -15.1726 -16.5431 -17.521 -15.1726 -17.1464 -9.85379 -15.1726 -19.2455 
-2.18658 -15.1726 -18.7937 5.48063 -15.1726 -18.2453 13.1478 -15.1726 -18.5251 
20.8151 -15.1726 -17.7894 28.4823 -15.1726 -17.1883 36.1495 -15.1726 -16.1984 
-48.1898 -7.50543 -17.4906 -40.5226 -7.50543 -18.5904 -32.8554 -7.50543 -18.8891 
-25.1882 -7.50543 -18.2846 -17.521 -7.50543 -17.6085 -9.85379 -7.50543 -20.2956 
-2.18658 -7.50543 -18.7831 5.48063 -7.50543 -19.6826 13.1478 -7.50543 -20.7637 
20.8151 -7.50543 -18.7261 28.4823 -7.50543 -18.2205 36.1495 -7.50543 -17.6961 
43.8167 -7.50543 -16.4614 -55.8571 0.161777 -16.5468 -48.1898 0.161777 -19.6271 
-40.5226 0.161777 -20.8005 -32.8554 0.161777 -20.4481 -25.1882 0.161777 -19.374 
-17.521 0.161777 -18.2933 -9.85379 0.161777 -20.767 -2.18658 0.161777 -20.1966 
5.48063 0.161777 -20.4302 13.1478 0.161777 -21.0319 20.8151 0.161777 -19.0707 
28.4823 0.161777 -19.1547 36.1495 0.161777 -18.85 43.8167 0.161777 -17.7202 
51.4839 0.161777 -15.161 -55.8571 7.82899 -17.5907 -48.1898 7.82899 -21.3698 
-40.5226 14.9202 -22.6951 -40.5226 7.82899 -22.0786 -32.8554 13.9894 -22.6951 
-32.8554 7.82899 -22.0158 -25.1882 7.82899 -20.906 -17.521 7.82899 -19.3665 
-9.85379 7.82899 -19.5672 -2.18658 7.82899 -20.8741 5.48063 7.82899 -19.4912 
13.1478 7.82899 -19.7017 20.8151 7.82899 -19.9483 28.4823 7.82899 -20.1285 
36.1495 7.82899 -19.7313 43.8167 7.82899 -18.6471 51.4839 7.82899 -15.8592 
-55.8571 15.4962 -17.5097 -41.2318 15.4962 -22.6951 -48.1898 15.4962 -22.1104 
-40.5226 15.9349 -22.6951 -31.7662 15.4962 -22.6951 -25.1882 15.4962 -21.7319 
-17.521 15.4962 -20.2707 -9.85379 15.4962 -19.415 -2.18658 15.4962 -20.4561 
5.48063 15.4962 -20.561 13.1478 15.4962 -20.3909 20.8151 15.4962 -20.8322 
28.4823 15.4962 -20.7375 36.1495 15.4962 -20.1143 43.8167 15.4962 -18.8649 
-48.1898 23.1634 -20.4686 -37.2995 23.1634 -22.6951 -40.5226 23.1634 -21.8501 
-28.3086 23.1634 -22.6951 -32.8554 25.581 -22.6951 -25.1882 23.1634 -21.9139 
-17.521 23.1634 -20.1406 -9.85379 23.1634 -19.0324 -2.18658 23.1634 -19.1975 
5.48063 23.1634 -19.7218 13.1478 23.1634 -19.7379 20.8151 23.1634 -20.1803 
28.4823 23.1634 -19.9012 36.1495 23.1634 -19.0697 43.8167 23.1634 -16.0963 
-48.1898 30.8306 -16.0827 -40.5226 30.8306 -19.6443 -32.8554 30.8306 -20.1861 
-25.1882 30.8306 -19.3492 -17.521 30.8306 -17.1776 20.8151 30.8306 -15.575 
28.4823 30.8306 -15.6233 -40.5226 -30.5071 -7.92707 -32.8554 -30.5071 -9.67293 
-25.1882 -30.5071 -10.4418 -17.521 -23.1959 -15.0279 -17.521 -30.5071 -10.523 
-9.85379 -25.1477 -15.0279 -9.85379 -30.5071 -11.0805 -2.18658 -25.6738 -15.0279 
-2.18658 -30.5071 -11.1944 5.48063 -25.7524 -15.0279 5.48063 -30.5071 -11.0773 
13.1478 -25.243 -15.0279 13.1478 -30.5071 -10.656 20.8151 -23.7516 -15.0279 
20.8151 -30.5071 -9.35489 -48.1898 -15.7881 -15.0279 -48.1898 -22.8399 -10.6457 
-40.5226 -19.9986 -15.0279 -40.5226 -22.8399 -13.888 -32.8554 -20.8065 -15.0279 
-32.8554 -22.8399 -14.402 -19.284 -22.8399 -15.0279 -25.1882 -20.6991 -15.0279 
-25.1882 -22.8399 -14.431 24.5672 -22.8399 -15.0279 28.4823 -21.4085 -15.0279 
28.4823 -22.8399 -14.4016 36.1495 -18.4214 -15.0279 36.1495 -22.8399 -12.7511 
43.8167 -22.8399 -9.32643 -48.8218 -15.1726 -15.0279 -55.8571 -15.1726 -10.1186 
43.1457 -15.1726 -15.0279 43.8167 -14.5689 -15.0279 43.8167 -15.1726 -14.8786 
51.4839 -15.1726 -10.7179 -54.2937 -7.50543 -15.0279 -55.8571 -5.27213 -15.0279 
-55.8571 -7.50543 -14.3091 48.1648 -7.50543 -15.0279 51.4839 -0.69973 -15.0279 
51.4839 -7.50543 -13.8938 59.1511 -7.50543 -8.23726 -57.9229 0.161777 -15.0279 
-63.5243 0.161777 -7.88774 51.7214 0.161777 -15.0279 59.1511 0.161777 -9.62646 
-58.9406 7.82899 -15.0279 -63.5243 7.82899 -7.43198 52.8984 7.82899 -15.0279 
51.4839 12.7948 -15.0279 59.1511 7.82899 -10.0487 -58.6818 15.4962 -15.0279 
-55.8571 22.5281 -15.0279 50.5734 15.4962 -15.0279 51.4839 15.4962 -14.5537 
-55.5111 23.1634 -15.0279 -55.8571 23.1634 -14.4803 -9.85379 29.6754 -15.0279 
-2.18658 28.5388 -15.0279 5.48063 29.5015 -15.0279 13.1478 30.5117 -15.0279 
36.1495 30.2676 -15.0279 45.7627 23.1634 -15.0279 43.8167 24.9942 -15.0279 
51.4839 23.1634 -10.6519 -49.4741 30.8306 -15.0279 -48.1898 31.8905 -15.0279 
-40.5226 34.786 -15.0279 -32.8554 36.4787 -15.0279 -25.1882 35.1552 -15.0279 
-12.0729 30.8306 -15.0279 -17.521 32.8199 -15.0279 -9.85379 30.8306 -12.1811 
5.48063 30.8306 -11.4479 15.636 30.8306 -15.0279 13.1478 30.8306 -14.4755 
20.8151 31.3228 -15.0279 33.1087 30.8306 -15.0279 28.4823 31.4264 -15.0279 
36.1495 30.8306 -14.2955 43.8167 30.8306 -8.8009 -40.5226 -31.1354 -7.36067 
-32.8554 -33.2168 -7.36067 -25.1882 -33.5908 -7.36067 -25.1882 -38.1743 0.186393 
-17.521 -33.6913 -7.36067 -9.85379 -33.7741 -7.36067 -2.18658 -33.6353 -7.36067 
5.48063 -33.2919 -7.36067 13.1478 -32.8293 -7.36067 20.8151 -31.9481 -7.36067 
-41.6391 -30.5071 -7.36067 -48.1898 -26.875 -7.36067 -48.1898 -30.5071 -2.92514 
27.8156 -30.5071 -7.36067 28.4823 -30.3483 -7.36067 28.4823 -30.5071 -7.04925 
36.1495 -28.0159 -7.36067 36.1495 -30.5071 -2.08187 43.8167 -24.8 -7.36067 
-53.0457 -22.8399 -7.36067 -55.8571 -19.4438 -7.36067 -55.8571 -22.8399 -2.63946 
46.8842 -22.8399 -7.36067 51.4839 -19.5207 -7.36067 51.4839 -22.8399 -2.18323 
-58.8954 -15.1726 -7.36067 55.6076 -15.1726 -7.36067 59.1511 -8.90828 -7.36067 
59.1511 -15.1726 -1.82857 -61.8856 -7.50543 -7.36067 -63.5243 -1.03704 -7.36067 
59.9726 -7.50543 -7.36067 -63.8093 0.161777 -7.36067 -63.5243 0.161777 -4.51174 
61.3905 0.161777 -7.36067 -63.5599 7.82899 -7.36067 -63.5243 8.10386 -7.36067 
-63.5243 7.82899 -6.19175 61.6358 7.82899 -7.36067 59.1511 14.3485 -7.36067 
-62.4961 15.4962 -7.36067 58.7797 15.4962 -7.36067 59.1511 15.4962 -6.437 
-58.8433 23.1634 -7.36067 -55.8571 27.2711 -7.36067 -2.18658 30.7206 -7.36067 
54.5352 23.1634 -7.36067 51.4839 26.4528 -7.36067 -52.5064 30.8306 -7.36067 
-48.1898 34.1652 -7.36067 -48.1898 30.8306 0.166778 -40.5226 36.9564 -7.36067 
-32.8554 37.5714 -7.36067 -25.1882 37.2461 -7.36067 -17.521 34.6389 -7.36067 
-2.84969 30.8306 -7.36067 -9.85379 32.0271 -7.36067 -9.85379 30.8306 -1.66321 
-1.46712 30.8306 -7.36067 5.48063 31.9114 -7.36067 13.1478 33.3447 -7.36067 
20.8151 34.3209 -7.36067 28.4823 35.1887 -7.36067 36.1495 33.9243 -7.36067 
45.3528 30.8306 -7.36067 43.8167 31.6219 -7.36067 -25.1882 -38.2308 0.306542 
-48.1898 -32.5 0.306542 -40.5226 -35.6354 0.306542 -25.7121 -38.1743 0.306542 
-32.8554 -37.3751 0.306542 -21.7928 -38.1743 0.306542 -25.1882 -38.1743 1.55301 
-17.521 -38.1021 0.306542 -9.85379 -37.661 0.306542 -2.18658 -37.3112 0.306542 
-2.18658 -38.1743 7.45062 5.48063 -36.59 0.306542 13.1478 -35.7241 0.306542 
20.8151 -34.775 0.306542 28.4823 -33.5387 0.306542 36.1495 -31.3671 0.306542 
-50.6646 -30.5071 0.306542 -55.8571 -24.4343 0.306542 -48.1898 -30.5071 6.45181 
38.5772 -30.5071 0.306542 43.8167 -28.454 0.306542 51.4839 -24.2528 0.306542 
-56.9939 -22.8399 0.306542 -55.8571 -22.8399 2.83653 53.1636 -22.8399 0.306542 
59.1511 -16.7229 0.306542 -60.8153 -15.1726 0.306542 60.3013 -15.1726 0.306542 
-62.6727 -7.50543 0.306542 64.4074 -7.50543 0.306542 -63.0162 0.161777 0.306542 
65.166 0.161777 0.306542 -63.2693 7.82899 0.306542 -55.8571 7.82899 7.93263 
64.8489 7.82899 0.306542 -60.2605 15.4962 0.306542 -55.8571 15.4962 5.11864 
61.8337 15.4962 0.306542 59.1511 19.877 0.306542 -55.9688 23.1634 0.306542 
-55.8571 23.3091 0.306542 -55.8571 23.1634 0.499542 -48.1898 30.7443 0.306542 
-48.1898 23.1634 7.21214 -9.85379 30.4107 0.306542 -2.18658 29.9733 0.306542 
56.4963 23.1634 0.306542 51.4839 28.0577 0.306542 -48.0265 30.8306 0.306542 
-40.5226 34.1117 0.306542 -40.5226 30.8306 4.43507 -32.8554 35.7252 0.306542 
-32.8554 30.8306 7.34105 -25.1882 35.1321 0.306542 -25.1882 30.8306 7.24294 
-11.2243 30.8306 0.306542 -17.521 32.8559 0.306542 -17.521 30.8306 4.55194 
2.87431 30.8306 0.306542 5.48063 31.2664 0.306542 5.48063 30.8306 1.75335 
13.1478 32.579 0.306542 13.1478 30.8306 4.71857 20.8151 33.7373 0.306542 
20.8151 30.8306 7.4558 28.4823 34.5083 0.306542 36.1495 33.7355 0.306542 
36.1495 30.8306 7.9104 46.0723 30.8306 0.306542 43.8167 31.8641 0.306542 
43.8167 30.8306 2.73181 -2.18658 -38.2321 7.97375 -40.5226 -34.612 7.97375 
-32.8554 -36.6853 7.97375 -25.1882 -37.8572 7.97375 -17.521 -37.6129 7.97375 
-3.44762 -38.1743 7.97375 -9.85379 -37.8577 7.97375 -0.996878 -38.1743 7.97375 
-2.18658 -38.1743 8.15769 5.48063 -37.8436 7.97375 13.1478 -36.4155 7.97375 
20.8151 -35.0955 7.97375 28.4823 -33.567 7.97375 36.1495 -31.4387 7.97375 
-47.3234 -30.5071 7.97375 -48.1898 -29.7901 7.97375 -40.5226 -30.5071 13.1095 
-32.8554 -30.5071 14.9992 28.4823 -30.5071 14.3126 38.6871 -30.5071 7.97375 
36.1495 -30.5071 10.4519 43.8167 -28.492 7.97375 51.4839 -24.3686 7.97375 
-53.4202 -22.8399 7.97375 -55.8571 -16.5923 7.97375 -48.1898 -22.8399 13.0306 
53.3276 -22.8399 7.97375 51.4839 -22.8399 10.8726 59.1511 -17.1265 7.97375 
-56.6397 -15.1726 7.97375 -55.8571 -15.1726 8.8324 -48.1898 -15.1726 14.0911 
60.5949 -15.1726 7.97375 59.1511 -15.1726 10.7441 -57.32 -7.50543 7.97375 
-55.8571 -7.50543 9.0361 -48.1898 -7.50543 14.0316 64.3594 -7.50543 7.97375 
-57.327 0.161777 7.97375 -55.8571 7.57348 7.97375 -55.8571 0.161777 8.97832 
-48.1898 0.161777 13.7574 64.6641 0.161777 7.97375 -55.7984 7.82899 7.97375 
-48.1898 7.82899 12.5008 -40.5226 7.82899 15.0897 63.7182 7.82899 7.97375 
59.1511 7.82899 14.7867 -52.8882 15.4962 7.97375 -48.1898 21.9751 7.97375 
-48.1898 15.4962 11.109 -40.5226 15.4962 13.8593 60.1719 15.4962 7.97375 
59.1511 16.8592 7.97375 59.1511 15.4962 9.42071 -46.8464 23.1634 7.97375 
[...]
POINT_DATA 550
SCALARS ImageScalars float
LOOKUP_TABLE default
0 0 0 0 0 0 0 0 0 
0 0 0 0 0 0 0 0 0 
0 0 0 0 0 0 0 0 0 
0 0 0 0 0 0 0 0 0 
0 0 0 0 0 0 0 0 0 
0 0 0 0 0 0 0 0 0 
0 0 0 0 0 0 0 0 0 
0 0 0 0 0 0 0 0 0 
0 0 0 0 0 0 0 0 0 
0 0 0 0 0 0 0 0 0 
0 0 0 0 0 0 0 0 0 
0 0 0 0 0 0 0 0 0 
0 0 0 0 0 0 0 0 0 
0 0 0 0 0 0 0 0 0 
0 0 0 0 0 0 0 0 0 
0 0 0 0 0 0 0 0 0 
0 0 0 0 0 0 0 0 0 
0 0 0 0 0 0 0 0 0 
0 0 0 0 0 0 0 0 0 
0 0 0 0 0 0 0 0 0 
0 0 0 0 0 0 0 0 0 
0 0 0 0 0 0 0 0 0 
0 0 0 0 0 0 0 0 0 
0 0 0 0 0 0 0 0 0 
0 0 0 0 0 0 0 0 0 
0 0 0 0 0 0 0 0 0 
0 0 0 0 0 0 0 0 0 
0 0 0 0 0 0 0 0 0 
0 0 0 0 0 0 0 0 0 
0 0 0 0 0 0 0 0 0 
0 0 0 0 0 0 0 0 0 
0 0 0 0 0 0 0 0 0 
0 0 0 0 0 0 0 0 0 
0 0 0 0 0 0 0 0 0 
0 0 0 0 0 0 0 0 0 
0 0 0 0 0 0 0 0 0 
0 0 0 0 0 0 0 0 0 
0 0 0 0 0 0 0 0 0 
0 0 0 0 0 0 0 0 0 
0 0 0 0 0 0 0 0 0 
0 0 0 0 0 0 0 0 0 
0 0 0 0 0 0 0 0 0 
0 0 0 0 0 0 0 0 0 
0 0 0 0 0 0 0 0 0 
0 0 0 0 0 0 0 0 0 
0 0 0 0 0 0 0 0 0 
0 0 0 0 0 0 0 0 0 
0 0 0 0 0 0 0 0 0 
0 0 0 0 0 0 0 0 0 
0 0 0 0 0 0 0 0 0 
0 0 0 0 0 0 0 0 0 
0 0 0 0 0 0 0 0 0 
0 0 0 0 0 0 0 0 0 
0 0 0 0 0 0 0 0 0 
0 0 0 0 0 0 0 0 0 
0 0 0 0 0 0 0 0 0 
0 0 0 0 0 0 0 0 0 
0 0 0 0 0 0 0 0 0 
0 0 0 0 0 0 0 0 0 
0 0 0 0 0 0 0 0 0 
0 0 0 0 0 0 0 0 0 
0 
NORMALS Normals float
0.0434794 -0.0135927 0.998962 -0.0655918 0.111482 0.991599 0.00138696 -0.150302 0.988639 
0.117945 0.364262 0.923798 0.0929848 0.441837 0.892263 0.016715 0.397746 0.917343 
-0.017579 0.362393 0.931859 -0.0701836 0.390707 0.917836 -0.116798 0.412463 0.903456 
0.316837 0.37031 0.873204 0.0949217 0.29734 0.950041 -0.00459055 0.278648 0.960382 
0.0250506 0.234378 0.971823 0.168613 0.147582 0.974571 0.106623 0.234864 0.966163 
-0.0648559 0.127604 0.989703 -0.0160106 0.179853 0.983563 -0.0301741 0.257489 0.96581 
-0.0864235 0.196377 0.976712 -0.102663 0.227896 0.968258 -0.151582 0.268076 0.951398 
0.224386 0.272332 0.935674 0.0828212 0.247705 0.965289 -0.0195897 0.221029 0.975071 
-0.0841368 0.180853 0.979905 0.127056 0.0748738 0.989066 0.0793675 0.091881 0.992602 
-0.0450596 0.0854803 0.99532 0.129198 0.148083 0.980499 -0.0740021 0.165663 0.983402 
-0.155061 0.0839424 0.984332 -0.0657211 0.129844 0.989354 -0.109542 0.174406 0.978562 
-0.227694 0.185976 0.955808 0.493405 0.17497 0.852019 0.251982 0.22496 0.941222 
0.0475054 0.226866 0.972767 -0.0883911 0.203573 0.975061 -0.136574 0.170047 0.975926 
0.0576531 0.107825 0.992497 0.143478 -0.0487283 0.988453 -0.015743 0.142262 0.989704 
0.0539144 -0.0194263 0.998357 -0.0952709 -0.0731754 0.992758 -0.115149 0.0791662 0.990189 
-0.01402 0.123478 0.992248 -0.0894061 0.129909 0.987487 -0.23413 0.132373 0.963151 
-0.422635 0.11689 0.89873 0.552897 0.0558307 0.831377 0.280785 0.140796 0.949387 
0.0422667 -0.00361941 0.9991 0.03732 0.120671 0.991991 -0.0675466 0.120674 0.990391 
-0.076193 0.152426 0.985374 -0.16063 0.148066 0.975845 -0.0903595 0.131998 0.987123 
0.103188 -0.0743528 0.991879 -0.0115598 0.0129744 0.999849 -0.0769865 0.0128725 0.996949 
0.0298722 -0.0373389 0.998856 0.0275596 0.114462 0.993045 -0.0136899 0.102625 0.994626 
-0.0918104 0.0811894 0.992461 -0.249592 0.0694704 0.965856 -0.444241 -0.0341296 0.895257 
0.606061 -0.149127 0.781314 0.0684621 -0.016141 0.997523 0.304649 -0.0415915 0.951556 
0.0515797 -0.02081 0.998452 -0.0796373 0.106764 0.99109 -0.165848 0.0640239 0.984071 
-0.153881 0.0471014 0.986966 0.0103452 -0.0334886 0.999386 0.0739346 -0.10472 0.99175 
-0.00449928 0.0180827 0.999826 0.0177244 0.00350711 0.999837 0.0226521 0.0180403 0.999581 
-0.0452784 -0.0150968 0.99886 -0.113793 -0.0437678 0.99254 -0.331324 -0.140509 0.932996 
0.413865 -0.341716 0.843769 0.109024 -0.146557 0.983176 0.198346 -0.155221 0.967763 
-0.135449 -0.13031 0.982178 -0.0108277 -0.242358 0.970126 -0.230881 -0.120461 0.965496 
-0.185745 -0.162691 0.969036 -0.0660369 -0.280581 0.957556 0.0466173 -0.39952 0.915538 
0.0354571 -0.347194 0.937123 0.0291701 -0.294105 0.955328 0.0100413 -0.281689 0.959453 
-0.0698507 -0.277357 0.958224 -0.222828 -0.292068 0.930077 -0.405956 -0.390085 0.826458 
0.485923 -0.63056 0.605205 0.236026 -0.561568 0.793053 -0.0208073 -0.522582 0.852335 
-0.187492 -0.555504 0.8101 -0.291202 -0.659034 0.693452 0.0456806 -0.757697 0.651006 
-0.0508907 -0.714006 0.698288 0.289016 0.668751 0.685012 0.127554 0.646498 0.752177 
0.0449094 0.629661 0.775571 0.1138 0.375298 0.919892 0.0306142 0.649327 0.759893 
0.0817766 0.505841 0.858742 0.034517 0.695927 0.717283 0.0215014 0.500761 0.865319 
0.000313733 0.724259 0.689528 -0.0150524 0.489339 0.871964 -0.0233309 0.751998 0.658753 
-0.0729244 0.491705 0.867703 -0.0753559 0.781931 0.618793 -0.119256 0.448858 0.885609 
-0.146774 0.801443 0.579781 0.318304 0.382735 0.867292 0.377883 0.541438 0.751033 
0.158916 0.383726 0.90967 0.206845 0.449721 0.868888 0.0138556 0.356221 0.934299 
0.0269716 0.390757 0.920099 0.101782 0.354473 0.92951 0.0431987 0.293989 0.954832 
0.0480545 0.32796 0.943469 -0.12595 0.440934 0.888659 -0.130799 0.422746 0.89676 
-0.14392 0.478963 0.865957 -0.19311 0.382031 0.903748 -0.260933 0.571534 0.777986 
-0.391005 0.644702 0.656868 0.337123 0.370194 0.865624 0.618419 0.434709 0.654664 
-0.29876 0.350053 0.88781 -0.307232 0.343763 0.887376 -0.313124 0.359303 0.879122 
-0.500372 0.456921 0.735425 0.436847 0.328607 0.837366 0.493174 0.303382 0.815315 
0.514253 0.352613 0.781798 -0.319842 0.223253 0.920793 -0.419052 0.13336 0.898115 
-0.401828 0.257158 0.878865 -0.721181 0.284745 0.631521 0.590435 0.168177 0.789369 
0.96253 0.102057 0.251237 -0.429508 0.116051 0.895575 -0.701656 0.0799399 0.708018 
0.695803 0.0310749 0.71756 0.969791 -0.0781849 0.231069 -0.481425 -0.0348682 0.875793 
-0.462305 -0.154592 0.873141 -0.72191 -0.100078 0.684712 0.733541 -0.170488 0.657915 
0.677989 -0.40967 0.610329 -0.453697 -0.208068 0.866526 -0.481277 -0.220928 0.848271 
0.671107 -0.427342 0.6058 0.698043 -0.443085 0.562505 -0.221989 -0.770011 0.598168 
-8.15892e-05 -0.816025 0.578017 0.0952072 -0.816305 0.56972 0.0918245 -0.790944 0.60496 
-0.237612 -0.71459 0.657953 -0.452085 -0.384164 0.805007 -0.406242 -0.460337 0.78934 
-0.641812 -0.524718 0.55924 0.527536 -0.655222 0.54073 0.490608 -0.689021 0.533436 
0.280761 -0.803811 0.524463 0.0183306 -0.904689 0.425679 -0.234706 -0.817656 0.525691 
-0.258787 -0.794153 0.549864 -0.316122 -0.779498 0.540785 -0.251436 -0.906321 0.339651 
0.139519 -0.940846 0.308777 0.0795236 -0.794081 0.602588 0.0998028 -0.824414 0.557118 
0.050931 -0.783099 0.619808 -0.161492 -0.738185 0.654983 -0.0504975 -0.74107 0.669526 
-0.23583 -0.767873 0.595613 -0.38091 -0.862399 0.33343 0.298848 0.684369 0.665078 
0.114006 0.739224 0.66374 0.0223409 0.737652 0.674812 0.0436637 0.975982 0.213432 
0.00946945 0.761605 0.647972 -0.00358382 0.807633 0.589675 -0.0275456 0.833228 0.552243 
-0.0467919 0.856578 0.513892 -0.078669 0.872738 0.481809 -0.141466 0.857196 0.495178 
0.318614 0.6783 0.662113 0.429152 0.647044 0.630208 0.517631 0.789706 0.329275 
-0.203146 0.829438 0.520351 -0.209035 0.825032 0.525002 -0.209361 0.835063 0.50876 
-0.281621 0.782953 0.554684 -0.296118 0.913602 0.278648 -0.394167 0.716202 0.575922 
0.601655 0.581503 0.5476 0.678365 0.539577 0.498676 0.806194 0.573275 0.14631 
-0.454706 0.673813 0.582424 -0.53043 0.607789 0.590963 -0.577844 0.74573 0.331636 
0.73831 0.459294 0.493911 -0.632968 0.488513 0.600588 -0.734574 0.324863 0.595706 
-0.784365 0.522657 0.334067 0.915434 0.257293 0.309483 0.965439 0.123226 0.22966 
-0.740775 0.293038 0.604468 0.970358 0.102004 0.21909 0.995816 0.0816332 0.0410755 
-0.768013 0.0797651 0.635447 0.970655 -0.0785718 0.22728 0.970775 -0.0861242 0.224004 
0.984753 -0.0876973 0.150236 -0.807256 -0.152108 0.570264 -0.835171 -0.29606 0.463507 
0.948991 -0.297833 0.103498 -0.835898 -0.320191 0.445817 -0.852869 -0.338856 0.397228 
0.863592 -0.503841 0.0187982 0.773923 -0.633234 0.00761107 -0.0064166 -0.998411 0.0559885 
-0.711777 -0.594455 0.374161 -0.64827 -0.688248 0.32567 0.642848 -0.76552 -0.0269276 
0.49413 -0.86756 -0.0563436 0.46445 -0.752268 -0.46731 0.20979 -0.977084 -0.0359848 
0.0167356 -0.998748 -0.0471395 -0.184837 -0.982711 -0.010732 -0.326299 -0.945252 -0.00533983 
-0.0275175 -0.998313 0.0511342 -0.250382 -0.968059 0.01304 -0.194293 -0.965246 -0.174784 
0.010365 -0.998296 0.0574164 0.172024 -0.981543 0.0835476 0.153096 -0.98246 0.10646 
0.118172 -0.984966 0.126008 -0.0240341 -0.986887 0.159615 -0.209755 -0.960898 0.18077 
-0.429872 -0.868817 0.245698 -0.380366 -0.88977 0.25225 0.044444 0.977426 0.206552 
0.530249 0.83857 0.125044 0.307096 0.940023 0.148491 0.0516436 0.978022 0.202003 
0.154723 0.977397 0.14407 0.00861603 0.979262 0.202413 0.0474642 0.990541 0.128748 
-0.0357692 0.979762 0.196943 -0.0485733 0.974143 0.220649 -0.0661484 0.962727 0.262263 
-0.0057896 0.996783 -0.0799405 -0.0980659 0.95835 0.268231 -0.11331 0.969828 0.215857 
-0.137374 0.972759 0.186728 -0.214741 0.960511 0.17693 -0.299045 0.938645 0.171808 
0.625871 0.771497 0.114363 0.81672 0.576954 -0.00961772 0.563442 0.732745 -0.381599 
-0.322184 0.930975 0.171706 -0.392768 0.901117 0.183635 -0.577697 0.787099 0.216195 
0.843231 0.536613 -0.0317416 0.846131 0.500884 -0.182147 -0.610884 0.760585 0.219842 
-0.778363 0.581285 0.237191 0.937569 0.338417 -0.0802445 -0.812425 0.531749 0.239183 
0.974168 0.134563 -0.181354 -0.930161 0.298739 0.213438 0.959527 0.0336441 -0.279601 
-0.986409 0.0231242 0.162673 0.93366 -0.132614 -0.332705 0.610127 -0.194591 -0.768036 
-0.970441 -0.215995 0.107657 0.813893 -0.36746 -0.450057 0.693227 -0.276848 -0.665426 
-0.899771 -0.429229 0.0785794 -0.815653 -0.57844 0.0108089 0.744158 -0.522582 -0.416097 
0.740751 -0.526433 -0.417319 0.739738 -0.521942 -0.424693 0.463394 -0.747428 -0.476043 
0.419248 -0.493338 -0.762135 -0.17196 -0.9549 -0.242066 0.0544344 -0.984883 -0.164445 
-0.718882 -0.693574 -0.0465167 -0.585016 -0.806773 -0.0829079 0.45853 -0.750586 -0.475784 
0.278205 -0.825183 -0.491605 0.267695 -0.7389 -0.618358 0.050011 -0.919071 -0.390906 
0.116009 -0.700202 -0.704457 -0.17675 -0.89147 -0.417182 -0.0802359 -0.796421 -0.599396 
-0.190582 -0.947324 -0.257401 -0.279548 -0.903728 -0.324234 -0.197214 -0.876941 -0.43827 
0.126026 -0.975863 -0.178351 0.164375 -0.968623 -0.186413 0.149729 -0.960958 -0.23268 
0.155948 -0.959999 -0.232555 0.128135 -0.913877 -0.38524 0.123873 -0.966102 -0.226503 
0.118407 -0.87873 -0.4624 0.000686729 -0.973525 -0.228582 -0.151665 -0.972284 -0.177935 
-0.158021 -0.869458 -0.468051 -0.401741 -0.903005 -0.152268 -0.335315 -0.926647 -0.169966 
-0.319787 -0.908456 -0.269156 -0.00155119 0.994628 -0.103499 0.382406 0.837595 -0.390128 
0.184791 0.921448 -0.341739 0.0582378 0.951802 -0.301135 0.00144339 0.955027 -0.296515 
0.00493051 0.992881 -0.119011 0.0390144 0.978643 -0.201831 -0.0195577 0.995002 -0.0979215 
0.000140778 0.993596 -0.112987 -0.117182 0.990754 -0.0683673 -0.176496 0.977352 -0.116758 
-0.181734 0.969409 -0.16498 -0.230669 0.95276 -0.197587 -0.301614 0.938446 -0.168366 
0.532237 0.694037 -0.484806 0.556083 0.660838 -0.504049 0.379483 0.581854 -0.719332 
0.156451 0.533398 -0.83127 -0.198599 0.796356 -0.571293 -0.325997 0.92968 -0.171527 
-0.291365 0.911408 -0.290587 -0.392079 0.902429 -0.178594 -0.570335 0.798764 -0.191558 
0.76559 0.362465 -0.531499 0.736903 0.266042 -0.621447 0.52498 0.336407 -0.78181 
-0.607503 0.771162 -0.190391 -0.571527 0.747553 -0.338408 -0.782983 0.589728 -0.197885 
0.727454 0.241496 -0.642254 0.699927 0.211996 -0.682026 0.354394 0.059052 -0.93323 
-0.830283 0.520719 -0.198698 -0.782298 0.516573 -0.348083 0.648545 0.0272053 -0.76069 
0.600614 0.00392993 -0.799529 0.415672 -0.0181006 -0.909334 -0.945627 0.255307 -0.201514 
0.613935 -0.061595 -0.78695 0.607883 -0.189637 -0.771048 0.565064 -0.0505517 -0.823497 
0.398343 -0.0836608 -0.913413 -0.971021 -0.0370303 -0.236107 0.607701 -0.193777 -0.770163 
0.380761 -0.162714 -0.910245 0.260404 -0.131796 -0.956462 -0.914331 -0.259608 -0.310809 
-0.667972 -0.304999 -0.678814 0.589655 -0.243184 -0.770174 0.417118 -0.451952 -0.788513 
0.442425 -0.259521 -0.858434 0.284416 -0.229259 -0.930886 -0.782804 -0.492728 -0.380048 
-0.751973 -0.533201 -0.387599 -0.751602 -0.494121 -0.436965 0.384524 -0.488071 -0.783536 
0.276402 -0.601899 -0.749213 0.294604 -0.458841 -0.838256 0.124144 -0.671553 -0.730483 
0.17103 -0.463778 -0.869286 -0.0640566 -0.776783 -0.626502 0.0296727 -0.467278 -0.883612 
-0.124188 -0.814747 -0.56636 -0.0430031 -0.517777 -0.854434 -0.0583158 -0.861708 -0.504043 
-0.000510862 -0.586434 -0.809997 0.0414986 -0.893925 -0.446291 0.0523043 -0.609999 -0.790674 
0.0786119 -0.875319 -0.477114 0.0718883 -0.623754 -0.778308 0.10404 -0.852441 -0.512367 
0.120707 -0.633525 -0.764248 0.117505 -0.868257 -0.481999 -0.157653 -0.868077 -0.470732 
-0.296611 -0.828191 -0.475523 -0.285622 -0.63294 -0.719588 -0.585129 -0.684559 -0.434744 
-0.53783 -0.713237 -0.449479 -0.534008 -0.680031 -0.502387 0.088401 -0.871264 -0.482788 
-0.150705 -0.868884 -0.471517 0.0140364 -0.871917 -0.489453 0.0117353 -0.858802 -0.512173 
0.0741986 0.528957 -0.845399 0.107603 0.576739 -0.809811 0.176259 0.677952 -0.713663 
0.0832794 0.788935 -0.608808 -0.0998474 0.808314 -0.580223 -0.202873 0.728267 -0.654576 
-0.196204 0.72669 -0.65835 0.285183 0.197968 -0.937806 0.111051 0.503582 -0.85678 
0.16273 0.446531 -0.879846 0.074408 0.493013 -0.866834 0.118196 0.530038 -0.839696 
0.190809 0.509745 -0.838899 0.110757 0.521538 -0.846009 -0.0890305 0.506869 -0.857413 
-0.188385 0.555415 -0.809954 -0.189984 0.72988 -0.656644 -0.186879 0.668772 -0.719597 
-0.171479 0.726072 -0.665894 -0.227258 0.753316 -0.617145 -0.362502 0.732173 -0.576642 
0.289537 0.18016 -0.940059 0.276514 0.171298 -0.94562 0.186454 0.204997 -0.960839 
0.106181 0.176389 -0.978577 0.106557 0.177032 -0.97842 0.188845 0.137778 -0.972294 
0.109352 0.141961 -0.983814 -0.106669 0.123003 -0.986657 -0.106121 0.190234 -0.975986 
-0.0228488 0.289961 -0.956766 -0.0417001 0.449236 -0.892439 -0.130082 0.526168 -0.840372 
-0.441568 0.67884 -0.58668 -0.338961 0.645003 -0.684892 -0.533871 0.584403 -0.61111 
0.29182 0.0427007 -0.95552 0.284424 0.0279756 -0.95829 0.161227 0.0100627 -0.986866 
0.0605879 -0.0372989 -0.997466 0.0912658 -0.0649083 -0.993709 0.163368 -0.0842434 -0.982962 
0.1047 -0.130474 -0.985908 -0.0488952 -0.0156596 -0.998681 -0.0127666 0.0932069 -0.995565 
0.101781 0.173198 -0.979614 0.0611875 0.251174 -0.966006 -0.0516223 0.300227 -0.95247 
-0.219104 0.344026 -0.913039 -0.625114 0.462304 -0.628894 -0.484298 0.438086 -0.757322 
-0.691691 0.285629 -0.663309 0.291262 -0.0347701 -0.956011 0.238559 -0.0391107 -0.97034 
0.125645 -0.10745 -0.986239 0.0336339 -0.115989 -0.992681 0.0610613 -0.132207 -0.98934 
0.114175 -0.106549 -0.98773 0.183159 -0.219046 -0.958369 0.119284 -0.0409093 -0.992017 
0.086578 0.0637077 -0.994206 -0.404851 0.126792 -0.905549 -0.701036 0.22514 -0.676654 
-0.678413 0.214306 -0.702729 0.232317 -0.0777132 -0.96953 0.222447 -0.0970644 -0.970101 
0.202578 -0.075933 -0.976318 0.090486 -0.0628904 -0.99391 0.036068 -0.0543402 -0.997871 
0.0987204 -0.0507917 -0.993818 0.0752572 -0.082554 -0.993741 0.167254 -0.0719285 -0.983286 
0.235662 -0.078731 -0.968641 0.111096 -0.0364926 -0.993139 -0.415503 -0.0960357 -0.904508 
-0.708878 -0.0810953 -0.700653 -0.65996 -0.224765 -0.716892 -0.668595 -0.0824884 -0.739038 
0.225557 -0.118217 -0.967031 0.146737 -0.0805588 -0.98589 0.0443067 -0.0548359 -0.997512 
0.0330855 -0.0702164 -0.996983 0.0936125 -0.167081 -0.981489 0.185075 -0.0945349 -0.978167 
0.161354 -0.166836 -0.972692 0.123226 -0.158694 -0.979608 0.126174 -0.150649 -0.980502 
-0.192075 -0.256877 -0.947165 -0.62173 -0.300916 -0.723119 -0.420126 -0.257836 -0.870066 
0.176584 -0.216377 -0.960208 0.167965 -0.22987 -0.958617 0.167435 -0.215737 -0.961989 
0.0407863 -0.291406 -0.95573 0.04575 -0.199885 -0.978751 -0.021765 -0.311077 -0.950136 
-0.0148213 -0.227876 -0.973577 0.0343089 -0.323737 -0.945525 0.0425928 -0.262084 -0.964105 
0.102389 -0.430109 -0.896952 0.154126 -0.30468 -0.939902 0.0959383 -0.537878 -0.837546 
0.154292 -0.371329 -0.915592 0.123784 -0.609383 -0.783154 0.128289 -0.361259 -0.923598 
0.0963482 -0.353055 -0.930628 0.03594 -0.350256 -0.935964 -0.075125 -0.384571 -0.920033 
-0.279965 -0.607887 -0.743029 -0.246007 -0.423029 -0.872082 -0.516921 -0.464181 -0.719256 
-0.46191 -0.514614 -0.722365 -0.450406 -0.458329 -0.766204 0.122573 -0.623971 -0.771775 
0.120744 -0.647408 -0.752518 0.121175 -0.609466 -0.783497 0.00965014 -0.67124 -0.741177 
0.0122393 -0.593177 -0.804979 -0.237315 -0.624618 -0.743998 -0.126163 -0.650432 -0.749013 
-0.122381 -0.615586 -0.778509 0.151224 0.0876959 -0.984602 0.0689788 0.218509 -0.973394 
-0.0462471 0.272429 -0.961064 -0.179389 0.217836 -0.959358 0.15041 0.0834023 -0.985099 
0.153152 0.0842607 -0.984604 0.0991684 0.08794 -0.991177 -0.028132 0.126521 -0.991565 
-0.271658 0.125786 -0.954138 -0.160592 0.12345 -0.97927 0.12516 -0.0400919 -0.991326 
0.125709 -0.0449347 -0.991049 0.125711 -0.0402012 -0.991252 0.110644 -0.0614142 -0.991961 
-0.011656 -0.0735091 -0.997226 -0.282066 -0.0903928 -0.955127 -0.194426 -0.19746 -0.960837 
-0.203401 -0.078178 -0.975969 0.0840261 -0.174128 -0.981131 0.061128 -0.205071 -0.976836 
0.0643446 -0.186168 -0.980409 -0.112877 -0.235391 -0.965324 -0.0531657 -0.248878 -0.967075 
-0.0482346 -0.218037 -0.974748 
