# vtk DataFile Version 4.2
vtk output
ASCII
DATASET POLYDATA
POINTS 534 float
-8.36242 -1.48778 -22.2048 -24.2187 -41.1284 -17.2414 -16.2906 -41.1284 -17.8254 
-8.36242 -41.1284 -18.6289 -0.434298 -41.1284 -18.6817 7.49383 -41.1284 -17.5531 
15.422 -41.1284 -15.7778 -40.0749 -33.2003 -15.0868 -32.1468 -33.2003 -19.3906 
-24.2187 -33.2003 -19.8298 -16.2906 -33.2003 -20.289 -8.36242 -33.2003 -20.5268 
-0.434298 -33.2003 -20.6682 7.49383 -33.2003 -20.2153 15.422 -33.2003 -20.3224 
23.3501 -33.2003 -18.5963 31.2782 -33.2003 -15.9732 -40.0749 -25.2722 -19.2876 
-32.1468 -25.2722 -20.628 -24.2187 -25.2722 -20.8161 -16.2906 -25.2722 -21.0939 
-8.36242 -25.2722 -20.6464 -0.434298 -25.2722 -20.74 7.49383 -25.2722 -20.5657 
15.422 -25.2722 -20.5649 23.3501 -25.2722 -20.2 31.2782 -25.2722 -19.1567 
39.2063 -25.2722 -16.1379 -48.0031 -17.344 -16.5302 -40.0749 -17.344 -20.1782 
-32.1468 -17.344 -20.8935 -24.2187 -17.344 -20.6454 -16.2906 -17.344 -20.2436 
-8.36242 -17.344 -19.7839 -0.434298 -17.344 -19.8276 7.49383 -17.344 -19.8172 
15.422 -17.344 -20.1779 23.3501 -17.344 -20.4613 31.2782 -17.344 -20.0472 
39.2063 -17.344 -18.0048 -48.0031 -9.4159 -17.8281 -40.0749 -9.4159 -20.782 
-32.1468 -9.4159 -21.0988 -24.2187 -9.4159 -20.34 -16.2906 -9.4159 -19.3386 
-8.36242 -2.17839 -22.088 -8.36242 -9.4159 -20.7829 -0.434298 -9.4159 -20.6064 
7.49383 -9.4159 -20.3621 15.422 -9.4159 -20.0002 23.3501 -9.4159 -20.163 
31.2782 -9.4159 -19.8445 39.2063 -9.4159 -18.4924 47.1345 -9.4159 -15.6342 
-48.0031 -1.48778 -18.6227 -40.0749 -1.48778 -20.9178 -32.1468 -1.48778 -21.0745 
-24.2187 -1.48778 -20.1354 -8.65005 -1.48778 -22.088 -16.2906 -1.48778 -19.0531 
-8.079 -1.48778 -22.088 -8.36242 -0.545677 -22.088 -0.434298 -1.48778 -18.6007 
7.49383 -1.48778 -21.4073 15.422 -1.48778 -20.8256 23.3501 -1.48778 -19.6712 
31.2782 -1.48778 -19.6395 39.2063 -1.48778 -18.6933 47.1345 -1.48778 -15.9703 
-48.0031 6.44035 -17.8295 -40.0749 6.44035 -20.4432 -32.1468 6.44035 -20.8657 
-24.2187 6.44035 -20.2626 -16.2906 6.44035 -19.5513 -8.36242 6.44035 -21.2122 
-0.434298 6.44035 -18.9251 7.49383 6.44035 -20.6029 15.422 6.44035 -19.4756 
23.3501 6.44035 -19.2914 31.2782 6.44035 -19.3634 39.2063 6.44035 -18.4985 
47.1345 6.44035 -15.9049 -48.0031 14.3685 -16.4267 -40.0749 14.3685 -19.2655 
-32.1468 14.3685 -20.2026 -24.2187 14.3685 -20.0252 -16.2906 14.3685 -19.4009 
-8.36242 14.3685 -18.8656 -0.434298 14.3685 -18.0605 7.49383 14.3685 -18.0255 
15.422 14.3685 -18.2256 23.3501 14.3685 -19.2219 31.2782 14.3685 -18.9634 
39.2063 14.3685 -17.795 47.1345 14.3685 -14.6333 -40.0749 22.2966 -17.5716 
-32.1468 22.2966 -19.2387 -24.2187 22.2966 -19.3746 -16.2906 22.2966 -19.0756 
-8.36242 22.2966 -18.4406 -0.434298 22.2966 -18.3459 7.49383 22.2966 -18.4125 
15.422 22.2966 -18.6965 23.3501 22.2966 -18.4146 31.2782 22.2966 -17.4131 
39.2063 22.2966 -15.5694 -32.1468 30.2247 -16.9109 -24.2187 30.2247 -17.7543 
-16.2906 30.2247 -18.5077 -8.36242 30.2247 -17.977 -0.434298 30.2247 -18.0638 
7.49383 30.2247 -17.9273 15.422 30.2247 -17.763 23.3501 30.2247 -16.7578 
31.2782 30.2247 -14.3125 -24.2187 38.1529 -14.5492 -16.2906 38.1529 -15.878 
-8.36242 38.1529 -16.1809 -0.434298 38.1529 -16.1855 7.49383 38.1529 -15.6106 
-24.2187 -44.224 -14.1599 -16.2906 -45.8674 -14.1599 -8.36242 -46.9338 -14.1599 
-8.36242 -49.0565 -8.76026 -0.434298 -46.5611 -14.1599 7.49383 -44.8964 -14.1599 
15.422 -42.3899 -14.1599 -40.0749 -34.465 -14.1599 -30.9701 -41.1284 -14.1599 
-32.1468 -40.3379 -14.1599 -32.1468 -41.1284 -12.9933 19.5063 -41.1284 -14.1599 
23.3501 -39.6605 -14.1599 23.3501 -41.1284 -10.3722 31.2782 -35.1824 -14.1599 
-41.2386 -33.2003 -14.1599 34.0775 -33.2003 -14.1599 39.2063 -28.3098 -14.1599 
39.2063 -33.2003 -7.54267 -46.6333 -25.2722 -14.1599 -48.0031 -22.9167 -14.1599 
-48.0031 -25.2722 -11.4714 41.582 -25.2722 -14.1599 47.1345 -25.2722 -7.25618 
-50.314 -17.344 -14.1599 47.1317 -17.344 -14.1599 47.1345 -17.3363 -14.1599 
47.1345 -17.344 -14.1576 -51.7603 -9.4159 -14.1599 49.1769 -9.4159 -14.1599 
55.0626 -9.4159 -7.36381 -52.8304 -1.48778 -14.1599 -55.9312 -1.48778 -7.27381 
49.8894 -1.48778 -14.1599 55.0626 -1.48778 -9.29681 -52.1161 6.44035 -14.1599 
-55.9312 6.44035 -6.80049 49.8875 6.44035 -14.1599 55.0626 6.44035 -9.48215 
-50.6549 14.3685 -14.1599 -48.0031 19.9335 -14.1599 47.8022 14.3685 -14.1599 
47.1345 15.5217 -14.1599 -46.1959 22.2966 -14.1599 -48.0031 22.2966 -12.5462 
-40.0749 29.9693 -14.1599 41.7374 22.2966 -14.1599 39.2063 24.7804 -14.1599 
47.1345 22.2966 -9.91248 -39.7608 30.2247 -14.1599 -40.0749 30.2247 -14.0002 
-32.1468 35.1279 -14.1599 15.422 38.1423 -14.1599 23.3501 34.9733 -14.1599 
31.6332 30.2247 -14.1599 31.2782 30.4323 -14.1599 39.2063 30.2247 -9.43963 
-25.6966 38.1529 -14.1599 -32.1468 38.1529 -11.7293 -24.2187 38.6775 -14.1599 
-16.2906 40.6182 -14.1599 -8.36242 41.6215 -14.1599 -0.434298 41.3805 -14.1599 
15.3962 38.1529 -14.1599 7.49383 40.2056 -14.1599 15.422 38.1529 -14.1529 
23.3501 38.1529 -10.6908 -16.2906 46.081 -8.1654 -8.36242 46.081 -9.66279 
-0.434298 46.081 -8.70435 -8.36242 -49.7903 -6.2318 -32.1468 -44.3209 -6.2318 
-24.2187 -47.3107 -6.2318 -15.703 -49.0565 -6.2318 -16.2906 -48.9978 -6.2318 
-1.97123 -49.0565 -6.2318 -8.36242 -49.0565 -3.67792 -0.434298 -48.8822 -6.2318 
7.49383 -47.2132 -6.2318 15.422 -44.9455 -6.2318 23.3501 -42.2271 -6.2318 
-37.4078 -41.1284 -6.2318 -40.0749 -39.0759 -6.2318 25.8131 -41.1284 -6.2318 
23.3501 -41.1284 -2.97332 31.2782 -38.4977 -6.2318 39.2063 -33.7719 -6.2318 
-45.3627 -33.2003 -6.2318 -48.0031 -28.8864 -6.2318 39.9409 -33.2003 -6.2318 
39.2063 -33.2003 -2.97143 47.1345 -26.0644 -6.2318 -49.8087 -25.2722 -6.2318 
-48.0031 -25.2722 -1.33552 47.7556 -25.2722 -6.2318 -52.8147 -17.344 -6.2318 
53.0027 -17.344 -6.2318 55.0626 -11.7181 -6.2318 55.0626 -17.344 1.40858 
-54.9416 -9.4159 -6.2318 -55.9312 -3.53228 -6.2318 55.8253 -9.4159 -6.2318 
-56.2751 -1.48778 -6.2318 -55.9312 -1.48778 -4.97227 57.1993 -1.48778 -6.2318 
-56.1434 6.44035 -6.2318 -55.9312 7.81569 -6.2318 -55.9312 6.44035 -4.87305 
57.3113 6.44035 -6.2318 55.0626 13.7405 -6.2318 -54.8608 14.3685 -6.2318 
54.8485 14.3685 -6.2318 55.0626 14.3685 -5.45406 -52.1647 22.2966 -6.2318 
-48.0031 28.7175 -6.2318 50.0314 22.2966 -6.2318 47.1345 25.5684 -6.2318 
-46.8659 30.2247 -6.2318 -40.0749 36.9308 -6.2318 31.2782 37.224 -6.2318 
42.0732 30.2247 -6.2318 39.2063 32.3122 -6.2318 -38.4285 38.1529 -6.2318 
-32.1468 42.2103 -6.2318 -24.2187 45.469 -6.2318 7.49383 45.9891 -6.2318 
15.422 43.7814 -6.2318 29.3343 38.1529 -6.2318 23.3501 40.8444 -6.2318 
-21.4928 46.081 -6.2318 -16.2906 47.1835 -6.2318 -8.36242 48.1988 -6.2318 
7.01649 46.081 -6.2318 -0.434298 47.449 -6.2318 7.49383 46.081 -5.32444 
-32.1468 -42.3994 1.69633 -24.2187 -45.7913 1.69633 -16.2906 -47.2747 1.69633 
-8.36242 -47.459 1.69633 -0.434298 -46.27 1.69633 7.49383 -44.4371 1.69633 
15.422 -42.2171 1.69633 -33.9839 -41.1284 1.69633 -40.0749 -35.7314 1.69633 
-32.1468 -41.1284 3.82536 7.49383 -41.1284 7.36774 18.3669 -41.1284 1.69633 
15.422 -41.1284 3.42265 23.3501 -39.4141 1.69633 31.2782 -36.2057 1.69633 
-42.3514 -33.2003 1.69633 -40.0749 -33.2003 4.68988 37.5461 -33.2003 1.69633 
31.2782 -33.2003 7.21905 39.2063 -32.318 1.69633 47.1345 -26.3703 1.69633 
-46.7933 -25.2722 1.69633 -48.0031 -22.3324 1.69633 48.2867 -25.2722 1.69633 
47.1345 -25.2722 5.42508 55.0626 -17.4324 1.69633 -50.2321 -17.344 1.69633 
-48.0031 -17.344 4.66193 55.1265 -17.344 1.69633 55.0626 -17.344 2.13717 
-52.5725 -9.4159 1.69633 -48.0031 -9.4159 9.0869 58.1588 -9.4159 1.69633 
-54.0423 -1.48778 1.69633 59.6817 -1.48778 1.69633 -54.9001 6.44035 1.69633 
59.5652 6.44035 1.69633 -54.5626 14.3685 1.69633 56.7461 14.3685 1.69633 
55.0626 17.2185 1.69633 -52.015 22.2966 1.69633 -48.0031 29.2504 1.69633 
51.5048 22.2966 1.69633 47.1345 26.8277 1.69633 -47.307 30.2247 1.69633 
-40.0749 37.5257 1.69633 31.2782 37.8308 1.69633 43.1746 30.2247 1.69633 
39.2063 33.2269 1.69633 -39.231 38.1529 1.69633 -32.1468 42.609 1.69633 
-24.2187 45.8746 1.69633 15.422 44.5483 1.69633 30.6227 38.1529 1.69633 
23.3501 41.535 1.69633 -23.4325 46.081 1.69633 -16.2906 47.8773 1.69633 
-16.2906 46.081 6.9936 -8.36242 48.591 1.69633 -8.36242 46.081 9.0674 
-0.434298 48.0867 1.69633 -0.434298 46.081 9.46824 9.9278 46.081 1.69633 
7.49383 46.7391 1.69633 7.49383 46.081 4.63242 -24.2187 -41.6015 9.62446 
-16.2906 -43.1854 9.62446 -8.36242 -43.0769 9.62446 -0.434298 -41.7096 9.62446 
-25.1985 -41.1284 9.62446 -32.1468 -36.3341 9.62446 -24.2187 -41.1284 10.1936 
-16.2906 -41.1284 12.083 -8.36242 -41.1284 11.9516 1.85964 -41.1284 9.62446 
-0.434298 -41.1284 10.3467 7.49383 -39.5347 9.62446 15.422 -36.9132 9.62446 
23.3501 -34.2762 9.62446 -35.3966 -33.2003 9.62446 -40.0749 -26.2005 9.62446 
-32.1468 -33.2003 11.99 -24.2187 -33.2003 16.0319 -0.434298 -33.2003 17.4053 
7.49383 -33.2003 15.6975 15.422 -33.2003 13.4934 26.7423 -33.2003 9.62446 
23.3501 -33.2003 10.8492 31.2782 -31.6967 9.62446 39.2063 -28.2576 9.62446 
-40.5806 -25.2722 9.62446 -40.0749 -25.2722 10.0897 -32.1468 -25.2722 15.6879 
31.2782 -25.2722 16.7685 44.6519 -25.2722 9.62446 39.2063 -25.2722 13.3144 
47.1345 -23.6579 9.62446 -44.0011 -17.344 9.62446 -40.0749 -17.344 13.0217 
-32.1468 -17.344 17.1876 53.4481 -17.344 9.62446 47.1345 -17.344 16.1939 
55.0626 -14.5485 9.62446 -47.4936 -9.4159 9.62446 -48.0031 -7.85166 9.62446 
-40.0749 -9.4159 15.1164 57.1734 -9.4159 9.62446 55.0626 -9.4159 13.3956 
-49.5848 -1.48778 9.62446 -48.0031 -1.48778 11.3789 -40.0749 -1.48778 17.2801 
58.8471 -1.48778 9.62446 55.0626 -1.48778 16.1155 -50.8754 6.44035 9.62446 
-48.0031 6.44035 12.8301 58.5396 6.44035 9.62446 55.0626 6.44035 15.2941 
-50.7468 14.3685 9.62446 -48.0031 14.3685 12.8246 55.2741 14.3685 9.62446 
55.0626 14.7049 9.62446 55.0626 14.3685 9.98604 -48.5994 22.2966 9.62446 
-48.0031 23.345 9.62446 -48.0031 22.2966 10.3453 -40.0749 22.2966 15.8476 
49.3368 22.2966 9.62446 47.1345 24.56 9.62446 47.1345 22.2966 12.4201 
[...]
POINT_DATA 534
SCALARS ImageScalars float
LOOKUP_TABLE default
0 0 0 0 0 0 0 0 0 
0 0 0 0 0 0 0 0 0 
0 0 0 0 0 0 0 0 0 
0 0 0 0 0 0 0 0 0 
0 0 0 0 0 0 0 0 0 
0 0 0 0 0 0 0 0 0 
0 0 0 0 0 0 0 0 0 
0 0 0 0 0 0 0 0 0 
0 0 0 0 0 0 0 0 0 
0 0 0 0 0 0 0 0 0 
0 0 0 0 0 0 0 0 0 
0 0 0 0 0 0 0 0 0 
0 0 0 0 0 0 0 0 0 
0 0 0 0 0 0 0 0 0 
0 0 0 0 0 0 0 0 0 
0 0 0 0 0 0 0 0 0 
0 0 0 0 0 0 0 0 0 
0 0 0 0 0 0 0 0 0 
0 0 0 0 0 0 0 0 0 
0 0 0 0 0 0 0 0 0 
0 0 0 0 0 0 0 0 0 
0 0 0 0 0 0 0 0 0 
0 0 0 0 0 0 0 0 0 
0 0 0 0 0 0 0 0 0 
0 0 0 0 0 0 0 0 0 
0 0 0 0 0 0 0 0 0 
0 0 0 0 0 0 0 0 0 
0 0 0 0 0 0 0 0 0 
0 0 0 0 0 0 0 0 0 
0 0 0 0 0 0 0 0 0 
0 0 0 0 0 0 0 0 0 
0 0 0 0 0 0 0 0 0 
0 0 0 0 0 0 0 0 0 
0 0 0 0 0 0 0 0 0 
0 0 0 0 0 0 0 0 0 
0 0 0 0 0 0 0 0 0 
0 0 0 0 0 0 0 0 0 
0 0 0 0 0 0 0 0 0 
0 0 0 0 0 0 0 0 0 
0 0 0 0 0 0 0 0 0 
0 0 0 0 0 0 0 0 0 
0 0 0 0 0 0 0 0 0 
0 0 0 0 0 0 0 0 0 
0 0 0 0 0 0 0 0 0 
0 0 0 0 0 0 0 0 0 
0 0 0 0 0 0 0 0 0 
0 0 0 0 0 0 0 0 0 
0 0 0 0 0 0 0 0 0 
0 0 0 0 0 0 0 0 0 
0 0 0 0 0 0 0 0 0 
0 0 0 0 0 0 0 0 0 
0 0 0 0 0 0 0 0 0 
0 0 0 0 0 0 0 0 0 
0 0 0 0 0 0 0 0 0 
0 0 0 0 0 0 0 0 0 
0 0 0 0 0 0 0 0 0 
0 0 0 0 0 0 0 0 0 
0 0 0 0 0 0 0 0 0 
0 0 0 0 0 0 0 0 0 
0 0 0 
NORMALS Normals float
0.00306545 -0.0226097 -0.99974 -0.225795 -0.568112 -0.791369 -0.0835399 -0.488589 -0.868506 
-0.0526318 -0.436162 -0.898328 0.0640131 -0.465281 -0.882845 0.152811 -0.557786 -0.815796 
0.259562 -0.7348 -0.626655 -0.549683 -0.512734 -0.659509 -0.250881 -0.368158 -0.895276 
-0.0546112 -0.209358 -0.976313 -0.040434 -0.183569 -0.982175 -0.0245696 -0.120492 -0.99241 
0.0193381 -0.122822 -0.99224 0.0225034 -0.171552 -0.984918 0.100524 -0.203889 -0.973819 
0.230065 -0.379193 -0.89626 0.432896 -0.55715 -0.70865 -0.388996 -0.284381 -0.876247 
-0.0802968 -0.0817315 -0.993415 -0.0275087 -0.0471945 -0.998507 0.0112244 -0.00267208 -0.999933 
0.0202926 0.0453779 -0.998764 0.0051032 0.0532533 -0.998568 0.0110431 0.0257341 -0.999608 
0.0220103 0.0109168 -0.999698 0.0846815 -0.113137 -0.989964 0.219715 -0.214252 -0.951747 
0.51354 -0.380819 -0.76893 -0.675123 -0.247052 -0.695107 -0.2341 -0.0789623 -0.969001 
-0.0320316 -0.0286713 -0.999076 0.0413203 0.0313071 -0.998655 0.0546964 0.10682 -0.992773 
0.0249501 -0.00322042 -0.999683 -0.00201874 0.00949982 -0.999953 -0.0223163 0.0148031 -0.999641 
-0.0413986 0.0375605 -0.998436 0.00894077 0.00268468 -0.999956 0.149368 -0.0378766 -0.988056 
0.344218 -0.118926 -0.931327 -0.542303 -0.116637 -0.832048 -0.170911 -0.0507291 -0.98398 
0.0291713 -0.0113957 -0.999509 0.107696 0.0319864 -0.993669 -0.0206278 0.0732175 -0.997103 
-0.0039696 -0.0343988 -0.9994 -0.0805129 -0.154639 -0.984685 0.0252271 0.0633714 -0.997671 
0.038808 -0.0960014 -0.994624 0.0113625 -0.0369804 -0.999251 0.00971653 0.0497828 -0.998713 
0.102837 0.0262598 -0.994352 0.252892 -0.0426447 -0.966554 0.499856 -0.101653 -0.860122 
-0.500753 0.000813978 -0.86559 -0.127121 0.0215609 -0.991653 0.0498607 0.0147347 -0.998648 
0.127574 0.00487639 -0.991817 -0.00197233 -0.0222975 -0.999749 -0.125338 -0.0147095 -0.992005 
0.00465747 -0.0182549 -0.999822 0.00706536 0.00510983 -0.999962 0.0640378 0.117764 -0.990975 
-0.13181 -0.0163126 -0.991141 0.112769 0.0338589 -0.993044 0.069204 0.0547544 -0.996099 
0.060057 0.0302635 -0.997736 0.213869 -0.000295832 -0.976862 0.457947 -0.0161789 -0.888832 
-0.488671 0.125467 -0.863399 -0.159714 0.101259 -0.981956 0.0126836 0.0545399 -0.998431 
0.0826504 0.0069203 -0.996555 -0.0576283 -0.022451 -0.998086 0.0370032 0.20557 -0.977943 
0.0416517 0.0371726 -0.99844 -0.0350754 0.216254 -0.975707 0.0822348 0.165855 -0.982715 
0.00691873 0.0282842 -0.999576 0.0481823 0.0439628 -0.997871 0.200079 0.0574615 -0.978093 
0.439468 0.0799741 -0.894691 -0.540701 0.250579 -0.803027 -0.220037 0.163357 -0.961716 
-0.0448732 0.0981614 -0.994158 0.0502287 0.055403 -0.9972 0.0721503 0.030968 -0.996913 
0.0848815 0.171615 -0.981501 0.05223 0.0358689 -0.997991 -0.0103929 0.127584 -0.991773 
-0.0747243 0.0482677 -0.996035 -0.0457566 0.0595868 -0.997174 0.0887413 0.114149 -0.989492 
0.257171 0.159865 -0.953051 0.516297 0.248705 -0.819502 -0.330254 0.300759 -0.894693 
-0.100429 0.190451 -0.976546 0.0118278 0.137365 -0.99045 0.0573992 0.0527909 -0.996955 
0.0478051 0.054806 -0.997352 0.00177266 -0.000219483 -0.999998 -0.021875 0.00575641 -0.999744 
0.0012212 0.0243635 -0.999702 0.0745106 0.150336 -0.985823 0.167992 0.262456 -0.950208 
0.341608 0.392448 -0.853984 -0.210535 0.383412 -0.899261 -0.0905797 0.274858 -0.957209 
-0.0116833 0.177595 -0.984034 0.0257637 0.139265 -0.98992 0.00304487 0.132988 -0.991113 
0.0179233 0.165987 -0.985965 0.0747983 0.237218 -0.968573 0.181738 0.355954 -0.916662 
0.347339 0.507327 -0.788654 -0.187164 0.515285 -0.836332 -0.092193 0.456121 -0.885129 
-0.0163488 0.380344 -0.924701 0.0340206 0.406043 -0.91322 0.110251 0.471367 -0.875019 
-0.26602 -0.743752 -0.613243 -0.147431 -0.764322 -0.627754 -0.0320585 -0.794283 -0.606702 
-0.00165725 -0.986005 -0.16671 0.109391 -0.818702 -0.563703 0.23216 -0.786173 -0.572742 
0.284506 -0.802151 -0.524986 -0.567475 -0.557713 -0.605746 -0.404241 -0.676572 -0.6155 
-0.417987 -0.661622 -0.62253 -0.440521 -0.718648 -0.538039 0.311721 -0.790042 -0.527887 
0.331054 -0.752264 -0.569651 0.368702 -0.895997 -0.247485 0.470031 -0.654272 -0.592452 
-0.593701 -0.530408 -0.605133 0.503329 -0.608398 -0.613605 0.558188 -0.502403 -0.660317 
0.607994 -0.771318 -0.188179 -0.686521 -0.421206 -0.592684 -0.728822 -0.369734 -0.576294 
-0.813414 -0.441003 -0.379308 0.587155 -0.434581 -0.682927 0.756537 -0.569607 -0.321246 
-0.799797 -0.245222 -0.547896 0.605902 -0.311187 -0.732152 0.605906 -0.311041 -0.73221 
0.606036 -0.311277 -0.732002 -0.796757 -0.141183 -0.587576 0.579984 -0.122327 -0.805391 
0.849464 -0.221889 -0.478723 -0.768007 -0.0212676 -0.640089 -0.992873 -0.0710795 -0.0956568 
0.559475 -0.0306043 -0.828282 0.805731 -0.0798253 -0.586877 -0.749485 0.114246 -0.652089 
-0.986999 0.087653 -0.134722 0.549761 0.0892444 -0.830541 0.807743 0.127585 -0.575564 
-0.687559 0.233569 -0.687538 -0.576536 0.385455 -0.720437 0.539984 0.25679 -0.801546 
0.532201 0.282306 -0.798164 -0.524378 0.418001 -0.741824 -0.628024 0.456147 -0.630489 
-0.441647 0.493754 -0.749103 0.434883 0.429131 -0.791659 0.384722 0.469072 -0.794959 
0.655484 0.541399 -0.526524 -0.435951 0.495831 -0.751065 -0.448399 0.502923 -0.738923 
-0.30235 0.510242 -0.805132 0.213362 0.605513 -0.766701 0.261805 0.569965 -0.778844 
0.352919 0.513383 -0.782232 0.350953 0.515095 -0.78199 0.50602 0.711178 -0.488025 
-0.215863 0.531163 -0.81931 -0.396442 0.653761 -0.644538 -0.188588 0.537359 -0.821998 
-0.118987 0.554705 -0.823496 -0.0287413 0.529787 -0.847643 0.0600014 0.559638 -0.826562 
0.213264 0.605548 -0.766701 0.141959 0.571224 -0.808425 0.213662 0.606182 -0.766088 
0.339795 0.773434 -0.535106 -0.158189 0.894481 -0.418187 -0.0201443 0.850721 -0.525231 
0.119952 0.890723 -0.438433 0.00799139 -0.99996 -0.00396272 -0.453453 -0.887556 -0.0813918 
-0.268005 -0.960286 -0.0776098 -0.138298 -0.98982 -0.0336074 -0.149967 -0.987997 -0.0370429 
0.129807 -0.990979 0.0333419 0.0242499 -0.992586 0.119104 0.158525 -0.986553 0.0397901 
0.239709 -0.969872 0.0434593 0.308527 -0.95116 0.0102749 0.370451 -0.92836 0.0302177 
-0.584455 -0.809652 -0.0536236 -0.666066 -0.744924 -0.0379976 0.398136 -0.916865 0.0290768 
0.363195 -0.911996 0.190661 0.465488 -0.884933 -0.0146236 0.600082 -0.792635 -0.107849 
-0.803684 -0.594143 -0.0329724 -0.869224 -0.494407 -0.00340858 0.617829 -0.778454 -0.110889 
0.58513 -0.809588 0.0467945 0.762047 -0.592739 -0.260663 -0.908451 -0.417897 0.00892622 
-0.867271 -0.405789 0.288403 0.767126 -0.580505 -0.273004 -0.95249 -0.30441 -0.00990328 
0.826981 -0.426441 -0.366403 0.860562 -0.287783 -0.420255 0.850076 -0.524396 -0.0487884 
-0.977574 -0.2103 -0.0110641 -0.993674 -0.110346 -0.0208636 0.869344 -0.231129 -0.436831 
-0.996745 -0.075514 -0.0282387 -0.99573 -0.0865458 0.0321072 0.881362 -0.0822843 -0.465221 
-0.990694 0.0843047 -0.106851 -0.987184 0.106041 -0.119257 -0.996978 0.0656834 -0.0414763 
0.884901 0.137706 -0.444959 0.84849 0.347657 -0.398997 -0.956448 0.222285 -0.189201 
0.842623 0.364909 -0.396015 0.855258 0.37414 -0.358542 -0.873273 0.439389 -0.21055 
-0.775293 0.571484 -0.268936 0.73829 0.576252 -0.350515 0.685796 0.651679 -0.324034 
-0.748784 0.602992 -0.275179 -0.600228 0.742346 -0.297738 0.454524 0.843487 -0.286247 
0.585789 0.754167 -0.296789 0.539032 0.787109 -0.299838 -0.570653 0.764569 -0.299648 
-0.459002 0.841608 -0.284628 -0.273355 0.912726 -0.303657 0.211658 0.933873 -0.28824 
0.288179 0.909346 -0.300071 0.434552 0.856091 -0.279772 0.379471 0.880154 -0.285186 
-0.231468 0.925291 -0.300431 -0.160168 0.938344 -0.306361 -0.0159018 0.952794 -0.303202 
0.206732 0.935132 -0.287733 0.134707 0.945441 -0.296641 0.213338 0.945198 -0.247158 
-0.48153 -0.805937 0.344375 -0.270878 -0.9074 0.321325 -0.0987694 -0.937721 0.333052 
0.0601515 -0.92204 0.382391 0.176215 -0.89725 0.404833 0.223195 -0.879538 0.420234 
0.282189 -0.856783 0.431616 -0.527191 -0.771477 0.35622 -0.677567 -0.614736 0.403735 
-0.493883 -0.762788 0.417413 0.234821 -0.80347 0.547079 0.306036 -0.848786 0.431167 
0.285036 -0.835045 0.470589 0.325887 -0.844868 0.424258 0.379589 -0.852867 0.35851 
-0.728653 -0.550879 0.406935 -0.673551 -0.54071 0.503946 0.500755 -0.815017 0.291533 
0.321574 -0.806406 0.496286 0.527861 -0.806426 0.266533 0.672318 -0.731961 0.110549 
-0.805104 -0.380018 0.455404 -0.808941 -0.364896 0.460939 0.693767 -0.714797 0.0880489 
0.631088 -0.740092 0.232363 0.848021 -0.52874 -0.0359671 -0.834195 -0.317825 0.450673 
-0.770672 -0.333215 0.543168 0.849345 -0.526547 -0.036906 0.847624 -0.5303 -0.0177674 
-0.889065 -0.20331 0.410157 -0.724744 -0.25787 0.638944 0.956876 -0.281422 -0.0720375 
-0.917803 -0.142645 0.370526 0.992451 -0.0826526 -0.0906093 -0.955365 -0.031458 0.293747 
0.98037 0.183004 -0.0733765 -0.960993 0.172801 0.215945 0.902925 0.429141 -0.0237383 
0.866836 0.498568 -0.00501591 -0.900141 0.393892 0.185997 -0.802166 0.575508 0.159126 
0.770849 0.636261 0.0310622 0.680235 0.7313 0.0498069 -0.781497 0.603745 0.157334 
-0.618597 0.770012 0.15627 0.465929 0.880792 0.0843588 0.61283 0.786953 0.0717306 
0.554361 0.829084 0.0728275 -0.599595 0.784848 0.156525 -0.459338 0.872219 0.168055 
-0.301183 0.941011 0.154232 0.308152 0.949351 0.0614451 0.459964 0.884144 0.0819977 
0.392407 0.917513 0.0647124 -0.287017 0.946211 0.149349 -0.164465 0.979151 0.119228 
-0.180744 0.909773 0.373691 -0.0129085 0.990954 0.133583 -0.051919 0.879866 0.472377 
0.113987 0.989953 0.0836677 0.0595445 0.898421 0.43508 0.242908 0.968017 0.0627566 
0.214789 0.974651 0.0626247 0.208801 0.960598 0.183449 -0.288147 -0.749916 0.595481 
-0.0796906 -0.802 0.591985 0.078197 -0.79593 0.600317 0.175525 -0.78408 0.595323 
-0.314503 -0.73495 0.600779 -0.494749 -0.563025 0.661986 -0.290536 -0.733835 0.614064 
-0.0797088 -0.730657 0.678075 0.0742601 -0.740005 0.66849 0.191447 -0.779135 0.596906 
0.173919 -0.769668 0.614299 0.230165 -0.757913 0.610403 0.253663 -0.742668 0.619757 
0.248887 -0.749603 0.613311 -0.551192 -0.485292 0.678734 -0.633318 -0.352893 0.688749 
-0.487217 -0.470628 0.735615 -0.288806 -0.409066 0.865596 0.124701 -0.465264 0.876344 
0.191723 -0.553573 0.810431 0.225076 -0.6518 0.724222 0.263322 -0.762112 0.591478 
0.236835 -0.732539 0.638197 0.288711 -0.775858 0.560972 0.386274 -0.781459 0.490014 
-0.640564 -0.336401 0.690298 -0.630344 -0.334378 0.700612 -0.4353 -0.267281 0.859694 
0.198117 -0.633691 0.747787 0.503728 -0.753967 0.421654 0.340151 -0.72869 0.594398 
0.576297 -0.716908 0.392332 -0.664716 -0.287797 0.689438 -0.571747 -0.251348 0.78098 
-0.372994 -0.169655 0.912191 0.751457 -0.567178 0.337079 0.492873 -0.541961 0.680701 
0.824879 -0.467585 0.317709 -0.705356 -0.256505 0.660816 -0.719142 -0.241302 0.651619 
-0.481888 -0.222553 0.847499 0.905829 -0.296121 0.302963 0.820933 -0.288779 0.492621 
-0.763415 -0.172895 0.622339 -0.710139 -0.172319 0.682648 -0.398242 -0.147253 0.905384 
0.950483 -0.0782526 0.300764 0.755373 -0.0594114 0.652597 -0.793494 -0.0601915 0.605594 
-0.6917 -0.0674768 0.719025 0.920454 0.217399 0.324811 0.752528 0.220418 0.620579 
-0.794761 0.127464 0.593387 -0.700209 0.112802 0.704971 0.818595 0.45832 0.346188 
0.813435 0.466557 0.347344 0.810994 0.459156 0.362579 -0.754197 0.353732 0.553228 
-0.741109 0.380911 0.552869 -0.729895 0.352603 0.585598 -0.413846 0.303128 0.858397 
0.669064 0.634811 0.386482 0.62935 0.672598 0.38927 0.601677 0.612691 0.512439 
-0.619076 0.553953 0.55667 -0.554557 0.615586 0.559929 -0.51619 0.519961 0.68058 
-0.278808 0.417665 0.864767 0.456281 0.792383 0.404891 0.344664 0.582104 0.736452 
0.529972 0.739979 0.414199 0.521202 0.745386 0.41563 0.515368 0.730458 0.448137 
-0.424385 0.710397 0.561456 -0.404083 0.718352 0.566293 -0.395772 0.697419 0.597471 
-0.29409 0.751452 0.590619 -0.25727 0.601183 0.756566 -0.185878 0.826236 0.531774 
-0.178789 0.523074 0.833323 -0.0560499 0.862494 0.502954 -0.0912451 0.513296 0.853347 
0.0580874 0.894509 0.44326 0.00210464 0.513092 0.858331 0.185973 0.888015 0.420528 
0.0861856 0.540553 0.836884 0.289326 0.869499 0.400327 0.220275 0.628408 0.746044 
0.41301 0.822113 0.391858 0.379916 0.837565 0.392618 0.365446 0.780895 0.506609 
-0.114539 -0.419741 0.900388 0.0173891 -0.444255 0.895732 -0.12399 -0.414582 0.901525 
-0.267625 -0.293776 0.917645 -0.115011 -0.415011 0.902518 0.102348 -0.453736 0.885239 
0.0135696 -0.411731 0.911204 0.120866 -0.451876 0.883855 0.138816 -0.439619 0.887392 
0.11889 -0.470468 0.874371 0.108265 -0.530584 0.84069 -0.322802 -0.232236 0.917532 
-0.253704 -0.213451 0.943437 -0.103856 -0.18755 0.976749 -0.00352152 -0.196994 0.980398 
0.0527546 -0.229475 0.971884 0.0830574 -0.327709 0.941121 0.0862803 -0.413359 0.906471 
0.137544 -0.563137 0.814836 0.0985047 -0.513791 0.852242 0.178036 -0.597328 0.781986 
0.291723 -0.560584 0.775012 -0.351856 -0.157557 0.922699 -0.349146 -0.158671 0.923537 
-0.218251 -0.0859726 0.972098 -0.102946 -0.0877528 0.990809 -0.0198153 -0.132634 0.990967 
-0.0123257 -0.113343 0.993479 -0.00955346 -0.213061 0.976992 0.0130521 -0.229994 0.973104 
0.000502896 -0.265111 0.964218 0.075901 -0.351601 0.933068 0.405903 -0.508601 0.75932 
0.255432 -0.44253 0.859606 0.460226 -0.462469 0.757835 -0.340627 -0.160183 0.926453 
-0.273582 -0.122659 0.953996 -0.175253 -0.0299457 0.984068 -0.153944 0.0222835 0.987828 
-0.0302317 -0.0433242 0.998604 -0.0316731 0.0399416 0.9987 -0.0389634 -0.0877902 0.995377 
0.0325171 -0.0326566 0.998938 -0.0371841 -0.059446 0.997539 -0.00050271 -0.0973178 0.995253 
0.161941 -0.163804 0.97311 0.599906 -0.276935 0.750613 0.408669 -0.248782 0.878121 
-0.36795 -0.136247 0.91981 -0.377532 -0.102492 0.920307 -0.174023 -0.068047 0.982388 
-0.0761589 0.0116766 0.997027 -0.117235 0.143783 0.982641 -0.00117443 0.078577 0.996907 
-0.0608789 -0.00758379 0.998116 -0.0835196 0.0509449 0.995203 0.0403798 0.0890317 0.99521 
-0.0718124 0.0428264 0.996498 -0.0426436 0.0339248 0.998514 0.105651 0.00046845 0.994403 
0.656101 -0.0498429 0.753025 0.347047 -0.020829 0.937616 -0.37575 -0.0528345 0.925214 
-0.355903 -0.0497874 0.933196 -0.119371 -0.0329015 0.992304 0.0336212 0.030128 0.99898 
-0.078711 0.03698 0.996211 -0.188953 0.0204162 0.981774 -0.057398 -0.089016 0.994375 
0.0617246 0.148416 0.986997 0.0199862 0.0628418 0.997823 -0.0892966 0.0442964 0.99502 
-0.0445447 0.0785262 0.995916 0.107748 0.114157 0.987602 0.606154 0.210091 0.767098 
0.358609 0.18253 0.915468 -0.398722 0.107093 0.910797 -0.367756 0.159506 0.916141 
-0.352667 0.105361 0.929798 -0.0968973 0.0700679 0.992825 -0.0047496 0.031731 0.999485 
-0.121102 -0.0627223 0.990656 -0.136096 -0.0118989 0.990624 0.0693553 0.0495194 0.996362 
0.0669084 0.104606 0.99226 -0.0602374 0.0333911 0.997625 -0.0553534 0.0587008 0.99674 
0.0374177 0.138749 0.98962 0.212958 0.279858 0.936124 0.479909 0.388802 0.78646 
0.461123 0.410589 0.786627 0.442672 0.376371 0.813871 -0.269393 0.267251 0.925205 
-0.222694 0.301275 0.927168 -0.194978 0.237998 0.951494 -0.102403 0.121067 0.987348 
-0.128602 0.0360509 0.991041 -0.0692403 0.0853411 0.993943 0.0625762 0.0987518 0.993143 
0.044202 0.0276025 0.998641 -0.0250275 0.0972252 0.994948 0.0211484 0.179099 0.983604 
0.275145 0.481016 0.832417 0.171067 0.329468 0.92854 0.367785 0.473585 0.800282 
0.354776 0.479634 0.802549 0.341273 0.456936 0.821427 -0.21047 0.31309 0.926109 
-0.209522 0.313808 0.926081 -0.208723 0.31061 0.927338 -0.167145 0.383883 0.908128 
-0.156164 0.247687 0.956172 -0.0878726 0.465251 0.880806 -0.070763 0.25447 0.964488 
0.00203284 0.504404 0.863466 0.00613972 0.210164 0.977647 0.079969 0.472411 0.877743 
0.0703261 0.192645 0.978745 0.15721 0.436664 0.885782 0.096963 0.262027 0.960177 
0.239989 0.480338 0.843612 0.20484 0.473882 0.856432 0.175997 0.425518 0.887671 

