# vtk DataFile Version 4.2
vtk output
ASCII
DATASET POLYDATA
POINTS 548 float
19.5433 -38.3451 -14.3846 -19.8878 -30.4588 -15.136 -12.0016 -30.4588 -16.2193 
-4.11534 -30.4588 -17.5687 3.77088 -30.4588 -18.2045 11.6571 -30.4588 -18.5438 
19.5433 -30.4588 -18.592 27.4296 -30.4588 -18.2372 35.3158 -30.4588 -17.9216 
43.202 -30.4588 -15.0804 -35.6602 -22.5726 -14.9463 -27.774 -22.5726 -16.3655 
-19.8878 -22.5726 -17.4862 -12.0016 -22.5726 -18.3952 -4.11534 -22.5726 -18.9567 
3.77088 -22.5726 -19.5889 11.6571 -22.5726 -19.5108 19.5433 -22.5726 -19.8666 
27.4296 -22.5726 -19.9763 35.3158 -22.5726 -19.8304 43.202 -22.5726 -18.4761 
-43.5465 -14.6864 -14.4281 -35.6602 -14.6864 -16.5105 -27.774 -14.6864 -17.675 
-19.8878 -14.6864 -18.5036 -12.0016 -14.6864 -19.9533 -4.11534 -14.6864 -20.3193 
3.77088 -14.6864 -20.6667 11.6571 -14.6864 -19.1521 19.5433 -14.6864 -19.314 
27.4296 -14.6864 -20.4287 35.3158 -14.6864 -21.2973 43.202 -14.6864 -19.7228 
51.0882 -14.6864 -15.6558 -43.5465 -6.80016 -15.7506 -35.6602 -6.80016 -17.2395 
-27.774 -6.80016 -17.4985 -19.8878 -6.80016 -17.864 -12.0016 -6.80016 -20.8014 
-4.11534 -6.80016 -20.1617 3.77088 -6.80016 -21.6304 11.6571 -6.80016 -19.4263 
19.5433 -6.80016 -18.1372 27.4296 -6.80016 -19.7827 35.3158 -6.80016 -20.5476 
43.202 -6.80016 -19.8581 51.0882 -6.80016 -17.5243 -43.5465 1.08607 -15.9807 
-35.6602 1.08607 -17.1388 -27.774 1.08607 -17.0792 -19.8878 1.08607 -16.7468 
-12.0016 1.08607 -20.5588 -4.11534 1.08607 -17.9388 3.77088 1.08607 -19.6509 
11.6571 1.08607 -20.7273 19.5433 1.08607 -18.1645 27.4296 1.08607 -19.5531 
35.3158 1.08607 -20.4025 43.202 1.08607 -19.7977 51.0882 1.08607 -17.3562 
-43.5465 8.97229 -15.2651 -35.6602 8.97229 -16.3657 -27.774 8.97229 -16.3086 
-19.8878 8.97229 -15.6967 -12.0016 8.97229 -17.4021 -4.11534 8.97229 -18.4431 
3.77088 8.97229 -19.1634 11.6571 8.97229 -19.5031 19.5433 8.97229 -18.5465 
27.4296 8.97229 -19.9506 35.3158 8.97229 -20.2838 43.202 8.97229 -19.6304 
51.0882 8.97229 -16.9692 -43.5465 16.8585 -14.3663 -35.6602 16.8585 -15.8388 
-27.774 16.8585 -16.3321 -19.8878 16.8585 -16.5226 -12.0016 16.8585 -16.7658 
-4.11534 16.8585 -16.6581 3.77088 16.8585 -18.1775 11.6571 16.8585 -19.3384 
19.5433 16.8585 -19.2727 27.4296 16.8585 -19.5795 35.3158 16.8585 -19.7846 
43.202 16.8585 -18.95 51.0882 16.8585 -15.2549 -27.774 24.7447 -16.6258 
-19.8878 24.7447 -17.883 -12.0016 24.7447 -17.83 -4.11534 24.7447 -17.6833 
3.77088 24.7447 -18.7613 11.6571 24.7447 -19.5576 19.5433 24.7447 -19.0898 
27.4296 24.7447 -18.8396 35.3158 24.7447 -17.6646 43.202 24.7447 -15.7642 
-27.774 32.631 -15.4384 -19.8878 32.631 -17.0301 -12.0016 32.631 -18.0188 
-4.11534 32.631 -18.2152 3.77088 32.631 -18.4749 11.6571 32.631 -18.7582 
19.5433 32.631 -17.6764 27.4296 32.631 -16.0382 -19.8878 40.5172 -14.9166 
-12.0016 40.5172 -16.3062 -4.11534 40.5172 -16.5159 3.77088 40.5172 -16.6974 
11.6571 40.5172 -15.868 19.5433 -38.4323 -14.2983 -27.774 -38.3451 -7.45003 
-19.8878 -31.9596 -14.2983 -19.8878 -38.3451 -9.63954 -12.0016 -34.0964 -14.2983 
-12.0016 -38.3451 -11.5177 -4.11534 -36.7373 -14.2983 -4.11534 -38.3451 -13.0787 
3.77088 -38.037 -14.2983 3.77088 -38.3451 -14.0636 12.7924 -38.3451 -14.2983 
11.6571 -38.3237 -14.2983 11.6571 -38.3451 -14.2813 20.6954 -38.3451 -14.2983 
27.4296 -37.585 -14.2983 27.4296 -38.3451 -13.6507 35.3158 -35.3794 -14.2983 
35.3158 -38.3451 -11.3348 43.202 -31.6477 -14.2983 -43.5465 -30.4588 -7.82113 
-35.6602 -24.2157 -14.2983 -35.6602 -30.4588 -11.5967 -24.116 -30.4588 -14.2983 
-27.774 -28.4342 -14.2983 -27.774 -30.4588 -13.489 44.3598 -30.4588 -14.2983 
-51.4327 -22.5726 -7.36692 -37.8355 -22.5726 -14.2983 -43.5465 -15.2488 -14.2983 
-43.5465 -22.5726 -12.5461 49.7323 -22.5726 -14.2983 51.0882 -19.4634 -14.2983 
51.0882 -22.5726 -12.5806 -43.8364 -14.6864 -14.2983 -51.4327 -14.6864 -10.3392 
52.5605 -14.6864 -14.2983 -47.0204 -6.80016 -14.2983 -51.4327 -6.80016 -12.227 
54.9829 -6.80016 -14.2983 -47.9529 1.08607 -14.2983 -51.4327 1.08607 -12.8092 
54.8286 1.08607 -14.2983 58.9744 1.08607 -6.66037 -45.7823 8.97229 -14.2983 
-51.4327 8.97229 -11.3361 54.4251 8.97229 -14.2983 58.9744 8.97229 -6.7859 
-43.6704 16.8585 -14.2983 -51.4327 16.8585 -7.68851 -43.5465 17.037 -14.2983 
-35.6602 24.2989 -14.2983 52.2895 16.8585 -14.2983 51.0882 18.5064 -14.2983 
-43.5465 24.7447 -10.1653 -35.4056 24.7447 -14.2983 -35.6602 24.7447 -14.2067 
35.3158 31.0587 -14.2983 45.4917 24.7447 -14.2983 43.202 26.661 -14.2983 
51.0882 24.7447 -7.41117 -30.432 32.631 -14.2983 -35.6602 32.631 -11.4459 
-27.774 35.7182 -14.2983 19.5433 39.9309 -14.2983 32.3011 32.631 -14.2983 
27.4296 34.9022 -14.2983 35.3158 32.631 -12.3721 -21.8862 40.5172 -14.2983 
-27.774 40.5172 -11.7413 -19.8878 41.5203 -14.2983 -12.0016 43.7182 -14.2983 
-4.11534 44.5312 -14.2983 3.77088 44.5807 -14.2983 18.3724 40.5172 -14.2983 
11.6571 42.818 -14.2983 19.5433 40.5172 -13.8605 -19.8878 48.4034 -7.04763 
-12.0016 48.4034 -9.81998 -4.11534 48.4034 -10.6451 3.77088 48.4034 -10.4526 
11.6571 48.4034 -7.40944 -27.774 -39.3693 -6.41204 -19.8878 -41.2995 -6.41204 
-12.0016 -42.6735 -6.41204 -4.11534 -43.4495 -6.41204 3.77088 -43.643 -6.41204 
11.6571 -43.9915 -6.41204 19.5433 -43.8212 -6.41204 27.4296 -43.2043 -6.41204 
35.3158 -41.6972 -6.41204 -43.5465 -32.1064 -6.41204 -31.4308 -38.3451 -6.41204 
-35.6602 -37.0491 -6.41204 -35.6602 -38.3451 -4.37562 41.2788 -38.3451 -6.41204 
43.202 -37.1189 -6.41204 -45.7117 -30.4588 -6.41204 -51.4327 -23.9616 -6.41204 
-51.4327 -30.4588 1.08162 49.7194 -30.4588 -6.41204 51.0882 -28.2855 -6.41204 
-52.2859 -22.5726 -6.41204 54.0927 -22.5726 -6.41204 -55.764 -14.6864 -6.41204 
56.4893 -14.6864 -6.41204 -57.6753 -6.80016 -6.41204 -59.3189 -6.80016 1.18712 
58.6559 -6.80016 -6.41204 58.9744 -0.959032 -6.41204 -57.8726 1.08607 -6.41204 
59.0804 1.08607 -6.41204 58.9744 1.08607 -4.99149 -56.1839 8.97229 -6.41204 
59.1519 8.97229 -6.41204 58.9744 9.68379 -6.41204 58.9744 8.97229 -3.72906 
-52.5465 16.8585 -6.41204 -51.4327 18.8383 -6.41204 56.9733 16.8585 -6.41204 
-47.654 24.7447 -6.41204 -43.5465 29.6381 -6.41204 43.202 31.41 -6.41204 
51.6571 24.7447 -6.41204 51.0882 25.3436 -6.41204 51.0882 24.7447 -3.58747 
-40.9851 32.631 -6.41204 -35.6602 38.5642 -6.41204 27.4296 40.4165 -6.41204 
41.0614 32.631 -6.41204 35.3158 35.7941 -6.41204 -33.6041 40.5172 -6.41204 
-27.774 45.0156 -6.41204 27.2715 40.5172 -6.41204 19.5433 45.4536 -6.41204 
-20.7955 48.4034 -6.41204 -19.8878 48.7524 -6.41204 -12.0016 50.5263 -6.41204 
-4.11534 51.1595 -6.41204 3.77088 50.9213 -6.41204 12.9618 48.4034 -6.41204 
11.6571 48.974 -6.41204 -35.6602 -40.9894 1.47419 -27.774 -43.43 1.47419 
-19.8878 -45.246 1.47419 -12.0016 -45.9709 1.47419 -4.11534 -45.9843 1.47419 
3.77088 -45.7164 1.47419 11.6571 -45.6591 1.47419 19.5433 -45.7851 1.47419 
27.4296 -45.1277 1.47419 35.3158 -42.5758 1.47419 -51.4327 -30.662 1.47419 
-41.414 -38.3451 1.47419 -43.5465 -37.246 1.47419 41.757 -38.3451 1.47419 
35.3158 -38.3451 8.74141 43.202 -36.9172 1.47419 -51.6064 -30.4588 1.47419 
-51.4327 -30.4588 2.63618 47.9811 -30.4588 1.47419 43.202 -30.4588 6.97306 
51.0882 -23.9557 1.47419 -56.5805 -22.5726 1.47419 51.7344 -22.5726 1.47419 
51.0882 -22.5726 2.26271 -58.8166 -14.6864 1.47419 -59.3189 -7.50586 1.47419 
54.6314 -14.6864 1.47419 51.0882 -14.6864 6.86147 -59.3666 -6.80016 1.47419 
-59.3189 -2.67523 1.47419 -59.3189 -6.80016 1.66254 57.2355 -6.80016 1.47419 
-59.2745 1.08607 1.47419 58.4835 1.08607 1.47419 -57.6579 8.97229 1.47419 
58.6162 8.97229 1.47419 -54.3917 16.8585 1.47419 -51.4327 21.5274 1.47419 
55.9878 16.8585 1.47419 51.0882 23.4351 1.47419 -49.1191 24.7447 1.47419 
-43.5465 30.9113 1.47419 49.6468 24.7447 1.47419 43.202 29.4105 1.47419 
43.202 24.7447 7.61873 -41.811 32.631 1.47419 -35.6602 38.4302 1.47419 
27.4296 39.7027 1.47419 27.4296 32.631 9.03571 37.9203 32.631 1.47419 
35.3158 34.36 1.47419 35.3158 32.631 3.59664 -33.1221 40.5172 1.47419 
-27.774 44.5247 1.47419 26.3591 40.5172 1.47419 19.5433 45.44 1.47419 
19.5433 40.5172 9.29031 -20.5421 48.4034 1.47419 -19.8878 48.7207 1.47419 
-19.8878 48.4034 2.30083 -12.0016 50.8977 1.47419 -12.0016 48.4034 8.35584 
-4.11534 51.9058 1.47419 3.77088 51.839 1.47419 14.8342 48.4034 1.47419 
11.6571 49.967 1.47419 11.6571 48.4034 5.31622 -35.6602 -40.9272 9.36041 
-27.774 -43.6429 9.36041 -19.8878 -45.393 9.36041 -12.0016 -45.8572 9.36041 
-4.11534 -45.204 9.36041 3.77088 -44.1802 9.36041 11.6571 -44.2156 9.36041 
19.5433 -43.6222 9.36041 27.4296 -42.0224 9.36041 -40.6848 -38.3451 9.36041 
-43.5465 -36.6295 9.36041 -35.6602 -38.3451 14.019 -27.774 -38.3451 16.3946 
3.77088 -38.3451 15.6177 11.6571 -38.3451 15.1607 19.5433 -38.3451 14.3927 
34.5479 -38.3451 9.36041 27.4296 -38.3451 13.1826 35.3158 -37.3632 9.36041 
-50.2948 -30.4588 9.36041 -51.4327 -28.8887 9.36041 -43.5465 -30.4588 17.096 
19.5433 -30.4588 16.5775 27.4296 -30.4588 15.088 39.8598 -30.4588 9.36041 
35.3158 -30.4588 12.6127 43.202 -25.9953 9.36041 -54.9202 -22.5726 9.36041 
-51.4327 -22.5726 14.4657 19.5433 -22.5726 16.7799 27.4296 -22.5726 15.5542 
35.3158 -22.5726 13.6227 44.8663 -22.5726 9.36041 43.202 -22.5726 10.5665 
-56.8855 -14.6864 9.36041 -51.4327 -14.6864 16.2038 3.77088 -14.6864 16.6564 
11.6571 -14.6864 15.6513 19.5433 -14.6864 15.0749 27.4296 -14.6864 14.9297 
35.3158 -14.6864 14.3334 47.9467 -14.6864 9.36041 43.202 -14.6864 12.02 
51.0882 -9.49364 9.36041 -56.9548 -6.80016 9.36041 -51.4327 -6.80016 16.3339 
11.6571 -6.80016 14.4251 19.5433 -6.80016 15.0132 27.4296 -6.80016 16.222 
35.3158 -6.80016 16.2233 43.202 -6.80016 14.5593 52.2902 -6.80016 9.36041 
51.0882 -6.80016 10.312 -56.4318 1.08607 9.36041 -51.4327 1.08607 15.8815 
3.77088 1.08607 16.5705 11.6571 1.08607 17.1176 19.5433 1.08607 17.1424 
43.202 1.08607 16.7035 54.2755 1.08607 9.36041 51.0882 1.08607 12.5464 
-54.5375 8.97229 9.36041 -51.4327 8.97229 13.3863 -4.11534 8.97229 17.2343 
3.77088 8.97229 15.4047 11.6571 8.97229 16.9375 43.202 8.97229 16.7487 
[...]
POINT_DATA 548
SCALARS ImageScalars float
LOOKUP_TABLE default
0 0 0 0 0 0 0 0 0 
0 0 0 0 0 0 0 0 0 
0 0 0 0 0 0 0 0 0 
0 0 0 0 0 0 0 0 0 
0 0 0 0 0 0 0 0 0 
0 0 0 0 0 0 0 0 0 
0 0 0 0 0 0 0 0 0 
0 0 0 0 0 0 0 0 0 
0 0 0 0 0 0 0 0 0 
0 0 0 0 0 0 0 0 0 
0 0 0 0 0 0 0 0 0 
0 0 0 0 0 0 0 0 0 
0 0 0 0 0 0 0 0 0 
0 0 0 0 0 0 0 0 0 
0 0 0 0 0 0 0 0 0 
0 0 0 0 0 0 0 0 0 
0 0 0 0 0 0 0 0 0 
0 0 0 0 0 0 0 0 0 
0 0 0 0 0 0 0 0 0 
0 0 0 0 0 0 0 0 0 
0 0 0 0 0 0 0 0 0 
0 0 0 0 0 0 0 0 0 
0 0 0 0 0 0 0 0 0 
0 0 0 0 0 0 0 0 0 
0 0 0 0 0 0 0 0 0 
0 0 0 0 0 0 0 0 0 
0 0 0 0 0 0 0 0 0 
0 0 0 0 0 0 0 0 0 
0 0 0 0 0 0 0 0 0 
0 0 0 0 0 0 0 0 0 
0 0 0 0 0 0 0 0 0 
0 0 0 0 0 0 0 0 0 
0 0 0 0 0 0 0 0 0 
0 0 0 0 0 0 0 0 0 
0 0 0 0 0 0 0 0 0 
0 0 0 0 0 0 0 0 0 
0 0 0 0 0 0 0 0 0 
0 0 0 0 0 0 0 0 0 
0 0 0 0 0 0 0 0 0 
0 0 0 0 0 0 0 0 0 
0 0 0 0 0 0 0 0 0 
0 0 0 0 0 0 0 0 0 
0 0 0 0 0 0 0 0 0 
0 0 0 0 0 0 0 0 0 
0 0 0 0 0 0 0 0 0 
0 0 0 0 0 0 0 0 0 
0 0 0 0 0 0 0 0 0 
0 0 0 0 0 0 0 0 0 
0 0 0 0 0 0 0 0 0 
0 0 0 0 0 0 0 0 0 
0 0 0 0 0 0 0 0 0 
0 0 0 0 0 0 0 0 0 
0 0 0 0 0 0 0 0 0 
0 0 0 0 0 0 0 0 0 
0 0 0 0 0 0 0 0 0 
0 0 0 0 0 0 0 0 0 
0 0 0 0 0 0 0 0 0 
0 0 0 0 0 0 0 0 0 
0 0 0 0 0 0 0 0 0 
0 0 0 0 0 0 0 0 0 
0 0 0 0 0 0 0 0 
NORMALS Normals float
-0.0255824 0.667399 0.744261 0.151373 0.397038 0.905233 0.150268 0.367456 0.917821 
0.114714 0.31142 0.943323 0.0618972 0.308329 0.949264 0.0232237 0.284136 0.958503 
-0.0188154 0.299437 0.95393 -0.0364864 0.341883 0.939034 -0.184703 0.428604 0.884412 
-0.441399 0.483637 0.755819 0.215676 0.275645 0.936752 0.150894 0.245647 0.957543 
0.126197 0.203655 0.970875 0.0888206 0.217826 0.971938 0.0767918 0.170439 0.982371 
0.0334673 0.145948 0.988726 0.0171533 0.0385132 0.999111 0.0298733 0.0400295 0.998752 
-0.00198326 0.130932 0.991389 -0.0839031 0.184392 0.979265 -0.352674 0.285958 0.890982 
0.333232 0.181934 0.925125 0.196699 0.134561 0.971186 0.120796 0.0656135 0.990507 
0.146155 0.0215606 0.989027 0.113615 0.148757 0.982325 0.0444631 0.0765799 0.996072 
-0.0738315 0.12646 0.98922 -0.083556 -0.00997018 0.996453 0.0800125 -0.108106 0.990914 
0.122637 -0.0118348 0.992381 -0.0500155 0.0429651 0.997824 -0.301365 0.0731367 0.9507 
-0.654059 0.230591 0.720441 0.274037 0.0907011 0.957433 0.103805 0.0391204 0.993828 
0.0394989 -0.0384605 0.998479 0.189925 -0.110619 0.975547 0.158733 0.0434044 0.986367 
0.0473186 -0.127908 0.990657 -0.0223773 -0.0344035 0.999157 -0.236248 0.0943326 0.967103 
0.043576 -0.0744688 0.996271 0.155432 -0.0564863 0.98623 0.00561295 -0.0549446 0.998474 
-0.184148 0.00519107 0.982885 -0.49975 0.0970988 0.86071 0.244169 -0.0298525 0.969273 
0.0644353 -0.0552449 0.996392 -0.0246617 -0.0752223 0.996862 0.155854 -0.138374 0.97804 
0.132289 -0.186345 0.973537 -0.0531334 -0.124188 0.990835 0.175002 -0.173357 0.969186 
-0.135225 -0.0125665 0.990735 -0.0382116 0.0260558 0.99893 0.144247 0.00894912 0.989501 
0.01583 -0.0167211 0.999735 -0.184284 -0.0149965 0.982759 -0.502382 -0.0347784 0.863946 
0.265403 -0.103129 0.958606 0.0593161 -0.0773148 0.995241 -0.0419958 -0.0472272 0.998001 
0.0392349 -0.0140653 0.999131 0.187702 -0.214382 0.958545 0.0974153 -0.0976293 0.990444 
0.0637775 -0.0898451 0.993912 -0.0442536 -0.0752117 0.996185 0.0261453 0.0703261 0.997181 
0.114001 0.00173983 0.993479 -0.0245253 -0.0379676 0.998978 -0.196489 -0.0454883 0.97945 
-0.518892 -0.120721 0.846273 0.36654 -0.247176 0.896968 0.135883 -0.135742 0.981382 
0.0412531 0.0220919 0.998904 0.0271288 0.135258 0.990439 0.00859757 0.0385917 0.999218 
0.0852206 -0.0295629 0.995923 0.172491 -0.0191976 0.984824 0.0659996 0.00420823 0.997811 
0.0152604 0.0347947 0.999278 0.0317898 -0.0650617 0.997375 -0.0320058 -0.168734 0.985142 
-0.259627 -0.227691 0.938483 -0.553258 -0.351388 0.755269 0.209756 -0.04663 0.976641 
0.0853778 0.0341298 0.995764 -0.0125157 0.0787341 0.996817 0.0586342 0.101011 0.993156 
0.118093 0.0173009 0.992852 0.020921 -0.0373252 0.999084 -0.0444252 -0.0939304 0.994587 
-0.0941698 -0.193154 0.976639 -0.172541 -0.355328 0.918679 -0.397029 -0.505691 0.765928 
0.284055 -0.253078 0.924805 0.148508 -0.166873 0.97473 0.0764821 -0.0827331 0.993633 
0.027511 -0.0717585 0.997043 0.0356987 -0.126904 0.991272 -0.0446302 -0.215042 0.975584 
-0.156315 -0.286259 0.945315 -0.258412 -0.492874 0.830842 0.219592 -0.407103 0.886593 
0.0929701 -0.383834 0.91871 0.0222631 -0.364351 0.930995 -0.0367523 -0.379017 0.924659 
-0.149167 -0.49211 0.857658 -0.025817 0.67125 0.740782 0.211156 0.71662 0.664732 
0.159091 0.441701 0.882944 0.191627 0.693813 0.694192 0.161079 0.490536 0.856404 
0.158542 0.666479 0.728471 0.122043 0.570865 0.811923 0.11435 0.660341 0.742209 
0.054267 0.635557 0.770144 0.0538069 0.653917 0.75465 0.0085315 0.650098 0.759802 
0.0141149 0.646115 0.76311 0.0140901 0.647425 0.761999 -0.0387261 0.669011 0.742243 
-0.110856 0.640866 0.759607 -0.117252 0.686244 0.717858 -0.227871 0.580358 0.781831 
-0.291969 0.737222 0.609309 -0.451921 0.537413 0.712008 0.440376 0.581095 0.684396 
0.227619 0.311334 0.922638 0.275321 0.490406 0.826862 0.176616 0.424619 0.887978 
0.186805 0.398085 0.898127 0.199416 0.456732 0.866966 -0.489808 0.501922 0.712855 
0.674287 0.386567 0.629209 0.246373 0.289227 0.925012 0.333546 0.192136 0.922947 
0.359634 0.343615 0.867521 -0.640384 0.346479 0.685463 -0.686793 0.305247 0.659651 
-0.761138 0.369502 0.533045 0.340798 0.182275 0.922297 0.597494 0.225536 0.769503 
-0.721713 0.241021 0.648875 0.379249 0.106841 0.919106 0.562912 0.135228 0.815379 
-0.749649 0.120985 0.650683 0.37992 -0.0348689 0.924362 0.524829 -0.0461162 0.849957 
-0.714998 -0.0286951 0.698537 -0.981765 0.0286647 0.187924 0.346171 -0.130039 0.929116 
0.615937 -0.254771 0.745462 -0.696802 -0.118167 0.707462 -0.967507 -0.119822 0.222651 
0.370879 -0.248498 0.894817 0.745386 -0.405427 0.529177 0.36892 -0.249823 0.895258 
0.34021 -0.210876 0.9164 -0.604971 -0.364266 0.70804 -0.579796 -0.414336 0.701542 
0.578736 -0.45459 0.677061 0.347309 -0.209387 0.914075 0.353206 -0.216077 0.910251 
-0.323811 -0.617389 0.716922 -0.493168 -0.539567 0.682388 -0.443029 -0.578215 0.685122 
-0.710499 -0.674554 0.200422 0.339666 -0.305527 0.889539 0.537401 -0.475423 0.696544 
0.338411 -0.354512 0.871665 -0.314779 -0.587177 0.745746 -0.327007 -0.61775 0.715158 
-0.322851 -0.581886 0.746442 -0.401047 -0.73823 0.542382 0.262923 -0.438237 0.859546 
0.462652 -0.586644 0.664682 0.226039 -0.458091 0.859686 0.11006 -0.521062 0.846393 
0.0302938 -0.53736 0.842809 -0.0713665 -0.547921 0.83348 -0.299307 -0.594189 0.746562 
-0.190257 -0.579102 0.792744 -0.333956 -0.623862 0.70659 0.289458 -0.911611 0.291857 
0.131505 -0.841073 0.524693 0.0242519 -0.804819 0.593025 -0.113636 -0.812702 0.571491 
-0.309882 -0.875864 0.369914 0.217105 0.749616 0.625253 0.168485 0.799219 0.576942 
0.114257 0.842279 0.526793 0.0546848 0.888994 0.454642 0.0319279 0.915695 0.400604 
0.0108169 0.925762 0.377951 -0.0463874 0.917661 0.394648 -0.119144 0.912694 0.390889 
-0.334195 0.895398 0.294237 0.454758 0.623879 0.635586 0.252878 0.750976 0.60999 
0.300917 0.743544 0.597153 0.318628 0.817201 0.48027 -0.531551 0.813568 0.235713 
-0.591922 0.781391 0.197625 0.50223 0.590782 0.63146 0.682142 0.424553 0.595346 
0.75365 0.642049 0.140661 -0.785647 0.606006 0.124559 -0.840765 0.531615 0.102468 
0.705279 0.393416 0.589751 -0.924404 0.37369 0.0763737 0.781315 0.255736 0.569338 
-0.960789 0.263294 0.0869506 0.881384 0.103605 0.460899 0.999152 0.0302707 -0.0279234 
-0.982179 0.157914 0.101915 -0.985684 0.0631356 0.156336 0.913795 -0.0811858 0.397979 
-0.984013 0.0304131 0.17548 -0.994013 0.0397798 0.101758 0.857489 -0.281968 0.430356 
-0.971463 -0.120719 0.204175 -0.969203 -0.145323 0.198812 -0.990284 -0.128832 0.0523419 
0.783686 -0.4234 0.454499 0.7713 -0.459222 0.440695 -0.902947 -0.400966 0.154641 
0.727902 -0.547617 0.412643 0.710572 -0.613273 0.344939 -0.534845 -0.838483 0.10434 
-0.72092 -0.676929 0.148464 -0.708034 -0.691381 0.143804 -0.70813 -0.70576 -0.0213366 
0.713869 -0.630626 0.304469 0.668689 -0.682377 0.295325 -0.517061 -0.837521 0.176654 
-0.51189 -0.852607 0.105021 -0.496014 -0.857367 0.137447 0.638844 -0.71965 0.271996 
0.526405 -0.809726 0.259309 -0.516485 -0.837719 0.177397 -0.457862 -0.855048 0.243422 
0.313484 -0.914807 0.25467 0.289653 -0.921993 0.256964 0.150506 -0.941588 0.301263 
0.023933 -0.9432 0.331362 -0.129629 -0.937518 0.322887 -0.338741 -0.888339 0.310012 
-0.315247 -0.89414 0.318015 0.345699 0.917485 0.196758 0.250333 0.947161 0.200548 
0.156489 0.9649 0.210903 0.0427757 0.983488 0.175846 -0.0161008 0.994958 0.0989891 
-0.0206261 0.998961 0.0406313 0.00428975 0.9997 0.0241311 -0.0319756 0.999475 0.00515835 
-0.180519 0.982919 -0.0358276 -0.452325 0.876807 -0.163132 0.753429 0.646498 0.119937 
0.468495 0.865821 0.175691 0.519976 0.835858 0.175974 -0.632207 0.73758 -0.237254 
-0.500092 0.551436 -0.667703 -0.675766 0.682603 -0.278199 0.758111 0.641152 0.119132 
0.765396 0.641577 0.0504694 -0.806366 0.478214 -0.347974 -0.574188 0.420255 -0.702634 
-0.803619 0.392204 -0.447629 0.913412 0.397918 0.0856701 -0.802081 0.369842 -0.468917 
-0.786573 0.362078 -0.500201 0.984383 0.170157 0.0451188 0.998545 0.0402298 -0.0359088 
-0.880848 0.301842 -0.364689 -0.678274 0.346014 -0.648243 0.998671 0.0279275 -0.0433133 
0.997361 -0.0424704 -0.0588885 0.998257 0.0267225 -0.0526117 -0.92206 0.240178 -0.303513 
0.991519 -0.107557 -0.0729523 -0.964142 0.0815678 -0.25254 0.955212 -0.284009 -0.0831215 
-0.956304 -0.138954 -0.257243 0.883877 -0.463941 -0.0593294 0.824444 -0.56063 -0.0773743 
-0.856114 -0.429777 -0.286987 -0.665109 -0.664365 -0.340954 0.780184 -0.61899 -0.0903529 
0.707151 -0.698388 -0.110414 -0.61735 -0.703173 -0.352742 -0.493374 -0.785949 -0.372647 
-0.429096 -0.67808 -0.596729 0.691192 -0.711341 -0.12747 0.640264 -0.746256 -0.182109 
-0.551201 -0.777377 -0.303088 -0.430298 -0.504627 -0.748462 -0.493326 -0.782707 -0.379473 
-0.512228 -0.775617 -0.368835 -0.479928 -0.738645 -0.473364 0.60729 -0.769803 -0.196475 
0.54036 -0.815522 -0.207207 -0.556376 -0.780888 -0.284007 -0.544625 -0.810932 -0.213948 
-0.495437 -0.57228 -0.653482 0.375531 -0.908461 -0.183508 0.35882 -0.91613 -0.178758 
0.362724 -0.906951 -0.214175 0.191084 -0.971269 -0.141855 0.202563 -0.858832 -0.470506 
0.0577375 -0.99141 -0.117355 -0.121662 -0.985339 -0.119603 -0.424568 -0.89282 -0.150381 
-0.346021 -0.929168 -0.130063 -0.366347 -0.858189 -0.359586 0.387716 0.887824 -0.247882 
0.269878 0.932799 -0.238855 0.135599 0.963722 -0.229898 -0.00970737 0.9614 -0.274984 
-0.0957095 0.927978 -0.360134 -0.0604034 0.899588 -0.432543 -0.0309035 0.901201 -0.432299 
-0.116086 0.843668 -0.524164 -0.29061 0.747885 -0.596836 0.490717 0.8239 -0.283523 
0.552143 0.77298 -0.312473 0.368318 0.739063 -0.564028 0.192135 0.601054 -0.77577 
-0.113476 0.464768 -0.878131 -0.0681654 0.467091 -0.881578 -0.105217 0.511238 -0.852974 
-0.478864 0.533188 -0.697424 -0.30903 0.509005 -0.803377 -0.492469 0.501638 -0.71122 
0.730257 0.584412 -0.353817 0.763977 0.531263 -0.366194 0.430138 0.406733 -0.805946 
-0.135898 0.128206 -0.982393 -0.201558 0.12017 -0.972077 -0.483344 0.362289 -0.796947 
-0.451499 0.2749 -0.848869 -0.527119 0.297632 -0.795965 0.855623 0.330047 -0.398721 
0.666126 0.315033 -0.67604 -0.104526 -0.0942774 -0.990043 -0.206082 -0.0119835 -0.978461 
-0.298514 0.081483 -0.95092 -0.588052 0.239279 -0.772619 -0.526929 0.238596 -0.815731 
0.875016 0.133418 -0.465346 0.609547 0.0790526 -0.788798 -0.181508 0.0408911 -0.982539 
-0.101834 -0.178824 -0.978597 -0.0462654 -0.113036 -0.992513 -0.0453116 0.0424876 -0.998069 
-0.163322 0.166737 -0.972381 -0.518316 0.305213 -0.79887 -0.381433 0.24752 -0.890642 
-0.601331 0.292875 -0.743388 0.875298 -0.0245603 -0.482961 0.618769 -0.0127302 -0.785469 
-0.196216 0.0787925 -0.97739 0.114414 0.131645 -0.984672 0.0705781 0.215443 -0.973963 
-0.0965675 0.242055 -0.965445 -0.319969 0.26064 -0.910871 -0.642554 0.257477 -0.721685 
-0.594535 0.26855 -0.757898 0.850106 -0.133044 -0.509529 0.631235 -0.119959 -0.766259 
-0.0711799 -0.152684 -0.985708 0.0358327 0.165382 -0.985578 0.0811679 0.174548 -0.981297 
-0.314181 0.131183 -0.940256 -0.757105 0.0941909 -0.646468 -0.621283 0.125447 -0.773479 
0.815271 -0.263424 -0.515695 0.703348 -0.259564 -0.661762 -0.243756 -0.122356 -0.962087 
-0.0036034 -0.178824 -0.983874 0.138786 -0.148593 -0.979111 -0.324699 -0.168034 -0.930771 
-0.757931 -0.148442 -0.635221 -0.606253 -0.144871 -0.781965 0.759772 -0.423229 -0.493582 
0.757743 -0.426545 -0.493847 0.755338 -0.423172 -0.50039 0.460759 -0.345257 -0.817618 
-0.336701 0.0235645 -0.941317 -0.0827983 0.0486092 -0.99538 0.120851 -0.103014 -0.987311 
0.0800314 -0.228089 -0.970345 0.0155905 -0.33599 -0.941737 -0.131496 -0.371476 -0.919083 
-0.400797 -0.616262 -0.677925 -0.346048 -0.429448 -0.834161 -0.602536 -0.48359 -0.634895 
-0.602402 -0.483728 -0.634917 -0.602382 -0.4836 -0.635032 0.654467 -0.571335 -0.495227 
0.623659 -0.604286 -0.495872 0.589222 -0.540003 -0.601011 0.350945 -0.381747 -0.855048 
-0.142152 0.122652 -0.982217 -0.097483 -0.00708707 -0.995212 -0.128144 -0.199869 -0.971407 
-0.411351 -0.490562 -0.768205 -0.154654 -0.392102 -0.906828 -0.351026 -0.635457 -0.687732 
-0.31705 -0.616157 -0.720992 -0.24477 -0.585513 -0.772828 0.567796 -0.641991 -0.515223 
0.555156 -0.647953 -0.521497 0.53011 -0.610091 -0.588873 0.354546 -0.452119 -0.818465 
-0.183555 -0.0560042 -0.981413 -0.201437 -0.138211 -0.969701 -0.422316 -0.48286 -0.767135 
-0.493304 -0.567521 -0.65922 -0.33139 -0.257347 -0.907719 0.490371 -0.686771 -0.536546 
0.488668 -0.68773 -0.536872 0.487324 -0.684701 -0.54194 0.351589 -0.756464 -0.551496 
0.297805 -0.613751 -0.731179 0.198622 -0.824512 -0.529839 0.0871542 -0.474336 -0.876019 
-0.0655338 -0.38524 -0.920487 -0.182855 -0.330471 -0.925934 -0.492738 -0.569077 -0.658302 
-0.358243 -0.653213 -0.667064 -0.305756 -0.408013 -0.860255 0.143681 -0.832231 -0.535488 
0.0406539 -0.830199 -0.555983 0.0342269 -0.800396 -0.598494 -0.172999 -0.785784 -0.593814 
-0.146031 -0.794075 -0.590017 -0.147364 -0.782726 -0.604668 0.0656179 0.529979 -0.845468 
-0.0569874 0.488205 -0.870866 -0.103581 0.428959 -0.897366 0.251234 0.458988 -0.852181 
0.131007 0.521945 -0.842859 0.162271 0.500897 -0.850159 0.0556355 0.450617 -0.890982 
-0.0562673 0.458795 -0.886759 -0.103958 0.424415 -0.89948 -0.103801 0.424868 -0.899285 
-0.0745789 0.0979286 -0.992395 -0.0486446 0.129747 -0.990353 0.412428 0.396772 -0.820046 
0.417075 0.382931 -0.824264 0.196906 0.307938 -0.930807 0.064373 0.220206 -0.973327 
0.00761977 0.172614 -0.98496 -0.0854888 0.162616 -0.982979 -0.182023 0.103623 -0.977819 
-0.072483 0.0820883 -0.993986 -0.0598146 0.114685 -0.9916 -0.0469427 0.113251 -0.992457 
0.408855 0.216794 -0.886475 0.309063 0.164383 -0.936728 0.129937 0.144776 -0.980896 
0.0577216 0.0674952 -0.996049 -0.0135631 0.0231602 -0.99964 -0.13246 -0.0223058 -0.990937 
-0.203165 -0.00293907 -0.97914 -0.101673 -0.0342893 -0.994227 -0.0935642 -0.0420778 -0.994724 
-0.0365457 -0.106191 -0.993674 -0.0339988 -0.107798 -0.993591 -0.0330116 -0.106737 -0.993739 
0.521578 0.0859857 -0.848859 0.289704 0.0835056 -0.953467 0.112358 0.0383701 -0.992927 
-0.0602854 0.00650097 -0.99816 -0.084424 -0.0661599 -0.994231 -0.117171 -0.0381532 -0.992379 
-0.186737 0.0377927 -0.981683 -0.195567 0.0235617 -0.980407 -0.229875 0.0230442 -0.972947 
0.543356 -0.00996636 -0.839443 0.250057 0.00663593 -0.968208 0.0570039 -0.0434141 -0.99743 
-0.0478506 -0.0128182 -0.998772 -0.0574831 -0.0154789 -0.998226 -0.0493733 0.0328087 -0.998241 
-0.124123 -0.0104975 -0.992211 -0.270585 0.0192546 -0.962503 -0.177464 -0.0765742 -0.981144 
-0.279397 0.00149502 -0.960175 0.0704529 0.179716 -0.981192 -0.0981551 0.192585 -0.976359 
0.520638 -0.111967 -0.846404 0.26515 -0.086568 -0.960313 0.0826351 -0.0198875 -0.996381 
-0.0307186 -0.00420284 -0.999519 -0.0393504 0.00599155 -0.999207 -0.103914 -0.0375432 -0.993877 
-0.145025 -0.142111 -0.979169 -0.243708 -0.122567 -0.962073 -0.254609 -0.132997 -0.957855 
0.0798331 0.17142 -0.981958 0.0829646 0.140985 -0.986529 0.0710585 0.141044 -0.98745 
-0.24252 0.135349 -0.960658 -0.0986064 0.140784 -0.985118 0.445644 -0.224402 -0.866628 
0.401897 -0.273375 -0.873925 0.342601 -0.187208 -0.92064 0.131128 -0.0957611 -0.98673 
-0.021818 -0.0409408 -0.998923 -0.090499 0.00406422 -0.995888 -0.243192 -0.12209 -0.962264 
-0.169661 -0.0606031 -0.983637 0.12237 -0.123234 -0.984804 0.0922174 -0.124464 -0.987929 
0.0951691 -0.0654015 -0.99331 0.0279745 -0.244595 -0.969222 0.0400561 -0.13143 -0.990516 
-0.262132 -0.153645 -0.952722 -0.118128 -0.265792 -0.956766 -0.102115 -0.121463 -0.987329 
0.36925 -0.300483 -0.879411 0.316938 -0.340653 -0.885159 0.23005 -0.237219 -0.943824 
0.0745432 -0.103586 -0.991823 -0.0574702 -0.00883803 -0.998308 -0.308578 0.0127269 -0.951114 
-0.222971 0.00889215 -0.974785 -0.253041 0.0603443 -0.965572 0.307101 -0.341945 -0.888123 
0.283184 -0.362036 -0.888108 0.202015 -0.250179 -0.94689 0.0228371 -0.11441 -0.993171 
-0.154996 -0.0394625 -0.987127 -0.219621 0.0783838 -0.972431 -0.22998 0.0711352 -0.970592 
0.246937 -0.37971 -0.891539 0.188122 -0.395767 -0.898876 0.15032 -0.316365 -0.936652 
0.0223777 -0.340931 -0.939822 -0.0492472 -0.203435 -0.977849 -0.167107 -0.0831928 -0.982423 
-0.140271 -0.157536 -0.9775 -0.157663 -0.0918378 -0.983213 
