# vtk DataFile Version 4.2
vtk output
ASCII
DATASET POLYDATA
POINTS 544 float
34.0006 -6.62982 -22.0664 1.91514 -38.7152 -14.248 9.9365 -38.7152 -18.5086 
17.9579 -38.7152 -19.3729 25.9792 -38.7152 -18.8995 34.0006 -38.7152 -15.2492 
1.91514 -30.6939 -18.076 9.9365 -30.6939 -21.1655 17.9579 -30.6939 -21.5446 
25.9792 -30.6939 -21.5311 34.0006 -30.6939 -19.8449 42.0219 -30.6939 -17.0471 
-30.1703 -22.6725 -15.4427 -22.1489 -22.6725 -15.5289 -14.1276 -22.6725 -14.384 
-6.10622 -22.6725 -15.4611 1.91514 -22.6725 -19.2276 9.9365 -22.6725 -21.6703 
17.9579 -22.6725 -21.443 25.9792 -22.6725 -22.0411 34.0006 -22.6725 -21.8252 
42.0219 -22.6725 -19.8275 50.0433 -22.6725 -16.2555 -38.1916 -14.6512 -16.5439 
-30.1703 -14.6512 -17.2435 -22.1489 -14.6512 -17.014 -14.1276 -14.6512 -16.0301 
-6.10622 -14.6512 -17.7244 1.91514 -14.6512 -19.8294 9.9365 -14.6512 -19.9262 
17.9579 -14.6512 -20.3668 25.9792 -14.6512 -21.3437 34.0006 -6.95353 -22.056 
34.0006 -14.6512 -21.8074 42.0219 -14.6512 -21.255 50.0433 -14.6512 -18.8693 
-46.213 -6.62982 -15.1585 -38.1916 -6.62982 -17.1307 -30.1703 -6.62982 -17.6359 
-22.1489 -6.62982 -17.1536 -14.1276 -6.62982 -17.3589 -6.10622 -6.62982 -19.4901 
1.91514 -6.62982 -19.0656 9.9365 -6.62982 -20.1602 17.9579 -6.62982 -20.1523 
33.8854 -6.62982 -22.056 25.9792 -6.62982 -21.3369 41.7438 -6.62982 -22.056 
34.0006 -6.37594 -22.056 42.0219 -6.62982 -22.0556 50.0433 -6.62982 -20.9567 
58.0646 -6.62982 -15.6101 -46.213 1.39154 -15.082 -38.1916 1.39154 -16.7411 
-30.1703 1.39154 -16.9218 -22.1489 1.39154 -16.4123 -14.1276 1.39154 -17.7224 
-6.10622 1.39154 -19.2932 1.91514 1.39154 -17.9853 9.9365 1.39154 -21.5844 
17.9579 1.39154 -19.8197 25.9792 1.39154 -20.8856 34.0006 1.39154 -21.7358 
42.0219 1.39154 -21.7868 50.0433 1.39154 -20.4275 58.0646 1.39154 -15.3809 
-46.213 9.4129 -14.6781 -38.1916 9.4129 -16.1649 -30.1703 9.4129 -16.4759 
-22.1489 9.4129 -16.284 -14.1276 9.4129 -17.1553 -6.10622 9.4129 -19.4822 
1.91514 9.4129 -19.3294 9.9365 9.4129 -18.647 17.9579 9.4129 -18.4707 
25.9792 9.4129 -19.7713 34.0006 9.4129 -20.8155 42.0219 9.4129 -20.5965 
50.0433 9.4129 -18.8881 -38.1916 17.4343 -14.3483 -30.1703 17.4343 -15.6704 
-22.1489 17.4343 -16.2724 -14.1276 17.4343 -16.76 -6.10622 17.4343 -17.6395 
1.91514 17.4343 -19.0562 9.9365 17.4343 -19.0282 17.9579 17.4343 -18.9348 
25.9792 17.4343 -19.472 34.0006 17.4343 -20.0173 42.0219 17.4343 -19.8125 
50.0433 17.4343 -16.6103 -30.1703 25.4556 -14.8729 -22.1489 25.4556 -16.2839 
-14.1276 25.4556 -17.11 -6.10622 25.4556 -18.2624 1.91514 25.4556 -19.31 
9.9365 25.4556 -19.3751 17.9579 25.4556 -19.0524 25.9792 25.4556 -18.9009 
34.0006 25.4556 -17.9671 42.0219 25.4556 -16.6011 -22.1489 33.477 -14.7455 
-14.1276 33.477 -16.2 -6.10622 33.477 -17.646 1.91514 33.477 -18.2452 
9.9365 33.477 -18.1488 17.9579 33.477 -17.0601 25.9792 33.477 -15.9234 
34.0006 33.477 -14.2821 1.91514 41.4983 -14.4991 1.91514 -39.0298 -14.0346 
9.9365 -43.5335 -14.0346 9.9365 -46.7366 -7.05491 17.9579 -44.5496 -14.0346 
17.9579 -46.7366 -6.22462 25.9792 -42.929 -14.0346 34.0006 -39.8495 -14.0346 
-30.1703 -38.7152 -6.7433 -22.1489 -38.7152 -7.87322 -14.1276 -38.7152 -8.93484 
1.45634 -38.7152 -14.0346 -6.10622 -38.7152 -10.4962 35.8988 -38.7152 -14.0346 
42.0219 -34.4144 -14.0346 -38.1916 -30.6939 -9.81836 -30.1703 -27.3634 -14.0346 
-30.1703 -30.6939 -12.7946 -22.1489 -26.9863 -14.0346 -22.1489 -30.6939 -12.7603 
-14.1276 -24.3422 -14.0346 -14.1276 -30.6939 -12.6569 -5.4218 -30.6939 -14.0346 
-6.10622 -29.0771 -14.0346 -6.10622 -30.6939 -13.7092 46.1932 -30.6939 -14.0346 
50.0433 -26.2186 -14.0346 50.0433 -30.6939 -6.02554 -46.213 -22.6725 -9.96298 
-37.0854 -22.6725 -14.0346 -38.1916 -21.9764 -14.0346 -38.1916 -22.6725 -13.7823 
52.5867 -22.6725 -14.0346 -54.2344 -14.6512 -7.9933 -45.8919 -14.6512 -14.0346 
-46.213 -13.9773 -14.0346 -46.213 -14.6512 -13.9155 56.4365 -14.6512 -14.0346 
58.0646 -11.0327 -14.0346 58.0646 -14.6512 -10.7005 -48.6234 -6.62982 -14.0346 
-54.2344 -6.62982 -10.9004 59.6183 -6.62982 -14.0346 -48.6913 1.39154 -14.0346 
-54.2344 1.39154 -11.3866 59.4394 1.39154 -14.0346 58.0646 8.12554 -14.0346 
-47.5413 9.4129 -14.0346 -54.2344 9.4129 -9.90194 -46.213 11.4348 -14.0346 
57.6856 9.4129 -14.0346 58.0646 9.4129 -13.5984 -39.2408 17.4343 -14.0346 
-46.213 17.4343 -11.8965 -38.1916 18.8673 -14.0346 53.6551 17.4343 -14.0346 
50.0433 21.949 -14.0346 58.0646 17.4343 -8.22295 -46.213 25.4556 -7.38653 
-33.1036 25.4556 -14.0346 -38.1916 25.4556 -12.3411 -30.1703 28.8721 -14.0346 
46.6297 25.4556 -14.0346 42.0219 29.1245 -14.0346 50.0433 25.4556 -10.5735 
-38.1916 33.477 -7.20706 -25.1792 33.477 -14.0346 -30.1703 33.477 -12.6778 
-22.1489 34.8558 -14.0346 -14.1276 39.6915 -14.0346 -6.10622 41.4719 -14.0346 
9.9365 40.8097 -14.0346 17.9579 38.3798 -14.0346 25.9792 36.1151 -14.0346 
34.5509 33.477 -14.0346 34.0006 33.7725 -14.0346 42.0219 33.477 -8.44845 
-22.1489 41.4983 -9.11205 -14.1276 41.4983 -13.0257 -5.86179 41.4983 -14.0346 
-6.10622 41.4983 -14.0181 5.98179 41.4983 -14.0346 1.91514 41.9724 -14.0346 
9.9365 41.4983 -13.3933 17.9579 41.4983 -10.524 25.9792 41.4983 -6.65126 
9.9365 -47.0937 -6.01324 17.9579 -46.784 -6.01324 -30.1703 -39.3474 -6.01324 
-22.1489 -40.7847 -6.01324 -14.1276 -41.9406 -6.01324 -6.10622 -42.8688 -6.01324 
8.30204 -46.7366 -6.01324 1.91514 -45.1811 -6.01324 9.9365 -46.7366 -4.07159 
18.2084 -46.7366 -6.01324 17.9579 -46.7366 -5.85153 25.9792 -45.0723 -6.01324 
34.0006 -42.1841 -6.01324 -32.1366 -38.7152 -6.01324 -38.1916 -36.1761 -6.01324 
-38.1916 -38.7152 -2.10684 40.0704 -38.7152 -6.01324 42.0219 -37.3712 -6.01324 
50.0433 -30.6989 -6.01324 -43.9217 -30.6939 -6.01324 -46.213 -28.3389 -6.01324 
-46.213 -30.6939 -3.09953 50.0481 -30.6939 -6.01324 50.0433 -30.6939 -6.0035 
-51.4571 -22.6725 -6.01324 -54.2344 -18.1068 -6.01324 -54.2344 -22.6725 -0.814149 
55.8707 -22.6725 -6.01324 58.0646 -18.2755 -6.01324 -55.8032 -14.6512 -6.01324 
59.5835 -14.6512 -6.01324 58.0646 -14.6512 -1.85303 -59.3591 -6.62982 -6.01324 
62.444 -6.62982 -6.01324 -60.829 1.39154 -6.01324 -62.2557 1.39154 -1.98792 
62.7385 1.39154 -6.01324 -58.3866 9.4129 -6.01324 -54.2344 16.399 -6.01324 
61.8349 9.4129 -6.01324 -53.5988 17.4343 -6.01324 -54.2344 17.4343 -4.80459 
59.1921 17.4343 -6.01324 58.0646 19.1277 -6.01324 58.0646 17.4343 -1.33003 
-47.4285 25.4556 -6.01324 -46.213 26.8855 -6.01324 53.0197 25.4556 -6.01324 
50.0433 28.5428 -6.01324 -39.7466 33.477 -6.01324 -38.1916 34.7488 -6.01324 
-30.1703 40.1685 -6.01324 34.0006 39.1081 -6.01324 44.019 33.477 -6.01324 
42.0219 34.8991 -6.01324 -27.3911 41.4983 -6.01324 -30.1703 41.4983 -1.27739 
-22.1489 43.7015 -6.01324 -14.1276 46.0235 -6.01324 -6.10622 47.2247 -6.01324 
1.91514 47.0342 -6.01324 9.9365 45.7336 -6.01324 17.9579 43.9873 -6.01324 
27.0395 41.4983 -6.01324 25.9792 41.8383 -6.01324 -38.1916 -40.3831 2.00812 
-30.1703 -43.5424 2.00812 -22.1489 -44.2981 2.00812 -14.1276 -44.0603 2.00812 
-6.10622 -44.2949 2.00812 1.91514 -45.3765 2.00812 9.9365 -45.4865 2.00812 
17.9579 -44.2085 2.00812 25.9792 -41.8406 2.00812 34.0006 -38.7217 2.00812 
-40.5791 -38.7152 2.00812 -46.213 -33.7295 2.00812 17.9579 -38.7152 8.76327 
25.9792 -38.7152 6.11291 34.0108 -38.7152 2.00812 34.0006 -38.7152 2.01582 
42.0219 -33.5258 2.00812 -48.887 -30.6939 2.00812 -54.2344 -23.9945 2.00812 
34.0006 -30.6939 9.59846 45.3273 -30.6939 2.00812 42.0219 -30.6939 4.9762 
50.0433 -25.2555 2.00812 -55.1763 -22.6725 2.00812 42.0219 -22.6725 9.70406 
52.3579 -22.6725 2.00812 50.0433 -22.6725 4.01785 -59.2714 -14.6512 2.00812 
56.2773 -14.6512 2.00812 50.0433 -14.6512 8.45436 58.0646 -10.5124 2.00812 
-62.2197 -6.62982 2.00812 -62.2557 -6.34263 2.00812 59.7641 -6.62982 2.00812 
58.0646 -6.62982 3.87552 -63.2401 1.39154 2.00812 -62.2557 5.79464 2.00812 
-62.2557 1.39154 6.84639 60.7685 1.39154 2.00812 58.0646 1.39154 5.12026 
-61.4468 9.4129 2.00812 59.9351 9.4129 2.00812 58.0646 14.8822 2.00812 
58.0646 9.4129 4.66155 -57.2358 17.4343 2.00812 -54.2344 21.4989 2.00812 
57.1206 17.4343 2.00812 -50.9803 25.4556 2.00812 -46.213 30.5408 2.00812 
51.6673 25.4556 2.00812 50.0433 27.2057 2.00812 50.0433 25.4556 4.32316 
-43.0586 33.477 2.00812 -38.1916 37.3871 2.00812 34.0006 38.9364 2.00812 
43.0191 33.477 2.00812 42.0219 34.2296 2.00812 42.0219 33.477 3.33498 
-31.5304 41.4983 2.00812 -30.1703 42.3214 2.00812 -30.1703 41.4983 5.11305 
-22.1489 45.0176 2.00812 -14.1276 46.6741 2.00812 -6.10622 47.4497 2.00812 
1.91514 47.3016 2.00812 9.9365 46.1292 2.00812 17.9579 44.3401 2.00812 
17.9579 41.4983 8.9747 27.524 41.4983 2.00812 25.9792 42.0566 2.00812 
25.9792 41.4983 3.38412 -38.1916 -39.2244 10.0295 -30.1703 -41.4109 10.0295 
-22.1489 -41.5806 10.0295 -14.1276 -40.4581 10.0295 -6.10622 -39.8262 10.0295 
1.91514 -39.4376 10.0295 9.9365 -39.1067 10.0295 -38.9551 -38.7152 10.0295 
-46.213 -32.5226 10.0295 -38.1916 -38.7152 10.7747 -30.1703 -38.7152 12.9884 
-22.1489 -38.7152 13.0576 -14.1276 -38.7152 11.9864 -6.10622 -38.7152 11.1084 
1.91514 -38.7152 10.6195 11.7442 -38.7152 10.0295 9.9365 -38.7152 10.3489 
17.9579 -36.9245 10.0295 25.9792 -34.2262 10.0295 -47.8657 -30.6939 10.0295 
-54.2344 -22.6915 10.0295 -46.213 -30.6939 12.2237 -38.1916 -30.6939 17.1417 
-14.1276 -30.6939 17.1811 -6.10622 -30.6939 15.7808 1.91514 -30.6939 15.246 
9.9365 -30.6939 14.5964 17.9579 -30.6939 13.7055 32.902 -30.6939 10.0295 
25.9792 -30.6939 12.2282 34.0006 -29.9571 10.0295 -54.2477 -22.6725 10.0295 
-54.2344 -22.6725 10.0506 -46.213 -22.6725 17.4549 1.91514 -22.6725 17.2348 
9.9365 -22.6725 16.5836 17.9579 -22.6725 16.0074 25.9792 -22.6725 15.1471 
41.3948 -22.6725 10.0295 34.0006 -22.6725 13.3254 42.0219 -21.8626 10.0295 
-58.0695 -14.6512 10.0295 -54.2344 -14.6512 15.8011 9.9365 -14.6512 17.3979 
17.9579 -14.6512 17.5103 25.9792 -14.6512 16.7503 34.0006 -14.6512 15.3827 
47.4324 -14.6512 10.0295 42.0219 -14.6512 12.8241 50.0433 -10.4475 10.0295 
-60.6914 -6.62982 10.0295 -54.2344 -6.62982 17.4145 25.9792 -6.62982 17.8848 
[...]
POINT_DATA 544
SCALARS ImageScalars float
LOOKUP_TABLE default
0 0 0 0 0 0 0 0 0 
0 0 0 0 0 0 0 0 0 
0 0 0 0 0 0 0 0 0 
0 0 0 0 0 0 0 0 0 
0 0 0 0 0 0 0 0 0 
0 0 0 0 0 0 0 0 0 
0 0 0 0 0 0 0 0 0 
0 0 0 0 0 0 0 0 0 
0 0 0 0 0 0 0 0 0 
0 0 0 0 0 0 0 0 0 
0 0 0 0 0 0 0 0 0 
0 0 0 0 0 0 0 0 0 
0 0 0 0 0 0 0 0 0 
0 0 0 0 0 0 0 0 0 
0 0 0 0 0 0 0 0 0 
0 0 0 0 0 0 0 0 0 
0 0 0 0 0 0 0 0 0 
0 0 0 0 0 0 0 0 0 
0 0 0 0 0 0 0 0 0 
0 0 0 0 0 0 0 0 0 
0 0 0 0 0 0 0 0 0 
0 0 0 0 0 0 0 0 0 
0 0 0 0 0 0 0 0 0 
0 0 0 0 0 0 0 0 0 
0 0 0 0 0 0 0 0 0 
0 0 0 0 0 0 0 0 0 
0 0 0 0 0 0 0 0 0 
0 0 0 0 0 0 0 0 0 
0 0 0 0 0 0 0 0 0 
0 0 0 0 0 0 0 0 0 
0 0 0 0 0 0 0 0 0 
0 0 0 0 0 0 0 0 0 
0 0 0 0 0 0 0 0 0 
0 0 0 0 0 0 0 0 0 
0 0 0 0 0 0 0 0 0 
0 0 0 0 0 0 0 0 0 
0 0 0 0 0 0 0 0 0 
0 0 0 0 0 0 0 0 0 
0 0 0 0 0 0 0 0 0 
0 0 0 0 0 0 0 0 0 
0 0 0 0 0 0 0 0 0 
0 0 0 0 0 0 0 0 0 
0 0 0 0 0 0 0 0 0 
0 0 0 0 0 0 0 0 0 
0 0 0 0 0 0 0 0 0 
0 0 0 0 0 0 0 0 0 
0 0 0 0 0 0 0 0 0 
0 0 0 0 0 0 0 0 0 
0 0 0 0 0 0 0 0 0 
0 0 0 0 0 0 0 0 0 
0 0 0 0 0 0 0 0 0 
0 0 0 0 0 0 0 0 0 
0 0 0 0 0 0 0 0 0 
0 0 0 0 0 0 0 0 0 
0 0 0 0 0 0 0 0 0 
0 0 0 0 0 0 0 0 0 
0 0 0 0 0 0 0 0 0 
0 0 0 0 0 0 0 0 0 
0 0 0 0 0 0 0 0 0 
0 0 0 0 0 0 0 0 0 
0 0 0 0 
NORMALS Normals float
0.0446341 -0.0044309 0.998994 0.413435 0.480816 0.773232 0.258118 0.494671 0.829865 
0.0242794 0.488636 0.87215 -0.216136 0.576811 0.787765 -0.409791 0.695714 0.589961 
0.420687 0.239792 0.874941 0.182623 0.161046 0.969904 0.0222056 0.112584 0.993394 
-0.109028 0.15318 0.982165 -0.249724 0.337916 0.907442 -0.444908 0.512522 0.734424 
0.100096 0.259352 0.960582 -0.0645201 0.261549 0.963031 -0.0119259 0.199401 0.979845 
0.287939 0.213559 0.933533 0.349648 0.0988359 0.931653 0.128129 -0.0815753 0.988397 
0.0244043 -0.0745349 0.99692 0.0249557 -0.0143486 0.999586 -0.139995 0.123235 0.982453 
-0.303173 0.231745 0.924327 -0.584463 0.379909 0.716988 0.198671 0.195949 0.960278 
0.0267173 0.137302 0.990169 -0.0720577 0.0989311 0.992482 0.0231906 0.185942 0.982287 
0.251348 0.250017 0.935048 0.110728 -0.0112924 0.993787 0.0340117 -0.0872612 0.995605 
0.0899658 -0.0818368 0.992577 0.0892783 -0.0432423 0.995068 0.0426863 -0.00368628 0.999082 
-0.00407495 0.0151224 0.999877 -0.160813 0.136951 0.977437 -0.414832 0.268786 0.869292 
0.331292 0.0674409 0.941115 0.144823 0.0096097 0.989411 0.00118006 -0.0207405 0.999784 
-0.0173636 -0.0374417 0.999148 0.146267 0.0988638 0.984293 0.108249 0.0774063 0.991106 
0.0393785 -0.107013 0.993477 0.0672467 0.0933746 0.993357 0.0735579 -0.0334915 0.996728 
0.0456662 -0.00477327 0.998945 0.11776 -0.0282753 0.992639 -0.0550459 0.030736 0.998011 
0.0449835 -0.00674017 0.998965 -0.0587066 0.0320244 0.997761 -0.335294 0.0803897 0.938678 
-0.726889 0.118346 0.676481 0.293389 -0.0299482 0.955524 0.106605 -0.0567925 0.992678 
-0.020643 -0.0724427 0.997159 0.0390706 -0.0545006 0.997749 0.186391 -0.00745494 0.982447 
0.0216426 -0.00193681 0.999764 0.139445 0.0242757 0.989932 0.0810121 -0.102187 0.991461 
-0.0261071 -0.105484 0.994078 0.116509 -0.0964987 0.988491 0.0556833 -0.0773914 0.995445 
-0.0717643 -0.0894552 0.993402 -0.335313 -0.109599 0.93571 -0.700078 -0.0806675 0.709495 
0.327722 -0.178567 0.927746 0.116717 -0.14515 0.982501 0.00623254 -0.0779035 0.996941 
0.0327536 -0.00869073 0.999426 0.202722 -0.0611305 0.977326 0.118084 -0.107884 0.987126 
-0.0495157 0.050527 0.997494 -0.0555617 -0.134349 0.989375 0.0700239 -0.0523868 0.996169 
0.14524 -0.0877683 0.985496 0.0513343 -0.104906 0.993156 -0.106457 -0.115851 0.987545 
-0.32363 -0.227936 0.918319 0.216371 -0.207028 0.954109 0.111422 -0.0935151 0.989363 
0.0674998 -3.40782e-05 0.997719 0.0832754 0.00127445 0.996526 0.144316 -0.0615994 0.987612 
0.0835169 -0.00124561 0.996506 -0.00756384 0.0444958 0.998981 0.0274723 0.0358147 0.998981 
0.0660749 -0.0519234 0.996463 0.0237854 -0.183495 0.982733 -0.193064 -0.238643 0.951723 
-0.461106 -0.346027 0.817096 0.228512 -0.171198 0.95837 0.134405 -0.0861324 0.987176 
0.125364 -0.0326751 0.991573 0.133799 0.00145632 0.991007 0.07237 -0.0509782 0.996074 
-0.0155817 -0.0466275 0.998791 -0.0293955 -0.107707 0.993748 -0.0706891 -0.211551 0.974807 
-0.13378 -0.315918 0.939308 -0.307897 -0.457437 0.834237 0.20071 -0.330672 0.922156 
0.167534 -0.216929 0.961704 0.124902 -0.215171 0.968556 0.0295137 -0.244665 0.969158 
-0.0699595 -0.303295 0.950325 -0.128928 -0.387359 0.91287 -0.156261 -0.491412 0.856794 
-0.291649 -0.60934 0.737323 -0.0226326 -0.656051 0.754377 0.411725 0.494371 0.765559 
0.205675 0.781778 0.58866 0.0959616 0.98707 0.128392 -0.0361253 0.848022 0.528729 
-0.111366 0.99353 -0.0222501 -0.265821 0.825775 0.497428 -0.410668 0.752677 0.514615 
0.197982 0.731559 0.652399 0.105782 0.679827 0.725703 0.136041 0.606003 0.783743 
0.407846 0.482302 0.775272 0.283856 0.606929 0.742336 -0.435844 0.73452 0.520116 
-0.526094 0.657787 0.539019 0.391308 0.500779 0.772074 0.123097 0.329397 0.936133 
0.150203 0.404316 0.902202 -0.0398507 0.340172 0.939518 -0.00746782 0.404632 0.914449 
0.000916723 0.221311 0.975203 0.057788 0.314221 0.94759 0.309926 0.246306 0.918302 
0.29363 0.235987 0.926332 0.296336 0.248039 0.922313 -0.608341 0.595707 0.524457 
-0.662254 0.512452 0.546637 -0.730866 0.681383 -0.0393996 0.490601 0.457884 0.741386 
0.251035 0.341813 0.905618 0.268034 0.342455 0.90049 0.27648 0.356435 0.892476 
-0.69542 0.430629 0.575283 0.72033 0.341351 0.603825 0.366461 0.255594 0.894639 
0.370698 0.241249 0.896873 0.37564 0.259045 0.889826 -0.756082 0.347899 0.554353 
-0.787793 0.26724 0.554947 -0.888201 0.371876 0.269827 0.402035 0.0736636 0.912656 
0.611349 0.139295 0.779005 -0.786933 0.147936 0.599042 0.361048 -0.0338134 0.931934 
0.550935 -0.0531191 0.832856 -0.758203 -0.0926665 0.6454 -0.73474 -0.249086 0.630962 
0.369219 -0.183679 0.91101 0.60703 -0.253186 0.753267 0.336324 -0.206834 0.918752 
-0.720534 -0.276682 0.635829 -0.753772 -0.278658 0.595128 0.23536 -0.214984 0.947833 
0.410216 -0.31836 0.854617 0.230049 -0.225986 0.946577 -0.602983 -0.399819 0.690331 
-0.548893 -0.49003 0.677191 -0.842666 -0.473512 0.256322 0.607604 -0.567227 0.555941 
0.247774 -0.227666 0.941688 0.326812 -0.360367 0.873687 0.274947 -0.273971 0.921599 
-0.494001 -0.539473 0.681859 -0.400029 -0.596305 0.695986 -0.648779 -0.630353 0.426312 
0.554554 -0.604363 0.572028 0.251783 -0.362267 0.897423 0.355913 -0.439228 0.824866 
0.224242 -0.382085 0.896508 0.196417 -0.512047 0.836199 0.0653884 -0.61307 0.787318 
-0.13876 -0.670878 0.72847 -0.178777 -0.609849 0.77209 -0.193554 -0.597675 0.778024 
-0.305518 -0.621249 0.721601 -0.296991 -0.621587 0.724863 -0.510135 -0.794327 0.329859 
0.342524 -0.75337 0.561348 0.207494 -0.631544 0.74706 0.0624412 -0.615885 0.785358 
0.0651491 -0.614864 0.785937 -0.0834409 -0.683338 0.725318 -0.0253304 -0.677491 0.735095 
-0.147377 -0.720117 0.67802 -0.226441 -0.827238 0.514201 -0.275609 -0.915739 0.292338 
0.0866842 0.993173 0.0780596 -0.112685 0.993046 -0.0340902 0.207064 0.753466 0.624029 
0.126302 0.759978 0.637559 0.110682 0.813545 0.570871 0.200003 0.864311 0.461481 
0.116008 0.988506 0.0969449 0.252847 0.942241 0.219658 0.052917 0.998227 -0.0272621 
-0.117865 0.992395 -0.0354876 -0.114565 0.992532 -0.0418825 -0.288091 0.955072 -0.0695834 
-0.41329 0.909417 -0.0463862 0.260705 0.739921 0.620121 0.425168 0.663898 0.6152 
0.48161 0.800057 0.357716 -0.538055 0.841074 -0.0556062 -0.578703 0.813967 -0.0505906 
-0.730783 0.681433 -0.0400565 0.57114 0.567636 0.592949 0.600725 0.553776 0.576595 
0.674435 0.616331 0.406538 -0.730881 0.681328 -0.0400617 -0.730834 0.681349 -0.0405639 
0.668867 0.503501 0.546903 0.743753 0.423184 0.517443 0.808749 0.539436 0.234382 
-0.855882 0.516879 0.0173507 -0.909266 0.416193 0.00437829 0.76851 0.370574 0.5216 
-0.93701 0.349126 -0.0110832 -0.894579 0.348418 -0.27988 0.809384 0.234782 0.538307 
-0.979562 0.200217 0.0192818 0.834195 -0.0485669 0.549327 0.963264 -0.0495196 0.263949 
-0.996922 -0.0372247 0.0690034 0.761518 -0.327548 0.559287 0.731674 -0.448576 0.513257 
-0.971692 -0.2206 0.0845608 0.72816 -0.462922 0.505456 0.759304 -0.490522 0.427605 
-0.873456 -0.470491 0.125349 -0.849985 -0.512185 0.12326 -0.868775 -0.460878 -0.181167 
0.640658 -0.595307 0.48494 0.632308 -0.611007 0.476295 -0.738216 -0.656382 0.155564 
-0.677069 -0.717676 0.162847 0.586986 -0.633907 0.503596 0.567086 -0.654074 0.5006 
0.419532 -0.791825 0.443854 -0.39186 -0.889436 0.235266 -0.559792 -0.805303 0.195243 
-0.526342 -0.824908 0.206134 0.384263 -0.824614 0.415156 0.437462 -0.883009 0.170064 
0.326718 -0.865124 0.380547 0.209557 -0.925032 0.316862 0.0610289 -0.958203 0.279505 
-0.0913327 -0.960174 0.264052 -0.18158 -0.947631 0.262725 -0.2305 -0.937117 0.262071 
-0.290798 -0.922393 0.25422 -0.277833 -0.925479 0.257484 0.499601 0.859175 0.11053 
0.230564 0.969315 0.08526 0.0303677 0.999185 0.0266013 -0.000685722 0.997118 -0.0758626 
0.0783504 0.984454 -0.157197 0.0759255 0.96351 -0.256679 -0.0690831 0.917604 -0.391447 
-0.197701 0.863611 -0.463778 -0.284162 0.82705 -0.485015 -0.412525 0.742169 -0.528212 
0.565945 0.816404 0.114852 0.707872 0.693168 0.135778 -0.183599 0.651542 -0.73606 
-0.284414 0.727537 -0.624338 -0.412668 0.742089 -0.528213 -0.412495 0.741958 -0.528531 
-0.523871 0.683811 -0.507899 0.751998 0.644593 0.137835 0.82419 0.557771 0.0979906 
-0.350513 0.518403 -0.779999 -0.590283 0.622248 -0.514173 -0.50019 0.581006 -0.642061 
-0.649418 0.532101 -0.543254 0.836644 0.539369 0.0954317 -0.452059 0.364888 -0.813941 
-0.685282 0.484195 -0.544008 -0.617376 0.472189 -0.629194 0.897857 0.428642 0.100593 
-0.768636 0.324497 -0.551272 -0.559803 0.323673 -0.762795 -0.793751 0.274783 -0.542637 
0.973639 0.222234 0.0513663 0.975773 0.212956 0.0501648 -0.814403 0.232875 -0.531523 
-0.764508 0.227966 -0.602959 0.998648 -0.0472279 0.0217037 0.978925 -0.202439 0.0268963 
0.96946 -0.0616089 -0.237384 -0.86581 0.00070907 -0.500373 -0.779294 0.0376512 -0.625526 
0.944339 -0.327244 0.0337018 -0.887196 -0.190914 -0.420041 -0.840907 -0.347132 -0.415179 
-0.823731 -0.168983 -0.541214 0.833382 -0.550266 0.0517885 0.785861 -0.617254 0.0376774 
-0.816007 -0.419832 -0.397332 0.750908 -0.659838 0.0273925 0.69963 -0.714382 0.0132879 
-0.723301 -0.613088 -0.317739 -0.686065 -0.655018 -0.316648 -0.671812 -0.605583 -0.426542 
0.652787 -0.757524 0.00511723 0.57583 -0.817555 0.00477578 -0.433549 -0.87032 -0.233621 
-0.565685 -0.778735 -0.271244 -0.555565 -0.787853 -0.265773 -0.554571 -0.763927 -0.329951 
0.460697 -0.887507 -0.00942473 0.438909 -0.898496 -0.00800117 0.42978 -0.887285 -0.167375 
0.250641 -0.96674 -0.0509264 0.1457 -0.983498 -0.107253 0.038744 -0.987632 -0.151926 
-0.0828328 -0.983109 -0.163202 -0.17852 -0.970813 -0.160163 -0.24045 -0.957748 -0.157804 
-0.225532 -0.82422 -0.519419 -0.32993 -0.926145 -0.18276 -0.307574 -0.93542 -0.174319 
-0.312788 -0.919727 -0.237203 0.426339 0.81823 -0.385661 0.142258 0.850003 -0.507206 
-0.0496827 0.830804 -0.554344 -0.0938423 0.798759 -0.594288 -0.0497668 0.719839 -0.692355 
-0.0343934 0.639061 -0.768387 -0.0904618 0.619148 -0.780047 0.450804 0.806412 -0.382722 
0.669717 0.658671 -0.342975 0.418576 0.80005 -0.429784 0.0958837 0.7429 -0.6625 
-0.046494 0.712706 -0.69992 -0.102402 0.713071 -0.693573 -0.066426 0.671731 -0.737811 
-0.040084 0.61456 -0.787851 -0.109598 0.614491 -0.781274 -0.088391 0.607342 -0.789508 
-0.173251 0.583283 -0.793577 -0.23564 0.548609 -0.802186 0.700904 0.628238 -0.337714 
0.785506 0.522142 -0.332187 0.64075 0.60693 -0.470187 0.284332 0.46323 -0.839388 
-0.148876 0.3434 -0.927315 -0.109507 0.375075 -0.920504 -0.0690512 0.35901 -0.930776 
-0.0857586 0.344258 -0.93495 -0.139143 0.381716 -0.913746 -0.328705 0.50592 -0.797495 
-0.21259 0.444314 -0.870282 -0.345168 0.494738 -0.797555 0.785683 0.521857 -0.332216 
0.785229 0.521844 -0.333308 0.446639 0.39447 -0.803061 -0.0906886 0.200244 -0.97554 
-0.0746114 0.167838 -0.982987 -0.0869113 0.214634 -0.97282 -0.159596 0.263213 -0.951445 
-0.439613 0.357729 -0.823875 -0.301492 0.305383 -0.903241 -0.442107 0.353529 -0.824353 
0.867003 0.364757 -0.339498 0.685727 0.289528 -0.667797 -0.0696906 0.160072 -0.984642 
-0.0412714 0.180794 -0.982655 -0.121836 0.166121 -0.97855 -0.223184 0.192272 -0.955626 
-0.482944 0.309035 -0.819306 -0.374256 0.263338 -0.889149 -0.531683 0.243633 -0.811145 
0.897936 0.187447 -0.398213 0.58853 0.0602299 -0.806229 -0.144177 0.105705 -0.98389 
-0.210644 0.133098 -0.96846 -0.31229 0.150987 -0.937912 -0.557266 0.179762 -0.810642 
-0.513376 0.175845 -0.839954 0.901327 -0.0715422 -0.42719 0.551751 -0.0929683 -0.828811 
-0.172067 0.0893835 -0.981022 -0.32661 0.0852814 -0.941304 -0.578506 0.0433815 -0.814524 
-0.50611 0.0478541 -0.86114 0.820289 -0.335043 -0.463543 0.616736 -0.281999 -0.734924 
-0.184243 -0.027435 -0.982498 -0.336251 -0.0511779 -0.940381 -0.606503 -0.0830374 -0.790733 
-0.525663 -0.0618765 -0.848439 0.739309 -0.510827 -0.438723 0.730676 -0.526575 -0.434547 
0.715433 -0.501179 -0.486802 0.415064 -0.383911 -0.824824 -0.224879 -0.153302 -0.962251 
-0.373571 -0.206942 -0.904223 -0.608597 -0.292324 -0.737669 -0.587848 -0.335505 -0.736119 
-0.579995 -0.290369 -0.761112 0.666116 -0.601214 -0.441397 0.643986 -0.625444 -0.440571 
0.598406 -0.560831 -0.572171 0.339207 -0.357406 -0.870172 -0.201339 -0.24734 -0.947779 
-0.308191 -0.338491 -0.889068 -0.510433 -0.496872 -0.701838 -0.493868 -0.527003 -0.691638 
-0.472733 -0.459668 -0.751817 0.572521 -0.69406 -0.436462 0.539918 -0.72003 -0.435942 
0.523071 -0.657139 -0.542738 0.390646 -0.804217 -0.447919 0.285889 -0.502428 -0.815986 
-0.0784678 -0.267573 -0.960337 -0.0665803 -0.309072 -0.948705 -0.0765092 -0.415809 -0.906228 
-0.217705 -0.780365 -0.586204 -0.155052 -0.469563 -0.869177 -0.315187 -0.724025 -0.613551 
-0.259647 -0.536974 -0.802647 -0.427318 -0.644919 -0.633623 -0.42048 -0.651793 -0.63116 
-0.418288 -0.639385 -0.645153 0.302652 -0.841495 -0.447536 0.209961 -0.862711 -0.460051 
0.198888 -0.815394 -0.543669 0.0843334 -0.852051 -0.516621 0.0591926 -0.749357 -0.659515 
-0.00956714 -0.817469 -0.575894 -0.0348723 -0.692926 -0.720165 -0.0939169 -0.781496 -0.616801 
-0.0949505 -0.687863 -0.719603 -0.196114 -0.787725 -0.583977 -0.14895 -0.787571 -0.597951 
-0.140675 -0.747639 -0.649035 0.06318 0.453165 -0.889185 -0.0747783 0.404519 -0.911467 
0.137086 0.437102 -0.888903 0.253202 0.398186 -0.881667 0.0619745 0.427348 -0.90196 
-0.100353 0.367701 -0.924514 -0.0792789 0.382456 -0.920566 -0.145798 0.235385 -0.960904 
-0.112496 0.193186 -0.974692 0.390503 0.366693 -0.844419 0.413832 0.352567 -0.839309 
0.19831 0.287034 -0.937168 0.0147465 0.198273 -0.980036 -0.135495 0.139222 -0.980948 
-0.140131 0.116848 -0.983214 -0.111939 0.191633 -0.975062 -0.112471 0.19143 -0.975041 
-0.0993183 0.129905 -0.98654 0.51315 0.240224 -0.823996 0.329371 0.187568 -0.925383 
0.111854 0.150559 -0.982253 -0.105893 0.0771923 -0.991377 -0.175732 0.0290115 -0.984011 
-0.107365 0.0061207 -0.994201 -0.0309592 0.0969015 -0.994812 -0.0881183 0.118177 -0.989075 
-0.10402 0.0801434 -0.991341 -0.0349648 0.144941 -0.988822 -0.0569253 0.147655 -0.987399 
0.533001 0.0493857 -0.844672 0.27998 0.0504932 -0.958677 0.0663369 -0.00399113 -0.997789 
-0.104878 0.0284179 -0.994079 -0.19213 0.0574561 -0.979686 -0.0763649 0.136868 -0.987641 
-0.0381442 0.179396 -0.983037 -0.0311833 -0.00873915 -0.999475 0.0233397 0.115663 -0.993014 
-0.133806 0.103606 -0.985577 -0.0813205 0.0921464 -0.992419 -0.12573 0.0935475 -0.987644 
0.497784 -0.0880947 -0.862815 0.274603 -0.0684442 -0.959119 0.0809194 -0.0628828 -0.994735 
-0.0462744 -0.0152599 -0.998812 -0.0633918 0.0372428 -0.997294 0.0188409 0.117093 -0.992942 
-0.16577 0.086055 -0.982403 -0.173647 0.177967 -0.968594 0.0236657 0.0835004 -0.996227 
-0.052064 0.00893747 -0.998604 -0.125623 0.0770172 -0.989084 -0.0822868 0.0651706 -0.994476 
0.467491 -0.245136 -0.849329 0.383048 -0.333378 -0.861471 0.326223 -0.216394 -0.920191 
0.121028 -0.156 -0.980314 -0.00501868 -0.0962588 -0.995344 -0.0701158 -0.0393435 -0.996763 
-0.0408181 -0.0809366 -0.995883 0.00908441 -0.204593 -0.978805 -0.0211066 0.0327875 -0.999239 
-0.129177 0.0660709 -0.989418 -0.0991692 0.0379012 -0.994349 -0.176678 -0.0253702 -0.983942 
-0.0654436 0.00872186 -0.997818 0.335304 -0.341583 -0.878005 0.289233 -0.318821 -0.902606 
0.20531 -0.269665 -0.940813 0.0799496 -0.157764 -0.984235 -0.0434054 -0.0668652 -0.996817 
-0.133948 -0.0372829 -0.990287 -0.0495699 -0.117159 -0.991875 0.0886615 -0.163633 -0.982529 
0.0140414 -0.0825872 -0.996485 -0.108186 -0.0189038 -0.993951 -0.177197 -0.113127 -0.977652 
-0.172362 -0.163074 -0.971441 -0.147678 -0.0887554 -0.985045 0.277538 -0.307004 -0.910341 
0.229615 -0.363756 -0.902751 0.189649 -0.240216 -0.952013 0.0476254 -0.171796 -0.983981 
-0.103691 -0.086127 -0.990874 -0.0785054 -0.267326 -0.960403 -0.111635 -0.054554 -0.992251 
-0.0088348 -0.196899 -0.980384 0.0303297 -0.128487 -0.991247 -0.0336584 -0.308236 -0.950714 
0.0121976 -0.198647 -0.979995 -0.156922 -0.228711 -0.960764 -0.118418 -0.269517 -0.955687 
-0.106357 -0.210456 -0.971801 0.114946 -0.407341 -0.906014 0.104718 -0.408711 -0.906636 
0.103923 -0.402088 -0.909684 -0.0783649 -0.267706 -0.960309 -0.000732939 -0.404967 -0.914331 
-0.0105815 -0.366175 -0.930486 
