# vtk DataFile Version 4.2
vtk output
ASCII
DATASET POLYDATA
POINTS 564 float
-34.0786 -32.6802 -15.0695 -25.9226 -32.6802 -14.8102 -17.7667 -32.6802 -14.7923 
-9.61079 -32.6802 -14.3867 -50.3904 -24.5242 -15.4176 -42.2345 -24.5242 -16.8607 
-34.0786 -24.5242 -17.8349 -25.9226 -24.5242 -17.7713 -17.7667 -24.5242 -17.2126 
-9.61079 -24.5242 -17.3582 -1.45486 -24.5242 -16.5804 6.70107 -24.5242 -15.9744 
14.857 -24.5242 -16.2338 23.0129 -24.5242 -15.2943 31.1689 -24.5242 -13.5742 
-58.5464 -16.3683 -14.774 -50.3904 -16.3683 -17.1973 -42.2345 -16.3683 -19.1786 
-34.0786 -16.3683 -18.9651 -25.9226 -16.3683 -18.1495 -17.7667 -16.3683 -17.493 
-9.61079 -16.3683 -18.359 -1.45486 -16.3683 -18.712 6.70107 -16.3683 -18.0996 
14.857 -16.3683 -18.6191 23.0129 -16.3683 -17.3262 31.1689 -16.3683 -15.9285 
39.3248 -16.3683 -14.8963 47.4807 -16.3683 -13.7331 -66.7023 -8.21238 -14.1529 
-58.5464 -8.21238 -17.3861 -50.3904 -8.21238 -18.4361 -42.2345 -8.21238 -18.9966 
-34.0786 -8.21238 -19.2302 -25.9226 -8.21238 -17.9604 -17.7667 -8.21238 -16.544 
-9.61079 -8.21238 -19.6993 -1.45486 -8.21238 -19.1378 6.70107 -8.21238 -19.1326 
14.857 -8.21238 -19.821 23.0129 -8.21238 -18.1748 31.1689 -8.21238 -17.5513 
39.3248 -8.21238 -17.1577 47.4807 -8.21238 -16.0228 55.6366 -8.21238 -14.2459 
-66.7023 -0.0564522 -15.9665 -58.5464 -0.0564522 -18.8885 -50.3904 -0.0564522 -19.1932 
-42.2345 -0.0564522 -19.1344 -34.0786 -0.0564522 -18.8574 -25.9226 -0.0564522 -17.7038 
-17.7667 -0.0564522 -17.0188 -9.61079 -0.0564522 -21.6897 -1.45486 -0.0564522 -16.8903 
6.70107 -0.0564522 -19.1855 14.857 -0.0564522 -19.6072 23.0129 -0.0564522 -18.5083 
31.1689 -0.0564522 -18.6128 39.3248 -0.0564522 -18.5233 47.4807 -0.0564522 -17.796 
55.6366 -0.0564522 -16.3679 63.7926 -0.0564522 -14.5701 -66.7023 8.09948 -15.072 
-58.5464 8.09948 -18.2115 -50.3904 8.09948 -18.6456 -42.2345 8.09948 -19.0399 
-34.0786 8.09948 -19.255 -25.9226 8.09948 -18.0794 -17.7667 8.09948 -17.5723 
-9.61079 8.09948 -19.7149 -1.45486 8.09948 -18.592 6.70107 8.09948 -20.7667 
14.857 8.09948 -19.1722 23.0129 8.09948 -19.0357 31.1689 8.09948 -19.4026 
39.3248 8.09948 -19.4316 47.4807 8.09948 -18.979 55.6366 8.09948 -17.3701 
63.7926 8.09948 -13.8733 -58.5464 16.2554 -15.9335 -50.3904 16.2554 -17.5211 
-42.2345 16.2554 -19.438 -34.0786 16.2554 -19.0309 -25.9226 16.2554 -18.4577 
-17.7667 16.2554 -18.276 -9.61079 16.2554 -18.3265 -1.45486 16.2554 -18.3279 
6.70107 16.2554 -19.0659 14.857 16.2554 -18.8791 23.0129 16.2554 -19.4903 
31.1689 16.2554 -19.6011 39.3248 16.2554 -19.3202 47.4807 16.2554 -18.6508 
55.6366 16.2554 -16.5594 63.7926 16.2554 -13.6312 -50.3904 24.4113 -16.4577 
-42.2345 24.4113 -17.1704 -34.0786 24.4113 -18.2523 -25.9226 24.4113 -18.5559 
-17.7667 24.4113 -18.6 -9.61079 24.4113 -18.7328 -1.45486 24.4113 -18.8445 
6.70107 24.4113 -18.6363 14.857 24.4113 -18.8579 23.0129 24.4113 -18.8141 
31.1689 24.4113 -18.6683 39.3248 24.4113 -18.8827 47.4807 24.4113 -17.0517 
-34.0786 32.5673 -15.1135 -25.9226 32.5673 -17.1709 -17.7667 32.5673 -17.3374 
-9.61079 32.5673 -18.3652 -1.45486 32.5673 -17.7451 6.70107 32.5673 -17.6999 
14.857 32.5673 -17.173 23.0129 32.5673 -16.0246 31.1689 32.5673 -15.258 
39.3248 32.5673 -14.2951 -34.0786 -34.7202 -13.5488 -25.9226 -34.2718 -13.5488 
-17.7667 -34.3721 -13.5488 -9.61079 -33.8088 -13.5488 -50.3904 -27.501 -13.5488 
-50.3904 -32.6802 -7.15469 -39.3596 -32.6802 -13.5488 -42.2345 -30.9784 -13.5488 
-42.2345 -32.6802 -12.1478 -1.57388 -32.6802 -13.5488 -1.45486 -32.6493 -13.5488 
-1.45486 -32.6802 -13.534 6.70107 -30.5521 -13.5488 6.70107 -32.6802 -12.542 
14.857 -29.93 -13.5488 14.857 -32.6802 -11.8611 23.0129 -28.5831 -13.5488 
23.0129 -32.6802 -11.2344 31.1689 -24.576 -13.5488 31.1689 -32.6802 -8.59791 
39.3248 -32.6802 -5.81271 -53.5863 -24.5242 -13.5488 -58.5464 -18.9654 -13.5488 
-58.5464 -24.5242 -9.93757 31.3201 -24.5242 -13.5488 39.3248 -20.4995 -13.5488 
39.3248 -24.5242 -12.2077 47.4807 -16.7231 -13.5488 47.4807 -24.5242 -9.51833 
55.6366 -24.5242 -7.16042 -61.1288 -16.3683 -13.5488 -66.7023 -10.108 -13.5488 
-66.7023 -16.3683 -9.14909 48.0472 -16.3683 -13.5488 55.6366 -10.0835 -13.5488 
55.6366 -16.3683 -11.1498 63.7926 -16.3683 -6.34035 -67.4699 -8.21238 -13.5488 
58.1718 -8.21238 -13.5488 63.7926 -3.77809 -13.5488 63.7926 -8.21238 -11.5388 
71.9485 -8.21238 -5.48541 -70.1451 -0.0564522 -13.5488 -74.8582 -0.0564522 -6.32294 
65.3649 -0.0564522 -13.5488 71.9485 -0.0564522 -8.01142 -68.7473 8.09948 -13.5488 
-66.7023 14.4259 -13.5488 64.6085 8.09948 -13.5488 71.9485 8.09948 -10.2053 
-65.009 16.2554 -13.5488 -66.7023 16.2554 -12.6708 -58.5464 21.4888 -13.5488 
55.6366 23.8604 -13.5488 63.9115 16.2554 -13.5488 63.7926 16.4701 -13.5488 
-55.8448 24.4113 -13.5488 -58.5464 24.4113 -12.0583 -50.3904 28.1574 -13.5488 
-42.2345 32.4935 -13.5488 55.2242 24.4113 -13.5488 47.4807 29.6997 -13.5488 
55.6366 24.4113 -13.3024 63.7926 24.4113 -8.14957 -50.3904 32.5673 -8.46556 
-42.0532 32.5673 -13.5488 -42.2345 32.5673 -13.495 -34.0786 34.6452 -13.5488 
-25.9226 36.9748 -13.5488 -17.7667 38.6938 -13.5488 -9.61079 39.2121 -13.5488 
-1.45486 38.9186 -13.5488 6.70107 37.721 -13.5488 14.857 37.1706 -13.5488 
23.0129 35.6165 -13.5488 31.1689 34.3315 -13.5488 41.3993 32.5673 -13.5488 
39.3248 33.3541 -13.5488 47.4807 32.5673 -9.47243 -25.9226 40.7232 -6.97104 
-17.7667 40.7232 -8.73708 -9.61079 40.7232 -8.16561 -1.45486 40.7232 -5.61084 
-50.3904 -33.3934 -5.39284 -42.2345 -36.8485 -5.39284 -34.0786 -38.8861 -5.39284 
-25.9226 -40.4872 -5.39284 -17.7667 -40.1963 -5.39284 -9.61079 -39.9478 -5.39284 
-1.45486 -39.7419 -5.39284 6.70107 -39.4869 -5.39284 14.857 -38.772 -5.39284 
23.0129 -37.5341 -5.39284 31.1689 -35.6474 -5.39284 39.3248 -32.9991 -5.39284 
-51.5095 -32.6802 -5.39284 -58.5464 -27.7309 -5.39284 -50.3904 -32.6802 -0.280868 
40.4124 -32.6802 -5.39284 47.4807 -30.0501 -5.39284 47.4807 -32.6802 -0.563342 
55.6366 -26.436 -5.39284 -62.1848 -24.5242 -5.39284 -66.7023 -19.2654 -5.39284 
58.4037 -24.5242 -5.39284 63.7926 -17.8683 -5.39284 63.7926 -24.5242 2.6451 
-69.2889 -16.3683 -5.39284 64.9697 -16.3683 -5.39284 71.9485 -8.35547 -5.39284 
-72.7089 -8.21238 -5.39284 -74.8582 -1.87858 -5.39284 72.0378 -8.21238 -5.39284 
-75.4031 -0.0564522 -5.39284 -74.8582 5.15163 -5.39284 74.356 -0.0564522 -5.39284 
-74.5003 8.09948 -5.39284 75.4952 8.09948 -5.39284 71.9485 16.1901 -5.39284 
-71.7318 16.2554 -5.39284 -66.7023 23.4792 -5.39284 71.8997 16.2554 -5.39284 
71.9485 16.2554 -5.20614 -65.8793 24.4113 -5.39284 -58.5464 29.8995 -5.39284 
55.6366 31.954 -5.39284 66.537 24.4113 -5.39284 63.7926 26.4167 -5.39284 
-53.6359 32.5673 -5.39284 -50.3904 34.2403 -5.39284 -42.2345 37.352 -5.39284 
-34.0786 39.656 -5.39284 6.70107 40.1673 -5.39284 14.857 39.271 -5.39284 
23.0129 38.3613 -5.39284 31.1689 37.8631 -5.39284 39.3248 36.7311 -5.39284 
53.9733 32.5673 -5.39284 47.4807 34.5798 -5.39284 -28.8074 40.7232 -5.39284 
-25.9226 41.2613 -5.39284 -25.9226 40.7232 -4.02462 -17.7667 41.5024 -5.39284 
-17.7667 40.7232 -3.77032 -9.61079 41.2103 -5.39284 -9.61079 40.7232 -4.48065 
-0.967021 40.7232 -5.39284 -1.45486 40.7558 -5.39284 -1.45486 40.7232 -5.32933 
-42.2345 -35.6254 2.76309 -34.0786 -37.9259 2.76309 -25.9226 -39.4825 2.76309 
-17.7667 -39.7701 2.76309 -9.61079 -40.0155 2.76309 -1.45486 -40.5561 2.76309 
6.70107 -40.7725 2.76309 14.857 -40.1935 2.76309 23.0129 -39.2812 2.76309 
31.1689 -38.3559 2.76309 39.3248 -36.2204 2.76309 47.4807 -33.9297 2.76309 
-58.5464 -26.3373 2.76309 -49.3551 -32.6802 2.76309 -50.3904 -32.1952 2.76309 
-42.2345 -32.6802 8.05315 -34.0786 -32.6802 10.9043 50.4115 -32.6802 2.76309 
47.4807 -32.6802 9.09776 55.6366 -30.2794 2.76309 63.7926 -24.577 2.76309 
-60.7405 -24.5242 2.76309 -66.7023 -18.2711 2.76309 -58.5464 -24.5242 6.18426 
63.8611 -24.5242 2.76309 63.7926 -24.5242 3.00469 -68.4916 -16.3683 2.76309 
-66.7023 -16.3683 5.14695 71.053 -16.3683 2.76309 71.9485 -14.8918 2.76309 
-72.9786 -8.21238 2.76309 -74.8582 -2.46105 2.76309 75.8788 -8.21238 2.76309 
-75.6821 -0.0564522 2.76309 -74.8582 5.14172 2.76309 -74.8582 -0.0564522 4.17907 
76.9939 -0.0564522 2.76309 -74.4204 8.09948 2.76309 77.2817 8.09948 2.76309 
-71.8538 16.2554 2.76309 -66.7023 21.8651 2.76309 -66.7023 16.2554 8.41277 
73.3295 16.2554 2.76309 71.9485 19.2944 2.76309 71.9485 16.2554 5.47757 
-63.9854 24.4113 2.76309 -58.5464 28.2851 2.76309 -58.5464 24.4113 8.78907 
14.857 24.4113 10.4694 23.0129 24.4113 10.3116 55.6366 30.26 2.76309 
67.2207 24.4113 2.76309 63.7926 26.2838 2.76309 63.7926 24.4113 5.53392 
-50.9038 32.5673 2.76309 -50.3904 32.8836 2.76309 -50.3904 32.5673 3.13892 
-42.2345 35.1193 2.76309 -42.2345 32.5673 6.24184 -34.0786 36.5249 2.76309 
-34.0786 32.5673 7.40537 -25.9226 37.2202 2.76309 -25.9226 32.5673 7.78758 
-17.7667 36.6463 2.76309 -17.7667 32.5673 6.87869 -9.61079 35.4516 2.76309 
-9.61079 32.5673 5.45421 -1.45486 35.2349 2.76309 -1.45486 32.5673 5.4225 
6.70107 35.5958 2.76309 6.70107 32.5673 6.14721 14.857 35.0993 2.76309 
14.857 32.5673 5.53948 23.0129 34.2977 2.76309 23.0129 32.5673 4.43632 
31.1689 34.015 2.76309 31.1689 32.5673 4.57244 39.3248 33.5257 2.76309 
39.3248 32.5673 4.18838 47.6577 32.5673 2.76309 47.4807 32.6147 2.76309 
47.4807 32.5673 2.84016 -25.9226 -34.5258 10.919 -17.7667 -35.2856 10.919 
-9.61079 -35.8727 10.919 -1.45486 -36.5742 10.919 6.70107 -36.7941 10.919 
14.857 -36.2019 10.919 23.0129 -36.0107 10.919 31.1689 -35.4013 10.919 
39.3248 -33.9626 10.919 -50.3904 -26.3922 10.919 -42.2345 -30.3448 10.919 
-34.0292 -32.6802 10.919 -34.0786 -32.667 10.919 -25.9226 -32.6802 12.7732 
-17.7667 -32.6802 13.6128 -9.61079 -32.6802 14.2268 -1.45486 -32.6802 14.8248 
6.70107 -32.6802 14.9036 14.857 -32.6802 14.3351 23.0129 -32.6802 14.2363 
31.1689 -32.6802 13.6499 45.6087 -32.6802 10.919 39.3248 -32.6802 12.4447 
47.4807 -32.2218 10.919 55.6366 -28.4152 10.919 -53.7329 -24.5242 10.919 
-58.5464 -20.9019 10.919 -50.3904 -24.5242 12.659 -42.2345 -24.5242 15.2944 
[...]
POINT_DATA 564
SCALARS ImageScalars float
LOOKUP_TABLE default
0 0 0 0 0 0 0 0 0 
0 0 0 0 0 0 0 0 0 
0 0 0 0 0 0 0 0 0 
0 0 0 0 0 0 0 0 0 
0 0 0 0 0 0 0 0 0 
0 0 0 0 0 0 0 0 0 
0 0 0 0 0 0 0 0 0 
0 0 0 0 0 0 0 0 0 
0 0 0 0 0 0 0 0 0 
0 0 0 0 0 0 0 0 0 
0 0 0 0 0 0 0 0 0 
0 0 0 0 0 0 0 0 0 
0 0 0 0 0 0 0 0 0 
0 0 0 0 0 0 0 0 0 
0 0 0 0 0 0 0 0 0 
0 0 0 0 0 0 0 0 0 
0 0 0 0 0 0 0 0 0 
0 0 0 0 0 0 0 0 0 
0 0 0 0 0 0 0 0 0 
0 0 0 0 0 0 0 0 0 
0 0 0 0 0 0 0 0 0 
0 0 0 0 0 0 0 0 0 
0 0 0 0 0 0 0 0 0 
0 0 0 0 0 0 0 0 0 
0 0 0 0 0 0 0 0 0 
0 0 0 0 0 0 0 0 0 
0 0 0 0 0 0 0 0 0 
0 0 0 0 0 0 0 0 0 
0 0 0 0 0 0 0 0 0 
0 0 0 0 0 0 0 0 0 
0 0 0 0 0 0 0 0 0 
0 0 0 0 0 0 0 0 0 
0 0 0 0 0 0 0 0 0 
0 0 0 0 0 0 0 0 0 
0 0 0 0 0 0 0 0 0 
0 0 0 0 0 0 0 0 0 
0 0 0 0 0 0 0 0 0 
0 0 0 0 0 0 0 0 0 
0 0 0 0 0 0 0 0 0 
0 0 0 0 0 0 0 0 0 
0 0 0 0 0 0 0 0 0 
0 0 0 0 0 0 0 0 0 
0 0 0 0 0 0 0 0 0 
0 0 0 0 0 0 0 0 0 
0 0 0 0 0 0 0 0 0 
0 0 0 0 0 0 0 0 0 
0 0 0 0 0 0 0 0 0 
0 0 0 0 0 0 0 0 0 
0 0 0 0 0 0 0 0 0 
0 0 0 0 0 0 0 0 0 
0 0 0 0 0 0 0 0 0 
0 0 0 0 0 0 0 0 0 
0 0 0 0 0 0 0 0 0 
0 0 0 0 0 0 0 0 0 
0 0 0 0 0 0 0 0 0 
0 0 0 0 0 0 0 0 0 
0 0 0 0 0 0 0 0 0 
0 0 0 0 0 0 0 0 0 
0 0 0 0 0 0 0 0 0 
0 0 0 0 0 0 0 0 0 
0 0 0 0 0 0 0 0 0 
0 0 0 0 0 0 0 0 0 
0 0 0 0 0 0 
NORMALS Normals float
0.102252 0.548971 0.829563 -0.0174237 0.521041 0.853354 -0.024288 0.48741 0.872835 
-0.0727092 0.518829 0.85178 0.342918 0.391892 0.853715 0.130426 0.322499 0.937541 
0.049804 0.226459 0.972746 -0.0380285 0.170771 0.984577 -0.0243543 0.152125 0.988061 
-0.0374479 0.22152 0.974437 -0.0796366 0.292659 0.952895 -0.0208205 0.313386 0.949398 
-0.0378639 0.359822 0.932252 -0.153227 0.319587 0.935086 -0.17278 0.360421 0.916648 
0.37212 0.354179 0.857953 0.234442 0.152702 0.960062 0.105738 0.12354 0.98669 
-0.0630839 0.0913759 0.993816 -0.0890775 0.0107268 0.995967 0.00980304 -0.0408461 0.999117 
0.0760514 0.127461 0.988924 -0.0164808 0.155313 0.987728 -0.00524048 0.186838 0.982377 
-0.0458547 0.214123 0.97573 -0.160622 0.167017 0.972782 -0.138782 0.22635 0.964109 
-0.124593 0.290083 0.948857 -0.216734 0.376191 0.900837 0.554133 0.28617 0.781693 
0.278945 0.210061 0.937051 0.0900164 0.119446 0.988752 0.0474524 -0.00211522 0.998871 
-0.0642695 -0.00459066 0.997922 -0.165661 -0.0275662 0.985797 0.0700971 -0.0371822 0.996847 
0.177898 0.171544 0.968981 -0.0297113 -0.0910523 0.995403 0.0420916 0.0660933 0.996925 
-0.0595052 0.060181 0.996412 -0.13688 0.0705929 0.988069 -0.0615934 0.158767 0.985393 
-0.0892573 0.207025 0.974255 -0.166728 0.222824 0.960495 -0.224274 0.279756 0.933508 
0.466474 0.0563144 0.88274 0.225366 0.0434132 0.973306 0.0123667 0.0127441 0.999842 
-0.018704 0.00265512 0.999822 -0.0919399 0.00160228 0.995763 -0.0986919 0.00747372 0.99509 
0.162015 0.0726149 0.984113 -0.0111493 -0.020967 0.999718 -0.0835284 -0.0277274 0.99612 
0.152187 0.109018 0.982321 -0.0466841 -0.0402684 0.998098 -0.0580684 0.0524604 0.996933 
0.000966367 0.113798 0.993503 -0.0487689 0.140448 0.988886 -0.124861 0.174855 0.976645 
-0.215363 0.186505 0.958559 -0.431111 0.104074 0.896277 0.512717 -0.182861 0.838858 
0.248038 -0.148807 0.957253 0.0471516 -0.100579 0.993811 0.0365627 0.017434 0.999179 
-0.0597222 0.00841135 0.99818 -0.104242 0.0467811 0.993451 0.096197 0.0727592 0.992699 
0.0664241 -0.172222 0.982816 0.0672685 0.0684484 0.995384 0.0352765 -0.0228785 0.999116 
-0.106371 -0.0444761 0.993331 0.0141185 0.0583074 0.998199 0.0242329 0.0602861 0.997887 
-0.0251049 0.0484927 0.998508 -0.136479 0.0527503 0.989238 -0.272333 0.0128653 0.962117 
-0.399345 -0.0640671 0.914559 0.291478 -0.320426 0.901314 0.188453 -0.114212 0.975418 
0.0903815 -0.107687 0.990068 -0.0593904 -0.0668087 0.995997 -0.0457877 0.0289551 0.998531 
-0.00803099 0.0624666 0.998015 0.00317498 -0.0549323 0.998485 0.0451407 0.0155783 0.998859 
0.0335672 -0.127517 0.991268 0.0237709 -0.0191575 0.999534 0.045611 -0.0167361 0.998819 
-0.0106416 -0.0424126 0.999044 -0.0564979 -0.0291714 0.997976 -0.157272 -0.123103 0.979853 
-0.312764 -0.209546 0.926428 -0.520261 -0.213484 0.826894 0.269204 -0.378599 0.885546 
0.107284 -0.280272 0.953907 0.0761043 -0.203665 0.976078 0.0238741 -0.0600442 0.99791 
0.0108234 -0.0490156 0.998739 0.0149058 0.00546537 0.999874 -0.00584151 -0.0353651 0.999357 
0.000456561 -0.0740429 0.997255 0.0109065 -0.102041 0.99472 -0.0109614 -0.193632 0.981013 
0.00137575 -0.220687 0.975344 -0.114457 -0.309995 0.943823 -0.263542 -0.332521 0.905525 
0.167435 -0.534635 0.82833 0.128544 -0.43234 0.892501 0.0714189 -0.363991 0.92866 
0.0205615 -0.297 0.954656 -0.0390842 -0.364941 0.93021 -0.0388736 -0.38014 0.924112 
-0.106433 -0.473592 0.87429 -0.113719 -0.574848 0.81032 -0.114082 -0.662536 0.740291 
-0.201618 -0.675357 0.709397 0.123391 0.661999 0.739278 -0.0169473 0.58884 0.808072 
-0.0203272 0.56991 0.821456 -0.0709739 0.567388 0.820386 0.378356 0.527316 0.760779 
0.485862 0.841083 0.237734 0.21412 0.635156 0.742111 0.25518 0.599028 0.758979 
0.288112 0.722908 0.628009 -0.0972568 0.511312 0.853874 -0.0975674 0.510247 0.854476 
-0.0975854 0.511616 0.853655 -0.0656445 0.454518 0.888315 -0.0812379 0.533481 0.841902 
-0.0476138 0.500954 0.864163 -0.0628457 0.611773 0.788533 -0.153231 0.451213 0.879163 
-0.156782 0.639059 0.753009 -0.173153 0.362048 0.915936 -0.234685 0.696598 0.677993 
-0.258129 0.798933 0.543208 0.43259 0.449374 0.781619 0.423218 0.401939 0.811993 
0.596921 0.612081 0.518693 -0.173799 0.361122 0.91618 -0.177861 0.345128 0.921549 
-0.228466 0.410302 0.882868 -0.219199 0.382031 0.897778 -0.276855 0.50934 0.814816 
-0.358363 0.621891 0.696296 0.443971 0.391849 0.805819 0.567959 0.331526 0.753335 
0.701087 0.528548 0.478659 -0.224457 0.37724 0.898504 -0.244045 0.298956 0.922533 
-0.337714 0.395363 0.854188 -0.543011 0.435586 0.717916 0.584428 0.296534 0.755322 
-0.282802 0.311915 0.907046 -0.438192 0.228905 0.869247 -0.454107 0.383093 0.80438 
-0.677688 0.397951 0.618365 0.674529 0.0677912 0.735129 0.935217 0.0939955 0.341371 
-0.473737 0.122917 0.872046 -0.700509 0.223649 0.677693 0.595369 -0.196146 0.779142 
0.516729 -0.344737 0.783676 -0.419914 -0.0658639 0.905171 -0.711215 -0.107823 0.694657 
0.465462 -0.375166 0.801621 0.545856 -0.399003 0.736775 0.383042 -0.399132 0.83305 
-0.427215 -0.383102 0.818975 -0.523135 -0.216579 0.824272 -0.522534 -0.221479 0.82335 
0.396851 -0.440628 0.805206 0.473847 -0.511109 0.717103 0.322576 -0.549411 0.770773 
0.282004 -0.632791 0.721145 -0.427531 -0.391867 0.814652 -0.282369 -0.648609 0.706806 
-0.441085 -0.401547 0.802623 -0.614512 -0.627495 0.478147 0.412408 -0.833534 0.367615 
0.280257 -0.634347 0.720458 0.283757 -0.638768 0.715163 0.186864 -0.649462 0.737076 
0.169423 -0.685901 0.707698 0.100495 -0.758199 0.644232 0.00684621 -0.842853 0.5381 
-0.070306 -0.81261 0.578551 -0.0906477 -0.806358 0.584439 -0.109199 -0.798019 0.592656 
-0.144571 -0.75683 0.637422 -0.127926 -0.745529 0.65408 -0.226005 -0.71133 0.665531 
-0.209847 -0.715236 0.666635 -0.28543 -0.890545 0.354202 0.128685 -0.987544 0.0905375 
0.0370108 -0.988742 0.14498 -0.0356724 -0.999197 0.0182385 -0.0639784 -0.983019 -0.17199 
0.492557 0.862015 0.119655 0.320605 0.933619 0.159899 0.214807 0.966958 0.137296 
0.07837 0.977719 0.194738 -0.0314837 0.974478 0.222263 -0.0265341 0.963334 0.266991 
-0.026332 0.937738 0.346345 -0.053532 0.911421 0.407979 -0.107583 0.898209 0.426199 
-0.163934 0.881079 0.443651 -0.241403 0.816872 0.523874 -0.259804 0.81149 0.523436 
0.509878 0.851871 0.119754 0.623543 0.761809 0.175616 0.485221 0.859346 -0.161511 
-0.26794 0.803883 0.531017 -0.32108 0.711477 0.625066 -0.345369 0.896796 0.276546 
-0.41783 0.667167 0.61669 0.698884 0.686365 0.201156 0.772424 0.599441 0.209836 
-0.488548 0.653429 0.578231 -0.57597 0.49015 0.654226 -0.612901 0.784257 0.0964005 
0.804093 0.543762 0.240328 -0.583376 0.459947 0.669418 -0.679922 0.402319 0.613063 
0.902962 0.301837 0.305866 0.94137 0.141589 0.306228 -0.68131 0.399466 0.613387 
0.946298 0.0966162 0.308523 0.945068 -0.0964306 0.312328 -0.827527 0.187074 0.529342 
0.928665 -0.199406 0.312761 -0.914737 -0.12703 0.383562 -0.77729 -0.437821 0.451812 
0.852669 -0.441956 0.278622 0.747534 -0.633946 0.198256 -0.775836 -0.439934 0.452256 
-0.78292 -0.441097 0.438713 0.721817 -0.663387 0.197225 0.521337 -0.840398 0.148118 
-0.438172 -0.892535 0.106711 -0.679027 -0.642553 0.355032 -0.628425 -0.722078 0.289284 
0.458151 -0.878101 0.137974 0.421416 -0.892818 0.159013 0.315352 -0.946355 0.070464 
0.238236 -0.970334 0.0411801 -0.0866608 -0.987904 -0.12859 -0.106504 -0.986388 -0.125282 
-0.0832706 -0.994799 -0.0586666 -0.102709 -0.992927 -0.059555 -0.193098 -0.981001 0.0187334 
-0.397806 -0.912575 0.0946408 -0.27887 -0.955512 0.0960635 0.155671 -0.987778 -0.00777142 
0.10979 -0.993684 -0.0231995 0.0994418 -0.988577 -0.113256 -0.00261765 -0.992611 -0.121313 
-0.0179321 -0.97458 -0.223323 -0.0473163 -0.981973 -0.183004 -0.0498567 -0.969789 -0.238796 
-0.0648021 -0.980681 -0.184571 -0.0633667 -0.980182 -0.18769 -0.0630501 -0.979506 -0.191294 
0.321349 0.891864 -0.318298 0.21985 0.926266 -0.306099 0.105631 0.949085 -0.296783 
0.0309104 0.968378 -0.247566 0.0466518 0.978419 -0.201294 0.04495 0.987661 -0.150018 
-0.0219139 0.991984 -0.124452 -0.0906527 0.988635 -0.119932 -0.111116 0.991737 -0.0641189 
-0.179696 0.983674 -0.00970395 -0.254782 0.966206 0.0391265 -0.338292 0.937621 0.0801648 
0.589282 0.765472 -0.258455 0.443786 0.836981 -0.320182 0.461793 0.827543 -0.319248 
0.301348 0.791707 -0.531404 0.178054 0.715663 -0.675369 -0.387469 0.917516 0.0896175 
-0.302507 0.897999 -0.31951 -0.49274 0.86463 0.0980959 -0.612031 0.785401 0.0925411 
0.635031 0.722701 -0.272835 0.732201 0.618526 -0.285144 0.586808 0.695952 -0.413893 
-0.613467 0.7843 0.0923688 -0.613899 0.785577 0.0774377 0.753733 0.595397 -0.27819 
0.71143 0.599185 -0.367213 -0.843236 0.530904 0.0842259 -0.864741 0.497093 0.0715668 
0.913912 0.334902 -0.229359 0.955792 0.153785 -0.250624 -0.935279 0.351354 0.0424744 
0.965974 0.0856759 -0.244038 0.958102 -0.0819753 -0.274446 0.946317 0.0799979 -0.313184 
-0.996715 0.0770713 -0.0249027 0.943401 -0.178388 -0.279593 -0.969663 -0.228232 -0.0875488 
0.803044 -0.51882 -0.293165 0.681245 -0.635408 -0.363542 0.635032 -0.547028 -0.545431 
-0.902127 -0.413482 -0.123288 -0.841837 -0.512874 -0.168138 -0.849095 -0.444079 -0.286062 
0.624429 -0.689324 -0.367315 0.474905 -0.819903 -0.319724 0.45324 -0.628191 -0.632416 
-0.115625 -0.461547 -0.879548 0.0736225 -0.557437 -0.826949 -0.359008 -0.878757 -0.314481 
-0.557922 -0.791732 -0.248764 -0.449031 -0.856517 -0.25446 -0.451348 -0.807042 -0.380746 
0.402978 -0.808622 -0.428647 0.396973 -0.80725 -0.436761 0.389611 -0.802511 -0.451863 
0.190252 -0.872384 -0.450279 0.184063 -0.761988 -0.620882 0.117237 -0.841114 -0.527998 
0.0662455 -0.719097 -0.691745 0.008837 -0.799864 -0.600116 -0.0264288 -0.681631 -0.731219 
-0.0838451 -0.761604 -0.642596 -0.110359 -0.670488 -0.733666 -0.0666303 -0.714747 -0.696201 
-0.0678536 -0.655792 -0.751886 0.00798278 -0.738475 -0.674234 0.0303608 -0.676339 -0.735964 
-0.00921775 -0.792457 -0.609858 0.0050213 -0.716867 -0.697191 -0.0632264 -0.775785 -0.627822 
-0.0818583 -0.686223 -0.722771 -0.0613703 -0.76696 -0.638754 -0.0495336 -0.706928 -0.705549 
-0.0372401 -0.827779 -0.559817 -0.00635644 -0.788565 -0.614918 -0.0832786 -0.870828 -0.484483 
-0.0678238 -0.844748 -0.530848 -0.167636 -0.905344 -0.390193 -0.164175 -0.905534 -0.391223 
-0.163536 -0.904512 -0.393845 0.124659 0.747503 -0.652456 0.0654748 0.771006 -0.633453 
0.0647419 0.781659 -0.620337 0.046826 0.785149 -0.617534 -0.0185448 0.779482 -0.62615 
-0.0389807 0.773087 -0.633102 -0.0408867 0.804488 -0.592559 -0.112893 0.810639 -0.574561 
-0.170306 0.836675 -0.520548 0.342918 0.657516 -0.67088 0.274453 0.691127 -0.668595 
0.177658 0.715308 -0.675849 0.177988 0.715085 -0.675999 0.126584 0.689899 -0.712752 
0.069618 0.682642 -0.727429 0.0597332 0.656972 -0.751545 0.0334021 0.623634 -0.781002 
-0.0251428 0.605548 -0.795412 -0.0338627 0.629057 -0.776621 -0.0349336 0.648386 -0.76051 
-0.088208 0.703305 -0.705395 -0.254823 0.851312 -0.45862 -0.146404 0.788477 -0.597386 
-0.280141 0.848629 -0.44872 -0.453963 0.758475 -0.467582 0.426296 0.626983 -0.652045 
0.540279 0.534844 -0.649647 0.333728 0.624791 -0.705877 0.238947 0.54978 -0.800404 
0.159896 0.50675 -0.847135 0.064741 0.418187 -0.906051 0.0314162 0.3653 -0.930359 
0.0144303 0.330376 -0.943739 6.81935e-05 0.304817 -0.952411 -0.0163374 0.307343 -0.951458 
-0.0225182 0.327554 -0.944564 -0.00268794 0.31134 -0.950295 0.0174656 0.349543 -0.936757 
-0.108066 0.430106 -0.896287 -0.203093 0.467652 -0.860265 -0.549955 0.692263 -0.467249 
-0.41186 0.615487 -0.671972 -0.602811 0.630281 -0.48925 0.581339 0.503925 -0.63883 
0.650966 0.404044 -0.642644 0.474998 0.464757 -0.747247 0.319452 0.423864 -0.84752 
-0.302652 0.260704 -0.916752 -0.738651 0.475648 -0.477654 -0.495067 0.424622 -0.758027 
-0.835119 0.369365 -0.407609 0.678339 0.333581 -0.65466 0.638628 0.323292 -0.69831 
0.453662 0.228105 -0.861486 -0.288748 0.225809 -0.930395 -0.85699 0.293695 -0.423451 
-0.777001 0.227443 -0.586975 0.729577 0.0505662 -0.682026 0.58148 0.0378073 -0.812682 
0.377958 -0.00669995 -0.925799 -0.454561 -0.0567913 -0.888903 -0.78529 0.00985961 -0.61905 
-0.697424 -0.0507395 -0.71486 0.672419 -0.245922 -0.698123 0.616802 -0.408175 -0.673015 
0.585392 -0.231708 -0.776934 0.389638 -0.236661 -0.890041 0.0499932 -0.214375 -0.975471 
0.0155425 -0.312694 -0.949727 -0.438043 -0.253338 -0.862518 -0.711617 -0.238438 -0.660869 
-0.673276 -0.33567 -0.658806 -0.642279 -0.242365 -0.727143 0.556508 -0.493768 -0.6682 
0.431789 -0.539915 -0.72253 0.336066 -0.445139 -0.830007 0.203041 -0.437288 -0.876101 
0.0628072 -0.397167 -0.915594 -0.0540502 -0.378192 -0.924148 -0.0504184 -0.343752 -0.937706 
-0.0402064 -0.341744 -0.938933 -0.0862946 -0.517235 -0.851482 -0.0221792 -0.44468 -0.895415 
-0.0313153 -0.354809 -0.934414 -0.105592 -0.460214 -0.881506 -0.0154356 -0.500444 -0.865632 
0.083932 -0.550785 -0.830416 0.145484 -0.487532 -0.860899 0.149143 -0.433044 -0.888948 
0.0159593 -0.380698 -0.924562 -0.090245 -0.398994 -0.912502 -0.208301 -0.430128 -0.878408 
-0.561356 -0.480073 -0.674099 -0.447634 -0.574814 -0.684991 -0.382763 -0.417676 -0.824038 
0.302722 -0.609694 -0.732552 0.180626 -0.655494 -0.733281 0.187907 -0.609144 -0.770477 
0.119465 -0.613128 -0.780898 0.0964722 -0.578455 -0.809989 0.0416843 -0.600963 -0.798189 
0.0176788 -0.51409 -0.857554 -0.0395416 -0.570294 -0.820488 -0.043841 -0.476349 -0.878163 
-0.114926 -0.562496 -0.818774 -0.111073 -0.497322 -0.860426 -0.0855044 -0.543843 -0.83482 
-0.0872913 -0.533841 -0.841067 0.0509033 -0.508741 -0.859414 0.0501205 -0.494833 -0.867542 
-0.101279 -0.467299 -0.878279 -0.0358152 -0.544155 -0.83822 -0.0489808 -0.48426 -0.873552 
0.0894767 -0.575996 -0.812541 0.107582 -0.623761 -0.774176 0.120656 -0.600544 -0.790436 
0.0455313 -0.66564 -0.744883 0.0659912 -0.627465 -0.775843 -0.0483886 -0.704006 -0.708544 
-0.0535545 -0.621332 -0.781715 -0.341425 -0.641181 -0.687253 -0.293088 -0.662076 -0.689749 
-0.292506 -0.608993 -0.73727 0.206309 0.419737 -0.883888 0.114257 0.4203 -0.900163 
0.0412108 0.36834 -0.928777 0.0232535 0.329185 -0.943979 0.013118 0.311771 -0.950067 
8.03475e-05 0.300582 -0.953756 -0.015735 0.292123 -0.956251 -0.0231149 0.295421 -0.955088 
-0.00360526 0.253157 -0.967419 0.0187374 0.303938 -0.952507 -0.0950548 0.397073 -0.912851 
-0.167276 0.325868 -0.930499 0.252361 0.39699 -0.882447 0.283962 0.332376 -0.899384 
0.191778 0.374872 -0.907024 0.0533945 0.304677 -0.950958 -0.0220026 0.236835 -0.971301 
-0.0242098 0.128557 -0.991407 0.000367699 0.123695 -0.99232 0.00354007 0.130192 -0.991483 
-0.00905079 0.129892 -0.991487 -0.0258013 0.153136 -0.987868 -0.00595129 0.12788 -0.991772 
0.012003 0.137027 -0.990495 0.0124812 0.152263 -0.988261 -0.247416 0.247109 -0.936869 
-0.146503 0.235945 -0.96066 -0.233757 0.185514 -0.954433 0.389694 0.219037 -0.894517 
0.236284 0.199278 -0.95103 0.126239 0.158035 -0.979331 0.00328429 0.0971446 -0.995265 
-0.110527 0.0584949 -0.99215 -0.0870385 -0.0256241 -0.995875 0.0106339 0.0203721 -0.999736 
0.00624939 0.0399757 -0.999181 0.0071289 0.00915914 -0.999933 -0.0263618 0.0973184 -0.994904 
-0.0157828 0.0216401 -0.999641 0.0550238 0.0404176 -0.997667 -0.0126302 0.0744808 -0.997142 
-0.0937616 0.0201062 -0.995392 -0.20519 0.173594 -0.963204 -0.144719 0.112589 -0.983046 
0.348406 -0.0160676 -0.937206 0.246316 -0.0350808 -0.968554 0.0944386 -0.0825734 -0.9921 
-0.0456694 -0.130045 -0.990456 -0.152375 -0.163953 -0.974629 0.0455528 -0.210987 -0.976427 
-0.0660673 -0.123519 -0.99014 0.0703191 -0.0172868 -0.997375 -0.010188 -0.0831578 -0.996484 
0.0169484 -0.307356 -0.951444 0.0521537 -0.123858 -0.990928 -0.0179557 -0.0737432 -0.997116 
-0.0612823 -0.0776498 -0.995095 0.0663254 -0.061368 -0.995909 -0.00470694 -0.0601827 -0.998176 
-0.0994079 -0.00143901 -0.995046 -0.342368 -0.0524146 -0.938103 -0.144718 -0.0409081 -0.988627 
0.299042 -0.263713 -0.917076 0.186447 -0.337698 -0.922604 0.180045 -0.291615 -0.939439 
0.0472346 -0.349106 -0.935892 0.0199214 -0.27875 -0.960157 -0.0702026 -0.343022 -0.9367 
-0.0803569 -0.31029 -0.94724 0.0416734 -0.21907 -0.974819 -0.0742141 -0.29917 -0.951309 
-0.0876163 -0.286654 -0.954019 0.0498037 -0.215412 -0.975252 -0.0120538 -0.364454 -0.931143 
0.0542608 -0.253763 -0.965743 0.00490745 -0.319534 -0.947562 -0.0984623 -0.397537 -0.912288 
-0.10457 -0.38002 -0.919048 0.0159971 -0.321703 -0.946705 0.0179441 -0.458025 -0.888758 
0.0188646 -0.433833 -0.900796 0.0228977 -0.311414 -0.949999 0.00916962 -0.293133 -0.956028 
0.104577 -0.299582 -0.948322 0.0723886 -0.216354 -0.973628 0.0215833 -0.314542 -0.948998 
0.0468879 -0.208313 -0.976938 -0.0846207 -0.310339 -0.946852 -0.0774468 -0.196364 -0.977468 
-0.217305 -0.199008 -0.955602 -0.192711 -0.207619 -0.95904 -0.189325 -0.188275 -0.963695 

