# vtk DataFile Version 4.2
vtk output
ASCII
DATASET POLYDATA
POINTS 540 float
-11.7282 29.0096 -26.9759 29.3052 -12.0238 -18.9432 37.5119 -12.0238 -19.4564 
45.7186 -12.0238 -18.3563 -11.7282 -3.81711 -21.8076 4.68516 -3.81711 -18.3688 
21.0985 -3.81711 -18.3643 29.3052 -3.81711 -20.5018 37.5119 -3.81711 -20.9593 
45.7186 -3.81711 -19.7057 -36.3482 4.38956 -18.6913 -28.1416 4.38956 -18.8984 
-19.9349 4.38956 -19.0588 -11.7282 4.38956 -23.1189 -3.52152 4.38956 -21.9341 
4.68516 4.38956 -22.1624 12.8918 4.38956 -18.3974 21.0985 4.38956 -19.1488 
29.3052 4.38956 -20.6088 37.5119 4.38956 -21.2667 45.7186 4.38956 -19.9399 
-36.3482 12.5962 -20.0521 -28.1416 12.5962 -21.4306 -19.9349 12.5962 -23.0408 
-11.7282 12.5962 -24.5891 -3.52152 12.5962 -23.6663 4.68516 12.5962 -22.1158 
12.8918 12.5962 -20.7804 21.0985 12.5962 -20.5955 29.3052 12.5962 -21.2864 
37.5119 12.5962 -20.8601 45.7186 12.5962 -18.2957 -36.3482 20.8029 -21.082 
-28.1416 20.8029 -23.7433 -19.9349 20.8029 -25.6712 -11.7282 24.6912 -26.3982 
-11.7282 20.8029 -25.8887 -3.52152 20.8029 -25.0972 4.68516 20.8029 -24.1064 
12.8918 20.8029 -23.3757 21.0985 20.8029 -22.2929 29.3052 20.8029 -20.9087 
37.5119 20.8029 -19.1453 -36.3482 29.0096 -20.9298 -28.1416 29.0096 -24.2101 
-16.8817 29.0096 -26.3982 -19.9349 29.0096 -26.0575 -7.96387 29.0096 -26.3982 
-11.7282 31.3326 -26.3982 -3.52152 29.0096 -25.7336 4.68516 29.0096 -25.1761 
12.8918 29.0096 -24.5228 21.0985 29.0096 -22.8566 29.3052 29.0096 -19.452 
-28.1416 37.2163 -21.4908 -19.9349 37.2163 -23.7824 -11.7282 37.2163 -24.7874 
-3.52152 37.2163 -24.8453 4.68516 37.2163 -24.3631 12.8918 37.2163 -22.4385 
21.0985 37.2163 -18.7679 -44.5549 -28.4372 -10.8209 -36.3482 -28.4372 -13.4006 
-28.1416 -28.4372 -13.4723 -19.9349 -28.4372 -12.5617 -11.7282 -28.4372 -11.9649 
-3.52152 -28.4372 -12.4039 4.68516 -28.4372 -12.0505 12.8918 -28.4372 -11.018 
21.0985 -28.4372 -11.2228 29.3052 -28.4372 -11.6858 37.5119 -28.4372 -11.1569 
-52.7616 -20.2305 -11.415 -44.5549 -20.2305 -15.3496 -36.3482 -20.2305 -15.5768 
-28.1416 -20.2305 -15.5565 -19.9349 -20.2305 -14.5221 -11.7282 -20.2305 -13.408 
-3.52152 -20.2305 -14.4387 4.68516 -20.2305 -14.9772 12.8918 -20.2305 -13.888 
21.0985 -20.2305 -15.0355 29.3052 -14.4105 -18.1915 29.3052 -20.2305 -16.2599 
37.5119 -16.8789 -18.1915 37.5119 -20.2305 -17.2276 45.7186 -12.4061 -18.1915 
45.7186 -20.2305 -14.5933 -52.7616 -12.0238 -12.9818 -44.5549 -12.0238 -15.7714 
-36.3482 -12.0238 -16.6207 -28.1416 -12.0238 -16.734 -19.9349 -12.0238 -15.7206 
-11.7282 -10.4603 -18.1915 -11.7282 -12.0238 -17.1996 -3.52152 -12.0238 -17.9067 
4.68516 -5.87564 -18.1915 4.68516 -12.0238 -17.7522 12.8918 -12.0238 -16.3958 
24.8996 -12.0238 -18.1915 21.0985 -5.48412 -18.1915 21.0985 -12.0238 -17.5206 
46.0938 -12.0238 -18.1915 53.9252 -12.0238 -13.8403 -52.7616 -3.81711 -13.8106 
-44.5549 -3.81711 -16.7667 -36.3482 0.824427 -18.1915 -36.3482 -3.81711 -17.5517 
-28.1416 1.02658 -18.1915 -28.1416 -3.81711 -17.1742 -17.2927 -3.81711 -18.1915 
-19.9349 1.71146 -18.1915 -19.9349 -3.81711 -16.6535 -4.65787 -3.81711 -18.1915 
2.84407 -3.81711 -18.1915 -3.52152 -2.71895 -18.1915 -3.52152 -3.81711 -17.4705 
6.56498 -3.81711 -18.1915 19.0921 -3.81711 -18.1915 12.8918 2.31001 -18.1915 
12.8918 -3.81711 -17.6862 49.5303 -3.81711 -18.1915 53.9252 -3.81711 -15.829 
-52.7616 4.38956 -13.7432 -39.5869 4.38956 -18.1915 -44.5549 4.38956 -17.3748 
49.5605 4.38956 -18.1915 53.9252 4.38956 -15.484 -52.7616 12.5962 -13.1274 
-42.9587 12.5962 -18.1915 -44.5549 12.5962 -17.7443 45.9162 12.5962 -18.1915 
45.7186 12.8996 -18.1915 53.9252 12.5962 -12.3092 -42.4379 20.8029 -18.1915 
-44.5549 20.8029 -16.9427 39.6441 20.8029 -18.1915 37.5119 22.994 -18.1915 
45.7186 20.8029 -14.5265 -39.9498 29.0096 -18.1915 -44.5549 29.0096 -11.2385 
-36.3482 33.5094 -18.1915 31.6799 29.0096 -18.1915 29.3052 30.7725 -18.1915 
37.5119 29.0096 -14.0489 -32.6595 37.2163 -18.1915 -36.3482 37.2163 -11.0476 
-28.1416 40.5285 -18.1915 -19.9349 43.3397 -18.1915 -11.7282 44.3947 -18.1915 
-3.52152 44.3016 -18.1915 4.68516 43.7011 -18.1915 12.8918 41.574 -18.1915 
21.9105 37.2163 -18.1915 21.0985 37.7588 -18.1915 29.3052 37.2163 -10.207 
-11.7282 45.423 -14.1399 -3.52152 45.423 -13.9255 4.68516 45.423 -10.5992 
-44.5549 -29.636 -9.98484 -44.5549 -36.6438 -1.9977 -36.3482 -34.7836 -9.98484 
-36.3482 -36.6438 -8.23327 -28.1416 -35.9212 -9.98484 -28.1416 -36.6438 -9.44995 
-19.9349 -34.6194 -9.98484 -19.9349 -36.6438 -8.8382 -11.7282 -32.7972 -9.98484 
-11.7282 -36.6438 -7.93214 -3.52152 -33.9316 -9.98484 -3.52152 -36.6438 -8.50382 
4.68516 -32.9864 -9.98484 4.68516 -36.6438 -7.99362 12.8918 -30.5194 -9.98484 
12.8918 -36.6438 -6.43385 21.0985 -30.3747 -9.98484 21.0985 -36.6438 -5.0814 
29.3052 -30.5271 -9.98484 29.3052 -36.6438 -3.64636 37.5119 -29.5472 -9.98484 
-46.1371 -28.4372 -9.98484 -52.7616 -22.8951 -9.98484 -52.7616 -28.4372 -3.90696 
40.8408 -28.4372 -9.98484 45.7186 -26.4146 -9.98484 45.7186 -28.4372 -7.203 
-54.3816 -20.2305 -9.98484 53.2787 -20.2305 -9.98484 53.9252 -19.3434 -9.98484 
53.9252 -20.2305 -9.16923 -56.2661 -12.0238 -9.98484 -60.9683 -12.0238 -1.79292 
57.4001 -12.0238 -9.98484 -57.1294 -3.81711 -9.98484 -60.9683 -3.81711 -2.70039 
59.1924 -3.81711 -9.98484 62.1319 -3.81711 -2.85936 -56.5007 4.38956 -9.98484 
58.7673 4.38956 -9.98484 -55.4581 12.5962 -9.98484 -52.7616 17.9166 -9.98484 
55.8114 12.5962 -9.98484 53.9252 15.9654 -9.98484 -51.1248 20.8029 -9.98484 
-52.7616 20.8029 -4.20085 50.5111 20.8029 -9.98484 45.7186 25.7281 -9.98484 
-45.2913 29.0096 -9.98484 -44.5549 29.8085 -9.98484 41.8928 29.0096 -9.98484 
37.5119 31.9849 -9.98484 -36.7932 37.2163 -9.98484 -36.3482 37.5587 -9.98484 
-36.3482 37.2163 -8.0452 -28.1416 42.3251 -9.98484 -19.9349 44.8824 -9.98484 
12.8918 43.8554 -9.98484 21.0985 40.8495 -9.98484 29.4976 37.2163 -9.98484 
29.3052 37.32 -9.98484 -16.8563 45.423 -9.98484 -11.7282 46.2902 -9.98484 
-11.7282 45.423 -6.76633 -3.52152 46.2388 -9.98484 -3.52152 45.423 -6.5487 
5.28896 45.423 -9.98484 4.68516 45.5419 -9.98484 4.68516 45.423 -9.47494 
-44.5549 -36.7739 -1.77816 -36.3482 -39.9555 -1.77816 -28.1416 -41.9278 -1.77816 
-19.9349 -42.0263 -1.77816 -11.7282 -42.3294 -1.77816 -3.52152 -43.0775 -1.77816 
4.68516 -42.7397 -1.77816 12.8918 -41.1672 -1.77816 21.0985 -39.2863 -1.77816 
29.3052 -37.858 -1.77816 -44.7668 -36.6438 -1.77816 -52.7616 -30.0354 -1.77816 
-44.5549 -36.6438 -0.597197 32.8492 -36.6438 -1.77816 37.5119 -35.0663 -1.77816 
45.7186 -31.4091 -1.77816 -54.0781 -28.4372 -1.77816 -52.7616 -28.4372 2.21448 
50.0619 -28.4372 -1.77816 53.9252 -24.9688 -1.77816 -58.4067 -20.2305 -1.77816 
-60.9683 -12.0438 -1.77816 57.6862 -20.2305 -1.77816 -60.9741 -12.0238 -1.77816 
-60.9683 -12.0238 -1.73565 61.0828 -12.0238 -1.77816 62.1319 -6.07191 -1.77816 
-61.3022 -3.81711 -1.77816 -60.9683 -0.773842 -1.77816 -60.9683 -3.81711 0.774343 
62.5117 -3.81711 -1.77816 62.1319 0.705803 -1.77816 -60.3933 4.38956 -1.77816 
61.8234 4.38956 -1.77816 -58.1756 12.5962 -1.77816 58.819 12.5962 -1.77816 
53.9252 20.4617 -1.77816 -53.3603 20.8029 -1.77816 -52.7616 21.5483 -1.77816 
-52.7616 20.8029 0.72361 53.6693 20.8029 -1.77816 45.7186 28.1587 -1.77816 
-45.9875 29.0096 -1.77816 -44.5549 30.2772 -1.77816 -44.5549 29.0096 1.03339 
-36.3482 35.8862 -1.77816 44.5812 29.0096 -1.77816 37.5119 33.4461 -1.77816 
-33.972 37.2163 -1.77816 -28.1416 39.9677 -1.77816 -28.1416 37.2163 2.37854 
-19.9349 42.4687 -1.77816 -19.9349 37.2163 6.38941 -11.7282 43.9569 -1.77816 
-3.52152 44.1962 -1.77816 4.68516 43.5204 -1.77816 12.8918 42.0715 -1.77816 
21.0985 39.9113 -1.77816 21.0985 37.2163 4.50658 29.8176 37.2163 -1.77816 
29.3052 37.4578 -1.77816 29.3052 37.2163 -1.06077 -36.3482 -40.3489 6.42852 
-28.1416 -42.85 6.42852 -19.9349 -43.494 6.42852 -11.7282 -44.1769 6.42852 
-3.52152 -44.8374 6.42852 4.68516 -44.7988 6.42852 12.8918 -43.7151 6.42852 
21.0985 -41.5943 6.42852 29.3052 -39.155 6.42852 -43.3143 -36.6438 6.42852 
-44.5549 -35.7048 6.42852 -36.3482 -36.6438 13.2971 36.2209 -36.6438 6.42852 
29.3052 -36.6438 12.9184 37.5119 -36.1605 6.42852 45.7186 -31.7377 6.42852 
-51.3416 -28.4372 6.42852 -52.7616 -26.0316 6.42852 -44.5549 -28.4372 13.9822 
50.2224 -28.4372 6.42852 45.7186 -28.4372 12.5894 53.9252 -24.7572 6.42852 
-56.1644 -20.2305 6.42852 -52.7616 -20.2305 10.3077 57.6215 -20.2305 6.42852 
53.9252 -20.2305 12.3944 -59.4951 -12.0238 6.42852 -52.7616 -12.0238 13.7285 
61.1036 -12.0238 6.42852 62.1319 -7.31545 6.42852 -60.0653 -3.81711 6.42852 
62.7822 -3.81711 6.42852 62.1319 2.70477 6.42852 62.1319 -3.81711 7.97492 
-59.2903 4.38956 6.42852 61.9307 4.38956 6.42852 -56.7979 12.5962 6.42852 
-52.7616 18.3639 6.42852 -52.7616 12.5962 11.3926 58.1767 12.5962 6.42852 
53.9252 19.0123 6.42852 53.9252 12.5962 12.9558 -50.6258 20.8029 6.42852 
-44.5549 25.8479 6.42852 -44.5549 20.8029 12.1137 52.2693 20.8029 6.42852 
45.7186 26.2184 6.42852 45.7186 20.8029 12.5837 -39.1447 29.0096 6.42852 
-36.3482 30.5536 6.42852 -36.3482 29.0096 8.20967 -28.1416 34.1833 6.42852 
-28.1416 29.0096 12.1744 -19.9349 37.1853 6.42852 -19.9349 29.0096 14.1906 
-3.52152 29.0096 13.7367 4.68516 29.0096 12.8107 12.8918 29.0096 13.0729 
21.0985 36.1315 6.42852 21.0985 29.0096 12.6896 29.3052 34.0582 6.42852 
29.3052 29.0096 11.9364 41.0254 29.0096 6.42852 37.5119 30.8314 6.42852 
37.5119 29.0096 8.74411 -19.8041 37.2163 6.42852 -11.7282 38.945 6.42852 
-11.7282 37.2163 8.30797 -3.52152 39.2652 6.42852 -3.52152 37.2163 8.53332 
4.68516 38.681 6.42852 4.68516 37.2163 7.92852 15.4028 37.2163 6.42852 
12.8918 37.6503 6.42852 12.8918 37.2163 6.91193 -28.1416 -39.0547 14.6352 
-19.9349 -40.7623 14.6352 -11.7282 -41.6364 14.6352 -3.52152 -41.8275 14.6352 
4.68516 -41.4493 14.6352 12.8918 -40.2515 14.6352 21.0985 -38.2051 14.6352 
-34.1646 -36.6438 14.6352 -36.3482 -35.3269 14.6352 -28.1416 -36.6438 17.2747 
-19.9349 -36.6438 19.4377 -11.7282 -36.6438 20.1173 -3.52152 -36.6438 19.1893 
4.68516 -36.6438 18.7317 12.8918 -36.6438 18.141 26.5704 -36.6438 14.6352 
[...]
POINT_DATA 540
SCALARS ImageScalars float
LOOKUP_TABLE default
0 0 0 0 0 0 0 0 0 
0 0 0 0 0 0 0 0 0 
0 0 0 0 0 0 0 0 0 
0 0 0 0 0 0 0 0 0 
0 0 0 0 0 0 0 0 0 
0 0 0 0 0 0 0 0 0 
0 0 0 0 0 0 0 0 0 
0 0 0 0 0 0 0 0 0 
0 0 0 0 0 0 0 0 0 
0 0 0 0 0 0 0 0 0 
0 0 0 0 0 0 0 0 0 
0 0 0 0 0 0 0 0 0 
0 0 0 0 0 0 0 0 0 
0 0 0 0 0 0 0 0 0 
0 0 0 0 0 0 0 0 0 
0 0 0 0 0 0 0 0 0 
0 0 0 0 0 0 0 0 0 
0 0 0 0 0 0 0 0 0 
0 0 0 0 0 0 0 0 0 
0 0 0 0 0 0 0 0 0 
0 0 0 0 0 0 0 0 0 
0 0 0 0 0 0 0 0 0 
0 0 0 0 0 0 0 0 0 
0 0 0 0 0 0 0 0 0 
0 0 0 0 0 0 0 0 0 
0 0 0 0 0 0 0 0 0 
0 0 0 0 0 0 0 0 0 
0 0 0 0 0 0 0 0 0 
0 0 0 0 0 0 0 0 0 
0 0 0 0 0 0 0 0 0 
0 0 0 0 0 0 0 0 0 
0 0 0 0 0 0 0 0 0 
0 0 0 0 0 0 0 0 0 
0 0 0 0 0 0 0 0 0 
0 0 0 0 0 0 0 0 0 
0 0 0 0 0 0 0 0 0 
0 0 0 0 0 0 0 0 0 
0 0 0 0 0 0 0 0 0 
0 0 0 0 0 0 0 0 0 
0 0 0 0 0 0 0 0 0 
0 0 0 0 0 0 0 0 0 
0 0 0 0 0 0 0 0 0 
0 0 0 0 0 0 0 0 0 
0 0 0 0 0 0 0 0 0 
0 0 0 0 0 0 0 0 0 
0 0 0 0 0 0 0 0 0 
0 0 0 0 0 0 0 0 0 
0 0 0 0 0 0 0 0 0 
0 0 0 0 0 0 0 0 0 
0 0 0 0 0 0 0 0 0 
0 0 0 0 0 0 0 0 0 
0 0 0 0 0 0 0 0 0 
0 0 0 0 0 0 0 0 0 
0 0 0 0 0 0 0 0 0 
0 0 0 0 0 0 0 0 0 
0 0 0 0 0 0 0 0 0 
0 0 0 0 0 0 0 0 0 
0 0 0 0 0 0 0 0 0 
0 0 0 0 0 0 0 0 0 
0 0 0 0 0 0 0 0 0 

NORMALS Normals float
-0.0213992 -0.0520831 0.998413 0.112183 0.243099 0.963493 -0.0297135 0.232684 0.972098 
-0.268181 0.284127 0.920516 0.0768043 0.338905 0.93768 -0.000648385 0.315533 0.948914 
0.172731 0.0950718 0.98037 0.152733 0.0993181 0.983264 -0.0479166 0.104044 0.993418 
-0.274294 0.0867342 0.957727 0.0867896 0.148871 0.985041 0.0202222 0.242324 0.969985 
0.233922 0.366714 0.900445 0.154845 0.169958 0.97321 -0.0565588 0.343961 0.937279 
-0.185701 0.20055 0.961923 -0.197213 0.196959 0.960372 0.122928 0.128716 0.984033 
0.130477 0.048974 0.990241 -0.0435446 -0.00286665 0.999047 -0.30198 -0.0783079 0.950092 
0.201215 0.139632 0.969544 0.172152 0.284087 0.943217 0.184072 0.358128 0.915348 
0.0333732 0.159479 0.986637 -0.14779 0.177748 0.972915 -0.172289 0.116714 0.978108 
-0.0907389 0.276094 0.956838 0.0319225 0.189484 0.981365 0.0144258 0.0158062 0.999771 
-0.179473 -0.130381 0.975085 -0.385707 -0.257624 0.885923 0.346093 0.0532524 0.936688 
0.25811 0.158639 0.953002 0.122543 0.174416 0.977017 -0.0284444 0.0492368 0.998382 
-0.0342201 0.141657 0.989324 -0.107796 0.125151 0.986264 -0.102237 0.183135 0.977757 
-0.108338 0.220031 0.969458 -0.146803 0.125616 0.981157 -0.182833 -0.0926023 0.978773 
-0.303474 -0.292408 0.906863 0.553646 -0.249267 0.794571 0.306028 -0.10306 0.946428 
0.0977206 -0.0821181 0.99182 0.165764 -0.0978336 0.981301 -0.0614192 -0.0314975 0.997615 
0.00226285 -0.155884 0.987773 -0.107045 -0.00738396 0.994227 -0.0727299 0.020416 0.997143 
-0.133604 -0.0384768 0.990288 -0.286423 -0.151287 0.946083 -0.430564 -0.383533 0.817017 
0.412096 -0.562448 0.716819 0.173995 -0.483347 0.857964 0.0606166 -0.457239 0.887276 
-0.0241464 -0.360347 0.932506 -0.130304 -0.367487 0.920855 -0.290133 -0.509052 0.810364 
-0.473703 -0.646033 0.598538 0.33059 0.493327 0.804574 0.135084 0.383667 0.913538 
-0.0481584 0.355505 0.933433 -0.0915247 0.31539 0.944538 -0.00730195 0.282175 0.959335 
0.00393008 0.31956 0.947558 -0.0775057 0.362091 0.928915 -0.0500559 0.391727 0.918719 
0.0333149 0.489291 0.871484 0.000519977 0.594449 0.804133 -0.149196 0.691406 0.706894 
0.58073 0.300098 0.756765 0.24112 0.24748 0.938411 0.0100962 0.177514 0.984066 
-0.0581666 0.190983 0.979868 -0.134198 0.186207 0.973303 -0.00517864 0.256049 0.96665 
0.0930473 0.329979 0.939391 -0.0347857 0.350937 0.935753 0.00321359 0.30589 0.952061 
0.138853 0.345451 0.928107 0.115699 0.277169 0.95383 0.120082 0.37516 0.919149 
-0.0581865 0.322938 0.94463 -0.0783679 0.394963 0.915348 -0.270928 0.292887 0.91696 
-0.351123 0.474754 0.807045 0.501281 0.145368 0.852986 0.19239 0.0797042 0.978076 
0.0555839 0.115767 0.99172 -0.0545713 0.103082 0.993175 0.00673177 0.128448 0.991693 
0.134442 0.501157 0.854849 0.143284 0.4969 0.855897 0.024464 0.190012 0.981477 
-0.0248966 0.278656 0.960068 -0.0875994 0.18187 0.979413 -0.0186509 0.227738 0.973544 
0.13299 0.215861 0.967325 0.169557 0.113898 0.978917 0.152414 0.191837 0.96952 
-0.281714 0.284833 0.916246 -0.631673 0.281254 0.722416 0.527765 0.0396783 0.848463 
0.192812 0.094537 0.976671 0.0591295 0.137736 0.988702 0.0222966 0.124181 0.992009 
-0.0129361 0.195323 0.980654 -0.0537303 0.129736 0.990092 0.217769 0.26298 0.939903 
0.242165 0.321945 0.915264 0.227597 0.200017 0.952992 -0.192049 0.294704 0.936091 
-0.0495487 0.308668 0.949878 -0.206017 0.297579 0.932204 -0.222359 0.260131 0.939621 
0.000955723 0.268474 0.963286 0.133136 0.101683 0.985868 -0.147379 0.179587 0.97264 
0.00850832 0.122741 0.992402 -0.406154 0.0828699 0.910039 -0.597002 0.0710613 0.799086 
0.595588 -0.032595 0.802629 0.14663 0.11406 0.982593 0.250447 0.0594756 0.966302 
-0.4426 -0.109261 0.890038 -0.634383 -0.14932 0.75846 0.704153 -0.229283 0.67201 
0.322981 0.0183931 0.946227 0.357654 -0.0151894 0.933731 -0.391206 -0.259864 0.882853 
-0.390059 -0.263672 0.882231 -0.719835 -0.365067 0.590393 0.534835 -0.120541 0.836314 
0.619247 -0.223638 0.752674 -0.358119 -0.322348 0.876266 -0.349032 -0.359256 0.865513 
-0.564083 -0.478348 0.673048 0.646161 -0.335793 0.685361 0.742107 -0.591432 0.315413 
0.614391 -0.509409 0.602516 -0.441968 -0.450031 0.775975 -0.458781 -0.477761 0.749176 
-0.490039 -0.653191 0.577238 0.551309 -0.661017 0.509034 0.594466 -0.795913 0.114598 
0.442285 -0.759457 0.477085 0.20125 -0.85736 0.473743 0.0492992 -0.887875 0.457436 
-0.0388207 -0.886191 0.46169 -0.146263 -0.876574 0.458503 -0.31142 -0.794867 0.520773 
-0.484175 -0.660542 0.573811 -0.47777 -0.67437 0.562993 -0.452912 -0.858103 0.241929 
0.0674128 -0.977356 0.200574 -0.0438568 -0.980777 0.190142 -0.141351 -0.989908 0.0101474 
0.359652 0.526948 0.77005 0.448573 0.867187 0.216261 0.219191 0.596851 0.771832 
0.248571 0.719411 0.648584 -0.000147566 0.613416 0.78976 0.0092667 0.650693 0.759284 
-0.0850851 0.517412 0.851496 -0.0688958 0.616477 0.784353 -0.0132825 0.433046 0.901274 
-0.010579 0.614339 0.788971 0.00379064 0.462502 0.88661 0.00243864 0.570496 0.821296 
-0.0939453 0.46307 0.881329 -0.103558 0.588285 0.801995 -0.0711256 0.437618 0.896344 
-0.140917 0.640187 0.755184 0.0018555 0.531343 0.847155 -0.121785 0.761064 0.637142 
-0.0423005 0.637461 0.76932 -0.215492 0.855676 0.470511 -0.165138 0.720278 0.673742 
0.383188 0.52536 0.759713 0.60114 0.416224 0.682194 0.751717 0.618658 0.228439 
-0.245787 0.715904 0.653506 -0.387975 0.672129 0.630649 -0.434458 0.764561 0.476123 
0.662422 0.317417 0.678559 -0.622653 0.513217 0.590687 -0.650101 0.488495 0.582015 
-0.66197 0.519203 0.540577 0.705144 0.15023 0.692967 0.977514 0.16619 0.1298 
-0.773817 0.274865 0.570663 0.720752 0.00925327 0.693131 0.985485 -0.0314178 0.166828 
-0.833552 0.0663979 0.548436 -0.972289 0.0429874 0.229798 0.75013 -0.0896902 0.65518 
-0.833334 -0.177618 0.523457 0.81021 -0.274506 0.517886 0.791946 -0.408172 0.454112 
-0.783244 -0.381188 0.491147 -0.750226 -0.460325 0.474617 0.776598 -0.472019 0.417246 
0.807717 -0.576033 0.125614 -0.687559 -0.563678 0.457745 -0.623065 -0.666208 0.409825 
0.742191 -0.619516 0.255643 0.735221 -0.634315 0.238946 -0.565489 -0.738303 0.367602 
-0.518842 -0.783104 0.342857 0.591919 -0.803508 0.0633026 0.583885 -0.809665 0.0593463 
0.575026 -0.817785 -0.0239292 0.415362 -0.908604 -0.0437388 0.231936 -0.971045 -0.0572403 
-0.269334 -0.962968 0.0122782 -0.38822 -0.917625 0.0851515 -0.452422 -0.860831 0.232989 
-0.450638 -0.86223 0.231267 0.173662 -0.983581 -0.0490921 0.0760158 -0.996602 -0.0317181 
0.0861818 -0.98258 -0.164647 -0.0452885 -0.998825 -0.0172255 -0.0380756 -0.987094 -0.155548 
-0.149429 -0.988607 -0.0181058 -0.140272 -0.989918 -0.0196597 -0.139681 -0.989423 -0.0391385 
0.446781 0.870611 0.205972 0.280334 0.928482 0.243584 0.123245 0.925461 0.358235 
0.0225143 0.912318 0.408863 0.0577809 0.889407 0.45345 0.0233859 0.89235 0.450738 
-0.100931 0.870595 0.481536 -0.192014 0.826219 0.529617 -0.180222 0.856244 0.484114 
-0.236695 0.894339 0.379649 0.452891 0.867405 0.206153 0.76575 0.630375 0.127488 
0.469399 0.872379 0.136454 -0.280301 0.891631 0.355564 -0.327971 0.888129 0.321966 
-0.493943 0.837067 0.235243 0.804287 0.585119 0.103724 0.816862 0.565895 -0.111799 
-0.599923 0.771304 0.21256 -0.729635 0.657036 0.18957 0.928178 0.356479 0.106811 
0.977546 0.166483 0.129182 -0.838333 0.513465 0.18317 0.97762 0.166091 0.12912 
0.977883 0.166273 0.126881 -0.950328 0.254073 0.179788 -0.977646 0.0962241 0.186945 
0.993219 -0.0343388 0.111071 0.98993 -0.0839344 0.113988 0.999225 -0.0303387 -0.0250874 
-0.981543 0.0401957 0.186971 -0.979861 -0.0949321 0.175668 0.978125 -0.172412 0.116384 
-0.965561 -0.20391 0.161595 0.915425 -0.393681 0.0837416 -0.901566 -0.415841 0.119396 
-0.777785 -0.623474 0.0795679 0.802608 -0.596483 0.00540505 0.791773 -0.610796 -0.00480914 
0.777668 -0.619309 -0.108116 -0.770225 -0.633147 0.0766708 -0.605802 -0.795584 0.00706711 
0.644195 -0.74982 -0.15094 0.615792 -0.769069 -0.17127 0.588198 -0.762419 -0.269704 
0.504147 -0.806394 -0.309136 -0.583159 -0.812338 -0.0056123 -0.463673 -0.883842 -0.0618881 
0.464239 -0.818724 -0.337894 0.352038 -0.844787 -0.402994 0.316261 -0.797879 -0.513195 
0.216357 -0.891795 -0.397355 0.224502 -0.750106 -0.622045 0.0928954 -0.920878 -0.378622 
-0.0249939 -0.933062 -0.358845 -0.121292 -0.92718 -0.354436 -0.207814 -0.924993 -0.318121 
-0.271467 -0.933022 -0.236168 -0.20244 -0.847445 -0.49077 -0.373876 -0.915159 -0.150667 
-0.368154 -0.916782 -0.154831 -0.362972 -0.913425 -0.184133 0.358576 0.91113 -0.203137 
0.186216 0.973366 -0.133725 0.0784753 0.994915 -0.063128 0.0814825 0.996088 -0.0342076 
0.0375634 0.998158 -0.0476492 -0.0665161 0.996781 -0.0447541 -0.195817 0.979849 -0.0394039 
-0.265537 0.96306 -0.0447889 -0.310526 0.946268 -0.0902756 0.526493 0.792298 -0.308333 
0.562796 0.753256 -0.340391 0.414362 0.705247 -0.575266 -0.376479 0.919984 -0.109056 
-0.302052 0.833575 -0.462512 -0.391654 0.912578 -0.117512 -0.550226 0.813529 -0.188208 
0.772084 0.508538 -0.381152 0.788503 0.461231 -0.406853 0.510754 0.451307 -0.731746 
-0.644634 0.736942 -0.20338 -0.514858 0.692327 -0.505574 -0.73919 0.634193 -0.226709 
0.812004 0.373382 -0.448593 0.728383 0.320207 -0.605744 -0.825267 0.521724 -0.21619 
-0.675932 0.511196 -0.530844 0.90038 0.188627 -0.392091 0.603921 0.19812 -0.772029 
-0.944744 0.259763 -0.199954 -0.971867 0.130542 -0.196043 0.930385 -0.0138093 -0.366324 
-0.979606 0.0426877 -0.196342 -0.960831 -0.18906 -0.202633 -0.962592 0.0413343 -0.267783 
0.929387 -0.150895 -0.336855 -0.946622 -0.249376 -0.204253 0.831543 -0.421403 -0.361877 
0.720456 -0.57625 -0.385848 0.691352 -0.397863 -0.603106 -0.845602 -0.461565 -0.268171 
-0.721011 -0.623871 -0.301543 -0.624983 -0.476185 -0.618582 0.656411 -0.640313 -0.398903 
0.517882 -0.712913 -0.472815 0.478242 -0.620312 -0.62169 -0.666526 -0.669901 -0.32707 
-0.515585 -0.767191 -0.381563 -0.387002 -0.61422 -0.687723 0.413728 -0.749443 -0.516879 
0.372441 -0.756187 -0.538024 0.355365 -0.742364 -0.567989 0.284103 -0.743279 -0.605658 
0.240995 -0.663927 -0.7079 0.224278 -0.749249 -0.623158 0.129505 -0.599706 -0.789672 
-0.119929 -0.48636 -0.865489 -0.0360342 -0.425885 -0.90406 -0.00491915 -0.475701 -0.879593 
-0.170972 -0.790832 -0.587667 -0.053648 -0.532734 -0.84458 -0.265124 -0.806014 -0.529199 
-0.174652 -0.620682 -0.764363 -0.435693 -0.786789 -0.437189 -0.377207 -0.79637 -0.472768 
-0.344866 -0.737509 -0.580644 0.222525 -0.749473 -0.623517 0.10067 -0.76229 -0.639359 
0.0907414 -0.720434 -0.687562 -0.0130554 -0.74713 -0.66455 -0.0189555 -0.676958 -0.735778 
-0.0820422 -0.736507 -0.671437 -0.0762147 -0.681031 -0.728277 -0.14176 -0.771534 -0.620193 
-0.125189 -0.759739 -0.638063 -0.120875 -0.745058 -0.655956 0.257453 0.771901 -0.581281 
0.134505 0.852058 -0.505871 0.0578105 0.861721 -0.504078 -0.00739779 0.80614 -0.591679 
-0.0795671 0.785492 -0.613736 -0.164059 0.780642 -0.603062 -0.223393 0.773965 -0.592515 
0.37405 0.680094 -0.630522 0.41795 0.624367 -0.659912 0.269699 0.670545 -0.691109 
0.134554 0.64663 -0.750843 -0.0188872 0.58069 -0.813905 -0.0711276 0.54322 -0.836572 
-0.0557754 0.536617 -0.841981 -0.123508 0.606668 -0.785302 -0.266203 0.772341 -0.576738 
-0.207772 0.712018 -0.670717 -0.287919 0.760611 -0.58187 -0.375101 0.671166 -0.639403 
0.490633 0.434735 -0.755172 0.502491 0.409961 -0.761206 0.413112 0.352561 -0.839666 
0.254999 0.308224 -0.916501 -0.0798979 0.186875 -0.979129 -0.0301604 0.214 -0.976368 
-0.0368966 0.268433 -0.962591 -0.0934949 0.34834 -0.932694 -0.207402 0.42273 -0.882204 
-0.449726 0.631456 -0.631673 -0.332013 0.555255 -0.762535 -0.480025 0.613669 -0.626886 
0.595324 0.247191 -0.764517 0.490722 0.235975 -0.838753 0.332943 0.130074 -0.933932 
-0.0738392 0.0148369 -0.99716 0.0384977 0.0583934 -0.997551 -0.0715476 0.192979 -0.978591 
-0.177832 0.306317 -0.935171 -0.585221 0.484415 -0.650275 -0.413934 0.406602 -0.814453 
-0.641073 0.416375 -0.644715 0.560972 0.187638 -0.806289 0.606033 0.0976727 -0.78942 
0.411289 0.116393 -0.904043 0.234781 0.0339928 -0.971454 -0.00780655 0.0597817 -0.998181 
-0.311394 0.152551 -0.937956 -0.732325 0.254347 -0.631671 -0.624953 0.260759 -0.735825 
0.624728 0.0532726 -0.779023 0.611738 0.0556373 -0.789102 0.357241 0.0480818 -0.932774 
0.150552 -0.00492518 -0.98859 -0.00139425 -0.0747575 -0.997201 0.0317506 -0.129925 -0.991015 
0.134329 -0.0794578 -0.987746 -0.0605082 -0.109496 -0.992144 0.0497685 0.0173489 -0.99861 
-0.275295 -0.00122598 -0.961359 -0.764318 0.0330524 -0.643992 -0.57429 0.026782 -0.818213 
0.6454 -0.13235 -0.752292 0.637079 -0.160872 -0.753824 0.63267 -0.131155 -0.763235 
0.340858 -0.0855525 -0.936214 0.123334 -0.0645802 -0.990262 -0.0165584 -0.0625331 -0.997906 
0.0118419 -0.0574657 -0.998277 0.0276179 -0.0360881 -0.998967 -0.0416244 -0.119233 -0.991993 
0.132504 -0.0244826 -0.99088 -0.0509344 -0.157552 -0.986196 -0.00430007 -0.224262 -0.974519 
-0.0614516 -0.236071 -0.969791 -0.259839 -0.192925 -0.946184 -0.728209 -0.246276 -0.639577 
-0.589282 -0.417387 -0.691762 -0.568476 -0.264432 -0.779045 0.549782 -0.375369 -0.746216 
0.446724 -0.518918 -0.728809 0.412671 -0.332718 -0.847939 0.162129 -0.262736 -0.951149 
0.00576968 -0.196073 -0.980572 0.0602206 -0.119777 -0.990973 0.0695939 -0.101826 -0.992365 
-0.0195797 -0.138902 -0.990113 0.0172713 -0.235573 -0.971703 -0.0941654 -0.38186 -0.919411 
-0.103302 -0.351052 -0.93064 -0.0266307 -0.359988 -0.932577 -0.0762742 -0.393443 -0.916179 
-0.524633 -0.46917 -0.71038 -0.339621 -0.546629 -0.765411 -0.308639 -0.44591 -0.840182 
0.352669 -0.574556 -0.738586 0.276461 -0.593978 -0.755486 0.245815 -0.530216 -0.811447 
0.198952 -0.583201 -0.787588 0.14021 -0.446276 -0.883843 0.126012 -0.580868 -0.804185 
0.109677 -0.34022 -0.933928 -0.010902 -0.380001 -0.924922 -0.140803 -0.48319 -0.864119 
-0.182879 -0.452112 -0.873012 -0.0536648 -0.457818 -0.887425 -0.0850533 -0.509961 -0.855982 
0.00852929 -0.458595 -0.888604 0.000983634 -0.476504 -0.879172 -0.0336336 -0.454543 -0.89009 
-0.0285957 -0.401052 -0.915609 -0.106135 -0.483995 -0.86861 -0.071253 -0.426789 -0.90154 
-0.224562 -0.538061 -0.812442 -0.181463 -0.532986 -0.826436 -0.165755 -0.514202 -0.8415 
0.053063 -0.585911 -0.808637 -0.0593416 -0.544878 -0.836413 -0.0218109 -0.577867 -0.815839 
-0.0279389 -0.569315 -0.821645 0.0915503 0.320079 -0.942957 -0.0719601 0.246868 -0.966374 
0.165998 0.271055 -0.948142 0.225608 0.181748 -0.957115 0.0782392 0.23636 -0.96851 
-0.0790988 0.186999 -0.97917 -0.0769006 0.189653 -0.978835 0.00852771 0.137555 -0.990457 
-0.0463481 0.159814 -0.986059 0.241313 0.0737723 -0.967639 0.194591 0.0500417 -0.979607 
0.0155956 -0.0298198 -0.999434 -0.0774786 0.0109336 -0.996934 -0.102166 -0.0143361 -0.994664 
0.0365334 0.0625859 -0.997371 0.0354706 0.012262 -0.999295 0.0304992 0.0757598 -0.99666 
-0.0620818 0.173368 -0.982899 -0.0350176 0.11455 -0.9928 -0.0624467 0.175462 -0.982504 
-0.131708 0.158285 -0.97857 0.109568 -0.0998505 -0.988951 0.106245 -0.100676 -0.98923 
0.108299 -0.101087 -0.988966 0.0202523 -0.158879 -0.98709 0.0154021 -0.166256 -0.985962 
-0.0180343 0.00449752 -0.999827 0.0817841 -0.0768567 -0.993682 -0.0311576 -0.0705341 -0.997023 
0.0155737 0.00674026 -0.999856 -0.0131819 0.0364308 -0.999249 0.0157888 -0.0451275 -0.998856 
0.0321536 -0.0325177 -0.998954 0.0385238 -0.00510971 -0.999245 0.0215287 -0.0413264 -0.998914 
0.0255027 -0.0135935 -0.999582 -0.00771185 0.0654262 -0.997828 -0.155221 0.108797 -0.98187 
-0.114829 0.101394 -0.988197 0.113182 -0.0778917 -0.990516 -0.0520533 -0.0895269 -0.994623 
-0.0376981 -0.0919272 -0.995052 -0.0386081 -0.0667796 -0.99702 0.0650215 -0.0216504 -0.997649 
0.0570115 0.00643897 -0.998353 0.0304349 -0.0845578 -0.995954 0.0744802 -0.0452301 -0.996196 
0.00486279 -0.195106 -0.98077 0.0473804 -0.0555669 -0.99733 -0.204808 -0.0146071 -0.978693 
-0.0695482 -0.186314 -0.980026 -0.0934581 -0.0387468 -0.994869 0.0929923 -0.025812 -0.995332 
-0.0154202 -0.121537 -0.992467 -0.00172553 -0.196197 -0.980563 0.0763262 -0.0234767 -0.996807 

