# vtk DataFile Version 4.2
vtk output
ASCII
DATASET POLYDATA
POINTS 528 float
5.0132 34.0599 -19.3783 -34.7846 -37.5762 -12.8483 -26.8251 -37.5762 -14.1173 
-18.8655 -37.5762 -12.6611 -42.7442 -29.6167 -13.8884 -34.7846 -29.6167 -15.0985 
-26.8251 -29.6167 -15.2054 -18.8655 -29.6167 -14.0754 -10.9059 -29.6167 -11.7027 
-42.7442 -21.6571 -15.4591 -34.7846 -21.6571 -17.2182 -26.8251 -21.6571 -16.3897 
-18.8655 -21.6571 -14.9091 -10.9059 -21.6571 -12.3306 -50.7038 -13.6975 -13.4633 
-42.7442 -13.6975 -16.1266 -34.7846 -13.6975 -16.971 -26.8251 -13.6975 -16.9495 
-18.8655 -13.6975 -15.441 -10.9059 -13.6975 -12.6101 -50.7038 -5.73796 -15.317 
-42.7442 -5.73796 -17.2821 -34.7846 -5.73796 -17.4392 -26.8251 -5.73796 -16.7681 
-18.8655 -5.73796 -15.3453 -10.9059 -5.73796 -14.5996 -2.94637 -5.73796 -15.3631 
5.0132 -5.73796 -13.5015 -50.7038 2.2216 -15.857 -42.7442 2.2216 -17.8062 
-34.7846 2.2216 -17.9577 -26.8251 2.2216 -17.3566 -18.8655 2.2216 -16.0915 
-10.9059 2.2216 -16.4926 -2.94637 2.2216 -16.7788 5.0132 2.2216 -16.1247 
12.9728 2.2216 -15.9734 28.8919 2.2216 -11.4221 -50.7038 10.1812 -14.6465 
-42.7442 10.1812 -17.4166 -34.7846 10.1812 -18.1374 -26.8251 10.1812 -17.876 
-18.8655 10.1812 -16.8321 -10.9059 10.1812 -15.6109 -2.94637 10.1812 -18.6897 
5.0132 10.1812 -16.5343 12.9728 10.1812 -17.1445 20.9323 10.1812 -16.0906 
28.8919 10.1812 -13.2769 -50.7038 18.1407 -11.5546 -42.7442 18.1407 -16.2652 
-34.7846 18.1407 -17.7604 -26.8251 18.1407 -18.1398 -18.8655 18.1407 -17.7078 
-10.9059 18.1407 -17.2259 -2.94637 18.1407 -17.5828 5.0132 18.1407 -16.7553 
12.9728 18.1407 -17.447 20.9323 18.1407 -17.7093 28.8919 18.1407 -15.0569 
-42.7442 26.1003 -14.3226 -34.7846 26.1003 -17.6002 -26.8251 26.1003 -17.9698 
-18.8655 26.1003 -18.1158 -10.9059 26.1003 -18.4654 -2.94637 26.1003 -18.6041 
5.0132 33.88 -19.3629 5.0132 26.1003 -18.6705 12.9728 26.1003 -18.711 
20.9323 26.1003 -18.7866 28.8919 26.1003 -15.6181 -42.7442 34.0599 -11.4974 
-34.7846 34.0599 -15.0359 -26.8251 34.0599 -17.4647 -18.8655 34.0599 -17.9998 
-10.9059 34.0599 -19.294 4.65691 34.0599 -19.3629 -2.94637 34.0599 -19.0625 
5.18584 34.0599 -19.3629 5.0132 34.1977 -19.3629 12.9728 34.0599 -18.6681 
20.9323 34.0599 -17.6146 28.8919 34.0599 -13.9557 -26.8251 42.0194 -13.9054 
-18.8655 42.0194 -16.5045 -10.9059 42.0194 -17.954 -2.94637 42.0194 -17.6386 
5.0132 42.0194 -18.3713 12.9728 42.0194 -17.4009 20.9323 42.0194 -15.4611 
-10.9059 49.979 -13.0794 -2.94637 49.979 -13.4459 5.0132 49.979 -13.2089 
12.9728 49.979 -12.6031 -34.7846 -40.8996 -11.4034 -34.7846 -45.5358 -8.79445 
-26.8251 -43.404 -11.4034 -26.8251 -45.5358 -10.0393 -18.8655 -39.8949 -11.4034 
-18.8655 -45.5358 -8.51283 -10.9059 -45.5358 -8.25419 -2.94637 -45.5358 -6.1736 
5.0132 -45.5358 -5.5748 -41.3953 -37.5762 -11.4034 -42.7442 -36.665 -11.4034 
-42.7442 -37.5762 -10.9137 -14.0744 -37.5762 -11.4034 -10.9059 -31.7814 -11.4034 
-10.9059 -37.5762 -10.6 -2.94637 -37.5762 -9.11599 5.0132 -37.5762 -8.25251 
12.9728 -37.5762 -7.0651 20.9323 -37.5762 -5.31947 28.8919 -37.5762 -4.90483 
-46.8327 -29.6167 -11.4034 -50.7038 -29.6167 -5.39657 -9.41322 -29.6167 -11.4034 
-2.94637 -29.6167 -10.2065 5.0132 -29.6167 -9.42699 12.9728 -29.6167 -8.80978 
20.9323 -29.6167 -8.47666 28.8919 -29.6167 -8.75375 36.8515 -29.6167 -8.7403 
44.811 -29.6167 -6.18239 -50.4453 -21.6571 -11.4034 -50.7038 -20.9663 -11.4034 
-50.7038 -21.6571 -11.1037 -7.92057 -21.6571 -11.4034 -2.94637 -21.6571 -9.89397 
5.0132 -21.6571 -9.39657 12.9728 -21.6571 -9.56218 20.9323 -21.6571 -10.3073 
28.8919 -21.6571 -10.9337 36.8515 -21.6571 -9.94452 44.811 -21.6571 -8.88132 
52.7706 -21.6571 -5.86632 -53.3135 -13.6975 -11.4034 -8.00949 -13.6975 -11.4034 
-2.94637 -10.9266 -11.4034 -2.94637 -13.6975 -9.42574 5.0132 -8.78566 -11.4034 
5.0132 -13.6975 -8.54241 12.9728 -13.6975 -9.77883 20.9323 -13.6975 -10.8733 
28.8919 -13.6975 -10.7717 36.8515 -13.6975 -10.7706 44.811 -13.6975 -9.68762 
52.7706 -13.6975 -6.65782 -55.4524 -5.73796 -11.4034 8.25686 -5.73796 -11.4034 
12.9728 -1.34279 -11.4034 12.9728 -5.73796 -8.81154 20.9323 -5.73796 -9.57185 
28.8919 2.02366 -11.4034 28.8919 -5.73796 -10.6737 36.8515 -5.73796 -10.9907 
44.811 -5.73796 -9.89369 52.7706 -5.73796 -8.06682 60.7302 -5.73796 -5.16664 
-55.6141 2.2216 -11.4034 20.1494 2.2216 -11.4034 28.2922 2.2216 -11.4034 
20.9323 2.64306 -11.4034 20.9323 2.2216 -11.1704 31.8762 2.2216 -11.4034 
36.8515 2.2216 -11.3717 44.811 2.2216 -9.67473 52.7706 2.2216 -7.2101 
-54.0402 10.1812 -11.4034 36.3426 10.1812 -11.4034 36.8515 10.1812 -11.276 
44.811 10.1812 -9.92444 52.7706 10.1812 -5.69063 -50.8452 18.1407 -11.4034 
-50.7038 18.5491 -11.4034 35.0839 18.1407 -11.4034 36.8515 18.1407 -10.2734 
44.811 18.1407 -5.87758 -47.4412 26.1003 -11.4034 33.8489 26.1003 -11.4034 
36.8515 26.1003 -7.42911 -42.8436 34.0599 -11.4034 -42.7442 34.1729 -11.4034 
-34.7846 41.1968 -11.4034 31.7418 34.0599 -11.4034 28.8919 39.6098 -11.4034 
-33.568 42.0194 -11.4034 -34.7846 42.0194 -9.20159 -26.8251 45.4168 -11.4034 
-18.8655 49.0713 -11.4034 27.352 42.0194 -11.4034 20.9323 47.9086 -11.4034 
28.8919 42.0194 -8.39585 -15.7559 49.979 -11.4034 -18.8655 49.979 -9.08469 
-10.9059 51.2103 -11.4034 -2.94637 52.0835 -11.4034 5.0132 51.7971 -11.4034 
15.7933 49.979 -11.4034 12.9728 50.8316 -11.4034 20.9323 49.979 -4.06993 
-34.7846 -49.6781 -3.44379 -26.8251 -51.1091 -3.44379 -18.8655 -51.684 -3.44379 
-18.8655 -53.4954 3.24078 -10.9059 -50.8659 -3.44379 -10.9059 -53.4954 3.87877 
-2.94637 -48.8457 -3.44379 5.0132 -47.9648 -3.44379 -41.5743 -45.5358 -3.44379 
-42.7442 -44.4475 -3.44379 10.6464 -45.5358 -3.44379 12.9728 -43.7444 -3.44379 
12.9728 -45.5358 -1.42429 20.9323 -40.0917 -3.44379 28.8919 -39.0154 -3.44379 
-47.6858 -37.5762 -3.44379 -50.7038 -31.2366 -3.44379 35.0196 -37.5762 -3.44379 
36.8515 -36.9316 -3.44379 36.8515 -37.5762 -2.44003 44.811 -33.7036 -3.44379 
-51.3707 -29.6167 -3.44379 -50.7038 -29.6167 -1.69592 50.3302 -29.6167 -3.44379 
52.7706 -27.0661 -3.44379 52.7706 -29.6167 -0.656653 -54.6468 -21.6571 -3.44379 
56.4943 -21.6571 -3.44379 60.7302 -21.6571 3.18904 -57.4153 -13.6975 -3.44379 
59.3371 -13.6975 -3.44379 60.7302 -10.6068 -3.44379 60.7302 -13.6975 -2.41962 
-58.6563 -5.73796 -3.44379 62.1449 -5.73796 -3.44379 60.7302 -0.296932 -3.44379 
-58.5259 2.2216 -3.44379 59.7775 2.2216 -3.44379 60.7302 2.2216 -2.70308 
-57.3488 10.1812 -3.44379 55.9493 10.1812 -3.44379 52.7706 13.1862 -3.44379 
-54.04 18.1407 -3.44379 -50.7038 25.2711 -3.44379 -50.7038 18.1407 3.78824 
47.673 18.1407 -3.44379 44.811 20.8702 -3.44379 -50.2802 26.1003 -3.44379 
39.9695 26.1003 -3.44379 36.8515 31.5072 -3.44379 -44.7738 34.0599 -3.44379 
-42.7442 36.5015 -3.44379 -42.7442 34.0599 0.957594 35.5035 34.0599 -3.44379 
-36.5773 42.0194 -3.44379 -34.7846 43.3341 -3.44379 -34.7846 42.0194 -0.442998 
-26.8251 48.2681 -3.44379 30.5397 42.0194 -3.44379 28.8919 44.0202 -3.44379 
28.8919 42.0194 1.94251 -22.8119 49.979 -3.44379 -18.8655 51.6549 -3.44379 
-18.8655 49.979 1.27209 -10.9059 53.7237 -3.44379 -2.94637 54.5985 -3.44379 
5.0132 54.3555 -3.44379 12.9728 53.2294 -3.44379 21.1304 49.979 -3.44379 
20.9323 50.0997 -3.44379 20.9323 49.979 -3.09385 -18.8655 -53.7618 4.51578 
-10.9059 -53.6399 4.51578 -34.7846 -48.8709 4.51578 -20.1139 -53.4954 4.51578 
-26.8251 -51.5572 4.51578 -18.8655 -53.4954 4.90197 -9.40252 -53.4954 4.51578 
-10.9059 -53.4954 4.7479 -2.94637 -52.7485 4.51578 5.0132 -50.8832 4.51578 
12.9728 -48.3165 4.51578 -39.818 -45.5358 4.51578 -42.7442 -41.5214 4.51578 
-34.7846 -45.5358 7.86557 -26.8251 -45.5358 12.4021 -18.8655 -45.5358 10.8131 
-10.9059 -45.5358 11.1488 -2.94637 -45.5358 11.345 5.0132 -45.5358 10.8275 
20.1342 -45.5358 4.51578 12.9728 -45.5358 8.50548 20.9323 -45.214 4.51578 
28.8919 -42.807 4.51578 36.8515 -40.1584 4.51578 -44.8068 -37.5762 4.51578 
-42.7442 -37.5762 6.44968 -34.7846 -37.5762 10.8764 28.8919 -37.5762 11.7787 
43.7616 -37.5762 4.51578 36.8515 -37.5762 8.56468 44.811 -37.1118 4.51578 
52.7706 -32.189 4.51578 -47.2557 -29.6167 4.51578 -50.7038 -23.8713 4.51578 
-42.7442 -29.6167 8.45129 55.4439 -29.6167 4.51578 52.7706 -29.6167 10.2998 
60.7302 -22.5821 4.51578 -51.6086 -21.6571 4.51578 -50.7038 -21.6571 5.45141 
-42.7442 -21.6571 9.62518 61.442 -21.6571 4.51578 60.7302 -21.6571 6.12036 
-51.9997 -13.6975 4.51578 -50.7038 -13.6975 5.72185 -42.7442 -13.6975 10.6561 
64.885 -13.6975 4.51578 -53.7541 -5.73796 4.51578 -50.7038 -5.73796 7.18983 
-42.7442 -5.73796 11.2459 66.4995 -5.73796 4.51578 -53.5889 2.2216 4.51578 
-50.7038 2.2216 7.05576 -42.7442 2.2216 11.2126 65.0743 2.2216 4.51578 
60.7302 9.91788 4.51578 -52.2233 10.1812 4.51578 -50.7038 16.3552 4.51578 
-50.7038 10.1812 5.96711 -42.7442 10.1812 10.6813 60.5497 10.1812 4.51578 
52.7706 17.3738 4.51578 -50.1538 18.1407 4.51578 -42.7442 18.1407 9.25432 
51.7111 18.1407 4.51578 44.811 22.7158 4.51578 -45.2097 26.1003 4.51578 
-42.7442 30.3971 4.51578 -42.7442 26.1003 6.66297 -34.7846 26.1003 11.3267 
40.6043 26.1003 4.51578 36.8515 30.537 4.51578 36.8515 26.1003 9.49022 
-40.0618 34.0599 4.51578 -34.7846 38.7905 4.51578 -34.7846 34.0599 8.1149 
-26.8251 34.0599 11.064 33.654 34.0599 4.51578 28.8919 40.6258 4.51578 
28.8919 34.0599 9.37704 -30.3816 42.0194 4.51578 -26.8251 43.9895 4.51578 
-26.8251 42.0194 6.52398 -18.8655 48.2384 4.51578 -18.8655 42.0194 9.16772 
-10.9059 42.0194 11.4668 5.0132 42.0194 12.3107 12.9728 42.0194 11.1104 
27.4646 42.0194 4.51578 20.9323 46.5527 4.51578 20.9323 42.0194 8.60601 
-14.318 49.979 4.51578 -10.9059 50.8814 4.51578 -10.9059 49.979 5.62752 
-2.94637 51.333 4.51578 -2.94637 49.979 6.29632 5.0132 51.7402 4.51578 
5.0132 49.979 6.76343 14.8753 49.979 4.51578 12.9728 50.7809 4.51578 
12.9728 49.979 5.53344 -26.8251 -45.2137 12.4753 -18.8655 -40.519 12.4753 
-10.9059 -41.0362 12.4753 -2.94637 -42.0878 12.4753 5.0132 -41.9965 12.4753 
12.9728 -39.848 12.4753 20.9323 -40.5035 12.4753 -29.8612 -37.5762 12.4753 
-34.7846 -30.0021 12.4753 -26.8251 -37.5762 13.6095 -18.8655 -37.5762 13.4133 
[...]
POINT_DATA 528
SCALARS ImageScalars float
LOOKUP_TABLE default
0 0 0 0 0 0 0 0 0 
0 0 0 0 0 0 0 0 0 
0 0 0 0 0 0 0 0 0 
0 0 0 0 0 0 0 0 0 
0 0 0 0 0 0 0 0 0 
0 0 0 0 0 0 0 0 0 
0 0 0 0 0 0 0 0 0 
0 0 0 0 0 0 0 0 0 
0 0 0 0 0 0 0 0 0 
0 0 0 0 0 0 0 0 0 
0 0 0 0 0 0 0 0 0 
0 0 0 0 0 0 0 0 0 
0 0 0 0 0 0 0 0 0 
0 0 0 0 0 0 0 0 0 
0 0 0 0 0 0 0 0 0 
0 0 0 0 0 0 0 0 0 
0 0 0 0 0 0 0 0 0 
0 0 0 0 0 0 0 0 0 
0 0 0 0 0 0 0 0 0 
0 0 0 0 0 0 0 0 0 
0 0 0 0 0 0 0 0 0 
0 0 0 0 0 0 0 0 0 
0 0 0 0 0 0 0 0 0 
0 0 0 0 0 0 0 0 0 
0 0 0 0 0 0 0 0 0 
0 0 0 0 0 0 0 0 0 
0 0 0 0 0 0 0 0 0 
0 0 0 0 0 0 0 0 0 
0 0 0 0 0 0 0 0 0 
0 0 0 0 0 0 0 0 0 
0 0 0 0 0 0 0 0 0 
0 0 0 0 0 0 0 0 0 
0 0 0 0 0 0 0 0 0 
0 0 0 0 0 0 0 0 0 
0 0 0 0 0 0 0 0 0 
0 0 0 0 0 0 0 0 0 
0 0 0 0 0 0 0 0 0 
0 0 0 0 0 0 0 0 0 
0 0 0 0 0 0 0 0 0 
0 0 0 0 0 0 0 0 0 
0 0 0 0 0 0 0 0 0 
0 0 0 0 0 0 0 0 0 
0 0 0 0 0 0 0 0 0 
0 0 0 0 0 0 0 0 0 
0 0 0 0 0 0 0 0 0 
0 0 0 0 0 0 0 0 0 
0 0 0 0 0 0 0 0 0 
0 0 0 0 0 0 0 0 0 
0 0 0 0 0 0 0 0 0 
0 0 0 0 0 0 0 0 0 
0 0 0 0 0 0 0 0 0 
0 0 0 0 0 0 0 0 0 
0 0 0 0 0 0 0 0 0 
0 0 0 0 0 0 0 0 0 
0 0 0 0 0 0 0 0 0 
0 0 0 0 0 0 0 0 0 
0 0 0 0 0 0 0 0 0 
0 0 0 0 0 0 0 0 0 
0 0 0 0 0 0 
NORMALS Normals float
-0.0229399 -0.0131341 0.999651 0.18221 0.356419 0.916387 -0.01279 0.29746 0.954648 
-0.203233 0.32456 0.923773 0.349248 0.293191 0.88998 0.0655464 0.243865 0.967592 
-0.0562405 0.139325 0.988648 -0.218773 0.137944 0.965976 -0.22452 0.103642 0.968942 
0.29672 0.113722 0.948169 0.0703765 0.118602 0.990445 -0.138963 0.104405 0.984779 
-0.248332 0.0770119 0.965609 -0.305979 0.0516275 0.950637 0.51104 0.21236 0.832912 
0.186792 0.116882 0.975422 0.0475287 0.0147408 0.998761 -0.0969441 0.0241981 0.994996 
-0.251345 0.0267605 0.967528 -0.339237 0.131065 0.931526 0.46696 0.118339 0.876324 
0.10618 0.104537 0.988837 -0.0328143 0.0617069 0.997555 -0.130076 0.0261745 0.991159 
-0.131122 0.0388786 0.990604 -0.00320581 0.240861 0.970554 -0.0649728 0.36826 0.92745 
-0.363076 0.43531 0.823821 0.484176 -0.0300641 0.874454 0.102926 0.00919048 0.994647 
-0.0292406 0.0439002 0.998608 -0.112571 0.0688161 0.991258 -0.056569 0.0945632 0.99391 
0.0377155 0.0552069 0.997762 -0.0185076 0.236312 0.971501 -0.0382971 0.196316 0.979793 
-0.306031 0.459827 0.833609 0.0120206 0.1565 0.987605 0.555441 -0.203053 0.806384 
0.183212 -0.0961909 0.978356 0.0239387 -0.0122941 0.999638 -0.0811915 0.0489486 0.995496 
-0.141092 0.0993899 0.984995 0.0966343 0.0461269 0.994251 0.0748086 0.0116263 0.99713 
-0.091272 0.0363704 0.995162 -0.0250876 0.0570927 0.998054 -0.236575 0.333704 0.91251 
-0.285253 0.22147 0.932514 0.726674 -0.301946 0.617068 0.319021 -0.193847 0.927711 
0.107144 -0.0322112 0.993722 -0.00356918 0.00600926 0.999976 -0.0562168 0.080492 0.995169 
-0.00803844 0.180726 0.983501 -0.0288845 0.00302155 0.999578 -0.00883287 0.12901 0.991604 
0.0582031 0.0971818 0.993563 -0.139482 0.153161 0.978308 -0.411436 0.138902 0.900792 
0.47186 -0.270837 0.839044 0.235581 -0.182263 0.954611 0.0296148 -0.0382313 0.99883 
0.0310186 0.0184667 0.999348 0.030396 0.123817 0.991839 0.0125776 0.0943157 0.995463 
-0.0222988 -0.00902745 0.999711 0.0068313 0.162827 0.986631 0.00679035 0.0765662 0.997041 
-0.173964 -0.00964421 0.984705 -0.535207 -0.051839 0.843129 0.644062 -0.540112 0.541723 
0.325461 -0.360421 0.874169 0.200704 -0.257748 0.945137 0.107848 -0.0998377 0.989142 
0.0665003 -0.020874 0.997568 -0.0216463 -0.0152093 0.99965 0.00502837 -0.0587974 0.998257 
-0.0249984 -0.0142035 0.999587 -0.0225251 -0.0183445 0.999578 -0.113266 -0.0726037 0.990908 
-0.243745 -0.188386 0.951367 -0.614738 -0.26701 0.742161 0.326891 -0.519483 0.789481 
0.239457 -0.354982 0.903686 0.0715105 -0.272585 0.95947 0.0221738 -0.308503 0.950965 
-0.00626419 -0.318222 0.947995 -0.183405 -0.288278 0.939818 -0.332122 -0.427977 0.840554 
0.143995 -0.769135 0.622653 0.00206462 -0.696019 0.71802 -0.0382085 -0.714046 0.699056 
-0.189178 -0.783119 0.592399 0.206237 0.438479 0.874759 0.289169 0.663497 0.690038 
-0.0487161 0.531303 0.84578 -0.0400897 0.647424 0.761075 -0.165611 0.369446 0.914375 
-0.0761566 0.556003 0.827684 -0.126365 0.527526 0.840088 -0.159231 0.533562 0.830636 
-0.218216 0.586978 0.77964 0.378441 0.445162 0.81155 0.415651 0.447845 0.791625 
0.446352 0.47751 0.756806 -0.212114 0.229401 0.949938 -0.220683 0.120445 0.96788 
-0.220897 0.184357 0.957715 -0.157042 0.227023 0.961144 -0.118111 0.253106 0.960202 
-0.177855 0.385985 0.905198 -0.127771 0.516789 0.846524 -0.131932 0.687224 0.714365 
0.565629 0.336479 0.752892 0.908939 0.393064 0.139034 -0.207097 0.092903 0.973899 
-0.147091 0.0477093 0.987972 -0.0883767 0.0799642 0.992872 -0.0642762 0.145866 0.987214 
-0.00190115 0.280076 0.959976 0.0161097 0.325252 0.94549 -0.164414 0.402076 0.900723 
-0.327778 0.441799 0.83509 0.681829 0.233195 0.693347 0.681859 0.234486 0.692881 
0.707816 0.243178 0.66322 -0.257061 0.0150328 0.966278 -0.186956 -0.0507542 0.981056 
-0.0220023 -0.0602087 0.997943 0.0580269 0.0609713 0.996451 0.0852927 0.144285 0.985853 
-0.0215123 0.138903 0.990072 -0.120779 0.112288 0.986308 -0.290749 0.248548 0.923953 
-0.444452 0.21411 0.869839 0.646194 0.233474 0.726583 -0.345392 0.207935 0.915132 
-0.229443 0.403543 0.885725 -0.291168 0.296533 0.909554 -0.278501 0.407774 0.869573 
0.0286272 0.186576 0.982023 0.142425 -0.0475668 0.988662 0.0652524 -0.0478731 0.99672 
-0.00594803 -0.0161333 0.999852 -0.0785119 0.0651523 0.994782 -0.216596 0.052201 0.974865 
-0.352204 0.138861 0.925565 0.732451 0.0973829 0.67382 -0.387049 0.405706 0.828007 
-0.314243 0.505448 0.803601 -0.182386 0.20541 0.961531 0.117864 0.0239153 0.992742 
0.0142177 0.153577 0.988034 0.0887787 0.040679 0.99522 -0.0489326 0.0374869 0.998098 
-0.16644 0.00117964 0.986051 -0.236576 0.0346844 0.970994 -0.620424 -0.0144994 0.784133 
0.763695 -0.0692557 0.641851 -0.15501 0.420016 0.89418 0.00164768 0.173853 0.98477 
-0.144769 0.398563 0.905643 -0.133708 0.394619 0.909064 -0.0327529 0.105719 0.993856 
-0.109184 0.0182599 0.993854 -0.23291 -0.00130167 0.972497 -0.338577 -0.147569 0.929295 
0.736667 -0.236564 0.63353 -0.188642 -0.0413006 0.981177 -0.184555 -0.0594547 0.981022 
-0.330502 -0.187281 0.925037 -0.499654 -0.386592 0.775173 0.733724 -0.303181 0.608054 
0.733258 -0.308192 0.606094 -0.488791 -0.0817706 0.86856 -0.513452 -0.174584 0.840171 
-0.552587 -0.518422 0.6526 0.677859 -0.374537 0.632637 -0.691974 -0.142328 0.707754 
-0.783049 -0.326253 0.529522 0.647558 -0.541634 0.536005 0.645608 -0.543824 0.536139 
0.494966 -0.672404 0.550346 -0.74169 -0.318291 0.590412 -0.716302 -0.461376 0.523492 
0.487075 -0.67849 0.549918 0.551024 -0.757433 0.35024 0.389973 -0.682095 0.618601 
0.275694 -0.7967 0.537831 -0.677105 -0.525248 0.515406 -0.425558 -0.737105 0.524954 
-0.768674 -0.569614 0.290998 0.237394 -0.823459 0.515324 0.30429 -0.887881 0.345072 
0.168905 -0.83428 0.524831 0.0340299 -0.797266 0.602668 -0.0732104 -0.79478 0.602466 
-0.287433 -0.813763 0.505145 -0.206706 -0.82855 0.520363 -0.472492 -0.880798 -0.0307677 
0.354424 0.890298 0.285923 0.118672 0.911355 0.394144 -0.0061885 0.872033 0.489408 
0.0966468 0.983376 -0.153722 -0.135353 0.798635 0.586397 -0.0660732 0.985103 -0.158766 
-0.161217 0.747512 0.644387 -0.227789 0.734248 0.639525 0.640367 0.733467 0.227941 
0.689802 0.695455 0.201283 -0.304096 0.654379 0.692325 -0.330902 0.603881 0.725142 
-0.37282 0.764523 0.525842 -0.197213 0.633067 0.748554 -0.145288 0.753626 0.641046 
0.841587 0.535817 0.0680542 0.911055 0.412214 -0.00771207 -0.217666 0.725161 0.653272 
-0.244839 0.708168 0.662233 -0.268383 0.779073 0.566582 -0.422662 0.631267 0.650276 
0.920488 0.390298 -0.0191904 0.909524 0.390816 -0.141522 -0.542744 0.577785 0.609584 
-0.582164 0.50203 0.639571 -0.64817 0.670659 0.360683 0.93527 0.353898 0.00511232 
-0.593881 0.339525 0.729403 -0.832836 0.539065 0.125672 0.964034 0.252897 -0.0817363 
-0.656045 0.282346 0.699919 -0.696187 0.206713 0.687454 -0.745694 0.344173 0.570513 
0.994498 0.0655115 -0.0817493 -0.702279 0.00756132 0.711862 -0.669129 -0.216979 0.710765 
0.99316 -0.078154 -0.0867465 -0.627479 -0.288779 0.723102 -0.695374 -0.326673 0.640109 
0.959132 -0.268767 -0.0884907 -0.589642 -0.451735 0.669521 -0.558882 -0.522013 0.644324 
0.913797 -0.402401 -0.0552115 0.865878 -0.492018 -0.090408 0.750058 -0.303808 -0.587464 
-0.5959 -0.605482 0.527536 -0.636662 -0.61255 0.468448 0.859615 -0.501685 -0.0968163 
-0.758825 -0.562384 0.328495 -0.854793 -0.490567 0.169329 0.783989 -0.614779 -0.0860726 
0.744955 -0.661854 -0.0836134 0.723839 -0.584938 -0.365931 -0.872106 -0.481232 0.0885858 
0.607085 -0.790401 -0.0819389 0.580343 -0.81018 -0.0825198 0.570945 -0.777202 -0.264534 
0.442031 -0.893973 -0.0736301 -0.799135 -0.600893 0.0176393 -0.754548 -0.656245 0.000863586 
-0.704327 -0.635072 -0.317185 0.380315 -0.92331 -0.0534662 0.32887 -0.943655 -0.0368824 
0.34482 -0.873207 -0.344395 0.180027 -0.983147 -0.031812 0.0388906 -0.998178 -0.046129 
-0.0868111 -0.995952 -0.023325 -0.2499 -0.96808 -0.0192876 -0.476227 -0.876649 -0.0685179 
-0.470283 -0.879813 -0.0690155 -0.471971 -0.877262 -0.0874878 0.109542 0.95791 -0.265348 
-0.0610984 0.97443 -0.216223 0.427154 0.787115 -0.444959 0.137729 0.950884 -0.277217 
0.278918 0.901439 -0.331077 0.111651 0.950358 -0.290438 -0.0819202 0.976476 -0.19946 
-0.0586817 0.969581 -0.237632 -0.166432 0.977058 -0.132884 -0.276156 0.956481 -0.094249 
-0.349906 0.933493 -0.0784635 0.614428 0.644886 -0.454534 0.726499 0.461942 -0.508733 
0.458274 0.621185 -0.6357 0.141562 0.472684 -0.869787 -0.0407951 0.476444 -0.878258 
0.0350757 0.448069 -0.89331 -0.0154301 0.485327 -0.874197 -0.152744 0.598568 -0.786375 
-0.334737 0.941209 0.0455725 -0.237577 0.841588 -0.485064 -0.331449 0.94157 0.059903 
-0.305972 0.951568 -0.0299853 -0.337125 0.937006 -0.0914718 0.761237 0.328988 -0.558825 
0.695003 0.303035 -0.652028 0.383337 0.25527 -0.887632 -0.248121 0.575318 -0.779387 
-0.440348 0.896756 -0.0438449 -0.282728 0.853723 -0.43729 -0.459306 0.887455 -0.0382278 
-0.624428 0.78107 0.00443311 0.710395 0.29372 -0.639584 0.74069 0.239359 -0.627762 
0.584565 0.182065 -0.790656 -0.719489 0.69441 0.0113954 -0.561067 0.619986 -0.548472 
-0.83313 0.552091 0.0330298 0.750352 0.211251 -0.626374 0.705124 0.201765 -0.679772 
0.448632 0.1183 -0.885853 -0.840319 0.541239 0.0304027 -0.8208 0.560857 -0.108289 
0.70397 0.101193 -0.702984 0.655877 0.0880994 -0.749709 0.369238 0.0924267 -0.924727 
-0.956211 0.29265 0.00399659 0.694023 0.0712004 -0.716423 0.57803 0.0630025 -0.81358 
0.33952 0.0373084 -0.939859 -0.998062 0.0118252 0.0610882 0.664092 -0.0731605 -0.744063 
0.587161 -0.0587617 -0.807335 0.345701 -0.0358048 -0.937661 -0.946643 -0.321567 0.0214918 
-0.807753 -0.587781 0.0452646 0.711027 -0.167889 -0.682827 0.713899 -0.254176 -0.652489 
0.637212 -0.151429 -0.755666 0.377917 -0.109196 -0.919378 -0.801283 -0.596895 0.0407762 
-0.591363 -0.80609 0.0225783 0.707802 -0.286488 -0.64571 0.479033 -0.207999 -0.852797 
-0.573891 -0.818841 0.0121516 -0.577402 -0.810318 -0.0999603 0.663238 -0.383023 -0.642969 
0.639357 -0.44293 -0.628518 0.601731 -0.336025 -0.724573 0.355022 -0.231194 -0.905819 
-0.667752 -0.722042 -0.181005 -0.725506 -0.623502 -0.291353 -0.550678 -0.61493 -0.564459 
0.585136 -0.521156 -0.621299 0.491892 -0.61622 -0.615074 0.432784 -0.477086 -0.764909 
0.245562 -0.363747 -0.898547 -0.70611 -0.589858 -0.391761 -0.636167 -0.608717 -0.474084 
-0.509813 -0.509736 -0.693008 0.425499 -0.670334 -0.607949 0.379519 -0.696729 -0.608716 
0.350053 -0.630237 -0.693011 0.326965 -0.734616 -0.594503 0.251701 -0.515414 -0.819143 
0.179347 -0.446633 -0.876558 -0.0846374 -0.424694 -0.901372 -0.193403 -0.467344 -0.862661 
-0.598735 -0.624255 -0.501818 -0.428822 -0.71621 -0.550595 -0.356112 -0.575964 -0.735833 
0.225548 -0.7982 -0.558573 0.146328 -0.823048 -0.548799 0.150255 -0.786686 -0.598789 
0.0525584 -0.829445 -0.55611 0.0549309 -0.779451 -0.62405 -0.0380523 -0.841691 -0.538617 
-0.0413943 -0.762831 -0.645272 -0.302947 -0.794681 -0.526028 -0.253808 -0.812137 -0.525371 
-0.253311 -0.778483 -0.574281 0.142062 0.458536 -0.877247 -0.028222 0.303788 -0.952321 
0.0299647 0.280256 -0.959457 0.0176182 0.318551 -0.947742 -0.0700291 0.39275 -0.916975 
-0.0314429 0.434295 -0.900222 -0.130549 0.542655 -0.829748 0.255365 0.178516 -0.950221 
0.316576 0.169217 -0.933352 0.168343 0.150345 -0.974196 -0.00716519 0.240944 -0.970513 
0.0254643 0.192823 -0.980903 0.0444545 0.176685 -0.983263 -0.00988252 0.242598 -0.970077 
-0.0258146 0.354095 -0.934853 -0.201094 0.499074 -0.842904 -0.0993644 0.392165 -0.914513 
-0.221624 0.50481 -0.834296 -0.172515 0.536839 -0.825859 -0.229533 0.50842 -0.829954 
0.320426 0.164975 -0.932797 0.313833 0.1643 -0.935155 0.1427 0.0806748 -0.986473 
0.0046203 0.107603 -0.994183 -0.0323969 0.0460726 -0.998413 0.0546082 0.0179881 -0.998346 
0.0780246 0.0795278 -0.993774 0.0536597 0.174331 -0.983224 0.0109236 0.216329 -0.976259 
-0.0927563 0.341798 -0.935185 -0.137283 0.41353 -0.900081 -0.297815 0.498181 -0.814323 
-0.220327 0.483104 -0.847388 -0.428324 0.40233 -0.809116 0.352342 0.0394286 -0.93504 
0.312091 0.0262855 -0.949688 0.119897 0.013262 -0.992698 -0.0457175 0.00710283 -0.998929 
-0.0668371 0.00277124 -0.99776 0.0861434 0.000491572 -0.996283 0.155506 0.0403634 -0.98701 
0.106544 0.0885602 -0.990356 0.0541627 0.112998 -0.992118 0.0380407 0.122154 -0.991782 
-0.106814 0.215947 -0.970545 -0.236521 0.224204 -0.945405 -0.436274 0.351035 -0.828516 
-0.386798 0.319306 -0.865119 -0.600632 0.384159 -0.701187 0.26945 0.0248754 -0.962693 
0.243019 0.00501623 -0.970008 0.12508 -0.024088 -0.991854 -0.00602509 -0.0057936 -0.999965 
-0.0329297 0.107495 -0.99366 0.1009 0.20958 -0.972571 0.148899 -0.000887681 -0.988852 
0.119316 0.0875855 -0.988986 0.0542453 0.0362668 -0.997869 0.0171531 0.0394549 -0.999074 
-0.0295781 0.0357458 -0.998923 -0.0515283 0.168034 -0.984434 -0.352318 0.228624 -0.907526 
-0.647021 0.341699 -0.68162 -0.587083 0.331557 -0.738514 0.256386 0.0357385 -0.965913 
0.197847 0.0279012 -0.979836 0.103785 0.0170598 -0.994453 0.0856477 0.023144 -0.996057 
0.140948 0.0855898 -0.98631 -0.029076 0.180552 -0.983136 0.052177 0.0768979 -0.995673 
0.135829 0.123139 -0.98305 0.00681148 0.0114982 -0.999911 0.0405058 0.00438011 -0.99917 
0.0261582 0.0137338 -0.999563 -0.0976368 0.0339163 -0.994644 -0.206237 -0.0475449 -0.977346 
-0.812019 0.0206702 -0.583264 -0.452339 0.0271055 -0.891434 0.273109 -0.0233724 -0.961699 
0.217855 -0.00549103 -0.975966 0.118664 0.0279901 -0.99254 0.0611925 0.0442484 -0.997145 
0.136458 -0.032923 -0.990099 0.106701 -0.0414149 -0.993428 0.105294 0.0910503 -0.990264 
0.0289557 -0.0036942 -0.999574 -0.0666758 0.0134644 -0.997684 0.0188901 -0.0170145 -0.999677 
-0.000475768 -0.0673073 -0.997732 -0.12886 -0.133116 -0.982688 -0.271802 -0.154684 -0.94984 
-0.689096 -0.345355 -0.637084 -0.634829 -0.421401 -0.647621 -0.592945 -0.328363 -0.735251 
0.297881 -0.0683299 -0.952154 0.267721 -0.0495686 -0.962221 0.151022 -0.00111309 -0.98853 
0.025915 0.00949077 -0.999619 0.0502895 -0.0212444 -0.998509 0.0871688 -0.142518 -0.985946 
0.0833937 -0.137224 -0.987023 0.0700993 -0.172113 -0.98258 -0.00334395 -0.0503507 -0.998726 
-0.0404683 -0.0873709 -0.995354 -0.0920824 -0.16852 -0.981388 -0.172598 -0.325107 -0.929793 
-0.489578 -0.530938 -0.691678 -0.45085 -0.556866 -0.697592 -0.418039 -0.483247 -0.769231 
0.331287 -0.12093 -0.935748 0.324249 -0.134722 -0.936329 0.319853 -0.117024 -0.940212 
0.175391 -0.085262 -0.9808 0.0406355 -0.0687947 -0.996803 -0.0053855 0.00211106 -0.999983 
-0.00623247 -0.0502982 -0.998715 0.0551239 -0.0610722 -0.99661 0.118119 -0.142137 -0.982774 
0.0125515 -0.15646 -0.987605 -0.106194 -0.228429 -0.967752 -0.368712 -0.521695 -0.769341 
-0.256531 -0.416109 -0.872379 -0.360673 -0.578055 -0.731961 -0.359048 -0.578124 -0.732706 
-0.356265 -0.573532 -0.737656 0.268961 -0.220292 -0.93762 0.213334 -0.275845 -0.937229 
0.195345 -0.21815 -0.956165 0.114423 -0.163318 -0.979916 0.068951 -0.0638573 -0.995574 
0.00558492 -0.0221502 -0.999739 -0.00903432 -0.0333275 -0.999404 -0.00324331 -0.127924 -0.991779 
-0.0932589 -0.257273 -0.961828 -0.357829 -0.473022 -0.805114 -0.344633 -0.424139 -0.837457 
-0.283067 -0.387296 -0.877425 0.208251 -0.314705 -0.926063 0.204702 -0.327885 -0.922274 
0.200232 -0.304482 -0.931235 0.172752 -0.374811 -0.910864 0.142647 -0.235568 -0.961332 
0.0254345 -0.192502 -0.980967 -0.0848627 -0.410978 -0.907687 -0.0583179 -0.194741 -0.97912 
-0.168227 -0.38213 -0.908667 -0.122834 -0.265835 -0.956161 -0.264447 -0.388654 -0.882619 
-0.244388 -0.389872 -0.887848 -0.236188 -0.370992 -0.898098 0.0677975 -0.433175 -0.898756 
-0.0239055 -0.428083 -0.903423 0.0478751 -0.442038 -0.895718 0.0470865 -0.431329 -0.900965 

