# vtk DataFile Version 4.2
vtk output
ASCII
DATASET POLYDATA
POINTS 550 float
-20.5147 -41.8942 -13.1218 -12.7721 -41.8942 -14.7765 -5.0295 -41.8942 -14.7549 
2.71312 -41.8942 -14.3866 10.4557 -41.8942 -14.7254 -28.2574 -34.1515 -15.1401 
-20.5147 -34.1515 -15.9961 -12.7721 -34.1515 -16.013 -5.0295 -34.1515 -16.7606 
2.71312 -34.1515 -16.3699 10.4557 -34.1515 -15.6294 18.1984 -34.1515 -13.5241 
25.941 -34.1515 -13.7123 -36 -26.4089 -14.7348 -28.2574 -26.4089 -16.7288 
-20.5147 -26.4089 -16.3705 -12.7721 -26.4089 -16.309 -5.0295 -26.4089 -16.7108 
2.71312 -26.4089 -16.4939 10.4557 -26.4089 -15.5026 18.1984 -26.4089 -13.9183 
25.941 -26.4089 -13.9819 33.6836 -26.4089 -13.1739 -43.7426 -18.6663 -15.6029 
-36 -18.6663 -17.1536 -28.2574 -18.6663 -16.9407 -20.5147 -18.6663 -16.3463 
-12.7721 -18.6663 -15.7884 -5.0295 -18.6663 -16.4379 2.71312 -18.6663 -16.2899 
10.4557 -18.6663 -13.8362 18.1984 -18.6663 -13.7532 25.941 -18.6663 -14.0501 
33.6836 -18.6663 -14.1753 41.4262 -18.6663 -14.0402 -51.4852 -10.9237 -14.0219 
-43.7426 -10.9237 -16.5913 -36 -10.9237 -17.4322 -28.2574 -10.9237 -17.114 
-20.5147 -10.9237 -16.2912 -12.7721 -10.9237 -15.7124 -5.0295 -10.9237 -17.1404 
2.71312 -10.9237 -18.1857 10.4557 -10.9237 -13.0257 18.1984 -10.9237 -12.9301 
25.941 -10.9237 -14.1608 33.6836 -10.9237 -14.926 41.4262 -10.9237 -13.6336 
-51.4852 -3.18103 -14.8419 -43.7426 -3.18103 -17.3795 -36 -3.18103 -17.7957 
-28.2574 -3.18103 -17.17 -20.5147 -3.18103 -15.8066 -12.7721 -3.18103 -16.566 
-5.0295 -3.18103 -17.1105 2.71312 -3.18103 -14.6703 10.4557 -3.18103 -17.9736 
18.1984 -3.18103 -13.1705 25.941 -3.18103 -14.4586 33.6836 -3.18103 -14.713 
41.4262 -3.18103 -14.1745 -51.4852 4.56159 -13.3054 -43.7426 4.56159 -16.7515 
-36 4.56159 -17.6123 -28.2574 4.56159 -17.1733 -20.5147 4.56159 -15.9031 
-12.7721 4.56159 -15.9038 -5.0295 4.56159 -19.612 2.71312 4.56159 -15.8482 
10.4557 4.56159 -13.922 18.1984 4.56159 -13.9148 25.941 4.56159 -14.884 
33.6836 4.56159 -15.2884 41.4262 4.56159 -14.8149 -43.7426 12.3042 -15.4198 
-36 12.3042 -17.2353 -28.2574 12.3042 -17.6809 -20.5147 12.3042 -16.6102 
-12.7721 12.3042 -15.4651 -5.0295 12.3042 -15.3823 2.71312 12.3042 -16.4629 
10.4557 12.3042 -14.3277 18.1984 12.3042 -14.8527 25.941 12.3042 -15.598 
33.6836 12.3042 -15.7213 41.4262 12.3042 -14.2878 -43.7426 20.0468 -13.6897 
-36 20.0468 -17.1651 -28.2574 20.0468 -18.1153 -20.5147 20.0468 -17.5208 
-12.7721 20.0468 -16.5293 -5.0295 20.0468 -15.6844 2.71312 20.0468 -16.1921 
10.4557 20.0468 -15.5841 18.1984 20.0468 -15.0725 25.941 20.0468 -14.991 
33.6836 20.0468 -14.4474 41.4262 20.0468 -13.4581 -36 27.7895 -15.0821 
-28.2574 27.7895 -16.8926 -20.5147 27.7895 -17.2446 -12.7721 27.7895 -17.2333 
-5.0295 27.7895 -16.3081 2.71312 27.7895 -16.3108 10.4557 27.7895 -15.8415 
18.1984 27.7895 -14.5773 25.941 27.7895 -13.6514 33.6836 27.7895 -12.6791 
-28.2574 35.5321 -14.1528 -20.5147 35.5321 -15.4369 -12.7721 35.5321 -15.8104 
-5.0295 35.5321 -15.8778 2.71312 35.5321 -15.3745 10.4557 35.5321 -14.3157 
18.1984 35.5321 -12.6691 -12.7721 43.2747 -12.4874 -5.0295 43.2747 -12.8493 
-20.5147 -43.1758 -12.3746 -12.7721 -45.1958 -12.3746 -5.0295 -45.3494 -12.3746 
2.71312 -45.0243 -12.3746 2.71312 -49.6368 -4.83821 10.4557 -45.1477 -12.3746 
-22.8729 -41.8942 -12.3746 -28.2574 -39.1564 -12.3746 -28.2574 -41.8942 -9.76335 
17.2339 -41.8942 -12.3746 18.1984 -39.9469 -12.3746 18.1984 -41.8942 -11.8186 
25.941 -36.7517 -12.3746 25.941 -41.8942 -7.74499 33.6836 -41.8942 -4.86529 
-43.7426 -34.1515 -6.2665 -35.2521 -34.1515 -12.3746 -36 -33.1414 -12.3746 
-36 -34.1515 -11.9002 30.4709 -34.1515 -12.3746 33.6836 -29.5645 -12.3746 
33.6836 -34.1515 -11.1159 41.4262 -34.1515 -9.39957 -43.563 -26.4089 -12.3746 
-43.7426 -26.2867 -12.3746 -43.7426 -26.4089 -12.2974 38.0438 -26.4089 -12.3746 
41.4262 -24.0646 -12.3746 41.4262 -26.4089 -11.758 49.1689 -26.4089 -7.31371 
-49.6873 -18.6663 -12.3746 -51.4852 -15.1936 -12.3746 -51.4852 -18.6663 -10.9195 
44.3769 -18.6663 -12.3746 49.1689 -18.6663 -9.87726 56.9115 -18.6663 -4.65223 
-53.5663 -10.9237 -12.3746 45.765 -10.9237 -12.3746 49.1689 -10.9237 -11.3308 
56.9115 -10.9237 -6.15764 -54.4306 -3.18103 -12.3746 -59.2279 -3.18103 -4.76643 
48.7451 -3.18103 -12.3746 49.1689 -3.18103 -12.2722 56.9115 -3.18103 -8.07466 
-52.5172 4.56159 -12.3746 -51.4852 7.18514 -12.3746 49.1024 4.56159 -12.3746 
49.1689 4.56159 -12.3541 56.9115 4.56159 -8.35567 -48.941 12.3042 -12.3746 
-51.4852 12.3042 -9.68256 46.936 12.3042 -12.3746 49.1689 12.3042 -11.5385 
56.9115 12.3042 -6.33892 -45.5835 20.0468 -12.3746 -43.7426 22.6613 -12.3746 
44.9695 20.0468 -12.3746 41.4262 21.9861 -12.3746 49.1689 20.0468 -10.4126 
-40.1072 27.7895 -12.3746 -43.7426 27.7895 -7.45231 -36 32.371 -12.3746 
25.941 31.5114 -12.3746 34.4748 27.7895 -12.3746 33.6836 28.7012 -12.3746 
41.4262 27.7895 -8.76212 -32.0237 35.5321 -12.3746 -36 35.5321 -8.65919 
-28.2574 38.0846 -12.3746 -20.5147 40.8382 -12.3746 2.71312 42.6036 -12.3746 
10.4557 39.4863 -12.3746 19.5474 35.5321 -12.3746 18.1984 36.0814 -12.3746 
25.941 35.5321 -10.7909 33.6836 35.5321 -7.6755 -28.2574 43.2747 -5.51545 
-13.3654 43.2747 -12.3746 -20.5147 43.2747 -10.3402 -12.7721 43.4352 -12.3746 
-0.356583 43.2747 -12.3746 -5.0295 43.9753 -12.3746 2.71312 43.2747 -11.9525 
10.4557 43.2747 -9.92283 18.1984 43.2747 -6.75071 2.71312 -49.7101 -4.63196 
-28.2574 -45.4793 -4.63196 -20.5147 -47.6657 -4.63196 -12.7721 -48.8882 -4.63196 
-3.33266 -49.6368 -4.63196 -5.0295 -49.6168 -4.63196 3.31436 -49.6368 -4.63196 
2.71312 -49.6368 -4.4932 10.4557 -48.7775 -4.63196 18.1984 -46.7793 -4.63196 
25.941 -44.1199 -4.63196 33.6836 -42.0118 -4.63196 -43.7426 -35.0145 -4.63196 
-35.1932 -41.8942 -4.63196 -36 -41.345 -4.63196 25.941 -41.8942 1.099 
33.9287 -41.8942 -4.63196 33.6836 -41.8942 -4.24097 41.4262 -37.514 -4.63196 
-44.6256 -34.1515 -4.63196 -43.7426 -34.1515 0.276843 45.7667 -34.1515 -4.63196 
49.1689 -29.5899 -4.63196 -51.0887 -26.4089 -4.63196 -51.4852 -25.9313 -4.63196 
51.2769 -26.4089 -4.63196 56.9115 -18.6922 -4.63196 -56.0256 -18.6663 -4.63196 
56.9242 -18.6663 -4.63196 56.9115 -18.6663 -3.95285 -58.612 -10.9237 -4.63196 
-59.2279 -3.81883 -4.63196 58.0905 -10.9237 -4.63196 -59.2794 -3.18103 -4.63196 
-59.2279 -2.95591 -4.63196 -59.2279 -3.18103 -4.17724 59.5746 -3.18103 -4.63196 
-57.4098 4.56159 -4.63196 59.8479 4.56159 -4.63196 -54.6644 12.3042 -4.63196 
-51.4852 18.3864 -4.63196 58.2086 12.3042 -4.63196 56.9115 15.5194 -4.63196 
-50.622 20.0468 -4.63196 54.1867 20.0468 -4.63196 49.1689 26.177 -4.63196 
-45.2683 27.7895 -4.63196 -43.7426 29.7464 -4.63196 47.5302 27.7895 -4.63196 
41.4262 33.1979 -4.63196 49.1689 27.7895 2.26 -38.5766 35.5321 -4.63196 
-36 37.9557 -4.63196 25.941 42.5487 -4.63196 37.7728 35.5321 -4.63196 
33.6836 37.7095 -4.63196 -28.9885 43.2747 -4.63196 -28.2574 43.7574 -4.63196 
-20.5147 47.332 -4.63196 -12.7721 49.3322 -4.63196 -5.0295 49.795 -4.63196 
2.71312 49.3188 -4.63196 10.4557 47.374 -4.63196 23.7826 43.2747 -4.63196 
18.1984 44.8759 -4.63196 25.941 43.2747 0.780657 -28.2574 -43.3939 3.11066 
-20.5147 -44.8273 3.11066 -12.7721 -45.0811 3.11066 -5.0295 -44.1607 3.11066 
2.71312 -43.9761 3.11066 10.4557 -44.2755 3.11066 18.1984 -43.0756 3.11066 
-31.5641 -41.8942 3.11066 -36 -39.3274 3.11066 -28.2574 -41.8942 5.08553 
-20.5147 -41.8942 6.38406 -12.7721 -41.8942 6.3049 -5.0295 -41.8942 5.22729 
2.71312 -41.8942 4.94506 10.4557 -41.8942 5.30075 22.0085 -41.8942 3.11066 
18.1984 -41.8942 3.93723 25.941 -40.6241 3.11066 33.6836 -38.3012 3.11066 
41.4262 -35.8261 3.11066 -43.0471 -34.1515 3.11066 -43.7426 -33.6136 3.11066 
-36 -34.1515 8.63235 -12.7721 -34.1515 10.7297 -5.0295 -34.1515 10.0849 
2.71312 -34.1515 9.48284 10.4557 -34.1515 8.66357 18.1984 -34.1515 8.28315 
25.941 -34.1515 7.80774 33.6836 -34.1515 6.90769 43.9213 -34.1515 3.11066 
41.4262 -34.1515 5.0435 49.1689 -29.4871 3.11066 -50.1175 -26.4089 3.11066 
-51.4852 -24.4875 3.11066 -43.7426 -26.4089 9.95414 51.6841 -26.4089 3.11066 
49.1689 -26.4089 5.99702 -55.0482 -18.6663 3.11066 -51.4852 -18.6663 8.60261 
56.6951 -18.6663 3.11066 56.9115 -18.0877 3.11066 -57.8643 -10.9237 3.11066 
58.7649 -10.9237 3.11066 56.9115 -10.9237 6.05309 -58.2901 -3.18103 3.11066 
60.4517 -3.18103 3.11066 56.9115 -3.18103 9.18448 -56.9828 4.56159 3.11066 
60.7813 4.56159 3.11066 56.9115 4.56159 9.81562 -54.3761 12.3042 3.11066 
-51.4852 18.0258 3.11066 -51.4852 12.3042 9.60588 59.1139 12.3042 3.11066 
56.9115 17.3531 3.11066 56.9115 12.3042 7.0141 -50.4433 20.0468 3.11066 
55.5324 20.0468 3.11066 -45.1701 27.7895 3.11066 -43.7426 29.5756 3.11066 
-43.7426 27.7895 6.64956 41.4262 34.6837 3.11066 41.4262 27.7895 10.492 
49.3048 27.7895 3.11066 49.1689 27.9237 3.11066 49.1689 27.7895 3.34466 
-38.2638 35.5321 3.11066 -36 37.6558 3.11066 -36 35.5321 7.58403 
40.2565 35.5321 3.11066 33.6836 39.857 3.11066 33.6836 35.5321 8.94925 
-28.5782 43.2747 3.11066 -28.2574 43.4923 3.11066 -28.2574 43.2747 3.59599 
-20.5147 47.4865 3.11066 -20.5147 43.2747 10.0148 -12.7721 49.493 3.11066 
-5.0295 49.8085 3.11066 2.71312 49.2742 3.11066 10.4557 47.6689 3.11066 
10.4557 43.2747 9.20351 18.1984 45.8313 3.11066 18.1984 43.2747 8.06335 
26.5122 43.2747 3.11066 25.941 43.5243 3.11066 25.941 43.2747 3.6231 
-28.2574 -34.6184 10.8533 -20.5147 -35.1806 10.8533 -29.395 -34.1515 10.8533 
-36 -31.457 10.8533 -28.2574 -34.1515 11.1893 -14.0054 -34.1515 10.8533 
-20.5147 -34.1515 11.5209 -12.7721 -33.9274 10.8533 -5.0295 -32.5544 10.8533 
2.71312 -31.261 10.8533 10.4557 -28.9076 10.8533 18.1984 -27.4717 10.8533 
25.941 -28.9315 10.8533 33.6836 -28.364 10.8533 41.4262 -27.2596 10.8533 
-42.2924 -26.4089 10.8533 -43.7426 -24.9129 10.8533 -36 -26.4089 14.1106 
-28.2574 -26.4089 15.7191 -20.5147 -26.4089 15.6982 -12.7721 -26.4089 14.6815 
-5.0295 -26.4089 13.6897 2.71312 -26.4089 13.1833 10.4557 -26.4089 11.8433 
18.1984 -26.4089 11.2727 25.941 -26.4089 12.0436 33.6836 -26.4089 11.8782 
42.4877 -26.4089 10.8533 41.4262 -26.4089 11.3574 49.1689 -19.6022 10.8533 
[...]
POINT_DATA 550
SCALARS ImageScalars float
LOOKUP_TABLE default
0 0 0 0 0 0 0 0 0 
0 0 0 0 0 0 0 0 0 
0 0 0 0 0 0 0 0 0 
0 0 0 0 0 0 0 0 0 
0 0 0 0 0 0 0 0 0 
0 0 0 0 0 0 0 0 0 
0 0 0 0 0 0 0 0 0 
0 0 0 0 0 0 0 0 0 
0 0 0 0 0 0 0 0 0 
0 0 0 0 0 0 0 0 0 
0 0 0 0 0 0 0 0 0 
0 0 0 0 0 0 0 0 0 
0 0 0 0 0 0 0 0 0 
0 0 0 0 0 0 0 0 0 
0 0 0 0 0 0 0 0 0 
0 0 0 0 0 0 0 0 0 
0 0 0 0 0 0 0 0 0 
0 0 0 0 0 0 0 0 0 
0 0 0 0 0 0 0 0 0 
0 0 0 0 0 0 0 0 0 
0 0 0 0 0 0 0 0 0 
0 0 0 0 0 0 0 0 0 
0 0 0 0 0 0 0 0 0 
0 0 0 0 0 0 0 0 0 
0 0 0 0 0 0 0 0 0 
0 0 0 0 0 0 0 0 0 
0 0 0 0 0 0 0 0 0 
0 0 0 0 0 0 0 0 0 
0 0 0 0 0 0 0 0 0 
0 0 0 0 0 0 0 0 0 
0 0 0 0 0 0 0 0 0 
0 0 0 0 0 0 0 0 0 
0 0 0 0 0 0 0 0 0 
0 0 0 0 0 0 0 0 0 
0 0 0 0 0 0 0 0 0 
0 0 0 0 0 0 0 0 0 
0 0 0 0 0 0 0 0 0 
0 0 0 0 0 0 0 0 0 
0 0 0 0 0 0 0 0 0 
0 0 0 0 0 0 0 0 0 
0 0 0 0 0 0 0 0 0 
0 0 0 0 0 0 0 0 0 
0 0 0 0 0 0 0 0 0 
0 0 0 0 0 0 0 0 0 
0 0 0 0 0 0 0 0 0 
0 0 0 0 0 0 0 0 0 
0 0 0 0 0 0 0 0 0 
0 0 0 0 0 0 0 0 0 
0 0 0 0 0 0 0 0 0 
0 0 0 0 0 0 0 0 0 
0 0 0 0 0 0 0 0 0 
0 0 0 0 0 0 0 0 0 
0 0 0 0 0 0 0 0 0 
0 0 0 0 0 0 0 0 0 
0 0 0 0 0 0 0 0 0 
0 0 0 0 0 0 0 0 0 
0 0 0 0 0 0 0 0 0 
0 0 0 0 0 0 0 0 0 
0 0 0 0 0 0 0 0 0 
0 0 0 0 0 0 0 0 0 
0 0 0 0 0 0 0 0 0 
0 
NORMALS Normals float
0.262321 0.4581 0.849313 0.109294 0.416362 0.902606 -0.0245488 0.425434 0.904656 
0.0037095 0.411584 0.911364 -0.118386 0.402915 0.907549 0.200532 0.323103 0.924874 
0.0671038 0.222343 0.972657 0.0484405 0.103066 0.993494 0.0220064 0.109612 0.993731 
-0.0746814 0.118858 0.990099 -0.174337 0.0551032 0.983143 -0.132535 0.106158 0.985477 
-0.127129 0.27668 0.952516 0.238155 0.281245 0.929615 0.0968113 0.128323 0.986996 
-0.025474 0.0203279 0.999469 0.0219978 -0.0152443 0.999642 0.0120387 -0.020756 0.999712 
-0.0773062 -0.00512861 0.996994 -0.168331 -0.114922 0.979008 -0.0967822 0.0132463 0.995217 
-0.0484338 0.0260256 0.998487 -0.128323 0.173056 0.976517 0.310605 0.223085 0.92399 
0.0914532 0.171586 0.980915 -0.0515137 0.0239706 0.998385 -0.0740219 -0.00482365 0.997245 
0.00598362 -0.038978 0.999222 0.0325215 0.0246946 0.999166 -0.167901 0.103608 0.980344 
-0.164091 -0.130743 0.977743 0.0139536 -0.0636776 0.997873 0.027223 0.0114192 0.999564 
0.000730758 0.111642 0.993748 -0.266942 0.110896 0.957311 0.502067 0.198969 0.84163 
0.180239 0.114078 0.976985 0.0301021 0.0401549 0.99874 -0.069464 0.0147249 0.997476 
-0.0934158 -0.0359531 0.994978 0.0531218 0.039552 0.997804 0.158412 0.0450907 0.986343 
-0.0885313 -0.00895021 0.996033 -0.403239 0.204159 0.89203 0.0770584 -0.0390978 0.99626 
0.127233 0.0261605 0.991528 -0.0336794 0.0351446 0.998815 -0.213975 0.0120158 0.976765 
0.512384 -0.0379672 0.857917 0.15513 0.0108861 0.987834 -0.0155892 0.0116554 0.999811 
-0.12726 0.00380408 0.991862 -0.0494603 -0.0227505 0.998517 0.0888996 0.029623 0.9956 
-0.0841041 0.164701 0.982751 0.0428918 -0.217544 0.975108 -0.207412 -0.0976441 0.973368 
-0.12768 0.0666884 0.989571 0.0941929 0.0474548 0.994422 -0.0179002 0.0236272 0.999561 
-0.147252 0.0751631 0.986239 0.588273 -0.219307 0.778357 0.228496 -0.119491 0.966184 
0.0229012 -0.036127 0.999085 -0.109243 0.0328327 0.993473 -0.0822793 0.0518831 0.995258 
0.221314 -0.071824 0.972554 -0.0336474 -0.129675 0.990986 -0.348957 0.0974861 0.932055 
-0.111734 -0.164426 0.980041 0.0621624 0.104738 0.992555 0.0881739 0.0732628 0.993407 
-0.00396071 0.0671761 0.997733 -0.175966 0.00739219 0.984369 0.356861 -0.18311 0.916036 
0.133262 -0.028034 0.990684 -0.0403231 0.0602855 0.997366 -0.137764 0.105499 0.98483 
-0.0812773 0.0446572 0.995691 0.0697256 -0.217356 0.973599 -0.0824633 0.0152815 0.996477 
-0.0970576 0.104588 0.989768 0.0816777 0.0757189 0.993778 0.0566334 0.00694679 0.998371 
-0.0802348 -0.0481503 0.995612 -0.247289 -0.0749303 0.96604 0.52887 -0.318794 0.786554 
0.254821 -0.129657 0.958256 0.016575 -0.0536787 0.998421 -0.0955818 0.0408336 0.994584 
-0.123183 0.11092 0.986166 -0.0170022 0.0552938 0.998325 -0.00642394 -0.00872509 0.999941 
-0.0725472 0.093853 0.992939 -0.0381991 -0.0171763 0.999123 -0.0382883 -0.120201 0.992011 
-0.0899799 -0.208521 0.97387 -0.220871 -0.307956 0.925408 0.395353 -0.36078 0.84471 
0.126616 -0.233568 0.964061 0.0228769 -0.122799 0.992168 -0.0615641 -0.0536557 0.99666 
-0.0582025 0.0109772 0.998244 -0.0293496 -0.0538817 0.998116 -0.112293 -0.0728775 0.990999 
-0.134504 -0.145214 0.980215 -0.121412 -0.234124 0.964596 -0.243085 -0.269988 0.931674 
0.269124 -0.490403 0.828901 0.106814 -0.349154 0.930958 0.0254354 -0.280992 0.959373 
-0.0282185 -0.206648 0.978008 -0.0950077 -0.251629 0.963149 -0.171153 -0.31672 0.93295 
-0.196059 -0.371196 0.90762 0.110187 -0.557042 0.823142 -0.0256917 -0.532917 0.845777 
0.266878 0.527066 0.806832 0.0902127 0.651635 0.753149 -0.00487044 0.647273 0.762243 
-0.00730361 0.604674 0.79644 -0.0551153 0.995972 -0.0707228 -0.143651 0.652385 0.744149 
0.281927 0.51285 0.810865 0.266505 0.530415 0.804758 0.346132 0.735143 0.582887 
-0.398335 0.427703 0.811418 -0.356628 0.345825 0.867883 -0.441658 0.461433 0.769427 
-0.171704 0.406883 0.897198 -0.309891 0.840619 0.444216 -0.387998 0.912902 0.126761 
0.671167 0.692368 0.264881 0.384069 0.402255 0.831073 0.382122 0.391902 0.836896 
0.419002 0.431087 0.799125 -0.191163 0.308141 0.931936 -0.171538 0.232603 0.957325 
-0.26429 0.392378 0.881017 -0.458421 0.592852 0.6621 0.394636 0.414362 0.820102 
0.397515 0.414587 0.818596 0.401925 0.419883 0.813729 -0.192213 0.19644 0.961491 
-0.256269 0.186887 0.948367 -0.269908 0.227086 0.935725 -0.720944 0.43338 0.54076 
0.554991 0.292577 0.778707 0.579818 0.259327 0.772373 0.665495 0.33819 0.66539 
-0.34825 0.128423 0.928563 -0.504783 0.202222 0.839226 -0.877203 0.343081 0.335874 
0.612155 0.203843 0.764012 -0.299705 0.088544 0.949914 -0.397732 0.152029 0.904818 
-0.844073 0.173688 0.50732 0.661578 -0.0560045 0.747782 0.986298 -0.0759117 0.146471 
-0.306299 0.061868 0.949923 -0.317392 0.0618398 0.946276 -0.758549 0.107151 0.642746 
0.639057 -0.225536 0.73535 0.628831 -0.254509 0.734709 -0.343447 -0.0410326 0.938275 
-0.345205 -0.0415774 0.937606 -0.73655 -0.082161 0.671374 0.584771 -0.276408 0.762654 
0.757681 -0.365674 0.540558 -0.365867 -0.0762673 0.927537 -0.433084 -0.0972045 0.896097 
-0.810036 -0.297384 0.505375 0.596333 -0.359914 0.71753 0.592323 -0.396551 0.701356 
-0.346795 -0.313726 0.883917 -0.25775 -0.364395 0.894864 -0.540743 -0.357312 0.761528 
0.57629 -0.454351 0.679304 0.749855 -0.562858 0.347719 0.506796 -0.539561 0.672333 
-0.148528 -0.338675 0.929106 -0.258077 -0.288244 0.922123 -0.254165 -0.303633 0.918263 
-0.466013 -0.534473 0.705104 0.413991 -0.583108 0.698996 0.602981 -0.684054 0.410468 
0.322193 -0.598775 0.733253 0.208842 -0.576576 0.789902 -0.141489 -0.518457 0.843317 
-0.20348 -0.454571 0.867157 -0.195664 -0.386071 0.901479 -0.200969 -0.39325 0.897199 
-0.229474 -0.498278 0.836098 -0.404391 -0.71118 0.575058 0.485805 -0.830702 0.271897 
0.1217 -0.566247 0.815202 0.276944 -0.724763 0.630889 0.112637 -0.562293 0.819231 
-0.0961114 -0.541989 0.834872 -0.0245617 -0.557524 0.829798 -0.145011 -0.560825 0.815136 
-0.238602 -0.671133 0.70189 -0.278641 -0.806036 0.522174 -0.0540144 0.994888 -0.0853274 
0.389521 0.914029 0.113245 0.217098 0.976148 0.00210741 0.127402 0.991337 -0.0319442 
0.0302277 0.995679 -0.0878026 0.0537874 0.994645 -0.0882491 -0.0647934 0.994326 -0.0843711 
-0.0543588 0.994106 -0.0937973 -0.196038 0.978191 -0.0686338 -0.315897 0.947735 0.0448151 
-0.327589 0.937884 0.11428 -0.387246 0.915825 0.106328 0.686311 0.713923 0.138891 
0.551696 0.826725 0.110263 0.567373 0.815819 0.111927 -0.242219 0.860608 -0.447978 
-0.392724 0.91352 0.10606 -0.390704 0.917623 0.0729228 -0.554334 0.812208 0.181748 
0.698924 0.701165 0.140974 0.654947 0.735234 -0.174569 -0.662603 0.71171 0.233293 
-0.765502 0.567938 0.302411 0.754932 0.636472 0.158053 0.762456 0.627877 0.156307 
-0.801189 0.499772 0.329126 -0.877417 0.343638 0.334742 0.89702 0.397009 0.194264 
-0.877732 0.342957 0.334616 -0.890994 0.355278 0.28268 0.96879 0.199944 0.146517 
0.989059 -0.0529722 0.137685 -0.890934 0.185951 0.414319 0.987593 -0.0755503 0.137668 
0.987107 -0.0805173 0.138336 0.990865 -0.0750441 0.11205 -0.901326 0.110093 0.418916 
0.947739 -0.257826 0.187928 -0.904305 -0.0840344 0.418534 0.883475 -0.417114 0.213279 
0.854678 -0.481582 0.193917 -0.861154 -0.297752 0.412016 -0.821717 -0.40082 0.405122 
0.845768 -0.498489 0.190225 -0.749717 -0.529816 0.39651 -0.66096 -0.644431 0.3845 
0.786056 -0.584251 0.201907 0.767041 -0.610073 0.198643 -0.637867 -0.655694 0.403969 
-0.555265 -0.717009 0.4214 -0.702504 -0.703957 -0.104555 0.682915 -0.704478 0.193229 
0.641771 -0.741133 0.197107 -0.357077 -0.853871 0.378681 -0.503642 -0.77178 0.388202 
-0.466492 -0.790249 0.397356 0.507633 -0.832513 0.221878 0.494257 -0.839609 0.225316 
0.341539 -0.896671 0.281659 0.15168 -0.947944 0.279991 0.00100158 -0.964983 0.26231 
-0.160345 -0.942825 0.292183 -0.263077 -0.907329 0.32794 -0.334965 -0.864157 0.37554 
-0.294419 -0.871376 0.392455 -0.366172 -0.930315 -0.0207871 0.298649 0.832 -0.467531 
0.108767 0.829037 -0.548514 -0.0290892 0.768523 -0.63916 -0.0626869 0.688283 -0.722729 
0.00849499 0.665381 -0.746456 -0.036495 0.698469 -0.714709 -0.200154 0.667944 -0.716791 
0.380294 0.810849 -0.44486 0.478805 0.779791 -0.403326 0.271311 0.773071 -0.573368 
0.0575484 0.682026 -0.72906 -0.0585138 0.617812 -0.784146 -0.0755037 0.596903 -0.798753 
0.00768981 0.57866 -0.815533 -0.0610403 0.568794 -0.820212 -0.194 0.702783 -0.684441 
-0.187374 0.612549 -0.767902 -0.191083 0.754398 -0.62799 -0.266834 0.735385 -0.622903 
-0.414683 0.77814 -0.471736 0.597212 0.721894 -0.34958 0.612745 0.711791 -0.34336 
0.367698 0.651736 -0.663354 -0.0798851 0.489786 -0.868175 -0.0697469 0.449998 -0.890302 
-0.0808015 0.438407 -0.895137 -0.0722601 0.404647 -0.911613 -0.0491575 0.45913 -0.887008 
-0.0720407 0.581051 -0.810673 -0.152339 0.655119 -0.740008 -0.482693 0.764842 -0.426643 
-0.357625 0.733878 -0.577518 -0.681251 0.659946 -0.316808 0.744548 0.586371 -0.319089 
0.771225 0.551219 -0.318386 0.521632 0.490616 -0.697995 -0.754359 0.557595 -0.346454 
-0.662354 0.510213 -0.548607 0.855727 0.400914 -0.327108 0.702602 0.371745 -0.606759 
-0.850908 0.413602 -0.323865 -0.858823 0.40063 -0.319247 0.930206 0.191858 -0.312903 
-0.939183 0.250556 -0.234856 -0.835804 0.265603 -0.480507 0.943646 -0.0567661 -0.326052 
-0.969138 0.126184 -0.211778 -0.747947 0.14553 -0.647609 0.94058 -0.216519 -0.261587 
-0.975823 -0.08473 -0.201469 -0.715824 -0.0754961 -0.694187 0.894406 -0.395491 -0.208866 
0.862555 -0.469572 -0.188416 0.808524 -0.299652 -0.506456 -0.931106 -0.30524 -0.199674 
-0.869727 -0.452871 -0.19617 -0.820738 -0.301489 -0.485276 0.849084 -0.49336 -0.188819 
-0.829388 -0.529874 -0.177057 0.786727 -0.595011 -0.164384 0.766138 -0.620113 -0.168797 
0.74211 -0.588979 -0.319962 -0.599108 -0.781457 -0.174341 -0.459975 -0.519865 -0.719836 
-0.699661 -0.697196 -0.156179 -0.697596 -0.699364 -0.155724 -0.695664 -0.697874 -0.170366 
0.680959 -0.708281 -0.186099 0.648212 -0.737306 -0.190266 0.605984 -0.692551 -0.391352 
-0.581323 -0.795776 -0.169716 -0.489068 -0.857961 -0.157211 -0.413453 -0.701083 -0.580981 
0.523909 -0.826744 -0.204972 0.519266 -0.829692 -0.204877 0.51664 -0.825295 -0.227974 
0.352166 -0.908588 -0.224605 0.281381 -0.736824 -0.614748 0.141353 -0.964819 -0.221682 
-0.0107404 -0.97012 -0.242389 -0.151305 -0.946996 -0.283383 -0.20523 -0.942796 -0.262711 
-0.114878 -0.731442 -0.672157 -0.259824 -0.948038 -0.183621 -0.193477 -0.828119 -0.526105 
-0.365726 -0.913796 -0.176697 -0.356065 -0.917305 -0.178239 -0.355351 -0.910653 -0.210799 
0.139819 0.572438 -0.807939 -0.0191652 0.523555 -0.851776 0.164828 0.576531 -0.800277 
0.325951 0.554178 -0.765926 0.135684 0.568038 -0.811741 -0.0705695 0.494739 -0.866172 
-0.027098 0.520618 -0.85336 -0.0810377 0.487159 -0.869545 -0.0762571 0.436011 -0.896705 
-0.0908701 0.435119 -0.895776 -0.0974581 0.36815 -0.924645 0.0104989 0.363846 -0.9314 
0.0180651 0.427562 -0.903806 -0.0670738 0.447392 -0.891819 -0.275972 0.453424 -0.847494 
0.467917 0.47029 -0.748252 0.488548 0.451556 -0.746604 0.294397 0.429718 -0.853623 
0.0899352 0.390261 -0.916301 -0.060883 0.381621 -0.922311 -0.120406 0.39411 -0.911142 
-0.0871183 0.40909 -0.908326 -0.110877 0.453635 -0.884263 -0.109746 0.361137 -0.926032 
0.015626 0.353981 -0.935122 0.0364657 0.368788 -0.928798 -0.0500204 0.396285 -0.916764 
-0.323228 0.424822 -0.845606 -0.282836 0.423463 -0.860629 -0.474621 0.315679 -0.821634 
0.584862 0.342786 -0.735142 0.652099 0.185009 -0.735213 0.429792 0.317868 -0.845126 
0.255542 0.224217 -0.940439 0.0644116 0.172921 -0.982827 -0.0600514 0.172784 -0.983127 
-0.0910632 0.185871 -0.978345 -0.0201956 0.22629 -0.973851 -0.111545 0.277174 -0.954323 
-0.17949 0.378345 -0.908096 -0.0241266 0.321358 -0.946651 0.0118697 0.272609 -0.962052 
-0.0505616 0.246699 -0.967772 -0.211114 0.256717 -0.943148 -0.485468 0.3162 -0.815069 
-0.454493 0.308456 -0.835638 0.656976 0.152016 -0.738426 0.644875 0.151408 -0.749141 
0.359932 0.160789 -0.919019 0.16435 0.0924881 -0.982056 -0.0554835 -0.0180703 -0.998296 
-0.0677352 -0.00886096 -0.997664 0.00797234 0.149173 -0.988779 0.034905 0.00279943 -0.999387 
-0.084754 0.268314 -0.959596 -0.111244 0.205084 -0.972402 -0.0373074 0.171065 -0.984553 
-0.0833671 0.160955 -0.983435 -0.214857 0.152861 -0.964609 -0.495888 0.18729 -0.847949 
-0.441085 0.17665 -0.879908 0.693074 0.00826545 -0.720819 0.653196 0.0193244 -0.756942 
0.356345 0.055799 -0.932687 -0.104127 -0.0401689 -0.993752 0.0846324 -0.0679004 -0.994096 
0.0149685 -0.0713783 -0.997337 -0.143054 0.0542766 -0.988225 -0.0247503 0.0744747 -0.996916 
-0.0604871 0.0856789 -0.994485 -0.162876 0.121739 -0.979107 -0.61171 0.140638 -0.77848 
-0.382879 0.132441 -0.914255 0.726847 -0.104021 -0.678877 0.757567 -0.192276 -0.623796 
0.705995 -0.0953631 -0.701767 0.395373 -0.0281191 -0.91809 -0.159298 0.0571085 -0.985577 
-0.0178197 0.00458041 -0.999831 0.00703291 -0.218533 -0.975804 0.110292 0.0132069 -0.993811 
-0.123029 0.0457264 -0.991349 -0.00723928 0.0192904 -0.999788 -0.0362621 -0.00040202 -0.999342 
-0.15333 -0.0250776 -0.987857 -0.631015 -0.069874 -0.772618 -0.402559 -0.0477564 -0.914148 
0.767701 -0.270511 -0.580912 0.469923 -0.169159 -0.866347 -0.170399 0.0706688 -0.982838 
0.00292495 -0.013442 -0.999905 0.178114 0.026505 -0.983653 -0.0913069 0.0310966 -0.995337 
-0.0704387 -0.00276309 -0.997512 -0.104954 -0.038114 -0.993746 -0.207186 -0.150301 -0.966687 
-0.57372 -0.196742 -0.795071 -0.439462 -0.158303 -0.884202 0.712017 -0.420806 -0.562098 
0.675097 -0.498675 -0.543661 0.610384 -0.367555 -0.701666 0.299092 -0.237226 -0.924266 
-0.102928 0.0305304 -0.99422 -0.0403269 0.0874276 -0.995354 0.0313172 -0.0411377 -0.998663 
0.0435148 -0.154894 -0.986972 -0.0356264 -0.095121 -0.994828 -0.075317 -0.114552 -0.990558 
-0.185315 -0.169636 -0.967927 -0.437269 -0.496324 -0.749972 -0.286763 -0.265437 -0.920495 
-0.59069 -0.372101 -0.715979 -0.540085 -0.417539 -0.730732 -0.496726 -0.348694 -0.79478 
0.625056 -0.543778 -0.560009 0.536176 -0.614771 -0.578421 0.431606 -0.450217 -0.781678 
0.187908 -0.340836 -0.921152 0.0333053 -0.191773 -0.980874 -0.0377766 -0.105148 -0.993739 
-0.0691104 -0.0818745 -0.994244 -0.0632214 -0.147879 -0.986983 -0.00746287 -0.202376 -0.979279 
-0.0526893 -0.243298 -0.968519 -0.139062 -0.28049 -0.94973 -0.438211 -0.500299 -0.746775 
-0.354942 -0.574968 -0.737175 -0.258041 -0.366237 -0.894028 0.480171 -0.63288 -0.60737 
0.39176 -0.645872 -0.655266 0.334692 -0.548945 -0.765925 0.263548 -0.690565 -0.673545 
0.16412 -0.39434 -0.904191 0.0132705 -0.311844 -0.950041 -0.0827466 -0.315345 -0.945363 
-0.0981522 -0.325042 -0.940592 -0.0900806 -0.60866 -0.788301 -0.0612398 -0.380003 -0.922956 
-0.130723 -0.635434 -0.76101 -0.113231 -0.423349 -0.898863 -0.318839 -0.587141 -0.744048 
-0.273133 -0.596984 -0.754326 -0.235284 -0.502754 -0.831793 0.216458 -0.697383 -0.68323 
0.102445 -0.686541 -0.719838 0.0826882 -0.633947 -0.768943 -0.0645036 -0.653045 -0.754567 
-0.0697679 -0.604266 -0.793722 -0.150038 -0.608957 -0.778884 -0.150589 -0.608694 -0.778983 
-0.150433 -0.608216 -0.779386 0.0387678 0.0495511 -0.998019 0.0426966 0.0351327 -0.99847 
0.127463 0.0678522 -0.98952 -0.00206673 0.0113359 -0.999934 0.0351267 0.0318295 -0.998876 
-0.000565365 0.0788482 -0.996886 -0.0448522 0.188896 -0.980972 0.129369 0.0667207 -0.989349 
0.125258 0.0666556 -0.989883 -0.0578321 0.0157616 -0.998202 -0.042536 0.035586 -0.998461 
0.0250359 -0.00374638 -0.99968 -0.00322117 -0.00258713 -0.999991 0.000772622 -0.0959996 -0.995381 
-0.00624563 0.0340767 -0.9994 0.0109603 0.0279228 -0.99955 -0.0464377 0.0677683 -0.99662 
0.0108992 0.0756181 -0.997077 0.184441 0.00952426 -0.982797 0.130107 0.0191433 -0.991315 
-0.111118 0.0533693 -0.992373 -0.0672686 0.0521742 -0.99637 -0.152879 0.0653754 -0.98608 
0.0505495 -0.0189949 -0.998541 -0.0240103 -0.00245681 -0.999709 0.030884 -0.0303081 -0.999063 
0.232457 -0.0944906 -0.968006 0.225158 -0.123704 -0.966437 0.199512 -0.085653 -0.976145 
-0.0100268 0.0116449 -0.999882 -0.153408 0.0688686 -0.98576 -0.150762 0.0677596 -0.986245 
0.0721965 -0.0674596 -0.995106 -0.00221147 -0.0449831 -0.998985 0.0469885 -0.107918 -0.993049 
0.0470644 -0.0872336 -0.995076 0.180156 -0.18758 -0.965586 0.118111 -0.21894 -0.968563 
0.0801198 -0.147532 -0.985807 -0.100264 -0.0165289 -0.994824 -0.0390879 -0.110395 -0.993119 
-0.0979939 -0.0421843 -0.994293 
