# vtk DataFile Version 4.2
vtk output
ASCII
DATASET POLYDATA
POINTS 540 float
-32.3867 -23.9046 -17.6432 -32.3867 -39.0182 -10.4986 -24.8299 -39.0182 -12.338 
-17.2731 -39.0182 -13.8496 -9.71632 -39.0182 -15.0455 -2.15954 -39.0182 -15.2583 
5.39725 -39.0182 -15.0247 12.954 -39.0182 -13.7258 20.5108 -39.0182 -10.3349 
-39.9435 -31.4614 -12.4575 -32.3867 -24.4232 -17.4785 -32.3867 -31.4614 -14.9312 
-24.8299 -31.4614 -16.6384 -17.2731 -31.4614 -16.6705 -9.71632 -31.4614 -17.153 
-2.15954 -31.4614 -17.3506 5.39725 -31.4614 -17.0115 12.954 -31.4614 -16.1609 
20.5108 -31.4614 -14.9729 28.0676 -31.4614 -11.1832 -47.5003 -23.9046 -12.6728 
-32.9487 -23.9046 -17.4785 -39.9435 -23.9046 -15.3409 -27.9053 -23.9046 -17.4785 
-32.3867 -21.7057 -17.4785 -24.8299 -23.9046 -17.3485 -17.2731 -23.9046 -17.4584 
-9.71632 -23.9046 -17.4222 -2.15954 -23.9046 -16.6173 5.39725 -23.9046 -16.6531 
12.954 -23.9046 -16.2739 20.5108 -23.9046 -15.1556 28.0676 -23.9046 -13.4821 
35.6244 -23.9046 -10.9719 -55.0571 -16.3479 -11.8503 -47.5003 -16.3479 -16.0582 
-39.9435 -16.3479 -16.5374 -32.3867 -16.3479 -17.0213 -24.8299 -16.3479 -17.0667 
-17.2731 -16.3479 -16.948 -9.71632 -16.3479 -16.4514 -2.15954 -16.3479 -15.4407 
5.39725 -16.3479 -15.1678 12.954 -16.3479 -15.0701 20.5108 -16.3479 -14.5155 
28.0676 -16.3479 -13.725 35.6244 -16.3479 -12.8487 43.1812 -16.3479 -10.5201 
-55.0571 -8.79107 -12.1513 -47.5003 -8.79107 -15.5759 -39.9435 -8.79107 -17.4106 
-32.3867 -8.79107 -16.8274 -24.8299 -8.79107 -16.2754 -17.2731 -8.79107 -15.8811 
-9.71632 -8.79107 -15.9715 -2.15954 -8.79107 -15.6998 5.39725 -8.79107 -14.0662 
12.954 -8.79107 -13.6681 20.5108 -8.79107 -13.1719 28.0676 -8.79107 -13.0305 
35.6244 -8.79107 -12.8544 43.1812 -8.79107 -12.0461 50.738 -8.79107 -11.0011 
-55.0571 -1.23428 -13.239 -47.5003 -1.23428 -15.2817 -39.9435 -1.23428 -17.3781 
-32.3867 -1.23428 -16.4277 -24.8299 -1.23428 -15.4325 -17.2731 -1.23428 -14.2924 
-9.71632 -1.23428 -15.4386 -2.15954 -1.23428 -13.0548 5.39725 -1.23428 -13.6402 
12.954 -1.23428 -14.1774 20.5108 -1.23428 -12.2202 28.0676 -1.23428 -12.562 
35.6244 -1.23428 -12.6316 43.1812 -1.23428 -12.0456 50.738 -1.23428 -11.1511 
-55.0571 6.32251 -12.3136 -47.5003 6.32251 -15.5504 -39.9435 6.32251 -16.783 
-32.3867 6.32251 -16.0269 -24.8299 6.32251 -14.8963 -17.2731 6.32251 -13.24 
-9.71632 6.32251 -12.3925 -2.15954 6.32251 -14.8198 5.39725 6.32251 -14.2615 
12.954 6.32251 -13.2638 20.5108 6.32251 -11.589 28.0676 6.32251 -12.3779 
35.6244 6.32251 -11.8711 43.1812 6.32251 -11.1037 50.738 6.32251 -10.0929 
-55.0571 13.8793 -12.3481 -47.5003 13.8793 -16.715 -39.9435 13.8793 -15.8629 
-32.3867 13.8793 -15.7188 -24.8299 13.8793 -15.2942 -17.2731 13.8793 -13.9469 
-9.71632 13.8793 -13.0304 -2.15954 13.8793 -13.9563 5.39725 13.8793 -13.2187 
12.954 13.8793 -12.6997 20.5108 13.8793 -11.9227 28.0676 13.8793 -11.4909 
35.6244 13.8793 -11.1748 -47.5003 21.4361 -12.8528 -39.9435 21.4361 -14.9251 
-32.3867 21.4361 -15.4885 -24.8299 21.4361 -14.83 -17.2731 21.4361 -14.2921 
-9.71632 21.4361 -13.5769 -2.15954 21.4361 -13.3656 5.39725 21.4361 -13.0221 
12.954 21.4361 -12.7668 20.5108 21.4361 -11.9907 28.0676 21.4361 -11.0763 
-47.5003 28.9929 -10.0604 -39.9435 28.9929 -12.0545 -32.3867 28.9929 -13.7057 
-24.8299 28.9929 -13.5445 -17.2731 28.9929 -13.5937 -9.71632 28.9929 -13.4122 
-2.15954 28.9929 -13.0333 5.39725 28.9929 -12.7735 12.954 28.9929 -12.3081 
20.5108 28.9929 -11.2751 -32.3867 36.5497 -10.6747 -24.8299 36.5497 -10.6807 
-17.2731 36.5497 -11.3077 -9.71632 36.5497 -11.6337 -2.15954 36.5497 -11.9872 
5.39725 36.5497 -11.5799 12.954 36.5497 -10.2138 -32.3867 -39.5093 -9.92172 
-24.8299 -41.5048 -9.92172 -17.2731 -43.6838 -9.92172 -9.71632 -45.1369 -9.92172 
-9.71632 -46.575 -2.39215 -2.15954 -45.3956 -9.92172 -2.15954 -46.575 -2.39734 
5.39725 -44.7821 -9.92172 12.954 -42.9567 -9.92172 20.5108 -39.437 -9.92172 
-33.4442 -39.0182 -9.92172 -39.9435 -34.4733 -9.92172 21.3277 -39.0182 -9.92172 
28.0676 -33.7309 -9.92172 -45.5594 -31.4614 -9.92172 -47.5003 -29.7262 -9.92172 
-47.5003 -31.4614 -6.40508 31.3345 -31.4614 -9.92172 35.6244 -26.7936 -9.92172 
35.6244 -31.4614 -6.79753 -52.707 -23.9046 -9.92172 -55.0571 -21.3811 -9.92172 
-55.0571 -23.9046 -5.62635 39.0212 -23.9046 -9.92172 43.1812 -18.8823 -9.92172 
43.1812 -23.9046 -8.46005 50.738 -23.9046 -2.92959 -57.2309 -16.3479 -9.92172 
45.7146 -16.3479 -9.92172 50.738 -12.8122 -9.92172 50.738 -16.3479 -8.73931 
58.2948 -16.3479 -3.02965 -58.1145 -8.79107 -9.92172 52.8077 -8.79107 -9.92172 
58.2948 -8.79107 -6.14324 -59.8236 -1.23428 -9.92172 -62.6138 -1.23428 -5.35721 
53.0652 -1.23428 -9.92172 58.2948 -1.23428 -6.60871 -58.4287 6.32251 -9.92172 
43.1812 12.8368 -9.92172 51.007 6.32251 -9.92172 50.738 6.72142 -9.92172 
58.2948 6.32251 -5.52055 -58.1246 13.8793 -9.92172 -55.0571 19.9909 -9.92172 
42.1682 13.8793 -9.92172 35.6244 18.4032 -9.92172 43.1812 13.8793 -9.73032 
50.738 13.8793 -6.85057 -53.5107 21.4361 -9.92172 -55.0571 21.4361 -7.96008 
32.617 21.4361 -9.92172 28.0676 25.6527 -9.92172 35.6244 21.4361 -9.14168 
43.1812 21.4361 -7.152 50.738 21.4361 -3.0492 -47.6913 28.9929 -9.92172 
-47.5003 29.1671 -9.92172 -39.9435 32.497 -9.92172 25.0159 28.9929 -9.92172 
20.5108 32.4262 -9.92172 28.0676 28.9929 -8.89634 35.6244 28.9929 -6.42573 
43.1812 28.9929 -2.462 -34.5983 36.5497 -9.92172 -39.9435 36.5497 -5.26294 
-32.3867 37.418 -9.92172 -24.8299 37.5011 -9.92172 -17.2731 38.7679 -9.92172 
-9.71632 40.3463 -9.92172 -2.15954 41.618 -9.92172 5.39725 40.567 -9.92172 
13.9138 36.5497 -9.92172 12.954 37.0655 -9.92172 20.5108 36.5497 -7.83601 
28.0676 36.5497 -5.38539 -17.2731 44.1064 -4.83763 -9.71632 44.1064 -6.92076 
-2.15954 44.1064 -8.12603 5.39725 44.1064 -7.43385 12.954 44.1064 -4.51139 
-9.71632 -46.579 -2.36494 -2.15954 -46.5785 -2.36494 -32.3867 -40.8625 -2.36494 
-24.8299 -43.5621 -2.36494 -9.74554 -46.575 -2.36494 -17.2731 -45.5288 -2.36494 
-9.71632 -46.575 -2.35372 -2.12298 -46.575 -2.36494 -2.15954 -46.575 -2.35533 
5.39725 -45.8298 -2.36494 12.954 -44.1961 -2.36494 20.5108 -41.2766 -2.36494 
-47.5003 -32.3309 -2.36494 -36.4955 -39.0182 -2.36494 -39.9435 -37.3359 -2.36494 
-32.3867 -39.0182 1.82416 -24.8299 -39.0182 5.12828 25.3394 -39.0182 -2.36494 
20.5108 -39.0182 3.23922 28.0676 -37.6371 -2.36494 35.6244 -33.7271 -2.36494 
-48.5023 -31.4614 -2.36494 -55.0571 -24.9073 -2.36494 -47.5003 -31.4614 -0.924851 
39.7344 -31.4614 -2.36494 43.1812 -29.3947 -2.36494 50.738 -24.3733 -2.36494 
-55.852 -23.9046 -2.36494 -55.0571 -23.9046 -0.981019 51.3203 -23.9046 -2.36494 
58.2948 -17.1561 -2.36494 -59.8324 -16.3479 -2.36494 -55.0571 -16.3479 4.7272 
58.978 -16.3479 -2.36494 -61.9932 -8.79107 -2.36494 -62.6138 -6.09735 -2.36494 
62.4212 -8.79107 -2.36494 -63.5829 -1.23428 -2.36494 -62.6138 5.01755 -2.36494 
-62.6138 -1.23428 -0.689074 62.9066 -1.23428 -2.36494 -62.3698 6.32251 -2.36494 
61.7166 6.32251 -2.36494 58.2948 12.9186 -2.36494 -60.6608 13.8793 -2.36494 
57.5585 13.8793 -2.36494 58.2948 13.8793 -1.28884 -56.8857 21.4361 -2.36494 
-55.0571 24.1279 -2.36494 -55.0571 21.4361 0.700941 52.0579 21.4361 -2.36494 
50.738 22.3067 -2.36494 -50.9858 28.9929 -2.36494 -47.5003 32.4171 -2.36494 
-47.5003 28.9929 3.25078 35.6244 33.9686 -2.36494 43.3161 28.9929 -2.36494 
43.1812 29.0997 -2.36494 -41.9701 36.5497 -2.36494 -39.9435 37.906 -2.36494 
-39.9435 36.5497 1.22655 -32.3867 41.2486 -2.36494 -24.8299 43.5966 -2.36494 
20.5108 42.9206 -2.36494 32.5799 36.5497 -2.36494 28.0676 39.2583 -2.36494 
35.6244 36.5497 2.94625 -22.9052 44.1064 -2.36494 -17.2731 45.4796 -2.36494 
-9.71632 46.8902 -2.36494 -2.15954 47.6879 -2.36494 5.39725 47.3143 -2.36494 
17.6195 44.1064 -2.36494 12.954 45.6971 -2.36494 -17.2731 -41.3508 5.19185 
-9.71632 -42.7892 5.19185 -2.15954 -42.7592 5.19185 5.39725 -41.7963 5.19185 
12.954 -40.2094 5.19185 -39.9435 -32.8846 5.19185 -32.3867 -36.0681 5.19185 
-24.6596 -39.0182 5.19185 -24.8299 -38.9425 5.19185 -17.2731 -39.0182 7.08754 
-9.71632 -39.0182 8.24816 -2.15954 -39.0182 8.44281 5.39725 -39.0182 7.84805 
17.1169 -39.0182 5.19185 12.954 -39.0182 6.50666 20.5108 -38.093 5.19185 
28.0676 -35.7252 5.19185 35.6244 -32.5405 5.19185 -41.9229 -31.4614 5.19185 
-47.5003 -26.6256 5.19185 -39.9435 -31.4614 6.25561 -32.3867 -31.4614 7.97203 
-24.8299 -31.4614 9.25121 -17.2731 -31.4614 11.3692 -9.71632 -31.4614 11.6827 
-2.15954 -31.4614 12.1862 5.39725 -31.4614 12.6025 20.5108 -31.4614 12.5251 
28.0676 -31.4614 10.9157 38.8046 -31.4614 5.19185 35.6244 -31.4614 7.02814 
43.1812 -29.8619 5.19185 50.738 -25.6018 5.19185 -50.1354 -23.9046 5.19185 
-47.5003 -23.9046 6.7681 -39.9435 -23.9046 8.90412 -32.3867 -23.9046 9.86922 
-24.8299 -23.9046 11.0613 -17.2731 -23.9046 12.0772 53.0458 -23.9046 5.19185 
50.738 -23.9046 8.51453 58.2948 -19.7241 5.19185 -54.2373 -16.3479 5.19185 
-55.0571 -15.4945 5.19185 -47.5003 -16.3479 8.01638 -39.9435 -16.3479 9.88312 
-32.3867 -16.3479 11.6409 -24.8299 -16.3479 11.5856 -17.2731 -16.3479 11.8786 
61.1631 -16.3479 5.19185 58.2948 -16.3479 10.1506 -57.5709 -8.79107 5.19185 
-55.0571 -8.79107 7.11438 -47.5003 -8.79107 10.4839 -39.9435 -8.79107 10.9464 
-32.3867 -8.79107 11.5788 -24.8299 -8.79107 11.605 -17.2731 -8.79107 11.5425 
64.4734 -8.79107 5.19185 58.2948 -8.79107 12.2392 -55.9247 -1.23428 5.19185 
-55.0571 -1.23428 5.73735 -47.5003 -1.23428 9.72069 -39.9435 -1.23428 11.4727 
-32.3867 -1.23428 12.0176 -24.8299 -1.23428 12.2626 65.2042 -1.23428 5.19185 
-57.7068 6.32251 5.19185 -55.0571 6.32251 7.21928 -47.5003 6.32251 10.4974 
-39.9435 6.32251 11.2719 -32.3867 6.32251 12.1359 64.8741 6.32251 5.19185 
-55.4345 13.8793 5.19185 -55.0571 14.72 5.19185 -55.0571 13.8793 5.48522 
-47.5003 13.8793 8.82249 -39.9435 13.8793 10.526 -32.3867 13.8793 12.1733 
60.9023 13.8793 5.19185 58.2948 17.8832 5.19185 58.2948 13.8793 10.4998 
-49.2888 21.4361 5.19185 -47.5003 24.9064 5.19185 -47.5003 21.4361 6.20946 
-39.9435 21.4361 9.8447 -32.3867 21.4361 12.2378 55.4433 21.4361 5.19185 
[...]
POINT_DATA 540
SCALARS ImageScalars float
LOOKUP_TABLE default
0 0 0 0 0 0 0 0 0 
0 0 0 0 0 0 0 0 0 
0 0 0 0 0 0 0 0 0 
0 0 0 0 0 0 0 0 0 
0 0 0 0 0 0 0 0 0 
0 0 0 0 0 0 0 0 0 
0 0 0 0 0 0 0 0 0 
0 0 0 0 0 0 0 0 0 
0 0 0 0 0 0 0 0 0 
0 0 0 0 0 0 0 0 0 
0 0 0 0 0 0 0 0 0 
0 0 0 0 0 0 0 0 0 
0 0 0 0 0 0 0 0 0 
0 0 0 0 0 0 0 0 0 
0 0 0 0 0 0 0 0 0 
0 0 0 0 0 0 0 0 0 
0 0 0 0 0 0 0 0 0 
0 0 0 0 0 0 0 0 0 
0 0 0 0 0 0 0 0 0 
0 0 0 0 0 0 0 0 0 
0 0 0 0 0 0 0 0 0 
0 0 0 0 0 0 0 0 0 
0 0 0 0 0 0 0 0 0 
0 0 0 0 0 0 0 0 0 
0 0 0 0 0 0 0 0 0 
0 0 0 0 0 0 0 0 0 
0 0 0 0 0 0 0 0 0 
0 0 0 0 0 0 0 0 0 
0 0 0 0 0 0 0 0 0 
0 0 0 0 0 0 0 0 0 
0 0 0 0 0 0 0 0 0 
0 0 0 0 0 0 0 0 0 
0 0 0 0 0 0 0 0 0 
0 0 0 0 0 0 0 0 0 
0 0 0 0 0 0 0 0 0 
0 0 0 0 0 0 0 0 0 
0 0 0 0 0 0 0 0 0 
0 0 0 0 0 0 0 0 0 
0 0 0 0 0 0 0 0 0 
0 0 0 0 0 0 0 0 0 
0 0 0 0 0 0 0 0 0 
0 0 0 0 0 0 0 0 0 
0 0 0 0 0 0 0 0 0 
0 0 0 0 0 0 0 0 0 
0 0 0 0 0 0 0 0 0 
0 0 0 0 0 0 0 0 0 
0 0 0 0 0 0 0 0 0 
0 0 0 0 0 0 0 0 0 
0 0 0 0 0 0 0 0 0 
0 0 0 0 0 0 0 0 0 
0 0 0 0 0 0 0 0 0 
0 0 0 0 0 0 0 0 0 
0 0 0 0 0 0 0 0 0 
0 0 0 0 0 0 0 0 0 
0 0 0 0 0 0 0 0 0 
0 0 0 0 0 0 0 0 0 
0 0 0 0 0 0 0 0 0 
0 0 0 0 0 0 0 0 0 
0 0 0 0 0 0 0 0 0 
0 0 0 0 0 0 0 0 0 

NORMALS Normals float
-0.14047 -0.13254 -0.981173 -0.327437 -0.783409 -0.528257 -0.195929 -0.665455 -0.720265 
-0.172546 -0.541844 -0.822577 -0.0912775 -0.473511 -0.876045 6.8881e-05 -0.424498 -0.905429 
0.0938458 -0.438954 -0.893595 0.274222 -0.554491 -0.785712 0.421622 -0.702388 -0.573486 
-0.378398 -0.554692 -0.741034 -0.144343 -0.149142 -0.978224 -0.219005 -0.39774 -0.890977 
-0.11674 -0.288318 -0.950392 -0.0332582 -0.219654 -0.975011 -0.0446764 -0.148043 -0.987971 
0.00951561 -0.069773 -0.997518 0.078606 -0.0891392 -0.992913 0.12619 -0.147987 -0.980906 
0.304836 -0.250001 -0.919007 0.418629 -0.390587 -0.819873 -0.472589 -0.414243 -0.777857 
-0.14884 -0.13634 -0.979417 -0.272322 -0.211415 -0.938693 -0.0510934 -0.0680623 -0.996372 
-0.11082 -0.0803143 -0.99059 0.0128913 -0.0217769 -0.99968 -0.00478457 -0.0165479 -0.999852 
0.0551952 0.046701 -0.997383 0.051953 0.125428 -0.990741 0.023145 0.116393 -0.992934 
0.0958807 0.0701181 -0.99292 0.168934 0.0316665 -0.985118 0.263763 -0.157058 -0.951715 
0.29249 -0.30131 -0.907558 -0.616837 -0.205409 -0.759815 -0.302492 -0.132436 -0.943906 
-0.0590001 -0.148075 -0.987215 -0.0337761 0.0523097 -0.99806 0.00488763 0.0714532 -0.997432 
0.0405029 0.101193 -0.994042 0.0999384 0.0969629 -0.990258 0.084226 0.0626357 -0.994476 
0.0248637 0.169871 -0.985153 0.0424667 0.172077 -0.984168 0.09125 0.130218 -0.987277 
0.112373 0.031239 -0.993175 0.193693 -0.100437 -0.975907 0.264632 -0.201153 -0.943137 
-0.589978 -0.0861455 -0.802811 -0.27194 0.0413897 -0.961424 -0.108264 -0.0552474 -0.992586 
0.0732271 0.0392399 -0.996543 0.0611885 0.1073 -0.992342 0.0202436 0.175963 -0.984189 
0.0106606 0.0601881 -0.99813 0.137627 0.110568 -0.984293 0.125276 0.091774 -0.987868 
0.059135 0.0611966 -0.996372 0.0420946 0.151219 -0.987604 0.0208021 0.0790922 -0.99665 
0.0623004 0.0142753 -0.997955 0.137245 -0.0954154 -0.985931 0.326852 -0.132357 -0.935761 
-0.428376 -0.011115 -0.903532 -0.243119 0.00137509 -0.969996 -0.073293 0.0417738 -0.996435 
0.124939 0.0524182 -0.990779 0.139424 0.0901873 -0.986117 0.0151694 0.17098 -0.985158 
0.0347657 0.236389 -0.971036 0.130286 0.0863535 -0.987709 -0.0693217 -0.0138584 -0.997498 
0.110066 0.0177114 -0.993766 0.0894773 0.103726 -0.990573 -0.0271464 0.042996 -0.998706 
0.0329315 0.0648198 -0.997353 0.108953 0.0618548 -0.992121 0.318532 0.0432857 -0.946923 
-0.581815 0.0522908 -0.811638 -0.223999 -0.0694655 -0.972111 -0.0501919 0.0998118 -0.99374 
0.121902 0.0464686 -0.991454 0.180676 0.00893845 -0.983502 0.161168 0.0225641 -0.986669 
-0.0830746 0.125336 -0.98863 -0.123728 -0.0288916 -0.991895 0.0922546 0.0370923 -0.995044 
0.190067 0.0979128 -0.976877 0.0390728 0.019681 -0.999043 -0.0188361 0.0706516 -0.997323 
0.0822601 0.0933632 -0.992228 0.105912 0.150435 -0.98293 0.353945 0.278893 -0.892716 
-0.567258 0.200406 -0.798784 -0.23165 0.100037 -0.967642 0.0517319 0.133457 -0.989703 
0.0372537 0.0350862 -0.99869 0.117482 0.0044924 -0.993065 0.148075 -0.0683591 -0.986611 
0.00271778 -0.0735161 -0.99729 -0.0134551 0.0905423 -0.995802 0.0811127 0.0803273 -0.993463 
0.085107 0.0261484 -0.996029 0.0795134 -0.0264272 -0.996483 0.0483185 0.0870202 -0.995034 
0.11707 0.180685 -0.976549 -0.427398 0.409637 -0.805934 -0.136455 0.193342 -0.971596 
0.000387774 0.147547 -0.989055 0.0772099 0.111169 -0.990798 0.0828217 0.0211417 -0.99634 
0.0609416 -0.0245536 -0.997839 0.036627 0.0585696 -0.997611 0.0394825 0.0292527 -0.998792 
0.0673316 0.0246595 -0.997426 0.114635 0.0448329 -0.992396 0.179472 0.157573 -0.971062 
-0.469853 0.553675 -0.687519 -0.267857 0.512026 -0.816138 -0.0685203 0.307751 -0.948997 
0.0085798 0.233644 -0.972284 0.0097735 0.171981 -0.985052 0.0356396 0.129216 -0.990976 
0.0430006 0.0943712 -0.994608 0.0460859 0.0971097 -0.994206 0.104326 0.150508 -0.983089 
0.206807 0.232824 -0.950276 -0.167314 0.633624 -0.755332 -0.0369618 0.533949 -0.844709 
-0.0580213 0.429844 -0.901037 -0.042823 0.350043 -0.935754 0.00384961 0.275584 -0.961269 
0.10532 0.285711 -0.952511 0.229094 0.382675 -0.895028 -0.333954 -0.807485 -0.486253 
-0.245129 -0.792918 -0.557846 -0.208994 -0.821362 -0.530741 -0.0907289 -0.877534 -0.470852 
-0.0696529 -0.99205 0.104808 0.0191513 -0.898384 -0.438793 0.0490177 -0.990366 0.12951 
0.144345 -0.892735 -0.426835 0.295473 -0.831612 -0.470232 0.428111 -0.724297 -0.540477 
-0.356596 -0.795938 -0.489205 -0.452248 -0.695314 -0.558579 0.439176 -0.715004 -0.543961 
0.46917 -0.523619 -0.711128 -0.532776 -0.631788 -0.563021 -0.562908 -0.583278 -0.585595 
-0.640999 -0.737295 -0.213347 0.447487 -0.48087 -0.754002 0.363539 -0.417558 -0.832757 
0.502166 -0.710862 -0.492447 -0.608483 -0.505933 -0.611376 -0.660797 -0.435712 -0.611149 
-0.779728 -0.604395 -0.163497 0.325661 -0.362129 -0.873389 0.308059 -0.270421 -0.912125 
0.403731 -0.475995 -0.781301 0.562476 -0.716258 -0.413033 -0.758979 -0.239674 -0.605399 
0.321542 -0.264582 -0.90918 0.379145 -0.284036 -0.880666 0.435963 -0.409109 -0.801602 
0.697926 -0.468314 -0.541832 -0.761293 -0.128714 -0.635504 0.393589 -0.163262 -0.904673 
0.633431 -0.216585 -0.74287 -0.768732 -0.0171037 -0.639342 -0.994444 -0.0245846 -0.102356 
0.385426 0.0582532 -0.920898 0.605258 0.0363473 -0.795199 -0.768592 0.0770199 -0.635086 
0.222197 0.209285 -0.952275 0.362202 0.276479 -0.890151 0.353639 0.290326 -0.889185 
0.605071 0.219728 -0.765251 -0.752892 0.23684 -0.614053 -0.609465 0.449678 -0.652949 
0.222606 0.214354 -0.951052 0.181095 0.223503 -0.957732 0.240058 0.220941 -0.945282 
0.393077 0.406129 -0.824955 -0.58022 0.482337 -0.656274 -0.696351 0.550833 -0.460086 
0.206098 0.214004 -0.954843 0.23027 0.246771 -0.941318 0.228801 0.258854 -0.938427 
0.376184 0.436692 -0.817182 0.4684 0.560512 -0.682955 -0.479097 0.559894 -0.676006 
-0.474757 0.563039 -0.676456 -0.351229 0.580366 -0.73472 0.243695 0.283568 -0.927471 
0.231904 0.340108 -0.911344 0.278186 0.325858 -0.903565 0.370956 0.488463 -0.789808 
0.497309 0.626226 -0.600437 -0.237964 0.653647 -0.718415 -0.502722 0.81367 -0.291912 
-0.170691 0.682545 -0.710631 -0.0518974 0.572121 -0.818525 -0.107716 0.522668 -0.845704 
-0.0909733 0.519461 -0.849638 -0.00949514 0.530213 -0.847811 0.142851 0.476036 -0.867746 
0.235426 0.394238 -0.888342 0.23499 0.401413 -0.885238 0.281983 0.517502 -0.807884 
0.404479 0.609303 -0.682016 -0.206731 0.892148 -0.401665 -0.133311 0.791701 -0.596186 
-0.0196623 0.721051 -0.692603 0.158408 0.736736 -0.657364 0.287815 0.822244 -0.490997 
-0.0695482 -0.991871 0.106562 0.0491168 -0.990106 0.131445 -0.384783 -0.915417 0.118125 
-0.298065 -0.948579 0.106561 -0.0700359 -0.991839 0.106537 -0.190395 -0.976377 0.102164 
-0.0695368 -0.991798 0.107243 0.0496044 -0.990068 0.131546 0.0491419 -0.990033 0.131987 
0.149692 -0.977371 0.149457 0.288785 -0.947748 0.135563 0.390502 -0.916707 0.0845932 
-0.624941 -0.765437 0.153475 -0.439214 -0.889623 0.125145 -0.494782 -0.861635 0.113031 
-0.36612 -0.821521 0.437104 -0.217821 -0.659137 0.719786 0.434202 -0.899989 0.0385776 
0.29598 -0.871536 0.390923 0.465839 -0.88475 -0.0145365 0.478718 -0.865582 -0.14696 
-0.642765 -0.7508 0.152159 -0.78649 -0.600763 0.143241 -0.623356 -0.739275 0.254756 
0.502119 -0.832791 -0.233099 0.512573 -0.796086 -0.321739 0.568643 -0.733549 -0.372225 
-0.806132 -0.574176 0.143084 -0.789504 -0.575144 0.214227 0.571035 -0.730357 -0.374831 
0.700194 -0.5165 -0.492906 -0.913988 -0.385184 0.127512 -0.565803 -0.347568 0.747705 
0.719567 -0.478089 -0.503641 -0.963765 -0.237701 0.121062 -0.976907 -0.16511 0.135614 
0.826919 -0.239103 -0.508954 -0.990236 -0.0232506 0.137448 -0.976821 0.156616 0.145915 
-0.968623 -0.0212831 0.247623 0.863685 0.0393744 -0.502492 -0.971117 0.19192 0.141769 
0.772682 0.263477 -0.577531 0.713189 0.415983 -0.564198 -0.930104 0.334837 0.150966 
0.700092 0.430312 -0.569828 0.759909 0.459618 -0.459662 -0.83978 0.528073 0.126127 
-0.794703 0.596577 0.111992 -0.75651 0.52235 0.393501 0.516037 0.582179 -0.62831 
0.490716 0.591472 -0.639811 -0.734945 0.673712 0.0772552 -0.677972 0.734078 0.0385018 
-0.638366 0.51542 0.571691 0.501023 0.643469 -0.578726 0.500605 0.62892 -0.594857 
0.499028 0.630191 -0.594837 -0.538559 0.842127 -0.0278482 -0.496315 0.867179 -0.0408972 
-0.527344 0.804733 0.272604 -0.340685 0.934538 -0.102825 -0.266355 0.939817 -0.214008 
0.384368 0.837433 -0.388546 0.496045 0.692255 -0.524139 0.420617 0.793036 -0.440653 
0.516556 0.849296 -0.108928 -0.255802 0.943439 -0.210924 -0.217645 0.951974 -0.215352 
-0.155943 0.958581 -0.238335 -0.0290909 0.966465 -0.255146 0.123713 0.951302 -0.282346 
0.351141 0.868572 -0.349689 0.286098 0.8958 -0.340134 -0.185994 -0.689093 0.700398 
-0.0677687 -0.750624 0.657245 0.0513984 -0.754155 0.654681 0.129572 -0.755777 0.641882 
0.198102 -0.775271 0.599759 -0.38061 -0.575487 0.723845 -0.274058 -0.599578 0.751929 
-0.215711 -0.654711 0.724447 -0.216551 -0.653217 0.725543 -0.165707 -0.589466 0.790614 
-0.0802225 -0.577752 0.81226 0.0206338 -0.590298 0.806921 0.0963365 -0.652005 0.75207 
0.225181 -0.802242 0.552903 0.174752 -0.742419 0.646743 0.243828 -0.824322 0.510923 
0.307338 -0.864309 0.398137 0.341123 -0.882682 0.323276 -0.405029 -0.54455 0.73445 
-0.465347 -0.458678 0.757012 -0.355621 -0.485767 0.798476 -0.204899 -0.392727 0.896539 
-0.192197 -0.334437 0.922612 -0.147384 -0.286192 0.946769 -0.0480362 -0.269084 0.961918 
-0.0613312 -0.298992 0.952283 -0.0423542 -0.370764 0.927761 0.092223 -0.604886 0.790954 
0.209597 -0.700353 0.682331 0.371932 -0.885445 0.278666 0.318651 -0.85014 0.419193 
0.42207 -0.878428 0.224103 0.545613 -0.826467 0.138776 -0.530291 -0.417937 0.737645 
-0.376459 -0.357338 0.854745 -0.225457 -0.254232 0.940497 -0.136678 -0.213594 0.967314 
-0.135457 -0.139102 0.98097 -0.121328 -0.0276696 0.992227 0.570247 -0.808272 0.146678 
0.539261 -0.736113 0.409066 0.709329 -0.691908 0.134597 -0.521692 -0.325359 0.788657 
-0.545695 -0.310024 0.778526 -0.347636 -0.234171 0.907917 -0.21038 -0.119658 0.970269 
-0.105504 -0.102452 0.989127 -0.0159273 -0.0374396 0.999172 -0.0885093 0.034957 0.995462 
0.83949 -0.525343 0.138821 0.667832 -0.479252 0.56949 -0.681932 -0.0966856 0.724997 
-0.526471 -0.0734603 0.847013 -0.285153 -0.076637 0.955413 -0.0681931 -0.104428 0.992192 
-0.0420055 -0.0250134 0.998804 0.0023954 -0.0446757 0.998999 -0.0883758 -0.0751954 0.993245 
0.942106 -0.289669 0.168903 0.623569 -0.115901 0.773129 -0.58209 -0.00828451 0.813082 
-0.541093 -0.00828427 0.840922 -0.305644 -0.00138984 0.952145 -0.167808 -0.0212482 0.985591 
-0.0510988 -0.0368761 0.998013 -0.0683668 -0.0810761 0.99436 0.992994 -0.0234173 0.115823 
-0.65199 0.0654965 0.755394 -0.521863 0.0398654 0.852097 -0.296583 0.0289369 0.954569 
-0.102005 0.0617125 0.992868 -0.100771 -0.0102471 0.994857 0.952561 0.288645 0.0964979 
-0.547311 0.298526 0.781878 -0.543824 0.310372 0.779695 -0.534324 0.293728 0.792604 
-0.335438 0.217891 0.916518 -0.195361 0.0967986 0.975943 -0.182213 -0.00644451 0.983238 
0.862743 0.500121 0.0745163 0.800901 0.593116 0.0822836 0.738847 0.392839 0.547523 
-0.539886 0.301531 0.785877 -0.547123 0.340326 0.764745 -0.515888 0.27247 0.81217 
-0.316655 0.0971689 0.943551 -0.275677 0.0956459 0.95648 0.743672 0.658906 0.113114 
0.689576 0.724108 0.0123463 0.616631 0.501565 0.606794 -0.531086 0.441143 0.723423 
-0.467174 0.585306 0.662696 -0.409701 0.381093 0.828802 -0.252135 0.244956 0.936176 
-0.220447 0.222322 0.949724 0.645371 0.763844 0.00625659 0.584325 0.811393 0.0143254 
0.495575 0.69176 0.525237 -0.464008 0.657111 0.594056 -0.432907 0.719177 0.543485 
-0.410152 0.609698 0.678265 -0.295642 0.849135 0.437682 -0.235268 0.502544 0.831925 
-0.13607 0.444483 0.885393 -0.0517483 0.377578 0.924531 0.290468 0.928653 0.230719 
0.381601 0.918567 0.103031 0.248027 0.650329 0.718021 0.492839 0.868928 0.0455459 
0.475161 0.877339 0.0670649 0.465532 0.868487 0.170325 -0.212419 0.864559 0.455429 
-0.189507 0.862044 0.470071 -0.182428 0.845744 0.501435 -0.150285 0.876764 0.456836 
-0.146131 0.798667 0.583761 -0.0756075 0.899939 0.42941 -0.0818744 0.761699 0.642738 
0.0752211 0.921885 0.380093 0.0324233 0.793132 0.608186 0.274197 0.92891 0.248883 
0.219587 0.927534 0.302426 0.178194 0.857512 0.482619 0.0048085 -0.508041 0.861319 
-0.0825193 -0.0994625 0.991614 -0.0859042 -0.205738 0.974829 -0.0213536 -0.435364 0.900001 
-0.0523872 -0.356079 0.932986 0.0421606 -0.548996 0.834761 0.000626023 -0.501623 0.865086 
0.086069 -0.591061 0.802022 0.167368 -0.595759 0.785531 0.206132 -0.580162 0.787986 
0.243591 -0.560213 0.791723 -0.0902675 -0.0779963 0.992859 -0.08566 -0.085157 0.992679 
-0.112301 -0.0994748 0.988683 -0.178673 -0.182114 0.966908 -0.112549 -0.282669 0.952592 
0.00582968 -0.336333 0.941725 0.11142 -0.40519 0.907418 0.186366 -0.487951 0.852743 
0.278642 -0.549101 0.787938 0.239536 -0.536653 0.80909 0.389008 -0.49154 0.779141 
-0.120354 -0.00247865 0.992728 -0.127488 -0.014367 0.991736 -0.159652 -0.169154 0.972573 
-0.2438 -0.0747091 0.966944 -0.186278 -0.101919 0.977197 -0.0413714 -0.143436 0.988795 
0.0504305 -0.190878 0.980317 0.127507 -0.24843 0.960221 0.179535 -0.328596 0.92725 
0.449883 -0.416539 0.79 0.341917 -0.417736 0.841778 -0.271116 -0.113965 0.955776 
-0.151621 -0.165259 0.974526 -0.315697 -0.123261 0.94082 -0.157815 -0.0789735 0.984306 
-0.100973 -0.0460971 0.993821 -0.193331 -0.00811992 0.9811 -0.0920989 -0.0197254 0.995554 
-0.00336078 -0.0590698 0.998248 0.053756 -0.113368 0.992098 0.165022 -0.135216 0.976977 
0.580848 -0.111314 0.806366 0.317409 -0.111045 0.941765 0.561726 -0.0468016 0.825998 
-0.127546 -0.145036 0.981171 -0.130189 -0.0725374 0.988832 -0.168167 -0.191236 0.967031 
-0.0963885 -0.127828 0.987101 -0.106299 -0.10522 0.988751 -0.177225 -0.0828931 0.980673 
-0.160269 0.0628273 0.985072 -0.0921665 0.0436601 0.994786 -0.0436825 0.0202358 0.998841 
0.0504307 -0.00202186 0.998726 0.157927 -0.0226214 0.987192 0.306454 -0.0265413 0.951515 
0.555844 -0.0307833 0.830717 0.547014 -0.0309901 0.83655 -0.135504 -0.0641864 0.988696 
-0.140559 -0.0711811 0.98751 -0.169291 -0.100346 0.980444 -0.206843 -0.0243006 0.978072 
-0.167697 -0.129848 0.97725 0.0891859 -0.0708919 0.993489 -0.0588679 0.0148564 0.998155 
-0.137985 0.0150306 0.99032 -0.0482578 0.031458 0.998339 0.00942532 0.0552781 0.998426 
0.147601 0.0407402 0.988208 0.303388 0.103968 0.947178 0.607963 0.0781933 0.790106 
0.607856 0.0904944 0.788874 0.602188 0.0766866 0.794662 -0.172662 -0.0370447 0.984284 
-0.164403 -0.0651495 0.984239 -0.112629 -0.0328297 0.993095 -0.111202 0.018849 0.993619 
-0.146863 0.187099 0.971301 -0.0522821 0.0343453 0.998042 -0.078931 -0.0680771 0.994553 
-0.0782558 -0.0226224 0.996677 -0.00323767 0.017672 0.999839 0.0595683 0.0104649 0.998169 
0.23044 0.200089 0.952293 0.539271 0.324719 0.77701 0.481449 0.400026 0.779863 
0.359136 0.305663 0.881811 -0.245318 0.0772717 0.966358 -0.21762 0.213013 0.952506 
-0.169801 0.0392871 0.984695 -0.0807549 0.0398329 0.995938 -0.0236052 0.0523666 0.998349 
-0.108521 0.0948943 0.989555 -0.171555 0.0706964 0.982635 -0.113256 0.0243284 0.993268 
-0.0492431 0.0649268 0.996674 -0.0190045 0.124782 0.992002 0.215404 0.226434 0.94991 
0.509318 0.402243 0.760786 0.417403 0.540781 0.730295 0.359039 0.287198 0.888036 
-0.215517 0.219579 0.951492 -0.126044 0.373883 0.918871 -0.0965181 0.16571 0.98144 
-0.0463754 0.328753 0.943277 -0.0543508 0.166335 0.98457 -0.115613 0.132555 0.98441 
-0.132151 0.171916 0.976208 -0.0796631 0.213371 0.973718 0.0198908 0.271766 0.962158 
0.239854 0.631049 0.737731 0.1445 0.337804 0.930058 0.383665 0.570527 0.726155 
0.33805 0.589212 0.733861 0.286454 0.492059 0.822084 -0.0676816 0.360363 0.930353 
-0.0857404 0.375704 0.922765 -0.087263 0.351659 0.932052 -0.0494746 0.465618 0.883602 
-0.0673243 0.38961 0.918516 0.0330761 0.53956 0.841298 0.00243342 0.485238 0.874379 
0.221944 0.632129 0.742397 0.099018 0.619161 0.778997 0.0914377 0.564272 0.82051 

