# vtk DataFile Version 4.2
vtk output
ASCII
DATASET POLYDATA
POINTS 556 float
-2.3774 -40.0775 -9.64914 -25.1244 -32.4952 -11.3306 -17.542 -32.4952 -12.3609 
-9.95972 -32.4952 -12.6897 -2.3774 -32.4952 -12.872 5.20492 -32.4952 -12.1548 
12.7872 -32.4952 -11.6077 20.3696 -32.4952 -12.3747 27.9519 -32.4952 -13.1964 
35.5342 -32.4952 -11.418 43.1165 -32.4952 -10.9642 -32.7067 -24.9128 -12.0457 
-25.1244 -24.9128 -12.949 -17.542 -24.9128 -13.4318 -9.95972 -24.9128 -13.7195 
-2.3774 -24.9128 -13.8967 5.20492 -24.9128 -13.4146 12.7872 -24.9128 -12.9918 
20.3696 -24.9128 -13.5815 27.9519 -24.9128 -13.8776 35.5342 -24.9128 -14.0727 
43.1165 -24.9128 -13.2363 50.6988 -24.9128 -10.9941 -40.289 -17.3305 -10.519 
-32.7067 -17.3305 -12.2686 -25.1244 -17.3305 -13.2099 -17.542 -17.3305 -13.5998 
-9.95972 -17.3305 -13.7782 -2.3774 -17.3305 -14.4495 5.20492 -17.3305 -13.3657 
12.7872 -17.3305 -13.0672 20.3696 -17.3305 -13.8917 27.9519 -17.3305 -14.2233 
35.5342 -17.3305 -14.538 43.1165 -17.3305 -15.6941 50.6988 -17.3305 -12.0214 
-47.8713 -9.74819 -10.0015 -40.289 -9.74819 -11.4745 -32.7067 -9.74819 -12.5341 
-25.1244 -9.74819 -13.0604 -17.542 -9.74819 -13.3453 -9.95972 -9.74819 -13.3468 
-2.3774 -9.74819 -16.5513 5.20492 -9.74819 -15.2825 12.7872 -9.74819 -13.5708 
20.3696 -9.74819 -13.6269 27.9519 -9.74819 -14.555 35.5342 -9.74819 -15.1696 
43.1165 -9.74819 -14.6218 50.6988 -9.74819 -13.1923 58.2812 -9.74819 -11.1599 
-47.8713 -2.16587 -10.3705 -40.289 -2.16587 -12.8777 -32.7067 -2.16587 -13.1917 
-25.1244 -2.16587 -13.373 -17.542 -2.16587 -14.3082 -9.95972 -2.16587 -16.8368 
-2.3774 -2.16587 -13.4203 5.20492 -2.16587 -15.2034 12.7872 -2.16587 -16.1214 
20.3696 -2.16587 -13.9687 27.9519 -2.16587 -14.9154 35.5342 -2.16587 -15.3917 
43.1165 -2.16587 -14.957 50.6988 -2.16587 -13.9806 58.2812 -2.16587 -10.5862 
-47.8713 5.41645 -11.3744 -40.289 5.41645 -12.945 -32.7067 5.41645 -13.8483 
-25.1244 5.41645 -13.3788 -17.542 5.41645 -12.7818 -9.95972 5.41645 -15.9852 
-2.3774 5.41645 -14.366 5.20492 5.41645 -16.7987 12.7872 5.41645 -14.0943 
20.3696 5.41645 -14.0905 27.9519 5.41645 -15.3417 35.5342 5.41645 -15.618 
43.1165 5.41645 -15.2686 50.6988 5.41645 -14.3443 58.2812 5.41645 -10.2222 
-47.8713 12.9988 -10.789 -40.289 12.9988 -14.5163 -32.7067 12.9988 -13.6977 
-25.1244 12.9988 -13.2249 -17.542 12.9988 -13.0011 -9.95972 12.9988 -14.0984 
-2.3774 12.9988 -14.5208 5.20492 12.9988 -14.4029 12.7872 12.9988 -14.1575 
20.3696 12.9988 -14.8513 27.9519 12.9988 -15.6448 35.5342 12.9988 -16.635 
43.1165 12.9988 -14.9963 50.6988 12.9988 -12.8032 -47.8713 20.5811 -10.7286 
-40.289 20.5811 -12.4835 -32.7067 20.5811 -13.0104 -25.1244 20.5811 -14.2921 
-17.542 20.5811 -14.1414 -9.95972 20.5811 -14.0638 -2.3774 20.5811 -13.7565 
5.20492 20.5811 -14.2622 12.7872 20.5811 -15.014 20.3696 20.5811 -15.7404 
27.9519 20.5811 -15.6352 35.5342 20.5811 -15.7601 43.1165 20.5811 -15.5407 
50.6988 20.5811 -12.2015 -40.289 28.1634 -11.645 -32.7067 28.1634 -13.6181 
-25.1244 28.1634 -13.617 -17.542 28.1634 -14.2628 -9.95972 28.1634 -13.841 
-2.3774 28.1634 -13.8277 5.20492 28.1634 -14.3708 12.7872 28.1634 -14.9508 
20.3696 28.1634 -15.2033 27.9519 28.1634 -15.0105 35.5342 28.1634 -14.1196 
43.1165 28.1634 -11.8833 -32.7067 35.7457 -10.0987 -25.1244 35.7457 -13.4795 
-17.542 35.7457 -12.8455 -9.95972 35.7457 -12.9513 -2.3774 35.7457 -13.0606 
5.20492 35.7457 -13.5482 12.7872 35.7457 -13.6862 20.3696 35.7457 -13.5689 
27.9519 35.7457 -12.872 35.5342 35.7457 -11.1995 -25.1244 43.3281 -10.0665 
-17.542 43.3281 -10.1246 -9.95972 43.3281 -10.2859 -2.3774 43.3281 -10.4569 
5.20492 43.3281 -10.7521 12.7872 43.3281 -10.1582 20.3696 43.3281 -9.93747 
-2.3774 -40.2007 -9.55496 -32.7067 -40.0775 -3.12458 -25.1244 -36.376 -9.55496 
-25.1244 -40.0775 -7.37403 -17.542 -38.2123 -9.55496 -17.542 -40.0775 -8.2958 
-5.36984 -40.0775 -9.55496 -9.95972 -39.7879 -9.55496 -9.95972 -40.0775 -9.40582 
-1.61497 -40.0775 -9.55496 5.20492 -38.4411 -9.55496 5.20492 -40.0775 -8.70523 
12.7872 -36.7188 -9.55496 12.7872 -40.0775 -7.411 20.3696 -37.6006 -9.55496 
20.3696 -40.0775 -7.15335 27.9519 -38.0426 -9.55496 27.9519 -40.0775 -7.43423 
35.5342 -35.908 -9.55496 35.5342 -40.0775 -5.59145 43.1165 -34.6382 -9.55496 
-40.289 -32.4952 -5.54271 -31.4893 -32.4952 -9.55496 -32.7067 -31.609 -9.55496 
-32.7067 -32.4952 -9.20377 46.2312 -32.4952 -9.55496 50.6988 -28.0309 -9.55496 
50.6988 -32.4952 -4.67203 -47.8713 -24.9128 -4.04242 -39.9899 -24.9128 -9.55496 
-40.289 -24.196 -9.55496 -40.289 -24.9128 -9.43157 53.152 -24.9128 -9.55496 
-42.6698 -17.3305 -9.55496 -47.8713 -11.1971 -9.55496 -47.8713 -17.3305 -7.01306 
56.3297 -17.3305 -9.55496 58.2812 -13.4883 -9.55496 58.2812 -17.3305 -8.11302 
-48.7436 -9.74819 -9.55496 -55.4536 -9.74819 -5.82715 59.0957 -9.74819 -9.55496 
-49.9412 -2.16587 -9.55496 -55.4536 -2.16587 -7.38948 59.533 -2.16587 -9.55496 
-53.6398 5.41645 -9.55496 -55.4536 5.41645 -8.96717 59.1061 5.41645 -9.55496 
58.2812 8.67612 -9.55496 -51.8211 12.9988 -9.55496 -55.4536 12.9988 -8.03644 
56.4456 12.9988 -9.55496 58.2812 12.9988 -7.6702 -49.8254 20.5811 -9.55496 
-55.4536 20.5811 -3.09914 -47.8713 23.0318 -9.55496 54.3779 20.5811 -9.55496 
50.6988 26.4379 -9.55496 -43.8855 28.1634 -9.55496 -47.8713 28.1634 -3.09838 
-40.289 32.2062 -9.55496 48.391 28.1634 -9.55496 43.1165 32.354 -9.55496 
50.6988 28.1634 -7.24869 -33.9891 35.7457 -9.55496 -40.289 35.7457 -3.59899 
-32.7067 36.8456 -9.55496 27.9519 39.5056 -9.55496 39.3517 35.7457 -9.55496 
35.5342 37.5325 -9.55496 43.1165 35.7457 -4.8822 -26.3917 43.3281 -9.55496 
-32.7067 43.3281 -2.57237 -25.1244 43.9601 -9.55496 -17.542 44.0667 -9.55496 
-9.95972 44.3781 -9.55496 -2.3774 44.5634 -9.55496 5.20492 44.8012 -9.55496 
12.7872 43.9953 -9.55496 21.3108 43.3281 -9.55496 20.3696 43.701 -9.55496 
-32.7067 -40.9573 -1.97264 -25.1244 -43.9719 -1.97264 -17.542 -45.633 -1.97264 
-9.95972 -46.8193 -1.97264 -2.3774 -46.9059 -1.97264 5.20492 -45.6207 -1.97264 
12.7872 -44.1113 -1.97264 20.3696 -43.3872 -1.97264 27.9519 -42.842 -1.97264 
35.5342 -41.8415 -1.97264 -34.2451 -40.0775 -1.97264 -40.289 -36.1038 -1.97264 
40.412 -40.0775 -1.97264 35.5342 -40.0775 2.19811 43.1165 -38.9222 -1.97264 
50.6988 -34.095 -1.97264 -43.9636 -32.4952 -1.97264 -47.8713 -27.6529 -1.97264 
43.1165 -32.4952 4.26849 52.4488 -32.4952 -1.97264 50.6988 -32.4952 0.659845 
-50.0432 -24.9128 -1.97264 57.9943 -24.9128 -1.97264 50.6988 -24.9128 4.70386 
58.2812 -24.416 -1.97264 -54.2533 -17.3305 -1.97264 -55.4536 -16.0748 -1.97264 
-55.4536 -17.3305 0.0637445 61.5327 -17.3305 -1.97264 58.2812 -17.3305 4.35146 
-59.497 -9.74819 -1.97264 63.4337 -9.74819 -1.97264 -61.2297 -2.16587 -1.97264 
-63.036 -2.16587 3.59468 63.4903 -2.16587 -1.97264 -62.3418 5.41645 -1.97264 
63.2458 5.41645 -1.97264 -60.7317 12.9988 -1.97264 61.0724 12.9988 -1.97264 
58.2812 20.5196 -1.97264 58.2812 12.9988 4.86471 -56.1841 20.5811 -1.97264 
-55.4536 21.4051 -1.97264 -55.4536 20.5811 0.039101 58.2547 20.5811 -1.97264 
-48.4882 28.1634 -1.97264 -47.8713 28.8701 -1.97264 -47.8713 28.1634 -1.1369 
52.9012 28.1634 -1.97264 50.6988 30.5128 -1.97264 50.6988 28.1634 4.25791 
-41.1445 35.7457 -1.97264 -40.289 36.6765 -1.97264 -40.289 35.7457 -1.0258 
-32.7067 35.7457 4.37222 27.9519 42.998 -1.97264 35.5342 40.1723 -1.97264 
35.5342 35.7457 4.71662 44.5144 35.7457 -1.97264 43.1165 36.6919 -1.97264 
43.1165 35.7457 0.651406 -33.087 43.3281 -1.97264 -32.7067 43.5934 -1.97264 
-32.7067 43.3281 -1.54502 -25.1244 47.951 -1.97264 -17.542 49.6418 -1.97264 
-9.95972 50.5867 -1.97264 -2.3774 50.0801 -1.97264 5.20492 49.6171 -1.97264 
12.7872 47.9881 -1.97264 12.7872 43.3281 5.34062 27.1387 43.3281 -1.97264 
20.3696 46.041 -1.97264 20.3696 43.3281 4.56615 -32.7067 -42.3326 5.60968 
-25.1244 -45.0489 5.60968 -17.542 -46.9831 5.60968 -9.95972 -47.1796 5.60968 
-2.3774 -46.289 5.60968 5.20492 -44.5878 5.60968 12.7872 -41.5939 5.60968 
20.3696 -40.0884 5.60968 27.9519 -40.2469 5.60968 -37.2431 -40.0775 5.60968 
-40.289 -38.2266 5.60968 -32.7067 -40.0775 9.46638 -2.3774 -40.0775 12.1944 
5.20492 -40.0775 10.0905 12.7872 -40.0775 7.08019 20.3696 -40.0775 5.62198 
28.7362 -40.0775 5.60968 27.9519 -40.0775 5.78173 35.5342 -36.6866 5.60968 
-46.4083 -32.4952 5.60968 -47.8713 -30.9523 5.60968 -40.289 -32.4952 12.5668 
12.7872 -32.4952 11.5018 20.3696 -32.4952 9.9096 27.9519 -32.4952 9.10981 
40.114 -32.4952 5.60968 35.5342 -32.4952 7.9311 43.1165 -30.4048 5.60968 
-52.8762 -24.9128 5.60968 -55.4536 -21.1435 5.60968 -47.8713 -24.9128 12.2297 
12.7872 -24.9128 12.9616 20.3696 -24.9128 11.1891 27.9519 -24.9128 11.0207 
35.5342 -24.9128 9.27 49.1217 -24.9128 5.60968 43.1165 -24.9128 9.42244 
50.6988 -22.8967 5.60968 -57.685 -17.3305 5.60968 -55.4536 -17.3305 9.51659 
20.3696 -17.3305 11.2906 27.9519 -17.3305 10.8908 35.5342 -17.3305 11.2234 
43.1165 -17.3305 10.3573 56.5408 -17.3305 5.60968 50.6988 -17.3305 8.22547 
58.2812 -14.5501 5.60968 -61.8789 -9.74819 5.60968 -63.036 -4.76094 5.60968 
12.7872 -9.74819 12.5433 20.3696 -9.74819 11.5238 27.9519 -9.74819 12.0908 
35.5342 -9.74819 11.9216 43.1165 -9.74819 11.2527 50.6988 -9.74819 10.2234 
59.5468 -9.74819 5.60968 58.2812 -9.74819 6.66562 -63.632 -2.16587 5.60968 
-63.036 3.86846 5.60968 -63.036 -2.16587 6.97472 43.1165 -2.16587 12.6271 
50.6988 -2.16587 10.3357 60.543 -2.16587 5.60968 58.2812 -2.16587 7.61776 
-62.8194 5.41645 5.60968 -55.4536 5.41645 11.1671 -2.3774 5.41645 12.9544 
50.6988 5.41645 10.9008 60.1989 5.41645 5.60968 58.2812 11.9531 5.60968 
58.2812 5.41645 7.39996 -59.4254 12.9988 5.60968 -55.4536 17.4968 5.60968 
-55.4536 12.9988 8.40928 -40.289 12.9988 11.7432 -32.7067 12.9988 11.5619 
-25.1244 12.9988 10.2881 -17.542 12.9988 9.93718 43.1165 12.9988 12.511 
57.6967 12.9988 5.60968 50.6988 12.9988 10.2749 -48.3306 20.5811 5.60968 
-47.8713 20.8051 5.60968 -47.8713 20.5811 5.80875 -40.289 20.5811 7.71787 
-32.7067 20.5811 8.06928 -25.1244 20.5811 9.18108 -17.542 20.5811 10.67 
-9.95972 20.5811 12.0881 -2.3774 20.5811 11.7127 43.1165 20.5811 11.0021 
[...]
POINT_DATA 556
SCALARS ImageScalars float
LOOKUP_TABLE default
0 0 0 0 0 0 0 0 0 
0 0 0 0 0 0 0 0 0 
0 0 0 0 0 0 0 0 0 
0 0 0 0 0 0 0 0 0 
0 0 0 0 0 0 0 0 0 
0 0 0 0 0 0 0 0 0 
0 0 0 0 0 0 0 0 0 
0 0 0 0 0 0 0 0 0 
0 0 0 0 0 0 0 0 0 
0 0 0 0 0 0 0 0 0 
0 0 0 0 0 0 0 0 0 
0 0 0 0 0 0 0 0 0 
0 0 0 0 0 0 0 0 0 
0 0 0 0 0 0 0 0 0 
0 0 0 0 0 0 0 0 0 
0 0 0 0 0 0 0 0 0 
0 0 0 0 0 0 0 0 0 
0 0 0 0 0 0 0 0 0 
0 0 0 0 0 0 0 0 0 
0 0 0 0 0 0 0 0 0 
0 0 0 0 0 0 0 0 0 
0 0 0 0 0 0 0 0 0 
0 0 0 0 0 0 0 0 0 
0 0 0 0 0 0 0 0 0 
0 0 0 0 0 0 0 0 0 
0 0 0 0 0 0 0 0 0 
0 0 0 0 0 0 0 0 0 
0 0 0 0 0 0 0 0 0 
0 0 0 0 0 0 0 0 0 
0 0 0 0 0 0 0 0 0 
0 0 0 0 0 0 0 0 0 
0 0 0 0 0 0 0 0 0 
0 0 0 0 0 0 0 0 0 
0 0 0 0 0 0 0 0 0 
0 0 0 0 0 0 0 0 0 
0 0 0 0 0 0 0 0 0 
0 0 0 0 0 0 0 0 0 
0 0 0 0 0 0 0 0 0 
0 0 0 0 0 0 0 0 0 
0 0 0 0 0 0 0 0 0 
0 0 0 0 0 0 0 0 0 
0 0 0 0 0 0 0 0 0 
0 0 0 0 0 0 0 0 0 
0 0 0 0 0 0 0 0 0 
0 0 0 0 0 0 0 0 0 
0 0 0 0 0 0 0 0 0 
0 0 0 0 0 0 0 0 0 
0 0 0 0 0 0 0 0 0 
0 0 0 0 0 0 0 0 0 
0 0 0 0 0 0 0 0 0 
0 0 0 0 0 0 0 0 0 
0 0 0 0 0 0 0 0 0 
0 0 0 0 0 0 0 0 0 
0 0 0 0 0 0 0 0 0 
0 0 0 0 0 0 0 0 0 
0 0 0 0 0 0 0 0 0 
0 0 0 0 0 0 0 0 0 
0 0 0 0 0 0 0 0 0 
0 0 0 0 0 0 0 0 0 
0 0 0 0 0 0 0 0 0 
0 0 0 0 0 0 0 0 0 
0 0 0 0 0 0 0 
NORMALS Normals float
-0.0390958 0.536594 0.842934 0.198132 0.312647 0.928976 0.0784127 0.287284 0.954631 
0.0344641 0.251291 0.967298 -0.0340183 0.244176 0.969134 -0.0789697 0.264916 0.961032 
0.0216989 0.298837 0.954058 0.0884005 0.318933 0.943646 -0.0346998 0.330359 0.943217 
-0.137035 0.434325 0.890271 -0.236618 0.454501 0.858744 0.238604 0.18646 0.953048 
0.0861092 0.110666 0.99012 0.0494399 0.0828805 0.995332 0.0311495 0.0674789 0.997234 
-0.0194668 0.0975809 0.995037 -0.0611648 0.0760075 0.995229 0.0134699 0.0922613 0.995644 
0.0563361 0.10576 0.992795 0.0373167 0.060044 0.997498 -0.02953 0.157245 0.987118 
-0.261305 0.349225 0.899868 -0.410119 0.270874 0.870879 0.286384 0.12885 0.949411 
0.163292 0.0301656 0.986116 0.0852581 0.00701366 0.996334 0.0380869 -0.00593384 0.999257 
0.0558414 -0.0232174 0.99817 -0.0266782 0.158759 0.986957 -0.0925911 0.116612 0.988852 
0.0351161 0.0360306 0.998734 0.0758892 0.00412564 0.997108 0.0425507 0.0439271 0.998128 
0.086163 0.0789778 0.993146 -0.129548 0.0586424 0.989838 -0.344337 0.147211 0.927233 
0.352929 0.177243 0.918709 0.174818 0.151029 0.972949 0.100073 0.0604831 0.99314 
0.0531815 0.0110288 0.998524 0.0188231 0.0423778 0.998924 0.191946 0.176936 0.965324 
0.129605 -0.0108902 0.991506 -0.184561 0.125479 0.974778 -0.1077 0.175785 0.97852 
0.0645019 0.00498379 0.997905 0.100998 0.0453288 0.993853 0.00453869 0.0561175 0.998414 
-0.116395 -0.0384586 0.992458 -0.173341 0.123587 0.977077 -0.679225 0.0684924 0.730727 
0.319312 0.0836238 0.943953 0.177315 0.0909185 0.979946 0.0315938 0.0862101 0.995776 
0.0680785 0.0209351 0.99746 0.216341 -0.0366551 0.975629 -0.00962046 0.184983 0.982695 
-0.133806 -0.165061 0.977165 0.156019 0.100995 0.982577 -0.109216 0.0535601 0.992574 
-0.049235 0.0302476 0.998329 0.0940536 0.0520238 0.994207 0.00287842 0.0295332 0.99956 
-0.0822509 0.0424843 0.995706 -0.333692 0.072733 0.939872 -0.581232 -0.0406894 0.81272 
0.212405 0.0277052 0.976789 0.151307 0.0928626 0.984115 0.0283651 0.0332796 0.999043 
-0.0688634 -0.00974799 0.997579 0.125754 -0.0815325 0.988705 0.133106 -0.196071 0.971514 
0.0652528 0.0616549 0.995962 -0.010384 -0.0751079 0.997121 -0.172137 -0.11329 0.978537 
0.0848947 0.0599569 0.994584 0.0951775 0.0481529 0.994295 -0.00463798 0.0796817 0.99681 
-0.0749366 0.00260355 0.997185 -0.354122 -0.0708546 0.932511 -0.611299 -0.104448 0.784477 
0.333823 -0.0399677 0.941788 0.161072 -0.00867247 0.986905 -0.0789276 -0.0546548 0.995381 
-0.0456161 0.0588066 0.997227 0.0548475 0.0898704 0.994442 0.102201 -0.100378 0.989686 
0.0205462 -0.0444894 0.998799 -0.0246242 -0.15321 0.987887 0.0301435 0.0598148 0.997754 
0.09724 0.104297 0.989781 0.11468 0.0192011 0.993217 -0.0431832 0.0123562 0.998991 
-0.222724 0.0108088 0.974822 -0.337418 -0.137996 0.931185 0.409716 -0.236907 0.880913 
0.197508 -0.224865 0.954163 0.115455 -0.0132185 0.993225 0.0770731 0.0284846 0.996618 
-0.0148425 0.0836186 0.996387 -0.0253576 -0.0168349 0.999537 0.0130254 -0.0408321 0.999081 
0.0835548 -0.00176696 0.996502 0.0967825 0.0520083 0.993946 0.0409819 0.0203481 0.998953 
0.00093546 -0.0393723 0.999224 -0.00348658 -0.175777 0.984424 -0.234997 -0.149836 0.960378 
-0.479833 -0.255773 0.83925 0.404479 -0.285011 0.869003 0.172114 -0.164956 0.971167 
0.0498348 -0.0545017 0.997269 0.0131357 -0.0793329 0.996762 -0.03159 -0.0719702 0.996906 
0.0347877 -0.0438268 0.998433 0.0738275 -0.0437766 0.99631 0.0560866 -0.0809895 0.995136 
0.00441463 -0.14065 0.99005 -0.0796337 -0.148613 0.985684 -0.167765 -0.273726 0.947063 
-0.38101 -0.461241 0.801304 0.377183 -0.422276 0.824267 0.150582 -0.257603 0.954445 
-0.026032 -0.246231 0.968861 0.0135444 -0.196344 0.980442 0.0379843 -0.190558 0.980941 
0.0401224 -0.201048 0.978759 0.000628952 -0.271658 0.962394 -0.0413547 -0.341848 0.938845 
-0.161409 -0.502905 0.849137 -0.295584 -0.621753 0.725296 0.195027 -0.583054 0.788678 
0.0130142 -0.50645 0.862171 0.0193038 -0.473761 0.880442 0.026577 -0.479698 0.877031 
-0.0152751 -0.538457 0.842514 -0.0503121 -0.640811 0.766049 -0.200975 -0.73565 0.646861 
-0.0394288 0.54111 0.840027 0.42704 0.776728 0.462958 0.220103 0.413207 0.883637 
0.247511 0.618764 0.745567 0.0913612 0.515342 0.852101 0.101883 0.618618 0.779058 
0.00461714 0.537672 0.843142 0.0687783 0.525858 0.847787 0.0715866 0.54199 0.837331 
-0.0468143 0.538784 0.841142 -0.104509 0.491231 0.864737 -0.119383 0.593849 0.79567 
-0.01217 0.480691 0.876805 -0.0905632 0.732679 0.674522 0.0431314 0.595977 0.801842 
-0.00344819 0.822033 0.569429 -0.0466233 0.637988 0.768633 -0.0482505 0.826177 0.56134 
-0.152822 0.612279 0.775731 -0.26308 0.913599 0.310041 -0.30052 0.569318 0.765222 
0.540762 0.518237 0.662576 0.282618 0.401245 0.87128 0.288952 0.393271 0.872837 
0.301177 0.424319 0.853959 -0.395874 0.548122 0.736781 -0.500055 0.438133 0.746984 
-0.660102 0.72249 0.205606 0.634175 0.422797 0.647352 0.414578 0.248976 0.875292 
0.409993 0.238581 0.880332 0.423333 0.253359 0.869827 -0.499498 0.352182 0.791498 
0.316586 0.188644 0.929616 0.360159 0.213806 0.90806 0.459651 0.341891 0.819654 
-0.595734 0.285353 0.750783 -0.719099 0.252317 0.647482 -0.762843 0.377302 0.525085 
0.372618 0.176834 0.91098 0.562064 0.2654 0.783356 -0.777119 0.130604 0.615653 
0.344645 0.111757 0.932057 0.493542 0.209425 0.844131 -0.658943 0.00273864 0.752188 
0.348123 0.0639294 0.935266 0.430483 0.0691847 0.899943 -0.649102 -0.127175 0.749995 
-0.685808 -0.186855 0.703387 0.402862 -0.135643 0.905154 0.56918 -0.316138 0.759007 
-0.697706 -0.233043 0.67742 -0.844917 -0.301648 0.441728 0.480525 -0.31304 0.819208 
0.762147 -0.612748 0.208977 0.519367 -0.367888 0.771309 -0.666808 -0.328953 0.668698 
-0.54243 -0.511183 0.66668 0.571499 -0.459844 0.679656 0.704576 -0.709459 0.0155079 
0.526112 -0.523392 0.670273 -0.501803 -0.544571 0.672039 -0.46439 -0.5764 0.672388 
-0.62212 -0.632806 0.461002 0.420197 -0.47249 0.774718 0.74511 -0.66689 -0.0082664 
0.407781 -0.466289 0.785041 -0.287654 -0.696244 0.657647 -0.393476 -0.676513 0.622501 
-0.307433 -0.746894 0.589604 -0.533806 -0.816353 0.220498 0.252892 -0.609153 0.751651 
0.59756 -0.801101 -0.0340501 0.209669 -0.618249 0.7575 0.0183337 -0.546871 0.837016 
0.0224246 -0.524839 0.850906 0.0189795 -0.551712 0.833819 -0.0306681 -0.60081 0.798803 
-0.0604006 -0.672321 0.737791 -0.219169 -0.753333 0.620044 -0.204447 -0.760541 0.616262 
0.434708 0.808441 0.396802 0.281178 0.902837 0.325307 0.18596 0.892944 0.409963 
0.076735 0.943283 0.322999 -0.0828027 0.963221 0.255633 -0.179351 0.955785 0.233042 
-0.155961 0.973421 0.167715 -0.0884608 0.989862 0.11112 -0.10174 0.992369 0.0696574 
-0.251869 0.967489 0.0229836 0.461553 0.797214 0.389126 0.588835 0.699474 0.40498 
-0.374796 0.927025 0.0123902 -0.297003 0.86085 -0.413191 -0.452664 0.891257 -0.0275091 
-0.651805 0.758252 -0.0143037 0.670285 0.604906 0.429892 0.693257 0.521959 0.496945 
-0.33638 0.545936 -0.767335 -0.702842 0.711154 -0.016555 -0.656355 0.730398 -0.188988 
0.709837 0.474381 0.520666 -0.857011 0.514554 -0.0276745 -0.485269 0.348175 -0.802052 
-0.865893 0.499821 -0.0202024 0.666652 0.54779 0.505471 0.664469 0.559737 0.495151 
0.74893 0.590379 0.300927 -0.943452 0.328138 -0.0471559 -0.681046 0.329238 -0.654048 
0.781557 0.321249 0.53476 -0.99015 0.135201 0.0363726 0.858209 0.195755 0.474508 
0.993496 0.10295 0.0486448 -0.99892 -0.013117 0.0445684 0.970479 -0.0165397 0.240618 
-0.98736 -0.15556 0.0303633 0.895718 -0.403311 0.187161 -0.949644 -0.312128 0.0274342 
-0.877548 -0.479341 0.0119121 -0.74146 -0.311682 -0.594214 0.780402 -0.614798 0.113998 
0.760718 -0.640104 0.107587 0.730376 -0.678764 -0.0763627 -0.876781 -0.480757 0.0112897 
0.68992 -0.719673 -0.0779832 0.693607 -0.715454 -0.0838784 0.690284 -0.711281 -0.132617 
-0.759807 -0.649971 0.0151878 -0.709298 -0.704785 0.0131653 -0.62488 -0.573339 -0.529913 
0.750934 -0.644471 -0.144066 0.746482 -0.650154 -0.141652 0.738769 -0.6419 -0.205388 
0.467141 -0.367103 -0.804372 -0.34987 -0.936143 -0.0350339 -0.409571 -0.909097 -0.0761246 
-0.297426 -0.740045 -0.603218 -0.541878 -0.840292 -0.0166681 -0.508968 -0.860595 -0.0180929 
-0.49739 -0.838804 -0.221382 0.599593 -0.796371 -0.0792612 0.592314 -0.80205 -0.0766859 
0.601023 -0.792276 -0.105218 0.382128 -0.923962 0.0165057 0.161451 -0.986496 0.0275588 
0.0340736 -0.998109 0.0511634 -0.0629092 -0.997514 0.0317494 -0.138021 -0.990399 -0.00778467 
-0.240443 -0.970053 -0.0344161 -0.0940998 -0.703695 -0.704243 -0.34762 -0.936902 -0.0370709 
-0.32383 -0.944929 -0.0473665 -0.215382 -0.79599 -0.565695 0.399599 0.903887 -0.152671 
0.279754 0.951044 -0.131349 0.134687 0.974055 -0.18187 -0.0393893 0.962642 -0.267896 
-0.150752 0.915593 -0.372777 -0.266628 0.858161 -0.438712 -0.250245 0.773205 -0.582693 
-0.0776565 0.752546 -0.653944 -0.0965306 0.750593 -0.653675 0.504321 0.857147 -0.104688 
0.589324 0.802682 -0.0916485 0.380373 0.821462 -0.424872 -0.19847 0.545729 -0.814119 
-0.28174 0.587438 -0.758643 -0.240002 0.690698 -0.682155 -0.0776361 0.751872 -0.654722 
-0.114973 0.736684 -0.666391 -0.0990207 0.738504 -0.666938 -0.320282 0.531595 -0.784109 
0.723941 0.688549 -0.0425508 0.738377 0.673614 -0.032303 0.435133 0.535966 -0.723464 
-0.237625 0.33061 -0.913363 -0.172005 0.296879 -0.939296 -0.102096 0.312771 -0.944325 
-0.311645 0.430616 -0.847023 -0.313522 0.367047 -0.875774 -0.286419 0.480184 -0.829089 
0.791589 0.609182 -0.0477978 0.832569 0.552777 -0.03559 0.54319 0.515867 -0.662439 
-0.227166 0.120123 -0.966419 -0.128447 0.0847641 -0.988087 -0.128842 0.138291 -0.981975 
-0.0992258 0.186293 -0.977471 -0.416229 0.340408 -0.843135 -0.279871 0.390385 -0.877081 
-0.434398 0.299277 -0.849548 0.856169 0.50951 -0.0858737 0.820307 0.439818 -0.365591 
-0.151139 0.0218498 -0.988271 -0.00624583 0.071242 -0.99744 -0.0480655 0.172402 -0.983853 
-0.156384 0.0968201 -0.982939 -0.55726 0.303651 -0.772824 -0.393553 0.301443 -0.868475 
-0.601177 0.262086 -0.754915 0.937873 0.342983 -0.0524993 0.984036 0.16886 -0.0562113 
-0.151009 0.0999777 -0.983464 -0.02495 0.154338 -0.987703 0.0259023 0.196823 -0.980097 
-0.0539794 0.150824 -0.987086 -0.0998563 0.160073 -0.982041 -0.318023 0.117876 -0.940726 
-0.658336 0.17887 -0.731162 -0.581853 0.179583 -0.793219 0.993771 0.0704185 -0.0863715 
0.949329 -0.160258 -0.270353 0.980028 0.0397824 -0.194837 -0.217664 0.145917 -0.965055 
-0.333738 0.0428833 -0.94169 -0.766948 0.0357823 -0.640711 -0.583817 0.0516557 -0.810241 
0.91782 -0.223329 -0.328222 0.517762 -0.360541 -0.775843 -0.105092 -0.254794 -0.961268 
-0.385764 0.00710128 -0.92257 -0.766669 -0.152496 -0.62367 -0.700397 -0.281172 -0.656038 
-0.633542 -0.140779 -0.760792 0.694144 -0.525117 -0.492358 0.497803 -0.621962 -0.604446 
0.495349 -0.493354 -0.715004 -0.0705322 -0.46854 -0.880622 -0.0896047 -0.490236 -0.866971 
-0.096247 -0.359934 -0.928 0.171173 -0.251634 -0.952565 -0.218725 -0.158186 -0.962879 
-0.686707 -0.30115 -0.66162 -0.442792 -0.169523 -0.880453 0.274423 -0.631112 -0.725527 
0.269921 -0.62716 -0.730625 0.258476 -0.62195 -0.739168 0.110411 -0.395685 -0.911725 
0.0875508 -0.259945 -0.961646 0.16702 -0.0861323 -0.982184 0.188347 0.04513 -0.981065 
0.0679172 -0.124514 -0.989891 0.0768018 -0.112979 -0.990625 -0.337875 -0.215125 -0.916276 
-0.625238 -0.339296 -0.70282 -0.575543 -0.473066 -0.667053 -0.537925 -0.306447 -0.78532 
0.385816 -0.440301 -0.810729 0.365819 -0.436166 -0.822153 0.304314 -0.376955 -0.874813 
0.293297 -0.288844 -0.911343 0.20001 -0.251412 -0.946989 0.233483 -0.0620903 -0.970376 
0.155636 -0.0787472 -0.984671 0.0535593 -0.120151 -0.99131 0.0644054 -0.0909144 -0.993774 
0.103241 -0.175861 -0.978986 0.0310906 -0.255604 -0.966282 -0.0384127 -0.288715 -0.956644 
-0.130945 -0.342448 -0.930367 -0.274882 -0.681704 -0.678026 -0.208279 -0.440361 -0.873328 
-0.536765 -0.524863 -0.660608 -0.382001 -0.618426 -0.686749 -0.349343 -0.469798 -0.810709 
0.395864 -0.265327 -0.879144 0.310356 -0.173736 -0.934609 0.121536 -0.216542 -0.968679 
0.0553034 -0.207585 -0.976652 0.0142884 -0.239557 -0.970777 0.00421834 -0.291082 -0.956689 
-0.0848019 -0.679158 -0.729077 -0.0448385 -0.396609 -0.916892 -0.188145 -0.731531 -0.655335 
-0.1322 -0.456354 -0.879923 -0.27818 -0.67921 -0.679183 -0.306881 -0.672656 -0.673319 
-0.236069 -0.56993 -0.787052 0.377195 -0.53704 -0.754528 0.316106 -0.591746 -0.741562 
0.29604 -0.501186 -0.813125 0.0543724 -0.575036 -0.81632 0.0507152 -0.531175 -0.845743 
0.0407088 -0.596003 -0.80195 0.0334543 -0.518191 -0.85461 -0.0559265 -0.596768 -0.800462 
-0.0425164 -0.532555 -0.845327 -0.088864 -0.673087 -0.734205 -0.105071 -0.627831 -0.771225 
-0.0917753 -0.589944 -0.802212 0.187017 0.652399 -0.734439 6.32659e-05 0.625572 -0.780167 
-0.105954 0.565024 -0.818243 0.215715 0.640621 -0.736934 0.309692 0.573451 -0.758449 
0.179102 0.614019 -0.768702 -0.00178318 0.572297 -0.820045 -0.139635 0.52834 -0.837472 
-0.10994 0.532608 -0.839191 -0.194522 0.428583 -0.882314 -0.240163 0.296403 -0.924374 
0.382507 0.498204 -0.778127 0.39975 0.480203 -0.780772 0.249111 0.413419 -0.875802 
0.120442 0.297539 -0.947082 -0.028173 0.265651 -0.963657 -0.152507 0.244114 -0.95768 
-0.199769 0.218545 -0.95516 -0.232997 0.26197 -0.936528 -0.232801 0.246658 -0.940725 
0.470622 0.449883 -0.759026 0.484149 0.449292 -0.750823 0.316695 0.310431 -0.896291 
0.162949 0.178628 -0.97033 0.0553756 0.0901799 -0.994385 -0.0513926 0.0419554 -0.997797 
-0.187518 0.0414627 -0.981386 -0.216355 -0.0176076 -0.976156 -0.221306 0.1121 -0.96874 
-0.191801 0.0627723 -0.979424 -0.233736 0.0478711 -0.971121 0.607513 0.310958 -0.730912 
0.583958 0.238635 -0.775916 0.379656 0.243126 -0.892609 0.189376 0.164266 -0.968067 
-0.00440116 0.0666079 -0.99777 -0.0289294 -0.00803902 -0.999549 -0.0743867 -0.0921865 -0.992959 
-0.218216 -0.0835151 -0.97232 -0.185245 -0.0939166 -0.978194 -0.0988849 -0.0606844 -0.993247 
-0.232453 -0.0202167 -0.972398 -0.219129 0.00746428 -0.975667 -0.24039 -0.0243292 -0.970372 
0.577013 0.22783 -0.784315 0.557391 0.22356 -0.799585 0.24856 0.0620194 -0.966629 
0.0822335 -0.0243716 -0.996315 0.0141325 -0.0162277 -0.999768 -0.108684 -0.0492369 -0.992856 
-0.128253 -0.103824 -0.986292 -0.144244 -0.133113 -0.980548 -0.249213 0.174202 -0.952652 
-0.131589 -0.0136812 -0.99121 -0.11482 -0.0958801 -0.988748 -0.105425 0.0880901 -0.990518 
-0.0497367 0.205128 -0.977471 0.00847325 0.196912 -0.980385 -0.080252 0.156036 -0.984486 
0.582847 -0.146365 -0.799291 0.482969 -0.258088 -0.836739 0.490333 -0.185638 -0.851535 
0.184311 -0.160325 -0.969704 0.0888628 -0.145737 -0.985324 -0.0246535 -0.170486 -0.985052 
-0.111783 -0.195283 -0.974356 -0.162999 -0.122227 -0.979026 0.035044 -0.0832447 -0.995913 
-0.107904 -0.251035 -0.961945 -0.0781797 -0.119735 -0.989723 -0.148904 0.0129432 -0.988767 
0.00359133 0.049046 -0.99879 -0.0540991 0.217761 -0.974502 -0.00952958 0.193333 -0.981087 
-0.138409 0.153947 -0.978337 -0.0871158 0.158135 -0.983567 -0.22206 0.0493549 -0.973783 
0.403377 -0.310082 -0.860892 0.267475 -0.250665 -0.930389 -0.0563771 -0.45496 -0.888726 
0.0599516 -0.409074 -0.91053 -0.0936016 -0.488953 -0.867274 -0.05584 -0.429876 -0.90116 
-0.0908325 -0.46068 -0.882906 -0.0654335 -0.488457 -0.870131 0.113446 -0.439359 -0.891119 
0.0320447 -0.435672 -0.899535 -0.109239 -0.244486 -0.96348 -0.132663 -0.11393 -0.984592 
-0.0701329 -0.158697 -0.984833 0.102817 -0.0843516 -0.991117 0.0219638 0.122711 -0.992199 
0.0582764 -0.0335022 -0.997738 0.094926 0.0429661 -0.994557 -0.0233954 0.0446715 -0.998728 
-0.0983175 0.0358148 -0.99451 -0.244805 0.000211937 -0.969572 -0.21896 -0.0550781 -0.974178 
-0.222067 -0.00614987 -0.975012 0.21842 -0.45817 -0.861611 0.200775 -0.459464 -0.865207 
0.216165 -0.458582 -0.86196 0.214021 -0.457775 -0.862923 0.247585 -0.25873 -0.933681 
0.197158 -0.220047 -0.955357 0.235814 -0.254632 -0.937845 0.10414 -0.0832037 -0.991076 
0.104158 -0.0831977 -0.991075 0.071176 -0.0416271 -0.996595 -0.0448724 0.06853 -0.996639 
0.0251916 -0.0305887 -0.999215 -0.0207678 -0.0558562 -0.998223 -0.17995 -0.101844 -0.978389 
-0.137788 -0.032273 -0.989936 0.184208 -0.183832 -0.965543 0.183179 -0.185561 -0.965408 
0.188611 -0.186547 -0.964171 0.0350083 -0.23598 -0.971127 0.0573139 -0.0812021 -0.995048 
-0.0346434 -0.239128 -0.97037 -0.0285799 -0.101516 -0.994423 -0.0802682 -0.253227 -0.964071 
-0.0256989 -0.149447 -0.988436 -0.218454 -0.198627 -0.955419 -0.182628 -0.253457 -0.949951 
-0.181805 -0.201303 -0.962509 
