# vtk DataFile Version 4.2
vtk output
ASCII
DATASET POLYDATA
POINTS 554 float
-23.8934 -29.5224 -11.6661 -16.3259 -29.5224 -12.0676 -8.75842 -29.5224 -12.6883 
-1.19095 -29.5224 -13.1318 6.37652 -29.5224 -13.5591 13.944 -29.5224 -13.9205 
21.5115 -29.5224 -13.748 29.0789 -29.5224 -13.2095 -39.0283 -21.9549 -11.8837 
-31.4608 -21.9549 -13.4477 -23.8934 -21.9549 -13.8933 -16.3259 -21.9549 -13.8852 
-8.75842 -21.9549 -14.209 -1.19095 -21.9549 -14.0899 6.37652 -21.9549 -14.1986 
13.944 -21.9549 -15.0791 21.5115 -21.9549 -15.3094 29.0789 -21.9549 -15.1143 
36.6464 -21.9549 -14.7753 44.2139 -21.9549 -13.2089 51.7813 -21.9549 -11.6665 
-39.0283 -14.3874 -13.4336 -31.4608 -14.3874 -15.0448 -23.8934 -14.3874 -14.9308 
-16.3259 -14.3874 -14.2268 -8.75842 -14.3874 -14.2658 -1.19095 -14.3874 -14.3564 
6.37652 -14.3874 -14.4518 13.944 -14.3874 -15.6247 21.5115 -14.3874 -15.1057 
29.0789 -14.3874 -14.9069 36.6464 -14.3874 -15.2717 44.2139 -14.3874 -15.0733 
51.7813 -14.3874 -13.1649 59.3488 -14.3874 -11.8886 -46.5958 -6.81996 -11.5298 
-39.0283 -6.81996 -13.8614 -31.4608 -6.81996 -15.069 -23.8934 -6.81996 -15.0438 
-16.3259 -6.81996 -14.1014 -8.75842 -6.81996 -14.3013 -1.19095 -6.81996 -17.4621 
6.37652 -6.81996 -15.441 13.944 -6.81996 -15.0205 21.5115 -6.81996 -13.4835 
29.0789 -6.81996 -14.4847 36.6464 -6.81996 -15.8077 44.2139 -6.81996 -15.1552 
51.7813 -6.81996 -16.1485 59.3488 -6.81996 -14.5262 -46.5958 0.747514 -11.2537 
-39.0283 0.747514 -13.4623 -31.4608 0.747514 -14.5459 -23.8934 0.747514 -14.765 
-16.3259 0.747514 -14.2945 -8.75842 0.747514 -15.9357 -1.19095 0.747514 -13.7489 
6.37652 0.747514 -15.481 13.944 0.747514 -13.9629 21.5115 0.747514 -12.3304 
29.0789 0.747514 -14.0596 36.6464 0.747514 -15.4982 44.2139 0.747514 -15.2516 
51.7813 0.747514 -16.193 59.3488 0.747514 -11.8905 -39.0283 8.31498 -13.1076 
-31.4608 8.31498 -14.1901 -23.8934 8.31498 -14.2894 -16.3259 8.31498 -13.4671 
-8.75842 8.31498 -12.6722 -1.19095 8.31498 -16.0737 6.37652 8.31498 -15.3551 
13.944 8.31498 -12.7025 21.5115 8.31498 -12.4683 29.0789 8.31498 -13.8841 
36.6464 8.31498 -14.9874 44.2139 8.31498 -14.9417 51.7813 8.31498 -15.3411 
59.3488 8.31498 -14.1511 -39.0283 15.8825 -12.772 -31.4608 15.8825 -14.1679 
-23.8934 15.8825 -14.3398 -16.3259 15.8825 -13.8853 -8.75842 15.8825 -13.6968 
-1.19095 15.8825 -14.9283 6.37652 15.8825 -12.8342 13.944 15.8825 -13.1711 
21.5115 15.8825 -13.8952 29.0789 15.8825 -14.3313 36.6464 15.8825 -14.5659 
44.2139 15.8825 -16.8884 51.7813 15.8825 -12.9439 59.3488 15.8825 -11.8878 
-39.0283 23.4499 -11.7711 -31.4608 23.4499 -13.6962 -23.8934 23.4499 -14.5181 
-16.3259 23.4499 -14.2057 -8.75842 23.4499 -13.4834 -1.19095 23.4499 -12.2922 
6.37652 23.4499 -12.8712 13.944 23.4499 -14.3812 21.5115 23.4499 -14.6712 
29.0789 23.4499 -15.3424 36.6464 23.4499 -13.9106 44.2139 23.4499 -14.0477 
51.7813 23.4499 -12.346 -31.4608 31.0174 -12.6273 -23.8934 31.0174 -13.0641 
-16.3259 31.0174 -12.97 -8.75842 31.0174 -11.2069 13.944 31.0174 -13.9796 
21.5115 31.0174 -15.5753 29.0789 31.0174 -14.344 36.6464 31.0174 -15.2146 
21.5115 38.5849 -12.6564 29.0789 38.5849 -13.9891 -31.4608 -37.0898 -5.76455 
-23.8934 -30.7159 -11.087 -23.8934 -37.0898 -7.04151 -16.3259 -31.5671 -11.087 
-16.3259 -37.0898 -8.02009 -8.75842 -33.1151 -11.087 -8.75842 -37.0898 -8.94734 
-1.19095 -34.8568 -11.087 -1.19095 -37.0898 -10.0124 6.37652 -36.8097 -11.087 
6.37652 -37.0898 -10.9619 13.944 -36.9204 -11.087 13.944 -37.0898 -11.0023 
21.5115 -34.8287 -11.087 21.5115 -37.0898 -9.57192 29.0789 -32.897 -11.087 
29.0789 -37.0898 -6.86359 -46.5958 -29.5224 -4.07475 -39.0283 -24.1397 -11.087 
-39.0283 -29.5224 -8.51593 -27.6847 -29.5224 -11.087 -31.4608 -28.0125 -11.087 
-31.4608 -29.5224 -10.4721 36.561 -29.5224 -11.087 36.6464 -29.4796 -11.087 
36.6464 -29.5224 -11.054 44.2139 -26.6544 -11.087 44.2139 -29.5224 -8.40567 
51.7813 -22.9185 -11.087 -41.6379 -21.9549 -11.087 -46.5958 -21.9549 -9.15405 
52.8169 -21.9549 -11.087 59.3488 -15.8996 -11.087 -54.1632 -14.3874 -6.69876 
-45.9801 -14.3874 -11.087 -46.5958 -11.8248 -11.087 -46.5958 -14.3874 -10.8681 
60.5209 -14.3874 -11.087 -47.5664 -6.81996 -11.087 -54.1632 -6.81996 -7.34679 
64.6695 -6.81996 -11.087 66.9163 -6.81996 -6.46949 -46.9936 0.747514 -11.087 
-54.1632 0.747514 -7.43719 -46.5958 3.31789 -11.087 61.4768 0.747514 -11.087 
66.9163 0.747514 -7.3744 -54.1632 8.31498 -7.55985 -45.6141 8.31498 -11.087 
-46.5958 8.31498 -10.791 64.6043 8.31498 -11.087 66.9163 8.31498 -6.4082 
-54.1632 15.8825 -5.81079 -43.4597 15.8825 -11.087 -46.5958 15.8825 -9.76766 
60.537 15.8825 -11.087 59.3488 17.6602 -11.087 -54.1632 23.4499 -3.69691 
-41.4006 23.4499 -11.087 -46.5958 23.4499 -9.17868 -39.0283 26.1291 -11.087 
-1.19095 26.6084 -11.087 6.37652 28.7284 -11.087 44.2139 29.9218 -11.087 
54.0904 23.4499 -11.087 51.7813 26.624 -11.087 -46.5958 31.0174 -5.6383 
-35.574 31.0174 -11.087 -39.0283 31.0174 -9.77577 -31.4608 35.6377 -11.087 
-23.8934 36.3334 -11.087 -16.3259 34.9169 -11.087 -8.29777 31.0174 -11.087 
-8.75842 31.2167 -11.087 -1.19095 31.0174 -9.02361 8.09068 31.0174 -11.087 
6.37652 31.0174 -10.1578 13.944 36.3 -11.087 43.3123 31.0174 -11.087 
36.6464 38.4649 -11.087 44.2139 31.0174 -10.4829 51.7813 31.0174 -4.84869 
-39.0283 38.5849 -5.14631 -31.4608 38.5849 -9.60039 -23.8934 38.5849 -9.90963 
-16.3259 38.5849 -8.90277 -8.75842 38.5849 -4.87598 16.8097 38.5849 -11.087 
13.944 38.5849 -7.78912 21.5115 41.3612 -11.087 36.4622 38.5849 -11.087 
29.0789 41.3722 -11.087 36.6464 38.5849 -10.9468 44.2139 38.5849 -5.76154 
-31.4608 -39.0278 -3.51956 -23.8934 -40.5152 -3.51956 -16.3259 -41.9419 -3.51956 
-8.75842 -42.628 -3.51956 -8.75842 -44.6573 3.60081 -1.19095 -43.5002 -3.51956 
6.37652 -44.2216 -3.51956 13.944 -43.792 -3.51956 21.5115 -41.8308 -3.51956 
29.0789 -39.3414 -3.51956 -46.5958 -30.0565 -3.51956 -35.7949 -37.0898 -3.51956 
-39.0283 -34.9951 -3.51956 -39.0283 -37.0898 1.01767 33.7878 -37.0898 -3.51956 
36.6464 -35.6774 -3.51956 44.2139 -31.8571 -3.51956 -47.1579 -29.5224 -3.51956 
48.3893 -29.5224 -3.51956 44.2139 -29.5224 1.76544 51.7813 -27.4052 -3.51956 
-53.2778 -21.9549 -3.51956 -54.1632 -20.6822 -3.51956 -54.1632 -21.9549 -1.73308 
58.0809 -21.9549 -3.51956 59.3488 -20.7578 -3.51956 -57.2247 -14.3874 -3.51956 
64.3969 -14.3874 -3.51956 59.3488 -14.3874 3.8442 66.9163 -9.61579 -3.51956 
-57.9247 -6.81996 -3.51956 68.2159 -6.81996 -3.51956 66.9163 -6.81996 -1.19507 
-58.4256 0.747514 -3.51956 -61.7307 0.747514 2.80543 68.7779 0.747514 -3.51956 
66.9163 0.747514 -0.661376 -58.3446 8.31498 -3.51956 68.2757 8.31498 -3.51956 
66.9163 10.9889 -3.51956 66.9163 8.31498 -1.5323 -56.4788 15.8825 -3.51956 
64.3584 15.8825 -3.51956 59.3488 22.8836 -3.51956 59.3488 15.8825 2.90998 
-54.3102 23.4499 -3.51956 -54.1632 23.6959 -3.51956 58.8783 23.4499 -3.51956 
51.7813 23.4499 3.47803 -48.7632 31.0174 -3.51956 -46.5958 33.6393 -3.51956 
-1.19095 35.5357 -3.51956 6.37652 36.063 -3.51956 6.37652 31.0174 3.01456 
44.2139 31.0174 2.37434 52.3714 31.0174 -3.51956 51.7813 31.5554 -3.51956 
51.7813 31.0174 -2.93495 -40.9871 38.5849 -3.51956 -39.0283 39.979 -3.51956 
-31.4608 42.6976 -3.51956 -23.8934 43.5778 -3.51956 -16.3259 42.8681 -3.51956 
-7.05387 38.5849 -3.51956 -8.75842 39.4917 -3.51956 -8.75842 38.5849 1.30622 
11.3048 38.5849 -3.51956 13.944 40.247 -3.51956 13.944 38.5849 -1.39818 
21.5115 42.6828 -3.51956 21.5115 38.5849 1.36372 29.0789 43.1972 -3.51956 
29.0789 38.5849 2.07892 36.6464 41.4947 -3.51956 36.6464 38.5849 -0.198824 
44.741 38.5849 -3.51956 44.2139 39.0427 -3.51956 44.2139 38.5849 -3.03061 
-8.75842 -44.7573 4.04791 -39.0283 -38.0934 4.04791 -31.4608 -41.5522 4.04791 
-23.8934 -43.5965 4.04791 -10.3893 -44.6573 4.04791 -16.3259 -44.3125 4.04791 
-3.94061 -44.6573 4.04791 -8.75842 -44.6573 4.25473 -1.19095 -44.5928 4.04791 
6.37652 -44.2586 4.04791 13.944 -42.7374 4.04791 21.5115 -40.2145 4.04791 
29.0789 -37.3337 4.04791 -40.6029 -37.0898 4.04791 -46.5958 -32.7112 4.04791 
-39.0283 -37.0898 7.167 6.37652 -37.0898 11.2782 13.944 -37.0898 9.31674 
21.5115 -37.0898 6.784 29.5431 -37.0898 4.04791 29.0789 -37.0898 4.32771 
36.6464 -31.8463 4.04791 -49.7702 -29.5224 4.04791 -54.1632 -24.4968 4.04791 
-46.5958 -29.5224 9.05601 21.5115 -29.5224 11.6108 29.0789 -29.5224 8.83521 
41.3634 -29.5224 4.04791 36.6464 -29.5224 6.04294 44.2139 -27.5265 4.04791 
51.7813 -22.6866 4.04791 -55.9932 -21.9549 4.04791 -54.1632 -21.9549 9.16489 
29.0789 -21.9549 11.2089 36.6464 -21.9549 9.28684 44.2139 -21.9549 6.99067 
52.4818 -21.9549 4.04791 51.7813 -21.9549 4.49659 -59.4907 -14.3874 4.04791 
29.0789 -14.3874 11.1476 36.6464 -14.3874 10.3635 44.2139 -14.3874 10.7586 
58.8416 -14.3874 4.04791 51.7813 -14.3874 6.09571 59.3488 -14.1328 4.04791 
-61.3966 -6.81996 4.04791 -61.7307 -3.63039 4.04791 21.5115 -6.81996 11.0961 
29.0789 -6.81996 10.7973 36.6464 -6.81996 10.7409 44.2139 -6.81996 9.59951 
51.7813 -6.81996 8.74215 63.484 -6.81996 4.04791 59.3488 -6.81996 6.83526 
-62.1812 0.747514 4.04791 -61.7307 6.77819 4.04791 -61.7307 0.747514 6.13792 
21.5115 0.747514 9.80726 29.0789 0.747514 10.2405 36.6464 0.747514 10.4624 
44.2139 0.747514 9.81199 51.7813 0.747514 8.75432 63.6049 0.747514 4.04791 
59.3488 0.747514 6.94888 -61.6159 8.31498 4.04791 13.944 8.31498 10.1583 
21.5115 8.31498 9.27413 29.0789 8.31498 9.37258 36.6464 8.31498 9.73432 
44.2139 8.31498 11.4251 51.7813 8.31498 7.50094 62.6043 8.31498 4.04791 
59.3488 14.1395 4.04791 59.3488 8.31498 10.093 -59.764 15.8825 4.04791 
6.37652 15.8825 11.351 13.944 15.8825 8.01606 21.5115 15.8825 7.774 
29.0789 15.8825 8.67786 36.6464 15.8825 8.42575 44.2139 15.8825 7.86225 
55.8253 15.8825 4.04791 51.7813 20.964 4.04791 51.7813 15.8825 5.08213 
-57.0127 23.4499 4.04791 -54.1632 27.6834 4.04791 -1.19095 23.4499 10.5299 
6.37652 29.4999 4.04791 6.37652 23.4499 7.38962 13.944 23.4499 7.143 
21.5115 23.4499 7.14107 29.0789 23.4499 7.65149 36.6464 23.4499 6.82458 
48.7731 23.4499 4.04791 44.2139 25.8921 4.04791 44.2139 23.4499 4.80109 
[...]
POINT_DATA 554
SCALARS ImageScalars float
LOOKUP_TABLE default
0 0 0 0 0 0 0 0 0 
0 0 0 0 0 0 0 0 0 
0 0 0 0 0 0 0 0 0 
0 0 0 0 0 0 0 0 0 
0 0 0 0 0 0 0 0 0 
0 0 0 0 0 0 0 0 0 
0 0 0 0 0 0 0 0 0 
0 0 0 0 0 0 0 0 0 
0 0 0 0 0 0 0 0 0 
0 0 0 0 0 0 0 0 0 
0 0 0 0 0 0 0 0 0 
0 0 0 0 0 0 0 0 0 
0 0 0 0 0 0 0 0 0 
0 0 0 0 0 0 0 0 0 
0 0 0 0 0 0 0 0 0 
0 0 0 0 0 0 0 0 0 
0 0 0 0 0 0 0 0 0 
0 0 0 0 0 0 0 0 0 
0 0 0 0 0 0 0 0 0 
0 0 0 0 0 0 0 0 0 
0 0 0 0 0 0 0 0 0 
0 0 0 0 0 0 0 0 0 
0 0 0 0 0 0 0 0 0 
0 0 0 0 0 0 0 0 0 
0 0 0 0 0 0 0 0 0 
0 0 0 0 0 0 0 0 0 
0 0 0 0 0 0 0 0 0 
0 0 0 0 0 0 0 0 0 
0 0 0 0 0 0 0 0 0 
0 0 0 0 0 0 0 0 0 
0 0 0 0 0 0 0 0 0 
0 0 0 0 0 0 0 0 0 
0 0 0 0 0 0 0 0 0 
0 0 0 0 0 0 0 0 0 
0 0 0 0 0 0 0 0 0 
0 0 0 0 0 0 0 0 0 
0 0 0 0 0 0 0 0 0 
0 0 0 0 0 0 0 0 0 
0 0 0 0 0 0 0 0 0 
0 0 0 0 0 0 0 0 0 
0 0 0 0 0 0 0 0 0 
0 0 0 0 0 0 0 0 0 
0 0 0 0 0 0 0 0 0 
0 0 0 0 0 0 0 0 0 
0 0 0 0 0 0 0 0 0 
0 0 0 0 0 0 0 0 0 
0 0 0 0 0 0 0 0 0 
0 0 0 0 0 0 0 0 0 
0 0 0 0 0 0 0 0 0 
0 0 0 0 0 0 0 0 0 
0 0 0 0 0 0 0 0 0 
0 0 0 0 0 0 0 0 0 
0 0 0 0 0 0 0 0 0 
0 0 0 0 0 0 0 0 0 
0 0 0 0 0 0 0 0 0 
0 0 0 0 0 0 0 0 0 
0 0 0 0 0 0 0 0 0 
0 0 0 0 0 0 0 0 0 
0 0 0 0 0 0 0 0 0 
0 0 0 0 0 0 0 0 0 
0 0 0 0 0 0 0 0 0 
0 0 0 0 0 
NORMALS Normals float
0.0937414 0.38198 0.919404 0.0662871 0.335804 0.939596 0.0675211 0.306308 0.949535 
0.0578791 0.243094 0.968274 0.051703 0.204428 0.977515 0.0150503 0.259541 0.965615 
-0.0486638 0.305608 0.950913 -0.135025 0.392028 0.90999 0.248869 0.275614 0.928494 
0.121165 0.272635 0.954457 0.0272847 0.208491 0.977644 0.0208484 0.134089 0.99075 
0.0132604 0.100921 0.994806 -0.000680974 0.0820535 0.996628 0.0654504 0.0607044 0.996008 
0.0725302 0.111826 0.991077 0.00297854 0.0805962 0.996742 -0.0410157 0.12032 0.991887 
-0.103893 0.205252 0.973179 -0.242844 0.374352 0.894923 -0.385053 0.403804 0.829866 
0.249364 0.11602 0.961435 0.0959734 0.103849 0.989952 -0.053902 0.0781573 0.995483 
-0.0436485 0.014178 0.998946 0.00876022 0.0056141 0.999946 0.0118703 0.186356 0.982411 
0.0867077 0.0811617 0.992922 0.0375524 0.00106752 0.999294 -0.0471476 -0.112721 0.992507 
0.0103476 -0.0406762 0.999119 0.00844855 0.0754348 0.997115 -0.107164 0.100604 0.989138 
-0.267544 0.278849 0.922314 -0.396239 0.482171 0.781349 0.345993 0.0223234 0.937971 
0.216401 0.00144028 0.976304 0.0760554 -0.0329469 0.996559 -0.0615085 -0.0109749 0.998046 
-0.0534794 0.0045215 0.998559 0.218457 0.10674 0.969991 0.0326826 0.0918751 0.995234 
-0.140841 0.066746 0.98778 -0.139811 -0.0707647 0.987646 -0.0230214 -0.186481 0.982189 
0.147171 -0.0553206 0.987563 0.0447216 0.0141654 0.998899 0.0107003 0.0130344 0.999858 
-0.10085 0.195387 0.975527 -0.321283 0.0548061 0.945396 0.324948 -0.0447048 0.944675 
0.202911 -0.0482803 0.978006 0.0851115 -0.0582167 0.994669 -0.0166571 -0.0500551 0.998608 
0.0556464 -0.0423238 0.997553 0.0412609 -0.139418 0.989374 -0.0499837 -0.0805366 0.995498 
0.0374427 -0.004157 0.99929 -0.289148 -0.177575 0.94067 0.0823599 -0.0647136 0.994499 
0.205672 -0.0389279 0.977847 0.077687 -0.0537329 0.995529 0.0377758 -0.0141415 0.999186 
-0.207848 -0.0492603 0.97692 -0.422926 -0.0259018 0.905794 0.210434 -0.0449255 0.976575 
0.0765952 -0.0247886 0.996754 -0.0475629 -0.0280781 0.998474 -0.102539 -0.0270009 0.994363 
0.162951 -0.10903 0.980591 0.185042 0.0147599 0.98262 -0.177408 -0.208061 0.961892 
-0.171543 0.00708369 0.985151 0.0888662 0.108923 0.99007 0.154234 0.0178098 0.987874 
0.0692967 -0.0611611 0.995719 0.0185986 0.087057 0.99603 -0.104435 -0.211809 0.971715 
-0.252448 -0.0598879 0.965755 0.268797 -0.0802137 0.959851 0.106264 -0.0319443 0.993825 
-0.0188713 0.0160224 0.999694 -0.0423814 0.0485154 0.997923 0.0581837 0.0489514 0.997105 
-0.0600438 -0.253545 0.965458 -0.0979133 -0.111943 0.988879 0.0695125 0.0964542 0.992907 
0.0757904 0.133241 0.988182 0.0443936 0.095018 0.994485 0.143344 -0.0695971 0.987223 
-0.0753378 -0.0350752 0.996541 -0.335436 -0.19203 0.922284 -0.398015 -0.435379 0.807483 
0.270316 -0.189477 0.943943 0.175515 -0.093278 0.980048 0.0308792 -0.0771068 0.996545 
-0.0701531 -0.053041 0.996125 -0.123459 -0.146172 0.981525 -0.0442478 -0.319847 0.946435 
0.143691 -0.148921 0.978353 0.110309 0.0597331 0.992101 0.0616638 0.10248 0.992822 
-0.0500276 0.00442087 0.998738 -0.0909142 0.0235457 0.99558 -0.137001 -0.37867 0.915336 
-0.383316 -0.219124 0.897248 0.201941 -0.239389 0.949691 0.0192466 -0.262805 0.964657 
-0.113203 -0.292521 0.949535 -0.223876 -0.420491 0.879242 0.333247 -0.229925 0.914375 
0.0100647 -0.171802 0.98508 -0.0306419 -0.0895212 0.995513 -0.243796 -0.180724 0.952839 
0.223472 -0.526187 0.82048 -0.0824731 -0.528228 0.845088 0.262748 0.702575 0.661326 
0.0984328 0.417933 0.90313 0.12114 0.6582 0.743033 0.0722753 0.398397 0.914361 
0.102426 0.605131 0.78951 0.0909192 0.416523 0.904567 0.110319 0.583674 0.804459 
0.0967623 0.420077 0.902315 0.11073 0.528262 0.84183 0.0528301 0.453872 0.889499 
0.0528368 0.468499 0.881883 -0.0608995 0.483711 0.873107 -0.0629345 0.492807 0.86786 
-0.146912 0.520185 0.841323 -0.2154 0.676932 0.703823 -0.186457 0.542385 0.819178 
-0.315977 0.840643 0.439862 0.569101 0.625187 0.534103 0.265883 0.340032 0.902044 
0.343737 0.531412 0.774239 0.124226 0.405173 0.905761 0.15101 0.395882 0.9058 
0.161466 0.431642 0.887476 -0.223634 0.588789 0.776734 -0.223921 0.588969 0.776515 
-0.225601 0.592378 0.773429 -0.282494 0.538768 0.793678 -0.396931 0.765415 0.506542 
-0.420776 0.470621 0.775541 0.316997 0.295422 0.901243 0.474217 0.361693 0.80268 
-0.440797 0.455869 0.773228 -0.461319 0.543773 0.701068 0.657159 0.235852 0.715902 
0.377198 0.116894 0.918726 0.375705 0.0838777 0.922936 0.391365 0.120528 0.912308 
-0.453623 0.528835 0.717328 0.363774 0.0272538 0.931088 0.622212 0.044564 0.781579 
-0.756355 0.162249 0.633721 -0.950361 0.265238 0.162676 0.330756 -0.0448198 0.942652 
0.56718 0.0134925 0.823483 0.333131 -0.0591091 0.941026 -0.523286 -0.0156501 0.852014 
-0.954433 -0.000941845 0.298424 0.547247 -0.101065 0.830847 0.329519 -0.0818142 0.940598 
0.346928 -0.0901153 0.933552 -0.797688 -0.189011 0.572685 -0.945123 -0.314885 0.0871231 
0.632714 -0.233356 0.738389 0.359707 -0.0776881 0.929825 0.423269 -0.0951009 0.900999 
-0.458438 -0.479869 0.748038 -0.473755 -0.4844 0.735468 0.719336 -0.397638 0.569596 
0.322227 -0.20079 0.925123 0.465899 -0.233335 0.853518 0.308457 -0.238339 0.920896 
-0.0541795 -0.383879 0.921793 0.242252 -0.388958 0.888834 -0.362981 -0.297548 0.883012 
-0.495582 -0.341517 0.798602 -0.460954 -0.425579 0.77872 0.598686 -0.497961 0.627383 
0.307845 -0.281822 0.90874 0.397868 -0.341661 0.851451 0.221666 -0.437624 0.871407 
-0.0296298 -0.478782 0.877434 -0.17325 -0.449762 0.876184 -0.214257 -0.426692 0.878651 
-0.225997 -0.429223 0.874467 -0.0789723 -0.629007 0.773378 0.298894 -0.451102 0.840934 
0.285909 -0.552499 0.782944 0.493802 -0.598535 0.630805 -0.398462 -0.274971 0.874997 
-0.252563 -0.640526 0.725216 -0.438522 -0.318818 0.84027 -0.660133 -0.744343 -0.100883 
0.48998 -0.71099 0.504394 0.233554 -0.619748 0.749243 -0.0422758 -0.627755 0.777262 
-0.241952 -0.679704 0.692432 -0.442361 -0.839535 0.315433 0.435704 -0.651652 0.620896 
0.514555 -0.826824 0.227146 0.260882 -0.652749 0.711238 -0.249426 -0.64506 0.722278 
-0.158241 -0.75002 0.642207 -0.254956 -0.65668 0.709766 -0.609221 -0.7883 -0.0862161 
0.282056 0.808277 0.516849 0.17113 0.778941 0.603296 0.11499 0.827317 0.549839 
0.0859003 0.86377 0.49651 0.0239126 0.994658 -0.100415 0.0907916 0.915902 0.390999 
0.0157976 0.955552 0.294398 -0.147531 0.962815 0.226321 -0.286654 0.936688 0.201112 
-0.372178 0.912694 0.168738 0.579731 0.641853 0.501933 0.385913 0.756206 0.528416 
0.461613 0.705326 0.537986 0.504749 0.838083 0.20699 -0.407154 0.906025 0.11552 
-0.434655 0.897555 0.0739562 -0.488043 0.872485 0.0241551 0.590411 0.63474 0.498517 
-0.530922 0.847368 0.00946571 -0.45618 0.746659 -0.484149 -0.584167 0.811633 0.000151904 
0.701831 0.496338 0.510961 0.72503 0.459023 0.513448 0.763249 0.521424 0.381533 
-0.663783 0.747374 -0.0287074 -0.687647 0.725007 -0.0388133 0.818813 0.264932 0.50927 
-0.855394 0.513135 -0.0706643 -0.612548 0.596378 -0.518765 -0.935185 0.348408 -0.0635725 
0.818549 0.0717395 0.569939 -0.963963 0.263129 -0.039211 -0.94107 0.272275 -0.200632 
0.795958 0.0223203 0.604941 0.991823 0.00817268 0.127356 -0.999182 0.00828297 -0.039578 
-0.952052 -0.0192207 -0.305331 0.805897 -0.121366 0.579483 -0.946455 -0.314912 -0.0710838 
-0.912319 -0.395316 -0.106765 -0.90367 -0.336764 -0.26452 0.74484 -0.270981 0.60974 
-0.867011 -0.487084 -0.105077 -0.771393 -0.627097 -0.108179 -0.615176 -0.552789 -0.562124 
0.723327 -0.403191 0.560566 0.723918 -0.409278 0.555369 -0.763396 -0.636768 -0.108412 
-0.438151 -0.467919 -0.767512 0.70857 -0.528928 0.46708 0.659457 -0.577489 0.481272 
-0.190805 -0.970342 0.148423 0.291113 -0.956176 -0.0313238 -0.0529093 -0.684434 -0.727153 
-0.526937 -0.527412 -0.666464 -0.666671 -0.720203 -0.191983 -0.658689 -0.727577 -0.19173 
-0.650202 -0.718178 -0.247906 0.527117 -0.736166 0.424508 0.47721 -0.771348 0.421061 
0.225755 -0.925278 0.304787 0.00678461 -0.958017 0.286633 -0.271739 -0.932393 0.23833 
-0.409864 -0.890089 0.199381 -0.461208 -0.860022 0.218289 -0.493629 -0.858083 -0.141502 
0.38726 -0.912305 -0.133154 0.412105 -0.896455 -0.162905 0.409707 -0.850011 -0.331092 
0.197443 -0.921027 -0.335746 0.18446 -0.792794 -0.580907 -0.0868471 -0.978803 -0.185476 
-0.116387 -0.636672 -0.762301 -0.293177 -0.932353 -0.211576 -0.328481 -0.781015 -0.531146 
-0.562557 -0.76374 -0.316592 -0.548766 -0.770724 -0.323791 -0.540528 -0.754964 -0.371294 
0.0206685 0.991102 -0.131493 0.494196 0.869326 0.00643351 0.335932 0.941811 -0.0118847 
0.178416 0.98371 0.0219438 0.0325822 0.99243 -0.11841 0.0731308 0.994735 -0.0717977 
-0.0107414 0.979847 -0.199462 0.0177292 0.98924 -0.145227 -0.0294566 0.970605 -0.238867 
-0.103129 0.947987 -0.301138 -0.216842 0.880662 -0.421205 -0.328093 0.791143 -0.516186 
-0.379488 0.759185 -0.528798 0.524934 0.851142 0.00133828 0.661528 0.747034 -0.0657251 
0.49443 0.838355 -0.229564 -0.148567 0.440298 -0.885475 -0.262996 0.549889 -0.792752 
-0.28979 0.65208 -0.700581 -0.382953 0.754762 -0.532618 -0.376269 0.747631 -0.547238 
-0.401628 0.666248 -0.628338 0.720439 0.68945 -0.0750085 0.812035 0.583156 -0.0229624 
0.636484 0.632852 -0.440893 -0.219862 0.314027 -0.923606 -0.296283 0.386303 -0.873491 
-0.390656 0.625381 -0.67549 -0.36305 0.567361 -0.739119 -0.389334 0.575988 -0.718788 
-0.485764 0.437326 -0.756822 0.854382 0.519205 -0.0214072 0.768083 0.480898 -0.422831 
-0.226472 0.140992 -0.963759 -0.241239 0.219988 -0.945203 -0.336501 0.439933 -0.832602 
-0.494738 0.42861 -0.755995 -0.461347 0.398885 -0.792496 0.938274 0.340982 -0.0580841 
-0.150005 -0.0271475 -0.988312 -0.0321705 0.107168 -0.99372 -0.219605 0.119073 -0.968295 
-0.593561 0.572636 -0.565485 -0.310261 0.257165 -0.915207 -0.6008 0.583146 -0.54679 
0.985581 0.167705 0.0224681 0.993816 0.101545 0.0449309 -0.241383 -0.191872 -0.951272 
-0.0237162 -0.0611227 -0.997848 -0.0800982 0.00544918 -0.996772 -0.125043 -0.0491763 -0.990932 
-0.246136 0.167283 -0.95469 -0.642697 0.255389 -0.7223 -0.355147 0.0757266 -0.931738 
0.997751 0.0135474 0.0656477 0.990331 -0.115977 0.0761173 0.99591 0.019476 -0.0882231 
-0.159846 -0.139675 -0.97721 0.0444544 -0.0971843 -0.994273 -0.0287974 -0.0671996 -0.997324 
-0.10475 0.106817 -0.988746 -0.255434 -0.0774747 -0.963717 -0.657731 -0.0508985 -0.751532 
-0.364873 0.094332 -0.926266 0.98596 -0.149259 0.0748689 -0.295529 -0.359981 -0.884916 
-0.0412204 -0.143771 -0.988752 0.0316665 -0.106559 -0.993802 0.121798 -0.136006 -0.983193 
-0.103659 -0.0921066 -0.990339 -0.164789 -0.230373 -0.959048 -0.668666 -0.385192 -0.636013 
-0.575764 -0.533095 -0.619924 -0.259211 0.06292 -0.963769 0.948048 -0.31364 0.0532404 
-0.396391 -0.413994 -0.819441 -0.18966 -0.184701 -0.964321 0.0429903 -0.143312 -0.988743 
0.0448804 -0.126456 -0.990956 -0.0493846 -0.180604 -0.982315 -0.200108 -0.389681 -0.898947 
-0.44056 -0.408125 -0.799588 -0.367403 -0.373334 -0.851843 -0.250853 -0.219427 -0.942828 
0.892287 -0.450772 0.0250832 0.80491 -0.593385 -0.00379216 -0.363265 -0.410684 -0.836288 
-0.103299 -0.576912 -0.810248 -0.201648 -0.417005 -0.886253 -0.0154497 -0.221959 -0.974934 
0.0361687 -0.139757 -0.989525 -0.0136505 -0.217727 -0.975914 -0.194085 -0.231297 -0.953327 
-0.320346 -0.393869 -0.861537 -0.28563 -0.366007 -0.885694 -0.181018 -0.304834 -0.935045 
0.718502 -0.693028 -0.0588849 0.635674 -0.760175 -0.134357 0.481554 -0.634756 -0.60431 
-0.482176 -0.794324 -0.369535 -0.387041 -0.440798 -0.809874 -0.20034 -0.651515 -0.731705 
-0.397164 -0.720976 -0.567851 -0.388851 -0.652501 -0.650414 0.0954195 -0.465777 -0.879743 
0.137519 -0.442009 -0.886407 0.128411 -0.428324 -0.894455 0.0825138 -0.457034 -0.885613 
0.0391835 -0.284191 -0.957967 -0.00834592 -0.38764 -0.921773 0.0252144 -0.325735 -0.945125 
-0.333798 -0.426155 -0.840815 -0.197974 -0.439034 -0.876388 -0.110311 -0.345527 -0.931903 
0.51969 -0.837825 -0.167247 0.394075 -0.895965 -0.204819 0.321625 -0.802571 -0.502431 
0.144171 -0.931115 -0.335022 0.0609376 -0.770834 -0.634114 -0.0506679 -0.935089 -0.350772 
-0.0738051 -0.716355 -0.693822 -0.456773 -0.808675 -0.370679 -0.309442 -0.853705 -0.418847 
-0.265503 -0.729307 -0.630571 0.30085 0.739286 -0.60245 0.0965891 0.749867 -0.6545 
-0.0775333 0.672817 -0.735735 -0.106623 0.594012 -0.797359 -0.0993302 0.511968 -0.853242 
0.347412 0.718698 -0.602311 0.424006 0.636092 -0.644675 0.277594 0.691002 -0.667426 
0.0351188 0.54037 -0.840695 -0.0727101 0.494434 -0.866169 -0.113293 0.495675 -0.861087 
-0.12456 0.459176 -0.87957 -0.10401 0.490663 -0.865119 -0.146544 0.397336 -0.905897 
-0.161293 0.327711 -0.930908 0.520432 0.53281 -0.667281 0.537308 0.547207 -0.641768 
0.346345 0.427204 -0.83519 0.157571 0.27735 -0.94776 -0.00871812 0.268644 -0.9632 
-0.0801352 0.232044 -0.969399 -0.121734 0.194942 -0.973231 -0.153117 0.217521 -0.963971 
-0.144163 0.203491 -0.968405 -0.219397 0.313725 -0.923819 -0.128941 0.25542 -0.958194 
-0.21963 0.31304 -0.923996 0.636381 0.443979 -0.630795 0.697872 0.325869 -0.637796 
0.41784 0.382933 -0.823876 0.164601 0.275715 -0.947041 0.0552757 0.179477 -0.982208 
-0.0561834 0.15807 -0.985828 -0.144526 0.098091 -0.984627 -0.146292 0.0298309 -0.988792 
-0.125949 0.0495569 -0.990798 -0.122215 0.0619888 -0.990566 -0.124695 0.106213 -0.986494 
-0.208738 0.11892 -0.970714 -0.162622 0.0726475 -0.98401 0.718094 0.256022 -0.647142 
0.677138 0.248706 -0.692553 0.313633 0.13988 -0.939185 0.173415 0.110803 -0.978596 
-0.199816 -0.0106533 -0.979776 -0.17182 -0.0391975 -0.984348 -0.123597 0.0596709 -0.990537 
-0.0924614 -0.0250406 -0.995401 -0.118182 0.070979 -0.990452 -0.162395 -0.0503617 -0.98544 
-0.228249 -0.158149 -0.960672 -0.196089 -0.0908762 -0.976366 0.742302 0.218364 -0.633487 
0.548357 0.207067 -0.810202 0.232236 0.153885 -0.960409 -0.225678 -0.1067 -0.968341 
-0.0706387 -0.0951101 -0.992957 -0.121868 0.146453 -0.981682 -0.10842 -0.115595 -0.987362 
-0.2423 -0.177266 -0.95387 -0.197492 -0.0263044 -0.979952 0.807905 0.0346242 -0.588294 
0.506174 0.0379386 -0.861596 -0.191981 -0.0215739 -0.981161 -0.236706 0.00495125 -0.971569 
0.0358764 0.0377368 -0.998644 -0.125085 -0.0721772 -0.989517 -0.226083 -0.063133 -0.97206 
-0.197013 -0.25207 -0.947442 -0.262024 -0.35833 -0.896071 -0.199396 -0.306316 -0.930812 
0.781241 -0.158431 -0.60379 0.536683 -0.1354 -0.83285 0.213166 -0.113331 -0.970421 
-0.141519 0.0393354 -0.989154 -0.168345 0.0614041 -0.983814 -0.146219 0.00735738 -0.989225 
-0.193671 -0.271643 -0.94271 -0.320964 -0.247167 -0.91427 -0.391527 -0.382748 -0.836786 
-0.291361 -0.055411 -0.955007 0.736829 -0.258186 -0.624839 0.615492 -0.235846 -0.752028 
0.275062 -0.228138 -0.933967 0.155434 -0.114497 -0.981188 -0.161706 -0.0617193 -0.984907 
-0.260206 -0.122702 -0.957725 -0.266434 -0.199201 -0.943044 -0.378676 -0.400649 -0.834317 
-0.311056 -0.349401 -0.883834 -0.197507 -0.268284 -0.942876 0.686436 -0.416861 -0.595846 
0.678575 -0.426816 -0.597799 0.674614 -0.417563 -0.608718 0.45363 -0.601577 -0.657514 
0.347391 -0.329572 -0.877896 0.189377 -0.241656 -0.951703 -0.0159495 -0.293929 -0.955694 
-0.159179 -0.282637 -0.945927 -0.270609 -0.268771 -0.92441 -0.33984 -0.350309 -0.872807 
-0.339823 -0.342442 -0.87593 -0.302835 -0.272453 -0.913269 0.436056 -0.611678 -0.660079 
0.247163 -0.628923 -0.737134 0.203981 -0.51246 -0.834132 0.0270863 -0.6417 -0.766477 
-0.0165849 -0.494151 -0.869218 -0.0979406 -0.572584 -0.813975 -0.130843 -0.41502 -0.900355 
-0.300789 -0.412947 -0.859652 -0.234057 -0.483755 -0.843326 -0.243307 -0.41641 -0.876016 
0.0458005 0.125633 -0.991019 -0.0830193 0.0784499 -0.993455 0.118573 0.0954525 -0.988347 
0.130789 0.0865454 -0.987625 0.0398732 0.0754386 -0.996353 -0.119077 0.0273584 -0.992508 
-0.095434 0.0376688 -0.994723 0.130877 0.0966479 -0.986676 0.171721 0.0538919 -0.98367 
0.0881512 0.0658927 -0.993925 -0.0209744 -0.00481221 -0.999768 -0.144024 -0.0581294 -0.987865 
-0.144309 -0.056822 -0.9879 -0.143166 -0.0576983 -0.988015 0.189889 0.0318181 -0.98129 
0.178897 -0.0211309 -0.983641 0.163658 0.0311654 -0.986025 0.0154985 0.0277593 -0.999494 
-0.127429 -0.0121534 -0.991773 -0.0820785 -0.00522942 -0.996612 0.168976 -0.0963272 -0.980902 
0.147515 -0.108839 -0.983053 0.0515233 -0.0468481 -0.997572 -0.117354 0.0372809 -0.99239 
-0.0696986 0.0306626 -0.997097 0.145405 -0.113563 -0.982833 -0.16014 -0.062076 -0.98514 
-0.0063391 -0.194622 -0.980858 0.00301098 -0.101636 -0.994817 
