# vtk DataFile Version 4.2
vtk output
ASCII
DATASET POLYDATA
POINTS 534 float
-7.33371 -33.4511 -16.3278 0.950693 -33.4511 -18.0739 9.2351 -33.4511 -17.3519 
17.5195 -33.4511 -17.5314 25.8039 -33.4511 -17.2763 -40.4713 -25.1667 -18.0861 
-32.1869 -25.1667 -18.8961 -23.9025 -25.1667 -18.4552 -15.6181 -25.1667 -19.1976 
-7.33371 -25.1667 -21.193 0.950693 -25.1667 -21.4456 9.2351 -25.1667 -20.6283 
17.5195 -25.1667 -21.3112 25.8039 -25.1667 -21.3498 34.0883 -25.1667 -21.4416 
42.3727 -25.1667 -20.6935 50.6571 -25.1667 -16.4804 -48.7557 -16.8822 -20.5144 
-40.4713 -16.8822 -21.4616 -32.1869 -16.8822 -21.1179 -23.9025 -16.8822 -20.8553 
-15.6181 -16.8822 -20.9948 -7.33371 -16.8822 -22.6936 0.950693 -16.8822 -22.1294 
9.2351 -16.8822 -20.9186 17.5195 -16.8822 -21.3348 25.8039 -16.8822 -22.251 
34.0883 -16.8822 -22.6507 42.3727 -16.8822 -22.4026 50.6571 -16.8822 -21.0375 
-57.0401 -8.59785 -19.5447 -48.7557 -8.59785 -22.2619 -40.4713 -8.59785 -23.1238 
-32.1869 -8.59785 -22.8579 -23.9025 -8.59785 -21.24 -15.6181 -8.59785 -21.583 
-7.33371 -8.59785 -23.7222 0.950693 -8.59785 -22.1258 9.2351 -8.59785 -21.5706 
17.5195 -8.59785 -20.7661 25.8039 -8.59785 -22.1495 34.0883 -8.59785 -23.0919 
42.3727 -8.59785 -23.5389 50.6571 -8.59785 -22.027 58.9415 -8.59785 -19.1548 
-57.0401 -0.313444 -21.1992 -48.7557 -0.313444 -23.279 -40.4713 -0.313444 -23.6303 
-32.1869 -0.313444 -22.6957 -23.9025 -0.313444 -21.3325 -15.6181 -0.313444 -21.9456 
-7.33371 -0.313444 -24.2067 0.950693 -0.313444 -21.3849 9.2351 -0.313444 -23.4119 
17.5195 -0.313444 -19.7834 25.8039 -0.313444 -21.2602 34.0883 -0.313444 -22.6817 
42.3727 -0.313444 -23.3265 50.6571 -0.313444 -22.1483 58.9415 -0.313444 -19.5372 
-57.0401 7.97096 -20.0645 -48.7557 7.97096 -22.8371 -40.4713 7.97096 -23.6077 
-32.1869 7.97096 -22.761 -23.9025 7.97096 -21.8266 -15.6181 7.97096 -22.2353 
-7.33371 7.97096 -22.7951 0.950693 7.97096 -21.5562 9.2351 7.97096 -21.6874 
17.5195 7.97096 -18.4653 25.8039 7.97096 -19.7645 34.0883 7.97096 -21.3706 
42.3727 7.97096 -21.9923 50.6571 7.97096 -21.4634 58.9415 7.97096 -18.5499 
-57.0401 16.2554 -17.0271 -48.7557 16.2554 -21.1266 -40.4713 16.2554 -23.2679 
-32.1869 16.2554 -23.3338 -23.9025 16.2554 -22.8635 -15.6181 16.2554 -22.951 
-7.33371 16.2554 -22.7546 0.950693 16.2554 -22.5346 9.2351 16.2554 -20.8488 
17.5195 16.2554 -17.3811 25.8039 16.2554 -18.0255 34.0883 16.2554 -19.6869 
42.3727 16.2554 -19.8224 50.6571 16.2554 -19.4514 -48.7557 24.5398 -17.8983 
-40.4713 24.5398 -20.89 -32.1869 24.5398 -22.5138 -23.9025 24.5398 -23.3508 
-15.6181 24.5398 -23.2255 -7.33371 24.5398 -22.4406 0.950693 24.5398 -21.7995 
9.2351 24.5398 -19.2918 -32.1869 32.8242 -19.2466 -23.9025 32.8242 -20.7009 
-15.6181 32.8242 -20.0127 -7.33371 32.8242 -18.8114 0.950693 32.8242 -17.4709 
-7.33371 -33.5534 -16.2288 0.950693 -35.5497 -16.2288 9.2351 -34.8356 -16.2288 
17.5195 -34.7813 -16.2288 25.8039 -34.4647 -16.2288 -40.4713 -27.2563 -16.2288 
-32.1869 -28.9513 -16.2288 -32.1869 -33.4511 -9.65556 -23.9025 -28.5357 -16.2288 
-23.9025 -33.4511 -11.1292 -7.6142 -33.4511 -16.2288 -15.6181 -29.717 -16.2288 
-15.6181 -33.4511 -12.2197 33.7231 -33.4511 -16.2288 34.0883 -33.3833 -16.2288 
34.0883 -33.4511 -16.1362 42.3727 -30.3686 -16.2288 42.3727 -33.4511 -10.6278 
50.6571 -25.4596 -16.2288 -46.0543 -25.1667 -16.2288 -48.7557 -23.7661 -16.2288 
-48.7557 -25.1667 -14.8685 51.0059 -25.1667 -16.2288 -56.7799 -16.8822 -16.2288 
-57.0401 -16.556 -16.2288 -57.0401 -16.8822 -15.9784 58.2908 -16.8822 -16.2288 
58.9415 -15.9943 -16.2288 58.9415 -16.8822 -15.6177 -61.0762 -8.59785 -16.2288 
-65.3245 -8.59785 -8.19563 62.7044 -8.59785 -16.2288 67.2259 -8.59785 -8.48817 
-63.3449 -0.313444 -16.2288 -65.3245 -0.313444 -12.6322 63.3125 -0.313444 -16.2288 
67.2259 -0.313444 -10.3839 -61.5547 7.97096 -16.2288 -65.3245 7.97096 -8.5932 
62.2509 7.97096 -16.2288 58.9415 13.9782 -16.2288 67.2259 7.97096 -9.54512 
-57.9206 16.2554 -16.2288 -57.0401 17.6369 -16.2288 17.5195 20.4363 -16.2288 
25.8039 21.1273 -16.2288 34.0883 23.5605 -16.2288 42.3727 24.1152 -16.2288 
57.2822 16.2554 -16.2288 50.6571 21.7654 -16.2288 58.9415 16.2554 -15.0719 
-51.2317 24.5398 -16.2288 -48.7557 26.6106 -16.2288 -40.4713 32.7797 -16.2288 
15.0937 24.5398 -16.2288 9.2351 29.0398 -16.2288 17.5195 24.5398 -14.8726 
25.8039 24.5398 -14.8151 34.0883 24.5398 -15.7004 42.3727 24.5398 -15.9503 
50.6571 24.5398 -13.9998 -40.3943 32.8242 -16.2288 -40.4713 32.8242 -16.1555 
-32.1869 35.943 -16.2288 -23.9025 37.4972 -16.2288 -15.6181 36.3882 -16.2288 
-7.33371 35.0693 -16.2288 3.43226 32.8242 -16.2288 0.950693 33.9376 -16.2288 
9.2351 32.8242 -11.2881 -32.1869 -34.3088 -7.94444 -23.9025 -35.5282 -7.94444 
-15.6181 -36.081 -7.94444 -7.33371 -38.6609 -7.94444 0.950693 -40.4622 -7.94444 
0.950693 -41.7355 -0.660427 9.2351 -39.9206 -7.94444 17.5195 -38.9025 -7.94444 
25.8039 -38.2221 -7.94444 34.0883 -37.0468 -7.94444 42.3727 -34.4014 -7.94444 
-48.7557 -29.9882 -7.94444 -38.2539 -33.4511 -7.94444 -40.4713 -33.1268 -7.94444 
-40.4713 -33.4511 -6.27951 44.1988 -33.4511 -7.94444 42.3727 -33.4511 -2.61418 
50.6571 -29.6711 -7.94444 -54.7903 -25.1667 -7.94444 -57.0401 -22.9246 -7.94444 
56.2563 -25.1667 -7.94444 58.9415 -22.5789 -7.94444 -61.4579 -16.8822 -7.94444 
-65.3245 -8.8281 -7.94444 63.6474 -16.8822 -7.94444 67.2259 -9.16603 -7.94444 
-65.4191 -8.59785 -7.94444 -65.3245 -8.59785 -7.0021 67.4877 -8.59785 -7.94444 
-67.0869 -0.313444 -7.94444 -65.3245 -0.313444 -1.12341 68.454 -0.313444 -7.94444 
-65.551 7.97096 -7.94444 -65.3245 8.49892 -7.94444 -65.3245 7.97096 -6.2923 
68.0987 7.97096 -7.94444 67.2259 10.1565 -7.94444 -61.5323 16.2554 -7.94444 
-57.0401 23.5906 -7.94444 64.7341 16.2554 -7.94444 58.9415 24.042 -7.94444 
-56.2202 24.5398 -7.94444 -48.7557 30.8723 -7.94444 17.5195 31.812 -7.94444 
25.8039 32.4208 -7.94444 34.0883 32.3799 -7.94444 42.3727 32.3623 -7.94444 
58.3843 24.5398 -7.94444 50.6571 30.3599 -7.94444 58.9415 24.5398 -6.08775 
-45.9959 32.8242 -7.94444 -40.4713 36.0048 -7.94444 -32.1869 38.5859 -7.94444 
-23.9025 38.7134 -7.94444 -15.6181 38.0383 -7.94444 -7.33371 37.0537 -7.94444 
0.950693 37.0603 -7.94444 14.6952 32.8242 -7.94444 9.2351 34.6369 -7.94444 
17.5195 32.8242 -6.29967 25.8039 32.8242 -7.30352 34.0883 32.8242 -7.13338 
42.3727 32.8242 -7.16284 50.6571 32.8242 -0.00507978 0.950693 -41.8995 0.339958 
-40.4713 -34.6986 0.339958 -32.1869 -36.7043 0.339958 -23.9025 -37.8422 0.339958 
-15.6181 -38.9785 0.339958 -0.476874 -41.7355 0.339958 -7.33371 -40.9122 0.339958 
2.54639 -41.7355 0.339958 0.950693 -41.7355 1.72839 9.2351 -41.042 0.339958 
17.5195 -39.5118 0.339958 25.8039 -38.1738 0.339958 34.0883 -36.1442 0.339958 
-43.0936 -33.4511 0.339958 -48.7557 -30.1461 0.339958 -40.4713 -33.4511 6.73662 
40.9229 -33.4511 0.339958 34.0883 -33.4511 5.75884 42.3727 -32.823 0.339958 
50.6571 -28.1003 0.339958 -55.1031 -25.1667 0.339958 -57.0401 -22.4487 0.339958 
54.6185 -25.1667 0.339958 50.6571 -25.1667 4.41939 58.9415 -21.1222 0.339958 
-60.1953 -16.8822 0.339958 -57.0401 -16.8822 6.03665 62.4693 -16.8822 0.339958 
58.9415 -16.8822 4.93666 67.2259 -8.64831 0.339958 -64.4161 -8.59785 0.339958 
67.2493 -8.59785 0.339958 67.2259 -8.59785 0.384789 -64.9377 -0.313444 0.339958 
67.5762 -0.313444 0.339958 67.2259 -0.313444 1.18407 -64.2119 7.97096 0.339958 
67.9023 7.97096 0.339958 67.2259 10.2382 0.339958 67.2259 7.97096 2.1798 
-59.748 16.2554 0.339958 -57.0401 20.0089 0.339958 -57.0401 16.2554 5.05672 
65.3599 16.2554 0.339958 -53.6011 24.5398 0.339958 -48.7557 29.3396 0.339958 
60.6316 24.5398 0.339958 58.9415 26.2698 0.339958 58.9415 24.5398 3.14647 
-44.497 32.8242 0.339958 -40.4713 35.5294 0.339958 -40.4713 32.8242 8.61824 
-32.1869 38.3311 0.339958 -23.9025 38.2367 0.339958 -15.6181 37.3454 0.339958 
-7.33371 35.6482 0.339958 0.950693 36.1065 0.339958 9.2351 36.5224 0.339958 
17.5195 35.9213 0.339958 25.8039 36.1918 0.339958 34.0883 36.5418 0.339958 
42.3727 35.9189 0.339958 50.8152 32.8242 0.339958 50.6571 32.9161 0.339958 
50.6571 32.8242 0.759498 -32.1869 -36.3532 8.62436 -23.9025 -38.2559 8.62436 
-15.6181 -39.48 8.62436 -7.33371 -40.6658 8.62436 0.950693 -40.8374 8.62436 
9.2351 -39.5041 8.62436 17.5195 -37.7266 8.62436 25.8039 -35.4157 8.62436 
-48.7557 -26.5957 8.62436 -39.5777 -33.4511 8.62436 -40.4713 -33.0069 8.62436 
-32.1869 -33.4511 14.8647 9.2351 -33.4511 16.8666 17.5195 -33.4511 14.6889 
30.5828 -33.4511 8.62436 25.8039 -33.4511 11.0343 34.0883 -31.4616 8.62436 
42.3727 -27.1802 8.62436 -50.1402 -25.1667 8.62436 -48.7557 -25.1667 10.4772 
25.8039 -25.1667 16.2721 34.0883 -25.1667 13.3605 45.4973 -25.1667 8.62436 
42.3727 -25.1667 10.4341 50.6571 -21.2222 8.62436 -55.629 -16.8822 8.62436 
-57.0401 -13.7784 8.62436 34.0883 -16.8822 16.6597 42.3727 -16.8822 14.6992 
55.236 -16.8822 8.62436 50.6571 -16.8822 11.7839 58.9415 -11.1179 8.62436 
-59.3329 -8.59785 8.62436 -57.0401 -8.59785 11.6168 50.6571 -8.59785 15.0774 
60.4957 -8.59785 8.62436 58.9415 -8.59785 9.81003 -60.7603 -0.313444 8.62436 
-57.0401 -0.313444 13.974 50.6571 -0.313444 15.9781 62.6993 -0.313444 8.62436 
58.9415 -0.313444 11.4166 -59.1717 7.97096 8.62436 -57.0401 12.3202 8.62436 
-57.0401 7.97096 11.4037 50.6571 7.97096 16.023 63.6619 7.97096 8.62436 
58.9415 7.97096 11.7473 -55.1011 16.2554 8.62436 -48.7557 16.2554 16.684 
59.967 16.2554 8.62436 58.9415 18.2107 8.62436 58.9415 16.2554 9.49458 
-49.2338 24.5398 8.62436 -48.7557 25.0514 8.62436 -48.7557 24.5398 9.27186 
-40.4713 32.8217 8.62436 55.702 24.5398 8.62436 50.6571 30.2351 8.62436 
50.6571 24.5398 12.8665 -40.4675 32.8242 8.62436 -32.1869 36.6401 8.62436 
-32.1869 32.8242 15.9817 -23.9025 38.0181 8.62436 -15.6181 36.3601 8.62436 
-7.33371 34.7281 8.62436 -7.33371 32.8242 15.0946 0.950693 34.8463 8.62436 
0.950693 32.8242 14.3535 9.2351 36.1386 8.62436 9.2351 32.8242 15.635 
17.5195 36.4124 8.62436 17.5195 32.8242 16.6647 25.8039 36.9546 8.62436 
34.0883 36.8517 8.62436 34.0883 32.8242 14.9099 47.1512 32.8242 8.62436 
[...]
POINT_DATA 534
SCALARS ImageScalars float
LOOKUP_TABLE default
0 0 0 0 0 0 0 0 0 
0 0 0 0 0 0 0 0 0 
0 0 0 0 0 0 0 0 0 
0 0 0 0 0 0 0 0 0 
0 0 0 0 0 0 0 0 0 
0 0 0 0 0 0 0 0 0 
0 0 0 0 0 0 0 0 0 
0 0 0 0 0 0 0 0 0 
0 0 0 0 0 0 0 0 0 
0 0 0 0 0 0 0 0 0 
0 0 0 0 0 0 0 0 0 
0 0 0 0 0 0 0 0 0 
0 0 0 0 0 0 0 0 0 
0 0 0 0 0 0 0 0 0 
0 0 0 0 0 0 0 0 0 
0 0 0 0 0 0 0 0 0 
0 0 0 0 0 0 0 0 0 
0 0 0 0 0 0 0 0 0 
0 0 0 0 0 0 0 0 0 
0 0 0 0 0 0 0 0 0 
0 0 0 0 0 0 0 0 0 
0 0 0 0 0 0 0 0 0 
0 0 0 0 0 0 0 0 0 
0 0 0 0 0 0 0 0 0 
0 0 0 0 0 0 0 0 0 
0 0 0 0 0 0 0 0 0 
0 0 0 0 0 0 0 0 0 
0 0 0 0 0 0 0 0 0 
0 0 0 0 0 0 0 0 0 
0 0 0 0 0 0 0 0 0 
0 0 0 0 0 0 0 0 0 
0 0 0 0 0 0 0 0 0 
0 0 0 0 0 0 0 0 0 
0 0 0 0 0 0 0 0 0 
0 0 0 0 0 0 0 0 0 
0 0 0 0 0 0 0 0 0 
0 0 0 0 0 0 0 0 0 
0 0 0 0 0 0 0 0 0 
0 0 0 0 0 0 0 0 0 
0 0 0 0 0 0 0 0 0 
0 0 0 0 0 0 0 0 0 
0 0 0 0 0 0 0 0 0 
0 0 0 0 0 0 0 0 0 
0 0 0 0 0 0 0 0 0 
0 0 0 0 0 0 0 0 0 
0 0 0 0 0 0 0 0 0 
0 0 0 0 0 0 0 0 0 
0 0 0 0 0 0 0 0 0 
0 0 0 0 0 0 0 0 0 
0 0 0 0 0 0 0 0 0 
0 0 0 0 0 0 0 0 0 
0 0 0 0 0 0 0 0 0 
0 0 0 0 0 0 0 0 0 
0 0 0 0 0 0 0 0 0 
0 0 0 0 0 0 0 0 0 
0 0 0 0 0 0 0 0 0 
0 0 0 0 0 0 0 0 0 
0 0 0 0 0 0 0 0 0 
0 0 0 0 0 0 0 0 0 
0 0 0 
NORMALS Normals float
0.236496 0.672293 0.701492 0.0478344 0.587565 0.807762 -0.0302297 0.566812 0.823293 
-0.00294601 0.644493 0.764605 -0.0633404 0.694174 0.717015 0.187764 0.551355 0.812867 
0.0140004 0.445114 0.895365 0.0159434 0.446824 0.89448 0.156965 0.385704 0.909172 
0.127331 0.325264 0.937011 -0.0337202 0.212223 0.976639 -0.0110558 0.19223 0.981288 
0.0424485 0.183225 0.982154 0.0072312 0.253368 0.967343 -0.0298623 0.314339 0.948841 
-0.265286 0.440206 0.857813 -0.487913 0.579639 0.652656 0.274875 0.356738 0.892851 
0.0269094 0.276314 0.960691 -0.0361287 0.23173 0.972109 -0.00698179 0.151555 0.988424 
0.110305 0.133176 0.984935 0.0659425 0.144538 0.9873 -0.107191 0.0413913 0.993377 
-0.0463963 0.0540507 0.99746 0.080019 -0.0328161 0.996253 0.0790561 0.0452081 0.995845 
0.00988821 0.0914454 0.995761 -0.0828299 0.146339 0.985761 -0.35178 0.294601 0.888516 
0.479066 0.272509 0.834407 0.194171 0.146162 0.970018 0.032752 0.118173 0.992453 
-0.107981 0.0930086 0.989793 -0.0804158 0.031543 0.996262 0.156374 0.0577071 0.986011 
0.0238301 0.0884132 0.995799 -0.127415 -0.0440819 0.990869 -0.0847072 0.144491 0.985874 
0.0375036 -0.0934611 0.994916 0.140241 -0.0590618 0.988354 0.0826907 0.00177668 0.996574 
-0.0681878 0.0536355 0.99623 -0.245515 0.0541189 0.967881 -0.507293 0.19939 0.83839 
0.415704 0.0319397 0.908939 0.127988 0.0341756 0.991187 -0.0357661 0.0314655 0.998865 
-0.137289 -0.00566232 0.990515 -0.0482536 0.0348923 0.998226 0.174948 0.0400405 0.983763 
-0.0447846 -0.0557432 0.99744 -0.0470706 -0.0356026 0.998257 -0.101723 0.0156826 0.994689 
-0.111211 -0.140595 0.983801 0.173724 -0.138477 0.97501 0.122129 -0.10162 0.987298 
-0.0359814 -0.0907015 0.995228 -0.218698 -0.0287832 0.975368 -0.475247 -0.0339753 0.879196 
0.494504 -0.228161 0.838694 0.183052 -0.12757 0.974791 -0.00642036 -0.0206698 0.999766 
-0.112535 0.0396859 0.992855 -0.0333409 0.0942364 0.994991 0.0585062 0.060459 0.996455 
-0.0420249 -0.0831439 0.995651 -0.0665064 0.0690421 0.995394 -0.200424 -0.150966 0.968008 
-0.095908 -0.142643 0.985117 0.174161 -0.184099 0.967355 0.127263 -0.1745 0.976398 
0.00824477 -0.214804 0.976622 -0.207185 -0.17754 0.962057 -0.459311 -0.207418 0.86372 
0.635992 -0.402921 0.658156 0.320746 -0.258191 0.911296 0.132629 -0.165102 0.977318 
-0.0250629 -0.0162515 0.999554 -0.0232702 0.0954624 0.995161 -0.00642974 0.0589575 0.99824 
-0.0250818 -0.0217883 0.999448 -0.106014 0.0133671 0.994275 -0.316453 -0.131127 0.939501 
-0.155433 -0.191966 0.969015 0.135406 -0.268788 0.953634 0.0984797 -0.300484 0.948689 
-0.0147662 -0.323253 0.946197 -0.206075 -0.386554 0.898949 0.478682 -0.544758 0.688551 
0.252735 -0.346521 0.903354 0.145107 -0.215769 0.965602 0.0445053 -0.0986901 0.994123 
-0.0572641 -0.14579 0.987657 -0.0865526 -0.190334 0.977897 -0.168157 -0.240698 0.955922 
-0.393981 -0.345914 0.851541 0.21859 -0.609017 0.762441 0.0474872 -0.567593 0.821939 
-0.101256 -0.639771 0.761867 -0.136642 -0.709579 0.69125 -0.257973 -0.711761 0.653334 
0.237563 0.676124 0.697439 0.0654106 0.689594 0.721236 -0.0372269 0.637296 0.769719 
-0.0197362 0.71765 0.696124 -0.0728203 0.744301 0.663863 0.209219 0.642862 0.736856 
0.0586282 0.639474 0.766574 0.120434 0.899252 0.420526 0.0264541 0.582631 0.812306 
0.0796125 0.823888 0.561133 0.235595 0.675833 0.698388 0.178468 0.59864 0.780883 
0.184155 0.802931 0.566912 -0.181016 0.765846 0.617019 -0.185553 0.765324 0.616319 
-0.186895 0.771234 0.608497 -0.338216 0.697626 0.631607 -0.393038 0.888073 0.238427 
-0.49149 0.591653 0.639049 0.308558 0.614995 0.725653 0.350317 0.59186 0.725934 
0.390635 0.663845 0.637742 -0.49628 0.586123 0.640442 0.604425 0.433199 0.668587 
0.610961 0.426995 0.666635 0.621582 0.439341 0.648549 -0.565502 0.441695 0.6965 
-0.578533 0.423849 0.696887 -0.598562 0.459812 0.65597 0.697529 0.299865 0.650794 
0.946124 0.291411 0.141171 -0.696507 0.208279 0.686657 -0.932038 0.275248 0.235677 
0.793997 0.0229173 0.607489 0.947768 0.0165056 0.318533 -0.687034 -0.0158225 0.726453 
-0.945956 0.0244689 0.323371 0.7361 -0.256502 0.626389 0.947807 -0.291682 0.128775 
-0.600029 -0.214428 0.770705 -0.527217 -0.366831 0.766471 -0.921967 -0.208603 0.326285 
0.672392 -0.411425 0.61532 0.655219 -0.438864 0.614888 -0.194891 -0.324312 0.925656 
0.080337 -0.393311 0.915889 0.064009 -0.534982 0.842435 -0.0704193 -0.578958 0.812311 
-0.489069 -0.410898 0.769398 -0.24973 -0.522394 0.815315 -0.5703 -0.433851 0.697518 
0.548073 -0.579651 0.60301 0.516316 -0.608896 0.602215 0.428403 -0.709516 0.559516 
-0.287196 -0.435325 0.853235 -0.44533 -0.56128 0.6976 -0.226758 -0.480299 0.847286 
0.0440378 -0.503234 0.863027 0.053184 -0.569857 0.820021 -0.0758388 -0.594795 0.800292 
-0.275598 -0.613421 0.740109 0.427132 -0.710845 0.558801 0.429247 -0.713015 0.554397 
0.240683 -0.781558 0.575534 0.0251028 -0.852588 0.521981 -0.137694 -0.849642 0.509066 
-0.142177 -0.845002 0.515517 -0.325433 -0.729961 0.601041 -0.255757 -0.768892 0.585998 
-0.373235 -0.807264 0.457187 0.128834 0.921682 0.365928 0.0982735 0.898226 0.428408 
0.173425 0.885743 0.430561 0.248777 0.893243 0.374468 0.0678107 0.947638 0.312064 
0.0128587 0.998404 0.0549869 -0.0931074 0.953151 0.287809 -0.0998835 0.968101 0.22979 
-0.107971 0.977179 0.182932 -0.228479 0.964686 0.131066 -0.394457 0.915134 0.0832736 
0.479982 0.840109 0.252655 0.188133 0.917808 0.349621 0.214665 0.913227 0.346317 
0.241242 0.930773 0.274706 -0.426014 0.900728 0.0848625 -0.409516 0.8938 -0.182807 
-0.555433 0.825117 0.103324 0.654317 0.726237 0.210829 0.728105 0.66278 0.174887 
-0.664262 0.736302 0.128898 -0.726191 0.671727 0.146389 0.831035 0.534571 0.153673 
0.946193 0.29561 0.131655 -0.841102 0.51862 0.153563 -0.932713 0.295267 0.207035 
0.948427 0.289076 0.130079 0.954775 0.284801 0.0854022 -0.936935 0.278851 0.210699 
0.998384 0.00745961 0.0563287 0.958604 -0.00745496 -0.284646 -0.981365 0.0321688 0.189443 
0.952174 -0.289029 0.0991273 0.947204 -0.3045 0.100422 0.958664 -0.283632 0.0227458 
-0.947126 -0.212709 0.240223 -0.933304 -0.265835 0.241401 0.85338 -0.514237 0.0854582 
0.752433 -0.656254 0.0563504 -0.854926 -0.438461 0.277226 -0.638162 -0.6887 0.344153 
0.729979 -0.680838 0.0599284 0.613874 -0.781942 0.108281 -0.11953 -0.798381 0.590169 
0.0265072 -0.817886 0.57477 -0.00252281 -0.811627 0.58417 -0.0975849 -0.80687 0.582613 
-0.61867 -0.699633 0.357436 -0.357985 -0.810209 0.464122 -0.675196 -0.695883 0.244656 
0.550532 -0.826499 0.117534 0.414644 -0.89996 0.13469 0.142952 -0.982486 0.119527 
-0.033157 -0.999059 0.0279454 -0.0956067 -0.99437 0.0456919 -0.0630962 -0.997667 0.0260485 
-0.120385 -0.987319 0.103481 -0.178777 -0.843575 0.50638 -0.301555 -0.88926 0.343922 
-0.0921382 -0.853599 0.512718 0.0242785 -0.838073 0.545018 -0.0038188 -0.835737 0.549116 
-0.106946 -0.835212 0.539429 -0.451265 -0.891586 0.0378625 0.00534495 0.999729 0.022639 
0.343049 0.939316 -0.00190683 0.182247 0.976822 0.112272 0.1287 0.980332 0.14962 
0.186087 0.963558 0.192165 0.0338573 0.998715 0.0377044 0.176021 0.977842 0.113324 
-0.0221879 0.999634 0.0154522 -0.00518415 0.999404 -0.0341321 -0.142009 0.989694 -0.0183903 
-0.168135 0.983776 -0.0625673 -0.189092 0.970428 -0.150047 -0.296146 0.918765 -0.261092 
0.409436 0.911219 -0.0451806 0.573815 0.805362 -0.148755 0.443083 0.863158 -0.242148 
-0.386091 0.864878 -0.320812 -0.362293 0.80512 -0.469601 -0.407078 0.849987 -0.33438 
-0.523851 0.779476 -0.343507 0.72558 0.653028 -0.216999 0.78248 0.56769 -0.255838 
-0.603748 0.722523 -0.336821 -0.51052 0.685943 -0.518509 -0.701869 0.627015 -0.337982 
0.842064 0.462396 -0.277701 0.784127 0.436672 -0.440979 -0.775503 0.53287 -0.338591 
-0.679543 0.500304 -0.536579 -0.923217 0.260445 -0.282557 0.923651 0.22779 -0.308188 
-0.923733 0.258645 -0.282524 -0.922946 0.258976 -0.284785 0.93449 -0.0104054 -0.355837 
-0.966492 0.0367147 -0.254059 -0.955079 0.0442795 -0.293024 0.914324 -0.244431 -0.322902 
-0.973907 -0.126218 -0.188609 -0.966772 -0.17912 -0.182397 -0.949018 -0.127272 -0.288386 
0.809487 -0.498789 -0.309742 0.769484 -0.55112 -0.322739 0.775841 -0.470453 -0.42041 
-0.920744 -0.34078 -0.189997 0.715617 -0.637008 -0.286555 0.651937 -0.719553 -0.23921 
-0.783164 -0.610958 -0.115694 -0.743807 -0.660992 -0.0991981 -0.766994 -0.589821 -0.252649 
0.554021 -0.807885 -0.200955 0.456885 -0.873779 -0.166633 0.533746 -0.763597 -0.363366 
0.138338 -0.983799 -0.114024 -0.0597079 -0.99732 -0.0422895 -0.15503 -0.982387 -0.104312 
-0.0754153 -0.988302 -0.132555 0.052159 -0.989939 -0.131533 -0.0119685 -0.99727 0.072864 
-0.0199546 -0.972151 0.233502 0.0358245 -0.966334 0.254784 -0.0189385 -0.972928 0.230332 
-0.192393 -0.972801 0.129011 -0.458201 -0.888604 0.0208407 -0.453451 -0.891012 0.0218963 
-0.460043 -0.887897 2.24709e-05 0.29419 0.931343 -0.2146 0.180131 0.974818 -0.131465 
0.143888 0.979389 -0.141755 0.0831503 0.966847 -0.24144 -0.0638386 0.939123 -0.337598 
-0.175824 0.914721 -0.363829 -0.227054 0.894638 -0.384798 -0.30921 0.8052 -0.506006 
0.649417 0.629216 -0.427019 0.449863 0.84016 -0.30291 0.469442 0.823353 -0.318926 
0.326598 0.78202 -0.530828 -0.137834 0.584098 -0.799895 -0.262258 0.651049 -0.712289 
-0.359839 0.750918 -0.55375 -0.327589 0.715642 -0.616881 -0.371726 0.694795 -0.615695 
-0.38776 0.639717 -0.66363 0.675394 0.588441 -0.4445 0.652129 0.588449 -0.477971 
-0.29565 0.320984 -0.899756 -0.300115 0.462826 -0.8341 -0.419642 0.61029 -0.671898 
-0.373859 0.580523 -0.723341 -0.471517 0.548273 -0.690701 0.747241 0.431895 -0.505072 
0.773766 0.366016 -0.517028 -0.168372 0.30433 -0.937568 -0.260984 0.371812 -0.890866 
-0.559596 0.463835 -0.686811 -0.418447 0.448812 -0.789601 -0.611375 0.338901 -0.715099 
0.81155 0.23364 -0.535536 0.783567 0.247835 -0.569737 -0.397276 0.215909 -0.891939 
-0.627395 0.286322 -0.724151 -0.591517 0.271228 -0.759304 0.84986 -0.00715729 -0.526959 
0.783568 -0.00716309 -0.621265 -0.37775 0.0470574 -0.924711 -0.696666 0.115515 -0.708035 
-0.574506 0.0944292 -0.813035 0.8036 -0.262098 -0.534351 0.774748 -0.368655 -0.513672 
0.778351 -0.270847 -0.566402 -0.372584 0.0457822 -0.926869 -0.706212 -0.119875 -0.697778 
-0.548433 -0.0937337 -0.830925 0.743869 -0.449931 -0.494187 0.639171 -0.417946 -0.645587 
-0.688682 -0.297715 -0.661123 -0.688043 -0.337378 -0.642474 -0.671314 -0.276502 -0.687666 
0.674687 -0.594151 -0.437929 0.669193 -0.602371 -0.43512 0.668248 -0.592493 -0.449886 
0.533794 -0.763481 -0.36354 -0.672947 -0.477067 -0.565287 -0.554913 -0.66785 -0.496032 
-0.513096 -0.448512 -0.731826 0.533675 -0.763584 -0.363498 0.269597 -0.912925 -0.306407 
0.298537 -0.730238 -0.614514 -0.0227659 -0.979052 -0.202333 -0.18619 -0.962357 -0.197998 
-0.0941032 -0.97668 -0.192981 -0.100434 -0.906643 -0.40977 0.0775541 -0.968691 -0.235848 
0.0214216 -0.89726 -0.440983 0.096775 -0.968018 -0.231464 0.0597426 -0.796147 -0.602147 
0.0482536 -0.988711 -0.141851 0.049746 -0.714323 -0.698046 0.0276613 -0.989093 -0.144673 
-0.109832 -0.962854 -0.246678 -0.205764 -0.722853 -0.659655 -0.450624 -0.791513 -0.412849 
-0.326782 -0.882322 -0.338704 -0.350836 -0.740539 -0.573163 0.183468 0.770544 -0.610411 
0.0412006 0.765091 -0.642603 -0.062804 0.701074 -0.710318 -0.105948 0.612203 -0.783571 
0.464754 0.560367 -0.68556 0.264179 0.728895 -0.631602 0.319784 0.685515 -0.65407 
0.175736 0.694906 -0.697297 0.01794 0.654895 -0.755507 -0.0791348 0.603493 -0.793432 
-0.136434 0.582677 -0.80117 -0.108816 0.573102 -0.812227 -0.137849 0.580208 -0.802718 
-0.253873 0.42672 -0.86802 0.488877 0.530357 -0.692619 0.622409 0.410049 -0.666683 
0.451282 0.521157 -0.72439 0.252841 0.461378 -0.850413 0.110002 0.343332 -0.93275 
-0.000310707 0.325539 -0.945529 -0.111231 0.34795 -0.930891 -0.144405 0.345176 -0.927362 
-0.157307 0.272745 -0.949139 -0.277602 0.29412 -0.914566 -0.228354 0.229275 -0.946196 
-0.241882 0.247264 -0.938272 0.626093 0.402705 -0.667709 0.620858 0.402432 -0.672743 
0.380467 0.370027 -0.84754 0.133753 0.314945 -0.939638 -0.208443 0.236681 -0.948964 
-0.275443 0.197802 -0.940747 -0.238036 0.105805 -0.965476 -0.167541 0.270161 -0.948126 
-0.166504 0.156323 -0.973571 -0.158065 0.290905 -0.943605 -0.223917 0.25207 -0.941447 
0.709303 0.234173 -0.66487 0.600593 0.232731 -0.764934 -0.282581 0.185387 -0.941159 
-0.275488 0.200793 -0.9401 -0.0997866 0.170932 -0.980217 -0.0890303 0.178669 -0.979873 
-0.271294 0.210275 -0.939246 -0.215197 0.209589 -0.953815 0.729538 -0.00728224 -0.683901 
0.594231 -0.0064547 -0.804268 -0.21544 -0.0020539 -0.976515 -0.122663 -0.0732789 -0.989739 
-0.272918 0.0204614 -0.96182 -0.173418 0.0808333 -0.981525 -0.125859 0.0585154 -0.990321 
-0.317437 0.0453457 -0.947195 -0.217406 0.0565871 -0.97444 0.705591 -0.252752 -0.66201 
0.638173 -0.410206 -0.65151 0.615246 -0.245483 -0.74914 -0.250539 -0.161555 -0.954531 
-0.132361 -0.117722 -0.984186 -0.0795476 0.0351762 -0.99621 -0.118641 0.0265229 -0.992583 
-0.319253 0.0417241 -0.946751 -0.222255 0.00759841 -0.974959 -0.438483 -0.127664 -0.889626 
0.63291 -0.416819 -0.652447 0.380478 -0.388276 -0.839332 0.110344 -0.296678 -0.948581 
0.0204077 -0.252651 -0.967342 -0.272146 -0.0950839 -0.957547 -0.0622221 -0.0435128 -0.997113 
-0.0344652 -0.010253 -0.999353 -0.159973 -0.0505603 -0.985826 -0.201704 -0.055638 -0.977865 
-0.445332 -0.140441 -0.884283 -0.443049 -0.145799 -0.884562 -0.442441 -0.140237 -0.885765 
0.524385 -0.519694 -0.674491 0.508827 -0.541293 -0.6694 0.495174 -0.510773 -0.70279 
0.299338 -0.686093 -0.663079 0.259204 -0.431004 -0.86432 0.11015 -0.322051 -0.940293 
0.0450973 -0.347285 -0.936675 -0.100035 -0.866001 -0.489934 -0.0426077 -0.468193 -0.882599 
-0.0186092 -0.822328 -0.568709 -0.150478 -0.460812 -0.874648 0.033641 -0.71352 -0.699827 
-0.135593 -0.306217 -0.942256 0.0467447 -0.688988 -0.723264 -0.0393238 -0.19819 -0.979375 
-0.0853374 -0.225411 -0.970519 -0.214831 -0.487808 -0.846103 -0.172807 -0.23748 -0.955898 
-0.343757 -0.321759 -0.882214 -0.333166 -0.340439 -0.879262 -0.326426 -0.30253 -0.895501 
0.234175 -0.725186 -0.647509 0.0674122 -0.781213 -0.620614 0.081721 -0.721703 -0.687362 
-0.100374 -0.85955 -0.501098 -0.106832 -0.840278 -0.531526 -0.0957553 -0.805919 -0.584231 
-0.00283119 -0.68551 -0.728058 -0.0884582 -0.657896 -0.747895 -0.0719237 -0.666788 -0.741769 
-0.071471 -0.656305 -0.751103 0.0277644 0.269018 -0.962735 0.00413011 0.237187 -0.971455 
-0.0744779 0.271351 -0.959594 0.335017 0.235669 -0.912263 0.114097 0.306553 -0.94499 
0.133337 0.31261 -0.940477 0.0215219 0.265201 -0.963953 0.00472493 0.222586 -0.974902 
-0.102463 0.25743 -0.960849 -0.0690673 0.263348 -0.962225 -0.205519 0.116226 -0.971727 
0.343009 0.227119 -0.911461 0.332403 0.226699 -0.915487 0.114138 0.193994 -0.97434 
0.0120114 0.203474 -0.979007 -0.00160612 0.224777 -0.974409 -0.109919 0.185263 -0.976522 
-0.226597 0.089397 -0.969877 -0.213874 0.00543263 -0.976846 -0.202413 0.0467899 -0.978182 
0.41849 0.0173844 -0.908055 0.315128 0.0239907 -0.948746 0.122363 -0.0100156 -0.992435 
0.0530314 -0.010632 -0.998536 -0.00873599 0.00951771 -0.999917 -0.216828 -0.000311075 -0.97621 
-0.2348 0.0503086 -0.970741 -0.234636 0.00250161 -0.97208 0.372601 -0.218544 -0.901891 
0.334523 -0.260245 -0.905741 0.321015 -0.213898 -0.922603 0.107473 -0.290112 -0.950939 
0.0826346 -0.201241 -0.97605 0.0201889 -0.251998 -0.967517 0.0302006 -0.218597 -0.975348 
0.0601123 -0.22974 -0.971394 -0.110843 -0.118713 -0.986722 -0.323255 -0.00746002 -0.946283 
-0.334797 0.0242159 -0.941979 0.0332736 -0.245138 -0.968917 0.0794609 -0.22972 -0.970008 
0.0835619 -0.216871 -0.972617 -0.0136938 -0.351428 -0.936115 0.00899266 -0.258261 -0.966033 
-0.258879 -0.135874 -0.956305 -0.243008 -0.18253 -0.952696 -0.255179 -0.140844 -0.956581 

