# vtk DataFile Version 4.2
vtk output
ASCII
DATASET POLYDATA
POINTS 522 float
44.472 -10.1119 -23.453 53.0288 -10.1119 -23.6657 -23.9825 -44.3391 -17.4872 
-15.4257 -44.3391 -18.8269 -6.86885 -44.3391 -18.6747 1.68795 -44.3391 -16.6165 
-32.5393 -35.7823 -18.2933 -23.9825 -35.7823 -19.9649 -15.4257 -35.7823 -21.8443 
-6.86885 -35.7823 -21.4694 1.68795 -35.7823 -20.9486 10.2448 -35.7823 -18.9975 
-41.0961 -27.2255 -16.5324 -32.5393 -27.2255 -19.0476 -23.9825 -27.2255 -20.5718 
-15.4257 -27.2255 -21.8996 -6.86885 -27.2255 -22.0066 1.68795 -27.2255 -22.253 
10.2448 -27.2255 -20.8907 18.8016 -27.2255 -19.3802 27.3584 -27.2255 -17.6819 
35.9152 -27.2255 -15.4281 -41.0961 -18.6687 -17.6971 -32.5393 -18.6687 -20.1357 
-23.9825 -18.6687 -20.6123 -15.4257 -18.6687 -20.356 -6.86885 -18.6687 -21.2138 
1.68795 -18.6687 -22.214 10.2448 -18.6687 -20.8174 18.8016 -18.6687 -20.1554 
27.3584 -18.6687 -20.8175 35.9152 -18.6687 -21.8028 44.472 -10.8222 -23.2597 
44.472 -18.6687 -21.0106 53.0288 -11.272 -23.2597 53.0288 -18.6687 -19.3006 
61.5856 -18.6687 -15.8319 -41.0961 -10.1119 -18.6472 -32.5393 -10.1119 -20.6314 
-23.9825 -10.1119 -20.9515 -15.4257 -10.1119 -19.8512 -6.86885 -10.1119 -20.7248 
1.68795 -10.1119 -22.2926 10.2448 -10.1119 -20.047 18.8016 -10.1119 -19.5839 
27.3584 -10.1119 -21.18 41.5639 -10.1119 -23.2597 35.9152 -10.1119 -22.8918 
44.472 -7.46155 -23.2597 54.1423 -10.1119 -23.2597 53.0288 -6.85617 -23.2597 
61.5856 -10.1119 -19.7666 -49.6529 -1.55513 -15.2637 -41.0961 -1.55513 -19.4299 
-32.5393 -1.55513 -21.3312 -23.9825 -1.55513 -21.3828 -15.4257 -1.55513 -21.4375 
-6.86885 -1.55513 -20.8117 1.68795 -1.55513 -18.5844 10.2448 -1.55513 -20.9294 
18.8016 -1.55513 -19.398 27.3584 -1.55513 -20.8483 35.9152 -1.55513 -22.2883 
44.472 -1.55513 -22.8304 53.0288 -1.55513 -22.4517 61.5856 -1.55513 -19.7341 
-49.6529 7.00168 -15.6607 -41.0961 7.00168 -18.9576 -32.5393 7.00168 -20.0553 
-23.9825 7.00168 -19.1469 -15.4257 7.00168 -18.3465 -6.86885 7.00168 -20.7133 
1.68795 7.00168 -17.7445 10.2448 7.00168 -20.3714 18.8016 7.00168 -17.6349 
27.3584 7.00168 -17.7276 35.9152 7.00168 -19.6193 44.472 7.00168 -20.0492 
53.0288 7.00168 -20.3411 61.5856 7.00168 -15.884 -41.0961 15.5585 -17.4804 
-32.5393 15.5585 -17.4958 -23.9825 15.5585 -16.7757 -15.4257 15.5585 -15.2928 
-6.86885 15.5585 -17.6144 1.68795 15.5585 -17.8537 10.2448 15.5585 -17.8059 
-41.0961 24.1153 -15.6096 -32.5393 24.1153 -16.3523 -23.9825 24.1153 -16.0653 
-15.4257 24.1153 -16.0051 -6.86885 24.1153 -16.9059 1.68795 24.1153 -17.1408 
10.2448 24.1153 -16.1166 -23.9825 32.6721 -15.5245 -15.4257 32.6721 -15.6806 
-6.86885 32.6721 -15.4193 1.68795 32.6721 -14.8188 -23.9825 -47.7438 -14.7029 
-15.4257 -49.747 -14.7029 -15.4257 -52.896 -7.89874 -6.86885 -48.8593 -14.7029 
1.68795 -46.1868 -14.7029 -31.1696 -44.3391 -14.7029 -32.5393 -43.2948 -14.7029 
-32.5393 -44.3391 -13.9452 5.06301 -44.3391 -14.7029 10.2448 -40.8617 -14.7029 
-38.9488 -35.7823 -14.7029 -41.0961 -32.6306 -14.7029 -41.0961 -35.7823 -13.0755 
16.9458 -35.7823 -14.7029 18.8016 -34.2957 -14.7029 27.3584 -30.1986 -14.7029 
35.9152 -27.771 -14.7029 -43.6364 -27.2255 -14.7029 -49.6529 -27.2255 -7.64401 
38.1525 -27.2255 -14.7029 44.472 -25.4956 -14.7029 53.0288 -22.9231 -14.7029 
61.5856 -19.4523 -14.7029 -45.568 -18.6687 -14.7029 -49.6529 -18.6687 -10.9863 
62.6214 -18.6687 -14.7029 -48.726 -10.1119 -14.7029 -49.6529 -5.96126 -14.7029 
-49.6529 -10.1119 -13.9913 68.9092 -10.1119 -14.7029 70.1424 -10.1119 -9.5389 
-50.3117 -1.55513 -14.7029 69.9754 -1.55513 -14.7029 70.1424 -1.55513 -14.3869 
-50.8487 7.00168 -14.7029 -49.6529 11.9675 -14.7029 18.8016 11.62 -14.7029 
27.3584 12.058 -14.7029 35.9152 13.3951 -14.7029 44.472 13.3119 -14.7029 
53.0288 12.9453 -14.7029 64.3265 7.00168 -14.7029 61.5856 8.4223 -14.7029 
70.1424 7.00168 -8.97052 -47.9215 15.5585 -14.7029 -49.6529 15.5585 -13.8644 
15.1137 15.5585 -14.7029 18.8016 15.5585 -12.1401 27.3584 15.5585 -12.2811 
35.9152 15.5585 -12.8104 44.472 15.5585 -12.3684 53.0288 15.5585 -11.2903 
61.5856 15.5585 -6.79324 -43.0676 24.1153 -14.7029 -49.6529 24.1153 -10.3288 
-41.0961 26.5137 -14.7029 -32.5393 30.0042 -14.7029 12.6907 24.1153 -14.7029 
10.2448 28.8023 -14.7029 18.8016 24.1153 -9.37029 -49.6529 32.6721 -6.97238 
-41.0961 32.6721 -11.8627 -28.4431 32.6721 -14.7029 -32.5393 32.6721 -13.9844 
-23.9825 35.5692 -14.7029 -15.4257 36.1069 -14.7029 -6.86885 34.7707 -14.7029 
2.47439 32.6721 -14.7029 1.68795 32.9768 -14.7029 10.2448 32.6721 -13.4223 
18.8016 32.6721 -7.33796 -32.5393 41.2289 -10.7711 -23.9825 41.2289 -13.0364 
-15.4257 41.2289 -12.967 -6.86885 41.2289 -12.2026 1.68795 41.2289 -11.0657 
10.2448 41.2289 -8.97744 -15.4257 -53.4828 -6.1461 -32.5393 -49.6129 -6.1461 
-23.2213 -52.896 -6.1461 -23.9825 -52.836 -6.1461 -12.3166 -52.896 -6.1461 
-15.4257 -52.896 -3.28848 -6.86885 -51.8138 -6.1461 1.68795 -48.1128 -6.1461 
-41.0234 -44.3391 -6.1461 -41.0961 -44.2663 -6.1461 7.71387 -44.3391 -6.1461 
10.2448 -42.6422 -6.1461 -47.3478 -35.7823 -6.1461 -49.6529 -30.2581 -6.1461 
18.7103 -35.7823 -6.1461 18.8016 -35.7145 -6.1461 27.3584 -30.7395 -6.1461 
35.9152 -28.6354 -6.1461 -50.7263 -27.2255 -6.1461 27.3584 -27.2255 2.12651 
41.3744 -27.2255 -6.1461 35.9152 -27.2255 -2.22689 44.472 -26.3324 -6.1461 
53.0288 -24.5011 -6.1461 61.5856 -21.3134 -6.1461 -53.2272 -18.6687 -6.1461 
64.7101 -18.6687 -6.1461 61.5856 -18.6687 0.533385 70.1424 -10.9817 -6.1461 
-55.612 -10.1119 -6.1461 70.757 -10.1119 -6.1461 70.1424 -10.1119 -4.43747 
-56.7415 -1.55513 -6.1461 72.7499 -1.55513 -6.1461 70.1424 -1.55513 1.85563 
-57.696 7.00168 -6.1461 -58.2097 7.00168 2.19028 70.9682 7.00168 -6.1461 
70.1424 8.04462 -6.1461 70.1424 7.00168 -2.65014 -56.8962 15.5585 -6.1461 
27.3584 22.5249 -6.1461 35.9152 22.4247 -6.1461 44.472 20.7404 -6.1461 
53.0288 18.5946 -6.1461 62.0283 15.5585 -6.1461 61.5856 16.013 -6.1461 
61.5856 15.5585 -1.66851 -53.956 24.1153 -6.1461 24.5772 24.1153 -6.1461 
27.3584 24.1153 -5.05709 35.9152 24.1153 -4.06737 -50.2484 32.6721 -6.1461 
-49.6529 33.4827 -6.1461 -41.0961 40.9613 -6.1461 20.3369 32.6721 -6.1461 
18.8016 35.5659 -6.1461 27.3584 32.6721 -0.0775268 -40.7558 41.2289 -6.1461 
-41.0961 41.2289 -5.65736 -32.5393 47.5255 -6.1461 -23.9825 49.0533 -6.1461 
-15.4257 49.4423 -6.1461 -6.86885 48.9348 -6.1461 1.68795 47.3131 -6.1461 
14.9456 41.2289 -6.1461 10.2448 45.103 -6.1461 18.8016 41.2289 -3.23331 
-32.5393 49.7857 1.68559 -23.9825 49.7857 -4.49807 -15.4257 49.7857 -5.63027 
-6.86885 49.7857 -5.11795 1.68795 49.7857 -3.45341 10.2448 49.7857 -0.24825 
-32.5393 -48.8768 2.4107 -23.9825 -51.342 2.4107 -15.4257 -51.7042 2.4107 
-6.86885 -49.7194 2.4107 1.68795 -45.6708 2.4107 -39.2299 -44.3391 2.4107 
-41.0961 -42.8669 2.4107 -32.5393 -44.3391 10.0473 3.80964 -44.3391 2.4107 
1.68795 -44.3391 6.40793 10.2448 -39.9524 2.4107 -47.6072 -35.7823 2.4107 
-49.6529 -32.3635 2.4107 14.83 -35.7823 2.4107 18.8016 -32.4425 2.4107 
-52.2203 -27.2255 2.4107 -49.6529 -27.2255 9.50585 27.1334 -27.2255 2.4107 
27.3584 -27.0937 2.4107 35.9152 -25.2708 2.4107 44.472 -23.7762 2.4107 
53.0288 -20.8732 2.4107 -54.919 -18.6687 2.4107 59.2709 -18.6687 2.4107 
53.0288 -18.6687 6.35116 61.5856 -17.4018 2.4107 -56.6408 -10.1119 2.4107 
67.3379 -10.1119 2.4107 61.5856 -10.1119 8.56951 -57.9489 -1.55513 2.4107 
-58.2097 6.63558 2.4107 69.9206 -1.55513 2.4107 -58.2213 7.00168 2.4107 
-58.2097 7.31004 2.4107 -58.2097 7.00168 2.44435 68.5775 7.00168 2.4107 
61.5856 15.1095 2.4107 -57.8888 15.5585 2.4107 44.472 24.104 2.4107 
61.0562 15.5585 2.4107 53.0288 20.5415 2.4107 53.0288 15.5585 10.9295 
-55.6695 24.1153 2.4107 44.4477 24.1153 2.4107 35.9152 28.7129 2.4107 
-51.4056 32.6721 2.4107 -49.6529 35.1814 2.4107 -49.6529 32.6721 6.62253 
30.3232 32.6721 2.4107 27.3584 35.7594 2.4107 -44.7235 41.2289 2.4107 
-41.0961 44.4965 2.4107 -41.0961 41.2289 9.14273 23.3624 41.2289 2.4107 
18.8016 45.7764 2.4107 -32.7888 49.7857 2.4107 -32.5393 49.9203 2.4107 
-32.5393 49.7857 2.78136 -23.9825 52.3412 2.4107 -23.9825 49.7857 10.6751 
-15.4257 53.4831 2.4107 -6.86885 53.9603 2.4107 1.68795 53.3539 2.4107 
12.6407 49.7857 2.4107 10.2448 51.1017 2.4107 -23.9825 -46.2531 10.9675 
-15.4257 -47.3326 10.9675 -6.86885 -46.219 10.9675 -41.0961 -36.7244 10.9675 
-30.5835 -44.3391 10.9675 -32.5393 -43.5871 10.9675 -23.9825 -44.3391 13.0313 
-15.4257 -44.3391 14.5634 -2.12043 -44.3391 10.9675 -6.86885 -44.3391 13.4692 
1.68795 -42.8381 10.9675 10.2448 -37.4356 10.9675 -42.0192 -35.7823 10.9675 
-41.0961 -35.7823 11.8107 -32.5393 -35.7823 16.4968 -23.9825 -35.7823 18.6578 
12.2441 -35.7823 10.9675 10.2448 -35.7823 13.9289 18.8016 -30.8151 10.9675 
-48.9186 -27.2255 10.9675 -49.6529 -25.3692 10.9675 -41.0961 -27.2255 16.9383 
23.7041 -27.2255 10.9675 18.8016 -27.2255 16.8136 27.3584 -24.8062 10.9675 
35.9152 -21.6971 10.9675 44.472 -19.2881 10.9675 -51.7743 -18.6687 10.9675 
-49.6529 -18.6687 13.7078 35.9152 -18.6687 16.4612 45.9841 -18.6687 10.9675 
44.472 -18.6687 11.7493 53.0288 -14.6486 10.9675 -53.3795 -10.1119 10.9675 
-49.6529 -10.1119 14.9178 -41.0961 -10.1119 19.3677 44.472 -10.1119 18.5122 
58.2836 -10.1119 10.9675 53.0288 -10.1119 14.3603 61.5856 -3.58229 10.9675 
-54.3834 -1.55513 10.9675 -49.6529 -1.55513 15.207 -41.0961 -1.55513 19.0828 
44.472 -1.55513 19.3173 53.0288 -1.55513 16.0702 62.3096 -1.55513 10.9675 
61.5856 -1.55513 11.5342 -54.227 7.00168 10.9675 -49.6529 7.00168 14.8847 
-41.0961 7.00168 18.6814 -6.86885 7.00168 19.3109 44.472 7.00168 18.5851 
53.0288 15.5166 10.9675 53.0288 7.00168 16.4272 61.6392 7.00168 10.9675 
61.5856 7.07441 10.9675 61.5856 7.00168 11.0114 -53.2702 15.5585 10.9675 
-49.6529 15.5585 14.0364 -41.0961 15.5585 19.1287 35.9152 15.5585 18.3545 
52.9931 15.5585 10.9675 44.472 23.2222 10.9675 44.472 15.5585 16.2048 
-50.7914 24.1153 10.9675 -49.6529 27.0595 10.9675 -49.6529 24.1153 12.1682 
-41.0961 24.1153 17.3173 27.3584 24.1153 18.7536 43.4363 24.1153 10.9675 
35.9152 29.7635 10.9675 35.9152 24.1153 16.2021 -46.6305 32.6721 10.9675 
[...]
POINT_DATA 522
SCALARS ImageScalars float
LOOKUP_TABLE default
0 0 0 0 0 0 0 0 0 
0 0 0 0 0 0 0 0 0 
0 0 0 0 0 0 0 0 0 
0 0 0 0 0 0 0 0 0 
0 0 0 0 0 0 0 0 0 
0 0 0 0 0 0 0 0 0 
0 0 0 0 0 0 0 0 0 
0 0 0 0 0 0 0 0 0 
0 0 0 0 0 0 0 0 0 
0 0 0 0 0 0 0 0 0 
0 0 0 0 0 0 0 0 0 
0 0 0 0 0 0 0 0 0 
0 0 0 0 0 0 0 0 0 
0 0 0 0 0 0 0 0 0 
0 0 0 0 0 0 0 0 0 
0 0 0 0 0 0 0 0 0 
0 0 0 0 0 0 0 0 0 
0 0 0 0 0 0 0 0 0 
0 0 0 0 0 0 0 0 0 
0 0 0 0 0 0 0 0 0 
0 0 0 0 0 0 0 0 0 
0 0 0 0 0 0 0 0 0 
0 0 0 0 0 0 0 0 0 
0 0 0 0 0 0 0 0 0 
0 0 0 0 0 0 0 0 0 
0 0 0 0 0 0 0 0 0 
0 0 0 0 0 0 0 0 0 
0 0 0 0 0 0 0 0 0 
0 0 0 0 0 0 0 0 0 
0 0 0 0 0 0 0 0 0 
0 0 0 0 0 0 0 0 0 
0 0 0 0 0 0 0 0 0 
0 0 0 0 0 0 0 0 0 
0 0 0 0 0 0 0 0 0 
0 0 0 0 0 0 0 0 0 
0 0 0 0 0 0 0 0 0 
0 0 0 0 0 0 0 0 0 
0 0 0 0 0 0 0 0 0 
0 0 0 0 0 0 0 0 0 
0 0 0 0 0 0 0 0 0 
0 0 0 0 0 0 0 0 0 
0 0 0 0 0 0 0 0 0 
0 0 0 0 0 0 0 0 0 
0 0 0 0 0 0 0 0 0 
0 0 0 0 0 0 0 0 0 
0 0 0 0 0 0 0 0 0 
0 0 0 0 0 0 0 0 0 
0 0 0 0 0 0 0 0 0 
0 0 0 0 0 0 0 0 0 
0 0 0 0 0 0 0 0 0 
0 0 0 0 0 0 0 0 0 
0 0 0 0 0 0 0 0 0 
0 0 0 0 0 0 0 0 0 
0 0 0 0 0 0 0 0 0 
0 0 0 0 0 0 0 0 0 
0 0 0 0 0 0 0 0 0 
0 0 0 0 0 0 0 0 0 
0 0 0 0 0 0 0 0 0 

NORMALS Normals float
0.0478028 0.0984397 0.993994 -0.185711 0.122803 0.9749 0.262002 0.478299 0.838203 
0.0566006 0.485701 0.87229 -0.117897 0.533378 0.837621 -0.347242 0.697473 0.626861 
0.338197 0.249107 0.907507 0.187806 0.152015 0.970371 0.0813099 0.163155 0.983244 
-0.0503461 0.172928 0.983647 -0.12873 0.294912 0.946813 -0.381511 0.469919 0.796006 
0.460857 0.211396 0.86193 0.230862 0.0987501 0.967962 0.159122 0.035585 0.986617 
0.0840051 -0.0825646 0.993039 0.020281 -0.0134694 0.999704 -0.0676536 0.071781 0.995123 
-0.169246 0.0877168 0.981663 -0.196471 0.331211 0.922875 -0.238066 0.654774 0.717353 
-0.23143 0.84223 0.486918 0.41917 0.119967 0.899947 0.14867 0.0890428 0.98487 
0.0123764 0.0211933 0.999699 0.033644 -0.12037 0.992159 0.107741 -0.0744442 0.991388 
-0.0248797 0.00224917 0.999688 -0.122032 -0.0481255 0.991359 -0.00110837 0.0110105 0.999939 
0.0948799 0.186055 0.977947 0.0135352 0.370844 0.928596 0.0368724 0.119297 0.992174 
-0.122753 0.431443 0.89375 -0.188636 0.182285 0.964981 -0.255351 0.663661 0.703101 
-0.523994 0.686351 0.504334 0.331893 0.0907005 0.938946 0.128923 0.0679243 0.989326 
-0.0444952 0.0460917 0.997946 -0.0135396 0.0660948 0.997721 0.142892 -0.0232976 0.989464 
-0.0400992 -0.175945 0.983583 -0.162516 0.00176022 0.986704 0.0682359 -0.0449376 0.996657 
0.190444 0.00143762 0.981697 0.0776666 0.0705716 0.994479 0.130527 0.0190938 0.991261 
0.0377154 0.0152602 0.999172 -0.217597 0.121326 0.968469 -0.189033 0.0235167 0.981689 
-0.487542 0.1633 0.857692 0.60966 0.0770779 0.788907 0.327698 0.0180483 0.94461 
0.107786 -0.027531 0.993793 0.00614489 -0.101711 0.994795 -0.0312252 -0.0480885 0.998355 
-0.153442 0.000717337 0.988157 0.00221787 -0.285972 0.958235 0.0264805 0.0193933 0.999461 
0.00240536 -0.0998173 0.995003 0.164274 -0.161614 0.973085 0.113762 -0.173236 0.978288 
0.00996377 -0.172894 0.98489 -0.18352 -0.160155 0.969882 -0.380126 -0.148788 0.912889 
0.54872 -0.0697538 0.833091 0.239109 -0.10551 0.965243 0.00981455 -0.227049 0.973834 
-0.0872182 -0.278405 0.956496 0.0593826 -0.402811 0.913355 -0.0707846 -0.194212 0.978402 
0.0245248 -0.0364823 0.999033 0.00802421 -0.177792 0.984035 -0.160505 -0.379847 0.911019 
0.106503 -0.441574 0.890881 0.111107 -0.445755 0.888233 0.0361974 -0.483225 0.874748 
-0.169635 -0.512582 0.841715 -0.394583 -0.575839 0.71604 0.19319 -0.20634 0.959219 
-0.041191 -0.202975 0.978317 -0.127849 -0.176071 0.97604 0.0336066 -0.0964538 0.99477 
0.164064 -0.187273 0.96851 0.00965025 -0.0350036 0.999341 -0.283277 -0.25727 0.923887 
0.267481 -0.280881 0.921716 0.0305017 -0.202193 0.978871 -0.0194125 -0.0707907 0.997302 
0.0495847 0.0228974 0.998507 0.0636282 -0.119213 0.990828 -0.0417162 -0.169008 0.984731 
-0.335335 -0.238714 0.911354 0.100183 -0.16571 0.981073 -0.00603633 -0.154348 0.987998 
-0.0478369 -0.246144 0.968052 -0.101109 -0.3073 0.946226 0.247723 0.657019 0.71201 
0.0398621 0.748687 0.661724 -0.0427301 0.985524 0.164064 -0.191078 0.78078 0.594872 
-0.375602 0.775972 0.506744 0.400395 0.519846 0.754615 0.418788 0.489226 0.765032 
0.436583 0.549732 0.712173 -0.436402 0.758674 0.483701 -0.514213 0.713792 0.475485 
0.477654 0.3616 0.800683 0.504435 0.321997 0.801164 0.565648 0.416694 0.711624 
-0.504775 0.726668 0.466 -0.482169 0.723219 0.494437 -0.346264 0.820756 0.454381 
-0.248672 0.865935 0.433957 0.560829 0.205559 0.802008 0.849828 0.271397 0.451814 
-0.245948 0.879473 0.407475 -0.236192 0.903122 0.358587 -0.354568 0.819433 0.450345 
-0.518994 0.737002 0.432981 0.559582 0.175232 0.810038 0.747822 0.238001 0.619772 
-0.566015 0.699093 0.436916 0.594228 0.166072 0.786965 0.61937 0.127348 0.774702 
0.641704 0.174791 0.746769 -0.793072 0.343792 0.502836 -0.89568 0.42463 0.132083 
0.633457 0.0785141 0.769784 -0.806126 -0.0588962 0.588806 -0.824933 -0.0527687 0.562762 
0.596764 -0.0562452 0.800443 0.517422 -0.170818 0.838508 -0.246026 -0.404257 0.880936 
0.0697499 -0.549391 0.832649 0.0342485 -0.638014 0.769263 -0.0187836 -0.68153 0.731549 
-0.163581 -0.724298 0.669801 -0.468902 -0.581229 0.665059 -0.395607 -0.611148 0.68556 
-0.792058 -0.562494 0.237158 0.431205 -0.234769 0.871175 0.508224 -0.24571 0.82543 
-0.319848 -0.334317 0.886527 -0.283822 -0.395596 0.87347 0.03169 -0.618887 0.78484 
0.00337595 -0.681105 0.732178 -0.0550302 -0.73501 0.675819 -0.176367 -0.821432 0.54235 
-0.581077 -0.762057 0.285688 0.332319 -0.281581 0.900154 0.628776 -0.307583 0.714166 
0.270694 -0.303449 0.913588 0.137474 -0.258054 0.9563 -0.41645 -0.245704 0.875328 
-0.355305 -0.304201 0.883866 -0.553885 -0.248688 0.794585 0.739773 -0.502268 0.44773 
0.328866 -0.410281 0.850598 0.147445 -0.230764 0.961773 0.190343 -0.285498 0.939287 
0.107632 -0.246278 0.963204 -0.0175178 -0.251714 0.967643 -0.0596193 -0.293708 0.954034 
-0.124823 -0.312221 0.941773 -0.103302 -0.312161 0.944396 -0.369826 -0.347109 0.861826 
-0.601331 -0.23327 0.76419 0.301732 -0.491394 0.817001 0.116929 -0.429985 0.895232 
-0.0433245 -0.439938 0.896982 -0.0929134 -0.475525 0.874782 -0.156478 -0.504369 0.849192 
-0.339226 -0.519086 0.784522 -0.0524288 0.996573 0.0639827 0.459048 0.871606 0.171983 
0.172702 0.979063 0.107747 0.195385 0.974216 0.112819 -0.137457 0.989443 0.0459165 
-0.0670743 0.995863 -0.0612998 -0.292827 0.955938 0.0208255 -0.482783 0.875464 -0.0219959 
0.682796 0.698111 0.215476 0.68489 0.695747 0.216477 -0.555886 0.830001 -0.0457081 
-0.581919 0.811913 -0.0465549 0.828759 0.489868 0.270531 0.868377 0.359252 0.341848 
-0.585513 0.804474 -0.0999788 -0.584697 0.805041 -0.100193 -0.387788 0.909229 -0.151403 
-0.241484 0.961715 -0.129577 0.874491 0.293814 0.385926 -0.363575 0.870572 -0.331537 
-0.22368 0.968073 -0.113142 -0.214553 0.946474 -0.241151 -0.21871 0.970911 -0.0974599 
-0.319375 0.939318 -0.125224 -0.51331 0.854696 -0.077502 0.887334 0.24619 0.389908 
-0.667945 0.742444 -0.0512585 -0.460864 0.774562 -0.433195 -0.88409 0.462144 -0.0693372 
0.921954 0.182978 0.341349 -0.894148 0.442018 -0.0715554 -0.888229 0.435621 -0.145886 
0.926692 0.107068 0.360248 -0.999753 -0.00691372 0.021109 -0.874125 0.0522184 -0.482886 
0.942085 0.0102127 0.335219 0.991098 -0.00257907 -0.133108 -0.851568 -0.523015 0.0358817 
-0.821085 -0.568903 0.0465726 -0.85618 -0.490895 -0.161177 0.91295 -0.176683 0.367838 
-0.155801 -0.538285 0.828236 -0.0856678 -0.758379 0.64616 -0.197445 -0.83223 0.518081 
-0.220109 -0.898586 0.379599 -0.597702 -0.763928 0.243241 -0.578635 -0.778224 0.244025 
-0.634153 -0.771762 -0.047265 0.815145 -0.358999 0.454596 -0.310894 -0.437398 0.843817 
-0.218227 -0.535179 0.816064 -0.18091 -0.797091 0.576123 0.765369 -0.507583 0.395689 
0.750309 -0.526235 0.400142 0.562823 -0.674392 0.47794 -0.602084 -0.256465 0.756122 
-0.602371 -0.303557 0.738243 -0.628341 -0.549908 0.550262 0.559808 -0.675946 0.479284 
0.574714 -0.688443 0.442437 0.341711 -0.788658 0.511127 0.0771837 -0.84832 0.523829 
-0.00171882 -0.805958 0.59197 -0.0854427 -0.742891 0.663937 -0.143633 -0.697589 0.701954 
-0.484798 -0.498091 0.718941 -0.339444 -0.634302 0.694578 -0.625626 -0.531466 0.571083 
0.396781 -0.916824 -0.0446963 0.103373 -0.905707 0.411108 0.00753364 -0.831507 0.555463 
-0.0759439 -0.79596 0.600566 -0.151052 -0.829706 0.537374 -0.389605 -0.860439 0.32841 
0.433919 0.858433 -0.27351 0.138555 0.938146 -0.317307 -0.0873511 0.942685 -0.322048 
-0.310244 0.906186 -0.28736 -0.474722 0.840042 -0.262617 0.587556 0.763248 -0.268759 
0.628934 0.734362 -0.255254 0.379332 0.708826 -0.594704 -0.508104 0.822828 -0.254528 
-0.443739 0.837602 -0.318619 -0.602468 0.76284 -0.234749 0.792261 0.579178 -0.192028 
0.861655 0.487515 -0.140996 -0.61144 0.754794 -0.237543 -0.592259 0.768434 -0.24236 
0.923308 0.375479 -0.0807339 0.801321 0.39298 -0.451056 -0.37015 0.866517 -0.33487 
-0.36258 0.869187 -0.336228 -0.173386 0.913489 -0.368068 -0.228685 0.908661 -0.34934 
-0.318343 0.854003 -0.411504 0.967903 0.242331 -0.0666332 -0.397699 0.777349 -0.487406 
-0.355628 0.795056 -0.49134 -0.464763 0.709665 -0.529501 0.97987 0.171589 -0.102038 
-0.774467 0.398092 -0.491653 -0.560933 0.425674 -0.710039 0.991133 0.0917848 -0.0960755 
0.989812 0.00108263 -0.142379 -0.853782 0.0546534 -0.517755 0.989512 -0.00291545 -0.144419 
0.989463 -0.00795066 -0.144566 0.989281 -0.00307141 -0.145989 -0.820053 -0.400974 -0.408329 
-0.637682 -0.718852 -0.276794 0.978121 -0.146334 -0.147869 -0.403978 -0.905846 0.127459 
-0.623635 -0.735135 -0.265812 -0.476777 -0.876029 -0.0725009 -0.543544 -0.542923 -0.640152 
0.931287 -0.339324 -0.13253 -0.404095 -0.905702 0.128106 -0.501818 -0.790631 0.35083 
0.84171 -0.527332 -0.115952 0.80963 -0.57622 -0.111671 0.78672 -0.509975 -0.347846 
-0.62392 -0.648627 0.435898 -0.678507 -0.604404 0.41752 0.698261 -0.713556 -0.0571821 
0.615499 -0.786369 -0.0527719 0.572578 -0.655291 -0.492694 -0.708589 -0.633976 0.309801 
-0.617245 -0.743882 0.256217 0.404365 -0.910497 -0.0865065 0.39858 -0.913131 -0.0855882 
0.402173 -0.909362 -0.106386 0.207469 -0.978089 0.0172812 0.255014 -0.818079 -0.515475 
0.0927667 -0.991991 0.0857253 -0.00760154 -0.984597 0.174674 -0.162473 -0.964811 0.206741 
-0.453981 -0.869597 0.19417 -0.394494 -0.900325 0.18382 0.166338 0.743001 -0.648291 
-0.00380221 0.811475 -0.584374 -0.227574 0.836284 -0.498837 0.551756 0.58866 -0.5908 
0.322093 0.699676 -0.637738 0.367822 0.677078 -0.637395 0.179467 0.690178 -0.701032 
0.026742 0.709253 -0.704446 -0.32363 0.835439 -0.444191 -0.197714 0.78706 -0.584334 
-0.401478 0.825468 -0.396759 -0.558928 0.767073 -0.314959 0.567472 0.573621 -0.590707 
0.542669 0.564025 -0.622404 0.312014 0.456721 -0.833098 0.186701 0.373141 -0.908795 
-0.577395 0.76186 -0.293572 -0.534381 0.729018 -0.42775 -0.587733 0.760066 -0.277255 
0.744923 0.388578 -0.542307 0.770618 0.353073 -0.530554 0.430187 0.345683 -0.833932 
-0.506155 0.809304 -0.29805 -0.479566 0.631023 -0.609776 -0.432328 0.845743 -0.312747 
-0.28376 0.861203 -0.421674 -0.289404 0.773299 -0.56414 0.820793 0.222263 -0.526212 
0.736625 0.204707 -0.644576 -0.335997 0.715828 -0.612124 -0.308807 0.756027 -0.577115 
-0.300678 0.75103 -0.587833 -0.441528 0.583448 -0.681646 0.816905 0.126837 -0.562652 
0.667386 0.0629805 -0.742044 0.296233 -0.0329348 -0.954548 -0.347493 0.295452 -0.889919 
-0.500976 0.412728 -0.76071 -0.465266 0.367371 -0.805336 -0.578925 0.166387 -0.798224 
0.791609 0.043023 -0.609512 0.590451 -0.00341265 -0.807066 0.270635 -0.0393789 -0.961876 
-0.282153 0.00242791 -0.959366 -0.41153 0.0897052 -0.906971 -0.602527 0.0862667 -0.793423 
-0.585806 0.0921818 -0.805192 0.76344 -0.048757 -0.644035 0.570134 -0.0592671 -0.819411 
0.275607 -0.00109464 -0.96127 0.12928 -0.0727854 -0.988933 -0.182932 -0.168037 -0.968659 
-0.542898 -0.540397 -0.642832 -0.399412 -0.224922 -0.888752 -0.596152 -0.29076 -0.748372 
-0.595284 -0.293538 -0.747979 -0.594999 -0.290409 -0.749426 0.720827 -0.151901 -0.676265 
0.599581 -0.119671 -0.791316 0.309486 -0.0643908 -0.948721 -0.199231 -0.202807 -0.958737 
-0.542995 -0.541043 -0.642207 -0.550163 -0.699321 -0.456367 -0.378231 -0.410198 -0.829867 
0.700754 -0.268511 -0.660943 0.690279 -0.325911 -0.645985 0.662592 -0.252116 -0.705273 
0.352722 -0.25061 -0.901544 -0.185039 -0.215565 -0.958797 -0.552321 -0.716242 -0.426542 
-0.61347 -0.733231 -0.293302 -0.435996 -0.467488 -0.769001 0.624926 -0.424475 -0.655201 
0.521814 -0.560729 -0.642879 0.449834 -0.354232 -0.819859 0.257568 -0.234478 -0.937379 
0.099773 -0.202092 -0.974271 -0.119928 -0.123742 -0.985041 -0.186013 -0.261751 -0.94704 
-0.64454 -0.720993 -0.254435 -0.659211 -0.693672 -0.290277 -0.48755 -0.547123 -0.680405 
0.499137 -0.599773 -0.625408 0.409173 -0.660424 -0.629618 0.352929 -0.538974 -0.764819 
0.255633 -0.803802 -0.537172 0.205204 -0.411536 -0.887992 0.111241 -0.347857 -0.930925 
0.0049264 -0.296236 -0.955102 -0.0745609 -0.298399 -0.951524 -0.226909 -0.381002 -0.896298 
-0.616069 -0.697898 -0.365237 -0.54332 -0.748545 -0.380111 -0.483337 -0.570116 -0.664344 
0.250451 -0.8075 -0.534058 0.178354 -0.830143 -0.528254 0.171441 -0.768017 -0.617056 
0.0567654 -0.890434 -0.451558 0.0609424 -0.731735 -0.678859 -0.151066 -0.883805 -0.442795 
-0.144716 -0.764938 -0.627636 -0.363324 -0.824996 -0.43287 -0.348178 -0.827988 -0.439555 
-0.344361 -0.817079 -0.462383 0.0948762 0.396375 -0.913173 -0.0262871 0.456861 -0.889149 
-0.21781 0.572487 -0.790454 0.213416 0.234957 -0.948287 0.136062 0.358655 -0.923501 
0.173756 0.287148 -0.941995 0.0995458 0.350476 -0.931266 0.00381422 0.384877 -0.92296 
-0.255802 0.570036 -0.780784 -0.20123 0.537438 -0.818942 -0.357389 0.467766 -0.808374 
0.216974 0.232995 -0.947964 0.30816 0.135835 -0.941587 0.211331 0.229671 -0.950048 
0.143071 0.156125 -0.977321 0.082895 0.0647823 -0.99445 0.0551204 0.0478486 -0.997333 
-0.0661917 0.14147 -0.987727 -0.357725 0.452571 -0.816831 -0.28487 0.318143 -0.904231 
-0.313899 0.447064 -0.837617 -0.257112 0.555143 -0.791018 0.315282 0.124989 -0.940731 
0.29916 0.0438444 -0.953195 0.30166 0.121872 -0.945594 0.112565 0.0815313 -0.990294 
0.0230193 0.0286564 -0.999324 -0.00785438 -0.0777686 -0.99694 0.0833489 -0.11568 -0.989783 
0.0611891 -0.0491664 -0.996915 -0.0581468 0.0427862 -0.997391 -0.131646 0.255123 -0.957905 
-0.269031 0.560686 -0.783105 -0.223687 0.511326 -0.829765 -0.311618 0.440494 -0.841938 
0.278955 -0.0334896 -0.95972 0.116152 -0.0214601 -0.993 -0.0170783 -0.0627291 -0.997884 
-0.0557362 -0.0548436 -0.996938 0.0784555 -0.0311525 -0.996431 0.0924672 -0.0869982 -0.991908 
0.0307834 -0.100991 -0.994411 0.0482186 -0.0265549 -0.998484 -0.0765866 0.0764612 -0.994127 
-0.308894 0.244276 -0.919192 -0.241258 0.163755 -0.956545 0.211914 -0.0431526 -0.976335 
0.0792038 -0.0511929 -0.995543 -0.0100048 -0.070354 -0.997472 0.0231474 -0.0751052 -0.996907 
0.118995 -0.0723498 -0.990255 0.0491585 -0.0674327 -0.996512 -0.00394314 -0.0205018 -0.999782 
-0.00121744 -0.0236383 -0.99972 0.0565167 -0.151949 -0.986771 -0.005471 -0.15601 -0.98774 
-0.266437 -0.00591967 -0.963834 -0.139277 -0.0769794 -0.987257 0.173245 -0.00793913 -0.984847 
0.0895361 -0.0200032 -0.995783 -0.0405703 -0.000813753 -0.999176 -0.0465229 -0.0250107 -0.998604 
-0.0546432 -0.0227748 -0.998246 0.131052 -0.0686647 -0.988995 0.0753997 0.0279976 -0.99676 
0.141626 -0.0227993 -0.989658 -0.105045 -0.00645311 -0.994447 -0.0868171 -0.06369 -0.994186 
0.000526267 -0.115902 -0.993261 -0.120509 -0.162379 -0.979342 -0.119489 -0.168337 -0.97846 
-0.0859705 -0.158704 -0.983576 0.229121 -0.052281 -0.971993 0.0761362 -0.0319987 -0.996584 
-0.0126119 0.0135884 -0.999828 -0.0489212 0.0563025 -0.997214 0.0495556 0.0749326 -0.995956 
0.0640138 -0.08206 -0.994569 -0.0455859 -0.108765 -0.993022 -0.0543736 -0.0257249 -0.998189 
-0.117288 -0.0956394 -0.988482 -0.119095 -0.106307 -0.987175 -0.102481 -0.076818 -0.991764 
0.179802 -0.115642 -0.976882 0.178865 -0.117752 -0.976802 0.170262 -0.107604 -0.979506 
0.0908965 -0.180659 -0.979337 0.0474389 -0.0624402 -0.996921 0.00688926 0.00485056 -0.999964 
-0.00424887 0.0519534 -0.99864 -0.0451984 -0.0323284 -0.998455 -0.0791639 -0.103603 -0.991463 
-0.044818 -0.0886755 -0.995052 -0.0750385 -0.125654 -0.989232 -0.0665131 -0.123814 -0.990074 
-0.0579029 -0.112729 -0.991937 0.0906844 -0.174802 -0.980419 0.0871901 -0.208757 -0.974073 
0.0656277 -0.0901881 -0.99376 0.00412428 -0.213422 -0.976951 0.0131039 -0.0952666 -0.995366 
-0.106492 -0.110568 -0.988147 -0.0745602 -0.20039 -0.976875 -0.0788051 -0.0852809 -0.993236 

