# vtk DataFile Version 4.2
vtk output
ASCII
DATASET POLYDATA
POINTS 566 float
42.7662 23.4152 -21.8196 9.56019 -34.6954 -14.4076 17.8617 -34.6954 -13.6029 
-40.2488 -26.3939 -13.3226 -31.9473 -26.3939 -13.6139 1.25869 -26.3939 -16.4101 
9.56019 -26.3939 -18.2456 17.8617 -26.3939 -17.9697 26.1632 -26.3939 -16.7247 
34.4647 -26.3939 -15.1246 -48.5504 -18.0923 -15.9501 -40.2488 -18.0923 -16.7548 
-31.9473 -18.0923 -16.4194 -23.6458 -18.0923 -15.8307 -15.3443 -18.0923 -14.3123 
-7.04282 -18.0923 -14.8805 1.25869 -18.0923 -17.8525 9.56019 -18.0923 -18.8992 
17.8617 -18.0923 -19.0071 26.1632 -18.0923 -18.3262 34.4647 -18.0923 -17.743 
42.7662 -18.0923 -17.1061 51.0677 -18.0923 -16.1795 -65.1534 -9.79084 -13.7113 
-56.8519 -9.79084 -16.7911 -48.5504 -9.79084 -17.7143 -40.2488 -9.79084 -18.2933 
-31.9473 -9.79084 -18.0136 -23.6458 -9.79084 -16.8799 -15.3443 -9.79084 -15.7767 
-7.04282 -9.79084 -18.5293 1.25869 -9.79084 -17.011 9.56019 -9.79084 -18.4044 
17.8617 -9.79084 -17.7981 26.1632 -9.79084 -18.1799 34.4647 -9.79084 -18.5707 
42.7662 -9.79084 -18.8414 51.0677 -9.79084 -17.884 59.3692 -9.79084 -16.4645 
-65.1534 -1.48933 -15.2897 -56.8519 -1.48933 -18.7875 -48.5504 -1.48933 -19.2256 
-40.2488 -1.48933 -19.0832 -31.9473 -1.48933 -18.1589 -23.6458 -1.48933 -16.7338 
-15.3443 -1.48933 -16.0971 -7.04282 -1.48933 -20.9375 1.25869 -1.48933 -15.1242 
9.56019 -1.48933 -20.72 17.8617 -1.48933 -15.8601 26.1632 -1.48933 -17.5031 
34.4647 -1.48933 -19.1529 42.7662 -1.48933 -19.4152 51.0677 -1.48933 -19.3981 
59.3692 -1.48933 -19.1935 67.6707 -1.48933 -14.2574 -65.1534 6.81218 -13.5201 
-56.8519 6.81218 -17.9662 -48.5504 6.81218 -19.9303 -40.2488 6.81218 -19.7892 
-31.9473 6.81218 -19.2541 -23.6458 6.81218 -17.7081 -15.3443 6.81218 -17.0743 
-7.04282 6.81218 -19.7723 1.25869 6.81218 -16.7009 9.56019 6.81218 -20.3951 
17.8617 6.81218 -17.674 26.1632 6.81218 -18.4797 34.4647 6.81218 -19.5167 
42.7662 6.81218 -20.3557 51.0677 6.81218 -20.8068 59.3692 6.81218 -19.3481 
67.6707 6.81218 -16.5746 -65.1534 15.1137 -14.0682 -56.8519 15.1137 -19.0308 
-48.5504 15.1137 -19.7275 -40.2488 15.1137 -20.035 -31.9473 15.1137 -19.5393 
-23.6458 15.1137 -18.9974 -15.3443 15.1137 -17.9516 -7.04282 15.1137 -19.8717 
1.25869 15.1137 -19.8404 9.56019 15.1137 -18.6631 17.8617 15.1137 -19.2451 
26.1632 15.1137 -20.391 34.4647 15.1137 -21.5129 42.7662 21.1536 -21.5777 
42.7662 15.1137 -20.7852 51.0677 15.1137 -19.9484 59.3692 15.1137 -19.1096 
67.6707 15.1137 -14.814 -56.8519 23.4152 -14.8765 -48.5504 23.4152 -18.2284 
-40.2488 23.4152 -19.9183 -31.9473 23.4152 -18.8172 -23.6458 23.4152 -18.3112 
-15.3443 23.4152 -17.8022 -7.04282 23.4152 -19.8281 1.25869 23.4152 -20.4912 
9.56019 23.4152 -18.9049 17.8617 23.4152 -19.1171 26.1632 23.4152 -19.8338 
40.8275 23.4152 -21.5777 34.4647 23.4152 -20.5759 43.5512 23.4152 -21.5777 
42.7662 23.9907 -21.5777 51.0677 23.4152 -18.4266 59.3692 23.4152 -16.1317 
-48.5504 31.7167 -13.988 -40.2488 31.7167 -16.0513 -31.9473 31.7167 -16.787 
-23.6458 31.7167 -16.2848 -15.3443 31.7167 -16.2229 -7.04282 31.7167 -17.6358 
1.25869 31.7167 -18.6626 9.56019 31.7167 -17.5604 17.8617 31.7167 -17.4105 
26.1632 31.7167 -17.852 34.4647 31.7167 -18.2875 42.7662 31.7167 -17.2005 
51.0677 31.7167 -14.201 9.56019 -35.9948 -13.2762 17.8617 -35.0853 -13.2762 
-40.2488 -26.4614 -13.2762 -40.2488 -34.6954 -5.24374 -31.9473 -26.9325 -13.2762 
-31.9473 -34.6954 -6.58549 -23.6458 -34.6954 -6.45935 -15.3443 -34.6954 -6.3083 
-7.04282 -34.6954 -7.41962 6.27037 -34.6954 -13.2762 1.25869 -31.7657 -13.2762 
1.25869 -34.6954 -11.104 19.5411 -34.6954 -13.2762 26.1632 -32.6374 -13.2762 
26.1632 -34.6954 -11.5116 34.4647 -29.0575 -13.2762 34.4647 -34.6954 -7.54777 
-56.8519 -26.3939 -7.11036 -40.4489 -26.3939 -13.2762 -48.5504 -23.1673 -13.2762 
-48.5504 -26.3939 -10.8261 -30.0112 -26.3939 -13.2762 -23.6458 -23.858 -13.2762 
-23.6458 -26.3939 -12.1017 -15.3443 -20.9813 -13.2762 -15.3443 -26.3939 -11.3851 
-5.43547 -26.3939 -13.2762 -7.04282 -23.7684 -13.2762 -7.04282 -26.3939 -12.5514 
42.5087 -26.3939 -13.2762 42.7662 -26.2743 -13.2762 42.7662 -26.3939 -13.2044 
51.0677 -22.3529 -13.2762 51.0677 -26.3939 -10.155 59.3692 -26.3939 -5.40754 
-65.1534 -10.7217 -13.2762 -65.1534 -18.0923 -7.65014 -55.6398 -18.0923 -13.2762 
-56.8519 -16.9099 -13.2762 -56.8519 -18.0923 -12.696 57.8491 -18.0923 -13.2762 
59.3692 -16.7832 -13.2762 59.3692 -18.0923 -12.5663 67.6707 -18.0923 -7.60991 
-65.7192 -9.79084 -13.2762 67.3988 -9.79084 -13.2762 67.6707 -8.98792 -13.2762 
67.6707 -9.79084 -13.1502 -67.7893 -1.48933 -13.2762 -73.4549 -1.48933 -5.59084 
69.1074 -1.48933 -13.2762 75.9722 -1.48933 -6.07636 -65.4799 6.81218 -13.2762 
71.3889 6.81218 -13.2762 75.9722 6.81218 -6.76605 -66.0151 15.1137 -13.2762 
-65.1534 16.6749 -13.2762 69.5513 15.1137 -13.2762 67.6707 18.5286 -13.2762 
-59.2017 23.4152 -13.2762 -56.8519 25.9706 -13.2762 63.5808 23.4152 -13.2762 
59.3692 27.6373 -13.2762 67.6707 23.4152 -6.82769 -49.8646 31.7167 -13.2762 
-48.5504 32.431 -13.2762 -40.2488 35.4017 -13.2762 -31.9473 36.4238 -13.2762 
-23.6458 37.4589 -13.2762 -15.3443 37.7096 -13.2762 -7.04282 38.6577 -13.2762 
1.25869 39.7093 -13.2762 9.56019 39.4578 -13.2762 17.8617 39.4541 -13.2762 
26.1632 38.1737 -13.2762 34.4647 37.0842 -13.2762 42.7662 35.7997 -13.2762 
52.7893 31.7167 -13.2762 51.0677 32.4436 -13.2762 -40.2488 40.0182 -5.27818 
-31.9473 40.0182 -8.9727 -23.6458 40.0182 -10.6189 -15.3443 40.0182 -11.1301 
-7.04282 40.0182 -11.7055 1.25869 40.0182 -12.8058 9.56019 40.0182 -12.4908 
17.8617 40.0182 -12.3304 26.1632 40.0182 -8.63404 -40.2488 -34.897 -4.97472 
-31.9473 -35.9542 -4.97472 -23.6458 -36.0447 -4.97472 -15.3443 -36.1039 -4.97472 
-7.04282 -37.0048 -4.97472 1.25869 -39.5006 -4.97472 9.56019 -41.498 -4.97472 
17.8617 -41.3995 -4.97472 26.1632 -39.2459 -4.97472 34.4647 -36.5163 -4.97472 
-56.8519 -28.0601 -4.97472 -40.94 -34.6954 -4.97472 -48.5504 -32.0602 -4.97472 
-48.5504 -34.6954 2.90877 40.5249 -34.6954 -4.97472 42.7662 -33.9696 -4.97472 
42.7662 -34.6954 -3.0711 51.0677 -30.6009 -4.97472 59.3692 -26.7289 -4.97472 
-59.5095 -26.3939 -4.97472 -65.1534 -21.2616 -4.97472 59.788 -26.3939 -4.97472 
67.6707 -20.3772 -4.97472 -67.4088 -18.0923 -4.97472 69.7805 -18.0923 -4.97472 
-71.6788 -9.79084 -4.97472 -73.4549 -3.29844 -4.97472 74.4436 -9.79084 -4.97472 
75.9722 -4.12993 -4.97472 -73.8477 -1.48933 -4.97472 -73.4549 2.22032 -4.97472 
76.5982 -1.48933 -4.97472 75.9722 -1.48933 0.914553 -72.9111 6.81218 -4.97472 
76.8495 6.81218 -4.97472 75.9722 9.26842 -4.97472 -70.7494 15.1137 -4.97472 
-65.1534 23.4004 -4.97472 73.6735 15.1137 -4.97472 -65.1426 23.4152 -4.97472 
-56.8519 31.2131 -4.97472 59.3692 30.4144 -4.97472 68.4639 23.4152 -4.97472 
67.6707 24.1745 -4.97472 67.6707 23.4152 -3.13813 -56.1951 31.7167 -4.97472 
-48.5504 36.767 -4.97472 34.4647 38.9494 -4.97472 42.7662 37.738 -4.97472 
56.8218 31.7167 -4.97472 51.0677 34.278 -4.97472 51.0677 31.7167 0.622665 
-40.5858 40.0182 -4.97472 -40.2488 40.155 -4.97472 -40.2488 40.0182 -4.40502 
-31.9473 42.1947 -4.97472 -23.6458 43.024 -4.97472 -15.3443 43.1037 -4.97472 
-7.04282 43.4613 -4.97472 1.25869 43.2725 -4.97472 1.25869 40.0182 2.78819 
9.56019 42.8937 -4.97472 9.56019 40.0182 1.21654 17.8617 42.1389 -4.97472 
17.8617 40.0182 -0.899806 30.2218 40.0182 -4.97472 26.1632 40.9919 -4.97472 
26.1632 40.0182 -3.23507 -48.5504 -34.8075 3.32679 -40.2488 -37.8392 3.32679 
-31.9473 -39.3752 3.32679 -23.6458 -40.2733 3.32679 -15.3443 -41.202 3.32679 
-7.04282 -41.2962 3.32679 1.25869 -42.0185 3.32679 9.56019 -42.8982 3.32679 
17.8617 -42.7578 3.32679 26.1632 -41.2818 3.32679 34.4647 -39.1114 3.32679 
42.7662 -36.5787 3.32679 -48.7916 -34.6954 3.32679 -56.8519 -30.4845 3.32679 
-48.5504 -34.6954 4.05964 47.1911 -34.6954 3.32679 42.7662 -34.6954 10.3791 
51.0677 -32.8302 3.32679 59.3692 -28.4398 3.32679 -62.7809 -26.3939 3.32679 
-65.1534 -24.0835 3.32679 61.8835 -26.3939 3.32679 59.3692 -26.3939 7.68739 
67.6707 -21.214 3.32679 -69.5272 -18.0923 3.32679 70.2752 -18.0923 3.32679 
67.6707 -18.0923 7.26054 -72.9113 -9.79084 3.32679 -73.4549 -7.62112 3.32679 
74.8365 -9.79084 3.32679 -74.9911 -1.48933 3.32679 -73.4549 4.1932 3.32679 
-73.4549 -1.48933 6.29007 75.6529 -1.48933 3.32679 75.9722 1.91594 3.32679 
-72.728 6.81218 3.32679 76.3477 6.81218 3.32679 75.9722 7.53211 3.32679 
75.9722 6.81218 3.83131 -69.5965 15.1137 3.32679 -65.1534 20.8713 3.32679 
-65.1534 15.1137 8.74538 71.2706 15.1137 3.32679 67.6707 19.9105 3.32679 
67.6707 15.1137 7.09769 -62.9899 23.4152 3.32679 -56.8519 28.7458 3.32679 
-56.8519 23.4152 10.3716 17.8617 23.4152 10.9713 26.1632 23.4152 11.5762 
51.0677 30.1691 3.32679 51.0677 23.4152 10.3925 63.691 23.4152 3.32679 
59.3692 26.4568 3.32679 59.3692 23.4152 6.40933 -52.9458 31.7167 3.32679 
-48.5504 34.5618 3.32679 -48.5504 31.7167 6.96448 -40.2488 37.6603 3.32679 
-40.2488 31.7167 10.816 -15.3443 31.7167 11.3173 -7.04282 31.7167 10.4078 
1.25869 39.6635 3.32679 1.25869 31.7167 9.47952 9.56019 38.4768 3.32679 
9.56019 31.7167 8.23428 17.8617 36.4066 3.32679 17.8617 31.7167 6.60259 
26.1632 34.7294 3.32679 26.1632 31.7167 5.85757 34.4647 34.1933 3.32679 
34.4647 31.7167 5.97552 46.7496 31.7167 3.32679 42.7662 32.9465 3.32679 
42.7662 31.7167 4.69846 -32.7771 40.0182 3.32679 -31.9473 40.2268 3.32679 
-31.9473 40.0182 3.63369 -23.6458 41.2037 3.32679 -23.6458 40.0182 4.90818 
-15.3443 40.9272 3.32679 -15.3443 40.0182 4.43932 -1.19526 40.0182 3.32679 
-7.04282 40.5983 3.32679 -7.04282 40.0182 4.09634 -40.2488 -36.5167 11.6283 
-31.9473 -38.8392 11.6283 -23.6458 -40.2527 11.6283 -15.3443 -40.7407 11.6283 
-7.04282 -40.6848 11.6283 1.25869 -40.8428 11.6283 9.56019 -40.988 11.6283 
17.8617 -40.3718 11.6283 26.1632 -39.064 11.6283 34.4647 -36.7663 11.6283 
-56.8519 -28.3424 11.6283 -45.1791 -34.6954 11.6283 -48.5504 -33.1856 11.6283 
-40.2488 -34.6954 14.0989 -31.9473 -34.6954 17.6274 -23.6458 -34.6954 18.7451 
-15.3443 -34.6954 19.3996 -7.04282 -34.6954 19.1397 1.25869 -34.6954 18.8968 
[...]
POINT_DATA 566
SCALARS ImageScalars float
LOOKUP_TABLE default
0 0 0 0 0 0 0 0 0 
0 0 0 0 0 0 0 0 0 
0 0 0 0 0 0 0 0 0 
0 0 0 0 0 0 0 0 0 
0 0 0 0 0 0 0 0 0 
0 0 0 0 0 0 0 0 0 
0 0 0 0 0 0 0 0 0 
0 0 0 0 0 0 0 0 0 
0 0 0 0 0 0 0 0 0 
0 0 0 0 0 0 0 0 0 
0 0 0 0 0 0 0 0 0 
0 0 0 0 0 0 0 0 0 
0 0 0 0 0 0 0 0 0 
0 0 0 0 0 0 0 0 0 
0 0 0 0 0 0 0 0 0 
0 0 0 0 0 0 0 0 0 
0 0 0 0 0 0 0 0 0 
0 0 0 0 0 0 0 0 0 
0 0 0 0 0 0 0 0 0 
0 0 0 0 0 0 0 0 0 
0 0 0 0 0 0 0 0 0 
0 0 0 0 0 0 0 0 0 
0 0 0 0 0 0 0 0 0 
0 0 0 0 0 0 0 0 0 
0 0 0 0 0 0 0 0 0 
0 0 0 0 0 0 0 0 0 
0 0 0 0 0 0 0 0 0 
0 0 0 0 0 0 0 0 0 
0 0 0 0 0 0 0 0 0 
0 0 0 0 0 0 0 0 0 
0 0 0 0 0 0 0 0 0 
0 0 0 0 0 0 0 0 0 
0 0 0 0 0 0 0 0 0 
0 0 0 0 0 0 0 0 0 
0 0 0 0 0 0 0 0 0 
0 0 0 0 0 0 0 0 0 
0 0 0 0 0 0 0 0 0 
0 0 0 0 0 0 0 0 0 
0 0 0 0 0 0 0 0 0 
0 0 0 0 0 0 0 0 0 
0 0 0 0 0 0 0 0 0 
0 0 0 0 0 0 0 0 0 
0 0 0 0 0 0 0 0 0 
0 0 0 0 0 0 0 0 0 
0 0 0 0 0 0 0 0 0 
0 0 0 0 0 0 0 0 0 
0 0 0 0 0 0 0 0 0 
0 0 0 0 0 0 0 0 0 
0 0 0 0 0 0 0 0 0 
0 0 0 0 0 0 0 0 0 
0 0 0 0 0 0 0 0 0 
0 0 0 0 0 0 0 0 0 
0 0 0 0 0 0 0 0 0 
0 0 0 0 0 0 0 0 0 
0 0 0 0 0 0 0 0 0 
0 0 0 0 0 0 0 0 0 
0 0 0 0 0 0 0 0 0 
0 0 0 0 0 0 0 0 0 
0 0 0 0 0 0 0 0 0 
0 0 0 0 0 0 0 0 0 
0 0 0 0 0 0 0 0 0 
0 0 0 0 0 0 0 0 0 
0 0 0 0 0 0 0 0 
NORMALS Normals float
-0.105478 -0.179616 0.978066 0.102437 0.603135 0.791034 -0.124674 0.61109 0.781681 
0.127256 0.516105 0.847019 -0.0650971 0.463388 0.883761 0.303391 0.315628 0.899073 
0.0799262 0.239261 0.96766 -0.0865204 0.281952 0.955519 -0.162551 0.344194 0.92472 
-0.187008 0.449414 0.87353 0.194986 0.322798 0.926165 0.0318409 0.292694 0.955676 
-0.0518497 0.256409 0.965177 -0.117968 0.260211 0.958318 -0.0583384 0.257601 0.964489 
0.209085 0.314599 0.925911 0.223238 0.0260323 0.974416 0.0673364 0.00732308 0.997703 
-0.0342052 -0.00659999 0.999393 -0.075296 0.0806025 0.993898 -0.0701267 0.187351 0.979787 
-0.0821923 0.307388 0.948028 -0.236549 0.372399 0.897421 0.530443 0.326983 0.782121 
0.249671 0.30082 0.92042 0.0796705 0.197881 0.976983 0.01658 0.129118 0.991491 
-0.087273 0.102316 0.990916 -0.13047 0.0509513 0.990142 0.0772247 0.098308 0.992155 
0.0815506 0.320205 0.943832 0.00461839 -0.131977 0.991242 0.0488038 0.0663928 0.996599 
-0.0137953 -0.178899 0.983771 0.0444317 -0.0488338 0.997818 0.040434 0.0807664 0.995913 
-0.0376273 0.127881 0.991076 -0.133428 0.168717 0.976592 -0.270868 0.34536 0.898531 
0.524969 0.0161947 0.850967 0.260696 0.0462828 0.964311 0.0135914 0.132338 0.991111 
-0.0634165 0.0893453 0.99398 -0.132074 0.0744497 0.98844 -0.120902 0.0517135 0.991316 
0.199277 0.0848072 0.976267 -0.0258147 0.0748073 0.996864 -0.0255547 -0.0352757 0.999051 
-0.0155219 0.147139 0.988994 -0.112889 0.000869963 0.993607 0.180409 0.0126358 0.98351 
0.117715 0.0585433 0.99132 0.0135763 0.0931273 0.995562 -0.0117546 0.171311 0.985147 
-0.261846 0.145268 0.954114 -0.531123 0.166823 0.83071 0.596943 -0.0868369 0.797571 
0.314094 0.00645778 0.94937 0.124867 0.0301853 0.991714 -0.040208 0.0569459 0.997567 
-0.124235 0.0822981 0.988834 -0.130492 0.132308 0.982581 0.116009 0.105854 0.987591 
-0.0121791 -0.0478113 0.998782 0.0349963 0.279014 0.959649 0.036198 -0.131667 0.990633 
-0.105237 0.195249 0.975091 0.113471 0.178869 0.977308 0.110728 0.130616 0.98523 
0.0758641 0.0815691 0.993776 -0.0781284 0.0332777 0.996388 -0.200574 -0.00289147 0.979674 
-0.536659 0.0196023 0.843571 0.650195 -0.20579 0.731367 0.312472 -0.119055 0.942437 
0.0523178 -0.112476 0.992276 -0.0124311 0.00843939 0.999887 -0.06669 -0.0265349 0.997421 
-0.0963098 0.0356095 0.994714 0.0512469 0.0401021 0.997881 0.117293 0.00289872 0.993093 
-0.0747287 0.20795 0.975281 -0.0325902 -0.0778296 0.996434 0.104086 0.0859977 0.990843 
0.128158 0.0668698 0.989497 0.0255494 0.0687015 0.99731 -0.103443 -0.110916 0.988432 
-0.0875612 0.0832134 0.992677 -0.0905477 -0.134472 0.986772 -0.307665 -0.158829 0.938145 
-0.569872 -0.283666 0.771219 0.504587 -0.449202 0.737299 0.239852 -0.26269 0.934593 
0.0457508 -0.248245 0.967616 -0.0932282 -0.152487 0.983899 -0.0592974 -0.163918 0.98469 
0.0885653 -0.0973919 0.991298 0.160739 -0.125014 0.979048 -0.0570056 -0.0663651 0.996166 
-0.0789507 -0.0634188 0.994859 0.0616537 -0.101355 0.992938 0.0837962 -0.142226 0.986281 
-0.0528162 -0.175568 0.98305 0.120685 -0.158253 0.979995 -0.12195 -0.182067 0.975695 
-0.10755 -0.20147 0.973572 -0.303253 -0.259814 0.916807 -0.439873 -0.462363 0.769891 
0.335231 -0.661158 0.671186 0.126542 -0.523239 0.842738 0.0129491 -0.411766 0.911197 
-0.0291923 -0.357481 0.933464 0.0767303 -0.317144 0.945268 0.137954 -0.373757 0.91721 
-0.00726378 -0.374942 0.92702 -0.0733522 -0.28914 0.954472 0.0182533 -0.356216 0.934225 
0.0469003 -0.444065 0.894766 -0.0385773 -0.521234 0.852542 -0.171357 -0.614425 0.770142 
-0.400885 -0.734136 0.548029 0.103456 0.655943 0.747687 -0.124889 0.625605 0.770079 
0.127478 0.518018 0.845817 0.19048 0.828804 0.526119 -0.0620259 0.481243 0.87439 
0.0495004 0.793731 0.606252 -0.012892 0.730295 0.68301 0.0439765 0.666872 0.743873 
0.21349 0.671447 0.709635 0.201247 0.612157 0.764699 0.337166 0.509823 0.791454 
0.323393 0.646918 0.69059 -0.146183 0.621552 0.769613 -0.219586 0.580466 0.784119 
-0.242831 0.685536 0.686348 -0.213627 0.554398 0.804367 -0.265359 0.803219 0.533313 
0.440711 0.712789 0.545624 0.130359 0.517762 0.845535 0.227889 0.478359 0.84808 
0.257401 0.622977 0.738678 -0.0809465 0.464793 0.881711 -0.127027 0.408181 0.90402 
-0.116471 0.471767 0.873997 -0.0319124 0.309488 0.950368 0.023716 0.410515 0.911545 
0.289581 0.362222 0.885967 0.259115 0.348337 0.900844 0.275704 0.37016 0.887113 
-0.236234 0.532383 0.812873 -0.235878 0.531538 0.813529 -0.238034 0.536097 0.809901 
-0.273551 0.521783 0.80803 -0.312814 0.689856 0.652875 -0.534592 0.737122 0.413356 
0.538937 0.360393 0.761356 0.670074 0.519175 0.530526 0.363165 0.397259 0.842791 
0.370382 0.394183 0.841093 0.399669 0.417588 0.816018 -0.363339 0.451084 0.815173 
-0.36867 0.440545 0.818537 -0.396836 0.476687 0.784405 -0.62496 0.622212 0.471463 
0.550628 0.336364 0.763981 -0.488035 0.292399 0.822389 -0.500276 0.277707 0.820124 
-0.499845 0.292265 0.815314 0.635042 0.0200788 0.772217 0.90753 0.0604102 0.41562 
-0.587997 0.158468 0.793188 -0.945682 0.143112 0.291897 0.610322 -0.0895184 0.787079 
-0.718636 -0.00665758 0.695355 -0.949592 -0.141257 0.279859 0.683059 -0.215798 0.697755 
0.664703 -0.265352 0.698397 -0.659754 -0.303519 0.68746 -0.627856 -0.406605 0.663679 
0.565418 -0.461588 0.683549 0.529181 -0.512514 0.676237 -0.583148 -0.527992 0.617384 
-0.516256 -0.624246 0.586341 -0.711295 -0.692685 0.119362 0.373279 -0.676611 0.634713 
0.345262 -0.691665 0.634345 0.174825 -0.674881 0.716918 0.0863203 -0.646939 0.75764 
0.0500062 -0.587546 0.807644 0.0447368 -0.595916 0.8018 0.0705135 -0.702257 0.708423 
0.0302803 -0.775832 0.630213 -0.0111051 -0.768173 0.640146 -0.0583362 -0.771516 0.633529 
-0.0908706 -0.79331 0.601998 -0.130818 -0.82564 0.548822 -0.227749 -0.84357 0.486333 
-0.440049 -0.753833 0.487947 -0.409274 -0.77556 0.480626 0.311708 -0.943066 0.116041 
0.15945 -0.908061 0.3873 0.0774703 -0.808355 0.583575 0.03777 -0.801886 0.596282 
0.0487985 -0.821018 0.568813 0.0277409 -0.807489 0.58923 -0.0123295 -0.829458 0.558434 
-0.0721333 -0.838465 0.540161 -0.170704 -0.972384 0.159151 0.193302 0.834548 0.515911 
0.0633637 0.829055 0.555565 0.00776406 0.776216 0.63042 0.0469659 0.713002 0.699587 
0.178247 0.762948 0.6214 0.240149 0.86654 0.437535 0.100976 0.935394 0.338884 
-0.119832 0.928659 0.351045 -0.265053 0.879345 0.395601 -0.280103 0.852094 0.44213 
0.457842 0.76631 0.450722 0.206045 0.835335 0.509667 0.327864 0.820213 0.468781 
0.379064 0.922744 0.0696694 -0.29557 0.854253 0.427656 -0.303085 0.850451 0.429967 
-0.317303 0.891185 0.324203 -0.34551 0.834676 0.428881 -0.534722 0.744132 0.400424 
0.519047 0.729785 0.444977 0.689119 0.574808 0.44126 -0.540567 0.741179 0.398047 
-0.633129 0.687165 0.356303 0.742327 0.503052 0.442594 -0.710515 0.611297 0.348546 
0.866233 0.317943 0.385427 0.91262 0.115555 0.392137 -0.86809 0.385226 0.313084 
-0.940766 0.219029 0.258816 0.919954 0.056183 0.387979 0.940455 -0.0428081 0.337212 
-0.962866 0.131428 0.23583 -0.972545 0.103931 -0.208216 0.94874 -0.161136 0.271895 
-0.967709 -0.15326 0.200128 -0.957976 -0.23095 0.170127 0.893599 -0.408118 0.186869 
0.794444 -0.599821 0.0952561 -0.892545 -0.4438 0.0800328 0.79417 -0.600186 0.0952386 
0.610676 -0.791159 0.033797 -0.530046 -0.842211 -0.0986435 -0.719814 -0.69416 0.00312774 
-0.696195 -0.717836 0.00483011 -0.705232 -0.700479 -0.109438 0.596992 -0.801587 0.03254 
0.452651 -0.889371 0.0642343 -0.19462 -0.964937 -0.176124 -0.274237 -0.949502 -0.152445 
-0.474747 -0.872897 -0.112544 -0.382769 -0.919665 -0.0877698 -0.360851 -0.840956 -0.403212 
0.318919 -0.942861 0.096454 0.313878 -0.944241 0.0994457 0.319066 -0.945525 0.0646462 
0.165338 -0.978184 0.125772 0.0577721 -0.991569 0.115988 0.0271201 -0.994102 0.105005 
0.0101995 -0.998082 0.0610578 -0.0345296 -0.999355 -0.00981548 -0.0915839 -0.819633 -0.565521 
-0.0703865 -0.997154 -0.0270051 -0.117439 -0.846349 -0.519521 -0.120805 -0.987572 -0.100535 
-0.153488 -0.895707 -0.417314 -0.194625 -0.966499 -0.167333 -0.184746 -0.972641 -0.140851 
-0.194987 -0.948557 -0.24944 0.37922 0.923806 0.0526812 0.267 0.959405 0.090843 
0.141803 0.9773 0.157407 0.110008 0.969434 0.219306 0.0602976 0.9763 0.207853 
0.0506228 0.982706 0.178117 0.0980768 0.992724 0.0698564 0.0439801 0.998775 -0.0226745 
-0.0942386 0.994503 -0.0456307 -0.213826 0.97686 -0.0047817 -0.287323 0.957618 0.0203444 
-0.338168 0.940951 0.0159342 0.383504 0.922088 0.0517586 0.538432 0.842539 0.0147908 
0.385122 0.922648 0.0200328 -0.379025 0.925386 0.000971866 -0.339484 0.846713 -0.409668 
-0.426238 0.904234 -0.0261312 -0.568286 0.81746 -0.093864 0.663828 0.747629 -0.0195766 
0.740659 0.670396 -0.0446479 -0.604207 0.78984 -0.105288 -0.595707 0.70692 -0.381311 
-0.727907 0.65501 -0.202762 0.857579 0.508577 -0.0768635 -0.801499 0.550831 -0.232778 
-0.72287 0.544547 -0.425356 0.95013 0.282828 -0.131384 0.96742 0.204843 -0.148784 
-0.929634 0.285417 -0.233063 0.988601 -0.00741617 -0.150375 0.953317 -0.179923 -0.242517 
0.942497 -0.0386489 -0.331972 -0.920881 0.0819574 -0.381131 -0.918412 -0.0436374 -0.393212 
0.925698 -0.267554 -0.267391 -0.894195 -0.214607 -0.392885 -0.882693 -0.247944 -0.399221 
-0.878558 -0.216812 -0.425591 0.79383 -0.500265 -0.345789 0.712014 -0.59249 -0.376817 
0.613694 -0.536243 -0.579502 -0.717216 -0.527554 -0.455289 -0.645086 -0.567014 -0.51221 
-0.598513 -0.498279 -0.627295 0.677796 -0.625315 -0.386747 0.564475 -0.719249 -0.405028 
0.459959 -0.556074 -0.692257 -0.0425794 -0.459073 -0.887378 0.0537658 -0.533601 -0.844026 
-0.317788 -0.755022 -0.573543 -0.254968 -0.555097 -0.791744 -0.539087 -0.644857 -0.541797 
-0.41358 -0.739346 -0.531337 -0.419555 -0.632306 -0.651278 0.496305 -0.751473 -0.434706 
0.424377 -0.795682 -0.432198 0.408129 -0.669162 -0.62101 0.318622 -0.808938 -0.494064 
0.205947 -0.650046 -0.731454 -0.095623 -0.531306 -0.841766 -0.0932345 -0.536373 -0.838816 
-0.0946712 -0.789199 -0.606797 -0.111871 -0.565581 -0.81707 -0.128814 -0.713738 -0.688466 
-0.146954 -0.50554 -0.850197 -0.154402 -0.656008 -0.738792 -0.124459 -0.535696 -0.835189 
-0.090917 -0.683522 -0.724246 -0.0334357 -0.597721 -0.801007 -0.0886773 -0.762582 -0.640785 
-0.0537471 -0.682375 -0.729024 -0.259054 -0.756414 -0.600607 -0.182685 -0.762038 -0.621228 
-0.178494 -0.726808 -0.663242 0.193956 -0.871136 -0.451112 0.175896 -0.878341 -0.444498 
0.177335 -0.869649 -0.460719 0.0422627 -0.888114 -0.457677 0.0302019 -0.835967 -0.547948 
-0.0367012 -0.858979 -0.510693 -0.036971 -0.826648 -0.561504 -0.0859657 -0.806522 -0.584921 
-0.0658447 -0.837046 -0.543157 -0.0659801 -0.814854 -0.575899 0.300907 0.871554 -0.387103 
0.21526 0.920946 -0.32484 0.110348 0.947218 -0.301 0.0259344 0.950819 -0.308659 
0.0057005 0.944241 -0.329207 0.0172278 0.927708 -0.372908 -0.0244279 0.898752 -0.437777 
-0.104128 0.856481 -0.505566 -0.191599 0.839828 -0.507916 -0.266526 0.805425 -0.529391 
0.533979 0.705041 -0.466673 0.369406 0.851154 -0.372929 0.421414 0.815549 -0.396598 
0.291287 0.807299 -0.513245 0.19893 0.694605 -0.691339 0.0755662 0.634414 -0.769291 
0.0186276 0.553125 -0.83289 -0.0239763 0.570705 -0.820805 -0.0279656 0.57377 -0.818539 
-0.0787893 0.53434 -0.841589 -0.104299 0.552309 -0.827089 -0.178508 0.599784 -0.779996 
-0.320304 0.805343 -0.498827 -0.24809 0.713041 -0.655762 -0.331462 0.798019 -0.503288 
-0.428251 0.699276 -0.572375 0.587905 0.648622 -0.483381 0.695443 0.456942 -0.554584 
0.508577 0.637975 -0.57822 0.341544 0.495225 -0.798812 -0.127358 0.160587 -0.978771 
-0.148908 0.288197 -0.945922 -0.206164 0.399416 -0.893288 -0.508101 0.593874 -0.623816 
-0.393575 0.547967 -0.738127 -0.543838 0.464736 -0.698756 0.705845 0.432636 -0.5609 
0.689287 0.424007 -0.587453 0.438257 0.233779 -0.867916 -0.0232348 0.0733077 -0.997039 
-0.145758 0.119588 -0.982066 -0.292591 0.16976 -0.941048 -0.570319 0.3963 -0.719501 
-0.468179 0.33826 -0.816326 -0.58413 0.296405 -0.755603 0.779518 0.18027 -0.599879 
0.595901 0.152673 -0.788412 0.347185 -0.00178024 -0.937795 -0.201231 -0.219464 -0.954642 
0.0190584 -0.116336 -0.993027 -0.00594551 -0.032758 -0.999446 -0.0833189 -0.044975 -0.995508 
-0.137269 0.0348997 -0.989919 -0.35182 0.124535 -0.927746 -0.597296 0.216287 -0.772307 
-0.539894 0.195736 -0.818658 0.713716 -0.0897234 -0.694665 0.579505 -0.098712 -0.808968 
0.263167 -0.102155 -0.959327 -0.0362535 -0.285414 -0.957718 -0.182883 -0.0967048 -0.978367 
0.115734 -0.0894543 -0.989244 0.0407901 -0.0865056 -0.995416 -0.0670995 -0.0467328 -0.996651 
-0.152661 -0.056593 -0.986657 -0.316508 -0.0786682 -0.945322 -0.610903 -0.0307022 -0.79111 
-0.560599 -0.0275317 -0.82763 0.680096 -0.270985 -0.681203 0.587871 -0.406258 -0.699544 
0.5632 -0.26696 -0.782009 0.350344 -0.272032 -0.896246 -0.12549 -0.100032 -0.987039 
0.00347789 -0.138163 -0.990403 -0.0907726 -0.219557 -0.971368 -0.102846 -0.0750146 -0.991865 
0.055511 -0.311397 -0.948657 -0.00760435 -0.0934414 -0.995596 0.0315142 -0.11447 -0.992927 
0.0428452 -0.173341 -0.983929 -0.0573796 -0.179792 -0.98203 -0.173508 -0.172516 -0.969605 
-0.312094 -0.189363 -0.930988 -0.525163 -0.255225 -0.811828 -0.513013 -0.294418 -0.80631 
-0.504306 -0.258856 -0.823814 0.515505 -0.466417 -0.718825 0.446569 -0.499308 -0.742474 
0.427946 -0.400211 -0.810366 0.20847 -0.361313 -0.908842 0.100264 -0.304272 -0.947294 
0.00663711 -0.238177 -0.971199 -0.0702798 -0.176456 -0.981796 -0.0205087 -0.156448 -0.987473 
-0.00574751 -0.222118 -0.975003 -0.149199 -0.0845717 -0.985184 -0.141853 -0.298072 -0.943944 
-0.0330874 -0.450079 -0.892376 0.012766 -0.377879 -0.925767 0.0542894 -0.531701 -0.84519 
0.0425482 -0.32535 -0.944636 -0.0127604 -0.346183 -0.93808 -0.0762322 -0.347998 -0.934391 
-0.230968 -0.503116 -0.832784 -0.160157 -0.380105 -0.910972 -0.416297 -0.429548 -0.801364 
-0.37717 -0.447726 -0.810731 -0.354363 -0.398881 -0.845766 0.374346 -0.544058 -0.75091 
0.297415 -0.553341 -0.778048 0.259671 -0.541963 -0.799279 0.197931 -0.613746 -0.76429 
0.15077 -0.417646 -0.896014 0.0474104 -0.403536 -0.913734 -0.0337341 -0.360565 -0.932124 
-0.0939516 -0.516216 -0.851289 -0.0513703 -0.362327 -0.930634 -0.0811573 -0.504713 -0.859464 
-0.0318595 -0.431813 -0.9014 -0.135368 -0.525094 -0.840209 -0.162612 -0.45425 -0.875907 
-0.122338 -0.436363 -0.891415 -0.19781 -0.421671 -0.88491 -0.208113 -0.409678 -0.888174 
0.0494918 -0.532717 -0.844845 0.0184338 -0.531219 -0.847034 0.020973 -0.526519 -0.849905 
-0.12243 -0.560848 -0.818817 -0.072183 -0.57381 -0.815801 -0.0712237 -0.564124 -0.822612 
0.0690854 -0.558751 -0.826453 0.0648517 -0.556227 -0.828496 0.0646187 -0.555756 -0.82883 
-0.0716856 -0.5317 -0.843893 -0.0151392 -0.556049 -0.831012 -0.0162347 -0.539767 -0.841658 
0.232838 0.428541 -0.873006 0.160143 0.493669 -0.854778 0.0548071 0.514585 -0.855686 
0.014084 0.49114 -0.870967 -0.0218609 0.473656 -0.880439 -0.0349171 0.452773 -0.890942 
-0.0926224 0.382095 -0.91947 -0.109874 0.253708 -0.96102 0.247421 0.406602 -0.879464 
0.251326 0.319488 -0.913653 0.222649 0.389849 -0.893558 0.125961 0.284053 -0.950499 
0.0230685 0.26008 -0.965312 -0.0196969 0.22323 -0.974567 -0.0175993 0.174926 -0.984424 
-0.0440151 0.181706 -0.982367 -0.0971282 0.20799 -0.973297 -0.124872 0.162945 -0.978701 
-0.116596 0.180508 -0.976638 -0.0840629 0.0238396 -0.996175 0.398258 0.224075 -0.889484 
0.210793 0.197648 -0.957341 0.134403 0.161324 -0.977707 0.0352063 0.0630713 -0.997388 
0.000936305 -0.012668 -0.999919 -0.0789784 0.0188634 -0.996698 -0.0542549 -0.0230493 -0.998261 
-0.00234925 -0.053003 -0.998592 -0.106017 0.0565813 -0.992753 -0.181478 -0.161969 -0.969965 
-0.147357 -0.0691498 -0.986663 -0.058095 -0.00908062 -0.99827 -0.060125 -0.0355098 -0.997559 
-0.0666127 -0.0286093 -0.997369 0.320825 -0.0153156 -0.947015 0.228081 -0.0101323 -0.97359 
0.0735402 -0.0771115 -0.994307 -0.041247 -0.0909422 -0.995002 -0.0210606 -0.200839 -0.979398 
-0.032098 -0.167263 -0.98539 -0.0929311 -0.0297408 -0.995228 -0.0132958 -0.259328 -0.965698 
0.0334577 -0.186624 -0.981862 -0.189635 -0.194497 -0.962398 -0.114909 -0.0491606 -0.992159 
0.220949 -0.0954262 -0.970606 0.136962 -0.0873052 -0.986721 0.0438852 -0.151553 -0.987474 
-0.0808457 -0.165849 -0.982832 -0.105796 -0.155023 -0.98223 -0.0892402 -0.195256 -0.976684 
0.0776225 -0.248852 -0.965426 0.102086 -0.286749 -0.952551 -0.0390652 -0.261347 -0.964454 
-0.0852426 -0.211602 -0.973631 -0.0640256 -0.158866 -0.985222 -0.0586115 -0.291982 -0.954626 
-0.17284 -0.240035 -0.955254 -0.0554418 -0.324514 -0.944255 -0.127088 -0.301965 -0.94481 
0.214825 -0.22109 -0.951299 0.185497 -0.238501 -0.953262 0.184728 -0.217011 -0.958531 
0.0427748 -0.241019 -0.969577 0.00435232 -0.197911 -0.98021 -0.105484 -0.134982 -0.985217 
-0.0497278 -0.192633 -0.98001 -0.088686 -0.164381 -0.982402 
