# vtk DataFile Version 4.2
vtk output
ASCII
DATASET POLYDATA
POINTS 544 float
-6.37064 -1.43783 -22.0358 -14.2321 -40.7454 -15.7824 -6.37064 -40.7454 -17.2166 
1.49087 -40.7454 -17.7904 9.35238 -40.7454 -17.1803 17.2139 -40.7454 -14.8461 
-29.9552 -32.8839 -15.0184 -22.0937 -32.8839 -17.6166 -14.2321 -32.8839 -19.1216 
-6.37064 -32.8839 -18.992 1.49087 -32.8839 -19.2996 9.35238 -32.8839 -19.3573 
17.2139 -32.8839 -17.5146 25.0754 -32.8839 -14.3477 -37.8167 -25.0224 -16.817 
-29.9552 -25.0224 -18.2525 -22.0937 -25.0224 -18.9506 -14.2321 -25.0224 -19.5279 
-6.37064 -25.0224 -19.016 1.49087 -25.0224 -19.2579 9.35238 -25.0224 -18.9894 
17.2139 -25.0224 -17.6787 25.0754 -25.0224 -15.2946 -45.6782 -17.1608 -17.9163 
-37.8167 -17.1608 -19.0535 -29.9552 -17.1608 -19.4001 -22.0937 -17.1608 -19.3932 
-14.2321 -17.1608 -18.4782 -6.37064 -17.1608 -17.9436 1.49087 -17.1608 -17.9396 
9.35238 -17.1608 -17.9114 17.2139 -17.1608 -16.5352 -53.5397 -9.29934 -17.0742 
-45.6782 -9.29934 -19.5823 -37.8167 -9.29934 -20.9015 -29.9552 -9.29934 -19.9302 
-22.0937 -9.29934 -18.5273 -14.2321 -9.29934 -17.3245 -6.37064 -1.4384 -22.0356 
-6.37064 -9.29934 -18.904 1.49087 -9.29934 -18.4374 9.35238 -9.29934 -18.354 
17.2139 -9.29934 -14.4973 -53.5397 -1.43783 -18.3289 -45.6782 -1.43783 -20.1446 
-37.8167 -1.43783 -21.389 -29.9552 -1.43783 -19.8595 -22.0937 -1.43783 -18.0816 
-6.37103 -1.43783 -22.0356 -14.2321 -1.43783 -16.8323 -6.37031 -1.43783 -22.0356 
-6.37064 -1.43685 -22.0356 1.49087 -1.43783 -15.4622 9.35238 -1.43783 -20.4203 
17.2139 -1.43783 -16.651 25.0754 -1.43783 -14.3111 32.9369 -1.43783 -14.3646 
-53.5397 6.42368 -16.8102 -45.6782 6.42368 -20.338 -37.8167 6.42368 -20.377 
-29.9552 6.42368 -19.3432 -22.0937 6.42368 -18.0043 -14.2321 6.42368 -17.0038 
-6.37064 6.42368 -20.3263 1.49087 6.42368 -16.8576 9.35238 6.42368 -19.9544 
17.2139 6.42368 -17.5818 25.0754 6.42368 -15.1805 32.9369 6.42368 -14.9519 
40.7984 6.42368 -14.36 -45.6782 14.2852 -17.6378 -37.8167 14.2852 -18.9564 
-29.9552 14.2852 -19.2126 -22.0937 14.2852 -18.5348 -14.2321 14.2852 -18.0438 
-6.37064 14.2852 -18.4894 1.49087 14.2852 -19.4186 9.35238 14.2852 -19.1984 
17.2139 14.2852 -16.8833 25.0754 14.2852 -15.5782 32.9369 14.2852 -15.6479 
-45.6782 22.1467 -15.3303 -37.8167 22.1467 -17.9611 -29.9552 22.1467 -18.891 
-22.0937 22.1467 -18.5422 -14.2321 22.1467 -18.1231 -6.37064 22.1467 -17.8109 
1.49087 22.1467 -18.2944 9.35238 22.1467 -17.4588 17.2139 22.1467 -16.1222 
25.0754 22.1467 -15.3019 32.9369 22.1467 -14.4774 -37.8167 30.0082 -14.8051 
-29.9552 30.0082 -16.4341 -22.0937 30.0082 -16.3619 -14.2321 30.0082 -15.9918 
-6.37064 30.0082 -15.818 1.49087 30.0082 -15.7862 9.35238 30.0082 -14.5647 
-14.2321 -42.301 -14.1741 -6.37064 -44.8825 -14.1741 1.49087 -45.9272 -14.1741 
1.49087 -48.6069 -7.98485 9.35238 -44.8781 -14.1741 9.35238 -48.6069 -6.41623 
17.2139 -41.4963 -14.1741 -29.9552 -33.7944 -14.1741 -18.3973 -40.7454 -14.1741 
-22.0937 -38.9329 -14.1741 -22.0937 -40.7454 -10.7393 18.2924 -40.7454 -14.1741 
25.0754 -33.2096 -14.1741 25.0754 -40.7454 -7.12074 -31.3647 -32.8839 -14.1741 
-37.8167 -28.3793 -14.1741 25.2948 -32.8839 -14.1741 -42.666 -25.0224 -14.1741 
-45.6782 -22.7073 -14.1741 -45.6782 -25.0224 -10.2685 27.3146 -25.0224 -14.1741 
25.0754 -17.3717 -14.1741 32.9369 -25.0224 -10.5889 -51.7008 -17.1608 -14.1741 
-53.5397 -15.1513 -14.1741 -53.5397 -17.1608 -11.4878 24.9693 -17.1608 -14.1741 
25.0754 -17.1608 -14.1418 32.9369 -17.1608 -12.1871 40.7984 -17.1608 -9.44369 
-56.9834 -9.29934 -14.1741 21.8199 -9.29934 -14.1741 25.0754 -4.78057 -14.1741 
25.0754 -9.29934 -13.9899 32.9369 -3.67433 -14.1741 32.9369 -9.29934 -13.68 
40.7984 -9.29934 -12.5252 48.6599 -9.29934 -9.50124 -58.8724 -1.43783 -14.1741 
-61.4012 -1.43783 -9.04831 35.3895 -1.43783 -14.1741 40.7984 4.02246 -14.1741 
40.7984 -1.43783 -13.7486 48.6599 -1.43783 -11.8212 56.5214 -1.43783 -7.49341 
-56.8917 6.42368 -14.1741 -61.4012 6.42368 -6.57536 -53.5397 13.1073 -14.1741 
41.8156 6.42368 -14.1741 40.7984 9.30837 -14.1741 48.6599 6.42368 -12.8073 
56.5214 6.42368 -9.96484 -52.5139 14.2852 -14.1741 -53.5397 14.2852 -13.4042 
39.5062 14.2852 -14.1741 40.7984 14.2852 -13.8776 48.6599 14.2852 -11.6615 
56.5214 14.2852 -6.84028 -47.5248 22.1467 -14.1741 -53.5397 22.1467 -7.91796 
-45.6782 24.1404 -14.1741 17.2139 28.8096 -14.1741 25.0754 26.0689 -14.1741 
34.7402 22.1467 -14.1741 32.9369 23.3329 -14.1741 40.7984 22.1467 -13.0942 
48.6599 22.1467 -9.46967 -39.0298 30.0082 -14.1741 -45.6782 30.0082 -8.93554 
-37.8167 30.8328 -14.1741 -29.9552 32.9449 -14.1741 -22.0937 33.3239 -14.1741 
-14.2321 32.9233 -14.1741 -6.37064 32.8528 -14.1741 1.49087 32.7841 -14.1741 
13.3136 30.0082 -14.1741 9.35238 30.6871 -14.1741 17.2139 30.0082 -13.7732 
25.0754 30.0082 -12.8382 32.9369 30.0082 -12.1955 40.7984 30.0082 -8.84657 
-29.9552 37.8697 -8.42253 -22.0937 37.8697 -9.40342 -14.2321 37.8697 -9.77849 
-6.37064 37.8697 -9.75927 1.49087 37.8697 -9.85529 9.35238 37.8697 -8.23034 
1.49087 -49.1123 -6.31256 9.35238 -48.6422 -6.31256 -22.0937 -42.2032 -6.31256 
-14.2321 -45.8275 -6.31256 -4.0039 -48.6069 -6.31256 -6.37064 -48.373 -6.31256 
1.49087 -48.6069 -3.76717 9.47359 -48.6069 -6.31256 9.35238 -48.6069 -6.15451 
17.2139 -46.1404 -6.31256 25.0754 -41.2281 -6.31256 -24.7159 -40.7454 -6.31256 
-29.9552 -37.5951 -6.31256 -22.0937 -40.7454 -2.0902 25.6099 -40.7454 -6.31256 
25.0754 -40.7454 -1.94101 -45.6782 -26.7887 -6.31256 -36.8387 -32.8839 -6.31256 
-37.8167 -32.1917 -6.31256 32.6746 -32.8839 -6.31256 32.9369 -32.4836 -6.31256 
32.9369 -32.8839 -4.34341 -47.7398 -25.0224 -6.31256 -53.5397 -19.7624 -6.31256 
-45.6782 -25.0224 -2.39804 38.2784 -25.0224 -6.31256 40.7984 -22.1719 -6.31256 
40.7984 -25.0224 -0.538122 -55.8766 -17.1608 -6.31256 -53.5397 -17.1608 -1.21782 
46.6359 -17.1608 -6.31256 48.6599 -15.0989 -6.31256 48.6599 -17.1608 -3.15301 
-60.7881 -9.29934 -6.31256 -61.4012 -6.54247 -6.31256 54.1125 -9.29934 -6.31256 
56.5214 -4.63133 -6.31256 56.5214 -9.29934 -2.93617 -62.5309 -1.43783 -6.31256 
-61.4012 -1.43783 -2.34691 57.7823 -1.43783 -6.31256 -61.5207 6.42368 -6.31256 
-61.4012 6.79509 -6.31256 -61.4012 6.42368 -5.69177 60.278 6.42368 -6.31256 
-58.5215 14.2852 -6.31256 57.0683 14.2852 -6.31256 56.5214 16.0524 -6.31256 
-54.5804 22.1467 -6.31256 -53.5397 23.5946 -6.31256 54.0767 22.1467 -6.31256 
48.6599 28.118 -6.31256 56.5214 22.1467 -2.14216 -47.9165 30.0082 -6.31256 
-45.6782 32.1544 -6.31256 -37.8167 37.2575 -6.31256 17.2139 37.7207 -6.31256 
25.0754 36.8213 -6.31256 32.9369 35.7687 -6.31256 46.3437 30.0082 -6.31256 
40.7984 32.8841 -6.31256 48.6599 30.0082 -2.53932 -35.5429 37.8697 -6.31256 
-37.8167 37.8697 -3.56885 -29.9552 39.2204 -6.31256 -22.0937 39.808 -6.31256 
-14.2321 40.2376 -6.31256 -6.37064 40.412 -6.31256 1.49087 40.3425 -6.31256 
16.4753 37.8697 -6.31256 9.35238 39.1345 -6.31256 17.2139 37.8697 -5.3923 
25.0754 37.8697 -1.8613 -14.2321 -43.5261 1.54895 -6.37064 -46.0323 1.54895 
1.49087 -47.4718 1.54895 9.35238 -46.8268 1.54895 17.2139 -44.5885 1.54895 
-29.9552 -35.062 1.54895 -19.3731 -40.7454 1.54895 -22.0937 -39.3354 1.54895 
-14.2321 -40.7454 5.43895 -6.37064 -40.7454 9.36731 24.4652 -40.7454 1.54895 
17.2139 -40.7454 8.94972 25.0754 -40.3822 1.54895 32.9369 -33.6628 1.54895 
-32.8003 -32.8839 1.54895 -37.8167 -29.3423 1.54895 -29.9552 -32.8839 4.0878 
-22.0937 -32.8839 9.35248 33.703 -32.8839 1.54895 32.9369 -32.8839 3.46649 
40.7984 -25.8313 1.54895 -43.3955 -25.0224 1.54895 -45.6782 -23.2749 1.54895 
-37.8167 -25.0224 6.51394 41.7368 -25.0224 1.54895 40.7984 -25.0224 4.35087 
48.6599 -19.1564 1.54895 -52.1529 -17.1608 1.54895 -53.5397 -15.5559 1.54895 
-45.6782 -17.1608 7.94294 51.1548 -17.1608 1.54895 56.5214 -11.9739 1.54895 
-57.9678 -9.29934 1.54895 -53.5397 -9.29934 6.88047 58.5271 -9.29934 1.54895 
56.5214 -9.29934 9.0637 -60.1839 -1.43783 1.54895 62.5406 -1.43783 1.54895 
-59.8966 6.42368 1.54895 64.2765 6.42368 1.54895 -58.0446 14.2852 1.54895 
-53.5397 14.2852 8.60626 62.1905 14.2852 1.54895 -54.1736 22.1467 1.54895 
-53.5397 23.1697 1.54895 -53.5397 22.1467 2.81582 57.8879 22.1467 1.54895 
56.5214 23.8301 1.54895 56.5214 22.1467 5.1435 -48.8853 30.0082 1.54895 
-45.6782 33.2955 1.54895 -45.6782 30.0082 7.33922 32.9369 37.8363 1.54895 
40.7984 35.3587 1.54895 50.1505 30.0082 1.54895 48.6599 31.0745 1.54895 
48.6599 30.0082 4.611 -39.4 37.8697 1.54895 -37.8167 38.7784 1.54895 
-37.8167 37.8697 4.31048 -29.9552 40.8257 1.54895 -22.0937 41.4457 1.54895 
-14.2321 41.6943 1.54895 -6.37064 41.9398 1.54895 1.49087 41.5057 1.54895 
1.49087 37.8697 9.20483 9.35238 40.0028 1.54895 9.35238 37.8697 6.59615 
17.2139 38.8132 1.54895 17.2139 37.8697 4.53628 32.5527 37.8697 1.54895 
25.0754 38.4979 1.54895 25.0754 37.8697 3.64278 1.49087 -42.5512 9.41045 
9.35238 -42.4827 9.41045 -14.2321 -37.1593 9.41045 -6.22806 -40.7454 9.41045 
-6.37064 -40.7027 9.41045 1.49087 -40.7454 11.2853 16.1927 -40.7454 9.41045 
9.35238 -40.7454 11.3264 17.2139 -40.4465 9.41045 25.0754 -36.3098 9.41045 
-29.9552 -26.9949 9.41045 -21.9792 -32.8839 9.41045 -22.0937 -32.8078 9.41045 
-14.2321 -32.8839 12.5992 -6.37064 -32.8839 14.9497 1.49087 -32.8839 16.6288 
9.35238 -32.8839 17.0421 17.2139 -32.8839 16.1691 29.7515 -32.8839 9.41045 
25.0754 -32.8839 13.1839 32.9369 -30.3038 9.41045 -32.7763 -25.0224 9.41045 
-37.8167 -20.8217 9.41045 -29.9552 -25.0224 10.6907 -22.0937 -25.0224 13.8129 
-14.2321 -25.0224 16.0378 38.9735 -25.0224 9.41045 32.9369 -25.0224 14.752 
40.7984 -23.4799 9.41045 48.6599 -17.1802 9.41045 -42.592 -17.1608 9.41045 
-45.6782 -14.6316 9.41045 -37.8167 -17.1608 11.4093 -29.9552 -17.1608 14.0609 
-22.0937 -17.1608 16.1192 40.7984 -17.1608 15.5505 48.6836 -17.1608 9.41045 
48.6599 -17.1608 9.43645 -50.0004 -9.29934 9.41045 -53.5397 -1.91816 9.41045 
-45.6782 -9.29934 12.097 -37.8167 -9.29934 14.5436 -29.9552 -9.29934 16.4518 
56.4035 -9.29934 9.41045 48.6599 -9.29934 15.738 56.5214 -9.14997 9.41045 
-53.7518 -1.43783 9.41045 -53.5397 -1.43783 9.55304 -45.6782 -1.43783 13.8109 
[...]
POINT_DATA 544
SCALARS ImageScalars float
LOOKUP_TABLE default
0 0 0 0 0 0 0 0 0 
0 0 0 0 0 0 0 0 0 
0 0 0 0 0 0 0 0 0 
0 0 0 0 0 0 0 0 0 
0 0 0 0 0 0 0 0 0 
0 0 0 0 0 0 0 0 0 
0 0 0 0 0 0 0 0 0 
0 0 0 0 0 0 0 0 0 
0 0 0 0 0 0 0 0 0 
0 0 0 0 0 0 0 0 0 
0 0 0 0 0 0 0 0 0 
0 0 0 0 0 0 0 0 0 
0 0 0 0 0 0 0 0 0 
0 0 0 0 0 0 0 0 0 
0 0 0 0 0 0 0 0 0 
0 0 0 0 0 0 0 0 0 
0 0 0 0 0 0 0 0 0 
0 0 0 0 0 0 0 0 0 
0 0 0 0 0 0 0 0 0 
0 0 0 0 0 0 0 0 0 
0 0 0 0 0 0 0 0 0 
0 0 0 0 0 0 0 0 0 
0 0 0 0 0 0 0 0 0 
0 0 0 0 0 0 0 0 0 
0 0 0 0 0 0 0 0 0 
0 0 0 0 0 0 0 0 0 
0 0 0 0 0 0 0 0 0 
0 0 0 0 0 0 0 0 0 
0 0 0 0 0 0 0 0 0 
0 0 0 0 0 0 0 0 0 
0 0 0 0 0 0 0 0 0 
0 0 0 0 0 0 0 0 0 
0 0 0 0 0 0 0 0 0 
0 0 0 0 0 0 0 0 0 
0 0 0 0 0 0 0 0 0 
0 0 0 0 0 0 0 0 0 
0 0 0 0 0 0 0 0 0 
0 0 0 0 0 0 0 0 0 
0 0 0 0 0 0 0 0 0 
0 0 0 0 0 0 0 0 0 
0 0 0 0 0 0 0 0 0 
0 0 0 0 0 0 0 0 0 
0 0 0 0 0 0 0 0 0 
0 0 0 0 0 0 0 0 0 
0 0 0 0 0 0 0 0 0 
0 0 0 0 0 0 0 0 0 
0 0 0 0 0 0 0 0 0 
0 0 0 0 0 0 0 0 0 
0 0 0 0 0 0 0 0 0 
0 0 0 0 0 0 0 0 0 
0 0 0 0 0 0 0 0 0 
0 0 0 0 0 0 0 0 0 
0 0 0 0 0 0 0 0 0 
0 0 0 0 0 0 0 0 0 
0 0 0 0 0 0 0 0 0 
0 0 0 0 0 0 0 0 0 
0 0 0 0 0 0 0 0 0 
0 0 0 0 0 0 0 0 0 
0 0 0 0 0 0 0 0 0 
0 0 0 0 0 0 0 0 0 
0 0 0 0 
NORMALS Normals float
-0.0585394 0.0813391 0.994966 0.255592 0.626372 0.736431 0.110725 0.452503 0.884862 
-0.00321562 0.401412 0.915892 -0.154142 0.462578 0.873076 -0.412875 0.535594 0.736663 
0.427698 0.592105 0.682998 0.220404 0.331935 0.917192 0.0930099 0.191189 0.977137 
0.0118796 0.106463 0.994246 0.0235348 0.0934506 0.995346 -0.101039 0.105913 0.989229 
-0.294746 0.142879 0.944833 -0.53932 0.294334 0.788987 0.328583 0.484068 0.810994 
0.123727 0.23633 0.963763 0.0770217 0.108081 0.991154 0.00398801 -0.0394116 0.999215 
-0.0169587 -0.0661987 0.997662 -0.00160514 -0.0823248 0.996604 -0.0975556 -0.0918282 0.990985 
-0.238226 -0.0611114 0.969285 -0.381177 -0.0230797 0.924214 0.294613 0.424944 0.855936 
0.0848524 0.233646 0.968612 0.020439 0.101137 0.994663 -0.0571384 -0.0277427 0.997981 
-0.0890805 -0.142052 0.985843 -0.0326423 -0.0155338 0.999346 -0.00208442 -0.0548472 0.998493 
-0.0868535 -0.0435231 0.99527 -0.238867 -0.178718 0.954464 0.510253 0.248857 0.823232 
0.226261 0.125145 0.965994 0.0274858 0.145011 0.989048 -0.146755 0.0288676 0.988752 
-0.163937 -0.0781451 0.983371 0.0116277 -0.0974384 0.995174 -0.0585286 0.0813558 0.994965 
0.0790807 0.234715 0.968842 -0.0315749 -0.110321 0.993394 -0.217321 0.149033 0.964656 
-0.277122 -0.0617381 0.958849 0.425013 -0.0182419 0.905003 0.184334 0.0455279 0.981809 
-0.00651603 -0.0338643 0.999405 -0.205842 -0.0370269 0.977885 -0.176623 -0.0337554 0.9837 
-0.0585226 0.0813379 0.994967 0.204363 -0.0255703 0.978561 -0.0585411 0.0813345 0.994966 
-0.0585322 0.0812985 0.99497 -0.0665112 -0.132576 0.988939 0.123989 0.104395 0.986777 
-0.432479 0.191284 0.88112 -0.0723547 0.0759002 0.994487 -0.0351887 0.0793572 0.996225 
0.5134 -0.234058 0.825613 0.214673 -0.131516 0.967791 -0.0639228 -0.152285 0.986267 
-0.148567 -0.0408682 0.988057 -0.140194 0.0286632 0.989709 0.14581 0.0821878 0.985893 
-0.00504649 -0.220133 0.975457 -0.0247089 0.256188 0.966311 0.0614082 -0.0763282 0.99519 
-0.333173 -0.0135597 0.942768 -0.129233 0.079614 0.988413 -0.0515633 0.085446 0.995008 
-0.127269 0.00668416 0.991846 0.267994 -0.299043 0.915834 0.0900249 -0.145238 0.985293 
-0.0271441 -0.0276965 0.999248 -0.0756381 0.0346434 0.996533 -0.00295484 0.0631614 0.997999 
0.0871189 -0.149699 0.984886 0.0454404 0.0704626 0.996479 -0.154052 -0.153733 0.97603 
-0.228654 -0.0830395 0.96996 -0.0719773 0.00821311 0.997372 -0.10218 -0.0248975 0.994454 
0.423095 -0.382626 0.821333 0.210467 -0.243994 0.946663 0.0307742 -0.158279 0.986915 
-0.0476048 -0.125015 0.991012 -0.0457073 -0.11577 0.992224 0.0100386 -0.165216 0.986206 
-0.0213566 -0.221056 0.975027 -0.134747 -0.268743 0.95374 -0.131706 -0.184688 0.973932 
-0.0995035 -0.149322 0.983769 -0.132089 -0.208805 0.968996 0.316609 -0.517312 0.795076 
0.0917205 -0.480954 0.871935 -0.0258014 -0.427186 0.903796 -0.032718 -0.409719 0.911625 
-0.0118533 -0.382926 0.923703 -0.0714135 -0.417645 0.905799 -0.120696 -0.439728 0.889984 
0.294533 0.70914 0.640601 0.18491 0.708403 0.681156 -0.000886901 0.74245 0.669901 
0.0125235 0.987764 0.155454 -0.201709 0.695225 0.68991 -0.173532 0.982749 0.0639579 
-0.418979 0.574767 0.702922 0.453934 0.631627 0.628483 0.346809 0.709063 0.613965 
0.374625 0.673245 0.637492 0.449445 0.836612 0.313176 -0.44288 0.548973 0.708863 
-0.544324 0.308174 0.780218 -0.655919 0.715066 0.241766 0.45269 0.633758 0.627234 
0.425756 0.634053 0.64553 -0.547928 0.298469 0.781468 0.435536 0.62622 0.646651 
0.448665 0.620357 0.643317 0.575164 0.759299 0.304387 -0.434334 0.0423934 0.899754 
-0.273244 -0.0811386 0.958517 -0.597563 0.289113 0.747885 0.598555 0.543449 0.588553 
0.639422 0.490468 0.592098 0.708622 0.61947 0.337803 -0.269563 -0.0846917 0.959251 
-0.269618 -0.0828022 0.959401 -0.275688 0.171736 0.945782 -0.395508 0.438792 0.806867 
0.702776 0.2984 0.645804 -0.137086 -0.0219254 0.990317 -0.059081 0.0480751 0.997095 
-0.0468565 0.0109128 0.998842 -0.0489902 0.0971313 0.994065 -0.0874534 0.141681 0.986042 
-0.234685 0.250761 0.939171 -0.412755 0.358654 0.837258 0.775557 0.000447515 0.631278 
0.973847 0.0343694 0.22459 -0.0714153 0.0879889 0.993558 -0.135358 0.036854 0.990111 
-0.152531 0.108167 0.982362 -0.318305 0.186366 0.929489 -0.632781 0.252194 0.732111 
0.665546 -0.265527 0.697527 0.963921 -0.222955 0.145418 0.583006 -0.401624 0.706259 
-0.13745 0.00487482 0.990497 -0.169414 -0.0222637 0.985293 -0.232332 -0.00840988 0.9726 
-0.551534 -0.0228311 0.83384 0.556719 -0.406428 0.724486 0.619487 -0.42915 0.657317 
-0.214877 -0.0629924 0.974608 -0.237153 -0.0711742 0.968862 -0.357176 -0.185522 0.915427 
-0.645524 -0.25083 0.721376 0.489363 -0.412306 0.768458 0.777876 -0.526024 0.343813 
0.459952 -0.443342 0.769345 -0.0975604 -0.388228 0.916385 -0.0938919 -0.302419 0.948539 
-0.167204 -0.222307 0.960532 -0.144152 -0.236936 0.960771 -0.288602 -0.279516 0.91574 
-0.461183 -0.330728 0.823365 0.353813 -0.534261 0.767712 0.597176 -0.65129 0.46819 
0.320866 -0.550176 0.770942 0.112744 -0.599769 0.79219 0.00153041 -0.579356 0.815073 
-0.0186 -0.534121 0.845204 -0.00504458 -0.511244 0.859421 -0.0721886 -0.517063 0.852898 
-0.10517 -0.434051 0.894728 -0.121876 -0.465063 0.876848 -0.0926175 -0.437753 0.894312 
-0.0892538 -0.498792 0.862114 -0.213847 -0.455346 0.864251 -0.359752 -0.59801 0.716214 
0.148483 -0.860796 0.48681 0.0526512 -0.846948 0.529062 0.0137903 -0.815382 0.578759 
0.00340236 -0.806048 0.59184 -0.0645056 -0.80336 0.591989 -0.159318 -0.860143 0.484533 
0.0163371 0.998522 0.051831 -0.172794 0.983269 0.0576548 0.462622 0.886555 -0.00125619 
0.356625 0.932754 0.0528139 0.14771 0.988643 0.0277074 0.205778 0.97839 0.020227 
0.0240428 0.996865 -0.0753806 -0.175927 0.982696 0.0579575 -0.1731 0.98363 0.0500907 
-0.409442 0.905106 0.114634 -0.652531 0.734513 0.186263 0.491837 0.870615 0.0112262 
0.539953 0.840074 0.0522159 0.445669 0.863323 -0.236755 -0.664742 0.722026 0.191823 
-0.608024 0.792469 -0.0479531 0.61511 0.788422 0.00554518 0.557385 0.830102 0.0158863 
0.560379 0.828089 0.0156195 -0.755733 0.551877 0.352561 -0.753337 0.547301 0.364617 
-0.758833 0.605121 0.240835 0.63893 0.769167 -0.0122767 0.714581 0.699385 -0.015291 
0.606569 0.756615 -0.24415 -0.643324 0.538589 0.54411 -0.577358 0.555375 0.598512 
-0.665979 0.728455 0.160703 0.762547 0.64693 -0.00179656 0.704011 0.633534 -0.320942 
-0.546196 0.58426 0.600259 -0.547787 0.567643 0.614582 -0.620704 0.699474 0.354206 
0.939604 0.34033 0.0363208 0.970138 0.23854 0.0439343 -0.617774 0.438153 0.652976 
-0.671192 0.33198 0.66279 -0.769132 0.51975 0.371881 0.996855 0.047441 0.0634708 
0.983994 0.0820589 -0.158182 -0.670267 0.26205 0.694314 0.966281 -0.221758 0.13086 
0.964047 -0.230335 0.132513 0.971659 -0.217122 0.0934717 -0.708918 -0.030742 0.704621 
0.884653 -0.415512 0.211515 -0.660805 -0.253251 0.706542 -0.664069 -0.294145 0.68738 
0.810443 -0.530432 0.248644 0.79069 -0.555497 0.257357 -0.627873 -0.434558 0.645705 
-0.551048 -0.622041 0.556248 -0.779639 -0.564797 0.270495 0.665928 -0.669117 0.329883 
0.608552 -0.716373 0.341284 0.34776 -0.859483 0.374635 -0.133723 -0.912635 0.386284 
-0.111146 -0.877182 0.467116 -0.201156 -0.863876 0.461796 -0.509518 -0.678936 0.528618 
-0.384121 -0.74479 0.545654 -0.582258 -0.780944 0.226059 0.288358 -0.879254 0.379159 
0.373693 -0.901727 0.217353 0.152986 -0.909344 0.386897 0.0599275 -0.919991 0.387332 
0.0361884 -0.916058 0.39941 0.00665221 -0.902497 0.430646 -0.080736 -0.91734 0.389832 
-0.136416 -0.913987 0.382122 -0.162236 -0.914232 0.371294 -0.130336 -0.935705 0.327824 
-0.0844071 -0.984653 0.152754 0.362294 0.826242 -0.431356 0.213365 0.888023 -0.407296 
0.0441932 0.932085 -0.359533 -0.167697 0.922862 -0.346705 -0.356764 0.88066 -0.311701 
0.506179 0.737278 -0.447441 0.397202 0.803435 -0.443534 0.405917 0.7954 -0.450079 
0.362994 0.748574 -0.554863 0.233335 0.701206 -0.673695 -0.530073 0.813831 -0.238122 
-0.300662 0.776822 -0.553308 -0.545262 0.806544 -0.228424 -0.699251 0.707766 -0.100571 
0.513739 0.728585 -0.453029 0.514378 0.724941 -0.458122 0.496021 0.679659 -0.540395 
0.367965 0.584447 -0.723204 -0.702294 0.706248 -0.0894278 -0.682547 0.709556 -0.175102 
-0.661342 0.749541 0.028555 0.545266 0.68787 -0.479082 0.557357 0.67235 -0.487133 
0.475395 0.592127 -0.650681 -0.655121 0.754652 0.0362813 -0.646301 0.755201 -0.109395 
-0.644006 0.762767 0.0586693 0.643619 0.586141 -0.492131 0.666538 0.554081 -0.49872 
0.46944 0.515314 -0.716992 -0.658174 0.750158 0.0637993 -0.77618 0.626411 0.0717949 
0.802482 0.369664 -0.468371 0.590516 0.391231 -0.705853 -0.825382 0.559718 0.0738912 
-0.726893 0.556316 -0.402664 0.901745 0.118448 -0.415723 -0.94208 0.321208 0.0964932 
0.910008 -0.124737 -0.39538 -0.997683 -0.0289368 0.0615745 0.893061 -0.345143 -0.288651 
0.708805 -0.241978 -0.662602 -0.939369 -0.334 0.0776593 0.847211 -0.478275 -0.231273 
0.840665 -0.491872 -0.226591 0.832468 -0.470754 -0.292212 -0.800827 -0.598884 -0.00363439 
-0.774729 -0.632293 0.000885874 -0.76185 -0.606432 -0.227649 0.751365 -0.640592 -0.158404 
0.660815 -0.737923 -0.137086 0.654851 -0.580968 -0.483369 -0.194778 -0.980349 -0.0312548 
-0.379998 -0.924034 -0.0419775 -0.593999 -0.804016 -0.0269043 -0.556825 -0.829846 -0.0360865 
-0.552586 -0.808034 -0.20428 0.447642 -0.890468 -0.0817464 0.399926 -0.913803 -0.0708752 
0.42361 -0.876283 -0.229528 0.170635 -0.984739 -0.034253 0.0539441 -0.998328 -0.0207489 
0.0312703 -0.998668 -0.0410524 -0.0119601 -0.997298 -0.0724791 -0.122941 -0.984309 -0.126573 
-0.147391 -0.748583 -0.646451 -0.173546 -0.974788 -0.140248 -0.127349 -0.881357 -0.454964 
-0.0943299 -0.991547 -0.0890817 -0.0734737 -0.967438 -0.24221 -0.188111 -0.98161 -0.0324828 
-0.0603279 -0.996461 -0.0585346 -0.0583721 -0.984671 -0.164365 0.0867366 0.743849 -0.662695 
-0.10935 0.772216 -0.62588 0.326879 0.632286 -0.702399 0.230607 0.700729 -0.67513 
0.233231 0.699362 -0.675644 0.0902394 0.688681 -0.719428 -0.270709 0.768948 -0.579168 
-0.094091 0.718311 -0.689331 -0.294131 0.765531 -0.572232 -0.454266 0.720248 -0.524295 
0.393284 0.514672 -0.761866 0.366745 0.582747 -0.725193 0.367168 0.581751 -0.725778 
0.297587 0.499629 -0.813519 0.22111 0.440658 -0.870018 0.11484 0.385808 -0.915403 
-0.0208723 0.4155 -0.909354 -0.178575 0.53511 -0.825692 -0.539824 0.693505 -0.477118 
-0.397227 0.643909 -0.653906 -0.583441 0.676942 -0.448717 0.400085 0.501872 -0.766848 
0.395175 0.481928 -0.782037 0.370753 0.467314 -0.802596 0.300786 0.369079 -0.87938 
0.239573 0.283755 -0.928487 -0.586322 0.700578 -0.406715 -0.471928 0.550037 -0.689017 
-0.583928 0.701989 -0.407724 -0.597573 0.706748 -0.3787 0.411302 0.471297 -0.780199 
0.444432 0.451243 -0.77386 0.341398 0.416674 -0.842514 0.266397 0.320961 -0.908855 
0.220072 0.21099 -0.952393 -0.420864 0.493991 -0.760819 -0.59775 0.706558 -0.378775 
-0.597312 0.706235 -0.380066 0.495092 0.357574 -0.791849 0.552922 0.175996 -0.814434 
0.413432 0.324907 -0.850594 0.249921 0.281763 -0.926363 0.16796 0.20521 -0.964198 
-0.716888 0.552614 -0.425075 -0.468098 0.391246 -0.792345 -0.720021 0.548893 -0.424602 
0.559587 0.159938 -0.813192 0.552532 0.162444 -0.817509 0.389157 0.138858 -0.910645 
0.219849 0.148103 -0.964226 -0.860686 0.310943 -0.403155 -0.596872 0.272117 -0.754782 
0.669138 -0.0450528 -0.741771 0.674034 -0.145113 -0.724307 0.642957 -0.0338835 -0.765153 
0.402558 0.00702426 -0.915367 0.197849 0.072507 -0.977547 0.112424 -0.101435 -0.988469 
-0.870883 -0.0452879 -0.4894 -0.555897 -0.0591245 -0.829146 0.667214 -0.220754 -0.711402 
0.46686 -0.103638 -0.878237 -0.0423801 0.082415 -0.995697 -0.797125 -0.382189 -0.467465 
-0.689583 -0.517047 -0.507088 -0.624542 -0.378323 -0.683241 0.654585 -0.366314 -0.661311 
0.614836 -0.479727 -0.62597 0.540694 -0.294357 -0.788038 0.282416 -0.184476 -0.941387 
-0.127111 -0.102132 -0.986616 0.0178036 -0.186393 -0.982314 0.196733 -0.287615 -0.937323 
-0.644247 -0.565673 -0.514743 -0.515795 -0.687325 -0.51141 -0.477769 -0.463121 -0.746495 
0.594229 -0.529119 -0.605744 0.450925 -0.692037 -0.563694 0.415299 -0.437132 -0.797773 
0.125653 -0.360617 -0.924211 0.0235368 -0.30348 -0.952547 -0.0548872 -0.32757 -0.943231 
-0.124935 -0.308357 -0.943031 -0.146549 -0.733969 -0.663184 -0.0902886 -0.354001 -0.930877 
-0.0710571 -0.751404 -0.656006 0.0429604 -0.493756 -0.868539 -0.0188264 -0.841608 -0.53976 
0.0927947 -0.575822 -0.812292 -0.0476142 -0.861338 -0.505796 -0.0130305 -0.606272 -0.795151 
-0.182752 -0.837274 -0.515338 -0.157936 -0.623022 -0.766094 -0.431504 -0.748701 -0.50324 
-0.351788 -0.789249 -0.50332 -0.331157 -0.704958 -0.627191 0.271838 -0.818548 -0.506046 
0.20416 -0.847386 -0.490158 0.206405 -0.812466 -0.545248 0.0496689 -0.878785 -0.474626 
0.0481958 -0.803553 -0.593279 -0.0218441 -0.861849 -0.506694 -0.0408168 -0.781568 -0.622483 
-0.143684 -0.742663 -0.654069 -0.0985464 -0.800434 -0.591264 -0.11022 -0.742127 -0.661135 
0.173813 0.282498 -0.94339 0.107387 0.327309 -0.938795 -0.0123742 0.397543 -0.9175 
-0.133155 0.466529 -0.874425 -0.28213 0.468907 -0.836976 0.188432 0.253071 -0.94892 
0.201932 0.193686 -0.960057 0.160531 0.238282 -0.957837 0.0934985 0.207567 -0.973742 
0.0672181 0.246731 -0.96675 -0.0449887 0.305406 -0.951159 -0.331299 0.450535 -0.829011 
-0.25143 0.395324 -0.88346 -0.370722 0.404214 -0.836168 0.196286 0.173834 -0.965015 
0.144808 0.127637 -0.981193 0.186355 0.159616 -0.96943 0.145067 0.162226 -0.976032 
0.119979 0.197462 -0.972941 0.0887561 0.164086 -0.982445 -0.00925655 0.0938559 -0.995543 
-0.14881 0.158587 -0.976066 -0.354264 0.389119 -0.850343 -0.300368 0.290239 -0.908593 
-0.339618 0.373251 -0.863333 0.14034 0.130729 -0.981435 0.123783 0.117864 -0.985285 
0.136788 0.118646 -0.983469 0.192839 0.0455482 -0.980173 0.205085 0.0720581 -0.976088 
0.0965654 0.0469201 -0.99422 -0.0284881 -0.0626931 -0.997626 -0.0455588 -0.123347 -0.991317 
-0.0636224 -0.023346 -0.997701 -0.141362 0.116502 -0.983079 -0.370141 0.315602 -0.873723 
-0.257622 0.257211 -0.931382 -0.388216 0.249293 -0.88721 0.132934 0.100624 -0.986004 
0.109975 0.0898488 -0.989865 0.0588373 0.012995 -0.998183 0.128021 -0.11312 -0.985299 
0.145581 -0.127878 -0.981047 0.144791 -0.0399589 -0.988655 -0.0220177 -0.07888 -0.996641 
-0.0886169 -0.21313 -0.972997 0.0502216 -0.129271 -0.990337 0.0901135 -0.0563052 -0.994339 
-0.0153742 0.0279214 -0.999492 -0.154793 0.0904901 -0.983794 -0.382404 0.181227 -0.906049 
-0.340977 0.159395 -0.92646 0.155587 0.0698842 -0.985347 0.229881 0.00857043 -0.973181 
0.0349719 0.0587556 -0.99766 -0.0111399 -0.0361027 -0.999286 -0.0784072 -0.000411492 -0.996921 
0.152703 -0.124978 -0.980338 0.271468 -0.188178 -0.943872 -0.0641837 -0.183966 -0.980835 
-0.0795006 -0.0484913 -0.995655 0.099984 0.0427211 -0.994071 0.0909181 0.0147145 -0.99575 
0.00295345 -0.0356258 -0.999361 -0.122904 -0.0519649 -0.991057 -0.410631 -0.0600149 -0.909825 
-0.307895 -0.0615636 -0.949426 0.274157 -0.0571354 -0.959986 0.262468 -0.0738931 -0.962107 
0.260365 -0.0556116 -0.963907 0.0402655 -0.0107693 -0.999131 -0.0656672 0.059253 -0.996081 
-0.102064 0.0176452 -0.994621 0.0302044 -0.129984 -0.991056 -0.0553197 0.0417317 -0.997596 
0.0183145 -0.164528 -0.986202 0.0470595 -0.177666 -0.982965 0.0894802 -0.287098 -0.953713 
0.102396 -0.309429 -0.945394 0.195442 -0.270402 -0.942701 0.154736 -0.105792 -0.982275 
0.113531 -0.0219409 -0.993292 0.0153588 -0.0497414 -0.998644 -0.0812692 -0.110463 -0.990552 
-0.180679 -0.164886 -0.969622 -0.349254 -0.221857 -0.910385 -0.349078 -0.225617 -0.909528 
-0.345101 -0.219901 -0.912441 0.153558 -0.151204 -0.976503 0.110816 -0.198518 -0.973812 
0.110496 -0.142348 -0.98363 0.0181014 -0.183025 -0.982942 0.0121888 -0.0904426 -0.995827 
-0.103062 -0.0629125 -0.992683 -0.0627105 -0.15628 -0.98572 -0.0712288 -0.0163546 -0.997326 
0.194522 -0.287392 -0.937852 0.137746 -0.412534 -0.900468 0.151597 -0.276291 -0.949042 
-0.00391796 -0.485263 -0.874359 0.000618215 -0.272975 -0.962021 -0.135101 -0.435629 -0.88993 
-0.117611 -0.299127 -0.946937 -0.270353 -0.354713 -0.895035 -0.246962 -0.371965 -0.894792 
-0.242458 -0.345008 -0.906743 
