# vtk DataFile Version 4.2
vtk output
ASCII
DATASET POLYDATA
POINTS 518 float
2.42865 18.9359 -20.184 -26.0538 -30.9084 -13.3776 -18.9332 -30.9084 -13.931 
-11.8126 -30.9084 -14.9121 -4.69196 -30.9084 -15.6086 2.42865 -30.9084 -16.0149 
9.54927 -30.9084 -15.4047 16.6699 -30.9084 -14.0828 -40.295 -23.7878 -13.1844 
-33.1744 -23.7878 -15.8473 -26.0538 -23.7878 -16.3407 -18.9332 -23.7878 -17.0672 
-11.8126 -23.7878 -16.8475 -4.69196 -23.7878 -17.7983 2.42865 -23.7878 -18.6617 
9.54927 -23.7878 -17.8128 16.6699 -23.7878 -16.9559 23.7905 -23.7878 -15.8579 
30.9111 -23.7878 -14.5937 -40.295 -16.6672 -16.957 -33.1744 -16.6672 -17.7798 
-26.0538 -16.6672 -17.6176 -18.9332 -16.6672 -17.07 -11.8126 -16.6672 -16.1761 
-4.69196 -16.6672 -17.2775 2.42865 -16.6672 -18.4002 9.54927 -16.6672 -17.4996 
16.6699 -16.6672 -17.1764 23.7905 -16.6672 -17.2125 30.9111 -16.6672 -16.8953 
38.0317 -16.6672 -15.0771 -47.4157 -9.54657 -15.548 -40.295 -9.54657 -18.1318 
-33.1744 -9.54657 -19.2144 -26.0538 -9.54657 -18.0787 -18.9332 -9.54657 -16.23 
-11.8126 -9.54657 -14.3183 -4.69196 -9.54657 -15.2439 2.42865 -9.54657 -16.6685 
9.54927 -9.54657 -16.969 16.6699 -9.54657 -17.4846 23.7905 -9.54657 -17.7711 
30.9111 -9.54657 -17.8993 38.0317 -9.54657 -16.6256 45.1524 -9.54657 -13.7806 
-47.4157 -2.42595 -16.4386 -40.295 -2.42595 -18.2887 -33.1744 -2.42595 -18.7902 
-26.0538 -2.42595 -18.126 -18.9332 -2.42595 -15.8165 -11.8126 -2.42595 -13.6045 
-4.69196 -2.42595 -15.8081 2.42865 -2.42595 -14.8343 9.54927 -2.42595 -19.1444 
16.6699 -2.42595 -18.2879 23.7905 -2.42595 -18.0103 30.9111 -2.42595 -17.8842 
38.0317 -2.42595 -17.0592 45.1524 -2.42595 -14.8922 -47.4157 4.69467 -16.0167 
-40.295 4.69467 -18.0171 -33.1744 4.69467 -18.5869 -26.0538 4.69467 -18.0279 
-18.9332 4.69467 -16.0478 -11.8126 4.69467 -13.6829 -4.69196 4.69467 -16.168 
2.42865 4.69467 -15.2275 9.54927 4.69467 -18.8055 16.6699 4.69467 -18.1285 
23.7905 4.69467 -17.8136 30.9111 4.69467 -17.7654 38.0317 4.69467 -17.2845 
45.1524 4.69467 -15.208 -47.4157 11.8153 -14.356 -40.295 11.8153 -17.6764 
-33.1744 11.8153 -18.0267 -26.0538 11.8153 -17.1442 -18.9332 11.8153 -15.5966 
-11.8126 11.8153 -13.9599 -4.69196 11.8153 -16.1617 2.42865 18.463 -20.0883 
2.42865 11.8153 -18.6169 9.54927 11.8153 -19.1331 16.6699 11.8153 -18.501 
23.7905 11.8153 -18.3731 30.9111 11.8153 -18.2718 38.0317 11.8153 -16.536 
45.1524 11.8153 -13.5589 -40.295 18.9359 -14.8845 -33.1744 18.9359 -15.9257 
-26.0538 18.9359 -15.4533 -18.9332 18.9359 -14.5957 -11.8126 18.9359 -14.4834 
2.14658 18.9359 -20.0883 -4.69196 18.9359 -17.617 4.08767 18.9359 -20.0883 
2.42865 19.6312 -20.0883 9.54927 18.9359 -19.7756 16.6699 18.9359 -18.9309 
23.7905 18.9359 -18.0429 30.9111 18.9359 -17.0687 38.0317 18.9359 -14.7977 
-11.8126 26.0565 -13.9953 -4.69196 26.0565 -17.4132 2.42865 26.0565 -19.1869 
9.54927 26.0565 -19.089 16.6699 26.0565 -17.8956 23.7905 26.0565 -16.6283 
30.9111 26.0565 -14.559 -4.69196 33.1771 -14.4646 2.42865 33.1771 -15.9913 
9.54927 33.1771 -15.4153 16.6699 33.1771 -14.1114 -26.0538 -31.3411 -12.9677 
-18.9332 -32.1104 -12.9677 -11.8126 -33.2622 -12.9677 -4.69196 -33.9056 -12.9677 
2.42865 -34.3028 -12.9677 9.54927 -33.7165 -12.9677 16.6699 -32.2793 -12.9677 
-40.295 -24.0494 -12.9677 -27.2255 -30.9084 -12.9677 -33.1744 -27.8105 -12.9677 
-33.1744 -30.9084 -8.96523 21.049 -30.9084 -12.9677 23.7905 -29.5634 -12.9677 
23.7905 -30.9084 -11.9094 30.9111 -26.1374 -12.9677 30.9111 -30.9084 -7.66019 
-40.5927 -23.7878 -12.9677 35.0748 -23.7878 -12.9677 38.0317 -21.3714 -12.9677 
38.0317 -23.7878 -11.287 -46.6358 -16.6672 -12.9677 -47.4157 -15.5887 -12.9677 
-47.4157 -16.6672 -12.0319 42.0851 -16.6672 -12.9677 45.1524 -12.0362 -12.9677 
45.1524 -16.6672 -10.6157 -50.3161 -9.54657 -12.9677 46.3633 -9.54657 -12.9677 
52.273 -9.54657 -5.88257 -51.5005 -2.42595 -12.9677 -54.5363 -2.42595 -6.74946 
48.0617 -2.42595 -12.9677 52.273 -2.42595 -8.53597 -51.0506 4.69467 -12.9677 
-54.5363 4.69467 -6.26926 48.5354 4.69467 -12.9677 52.273 4.69467 -8.83818 
-49.1936 11.8153 -12.9677 -47.4157 14.6838 -12.9677 46.0633 11.8153 -12.9677 
45.1524 13.3631 -12.9677 -43.8954 18.9359 -12.9677 -47.4157 18.9359 -9.64566 
-40.295 21.7763 -12.9677 -33.1744 24.06 -12.9677 -26.0538 24.6504 -12.9677 
-18.9332 25.3108 -12.9677 41.205 18.9359 -12.9677 38.0317 22.3867 -12.9677 
45.1524 18.9359 -9.56963 -40.295 26.0565 -8.1478 -33.1744 26.0565 -11.1779 
-26.0538 26.0565 -12.2828 -17.7706 26.0565 -12.9677 -18.9332 26.0565 -12.7483 
-11.8126 28.7931 -12.9677 23.7905 32.0929 -12.9677 33.9501 26.0565 -12.9677 
30.9111 28.0131 -12.9677 38.0317 26.0565 -9.44518 -18.9332 33.1771 -6.27272 
-7.82582 33.1771 -12.9677 -11.8126 33.1771 -10.3722 -4.69196 34.7733 -12.9677 
2.42865 36.2739 -12.9677 9.54927 35.896 -12.9677 21.0343 33.1771 -12.9677 
16.6699 34.3651 -12.9677 23.7905 33.1771 -11.5977 -33.1744 -32.4666 -5.84704 
-26.0538 -35.1657 -5.84704 -18.9332 -36.667 -5.84704 -11.8126 -37.2009 -5.84704 
-4.69196 -37.4214 -5.84704 2.42865 -37.6621 -5.84704 2.42865 -38.029 1.12589 
9.54927 -37.4502 -5.84704 16.6699 -36.614 -5.84704 23.7905 -34.7672 -5.84704 
30.9111 -31.969 -5.84704 -35.9602 -30.9084 -5.84704 -40.295 -28.1464 -5.84704 
32.9982 -30.9084 -5.84704 38.0317 -27.9089 -5.84704 -45.1984 -23.7878 -5.84704 
-47.4157 -21.2468 -5.84704 43.0475 -23.7878 -5.84704 45.1524 -21.5619 -5.84704 
-50.6322 -16.6672 -5.84704 48.8791 -16.6672 -5.84704 52.273 -9.59695 -5.84704 
-53.8111 -9.54657 -5.84704 -54.5363 -4.91544 -5.84704 52.2929 -9.54657 -5.84704 
-54.8837 -2.42595 -5.84704 -54.5363 -2.42595 -2.05496 53.9802 -2.42595 -5.84704 
-54.7063 4.69467 -5.84704 -54.5363 5.90378 -5.84704 -54.5363 4.69467 -3.92796 
54.2211 4.69467 -5.84704 52.273 11.7318 -5.84704 -53.5147 11.8153 -5.84704 
52.2463 11.8153 -5.84704 52.273 11.8153 -5.73979 -49.6792 18.9359 -5.84704 
-47.4157 21.6366 -5.84704 48.1062 18.9359 -5.84704 45.1524 22.3851 -5.84704 
-42.3044 26.0565 -5.84704 -40.295 27.4371 -5.84704 -33.1744 30.1524 -5.84704 
-26.0538 31.7144 -5.84704 30.9111 32.5242 -5.84704 41.0809 26.0565 -5.84704 
38.0317 28.3009 -5.84704 -20.0654 33.1771 -5.84704 -26.0538 33.1771 -0.316311 
-18.9332 33.4435 -5.84704 -11.8126 35.99 -5.84704 -4.69196 38.1764 -5.84704 
2.42865 39.4837 -5.84704 9.54927 39.4775 -5.84704 16.6699 38.1761 -5.84704 
29.5822 33.1771 -5.84704 23.7905 35.8269 -5.84704 2.42865 -38.0367 1.27358 
-33.1744 -31.8559 1.27358 -26.0538 -34.9365 1.27358 -18.9332 -36.7339 1.27358 
-11.8126 -37.5152 1.27358 2.0873 -38.029 1.27358 -4.69196 -37.8768 1.27358 
2.61899 -38.029 1.27358 2.42865 -38.029 1.30239 9.54927 -37.749 1.27358 
16.6699 -36.6568 1.27358 23.7905 -34.8507 1.27358 30.9111 -32.2676 1.27358 
-34.7264 -30.9084 1.27358 -40.295 -27.1379 1.27358 -33.1744 -30.9084 3.12453 
33.867 -30.9084 1.27358 30.9111 -30.9084 5.69046 38.0317 -28.7317 1.27358 
-43.9424 -23.7878 1.27358 -47.4157 -19.7509 1.27358 -40.295 -23.7878 6.73867 
44.4461 -23.7878 1.27358 45.1524 -23.0939 1.27358 -49.5645 -16.6672 1.27358 
-47.4157 -16.6672 5.48599 50.411 -16.6672 1.27358 52.273 -12.7898 1.27358 
-52.9257 -9.54657 1.27358 53.5371 -9.54657 1.27358 52.273 -9.54657 7.99602 
-54.2128 -2.42595 1.27358 55.5321 -2.42595 1.27358 -54.0541 4.69467 1.27358 
55.8419 4.69467 1.27358 -52.9031 11.8153 1.27358 53.768 11.8153 1.27358 
52.273 14.5691 1.27358 -49.4007 18.9359 1.27358 -47.4157 21.5927 1.27358 
-47.4157 18.9359 6.20954 49.2885 18.9359 1.27358 45.1524 23.6157 1.27358 
-43.2022 26.0565 1.27358 -40.295 28.2778 1.27358 -40.295 26.0565 7.8047 
-33.1744 31.8311 1.27358 30.9111 31.8512 1.27358 41.6292 26.0565 1.27358 
38.0317 28.0955 1.27358 38.0317 26.0565 6.99285 -27.7225 33.1771 1.27358 
-26.0538 33.5531 1.27358 -26.0538 33.1771 4.04291 -18.9332 34.794 1.27358 
-11.8126 36.0116 1.27358 -4.69196 37.4095 1.27358 2.42865 38.5565 1.27358 
9.54927 38.7582 1.27358 16.6699 37.7414 1.27358 28.2063 33.1771 1.27358 
23.7905 35.2668 1.27358 23.7905 33.1771 5.96273 -26.0538 -31.4758 8.3942 
-18.9332 -33.4054 8.3942 -11.8126 -34.8338 8.3942 -4.69196 -35.6475 8.3942 
2.42865 -35.844 8.3942 9.54927 -35.3546 8.3942 16.6699 -33.9486 8.3942 
23.7905 -32.268 8.3942 -27.2702 -30.9084 8.3942 -33.1744 -27.507 8.3942 
-26.0538 -30.9084 9.0559 -18.9332 -30.9084 11.0442 -11.8126 -30.9084 12.6188 
-4.69196 -30.9084 13.9328 2.42865 -30.9084 14.1296 9.54927 -30.9084 13.2517 
16.6699 -30.9084 12.1464 28.1578 -30.9084 8.3942 23.7905 -30.9084 10.4026 
30.9111 -30.0582 8.3942 38.0317 -26.6281 8.3942 -38.6091 -23.7878 8.3942 
-40.295 -22.4291 8.3942 -33.1744 -23.7878 11.5579 -26.0538 -23.7878 13.9999 
-18.9332 -23.7878 15.2558 41.8755 -23.7878 8.3942 38.0317 -23.7878 12.4742 
45.1524 -20.7389 8.3942 -45.4144 -16.6672 8.3942 -47.4157 -13.6805 8.3942 
-40.295 -16.6672 12.3776 -33.1744 -16.6672 15.3716 48.5483 -16.6672 8.3942 
45.1524 -16.6672 13.2179 -49.5468 -9.54657 8.3942 -47.4157 -9.54657 10.8809 
-40.295 -9.54657 15.3214 52.1904 -9.54657 8.3942 52.273 -9.29512 8.3942 
-51.1363 -2.42595 8.3942 -47.4157 -2.42595 12.796 54.3146 -2.42595 8.3942 
52.273 -2.42595 11.9572 -51.1623 4.69467 8.3942 -47.4157 4.69467 13.0274 
54.6456 4.69467 8.3942 52.273 4.69467 12.4883 -50.0151 11.8153 8.3942 
-47.4157 16.9936 8.3942 -47.4157 11.8153 11.612 52.3984 11.8153 8.3942 
52.273 12.0386 8.3942 52.273 11.8153 8.61913 -46.2986 18.9359 8.3942 
-40.295 25.7565 8.3942 -40.295 18.9359 14.4279 38.0317 25.5334 8.3942 
47.3124 18.9359 8.3942 45.1524 21.2143 8.3942 45.1524 18.9359 11.2338 
-39.9279 26.0565 8.3942 -33.1744 30.1113 8.3942 -33.1744 26.0565 13.9793 
-26.0538 32.5457 8.3942 16.6699 26.0565 15.4764 23.7905 31.8714 8.3942 
23.7905 26.0565 14.5256 36.9641 26.0565 8.3942 30.9111 28.8383 8.3942 
30.9111 26.0565 12.28 -22.2665 33.1771 8.3942 -18.9332 33.6941 8.3942 
-18.9332 33.1771 9.46239 -11.8126 33.7871 8.3942 -11.8126 33.1771 9.7045 
-4.69196 33.863 8.3942 -4.69196 33.1771 9.49896 2.42865 34.5958 8.3942 
2.42865 33.1771 10.1305 9.54927 34.8951 8.3942 9.54927 33.1771 10.4298 
19.3354 33.1771 8.3942 16.6699 33.905 8.3942 16.6699 33.1771 9.26552 
[...]
POINT_DATA 518
SCALARS ImageScalars float
LOOKUP_TABLE default
0 0 0 0 0 0 0 0 0 
0 0 0 0 0 0 0 0 0 
0 0 0 0 0 0 0 0 0 
0 0 0 0 0 0 0 0 0 
0 0 0 0 0 0 0 0 0 
0 0 0 0 0 0 0 0 0 
0 0 0 0 0 0 0 0 0 
0 0 0 0 0 0 0 0 0 
0 0 0 0 0 0 0 0 0 
0 0 0 0 0 0 0 0 0 
0 0 0 0 0 0 0 0 0 
0 0 0 0 0 0 0 0 0 
0 0 0 0 0 0 0 0 0 
0 0 0 0 0 0 0 0 0 
0 0 0 0 0 0 0 0 0 
0 0 0 0 0 0 0 0 0 
0 0 0 0 0 0 0 0 0 
0 0 0 0 0 0 0 0 0 
0 0 0 0 0 0 0 0 0 
0 0 0 0 0 0 0 0 0 
0 0 0 0 0 0 0 0 0 
0 0 0 0 0 0 0 0 0 
0 0 0 0 0 0 0 0 0 
0 0 0 0 0 0 0 0 0 
0 0 0 0 0 0 0 0 0 
0 0 0 0 0 0 0 0 0 
0 0 0 0 0 0 0 0 0 
0 0 0 0 0 0 0 0 0 
0 0 0 0 0 0 0 0 0 
0 0 0 0 0 0 0 0 0 
0 0 0 0 0 0 0 0 0 
0 0 0 0 0 0 0 0 0 
0 0 0 0 0 0 0 0 0 
0 0 0 0 0 0 0 0 0 
0 0 0 0 0 0 0 0 0 
0 0 0 0 0 0 0 0 0 
0 0 0 0 0 0 0 0 0 
0 0 0 0 0 0 0 0 0 
0 0 0 0 0 0 0 0 0 
0 0 0 0 0 0 0 0 0 
0 0 0 0 0 0 0 0 0 
0 0 0 0 0 0 0 0 0 
0 0 0 0 0 0 0 0 0 
0 0 0 0 0 0 0 0 0 
0 0 0 0 0 0 0 0 0 
0 0 0 0 0 0 0 0 0 
0 0 0 0 0 0 0 0 0 
0 0 0 0 0 0 0 0 0 
0 0 0 0 0 0 0 0 0 
0 0 0 0 0 0 0 0 0 
0 0 0 0 0 0 0 0 0 
0 0 0 0 0 0 0 0 0 
0 0 0 0 0 0 0 0 0 
0 0 0 0 0 0 0 0 0 
0 0 0 0 0 0 0 0 0 
0 0 0 0 0 0 0 0 0 
0 0 0 0 0 0 0 0 0 
0 0 0 0 0 
NORMALS Normals float
-0.140974 -0.0325453 -0.989478 -0.19615 -0.642411 -0.740832 -0.100272 -0.567678 -0.817122 
-0.109212 -0.503787 -0.856896 -0.0755692 -0.533063 -0.842694 0.0114 -0.553462 -0.832796 
0.125715 -0.532203 -0.837231 0.18376 -0.564811 -0.8045 -0.46188 -0.584065 -0.667484 
-0.200785 -0.44072 -0.874901 -0.075992 -0.271204 -0.959518 -0.0329034 -0.196318 -0.979988 
-0.052744 -0.0803699 -0.995369 -0.127843 -0.101347 -0.986603 0.0010256 -0.141832 -0.98989 
0.120459 -0.115099 -0.986023 0.129989 -0.19039 -0.973064 0.157403 -0.303791 -0.939646 
0.253525 -0.448913 -0.856856 -0.310956 -0.315658 -0.896475 -0.0380559 -0.208157 -0.977355 
0.0491065 -0.116217 -0.992009 0.101594 0.0583345 -0.993114 -0.00605353 0.175834 -0.984401 
-0.161553 0.17044 -0.972034 -0.00688788 0.134786 -0.990851 0.0866078 0.0605414 -0.994401 
0.0201389 -0.0372881 -0.999102 0.0188122 -0.12712 -0.991709 0.132851 -0.207677 -0.969134 
0.331484 -0.308856 -0.891474 -0.556788 -0.237716 -0.795914 -0.232846 -0.0789297 -0.969305 
0.000739422 -0.0688509 -0.997627 0.203021 -0.0349049 -0.978552 0.255642 0.082901 -0.963211 
0.0770182 0.17905 -0.980821 -0.171044 0.105159 -0.979635 -0.112519 0.228726 -0.966966 
-0.0555608 -0.103857 -0.993039 -0.0568271 -0.076814 -0.995425 -0.0291244 -0.0548748 -0.998068 
0.0786018 -0.0641083 -0.994843 0.271318 -0.120875 -0.95487 0.508349 -0.214643 -0.833972 
-0.474142 -0.0311539 -0.879897 -0.159358 0.00721571 -0.987194 0.00834255 0.0432757 -0.999028 
0.195671 0.00358438 -0.980663 0.28737 0.0130717 -0.957731 0.0235377 0.0488113 -0.998531 
-0.0925005 -0.0711656 -0.993166 -0.258358 0.111809 -0.959557 -0.192085 -0.134637 -0.972099 
0.0755186 -0.0448438 -0.996136 0.0279387 -0.00299955 -0.999605 0.0653005 0.00944711 -0.997821 
0.202087 -0.0475957 -0.97821 0.444305 -0.0933856 -0.890995 -0.4867 0.133352 -0.863331 
-0.172521 0.0395438 -0.984212 -0.00021506 0.0523169 -0.998631 0.175013 0.0656499 -0.982375 
0.289861 0.0144778 -0.956959 0.0038836 -0.0257158 -0.999662 -0.114684 -0.0207112 -0.993186 
-0.196349 -0.261311 -0.945073 -0.1696 -0.000842408 -0.985513 0.0682948 -0.0155075 -0.997545 
0.0247658 -0.0255272 -0.999367 0.0398531 -0.0254427 -0.998882 0.176695 0.0381856 -0.983525 
0.4498 0.0831024 -0.889255 -0.548443 0.311627 -0.77595 -0.221891 0.206269 -0.953004 
0.0385633 0.190637 -0.980903 0.159064 0.16299 -0.973721 0.229415 0.10429 -0.967725 
-0.0275331 -0.0541917 -0.998151 -0.338558 -0.103304 -0.935258 -0.143709 -0.0501442 -0.988349 
-0.183403 -0.307385 -0.933744 0.0116336 -0.0679798 -0.997619 0.0526574 -0.0552672 -0.997082 
0.0157768 -0.0167023 -0.999736 0.131703 0.0418892 -0.990404 0.290621 0.15254 -0.944601 
0.502566 0.277558 -0.818773 -0.290035 0.461246 -0.83853 -0.0387685 0.376903 -0.925441 
0.0945242 0.302655 -0.948401 0.0596316 0.193142 -0.979357 -0.202103 -0.0051055 -0.979351 
-0.151431 -0.0342709 -0.987874 -0.390314 -0.0761162 -0.91753 -0.0884205 -0.0255371 -0.995756 
-0.137477 -0.00572172 -0.990488 0.0879143 -0.000340777 -0.996128 0.120313 0.0400977 -0.991926 
0.125093 0.110138 -0.986013 0.209314 0.22386 -0.951879 0.382477 0.356206 -0.852543 
-0.298972 0.204807 -0.932025 -0.353413 0.184184 -0.917156 -0.0997997 0.248828 -0.963392 
0.0886977 0.259407 -0.961686 0.156209 0.286842 -0.945156 0.212621 0.347519 -0.913248 
0.354742 0.503651 -0.787714 -0.307569 0.588135 -0.747997 -0.0560619 0.606383 -0.793194 
0.11149 0.599996 -0.792196 0.181225 0.657577 -0.731266 -0.200732 -0.665583 -0.718822 
-0.110574 -0.628621 -0.769811 -0.0991668 -0.666864 -0.738551 -0.0607911 -0.72994 -0.680802 
0.00883375 -0.760486 -0.649294 0.112057 -0.712743 -0.692416 0.189784 -0.642612 -0.742315 
-0.466505 -0.594635 -0.654815 -0.230365 -0.659695 -0.715356 -0.317385 -0.610839 -0.725357 
-0.419933 -0.817959 -0.393191 0.238767 -0.61732 -0.749604 0.262288 -0.57978 -0.771402 
0.288957 -0.679458 -0.674419 0.301383 -0.544842 -0.782506 0.40847 -0.828403 -0.383275 
-0.473937 -0.589135 -0.65445 0.37291 -0.516003 -0.771154 0.422188 -0.472553 -0.773596 
0.485638 -0.588928 -0.646002 -0.611754 -0.457987 -0.644985 -0.636538 -0.434799 -0.637001 
-0.669671 -0.478022 -0.568362 0.499533 -0.387232 -0.774931 0.547945 -0.29507 -0.782745 
0.652261 -0.460806 -0.601842 -0.731805 -0.249552 -0.634181 0.558785 -0.231535 -0.796336 
0.887111 -0.301529 -0.349449 -0.762265 -0.0457671 -0.645645 -0.978976 -0.0578056 -0.195615 
0.578766 -0.0961804 -0.809802 0.838435 -0.109802 -0.533826 -0.733799 0.118427 -0.668965 
-0.979604 0.084554 -0.182283 0.60975 0.0816042 -0.788382 0.82782 0.0987877 -0.552228 
-0.635462 0.33268 -0.696787 -0.593808 0.417305 -0.687931 0.537825 0.287493 -0.792523 
0.528691 0.323765 -0.784641 -0.485775 0.509615 -0.710151 -0.696702 0.564584 -0.442551 
-0.343451 0.585446 -0.734366 -0.120118 0.604742 -0.787311 -0.0372331 0.508293 -0.860379 
-0.0880398 0.35764 -0.9297 0.49106 0.415513 -0.765643 0.450003 0.481559 -0.752063 
0.66765 0.522617 -0.530202 -0.434786 0.793589 -0.425651 -0.187301 0.717007 -0.671431 
-0.0820088 0.577442 -0.812302 -0.133322 0.351978 -0.926464 -0.106004 0.384631 -0.916963 
-0.324687 0.353493 -0.877281 0.309312 0.681949 -0.662776 0.423048 0.559315 -0.712879 
0.388787 0.595825 -0.702735 0.542288 0.700627 -0.46373 -0.286531 0.865076 -0.411757 
-0.339311 0.599136 -0.725193 -0.366777 0.697639 -0.615446 -0.304882 0.676068 -0.670804 
-0.064889 0.77086 -0.633691 0.11412 0.727273 -0.676794 0.265137 0.709949 -0.652438 
0.196622 0.709751 -0.676456 0.333699 0.774969 -0.536719 -0.422584 -0.889816 -0.172192 
-0.280316 -0.936346 -0.211375 -0.137353 -0.960041 -0.243835 -0.0517027 -0.969873 -0.238059 
-0.0318403 -0.975145 -0.219268 -0.00156148 -0.978202 -0.207652 0.00867761 -0.994917 0.100328 
0.0726351 -0.975834 -0.206088 0.179698 -0.957918 -0.223836 0.30822 -0.916812 -0.253882 
0.411023 -0.871996 -0.265863 -0.483479 -0.859469 -0.166018 -0.588123 -0.794992 -0.148657 
0.448018 -0.849677 -0.278081 0.553577 -0.774154 -0.306981 -0.711526 -0.688807 -0.138835 
-0.777088 -0.614003 -0.138325 0.664461 -0.674793 -0.321163 0.711194 -0.618076 -0.33494 
-0.865268 -0.485036 -0.126696 0.791019 -0.498717 -0.35436 0.8873 -0.303098 -0.347606 
-0.954546 -0.26329 -0.139715 -0.981025 -0.129231 -0.144531 0.887767 -0.301721 -0.347611 
-0.987007 -0.0589823 -0.149457 -0.996083 -0.0688659 0.0554655 0.909106 -0.12433 -0.397577 
-0.983628 0.0842925 -0.159285 -0.979402 0.124228 -0.159179 -0.994723 0.0846667 -0.0579483 
0.906682 0.109477 -0.40736 0.865776 0.342329 -0.365026 -0.92964 0.328089 -0.167708 
0.864814 0.34505 -0.364741 0.866905 0.346034 -0.358797 -0.79598 0.565947 -0.214755 
-0.723308 0.650166 -0.232616 0.754176 0.567788 -0.329901 0.689229 0.653774 -0.312319 
-0.528154 0.795714 -0.296467 -0.458343 0.831053 -0.315076 -0.285967 0.866612 -0.408908 
-0.193644 0.876022 -0.441686 0.452064 0.876643 -0.16473 0.603945 0.757353 -0.248329 
0.564396 0.797412 -0.213521 -0.271479 0.878342 -0.393464 -0.199484 0.971153 -0.130641 
-0.285207 0.876958 -0.386783 -0.31839 0.909641 -0.266799 -0.254231 0.957207 -0.138278 
-0.0838271 0.989321 -0.119234 0.0906069 0.986342 -0.137552 0.242281 0.953592 -0.17878 
0.43217 0.888034 -0.156926 0.361084 0.918937 -0.158662 0.00886989 -0.994262 0.106606 
-0.456569 -0.853483 0.25122 -0.31513 -0.922567 0.222627 -0.171193 -0.967531 0.185949 
-0.0784063 -0.987469 0.136956 0.0067128 -0.994307 0.106339 -0.0361783 -0.994131 0.101952 
0.0111545 -0.99422 0.10678 0.00888122 -0.994124 0.107887 0.0944108 -0.988767 0.115876 
0.196498 -0.967951 0.156396 0.283915 -0.946782 0.151643 0.386871 -0.914412 0.119085 
-0.482855 -0.837303 0.256465 -0.596105 -0.756368 0.269383 -0.45827 -0.821158 0.340129 
0.44267 -0.890844 0.102177 0.345506 -0.891929 0.291699 0.533666 -0.842534 0.0730556 
-0.672897 -0.685402 0.278269 -0.770507 -0.575432 0.274221 -0.558151 -0.645912 0.520832 
0.690807 -0.721633 0.045066 0.711978 -0.700982 0.0413846 -0.832138 -0.483872 0.27095 
-0.747288 -0.495441 0.442831 0.843625 -0.53666 0.0170937 0.909027 -0.416592 0.0109697 
-0.918267 -0.298326 0.26036 0.945269 -0.326265 0.00412648 0.886846 -0.33527 0.31796 
-0.966575 -0.0767464 0.244629 0.988344 -0.150572 -0.0224413 -0.971084 0.0826561 0.223971 
0.992939 0.115375 -0.0275758 -0.927329 0.311461 0.207494 0.926362 0.376506 -0.0098191 
0.877158 0.48017 0.00547181 -0.82952 0.527166 0.184373 -0.779641 0.604884 0.162098 
-0.77105 0.50167 0.392185 0.755238 0.654402 0.0370735 0.638307 0.767641 0.0573649 
-0.631359 0.76836 0.10492 -0.538267 0.839199 0.0775448 -0.577218 0.707175 0.408316 
-0.347659 0.937619 0.00182837 0.426597 0.878657 0.214424 0.553769 0.825691 0.107588 
0.499425 0.851321 0.16071 0.419526 0.829879 0.36783 -0.231617 0.972089 -0.0373697 
-0.19794 0.979021 -0.0483449 -0.20785 0.974562 0.0838239 -0.167919 0.98575 -0.0100515 
-0.178518 0.973405 0.143573 -0.171217 0.950537 0.25916 -0.0932046 0.951222 0.294093 
0.0550077 0.959914 0.274843 0.229389 0.940562 0.250448 0.41026 0.884166 0.223466 
0.377285 0.89683 0.230982 0.329281 0.842717 0.425914 -0.310066 -0.743621 0.592357 
-0.201389 -0.77951 0.593133 -0.133513 -0.831065 0.539913 -0.0616175 -0.8747 0.480732 
0.0167863 -0.880626 0.473515 0.115875 -0.852585 0.509579 0.189092 -0.841882 0.505449 
0.235817 -0.854713 0.462446 -0.331985 -0.732604 0.594203 -0.408279 -0.661716 0.62884 
-0.307535 -0.721447 0.620432 -0.190116 -0.664663 0.72255 -0.155991 -0.636739 0.755136 
-0.0848499 -0.642466 0.761602 0.0371583 -0.626839 0.778262 0.102438 -0.65427 0.749291 
0.136445 -0.711458 0.689355 0.283509 -0.859344 0.425617 0.211739 -0.811762 0.54425 
0.317167 -0.857207 0.40571 0.501825 -0.778188 0.377618 -0.496783 -0.612596 0.614763 
-0.52639 -0.59217 0.610121 -0.356942 -0.545341 0.758417 -0.217741 -0.415544 0.883126 
-0.155349 -0.337847 0.928292 0.595269 -0.716679 0.363354 0.468546 -0.693051 0.547855 
0.682322 -0.639962 0.35339 -0.646672 -0.475591 0.596346 -0.709716 -0.409849 0.572998 
-0.458669 -0.430613 0.7773 -0.245995 -0.331837 0.910698 0.768633 -0.535341 0.350162 
0.640861 -0.503739 0.579262 -0.763946 -0.305547 0.568355 -0.674307 -0.308866 0.670755 
-0.362324 -0.290303 0.885689 0.8796 -0.335335 0.337424 0.882374 -0.328452 0.336949 
-0.826189 -0.0976519 0.554866 -0.660755 -0.109125 0.742627 0.929329 -0.154447 0.335401 
0.839536 -0.151154 0.521854 -0.840835 0.0652806 0.537341 -0.68363 0.0530357 0.727899 
0.934087 0.120096 0.336242 0.82676 0.117961 0.550049 -0.814844 0.284901 0.504837 
-0.754755 0.430691 0.494823 -0.706162 0.27332 0.65317 0.857877 0.39124 0.333134 
0.854089 0.399045 0.333609 0.853662 0.39147 0.343529 -0.727927 0.481031 0.488602 
-0.578195 0.687279 0.439703 -0.544669 0.403459 0.735225 0.40269 0.812875 0.420802 
0.66121 0.656057 0.363855 0.596008 0.710103 0.374871 0.589679 0.633603 0.500825 
-0.568724 0.698375 0.43454 -0.39596 0.839372 0.372385 -0.404762 0.614925 0.676783 
-0.221586 0.92671 0.303495 0.0844205 0.476713 0.874996 0.28702 0.792151 0.538624 
0.151455 0.60023 0.785357 0.388577 0.815845 0.428257 0.346061 0.812977 0.468306 
0.286088 0.735477 0.614188 -0.144624 0.941862 0.303282 -0.0809858 0.947529 0.30924 
-0.0818783 0.9315 0.354406 -0.0111487 0.927917 0.372619 -0.000451836 0.907384 0.420303 
-0.0476191 0.855205 0.516098 -0.0235009 0.842695 0.537879 -0.0620032 0.801189 0.595191 
-0.0384312 0.768717 0.638434 0.0399845 0.796008 0.603964 0.0419873 0.741617 0.669508 
0.217366 0.788896 0.5748 0.172434 0.783159 0.597435 0.166173 0.761804 0.626132 
-0.171276 -0.409412 0.896128 -0.0902334 -0.527881 0.844512 0.0372327 -0.513976 0.856996 
0.078906 -0.476147 0.875818 0.0589317 -0.50024 0.863879 0.0880667 -0.589466 0.802978 
0.210708 -0.612593 0.761795 -0.148418 -0.309911 0.93911 -0.157872 -0.335546 0.928701 
-0.148495 -0.313432 0.937928 -0.178863 -0.334113 0.925406 -0.0930346 -0.36443 0.926572 
0.0410384 -0.327527 0.94395 0.063178 -0.322886 0.944327 0.0219847 -0.411843 0.91099 
0.0526106 -0.514962 0.855597 0.256213 -0.607851 0.75158 0.20059 -0.583921 0.786638 
0.402286 -0.545936 0.734928 -0.229443 -0.321308 0.918759 -0.240494 -0.324948 0.914643 
-0.105741 -0.249577 0.962564 -0.121754 -0.182021 0.975728 -0.213492 -0.214118 0.953192 
-0.0850947 -0.218018 0.972228 0.0796098 -0.140868 0.986822 0.00828149 -0.164658 0.986316 
-0.0898695 -0.202342 0.975183 -0.0129661 -0.228287 0.973508 0.143334 -0.300114 0.943073 
0.516808 -0.448896 0.728973 0.33847 -0.383919 0.859095 0.580417 -0.374711 0.722985 
-0.342798 -0.286627 0.894614 -0.361313 -0.274214 0.891213 -0.167203 -0.245653 0.954829 
-0.0424476 -0.192051 0.980467 -0.118204 -0.197354 0.97318 -0.241656 -0.292554 0.925211 
-0.00231398 -0.150191 0.988654 0.102158 -0.140895 0.98474 0.00155627 -0.168957 0.985622 
-0.0767547 -0.0130784 0.996964 -0.0604816 -0.0161922 0.998038 0.0515113 -0.134222 0.989612 
0.242552 -0.217686 0.9454 0.60921 -0.291123 0.737639 0.538414 -0.271064 0.797894 
-0.470995 -0.129374 0.872598 -0.360912 -0.13175 0.923247 -0.144907 -0.129394 0.980948 
-0.0732971 -0.155203 0.98516 -0.225104 -0.219622 0.94926 0.0711621 -0.0501507 0.996203 
0.0557017 -0.130463 0.989887 0.148074 -0.0686779 0.986589 0.0574185 0.0805302 0.995097 
-0.13829 0.0358339 0.989743 -0.0527041 -0.035549 0.997977 0.189159 -0.0838405 0.978361 
0.650079 -0.137818 0.747264 0.4695 -0.103208 0.87688 -0.516005 0.0312029 0.856017 
-0.372975 0.0158066 0.927707 -0.191068 -0.0361031 0.980913 -0.119139 -0.0902277 0.988769 
-0.161001 -0.0813555 0.983595 -0.0657334 0.0956778 0.99324 0.0489361 0.0723391 0.996179 
0.0805209 0.0439961 0.995781 0.231356 0.144956 0.962009 -9.42614e-05 0.0529169 0.998599 
-0.182472 0.0476138 0.982057 -0.0663569 0.0903291 0.993699 0.177298 0.0933226 0.979723 
0.66206 0.110362 0.74128 0.452695 0.0896371 0.887149 -0.494417 0.202168 0.845388 
-0.494145 0.302026 0.81523 -0.432095 0.169694 0.885719 -0.2434 0.0877647 0.965947 
-0.126194 0.0264595 0.991653 -0.0632564 0.0375245 0.997292 -0.00798398 0.130208 0.991454 
0.0235293 0.0987561 0.994833 0.119113 0.140667 0.982866 0.152086 0.116666 0.981457 
-0.0280195 0.0598218 0.997816 -0.0943873 0.133283 0.986573 0.00165381 0.222056 0.975032 
0.198465 0.307738 0.930542 0.566071 0.37208 0.735609 0.519835 0.436999 0.734033 
0.492755 0.358987 0.792667 -0.476376 0.37077 0.797242 -0.375839 0.496199 0.782644 
-0.315448 0.30704 0.897897 -0.171359 0.212256 0.962073 -0.0572056 0.183194 0.981411 
-0.00218446 0.198548 0.980089 0.0574291 0.220623 0.973667 0.124401 0.273108 0.953906 
0.12424 0.208991 0.969993 0.0832994 0.47291 0.877165 0.0234491 0.221278 0.974929 
0.112937 0.534164 0.837803 0.00120182 0.324106 0.94602 0.188681 0.581747 0.791183 
0.113851 0.440149 0.890678 0.375586 0.568346 0.732064 0.316268 0.601647 0.733482 
0.303563 0.551819 0.776753 -0.330508 0.567205 0.75435 -0.23824 0.632984 0.736596 
-0.235307 0.538407 0.809166 -0.0859142 0.69648 0.712414 -0.0723589 0.503662 0.860865 
0.0374564 0.695379 0.717666 0.0404622 0.50863 0.860034 0.0953175 0.669802 0.736397 
0.10162 0.55201 0.827622 0.0780308 0.579577 0.811173 0.0931231 0.53199 0.841614 
0.0830945 0.475283 0.8759 0.0667529 0.489747 0.869306 0.0711015 0.461562 0.884254 
-0.167428 -0.178155 0.969654 -0.167374 -0.17753 0.969778 -0.158811 -0.173106 0.972015 
-0.134992 -0.0884663 0.98689 -0.166816 -0.177082 0.969956 
