# vtk DataFile Version 4.2
vtk output
ASCII
DATASET POLYDATA
POINTS 552 float
-13.9066 -34.3859 -12.4364 -6.70608 -34.3859 -12.9845 -28.3075 -27.1855 -12.2447 
-21.107 -27.1855 -13.6839 -13.9066 -27.1855 -14.8873 -6.70608 -27.1855 -15.6518 
0.494392 -27.1855 -14.7981 7.69486 -27.1855 -12.1929 -35.508 -19.985 -13.0059 
-28.3075 -19.985 -13.6897 -21.107 -19.985 -14.2179 -13.9066 -19.985 -15.0607 
-6.70608 -19.985 -16.0739 0.494392 -19.985 -15.6344 7.69486 -19.985 -13.5583 
14.8953 -19.985 -13.0886 22.0958 -19.985 -14.2196 29.2963 -19.985 -15.1326 
36.4968 -19.985 -14.5563 43.6972 -19.985 -12.2525 -42.7084 -12.7845 -13.3207 
-35.508 -12.7845 -14.2771 -28.3075 -12.7845 -14.4679 -21.107 -12.7845 -14.3584 
-13.9066 -12.7845 -14.7427 -6.70608 -12.7845 -15.855 0.494392 -12.7845 -15.8112 
7.69486 -12.7845 -14.0201 14.8953 -12.7845 -14.2138 22.0958 -12.7845 -15.7427 
29.2963 -12.7845 -16.4991 36.4968 -12.7845 -16.5959 43.6972 -12.7845 -14.3767 
-42.7084 -5.58404 -14.0188 -35.508 -5.58404 -15.3037 -28.3075 -5.58404 -15.6193 
-21.107 -5.58404 -15.0272 -13.9066 -5.58404 -16.3071 -6.70608 -5.58404 -18.1914 
0.494392 -5.58404 -15.8524 7.69486 -5.58404 -17.3867 14.8953 -5.58404 -14.5651 
22.0958 -5.58404 -15.6009 29.2963 -5.58404 -16.6008 36.4968 -5.58404 -16.209 
43.6972 -5.58404 -15.1726 50.8977 -5.58404 -12.2696 -49.9089 1.61643 -12.6251 
-42.7084 1.61643 -15.2643 -35.508 1.61643 -16.3225 -28.3075 1.61643 -16.2924 
-21.107 1.61643 -15.7462 -13.9066 1.61643 -17.0862 -6.70608 1.61643 -19.1187 
0.494392 1.61643 -14.9514 7.69486 1.61643 -17.3556 14.8953 1.61643 -13.3994 
22.0958 1.61643 -14.8576 29.2963 1.61643 -16.2997 36.4968 1.61643 -16.0685 
43.6972 1.61643 -14.9224 50.8977 1.61643 -12.1798 -49.9089 8.8169 -12.1634 
-42.7084 8.8169 -15.9452 -35.508 8.8169 -17.2519 -28.3075 8.8169 -17.4823 
-21.107 8.8169 -17.3036 -13.9066 8.8169 -17.2204 -6.70608 8.8169 -18.4831 
0.494392 8.8169 -17.8536 7.69486 8.8169 -15.9015 14.8953 8.8169 -14.7363 
22.0958 8.8169 -15.9255 29.2963 8.8169 -16.455 36.4968 8.8169 -16.296 
43.6972 8.8169 -14.7138 -42.7084 16.0174 -15.3227 -35.508 16.0174 -17.4512 
-28.3075 16.0174 -18.048 -21.107 16.0174 -18.1009 -13.9066 16.0174 -17.3039 
-6.70608 16.0174 -16.8722 0.494392 16.0174 -16.351 7.69486 16.0174 -15.3508 
14.8953 16.0174 -15.6673 22.0958 16.0174 -16.3042 29.2963 16.0174 -16.4178 
36.4968 16.0174 -16.0167 43.6972 16.0174 -14.1308 -42.7084 23.2178 -13.7429 
-35.508 23.2178 -16.8798 -28.3075 23.2178 -17.3365 -21.107 23.2178 -17.8664 
-13.9066 23.2178 -17.0578 -6.70608 23.2178 -16.8165 0.494392 23.2178 -16.3439 
7.69486 23.2178 -16.0022 14.8953 23.2178 -15.6749 22.0958 23.2178 -15.8937 
29.2963 23.2178 -15.3655 36.4968 23.2178 -14.228 -35.508 30.4183 -13.3932 
-28.3075 30.4183 -15.1072 -21.107 30.4183 -15.8997 -13.9066 30.4183 -15.939 
-6.70608 30.4183 -16.2755 0.494392 30.4183 -16.0897 7.69486 30.4183 -15.1651 
14.8953 30.4183 -14.5889 22.0958 30.4183 -13.5038 -21.107 37.6188 -12.4303 
-13.9066 37.6188 -13.7758 -6.70608 37.6188 -13.087 0.494392 37.6188 -12.5292 
-13.9066 -34.7908 -12.147 -6.70608 -35.5473 -12.147 -28.3075 -27.4001 -12.147 
-28.3075 -34.3859 -7.75733 -16.2481 -34.3859 -12.147 -21.107 -32.4319 -12.147 
-21.107 -34.3859 -11.4532 -0.872565 -34.3859 -12.147 0.494392 -33.9079 -12.147 
0.494392 -34.3859 -11.8838 7.69486 -27.3175 -12.147 7.69486 -34.3859 -9.05572 
14.8953 -34.3859 -5.99473 -28.5957 -27.1855 -12.147 -35.508 -21.9964 -12.147 
-35.508 -27.1855 -9.24672 7.97097 -27.1855 -12.147 14.8953 -23.4771 -12.147 
14.8953 -27.1855 -11.1102 22.0958 -25.1893 -12.147 22.0958 -27.1855 -11.2651 
29.2963 -26.2389 -12.147 29.2963 -27.1855 -11.5306 36.4968 -24.568 -12.147 
36.4968 -27.1855 -10.2255 43.6972 -20.2232 -12.147 43.6972 -27.1855 -6.80803 
-37.7566 -19.985 -12.147 -42.7084 -15.07 -12.147 -42.7084 -19.985 -9.76681 
43.9169 -19.985 -12.147 50.8977 -19.985 -6.83276 -46.8382 -12.7845 -12.147 
-49.9089 -12.7845 -10.778 47.9575 -12.7845 -12.147 50.8977 -6.01147 -12.147 
50.8977 -12.7845 -9.92596 -47.6753 -5.58404 -12.147 -49.9089 -0.650514 -12.147 
-49.9089 -5.58404 -11.1978 51.0652 -5.58404 -12.147 58.0982 -5.58404 -5.54268 
-50.5887 1.61643 -12.147 -57.1094 1.61643 -5.49658 50.9495 1.61643 -12.147 
50.8977 2.14615 -12.147 58.0982 1.61643 -5.95231 -49.9296 8.8169 -12.147 
-49.9089 8.90242 -12.147 49.9723 8.8169 -12.147 50.8977 8.8169 -11.6926 
58.0982 8.8169 -5.07961 -47.9939 16.0174 -12.147 -49.9089 16.0174 -10.2355 
47.265 16.0174 -12.147 43.6972 20.5332 -12.147 50.8977 16.0174 -9.64255 
-45.6092 23.2178 -12.147 -42.7084 26.2697 -12.147 29.2963 30.3909 -12.147 
41.0442 23.2178 -12.147 36.4968 26.4113 -12.147 43.6972 23.2178 -10.1747 
-38.1247 30.4183 -12.147 -42.7084 30.4183 -6.92314 -35.508 32.1297 -12.147 
-28.3075 34.7088 -12.147 7.69486 36.676 -12.147 14.8953 34.5248 -12.147 
29.2152 30.4183 -12.147 22.0958 32.0982 -12.147 29.2963 30.4183 -12.1214 
36.4968 30.4183 -6.63498 -22.0452 37.6188 -12.147 -28.3075 37.6188 -8.77909 
-21.107 37.9775 -12.147 -13.9066 39.463 -12.147 -6.70608 38.6325 -12.147 
3.40634 37.6188 -12.147 0.494392 37.9831 -12.147 7.69486 37.6188 -10.885 
14.8953 37.6188 -6.86514 -28.3075 -37.2035 -4.94651 -21.107 -40.2614 -4.94651 
-13.9066 -41.0091 -4.94651 -6.70608 -41.1121 -4.94651 0.494392 -39.4956 -4.94651 
7.69486 -37.4812 -4.94651 14.8953 -35.2516 -4.94651 -34.0679 -34.3859 -4.94651 
-35.508 -33.4657 -4.94651 -35.508 -34.3859 -2.51451 19.4262 -34.3859 -4.94651 
22.0958 -33.8022 -4.94651 22.0958 -34.3859 -3.14854 29.2963 -32.9562 -4.94651 
36.4968 -31.2408 -4.94651 43.6972 -28.1638 -4.94651 -42.4147 -27.1855 -4.94651 
-42.7084 -26.9321 -4.94651 -42.7084 -27.1855 -4.56304 45.0257 -27.1855 -4.94651 
50.8977 -21.4269 -4.94651 -49.8781 -19.985 -4.94651 -49.9089 -19.9426 -4.94651 
-49.9089 -19.985 -4.88642 52.1496 -19.985 -4.94651 -54.4095 -12.7845 -4.94651 
55.3575 -12.7845 -4.94651 58.0982 -6.64934 -4.94651 -56.6716 -5.58404 -4.94651 
-57.1094 -1.70275 -4.94651 58.4904 -5.58404 -4.94651 -57.4066 1.61643 -4.94651 
-57.1094 2.83181 -4.94651 -57.1094 1.61643 -2.96917 58.766 1.61643 -4.94651 
-55.5429 8.8169 -4.94651 58.185 8.8169 -4.94651 58.0982 9.03952 -4.94651 
-53.0336 16.0174 -4.94651 -49.9089 22.5413 -4.94651 55.2447 16.0174 -4.94651 
50.8977 21.2637 -4.94651 -49.5318 23.2178 -4.94651 48.6589 23.2178 -4.94651 
43.6972 26.8885 -4.94651 -43.6702 30.4183 -4.94651 -42.7084 31.3245 -4.94651 
-42.7084 30.4183 -1.98206 -35.508 36.6242 -4.94651 22.0958 36.7318 -4.94651 
29.2963 34.3348 -4.94651 37.9755 30.4183 -4.94651 36.4968 31.2237 -4.94651 
36.4968 30.4183 1.04235 -33.3673 37.6188 -4.94651 -28.3075 39.6982 -4.94651 
-21.107 41.6889 -4.94651 -13.9066 42.6625 -4.94651 -6.70608 42.5207 -4.94651 
0.494392 41.2218 -4.94651 7.69486 39.6259 -4.94651 7.69486 37.6188 0.53631 
18.1453 37.6188 -4.94651 14.8953 38.3255 -4.94651 14.8953 37.6188 -2.40152 
-35.508 -35.5488 2.25397 -28.3075 -39.2607 2.25397 -21.107 -41.1977 2.25397 
-13.9066 -41.4968 2.25397 -6.70608 -41.4862 2.25397 0.494392 -39.9013 2.25397 
7.69486 -38.5371 2.25397 14.8953 -37.1737 2.25397 22.0958 -35.7202 2.25397 
-37.2061 -34.3859 2.25397 -42.7084 -30.4122 2.25397 -35.508 -34.3859 5.42781 
14.8953 -34.3859 9.32171 28.6739 -34.3859 2.25397 22.0958 -34.3859 5.36006 
29.2963 -34.2542 2.25397 36.4968 -31.9688 2.25397 43.6972 -28.211 2.25397 
-46.3527 -27.1855 2.25397 -49.9089 -23.2032 2.25397 36.4968 -27.1855 9.14614 
45.1228 -27.1855 2.25397 43.6972 -27.1855 4.19372 50.8977 -21.8076 2.25397 
-52.3452 -19.985 2.25397 -49.9089 -19.985 7.64079 52.5282 -19.985 2.25397 
50.8977 -19.985 5.10396 -56.4232 -12.7845 2.25397 56.6879 -12.7845 2.25397 
58.0982 -9.75386 2.25397 -56.9875 -5.58404 2.25397 59.8869 -5.58404 2.25397 
58.0982 -5.58404 7.9593 -56.3039 1.61643 2.25397 60.189 1.61643 2.25397 
58.0982 1.61643 8.46107 -54.8268 8.8169 2.25397 -49.9089 8.8169 9.00316 
59.4398 8.8169 2.25397 58.0982 11.904 2.25397 58.0982 8.8169 5.92742 
-51.4054 16.0174 2.25397 -49.9089 18.8081 2.25397 -49.9089 16.0174 4.24177 
55.9602 16.0174 2.25397 50.8977 21.3655 2.25397 -47.1399 23.2178 2.25397 
-42.7084 28.6626 2.25397 -42.7084 23.2178 6.83847 36.4968 30.2176 2.25397 
48.3018 23.2178 2.25397 43.6972 26.0475 2.25397 43.6972 23.2178 8.93367 
-40.8573 30.4183 2.25397 -35.508 34.4889 2.25397 -35.508 30.4183 6.65649 
7.69486 36.8698 2.25397 14.8953 36.1673 2.25397 22.0958 34.9286 2.25397 
22.0958 30.4183 8.21699 35.963 30.4183 2.25397 29.2963 32.6376 2.25397 
29.2963 30.4183 5.75495 -29.4417 37.6188 2.25397 -28.3075 38.1232 2.25397 
-28.3075 37.6188 2.97876 -21.107 40.2716 2.25397 -21.107 37.6188 6.22017 
-13.9066 40.7981 2.25397 -13.9066 37.6188 6.87891 -6.70608 40.2215 2.25397 
-6.70608 37.6188 5.85155 4.37619 37.6188 2.25397 0.494392 38.4213 2.25397 
0.494392 37.6188 3.46865 -28.3075 -35.7488 9.45444 -21.107 -38.0849 9.45444 
-13.9066 -38.5841 9.45444 -6.70608 -38.0311 9.45444 0.494392 -36.8837 9.45444 
7.69486 -35.785 9.45444 -42.7084 -27.248 9.45444 -31.4293 -34.3859 9.45444 
-35.508 -32.1345 9.45444 -28.3075 -34.3859 10.9551 -21.107 -34.3859 12.7674 
-13.9066 -34.3859 13.2877 -6.70608 -34.3859 12.9409 0.494392 -34.3859 12.151 
14.5914 -34.3859 9.45444 7.69486 -34.3859 11.04 14.8953 -34.2996 9.45444 
22.0958 -31.7368 9.45444 29.2963 -30.0287 9.45444 -42.7759 -27.1855 9.45444 
-42.7084 -27.1855 9.51432 -35.508 -27.1855 12.8077 -28.3075 -27.1855 15.3413 
-21.107 -27.1855 15.9531 -13.9066 -27.1855 16.4068 -6.70608 -27.1855 15.9124 
0.494392 -27.1855 15.7889 7.69486 -27.1855 15.3844 14.8953 -27.1855 13.9369 
22.0958 -27.1855 12.8849 35.8067 -27.1855 9.45444 29.2963 -27.1855 11.6248 
36.4968 -26.8815 9.45444 43.6972 -22.839 9.45444 -48.4935 -19.985 9.45444 
-49.9089 -18.128 9.45444 -42.7084 -19.985 13.8087 -35.508 -19.985 16.0978 
7.69486 -19.985 16.3957 14.8953 -19.985 15.4953 22.0958 -19.985 15.2531 
29.2963 -19.985 15.5106 36.4968 -19.985 14.3027 47.005 -19.985 9.45444 
43.6972 -19.985 11.6516 50.8977 -16.6823 9.45444 -52.4758 -12.7845 9.45444 
-49.9089 -12.7845 11.7965 -42.7084 -12.7845 14.9743 -6.70608 -12.7845 16.5922 
[...]
POINT_DATA 552
SCALARS ImageScalars float
LOOKUP_TABLE default
0 0 0 0 0 0 0 0 0 
0 0 0 0 0 0 0 0 0 
0 0 0 0 0 0 0 0 0 
0 0 0 0 0 0 0 0 0 
0 0 0 0 0 0 0 0 0 
0 0 0 0 0 0 0 0 0 
0 0 0 0 0 0 0 0 0 
0 0 0 0 0 0 0 0 0 
0 0 0 0 0 0 0 0 0 
0 0 0 0 0 0 0 0 0 
0 0 0 0 0 0 0 0 0 
0 0 0 0 0 0 0 0 0 
0 0 0 0 0 0 0 0 0 
0 0 0 0 0 0 0 0 0 
0 0 0 0 0 0 0 0 0 
0 0 0 0 0 0 0 0 0 
0 0 0 0 0 0 0 0 0 
0 0 0 0 0 0 0 0 0 
0 0 0 0 0 0 0 0 0 
0 0 0 0 0 0 0 0 0 
0 0 0 0 0 0 0 0 0 
0 0 0 0 0 0 0 0 0 
0 0 0 0 0 0 0 0 0 
0 0 0 0 0 0 0 0 0 
0 0 0 0 0 0 0 0 0 
0 0 0 0 0 0 0 0 0 
0 0 0 0 0 0 0 0 0 
0 0 0 0 0 0 0 0 0 
0 0 0 0 0 0 0 0 0 
0 0 0 0 0 0 0 0 0 
0 0 0 0 0 0 0 0 0 
0 0 0 0 0 0 0 0 0 
0 0 0 0 0 0 0 0 0 
0 0 0 0 0 0 0 0 0 
0 0 0 0 0 0 0 0 0 
0 0 0 0 0 0 0 0 0 
0 0 0 0 0 0 0 0 0 
0 0 0 0 0 0 0 0 0 
0 0 0 0 0 0 0 0 0 
0 0 0 0 0 0 0 0 0 
0 0 0 0 0 0 0 0 0 
0 0 0 0 0 0 0 0 0 
0 0 0 0 0 0 0 0 0 
0 0 0 0 0 0 0 0 0 
0 0 0 0 0 0 0 0 0 
0 0 0 0 0 0 0 0 0 
0 0 0 0 0 0 0 0 0 
0 0 0 0 0 0 0 0 0 
0 0 0 0 0 0 0 0 0 
0 0 0 0 0 0 0 0 0 
0 0 0 0 0 0 0 0 0 
0 0 0 0 0 0 0 0 0 
0 0 0 0 0 0 0 0 0 
0 0 0 0 0 0 0 0 0 
0 0 0 0 0 0 0 0 0 
0 0 0 0 0 0 0 0 0 
0 0 0 0 0 0 0 0 0 
0 0 0 0 0 0 0 0 0 
0 0 0 0 0 0 0 0 0 
0 0 0 0 0 0 0 0 0 
0 0 0 0 0 0 0 0 0 
0 0 0 
NORMALS Normals float
-0.0923302 -0.483644 -0.870382 0.031172 -0.530985 -0.846807 -0.261401 -0.323904 -0.909261 
-0.189999 -0.180629 -0.965025 -0.131606 -0.160036 -0.978299 0.0048616 -0.193231 -0.981141 
0.212501 -0.229514 -0.949824 0.254833 -0.251937 -0.933589 -0.229149 -0.291065 -0.928855 
-0.090646 -0.160216 -0.982911 -0.093053 -0.0435407 -0.994709 -0.129798 0.0105614 -0.991484 
-0.0412572 -0.0153632 -0.99903 0.174169 -0.0678855 -0.982373 0.169493 -0.108302 -0.979563 
-0.0357273 -0.20205 -0.978723 -0.143547 -0.283632 -0.948128 -0.0159261 -0.293065 -0.95596 
0.168704 -0.347605 -0.922339 0.379511 -0.364404 -0.850401 -0.221525 -0.281478 -0.933647 
-0.0691252 -0.172349 -0.982608 -0.00500704 -0.129111 -0.991617 -0.0191439 -0.0559196 -0.998252 
-0.105658 -0.0595895 -0.992615 -0.0747237 -0.136369 -0.987836 0.118132 -0.0144638 -0.992893 
0.11712 -0.213759 -0.96984 -0.120043 -0.101546 -0.987562 -0.1501 -0.0799626 -0.985432 
-0.0579761 -0.105887 -0.992687 0.150929 -0.105748 -0.982872 0.369412 -0.163516 -0.914766 
-0.244071 -0.117944 -0.962558 -0.103652 -0.135539 -0.985335 0.0194977 -0.125631 -0.991885 
-0.0260296 -0.0956773 -0.995072 -0.243229 -0.174784 -0.954091 0.0544646 -0.222766 -0.973349 
0.0791409 0.0543425 -0.995381 0.110788 -0.23781 -0.964973 0.0753352 0.0603921 -0.995328 
-0.142209 0.0574265 -0.988169 -0.0425003 0.014074 -0.998997 0.0943801 0.0344344 -0.994941 
0.239029 -0.0404582 -0.970169 0.516191 -0.117098 -0.848431 -0.491002 -0.063494 -0.868842 
-0.21331 -0.122581 -0.969264 -0.066028 -0.133624 -0.98883 0.0395421 -0.127213 -0.991087 
-0.035633 -0.153955 -0.987435 -0.230721 -0.0565926 -0.971373 0.145925 -0.0195399 -0.989103 
0.119767 -0.169016 -0.97831 0.165382 0.104133 -0.980717 0.110094 -0.00387559 -0.993914 
-0.205787 -0.0231308 -0.978323 -0.0765351 0.0101998 -0.997015 0.0913618 -0.00683665 -0.995794 
0.244669 0.0302439 -0.969135 0.474075 0.03295 -0.879868 -0.579786 0.106923 -0.807723 
-0.30808 -0.0051044 -0.951347 -0.0944722 -0.0779411 -0.992472 -0.00391132 -0.120835 -0.992665 
0.0182924 -0.163976 -0.986295 -0.0795958 -0.0133483 -0.996738 -0.0446728 0.148234 -0.987943 
0.154763 -0.0649932 -0.985811 0.223887 0.120406 -0.967149 -0.0159837 -0.163506 -0.986413 
-0.113196 -0.0953174 -0.98899 -0.0250552 -0.00822669 -0.999652 0.11305 0.00211481 -0.993587 
0.286591 0.0541918 -0.956519 -0.380555 0.139497 -0.914176 -0.175513 0.0213294 -0.984246 
-0.0438386 0.00835412 -0.999004 0.0516025 -0.0372122 -0.997974 0.0849049 0.0111123 -0.996327 
0.0652142 0.110489 -0.991735 0.105496 0.104046 -0.988962 0.0462212 -0.0132291 -0.998844 
-0.0658186 -0.0592661 -0.99607 -0.0519342 0.00122591 -0.99865 0.0179899 0.0758498 -0.996957 
0.165782 0.14757 -0.975059 0.368155 0.222287 -0.902801 -0.459746 0.331095 -0.82402 
-0.240716 0.271292 -0.93191 -0.063897 0.18007 -0.981576 0.0200212 0.153919 -0.987881 
0.0716641 0.0909778 -0.993271 0.048064 0.037883 -0.998126 0.0582611 0.0166246 -0.998163 
0.0465726 0.00874422 -0.998877 0.00780353 0.0750014 -0.997153 0.0219811 0.163891 -0.986234 
0.111614 0.269245 -0.956582 0.282549 0.402615 -0.870671 -0.305737 0.540767 -0.783643 
-0.169932 0.400103 -0.900578 -0.0474689 0.337428 -0.940154 -0.0251942 0.226989 -0.973571 
-0.0108105 0.221689 -0.975058 0.0729964 0.206798 -0.975657 0.106841 0.272428 -0.956226 
0.100018 0.349783 -0.931476 0.174869 0.51973 -0.836243 -0.230106 0.625592 -0.745444 
-0.0491369 0.565402 -0.82335 0.0841198 0.631228 -0.771022 0.0921785 0.704042 -0.70415 
-0.0900966 -0.505792 -0.857938 0.0378214 -0.588738 -0.807438 -0.264752 -0.331348 -0.905602 
-0.388093 -0.634922 -0.668025 -0.143397 -0.47335 -0.869125 -0.234167 -0.374737 -0.897072 
-0.257834 -0.46599 -0.846389 0.169884 -0.557486 -0.812618 0.206051 -0.538079 -0.817321 
0.203906 -0.570311 -0.795718 0.255985 -0.257616 -0.931722 0.311894 -0.658698 -0.684718 
0.235482 -0.788264 -0.568497 -0.263442 -0.330076 -0.906448 -0.253256 -0.341185 -0.905237 
-0.359483 -0.491223 -0.793393 0.247012 -0.257126 -0.934276 0.0105287 -0.282961 -0.959074 
0.0630614 -0.390212 -0.918563 -0.0692567 -0.452692 -0.888973 -0.0251936 -0.53925 -0.841769 
0.0337974 -0.525738 -0.849975 0.0492835 -0.581106 -0.812334 0.173947 -0.535168 -0.826643 
0.196793 -0.695427 -0.691125 0.382375 -0.375194 -0.844404 0.522547 -0.767569 -0.371191 
-0.26858 -0.317934 -0.909276 -0.258695 -0.321975 -0.910719 -0.393519 -0.410582 -0.822536 
0.386309 -0.367774 -0.845877 0.726219 -0.538747 -0.427034 -0.39819 -0.253382 -0.881613 
-0.555453 -0.255713 -0.791254 0.510483 -0.194235 -0.837663 0.521999 -0.122297 -0.844133 
0.654791 -0.249754 -0.713353 -0.397041 -0.0977466 -0.912581 -0.486066 -0.0685106 -0.871233 
-0.503183 -0.100962 -0.858262 0.522178 -0.118177 -0.844609 0.871066 -0.196327 -0.450222 
-0.52304 -0.0565471 -0.85043 -0.964195 0.0771336 -0.25373 0.476127 0.0327047 -0.878768 
0.475794 0.0413317 -0.878585 0.87476 0.0187172 -0.484195 -0.580631 0.107249 -0.807072 
-0.581374 0.107754 -0.80647 0.469297 0.136899 -0.872364 0.506875 0.15283 -0.848363 
0.881437 0.232133 -0.411319 -0.628193 0.158698 -0.761701 -0.78509 0.240313 -0.570861 
0.477309 0.266791 -0.837257 0.447996 0.419479 -0.789517 0.639138 0.360025 -0.679621 
-0.593297 0.385706 -0.706561 -0.52279 0.484046 -0.701705 0.263312 0.644542 -0.717797 
0.421673 0.492914 -0.76107 0.350566 0.572318 -0.74132 0.520058 0.60551 -0.602409 
-0.412807 0.593805 -0.690642 -0.665621 0.72084 -0.193232 -0.339939 0.620706 -0.706516 
-0.263622 0.632197 -0.728581 0.161468 0.701845 -0.693788 0.189403 0.627572 -0.755169 
0.263067 0.644738 -0.71771 0.213814 0.608662 -0.764077 0.264394 0.647064 -0.715125 
0.438402 0.858996 -0.264442 -0.246796 0.6438 -0.724302 -0.33444 0.854738 -0.396954 
-0.235039 0.640997 -0.73067 -0.0331642 0.703053 -0.710364 0.096249 0.683467 -0.723608 
0.124276 0.730545 -0.671461 0.0964777 0.725833 -0.681072 0.183877 0.823324 -0.536961 
0.213213 0.957166 -0.195892 -0.399121 -0.76612 -0.503749 -0.219694 -0.905099 -0.364047 
-0.0503073 -0.950135 -0.307756 0.100282 -0.95248 -0.28762 0.225265 -0.927795 -0.297409 
0.28068 -0.873953 -0.396767 0.232557 -0.834806 -0.499016 -0.488461 -0.720534 -0.492176 
-0.502047 -0.705737 -0.499884 -0.533935 -0.79258 -0.2945 0.179167 -0.845512 -0.503 
0.139317 -0.850584 -0.507047 0.166312 -0.921162 -0.351853 0.159601 -0.913638 -0.373889 
0.301478 -0.893267 -0.333445 0.529403 -0.813206 -0.241719 -0.560501 -0.657253 -0.503842 
-0.562258 -0.656306 -0.503119 -0.573097 -0.670701 -0.470872 0.574577 -0.780566 -0.246127 
0.75049 -0.595071 -0.287498 -0.707186 -0.542633 -0.453252 -0.708077 -0.542118 -0.452476 
-0.709809 -0.543628 -0.44793 0.782527 -0.553315 -0.285472 -0.799534 -0.386419 -0.459811 
0.84195 -0.355555 -0.405833 0.8834 -0.222418 -0.412474 -0.929171 -0.160356 -0.333057 
-0.964772 -0.0289848 -0.261488 0.886185 -0.19842 -0.418694 -0.974621 0.0828121 -0.207982 
-0.972416 0.12007 -0.199977 -0.993282 0.103451 -0.0518617 0.903262 0.0189211 -0.428671 
-0.941353 0.275225 -0.195205 0.885038 0.232359 -0.403382 0.883732 0.239733 -0.401928 
-0.917474 0.377658 -0.124964 -0.851274 0.524312 -0.0207068 0.813512 0.454124 -0.363276 
0.688895 0.667809 -0.281875 -0.841088 0.540759 -0.0122588 0.63401 0.73678 -0.234917 
0.543952 0.820158 -0.177362 -0.693567 0.718274 -0.0552085 -0.669216 0.740806 -0.0579354 
-0.677684 0.721474 0.142196 -0.492635 0.865379 -0.0918121 0.265626 0.959144 -0.097393 
0.377547 0.919115 -0.112629 0.458725 0.875598 -0.151329 0.443258 0.883689 -0.150388 
0.405569 0.880379 0.24586 -0.44219 0.890902 -0.103736 -0.337622 0.933208 -0.123024 
-0.20171 0.975098 -0.0921826 -0.0585887 0.995807 -0.0702514 0.106858 0.992509 -0.0592243 
0.196763 0.980451 -0.000542699 0.199632 0.979865 0.00334599 0.163203 0.909316 0.382765 
0.224557 0.972619 -0.0598795 0.195614 0.979601 -0.0460169 0.181223 0.976084 0.12008 
-0.526278 -0.848617 0.0536787 -0.370517 -0.925849 0.0743047 -0.142712 -0.983652 0.10983 
-0.0196351 -0.992823 0.117974 0.112039 -0.980238 0.163038 0.190808 -0.971116 0.143267 
0.185416 -0.97813 0.0942472 0.190477 -0.980448 0.0493925 0.196932 -0.976737 0.0848676 
-0.547201 -0.83563 0.0478861 -0.624533 -0.78098 0.00529145 -0.513513 -0.813741 0.272267 
0.214475 -0.766566 0.605291 0.250162 -0.961045 0.117526 0.213783 -0.930826 0.296411 
0.255612 -0.95901 0.122319 0.369257 -0.909797 0.189522 0.540106 -0.814301 0.212603 
-0.700621 -0.713269 0.0194214 -0.783094 -0.619888 0.0500225 0.308714 -0.68702 0.657798 
0.57792 -0.788257 0.21133 0.530245 -0.78425 0.322167 0.736261 -0.649227 0.19085 
-0.83062 -0.552942 0.0657757 -0.715824 -0.516072 0.470388 0.773583 -0.606439 0.183851 
0.693611 -0.62679 0.355019 -0.948545 -0.289689 0.127842 0.899984 -0.423808 0.102059 
0.93672 -0.339448 0.0856178 -0.973093 0.0109869 0.230149 0.971919 -0.228934 0.0544394 
0.859467 -0.247977 0.447017 -0.932372 0.144185 0.331501 0.99772 0.0268479 0.0619192 
0.881057 0.0498571 0.470376 -0.891428 0.301637 0.338189 -0.593434 0.309655 0.742933 
0.961236 0.263203 0.082151 0.918333 0.383531 0.0978151 0.904649 0.278879 0.322236 
-0.789567 0.460537 0.405574 -0.765761 0.486646 0.420459 -0.728703 0.462323 0.505222 
0.814313 0.564408 0.13542 0.649731 0.733864 0.198225 -0.727016 0.520787 0.44747 
-0.637454 0.628653 0.445475 -0.557501 0.452679 0.695898 0.389043 0.861459 0.326395 
0.572598 0.792856 0.208593 0.468812 0.850342 0.239024 0.366184 0.744737 0.557921 
-0.599608 0.667348 0.441721 -0.500946 0.739156 0.450224 -0.44687 0.586885 0.675184 
0.140607 0.85424 0.500504 0.126033 0.883683 0.450799 0.224811 0.877529 0.423561 
0.162311 0.664977 0.729013 0.383608 0.862818 0.329227 0.312571 0.868994 0.383599 
0.264858 0.797974 0.541376 -0.370326 0.830315 0.416456 -0.340814 0.84662 0.408754 
-0.345342 0.823209 0.450629 -0.169471 0.902417 0.396135 -0.171593 0.77828 0.604017 
0.00138 0.905141 0.425109 0.0176997 0.766732 0.641724 0.157334 0.871061 0.465294 
0.150762 0.779253 0.608306 0.172407 0.85313 0.492387 0.197674 0.852227 0.484391 
0.196599 0.828294 0.52467 -0.314921 -0.734632 0.60095 -0.150958 -0.774648 0.614111 
0.00303105 -0.801184 0.59841 0.0995492 -0.787189 0.608625 0.130604 -0.799728 0.585984 
0.156861 -0.799851 0.579339 -0.555381 -0.58949 0.586561 -0.374577 -0.714703 0.590671 
-0.427261 -0.664726 0.612852 -0.295346 -0.677391 0.67373 -0.118572 -0.585545 0.801921 
-0.012096 -0.549987 0.835086 0.0652929 -0.580942 0.811322 0.106236 -0.662241 0.741722 
0.211816 -0.759984 0.614458 0.156645 -0.72318 0.672661 0.213913 -0.756213 0.618372 
0.202078 -0.70565 0.679134 0.230048 -0.671404 0.704482 -0.556809 -0.588666 0.586034 
-0.553583 -0.588094 0.589654 -0.338193 -0.479223 0.80992 -0.195236 -0.330006 0.923569 
-0.0646574 -0.284213 0.956578 0.0025643 -0.219818 0.975537 0.040083 -0.226571 0.97317 
0.0338614 -0.272141 0.961661 0.123157 -0.293782 0.947905 0.155221 -0.349168 0.924115 
0.150599 -0.437848 0.886346 0.295623 -0.668043 0.682881 0.19209 -0.556467 0.80836 
0.301494 -0.66874 0.679624 0.447119 -0.596121 0.666877 -0.629532 -0.467058 0.620924 
-0.665593 -0.395372 0.632982 -0.453902 -0.324078 0.830028 -0.194033 -0.281561 0.93972 
0.10145 -0.0270519 0.994473 0.0789665 -0.0812199 0.993563 0.000830158 -0.194445 0.980913 
0.0612123 -0.332821 0.941001 0.202541 -0.411494 0.888623 0.50533 -0.567417 0.650138 
0.41711 -0.5111 0.751529 0.602509 -0.512456 0.61186 -0.74408 -0.16641 0.647034 
-0.601769 -0.149769 0.784502 -0.342111 -0.058934 0.93781 0.0845529 -0.0340715 0.995836 
0.0503649 0.113187 0.992296 0.092001 0.0906013 0.991629 -0.00719573 0.0475856 0.998841 
-0.125844 -0.0960814 0.987386 0.301016 -0.312716 0.900887 0.705225 -0.426091 0.56666 
0.564018 -0.414839 0.713998 -0.659607 0.0591888 0.749276 -0.589164 0.0633312 0.805528 
-0.361512 0.0536355 0.930824 0.152086 0.0885427 0.984393 0.0342352 -0.0451365 0.998394 
-0.112687 -0.0198479 0.993432 0.792033 -0.241254 0.560786 0.491048 -0.232719 0.839473 
-0.657145 0.118562 0.744381 -0.58651 0.265907 0.765049 -0.588244 0.11698 0.800178 
-0.358406 0.161604 0.919472 -0.215055 0.126539 0.968369 0.0808957 -0.0450155 0.995706 
-0.0479662 -0.00385614 0.998842 0.838194 0.0494864 0.543122 0.485743 0.0148832 0.873975 
-0.558749 0.303735 0.771715 -0.382456 0.254022 0.888369 -0.259178 0.189661 0.947024 
-0.115533 0.172144 0.978273 0.0983912 0.150297 0.983733 0.145571 -0.00502701 0.989335 
0.0787975 0.14391 0.986449 -0.144519 0.0844643 0.985891 -0.208133 0.157278 0.965373 
0.764446 0.28208 0.5797 0.502104 0.269584 0.821715 -0.51809 0.329227 0.789425 
-0.504838 0.333975 0.79599 -0.495159 0.31474 0.809788 -0.283665 0.261322 0.922629 
-0.15069 0.22954 0.961563 -0.0644601 0.180351 0.981488 0.00113617 0.145708 0.989327 
0.0299217 0.119857 0.99234 0.0812226 0.0983573 0.991831 0.0755917 0.0506423 0.995852 
-0.040108 0.109583 0.993168 -0.107878 0.233922 0.966252 -0.0547602 0.360148 0.931287 
0.0674509 0.423173 0.903535 0.355936 0.725411 0.589142 0.277139 0.484074 0.82998 
0.603238 0.553191 0.574529 0.558945 0.602153 0.570081 0.556767 0.55357 0.619331 
-0.406924 0.410319 0.81612 -0.373963 0.448819 0.811611 -0.349933 0.39752 0.848248 
-0.227781 0.297871 0.927032 -0.131082 0.261546 0.956248 -0.0332897 0.22158 0.974574 
0.0459124 0.239844 0.969725 0.0758157 0.269597 0.959984 0.0833879 0.252192 0.964078 
0.0648829 0.29663 0.952786 0.134508 0.589561 0.796446 0.0626773 0.414626 0.907831 
0.181772 0.64591 0.741458 0.112316 0.540477 0.833829 0.324834 0.726786 0.605198 
0.2047 0.692804 0.691462 0.171439 0.671483 0.720916 -0.307308 0.514816 0.800329 
-0.288561 0.526085 0.79998 -0.281025 0.507446 0.814569 -0.148587 0.584659 0.797556 
-0.128934 0.453022 0.882127 0.00740686 0.614671 0.788749 -0.0197781 0.455152 0.890194 
0.109936 0.619018 0.777644 0.0788151 0.493434 0.866205 0.138794 0.629636 0.764392 
0.117375 0.567742 0.814796 0.085553 0.649554 0.755487 0.0837815 0.631594 0.770759 
0.0934291 0.613765 0.783941 0.0881859 0.615318 0.783331 0.0884062 0.611007 0.786673 
-0.119271 -0.221818 0.967766 -0.0282984 -0.222072 0.97462 0.015263 -0.172089 0.984963 
0.014694 -0.0836004 0.996391 0.0311433 -0.106155 0.993862 -0.137268 -0.229955 0.963472 
-0.19981 -0.152774 0.967851 -0.0849242 -0.183241 0.979393 0.00990818 -0.158058 0.98738 
0.0391434 -0.090859 0.995094 0.0663201 -0.0374745 0.997094 0.00701314 -0.0466651 0.998886 
0.0704509 -0.035426 0.996886 0.0443623 0.0596929 0.997231 0.0319696 -0.0476917 0.99835 
-0.0401925 -0.206941 0.977527 0.120119 -0.279235 0.95268 -0.230698 -0.0583967 0.971271 
-0.207822 -0.0621243 0.976192 -0.0827619 -0.070592 0.994066 0.0257627 -0.0940271 0.995236 
0.0864786 -0.0396977 0.995462 0.115985 -0.13001 0.984705 0.098485 -0.0388018 0.994382 
-0.0968739 -0.136587 0.98588 -0.209091 -0.0867986 0.974037 -0.078241 -0.162152 0.983659 
0.158252 -0.269672 0.94986 0.107825 -0.257889 0.960139 0.238576 -0.228044 0.943969 
-0.244046 0.0558162 0.968156 -0.214175 0.092906 0.972367 -0.211595 0.0571611 0.975684 
-0.113564 0.0441638 0.992549 -0.0490213 -0.00207641 0.998796 0.089444 -0.111721 0.989706 
0.223291 -0.0288954 0.974324 0.260628 -0.0912632 0.961116 -0.00957826 0.0418263 0.999079 
-0.210802 -0.0855979 0.973774 -0.212254 -0.0864452 0.973383 -0.105801 -0.0997527 0.989371 
0.033807 -0.133011 0.990538 0.290222 -0.20811 0.934056 0.204806 -0.19093 0.96 
-0.189192 0.122395 0.974282 -0.118222 0.165731 0.979059 -0.141659 0.120254 0.982584 
-0.12711 0.124999 0.983981 0.02483 0.116479 0.992883 0.195548 0.0104974 0.980638 
0.106242 0.147334 0.983364 0.281804 0.058322 0.957698 -0.00709833 0.0422951 0.99908 
-0.0134862 0.0433491 0.998969 -0.00926486 0.0505919 0.998676 -0.0115228 0.0461501 0.998868 
-0.148533 0.00654368 0.988886 -0.207498 0.123081 0.970462 -0.202934 0.0109252 0.979131 
-0.116816 0.00256267 0.99315 0.0183082 0.0112502 0.999769 0.405531 0.01407 0.913973 
0.204929 0.0129375 0.978691 -0.0993814 0.1737 0.979771 -0.054085 0.179712 0.982231 
-0.0525523 0.178865 0.982469 0.093103 0.157739 0.983082 0.0150116 0.199978 0.979685 
0.0235711 0.241782 0.970044 -0.195736 0.159855 0.96754 -0.0773575 0.295704 0.952142 
-0.103452 0.169506 0.980084 0.0530607 0.336462 0.940201 0.0439964 0.201465 0.978507 
0.26974 0.217199 0.938118 0.221257 0.269032 0.937372 0.210888 0.203281 0.95614 

