# vtk DataFile Version 4.2
vtk output
ASCII
DATASET POLYDATA
POINTS 559 float
-38.3911 -5.07405 -21.875 -30.7612 -5.07405 -21.7758 -38.3911 2.55581 -21.6037 
-38.3911 -27.9636 -15.1837 -30.7612 -27.9636 -16.9115 -23.1314 -27.9636 -17.1439 
-15.5015 -27.9636 -16.3875 -7.87166 -27.9636 -14.4426 -46.021 -20.3338 -16.7083 
-38.3911 -20.3338 -19.34 -30.7612 -20.3338 -20.1331 -23.1314 -20.3338 -19.9035 
-15.5015 -20.3338 -18.5561 -7.87166 -20.3338 -17.1791 -0.241798 -20.3338 -14.8229 
-53.6508 -12.7039 -14.0476 -46.021 -12.7039 -19.1993 -38.3911 -9.69015 -21.5122 
-38.3911 -12.7039 -21.2376 -30.7612 -11.1619 -21.5122 -30.7612 -12.7039 -21.4461 
-23.1314 -12.7039 -20.3517 -15.5015 -12.7039 -18.6305 -7.87166 -12.7039 -17.773 
-0.241798 -12.7039 -16.3864 7.38806 -12.7039 -15.8808 -53.6508 -5.07405 -15.2452 
-39.6253 -5.07405 -21.5122 -46.021 -5.07405 -19.3793 -29.3341 -5.07405 -21.5122 
-30.7612 0.549367 -21.5122 -23.1314 -5.07405 -20.2557 -15.5015 -5.07405 -17.8339 
-7.87166 -5.07405 -18.2599 -0.241798 -5.07405 -17.0047 7.38806 -5.07405 -16.4476 
-53.6508 2.55581 -15.6061 -38.7363 2.55581 -21.5122 -46.021 2.55581 -19.3918 
-34.5106 2.55581 -21.5122 -38.3911 3.41462 -21.5122 -30.7612 2.55581 -21.414 
-23.1314 2.55581 -20.0681 -15.5015 2.55581 -17.7216 -7.87166 2.55581 -18.2575 
-0.241798 2.55581 -15.3666 7.38806 2.55581 -17.491 -53.6508 10.1857 -14.6992 
-46.021 10.1857 -19.2042 -38.3911 10.1857 -20.708 -30.7612 10.1857 -20.8073 
-23.1314 10.1857 -20.0001 -15.5015 10.1857 -18.6288 -7.87166 10.1857 -17.6105 
-0.241798 10.1857 -15.9946 7.38806 10.1857 -16.5428 37.9075 10.1857 -13.9319 
45.5374 10.1857 -14.3293 -46.021 17.8155 -16.7992 -38.3911 17.8155 -19.1924 
-30.7612 17.8155 -19.7016 -23.1314 17.8155 -19.5441 -15.5015 17.8155 -18.3379 
-7.87166 17.8155 -17.2683 -0.241798 17.8155 -16.7139 7.38806 17.8155 -15.8277 
30.2776 17.8155 -14.2317 -38.3911 25.4454 -16.2899 -30.7612 25.4454 -17.5662 
-23.1314 25.4454 -17.7842 -15.5015 25.4454 -17.3201 -7.87166 25.4454 -17.3167 
-0.241798 25.4454 -17.1369 7.38806 25.4454 -15.5248 -23.1314 33.0752 -14.0587 
-15.5015 33.0752 -15.0375 -7.87166 33.0752 -15.2178 -0.241798 33.0752 -15.2374 
7.38806 33.0752 -14.3762 -38.3911 -29.1991 -13.8824 -30.7612 -31.5406 -13.8824 
-30.7612 -35.5935 -8.01789 -23.1314 -32.5646 -13.8824 -23.1314 -35.5935 -10.7298 
-15.5015 -31.6428 -13.8824 -15.5015 -35.5935 -10.4251 -7.87166 -28.8061 -13.8824 
-7.87166 -35.5935 -8.66996 -40.609 -27.9636 -13.8824 -46.021 -24.2422 -13.8824 
-46.021 -27.9636 -9.15869 -6.40791 -27.9636 -13.8824 -0.241798 -22.6512 -13.8824 
-0.241798 -27.9636 -11.3462 7.38806 -27.9636 -7.849 -49.5421 -20.3338 -13.8824 
-53.6508 -13.0497 -13.8824 -53.6508 -20.3338 -8.21046 3.68125 -20.3338 -13.8824 
7.38806 -18.0519 -13.8824 7.38806 -20.3338 -12.8308 15.0179 -20.3338 -8.7076 
22.6478 -20.3338 -6.55376 30.2776 -20.3338 -7.91456 37.9075 -20.3338 -7.45392 
45.5374 -20.3338 -7.11571 53.1672 -20.3338 -7.01786 -53.8316 -12.7039 -13.8824 
13.4269 -12.7039 -13.8824 15.0179 -12.7039 -12.9397 22.6478 -12.7039 -9.69033 
30.2776 -12.7039 -9.9963 37.9075 -12.7039 -10.8362 45.5374 -12.7039 -10.3246 
53.1672 -12.7039 -10.4567 60.7971 -12.7039 -7.32195 -55.3872 -5.07405 -13.8824 
13.3701 -5.07405 -13.8824 15.0179 -5.07405 -13.1058 22.6478 -5.07405 -11.3037 
30.2776 -5.07405 -12.4149 37.9075 -5.07405 -12.6279 45.5374 -5.07405 -12.6995 
53.1672 -5.07405 -11.3782 60.7971 -5.07405 -8.17531 -55.9382 2.55581 -13.8824 
-61.2807 2.55581 -6.38575 14.5406 2.55581 -13.8824 15.0179 2.55581 -13.6413 
22.6478 2.55581 -12.4967 30.2776 2.55581 -12.9622 37.9075 9.10012 -13.8824 
37.9075 2.55581 -13.582 45.5374 3.78474 -13.8824 45.5374 2.55581 -13.8 
53.1672 2.55581 -12.1422 60.7971 2.55581 -8.82283 -54.7742 10.1857 -13.8824 
-53.6508 12.5627 -13.8824 12.8077 10.1857 -13.8824 15.0179 10.1857 -12.8381 
22.6478 10.1857 -13.4253 37.0222 10.1857 -13.8824 30.2776 14.2073 -13.8824 
30.2776 10.1857 -13.5047 37.9075 11.1974 -13.8824 46.6778 10.1857 -13.8824 
45.5374 13.6024 -13.8824 53.1672 10.1857 -11.955 60.7971 10.1857 -8.24056 
-50.7255 17.8155 -13.8824 -53.6508 17.8155 -11.3507 -46.021 23.8594 -13.8824 
13.4913 17.8155 -13.8824 15.0179 17.8155 -13.402 27.0623 17.8155 -13.8824 
22.6478 17.8155 -13.417 34.1766 17.8155 -13.8824 30.2776 19.2773 -13.8824 
37.9075 17.8155 -13.5557 45.5374 17.8155 -13.2932 53.1672 17.8155 -12.833 
-44.1377 25.4454 -13.8824 -46.021 25.4454 -12.8161 -38.3911 28.7339 -13.8824 
-30.7612 32.1822 -13.8824 12.7457 25.4454 -13.8824 15.0179 25.4454 -13.2481 
22.6478 25.4454 -12.603 30.2776 25.4454 -12.4236 37.9075 25.4454 -12.4662 
45.5374 25.4454 -10.755 53.1672 25.4454 -7.69076 -38.3911 33.0752 -8.89438 
-24.8104 33.0752 -13.8824 -30.7612 33.0752 -13.027 -23.1314 33.2797 -13.8824 
-15.5015 34.7532 -13.8824 -7.87166 35.3742 -13.8824 -0.241798 35.5585 -13.8824 
8.70015 33.0752 -13.8824 7.38806 33.8966 -13.8824 15.0179 33.0752 -11.0277 
22.6478 33.0752 -9.42354 30.2776 33.0752 -8.51558 37.9075 33.0752 -6.70063 
-7.87166 40.7051 -7.48592 -0.241798 40.7051 -8.02777 -30.7612 -36.6689 -6.25251 
-23.1314 -38.7509 -6.25251 -15.5015 -38.9794 -6.25251 -7.87166 -37.7076 -6.25251 
-46.021 -29.6103 -6.25251 -33.7933 -35.5935 -6.25251 -38.3911 -33.9332 -6.25251 
-2.67546 -35.5935 -6.25251 -0.241798 -34.2858 -6.25251 -0.241798 -35.5935 -4.79469 
7.38806 -29.9684 -6.25251 7.38806 -35.5935 -1.05156 -48.1039 -27.9636 -6.25251 
-53.6508 -21.8996 -6.25251 11.0852 -27.9636 -6.25251 15.0179 -24.9739 -6.25251 
15.0179 -27.9636 -4.67881 22.6478 -20.9854 -6.25251 22.6478 -27.9636 -3.05685 
30.2776 -23.8338 -6.25251 30.2776 -27.9636 -2.87606 37.9075 -23.1889 -6.25251 
37.9075 -27.9636 -3.00619 45.5374 -21.5388 -6.25251 45.5374 -27.9636 -1.16467 
53.1672 -21.483 -6.25251 53.1672 -27.9636 -0.22163 -54.7646 -20.3338 -6.25251 
54.7242 -20.3338 -6.25251 60.7971 -14.7117 -6.25251 60.7971 -20.3338 -0.626429 
-58.7755 -12.7039 -6.25251 62.3024 -12.7039 -6.25251 -60.3267 -5.07405 -6.25251 
-61.2807 2.02819 -6.25251 63.8888 -5.07405 -6.25251 68.4269 -5.07405 0.939473 
-61.343 2.55581 -6.25251 -61.2807 3.44879 -6.25251 63.9271 2.55581 -6.25251 
-60.7195 10.1857 -6.25251 62.4654 10.1857 -6.25251 60.7971 17.3833 -6.25251 
-57.6495 17.8155 -6.25251 -53.6508 25.0103 -6.25251 60.6905 17.8155 -6.25251 
60.7971 17.8155 -5.38775 -53.3092 25.4454 -6.25251 -46.021 31.0522 -6.25251 
45.5374 31.3858 -6.25251 54.8785 25.4454 -6.25251 53.1672 27.024 -6.25251 
-42.1294 33.0752 -6.25251 -38.3911 34.7402 -6.25251 -30.7612 37.1461 -6.25251 
-23.1314 38.9511 -6.25251 -15.5015 40.2374 -6.25251 7.38806 40.218 -6.25251 
15.0179 37.6074 -6.25251 22.6478 35.9521 -6.25251 30.2776 35.239 -6.25251 
39.4609 33.0752 -6.25251 37.9075 33.4846 -6.25251 -12.094 40.7051 -6.25251 
-7.87166 41.2567 -6.25251 -7.87166 40.7051 -3.07296 4.62056 40.7051 -6.25251 
-0.241798 41.4857 -6.25251 -0.241798 40.7051 -1.75278 -30.7612 -38.7739 1.37735 
-23.1314 -41.6792 1.37735 -15.5015 -42.9461 1.37735 -7.87166 -42.387 1.37735 
-0.241798 -39.6693 1.37735 7.38806 -37.3196 1.37735 -46.021 -30.1515 1.37735 
-37.3533 -35.5935 1.37735 -38.3911 -35.0512 1.37735 14.2182 -35.5935 1.37735 
15.0179 -35.3178 1.37735 15.0179 -35.5935 2.26154 22.6478 -33.1861 1.37735 
22.6478 -35.5935 7.44881 30.2776 -31.7395 1.37735 37.9075 -30.6983 1.37735 
45.5374 -30.0104 1.37735 53.1672 -29.0171 1.37735 -48.4751 -27.9636 1.37735 
-53.6508 -22.1835 1.37735 -46.021 -27.9636 5.5682 54.8944 -27.9636 1.37735 
60.7971 -21.9648 1.37735 -55.0067 -20.3338 1.37735 -53.6508 -20.3338 3.94337 
62.4566 -20.3338 1.37735 60.7971 -20.3338 7.45714 -58.9054 -12.7039 1.37735 
66.8639 -12.7039 1.37735 68.4269 -5.66971 1.37735 -60.4514 -5.07405 1.37735 
-61.2807 1.13081 1.37735 68.4269 -3.9948 1.37735 68.4269 -5.07405 1.67337 
-61.4689 2.55581 1.37735 -61.2807 4.14113 1.37735 -61.2807 2.55581 1.79097 
67.6941 2.55581 1.37735 -60.5631 10.1857 1.37735 65.019 10.1857 1.37735 
60.7971 10.1857 5.93952 -58.2714 17.8155 1.37735 -53.6508 25.2455 1.37735 
61.3812 17.8155 1.37735 60.7971 18.7283 1.37735 60.7971 17.8155 2.07087 
-53.4863 25.4454 1.37735 -46.021 31.7339 1.37735 45.5374 32.5688 1.37735 
55.3358 25.4454 1.37735 53.1672 27.7487 1.37735 53.1672 25.4454 3.3444 
-43.4115 33.0752 1.37735 -38.3911 35.438 1.37735 -38.3911 33.0752 6.71998 
-30.7612 37.3507 1.37735 -23.1314 38.519 1.37735 -15.5015 39.3946 1.37735 
-7.87166 39.8284 1.37735 -0.241798 40.0903 1.37735 7.38806 39.4032 1.37735 
15.0179 37.899 1.37735 15.0179 33.0752 7.75432 22.6478 36.8264 1.37735 
22.6478 33.0752 7.11656 30.2776 36.4654 1.37735 30.2776 33.0752 6.56466 
44.0088 33.0752 1.37735 37.9075 34.936 1.37735 37.9075 33.0752 4.43135 
-30.7612 -37.0194 9.00721 -23.1314 -40.6731 9.00721 -15.5015 -43.0339 9.00721 
-7.87166 -42.6546 9.00721 -0.241798 -40.5515 9.00721 7.38806 -38.2254 9.00721 
15.0179 -37.0982 9.00721 22.6478 -36.0267 9.00721 -33.0772 -35.5935 9.00721 
-38.3911 -31.4254 9.00721 -30.7612 -35.5935 10.9443 -23.1314 -35.5935 14.0532 
-7.87166 -35.5935 15.8528 -0.241798 -35.5935 14.4339 7.38806 -35.5935 13.0793 
15.0179 -35.5935 11.5654 25.6632 -35.5935 9.00721 22.6478 -35.5935 9.81553 
30.2776 -34.8867 9.00721 37.9075 -33.4765 9.00721 45.5374 -31.0123 9.00721 
53.1672 -28.3045 9.00721 -43.0773 -27.9636 9.00721 -46.021 -25.5878 9.00721 
-38.3911 -27.9636 12.3822 -30.7612 -27.9636 15.4098 22.6478 -27.9636 16.5168 
37.9075 -27.9636 14.7352 45.5374 -27.9636 13.5027 53.6273 -27.9636 9.00721 
53.1672 -27.9636 9.42418 -50.4213 -20.3338 9.00721 -53.6508 -14.4703 9.00721 
-46.021 -20.3338 12.7305 -38.3911 -20.3338 15.4508 45.5374 -20.3338 15.6645 
60.3821 -20.3338 9.00721 53.1672 -20.3338 14.396 60.7971 -19.2749 9.00721 
-54.5461 -12.7039 9.00721 -53.6508 -12.7039 9.88007 -46.021 -12.7039 15.1544 
45.5374 -12.7039 16.197 53.1672 -12.7039 14.4691 62.9377 -12.7039 9.00721 
60.7971 -12.7039 12.786 -56.3976 -5.07405 9.00721 -53.6508 -5.07405 11.5765 
-46.021 -5.07405 15.3168 7.38806 -5.07405 16.3303 45.5374 -5.07405 16.2544 
53.1672 -5.07405 13.5334 63.0192 -5.07405 9.00721 60.7971 -5.07405 10.8763 
[...]
POINT_DATA 559
SCALARS ImageScalars float
LOOKUP_TABLE default
0 0 0 0 0 0 0 0 0 
0 0 0 0 0 0 0 0 0 
0 0 0 0 0 0 0 0 0 
0 0 0 0 0 0 0 0 0 
0 0 0 0 0 0 0 0 0 
0 0 0 0 0 0 0 0 0 
0 0 0 0 0 0 0 0 0 
0 0 0 0 0 0 0 0 0 
0 0 0 0 0 0 0 0 0 
0 0 0 0 0 0 0 0 0 
0 0 0 0 0 0 0 0 0 
0 0 0 0 0 0 0 0 0 
0 0 0 0 0 0 0 0 0 
0 0 0 0 0 0 0 0 0 
0 0 0 0 0 0 0 0 0 
0 0 0 0 0 0 0 0 0 
0 0 0 0 0 0 0 0 0 
0 0 0 0 0 0 0 0 0 
0 0 0 0 0 0 0 0 0 
0 0 0 0 0 0 0 0 0 
0 0 0 0 0 0 0 0 0 
0 0 0 0 0 0 0 0 0 
0 0 0 0 0 0 0 0 0 
0 0 0 0 0 0 0 0 0 
0 0 0 0 0 0 0 0 0 
0 0 0 0 0 0 0 0 0 
0 0 0 0 0 0 0 0 0 
0 0 0 0 0 0 0 0 0 
0 0 0 0 0 0 0 0 0 
0 0 0 0 0 0 0 0 0 
0 0 0 0 0 0 0 0 0 
0 0 0 0 0 0 0 0 0 
0 0 0 0 0 0 0 0 0 
0 0 0 0 0 0 0 0 0 
0 0 0 0 0 0 0 0 0 
0 0 0 0 0 0 0 0 0 
0 0 0 0 0 0 0 0 0 
0 0 0 0 0 0 0 0 0 
0 0 0 0 0 0 0 0 0 
0 0 0 0 0 0 0 0 0 
0 0 0 0 0 0 0 0 0 
0 0 0 0 0 0 0 0 0 
0 0 0 0 0 0 0 0 0 
0 0 0 0 0 0 0 0 0 
0 0 0 0 0 0 0 0 0 
0 0 0 0 0 0 0 0 0 
0 0 0 0 0 0 0 0 0 
0 0 0 0 0 0 0 0 0 
0 0 0 0 0 0 0 0 0 
0 0 0 0 0 0 0 0 0 
0 0 0 0 0 0 0 0 0 
0 0 0 0 0 0 0 0 0 
0 0 0 0 0 0 0 0 0 
0 0 0 0 0 0 0 0 0 
0 0 0 0 0 0 0 0 0 
0 0 0 0 0 0 0 0 0 
0 0 0 0 0 0 0 0 0 
0 0 0 0 0 0 0 0 0 
0 0 0 0 0 0 0 0 0 
0 0 0 0 0 0 0 0 0 
0 0 0 0 0 0 0 0 0 
0 0 0 0 0 0 0 0 0 
0 
NORMALS Normals float
0.145883 0.0198094 0.989104 -0.101801 -0.0018762 0.994803 0.125362 -0.073803 0.989362 
0.321768 0.653089 0.685522 0.0937482 0.541243 0.835624 -0.0306721 0.472144 0.880988 
-0.155222 0.428869 0.889931 -0.278432 0.454379 0.846177 0.475911 0.426745 0.769024 
0.197389 0.312725 0.929107 0.0337281 0.264881 0.963691 -0.10185 0.187885 0.976896 
-0.169905 0.128594 0.977034 -0.233627 0.19441 0.952693 -0.255031 0.278474 0.925965 
0.667294 0.265125 0.696008 0.401041 0.150222 0.903659 0.133573 0.107366 0.985206 
0.127042 0.166193 0.977875 -0.0669015 0.0853111 0.994106 -0.0576246 0.106226 0.992671 
-0.182482 0.0225126 0.982951 -0.169114 -0.0418254 0.984709 -0.136753 0.0616122 0.988687 
-0.134464 0.126663 0.98279 -0.175075 0.230755 0.957132 0.611494 0.0860797 0.786553 
0.182217 0.0172884 0.983106 0.378499 0.0102002 0.925545 -0.129171 -0.00385436 0.991615 
-0.0976857 -0.0480225 0.994058 -0.241852 -0.018 0.970146 -0.128586 -0.0621568 0.989749 
-0.0277795 0.0387142 0.998864 -0.136823 -0.0446128 0.98959 -0.131889 0.103344 0.985863 
0.576408 -0.0329554 0.816497 0.135286 -0.0711516 0.988248 0.348544 -0.00963833 0.937243 
0.0152707 -0.0699014 0.997437 0.12153 -0.0844741 0.988987 -0.0957199 -0.0639175 0.993354 
-0.238585 -0.0158206 0.970993 -0.117336 0.0547073 0.991584 -0.0958368 -0.0466769 0.994302 
-0.0748743 -0.0318216 0.996685 -0.0294794 0.000426186 0.999565 0.574022 -0.191755 0.796071 
0.347986 -0.147079 0.925891 0.0942663 -0.162524 0.982191 -0.0461313 -0.113021 0.992521 
-0.141305 -0.0330781 0.989413 -0.155223 0.0395125 0.987089 -0.171589 -0.0583237 0.983441 
-0.0734872 0.0749609 0.994475 -0.169831 -0.102886 0.980088 0.0518587 -0.00165516 0.998653 
-0.165252 -0.026998 0.985882 0.391086 -0.340028 0.855238 0.168131 -0.250977 0.95328 
0.0231379 -0.202391 0.979031 -0.0902946 -0.137683 0.986352 -0.146576 -0.0832049 0.985694 
-0.105749 -0.0190853 0.99421 -0.0924456 0.0733662 0.993011 -0.213131 -0.0624223 0.975028 
0.00966394 -0.070188 0.997487 0.253473 -0.488118 0.83516 0.0833777 -0.377983 0.92205 
-0.0155443 -0.300015 0.953808 -0.0283576 -0.208752 0.977557 -0.0118819 -0.122741 0.992368 
-0.110133 -0.086312 0.990162 -0.253639 -0.0943439 0.962687 0.109353 -0.595318 0.796014 
0.0614179 -0.471541 0.879703 0.0128885 -0.401716 0.915673 -0.0558791 -0.371252 0.926849 
-0.235314 -0.364105 0.901141 0.333773 0.700384 0.630918 0.158065 0.693264 0.703136 
0.248578 0.865586 0.434706 0.0140759 0.641807 0.766737 0.0793641 0.773002 0.62942 
-0.146278 0.571244 0.807641 -0.0977218 0.72913 0.677363 -0.276365 0.480682 0.832206 
-0.242343 0.69988 0.671891 0.379121 0.676547 0.631309 0.508844 0.559332 0.65439 
0.545188 0.737777 0.398064 -0.290094 0.461564 0.838334 -0.282692 0.338602 0.89746 
-0.342751 0.499382 0.795701 -0.353052 0.549083 0.757537 0.618895 0.443226 0.648475 
0.671435 0.275752 0.687849 0.789852 0.507672 0.344096 -0.299803 0.359929 0.883498 
-0.305264 0.377975 0.874042 -0.344841 0.426264 0.836292 -0.34167 0.393313 0.853561 
-0.0233177 0.37064 0.928484 0.0458971 0.362081 0.931016 -0.0498891 0.401137 0.914659 
-0.0271693 0.511108 0.859087 -0.276334 0.513594 0.812318 0.672696 0.268 0.689678 
-0.418639 0.302075 0.856442 -0.457967 0.313191 0.831972 -0.103611 0.293427 0.95035 
0.0692623 0.302621 0.950591 0.0214526 0.310568 0.950309 -0.0254445 0.321887 0.946436 
-0.268666 0.394409 0.878783 -0.488895 0.311479 0.814839 0.677208 0.101479 0.728761 
-0.416759 0.0432506 0.907988 -0.464111 0.0509738 0.884309 -0.0201053 0.177469 0.983921 
0.0853776 0.186449 0.978748 0.0181717 0.172716 0.984804 -0.0965717 0.221779 0.970303 
-0.210615 0.101344 0.972302 -0.570231 0.103436 0.814946 0.66642 -0.0252819 0.745148 
0.965245 0.0246214 0.260185 -0.396562 -0.0359304 0.917304 -0.403171 -0.0354074 0.914439 
-0.0286984 0.13805 0.990009 0.0723009 0.0721917 0.994767 0.0516907 0.0103805 0.998609 
0.0523774 0.0838543 0.995101 -0.133994 0.0826707 0.987528 -0.126306 0.103352 0.986593 
-0.229697 0.0390316 0.972479 -0.668188 0.00813991 0.743948 0.610447 -0.20156 0.765981 
0.598411 -0.241591 0.763897 -0.220262 -0.0343419 0.974836 -0.209904 -0.00451161 0.977712 
0.0418889 0.0599814 0.99732 0.049463 0.00773613 0.998746 0.0208963 0.00125437 0.999781 
0.0331911 0.0799288 0.996248 0.0374774 -0.0119134 0.999226 -0.174335 -0.00987718 0.984637 
-0.108165 -0.129184 0.985704 -0.272691 0.0239111 0.961805 -0.797365 -0.159606 0.582009 
0.565115 -0.335907 0.753533 0.704471 -0.368087 0.606822 0.41386 -0.486784 0.76926 
-0.171641 0.0066461 0.985137 -0.157313 0.0259541 0.987208 0.0282331 -0.0616244 0.9977 
0.0531415 -0.0513713 0.997265 -0.0241646 -0.0752026 0.996875 0.00834392 -0.119404 0.992811 
-0.058521 -0.0839792 0.994748 -0.043262 -0.257517 0.965305 -0.361877 -0.166208 0.91729 
0.37045 -0.526528 0.765203 0.428891 -0.556337 0.711717 0.296291 -0.589595 0.751392 
0.179399 -0.650205 0.738274 -0.198829 -0.112079 0.973604 -0.181706 -0.129705 0.974761 
-0.0578193 -0.236027 0.970025 -0.00904719 -0.338532 0.940911 -0.125782 -0.401211 0.907309 
-0.251457 -0.429507 0.867348 -0.574385 -0.636797 0.514365 0.349152 -0.820712 0.452244 
0.128879 -0.617155 0.776215 0.201554 -0.70851 0.676306 0.112905 -0.603667 0.789201 
0.0889856 -0.555711 0.8266 0.0348488 -0.521941 0.852269 -0.061715 -0.509512 0.858247 
-0.2449 -0.37663 0.893405 -0.244138 -0.410317 0.878656 -0.297789 -0.551468 0.779233 
-0.155527 -0.649793 0.74403 -0.151102 -0.719086 0.678294 -0.231057 -0.80569 0.545414 
0.0855851 -0.970746 0.224337 -0.072354 -0.962669 0.260831 0.260969 0.887959 0.378714 
0.128564 0.869413 0.477066 -0.0584943 0.819672 0.569839 -0.22293 0.758552 0.612291 
0.55895 0.788806 0.255658 0.321119 0.878407 0.353953 0.419231 0.854122 0.307768 
-0.310695 0.702017 0.640812 -0.347173 0.667563 0.658658 -0.341301 0.725416 0.597734 
-0.329922 0.588941 0.737767 -0.270753 0.816264 0.5103 0.614597 0.749943 0.244654 
0.791465 0.559097 0.246969 -0.300877 0.516502 0.801685 -0.284311 0.419226 0.862216 
-0.253641 0.508433 0.822899 -0.0215049 0.381324 0.924191 -0.103281 0.58125 0.807144 
0.055278 0.50096 0.863703 -0.00543944 0.707244 0.706949 -0.0859944 0.471187 0.877831 
-0.0902671 0.73286 0.674365 -0.0439974 0.522415 0.851556 -0.127187 0.784673 0.606722 
-0.280458 0.556244 0.782263 -0.405906 0.817406 0.408763 0.819071 0.516301 0.250111 
-0.32562 0.538465 0.777192 -0.508377 0.381739 0.771899 -0.618547 0.692255 0.371729 
0.910992 0.327145 0.251138 -0.568021 0.320329 0.758117 0.961867 0.146066 0.23125 
0.967567 0.0335262 0.250381 -0.56096 0.0977089 0.822057 -0.998287 0.0534598 -0.0237923 
0.967159 0.0252425 0.252915 0.967883 -0.00117878 0.251399 -0.707701 -0.070224 0.703014 
0.947725 -0.202638 0.246486 -0.8373 -0.178487 0.51679 -0.819356 -0.325716 0.471768 
0.85464 -0.407862 0.321308 0.730555 -0.625297 0.274397 -0.814541 -0.338603 0.471031 
-0.848818 -0.367032 0.380519 0.718238 -0.640182 0.272582 0.506465 -0.805355 0.308053 
-0.314832 -0.828323 0.463425 -0.645331 -0.634568 0.42529 -0.585542 -0.688536 0.427854 
0.418666 -0.857644 0.298605 0.350923 -0.887974 0.297245 0.255012 -0.930752 0.262049 
0.194791 -0.954558 0.225558 0.149059 -0.969959 0.192254 -0.236215 -0.95023 0.20314 
-0.279184 -0.882436 0.378633 -0.155964 -0.877884 0.452763 -0.148237 -0.85541 0.496285 
-0.254691 -0.830343 0.495644 -0.237765 -0.825215 0.512336 0.118313 -0.979555 0.162709 
0.0806959 -0.987299 0.136857 0.0688064 -0.994681 -0.0766576 -0.170924 -0.970422 0.170488 
-0.0650131 -0.988779 0.134497 -0.0456361 -0.985013 -0.166336 0.40168 0.915593 0.018505 
0.249237 0.962139 0.110317 0.0495841 0.973073 0.225102 -0.191418 0.941481 0.277438 
-0.313731 0.896227 0.313609 -0.266056 0.883215 0.386195 0.616817 0.770538 -0.16065 
0.472769 0.877818 -0.0769692 0.485702 0.868589 -0.0982223 -0.232415 0.859892 0.454498 
-0.230482 0.853482 0.467382 -0.224889 0.890723 0.395016 -0.182384 0.774604 0.605578 
-0.158352 0.98738 -0.00254279 -0.13435 0.817341 0.560271 -0.0959465 0.885496 0.454634 
-0.125717 0.911426 0.391789 -0.400823 0.857446 0.322687 0.664774 0.723857 -0.184681 
0.791855 0.574153 -0.208121 0.605406 0.689061 -0.398344 -0.495227 0.806997 0.321724 
-0.663736 0.712397 0.227915 0.825852 0.527229 -0.199995 0.781166 0.520138 -0.345306 
-0.681755 0.698214 0.218421 -0.781524 0.586476 -0.212758 0.915606 0.332614 -0.225906 
-0.935467 0.353209 0.0120118 -0.995989 0.0655076 -0.0609415 0.964817 0.154078 -0.213045 
0.976436 0.0326274 -0.213325 -0.997682 0.00854151 -0.0675083 -0.994714 0.0472461 -0.0911736 
0.9774 0.00638388 -0.2113 0.97604 -0.0344431 -0.214848 0.972871 0.00694552 -0.231243 
-0.973202 -0.216232 -0.078246 0.957639 -0.191421 -0.215142 -0.89164 -0.415036 -0.180897 
-0.679213 -0.416453 -0.604348 0.908496 -0.379699 -0.174538 0.731742 -0.655218 -0.187731 
-0.829316 -0.466585 -0.307462 -0.818466 -0.485894 -0.306627 -0.813363 -0.45749 -0.359364 
0.724699 -0.663159 -0.187167 0.522486 -0.843386 -0.125331 -0.356722 -0.895112 -0.267439 
-0.690245 -0.655127 -0.307198 -0.63496 -0.712416 -0.298814 -0.631371 -0.629498 -0.452883 
0.454823 -0.880708 -0.13225 0.338299 -0.928526 -0.15295 0.300946 -0.842152 -0.44745 
0.190329 -0.963247 -0.189555 0.128459 -0.962285 -0.239803 0.0825745 -0.941514 -0.3267 
0.043501 -0.916077 -0.398637 -0.027212 -0.922273 -0.38558 -0.141565 -0.930406 -0.338088 
-0.16783 -0.944279 -0.283145 -0.116113 -0.66636 -0.736533 -0.0947946 -0.967513 -0.234376 
-0.0564562 -0.736427 -0.674157 -0.126749 -0.966988 -0.221063 -0.111008 -0.767214 -0.631712 
-0.332624 -0.90781 -0.255425 -0.252694 -0.947911 -0.193933 -0.274905 -0.840996 -0.465998 
0.455547 0.781586 -0.426147 0.351687 0.855565 -0.379901 0.103567 0.944804 -0.310836 
-0.150389 0.943359 -0.295729 -0.278166 0.91854 -0.280906 -0.227755 0.944151 -0.238131 
-0.149942 0.975521 -0.16086 -0.144848 0.980569 -0.1323 0.48107 0.74829 -0.456764 
0.50639 0.663852 -0.550336 0.444264 0.71198 -0.543797 0.294065 0.549958 -0.781711 
-0.127507 0.447767 -0.885012 -0.151808 0.601256 -0.784504 -0.14838 0.781437 -0.606086 
-0.138976 0.898322 -0.416777 -0.149251 0.983323 -0.103921 -0.138453 0.971263 -0.193594 
-0.160612 0.984565 -0.0695438 -0.255546 0.95823 -0.128422 -0.352447 0.903572 -0.243594 
-0.488166 0.766787 -0.416812 0.533038 0.619415 -0.576363 0.566105 0.564761 -0.600474 
0.447218 0.531623 -0.719286 0.270673 0.317339 -0.908863 -0.0473094 0.319147 -0.946524 
-0.192635 0.554848 -0.809342 -0.359765 0.726187 -0.585852 -0.506321 0.752514 -0.421142 
-0.489314 0.745319 -0.452848 0.639238 0.442715 -0.628791 0.678438 0.343758 -0.649271 
0.492386 0.386479 -0.779865 0.268612 0.254889 -0.928913 -0.228119 0.124428 -0.96565 
-0.783367 0.526293 -0.330685 -0.283734 0.316445 -0.905184 -0.797986 0.485386 -0.357238 
0.694789 0.299685 -0.653802 0.6638 0.298551 -0.685738 0.415565 0.148566 -0.897348 
-0.180788 0.0416402 -0.98264 -0.20034 -0.0621025 -0.977756 -0.821274 0.133469 -0.554703 
-0.604107 0.0343692 -0.796162 0.739503 0.157144 -0.654554 0.613971 0.149397 -0.775061 
0.346996 0.0484353 -0.936615 -0.135043 -0.135387 -0.981547 -0.194861 -0.115656 -0.973988 
-0.327731 -0.139989 -0.934342 -0.565049 -0.0560191 -0.823154 -0.524538 -0.129716 -0.841447 
0.762618 0.0182806 -0.646591 0.582603 0.0220086 -0.812459 0.315257 0.0500364 -0.947686 
-0.0106807 -0.0963823 -0.995287 -0.142317 -0.154146 -0.977745 -0.208948 -0.187631 -0.959758 
-0.243099 -0.140462 -0.959778 -0.517062 -0.268247 -0.812829 -0.512248 -0.287534 -0.809275 
-0.496681 -0.272124 -0.82417 0.760034 -0.167615 -0.627896 0.626589 -0.156992 -0.763374 
0.357796 -0.0208004 -0.933568 -0.306307 -0.0854627 -0.948089 0.0317279 -0.177081 -0.983685 
-0.0157084 -0.169791 -0.985355 -0.181729 -0.140216 -0.973301 -0.161577 -0.186852 -0.969009 
-0.210906 -0.203005 -0.956194 -0.483508 -0.281039 -0.828998 -0.370337 -0.137847 -0.918612 
0.690158 -0.357609 -0.629125 0.678159 -0.395983 -0.619111 0.672186 -0.35026 -0.652291 
0.424839 -0.255824 -0.86837 -0.231749 -0.126829 -0.964472 -0.0824976 -0.0394236 -0.995811 
-0.00390529 -0.215791 -0.976432 -0.0574 -0.139592 -0.988544 0.0474979 -0.301976 -0.952132 
0.0458439 -0.340314 -0.939194 -0.102384 -0.272669 -0.956645 -0.185528 -0.227566 -0.955925 
-0.206528 -0.239878 -0.948581 -0.4791 -0.458422 -0.748541 -0.474168 -0.464664 -0.747832 
-0.468529 -0.45431 -0.757683 0.565718 -0.585591 -0.580556 0.4973 -0.638127 -0.587782 
0.452098 -0.550952 -0.701469 0.27389 -0.757207 -0.592977 0.244368 -0.504443 -0.828144 
0.068031 -0.442871 -0.894001 -0.0929812 -0.400549 -0.911546 -0.151324 -0.357094 -0.921729 
-0.0483169 -0.261707 -0.963937 -0.0279216 -0.280936 -0.95932 -0.0999083 -0.259325 -0.960609 
-0.097748 -0.543786 -0.833512 -0.06412 -0.321366 -0.944782 -0.033255 -0.563403 -0.825513 
-0.021603 -0.405171 -0.913986 -0.0905854 -0.560385 -0.823264 -0.068257 -0.415627 -0.90697 
-0.151133 -0.506884 -0.848662 -0.122563 -0.45741 -0.880769 -0.341403 -0.436898 -0.832205 
-0.31364 -0.46792 -0.826245 -0.313159 -0.423814 -0.84989 0.195065 -0.790818 -0.580134 
0.135641 -0.801893 -0.581867 0.124795 -0.772076 -0.623158 0.00449508 -0.7451 -0.666938 
-0.0207327 -0.693213 -0.720435 -0.0401913 -0.658941 -0.75112 -0.0472056 -0.632796 -0.772878 
0.00666433 -0.599339 -0.800467 0.00473953 -0.579647 -0.814854 -0.0030686 -0.609652 -0.792664 
-0.00189138 -0.573437 -0.819247 -0.107221 -0.583969 -0.804664 -0.108001 -0.588899 -0.800958 
-0.105174 -0.568518 -0.81592 0.0862407 0.40569 -0.909933 0.093337 0.401517 -0.911083 
0.18103 0.274056 -0.944522 0.063785 0.401935 -0.913444 0.0862002 0.398236 -0.913224 
-0.0962856 0.326188 -0.940389 -0.0656199 0.295881 -0.952968 -0.00488189 0.332954 -0.94293 
-0.0591857 0.364106 -0.929475 -0.118893 0.397669 -0.909793 0.186608 0.247786 -0.950673 
0.196115 0.215997 -0.956496 0.154746 0.222638 -0.962542 0.0450703 0.108363 -0.993089 
-0.0353911 0.143633 -0.988998 -0.0501421 0.204146 -0.977655 0.00879245 0.262093 -0.965002 
-0.0461532 0.308553 -0.950087 -0.0406829 0.266687 -0.962924 -0.065287 0.326184 -0.943049 
-0.0433479 0.289152 -0.956301 -0.12418 0.376303 -0.918137 -0.117438 0.363064 -0.924334 
-0.150095 0.285767 -0.946472 0.201717 0.199951 -0.958817 0.211895 0.160707 -0.963988 
0.170511 0.17626 -0.969463 0.0738802 0.0780669 -0.994207 0.00594615 0.0152236 -0.999866 
-0.0206402 -0.0282485 -0.999388 0.0147873 0.0702238 -0.997422 -0.00490537 0.0684885 -0.99764 
-0.0509872 -0.0365876 -0.998029 -0.0121732 0.0621666 -0.997992 0.0184805 0.0703913 -0.997348 
-0.18631 0.125704 -0.974416 -0.143956 0.152213 -0.977808 0.26295 0.124056 -0.956801 
0.184742 0.114035 -0.976149 0.0837029 0.0676846 -0.994189 -0.00201435 0.0190003 -0.999817 
-0.0601426 -0.00706581 -0.998165 0.0200199 0.00585322 -0.999782 0.048986 0.0381349 -0.998071 
-0.133388 -0.138671 -0.981314 -0.107755 -0.133903 -0.985119 -0.045413 -0.0875886 -0.995121 
0.0853059 -0.0343673 -0.995762 -0.00863493 -0.0508017 -0.998671 -0.160298 0.00213569 -0.987066 
-0.132936 -0.0766136 -0.988159 0.236508 0.0297664 -0.971173 0.185025 0.0341133 -0.982141 
0.0716846 0.0164763 -0.997291 -0.00216377 -0.0146819 -0.99989 -0.00690794 -0.0677712 -0.997677 
0.0244744 -0.0322671 -0.99918 -0.138509 -0.112044 -0.984003 -0.121502 0.0739494 -0.989833 
0.0559997 0.14407 -0.987982 0.0567954 0.145227 -0.987767 0.023059 0.0458059 -0.998684 
-0.026365 -0.105754 -0.994043 -0.088119 -0.102412 -0.990831 -0.0653195 -0.106498 -0.992165 
-0.0502256 -0.0978892 -0.993929 0.257513 0.0472197 -0.96512 0.165713 0.0415292 -0.985299 
0.0303314 0.0242175 -0.999246 -0.0865186 -0.0147629 -0.996141 -0.235787 -0.10077 -0.966566 
-0.0947561 -0.123612 -0.987796 0.158128 -0.339561 -0.927197 0.161608 -0.340476 -0.926261 
-0.0188179 -0.0955255 -0.995249 -0.0682392 -0.0490087 -0.996465 0.00456141 -0.0784288 -0.996909 
0.143867 0.0394031 -0.988812 -0.184022 0.0101022 -0.98287 -0.145214 -0.0783104 -0.986296 
-0.145458 -0.0781485 -0.986273 -0.1453 -0.0777879 -0.986325 0.298149 -0.0123542 -0.954439 
0.156025 -0.00673409 -0.98773 0.0150099 -0.0237649 -0.999605 -0.282428 -0.080815 -0.955878 
-0.14015 -0.0498753 -0.988873 0.096282 -0.342756 -0.934477 0.0563096 -0.30828 -0.949628 
0.0668018 -0.332882 -0.940599 0.0827026 -0.382284 -0.920336 0.123024 -0.343601 -0.931023 
0.144773 -0.374077 -0.916028 0.156204 -0.379041 -0.912101 -0.121637 -0.197142 -0.9728 
-0.0523665 -0.258234 -0.964662 -0.0851815 -0.242059 -0.966515 0.297357 -0.233839 -0.925688 
0.189525 -0.308514 -0.932148 0.17254 -0.219028 -0.960342 0.0397953 -0.344016 -0.93812 
-0.0142199 -0.170848 -0.985195 -0.191117 -0.146176 -0.970622 -0.123877 -0.269812 -0.954911 
-0.145731 -0.165578 -0.97537 
