# vtk DataFile Version 4.2
vtk output
ASCII
DATASET POLYDATA
POINTS 578 float
-34.2219 -32.2311 -14.1074 -26.4836 -32.2311 -14.8992 -18.7454 -32.2311 -14.6343 
-11.0071 -32.2311 -13.8644 -3.26887 -32.2311 -12.9873 4.46938 -32.2311 -12.6679 
12.2076 -32.2311 -12.3325 -41.9601 -24.4929 -15.1294 -34.2219 -24.4929 -17.2979 
-26.4836 -24.4929 -17.039 -18.7454 -24.4929 -17.0121 -11.0071 -24.4929 -16.4314 
-3.26887 -24.4929 -15.7377 4.46938 -24.4929 -15.1331 12.2076 -24.4929 -15.5105 
19.9459 -24.4929 -15.9568 27.6841 -24.4929 -16.4966 35.4224 -24.4929 -16.8672 
43.1606 -24.4929 -16.5202 50.8989 -24.4929 -15.4095 58.6371 -24.4929 -12.9276 
-57.4366 -16.7546 -12.7668 -49.6984 -16.7546 -15.2423 -41.9601 -16.7546 -16.4539 
-34.2219 -16.7546 -17.381 -26.4836 -16.7546 -17.3732 -18.7454 -16.7546 -17.2919 
-11.0071 -16.7546 -16.9182 -3.26887 -16.7546 -16.5165 4.46938 -16.7546 -15.0607 
12.2076 -16.7546 -15.9089 19.9459 -16.7546 -17.2969 27.6841 -16.7546 -19.0158 
35.4224 -16.7546 -18.7521 43.1606 -16.7546 -19.4761 50.8989 -16.7546 -18.2562 
58.6371 -16.7546 -16.6685 66.3754 -16.7546 -12.9677 -57.4366 -9.01636 -13.6904 
-49.6984 -9.01636 -16.0171 -41.9601 -9.01636 -17.7766 -34.2219 -9.01636 -17.7475 
-26.4836 -9.01636 -17.5201 -18.7454 -9.01636 -17.1275 -11.0071 -9.01636 -17.5846 
-3.26887 -9.01636 -17.5908 4.46938 -9.01636 -15.037 12.2076 -9.01636 -16.0294 
19.9459 -9.01636 -17.1914 27.6841 -9.01636 -18.5976 35.4224 -9.01636 -19.5912 
43.1606 -9.01636 -19.6875 50.8989 -9.01636 -19.4278 58.6371 -9.01636 -19.7376 
66.3754 -9.01636 -15.5725 -57.4366 -1.27811 -14.7613 -49.6984 -1.27811 -16.5312 
-41.9601 -1.27811 -18.4087 -34.2219 -1.27811 -18.0273 -26.4836 -1.27811 -17.6702 
-18.7454 -1.27811 -17.7636 -11.0071 -1.27811 -19.8007 -3.26887 -1.27811 -15.4841 
4.46938 -1.27811 -16.8971 12.2076 -1.27811 -16.8006 19.9459 -1.27811 -16.5737 
27.6841 -1.27811 -18.3483 35.4224 -1.27811 -19.7746 43.1606 -1.27811 -19.7391 
50.8989 -1.27811 -19.4948 58.6371 -1.27811 -19.3416 66.3754 -1.27811 -15.2208 
-65.1749 6.46014 -12.2418 -57.4366 6.46014 -14.9066 -49.6984 6.46014 -16.5719 
-41.9601 6.46014 -18.3141 -34.2219 6.46014 -17.9431 -26.4836 6.46014 -17.3512 
-18.7454 6.46014 -17.2259 -11.0071 6.46014 -18.3839 -3.26887 6.46014 -16.1299 
4.46938 6.46014 -17.1268 12.2076 6.46014 -15.31 19.9459 6.46014 -16.4677 
27.6841 6.46014 -18.103 35.4224 6.46014 -19.362 43.1606 6.46014 -19.4804 
50.8989 6.46014 -19.0487 58.6371 6.46014 -18.2074 66.3754 6.46014 -13.7382 
-57.4366 14.1984 -13.1483 -49.6984 14.1984 -17.2529 -41.9601 14.1984 -16.9939 
-34.2219 14.1984 -17.1605 -26.4836 14.1984 -16.8161 -18.7454 14.1984 -16.8494 
-11.0071 14.1984 -16.6166 -3.26887 14.1984 -16.0319 4.46938 14.1984 -16.7416 
12.2076 14.1984 -15.6103 19.9459 14.1984 -16.5317 27.6841 14.1984 -17.5486 
35.4224 14.1984 -18.2791 43.1606 14.1984 -18.7636 50.8989 14.1984 -17.2631 
58.6371 14.1984 -14.2437 -49.6984 21.9366 -12.9018 -41.9601 21.9366 -15.1536 
-34.2219 21.9366 -15.9159 -26.4836 21.9366 -16.2536 -18.7454 21.9366 -16.5774 
-11.0071 21.9366 -16.5619 -3.26887 21.9366 -15.8809 4.46938 21.9366 -16.3571 
12.2076 21.9366 -15.6975 19.9459 21.9366 -15.649 27.6841 21.9366 -15.948 
35.4224 21.9366 -16.2866 43.1606 21.9366 -15.626 50.8989 21.9366 -13.597 
-34.2219 29.6749 -12.5829 -26.4836 29.6749 -14.1808 -18.7454 29.6749 -14.9388 
-11.0071 29.6749 -14.6329 -3.26887 29.6749 -14.4961 4.46938 29.6749 -14.7354 
12.2076 29.6749 -14.1705 19.9459 29.6749 -12.6263 27.6841 29.6749 -12.2648 
35.4224 29.6749 -12.1453 -34.2219 -35.2731 -12.0782 -26.4836 -35.9805 -12.0782 
-26.4836 -39.9694 -5.32385 -18.7454 -35.7149 -12.0782 -18.7454 -39.9694 -4.49843 
-11.0071 -34.4969 -12.0782 -3.26887 -33.4086 -12.0782 4.46938 -33.0114 -12.0782 
12.2076 -32.5567 -12.0782 -49.6984 -32.2311 -5.81625 -40.4473 -32.2311 -12.0782 
-41.9601 -31.2283 -12.0782 -41.9601 -32.2311 -11.3167 15.8268 -32.2311 -12.0782 
19.9459 -31.703 -12.0782 19.9459 -32.2311 -11.6345 27.6841 -31.7391 -12.0782 
27.6841 -32.2311 -11.4628 35.4224 -30.5128 -12.0782 35.4224 -32.2311 -9.47172 
43.1606 -29.7714 -12.0782 43.1606 -32.2311 -7.885 50.8989 -28.1097 -12.0782 
58.6371 -25.5181 -12.0782 -57.4366 -18.2485 -12.0782 -57.4366 -24.4929 -7.5164 
-49.6725 -24.4929 -12.0782 -49.6984 -24.4612 -12.0782 -49.6984 -24.4929 -12.064 
59.978 -24.4929 -12.0782 66.3754 -18.308 -12.0782 -58.5142 -16.7546 -12.0782 
-65.1749 -16.7546 -5.21778 67.5036 -16.7546 -12.0782 -60.9433 -9.01636 -12.0782 
-65.1749 -9.01636 -9.88421 70.9693 -9.01636 -12.0782 74.1136 -9.01636 -6.81625 
-64.7477 -1.27811 -12.0782 -65.1749 2.1656 -12.0782 -65.1749 -1.27811 -11.857 
70.2237 -1.27811 -12.0782 74.1136 -1.27811 -4.62671 -65.3914 6.46014 -12.0782 
-65.1749 7.35228 -12.0782 68.2714 6.46014 -12.0782 66.3754 9.67977 -12.0782 
-60.5367 14.1984 -12.0782 -65.1749 14.1984 -10.2617 -57.4366 19.5875 -12.0782 
62.1173 14.1984 -12.0782 58.6371 18.7702 -12.0782 66.3754 14.1984 -7.55871 
-54.3748 21.9366 -12.0782 -57.4366 21.9366 -11.4034 -49.6984 23.3168 -12.0782 
-41.9601 27.6079 -12.0782 43.1606 26.8275 -12.0782 54.6774 21.9366 -12.0782 
50.8989 24.0859 -12.0782 58.6371 21.9366 -9.32208 -49.6984 29.6749 -6.90658 
-36.3747 29.6749 -12.0782 -41.9601 29.6749 -10.0966 -34.2219 30.3392 -12.0782 
-26.4836 32.3833 -12.0782 -18.7454 34.0539 -12.0782 -11.0071 33.9459 -12.0782 
-3.26887 34.128 -12.0782 4.46938 34.1523 -12.0782 12.2076 32.8174 -12.0782 
19.9459 30.3792 -12.0782 27.6841 29.9115 -12.0782 35.6561 29.6749 -12.0782 
35.4224 29.7466 -12.0782 43.1606 29.6749 -8.89554 -18.7454 37.4131 -7.56312 
-11.0071 37.4131 -8.44682 -3.26887 37.4131 -9.00954 4.46938 37.4131 -8.90946 
12.2076 37.4131 -6.88121 -26.4836 -40.3354 -4.33998 -18.7454 -40.0283 -4.33998 
-49.6984 -33.1064 -4.33998 -41.9601 -36.9082 -4.33998 -29.0841 -39.9694 -4.33998 
-34.2219 -39.2462 -4.33998 -26.4836 -39.9694 -2.64649 -18.1025 -39.9694 -4.33998 
-18.7454 -39.9694 -4.0626 -11.0071 -39.2862 -4.33998 -3.26887 -38.5463 -4.33998 
4.46938 -38.4746 -4.33998 12.2076 -38.0134 -4.33998 19.9459 -36.7182 -4.33998 
27.6841 -35.5317 -4.33998 35.4224 -34.541 -4.33998 43.1606 -33.8892 -4.33998 
-50.933 -32.2311 -4.33998 -57.4366 -27.2308 -4.33998 49.4871 -32.2311 -4.33998 
50.8989 -31.8611 -4.33998 58.6371 -29.7428 -4.33998 -60.1694 -24.4929 -4.33998 
-65.1749 -17.7543 -4.33998 65.3289 -24.4929 -4.33998 66.3754 -23.6133 -4.33998 
-65.9146 -16.7546 -4.33998 71.9042 -16.7546 -4.33998 74.1136 -11.8171 -4.33998 
-69.92 -9.01636 -4.33998 75.3669 -9.01636 -4.33998 74.1136 -9.01636 0.750215 
-72.2949 -1.27811 -4.33998 -72.9131 -1.27811 -1.14939 74.2456 -1.27811 -4.33998 
74.1136 -0.377966 -4.33998 74.1136 -1.27811 -3.64304 -71.9619 6.46014 -4.33998 
-72.9131 6.46014 1.54673 72.9378 6.46014 -4.33998 -70.533 14.1984 -4.33998 
-65.1749 21.0819 -4.33998 68.1331 14.1984 -4.33998 66.3754 17.0343 -4.33998 
-64.2681 21.9366 -4.33998 -57.4366 26.9504 -4.33998 50.8989 29.5992 -4.33998 
62.1494 21.9366 -4.33998 58.6371 24.7022 -4.33998 -52.6419 29.6749 -4.33998 
-49.6984 31.2052 -4.33998 -41.9601 33.3625 -4.33998 -34.2219 35.4697 -4.33998 
-26.4836 37.4063 -4.33998 19.9459 37.167 -4.33998 27.6841 35.7533 -4.33998 
35.4224 34.4002 -4.33998 50.7283 29.6749 -4.33998 43.1606 32.9408 -4.33998 
50.8989 29.6749 -3.21649 -26.4513 37.4131 -4.33998 -18.7454 38.9288 -4.33998 
-11.0071 39.5352 -4.33998 -3.26887 40.0094 -4.33998 4.46938 40.0486 -4.33998 
18.947 37.4131 -4.33998 12.2076 38.9084 -4.33998 19.9459 37.4131 -3.34656 
-49.6984 -33.1863 3.39827 -41.9601 -35.8853 3.39827 -34.2219 -37.43 3.39827 
-26.4836 -38.3233 3.39827 -18.7454 -38.028 3.39827 -11.0071 -37.7559 3.39827 
-3.26887 -37.6941 3.39827 4.46938 -37.8369 3.39827 12.2076 -37.29 3.39827 
19.9459 -35.7125 3.39827 27.6841 -34.3603 3.39827 35.4224 -33.405 3.39827 
43.1606 -32.4318 3.39827 -51.2098 -32.2311 3.39827 -57.4366 -27.5638 3.39827 
-49.6984 -32.2311 5.24182 -41.9601 -32.2311 9.15434 -34.2219 -32.2311 10.1797 
-26.4836 -32.2311 9.9837 -18.7454 -32.2311 9.80812 -11.0071 -32.2311 9.96542 
-3.26887 -32.2311 9.64122 4.46938 -32.2311 9.85248 12.2076 -32.2311 10.1608 
19.9459 -32.2311 8.36285 27.6841 -32.2311 6.38193 35.4224 -32.2311 5.29089 
43.87 -32.2311 3.39827 43.1606 -32.2311 3.70212 50.8989 -30.0326 3.39827 
58.6371 -27.2658 3.39827 -60.9449 -24.4929 3.39827 -65.1749 -19.6239 3.39827 
-57.4366 -24.4929 10.1948 50.8989 -24.4929 10.9199 62.8463 -24.4929 3.39827 
58.6371 -24.4929 6.42484 66.3754 -21.5911 3.39827 -67.3538 -16.7546 3.39827 
-65.1749 -16.7546 7.71844 69.9171 -16.7546 3.39827 66.3754 -16.7546 7.08309 
-71.3446 -9.01636 3.39827 -72.9131 -3.42601 3.39827 73.4212 -9.01636 3.39827 
66.3754 -9.01636 10.3657 -73.5158 -1.27811 3.39827 -72.9131 -1.27811 4.65529 
72.744 -1.27811 3.39827 66.3754 -1.27811 10.4298 -73.1273 6.46014 3.39827 
-72.9131 7.52434 3.39827 -72.9131 6.46014 3.80645 71.1549 6.46014 3.39827 
66.3754 6.46014 9.24095 -71.266 14.1984 3.39827 -65.1749 21.6967 3.39827 
66.8973 14.1984 3.39827 66.3754 15.0736 3.39827 66.3754 14.1984 4.10669 
-64.9261 21.9366 3.39827 -57.4366 27.3303 3.39827 61.1908 21.9366 3.39827 
58.6371 24.154 3.39827 58.6371 21.9366 6.6552 -53.0332 29.6749 3.39827 
-49.6984 31.4239 3.39827 -49.6984 29.6749 6.75397 -41.9601 33.3023 3.39827 
-41.9601 29.6749 11.0295 -34.2219 35.1334 3.39827 -26.4836 36.8813 3.39827 
27.6841 37.1956 3.39827 35.4224 35.7863 3.39827 43.1606 33.8002 3.39827 
43.1606 29.6749 10.5267 51.5234 29.6749 3.39827 50.8989 30.0767 3.39827 
50.8989 29.6749 4.41207 -23.0749 37.4131 3.39827 -18.7454 38.0468 3.39827 
-18.7454 37.4131 4.65807 -11.0071 39.1351 3.39827 -11.0071 37.4131 6.46603 
-3.26887 39.9548 3.39827 -3.26887 37.4131 7.93011 4.46938 40.5465 3.39827 
4.46938 37.4131 9.73882 12.2076 40.1397 3.39827 12.2076 37.4131 9.94897 
26.561 37.4131 3.39827 19.9459 38.8089 3.39827 19.9459 37.4131 7.9045 
-49.6984 -27.2152 11.1365 -41.9601 -30.5756 11.1365 -34.2219 -31.096 11.1365 
-26.4836 -30.884 11.1365 -18.7454 -30.0823 11.1365 -11.0071 -29.8304 11.1365 
-3.26887 -29.2089 11.1365 4.46938 -29.544 11.1365 12.2076 -30.4112 11.1365 
[...]
POINT_DATA 578
SCALARS ImageScalars float
LOOKUP_TABLE default
0 0 0 0 0 0 0 0 0 
0 0 0 0 0 0 0 0 0 
0 0 0 0 0 0 0 0 0 
0 0 0 0 0 0 0 0 0 
0 0 0 0 0 0 0 0 0 
0 0 0 0 0 0 0 0 0 
0 0 0 0 0 0 0 0 0 
0 0 0 0 0 0 0 0 0 
0 0 0 0 0 0 0 0 0 
0 0 0 0 0 0 0 0 0 
0 0 0 0 0 0 0 0 0 
0 0 0 0 0 0 0 0 0 
0 0 0 0 0 0 0 0 0 
0 0 0 0 0 0 0 0 0 
0 0 0 0 0 0 0 0 0 
0 0 0 0 0 0 0 0 0 
0 0 0 0 0 0 0 0 0 
0 0 0 0 0 0 0 0 0 
0 0 0 0 0 0 0 0 0 
0 0 0 0 0 0 0 0 0 
0 0 0 0 0 0 0 0 0 
0 0 0 0 0 0 0 0 0 
0 0 0 0 0 0 0 0 0 
0 0 0 0 0 0 0 0 0 
0 0 0 0 0 0 0 0 0 
0 0 0 0 0 0 0 0 0 
0 0 0 0 0 0 0 0 0 
0 0 0 0 0 0 0 0 0 
0 0 0 0 0 0 0 0 0 
0 0 0 0 0 0 0 0 0 
0 0 0 0 0 0 0 0 0 
0 0 0 0 0 0 0 0 0 
0 0 0 0 0 0 0 0 0 
0 0 0 0 0 0 0 0 0 
0 0 0 0 0 0 0 0 0 
0 0 0 0 0 0 0 0 0 
0 0 0 0 0 0 0 0 0 
0 0 0 0 0 0 0 0 0 
0 0 0 0 0 0 0 0 0 
0 0 0 0 0 0 0 0 0 
0 0 0 0 0 0 0 0 0 
0 0 0 0 0 0 0 0 0 
0 0 0 0 0 0 0 0 0 
0 0 0 0 0 0 0 0 0 
0 0 0 0 0 0 0 0 0 
0 0 0 0 0 0 0 0 0 
0 0 0 0 0 0 0 0 0 
0 0 0 0 0 0 0 0 0 
0 0 0 0 0 0 0 0 0 
0 0 0 0 0 0 0 0 0 
0 0 0 0 0 0 0 0 0 
0 0 0 0 0 0 0 0 0 
0 0 0 0 0 0 0 0 0 
0 0 0 0 0 0 0 0 0 
0 0 0 0 0 0 0 0 0 
0 0 0 0 0 0 0 0 0 
0 0 0 0 0 0 0 0 0 
0 0 0 0 0 0 0 0 0 
0 0 0 0 0 0 0 0 0 
0 0 0 0 0 0 0 0 0 
0 0 0 0 0 0 0 0 0 
0 0 0 0 0 0 0 0 0 
0 0 0 0 0 0 0 0 0 
0 0 0 0 0 0 0 0 0 
0 0 
NORMALS Normals float
0.169533 0.484354 0.858289 0.0363418 0.449704 0.892438 -0.0600225 0.485471 0.87219 
-0.101764 0.518166 0.849204 -0.0721893 0.533921 0.842447 -0.0399135 0.518338 0.854244 
-0.050856 0.581964 0.811623 0.280259 0.247763 0.927399 0.13661 0.214626 0.967095 
-0.0171695 0.138383 0.99023 -0.037097 0.151358 0.987783 -0.0837583 0.178754 0.980322 
-0.0814695 0.208114 0.974706 -0.0121378 0.141724 0.989832 0.0492969 0.205526 0.977409 
0.0665789 0.305604 0.949828 0.0514813 0.399253 0.915394 0.00303044 0.445286 0.895383 
-0.0703982 0.480724 0.874041 -0.214341 0.55897 0.801006 -0.389682 0.581285 0.714322 
0.457958 0.298419 0.837389 0.263746 0.225839 0.937782 0.125005 0.172928 0.97697 
0.0571839 0.028617 0.997953 -0.00538296 0.0305418 0.999519 -0.0304307 0.00884981 0.999498 
-0.0478598 0.070925 0.996333 -0.119496 0.116393 0.985988 -0.0379593 -0.00606987 0.999261 
0.143907 0.0349736 0.988973 0.190702 0.0714824 0.979042 0.0910541 0.128097 0.987573 
0.0270545 0.157451 0.987156 -0.0476256 0.199964 0.978645 -0.143607 0.189088 0.971402 
-0.377856 0.387453 0.840896 -0.5283 0.406385 0.745487 0.327944 0.127096 0.936109 
0.240603 0.0724642 0.967915 0.111626 0.125048 0.985851 -0.0165238 0.041621 0.998997 
-0.0399685 0.0191742 0.999017 0.00207193 0.0309927 0.999517 0.0308824 0.187073 0.98186 
-0.160802 -0.0352136 0.986358 -0.0998192 0.0989695 0.990071 0.136466 0.0518562 0.989287 
0.163422 -0.0446386 0.985546 0.153219 -0.0413659 0.987326 0.0698576 0.0640293 0.9955 
-0.0100385 0.0159736 0.999822 -0.00119384 0.0941544 0.995557 -0.247784 0.131069 0.959908 
-0.494456 0.141986 0.857528 0.301042 0.0700911 0.951032 0.214026 0.0341329 0.976232 
0.0902885 0.0321591 0.995396 -0.0469887 0.0125968 0.998816 -0.0170341 -0.0108774 0.999796 
0.136135 0.0071534 0.990664 -0.078273 0.0480367 0.995774 -0.237691 -0.110626 0.965021 
0.0754267 0.155144 0.985008 -0.020918 -0.0462476 0.998711 0.103341 -0.0474415 0.993514 
0.19289 -0.0314606 0.980716 0.0926809 -0.015151 0.995581 -0.0174912 -0.0132492 0.999759 
-0.0244236 -0.0238543 0.999417 -0.284179 -0.0750311 0.955831 -0.521004 -0.105981 0.846949 
0.548748 -0.0722767 0.832857 0.308169 -0.0920315 0.946869 0.199575 0.037923 0.979149 
0.0873109 -0.0886719 0.992227 -0.0615383 -0.0557643 0.996546 -0.0460817 -0.05505 0.99742 
0.0639804 -0.0607166 0.996102 -0.0697958 -0.210318 0.975138 -0.0780379 0.0265455 0.996597 
-0.0515227 -0.0135335 0.99858 -0.0434781 -0.0691016 0.996662 0.177487 -0.00247429 0.98412 
0.184445 -0.0507029 0.981534 0.0881588 -0.0924762 0.991804 -0.0190682 -0.0593583 0.998055 
-0.0725241 -0.153287 0.985517 -0.30617 -0.257612 0.916458 -0.580221 -0.323094 0.747632 
0.360061 -0.205066 0.910112 0.20401 -0.158602 0.966036 -0.00314145 -0.214916 0.976627 
-0.0119873 -0.124533 0.992143 -0.0200058 -0.0695165 0.99738 -0.012829 -0.0412165 0.999068 
-0.0526838 -0.110182 0.992514 0.00824026 -0.0158933 0.99984 -0.027303 -0.0492163 0.998415 
-0.014164 0.0242719 0.999605 0.125782 -0.0506058 0.990766 0.109931 -0.13342 0.984944 
0.0759425 -0.184386 0.979916 -0.074965 -0.244573 0.966729 -0.230556 -0.27182 0.934322 
-0.456275 -0.401616 0.794052 0.255637 -0.496126 0.829764 0.147885 -0.335188 0.930472 
0.075364 -0.283545 0.955993 0.0412268 -0.149064 0.987968 0.0191549 -0.120206 0.992564 
-0.0454196 -0.114947 0.992333 -0.0123641 -0.0912158 0.995754 -0.0113383 -0.118836 0.992849 
-0.0457658 -0.0876836 0.995097 0.0158195 -0.223624 0.974547 0.0379862 -0.317228 0.947588 
-0.0183015 -0.3647 0.930945 -0.134309 -0.466824 0.874092 -0.303071 -0.560258 0.770882 
0.191316 -0.549422 0.813347 0.156376 -0.471219 0.868043 0.0235374 -0.391388 0.919924 
-0.028413 -0.388216 0.92113 0.0063318 -0.33172 0.943357 -0.0204889 -0.361093 0.932305 
-0.119954 -0.400089 0.908592 -0.119764 -0.529 0.840128 -0.0264991 -0.585984 0.809889 
-0.137116 -0.670135 0.729464 0.196013 0.65327 0.731312 0.0198769 0.676367 0.736297 
0.0460291 0.990081 0.132741 -0.0697653 0.667639 0.741209 -0.0660354 0.993764 0.0898508 
-0.108627 0.636578 0.763524 -0.0706393 0.594627 0.800893 -0.0406299 0.55987 0.827583 
-0.0543932 0.59754 0.799992 0.550856 0.751245 0.363577 0.325461 0.583818 0.743795 
0.35344 0.560214 0.74916 0.371113 0.630653 0.681581 -0.0458927 0.626373 0.778172 
-0.0309389 0.651437 0.758071 -0.0431824 0.694286 0.718403 -0.0548246 0.722371 0.689329 
-0.0673188 0.767904 0.637018 -0.0910455 0.73675 0.670008 -0.116267 0.878693 0.463013 
-0.10824 0.756462 0.645019 -0.145724 0.930809 0.3352 -0.216624 0.75231 0.622177 
-0.407088 0.604122 0.685067 0.478368 0.341483 0.809045 0.605172 0.575954 0.549585 
0.427549 0.393002 0.814095 0.427357 0.392936 0.814228 0.42824 0.393757 0.813367 
-0.441075 0.606064 0.661921 -0.551574 0.48302 0.680043 0.500488 0.320398 0.804274 
0.705135 0.547962 0.450025 -0.568934 0.428458 0.701952 0.476665 0.193743 0.85747 
0.668734 0.29627 0.681923 -0.728176 0.140261 0.670885 -0.953645 0.142514 0.265048 
0.53153 0.12 0.838496 0.550861 0.0340389 0.833903 0.552406 0.120679 0.824793 
-0.743872 -0.137491 0.654027 -0.979781 -0.137127 0.145688 0.556816 -0.0771403 0.827046 
0.557142 -0.111414 0.82291 -0.67096 -0.335379 0.661312 -0.610881 -0.403472 0.681201 
0.45638 -0.273953 0.846562 0.621398 -0.40203 0.672485 0.384892 -0.382314 0.840056 
-0.545736 -0.43009 0.719163 -0.476791 -0.508491 0.717013 -0.7654 -0.52575 0.371146 
0.338014 -0.472213 0.814102 0.401058 -0.486053 0.77647 0.272226 -0.516381 0.811938 
0.209967 -0.60532 0.76779 -0.189157 -0.642845 0.742274 -0.386161 -0.587669 0.711002 
-0.318892 -0.626168 0.711492 -0.527185 -0.678369 0.511754 0.385523 -0.799783 0.460129 
0.200061 -0.592928 0.780007 0.238976 -0.748184 0.618959 0.199148 -0.580818 0.789297 
0.177143 -0.622087 0.762646 0.0697418 -0.629699 0.773703 0.00154456 -0.578841 0.815439 
0.00761307 -0.548924 0.835838 -0.0566361 -0.577729 0.814261 -0.155065 -0.558624 0.814797 
-0.125909 -0.555483 0.82194 -0.0286644 -0.595841 0.802591 -0.139951 -0.672609 0.726643 
-0.137998 -0.672845 0.726798 -0.238371 -0.792297 0.561645 0.122707 -0.915506 0.383134 
0.0511524 -0.863666 0.501462 0.0164151 -0.819056 0.573479 -0.0820718 -0.819635 0.566976 
-0.183913 -0.861566 0.473159 0.0496786 0.996031 0.073855 -0.0654541 0.994706 0.0792152 
0.546952 0.796352 0.2582 0.3793 0.909724 0.168921 0.101279 0.992754 0.06467 
0.209097 0.976385 0.0543152 0.0510128 0.998284 -0.0287572 -0.0676247 0.994238 0.0831734 
-0.0648065 0.995904 0.0630483 -0.095457 0.98667 0.1318 -0.0519678 0.980609 0.188958 
-0.0337359 0.975609 0.216907 -0.113855 0.969742 0.215957 -0.16243 0.97084 0.176314 
-0.136148 0.982791 0.124841 -0.10749 0.986502 0.12353 -0.172206 0.977527 0.1216 
0.562771 0.780858 0.2712 0.648193 0.682445 0.337809 -0.220839 0.972942 0.0679284 
-0.235683 0.970128 0.0574858 -0.457251 0.886549 0.0703709 0.707314 0.602951 0.368994 
0.716191 0.561697 0.414207 -0.608016 0.786532 0.108088 -0.637985 0.761654 0.113398 
0.722373 0.552758 0.415495 -0.880585 0.460751 0.110812 -0.961446 0.248978 0.116757 
0.849799 0.304046 0.430579 -0.982477 0.142489 0.120149 -0.973365 0.160369 -0.163839 
0.865428 0.138668 0.481462 0.968838 0.140076 0.204284 -0.981667 -0.137352 0.132154 
-0.978069 -0.160332 0.132944 -0.985231 -0.136809 0.102974 0.885885 -0.0974305 0.453559 
0.990687 -0.122372 -0.0596995 -0.923482 -0.357325 0.139641 0.836888 -0.37724 0.396621 
0.699857 -0.619012 0.356405 -0.834386 -0.530223 0.150543 -0.796919 -0.582482 0.160108 
0.674809 -0.651902 0.345913 0.475571 -0.824724 0.306045 -0.435136 -0.873234 0.219361 
-0.662073 -0.729015 0.17377 -0.589149 -0.785144 0.190924 0.416198 -0.862101 0.289069 
0.383293 -0.879767 0.281241 0.267249 -0.928066 0.259366 0.248927 -0.945399 0.210371 
0.220834 -0.958812 0.178639 -0.195059 -0.893846 0.403722 -0.15614 -0.91381 0.374928 
-0.164919 -0.923551 0.346201 -0.43164 -0.874325 0.221906 -0.290221 -0.894881 0.339058 
-0.451463 -0.876717 0.165976 0.220464 -0.958923 0.178501 0.133706 -0.977615 0.162456 
0.0708861 -0.976446 0.203786 0.0339248 -0.970199 0.239923 -0.0690238 -0.956018 0.285072 
-0.19363 -0.89887 0.393117 -0.17351 -0.921948 0.346274 -0.196785 -0.919111 0.341337 
0.453471 0.861424 -0.228719 0.26453 0.902689 -0.339377 0.139746 0.912555 -0.384336 
0.0393805 0.883692 -0.466409 -0.0317646 0.888226 -0.458307 -0.0191923 0.911255 -0.411394 
0.00519004 0.930944 -0.365124 -0.0254476 0.94127 -0.336694 -0.133644 0.934892 -0.32881 
-0.179393 0.917271 -0.355573 -0.147976 0.905951 -0.39668 -0.117848 0.920035 -0.373695 
-0.202428 0.885567 -0.418083 0.489176 0.842483 -0.225673 0.612473 0.772544 -0.167486 
0.448873 0.826273 -0.340273 0.176483 0.807457 -0.562909 0.0310532 0.683904 -0.728911 
-0.0178299 0.672592 -0.739799 -0.000884652 0.607122 -0.794608 -0.0093443 0.567517 -0.823309 
-0.00502017 0.583189 -0.812321 0.0264489 0.56506 -0.824626 -0.0645832 0.600543 -0.79698 
-0.172324 0.730102 -0.661253 -0.13212 0.820976 -0.555467 -0.113007 0.873733 -0.473096 
-0.20975 0.886449 -0.412569 -0.199881 0.881694 -0.427392 -0.270419 0.883635 -0.382182 
-0.425434 0.763383 -0.486058 0.68483 0.714174 -0.144789 0.784118 0.607771 -0.125594 
0.520814 0.642201 -0.562432 -0.330818 0.508103 -0.79523 -0.533454 0.753339 -0.384588 
-0.383136 0.716394 -0.583083 -0.6425 0.665182 -0.38043 0.82007 0.561421 -0.110869 
0.747235 0.584497 -0.316234 -0.776864 0.461957 -0.427877 -0.62231 0.40159 -0.671905 
0.931962 0.336321 -0.135407 0.972362 0.17158 -0.158345 -0.924442 0.167332 -0.342648 
-0.45076 0.203573 -0.869122 0.981246 0.112584 -0.156466 0.967631 0.108535 -0.227838 
-0.952359 -0.131329 -0.275254 -0.483521 -0.0607211 -0.873224 0.97351 -0.121971 -0.193396 
0.96612 -0.160023 -0.202497 0.967955 -0.124356 -0.218172 -0.887204 -0.33563 -0.316578 
-0.600169 -0.308256 -0.738089 0.869737 -0.434652 -0.233742 0.706818 -0.664684 -0.242082 
-0.781454 -0.501553 -0.37118 -0.770479 -0.516147 -0.374106 -0.76547 -0.497645 -0.407928 
0.700944 -0.671672 -0.239863 0.46735 -0.859548 -0.206789 -0.678831 -0.664499 -0.312457 
-0.642899 -0.710034 -0.287286 -0.63059 -0.652733 -0.419876 0.406806 -0.886168 -0.221843 
0.365683 -0.904072 -0.221203 0.377073 -0.82204 -0.426692 0.231124 -0.94926 -0.213279 
0.208573 -0.773805 -0.598099 0.212956 -0.954922 -0.206816 0.187706 -0.948883 -0.253747 
-0.182386 -0.982483 -0.0382484 -0.219368 -0.973012 -0.0715944 -0.342267 -0.924864 -0.16577 
-0.333017 -0.731785 -0.594635 -0.530921 -0.831672 -0.16262 -0.517591 -0.841661 -0.153971 
-0.523898 -0.823409 -0.21801 0.168731 -0.947268 -0.272422 0.140292 -0.944472 -0.297137 
0.132016 -0.926277 -0.352964 0.121042 -0.950646 -0.285694 0.112832 -0.879208 -0.462885 
0.0925265 -0.963276 -0.252069 0.11683 -0.833865 -0.539462 0.0111701 -0.983783 -0.179016 
0.0745692 -0.797291 -0.598971 -0.114013 -0.988116 -0.103088 -0.0380466 -0.839337 -0.542279 
-0.182305 -0.982515 -0.0378173 -0.185209 -0.981491 -0.0487127 -0.149146 -0.92936 -0.337707 
0.329455 0.646333 -0.688268 0.148342 0.732506 -0.664402 0.0155751 0.639235 -0.768854 
-0.0324794 0.626815 -0.778491 -0.0389141 0.523229 -0.851303 -0.0236351 0.458212 -0.888529 
-0.00642682 0.416339 -0.909187 0.0305009 0.406745 -0.913032 -0.041987 0.489101 -0.871216 
-0.0854062 0.497737 -0.863113 -0.0756328 0.563107 -0.822916 -0.0357159 0.583556 -0.811287 
-0.0934645 0.664765 -0.741183 0.465744 0.620716 -0.630709 0.503952 0.589715 -0.631085 
0.290945 0.595164 -0.749086 0.110799 0.466433 -0.87759 -0.0182365 0.479086 -0.877578 
-0.101802 0.445185 -0.889633 -0.132852 0.399331 -0.90713 -0.0621254 0.311702 -0.948147 
-0.00352101 0.240811 -0.970566 0.0307894 0.196648 -0.979991 -0.00435549 0.261926 -0.965078 
-0.014016 0.354674 -0.934885 -0.0291899 0.435088 -0.899914 -0.0169068 0.518362 -0.854994 
-0.315643 0.506327 -0.802498 -0.103326 0.526304 -0.843995 -0.324468 0.490834 -0.808581 
-0.344858 0.46283 -0.816616 0.62792 0.504931 -0.592251 0.6613 0.452724 -0.598099 
0.421091 0.402796 -0.812674 0.221978 0.285285 -0.932383 0.104201 0.281451 -0.953901 
-0.124448 0.25065 -0.960046 -0.1996 0.276547 -0.940044 -0.181715 0.277397 -0.943414 
-0.115359 0.232506 -0.965729 0.0484158 0.126012 -0.990847 0.112872 0.248419 -0.962054 
0.0305472 0.266406 -0.963377 0.0352001 0.267701 -0.962859 -0.0117405 0.279518 -0.960069 
-0.106115 0.263115 -0.958911 -0.179067 0.341099 -0.922815 -0.414458 0.335099 -0.846128 
-0.345205 0.334746 -0.8768 0.681473 0.298477 -0.668211 0.601757 0.244777 -0.760245 
0.358317 0.232758 -0.90412 -0.110104 0.0387535 -0.993164 -0.0697668 0.152956 -0.985767 
-0.141319 0.283775 -0.94842 0.0467133 0.240032 -0.96964 0.107074 0.273446 -0.955909 
-0.0183273 0.231724 -0.972609 0.00250274 0.218761 -0.975775 -0.016525 0.182357 -0.983094 
-0.0548235 0.211383 -0.975864 -0.203848 0.157523 -0.966247 -0.403028 0.170353 -0.899193 
-0.33151 0.103595 -0.937747 0.731808 0.0650184 -0.678403 0.543747 0.0317474 -0.838649 
-0.0804397 -0.0476028 -0.995622 0.0105663 -0.0200245 -0.999744 -0.0586586 0.0600752 -0.996469 
0.0601594 0.145259 -0.987563 -0.0101393 0.0485102 -0.998771 -0.00440068 0.0989971 -0.995078 
-0.0282374 0.101562 -0.994428 -0.132228 0.0885109 -0.98726 -0.245444 0.00752942 -0.969381 
-0.435067 -0.0395962 -0.899527 -0.344522 0.0135528 -0.93868 0.64857 -0.191856 -0.736578 
0.521852 -0.186443 -0.832412 0.314872 -0.21161 -0.925244 0.0824862 -0.187546 -0.978786 
-0.100441 -0.00317754 -0.994938 -0.0898241 0.0875545 -0.992102 0.039162 0.0277205 -0.998848 
0.0365152 -0.0518932 -0.997985 -0.108515 0.0967116 -0.989379 0.0183635 -0.104268 -0.99438 
0.152929 -0.0552616 -0.986691 -0.1516 -0.0276855 -0.988054 -0.270754 -0.0784855 -0.959444 
-0.496209 -0.217839 -0.84043 -0.404676 -0.130831 -0.905053 0.53309 -0.428528 -0.729506 
0.527227 -0.446241 -0.723118 0.52067 -0.425683 -0.740065 0.388845 -0.353923 -0.85061 
0.20018 -0.218564 -0.955069 0.117168 -0.208849 -0.970904 0.0105315 -0.134625 -0.990841 
-0.124614 -0.0378927 -0.991481 0.00906829 -0.140149 -0.990089 0.000976724 -0.0394438 -0.999221 
-0.0218323 0.0636438 -0.997734 0.0963112 -0.0226914 -0.995093 0.0412271 -0.0588899 -0.997413 
-0.0545285 -0.0491845 -0.9973 -0.197703 -0.189981 -0.961676 -0.339243 -0.240113 -0.909539 
-0.539518 -0.33087 -0.774239 -0.544199 -0.382045 -0.74692 -0.51164 -0.295449 -0.806805 
0.450863 -0.557734 -0.69689 0.42768 -0.578475 -0.694591 0.400437 -0.515395 -0.75764 
0.308975 -0.651159 -0.6932 0.256583 -0.520201 -0.814589 0.208025 -0.768095 -0.605604 
0.146646 -0.398043 -0.90557 0.128838 -0.331129 -0.934748 0.0720949 -0.257138 -0.963682 
-0.0905864 -0.258134 -0.961853 -0.127928 -0.241924 -0.961825 0.0312693 -0.186635 -0.981932 
0.0968976 -0.168794 -0.980877 0.0277407 -0.0545147 -0.998128 0.0301355 -0.119229 -0.992409 
0.0271109 -0.172353 -0.984662 -0.149226 -0.258342 -0.954459 -0.32901 -0.691868 -0.642707 
-0.307268 -0.331426 -0.892044 -0.500388 -0.467437 -0.728776 -0.474339 -0.480146 -0.737877 
-0.444827 -0.427879 -0.786796 0.205314 -0.767784 -0.606922 0.161031 -0.732683 -0.661244 
0.14767 -0.670564 -0.727006 0.097481 -0.759905 -0.642684 0.0961161 -0.639142 -0.763059 
0.0405516 -0.729545 -0.682729 -0.00480394 -0.601222 -0.799068 0.050391 -0.645606 -0.762007 
-0.0115295 -0.508537 -0.860963 0.117981 -0.608228 -0.784945 0.0864291 -0.394281 -0.914917 
0.0922524 -0.698019 -0.710112 0.122428 -0.385937 -0.914366 -0.0170546 -0.767653 -0.640638 
0.0301459 -0.374748 -0.926636 -0.105127 -0.792708 -0.600469 -0.0350278 -0.42594 -0.904073 
-0.165819 -0.791618 -0.588086 -0.12184 -0.502059 -0.856208 -0.319788 -0.704676 -0.633378 
-0.263017 -0.750191 -0.60666 -0.234514 -0.605421 -0.760571 -0.0175058 0.282456 -0.959121 
0.167827 0.172642 -0.970582 0.070097 0.277383 -0.958199 0.102576 0.268397 -0.957832 
-0.0621997 0.259557 -0.963723 -0.0170399 0.264861 -0.964136 -0.123129 0.164681 -0.978631 
0.205258 0.171336 -0.963594 0.327182 0.0657703 -0.94267 0.163045 0.153794 -0.974558 
0.0684326 0.0908113 -0.993514 -0.0561601 0.0456114 -0.997379 -0.115144 0.0339151 -0.99277 
-0.122226 0.0312867 -0.992009 0.125414 -0.0599301 -0.990293 0.326765 0.00849203 -0.945068 
0.316917 -0.0547992 -0.946869 0.312093 0.00752476 -0.950022 0.0769468 -0.160914 -0.983964 
0.0768716 -0.0325786 -0.996509 0.00195855 -0.0727457 -0.997349 -0.0761796 -0.0685231 -0.994737 
-0.130481 -0.0387294 -0.990694 -0.105927 -0.00848813 -0.994338 -0.135991 -0.0382087 -0.989973 
0.124971 -0.0739627 -0.9894 0.0616727 -0.0189935 -0.997916 0.123624 -0.0813364 -0.98899 
0.126425 -0.0804678 -0.988707 0.0166414 0.0622886 -0.997919 -0.0271748 0.0495207 -0.998403 
0.0627156 -0.152925 -0.986246 0.101266 -0.185537 -0.977405 0.0327497 -0.0880284 -0.995579 
-0.095821 -0.00784857 -0.995368 -0.00216749 -0.115574 -0.993297 -0.0263919 -0.0775692 -0.996638 
-0.0702639 -0.0112032 -0.997466 -0.0576763 0.0434599 -0.997389 0.0745934 -0.0141981 -0.997113 
0.0474062 -0.0332729 -0.998321 0.0544116 -0.00346926 -0.998513 -0.0787246 -0.016372 -0.996762 
-0.035726 -0.0222155 -0.999115 -0.0266987 -0.00861632 -0.999606 0.0218631 -0.0662143 -0.997566 
0.0315835 -0.0578242 -0.997827 0.0269295 -0.0368813 -0.998957 -0.0699451 0.014869 -0.99744 
-0.0625929 -0.0427381 -0.997124 -0.0500173 0.0339933 -0.99817 
