# vtk DataFile Version 4.2
vtk output
ASCII
DATASET POLYDATA
POINTS 514 float
-37.0556 -36.8069 -16.6753 -28.2224 -36.8069 -18.773 -19.3892 -36.8069 -19.0529 
-10.5561 -36.8069 -18.798 -1.72288 -36.8069 -18.2579 7.11029 -36.8069 -17.0964 
15.9435 -36.8069 -15.9264 -45.8887 -27.9737 -17.5975 -37.0556 -27.9737 -20.4436 
-28.2224 -27.9737 -21.4279 -19.3892 -27.9737 -20.7601 -10.5561 -27.9737 -20.6613 
-1.72288 -27.9737 -20.5801 7.11029 -27.9737 -20.2255 15.9435 -27.9737 -19.7895 
24.7766 -27.9737 -19.8688 33.6098 -27.9737 -18.7039 42.443 -27.9737 -16.6859 
-54.7219 -19.1405 -16.412 -45.8887 -19.1405 -21.1493 -37.0556 -19.1405 -21.9925 
-28.2224 -19.1405 -21.5844 -19.3892 -19.1405 -20.8394 -10.5561 -19.1405 -20.6101 
-1.72288 -19.1405 -21.3998 7.11029 -19.1405 -21.1927 15.9435 -19.1405 -20.2366 
24.7766 -19.1405 -20.5493 33.6098 -19.1405 -21.5903 42.443 -19.1405 -20.3333 
51.2762 -19.1405 -18.1485 -54.7219 -10.3074 -18.8734 -45.8887 -10.3074 -21.0319 
-37.0556 -10.3074 -21.6847 -28.2224 -10.3074 -20.8463 -19.3892 -10.3074 -19.8882 
-10.5561 -10.3074 -20.3466 -1.72288 -10.3074 -20.7574 7.11029 -10.3074 -21.3821 
15.9435 -10.3074 -19.3111 24.7766 -10.3074 -19.9623 33.6098 -10.3074 -21.3804 
42.443 -10.3074 -21.8206 51.2762 -10.3074 -21.1687 60.1093 -10.3074 -16.3512 
-54.7219 -1.47419 -18.6897 -45.8887 -1.47419 -21.1546 -37.0556 -1.47419 -21.6236 
-28.2224 -1.47419 -20.4843 -19.3892 -1.47419 -19.2292 -10.5561 -1.47419 -23.4991 
-1.72288 -1.47419 -18.6553 7.11029 -1.47419 -22.4295 15.9435 -1.47419 -21.4185 
24.7766 -1.47419 -19.8005 33.6098 -1.47419 -21.0564 42.443 -1.47419 -21.6086 
51.2762 -1.47419 -20.979 60.1093 -1.47419 -16.8798 -54.7219 7.35898 -18.9675 
-45.8887 7.35898 -21.0153 -37.0556 7.35898 -21.6892 -28.2224 7.35898 -20.6373 
-19.3892 7.35898 -19.2471 -10.5561 7.35898 -21.966 -1.72288 7.35898 -20.26 
7.11029 7.35898 -20.4217 15.9435 7.35898 -18.168 24.7766 7.35898 -17.7263 
33.6098 7.35898 -18.7764 42.443 7.35898 -19.4897 51.2762 7.35898 -18.4161 
-54.7219 16.1922 -16.7849 -45.8887 16.1922 -20.5356 -37.0556 16.1922 -22.4709 
-28.2224 16.1922 -21.5991 -19.3892 16.1922 -20.6484 -10.5561 16.1922 -20.1726 
-1.72288 16.1922 -19.455 7.11029 16.1922 -18.3543 15.9435 16.1922 -17.9915 
24.7766 16.1922 -16.4826 33.6098 16.1922 -15.823 -45.8887 25.0253 -18.1515 
-37.0556 25.0253 -20.5743 -28.2224 25.0253 -21.0228 -19.3892 25.0253 -21.6204 
-10.5561 25.0253 -21.0998 -1.72288 25.0253 -20.2487 7.11029 25.0253 -19.6111 
15.9435 25.0253 -19.3044 24.7766 25.0253 -16.9297 -37.0556 33.8585 -16.9988 
-28.2224 33.8585 -19.4096 -19.3892 33.8585 -20.9295 -10.5561 33.8585 -20.5831 
-1.72288 33.8585 -19.8765 7.11029 33.8585 -19.2385 15.9435 33.8585 -18.2794 
24.7766 33.8585 -15.4367 -19.3892 42.6917 -16.5514 -10.5561 42.6917 -17.8149 
-1.72288 42.6917 -17.4443 7.11029 42.6917 -15.9825 -37.0556 -38.3904 -15.3519 
-28.2224 -41.8852 -15.3519 -28.2224 -45.6401 -10.8064 -19.3892 -43.9113 -15.3519 
-19.3892 -45.6401 -13.9092 -10.5561 -43.2647 -15.3519 -10.5561 -45.6401 -13.8144 
-1.72288 -42.5079 -15.3519 -1.72288 -45.6401 -13.3782 7.11029 -39.6681 -15.3519 
7.11029 -45.6401 -10.6615 15.9435 -37.5856 -15.3519 15.9435 -45.6401 -6.59983 
-39.7506 -36.8069 -15.3519 -45.8887 -31.7033 -15.3519 -45.8887 -36.8069 -9.01791 
20.14 -36.8069 -15.3519 24.7766 -35.7551 -15.3519 24.7766 -36.8069 -14.3828 
33.6098 -33.3281 -15.3519 33.6098 -36.8069 -10.0096 42.443 -29.5363 -15.3519 
-49.3924 -27.9737 -15.3519 -54.7219 -21.3708 -15.3519 -54.7219 -27.9737 -7.76046 
45.0286 -27.9737 -15.3519 51.2762 -23.3822 -15.3519 51.2762 -27.9737 -6.53553 
-56.1473 -19.1405 -15.3519 56.4858 -19.1405 -15.3519 60.1093 -13.2103 -15.3519 
60.1093 -19.1405 -7.37092 -59.0332 -10.3074 -15.3519 61.3088 -10.3074 -15.3519 
-59.2172 -1.47419 -15.3519 -63.5551 -1.47419 -8.89508 62.0549 -1.47419 -15.3519 
60.1093 2.54306 -15.3519 -59.1088 7.35898 -15.3519 -63.5551 7.35898 -6.61735 
42.443 15.9367 -15.3519 56.8442 7.35898 -15.3519 51.2762 12.4256 -15.3519 
60.1093 7.35898 -11.9558 -56.3605 16.1922 -15.3519 -54.7219 19.1023 -15.3519 
40.4912 16.1922 -15.3519 33.6098 17.4332 -15.3519 42.443 16.1922 -15.1642 
51.2762 16.1922 -10.1288 -50.061 25.0253 -15.3519 -54.7219 25.0253 -8.20053 
-45.8887 29.2239 -15.3519 27.8135 25.0253 -15.3519 33.6098 25.0253 -11.4475 
-40.0612 33.8585 -15.3519 -45.8887 33.8585 -8.41987 -37.0556 35.7031 -15.3519 
-28.2224 40.5744 -15.3519 15.9435 39.8555 -15.3519 24.8968 33.8585 -15.3519 
24.7766 34.0028 -15.3519 -23.1161 42.6917 -15.3519 -28.2224 42.6917 -12.3982 
-19.3892 43.996 -15.3519 -10.5561 46.0903 -15.3519 -1.72288 45.7692 -15.3519 
9.8737 42.6917 -15.3519 7.11029 43.5857 -15.3519 15.9435 42.6917 -13.1255 
-10.5561 51.5248 -7.82641 -1.72288 51.5248 -8.50613 -28.2224 -47.8276 -6.51876 
-19.3892 -50.7568 -6.51876 -10.5561 -51.7984 -6.51876 -1.72288 -51.3447 -6.51876 
-1.72288 -54.4732 2.18834 7.11029 -49.3787 -6.51876 15.9435 -45.7013 -6.51876 
-45.8887 -38.1476 -6.51876 -33.3371 -45.6401 -6.51876 -37.0556 -44.1248 -6.51876 
16.0926 -45.6401 -6.51876 24.7766 -42.2521 -6.51876 33.6098 -38.2994 -6.51876 
-47.4428 -36.8069 -6.51876 -54.7219 -28.7649 -6.51876 -45.8887 -36.8069 -3.05722 
36.8169 -36.8069 -6.51876 42.443 -33.6818 -6.51876 51.2762 -27.9797 -6.51876 
-55.3393 -27.9737 -6.51876 -54.7219 -27.9737 -5.24797 51.2838 -27.9737 -6.51876 
51.2762 -27.9737 -6.50218 60.1093 -19.4065 -6.51876 -60.4145 -19.1405 -6.51876 
60.3229 -19.1405 -6.51876 60.1093 -19.1405 -5.74053 -63.4148 -10.3074 -6.51876 
-63.5551 -9.24469 -6.51876 64.8591 -10.3074 -6.51876 -64.5671 -1.47419 -6.51876 
-63.5551 -1.47419 -2.63595 66.3758 -1.47419 -6.51876 -63.5948 7.35898 -6.51876 
-63.5551 7.49091 -6.51876 -63.5551 7.35898 -6.36828 63.6065 7.35898 -6.51876 
60.1093 11.9314 -6.51876 -60.5517 16.1922 -6.51876 42.443 23.203 -6.51876 
54.5445 16.1922 -6.51876 51.2762 18.0424 -6.51876 -55.5024 25.0253 -6.51876 
-54.7219 25.9967 -6.51876 -54.7219 25.0253 -3.60151 39.7459 25.0253 -6.51876 
33.6098 31.1603 -6.51876 42.443 25.0253 1.24566 -46.9897 33.8585 -6.51876 
-45.8887 34.7607 -6.51876 -45.8887 33.8585 -0.629734 -37.0556 40.5731 -6.51876 
31.553 33.8585 -6.51876 24.7766 41.3487 -6.51876 -33.2189 42.6917 -6.51876 
-28.2224 45.4472 -6.51876 -19.3892 49.4192 -6.51876 7.11029 51.0081 -6.51876 
23.06 42.6917 -6.51876 15.9435 47.4121 -6.51876 -12.8174 51.5248 -6.51876 
-10.5561 52.2069 -6.51876 4.5312 51.5248 -6.51876 -1.72288 52.6891 -6.51876 
7.11029 51.5248 -4.54937 -1.72288 -54.513 2.31441 -28.2224 -48.0633 2.31441 
-19.3892 -51.7801 2.31441 -2.21364 -54.4732 2.31441 -10.5561 -53.782 2.31441 
-1.47662 -54.4732 2.31441 -1.72288 -54.4732 2.51438 7.11029 -53.0441 2.31441 
15.9435 -49.5066 2.31441 -32.3716 -45.6401 2.31441 -37.0556 -42.2189 2.31441 
-28.2224 -45.6401 7.30458 22.6926 -45.6401 2.31441 24.7766 -44.3738 2.31441 
33.6098 -38.2748 2.31441 -43.4315 -36.8069 2.31441 -45.8887 -34.272 2.31441 
-37.0556 -36.8069 7.98839 35.5114 -36.8069 2.31441 33.6098 -36.8069 7.60984 
42.443 -31.3038 2.31441 -51.0506 -27.9737 2.31441 -54.7219 -22.7165 2.31441 
-45.8887 -27.9737 7.2742 46.6583 -27.9737 2.31441 42.443 -27.9737 9.2543 
51.2762 -23.965 2.31441 -56.9654 -19.1405 2.31441 -54.7219 -19.1405 4.91182 
56.8548 -19.1405 2.31441 51.2762 -19.1405 9.18077 60.1093 -14.779 2.31441 
-60.8793 -10.3074 2.31441 -54.7219 -10.3074 9.71444 62.4495 -10.3074 2.31441 
60.1093 -10.3074 6.15797 -62.0054 -1.47419 2.31441 64.8405 -1.47419 2.31441 
60.1093 -1.47419 10.8944 -60.9841 7.35898 2.31441 -54.7219 7.35898 10.6034 
63.1901 7.35898 2.31441 60.1093 11.7585 2.31441 60.1093 7.35898 9.39131 
-57.9517 16.1922 2.31441 -54.7219 22.3276 2.31441 -54.7219 16.1922 6.86533 
55.858 16.1922 2.31441 51.2762 19.6685 2.31441 -53.0962 25.0253 2.31441 
-45.8887 33.3266 2.31441 33.6098 33.1093 2.31441 42.8601 25.0253 2.31441 
42.443 25.2988 2.31441 -45.3244 33.8585 2.31441 -37.0556 39.9441 2.31441 
32.9068 33.8585 2.31441 24.7766 42.3093 2.31441 33.6098 33.8585 7.28882 
-32.4505 42.6917 2.31441 -28.2224 45.0856 2.31441 -28.2224 42.6917 9.37427 
-19.3892 49.3084 2.31441 24.3455 42.6917 2.31441 15.9435 49.0922 2.31441 
24.7766 42.6917 7.79522 -14.085 51.5248 2.31441 -10.5561 52.9157 2.31441 
-10.5561 51.5248 7.67537 -1.72288 54.4704 2.31441 10.8277 51.5248 2.31441 
7.11029 53.0932 2.31441 -19.3892 -46.7953 11.1476 -10.5561 -50.3251 11.1476 
-1.72288 -52.2858 11.1476 7.11029 -51.6741 11.1476 15.9435 -48.4124 11.1476 
-22.0808 -45.6401 11.1476 -28.2224 -41.4817 11.1476 -19.3892 -45.6401 12.141 
-10.5561 -45.6401 15.4336 -1.72288 -45.6401 17.2637 7.11029 -45.6401 17.2996 
21.0664 -45.6401 11.1476 15.9435 -45.6401 14.5578 24.7766 -43.2317 11.1476 
-32.3337 -36.8069 11.1476 -37.0556 -30.4397 11.1476 -28.2224 -36.8069 13.3628 
-19.3892 -36.8069 17.0841 -10.5561 -36.8069 19.3449 15.9435 -36.8069 19.7303 
32.3477 -36.8069 11.1476 24.7766 -36.8069 17.6669 33.6098 -35.4143 11.1476 
-39.0325 -27.9737 11.1476 -45.8887 -19.3072 11.1476 -37.0556 -27.9737 12.082 
-28.2224 -27.9737 15.4506 -19.3892 -27.9737 18.9133 41.1687 -27.9737 11.1476 
33.6098 -27.9737 17.0893 42.443 -26.7125 11.1476 -46.0015 -19.1405 11.1476 
-45.8887 -19.1405 11.2138 -37.0556 -19.1405 13.9962 -28.2224 -19.1405 16.1493 
-19.3892 -19.1405 18.4498 49.621 -19.1405 11.1476 42.443 -19.1405 17.1796 
51.2762 -17.2347 11.1476 -51.939 -10.3074 11.1476 -54.7219 -2.92937 11.1476 
-45.8887 -10.3074 13.7754 -37.0556 -10.3074 16.0677 -28.2224 -10.3074 17.1391 
-19.3892 -10.3074 17.9433 56.3359 -10.3074 11.1476 51.2762 -10.3074 16.0415 
-55.0098 -1.47419 11.1476 -54.7219 1.72029 11.1476 -54.7219 -1.47419 11.3841 
-45.8887 -1.47419 15.607 -37.0556 -1.47419 17.651 -28.2224 -1.47419 18.571 
-19.3892 -1.47419 18.9587 -1.72288 -1.47419 19.1966 59.9294 -1.47419 11.1476 
51.2762 -1.47419 19.5599 -54.037 7.35898 11.1476 -45.8887 7.35898 15.7346 
-37.0556 7.35898 18.1912 -28.2224 7.35898 19.1254 -19.3892 7.35898 19.4219 
59.2705 7.35898 11.1476 -50.3211 16.1922 11.1476 -45.8887 16.1922 14.1078 
-37.0556 16.1922 17.8535 -28.2224 16.1922 19.5174 53.6622 16.1922 11.1476 
[...]
POINT_DATA 514
SCALARS ImageScalars float
LOOKUP_TABLE default
0 0 0 0 0 0 0 0 0 
0 0 0 0 0 0 0 0 0 
0 0 0 0 0 0 0 0 0 
0 0 0 0 0 0 0 0 0 
0 0 0 0 0 0 0 0 0 
0 0 0 0 0 0 0 0 0 
0 0 0 0 0 0 0 0 0 
0 0 0 0 0 0 0 0 0 
0 0 0 0 0 0 0 0 0 
0 0 0 0 0 0 0 0 0 
0 0 0 0 0 0 0 0 0 
0 0 0 0 0 0 0 0 0 
0 0 0 0 0 0 0 0 0 
0 0 0 0 0 0 0 0 0 
0 0 0 0 0 0 0 0 0 
0 0 0 0 0 0 0 0 0 
0 0 0 0 0 0 0 0 0 
0 0 0 0 0 0 0 0 0 
0 0 0 0 0 0 0 0 0 
0 0 0 0 0 0 0 0 0 
0 0 0 0 0 0 0 0 0 
0 0 0 0 0 0 0 0 0 
0 0 0 0 0 0 0 0 0 
0 0 0 0 0 0 0 0 0 
0 0 0 0 0 0 0 0 0 
0 0 0 0 0 0 0 0 0 
0 0 0 0 0 0 0 0 0 
0 0 0 0 0 0 0 0 0 
0 0 0 0 0 0 0 0 0 
0 0 0 0 0 0 0 0 0 
0 0 0 0 0 0 0 0 0 
0 0 0 0 0 0 0 0 0 
0 0 0 0 0 0 0 0 0 
0 0 0 0 0 0 0 0 0 
0 0 0 0 0 0 0 0 0 
0 0 0 0 0 0 0 0 0 
0 0 0 0 0 0 0 0 0 
0 0 0 0 0 0 0 0 0 
0 0 0 0 0 0 0 0 0 
0 0 0 0 0 0 0 0 0 
0 0 0 0 0 0 0 0 0 
0 0 0 0 0 0 0 0 0 
0 0 0 0 0 0 0 0 0 
0 0 0 0 0 0 0 0 0 
0 0 0 0 0 0 0 0 0 
0 0 0 0 0 0 0 0 0 
0 0 0 0 0 0 0 0 0 
0 0 0 0 0 0 0 0 0 
0 0 0 0 0 0 0 0 0 
0 0 0 0 0 0 0 0 0 
0 0 0 0 0 0 0 0 0 
0 0 0 0 0 0 0 0 0 
0 0 0 0 0 0 0 0 0 
0 0 0 0 0 0 0 0 0 
0 0 0 0 0 0 0 0 0 
0 0 0 0 0 0 0 0 0 
0 0 0 0 0 0 0 0 0 
0 
NORMALS Normals float
-0.286289 -0.566223 -0.772936 -0.118664 -0.437242 -0.891481 0.000476779 -0.333173 -0.942866 
0.0423931 -0.339771 -0.939552 0.0883908 -0.358821 -0.929212 0.118882 -0.445296 -0.887456 
0.118572 -0.54458 -0.830285 -0.422922 -0.411152 -0.807521 -0.179145 -0.254477 -0.950341 
-0.0209679 -0.135395 -0.99057 0.0421508 -0.101054 -0.993988 0.00984486 -0.091897 -0.99572 
0.0247566 -0.165623 -0.985878 0.0435111 -0.212368 -0.976221 0.0205497 -0.217926 -0.975749 
0.0615823 -0.26968 -0.960979 0.1621 -0.430905 -0.887719 0.351199 -0.616856 -0.704378 
-0.575023 -0.345015 -0.74183 -0.281272 -0.155517 -0.946943 -0.0182929 -0.075346 -0.99699 
0.0642446 0.0331041 -0.997385 0.0550148 0.0492653 -0.997269 -0.0316823 0.0172787 -0.999349 
-0.0331365 -0.010573 -0.999395 0.0657324 -0.0648026 -0.995731 0.0362562 0.0279125 -0.998953 
-0.0728353 -0.0017208 -0.997342 0.0161486 -0.154139 -0.987917 0.177626 -0.257496 -0.949813 
0.373764 -0.456664 -0.807316 -0.46277 -0.118726 -0.878492 -0.159599 -0.00105895 -0.987181 
0.0114351 0.0202737 -0.999729 0.103701 0.0634298 -0.992584 0.029656 0.0923009 -0.995289 
-0.0506287 -0.127331 -0.990567 -0.0590708 0.127394 -0.990092 0.0843386 -0.0575362 -0.994775 
0.0835702 -0.0452324 -0.995475 -0.11392 0.0417833 -0.992611 -0.105732 0.0294755 -0.993958 
0.00680985 -0.0767925 -0.997024 0.301811 -0.160951 -0.939683 0.65101 -0.186913 -0.735697 
-0.439019 -0.00561169 -0.89846 -0.146349 0.000895893 -0.989233 0.0385347 -0.000250993 -0.999257 
0.134708 0.0117293 -0.990816 -0.117564 0.0374189 -0.99236 -0.0456785 -0.114655 -0.992355 
0.0576535 0.0489042 -0.997138 -0.13797 0.0421677 -0.989538 0.161026 0.0185669 -0.986776 
0.00334957 0.124216 -0.99225 -0.100654 0.14219 -0.984708 0.000931724 0.135639 -0.990758 
0.262286 0.152903 -0.9528 0.571628 0.140244 -0.808438 -0.461662 0.099324 -0.881478 
-0.153171 0.0358301 -0.98755 0.022385 -0.0461135 -0.998685 0.14119 -0.0644142 -0.987885 
-0.0505543 -0.0815759 -0.995384 -0.0804223 0.18597 -0.979259 0.0818831 -0.0262111 -0.996297 
0.096728 0.226185 -0.96927 0.154164 0.188148 -0.969966 -0.0398424 0.188399 -0.981284 
-0.100554 0.288865 -0.952075 0.0171551 0.348632 -0.937103 0.298528 0.414071 -0.859899 
-0.604172 0.324983 -0.727573 -0.282029 0.131959 -0.950287 -0.0653816 0.060999 -0.995994 
0.100591 -0.0216862 -0.994692 0.0804388 -0.134055 -0.987704 0.0670731 0.0326266 -0.997214 
0.101393 -0.00611765 -0.994828 0.0817429 0.0258214 -0.996319 0.108193 -0.0679531 -0.991805 
0.117569 0.0449425 -0.992047 0.0696238 0.338069 -0.938542 -0.399631 0.430567 -0.809263 
-0.137712 0.264628 -0.954467 -0.0571456 0.119264 -0.991217 -0.00425694 -0.0195486 -0.9998 
0.0768701 -0.0227522 -0.996781 0.0840791 -0.0224985 -0.996205 0.0526931 -0.0458897 -0.997556 
0.140606 -0.0216298 -0.989829 0.36539 0.0518485 -0.929409 -0.356974 0.564582 -0.744189 
-0.194337 0.352118 -0.915558 -0.0644902 0.227232 -0.971703 0.0571646 0.173204 -0.983226 
0.0766534 0.149793 -0.985741 0.083244 0.18477 -0.97925 0.20871 0.263104 -0.941921 
0.49762 0.366005 -0.786393 -0.205847 0.62455 -0.753369 -0.0352513 0.478355 -0.877458 
0.0960892 0.443697 -0.891011 0.178439 0.513166 -0.839536 -0.308967 -0.624963 -0.716911 
-0.210703 -0.617642 -0.757709 -0.307154 -0.831824 -0.462304 -0.0454663 -0.603316 -0.796205 
-0.0777884 -0.699576 -0.710312 0.0394828 -0.543687 -0.838359 0.0221144 -0.641259 -0.767006 
0.110515 -0.521302 -0.846186 0.127559 -0.635155 -0.761779 0.153247 -0.512442 -0.844937 
0.255589 -0.682959 -0.684281 0.13122 -0.565285 -0.814392 0.326895 -0.799179 -0.504433 
-0.361951 -0.609102 -0.705682 -0.494828 -0.521697 -0.694965 -0.639382 -0.745541 -0.188039 
0.141256 -0.610635 -0.779213 0.150539 -0.640097 -0.753402 0.181626 -0.699701 -0.690963 
0.246786 -0.650915 -0.717918 0.365174 -0.858072 -0.361055 0.38205 -0.670758 -0.635706 
-0.551994 -0.465634 -0.691728 -0.608903 -0.403171 -0.683147 -0.80813 -0.584359 -0.0738247 
0.420115 -0.660608 -0.622174 0.491266 -0.596584 -0.634622 0.605344 -0.795964 0.000791339 
-0.632106 -0.358843 -0.686785 0.603864 -0.528858 -0.59637 0.690148 -0.325829 -0.646166 
0.798117 -0.601453 -0.0355354 -0.712677 -0.122094 -0.690786 0.694769 -0.212347 -0.687171 
-0.679143 -0.00390893 -0.733996 -0.977501 -0.00897564 -0.210738 0.65409 0.128677 -0.745392 
0.587 0.291243 -0.755387 -0.719111 0.1313 -0.682378 -0.975583 0.206417 -0.0750311 
0.141555 0.555257 -0.819544 0.478607 0.447621 -0.755361 0.342629 0.585909 -0.734381 
0.670927 0.509979 -0.538311 -0.674251 0.348271 -0.651225 -0.651739 0.420498 -0.631203 
0.129122 0.515312 -0.84722 0.119214 0.348337 -0.929758 0.150832 0.566197 -0.810352 
0.427517 0.791996 -0.435857 -0.566897 0.517756 -0.640747 -0.788195 0.595244 -0.15631 
-0.494509 0.566787 -0.658949 0.402454 0.162618 -0.900881 0.542828 0.480338 -0.688922 
-0.435 0.619623 -0.653332 -0.613058 0.759618 -0.21712 -0.397914 0.633969 -0.663135 
-0.320222 0.653593 -0.685765 0.295549 0.506085 -0.810264 0.501664 0.367863 -0.78295 
0.499171 0.372127 -0.782528 -0.273988 0.678963 -0.681131 -0.38564 0.786641 -0.482159 
-0.227858 0.673516 -0.703177 -0.0745178 0.616018 -0.7842 0.0947425 0.56841 -0.817272 
0.226025 0.548636 -0.804929 0.186091 0.546587 -0.816463 0.364616 0.666854 -0.649893 
-0.159253 0.925339 -0.344073 0.0680295 0.887482 -0.455794 -0.345613 -0.909293 -0.231815 
-0.206893 -0.917412 -0.339928 -0.0319468 -0.898092 -0.438645 0.111221 -0.856115 -0.504675 
0.0408523 -0.997133 -0.0637005 0.268468 -0.80018 -0.536318 0.328219 -0.800228 -0.501904 
-0.642627 -0.764122 -0.0560962 -0.389637 -0.902176 -0.1851 -0.433922 -0.889116 -0.145549 
0.329097 -0.801138 -0.499873 0.370128 -0.854642 -0.364132 0.404994 -0.894718 -0.188308 
-0.670547 -0.740368 -0.0471354 -0.804392 -0.594082 -0.00463455 -0.667087 -0.728997 0.153488 
0.445999 -0.8834 -0.143838 0.52155 -0.850329 -0.0701877 0.605309 -0.795988 0.00174987 
-0.815234 -0.579105 -0.0055608 -0.810755 -0.582887 0.0540306 0.605424 -0.795901 0.00174533 
0.605388 -0.795927 0.00248279 0.796758 -0.60423 0.00908254 -0.921444 -0.38851 0.00106443 
0.801796 -0.597529 0.00908061 0.796676 -0.602836 0.0435392 -0.973721 -0.216639 -0.0702497 
-0.97877 -0.192179 -0.071246 0.944754 -0.326485 -0.0291181 -0.996542 -0.00844456 -0.0826639 
-0.989196 -0.00806199 0.146375 0.994849 0.0424673 -0.0920478 -0.975918 0.206516 -0.0702439 
-0.975431 0.208946 -0.0698325 -0.976348 0.207007 -0.0623903 0.835843 0.514688 -0.190951 
0.710551 0.667605 -0.222307 -0.918473 0.391462 -0.0562548 0.489889 0.792274 -0.363745 
0.535091 0.808049 -0.246445 0.489903 0.825332 -0.280752 -0.806268 0.586643 -0.0760422 
-0.78849 0.610518 -0.0745092 -0.801583 0.594019 0.0678663 0.551243 0.740287 -0.384846 
0.730741 0.584188 -0.353189 0.55297 0.81643 -0.166334 -0.63313 0.765577 -0.114185 
-0.620307 0.775033 -0.120594 -0.659696 0.739073 0.136277 -0.490621 0.855832 -0.163836 
0.752504 0.584137 -0.304174 0.621187 0.735863 -0.269505 -0.466227 0.868797 -0.166806 
-0.434402 0.883441 -0.175578 -0.352109 0.911823 -0.211184 0.249652 0.886834 -0.388844 
0.57565 0.768186 -0.280209 0.446365 0.830113 -0.334172 -0.216046 0.940366 -0.262748 
-0.170177 0.944257 -0.281814 0.193833 0.904074 -0.380894 0.0621641 0.926303 -0.371616 
0.256017 0.915613 -0.310014 0.0401368 -0.997509 -0.058015 -0.458393 -0.865211 0.203187 
-0.311776 -0.940689 0.13379 0.0303248 -0.998148 -0.052732 -0.144412 -0.988362 0.0478023 
0.0461878 -0.997182 -0.0591232 0.0383079 -0.998115 -0.0479376 0.263913 -0.959809 -0.0954835 
0.439079 -0.890711 -0.11766 -0.489435 -0.830329 0.266471 -0.534611 -0.743485 0.401773 
-0.474175 -0.749851 0.46139 0.513519 -0.854446 -0.0788677 0.533597 -0.844004 -0.0541477 
0.595385 -0.797101 0.100727 -0.607098 -0.622844 0.493454 -0.625958 -0.58151 0.519637 
-0.527292 -0.506776 0.682012 0.593445 -0.790389 0.152014 0.64914 -0.701153 0.294958 
0.60186 -0.747778 0.280343 -0.696356 -0.508065 0.506911 -0.716301 -0.487088 0.499658 
-0.509466 -0.44411 0.737029 0.605199 -0.722416 0.334439 0.6083 -0.65855 0.44304 
0.602696 -0.69095 0.399181 -0.742382 -0.434076 0.51034 -0.671792 -0.426672 0.605514 
0.673838 -0.614512 0.410264 0.608473 -0.595185 0.524896 0.773965 -0.48429 0.407973 
-0.847401 -0.240327 0.473449 -0.582506 -0.254463 0.771968 0.858842 -0.34888 0.375065 
0.781647 -0.379517 0.494969 -0.883976 -0.00521803 0.467504 0.943878 -0.0383098 0.328065 
0.799345 -0.107198 0.591232 -0.872351 0.199967 0.446114 -0.651026 0.156873 0.742668 
0.887799 0.408336 0.212308 0.799561 0.576527 0.168281 0.847386 0.315971 0.426731 
-0.835843 0.370839 0.404777 -0.77041 0.505875 0.388018 -0.717287 0.354571 0.599815 
0.66472 0.744651 0.0603436 0.601098 0.798763 -0.0256528 -0.746929 0.551865 0.370865 
-0.66499 0.695936 0.271037 0.718712 0.685598 -0.115797 0.559179 0.817327 -0.138909 
0.559794 0.815949 -0.144423 -0.6546 0.708966 0.262422 -0.532715 0.820804 0.206144 
0.723972 0.681295 -0.108176 0.675487 0.734691 -0.0628313 0.7149 0.6992 -0.00611602 
-0.491948 0.853625 0.171203 -0.462137 0.872083 0.160935 -0.44676 0.789334 0.421139 
-0.411003 0.90386 0.118798 0.669337 0.740271 -0.0631442 0.512264 0.854259 -0.0884715 
0.645553 0.761344 0.0601333 -0.329009 0.940068 0.0895832 -0.269503 0.959421 0.0829443 
-0.279983 0.905594 0.318604 -0.00802032 0.999966 0.00189691 0.36306 0.928511 -0.0778071 
0.263288 0.962266 -0.0687297 -0.32642 -0.662824 0.67388 -0.230684 -0.776447 0.586443 
-0.0598402 -0.865926 0.49658 0.202431 -0.880755 0.428126 0.393977 -0.835676 0.382659 
-0.36354 -0.638377 0.678464 -0.455779 -0.502321 0.734805 -0.318122 -0.619448 0.717692 
-0.242824 -0.566351 0.787581 -0.0907475 -0.501833 0.860191 0.112088 -0.53779 0.835594 
0.481444 -0.790723 0.378112 0.367301 -0.723965 0.583922 0.544708 -0.747197 0.380776 
-0.469341 -0.380449 0.796855 -0.420474 -0.319223 0.849293 -0.434923 -0.309842 0.845482 
-0.300484 -0.306855 0.903078 -0.183599 -0.283495 0.941234 0.147148 -0.297694 0.943253 
0.654825 -0.628195 0.420208 0.387259 -0.505724 0.770891 0.652001 -0.61869 0.438313 
-0.392332 -0.301477 0.869015 -0.413855 -0.313496 0.85466 -0.386589 -0.268321 0.882356 
-0.360128 -0.14143 0.92212 -0.30065 -0.0686507 0.95126 0.594939 -0.628885 0.500551 
0.463821 -0.488971 0.738768 0.598634 -0.624135 0.502088 -0.416206 -0.311836 0.854126 
-0.413091 -0.311647 0.855705 -0.255657 -0.219192 0.941591 -0.240819 -0.0921633 0.966184 
-0.274407 0.0532656 0.960137 0.597335 -0.568988 0.565194 0.495355 -0.468969 0.731226 
0.613169 -0.541376 0.57527 -0.486103 -0.252319 0.836683 -0.603234 -0.0765827 0.793879 
-0.330399 -0.230091 0.915366 -0.172687 -0.192768 0.96593 -0.105036 -0.133527 0.985463 
-0.184442 -0.0289105 0.982418 0.677551 -0.39133 0.622724 0.59803 -0.380089 0.705615 
-0.618132 -0.0398025 0.785066 -0.625137 0.031764 0.779868 -0.608752 -0.0407356 0.792314 
-0.329389 -0.100036 0.93888 -0.166155 -0.12016 0.978751 -0.0722408 -0.111065 0.991184 
-0.149098 -0.0831754 0.985318 -0.0701476 -0.0206104 0.997324 0.793008 -0.110013 0.599196 
0.565354 -0.164272 0.808325 -0.623738 0.150595 0.766989 -0.381478 0.0739927 0.921412 
-0.187815 -0.0110371 0.982142 -0.0682893 -0.0532235 0.996245 -0.154092 -0.0821106 0.984639 
0.825821 0.283963 0.487221 -0.567393 0.27767 0.775219 -0.48962 0.215756 0.84482 
-0.278341 0.078668 0.957255 -0.143401 -0.0410114 0.988815 0.725837 0.608316 0.321111 
0.703864 0.657756 0.268202 0.704713 0.549898 0.448321 -0.597935 0.383338 0.703936 
-0.597964 0.383963 0.70357 -0.597503 0.382871 0.704556 -0.412359 0.242974 0.878022 
-0.223275 0.0804198 0.971432 0.667133 0.735949 0.115383 0.666205 0.739567 0.0959775 
0.660034 0.698633 0.276165 -0.566295 0.565991 0.599137 -0.544228 0.600236 0.586116 
-0.531351 0.541008 0.651902 -0.437488 0.746002 0.50208 -0.315479 0.396159 0.862282 
-0.129773 0.28246 0.950461 0.698707 0.711494 0.074731 0.701039 0.708857 0.0778827 
0.691604 0.706205 0.151519 -0.425932 0.75342 0.50094 -0.390123 0.766338 0.510423 
-0.344405 0.61066 0.713077 -0.280032 0.820969 0.497586 -0.24481 0.44018 0.863892 
0.452098 0.864302 0.220432 0.625589 0.768736 0.132982 0.621784 0.77166 0.133886 
0.618786 0.769168 0.159638 -0.19759 0.865738 0.459843 -0.0975851 0.898809 0.42734 
-0.113931 0.85715 0.502308 0.257585 0.924924 0.279581 0.165624 0.937764 0.305233 
0.149478 0.908827 0.389474 -0.0831447 -0.238809 0.967501 0.0551886 -0.252695 0.965971 
-0.130051 -0.234233 0.963443 -0.1604 -0.213965 0.963582 -0.0765509 -0.190998 0.978601 
0.12153 -0.265572 0.9564 0.0376215 -0.170027 0.984721 0.119712 -0.25863 0.95853 
0.242864 -0.300301 0.922408 -0.211833 -0.0797564 0.974046 -0.115393 -0.0912335 0.989121 
0.00876006 -0.0546369 0.998468 -0.011598 0.00905832 0.999892 -0.00684252 -0.0686813 0.997615 
0.269421 -0.284966 0.919895 0.175944 -0.193359 0.965223 0.301339 -0.370648 0.87853 
-0.215176 0.0435076 0.975606 -0.164371 0.0282368 0.985994 0.0281488 -0.0298872 0.999157 
0.0246496 -0.0397911 0.998904 -0.0723225 -0.0251754 0.997064 -0.0228033 -0.128098 0.991499 
0.321 -0.368585 0.872413 0.198331 -0.299389 0.93329 0.404841 -0.374706 0.834086 
-0.20291 -0.0117285 0.979127 -0.207441 -0.00771724 0.978217 -0.069386 0.0304673 0.997125 
-0.060296 0.124009 0.990448 -0.00698575 -0.107505 0.99418 -0.095721 -0.103472 0.990016 
-0.103251 -0.150784 0.98316 0.0844536 -0.195525 0.977056 0.433214 -0.339422 0.834936 
0.347836 -0.32254 0.880328 -0.0896224 -0.0832962 0.992487 -0.049089 -0.0448885 0.997785 
-0.0162221 -0.0815669 0.996536 -0.107104 -0.0133273 0.994159 -0.0427479 -0.0431565 0.998153 
-0.200986 0.00806785 0.979561 -0.108594 -0.0709191 0.991553 -0.119419 -0.0890662 0.988841 
0.0289902 -0.116027 0.992823 0.540716 -0.166246 0.824614 0.270016 -0.14236 0.952273 
0.58594 0.0333849 0.809666 -0.156218 -0.0549432 0.986193 -0.0995753 -0.0811468 0.991716 
-0.147234 0.046879 0.98799 0.0293334 -0.0893069 0.995572 -0.0599976 0.0179903 0.998036 
-0.206045 -0.0660766 0.976309 -0.13862 -0.0767236 0.987369 0.0318904 -0.04945 0.998267 
0.270559 0.0221623 0.962448 0.595185 0.136214 0.79196 0.596511 0.151999 0.788081 
0.587745 0.133831 0.7979 -0.0970863 -0.062001 0.993343 -0.0520644 -0.0807068 0.995377 
-0.0272943 0.063353 0.997618 -0.0947692 0.0138658 0.995403 -0.177251 -0.121011 0.976698 
-0.197324 -0.126942 0.972085 -0.102994 -0.00839723 0.994647 0.122156 0.119491 0.985292 
0.595675 0.404409 0.693991 0.581615 0.522461 0.623504 0.486171 0.331774 0.808433 
-0.20598 0.077361 0.975493 -0.0951933 0.188344 0.977479 -0.0502963 0.0536326 0.997293 
-0.0454369 0.00801629 0.998935 -0.158511 -0.0747102 0.984527 -0.194675 -0.103117 0.975432 
-0.0936253 -0.0231108 0.995339 0.0952269 0.144352 0.984934 0.566361 0.558121 0.606413 
0.558844 0.592062 0.580651 0.374209 0.402139 0.835615 -0.141924 0.163803 0.976231 
-0.169071 0.1706 0.970727 -0.150726 0.107623 0.9827 -0.210092 0.0818684 0.974248 
-0.131258 0.0958846 0.9867 0.062133 0.227533 0.971786 0.523513 0.607615 0.597276 
0.44717 0.611717 0.652565 0.328888 0.447421 0.831653 -0.145257 0.395177 0.907048 
-0.139155 0.400258 0.905776 -0.139603 0.393373 0.908718 -0.00383391 0.53783 0.843044 
-0.0324578 0.461428 0.886584 0.286696 0.63131 0.720592 0.250011 0.630144 0.735128 
0.242349 0.608856 0.755355 
