# vtk DataFile Version 4.2
vtk output
ASCII
DATASET POLYDATA
POINTS 534 float
-44.8428 -29.4054 -11.7976 -36.6451 -29.4054 -13.5376 -28.4473 -29.4054 -13.2908 
-20.2495 -29.4054 -13.0785 -12.0518 -29.4054 -11.8848 -53.0406 -21.2076 -13.1923 
-44.8428 -21.2076 -15.8445 -36.6451 -21.2076 -15.3251 -28.4473 -21.2076 -15.5528 
-20.2495 -21.2076 -15.1611 -12.0518 -21.2076 -14.4416 -3.85401 -21.2076 -13.0813 
4.34375 -21.2076 -12.9849 12.5415 -21.2076 -12.5168 20.7393 -21.2076 -12.9705 
28.937 -21.2076 -13.4065 37.1348 -21.2076 -14.4127 45.3326 -21.2076 -13.6235 
53.5303 -21.2076 -13.1681 -61.2384 -13.0099 -13.4192 -53.0406 -13.0099 -15.9634 
-44.8428 -13.0099 -16.4529 -36.6451 -13.0099 -16.5379 -28.4473 -13.0099 -16.1948 
-20.2495 -13.0099 -15.2652 -12.0518 -13.0099 -16.4777 -3.85401 -13.0099 -15.1836 
4.34375 -13.0099 -15.0509 12.5415 -13.0099 -12.2523 20.7393 -13.0099 -13.3993 
28.937 -13.0099 -14.3534 37.1348 -13.0099 -15.6607 45.3326 -13.0099 -15.3119 
53.5303 -13.0099 -14.4177 61.7281 -13.0099 -12.3104 -61.2384 -4.81209 -12.5597 
-53.0406 -4.81209 -16.79 -44.8428 -4.81209 -17.9247 -36.6451 -4.81209 -17.5795 
-28.4473 -4.81209 -16.5484 -20.2495 -4.81209 -15.3618 -12.0518 -4.81209 -17.978 
-3.85401 -4.81209 -15.3194 4.34375 -4.81209 -17.3832 20.7393 -4.81209 -13.2769 
28.937 -4.81209 -15.3767 37.1348 -4.81209 -16.4211 45.3326 -4.81209 -16.8307 
53.5303 -4.81209 -17.0163 61.7281 -4.81209 -12.541 -61.2384 3.38568 -12.6362 
-53.0406 3.38568 -17.0242 -44.8428 3.38568 -18.6058 -36.6451 3.38568 -18.2437 
-28.4473 3.38568 -17.5093 -20.2495 3.38568 -16.7158 -12.0518 3.38568 -19.2447 
-3.85401 3.38568 -16.5913 4.34375 3.38568 -18.0867 12.5415 3.38568 -16.15 
20.7393 3.38568 -14.7273 28.937 3.38568 -16.2808 37.1348 3.38568 -17.327 
45.3326 3.38568 -17.2559 53.5303 3.38568 -17.612 61.7281 3.38568 -12.585 
-61.2384 11.5834 -13.554 -53.0406 11.5834 -18.1822 -44.8428 11.5834 -18.4394 
-36.6451 11.5834 -18.59 -28.4473 11.5834 -18.3621 -20.2495 11.5834 -18.0896 
-12.0518 11.5834 -17.97 -3.85401 11.5834 -17.1155 4.34375 11.5834 -16.0347 
12.5415 11.5834 -15.3047 20.7393 11.5834 -16.5469 28.937 11.5834 -17.3079 
37.1348 11.5834 -17.62 45.3326 11.5834 -16.9769 53.5303 11.5834 -15.7799 
61.7281 11.5834 -11.8549 -53.0406 19.7812 -14.9904 -44.8428 19.7812 -17.6634 
-36.6451 19.7812 -18.5658 -28.4473 19.7812 -19.2342 -20.2495 19.7812 -19.2833 
-12.0518 19.7812 -18.6896 -3.85401 19.7812 -17.5272 4.34375 19.7812 -16.6544 
12.5415 19.7812 -16.3518 20.7393 19.7812 -17.233 28.937 19.7812 -17.6902 
37.1348 19.7812 -17.6575 45.3326 19.7812 -15.6402 53.5303 19.7812 -13.6943 
-53.0406 27.979 -12.8164 -44.8428 27.979 -15.6631 -36.6451 27.979 -18.6486 
-28.4473 27.979 -18.8606 -20.2495 27.979 -19.2935 -12.0518 27.979 -19.1197 
-3.85401 27.979 -18.5967 4.34375 27.979 -17.8928 12.5415 27.979 -17.4745 
20.7393 27.979 -17.6357 28.937 27.979 -17.9907 37.1348 27.979 -15.4472 
-44.8428 36.1767 -12.2464 -36.6451 36.1767 -14.7797 -28.4473 36.1767 -16.7404 
-20.2495 36.1767 -17.5068 -12.0518 36.1767 -18.0789 -3.85401 36.1767 -18.2033 
4.34375 36.1767 -17.7319 12.5415 36.1767 -17.0342 20.7393 36.1767 -16.9616 
28.937 36.1767 -14.8329 -20.2495 44.3745 -11.9895 -12.0518 44.3745 -14.1675 
-3.85401 44.3745 -15.4578 4.34375 44.3745 -15.4904 12.5415 44.3745 -14.5657 
20.7393 44.3745 -12.1919 -44.8428 -29.4144 -11.7932 -44.8428 -37.6031 -7.12902 
-36.6451 -32.4145 -11.7932 -36.6451 -37.6031 -8.99715 -28.4473 -32.737 -11.7932 
-28.4473 -37.6031 -9.21863 -20.2495 -31.8479 -11.7932 -20.2495 -37.6031 -8.2722 
-12.0518 -29.5708 -11.7932 -12.0518 -37.6031 -6.48535 -3.85401 -37.6031 -5.42948 
4.34375 -37.6031 -5.03976 12.5415 -37.6031 -4.40768 20.7393 -37.6031 -4.3395 
28.937 -37.6031 -4.02839 37.1348 -37.6031 -3.6002 -44.8686 -29.4054 -11.7932 
-53.0406 -25.2665 -11.7932 -53.0406 -29.4054 -10.2463 -11.4761 -29.4054 -11.7932 
-3.85401 -25.4438 -11.7932 -3.85401 -29.4054 -10.5308 4.34375 -25.3411 -11.7932 
4.34375 -29.4054 -10.5309 12.5415 -24.0102 -11.7932 12.5415 -29.4054 -10.2607 
20.7393 -25.2372 -11.7932 20.7393 -29.4054 -10.298 28.937 -26.1387 -11.7932 
28.937 -29.4054 -10.598 37.1348 -27.1196 -11.7932 37.1348 -29.4054 -10.4018 
45.3326 -26.7684 -11.7932 45.3326 -29.4054 -10.4972 53.5303 -23.9365 -11.7932 
53.5303 -29.4054 -7.21221 -56.8314 -21.2076 -11.7932 -61.2384 -17.43 -11.7932 
-61.2384 -21.2076 -9.71497 56.3671 -21.2076 -11.7932 61.7281 -14.3009 -11.7932 
61.7281 -21.2076 -7.93649 -63.4139 -13.0099 -11.7932 12.5415 -9.83711 -11.7932 
62.5371 -13.0099 -11.7932 -62.4503 -4.81209 -11.7932 -69.4361 -4.81209 -4.08715 
11.4569 -4.81209 -11.7932 14.9713 -4.81209 -11.7932 12.5415 -3.13668 -11.7932 
12.5415 -4.81209 -11.1825 63.2056 -4.81209 -11.7932 69.9259 -4.81209 -7.13277 
-62.3566 3.38568 -11.7932 62.9947 3.38568 -11.7932 69.9259 3.38568 -5.30735 
-63.3454 11.5834 -11.7932 -61.2384 16.249 -11.7932 61.812 11.5834 -11.7932 
61.7281 11.7109 -11.7932 -58.3134 19.7812 -11.7932 -61.2384 19.7812 -7.47548 
45.3326 27.6092 -11.7932 56.3612 19.7812 -11.7932 53.5303 22.4149 -11.7932 
-54.3685 27.979 -11.7932 -53.0406 29.3729 -11.7932 44.9342 27.979 -11.7932 
37.1348 34.4803 -11.7932 45.3326 27.979 -11.2619 -45.4575 36.1767 -11.7932 
-44.8428 36.6031 -11.7932 -36.6451 39.5972 -11.7932 -28.4473 42.1415 -11.7932 
35.1067 36.1767 -11.7932 28.937 40.4575 -11.7932 37.1348 36.1767 -7.75092 
-20.9694 44.3745 -11.7932 -20.2495 44.549 -11.7932 -12.0518 46.8616 -11.7932 
-3.85401 48.5237 -11.7932 4.34375 48.8423 -11.7932 12.5415 47.6826 -11.7932 
21.6558 44.3745 -11.7932 20.7393 44.7969 -11.7932 -44.8428 -40.7419 -3.5954 
-36.6451 -43.0357 -3.5954 -28.4473 -44.0876 -3.5954 -28.4473 -45.8009 3.60998 
-20.2495 -42.5868 -3.5954 -20.2495 -45.8009 4.60127 -12.0518 -40.6511 -3.5954 
-3.85401 -39.4245 -3.5954 4.34375 -38.9534 -3.5954 12.5415 -38.2995 -3.5954 
20.7393 -38.2586 -3.5954 28.937 -37.9563 -3.5954 37.1348 -37.607 -3.5954 
-50.952 -37.6031 -3.5954 -53.0406 -36.4014 -3.5954 -53.0406 -37.6031 4.22739 
37.1585 -37.6031 -3.5954 45.3326 -35.7664 -3.5954 45.3326 -37.6031 1.71228 
53.5303 -32.204 -3.5954 -60.4093 -29.4054 -3.5954 -61.2384 -28.3728 -3.5954 
57.4882 -29.4054 -3.5954 61.7281 -25.7699 -3.5954 -65.7472 -21.2076 -3.5954 
66.218 -21.2076 -3.5954 -68.7563 -13.0099 -3.5954 -69.4361 -7.03611 -3.5954 
69.858 -13.0099 -3.5954 69.9259 -12.831 -3.5954 -69.6574 -4.81209 -3.5954 
-69.4361 -2.5009 -3.5954 -69.4361 -4.81209 -2.90318 72.2938 -4.81209 -3.5954 
-68.8537 3.38568 -3.5954 70.9482 3.38568 -3.5954 69.9259 6.00667 -3.5954 
-66.5277 11.5834 -3.5954 67.3739 11.5834 -3.5954 61.7281 18.6826 -3.5954 
-62.6757 19.7812 -3.5954 -61.2384 22.3297 -3.5954 -61.2384 19.7812 -0.375461 
60.6132 19.7812 -3.5954 53.5303 25.6396 -3.5954 -57.3776 27.979 -3.5954 
-53.0406 32.3466 -3.5954 -53.0406 27.979 3.84311 50.1929 27.979 -3.5954 
45.3326 31.2655 -3.5954 -47.694 36.1767 -3.5954 -44.8428 37.8481 -3.5954 
-44.8428 36.1767 -0.297895 -36.6451 40.9695 -3.5954 -28.4473 44.226 -3.5954 
28.937 42.9124 -3.5954 38.7404 36.1767 -3.5954 37.1348 37.365 -3.5954 
37.1348 36.1767 -1.07179 -27.9195 44.3745 -3.5954 -20.2495 46.4925 -3.5954 
-20.2495 44.3745 1.85272 -12.0518 49.2533 -3.5954 -3.85401 50.9238 -3.5954 
4.34375 50.8836 -3.5954 12.5415 49.4858 -3.5954 26.1052 44.3745 -3.5954 
20.7393 46.8935 -3.5954 20.7393 44.3745 1.77675 -28.4473 -45.9657 4.60237 
-20.2495 -45.8012 4.60237 -53.0406 -37.6529 4.60237 -44.8428 -42.3908 4.60237 
-29.912 -45.8009 4.60237 -36.6451 -44.9726 4.60237 -28.4473 -45.8009 4.97488 
-20.2472 -45.8009 4.60237 -20.2495 -45.8009 4.60313 -12.0518 -44.6569 4.60237 
-3.85401 -43.9117 4.60237 4.34375 -43.2552 4.60237 12.5415 -42.9112 4.60237 
20.7393 -42.4849 4.60237 28.937 -41.7631 4.60237 37.1348 -40.3698 4.60237 
45.3326 -38.2622 4.60237 -53.0981 -37.6031 4.60237 -53.0406 -37.6031 4.66893 
-44.8428 -37.6031 11.3859 37.1348 -37.6031 12.3267 46.7424 -37.6031 4.60237 
45.3326 -37.6031 6.42411 53.5303 -34.0413 4.60237 -60.2111 -29.4054 4.60237 
-61.2384 -28.0463 4.60237 -53.0406 -29.4054 11.0591 59.1089 -29.4054 4.60237 
53.5303 -29.4054 10.2725 61.7281 -26.5463 4.60237 -64.3063 -21.2076 4.60237 
-61.2384 -21.2076 7.80618 -53.0406 -21.2076 11.8898 66.3403 -21.2076 4.60237 
61.7281 -21.2076 10.8668 -65.7071 -13.0099 4.60237 -61.2384 -13.0099 9.27964 
-53.0406 -13.0099 12.6223 69.7308 -13.0099 4.60237 69.9259 -12.3445 4.60237 
-65.1753 -4.81209 4.60237 -61.2384 -4.81209 8.11814 -53.0406 -4.81209 12.1134 
71.6103 -4.81209 4.60237 69.9259 -4.81209 7.27839 -65.3254 3.38568 4.60237 
-61.2384 3.38568 8.35552 -53.0406 3.38568 11.3509 70.7656 3.38568 4.60237 
69.9259 5.13887 4.60237 69.9259 3.38568 5.82113 -63.4521 11.5834 4.60237 
-61.2384 15.7541 4.60237 -61.2384 11.5834 6.60398 -53.0406 11.5834 11.3833 
-44.8428 11.5834 12.7916 66.1421 11.5834 4.60237 61.7281 18.017 4.60237 
61.7281 11.5834 9.81518 -57.4901 19.7812 4.60237 -53.0406 26.9817 4.60237 
-53.0406 19.7812 7.61325 -44.8428 19.7812 10.9307 45.3326 19.7812 12.3769 
59.5038 19.7812 4.60237 53.5303 23.3068 4.60237 53.5303 19.7812 8.59073 
-52.1231 27.979 4.60237 -44.8428 32.3911 4.60237 -44.8428 27.979 7.94878 
-36.6451 27.979 9.72435 -28.4473 27.979 11.5078 -20.2495 27.979 12.1636 
28.937 27.979 12.6061 37.1348 32.822 4.60237 37.1348 27.979 8.96981 
45.4321 27.979 4.60237 45.3326 28.034 4.60237 45.3326 27.979 4.66737 
-37.2871 36.1767 4.60237 -36.6451 36.4102 4.60237 -36.6451 36.1767 4.84886 
-28.4473 38.8111 4.60237 -28.4473 36.1767 7.0541 -20.2495 42.8618 4.60237 
-20.2495 36.1767 9.82482 12.5415 36.1767 11.6112 20.7393 42.3806 4.60237 
20.7393 36.1767 9.54785 31.3159 36.1767 4.60237 28.937 37.5165 4.60237 
28.937 36.1767 5.86453 -17.2674 44.3745 4.60237 -12.0518 46.4786 4.60237 
-12.0518 44.3745 7.16939 -3.85401 48.2571 4.60237 -3.85401 44.3745 9.08578 
4.34375 47.3024 4.60237 4.34375 44.3745 7.73683 14.7381 44.3745 4.60237 
12.5415 45.0028 4.60237 12.5415 44.3745 5.28525 -36.6451 -37.8722 12.8001 
-28.4473 -40.6668 12.8001 -20.2495 -39.8447 12.8001 -12.0518 -39.6051 12.8001 
[...]
POINT_DATA 534
SCALARS ImageScalars float
LOOKUP_TABLE default
0 0 0 0 0 0 0 0 0 
0 0 0 0 0 0 0 0 0 
0 0 0 0 0 0 0 0 0 
0 0 0 0 0 0 0 0 0 
0 0 0 0 0 0 0 0 0 
0 0 0 0 0 0 0 0 0 
0 0 0 0 0 0 0 0 0 
0 0 0 0 0 0 0 0 0 
0 0 0 0 0 0 0 0 0 
0 0 0 0 0 0 0 0 0 
0 0 0 0 0 0 0 0 0 
0 0 0 0 0 0 0 0 0 
0 0 0 0 0 0 0 0 0 
0 0 0 0 0 0 0 0 0 
0 0 0 0 0 0 0 0 0 
0 0 0 0 0 0 0 0 0 
0 0 0 0 0 0 0 0 0 
0 0 0 0 0 0 0 0 0 
0 0 0 0 0 0 0 0 0 
0 0 0 0 0 0 0 0 0 
0 0 0 0 0 0 0 0 0 
0 0 0 0 0 0 0 0 0 
0 0 0 0 0 0 0 0 0 
0 0 0 0 0 0 0 0 0 
0 0 0 0 0 0 0 0 0 
0 0 0 0 0 0 0 0 0 
0 0 0 0 0 0 0 0 0 
0 0 0 0 0 0 0 0 0 
0 0 0 0 0 0 0 0 0 
0 0 0 0 0 0 0 0 0 
0 0 0 0 0 0 0 0 0 
0 0 0 0 0 0 0 0 0 
0 0 0 0 0 0 0 0 0 
0 0 0 0 0 0 0 0 0 
0 0 0 0 0 0 0 0 0 
0 0 0 0 0 0 0 0 0 
0 0 0 0 0 0 0 0 0 
0 0 0 0 0 0 0 0 0 
0 0 0 0 0 0 0 0 0 
0 0 0 0 0 0 0 0 0 
0 0 0 0 0 0 0 0 0 
0 0 0 0 0 0 0 0 0 
0 0 0 0 0 0 0 0 0 
0 0 0 0 0 0 0 0 0 
0 0 0 0 0 0 0 0 0 
0 0 0 0 0 0 0 0 0 
0 0 0 0 0 0 0 0 0 
0 0 0 0 0 0 0 0 0 
0 0 0 0 0 0 0 0 0 
0 0 0 0 0 0 0 0 0 
0 0 0 0 0 0 0 0 0 
0 0 0 0 0 0 0 0 0 
0 0 0 0 0 0 0 0 0 
0 0 0 0 0 0 0 0 0 
0 0 0 0 0 0 0 0 0 
0 0 0 0 0 0 0 0 0 
0 0 0 0 0 0 0 0 0 
0 0 0 0 0 0 0 0 0 
0 0 0 0 0 0 0 0 0 
0 0 0 
NORMALS Normals float
-0.165972 -0.425813 -0.889458 -0.0807338 -0.371287 -0.925001 0.0244685 -0.347918 -0.937206 
0.0824808 -0.370259 -0.925259 0.142625 -0.409224 -0.901218 -0.283973 -0.31453 -0.905776 
-0.110856 -0.256506 -0.960164 0.0125217 -0.169683 -0.985419 0.0105336 -0.163783 -0.98644 
0.0668685 -0.122924 -0.990161 0.123362 -0.268195 -0.955434 0.0843373 -0.26117 -0.961601 
0.0330273 -0.24946 -0.967822 -0.00178896 -0.111509 -0.993762 -0.0513134 -0.16836 -0.984389 
-0.0979486 -0.206566 -0.973518 -0.0151249 -0.26817 -0.963253 0.089814 -0.279201 -0.956023 
0.25918 -0.314429 -0.913214 -0.485581 -0.109489 -0.867308 -0.205567 -0.225077 -0.952409 
-0.0310887 -0.121499 -0.992105 0.0154503 -0.132718 -0.991033 0.0777629 -0.0636618 -0.994937 
-0.0161389 -0.0122335 -0.999795 -0.00229035 -0.185067 -0.982723 0.0909652 -0.138051 -0.986239 
0.157723 -0.234196 -0.95931 0.0921761 0.0661741 -0.993541 -0.121643 -0.0214478 -0.992342 
-0.13487 -0.117157 -0.983913 -0.0587544 -0.133023 -0.98937 0.0678983 -0.177236 -0.981823 
0.198172 -0.232913 -0.952092 0.441036 -0.210131 -0.872544 -0.539711 0.0499284 -0.840369 
-0.255083 -0.0564809 -0.965268 -0.0584605 -0.129474 -0.989858 0.0826441 -0.103041 -0.991238 
0.133123 -0.0797303 -0.987887 -0.0407234 -0.0913496 -0.994986 -0.0403805 -0.18738 -0.981457 
0.0284165 -0.0843714 -0.996029 0.0745321 -0.215068 -0.973751 -0.196521 -0.0807075 -0.977172 
-0.185048 -0.114625 -0.976022 -0.0877886 -0.100186 -0.991088 -0.0345958 -0.119174 -0.99227 
0.224573 -0.170674 -0.959394 0.43691 -0.0165708 -0.899353 -0.596881 -0.0639232 -0.799779 
-0.270103 -0.0666683 -0.960521 -0.0931541 -0.0318729 -0.995141 0.0657444 -0.0612671 -0.995954 
0.0922383 -0.109462 -0.989702 -0.0874307 -0.163611 -0.982643 -0.0310024 0.0263241 -0.999173 
0.0976513 -0.113704 -0.988704 -0.00800153 0.103471 -0.9946 0.235556 -0.10183 -0.966511 
-0.0477674 -0.197753 -0.979087 -0.15561 -0.116712 -0.9809 -0.0590984 -0.0720766 -0.995647 
-0.0144491 -0.0084133 -0.99986 0.236316 0.0571338 -0.969995 0.514914 0.0381246 -0.856394 
-0.612213 0.140617 -0.778089 -0.3007 0.0673803 -0.951336 -0.0225225 0.0551488 -0.998224 
0.00517491 -0.0196701 -0.999793 0.0306613 -0.104499 -0.994052 0.0236555 -0.154652 -0.987686 
0.0583792 0.0246119 -0.997991 0.111097 -0.0506892 -0.992516 0.120386 0.0590789 -0.990968 
-0.0343908 -0.0366595 -0.998736 -0.124177 -0.153525 -0.980311 -0.0641682 -0.0868418 -0.994153 
0.0192623 -0.0196206 -0.999622 0.0990882 0.0999757 -0.990044 0.322982 0.246557 -0.913724 
0.55955 0.275494 -0.781669 -0.444672 0.300697 -0.843711 -0.194651 0.179329 -0.96434 
-0.0890053 -0.00281836 -0.996027 -0.0438304 -0.0310454 -0.998556 0.0331418 -0.0730849 -0.996775 
0.106137 -0.0698786 -0.991893 0.123947 -0.0912525 -0.988084 0.073064 -0.110861 -0.991147 
-0.0364564 -0.134283 -0.990272 -0.0808747 -0.0633387 -0.99471 -0.0261225 -0.0395382 -0.998877 
0.130511 0.134627 -0.982264 0.240094 0.263053 -0.934429 0.461577 0.45443 -0.761866 
-0.547552 0.474516 -0.689218 -0.329789 0.293149 -0.897387 -0.220432 0.233782 -0.946972 
-0.0401252 0.130057 -0.990694 -0.0148619 0.100273 -0.994849 0.0431237 0.0337974 -0.998498 
0.0754235 -0.0421221 -0.996262 0.0681061 -0.0629444 -0.99569 0.0158117 -0.0419273 -0.998996 
-0.0293101 0.0112573 -0.999507 0.131088 0.162416 -0.977976 0.325667 0.34189 -0.881506 
-0.478455 0.697762 -0.533113 -0.247194 0.603861 -0.757791 -0.181812 0.454653 -0.871914 
-0.0736393 0.376532 -0.923472 -0.0418644 0.266276 -0.962987 0.0213539 0.178979 -0.983621 
0.0700489 0.138609 -0.987867 0.0469049 0.16992 -0.984341 0.144717 0.321775 -0.935691 
0.311769 0.480039 -0.819977 -0.228313 0.81053 -0.539364 -0.189257 0.657813 -0.729016 
-0.0738559 0.546748 -0.834034 0.0562986 0.506714 -0.860274 0.198635 0.558075 -0.805665 
0.340706 0.709594 -0.616762 -0.166008 -0.426087 -0.889321 -0.329146 -0.719425 -0.611629 
-0.0882126 -0.448936 -0.889199 -0.0969391 -0.60715 -0.788652 0.0166276 -0.429027 -0.903139 
0.0355369 -0.584224 -0.810814 0.0974896 -0.437338 -0.893997 0.137192 -0.618783 -0.773489 
0.142367 -0.413879 -0.89913 0.141444 -0.655948 -0.741435 0.0717796 -0.684738 -0.725246 
0.0469354 -0.719482 -0.692924 0.033592 -0.752696 -0.657511 0.0152201 -0.75125 -0.659842 
0.0362846 -0.805292 -0.591767 0.0937447 -0.830761 -0.548678 -0.166448 -0.425885 -0.889335 
-0.313316 -0.365312 -0.876573 -0.37189 -0.481206 -0.793813 0.137639 -0.407782 -0.902646 
0.0782103 -0.317828 -0.944917 0.0713173 -0.393828 -0.916413 0.0222523 -0.315115 -0.948793 
0.0147459 -0.401311 -0.915823 -0.000593861 -0.196812 -0.980441 0.013271 -0.393652 -0.919164 
-0.0362147 -0.286557 -0.957379 -0.0180534 -0.429057 -0.903097 -0.0487976 -0.331708 -0.942119 
-0.00642823 -0.435031 -0.900393 -0.0125188 -0.47304 -0.880952 0.0069058 -0.560379 -0.828207 
0.11228 -0.453939 -0.88393 0.136851 -0.565969 -0.812989 0.33696 -0.417735 -0.843774 
0.4473 -0.67964 -0.581389 -0.424629 -0.383814 -0.819986 -0.548095 -0.317993 -0.77361 
-0.634744 -0.4878 -0.599292 0.38527 -0.395256 -0.833871 0.469177 -0.262161 -0.843294 
0.60411 -0.537812 -0.588055 -0.588224 -0.165266 -0.791631 0.13302 0.00265513 -0.99111 
0.472215 -0.227065 -0.851736 -0.594 0.0485603 -0.802998 -0.995439 -0.00420509 -0.0953025 
0.230948 -0.16862 -0.958243 0.0455818 -0.142744 -0.98871 0.204499 -0.209538 -0.956177 
0.206578 -0.16338 -0.964693 0.471013 -0.0204476 -0.881889 0.848157 -0.0802828 -0.523626 
-0.648692 -0.0513079 -0.759319 0.546001 0.0550515 -0.835974 0.892117 0.258545 -0.370515 
-0.724182 0.168531 -0.668699 -0.674949 0.293329 -0.677054 0.562243 0.276789 -0.779276 
0.562444 0.280477 -0.777811 -0.613172 0.372394 -0.696665 -0.830536 0.478631 -0.284821 
0.507501 0.612474 -0.606068 0.554346 0.50349 -0.662721 0.516361 0.567332 -0.641487 
-0.632135 0.495301 -0.595887 -0.597577 0.518124 -0.611923 0.512495 0.614456 -0.599827 
0.527757 0.641697 -0.556505 0.528293 0.644694 -0.552518 -0.494107 0.705385 -0.508223 
-0.479963 0.716528 -0.506185 -0.2956 0.796593 -0.527314 -0.254212 0.832541 -0.492192 
0.516418 0.659365 -0.546398 0.421574 0.701969 -0.574034 0.598509 0.776986 -0.19514 
-0.234765 0.821731 -0.519272 -0.233308 0.817138 -0.527117 -0.224834 0.775399 -0.59009 
-0.108768 0.791898 -0.600888 0.0465197 0.795117 -0.604669 0.230074 0.761558 -0.605884 
0.36182 0.729572 -0.580354 0.35161 0.727086 -0.589674 -0.363767 -0.807662 -0.464065 
-0.166935 -0.85724 -0.487106 0.0106413 -0.853221 -0.521442 -0.0434271 -0.996452 0.0720975 
0.159649 -0.800591 -0.577551 0.078652 -0.994778 0.065038 0.154806 -0.746416 -0.647224 
0.0832958 -0.746816 -0.659794 0.057046 -0.76554 -0.640854 0.0358534 -0.775352 -0.630511 
0.0166604 -0.775022 -0.631714 0.0383263 -0.818433 -0.573322 0.09375 -0.830919 -0.548438 
-0.496346 -0.76984 -0.401232 -0.536276 -0.759 -0.369225 -0.658825 -0.709257 0.250807 
0.0943198 -0.830886 -0.548391 0.291529 -0.806536 -0.514305 0.35599 -0.925945 -0.12608 
0.448664 -0.801709 -0.394922 -0.711441 -0.632087 -0.307112 -0.733456 -0.610291 -0.299311 
0.544598 -0.734042 -0.405703 0.644033 -0.662648 -0.382256 -0.877747 -0.428457 -0.21444 
0.756513 -0.541998 -0.36596 -0.96624 -0.230475 -0.115161 -0.994749 -0.0630367 -0.0806267 
0.891358 -0.326277 -0.31468 0.893798 -0.320255 -0.313946 -0.99779 -0.002399 -0.0664049 
-0.997253 0.0526658 -0.0520889 -0.999469 0.00360842 -0.0323733 0.968012 -0.0601902 -0.243577 
-0.981669 0.188876 -0.0255312 0.928521 0.263108 -0.261961 0.907008 0.342515 -0.24499 
-0.940049 0.34104 0.00034083 0.84283 0.508288 -0.176864 0.700643 0.693422 -0.168125 
-0.876965 0.479676 0.0290446 -0.85219 0.521748 0.0393804 -0.824326 0.498701 0.267927 
0.678409 0.720398 -0.144181 0.601321 0.798242 -0.0349791 -0.753984 0.653642 0.0652761 
-0.651293 0.754203 0.0836403 -0.546866 0.55204 0.629436 0.578791 0.81513 -0.0237613 
0.581689 0.813192 0.0188868 -0.516763 0.845414 0.135023 -0.450312 0.879213 0.155573 
-0.437063 0.823071 0.362671 -0.353167 0.922888 0.153461 -0.307218 0.942976 0.128113 
0.494985 0.860847 0.118039 0.593097 0.801833 0.0727998 0.588312 0.804489 0.0817638 
0.563243 0.797491 0.216252 -0.305763 0.943986 0.124097 -0.303929 0.94965 0.0761052 
-0.331341 0.858387 0.391644 -0.259882 0.965221 0.0284707 -0.0964886 0.995102 0.0215084 
0.0844948 0.993225 0.0797783 0.243075 0.962403 0.121221 0.455177 0.883446 0.111072 
0.369373 0.922537 0.111755 0.343904 0.831382 0.436502 -0.0466389 -0.989214 0.138855 
0.0786376 -0.994775 0.065106 -0.657582 -0.699538 0.279702 -0.438024 -0.878211 0.192041 
-0.0732821 -0.988722 0.130605 -0.204821 -0.972724 0.108889 -0.0462584 -0.98573 0.161856 
0.0786477 -0.994775 0.0650916 0.078636 -0.994772 0.0651533 0.118261 -0.992919 0.0112312 
0.0881521 -0.995404 -0.0374195 0.0591541 -0.996424 -0.0603344 0.0475367 -0.993702 -0.101472 
0.0652488 -0.991156 -0.115555 0.130928 -0.98914 -0.0667896 0.207933 -0.978089 -0.0102822 
0.35739 -0.931606 0.0662018 -0.658864 -0.698162 0.28012 -0.657963 -0.697683 0.283413 
-0.375023 -0.523145 0.765296 0.27546 -0.76327 0.584415 0.384327 -0.920365 0.0722563 
0.377118 -0.907786 0.183594 0.540462 -0.8242 0.169101 -0.728155 -0.573117 0.375934 
-0.751049 -0.527404 0.397203 -0.477756 -0.332248 0.813241 0.686744 -0.691984 0.222576 
0.538567 -0.572885 0.617858 0.738373 -0.633083 0.232402 -0.854688 -0.279206 0.437667 
-0.659615 -0.26285 0.704144 -0.456181 -0.0784976 0.886418 0.813329 -0.5019 0.294265 
0.598935 -0.463308 0.653163 -0.876855 -0.0661944 0.476177 -0.61853 -0.0406023 0.784711 
-0.264662 -0.00730668 0.964314 0.899129 -0.295808 0.322591 0.90394 -0.276472 0.326275 
-0.814239 0.0175066 0.580266 -0.617072 0.0424813 0.785759 -0.270298 0.0786037 0.959563 
0.946985 -0.0539871 0.316709 0.869949 -0.0496671 0.490635 -0.80966 0.10176 0.57801 
-0.546441 0.10445 0.830959 -0.327719 0.0509566 0.9434 0.895355 0.291011 0.337122 
0.866884 0.349252 0.355719 0.855218 0.301864 0.421284 -0.721288 0.332679 0.60751 
-0.650385 0.40423 0.643115 -0.601416 0.322212 0.73108 -0.368786 0.171733 0.913512 
-0.1292 0.199015 0.971442 0.776445 0.508655 0.372026 0.638778 0.683724 0.352822 
0.605821 0.43676 0.664997 -0.605417 0.412439 0.680709 -0.524032 0.503579 0.686876 
-0.496776 0.36787 0.786057 -0.26572 0.235106 0.934943 0.308189 0.574598 0.758193 
0.571516 0.733602 0.367692 0.473777 0.76726 0.432258 0.412053 0.674331 0.612772 
-0.502588 0.530063 0.682964 -0.361344 0.634988 0.682804 -0.311934 0.499699 0.808083 
-0.175716 0.399973 0.899525 -0.144882 0.283776 0.947882 -0.164648 0.201892 0.965469 
0.258132 0.512067 0.81924 0.4257 0.694519 0.58002 0.349672 0.616363 0.705567 
0.413537 0.762227 0.497993 0.413258 0.761566 0.499235 0.411804 0.76113 0.501097 
-0.256389 0.71165 0.654079 -0.248961 0.716591 0.651549 -0.248358 0.706927 0.662248 
-0.289316 0.67278 0.680928 -0.251045 0.588266 0.768713 -0.341476 0.734872 0.585967 
-0.295848 0.428869 0.853548 0.180539 0.45091 0.87412 0.307029 0.719119 0.623379 
0.263927 0.559676 0.78556 0.396898 0.675935 0.620954 0.389631 0.65943 0.642915 
0.363402 0.647239 0.67009 -0.311575 0.781731 0.540202 -0.275183 0.81637 0.507754 
-0.267429 0.739929 0.617242 -0.0473561 0.853813 0.518421 -0.0201734 0.701911 0.711979 
0.160504 0.78928 0.592685 0.167839 0.689501 0.70457 0.252734 0.737419 0.62637 
0.235495 0.738705 0.631551 0.230602 0.720646 0.653829 -0.199277 -0.445509 0.872818 
-0.056336 -0.597019 0.800246 0.0469992 -0.55698 0.829195 0.0111737 -0.624684 0.780797 
-0.0135821 -0.624963 0.780536 -0.0343649 -0.713156 0.700163 -0.0345578 -0.800226 0.598702 
0.0363563 -0.85513 0.517137 0.165495 -0.846087 0.506702 -0.218618 -0.437897 0.872039 
-0.287051 -0.363593 0.886229 -0.197742 -0.431946 0.879955 -0.0615077 -0.439213 0.896275 
0.0288293 -0.438778 0.898133 0.00509306 -0.493008 0.87001 -0.018248 -0.519514 0.854267 
-0.0618973 -0.580748 0.811727 -0.0768503 -0.656988 0.749974 0.00457892 -0.687242 0.726414 
0.268617 -0.745038 0.610543 0.176442 -0.726993 0.663588 0.278781 -0.728524 0.625727 
0.392283 -0.576843 0.716495 -0.320531 -0.28035 0.9048 -0.247478 -0.272215 0.929868 
-0.19427 -0.176806 0.964883 -0.0741457 -0.143022 0.986938 0.0100025 -0.140772 0.989992 
-0.00163631 -0.134128 0.990963 -0.0368615 -0.208653 0.977295 -0.13199 -0.223142 0.965809 
-0.1546 -0.259153 0.953383 -0.0361653 -0.212765 0.976434 0.135653 -0.272085 0.952664 
0.269475 -0.378493 0.885509 0.440935 -0.455552 0.773336 0.368231 -0.398888 0.839818 
0.427776 -0.432569 0.793657 -0.405879 -0.0548095 0.912282 -0.247409 -0.0527438 0.967475 
-0.0948225 -0.0475931 0.994356 -0.027896 0.0296715 0.99917 -0.000845693 0.00232205 0.999997 
-0.0549184 -0.0430313 0.997563 -0.0964765 -0.222952 0.970044 -0.129144 -0.15416 0.979569 
-0.130789 -0.0751773 0.988556 -0.0248901 -0.010617 0.999634 0.0607536 -0.0604771 0.996319 
0.167117 -0.13035 0.977282 0.246332 -0.228796 0.941792 0.47575 -0.413837 0.776144 
0.360115 -0.342747 0.867665 0.551932 -0.305749 0.775815 -0.254934 0.00489006 0.966946 
-0.202496 0.0896031 0.975175 -0.107835 0.0617382 0.99225 -0.0259727 0.0835049 0.996169 
-0.0636017 0.0734761 0.995267 -0.237277 -0.0849887 0.967717 -0.146164 -0.098547 0.98434 
0.0370823 -0.113851 0.992805 -0.0203035 0.047311 0.998674 -0.0205626 0.0902847 0.995704 
0.0206695 0.0243341 0.99949 0.0813218 -0.0306694 0.996216 0.210663 -0.0996144 0.97247 
0.298988 -0.141896 0.943648 0.598324 -0.169493 0.783122 0.522723 -0.148601 0.839451 
-0.232711 0.0654481 0.970341 -0.195657 0.044295 0.979671 -0.0863908 0.100572 0.991172 
-0.0183253 0.104925 0.994311 -0.157594 0.0824066 0.98406 -0.211934 -0.0561297 0.975671 
-0.125369 0.118697 0.984984 0.00643934 0.077416 0.996978 0.0667915 0.177898 0.98178 
-0.0504242 0.138119 0.989131 -0.0579567 0.0508645 0.997022 0.0515118 0.0274227 0.998296 
0.146627 -0.0117674 0.989122 0.285035 -0.0153858 0.958394 0.558399 0.0582421 0.827525 
0.495503 0.0634215 0.866288 -0.261375 0.0568103 0.963564 -0.129599 0.198344 0.971526 
-0.201565 0.0850715 0.975774 -0.0470236 0.103711 0.993495 -0.0417617 0.0952177 0.99458 
-0.21959 0.094769 0.970978 -0.204929 0.157637 0.965999 -0.0123374 0.12918 0.991544 
0.0962549 0.26533 0.959341 0.0341352 0.101097 0.994291 -0.145021 0.0588808 0.987675 
-0.0909708 0.101923 0.990624 0.0178645 0.123585 0.992173 0.164421 0.138362 0.976638 
0.331099 0.173872 0.927438 0.554812 0.197152 0.808279 0.553225 0.20279 0.807972 
0.552302 0.196034 0.810267 -0.128651 0.198163 0.971689 -0.0758889 0.0978516 0.992303 
-0.0289245 0.106257 0.993918 -0.0683169 0.110843 0.991487 -0.142403 0.260212 0.954993 
-0.010643 0.225852 0.974104 -0.063002 0.2334 0.970338 -0.152387 0.026065 0.987977 
-0.047265 0.0433738 0.99794 0.0074971 0.181381 0.983384 0.0887637 0.262223 0.960916 
0.301814 0.556595 0.774022 0.209501 0.349113 0.913362 0.413765 0.426045 0.80454 
0.358955 0.48338 0.798433 0.346565 0.422845 0.837314 -0.142666 0.232801 0.962003 
-0.130788 0.245183 0.960614 -0.129114 0.233833 0.963666 -0.0460002 0.173955 0.983679 
-0.0253403 0.155263 0.987548 -0.11815 0.160853 0.979881 -0.0742883 0.122178 0.989724 
-0.125444 0.060765 0.990238 -0.0432 0.0381867 0.998336 -0.0812569 0.0175511 0.996539 
-0.142673 0.16418 0.976058 0.014636 0.218996 0.975616 0.252334 0.503619 0.826254 
0.137065 0.321271 0.937015 0.296155 0.560179 0.773622 0.271832 0.537484 0.798259 
0.20332 0.466078 0.861065 -0.181835 0.161297 0.97001 -0.220123 0.077912 0.972356 
-0.0615501 0.0643291 0.996029 0.0636289 0.119504 0.990793 0.133715 0.385254 0.913072 
0.0525071 0.291807 0.955035 0.244168 0.504049 0.828442 0.164717 0.473419 0.865299 
0.114701 0.43084 0.895109 -0.236515 0.33307 0.912757 -0.236202 0.341029 0.909895 
-0.235447 0.328732 0.914604 -0.00398873 0.442993 0.896516 -0.00266452 0.340837 0.940119 
0.142374 0.390193 0.909659 0.137228 0.392675 0.909382 0.13665 0.3796 0.915003 

