# vtk DataFile Version 4.2
vtk output
ASCII
DATASET POLYDATA
POINTS 564 float
-37.1006 14.6574 -21.8301 -37.1006 31.748 -21.4536 -20.01 -45.1594 -13.6127 
-11.4648 -45.1594 -14.3541 -2.9195 -45.1594 -14.5708 5.62576 -45.1594 -14.3204 
14.171 -45.1594 -13.2703 -37.1006 -36.6141 -14.7462 -28.5553 -36.6141 -16.0492 
-20.01 -36.6141 -17.4647 -11.4648 -36.6141 -17.1182 -2.9195 -36.6141 -17.2001 
5.62576 -36.6141 -17.2103 14.171 -36.6141 -17.3517 22.7163 -36.6141 -17.0175 
31.2615 -36.6141 -15.6513 -45.6458 -28.0689 -13.6864 -37.1006 -28.0689 -16.6857 
-28.5553 -28.0689 -18.0672 -20.01 -28.0689 -18.9393 -11.4648 -28.0689 -18.3716 
-2.9195 -28.0689 -17.9543 5.62576 -28.0689 -17.8787 14.171 -28.0689 -18.2205 
22.7163 -28.0689 -18.9095 31.2615 -28.0689 -18.678 39.8068 -28.0689 -17.9066 
48.3521 -28.0689 -16.3846 -45.6458 -19.5236 -15.5088 -37.1006 -19.5236 -17.9116 
-28.5553 -19.5236 -18.9978 -20.01 -19.5236 -19.2589 -11.4648 -19.5236 -18.5995 
-2.9195 -19.5236 -17.245 5.62576 -19.5236 -16.9067 14.171 -19.5236 -17.6286 
22.7163 -19.5236 -18.9488 31.2615 -19.5236 -20.1798 39.8068 -19.5236 -19.6306 
48.3521 -19.5236 -18.5588 56.8973 -19.5236 -16.4609 -45.6458 -10.9784 -16.4708 
-37.1006 -10.9784 -18.7027 -28.5553 -10.9784 -19.642 -20.01 -10.9784 -19.7976 
-11.4648 -10.9784 -19.4084 -2.9195 -10.9784 -18.2403 5.62576 -10.9784 -17.4508 
14.171 -10.9784 -16.4113 22.7163 -10.9784 -17.9306 31.2615 -10.9784 -19.5552 
39.8068 -10.9784 -19.9765 48.3521 -10.9784 -19.5658 56.8973 -10.9784 -18.1299 
65.4426 -10.9784 -13.5449 -54.1911 -2.43309 -13.3601 -45.6458 -2.43309 -18.0504 
-37.1006 -2.43309 -19.9778 -28.5553 -2.43309 -20.0878 -20.01 -2.43309 -19.8206 
-11.4648 -2.43309 -20.032 -2.9195 -2.43309 -16.419 5.62576 -2.43309 -18.8846 
14.171 -2.43309 -16.5111 22.7163 -2.43309 -17.5581 31.2615 -2.43309 -19.0592 
39.8068 -2.43309 -19.7153 48.3521 -2.43309 -19.3723 56.8973 -2.43309 -17.576 
65.4426 -2.43309 -13.291 -54.1911 6.11217 -15.1385 -45.6458 6.11217 -19.9113 
-37.1006 6.65779 -21.3519 -37.1006 6.11217 -21.319 -28.5553 6.11217 -20.2649 
-20.01 6.11217 -19.0904 -11.4648 6.11217 -19.4346 -2.9195 6.11217 -18.7429 
5.62576 6.11217 -17.3986 14.171 6.11217 -19.1202 22.7163 6.11217 -18.7808 
31.2615 6.11217 -19.3779 39.8068 6.11217 -19.4206 48.3521 6.11217 -18.618 
56.8973 6.11217 -16.5934 -54.1911 14.6574 -16.4275 -41.6946 14.6574 -21.3519 
-45.6458 14.6574 -20.9014 -32.1525 14.6574 -21.3519 -37.1006 22.4727 -21.3519 
-28.5553 14.6574 -21.0127 -20.01 14.6574 -19.6316 -11.4648 14.6574 -18.915 
-2.9195 14.6574 -19.2999 5.62576 14.6574 -17.4758 14.171 14.6574 -18.9098 
22.7163 14.6574 -19.6606 31.2615 14.6574 -19.5973 39.8068 14.6574 -18.6858 
48.3521 14.6574 -17.1529 56.8973 14.6574 -13.1505 -54.1911 23.2027 -16.0514 
-45.6458 23.2027 -20.6843 -37.1006 25.5379 -21.3519 -37.1006 23.2027 -21.3079 
-28.5553 23.2027 -20.8039 -20.01 23.2027 -19.5687 -11.4648 23.2027 -17.2313 
-2.9195 23.2027 -16.0549 5.62576 23.2027 -17.8892 14.171 23.2027 -18.8803 
22.7163 23.2027 -19.1354 31.2615 23.2027 -18.393 39.8068 23.2027 -16.5497 
48.3521 23.2027 -13.7265 -54.1911 31.748 -14.1188 -37.5374 31.748 -21.3519 
-45.6458 31.748 -19.2629 -36.4857 31.748 -21.3519 -37.1006 32.0429 -21.3519 
-28.5553 31.748 -19.7624 -20.01 31.748 -18.1755 -11.4648 31.748 -14.283 
-2.9195 31.748 -13.9516 5.62576 31.748 -17.2411 14.171 31.748 -19.2212 
22.7163 31.748 -18.3279 31.2615 31.748 -16.1324 -45.6458 40.2932 -16.0193 
-37.1006 40.2932 -17.6555 -28.5553 40.2932 -16.6904 -20.01 40.2932 -14.1704 
5.62576 40.2932 -13.8842 14.171 40.2932 -16.689 22.7163 40.2932 -15.4521 
-20.01 -46.3818 -12.8066 -11.4648 -47.5048 -12.8066 -2.9195 -47.622 -12.8066 
5.62576 -47.164 -12.8066 14.171 -45.7181 -12.8066 -45.6458 -45.1594 -4.60918 
-37.1006 -40.7331 -12.8066 -37.1006 -45.1594 -10.2179 -24.708 -45.1594 -12.8066 
-28.5553 -43.7153 -12.8066 -28.5553 -45.1594 -11.9873 15.9642 -45.1594 -12.8066 
22.7163 -42.6143 -12.8066 22.7163 -45.1594 -8.804 31.2615 -40.0597 -12.8066 
-54.1911 -36.6141 -4.74112 -44.1718 -36.6141 -12.8066 -45.6458 -33.9187 -12.8066 
-45.6458 -36.6141 -12.2514 39.1772 -36.6141 -12.8066 39.8068 -36.2377 -12.8066 
39.8068 -36.6141 -12.2587 48.3521 -32.1868 -12.8066 -47.4446 -28.0689 -12.8066 
-54.1911 -28.0689 -9.36142 55.675 -28.0689 -12.8066 56.8973 -26.9257 -12.8066 
56.8973 -28.0689 -11.7157 -51.9915 -19.5236 -12.8066 -54.1911 -19.5236 -11.2672 
61.7041 -19.5236 -12.8066 65.4426 -13.1495 -12.8066 65.4426 -19.5236 -9.13975 
-52.5072 -10.9784 -12.8066 -54.1911 -5.24629 -12.8066 -54.1911 -10.9784 -11.6977 
66.3213 -10.9784 -12.8066 -54.7875 -2.43309 -12.8066 66.0115 -2.43309 -12.8066 
65.4426 2.03396 -12.8066 -56.9487 6.11217 -12.8066 64.4261 6.11217 -12.8066 
65.4426 6.11217 -12.1124 -58.632 14.6574 -12.8066 57.4458 14.6574 -12.8066 
56.8973 15.455 -12.8066 65.4426 14.6574 -6.0474 -57.4832 23.2027 -12.8066 
39.8068 31.4417 -12.8066 50.0978 23.2027 -12.8066 48.3521 24.6365 -12.8066 
56.8973 23.2027 -8.21622 -55.4061 31.748 -12.8066 -54.1911 35.1769 -12.8066 
-11.4648 34.2761 -12.8066 -2.9195 34.1631 -12.8066 39.4573 31.748 -12.8066 
31.2615 38.1542 -12.8066 39.8068 31.748 -12.6297 48.3521 31.748 -6.72089 
-51.0209 40.2932 -12.8066 -54.1911 40.2932 -7.79481 -45.6458 44.8764 -12.8066 
-37.1006 46.9814 -12.8066 -28.5553 45.4755 -12.8066 -17.3742 40.2932 -12.8066 
-20.01 42.2874 -12.8066 -11.4648 40.2932 -8.76536 3.55065 40.2932 -12.8066 
-2.9195 40.2932 -8.7862 5.62576 41.7546 -12.8066 14.171 46.1732 -12.8066 
28.7376 40.2932 -12.8066 22.7163 44.6943 -12.8066 31.2615 40.2932 -11.2413 
-45.6458 48.8385 -5.07581 -37.1006 48.8385 -9.03824 -28.5553 48.8385 -6.67692 
14.171 48.8385 -10.1233 22.7163 48.8385 -8.89299 -45.6458 -45.4292 -4.26138 
-37.1006 -49.5245 -4.26138 -28.5553 -51.7766 -4.26138 -20.01 -53.6774 -4.26138 
-11.4648 -53.6057 -4.26138 -2.9195 -52.7461 -4.26138 5.62576 -51.2867 -4.26138 
14.171 -49.3149 -4.26138 22.7163 -46.9051 -4.26138 -46.0078 -45.1594 -4.26138 
-54.1911 -37.1462 -4.26138 27.0583 -45.1594 -4.26138 22.7163 -45.1594 1.56016 
31.2615 -43.4344 -4.26138 39.8068 -39.9027 -4.26138 -54.5897 -36.6141 -4.26138 
47.5031 -36.6141 -4.26138 48.3521 -36.2348 -4.26138 56.8973 -31.298 -4.26138 
-58.8063 -28.0689 -4.26138 60.8448 -28.0689 -4.26138 65.4426 -23.4294 -4.26138 
-59.7127 -19.5236 -4.26138 68.389 -19.5236 -4.26138 -61.0244 -10.9784 -4.26138 
71.4837 -10.9784 -4.26138 -61.4563 -2.43309 -4.26138 -62.7363 -2.43309 3.40322 
71.5994 -2.43309 -4.26138 -62.1549 6.11217 -4.26138 70.8904 6.11217 -4.26138 
-62.5812 14.6574 -4.26138 66.7048 14.6574 -4.26138 65.4426 16.6213 -4.26138 
-61.1145 23.2027 -4.26138 60.2579 23.2027 -4.26138 56.8973 26.904 -4.26138 
-59.0828 31.748 -4.26138 39.8068 40.0948 -4.26138 51.0301 31.748 -4.26138 
48.3521 33.6376 -4.26138 -55.1678 40.2932 -4.26138 -54.1911 41.4867 -4.26138 
-54.1911 40.2932 -1.18547 -20.01 48.0414 -4.26138 -11.4648 43.8961 -4.26138 
-2.9195 43.8934 -4.26138 5.62576 48.7355 -4.26138 39.5401 40.2932 -4.26138 
31.2615 46.5077 -4.26138 39.8068 40.2932 -3.15952 -45.9392 48.8385 -4.26138 
-45.6458 49.0424 -4.26138 -45.6458 48.8385 -3.65718 -37.1006 50.353 -4.26138 
-37.1006 48.8385 2.08679 -23.832 48.8385 -4.26138 -28.5553 49.7099 -4.26138 
-28.5553 48.8385 3.35089 5.85458 48.8385 -4.26138 5.62576 48.8385 2.42691 
14.171 52.1408 -4.26138 27.9618 48.8385 -4.26138 22.7163 51.4334 -4.26138 
-45.6458 -47.0604 4.28388 -37.1006 -50.1841 4.28388 -28.5553 -51.8764 4.28388 
-20.01 -53.6028 4.28388 -11.4648 -53.2542 4.28388 -2.9195 -51.8799 4.28388 
5.62576 -49.6437 4.28388 14.171 -46.9639 4.28388 -48.4084 -45.1594 4.28388 
-54.1911 -40.2546 4.28388 -45.6458 -45.1594 8.37309 -28.5553 -45.1594 12.7812 
5.62576 -45.1594 10.558 19.8076 -45.1594 4.28388 14.171 -45.1594 6.86613 
22.7163 -44.0953 4.28388 31.2615 -40.6579 4.28388 39.8068 -37.6198 4.28388 
-57.2171 -36.6141 4.28388 -54.1911 -36.6141 11.2376 22.7163 -36.6141 11.8644 
31.2615 -36.6141 8.87119 42.4783 -36.6141 4.28388 39.8068 -36.6141 5.74842 
48.3521 -34.0684 4.28388 56.8973 -29.8172 4.28388 -61.0987 -28.0689 4.28388 
48.3521 -28.0689 11.9002 59.2229 -28.0689 4.28388 56.8973 -28.0689 6.88078 
65.4426 -22.7677 4.28388 -62.3594 -19.5236 4.28388 68.1629 -19.5236 4.28388 
65.4426 -19.5236 8.15675 -62.4575 -10.9784 4.28388 -62.7363 -5.16936 4.28388 
71.2347 -10.9784 4.28388 -62.8657 -2.43309 4.28388 -62.7363 -0.671945 4.28388 
-62.7363 -2.43309 4.65759 72.3858 -2.43309 4.28388 -62.2088 6.11217 4.28388 
71.7982 6.11217 4.28388 -61.4307 14.6574 4.28388 68.0752 14.6574 4.28388 
65.4426 18.9855 4.28388 65.4426 14.6574 9.96008 -59.98 23.2027 4.28388 
-54.1911 23.2027 12.2089 62.3252 23.2027 4.28388 56.8973 29.2269 4.28388 
-56.6976 31.748 4.28388 -54.1911 36.6361 4.28388 -54.1911 31.748 7.65252 
53.8486 31.748 4.28388 48.3521 35.6699 4.28388 -51.5043 40.2932 4.28388 
-45.6458 45.1974 4.28388 -45.6458 40.2932 8.98612 -37.1006 48.1307 4.28388 
-37.1006 40.2932 11.8647 -28.5553 48.7108 4.28388 -28.5553 40.2932 12.534 
-20.01 46.9768 4.28388 -20.01 40.2932 11.7805 -11.4648 44.3713 4.28388 
-11.4648 40.2932 10.0511 -2.9195 44.8425 4.28388 -2.9195 40.2932 11.5397 
31.2615 47.2945 4.28388 41.5786 40.2932 4.28388 39.8068 41.4787 4.28388 
39.8068 40.2932 7.092 5.56859 48.8385 4.28388 5.62576 48.8649 4.28388 
5.62576 48.8385 4.33695 14.171 51.628 4.28388 14.171 48.8385 9.11034 
28.219 48.8385 4.28388 22.7163 51.2611 4.28388 22.7163 48.8385 8.95129 
-37.1006 -45.6999 12.8291 -20.01 -45.4719 12.8291 -11.4648 -46.0919 12.8291 
-2.9195 -45.4423 12.8291 -38.7792 -45.1594 12.8291 -45.6458 -40.3454 12.8291 
-29.1145 -45.1594 12.8291 -37.1006 -45.1594 13.3004 -27.2335 -45.1594 12.8291 
-28.5553 -45.0782 12.8291 -20.01 -45.1594 13.0712 -11.4648 -45.1594 13.4545 
-1.88881 -45.1594 12.8291 -2.9195 -45.1594 13.0543 5.62576 -42.6871 12.8291 
14.171 -38.9671 12.8291 -51.6593 -36.6141 12.8291 -54.1911 -33.3981 12.8291 
-45.6458 -36.6141 14.8143 -37.1006 -36.6141 16.4971 -28.5553 -36.6141 16.5769 
-20.01 -36.6141 16.7485 -11.4648 -36.6141 16.9297 -2.9195 -36.6141 17.1443 
[...]
POINT_DATA 564
SCALARS ImageScalars float
LOOKUP_TABLE default
0 0 0 0 0 0 0 0 0 
0 0 0 0 0 0 0 0 0 
0 0 0 0 0 0 0 0 0 
0 0 0 0 0 0 0 0 0 
0 0 0 0 0 0 0 0 0 
0 0 0 0 0 0 0 0 0 
0 0 0 0 0 0 0 0 0 
0 0 0 0 0 0 0 0 0 
0 0 0 0 0 0 0 0 0 
0 0 0 0 0 0 0 0 0 
0 0 0 0 0 0 0 0 0 
0 0 0 0 0 0 0 0 0 
0 0 0 0 0 0 0 0 0 
0 0 0 0 0 0 0 0 0 
0 0 0 0 0 0 0 0 0 
0 0 0 0 0 0 0 0 0 
0 0 0 0 0 0 0 0 0 
0 0 0 0 0 0 0 0 0 
0 0 0 0 0 0 0 0 0 
0 0 0 0 0 0 0 0 0 
0 0 0 0 0 0 0 0 0 
0 0 0 0 0 0 0 0 0 
0 0 0 0 0 0 0 0 0 
0 0 0 0 0 0 0 0 0 
0 0 0 0 0 0 0 0 0 
0 0 0 0 0 0 0 0 0 
0 0 0 0 0 0 0 0 0 
0 0 0 0 0 0 0 0 0 
0 0 0 0 0 0 0 0 0 
0 0 0 0 0 0 0 0 0 
0 0 0 0 0 0 0 0 0 
0 0 0 0 0 0 0 0 0 
0 0 0 0 0 0 0 0 0 
0 0 0 0 0 0 0 0 0 
0 0 0 0 0 0 0 0 0 
0 0 0 0 0 0 0 0 0 
0 0 0 0 0 0 0 0 0 
0 0 0 0 0 0 0 0 0 
0 0 0 0 0 0 0 0 0 
0 0 0 0 0 0 0 0 0 
0 0 0 0 0 0 0 0 0 
0 0 0 0 0 0 0 0 0 
0 0 0 0 0 0 0 0 0 
0 0 0 0 0 0 0 0 0 
0 0 0 0 0 0 0 0 0 
0 0 0 0 0 0 0 0 0 
0 0 0 0 0 0 0 0 0 
0 0 0 0 0 0 0 0 0 
0 0 0 0 0 0 0 0 0 
0 0 0 0 0 0 0 0 0 
0 0 0 0 0 0 0 0 0 
0 0 0 0 0 0 0 0 0 
0 0 0 0 0 0 0 0 0 
0 0 0 0 0 0 0 0 0 
0 0 0 0 0 0 0 0 0 
0 0 0 0 0 0 0 0 0 
0 0 0 0 0 0 0 0 0 
0 0 0 0 0 0 0 0 0 
0 0 0 0 0 0 0 0 0 
0 0 0 0 0 0 0 0 0 
0 0 0 0 0 0 0 0 0 
0 0 0 0 0 0 0 0 0 
0 0 0 0 0 0 
NORMALS Normals float
-0.00648704 -0.00205015 -0.999977 -0.0368525 0.180355 -0.982911 -0.113716 -0.50935 -0.853013 
-0.053861 -0.473706 -0.879034 0.00157906 -0.495828 -0.868419 0.0734463 -0.540046 -0.838425 
0.182935 -0.66652 -0.722693 -0.220072 -0.333977 -0.91653 -0.140899 -0.30168 -0.94294 
-0.0565228 -0.291759 -0.95482 0.0137881 -0.226799 -0.973844 -0.00523788 -0.190063 -0.981758 
-0.00930193 -0.195821 -0.980596 0.0083498 -0.25373 -0.967239 0.0977768 -0.404444 -0.909321 
0.19241 -0.547944 -0.814086 -0.381025 -0.184441 -0.905981 -0.226645 -0.167336 -0.959495 
-0.123444 -0.161875 -0.97906 -0.0170304 -0.096826 -0.995156 0.0567089 -0.0839657 -0.994854 
0.0287452 -0.00213131 -0.999584 -0.0155549 0.0155185 -0.999759 -0.0594432 -0.018572 -0.998059 
-0.0264779 -0.0976485 -0.994869 0.0513832 -0.241134 -0.969131 0.117783 -0.314469 -0.941932 
0.314824 -0.477299 -0.820409 -0.349312 -0.140448 -0.926421 -0.203072 -0.110397 -0.972921 
-0.0783192 -0.0902979 -0.992831 0.0227448 -0.0491574 -0.998532 0.117423 -0.059369 -0.991306 
0.098274 -0.0139512 -0.995062 -0.0233444 0.0317117 -0.999224 -0.115605 0.104654 -0.987767 
-0.146583 0.0561543 -0.987603 -0.0401938 -0.0574056 -0.997541 0.0898918 -0.107427 -0.990141 
0.157245 -0.148734 -0.976295 0.444571 -0.305718 -0.841958 -0.338796 -0.14052 -0.930307 
-0.175431 -0.118441 -0.977341 -0.0626281 -0.0642318 -0.995968 0.0130489 -0.033556 -0.999352 
0.0886594 -0.0844055 -0.992479 0.108018 0.0315088 -0.99365 0.116076 -0.110696 -0.987053 
-0.0386395 0.0669599 -0.997007 -0.185877 0.0819107 -0.979153 -0.118057 0.0646766 -0.990898 
-0.00164558 -0.00490114 -0.999987 0.0958794 -0.0464739 -0.994307 0.342582 -0.0436687 -0.938472 
0.607081 -0.143951 -0.781493 -0.619344 -0.169675 -0.766566 -0.313201 -0.182146 -0.932056 
-0.108308 -0.150449 -0.982667 0.00939821 -0.0362749 -0.999298 0.00331412 0.0412556 -0.999143 
0.161531 -0.00291291 -0.986863 0.106448 0.00228586 -0.994316 0.00444356 0.0106763 -0.999933 
0.0598979 -0.166687 -0.984189 -0.141867 -0.0496783 -0.988638 -0.123865 0.0101701 -0.992247 
-0.0191124 0.0324956 -0.999289 0.113079 0.0543471 -0.992099 0.347339 0.0751761 -0.934721 
0.616835 0.0655262 -0.78436 -0.594166 -0.145569 -0.79106 -0.308943 -0.145448 -0.939893 
-0.00997337 -0.0958452 -0.995346 -0.0105965 -0.102078 -0.99472 0.130376 -0.0550244 -0.989937 
0.0498231 0.0113515 -0.998694 0.0101419 0.0678702 -0.997643 0.129568 -0.16874 -0.977108 
-0.0438298 0.0745343 -0.996255 -0.0721902 -0.125785 -0.989428 -0.0160539 -0.124201 -0.992127 
-0.037189 -0.0314442 -0.998813 0.042038 0.0622522 -0.997175 0.147752 0.134327 -0.97986 
0.35033 0.221059 -0.910166 -0.568185 -0.0484854 -0.821471 -0.152402 -0.0207092 -0.988102 
-0.274421 -0.0384555 -0.96084 0.0726604 -0.018213 -0.99719 -0.0034712 0.0190293 -0.999813 
0.126005 -0.0313577 -0.991534 0.119331 -0.0279179 -0.992462 0.0230688 0.129516 -0.991309 
0.0923011 0.173985 -0.980413 0.0104045 -0.0276248 -0.999564 -0.127957 0.0136202 -0.991686 
-0.0399182 -0.0206123 -0.99899 0.0592943 0.0546463 -0.996744 0.143249 0.150333 -0.978202 
0.281726 0.231082 -0.931253 0.49588 0.340817 -0.798716 -0.643103 0.101549 -0.759017 
-0.256864 0.103289 -0.960912 -0.0129768 0.0660706 -0.997731 -0.003682 0.0209318 -0.999774 
0.0991043 0.0696658 -0.992635 0.204398 0.0775341 -0.975812 0.201331 0.233186 -0.951362 
-0.038523 0.288512 -0.956701 -0.164193 0.0109655 -0.986367 -0.0724604 -0.0175836 -0.997216 
0.0268408 0.0756522 -0.996773 0.14047 0.187779 -0.972115 0.239529 0.332857 -0.912048 
0.364657 0.471333 -0.803038 -0.73112 0.239846 -0.6387 -0.0496123 0.180979 -0.982235 
-0.314816 0.204538 -0.926852 -0.0225029 0.18309 -0.982839 -0.0352548 0.190401 -0.981073 
0.17525 0.218291 -0.960019 0.274045 0.299025 -0.914048 0.2315 0.402468 -0.885679 
-0.16274 0.340009 -0.926234 -0.307203 0.207809 -0.928677 -0.0599044 0.111835 -0.99192 
0.162878 0.195441 -0.967095 0.298128 0.324842 -0.897551 -0.339221 0.511768 -0.789318 
-0.0178053 0.500823 -0.865367 0.201773 0.45182 -0.868992 0.342955 0.508455 -0.789845 
-0.357547 0.477593 -0.802537 -0.0748004 0.429814 -0.899814 0.236037 0.408412 -0.881752 
-0.122979 -0.55173 -0.824906 -0.0467362 -0.5814 -0.812274 0.015432 -0.622862 -0.782179 
0.0878761 -0.651524 -0.753522 0.190763 -0.695437 -0.692803 -0.548222 -0.709618 -0.4426 
-0.249356 -0.461821 -0.851201 -0.307396 -0.648155 -0.696709 -0.140715 -0.541022 -0.829153 
-0.156477 -0.524591 -0.836851 -0.163133 -0.595015 -0.786985 0.204769 -0.693525 -0.690718 
0.23317 -0.678634 -0.696482 0.310992 -0.883352 -0.350676 0.272201 -0.729332 -0.62768 
-0.679427 -0.529221 -0.508236 -0.406462 -0.364299 -0.837899 -0.424849 -0.311204 -0.850091 
-0.450371 -0.379957 -0.807959 0.344863 -0.740331 -0.577044 0.349052 -0.735676 -0.580468 
0.359626 -0.7688 -0.528786 0.381067 -0.668803 -0.63835 -0.416314 -0.204646 -0.885891 
-0.62361 -0.266223 -0.735007 0.500047 -0.571836 -0.650351 0.521706 -0.5427 -0.658255 
0.543981 -0.607568 -0.578745 -0.548791 -0.123476 -0.82679 -0.639623 -0.109748 -0.760814 
0.591524 -0.359749 -0.721582 0.629181 -0.212638 -0.747607 0.726434 -0.453012 -0.516792 
-0.56003 -0.0910012 -0.82346 -0.618781 -0.144385 -0.77218 -0.630416 -0.0911059 -0.770893 
0.644826 -0.149651 -0.749536 -0.637523 -0.170354 -0.751361 0.640558 0.0675404 -0.764934 
0.619046 0.172017 -0.766285 -0.690103 -0.161821 -0.705388 0.584101 0.262022 -0.768226 
0.629107 0.266894 -0.730063 -0.754142 -0.0215415 -0.656358 0.50266 0.347129 -0.791729 
0.501415 0.352288 -0.790238 0.741015 0.492743 -0.456182 -0.774871 0.146284 -0.614961 
0.383915 0.467848 -0.79607 0.398966 0.484571 -0.778471 0.383087 0.502668 -0.774964 
0.601398 0.559248 -0.57058 -0.780758 0.24848 -0.573301 -0.73604 0.356087 -0.575714 
0.235724 0.479908 -0.845058 -0.185521 0.409482 -0.893256 0.385173 0.467524 -0.795652 
0.4124 0.484816 -0.771285 0.391381 0.476078 -0.787509 0.521854 0.699006 -0.488936 
-0.580083 0.549535 -0.601262 -0.781038 0.587479 -0.211775 -0.385428 0.690289 -0.612328 
-0.00263143 0.77725 -0.629186 0.195019 0.753273 -0.62813 0.33038 0.546269 -0.769701 
0.359308 0.578575 -0.732222 0.255169 0.745676 -0.615514 -0.32511 0.510787 -0.795864 
-0.25324 0.711171 -0.655824 -0.366609 0.530578 -0.764254 -0.117843 0.635249 -0.763264 
0.387461 0.500838 -0.773973 0.246451 0.588349 -0.770135 0.470407 0.562832 -0.67966 
-0.441463 0.897223 -0.0100515 -0.00897815 0.940028 -0.340978 0.150328 0.962598 -0.225403 
-0.144929 0.793617 -0.590904 0.268014 0.825708 -0.496361 -0.547358 -0.718277 -0.429509 
-0.340342 -0.871231 -0.353727 -0.22398 -0.929089 -0.294323 -0.0944071 -0.960785 -0.26073 
0.0529326 -0.975731 -0.21248 0.134123 -0.977617 -0.1621 0.194525 -0.977217 -0.0848974 
0.256651 -0.965943 -0.0329253 0.323168 -0.945782 -0.0325238 -0.554121 -0.711821 -0.431579 
-0.682438 -0.5428 -0.489536 0.351889 -0.935602 -0.0286835 0.322187 -0.896153 0.305132 
0.37911 -0.925127 -0.0203962 0.379859 -0.924259 -0.0381091 -0.695089 -0.528824 -0.487028 
0.444905 -0.894524 -0.0434276 0.455574 -0.88905 -0.04519 0.583893 -0.807044 -0.0880231 
-0.836218 -0.260011 -0.482839 0.661862 -0.74049 -0.116675 0.76383 -0.61285 -0.202431 
-0.861776 -0.116761 -0.493668 0.841225 -0.481491 -0.24598 -0.909757 -0.0860063 -0.406134 
0.952055 -0.186179 -0.242754 -0.932774 -0.0607272 -0.355311 -0.998308 0.00682436 0.0577388 
0.939345 0.0330842 -0.341375 -0.972569 -0.0614565 -0.224349 0.893598 0.266072 -0.361509 
-0.992474 0.0617461 -0.105752 0.79772 0.487096 -0.355501 0.769631 0.52016 -0.370273 
-0.977325 0.189669 -0.0941358 0.690893 0.614099 -0.38151 0.639278 0.666135 -0.384172 
-0.936554 0.348802 -0.034693 0.559537 0.760865 -0.328637 0.564114 0.732904 -0.380298 
0.551373 0.743929 -0.377568 -0.814124 0.580364 0.0194803 -0.78241 0.622389 0.021615 
-0.778973 0.598639 0.186634 0.312843 0.935507 -0.164184 0.229396 0.906892 -0.353448 
-0.267963 0.886038 -0.378328 -0.424387 0.871871 -0.24441 0.559877 0.760884 -0.328013 
0.565452 0.775854 -0.279847 0.56799 0.776837 -0.271866 -0.448524 0.892647 0.0448044 
-0.436834 0.898456 0.0441836 -0.441775 0.893709 0.0782287 -0.0392078 0.998506 -0.0380477 
-0.128547 0.93226 0.338183 0.23038 0.962876 -0.140695 0.131935 0.983769 -0.12162 
0.0725921 0.951365 0.29939 -0.418083 0.875374 -0.24275 -0.386042 0.914016 0.124682 
-0.153396 0.963385 -0.219907 0.467939 0.848392 -0.247517 0.273034 0.931325 -0.241009 
-0.489453 -0.861124 0.137484 -0.269813 -0.94093 0.204575 -0.183906 -0.944061 0.273729 
-0.072686 -0.955354 0.286383 0.0915097 -0.95217 0.291545 0.188709 -0.929587 0.316633 
0.256917 -0.890484 0.375543 0.285374 -0.857069 0.428945 -0.560302 -0.819287 0.121782 
-0.722802 -0.686684 0.0776021 -0.487984 -0.7737 0.404054 0.0180932 -0.599056 0.800503 
0.238654 -0.713667 0.658578 0.298604 -0.836604 0.459271 0.284775 -0.793222 0.53824 
0.306046 -0.820863 0.482203 0.317803 -0.8134 0.487219 0.307921 -0.851871 0.423675 
-0.827837 -0.558585 0.0516624 -0.623456 -0.528824 0.575889 0.252507 -0.536538 0.805213 
0.253425 -0.686468 0.681569 0.341031 -0.841319 0.419381 0.29528 -0.82577 0.480534 
0.411754 -0.808918 0.419655 0.516457 -0.77624 0.361558 -0.957109 -0.284569 0.0544293 
0.280232 -0.647058 0.709074 0.562395 -0.745072 0.358579 0.498852 -0.71916 0.483689 
0.69447 -0.639486 0.3298 -0.996376 -0.0740858 0.0417796 0.786021 -0.529074 0.319767 
0.678111 -0.521738 0.517643 -0.995913 -0.028695 0.0856343 -0.99538 -0.000504361 0.0960147 
0.929638 -0.243371 0.276664 -0.994681 0.0133653 0.102129 -0.992054 0.0267269 0.122943 
-0.992258 0.0158937 0.123174 0.978889 -0.0312762 0.201986 -0.975014 0.0783838 0.207857 
0.953347 0.235684 0.188635 -0.941748 0.128321 0.310877 0.880043 0.459057 0.121616 
0.826976 0.554158 0.0949724 0.778696 0.423101 0.46327 -0.907459 0.245383 0.341035 
-0.650852 0.27016 0.70951 0.759095 0.646297 0.0779396 0.668621 0.74013 0.0717869 
-0.802111 0.410139 0.434055 -0.726435 0.510592 0.459988 -0.709186 0.417952 0.567778 
0.622554 0.780024 0.0631512 0.576084 0.815385 0.0572229 -0.63285 0.593196 0.497614 
-0.441246 0.729247 0.522973 -0.411007 0.575686 0.706866 -0.161055 0.862514 0.47972 
-0.16628 0.590574 0.789667 0.0634924 0.933888 0.351882 0.00362356 0.527052 0.849825 
0.237012 0.904968 0.353352 0.107574 0.573037 0.812439 0.111851 0.955474 0.273056 
0.027486 0.736835 0.675514 -0.24777 0.948427 0.19773 -0.22866 0.682073 0.694616 
0.482384 0.861888 0.156382 0.576664 0.811949 0.0905331 0.576695 0.810467 0.102795 
0.543716 0.805751 0.234816 -0.364944 0.903312 0.225483 -0.365659 0.902969 0.225699 
-0.365413 0.902486 0.228018 -0.138492 0.947946 0.286737 -0.135105 0.835925 0.531955 
0.396375 0.896243 0.199086 0.226718 0.941771 0.248327 0.187394 0.849484 0.493214 
-0.122897 -0.647533 0.752062 -0.0403001 -0.545821 0.836932 0.00510873 -0.560036 0.828453 
0.122909 -0.599007 0.791254 -0.178447 -0.634896 0.751707 -0.349193 -0.542989 0.763693 
0.00959561 -0.599393 0.800397 -0.118726 -0.613349 0.780838 0.00988981 -0.588046 0.808767 
0.0186699 -0.59457 0.803827 -0.0366718 -0.534792 0.844187 0.00342733 -0.524418 0.851454 
0.134319 -0.600254 0.78845 0.119467 -0.588872 0.799348 0.20857 -0.594944 0.776235 
0.258836 -0.518342 0.815062 -0.489386 -0.479313 0.728533 -0.572036 -0.397514 0.717466 
-0.268278 -0.436352 0.85885 -0.0792826 -0.362368 0.928657 -0.0136277 -0.316062 0.948641 
-0.0207861 -0.258619 0.965756 -0.0213678 -0.223897 0.974379 0.0195131 -0.316112 0.948521 
0.144947 -0.387761 0.910292 0.24721 -0.496015 0.83238 0.244284 -0.444514 0.861819 
0.225889 -0.46879 0.853938 0.148637 -0.492193 0.857702 0.141032 -0.538134 0.830976 
-0.634784 -0.239132 0.734755 -0.556124 -0.240893 0.795422 -0.257062 -0.231533 0.938249 
-0.0715793 -0.221909 0.972436 0.0748368 -0.184639 0.979953 0.0890328 -0.122977 0.988408 
-0.0370469 -0.0836055 0.99581 -0.0738839 -0.0930766 0.992914 0.0981151 -0.110794 0.988988 
0.183619 -0.180701 0.966246 0.143798 -0.279306 0.949374 0.107022 -0.404713 0.908159 
0.206706 -0.58166 0.78673 0.118021 -0.500546 0.857627 0.251375 -0.599856 0.759594 
0.420235 -0.520442 0.743332 -0.731438 -0.0935878 0.675455 -0.539936 -0.08324 0.83758 
-0.174542 -0.159124 0.971707 -0.0196897 -0.0666288 0.997584 0.0804188 -0.0720106 0.994157 
0.0933803 -0.0783088 0.992546 0.0105943 -0.243676 0.969799 -0.0135214 -0.0524283 0.998533 
0.0597655 0.0444948 0.99722 0.0749311 -0.0337584 0.996617 0.0215498 -0.129408 0.991357 
-0.0258415 -0.233808 0.971939 0.0611842 -0.322417 0.944618 0.155237 -0.340799 0.927231 
0.507347 -0.444779 0.738086 0.385881 -0.440593 0.810539 0.577805 -0.303326 0.757717 
-0.736382 -0.0137904 0.676425 -0.56751 0.027601 0.822904 -0.226836 0.0226774 0.973669 
0.0149184 -0.0372707 0.999194 0.0675246 0.0138483 0.997621 -0.100101 -0.00610311 0.994959 
0.270252 -0.0348359 0.962159 0.115776 -0.0949678 0.988725 0.0075473 -0.140148 0.990102 
-0.0599348 -0.0905574 0.994086 -0.0862021 -0.148653 0.985125 0.000676117 -0.162691 0.986677 
0.110075 -0.247469 0.962623 0.329295 -0.197627 0.923314 0.580027 -0.298435 0.757962 
0.575249 -0.298049 0.761745 -0.721606 0.0539578 0.690198 -0.527093 0.0399312 0.848869 
-0.260688 0.0569952 0.963739 -0.0291273 -0.000648401 0.999575 0.112001 -0.0418371 0.992827 
-0.102342 -0.0330651 0.9942 0.0718133 -0.0486838 0.996229 -0.0650892 -0.217746 0.973833 
0.122278 -0.136958 0.983001 0.0110498 -0.110573 0.993807 -0.106049 -0.12163 0.986894 
-0.0358812 -0.120802 0.992028 0.14049 -0.154295 0.977985 0.319429 -0.0817409 0.944078 
0.719408 -0.0729935 0.690742 0.584482 -0.0888891 0.806523 -0.705505 0.112434 0.69973 
-0.585442 0.0763204 0.807114 -0.285353 -0.00810974 0.958388 -0.0941171 -0.0265019 0.995208 
0.0376978 -0.119965 0.992062 0.0493695 -0.108195 0.992903 -0.0260071 0.0961265 0.995029 
-0.0661884 -0.0743007 0.995037 0.0454228 0.0682401 0.996634 0.0886369 0.0335038 0.9955 
-0.062466 -0.115479 0.991344 -0.0923564 -0.0831012 0.992252 0.371296 0.0641856 0.926293 
0.732719 0.181129 0.655984 0.695795 0.292561 0.655955 0.64985 0.171245 0.74052 
-0.699868 0.165353 0.694869 -0.644463 0.24229 0.725233 -0.645228 0.151131 0.748892 
-0.3322 0.115002 0.936172 0.103191 0.0794452 0.991484 0.0159602 0.153936 0.987952 
0.0130392 0.143587 0.989552 0.0475586 0.0784712 0.995781 -0.0603333 -0.0309998 0.997697 
-0.0947957 -0.0799311 0.992283 0.255218 0.183901 0.949233 0.646206 0.366883 0.66919 
0.443163 0.257342 0.858709 -0.615817 0.27106 0.739794 -0.359817 0.258441 0.896515 
-0.14713 0.276183 0.949777 0.0441328 0.259352 0.964774 0.14344 0.270959 0.951844 
0.0377011 0.260084 0.96485 -0.134697 0.252029 0.9583 -0.126544 0.0731397 0.989261 
-0.0786198 -0.000304144 0.996905 -0.0782587 0.0218678 0.996693 0.183816 0.207338 0.960845 
0.332967 0.319087 0.887308 0.633524 0.494407 0.595154 0.623367 0.509757 0.592925 
0.61249 0.479191 0.628675 -0.467621 0.415738 0.780059 -0.406345 0.448427 0.796113 
-0.405299 0.417214 0.813428 -0.159334 0.552819 0.817927 -0.128092 0.395252 0.909598 
0.00500786 0.510399 0.859923 0.0172283 0.382692 0.923715 0.0895823 0.507698 0.856865 
0.0857723 0.37558 0.922812 -0.00188876 0.521914 0.852996 3.78575e-05 0.369862 0.929087 
-0.214749 0.568242 0.794345 -0.179671 0.315028 0.93192 -0.211134 0.241302 0.947204 
-0.103804 0.192135 0.975863 0.0312595 0.234935 0.971508 0.145235 0.351029 0.925033 
0.427721 0.711998 0.556878 0.290096 0.487821 0.823331 0.515765 0.674221 0.528595 
0.51355 0.676296 0.528101 0.511212 0.671243 0.536745 -0.232353 0.61027 0.757352 
-0.273149 0.645431 0.713308 -0.253065 0.536489 0.80507 -0.112052 0.669198 0.734587 
-0.0819051 0.484512 0.870942 0.128109 0.681353 0.720657 0.0905335 0.50536 0.858146 
0.382398 0.70012 0.602996 0.334841 0.687574 0.644301 0.291448 0.606205 0.739982 
-0.018884 -0.245586 0.969191 -0.0700958 -0.133469 0.988571 0.123289 -0.146865 0.981443 
-0.04575 -0.224073 0.973498 -0.0482128 0.120717 0.991515 -0.0214049 0.115822 0.993039 
-0.0348819 0.134765 0.990263 -0.0380868 0.146616 0.98846 -0.0417625 -0.0630607 0.997136 
0.149294 -0.0356638 0.988149 -0.119594 0.058118 0.99112 0.034221 -0.047608 0.99828 
-0.0531845 -0.0598699 0.996788 -0.0553549 -0.0543405 0.996987 -0.0417136 -0.0535455 0.997694 
0.176165 0.0219537 0.984116 0.174925 0.0567903 0.982942 0.150741 0.0170394 0.988426 
-0.133533 0.0754411 0.988169 -0.125018 0.0842521 0.988571 -0.124094 0.0734395 0.989549 
0.0644775 0.067962 0.995602 0.0328033 0.104204 0.994015 0.0304755 0.0586146 0.997815 
-0.0537908 -0.052099 0.997192 -0.0470438 -0.0471938 0.997777 0.10161 0.0884665 0.990883 
0.0901397 0.0929792 0.991579 0.0662926 0.0656605 0.995637 -0.0517082 0.0417578 0.997789 
0.0889771 0.14262 0.98577 0.0652312 0.154876 0.985778 0.0499052 0.117046 0.991872 

