# vtk DataFile Version 4.2
vtk output
ASCII
DATASET POLYDATA
POINTS 516 float
-31.2704 -36.0005 -18.5602 -23.2027 -36.0005 -20.0652 -15.1351 -36.0005 -20.1937 
-7.06736 -36.0005 -20.3583 1.00033 -36.0005 -20.9001 9.06802 -36.0005 -21.1284 
17.1357 -36.0005 -21.3011 25.2034 -36.0005 -18.3938 -39.3381 -27.9328 -20.0072 
-31.2704 -27.9328 -22.1436 -23.2027 -27.9328 -22.5629 -15.1351 -27.9328 -22.5689 
-7.06736 -27.9328 -23.0378 1.00033 -27.9328 -23.3641 9.06802 -27.9328 -22.6798 
17.1357 -27.9328 -22.3052 25.2034 -27.9328 -20.8144 33.2711 -27.9328 -17.7391 
-47.4058 -19.8651 -18.8118 -39.3381 -19.8651 -21.8703 -31.2704 -19.8651 -22.5892 
-23.2027 -19.8651 -22.4205 -15.1351 -19.8651 -22.0615 -7.06736 -19.8651 -22.3506 
1.00033 -19.8651 -21.8613 9.06802 -19.8651 -21.924 17.1357 -19.8651 -21.4538 
25.2034 -19.8651 -20.5123 33.2711 -19.8651 -18.9712 41.3388 -19.8651 -16.0957 
-47.4058 -11.7974 -20.0146 -39.3381 -11.7974 -22.6196 -31.2704 -11.7974 -23.6799 
-23.2027 -11.7974 -22.2179 -15.1351 -11.7974 -20.7845 -7.06736 -11.7974 -20.3502 
1.00033 -11.7974 -19.9214 9.06802 -11.7974 -20.4635 17.1357 -11.7974 -20.4967 
25.2034 -11.7974 -20.0856 33.2711 -11.7974 -19.439 41.3388 -11.7974 -17.6211 
-47.4058 -3.7297 -20.8371 -39.3381 -3.7297 -23.174 -31.2704 -3.7297 -23.5364 
-23.2027 -3.7297 -22.6009 -15.1351 -3.7297 -21.5743 -7.06736 -3.7297 -21.926 
1.00033 -3.7297 -19.8483 9.06802 -3.7297 -21.4091 17.1357 -3.7297 -20.4059 
25.2034 -3.7297 -20.0142 33.2711 -3.7297 -19.4688 41.3388 -3.7297 -18.1761 
-47.4058 4.33799 -20.0545 -39.3381 4.33799 -23.2026 -31.2704 4.33799 -23.8182 
-23.2027 4.33799 -23.2457 -15.1351 4.33799 -22.4477 -7.06736 4.33799 -21.9906 
1.00033 4.33799 -19.9096 9.06802 4.33799 -21.1551 17.1357 4.33799 -20.5556 
25.2034 4.33799 -20.199 33.2711 4.33799 -19.4068 41.3388 4.33799 -17.9383 
-47.4058 12.4057 -17.7312 -39.3381 12.4057 -23.1448 -31.2704 12.4057 -23.5176 
-23.2027 12.4057 -23.2771 -15.1351 12.4057 -22.3269 -7.06736 12.4057 -21.1704 
1.00033 12.4057 -20.1826 9.06802 12.4057 -20.4037 17.1357 12.4057 -21.0292 
25.2034 12.4057 -20.4974 33.2711 12.4057 -19.326 41.3388 12.4057 -16.3449 
-39.3381 20.4734 -20.8639 -31.2704 20.4734 -22.8968 -23.2027 20.4734 -23.2462 
-15.1351 20.4734 -22.6371 -7.06736 20.4734 -21.6586 1.00033 20.4734 -20.6484 
9.06802 20.4734 -20.4899 17.1357 20.4734 -21.2295 25.2034 20.4734 -20.6661 
33.2711 20.4734 -18.6335 -39.3381 28.5411 -18.2481 -31.2704 28.5411 -21.5657 
-23.2027 28.5411 -22.3903 -15.1351 28.5411 -22.6531 -7.06736 28.5411 -21.3159 
1.00033 28.5411 -20.4376 9.06802 28.5411 -20.5118 17.1357 28.5411 -20.0919 
25.2034 28.5411 -19.3788 33.2711 28.5411 -16.079 -31.2704 36.6087 -17.3783 
-23.2027 36.6087 -19.6036 -15.1351 36.6087 -20.017 -7.06736 36.6087 -19.335 
1.00033 36.6087 -18.856 9.06802 36.6087 -17.8508 17.1357 36.6087 -17.1244 
-31.2704 -39.1098 -15.773 -23.2027 -40.239 -15.773 -15.1351 -40.5613 -15.773 
-7.06736 -39.8619 -15.773 1.00033 -40.4442 -15.773 9.06802 -41.7102 -15.773 
17.1357 -41.685 -15.773 25.2034 -39.3935 -15.773 -39.183 -36.0005 -15.773 
-39.3381 -35.9067 -15.773 -39.3381 -36.0005 -15.6651 30.9883 -36.0005 -15.773 
33.2711 -33.2356 -15.773 33.2711 -36.0005 -14.1384 -46.3181 -27.9328 -15.773 
-47.4058 -26.1388 -15.773 -47.4058 -27.9328 -14.176 37.4645 -27.9328 -15.773 
41.3388 -21.0626 -15.773 41.3388 -27.9328 -13.3458 -50.2405 -19.8651 -15.773 
41.9146 -19.8651 -15.773 49.4065 -19.8651 -10.4063 -52.649 -11.7974 -15.773 
-55.4735 -11.7974 -8.21538 45.5395 -11.7974 -15.773 49.4065 -11.7974 -13.6846 
-53.1692 -3.7297 -15.773 -55.4735 -3.7297 -8.50327 47.4161 -3.7297 -15.773 
49.4065 -3.7297 -14.7645 -51.7532 4.33799 -15.773 46.442 4.33799 -15.773 
49.4065 4.33799 -14.1817 -49.1695 12.4057 -15.773 -47.4058 17.4144 -15.773 
42.4288 12.4057 -15.773 41.3388 14.7503 -15.773 49.4065 12.4057 -11.2644 
-46.0577 20.4734 -15.773 -47.4058 20.4734 -13.0063 38.669 20.4734 -15.773 
41.3388 20.4734 -13.9931 -41.6744 28.5411 -15.773 -39.3381 31.7165 -15.773 
25.2034 35.0978 -15.773 33.7526 28.5411 -15.773 33.2711 29.0435 -15.773 
41.3388 28.5411 -8.88947 -33.7119 36.6087 -15.773 -39.3381 36.6087 -8.67768 
-31.2704 38.181 -15.773 -23.2027 41.0892 -15.773 -15.1351 41.972 -15.773 
-7.06736 41.9987 -15.773 1.00033 41.0533 -15.773 9.06802 39.5678 -15.773 
22.2173 36.6087 -15.773 17.1357 38.4171 -15.773 25.2034 36.6087 -14.5458 
33.2711 36.6087 -8.40283 -15.1351 44.6764 -10.7523 -7.06736 44.6764 -12.3056 
1.00033 44.6764 -11.7055 9.06802 44.6764 -9.92171 -39.3381 -39.9952 -7.70533 
-31.2704 -43.051 -7.70533 -23.2027 -42.9687 -7.70533 -15.1351 -41.4088 -7.70533 
-7.06736 -40.5963 -7.70533 1.00033 -40.5408 -7.70533 9.06802 -42.506 -7.70533 
17.1357 -44.0008 -7.70533 25.2034 -43.6227 -7.70533 33.2711 -40.7151 -7.70533 
-44.4218 -36.0005 -7.70533 -47.4058 -32.3995 -7.70533 39.9461 -36.0005 -7.70533 
41.3388 -34.6592 -7.70533 41.3388 -36.0005 -2.63047 -50.2396 -27.9328 -7.70533 
46.8535 -27.9328 -7.70533 49.4065 -24.0184 -7.70533 49.4065 -27.9328 0.346374 
-53.6489 -19.8651 -7.70533 -55.4735 -12.3907 -7.70533 51.9102 -19.8651 -7.70533 
-55.6116 -11.7974 -7.70533 -55.4735 -11.7974 -6.84355 55.3956 -11.7974 -7.70533 
57.4742 -11.7974 -2.99874 -55.6766 -3.7297 -7.70533 -55.4735 -2.63924 -7.70533 
-55.4735 -3.7297 -6.61288 56.9575 -3.7297 -7.70533 57.4742 -3.7297 -6.81123 
-54.1447 4.33799 -7.70533 56.3079 4.33799 -7.70533 57.4742 4.33799 -5.70946 
-51.7048 12.4057 -7.70533 52.8897 12.4057 -7.70533 49.4065 18.4295 -7.70533 
-49.2204 20.4734 -7.70533 -47.4058 24.5597 -7.70533 48.0684 20.4734 -7.70533 
49.4065 20.4734 -5.50393 -45.5421 28.5411 -7.70533 42.3749 28.5411 -7.70533 
41.3388 29.7483 -7.70533 -39.8297 36.6087 -7.70533 -39.3381 37.0828 -7.70533 
-31.2704 42.3314 -7.70533 -23.2027 44.6728 -7.70533 17.1357 43.9374 -7.70533 
25.2034 41.3026 -7.70533 33.9544 36.6087 -7.70533 33.2711 37.0839 -7.70533 
-23.1769 44.6764 -7.70533 -15.1351 45.7919 -7.70533 -7.06736 46.8777 -7.70533 
1.00033 46.8626 -7.70533 14.1463 44.6764 -7.70533 9.06802 45.8767 -7.70533 
17.1357 44.6764 -2.41512 -39.3381 -39.8168 0.362361 -31.2704 -43.4354 0.362361 
-23.2027 -43.7717 0.362361 -15.1351 -42.1249 0.362361 -7.06736 -40.7764 0.362361 
1.00033 -40.2601 0.362361 9.06802 -41.7364 0.362361 17.1357 -43.3965 0.362361 
25.2034 -43.6582 0.362361 33.2711 -41.9119 0.362361 41.3388 -36.5364 0.362361 
-44.1003 -36.0005 0.362361 -47.4058 -31.1739 0.362361 -39.3381 -36.0005 7.25321 
41.965 -36.0005 0.362361 41.3388 -36.0005 2.56323 49.4065 -27.9381 0.362361 
-49.1403 -27.9328 0.362361 -47.4058 -27.9328 3.62041 49.4109 -27.9328 0.362361 
49.4065 -27.9328 0.382363 -52.6558 -19.8651 0.362361 54.8871 -19.8651 0.362361 
57.4742 -14.5805 0.362361 -54.2153 -11.7974 0.362361 58.698 -11.7974 0.362361 
57.4742 -11.7974 6.73756 -54.1501 -3.7297 0.362361 60.5424 -3.7297 0.362361 
-53.2424 4.33799 0.362361 60.1614 4.33799 0.362361 57.4742 12.1033 0.362361 
-51.2713 12.4057 0.362361 57.3535 12.4057 0.362361 -48.6089 20.4734 0.362361 
-47.4058 23.6869 0.362361 52.4447 20.4734 0.362361 49.4065 24.7064 0.362361 
-45.5891 28.5411 0.362361 46.3453 28.5411 0.362361 41.3388 33.5888 0.362361 
-39.7449 36.6087 0.362361 -39.3381 36.9807 0.362361 -39.3381 36.6087 1.37564 
-31.2704 42.206 0.362361 -23.2027 43.8546 0.362361 25.2034 42.8452 0.362361 
37.5457 36.6087 0.362361 33.2711 39.3302 0.362361 -18.0105 44.6764 0.362361 
-15.1351 45.1396 0.362361 -15.1351 44.6764 1.50066 -7.06736 46.2807 0.362361 
-7.06736 44.6764 4.32678 1.00033 47.0291 0.362361 1.00033 44.6764 7.96078 
9.06802 46.6023 0.362361 18.5307 44.6764 0.362361 17.1357 45.0411 0.362361 
17.1357 44.6764 2.52916 -31.2704 -40.4012 8.43005 -23.2027 -41.889 8.43005 
-15.1351 -41.2557 8.43005 -7.06736 -40.2379 8.43005 1.00033 -39.4829 8.43005 
9.06802 -40.2853 8.43005 17.1357 -41.3387 8.43005 25.2034 -41.3434 8.43005 
33.2711 -39.5388 8.43005 -38.3624 -36.0005 8.43005 -39.3381 -35.0998 8.43005 
-31.2704 -36.0005 13.4659 -23.2027 -36.0005 14.663 -15.1351 -36.0005 15.28 
-7.06736 -36.0005 15.0252 1.00033 -36.0005 13.9782 9.06802 -36.0005 15.3482 
25.2034 -36.0005 16.4117 38.9556 -36.0005 8.43005 33.2711 -36.0005 13.2146 
41.3388 -34.2427 8.43005 -44.6941 -27.9328 8.43005 -47.4058 -22.497 8.43005 
-39.3381 -27.9328 14.0949 47.4109 -27.9328 8.43005 41.3388 -27.9328 14.9575 
49.4065 -25.3184 8.43005 -48.5612 -19.8651 8.43005 -47.4058 -19.8651 10.0213 
-39.3381 -19.8651 16.4294 53.0728 -19.8651 8.43005 49.4065 -19.8651 13.2964 
-50.7654 -11.7974 8.43005 -47.4058 -11.7974 13.1371 57.0908 -11.7974 8.43005 
57.4742 -10.604 8.43005 -51.3804 -3.7297 8.43005 -47.4058 -3.7297 15.1499 
59.4236 -3.7297 8.43005 57.4742 -3.7297 11.4808 -50.6963 4.33799 8.43005 
-47.4058 4.33799 15.1606 59.3513 4.33799 8.43005 57.4742 10.4022 8.43005 
57.4742 4.33799 11.419 -49.254 12.4057 8.43005 -47.4058 12.4057 12.6566 
56.845 12.4057 8.43005 -47.5224 20.4734 8.43005 -47.4058 20.7432 8.43005 
-47.4058 20.4734 8.69723 52.4195 20.4734 8.43005 49.4065 24.57 8.43005 
49.4065 20.4734 13.7017 -43.4873 28.5411 8.43005 -39.3381 33.7571 8.43005 
-39.3381 28.5411 14.5989 46.0401 28.5411 8.43005 41.3388 33.0929 8.43005 
41.3388 28.5411 14.8062 -35.0246 36.6087 8.43005 -31.2704 38.5954 8.43005 
-31.2704 36.6087 11.3907 -23.2027 40.2556 8.43005 -23.2027 36.6087 13.8886 
-15.1351 41.52 8.43005 -15.1351 36.6087 14.6825 -7.06736 42.8878 8.43005 
-7.06736 36.6087 16.4656 1.00033 44.5189 8.43005 17.1357 43.6426 8.43005 
25.2034 41.6239 8.43005 36.2925 36.6087 8.43005 33.2711 38.4863 8.43005 
33.2711 36.6087 11.7174 5.36443 44.6764 8.43005 9.93798 44.6764 8.43005 
9.06802 44.7994 8.43005 9.06802 44.6764 8.69385 17.1357 -36.3006 16.4977 
-31.2704 -28.5269 16.4977 -23.2027 -30.9045 16.4977 -15.1351 -33.097 16.4977 
-7.06736 -31.53 16.4977 1.00033 -31.8231 16.4977 15.1572 -36.0005 16.4977 
9.06802 -34.5421 16.4977 23.6891 -36.0005 16.4977 17.1357 -36.0005 16.7803 
25.2034 -35.9062 16.4977 33.2711 -32.5418 16.4977 -32.0242 -27.9328 16.4977 
-31.2704 -27.9328 16.67 -23.2027 -27.9328 17.4413 -15.1351 -27.9328 17.9505 
[...]
POINT_DATA 516
SCALARS ImageScalars float
LOOKUP_TABLE default
0 0 0 0 0 0 0 0 0 
0 0 0 0 0 0 0 0 0 
0 0 0 0 0 0 0 0 0 
0 0 0 0 0 0 0 0 0 
0 0 0 0 0 0 0 0 0 
0 0 0 0 0 0 0 0 0 
0 0 0 0 0 0 0 0 0 
0 0 0 0 0 0 0 0 0 
0 0 0 0 0 0 0 0 0 
0 0 0 0 0 0 0 0 0 
0 0 0 0 0 0 0 0 0 
0 0 0 0 0 0 0 0 0 
0 0 0 0 0 0 0 0 0 
0 0 0 0 0 0 0 0 0 
0 0 0 0 0 0 0 0 0 
0 0 0 0 0 0 0 0 0 
0 0 0 0 0 0 0 0 0 
0 0 0 0 0 0 0 0 0 
0 0 0 0 0 0 0 0 0 
0 0 0 0 0 0 0 0 0 
0 0 0 0 0 0 0 0 0 
0 0 0 0 0 0 0 0 0 
0 0 0 0 0 0 0 0 0 
0 0 0 0 0 0 0 0 0 
0 0 0 0 0 0 0 0 0 
0 0 0 0 0 0 0 0 0 
0 0 0 0 0 0 0 0 0 
0 0 0 0 0 0 0 0 0 
0 0 0 0 0 0 0 0 0 
0 0 0 0 0 0 0 0 0 
0 0 0 0 0 0 0 0 0 
0 0 0 0 0 0 0 0 0 
0 0 0 0 0 0 0 0 0 
0 0 0 0 0 0 0 0 0 
0 0 0 0 0 0 0 0 0 
0 0 0 0 0 0 0 0 0 
0 0 0 0 0 0 0 0 0 
0 0 0 0 0 0 0 0 0 
0 0 0 0 0 0 0 0 0 
0 0 0 0 0 0 0 0 0 
0 0 0 0 0 0 0 0 0 
0 0 0 0 0 0 0 0 0 
0 0 0 0 0 0 0 0 0 
0 0 0 0 0 0 0 0 0 
0 0 0 0 0 0 0 0 0 
0 0 0 0 0 0 0 0 0 
0 0 0 0 0 0 0 0 0 
0 0 0 0 0 0 0 0 0 
0 0 0 0 0 0 0 0 0 
0 0 0 0 0 0 0 0 0 
0 0 0 0 0 0 0 0 0 
0 0 0 0 0 0 0 0 0 
0 0 0 0 0 0 0 0 0 
0 0 0 0 0 0 0 0 0 
0 0 0 0 0 0 0 0 0 
0 0 0 0 0 0 0 0 0 
0 0 0 0 0 0 0 0 0 
0 0 0 
NORMALS Normals float
0.229621 0.575764 0.78471 0.0940296 0.550572 0.829475 0.0170984 0.555306 0.83147 
0.0414935 0.626835 0.778046 0.0460079 0.595205 0.802256 0.0222614 0.470544 0.882096 
-0.161399 0.429158 0.888692 -0.338956 0.4636 0.818648 0.359204 0.31499 0.878495 
0.154888 0.225125 0.96194 0.0244775 0.125981 0.991731 0.0291827 0.0965614 0.994899 
0.0502505 0.0960944 0.994103 -0.0231854 0.0334221 0.999172 -0.0639416 0.0394807 0.997172 
-0.110207 -0.00610694 0.99389 -0.259994 0.115134 0.958722 -0.389929 0.233268 0.890809 
0.587113 0.270155 0.763095 0.187692 0.164874 0.968291 0.0302077 0.0868251 0.995766 
-0.0324304 -0.0202835 0.999268 -0.00577164 -0.113841 0.993482 -0.0121521 -0.168401 0.985644 
-0.02492 -0.211399 0.977082 -0.0254316 -0.136879 0.990261 -0.0852878 -0.109085 0.990367 
-0.147992 -0.0434954 0.988032 -0.253149 0.0998815 0.962257 -0.422712 0.215845 0.880185 
0.500434 0.104229 0.859478 0.198449 0.0730845 0.977383 -0.0169664 0.0611053 0.997987 
-0.173564 0.0103964 0.984768 -0.111114 -0.0305228 0.993339 -0.052995 -0.0238568 0.99831 
0.00684538 -0.123805 0.992283 0.0350215 -0.0303826 0.998925 -0.0233851 -0.0645899 0.997638 
-0.0673783 -0.0303298 0.997266 -0.146629 0.0283211 0.988786 -0.325889 0.117999 0.938015 
0.484951 0.0059327 0.874521 0.154932 0.0384349 0.987177 -0.0337838 0.00939993 0.999385 
-0.122614 0.0629793 0.990454 -0.0412973 0.104599 0.993657 -0.111147 0.104366 0.988309 
-0.0250761 -0.000615985 0.999685 0.0350937 0.0426462 0.998474 -0.0865995 0.00366742 0.996236 
-0.057701 0.00699517 0.998309 -0.11483 -0.00185877 0.993383 -0.269181 0.0186555 0.962909 
0.592639 -0.165678 0.788245 0.196524 -0.00125301 0.980498 0.00495626 -0.00114173 0.999987 
-0.0848368 0.0402784 0.99558 -0.0763173 0.0460393 0.99602 -0.161398 -0.0478549 0.985729 
-0.0479743 0.0208306 0.998631 0.0404431 -0.0627753 0.997208 -0.0586884 0.0385972 0.99753 
-0.0704935 0.0298055 0.997067 -0.138931 -0.00880645 0.990263 -0.292415 -0.105892 0.950411 
0.714248 -0.27237 0.64472 0.2812 -0.131052 0.950659 0.00452243 -0.0555471 0.998446 
-0.0733474 2.74033e-05 0.997306 -0.129506 0.0116397 0.99151 -0.132433 -0.0187411 0.991015 
-0.0469062 0.0452031 0.997876 0.0525418 -0.040667 0.99779 0.00598636 0.0415875 0.999117 
-0.106114 0.0285237 0.993945 -0.239972 -0.0434643 0.969806 -0.414574 -0.202839 0.887122 
0.409053 -0.24726 0.878373 0.137055 -0.112022 0.984209 -0.0168066 -0.0526876 0.99847 
-0.0978918 0.0200366 0.994995 -0.121948 0.00902595 0.992495 -0.0726364 0.0160631 0.997229 
0.0359039 0.00662839 0.999333 0.0122954 -0.0547622 0.998424 -0.150894 -0.0603009 0.986709 
-0.353389 -0.176775 0.918622 0.561294 -0.434405 0.704443 0.195251 -0.270338 0.942759 
0.0607003 -0.206539 0.976554 -0.0655391 -0.134493 0.988745 -0.131293 -0.136003 0.98197 
-0.049388 -0.0975248 0.994007 -0.0202136 -0.138229 0.990194 -0.0643966 -0.241518 0.968257 
-0.216156 -0.313898 0.924524 -0.446344 -0.398197 0.801384 0.374499 -0.620237 0.689243 
0.126739 -0.523654 0.842451 -0.0186195 -0.465464 0.884871 -0.061818 -0.397115 0.915685 
-0.0833031 -0.372362 0.924341 -0.097591 -0.447672 0.888856 -0.158787 -0.519526 0.839571 
0.223792 0.721079 0.655715 0.0751924 0.829261 0.55378 -0.0273916 0.886865 0.461216 
-0.00278375 0.908698 0.417445 0.116869 0.919784 0.374618 0.0838763 0.889449 0.449272 
-0.110323 0.827186 0.550992 -0.3071 0.648544 0.696477 0.438939 0.64398 0.626596 
0.442387 0.64112 0.627104 0.444491 0.647145 0.619379 -0.436234 0.497013 0.750118 
-0.45107 0.409744 0.792872 -0.494099 0.547758 0.67515 0.651138 0.424924 0.628855 
0.680156 0.406907 0.609767 0.733095 0.453863 0.506537 -0.456624 0.291083 0.840693 
-0.438816 0.234682 0.867389 -0.567478 0.388359 0.726048 0.736046 0.308647 0.602472 
-0.43352 0.223873 0.872893 -0.667638 0.384613 0.637442 0.788218 0.149061 0.59707 
0.988887 0.123514 0.0827476 -0.424309 0.157714 0.891677 -0.548189 0.195974 0.81307 
0.835078 -0.0529288 0.547579 0.993344 -0.0872753 0.0751684 -0.452701 0.024197 0.891334 
-0.524976 0.0245521 0.850763 0.825634 -0.217475 0.520609 -0.441032 -0.144196 0.885832 
-0.543408 -0.163977 0.823298 0.792449 -0.301312 0.530316 0.77875 -0.337456 0.52884 
-0.435133 -0.219181 0.873281 -0.454157 -0.230547 0.860575 -0.626623 -0.337316 0.702539 
0.754007 -0.356155 0.551931 0.85094 -0.365976 0.37678 -0.487735 -0.262043 0.832735 
-0.566641 -0.321877 0.758494 0.664261 -0.465748 0.584668 0.596659 -0.537416 0.595972 
-0.310422 -0.561733 0.766873 -0.455991 -0.402366 0.793835 -0.449256 -0.414244 0.791563 
-0.682605 -0.51952 0.513954 0.455569 -0.645008 0.613532 0.660805 -0.715596 0.226404 
0.390611 -0.682243 0.618035 0.177332 -0.751564 0.635378 0.0454307 -0.75303 0.656416 
-0.035676 -0.672877 0.738894 -0.0989391 -0.615753 0.781703 -0.110405 -0.587805 0.801434 
-0.263355 -0.583129 0.768508 -0.173279 -0.598599 0.782083 -0.336945 -0.643485 0.68731 
-0.502856 -0.756522 0.418103 0.114162 -0.948323 0.296059 0.0153705 -0.88733 0.460879 
-0.0806013 -0.87962 0.468799 -0.168314 -0.900755 0.400388 0.488915 0.85291 0.183047 
0.160739 0.963734 0.213025 -0.100004 0.975922 0.193843 -0.153579 0.983778 0.0927029 
-0.0541264 0.997093 0.0536353 0.120341 0.99266 -0.0119758 0.210837 0.977505 -0.00562532 
0.0702204 0.995191 0.0682862 -0.168813 0.967122 0.190201 -0.46932 0.827635 0.307829 
0.676287 0.716555 0.170833 0.797825 0.585826 0.142417 -0.621253 0.701326 0.349552 
-0.646323 0.66724 0.370214 -0.646855 0.754862 0.108451 0.873 0.473481 0.116993 
-0.727715 0.52571 0.440521 -0.738575 0.47828 0.475137 -0.779922 0.625463 0.0227568 
0.948141 0.299968 0.105113 0.989202 0.134238 0.0588254 -0.758677 0.419192 0.498686 
0.991029 0.121643 0.0553662 0.99286 0.117056 0.0229584 -0.813888 0.241495 0.528457 
-0.922745 0.296265 0.246515 0.995515 -0.0883343 0.0338632 0.993361 -0.108472 0.038318 
0.996404 -0.0846679 -0.00338128 -0.815041 0.0482866 0.577388 -0.850996 0.055046 0.522279 
0.96907 -0.236195 0.0715262 -0.79003 -0.19536 0.581108 -0.85947 -0.20057 0.470196 
0.947191 -0.300846 0.110999 -0.737576 -0.360108 0.571231 -0.699009 -0.445351 0.559508 
0.929722 -0.349434 0.116247 0.90587 -0.400433 0.138035 -0.692264 -0.466055 0.550966 
-0.736559 -0.502741 0.452473 0.869497 -0.462295 0.173949 -0.700734 -0.537041 0.469637 
-0.68901 -0.559725 0.460405 0.676098 -0.714121 0.181448 0.660608 -0.728785 0.180192 
0.399622 -0.897854 0.184825 0.19639 -0.973502 0.117152 -0.257175 -0.917095 0.304627 
-0.360113 -0.865605 0.347917 -0.516816 -0.761659 0.390867 -0.502996 -0.772754 0.3871 
0.196172 -0.973544 0.117169 0.135032 -0.981611 0.134933 0.064516 -0.980391 0.1862 
-0.0598959 -0.965981 0.251581 -0.224353 -0.928886 0.294681 -0.170707 -0.941054 0.292021 
-0.23393 -0.968232 0.0883369 0.525978 0.827124 -0.198024 0.201807 0.969457 -0.139384 
-0.0825216 0.995042 -0.0555058 -0.187965 0.98213 -0.00948141 -0.121742 0.992293 -0.0230981 
0.062427 0.995838 -0.0664108 0.190061 0.97253 -0.134397 0.116135 0.980501 -0.158524 
-0.0780329 0.987628 -0.136018 -0.389238 0.919044 -0.0620662 -0.630707 0.775523 -0.027793 
0.694152 0.680412 -0.234931 0.830038 0.493176 -0.260411 0.571012 0.632195 -0.523712 
-0.644799 0.763905 -0.0261358 -0.627622 0.769817 -0.116074 -0.779846 0.625585 0.0219954 
0.868729 0.414641 -0.270893 0.825039 0.411493 -0.387277 -0.779892 0.625527 0.0220172 
-0.779881 0.625573 0.0210854 0.921465 0.268246 -0.280975 -0.864696 0.499967 0.0483096 
-0.922621 0.379642 0.0681389 0.959534 0.0800843 -0.269964 -0.94602 0.313842 0.0809314 
-0.896575 0.339778 -0.284086 0.966379 -0.0556318 -0.251033 -0.988389 0.0872123 0.124421 
0.964385 -0.169124 -0.20337 -0.969222 -0.192221 0.153816 -0.897989 -0.401381 0.180303 
0.951935 -0.271421 -0.141951 -0.89414 -0.409213 0.181817 0.942669 -0.317679 -0.102247 
0.931291 -0.350015 -0.10093 -0.812122 -0.552573 0.187405 -0.778883 -0.601396 0.177944 
0.89582 -0.430744 -0.109388 -0.739736 -0.654926 0.154474 -0.65729 -0.744718 0.115606 
0.649561 -0.745968 -0.146977 0.635414 -0.757882 -0.147869 0.632916 -0.75268 -0.181357 
0.361093 -0.908781 -0.209115 0.162195 -0.956426 -0.242782 -0.328717 -0.944321 0.0142349 
-0.567773 -0.819299 0.0798881 -0.479175 -0.875384 0.0639803 0.145465 -0.960945 -0.235426 
0.141004 -0.962814 -0.230449 0.141295 -0.952591 -0.269456 0.115081 -0.967482 -0.225242 
0.138696 -0.929999 -0.340391 0.0169104 -0.990227 -0.138436 0.0965805 -0.917443 -0.385968 
-0.121926 -0.990434 -0.0646088 -0.236995 -0.971419 -0.013376 -0.219221 -0.975498 -0.0185991 
-0.210401 -0.973551 -0.0890453 0.303515 0.792607 -0.528822 0.0400196 0.8957 -0.442854 
-0.106544 0.932512 -0.345064 -0.118118 0.947477 -0.297212 0.00308995 0.950425 -0.310938 
0.113639 0.935511 -0.334523 0.0651486 0.928401 -0.365825 -0.0906362 0.911926 -0.40022 
-0.359729 0.840497 -0.405167 0.545717 0.614171 -0.570076 0.568292 0.588329 -0.57525 
0.319249 0.566589 -0.759643 0.0895375 0.525219 -0.846244 0.0232439 0.534628 -0.844768 
-0.0596783 0.585651 -0.808364 0.0121047 0.714161 -0.699877 0.118331 0.696916 -0.707323 
-0.138118 0.680234 -0.719865 -0.530474 0.75928 -0.37695 -0.358368 0.720852 -0.59325 
-0.598446 0.709773 -0.371599 0.700662 0.420753 -0.576229 0.776302 0.336837 -0.532819 
0.484963 0.393565 -0.780972 -0.71219 0.591443 -0.378127 -0.552912 0.485307 -0.677322 
-0.739144 0.558139 -0.377024 0.798482 0.296868 -0.523732 0.75946 0.309584 -0.57217 
0.400605 0.252699 -0.880715 -0.784601 0.488862 -0.381334 -0.657151 0.424952 -0.62255 
0.855958 0.153712 -0.493669 0.734489 0.19305 -0.650582 -0.858373 0.337388 -0.386478 
-0.872611 0.306809 -0.380025 0.909486 -0.00694517 -0.415676 0.763925 0.0781552 -0.640554 
-0.925966 0.126377 -0.35583 -0.84318 0.129291 -0.521854 0.926342 -0.119819 -0.357119 
0.813449 -0.0635474 -0.578154 -0.931247 -0.149516 -0.332302 -0.904699 -0.313246 -0.288786 
-0.857855 -0.133363 -0.496285 0.9314 -0.191017 -0.309851 0.872173 -0.183325 -0.453549 
-0.889862 -0.364704 -0.274109 0.911345 -0.306618 -0.274657 0.909075 -0.311974 -0.276142 
0.908085 -0.307832 -0.28394 -0.807308 -0.547851 -0.219347 -0.764558 -0.606769 -0.217446 
-0.709213 -0.475226 -0.520746 0.784065 -0.501893 -0.365165 0.622584 -0.665172 -0.412232 
0.603039 -0.522355 -0.6029 -0.703724 -0.670157 -0.235928 -0.617649 -0.751554 -0.23168 
-0.581364 -0.566465 -0.584067 0.433538 -0.78637 -0.440076 0.298781 -0.8327 -0.466199 
0.299072 -0.788848 -0.536913 0.154454 -0.854543 -0.495883 0.122194 -0.761722 -0.636276 
0.14107 -0.840299 -0.523447 0.102471 -0.708219 -0.698517 0.16508 -0.864977 -0.473882 
0.193948 -0.662231 -0.723764 0.101591 -0.909858 -0.402291 -0.180914 -0.938541 -0.293957 
-0.282739 -0.913074 -0.293862 -0.506463 -0.822524 -0.258747 -0.442669 -0.853635 -0.274502 
-0.422506 -0.80055 -0.424981 0.0181934 -0.93136 -0.363645 -0.0655496 -0.943263 -0.325511 
-0.0518241 -0.942558 -0.329999 -0.0500891 -0.939719 -0.33826 0.0420353 0.675372 -0.736278 
0.171427 0.284778 -0.943141 0.0893188 0.308029 -0.947175 0.0212066 0.344542 -0.938532 
-0.0253264 0.288608 -0.957112 0.0895716 0.401028 -0.911676 0.0611268 0.664575 -0.744717 
0.131379 0.597046 -0.791376 -0.105175 0.677663 -0.727813 0.0423351 0.662327 -0.748018 
-0.13771 0.674943 -0.724905 -0.334598 0.561999 -0.756439 0.189783 0.277837 -0.941695 
0.162497 0.267333 -0.949804 0.0852866 0.212454 -0.973442 -0.0112574 0.105599 -0.994345 
-0.00406779 0.120348 -0.992723 0.14821 0.223198 -0.96344 0.189928 0.297026 -0.93579 
0.0846104 0.325854 -0.941626 -0.104879 0.343256 -0.933368 -0.472655 0.450449 -0.757425 
-0.303626 0.395531 -0.866814 -0.498711 0.398926 -0.76951 0.392177 0.252196 -0.884644 
0.398718 0.252209 -0.881711 0.10603 0.256887 -0.960608 -0.0839611 0.144396 -0.985951 
-0.0598837 0.00701461 -0.998181 0.0863619 0.0608212 -0.994406 0.235228 0.220046 -0.946703 
0.236022 0.199715 -0.951004 0.0884733 0.140021 -0.986188 -0.0708741 0.135946 -0.988178 
-0.243977 0.178007 -0.953304 -0.510981 0.329717 -0.793842 -0.418852 0.264034 -0.868821 
-0.534688 0.244586 -0.80888 0.529108 0.236847 -0.81483 0.360658 0.255655 -0.896976 
0.0502386 0.214744 -0.975377 -0.145326 0.207715 -0.967334 -0.0861221 0.234655 -0.968256 
0.227213 0.371437 -0.900227 0.215984 0.229692 -0.948996 0.0863045 0.138817 -0.98655 
0.0230928 0.0712287 -0.997193 -0.0662921 0.0245178 -0.997499 -0.181716 0.0730771 -0.980632 
-0.319487 0.16903 -0.932393 -0.536026 0.238208 -0.809897 -0.529726 0.236998 -0.814385 
0.692721 0.103845 -0.71369 0.343908 0.150746 -0.926824 0.0353062 0.158298 -0.98676 
-0.071139 0.21612 -0.973772 0.0646314 0.266432 -0.961684 0.0910807 0.204169 -0.974689 
0.0395474 0.0387497 -0.998466 0.0889305 0.0957051 -0.991429 -0.0271478 0.0485879 -0.99845 
-0.071637 -0.000435561 -0.997431 -0.0975781 0.0424141 -0.994324 -0.232763 0.106946 -0.966635 
-0.569594 0.120683 -0.813018 -0.466246 0.114714 -0.877186 0.757941 -0.0469703 -0.65063 
0.390364 0.00785138 -0.920627 0.107522 0.0707935 -0.991679 -0.0356796 0.116308 -0.992572 
-0.00769288 0.193136 -0.981142 0.00211674 0.170549 -0.985347 0.08349 0.242062 -0.966662 
-0.0751755 0.0200206 -0.996969 -0.0722941 0.0243199 -0.997087 -0.0654766 0.00573216 -0.997838 
-0.238053 -0.0270431 -0.970876 -0.600807 -0.0769305 -0.795684 -0.493092 -0.0585538 -0.868005 
0.750544 -0.177884 -0.636428 0.45862 -0.1266 -0.879568 0.129821 -0.0534003 -0.990098 
0.0546607 -0.00374545 -0.998498 0.120256 0.0708526 -0.990211 -0.133591 -0.0200214 -0.990834 
-0.0833993 -0.0206086 -0.996303 -0.152095 -0.0828067 -0.984891 -0.298048 -0.159999 -0.941046 
-0.584019 -0.221147 -0.781035 -0.58802 -0.28552 -0.756777 -0.540154 -0.20756 -0.815569 
0.670486 -0.326494 -0.666221 0.571154 -0.452826 -0.68464 0.526704 -0.313636 -0.790073 
0.223251 -0.237517 -0.945381 0.0897162 -0.210183 -0.973537 0.151722 -0.198857 -0.968213 
-0.170287 -0.0974954 -0.98056 -0.131291 -0.128993 -0.982916 -0.208981 -0.18266 -0.960709 
-0.571294 -0.381545 -0.726668 -0.523676 -0.473037 -0.708519 -0.389082 -0.288801 -0.874762 
0.482686 -0.52044 -0.704383 0.275724 -0.620879 -0.733816 0.242871 -0.49181 -0.836144 
0.0977157 -0.658222 -0.746455 0.0742159 -0.465481 -0.881941 0.0960736 -0.642027 -0.760639 
0.119242 -0.473206 -0.872845 0.194048 -0.66113 -0.724743 0.199044 -0.479473 -0.854685 
0.0863465 -0.423742 -0.901658 -0.096464 -0.315704 -0.943941 -0.154667 -0.251049 -0.955538 
-0.173863 -0.328414 -0.928394 -0.507238 -0.513974 -0.691766 -0.362723 -0.624164 -0.69199 
-0.312436 -0.424572 -0.849778 0.193738 -0.661954 -0.724073 0.156981 -0.731235 -0.663817 
0.16509 -0.653675 -0.738549 0.0116868 -0.752349 -0.658661 0.0172311 -0.616647 -0.787051 
-0.157689 -0.740603 -0.653178 -0.156672 -0.611819 -0.775327 -0.291644 -0.682226 -0.670456 
-0.281246 -0.685325 -0.671737 -0.280787 -0.670836 -0.686395 0.0926347 0.131709 -0.986951 
0.0685892 0.163981 -0.984076 0.0928176 0.134901 -0.986502 0.0440651 0.253023 -0.966456 
0.0663572 0.115384 -0.991102 0.0926658 0.132938 -0.986783 0.12182 0.0853288 -0.988878 
0.130088 0.156209 -0.97912 -0.00232018 0.24685 -0.969051 -0.132075 -0.0058871 -0.991222 
-0.126486 0.0765475 -0.98901 0.167921 -0.194667 -0.966389 0.19844 -0.308231 -0.930384 
0.192229 -0.188352 -0.963105 0.0794596 -0.401108 -0.912578 -0.00234859 -0.119214 -0.992866 
-0.175579 -0.0991625 -0.979458 -0.121404 -0.259009 -0.958215 -0.181677 -0.103831 -0.977861 

