# vtk DataFile Version 4.2
vtk output
ASCII
DATASET POLYDATA
POINTS 522 float
-13.1365 -25.3124 -23.0187 -28.9277 -17.4168 -23.0303 -28.9277 -41.1036 -15.8124 
-21.0321 -41.1036 -18.2217 -13.1365 -41.1036 -19.7099 -5.24088 -41.1036 -19.9038 
2.65471 -41.1036 -18.889 10.5503 -41.1036 -16.8704 -36.8232 -33.208 -16.8369 
-28.9277 -33.208 -20.5782 -21.0321 -33.208 -21.8875 -13.1365 -26.5555 -22.9449 
-13.1365 -33.208 -22.5338 -5.24088 -33.208 -22.6294 2.65471 -33.208 -21.6323 
10.5503 -33.208 -20.4134 18.4459 -33.208 -19.1724 26.3415 -33.208 -16.6576 
-36.8232 -25.3124 -20.0493 -28.9277 -18.1406 -22.9449 -28.9277 -25.3124 -22.1643 
-15.6829 -25.3124 -22.9449 -21.0321 -25.3124 -22.8007 -12.0938 -25.3124 -22.9449 
-13.1365 -24.6101 -22.9449 -5.24088 -25.3124 -22.4579 2.65471 -25.3124 -21.8896 
10.5503 -25.3124 -20.8998 18.4459 -25.3124 -20.9655 26.3415 -25.3124 -20.2085 
34.2371 -25.3124 -18.4597 -44.7188 -17.4168 -16.0031 -29.4313 -17.4168 -22.9449 
-36.8232 -17.4168 -21.535 -24.6692 -17.4168 -22.9449 -28.9277 -16.8135 -22.9449 
-21.0321 -17.4168 -22.8743 -13.1365 -17.4168 -22.1599 -5.24088 -17.4168 -21.5456 
2.65471 -17.4168 -20.5321 10.5503 -17.4168 -20.1283 18.4459 -17.4168 -21.2404 
26.3415 -17.4168 -22.3291 34.2371 -17.4168 -21.1396 42.1327 -17.4168 -17.9238 
-44.7188 -9.52122 -17.1498 -36.8232 -9.52122 -20.8331 -28.9277 -9.52122 -21.9371 
-21.0321 -9.52122 -21.9629 -13.1365 -9.52122 -21.2766 -5.24088 -9.52122 -20.7851 
2.65471 -9.52122 -19.7624 10.5503 -9.52122 -19.4518 18.4459 -9.52122 -21.1978 
26.3415 -9.52122 -22.2485 34.2371 -9.52122 -21.9243 42.1327 -9.52122 -19.6353 
-44.7188 -1.62562 -16.9007 -36.8232 -1.62562 -19.971 -28.9277 -1.62562 -20.7948 
-21.0321 -1.62562 -20.8252 -13.1365 -1.62562 -21.6587 -5.24088 -1.62562 -20.3939 
2.65471 -1.62562 -18.2211 10.5503 -1.62562 -20.4514 18.4459 -1.62562 -21.1194 
26.3415 -1.62562 -21.9198 34.2371 -1.62562 -21.5547 42.1327 -1.62562 -19.3434 
-44.7188 6.26997 -16.4201 -36.8232 6.26997 -19.2491 -28.9277 6.26997 -19.7627 
-21.0321 6.26997 -19.4481 -13.1365 6.26997 -21.0056 -5.24088 6.26997 -20.4903 
2.65471 6.26997 -18.6286 10.5503 6.26997 -20.5869 18.4459 6.26997 -20.4899 
26.3415 6.26997 -20.7649 34.2371 6.26997 -20.3043 42.1327 6.26997 -17.7905 
-44.7188 14.1656 -15.0793 -36.8232 14.1656 -17.9973 -28.9277 14.1656 -19.1679 
-21.0321 14.1656 -19.3263 -13.1365 14.1656 -20.2513 -5.24088 14.1656 -20.188 
2.65471 14.1656 -19.7363 10.5503 14.1656 -19.9016 18.4459 14.1656 -19.3467 
26.3415 14.1656 -19.307 34.2371 14.1656 -18.1001 -36.8232 22.0611 -17.3323 
-28.9277 22.0611 -18.7483 -21.0321 22.0611 -19.0165 -13.1365 22.0611 -18.6476 
-5.24088 22.0611 -17.7481 2.65471 22.0611 -17.5102 10.5503 22.0611 -17.6843 
18.4459 22.0611 -17.1916 26.3415 22.0611 -16.4389 -28.9277 29.9567 -16.4179 
-21.0321 29.9567 -16.8398 -13.1365 29.9567 -16.3686 -5.24088 29.9567 -15.0859 
-28.9277 -41.7487 -15.0493 -21.0321 -44.4948 -15.0493 -13.1365 -46.1322 -15.0493 
-13.1365 -48.9992 -7.22449 -5.24088 -46.43 -15.0493 -5.24088 -48.9992 -7.99036 
2.65471 -45.5836 -15.0493 10.5503 -43.0235 -15.0493 -29.8819 -41.1036 -15.0493 
-36.8232 -35.0817 -15.0493 15.0324 -41.1036 -15.0493 18.4459 -39.1917 -15.0493 
18.4459 -41.1036 -11.9231 26.3415 -35.0431 -15.0493 -38.5701 -33.208 -15.0493 
29.3034 -33.208 -15.0493 34.2371 -29.8294 -15.0493 34.2371 -33.208 -7.72877 
-43.0235 -25.3124 -15.0493 -44.7188 -20.1509 -15.0493 -44.7188 -25.3124 -9.958 
39.7922 -25.3124 -15.0493 42.1327 -22.6245 -15.0493 42.1327 -25.3124 -11.3888 
-45.4815 -17.4168 -15.0493 45.662 -17.4168 -15.0493 50.0283 -17.4168 -7.36493 
-46.8531 -9.52122 -15.0493 48.2484 -9.52122 -15.0493 50.0283 -9.52122 -12.3187 
-47.1561 -1.62562 -15.0493 48.1703 -1.62562 -15.0493 50.0283 -1.62562 -12.6408 
-46.4293 6.26997 -15.0493 46.1395 6.26997 -15.0493 42.1327 13.7996 -15.0493 
50.0283 6.26997 -10.2845 -44.7607 14.1656 -15.0493 -44.7188 14.3688 -15.0493 
41.8008 14.1656 -15.0493 34.2371 20.193 -15.0493 42.1327 14.1656 -14.8637 
-42.1228 22.0611 -15.0493 -44.7188 22.0611 -13.5784 -36.8232 28.5503 -15.0493 
2.65471 27.9628 -15.0493 10.5503 27.263 -15.0493 18.4459 25.8195 -15.0493 
31.0008 22.0611 -15.0493 26.3415 24.0493 -15.0493 34.2371 22.0611 -13.8315 
42.1327 22.0611 -7.56258 -44.7188 29.9567 -7.87308 -34.9405 29.9567 -15.0493 
-36.8232 29.9567 -14.4312 -28.9277 32.3347 -15.0493 -21.0321 33.3713 -15.0493 
-13.1365 32.5584 -15.0493 -4.90687 29.9567 -15.0493 -5.24088 30.0311 -15.0493 
2.65471 29.9567 -14.1478 10.5503 29.9567 -13.4536 18.4459 29.9567 -11.9768 
26.3415 29.9567 -9.32952 -28.9277 37.8523 -10.3271 -21.0321 37.8523 -12.0507 
-13.1365 37.8523 -11.6917 -5.24088 37.8523 -10.3689 2.65471 37.8523 -8.94856 
-13.1365 -49.0202 -7.15368 -5.24088 -49.2421 -7.15368 -28.9277 -44.3026 -7.15368 
-13.2706 -48.9992 -7.15368 -21.0321 -47.6996 -7.15368 -13.1365 -48.9992 -6.88013 
-2.36686 -48.9992 -7.15368 -5.24088 -48.9992 -3.73803 2.65471 -48.5597 -7.15368 
10.5503 -46.3333 -7.15368 18.4459 -42.9816 -7.15368 -33.9249 -41.1036 -7.15368 
-36.8232 -38.5894 -7.15368 21.8939 -41.1036 -7.15368 26.3415 -38.5163 -7.15368 
34.2371 -33.4167 -7.15368 -41.313 -33.208 -7.15368 -44.7188 -26.8991 -7.15368 
34.536 -33.208 -7.15368 34.2371 -33.208 -3.02788 42.1327 -27.2554 -7.15368 
-45.4575 -25.3124 -7.15368 -44.7188 -25.3124 -4.5429 44.1311 -25.3124 -7.15368 
50.0283 -17.5663 -7.15368 -48.1429 -17.4168 -7.15368 50.1205 -17.4168 -7.15368 
-50.2241 -9.52122 -7.15368 52.5211 -9.52122 -7.15368 -51.6252 -1.62562 -7.15368 
53.0143 -1.62562 -7.15368 -52.3699 6.26997 -7.15368 51.816 6.26997 -7.15368 
50.0283 10.7334 -7.15368 -51.966 14.1656 -7.15368 48.4854 14.1656 -7.15368 
50.0283 14.1656 -2.39989 -49.8815 22.0611 -7.15368 34.2371 28.3446 -7.15368 
42.4574 22.0611 -7.15368 42.1327 22.3732 -7.15368 -45.2537 29.9567 -7.15368 
-44.7188 30.5556 -7.15368 -36.8232 37.2157 -7.15368 10.5503 37.2459 -7.15368 
18.4459 34.4558 -7.15368 30.5759 29.9567 -7.15368 26.3415 31.6228 -7.15368 
34.2371 29.9567 -3.04485 -35.4672 37.8523 -7.15368 -36.8232 37.8523 -4.10344 
-28.9277 40.4218 -7.15368 -21.0321 41.9958 -7.15368 -13.1365 42.1031 -7.15368 
-5.24088 41.3263 -7.15368 8.76319 37.8523 -7.15368 2.65471 39.8334 -7.15368 
10.5503 37.8523 -6.43914 18.4459 37.8523 -2.48424 -13.1365 45.7479 -1.25631 
-5.24088 45.7479 -1.25739 -28.9277 -42.8978 0.741913 -21.0321 -46.7047 0.741913 
-13.1365 -48.3888 0.741913 -5.24088 -48.665 0.741913 2.65471 -47.759 0.741913 
10.5503 -45.5381 0.741913 18.4459 -42.3194 0.741913 -31.6644 -41.1036 0.741913 
-36.8232 -36.0237 0.741913 -28.9277 -41.1036 3.5079 20.74 -41.1036 0.741913 
18.4459 -41.1036 3.59948 26.3415 -38.0055 0.741913 -38.9175 -33.208 0.741913 
-36.8232 -33.208 3.44345 33.9439 -33.208 0.741913 34.2371 -33.0192 0.741913 
42.1327 -27.0977 0.741913 -43.1095 -25.3124 0.741913 -44.7188 -21.121 0.741913 
44.0306 -25.3124 0.741913 42.1327 -25.3124 5.50727 50.0283 -17.9982 0.741913 
-46.1443 -17.4168 0.741913 -44.7188 -17.4168 2.92552 50.4075 -17.4168 0.741913 
50.0283 -17.4168 2.15126 -48.8655 -9.52122 0.741913 -44.7188 -9.52122 6.31575 
53.4479 -9.52122 0.741913 -50.7808 -1.62562 0.741913 54.3562 -1.62562 0.741913 
-51.7819 6.26997 0.741913 53.7456 6.26997 0.741913 -51.9555 14.1656 0.741913 
50.8533 14.1656 0.741913 50.0283 15.5495 0.741913 -50.175 22.0611 0.741913 
45.5464 22.0611 0.741913 42.1327 25.5892 0.741913 -45.9013 29.9567 0.741913 
-44.7188 31.2562 0.741913 -44.7188 29.9567 3.16364 26.3415 35.855 0.741913 
36.1038 29.9567 0.741913 34.2371 31.2615 0.741913 -37.8221 37.8523 0.741913 
-36.8232 38.6151 0.741913 -36.8232 37.8523 3.09056 -28.9277 43.099 0.741913 
-21.0321 45.5325 0.741913 2.65471 45.7188 0.741913 10.5503 43.4798 0.741913 
22.5325 37.8523 0.741913 18.4459 39.9733 0.741913 26.3415 37.8523 7.20436 
-19.6863 45.7479 0.741913 -13.1365 46.7211 0.741913 2.48189 45.7479 0.741913 
-5.24088 46.85 0.741913 2.65471 45.7479 0.827159 10.5503 45.7479 6.86853 
-21.0321 -42.285 8.6375 -13.1365 -44.2374 8.6375 -5.24088 -44.5164 8.6375 
2.65471 -43.5556 8.6375 10.5503 -41.6033 8.6375 -23.1552 -41.1036 8.6375 
-28.9277 -36.6982 8.6375 -21.0321 -41.1036 9.86476 -13.1365 -41.1036 11.6782 
-5.24088 -41.1036 11.8711 2.65471 -41.1036 11.0183 11.943 -41.1036 8.6375 
10.5503 -41.1036 9.20767 18.4459 -38.66 8.6375 26.3415 -35.0589 8.6375 
-32.263 -33.208 8.6375 -36.8232 -26.2583 8.6375 -28.9277 -33.208 11.2995 
-21.0321 -33.208 14.693 -13.1365 -33.208 15.954 -5.24088 -33.208 16.1471 
2.65471 -33.208 15.5043 10.5503 -33.208 15.1347 18.4459 -33.208 14.3401 
29.3984 -33.208 8.6375 26.3415 -33.208 10.9694 34.2371 -30.0628 8.6375 
-37.3387 -25.3124 8.6375 -36.8232 -25.3124 9.12998 -28.9277 -25.3124 14.0472 
40.6072 -25.3124 8.6375 34.2371 -25.3124 13.9106 42.1327 -23.9685 8.6375 
-40.1538 -17.4168 8.6375 -36.8232 -17.4168 11.377 -28.9277 -17.4168 15.3015 
47.934 -17.4168 8.6375 42.1327 -17.4168 14.8009 50.0283 -13.6497 8.6375 
-42.6905 -9.52122 8.6375 -44.7188 -4.0741 8.6375 -36.8232 -9.52122 13.0288 
-28.9277 -9.52122 16.2448 51.9024 -9.52122 8.6375 50.0283 -9.52122 11.8261 
-45.4877 -1.62562 8.6375 -44.7188 -1.62562 9.39119 -36.8232 -1.62562 14.3503 
-28.9277 -1.62562 16.3602 53.3453 -1.62562 8.6375 50.0283 -1.62562 14.8156 
-46.8485 6.26997 8.6375 -44.7188 6.26997 10.7385 -36.8232 6.26997 15.4991 
52.902 6.26997 8.6375 50.0283 6.26997 15.2671 -47.1506 14.1656 8.6375 
-44.7188 14.1656 11.0638 -36.8232 14.1656 16.0117 50.4711 14.1656 8.6375 
50.0283 14.9523 8.6375 50.0283 14.1656 9.81619 -46.1168 22.0611 8.6375 
-44.7188 24.7521 8.6375 -44.7188 22.0611 10.0598 -36.8232 22.0611 15.4256 
45.4315 22.0611 8.6375 42.1327 25.8159 8.6375 -41.4292 29.9567 8.6375 
-36.8232 35.055 8.6375 -36.8232 29.9567 12.7412 37.5827 29.9567 8.6375 
34.2371 32.6738 8.6375 -33.8906 37.8523 8.6375 -28.9277 41.2207 8.6375 
-28.9277 37.8523 13.1045 -21.0321 45.011 8.6375 18.4459 42.8425 8.6375 
26.9833 37.8523 8.6375 26.3415 38.2813 8.6375 26.3415 37.8523 16.0641 
-18.6156 45.7479 8.6375 -13.1365 47.2704 8.6375 -13.1365 45.7479 12.5046 
[...]
POINT_DATA 522
SCALARS ImageScalars float
LOOKUP_TABLE default
0 0 0 0 0 0 0 0 0 
0 0 0 0 0 0 0 0 0 
0 0 0 0 0 0 0 0 0 
0 0 0 0 0 0 0 0 0 
0 0 0 0 0 0 0 0 0 
0 0 0 0 0 0 0 0 0 
0 0 0 0 0 0 0 0 0 
0 0 0 0 0 0 0 0 0 
0 0 0 0 0 0 0 0 0 
0 0 0 0 0 0 0 0 0 
0 0 0 0 0 0 0 0 0 
0 0 0 0 0 0 0 0 0 
0 0 0 0 0 0 0 0 0 
0 0 0 0 0 0 0 0 0 
0 0 0 0 0 0 0 0 0 
0 0 0 0 0 0 0 0 0 
0 0 0 0 0 0 0 0 0 
0 0 0 0 0 0 0 0 0 
0 0 0 0 0 0 0 0 0 
0 0 0 0 0 0 0 0 0 
0 0 0 0 0 0 0 0 0 
0 0 0 0 0 0 0 0 0 
0 0 0 0 0 0 0 0 0 
0 0 0 0 0 0 0 0 0 
0 0 0 0 0 0 0 0 0 
0 0 0 0 0 0 0 0 0 
0 0 0 0 0 0 0 0 0 
0 0 0 0 0 0 0 0 0 
0 0 0 0 0 0 0 0 0 
0 0 0 0 0 0 0 0 0 
0 0 0 0 0 0 0 0 0 
0 0 0 0 0 0 0 0 0 
0 0 0 0 0 0 0 0 0 
0 0 0 0 0 0 0 0 0 
0 0 0 0 0 0 0 0 0 
0 0 0 0 0 0 0 0 0 
0 0 0 0 0 0 0 0 0 
0 0 0 0 0 0 0 0 0 
0 0 0 0 0 0 0 0 0 
0 0 0 0 0 0 0 0 0 
0 0 0 0 0 0 0 0 0 
0 0 0 0 0 0 0 0 0 
0 0 0 0 0 0 0 0 0 
0 0 0 0 0 0 0 0 0 
0 0 0 0 0 0 0 0 0 
0 0 0 0 0 0 0 0 0 
0 0 0 0 0 0 0 0 0 
0 0 0 0 0 0 0 0 0 
0 0 0 0 0 0 0 0 0 
0 0 0 0 0 0 0 0 0 
0 0 0 0 0 0 0 0 0 
0 0 0 0 0 0 0 0 0 
0 0 0 0 0 0 0 0 0 
0 0 0 0 0 0 0 0 0 
0 0 0 0 0 0 0 0 0 
0 0 0 0 0 0 0 0 0 
0 0 0 0 0 0 0 0 0 
0 0 0 0 0 0 0 0 0 

NORMALS Normals float
0.0208832 0.0230352 -0.999517 -0.0748917 0.0119182 -0.99712 -0.419657 -0.71873 -0.554361 
-0.203624 -0.617437 -0.759808 -0.0940227 -0.538534 -0.837341 0.0468002 -0.505991 -0.861268 
0.169647 -0.514736 -0.840397 0.273438 -0.636377 -0.721288 -0.596835 -0.529386 -0.602941 
-0.265418 -0.345016 -0.900287 -0.113549 -0.246906 -0.962364 0.0100499 -0.00910049 -0.999908 
-0.047943 -0.187389 -0.981115 0.0561893 -0.143253 -0.98809 0.142614 -0.168562 -0.975319 
0.138935 -0.209174 -0.967958 0.224885 -0.368241 -0.902123 0.365594 -0.605198 -0.707161 
-0.456208 -0.238679 -0.857267 -0.0817792 -0.00269133 -0.996647 -0.157588 -0.140871 -0.977405 
-0.00404283 -0.00475358 -0.999981 -0.0539053 -0.0603992 -0.996718 0.0271308 0.0289539 -0.999213 
0.0265027 0.0306761 -0.999178 0.0695512 0.0675831 -0.995286 0.100473 0.0709731 -0.992405 
0.0555015 0.017245 -0.99831 0.0444065 -0.115747 -0.992286 0.140982 -0.312263 -0.939476 
0.357 -0.481096 -0.800686 -0.78241 -0.193495 -0.591941 -0.0894966 0.0092543 -0.995944 
-0.332079 -0.0387571 -0.942455 -0.00478072 0.0338352 -0.999416 -0.0745133 0.0218529 -0.996981 
0.0529399 0.052301 -0.997227 0.0847392 0.111352 -0.990162 0.100726 0.105326 -0.989323 
0.0896477 0.128775 -0.987613 -0.0451679 0.0908192 -0.994843 -0.136491 -0.014267 -0.990539 
0.00638985 -0.131614 -0.99128 0.237853 -0.191001 -0.952336 0.537374 -0.317174 -0.781429 
-0.661738 -0.036665 -0.748838 -0.260622 0.092425 -0.961007 -0.0721095 0.138126 -0.987786 
0.0415513 0.128522 -0.990836 0.0742581 0.030564 -0.996771 0.0926658 0.0688479 -0.993314 
0.0847809 0.13944 -0.986594 -0.0877133 -0.0203121 -0.995939 -0.176824 0.00775268 -0.984212 
-0.043197 0.0255929 -0.998739 0.154361 -0.0268748 -0.987649 0.442158 -0.0751335 -0.893785 
-0.545235 0.0386467 -0.837392 -0.22314 0.096255 -0.970023 -0.0556449 0.137067 -0.988998 
-0.0526781 0.158283 -0.985988 0.016986 0.0146185 -0.999749 0.223626 0.0211507 -0.974446 
-0.0232003 0.0751134 -0.996905 -0.170647 -0.0699091 -0.982849 -0.0921184 0.0443581 -0.99476 
-0.0280247 0.0930716 -0.995265 0.152018 0.103901 -0.982901 0.426213 0.1062 -0.898367 
-0.510441 0.104052 -0.853594 -0.179851 0.127629 -0.975379 -0.0106414 0.103701 -0.994552 
-0.0720065 0.0941515 -0.99295 -0.0724833 0.0908198 -0.993226 0.151555 0.0140845 -0.988348 
-0.0196421 -0.0994241 -0.994851 -0.108593 0.0341155 -0.993501 -0.0111066 0.112187 -0.993625 
0.0122845 0.159664 -0.987095 0.167368 0.197616 -0.965886 0.448607 0.239363 -0.861079 
-0.501935 0.135687 -0.854195 -0.227115 0.109546 -0.967687 -0.0802442 0.0625401 -0.994811 
-0.0671101 0.0271376 -0.997376 -0.0550289 0.141761 -0.98837 0.0331453 0.167245 -0.985358 
0.0170645 0.0678097 -0.997552 0.0246296 0.174338 -0.984378 0.0365615 0.195751 -0.979972 
0.0710958 0.25286 -0.964887 0.229696 0.36101 -0.903831 -0.285868 0.205827 -0.935903 
-0.0958908 0.17635 -0.979646 0.00616636 0.147863 -0.988989 0.0775657 0.231149 -0.969822 
0.0678518 0.304995 -0.949934 0.00393931 0.333158 -0.942863 0.0183493 0.364904 -0.930864 
0.0711879 0.39047 -0.917859 0.176404 0.476014 -0.861564 -0.131121 0.406537 -0.904177 
0.00112379 0.380816 -0.92465 0.10702 0.370206 -0.922764 0.125005 0.390886 -0.911911 
-0.427631 -0.746234 -0.510163 -0.245453 -0.769577 -0.589494 -0.100177 -0.816166 -0.569068 
-0.0916334 -0.989464 -0.112095 0.0263111 -0.824767 -0.56486 0.0269161 -0.988759 -0.147076 
0.181389 -0.780091 -0.598796 0.304878 -0.728968 -0.612907 -0.452872 -0.730883 -0.510605 
-0.62764 -0.597386 -0.499197 0.356415 -0.721178 -0.594029 0.379661 -0.694397 -0.611285 
0.430221 -0.819762 -0.378023 0.405055 -0.680876 -0.610195 -0.669373 -0.552743 -0.496403 
0.434113 -0.677737 -0.59348 0.477086 -0.658437 -0.582108 0.55983 -0.814103 -0.154362 
-0.783633 -0.330186 -0.526209 -0.812916 -0.252498 -0.524797 -0.911927 -0.377413 -0.161087 
0.572599 -0.579347 -0.580076 0.6243 -0.512716 -0.589383 0.671917 -0.646158 -0.361951 
-0.816326 -0.206847 -0.539284 0.68417 -0.362278 -0.632982 0.87376 -0.430523 -0.22626 
-0.764937 -0.0912426 -0.63761 0.736209 -0.113192 -0.667221 0.853218 -0.136879 -0.503273 
-0.665875 0.0136448 -0.745938 0.701854 0.0851765 -0.70721 0.820464 0.0675842 -0.567689 
-0.581074 0.102626 -0.807354 0.61978 0.266485 -0.738146 0.519338 0.423156 -0.742447 
0.833558 0.265568 -0.484412 -0.503925 0.135629 -0.853032 -0.50359 0.139304 -0.852638 
0.509585 0.430019 -0.745256 0.321382 0.500931 -0.803606 0.524624 0.433281 -0.732829 
-0.462854 0.261643 -0.846941 -0.593399 0.308092 -0.743611 -0.35392 0.417369 -0.836985 
0.0636165 0.427984 -0.901545 0.0659027 0.484182 -0.872482 0.11377 0.510231 -0.852479 
0.27699 0.519697 -0.808203 0.195409 0.544327 -0.815796 0.358904 0.559855 -0.746827 
0.613342 0.650106 -0.448524 -0.701361 0.608131 -0.371846 -0.309629 0.450368 -0.837435 
-0.377398 0.476415 -0.794103 -0.151267 0.487197 -0.860092 -0.0133268 0.488702 -0.872349 
0.103097 0.454567 -0.884726 0.123231 0.393883 -0.910862 0.125321 0.392632 -0.911118 
0.0879152 0.463372 -0.881792 0.105242 0.556227 -0.824339 0.183529 0.657939 -0.730366 
0.27551 0.759802 -0.588893 -0.240107 0.748961 -0.617581 -0.0566058 0.67453 -0.736074 
0.0845786 0.647147 -0.757659 0.135978 0.614528 -0.777088 0.176429 0.639333 -0.748416 
-0.091492 -0.989842 -0.108819 0.0278763 -0.993744 -0.108147 -0.471398 -0.879114 -0.0702969 
-0.0946258 -0.989567 -0.10864 -0.282379 -0.953813 -0.102483 -0.0923858 -0.990991 -0.0969589 
0.082408 -0.99137 -0.101953 0.0319819 -0.99859 0.0423687 0.179697 -0.979201 -0.0942062 
0.325636 -0.938674 -0.113365 0.444213 -0.886751 -0.12786 -0.606786 -0.791125 -0.0770159 
-0.704221 -0.706883 -0.0662426 0.476383 -0.870293 -0.125095 0.511802 -0.849309 -0.129355 
0.560991 -0.817923 -0.127639 -0.824049 -0.566139 -0.020717 -0.910153 -0.414268 0.00166894 
0.563783 -0.81593 -0.128092 0.559151 -0.828701 0.0245818 0.680987 -0.715826 -0.154432 
-0.923662 -0.383119 0.00821958 -0.917048 -0.374841 0.136079 0.717884 -0.677007 -0.162185 
0.873645 -0.435844 -0.216299 -0.959799 -0.278457 -0.0353142 0.875814 -0.431155 -0.216925 
-0.970715 -0.21282 -0.111442 0.948739 -0.165977 -0.268973 -0.979226 -0.133855 -0.152313 
0.945509 0.0377454 -0.3234 -0.978286 -0.0249699 -0.205748 0.895791 0.25731 -0.362423 
0.854459 0.35729 -0.377153 -0.945811 0.139761 -0.293102 0.802434 0.443878 -0.398838 
0.872893 0.439703 -0.211467 -0.87086 0.372558 -0.32063 0.43378 0.782617 -0.446482 
0.624305 0.650772 -0.432134 0.616849 0.656988 -0.433433 -0.721225 0.605582 -0.336311 
-0.703424 0.625669 -0.337243 -0.477189 0.789726 -0.385517 0.252096 0.707337 -0.660395 
0.269791 0.747407 -0.607121 0.366085 0.798462 -0.477954 0.305366 0.794361 -0.525111 
0.483742 0.816842 -0.314267 -0.441047 0.80302 -0.400795 -0.529333 0.823001 -0.206097 
-0.269164 0.83899 -0.472913 -0.0890457 0.831191 -0.54881 0.0304423 0.778467 -0.626947 
0.10918 0.718318 -0.687094 0.242344 0.701209 -0.670503 0.184542 0.689405 -0.700475 
0.263456 0.719437 -0.642652 0.343269 0.791787 -0.505213 -0.0623682 0.932811 -0.354929 
0.0714746 0.900461 -0.429025 -0.487856 -0.810611 0.323891 -0.29507 -0.910722 0.288998 
-0.111967 -0.961483 0.251026 0.0366389 -0.968746 0.245334 0.186719 -0.946521 0.263124 
0.310713 -0.916742 0.251081 0.422466 -0.878389 0.223505 -0.556762 -0.755434 0.34545 
-0.717896 -0.581162 0.383243 -0.500808 -0.739215 0.45028 0.443615 -0.870165 0.21452 
0.399318 -0.856136 0.327988 0.492483 -0.851149 0.181675 -0.7661 -0.511682 0.388937 
-0.708641 -0.502523 0.495277 0.544097 -0.822687 0.164755 0.546488 -0.821188 0.164319 
0.661456 -0.736077 0.14376 -0.843329 -0.349467 0.408251 -0.858858 -0.312901 0.405532 
0.696862 -0.703779 0.138124 0.641599 -0.704076 0.304347 0.86059 -0.498233 0.105591 
-0.867593 -0.298507 0.397714 -0.827546 -0.285102 0.483617 0.870075 -0.482001 0.103177 
0.858126 -0.490059 0.153175 -0.885197 -0.262044 0.384394 -0.755968 -0.25042 0.604816 
0.972478 -0.230525 0.0338252 -0.932712 -0.159409 0.323478 0.999649 -0.0203408 -0.0169828 
-0.957888 -0.0661975 0.279407 0.971753 0.228355 -0.0595843 -0.964743 0.0950359 0.245435 
0.893996 0.437347 -0.097466 0.879771 0.464996 -0.0989015 -0.920943 0.337385 0.195029 
0.75882 0.638752 -0.127231 0.661103 0.73392 -0.1559 -0.782896 0.602146 0.156506 
-0.746545 0.646834 0.155809 -0.749156 0.600266 0.280081 0.446608 0.826003 -0.343891 
0.547329 0.812897 -0.19907 0.52496 0.82251 -0.218849 -0.590697 0.80309 0.07825 
-0.575554 0.814915 0.0681978 -0.598966 0.779713 0.182448 -0.399059 0.916015 -0.0408527 
-0.211584 0.962835 -0.167872 0.182562 0.885738 -0.426777 0.310676 0.836408 -0.451555 
0.416707 0.819827 -0.392733 0.391631 0.810605 -0.435366 0.525923 0.837902 -0.146031 
-0.188921 0.964061 -0.186803 -0.0798897 0.95985 -0.268897 0.179721 0.887185 -0.424974 
0.055697 0.93506 -0.350087 0.181919 0.887927 -0.422482 0.309057 0.938396 -0.154587 
-0.311565 -0.715029 0.625828 -0.113152 -0.765113 0.633876 0.034718 -0.76716 0.640516 
0.152793 -0.753511 0.639434 0.248095 -0.767441 0.591171 -0.369258 -0.676531 0.637145 
-0.510141 -0.537762 0.671243 -0.313234 -0.669243 0.673794 -0.0991817 -0.640163 0.76181 
0.0346232 -0.631133 0.774902 0.131645 -0.662723 0.737203 0.264361 -0.770183 0.580458 
0.240154 -0.752848 0.612818 0.325979 -0.779984 0.534193 0.422986 -0.774163 0.470908 
-0.564173 -0.464154 0.682839 -0.645511 -0.335193 0.686266 -0.488327 -0.434197 0.756974 
-0.239545 -0.353112 0.904395 -0.0829151 -0.319015 0.944116 0.0270445 -0.317313 0.947935 
0.0600017 -0.346336 0.93619 0.0611943 -0.444797 0.893539 0.191731 -0.580906 0.791067 
0.455897 -0.764985 0.454923 0.393453 -0.72052 0.571004 0.50214 -0.740498 0.446675 
-0.655563 -0.316944 0.685407 -0.640173 -0.315291 0.70055 -0.394259 -0.205426 0.895746 
0.588677 -0.68623 0.427255 0.401333 -0.578408 0.710194 0.615759 -0.665521 0.421809 
-0.65651 -0.235406 0.716644 -0.562213 -0.199864 0.802478 -0.33676 -0.127137 0.932968 
0.751192 -0.518147 0.408942 0.50032 -0.494913 0.710451 0.833746 -0.406568 0.373591 
-0.673624 -0.226412 0.70354 -0.695371 -0.206767 0.688263 -0.475716 -0.161839 0.864582 
-0.255147 -0.0634132 0.964821 0.890947 -0.288056 0.351051 0.811223 -0.304852 0.498982 
-0.697263 -0.190824 0.690949 -0.673289 -0.188414 0.71497 -0.380223 -0.137538 0.914611 
-0.16281 -0.0469927 0.985538 0.95383 -0.0563028 0.295022 0.792959 -0.118196 0.5977 
-0.722293 -0.0846657 0.686385 -0.636354 -0.0853976 0.766656 -0.331395 -0.0932674 0.938871 
0.954506 0.175161 0.241323 0.834962 0.115154 0.538124 -0.738115 0.0387628 0.67356 
-0.64103 0.034177 0.766755 -0.369606 0.00363686 0.929182 0.893949 0.403083 0.195906 
0.885379 0.423134 0.192516 0.883672 0.398325 0.24589 -0.746869 0.254572 0.614312 
-0.711641 0.350858 0.608658 -0.686226 0.248801 0.683514 -0.489951 0.157044 0.857488 
0.779391 0.607713 0.152429 0.724716 0.678723 0.118833 -0.661846 0.50466 0.554327 
-0.622129 0.610424 0.490243 -0.592166 0.407651 0.695097 0.652558 0.757138 0.0301825 
0.618906 0.785364 -0.0126199 -0.577285 0.694776 0.428984 -0.488382 0.786927 0.377132 
-0.512839 0.634087 0.578732 -0.340074 0.909546 0.238904 0.461014 0.877748 -0.130475 
0.544537 0.832957 -0.0982994 0.537397 0.836884 -0.104064 0.562629 0.764775 0.313954 
-0.290063 0.934681 0.205513 -0.190748 0.970858 0.145087 -0.230123 0.90264 0.363709 
-0.0464951 0.997744 0.048436 0.12489 0.991297 -0.0416359 0.328415 0.940518 -0.0870014 
0.298547 0.951178 -0.0782901 0.274189 0.948388 0.159314 -0.211954 -0.179016 0.960744 
-0.0727368 -0.253684 0.964548 0.0233605 -0.260408 0.965216 0.0179387 -0.229942 0.973039 
0.0014546 -0.337346 0.94138 0.104437 -0.408349 0.906832 0.222813 -0.433711 0.873069 
-0.223409 -0.163027 0.960994 -0.210985 -0.161482 0.964059 -0.0540522 -0.139903 0.988689 
0.0172416 -0.0954348 0.995286 -0.013662 -0.139992 0.990058 -0.0472813 -0.243454 0.968759 
0.0501515 -0.294424 0.954358 0.23669 -0.432292 0.870116 0.210532 -0.410385 0.887277 
0.29447 -0.425984 0.855468 -0.242745 -0.0817906 0.966636 -0.178238 -0.0478005 0.982826 
-0.020527 -0.0855589 0.996122 0.0226984 -0.141992 0.989608 -0.0963489 -0.201831 0.97467 
-0.112624 -0.188307 0.975631 -0.00422847 -0.127443 0.991837 0.08498 -0.204664 0.975137 
0.364615 -0.418892 0.831616 0.230938 -0.34594 0.909392 0.432652 -0.408979 0.80346 
-0.234479 -0.0465643 0.971005 -0.168347 0.0113493 0.985662 -0.154186 -0.0164404 0.987905 
-0.10764 -0.202727 0.973301 -0.0606558 -0.267824 0.961557 0.0398953 -0.19176 0.980631 
0.0266396 -0.105663 0.994045 -0.0156156 -0.184047 0.982793 0.108021 -0.247609 0.962819 
0.532109 -0.307032 0.789044 0.367477 -0.292025 0.882996 -0.152842 -0.0400319 0.987439 
-0.153965 -0.0617775 0.986143 -0.12288 -0.0176614 0.992264 -0.244011 0.0126857 0.96969 
-0.202085 -0.163104 0.965691 -0.0969821 -0.197609 0.975472 0.0392085 -0.158505 0.986579 
-0.000678316 -0.199262 0.979946 -0.0626044 -0.199294 0.977938 0.104066 -0.215992 0.970834 
0.682882 -0.138607 0.717259 0.36888 -0.176637 0.912539 -0.194158 -0.100708 0.975787 
-0.134554 -0.104746 0.985354 -0.102918 -0.159756 0.981777 -0.306098 -0.209868 0.928579 
-0.297909 -0.242035 0.923401 -0.0282806 -0.195898 0.980217 0.0429922 -0.13838 0.989446 
-0.0142198 -0.18865 0.981941 -0.0371269 -0.146056 0.988579 0.112783 -0.0824417 0.990194 
0.778085 0.0919072 0.621399 0.402344 -0.0171365 0.915328 -0.328871 -0.0277799 0.943966 
-0.228731 -0.125497 0.965367 -0.232157 -0.228699 0.94541 -0.277151 -0.265331 0.923464 
0.228346 0.112372 0.967073 0.743066 0.324016 0.585548 0.522433 0.233051 0.820214 
-0.444969 0.107861 0.889027 -0.337192 -0.00462787 0.941424 -0.271521 -0.0630705 0.960364 
-0.215274 -0.0674 0.974225 0.175482 0.127865 0.976144 0.40432 0.286105 0.868717 
0.684729 0.518128 0.512532 0.68269 0.523667 0.509615 0.678101 0.514911 0.524449 
-0.486548 0.30564 0.818447 -0.477268 0.393919 0.785521 -0.446602 0.27024 0.852946 
-0.295999 0.166647 0.940539 -0.210996 0.153758 0.965318 0.560487 0.754591 0.341242 
0.341296 0.381717 0.858958 0.647675 0.639022 0.414932 0.634066 0.659381 0.403952 
0.607681 0.60644 0.51279 -0.430135 0.539092 0.72413 -0.375422 0.611973 0.696095 
-0.361008 0.500479 0.786889 -0.256262 0.716842 0.648434 -0.233553 0.450109 0.861891 
-0.166964 0.406892 0.898088 -0.049347 0.389379 0.919755 0.228761 0.884384 0.406858 
0.0628042 0.463531 0.883852 0.559966 0.755324 0.340476 0.405115 0.846691 0.344957 
0.307123 0.564586 0.766106 -0.156757 0.82628 0.541007 -0.149371 0.830832 0.536103 
-0.150531 0.825461 0.544017 0.154296 0.895633 0.417174 0.0403548 0.896212 0.441788 
0.0326468 0.857983 0.512639 -0.202712 -0.138544 0.969388 -0.0157608 -0.158281 0.987268 
0.0454838 -0.128022 0.990728 -0.0104127 -0.116084 0.993185 0.019223 -0.075754 0.996941 
-0.197042 -0.13315 0.971311 -0.188074 -0.119572 0.974849 0.0028335 -0.0911735 0.995831 
0.0452988 -0.126917 0.990878 -0.0102641 -0.112957 0.993547 0.105762 0.00769714 0.994362 
0.15117 0.095449 0.983889 0.0444518 -0.044935 0.998 -0.155164 -0.0164119 0.987752 
-0.125381 0.00530222 0.992094 -0.0356775 -0.0148469 0.999253 0.0258694 -0.0568011 0.99805 
0.162927 0.113115 0.980133 0.0689774 0.00147312 0.997617 -0.151614 0.14498 0.977749 
-0.145846 0.160993 0.97612 -0.143985 0.143643 0.979099 -0.0536344 0.254361 0.965621 
-0.0557493 0.109577 0.992414 0.053558 0.281334 0.958114 0.0614331 0.123535 0.990437 
0.174251 0.135103 0.975389 0.174043 0.13825 0.974985 0.172461 0.132474 0.976068 

