# vtk DataFile Version 4.2
vtk output
ASCII
DATASET POLYDATA
POINTS 512 float
-10.0241 32.123 -23.5131 -25.7738 -30.8757 -16.4672 -17.8989 -30.8757 -16.1946 
-10.0241 -30.8757 -15.4118 -33.6486 -23.0008 -17.0686 -25.7738 -23.0008 -18.174 
-17.8989 -23.0008 -17.7404 -10.0241 -23.0008 -17.3469 -2.14924 -23.0008 -16.8919 
5.72559 -23.0008 -16.5619 13.6004 -23.0008 -16.6912 21.4753 -23.0008 -17.6985 
29.3501 -23.0008 -17.9577 37.2249 -23.0008 -16.8657 -33.6486 -15.126 -18.3341 
-25.7738 -15.126 -19.1593 -17.8989 -15.126 -18.5652 -10.0241 -15.126 -17.9261 
-2.14924 -15.126 -19.0586 5.72559 -15.126 -19.0765 13.6004 -15.126 -18.5419 
21.4753 -15.126 -19.55 29.3501 -15.126 -20.2981 37.2249 -15.126 -19.6397 
45.0998 -15.126 -16.8263 -41.5234 -7.25117 -16.3262 -33.6486 -7.25117 -19.4091 
-25.7738 -7.25117 -19.9445 -17.8989 -7.25117 -19.7957 -10.0241 -7.25117 -20.2338 
-2.14924 -7.25117 -19.916 5.72559 -7.25117 -20.375 13.6004 -7.25117 -19.9374 
21.4753 -7.25117 -20.696 29.3501 -7.25117 -21.4292 37.2249 -7.25117 -21.1174 
45.0998 -7.25117 -18.4573 -41.5234 0.623665 -17.0099 -33.6486 0.623665 -19.5625 
-25.7738 0.623665 -20.3455 -17.8989 0.623665 -19.8893 -10.0241 0.623665 -20.1881 
-2.14924 0.623665 -19.8782 5.72559 0.623665 -22.0442 13.6004 0.623665 -21.1482 
21.4753 0.623665 -21.6062 29.3501 0.623665 -22.2507 37.2249 0.623665 -21.7831 
45.0998 0.623665 -19.069 -41.5234 8.4985 -16.817 -33.6486 8.4985 -20.0306 
-25.7738 8.4985 -20.9537 -17.8989 8.4985 -20.6135 -10.0241 8.4985 -20.013 
-2.14924 8.4985 -21.6207 5.72559 8.4985 -23.1073 13.6004 8.4985 -21.8787 
21.4753 8.4985 -22.198 29.3501 8.4985 -22.6121 37.2249 8.4985 -21.7852 
45.0998 8.4985 -18.3773 -41.5234 16.3733 -16.0612 -33.6486 16.3733 -20.5529 
-25.7738 16.3733 -21.8185 -17.8989 16.3733 -22.0218 -10.0241 16.3733 -21.3198 
-2.14924 16.3733 -20.9468 5.72559 16.3733 -21.3998 13.6004 16.3733 -22.0134 
21.4753 16.3733 -22.653 29.3501 16.3733 -22.7201 37.2249 16.3733 -21.0092 
45.0998 16.3733 -15.6759 -33.6486 24.2482 -20.3404 -25.7738 24.2482 -22.5366 
-17.8989 24.2482 -23.0042 -10.0241 29.7269 -23.2241 -10.0241 24.2482 -22.5833 
-2.14924 24.2482 -22.0173 5.72559 24.2482 -22.0228 13.6004 24.2482 -22.4854 
21.4753 24.2482 -22.6306 29.3501 24.2482 -20.8564 37.2249 24.2482 -17.2449 
-33.6486 32.123 -17.1644 -25.7738 32.123 -21.6207 -12.7211 32.123 -23.2241 
-17.8989 32.123 -22.667 -7.13529 32.123 -23.2241 -10.0241 33.9751 -23.2241 
-2.14924 32.123 -22.7437 5.72559 32.123 -22.5035 13.6004 32.123 -22.4196 
21.4753 32.123 -20.6566 29.3501 32.123 -17.2664 -25.7738 39.9978 -17.3282 
-17.8989 39.9978 -20.5463 -10.0241 39.9978 -22.1593 -2.14924 39.9978 -22.9741 
5.72559 39.9978 -22.5419 13.6004 39.9978 -20.7165 21.4753 39.9978 -16.531 
-10.0241 47.8727 -16.9114 -2.14924 47.8727 -17.5407 5.72559 47.8727 -17.3034 
-33.6486 -38.7505 -8.47723 -25.7738 -33.2938 -15.3492 -25.7738 -38.7505 -12.3162 
-17.8989 -32.7238 -15.3492 -17.8989 -38.7505 -12.1579 -10.0241 -30.9959 -15.3492 
-10.0241 -38.7505 -10.4662 -41.5234 -30.8757 -8.1035 -29.1163 -30.8757 -15.3492 
-33.6486 -27.5107 -15.3492 -33.6486 -30.8757 -13.7589 -9.71751 -30.8757 -15.3492 
-2.14924 -27.0358 -15.3492 -2.14924 -30.8757 -13.6782 5.72559 -25.4649 -15.3492 
5.72559 -30.8757 -12.1245 13.6004 -25.6402 -15.3492 13.6004 -30.8757 -12.1275 
21.4753 -27.4242 -15.3492 21.4753 -30.8757 -12.8954 29.3501 -27.3572 -15.3492 
29.3501 -30.8757 -12.6421 37.2249 -25.3455 -15.3492 37.2249 -30.8757 -10.7623 
-37.5982 -23.0008 -15.3492 -41.5234 -23.0008 -12.651 40.3593 -23.0008 -15.3492 
45.0998 -18.2115 -15.3492 45.0998 -23.0008 -12.1911 -40.674 -15.126 -15.3492 
-41.5234 -12.965 -15.3492 -41.5234 -15.126 -14.8876 46.8028 -15.126 -15.3492 
-42.8635 -7.25117 -15.3492 49.0056 -7.25117 -15.3492 52.9746 -7.25117 -8.57099 
-43.7772 0.623665 -15.3492 49.3799 0.623665 -15.3492 52.9746 0.623665 -7.50393 
-43.2329 8.4985 -15.3492 48.2443 8.4985 -15.3492 -42.2486 16.3733 -15.3492 
-41.5234 19.3808 -15.3492 45.3677 16.3733 -15.3492 45.0998 16.8191 -15.3492 
-40.1106 24.2482 -15.3492 -41.5234 24.2482 -12.4829 39.5699 24.2482 -15.3492 
37.2249 26.9139 -15.3492 -35.6267 32.123 -15.3492 -33.6486 34.6296 -15.3492 
32.0143 32.123 -15.3492 29.3501 34.6716 -15.3492 -28.4083 39.9978 -15.3492 
-25.7738 42.1018 -15.3492 -17.8989 46.6285 -15.3492 13.6004 46.5979 -15.3492 
23.2365 39.9978 -15.3492 21.4753 41.312 -15.3492 -14.2739 47.8727 -15.3492 
-17.8989 47.8727 -12.8092 -10.0241 49.0927 -15.3492 -2.14924 49.8307 -15.3492 
10.1709 47.8727 -15.3492 5.72559 49.213 -15.3492 -33.6486 -39.6555 -7.4744 
-25.7738 -42.8726 -7.4744 -17.8989 -43.5868 -7.4744 -17.8989 -46.6254 -1.74405 
-10.0241 -41.5056 -7.4744 -34.754 -38.7505 -7.4744 -41.5234 -31.586 -7.4744 
-3.13498 -38.7505 -7.4744 -2.14924 -38.2928 -7.4744 -2.14924 -38.7505 -6.87212 
5.72559 -35.7445 -7.4744 5.72559 -38.7505 -3.37718 13.6004 -35.4782 -7.4744 
13.6004 -38.7505 -2.40811 21.4753 -35.8544 -7.4744 21.4753 -38.7505 -1.85416 
29.3501 -35.4421 -7.4744 37.2249 -33.0199 -7.4744 -42.0079 -30.8757 -7.4744 
40.5396 -30.8757 -7.4744 45.0998 -26.8806 -7.4744 -45.4788 -23.0008 -7.4744 
48.3397 -23.0008 -7.4744 -47.5309 -15.126 -7.4744 52.0423 -15.126 -7.4744 
52.9746 -9.99785 -7.4744 -48.5567 -7.25117 -7.4744 -49.3983 -7.25117 0.0939169 
53.4463 -7.25117 -7.4744 -48.7985 0.623665 -7.4744 52.9851 0.623665 -7.4744 
52.9746 0.674381 -7.4744 52.9746 0.623665 -7.20656 -47.8646 8.4985 -7.4744 
51.2868 8.4985 -7.4744 -46.1498 16.3733 -7.4744 47.9807 16.3733 -7.4744 
45.0998 20.885 -7.4744 -43.3371 24.2482 -7.4744 -41.5234 27.7374 -7.4744 
42.5861 24.2482 -7.4744 37.2249 29.9844 -7.4744 -38.9631 32.123 -7.4744 
-33.6486 38.7531 -7.4744 34.9629 32.123 -7.4744 29.3501 36.8626 -7.4744 
-32.425 39.9978 -7.4744 -25.7738 45.3392 -7.4744 13.6004 47.5125 -7.4744 
25.3913 39.9978 -7.4744 21.4753 42.8776 -7.4744 21.4753 39.9978 -1.3009 
-21.6001 47.8727 -7.4744 -17.8989 49.7372 -7.4744 -10.0241 51.6977 -7.4744 
-2.14924 51.7766 -7.4744 12.7026 47.8727 -7.4744 5.72559 50.4519 -7.4744 
-17.8989 -47.5294 0.40044 -33.6486 -42.6522 0.40044 -22.3526 -46.6254 0.40044 
-25.7738 -45.924 0.40044 -13.6668 -46.6254 0.40044 -10.0241 -45.7792 0.40044 
-2.14924 -43.1622 0.40044 5.72559 -41.1268 0.40044 13.6004 -40.2927 0.40044 
21.4753 -39.7853 0.40044 -38.3503 -38.7505 0.40044 -41.5234 -34.9628 0.40044 
26.158 -38.7505 0.40044 29.3501 -38.0883 0.40044 37.2249 -34.9521 0.40044 
-44.0826 -30.8757 0.40044 43.0256 -30.8757 0.40044 45.0998 -28.9076 0.40044 
-47.258 -23.0008 0.40044 49.5127 -23.0008 0.40044 -48.7395 -15.126 0.40044 
-49.3983 -7.61783 0.40044 52.6713 -15.126 0.40044 52.9746 -12.5926 0.40044 
-49.431 -7.25117 0.40044 -49.3983 -5.82549 0.40044 -49.3983 -7.25117 0.557804 
53.6451 -7.25117 0.40044 52.9746 -1.83569 0.40044 52.9746 -7.25117 2.81824 
-49.2516 0.623665 0.40044 52.6717 0.623665 0.40044 -48.1804 8.4985 0.40044 
50.6271 8.4985 0.40044 -46.1523 16.3733 0.40044 46.764 16.3733 0.40044 
45.0998 18.8924 0.40044 45.0998 16.3733 3.64091 -42.7702 24.2482 0.40044 
-41.5234 26.5822 0.40044 -41.5234 24.2482 3.24197 40.655 24.2482 0.40044 
37.2249 27.615 0.40044 37.2249 24.2482 5.06734 -38.1884 32.123 0.40044 
-33.6486 37.8534 0.40044 -33.6486 32.123 8.24475 21.4753 39.1331 0.40044 
31.7349 32.123 0.40044 29.3501 33.8843 0.40044 29.3501 32.123 2.84767 
-31.6379 39.9978 0.40044 -25.7738 44.8237 0.40044 19.9526 39.9978 0.40044 
13.6004 43.8386 0.40044 13.6004 39.9978 4.64881 -20.2477 47.8727 0.40044 
-17.8989 48.9322 0.40044 -17.8989 47.8727 2.62331 -10.0241 50.157 0.40044 
-10.0241 47.8727 4.40854 -2.14924 49.2655 0.40044 -2.14924 47.8727 2.6735 
5.73583 47.8727 0.40044 5.72559 47.8766 0.40044 5.72559 47.8727 0.40604 
-17.8989 -47.1846 8.27528 -33.6486 -41.5144 8.27528 -20.4826 -46.6254 8.27528 
-25.7738 -45.4479 8.27528 -12.5297 -46.6254 8.27528 -17.8989 -46.6254 9.67341 
-10.0241 -46.3768 8.27528 -2.14924 -44.9289 8.27528 5.72559 -43.457 8.27528 
13.6004 -42.2987 8.27528 21.4753 -40.8181 8.27528 -36.8054 -38.7505 8.27528 
-41.5234 -33.0448 8.27528 -33.6486 -38.7505 13.2526 28.2823 -38.7505 8.27528 
21.4753 -38.7505 13.6215 29.3501 -38.4035 8.27528 37.2249 -34.2402 8.27528 
-42.9606 -30.8757 8.27528 -41.5234 -30.8757 11.1718 41.4633 -30.8757 8.27528 
37.2249 -30.8757 13.7467 45.0998 -26.6645 8.27528 -45.8009 -23.0008 8.27528 
-41.5234 -23.0008 15.6922 47.6086 -23.0008 8.27528 45.0998 -23.0008 12.4343 
-47.3069 -15.126 8.27528 50.7642 -15.126 8.27528 -47.743 -7.25117 8.27528 
51.3774 -7.25117 8.27528 -47.2544 0.623665 8.27528 49.9675 0.623665 8.27528 
45.0998 0.623665 14.8776 -45.7252 8.4985 8.27528 -41.5234 8.4985 14.0688 
47.0929 8.4985 8.27528 45.0998 12.1149 8.27528 45.0998 8.4985 10.9724 
-43.113 16.3733 8.27528 -41.5234 19.6553 8.27528 -41.5234 16.3733 10.3542 
29.3501 16.3733 15.872 42.0457 16.3733 8.27528 37.2249 21.6247 8.27528 
37.2249 16.3733 12.4305 -38.752 24.2482 8.27528 -33.6486 32.0928 8.27528 
-33.6486 24.2482 12.6648 -25.7738 24.2482 15.6094 13.6004 24.2482 15.932 
21.4753 24.2482 13.9853 34.1472 24.2482 8.27528 29.3501 27.8212 8.27528 
29.3501 24.2482 11.3522 -33.6236 32.123 8.27528 -25.7738 32.123 13.1474 
-2.14924 32.123 16.1143 5.72559 32.123 14.3325 13.6004 36.3197 8.27528 
13.6004 32.123 11.5823 21.7873 32.123 8.27528 21.4753 32.3011 8.27528 
21.4753 32.123 8.42925 -26.0564 39.9978 8.27528 -25.7738 40.2254 8.27528 
-25.7738 39.9978 8.49502 -17.8989 44.1667 8.27528 -17.8989 39.9978 12.1995 
-10.0241 45.2278 8.27528 -10.0241 39.9978 12.8837 -2.14924 43.7373 8.27528 
-2.14924 39.9978 11.6907 6.81437 39.9978 8.27528 5.72559 40.522 8.27528 
5.72559 39.9978 8.76188 -25.7738 -40.8241 16.1501 -17.8989 -43.1075 16.1501 
-10.0241 -42.5618 16.1501 -2.14924 -41.5364 16.1501 5.72559 -40.5498 16.1501 
13.6004 -39.5957 16.1501 -29.8849 -38.7505 16.1501 -33.6486 -35.8676 16.1501 
-25.7738 -38.7505 17.9238 -17.8989 -38.7505 19.6121 -10.0241 -38.7505 19.3972 
-2.14924 -38.7505 18.6731 5.72559 -38.7505 17.83 16.9352 -38.7505 16.1501 
13.6004 -38.7505 16.9841 21.4753 -37.1933 16.1501 29.3501 -33.9985 16.1501 
[...]
POINT_DATA 512
SCALARS ImageScalars float
LOOKUP_TABLE default
0 0 0 0 0 0 0 0 0 
0 0 0 0 0 0 0 0 0 
0 0 0 0 0 0 0 0 0 
0 0 0 0 0 0 0 0 0 
0 0 0 0 0 0 0 0 0 
0 0 0 0 0 0 0 0 0 
0 0 0 0 0 0 0 0 0 
0 0 0 0 0 0 0 0 0 
0 0 0 0 0 0 0 0 0 
0 0 0 0 0 0 0 0 0 
0 0 0 0 0 0 0 0 0 
0 0 0 0 0 0 0 0 0 
0 0 0 0 0 0 0 0 0 
0 0 0 0 0 0 0 0 0 
0 0 0 0 0 0 0 0 0 
0 0 0 0 0 0 0 0 0 
0 0 0 0 0 0 0 0 0 
0 0 0 0 0 0 0 0 0 
0 0 0 0 0 0 0 0 0 
0 0 0 0 0 0 0 0 0 
0 0 0 0 0 0 0 0 0 
0 0 0 0 0 0 0 0 0 
0 0 0 0 0 0 0 0 0 
0 0 0 0 0 0 0 0 0 
0 0 0 0 0 0 0 0 0 
0 0 0 0 0 0 0 0 0 
0 0 0 0 0 0 0 0 0 
0 0 0 0 0 0 0 0 0 
0 0 0 0 0 0 0 0 0 
0 0 0 0 0 0 0 0 0 
0 0 0 0 0 0 0 0 0 
0 0 0 0 0 0 0 0 0 
0 0 0 0 0 0 0 0 0 
0 0 0 0 0 0 0 0 0 
0 0 0 0 0 0 0 0 0 
0 0 0 0 0 0 0 0 0 
0 0 0 0 0 0 0 0 0 
0 0 0 0 0 0 0 0 0 
0 0 0 0 0 0 0 0 0 
0 0 0 0 0 0 0 0 0 
0 0 0 0 0 0 0 0 0 
0 0 0 0 0 0 0 0 0 
0 0 0 0 0 0 0 0 0 
0 0 0 0 0 0 0 0 0 
0 0 0 0 0 0 0 0 0 
0 0 0 0 0 0 0 0 0 
0 0 0 0 0 0 0 0 0 
0 0 0 0 0 0 0 0 0 
0 0 0 0 0 0 0 0 0 
0 0 0 0 0 0 0 0 0 
0 0 0 0 0 0 0 0 0 
0 0 0 0 0 0 0 0 0 
0 0 0 0 0 0 0 0 0 
0 0 0 0 0 0 0 0 0 
0 0 0 0 0 0 0 0 0 
0 0 0 0 0 0 0 0 0 
0 0 0 0 0 0 0 0 
NORMALS Normals float
0.00277711 -0.0205965 0.999784 0.135447 0.32805 0.9349 -0.0598233 0.305999 0.95015 
-0.140368 0.367987 0.919175 0.264609 0.243905 0.933002 0.0459328 0.160993 0.985886 
-0.0522142 0.143524 0.988268 -0.0508408 0.143173 0.988391 -0.0499142 0.302018 0.951995 
-0.0121989 0.377043 0.926115 0.072424 0.347624 0.934833 0.0732634 0.348193 0.934556 
-0.0385587 0.405397 0.913327 -0.274483 0.452103 0.848682 0.223862 0.153892 0.962394 
0.0118005 0.110028 0.993858 -0.0766355 0.127982 0.988811 0.0268038 0.178416 0.98359 
0.0737555 0.18934 0.979138 -0.0326826 0.237059 0.970945 0.0300349 0.195473 0.980249 
0.107894 0.187103 0.976397 0.00812171 0.206565 0.978399 -0.186948 0.242616 0.951939 
-0.527741 0.29915 0.794983 0.531807 0.111868 0.839445 0.210077 0.0723481 0.975004 
0.0256412 0.0744839 0.996893 0.0171252 0.0841175 0.996309 0.00786921 0.145214 0.989369 
0.010102 0.0490139 0.998747 0.000991994 0.170509 0.985356 0.019643 0.163047 0.986423 
0.0937512 0.128517 0.987266 0.0255562 0.121425 0.992272 -0.165092 0.125722 0.978232 
-0.506291 0.11937 0.854061 0.501085 0.0306164 0.864856 0.201541 0.0388153 0.978711 
0.0190849 0.0638574 0.997777 -0.0102489 0.0497654 0.998708 0.000610552 -0.0140726 0.999901 
0.110156 0.111363 0.987656 0.0767484 0.18051 0.980574 -0.0220086 0.123826 0.99206 
0.0698005 0.0945394 0.993071 0.0114728 0.0746491 0.997144 -0.178896 0.0432508 0.982917 
-0.5277 -0.00201588 0.849428 0.584843 -0.0531895 0.809401 0.235457 0.0624015 0.969879 
0.0357687 0.0931095 0.995013 -0.0605725 0.137479 0.988651 0.0623451 0.0718262 0.995467 
0.195625 0.062809 0.978665 0.0132582 -0.0498828 0.998667 -0.0532937 0.0541385 0.99711 
0.0464266 0.0659567 0.996742 -0.0264784 0.0293149 0.999219 -0.227365 -0.0410862 0.972943 
-0.616911 -0.160398 0.770515 0.707452 -0.137964 0.693165 0.305653 0.0202613 0.951927 
0.0940847 0.0995258 0.990577 -0.031386 0.146928 0.988649 -0.0682042 0.163687 0.984152 
0.00527503 0.0267467 0.999628 0.0657917 -0.0626445 0.995865 0.080398 0.0389015 0.996003 
0.0433841 0.0276064 0.998677 -0.0909872 -0.112796 0.989443 -0.33349 -0.246564 0.90994 
-0.745419 -0.412741 0.523446 0.429962 -0.174101 0.885901 0.151664 -0.00410835 0.988424 
0.00197047 0.0412454 0.999147 -0.017262 0.0311971 0.999364 -0.0642054 0.140225 0.988036 
-0.0352239 0.112778 0.992996 0.0295924 0.0699945 0.997108 0.0381193 0.0250175 0.99896 
-0.0984268 -0.118805 0.988027 -0.290069 -0.291548 0.911515 -0.564064 -0.497928 0.658711 
0.604824 -0.454425 0.653977 0.285186 -0.266375 0.920713 0.0392454 -0.059858 0.997435 
0.11071 -0.143421 0.98345 -0.0215889 0.0125471 0.999688 0.0358458 -0.0806331 0.996099 
-0.06205 0.058185 0.996376 -0.0203123 0.0324055 0.999268 -0.116689 -0.103014 0.987812 
-0.282331 -0.325924 0.902254 -0.517745 -0.548286 0.656752 0.469166 -0.597025 0.650726 
0.259691 -0.412208 0.873296 0.135221 -0.299812 0.944366 0.0207615 -0.247395 0.968692 
-0.128759 -0.204138 0.970437 -0.334605 -0.405051 0.850866 -0.523397 -0.634339 0.568919 
0.161057 -0.768956 0.618682 0.0181595 -0.752859 0.657931 -0.162374 -0.81299 0.55918 
0.490893 0.672239 0.554184 0.138292 0.395138 0.908153 0.159653 0.612388 0.774269 
-0.0665525 0.365758 0.928328 -0.0902159 0.606055 0.79029 -0.141549 0.372215 0.917289 
-0.239462 0.671666 0.701087 0.730874 0.482528 0.482689 0.239301 0.365709 0.89944 
0.321028 0.337645 0.884837 0.385004 0.431475 0.815844 -0.14164 0.372552 0.917139 
-0.114453 0.386442 0.915185 -0.180921 0.491231 0.852032 -0.0310762 0.438089 0.898394 
-0.0833704 0.605822 0.79122 0.0667889 0.436296 0.897321 0.037324 0.629277 0.776285 
0.0517314 0.506957 0.860418 0.0266422 0.656929 0.753481 -0.0687526 0.547767 0.833801 
-0.0884606 0.69234 0.716128 -0.292177 0.519104 0.803221 -0.371881 0.742136 0.557618 
0.423996 0.267768 0.865175 0.662661 0.301687 0.685467 -0.391693 0.482723 0.783298 
-0.546643 0.386645 0.742756 -0.610946 0.541007 0.577977 0.5316 0.176463 0.82841 
0.559455 0.162074 0.81286 0.581619 0.181507 0.792953 -0.607848 0.305188 0.733063 
0.591488 0.119948 0.797342 -0.695805 0.120593 0.708034 -0.959789 0.0615801 0.273884 
0.618624 0.0140883 0.785561 -0.75825 -0.0436027 0.650504 -0.979278 -0.129002 0.156119 
0.668142 -0.0780329 0.73993 -0.777923 -0.213742 0.590889 0.737056 -0.150404 0.658883 
0.751763 -0.210901 0.624799 -0.755563 -0.417477 0.504814 -0.751276 -0.427612 0.502726 
0.75281 -0.30898 0.581213 0.848232 -0.358081 0.390232 -0.649409 -0.542669 0.532708 
-0.628845 -0.577359 0.520779 0.67369 -0.486998 0.555855 0.640961 -0.536762 0.548686 
-0.595946 -0.619906 0.510455 -0.586559 -0.638991 0.497634 0.553797 -0.634491 0.539194 
0.502543 -0.672138 0.543766 0.334981 -0.774528 0.536557 -0.390708 -0.826289 0.405702 
-0.564382 -0.676271 0.473424 -0.546707 -0.688902 0.475947 0.269403 -0.809988 0.520905 
0.35267 -0.857908 0.373654 0.180083 -0.825567 0.534798 0.00462304 -0.847973 0.530019 
-0.305576 -0.8667 0.394277 -0.18989 -0.88608 0.422852 0.492337 0.704611 0.511007 
0.194596 0.832193 0.519218 -0.0710707 0.792285 0.605998 -0.0216768 0.956714 0.290222 
-0.259092 0.764375 0.590425 0.532366 0.68028 0.503791 0.738477 0.498689 0.453829 
-0.282991 0.739235 0.611103 -0.28324 0.734109 0.617138 -0.285784 0.752254 0.593668 
-0.127912 0.742161 0.657902 -0.151574 0.834223 0.530186 0.00683849 0.770781 0.637064 
-0.0492867 0.887307 0.458538 -0.00241069 0.820071 0.572257 -0.0984493 0.929483 0.355484 
-0.168492 0.852321 0.495136 -0.399126 0.828398 0.393008 0.751396 0.48191 0.450739 
-0.501791 0.772682 0.388803 -0.665691 0.653825 0.359679 0.859829 0.313669 0.402872 
-0.784215 0.526208 0.328804 0.913418 0.178981 0.365559 -0.92029 0.283424 0.2697 
-0.963576 0.13268 0.2322 0.948988 0.0758232 0.30606 0.998728 0.0342922 -0.0369648 
-0.974569 0.0543739 0.217392 0.966258 -0.0436008 0.25386 -0.979485 -0.129189 0.154661 
-0.979391 -0.130116 0.154478 -0.980905 -0.130769 0.14396 0.956807 -0.16211 0.24133 
-0.950932 -0.285832 0.118439 0.944944 -0.262792 0.194992 -0.877165 -0.475186 0.0691297 
-0.819771 -0.570031 0.0551406 0.906161 -0.403968 0.125232 0.876675 -0.466977 0.115646 
-0.767501 -0.639603 0.0430127 -0.700602 -0.713475 0.0105487 0.822661 -0.557666 0.110625 
0.719249 -0.686 0.109935 -0.67764 -0.735375 -0.00536489 -0.636226 -0.769496 -0.055614 
0.690452 -0.714654 0.112011 0.560849 -0.819274 0.119326 -0.419605 -0.899426 -0.122329 
-0.600608 -0.794421 -0.0903554 -0.557764 -0.822773 -0.109287 -0.488526 -0.777124 -0.396762 
0.451668 -0.884888 0.113887 0.352208 -0.929929 0.105745 0.129083 -0.990301 0.0513986 
-0.076462 -0.996526 -0.0329931 -0.402832 -0.907764 -0.117005 -0.260798 -0.961694 -0.0844373 
-0.00596127 0.982913 0.183976 0.533887 0.841564 0.0820689 0.151947 0.976011 0.155929 
0.267982 0.954281 0.132417 -0.138049 0.965285 0.221735 -0.250548 0.933317 0.257187 
-0.265788 0.897272 0.352504 -0.164488 0.89369 0.417447 -0.0762607 0.925132 0.371907 
-0.137359 0.951418 0.275567 0.704389 0.706667 0.0667685 0.822551 0.566618 0.048511 
-0.217356 0.955196 0.20089 -0.271735 0.950608 0.150013 -0.466538 0.881044 0.0781297 
0.888154 0.457412 0.0442449 -0.656087 0.754055 0.0308361 -0.734106 0.678992 0.00758485 
0.956384 0.291838 0.0126493 -0.870097 0.491243 -0.0401354 0.991198 0.131234 -0.0174436 
0.998133 0.0371801 -0.0484475 -0.969729 0.231251 -0.0784078 -0.982869 0.158781 -0.0935782 
0.998219 0.0327504 -0.0498598 0.998271 0.0126496 -0.0573938 0.997949 0.0320694 -0.0554004 
-0.992498 0.00151565 -0.122255 -0.980747 -0.116794 -0.156508 -0.978622 -0.0102821 -0.20541 
0.992594 -0.0794971 -0.0918548 -0.970013 -0.171301 -0.172427 0.975433 -0.185387 -0.119004 
-0.914623 -0.332896 -0.229446 0.934575 -0.313991 -0.167268 -0.822896 -0.495715 -0.277685 
-0.787205 -0.544412 -0.289697 -0.769921 -0.510176 -0.383331 0.876743 -0.428742 -0.217948 
0.856302 -0.464333 -0.226145 0.834578 -0.441704 -0.329205 -0.688907 -0.647744 -0.325323 
-0.637794 -0.689285 -0.343664 -0.597724 -0.639995 -0.482838 0.793265 -0.557244 -0.245379 
0.716621 -0.654265 -0.241645 0.630016 -0.510464 -0.585241 -0.454225 -0.749812 -0.481104 
-0.556299 -0.734582 -0.388486 -0.530022 -0.745079 -0.404887 -0.499796 -0.724385 -0.474837 
0.672291 -0.700059 -0.240711 0.539983 -0.807376 -0.23783 -0.447208 -0.745908 -0.493585 
-0.413419 -0.751462 -0.514189 -0.375958 -0.672536 -0.637457 0.356416 -0.895761 -0.265668 
0.283967 -0.918397 -0.275518 0.271746 -0.8894 -0.367589 0.026716 -0.936922 -0.348516 
-0.00728622 -0.865748 -0.500428 -0.13534 -0.8914 -0.432539 -0.152968 -0.854018 -0.497246 
-0.259185 -0.832517 -0.489631 -0.258968 -0.832593 -0.489616 -0.258984 -0.83248 -0.489799 
0.0536536 0.975094 -0.215206 0.571469 0.770862 -0.281417 0.13781 0.966096 -0.218326 
0.308989 0.921892 -0.233756 -0.0789965 0.984783 -0.154794 0.0610994 0.957266 -0.282682 
-0.138076 0.982028 -0.128667 -0.187034 0.980887 -0.0536589 -0.164073 0.986398 -0.00999571 
-0.163488 0.98628 -0.022883 -0.237526 0.965961 -0.102477 0.672144 0.68216 -0.287889 
0.809021 0.510065 -0.292093 0.561324 0.663211 -0.495042 -0.346185 0.925443 -0.153982 
-0.264704 0.845098 -0.464479 -0.365643 0.915791 -0.16623 -0.542291 0.797978 -0.262967 
0.843653 0.454599 -0.285638 0.792687 0.450132 -0.411131 -0.641442 0.705552 -0.301245 
-0.537383 0.654447 -0.531901 -0.74788 0.574168 -0.333177 0.910733 0.260378 -0.320577 
0.734234 0.211174 -0.645218 -0.816754 0.457303 -0.351834 -0.739731 0.441055 -0.508201 
0.939875 0.112653 -0.322405 -0.904225 0.200629 -0.376996 0.937567 -0.00206813 -0.347798 
-0.911224 -0.0424353 -0.40972 0.916808 -0.117005 -0.381802 -0.865896 -0.229294 -0.444576 
-0.672065 -0.237608 -0.701335 0.866339 -0.236575 -0.439875 0.677649 -0.263819 -0.686433 
-0.782077 -0.387322 -0.488197 -0.733768 -0.45257 -0.506719 -0.714581 -0.395046 -0.577332 
0.792333 -0.353078 -0.497539 0.760891 -0.396512 -0.513637 0.733133 -0.362167 -0.575631 
-0.258585 -0.417498 -0.871108 -0.642012 -0.525796 -0.557996 -0.551313 -0.592466 -0.5874 
-0.473129 -0.509566 -0.718673 0.693977 -0.43682 -0.57235 0.629216 -0.50972 -0.586747 
0.485504 -0.398292 -0.778235 0.204102 -0.27467 -0.939627 -0.227626 -0.407808 -0.884239 
-0.233191 -0.469851 -0.851388 -0.501223 -0.610786 -0.612957 -0.421108 -0.634743 -0.647896 
-0.369991 -0.561806 -0.739919 0.628862 -0.509901 -0.58697 0.39566 -0.376606 -0.837628 
-0.10944 -0.33362 -0.936334 -0.24015 -0.474852 -0.846666 -0.333938 -0.609577 -0.718958 
-0.299679 -0.54349 -0.784099 -0.346827 -0.63037 -0.694511 -0.344132 -0.62966 -0.696492 
-0.342323 -0.626868 -0.699894 0.478887 -0.630408 -0.610944 0.472589 -0.63537 -0.610709 
0.471413 -0.626296 -0.620905 0.239665 -0.730102 -0.63993 0.218894 -0.570271 -0.791755 
-0.0222384 -0.743525 -0.668338 -0.0284713 -0.554048 -0.831998 -0.213703 -0.706593 -0.67458 
-0.204728 -0.599447 -0.773789 -0.316825 -0.639537 -0.700439 -0.309152 -0.644939 -0.698913 
-0.310257 -0.635038 -0.707438 0.294048 0.667756 -0.683841 0.0831747 0.729445 -0.678964 
-0.07742 0.737793 -0.670572 -0.105716 0.745085 -0.658538 -0.10846 0.751871 -0.650329 
-0.166673 0.747934 -0.642507 0.410972 0.617864 -0.670332 0.515612 0.54007 -0.665183 
0.27036 0.580752 -0.767875 0.0812922 0.520396 -0.850047 -0.0509414 0.522468 -0.851135 
-0.0902181 0.550896 -0.829683 -0.0978613 0.626206 -0.773492 -0.208474 0.732467 -0.648097 
-0.163368 0.69837 -0.696843 -0.241127 0.696986 -0.675328 -0.347804 0.654715 -0.671104 
0.611195 0.404158 -0.680512 0.458495 0.373751 -0.806283 0.205137 0.314199 -0.926929 
0.0453237 0.250719 -0.966998 -0.0936535 0.190808 -0.97715 -0.0713907 0.170218 -0.982817 
-0.0258421 0.196057 -0.980252 -0.0667086 0.30484 -0.950065 -0.125398 0.39882 -0.908415 
-0.443667 0.590656 -0.674007 -0.293407 0.518239 -0.803331 -0.501908 0.529631 -0.683798 
0.712032 0.207506 -0.670784 0.718659 0.180847 -0.671434 0.40859 0.16794 -0.897134 
0.116219 0.106031 -0.987548 -0.0443455 0.0682421 -0.996683 -0.115389 0.0734749 -0.990599 
-0.0891623 0.160152 -0.983057 0.0224238 0.139759 -0.989932 0.0368535 0.140707 -0.989365 
-0.0480094 0.173 -0.983751 -0.17557 0.237022 -0.955508 -0.602007 0.376872 -0.703956 
-0.425764 0.331286 -0.842006 -0.670419 0.184107 -0.718778 0.724742 0.0840401 -0.683876 
0.680772 0.0788635 -0.728237 0.334387 -0.000169606 -0.942436 0.114242 -0.0567138 -0.991833 
0.00851623 -0.034639 -0.999364 -0.000823898 0.0718751 -0.997413 -0.00290565 0.252105 -0.967696 
-0.0459561 0.298799 -0.953209 -0.0319722 0.131105 -0.990853 -0.0229858 0.0868566 -0.995956 
-0.102189 0.0784599 -0.991666 -0.328705 0.110316 -0.937968 -0.673373 0.157454 -0.722342 
-0.661849 0.154971 -0.733443 0.697522 -0.0389404 -0.715505 0.639887 -0.0439713 -0.76721 
0.306777 -0.0767887 -0.948679 0.0945451 -0.0685952 -0.993155 0.0841988 -0.0257217 -0.996117 
-0.100458 -0.00703487 -0.994916 -0.150892 -0.0556122 -0.986985 -0.333407 -0.0807411 -0.939319 
-0.665359 -0.067851 -0.743434 -0.648986 -0.131841 -0.74929 -0.640071 -0.0712474 -0.765005 
0.647231 -0.156738 -0.746006 0.63625 -0.174583 -0.751469 0.632895 -0.157163 -0.758119 
0.320666 -0.16666 -0.932415 0.157497 -0.134812 -0.978274 0.10757 -0.113574 -0.987689 
0.00337903 -0.246353 -0.969174 -0.177208 -0.173988 -0.968672 -0.18644 -0.195369 -0.962845 
-0.594727 -0.237705 -0.767982 -0.3568 -0.228936 -0.905694 0.532334 -0.261812 -0.805031 
0.332553 -0.256168 -0.907627 0.143313 -0.270919 -0.951874 0.0538601 -0.355529 -0.933112 
0.046491 -0.432462 -0.900453 0.138394 -0.163292 -0.976823 0.0695314 -0.143945 -0.98714 
-0.195229 -0.302157 -0.933052 -0.20016 -0.322341 -0.92522 -0.252681 -0.410708 -0.876054 
-0.204601 -0.346495 -0.915467 -0.429061 -0.388928 -0.815256 -0.389313 -0.407724 -0.825952 
-0.378033 -0.384161 -0.842325 0.364332 -0.337919 -0.867798 0.353872 -0.339223 -0.871609 
0.347826 -0.335351 -0.875532 0.169917 -0.279873 -0.94488 0.0847645 -0.302047 -0.949517 
-0.0304792 -0.279107 -0.959776 0.106551 -0.216877 -0.970367 0.26024 -0.253866 -0.931572 
-0.0119063 -0.356964 -0.934042 -0.227263 -0.406227 -0.88506 -0.241834 -0.40784 -0.880445 
-0.244957 -0.408915 -0.879082 -0.200209 -0.406014 -0.891666 -0.193511 -0.374627 -0.906757 
0.138621 -0.156107 -0.977965 0.106122 -0.0945355 -0.989849 0.097457 -0.0636403 -0.993203 
-0.106585 -0.330741 -0.937683 0.0387332 -0.210539 -0.976818 -0.21702 -0.40625 -0.887617 
-0.178116 -0.432819 -0.88371 -0.117183 -0.405137 -0.906715 0.184066 -0.207707 -0.960717 
0.180268 -0.210749 -0.960775 0.179666 -0.204749 -0.962184 -0.0956426 -0.322723 -0.941649 
-0.00822948 -0.268838 -0.96315 -0.00462374 -0.250184 -0.968187 0.124907 0.0384484 -0.991423 
0.0150468 0.212938 -0.97695 -0.0547907 0.25282 -0.965961 -0.128468 0.11134 -0.985444 
0.152358 0.019978 -0.988123 0.163761 0.0277254 -0.98611 0.0615887 -0.173843 -0.982846 
0.122883 -0.0724214 -0.989775 -0.0830327 0.0346199 -0.995945 -0.137472 0.0547927 -0.988989 
-0.167162 0.103381 -0.980494 -0.0419457 -0.138484 -0.989476 -0.0442758 -0.139985 -0.989163 
-0.0443311 -0.140668 -0.989064 -0.0446802 -0.138968 -0.989288 0.121358 -0.17073 -0.977816 
0.111102 -0.153826 -0.981832 0.134274 -0.160203 -0.977909 -0.118322 -0.114589 -0.986341 
-0.130338 -0.172398 -0.976366 -0.0857132 -0.0806805 -0.993048 
