# vtk DataFile Version 4.2
vtk output
ASCII
DATASET POLYDATA
POINTS 544 float
-22.6452 -42.4833 -12.4426 -14.6465 -42.4833 -12.6569 -6.64781 -42.4833 -13.0027 
1.35087 -42.4833 -13.1867 9.34956 -42.4833 -13.1244 17.3482 -42.4833 -13.4881 
25.3469 -42.4833 -12.6714 -38.6425 -34.4846 -11.8331 -30.6439 -34.4846 -15.0611 
-22.6452 -34.4846 -15.3887 -14.6465 -34.4846 -15.5388 -6.64781 -34.4846 -15.3966 
1.35087 -34.4846 -14.9165 9.34956 -34.4846 -15.1343 17.3482 -34.4846 -15.9249 
25.3469 -34.4846 -15.7194 33.3456 -34.4846 -15.4309 41.3443 -34.4846 -12.4537 
-38.6425 -26.4859 -13.1151 -30.6439 -26.4859 -15.2217 -22.6452 -26.4859 -15.6764 
-14.6465 -26.4859 -15.4128 -6.64781 -26.4859 -15.0238 1.35087 -26.4859 -14.4267 
9.34956 -26.4859 -15.5486 17.3482 -26.4859 -16.3944 25.3469 -26.4859 -17.0324 
33.3456 -26.4859 -17.3367 41.3443 -26.4859 -15.4758 49.343 -26.4859 -12.0391 
-38.6425 -18.4872 -13.946 -30.6439 -18.4872 -14.5068 -22.6452 -18.4872 -15.1218 
-14.6465 -18.4872 -14.4706 -6.64781 -18.4872 -13.4833 1.35087 -18.4872 -14.1475 
9.34956 -18.4872 -14.73 17.3482 -18.4872 -16.3485 25.3469 -18.4872 -17.6199 
33.3456 -18.4872 -17.4495 41.3443 -18.4872 -16.0626 49.343 -18.4872 -13.2178 
-38.6425 -10.4886 -12.9708 -30.6439 -10.4886 -13.9888 -22.6452 -10.4886 -13.3594 
-14.6465 -10.4886 -12.8205 -6.64781 -10.4886 -13.6044 1.35087 -10.4886 -19.3445 
9.34956 -10.4886 -15.9267 17.3482 -10.4886 -15.4796 25.3469 -10.4886 -16.7998 
33.3456 -10.4886 -17.3442 41.3443 -10.4886 -16.5393 49.343 -10.4886 -14.4625 
-46.6412 -2.48987 -12.8843 -38.6425 -2.48987 -14.3176 -30.6439 -2.48987 -14.5927 
-22.6452 -2.48987 -13.933 -14.6465 -2.48987 -13.9439 -6.64781 -2.48987 -16.3795 
1.35087 -2.48987 -13.7248 9.34956 -2.48987 -17.4769 17.3482 -2.48987 -14.6844 
25.3469 -2.48987 -16.4563 33.3456 -2.48987 -17.341 41.3443 -2.48987 -17.208 
49.343 -2.48987 -15.2421 57.3416 -2.48987 -11.8278 -46.6412 5.50881 -15.3148 
-38.6425 5.50881 -16.8246 -30.6439 5.50881 -16.6387 -22.6452 5.50881 -15.7406 
-14.6465 5.50881 -14.6713 -6.64781 5.50881 -16.5858 1.35087 5.50881 -16.9516 
9.34956 5.50881 -17.1268 17.3482 5.50881 -15.507 25.3469 5.50881 -17.0935 
33.3456 5.50881 -17.9717 41.3443 5.50881 -18.3141 49.343 5.50881 -15.7998 
57.3416 5.50881 -12.4168 -54.6399 13.5075 -12.2732 -46.6412 13.5075 -15.6625 
-38.6425 13.5075 -18.1444 -30.6439 13.5075 -17.3811 -22.6452 13.5075 -16.3747 
-14.6465 13.5075 -14.9446 -6.64781 13.5075 -15.986 1.35087 13.5075 -16.3687 
9.34956 13.5075 -14.8815 17.3482 13.5075 -16.4407 25.3469 13.5075 -17.7383 
33.3456 13.5075 -18.3607 41.3443 13.5075 -18.447 49.343 13.5075 -15.3979 
57.3416 13.5075 -11.5741 -54.6399 21.5062 -12.3859 -46.6412 21.5062 -16.7184 
-38.6425 21.5062 -17.0665 -30.6439 21.5062 -17.2348 -22.6452 21.5062 -17.1694 
-14.6465 21.5062 -16.4172 -6.64781 21.5062 -16.2028 1.35087 21.5062 -15.5383 
9.34956 21.5062 -16.1372 17.3482 21.5062 -17.0964 25.3469 21.5062 -18.3144 
33.3456 21.5062 -17.925 41.3443 21.5062 -17.029 49.343 21.5062 -14.5488 
-46.6412 29.5049 -12.8902 -38.6425 29.5049 -15.7374 -30.6439 29.5049 -16.7048 
-22.6452 29.5049 -16.7285 -14.6465 29.5049 -17.0534 -6.64781 29.5049 -16.9296 
1.35087 29.5049 -16.3962 9.34956 29.5049 -16.5444 17.3482 29.5049 -16.8431 
25.3469 29.5049 -17.0566 33.3456 29.5049 -16.6829 41.3443 29.5049 -14.7355 
49.343 29.5049 -11.9212 -38.6425 37.5035 -11.9558 -30.6439 37.5035 -14.405 
-22.6452 37.5035 -15.2037 -14.6465 37.5035 -15.9449 -6.64781 37.5035 -15.8823 
1.35087 37.5035 -15.4722 9.34956 37.5035 -15.221 17.3482 37.5035 -14.9124 
25.3469 37.5035 -14.5496 33.3456 37.5035 -12.7459 -22.6452 -43.5924 -11.5149 
-14.6465 -44.2967 -11.5149 -6.64781 -45.3087 -11.5149 1.35087 -45.8387 -11.5149 
9.34956 -45.6759 -11.5149 9.34956 -50.482 -3.69374 17.3482 -45.1578 -11.5149 
25.3469 -44.0166 -11.5149 -38.6425 -35.5145 -11.5149 -38.6425 -42.4833 -7.70457 
-28.1498 -42.4833 -11.5149 -30.6439 -41.88 -11.5149 -30.6439 -42.4833 -10.9948 
30.6144 -42.4833 -11.5149 33.3456 -41.7157 -11.5149 33.3456 -42.4833 -10.7749 
41.3443 -36.0599 -11.5149 41.3443 -42.4833 -3.60696 -39.6151 -34.4846 -11.5149 
-46.6412 -34.4846 -8.60991 42.8553 -34.4846 -11.5149 49.343 -27.5995 -11.5149 
49.343 -34.4846 -4.25269 -44.0349 -26.4859 -11.5149 -46.6412 -26.4859 -10.5079 
49.9606 -26.4859 -11.5149 -54.6399 -18.4872 -5.35576 -43.6824 -18.4872 -11.5149 
-46.6412 -18.4872 -9.80627 52.2487 -18.4872 -11.5149 57.3416 -18.4872 -7.0643 
-54.6399 -10.4886 -8.16916 -44.469 -10.4886 -11.5149 -46.6412 -8.02923 -11.5149 
-46.6412 -10.4886 -10.9912 54.7052 -10.4886 -11.5149 57.3416 -4.04995 -11.5149 
57.3416 -10.4886 -9.54241 -50.2591 -2.48987 -11.5149 -54.6399 -2.48987 -9.32439 
57.7061 -2.48987 -11.5149 -53.9842 5.50881 -11.5149 -54.6399 8.54656 -11.5149 
-54.6399 5.50881 -11.0546 58.298 5.50881 -11.5149 -55.6771 13.5075 -11.5149 
57.4086 13.5075 -11.5149 57.3416 13.8301 -11.5149 -55.65 21.5062 -11.5149 
-54.6399 23.4739 -11.5149 54.4737 21.5062 -11.5149 57.3416 21.5062 -8.58523 
-49.0103 29.5049 -11.5149 -54.6399 29.5049 -5.77834 -46.6412 32.3478 -11.5149 
41.3443 35.2726 -11.5149 49.8246 29.5049 -11.5149 49.343 30.0031 -11.5149 
-39.8131 37.5035 -11.5149 -46.6412 37.5035 -6.68266 -38.6425 38.1309 -11.5149 
-30.6439 43.1488 -11.5149 -22.6452 43.4607 -11.5149 -14.6465 44.3479 -11.5149 
-6.64781 44.6507 -11.5149 1.35087 44.5945 -11.5149 9.34956 44.2221 -11.5149 
17.3482 42.9368 -11.5149 25.3469 42.0803 -11.5149 36.8204 37.5035 -11.5149 
33.3456 38.8032 -11.5149 41.3443 37.5035 -8.42536 -30.6439 45.5022 -7.22131 
-22.6452 45.5022 -8.81799 -14.6465 45.5022 -9.94851 -6.64781 45.5022 -10.6222 
1.35087 45.5022 -10.6716 9.34956 45.5022 -10.3751 17.3482 45.5022 -8.52453 
25.3469 45.5022 -4.18226 9.34956 -50.5389 -3.51623 -38.6425 -44.533 -3.51623 
-30.6439 -47.4046 -3.51623 -22.6452 -48.0626 -3.51623 -14.6465 -48.8565 -3.51623 
-6.64781 -49.3876 -3.51623 7.92959 -50.482 -3.51623 1.35087 -50.2158 -3.51623 
10.5122 -50.482 -3.51623 9.34956 -50.482 -3.3305 17.3482 -50.1349 -3.51623 
25.3469 -49.4437 -3.51623 33.3456 -46.9077 -3.51623 41.3443 -42.523 -3.51623 
-42.0494 -42.4833 -3.51623 -46.6412 -38.9495 -3.51623 41.3979 -42.4833 -3.51623 
41.3443 -42.4833 -3.37672 49.343 -34.9576 -3.51623 -50.3557 -34.4846 -3.51623 
49.7452 -34.4846 -3.51623 49.343 -34.4846 -1.55958 -54.1896 -26.4859 -3.51623 
-54.6399 -25.2411 -3.51623 -54.6399 -26.4859 -2.33907 54.7925 -26.4859 -3.51623 
57.3416 -22.1961 -3.51623 -56.3114 -18.4872 -3.51623 59.2714 -18.4872 -3.51623 
-58.8592 -10.4886 -3.51623 61.4159 -10.4886 -3.51623 -59.7896 -2.48987 -3.51623 
62.8644 -2.48987 -3.51623 -61.8942 5.50881 -3.51623 63.5496 5.50881 -3.51623 
-62.4481 13.5075 -3.51623 62.512 13.5075 -3.51623 -60.1985 21.5062 -3.51623 
59.9225 21.5062 -3.51623 57.3416 25.9383 -3.51623 -55.8971 29.5049 -3.51623 
-54.6399 31.2231 -3.51623 -54.6399 29.5049 3.71132 54.7685 29.5049 -3.51623 
49.343 34.4697 -3.51623 -48.7016 37.5035 -3.51623 -46.6412 39.0515 -3.51623 
-46.6412 37.5035 3.64529 -38.6425 43.8099 -3.51623 33.3456 43.0888 -3.51623 
44.8531 37.5035 -3.51623 41.3443 39.491 -3.51623 -33.8075 45.5022 -3.51623 
-30.6439 46.5423 -3.51623 -30.6439 45.5022 0.917104 -22.6452 47.7268 -3.51623 
-22.6452 45.5022 3.69057 -14.6465 48.2359 -3.51623 -6.64781 49.1344 -3.51623 
1.35087 49.2558 -3.51623 9.34956 49.2446 -3.51623 17.3482 47.9142 -3.51623 
25.9816 45.5022 -3.51623 25.3469 45.708 -3.51623 25.3469 45.5022 -2.51102 
-38.6425 -42.9105 4.48245 -30.6439 -44.6179 4.48245 -22.6452 -44.6324 4.48245 
-14.6465 -45.0601 4.48245 -6.64781 -45.7936 4.48245 1.35087 -46.4913 4.48245 
9.34956 -46.9857 4.48245 17.3482 -46.7269 4.48245 25.3469 -45.7077 4.48245 
33.3456 -44.4696 4.48245 -39.6322 -42.4833 4.48245 -46.6412 -38.9047 4.48245 
-38.6425 -42.4833 5.1299 -30.6439 -42.4833 7.52664 -22.6452 -42.4833 7.57488 
-14.6465 -42.4833 7.4362 -6.64781 -42.4833 7.70231 1.35087 -42.4833 7.92246 
9.34956 -42.4833 8.11432 17.3482 -42.4833 7.94668 25.3469 -42.4833 8.00107 
37.2673 -42.4833 4.48245 33.3456 -42.4833 6.86728 41.3443 -39.566 4.48245 
-51.097 -34.4846 4.48245 -54.6399 -29.4725 4.48245 -46.6412 -34.4846 10.9923 
9.34956 -34.4846 12.1494 17.3482 -34.4846 12.1296 25.3469 -34.4846 12.3067 
33.3456 -34.4846 11.1181 47.5309 -34.4846 4.48245 41.3443 -34.4846 10.1243 
49.343 -32.7343 4.48245 -56.3154 -26.4859 4.48245 -54.6399 -26.4859 8.76008 
54.0383 -26.4859 4.48245 49.343 -26.4859 10.3519 57.3416 -21.6374 4.48245 
-58.8566 -18.4872 4.48245 -54.6399 -18.4872 12.3444 49.343 -18.4872 12.4706 
59.0533 -18.4872 4.48245 57.3416 -18.4872 7.16364 -61.0708 -10.4886 4.48245 
61.6003 -10.4886 4.48245 57.3416 -10.4886 10.7943 -61.9901 -2.48987 4.48245 
9.34956 -2.48987 12.4236 17.3482 -2.48987 12.4641 63 -2.48987 4.48245 
-62.564 5.50881 4.48245 63.6205 5.50881 4.48245 -61.6116 13.5075 4.48245 
-54.6399 13.5075 12.0724 61.7715 13.5075 4.48245 57.3416 13.5075 10.5672 
-58.5932 21.5062 4.48245 -54.6399 29.2236 4.48245 -54.6399 21.5062 10.663 
59.4962 21.5062 4.48245 57.3416 24.7978 4.48245 57.3416 21.5062 7.48329 
-54.4534 29.5049 4.48245 -46.6412 37.2467 4.48245 -46.6412 29.5049 10.6433 
53.6187 29.5049 4.48245 49.343 33.4279 4.48245 49.343 29.5049 9.51397 
-46.2393 37.5035 4.48245 -38.6425 41.1698 4.48245 -38.6425 37.5035 8.43666 
-30.6439 44.3437 4.48245 -30.6439 37.5035 10.4734 -22.6452 45.1568 4.48245 
-22.6452 37.5035 10.9501 -14.6465 37.5035 11.2312 -6.64781 37.5035 11.245 
1.35087 37.5035 11.6641 17.3482 37.5035 12.0531 25.3469 43.7334 4.48245 
25.3469 37.5035 10.995 33.3456 41.2871 4.48245 33.3456 37.5035 9.47914 
42.7295 37.5035 4.48245 41.3443 38.2252 4.48245 41.3443 37.5035 5.67012 
-17.7337 45.5022 4.48245 -14.6465 45.666 4.48245 -14.6465 45.5022 4.69332 
-6.64781 45.9709 4.48245 -6.64781 45.5022 5.09394 1.35087 46.2974 4.48245 
1.35087 45.5022 5.51872 9.34956 46.5183 4.48245 9.34956 45.5022 5.88091 
19.4475 45.5022 4.48245 17.3482 46.0169 4.48245 17.3482 45.5022 5.20079 
-38.6425 -35.6514 12.4811 -30.6439 -37.6058 12.4811 -22.6452 -37.809 12.4811 
[...]
POINT_DATA 544
SCALARS ImageScalars float
LOOKUP_TABLE default
0 0 0 0 0 0 0 0 0 
0 0 0 0 0 0 0 0 0 
0 0 0 0 0 0 0 0 0 
0 0 0 0 0 0 0 0 0 
0 0 0 0 0 0 0 0 0 
0 0 0 0 0 0 0 0 0 
0 0 0 0 0 0 0 0 0 
0 0 0 0 0 0 0 0 0 
0 0 0 0 0 0 0 0 0 
0 0 0 0 0 0 0 0 0 
0 0 0 0 0 0 0 0 0 
0 0 0 0 0 0 0 0 0 
0 0 0 0 0 0 0 0 0 
0 0 0 0 0 0 0 0 0 
0 0 0 0 0 0 0 0 0 
0 0 0 0 0 0 0 0 0 
0 0 0 0 0 0 0 0 0 
0 0 0 0 0 0 0 0 0 
0 0 0 0 0 0 0 0 0 
0 0 0 0 0 0 0 0 0 
0 0 0 0 0 0 0 0 0 
0 0 0 0 0 0 0 0 0 
0 0 0 0 0 0 0 0 0 
0 0 0 0 0 0 0 0 0 
0 0 0 0 0 0 0 0 0 
0 0 0 0 0 0 0 0 0 
0 0 0 0 0 0 0 0 0 
0 0 0 0 0 0 0 0 0 
0 0 0 0 0 0 0 0 0 
0 0 0 0 0 0 0 0 0 
0 0 0 0 0 0 0 0 0 
0 0 0 0 0 0 0 0 0 
0 0 0 0 0 0 0 0 0 
0 0 0 0 0 0 0 0 0 
0 0 0 0 0 0 0 0 0 
0 0 0 0 0 0 0 0 0 
0 0 0 0 0 0 0 0 0 
0 0 0 0 0 0 0 0 0 
0 0 0 0 0 0 0 0 0 
0 0 0 0 0 0 0 0 0 
0 0 0 0 0 0 0 0 0 
0 0 0 0 0 0 0 0 0 
0 0 0 0 0 0 0 0 0 
0 0 0 0 0 0 0 0 0 
0 0 0 0 0 0 0 0 0 
0 0 0 0 0 0 0 0 0 
0 0 0 0 0 0 0 0 0 
0 0 0 0 0 0 0 0 0 
0 0 0 0 0 0 0 0 0 
0 0 0 0 0 0 0 0 0 
0 0 0 0 0 0 0 0 0 
0 0 0 0 0 0 0 0 0 
0 0 0 0 0 0 0 0 0 
0 0 0 0 0 0 0 0 0 
0 0 0 0 0 0 0 0 0 
0 0 0 0 0 0 0 0 0 
0 0 0 0 0 0 0 0 0 
0 0 0 0 0 0 0 0 0 
0 0 0 0 0 0 0 0 0 
0 0 0 0 0 0 0 0 0 
0 0 0 0 
NORMALS Normals float
0.0905154 0.569691 0.816859 0.0348667 0.488369 0.87194 0.0330467 0.414496 0.909451 
0.00784432 0.367726 0.929901 0.0128921 0.384286 0.923124 -0.014503 0.470272 0.882402 
-0.134163 0.516472 0.845729 0.382958 0.209996 0.89958 0.178245 0.202035 0.963022 
0.0319542 0.160279 0.986554 0.000746033 0.161382 0.986892 -0.0410262 0.130021 0.990662 
-0.013371 0.0793301 0.996759 0.0571952 0.152536 0.986642 0.042013 0.146866 0.988264 
-0.0307995 0.223764 0.974157 -0.152647 0.315989 0.936403 -0.452314 0.44358 0.773724 
0.293393 0.13049 0.947044 0.146777 -0.0333627 0.988607 0.0112796 -0.0172138 0.999788 
-0.0406865 -0.0659644 0.996992 -0.0624167 -0.11067 0.991895 0.0328197 -0.0508676 0.998166 
0.124241 -0.0239045 0.991964 0.0925099 0.0232289 0.995441 0.0573145 0.110172 0.992259 
-0.105152 0.13614 0.985093 -0.304048 0.172978 0.936821 -0.607861 0.276754 0.744253 
0.259758 -0.0136613 0.965577 0.0780366 -0.0761888 0.994035 -0.00259094 -0.138002 0.990429 
-0.0953228 -0.159842 0.982529 -0.0211108 -0.0960762 0.99515 0.0763467 0.21122 0.974452 
0.139217 0.00404115 0.990254 0.172221 -0.0561929 0.983454 0.0715315 -0.0149859 0.997326 
-0.0931342 0.000318535 0.995654 -0.227992 0.0680003 0.971286 -0.449531 0.148032 0.880913 
0.174738 0.0138634 0.984517 0.0271733 0.00548481 0.999616 -0.075344 -0.0774122 0.994148 
0.000145445 -0.0660823 0.997814 0.345491 0.170093 0.922878 0.0856345 0.153917 0.984366 
-0.20561 0.157402 0.965893 0.0614449 -0.100574 0.99303 0.114413 -0.0683747 0.991077 
-0.0154675 -0.00666487 0.999858 -0.160655 0.0693494 0.984571 -0.377898 0.112664 0.918967 
0.256126 0.28496 0.923687 0.0952209 0.231465 0.968172 -0.0241791 0.166074 0.985817 
-0.041205 0.138415 0.989517 0.154954 0.147042 0.976918 -0.0100539 0.160913 0.986917 
0.0166567 -0.172974 0.984786 -0.0419317 0.0715841 0.996553 0.00455146 -0.00261317 0.999986 
0.16011 0.0183253 0.986929 0.0466666 0.0391518 0.998143 -0.131342 0.10843 0.985389 
-0.323154 0.0747093 0.943393 -0.618557 0.127722 0.77529 0.298727 0.14926 0.942594 
0.0898524 0.233925 0.968094 -0.0620842 0.172336 0.98308 -0.12559 0.155091 0.979885 
0.0307095 0.0453143 0.998501 0.164292 -0.030856 0.985929 0.0351863 0.115556 0.992678 
-0.101908 -0.184535 0.977528 0.0299266 0.110777 0.993395 0.145675 0.079752 0.986113 
0.0747102 0.0634421 0.995185 -0.124942 0.0728556 0.989486 -0.338539 0.00971173 0.940902 
-0.629523 -0.0132794 0.776868 0.520049 0.0751942 0.85082 0.309915 0.0739526 0.947884 
0.104603 0.0151412 0.994399 -0.107545 0.0367701 0.99352 -0.150178 0.0847824 0.985017 
-0.0271731 0.109542 0.993611 0.0934456 -0.01591 0.995497 -0.0788466 -0.0859396 0.993176 
0.0163006 -0.0190083 0.999686 0.176038 0.0920249 0.980073 0.118552 0.0751412 0.990101 
0.0438753 -0.00271581 0.999033 -0.189525 -0.0785127 0.978732 -0.389205 -0.0628172 0.919007 
-0.635956 -0.129205 0.760832 0.602538 -0.199973 0.772631 0.283844 -0.125656 0.950602 
0.0279152 -0.158037 0.987039 0.00612577 -0.0413302 0.999127 -0.0514573 0.0222761 0.998427 
-0.0597953 0.129491 0.989776 -0.0538187 0.0572021 0.996911 -0.00419329 0.00770633 0.999961 
0.095622 0.104146 0.989955 0.135923 0.0252373 0.990398 0.0508245 -0.0425119 0.997802 
-0.0763545 -0.0968859 0.992362 -0.175269 -0.216693 0.960377 -0.428594 -0.211888 0.8783 
0.443199 -0.401593 0.801435 0.192531 -0.253675 0.947935 0.0687356 -0.17781 0.981661 
0.0212991 -0.111827 0.993499 0.0128821 -0.0221553 0.999672 -0.0400867 -0.0118893 0.999125 
-0.023401 0.00195451 0.999724 0.028033 -0.0481225 0.998448 0.0317042 -0.122342 0.991982 
-0.00786256 -0.223836 0.974595 -0.140924 -0.264504 0.954032 -0.27342 -0.376897 0.88498 
-0.536565 -0.493844 0.684264 0.314562 -0.555751 0.76954 0.167279 -0.38248 0.908695 
0.0943161 -0.334111 0.937803 0.0407711 -0.310336 0.949752 -0.0261034 -0.319796 0.947127 
-0.0366149 -0.303518 0.952122 -0.0313935 -0.281724 0.958982 -0.0405965 -0.366487 0.929537 
-0.105054 -0.457853 0.882799 -0.264017 -0.618439 0.740154 0.102164 0.634428 0.766201 
0.0687432 0.585378 0.807841 0.0587967 0.578081 0.813858 0.013437 0.571157 0.820731 
-0.0242505 0.562574 0.826391 -0.00518057 0.999767 0.0209608 -0.0636174 0.607241 0.791966 
-0.150653 0.591142 0.792373 0.392023 0.256696 0.883417 0.472476 0.746122 0.469114 
0.146237 0.612053 0.777178 0.171016 0.592165 0.787461 0.17423 0.649259 0.740342 
-0.210762 0.625591 0.751142 -0.241421 0.636905 0.732167 -0.266377 0.698292 0.664403 
-0.465815 0.489341 0.737266 -0.572389 0.816996 0.0699203 0.389567 0.230386 0.891717 
0.562827 0.438222 0.700847 -0.488486 0.465894 0.737784 -0.622431 0.309033 0.719082 
-0.77286 0.608452 0.180206 0.413184 0.0642171 0.90838 0.494687 0.0374039 0.868266 
-0.634716 0.287109 0.717429 0.70204 0.266672 0.660323 0.399293 0.00613446 0.916803 
0.482395 0.0448299 0.874806 -0.552005 0.199398 0.809649 -0.806962 0.352069 0.474194 
0.593413 0.197013 0.780415 0.241115 0.125323 0.962371 0.26618 0.208917 0.941011 
0.271031 0.171056 0.94725 -0.555982 0.163711 0.814913 -0.625872 0.135227 0.768113 
-0.706143 0.180456 0.684688 0.413538 0.24578 0.876686 0.632087 0.164901 0.757148 
-0.636806 0.126366 0.760599 0.556297 0.132302 0.820384 0.561172 0.111391 0.82017 
0.589372 0.133205 0.796804 -0.675555 -0.0149568 0.737158 0.574746 0.0660362 0.815663 
-0.639143 -0.128991 0.758193 -0.637788 -0.138218 0.757709 0.643186 -0.20945 0.736507 
0.616559 -0.26809 0.740259 -0.581108 -0.32608 0.745644 -0.740027 -0.409784 0.533326 
0.504699 -0.420616 0.753897 0.763343 -0.568166 0.307399 0.465437 -0.465679 0.752669 
-0.377262 -0.631804 0.677124 -0.562002 -0.498284 0.660202 -0.548331 -0.508013 0.664271 
0.338468 -0.567648 0.750476 0.573928 -0.743213 0.343862 0.326726 -0.577809 0.747922 
0.197043 -0.670391 0.715367 0.0481401 -0.688954 0.723205 0.0472972 -0.735832 0.675511 
0.00993523 -0.664941 0.74683 -0.0143163 -0.618854 0.785376 -0.0641528 -0.650565 0.756736 
-0.0820783 -0.651605 0.754105 -0.181407 -0.697264 0.69348 -0.338202 -0.671348 0.659478 
-0.297544 -0.676663 0.673494 -0.445992 -0.791941 0.417038 0.231164 -0.92282 0.308166 
0.0663189 -0.897405 0.436195 0.0592904 -0.85834 0.509644 0.0215161 -0.749675 0.661456 
-0.00947921 -0.708792 0.705353 -0.0761109 -0.770784 0.632534 -0.16212 -0.876659 0.452975 
-0.287069 -0.953589 0.0908772 -0.00455902 0.999963 0.00732732 0.447502 0.885658 0.123904 
0.219096 0.972512 0.078854 0.0912286 0.995772 0.0107083 0.0851991 0.996138 -0.0212344 
0.0875616 0.995597 -0.033463 0.00920154 0.999956 0.00173721 0.071871 0.997199 -0.0207076 
-0.0135929 0.999866 0.00914699 -0.00417448 0.999978 -0.00518599 -0.0673211 0.997454 0.0235086 
-0.200021 0.979334 0.029932 -0.379223 0.921657 0.082092 -0.572033 0.817753 0.0637019 
0.544614 0.81802 0.185038 0.692163 0.657915 0.296746 -0.573249 0.816881 0.0639655 
-0.572704 0.817927 0.0548192 -0.776189 0.616976 0.129889 0.819189 0.490567 0.297109 
-0.783594 0.606873 0.132989 -0.771139 0.636665 0.00163794 0.783115 0.348747 0.514886 
0.782236 0.343021 0.520042 0.822223 0.375624 0.427617 -0.853027 0.478079 0.209249 
-0.868545 0.434585 0.238253 0.79063 0.274348 0.547392 -0.893101 0.373418 0.250858 
0.837284 0.192345 0.511819 -0.92787 0.222204 0.299469 0.848701 0.176908 0.498407 
-0.943816 0.133931 0.302115 0.925556 0.138339 0.352433 -0.950615 -0.0274528 0.309157 
0.970662 -0.112384 0.212568 -0.952063 -0.204163 0.227801 0.926426 -0.3403 0.161033 
-0.877859 -0.437405 0.195042 -0.814463 -0.547019 0.193442 0.808504 -0.568695 0.151353 
0.782655 -0.60351 0.152406 0.769122 -0.532429 -0.353512 -0.750013 -0.636646 0.179336 
-0.637805 -0.754357 0.155407 0.635974 -0.762362 0.119758 0.590796 -0.799132 0.111122 
0.526145 -0.764758 -0.371909 0.411056 -0.909423 0.0631038 -0.361006 -0.928843 0.0832163 
-0.533273 -0.836543 0.12576 -0.454775 -0.884492 0.104177 0.303913 -0.952267 0.0287201 
0.238507 -0.970871 0.0228863 0.230098 -0.937625 -0.260602 0.104143 -0.994012 0.0330678 
0.0685371 -0.880595 -0.468887 0.0877048 -0.99585 0.0243171 0.0651216 -0.997307 0.0337245 
0.00710252 -0.999143 0.0407715 -0.0848067 -0.994231 0.0656695 -0.21383 -0.972689 0.0902907 
-0.295615 -0.95399 0.0501487 -0.290692 -0.955549 0.049247 -0.290904 -0.956731 -0.00636437 
0.281128 0.871441 -0.401942 0.107987 0.872872 -0.475849 0.0228615 0.849144 -0.527666 
0.0579148 0.80448 -0.591149 0.0686234 0.788424 -0.611293 0.0567023 0.764329 -0.642329 
0.0110062 0.765855 -0.642919 -0.0573147 0.767552 -0.63842 -0.128201 0.774117 -0.619925 
-0.284424 0.818202 -0.499648 0.311773 0.865957 -0.391044 0.574981 0.77181 -0.27149 
0.279637 0.860195 -0.426461 0.10014 0.802641 -0.587996 -0.0044488 0.782868 -0.622172 
0.00844995 0.733314 -0.679838 0.0230899 0.679 -0.733775 0.0216749 0.626478 -0.779138 
0.000908942 0.581122 -0.813816 -0.00721215 0.591308 -0.806414 -0.0552212 0.646757 -0.760695 
-0.393181 0.759582 -0.518116 -0.2804 0.686195 -0.671202 -0.50559 0.71047 -0.489501 
0.741404 0.645645 -0.182926 0.86665 0.491013 -0.0884489 0.455906 0.611847 -0.646369 
-0.0363571 0.333171 -0.942165 0.00844005 0.332629 -0.94302 -0.0616456 0.302951 -0.95101 
-0.10425 0.395703 -0.912442 -0.61316 0.651573 -0.44664 -0.360392 0.543229 -0.758301 
-0.659519 0.624821 -0.417891 0.907242 0.414923 -0.0689249 0.820821 0.417301 -0.390016 
-0.775197 0.532916 -0.339221 -0.528305 0.439747 -0.726304 -0.831466 0.458064 -0.314389 
0.95389 0.297232 -0.0418002 0.710197 0.188497 -0.678299 -0.34935 0.206595 -0.913933 
-0.861561 0.407057 -0.303344 -0.771596 0.40653 -0.489258 0.979454 0.187137 -0.0751642 
-0.92907 0.242909 -0.278971 -0.637409 0.219717 -0.738535 0.992741 0.0900801 -0.0796981 
-0.52999 0.221176 -0.818652 0.0808652 -0.0203729 -0.996517 -0.944894 0.128872 -0.300945 
0.973656 -0.0124781 -0.227679 -0.945637 -0.0728986 -0.31695 0.910688 -0.21405 -0.353312 
0.603493 -0.116437 -0.788821 -0.895941 -0.244263 -0.370978 -0.631689 -0.234161 -0.739011 
0.84665 -0.374756 -0.377812 0.755508 -0.51367 -0.406632 0.649502 -0.319202 -0.690114 
-0.835604 -0.433603 -0.337273 -0.783323 -0.517408 -0.344521 -0.726248 -0.422016 -0.542647 
0.749255 -0.520435 -0.40959 0.510076 -0.744374 -0.430964 0.459172 -0.47639 -0.74981 
-0.69319 -0.634284 -0.342304 -0.603241 -0.720774 -0.341446 -0.551772 -0.54311 -0.632913 
0.497865 -0.750875 -0.433956 0.336774 -0.806238 -0.486378 0.270083 -0.696431 -0.66486 
0.202161 -0.836464 -0.509371 0.123065 -0.607967 -0.784367 0.0625795 -0.845247 -0.530698 
0.0394301 -0.564336 -0.824603 0.0155202 -0.502477 -0.864451 0.0242056 -0.464972 -0.884995 
0.0744329 -0.464593 -0.88239 -0.0820418 -0.51642 -0.852396 -0.25085 -0.857265 -0.449634 
-0.118168 -0.63751 -0.761326 -0.297074 -0.869057 -0.395585 -0.209956 -0.732225 -0.647893 
-0.431444 -0.834593 -0.342506 -0.396775 -0.851118 -0.343755 -0.394364 -0.828588 -0.397389 
0.0496582 -0.844044 -0.53397 0.0423147 -0.840836 -0.539634 0.0419905 -0.83472 -0.549071 
0.0382984 -0.82165 -0.568705 0.0385776 -0.802918 -0.59484 0.0313163 -0.837062 -0.546211 
0.0335785 -0.805907 -0.591088 -0.0195677 -0.854742 -0.518684 -0.0152564 -0.815977 -0.577882 
-0.176722 -0.871278 -0.457869 -0.147485 -0.871689 -0.467339 -0.144025 -0.852362 -0.502728 
0.181518 0.610406 -0.771009 0.0908423 0.60642 -0.789938 -0.0348314 0.600798 -0.798642 
-0.0678052 0.570691 -0.818361 -0.0577824 0.523134 -0.850289 -0.0681547 0.411362 -0.908921 
0.289804 0.584919 -0.757551 0.41097 0.527085 -0.743831 0.169756 0.569371 -0.804363 
0.0532271 0.52192 -0.851332 -0.0336799 0.492054 -0.869913 -0.0670094 0.507875 -0.85882 
-0.0694012 0.493649 -0.866888 -0.0564432 0.368095 -0.928074 -0.0739042 0.398563 -0.914159 
-0.0444367 0.296742 -0.953923 0.0123307 0.287747 -0.957627 -0.0561143 0.28927 -0.955602 
-0.0876786 0.325732 -0.941388 -0.203515 0.275508 -0.939509 0.590333 0.367476 -0.718657 
0.387391 0.326979 -0.861982 0.122127 0.310285 -0.942766 0.00818773 0.273308 -0.961892 
-0.0387939 0.242737 -0.969316 -0.0493284 0.215079 -0.97535 -0.113624 0.234282 -0.965506 
-0.181311 0.225917 -0.957125 -0.090427 0.135233 -0.986679 0.0220014 0.123535 -0.992096 
0.013073 0.173576 -0.984734 -0.0891385 0.26334 -0.960576 -0.23132 0.262327 -0.936843 
-0.183787 0.235237 -0.954403 0.697943 0.185675 -0.691665 0.699837 0.181652 -0.690819 
0.345315 0.146478 -0.926985 0.148932 0.0997777 -0.983801 -0.0120786 0.0985605 -0.995058 
-0.118195 0.0423681 -0.992086 -0.0734976 -0.0114632 -0.99723 -0.0772228 -0.053871 -0.995557 
-0.201289 0.0989453 -0.974522 -0.14192 0.00413162 -0.98987 0.0435066 -0.00288438 -0.999049 
0.0922673 0.0480077 -0.994576 -0.0238918 0.104931 -0.994192 -0.34821 0.206171 -0.914463 
-0.176388 0.153048 -0.97235 -0.348608 0.206274 -0.914289 0.694841 0.12864 -0.707564 
0.629657 0.116661 -0.768064 0.279892 0.06784 -0.957632 0.0547743 0.013471 -0.998408 
-0.0612513 -0.0395161 -0.99734 -0.140099 -0.0259635 -0.989797 -0.147058 0.0559955 -0.987542 
-0.00689668 0.1145 -0.993399 -0.0763613 0.0632912 -0.995069 -0.519994 0.205243 -0.829145 
-0.252834 -0.0629086 -0.965462 0.0808421 -0.0214717 -0.996496 0.0850934 -0.114178 -0.989809 
0.123113 -0.0752257 -0.989537 0.0224428 -0.0165059 -0.999612 -0.0587712 0.0705332 -0.995777 
-0.471471 0.204021 -0.857957 -0.281158 0.195521 -0.939533 -0.560932 0.118478 -0.81934 
0.685688 -0.00921197 -0.727838 0.556377 -0.0265142 -0.830507 0.22564 -0.0850623 -0.97049 
0.052194 -0.0662723 -0.996436 -0.0527773 -0.0561037 -0.997029 -0.0124982 -0.039242 -0.999152 
0.120903 0.126701 -0.984545 -0.0981179 0.288211 -0.952527 -0.53193 0.221418 -0.817327 
-0.245542 -0.00250697 -0.969383 -0.52977 0.232152 -0.815751 0.0819487 -0.0206105 -0.996423 
0.0787398 -0.0152928 -0.996778 0.19464 -0.0280558 -0.980474 0.118287 0.00157556 -0.992978 
0.0231833 0.0311075 -0.999247 -0.223237 0.0691419 -0.972309 -0.569836 0.100972 -0.815532 
-0.557519 0.10026 -0.824087 0.599769 -0.132801 -0.789076 0.584585 -0.116123 -0.802979 
0.550502 -0.142797 -0.822531 0.252755 -0.113766 -0.960819 0.085646 -0.0910272 -0.992159 
-0.0346426 -0.0400832 -0.998596 0.0183307 -0.0270646 -0.999466 0.126613 -0.136144 -0.982565 
-0.127749 -0.168933 -0.977314 -0.115505 0.0727177 -0.990642 -0.256296 0.20303 -0.945035 
-0.0820812 0.348082 -0.933864 0.123811 0.194956 -0.972966 0.0677177 0.0806978 -0.994436 
0.00996745 0.038406 -0.999213 -0.214143 -0.0762847 -0.973819 -0.573626 -0.0837152 -0.814828 
-0.551328 -0.131123 -0.82392 -0.536034 -0.0826811 -0.840138 0.576166 -0.111422 -0.809703 
0.304228 -0.12589 -0.944244 0.134506 -0.112627 -0.984491 0.0116048 -0.0814776 -0.996608 
-0.08994 -0.0488929 -0.994746 -0.00105307 -0.123118 -0.992392 0.0927858 -0.160374 -0.982686 
0.0933402 0.0129616 -0.99555 -0.0491499 -0.0873691 -0.994963 -0.137825 0.248202 -0.958854 
-0.0639814 0.197773 -0.978157 -0.039839 0.0938699 -0.994787 -0.129883 -0.0433859 -0.99058 
-0.475353 -0.212743 -0.853686 -0.339647 -0.185074 -0.922165 0.502192 -0.318198 -0.804085 
0.368267 -0.401144 -0.838727 0.303935 -0.31522 -0.899033 0.142352 -0.186661 -0.972056 
0.0351519 -0.191794 -0.980806 -0.0280638 -0.166791 -0.985593 -0.0116012 -0.146335 -0.989167 
0.0341682 -0.196066 -0.979995 0.0408904 -0.21255 -0.976294 0.0509495 -0.246069 -0.967912 
0.0342803 -0.116606 -0.992587 -0.060802 -0.065893 -0.995973 -0.164368 -0.067391 -0.984094 
-0.261515 -0.166719 -0.950692 -0.393446 -0.237695 -0.888089 -0.393745 -0.241547 -0.886916 
-0.390957 -0.235788 -0.889695 0.343622 -0.435162 -0.8322 0.241356 -0.496733 -0.833669 
0.235887 -0.405812 -0.882992 0.0935231 -0.506086 -0.857397 0.0358586 -0.363138 -0.931045 
0.0141792 -0.483507 -0.875225 -0.0352624 -0.333348 -0.942144 -0.00398993 -0.430158 -0.902745 
-0.036045 -0.321275 -0.9463 0.0249822 -0.404105 -0.914371 0.0280873 -0.328409 -0.944118 
0.0682341 -0.421204 -0.904396 0.0422324 -0.322359 -0.945675 0.0430419 -0.300292 -0.952876 
-0.066949 -0.492742 -0.867596 0.0457579 -0.346812 -0.936818 -0.0795418 -0.566107 -0.820485 
-0.0148776 -0.385939 -0.922404 -0.175824 -0.577971 -0.796891 -0.150847 -0.390285 -0.908253 
-0.362751 -0.441299 -0.820772 -0.319031 -0.475287 -0.819952 -0.310144 -0.42024 -0.852766 
0.0334395 -0.437079 -0.898801 -0.0124679 -0.460133 -0.887762 0.020472 -0.44523 -0.895182 
0.0226932 -0.433476 -0.900879 
