# vtk DataFile Version 4.2
vtk output
ASCII
DATASET POLYDATA
POINTS 566 float
-29.4886 -47.9975 -17.542 -20.3738 -47.9975 -17.0237 -11.259 -47.9975 -17.379 
-2.14413 -47.9975 -16.9493 -38.6035 -38.8827 -17.4332 -29.4886 -38.8827 -19.0058 
-20.3738 -38.8827 -19.2593 -11.259 -38.8827 -19.3031 -2.14413 -38.8827 -18.9108 
6.9707 -38.8827 -18.7968 16.0855 -38.8827 -19.0391 25.2004 -38.8827 -19.1368 
34.3152 -38.8827 -17.0489 -38.6035 -29.7678 -17.976 -29.4886 -29.7678 -19.0967 
-20.3738 -29.7678 -19.5604 -11.259 -29.7678 -19.6506 -2.14413 -29.7678 -18.9093 
6.9707 -29.7678 -19.2304 16.0855 -29.7678 -21.2293 25.2004 -29.7678 -22.2144 
34.3152 -29.7678 -21.9328 43.43 -29.7678 -19.7894 -47.7183 -20.653 -16.713 
-38.6035 -20.653 -18.747 -29.4886 -20.653 -19.7119 -20.3738 -20.653 -19.7036 
-11.259 -20.653 -19.5954 -2.14413 -20.653 -18.7635 6.9707 -20.653 -19.1807 
16.0855 -20.653 -21.8024 25.2004 -20.653 -23.0178 34.3152 -20.653 -23.3927 
43.43 -20.653 -22.2378 52.5449 -20.653 -19.6313 -47.7183 -11.5382 -16.8686 
-38.6035 -11.5382 -19.5644 -29.4886 -11.5382 -20.5696 -20.3738 -11.5382 -19.9964 
-11.259 -11.5382 -22.0053 -2.14413 -11.5382 -24.0141 6.9707 -11.5382 -21.0656 
16.0855 -11.5382 -20.7435 25.2004 -11.5382 -22.075 34.3152 -11.5382 -23.1845 
43.43 -11.5382 -22.8748 52.5449 -11.5382 -21.5428 61.6597 -11.5382 -17.6192 
-47.7183 -2.42333 -17.8366 -38.6035 -2.42333 -20.9295 -29.4886 -2.42333 -21.7678 
-20.3738 -2.42333 -21.5827 -11.259 -2.42333 -21.2103 -2.14413 -2.42333 -18.0334 
6.9707 -2.42333 -23.0832 16.0855 -2.42333 -21.1355 25.2004 -2.42333 -20.8995 
34.3152 -2.42333 -22.2685 43.43 -2.42333 -22.8091 52.5449 -2.42333 -22.0374 
61.6597 -2.42333 -18.6729 -47.7183 6.69151 -17.6801 -38.6035 6.69151 -20.9549 
-29.4886 6.69151 -21.6061 -20.3738 6.69151 -21.2583 -11.259 6.69151 -22.4011 
-2.14413 6.69151 -21.6013 6.9707 6.69151 -24.5429 16.0855 6.69151 -22.6404 
25.2004 6.69151 -21.086 34.3152 6.69151 -22.086 43.43 6.69151 -22.4349 
52.5449 6.69151 -21.7418 61.6597 6.69151 -18.4933 -38.6035 15.8063 -19.6666 
-29.4886 15.8063 -20.1007 -20.3738 15.8063 -19.4182 -11.259 15.8063 -19.4861 
-2.14413 15.8063 -20.2124 6.9707 15.8063 -19.5973 16.0855 15.8063 -20.4408 
25.2004 15.8063 -21.3107 34.3152 15.8063 -21.8915 43.43 15.8063 -21.5419 
52.5449 15.8063 -19.7419 -38.6035 24.9212 -18.5543 -29.4886 24.9212 -19.6314 
-20.3738 24.9212 -19.7092 -11.259 24.9212 -19.8602 -2.14413 24.9212 -20.676 
6.9707 24.9212 -20.5532 16.0855 24.9212 -20.7434 25.2004 24.9212 -21.3121 
34.3152 24.9212 -21.3797 43.43 24.9212 -20.9535 52.5449 24.9212 -17.5604 
-29.4886 34.036 -19.0712 -20.3738 34.036 -19.9027 -11.259 34.036 -20.3907 
-2.14413 34.036 -20.9682 6.9707 34.036 -20.9994 16.0855 34.036 -21.1284 
25.2004 34.036 -20.4967 34.3152 34.036 -19.8554 43.43 34.036 -17.2749 
-29.4886 43.1508 -16.858 -20.3738 43.1508 -17.7272 -11.259 43.1508 -18.9405 
-2.14413 43.1508 -19.656 6.9707 43.1508 -19.4897 16.0855 43.1508 -18.5248 
25.2004 43.1508 -16.7581 -29.4886 -49.5095 -16.5805 -20.3738 -48.8755 -16.5805 
-20.3738 -57.1123 -7.90708 -11.259 -49.382 -16.5805 -11.259 -57.1123 -8.39409 
-2.14413 -48.6165 -16.5805 -32.0869 -47.9975 -16.5805 -38.6035 -41.3133 -16.5805 
-38.6035 -47.9975 -13.3494 1.78526 -47.9975 -16.5805 6.9707 -46.5416 -16.5805 
6.9707 -47.9975 -16.0999 16.0855 -44.6855 -16.5805 16.0855 -47.9975 -14.8543 
25.2004 -43.1263 -16.5805 25.2004 -47.9975 -11.2276 34.3152 -39.4186 -16.5805 
-40.502 -38.8827 -16.5805 -47.7183 -38.8827 -12.603 35.2638 -38.8827 -16.5805 
43.43 -33.8984 -16.5805 43.43 -38.8827 -9.34922 -56.8331 -29.7678 -8.41141 
-42.7123 -29.7678 -16.5805 -47.7183 -21.3762 -16.5805 -47.7183 -29.7678 -14.6173 
49.6187 -29.7678 -16.5805 52.5449 -26.8894 -16.5805 52.5449 -29.7678 -14.0615 
-47.9531 -20.653 -16.5805 -56.8331 -20.653 -10.0485 57.8886 -20.653 -16.5805 
61.6597 -14.6031 -16.5805 61.6597 -20.653 -13.3567 -48.277 -11.5382 -16.5805 
-56.8331 -11.5382 -11.3286 63.298 -11.5382 -16.5805 70.7745 -11.5382 -8.34518 
-49.783 -2.42333 -16.5805 -56.8331 -2.42333 -11.3989 65.5588 -2.42333 -16.5805 
70.7745 -2.42333 -10.4797 -49.3977 6.69151 -16.5805 -56.8331 6.69151 -10.5206 
-47.7183 14.871 -16.5805 65.3366 6.69151 -16.5805 61.6597 13.0806 -16.5805 
70.7745 6.69151 -10.4728 -56.8331 15.8063 -9.16167 -47.3919 15.8063 -16.5805 
-47.7183 15.8063 -16.4491 59.7715 15.8063 -16.5805 61.6597 15.8063 -15.481 
-56.8331 24.9212 -7.91213 -44.1746 24.9212 -16.5805 -47.7183 24.9212 -15.1405 
-38.6035 32.7523 -16.5805 54.203 24.9212 -16.5805 52.5449 26.7279 -16.5805 
61.6597 24.9212 -9.13921 -47.7183 34.036 -12.9945 -37.6923 34.036 -16.5805 
-38.6035 34.036 -16.2667 34.3152 39.5954 -16.5805 44.7853 34.036 -16.5805 
43.43 35.0801 -16.5805 52.5449 34.036 -9.68055 -30.3556 43.1508 -16.5805 
-38.6035 43.1508 -13.1494 -29.4886 43.5792 -16.5805 -20.3738 45.0401 -16.5805 
-11.259 47.1928 -16.5805 -2.14413 48.2253 -16.5805 6.9707 47.7791 -16.5805 
16.0855 46.0714 -16.5805 25.884 43.1508 -16.5805 25.2004 43.3687 -16.5805 
34.3152 43.1508 -13.2897 -20.3738 52.2657 -9.71751 -11.259 52.2657 -10.5947 
-2.14413 52.2657 -11.0984 6.9707 52.2657 -10.0294 -20.3738 -57.3023 -7.46564 
-11.259 -57.5516 -7.46564 -38.6035 -54.1636 -7.46564 -23.2974 -57.1123 -7.46564 
-29.4886 -56.6883 -7.46564 -20.3738 -57.1123 -6.97248 -6.0443 -57.1123 -7.46564 
-11.259 -57.1123 -5.95742 -2.14413 -56.77 -7.46564 6.9707 -56.0645 -7.46564 
16.0855 -54.1835 -7.46564 25.2004 -50.4475 -7.46564 -46.6732 -47.9975 -7.46564 
-47.7183 -46.9338 -7.46564 -47.7183 -47.9975 -5.39079 30.0221 -47.9975 -7.46564 
34.3152 -45.7272 -7.46564 43.43 -39.8546 -7.46564 -55.6091 -38.8827 -7.46564 
-56.8331 -33.7953 -7.46564 -56.8331 -38.8827 -5.20495 44.9931 -38.8827 -7.46564 
52.5449 -33.8615 -7.46564 -57.7571 -29.7678 -7.46564 57.8871 -29.7678 -7.46564 
61.6597 -26.1379 -7.46564 -59.8082 -20.653 -7.46564 66.5799 -20.653 -7.46564 
70.7745 -12.7852 -7.46564 -60.911 -11.5382 -7.46564 71.2656 -11.5382 -7.46564 
-60.7454 -2.42333 -7.46564 -65.948 -2.42333 1.61645 72.236 -2.42333 -7.46564 
-59.6007 6.69151 -7.46564 72.1906 6.69151 -7.46564 70.7745 10.666 -7.46564 
-58.3554 15.8063 -7.46564 68.656 15.8063 -7.46564 -57.211 24.9212 -7.46564 
-56.8331 26.319 -7.46564 62.9346 24.9212 -7.46564 61.6597 26.5517 -7.46564 
-54.3713 34.036 -7.46564 -56.8331 34.036 -3.45735 -47.7183 42.3986 -7.46564 
43.43 42.0708 -7.46564 54.537 34.036 -7.46564 52.5449 35.7067 -7.46564 
-46.9176 43.1508 -7.46564 -47.7183 43.1508 -6.56218 -38.6035 49.1171 -7.46564 
-29.4886 51.9065 -7.46564 16.0855 52.0682 -7.46564 25.2004 49.6822 -7.46564 
41.3713 43.1508 -7.46564 34.3152 46.5655 -7.46564 -27.7769 52.2657 -7.46564 
-29.4886 52.2657 -5.13824 -20.3738 53.5958 -7.46564 -11.259 53.9181 -7.46564 
-2.14413 53.9752 -7.46564 14.7658 52.2657 -7.46564 6.9707 53.4109 -7.46564 
-47.7183 -50.5503 1.6492 -38.6035 -53.3487 1.6492 -29.4886 -55.0887 1.6492 
-20.3738 -52.7292 1.6492 -11.259 -53.0277 1.6492 -2.14413 -51.8754 1.6492 
6.9707 -53.3802 1.6492 16.0855 -52.5826 1.6492 25.2004 -50.56 1.6492 
-50.7797 -47.9975 1.6492 -56.8331 -42.0424 1.6492 -47.7183 -47.9975 5.6905 
-38.6035 -47.9975 8.57646 -29.4886 -47.9975 7.784 -20.3738 -47.9975 6.38329 
-11.259 -47.9975 4.54557 -2.14413 -47.9975 4.09391 6.9707 -47.9975 5.87947 
16.0855 -47.9975 7.71773 30.8672 -47.9975 1.6492 25.2004 -47.9975 6.01238 
34.3152 -46.4212 1.6492 43.43 -40.807 1.6492 -59.2158 -38.8827 1.6492 
-56.8331 -38.8827 8.37201 -11.259 -38.8827 8.82011 -2.14413 -38.8827 8.26458 
6.9707 -38.8827 10.7522 46.5789 -38.8827 1.6492 43.43 -38.8827 6.8891 
52.5449 -34.9656 1.6492 -63.3995 -29.7678 1.6492 59.6479 -29.7678 1.6492 
61.6597 -28.0236 1.6492 -65.2453 -20.653 1.6492 68.2597 -20.653 1.6492 
70.7745 -15.516 1.6492 -65.6924 -11.5382 1.6492 -65.948 -2.93513 1.6492 
72.3491 -11.5382 1.6492 70.7745 -11.5382 6.20703 -65.9618 -2.42333 1.6492 
-65.948 -2.31885 1.6492 -65.948 -2.42333 1.95213 73.9248 -2.42333 1.6492 
70.7745 -2.42333 9.7187 -64.6019 6.69151 1.6492 73.4649 6.69151 1.6492 
70.7745 13.2376 1.6492 70.7745 6.69151 8.82114 -63.7151 15.8063 1.6492 
69.626 15.8063 1.6492 -61.9664 24.9212 1.6492 63.8718 24.9212 1.6492 
61.6597 27.6942 1.6492 61.6597 24.9212 6.50944 -59.3031 34.036 1.6492 
-56.8331 38.8542 1.6492 43.43 41.8704 1.6492 55.1709 34.036 1.6492 
52.5449 36.085 1.6492 52.5449 34.036 6.17393 -53.738 43.1508 1.6492 
-47.7183 47.7706 1.6492 -38.6035 51.7808 1.6492 16.0855 50.9891 1.6492 
25.2004 48.778 1.6492 40.3681 43.1508 1.6492 34.3152 45.6915 1.6492 
34.3152 43.1508 7.57517 -35.4186 52.2657 1.6492 -29.4886 53.1214 1.6492 
-29.4886 52.2657 5.14213 -20.3738 54.3991 1.6492 -20.3738 52.2657 9.29134 
-11.259 54.2749 1.6492 -11.259 52.2657 7.66739 -2.14413 53.9891 1.6492 
-2.14413 52.2657 6.74951 10.0722 52.2657 1.6492 6.9707 52.9004 1.6492 
6.9707 52.2657 3.24413 -47.7183 -44.2924 10.764 -38.6035 -45.8728 10.764 
-29.4886 -44.3719 10.764 -20.3738 -40.8796 10.764 16.0855 -44.0381 10.764 
25.2004 -44.2886 10.764 34.3152 -41.3213 10.764 -55.2909 -38.8827 10.764 
-56.8331 -37.2463 10.764 -47.7183 -38.8827 14.673 -38.6035 -38.8827 15.716 
-29.4886 -38.8827 14.6117 -17.3881 -38.8827 10.764 -20.3738 -38.8827 11.9302 
-11.259 -33.0697 10.764 -2.14413 -31.0034 10.764 7.005 -38.8827 10.764 
6.9707 -38.8514 10.764 16.0855 -38.8827 13.6979 25.2004 -38.8827 14.4561 
39.7164 -38.8827 10.764 34.3152 -38.8827 13.3109 43.43 -37.1612 10.764 
52.5449 -31.8348 10.764 -61.1802 -29.7678 10.764 -56.8331 -29.7678 14.9402 
-47.7183 -29.7678 18.062 -38.6035 -29.7678 19.2036 -29.4886 -29.7678 18.1363 
-20.3738 -29.7678 15.892 -11.259 -29.7678 12.1074 -2.14413 -29.7678 11.1679 
6.9707 -29.7678 14.207 16.0855 -29.7678 16.7436 25.2004 -29.7678 17.7241 
34.3152 -29.7678 18.5235 43.43 -29.7678 16.8084 55.3411 -29.7678 10.764 
52.5449 -29.7678 13.2349 61.6597 -23.9644 10.764 -63.8242 -20.653 10.764 
-56.8331 -20.653 18.9584 -20.3738 -20.653 18.4857 -11.259 -20.653 16.4862 
-2.14413 -20.653 15.813 6.9707 -20.653 15.9902 16.0855 -20.653 17.8639 
25.2004 -20.653 19.3448 52.5449 -20.653 18.4924 64.4587 -20.653 10.764 
[...]
POINT_DATA 566
SCALARS ImageScalars float
LOOKUP_TABLE default
0 0 0 0 0 0 0 0 0 
0 0 0 0 0 0 0 0 0 
0 0 0 0 0 0 0 0 0 
0 0 0 0 0 0 0 0 0 
0 0 0 0 0 0 0 0 0 
0 0 0 0 0 0 0 0 0 
0 0 0 0 0 0 0 0 0 
0 0 0 0 0 0 0 0 0 
0 0 0 0 0 0 0 0 0 
0 0 0 0 0 0 0 0 0 
0 0 0 0 0 0 0 0 0 
0 0 0 0 0 0 0 0 0 
0 0 0 0 0 0 0 0 0 
0 0 0 0 0 0 0 0 0 
0 0 0 0 0 0 0 0 0 
0 0 0 0 0 0 0 0 0 
0 0 0 0 0 0 0 0 0 
0 0 0 0 0 0 0 0 0 
0 0 0 0 0 0 0 0 0 
0 0 0 0 0 0 0 0 0 
0 0 0 0 0 0 0 0 0 
0 0 0 0 0 0 0 0 0 
0 0 0 0 0 0 0 0 0 
0 0 0 0 0 0 0 0 0 
0 0 0 0 0 0 0 0 0 
0 0 0 0 0 0 0 0 0 
0 0 0 0 0 0 0 0 0 
0 0 0 0 0 0 0 0 0 
0 0 0 0 0 0 0 0 0 
0 0 0 0 0 0 0 0 0 
0 0 0 0 0 0 0 0 0 
0 0 0 0 0 0 0 0 0 
0 0 0 0 0 0 0 0 0 
0 0 0 0 0 0 0 0 0 
0 0 0 0 0 0 0 0 0 
0 0 0 0 0 0 0 0 0 
0 0 0 0 0 0 0 0 0 
0 0 0 0 0 0 0 0 0 
0 0 0 0 0 0 0 0 0 
0 0 0 0 0 0 0 0 0 
0 0 0 0 0 0 0 0 0 
0 0 0 0 0 0 0 0 0 
0 0 0 0 0 0 0 0 0 
0 0 0 0 0 0 0 0 0 
0 0 0 0 0 0 0 0 0 
0 0 0 0 0 0 0 0 0 
0 0 0 0 0 0 0 0 0 
0 0 0 0 0 0 0 0 0 
0 0 0 0 0 0 0 0 0 
0 0 0 0 0 0 0 0 0 
0 0 0 0 0 0 0 0 0 
0 0 0 0 0 0 0 0 0 
0 0 0 0 0 0 0 0 0 
0 0 0 0 0 0 0 0 0 
0 0 0 0 0 0 0 0 0 
0 0 0 0 0 0 0 0 0 
0 0 0 0 0 0 0 0 0 
0 0 0 0 0 0 0 0 0 
0 0 0 0 0 0 0 0 0 
0 0 0 0 0 0 0 0 0 
0 0 0 0 0 0 0 0 0 
0 0 0 0 0 0 0 0 0 
0 0 0 0 0 0 0 0 
NORMALS Normals float
-0.152317 -0.388577 -0.908739 0.0142398 -0.347312 -0.937642 0.00291384 -0.359018 -0.933326 
0.0638358 -0.378871 -0.923245 -0.308464 -0.201338 -0.929684 -0.115465 -0.0966105 -0.988602 
-0.0148249 -0.120386 -0.992616 0.0190524 -0.110149 -0.993733 0.0275159 -0.0916049 -0.995415 
-0.00661579 -0.148394 -0.988906 -0.0178539 -0.300333 -0.953667 0.0833262 -0.438704 -0.89476 
0.319522 -0.621203 -0.715551 -0.218626 -0.0796911 -0.972549 -0.0837527 -0.0381561 -0.995756 
-0.0301737 -0.0240875 -0.999254 0.0359907 -0.0157738 -0.999228 0.0230766 0.00687747 -0.99971 
-0.125569 -0.0204767 -0.991874 -0.163458 -0.145242 -0.9758 -0.0393826 -0.203583 -0.978265 
0.114037 -0.29842 -0.947597 0.333004 -0.452276 -0.827378 -0.401536 -0.0999329 -0.910375 
-0.165794 -0.0822019 -0.982728 -0.0543185 -0.0797825 -0.995331 0.00639722 -0.0240324 -0.999691 
0.0457178 -0.112509 -0.992598 0.024843 -0.265511 -0.963788 -0.160464 -0.0965503 -0.982308 
-0.213003 0.0236085 -0.976766 -0.083732 0.00817304 -0.996455 0.0406154 -0.0603009 -0.997354 
0.18646 -0.141742 -0.972184 0.373969 -0.310047 -0.874081 -0.381422 -0.0560369 -0.922701 
-0.192018 -0.121201 -0.973879 -0.0221947 -0.1139 -0.993244 -0.063187 -0.100518 -0.992927 
-0.223644 -0.0955392 -0.969977 0.0626619 -0.00493495 -0.998023 0.163967 -0.202804 -0.965394 
-0.0580705 0.0398513 -0.997517 -0.129534 0.116325 -0.984728 -0.0439905 0.0617517 -0.997122 
0.0847922 -0.030678 -0.995926 0.27657 -0.120074 -0.953463 0.490647 -0.200884 -0.847886 
-0.438738 -0.0422076 -0.897623 -0.195535 -0.0738577 -0.977912 -0.0356273 -0.056627 -0.99776 
0.030966 -0.0709493 -0.996999 0.149945 -0.0254243 -0.988367 -0.0737193 0.134205 -0.988208 
-0.137465 -0.194983 -0.971126 0.121737 -0.10699 -0.986779 -0.0665125 0.0550696 -0.996265 
-0.103438 0.0598593 -0.992833 0.00996248 0.024071 -0.999661 0.218561 -0.00956797 -0.975776 
0.423326 -0.0424116 -0.904984 -0.469927 0.0696661 -0.879952 -0.189798 0.0660176 -0.979601 
-0.0171632 0.0932751 -0.995492 -0.042378 0.119609 -0.991916 -0.0242267 0.0935467 -0.99532 
-0.106651 -0.0822332 -0.99089 -0.0618173 0.211317 -0.975461 0.193306 0.063033 -0.979112 
0.0188109 -0.0225452 -0.999569 -0.0735307 0.0206235 -0.99708 0.0164055 0.0683502 -0.997527 
0.214012 0.122072 -0.969174 0.418111 0.133079 -0.898595 -0.184924 0.128063 -0.974373 
0.0146086 0.103241 -0.994549 0.0337869 0.0846894 -0.995834 -0.0425366 0.13787 -0.989537 
-0.00664399 0.0454262 -0.998946 -0.0154433 0.184624 -0.982688 -0.0936081 0.0896984 -0.99156 
-0.0791468 -0.0123405 -0.996787 -0.0132244 0.0377745 -0.999199 0.111237 0.075988 -0.990884 
0.269372 0.217046 -0.938259 -0.228977 0.176748 -0.957251 -0.059563 0.0596313 -0.996442 
-0.0124581 -0.0262217 -0.999579 -0.052944 -0.0485402 -0.997417 -0.0385539 -0.0401301 -0.99845 
-0.00368172 -0.0736023 -0.997281 -0.0424339 -0.0404332 -0.998281 -0.0348387 0.0419337 -0.998513 
0.0166323 0.0995778 -0.994891 0.202485 0.225918 -0.95287 0.425013 0.352643 -0.83367 
-0.179831 0.148479 -0.972427 -0.0773568 0.0950685 -0.992461 -0.0566301 0.0498863 -0.997148 
-0.0334287 0.0569284 -0.997818 -0.00947206 0.0579908 -0.998272 0.0246671 0.111936 -0.993409 
0.0685292 0.211307 -0.975014 0.174751 0.344356 -0.922432 0.347825 0.474392 -0.808684 
-0.197278 0.448866 -0.871551 -0.119436 0.391644 -0.912332 -0.0981578 0.348447 -0.932175 
-0.0309366 0.348869 -0.936661 0.0618707 0.372223 -0.926079 0.131398 0.462354 -0.876906 
0.214609 0.562187 -0.798679 -0.161654 -0.458141 -0.874057 0.0105172 -0.387002 -0.922019 
-0.0485499 -0.997544 -0.0504837 0.00957069 -0.429156 -0.90318 0.0304696 -0.989165 -0.143614 
0.066748 -0.411273 -0.909065 -0.218975 -0.41032 -0.885261 -0.332699 -0.267595 -0.90427 
-0.44989 -0.522351 -0.724395 0.0782913 -0.40715 -0.91 0.0805816 -0.391813 -0.916509 
0.101876 -0.458957 -0.882598 0.0795873 -0.457583 -0.885598 0.176026 -0.612229 -0.770838 
0.178177 -0.567513 -0.803854 0.369584 -0.802572 -0.46828 0.331255 -0.634979 -0.697905 
-0.332286 -0.212773 -0.918865 -0.461458 -0.296719 -0.836071 0.339847 -0.636372 -0.692485 
0.402701 -0.605202 -0.686704 0.497787 -0.802358 -0.329287 -0.68123 -0.162277 -0.713857 
-0.296884 -0.14081 -0.944475 -0.401576 -0.10971 -0.909231 -0.41067 -0.211055 -0.887021 
0.45737 -0.555342 -0.694556 0.477414 -0.498357 -0.723683 0.528479 -0.632036 -0.56678 
-0.408362 -0.0994003 -0.907392 -0.652935 -0.112567 -0.749003 0.528983 -0.385832 -0.755851 
0.536524 -0.286638 -0.793713 0.653488 -0.48105 -0.584418 -0.395456 -0.0551933 -0.916825 
-0.653899 -0.0615288 -0.754076 0.539245 -0.227585 -0.810814 0.894729 -0.249295 -0.370555 
-0.490531 -0.0278482 -0.870978 -0.687418 0.0319236 -0.72556 0.564777 -0.0664079 -0.822568 
0.886883 -0.0635788 -0.457599 -0.515469 0.0697082 -0.854068 -0.729574 0.0897147 -0.677992 
-0.453929 0.112847 -0.883863 0.548568 0.172305 -0.818159 0.499802 0.293406 -0.81493 
0.875562 0.183965 -0.446708 -0.744948 0.105372 -0.658748 -0.44188 0.118852 -0.889166 
-0.452774 0.118166 -0.88376 0.483004 0.322967 -0.813879 0.560827 0.367068 -0.742115 
-0.75428 0.164726 -0.635552 -0.364022 0.172461 -0.915284 -0.45995 0.162833 -0.872887 
-0.301605 0.235323 -0.923936 0.462329 0.381172 -0.800599 0.45192 0.408984 -0.79278 
0.730161 0.552276 -0.402314 -0.496948 0.314503 -0.808783 -0.299841 0.233601 -0.924946 
-0.312827 0.245815 -0.91745 0.256686 0.546038 -0.797468 0.378861 0.497489 -0.780365 
0.362912 0.509852 -0.779966 0.605497 0.695165 -0.387451 -0.214535 0.45275 -0.865443 
-0.403265 0.510697 -0.759319 -0.199999 0.46762 -0.861006 -0.128694 0.462907 -0.877015 
-0.102152 0.538339 -0.836514 -0.0190784 0.610596 -0.791712 0.0801707 0.611173 -0.787427 
0.160306 0.593463 -0.788736 0.22263 0.571146 -0.790081 0.217433 0.57131 -0.791409 
0.348739 0.750333 -0.561588 -0.120895 0.883599 -0.452368 -0.0419971 0.901685 -0.430349 
0.0120503 0.912018 -0.409972 0.100253 0.94135 -0.322194 -0.0456498 -0.998726 -0.0214877 
0.029158 -0.995863 -0.0860608 -0.410669 -0.867078 -0.282003 -0.0759911 -0.993563 -0.084012 
-0.146263 -0.964786 -0.21862 -0.0417958 -0.999126 0.000269186 0.0573782 -0.995244 -0.0787256 
0.0231972 -0.9995 0.0214766 0.0799825 -0.994266 -0.0709823 0.141135 -0.975571 -0.168352 
0.272904 -0.937212 -0.217158 0.422835 -0.866448 -0.265478 -0.610624 -0.644124 -0.460697 
-0.611213 -0.616776 -0.495991 -0.617801 -0.710913 -0.336043 0.463065 -0.845694 -0.265277 
0.488858 -0.829765 -0.269274 0.509243 -0.822227 -0.254194 -0.770564 -0.36155 -0.524893 
-0.750533 -0.261064 -0.60708 -0.82934 -0.41988 -0.36864 0.516257 -0.817033 -0.25678 
0.570585 -0.775997 -0.268817 -0.706921 -0.187303 -0.682041 0.629384 -0.723632 -0.283255 
0.688042 -0.651539 -0.319524 -0.729182 -0.118715 -0.673943 0.769139 -0.538456 -0.344224 
0.898878 -0.286102 -0.331908 -0.777981 -0.0364681 -0.627229 0.911135 -0.245733 -0.330829 
-0.784137 0.0568308 -0.61798 -0.978553 0.0551791 -0.198469 0.944857 -0.0489168 -0.323811 
-0.794876 0.101431 -0.598234 0.936976 0.176064 -0.30179 0.91366 0.27576 -0.298633 
-0.781089 0.109581 -0.614729 0.852405 0.411704 -0.322345 -0.764526 0.165835 -0.622895 
-0.762423 0.186164 -0.61972 0.758885 0.567076 -0.320184 0.742026 0.589335 -0.319501 
-0.721326 0.320354 -0.614054 -0.837882 0.345139 -0.422887 -0.556094 0.590888 -0.584475 
0.48433 0.841425 -0.239642 0.640667 0.711177 -0.289436 0.612853 0.73802 -0.282379 
-0.543918 0.611509 -0.574639 -0.559703 0.631937 -0.536085 -0.366535 0.790182 -0.491187 
-0.206468 0.901934 -0.379323 0.200575 0.966525 -0.159996 0.285154 0.940908 -0.1827 
0.46146 0.858617 -0.223228 0.382152 0.902854 -0.197014 -0.185233 0.911669 -0.366808 
-0.193095 0.945377 -0.262633 -0.106542 0.939484 -0.325606 -0.0204459 0.964233 -0.264268 
0.0274253 0.974662 -0.221995 0.186005 0.969177 -0.161549 0.101813 0.977323 -0.185673 
-0.498615 -0.855476 0.139802 -0.21785 -0.921543 0.321403 0.0118855 -0.888221 0.459262 
0.0897813 -0.808511 0.581592 0.0265814 -0.687296 0.725891 -0.0236555 -0.673763 0.738569 
-0.00951033 -0.816059 0.577891 0.131223 -0.895942 0.424344 0.317194 -0.916312 0.244457 
-0.589675 -0.798596 0.12053 -0.783096 -0.620308 0.0444782 -0.465622 -0.828312 0.311601 
-0.0519099 -0.7607 0.647025 0.0928223 -0.649969 0.754271 0.16545 -0.575488 0.8009 
0.101509 -0.498943 0.86067 -0.0639061 -0.523206 0.849807 -0.172883 -0.572538 0.801443 
-0.0432449 -0.724189 0.688244 0.411932 -0.888539 0.202018 0.249937 -0.846915 0.469325 
0.462379 -0.868938 0.176499 0.504931 -0.856578 0.106389 -0.84858 -0.529035 -0.00577412 
-0.697085 -0.591872 0.404673 0.180121 -0.399383 0.898916 -0.0921432 -0.372806 0.923323 
-0.292909 -0.406581 0.865388 0.529268 -0.842475 0.100554 0.458162 -0.827677 0.324097 
0.579079 -0.810903 0.0842829 -0.948366 -0.303341 -0.0926581 0.64651 -0.759168 0.0754194 
0.684717 -0.725132 0.0731108 -0.980462 -0.121762 -0.154494 0.829818 -0.55087 0.089136 
0.915273 -0.389591 0.102439 -0.98215 -0.035517 -0.184717 -0.97926 0.0499544 -0.196351 
0.956139 -0.277088 0.0949761 0.909478 -0.271165 0.31515 -0.97884 0.0551177 -0.197066 
-0.978755 0.0557477 -0.197311 -0.981897 0.0547356 -0.181333 0.99513 -0.0554606 0.0814899 
0.862758 -0.045883 0.503531 -0.967868 0.110213 -0.226018 0.971106 0.220839 0.0904561 
0.917241 0.37791 0.125907 0.855254 0.228352 0.465183 -0.953171 0.144236 -0.265822 
0.889414 0.438357 0.129562 -0.948967 0.212471 -0.233061 0.787147 0.603241 0.128452 
0.751875 0.645557 0.13394 0.731396 0.597002 0.32962 -0.900607 0.376864 -0.216521 
-0.835769 0.520967 -0.173449 0.431268 0.880317 0.197612 0.634492 0.758633 0.147973 
0.600323 0.784442 0.155764 0.579994 0.748659 0.321118 -0.71063 0.68647 -0.154155 
-0.520633 0.837527 -0.165802 -0.265154 0.964081 -0.0155251 0.223289 0.926517 0.302835 
0.274513 0.914564 0.297009 0.397706 0.893438 0.208804 0.345997 0.908027 0.236162 
0.289837 0.849609 0.440635 -0.221786 0.975012 0.0127217 -0.14442 0.987833 0.0576955 
-0.130925 0.972617 0.192027 -0.0595322 0.994451 0.0867413 -0.0261719 0.914235 0.404338 
0.0227312 0.990149 0.138162 0.0449038 0.931643 0.36059 0.0731325 0.984525 0.159254 
0.0933456 0.932285 0.349472 0.178493 0.953834 0.24154 0.153281 0.964341 0.215757 
0.169185 0.946615 0.274401 -0.344419 -0.690091 0.636515 -0.00674831 -0.65976 0.751446 
0.147649 -0.567234 0.810213 0.287379 -0.438315 0.851641 -0.139435 -0.554903 0.820147 
0.11654 -0.647204 0.753356 0.296362 -0.728604 0.617499 -0.583189 -0.581808 0.566913 
-0.639306 -0.54803 0.539399 -0.279067 -0.458394 0.843799 0.00177027 -0.423043 0.906108 
0.173553 -0.465868 0.867667 0.272363 -0.416642 0.867311 0.302918 -0.434718 0.848092 
0.209031 -0.390611 0.896509 -0.103483 -0.343313 0.933503 -0.292538 -0.406526 0.865539 
-0.292953 -0.406004 0.865644 -0.171598 -0.420801 0.890776 0.00476961 -0.475025 0.879959 
0.357327 -0.755232 0.549493 0.226403 -0.660756 0.715642 0.38975 -0.756482 0.525195 
0.504266 -0.726381 0.466997 -0.805445 -0.380705 0.454226 -0.525798 -0.408685 0.745998 
-0.198435 -0.320691 0.926165 -0.00901956 -0.29883 0.954264 0.157976 -0.287947 0.944526 
0.287917 -0.311326 0.905638 0.229046 -0.389106 0.892264 -0.102521 -0.345852 0.932671 
-0.297286 -0.253329 0.920568 -0.174527 -0.217836 0.960254 -0.0900882 -0.250124 0.964014 
0.0392873 -0.32165 0.946043 0.219324 -0.490128 0.843606 0.542243 -0.698949 0.466308 
0.469104 -0.6658 0.580217 0.650673 -0.57213 0.499291 -0.882302 -0.210165 0.421159 
-0.479624 -0.190585 0.856527 0.191235 -0.159207 0.968547 0.136808 -0.272424 0.952402 
0.026625 -0.45064 0.892309 -0.109221 -0.233965 0.966091 -0.179049 -0.0620905 0.981879 
-0.155991 -0.125062 0.979809 0.296405 -0.337539 0.893427 0.711708 -0.495131 0.498314 
0.598959 -0.483753 0.638147 -0.939763 -0.076397 0.333181 -0.467131 -0.0335956 0.883549 
0.192183 -0.0849986 0.977671 0.0030532 -0.242605 0.97012 -0.0714301 -0.0395691 0.99666 
0.0665246 -0.36292 0.929443 -0.0653203 -0.1648 0.984162 0.790659 -0.252747 0.557654 
0.519164 -0.206928 0.829246 -0.951669 0.0353672 0.305083 -0.445963 -0.0459453 0.893871 
-0.0181017 -0.0409854 0.998996 0.824149 -0.0415642 0.564846 0.493196 -0.0247434 0.869566 
-0.961706 0.0658867 0.266046 -0.486629 -0.0115533 0.873533 0.789935 0.218529 0.572929 
0.51742 0.163164 0.840032 -0.961446 0.134945 0.239608 -0.524461 0.033541 0.850774 
0.0503497 -0.0466746 0.99764 -0.106221 0.0798722 0.991129 0.751585 0.396548 0.527133 
0.679277 0.507772 0.529859 0.602285 0.366885 0.708977 -0.939499 0.244687 0.239728 
-0.670298 0.151369 0.72649 0.0261447 0.00112277 0.999658 0.637034 0.561322 0.528304 
0.537818 0.659627 0.525018 0.491072 0.466378 0.735759 -0.861549 0.441618 0.250413 
-0.785681 0.551032 0.281194 -0.748646 0.438288 0.497426 0.145049 0.166792 0.975265 
0.0766611 0.363303 0.928512 0.0165966 0.509095 0.86055 0.237327 0.780061 0.578949 
0.131692 0.575989 0.80678 0.470521 0.704201 0.531706 0.371142 0.745021 0.554253 
0.326672 0.666359 0.670263 -0.633372 0.699662 0.330626 -0.465671 0.831985 0.301581 
-0.432189 0.637657 0.637657 -0.141255 0.896341 0.420262 -0.143228 0.616764 0.774007 
-0.0915046 0.895621 0.435305 -0.0170968 0.878114 0.478145 0.0428949 0.500988 0.86439 
0.0541052 0.862833 0.502586 0.0780866 0.471793 0.878245 0.113986 0.832065 0.542839 
0.16423 0.467625 0.868536 0.223413 0.743051 0.630842 0.225441 0.530684 0.817038 
0.220504 0.691024 0.688378 0.205015 0.623998 0.754053 0.160424 0.726641 0.668024 
0.160291 0.72653 0.668178 0.160249 0.726468 0.668255 -0.135715 -0.257754 0.956632 
0.0100624 -0.25937 0.965726 0.13055 -0.172522 0.976316 -0.0165056 -0.228965 0.973295 
0.118887 -0.28443 0.951297 -0.332765 -0.199069 0.921758 -0.111535 -0.214557 0.970322 
0.0562766 -0.185381 0.981054 0.133925 -0.162221 0.977624 0.128673 -0.16291 0.978215 
-0.118158 -0.143826 0.982524 -0.194412 -0.112392 0.97446 -0.0527985 -0.177703 0.982667 
0.148466 -0.277644 0.949143 0.109298 -0.263941 0.958326 0.247595 -0.25802 0.933875 
-0.351532 -0.0398412 0.935328 -0.182535 -0.0619849 0.981244 0.0201223 -0.0906331 0.995681 
0.191699 -0.0826835 0.977965 0.188168 -0.0805769 0.978826 0.0460667 -0.0796469 0.995758 
0.0932162 -0.206379 0.974022 0.00966287 -0.325849 0.945372 -0.195389 -0.113185 0.974173 
0.0203777 -0.234846 0.971819 -0.206174 -0.108086 0.972528 -0.120719 -0.111707 0.986382 
0.0248131 -0.165931 0.985825 0.344457 -0.196352 0.918039 0.224457 -0.187309 0.956313 
-0.412131 -0.0480959 0.909854 -0.146805 -0.0620084 0.98722 0.0444184 -0.0287622 0.998599 
0.14292 -0.0553298 0.988186 0.00817482 -0.0783124 0.996895 0.0864855 -0.133341 0.987289 
0.133838 -0.175335 0.975369 -0.14364 -0.0782314 0.986533 0.00245416 -0.14491 0.989442 
-0.207032 -0.0676929 0.975989 0.054628 -0.250087 0.966681 -0.108965 -0.146525 0.983187 
-0.106108 -0.0980869 0.989505 0.0473103 -0.0785741 0.995785 0.407113 -0.0311759 0.912846 
0.233263 -0.0348298 0.97179 -0.484379 -0.011827 0.874778 -0.164185 -0.043381 0.985475 
0.0267804 -0.0683365 0.997303 0.14137 -0.0998675 0.984907 0.0837317 -0.079763 0.993291 
0.0357868 0.0713754 0.996807 0.0260768 -0.0992806 0.994718 0.00415033 -0.145847 0.989298 
-0.122352 0.120053 0.985199 -0.13233 0.171968 0.976174 -0.103304 -0.0373163 0.99395 
-0.0728904 -0.120777 0.99 -0.0554428 -0.0501046 0.997204 0.0933383 0.0189805 0.995454 
0.416852 0.142957 0.897662 0.262352 0.0948772 0.960297 -0.519311 0.0320609 0.853984 
-0.189861 -0.04367 0.980839 -0.0191383 -0.0900178 0.995756 0.126058 -0.096353 0.987332 
0.173325 -0.112629 0.978403 0.0603196 -0.048171 0.997016 0.0934283 -0.0527146 0.994229 
0.0584515 -0.0445931 0.997294 -0.142291 0.0895987 0.985761 -0.238007 0.105436 0.965524 
-0.107227 0.0527039 0.992837 0.0307929 0.0655853 0.997372 0.186377 0.150636 0.970862 
0.368935 0.260636 0.892163 0.369509 0.267936 0.88976 0.361801 0.254712 0.896784 
-0.598746 0.132442 0.789913 -0.259123 0.064 0.963721 -0.0308277 0.0550707 0.998006 
0.122455 0.00551246 0.992459 0.126285 -0.058946 0.990241 0.101794 -0.066363 0.99259 
0.0759868 -0.0141401 0.997009 0.135978 -0.0299019 0.990261 -0.0758329 0.139888 0.987259 
-0.103134 0.248691 0.963076 -0.138545 0.225068 0.964443 -0.0526152 0.391588 0.918635 
-0.100689 0.286025 0.952917 0.0783 0.441219 0.893977 0.0416523 0.323433 0.945334 
0.318499 0.381668 0.867691 0.266439 0.422584 0.866275 0.258707 0.360985 0.895969 
-0.429042 0.373028 0.822662 -0.331039 0.435199 0.837266 -0.307082 0.34865 0.885519 
-0.122734 0.501804 0.85623 -0.0829801 0.294277 0.952111 0.00983017 0.218807 0.975719 
0.0494176 0.461517 0.885754 0.0984821 0.160106 0.982175 0.09907 0.349877 0.931543 
0.133872 0.131217 0.982273 0.129505 0.151852 0.979882 0.128902 0.201112 0.97105 
0.119827 0.144501 0.982223 -0.0495184 0.542224 0.838773 -0.0168354 0.52598 0.85033 
-0.0405213 0.543648 0.838335 -0.0390411 0.53652 0.842984 
