# vtk DataFile Version 4.2
vtk output
ASCII
DATASET POLYDATA
POINTS 494 float
-26.2612 -40.3861 -18.1055 -18.1739 -40.3861 -19.7572 -10.0866 -40.3861 -19.8328 
-1.99929 -40.3861 -19.2508 6.08801 -40.3861 -18.2212 -34.3485 -32.2988 -20.6345 
-26.2612 -32.2988 -22.794 -18.1739 -32.2988 -22.788 -10.0866 -32.2988 -23.1257 
-1.99929 -32.2988 -22.2963 6.08801 -32.2988 -21.8414 14.1753 -32.2988 -20.8347 
22.2626 -32.2988 -19.2409 -42.4358 -24.2115 -20.0694 -34.3485 -24.2115 -23.3731 
-26.2612 -24.2115 -24.4456 -18.1739 -24.2115 -23.5818 -10.0866 -24.2115 -22.8547 
-1.99929 -24.2115 -22.7712 6.08801 -24.2115 -22.6925 14.1753 -24.2115 -22.6681 
22.2626 -24.2115 -22.3885 30.3499 -24.2115 -20.5012 -42.4358 -16.1242 -22.2661 
-34.3485 -16.1242 -24.4629 -26.2612 -16.1242 -24.6298 -18.1739 -16.1242 -23.3974 
-10.0866 -16.1242 -21.9033 -1.99929 -16.1242 -22.0976 6.08801 -16.1242 -23.4699 
14.1753 -16.1242 -23.5283 22.2626 -16.1242 -23.1101 30.3499 -16.1242 -21.6616 
38.4372 -16.1242 -18.8835 -42.4358 -8.03688 -21.5476 -34.3485 -8.03688 -24.5304 
-26.2612 -8.03688 -24.0254 -18.1739 -8.03688 -23.221 -10.0866 -8.03688 -22.1504 
-1.99929 -8.03688 -23.2401 6.08801 -8.03688 -25.1952 14.1753 -8.03688 -23.9692 
22.2626 -8.03688 -22.2678 30.3499 -8.03688 -21.2435 38.4372 -8.03688 -19.1111 
-42.4358 0.0504132 -20.051 -34.3485 0.0504132 -22.5539 -26.2612 0.0504132 -23.0585 
-18.1739 0.0504132 -23.3084 -10.0866 0.0504132 -24.2648 -1.99929 0.0504132 -22.2447 
6.08801 0.0504132 -22.866 14.1753 0.0504132 -22.4933 22.2626 0.0504132 -20.6839 
30.3499 0.0504132 -20.1285 38.4372 0.0504132 -18.2636 -42.4358 8.13771 -18.7821 
-34.3485 8.13771 -21.3305 -26.2612 8.13771 -22.13 -18.1739 8.13771 -22.2442 
-10.0866 8.13771 -22.6957 -1.99929 8.13771 -21.1056 6.08801 8.13771 -21.5086 
14.1753 8.13771 -20.9144 22.2626 8.13771 -19.4037 30.3499 8.13771 -18.5453 
-34.3485 16.225 -20.7414 -26.2612 16.225 -21.5859 -18.1739 16.225 -21.1976 
-10.0866 16.225 -20.4741 -1.99929 16.225 -20.5373 6.08801 16.225 -20.4878 
14.1753 16.225 -18.0308 -34.3485 24.3123 -19.0303 -26.2612 24.3123 -20.2401 
-18.1739 24.3123 -20.1782 -10.0866 24.3123 -18.5449 -1.99929 24.3123 -17.1754 
-26.2612 32.3996 -17.9577 -18.1739 32.3996 -17.3163 -26.2612 -41.502 -17.1319 
-18.1739 -43.8857 -17.1319 -18.1739 -48.4734 -9.15133 -10.0866 -43.4401 -17.1319 
-1.99929 -42.764 -17.1319 6.08801 -41.5826 -17.1319 -28.984 -40.3861 -17.1319 
-34.3485 -37.6372 -17.1319 -34.3485 -40.3861 -12.7223 10.1546 -40.3861 -17.1319 
14.1753 -38.7604 -17.1319 14.1753 -40.3861 -15.4912 22.2626 -35.1485 -17.1319 
22.2626 -40.3861 -10.6024 -40.7035 -32.2988 -17.1319 -42.4358 -30.2131 -17.1319 
-42.4358 -32.2988 -14.0893 28.1247 -32.2988 -17.1319 30.3499 -30.9378 -17.1319 
30.3499 -32.2988 -15.9465 -45.851 -24.2115 -17.1319 37.872 -24.2115 -17.1319 
38.4372 -23.1101 -17.1319 38.4372 -24.2115 -16.7283 -48.2336 -16.1242 -17.1319 
41.3389 -16.1242 -17.1319 46.5245 -16.1242 -12.6665 -47.6229 -8.03688 -17.1319 
-50.5231 -8.03688 -9.56186 42.2084 -8.03688 -17.1319 46.5245 -8.03688 -14.1636 
-46.012 0.0504132 -17.1319 40.8263 0.0504132 -17.1319 38.4372 5.80036 -17.1319 
46.5245 0.0504132 -13.7657 -44.7031 8.13771 -17.1319 -42.4358 15.3095 -17.1319 
22.2626 15.2521 -17.1319 36.4947 8.13771 -17.1319 30.3499 12.9258 -17.1319 
38.4372 8.13771 -16.6553 46.5245 8.13771 -12.1114 -42.032 16.225 -17.1319 
-42.4358 16.225 -16.7974 6.08801 21.8484 -17.1319 19.9061 16.225 -17.1319 
14.1753 17.7275 -17.1319 22.2626 16.225 -16.7651 30.3499 16.225 -16.0206 
38.4372 16.225 -13.3724 -37.9244 24.3123 -17.1319 -42.4358 24.3123 -13.2381 
-34.3485 29.1413 -17.1319 -10.0866 28.8539 -17.1319 -1.7656 24.3123 -17.1319 
-1.99929 24.4254 -17.1319 6.08801 24.3123 -15.5454 14.1753 24.3123 -13.228 
22.2626 24.3123 -11.5903 30.3499 24.3123 -10.225 -29.5833 32.3996 -17.1319 
-34.3485 32.3996 -15.5204 -26.2612 33.8588 -17.1319 -17.0634 32.3996 -17.1319 
-18.1739 32.7628 -17.1319 -10.0866 32.3996 -15.9969 -1.99929 32.3996 -14.0314 
6.08801 32.3996 -11.5311 -26.2612 40.4869 -12.3137 -18.1739 40.4869 -12.7195 
-10.0866 40.4869 -11.6423 -1.99929 40.4869 -9.45948 -18.1739 -48.512 -9.04461 
-34.3485 -41.954 -9.04461 -18.3198 -48.4734 -9.04461 -26.2612 -46.131 -9.04461 
-14.3997 -48.4734 -9.04461 -10.0866 -48.4239 -9.04461 -1.99929 -47.4547 -9.04461 
6.08801 -46.2453 -9.04461 14.1753 -44.3461 -9.04461 22.2626 -41.2407 -9.04461 
-36.354 -40.3861 -9.04461 -42.4358 -34.3823 -9.04461 24.0099 -40.3861 -9.04461 
30.3499 -37.001 -9.04461 -44.1145 -32.2988 -9.04461 -42.4358 -32.2988 -1.51403 
36.7813 -32.2988 -9.04461 38.4372 -30.8841 -9.04461 -48.48 -24.2115 -9.04461 
44.4776 -24.2115 -9.04461 46.5245 -20.8763 -9.04461 -50.4851 -16.1242 -9.04461 
-50.5231 -14.3784 -9.04461 49.0392 -16.1242 -9.04461 -50.6595 -8.03688 -9.04461 
-50.5231 -5.47492 -9.04461 -50.5231 -8.03688 -8.42856 50.5864 -8.03688 -9.04461 
-50.2078 0.0504132 -9.04461 50.6044 0.0504132 -9.04461 -48.4164 8.13771 -9.04461 
49.1157 8.13771 -9.04461 46.5245 13.4773 -9.04461 -47.0152 16.225 -9.04461 
44.6124 16.225 -9.04461 38.4372 21.3928 -9.04461 46.5245 16.225 -6.303 
-44.9842 24.3123 -9.04461 -42.4358 29.7454 -9.04461 14.1753 31.1345 -9.04461 
22.2626 27.4547 -9.04461 32.9114 24.3123 -9.04461 30.3499 25.4401 -9.04461 
38.4372 24.3123 -4.71183 -40.8454 32.3996 -9.04461 -34.3485 39.0312 -9.04461 
12.2155 32.3996 -9.04461 6.08801 36.4706 -9.04461 14.1753 32.3996 -8.13875 
22.2626 32.3996 -3.8185 -31.9946 40.4869 -9.04461 -34.3485 40.4869 -4.82563 
-26.2612 43.3129 -9.04461 -18.1739 44.6934 -9.04461 -10.0866 43.5327 -9.04461 
-0.923425 40.4869 -9.04461 -1.99929 40.9481 -9.04461 6.08801 40.4869 -5.91285 
-18.1739 48.5742 -2.43281 -10.0866 48.5742 -1.90686 -18.1739 -48.5512 -0.957309 
-34.3485 -41.2439 -0.957309 -18.4425 -48.4734 -0.957309 -26.2612 -45.6386 -0.957309 
-15.0327 -48.4734 -0.957309 -18.1739 -48.4734 -0.765735 -10.0866 -48.3321 -0.957309 
-1.99929 -47.3406 -0.957309 6.08801 -46.2993 -0.957309 14.1753 -44.8349 -0.957309 
22.2626 -41.8085 -0.957309 -35.3176 -40.3861 -0.957309 -34.3485 -40.3861 0.42215 
-26.2612 -40.3861 6.10147 24.9754 -40.3861 -0.957309 22.2626 -40.3861 2.5463 
30.3499 -37.29 -0.957309 -42.268 -32.2988 -0.957309 -42.4358 -31.9646 -0.957309 
-34.3485 -32.2988 6.08695 38.0077 -32.2988 -0.957309 38.4372 -31.9655 -0.957309 
-45.5835 -24.2115 -0.957309 -42.4358 -24.2115 2.78349 46.0285 -24.2115 -0.957309 
46.5245 -23.512 -0.957309 -47.8928 -16.1242 -0.957309 -42.4358 -16.1242 5.82801 
50.7208 -16.1242 -0.957309 -48.5264 -8.03688 -0.957309 -42.4358 -8.03688 6.95588 
52.8132 -8.03688 -0.957309 -47.8816 0.0504132 -0.957309 -42.4358 0.0504132 6.712 
53.3105 0.0504132 -0.957309 -46.6414 8.13771 -0.957309 -42.4358 8.13771 5.8989 
52.3586 8.13771 -0.957309 -45.7886 16.225 -0.957309 -42.4358 16.225 5.0281 
49.0154 16.225 -0.957309 46.5245 19.6496 -0.957309 -44.845 24.3123 -0.957309 
-42.4358 31.5011 -0.957309 -42.4358 24.3123 3.72367 30.3499 30.7005 -0.957309 
41.4558 24.3123 -0.957309 38.4372 26.5937 -0.957309 -42.0672 32.3996 -0.957309 
14.1753 39.8814 -0.957309 26.9248 32.3996 -0.957309 22.2626 34.8251 -0.957309 
30.3499 32.3996 3.15066 -35.6109 40.4869 -0.957309 -34.3485 41.6478 -0.957309 
-34.3485 40.4869 3.30767 -26.2612 46.5865 -0.957309 -1.99929 47.4093 -0.957309 
13.2358 40.4869 -0.957309 6.08801 44.5913 -0.957309 14.1753 40.4869 0.0820156 
-20.1718 48.5742 -0.957309 -18.1739 49.1791 -0.957309 -7.4873 48.5742 -0.957309 
-10.0866 49.0948 -0.957309 -1.99929 48.5742 4.15822 -18.1739 -43.1548 7.12999 
-10.0866 -43.3787 7.12999 -1.99929 -42.7636 7.12999 6.08801 -42.1459 7.12999 
14.1753 -41.0251 7.12999 -24.0935 -40.3861 7.12999 -26.2612 -38.7908 7.12999 
-18.1739 -40.3861 9.10857 -10.0866 -40.3861 9.68849 -1.99929 -40.3861 9.23068 
6.08801 -40.3861 8.82633 16.0116 -40.3861 7.12999 14.1753 -40.3861 7.84861 
22.2626 -38.2236 7.12999 30.3499 -34.2883 7.12999 -32.62 -32.2988 7.12999 
-34.3485 -30.0077 7.12999 -26.2612 -32.2988 10.2522 -18.1739 -32.2988 12.299 
-10.0866 -32.2988 13.0027 -1.99929 -32.2988 13.4196 6.08801 -32.2988 13.8306 
14.1753 -32.2988 14.725 22.2626 -32.2988 13.754 33.6045 -32.2988 7.12999 
30.3499 -32.2988 9.98588 38.4372 -29.0007 7.12999 -37.5521 -24.2115 7.12999 
-34.3485 -24.2115 9.25912 -26.2612 -24.2115 12.1453 -18.1739 -24.2115 13.2511 
-10.0866 -24.2115 14.1928 43.5487 -24.2115 7.12999 38.4372 -24.2115 14.1411 
46.5245 -20.5534 7.12999 -40.9213 -16.1242 7.12999 -34.3485 -16.1242 11.296 
-26.2612 -16.1242 13.9259 -18.1739 -16.1242 13.9626 -10.0866 -16.1242 13.9332 
49.2167 -16.1242 7.12999 46.5245 -16.1242 12.7094 -42.2739 -8.03688 7.12999 
-34.3485 -8.03688 13.6951 51.8778 -8.03688 7.12999 -42.092 0.0504132 7.12999 
-34.3485 0.0504132 14.645 52.6349 0.0504132 7.12999 -41.5606 8.13771 7.12999 
-34.3485 8.13771 14.3134 52.0143 8.13771 7.12999 -41.0603 16.225 7.12999 
-34.3485 16.225 14.6938 49.2764 16.225 7.12999 46.5245 20.6642 7.12999 
-40.4213 24.3123 7.12999 -34.3485 24.3123 14.8804 43.4652 24.3123 7.12999 
38.4372 28.7173 7.12999 -38.2241 32.3996 7.12999 -34.3485 38.7689 7.12999 
-34.3485 32.3996 12.2635 22.2626 38.9176 7.12999 32.9203 32.3996 7.12999 
30.3499 33.9736 7.12999 -32.9891 40.4869 7.12999 -26.2612 45.5729 7.12999 
-26.2612 40.4869 14.7043 6.08801 47.1363 7.12999 19.6611 40.4869 7.12999 
14.1753 43.6465 7.12999 -19.3401 48.5742 7.12999 -18.1739 48.9898 7.12999 
-18.1739 48.5742 8.08072 -10.0866 49.9163 7.12999 -10.0866 48.5742 10.4748 
0.389394 48.5742 7.12999 -1.99929 49.1556 7.12999 -1.99929 48.5742 9.31153 
-1.99929 -24.289 15.2173 6.08801 -28.949 15.2173 14.1753 -31.3862 15.2173 
22.2626 -30.5825 15.2173 30.3499 -28.0545 15.2173 -2.12313 -24.2115 15.2173 
-1.99929 -24.2115 15.2338 6.08801 -24.2115 17.1783 14.1753 -24.2115 18.6483 
22.2626 -24.2115 19.336 37.0918 -24.2115 15.2173 30.3499 -24.2115 18.4486 
38.4372 -23.2506 15.2173 -26.2612 -12.971 15.2173 -18.1739 -13.4135 15.2173 
-6.91806 -16.1242 15.2173 -10.0866 -13.4628 15.2173 -1.99929 -16.1242 17.8689 
6.08801 -16.1242 20.8169 14.1753 -16.1242 21.6511 22.2626 -16.1242 22.6406 
[...]
POINT_DATA 494
SCALARS ImageScalars float
LOOKUP_TABLE default
0 0 0 0 0 0 0 0 0 
0 0 0 0 0 0 0 0 0 
0 0 0 0 0 0 0 0 0 
0 0 0 0 0 0 0 0 0 
0 0 0 0 0 0 0 0 0 
0 0 0 0 0 0 0 0 0 
0 0 0 0 0 0 0 0 0 
0 0 0 0 0 0 0 0 0 
0 0 0 0 0 0 0 0 0 
0 0 0 0 0 0 0 0 0 
0 0 0 0 0 0 0 0 0 
0 0 0 0 0 0 0 0 0 
0 0 0 0 0 0 0 0 0 
0 0 0 0 0 0 0 0 0 
0 0 0 0 0 0 0 0 0 
0 0 0 0 0 0 0 0 0 
0 0 0 0 0 0 0 0 0 
0 0 0 0 0 0 0 0 0 
0 0 0 0 0 0 0 0 0 
0 0 0 0 0 0 0 0 0 
0 0 0 0 0 0 0 0 0 
0 0 0 0 0 0 0 0 0 
0 0 0 0 0 0 0 0 0 
0 0 0 0 0 0 0 0 0 
0 0 0 0 0 0 0 0 0 
0 0 0 0 0 0 0 0 0 
0 0 0 0 0 0 0 0 0 
0 0 0 0 0 0 0 0 0 
0 0 0 0 0 0 0 0 0 
0 0 0 0 0 0 0 0 0 
0 0 0 0 0 0 0 0 0 
0 0 0 0 0 0 0 0 0 
0 0 0 0 0 0 0 0 0 
0 0 0 0 0 0 0 0 0 
0 0 0 0 0 0 0 0 0 
0 0 0 0 0 0 0 0 0 
0 0 0 0 0 0 0 0 0 
0 0 0 0 0 0 0 0 0 
0 0 0 0 0 0 0 0 0 
0 0 0 0 0 0 0 0 0 
0 0 0 0 0 0 0 0 0 
0 0 0 0 0 0 0 0 0 
0 0 0 0 0 0 0 0 0 
0 0 0 0 0 0 0 0 0 
0 0 0 0 0 0 0 0 0 
0 0 0 0 0 0 0 0 0 
0 0 0 0 0 0 0 0 0 
0 0 0 0 0 0 0 0 0 
0 0 0 0 0 0 0 0 0 
0 0 0 0 0 0 0 0 0 
0 0 0 0 0 0 0 0 0 
0 0 0 0 0 0 0 0 0 
0 0 0 0 0 0 0 0 0 
0 0 0 0 0 0 0 0 0 
0 0 0 0 0 0 0 0 
NORMALS Normals float
-0.241224 -0.620358 -0.746303 -0.0959758 -0.521867 -0.84761 0.0264114 -0.546742 -0.836884 
0.0890665 -0.568141 -0.818097 0.171827 -0.609912 -0.773617 -0.337078 -0.445595 -0.829351 
-0.119223 -0.343237 -0.931651 -0.0198631 -0.221186 -0.975029 0.0325856 -0.146756 -0.988636 
0.0733296 -0.179797 -0.980967 0.0909057 -0.245257 -0.965186 0.137569 -0.352555 -0.925624 
0.251619 -0.489972 -0.834635 -0.564785 -0.33178 -0.755606 -0.234443 -0.215855 -0.947862 
-0.0106974 -0.101236 -0.994805 0.09607 -0.0351454 -0.994754 0.0512764 0.0765619 -0.995745 
0.0100016 0.0103385 -0.999897 0.00632241 -0.0957754 -0.995383 0.0178006 -0.166603 -0.985863 
0.127567 -0.201037 -0.971242 0.302103 -0.277912 -0.911865 -0.477811 -0.0852048 -0.874321 
-0.137772 -0.0704221 -0.987957 0.065836 0.0263491 -0.997482 0.168059 0.0221543 -0.985528 
0.0800812 0.0435301 -0.995837 -0.0971981 -0.0236529 -0.994984 -0.0854667 -0.153327 -0.984473 
0.0218057 -0.0779739 -0.996717 0.110226 0.00980925 -0.993858 0.239913 -0.0435865 -0.969816 
0.427724 -0.124634 -0.895276 -0.483653 0.118771 -0.867164 -0.118379 0.112608 -0.986563 
0.0766659 0.0936265 -0.992651 0.115635 0.00564053 -0.993276 0.00402672 -0.149544 -0.988747 
-0.196647 -0.0145155 -0.980367 -0.0382732 0.0183496 -0.999099 0.183124 0.0594084 -0.981293 
0.162237 0.14622 -0.975858 0.1843 0.0915604 -0.978596 0.357662 0.0366003 -0.933134 
-0.480021 0.165597 -0.861485 -0.146998 0.182381 -0.972177 -0.0452263 0.11803 -0.99198 
-0.0742734 0.0608486 -0.99538 0.0536943 -0.0350582 -0.997942 0.0987386 0.136914 -0.98565 
-0.0137355 0.242418 -0.970075 0.133776 0.187783 -0.973058 0.137618 0.17501 -0.974901 
0.140354 0.160196 -0.977056 0.326585 0.13914 -0.93487 -0.512948 0.17935 -0.839475 
-0.19474 0.110068 -0.97466 -0.0548014 0.0908802 -0.994353 -0.0339627 0.127401 -0.99127 
0.0701809 0.231284 -0.970352 0.0731461 0.0983044 -0.992465 0.0106688 0.133116 -0.991043 
0.128327 0.241269 -0.961936 0.137953 0.225156 -0.964507 0.157206 0.228093 -0.960864 
-0.263465 0.128318 -0.956097 -0.0283241 0.110676 -0.993453 0.0685066 0.124205 -0.989889 
0.0402945 0.246878 -0.968208 -0.00103068 0.230132 -0.973159 0.136199 0.323856 -0.936252 
0.217289 0.434966 -0.873836 -0.301002 0.276474 -0.912666 -0.0628727 0.223295 -0.972721 
0.101651 0.226343 -0.968729 0.173718 0.260707 -0.94966 0.165164 0.374309 -0.912477 
-0.0741994 0.409285 -0.909384 0.113239 0.396486 -0.91103 -0.260662 -0.662352 -0.702385 
-0.0941116 -0.695179 -0.712649 -0.133565 -0.971028 -0.198154 0.0523305 -0.701578 -0.710669 
0.0933818 -0.69892 -0.709077 0.173652 -0.671558 -0.720316 -0.315952 -0.663229 -0.678455 
-0.420223 -0.647971 -0.635253 -0.531936 -0.776645 -0.33744 0.217448 -0.650984 -0.72728 
0.241893 -0.613954 -0.751365 0.271948 -0.721244 -0.637065 0.29235 -0.588796 -0.753558 
0.386461 -0.852402 -0.352221 -0.594491 -0.555231 -0.581635 -0.646143 -0.516371 -0.562015 
-0.727005 -0.592076 -0.347721 0.359424 -0.566338 -0.741671 0.380382 -0.538929 -0.751575 
0.417727 -0.621374 -0.662871 -0.740413 -0.354596 -0.571008 0.527683 -0.368332 -0.765429 
0.531894 -0.340337 -0.775409 0.554043 -0.385074 -0.738075 -0.844732 -0.0876011 -0.527971 
0.534964 -0.158606 -0.829854 0.785326 -0.27846 -0.552923 -0.794863 0.104904 -0.597653 
-0.998692 0.0187404 -0.0475801 0.49054 0.00958862 -0.871366 0.705546 -0.0409439 -0.707481 
-0.708997 0.145074 -0.690128 0.405539 0.123465 -0.905701 0.308296 0.220019 -0.925497 
0.668987 0.0907159 -0.737717 -0.650825 0.17704 -0.738298 -0.596577 0.227771 -0.769556 
0.109321 0.400745 -0.909644 0.264419 0.248476 -0.931849 0.167523 0.342725 -0.924379 
0.306997 0.257665 -0.916167 0.677845 0.277937 -0.680645 -0.588096 0.230898 -0.775132 
-0.620595 0.237001 -0.747457 0.198992 0.451145 -0.869983 0.136825 0.429769 -0.892512 
0.212847 0.454311 -0.865042 0.105143 0.427062 -0.898088 0.173415 0.437031 -0.882571 
0.382579 0.49461 -0.780381 -0.471348 0.314607 -0.823926 -0.786651 0.349023 -0.509277 
-0.357606 0.41811 -0.835046 0.180123 0.318333 -0.930709 0.166898 0.377729 -0.91075 
0.166341 0.374296 -0.912268 0.218523 0.484348 -0.847145 0.206563 0.507342 -0.836622 
0.150775 0.592359 -0.79144 0.239701 0.704026 -0.668499 -0.201856 0.454066 -0.867801 
-0.420554 0.53222 -0.734763 -0.0924685 0.455847 -0.885242 0.1232 0.392559 -0.911438 
0.111285 0.404279 -0.90784 0.18339 0.367434 -0.91179 0.240834 0.390389 -0.888592 
0.305781 0.455357 -0.836151 -0.20611 0.706244 -0.677302 0.0369074 0.610143 -0.791431 
0.157149 0.591057 -0.791174 0.264104 0.6093 -0.747665 -0.13383 -0.972047 -0.192911 
-0.565314 -0.81308 -0.138998 -0.137764 -0.971545 -0.192667 -0.351829 -0.918161 -0.1822 
-0.0427973 -0.977996 -0.204189 0.0629053 -0.974459 -0.215575 0.128051 -0.970238 -0.205524 
0.183653 -0.954909 -0.233282 0.284036 -0.920431 -0.26857 0.396005 -0.87787 -0.269302 
-0.619688 -0.775672 -0.119665 -0.779977 -0.624055 -0.0468164 0.421816 -0.868367 -0.260786 
0.519605 -0.820505 -0.23829 -0.815432 -0.578079 -0.0299045 -0.781224 -0.502967 0.369747 
0.615584 -0.745139 -0.256563 0.649665 -0.712606 -0.264817 -0.932342 -0.360922 0.0217793 
0.771307 -0.554178 -0.313006 0.818024 -0.459136 -0.346456 -0.992241 -0.122931 0.0186063 
-0.995629 -0.0928543 0.0100394 0.8634 -0.319577 -0.390399 -0.999663 0.0159458 -0.0204771 
-0.998185 0.0546216 -0.0253644 -0.999843 0.015144 0.00924675 0.884319 -0.0898734 -0.458151 
-0.989216 0.141082 -0.0393354 0.852725 0.0764529 -0.516734 -0.979583 0.192675 -0.0573844 
0.787832 0.2877 -0.544563 0.710005 0.444324 -0.546323 -0.967966 0.207277 -0.1417 
0.631092 0.525561 -0.570533 0.431142 0.663517 -0.611443 0.739128 0.521851 -0.425864 
-0.906402 0.341883 -0.248097 -0.834555 0.466983 -0.292309 0.311149 0.546625 -0.777424 
0.219529 0.63297 -0.742399 0.30869 0.722089 -0.619111 0.258456 0.726321 -0.636913 
0.468019 0.765088 -0.442266 -0.769866 0.545311 -0.331575 -0.526704 0.732462 -0.431372 
0.326773 0.531082 -0.781774 0.341345 0.524232 -0.780169 0.340443 0.562697 -0.753307 
0.366865 0.714345 -0.595921 -0.444575 0.758874 -0.475882 -0.617754 0.756937 -0.213132 
-0.26415 0.793921 -0.547645 -0.0250382 0.750573 -0.660314 0.162518 0.680628 -0.714376 
0.278231 0.610919 -0.741192 0.263505 0.623298 -0.73625 0.378921 0.650932 -0.657804 
-0.132325 0.95486 -0.265955 0.110986 0.928764 -0.353667 -0.142014 -0.966215 0.215084 
-0.61865 -0.724564 0.303776 -0.150282 -0.964866 0.215523 -0.39578 -0.875964 0.275764 
-0.0601877 -0.972659 0.224302 -0.141759 -0.96407 0.224661 0.0706431 -0.968905 0.237134 
0.119456 -0.968211 0.219767 0.150166 -0.969378 0.194308 0.256866 -0.953475 0.157815 
0.415367 -0.898099 0.144525 -0.644885 -0.698283 0.310684 -0.620716 -0.68655 0.378631 
-0.371491 -0.599232 0.709166 0.455028 -0.878775 0.143886 0.390892 -0.870212 0.29989 
0.523367 -0.841923 0.13135 -0.771698 -0.493176 0.40157 -0.775902 -0.484218 0.404362 
-0.527501 -0.385158 0.757229 0.623222 -0.777321 0.0858317 0.631094 -0.771286 0.0826912 
-0.820841 -0.302206 0.484656 -0.736953 -0.274844 0.617545 0.788028 -0.614985 0.0283614 
0.804215 -0.593923 0.0222431 -0.872821 -0.146156 0.465641 -0.683082 -0.171499 0.70992 
0.922324 -0.386286 -0.0101259 -0.904246 0.00166697 0.427008 -0.723352 -0.0375356 0.689459 
0.98649 -0.148269 -0.0696669 -0.905902 0.103971 0.410525 -0.767109 0.0383525 0.640369 
0.994189 0.0247182 -0.104776 -0.922949 0.115382 0.367222 -0.810858 0.058568 0.582304 
0.959908 0.239661 -0.145393 -0.943377 0.104006 0.314995 -0.845616 0.070257 0.529147 
0.836738 0.508139 -0.204119 0.760248 0.607387 -0.230443 -0.945211 0.221227 0.240073 
-0.888086 0.433491 0.152933 -0.884902 0.175152 0.43159 0.385111 0.81331 -0.436138 
0.57016 0.765109 -0.299209 0.497376 0.802064 -0.330623 -0.876145 0.461867 0.138014 
0.454378 0.723575 -0.519596 0.392077 0.783296 -0.482414 0.41954 0.745317 -0.518159 
0.458698 0.831856 -0.31243 -0.699498 0.714634 -0.000275189 -0.665238 0.746392 -0.0189335 
-0.706477 0.679714 0.197179 -0.395996 0.909581 -0.125897 0.236033 0.891201 -0.387362 
0.449612 0.731725 -0.512278 0.378259 0.810218 -0.447736 0.46147 0.751708 -0.471148 
-0.20367 0.962221 -0.18069 -0.144286 0.970892 -0.191183 0.144701 0.932575 -0.330704 
0.10112 0.94587 -0.308389 0.190523 0.975506 -0.109948 -0.160206 -0.657744 0.736007 
0.0200908 -0.691664 0.72194 0.0604374 -0.714274 0.697251 0.0881229 -0.750616 0.654836 
0.195599 -0.785319 0.58738 -0.311731 -0.563936 0.764722 -0.364418 -0.520462 0.772217 
-0.165446 -0.526508 0.833916 -0.00922403 -0.549082 0.835717 0.0463379 -0.610295 0.790818 
0.067161 -0.680053 0.73008 0.226731 -0.786151 0.574943 0.184707 -0.765006 0.616968 
0.323909 -0.796246 0.510955 0.438214 -0.792565 0.424039 -0.476572 -0.360044 0.802028 
-0.497997 -0.331321 0.80139 -0.33044 -0.310044 0.89145 -0.147272 -0.23962 0.959632 
-0.0708308 -0.261462 0.962611 -0.0469851 -0.324555 0.944699 -0.0690522 -0.430057 0.900157 
-0.00743905 -0.531334 0.84713 0.180646 -0.665859 0.723878 0.484117 -0.775655 0.404956 
0.394047 -0.763996 0.510918 0.57757 -0.731674 0.362031 -0.547591 -0.262713 0.794435 
-0.446082 -0.249755 0.859438 -0.223877 -0.20639 0.952514 -0.123106 -0.0992575 0.987417 
-0.120729 -0.0522192 0.991311 0.691072 -0.64081 0.334338 0.514259 -0.627195 0.584949 
0.787537 -0.533714 0.308116 -0.622808 -0.181668 0.760991 -0.420319 -0.235801 0.876202 
-0.144437 -0.304704 0.941432 -0.000592516 -0.264387 0.964417 -0.197151 -0.209336 0.957763 
0.864424 -0.412947 0.286785 0.768256 -0.432908 0.471565 -0.718287 -0.0398154 0.694607 
-0.524006 -0.181606 0.832128 0.948078 -0.195736 0.250671 -0.758062 0.0339995 0.651296 
-0.588494 -0.0339232 0.80779 0.976743 -0.00708109 0.214294 -0.782606 0.0485948 0.620618 
-0.593187 -0.000789183 0.805064 0.967395 0.189604 0.167919 -0.796624 0.0570433 0.601778 
-0.620907 -0.0259267 0.783455 0.893097 0.439724 0.0949736 0.815568 0.57566 0.058851 
-0.8195 0.140774 0.55552 -0.655638 0.0907294 0.749604 0.71319 0.700971 -0.000538728 
0.612304 0.787755 -0.0672772 -0.798232 0.351359 0.489258 -0.723254 0.558474 0.406216 
-0.71371 0.321994 0.622043 0.505004 0.832685 -0.22717 0.54147 0.826736 -0.152703 
0.519132 0.832128 -0.195104 -0.673994 0.631866 0.382724 -0.469454 0.829179 0.303439 
-0.471681 0.577743 0.666131 0.318213 0.946956 -0.0448934 0.493759 0.844216 -0.208567 
0.449976 0.878131 -0.162503 -0.262584 0.935816 0.235155 -0.23191 0.945905 0.226896 
-0.238563 0.931929 0.273122 -0.0100537 0.989233 0.146003 -0.0470715 0.947052 0.317612 
0.207415 0.978157 0.0136808 0.16398 0.985813 0.0358198 0.134787 0.979972 0.146583 
-0.172249 -0.218148 0.960594 -0.125721 -0.403926 0.906112 -0.0265366 -0.51043 0.85951 
0.129614 -0.61088 0.781042 0.293877 -0.653707 0.697355 -0.172745 -0.21465 0.961293 
-0.173589 -0.217545 0.96049 -0.197575 -0.386097 0.901051 -0.121007 -0.380029 0.917025 
0.00441718 -0.451585 0.892217 0.462814 -0.614027 0.639355 0.233166 -0.552964 0.799915 
0.496106 -0.598145 0.629365 -0.173192 -0.312634 0.933951 -0.0133382 -0.343011 0.939237 
-0.286478 -0.288494 0.91362 -0.212591 -0.305288 0.928226 -0.395976 -0.376798 0.837393 
-0.180414 -0.328511 0.927109 -0.103235 -0.282531 0.953687 -0.0560905 -0.324399 0.944256 
0.132629 -0.342338 0.930169 0.67868 -0.438465 0.589187 0.404001 -0.414929 0.815241 
0.74837 -0.344407 0.566857 -0.402726 -0.24372 0.882277 -0.230104 -0.310099 0.922437 
-0.0491691 -0.433684 0.899722 -0.197488 -0.414539 0.888344 -0.253247 -0.167273 0.95283 
-0.121605 -0.149248 0.981294 0.368552 -0.252435 0.894677 0.792979 -0.226852 0.56544 
0.733347 -0.229366 0.639995 -0.558944 -0.040692 0.828206 -0.343635 -0.0626259 0.937013 
-0.0941049 -0.0800696 0.992337 -0.0313782 -0.150544 0.988105 -0.177397 -0.172357 0.968929 
0.852981 -0.0602502 0.518452 0.745582 -0.0864303 0.660786 -0.538301 -0.000596326 0.842753 
-0.305696 0.011901 0.952055 -0.157424 -0.010045 0.98748 -0.252749 -0.132075 0.958475 
0.877984 0.120133 0.463371 0.778431 0.0800972 0.622599 -0.592094 -0.0312872 0.805262 
-0.354292 -0.0495949 0.933819 -0.224765 -0.1139 0.967733 -0.233472 -0.133776 0.963117 
0.851745 0.368818 0.372162 0.835058 0.413369 0.363049 0.831391 0.359355 0.423855 
-0.637934 0.0855357 0.765326 -0.387999 0.0171404 0.9215 -0.242099 -0.0208002 0.970029 
0.7361 0.608833 0.295771 0.675271 0.693733 0.250489 0.637354 0.53029 0.559081 
-0.601968 0.282806 0.746764 -0.469424 0.540585 0.698147 -0.444898 0.229463 0.865686 
-0.259018 0.202619 0.944381 -0.156448 0.182579 0.970664 0.454124 0.868694 0.197842 
0.602032 0.771972 0.204002 0.573987 0.797706 0.184943 0.529256 0.731717 0.429509 
-0.447084 0.567405 0.691497 -0.272988 0.67585 0.68462 -0.270433 0.529756 0.803881 
-0.118074 0.776722 0.618677 -0.165641 0.50402 0.84766 0.0267833 0.857021 0.514586 
-0.0823209 0.509734 0.856385 0.181536 0.893182 0.411426 0.0478677 0.603071 0.79625 
0.429007 0.878558 0.209972 0.333155 0.900523 0.279402 0.263272 0.775354 0.574033 
-0.124696 -0.212979 0.969067 -0.065916 -0.294182 0.953474 0.123927 -0.306654 0.943719 
-0.125805 -0.191933 0.973311 -0.192466 -0.152723 0.969346 -0.127611 -0.205691 0.970261 
-0.0833339 -0.220331 0.971859 0.313714 -0.248097 0.916532 0.10623 -0.235612 0.966024 
0.366117 -0.227402 0.902356 -0.214773 -0.156329 0.964072 -0.22105 -0.188041 0.956963 
-0.21721 -0.154633 0.963799 -0.173878 -0.170103 0.969965 -0.0809449 -0.170412 0.982043 
0.0919255 -0.158035 0.983145 0.467526 -0.135912 0.873469 0.366582 -0.15028 0.918169 
-0.245237 -0.178688 0.952853 -0.2348 -0.190582 0.953177 -0.125592 -0.135101 0.98284 
-0.144688 -0.112687 0.98304 -0.0733008 -0.0990665 0.992377 0.108513 -0.0681869 0.991754 
0.549049 0.0245913 0.835428 0.414589 0.00238427 0.910006 -0.222114 -0.11258 0.9685 
-0.199758 -0.0555968 0.978267 -0.178025 -0.0456305 0.982967 -0.135557 -0.0488176 0.989566 
-0.138688 -0.0260679 0.989993 -0.0402622 0.0132094 0.999102 0.184709 0.115598 0.975971 
0.564058 0.240245 0.790013 0.542586 0.330769 0.772135 0.482889 0.220426 0.847485 
-0.191093 -0.0226614 0.98131 -0.164994 0.124352 0.978424 -0.18401 -0.0217092 0.982685 
-0.155563 0.0491917 0.9866 -0.107625 0.0549542 0.992672 -0.0770237 0.0921366 0.992763 
0.068499 0.209577 0.97539 0.484686 0.43493 0.758891 0.388224 0.519551 0.76115 
0.307276 0.361044 0.880471 -0.149145 0.184531 0.971444 -0.0950852 0.267023 0.958988 
-0.0962549 0.203828 0.974263 -0.0373819 0.407358 0.912503 -0.0982893 0.237356 0.966437 
0.128421 0.510396 0.850296 0.026833 0.315105 0.948677 0.326029 0.560796 0.76106 
0.297699 0.561421 0.772128 0.275821 0.528817 0.802668 
