# vtk DataFile Version 4.2
vtk output
ASCII
DATASET POLYDATA
POINTS 522 float
-20.456 -43.0532 -12.8144 -12.6191 -43.0532 -14.4637 -4.78222 -43.0532 -14.5282 
3.05468 -43.0532 -13.2119 -36.1298 -35.2163 -11.6537 -28.2929 -35.2163 -15.1909 
-20.456 -35.2163 -17.1593 -12.6191 -35.2163 -17.074 -4.78222 -35.2163 -16.9279 
3.05468 -35.2163 -16.215 10.8916 -35.2163 -15.2685 18.7285 -35.2163 -13.5494 
-43.9667 -27.3794 -11.5659 -36.1298 -27.3794 -15.7519 -28.2929 -27.3794 -17.1844 
-20.456 -27.3794 -18.0112 -12.6191 -27.3794 -17.7595 -4.78222 -27.3794 -17.5479 
3.05468 -27.3794 -17.0218 10.8916 -27.3794 -16.4601 18.7285 -27.3794 -15.7033 
26.5654 -27.3794 -14.51 34.4023 -27.3794 -13.3427 -43.9667 -19.5425 -14.6393 
-36.1298 -19.5425 -17.5788 -28.2929 -19.5425 -18.0223 -20.456 -19.5425 -17.7657 
-12.6191 -19.5425 -17.0981 -4.78222 -19.5425 -16.7269 3.05468 -19.5425 -16.5608 
10.8916 -19.5425 -16.0484 18.7285 -19.5425 -15.5603 26.5654 -19.5425 -15.2606 
34.4023 -19.5425 -15.3591 42.2392 -19.5425 -14.7143 50.0761 -19.5425 -11.9619 
-51.8036 -11.7056 -11.6576 -43.9667 -11.7056 -15.4164 -36.1298 -11.7056 -17.1448 
-28.2929 -11.7056 -17.5916 -20.456 -11.7056 -17.019 -12.6191 -11.7056 -16.0356 
-4.78222 -11.7056 -15.8482 3.05468 -11.7056 -16.6582 10.8916 -11.7056 -15.3516 
18.7285 -11.7056 -15.0687 26.5654 -11.7056 -15.8807 34.4023 -11.7056 -16.1169 
42.2392 -11.7056 -15.932 50.0761 -11.7056 -15.3626 57.913 -11.7056 -12.2852 
-51.8036 -3.86871 -12.5886 -43.9667 -3.86871 -15.8743 -36.1298 -3.86871 -17.1841 
-28.2929 -3.86871 -17.2173 -20.456 -3.86871 -16.5155 -12.6191 -3.86871 -16.5498 
-4.78222 -3.86871 -16.4757 3.05468 -3.86871 -15.9782 10.8916 -3.86871 -18.7318 
18.7285 -3.86871 -15.0682 26.5654 -3.86871 -15.852 34.4023 -3.86871 -16.6548 
42.2392 -3.86871 -16.9068 50.0761 -3.86871 -16.8038 57.913 -3.86871 -13.6275 
-51.8036 3.96819 -12.6509 -43.9667 3.96819 -15.7745 -36.1298 3.96819 -16.9768 
-28.2929 3.96819 -16.8917 -20.456 3.96819 -16.0921 -12.6191 3.96819 -16.8371 
-4.78222 3.96819 -17.1073 3.05468 3.96819 -13.6301 10.8916 3.96819 -18.1448 
18.7285 3.96819 -15.5239 26.5654 3.96819 -15.8028 34.4023 3.96819 -16.4237 
42.2392 3.96819 -16.3432 50.0761 3.96819 -15.9391 57.913 3.96819 -12.5106 
-51.8036 11.8051 -11.5179 -43.9667 11.8051 -15.5662 -36.1298 11.8051 -16.7321 
-28.2929 11.8051 -17.0388 -20.456 11.8051 -16.2458 -12.6191 11.8051 -15.7564 
-4.78222 11.8051 -16.2809 3.05468 11.8051 -14.7761 10.8916 11.8051 -15.7439 
18.7285 11.8051 -15.063 26.5654 11.8051 -15.1999 34.4023 11.8051 -15.5479 
42.2392 11.8051 -14.5691 50.0761 11.8051 -12.6451 -43.9667 19.642 -13.9639 
-36.1298 19.642 -15.7296 -28.2929 19.642 -16.3875 -20.456 19.642 -16.4085 
-12.6191 19.642 -16.0351 -4.78222 19.642 -15.0004 3.05468 19.642 -13.975 
10.8916 19.642 -15.0641 18.7285 19.642 -14.7776 26.5654 19.642 -14.3622 
34.4023 19.642 -13.2752 42.2392 19.642 -12.3838 -36.1298 27.4789 -13.6758 
-28.2929 27.4789 -15.3968 -20.456 27.4789 -15.9373 -12.6191 27.4789 -16.0783 
-4.78222 27.4789 -15.0104 3.05468 27.4789 -14.2604 10.8916 27.4789 -14.3495 
18.7285 27.4789 -14.2376 26.5654 27.4789 -12.7867 -28.2929 35.3158 -12.4921 
-20.456 35.3158 -13.9107 -12.6191 35.3158 -14.1066 -4.78222 35.3158 -13.5657 
3.05468 35.3158 -13.2157 10.8916 35.3158 -12.9206 18.7285 35.3158 -12.7251 
-20.456 -44.7436 -11.442 -12.6191 -47.0321 -11.442 -12.6191 -50.8901 -3.62336 
-4.78222 -47.1562 -11.442 -4.78222 -50.8901 -3.98868 3.05468 -45.4645 -11.442 
-36.1298 -35.4626 -11.442 -24.0505 -43.0532 -11.442 -28.2929 -40.8866 -11.442 
-28.2929 -43.0532 -8.35193 8.95992 -43.0532 -11.442 10.8916 -42.109 -11.442 
10.8916 -43.0532 -10.2769 18.7285 -38.1185 -11.442 -36.436 -35.2163 -11.442 
-43.9667 -27.5714 -11.442 24.8244 -35.2163 -11.442 26.5654 -33.9501 -11.442 
26.5654 -35.2163 -10.388 34.4023 -31.0208 -11.442 34.4023 -35.2163 -5.93342 
-44.1209 -27.3794 -11.442 39.9182 -27.3794 -11.442 42.2392 -25.9192 -11.442 
42.2392 -27.3794 -10.2902 50.0761 -21.1522 -11.442 50.0761 -27.3794 -8.00983 
-49.759 -19.5425 -11.442 -51.8036 -12.7031 -11.442 -51.8036 -19.5425 -8.9991 
51.5133 -19.5425 -11.442 57.913 -14.2082 -11.442 57.913 -19.5425 -8.24151 
-52.0502 -11.7056 -11.442 59.0587 -11.7056 -11.442 -53.2811 -3.86871 -11.442 
60.8496 -3.86871 -11.442 -53.4424 3.96819 -11.442 -59.6405 3.96819 -3.81924 
59.2455 3.96819 -11.442 57.913 6.66972 -11.442 -51.9022 11.8051 -11.442 
-51.8036 12.231 -11.442 52.5983 11.8051 -11.442 50.0761 16.1872 -11.442 
57.913 11.8051 -7.6861 -49.1129 19.642 -11.442 -51.8036 19.642 -9.48445 
-43.9667 24.5962 -11.442 34.4023 26.9658 -11.442 46.1177 19.642 -11.442 
42.2392 22.6297 -11.442 50.0761 19.642 -10.2487 -41.2362 27.4789 -11.442 
-43.9667 27.4789 -9.87539 -36.1298 31.7892 -11.442 33.7476 27.4789 -11.442 
26.5654 32.0216 -11.442 34.4023 27.4789 -11.3012 42.2392 27.4789 -9.17057 
-31.0438 35.3158 -11.442 -36.1298 35.3158 -8.99412 -28.2929 37.1701 -11.442 
-20.456 39.6378 -11.442 -12.6191 40.8369 -11.442 -4.78222 40.6586 -11.442 
3.05468 40.2328 -11.442 10.8916 38.8229 -11.442 23.337 35.3158 -11.442 
18.7285 39.3934 -11.442 26.5654 35.3158 -10.3707 34.4023 35.3158 -8.15143 
-28.2929 43.1527 -5.96547 -20.456 43.1527 -8.70122 -12.6191 43.1527 -10.0738 
-4.78222 43.1527 -10.3146 3.05468 43.1527 -10.2871 10.8916 43.1527 -9.39424 
18.7285 43.1527 -9.18869 26.5654 43.1527 -4.93386 -12.6191 -50.8965 -3.60509 
-4.78222 -51.025 -3.60509 -28.2929 -45.3948 -3.60509 -12.6479 -50.8901 -3.60509 
-20.456 -49.0223 -3.60509 -12.6191 -50.8901 -3.53878 -4.11369 -50.8901 -3.60509 
-4.78222 -50.8901 -1.83725 3.05468 -49.3587 -3.60509 10.8916 -46.373 -3.60509 
-31.9829 -43.0532 -3.60509 -36.1298 -40.2837 -3.60509 17.7449 -43.0532 -3.60509 
18.7285 -42.5805 -3.60509 26.5654 -38.9676 -3.60509 34.4023 -36.2702 -3.60509 
-42.2369 -35.2163 -3.60509 -43.9667 -33.5814 -3.60509 38.0198 -35.2163 -3.60509 
42.2392 -33.7375 -3.60509 50.0761 -29.7424 -3.60509 -49.5831 -27.3794 -3.60509 
-51.8036 -24.0106 -3.60509 53.4518 -27.3794 -3.60509 57.913 -23.4276 -3.60509 
-54.5316 -19.5425 -3.60509 61.2523 -19.5425 -3.60509 -57.983 -11.7056 -3.60509 
64.1631 -11.7056 -3.60509 -59.6326 -3.86871 -3.60509 -59.6405 -3.39247 -3.60509 
65.1166 -3.86871 -3.60509 -59.7454 3.96819 -3.60509 -59.6405 5.00923 -3.60509 
-59.6405 3.96819 -0.453913 63.7634 3.96819 -3.60509 -58.7899 11.8051 -3.60509 
60.4923 11.8051 -3.60509 57.913 16.5935 -3.60509 -55.2468 19.642 -3.60509 
-51.8036 24.7503 -3.60509 55.9594 19.642 -3.60509 50.0761 26.7353 -3.60509 
-49.7284 27.4789 -3.60509 -43.9667 33.56 -3.60509 49.055 27.4789 -3.60509 
42.2392 33.411 -3.60509 -41.9649 35.3158 -3.60509 -36.1298 39.9456 -3.60509 
40.441 35.3158 -3.60509 34.4023 39.5987 -3.60509 -30.8814 43.1527 -3.60509 
-28.2929 44.5897 -3.60509 -20.456 47.2136 -3.60509 -12.6191 48.9281 -3.60509 
-4.78222 50.0214 -3.60509 3.05468 50.736 -3.60509 10.8916 49.3926 -3.60509 
18.7285 47.0539 -3.60509 28.4329 43.1527 -3.60509 26.5654 44.1587 -3.60509 
3.05468 50.9896 -0.247624 -28.2929 -44.3734 4.23181 -20.456 -47.7948 4.23181 
-12.6191 -50.0349 4.23181 -4.78222 -50.3731 4.23181 3.05468 -48.8254 4.23181 
10.8916 -45.398 4.23181 -30.3661 -43.0532 4.23181 -36.1298 -38.8265 4.23181 
-28.2929 -43.0532 6.44283 -20.456 -43.0532 10.491 15.8269 -43.0532 4.23181 
10.8916 -43.0532 8.41338 18.7285 -41.5862 4.23181 26.5654 -37.8776 4.23181 
34.4023 -35.5513 4.23181 -40.5769 -35.2163 4.23181 -43.9667 -31.9435 4.23181 
-36.1298 -35.2163 8.82926 18.7285 -35.2163 12.0294 26.5654 -35.2163 8.12074 
35.766 -35.2163 4.23181 34.4023 -35.2163 4.81078 42.2392 -33.2116 4.23181 
50.0761 -29.2334 4.23181 -48.0729 -27.3794 4.23181 -51.8036 -23.0726 4.23181 
-43.9667 -27.3794 8.87928 42.2392 -27.3794 10.0332 52.6476 -27.3794 4.23181 
50.0761 -27.3794 6.9389 57.913 -22.1809 4.23181 -54.1605 -19.5425 4.23181 
-51.8036 -19.5425 7.87252 50.0761 -19.5425 10.8102 59.8378 -19.5425 4.23181 
57.913 -19.5425 6.73568 -57.5699 -11.7056 4.23181 -51.8036 -11.7056 10.7115 
61.5237 -11.7056 4.23181 57.913 -11.7056 7.98922 -59.1001 -3.86871 4.23181 
50.0761 -3.86871 11.8136 61.7526 -3.86871 4.23181 57.913 -3.86871 7.76613 
-59.4585 3.96819 4.23181 50.0761 3.96819 11.2098 60.1871 3.96819 4.23181 
57.913 3.96819 6.48913 -58.4205 11.8051 4.23181 -51.8036 11.8051 11.1709 
50.0761 11.8051 9.81218 58.5577 11.8051 4.23181 57.913 13.4202 4.23181 
57.913 11.8051 4.91497 -54.985 19.642 4.23181 -51.8036 24.5568 4.23181 
-51.8036 19.642 9.16952 54.4735 19.642 4.23181 50.0761 26.2784 4.23181 
50.0761 19.642 8.83181 -49.4063 27.4789 4.23181 -43.9667 33.656 4.23181 
-43.9667 27.4789 10.1717 49.3091 27.4789 4.23181 42.2392 35.1114 4.23181 
42.2392 27.4789 9.65315 -42.2977 35.3158 4.23181 -36.1298 40.3481 4.23181 
-36.1298 35.3158 10.6581 41.9927 35.3158 4.23181 34.4023 40.3326 4.23181 
34.4023 35.3158 9.12442 -32.1455 43.1527 4.23181 -28.2929 45.3536 4.23181 
-28.2929 43.1527 7.94285 -20.456 48.0624 4.23181 -20.456 43.1527 11.2301 
-12.6191 49.7783 4.23181 -4.78222 50.8852 4.23181 10.8916 50.4628 4.23181 
10.8916 43.1527 12.0374 18.7285 47.9104 4.23181 18.7285 43.1527 9.45605 
30.0574 43.1527 4.23181 26.5654 45.001 4.23181 26.5654 43.1527 7.45095 
-2.72106 50.9896 4.23181 5.93864 50.9896 4.23181 3.05468 51.2496 4.23181 
3.05468 50.9896 4.78266 -12.6191 -44.086 12.0687 -4.78222 -45.0057 12.0687 
3.05468 -43.8335 12.0687 -28.2929 -37.5839 12.0687 -15.8522 -43.0532 12.0687 
-20.456 -41.211 12.0687 -12.6191 -43.0532 12.8548 -4.78222 -43.0532 13.5578 
4.94802 -43.0532 12.0687 3.05468 -43.0532 12.689 10.8916 -39.9557 12.0687 
-31.4039 -35.2163 12.0687 -36.1298 -31.3352 12.0687 -28.2929 -35.2163 13.5243 
-20.456 -35.2163 15.7719 -12.6191 -35.2163 16.5434 -4.78222 -35.2163 16.7208 
3.05468 -35.2163 16.6356 18.6537 -35.2163 12.0687 10.8916 -35.2163 14.8631 
18.7285 -35.1568 12.0687 26.5654 -30.705 12.0687 34.4023 -29.425 12.0687 
-40.0176 -27.3794 12.0687 -43.9667 -22.5949 12.0687 -36.1298 -27.3794 14.2499 
-28.2929 -27.3794 16.5431 -20.456 -27.3794 17.9343 -12.6191 -27.3794 17.7723 
[...]
POINT_DATA 522
SCALARS ImageScalars float
LOOKUP_TABLE default
0 0 0 0 0 0 0 0 0 
0 0 0 0 0 0 0 0 0 
0 0 0 0 0 0 0 0 0 
0 0 0 0 0 0 0 0 0 
0 0 0 0 0 0 0 0 0 
0 0 0 0 0 0 0 0 0 
0 0 0 0 0 0 0 0 0 
0 0 0 0 0 0 0 0 0 
0 0 0 0 0 0 0 0 0 
0 0 0 0 0 0 0 0 0 
0 0 0 0 0 0 0 0 0 
0 0 0 0 0 0 0 0 0 
0 0 0 0 0 0 0 0 0 
0 0 0 0 0 0 0 0 0 
0 0 0 0 0 0 0 0 0 
0 0 0 0 0 0 0 0 0 
0 0 0 0 0 0 0 0 0 
0 0 0 0 0 0 0 0 0 
0 0 0 0 0 0 0 0 0 
0 0 0 0 0 0 0 0 0 
0 0 0 0 0 0 0 0 0 
0 0 0 0 0 0 0 0 0 
0 0 0 0 0 0 0 0 0 
0 0 0 0 0 0 0 0 0 
0 0 0 0 0 0 0 0 0 
0 0 0 0 0 0 0 0 0 
0 0 0 0 0 0 0 0 0 
0 0 0 0 0 0 0 0 0 
0 0 0 0 0 0 0 0 0 
0 0 0 0 0 0 0 0 0 
0 0 0 0 0 0 0 0 0 
0 0 0 0 0 0 0 0 0 
0 0 0 0 0 0 0 0 0 
0 0 0 0 0 0 0 0 0 
0 0 0 0 0 0 0 0 0 
0 0 0 0 0 0 0 0 0 
0 0 0 0 0 0 0 0 0 
0 0 0 0 0 0 0 0 0 
0 0 0 0 0 0 0 0 0 
0 0 0 0 0 0 0 0 0 
0 0 0 0 0 0 0 0 0 
0 0 0 0 0 0 0 0 0 
0 0 0 0 0 0 0 0 0 
0 0 0 0 0 0 0 0 0 
0 0 0 0 0 0 0 0 0 
0 0 0 0 0 0 0 0 0 
0 0 0 0 0 0 0 0 0 
0 0 0 0 0 0 0 0 0 
0 0 0 0 0 0 0 0 0 
0 0 0 0 0 0 0 0 0 
0 0 0 0 0 0 0 0 0 
0 0 0 0 0 0 0 0 0 
0 0 0 0 0 0 0 0 0 
0 0 0 0 0 0 0 0 0 
0 0 0 0 0 0 0 0 0 
0 0 0 0 0 0 0 0 0 
0 0 0 0 0 0 0 0 0 
0 0 0 0 0 0 0 0 0 

NORMALS Normals float
0.253331 0.599474 0.759246 0.0973703 0.496754 0.862412 -0.0741347 0.482257 0.872887 
-0.21893 0.530132 0.819164 0.47902 0.588155 0.651624 0.277918 0.39102 0.877419 
0.11385 0.285849 0.951488 -0.0138382 0.19766 0.980173 -0.0534564 0.184797 0.981322 
-0.103671 0.22229 0.969453 -0.159166 0.309923 0.937344 -0.272805 0.458904 0.845567 
0.580705 0.442836 0.683139 0.29701 0.292131 0.90909 0.138822 0.168976 0.975795 
0.0396624 0.03279 0.998675 -0.029189 0.000263283 0.999574 -0.0469547 -0.0118048 0.998827 
-0.0693 0.0198095 0.997399 -0.0822814 0.0467834 0.99551 -0.117794 0.11366 0.986512 
-0.158966 0.255206 0.953729 -0.210503 0.365865 0.906549 0.415288 0.191638 0.889276 
0.208644 0.0877794 0.974044 0.0091445 0.0285991 0.999549 -0.0582931 -0.0625707 0.996337 
-0.0648784 -0.10936 0.991883 -0.0348455 -0.109206 0.993408 -0.0429638 -0.0237819 0.998794 
-0.0639225 -0.0687267 0.995586 -0.0500673 -0.0402491 0.997935 -0.0132469 0.0826279 0.996492 
-0.0412214 0.188812 0.981148 -0.171792 0.271697 0.946926 -0.365346 0.336407 0.867959 
0.588026 0.13791 0.796999 0.298692 0.0786112 0.951107 0.128158 -0.0222521 0.991504 
-0.00830385 -0.0511277 0.998658 -0.0985484 -0.0793352 0.991965 -0.0742273 -0.0367955 0.996562 
0.0365388 -0.0202178 0.999128 -0.0309458 -0.0264666 0.999171 -0.101719 0.0954919 0.990219 
0.0352801 -0.0320758 0.998863 0.067415 0.0382254 0.996992 0.00358674 0.0805655 0.996743 
-0.0421502 0.148781 0.987971 -0.244298 0.257079 0.935002 -0.50492 0.256453 0.824189 
0.54125 0.0512852 0.839296 0.250059 0.0210549 0.968002 0.0803466 -0.0107206 0.996709 
-0.0425429 -0.0445786 0.9981 -0.0427978 -0.0588392 0.99735 -0.00189904 0.0520245 0.998644 
-0.032836 0.0817618 0.996111 0.112013 -0.213035 0.970602 -0.131614 0.209542 0.968901 
-0.0985295 0.0302762 0.994673 0.10076 -0.00494318 0.994898 0.0667476 0.0186774 0.997595 
0.0108229 0.0268897 0.99958 -0.235933 0.030983 0.971275 -0.493001 0.0138381 0.869919 
0.526619 -0.0583284 0.848098 0.24012 -0.0207066 0.970522 0.0667073 -0.0300893 0.997319 
-0.05575 -0.0120296 0.998372 -0.00874245 -0.0179409 0.999801 0.0652057 -0.0569079 0.996248 
-0.195889 -0.0170851 0.980477 0.138129 -0.0494902 0.989177 0.0582306 -0.183351 0.981321 
-0.138955 -0.000240221 0.990299 0.0562035 -0.0412662 0.997566 0.0350646 -0.0690022 0.997 
-0.0270696 -0.147918 0.988629 -0.256148 -0.224582 0.940187 -0.541948 -0.264498 0.797705 
0.61115 -0.135237 0.779876 0.277601 -0.0909539 0.956381 0.0951605 -0.0724236 0.992824 
-0.0268116 -0.0326253 0.999108 -0.0805924 0.0206936 0.996532 0.00100615 -0.0446023 0.999004 
-0.0622211 -0.129255 0.989657 -0.0263881 0.00561589 0.999636 0.0149183 -0.184797 0.982664 
-0.0343546 -0.0478763 0.998262 0.0300201 -0.0948099 0.995043 -0.0384609 -0.187883 0.981438 
-0.163263 -0.22453 0.960693 -0.333614 -0.315935 0.888193 0.336355 -0.327451 0.882973 
0.135131 -0.203426 0.96972 0.0406028 -0.0973392 0.994423 -0.0224709 -0.0198099 0.999551 
-0.0900283 0.020636 0.995725 -0.134106 -0.0744531 0.988166 0.00447958 -0.03002 0.999539 
0.0507469 -0.0879954 0.994827 -0.045668 -0.0527799 0.997561 -0.0881504 -0.145564 0.985414 
-0.120191 -0.244312 0.962219 -0.18235 -0.308658 0.93353 0.284796 -0.342142 0.89545 
0.145279 -0.239889 0.959868 0.0405272 -0.14819 0.988128 -0.0541893 -0.114988 0.991888 
-0.116767 -0.0879536 0.989257 -0.0383569 -0.0451524 0.998243 -0.00162798 -0.131244 0.991349 
-0.095076 -0.134495 0.986343 -0.171919 -0.232176 0.95736 0.253408 -0.433477 0.864802 
0.0960875 -0.37455 0.922215 -0.0210481 -0.323591 0.945963 -0.0540455 -0.254659 0.96552 
-0.0398083 -0.225606 0.973405 -0.0305398 -0.272813 0.961582 -0.140125 -0.265966 0.953744 
0.281236 0.666047 0.69086 0.112807 0.712598 0.692444 0.11849 0.984836 0.126724 
-0.06884 0.715323 0.695395 -0.0914131 0.983153 0.158284 -0.245483 0.65826 0.71164 
0.483285 0.596872 0.640453 0.329967 0.666113 0.668891 0.373637 0.655235 0.656553 
0.444793 0.789332 0.423219 -0.302681 0.656798 0.690652 -0.307834 0.6506 0.694232 
-0.343239 0.729865 0.591172 -0.327731 0.619659 0.713173 0.487025 0.593427 0.64082 
0.5836 0.44911 0.676544 -0.293148 0.589697 0.752543 -0.270196 0.56274 0.781228 
-0.309921 0.669854 0.674718 -0.2578 0.543884 0.79858 -0.307646 0.893669 0.326664 
0.585076 0.446198 0.677195 -0.243382 0.513418 0.822902 -0.238217 0.521199 0.819515 
-0.273477 0.612637 0.741543 -0.374371 0.380934 0.84542 -0.459652 0.699075 0.547735 
0.627271 0.29062 0.722545 0.6044 0.159971 0.780455 0.757935 0.376138 0.532969 
-0.396029 0.358929 0.845181 -0.51093 0.332434 0.792741 -0.611568 0.544722 0.573814 
0.596518 0.14003 0.79029 -0.561412 0.263119 0.784592 0.602576 0.0621302 0.79564 
-0.676188 0.00128876 0.736728 0.588332 -0.057356 0.806583 0.967475 -0.0452376 0.248889 
-0.614005 -0.272326 0.740835 -0.555961 -0.327356 0.764032 0.616257 -0.136027 0.775708 
0.613327 -0.146067 0.776205 -0.410261 -0.342562 0.845185 -0.368885 -0.354288 0.859304 
-0.725226 -0.475205 0.498225 0.521615 -0.356436 0.775159 0.671899 -0.382935 0.633966 
0.427498 -0.430287 0.795046 -0.180352 -0.290989 0.939574 -0.292373 -0.356675 0.8873 
-0.244478 -0.368178 0.897037 -0.438574 -0.439238 0.784043 0.413565 -0.423429 0.806022 
0.52025 -0.497975 0.693802 0.351721 -0.466205 0.811754 -0.183476 -0.289772 0.939345 
-0.22502 -0.321621 0.919742 -0.188326 -0.298098 0.935773 -0.402839 -0.516984 0.75528 
0.309269 -0.480273 0.820787 0.445126 -0.617969 0.648056 0.272634 -0.495393 0.824777 
0.120936 -0.534633 0.836386 0.0374792 -0.506887 0.861197 -0.0153081 -0.42655 0.904335 
-0.0485828 -0.379377 0.923966 -0.0192822 -0.37982 0.92486 -0.212724 -0.331785 0.919058 
-0.16164 -0.4363 0.885164 -0.267531 -0.41149 0.871265 -0.405139 -0.569441 0.715262 
0.37746 -0.803126 0.460991 0.180279 -0.726085 0.663551 0.0777322 -0.624355 0.777263 
0.0111608 -0.54048 0.841283 -0.054532 -0.499701 0.86448 -0.0625069 -0.577544 0.813963 
-0.208203 -0.6623 0.719729 -0.407555 -0.778021 0.478103 0.118469 0.984968 0.125713 
-0.0921499 0.986209 0.137475 0.484026 0.864376 0.136284 0.119234 0.98488 0.12568 
0.331514 0.935119 0.125101 0.11874 0.985364 0.122303 -0.10783 0.984817 0.136043 
-0.0891362 0.994875 0.0477323 -0.282048 0.949704 0.136059 -0.404524 0.903442 0.141965 
0.528375 0.839693 0.125439 0.580536 0.80619 0.114171 -0.423479 0.895707 0.135552 
-0.425767 0.894442 0.13673 -0.368742 0.918958 0.139806 -0.314816 0.934298 0.167267 
0.663655 0.739208 0.114603 0.69066 0.713622 0.117182 -0.339141 0.921247 0.190492 
-0.380668 0.893992 0.236369 -0.502732 0.83769 0.213392 0.801491 0.581432 0.139819 
0.833689 0.528659 0.159628 -0.595463 0.772336 0.221182 -0.711344 0.663333 0.232334 
0.862059 0.470079 0.18942 -0.806415 0.552794 0.210034 0.931156 0.285605 0.226669 
-0.964212 0.223952 0.141917 0.966893 0.114469 0.228069 0.967867 0.104795 0.228588 
-0.995263 -0.0277195 0.0931879 0.970858 -0.0448184 0.235429 0.968125 -0.0753829 0.238854 
0.998901 -0.0410023 0.0227264 -0.955855 -0.280517 0.0874689 0.924864 -0.274229 0.263487 
-0.87644 -0.456844 0.152141 -0.822624 -0.530915 0.203514 0.850778 -0.470616 0.233875 
0.799899 -0.552601 0.234082 -0.780314 -0.581715 0.229603 -0.637471 -0.701878 0.317801 
0.760745 -0.599449 0.248855 0.644555 -0.714334 0.272538 -0.625973 -0.70289 0.337793 
-0.607988 -0.682126 0.40627 0.613707 -0.736636 0.284131 0.53214 -0.789364 0.306154 
-0.601173 -0.688161 0.406232 -0.516358 -0.758775 0.397033 0.445543 -0.838252 0.314364 
0.400511 -0.857839 0.32203 0.262248 -0.895425 0.359778 0.158156 -0.916049 0.368565 
0.100478 -0.921897 0.374178 -0.0325782 -0.927588 0.372181 -0.195055 -0.891423 0.409047 
-0.314143 -0.875543 0.367068 -0.4308 -0.811936 0.393919 -0.404565 -0.825527 0.393488 
-0.0295238 -0.992728 0.116703 0.465637 0.825504 -0.318944 0.329037 0.87578 -0.353191 
0.142493 0.936782 -0.319585 -0.0699979 0.956757 -0.282342 -0.278942 0.924358 -0.260297 
-0.412345 0.867021 -0.279725 0.496515 0.807506 -0.318444 0.567275 0.746367 -0.348044 
0.448965 0.782563 -0.431306 0.260566 0.673583 -0.691658 -0.423009 0.857762 -0.292073 
-0.390785 0.775915 -0.49522 -0.427637 0.847241 -0.315133 -0.32188 0.881391 -0.34575 
-0.262422 0.909921 -0.321214 0.613692 0.706841 -0.351792 0.659808 0.658943 -0.361176 
0.515145 0.635311 -0.575332 -0.333937 0.536108 -0.77529 -0.280992 0.774711 -0.566451 
-0.276559 0.907373 -0.316526 -0.255564 0.900098 -0.352861 -0.360547 0.873804 -0.326302 
-0.505437 0.794769 -0.33597 0.719767 0.594071 -0.359187 0.789205 0.527786 -0.314001 
0.606706 0.527014 -0.595117 -0.324167 0.608274 -0.724512 -0.587467 0.727246 -0.354959 
-0.500489 0.686895 -0.526959 -0.757049 0.504377 -0.415307 0.832062 0.464015 -0.303911 
0.739529 0.421591 -0.524746 -0.431302 0.254553 -0.865553 -0.813778 0.415664 -0.406189 
-0.717326 0.424029 -0.55285 0.892266 0.303665 -0.33414 0.642855 0.210129 -0.736602 
-0.807937 0.11947 -0.577031 -0.7156 0.0499864 -0.696719 0.945254 0.0984125 -0.311144 
-0.335271 -0.0566413 -0.940418 -0.815684 -0.0723802 -0.573951 -0.605147 -0.078139 -0.79227 
0.953738 -0.032984 -0.298823 -0.336019 -0.118155 -0.934414 -0.792122 -0.171641 -0.585732 
-0.677425 -0.153975 -0.719296 0.904745 -0.272164 -0.327664 0.614499 -0.162416 -0.772018 
-0.454098 -0.13538 -0.880606 -0.793295 -0.268992 -0.546193 -0.788713 -0.310722 -0.530456 
-0.761756 -0.258649 -0.593994 0.846641 -0.447526 -0.287957 0.793981 -0.544192 -0.271016 
0.715221 -0.364081 -0.596577 -0.765697 -0.47264 -0.436256 -0.751002 -0.543004 -0.375688 
-0.574786 -0.322435 -0.752102 0.753317 -0.593406 -0.283518 0.686972 -0.686396 -0.2386 
0.608158 -0.465878 -0.642729 -0.748859 -0.556984 -0.359136 -0.627186 -0.742503 -0.235218 
-0.550199 -0.37597 -0.745605 0.661071 -0.716554 -0.222566 0.577519 -0.789847 -0.206429 
0.492734 -0.591243 -0.63847 -0.623263 -0.745488 -0.2362 -0.541736 -0.796846 -0.267503 
-0.419346 -0.596194 -0.684618 0.495058 -0.846808 -0.194507 0.412091 -0.887552 -0.20599 
0.374447 -0.814237 -0.443629 0.275847 -0.939348 -0.203797 0.209783 -0.68796 -0.694767 
0.167627 -0.963589 -0.208318 0.0893666 -0.978892 -0.183807 -0.188427 -0.958414 -0.214332 
-0.16781 -0.424491 -0.889746 -0.332839 -0.904067 -0.268107 -0.232609 -0.663628 -0.710979 
-0.469635 -0.857105 -0.211696 -0.413342 -0.884513 -0.2163 -0.359261 -0.801654 -0.477788 
0.0599357 -0.97978 -0.190888 -0.082806 -0.973787 -0.211855 -0.0234718 -0.976376 -0.214802 
-0.025695 -0.967095 -0.253115 0.149583 0.617096 -0.772539 -0.0116281 0.63285 -0.774187 
-0.203326 0.646872 -0.734993 0.351465 0.541215 -0.76391 0.186911 0.60491 -0.774046 
0.234921 0.581505 -0.778886 0.146002 0.576956 -0.80362 -0.00780562 0.541982 -0.840354 
-0.239094 0.640808 -0.72952 -0.195182 0.615749 -0.763385 -0.339891 0.57926 -0.7409 
0.391806 0.519381 -0.759429 0.441183 0.481752 -0.757148 0.327206 0.463459 -0.823494 
0.182567 0.403277 -0.896681 0.0520409 0.278443 -0.959042 0.00620533 0.252242 -0.967644 
-0.10557 0.285821 -0.95245 -0.333117 0.533525 -0.777422 -0.274703 0.377865 -0.88417 
-0.332379 0.532742 -0.778274 -0.177987 0.521856 -0.834259 -0.209584 0.549717 -0.808632 
0.480438 0.429977 -0.764395 0.48044 0.381335 -0.789785 0.376906 0.369518 -0.849351 
0.212417 0.254589 -0.943432 0.0788937 0.150046 -0.985526 -0.0106951 0.0880959 -0.996055 
0.00567257 0.0349315 -0.999374 -0.0580673 0.0604209 -0.996483 -0.151003 0.112166 -0.982149 
-0.164493 0.238596 -0.957086 -0.128081 0.399775 -0.90762 -0.253867 0.507999 -0.823097 
-0.197596 0.459652 -0.865838 -0.299413 0.429437 -0.852019 0.501068 0.331731 -0.799303 
0.426241 0.304246 -0.851911 0.281087 0.196743 -0.939299 0.0965739 0.105901 -0.989676 
-0.0089297 -0.00508279 -0.999947 -0.0648629 -0.0432946 -0.996955 -0.021153 -0.0104076 -0.999722 
-0.0321453 0.0532953 -0.998061 -0.0847281 -0.0370938 -0.995713 -0.0437554 0.0454603 -0.998007 
-0.0215508 0.123138 -0.992155 -0.125757 0.173452 -0.97678 -0.366316 0.222467 -0.903505 
-0.26948 0.20953 -0.939935 -0.327516 0.0577773 -0.943078 0.553523 0.187367 -0.811484 
0.585799 0.115109 -0.80224 0.357516 0.171062 -0.918107 0.172421 0.0807191 -0.98171 
0.0263738 0.0249521 -0.999341 -0.0702835 -0.0324787 -0.996998 -0.0190889 -0.0620569 -0.99789 
0.108089 0.0795442 -0.990954 -0.0988546 0.0245971 -0.994798 -0.153531 0.0552305 -0.986599 
0.00199759 -0.00472929 -0.999987 -0.0108295 -0.034085 -0.99936 -0.10721 -0.0398779 -0.993436 
-0.226336 0.0114983 -0.973981 -0.329066 0.0506601 -0.942947 -0.324982 0.0325748 -0.945159 
-0.322857 0.0504285 -0.945103 0.591017 0.0925626 -0.801331 0.57891 0.0926179 -0.810114 
0.304405 0.0671324 -0.950174 0.12318 0.0383895 -0.991642 -0.0144279 0.0113335 -0.999832 
-0.0976464 -0.00182056 -0.99522 0.0453271 0.0315044 -0.998475 0.0600933 0.0624612 -0.996237 
-0.059225 -0.164294 -0.984632 -0.101007 0.103808 -0.989455 -0.134199 -0.0335484 -0.990386 
-0.0574651 -0.0982605 -0.9935 -0.0673947 -0.0872437 -0.993905 -0.318984 -0.0589692 -0.945924 
-0.209693 -0.0833529 -0.974208 0.585812 -0.0623726 -0.808044 0.574499 -0.0966175 -0.812783 
0.566683 -0.063593 -0.821478 0.293846 -0.0554762 -0.954241 0.116826 -0.0446232 -0.992149 
-0.0122167 -0.0280442 -0.999532 -0.0495804 -0.0264376 -0.99842 0.0491326 -0.0324049 -0.998266 
-0.0718748 -0.0708992 -0.994891 -0.0477819 0.00254882 -0.998855 -0.0514746 -0.146408 -0.987884 
-0.198311 -0.0586097 -0.978385 -0.0581927 -0.0260016 -0.997967 -0.0981181 -0.0287411 -0.99476 
-0.2671 -0.105064 -0.957924 -0.205068 -0.0990332 -0.973725 0.547023 -0.144764 -0.824506 
0.329203 -0.139829 -0.933849 0.151398 -0.0687654 -0.986078 0.00299349 -0.038493 -0.999254 
-0.0972026 -0.0144052 -0.99516 -0.0135276 -0.0505232 -0.998631 0.0848969 -0.151009 -0.98488 
-0.134423 -0.0300908 -0.990467 -0.141254 -0.154044 -0.977915 -0.0134553 -0.0259532 -0.999573 
-0.0258852 0.0282297 -0.999266 -0.140238 -0.00750493 -0.990089 -0.334404 -0.0695897 -0.939857 
-0.303426 -0.064386 -0.950677 0.522701 -0.293048 -0.800567 0.500322 -0.365653 -0.784842 
0.382405 -0.251443 -0.889125 0.23885 -0.142806 -0.960498 0.0388414 -0.0842267 -0.995689 
-0.0638702 0.000268279 -0.997958 -0.0763466 0.0292864 -0.996651 -0.0435388 -0.0528887 -0.997651 
-0.0642002 -0.105357 -0.99236 -0.0567998 0.00716942 -0.99836 -0.010948 -0.023182 -0.999671 
-0.0426826 -0.0359013 -0.998443 -0.176699 -0.0841679 -0.98066 -0.303359 -0.195051 -0.9327 
-0.303369 -0.197042 -0.932278 -0.296964 -0.192224 -0.935341 0.512792 -0.391957 -0.763816 
0.445185 -0.501051 -0.742131 0.314625 -0.291322 -0.903406 0.133331 -0.185327 -0.97359 
0.0154596 -0.10445 -0.99441 -0.066061 -0.0576628 -0.996148 -0.0671385 -0.0485543 -0.996562 
-0.0558512 -0.0529515 -0.997034 -0.0632695 -0.0495964 -0.996763 -0.0562904 -0.104533 -0.992927 
-0.0894159 -0.172339 -0.980971 -0.366798 -0.290688 -0.883719 -0.299648 -0.373953 -0.877708 
-0.256233 -0.263729 -0.929942 0.414415 -0.527371 -0.741715 0.288284 -0.59106 -0.753352 
0.241192 -0.397017 -0.885553 0.183058 -0.61516 -0.766856 0.0752362 -0.315991 -0.945774 
-0.00930081 -0.261086 -0.965271 -0.0372642 -0.204457 -0.978166 -0.0676927 -0.187859 -0.979861 
-0.167106 -0.420973 -0.891548 -0.119076 -0.224873 -0.967085 -0.137316 -0.390399 -0.910347 
-0.121573 -0.278423 -0.952733 -0.243717 -0.339292 -0.908561 -0.229929 -0.358317 -0.904843 
-0.217565 -0.303902 -0.927529 0.139268 -0.593913 -0.792384 0.0974436 -0.569434 -0.816241 
0.0838563 -0.539872 -0.83756 0.0295674 -0.537794 -0.842557 0.0137696 -0.46005 -0.887786 
-0.163789 -0.423395 -0.891016 -0.0585767 -0.488676 -0.870497 -0.0603819 -0.426328 -0.902551 

