# vtk DataFile Version 4.2
vtk output
ASCII
DATASET POLYDATA
POINTS 514 float
-26.9988 -37.7294 -16.9475 -18.711 -37.7294 -19.4683 -10.4231 -37.7294 -20.5486 
-2.13531 -37.7294 -21.779 6.15253 -37.7294 -22.402 14.4404 -37.7294 -21.6578 
22.7282 -37.7294 -18.8669 -35.2867 -29.4416 -19.5115 -26.9988 -29.4416 -21.9539 
-18.711 -29.4416 -23.449 -10.4231 -29.4416 -23.1011 -2.13531 -29.4416 -23.9684 
6.15253 -29.4416 -24.8147 14.4404 -29.4416 -24.6892 22.7282 -29.4416 -23.8752 
31.016 -29.4416 -21.3971 -43.5745 -21.1538 -18.8203 -35.2867 -21.1538 -22.6698 
-26.9988 -21.1538 -23.5907 -18.711 -21.1538 -24.3831 -10.4231 -21.1538 -23.5726 
-2.13531 -21.1538 -23.4475 6.15253 -21.1538 -24.3526 14.4404 -21.1538 -24.674 
22.7282 -21.1538 -24.1523 31.016 -21.1538 -22.8263 39.3039 -21.1538 -20.666 
-51.8623 -12.8659 -16.5822 -43.5745 -12.8659 -20.9867 -35.2867 -12.8659 -22.8213 
-26.9988 -12.8659 -23.6981 -18.711 -12.8659 -23.47 -10.4231 -12.8659 -23.11 
-2.13531 -12.8659 -23.2873 6.15253 -12.8659 -23.66 14.4404 -12.8659 -23.2555 
22.7282 -12.8659 -23.0911 31.016 -12.8659 -23.7101 39.3039 -12.8659 -22.7921 
47.5917 -12.8659 -19.2425 -51.8623 -4.5781 -17.5529 -43.5745 -4.5781 -21.5347 
-35.2867 -4.5781 -22.9449 -26.9988 -4.5781 -22.9758 -18.711 -4.5781 -22.2896 
-10.4231 -4.5781 -23.0691 -2.13531 -4.5781 -24.0421 6.15253 -4.5781 -23.7465 
14.4404 -4.5781 -21.9588 22.7282 -4.5781 -22.393 31.016 -4.5781 -22.8965 
39.3039 -4.5781 -22.536 47.5917 -4.5781 -20.7823 -51.8623 3.70974 -17.8663 
-43.5745 3.70974 -21.2004 -35.2867 3.70974 -22.202 -26.9988 3.70974 -21.8892 
-18.711 3.70974 -20.7722 -10.4231 3.70974 -21.2424 -2.13531 3.70974 -20.9309 
6.15253 3.70974 -22.5411 14.4404 3.70974 -22.5815 22.7282 3.70974 -22.609 
31.016 3.70974 -22.939 39.3039 3.70974 -22.4815 47.5917 3.70974 -20.7678 
-51.8623 11.9976 -16.7467 -43.5745 11.9976 -19.4958 -35.2867 11.9976 -20.4595 
-26.9988 11.9976 -19.5878 -18.711 11.9976 -18.0377 -10.4231 11.9976 -17.9565 
-2.13531 11.9976 -19.4765 6.15253 11.9976 -21.1727 14.4404 11.9976 -22.1047 
22.7282 11.9976 -22.309 31.016 11.9976 -22.5896 39.3039 11.9976 -21.883 
47.5917 11.9976 -19.6472 -35.2867 20.2854 -17.4648 -26.9988 20.2854 -16.7687 
-2.13531 20.2854 -16.9231 6.15253 20.2854 -18.1663 14.4404 20.2854 -19.6476 
22.7282 20.2854 -20.4388 31.016 20.2854 -20.3626 39.3039 20.2854 -19.1784 
14.4404 28.5732 -16.7148 22.7282 28.5732 -17.2835 31.016 28.5732 -16.6682 
-26.9988 -38.1129 -16.5508 -18.711 -40.8449 -16.5508 -10.4231 -42.4952 -16.5508 
-2.13531 -43.7125 -16.5508 6.15253 -43.8231 -16.5508 14.4404 -42.5754 -16.5508 
22.7282 -39.6806 -16.5508 -27.8885 -37.7294 -16.5508 -35.2867 -33.588 -16.5508 
-35.2867 -37.7294 -9.38509 26.7533 -37.7294 -16.5508 31.016 -35.291 -16.5508 
31.016 -37.7294 -9.93812 -40.6208 -29.4416 -16.5508 -43.5745 -26.0183 -16.5508 
-43.5745 -29.4416 -13.5553 39.0004 -29.4416 -16.5508 39.3039 -29.1172 -16.5508 
39.3039 -29.4416 -16.2001 -46.8091 -21.1538 -16.5508 -51.8623 -12.9361 -16.5508 
-51.8623 -21.1538 -10.2888 46.6453 -21.1538 -16.5508 47.5917 -19.7752 -16.5508 
47.5917 -21.1538 -15.6722 -51.8971 -12.8659 -16.5508 51.6673 -12.8659 -16.5508 
55.8795 -12.8659 -11.64 -52.9986 -4.5781 -16.5508 55.1086 -4.5781 -16.5508 
55.8795 -4.5781 -15.8597 -53.5323 3.70974 -16.5508 55.7143 3.70974 -16.5508 
55.8795 3.70974 -16.4173 -52.1095 11.9976 -16.5508 -51.8623 12.414 -16.5508 
-43.5745 18.2823 -16.5508 -18.711 18.6938 -16.5508 -10.4231 18.8885 -16.5508 
52.7794 11.9976 -16.5508 47.5917 19.0382 -16.5508 55.8795 11.9976 -14.0746 
-51.8623 20.2854 -11.7931 -39.4025 20.2854 -16.5508 -43.5745 20.2854 -15.424 
-35.2867 22.4605 -16.5508 -23.7696 20.2854 -16.5508 -26.9988 20.9915 -16.5508 
-18.711 20.2854 -16.227 -6.91329 20.2854 -16.5508 -10.4231 20.2854 -16.2927 
-2.13531 21.986 -16.5508 6.15253 25.6297 -16.5508 46.263 20.2854 -16.5508 
39.3039 24.9989 -16.5508 47.5917 20.2854 -15.9292 55.8795 20.2854 -8.64571 
-43.5745 28.5732 -10.8426 -35.2867 28.5732 -13.2508 -26.9988 28.5732 -14.3918 
-18.711 28.5732 -14.5433 -10.4231 28.5732 -15.1064 -2.13531 28.5732 -15.0517 
13.1707 28.5732 -16.5508 6.15253 28.5732 -15.6234 14.4404 28.8901 -16.5508 
22.7282 29.7214 -16.5508 31.4581 28.5732 -16.5508 31.016 28.742 -16.5508 
39.3039 28.5732 -13.943 47.5917 28.5732 -8.35493 -26.9988 36.8611 -10.3985 
-18.711 36.8611 -11.2385 -10.4231 36.8611 -11.4383 -2.13531 36.8611 -11.0007 
6.15253 36.8611 -11.1403 14.4404 36.8611 -11.5044 22.7282 36.8611 -10.6863 
-35.2867 -38.1644 -8.26301 -26.9988 -41.8796 -8.26301 -18.711 -44.357 -8.26301 
-10.4231 -45.7457 -8.26301 -2.13531 -45.9356 -8.26301 6.15253 -45.1282 -8.26301 
14.4404 -43.536 -8.26301 22.7282 -41.3259 -8.26301 31.016 -38.1736 -8.26301 
-35.9928 -37.7294 -8.26301 -43.5745 -32.4924 -8.26301 31.879 -37.7294 -8.26301 
31.016 -37.7294 -0.585344 39.3039 -33.4722 -8.26301 -46.7002 -29.4416 -8.26301 
-51.8623 -22.7908 -8.26301 44.7888 -29.4416 -8.26301 47.5917 -26.9357 -8.26301 
-52.9757 -21.1538 -8.26301 52.7643 -21.1538 -8.26301 55.8795 -16.2825 -8.26301 
-56.4256 -12.8659 -8.26301 57.8265 -12.8659 -8.26301 -58.8639 -4.5781 -8.26301 
60.8831 -4.5781 -8.26301 -59.8232 3.70974 -8.26301 -60.1502 3.70974 -2.28388 
61.4959 3.70974 -8.26301 -58.7375 11.9976 -8.26301 59.9607 11.9976 -8.26301 
-54.6976 20.2854 -8.26301 -51.8623 23.7602 -8.26301 56.1478 20.2854 -8.26301 
55.8795 20.6371 -8.26301 -46.774 28.5732 -8.26301 -43.5745 31.2213 -8.26301 
-35.2867 35.9336 -8.26301 31.016 36.7071 -8.26301 39.3039 33.3594 -8.26301 
47.6826 28.5732 -8.26301 47.5917 28.6389 -8.26301 -33.5376 36.8611 -8.26301 
-35.2867 36.8611 -7.284 -26.9988 39.3401 -8.26301 -18.711 40.5621 -8.26301 
-10.4231 40.5633 -8.26301 -2.13531 39.8631 -8.26301 6.15253 39.8204 -8.26301 
14.4404 39.8362 -8.26301 30.4603 36.8611 -8.26301 22.7282 38.7987 -8.26301 
31.016 36.8611 -7.8077 -18.711 45.1489 -1.27873 -10.4231 45.1489 -0.235598 
-35.2867 -38.1272 0.0248283 -26.9988 -41.7234 0.0248283 -18.711 -44.1821 0.0248283 
-10.4231 -45.2747 0.0248283 -2.13531 -45.0193 0.0248283 6.15253 -43.7408 0.0248283 
14.4404 -42.16 0.0248283 22.7282 -40.3128 0.0248283 -35.9722 -37.7294 0.0248283 
-43.5745 -32.8335 0.0248283 -35.2867 -37.7294 1.16133 30.9009 -37.7294 0.0248283 
22.7282 -37.7294 7.28038 31.016 -37.6901 0.0248283 39.3039 -33.1882 0.0248283 
-47.2048 -29.4416 0.0248283 -51.8623 -23.2968 0.0248283 -43.5745 -29.4416 7.4123 
44.587 -29.4416 0.0248283 39.3039 -29.4416 8.26686 47.5917 -26.7947 0.0248283 
-53.2879 -21.1538 0.0248283 -51.8623 -21.1538 3.47236 52.9261 -21.1538 0.0248283 
55.8795 -16.5401 0.0248283 -57.0238 -12.8659 0.0248283 57.8716 -12.8659 0.0248283 
55.8795 -12.8659 3.99818 -59.3151 -4.5781 0.0248283 -60.1502 2.59208 0.0248283 
61.3235 -4.5781 0.0248283 -60.2655 3.70974 0.0248283 -60.1502 5.58381 0.0248283 
-60.1502 3.70974 0.270768 62.2456 3.70974 0.0248283 -59.7028 11.9976 0.0248283 
61.3219 11.9976 0.0248283 -56.3481 20.2854 0.0248283 -51.8623 27.4421 0.0248283 
58.2304 20.2854 0.0248283 55.8795 23.4971 0.0248283 55.8795 20.2854 6.91422 
-51.0453 28.5732 0.0248283 -43.5745 35.9878 0.0248283 39.3039 35.5636 0.0248283 
50.9407 28.5732 0.0248283 47.5917 31.0582 0.0248283 -42.3079 36.8611 0.0248283 
-35.2867 41.2113 0.0248283 -26.9988 44.275 0.0248283 -2.13531 44.2386 0.0248283 
6.15253 43.7409 0.0248283 14.4404 42.8897 0.0248283 22.7282 41.255 0.0248283 
36.1593 36.8611 0.0248283 31.016 38.9354 0.0248283 -22.2041 45.1489 0.0248283 
-18.711 45.767 0.0248283 -9.5019 45.1489 0.0248283 -10.4231 45.2582 0.0248283 
-10.4231 45.1489 5.26623 -26.9988 -38.2819 8.31266 -18.711 -40.5232 8.31266 
-10.4231 -41.7138 8.31266 -2.13531 -41.5631 8.31266 6.15253 -40.5741 8.31266 
14.4404 -39.3393 8.31266 -28.3904 -37.7294 8.31266 -35.2867 -34.5419 8.31266 
-26.9988 -37.7294 9.02605 -18.711 -37.7294 11.6243 -10.4231 -37.7294 13.2213 
-2.13531 -37.7294 13.497 6.15253 -37.7294 12.5392 21.1793 -37.7294 8.31266 
14.4404 -37.7294 10.8222 22.7282 -37.3224 8.31266 31.016 -34.2018 8.31266 
-42.8693 -29.4416 8.31266 -43.5745 -28.8614 8.31266 -35.2867 -29.4416 13.4398 
39.2639 -29.4416 8.31266 31.016 -29.4416 13.7047 39.3039 -29.4133 8.31266 
47.5917 -21.5539 8.31266 -49.5456 -21.1538 8.31266 -51.8623 -16.5525 8.31266 
-43.5745 -21.1538 14.5256 39.3039 -21.1538 14.8877 47.9728 -21.1538 8.31266 
47.5917 -21.1538 8.66018 -53.5822 -12.8659 8.31266 -51.8623 -12.8659 10.5047 
53.1603 -12.8659 8.31266 47.5917 -12.8659 13.5736 55.8795 -7.36338 8.31266 
-55.1957 -4.5781 8.31266 -51.8623 -4.5781 12.3828 47.5917 -4.5781 15.9593 
57.0946 -4.5781 8.31266 55.8795 -4.5781 9.62197 -55.835 3.70974 8.31266 
-51.8623 3.70974 12.9589 58.3241 3.70974 8.31266 55.8795 3.70974 10.9587 
-55.5294 11.9976 8.31266 -51.8623 11.9976 12.7591 57.9611 11.9976 8.31266 
55.8795 18.7303 8.31266 55.8795 11.9976 10.7043 -52.8161 20.2854 8.31266 
-51.8623 22.0061 8.31266 -51.8623 20.2854 9.35992 55.3243 20.2854 8.31266 
47.5917 20.2854 15.9234 -48.3532 28.5732 8.31266 -43.5745 34.3293 8.31266 
-43.5745 28.5732 13.8889 39.3039 34.0917 8.31266 39.3039 28.5732 16.5312 
48.2233 28.5732 8.31266 47.5917 29.107 8.31266 47.5917 28.5732 9.13777 
-40.9774 36.8611 8.31266 -35.2867 40.8546 8.31266 -35.2867 36.8611 14.1033 
-26.9988 44.049 8.31266 -10.4231 45.0834 8.31266 -2.13531 44.2969 8.31266 
6.15253 43.5049 8.31266 14.4404 42.0885 8.31266 22.7282 39.9467 8.31266 
22.7282 36.8611 14.6799 32.5697 36.8611 8.31266 31.016 37.4691 8.31266 
31.016 36.8611 9.67208 -21.2716 45.1489 8.31266 -11.4301 45.1489 8.31266 
-18.711 45.6239 8.31266 -18.711 45.1489 9.37677 -26.9988 -29.6239 16.6005 
-18.711 -31.5657 16.6005 -10.4231 -33.3161 16.6005 -2.13531 -34.1511 16.6005 
6.15253 -33.5651 16.6005 14.4404 -32.3738 16.6005 22.7282 -29.9573 16.6005 
-27.3848 -29.4416 16.6005 -35.2867 -25.1133 16.6005 -26.9988 -29.4416 16.7289 
-18.711 -29.4416 17.918 -10.4231 -29.4416 18.8952 -2.13531 -29.4416 19.5591 
6.15253 -29.4416 19.2932 14.4404 -29.4416 18.6292 23.8838 -29.4416 16.6005 
22.7282 -29.4416 16.9831 31.016 -24.7342 16.6005 -40.0728 -21.1538 16.6005 
[...]
POINT_DATA 514
SCALARS ImageScalars float
LOOKUP_TABLE default
0 0 0 0 0 0 0 0 0 
0 0 0 0 0 0 0 0 0 
0 0 0 0 0 0 0 0 0 
0 0 0 0 0 0 0 0 0 
0 0 0 0 0 0 0 0 0 
0 0 0 0 0 0 0 0 0 
0 0 0 0 0 0 0 0 0 
0 0 0 0 0 0 0 0 0 
0 0 0 0 0 0 0 0 0 
0 0 0 0 0 0 0 0 0 
0 0 0 0 0 0 0 0 0 
0 0 0 0 0 0 0 0 0 
0 0 0 0 0 0 0 0 0 
0 0 0 0 0 0 0 0 0 
0 0 0 0 0 0 0 0 0 
0 0 0 0 0 0 0 0 0 
0 0 0 0 0 0 0 0 0 
0 0 0 0 0 0 0 0 0 
0 0 0 0 0 0 0 0 0 
0 0 0 0 0 0 0 0 0 
0 0 0 0 0 0 0 0 0 
0 0 0 0 0 0 0 0 0 
0 0 0 0 0 0 0 0 0 
0 0 0 0 0 0 0 0 0 
0 0 0 0 0 0 0 0 0 
0 0 0 0 0 0 0 0 0 
0 0 0 0 0 0 0 0 0 
0 0 0 0 0 0 0 0 0 
0 0 0 0 0 0 0 0 0 
0 0 0 0 0 0 0 0 0 
0 0 0 0 0 0 0 0 0 
0 0 0 0 0 0 0 0 0 
0 0 0 0 0 0 0 0 0 
0 0 0 0 0 0 0 0 0 
0 0 0 0 0 0 0 0 0 
0 0 0 0 0 0 0 0 0 
0 0 0 0 0 0 0 0 0 
0 0 0 0 0 0 0 0 0 
0 0 0 0 0 0 0 0 0 
0 0 0 0 0 0 0 0 0 
0 0 0 0 0 0 0 0 0 
0 0 0 0 0 0 0 0 0 
0 0 0 0 0 0 0 0 0 
0 0 0 0 0 0 0 0 0 
0 0 0 0 0 0 0 0 0 
0 0 0 0 0 0 0 0 0 
0 0 0 0 0 0 0 0 0 
0 0 0 0 0 0 0 0 0 
0 0 0 0 0 0 0 0 0 
0 0 0 0 0 0 0 0 0 
0 0 0 0 0 0 0 0 0 
0 0 0 0 0 0 0 0 0 
0 0 0 0 0 0 0 0 0 
0 0 0 0 0 0 0 0 0 
0 0 0 0 0 0 0 0 0 
0 0 0 0 0 0 0 0 0 
0 0 0 0 0 0 0 0 0 
0 
NORMALS Normals float
-0.304996 -0.710536 -0.634126 -0.18524 -0.599078 -0.778968 -0.12773 -0.501989 -0.85539 
-0.107054 -0.474184 -0.873893 0.00304949 -0.505903 -0.862585 0.171459 -0.581677 -0.795144 
0.365632 -0.708572 -0.603521 -0.378382 -0.462221 -0.801984 -0.208447 -0.338424 -0.917616 
-0.0648022 -0.249073 -0.966314 -0.0325607 -0.166611 -0.985485 -0.102502 -0.0886779 -0.990772 
-0.0434109 -0.100102 -0.99403 0.0509565 -0.15126 -0.98718 0.188853 -0.245369 -0.950857 
0.379742 -0.391739 -0.838055 -0.500309 -0.322487 -0.80355 -0.26057 -0.170431 -0.950293 
-0.0933296 -0.0971618 -0.990883 -0.00111929 0.00378737 -0.999992 0.0555503 0.000144078 -0.998456 
-0.0469601 0.0402286 -0.998086 -0.0736689 0.0686365 -0.994918 0.0117324 0.0828351 -0.996494 
0.10786 0.0482834 -0.992993 0.201507 -0.125483 -0.971416 0.34345 -0.323739 -0.881609 
-0.674466 -0.244244 -0.696736 -0.335814 -0.146111 -0.930527 -0.162801 -0.0153882 -0.986539 
-0.0385078 0.0366877 -0.998585 0.035987 0.126671 -0.991292 0.0104593 0.0302445 -0.999488 
-0.0337142 -0.0349031 -0.998822 0.000988107 0.0366262 -0.999329 0.034398 0.165385 -0.985629 
-0.0268981 0.106274 -0.993973 0.0132597 -0.00140665 -0.999911 0.240201 -0.0986305 -0.965699 
0.466244 -0.236675 -0.852409 -0.586336 -0.0683587 -0.807178 -0.278684 -0.0141412 -0.960279 
-0.0815117 0.0370771 -0.995982 0.039316 0.108337 -0.993336 -0.00399796 0.157211 -0.987557 
-0.104753 0.107594 -0.988661 -0.039714 0.13562 -0.989965 0.126611 0.0655692 -0.989783 
0.0788949 0.0377702 -0.996167 -0.0565262 0.0280202 -0.998008 -0.00877765 0.0449487 -0.998951 
0.123288 0.0171499 -0.992223 0.342841 -0.0819718 -0.93581 -0.531508 0.0461325 -0.845796 
-0.227023 0.122229 -0.966189 -0.038661 0.153186 -0.987441 0.0834328 0.195374 -0.977174 
0.0399777 0.240655 -0.969787 -0.00974319 0.297447 -0.954689 -0.0768412 0.269016 -0.960066 
-0.0965172 0.149912 -0.983977 -0.00402462 -0.00948633 -0.999947 -0.0215366 0.00549989 -0.999753 
0.00749062 0.0178007 -0.999813 0.12866 0.0370221 -0.990997 0.324974 0.0574499 -0.943976 
-0.526164 0.269733 -0.806471 -0.201463 0.285194 -0.937058 -0.00792234 0.28218 -0.959329 
0.137528 0.293851 -0.945906 0.0951282 0.273455 -0.957169 -0.0853916 0.291605 -0.95272 
-0.181169 0.233216 -0.955399 -0.156567 0.256718 -0.95372 -0.0656903 0.16772 -0.983644 
-0.0280149 0.125262 -0.991728 0.0233082 0.155146 -0.987617 0.154572 0.185826 -0.970349 
0.379437 0.245932 -0.891933 -0.0564652 0.386386 -0.920607 0.0750146 0.307186 -0.948688 
-0.108826 0.25376 -0.961126 -0.156228 0.314091 -0.936451 -0.13137 0.311093 -0.941256 
-0.039901 0.285008 -0.957694 0.069802 0.324453 -0.943323 0.223309 0.385508 -0.895274 
-0.0893036 0.397349 -0.913312 0.0007367 0.468828 -0.883289 0.151775 0.531706 -0.833218 
-0.309517 -0.72588 -0.614245 -0.221057 -0.750865 -0.622363 -0.143938 -0.769946 -0.621663 
-0.0660959 -0.843918 -0.532385 0.0648977 -0.892705 -0.445945 0.221639 -0.881645 -0.416626 
0.382656 -0.807767 -0.448427 -0.323921 -0.721353 -0.612148 -0.439529 -0.630031 -0.640215 
-0.482809 -0.847842 -0.219223 0.419805 -0.771243 -0.478485 0.451652 -0.713194 -0.536064 
0.428506 -0.887106 -0.171536 -0.529303 -0.53177 -0.661105 -0.56229 -0.469537 -0.680709 
-0.628309 -0.606789 -0.486862 0.529648 -0.581926 -0.617118 0.528387 -0.576291 -0.623455 
0.536027 -0.595624 -0.598253 -0.588799 -0.386932 -0.709647 -0.67532 -0.245926 -0.695315 
-0.803349 -0.481503 -0.350407 0.568757 -0.438952 -0.695583 0.573967 -0.4193 -0.703384 
0.610619 -0.472567 -0.635472 -0.675914 -0.2445 -0.695242 0.588947 -0.299155 -0.750765 
0.813096 -0.394681 -0.427904 -0.641694 -0.0763265 -0.763154 0.634873 -0.145094 -0.75887 
0.683974 -0.155589 -0.712722 -0.606435 0.0389852 -0.794177 0.635992 0.0707394 -0.768447 
0.646084 0.0702724 -0.760024 -0.538062 0.268022 -0.799158 -0.525423 0.27902 -0.80379 
-0.255779 0.440127 -0.860735 0.0410125 0.219571 -0.974734 -0.0485418 0.1791 -0.982633 
0.521242 0.26968 -0.809679 0.410598 0.419776 -0.809443 0.681826 0.280484 -0.675605 
-0.57662 0.540661 -0.612531 -0.160868 0.434987 -0.88595 -0.279162 0.485472 -0.828484 
-0.0856529 0.414909 -0.905822 0.0569224 0.268734 -0.961531 0.0663925 0.309757 -0.948495 
0.0265574 0.205623 -0.978271 -0.068855 0.197986 -0.977784 -0.03993 0.157704 -0.986679 
-0.0920952 0.262629 -0.960492 -0.114451 0.341921 -0.932733 0.384644 0.438399 -0.812315 
0.272062 0.502758 -0.820498 0.425057 0.456944 -0.781363 0.748482 0.527212 -0.402271 
-0.395273 0.595132 -0.699698 -0.185254 0.507227 -0.841666 -0.0634328 0.342653 -0.937318 
-0.0396491 0.263155 -0.963938 -0.0330489 0.267838 -0.962897 -0.0281863 0.311676 -0.94977 
-0.0894337 0.392397 -0.915438 -0.0932993 0.363995 -0.926716 -0.086343 0.405767 -0.909889 
0.0122494 0.503878 -0.863688 0.159817 0.535571 -0.82923 0.152958 0.536618 -0.829847 
0.322571 0.640234 -0.697172 0.529359 0.744235 -0.4073 -0.180754 0.588509 -0.788026 
-0.0554185 0.544035 -0.83723 0.0121757 0.566049 -0.824281 0.0167024 0.61032 -0.791979 
-0.0251701 0.644835 -0.763907 0.0172671 0.70999 -0.704 0.137714 0.786519 -0.602015 
-0.480398 -0.860398 -0.170096 -0.345635 -0.922926 -0.169542 -0.223225 -0.962935 -0.151416 
-0.0916257 -0.988571 -0.11972 0.0370386 -0.997898 -0.0531713 0.14178 -0.989813 0.0129819 
0.219234 -0.975268 0.0280812 0.314031 -0.949111 -0.0239423 0.416203 -0.904379 -0.0942 
-0.491028 -0.853816 -0.17289 -0.638676 -0.735828 -0.225054 0.42755 -0.898583 -0.0987458 
0.382548 -0.908184 0.169877 0.5378 -0.828315 -0.157052 -0.716724 -0.656097 -0.236312 
-0.82081 -0.512702 -0.251808 0.624273 -0.759904 -0.181186 0.678958 -0.70668 -0.199047 
-0.837534 -0.483727 -0.254056 0.770002 -0.594023 -0.232883 0.839706 -0.487494 -0.239256 
-0.908094 -0.338393 -0.246689 0.879458 -0.409887 -0.241964 -0.944441 -0.186945 -0.270339 
0.936349 -0.204545 -0.285328 -0.960037 -1.4996e-05 -0.279873 -0.996501 -0.016498 0.0819326 
0.947031 0.0519207 -0.316918 -0.899543 0.275408 -0.339077 0.899855 0.272116 -0.340902 
-0.743748 0.53989 -0.394155 -0.672715 0.593908 -0.441281 0.75761 0.526197 -0.386191 
0.750681 0.534932 -0.387719 -0.536621 0.634008 -0.556841 -0.439231 0.669059 -0.59953 
-0.369642 0.620702 -0.691443 0.282802 0.853444 -0.437786 0.384556 0.822166 -0.419714 
0.531635 0.744652 -0.403556 0.52992 0.745829 -0.403638 -0.34215 0.63395 -0.693571 
-0.398294 0.663068 -0.633801 -0.190293 0.698778 -0.689563 -0.0569554 0.690332 -0.721248 
0.0338839 0.721177 -0.691921 0.0350782 0.735598 -0.67651 0.00124589 0.767584 -0.640948 
0.0562644 0.82627 -0.560457 0.275873 0.854111 -0.440895 0.17052 0.853409 -0.492561 
0.287519 0.863803 -0.413735 -0.0582774 0.955426 -0.289423 0.0881845 0.973198 -0.21239 
-0.461314 -0.872942 0.158623 -0.333525 -0.925528 0.179328 -0.203667 -0.959021 0.196973 
-0.0471514 -0.97596 0.212786 0.0871866 -0.967153 0.238776 0.162015 -0.953351 0.254702 
0.193224 -0.951806 0.238182 0.261072 -0.940915 0.215685 -0.471558 -0.867535 0.158164 
-0.622356 -0.766561 0.158295 -0.460948 -0.864052 0.202342 0.376958 -0.906291 0.191155 
0.258519 -0.871437 0.416851 0.378688 -0.90563 0.190865 0.513698 -0.837671 0.185532 
-0.728495 -0.668786 0.148393 -0.837353 -0.523937 0.155979 -0.58953 -0.665624 0.457602 
0.60897 -0.770333 0.189059 0.503876 -0.696773 0.510505 0.67038 -0.715764 0.195633 
-0.857205 -0.490232 0.157709 -0.823377 -0.481637 0.300125 0.775388 -0.603965 0.184388 
0.844793 -0.499445 0.19204 -0.93275 -0.331915 0.14075 0.880562 -0.426973 0.205682 
0.824136 -0.410092 0.390672 -0.965203 -0.177443 0.192085 -0.976443 -0.0420425 0.211641 
0.952449 -0.2436 0.183028 -0.976591 -0.0212861 0.214048 -0.977469 0.031241 0.208755 
-0.97442 -0.0209145 0.223758 0.988503 0.000979144 0.151195 -0.960397 0.211428 0.181481 
0.973823 0.208659 0.0901664 -0.892013 0.445954 0.0737352 -0.824507 0.565534 -0.0189342 
0.863119 0.503554 0.0382046 0.802215 0.596144 0.0326201 0.80425 0.453496 0.384087 
-0.80317 0.594106 -0.0442356 -0.584459 0.793887 -0.16778 0.404736 0.913892 -0.0314549 
0.643563 0.765386 -0.0032157 0.574915 0.817898 -0.0226963 -0.556896 0.809263 -0.186976 
-0.429627 0.88022 -0.201577 -0.242014 0.947538 -0.20881 0.0881675 0.974546 -0.206124 
0.0805522 0.981506 -0.17366 0.146468 0.983492 -0.106254 0.237133 0.969993 -0.0536746 
0.371736 0.92777 -0.0324842 0.323778 0.945453 -0.035859 -0.134056 0.967568 -0.214107 
-0.056631 0.973826 -0.220126 0.0891493 0.975787 -0.19973 0.089298 0.975766 -0.199768 
0.083615 0.995347 0.0478758 -0.283791 -0.804591 0.521628 -0.17692 -0.81772 0.547754 
-0.0527505 -0.84849 0.526576 0.0623803 -0.865175 0.497575 0.121223 -0.878411 0.462276 
0.17276 -0.880113 0.442216 -0.307251 -0.798 0.518452 -0.421684 -0.748698 0.511502 
-0.279291 -0.78953 0.546479 -0.170204 -0.728506 0.663558 -0.080497 -0.707736 0.701876 
0.0242806 -0.737122 0.675324 0.1012 -0.787415 0.60806 0.242442 -0.86188 0.445403 
0.168773 -0.830625 0.530639 0.259287 -0.854264 0.45056 0.381104 -0.782615 0.492213 
-0.564577 -0.65847 0.497665 -0.583221 -0.643821 0.495325 -0.371765 -0.618345 0.692417 
0.503106 -0.696033 0.512272 0.366863 -0.602936 0.708434 0.503646 -0.695408 0.51259 
0.626849 -0.531948 0.569291 -0.737014 -0.455318 0.499495 -0.785493 -0.361569 0.502263 
-0.560288 -0.412292 0.718396 0.431139 -0.423709 0.796612 0.632536 -0.523542 0.57079 
0.62345 -0.520858 0.58311 -0.815019 -0.279177 0.507745 -0.766618 -0.271898 0.581695 
0.708278 -0.366859 0.603123 0.565159 -0.318809 0.760892 0.742504 -0.27874 0.609091 
-0.831446 -0.114438 0.543692 -0.724438 -0.0999354 0.682058 0.485194 -0.167875 0.85814 
0.754106 -0.234979 0.613277 0.722336 -0.231195 0.651751 -0.81994 -0.0168105 0.572203 
-0.674837 -0.0156891 0.7378 0.795255 -0.0434371 0.604718 0.727557 -0.0505465 0.684183 
-0.827249 0.136795 0.544928 -0.679729 0.147141 0.718553 0.818415 0.144683 0.556115 
0.790818 0.380879 0.479102 0.763433 0.121845 0.63429 -0.775058 0.355789 0.522206 
-0.767041 0.387882 0.511073 -0.74931 0.353099 0.560229 0.775578 0.434486 0.457931 
0.561533 0.297938 0.771954 -0.747678 0.50196 0.434757 -0.662473 0.659561 0.355118 
-0.628521 0.422579 0.652984 0.409167 0.853773 0.321954 0.415264 0.584245 0.69729 
0.621931 0.696312 0.358261 0.608907 0.71027 0.3532 0.61248 0.690609 0.384613 
-0.602166 0.734381 0.313178 -0.470486 0.837425 0.278141 -0.466576 0.657993 0.59106 
-0.257818 0.940437 0.221604 0.0778885 0.978583 0.190546 0.0923724 0.982416 0.162251 
0.128325 0.973634 0.188598 0.204638 0.949802 0.236642 0.263186 0.921767 0.284743 
0.256981 0.814288 0.520476 0.335435 0.895003 0.294028 0.32113 0.900594 0.292928 
0.321189 0.883993 0.339695 -0.12056 0.967555 0.222044 0.0618275 0.978891 0.194807 
-0.0589896 0.972159 0.226776 -0.0616622 0.959909 0.273445 -0.210919 -0.527154 0.823178 
-0.124794 -0.527248 0.840497 -0.0887042 -0.544002 0.834382 -0.00592887 -0.597895 0.801553 
0.0673169 -0.597604 0.798961 0.137426 -0.57908 0.803604 0.239054 -0.532694 0.811844 
-0.216481 -0.526204 0.822341 -0.325296 -0.494004 0.806314 -0.209311 -0.522705 0.826419 
-0.112034 -0.481049 0.869506 -0.0890335 -0.45469 0.886189 -0.0213276 -0.472765 0.88093 
0.0516611 -0.458882 0.886994 0.121698 -0.46691 0.87589 0.253055 -0.522231 0.814394 
0.236734 -0.5142 0.824351 0.319846 -0.430151 0.844197 -0.436227 -0.404825 0.803631 
-0.525364 -0.280522 0.803306 -0.295954 -0.395426 0.869511 -0.14678 -0.366736 0.918673 
-0.103298 -0.375855 0.920903 -0.0940396 -0.375955 0.921854 0.00946041 -0.333454 0.942719 
0.105482 -0.2992 0.948342 0.123696 -0.289859 0.949042 0.16713 -0.290837 0.942062 
0.358182 -0.373621 0.855636 0.291347 -0.332518 0.896966 0.380256 -0.325854 0.865577 
-0.552726 -0.211014 0.806205 -0.512153 -0.200302 0.835211 -0.310826 -0.17039 0.935069 
-0.18007 -0.189025 0.965321 -0.124802 -0.230475 0.965042 0.0951912 -0.219132 0.971041 
0.130693 -0.301779 0.944377 0.194258 -0.205165 0.959255 0.252361 -0.181139 0.950527 
0.422484 -0.261687 0.867772 0.344151 -0.239247 0.907921 -0.551819 -0.058576 0.831904 
-0.477391 -0.0451386 0.877531 -0.307125 -0.00939647 0.951623 -0.197438 0.00681449 0.980292 
0.289628 -0.133098 0.94784 0.238773 -0.135979 0.961508 0.453507 -0.158904 0.876973 
0.311191 -0.147415 0.938845 0.478657 -0.115106 0.870424 -0.514757 0.0170378 0.857167 
-0.447569 0.0343997 0.893588 -0.279155 0.0499928 0.958944 -0.169064 0.0581294 0.983889 
-0.161232 0.0944093 0.98239 0.23845 -0.0741788 0.968318 0.229006 -0.12538 0.965317 
0.312494 -0.100254 0.944614 0.494304 -0.0757864 0.865979 0.475007 -0.0777085 0.876544 
-0.494275 0.0983362 0.863726 -0.439671 0.0733634 0.895158 -0.280911 0.0467128 0.958596 
-0.166511 0.0259864 0.985697 -0.1546 0.0189329 0.987796 0.20836 -0.0352226 0.977418 
0.346824 0.00201638 0.937928 0.5422 0.0559776 0.838383 0.540372 0.192713 0.81906 
0.509042 0.0515271 0.859198 -0.544912 0.201429 0.813939 -0.546209 0.228886 0.805771 
-0.531081 0.192297 0.825212 -0.311022 0.11533 0.943379 -0.194555 0.0604657 0.979026 
-0.145252 0.035794 0.988747 0.106034 0.144841 0.983757 0.24376 0.17283 0.954312 
0.53192 0.281389 0.798675 0.415041 0.57896 0.701816 0.382773 0.23363 0.893813 
-0.518607 0.346371 0.781712 -0.434193 0.491003 0.755243 -0.403614 0.298039 0.865025 
-0.23568 0.245547 0.940299 -0.148517 0.206022 0.967211 -0.0630783 0.234579 0.970048 
0.012692 0.255897 0.966621 0.0634847 0.265078 0.962135 0.111261 0.351447 0.929573 
0.247019 0.74955 0.614131 0.158441 0.44616 0.880817 0.413587 0.582369 0.699852 
0.313944 0.701618 0.639665 0.293494 0.515724 0.804916 -0.349167 0.59054 0.727561 
-0.26522 0.650237 0.711934 -0.26663 0.561268 0.783509 -0.102113 0.735336 0.669966 
-0.131697 0.548256 0.825876 -0.00278023 0.784958 0.619543 -0.0278004 0.594724 0.803449 
0.0646813 0.811131 0.581277 0.0418662 0.610771 0.790699 0.136577 0.797028 0.588297 
0.125867 0.654111 0.745853 0.236538 0.764651 0.599466 0.21514 0.77236 0.597641 
0.206938 0.715075 0.667716 -0.0590611 -0.255082 0.965114 0.0456144 -0.173834 0.983718 
-0.10862 -0.227255 0.967759 -0.127546 -0.181701 0.975047 -0.0465447 -0.213114 0.975918 
0.084075 -0.188242 0.978517 0.0576625 -0.111957 0.992039 0.067534 -0.207327 0.975938 
0.135533 -0.25817 0.956545 -0.162589 0.00481357 0.986682 -0.155767 0.0737806 0.985034 
-0.134274 0.00108061 0.990944 0.0207518 -0.0255909 0.999457 0.00743103 -0.0553129 0.998441 
-0.0810116 -0.14088 0.986707 0.23561 -0.15204 0.959881 0.139202 -0.173709 0.974909 
-0.153026 0.0861334 0.984461 -0.102228 0.0358923 0.994113 -0.0561769 -0.0767639 0.995465 
-0.0292738 0.00817441 0.999538 0.229714 -0.0636838 0.971172 0.135751 0.0450316 0.989719 
0.182778 -0.0415366 0.982276 -0.153267 0.0309749 0.987699 -0.149548 0.0404335 0.987927 
-0.0225781 0.0370804 0.999057 0.0409842 0.0990983 0.994233 0.0609314 0.0967914 0.993438 
0.139997 -0.0148161 0.990041 0.106597 0.141335 0.984206 0.130128 -0.0115545 0.99143 
-0.115477 0.0503173 0.992035 -0.0716778 0.177635 0.981483 -0.0876988 0.0642697 0.994072 
0.00946168 0.211972 0.97723 0.00279198 0.1187 0.992926 0.0484454 0.178261 0.98279 
0.0335739 0.0987677 0.994544 0.105112 0.144812 0.98386 0.0418898 0.181317 0.982532 
0.0256869 0.143449 0.989324 
