# vtk DataFile Version 4.2
vtk output
ASCII
DATASET POLYDATA
POINTS 554 float
-39.6839 -1.33293 -20.6467 -39.6839 -31.3034 -13.6749 -32.1913 -31.3034 -15.4874 
-24.6987 -31.3034 -15.5051 -17.2061 -31.3034 -14.7845 -9.71343 -31.3034 -13.6668 
-2.2208 -31.3034 -13.2745 5.27183 -31.3034 -13.6638 12.7645 -31.3034 -14.0177 
20.2571 -31.3034 -14.3061 27.7497 -31.3034 -13.8565 35.2423 -31.3034 -13.0836 
-47.1766 -23.8108 -15.4219 -39.6839 -23.8108 -18.2359 -32.1913 -23.8108 -18.9613 
-24.6987 -23.8108 -18.7683 -17.2061 -23.8108 -18.221 -9.71343 -23.8108 -17.0548 
-2.2208 -23.8108 -15.6105 5.27183 -23.8108 -15.216 12.7645 -23.8108 -15.6691 
20.2571 -23.8108 -16.7549 27.7497 -23.8108 -16.5574 35.2423 -23.8108 -16.4469 
42.735 -23.8108 -15.2146 -54.6692 -16.3182 -13.5341 -47.1766 -16.3182 -17.8249 
-39.6839 -16.3182 -19.5188 -32.1913 -16.3182 -20.0177 -24.6987 -16.3182 -19.8883 
-17.2061 -16.3182 -18.9712 -9.71343 -16.3182 -18.0406 -2.2208 -16.3182 -16.6047 
5.27183 -16.3182 -15.4639 12.7645 -16.3182 -15.7934 20.2571 -16.3182 -16.7335 
27.7497 -16.3182 -18.1143 35.2423 -16.3182 -17.4978 42.735 -16.3182 -16.7856 
50.2276 -16.3182 -15.1879 -54.6692 -8.82556 -15.3943 -47.1766 -8.82556 -19.5324 
-39.6839 -6.87192 -20.5653 -39.6839 -8.82556 -20.5363 -32.1913 -8.82556 -20.3886 
-24.6987 -8.82556 -19.6242 -17.2061 -8.82556 -18.7646 -9.71343 -8.82556 -19.0925 
-2.2208 -8.82556 -18.4331 5.27183 -8.82556 -16.8414 12.7645 -8.82556 -14.4905 
20.2571 -8.82556 -15.6207 27.7497 -8.82556 -17.0868 35.2423 -8.82556 -17.7233 
42.735 -8.82556 -17.7493 50.2276 -8.82556 -16.0733 -54.6692 -1.33293 -15.8626 
-40.5212 -1.33293 -20.5653 -47.1766 -1.33293 -19.8464 -37.6599 -1.33293 -20.5653 
-39.6839 -0.426875 -20.5653 -32.1913 -1.33293 -20.3494 -24.6987 -1.33293 -19.2875 
-17.2061 -1.33293 -18.0315 -9.71343 -1.33293 -19.6128 -2.2208 -1.33293 -16.0181 
5.27183 -1.33293 -17.9124 20.2571 -1.33293 -14.3295 27.7497 -1.33293 -16.2358 
35.2423 -1.33293 -17.1735 42.735 -1.33293 -17.3403 50.2276 -1.33293 -16.023 
-54.6692 6.1597 -15.2625 -47.1766 6.1597 -18.8841 -39.6839 6.1597 -19.97 
-32.1913 6.1597 -19.7263 -24.6987 6.1597 -18.2716 -17.2061 6.1597 -16.5369 
-9.71343 6.1597 -16.7375 -2.2208 6.1597 -16.1885 5.27183 6.1597 -19.3464 
12.7645 6.1597 -16.2773 20.2571 6.1597 -14.0307 27.7497 6.1597 -15.5921 
35.2423 6.1597 -15.9659 42.735 6.1597 -15.8727 50.2276 6.1597 -15.0482 
-47.1766 13.6523 -16.9015 -39.6839 13.6523 -18.4822 -32.1913 13.6523 -19.1246 
-24.6987 13.6523 -17.7063 -17.2061 13.6523 -16.1054 -9.71343 13.6523 -15.487 
-2.2208 13.6523 -15.1236 5.27183 13.6523 -17.1437 12.7645 13.6523 -16.4114 
20.2571 13.6523 -14.2045 27.7497 13.6523 -14.3494 35.2423 13.6523 -14.6815 
42.735 13.6523 -14.5876 -47.1766 21.145 -13.9198 -39.6839 21.145 -16.2148 
-32.1913 21.145 -16.8255 -24.6987 21.145 -16.2969 -17.2061 21.145 -15.3551 
-9.71343 21.145 -14.6204 -2.2208 21.145 -14.7204 5.27183 21.145 -15.4506 
12.7645 21.145 -16.1994 20.2571 21.145 -14.9056 27.7497 21.145 -13.8041 
35.2423 21.145 -13.7177 -32.1913 28.6376 -13.2105 5.27183 28.6376 -14.056 
12.7645 28.6376 -14.7014 20.2571 28.6376 -14.0936 -39.6839 -31.8966 -13.0727 
-32.1913 -33.6275 -13.0727 -24.6987 -33.9552 -13.0727 -17.2061 -33.0728 -13.0727 
-9.71343 -31.9846 -13.0727 -2.2208 -31.5861 -13.0727 5.27183 -32.2252 -13.0727 
12.7645 -32.765 -13.0727 20.2571 -32.8876 -13.0727 27.7497 -32.297 -13.0727 
35.2423 -31.318 -13.0727 -40.9704 -31.3034 -13.0727 -47.1766 -27.3854 -13.0727 
-47.1766 -31.3034 -8.36189 35.2726 -31.3034 -13.0727 42.735 -27.3347 -13.0727 
42.735 -31.3034 -8.87076 -52.5106 -23.8108 -13.0727 -54.6692 -18.2843 -13.0727 
-54.6692 -23.8108 -10.8144 47.0416 -23.8108 -13.0727 50.2276 -20.1048 -13.0727 
50.2276 -23.8108 -10.6056 -55.1626 -16.3182 -13.0727 53.643 -16.3182 -13.0727 
57.7202 -16.3182 -9.41692 -57.5955 -8.82556 -13.0727 12.7645 -2.23623 -13.0727 
55.9567 -8.82556 -13.0727 57.7202 -8.82556 -11.7059 -58.341 -1.33293 -13.0727 
-62.1618 -1.33293 -6.77655 12.4235 -1.33293 -13.0727 13.8097 -1.33293 -13.0727 
12.7645 -0.408111 -13.0727 12.7645 -1.33293 -12.8801 56.0444 -1.33293 -13.0727 
57.7202 -1.33293 -11.9052 -56.7489 6.1597 -13.0727 -54.6692 11.9399 -13.0727 
55.9215 6.1597 -13.0727 50.2276 11.1184 -13.0727 57.7202 6.1597 -12.2169 
-53.8112 13.6523 -13.0727 -54.6692 13.6523 -12.2858 47.6048 13.6523 -13.0727 
42.735 17.3968 -13.0727 50.2276 13.6523 -12.1722 57.7202 13.6523 -7.46675 
-48.6555 21.145 -13.0727 -54.6692 21.145 -6.06296 -47.1766 22.334 -13.0727 
-39.6839 26.0554 -13.0727 -24.6987 27.4335 -13.0727 -17.2061 26.192 -13.0727 
-9.71343 25.526 -13.0727 -2.2208 27.4879 -13.0727 27.7497 26.5849 -13.0727 
37.5702 21.145 -13.0727 35.2423 22.63 -13.0727 42.735 21.145 -11.1857 
50.2276 21.145 -8.27952 -47.1766 28.6376 -5.72584 -32.7943 28.6376 -13.0727 
-39.6839 28.6376 -10.6704 -30.8615 28.6376 -13.0727 -32.1913 28.8141 -13.0727 
-24.6987 28.6376 -12.3393 -17.2061 28.6376 -11.6919 -9.71343 28.6376 -11.8237 
-0.315311 28.6376 -13.0727 -2.2208 28.6376 -12.7238 5.27183 30.6121 -13.0727 
12.7645 32.0904 -13.0727 26.2038 28.6376 -13.0727 20.2571 30.7855 -13.0727 
27.7497 28.6376 -12.7415 35.2423 28.6376 -9.86856 42.735 28.6376 -6.39477 
-9.71343 36.1302 -5.74613 -2.2208 36.1302 -7.40159 5.27183 36.1302 -9.28614 
12.7645 36.1302 -10.3355 20.2571 36.1302 -9.45103 27.7497 36.1302 -7.0673 
-47.1766 -32.7202 -5.58003 -39.6839 -35.4306 -5.58003 -32.1913 -36.7058 -5.58003 
-24.6987 -37.2255 -5.58003 -17.2061 -36.27 -5.58003 -9.71343 -36.0902 -5.58003 
-2.2208 -37.1735 -5.58003 5.27183 -38.2164 -5.58003 12.7645 -38.5085 -5.58003 
20.2571 -38.544 -5.58003 27.7497 -37.7364 -5.58003 35.2423 -36.2687 -5.58003 
42.735 -33.7922 -5.58003 -49.1583 -31.3034 -5.58003 -54.6692 -26.3779 -5.58003 
47.2925 -31.3034 -5.58003 50.2276 -29.2523 -5.58003 -56.7716 -23.8108 -5.58003 
55.3228 -23.8108 -5.58003 57.7202 -20.6028 -5.58003 -59.9849 -16.3182 -5.58003 
60.1378 -16.3182 -5.58003 -61.6787 -8.82556 -5.58003 -62.1618 -5.21393 -5.58003 
62.8865 -8.82556 -5.58003 -62.6523 -1.33293 -5.58003 -62.1618 0.989504 -5.58003 
-62.1618 -1.33293 0.190962 63.6605 -1.33293 -5.58003 -60.9759 6.1597 -5.58003 
63.2285 6.1597 -5.58003 -58.8711 13.6523 -5.58003 59.2734 13.6523 -5.58003 
57.7202 16.2137 -5.58003 -54.899 21.145 -5.58003 -54.6692 21.4397 -5.58003 
53.2515 21.145 -5.58003 50.2276 24.0865 -5.58003 -47.29 28.6376 -5.58003 
-47.1766 28.7259 -5.58003 -39.6839 32.2316 -5.58003 -32.1913 34.3324 -5.58003 
-24.6987 35.234 -5.58003 -17.2061 35.3318 -5.58003 35.2423 34.7241 -5.58003 
43.9513 28.6376 -5.58003 42.735 29.411 -5.58003 -24.6987 36.1302 -3.71248 
-10.96 36.1302 -5.58003 -17.2061 36.1302 -4.46074 -9.71343 36.281 -5.58003 
-2.2208 37.7083 -5.58003 5.27183 38.9865 -5.58003 12.7645 39.6254 -5.58003 
20.2571 39.3766 -5.58003 31.8704 36.1302 -5.58003 27.7497 37.3946 -5.58003 
35.2423 36.1302 -1.65535 -47.1766 -31.7781 1.9126 -39.6839 -34.2125 1.9126 
-32.1913 -35.3023 1.9126 -24.6987 -35.8211 1.9126 -17.2061 -35.1471 1.9126 
-9.71343 -35.7793 1.9126 -2.2208 -37.6168 1.9126 5.27183 -38.4394 1.9126 
12.7645 -37.9473 1.9126 20.2571 -37.6369 1.9126 27.7497 -37.0714 1.9126 
35.2423 -36.3046 1.9126 42.735 -34.6614 1.9126 -47.7824 -31.3034 1.9126 
-54.6692 -25.0483 1.9126 -47.1766 -31.3034 2.66825 -39.6839 -31.3034 7.03033 
48.3969 -31.3034 1.9126 42.735 -31.3034 9.14875 50.2276 -30.1178 1.9126 
-55.7171 -23.8108 1.9126 -54.6692 -23.8108 3.66681 56.6339 -23.8108 1.9126 
57.7202 -22.3517 1.9126 -59.5524 -16.3182 1.9126 61.4145 -16.3182 1.9126 
-61.3941 -8.82556 1.9126 63.8186 -8.82556 1.9126 -62.0131 -1.33293 1.9126 
64.4885 -1.33293 1.9126 -60.7749 6.1597 1.9126 63.9951 6.1597 1.9126 
-58.7296 13.6523 1.9126 61.1691 13.6523 1.9126 57.7202 19.7913 1.9126 
57.7202 13.6523 8.44023 -54.8172 21.145 1.9126 -54.6692 21.3455 1.9126 
-54.6692 21.145 2.27787 56.7879 21.145 1.9126 50.2276 28.0574 1.9126 
-47.6858 28.6376 1.9126 -47.1766 29.0611 1.9126 -47.1766 28.6376 2.98987 
-39.6839 33.5163 1.9126 -32.1913 36.1183 1.9126 49.5327 28.6376 1.9126 
42.735 33.4733 1.9126 -32.1489 36.1302 1.9126 -24.6987 38.2386 1.9126 
-17.2061 39.6286 1.9126 -9.71343 40.8305 1.9126 -2.2208 41.3966 1.9126 
5.27183 41.3027 1.9126 12.7645 41.1775 1.9126 20.2571 40.5139 1.9126 
27.7497 39.1742 1.9126 37.2959 36.1302 1.9126 35.2423 37.0269 1.9126 
35.2423 36.1302 4.95755 -32.1913 -31.5158 9.40522 -24.6987 -31.4962 9.40522 
-17.2061 -31.5578 9.40522 -9.71343 -32.9225 9.40522 -2.2208 -34.9841 9.40522 
5.27183 -35.3703 9.40522 12.7645 -34.0898 9.40522 20.2571 -33.3841 9.40522 
27.7497 -33.8371 9.40522 35.2423 -33.2095 9.40522 -47.1766 -25.6857 9.40522 
-33.1964 -31.3034 9.40522 -39.6839 -29.3746 9.40522 -32.1913 -31.3034 9.6634 
-24.6987 -31.3034 9.62005 -17.2061 -31.3034 9.71447 -9.71343 -31.3034 11.1675 
-2.2208 -31.3034 13.0897 5.27183 -31.3034 13.3921 12.7645 -31.3034 12.1698 
20.2571 -31.3034 11.4915 27.7497 -31.3034 11.8524 42.3156 -31.3034 9.40522 
35.2423 -31.3034 11.6542 42.735 -31.1452 9.40522 50.2276 -26.4283 9.40522 
-49.3343 -23.8108 9.40522 -54.6692 -16.7189 9.40522 -47.1766 -23.8108 10.8381 
-39.6839 -23.8108 13.4481 -32.1913 -23.8108 15.1629 -24.6987 -23.8108 15.4638 
-17.2061 -23.8108 15.6895 -9.71343 -23.8108 15.4989 -2.2208 -23.8108 16.4304 
5.27183 -23.8108 16.8708 12.7645 -23.8108 15.8598 20.2571 -23.8108 16.2387 
27.7497 -23.8108 16.5455 35.2423 -23.8108 16.5968 42.735 -23.8108 15.1866 
52.8435 -23.8108 9.40522 50.2276 -23.8108 11.6878 57.7202 -16.4601 9.40522 
-54.8914 -16.3182 9.40522 -54.6692 -16.3182 9.6093 -47.1766 -16.3182 14.6505 
-39.6839 -16.3182 16.6868 -2.2208 -16.3182 16.747 50.2276 -16.3182 15.9674 
57.7974 -16.3182 9.40522 57.7202 -16.3182 9.49006 -57.5113 -8.82556 9.40522 
-54.6692 -8.82556 12.3385 -47.1766 -8.82556 16.1697 50.2276 -8.82556 16.2086 
60.4026 -8.82556 9.40522 57.7202 -8.82556 12.1194 -58.6406 -1.33293 9.40522 
-54.6692 -1.33293 13.3245 -2.2208 -1.33293 16.3912 50.2276 -1.33293 16.1896 
60.7522 -1.33293 9.40522 57.7202 -1.33293 12.3624 -57.531 6.1597 9.40522 
[...]
POINT_DATA 554
SCALARS ImageScalars float
LOOKUP_TABLE default
0 0 0 0 0 0 0 0 0 
0 0 0 0 0 0 0 0 0 
0 0 0 0 0 0 0 0 0 
0 0 0 0 0 0 0 0 0 
0 0 0 0 0 0 0 0 0 
0 0 0 0 0 0 0 0 0 
0 0 0 0 0 0 0 0 0 
0 0 0 0 0 0 0 0 0 
0 0 0 0 0 0 0 0 0 
0 0 0 0 0 0 0 0 0 
0 0 0 0 0 0 0 0 0 
0 0 0 0 0 0 0 0 0 
0 0 0 0 0 0 0 0 0 
0 0 0 0 0 0 0 0 0 
0 0 0 0 0 0 0 0 0 
0 0 0 0 0 0 0 0 0 
0 0 0 0 0 0 0 0 0 
0 0 0 0 0 0 0 0 0 
0 0 0 0 0 0 0 0 0 
0 0 0 0 0 0 0 0 0 
0 0 0 0 0 0 0 0 0 
0 0 0 0 0 0 0 0 0 
0 0 0 0 0 0 0 0 0 
0 0 0 0 0 0 0 0 0 
0 0 0 0 0 0 0 0 0 
0 0 0 0 0 0 0 0 0 
0 0 0 0 0 0 0 0 0 
0 0 0 0 0 0 0 0 0 
0 0 0 0 0 0 0 0 0 
0 0 0 0 0 0 0 0 0 
0 0 0 0 0 0 0 0 0 
0 0 0 0 0 0 0 0 0 
0 0 0 0 0 0 0 0 0 
0 0 0 0 0 0 0 0 0 
0 0 0 0 0 0 0 0 0 
0 0 0 0 0 0 0 0 0 
0 0 0 0 0 0 0 0 0 
0 0 0 0 0 0 0 0 0 
0 0 0 0 0 0 0 0 0 
0 0 0 0 0 0 0 0 0 
0 0 0 0 0 0 0 0 0 
0 0 0 0 0 0 0 0 0 
0 0 0 0 0 0 0 0 0 
0 0 0 0 0 0 0 0 0 
0 0 0 0 0 0 0 0 0 
0 0 0 0 0 0 0 0 0 
0 0 0 0 0 0 0 0 0 
0 0 0 0 0 0 0 0 0 
0 0 0 0 0 0 0 0 0 
0 0 0 0 0 0 0 0 0 
0 0 0 0 0 0 0 0 0 
0 0 0 0 0 0 0 0 0 
0 0 0 0 0 0 0 0 0 
0 0 0 0 0 0 0 0 0 
0 0 0 0 0 0 0 0 0 
0 0 0 0 0 0 0 0 0 
0 0 0 0 0 0 0 0 0 
0 0 0 0 0 0 0 0 0 
0 0 0 0 0 0 0 0 0 
0 0 0 0 0 0 0 0 0 
0 0 0 0 0 0 0 0 0 
0 0 0 0 0 
NORMALS Normals float
0.0288997 -0.0375332 0.998877 0.289051 0.682923 0.670869 0.106548 0.652667 0.750116 
-0.0415533 0.623112 0.781028 -0.115549 0.651414 0.749872 -0.0931593 0.620151 0.778932 
0.00299443 0.505779 0.862658 0.0488934 0.421105 0.905693 0.0396483 0.423049 0.905239 
-0.00694279 0.497279 0.867563 -0.0730382 0.525564 0.847613 -0.216338 0.570139 0.792553 
0.366124 0.416033 0.832388 0.227996 0.348471 0.909168 0.0276471 0.264045 0.964114 
-0.0450288 0.252287 0.966604 -0.110084 0.243447 0.963647 -0.168496 0.262292 0.950164 
-0.112874 0.208673 0.97145 0.00449137 0.120333 0.992723 0.097664 0.115192 0.988531 
0.0606385 0.135057 0.988981 -0.0189599 0.250195 0.96801 -0.0925248 0.280542 0.955372 
-0.283533 0.355321 0.890705 0.64954 0.21905 0.72809 0.312121 0.25612 0.914868 
0.135416 0.138672 0.981036 0.0226473 0.0863388 0.996008 -0.0690503 0.0598787 0.995815 
-0.123253 0.033896 0.991796 -0.152006 0.128616 0.979975 -0.171005 0.184369 0.967866 
-0.0504471 0.0988124 0.993827 0.0841259 -0.077597 0.993429 0.150983 -0.07353 0.985798 
0.0518375 0.0342316 0.998069 -0.0845603 0.0781291 0.993351 -0.131087 0.169072 0.976847 
-0.376183 0.28931 0.880219 0.584663 0.111729 0.803546 0.319529 0.125274 0.939259 
0.0446166 0.0455892 0.997963 0.0505038 0.0750274 0.995902 -0.0603373 0.0239086 0.997892 
-0.107873 -0.040305 0.993347 -0.0353792 -0.0607664 0.997525 -0.0215416 0.100813 0.994672 
-0.1432 0.00516901 0.98968 -0.271788 0.158749 0.949173 -0.067327 -0.14971 0.986435 
0.172111 -0.155655 0.972702 0.137504 -0.121802 0.982984 0.0437796 -0.0214217 0.998812 
-0.120106 0.0352378 0.992135 -0.327632 0.0406296 0.943931 0.56215 0.000353408 0.827035 
0.0572544 -0.0377034 0.997647 0.281978 -0.0379807 0.958669 -0.00395731 -0.0390372 0.99923 
0.030554 -0.050214 0.998271 -0.0894353 -0.043143 0.995058 -0.150473 -0.0883229 0.984661 
0.0074189 -0.148983 0.988812 -0.0679546 -0.124265 0.989919 -0.126641 -0.185363 0.974476 
-0.110384 0.17128 0.979019 0.183012 -0.105854 0.977395 0.181755 -0.0986053 0.978387 
0.0719732 -0.116072 0.99063 -0.0842127 -0.122548 0.988883 -0.302295 -0.0571844 0.951497 
0.627116 -0.176936 0.758564 0.245758 -0.182712 0.951955 0.0491713 -0.142398 0.988587 
-0.111554 -0.079984 0.990534 -0.208067 -0.103735 0.972598 -0.106106 -0.127921 0.986092 
-0.0214848 -0.274738 0.961279 0.145883 -0.0650045 0.987164 0.118877 -0.0533526 0.991475 
-0.419795 0.178428 0.889908 0.0403454 -0.00752553 0.999157 0.127839 -0.126632 0.983678 
0.0188045 -0.162384 0.986548 -0.0539713 -0.188938 0.980505 -0.231619 -0.25426 0.938991 
0.315059 -0.302136 0.899695 0.130964 -0.225145 0.965483 -0.052296 -0.197424 0.978922 
-0.194947 -0.124324 0.972902 -0.145119 -0.0793089 0.98623 -0.0635806 -0.120658 0.990656 
0.0920679 -0.0927601 0.991423 0.0919332 -0.245047 0.965143 -0.208471 -0.011221 0.977964 
-0.127108 0.057034 0.990248 0.0306357 -0.116162 0.992758 0.0160398 -0.162237 0.986621 
-0.147735 -0.271701 0.950975 0.389276 -0.491593 0.778974 0.178444 -0.42296 0.888405 
0.00208576 -0.358912 0.933369 -0.100943 -0.312894 0.944409 -0.104128 -0.249513 0.962757 
-0.0433441 -0.223766 0.973679 0.0516726 -0.145304 0.988037 0.0996316 -0.18159 0.978314 
-0.0372704 -0.105916 0.993676 -0.156128 -0.00665665 0.987714 -0.0821654 -0.109237 0.990614 
-0.144469 -0.283231 0.948108 0.0557872 -0.588238 0.806761 0.123599 -0.318598 0.939797 
-0.000131873 -0.317349 0.948309 -0.125277 -0.277804 0.952434 0.291564 0.710195 0.640791 
0.119442 0.780716 0.613364 -0.03143 0.764937 0.643338 -0.110286 0.749644 0.652587 
-0.0825169 0.658251 0.748262 0.00715668 0.52124 0.85338 0.0534824 0.473758 0.87903 
0.0290829 0.504298 0.86304 -0.0229912 0.573604 0.81881 -0.0717965 0.576488 0.813945 
-0.216415 0.570877 0.792 0.324716 0.692786 0.6439 0.420407 0.572901 0.703592 
0.50701 0.794757 0.333619 -0.216885 0.570689 0.792007 -0.316097 0.513022 0.798054 
-0.378005 0.764912 0.521557 0.585328 0.449655 0.674686 0.662986 0.285622 0.692004 
0.723408 0.494491 0.481829 -0.421356 0.416065 0.805822 -0.453137 0.390065 0.801571 
-0.564147 0.502269 0.655335 0.668861 0.228871 0.707278 -0.513033 0.312275 0.799551 
-0.746992 0.345335 0.568108 0.70757 0.138353 0.692966 -0.218227 -0.0320102 0.975373 
-0.550619 0.0789582 0.831014 -0.653115 0.0969892 0.751022 0.716524 -0.041886 0.696303 
0.969646 -0.0448244 0.240371 -0.242742 0.00262444 0.970087 -0.167678 -0.0211896 0.985614 
-0.259681 0.0325142 0.965147 -0.239063 -0.00473274 0.970993 -0.528943 0.000820511 0.848657 
-0.61843 0.0230962 0.785501 0.723211 -0.212331 0.657176 0.661029 -0.305023 0.685567 
-0.464672 -0.206208 0.861138 -0.304237 -0.291393 0.906935 -0.556715 -0.191928 0.808227 
0.625667 -0.328694 0.707461 0.6869 -0.340453 0.642074 -0.275275 -0.289913 0.91661 
-0.199568 -0.330343 0.922522 -0.353199 -0.311035 0.882331 -0.704155 -0.449549 0.54961 
0.45269 -0.505643 0.734436 0.780096 -0.580353 0.233755 0.405997 -0.527145 0.746515 
0.251902 -0.583827 0.77181 -0.0870893 -0.532292 0.84207 -0.0554722 -0.452985 0.889791 
0.0149076 -0.364799 0.930967 0.120187 -0.350745 0.928727 -0.212905 -0.281571 0.935622 
-0.176642 -0.315936 0.932192 -0.165981 -0.317894 0.933485 -0.273696 -0.411596 0.869298 
-0.470735 -0.575253 0.668949 0.542534 -0.787511 0.292375 0.0731808 -0.596176 0.799511 
0.310276 -0.720272 0.620433 0.0315328 -0.587226 0.808808 0.0569373 -0.596574 0.800536 
-0.0804075 -0.583828 0.807886 -0.0268435 -0.562141 0.826605 0.0612233 -0.476964 0.876788 
0.130613 -0.371242 0.919304 0.134356 -0.39302 0.909661 0.133809 -0.40331 0.905227 
0.00484287 -0.46417 0.885733 -0.230872 -0.329683 0.915427 -0.137976 -0.373213 0.917428 
-0.261022 -0.346461 0.901017 -0.291164 -0.483727 0.825368 -0.455359 -0.645171 0.613517 
0.125896 -0.739751 0.660999 0.167018 -0.723408 0.669915 0.142514 -0.727608 0.671026 
0.00668842 -0.717255 0.696779 -0.167326 -0.709156 0.684908 -0.252277 -0.765806 0.591521 
0.495215 0.852546 0.167115 0.2623 0.957846 0.117176 0.115901 0.989937 0.0811856 
-0.0292121 0.996085 0.0834397 -0.0756054 0.991987 0.101222 0.0580285 0.978921 0.195821 
0.140607 0.945784 0.292783 0.0866313 0.956233 0.279486 0.0210286 0.975349 0.219665 
-0.0543666 0.980106 0.190882 -0.139499 0.97004 0.198902 -0.232258 0.944186 0.233601 
-0.394657 0.858386 0.32775 0.556439 0.815143 0.16099 0.756392 0.643909 0.115117 
-0.514167 0.80212 0.303703 -0.600492 0.73647 0.311481 0.83245 0.539992 0.12424 
-0.72003 0.598784 0.350735 -0.791031 0.512121 0.334666 0.927377 0.326837 0.182068 
-0.847548 0.397375 0.35179 0.972452 0.160654 0.168899 0.984351 0.0634603 0.164398 
-0.903575 0.217263 0.369254 0.98496 -0.0438128 0.167136 0.980453 -0.102179 0.168143 
0.988862 -0.0402466 -0.143293 -0.913155 0.0250728 0.406841 0.955423 -0.228764 0.186637 
-0.865304 -0.268424 0.423317 0.900774 -0.377322 0.215019 -0.775287 -0.448294 0.444931 
-0.727795 -0.505066 0.46392 0.78797 -0.57995 0.206788 0.780944 -0.588952 0.207995 
-0.576837 -0.630863 0.518913 -0.530131 -0.661775 0.530109 0.545814 -0.788268 0.284115 
0.542926 -0.790289 0.284032 0.348547 -0.869565 0.349816 0.165852 -0.908906 0.3826 
0.064991 -0.841359 0.536555 0.0507333 -0.779521 0.624318 -0.367644 -0.767438 0.52524 
-0.486078 -0.665312 0.566647 -0.476225 -0.670238 0.569202 0.117927 -0.898688 0.422437 
0.114881 -0.750719 0.650556 0.0736467 -0.823077 0.563135 0.126421 -0.743925 0.656196 
0.153565 -0.783218 0.602484 0.113833 -0.865638 0.487557 0.025285 -0.905301 0.424017 
-0.145742 -0.884102 0.443985 -0.317063 -0.806894 0.49839 -0.262178 -0.823935 0.502388 
-0.36775 -0.905251 0.212792 0.487404 0.809202 -0.32807 0.217083 0.915098 -0.339809 
0.100175 0.941658 -0.321317 -0.0107113 0.944548 -0.328198 -0.00176147 0.959146 -0.282905 
0.161248 0.970787 -0.177684 0.174788 0.977745 -0.116032 0.0226931 0.988411 -0.150099 
-0.0526094 0.968662 -0.242745 -0.057114 0.957419 -0.282995 -0.087956 0.971408 -0.220524 
-0.146865 0.971034 -0.188479 -0.367105 0.919185 -0.142593 0.504521 0.799298 -0.326466 
0.728338 0.613443 -0.305305 0.483814 0.793168 -0.369877 0.248224 0.796388 -0.551498 
-0.524107 0.840273 -0.138755 -0.349734 0.750873 -0.560246 -0.5804 0.803556 -0.132033 
0.764965 0.567527 -0.304535 0.720711 0.56597 -0.400316 -0.770806 0.626189 -0.11724 
-0.806436 0.578428 -0.122806 0.896718 0.35334 -0.266548 -0.909095 0.396673 -0.127265 
0.961156 0.146596 -0.233855 -0.969121 0.202776 -0.140307 0.972401 -0.0386806 -0.230086 
-0.985512 0.00952432 -0.169339 0.958775 -0.20141 -0.200463 -0.96547 -0.201738 -0.164834 
0.912658 -0.365362 -0.183209 -0.90194 -0.417349 -0.111019 -0.811705 -0.578296 -0.0819043 
-0.708667 -0.395903 -0.583997 0.816992 -0.547641 -0.180591 0.812982 -0.553724 -0.180138 
0.813675 -0.547256 -0.196069 -0.784135 -0.61704 -0.0662839 -0.654407 -0.755624 -0.0280074 
0.615568 -0.775219 -0.141812 0.604998 -0.784224 -0.137728 0.611197 -0.768255 -0.19032 
0.429546 -0.901232 -0.0571915 0.287616 -0.956577 0.0472935 -0.639843 -0.768201 -0.0216333 
-0.510656 -0.859682 0.0132991 0.287228 -0.956665 0.0478748 0.220348 -0.968847 0.113057 
0.176313 -0.95666 0.231767 0.116311 -0.952607 0.281089 0.0306778 -0.977179 0.210189 
-0.014542 -0.996433 0.0831255 -0.0576643 -0.997913 -0.0290562 -0.12019 -0.991873 -0.0417417 
-0.225846 -0.97398 -0.0188829 -0.389854 -0.920688 -0.0186206 -0.348171 -0.937244 -0.0187407 
-0.3655 -0.90606 -0.213224 0.093421 0.78613 -0.61096 0.0024053 0.762391 -0.647112 
0.0796629 0.802465 -0.591357 0.20167 0.792197 -0.57598 0.143978 0.813215 -0.563872 
-0.0494942 0.80723 -0.588158 -0.109632 0.761858 -0.638399 -0.0145031 0.760144 -0.649593 
-0.0150077 0.788439 -0.61493 -0.142899 0.807343 -0.572518 0.424144 0.560082 -0.711624 
0.114106 0.778134 -0.617647 0.255286 0.690862 -0.676416 0.0933094 0.777209 -0.622286 
0.00236847 0.75628 -0.654244 0.079358 0.792947 -0.604101 0.185353 0.710203 -0.679159 
0.123655 0.611458 -0.781555 -0.051887 0.598979 -0.799082 -0.106946 0.629342 -0.769735 
-0.0175319 0.683754 -0.729502 0.00908792 0.679601 -0.733526 -0.335658 0.745659 -0.57561 
-0.126993 0.728988 -0.672643 -0.346236 0.739577 -0.577188 -0.550307 0.630684 -0.547175 
0.487093 0.508731 -0.709882 0.634929 0.363496 -0.681716 0.424774 0.51352 -0.745564 
0.2451 0.478944 -0.842935 0.11775 0.413945 -0.902654 0.0318713 0.439077 -0.897884 
0.0011418 0.426993 -0.904254 0.0476996 0.336727 -0.940393 0.0851016 0.199226 -0.976251 
-0.0360168 0.258195 -0.965421 -0.0398119 0.295166 -0.954616 0.0429852 0.351799 -0.935088 
0.0223052 0.351052 -0.93609 -0.0790887 0.392373 -0.9164 -0.266862 0.4453 -0.854689 
-0.60735 0.56785 -0.555584 -0.50501 0.527335 -0.683288 -0.71795 0.36644 -0.591836 
0.641866 0.354722 -0.679838 0.633729 0.356056 -0.68674 0.39403 0.311115 -0.86484 
0.158838 0.275004 -0.948232 0.0522605 0.0773757 -0.995631 -0.427514 0.233627 -0.873299 
-0.719303 0.361698 -0.593108 -0.716887 0.360596 -0.596694 0.762785 0.194701 -0.616645 
0.638997 0.206354 -0.741014 0.313366 0.141056 -0.939098 -0.385803 0.0104178 -0.922522 
-0.781909 0.172821 -0.598958 -0.650235 0.154724 -0.743811 0.807228 -0.000457873 -0.59024 
0.618267 0.02047 -0.785701 -0.034091 0.0122544 -0.999344 -0.369066 0.0316791 -0.928863 
-0.777197 -0.00191235 -0.629254 -0.617704 -0.009549 -0.786353 0.812838 -0.178042 -0.554614 
0.676634 -0.148865 -0.721114 -0.345014 -0.100469 -0.933205 -0.749924 -0.194017 -0.632432 
-0.668158 -0.350627 -0.65622 -0.624818 -0.192967 -0.756549 0.764641 -0.344704 -0.544521 
0.751892 -0.37661 -0.541132 0.737218 -0.341102 -0.583232 0.451949 -0.204501 -0.868286 
-0.178483 -0.221759 -0.958628 -0.647907 -0.370625 -0.665473 -0.426163 -0.302778 -0.852473 
0.689863 -0.505615 -0.518115 0.606425 -0.612495 -0.50705 0.541738 -0.456797 -0.70559 
0.288936 -0.329043 -0.899026 -0.330187 -0.300883 -0.894676 -0.611797 -0.487099 -0.623249 
-0.577873 -0.529037 -0.621436 -0.512662 -0.457944 -0.726268 0.53129 -0.698703 -0.479108 
0.441212 -0.770985 -0.459255 0.415296 -0.654912 -0.631363 0.35544 -0.837492 -0.415052 
0.217187 -0.544929 -0.809866 0.201639 -0.395816 -0.89592 -0.0902617 -0.31718 -0.94406 
-0.189936 -0.360754 -0.913116 -0.350228 -0.751571 -0.559 -0.270581 -0.478162 -0.835552 
-0.519009 -0.633141 -0.57425 -0.47406 -0.672264 -0.56862 -0.458616 -0.599016 -0.656393 
0.331759 -0.858762 -0.390466 0.296444 -0.873702 -0.385701 0.292414 -0.809283 -0.509466 
0.269455 -0.918516 -0.289348 0.238735 -0.687137 -0.686183 0.129532 -0.956204 -0.262479 
0.0862116 -0.591518 -0.801669 -0.0657336 -0.955286 -0.288286 -0.0505058 -0.587447 -0.807685 
-0.156425 -0.912871 -0.377091 -0.140499 -0.656897 -0.740774 -0.119332 -0.877311 -0.464849 
-0.141187 -0.707388 -0.692582 -0.13106 -0.836937 -0.531375 -0.137187 -0.724477 -0.67551 
-0.286651 -0.805317 -0.518938 -0.224108 -0.826601 -0.516242 -0.216634 -0.777966 -0.589779 
0.0738436 0.285018 -0.955673 0.0294561 0.247312 -0.968488 -0.0169382 0.282001 -0.959265 
-0.052436 0.266751 -0.962338 -0.0344202 0.256929 -0.965817 -0.0189774 0.16884 -0.985461 
0.045992 0.240964 -0.969444 0.0263717 0.295 -0.955133 -0.0681736 0.352125 -0.933467 
-0.184323 0.294104 -0.937832 0.129018 0.266985 -0.955025 0.162838 0.248137 -0.954941 
0.0568288 0.247573 -0.967201 0.0266824 0.158771 -0.986955 -0.0240284 0.175557 -0.984176 
0.00909188 0.14097 -0.989972 -0.0726578 0.256868 -0.963711 0.050547 0.0934646 -0.994339 
0.0510613 0.0605155 -0.99686 0.0389787 0.221985 -0.974271 -0.0112947 0.131992 -0.991186 
0.047219 0.0843154 -0.99532 0.0340079 0.132145 -0.990647 -0.017971 0.149541 -0.988592 
-0.291046 0.224521 -0.929991 -0.150679 0.218342 -0.964169 0.251707 0.135279 -0.958302 
0.325147 0.0872183 -0.941633 0.180237 0.135676 -0.974221 0.0159537 0.11324 -0.99344 
-0.0298048 0.0762319 -0.996645 0.0875862 0.0288951 -0.995738 -0.056789 0.173134 -0.98326 
0.00333626 0.00105251 -0.999994 0.0467907 -0.010486 -0.99885 0.0694311 0.155299 -0.985425 
-0.198902 0.114023 -0.973364 0.0452808 -0.0386533 -0.998226 0.0981651 0.0160229 -0.995041 
-0.00241096 0.0317092 -0.999494 -0.329672 0.0147207 -0.943981 -0.175652 0.0419865 -0.983557 
0.347574 0.0680704 -0.935178 0.3296 0.0713719 -0.941419 0.129963 0.0955872 -0.986901 
-0.00901961 0.07212 -0.997355 -0.0649415 0.104443 -0.992408 0.0776455 0.0344164 -0.996387 
-0.0398569 0.0191214 -0.999022 -0.0902868 0.0316864 -0.995412 0.00149314 0.00104499 -0.999998 
-0.0427847 0.0855906 -0.995411 0.184622 -0.097233 -0.977988 -0.219488 -0.00246297 -0.975612 
-0.0216791 -0.0335964 -0.9992 0.105945 -0.0545539 -0.992874 0.00924344 -0.0615612 -0.998061 
-0.309024 0.00870235 -0.951015 -0.164254 -0.0524845 -0.985021 0.394192 -0.071806 -0.916219 
0.395443 -0.105032 -0.912465 0.37791 -0.0682566 -0.923323 0.165829 -0.00828044 -0.98612 
0.0249628 0.0370982 -0.999 -0.0586615 0.0668339 -0.996038 0.0148447 0.072787 -0.997237 
-0.0625642 -0.0245541 -0.997739 -0.0695575 0.205814 -0.976116 0.0190824 -0.0535819 -0.998381 
-0.140809 -0.0227576 -0.989775 -0.00885513 0.0324264 -0.999435 0.0693122 -0.0445614 -0.996599 
7.3235e-05 -0.100062 -0.994981 -0.332188 -0.101659 -0.937719 -0.150402 -0.197935 -0.968608 
-0.0957726 -0.131606 -0.986665 0.374539 -0.180866 -0.9094 0.287503 -0.324981 -0.90096 
0.227579 -0.141158 -0.963474 0.0640463 -0.083139 -0.994478 -0.0307373 -0.056406 -0.997935 
-0.0130233 -0.00302397 -0.999911 0.00652562 -0.0258868 -0.999644 -0.023152 0.104815 -0.994222 
-0.0638089 0.0153923 -0.997843 -0.100887 0.0365545 -0.994226 -0.0592139 0.0648537 -0.996136 
-0.0263946 -0.0285616 -0.999243 -0.126477 -0.155541 -0.979699 -0.0709213 -0.0752443 -0.99464 
0.285139 -0.327422 -0.900828 0.162 -0.39998 -0.902093 0.114417 -0.265463 -0.957308 
0.181517 -0.368299 -0.911816 0.0250524 -0.18824 -0.981804 0.0458437 -0.0634851 -0.996929 
0.043312 -0.0375158 -0.998357 -0.0145337 -0.0120916 -0.999821 -0.0596786 -0.0403081 -0.997404 
-0.0832017 -0.0596232 -0.994747 -0.0897285 -0.298152 -0.950291 -0.0888867 -0.0534498 -0.994607 
-0.122071 -0.202285 -0.971689 -0.0708135 -0.0973409 -0.992729 -0.213971 -0.237209 -0.947601 
-0.211418 -0.241286 -0.947145 -0.209752 -0.235121 -0.949064 0.193094 -0.371207 -0.908251 
0.178574 -0.408923 -0.894927 0.138758 -0.241757 -0.960364 0.0663614 -0.446556 -0.892291 
0.0564137 -0.208603 -0.976372 -0.0426321 -0.483609 -0.874245 -0.0262326 -0.202948 -0.978838 
-0.11814 -0.422853 -0.898464 -0.109791 -0.244972 -0.963294 -0.0922338 -0.311408 -0.945789 
-0.118538 -0.345007 -0.931085 -0.111116 -0.279353 -0.953738 
