# vtk DataFile Version 4.2
vtk output
ASCII
DATASET POLYDATA
POINTS 641 float
-37.4678 -39.6832 -11.1586 -29.6773 -39.6832 -11.6962 -21.8868 -39.6832 -12.2867 
-14.0963 -39.6832 -11.2061 -6.30583 -39.6832 -11.3289 1.48465 -39.6832 -11.2242 
9.27514 -39.6832 -12.8185 17.0656 -39.6832 -12.8469 24.8561 -39.6832 -11.1358 
-53.0488 -31.8927 -10.0804 -45.2583 -31.8927 -13.0355 -37.4678 -31.8927 -14.6551 
-29.6773 -31.8927 -14.8846 -21.8868 -31.8927 -14.8619 -14.0963 -31.8927 -14.2627 
-6.30583 -31.8927 -13.0412 1.48465 -31.8927 -13.2349 9.27514 -31.8927 -14.7174 
17.0656 -31.8927 -15.5863 24.8561 -31.8927 -13.7515 32.6466 -31.8927 -13.3696 
40.4371 -31.8927 -10.8639 -60.8392 -24.1022 -10.2578 -53.0488 -24.1022 -13.2208 
-45.2583 -24.1022 -15.0927 -37.4678 -24.1022 -15.0421 -29.6773 -24.1022 -16.1888 
-21.8868 -24.1022 -15.552 -14.0963 -24.1022 -14.6547 -6.30583 -24.1022 -13.2462 
1.48465 -24.1022 -13.2813 9.27514 -24.1022 -14.728 17.0656 -24.1022 -15.557 
24.8561 -24.1022 -15.2179 32.6466 -24.1022 -14.6794 40.4371 -24.1022 -15.4965 
48.2276 -24.1022 -13.2403 56.0181 -24.1022 -11.5846 -60.8392 -16.3118 -14.3744 
-53.0488 -16.3118 -14.0799 -45.2583 -16.3118 -15.4259 -37.4678 -16.3118 -15.8171 
-29.6773 -16.3118 -15.3155 -21.8868 -16.3118 -14.9996 -14.0963 -16.3118 -14.6343 
-6.30583 -16.3118 -13.0336 1.48465 -16.3118 -12.8987 9.27514 -16.3118 -13.9442 
17.0656 -16.3118 -14.5356 24.8561 -16.3118 -15.0296 32.6466 -16.3118 -15.8307 
40.4371 -16.3118 -15.2847 48.2276 -16.3118 -16.3197 56.0181 -16.3118 -12.764 
63.8085 -16.3118 -12.5744 -68.6297 -8.52127 -9.63479 -60.8392 -8.52127 -13.827 
-53.0488 -8.52127 -15.4809 -45.2583 -8.52127 -15.4263 -37.4678 -8.52127 -15.8618 
-29.6773 -8.52127 -14.9228 -21.8868 -8.52127 -13.9163 -14.0963 -8.52127 -13.6129 
-6.30583 -8.52127 -15.1277 1.48465 -8.52127 -15.5193 9.27514 -8.52127 -12.6433 
17.0656 -8.52127 -13.3373 24.8561 -8.52127 -14.4185 32.6466 -8.52127 -14.744 
40.4371 -8.52127 -15.1539 48.2276 -8.52127 -16.517 56.0181 -8.52127 -14.2388 
63.8085 -8.52127 -16.8543 -68.6297 -0.730783 -12.0953 -60.8392 -0.730783 -12.9457 
-53.0488 -0.730783 -16.1582 -45.2583 -0.730783 -15.5211 -37.4678 -0.730783 -15.8002 
-29.6773 -0.730783 -14.6253 -21.8868 -0.730783 -13.489 -14.0963 -0.730783 -15.3093 
-6.30583 -0.730783 -14.9111 1.48465 -0.730783 -12.6135 9.27514 -0.730783 -15.6575 
17.0656 -0.730783 -12.2001 24.8561 -0.730783 -12.7734 32.6466 -0.730783 -13.8253 
40.4371 -0.730783 -14.2572 48.2276 -0.730783 -14.9094 56.0181 -0.730783 -13.1606 
63.8085 -0.730783 -14.1575 -68.6297 7.0597 -10.9827 -60.8392 7.0597 -12.4894 
-53.0488 7.0597 -15.7309 -45.2583 7.0597 -15.3963 -37.4678 7.0597 -15.4474 
-29.6773 7.0597 -14.3262 -21.8868 7.0597 -13.0003 -14.0963 7.0597 -13.478 
-6.30583 7.0597 -15.6621 1.48465 7.0597 -14.9899 9.27514 7.0597 -14.4649 
17.0656 7.0597 -11.844 24.8561 7.0597 -12.2888 32.6466 7.0597 -13.3251 
40.4371 7.0597 -13.6834 48.2276 7.0597 -13.9311 56.0181 7.0597 -12.362 
63.8085 7.0597 -12.7676 -68.6297 14.8502 -9.82243 -60.8392 14.8502 -13.3494 
-53.0488 14.8502 -14.5474 -45.2583 14.8502 -14.9877 -37.4678 14.8502 -15.0078 
-29.6773 14.8502 -14.1167 -21.8868 14.8502 -13.5992 -14.0963 14.8502 -12.985 
-6.30583 14.8502 -14.4474 1.48465 14.8502 -14.911 9.27514 14.8502 -13.2197 
17.0656 14.8502 -13.1735 24.8561 14.8502 -13.4675 32.6466 14.8502 -13.5666 
40.4371 14.8502 -14.0649 48.2276 14.8502 -12.6534 56.0181 14.8502 -12.6359 
-60.8392 22.6407 -13.1462 -53.0488 22.6407 -12.9145 -45.2583 22.6407 -15.045 
-37.4678 22.6407 -14.3039 -29.6773 22.6407 -14.3986 -21.8868 22.6407 -13.4725 
-14.0963 22.6407 -13.6687 -6.30583 22.6407 -14.5538 1.48465 22.6407 -15.1143 
9.27514 22.6407 -14.125 17.0656 22.6407 -13.7894 24.8561 22.6407 -14.5501 
32.6466 22.6407 -13.6424 40.4371 22.6407 -14.7823 48.2276 22.6407 -11.6017 
56.0181 22.6407 -11.4418 -53.0488 30.4312 -12.9783 -45.2583 30.4312 -11.9732 
-37.4678 30.4312 -13.3797 -29.6773 30.4312 -13.0636 -21.8868 30.4312 -12.3092 
-14.0963 30.4312 -12.1434 -6.30583 30.4312 -12.5911 1.48465 30.4312 -13.4103 
9.27514 30.4312 -13.125 17.0656 30.4312 -12.8361 24.8561 30.4312 -12.6741 
32.6466 30.4312 -13.1688 40.4371 30.4312 -11.2116 48.2276 30.4312 -11.7127 
-37.4678 38.2216 -10.1997 -29.6773 38.2216 -10.1434 24.8561 38.2216 -9.77027 
32.6466 38.2216 -9.42189 -37.4678 -41.9495 -9.2147 -29.6773 -42.8557 -9.2147 
-21.8868 -43.398 -9.2147 -14.0963 -42.3013 -9.2147 -6.30583 -42.4407 -9.2147 
1.48465 -42.8727 -9.2147 9.27514 -45.2238 -9.2147 9.27514 -47.4737 -1.58899 
17.0656 -45.2262 -9.2147 24.8561 -41.631 -9.2147 -53.0488 -33.856 -9.2147 
-42.366 -39.6832 -9.2147 -45.2583 -38.0716 -9.2147 -45.2583 -39.6832 -6.4413 
29.0114 -39.6832 -9.2147 32.6466 -37.4499 -9.2147 32.6466 -39.6832 -3.05951 
40.4371 -33.7509 -9.2147 -54.252 -31.8927 -9.2147 -60.8392 -25.4911 -9.2147 
46.4092 -31.8927 -9.2147 48.2276 -31.0793 -9.2147 48.2276 -31.8927 -8.21052 
56.0181 -28.4066 -9.2147 -63.132 -24.1022 -9.2147 -68.6297 -24.1022 -1.68576 
61.2634 -24.1022 -9.2147 63.8085 -21.2453 -9.2147 63.8085 -24.1022 -7.02594 
-66.4739 -16.3118 -9.2147 -68.6297 -9.73434 -9.2147 -68.6297 -16.3118 -7.23504 
66.8218 -16.3118 -9.2147 71.599 -16.3118 -5.19476 -69.2932 -8.52127 -9.2147 
70.6602 -8.52127 -9.2147 71.599 -8.52127 -8.53009 79.3895 -8.52127 -3.08781 
-72.9822 -0.730783 -9.2147 -76.4202 -0.730783 -4.79614 68.7862 -0.730783 -9.2147 
71.599 -0.730783 -7.33021 -71.4035 7.0597 -9.2147 -76.4202 7.0597 -3.9931 
67.7513 7.0597 -9.2147 63.8085 13.6542 -9.2147 71.599 7.0597 -6.87753 
-69.7374 14.8502 -9.2147 -76.4202 14.8502 -2.92531 -68.6297 16.0702 -9.2147 
63.1137 14.8502 -9.2147 63.8085 14.8502 -8.57036 71.599 14.8502 -5.67206 
-65.0905 22.6407 -9.2147 -68.6297 22.6407 -6.33113 -60.8392 28.46 -9.2147 
58.9024 22.6407 -9.2147 56.0181 26.2697 -9.2147 63.8085 22.6407 -6.29839 
-68.6297 30.4312 -2.61862 -58.7914 30.4312 -9.2147 -60.8392 30.4312 -7.9772 
-53.0488 34.9076 -9.2147 -45.2583 37.2625 -9.2147 -21.8868 37.8511 -9.2147 
-14.0963 35.4265 -9.2147 -6.30583 35.3739 -9.2147 1.48465 36.9185 -9.2147 
9.27514 37.9397 -9.2147 17.0656 37.4229 -9.2147 40.4371 34.9454 -9.2147 
51.9695 30.4312 -9.2147 48.2276 33.0503 -9.2147 56.0181 30.4312 -7.01386 
-53.0488 38.2216 -5.72326 -43.2348 38.2216 -9.2147 -45.2583 38.2216 -8.69411 
-37.4678 39.7587 -9.2147 -22.9694 38.2216 -9.2147 -29.6773 39.3085 -9.2147 
-21.8868 38.2216 -8.90699 -14.0963 38.2216 -5.95638 -6.30583 38.2216 -5.21976 
1.48465 38.2216 -7.49456 9.27514 38.2216 -8.92875 20.4365 38.2216 -9.2147 
17.0656 38.2216 -8.53877 24.8561 38.8199 -9.2147 33.6831 38.2216 -9.2147 
32.6466 38.4783 -9.2147 40.4371 38.2216 -6.85717 48.2276 38.2216 -3.54116 
9.27514 -47.5023 -1.42421 -45.2583 -41.9596 -1.42421 -37.4678 -44.8293 -1.42421 
-29.6773 -46.7342 -1.42421 -21.8868 -47.272 -1.42421 -14.0963 -46.8549 -1.42421 
-6.30583 -46.6665 -1.42421 9.06214 -47.4737 -1.42421 1.48465 -46.336 -1.42421 
9.69112 -47.4737 -1.42421 9.27514 -47.4737 -1.36611 17.0656 -46.8507 -1.42421 
24.8561 -43.485 -1.42421 32.6466 -40.0936 -1.42421 -49.694 -39.6832 -1.42421 
-53.0488 -37.9498 -1.42421 -45.2583 -39.6832 5.47133 -37.4678 -39.6832 6.28506 
1.48465 -39.6832 6.33018 24.8561 -39.6832 3.70876 33.6824 -39.6832 -1.42421 
32.6466 -39.6832 -0.646235 40.4371 -37.4379 -1.42421 48.2276 -34.9419 -1.42421 
-68.6297 -24.1867 -1.42421 -60.7694 -31.8927 -1.42421 -60.8392 -31.8357 -1.42421 
55.7087 -31.8927 -1.42421 56.0181 -31.776 -1.42421 63.8085 -28.364 -1.42421 
-68.7014 -24.1022 -1.42421 -68.6297 -24.1022 -1.14991 68.6079 -24.1022 -1.42421 
71.599 -21.1173 -1.42421 -74.1566 -16.3118 -1.42421 75.5573 -16.3118 -1.42421 
79.3895 -9.89044 -1.42421 -76.1016 -8.52127 -1.42421 -76.4202 -6.7769 -1.42421 
79.3895 -5.26833 -1.42421 79.3895 -8.52127 2.56869 -77.5247 -0.730783 -1.42421 
-76.4202 -0.730783 5.20556 78.4008 -0.730783 -1.42421 -77.5499 7.0597 -1.42421 
-76.4202 7.0597 2.39714 78.0164 7.0597 -1.42421 -77.0803 14.8502 -1.42421 
-76.4202 16.2617 -1.42421 -76.4202 14.8502 0.464257 74.448 14.8502 -1.42421 
71.599 19.7522 -1.42421 -73.1854 22.6407 -1.42421 69.9018 22.6407 -1.42421 
63.8085 29.6457 -1.42421 -68.903 30.4312 -1.42421 -68.6297 30.7033 -1.42421 
-68.6297 30.4312 -0.474291 -60.8392 36.6462 -1.42421 63.0399 30.4312 -1.42421 
56.0181 35.675 -1.42421 -58.1569 38.2216 -1.42421 -53.0488 40.7595 -1.42421 
-45.2583 43.5632 -1.42421 -37.4678 43.7294 -1.42421 -29.6773 43.7797 -1.42421 
-21.8868 41.8658 -1.42421 -14.0963 40.3375 -1.42421 -14.0963 38.2216 4.52562 
-6.30583 39.9736 -1.42421 -6.30583 38.2216 3.14912 1.48465 41.0053 -1.42421 
9.27514 41.9851 -1.42421 17.0656 42.3546 -1.42421 24.8561 42.5428 -1.42421 
32.6466 42.4147 -1.42421 40.4371 41.279 -1.42421 50.9985 38.2216 -1.42421 
48.2276 39.5315 -1.42421 48.2276 38.2216 2.33652 -29.6773 -40.9572 6.36627 
-21.8868 -41.907 6.36627 -14.0963 -41.1108 6.36627 -6.30583 -40.4912 6.36627 
9.27514 -40.2856 6.36627 17.0656 -39.8527 6.36627 -53.0488 -32.958 6.36627 
-45.2583 -39.0534 6.36627 -36.9047 -39.6832 6.36627 -37.4678 -39.607 6.36627 
-29.6773 -39.6832 7.44578 -21.8868 -39.6832 8.36659 -14.0963 -39.6832 7.32062 
1.08527 -39.6832 6.36627 -6.30583 -39.6832 6.92571 2.10696 -39.6832 6.36627 
1.48465 -39.6193 6.36627 9.27514 -39.6832 6.74032 17.5114 -39.6832 6.36627 
17.0656 -39.6832 6.5089 24.8561 -36.731 6.36627 32.6466 -34.6861 6.36627 
40.4371 -32.716 6.36627 48.2276 -32.3046 6.36627 -55.4045 -31.8927 6.36627 
-60.8392 -28.4717 6.36627 -53.0488 -31.8927 7.20319 -45.2583 -31.8927 9.80739 
-37.4678 -31.8927 11.3467 -29.6773 -31.8927 11.5539 -21.8868 -31.8927 11.4511 
-14.0963 -31.8927 11.0878 -6.30583 -31.8927 10.3512 1.48465 -31.8927 9.91565 
9.27514 -31.8927 10.5524 17.0656 -31.8927 10.6576 24.8561 -31.8927 9.44913 
32.6466 -31.8927 8.25274 40.4371 -31.8927 7.36514 49.4229 -31.8927 6.36627 
48.2276 -31.8927 6.79537 56.0181 -28.6775 6.36627 63.8085 -26.4477 6.36627 
-64.7616 -24.1022 6.36627 -68.6297 -21.0586 6.36627 -60.8392 -24.1022 8.76223 
-53.0488 -24.1022 13.8687 -45.2583 -24.1022 13.1403 -37.4678 -24.1022 13.925 
[...]
POINT_DATA 641
SCALARS ImageScalars float
LOOKUP_TABLE default
0 0 0 0 0 0 0 0 0 
0 0 0 0 0 0 0 0 0 
0 0 0 0 0 0 0 0 0 
0 0 0 0 0 0 0 0 0 
0 0 0 0 0 0 0 0 0 
0 0 0 0 0 0 0 0 0 
0 0 0 0 0 0 0 0 0 
0 0 0 0 0 0 0 0 0 
0 0 0 0 0 0 0 0 0 
0 0 0 0 0 0 0 0 0 
0 0 0 0 0 0 0 0 0 
0 0 0 0 0 0 0 0 0 
0 0 0 0 0 0 0 0 0 
0 0 0 0 0 0 0 0 0 
0 0 0 0 0 0 0 0 0 
0 0 0 0 0 0 0 0 0 
0 0 0 0 0 0 0 0 0 
0 0 0 0 0 0 0 0 0 
0 0 0 0 0 0 0 0 0 
0 0 0 0 0 0 0 0 0 
0 0 0 0 0 0 0 0 0 
0 0 0 0 0 0 0 0 0 
0 0 0 0 0 0 0 0 0 
0 0 0 0 0 0 0 0 0 
0 0 0 0 0 0 0 0 0 
0 0 0 0 0 0 0 0 0 
0 0 0 0 0 0 0 0 0 
0 0 0 0 0 0 0 0 0 
0 0 0 0 0 0 0 0 0 
0 0 0 0 0 0 0 0 0 
0 0 0 0 0 0 0 0 0 
0 0 0 0 0 0 0 0 0 
0 0 0 0 0 0 0 0 0 
0 0 0 0 0 0 0 0 0 
0 0 0 0 0 0 0 0 0 
0 0 0 0 0 0 0 0 0 
0 0 0 0 0 0 0 0 0 
0 0 0 0 0 0 0 0 0 
0 0 0 0 0 0 0 0 0 
0 0 0 0 0 0 0 0 0 
0 0 0 0 0 0 0 0 0 
0 0 0 0 0 0 0 0 0 
0 0 0 0 0 0 0 0 0 
0 0 0 0 0 0 0 0 0 
0 0 0 0 0 0 0 0 0 
0 0 0 0 0 0 0 0 0 
0 0 0 0 0 0 0 0 0 
0 0 0 0 0 0 0 0 0 
0 0 0 0 0 0 0 0 0 
0 0 0 0 0 0 0 0 0 
0 0 0 0 0 0 0 0 0 
0 0 0 0 0 0 0 0 0 
0 0 0 0 0 0 0 0 0 
0 0 0 0 0 0 0 0 0 
0 0 0 0 0 0 0 0 0 
0 0 0 0 0 0 0 0 0 
0 0 0 0 0 0 0 0 0 
0 0 0 0 0 0 0 0 0 
0 0 0 0 0 0 0 0 0 
0 0 0 0 0 0 0 0 0 
0 0 0 0 0 0 0 0 0 
0 0 0 0 0 0 0 0 0 
0 0 0 0 0 0 0 0 0 
0 0 0 0 0 0 0 0 0 
0 0 0 0 0 0 0 0 0 
0 0 0 0 0 0 0 0 0 
0 0 0 0 0 0 0 0 0 
0 0 0 0 0 0 0 0 0 
0 0 0 0 0 0 0 0 0 
0 0 0 0 0 0 0 0 0 
0 0 0 0 0 0 0 0 0 
0 0 
NORMALS Normals float
0.184047 0.583088 0.791287 0.0699932 0.627412 0.775535 -0.0271302 0.534852 0.84451 
-0.0498333 0.540719 0.839726 -0.000115412 0.481355 0.876526 0.101739 0.440544 0.891947 
0.10791 0.45563 0.883604 -0.0874111 0.484222 0.870568 -0.346507 0.620354 0.703629 
0.505857 0.432915 0.746119 0.221532 0.336118 0.915395 0.154211 0.279189 0.947772 
0.0103065 0.221116 0.975193 -0.0395793 0.17155 0.98438 -0.116218 0.181551 0.97649 
-0.0651027 0.101632 0.99269 0.11291 0.125892 0.985597 0.148124 0.114834 0.982279 
-0.0565955 0.171971 0.983475 -0.138888 0.24386 0.959814 -0.17662 0.419289 0.890507 
-0.220155 0.616377 0.75605 0.426611 0.474725 0.769831 0.232105 0.187817 0.954386 
0.150398 0.193799 0.969444 0.0687726 0.0703762 0.995147 0.0333238 0.046097 0.998381 
-0.0966922 0.0068232 0.995291 -0.149351 0.0227315 0.988523 -0.0873729 -9.34119e-05 0.996176 
0.0969203 -0.0221717 0.995045 0.142635 -0.049062 0.988559 0.0293212 -0.0670124 0.997321 
-0.0535169 0.0750292 0.995744 0.00611572 0.139733 0.99017 -0.0789563 0.236959 0.968306 
-0.244655 0.362118 0.899452 -0.277198 0.307719 0.910204 0.305767 0.136948 0.942206 
0.0969076 0.159634 0.982408 0.0947844 0.0171594 0.99535 -0.00264379 0.0525477 0.998615 
-0.0519845 -0.0792391 0.995499 -0.0430964 -0.10685 0.993341 -0.121242 -0.0684776 0.990258 
-0.110726 0.118034 0.986817 0.0614148 0.11383 0.9916 0.103781 -0.131996 0.985802 
0.0689201 -0.136983 0.988173 0.0823129 -0.0488335 0.995409 0.0167416 0.002286 0.999857 
0.0240362 -0.0197372 0.999516 -0.163261 0.203843 0.965295 -0.203022 0.164545 0.96525 
-0.438787 0.476236 0.762014 0.60414 0.211979 0.768167 0.231656 -0.0684606 0.970386 
0.151328 0.128587 0.980084 0.0246718 0.00610736 0.999677 -0.0322909 -0.001103 0.999478 
-0.123688 -0.0439338 0.991348 -0.0843648 -0.0972261 0.99168 0.0722863 0.0300183 0.996932 
0.123897 0.119007 0.985133 -0.186242 -0.0034978 0.982498 -0.106437 0.0817652 0.990952 
0.109676 -0.138601 0.984257 0.0897202 -0.149723 0.984649 0.0456246 -0.125085 0.991096 
0.107855 -0.0652625 0.992022 -0.053292 -0.0940717 0.994138 -0.0347629 0.0232172 0.999126 
-0.174485 0.0452489 0.98362 0.426123 0.0630445 0.902466 0.2197 -0.103344 0.970078 
0.159737 0.0158422 0.987032 -0.0197876 -0.0019278 0.999802 -0.0572616 -0.0265439 0.998006 
-0.146755 -0.0378523 0.988448 0.0247599 -0.0586488 0.997972 0.110643 0.019561 0.993668 
-0.183444 0.0359997 0.982371 0.0436404 0.001073 0.999047 -0.00364648 0.149791 0.988711 
-0.16815 -0.102779 0.980389 0.0930697 -0.127184 0.987503 0.097114 -0.0928958 0.990928 
0.0664998 -0.0938942 0.993359 -0.0683283 -0.159866 0.984771 -0.0651204 -0.116899 0.991006 
-0.369249 -0.215957 0.90389 0.406357 -0.113536 0.906633 0.24864 0.0437664 0.967607 
0.180726 -0.101636 0.978268 -0.0165028 -0.0341607 0.99928 -0.0682287 -0.0506004 0.996386 
-0.155292 -0.0322383 0.987342 -0.0608827 0.00703506 0.99812 0.183702 -0.149822 0.971497 
0.0730101 -0.0384984 0.996588 -0.0670938 0.137057 0.988288 -0.232544 -0.166789 0.958178 
-0.112705 0.0709537 0.991092 0.0955463 0.0450688 0.994404 0.0889778 -0.0145807 0.995927 
0.0383744 -0.00829042 0.999229 -0.083143 -0.143224 0.986192 -0.0763528 -0.0257573 0.996748 
-0.36924 -0.316398 0.873816 0.531832 -0.236276 0.813221 0.20973 0.038612 0.976997 
0.13494 -0.175769 0.975139 0.027036 -0.0224695 0.999382 -0.0556254 -0.0729401 0.995784 
-0.0938747 0.00440964 0.995574 -0.0705396 0.0300813 0.997055 0.0538573 0.0186586 0.998374 
0.123674 -0.0661372 0.990116 -0.0812829 0.00827302 0.996657 -0.11177 -0.0058122 0.993717 
0.0159229 0.124508 0.992091 0.0252997 0.143424 0.989338 0.0435114 0.0202999 0.998847 
-0.0518238 0.060913 0.996797 -0.106177 -0.142841 0.984034 -0.166501 -0.0349201 0.985423 
0.32045 -0.261118 0.910565 0.114982 -0.0947091 0.988842 0.085234 -0.188936 0.978283 
-0.0375464 -0.0965878 0.994616 -0.0544264 -0.0761411 0.995611 -0.0446008 -0.0775852 0.995988 
0.0697209 -0.0492167 0.996352 0.0915535 -0.108334 0.98989 -0.0279253 -0.0893556 0.995608 
-0.0843156 -0.00458098 0.996429 0.0260333 -0.0182763 0.999494 -0.00956132 -0.0487751 0.998764 
0.00876492 -0.0209252 0.999743 -0.133371 -0.165283 0.977187 -0.180663 -0.057772 0.981847 
-0.342747 -0.384102 0.857315 0.182782 -0.313874 0.931705 0.034273 -0.318011 0.947467 
0.066558 -0.294587 0.953304 -0.0624598 -0.262372 0.962943 -0.0625564 -0.250856 0.966001 
0.0165154 -0.339395 0.940499 0.077616 -0.399043 0.913641 0.0309478 -0.367906 0.929348 
-0.0346159 -0.278232 0.95989 -0.0289263 -0.2584 0.965605 0.0171576 -0.290996 0.95657 
-0.091563 -0.293592 0.951536 -0.0804524 -0.347951 0.934054 -0.235705 -0.366117 0.900223 
0.0631582 -0.513705 0.855639 -0.0631539 -0.600133 0.797403 0.0312454 -0.640707 0.76715 
-0.115742 -0.606531 0.78659 0.229726 0.713929 0.661461 0.0789637 0.729114 0.679821 
-0.023326 0.714729 0.699013 -0.0423838 0.662418 0.747934 0.025211 0.653349 0.756637 
0.129934 0.651285 0.747626 0.0982278 0.777231 0.621501 0.0366352 0.986732 -0.158173 
-0.189007 0.801739 0.567001 -0.390869 0.735906 0.552869 0.504775 0.5191 0.689737 
0.245586 0.731812 0.635719 0.271988 0.71699 0.641832 0.343378 0.854541 0.389682 
-0.403089 0.710337 0.57701 -0.374897 0.684538 0.625188 -0.402885 0.915021 0.0204764 
-0.269606 0.716273 0.643634 0.530633 0.461149 0.711175 0.445834 0.480739 0.755064 
-0.259484 0.739441 0.621204 -0.258245 0.734809 0.627189 -0.285246 0.805249 0.519816 
-0.309609 0.613675 0.726323 0.497037 0.432461 0.752284 0.810907 0.584624 0.0253819 
-0.416189 0.442484 0.794352 -0.482663 0.474695 0.736003 -0.555569 0.568968 0.606315 
0.536469 0.2264 0.812985 0.602716 0.198746 0.772809 0.657527 0.255392 0.708825 
-0.53613 0.3537 0.76646 -0.66515 0.430291 0.610267 0.615516 0.204879 0.761029 
-0.497941 0.0976276 0.861698 -0.533447 0.10984 0.838671 -0.920865 0.187457 0.341858 
0.597812 0.0552475 0.799731 0.928251 0.0734483 0.364631 -0.470419 -0.133196 0.872333 
-0.566227 -0.112971 0.816471 0.512275 -0.091784 0.853903 0.948897 -0.0494268 0.311691 
-0.471391 -0.133663 0.871737 -0.463743 -0.373463 0.80341 -0.582541 -0.0788823 0.808965 
0.556361 -0.231247 0.798115 0.942725 -0.27138 0.193966 0.544744 -0.214249 0.810772 
-0.447993 -0.355454 0.820338 -0.489052 -0.380446 0.784913 -0.61761 -0.364552 0.696893 
0.515749 -0.272344 0.8123 0.695864 -0.265722 0.667207 0.324819 -0.427217 0.843788 
-0.404225 -0.360121 0.840782 -0.359716 -0.415539 0.835423 -0.571518 -0.293167 0.766433 
0.748316 -0.656427 0.0955289 0.287576 -0.418122 0.861669 0.351523 -0.47906 0.804321 
0.21679 -0.577354 0.787187 0.193192 -0.591581 0.782757 -0.166729 -0.661581 0.731104 
-0.0712551 -0.613555 0.786431 0.0638162 -0.668256 0.741189 0.103313 -0.706311 0.700322 
0.025425 -0.683747 0.729276 0.0389361 -0.655217 0.754436 -0.196142 -0.492027 0.848197 
-0.323496 -0.406783 0.854329 -0.248225 -0.523207 0.815254 -0.437074 -0.486315 0.756613 
0.30394 -0.802765 0.513019 0.178999 -0.600992 0.778953 0.216747 -0.656374 0.72263 
0.0781926 -0.583512 0.808331 -0.155591 -0.671474 0.72451 -0.0880951 -0.662317 0.744026 
-0.173771 -0.698563 0.694128 -0.127416 -0.898012 0.421117 0.0503159 -0.941162 0.33419 
0.123003 -0.838243 0.531243 0.030302 -0.713621 0.699877 0.0442226 -0.675386 0.736137 
0.0469294 -0.731044 0.680715 0.0394943 -0.678468 0.733567 -0.139141 -0.610352 0.779814 
-0.115444 -0.619902 0.77614 -0.273924 -0.771409 0.574364 -0.33128 -0.891136 0.310048 
0.0354626 0.984416 -0.17224 0.425094 0.90467 0.0294544 0.278251 0.957987 -0.0695457 
0.159383 0.985785 -0.0531421 0.0057317 0.998778 -0.0490884 -0.0361899 0.998218 -0.0474412 
-0.0327214 0.994183 -0.102616 0.0358115 0.984617 -0.171015 0.0472065 0.990712 -0.127516 
0.0212422 0.984439 -0.174439 0.0352163 0.983617 -0.176795 -0.228477 0.950848 -0.209012 
-0.388575 0.899812 -0.198364 -0.380421 0.91655 -0.123355 0.467209 0.88318 -0.0413474 
0.505272 0.858359 -0.0889943 0.276429 0.750651 -0.600092 0.0662271 0.720622 -0.690158 
-0.0127461 0.522984 -0.852247 -0.285676 0.768695 -0.572273 -0.367793 0.922785 -0.114871 
-0.371471 0.91096 -0.179335 -0.300369 0.951672 -0.0640245 -0.351638 0.935916 0.0203064 
0.808015 0.589141 0.00492698 0.657169 0.743938 0.121179 0.658193 0.742925 0.121836 
-0.34086 0.940114 0.000949509 -0.341724 0.9398 -0.000667475 -0.621475 0.777698 0.0946335 
0.809373 0.587272 0.00526205 0.807311 0.589962 -0.0138804 -0.680907 0.72217 0.121805 
-0.691039 0.698119 0.187337 0.883568 0.460516 0.0850387 -0.785159 0.564333 0.255056 
-0.961505 0.2378 0.137692 0.981654 0.185675 0.0433741 0.985864 0.159903 0.0500375 
-0.984857 0.0358884 0.169615 -0.901662 0.271194 -0.336837 0.992469 0.0929187 0.0798203 
0.819963 0.0785428 -0.567002 -0.965833 -0.124323 0.227398 0.997202 -0.0283972 0.069155 
0.943765 -0.0795677 -0.3209 -0.928818 -0.222481 0.296308 0.963526 -0.263964 0.0440606 
0.952277 -0.301408 0.0481775 0.951433 -0.274278 -0.139812 -0.814013 -0.489469 0.312736 
-0.741867 -0.591958 0.31499 0.867962 -0.469596 0.16162 -0.747579 -0.57647 0.32986 
-0.711679 -0.666282 0.222668 0.744932 -0.666782 -0.0218475 0.735993 -0.676587 -0.0233253 
0.741267 -0.663896 -0.0988191 0.571332 -0.816725 0.0808697 -0.69622 -0.68545 0.213156 
-0.488594 -0.861527 0.138012 0.516621 -0.85086 0.0956022 0.394959 -0.903933 0.16405 
0.191975 -0.965058 0.17835 0.0140716 -0.998811 0.0466812 -0.125602 -0.984708 0.120722 
-0.22003 -0.973585 0.0609808 -0.11978 -0.991562 0.0495766 -0.120239 -0.878545 -0.462278 
0.043989 -0.997988 0.0456673 0.0505725 -0.930459 -0.362889 0.127704 -0.989636 0.0656744 
0.0877375 -0.992973 0.0794106 0.0368919 -0.9943 0.100036 0.00338546 -0.997834 0.0656935 
-0.0799851 -0.995821 0.0440866 -0.184467 -0.975836 0.117117 -0.395715 -0.911702 0.110493 
-0.354941 -0.927991 0.113361 -0.358688 -0.916553 -0.176845 0.107592 0.642616 -0.758597 
0.00311015 0.668321 -0.743866 -0.0568153 0.600012 -0.797971 -0.055979 0.576226 -0.815371 
0.00795621 0.526628 -0.850059 -0.139876 0.596274 -0.790501 0.333339 0.638316 -0.693858 
0.252226 0.685464 -0.683024 0.0663065 0.710691 -0.700373 0.0642945 0.714843 -0.696323 
0.100461 0.596407 -0.796371 -0.0240952 0.569028 -0.821965 -0.0681964 0.544517 -0.835973 
-0.0151644 0.522242 -0.852663 -0.0566815 0.541909 -0.838524 -0.0112207 0.519646 -0.854308 
-0.0129116 0.519414 -0.854425 0.0131403 0.506502 -0.862139 -0.143097 0.596825 -0.789508 
-0.136916 0.590872 -0.795063 -0.186976 0.598325 -0.779133 -0.17952 0.639263 -0.74774 
-0.107627 0.740924 -0.662909 -0.186266 0.76566 -0.615686 0.362824 0.629852 -0.686764 
0.489615 0.558637 -0.669478 0.308943 0.619126 -0.721968 0.22897 0.438712 -0.868967 
0.0961383 0.371398 -0.923483 0.00827571 0.31408 -0.949361 -0.0289013 0.259621 -0.965278 
-0.0671526 0.32849 -0.942117 -0.0721834 0.339322 -0.937897 0.00891201 0.347837 -0.937513 
0.0457574 0.392435 -0.918641 -0.0618748 0.375397 -0.924796 -0.138785 0.454513 -0.879862 
-0.106261 0.561142 -0.82087 -0.0890536 0.702465 -0.706125 -0.20494 0.772218 -0.601397 
-0.18176 0.75047 -0.635419 -0.269863 0.786726 -0.555191 -0.412943 0.701277 -0.58111 
0.564152 0.507345 -0.651409 0.64157 0.451675 -0.619982 0.504828 0.453856 -0.734277 
0.185797 0.268101 -0.945305 0.018595 0.354955 -0.934699 0.0320464 0.253315 -0.966853 
-0.0213587 0.193712 -0.980826 -0.0375868 0.19429 -0.980224 -0.0600719 0.203863 -0.977155 
-0.0502772 0.286672 -0.956708 0.0498463 0.262734 -0.96358 0.0858062 0.265058 -0.960407 
-0.0321974 0.283563 -0.958413 -0.076195 0.315022 -0.946021 -0.047786 0.399735 -0.915384 
-0.0586946 0.396213 -0.916281 -0.0478822 0.506146 -0.861117 -0.201123 0.542321 -0.815743 
-0.506093 0.681338 -0.528818 -0.391201 0.657566 -0.64387 -0.661835 0.550508 -0.508837 
0.784557 0.305954 -0.539317 0.550119 0.265798 -0.791657 0.320712 0.14027 -0.936733 
0.16248 0.0634028 -0.984673 0.0137403 0.0641646 -0.997845 -0.00557885 0.258522 -0.965989 
-0.770291 0.430709 -0.470257 -0.635255 0.426541 -0.643827 0.69478 0.118133 -0.709455 
0.628647 0.0737285 -0.774188 0.291219 0.015816 -0.956526 -0.0872904 0.0842375 -0.992615 
-0.200928 -0.0817037 -0.976193 -0.603809 0.256614 -0.754695 -0.710075 0.281828 -0.645264 
0.740851 0.0718222 -0.667819 0.578777 0.0597416 -0.813295 0.227542 0.0149464 -0.973653 
-0.0303413 -0.0563404 -0.99795 -0.247022 0.0200485 -0.968802 -0.77742 -0.0399035 -0.627715 
-0.708556 0.0636672 -0.702776 0.702875 -0.101358 -0.704055 0.59042 -0.0656819 -0.804419 
0.242403 0.148226 -0.958786 0.00721806 0.058439 -0.998265 -0.0819353 -0.0429566 -0.995712 
-0.83113 -0.218186 -0.511486 -0.701415 -0.253497 -0.666151 0.699775 -0.132794 -0.701913 
0.691909 -0.0902828 -0.716317 -0.0974881 -0.107475 -0.989417 0.0535815 -0.251272 -0.966432 
-0.814825 -0.376586 -0.44073 -0.743601 -0.510701 -0.431559 -0.784969 -0.37962 -0.489605 
0.740223 -0.299827 -0.601808 0.658032 -0.42899 -0.618839 0.582122 -0.280857 -0.763055 
0.384832 -0.472676 -0.792769 0.160095 -0.080459 -0.983817 -0.119518 -0.171781 -0.977858 
-0.104036 -0.198939 -0.974474 0.0622289 -0.171486 -0.983219 0.147661 -0.191225 -0.970376 
-0.218893 -0.24219 -0.945214 -0.695283 -0.549128 -0.463725 -0.635815 -0.593612 -0.49332 
-0.501158 -0.585216 -0.637466 0.61269 -0.527604 -0.588426 0.525006 -0.637287 -0.564123 
0.484224 -0.477274 -0.733305 0.18446 -0.265522 -0.946294 0.0355805 -0.310704 -0.949841 
0.02867 -0.355006 -0.934424 -0.107812 -0.369641 -0.922899 -0.131358 -0.373917 -0.918113 
-0.107474 -0.752589 -0.649661 -0.0812168 -0.393917 -0.915551 0.0447227 -0.712968 -0.699769 
0.0429333 -0.408425 -0.911782 0.137312 -0.386084 -0.912187 0.0491863 -0.376418 -0.925144 
-0.0261458 -0.360862 -0.932253 0.0291551 -0.403747 -0.914406 -0.00835863 -0.445576 -0.895205 
0.0303943 -0.448905 -0.893063 -0.292256 -0.801221 -0.522141 -0.0498901 -0.395673 -0.917036 
-0.609595 -0.619975 -0.493988 -0.337346 -0.793791 -0.506056 -0.3987 -0.553759 -0.731019 
0.39495 -0.753798 -0.525169 0.290528 -0.829953 -0.476205 0.305325 -0.715545 -0.628308 
0.0935142 -0.784683 -0.612803 0.0574253 -0.734257 -0.676439 0.0127902 -0.778347 -0.627703 
-0.00691509 -0.653678 -0.756741 -0.1281 -0.750443 -0.648403 -0.100404 -0.63471 -0.7662 
-0.162964 -0.767072 -0.620519 -0.200022 -0.76073 -0.61748 -0.191399 -0.740161 -0.644615 
0.178124 -0.777974 -0.602519 0.182008 -0.778799 -0.600287 0.182114 -0.776288 -0.6035 
0.0849119 -0.809928 -0.580351 0.079112 -0.731154 -0.67761 -0.00642111 -0.797957 -0.60268 
-0.0173314 -0.716376 -0.697499 -0.0222783 -0.76679 -0.641512 -0.0264908 -0.709756 -0.703949 
0.0346743 -0.756832 -0.65269 0.0557467 -0.697276 -0.714632 -0.25884 -0.813088 -0.52143 
-0.161808 -0.847913 -0.504838 -0.124244 -0.727926 -0.674305 0.0395039 0.258608 -0.965174 
0.0160473 0.231318 -0.972746 -0.0274119 0.152278 -0.987958 -0.0353966 0.118186 -0.99236 
0.00518732 0.102808 -0.994688 -0.0280888 0.228707 -0.97309 0.0871141 0.182315 -0.979373 
-0.0279723 0.240852 -0.970159 -0.0247218 0.210188 -0.977348 -0.0112897 0.298245 -0.954423 
-0.0129106 0.299621 -0.953971 -0.0506821 0.381718 -0.922888 -0.298916 0.397599 -0.867505 
0.134879 0.0728558 -0.98818 0.183245 0.0871284 -0.979199 0.0947698 0.112174 -0.989159 
-0.0450695 0.126381 -0.990957 -0.0367444 0.0936667 -0.994925 -0.033868 0.0575915 -0.997766 
0.0142212 0.0892084 -0.995911 0.00695805 0.0933716 -0.995607 -0.0186497 0.203815 -0.978832 
0.0261894 0.0671412 -0.9974 0.0883765 0.0844621 -0.9925 -0.0165763 0.121697 -0.992429 
-0.000855657 0.158538 -0.987352 0.0121856 0.215866 -0.976347 0.00941474 0.273679 -0.961775 
-0.0118104 0.263953 -0.964463 -0.0701358 0.30555 -0.949589 -0.0521214 0.26816 -0.961963 
-0.0188857 0.248599 -0.968422 -0.329774 0.363136 -0.871425 -0.210084 -0.013689 -0.977588 
-0.243074 0.298445 -0.922955 0.222375 0.0817441 -0.971528 0.210553 0.119614 -0.970237 
0.0724712 -0.00956934 -0.997325 0.00126905 0.0345524 -0.999402 -0.0912205 -0.000872048 -0.99583 
-0.0358442 -0.0510696 -0.998052 -0.0430774 -0.0451891 -0.998049 0.0869457 0.00638356 -0.996193 
-0.0797009 0.0967762 -0.99211 -0.0551865 0.0854985 -0.994809 0.0570817 0.072717 -0.995718 
-0.0645168 0.11955 -0.99073 0.146949 0.055652 -0.987577 0.0431252 -0.0119823 -0.998998 
0.0218068 0.0195534 -0.999571 0.0794304 0.0570051 -0.995209 0.0274679 0.125143 -0.991758 
-0.020038 0.079083 -0.996667 -0.190089 -0.0539577 -0.980283 -0.160584 0.217806 -0.962691 
0.194937 0.0115972 -0.980747 0.181536 0.0146782 -0.983275 0.01893 -0.00296446 -0.999816 
-0.0364683 -0.0386887 -0.998586 -0.0551199 -0.0513044 -0.997161 -0.115904 -0.0398401 -0.992461 
0.0738812 -0.0157021 -0.997143 0.153561 0.0168014 -0.987996 0.0745962 0.0371682 -0.996521 
-0.0207272 0.133637 -0.990814 -0.0363626 0.0714353 -0.996782 -0.071389 -0.0722619 -0.994828 
-0.0539949 -0.134908 -0.989386 0.0652789 -0.0642373 -0.995797 0.119943 -0.0148688 -0.992669 
0.0459064 -0.000840535 -0.998945 0.0213558 0.00794978 -0.99974 -0.237961 0.0204728 -0.971059 
-0.181534 0.0473963 -0.982242 -0.184793 0.172016 -0.967606 0.206468 0.0167469 -0.97831 
0.207536 0.137394 -0.968531 0.198352 -0.0689247 -0.977704 0.0203525 -0.0275764 -0.999412 
-0.0358193 -0.0370318 -0.998672 -0.0548321 0.0257036 -0.998165 -0.107251 -0.00117298 -0.994231 
0.0912152 0.0184653 -0.99566 -0.0194899 0.0439647 -0.998843 -0.012516 -0.0864136 -0.996181 
0.193081 -0.0392946 -0.980396 0.0497182 -0.237405 -0.970138 0.0208058 -0.18289 -0.982913 
-0.0402757 -0.0534878 -0.997756 -0.0883467 -0.0376043 -0.99538 -0.107249 -0.0316572 -0.993728 
0.0543617 -0.0293799 -0.998089 -0.0606237 0.0158791 -0.998034 0.134737 -0.0214146 -0.99065 
0.142152 -0.0661189 -0.987634 0.0503208 -0.0707634 -0.996223 0.0246525 0.00846159 -0.99966 
-0.153255 -0.159425 -0.975242 -0.186336 0.172679 -0.967192 -0.183725 0.174498 -0.967365 
0.422281 -0.0313969 -0.905921 0.333394 -0.306118 -0.891706 0.165992 0.0890605 -0.982097 
-0.0554184 -0.123068 -0.99085 -0.0776077 -0.132476 -0.988143 0.0466638 0.0172208 -0.998762 
-0.0100257 -0.0398064 -0.999157 -0.021515 0.027313 -0.999395 -0.0874763 -0.0701259 -0.993695 
-0.107898 -0.134449 -0.985029 -0.0601061 0.0235736 -0.997914 0.110428 -0.149599 -0.982561 
0.147069 -0.169297 -0.97453 0.140918 -0.0801665 -0.98677 -0.0204255 -0.0631162 -0.997797 
-0.0472951 0.0502279 -0.997617 0.0449781 0.0225323 -0.998734 0.069972 -0.0798758 -0.994346 
0.131146 -0.0461785 -0.990287 -0.047714 -0.101776 -0.993662 -0.0755046 -0.285988 -0.955254 
-0.0578142 -0.313576 -0.947801 -0.522335 -0.28464 -0.803832 -0.327042 -0.430364 -0.841327 
-0.187727 -0.113515 -0.97564 0.1289 -0.113141 -0.985182 0.0754654 -0.218392 -0.972939 
0.117299 -0.16155 -0.979869 0.010385 -0.240456 -0.970605 -0.0255608 -0.0805221 -0.996425 
-0.106972 -0.162813 -0.980841 -0.0733651 -0.219474 -0.972856 -0.0461613 -0.11698 -0.992061 
0.124147 -0.186834 -0.974516 0.0330181 -0.226953 -0.973346 0.0261845 -0.168116 -0.985419 