# vtk DataFile Version 4.2
vtk output
ASCII
DATASET POLYDATA
POINTS 540 float
-10.2108 -37.5116 -11.0245 -2.4274 -37.5116 -11.7455 5.35595 -37.5116 -11.2331 
13.1393 -37.5116 -10.3789 -25.7775 -29.7282 -11.786 -17.9941 -29.7282 -12.806 
-10.2108 -29.7282 -13.9035 -2.4274 -29.7282 -14.25 5.35595 -29.7282 -13.5568 
13.1393 -29.7282 -12.7685 20.9227 -29.7282 -12.3344 28.706 -29.7282 -12.1764 
36.4894 -29.7282 -10.1819 -33.5608 -21.9449 -12.1966 -25.7775 -21.9449 -13.9875 
-17.9941 -21.9449 -14.8106 -10.2108 -21.9449 -15.1278 -2.4274 -21.9449 -15.6619 
5.35595 -21.9449 -15.2552 13.1393 -21.9449 -14.7126 20.9227 -21.9449 -14.675 
28.706 -21.9449 -14.4601 36.4894 -21.9449 -13.2135 -41.3442 -14.1615 -10.412 
-33.5608 -14.1615 -12.9253 -25.7775 -14.1615 -14.7254 -17.9941 -14.1615 -15.6843 
-10.2108 -14.1615 -15.3528 -2.4274 -14.1615 -15.4418 5.35595 -14.1615 -16.1252 
13.1393 -14.1615 -16.4001 20.9227 -14.1615 -16.0724 28.706 -14.1615 -15.6613 
36.4894 -14.1615 -14.816 44.2727 -14.1615 -12.9229 -41.3442 -6.37819 -12.0413 
-33.5608 -6.37819 -13.4351 -25.7775 -6.37819 -14.4275 -17.9941 -6.37819 -14.7672 
-10.2108 -6.37819 -15.9925 -2.4274 -6.37819 -17.2392 5.35595 -6.37819 -16.2485 
13.1393 -6.37819 -15.7608 20.9227 -6.37819 -15.9952 28.706 -6.37819 -16.1791 
36.4894 -6.37819 -15.9538 44.2727 -6.37819 -14.5608 52.0561 -6.37819 -11.2846 
-49.1275 1.40517 -11.2486 -41.3442 1.40517 -12.9862 -33.5608 1.40517 -14.0218 
-25.7775 1.40517 -14.1091 -17.9941 1.40517 -13.7254 -10.2108 1.40517 -16.8472 
-2.4274 1.40517 -14.3581 5.35595 1.40517 -16.0557 13.1393 1.40517 -16.4785 
20.9227 1.40517 -15.78 28.706 1.40517 -16.3487 36.4894 1.40517 -16.3507 
44.2727 1.40517 -15.1431 52.0561 1.40517 -11.4947 -49.1275 9.18852 -11.1745 
-41.3442 9.18852 -13.2894 -33.5608 9.18852 -14.5924 -25.7775 9.18852 -14.3633 
-17.9941 9.18852 -13.6533 -10.2108 9.18852 -14.91 -2.4274 9.18852 -16.6304 
5.35595 9.18852 -17.5034 13.1393 9.18852 -16.6467 20.9227 9.18852 -15.6764 
28.706 9.18852 -16.7358 36.4894 9.18852 -16.4609 44.2727 9.18852 -15.1751 
52.0561 9.18852 -11.8116 -49.1275 16.9719 -10.5533 -41.3442 16.9719 -13.8886 
-33.5608 16.9719 -14.6239 -25.7775 16.9719 -14.534 -17.9941 16.9719 -13.563 
-10.2108 16.9719 -13.5258 -2.4274 16.9719 -15.2492 5.35595 16.9719 -15.2582 
13.1393 16.9719 -14.7485 20.9227 16.9719 -15.4889 28.706 16.9719 -16.1201 
36.4894 16.9719 -16.4842 44.2727 16.9719 -14.6838 52.0561 16.9719 -12.151 
-41.3442 24.7552 -12.6504 -33.5608 24.7552 -14.0895 -25.7775 24.7552 -15.5545 
-17.9941 24.7552 -14.4628 -10.2108 24.7552 -14.3694 -2.4274 24.7552 -14.0893 
5.35595 24.7552 -14.2137 13.1393 24.7552 -14.9858 20.9227 24.7552 -15.3087 
28.706 24.7552 -16.1419 36.4894 24.7552 -14.7157 44.2727 24.7552 -13.1118 
-41.3442 32.5386 -12.1109 -33.5608 32.5386 -15.2556 -25.7775 32.5386 -14.3317 
-17.9941 32.5386 -14.9749 -10.2108 32.5386 -15.2643 -2.4274 32.5386 -14.3075 
5.35595 32.5386 -14.3576 13.1393 32.5386 -15.2566 20.9227 32.5386 -14.975 
28.706 32.5386 -14.1511 36.4894 32.5386 -13.6503 44.2727 32.5386 -10.6261 
-33.5608 40.3219 -10.735 -25.7775 40.3219 -14.8933 -17.9941 40.3219 -14.499 
-10.2108 40.3219 -13.7784 -2.4274 40.3219 -13.8228 5.35595 40.3219 -13.7756 
13.1393 40.3219 -13.5883 20.9227 40.3219 -15.6663 28.706 40.3219 -11.9552 
36.4894 40.3219 -10.4181 -25.7775 48.1053 -11.2597 -17.9941 48.1053 -11.2854 
-10.2108 48.1053 -11.8204 -2.4274 48.1053 -12.0731 5.35595 48.1053 -11.871 
13.1393 48.1053 -11.2625 20.9227 48.1053 -11.4483 -17.9941 -45.295 -4.41095 
-10.2108 -39.1668 -10.1627 -10.2108 -45.295 -6.46207 -2.4274 -40.8668 -10.1627 
-2.4274 -45.295 -7.38432 5.35595 -40.0945 -10.1627 5.35595 -45.295 -7.34462 
13.1393 -38.0348 -10.1627 13.1393 -45.295 -6.42532 20.9227 -45.295 -5.78716 
28.706 -45.295 -3.30815 -33.5608 -37.5116 -5.17443 -25.7775 -34.1965 -10.1627 
-25.7775 -37.5116 -8.57911 -14.858 -37.5116 -10.1627 -17.9941 -36.1118 -10.1627 
-17.9941 -37.5116 -9.545 15.4355 -37.5116 -10.1627 20.9227 -36.0885 -10.1627 
20.9227 -37.5116 -9.69763 28.706 -36.2912 -10.1627 28.706 -37.5116 -9.63052 
36.4894 -29.7722 -10.1627 36.4894 -37.5116 -6.61245 -41.3442 -29.7282 -5.71543 
-31.6123 -29.7282 -10.1627 -33.5608 -28.1026 -10.1627 -33.5608 -29.7282 -9.55157 
36.5398 -29.7282 -10.1627 44.2727 -29.7282 -6.58572 -49.1275 -21.9449 -2.55962 
-40.033 -21.9449 -10.1627 -41.3442 -16.8884 -10.1627 -41.3442 -21.9449 -9.59025 
43.8365 -21.9449 -10.1627 44.2727 -21.38 -10.1627 44.2727 -21.9449 -9.92063 
-41.8536 -14.1615 -10.1627 -49.1275 -14.1615 -6.22328 49.4165 -14.1615 -10.1627 
52.0561 -9.99152 -10.1627 52.0561 -14.1615 -7.74394 -46.381 -6.37819 -10.1627 
-49.1275 -3.11106 -10.1627 -49.1275 -6.37819 -8.83572 53.4011 -6.37819 -10.1627 
-50.6831 1.40517 -10.1627 53.5284 1.40517 -10.1627 -50.388 9.18852 -10.1627 
53.9462 9.18852 -10.1627 -49.6301 16.9719 -10.1627 -49.1275 18.9223 -10.1627 
54.059 16.9719 -10.1627 52.0561 21.4055 -10.1627 -46.0585 24.7552 -10.1627 
-49.1275 24.7552 -6.87979 48.9262 24.7552 -10.1627 52.0561 24.7552 -3.66519 
-43.9366 32.5386 -10.1627 -41.3442 36.4689 -10.1627 44.8629 32.5386 -10.1627 
44.2727 33.2385 -10.1627 -34.9728 40.3219 -10.1627 -33.5608 41.6443 -10.1627 
28.706 43.9626 -10.1627 36.9011 40.3219 -10.1627 36.4894 40.6543 -10.1627 
-28.5514 48.1053 -10.1627 -25.7775 49.5115 -10.1627 -17.9941 49.6718 -10.1627 
-10.2108 51.0677 -10.1627 -2.4274 51.5927 -10.1627 5.35595 51.1636 -10.1627 
13.1393 49.8899 -10.1627 24.6094 48.1053 -10.1627 20.9227 49.8025 -10.1627 
28.706 48.1053 -4.53151 -10.2108 55.8886 -4.13514 -2.4274 55.8886 -5.6907 
5.35595 55.8886 -5.58835 13.1393 55.8886 -2.63978 -17.9941 -47.1295 -2.37936 
-10.2108 -48.9749 -2.37936 -2.4274 -49.9109 -2.37936 -2.4274 -53.0783 5.25266 
5.35595 -50.2134 -2.37936 5.35595 -53.0783 4.55071 13.1393 -49.4562 -2.37936 
13.1393 -53.0783 5.33629 20.9227 -48.5346 -2.37936 28.706 -46.1666 -2.37936 
-33.5608 -40.4453 -2.37936 -23.2802 -45.295 -2.37936 -25.7775 -44.211 -2.37936 
-25.7775 -45.295 -0.519109 30.6925 -45.295 -2.37936 36.4894 -42.2747 -2.37936 
-37.4195 -37.5116 -2.37936 -41.3442 -33.8821 -2.37936 -41.3442 -37.5116 4.19183 
41.992 -37.5116 -2.37936 44.2727 -34.9761 -2.37936 -44.6221 -29.7282 -2.37936 
-49.1275 -22.2098 -2.37936 47.9768 -29.7282 -2.37936 -49.2729 -21.9449 -2.37936 
51.6881 -21.9449 -2.37936 52.0561 -21.1972 -2.37936 -52.571 -14.1615 -2.37936 
54.7793 -14.1615 -2.37936 -54.8838 -6.37819 -2.37936 56.8738 -6.37819 -2.37936 
-56.8799 1.40517 -2.37936 -56.9109 1.40517 -1.81872 57.715 1.40517 -2.37936 
-56.1495 9.18852 -2.37936 57.6111 9.18852 -2.37936 -54.2491 16.9719 -2.37936 
-49.1275 16.9719 5.15046 55.9116 16.9719 -2.37936 52.0561 16.9719 4.10765 
-51.0586 24.7552 -2.37936 -49.1275 27.9636 -2.37936 -49.1275 24.7552 0.634469 
-41.3442 24.7552 5.25218 44.2727 24.7552 4.9609 52.3785 24.7552 -2.37936 
52.0561 25.3044 -2.37936 52.0561 24.7552 -1.84337 -46.5063 32.5386 -2.37936 
-41.3442 39.7926 -2.37936 -41.3442 32.5386 3.81485 -33.5608 32.5386 5.3438 
36.4894 32.5386 4.62045 47.1829 32.5386 -2.37936 44.2727 35.922 -2.37936 
44.2727 32.5386 1.19337 -40.7066 40.3219 -2.37936 -33.5608 47.0994 -2.37936 
-33.5608 40.3219 3.87214 -25.7775 40.3219 4.92749 39.8216 40.3219 -2.37936 
36.4894 43.206 -2.37936 36.4894 40.3219 0.878059 -32.3931 48.1053 -2.37936 
-25.7775 51.7321 -2.37936 -25.7775 48.1053 1.97468 -17.9941 54.325 -2.37936 
-10.2108 48.1053 4.45555 13.1393 48.1053 4.41888 20.9227 53.0827 -2.37936 
20.9227 48.1053 4.40387 29.7588 48.1053 -2.37936 28.706 48.8098 -2.37936 
28.706 48.1053 -1.44383 -12.6989 55.8886 -2.37936 -10.2108 56.5021 -2.37936 
-10.2108 55.8886 -1.39774 -2.4274 57.2121 -2.37936 -2.4274 55.8886 -0.0841983 
5.35595 57.2872 -2.37936 5.35595 55.8886 0.139519 13.4209 55.8886 -2.37936 
13.1393 55.9864 -2.37936 13.1393 55.8886 -2.2013 -2.4274 -53.1276 5.404 
5.35595 -53.3418 5.404 13.1393 -53.1006 5.404 -25.7775 -47.9881 5.404 
-17.9941 -50.657 5.404 -2.8605 -53.0783 5.404 -10.2108 -52.2047 5.404 
-2.4274 -53.0783 5.51398 5.35595 -53.0783 5.93002 13.2321 -53.0783 5.404 
13.1393 -53.0783 5.46965 20.9227 -50.9949 5.404 28.706 -47.945 5.404 
-41.3442 -38.1061 5.404 -31.6334 -45.295 5.404 -33.5608 -44.3632 5.404 
-25.7775 -45.295 12.9539 20.9227 -45.295 12.1115 33.8672 -45.295 5.404 
28.706 -45.295 8.26098 36.4894 -43.4733 5.404 -41.8809 -37.5116 5.404 
-41.3442 -37.5116 6.43028 42.6898 -37.5116 5.404 36.4894 -37.5116 9.40729 
44.2727 -34.8857 5.404 -47.4794 -29.7282 5.404 -49.1275 -26.4654 5.404 
36.4894 -29.7282 12.5393 47.0355 -29.7282 5.404 44.2727 -29.7282 8.51702 
-51.4126 -21.9449 5.404 -49.1275 -21.9449 9.14607 36.4894 -21.9449 13.0111 
50.3351 -21.9449 5.404 44.2727 -21.9449 9.61596 52.0561 -16.2901 5.404 
-54.2582 -14.1615 5.404 -49.1275 -14.1615 12.2648 44.2727 -14.1615 10.8235 
52.5038 -14.1615 5.404 52.0561 -14.1615 5.89249 -56.7971 -6.37819 5.404 
-56.9109 -4.51947 5.404 36.4894 -6.37819 13.0759 44.2727 -6.37819 10.7921 
52.9273 -6.37819 5.404 52.0561 -6.37819 6.27461 -57.2248 1.40517 5.404 
-56.9109 3.27054 5.404 -56.9109 1.40517 5.92413 -49.1275 1.40517 12.1732 
36.4894 1.40517 12.4211 44.2727 1.40517 10.2012 52.2504 1.40517 5.404 
52.0561 1.40517 5.57878 -54.9423 9.18852 5.404 -49.1275 16.5524 5.404 
-49.1275 9.18852 9.37317 -41.3442 9.18852 12.4562 28.706 9.18852 12.7666 
36.4894 9.18852 11.5189 44.2727 9.18852 9.59327 53.4036 9.18852 5.404 
52.0561 13.8715 5.404 52.0561 9.18852 6.56757 -48.7741 16.9719 5.404 
-41.3442 24.4509 5.404 -41.3442 16.9719 9.34125 -33.5608 16.9719 10.4784 
-25.7775 16.9719 10.757 -17.9941 16.9719 10.6472 -10.2108 16.9719 11.1585 
-2.4274 16.9719 10.8985 5.35595 16.9719 9.97318 13.1393 16.9719 10.7691 
20.9227 16.9719 11.1065 28.706 16.9719 11.0312 36.4894 16.9719 10.035 
49.975 16.9719 5.404 44.2727 23.6681 5.404 44.2727 16.9719 8.02017 
-41.0225 24.7552 5.404 -33.5608 32.3905 5.404 -33.5608 24.7552 8.41399 
-25.7775 24.7552 8.94541 -17.9941 24.7552 9.45876 -10.2108 24.7552 9.59479 
-2.4274 24.7552 10.1764 5.35595 24.7552 10.2877 13.1393 24.7552 9.54167 
[...]
POINT_DATA 540
SCALARS ImageScalars float
LOOKUP_TABLE default
0 0 0 0 0 0 0 0 0 
0 0 0 0 0 0 0 0 0 
0 0 0 0 0 0 0 0 0 
0 0 0 0 0 0 0 0 0 
0 0 0 0 0 0 0 0 0 
0 0 0 0 0 0 0 0 0 
0 0 0 0 0 0 0 0 0 
0 0 0 0 0 0 0 0 0 
0 0 0 0 0 0 0 0 0 
0 0 0 0 0 0 0 0 0 
0 0 0 0 0 0 0 0 0 
0 0 0 0 0 0 0 0 0 
0 0 0 0 0 0 0 0 0 
0 0 0 0 0 0 0 0 0 
0 0 0 0 0 0 0 0 0 
0 0 0 0 0 0 0 0 0 
0 0 0 0 0 0 0 0 0 
0 0 0 0 0 0 0 0 0 
0 0 0 0 0 0 0 0 0 
0 0 0 0 0 0 0 0 0 
0 0 0 0 0 0 0 0 0 
0 0 0 0 0 0 0 0 0 
0 0 0 0 0 0 0 0 0 
0 0 0 0 0 0 0 0 0 
0 0 0 0 0 0 0 0 0 
0 0 0 0 0 0 0 0 0 
0 0 0 0 0 0 0 0 0 
0 0 0 0 0 0 0 0 0 
0 0 0 0 0 0 0 0 0 
0 0 0 0 0 0 0 0 0 
0 0 0 0 0 0 0 0 0 
0 0 0 0 0 0 0 0 0 
0 0 0 0 0 0 0 0 0 
0 0 0 0 0 0 0 0 0 
0 0 0 0 0 0 0 0 0 
0 0 0 0 0 0 0 0 0 
0 0 0 0 0 0 0 0 0 
0 0 0 0 0 0 0 0 0 
0 0 0 0 0 0 0 0 0 
0 0 0 0 0 0 0 0 0 
0 0 0 0 0 0 0 0 0 
0 0 0 0 0 0 0 0 0 
0 0 0 0 0 0 0 0 0 
0 0 0 0 0 0 0 0 0 
0 0 0 0 0 0 0 0 0 
0 0 0 0 0 0 0 0 0 
0 0 0 0 0 0 0 0 0 
0 0 0 0 0 0 0 0 0 
0 0 0 0 0 0 0 0 0 
0 0 0 0 0 0 0 0 0 
0 0 0 0 0 0 0 0 0 
0 0 0 0 0 0 0 0 0 
0 0 0 0 0 0 0 0 0 
0 0 0 0 0 0 0 0 0 
0 0 0 0 0 0 0 0 0 
0 0 0 0 0 0 0 0 0 
0 0 0 0 0 0 0 0 0 
0 0 0 0 0 0 0 0 0 
0 0 0 0 0 0 0 0 0 
0 0 0 0 0 0 0 0 0 

NORMALS Normals float
0.124104 0.411633 0.90286 0.0113578 0.38039 0.924756 -0.0812161 0.344341 0.935325 
-0.0987757 0.345236 0.933303 0.187184 0.316271 0.930019 0.131668 0.305369 0.943087 
0.0874243 0.250255 0.964225 -0.0212169 0.248212 0.968473 -0.0912716 0.247542 0.964568 
-0.0756843 0.259508 0.962771 -0.0361409 0.295895 0.954536 -0.118214 0.292825 0.94883 
-0.289617 0.378737 0.879023 0.269199 0.194135 0.943315 0.162191 0.18182 0.969864 
0.0722399 0.175609 0.981806 0.0551887 0.0919508 0.994233 0.00913218 0.0729602 0.997293 
-0.0616319 0.164137 0.98451 -0.0353824 0.226793 0.9733 -0.0153305 0.231719 0.972662 
-0.0937212 0.225155 0.969805 -0.249215 0.259876 0.932929 0.371448 0.135736 0.918478 
0.252587 0.0769457 0.96451 0.171824 0.0277496 0.984737 0.039794 -0.00396098 0.9992 
-0.0155178 0.0542248 0.998408 0.0498715 0.0879453 0.994876 0.0603186 0.0606077 0.996337 
-0.00326061 0.0638176 0.997956 -0.0470858 0.0830505 0.995432 -0.0778319 0.1066 0.991251 
-0.159055 0.181418 0.970458 -0.358044 0.273844 0.892645 0.280743 0.163844 0.945695 
0.143519 0.0693334 0.987216 0.0832904 -0.0391047 0.995758 0.0991312 -0.126227 0.987036 
0.1518 0.0906509 0.984245 0.0159105 -0.0169882 0.999729 -0.0887784 -0.00247931 0.996048 
-0.0167341 0.00135866 0.999859 0.0271396 -0.0189316 0.999452 -0.00319886 0.0437131 0.999039 
-0.103264 0.0934694 0.990252 -0.284817 0.124371 0.950479 -0.610488 0.164183 0.774821 
0.472976 0.121629 0.87264 0.1901 0.0728757 0.979056 0.0791033 0.0735999 0.994146 
-0.0190555 -0.00394085 0.999811 0.152565 -0.0723662 0.98564 0.0970021 -0.0437234 0.994323 
-0.0601858 -0.0427271 0.997272 0.115268 0.0838492 0.989789 -0.0234518 0.0591046 0.997976 
-0.00435266 -0.0201803 0.999787 0.036581 0.0356694 0.998694 -0.0743811 0.0330604 0.996682 
-0.262541 0.0408443 0.964056 -0.61399 0.0316811 0.788678 0.536302 -0.0482259 0.842647 
0.215289 0.0528225 0.975121 0.0756569 0.0386284 0.996385 -0.0599079 0.0272248 0.997833 
0.0152834 -0.0106307 0.999827 0.203245 -0.224159 0.953123 0.155282 0.0301056 0.987411 
2.58459e-05 -0.0584208 0.998292 -0.121892 -0.123856 0.984785 0.0119269 -0.0189975 0.999748 
0.0506558 -0.0146586 0.998609 -0.0972963 0.00851387 0.995219 -0.260623 -0.033366 0.964864 
-0.601463 0.0434677 0.797717 0.56882 -0.141605 0.81018 0.281493 -0.0191913 0.959371 
0.034137 -0.0322504 0.998897 -0.0676808 0.0747419 0.994904 -0.0659329 0.0529415 0.996419 
0.096183 -0.0131147 0.995277 0.124157 -0.17088 0.977438 -0.0354824 -0.214722 0.976031 
0.0175868 -0.0936304 0.995452 0.0889852 -0.0235737 0.995754 0.0632387 -0.0384766 0.997256 
-0.104601 -0.112239 0.98816 -0.277355 -0.108136 0.954663 -0.644359 -0.201087 0.737811 
0.406064 -0.128977 0.904697 0.171791 0.0247698 0.984822 0.0234185 -0.0122331 0.999651 
-0.0741402 0.0896048 0.993214 -0.0239312 0.110459 0.993593 -0.0100306 -0.0491916 0.998739 
0.0574017 -0.0514927 0.997022 0.0715607 0.0332053 0.996883 0.0732959 -0.0328288 0.99677 
-0.0339835 -0.121559 0.992002 -0.179204 -0.172982 0.968485 -0.448154 -0.32665 0.83214 
0.523812 -0.238896 0.817649 0.164262 -0.162189 0.972992 -0.00469985 -0.053782 0.998542 
0.0622943 -0.00471418 0.998047 -0.0428879 -0.0360635 0.998429 -0.0566703 -0.0164227 0.998258 
0.0589813 -0.0271218 0.997891 0.0420097 -0.0910564 0.994959 -0.0728189 0.0127741 0.997263 
-0.0824695 -0.253893 0.96371 -0.285718 -0.355991 0.889739 -0.559459 -0.468268 0.683909 
0.440359 -0.466008 0.767411 0.225763 -0.282053 0.932458 -0.0655076 -0.19316 0.978978 
-0.0564643 -0.197806 0.978614 -0.000179116 -0.118768 0.992922 -0.014958 -0.130482 0.991338 
0.0923052 -0.226729 0.969574 -0.0495523 -0.252707 0.966273 -0.341197 -0.427177 0.83732 
-0.413728 -0.581783 0.700256 0.179815 -0.606176 0.774737 0.0326004 -0.605429 0.795231 
0.0497973 -0.392195 0.918533 0.00304959 -0.35066 0.936498 -0.0466745 -0.367282 0.928938 
-0.0199077 -0.445696 0.894963 -0.17269 -0.580316 0.795871 0.255712 0.693062 0.674 
0.134543 0.434379 0.890625 0.148029 0.635041 0.758162 0.0334187 0.469898 0.882088 
0.047173 0.634612 0.77139 -0.0734798 0.376398 0.92354 -0.0485318 0.543572 0.837958 
-0.101264 0.350069 0.931234 -0.0882738 0.555828 0.826597 -0.172218 0.652556 0.73791 
-0.33076 0.754192 0.567268 0.431907 0.579415 0.691183 0.208232 0.428237 0.879348 
0.22815 0.524275 0.820416 0.12854 0.435182 0.89112 0.12941 0.425976 0.895432 
0.135768 0.457192 0.878944 -0.0803812 0.353664 0.931912 -0.0346658 0.359066 0.932668 
-0.0422404 0.380952 0.923629 -0.152138 0.456237 0.876756 -0.165201 0.498416 0.851052 
-0.290767 0.379023 0.87852 -0.47896 0.540329 0.691839 0.549914 0.481714 0.68231 
0.290505 0.367143 0.883636 0.312269 0.346281 0.884634 0.32763 0.387599 0.861641 
-0.290758 0.3796 0.878273 -0.61579 0.527524 0.585253 0.762794 0.428215 0.484537 
0.438488 0.232795 0.868064 0.409463 0.170467 0.89626 0.48301 0.246177 0.840296 
-0.474648 0.315299 0.821764 -0.478758 0.316611 0.81887 -0.496717 0.322265 0.805864 
0.381577 0.144593 0.912958 0.65249 0.310096 0.691446 -0.555712 0.338403 0.759386 
-0.644945 0.246721 0.723308 -0.758346 0.360404 0.543158 0.436043 0.246225 0.865586 
0.507713 0.206577 0.836393 0.550267 0.264688 0.791926 -0.697017 0.167975 0.697102 
0.547359 0.115667 0.828866 -0.700943 0.0278132 0.712675 0.594681 -0.0566485 0.801964 
-0.714441 0.031005 0.699009 0.592886 -0.14398 0.792311 0.592599 -0.182204 0.78462 
-0.79267 -0.210217 0.572262 -0.708953 -0.362152 0.60517 0.567247 -0.232981 0.789906 
0.801497 -0.431506 0.414012 -0.624511 -0.448209 0.639605 -0.844614 -0.533222 -0.0479683 
0.681049 -0.335819 0.650691 0.608241 -0.488254 0.62582 -0.59311 -0.489065 0.639559 
-0.585107 -0.504056 0.635278 0.485921 -0.52586 0.698107 0.490906 -0.528033 0.692959 
-0.400981 -0.534854 0.743737 -0.437382 -0.597201 0.672345 -0.428438 -0.599261 0.67626 
0.365965 -0.681739 0.633484 0.238522 -0.699131 0.674035 0.0548258 -0.698568 0.71344 
0.0841687 -0.605167 0.791636 0.00340863 -0.596415 0.802669 -0.0603656 -0.557357 0.828076 
-0.0477312 -0.556346 0.829579 -0.306801 -0.618198 0.723675 -0.197885 -0.676327 0.709524 
-0.592081 -0.804575 0.0458161 0.185486 -0.98261 -0.00847086 0.0382607 -0.982517 0.182198 
-0.090031 -0.972877 0.213083 -0.272492 -0.959417 -0.0725686 0.241558 0.777105 0.58117 
0.156347 0.826124 0.541364 0.0740754 0.810547 0.580971 0.0724544 0.996038 -0.0515674 
-0.0222564 0.838917 0.543804 -0.00207387 0.998862 -0.0476577 -0.107485 0.801042 0.588879 
-0.139746 0.990186 -0.00192444 -0.18753 0.838906 0.51095 -0.34958 0.786788 0.508684 
0.432849 0.691969 0.577772 0.324462 0.728942 0.6028 0.344829 0.709579 0.614483 
0.374674 0.799402 0.469655 -0.40806 0.781424 0.472084 -0.530041 0.764798 0.366252 
0.519718 0.629014 0.57813 0.621505 0.555045 0.552862 0.730202 0.68125 0.0519977 
-0.655317 0.649001 0.386467 -0.726396 0.596649 0.341114 0.718641 0.485121 0.498209 
0.766519 0.433233 0.474085 -0.829527 0.507855 0.232312 0.767297 0.430713 0.475123 
-0.888068 0.401255 0.224342 -0.895475 0.392677 0.209595 0.844576 0.321417 0.428231 
-0.942696 0.321832 0.0880239 0.854251 0.243932 0.459077 -0.980849 0.19449 -0.0104262 
0.930842 0.0628608 0.359974 0.946288 0.0548499 0.318637 -0.997798 0.0473313 -0.0464733 
0.946844 -0.16336 0.277127 -0.989158 -0.122747 -0.0806174 0.954305 -0.294845 0.0486593 
0.591689 -0.399971 -0.699948 -0.936383 -0.318642 -0.14715 -0.653829 -0.331354 -0.68023 
0.868438 -0.48969 -0.0775887 0.854731 -0.506744 -0.112453 0.767909 -0.50184 -0.398087 
0.406427 -0.319044 -0.856171 -0.46952 -0.341573 -0.814174 -0.841335 -0.514711 -0.165011 
-0.835485 -0.523663 -0.166562 -0.831763 -0.520344 -0.193423 0.838937 -0.519316 -0.162775 
0.697075 -0.677785 -0.233866 0.466682 -0.383416 -0.796995 0.258181 -0.268046 -0.928167 
-0.329288 -0.404348 -0.853272 -0.765612 -0.610161 -0.203819 -0.71738 -0.664887 -0.208066 
-0.631368 -0.566555 -0.529519 0.689719 -0.688164 -0.225206 0.613318 -0.752678 -0.239409 
0.40098 -0.456499 -0.794244 0.16935 -0.350822 -0.921002 -0.657329 -0.721713 -0.216909 
-0.615512 -0.76077 -0.205847 -0.621649 -0.645536 -0.443662 0.580754 -0.771822 -0.258875 
0.401061 -0.886882 -0.229325 0.441234 -0.697303 -0.564873 0.296973 -0.943881 -0.144554 
0.0157542 -0.516706 -0.856018 -0.0810288 -0.527908 -0.845427 -0.403011 -0.907408 -0.119134 
-0.247344 -0.534253 -0.808329 -0.580117 -0.793179 -0.185288 -0.571507 -0.803819 -0.165089 
-0.579195 -0.775511 -0.251228 0.221467 -0.963113 -0.152858 0.183812 -0.973873 -0.13336 
0.195718 -0.954805 -0.223701 0.0524302 -0.994338 -0.0924276 0.0683648 -0.960414 -0.270058 
-0.0838375 -0.99444 -0.0637254 -0.0869793 -0.961595 -0.260326 -0.276168 -0.956683 -0.0921341 
-0.270957 -0.958218 -0.0916589 -0.272758 -0.956475 -0.103721 0.0714796 0.995515 -0.0619763 
-0.00179627 0.995291 -0.0969113 -0.13943 0.990216 -0.00562154 0.363961 0.93074 0.0354191 
0.249831 0.967956 0.0254 0.0763717 0.995334 -0.0589688 0.159726 0.987103 -0.010724 
0.0709502 0.995098 -0.0688963 0.00193572 0.991401 -0.130842 -0.141015 0.989991 -0.00570706 
-0.13925 0.990202 -0.0105054 -0.302017 0.94796 -0.100784 -0.44252 0.86203 -0.247143 
0.729691 0.683269 -0.0263632 0.468979 0.882335 0.0392932 0.514849 0.856548 0.0354506 
0.359718 0.720528 -0.592826 -0.350721 0.50435 -0.789066 -0.555192 0.790914 -0.257326 
-0.418401 0.736495 -0.531522 -0.606917 0.738597 -0.293474 0.740695 0.671083 -0.0319187 
0.739501 0.666641 -0.0934265 -0.756212 0.5759 -0.310617 -0.500862 0.43977 -0.745479 
-0.78537 0.527626 -0.323736 0.86719 0.49731 -0.025758 0.88929 0.452009 -0.0696532 
-0.285706 0.238045 -0.928281 -0.810574 0.412565 -0.415643 -0.680109 0.282305 -0.676577 
0.906867 0.401771 -0.127173 0.851172 0.340732 -0.39926 -0.314329 0.0387621 -0.948522 
-0.820573 0.251128 -0.513415 -0.552022 0.122019 -0.824853 -0.81051 0.153465 -0.565264 
0.935609 0.321948 -0.144865 0.649866 0.198342 -0.733713 -0.453424 0.0747014 -0.888159 
-0.802989 0.12307 -0.583149 -0.77822 0.118428 -0.616724 0.967037 0.181826 -0.178263 
0.970159 0.126836 -0.206648 -0.21064 -0.0525173 -0.976152 -0.367602 -0.039104 -0.929161 
-0.729675 -0.00416533 -0.683782 -0.694566 -0.0134735 -0.719303 0.952439 -0.0618756 -0.29838 
0.934702 -0.131295 -0.330295 0.93886 -0.0680391 -0.337509 0.460905 -0.215463 -0.860896 
-0.208973 -0.0986264 -0.972935 -0.359515 -0.0745806 -0.930154 -0.648943 0.0347642 -0.760042 
-0.639858 0.0332726 -0.767772 0.786807 -0.391673 -0.476999 0.574611 -0.403613 -0.711983 
0.486418 -0.395879 -0.778895 0.225349 -0.358295 -0.906004 -0.126402 -0.165937 -0.978002 
-0.199319 -0.144196 -0.969267 -0.31846 -0.118251 -0.940532 -0.678287 -0.0752821 -0.730931 
-0.608049 -0.216721 -0.763746 -0.593818 -0.0749816 -0.801098 0.563591 -0.400471 -0.722488 
0.396042 -0.319248 -0.860948 0.245288 -0.378404 -0.892549 0.0825471 -0.339625 -0.936932 
0.00962097 -0.298559 -0.954343 0.0236821 -0.288333 -0.957237 0.0214771 -0.402042 -0.915369 
-0.0789024 -0.275092 -0.958175 -0.00540565 -0.302698 -0.953071 0.0744984 -0.373435 -0.92466 
0.0148964 -0.222407 -0.97484 -0.0642601 -0.215201 -0.974453 -0.170714 -0.171773 -0.970232 
-0.529837 -0.315084 -0.787397 -0.434808 -0.322813 -0.840675 -0.340384 -0.265693 -0.901968 
0.391485 -0.314622 -0.864727 0.255932 -0.266599 -0.929206 0.172834 -0.278956 -0.944623 
0.0748531 -0.126685 -0.989115 0.0385496 -0.131623 -0.99055 0.046988 -0.108935 -0.992938 
0.045005 -0.0498539 -0.997742 -0.0411114 0.0114587 -0.999089 -0.0180162 -0.0790335 -0.996709 
-0.0170588 -0.168668 -0.985525 -0.0816373 -0.197125 -0.976973 -0.430106 -0.328799 -0.840773 
-0.295736 -0.370756 -0.880386 -0.230686 -0.31292 -0.921339 0.255818 -0.266153 -0.929365 
0.164051 -0.326662 -0.930795 0.170544 -0.235388 -0.956821 0.0377829 -0.140565 -0.98935 
0.0988488 -0.021042 -0.99488 0.0568694 -0.1088 -0.992436 -0.0386246 -0.106088 -0.993606 
-0.115674 -0.0151035 -0.993172 -0.0970479 -0.201462 -0.974677 -0.294211 -0.328717 -0.897432 
-0.225907 -0.206057 -0.952106 0.179837 -0.303949 -0.935561 0.263226 -0.212185 -0.941111 
0.0152236 -0.441205 -0.897277 0.0661556 -0.273366 -0.959633 -0.031927 -0.244766 -0.969056 
0.0435214 -0.244725 -0.968615 -0.0778463 -0.447189 -0.891046 -0.115274 -0.281801 -0.952523 
-0.182435 -0.373488 -0.909519 -0.160037 -0.241107 -0.957212 -0.344582 -0.432294 -0.833297 
-0.310028 -0.434835 -0.845459 -0.239793 -0.388114 -0.889869 0.133167 -0.481088 -0.866499 
0.0774788 -0.471965 -0.878206 0.110874 -0.484713 -0.867617 0.0996958 -0.468559 -0.877789 
0.059346 -0.413266 -0.908674 0.0727529 -0.418823 -0.905149 0.0723818 -0.399438 -0.913898 
-0.0686941 -0.412063 -0.908562 -0.0719563 -0.418909 -0.905173 -0.0717954 -0.394574 -0.916055 
0.168464 0.772114 -0.612748 0.0175031 0.733086 -0.679911 -0.00921634 0.62869 -0.777602 
-0.00156792 0.620052 -0.784559 -0.175757 0.474836 -0.862346 0.462183 0.644919 -0.60866 
0.349947 0.708763 -0.612529 0.35472 0.704894 -0.614246 0.163328 0.640931 -0.750021 
-0.0203608 0.531021 -0.847114 -0.030181 0.509616 -0.859872 -0.0651705 0.423589 -0.903507 
-0.269576 0.400237 -0.875865 -0.182972 0.359457 -0.915048 -0.252804 0.324533 -0.911465 
-0.320574 0.369523 -0.872173 0.580673 0.518891 -0.627352 0.604925 0.393024 -0.69253 
0.429276 0.450164 -0.782991 0.188257 0.406754 -0.89393 0.00154427 0.251143 -0.967949 
-0.0472021 0.227084 -0.972731 -0.0891966 0.223145 -0.970696 -0.0847545 0.164892 -0.982663 
-0.179013 0.196091 -0.964107 -0.142766 0.164484 -0.975993 -0.334556 0.330133 -0.882658 
-0.31542 0.321945 -0.892671 0.62728 0.327249 -0.706702 0.538873 0.286137 -0.792301 
0.345571 0.16128 -0.924429 0.0802559 0.0746496 -0.993975 -0.0148176 0.0835541 -0.996393 
-0.0580563 0.0545499 -0.996822 -0.10613 0.0402537 -0.993537 -0.135133 0.0415997 -0.989954 
-0.172487 -0.0316867 -0.984502 -0.163472 0.0619603 -0.9846 -0.227125 0.167595 -0.959336 
-0.162349 0.0620436 -0.984781 0.591232 0.16112 -0.790244 0.430333 0.110641 -0.895864 
0.250621 -0.000642501 -0.968085 0.100551 -0.0402738 -0.994116 -0.0258316 -0.0357724 -0.999026 
-0.0829861 -0.0721714 -0.993934 -0.106059 -0.114689 -0.987724 -0.162958 -0.0231195 -0.986362 
-0.145034 -0.0684118 -0.987059 -0.0697897 -0.0208752 -0.997343 -0.298976 0.0363387 -0.953569 
-0.157011 0.0257512 -0.987261 -0.252182 0.0139084 -0.96758 0.558879 0.157864 -0.814084 
0.53849 0.0268946 -0.842202 0.324603 0.0644024 -0.943655 0.156504 -0.0264569 -0.987323 
0.0558003 -0.104919 -0.992914 -0.0474851 -0.141922 -0.988738 -0.137037 -0.0973371 -0.985772 
-0.0511651 -0.0900624 -0.994621 -0.0891337 -0.0644232 -0.993934 -0.172734 -0.0269147 -0.984601 
-0.0734649 -0.0393387 -0.996522 -0.108045 -0.0502547 -0.992875 -0.233728 0.00660137 -0.97228 
-0.22092 -0.0176857 -0.975132 -0.227198 0.00453882 -0.973838 0.527928 -0.0169561 -0.84912 
0.498738 -0.0556872 -0.864962 0.51598 -0.0226574 -0.856301 0.249432 -0.0902898 -0.964174 
0.095734 -0.133038 -0.986476 -0.0101481 -0.168431 -0.985661 -0.0146733 -0.215529 -0.976387 
-0.0314747 -0.168966 -0.985119 -0.0837391 -0.0627409 -0.994511 -0.0979138 -0.267249 -0.95864 
-0.119402 -0.07102 -0.990303 -0.0920527 -0.0406733 -0.994923 -0.201252 -0.0534665 -0.978079 
-0.112897 -0.0622131 -0.991657 0.356678 -0.214989 -0.909154 0.221543 -0.316429 -0.922384 
0.226353 -0.234851 -0.945309 0.0839692 -0.256195 -0.962971 -0.0288484 -0.265042 -0.963805 
-0.0572505 -0.249085 -0.966788 -0.000568181 -0.169399 -0.985547 -0.16711 -0.246425 -0.954646 
-0.0378531 -0.0731757 -0.9966 0.0601609 -0.00463188 -0.998178 -0.0667134 -0.0839256 -0.994236 
-0.152866 -0.0970837 -0.983467 -0.124599 -0.131779 -0.983417 -0.121877 -0.09603 -0.987889 
0.135097 -0.357303 -0.924166 0.0853246 -0.362934 -0.9279 0.0860515 -0.361447 -0.928413 
0.00545204 -0.350221 -0.936651 0.00560853 -0.361379 -0.932402 0.0907485 -0.328422 -0.940161 
0.10006 -0.327082 -0.939683 0.0363093 -0.36267 -0.93121 0.0199318 -0.238443 -0.970952 
-0.0293282 -0.265815 -0.963578 -0.00130754 -0.260574 -0.965453 0.058212 -0.298203 -0.952726 
0.110332 -0.173507 -0.978633 -0.0262177 -0.357822 -0.933422 -0.137977 -0.210499 -0.967808 
-0.156037 -0.184806 -0.970309 -0.15507 -0.203345 -0.966749 -0.180745 -0.199113 -0.963164 

