# vtk DataFile Version 4.2
vtk output
ASCII
DATASET POLYDATA
POINTS 566 float
-28.8155 -42.8739 -12.1886 -20.5994 -42.8739 -13.5872 -12.3834 -42.8739 -13.7757 
-4.1673 -42.8739 -13.1849 4.04876 -42.8739 -12.9424 12.2648 -42.8739 -13.34 
20.4809 -42.8739 -12.6196 -45.2476 -34.6578 -13.6501 -37.0316 -34.6578 -15.3785 
-28.8155 -34.6578 -15.7536 -20.5994 -34.6578 -17.6026 -12.3834 -34.6578 -16.8454 
-4.1673 -34.6578 -15.7978 4.04876 -34.6578 -15.7021 12.2648 -34.6578 -16.4252 
20.4809 -34.6578 -16.8115 28.697 -34.6578 -15.3284 36.913 -34.6578 -13.8214 
-53.4637 -26.4417 -13.707 -45.2476 -26.4417 -16.0238 -37.0316 -26.4417 -16.4267 
-28.8155 -26.4417 -16.8791 -20.5994 -26.4417 -17.5027 -12.3834 -26.4417 -17.3363 
-4.1673 -26.4417 -16.7586 4.04876 -26.4417 -16.4132 12.2648 -26.4417 -16.964 
20.4809 -26.4417 -17.2561 28.697 -26.4417 -16.9645 36.913 -26.4417 -15.1439 
45.1291 -26.4417 -13.5429 -53.4637 -18.2257 -14.5409 -45.2476 -18.2257 -15.9304 
-37.0316 -18.2257 -17.6822 -28.8155 -18.2257 -16.8646 -20.5994 -18.2257 -16.4854 
-12.3834 -18.2257 -16.4987 -4.1673 -18.2257 -16.0816 4.04876 -18.2257 -15.3834 
12.2648 -18.2257 -16.0977 20.4809 -18.2257 -16.5341 28.697 -18.2257 -16.3613 
36.913 -18.2257 -16.0419 45.1291 -18.2257 -15.1276 53.3451 -18.2257 -11.9787 
-61.6797 -10.0096 -13.1059 -53.4637 -10.0096 -16.1741 -45.2476 -10.0096 -16.8766 
-37.0316 -10.0096 -16.9948 -28.8155 -10.0096 -16.7621 -20.5994 -10.0096 -15.6529 
-12.3834 -10.0096 -15.8821 -4.1673 -10.0096 -16.5694 4.04876 -10.0096 -15.1401 
12.2648 -10.0096 -14.5166 20.4809 -10.0096 -14.8869 28.697 -10.0096 -15.7996 
36.913 -10.0096 -16.1825 45.1291 -10.0096 -15.4071 53.3451 -10.0096 -13.8259 
61.5612 -10.0096 -11.933 -61.6797 -1.79355 -13.6762 -53.4637 -1.79355 -16.5848 
-45.2476 -1.79355 -16.9915 -37.0316 -1.79355 -17.1965 -28.8155 -1.79355 -16.6231 
-20.5994 -1.79355 -15.8576 -12.3834 -1.79355 -17.4497 -4.1673 -1.79355 -15.8322 
4.04876 -1.79355 -17.0287 12.2648 -1.79355 -18.8119 20.4809 -1.79355 -14.2314 
28.697 -1.79355 -15.5623 36.913 -1.79355 -15.6533 45.1291 -1.79355 -15.5111 
53.3451 -1.79355 -14.3064 61.5612 -1.79355 -12.2129 -61.6797 6.42251 -12.3118 
-53.4637 6.42251 -15.466 -45.2476 6.42251 -16.7354 -37.0316 6.42251 -17.3288 
-28.8155 6.42251 -17.062 -20.5994 6.42251 -16.084 -12.3834 6.42251 -15.612 
-4.1673 6.42251 -18.5364 4.04876 6.42251 -15.9082 12.2648 6.42251 -17.4358 
20.4809 6.42251 -15.5767 28.697 6.42251 -15.7931 36.913 6.42251 -16.1729 
45.1291 6.42251 -15.3313 53.3451 6.42251 -14.2492 61.5612 6.42251 -12.5513 
-53.4637 14.6386 -13.7939 -45.2476 14.6386 -16.0152 -37.0316 14.6386 -17.2983 
-28.8155 14.6386 -17.6803 -20.5994 14.6386 -16.6913 -12.3834 14.6386 -15.5995 
-4.1673 14.6386 -17.2329 4.04876 14.6386 -15.5436 12.2648 14.6386 -15.9602 
20.4809 14.6386 -16.4953 28.697 14.6386 -16.0753 36.913 14.6386 -15.9546 
45.1291 14.6386 -15.1045 53.3451 14.6386 -12.5286 -53.4637 22.8546 -13.0743 
-45.2476 22.8546 -15.9568 -37.0316 22.8546 -16.7313 -28.8155 22.8546 -17.1369 
-20.5994 22.8546 -17.4353 -12.3834 22.8546 -16.3193 -4.1673 22.8546 -15.6157 
4.04876 22.8546 -14.5409 12.2648 22.8546 -15.0998 20.4809 22.8546 -15.9655 
28.697 22.8546 -15.8173 36.913 22.8546 -14.7569 45.1291 22.8546 -13.2672 
53.3451 22.8546 -11.8622 -37.0316 31.0707 -14.5947 -28.8155 31.0707 -16.1011 
-20.5994 31.0707 -16.1972 -12.3834 31.0707 -16.0715 -4.1673 31.0707 -15.1025 
4.04876 31.0707 -14.0929 12.2648 31.0707 -13.9824 20.4809 31.0707 -13.9789 
28.697 31.0707 -13.5237 36.913 31.0707 -12.4387 -28.8155 39.2868 -12.2631 
-20.5994 39.2868 -13.9404 -12.3834 39.2868 -13.9724 -4.1673 39.2868 -13.3825 
4.04876 39.2868 -13.1453 12.2648 39.2868 -11.8313 -28.8155 -43.5352 -11.5334 
-20.5994 -45.8173 -11.5334 -12.3834 -46.1512 -11.5334 -4.1673 -45.3489 -11.5334 
4.04876 -44.926 -11.5334 4.04876 -51.0899 -3.47687 12.2648 -45.2559 -11.5334 
20.4809 -44.1627 -11.5334 -45.2476 -37.3597 -11.5334 -32.395 -42.8739 -11.5334 
-37.0316 -41.462 -11.5334 -37.0316 -42.8739 -7.88345 26.1885 -42.8739 -11.5334 
28.697 -42.0857 -11.5334 28.697 -42.8739 -10.9265 36.913 -38.4046 -11.5334 
36.913 -42.8739 -6.8571 -48.9893 -34.6578 -11.5334 -53.4637 -30.3467 -11.5334 
-53.4637 -34.6578 -4.80375 43.107 -34.6578 -11.5334 45.1291 -32.5452 -11.5334 
45.1291 -34.6578 -10.5161 -57.047 -26.4417 -11.5334 -61.6797 -26.4417 -4.95841 
50.3607 -26.4417 -11.5334 53.3451 -20.6068 -11.5334 53.3451 -26.4417 -10.1275 
-61.6479 -18.2257 -11.5334 -61.6797 -18.18 -11.5334 -61.6797 -18.2257 -11.5173 
54.3099 -18.2257 -11.5334 61.5612 -10.6067 -11.5334 61.5612 -18.2257 -7.68601 
-63.8046 -10.0096 -11.5334 61.8605 -10.0096 -11.5334 -64.6947 -1.79355 -11.5334 
-69.8958 -1.79355 -4.22973 62.5391 -1.79355 -11.5334 69.7773 -1.79355 -3.75531 
-62.697 6.42251 -11.5334 -61.6797 9.78075 -11.5334 63.0312 6.42251 -11.5334 
61.5612 9.69585 -11.5334 69.7773 6.42251 -4.32378 -58.4756 14.6386 -11.5334 
-61.6797 14.6386 -9.62926 56.217 14.6386 -11.5334 61.5612 14.6386 -9.49681 
-55.5659 22.8546 -11.5334 -53.4637 25.4155 -11.5334 -45.2476 30.7204 -11.5334 
45.1291 29.8527 -11.5334 53.9249 22.8546 -11.5334 53.3451 23.5128 -11.5334 
61.5612 22.8546 -4.80253 -53.4637 31.0707 -3.65002 -44.8438 31.0707 -11.5334 
-45.2476 31.0707 -11.2932 -37.0316 37.0615 -11.5334 20.4809 37.2595 -11.5334 
28.697 37.2525 -11.5334 42.8863 31.0707 -11.5334 36.913 32.6398 -11.5334 
45.1291 31.0707 -11.0205 53.3451 31.0707 -4.78226 -31.4919 39.2868 -11.5334 
-37.0316 39.2868 -8.39658 -28.8155 40.0846 -11.5334 -20.5994 43.0082 -11.5334 
-12.3834 43.3117 -11.5334 -4.1673 42.8413 -11.5334 4.04876 43.5583 -11.5334 
14.6073 39.2868 -11.5334 12.2648 40.049 -11.5334 20.4809 39.2868 -10.6033 
28.697 39.2868 -10.5083 36.913 39.2868 -5.98825 -20.5994 47.5028 -3.67048 
-12.3834 47.5028 -7.4446 -4.1673 47.5028 -8.42245 4.04876 47.5028 -8.91923 
12.2648 47.5028 -6.89737 4.04876 -51.1695 -3.31731 -37.0316 -43.674 -3.31731 
-28.8155 -46.6911 -3.31731 -20.5994 -48.9442 -3.31731 -12.3834 -50.3221 -3.31731 
-0.739632 -51.0899 -3.31731 -4.1673 -51.027 -3.31731 5.75288 -51.0899 -3.31731 
4.04876 -51.0899 -2.22375 12.2648 -50.7544 -3.31731 20.4809 -49.7337 -3.31731 
28.697 -47.9715 -3.31731 36.913 -44.6087 -3.31731 -53.4637 -35.3246 -3.31731 
-38.8671 -42.8739 -3.31731 -45.2476 -39.9202 -3.31731 -37.0316 -42.8739 -1.81777 
-28.8155 -42.8739 3.483 -20.5994 -42.8739 4.7063 39.966 -42.8739 -3.31731 
45.1291 -39.6044 -3.31731 -54.2785 -34.6578 -3.31731 -61.6797 -27.4864 -3.31731 
-53.4637 -34.6578 -1.91141 51.2853 -34.6578 -3.31731 53.3451 -32.7784 -3.31731 
-62.5711 -26.4417 -3.31731 -61.6797 -26.4417 -0.630059 59.2215 -26.4417 -3.31731 
61.5612 -23.5136 -3.31731 -67.3001 -18.2257 -3.31731 65.3499 -18.2257 -3.31731 
-69.6146 -10.0096 -3.31731 -69.8958 -7.53078 -3.31731 68.6213 -10.0096 -3.31731 
69.7773 -3.71395 -3.31731 -70.4338 -1.79355 -3.31731 -69.8958 0.960975 -3.31731 
-69.8958 -1.79355 1.62283 70.0848 -1.79355 -3.31731 -68.5842 6.42251 -3.31731 
70.5247 6.42251 -3.31731 69.7773 8.58627 -3.31731 -66.3059 14.6386 -3.31731 
-61.6797 22.2496 -3.31731 67.4673 14.6386 -3.31731 -61.2751 22.8546 -3.31731 
63.0221 22.8546 -3.31731 61.5612 24.3903 -3.31731 -53.6846 31.0707 -3.31731 
-53.4637 31.289 -3.31731 -53.4637 31.0707 -1.16396 -45.2476 37.0779 -3.31731 
45.1291 37.0902 -3.31731 54.6979 31.0707 -3.31731 53.3451 32.1333 -3.31731 
-41.0406 39.2868 -3.31731 -37.0316 41.2445 -3.31731 -28.8155 44.6522 -3.31731 
20.4809 46.7741 -3.31731 28.697 44.0108 -3.31731 41.0033 39.2868 -3.31731 
36.913 40.9432 -3.31731 -20.961 47.5028 -3.31731 -20.5994 47.637 -3.31731 
-20.5994 47.5028 -2.42301 -12.3834 49.9159 -3.31731 -4.1673 51.25 -3.31731 
4.04876 51.0704 -3.31731 18.8211 47.5028 -3.31731 12.2648 49.8489 -3.31731 
20.4809 47.5028 2.12297 -12.3834 -46.384 4.89875 -4.1673 -49.2648 4.89875 
4.04876 -50.343 4.89875 12.2648 -50.3511 4.89875 20.4809 -48.9518 4.89875 
28.697 -46.4237 4.89875 36.913 -43.6636 4.89875 -45.2476 -35.4096 4.89875 
-37.0316 -36.6856 4.89875 -28.8155 -41.0952 4.89875 -20.1273 -42.8739 4.89875 
-20.5994 -42.6434 4.89875 -12.3834 -42.8739 7.50267 -4.1673 -42.8739 9.90423 
4.04876 -42.8739 11.1256 12.2648 -42.8739 11.4327 20.4809 -42.8739 10.8412 
28.697 -42.8739 9.94854 38.2621 -42.8739 4.89875 36.913 -42.8739 5.91029 
45.1291 -37.4065 4.89875 -46.7637 -34.6578 4.89875 -53.4637 -30.6747 4.89875 
-45.2476 -34.6578 5.54093 -37.0316 -34.6578 6.38443 -28.8155 -34.6578 8.49705 
-20.5994 -34.6578 9.51232 -12.3834 -34.6578 11.1784 -4.1673 -34.6578 12.2832 
36.913 -34.6578 11.2393 48.7849 -34.6578 4.89875 45.1291 -34.6578 7.87032 
53.3451 -30.3169 4.89875 -58.8376 -26.4417 4.89875 -61.6797 -23.2954 4.89875 
-53.4637 -26.4417 7.86264 -45.2476 -26.4417 10.792 -37.0316 -26.4417 10.985 
-28.8155 -26.4417 11.26 -20.5994 -26.4417 11.0765 -12.3834 -26.4417 11.8926 
-4.1673 -26.4417 12.7718 45.1291 -26.4417 11.8991 57.0618 -26.4417 4.89875 
53.3451 -26.4417 8.29209 61.5612 -22.7458 4.89875 -64.7889 -18.2257 4.89875 
-61.6797 -18.2257 7.56659 -53.4637 -18.2257 12.9461 -45.2476 -18.2257 12.821 
-20.5994 -18.2257 12.8514 -12.3834 -18.2257 12.8049 -4.1673 -18.2257 12.3463 
4.04876 -18.2257 12.306 53.3451 -18.2257 11.7047 64.7452 -18.2257 4.89875 
61.5612 -18.2257 8.27869 -67.4313 -10.0096 4.89875 -61.6797 -10.0096 10.462 
-53.4637 -10.0096 13.0398 4.04876 -10.0096 12.1305 12.2648 -10.0096 12.1435 
67.7992 -10.0096 4.89875 61.5612 -10.0096 11.3996 69.7773 -3.1184 4.89875 
-69.3295 -1.79355 4.89875 -61.6797 -1.79355 12.4055 70.0518 -1.79355 4.89875 
69.7773 -1.79355 5.27042 -67.8363 6.42251 4.89875 -61.6797 6.42251 11.8568 
70.3725 6.42251 4.89875 69.7773 8.44 4.89875 69.7773 6.42251 5.7083 
-66.0048 14.6386 4.89875 -61.6797 21.5621 4.89875 -61.6797 14.6386 10.1646 
67.3393 14.6386 4.89875 61.5612 14.6386 12.2045 -60.5028 22.8546 4.89875 
-53.4637 30.2684 4.89875 -53.4637 22.8546 10.3863 53.3451 22.8546 11.8929 
63.7898 22.8546 4.89875 61.5612 25.1984 4.89875 61.5612 22.8546 7.36034 
-52.4944 31.0707 4.89875 -45.2476 35.4682 4.89875 -45.2476 31.0707 9.94982 
[...]
POINT_DATA 566
SCALARS ImageScalars float
LOOKUP_TABLE default
0 0 0 0 0 0 0 0 0 
0 0 0 0 0 0 0 0 0 
0 0 0 0 0 0 0 0 0 
0 0 0 0 0 0 0 0 0 
0 0 0 0 0 0 0 0 0 
0 0 0 0 0 0 0 0 0 
0 0 0 0 0 0 0 0 0 
0 0 0 0 0 0 0 0 0 
0 0 0 0 0 0 0 0 0 
0 0 0 0 0 0 0 0 0 
0 0 0 0 0 0 0 0 0 
0 0 0 0 0 0 0 0 0 
0 0 0 0 0 0 0 0 0 
0 0 0 0 0 0 0 0 0 
0 0 0 0 0 0 0 0 0 
0 0 0 0 0 0 0 0 0 
0 0 0 0 0 0 0 0 0 
0 0 0 0 0 0 0 0 0 
0 0 0 0 0 0 0 0 0 
0 0 0 0 0 0 0 0 0 
0 0 0 0 0 0 0 0 0 
0 0 0 0 0 0 0 0 0 
0 0 0 0 0 0 0 0 0 
0 0 0 0 0 0 0 0 0 
0 0 0 0 0 0 0 0 0 
0 0 0 0 0 0 0 0 0 
0 0 0 0 0 0 0 0 0 
0 0 0 0 0 0 0 0 0 
0 0 0 0 0 0 0 0 0 
0 0 0 0 0 0 0 0 0 
0 0 0 0 0 0 0 0 0 
0 0 0 0 0 0 0 0 0 
0 0 0 0 0 0 0 0 0 
0 0 0 0 0 0 0 0 0 
0 0 0 0 0 0 0 0 0 
0 0 0 0 0 0 0 0 0 
0 0 0 0 0 0 0 0 0 
0 0 0 0 0 0 0 0 0 
0 0 0 0 0 0 0 0 0 
0 0 0 0 0 0 0 0 0 
0 0 0 0 0 0 0 0 0 
0 0 0 0 0 0 0 0 0 
0 0 0 0 0 0 0 0 0 
0 0 0 0 0 0 0 0 0 
0 0 0 0 0 0 0 0 0 
0 0 0 0 0 0 0 0 0 
0 0 0 0 0 0 0 0 0 
0 0 0 0 0 0 0 0 0 
0 0 0 0 0 0 0 0 0 
0 0 0 0 0 0 0 0 0 
0 0 0 0 0 0 0 0 0 
0 0 0 0 0 0 0 0 0 
0 0 0 0 0 0 0 0 0 
0 0 0 0 0 0 0 0 0 
0 0 0 0 0 0 0 0 0 
0 0 0 0 0 0 0 0 0 
0 0 0 0 0 0 0 0 0 
0 0 0 0 0 0 0 0 0 
0 0 0 0 0 0 0 0 0 
0 0 0 0 0 0 0 0 0 
0 0 0 0 0 0 0 0 0 
0 0 0 0 0 0 0 0 0 
0 0 0 0 0 0 0 0 
NORMALS Normals float
-0.186822 -0.677743 -0.711169 -0.0773791 -0.561312 -0.823979 0.0247087 -0.513408 -0.857789 
0.049887 -0.473675 -0.879286 -0.00835777 -0.489564 -0.871927 0.0124817 -0.537764 -0.843003 
0.118059 -0.601781 -0.789887 -0.374188 -0.51904 -0.768492 -0.147851 -0.346964 -0.926151 
-0.129225 -0.247617 -0.960201 -0.0547352 -0.227789 -0.972171 0.100695 -0.203472 -0.973889 
0.0736269 -0.211793 -0.974537 -0.0402128 -0.202472 -0.978462 -0.0639036 -0.202243 -0.977248 
0.0611329 -0.231497 -0.970913 0.154807 -0.301903 -0.940686 0.285858 -0.359823 -0.888151 
-0.38559 -0.328245 -0.862308 -0.183974 -0.149264 -0.971532 -0.0503543 -0.129512 -0.990298 
-0.0626443 -0.0603433 -0.99621 -0.0279669 0.0675355 -0.997325 0.0437701 0.0195308 -0.998851 
0.0572235 -0.016516 -0.998225 -0.0133045 0.016886 -0.999769 -0.0512031 0.0182769 -0.998521 
0.00129115 0.0191788 -0.999815 0.120203 -0.0554295 -0.991201 0.197675 -0.114171 -0.973596 
0.296768 -0.284392 -0.911619 -0.291321 -0.149289 -0.944905 -0.168436 -0.04998 -0.984445 
-0.0555484 -0.0304074 -0.997993 0.0710727 0.00658978 -0.997449 0.022163 0.108273 -0.993874 
0.0247044 0.0872485 -0.99588 0.066825 0.0120481 -0.997692 -0.000927388 0.0769088 -0.997038 
-0.0672082 0.138598 -0.988066 -0.0159665 0.144511 -0.989374 0.029459 0.0733924 -0.996868 
0.0826179 -0.062077 -0.994646 0.209261 -0.0913901 -0.97358 0.405313 -0.18555 -0.895149 
-0.508178 -0.136828 -0.850314 -0.275706 -0.115581 -0.954268 -0.0448307 -0.0644174 -0.996916 
0.00600393 0.0282499 -0.999583 0.0803547 0.0152589 -0.99665 0.0503674 0.0393458 -0.997955 
-0.0547567 -0.0510086 -0.997196 0.0340199 0.00767879 -0.999392 0.130773 -0.0733316 -0.988697 
0.00980889 -0.0459513 -0.998896 -0.0757404 0.139341 -0.987344 -0.0782765 0.0483806 -0.995757 
0.0237654 0.0239218 -0.999431 0.132549 -0.0251293 -0.990858 0.174159 -0.133668 -0.975603 
0.572953 -0.24657 -0.781619 -0.474462 0.0470896 -0.879015 -0.230821 0.0382819 -0.972243 
-0.0343508 0.00858602 -0.999373 0.022629 -0.0203169 -0.999537 0.0812704 -0.0188589 -0.996514 
-0.0408605 -0.0253938 -0.998842 -0.0173373 0.0133895 -0.99976 0.0453141 -0.107968 -0.993121 
-0.158404 -0.0416525 -0.986495 0.266083 -0.204081 -0.942099 0.0680206 -0.0389891 -0.996922 
-0.0878835 0.000401602 -0.996131 0.00307764 0.000639305 -0.999995 0.0774269 0.00457712 -0.996988 
0.216611 -0.0239205 -0.975965 0.472478 -0.0325702 -0.88074 -0.541075 0.190807 -0.819042 
-0.298553 0.152733 -0.942093 -0.104857 0.0582707 -0.992779 -0.0190263 -0.00619751 -0.9998 
0.0753741 -0.0639904 -0.9951 0.0854839 -0.0505191 -0.995058 -0.123934 0.107777 -0.98642 
-0.0141558 -0.0796982 -0.996719 0.0462474 0.0734935 -0.996223 0.0197185 0.135232 -0.990618 
0.0966013 -0.140065 -0.985419 -0.035307 -0.0311585 -0.998891 0.0279304 -0.0187907 -0.999433 
0.11197 0.0262227 -0.993366 0.190331 0.105632 -0.976021 0.456317 0.120185 -0.881663 
-0.306037 0.151713 -0.939853 -0.188832 0.0458806 -0.980937 -0.0971951 0.0343089 -0.994674 
0.0369098 -0.00465316 -0.999308 0.127429 -0.0822745 -0.988429 -0.0144483 -0.0438736 -0.998933 
-0.00602147 0.177853 -0.984039 0.0642081 0.0891799 -0.993944 -0.0562828 0.138932 -0.988701 
-0.00593773 -0.0208521 -0.999765 0.0327144 -0.00106472 -0.999464 0.0660995 0.0843065 -0.994245 
0.187804 0.109841 -0.976045 0.309006 0.137995 -0.940996 -0.473315 0.329934 -0.816772 
-0.244376 0.232985 -0.941275 -0.0634347 0.166157 -0.984057 -0.0413688 0.0904462 -0.995042 
0.0506895 0.0298905 -0.998267 0.107981 -0.0288108 -0.993735 0.108837 0.111533 -0.987783 
0.0293858 0.0828154 -0.996132 -0.0867715 0.121414 -0.988802 -0.0430845 0.145419 -0.988432 
0.0692984 0.144232 -0.987114 0.148379 0.184466 -0.971574 0.187053 0.261037 -0.947033 
0.392235 0.312949 -0.864994 -0.244009 0.350334 -0.904282 -0.099244 0.244639 -0.964522 
0.00217813 0.204075 -0.978953 0.0662586 0.132081 -0.989022 0.120012 0.128071 -0.984477 
0.0666295 0.0878165 -0.993906 0.00679913 0.196449 -0.98049 0.0262197 0.283993 -0.958468 
0.0807387 0.302377 -0.949763 0.147497 0.405418 -0.902154 -0.227552 0.617011 -0.753337 
-0.0803089 0.440708 -0.894051 0.0324266 0.387025 -0.921499 0.0489626 0.333302 -0.941548 
0.0948108 0.25474 -0.96235 0.149529 0.336973 -0.929565 -0.203321 -0.717277 -0.666464 
-0.124653 -0.707992 -0.695133 0.0192419 -0.677674 -0.735111 0.0509918 -0.594921 -0.802165 
0.00259953 -0.583492 -0.812115 0.0158847 -0.972828 -0.230983 0.0329344 -0.64882 -0.760228 
0.131728 -0.650302 -0.748168 -0.412895 -0.634921 -0.652988 -0.258449 -0.723486 -0.640135 
-0.30843 -0.710887 -0.632068 -0.391892 -0.885506 -0.249599 0.17513 -0.636147 -0.751429 
0.194974 -0.618603 -0.761128 0.206016 -0.672801 -0.71056 0.328268 -0.524153 -0.785814 
0.438333 -0.801687 -0.406402 -0.467995 -0.583592 -0.663627 -0.503187 -0.480721 -0.71813 
-0.613337 -0.782377 -0.108189 0.408015 -0.451834 -0.793328 0.404348 -0.428337 -0.808103 
0.470055 -0.514336 -0.717292 -0.572905 -0.407536 -0.711122 -0.777728 -0.603228 -0.176794 
0.408448 -0.332346 -0.850127 0.433472 -0.230672 -0.871144 0.52633 -0.406747 -0.746682 
-0.520225 -0.283374 -0.805646 -0.521142 -0.283233 -0.805103 -0.521907 -0.284291 -0.804234 
0.429662 -0.209736 -0.878294 0.58212 -0.277064 -0.764442 0.656387 -0.486497 -0.576608 
-0.596343 -0.145755 -0.789386 0.594921 -0.257546 -0.761406 -0.609058 0.0549162 -0.791222 
-0.952647 0.0540375 -0.299238 0.507116 -0.0547745 -0.860136 0.914277 -0.109748 -0.389939 
-0.576686 0.219619 -0.786893 -0.592061 0.286887 -0.7531 0.510188 0.118956 -0.851797 
0.45034 0.24486 -0.858625 0.88614 0.135786 -0.443077 -0.546539 0.290056 -0.785597 
-0.701699 0.402409 -0.58795 0.358139 0.215768 -0.908394 0.514554 0.407675 -0.754344 
-0.540598 0.378187 -0.751484 -0.509336 0.429889 -0.745501 -0.415097 0.514133 -0.750574 
0.287382 0.461013 -0.839571 0.411436 0.323501 -0.852096 0.405664 0.337642 -0.849373 
0.636718 0.604872 -0.478246 -0.659113 0.719603 -0.218497 -0.415203 0.515371 -0.749666 
-0.428137 0.532007 -0.730526 -0.329513 0.629055 -0.704068 0.0544745 0.446135 -0.893306 
0.135558 0.519535 -0.843628 0.264133 0.472957 -0.840563 0.185109 0.46122 -0.867762 
0.319052 0.512782 -0.797032 0.567799 0.709612 -0.417199 -0.273932 0.660836 -0.698754 
-0.391642 0.811248 -0.434159 -0.247585 0.654359 -0.714504 -0.139903 0.635798 -0.759071 
0.00249092 0.567243 -0.823547 -0.00197025 0.470001 -0.882664 0.0642848 0.457147 -0.887065 
0.129281 0.38264 -0.914808 0.161288 0.365411 -0.916766 0.0747331 0.534354 -0.841951 
0.168596 0.629362 -0.758603 0.373944 0.80796 -0.455376 -0.307025 0.942875 -0.129312 
-0.139296 0.869111 -0.474597 -0.0579113 0.755522 -0.652559 0.0597537 0.721231 -0.690112 
0.256744 0.770368 -0.583623 0.0156796 -0.975034 -0.221503 -0.392752 -0.907125 0.151232 
-0.319363 -0.941424 0.108293 -0.223356 -0.966511 0.126363 -0.121193 -0.992599 -0.00768378 
-0.0248394 -0.983413 -0.179672 -0.0531847 -0.987305 -0.149668 0.0297959 -0.974607 -0.22193 
0.00698314 -0.988473 -0.151239 0.0819265 -0.971408 -0.222834 0.162505 -0.967089 -0.195785 
0.294717 -0.939881 -0.172526 0.458095 -0.873784 -0.163247 -0.597709 -0.801709 0.00266072 
-0.40696 -0.899171 0.160859 -0.444433 -0.889276 0.108015 -0.410342 -0.877775 0.247245 
-0.231113 -0.710036 0.665159 -0.19098 -0.641097 0.743318 0.503287 -0.848277 -0.164706 
0.57455 -0.804331 -0.151471 -0.614794 -0.788628 0.00968244 -0.768696 -0.634718 -0.0789921 
-0.605966 -0.786239 0.120973 0.649356 -0.737777 -0.184449 0.675368 -0.711456 -0.194187 
-0.78715 -0.610534 -0.0874232 -0.76071 -0.636559 0.126931 0.750011 -0.62355 -0.220609 
0.76409 -0.58194 -0.278409 -0.912216 -0.382784 -0.146075 0.830366 -0.484153 -0.275841 
-0.957753 -0.182424 -0.222329 -0.965581 -0.112137 -0.234687 0.914948 -0.266524 -0.303043 
0.923824 -0.14935 -0.352481 -0.969354 0.0528493 -0.239915 -0.958319 0.113349 -0.262252 
-0.979502 0.0220955 0.200221 0.926841 -0.110224 -0.35891 -0.932509 0.23304 -0.275898 
0.917869 0.153145 -0.366147 0.916189 0.21218 -0.339966 -0.87538 0.391575 -0.283511 
-0.794582 0.552583 -0.251577 0.899527 0.354936 -0.254699 -0.788763 0.564828 -0.242533 
0.680395 0.626195 -0.380712 0.653059 0.66098 -0.369621 -0.664715 0.720039 -0.199243 
-0.660943 0.723516 -0.199197 -0.674916 0.735 -0.0652978 -0.494059 0.856854 -0.147333 
0.477597 0.8298 -0.288674 0.602187 0.731229 -0.320428 0.578996 0.751355 -0.31659 
-0.448595 0.886396 -0.114299 -0.418242 0.902863 -0.099563 -0.360144 0.927356 -0.101521 
0.330871 0.872563 -0.359386 0.318252 0.904461 -0.284016 0.425965 0.856547 -0.291342 
0.376715 0.882203 -0.282496 -0.312977 0.943704 -0.107092 -0.310976 0.944235 -0.108231 
-0.312872 0.947905 -0.0598865 -0.21731 0.957935 -0.187447 -0.0719108 0.954944 -0.287941 
0.0906344 0.94309 -0.319949 0.330063 0.876028 -0.351615 0.25994 0.901979 -0.344768 
0.361666 0.929991 0.0656819 -0.290787 -0.662532 0.690286 -0.177116 -0.847357 0.500616 
-0.055073 -0.917801 0.393202 0.0793873 -0.930342 0.357996 0.196725 -0.902574 0.382962 
0.309541 -0.855664 0.414757 0.413814 -0.81243 0.41075 -0.239573 -0.653635 0.71789 
-0.19992 -0.621683 0.757326 -0.209913 -0.595945 0.775104 -0.195099 -0.626299 0.754776 
-0.187429 -0.625398 0.757462 -0.272793 -0.501016 0.82132 -0.208976 -0.460062 0.862944 
-0.0994177 -0.448874 0.888048 0.0174661 -0.461404 0.887018 0.0668194 -0.537117 0.840857 
0.235095 -0.658473 0.714943 0.440465 -0.796936 0.413381 0.415126 -0.77367 0.47865 
0.543907 -0.717824 0.434619 -0.287722 -0.635005 0.716927 -0.446013 -0.574598 0.686229 
-0.24098 -0.627123 0.740706 -0.159871 -0.570699 0.805446 -0.165674 -0.419845 0.892347 
-0.1279 -0.310092 0.942064 -0.177901 -0.248397 0.952182 -0.122053 -0.16826 0.978157 
0.271107 -0.447438 0.852233 0.568051 -0.690094 0.448428 0.480316 -0.614222 0.626122 
0.621826 -0.634724 0.458757 -0.554046 -0.573613 0.603325 -0.63899 -0.503133 0.58185 
-0.373458 -0.531442 0.760328 -0.189114 -0.427295 0.884113 -0.023679 -0.375199 0.926642 
-0.00610243 -0.255419 0.966811 -0.038297 -0.206715 0.977651 -0.102517 -0.0917433 0.990491 
-0.0984141 -0.00307042 0.995141 0.304045 -0.313919 0.899451 0.651911 -0.613458 0.445737 
0.553034 -0.511475 0.657683 0.704128 -0.561148 0.435105 -0.743299 -0.384029 0.547749 
-0.571723 -0.369224 0.73267 -0.289723 -0.300985 0.908553 -0.0675093 -0.245137 0.967135 
0.0320613 -0.201953 0.97887 0.0307209 -0.21174 0.976843 0.0301337 -0.0299111 0.999098 
-0.0605122 0.0867566 0.99439 0.363883 -0.25814 0.89496 0.788146 -0.441536 0.428804 
0.646772 -0.441818 0.621678 -0.809633 -0.227265 0.541152 -0.533851 -0.256182 0.805837 
-0.2486 -0.0823478 0.965099 0.0883597 -0.265524 0.960047 -0.121479 -0.122997 0.984944 
0.855204 -0.305899 0.418392 0.506799 -0.311843 0.803684 0.906064 -0.16166 0.391042 
-0.868718 -0.00612738 0.49527 -0.497034 -0.0551768 0.865975 0.913841 -0.129093 0.385006 
0.904151 -0.128644 0.407384 -0.890194 0.169896 0.422718 -0.552662 0.0951642 0.827955 
0.925638 0.124433 0.357366 0.917656 0.174776 0.356875 0.908443 0.119911 0.40044 
-0.858759 0.36444 0.360162 -0.740061 0.574347 0.349908 -0.621622 0.31922 0.715321 
0.869996 0.359524 0.337415 0.523889 0.392053 0.756198 -0.7076 0.605256 0.364648 
-0.628383 0.682018 0.374148 -0.515552 0.435591 0.73788 0.424563 0.379994 0.821797 
0.759019 0.559583 0.332801 0.715888 0.625335 0.310581 0.690181 0.568939 0.447168 
-0.615102 0.695963 0.37052 -0.46621 0.788919 0.400319 -0.416687 0.627842 0.657408 
0.458055 0.820659 0.34162 0.331915 0.642987 0.690217 0.564963 0.773975 0.285971 
0.524118 0.800655 0.290262 0.501227 0.751224 0.429457 -0.379358 0.849572 0.366489 
-0.364228 0.856471 0.36578 -0.358059 0.835113 0.417589 -0.330496 0.852646 0.404683 
-0.280684 0.714454 0.640915 -0.299044 0.874631 0.381567 -0.230639 0.57556 0.784561 
0.369729 0.865026 0.339162 0.280968 0.671881 0.685298 0.410423 0.856364 0.313357 
0.360752 0.877815 0.315117 0.319457 0.816777 0.48044 -0.275587 0.887235 0.369953 
-0.258327 0.892695 0.369273 -0.250883 0.85991 0.444536 -0.154055 0.93579 0.317118 
-0.151817 0.781404 0.605277 0.0448302 0.963941 0.262315 0.0302394 0.763497 0.645103 
0.215437 0.938878 0.268506 0.221595 0.805671 0.549353 0.351716 0.89437 0.276403 
0.346507 0.896771 0.275199 0.346043 0.887442 0.304467 -0.0942666 -0.157861 0.982951 
-0.00432381 -0.225723 0.974182 0.00549242 -0.2452 0.969457 0.150683 -0.306293 0.939936 
-0.0967793 -0.135571 0.98603 -0.0919511 -0.124022 0.98801 -0.0142388 -0.14159 0.989823 
0.00383545 -0.196727 0.980451 0.163447 -0.265872 0.950051 0.129886 -0.210284 0.968974 
0.199062 -0.30935 0.92988 -0.020659 -0.276051 0.960921 0.0612504 -0.212968 0.975137 
-0.0898007 0.0265479 0.995606 -0.073963 0.0648944 0.995147 -0.0810319 0.0603842 0.994881 
-0.0666036 0.0316746 0.997277 -0.0372767 -0.0632789 0.997299 -0.00216175 -0.087546 0.996158 
0.229852 -0.252993 0.939767 0.150542 -0.192353 0.96971 0.245445 -0.259878 0.933927 
-0.0549433 -0.242112 0.968691 -0.070073 -0.232116 0.970161 -0.0277974 -0.241031 0.970119 
0.0523657 -0.205327 0.977291 0.069603 -0.208485 0.975546 0.020751 -0.187857 0.981977 
0.034669 -0.209948 0.977098 0.157789 -0.0583959 0.985745 -0.124848 0.110956 0.985952 
-0.135048 0.0844006 0.987238 -0.138898 0.116753 0.9834 -0.108926 0.0394569 0.993266 
-0.0175309 -0.0405689 0.999023 0.0159789 -0.100607 0.994798 0.282621 -0.222733 0.933014 
0.195184 -0.214073 0.957119 0.266642 -0.230829 0.935746 -0.242585 -0.0840772 0.96648 
-0.243915 -0.0822083 0.966306 -0.110074 -0.157696 0.981334 0.0194084 -0.131188 0.991168 
0.0395849 -0.159569 0.986393 -0.04187 -0.119462 0.991955 0.055316 -0.19956 0.978323 
0.189828 -0.117378 0.974776 0.205141 -0.0732025 0.975991 0.0410881 -0.288085 0.956723 
-0.157601 -0.0790135 0.984337 -0.0674243 -0.249845 0.965936 -0.187114 -0.0385285 0.981582 
-0.138685 -0.0656056 0.988161 -0.00361277 -0.111533 0.993754 0.130018 -0.106188 0.985809 
0.316578 -0.2756 0.907647 0.219721 -0.237894 0.946113 0.458504 -0.275595 0.84488 
-0.405469 -0.0666355 0.911677 -0.206476 -0.104732 0.97283 -0.0936336 -0.0728058 0.992941 
-0.0212176 -0.101779 0.994581 0.0737006 -0.109694 0.991229 0.00104715 -0.0971609 0.995268 
0.0422057 -0.1355 0.989878 0.0108046 -0.317629 0.948153 -0.140005 -0.224484 0.964368 
0.0607202 -0.482408 0.873839 -0.0181899 -0.253707 0.96711 -0.0864974 -0.143491 0.985864 
-0.0277426 -0.0922241 0.995352 0.0531619 -0.12236 0.991061 0.185343 -0.182611 0.965558 
0.519553 -0.206965 0.828993 0.44261 -0.210584 0.871637 -0.436131 0.0801744 0.896305 
-0.282783 0.0389708 0.958392 -0.10653 -0.00883668 0.99427 -0.0183928 -0.0672465 0.997567 
0.0446388 -0.116938 0.992136 -0.0631078 -0.171846 0.9831 -0.157804 -0.136968 0.977925 
0.0733142 -0.212529 0.974401 -0.0853964 -0.113703 0.989838 -0.0856092 -0.144626 0.985776 
0.114606 -0.202697 0.972512 0.0255996 -0.120498 0.992383 0.0153269 -0.0491991 0.998671 
0.0385816 -0.00731932 0.999229 0.183426 0.0342925 0.982435 0.597271 0.0881668 0.797179 
0.495945 0.34095 0.798619 0.436032 0.0779159 0.896552 -0.335829 0.233722 0.912465 
-0.326985 0.244698 0.9128 -0.299339 0.220894 0.928225 -0.186083 0.0545639 0.981018 
-0.125474 0.018059 0.991933 -0.0337694 -0.0557037 0.997876 -0.0141459 -0.127469 0.991742 
-0.0125439 -0.0367531 0.999246 0.00438216 -0.0112086 0.999928 -0.0876199 -0.126405 0.988101 
-0.0288145 0.0568517 0.997967 0.0674537 0.0395763 0.996937 0.0610904 0.0490134 0.996928 
0.0845376 0.092196 0.992146 0.131344 0.125062 0.983417 0.447935 0.368186 0.814735 
0.346504 0.32347 0.880512 0.271681 0.283633 0.919642 -0.406847 0.335116 0.849808 
-0.360917 0.430383 0.827351 -0.339554 0.296471 0.892641 -0.122797 0.202196 0.971616 
-0.100181 0.135598 0.985686 -0.0608304 0.0481221 0.996987 -0.025466 0.0115872 0.999609 
-0.0248941 -0.021616 0.999456 -0.0015951 -0.0145204 0.999893 0.0767125 0.0788886 0.993927 
0.101499 0.144579 0.984274 0.0854578 0.216194 0.972603 0.0936369 0.246557 0.964594 
0.34299 0.344102 0.874043 0.248559 0.447874 0.858852 0.208439 0.316997 0.925238 
-0.273919 0.47416 0.836744 -0.255888 0.480499 0.838834 -0.24588 0.442934 0.862179 
-0.222434 0.515888 0.827274 -0.188256 0.388329 0.902087 -0.225161 0.55789 0.798787 
-0.138891 0.286017 0.948105 -0.0852269 0.201969 0.975677 -0.0237512 0.149668 0.988451 
0.0151403 0.152893 0.988127 0.132712 0.188428 0.973079 0.198456 0.251861 0.947197 
0.181863 0.435558 0.881598 0.153401 0.351065 0.9237 0.231809 0.417343 0.878686 
0.223672 0.424518 0.877357 0.215412 0.383413 0.898105 -0.223259 0.563547 0.795343 
-0.195102 0.579893 0.790986 -0.174848 0.498586 0.849023 -0.123575 0.573931 0.809526 
-0.0803225 0.401861 0.912171 0.0390605 0.580183 0.813549 0.0417059 0.377935 0.924892 
0.2019 0.533587 0.821293 0.187381 0.433413 0.8815 0.247577 0.487154 0.837488 
0.248269 0.487851 0.836877 0.247224 0.484428 0.839172 
