# vtk DataFile Version 4.2
vtk output
ASCII
DATASET POLYDATA
POINTS 566 float
-39.9359 -28.6177 -11.3211 -32.7185 -28.6177 -11.3047 -25.501 -28.6177 -11.7357 
-18.2835 -28.6177 -11.2969 -54.3709 -21.4002 -11.388 -47.1534 -21.4002 -12.8834 
-39.9359 -21.4002 -14.4288 -32.7185 -21.4002 -14.7848 -25.501 -21.4002 -14.653 
-18.2835 -21.4002 -14.1985 -11.0661 -21.4002 -13.5519 -3.84862 -21.4002 -13.5735 
3.36885 -21.4002 -13.539 10.5863 -21.4002 -12.311 17.8038 -21.4002 -12.106 
25.0212 -21.4002 -12.395 32.2387 -21.4002 -13.0588 39.4562 -21.4002 -12.8814 
46.6736 -21.4002 -11.8901 -54.3709 -14.1827 -12.6011 -47.1534 -14.1827 -16.5503 
-39.9359 -14.1827 -15.9685 -32.7185 -14.1827 -15.9312 -25.501 -14.1827 -15.8965 
-18.2835 -14.1827 -14.822 -11.0661 -14.1827 -13.8098 -3.84862 -14.1827 -13.6856 
3.36885 -14.1827 -14.174 10.5863 -14.1827 -12.7934 17.8038 -14.1827 -13.5453 
25.0212 -14.1827 -14.9076 32.2387 -14.1827 -15.2029 39.4562 -14.1827 -15.7402 
46.6736 -14.1827 -14.9387 53.8911 -14.1827 -12.7925 -61.5883 -6.96528 -11.9406 
-54.3709 -6.96528 -14.7267 -47.1534 -6.96528 -15.7767 -39.9359 -6.96528 -17.1956 
-32.7185 -6.96528 -16.6369 -25.501 -6.96528 -15.5823 -18.2835 -6.96528 -14.5124 
-11.0661 -6.96528 -14.2883 -3.84862 -6.96528 -12.9816 3.36885 -6.96528 -15.31 
10.5863 -6.96528 -12.8265 17.8038 -6.96528 -13.3231 25.0212 -6.96528 -14.6959 
32.2387 -6.96528 -15.8305 39.4562 -6.96528 -16.8266 46.6736 -6.96528 -16.0701 
53.8911 -6.96528 -15.5651 61.1085 -6.96528 -13.4864 -61.5883 0.252184 -13.2408 
-54.3709 0.252184 -16.6493 -47.1534 0.252184 -16.649 -39.9359 0.252184 -17.9931 
-32.7185 0.252184 -16.6235 -25.501 0.252184 -15.2805 -18.2835 0.252184 -13.9422 
-11.0661 0.252184 -17.4885 -3.84862 0.252184 -14.6705 3.36885 0.252184 -14.9635 
10.5863 0.252184 -14.6021 17.8038 0.252184 -12.8007 25.0212 0.252184 -14.6187 
32.2387 0.252184 -15.9969 39.4562 0.252184 -16.9896 46.6736 0.252184 -16.3093 
53.8911 0.252184 -15.7525 61.1085 0.252184 -14.1201 -61.5883 7.46965 -12.95 
-54.3709 7.46965 -16.0419 -47.1534 7.46965 -16.5292 -39.9359 7.46965 -17.829 
-32.7185 7.46965 -16.8723 -25.501 7.46965 -15.5739 -18.2835 7.46965 -14.2709 
-11.0661 7.46965 -15.5267 -3.84862 7.46965 -16.643 3.36885 7.46965 -15.7199 
10.5863 7.46965 -14.5114 17.8038 7.46965 -13.8027 25.0212 7.46965 -15.0161 
32.2387 7.46965 -16.1841 39.4562 7.46965 -17.3569 46.6736 7.46965 -16.6336 
53.8911 7.46965 -16.6869 61.1085 7.46965 -14.9115 -61.5883 14.6871 -11.75 
-54.3709 14.6871 -14.9043 -47.1534 14.6871 -16.0393 -39.9359 14.6871 -17.3151 
-32.7185 14.6871 -16.903 -25.501 14.6871 -16.6008 -18.2835 14.6871 -15.9475 
-11.0661 14.6871 -15.6856 -3.84862 14.6871 -15.6266 3.36885 14.6871 -15.4928 
10.5863 14.6871 -14.9612 17.8038 14.6871 -14.2716 25.0212 14.6871 -15.3605 
32.2387 14.6871 -15.5805 39.4562 14.6871 -16.3093 46.6736 14.6871 -15.5934 
53.8911 14.6871 -14.2457 61.1085 14.6871 -12.4065 -54.3709 21.9046 -12.1877 
-47.1534 21.9046 -15.8681 -39.9359 21.9046 -15.7839 -32.7185 21.9046 -17.3505 
-25.501 21.9046 -16.2103 -18.2835 21.9046 -16.0833 -11.0661 21.9046 -15.9109 
-3.84862 21.9046 -15.0036 3.36885 21.9046 -15.0645 10.5863 21.9046 -13.8975 
17.8038 21.9046 -11.8279 25.0212 21.9046 -11.7686 32.2387 21.9046 -13.0248 
39.4562 21.9046 -12.7755 46.6736 21.9046 -12.6296 53.8911 21.9046 -11.4255 
-39.9359 29.122 -13.3069 -32.7185 29.122 -14.2096 -25.501 29.122 -14.8361 
-18.2835 29.122 -14.6278 -11.0661 29.122 -14.0592 -3.84862 29.122 -12.8015 
3.36885 29.122 -11.9514 -39.9359 -28.9103 -11.0487 -32.7185 -28.9418 -11.0487 
-25.501 -29.5558 -11.0487 -18.2835 -28.9217 -11.0487 -54.3709 -21.8918 -11.0487 
-40.9555 -28.6177 -11.0487 -47.1534 -25.0016 -11.0487 -47.1534 -28.6177 -8.34416 
-11.4545 -28.6177 -11.0487 -11.0661 -28.5831 -11.0487 -11.0661 -28.6177 -11.0287 
-3.84862 -27.5228 -11.0487 -3.84862 -28.6177 -10.2576 3.36885 -27.1704 -11.0487 
3.36885 -28.6177 -10.0732 10.5863 -24.6342 -11.0487 10.5863 -28.6177 -8.81981 
17.8038 -23.3766 -11.0487 17.8038 -28.6177 -6.38006 25.0212 -23.4334 -11.0487 
25.0212 -28.6177 -5.4845 32.2387 -24.6019 -11.0487 32.2387 -28.6177 -4.78946 
39.4562 -24.0551 -11.0487 39.4562 -28.6177 -5.11269 46.6736 -22.4647 -11.0487 
-54.8953 -21.4002 -11.0487 49.9935 -21.4002 -11.0487 53.8911 -18.9124 -11.0487 
53.8911 -21.4002 -9.76876 61.1085 -21.4002 -4.34901 -58.1778 -14.1827 -11.0487 
-61.5883 -10.2133 -11.0487 -61.5883 -14.1827 -9.32447 59.0226 -14.1827 -11.0487 
61.1085 -12.8185 -11.0487 61.1085 -14.1827 -10.0953 -62.7594 -6.96528 -11.0487 
64.9142 -6.96528 -11.0487 68.326 -6.96528 -7.87193 -64.7428 0.252184 -11.0487 
-68.8058 0.252184 -5.63667 65.974 0.252184 -11.0487 68.326 0.252184 -8.80482 
-64.133 7.46965 -11.0487 68.2044 7.46965 -11.0487 68.326 7.46965 -10.9222 
-62.4786 14.6871 -11.0487 -61.5883 16.3441 -11.0487 63.2338 14.6871 -11.0487 
61.1085 17.5932 -11.0487 68.326 14.6871 -5.82682 -56.4853 21.9046 -11.0487 
-61.5883 21.9046 -6.3334 -54.3709 23.7432 -11.0487 -47.1534 28.4592 -11.0487 
10.5863 26.8081 -11.0487 17.8038 22.8 -11.0487 25.0212 22.5969 -11.0487 
32.2387 24.1113 -11.0487 39.4562 23.7954 -11.0487 46.6736 24.1642 -11.0487 
54.8738 21.9046 -11.0487 53.8911 22.3513 -11.0487 61.1085 21.9046 -6.57582 
-54.3709 29.122 -4.15932 -45.6989 29.122 -11.0487 -47.1534 29.122 -10.3998 
-39.9359 31.327 -11.0487 -32.7185 33.9057 -11.0487 -25.501 34.0696 -11.0487 
-18.2835 34.5002 -11.0487 -11.0661 33.1141 -11.0487 -3.84862 31.2785 -11.0487 
6.20564 29.122 -11.0487 3.36885 30.122 -11.0487 10.5863 29.122 -6.5212 
-32.7185 36.3395 -5.0173 -25.501 36.3395 -7.31519 -18.2835 36.3395 -7.75312 
-11.0661 36.3395 -4.97141 -47.1534 -31.4712 -3.8312 -39.9359 -33.7583 -3.8312 
-32.7185 -34.448 -3.8312 -25.501 -34.8913 -3.8312 -25.501 -35.8351 2.95575 
-18.2835 -34.1801 -3.8312 -11.0661 -33.0025 -3.8312 -3.84862 -32.2298 -3.8312 
3.36885 -32.6313 -3.8312 10.5863 -32.1761 -3.8312 17.8038 -30.1851 -3.8312 
25.0212 -29.5391 -3.8312 32.2387 -28.9653 -3.8312 39.4562 -29.249 -3.8312 
-52.7707 -28.6177 -3.8312 -54.3709 -27.6414 -3.8312 -54.3709 -28.6177 2.1647 
42.5497 -28.6177 -3.8312 46.6736 -27.8254 -3.8312 53.8911 -25.7558 -3.8312 
61.1085 -21.7596 -3.8312 -61.2383 -21.4002 -3.8312 -61.5883 -20.9794 -3.8312 
-61.5883 -21.4002 0.189645 61.5593 -21.4002 -3.8312 -65.8632 -14.1827 -3.8312 
67.156 -14.1827 -3.8312 68.326 -12.6942 -3.8312 -67.7907 -6.96528 -3.8312 
-68.8058 -3.67965 -3.8312 71.8527 -6.96528 -3.8312 -69.8169 0.252184 -3.8312 
-68.8058 6.78308 -3.8312 72.4732 0.252184 -3.8312 -68.683 7.46965 -3.8312 
72.9947 7.46965 -3.8312 -67.2979 14.6871 -3.8312 69.9723 14.6871 -3.8312 
68.326 17.5708 -3.8312 -62.9889 21.9046 -3.8312 -61.5883 23.7598 -3.8312 
-61.5883 21.9046 1.56562 17.8038 25.4984 -3.8312 25.0212 25.4403 -3.8312 
32.2387 28.0462 -3.8312 39.4562 27.4798 -3.8312 46.6736 27.4574 -3.8312 
53.8911 26.8425 -3.8312 63.9822 21.9046 -3.8312 61.1085 23.4296 -3.8312 
-54.6327 29.122 -3.8312 -54.3709 29.272 -3.8312 -54.3709 29.122 -3.22153 
-47.1534 32.9496 -3.8312 -39.9359 35.0069 -3.8312 -3.84862 34.8981 -3.8312 
3.36885 33.188 -3.8312 11.8149 29.122 -3.8312 10.5863 29.8954 -3.8312 
10.5863 29.122 -0.379687 -34.1324 36.3395 -3.8312 -32.7185 36.6541 -3.8312 
-32.7185 36.3395 -2.43702 -25.501 37.69 -3.8312 -25.501 36.3395 2.35383 
-18.2835 37.7754 -3.8312 -18.2835 36.3395 2.70501 -9.38023 36.3395 -3.8312 
-11.0661 36.7515 -3.8312 -11.0661 36.3395 -2.05061 -25.501 -35.8884 3.38626 
-54.3709 -28.7888 3.38626 -47.1534 -32.9485 3.38626 -39.9359 -34.7654 3.38626 
-26.8775 -35.8351 3.38626 -32.7185 -35.6092 3.38626 -25.1172 -35.8351 3.38626 
-25.501 -35.8351 3.55357 -18.2835 -34.886 3.38626 -11.0661 -33.4003 3.38626 
-3.84862 -32.5849 3.38626 3.36885 -33.3963 3.38626 10.5863 -33.4519 3.38626 
17.8038 -31.3769 3.38626 25.0212 -30.2077 3.38626 32.2387 -29.5462 3.38626 
39.4562 -29.6802 3.38626 -54.6181 -28.6177 3.38626 -61.5883 -21.7118 3.38626 
-54.3709 -28.6177 3.73611 25.0212 -28.6177 8.3171 32.2387 -28.6177 7.55301 
44.4494 -28.6177 3.38626 39.4562 -28.6177 6.39453 46.6736 -28.1444 3.38626 
53.8911 -26.1695 3.38626 61.1085 -22.1695 3.38626 -61.796 -21.4002 3.38626 
-61.5883 -21.4002 3.71255 62.114 -21.4002 3.38626 61.1085 -21.4002 4.79172 
-65.6868 -14.1827 3.38626 -61.5883 -14.1827 9.66359 67.8986 -14.1827 3.38626 
68.326 -13.5109 3.38626 -67.3585 -6.96528 3.38626 -68.8058 0.00280831 3.38626 
-61.5883 -6.96528 10.4263 72.2783 -6.96528 3.38626 68.326 -6.96528 8.77207 
-68.8575 0.252184 3.38626 -68.8058 0.513583 3.38626 -68.8058 0.252184 3.45827 
72.9852 0.252184 3.38626 68.326 0.252184 9.64901 -67.4289 7.46965 3.38626 
-61.5883 7.46965 9.796 73.5588 7.46965 3.38626 -65.6054 14.6871 3.38626 
-61.5883 21.126 3.38626 -61.5883 14.6871 7.62671 70.1677 14.6871 3.38626 
68.326 17.7845 3.38626 68.326 14.6871 5.89274 -60.9679 21.9046 3.38626 
-54.3709 27.3365 3.38626 -54.3709 21.9046 9.32112 10.5863 27.8194 3.38626 
17.8038 23.4842 3.38626 17.8038 21.9046 6.25408 25.0212 24.0419 3.38626 
25.0212 21.9046 9.16544 32.2387 26.8554 3.38626 39.4562 26.9861 3.38626 
46.6736 27.1994 3.38626 53.8911 26.1925 3.38626 53.8911 21.9046 10.4965 
64.1814 21.9046 3.38626 61.1085 23.5533 3.38626 61.1085 21.9046 6.03054 
-51.6186 29.122 3.38626 -47.1534 31.5039 3.38626 -47.1534 29.122 6.58468 
-39.9359 33.4267 3.38626 -39.9359 29.122 9.26031 -32.7185 34.7667 3.38626 
-32.7185 29.122 9.54263 -25.501 36.0546 3.38626 -25.501 29.122 10.4964 
-18.2835 36.1553 3.38626 -11.0661 34.8126 3.38626 -11.0661 29.122 9.77213 
-3.84862 32.9852 3.38626 -3.84862 29.122 8.28121 8.70176 29.122 3.38626 
3.36885 31.5538 3.38626 3.36885 29.122 7.23813 -47.1534 -29.9533 10.6037 
-39.9359 -31.5173 10.6037 -32.7185 -33.4157 10.6037 -25.501 -32.8814 10.6037 
-18.2835 -31.9483 10.6037 -11.0661 -30.376 10.6037 -3.84862 -29.6514 10.6037 
3.36885 -30.4701 10.6037 10.5863 -30.7376 10.6037 17.8038 -29.2587 10.6037 
-49.0678 -28.6177 10.6037 -54.3709 -24.0795 10.6037 -47.1534 -28.6177 11.7582 
-39.9359 -28.6177 13.3191 -32.7185 -28.6177 14.7236 -25.501 -28.6177 14.772 
[...]
POINT_DATA 566
SCALARS ImageScalars float
LOOKUP_TABLE default
0 0 0 0 0 0 0 0 0 
0 0 0 0 0 0 0 0 0 
0 0 0 0 0 0 0 0 0 
0 0 0 0 0 0 0 0 0 
0 0 0 0 0 0 0 0 0 
0 0 0 0 0 0 0 0 0 
0 0 0 0 0 0 0 0 0 
0 0 0 0 0 0 0 0 0 
0 0 0 0 0 0 0 0 0 
0 0 0 0 0 0 0 0 0 
0 0 0 0 0 0 0 0 0 
0 0 0 0 0 0 0 0 0 
0 0 0 0 0 0 0 0 0 
0 0 0 0 0 0 0 0 0 
0 0 0 0 0 0 0 0 0 
0 0 0 0 0 0 0 0 0 
0 0 0 0 0 0 0 0 0 
0 0 0 0 0 0 0 0 0 
0 0 0 0 0 0 0 0 0 
0 0 0 0 0 0 0 0 0 
0 0 0 0 0 0 0 0 0 
0 0 0 0 0 0 0 0 0 
0 0 0 0 0 0 0 0 0 
0 0 0 0 0 0 0 0 0 
0 0 0 0 0 0 0 0 0 
0 0 0 0 0 0 0 0 0 
0 0 0 0 0 0 0 0 0 
0 0 0 0 0 0 0 0 0 
0 0 0 0 0 0 0 0 0 
0 0 0 0 0 0 0 0 0 
0 0 0 0 0 0 0 0 0 
0 0 0 0 0 0 0 0 0 
0 0 0 0 0 0 0 0 0 
0 0 0 0 0 0 0 0 0 
0 0 0 0 0 0 0 0 0 
0 0 0 0 0 0 0 0 0 
0 0 0 0 0 0 0 0 0 
0 0 0 0 0 0 0 0 0 
0 0 0 0 0 0 0 0 0 
0 0 0 0 0 0 0 0 0 
0 0 0 0 0 0 0 0 0 
0 0 0 0 0 0 0 0 0 
0 0 0 0 0 0 0 0 0 
0 0 0 0 0 0 0 0 0 
0 0 0 0 0 0 0 0 0 
0 0 0 0 0 0 0 0 0 
0 0 0 0 0 0 0 0 0 
0 0 0 0 0 0 0 0 0 
0 0 0 0 0 0 0 0 0 
0 0 0 0 0 0 0 0 0 
0 0 0 0 0 0 0 0 0 
0 0 0 0 0 0 0 0 0 
0 0 0 0 0 0 0 0 0 
0 0 0 0 0 0 0 0 0 
0 0 0 0 0 0 0 0 0 
0 0 0 0 0 0 0 0 0 
0 0 0 0 0 0 0 0 0 
0 0 0 0 0 0 0 0 0 
0 0 0 0 0 0 0 0 0 
0 0 0 0 0 0 0 0 0 
0 0 0 0 0 0 0 0 0 
0 0 0 0 0 0 0 0 0 
0 0 0 0 0 0 0 0 
NORMALS Normals float
0.118145 0.63126 0.76652 0.0280419 0.569936 0.82121 -0.00241301 0.554229 0.83236 
-0.0469915 0.567462 0.822057 0.409236 0.418572 0.810755 0.235434 0.455704 0.858432 
0.107418 0.291207 0.95061 0.0166093 0.273876 0.961622 -0.0375725 0.261572 0.964452 
-0.0786293 0.215446 0.973345 -0.0411832 0.173788 0.983922 -0.000821912 0.190453 0.981696 
-0.0821929 0.233875 0.968786 -0.094845 0.20277 0.974622 0.00463432 0.348392 0.937337 
0.0609631 0.456042 0.887868 0.0314087 0.419362 0.907276 -0.0690294 0.495796 0.865691 
-0.169291 0.55161 0.816742 0.381714 0.224711 0.896549 0.184444 0.147069 0.971777 
-0.036308 0.197931 0.979543 -0.00480864 0.121907 0.99253 -0.0772294 0.0694411 0.994592 
-0.142492 0.0196594 0.989601 -0.078229 0.0488574 0.995737 0.0245938 -0.037609 0.99899 
-0.061594 0.112426 0.991749 -0.0417254 0.0331817 0.998578 0.143098 0.0826052 0.986255 
0.115102 0.142468 0.983084 0.0540401 0.172188 0.983581 -0.0262707 0.257171 0.966009 
-0.173335 0.235626 0.956261 -0.287073 0.330735 0.899001 0.530442 0.207431 0.821951 
0.295414 0.240311 0.924652 0.159842 0.0157437 0.987017 0.0580379 0.137113 0.988854 
-0.108528 0.0476196 0.992952 -0.145379 -0.041868 0.98849 -0.0882726 -0.0590725 0.994343 
-0.105531 0.150713 0.982929 0.0607746 0.028799 0.997736 0.0268659 0.070502 0.99715 
-0.143362 0.077149 0.986659 0.124475 -0.053583 0.990775 0.166373 -0.0197033 0.985866 
0.14364 0.0538451 0.988164 0.018155 0.0840016 0.9963 -0.0817814 0.104253 0.991183 
-0.2091 0.197181 0.957808 -0.392012 0.200336 0.897882 0.480463 0.0736065 0.873921 
0.298036 0.0946424 0.949851 0.0920395 0.0514627 0.994425 -0.00324616 0.043424 0.999051 
-0.182117 0.0160338 0.983146 -0.180042 -0.000607671 0.983659 0.0281571 -0.018356 0.999435 
0.151142 0.145766 0.977706 -0.112231 0.32104 0.940392 0.000418814 0.0430606 0.999072 
-0.195214 0.117303 0.97372 0.0617011 0.0373532 0.997395 0.217245 0.0217385 0.975875 
0.160912 0.0240921 0.986675 0.0217774 0.0358674 0.999119 -0.0829455 0.0379719 0.99583 
-0.181774 0.0707922 0.980789 -0.348665 0.112391 0.930484 0.510372 -0.0997357 0.85415 
0.311456 -0.110987 0.943757 0.117304 -0.0414324 0.992231 0.0227273 -0.0463017 0.998669 
-0.153017 0.0191267 0.988038 -0.173641 0.0828649 0.981317 -0.0239709 0.14001 0.98986 
0.182693 -0.0652734 0.981001 -0.00510509 0.0196787 0.999793 -0.136346 0.0180765 0.990496 
-0.146958 0.0305218 0.988672 0.0414154 0.102264 0.993895 0.164324 0.0493336 0.985172 
0.157877 -0.0278614 0.987066 0.0329063 -0.0434063 0.998515 -0.0466867 -0.062335 0.996963 
-0.175491 -0.0972151 0.979669 -0.243765 -0.120829 0.962278 0.543291 -0.279013 0.791825 
0.310266 -0.237972 0.920383 0.150535 -0.0424276 0.987694 0.0584072 -0.137806 0.988736 
-0.0465935 0.0296971 0.998472 -0.0695606 0.0466423 0.996487 -0.0582712 0.120746 0.990972 
-0.0226279 0.0240558 0.999454 -0.0131418 -0.108376 0.994023 -0.045259 -0.0431938 0.998041 
-0.0848748 -0.0374314 0.995688 0.0229769 -0.112943 0.993336 0.0923076 -0.188037 0.977815 
0.0617731 -0.19901 0.978049 -0.00798013 -0.275772 0.96119 -0.119266 -0.218678 0.968481 
-0.252441 -0.333122 0.908462 -0.39571 -0.413573 0.819982 0.407966 -0.390368 0.825334 
0.242635 -0.343871 0.907128 0.0937092 -0.217681 0.971511 0.0245936 -0.179224 0.983501 
-0.0798358 -0.104054 0.991362 -0.0201538 -0.0894135 0.995791 -0.0758013 -0.103403 0.991747 
-0.057151 -0.177311 0.982494 -0.0664465 -0.211581 0.975099 -0.242951 -0.364759 0.898847 
-0.152201 -0.626155 0.764699 0.0795947 -0.710646 0.699033 0.0623448 -0.568205 0.820522 
-0.0249404 -0.623126 0.781723 -0.0963506 -0.581005 0.808177 -0.243233 -0.5731 0.782556 
0.231792 -0.569019 0.78898 0.0780074 -0.472915 0.877648 0.0324714 -0.397854 0.916874 
-0.0487731 -0.378331 0.924384 -0.123981 -0.443854 0.887481 -0.142136 -0.534861 0.832899 
-0.200859 -0.634591 0.74629 0.116769 0.647275 0.75326 0.0324052 0.583813 0.811241 
-0.00414381 0.600833 0.799363 -0.0488868 0.585459 0.809227 0.418576 0.446358 0.790922 
0.149659 0.629991 0.762046 0.30076 0.504307 0.809455 0.384583 0.666724 0.638416 
-0.0485468 0.584485 0.809951 -0.0485892 0.583313 0.810793 -0.0488452 0.586321 0.808605 
-0.0384668 0.574942 0.817289 -0.0434368 0.680956 0.731035 -0.078856 0.547154 0.833309 
-0.0688776 0.665187 0.743494 -0.124155 0.383984 0.914954 -0.166929 0.694105 0.700252 
-0.0304364 0.450998 0.892006 -0.152486 0.842762 0.516236 0.048816 0.555603 0.830013 
-0.0552321 0.909859 0.411225 0.026317 0.630521 0.775726 -0.0156747 0.966264 0.257075 
-0.096558 0.615867 0.781911 -0.0916184 0.932924 0.348222 -0.174654 0.602957 0.778421 
0.429186 0.431399 0.793533 -0.243356 0.550049 0.798889 -0.336859 0.452893 0.825478 
-0.364372 0.581475 0.727406 -0.604829 0.709413 0.361823 0.503096 0.320267 0.802697 
0.565572 0.319213 0.760415 0.647705 0.432246 0.627409 -0.446798 0.450357 0.773014 
-0.481753 0.461286 0.74507 -0.521087 0.510305 0.684147 0.578353 0.239645 0.779794 
-0.524739 0.265719 0.808729 -0.71275 0.298211 0.634868 0.622935 0.0828479 0.777875 
0.938158 0.0624414 0.340531 -0.567675 0.163456 0.806863 -0.718541 0.15846 0.677193 
0.635118 -0.123701 0.762445 -0.741921 -0.136165 0.656515 -0.750416 -0.136748 0.646665 
0.578823 -0.303432 0.756897 0.580074 -0.339179 0.740589 -0.470032 -0.48505 0.737425 
-0.467764 -0.556612 0.686571 -0.716394 -0.521068 0.46397 0.489982 -0.434556 0.755698 
0.777017 -0.56128 0.284971 0.424121 -0.505516 0.751382 0.301533 -0.639802 0.706917 
-0.386217 -0.664833 0.639401 -0.182798 -0.6862 0.70407 0.0789152 -0.751412 0.655097 
0.0785743 -0.698333 0.711447 -0.00333192 -0.726432 0.68723 -0.088071 -0.714854 0.693705 
-0.291173 -0.598452 0.746373 -0.258101 -0.597075 0.75953 -0.520062 -0.760524 0.388765 
0.493432 -0.863259 0.106342 0.299227 -0.654543 0.694289 0.31499 -0.690336 0.651319 
0.285271 -0.696153 0.658781 0.135555 -0.752644 0.644323 0.0311563 -0.737381 0.674758 
-0.0512653 -0.72401 0.687881 -0.170547 -0.701632 0.691828 -0.165873 -0.669479 0.724075 
-0.297749 -0.6958 0.653611 -0.220211 -0.699505 0.679853 -0.514368 -0.826305 0.229445 
0.176587 -0.979238 0.0995526 0.0582484 -0.949331 0.308832 -0.06326 -0.929246 0.364005 
-0.194767 -0.97093 0.139143 0.371298 0.858452 0.353832 0.185049 0.918247 0.350112 
0.0735837 0.94512 0.31833 -0.0170618 0.944317 0.328595 -0.04813 0.99607 -0.0743572 
-0.12681 0.943269 0.30686 -0.132456 0.956894 0.258475 -0.0260787 0.967413 0.251856 
-0.00151517 0.950152 0.311785 -0.165641 0.911037 0.37759 -0.175706 0.915219 0.362632 
-0.0820842 0.945977 0.313671 -0.0197178 0.977361 0.210656 -0.0820547 0.958879 0.271695 
0.485545 0.790474 0.37336 0.521703 0.771252 0.364686 0.588993 0.805603 -0.0639611 
-0.137454 0.956265 0.258191 -0.208319 0.944209 0.255094 -0.406276 0.861495 0.304575 
-0.599923 0.730458 0.326378 0.732892 0.590607 0.337718 0.742579 0.577923 0.338499 
0.805723 0.592229 0.00862496 -0.615139 0.714059 0.334251 0.87676 0.382686 0.291279 
-0.756698 0.549368 0.354406 -0.779159 0.515783 0.356202 0.929516 0.253325 0.268004 
0.955076 0.167673 0.244367 -0.885707 0.32485 0.331654 0.978373 0.0539778 0.199681 
0.970228 -0.14692 0.192543 -0.944777 0.0799413 0.317814 0.967616 -0.16651 0.18972 
-0.953286 -0.141331 0.266968 0.922375 -0.351101 0.161095 -0.795601 -0.499562 0.342721 
-0.718896 -0.584629 0.376029 0.810993 -0.571988 0.122967 0.761501 -0.640531 0.0991803 
0.744726 -0.586884 -0.317727 -0.230483 -0.972979 0.013744 0.175766 -0.9813 0.0784667 
0.135922 -0.981257 0.136602 -0.0417205 -0.98687 0.156034 -0.0403174 -0.993231 0.108934 
-0.27383 -0.936847 0.217566 -0.574399 -0.753565 0.319696 -0.486713 -0.831179 0.268797 
0.499912 -0.86157 0.0882326 0.494232 -0.86458 0.0907551 0.500324 -0.864466 0.0487299 
0.358276 -0.926199 0.117447 0.255868 -0.964188 0.0698071 -0.247239 -0.966479 0.0692151 
-0.318088 -0.946087 0.0611488 -0.510348 -0.859721 0.0206103 -0.530993 -0.846759 0.0323228 
-0.558567 -0.814562 -0.1565 0.193933 -0.980707 0.024584 0.179331 -0.983596 0.0194931 
0.180977 -0.981754 -0.0583671 0.0772342 -0.994351 0.0728075 0.0840954 -0.929928 -0.357997 
-0.0655342 -0.995973 0.0611741 -0.0744562 -0.929206 -0.361985 -0.204402 -0.976884 0.0625945 
-0.191325 -0.979524 0.0626699 -0.197642 -0.979166 -0.0465965 -0.0499274 0.994036 -0.0969496 
0.590217 0.793436 -0.148672 0.361315 0.929926 -0.0684775 0.18531 0.977484 -0.100922 
-0.0261195 0.99597 -0.0857953 0.0755069 0.996342 -0.040023 -0.0563692 0.993624 -0.0976426 
-0.0508968 0.99313 -0.105372 -0.169094 0.978897 -0.114754 -0.157632 0.977463 -0.140424 
3.9129e-05 0.989806 -0.142424 0.0599299 0.991308 -0.117119 -0.137266 0.987953 -0.0714589 
-0.225046 0.973114 -0.0490208 -0.123448 0.987774 -0.0952007 -0.0366407 0.996642 -0.0732203 
-0.0969676 0.984894 -0.14346 0.59565 0.789127 -0.149928 0.79207 0.557596 -0.248418 
0.59235 0.789011 -0.163041 -0.104862 0.902101 -0.41859 -0.0470199 0.942984 -0.329501 
-0.183015 0.974419 -0.130435 -0.117697 0.940864 -0.317683 -0.222229 0.965411 -0.136366 
-0.396352 0.895058 -0.204391 -0.56993 0.794323 -0.210309 0.799004 0.548516 -0.246421 
0.791968 0.549398 -0.266362 -0.60763 0.764913 -0.21376 -0.584725 0.765233 -0.269287 
0.889055 0.349486 -0.295705 0.743625 0.307752 -0.593558 -0.819493 0.527903 -0.223047 
-0.828412 0.510981 -0.229419 0.920267 0.179298 -0.347795 0.896095 0.0125142 -0.443685 
0.656173 0.0800278 -0.750355 -0.91537 0.327 -0.234879 -0.753928 0.281517 -0.593583 
0.895084 0.0049833 -0.445869 0.894896 -0.00267188 -0.446266 0.892685 0.00454298 -0.450658 
-0.971846 0.0888213 -0.218236 -0.694031 0.127212 -0.708617 0.888601 -0.169079 -0.426381 
0.628029 -0.198238 -0.752516 -0.968864 -0.166718 -0.183053 0.840434 -0.39521 -0.370783 
0.697997 -0.551456 -0.456834 0.603401 -0.403739 -0.687679 -0.817644 -0.513205 -0.260921 
-0.748747 -0.587438 -0.307073 -0.724362 -0.524915 -0.446949 0.684042 -0.568673 -0.456835 
0.505374 -0.740525 -0.442967 0.463869 -0.514601 -0.721118 -0.545066 -0.758471 -0.357246 
-0.142426 -0.916172 -0.374624 -0.0968962 -0.85068 -0.516677 0.213908 -0.93524 -0.28208 
0.176764 -0.815092 -0.551706 0.191535 -0.922375 -0.335467 0.0246358 -0.96792 -0.250048 
-0.0488732 -0.984363 -0.169238 -0.257126 -0.919986 -0.295825 -0.272994 -0.753059 -0.598646 
-0.561196 -0.771441 -0.299896 -0.42529 -0.870324 -0.248323 -0.46968 -0.781675 -0.410347 
0.456567 -0.777986 -0.431608 0.356243 -0.83703 -0.415296 0.368142 -0.740656 -0.562051 
0.213191 -0.881058 -0.42224 0.151248 -0.664699 -0.731641 0.160771 -0.883702 -0.439573 
0.0669742 -0.621962 -0.780178 0.0834059 -0.895671 -0.436826 0.0744625 -0.543082 -0.836372 
-0.0743546 -0.908642 -0.410902 -0.192457 -0.878839 -0.436581 -0.138069 -0.576516 -0.805336 
-0.202371 -0.876492 -0.436816 -0.124144 -0.690026 -0.713058 -0.483665 -0.792252 -0.372027 
-0.275979 -0.88798 -0.367867 -0.232073 -0.789652 -0.567971 0.35994 0.668196 -0.651119 
0.199055 0.749001 -0.63196 0.0733824 0.839329 -0.538648 -0.0873608 0.810284 -0.579489 
-0.148935 0.786224 -0.599725 -0.141048 0.766099 -0.627055 0.00709983 0.757218 -0.653124 
0.0681375 0.75853 -0.648066 -0.0818322 0.762574 -0.641704 -0.193965 0.801431 -0.565762 
0.42346 0.647954 -0.633117 0.569746 0.498306 -0.653513 0.328879 0.606382 -0.723975 
0.194097 0.593351 -0.781192 0.084666 0.521594 -0.848983 -0.056065 0.535806 -0.842477 
-0.136918 0.561285 -0.816218 -0.134649 0.663151 -0.736275 0.00420384 0.692041 -0.721846 
0.061693 0.628552 -0.775317 -0.0589767 0.623962 -0.779226 -0.149096 0.805722 -0.57322 
-0.185849 0.760667 -0.62197 -0.0858601 0.785019 -0.613493 -0.0543535 0.823274 -0.565037 
-0.137188 0.765241 -0.628956 -0.237861 0.722496 -0.64917 -0.35915 0.609302 -0.706939 
0.576422 0.400433 -0.712314 0.516213 0.318134 -0.795182 0.318792 0.281203 -0.90515 
0.0838951 0.278409 -0.956791 0.0541504 0.238724 -0.969577 -0.0450075 0.17794 -0.983012 
-0.111679 0.187615 -0.975873 -0.104758 0.19955 -0.974272 -0.0490877 0.247143 -0.967735 
0.0173193 0.156404 -0.987541 -0.0125534 0.152066 -0.988291 -0.0211641 0.238818 -0.970834 
0.00897038 0.363591 -0.931515 -0.0412274 0.438439 -0.897815 -0.107284 0.480489 -0.870414 
-0.217166 0.558851 -0.800328 -0.390169 0.600532 -0.697946 -0.339618 0.572511 -0.746251 
-0.483672 0.482695 -0.730114 0.680886 0.251892 -0.68771 0.385581 0.129477 -0.913544 
0.249126 0.00102951 -0.96847 -0.128682 -0.000430276 -0.991686 -0.0741919 0.045585 -0.996202 
-0.0555875 0.142331 -0.988257 -0.0442528 0.00381824 -0.999013 0.0395757 -0.0718694 -0.996629 
0.064801 0.00747814 -0.99787 0.0606755 0.0704639 -0.995667 0.0644025 0.121228 -0.990533 
-0.0652602 0.191115 -0.979396 -0.176723 0.209512 -0.961704 -0.329694 0.348728 -0.87732 
-0.481523 0.450721 -0.751655 -0.455299 0.425317 -0.782182 0.636779 0.0783403 -0.767056 
0.630202 0.0522597 -0.77467 0.306829 0.0307237 -0.951269 0.250237 -0.0189951 -0.967998 
-0.0165626 -0.0965305 -0.995192 -0.0853699 -0.0648952 -0.994234 -0.0770576 -0.0328267 -0.996486 
0.0435641 0.171609 -0.984201 -0.0950111 0.057974 -0.993787 -0.199966 -0.0164333 -0.979665 
-0.00706493 0.058782 -0.998246 0.121718 -0.0884601 -0.988615 0.139054 -0.0290146 -0.98986 
0.0852875 0.0269984 -0.995991 -0.00125424 0.00398946 -0.999991 -0.027972 0.0992978 -0.994665 
-0.224181 0.176755 -0.958384 -0.650669 0.232999 -0.722731 -0.380473 0.165588 -0.909847 
0.573681 -0.0396531 -0.818118 0.579129 -0.107375 -0.808134 0.551041 -0.0394034 -0.833547 
0.344238 -0.0666835 -0.936511 0.206996 -0.0438923 -0.977357 0.0890916 -0.0928283 -0.991688 
-0.0294267 -0.0727011 -0.99692 -0.0524212 -0.0947661 -0.994118 0.0967871 -0.0498102 -0.994058 
-0.25422 -0.0728919 -0.964396 -0.00250778 -0.0367913 -0.99932 -0.0600438 0.0214717 -0.997965 
-0.0186155 -0.0622136 -0.997889 0.178103 -0.0416482 -0.98313 0.100141 -0.0306181 -0.994502 
0.0093006 0.0315826 -0.999458 -0.0292709 0.00489145 -0.99956 -0.211814 0.0116145 -0.977241 
-0.606715 0.110543 -0.787196 -0.370627 0.0402921 -0.927907 -0.683995 -0.0748825 -0.725633 
0.548555 -0.165398 -0.819592 0.33919 -0.0922007 -0.936189 0.223655 -0.086936 -0.970783 
0.0989735 -0.145245 -0.984433 -0.0157818 -0.111157 -0.993678 -0.0626517 -0.085175 -0.994394 
0.00422729 -0.108897 -0.994044 0.0311535 -0.289135 -0.956781 -0.120496 -0.129768 -0.984196 
-0.127162 -0.0106933 -0.991824 -0.0430031 -0.214188 -0.975845 0.0790701 -0.126765 -0.988776 
0.167957 -0.104913 -0.980196 0.156041 -0.135187 -0.978456 0.0360715 -0.0876604 -0.995497 
-0.047525 -0.135735 -0.989605 -0.205308 -0.156874 -0.966043 -0.292366 -0.123171 -0.948341 
-0.695487 -0.161932 -0.700054 -0.681859 -0.2022 -0.702981 -0.674021 -0.168575 -0.71922 
0.459033 -0.284072 -0.841779 0.443861 -0.422551 -0.790214 0.363396 -0.218273 -0.905704 
0.203242 -0.232216 -0.951193 0.0822751 -0.191521 -0.978034 0.0335609 -0.186896 -0.981806 
-0.0551528 -0.15188 -0.986859 -0.0899803 -0.156802 -0.983523 -0.0177268 -0.214814 -0.976494 
0.0230775 -0.234566 -0.971826 -0.103981 -0.105213 -0.988999 -0.146635 -0.178699 -0.972916 
-0.0257735 -0.540665 -0.840843 0.0428025 -0.377045 -0.925205 0.170608 -0.731233 -0.660448 
0.178906 -0.352298 -0.918629 0.107528 -0.310798 -0.944374 0.0195009 -0.36897 -0.929237 
-0.0811834 -0.323847 -0.94262 -0.271797 -0.745014 -0.609164 -0.241835 -0.307665 -0.920249 
-0.457425 -0.486937 -0.74408 -0.435047 -0.537254 -0.72256 -0.390662 -0.426039 -0.816011 
0.393582 -0.483044 -0.782152 0.28558 -0.547353 -0.786669 0.256666 -0.40858 -0.875891 
0.127759 -0.571212 -0.810799 0.0968599 -0.370062 -0.923944 0.0574672 -0.558121 -0.827767 
0.0293651 -0.372913 -0.927402 0.0719209 -0.535469 -0.841487 -0.0227298 -0.327545 -0.944562 
-0.0602848 -0.270759 -0.960758 -0.116352 -0.49861 -0.858982 -0.0521672 -0.273804 -0.96037 
-0.052301 -0.507317 -0.860171 0.0012854 -0.361835 -0.932241 -0.139877 -0.583528 -0.799956 
-0.0803466 -0.382156 -0.920598 -0.305448 -0.5867 -0.74999 -0.381683 -0.568762 -0.728579 
-0.361591 -0.513798 -0.777987 0.148453 -0.720894 -0.676959 0.146629 -0.714298 -0.684309 
0.145368 -0.710452 -0.688568 0.0671492 -0.749519 -0.658568 0.0290099 -0.640805 -0.767155 
-0.258639 -0.739267 -0.621763 -0.103382 -0.641003 -0.760544 -0.0831633 -0.585351 -0.806504 
0.0467124 -0.528767 -0.847481 -0.0648608 -0.508286 -0.858743 -0.0381548 -0.506887 -0.861168 
-0.0372798 -0.488546 -0.871742 0.171358 0.100891 -0.980029 0.0273181 0.152367 -0.987946 
-0.101618 0.0332165 -0.994269 0.188691 0.0718448 -0.979405 0.185152 0.0778188 -0.979624 
-0.0160946 -0.0887072 -0.995928 -0.00889527 0.0461985 -0.998893 -0.113661 0.00497062 -0.993507 
-0.106323 -0.0114034 -0.994266 -0.112892 0.00518904 -0.993594 0.122517 -0.038408 -0.991723 
0.0340174 -0.0753868 -0.996574 0.112843 -0.0482147 -0.992442 0.117354 -0.0404585 -0.992266 
0.0354161 0.0676161 -0.997083 0.0589694 -0.0218129 -0.998021 -0.0858627 -0.0328922 -0.995764 
0.0311024 -0.116025 -0.992759 0.0351185 -0.00578124 -0.999366 
