# vtk DataFile Version 4.2
vtk output
ASCII
DATASET POLYDATA
POINTS 532 float
-29.6947 -4.29888 -20.6369 -15.5767 -32.5348 -13.4346 -1.45878 -32.5348 -13.4138 
-36.7537 -25.4758 -14.1955 -29.6947 -25.4758 -17.1884 -22.6357 -25.4758 -18.5016 
-15.5767 -25.4758 -18.0107 -8.51776 -25.4758 -16.786 -1.45878 -25.4758 -16.0439 
5.60019 -25.4758 -15.7073 12.6592 -25.4758 -15.6471 19.7181 -25.4758 -14.5282 
-36.7537 -18.4168 -17.839 -29.6947 -18.4168 -19.5166 -22.6357 -18.4168 -20.4321 
-15.5767 -18.4168 -19.6401 -8.51776 -18.4168 -18.286 -1.45878 -18.4168 -16.7303 
5.60019 -18.4168 -16.4809 12.6592 -18.4168 -16.501 19.7181 -18.4168 -15.7578 
26.7771 -18.4168 -14.4838 -43.8126 -11.3579 -16.3203 -36.7537 -11.3579 -19.4363 
-29.6947 -10.5099 -20.4424 -29.6947 -11.3579 -20.4158 -22.6357 -11.3579 -20.3056 
-15.5767 -11.3579 -19.6929 -8.51776 -11.3579 -18.5774 -1.45878 -11.3579 -16.818 
5.60019 -11.3579 -17.2852 12.6592 -11.3579 -16.0974 19.7181 -11.3579 -15.7215 
26.7771 -11.3579 -15.575 33.8361 -11.3579 -15.1529 40.8951 -11.3579 -13.409 
-43.8126 -4.29888 -16.781 -31.8052 -4.29888 -20.4424 -36.7537 -4.29888 -19.9472 
-27.7171 -4.29888 -20.4424 -29.6947 -0.916895 -20.4424 -22.6357 -4.29888 -19.9187 
-15.5767 -4.29888 -18.7517 -8.51776 -4.29888 -18.1382 -1.45878 -4.29888 -15.8324 
5.60019 -4.29888 -18.4425 12.6592 -4.29888 -15.288 19.7181 -4.29888 -15.3902 
26.7771 -4.29888 -16.5432 33.8361 -4.29888 -17.005 40.8951 -4.29888 -16.3414 
47.954 -4.29888 -14.4085 -43.8126 2.76009 -16.2321 -36.7537 2.76009 -19.45 
-29.6947 2.76009 -20.2315 -22.6357 2.76009 -19.7215 -15.5767 2.76009 -18.6849 
-8.51776 2.76009 -18.2737 -1.45878 2.76009 -15.2497 5.60019 2.76009 -17.7124 
12.6592 2.76009 -16.5611 19.7181 2.76009 -17.4467 26.7771 2.76009 -18.8193 
33.8361 2.76009 -19.5938 40.8951 2.76009 -18.5061 47.954 2.76009 -15.9468 
-43.8126 9.81907 -15.4224 -36.7537 9.81907 -18.4676 -29.6947 9.81907 -19.7153 
-22.6357 9.81907 -20.1291 -15.5767 9.81907 -19.6708 -8.51776 9.81907 -18.9514 
-1.45878 9.81907 -16.6656 5.60019 9.81907 -17.429 12.6592 9.81907 -18.2815 
19.7181 9.81907 -19.0878 26.7771 9.81907 -20.0544 33.8361 9.81907 -20.3079 
40.8951 9.81907 -19.3508 47.954 9.81907 -16.7825 -36.7537 16.878 -17.2786 
-29.6947 16.878 -18.9925 -22.6357 16.878 -19.9985 -15.5767 16.878 -20.027 
-8.51776 16.878 -18.9137 -1.45878 16.878 -16.9377 5.60019 16.878 -17.423 
12.6592 16.878 -18.6152 19.7181 16.878 -19.4253 26.7771 16.878 -19.9918 
33.8361 16.878 -20.1699 40.8951 16.878 -18.7449 47.954 16.878 -13.7515 
-36.7537 23.937 -14.2937 -29.6947 23.937 -17.3078 -22.6357 23.937 -18.5654 
-15.5767 23.937 -18.9487 -8.51776 23.937 -17.7573 -1.45878 23.937 -16.4541 
5.60019 23.937 -16.6518 12.6592 23.937 -17.7385 19.7181 23.937 -18.1633 
26.7771 23.937 -18.0389 33.8361 23.937 -16.3144 -22.6357 30.996 -14.3472 
-15.5767 30.996 -15.1834 -8.51776 30.996 -14.6814 -1.45878 30.996 -13.9822 
5.60019 30.996 -13.9202 12.6592 30.996 -14.5835 19.7181 30.996 -14.0649 
-15.5767 -32.5889 -13.3834 -1.45878 -32.5757 -13.3834 -36.7537 -26.2437 -13.3834 
-29.6947 -30.1346 -13.3834 -29.6947 -32.5348 -8.79956 -17.4757 -32.5348 -13.3834 
-22.6357 -32.3549 -13.3834 -22.6357 -32.5348 -13.1704 -13.5057 -32.5348 -13.3834 
-3.0008 -32.5348 -13.3834 -8.51776 -32.3244 -13.3834 -8.51776 -32.5348 -13.237 
3.88831 -32.5348 -13.3834 5.60019 -32.507 -13.3834 5.60019 -32.5348 -13.3715 
12.6592 -30.6628 -13.3834 12.6592 -32.5348 -12.2493 19.7181 -27.8609 -13.3834 
19.7181 -32.5348 -10.1179 26.7771 -32.5348 -6.69261 -37.6379 -25.4758 -13.3834 
24.4708 -25.4758 -13.3834 26.7771 -23.1433 -13.3834 26.7771 -25.4758 -12.7362 
33.8361 -25.4758 -9.33727 -43.6552 -18.4168 -13.3834 -43.8126 -18.1543 -13.3834 
-43.8126 -18.4168 -13.1589 31.0989 -18.4168 -13.3834 33.8361 -16.4897 -13.3834 
33.8361 -18.4168 -12.6591 40.8951 -11.4127 -13.3834 40.8951 -18.4168 -9.3558 
-46.7603 -11.3579 -13.3834 40.9469 -11.3579 -13.3834 47.954 -5.93996 -13.3834 
47.954 -11.3579 -8.53115 -47.2204 -4.29888 -13.3834 49.3098 -4.29888 -13.3834 
-46.6967 2.76009 -13.3834 51.4096 2.76009 -13.3834 55.013 2.76009 -7.64532 
-46.0473 9.81907 -13.3834 -43.8126 15.749 -13.3834 51.8406 9.81907 -13.3834 
55.013 9.81907 -6.91378 -43.2301 16.878 -13.3834 -43.8126 16.878 -12.7725 
40.8951 23.2875 -13.3834 48.3578 16.878 -13.3834 47.954 17.3318 -13.3834 
-38.0193 23.937 -13.3834 -43.8126 23.937 -6.66175 -36.7537 25.1418 -13.3834 
-29.6947 30.008 -13.3834 26.7771 29.9935 -13.3834 39.8439 23.937 -13.3834 
33.8361 27.0535 -13.3834 40.8951 23.937 -12.0793 -26.6226 30.996 -13.3834 
-29.6947 30.996 -12.0628 -22.6357 31.9545 -13.3834 -15.5767 32.9003 -13.3834 
-8.51776 32.7077 -13.3834 -1.45878 31.8894 -13.3834 5.60019 31.7364 -13.3834 
12.6592 32.3998 -13.3834 22.8594 30.996 -13.3834 19.7181 31.7029 -13.3834 
26.7771 30.996 -11.6167 -29.6947 -33.5586 -6.32443 -22.6357 -36.1892 -6.32443 
-15.5767 -37.2393 -6.32443 -8.51776 -37.6774 -6.32443 -1.45878 -38.3233 -6.32443 
-1.45878 -39.5938 0.187852 5.60019 -38.427 -6.32443 12.6592 -37.3461 -6.32443 
19.7181 -35.4183 -6.32443 26.7771 -32.7912 -6.32443 -31.5977 -32.5348 -6.32443 
-36.7537 -29.3856 -6.32443 27.2512 -32.5348 -6.32443 33.8361 -28.3798 -6.32443 
-41.1806 -25.4758 -6.32443 -43.8126 -22.6477 -6.32443 37.4566 -25.4758 -6.32443 
40.8951 -22.0908 -6.32443 -46.894 -18.4168 -6.32443 44.3372 -18.4168 -6.32443 
47.954 -14.029 -6.32443 -49.7638 -11.3579 -6.32443 49.9406 -11.3579 -6.32443 
-50.729 -4.29888 -6.32443 -50.8716 -4.29888 -0.778487 54.3202 -4.29888 -6.32443 
55.013 -0.94856 -6.32443 55.013 -4.29888 -0.894045 -50.5088 2.76009 -6.32443 
-50.8716 2.76009 0.135451 55.589 2.76009 -6.32443 -49.7339 9.81907 -6.32443 
55.2606 9.81907 -6.32443 55.013 10.6807 -6.32443 55.013 9.81907 -4.50345 
-47.6422 16.878 -6.32443 52.4406 16.878 -6.32443 47.954 21.0819 -6.32443 
-44.0357 23.937 -6.32443 -43.8126 24.2345 -6.32443 -36.7537 30.7087 -6.32443 
33.8361 30.3501 -6.32443 44.3814 23.937 -6.32443 40.8951 26.1767 -6.32443 
-36.1489 30.996 -6.32443 -36.7537 30.996 -4.65515 -29.6947 33.6959 -6.32443 
-22.6357 35.4134 -6.32443 -15.5767 36.4896 -6.32443 -8.51776 37.4034 -6.32443 
-1.45878 37.5204 -6.32443 5.60019 36.8627 -6.32443 12.6592 36.1525 -6.32443 
19.7181 35.1689 -6.32443 32.3039 30.996 -6.32443 26.7771 33.2663 -6.32443 
-1.45878 -39.6886 0.734549 -29.6947 -33.782 0.734549 -22.6357 -36.9359 0.734549 
-15.5767 -38.8642 0.734549 -4.65948 -39.5938 0.734549 -8.51776 -39.4789 0.734549 
1.3109 -39.5938 0.734549 -1.45878 -39.5938 1.26366 5.60019 -39.4461 0.734549 
12.6592 -38.3974 0.734549 19.7181 -36.7591 0.734549 26.7771 -34.4153 0.734549 
-31.6378 -32.5348 0.734549 -36.7537 -28.8305 0.734549 -29.6947 -32.5348 4.82449 
30.31 -32.5348 0.734549 33.8361 -30.4086 0.734549 -40.5275 -25.4758 0.734549 
-43.8126 -21.9449 0.734549 40.3044 -25.4758 0.734549 40.8951 -24.9298 0.734549 
-46.471 -18.4168 0.734549 46.9798 -18.4168 0.734549 47.954 -17.1304 0.734549 
-49.7473 -11.3579 0.734549 -50.8716 -4.54506 0.734549 51.7492 -11.3579 0.734549 
55.013 -4.65823 0.734549 -50.9091 -4.29888 0.734549 -50.8716 -4.29888 0.905819 
55.1738 -4.29888 0.734549 55.013 -4.29888 1.26593 -50.904 2.76009 0.734549 
-50.8716 3.02685 0.734549 -50.8716 2.76009 0.875569 55.6866 2.76009 0.734549 
55.013 6.35549 0.734549 55.013 2.76009 2.79496 -50.0902 9.81907 0.734549 
54.3093 9.81907 0.734549 -48.4415 16.878 0.734549 50.5972 16.878 0.734549 
47.954 19.7185 0.734549 47.954 16.878 6.07503 -45.5288 23.937 0.734549 
-43.8126 26.4409 0.734549 -43.8126 23.937 7.72116 33.8361 30.2899 0.734549 
43.4105 23.937 0.734549 40.8951 25.8519 0.734549 40.8951 23.937 5.37706 
-38.3661 30.996 0.734549 -36.7537 31.8886 0.734549 -36.7537 30.996 4.69183 
-29.6947 34.1709 0.734549 -22.6357 35.7698 0.734549 -15.5767 36.3336 0.734549 
-8.51776 37.464 0.734549 -1.45878 37.7643 0.734549 5.60019 36.7849 0.734549 
12.6592 35.7521 0.734549 19.7181 34.9267 0.734549 32.2781 30.996 0.734549 
26.7771 33.2481 0.734549 26.7771 30.996 7.21983 -22.6357 -35.2728 7.79352 
-15.5767 -37.6066 7.79352 -8.51776 -38.4035 7.79352 -1.45878 -38.2947 7.79352 
5.60019 -37.7142 7.79352 12.6592 -36.6893 7.79352 19.7181 -35.1025 7.79352 
26.7771 -32.6214 7.79352 -36.7537 -25.9992 7.79352 -27.844 -32.5348 7.79352 
-29.6947 -31.3356 7.79352 -22.6357 -32.5348 11.4859 12.6592 -32.5348 14.3158 
19.7181 -32.5348 11.8714 26.9467 -32.5348 7.79352 26.7771 -32.5348 7.93545 
33.8361 -28.4033 7.79352 -37.3603 -25.4758 7.79352 -43.8126 -19.4953 7.79352 
-36.7537 -25.4758 8.54874 -29.6947 -25.4758 13.7728 37.8043 -25.4758 7.79352 
33.8361 -25.4758 11.1725 40.8951 -22.7619 7.79352 -44.6989 -18.4168 7.79352 
-43.8126 -18.4168 9.26075 44.8353 -18.4168 7.79352 40.8951 -18.4168 12.0443 
47.954 -13.9888 7.79352 -47.9473 -11.3579 7.79352 -43.8126 -11.3579 13.8171 
49.5755 -11.3579 7.79352 47.954 -11.3579 9.92392 -49.2645 -4.29888 7.79352 
52.8349 -4.29888 7.79352 47.954 -4.29888 13.5722 -49.1635 2.76009 7.79352 
53.1775 2.76009 7.79352 47.954 2.76009 13.8452 -48.5042 9.81907 7.79352 
-43.8126 9.81907 14.5003 51.2421 9.81907 7.79352 47.954 15.5467 7.79352 
47.954 9.81907 11.5855 -46.7289 16.878 7.79352 -43.8126 23.8981 7.79352 
-43.8126 16.878 12.5432 46.9528 16.878 7.79352 40.8951 22.6649 7.79352 
40.8951 16.878 13.1331 -43.7924 23.937 7.79352 -36.7537 30.2542 7.79352 
26.7771 30.7578 7.79352 26.7771 23.937 14.8124 39.2518 23.937 7.79352 
33.8361 27.4354 7.79352 33.8361 23.937 11.5555 -34.6209 30.996 7.79352 
-29.6947 32.4832 7.79352 -29.6947 30.996 11.3777 -22.6357 33.7727 7.79352 
-22.6357 30.996 12.4065 -15.5767 33.8672 7.79352 -15.5767 30.996 12.1514 
-8.51776 34.7676 7.79352 -8.51776 30.996 12.6227 -1.45878 35.1434 7.79352 
-1.45878 30.996 12.9966 5.60019 34.0861 7.79352 5.60019 30.996 12.0281 
12.6592 32.978 7.79352 12.6592 30.996 10.5895 25.7989 30.996 7.79352 
19.7181 32.2938 7.79352 19.7181 30.996 9.58531 -15.5767 -32.8907 14.8525 
-8.51776 -33.6036 14.8525 -1.45878 -33.2105 14.8525 5.60019 -32.661 14.8525 
-16.348 -32.5348 14.8525 -22.6357 -28.7008 14.8525 -15.5767 -32.5348 15.1601 
[...]
POINT_DATA 532
SCALARS ImageScalars float
LOOKUP_TABLE default
0 0 0 0 0 0 0 0 0 
0 0 0 0 0 0 0 0 0 
0 0 0 0 0 0 0 0 0 
0 0 0 0 0 0 0 0 0 
0 0 0 0 0 0 0 0 0 
0 0 0 0 0 0 0 0 0 
0 0 0 0 0 0 0 0 0 
0 0 0 0 0 0 0 0 0 
0 0 0 0 0 0 0 0 0 
0 0 0 0 0 0 0 0 0 
0 0 0 0 0 0 0 0 0 
0 0 0 0 0 0 0 0 0 
0 0 0 0 0 0 0 0 0 
0 0 0 0 0 0 0 0 0 
0 0 0 0 0 0 0 0 0 
0 0 0 0 0 0 0 0 0 
0 0 0 0 0 0 0 0 0 
0 0 0 0 0 0 0 0 0 
0 0 0 0 0 0 0 0 0 
0 0 0 0 0 0 0 0 0 
0 0 0 0 0 0 0 0 0 
0 0 0 0 0 0 0 0 0 
0 0 0 0 0 0 0 0 0 
0 0 0 0 0 0 0 0 0 
0 0 0 0 0 0 0 0 0 
0 0 0 0 0 0 0 0 0 
0 0 0 0 0 0 0 0 0 
0 0 0 0 0 0 0 0 0 
0 0 0 0 0 0 0 0 0 
0 0 0 0 0 0 0 0 0 
0 0 0 0 0 0 0 0 0 
0 0 0 0 0 0 0 0 0 
0 0 0 0 0 0 0 0 0 
0 0 0 0 0 0 0 0 0 
0 0 0 0 0 0 0 0 0 
0 0 0 0 0 0 0 0 0 
0 0 0 0 0 0 0 0 0 
0 0 0 0 0 0 0 0 0 
0 0 0 0 0 0 0 0 0 
0 0 0 0 0 0 0 0 0 
0 0 0 0 0 0 0 0 0 
0 0 0 0 0 0 0 0 0 
0 0 0 0 0 0 0 0 0 
0 0 0 0 0 0 0 0 0 
0 0 0 0 0 0 0 0 0 
0 0 0 0 0 0 0 0 0 
0 0 0 0 0 0 0 0 0 
0 0 0 0 0 0 0 0 0 
0 0 0 0 0 0 0 0 0 
0 0 0 0 0 0 0 0 0 
0 0 0 0 0 0 0 0 0 
0 0 0 0 0 0 0 0 0 
0 0 0 0 0 0 0 0 0 
0 0 0 0 0 0 0 0 0 
0 0 0 0 0 0 0 0 0 
0 0 0 0 0 0 0 0 0 
0 0 0 0 0 0 0 0 0 
0 0 0 0 0 0 0 0 0 
0 0 0 0 0 0 0 0 0 
0 
NORMALS Normals float
-0.0044456 -0.0131498 0.999904 0.000590715 0.690277 0.723545 0.00642906 0.531962 0.846744 
0.521779 0.618967 0.587049 0.235722 0.480791 0.844556 0.0498342 0.425032 0.903806 
-0.112142 0.376788 0.919486 -0.129412 0.318738 0.938967 -0.0736828 0.22078 0.972536 
-0.0270299 0.209754 0.977381 -0.0789237 0.260866 0.962143 -0.185284 0.304375 0.934358 
0.373631 0.295542 0.879235 0.162637 0.199399 0.966328 0.0115447 0.102387 0.994678 
-0.148478 0.10931 0.982856 -0.201717 0.119526 0.972123 -0.126336 0.0523467 0.990605 
-0.0159132 0.105285 0.994315 -0.0506874 0.0346533 0.998113 -0.137269 0.078393 0.987427 
-0.203173 0.174454 0.963476 0.60248 0.191012 0.77494 0.259217 0.141703 0.955367 
0.0482351 0.0706873 0.996332 0.0553726 0.0819431 0.995098 -0.0497038 -0.0341976 0.998178 
-0.121965 -0.0630484 0.99053 -0.198287 -0.0104303 0.980088 -0.0927215 -0.0606507 0.993843 
-0.0452188 0.135408 0.989758 -0.111303 -0.0771687 0.990786 -0.0353199 -0.0264722 0.999025 
-0.0414703 0.144968 0.988567 -0.138164 0.281262 0.949633 -0.348673 0.390635 0.851957 
0.586337 -0.00388608 0.810058 0.0635094 -0.00937661 0.997937 0.234989 0.000484646 0.971998 
-0.0401351 -0.0205682 0.998983 0.00594979 -0.03803 0.999259 -0.13495 -0.0415781 0.98998 
-0.119895 -0.0692375 0.990369 -0.197904 -0.0213668 0.979988 0.0104516 -0.110513 0.99382 
-0.00237335 0.0301095 0.999544 -0.22357 0.03474 0.974069 0.0872361 0.118339 0.989134 
0.112566 0.227005 0.967366 -0.00853079 0.31764 0.948173 -0.174697 0.349696 0.920431 
-0.470784 0.390552 0.791095 0.594213 -0.0823016 0.800086 0.241145 -0.100622 0.965259 
0.0163233 -0.0649638 0.997754 -0.110683 0.0148648 0.993745 -0.0985949 0.0652051 0.992989 
-0.223483 0.0571184 0.973033 -0.0440741 0.062049 0.997099 0.085483 -0.0708867 0.993815 
-0.0185776 0.200997 0.979416 0.157604 0.264841 0.951326 0.144376 0.241837 0.959516 
-0.0234744 0.223625 0.974392 -0.250349 0.195197 0.948274 -0.495792 0.154737 0.854545 
0.588598 -0.192277 0.785227 0.280396 -0.14838 0.948347 0.109295 -0.0887485 0.99004 
-0.00360044 0.0182222 0.999828 -0.0807179 0.0942253 0.992273 -0.207081 0.0441207 0.977328 
-0.108926 0.111622 0.987763 0.113764 -0.0199752 0.993307 0.113455 0.134545 0.984391 
0.126735 0.137443 0.982368 0.0851859 0.0817912 0.993002 -0.0478309 0.0399325 0.998057 
-0.229255 0.0276409 0.972974 -0.539195 -0.102459 0.835925 0.371192 -0.245964 0.895387 
0.183934 -0.155892 0.970498 0.072864 -0.103479 0.991959 -0.0747231 -0.0428555 0.996283 
-0.217938 -0.0789721 0.972762 -0.103934 -0.0164401 0.994448 0.11859 -0.0540494 0.991471 
0.140451 -0.0331058 0.989534 0.0953299 -0.0649985 0.993321 0.0527026 -0.130442 0.990054 
-0.0685286 -0.243275 0.967533 -0.355567 -0.299947 0.885214 -0.635792 -0.506507 0.582425 
0.464953 -0.480851 0.743372 0.261982 -0.381476 0.886477 0.105142 -0.339097 0.934857 
-0.0532919 -0.29991 0.952478 -0.170333 -0.264479 0.94923 -0.0720924 -0.181669 0.980713 
0.0847046 -0.218057 0.972253 0.105645 -0.256898 0.960647 0.0195256 -0.320996 0.946879 
-0.111167 -0.422939 0.899313 -0.26469 -0.605284 0.750713 0.148367 -0.703412 0.695125 
0.0173844 -0.637228 0.770479 -0.0756839 -0.540883 0.837686 -0.0478878 -0.485224 0.873078 
0.0396259 -0.525068 0.850138 0.0107881 -0.600357 0.799659 -0.120431 -0.705707 0.698193 
0.00105287 0.692319 0.721591 0.00681291 0.533948 0.84549 0.52898 0.652506 0.542601 
0.312818 0.741054 0.594125 0.396191 0.865658 0.306054 0.0350008 0.700862 0.712437 
0.128381 0.71838 0.683702 0.13378 0.731279 0.668831 0.000364679 0.669383 0.742917 
0.00493704 0.550808 0.834617 -0.00465857 0.606898 0.794766 0.000253673 0.619656 0.784874 
-0.0453894 0.507944 0.860193 -0.0617827 0.498709 0.864565 -0.0619729 0.500332 0.863613 
-0.134352 0.486989 0.863013 -0.162989 0.603821 0.780279 -0.213406 0.413079 0.885338 
-0.274094 0.718727 0.638987 -0.401781 0.799891 0.44581 0.558055 0.628906 0.541342 
-0.264825 0.36078 0.894263 -0.26901 0.315056 0.91015 -0.310498 0.404991 0.859984 
-0.461858 0.579867 0.671149 0.690906 0.446192 0.568825 0.695272 0.439874 0.568426 
0.7007 0.450779 0.553009 -0.253726 0.272681 0.928045 -0.244893 0.318309 0.915809 
-0.296836 0.340246 0.892256 -0.349741 0.391036 0.851335 -0.537816 0.510809 0.670693 
0.774232 0.21157 0.596492 -0.350442 0.391804 0.850694 -0.493192 0.435805 0.752885 
-0.640823 0.529892 0.555483 0.770429 -0.00227816 0.637521 -0.543519 0.395308 0.740485 
0.747 -0.0683451 0.661302 -0.686411 0.13221 0.715095 -0.952772 0.0647177 0.296709 
0.710006 -0.193372 0.677125 0.662154 -0.327959 0.673792 -0.770816 -0.1446 0.62043 
-0.971312 -0.164709 0.171533 0.647883 -0.346369 0.678437 0.68416 -0.355153 0.637017 
-0.46643 -0.730892 0.498237 -0.648081 -0.510534 0.565107 -0.640757 -0.521631 0.563322 
0.502475 -0.496009 0.708162 0.771617 -0.526036 0.357621 0.476913 -0.525852 0.704297 
0.311214 -0.698679 0.6442 -0.253911 -0.755622 0.603792 -0.443869 -0.74128 0.503472 
-0.349708 -0.739952 0.57461 -0.481072 -0.773592 0.412463 0.243196 -0.732048 0.636366 
0.314662 -0.774426 0.548864 0.157992 -0.747553 0.645138 0.0469691 -0.737212 0.674027 
-0.0468282 -0.630773 0.774554 -0.0465092 -0.537279 0.842121 0.0309387 -0.568016 0.822436 
-0.0104686 -0.681945 0.731328 -0.189815 -0.752466 0.630686 -0.133012 -0.738026 0.661532 
-0.283605 -0.831119 0.47834 0.414056 0.889283 0.194251 0.234451 0.939028 0.251515 
0.102971 0.924238 0.367671 0.0711849 0.910612 0.407085 0.0500723 0.920448 0.387644 
0.00172198 0.999712 0.0239532 -0.0652881 0.92898 0.364327 -0.196286 0.904639 0.378285 
-0.295232 0.869053 0.396969 -0.402706 0.811599 0.423244 0.459759 0.870129 0.177472 
0.598524 0.789846 0.133837 -0.410724 0.806943 0.42444 -0.522488 0.717317 0.460936 
0.705084 0.697732 0.126596 0.778122 0.61288 0.137496 -0.592458 0.668471 0.4496 
-0.629112 0.623085 0.464741 0.860029 0.485771 0.156134 -0.649807 0.58215 0.488726 
-0.694361 0.55648 0.456282 0.951318 0.254794 0.173418 -0.736876 0.517067 0.435494 
0.977004 0.0475315 0.207854 0.997018 0.0697587 -0.0329881 -0.889723 0.325475 0.320093 
-0.944089 0.188351 0.270592 -0.961174 0.275788 -0.00926226 0.969946 -0.0659209 0.234218 
0.996267 -0.0612665 -0.060814 -0.973602 0.0557719 0.221336 0.954749 -0.188316 0.230199 
-0.975728 -0.168871 0.13942 -0.967996 -0.213811 0.131407 -0.978639 -0.201838 0.0390735 
0.896829 -0.330526 0.294026 -0.81961 -0.565178 0.0938819 -0.678 -0.72947 0.090497 
0.780191 -0.524504 0.340877 0.772202 -0.534712 0.3432 0.460978 -0.830172 0.31355 
-0.430134 -0.885603 0.175194 -0.585656 -0.803839 0.10416 -0.530675 -0.83718 0.132342 
0.442948 -0.843372 0.30417 0.451837 -0.861113 0.233084 0.292957 -0.926263 0.237093 
0.188993 -0.957128 0.219515 0.137541 -0.971595 0.192578 0.0717706 -0.972466 0.221717 
-0.0378468 -0.966876 0.252426 -0.095497 -0.969596 0.225307 -0.117833 -0.977501 0.174949 
-0.19342 -0.964804 0.178166 -0.404761 -0.896947 0.177918 -0.318201 -0.930351 0.182196 
-0.00229821 0.999992 -0.00313663 0.490105 0.863657 -0.11787 0.332983 0.941786 -0.046485 
0.170809 0.984974 0.0255032 0.0244418 0.999528 0.0186362 0.0569891 0.997369 0.0447922 
-0.036511 0.999141 -0.0196078 -0.00518519 0.999596 -0.0279546 -0.0896543 0.994937 -0.0454072 
-0.183552 0.982061 -0.0431931 -0.280816 0.95946 -0.0240661 -0.394615 0.918711 -0.0157686 
0.524818 0.83998 -0.137841 0.612652 0.768534 -0.184423 0.515132 0.808089 -0.28571 
-0.469058 0.88312 -0.00913504 -0.544375 0.838835 -0.00339304 0.691367 0.699578 -0.180563 
0.775741 0.611097 -0.157436 -0.669745 0.742357 0.018677 -0.681673 0.731343 0.0214342 
0.843139 0.520256 -0.135831 -0.773126 0.634141 0.0118889 -0.795072 0.6065 0.0043688 
0.949627 0.292383 -0.112785 0.991896 0.0823016 -0.0967957 -0.87919 0.475207 -0.0346787 
-0.957833 0.269555 -0.0994759 0.992529 0.0750384 -0.0962029 0.991926 0.0750088 -0.102258 
-0.960654 0.25869 -0.101112 -0.958377 0.256001 -0.126398 0.994348 -0.0606815 -0.0871174 
0.994083 -0.0646127 -0.0873174 0.993845 -0.0607278 -0.0926498 -0.987703 -0.0507758 -0.147869 
-0.9648 -0.171599 -0.199285 -0.9679 -0.063631 -0.243147 0.982936 -0.163026 -0.0852004 
-0.922298 -0.298641 -0.245314 0.954503 -0.29229 -0.0590741 -0.765032 -0.587607 -0.263521 
-0.704598 -0.667724 -0.24018 -0.690363 -0.581605 -0.430272 0.862654 -0.505436 -0.0190325 
0.788816 -0.61457 -0.00856384 0.79782 -0.479188 -0.365871 -0.451852 -0.877731 -0.15943 
-0.60771 -0.767731 -0.203171 -0.568356 -0.802989 -0.179388 -0.564501 -0.735574 -0.374526 
0.483679 -0.874997 -0.0208257 0.42005 -0.907051 -0.0285822 0.404502 -0.890917 -0.206506 
0.243797 -0.966658 -0.0783259 0.14909 -0.983208 -0.105236 0.120024 -0.978128 -0.169879 
0.100969 -0.981554 -0.162345 -0.0478779 -0.988046 -0.146539 -0.140971 -0.974676 -0.173593 
-0.12915 -0.970489 -0.203647 -0.169491 -0.968208 -0.183974 -0.418728 -0.894702 -0.155485 
-0.306309 -0.940033 -0.15004 -0.288349 -0.848741 -0.443277 0.379045 0.838495 -0.391473 
0.195023 0.922267 -0.333751 0.0450646 0.944664 -0.324929 -0.0445534 0.929273 -0.366697 
-0.103984 0.913157 -0.39412 -0.168286 0.912579 -0.372665 -0.264327 0.889919 -0.371719 
-0.387305 0.830457 -0.400419 0.576892 0.701493 -0.418453 0.483512 0.771725 -0.413106 
0.513333 0.746391 -0.423544 0.37328 0.70764 -0.599922 -0.134964 0.714723 -0.686263 
-0.262058 0.780593 -0.567451 -0.390449 0.829004 -0.400377 -0.387224 0.827388 -0.406801 
-0.509304 0.748701 -0.42433 0.585922 0.694997 -0.416743 0.726874 0.575923 -0.374121 
0.569663 0.689914 -0.446658 0.389347 0.55167 -0.73761 -0.576335 0.701557 -0.419112 
-0.480935 0.638191 -0.601177 -0.633915 0.656195 -0.409341 0.752813 0.546051 -0.367561 
0.714821 0.547614 -0.434915 -0.701315 0.577473 -0.417949 -0.565124 0.50206 -0.654653 
-0.755306 0.499561 -0.424208 0.876466 0.294157 -0.381155 0.681516 0.264968 -0.68215 
-0.784515 0.44927 -0.427426 -0.71734 0.435689 -0.543689 0.924473 0.074288 -0.37394 
-0.864634 0.211272 -0.45582 -0.621756 0.177201 -0.762902 0.917781 -0.0539719 -0.393401 
-0.861846 -0.0911907 -0.498905 -0.604424 -0.0966054 -0.790784 0.908049 -0.155488 -0.388934 
0.675011 -0.10529 -0.730256 -0.789032 -0.332753 -0.516433 -0.684675 -0.526469 -0.504034 
-0.645547 -0.328072 -0.689665 0.884999 -0.284624 -0.368464 0.797216 -0.477471 -0.369415 
0.771309 -0.260109 -0.580884 -0.656378 -0.565198 -0.499719 -0.552888 -0.676646 -0.486276 
-0.466705 -0.47556 -0.745674 0.796228 -0.479007 -0.369559 0.403548 -0.843075 -0.35549 
-0.285548 -0.833411 -0.473168 -0.216807 -0.461416 -0.860285 -0.522419 -0.701769 -0.484354 
-0.427805 -0.761051 -0.487631 -0.393798 -0.638183 -0.661548 0.331126 -0.883079 -0.332456 
0.212449 -0.927418 -0.307832 0.203614 -0.868833 -0.451299 0.09229 -0.913522 -0.396181 
0.0179676 -0.817918 -0.575054 0.0616708 -0.891436 -0.44893 0.0127471 -0.794567 -0.607043 
0.0808246 -0.863193 -0.498362 0.0383639 -0.727581 -0.684948 -0.042936 -0.868193 -0.494365 
-0.0262012 -0.704306 -0.709413 -0.135162 -0.865414 -0.482483 -0.113398 -0.74655 -0.655594 
-0.112554 -0.863518 -0.491598 -0.113497 -0.786893 -0.606562 -0.264795 -0.83962 -0.474259 
-0.135923 -0.857425 -0.496334 -0.134455 -0.805774 -0.576758 0.209351 0.628037 -0.749494 
0.0164134 0.658574 -0.752337 -0.0499232 0.657507 -0.751792 -0.0583265 0.66675 -0.742995 
0.226145 0.616602 -0.754096 0.327254 0.519983 -0.789001 0.209217 0.610921 -0.763547 
0.0165828 0.609712 -0.792449 -0.0471232 0.629198 -0.775815 -0.0748823 0.672094 -0.736669 
-0.0573819 0.661644 -0.747619 -0.129694 0.678545 -0.723019 -0.244149 0.610175 -0.75371 
-0.365628 0.512101 -0.777219 0.42384 0.46755 -0.77573 0.350037 0.503458 -0.789939 
0.348046 0.504441 -0.790191 0.295894 0.412075 -0.861766 0.143778 0.307838 -0.940512 
0.0291742 0.31726 -0.94789 -0.0157853 0.328288 -0.944446 -0.0235889 0.359072 -0.933012 
-0.0876533 0.353643 -0.931264 -0.216091 0.398541 -0.89133 -0.380989 0.495061 -0.780873 
-0.360153 0.467319 -0.807405 -0.368031 0.42483 -0.827087 0.434521 0.459565 -0.774591 
0.415703 0.45283 -0.788756 0.243957 0.36529 -0.898359 0.135651 0.199007 -0.970564 
0.119725 0.11506 -0.986117 0.0390015 0.171525 -0.984407 -0.00640523 0.160947 -0.986942 
-0.0227889 0.143856 -0.989336 -0.103367 0.0857819 -0.990937 -0.18459 0.074263 -0.980006 
-0.227374 0.199265 -0.953202 -0.398349 0.390311 -0.830046 -0.317866 0.345002 -0.883139 
-0.436943 0.345408 -0.830526 0.604031 0.257682 -0.754153 0.653149 0.139698 -0.744232 
0.342541 0.260307 -0.902721 0.129033 0.170657 -0.976845 0.04878 0.0772374 -0.995819 
0.112743 0.0583552 -0.991909 0.0735 0.135254 -0.988081 -0.0405592 0.0671893 -0.996916 
-0.0906561 0.068576 -0.993518 -0.16272 -0.0622208 -0.984709 -0.10321 -0.0615937 -0.992751 
-0.0824969 0.07532 -0.993741 -0.197047 0.214157 -0.956718 -0.443245 0.322852 -0.836242 
-0.407415 0.307056 -0.860075 0.668008 0.0544093 -0.742163 0.639839 0.0539043 -0.766616 
0.304314 0.0554294 -0.950958 0.0537182 0.0556752 -0.997003 0.0215106 0.0369309 -0.999086 
0.182853 0.087044 -0.979279 -0.0741122 -0.0207614 -0.997034 -0.145137 0.0542527 -0.987923 
-0.241267 -0.100168 -0.965275 -0.0456539 -0.0782205 -0.99589 0.0507069 -0.00404026 -0.998705 
-0.093036 0.0727293 -0.993003 -0.519386 0.156747 -0.840041 -0.336835 0.113729 -0.93467 
0.648934 -0.0523136 -0.759044 0.65156 -0.0693906 -0.755417 0.641516 -0.0515646 -0.765375 
0.32922 -0.0351567 -0.943599 0.101275 0.00623842 -0.994839 0.0764283 0.12025 -0.989797 
0.172553 0.123732 -0.977198 -0.0775216 -0.0290564 -0.996567 -0.314155 -0.131694 -0.940193 
0.00651462 -0.0575187 -0.998323 0.0756786 -0.0434405 -0.996186 -0.0764349 -0.0757815 -0.994191 
-0.527113 -0.093031 -0.844688 -0.320678 -0.0731949 -0.944356 0.650201 -0.0969621 -0.753549 
0.368504 -0.0378479 -0.928855 0.211465 -0.0099003 -0.977335 -0.134635 -0.0694709 -0.988457 
-0.248322 -0.176699 -0.952425 -0.206795 -0.035943 -0.977724 0.03101 -0.0253874 -0.999197 
0.0276732 -0.091284 -0.99544 -0.121515 -0.200577 -0.972113 -0.441567 -0.278912 -0.852776 
-0.406256 -0.354386 -0.842239 -0.367825 -0.260791 -0.892576 0.65609 -0.225485 -0.720209 
0.432654 -0.175425 -0.884328 0.233856 -0.147912 -0.960954 0.099952 -0.148762 -0.983809 
-0.116288 -0.298764 -0.947215 -0.109594 -0.217766 -0.969828 -0.159141 -0.214002 -0.963783 
-0.135582 -0.0908973 -0.986588 -0.0506281 -0.14287 -0.988446 -0.21494 -0.457488 -0.862847 
-0.0979409 -0.230457 -0.968141 -0.334233 -0.4056 -0.850751 -0.276268 -0.437159 -0.855902 
-0.229535 -0.3537 -0.906758 0.48322 -0.517192 -0.706407 0.45824 -0.545983 -0.701369 
0.456884 -0.514444 -0.725675 0.202997 -0.712637 -0.671521 0.21854 -0.441475 -0.870253 
-0.00800411 -0.725996 -0.687652 0.0298021 -0.518531 -0.854539 -0.0265197 -0.696754 -0.71682 
-0.0796111 -0.541096 -0.837184 0.00861913 -0.630112 -0.776456 -0.0463833 -0.488936 -0.871085 
-0.0248146 -0.602785 -0.797518 -0.043271 -0.422784 -0.905197 -0.106625 -0.584948 -0.804032 
-0.111592 -0.413418 -0.903677 -0.119186 -0.510796 -0.8514 -0.123986 -0.396064 -0.909814 
-0.211269 -0.458784 -0.863066 -0.0974889 -0.468687 -0.877968 -0.0954298 -0.413994 -0.905263 
0.0694231 0.128716 -0.989249 0.111581 0.0915432 -0.98953 -0.0448905 0.00689752 -0.998968 
0.0437497 0.0902805 -0.994955 -0.141715 -0.0409644 -0.98906 0.133712 0.0869551 -0.987198 
0.147419 0.107622 -0.983201 0.151632 0.104395 -0.982909 -0.0624124 -0.0212832 -0.997823 
-0.0377367 -0.00547403 -0.999273 -0.135931 -0.0641491 -0.988639 -0.144332 -0.0685013 -0.987155 
-0.145698 -0.0720943 -0.986699 -0.140279 -0.0669398 -0.987847 0.138888 0.081608 -0.98694 
0.117862 -0.0375117 -0.992321 0.135779 0.0855612 -0.987038 0.0494016 0.0112906 -0.998715 
-0.118778 -0.102612 -0.987604 -0.110407 -0.211675 -0.971084 -0.103656 -0.135843 -0.985293 
-0.0403403 -0.226738 -0.97312 -0.0568293 -0.235767 -0.970146 -0.0565447 -0.235944 -0.97012 
-0.0564422 -0.235387 -0.970262 
