# vtk DataFile Version 4.2
vtk output
ASCII
DATASET POLYDATA
POINTS 542 float
-22.051 -29.0442 -17.5888 -14.891 -29.0442 -18.2671 -7.73105 -29.0442 -17.8399 
-0.57108 -29.0442 -16.5785 -36.3709 -21.8842 -17.249 -29.211 -21.8842 -19.8282 
-22.051 -21.8842 -20.3964 -14.891 -21.8842 -21.1387 -7.73105 -21.8842 -21.3693 
-0.57108 -21.8842 -20.6252 6.58889 -21.8842 -19.7461 13.7489 -21.8842 -18.9878 
20.9088 -21.8842 -17.9617 28.0688 -21.8842 -16.522 -43.5309 -14.7242 -17.3108 
-36.3709 -14.7242 -19.6831 -29.211 -14.7242 -20.4564 -22.051 -14.7242 -20.5125 
-14.891 -14.7242 -20.9528 -7.73105 -14.7242 -21.897 -0.57108 -14.7242 -21.6175 
6.58889 -14.7242 -20.6381 13.7489 -14.7242 -19.936 20.9088 -14.7242 -19.1335 
28.0688 -14.7242 -18.3423 35.2288 -14.7242 -17.2343 -50.6909 -7.56427 -16.0826 
-43.5309 -7.56427 -19.5236 -36.3709 -7.56427 -20.7631 -29.211 -7.56427 -21.3541 
-22.051 -7.56427 -20.174 -14.891 -7.56427 -19.8153 -7.73105 -7.56427 -21.9566 
-0.57108 -7.56427 -22.0127 6.58889 -7.56427 -21.0994 13.7489 -7.56427 -19.7786 
20.9088 -7.56427 -19.2007 28.0688 -7.56427 -19.5628 35.2288 -7.56427 -19.1183 
42.3887 -7.56427 -17.4953 -50.6909 -0.404304 -16.6203 -43.5309 -0.404304 -19.8496 
-36.3709 -0.404304 -20.9654 -29.211 -0.404304 -20.8858 -22.051 -0.404304 -20.0858 
-14.891 -0.404304 -20.1272 -7.73105 -0.404304 -22.9417 -0.57108 -0.404304 -21.902 
6.58889 -0.404304 -21.3437 13.7489 -0.404304 -19.6915 20.9088 -0.404304 -19.5145 
28.0688 -0.404304 -20.0063 35.2288 -0.404304 -19.9644 42.3887 -0.404304 -18.7361 
-50.6909 6.75567 -16.2408 -43.5309 6.75567 -19.5593 -36.3709 6.75567 -20.8835 
-29.211 6.75567 -20.9443 -22.051 6.75567 -20.6282 -14.891 6.75567 -21.3185 
-7.73105 6.75567 -22.6808 -0.57108 6.75567 -21.0158 6.58889 6.75567 -20.4959 
13.7489 6.75567 -19.7032 20.9088 6.75567 -19.9506 28.0688 6.75567 -20.4896 
35.2288 6.75567 -20.4973 42.3887 6.75567 -19.4053 49.5487 6.75567 -16.519 
-43.5309 13.9156 -18.4664 -36.3709 13.9156 -20.1078 -29.211 13.9156 -20.4361 
-22.051 13.9156 -20.5072 -14.891 13.9156 -21.046 -7.73105 13.9156 -21.725 
-0.57108 13.9156 -21.2216 6.58889 13.9156 -20.7 13.7489 13.9156 -20.1524 
20.9088 13.9156 -20.0598 28.0688 13.9156 -20.4425 35.2288 13.9156 -20.2457 
42.3887 13.9156 -18.5785 -36.3709 21.0756 -16.8916 -29.211 21.0756 -18.0728 
-22.051 21.0756 -18.8571 -14.891 21.0756 -19.5187 -7.73105 21.0756 -19.7848 
-0.57108 21.0756 -19.4609 6.58889 21.0756 -19.1351 13.7489 21.0756 -18.6163 
20.9088 21.0756 -18.136 28.0688 21.0756 -18.2179 35.2288 21.0756 -17.3582 
-22.051 -30.8575 -15.9394 -14.891 -31.5518 -15.9394 -7.73105 -30.8776 -15.9394 
-0.57108 -29.6665 -15.9394 -36.3709 -24.1168 -15.9394 -36.3709 -29.0442 -10.0086 
-28.0535 -29.0442 -15.9394 -29.211 -28.5365 -15.9394 -29.211 -29.0442 -15.5204 
6.27847 -29.0442 -15.9394 6.58889 -29.0006 -15.9394 6.58889 -29.0442 -15.8962 
13.7489 -27.8602 -15.9394 13.7489 -29.0442 -14.9172 20.9088 -25.9376 -15.9394 
20.9088 -29.0442 -13.3514 28.0688 -22.879 -15.9394 28.0688 -29.0442 -10.5492 
-39.2492 -21.8842 -15.9394 -43.5309 -17.3646 -15.9394 -43.5309 -21.8842 -12.3693 
30.4541 -21.8842 -15.9394 35.2288 -18.5448 -15.9394 35.2288 -21.8842 -14.5515 
42.3887 -21.8842 -10.7089 -45.5614 -14.7242 -15.9394 -50.6909 -7.89124 -15.9394 
-50.6909 -14.7242 -10.5043 39.7363 -14.7242 -15.9394 42.3887 -12.4373 -15.9394 
42.3887 -14.7242 -15.1018 49.5487 -14.7242 -10.833 -50.8495 -7.56427 -15.9394 
46.1949 -7.56427 -15.9394 49.5487 -7.56427 -14.0903 -51.5694 -0.404304 -15.9394 
49.16 -0.404304 -15.9394 49.5487 1.29729 -15.9394 49.5487 -0.404304 -15.7402 
-51.0545 6.75567 -15.9394 -50.6909 7.97129 -15.9394 50.3733 6.75567 -15.9394 
49.5487 10.371 -15.9394 56.7087 6.75567 -9.10759 -48.0319 13.9156 -15.9394 
-50.6909 13.9156 -13.999 -43.5309 18.783 -15.9394 48.4206 13.9156 -15.9394 
42.3887 19.5904 -15.9394 49.5487 13.9156 -15.1809 -39.7783 21.0756 -15.9394 
-43.5309 21.0756 -14.2996 -36.3709 22.4866 -15.9394 -29.211 24.2719 -15.9394 
-22.051 26.1793 -15.9394 -14.891 27.1514 -15.9394 -7.73105 27.1221 -15.9394 
-0.57108 26.2532 -15.9394 6.58889 25.5729 -15.9394 13.7489 24.9506 -15.9394 
20.9088 24.3471 -15.9394 28.0688 23.7849 -15.9394 39.8028 21.0756 -15.9394 
35.2288 22.8363 -15.9394 42.3887 21.0756 -14.9717 -29.211 28.2356 -11.6518 
-22.051 28.2356 -13.7825 -14.891 28.2356 -14.8326 -7.73105 28.2356 -14.8156 
-0.57108 28.2356 -13.8623 6.58889 28.2356 -12.9641 13.7489 28.2356 -11.9387 
20.9088 28.2356 -10.8039 28.0688 28.2356 -9.71918 -36.3709 -29.6939 -8.7794 
-29.211 -33.2241 -8.7794 -22.051 -35.0884 -8.7794 -14.891 -35.565 -8.7794 
-14.891 -36.2042 -3.37412 -7.73105 -34.6312 -8.7794 -0.57108 -33.4791 -8.7794 
6.58889 -32.9905 -8.7794 13.7489 -32.6867 -8.7794 20.9088 -31.7595 -8.7794 
28.0688 -30.2139 -8.7794 -37.4263 -29.0442 -8.7794 -43.5309 -24.4702 -8.7794 
31.9792 -29.0442 -8.7794 35.2288 -27.8354 -8.7794 35.2288 -29.0442 -5.52384 
42.3887 -23.6617 -8.7794 -46.3571 -21.8842 -8.7794 -50.6909 -16.3923 -8.7794 
44.6306 -21.8842 -8.7794 49.5487 -17.1921 -8.7794 -51.6975 -14.7242 -8.7794 
51.4044 -14.7242 -8.7794 -55.3582 -7.56427 -8.7794 54.718 -7.56427 -8.7794 
56.7087 -7.56427 -4.32879 -57.101 -0.404304 -8.7794 -57.8508 -0.404304 -2.23994 
56.3388 -0.404304 -8.7794 56.7087 4.01026 -8.7794 56.7087 -0.404304 -7.82323 
-56.8206 6.75567 -8.7794 56.9259 6.75567 -8.7794 56.7087 7.41062 -8.7794 
-54.622 13.9156 -8.7794 -50.6909 20.4046 -8.7794 54.5105 13.9156 -8.7794 
49.5487 20.5482 -8.7794 -50.0185 21.0756 -8.7794 -50.6909 21.0756 -7.1003 
-43.5309 25.0731 -8.7794 -36.3709 27.8331 -8.7794 35.2288 27.9645 -8.7794 
49.0496 21.0756 -8.7794 42.3887 25.5579 -8.7794 49.5487 21.0756 -6.99572 
-35.0433 28.2356 -8.7794 -36.3709 28.2356 -6.73102 -29.211 29.8377 -8.7794 
-22.051 30.9638 -8.7794 -14.891 31.6594 -8.7794 -7.73105 31.9093 -8.7794 
-0.57108 31.5176 -8.7794 6.58889 30.9057 -8.7794 13.7489 30.0258 -8.7794 
20.9088 29.1721 -8.7794 32.8563 28.2356 -8.7794 28.0688 28.7202 -8.7794 
35.2288 28.2356 -7.60264 -14.891 -36.3988 -1.61943 -36.3709 -30.5481 -1.61943 
-29.211 -33.8914 -1.61943 -17.513 -36.2042 -1.61943 -22.051 -35.8718 -1.61943 
-13.1207 -36.2042 -1.61943 -14.891 -36.2042 -0.65417 -7.73105 -35.6115 -1.61943 
-0.57108 -34.4964 -1.61943 6.58889 -33.9069 -1.61943 13.7489 -33.46 -1.61943 
20.9088 -32.6825 -1.61943 28.0688 -31.6143 -1.61943 35.2288 -30.0437 -1.61943 
-38.8332 -29.0442 -1.61943 -43.5309 -25.583 -1.61943 -36.3709 -29.0442 3.68552 
37.4479 -29.0442 -1.61943 35.2288 -29.0442 2.18948 42.3887 -26.3584 -1.61943 
-47.5465 -21.8842 -1.61943 -50.6909 -17.844 -1.61943 48.5621 -21.8842 -1.61943 
49.5487 -21.0056 -1.61943 -52.5036 -14.7242 -1.61943 -50.6909 -14.7242 4.48978 
54.4977 -14.7242 -1.61943 56.7087 -9.76507 -1.61943 -56.1324 -7.56427 -1.61943 
-57.8508 -0.678702 -1.61943 57.6908 -7.56427 -1.61943 -57.926 -0.404304 -1.61943 
-57.8508 5.46087 -1.61943 -57.8508 -0.404304 -1.35589 58.6561 -0.404304 -1.61943 
-57.8361 6.75567 -1.61943 58.8031 6.75567 -1.61943 56.7087 12.7278 -1.61943 
-56.1824 13.9156 -1.61943 56.2921 13.9156 -1.61943 -51.9383 21.0756 -1.61943 
-50.6909 22.309 -1.61943 -50.6909 21.0756 4.37822 -43.5309 26.9777 -1.61943 
42.3887 26.6158 -1.61943 50.9762 21.0756 -1.61943 49.5487 22.4471 -1.61943 
49.5487 21.0756 5.34761 -39.7362 28.2356 -1.61943 -36.3709 29.1856 -1.61943 
-29.211 30.9185 -1.61943 -22.051 31.4413 -1.61943 -14.891 31.9405 -1.61943 
-7.73105 32.7631 -1.61943 -0.57108 33.2628 -1.61943 6.58889 32.8266 -1.61943 
13.7489 31.5374 -1.61943 20.9088 30.4818 -1.61943 28.0688 29.9633 -1.61943 
38.3862 28.2356 -1.61943 35.2288 29.3272 -1.61943 -29.211 -32.1519 5.54054 
-22.051 -34.3697 5.54054 -14.891 -34.7968 5.54054 -7.73105 -34.1754 5.54054 
-0.57108 -33.1465 5.54054 6.58889 -32.433 5.54054 13.7489 -31.6243 5.54054 
20.9088 -30.5067 5.54054 28.0688 -29.3841 5.54054 -43.5309 -22.7237 5.54054 
-35.3578 -29.0442 5.54054 -36.3709 -28.4344 5.54054 -29.211 -29.0442 9.83978 
-22.051 -29.0442 11.9959 -0.57108 -29.0442 11.8463 6.58889 -29.0442 10.9207 
13.7489 -29.0442 9.24103 20.9088 -29.0442 7.72372 29.7658 -29.0442 5.54054 
28.0688 -29.0442 6.03512 35.2288 -27.9629 5.54054 42.3887 -25.3861 5.54054 
-44.3894 -21.8842 5.54054 -43.5309 -21.8842 6.49845 -36.3709 -21.8842 12.5727 
47.7207 -21.8842 5.54054 42.3887 -21.8842 10.7453 49.5487 -20.2728 5.54054 
-50.2877 -14.7242 5.54054 -50.6909 -13.9322 5.54054 -43.5309 -14.7242 12.2044 
53.9481 -14.7242 5.54054 49.5487 -14.7242 12.4024 56.7087 -8.97253 5.54054 
-53.379 -7.56427 5.54054 -50.6909 -7.56427 9.01587 57.3264 -7.56427 5.54054 
56.7087 -7.56427 7.07373 -55.6618 -0.404304 5.54054 -50.6909 -0.404304 11.8885 
58.0189 -0.404304 5.54054 56.7087 -0.404304 8.44471 -55.8057 6.75567 5.54054 
-50.6909 6.75567 12.3489 57.9284 6.75567 5.54054 56.7087 9.96192 5.54054 
56.7087 6.75567 8.1555 -54.4387 13.9156 5.54054 -50.6909 20.6075 5.54054 
-50.6909 13.9156 11.0011 55.0567 13.9156 5.54054 49.5487 21.0328 5.54054 
-50.3283 21.0756 5.54054 -43.5309 26.1136 5.54054 49.5049 21.0756 5.54054 
42.3887 25.947 5.54054 -37.6693 28.2356 5.54054 -36.3709 28.6178 5.54054 
-36.3709 28.2356 6.80416 -29.211 30.3306 5.54054 -22.051 30.522 5.54054 
-14.891 30.7216 5.54054 -7.73105 31.6144 5.54054 -0.57108 32.4625 5.54054 
6.58889 32.2784 5.54054 13.7489 31.2706 5.54054 20.9088 30.4068 5.54054 
28.0688 29.8008 5.54054 28.0688 28.2356 12.2985 36.9371 28.2356 5.54054 
35.2288 28.8685 5.54054 35.2288 28.2356 7.50278 -14.891 -29.2957 12.7005 
-7.73105 -29.1406 12.7005 -29.211 -25.7433 12.7005 -16.7945 -29.0442 12.7005 
-22.051 -28.0879 12.7005 -14.891 -29.0442 12.9089 -6.85708 -29.0442 12.7005 
-7.73105 -29.0442 12.7883 -0.57108 -28.2313 12.7005 6.58889 -27.321 12.7005 
13.7489 -25.1412 12.7005 20.9088 -23.6757 12.7005 28.0688 -23.5523 12.7005 
35.2288 -22.7397 12.7005 -36.0866 -21.8842 12.7005 -36.3709 -21.6716 12.7005 
-29.211 -21.8842 15.0103 -22.051 -21.8842 16.0097 -14.891 -21.8842 16.4993 
-7.73105 -21.8842 16.8801 -0.57108 -21.8842 17.3174 6.58889 -21.8842 16.549 
[...]
POINT_DATA 542
SCALARS ImageScalars float
LOOKUP_TABLE default
0 0 0 0 0 0 0 0 0 
0 0 0 0 0 0 0 0 0 
0 0 0 0 0 0 0 0 0 
0 0 0 0 0 0 0 0 0 
0 0 0 0 0 0 0 0 0 
0 0 0 0 0 0 0 0 0 
0 0 0 0 0 0 0 0 0 
0 0 0 0 0 0 0 0 0 
0 0 0 0 0 0 0 0 0 
0 0 0 0 0 0 0 0 0 
0 0 0 0 0 0 0 0 0 
0 0 0 0 0 0 0 0 0 
0 0 0 0 0 0 0 0 0 
0 0 0 0 0 0 0 0 0 
0 0 0 0 0 0 0 0 0 
0 0 0 0 0 0 0 0 0 
0 0 0 0 0 0 0 0 0 
0 0 0 0 0 0 0 0 0 
0 0 0 0 0 0 0 0 0 
0 0 0 0 0 0 0 0 0 
0 0 0 0 0 0 0 0 0 
0 0 0 0 0 0 0 0 0 
0 0 0 0 0 0 0 0 0 
0 0 0 0 0 0 0 0 0 
0 0 0 0 0 0 0 0 0 
0 0 0 0 0 0 0 0 0 
0 0 0 0 0 0 0 0 0 
0 0 0 0 0 0 0 0 0 
0 0 0 0 0 0 0 0 0 
0 0 0 0 0 0 0 0 0 
0 0 0 0 0 0 0 0 0 
0 0 0 0 0 0 0 0 0 
0 0 0 0 0 0 0 0 0 
0 0 0 0 0 0 0 0 0 
0 0 0 0 0 0 0 0 0 
0 0 0 0 0 0 0 0 0 
0 0 0 0 0 0 0 0 0 
0 0 0 0 0 0 0 0 0 
0 0 0 0 0 0 0 0 0 
0 0 0 0 0 0 0 0 0 
0 0 0 0 0 0 0 0 0 
0 0 0 0 0 0 0 0 0 
0 0 0 0 0 0 0 0 0 
0 0 0 0 0 0 0 0 0 
0 0 0 0 0 0 0 0 0 
0 0 0 0 0 0 0 0 0 
0 0 0 0 0 0 0 0 0 
0 0 0 0 0 0 0 0 0 
0 0 0 0 0 0 0 0 0 
0 0 0 0 0 0 0 0 0 
0 0 0 0 0 0 0 0 0 
0 0 0 0 0 0 0 0 0 
0 0 0 0 0 0 0 0 0 
0 0 0 0 0 0 0 0 0 
0 0 0 0 0 0 0 0 0 
0 0 0 0 0 0 0 0 0 
0 0 0 0 0 0 0 0 0 
0 0 0 0 0 0 0 0 0 
0 0 0 0 0 0 0 0 0 
0 0 0 0 0 0 0 0 0 
0 0 
NORMALS Normals float
0.165789 0.574422 0.801594 0.0145942 0.584454 0.811296 -0.0998023 0.656596 0.74761 
-0.110661 0.699195 0.706315 0.351061 0.413517 0.840095 0.209826 0.295033 0.932163 
0.0860711 0.165619 0.982427 0.0659839 0.156297 0.985504 -0.033493 0.229181 0.972807 
-0.113761 0.298508 0.947603 -0.108102 0.274062 0.955617 -0.11981 0.282802 0.951666 
-0.162745 0.299645 0.940068 -0.196938 0.38163 0.903092 0.435204 0.381066 0.815712 
0.184211 0.243779 0.952176 0.055186 0.100569 0.993398 0.0353441 -0.0145503 0.999269 
0.0995257 -0.0943697 0.99055 0.0464512 0.0400294 0.998118 -0.0893054 0.0927125 0.99168 
-0.114718 0.0912566 0.989198 -0.105646 0.0520517 0.993041 -0.109344 0.0804546 0.990743 
-0.123428 0.193727 0.97326 -0.199797 0.270345 0.941804 0.642791 0.220309 0.733678 
0.298355 0.136441 0.944652 0.127605 0.0813741 0.988481 -0.0332804 0.0288002 0.999031 
-0.109167 -0.0307494 0.993548 0.119913 -0.0600172 0.990969 0.158256 0.0670043 0.985122 
-0.0594295 0.020183 0.998028 -0.152718 0.0498138 0.987014 -0.132268 -0.017105 0.991066 
-0.0141215 0.026524 0.999548 -0.0042093 0.114446 0.993421 -0.142668 0.184152 0.972488 
-0.29865 0.222467 0.928072 0.546918 0.0127242 0.83709 0.262562 0.00495999 0.964902 
0.0675359 0.00937871 0.997673 -0.0615243 -0.028092 0.99771 -0.0533941 0.0323326 0.99805 
0.183118 0.103004 0.97768 0.121427 0.0499814 0.991341 -0.105941 -0.069675 0.991928 
-0.1515 -0.0424537 0.987545 -0.128144 -0.00512081 0.991742 0.0220314 0.0523455 0.998386 
0.03135 0.0641462 0.997448 -0.0847983 0.092188 0.992124 -0.267753 0.127177 0.955057 
0.574742 -0.127601 0.808325 0.281219 -0.0803688 0.956272 0.0905614 -0.05549 0.994344 
-0.0178691 -0.029781 0.999397 0.0225909 0.0295042 0.999309 0.146061 0.0605428 0.987421 
-0.0241582 -0.0832456 0.996236 -0.153992 -0.0458229 0.987009 -0.0899091 -0.0443026 0.994964 
-0.0382113 0.031715 0.998766 0.0548305 0.0378163 0.997779 0.0381269 0.0304419 0.998809 
-0.0719164 0.0205626 0.997199 -0.252112 -0.012057 0.967623 -0.512492 -0.0250779 0.858326 
0.350233 -0.294325 0.889219 0.116824 -0.265112 0.957114 0.0268471 -0.18944 0.981525 
0.0421927 -0.114859 0.992485 0.0847316 -0.116945 0.989517 0.0118897 -0.187894 0.982117 
-0.0716661 -0.0978766 0.992615 -0.0734151 -0.0854396 0.993635 -0.0443045 -0.0679358 0.996705 
0.0200975 -0.111519 0.993559 0.0137122 -0.134428 0.990828 -0.13455 -0.198013 0.970921 
-0.3061 -0.246797 0.919453 0.198233 -0.507362 0.838622 0.126533 -0.447734 0.885169 
0.0940022 -0.350894 0.931685 0.0600156 -0.348291 0.935463 -0.00330629 -0.394635 0.918832 
-0.0425163 -0.407158 0.912368 -0.0563274 -0.412445 0.909239 -0.0642576 -0.40422 0.912402 
-0.027227 -0.421242 0.90654 -0.048544 -0.501647 0.86371 -0.184469 -0.541996 0.819885 
0.159606 0.679968 0.71566 -0.00372293 0.722945 0.690895 -0.110687 0.753863 0.647641 
-0.110297 0.730585 0.673855 0.384157 0.51449 0.766631 0.492925 0.804213 0.332063 
0.265743 0.620602 0.737722 0.280364 0.604427 0.745697 0.289614 0.638312 0.713219 
-0.081341 0.709698 0.699795 -0.080246 0.707448 0.702195 -0.0799133 0.711229 0.698403 
-0.110628 0.620934 0.776017 -0.103915 0.721014 0.685085 -0.19014 0.528835 0.827152 
-0.194862 0.774665 0.601601 -0.21125 0.425686 0.879867 -0.248429 0.836327 0.488713 
0.427658 0.474426 0.769434 0.482683 0.456658 0.747316 0.603437 0.617505 0.504531 
-0.237626 0.41431 0.878568 -0.264709 0.381113 0.885823 -0.335368 0.508802 0.792873 
-0.495294 0.623091 0.605345 0.506802 0.42165 0.751906 0.646374 0.229836 0.727583 
0.775068 0.497467 0.389611 -0.305419 0.337255 0.890493 -0.343524 0.326707 0.880485 
-0.373927 0.37938 0.846315 -0.619091 0.450296 0.643397 0.650412 0.221462 0.72658 
-0.420811 0.250898 0.871762 -0.562859 0.26817 0.781841 0.591449 0.0174303 0.806154 
-0.510308 0.128316 0.850365 -0.523889 0.0931017 0.846683 -0.528215 0.129161 0.839229 
0.591582 -0.1286 0.795923 0.582748 -0.160014 0.796744 -0.550674 -0.0301551 0.834175 
-0.554241 -0.175729 0.813595 -0.887187 -0.113702 0.447181 0.510997 -0.323614 0.796339 
0.646472 -0.354721 0.675461 0.372848 -0.50609 0.777726 -0.533456 -0.308443 0.787583 
-0.355901 -0.512689 0.781335 -0.590088 -0.327589 0.73789 0.281566 -0.552896 0.784236 
0.395473 -0.633157 0.665367 0.21723 -0.571577 0.791272 0.151318 -0.586327 0.795817 
0.126618 -0.636036 0.761201 0.0365264 -0.668034 0.743234 -0.0402437 -0.676082 0.735727 
-0.0686773 -0.651939 0.755155 -0.0596699 -0.645313 0.761584 -0.0559834 -0.626711 0.777238 
-0.0581251 -0.614377 0.786869 -0.0735245 -0.657137 0.750177 -0.303889 -0.569691 0.763612 
-0.188536 -0.624603 0.757843 -0.37683 -0.600966 0.704868 0.192011 -0.842945 0.502569 
0.132974 -0.80481 0.578445 0.0384911 -0.758383 0.650672 -0.0418591 -0.753088 0.656587 
-0.0774671 -0.771364 0.631662 -0.0768904 -0.803811 0.589895 -0.0796499 -0.857168 0.50884 
-0.0806879 -0.911917 0.402364 -0.082863 -0.924128 0.37299 0.494907 0.825624 0.270949 
0.331926 0.903237 0.272007 0.156285 0.951127 0.266333 -0.0308444 0.960261 0.277393 
-0.0212678 0.999294 0.0309612 -0.137876 0.950233 0.279369 -0.109999 0.950886 0.289336 
-0.0530262 0.955167 0.291279 -0.0824492 0.950269 0.300319 -0.165067 0.931419 0.324363 
-0.239995 0.891071 0.385221 0.51575 0.812205 0.272626 0.636897 0.710941 0.298202 
-0.305829 0.855865 0.417089 -0.370078 0.806777 0.460601 -0.352939 0.906372 0.232216 
-0.50715 0.702146 0.49979 0.688285 0.659201 0.30285 0.791481 0.53519 0.295177 
-0.552178 0.657815 0.51223 -0.658783 0.526351 0.537549 0.813866 0.502988 0.290903 
-0.71094 0.459883 0.532045 0.89608 0.325276 0.302053 -0.784733 0.300404 0.542173 
-0.912424 0.296384 0.282204 0.947774 0.0998965 0.302895 0.991506 0.121826 -0.045538 
-0.864923 0.120608 0.487198 -0.890077 -0.0234529 0.455207 -0.895403 0.113438 0.430564 
0.926231 -0.146398 0.347366 -0.893837 -0.114716 0.433468 -0.89119 -0.139648 0.431601 
0.823812 -0.409824 0.391636 0.663948 -0.645874 0.376855 -0.821786 -0.393002 0.412573 
-0.666232 -0.649837 0.36585 0.634985 -0.675423 0.374965 0.671 -0.682463 0.289835 
0.451008 -0.802433 0.39076 0.288304 -0.903519 0.317073 -0.222034 -0.90652 0.359059 
-0.645682 -0.6734 0.360039 -0.378454 -0.866028 0.326754 -0.665198 -0.693726 0.276143 
0.269794 -0.908938 0.317873 0.285585 -0.929128 0.234864 0.197907 -0.922639 0.331015 
0.130898 -0.951793 0.277408 0.063263 -0.963575 0.259849 -0.00864324 -0.94892 0.315399 
-0.0669915 -0.914905 0.398072 -0.0983497 -0.906654 0.410252 -0.115143 -0.926511 0.358218 
-0.0845821 -0.949214 0.30305 -0.174696 -0.920942 0.348348 -0.0772433 -0.940648 0.330477 
-0.22319 -0.925972 0.304569 -0.0178307 0.998835 -0.0448357 0.484485 0.872265 -0.0665453 
0.336926 0.939543 -0.061153 0.0496278 0.997899 -0.0416417 0.164902 0.985613 -0.0370623 
-0.0460761 0.998138 -0.039968 -0.0181537 0.995956 -0.0879937 -0.131355 0.991008 -0.0254846 
-0.118663 0.992747 -0.0192754 -0.071825 0.996836 -0.0340507 -0.0846908 0.994232 -0.0658066 
-0.126135 0.989308 -0.0732056 -0.193696 0.980046 -0.0446321 -0.321921 0.946747 -0.00600584 
0.53411 0.842807 -0.0663524 0.657241 0.749958 -0.074815 0.486569 0.816164 -0.311652 
-0.374498 0.927134 0.0131712 -0.288601 0.931774 -0.220242 -0.506335 0.858727 0.0788186 
0.735677 0.671787 -0.0864963 0.815868 0.57259 -0.0806242 -0.659237 0.7409 0.128353 
-0.6933 0.708472 0.131915 0.858127 0.50755 -0.0775308 0.802128 0.463406 -0.376624 
-0.865324 0.480425 0.14285 -0.930032 0.337606 0.145134 0.936561 0.335014 -0.103052 
0.98826 0.131456 -0.0778548 -0.949274 0.281612 0.139903 0.989403 0.123017 -0.0771293 
0.996082 -0.0660413 -0.0588181 0.988284 0.124163 -0.0887632 -0.992632 0.0710351 0.0981657 
0.992958 -0.105048 -0.0547711 -0.985049 -0.162097 0.0583369 -0.928773 -0.368779 0.0371916 
0.922041 -0.386991 -0.00887041 -0.910369 -0.412606 0.0313907 0.737935 -0.674827 0.00769998 
0.68009 -0.732995 0.0139973 0.71711 -0.642772 -0.269439 0.465652 -0.882681 0.0635802 
-0.397972 -0.916919 0.0296187 -0.67799 -0.734831 0.01877 -0.634037 -0.773022 0.0208562 
-0.669192 -0.691195 -0.27282 0.361919 -0.930405 0.0579775 0.260516 -0.964222 0.0490662 
0.14271 -0.989352 0.028559 0.0751914 -0.996648 -0.0322257 0.0916244 -0.993703 -0.0644916 
0.0919433 -0.995525 -0.0218151 0.00451881 -0.998429 0.0558543 -0.119625 -0.989193 0.0847727 
-0.161997 -0.983596 0.0793497 -0.108436 -0.990628 0.0830479 -0.084833 -0.993658 0.0738065 
-0.28615 -0.956867 0.0502303 -0.210324 -0.976369 0.0496806 0.346169 0.850492 -0.396017 
0.165522 0.899417 -0.404538 -0.0142727 0.917736 -0.396934 -0.107552 0.922969 -0.369541 
-0.113426 0.928075 -0.354698 -0.0997405 0.924297 -0.368411 -0.125287 0.893238 -0.431773 
-0.144427 0.877713 -0.456904 -0.162888 0.873626 -0.458525 0.634215 0.639177 -0.434999 
0.462327 0.789588 -0.403491 0.482093 0.775377 -0.407894 0.309442 0.709867 -0.63272 
0.14836 0.647756 -0.747262 -0.0830648 0.736726 -0.671071 -0.118149 0.766213 -0.631632 
-0.13775 0.77559 -0.616024 -0.143914 0.816994 -0.5584 -0.181454 0.8748 -0.449221 
-0.159841 0.863545 -0.478268 -0.239331 0.877304 -0.416004 -0.414994 0.852269 -0.318462 
0.648145 0.623252 -0.437567 0.62941 0.615918 -0.473802 0.395979 0.505112 -0.766853 
-0.604507 0.744928 -0.282229 -0.367931 0.709737 -0.600749 -0.677703 0.68325 -0.271825 
0.778403 0.45293 -0.434677 0.78681 0.432935 -0.439884 0.517797 0.39608 -0.758293 
-0.8304 0.494082 -0.257523 -0.599669 0.471285 -0.646751 -0.925799 0.308323 -0.218707 
0.820552 0.302876 -0.484727 0.735768 0.286253 -0.613763 -0.939289 0.265067 -0.217891 
-0.917067 0.26403 -0.298791 0.884548 0.148514 -0.442174 0.673323 0.157342 -0.722412 
-0.964442 0.0386856 -0.261449 -0.917843 0.0272378 -0.396008 0.901558 -0.0696411 -0.427016 
0.702235 -0.0321979 -0.711217 -0.93892 -0.194198 -0.284107 -0.909434 -0.300862 -0.287076 
-0.896333 -0.19575 -0.397831 0.872034 -0.325664 -0.365375 0.722894 -0.608081 -0.328118 
0.757774 -0.269673 -0.594184 -0.848237 -0.433181 -0.30471 -0.669433 -0.687528 -0.281363 
0.7052 -0.63237 -0.320625 0.486639 -0.836409 -0.252196 -0.667778 -0.689395 -0.280725 
-0.424357 -0.877457 -0.223586 0.308048 -0.932069 -0.190666 0.268858 -0.946026 -0.180971 
0.283483 -0.932779 -0.222624 0.120239 -0.982195 -0.144343 0.0285111 -0.983021 -0.181263 
0.074122 -0.978003 -0.194975 0.118808 -0.971197 -0.206545 0.0452161 -0.977205 -0.207427 
-0.0818118 -0.980111 -0.180799 -0.128159 -0.982849 -0.132598 -0.100716 -0.989332 -0.10525 
-0.111224 -0.986045 -0.12387 -0.1644 -0.912404 -0.374823 -0.282747 -0.938222 -0.199484 
-0.245812 -0.950603 -0.189554 -0.264777 -0.925513 -0.270773 0.0395863 0.612573 -0.789422 
-0.0504779 0.658809 -0.750614 0.254484 0.549511 -0.795786 0.0679496 0.612053 -0.787892 
0.138671 0.598032 -0.789384 0.0398066 0.602054 -0.797462 -0.053752 0.663398 -0.746333 
-0.0495524 0.654804 -0.754172 -0.0748296 0.693278 -0.716775 -0.129618 0.673747 -0.727506 
-0.15182 0.581227 -0.799454 -0.0653112 0.591246 -0.803843 -0.0487599 0.657707 -0.751695 
-0.165399 0.684704 -0.709805 0.387531 0.5004 -0.774222 0.392286 0.497495 -0.773699 
0.211611 0.431858 -0.876767 0.094852 0.346808 -0.933128 0.0575092 0.340563 -0.938461 
0.0516003 0.3932 -0.918004 -0.0178436 0.481059 -0.876506 -0.155364 0.496818 -0.853835 
-0.159143 0.476509 -0.864646 -0.0444904 0.547132 -0.835863 -0.0198238 0.613893 -0.78914 
-0.225498 0.669957 -0.707324 -0.159717 0.65825 -0.735662 -0.337758 0.628931 -0.700261 
0.48931 0.383077 -0.783471 0.506694 0.370967 -0.778232 0.321704 0.324926 -0.889342 
0.142186 0.26758 -0.952987 0.0368738 0.236491 -0.970934 0.0876944 0.233427 -0.968412 
0.130185 0.314653 -0.940237 -0.121002 0.440893 -0.889366 0.0342079 0.475299 -0.879159 
0.0113456 0.489387 -0.871993 -0.115158 0.477254 -0.871187 -0.581681 0.469916 -0.663948 
-0.317701 0.477675 -0.819081 -0.593833 0.455499 -0.663236 0.583734 0.275577 -0.763748 
0.469261 0.275407 -0.839014 0.254536 0.254 -0.933111 0.10794 0.210429 -0.971632 
0.0623916 0.206674 -0.976419 -0.323246 0.251312 -0.912335 -0.718581 0.250196 -0.648878 
-0.566357 0.258219 -0.782664 0.634159 0.158836 -0.756712 0.44261 0.170538 -0.880349 
0.236976 0.188594 -0.953035 -0.781166 0.0206749 -0.623981 -0.607925 0.0471662 -0.792592 
0.68756 -0.0286572 -0.725562 0.487343 0.0248646 -0.872856 -0.76096 -0.188115 -0.620929 
-0.612728 -0.172456 -0.771248 0.697685 -0.249688 -0.671485 0.499647 -0.205261 -0.841558 
-0.441564 -0.316064 -0.839717 -0.680202 -0.407908 -0.609045 -0.652226 -0.458812 -0.603401 
-0.652947 -0.399475 -0.643491 0.589317 -0.556934 -0.585261 0.554358 -0.599646 -0.577158 
0.555329 -0.551741 -0.622247 0.340234 -0.814813 -0.469384 0.370761 -0.503279 -0.780543 
-0.168398 -0.904494 -0.391831 -0.323148 -0.804506 -0.498343 -0.30452 -0.585019 -0.751679 
-0.518981 -0.646518 -0.559171 -0.477783 -0.689922 -0.543812 -0.472774 -0.629736 -0.616375 
0.193106 -0.881904 -0.430064 0.158332 -0.891209 -0.425063 0.161652 -0.872207 -0.461653 
0.0189127 -0.930104 -0.366809 0.0243345 -0.908229 -0.417765 0.060707 -0.926415 -0.371578 
0.0554372 -0.897209 -0.438112 0.0738776 -0.913087 -0.401016 0.065795 -0.850183 -0.522359 
0.0259201 -0.90151 -0.431982 0.023395 -0.825196 -0.564361 -0.0418361 -0.905589 -0.422087 
-0.0312544 -0.831726 -0.554307 -0.0780349 -0.923018 -0.376759 -0.0667416 -0.872071 -0.484807 
-0.157925 -0.909313 -0.38498 -0.0882951 -0.932549 -0.35008 -0.0916259 -0.904422 -0.416684 
0.0381139 0.262959 -0.964054 -0.130471 0.326656 -0.936095 0.140055 0.248442 -0.958468 
0.0755479 0.264814 -0.961335 0.116964 0.295794 -0.948064 0.0437671 0.234968 -0.971017 
-0.129518 0.328327 -0.935642 -0.129425 0.323193 -0.937441 -0.071234 0.405286 -0.91141 
0.0253193 0.413447 -0.910176 0.00221736 0.429682 -0.902977 -0.137357 0.367391 -0.919868 
0.0979299 0.202827 -0.974305 0.108422 0.23157 -0.966757 0.063407 0.204611 -0.976788 
0.147277 0.251422 -0.956607 0.0567358 0.225646 -0.972556 0.0017409 0.0561769 -0.998419 
0.0542033 0.176835 -0.982747 -0.00211839 0.344139 -0.938916 0.00674523 0.343164 -0.939251 
-0.0295304 0.303252 -0.952453 -0.283343 0.257505 -0.923801 -0.152089 0.279892 -0.947908 
-0.329792 0.201639 -0.922268 0.211166 0.190136 -0.958779 0.241228 0.170106 -0.955444 
0.088533 0.192 -0.977393 0.0718074 0.195312 -0.978109 0.112439 0.136829 -0.984193 
-0.0621735 -0.00212616 -0.998063 -0.00339831 0.0422727 -0.9991 0.165545 0.0724617 -0.983537 
0.0520914 0.0786402 -0.995541 0.00286074 0.0975243 -0.995229 -0.037724 0.103472 -0.993917 
-0.168136 0.0961641 -0.981062 -0.414122 0.0701282 -0.907516 -0.349234 0.077776 -0.933802 
0.344081 0.0598107 -0.937033 0.268053 0.073586 -0.96059 0.099932 0.115757 -0.988238 
0.0101582 0.110027 -0.993877 -0.044215 0.0262968 -0.998676 -0.0358016 -0.0478835 -0.998211 
0.0740225 0.10657 -0.991546 0.0978239 0.045273 -0.994173 0.0322208 -0.0335664 -0.998917 
0.0275732 -0.0433111 -0.998681 -0.0361569 -0.070124 -0.996883 -0.178953 -0.070514 -0.981328 
-0.414781 -0.0933325 -0.905122 -0.432047 -0.282092 -0.856597 -0.36225 -0.0790368 -0.928724 
0.358568 -0.164613 -0.918875 0.337795 -0.269187 -0.901905 0.311998 -0.151117 -0.937988 
0.12895 -0.0729259 -0.988966 -0.0127693 -0.0609216 -0.998061 -0.0505892 -0.0626941 -0.99675 
0.0190595 -0.0349204 -0.999208 0.0933989 0.0022438 -0.995626 0.0211338 -0.0621059 -0.997846 
-0.0355376 -0.0991198 -0.994441 -0.0346912 -0.13116 -0.990754 -0.0632683 -0.209655 -0.975726 
-0.425826 -0.311067 -0.849652 -0.250847 -0.452123 -0.855956 -0.180343 -0.249325 -0.95148 
0.272595 -0.461984 -0.843957 0.204548 -0.525801 -0.825647 0.200648 -0.446415 -0.87204 
0.041405 -0.546866 -0.836195 0.0257924 -0.392812 -0.919257 -0.00779632 -0.503753 -0.863813 
-0.0206934 -0.359532 -0.932903 0.0334688 -0.464085 -0.885158 0.0291964 -0.319628 -0.947093 
0.0367348 -0.520015 -0.853367 0.0438911 -0.328945 -0.943328 -0.0099997 -0.555515 -0.831446 
-0.00495316 -0.37399 -0.927419 -0.0375007 -0.538731 -0.841643 -0.0340169 -0.371398 -0.92785 
-0.1053 -0.52793 -0.842735 -0.0924444 -0.389307 -0.916457 -0.199239 -0.479903 -0.854398 
-0.182771 -0.481341 -0.857266 -0.178649 -0.45995 -0.869788 
