# vtk DataFile Version 4.2
vtk output
ASCII
DATASET POLYDATA
POINTS 544 float
-34.0488 -15.3808 -28.7722 -42.9111 -6.51849 -29.2218 -42.9111 2.34379 -29.0657 
-42.9111 -33.1054 -22.7415 -34.0488 -33.1054 -23.8223 -25.1865 -33.1054 -21.8699 
-51.7734 -24.2431 -24.7753 -42.9111 -24.2431 -26.9022 -34.0488 -16.2096 -28.6774 
-34.0488 -24.2431 -27.6837 -25.1865 -24.2431 -26.2269 -16.3242 -24.2431 -23.7202 
-7.46193 -24.2431 -22.1428 1.40036 -24.2431 -21.8522 -60.6357 -15.3808 -22.215 
-51.7734 -15.3808 -27.0602 -38.4625 -15.3808 -28.6774 -42.9111 -14.0466 -28.6774 
-42.9111 -15.3808 -28.5807 -33.352 -15.3808 -28.6774 -34.0488 -12.8212 -28.6774 
-25.1865 -15.3808 -27.5793 -16.3242 -15.3808 -26.615 -7.46193 -15.3808 -26.5279 
1.40036 -15.3808 -25.6356 10.2626 -15.3808 -23.0318 27.9872 -15.3808 -20.3137 
36.8495 -15.3808 -21.1238 45.7118 -15.3808 -21.2859 -60.6357 -6.51849 -23.8127 
-47.6303 -6.51849 -28.6774 -51.7734 -6.51849 -28.1519 -36.7266 -6.51849 -28.6774 
-34.0488 -6.51849 -28.4484 -25.1865 -6.51849 -27.4713 -16.3242 -6.51849 -26.9405 
-7.46193 -6.51849 -28.0128 1.40036 -6.51849 -24.8016 10.2626 -6.51849 -25.4823 
19.1249 -6.51849 -21.5214 27.9872 -6.51849 -20.7259 36.8495 -6.51849 -21.4702 
45.7118 -6.51849 -21.6476 54.5741 -6.51849 -20.4408 -60.6357 2.34379 -23.4554 
-46.392 2.34379 -28.6774 -51.7734 2.34379 -28.0132 -38.9632 2.34379 -28.6774 
-42.9111 7.19014 -28.6774 -34.0488 2.34379 -28.2085 -25.1865 2.34379 -26.5827 
-16.3242 2.34379 -25.9433 -7.46193 2.34379 -27.191 1.40036 2.34379 -24.1164 
10.2626 2.34379 -27.144 19.1249 2.34379 -23.5347 27.9872 2.34379 -21.0911 
36.8495 2.34379 -21.4473 45.7118 2.34379 -21.213 -60.6357 11.2061 -20.9161 
-51.7734 11.2061 -26.8925 -42.9111 11.2061 -28.3508 -34.0488 11.2061 -28.2419 
-25.1865 11.2061 -27.6094 -16.3242 11.2061 -27.161 -7.46193 11.2061 -27.8942 
1.40036 11.2061 -26.432 10.2626 11.2061 -24.8827 19.1249 11.2061 -22.1425 
27.9872 11.2061 -21.1455 36.8495 11.2061 -21.1234 45.7118 11.2061 -20.1605 
-51.7734 20.0684 -22.6598 -42.9111 20.0684 -26.534 -34.0488 20.0684 -27.7676 
-25.1865 20.0684 -27.9764 -16.3242 20.0684 -28.0427 -7.46193 20.0684 -27.7655 
1.40036 20.0684 -25.5401 10.2626 20.0684 -22.3043 19.1249 20.0684 -21.1785 
27.9872 20.0684 -20.8389 36.8495 20.0684 -20.1569 -42.9111 28.9307 -21.3795 
-34.0488 28.9307 -25.2039 -25.1865 28.9307 -26.518 -16.3242 28.9307 -26.6508 
-7.46193 28.9307 -25.2061 1.40036 28.9307 -22.4729 10.2626 28.9307 -20.4013 
-25.1865 37.7929 -20.5443 -16.3242 37.7929 -21.6872 -7.46193 37.7929 -20.9376 
-42.9111 -36.4572 -19.8152 -34.0488 -37.292 -19.8152 -25.1865 -35.5308 -19.8152 
-50.1624 -33.1054 -19.8152 -51.7734 -32.1245 -19.8152 -51.7734 -33.1054 -18.6614 
-19.1564 -33.1054 -19.8152 -16.3242 -31.4183 -19.8152 -16.3242 -33.1054 -18.3471 
-7.46193 -27.4905 -19.8152 -7.46193 -33.1054 -12.683 1.40036 -26.406 -19.8152 
-59.1718 -24.2431 -19.8152 -60.6357 -21.3134 -19.8152 -60.6357 -24.2431 -17.7271 
6.52282 -24.2431 -19.8152 10.2626 -21.5195 -19.8152 10.2626 -24.2431 -16.5553 
19.1249 -24.2431 -13.2987 27.9872 -16.795 -19.8152 27.9872 -24.2431 -16.0417 
36.8495 -19.0682 -19.8152 36.8495 -24.2431 -17.6304 45.7118 -19.5111 -19.8152 
45.7118 -24.2431 -17.4853 54.5741 -24.2431 -15.6978 -62.8956 -15.3808 -19.8152 
18.5723 -15.3808 -19.8152 21.615 -15.3808 -19.8152 19.1249 -14.2719 -19.8152 
19.1249 -15.3808 -19.6176 51.2964 -15.3808 -19.8152 54.5741 -9.90978 -19.8152 
54.5741 -15.3808 -18.8988 63.4364 -15.3808 -15.5662 -64.2604 -6.51849 -19.8152 
56.4623 -6.51849 -19.8152 54.5741 -0.790933 -19.8152 63.4364 -6.51849 -16.6569 
-63.9732 2.34379 -19.8152 52.9084 2.34379 -19.8152 54.5741 2.34379 -19.4743 
63.4364 2.34379 -14.9652 -61.5982 11.2061 -19.8152 -60.6357 12.6994 -19.8152 
47.1076 11.2061 -19.8152 45.7118 13.0485 -19.8152 54.5741 11.2061 -17.7144 
63.4364 11.2061 -11.646 -55.0764 20.0684 -19.8152 -51.7734 23.5156 -19.8152 
19.1249 26.482 -19.8152 27.9872 24.6812 -19.8152 38.6378 20.0684 -19.8152 
36.8495 21.2679 -19.8152 45.7118 20.0684 -18.3972 54.5741 20.0684 -14.1757 
-44.958 28.9307 -19.8152 -42.9111 30.268 -19.8152 -34.0488 34.7268 -19.8152 
1.40036 35.1752 -19.8152 14.934 28.9307 -19.8152 10.2626 30.292 -19.8152 
19.1249 28.9307 -19.2838 27.9872 28.9307 -18.8149 36.8495 28.9307 -17.3108 
45.7118 28.9307 -13.24 -26.8018 37.7929 -19.8152 -25.1865 38.4029 -19.8152 
-16.3242 39.8422 -19.8152 -3.05809 37.7929 -19.8152 -7.46193 39.1871 -19.8152 
1.40036 37.7929 -18.4103 10.2626 37.7929 -15.8395 19.1249 37.7929 -14.8214 
27.9872 37.7929 -12.6209 -51.7734 -37.2237 -10.9529 -42.9111 -41.0902 -10.9529 
-34.0488 -41.5509 -10.9529 -25.1865 -41.083 -10.9529 -16.3242 -37.5832 -10.9529 
-7.46193 -34.0014 -10.9529 -56.6414 -33.1054 -10.9529 -60.6357 -28.5394 -10.9529 
-4.5046 -33.1054 -10.9529 1.40036 -31.1119 -10.9529 1.40036 -33.1054 -5.09407 
10.2626 -26.7313 -10.9529 19.1249 -25.8427 -10.9529 27.9872 -28.6209 -10.9529 
27.9872 -33.1054 -3.39579 36.8495 -32.1073 -10.9529 36.8495 -33.1054 -8.05283 
45.7118 -31.2934 -10.9529 45.7118 -33.1054 -8.01883 54.5741 -29.4273 -10.9529 
54.5741 -33.1054 -4.26858 -63.607 -24.2431 -10.9529 63.2852 -24.2431 -10.9529 
63.4364 -24.1086 -10.9529 63.4364 -24.2431 -10.819 -67.3116 -15.3808 -10.9529 
68.4842 -15.3808 -10.9529 72.2987 -15.3808 -2.92416 -68.8427 -6.51849 -10.9529 
-69.4979 -6.51849 -2.95382 69.2729 -6.51849 -10.9529 72.2987 -6.51849 -5.04862 
-68.5216 2.34379 -10.9529 67.4314 2.34379 -10.9529 -65.7211 11.2061 -10.9529 
-60.6357 18.3363 -10.9529 64.0636 11.2061 -10.9529 63.4364 12.3073 -10.9529 
-59.0278 20.0684 -10.9529 -51.7734 26.1489 -10.9529 58.1233 20.0684 -10.9529 
54.5741 23.6983 -10.9529 -48.2473 28.9307 -10.9529 -42.9111 32.8284 -10.9529 
-34.0488 37.6169 -10.9529 36.8495 35.9631 -10.9529 48.3843 28.9307 -10.9529 
45.7118 30.8638 -10.9529 -33.6652 37.7929 -10.9529 -25.1865 41.6873 -10.9529 
-16.3242 44.648 -10.9529 -7.46193 45.6319 -10.9529 1.40036 44.2151 -10.9529 
10.2626 42.4999 -10.9529 19.1249 41.0739 -10.9529 31.9713 37.7929 -10.9529 
27.9872 39.1164 -10.9529 36.8495 37.7929 -5.48461 -51.7734 -37.6331 -2.09058 
-42.9111 -41.5248 -2.09058 -34.0488 -41.927 -2.09058 -25.1865 -40.3632 -2.09058 
-16.3242 -38.0121 -2.09058 -7.46193 -34.9456 -2.09058 1.40036 -33.9726 -2.09058 
27.9872 -33.7581 -2.09058 36.8495 -34.6768 -2.09058 45.7118 -35.994 -2.09058 
54.5741 -34.0678 -2.09058 -57.1026 -33.1054 -2.09058 -60.6357 -29.1095 -2.09058 
4.31902 -33.1054 -2.09058 10.2626 -31.0378 -2.09058 10.2626 -33.1054 1.58228 
25.829 -33.1054 -2.09058 19.1249 -30.8812 -2.09058 19.1249 -33.1054 2.07539 
57.2293 -33.1054 -2.09058 63.4364 -30.2413 -2.09058 -64.0837 -24.2431 -2.09058 
69.8128 -24.2431 -2.09058 72.2987 -16.8597 -2.09058 -67.8553 -15.3808 -2.09058 
-69.4979 -6.90357 -2.09058 72.6389 -15.3808 -2.09058 -69.5668 -6.51849 -2.09058 
-69.4979 -3.38232 -2.09058 -69.4979 -6.51849 -1.7143 73.3657 -6.51849 -2.09058 
72.2987 -1.35558 -2.09058 -69.3684 2.34379 -2.09058 71.5297 2.34379 -2.09058 
-66.7078 11.2061 -2.09058 -60.6357 19.522 -2.09058 67.529 11.2061 -2.09058 
63.4364 18.2874 -2.09058 -60.1088 20.0684 -2.09058 -51.7734 26.7059 -2.09058 
62.1326 20.0684 -2.09058 54.5741 27.529 -2.09058 -48.1698 28.9307 -2.09058 
-42.9111 31.9012 -2.09058 -34.0488 36.9052 -2.09058 52.8637 28.9307 -2.09058 
45.7118 33.911 -2.09058 -32.2225 37.7929 -2.09058 -25.1865 41.3031 -2.09058 
-16.3242 45.1524 -2.09058 -7.46193 46.6404 -2.09058 1.40036 46.603 -2.09058 
10.2626 45.8092 -2.09058 19.1249 44.4876 -2.09058 27.9872 42.3092 -2.09058 
38.7507 37.7929 -2.09058 36.8495 38.7586 -2.09058 36.8495 37.7929 6.31801 
-51.7734 -34.7399 6.77171 -42.9111 -39.0233 6.77171 -34.0488 -39.9158 6.77171 
-25.1865 -39.489 6.77171 -16.3242 -36.1693 6.77171 -7.46193 -33.9432 6.77171 
1.40036 -35.2941 6.77171 10.2626 -35.6119 6.77171 19.1249 -35.2704 6.77171 
27.9872 -35.8218 6.77171 36.8495 -37.2493 6.77171 45.7118 -38.4206 6.77171 
54.5741 -35.6574 6.77171 -53.7075 -33.1054 6.77171 -60.6357 -25.4869 6.77171 
-51.7734 -33.1054 9.26395 -16.3242 -33.1054 13.8615 -7.46193 -33.1054 9.08241 
1.40036 -33.1054 12.2434 60.3205 -33.1054 6.77171 63.4364 -31.169 6.77171 
-61.4936 -24.2431 6.77171 -60.6357 -24.2431 8.17903 70.3319 -24.2431 6.77171 
72.2987 -16.3453 6.77171 -65.5428 -15.3808 6.77171 -60.6357 -15.3808 14.2911 
72.4643 -15.3808 6.77171 72.2987 -15.3808 7.16393 -67.7634 -6.51849 6.77171 
72.9383 -6.51849 6.77171 72.2987 -3.85252 6.77171 72.2987 -6.51849 8.18149 
-68.0183 2.34379 6.77171 70.5822 2.34379 6.77171 -65.551 11.2061 6.77171 
-60.6357 18.8609 6.77171 -60.6357 11.2061 15.4121 66.1385 11.2061 6.77171 
63.4364 15.5544 6.77171 63.4364 11.2061 11.7301 -59.5291 20.0684 6.77171 
-51.7734 26.7816 6.77171 60.1989 20.0684 6.77171 54.5741 25.7352 6.77171 
-48.4623 28.9307 6.77171 -42.9111 32.2054 6.77171 -34.0488 36.7553 6.77171 
36.8495 37.7391 6.77171 50.6654 28.9307 6.77171 45.7118 32.4612 6.77171 
45.7118 28.9307 13.6387 -31.702 37.7929 6.77171 -25.1865 40.599 6.77171 
-25.1865 37.7929 15.2194 -16.3242 43.3179 6.77171 -7.46193 44.7327 6.77171 
1.40036 45.2805 6.77171 10.2626 45.425 6.77171 19.1249 44.5297 6.77171 
36.7435 37.7929 6.77171 27.9872 41.9431 6.77171 -42.9111 -33.5817 15.634 
-34.0488 -35.768 15.634 -25.1865 -34.7843 15.634 10.2626 -33.4379 15.634 
19.1249 -34.8096 15.634 27.9872 -35.8933 15.634 36.8495 -36.5671 15.634 
45.7118 -36.1516 15.634 54.5741 -33.7802 15.634 -43.8075 -33.1054 15.634 
-51.7734 -27.2401 15.634 -42.9111 -33.1054 16.1278 -34.0488 -33.1054 18.3877 
-19.3195 -33.1054 15.634 -25.1865 -33.1054 17.5191 -16.3242 -32.0626 15.634 
-7.46193 -29.9924 15.634 8.55959 -33.1054 15.634 1.40036 -31.2653 15.634 
10.2626 -33.1054 16.0031 19.1249 -33.1054 17.7514 27.9872 -33.1054 19.923 
36.8495 -33.1054 21.2218 45.7118 -33.1054 20.2447 55.8181 -33.1054 15.634 
54.5741 -33.1054 16.7061 63.4364 -25.9663 15.634 -54.4016 -24.2431 15.634 
-51.7734 -24.2431 17.7341 -42.9111 -24.2431 21.3949 -34.0488 -24.2431 23.9184 
-25.1865 -24.2431 23.2549 -16.3242 -24.2431 21.768 -7.46193 -24.2431 20.5263 
[...]
POINT_DATA 544
SCALARS ImageScalars float
LOOKUP_TABLE default
0 0 0 0 0 0 0 0 0 
0 0 0 0 0 0 0 0 0 
0 0 0 0 0 0 0 0 0 
0 0 0 0 0 0 0 0 0 
0 0 0 0 0 0 0 0 0 
0 0 0 0 0 0 0 0 0 
0 0 0 0 0 0 0 0 0 
0 0 0 0 0 0 0 0 0 
0 0 0 0 0 0 0 0 0 
0 0 0 0 0 0 0 0 0 
0 0 0 0 0 0 0 0 0 
0 0 0 0 0 0 0 0 0 
0 0 0 0 0 0 0 0 0 
0 0 0 0 0 0 0 0 0 
0 0 0 0 0 0 0 0 0 
0 0 0 0 0 0 0 0 0 
0 0 0 0 0 0 0 0 0 
0 0 0 0 0 0 0 0 0 
0 0 0 0 0 0 0 0 0 
0 0 0 0 0 0 0 0 0 
0 0 0 0 0 0 0 0 0 
0 0 0 0 0 0 0 0 0 
0 0 0 0 0 0 0 0 0 
0 0 0 0 0 0 0 0 0 
0 0 0 0 0 0 0 0 0 
0 0 0 0 0 0 0 0 0 
0 0 0 0 0 0 0 0 0 
0 0 0 0 0 0 0 0 0 
0 0 0 0 0 0 0 0 0 
0 0 0 0 0 0 0 0 0 
0 0 0 0 0 0 0 0 0 
0 0 0 0 0 0 0 0 0 
0 0 0 0 0 0 0 0 0 
0 0 0 0 0 0 0 0 0 
0 0 0 0 0 0 0 0 0 
0 0 0 0 0 0 0 0 0 
0 0 0 0 0 0 0 0 0 
0 0 0 0 0 0 0 0 0 
0 0 0 0 0 0 0 0 0 
0 0 0 0 0 0 0 0 0 
0 0 0 0 0 0 0 0 0 
0 0 0 0 0 0 0 0 0 
0 0 0 0 0 0 0 0 0 
0 0 0 0 0 0 0 0 0 
0 0 0 0 0 0 0 0 0 
0 0 0 0 0 0 0 0 0 
0 0 0 0 0 0 0 0 0 
0 0 0 0 0 0 0 0 0 
0 0 0 0 0 0 0 0 0 
0 0 0 0 0 0 0 0 0 
0 0 0 0 0 0 0 0 0 
0 0 0 0 0 0 0 0 0 
0 0 0 0 0 0 0 0 0 
0 0 0 0 0 0 0 0 0 
0 0 0 0 0 0 0 0 0 
0 0 0 0 0 0 0 0 0 
0 0 0 0 0 0 0 0 0 
0 0 0 0 0 0 0 0 0 
0 0 0 0 0 0 0 0 0 
0 0 0 0 0 0 0 0 0 
0 0 0 0 
NORMALS Normals float
-0.0572059 0.0382704 0.997629 0.0166735 0.0272691 0.999489 0.00851264 -0.0484912 0.998787 
0.204695 0.598315 0.774673 -0.0468036 0.565996 0.823078 -0.238385 0.604944 0.759747 
0.389224 0.354544 0.850178 0.14 0.277387 0.950503 -0.0554369 0.0571822 0.996823 
-0.0381605 0.250746 0.967301 -0.19931 0.282322 0.938387 -0.215871 0.381474 0.89882 
-0.0959134 0.537469 0.837811 -0.179247 0.630648 0.755086 0.656507 0.224856 0.720026 
0.29407 0.175068 0.939614 0.0147026 0.0841775 0.996342 0.0762875 0.114516 0.990488 
0.0877552 0.129683 0.987665 -0.0619377 0.0410276 0.997236 -0.0677877 0.0180176 0.997537 
-0.118524 0.0679481 0.990624 -0.0592617 0.165964 0.98435 -0.0558465 0.299834 0.952356 
-0.179828 0.140066 0.973675 -0.339224 0.33759 0.878043 0.0840687 0.197679 0.976655 
0.0561124 0.189709 0.980236 -0.11852 0.192849 0.974044 0.62298 0.0518103 0.78052 
0.123522 0.0380832 0.991611 0.224087 0.0468778 0.973441 -0.0618989 -0.0141955 0.997981 
-0.0938968 -0.0313464 0.995088 -0.0874333 -0.0539387 0.994709 0.031708 -0.0372549 0.998803 
-0.115106 0.033966 0.992772 -0.145279 -0.0877198 0.985494 -0.143378 0.218725 0.965195 
-0.278382 0.213846 0.936362 0.00674947 0.043461 0.999032 0.0518799 0.0174576 0.998501 
-0.0544046 -0.00197666 0.998517 -0.225713 0.036467 0.973511 0.633699 -0.121356 0.764001 
0.0942818 -0.0547379 0.99404 0.235167 -0.0629054 0.969917 -0.0554168 -0.0319176 0.997953 
0.0397259 -0.0978217 0.994411 -0.130902 -0.0115849 0.991328 -0.130043 0.00813792 0.991475 
0.0352089 0.00929137 0.999337 -0.104383 -0.0056052 0.994521 -0.00526242 0.0949921 0.995464 
5.80467e-06 -0.0288123 0.999585 -0.36268 0.015588 0.931784 -0.0916424 0.0235339 0.995514 
0.00694023 -0.0195361 0.999785 -0.105484 -0.0822194 0.991016 0.71287 -0.359476 0.602157 
0.327406 -0.254991 0.909827 0.069173 -0.138944 0.987881 -0.0399442 -0.0265996 0.998848 
-0.0608913 0.0760458 0.995243 0.0175109 0.117716 0.992893 -0.0420195 0.030837 0.998641 
-0.163195 0.082317 0.983154 -0.23701 -0.259629 0.936173 -0.203818 -0.121014 0.971501 
-0.0549482 -0.0138292 0.998393 -0.0528198 -0.0681768 0.996274 -0.173074 -0.147054 0.973869 
0.538114 -0.527835 0.657133 0.258625 -0.309626 0.915011 0.0747262 -0.143378 0.986843 
0.0162696 -0.0571441 0.998233 -0.0114136 -0.0243315 0.999639 -0.128018 -0.140598 0.981755 
-0.297885 -0.204205 0.932504 -0.225779 -0.238 0.944659 -0.0783613 -0.153384 0.985055 
-0.0563874 -0.123413 0.990752 -0.123712 -0.186212 0.97469 0.455743 -0.694399 0.556874 
0.239497 -0.508053 0.827359 0.0721936 -0.344046 0.936173 -0.0690613 -0.30974 0.94831 
-0.209578 -0.347359 0.914012 -0.259698 -0.346064 0.901552 -0.161416 -0.305953 0.938263 
0.221922 -0.786758 0.575989 0.0113419 -0.65137 0.758675 -0.148439 -0.573073 0.805949 
0.211612 0.722146 0.658578 -0.0415192 0.768986 0.637917 -0.234517 0.687952 0.686821 
0.438052 0.650101 0.62087 0.481068 0.623654 0.616141 0.497666 0.668417 0.552763 
-0.287427 0.640455 0.712182 -0.296219 0.601064 0.742278 -0.317001 0.690289 0.650393 
-0.163815 0.626003 0.76242 -0.320206 0.872772 0.368425 -0.21754 0.718024 0.661149 
0.671473 0.427949 0.604965 0.710306 0.365637 0.601477 0.745096 0.449875 0.492386 
-0.290931 0.694919 0.657607 -0.360622 0.609654 0.705885 -0.31957 0.779244 0.539123 
0.0351735 0.788502 0.614026 0.0916145 0.260328 0.961164 0.1752 0.635043 0.752347 
0.0559689 0.317496 0.946606 0.0577252 0.525362 0.848919 -0.104471 0.346797 0.932104 
-0.0873973 0.550146 0.830482 -0.284781 0.501632 0.816863 0.749488 0.230029 0.62077 
-0.144035 0.296162 0.944215 -0.0733161 0.267377 0.960799 -0.147347 0.279401 0.948801 
-0.129779 0.294868 0.946684 -0.229759 0.202644 0.951917 -0.257196 0.10397 0.96075 
-0.292482 0.211481 0.932593 -0.529773 0.243594 0.812405 0.768822 0.0485555 0.637617 
-0.280945 0.0325281 0.959172 -0.267054 -0.0764069 0.960648 -0.559259 -0.0182865 0.828791 
0.766676 -0.129432 0.628852 -0.251554 -0.126358 0.959559 -0.288735 -0.137618 0.947467 
-0.617967 -0.215333 0.75614 0.745088 -0.364176 0.558766 0.731924 -0.400525 0.551241 
-0.201336 -0.159483 0.966452 -0.190926 -0.172344 0.966356 -0.388465 -0.243576 0.888688 
-0.72276 -0.383833 0.57471 0.636026 -0.569276 0.520956 0.585838 -0.649592 0.484587 
-0.0821862 -0.244292 0.966213 -0.0755057 -0.238642 0.968168 -0.150838 -0.201361 0.967833 
-0.133158 -0.214969 0.9675 -0.28785 -0.296236 0.910707 -0.560558 -0.495542 0.663485 
0.499396 -0.733773 0.460631 0.479005 -0.740805 0.470916 0.364008 -0.78769 0.497034 
-0.244218 -0.482003 0.841446 -0.120246 -0.292419 0.9487 -0.157888 -0.341493 0.926528 
-0.0844802 -0.286787 0.954262 -0.099426 -0.359187 0.927954 -0.228989 -0.477127 0.848478 
-0.483654 -0.664254 0.569952 0.259916 -0.808746 0.527611 0.234791 -0.80627 0.542957 
0.0490603 -0.719241 0.693026 -0.191833 -0.562759 0.804054 -0.140191 -0.61425 0.776559 
-0.234481 -0.572836 0.785416 -0.147251 -0.615523 0.774241 -0.138982 -0.672024 0.72737 
-0.234058 -0.771698 0.591353 0.522216 0.825906 0.21253 0.219332 0.951662 0.215017 
0.00188772 0.977368 0.211539 -0.222768 0.954228 0.199559 -0.356786 0.897526 0.259134 
-0.329022 0.899607 0.287146 0.663799 0.716558 0.214278 0.787329 0.581764 0.204119 
-0.337931 0.887356 0.313691 -0.355336 0.863893 0.356966 -0.258439 0.931376 0.256413 
-0.258984 0.879683 0.398854 0.0807924 0.844895 0.528795 0.274736 0.763545 0.584396 
0.207394 0.900942 0.38117 0.12545 0.851763 0.508687 0.125625 0.899276 0.418952 
-0.108555 0.789128 0.604559 -0.0848301 0.857919 0.506733 -0.277875 0.740483 0.611939 
-0.260801 0.905475 0.33481 0.858189 0.469449 0.207675 -0.510381 0.581851 0.633214 
-0.516723 0.576103 0.633327 -0.51715 0.582783 0.626832 0.934406 0.280785 0.219191 
-0.772485 0.202682 0.601819 -0.963937 0.154264 0.21686 0.969571 0.0611804 0.237043 
0.996765 0.076579 -0.0243911 -0.814587 -0.0470372 0.57813 -0.963548 -0.053193 0.262195 
0.956451 -0.156632 0.24631 -0.780242 -0.232171 0.580792 0.871634 -0.431134 0.23319 
0.763773 -0.609576 0.212294 -0.743475 -0.387792 0.54485 -0.733187 -0.407128 0.544686 
0.725696 -0.65942 0.196292 0.596918 -0.792663 0.123994 -0.656966 -0.548502 0.517244 
-0.60913 -0.614542 0.501297 0.559787 -0.823098 0.0956519 0.529381 -0.84559 0.0688034 
0.437167 -0.894506 0.0935082 -0.361169 -0.796639 0.484689 -0.53706 -0.703098 0.466069 
-0.506597 -0.728596 0.460986 0.434304 -0.89577 0.0947431 0.37609 -0.914301 0.150368 
0.202163 -0.950209 0.237134 -0.0146093 -0.944485 0.328229 -0.168534 -0.860948 0.479963 
-0.156098 -0.809385 0.566153 -0.171627 -0.818407 0.54841 -0.297732 -0.816797 0.494164 
-0.244289 -0.81922 0.518847 -0.406511 -0.887361 0.217573 0.527348 0.843008 -0.106028 
0.223456 0.969101 -0.10445 -0.0638305 0.99426 -0.0858698 -0.228247 0.969951 -0.0842561 
-0.299269 0.951204 -0.0751545 -0.221148 0.975227 -0.00502802 -0.190615 0.959076 0.209376 
0.186449 0.917783 0.350587 0.121895 0.950859 0.284619 -0.0306079 0.933361 0.357631 
-0.24882 0.928697 0.274973 0.687995 0.717841 -0.106618 0.790205 0.604531 -0.100588 
-0.195534 0.933271 0.301285 -0.170691 0.853626 0.492124 -0.0943433 0.933573 0.345748 
0.175131 0.904843 0.388058 0.138686 0.861095 0.489164 0.0793993 0.929157 0.361059 
-0.342415 0.896472 0.281231 -0.600532 0.747979 0.282645 0.86891 0.48483 -0.0996746 
-0.808519 0.537383 0.239824 -0.958723 0.206717 0.19524 0.948592 0.305273 -0.0835575 
0.994794 0.0873463 -0.0524895 -0.971092 0.151067 0.184824 0.99564 0.0778339 -0.0514183 
0.999122 0.00250302 -0.041827 0.994865 0.0795966 -0.0625158 -0.987223 -0.0610375 0.147191 
-0.970839 -0.196452 0.137396 0.989862 -0.140058 -0.0236084 -0.947637 -0.292531 0.128099 
0.895332 -0.445153 -0.0147876 0.765145 -0.643572 0.0191852 -0.872955 -0.479314 0.0905934 
-0.799982 -0.595653 0.0722981 0.750704 -0.660354 0.0194074 0.539089 -0.841728 0.0296232 
-0.771375 -0.632487 0.0702927 -0.657377 -0.750632 0.0663859 0.497895 -0.867218 0.00575644 
0.476595 -0.878625 -0.0295863 0.459596 -0.887142 -0.0418466 -0.628894 -0.774805 0.0645745 
-0.53251 -0.844166 0.0617757 0.452033 -0.890931 -0.0436791 0.435167 -0.898559 -0.0567531 
0.281703 -0.956641 -0.0740432 0.0742962 -0.995934 -0.0509418 -0.0463979 -0.998278 0.035897 
-0.11649 -0.984494 0.131158 -0.189235 -0.968168 0.163831 -0.298108 -0.944955 0.134876 
-0.444531 -0.892967 0.0707194 -0.420979 -0.903905 0.0757135 -0.452315 -0.86335 -0.223693 
0.537503 0.747689 -0.389939 0.24061 0.89507 -0.375441 0.0209432 0.94907 -0.314369 
-0.201836 0.94004 -0.27493 -0.291458 0.913315 -0.284444 -0.0508164 0.972408 -0.227684 
0.096465 0.990943 -0.0934151 -0.00364966 0.995025 0.099559 0.0124797 0.980655 0.195345 
0.116907 0.986018 0.11875 0.142719 0.985418 0.0926462 -0.0855551 0.996274 0.0108716 
-0.336873 0.941387 -0.0175382 0.585643 0.70811 -0.394464 0.769253 0.506417 -0.389603 
0.543115 0.694124 -0.472459 -0.230173 0.824414 -0.517071 -0.0474961 0.948875 -0.312058 
0.141462 0.897224 -0.418302 -0.513639 0.854854 -0.0734861 -0.64136 0.756243 -0.129437 
0.788383 0.475998 -0.389714 0.767067 0.474993 -0.431265 -0.858527 0.488268 -0.156606 
-0.963675 0.153465 -0.218582 0.868282 0.321027 -0.378191 0.707002 0.301314 -0.639811 
-0.967384 0.115204 -0.225602 -0.963866 0.112165 -0.241624 0.932368 0.118117 -0.341669 
-0.96322 -0.0957869 -0.251063 -0.951244 -0.165434 -0.260318 -0.946533 -0.0997224 -0.306806 
0.945211 -0.124835 -0.301649 -0.905489 -0.318761 -0.280144 0.879375 -0.393307 -0.268346 
0.765526 -0.606177 -0.215683 0.693846 -0.327335 -0.641428 -0.83248 -0.477685 -0.280703 
-0.794492 -0.535102 -0.287137 -0.777592 -0.444302 -0.444912 0.737425 -0.644163 -0.20312 
0.581167 -0.7985 -0.156982 -0.735336 -0.617592 -0.279034 -0.645392 -0.715569 -0.267265 
0.535401 -0.83596 -0.120486 0.478511 -0.873564 -0.0889516 0.419751 -0.89774 -0.133689 
-0.452873 -0.858792 -0.239545 -0.592083 -0.761917 -0.262526 -0.540017 -0.800848 -0.25889 
-0.505734 -0.725581 -0.466653 0.39964 -0.905552 -0.142352 0.341612 -0.921017 -0.18716 
0.251651 -0.827163 -0.502467 0.216955 -0.93377 -0.284611 0.104709 -0.94322 -0.315233 
0.0372769 -0.964395 -0.261825 -0.0411348 -0.980641 -0.191446 -0.185267 -0.966872 -0.175599 
-0.451759 -0.859537 -0.238977 -0.349331 -0.914194 -0.20547 0.315131 0.688771 -0.652906 
0.0490312 0.785167 -0.61734 -0.174282 0.7642 -0.620987 0.172425 0.808518 -0.562644 
0.134877 0.901777 -0.410617 0.103075 0.951255 -0.290672 0.0142301 0.952528 -0.304119 
-0.15047 0.900656 -0.407649 -0.388174 0.827687 -0.405285 0.340184 0.673622 -0.656132 
0.526087 0.500901 -0.687263 0.317599 0.671329 -0.669663 0.0588177 0.674185 -0.736216 
-0.19993 0.776908 -0.597028 -0.161353 0.708317 -0.687207 -0.207723 0.771703 -0.601103 
-0.0360622 0.778463 -0.626654 0.173309 0.799616 -0.574959 0.141903 0.74873 -0.647508 
0.174981 0.793326 -0.583108 0.166782 0.818285 -0.550085 0.151538 0.795361 -0.586887 
0.0118771 0.766737 -0.641852 -0.157788 0.765439 -0.623864 -0.432479 0.795993 -0.423506 
-0.398763 0.794823 -0.457433 -0.642694 0.476935 -0.599564 0.582523 0.439666 -0.683638 
0.50783 0.429691 -0.746642 0.28414 0.347181 -0.893717 0.0944596 0.320416 -0.942556 
-0.105943 0.328151 -0.938666 -0.141427 0.420816 -0.896054 -0.0502507 0.521659 -0.851673 
0.0579048 0.511741 -0.857186 0.148683 0.411387 -0.899252 0.221222 0.332608 -0.916751 
-0.408906 0.294714 -0.863678 -0.677048 0.417626 -0.605966 -0.628957 0.409631 -0.660769 
0.65463 0.291886 -0.697325 0.679477 0.234788 -0.695116 0.427155 0.207779 -0.879981 
0.216854 0.163993 -0.962331 -0.0479649 0.187255 -0.98114 0.0825566 0.262777 -0.961318 
-0.769424 0.0809506 -0.633588 -0.647943 0.117313 -0.752601 0.703138 0.141927 -0.696745 
0.654476 0.138817 -0.74323 0.368843 0.0799875 -0.926044 0.162186 0.0417852 -0.985875 
-0.769884 -0.104393 -0.629588 -0.655215 -0.0840588 -0.750751 0.736992 -0.0750573 -0.671721 
0.690081 -0.309428 -0.65425 0.65171 -0.0640927 -0.755756 0.350502 0.0351155 -0.935903 
-0.424235 -0.181303 -0.887217 -0.742279 -0.26146 -0.616977 -0.727912 -0.326104 -0.603159 
-0.699285 -0.255379 -0.667669 0.685985 -0.32432 -0.651338 0.434212 -0.186286 -0.881339 
-0.69884 -0.410889 -0.585486 -0.532035 -0.334367 -0.777906 0.630633 -0.540246 -0.557168 
0.585957 -0.600651 -0.543943 0.545642 -0.527929 -0.650819 0.279396 -0.368769 -0.886537 
0.0905601 -0.210331 -0.973427 0.0106004 -0.148638 -0.988835 0.0191398 -0.129266 -0.991425 
-0.486373 -0.685385 -0.541931 -0.388854 -0.477402 -0.78796 -0.615232 -0.569585 -0.545034 
-0.613701 -0.571433 -0.544827 -0.612924 -0.568981 -0.548257 0.495651 -0.737531 -0.45867 
0.47103 -0.759663 -0.448378 0.461413 -0.714329 -0.526148 0.352666 -0.792847 -0.497012 
0.240941 -0.562901 -0.790626 0.244833 -0.816188 -0.52335 0.0916202 -0.402488 -0.910829 
0.0696166 -0.310236 -0.948107 0.0931803 -0.28786 -0.953129 0.0286204 -0.277761 -0.960224 
-0.0386087 -0.228819 -0.972703 -0.0967452 -0.282118 -0.954489 -0.176072 -0.445409 -0.877844 
-0.464647 -0.696914 -0.546273 -0.398372 -0.717213 -0.571756 -0.313262 -0.616251 -0.722566 
0.23539 -0.815939 -0.528048 0.135442 -0.783909 -0.605922 0.121102 -0.727506 -0.67533 
0.0982467 -0.773609 -0.626001 0.090711 -0.686664 -0.721293 0.0843326 -0.795448 -0.600126 
0.0788866 -0.662919 -0.744524 -0.0295348 -0.808635 -0.587569 -0.0315096 -0.620207 -0.783805 
-0.198754 -0.769021 -0.607539 -0.183454 -0.651773 -0.735892 -0.332331 -0.741045 -0.583446 
-0.3271 -0.742321 -0.584777 -0.32513 -0.735384 -0.594559 0.155585 0.416325 -0.895805 
0.0109182 0.449531 -0.893198 -0.148086 0.442168 -0.884623 0.0776099 0.213687 -0.973815 
-0.0859729 0.140953 -0.986276 0.0397555 0.340105 -0.939547 -0.0156124 0.272511 -0.962026 
0.1893 0.314474 -0.9302 0.185336 0.191355 -0.963864 0.141636 0.308743 -0.940541 
0.0222347 0.272151 -0.961998 -0.311606 0.290889 -0.904591 -0.146441 0.312648 -0.938513 
-0.389852 0.129147 -0.911777 0.136654 0.114867 -0.983937 0.049075 0.0682196 -0.996463 
-0.0709126 0.121419 -0.990065 -0.0806778 0.0968375 -0.992025 -0.0130098 0.172111 -0.984992 
0.0664876 0.278452 -0.958146 0.0782138 0.227273 -0.970685 0.037628 0.302481 -0.952412 
-0.0185489 0.270566 -0.962523 0.162556 0.115932 -0.979865 0.136207 0.0712541 -0.988115 
0.0120555 0.0826995 -0.996502 -0.151957 0.0716202 -0.985789 -0.396136 0.0960131 -0.913158 
-0.386447 0.0951047 -0.917395 0.142767 0.0356115 -0.989116 0.154718 0.0384548 -0.98721 
0.0400671 0.00669372 -0.999175 0.02042 0.0334314 -0.999232 0.0343486 0.15842 -0.986774 
0.0592696 0.158342 -0.985604 0.0573932 0.00110225 -0.998351 -0.0466081 0.10308 -0.99358 
0.0203362 0.0695153 -0.997374 0.119956 -0.00881861 -0.99274 0.0288785 0.00885341 -0.999544 
-0.127508 -0.0394411 -0.991053 -0.412328 -0.0426146 -0.910038 -0.402461 -0.136336 -0.905228 
-0.354355 -0.0348742 -0.934461 0.15868 0.0373178 -0.986625 0.145209 0.0347744 -0.98879 
0.0406657 -0.0106175 -0.999116 0.0667314 -0.0123215 -0.997695 0.0796893 -0.0333501 -0.996262 
-0.064986 -0.0138266 -0.99779 -0.0153614 -0.0770553 -0.996908 0.048804 -0.0913509 -0.994622 
0.0433641 0.00460247 -0.999049 0.0841087 -0.00464988 -0.996446 -0.0188229 -0.0480778 -0.998666 
-0.386731 -0.167614 -0.906832 -0.196319 -0.100811 -0.975344 0.189893 -0.12385 -0.973962 
0.129932 -0.159342 -0.978636 0.0983412 -0.104293 -0.989673 0.031177 -0.127963 -0.991289 
-0.00674298 -0.0746267 -0.997189 0.00470608 -0.112608 -0.993628 -0.00155982 -0.0655944 -0.997845 
0.0255863 -0.131337 -0.991008 0.0326312 -0.135339 -0.990262 0.0148518 -0.123199 -0.992271 
-0.0209534 -0.00302007 -0.999776 0.0362055 -0.108316 -0.993457 0.107046 -0.0870099 -0.99044 
0.0664187 -0.105408 -0.992209 -0.0672255 -0.143752 -0.987328 -0.345716 -0.260694 -0.901399 
-0.303137 -0.316976 -0.898685 -0.262201 -0.230764 -0.937016 0.0645768 -0.115828 -0.991168 
0.0720901 -0.121956 -0.989914 0.0708866 -0.114106 -0.990936 0.0231768 -0.232839 -0.972239 
-0.00064029 -0.0502522 -0.998736 -0.03443 -0.0769684 -0.996439 -0.0341188 -0.0643837 -0.997342 
0.0118322 -0.155923 -0.987698 0.0426065 -0.122817 -0.991514 -0.0290042 -0.301629 -0.952984 
0.0186868 -0.257881 -0.965996 -0.200378 -0.372163 -0.90628 -0.16841 -0.378272 -0.910246 
-0.15266 -0.34633 -0.925608 
