# vtk DataFile Version 4.2
vtk output
ASCII
DATASET POLYDATA
POINTS 596 float
-36.4578 25.9411 -21.0746 -28.4344 -30.2227 -13.4848 -60.528 -22.1993 -13.0235 
-52.5046 -22.1993 -15.1608 -44.4812 -22.1993 -16.6993 -36.4578 -22.1993 -17.1464 
-28.4344 -22.1993 -16.3518 -20.411 -22.1993 -15.8713 -12.3876 -22.1993 -15.3759 
-4.36418 -22.1993 -14.9397 3.65923 -22.1993 -14.052 11.6826 -22.1993 -14.3872 
19.706 -22.1993 -13.9889 27.7295 -22.1993 -13.3172 35.7529 -22.1993 -13.3006 
-60.528 -14.1759 -14.4773 -52.5046 -14.1759 -17.3721 -44.4812 -14.1759 -18.4168 
-36.4578 -14.1759 -18.3726 -28.4344 -14.1759 -17.8812 -20.411 -14.1759 -17.3499 
-12.3876 -14.1759 -17.5003 -4.36418 -14.1759 -19.4375 3.65923 -14.1759 -17.127 
11.6826 -14.1759 -16.8498 19.706 -14.1759 -16.0858 27.7295 -14.1759 -15.4506 
35.7529 -14.1759 -15.3359 43.7763 -14.1759 -15.1547 51.7997 -14.1759 -13.7057 
-68.5514 -6.15248 -13.1471 -60.528 -6.15248 -15.876 -52.5046 -6.15248 -17.5798 
-44.4812 -6.15248 -19.4826 -36.4578 -6.15248 -18.9578 -28.4344 -6.15248 -18.6218 
-20.411 -6.15248 -17.9153 -12.3876 -6.15248 -19.4576 -4.36418 -6.15248 -19.6423 
3.65923 -6.15248 -17.9609 11.6826 -6.15248 -20.1065 19.706 -6.15248 -18.0663 
27.7295 -6.15248 -17.0913 35.7529 -6.15248 -17.1167 43.7763 -6.15248 -17.0532 
51.7997 -6.15248 -16.3715 59.8231 -6.15248 -14.9356 -68.5514 1.87093 -14.0834 
-60.528 1.87093 -17.0528 -52.5046 1.87093 -18.117 -44.4812 1.87093 -19.0068 
-36.4578 1.87093 -19.3031 -28.4344 1.87093 -18.6103 -20.411 1.87093 -17.99 
-12.3876 1.87093 -20.2362 -4.36418 1.87093 -19.1097 3.65923 1.87093 -19.4032 
11.6826 1.87093 -20.0896 19.706 1.87093 -18.2153 27.7295 1.87093 -18.5196 
35.7529 1.87093 -18.8892 43.7763 1.87093 -18.8741 51.7997 1.87093 -17.5953 
59.8231 1.87093 -15.7755 67.8465 1.87093 -13.6938 -60.528 9.89433 -16.1131 
-52.5046 9.89433 -17.9131 -44.4812 9.89433 -19.6651 -36.4578 9.89433 -19.8482 
-28.4344 9.89433 -19.1866 -20.411 9.89433 -18.5952 -12.3876 9.89433 -18.3983 
-4.36418 9.89433 -20.168 3.65923 9.89433 -20.6618 11.6826 9.89433 -18.5322 
19.706 9.89433 -18.7338 27.7295 9.89433 -19.7334 35.7529 9.89433 -19.9967 
43.7763 9.89433 -19.3867 51.7997 9.89433 -18.3929 59.8231 9.89433 -17.201 
67.8465 9.89433 -14.8578 -60.528 17.9177 -14.9281 -52.5046 17.9177 -18.0903 
-44.4812 17.9177 -19.6908 -36.4578 25.3977 -21.0214 -36.4578 17.9177 -20.0879 
-28.4344 17.9177 -19.611 -20.411 17.9177 -18.9372 -12.3876 17.9177 -18.749 
-4.36418 17.9177 -19.9795 3.65923 17.9177 -20.2228 11.6826 17.9177 -19.5715 
19.706 17.9177 -19.8455 27.7295 17.9177 -20.2521 35.7529 17.9177 -20.2208 
43.7763 17.9177 -20.3109 51.7997 17.9177 -18.4751 59.8231 17.9177 -15.0284 
-60.528 25.9411 -14.1071 -52.5046 25.9411 -17.3819 -36.6555 25.9411 -21.0214 
-44.4812 25.9411 -18.0536 -36.1297 25.9411 -21.0214 -36.4578 26.0613 -21.0214 
-28.4344 25.9411 -19.3798 -20.411 25.9411 -18.8478 -12.3876 25.9411 -19.7116 
-4.36418 25.9411 -20.1154 3.65923 25.9411 -20.1396 11.6826 25.9411 -19.7149 
19.706 25.9411 -19.8163 27.7295 25.9411 -20.3606 35.7529 25.9411 -18.9093 
43.7763 25.9411 -18.3777 51.7997 25.9411 -15.8614 -44.4812 33.9646 -14.3418 
-36.4578 33.9646 -16.1324 -28.4344 33.9646 -16.6348 -20.411 33.9646 -16.6969 
-12.3876 33.9646 -18.0774 -4.36418 33.9646 -17.8518 3.65923 33.9646 -17.1806 
11.6826 33.9646 -16.7007 19.706 33.9646 -16.0766 27.7295 33.9646 -15.9373 
35.7529 33.9646 -13.6021 -28.4344 -30.8144 -12.998 -60.528 -22.2386 -12.998 
-52.5046 -26.2349 -12.998 -52.5046 -30.2227 -9.3443 -44.4812 -29.1744 -12.998 
-44.4812 -30.2227 -12.1464 -36.0352 -30.2227 -12.998 -36.4578 -30.1705 -12.998 
-36.4578 -30.2227 -12.9635 -24.2816 -30.2227 -12.998 -20.411 -29.2115 -12.998 
-20.411 -30.2227 -12.4798 -12.3876 -28.129 -12.998 -12.3876 -30.2227 -11.9935 
-4.36418 -26.4982 -12.998 -4.36418 -30.2227 -11.049 3.65923 -25.0226 -12.998 
3.65923 -30.2227 -10.6719 11.6826 -25.7181 -12.998 11.6826 -30.2227 -10.9108 
19.706 -24.7966 -12.998 19.706 -30.2227 -10.6219 27.7295 -23.0167 -12.998 
27.7295 -30.2227 -9.91792 35.7529 -22.8065 -12.998 35.7529 -30.2227 -8.55326 
43.7763 -30.2227 -6.70989 51.7997 -30.2227 -5.66066 -60.5685 -22.1993 -12.998 
37.5839 -22.1993 -12.998 43.7763 -19.6471 -12.998 43.7763 -22.1993 -11.9461 
51.7997 -16.8074 -12.998 51.7997 -22.1993 -11.1184 59.8231 -22.1993 -8.26588 
-64.0809 -14.1759 -12.998 -68.5514 -6.90862 -12.998 -68.5514 -14.1759 -10.9909 
59.0662 -14.1759 -12.998 59.8231 -13.8897 -12.998 59.8231 -14.1759 -12.9034 
67.8465 -14.1759 -8.21996 -68.749 -6.15248 -12.998 66.6809 -6.15248 -12.998 
67.8465 -3.7976 -12.998 67.8465 -6.15248 -12.5515 75.8699 -6.15248 -6.3364 
-70.0835 1.87093 -12.998 -76.5748 1.87093 -5.34643 -68.5514 8.74807 -12.998 
68.8726 1.87093 -12.998 75.8699 1.87093 -6.9705 -67.9635 9.89433 -12.998 
-68.5514 9.89433 -12.6507 70.8928 9.89433 -12.998 67.8465 14.5714 -12.998 
75.8699 9.89433 -7.777 -64.3027 17.9177 -12.998 -68.5514 17.9177 -10.0067 
64.1347 17.9177 -12.998 59.8231 23.7292 -12.998 67.8465 17.9177 -10.367 
-61.9989 25.9411 -12.998 -60.528 27.4957 -12.998 -52.5046 30.9536 -12.998 
43.7763 32.2242 -12.998 57.9313 25.9411 -12.998 51.7997 29.1925 -12.998 
59.8231 25.9411 -11.541 -46.8506 33.9646 -12.998 -52.5046 33.9646 -7.77795 
-44.4812 34.9234 -12.998 -36.4578 37.0404 -12.998 -28.4344 37.3833 -12.998 
-20.411 37.9821 -12.998 -12.3876 38.6079 -12.998 -4.36418 38.5692 -12.998 
3.65923 37.7045 -12.998 11.6826 36.809 -12.998 19.706 36.4062 -12.998 
27.7295 36.061 -12.998 37.58 33.9646 -12.998 35.7529 34.4242 -12.998 
43.7763 33.9646 -6.57582 -52.5046 -32.8997 -4.9746 -44.4812 -35.275 -4.9746 
-36.4578 -37.0219 -4.9746 -28.4344 -36.8362 -4.9746 -20.411 -36.8629 -4.9746 
-12.3876 -36.4837 -4.9746 -4.36418 -35.8704 -4.9746 3.65923 -35.6839 -4.9746 
11.6826 -36.0809 -4.9746 19.706 -36.1687 -4.9746 19.706 -38.2461 2.10713 
27.7295 -35.7805 -4.9746 35.7529 -34.4076 -4.9746 43.7763 -31.9344 -4.9746 
51.7997 -30.8767 -4.9746 -58.373 -30.2227 -4.9746 -60.528 -29.0731 -4.9746 
53.0604 -30.2227 -4.9746 59.8231 -26.1701 -4.9746 59.8231 -30.2227 2.73223 
-68.4327 -22.1993 -4.9746 -68.5514 -22.0799 -4.9746 -68.5514 -22.1993 -4.46029 
65.6127 -22.1993 -4.9746 67.8465 -19.931 -4.9746 67.8465 -22.1993 -2.22452 
-73.9582 -14.1759 -4.9746 71.7789 -14.1759 -4.9746 75.8699 -8.44538 -4.9746 
-75.3764 -6.15248 -4.9746 -76.5748 0.000286915 -4.9746 -76.5748 -6.15248 0.734007 
77.1602 -6.15248 -4.9746 -76.8372 1.87093 -4.9746 -76.5748 2.91115 -4.9746 
77.6007 1.87093 -4.9746 -74.3859 9.89433 -4.9746 78.0646 9.89433 -4.9746 
75.8699 13.5482 -4.9746 -72.1011 17.9177 -4.9746 -68.5514 22.5709 -4.9746 
72.5244 17.9177 -4.9746 67.8465 23.6517 -4.9746 -65.8908 25.9411 -4.9746 
-60.528 30.6281 -4.9746 51.7997 32.1351 -4.9746 65.5107 25.9411 -4.9746 
59.8231 29.4636 -4.9746 -54.4914 33.9646 -4.9746 -52.5046 35.0004 -4.9746 
-52.5046 33.9646 -2.26529 -44.4812 37.1512 -4.9746 -44.4812 33.9646 2.2559 
-36.4578 38.9894 -4.9746 -28.4344 39.4807 -4.9746 -20.411 39.2245 -4.9746 
-12.3876 38.9637 -4.9746 -4.36418 38.3756 -4.9746 -4.36418 33.9646 2.88563 
3.65923 37.3879 -4.9746 3.65923 33.9646 1.2744 11.6826 36.643 -4.9746 
11.6826 33.9646 -0.0718708 19.706 36.2459 -4.9746 19.706 33.9646 -0.826251 
27.7295 35.9814 -4.9746 27.7295 33.9646 -0.573886 35.7529 35.7744 -4.9746 
35.7529 33.9646 -1.32236 45.0956 33.9646 -4.9746 43.7763 34.3246 -4.9746 
43.7763 33.9646 -3.76818 19.706 -38.4601 3.04881 -52.5046 -34.2408 3.04881 
-44.4812 -35.805 3.04881 -36.4578 -37.4501 3.04881 -28.4344 -37.3153 3.04881 
-20.411 -37.2889 3.04881 -12.3876 -37.2172 3.04881 -4.36418 -37.2503 3.04881 
3.65923 -37.4842 3.04881 16.4728 -38.2461 3.04881 11.6826 -37.9272 3.04881 
24.3743 -38.2461 3.04881 19.706 -38.2461 3.71777 27.7295 -38.0923 3.04881 
35.7529 -37.8732 3.04881 43.7763 -36.8746 3.04881 51.7997 -34.2751 3.04881 
59.8231 -30.3814 3.04881 -68.5514 -23.7407 3.04881 -60.3847 -30.2227 3.04881 
-60.528 -30.1497 3.04881 60.0497 -30.2227 3.04881 59.8231 -30.2227 3.8307 
67.8465 -24.9193 3.04881 -69.8842 -22.1993 3.04881 -68.5514 -22.1993 5.45836 
70.6953 -22.1993 3.04881 67.8465 -22.1993 9.69876 -75.4238 -14.1759 3.04881 
-76.5748 -8.09797 3.04881 75.7277 -14.1759 3.04881 75.8699 -13.8917 3.04881 
-76.9142 -6.15248 3.04881 -76.5748 -6.15248 3.80495 79.2632 -6.15248 3.04881 
75.8699 -6.15248 10.7552 -77.4671 1.87093 3.04881 -76.5748 5.08568 3.04881 
-76.5748 1.87093 4.69088 79.8078 1.87093 3.04881 75.8699 1.87093 10.5875 
-75.2402 9.89433 3.04881 78.5681 9.89433 3.04881 75.8699 14.6391 3.04881 
75.8699 9.89433 8.07532 -70.926 17.9177 3.04881 -68.5514 20.7653 3.04881 
-68.5514 17.9177 5.72882 74.0054 17.9177 3.04881 67.8465 23.8016 3.04881 
67.8465 17.9177 10.6921 -63.1616 25.9411 3.04881 -60.528 27.7687 3.04881 
-60.528 25.9411 5.72188 -52.5046 31.736 3.04881 -52.5046 25.9411 9.19283 
-44.4812 33.5298 3.04881 -44.4812 25.9411 10.3254 -36.4578 25.9411 10.4334 
-28.4344 25.9411 10.5872 -20.411 25.9411 10.2216 -12.3876 25.9411 10.1615 
-4.36418 33.8416 3.04881 -4.36418 25.9411 9.80083 3.65923 32.7097 3.04881 
3.65923 25.9411 8.82005 11.6826 31.8583 3.04881 11.6826 25.9411 8.46623 
19.706 31.376 3.04881 19.706 25.9411 8.37143 27.7295 31.784 3.04881 
27.7295 25.9411 9.02598 35.7529 31.6468 3.04881 35.7529 25.9411 10.3956 
43.7763 31.8438 3.04881 51.7997 30.0434 3.04881 63.7489 25.9411 3.04881 
59.8231 28.1202 3.04881 59.8231 25.9411 6.17259 -42.4102 33.9646 3.04881 
-36.4578 35.0703 3.04881 -36.4578 33.9646 4.31162 -28.4344 34.8828 3.04881 
-28.4344 33.9646 4.09087 -20.411 34.9017 3.04881 -20.411 33.9646 3.93691 
-5.34981 33.9646 3.04881 -12.3876 34.7453 3.04881 -12.3876 33.9646 3.85063 
-52.5046 -30.5654 11.0722 -44.4812 -32.8182 11.0722 -36.4578 -33.5922 11.0722 
-28.4344 -33.6936 11.0722 -20.411 -33.2744 11.0722 -12.3876 -32.8689 11.0722 
-4.36418 -33.4391 11.0722 3.65923 -34.3278 11.0722 11.6826 -34.8201 11.0722 
19.706 -35.1515 11.0722 27.7295 -35.6238 11.0722 35.7529 -35.7761 11.0722 
43.7763 -34.4058 11.0722 51.7997 -32.6726 11.0722 -53.0979 -30.2227 11.0722 
[...]
POINT_DATA 596
SCALARS ImageScalars float
LOOKUP_TABLE default
0 0 0 0 0 0 0 0 0 
0 0 0 0 0 0 0 0 0 
0 0 0 0 0 0 0 0 0 
0 0 0 0 0 0 0 0 0 
0 0 0 0 0 0 0 0 0 
0 0 0 0 0 0 0 0 0 
0 0 0 0 0 0 0 0 0 
0 0 0 0 0 0 0 0 0 
0 0 0 0 0 0 0 0 0 
0 0 0 0 0 0 0 0 0 
0 0 0 0 0 0 0 0 0 
0 0 0 0 0 0 0 0 0 
0 0 0 0 0 0 0 0 0 
0 0 0 0 0 0 0 0 0 
0 0 0 0 0 0 0 0 0 
0 0 0 0 0 0 0 0 0 
0 0 0 0 0 0 0 0 0 
0 0 0 0 0 0 0 0 0 
0 0 0 0 0 0 0 0 0 
0 0 0 0 0 0 0 0 0 
0 0 0 0 0 0 0 0 0 
0 0 0 0 0 0 0 0 0 
0 0 0 0 0 0 0 0 0 
0 0 0 0 0 0 0 0 0 
0 0 0 0 0 0 0 0 0 
0 0 0 0 0 0 0 0 0 
0 0 0 0 0 0 0 0 0 
0 0 0 0 0 0 0 0 0 
0 0 0 0 0 0 0 0 0 
0 0 0 0 0 0 0 0 0 
0 0 0 0 0 0 0 0 0 
0 0 0 0 0 0 0 0 0 
0 0 0 0 0 0 0 0 0 
0 0 0 0 0 0 0 0 0 
0 0 0 0 0 0 0 0 0 
0 0 0 0 0 0 0 0 0 
0 0 0 0 0 0 0 0 0 
0 0 0 0 0 0 0 0 0 
0 0 0 0 0 0 0 0 0 
0 0 0 0 0 0 0 0 0 
0 0 0 0 0 0 0 0 0 
0 0 0 0 0 0 0 0 0 
0 0 0 0 0 0 0 0 0 
0 0 0 0 0 0 0 0 0 
0 0 0 0 0 0 0 0 0 
0 0 0 0 0 0 0 0 0 
0 0 0 0 0 0 0 0 0 
0 0 0 0 0 0 0 0 0 
0 0 0 0 0 0 0 0 0 
0 0 0 0 0 0 0 0 0 
0 0 0 0 0 0 0 0 0 
0 0 0 0 0 0 0 0 0 
0 0 0 0 0 0 0 0 0 
0 0 0 0 0 0 0 0 0 
0 0 0 0 0 0 0 0 0 
0 0 0 0 0 0 0 0 0 
0 0 0 0 0 0 0 0 0 
0 0 0 0 0 0 0 0 0 
0 0 0 0 0 0 0 0 0 
0 0 0 0 0 0 0 0 0 
0 0 0 0 0 0 0 0 0 
0 0 0 0 0 0 0 0 0 
0 0 0 0 0 0 0 0 0 
0 0 0 0 0 0 0 0 0 
0 0 0 0 0 0 0 0 0 
0 0 0 0 0 0 0 0 0 
0 0 
NORMALS Normals float
0.0632758 -0.204167 0.976889 -0.0290096 0.555343 0.831115 0.434846 0.409343 0.802089 
0.248457 0.399655 0.882352 0.103714 0.319835 0.94178 -0.0187741 0.272686 0.96192 
-0.0757366 0.260161 0.96259 -0.0564451 0.268408 0.96165 -0.0560844 0.311227 0.948679 
-0.0777646 0.433514 0.897785 -0.0306143 0.338498 0.940469 -0.00321209 0.325438 0.945558 
-0.0626042 0.298538 0.952342 -0.039189 0.302906 0.952214 -0.0819815 0.367418 0.926436 
0.400879 0.177951 0.898682 0.205131 0.122614 0.971024 0.0704146 0.180912 0.980975 
-0.033036 0.106171 0.993799 -0.0648434 0.135564 0.988644 -0.0233032 0.12443 0.991955 
0.113846 0.241882 0.963604 -0.0100665 0.292794 0.956122 -0.145679 0.251571 0.956812 
-0.0607256 0.339616 0.938602 -0.0847343 0.244509 0.965938 -0.044479 0.225959 0.973121 
-0.0189514 0.241446 0.970229 -0.090541 0.291327 0.952329 -0.151198 0.305783 0.940019 
0.545814 0.170333 0.820411 0.307973 0.143064 0.940577 0.202486 0.0455083 0.978227 
0.0844885 0.0344194 0.99583 -0.0524336 0.0575797 0.996963 -0.0648941 0.0450374 0.996875 
0.0435615 0.0414965 0.998189 0.111698 0.167267 0.979564 -0.0998241 -0.0196405 0.994811 
0.0367962 0.124313 0.991561 0.010099 0.193522 0.981044 -0.184702 0.129703 0.974198 
-0.0558533 0.187082 0.980755 -0.00220259 0.213897 0.976854 -0.0470838 0.238257 0.97006 
-0.123792 0.225167 0.966424 -0.237236 0.187554 0.953175 0.508473 -0.020983 0.860822 
0.313125 0.0175253 0.94955 0.113205 0.0207305 0.993355 0.0709507 0.0176854 0.997323 
-0.0246551 0.0553616 0.998162 -0.0815013 0.0350637 0.996056 0.0813173 0.0421983 0.995795 
0.0854579 -0.0753554 0.993488 -0.0493208 0.0401021 0.997978 0.0621586 0.1847 0.980827 
-0.0811931 -0.100901 0.991578 -0.0912609 0.039713 0.995035 0.0411383 0.163509 0.985684 
0.0218616 0.176567 0.984046 -0.0789385 0.139816 0.987026 -0.180134 0.121892 0.976061 
-0.255931 0.128843 0.95807 -0.459901 0.144363 0.876157 0.362649 -0.117824 0.924447 
0.212786 0.000242387 0.977099 0.109653 0.0399504 0.993167 -0.0282136 0.0486163 0.998419 
-0.0776876 0.0620645 0.995044 -0.0493614 0.0593462 0.997016 0.0973475 -0.0773695 0.992239 
0.142567 0.0458818 0.988721 -0.101659 0.0391418 0.994049 -0.122465 -0.0260315 0.992131 
0.076583 0.103326 0.991695 0.0740782 0.10652 0.991547 -0.021478 0.0817949 0.996418 
-0.0967535 0.0836112 0.99179 -0.128267 0.0554551 0.990188 -0.265477 -0.0378789 0.963373 
-0.413849 -0.125132 0.901704 0.435203 -0.130189 0.89087 0.237135 -0.0185462 0.9713 
0.141595 -0.0918558 0.985654 0.0590597 -0.187288 0.980528 -0.00614056 0.0670568 0.99773 
-0.0710612 0.0126407 0.997392 -0.0551793 0.0162436 0.998344 0.065098 0.0804562 0.99463 
0.0920716 -0.00319726 0.995747 -0.0254836 -0.031971 0.999164 -0.0234584 0.0724805 0.997094 
0.0422689 0.0627984 0.997131 0.023431 0.038259 0.998993 0.00327014 -0.0673328 0.997725 
-0.129092 -0.0590555 0.989873 -0.280364 -0.113351 0.953178 -0.441942 -0.262564 0.857757 
0.512795 -0.404134 0.757441 0.284127 -0.379327 0.880558 0.0658411 -0.204001 0.976754 
0.198581 -0.246518 0.948575 0.0558225 -0.201714 0.977852 0.0630689 -0.209192 0.975839 
-0.126212 -0.148913 0.980763 0.0211141 -0.131285 0.99112 0.0826339 -0.0232978 0.996308 
0.0269964 -0.123249 0.992009 -0.0269696 -0.163291 0.986209 -0.0205084 -0.129379 0.991383 
0.0386141 -0.189132 0.981192 -0.0651904 -0.218518 0.973653 -0.116031 -0.321885 0.939642 
-0.168838 -0.417766 0.892729 -0.36487 -0.520206 0.772176 0.3276 -0.728924 0.601123 
0.0920674 -0.666179 0.740087 0.0364832 -0.610653 0.791057 0.0841958 -0.552571 0.829203 
0.0748133 -0.505213 0.859746 -0.0526166 -0.56872 0.820846 -0.0695623 -0.657285 0.750425 
-0.0652148 -0.713459 0.697655 -0.0413103 -0.772387 0.633807 -0.119382 -0.789387 0.602176 
-0.231798 -0.838816 0.492603 -0.0252428 0.583271 0.811885 0.435535 0.411497 0.800612 
0.285447 0.531327 0.797629 0.352584 0.734145 0.580272 0.111873 0.625043 0.772532 
0.123436 0.687382 0.71573 0.0651372 0.611842 0.788293 0.0697123 0.612757 0.787191 
0.070525 0.615713 0.784808 -0.052825 0.551828 0.832283 -0.0762985 0.511344 0.855983 
-0.0764351 0.560055 0.824922 -0.0712851 0.458131 0.886022 -0.0743599 0.547579 0.833443 
-0.0708424 0.47855 0.875198 -0.0679205 0.591613 0.803356 -0.0218218 0.389628 0.920714 
-0.00699591 0.574191 0.818691 -0.005044 0.40277 0.915287 -0.00291831 0.563319 0.826234 
-0.0627769 0.364249 0.929183 -0.0550473 0.556468 0.829044 -0.0452051 0.318886 0.946714 
-0.112056 0.548022 0.828924 -0.0829366 0.381833 0.920503 -0.148837 0.592716 0.79154 
-0.167644 0.716265 0.677392 -0.280014 0.689572 0.667895 0.43587 0.410384 0.801001 
-0.0865194 0.371478 0.924402 -0.0981763 0.353463 0.930282 -0.108398 0.394429 0.912511 
-0.169349 0.345087 0.923166 -0.221556 0.445029 0.867676 -0.374942 0.554702 0.742781 
0.46287 0.230854 0.855838 0.546412 0.185804 0.816646 0.577264 0.317037 0.752499 
-0.292957 0.370691 0.881342 -0.304379 0.370014 0.877749 -0.306889 0.377314 0.873758 
-0.492642 0.437983 0.75198 0.553118 0.172097 0.815134 -0.442492 0.290467 0.848428 
-0.473996 0.263174 0.840278 -0.477853 0.30441 0.824009 -0.715352 0.272141 0.643592 
0.560559 -0.0224215 0.827811 0.903538 -0.0571521 0.42468 0.560524 -0.156421 0.813231 
-0.486455 0.152201 0.860346 -0.760991 0.0734883 0.644587 0.551893 -0.175579 0.815221 
0.575995 -0.180951 0.797174 -0.526224 -0.147649 0.837429 -0.509243 -0.321111 0.798474 
-0.801978 -0.244207 0.545155 0.582504 -0.22574 0.780852 0.752041 -0.42687 0.502211 
-0.503366 -0.3555 0.787555 -0.479021 -0.451188 0.752973 -0.60195 -0.466948 0.647778 
0.580028 -0.427356 0.693494 0.523286 -0.490581 0.69678 0.345643 -0.682366 0.644133 
-0.248646 -0.842234 0.478348 -0.460018 -0.550204 0.696892 -0.363806 -0.731401 0.5768 
-0.496595 -0.602258 0.625043 0.367667 -0.760818 0.534769 0.40216 -0.895539 0.190465 
0.340789 -0.791267 0.5077 0.130165 -0.844796 0.519015 0.0611235 -0.827728 0.55779 
0.0770125 -0.843052 0.53229 0.0363401 -0.915472 0.400738 -0.0588122 -0.927375 0.369482 
-0.119593 -0.921515 0.369468 -0.087562 -0.935167 0.343213 -0.0521928 -0.927462 0.370257 
-0.123599 -0.926851 0.354501 -0.238048 -0.862152 0.447245 -0.233129 -0.860998 0.452032 
-0.229724 -0.972131 0.0467839 0.361878 0.870928 0.33246 0.211658 0.926471 0.311212 
0.10004 0.944089 0.314147 -0.0085751 0.946177 0.323536 -0.0198552 0.9441 0.32906 
-0.0575251 0.932811 0.355744 -0.0460732 0.902196 0.428859 0.0110792 0.883731 0.467865 
0.026482 0.881862 0.470764 -0.0147836 0.856145 0.516525 0.0083976 0.999916 0.00990509 
-0.0859964 0.845265 0.527382 -0.1719 0.763257 0.622808 -0.181685 0.74938 0.636726 
-0.279429 0.723504 0.631237 0.433681 0.827225 0.357239 0.468593 0.800141 0.374426 
-0.306279 0.707677 0.6367 -0.413711 0.649976 0.637475 -0.527286 0.837687 0.142302 
0.694909 0.595226 0.403494 0.697794 0.591195 0.404441 0.706537 0.603479 0.369619 
-0.51822 0.582668 0.626056 -0.566773 0.539473 0.622686 -0.629221 0.647138 0.430456 
0.830568 0.327314 0.45058 -0.670254 0.470073 0.574274 -0.752468 0.366825 0.54702 
0.870699 0.156565 0.46623 0.907729 -0.00585811 0.419516 0.990753 0.135012 0.0134422 
-0.785281 0.288024 0.548066 0.914115 -0.0586414 0.401191 0.911497 -0.0843281 0.40257 
-0.85299 0.0534683 0.519182 0.889291 -0.245952 0.385577 -0.897512 -0.26708 0.350913 
-0.825266 -0.405749 0.392814 0.865824 -0.445614 0.227547 0.812831 -0.553516 0.181454 
-0.756761 -0.523322 0.391724 -0.662287 -0.694235 0.281805 0.750874 -0.652362 0.103018 
0.5603 -0.828288 0.00133072 -0.278562 -0.960418 0.000761476 -0.587094 -0.784894 0.198144 
-0.446536 -0.88596 0.125222 0.408644 -0.912661 -0.00776472 0.376408 -0.926372 -0.0123388 
0.362671 -0.913324 -0.185228 0.237361 -0.970097 -0.0507156 0.20426 -0.83885 -0.504588 
0.142779 -0.984057 -0.106043 0.0169514 -0.987498 -0.156716 -0.0322345 -0.988496 -0.147773 
-0.0518794 -0.979061 -0.196844 -0.0956396 -0.965403 -0.24259 -0.0977564 -0.770839 -0.629484 
-0.105234 -0.960216 -0.258672 -0.0990686 -0.829334 -0.5499 -0.0691457 -0.964079 -0.256456 
-0.0694091 -0.871153 -0.486081 -0.0420995 -0.964644 -0.260171 -0.0175605 -0.88713 -0.461185 
-0.0281122 -0.974608 -0.222145 -0.0154989 -0.905715 -0.423603 -0.104523 -0.98235 -0.155124 
-0.0687433 -0.946225 -0.316122 -0.229562 -0.972673 -0.0347588 -0.22298 -0.974106 -0.0373916 
-0.205213 -0.97397 -0.0962788 0.0101801 0.998922 -0.0452979 0.331168 0.936711 -0.113579 
0.183691 0.97311 -0.138973 0.0948381 0.982137 -0.162518 -0.00967515 0.988612 -0.150172 
-0.0059507 0.983101 -0.182965 -0.00231067 0.9853 -0.170815 0.0165679 0.993034 -0.116658 
0.0419616 0.99685 -0.0672967 0.0301823 0.998139 -0.0529816 0.0602858 0.996185 -0.0630943 
-0.0168895 0.999676 -0.0190277 0.0142804 0.996352 -0.0841356 -0.0364509 0.999335 0.000107985 
-0.0693464 0.995792 0.0599124 -0.221385 0.97104 0.0898283 -0.346128 0.932903 0.0994361 
-0.526896 0.840928 0.123374 0.731263 0.667947 -0.138204 0.472707 0.867853 -0.152904 
0.475694 0.866248 -0.152739 -0.529301 0.839604 0.122085 -0.535263 0.842171 0.0651223 
-0.650838 0.757141 0.0561055 0.757754 0.642385 -0.114672 0.73076 0.642019 -0.231951 
-0.748608 0.661037 0.0511396 -0.648326 0.598147 -0.471056 0.924241 0.353384 -0.144562 
0.974426 0.170109 -0.146823 -0.879965 0.473656 0.036206 -0.884937 0.464605 0.0320692 
0.98291 0.118168 -0.141154 0.97665 0.115317 -0.181264 -0.973888 0.224915 -0.0309116 
-0.783695 0.182278 -0.593798 0.972927 -0.10003 -0.208342 0.955801 -0.1862 -0.227541 
0.948886 -0.112854 -0.294753 -0.99829 -0.0343027 -0.0473272 -0.768586 -0.0958116 -0.632531 
0.915347 -0.330495 -0.230029 -0.924003 -0.34443 -0.166094 -0.876047 -0.436747 -0.204433 
-0.802382 -0.378137 -0.461731 0.722899 -0.594232 -0.35257 0.685286 -0.636803 -0.353362 
0.637369 -0.58007 -0.507227 -0.815551 -0.541517 -0.20405 -0.514225 -0.83734 -0.185566 
-0.507889 -0.474617 -0.718879 0.584071 -0.709196 -0.394843 0.498572 -0.748224 -0.437706 
0.454284 -0.713999 -0.532758 0.292124 -0.794743 -0.532021 0.183352 -0.663238 -0.725602 
0.189627 -0.805611 -0.561278 0.062893 -0.571667 -0.818072 0.0133184 -0.576081 -0.817284 
-0.0100958 -0.537117 -0.843448 -0.0217505 -0.542761 -0.839606 -0.0214106 -0.553569 -0.832528 
-0.0970595 -0.763928 -0.63796 -0.0705753 -0.526781 -0.847066 -0.0914003 -0.7595 -0.644054 
-0.0686967 -0.507524 -0.858894 -0.0622139 -0.761789 -0.644831 -0.023202 -0.569336 -0.821777 
-0.00313307 -0.767016 -0.641621 0.0258667 -0.636784 -0.770608 0.0112391 -0.803736 -0.594879 
0.093009 -0.681406 -0.725971 0.00496978 -0.861658 -0.507465 0.1104 -0.655593 -0.747001 
-0.0918678 -0.89225 -0.442098 -0.216662 -0.918044 -0.332044 -0.411423 -0.868848 -0.27538 
-0.353219 -0.864088 -0.358592 -0.331098 -0.824361 -0.459133 0.162269 -0.801601 -0.575417 
0.0600612 -0.788771 -0.611746 0.0572268 -0.749526 -0.659497 -0.00947187 -0.779361 -0.626504 
-0.0182751 -0.750152 -0.661013 -0.00709588 -0.739119 -0.673537 -0.0119662 -0.713452 -0.700602 
-0.0918603 -0.763779 -0.638908 -0.0529064 -0.755867 -0.652584 -0.0462823 -0.736299 -0.675072 
0.365194 0.707953 -0.604513 0.147905 0.807336 -0.571256 0.0513861 0.787249 -0.61449 
-0.0176326 0.80793 -0.589015 -0.0408844 0.785768 -0.617169 0.0078475 0.748462 -0.663132 
0.0782101 0.764944 -0.63933 0.0736057 0.809099 -0.583045 0.0431755 0.82033 -0.570258 
0.0406341 0.786221 -0.616608 0.0322704 0.824998 -0.564213 -0.0582997 0.848448 -0.526057 
-0.18464 0.835069 -0.518236 -0.286907 0.811001 -0.509865 0.373177 0.711438 -0.595479 
0.449009 0.691187 -0.566261 0.360984 0.700854 -0.615219 0.141963 0.694562 -0.705287 
0.0396296 0.667742 -0.743337 -0.00490779 0.661438 -0.749984 -0.0556804 0.661237 -0.748108 
0.00229796 0.641762 -0.7669 0.0821093 0.599874 -0.79587 0.0741936 0.595948 -0.799588 
0.0184981 0.575526 -0.817574 0.0177874 0.537623 -0.842998 0.0165711 0.528845 -0.848556 
-0.00793724 0.538363 -0.842676 -0.117881 0.596151 -0.794171 -0.441675 0.744532 -0.500595 
-0.312873 0.684001 -0.658979 -0.507763 0.695317 -0.508636 0.578837 0.586243 -0.566804 
0.639325 0.480039 -0.600688 0.369393 0.490878 -0.789042 0.230403 0.442358 -0.866738 
0.117087 0.391651 -0.912634 -0.0911564 0.341274 -0.935533 -0.0698666 0.357539 -0.931281 
0.042886 0.27863 -0.959441 0.0683433 0.231921 -0.970331 -0.0184569 0.233456 -0.972192 
-0.00172205 0.192339 -0.981327 0.00848443 0.163422 -0.98652 0.00152495 0.234695 -0.972068 
-0.100816 0.301013 -0.948276 -0.163794 0.316069 -0.93449 -0.608712 0.555474 -0.566496 
-0.376137 0.489019 -0.787008 -0.618087 0.532018 -0.578727 0.680303 0.328438 -0.655222 
0.589119 0.302838 -0.749152 0.403361 0.332813 -0.852371 -0.0551844 0.0425208 -0.99757 
-0.272606 0.328451 -0.904326 -0.706193 0.373117 -0.601727 -0.509528 0.297682 -0.807321 
0.75087 0.0839499 -0.655093 0.571755 0.0574685 -0.818409 -0.140396 0.017246 -0.989945 
-0.761433 0.172192 -0.624956 -0.508794 0.07799 -0.857348 0.703896 -0.156477 -0.692853 
0.534297 -0.149189 -0.832027 0.345311 -0.177196 -0.921608 0.0519223 -0.216556 -0.974889 
0.0330806 -0.0753898 -0.996605 -0.222251 -0.203352 -0.953547 -0.729601 -0.0914398 -0.677732 
-0.40375 -0.0640346 -0.912626 0.608628 -0.365932 -0.704035 0.566287 -0.406289 -0.717111 
0.556033 -0.366369 -0.746057 0.369362 -0.38133 -0.847442 0.14573 -0.29931 -0.942961 
-0.0755009 -0.296678 -0.951988 0.0252925 -0.290612 -0.956507 0.0578249 -0.308564 -0.949444 
-0.144932 -0.413871 -0.898724 -0.0319 -0.432815 -0.900918 0.0662028 -0.529307 -0.845844 
0.0155586 -0.315607 -0.948763 0.0862611 -0.227843 -0.969869 -0.0243167 -0.223577 -0.974383 
-0.057704 -0.240787 -0.968861 -0.258123 -0.263124 -0.92959 -0.638743 -0.349265 -0.685581 
-0.49539 -0.449026 -0.743616 -0.395303 -0.276077 -0.87608 0.446278 -0.478958 -0.755933 
0.381527 -0.534818 -0.753928 0.389922 -0.460979 -0.797157 0.158447 -0.607809 -0.778115 
0.191379 -0.493027 -0.848704 0.0609862 -0.553359 -0.830707 0.0398505 -0.485491 -0.873333 
0.00782821 -0.562882 -0.8265 -0.0350957 -0.470407 -0.881752 -0.0143707 -0.526457 -0.85008 
-0.0662159 -0.459601 -0.885653 -0.020242 -0.51898 -0.854547 -0.00914467 -0.433736 -0.900994 
-0.0247536 -0.535309 -0.844293 -0.0176919 -0.486354 -0.873583 -0.0935392 -0.493155 -0.864898 
-0.158635 -0.469373 -0.868633 -0.0585155 -0.407765 -0.91121 -0.0575108 -0.388848 -0.919505 
0.0417985 -0.499052 -0.865563 0.0884959 -0.488925 -0.867826 0.0864365 -0.556738 -0.826179 
0.131444 -0.492503 -0.860328 0.105287 -0.626608 -0.77219 0.122038 -0.473156 -0.872485 
0.108616 -0.626887 -0.771502 0.0667187 -0.459974 -0.885422 -0.0067213 -0.429274 -0.903149 
-0.101406 -0.444618 -0.889962 -0.48017 -0.467495 -0.742217 -0.272879 -0.660326 -0.699647 
-0.27357 -0.49035 -0.827476 0.0706393 -0.677605 -0.732026 0.0452767 -0.701011 -0.711711 
0.0448596 -0.690083 -0.722338 -0.214166 -0.676185 -0.704916 -0.204587 -0.677634 -0.706368 
-0.202043 -0.661931 -0.721821 0.0435531 0.385591 -0.921641 -0.0204941 0.351869 -0.935825 
0.179281 0.285262 -0.941533 0.0622069 0.382376 -0.921911 0.114544 0.357869 -0.92672 
0.0418591 0.378762 -0.924547 -0.0665006 0.332533 -0.940744 -0.0218888 0.320272 -0.947073 
-0.0870999 0.305268 -0.948275 -0.0727714 0.274319 -0.958881 -0.0255329 0.258189 -0.965757 
0.053962 0.168136 -0.984286 -0.0220513 0.220133 -0.975221 0.0478285 0.0825821 -0.995436 
0.0567887 0.179222 -0.982168 -0.0948302 0.278333 -0.955792 -0.166966 0.232574 -0.95814 
0.281327 0.28751 -0.915529 0.383457 0.196724 -0.902364 0.140617 0.223938 -0.964406 
0.106034 0.164106 -0.980727 0.0211792 0.147008 -0.988908 -0.0644509 0.0867339 -0.994144 
-0.0512652 0.0725947 -0.996043 -0.066956 0.192381 -0.979033 -0.0465513 0.257873 -0.965057 
0.0368093 0.0974461 -0.99456 -0.0536175 0.0540057 -0.9971 -0.0360672 0.181954 -0.982645 
-0.00685203 0.0431177 -0.999047 0.0685772 0.043701 -0.996688 0.140023 0.0886489 -0.986172 
-0.0408989 0.0796069 -0.995987 -0.238848 0.296358 -0.924729 -0.16671 0.225365 -0.959905 
-0.270955 0.313817 -0.910001 0.378456 0.0299762 -0.925134 0.347711 -0.146134 -0.926144 
0.344328 0.0170677 -0.938694 0.133769 0.0239112 -0.990724 0.0392091 0.0157585 -0.999107 
-0.0497353 -0.0427783 -0.997846 -0.0961184 -0.0587747 -0.993633 0.019798 -0.0805452 -0.996554 
0.114056 0.00824729 -0.99344 -0.0626519 0.105594 -0.992434 0.0448892 -0.194402 -0.979894 
-0.00551921 -0.0333184 -0.99943 -0.14036 0.0173069 -0.989949 -0.0718919 0.111175 -0.991197 
-0.139625 0.0171108 -0.990057 -0.140786 0.0163121 -0.989906 0.0366011 -0.0638964 -0.997285 
0.0516178 -0.0143562 -0.998564 0.0621374 -0.0212609 -0.997841 0.0428736 -0.0718438 -0.996494 
0.0540308 0.0530481 -0.997129 -0.35612 0.03864 -0.933641 -0.222313 -0.177377 -0.958705 
-0.214532 -0.00424076 -0.976708 0.322663 -0.176126 -0.929983 0.138683 -0.244784 -0.959608 
0.138594 -0.162209 -0.976975 0.0400748 -0.147888 -0.988192 -0.0539392 -0.150654 -0.987114 
-0.0827044 -0.247271 -0.96541 -0.098435 -0.138922 -0.985399 0.0048972 -0.164907 -0.986297 
0.00122673 -0.135457 -0.990782 0.0591126 -0.305128 -0.950475 0.117999 -0.137427 -0.983458 
0.0417928 -0.214202 -0.975895 -0.136726 -0.389436 -0.910849 -0.0885791 -0.192705 -0.977251 
0.0496327 -0.215157 -0.975317 0.0518758 -0.459986 -0.88641 0.0154615 -0.19485 -0.980711 
-0.0458201 -0.0762494 -0.996035 -0.155828 -0.105764 -0.982106 -0.17795 -0.0766724 -0.981048 
0.0391616 -0.0709156 -0.996713 0.0759183 -0.0436206 -0.996159 -0.0241462 -0.223079 -0.974501 
0.0262643 -0.0840993 -0.996111 -0.185834 -0.179204 -0.966101 -0.064052 -0.213877 -0.974758 
-0.101621 -0.113566 -0.98832 0.0704504 -0.303908 -0.950093 0.0460242 -0.318498 -0.946806 
0.0474719 -0.306146 -0.9508 -0.0483652 -0.309099 -0.949799 -0.0441513 -0.314589 -0.948201 
-0.0441546 -0.311103 -0.94935 0.0528837 -0.212213 -0.975791 -0.0222182 -0.223175 -0.974525 
0.0486021 -0.220553 -0.974163 0.0473601 -0.209609 -0.976638 
