# vtk DataFile Version 4.2
vtk output
ASCII
DATASET POLYDATA
POINTS 550 float
-5.89239 -33.4615 -12.5134 1.71621 -33.4615 -12.9867 9.3248 -33.4615 -13.0753 
16.9334 -33.4615 -13.1752 24.542 -33.4615 -13.5057 32.1506 -33.4615 -12.0093 
-28.7182 -25.8529 -11.8936 -21.1096 -25.8529 -13.4899 -13.501 -25.8529 -14.5946 
-5.89239 -25.8529 -14.969 1.71621 -25.8529 -14.7561 9.3248 -25.8529 -14.98 
16.9334 -25.8529 -15.2902 24.542 -25.8529 -15.7022 32.1506 -25.8529 -15.1285 
39.7592 -25.8529 -14.3342 -36.3268 -18.2443 -12.1675 -28.7182 -18.2443 -14.129 
-21.1096 -18.2443 -15.4489 -13.501 -18.2443 -15.8585 -5.89239 -18.2443 -15.5382 
1.71621 -18.2443 -15.5572 9.3248 -18.2443 -15.9736 16.9334 -18.2443 -16.2887 
24.542 -18.2443 -16.5686 32.1506 -18.2443 -16.1004 39.7592 -18.2443 -14.8908 
47.3678 -18.2443 -13.2446 -36.3268 -10.6357 -13.4098 -28.7182 -10.6357 -15.0449 
-21.1096 -10.6357 -15.9916 -13.501 -10.6357 -15.769 -5.89239 -10.6357 -14.8804 
1.71621 -10.6357 -16.2573 9.3248 -10.6357 -17.9776 16.9334 -10.6357 -16.2173 
24.542 -10.6357 -15.8627 32.1506 -10.6357 -16.215 39.7592 -10.6357 -15.6798 
47.3678 -10.6357 -15.5558 54.9763 -10.6357 -12.4166 -36.3268 -3.02711 -13.8222 
-28.7182 -3.02711 -15.0251 -21.1096 -3.02711 -15.1503 -13.501 -3.02711 -15.2871 
-5.89239 -3.02711 -19.0633 1.71621 -3.02711 -16.1212 9.3248 -3.02711 -18.641 
16.9334 -3.02711 -15.5747 24.542 -3.02711 -15.1274 32.1506 -3.02711 -15.7362 
39.7592 -3.02711 -16.0443 47.3678 -3.02711 -15.6952 -36.3268 4.58148 -13.4088 
-28.7182 4.58148 -14.5029 -21.1096 4.58148 -14.805 -13.501 4.58148 -15.1641 
-5.89239 4.58148 -18.199 1.71621 4.58148 -14.2093 9.3248 4.58148 -17.7243 
16.9334 4.58148 -15.3259 24.542 4.58148 -14.9146 32.1506 4.58148 -15.8218 
39.7592 4.58148 -16.435 47.3678 4.58148 -16.3521 54.9763 4.58148 -12.8135 
-36.3268 12.1901 -12.852 -28.7182 12.1901 -14.0356 -21.1096 12.1901 -14.5008 
-13.501 12.1901 -14.6428 -5.89239 12.1901 -16.0724 1.71621 12.1901 -17.168 
9.3248 12.1901 -15.5692 16.9334 12.1901 -14.2532 24.542 12.1901 -15.0501 
32.1506 12.1901 -15.9979 39.7592 12.1901 -16.1405 47.3678 12.1901 -15.9466 
54.9763 12.1901 -12.4944 -36.3268 19.7987 -12.6834 -28.7182 19.7987 -13.7528 
-21.1096 19.7987 -14.2416 -13.501 19.7987 -14.0291 -5.89239 19.7987 -14.2835 
1.71621 19.7987 -14.8784 9.3248 19.7987 -14.3451 16.9334 19.7987 -14.2592 
24.542 19.7987 -15.4782 32.1506 19.7987 -17.3259 39.7592 19.7987 -15.6744 
47.3678 19.7987 -16.5989 54.9763 19.7987 -13.9996 -28.7182 27.4073 -12.4971 
-21.1096 27.4073 -13.6146 -13.501 27.4073 -13.6318 -5.89239 27.4073 -14.2299 
1.71621 27.4073 -14.523 9.3248 27.4073 -13.9456 16.9334 27.4073 -13.9835 
24.542 27.4073 -15.5393 32.1506 27.4073 -14.8867 39.7592 27.4073 -16.8362 
47.3678 27.4073 -13.1134 -21.1096 35.0159 -12.498 -13.501 35.0159 -12.1291 
-5.89239 35.0159 -12.8021 1.71621 35.0159 -13.1633 9.3248 35.0159 -11.8921 
16.9334 35.0159 -13.1354 24.542 35.0159 -12.8717 32.1506 35.0159 -12.6115 
39.7592 35.0159 -13.4966 -21.1096 -41.0701 -4.62317 -13.501 -41.0701 -6.35684 
-5.89239 -34.7519 -11.8572 -5.89239 -41.0701 -8.28559 1.71621 -35.8508 -11.8572 
1.71621 -41.0701 -8.91 9.3248 -35.9131 -11.8572 9.3248 -41.0701 -8.89117 
16.9334 -35.7431 -11.8572 16.9334 -41.0701 -7.97878 24.542 -35.7594 -11.8572 
24.542 -41.0701 -6.82371 32.1506 -33.6944 -11.8572 -36.3268 -33.4615 -4.52172 
-28.7182 -25.925 -11.8572 -28.7182 -33.4615 -7.24273 -21.1096 -29.5782 -11.8572 
-21.1096 -33.4615 -9.96309 -10.7946 -33.4615 -11.8572 -13.501 -32.6059 -11.8572 
-13.501 -33.4615 -11.4778 32.5349 -33.4615 -11.8572 39.7592 -29.3964 -11.8572 
39.7592 -33.4615 -7.8213 -43.9353 -25.8529 -5.5471 -28.8338 -25.8529 -11.8572 
-36.3268 -19.1452 -11.8572 -36.3268 -25.8529 -9.08295 43.5559 -25.8529 -11.8572 
47.3678 -21.0675 -11.8572 47.3678 -25.8529 -8.71012 -37.1004 -18.2443 -11.8572 
-43.9353 -18.2443 -8.82446 50.1288 -18.2443 -11.8572 54.9763 -12.4058 -11.8572 
54.9763 -18.2443 -6.50407 -51.5439 -10.6357 -7.21603 -40.9351 -10.6357 -11.8572 
-43.9353 -10.6357 -10.8395 55.7252 -10.6357 -11.8572 54.9763 -4.46655 -11.8572 
-51.5439 -3.02711 -7.37819 -42.8835 -3.02711 -11.8572 -43.9353 -3.02711 -11.5132 
54.7606 -3.02711 -11.8572 54.9763 -1.84953 -11.8572 54.9763 -3.02711 -11.7043 
62.5849 -3.02711 -4.93117 -51.5439 4.58148 -7.15935 -41.7755 4.58148 -11.8572 
-43.9353 4.58148 -11.186 56.982 4.58148 -11.8572 62.5849 4.58148 -7.45929 
-51.5439 12.1901 -6.22396 -39.5991 12.1901 -11.8572 -43.9353 12.1901 -10.5764 
56.3511 12.1901 -11.8572 62.5849 12.1901 -6.9547 -51.5439 19.7987 -5.55994 
-38.4478 19.7987 -11.8572 -43.9353 19.7987 -9.57234 -36.3268 23.729 -11.8572 
58.3349 19.7987 -11.8572 54.9763 24.8819 -11.8572 -43.9353 27.4073 -7.55516 
-32.0391 27.4073 -11.8572 -36.3268 27.4073 -11.0764 -28.7182 29.631 -11.8572 
50.6602 27.4073 -11.8572 47.3678 29.9124 -11.8572 54.9763 27.4073 -8.85036 
-36.3268 35.0159 -8.32954 -23.5317 35.0159 -11.8572 -28.7182 35.0159 -10.2813 
-21.1096 36.7048 -11.8572 -13.501 35.6781 -11.8572 -5.89239 37.103 -11.8572 
1.71621 37.367 -11.8572 9.3248 35.0753 -11.8572 16.9334 36.7346 -11.8572 
24.542 37.2629 -11.8572 32.1506 36.1029 -11.8572 43.3797 35.0159 -11.8572 
39.7592 36.848 -11.8572 -28.7182 42.6244 -5.32125 -21.1096 42.6244 -7.74467 
-13.501 42.6244 -7.89897 -5.89239 42.6244 -7.42527 1.71621 42.6244 -5.00462 
-21.1096 -41.4088 -4.2486 -13.501 -43.2209 -4.2486 -5.89239 -45.7285 -4.2486 
1.71621 -46.0081 -4.2486 1.71621 -48.6787 2.69158 9.3248 -45.6402 -4.2486 
16.9334 -44.3265 -4.2486 24.542 -43.0592 -4.2486 -36.3268 -33.7415 -4.2486 
-21.919 -41.0701 -4.2486 -28.7182 -37.1859 -4.2486 -28.7182 -41.0701 1.72051 
30.2694 -41.0701 -4.2486 32.1506 -40.3096 -4.2486 39.7592 -35.7172 -4.2486 
-36.7188 -33.4615 -4.2486 -43.9353 -27.4677 -4.2486 42.5696 -33.4615 -4.2486 
39.7592 -33.4615 1.14989 47.3678 -29.2831 -4.2486 -45.4857 -25.8529 -4.2486 
50.4375 -25.8529 -4.2486 47.3678 -25.8529 1.38501 54.9763 -19.5555 -4.2486 
-51.0318 -18.2443 -4.2486 -51.5439 -17.4881 -4.2486 -51.5439 -18.2443 -3.60542 
55.8926 -18.2443 -4.2486 54.9763 -18.2443 -2.28894 -54.5471 -10.6357 -4.2486 
59.8485 -10.6357 -4.2486 62.5849 -3.89407 -4.2486 -54.8894 -3.02711 -4.2486 
-59.1525 -3.02711 3.25362 62.9035 -3.02711 -4.2486 62.5849 -3.02711 -3.46201 
-54.7383 4.58148 -4.2486 -59.1525 4.58148 3.14912 64.0875 4.58148 -4.2486 
62.5849 4.58148 -0.20058 -53.7761 12.1901 -4.2486 63.8913 12.1901 -4.2486 
62.5849 18.7431 -4.2486 62.5849 12.1901 -1.26227 -52.8678 19.7987 -4.2486 
-51.5439 23.1006 -4.2486 62.3349 19.7987 -4.2486 -48.5583 27.4073 -4.2486 
-51.5439 27.4073 -0.164365 -43.9353 34.859 -4.2486 47.3678 34.8259 -4.2486 
57.2253 27.4073 -4.2486 54.9763 30.0309 -4.2486 54.9763 27.4073 -0.814816 
-43.8027 35.0159 -4.2486 -43.9353 35.0159 -4.08678 -36.3268 39.8572 -4.2486 
9.3248 41.9054 -4.2486 16.9334 40.2723 -4.2486 16.9334 35.0159 2.57296 
24.542 39.9083 -4.2486 24.542 35.0159 2.46203 32.1506 39.5201 -4.2486 
32.1506 35.0159 2.43324 46.9314 35.0159 -4.2486 39.7592 37.8792 -4.2486 
39.7592 35.0159 0.988996 -31.0859 42.6244 -4.2486 -28.7182 43.4184 -4.2486 
-21.1096 44.7355 -4.2486 -13.501 45.1125 -4.2486 -5.89239 44.3165 -4.2486 
-5.89239 42.6244 -0.786276 4.0981 42.6244 -4.2486 1.71621 42.9523 -4.2486 
1.71621 42.6244 -3.63548 1.71621 -48.8753 3.35999 -28.7182 -41.7812 3.35999 
-21.1096 -44.8085 3.35999 -13.501 -47.206 3.35999 -3.52874 -48.6787 3.35999 
-5.89239 -48.59 3.35999 2.72997 -48.6787 3.35999 1.71621 -48.6787 3.92441 
9.3248 -47.2286 3.35999 16.9334 -44.0665 3.35999 24.542 -41.7093 3.35999 
-30.1062 -41.0701 3.35999 -36.3268 -37.6326 3.35999 -28.7182 -41.0701 5.58874 
9.3248 -41.0701 10.4314 16.9334 -41.0701 8.21866 25.9683 -41.0701 3.35999 
24.542 -41.0701 4.13982 32.1506 -36.9861 3.35999 -42.2332 -33.4615 3.35999 
-43.9353 -32.0543 3.35999 24.542 -33.4615 8.93739 37.7257 -33.4615 3.35999 
32.1506 -33.4615 6.3117 39.7592 -31.6514 3.35999 -50.0107 -25.8529 3.35999 
-51.5439 -23.7847 3.35999 32.1506 -25.8529 9.41852 45.2941 -25.8529 3.35999 
39.7592 -25.8529 6.61759 47.3678 -24.2568 3.35999 -54.9572 -18.2443 3.35999 
39.7592 -18.2443 8.93532 51.9185 -18.2443 3.35999 47.3678 -18.2443 6.7336 
54.9763 -12.8936 3.35999 -58.2216 -10.6357 3.35999 -59.1525 -3.37254 3.35999 
39.7592 -10.6357 10.7491 47.3678 -10.6357 8.69095 56.1857 -10.6357 3.35999 
54.9763 -10.6357 4.4639 -59.1941 -3.02711 3.35999 -59.1525 -3.02711 3.59093 
47.3678 -3.02711 10.0259 58.4642 -3.02711 3.35999 54.9763 -3.02711 6.25103 
-59.2372 4.58148 3.35999 -59.1525 7.57068 3.35999 -59.1525 4.58148 3.77615 
47.3678 4.58148 10.305 60.0848 4.58148 3.35999 54.9763 4.58148 6.74446 
-59.0136 12.1901 3.35999 16.9334 12.1901 9.63055 24.542 12.1901 10.9637 
32.1506 12.1901 10.9649 60.2812 12.1901 3.35999 54.9763 12.1901 7.40915 
-56.2463 19.7987 3.35999 9.3248 19.7987 9.54546 16.9334 19.7987 7.97545 
24.542 19.7987 8.99136 32.1506 19.7987 9.06522 39.7592 19.7987 8.96852 
47.3678 19.7987 7.39045 56.9392 19.7987 3.35999 54.9763 22.7319 3.35999 
54.9763 19.7987 6.07109 -53.1844 27.4073 3.35999 -51.5439 29.6986 3.35999 
-51.5439 27.4073 8.01998 1.71621 27.4073 8.4262 9.3248 27.4073 6.52744 
16.9334 33.7803 3.35999 16.9334 27.4073 6.07582 24.542 33.706 3.35999 
24.542 27.4073 6.91651 32.1506 33.6037 3.35999 32.1506 27.4073 6.79097 
39.7592 31.8885 3.35999 39.7592 27.4073 5.49571 50.2801 27.4073 3.35999 
47.3678 29.3046 3.35999 47.3678 27.4073 4.8076 -47.1937 35.0159 3.35999 
-43.9353 37.809 3.35999 -43.9353 35.0159 9.11003 -36.3268 41.8047 3.35999 
-13.501 35.0159 10.0798 -5.89239 39.5678 3.35999 -5.89239 35.0159 7.00778 
1.71621 36.9753 3.35999 1.71621 35.0159 4.65719 10.3662 35.0159 3.35999 
9.3248 35.1919 3.35999 9.3248 35.0159 3.45045 -33.5009 42.6244 3.35999 
-28.7182 44.0052 3.35999 -28.7182 42.6244 5.81011 -21.1096 43.837 3.35999 
-21.1096 42.6244 5.17541 -13.0406 42.6244 3.35999 -13.501 42.7631 3.35999 
-13.501 42.6244 3.531 -21.1096 -42.0518 10.9686 -13.501 -44.4488 10.9686 
-5.89239 -45.1819 10.9686 1.71621 -43.6235 10.9686 -36.3268 -35.1508 10.9686 
[...]
POINT_DATA 550
SCALARS ImageScalars float
LOOKUP_TABLE default
0 0 0 0 0 0 0 0 0 
0 0 0 0 0 0 0 0 0 
0 0 0 0 0 0 0 0 0 
0 0 0 0 0 0 0 0 0 
0 0 0 0 0 0 0 0 0 
0 0 0 0 0 0 0 0 0 
0 0 0 0 0 0 0 0 0 
0 0 0 0 0 0 0 0 0 
0 0 0 0 0 0 0 0 0 
0 0 0 0 0 0 0 0 0 
0 0 0 0 0 0 0 0 0 
0 0 0 0 0 0 0 0 0 
0 0 0 0 0 0 0 0 0 
0 0 0 0 0 0 0 0 0 
0 0 0 0 0 0 0 0 0 
0 0 0 0 0 0 0 0 0 
0 0 0 0 0 0 0 0 0 
0 0 0 0 0 0 0 0 0 
0 0 0 0 0 0 0 0 0 
0 0 0 0 0 0 0 0 0 
0 0 0 0 0 0 0 0 0 
0 0 0 0 0 0 0 0 0 
0 0 0 0 0 0 0 0 0 
0 0 0 0 0 0 0 0 0 
0 0 0 0 0 0 0 0 0 
0 0 0 0 0 0 0 0 0 
0 0 0 0 0 0 0 0 0 
0 0 0 0 0 0 0 0 0 
0 0 0 0 0 0 0 0 0 
0 0 0 0 0 0 0 0 0 
0 0 0 0 0 0 0 0 0 
0 0 0 0 0 0 0 0 0 
0 0 0 0 0 0 0 0 0 
0 0 0 0 0 0 0 0 0 
0 0 0 0 0 0 0 0 0 
0 0 0 0 0 0 0 0 0 
0 0 0 0 0 0 0 0 0 
0 0 0 0 0 0 0 0 0 
0 0 0 0 0 0 0 0 0 
0 0 0 0 0 0 0 0 0 
0 0 0 0 0 0 0 0 0 
0 0 0 0 0 0 0 0 0 
0 0 0 0 0 0 0 0 0 
0 0 0 0 0 0 0 0 0 
0 0 0 0 0 0 0 0 0 
0 0 0 0 0 0 0 0 0 
0 0 0 0 0 0 0 0 0 
0 0 0 0 0 0 0 0 0 
0 0 0 0 0 0 0 0 0 
0 0 0 0 0 0 0 0 0 
0 0 0 0 0 0 0 0 0 
0 0 0 0 0 0 0 0 0 
0 0 0 0 0 0 0 0 0 
0 0 0 0 0 0 0 0 0 
0 0 0 0 0 0 0 0 0 
0 0 0 0 0 0 0 0 0 
0 0 0 0 0 0 0 0 0 
0 0 0 0 0 0 0 0 0 
0 0 0 0 0 0 0 0 0 
0 0 0 0 0 0 0 0 0 
0 0 0 0 0 0 0 0 0 
0 
NORMALS Normals float
0.0912961 0.392993 0.914998 0.0329872 0.324745 0.945226 0.0116449 0.34433 0.938777 
0.0273538 0.392283 0.919438 -0.0510731 0.466559 0.883014 -0.273154 0.487253 0.82944 
0.24623 0.380465 0.891413 0.167354 0.328205 0.929664 0.093356 0.267322 0.959074 
0.00938056 0.182606 0.983141 0.000861869 0.164096 0.986444 0.0338566 0.175887 0.983828 
0.0506865 0.194503 0.979591 -0.00775246 0.188832 0.981979 -0.0832619 0.223886 0.971052 
-0.321538 0.318301 0.891794 0.317246 0.241939 0.916963 0.210367 0.197094 0.957549 
0.11082 0.155112 0.981661 0.00581384 0.0719868 0.997389 -0.0198034 -0.00554383 0.999789 
0.027933 0.089886 0.99556 0.0475548 0.189436 0.980741 0.0386585 0.0588654 0.997517 
-0.0123309 0.0154306 0.999805 -0.10308 0.0643616 0.992589 -0.165116 0.0783999 0.983153 
-0.356873 0.348799 0.866592 0.255743 0.103651 0.961172 0.164164 0.0572761 0.984769 
0.04673 -0.0196748 0.998714 -0.0725528 -0.0372044 0.99667 0.0180762 0.17217 0.984901 
0.21613 0.0425419 0.975437 -0.0211348 0.173752 0.984563 -0.134882 -0.0407287 0.990024 
-7.50185e-05 -0.0940154 0.995571 -0.0111221 -0.0239672 0.999651 -0.042512 0.0737873 0.996368 
-0.234531 0.137766 0.962297 -0.557919 0.131345 0.819436 0.215761 -0.000745469 0.976446 
0.0842192 -0.0355942 0.995811 0.0171448 -0.0778789 0.996815 0.204358 -0.0408326 0.978044 
0.109235 0.250753 0.961868 0.00333854 -0.14015 0.990125 -0.0428269 -0.0145896 0.998976 
-0.23284 -0.0605942 0.970626 0.0155188 -0.0625251 0.997923 0.0601517 -0.0259039 0.997853 
-0.00714252 0.0492925 0.998759 -0.213502 0.0572483 0.975264 0.202492 -0.0618842 0.977327 
0.0898919 -0.064523 0.993859 0.0425696 -0.0426337 0.998183 0.213253 -0.0436045 0.976023 
-0.023316 -0.17368 0.984526 -0.0350839 0.107526 0.993583 0.0678812 -0.186717 0.980066 
-0.191592 -0.0942232 0.976941 0.0381416 -0.00505095 0.99926 0.0991944 0.0171219 0.994921 
0.0336852 0.00620776 0.999413 -0.167911 0.0182626 0.985633 -0.467349 0.0418237 0.883083 
0.217192 -0.0462087 0.975035 0.106323 -0.0485995 0.993143 0.0396819 -0.0369326 0.99853 
0.0890187 -0.074209 0.993262 0.172193 -0.257451 0.950825 -0.0309935 0.0109652 0.999459 
-0.200913 -0.223701 0.953725 -0.0222544 -0.05688 0.998133 0.115679 0.0374154 0.992582 
0.0710927 0.0934816 0.99308 -0.00574747 -0.0494067 0.998762 -0.184134 -0.000778827 0.982901 
-0.447201 0.0985101 0.888992 0.260434 -0.111009 0.959089 0.105867 -0.0994893 0.989391 
0.0175209 -0.056545 0.998246 0.00258832 -0.0660377 0.997814 0.0546563 -0.100815 0.993403 
0.00370929 -0.17095 0.985273 -0.0401725 -0.0946538 0.994699 0.0753807 -0.0178256 0.996996 
0.192373 0.031371 0.98082 0.0159552 -0.0678951 0.997565 -0.0581079 0.0266638 0.997954 
-0.175852 -0.153295 0.972408 -0.431012 -0.153211 0.889244 0.156809 -0.209134 0.965232 
0.0746712 -0.125398 0.989292 0.0397085 -0.119041 0.992095 0.0585206 -0.0893933 0.994276 
-0.0186479 -0.103717 0.994432 -0.0349232 -0.13912 0.98966 0.096391 -0.0786586 0.992231 
0.0661379 -0.190049 0.979544 0.0575096 -0.266497 0.962118 -0.0633342 -0.164539 0.984335 
-0.38431 -0.414619 0.824862 0.111961 -0.277207 0.954265 0.0132601 -0.28108 0.959593 
0.0634368 -0.283143 0.956977 -0.0560977 -0.364565 0.929487 0.0150265 -0.421554 0.906679 
0.0561889 -0.462917 0.884619 -0.0354169 -0.44101 0.896803 0.0587361 -0.538151 0.840799 
-0.200769 -0.662074 0.722046 0.269689 0.735878 0.621088 0.196092 0.663573 0.721955 
0.0988167 0.425871 0.899371 0.135427 0.600452 0.78811 0.0354172 0.405828 0.913263 
0.0349165 0.629604 0.776131 -0.00410527 0.424962 0.905202 -0.0489412 0.660656 0.749092 
-0.00446805 0.473015 0.881043 -0.118221 0.776088 0.619444 -0.0635235 0.556381 0.828496 
-0.174674 0.867713 0.465364 -0.27515 0.498344 0.822159 0.423916 0.636896 0.64394 
0.246699 0.382135 0.890568 0.296585 0.567392 0.768182 0.19056 0.402809 0.895227 
0.226487 0.488582 0.84261 0.126811 0.430086 0.893837 0.140446 0.42825 0.89268 
0.145927 0.450155 0.880946 -0.281876 0.497215 0.820562 -0.37182 0.502317 0.780658 
-0.517776 0.766052 0.380884 0.506941 0.515969 0.690497 0.247925 0.381183 0.890636 
0.323188 0.262993 0.909057 0.359726 0.429046 0.828563 -0.457563 0.405797 0.791179 
-0.426262 0.384382 0.818872 -0.67366 0.568559 0.472147 0.331037 0.24699 0.91072 
0.455682 0.305782 0.835973 -0.458562 0.382747 0.802013 -0.586224 0.197712 0.785653 
-0.820127 0.538009 0.194776 0.590676 0.185762 0.785235 0.327593 0.134208 0.935239 
0.377226 0.155942 0.912898 -0.600865 0.14723 0.785675 -0.535386 0.0313307 0.844026 
0.600962 -0.00132391 0.799277 0.34187 0.022016 0.939489 0.364902 0.0239993 0.930736 
-0.5196 0.0155011 0.854269 -0.522213 0.0156976 0.852671 -0.535111 0.0157622 0.844635 
-0.958247 0.277111 0.0705169 0.591406 -0.0579286 0.804291 0.305442 -0.065665 0.949944 
0.353171 -0.061821 0.933514 -0.569181 0.0496719 0.82071 -0.959398 0.0731854 0.272394 
0.606802 -0.0905397 0.789679 0.269722 -0.0687823 0.960479 0.356417 -0.0981113 0.929161 
-0.520984 0.083981 0.849425 -0.968878 -0.115101 0.21915 0.673031 -0.207994 0.709766 
0.309735 -0.116296 0.943684 0.419853 -0.15936 0.893492 0.253827 -0.167244 0.952681 
-0.66529 -0.208256 0.716951 -0.494973 -0.403725 0.769421 0.526486 -0.311564 0.791038 
0.195004 -0.214893 0.956971 0.259103 -0.226627 0.938885 0.174666 -0.251768 0.951895 
-0.42559 -0.46061 0.778917 -0.419654 -0.478299 0.77144 -0.644544 -0.62217 0.444373 
0.360225 -0.508896 0.781833 0.148582 -0.299594 0.942426 0.232071 -0.397025 0.887983 
0.118836 -0.359651 0.925489 0.0103406 -0.308719 0.951097 0.0484857 -0.396172 0.916895 
-0.0816229 -0.518724 0.851036 0.0141867 -0.42534 0.904922 0.0800766 -0.596325 0.798739 
-0.0127416 -0.586675 0.809722 0.0146905 -0.603579 0.797168 -0.355108 -0.659012 0.663025 
-0.213492 -0.753889 0.621348 0.273994 -0.831465 0.483315 0.132278 -0.815684 0.563172 
-0.0119891 -0.847537 0.530601 -0.100495 -0.945695 0.309131 -0.17477 -0.984528 0.0126174 
0.273758 0.745667 0.607485 0.223781 0.735525 0.639472 0.143954 0.792144 0.593115 
-0.00670281 0.838127 0.545434 -0.078481 0.996765 0.0173055 -0.0978071 0.880367 0.464099 
-0.166367 0.923146 0.346588 -0.247549 0.933093 0.260876 0.428871 0.647569 0.62986 
0.284675 0.74211 0.606822 0.35283 0.666756 0.656465 0.426914 0.888901 0.166128 
-0.378537 0.916595 0.128697 -0.424024 0.90196 0.0816759 -0.574255 0.81503 0.0771792 
0.433031 0.644926 0.629726 0.543432 0.562007 0.623562 -0.61573 0.786789 0.0428932 
-0.579636 0.696999 -0.422155 -0.708068 0.705935 0.0172025 0.576254 0.541533 0.612105 
-0.775418 0.631251 0.0157925 -0.637386 0.614201 -0.465291 -0.834954 0.549456 -0.0308237 
0.661509 0.428017 0.615798 0.675429 0.408948 0.613643 0.694682 0.442791 0.56688 
-0.844172 0.53555 -0.0236635 -0.833718 0.539176 -0.119179 0.754648 0.209744 0.621702 
-0.905991 0.423008 0.015649 -0.955986 0.291907 0.0296837 0.727993 0.0136124 0.685449 
0.991822 0.0627508 0.111137 -0.961312 0.272678 0.0390659 -0.958974 0.282792 -0.0199325 
0.716587 -0.0505411 0.695664 0.993633 -0.0121214 0.112008 -0.995063 0.067638 0.0726216 
-0.961529 0.0716027 -0.265208 0.706807 -0.104665 0.699621 -0.992265 -0.114908 0.0469731 
-0.933482 -0.354375 -0.0550461 -0.971457 -0.15956 -0.17553 0.740147 -0.217265 0.63638 
0.698916 -0.309272 0.644877 -0.917354 -0.392294 -0.0675828 0.636699 -0.413848 0.650649 
0.799215 -0.50763 0.321817 0.586462 -0.553708 0.59116 -0.420064 -0.894993 -0.150111 
-0.778636 -0.627386 -0.0106741 -0.695618 -0.718404 -0.00335053 -0.712422 -0.613918 -0.33994 
0.583543 -0.558965 0.589098 0.5902 -0.565069 0.576507 0.434409 -0.74487 0.506416 
-0.165745 -0.98616 0.00418766 -0.130434 -0.991047 -0.0285197 -0.0571828 -0.562185 -0.825032 
-0.0497977 -0.990531 -0.127941 -0.00703161 -0.593206 -0.80502 -0.137363 -0.974733 -0.176145 
-0.0613582 -0.762941 -0.64355 -0.411713 -0.897723 -0.1568 -0.297725 -0.947595 -0.115863 
-0.303159 -0.678288 -0.669343 0.322258 -0.84843 0.419901 0.262395 -0.877006 0.402503 
0.118951 -0.961072 0.249381 -0.0279443 -0.987605 0.154452 -0.137841 -0.99042 0.00824011 
-0.203772 -0.93869 -0.278099 -0.173214 -0.984318 -0.0333961 -0.176282 -0.983043 -0.0505011 
-0.175565 -0.978229 -0.110656 -0.0827013 0.996168 -0.0284516 0.420004 0.905789 0.0560594 
0.351375 0.934007 0.0645427 0.237157 0.969236 0.0658599 0.0514589 0.998494 -0.0189939 
0.107557 0.994085 -0.0150667 -0.107521 0.993117 -0.046445 -0.0909058 0.993172 -0.0731153 
-0.278032 0.942458 -0.185664 -0.366677 0.879078 -0.30458 -0.345901 0.818138 -0.45935 
0.437335 0.897006 0.0641689 0.532897 0.84145 0.0893451 0.408706 0.907913 -0.0930221 
-0.208831 0.514943 -0.831399 -0.343076 0.665297 -0.663083 -0.36602 0.796199 -0.481764 
-0.355638 0.773879 -0.524054 -0.450565 0.687758 -0.569193 0.62253 0.773784 0.117111 
0.649129 0.750855 0.121853 -0.279504 0.3951 -0.875085 -0.507305 0.604016 -0.61466 
-0.399019 0.540237 -0.740896 -0.522648 0.562347 -0.640784 0.763564 0.634599 0.119393 
0.800072 0.588854 0.114616 -0.254447 0.281689 -0.925153 -0.545609 0.531604 -0.647849 
-0.460821 0.406211 -0.789073 -0.558747 0.523647 -0.643115 0.885694 0.455884 0.0878457 
-0.311147 0.22731 -0.922777 -0.699645 0.459213 -0.547377 -0.38822 0.365578 -0.845954 
-0.698289 0.37952 -0.606924 0.960386 0.2619 0.0952213 0.99196 0.0712856 0.104565 
-0.190075 0.206249 -0.959861 -0.393421 0.232415 -0.889496 -0.675032 0.332437 -0.658648 
-0.625878 0.28483 -0.72605 0.992568 0.0625293 0.104395 0.994103 0.0630248 0.0882435 
-0.324233 0.0881084 -0.941865 -0.729702 0.201764 -0.653319 -0.582429 0.142185 -0.80035 
0.995075 -0.0114003 0.0984633 0.991881 -0.0796582 0.0991286 0.997597 -0.0133312 0.0679961 
-0.295911 0.0529835 -0.953745 -0.729615 0.102927 -0.676068 -0.496521 0.0846085 -0.863891 
0.97753 -0.185969 0.0992465 -0.0817407 -0.308244 -0.947789 0.0872923 -0.223915 -0.970691 
0.004743 -0.220576 -0.975358 -0.773386 -0.174424 -0.609467 -0.441143 -0.0118727 -0.897358 
0.93922 -0.339346 0.0520575 -0.369338 -0.40914 -0.834382 -0.0241625 -0.242165 -0.969934 
0.0763622 -0.249156 -0.965448 -0.0020246 -0.252098 -0.9677 -0.0925912 -0.318956 -0.943236 
-0.162985 -0.392783 -0.905073 -0.617727 -0.452659 -0.64305 -0.553917 -0.49398 -0.670194 
-0.476916 -0.391783 -0.786802 0.864976 -0.498747 0.0553951 0.828803 -0.557898 0.042856 
0.784131 -0.503085 -0.363379 -0.275267 -0.48901 -0.827706 -0.138873 -0.364989 -0.920596 
-0.0428473 -0.476874 -0.877927 0.0178041 -0.321002 -0.946911 -0.00538316 -0.498194 -0.867049 
0.0501323 -0.370159 -0.927615 -0.0557735 -0.659814 -0.749357 -0.0841568 -0.328352 -0.940799 
-0.18881 -0.483663 -0.854647 -0.113216 -0.453767 -0.883899 -0.357327 -0.489601 -0.795367 
-0.256211 -0.545563 -0.797945 -0.238179 -0.47452 -0.847409 0.69827 -0.715704 -0.013649 
0.594505 -0.802492 -0.0507027 0.496101 -0.695541 -0.519718 0.341834 -0.925906 -0.160775 
-0.234998 -0.525277 -0.817839 -0.251974 -0.686881 -0.681691 -0.289864 -0.518374 -0.804529 
-0.181058 -0.568013 -0.802857 -0.209747 -0.516097 -0.830452 -0.104332 -0.461112 -0.881187 
-0.111872 -0.46175 -0.879927 -0.112733 -0.45322 -0.884242 0.272328 -0.942172 -0.195319 
0.138208 -0.959206 -0.246622 0.105691 -0.900146 -0.422571 -0.0782675 -0.91622 -0.392956 
-0.107432 -0.860075 -0.498727 -0.215442 -0.809109 -0.546743 -0.212251 -0.814927 -0.539299 
-0.21416 -0.808233 -0.54854 0.294787 0.712559 -0.636679 0.160691 0.730881 -0.663319 
-0.0173925 0.707177 -0.706823 -0.207835 0.561503 -0.800949 0.467511 0.724898 -0.505921 
0.304189 0.731838 -0.609821 0.315283 0.764126 -0.562769 0.267883 0.670976 -0.691398 
0.126651 0.515582 -0.847429 -0.072695 0.457097 -0.886441 -0.201 0.473721 -0.857431 
-0.198005 0.428934 -0.881368 -0.202981 0.426625 -0.881357 -0.258286 0.290299 -0.92142 
0.513475 0.701214 -0.494614 0.565634 0.669851 -0.480996 0.417991 0.644124 -0.640615 
0.174889 0.441697 -0.879953 0.0498468 0.350439 -0.935258 -0.0346827 0.231971 -0.972104 
-0.0664566 0.197448 -0.978058 -0.199264 0.201011 -0.959108 -0.231749 0.18163 -0.955669 
-0.24232 0.230557 -0.942404 -0.237279 0.206806 -0.949173 -0.212647 0.229227 -0.949861 
0.644208 0.586076 -0.491437 0.76174 0.419955 -0.493346 0.478617 0.505571 -0.71786 
0.14844 0.293826 -0.944263 0.0671655 0.258566 -0.963656 -0.0194929 0.130157 -0.991302 
-0.0604933 0.0976727 -0.993378 -0.0912838 0.0709833 -0.993292 -0.204375 0.0691661 -0.976446 
-0.188477 0.0743881 -0.979256 -0.169358 0.128243 -0.977175 -0.210411 0.221257 -0.952246 
-0.207913 0.214601 -0.954316 -0.22372 0.190815 -0.955792 0.7818 0.377706 -0.496112 
0.735987 0.375272 -0.563466 0.325154 0.19851 -0.924591 0.131526 0.163765 -0.977692 
-0.105924 0.0366284 -0.993699 -0.0957472 -0.000420276 -0.995406 -0.20818 0.054822 -0.976553 
-0.171052 -0.00366504 -0.985255 -0.0961009 0.0486817 -0.99418 -0.116097 0.10614 -0.98755 
-0.246895 0.17111 -0.953816 -0.220773 0.16017 -0.962084 0.808637 0.242116 -0.536177 
0.588598 0.118192 -0.799739 -0.150172 0.0243126 -0.988361 -0.0728787 -0.0261076 -0.996999 
-0.214228 0.0421176 -0.975875 -0.192218 -0.0710539 -0.978777 -0.0605048 0.00756914 -0.998139 
-0.0998046 0.046923 -0.9939 -0.178264 0.184685 -0.966495 -0.135638 0.0896763 -0.986692 
-0.188048 0.188461 -0.963909 0.817033 0.060163 -0.573444 0.530625 0.0209359 -0.847348 
-0.130735 -0.00935775 -0.991373 -0.0806467 0.0798178 -0.993542 -0.276184 -0.0630489 -0.959035 
-0.163917 0.0246132 -0.986167 0.0214459 -0.0583247 -0.998067 -0.0321086 -0.0225405 -0.99923 
-0.0685789 0.0386576 -0.996896 -0.2577 0.0823851 -0.962706 -0.19181 0.0942592 -0.976895 
0.811139 -0.0582832 -0.581943 0.512092 0.0131706 -0.858829 0.144379 -0.0932929 -0.985115 
-0.0719018 -0.0499376 -0.996161 0.0080786 -0.025041 -0.999654 -0.105045 -0.00878368 -0.994429 
-0.286297 -0.0937679 -0.953542 -0.185832 0.0315015 -0.982076 -0.101676 -0.282503 -0.953863 
-0.108967 -0.241795 -0.964189 0.0869856 -0.223628 -0.970785 -0.00266548 -0.144705 -0.989471 
0.00467614 -0.220331 -0.975414 -0.0175257 -0.122907 -0.992263 -0.239104 0.0149645 -0.970879 
-0.149045 -0.0709567 -0.986281 -0.260166 -0.144828 -0.95464 0.760351 -0.196743 -0.618998 
0.519275 -0.185905 -0.834142 0.186333 -0.138856 -0.972625 0.0456851 -0.0879522 -0.995077 
-0.0270373 -0.0281189 -0.999239 -0.0560251 -0.0462225 -0.997359 -0.0910393 -0.10628 -0.99016 
-0.150777 -0.239564 -0.959101 -0.185699 -0.0941935 -0.978081 -0.232272 -0.323866 -0.917148 
-0.399748 -0.390862 -0.829113 -0.394632 -0.277122 -0.876053 0.00451987 -0.220352 -0.97541 
-0.00211091 -0.219739 -0.975556 -0.000526436 -0.216698 -0.976238 -0.260054 -0.145974 -0.954497 
-0.259688 -0.146592 -0.954502 -0.259925 -0.146161 -0.954503 0.756549 -0.270387 -0.595419 
0.698532 -0.363515 -0.616368 0.699937 -0.275443 -0.658953 0.268421 -0.143874 -0.952497 
0.113334 -0.147297 -0.982578 -0.0156135 -0.139812 -0.990055 -0.147465 -0.16612 -0.975017 
-0.189143 -0.256922 -0.947743 -0.126055 -0.330649 -0.935298 -0.367115 -0.433086 -0.823203 
-0.299411 -0.476202 -0.826792 -0.247978 -0.408301 -0.87852 0.605963 -0.462089 -0.64752 
0.415384 -0.609161 -0.675558 0.335685 -0.406547 -0.849726 0.0868189 -0.312612 -0.945905 
-0.034606 -0.291139 -0.956055 -0.179369 -0.338892 -0.923569 -0.234187 -0.473183 -0.849267 
-0.248798 -0.346136 -0.904594 -0.291259 -0.410206 -0.864233 -0.292035 -0.407019 -0.865477 
-0.290431 -0.404984 -0.86697 0.311 -0.628468 -0.712956 0.168002 -0.649496 -0.741573 
0.154673 -0.571804 -0.805678 -0.0214924 -0.626995 -0.778726 -0.0570055 -0.559109 -0.827132 
-0.168206 -0.515837 -0.840011 -0.137497 -0.535189 -0.833467 -0.139727 -0.517057 -0.844469 
0.0283837 0.18409 -0.982499 -0.0937954 0.0890432 -0.991602 0.205183 0.135361 -0.969318 
0.123505 0.162147 -0.979007 0.129431 0.159875 -0.978615 0.0101983 0.142698 -0.989714 
-0.107693 0.0774119 -0.991166 -0.107852 0.0819659 -0.990782 0.210543 0.133043 -0.968489 
0.203758 0.133913 -0.96982 0.0683932 0.0681218 -0.99533 -0.030588 0.0172012 -0.999384 
-0.137528 0.00951809 -0.990452 -0.125487 -0.00146839 -0.992094 0.288288 -0.00260864 -0.95754 
0.154792 -0.0854678 -0.984243 0.265094 -0.00414813 -0.964214 0.0401191 -0.0458443 -0.998143 
-0.0577734 -0.0659507 -0.996149 -0.105787 -0.0652721 -0.992244 -0.0972143 -0.0691862 -0.992856 
-0.102114 -0.0730068 -0.99209 0.132928 -0.0923866 -0.98681 0.0316732 -0.0863098 -0.995765 
0.0105963 -0.0817121 -0.9966 -0.0607666 -0.0660952 -0.995961 -0.0443409 -0.0531724 -0.9976 
-0.0569456 -0.0718257 -0.99579 
