# vtk DataFile Version 4.2
vtk output
ASCII
DATASET POLYDATA
POINTS 480 float
-18.824 -33.3986 -19.6817 -11.0288 -33.3986 -21.4506 -3.23363 -33.3986 -21.594 
4.56157 -33.3986 -21.0332 12.3568 -33.3986 -19.4803 20.152 -33.3986 -18.0728 
-34.4144 -25.6034 -17.7566 -26.6192 -25.6034 -21.6479 -18.824 -25.6034 -23.0264 
-11.0288 -25.6034 -23.4846 -3.23363 -25.6034 -22.2124 4.56157 -25.6034 -22.3401 
12.3568 -25.6034 -21.9383 20.152 -25.6034 -21.9119 27.9471 -25.6034 -21.3134 
35.7423 -25.6034 -19.8613 43.5375 -25.6034 -16.3228 -34.4144 -17.8082 -20.7358 
-26.6192 -17.8082 -23.2326 -18.824 -17.8082 -23.8145 -11.0288 -17.8082 -22.8632 
-3.23363 -17.8082 -21.4764 4.56157 -17.8082 -21.4456 12.3568 -17.8082 -22.6558 
20.152 -17.8082 -23.2272 27.9471 -17.8082 -23.2371 35.7423 -17.8082 -22.395 
43.5375 -17.8082 -19.8283 -42.2096 -10.0131 -17.5059 -34.4144 -10.0131 -21.8183 
-26.6192 -10.0131 -23.6019 -18.824 -10.0131 -23.6618 -11.0288 -10.0131 -22.7865 
-3.23363 -10.0131 -21.1065 4.56157 -10.0131 -22.0925 12.3568 -10.0131 -22.7786 
20.152 -10.0131 -23.2078 27.9471 -10.0131 -23.7395 35.7423 -10.0131 -23.1762 
43.5375 -10.0131 -21.2822 51.3327 -10.0131 -17.0124 -42.2096 -2.21786 -17.6632 
-34.4144 -2.21786 -21.3721 -26.6192 -2.21786 -22.7904 -18.824 -2.21786 -23.3919 
-11.0288 -2.21786 -23.6568 -3.23363 -2.21786 -23.227 4.56157 -2.21786 -23.9855 
12.3568 -2.21786 -22.8942 20.152 -2.21786 -22.5547 27.9471 -2.21786 -23.4342 
35.7423 -2.21786 -23.2408 43.5375 -2.21786 -21.4648 51.3327 -2.21786 -17.0619 
-34.4144 5.57733 -20.2805 -26.6192 5.57733 -22.2763 -18.824 5.57733 -23.2325 
-11.0288 5.57733 -23.6031 -3.23363 5.57733 -22.3008 4.56157 5.57733 -23.5099 
12.3568 5.57733 -23.4119 20.152 5.57733 -22.6807 27.9471 5.57733 -23.125 
35.7423 5.57733 -22.7677 43.5375 5.57733 -20.8527 51.3327 5.57733 -16.6192 
-34.4144 13.3725 -17.5171 -26.6192 13.3725 -20.3956 -18.824 13.3725 -22.6173 
-11.0288 13.3725 -23.3721 -3.23363 13.3725 -23.1853 4.56157 13.3725 -23.6756 
12.3568 13.3725 -23.2871 20.152 13.3725 -22.5116 27.9471 13.3725 -22.2192 
35.7423 13.3725 -21.467 43.5375 13.3725 -19.1627 -26.6192 21.1677 -16.5656 
-18.824 21.1677 -19.6027 -11.0288 21.1677 -21.7778 -3.23363 21.1677 -22.7624 
4.56157 21.1677 -22.5896 12.3568 21.1677 -21.1712 20.152 21.1677 -20.4459 
27.9471 21.1677 -20.2262 35.7423 21.1677 -19.0873 -11.0288 28.9629 -16.4532 
-3.23363 28.9629 -18.4149 4.56157 28.9629 -18.2515 12.3568 28.9629 -17.1692 
-18.824 -36.6415 -16.2214 -11.0288 -38.9736 -16.2214 -3.23363 -39.9492 -16.2214 
-3.23363 -41.1938 -9.30618 4.56157 -39.2902 -16.2214 12.3568 -37.1046 -16.2214 
20.152 -35.0266 -16.2214 -34.4144 -27.3651 -16.2214 -25.9666 -33.3986 -16.2214 
-26.6192 -33.0088 -16.2214 -26.6192 -33.3986 -15.3369 27.2704 -33.3986 -16.2214 
27.9471 -33.2023 -16.2214 27.9471 -33.3986 -15.7765 35.7423 -29.8771 -16.2214 
43.5375 -25.6904 -16.2214 -36.0744 -25.6034 -16.2214 43.6322 -25.6034 -16.2214 
-40.9126 -17.8082 -16.2214 -42.2096 -14.4141 -16.2214 -42.2096 -17.8082 -14.4468 
49.2122 -17.8082 -16.2214 51.3327 -12.7123 -16.2214 51.3327 -17.8082 -12.5314 
-43.5677 -10.0131 -16.2214 52.0886 -10.0131 -16.2214 -43.9056 -2.21786 -16.2214 
-42.2096 4.42262 -16.2214 52.1694 -2.21786 -16.2214 -41.8062 5.57733 -16.2214 
-42.2096 5.57733 -15.8899 51.7347 5.57733 -16.2214 51.3327 6.60002 -16.2214 
-36.544 13.3725 -16.2214 -42.2096 13.3725 -11.3512 -34.4144 15.6638 -16.2214 
47.9161 13.3725 -16.2214 43.5375 19.2377 -16.2214 51.3327 13.3725 -11.9153 
-27.3486 21.1677 -16.2214 -34.4144 21.1677 -12.0847 -26.6192 21.6668 -16.2214 
-18.824 25.9835 -16.2214 20.152 28.7904 -16.2214 27.9471 28.1337 -16.2214 
41.5275 21.1677 -16.2214 35.7423 25.3691 -16.2214 43.5375 21.1677 -14.7908 
-26.6192 28.9629 -9.73116 -11.7185 28.9629 -16.2214 -18.824 28.9629 -13.7457 
-11.0288 29.2081 -16.2214 -3.23363 31.3152 -16.2214 4.56157 31.3045 -16.2214 
19.3452 28.9629 -16.2214 12.3568 30.1206 -16.2214 20.152 28.9629 -16.1025 
27.9471 28.9629 -15.5172 35.7423 28.9629 -12.5441 -3.23363 36.7581 -9.44949 
4.56157 36.7581 -9.50648 -3.23363 -41.3065 -8.42619 -26.6192 -35.5599 -8.42619 
-18.824 -38.0449 -8.42619 -4.29111 -41.1938 -8.42619 -11.0288 -40.3875 -8.42619 
-1.27047 -41.1938 -8.42619 -3.23363 -41.1938 -8.17832 4.56157 -40.8159 -8.42619 
12.3568 -39.3137 -8.42619 20.152 -37.2524 -8.42619 27.9471 -35.5782 -8.42619 
-30.9506 -33.3986 -8.42619 -34.4144 -31.3382 -8.42619 33.251 -33.3986 -8.42619 
27.9471 -33.3986 -2.18614 35.7423 -32.3692 -8.42619 43.5375 -28.0523 -8.42619 
-40.3499 -25.6034 -8.42619 -42.2096 -23.0008 -8.42619 46.4308 -25.6034 -8.42619 
51.3327 -19.973 -8.42619 -45.2475 -17.8082 -8.42619 52.8318 -17.8082 -8.42619 
-48.0561 -10.0131 -8.42619 55.6148 -10.0131 -8.42619 -48.7827 -2.21786 -8.42619 
-50.0048 -2.21786 -2.59241 56.4806 -2.21786 -8.42619 -47.6776 5.57733 -8.42619 
56.0285 5.57733 -8.42619 -44.4579 13.3725 -8.42619 -42.2096 16.634 -8.42619 
53.2457 13.3725 -8.42619 51.3327 17.0269 -8.42619 -38.2253 21.1677 -8.42619 
-42.2096 21.1677 -1.85958 -34.4144 24.8104 -8.42619 48.7714 21.1677 -8.42619 
43.5375 26.7382 -8.42619 -28.4225 28.9629 -8.42619 -34.4144 28.9629 -2.42016 
-26.6192 30.1214 -8.42619 -18.824 34.0956 -8.42619 -11.0288 36.1889 -8.42619 
12.3568 36.5695 -8.42619 20.152 35.7671 -8.42619 27.9471 34.5085 -8.42619 
40.4824 28.9629 -8.42619 35.7423 31.7282 -8.42619 -18.824 36.7581 -4.56708 
-7.75453 36.7581 -8.42619 -11.0288 36.7581 -7.59093 -3.23363 37.4518 -8.42619 
10.7551 36.7581 -8.42619 4.56157 37.4423 -8.42619 12.3568 36.7581 -7.51936 
-26.6192 -35.8341 -0.630996 -18.824 -37.1908 -0.630996 -11.0288 -37.469 -0.630996 
-3.23363 -37.1149 -0.630996 4.56157 -36.1243 -0.630996 12.3568 -34.8829 -0.630996 
20.152 -34.2259 -0.630996 -32.5172 -33.3986 -0.630996 -34.4144 -32.4637 -0.630996 
-3.23363 -33.3986 4.98017 4.56157 -33.3986 2.58104 12.3568 -33.3986 1.05075 
24.7312 -33.3986 -0.630996 20.152 -33.3986 0.45145 27.9471 -32.6888 -0.630996 
35.7423 -29.5711 -0.630996 43.5375 -25.7116 -0.630996 -41.776 -25.6034 -0.630996 
-42.2096 -25.047 -0.630996 27.9471 -25.6034 6.32167 35.7423 -25.6034 3.89141 
43.6786 -25.6034 -0.630996 43.5375 -25.6034 -0.48885 51.3327 -18.198 -0.630996 
-46.5831 -17.8082 -0.630996 43.5375 -17.8082 6.94079 51.6367 -17.8082 -0.630996 
51.3327 -17.8082 -0.153798 -49.4801 -10.0131 -0.630996 -50.0048 -5.67423 -0.630996 
54.9321 -10.0131 -0.630996 51.3327 -10.0131 5.22044 -50.3935 -2.21786 -0.630996 
-50.0048 3.61538 -0.630996 -50.0048 -2.21786 5.03249 56.6184 -2.21786 -0.630996 
-49.8717 5.57733 -0.630996 56.5696 5.57733 -0.630996 -47.4528 13.3725 -0.630996 
54.0054 13.3725 -0.630996 51.3327 18.4706 -0.630996 51.3327 13.3725 5.79222 
-42.8247 21.1677 -0.630996 -42.2096 21.9832 -0.630996 49.5588 21.1677 -0.630996 
43.5375 27.462 -0.630996 -35.729 28.9629 -0.630996 -34.4144 30.1556 -0.630996 
-26.6192 35.6171 -0.630996 20.152 36.698 -0.630996 27.9471 35.2735 -0.630996 
41.5406 28.9629 -0.630996 35.7423 32.335 -0.630996 35.7423 28.9629 5.83671 
-24.1362 36.7581 -0.630996 -26.6192 36.7581 2.79149 -18.824 39.0556 -0.630996 
-11.0288 40.7418 -0.630996 -3.23363 40.7195 -0.630996 4.56157 39.6602 -0.630996 
19.8134 36.7581 -0.630996 12.3568 37.9888 -0.630996 12.3568 36.7581 2.69239 
-26.6192 -34.7378 7.1642 -18.824 -35.3025 7.1642 -11.0288 -34.1901 7.1642 
-30.2442 -33.3986 7.1642 -34.4144 -31.5919 7.1642 -26.6192 -33.3986 10.9168 
-18.824 -33.3986 12.2866 -8.14926 -33.3986 7.1642 -11.0288 -33.3986 8.89921 
-3.23363 -31.8846 7.1642 4.56157 -28.9062 7.1642 12.3568 -26.5548 7.1642 
20.152 -25.7861 7.1642 -40.8973 -25.6034 7.1642 -42.2096 -23.8104 7.1642 
4.56157 -25.6034 11.0086 12.3568 -25.6034 7.93916 21.3141 -25.6034 7.1642 
20.152 -25.6034 7.29321 27.9471 -24.5261 7.1642 35.7423 -22.0028 7.1642 
-45.7282 -17.8082 7.1642 12.3568 -17.8082 14.2422 20.152 -17.8082 12.1497 
27.9471 -17.8082 11.5173 43.1212 -17.8082 7.1642 35.7423 -17.8082 10.3039 
43.5375 -17.5059 7.1642 -48.7607 -10.0131 7.1642 35.7423 -10.0131 14.3584 
49.6059 -10.0131 7.1642 43.5375 -10.0131 11.6475 51.3327 -6.49648 7.1642 
-49.857 -2.21786 7.1642 43.5375 -2.21786 14.2163 52.896 -2.21786 7.1642 
51.3327 -2.21786 8.84679 -49.7369 5.57733 7.1642 43.5375 5.57733 14.6816 
53.1984 5.57733 7.1642 51.3327 11.3436 7.1642 51.3327 5.57733 9.34132 
-47.9182 13.3725 7.1642 50.5209 13.3725 7.1642 43.5375 13.3725 13.3524 
-44.1491 21.1677 7.1642 -42.2096 24.0451 7.1642 20.152 21.1677 14.8914 
27.9471 21.1677 14.3375 35.7423 27.9232 7.1642 35.7423 21.1677 12.9954 
45.2354 21.1677 7.1642 43.5375 22.8959 7.1642 43.5375 21.1677 8.54793 
-38.2995 28.9629 7.1642 -34.4144 32.7471 7.1642 12.3568 34.6217 7.1642 
12.3568 28.9629 12.6985 20.152 32.0924 7.1642 20.152 28.9629 10.0811 
33.3248 28.9629 7.1642 27.9471 30.7965 7.1642 27.9471 28.9629 9.04784 
-28.8826 36.7581 7.1642 -26.6192 38.1317 7.1642 -18.824 40.9425 7.1642 
-11.0288 41.7716 7.1642 -3.23363 40.7444 7.1642 7.92684 36.7581 7.1642 
4.56157 38.1151 7.1642 4.56157 36.7581 9.40469 -34.4144 -28.2842 14.9594 
-26.6192 -31.7972 14.9594 -18.824 -32.2829 14.9594 -11.0288 -30.3908 14.9594 
-3.23363 -27.0481 14.9594 -37.3823 -25.6034 14.9594 -42.2096 -19.1591 14.9594 
-34.4144 -25.6034 18.1027 -26.6192 -25.6034 21.9626 -18.824 -25.6034 22.7162 
-11.0288 -25.6034 21.0892 -0.827101 -25.6034 14.9594 -3.23363 -25.6034 16.7233 
4.56157 -22.2413 14.9594 -43.003 -17.8082 14.9594 -42.2096 -17.8082 16.1022 
11.205 -17.8082 14.9594 4.56157 -17.8082 19.4867 12.3568 -16.7032 14.9594 
20.152 -11.572 14.9594 27.9471 -10.4216 14.9594 -46.0928 -10.0131 14.9594 
-42.2096 -10.0131 20.1683 12.3568 -10.0131 19.464 20.152 -10.0131 15.5893 
29.8207 -10.0131 14.9594 27.9471 -10.0131 15.1397 35.7423 -7.97051 14.9594 
-47.538 -2.21786 14.9594 -42.2096 -2.21786 22.2299 12.3568 -2.21786 19.9727 
20.152 -2.21786 17.1507 27.9471 -2.21786 17.2032 41.1657 -2.21786 14.9594 
35.7423 -2.21786 16.5031 -47.6368 5.57733 14.9594 -42.2096 5.57733 22.6949 
12.3568 5.57733 19.3337 20.152 5.57733 17.3403 27.9471 5.57733 17.5155 
[...]
POINT_DATA 480
SCALARS ImageScalars float
LOOKUP_TABLE default
0 0 0 0 0 0 0 0 0 
0 0 0 0 0 0 0 0 0 
0 0 0 0 0 0 0 0 0 
0 0 0 0 0 0 0 0 0 
0 0 0 0 0 0 0 0 0 
0 0 0 0 0 0 0 0 0 
0 0 0 0 0 0 0 0 0 
0 0 0 0 0 0 0 0 0 
0 0 0 0 0 0 0 0 0 
0 0 0 0 0 0 0 0 0 
0 0 0 0 0 0 0 0 0 
0 0 0 0 0 0 0 0 0 
0 0 0 0 0 0 0 0 0 
0 0 0 0 0 0 0 0 0 
0 0 0 0 0 0 0 0 0 
0 0 0 0 0 0 0 0 0 
0 0 0 0 0 0 0 0 0 
0 0 0 0 0 0 0 0 0 
0 0 0 0 0 0 0 0 0 
0 0 0 0 0 0 0 0 0 
0 0 0 0 0 0 0 0 0 
0 0 0 0 0 0 0 0 0 
0 0 0 0 0 0 0 0 0 
0 0 0 0 0 0 0 0 0 
0 0 0 0 0 0 0 0 0 
0 0 0 0 0 0 0 0 0 
0 0 0 0 0 0 0 0 0 
0 0 0 0 0 0 0 0 0 
0 0 0 0 0 0 0 0 0 
0 0 0 0 0 0 0 0 0 
0 0 0 0 0 0 0 0 0 
0 0 0 0 0 0 0 0 0 
0 0 0 0 0 0 0 0 0 
0 0 0 0 0 0 0 0 0 
0 0 0 0 0 0 0 0 0 
0 0 0 0 0 0 0 0 0 
0 0 0 0 0 0 0 0 0 
0 0 0 0 0 0 0 0 0 
0 0 0 0 0 0 0 0 0 
0 0 0 0 0 0 0 0 0 
0 0 0 0 0 0 0 0 0 
0 0 0 0 0 0 0 0 0 
0 0 0 0 0 0 0 0 0 
0 0 0 0 0 0 0 0 0 
0 0 0 0 0 0 0 0 0 
0 0 0 0 0 0 0 0 0 
0 0 0 0 0 0 0 0 0 
0 0 0 0 0 0 0 0 0 
0 0 0 0 0 0 0 0 0 
0 0 0 0 0 0 0 0 0 
0 0 0 0 0 0 0 0 0 
0 0 0 0 0 0 0 0 0 
0 0 0 0 0 0 0 0 0 
0 0 0 
NORMALS Normals float
0.283765 0.639029 0.714926 0.110737 0.490124 0.86459 -0.0310035 0.358774 0.932909 
-0.135699 0.420225 0.897216 -0.180522 0.555035 0.812002 -0.199616 0.712849 0.672309 
0.570857 0.498658 0.652275 0.289029 0.36501 0.885003 0.106175 0.221163 0.96944 
-0.0537597 0.0797724 0.995362 -0.0703727 -0.0116653 0.997453 -0.0174346 0.0233869 0.999574 
-0.0275843 0.188662 0.981655 -0.0395962 0.273058 0.961182 -0.121767 0.394856 0.910638 
-0.268132 0.513757 0.814959 -0.5928 0.63172 0.499518 0.441368 0.214897 0.871214 
0.177405 0.110457 0.97792 -0.0212944 0.0412041 0.998924 -0.148525 -0.0433674 0.987957 
-0.0905263 -0.0711571 0.993349 0.0734142 -0.0181408 0.997137 0.116176 0.0535227 0.991786 
0.0352912 0.0773747 0.996377 -0.0524523 0.145165 0.988016 -0.199489 0.185034 0.962272 
-0.438946 0.253871 0.861903 0.66582 0.125203 0.735532 0.338009 0.0359402 0.940456 
0.118837 -0.0296282 0.992472 -0.0502439 -0.0270081 0.998372 -0.160328 0.0511581 0.985737 
-0.0471979 0.116679 0.992048 0.108228 0.168423 0.979755 0.0670163 0.0149186 0.99764 
0.0623564 -0.0437421 0.997095 -0.00232261 0.0143485 0.999894 -0.147292 0.0553219 0.987545 
-0.353115 0.0975731 0.930478 -0.709224 0.123076 0.694157 0.596265 -0.0863393 0.798131 
0.30544 -0.0987237 0.94708 0.120435 -0.0803066 0.989468 0.0562479 -0.0274353 0.99804 
-0.0105625 0.050435 0.998671 0.0212566 0.0702409 0.997304 -0.0209571 0.081913 0.996419 
-0.0933002 0.0411194 0.994789 0.0347386 -0.0324536 0.998869 0.0442376 -0.0393289 0.998247 
-0.118371 -0.0255775 0.99264 -0.346115 -0.0252446 0.937853 -0.683473 -0.021686 0.729654 
0.348877 -0.217117 0.911671 0.18366 -0.143345 0.972482 0.0821394 -0.0475104 0.995488 
-0.0597658 -0.0181636 0.998047 -0.00784281 -0.00257402 0.999966 0.0721217 -0.0200796 0.997194 
-0.0534451 0.0253414 0.998249 -0.0181452 -0.00255855 0.999832 0.00634328 -0.0768426 0.997023 
-0.134535 -0.11407 0.984321 -0.355615 -0.143715 0.923517 -0.674358 -0.188769 0.713868 
0.41955 -0.408404 0.810669 0.294605 -0.313394 0.902769 0.17984 -0.20162 0.962812 
0.0333658 -0.105211 0.99389 0.0195059 0.0308469 0.999334 0.00711129 -0.0549575 0.998463 
-0.0742367 -0.13258 0.988388 -0.0674185 -0.137667 0.988181 -0.0661797 -0.181311 0.981196 
-0.185592 -0.219551 0.957785 -0.428005 -0.294785 0.85435 0.358204 -0.510426 0.781764 
0.285305 -0.461743 0.839878 0.180161 -0.358891 0.915827 0.0467146 -0.251952 0.966611 
-0.094718 -0.297396 0.950044 -0.131349 -0.349984 0.927501 -0.0560333 -0.367902 0.928175 
-0.0799678 -0.374023 0.923966 -0.266025 -0.427069 0.864201 0.22457 -0.655829 0.720733 
0.0852866 -0.629561 0.772256 -0.0671847 -0.609068 0.790267 -0.116756 -0.582567 0.804353 
0.326131 0.82175 0.467297 0.188912 0.871992 0.4516 0.0225063 0.889418 0.456541 
0.026219 0.993424 -0.11145 -0.156461 0.855848 0.492996 -0.247321 0.778207 0.577258 
-0.230109 0.80484 0.547067 0.589206 0.574743 0.567897 0.439286 0.749678 0.494986 
0.446193 0.739299 0.50433 0.443631 0.773526 0.452603 -0.262248 0.797082 0.543954 
-0.263511 0.793819 0.548099 -0.270452 0.815886 0.511064 -0.37577 0.751926 0.541668 
-0.593579 0.635952 0.493183 0.626893 0.525049 0.575611 -0.596151 0.633263 0.49354 
0.694645 0.333245 0.637508 0.714186 0.252958 0.652649 0.758685 0.364111 0.540204 
-0.695478 0.389178 0.604029 -0.743007 0.231031 0.628145 -0.822546 0.462385 0.331087 
0.721877 0.14149 0.677403 -0.744376 0.132564 0.65447 0.669813 -0.0781941 0.738402 
0.621009 -0.244661 0.74464 -0.720549 -0.0192095 0.693138 0.608746 -0.269066 0.746346 
0.628674 -0.271564 0.728713 -0.692123 -0.189625 0.696425 -0.686354 -0.214046 0.695056 
0.482701 -0.426 0.765195 0.68685 -0.460153 0.56258 0.440429 -0.459307 0.771401 
-0.605921 -0.348628 0.715065 -0.506739 -0.463456 0.726928 -0.801094 -0.392609 0.451781 
0.368413 -0.517244 0.772483 0.500918 -0.582228 0.640383 0.360004 -0.521868 0.773338 
0.283754 -0.588309 0.757216 -0.0785468 -0.586297 0.806279 -0.135295 -0.603724 0.785629 
-0.463933 -0.502464 0.729586 -0.307245 -0.591059 0.745822 -0.549355 -0.537397 0.639854 
0.405644 -0.67067 0.621011 0.229179 -0.656678 0.718506 0.281654 -0.65359 0.702489 
0.224409 -0.661009 0.716036 0.0944761 -0.696976 0.710843 -0.0533652 -0.676426 0.734575 
-0.0827829 -0.590613 0.802697 -0.111373 -0.619083 0.777389 -0.0800469 -0.59411 0.800391 
-0.149623 -0.650114 0.744959 -0.359535 -0.767453 0.530802 0.0716092 -0.845176 0.529669 
-0.0485835 -0.880001 0.47248 0.02562 0.985202 -0.16947 0.375335 0.916389 0.139119 
0.273752 0.961544 0.0221999 0.0513111 0.985453 -0.16202 0.20775 0.973023 -0.100325 
-0.0108662 0.985283 -0.170586 0.0236943 0.983057 -0.18176 -0.119407 0.97832 -0.169208 
-0.222978 0.967104 -0.122435 -0.226292 0.972298 -0.0585607 -0.298184 0.953786 -0.0371388 
0.474585 0.860867 0.183513 0.579434 0.784466 0.221066 -0.37697 0.925887 -0.0250333 
-0.256106 0.878186 -0.403978 -0.415903 0.909144 -0.021933 -0.601293 0.799021 -0.00342233 
0.75078 0.610299 0.252713 0.8003 0.535728 0.269287 -0.682426 0.730706 0.0190565 
-0.835091 0.543868 0.0826432 0.867112 0.408352 0.285247 -0.871471 0.480131 0.100063 
0.927818 0.208393 0.309397 -0.963116 0.218877 0.156528 0.941191 -0.0201857 0.337271 
0.991683 0.0129146 0.128055 -0.971524 0.0259192 0.235521 0.882083 -0.236076 0.407674 
-0.943954 -0.197064 0.264795 0.760923 -0.452591 0.464928 0.704702 -0.520314 0.482357 
-0.877823 -0.38906 0.279391 -0.833737 -0.47366 0.283775 0.605217 -0.599052 0.524261 
0.760354 -0.573072 0.305695 0.52923 -0.644325 0.552051 -0.757205 -0.581916 0.296674 
-0.612348 -0.736548 0.287275 0.437252 -0.679583 0.589049 0.595056 -0.697988 0.398398 
0.412248 -0.686632 0.598823 0.281695 -0.743961 0.605945 0.167634 -0.798141 0.57868 
-0.0980561 -0.916917 0.386844 -0.115045 -0.924504 0.363396 -0.239301 -0.916419 0.320797 
-0.520904 -0.800503 0.296401 -0.399616 -0.863145 0.308687 0.286024 -0.822498 0.491617 
0.124714 -0.827113 0.548024 0.16082 -0.818531 0.551492 0.0656462 -0.860853 0.504601 
-0.0884568 -0.914389 0.395055 -0.0530399 -0.899968 0.432717 -0.110326 -0.937459 0.330151 
0.282334 0.957968 -0.0508436 0.0978036 0.980699 -0.169303 -0.00165602 0.929928 -0.367738 
-0.0732378 0.84878 -0.52365 -0.119953 0.787851 -0.604071 -0.103756 0.781645 -0.615033 
-0.120502 0.835657 -0.535869 0.460971 0.887403 -0.00471712 0.529698 0.848118 0.0108112 
-0.20889 0.830571 -0.516253 -0.157323 0.744385 -0.648953 -0.0944113 0.748227 -0.65669 
-0.187821 0.837482 -0.513173 -0.107835 0.81084 -0.575248 -0.236875 0.830536 -0.504083 
-0.353952 0.803854 -0.478055 -0.513385 0.735455 -0.442201 0.77491 0.631529 0.0261695 
0.789589 0.613058 0.0266114 -0.158749 0.623006 -0.765939 -0.299527 0.688211 -0.660795 
-0.517107 0.733482 -0.44114 -0.512171 0.733115 -0.447462 -0.759366 0.546863 -0.352568 
0.907121 0.420025 0.0266541 -0.423968 0.547647 -0.721342 -0.7677 0.536731 -0.350081 
-0.756586 0.538746 -0.37058 0.970382 0.237693 0.0431427 0.991508 0.117554 0.0556151 
-0.908491 0.298068 -0.292915 -0.754997 0.346995 -0.556393 0.997716 0.0224249 0.0637135 
0.987521 -0.119605 0.102452 0.993492 0.0474092 -0.103562 -0.978277 0.0916605 -0.185935 
0.979172 -0.167098 0.115323 -0.975407 -0.162451 -0.148967 0.903702 -0.385681 0.185937 
-0.915029 -0.381466 -0.131174 -0.846657 -0.517591 -0.123578 -0.800903 -0.357722 -0.480197 
0.780705 -0.565059 0.26685 0.768383 -0.578252 0.27425 -0.788798 -0.600435 -0.131435 
-0.624933 -0.76773 -0.141596 0.633504 -0.692502 0.345128 0.608763 -0.709567 0.354855 
0.441054 -0.802766 0.401296 -0.165321 -0.970896 -0.17329 -0.261831 -0.946973 -0.186245 
-0.563339 -0.8128 -0.148342 -0.41034 -0.895758 -0.170995 -0.352055 -0.750059 -0.559883 
0.390382 -0.832272 0.393606 0.450164 -0.856522 0.252434 0.278409 -0.883253 0.377297 
0.0959965 -0.942841 0.319116 -0.0683968 -0.980112 0.186288 -0.172917 -0.984204 0.0379726 
-0.165971 -0.971484 -0.169332 -0.187545 -0.978258 -0.088534 -0.245008 -0.931293 -0.269562 
0.202222 0.951808 -0.230582 -0.0304529 0.95634 -0.290664 -0.187029 0.900143 -0.3934 
0.33365 0.916388 -0.221156 0.514563 0.831835 -0.208026 0.197826 0.91854 -0.34227 
-0.0604933 0.914454 -0.400143 -0.214688 0.872305 -0.439311 -0.204708 0.885102 -0.417957 
-0.269726 0.814434 -0.513755 -0.252981 0.699872 -0.667967 -0.133489 0.622001 -0.771554 
-0.0783553 0.567821 -0.819414 0.759518 0.620305 -0.195842 0.803962 0.561044 -0.197166 
-0.350461 0.704467 -0.617174 -0.152131 0.618691 -0.770764 -0.0892312 0.572031 -0.815364 
-0.0785435 0.564316 -0.821814 -0.145556 0.597368 -0.788648 -0.26618 0.599483 -0.75483 
0.887224 0.416295 -0.198828 -0.355715 0.586552 -0.727615 -0.136143 0.46863 -0.872841 
-0.0990299 0.475537 -0.874104 -0.411219 0.545716 -0.730132 -0.233539 0.518847 -0.822348 
-0.422245 0.539686 -0.728319 0.949542 0.249957 -0.189453 -0.18539 0.346986 -0.919365 
-0.656044 0.365605 -0.660257 -0.406924 0.380585 -0.830402 -0.726842 0.266954 -0.6328 
0.984337 0.0569533 -0.166842 -0.400247 0.159482 -0.902423 -0.771366 0.160243 -0.615888 
-0.716388 0.161237 -0.678815 0.984724 -0.115751 -0.130082 -0.39196 -0.03874 -0.919166 
-0.804828 -0.124394 -0.580326 -0.773773 -0.285636 -0.56541 -0.740757 -0.110376 -0.662643 
0.944066 -0.321631 -0.0727489 -0.749208 -0.34621 -0.564646 -0.458864 -0.306969 -0.833795 
0.858308 -0.513135 -0.00017369 0.821506 -0.569982 0.015744 -0.126556 -0.375548 -0.918122 
-0.0941102 -0.421205 -0.90207 -0.333829 -0.694649 -0.637198 -0.2931 -0.497556 -0.816413 
-0.576108 -0.555218 -0.599861 -0.531596 -0.596462 -0.601364 -0.521946 -0.545667 -0.655607 
0.73252 -0.679224 0.0454866 0.653302 -0.754167 0.0665558 -0.312672 -0.777758 -0.545278 
-0.350412 -0.54495 -0.761736 -0.191993 -0.735583 -0.649659 -0.18201 -0.632292 -0.753046 
-0.288786 -0.715864 -0.635721 -0.196547 -0.75026 -0.631253 -0.185452 -0.689255 -0.700382 
0.50582 -0.86008 0.066391 0.451096 -0.890378 0.0611516 0.211087 -0.977434 0.00809709 
-0.0129006 -0.997235 -0.0731775 -0.221296 -0.955851 -0.193333 -0.338789 -0.836423 -0.430835 
-0.35036 -0.866762 -0.354924 -0.387824 -0.804598 -0.449683 0.517609 0.70765 -0.480949 
0.195901 0.849357 -0.490117 -0.0752689 0.876222 -0.475993 -0.264761 0.814825 -0.515714 
-0.4032 0.731928 -0.549282 0.624721 0.62237 -0.471571 0.772687 0.444721 -0.452966 
0.512439 0.612284 -0.602091 0.19215 0.601797 -0.77519 -0.0320137 0.621098 -0.783079 
-0.24575 0.677091 -0.693653 -0.408735 0.717981 -0.563417 -0.401785 0.70315 -0.586642 
-0.425456 0.684003 -0.59256 0.789553 0.415254 -0.451852 0.763589 0.412808 -0.496509 
-0.382998 0.59541 -0.706258 -0.432649 0.557009 -0.708912 -0.38985 0.548527 -0.739686 
-0.189768 0.328936 -0.925089 -0.0744718 0.348957 -0.934175 0.857569 0.256775 -0.445692 
0.707443 0.248818 -0.661524 -0.498064 0.254263 -0.829025 -0.205843 0.292876 -0.93373 
-0.0996455 0.342987 -0.93404 -0.0735958 0.341893 -0.936853 -0.182424 0.292394 -0.938737 
0.900577 0.0869447 -0.425913 0.653445 0.106939 -0.749382 -0.497478 -0.00883214 -0.867431 
-0.130304 0.106799 -0.985705 -0.0408821 0.145664 -0.988489 -0.327542 0.155442 -0.931962 
-0.177821 0.152702 -0.972143 0.912239 -0.0776359 -0.402234 0.655105 -0.0455445 -0.754164 
-0.471989 -0.0729865 -0.878578 -0.0859548 -0.0118356 -0.996229 -0.0281721 -0.0222629 -0.999355 
-0.361251 -0.0365894 -0.931751 -0.166826 -0.041993 -0.985092 0.891414 -0.26882 -0.364851 
0.732823 -0.225668 -0.641907 -0.382539 -0.152672 -0.911238 -0.125335 -0.368639 -0.921084 
-0.101674 -0.148752 -0.983634 -0.0842563 -0.366711 -0.926512 -0.0714499 -0.19092 -0.979002 
-0.303563 -0.24578 -0.920566 -0.233559 -0.314532 -0.920065 -0.201795 -0.209965 -0.956657 
0.829521 -0.465263 -0.30891 0.815564 -0.492714 -0.303459 0.809381 -0.456379 -0.369621 
-0.435704 -0.325151 -0.839308 -0.133915 -0.37315 -0.918056 -0.337977 -0.408625 -0.847819 
-0.332511 -0.321055 -0.88677 0.70194 -0.648736 -0.293976 0.640073 -0.708483 -0.297252 
0.608616 -0.627873 -0.485141 -0.36548 -0.434242 -0.823321 -0.400028 -0.501177 -0.767332 
-0.442551 -0.561819 -0.698933 -0.43931 -0.471649 -0.764561 0.386599 -0.856015 -0.343191 
0.380784 -0.858092 -0.344501 0.3791 -0.855333 -0.353113 0.137504 -0.904334 -0.404069 
0.110196 -0.807082 -0.580065 -0.122624 -0.855347 -0.503334 -0.14941 -0.762809 -0.629126 
-0.351039 -0.72965 -0.586842 -0.342047 -0.738127 -0.581526 -0.344167 -0.728992 -0.591709 
0.466433 0.381547 -0.798037 0.197986 0.556894 -0.806641 -0.0315298 0.619306 -0.784516 
-0.23022 0.615142 -0.754055 -0.375012 0.50335 -0.778463 0.48163 0.365604 -0.796471 
0.465531 0.362842 -0.807234 0.247303 0.362756 -0.898471 0.0280156 0.416043 -0.908913 
-0.207053 0.458863 -0.864045 -0.38632 0.471935 -0.792486 -0.370199 0.453823 -0.810554 
-0.375474 0.289235 -0.880547 0.57667 0.229057 -0.784209 0.424732 0.204545 -0.881909 
0.259607 0.172902 -0.95011 0.0731904 0.175579 -0.981741 -0.196323 0.185946 -0.962747 
-0.390181 0.183252 -0.902318 -0.388744 0.236498 -0.890475 -0.362458 0.232727 -0.902476 
0.621993 0.104543 -0.776012 0.393541 0.085354 -0.915336 0.219651 0.0557245 -0.973986 
0.0547144 0.00872008 -0.998464 -0.200098 -0.0279163 -0.979378 -0.357595 0.0121209 -0.933798 
-0.434296 0.0391931 -0.899917 -0.366429 0.0753684 -0.927389 0.651389 -0.0447863 -0.757421 
0.384555 -0.00592408 -0.923083 0.178085 0.00174457 -0.984013 -0.00731026 -0.0372524 -0.999279 
-0.204632 -0.0981747 -0.973903 -0.291716 -0.0646989 -0.954314 -0.458938 -0.0843844 -0.884452 
-0.398435 -0.0619098 -0.915105 0.642456 -0.198435 -0.740185 0.425251 -0.130821 -0.895571 
0.197328 -0.0946464 -0.975758 -0.0464989 -0.106348 -0.993241 -0.234621 -0.142837 -0.961535 
-0.311931 -0.152108 -0.93785 -0.430782 -0.215384 -0.876377 -0.430585 -0.244258 -0.86887 
-0.42371 -0.216218 -0.879613 0.583821 -0.385556 -0.714493 0.524076 -0.464305 -0.713979 
0.498428 -0.363813 -0.786899 0.197273 -0.288532 -0.936927 -0.0544363 -0.265847 -0.962477 
-0.242234 -0.261081 -0.93443 -0.393381 -0.297206 -0.870011 -0.361023 -0.350384 -0.86423 
-0.351341 -0.271313 -0.896074 0.371171 -0.565222 -0.736719 0.291395 -0.596827 -0.747588 
0.277663 -0.545636 -0.790686 0.0367988 -0.60507 -0.795321 -0.00716295 -0.484901 -0.874539 
-0.296988 -0.429804 -0.852682 -0.213752 -0.513425 -0.831087 -0.229096 -0.429202 -0.873671 

