# vtk DataFile Version 4.2
vtk output
ASCII
DATASET POLYDATA
POINTS 574 float
46.4566 -3.46338 -21.7114 -55.6804 -28.9976 -13.1813 -47.169 -28.9976 -15.0401 
-38.6576 -28.9976 -16.2499 -30.1461 -28.9976 -16.1206 -21.6347 -28.9976 -15.8447 
-13.1233 -28.9976 -15.3076 -4.61191 -28.9976 -15.0391 3.89951 -28.9976 -14.4219 
12.4109 -28.9976 -14.0272 20.9223 -28.9976 -15.143 29.4337 -28.9976 -16.5895 
37.9451 -28.9976 -17.5121 46.4566 -28.9976 -17.4957 54.968 -28.9976 -16.1264 
-55.6804 -20.4862 -15.6452 -47.169 -20.4862 -17.5832 -38.6576 -20.4862 -18.8015 
-30.1461 -20.4862 -17.8893 -21.6347 -20.4862 -16.9018 -13.1233 -20.4862 -16.562 
-4.61191 -20.4862 -15.4252 3.89951 -20.4862 -14.3595 12.4109 -20.4862 -14.5185 
20.9223 -20.4862 -16.481 29.4337 -20.4862 -18.5816 37.9451 -20.4862 -19.7014 
46.4566 -20.4862 -20.6949 54.968 -20.4862 -19.4277 63.4794 -20.4862 -17.1085 
-64.1918 -11.9748 -13.6358 -55.6804 -11.9748 -17.3856 -47.169 -11.9748 -19.4762 
-38.6576 -11.9748 -19.5022 -30.1461 -11.9748 -18.6325 -21.6347 -11.9748 -17.177 
-13.1233 -11.9748 -15.9271 -4.61191 -11.9748 -16.2055 3.89951 -11.9748 -13.9031 
12.4109 -11.9748 -13.6437 20.9223 -11.9748 -16.4217 29.4337 -11.9748 -19.0869 
37.9451 -11.9748 -21.42 46.4566 -4.11221 -21.6828 46.4566 -11.9748 -21.335 
54.968 -11.9748 -20.8119 63.4794 -11.9748 -18.958 -64.1918 -3.46338 -14.229 
-55.6804 -3.46338 -17.823 -47.169 -3.46338 -20.4107 -38.6576 -3.46338 -20.4301 
-30.1461 -3.46338 -19.6074 -21.6347 -3.46338 -17.9385 -13.1233 -3.46338 -18.431 
-4.61191 -3.46338 -19.486 3.89951 -3.46338 -17.3666 20.9223 -3.46338 -16.5874 
29.4337 -3.46338 -19.5112 46.1053 -3.46338 -21.6828 37.9451 -3.46338 -21.0094 
47.105 -3.46338 -21.6828 46.4566 -1.65599 -21.6828 54.968 -3.46338 -21.3234 
63.4794 -3.46338 -19.871 71.9908 -3.46338 -13.8529 -55.6804 5.04803 -17.2737 
-47.169 5.04803 -20.2808 -38.6576 5.04803 -20.8319 -30.1461 5.04803 -20.2761 
-21.6347 5.04803 -18.9439 -13.1233 5.04803 -20.3486 -4.61191 5.04803 -19.5768 
3.89951 5.04803 -17.3425 12.4109 5.04803 -16.0873 20.9223 5.04803 -17.2963 
29.4337 5.04803 -19.584 37.9451 5.04803 -21.3852 46.4566 5.04803 -21.5739 
54.968 5.04803 -21.0885 63.4794 5.04803 -19.8848 71.9908 5.04803 -14.14 
-55.6804 13.5594 -16.777 -47.169 13.5594 -19.4359 -38.6576 13.5594 -20.4535 
-30.1461 13.5594 -20.5917 -21.6347 13.5594 -20.0218 -13.1233 13.5594 -20.0683 
-4.61191 13.5594 -19.0484 3.89951 13.5594 -17.5394 12.4109 13.5594 -18.4008 
20.9223 13.5594 -18.7076 29.4337 13.5594 -19.6428 37.9451 13.5594 -20.5783 
46.4566 13.5594 -20.6582 54.968 13.5594 -19.289 63.4794 13.5594 -16.6456 
-55.6804 22.0709 -14.2464 -47.169 22.0709 -18.058 -38.6576 22.0709 -19.6412 
-30.1461 22.0709 -20.5741 -21.6347 22.0709 -19.8052 -13.1233 22.0709 -18.7964 
-4.61191 22.0709 -17.3646 3.89951 22.0709 -17.2428 12.4109 22.0709 -18.8807 
20.9223 22.0709 -19.6331 29.4337 22.0709 -20.0937 37.9451 22.0709 -19.7958 
46.4566 22.0709 -18.9854 54.968 22.0709 -18.1515 63.4794 22.0709 -15.1729 
-47.169 30.5823 -15.786 -38.6576 30.5823 -17.3557 -30.1461 30.5823 -18.0561 
-21.6347 30.5823 -17.7495 -13.1233 30.5823 -16.8623 -4.61191 30.5823 -15.7205 
3.89951 30.5823 -16.2592 12.4109 30.5823 -18.0306 20.9223 30.5823 -18.7787 
29.4337 30.5823 -18.5282 37.9451 30.5823 -17.542 46.4566 30.5823 -16.945 
12.4109 39.0937 -13.5337 20.9223 39.0937 -14.5789 29.4337 39.0937 -14.3427 
-55.6804 -29.0138 -13.1714 -55.6804 -37.509 -5.15978 -47.169 -32.3009 -13.1714 
-47.169 -37.509 -9.30558 -38.6576 -34.3436 -13.1714 -38.6576 -37.509 -10.7781 
-30.1461 -34.5466 -13.1714 -30.1461 -37.509 -11.2182 -21.6347 -34.6391 -13.1714 
-21.6347 -37.509 -11.2278 -13.1233 -34.1961 -13.1714 -13.1233 -37.509 -11.3013 
-4.61191 -33.5804 -13.1714 -4.61191 -37.509 -11.0898 3.89951 -32.2931 -13.1714 
3.89951 -37.509 -10.5366 12.4109 -31.3235 -13.1714 12.4109 -37.509 -9.84441 
20.9223 -33.0754 -13.1714 20.9223 -37.509 -9.99465 29.4337 -35.6119 -13.1714 
29.4337 -37.509 -11.4675 37.9451 -35.2385 -13.1714 37.9451 -37.509 -10.7818 
46.4566 -34.9801 -13.1714 46.4566 -37.509 -10.2399 54.968 -32.4323 -13.1714 
-55.6974 -28.9976 -13.1714 -64.1918 -28.9976 -5.02668 60.2697 -28.9976 -13.1714 
63.4794 -26.8766 -13.1714 63.4794 -28.9976 -8.97961 -60.5979 -20.4862 -13.1714 
-64.1918 -13.909 -13.1714 -64.1918 -20.4862 -10.9529 68.1939 -20.4862 -13.1714 
-64.7344 -11.9748 -13.1714 12.4109 -4.2779 -13.1714 70.7975 -11.9748 -13.1714 
71.9908 -7.33976 -13.1714 71.9908 -11.9748 -11.3424 -65.4223 -3.46338 -13.1714 
-64.1918 3.32712 -13.1714 12.2553 -3.46338 -13.1714 12.5358 -3.46338 -13.1714 
12.4109 -3.30342 -13.1714 12.4109 -3.46338 -13.1166 72.6646 -3.46338 -13.1714 
-63.6809 5.04803 -13.1714 -64.1918 5.04803 -12.7417 72.9832 5.04803 -13.1714 
71.9908 8.12315 -13.1714 -61.7329 13.5594 -13.1714 -64.1918 13.5594 -11.4086 
68.9183 13.5594 -13.1714 71.9908 13.5594 -10.2364 -57.2133 22.0709 -13.1714 
-64.1918 22.0709 -6.92754 -55.6804 25.7752 -13.1714 54.968 29.6995 -13.1714 
66.0527 22.0709 -13.1714 63.4794 24.9618 -13.1714 -52.6071 30.5823 -13.1714 
-55.6804 30.5823 -11.447 -47.169 34.8752 -13.1714 -38.6576 38.0425 -13.1714 
-30.1461 39.0897 -13.1714 -21.6347 38.7156 -13.1714 -13.1233 37.8949 -13.1714 
-4.61191 36.3201 -13.1714 3.89951 37.4279 -13.1714 37.9451 37.7573 -13.1714 
53.744 30.5823 -13.1714 46.4566 34.5834 -13.1714 54.968 30.5823 -12.5114 
-47.169 39.0937 -9.59826 -38.6576 39.0937 -12.3592 -30.1461 39.0937 -13.168 
-21.6347 39.0937 -12.8658 -13.1233 39.0937 -12.3324 -4.61191 39.0937 -11.5306 
10.136 39.0937 -13.1714 3.89951 39.0937 -12.0451 12.4109 39.4669 -13.1714 
20.9223 40.5373 -13.1714 34.3251 39.0937 -13.1714 29.4337 40.3153 -13.1714 
37.9451 39.0937 -11.5963 46.4566 39.0937 -7.11233 -55.6804 -37.8454 -4.65995 
-47.169 -40.8713 -4.65995 -38.6576 -42.527 -4.65995 -30.1461 -43.6708 -4.65995 
-30.1461 -46.0204 2.60566 -21.6347 -43.0779 -4.65995 -21.6347 -46.0204 3.80472 
-13.1233 -42.852 -4.65995 -4.61191 -42.9223 -4.65995 3.89951 -42.3674 -4.65995 
12.4109 -41.295 -4.65995 20.9223 -41.3925 -4.65995 29.4337 -41.1095 -4.65995 
37.9451 -41.4042 -4.65995 46.4566 -40.6553 -4.65995 -56.1525 -37.509 -4.65995 
-64.1918 -29.3265 -4.65995 54.0308 -37.509 -4.65995 54.968 -37.0365 -4.65995 
63.4794 -31.0828 -4.65995 -64.4642 -28.9976 -4.65995 65.3541 -28.9976 -4.65995 
63.4794 -28.9976 2.02573 -69.0537 -20.4862 -4.65995 71.4613 -20.4862 -4.65995 
71.9908 -19.1754 -4.65995 -70.5464 -11.9748 -4.65995 74.8063 -11.9748 -4.65995 
-71.3397 -3.46338 -4.65995 -72.7032 -3.46338 3.04159 76.7256 -3.46338 -4.65995 
-69.8214 5.04803 -4.65995 76.921 5.04803 -4.65995 -68.8747 13.5594 -4.65995 
75.2155 13.5594 -4.65995 71.9908 21.2741 -4.65995 -65.7833 22.0709 -4.65995 
-64.1918 25.7756 -4.65995 71.585 22.0709 -4.65995 63.4794 30.5587 -4.65995 
-61.6745 30.5823 -4.65995 -55.6804 37.568 -4.65995 63.4515 30.5823 -4.65995 
54.968 36.2939 -4.65995 -53.438 39.0937 -4.65995 -47.169 42.1475 -4.65995 
-38.6576 44.2476 -4.65995 -30.1461 45.498 -4.65995 -21.6347 45.0982 -4.65995 
-13.1233 44.8619 -4.65995 -4.61191 44.673 -4.65995 3.89951 44.4671 -4.65995 
12.4109 44.6258 -4.65995 20.9223 44.051 -4.65995 29.4337 43.6371 -4.65995 
37.9451 42.4284 -4.65995 49.1615 39.0937 -4.65995 46.4566 40.274 -4.65995 
46.4566 39.0937 1.66028 -30.1461 -46.344 3.85146 -21.6347 -46.0341 3.85146 
-55.6804 -39.1447 3.85146 -47.169 -42.8481 3.85146 -31.9937 -46.0204 3.85146 
-38.6576 -44.8534 3.85146 -30.1461 -46.0204 5.224 -21.2332 -46.0204 3.85146 
-21.6347 -46.0204 3.94424 -13.1233 -45.7427 3.85146 -4.61191 -45.4133 3.85146 
3.89951 -44.5925 3.85146 12.4109 -43.1955 3.85146 20.9223 -42.4507 3.85146 
29.4337 -41.8641 3.85146 37.9451 -41.5182 3.85146 46.4566 -39.8827 3.85146 
-57.8736 -37.509 3.85146 -64.1918 -31.7107 3.85146 -55.6804 -37.509 8.20672 
37.9451 -37.509 10.299 51.6439 -37.509 3.85146 46.4566 -37.509 7.92172 
54.968 -35.7402 3.85146 -66.4897 -28.9976 3.85146 -64.1918 -28.9976 9.02965 
62.9596 -28.9976 3.85146 54.968 -28.9976 11.5589 63.4794 -28.389 3.85146 
-70.4316 -20.4862 3.85146 69.5471 -20.4862 3.85146 63.4794 -20.4862 11.2265 
71.9908 -14.8054 3.85146 -72.5504 -11.9748 3.85146 -72.7032 -7.17755 3.85146 
73.0928 -11.9748 3.85146 71.9908 -11.9748 5.49867 -72.8215 -3.46338 3.85146 
-72.7032 -2.3039 3.85146 -72.7032 -3.46338 4.27333 75.7291 -3.46338 3.85146 
71.9908 -3.46338 9.37487 -71.9457 5.04803 3.85146 76.1469 5.04803 3.85146 
71.9908 5.04803 10.0572 -70.6931 13.5594 3.85146 74.5333 13.5594 3.85146 
71.9908 20.29 3.85146 71.9908 13.5594 7.60589 -67.6745 22.0709 3.85146 
-64.1918 29.6615 3.85146 71.0776 22.0709 3.85146 63.4794 29.2039 3.85146 
63.4794 22.0709 11.0557 -63.6587 30.5823 3.85146 -55.6804 39.0837 3.85146 
46.4566 38.4852 3.85146 61.57 30.5823 3.85146 54.968 34.5307 3.85146 
54.968 30.5823 10.0544 -55.6639 39.0937 3.85146 -47.169 43.009 3.85146 
-38.6576 45.0516 3.85146 -30.1461 46.4738 3.85146 -21.6347 46.3158 3.85146 
-13.1233 46.1398 3.85146 -4.61191 45.4493 3.85146 3.89951 44.1321 3.85146 
3.89951 39.0937 11.924 12.4109 43.0381 3.85146 12.4109 39.0937 9.73324 
20.9223 42.2629 3.85146 20.9223 39.0937 8.07121 29.4337 41.6374 3.85146 
29.4337 39.0937 7.06764 44.1932 39.0937 3.85146 37.9451 40.335 3.85146 
37.9451 39.0937 5.57926 -47.169 -38.7265 12.3629 -38.6576 -42.431 12.3629 
-30.1461 -43.7583 12.3629 -21.6347 -44.3803 12.3629 -13.1233 -44.2066 12.3629 
-4.61191 -43.588 12.3629 3.89951 -42.2602 12.3629 12.4109 -40.667 12.3629 
20.9223 -39.5161 12.3629 29.4337 -38.3652 12.3629 -50.335 -37.509 12.3629 
-55.6804 -34.3696 12.3629 -47.169 -37.509 13.7719 -38.6576 -37.509 16.6128 
-30.1461 -37.509 18.0358 -21.6347 -37.509 18.0988 -13.1233 -37.509 18.0601 
-4.61191 -37.509 17.6056 3.89951 -37.509 16.7787 12.4109 -37.509 15.5116 
20.9223 -37.509 14.4113 32.601 -37.509 12.3629 29.4337 -37.509 13.2264 
37.9451 -35.2168 12.3629 46.4566 -32.3524 12.3629 -61.2384 -28.9976 12.3629 
-64.1918 -25.8267 12.3629 -55.6804 -28.9976 15.8908 -47.169 -28.9976 18.8643 
-30.1461 -28.9976 20.5338 -21.6347 -28.9976 20.243 -13.1233 -28.9976 20.0812 
[...]
POINT_DATA 574
SCALARS ImageScalars float
LOOKUP_TABLE default
0 0 0 0 0 0 0 0 0 
0 0 0 0 0 0 0 0 0 
0 0 0 0 0 0 0 0 0 
0 0 0 0 0 0 0 0 0 
0 0 0 0 0 0 0 0 0 
0 0 0 0 0 0 0 0 0 
0 0 0 0 0 0 0 0 0 
0 0 0 0 0 0 0 0 0 
0 0 0 0 0 0 0 0 0 
0 0 0 0 0 0 0 0 0 
0 0 0 0 0 0 0 0 0 
0 0 0 0 0 0 0 0 0 
0 0 0 0 0 0 0 0 0 
0 0 0 0 0 0 0 0 0 
0 0 0 0 0 0 0 0 0 
0 0 0 0 0 0 0 0 0 
0 0 0 0 0 0 0 0 0 
0 0 0 0 0 0 0 0 0 
0 0 0 0 0 0 0 0 0 
0 0 0 0 0 0 0 0 0 
0 0 0 0 0 0 0 0 0 
0 0 0 0 0 0 0 0 0 
0 0 0 0 0 0 0 0 0 
0 0 0 0 0 0 0 0 0 
0 0 0 0 0 0 0 0 0 
0 0 0 0 0 0 0 0 0 
0 0 0 0 0 0 0 0 0 
0 0 0 0 0 0 0 0 0 
0 0 0 0 0 0 0 0 0 
0 0 0 0 0 0 0 0 0 
0 0 0 0 0 0 0 0 0 
0 0 0 0 0 0 0 0 0 
0 0 0 0 0 0 0 0 0 
0 0 0 0 0 0 0 0 0 
0 0 0 0 0 0 0 0 0 
0 0 0 0 0 0 0 0 0 
0 0 0 0 0 0 0 0 0 
0 0 0 0 0 0 0 0 0 
0 0 0 0 0 0 0 0 0 
0 0 0 0 0 0 0 0 0 
0 0 0 0 0 0 0 0 0 
0 0 0 0 0 0 0 0 0 
0 0 0 0 0 0 0 0 0 
0 0 0 0 0 0 0 0 0 
0 0 0 0 0 0 0 0 0 
0 0 0 0 0 0 0 0 0 
0 0 0 0 0 0 0 0 0 
0 0 0 0 0 0 0 0 0 
0 0 0 0 0 0 0 0 0 
0 0 0 0 0 0 0 0 0 
0 0 0 0 0 0 0 0 0 
0 0 0 0 0 0 0 0 0 
0 0 0 0 0 0 0 0 0 
0 0 0 0 0 0 0 0 0 
0 0 0 0 0 0 0 0 0 
0 0 0 0 0 0 0 0 0 
0 0 0 0 0 0 0 0 0 
0 0 0 0 0 0 0 0 0 
0 0 0 0 0 0 0 0 0 
0 0 0 0 0 0 0 0 0 
0 0 0 0 0 0 0 0 0 
0 0 0 0 0 0 0 0 0 
0 0 0 0 0 0 0 0 0 
0 0 0 0 0 0 0 
NORMALS Normals float
0.0185506 0.0141107 0.999728 0.395254 0.443993 0.804142 0.186601 0.401299 0.896738 
0.0514797 0.393014 0.91809 -0.0245157 0.325609 0.945187 -0.0447993 0.277243 0.959755 
-0.0476216 0.265892 0.962826 -0.0508644 0.208452 0.976709 -0.0584119 0.174692 0.982889 
0.0425631 0.204877 0.977862 0.139756 0.300169 0.943593 0.13501 0.351067 0.926566 
0.0494423 0.402595 0.914042 -0.0611481 0.450393 0.890734 -0.309935 0.542728 0.780632 
0.333249 0.25168 0.908626 0.164297 0.231216 0.958929 0.0155213 0.194452 0.980789 
-0.109246 0.140446 0.984043 -0.076535 0.0778081 0.994026 -0.0852522 0.0328233 0.995819 
-0.1267 0.059792 0.990137 -0.0548973 -0.0228415 0.998231 0.112521 -0.0214578 0.993418 
0.238324 0.0763222 0.968182 0.178608 0.134224 0.974722 0.116045 0.20925 0.970952 
-0.0184335 0.229796 0.973064 -0.209499 0.222216 0.952224 -0.503737 0.346665 0.791247 
0.62101 0.146121 0.770062 0.322678 0.109906 0.940106 0.129944 0.160321 0.978474 
-0.0493605 0.0934273 0.994402 -0.128072 0.0990885 0.986802 -0.163682 0.0609274 0.98463 
-0.0544471 0.072597 0.995874 -0.0853772 0.233974 0.968487 -0.155013 0.123353 0.980181 
0.146984 -0.0797252 0.985921 0.318442 0.00628224 0.947921 0.273708 0.0522465 0.960393 
0.127861 0.0747839 0.988969 0.0146923 0.0173128 0.999742 -0.0339688 0.0573894 0.997774 
-0.117688 0.115254 0.98634 -0.412035 0.158626 0.897254 0.610215 -0.0378921 0.791329 
0.339865 -0.00521787 0.94046 0.153971 0.0445498 0.987071 -0.0469754 0.0773515 0.995897 
-0.140366 0.0951145 0.98552 -0.0793145 0.102607 0.991555 0.0923348 0.280823 0.955308 
-0.0344062 0.181319 0.982822 -0.384123 0.178531 0.905856 0.330638 0.050459 0.942408 
0.250038 0.0284716 0.967817 0.0231199 0.0135208 0.999641 0.132361 -0.00340664 0.991196 
0.010916 0.0141973 0.99984 0.0109833 -0.00262277 0.999936 -0.0909837 0.0155613 0.995731 
-0.397265 0.0417588 0.916753 -0.708251 0.088087 0.700444 0.394609 -0.0560474 0.917138 
0.200336 -0.0523951 0.978325 -0.00235449 0.00161126 0.999996 -0.108844 0.057504 0.992394 
-0.00554273 0.122787 0.992418 0.0491173 0.0741913 0.996034 -0.191727 -0.0279147 0.981051 
-0.176891 0.0108195 0.984171 0.00100408 0.293526 0.955951 0.19777 0.123858 0.972392 
0.227075 0.00755708 0.973848 0.119664 -0.0262641 0.992467 -0.0174867 -0.065095 0.997726 
-0.0841422 -0.117116 0.989547 -0.373199 -0.149555 0.915618 -0.686437 -0.12531 0.716311 
0.414776 -0.152575 0.897041 0.192936 -0.126576 0.973013 0.0641896 -0.0726418 0.99529 
-0.0254963 0.0175314 0.999521 -0.0306798 0.0494643 0.998305 -0.0516795 -0.0861403 0.994942 
-0.153542 -0.128214 0.979789 -0.0305073 -0.00666662 0.999512 0.0669168 0.145356 0.987114 
0.0728077 0.135579 0.988088 0.109108 0.0292768 0.993599 0.0594985 -0.0948378 0.993713 
-0.0698465 -0.140262 0.987648 -0.209525 -0.153776 0.965636 -0.442452 -0.250969 0.860959 
0.50389 -0.249543 0.826936 0.285219 -0.181465 0.941127 0.134037 -0.161311 0.977759 
0.0134471 -0.146601 0.989104 -0.100424 -0.125804 0.986959 -0.14047 -0.178929 0.973783 
-0.088153 -0.184444 0.978882 0.0897262 -0.0755929 0.993094 0.1396 -0.0171956 0.990059 
0.0704328 0.00757519 0.997488 0.00761608 -0.0686294 0.997613 -0.0585585 -0.155776 0.986055 
-0.0928297 -0.190827 0.977225 -0.230365 -0.325184 0.917163 -0.472911 -0.397363 0.786421 
0.30077 -0.389888 0.870359 0.114779 -0.365604 0.923667 0.019498 -0.377166 0.92594 
-0.065847 -0.360067 0.9306 -0.115029 -0.328467 0.937485 -0.0300306 -0.290066 0.956535 
0.123024 -0.244185 0.961893 0.146971 -0.253469 0.956113 0.0259575 -0.2566 0.966169 
-0.0648284 -0.293646 0.953713 -0.0868259 -0.362893 0.927777 -0.242774 -0.47232 0.847334 
0.119494 -0.657353 0.744049 0.0389099 -0.663093 0.747525 -0.104124 -0.691537 0.714797 
0.395576 0.444563 0.803668 0.50778 0.754236 0.416279 0.194066 0.506324 0.840223 
0.232375 0.729351 0.643466 0.0622503 0.556273 0.828665 0.0751494 0.685247 0.724423 
0.00982692 0.519174 0.854612 0.0209393 0.644411 0.764393 -0.00773624 0.499145 0.866484 
0.00353836 0.641849 0.766823 -0.0276659 0.458228 0.888404 -0.00638421 0.623316 0.781944 
-0.044235 0.406179 0.912722 -0.0345495 0.618654 0.784904 -0.0527033 0.320125 0.945908 
-0.0559498 0.63164 0.77324 0.0292633 0.306821 0.951317 -0.0257232 0.693401 0.720093 
0.108305 0.454702 0.884034 0.0530611 0.713573 0.698568 0.060765 0.623824 0.779199 
0.0363003 0.750468 0.659909 -0.0225612 0.662662 0.748579 -0.0441154 0.800027 0.59834 
-0.108088 0.691524 0.714221 -0.158271 0.840447 0.518266 -0.331942 0.67911 0.654694 
0.395964 0.444344 0.803599 0.687426 0.58874 0.425243 -0.48442 0.62235 0.614831 
-0.56636 0.565226 0.599797 -0.659037 0.678869 0.323738 0.478655 0.288753 0.829163 
0.617437 0.183868 0.764829 0.636022 0.313625 0.705064 -0.708617 0.362341 0.605451 
0.641522 0.145591 0.753162 0.0574061 0.121009 0.99099 -0.733241 0.221926 0.642734 
-0.739006 0.160613 0.654273 -0.820881 0.264353 0.506232 0.657097 -0.0403234 0.752726 
0.647917 -0.111359 0.753527 0.0380577 0.147755 0.988291 0.0514348 0.144142 0.988219 
0.0450351 0.149407 0.98775 0.0467123 0.145261 0.98829 -0.736781 0.0922244 0.669813 
0.638016 -0.128045 0.759303 0.661634 -0.127345 0.738934 -0.731378 -0.122382 0.670901 
-0.68743 -0.2001 0.698141 0.580355 -0.205859 0.787915 0.679995 -0.210477 0.702358 
-0.592541 -0.284421 0.753658 -0.759043 -0.33609 0.557581 0.542532 -0.257331 0.79965 
0.779638 -0.363987 0.509586 0.508337 -0.315359 0.801338 -0.376753 -0.550117 0.745271 
-0.591105 -0.418138 0.68975 -0.503646 -0.495516 0.707676 0.434015 -0.406968 0.803746 
0.538846 -0.432927 0.722647 0.31802 -0.536895 0.781414 0.128337 -0.642814 0.755195 
0.0197693 -0.637779 0.769966 -0.0356749 -0.626348 0.778727 -0.0685231 -0.574913 0.81534 
-0.014118 -0.489764 0.871741 0.096649 -0.554052 0.826853 -0.248312 -0.702628 0.666825 
-0.377985 -0.562515 0.735325 -0.295414 -0.650657 0.699555 -0.405296 -0.588246 0.699787 
0.348543 -0.742754 0.571694 0.129353 -0.69672 0.705584 0.0197648 -0.637989 0.769792 
-0.0336596 -0.646559 0.762121 -0.0580413 -0.636248 0.769298 -0.0119218 -0.637501 0.770357 
0.111855 -0.652426 0.749552 0.0840187 -0.667046 0.740264 0.118395 -0.671944 0.731077 
0.0407767 -0.742318 0.668806 -0.1996 -0.736686 0.646106 -0.116606 -0.750372 0.65065 
-0.256506 -0.810719 0.52625 -0.336908 -0.89713 0.285747 0.504988 0.766543 0.396735 
0.274955 0.85731 0.435225 0.140642 0.878788 0.456016 0.0332148 0.867711 0.495958 
0.0661548 0.995035 0.0743586 -0.0405327 0.867663 0.495498 -0.0350519 0.996612 0.0744025 
-0.00784231 0.876657 0.481052 -0.0262031 0.884422 0.465952 -0.0915702 0.888262 0.450117 
-0.0530097 0.904145 0.423924 -0.0114113 0.924995 0.379808 0.000695467 0.957375 0.288847 
-0.032895 0.963359 0.266189 -0.224674 0.953997 0.198524 0.519602 0.755265 0.399485 
0.688654 0.594936 0.414495 -0.425764 0.897083 0.11818 -0.453266 0.884745 0.108521 
-0.698172 0.713467 0.0593332 0.694451 0.588251 0.414366 -0.73551 0.675204 0.0558956 
-0.715452 0.627114 -0.307987 0.867476 0.304881 0.393108 -0.894702 0.440727 0.0725801 
-0.90655 0.41483 0.0779945 0.903733 0.119746 0.411008 -0.949822 0.300017 0.0884785 
0.919977 -0.0387481 0.390053 0.998997 -0.0356624 -0.0270685 -0.980469 0.118043 0.157308 
0.898313 -0.132542 0.418887 -0.983124 -0.0819001 0.163583 0.891261 -0.210007 0.401933 
-0.926532 -0.309101 0.214464 -0.835156 -0.498852 0.231649 0.832543 -0.371547 0.410882 
0.809006 -0.435945 0.394286 -0.82299 -0.519742 0.229251 -0.657323 -0.733959 0.170969 
0.769032 -0.515377 0.378121 0.595133 -0.718025 0.360911 -0.656737 -0.734455 0.171095 
-0.462341 -0.875648 0.13958 0.526062 -0.777874 0.343761 0.354754 -0.877507 0.322693 
0.176573 -0.933886 0.310933 0.0547771 -0.937651 0.343235 -0.0350714 -0.933739 0.356231 
-0.0242438 -0.927836 0.3722 -0.0228172 -0.930215 0.366305 -0.00197204 -0.961689 0.274135 
-0.0273062 -0.989222 0.143858 -0.0562765 -0.996217 0.0662147 -0.0944722 -0.994313 0.0491678 
-0.200792 -0.976394 0.0796007 -0.370991 -0.91935 0.130998 -0.334568 -0.933117 0.131744 
-0.324668 -0.899769 -0.291559 0.069002 0.997529 0.013186 -0.0349491 0.996762 0.0724225 
0.526612 0.845391 -0.0894107 0.320131 0.944989 -0.0671662 0.0958868 0.995287 0.0144514 
0.195057 0.980691 0.0140626 0.0748145 0.995629 -0.055901 -0.0350094 0.996739 0.0727086 
-0.0344726 0.99713 0.0674045 -0.036432 0.996381 0.0767935 -0.0673309 0.996769 0.0437937 
-0.130533 0.99144 0.00284578 -0.129684 0.991326 -0.0213196 -0.0744167 0.994161 -0.0781436 
-0.057838 0.989488 -0.132542 -0.120003 0.961918 -0.245587 -0.30659 0.897472 -0.317092 
0.581652 0.807555 -0.0976484 0.755952 0.648708 -0.0878366 0.526824 0.77151 -0.356691 
-0.194975 0.778004 -0.597239 -0.408729 0.850805 -0.330261 -0.306096 0.781433 -0.543753 
-0.476427 0.808569 -0.345303 0.819792 0.565553 -0.0899498 0.71374 0.58037 -0.392105 
-0.689596 0.602872 -0.401252 -0.423279 0.457372 -0.782078 -0.698646 0.591298 -0.402816 
0.936376 0.335214 -0.104077 -0.798433 0.446034 -0.404424 -0.524691 0.425125 -0.737542 
-0.840455 0.372228 -0.393804 0.989224 0.129696 -0.067928 0.997059 0.0369196 -0.0671533 
-0.858416 0.337084 -0.386647 -0.821067 0.337658 -0.460257 0.997171 -0.0349185 -0.0665575 
0.997018 -0.0471396 -0.0610929 0.995551 -0.0331818 -0.0881937 -0.939234 0.166751 -0.300055 
-0.754296 0.184872 -0.629968 0.991751 -0.125086 -0.0280039 -0.958704 -0.0642978 -0.277043 
-0.737265 -0.0732937 -0.671616 0.971492 -0.234365 -0.0357326 -0.90581 -0.284012 -0.314397 
-0.815269 -0.471156 -0.336673 -0.789987 -0.301448 -0.533901 0.924393 -0.378534 -0.0470061 
0.83445 -0.545697 -0.0768612 -0.780525 -0.524295 -0.340435 -0.590691 -0.713701 -0.376451 
-0.447479 -0.477292 -0.756277 0.81599 -0.572316 -0.0813359 0.577986 -0.806286 -0.125836 
-0.302008 -0.845586 -0.440199 -0.547364 -0.749434 -0.372479 -0.395063 -0.83325 -0.386808 
-0.385624 -0.629777 -0.674296 0.57749 -0.806631 -0.125903 0.343376 -0.927645 -0.146857 
0.191306 -0.969436 -0.153608 0.0756316 -0.986027 -0.148425 -0.0195547 -0.993425 -0.1128 
-0.0505819 -0.990385 -0.128756 -0.117556 -0.977163 -0.177012 -0.140644 -0.953943 -0.264975 
-0.155087 -0.651617 -0.742525 -0.105274 -0.921338 -0.374237 -0.148967 -0.740282 -0.655585 
-0.0817346 -0.897991 -0.432356 -0.110972 -0.759601 -0.640852 -0.107034 -0.874388 -0.473275 
-0.100804 -0.774485 -0.624509 -0.270223 -0.853703 -0.445164 -0.175048 -0.870923 -0.459186 
-0.162922 -0.826345 -0.539084 0.335465 0.751989 -0.567429 0.223538 0.812343 -0.538637 
0.100115 0.844198 -0.526599 0.0207856 0.868843 -0.494652 -0.0409044 0.868262 -0.494416 
-0.103832 0.847959 -0.519792 -0.155994 0.818681 -0.552655 -0.147718 0.798897 -0.583047 
-0.125817 0.773866 -0.620727 -0.172915 0.741247 -0.648578 0.386728 0.712933 -0.584951 
0.484409 0.606362 -0.630613 0.321501 0.705794 -0.631262 0.175884 0.570515 -0.802233 
0.0897694 0.48937 -0.867444 0.000978915 0.449857 -0.8931 -0.0287468 0.450477 -0.892325 
-0.0743743 0.462889 -0.88329 -0.118703 0.525116 -0.842712 -0.129715 0.620732 -0.773218 
-0.123106 0.657053 -0.743724 -0.190912 0.712338 -0.675372 -0.169542 0.698505 -0.695231 
-0.209855 0.628261 -0.749165 -0.266661 0.541811 -0.797078 0.588325 0.526076 -0.614099 
0.657446 0.447078 -0.606536 0.431287 0.447139 -0.783619 0.232973 0.321092 -0.917945 
-0.0537843 0.157594 -0.986038 -0.0259574 0.124471 -0.991884 -0.0391744 0.110742 -0.993077 
-0.0525102 0.0685783 -0.996263 -0.0461918 0.0951534 -0.99439 -0.0379162 0.175841 -0.983688 
-0.0858434 0.220202 -0.97167 -0.131328 0.286921 -0.948909 -0.143441 0.368099 -0.918656 
-0.374755 0.439974 -0.816077 -0.254505 0.425953 -0.868212 -0.39023 0.411511 -0.823638 
0.752787 0.297075 -0.587417 0.617492 0.292465 -0.730183 0.341869 0.212326 -0.915447 
-0.0637172 -0.0129611 -0.997884 -0.0874638 -0.0235064 -0.99589 -0.0846026 9.25757e-05 -0.996415 
0.00545228 -0.0186294 -0.999812 0.0102689 -0.034706 -0.999345 -0.00787667 -0.0434324 -0.999025 
-0.0238268 0.0730581 -0.997043 -0.103351 0.168279 -0.980306 -0.201637 0.217917 -0.954911 
-0.45174 0.393368 -0.800745 -0.321694 0.327339 -0.888461 -0.505921 0.357721 -0.784907 
0.779721 0.135346 -0.611324 0.582439 0.151412 -0.798648 0.220585 0.141419 -0.965061 
-0.0996448 -0.0965453 -0.990328 -0.0264332 0.0113615 -0.999586 -0.0517015 0.0846476 -0.995069 
-0.0821235 -0.00147209 -0.996621 -0.0654796 0.0645591 -0.995763 0.0280283 -0.083083 -0.996148 
0.0852387 -0.00594489 -0.996343 0.0211661 0.0903583 -0.995684 -0.124122 0.192738 -0.973368 
-0.268681 0.186445 -0.945013 -0.571914 0.244933 -0.782894 -0.488379 0.22145 -0.844065 
0.81127 0.0101688 -0.584583 0.565293 0.018306 -0.824687 -0.204347 -0.0109444 -0.978837 
-0.0276805 -0.054781 -0.998115 0.125596 0.129051 -0.983652 -0.0997092 0.0946986 -0.9905 
0.0199911 -0.0252126 -0.999482 -0.126558 0.233074 -0.964189 -0.0637974 -0.053832 -0.99651 
0.145741 -0.0204808 -0.989111 0.0923267 0.0106109 -0.995672 -0.0848876 0.0753014 -0.993541 
-0.253915 0.0776329 -0.964106 -0.573422 0.131028 -0.808714 -0.41176 0.083861 -0.907425 
0.820841 -0.0755457 -0.566138 0.595069 -0.0621697 -0.801266 0.0112407 0.0322336 -0.999417 
0.0359744 -0.00830232 -0.999318 -0.104898 -0.0651037 -0.99235 0.14933 -0.0758553 -0.985873 
0.118514 -0.0956709 -0.988333 -0.0557276 -0.11231 -0.992109 -0.250114 -0.068708 -0.965775 
-0.566897 -0.0729067 -0.820556 -0.384035 -0.080161 -0.919832 0.824176 -0.205542 -0.527718 
0.613665 -0.208135 -0.76164 0.243245 -0.173129 -0.954389 -0.156355 -0.0333924 -0.987136 
0.0102505 0.0190551 -0.999766 -0.156872 -0.172661 -0.972409 -0.0301394 -0.0797526 -0.996359 
-0.135359 -0.213482 -0.967524 -0.0925446 -0.0476294 -0.994569 0.105209 -0.160727 -0.981375 
0.0497868 -0.217756 -0.974733 -0.0583009 -0.261905 -0.963331 -0.21278 -0.232828 -0.948955 
-0.522908 -0.247487 -0.81567 -0.438975 -0.3648 -0.82111 -0.439737 -0.225979 -0.869232 
0.723249 -0.413704 -0.552956 0.712959 -0.426778 -0.556372 0.702488 -0.414276 -0.578693 
0.35702 -0.274343 -0.892901 0.142688 -0.240645 -0.960068 0.0183542 -0.192221 -0.98118 
-0.0511583 -0.128715 -0.990361 -0.0707757 -0.0536105 -0.996051 -0.076236 -0.167336 -0.982948 
-0.124801 -0.165008 -0.978365 -0.0370684 -0.121682 -0.991877 -0.0659741 -0.211537 -0.975141 
-0.117045 -0.126065 -0.985093 -0.0254195 -0.225804 -0.973841 0.0381965 -0.284137 -0.958022 
-0.0845171 -0.302836 -0.949288 -0.363039 -0.417734 -0.832887 -0.33651 -0.467719 -0.817312 
-0.283756 -0.381724 -0.879641 0.604723 -0.520073 -0.603187 0.50274 -0.611794 -0.610706 
0.461172 -0.484964 -0.743055 0.173807 -0.393701 -0.902658 0.0661245 -0.299199 -0.951897 
-0.00668702 -0.31263 -0.949852 -0.0370012 -0.242525 -0.969439 -0.0798181 -0.238286 -0.96791 
-0.092797 -0.239242 -0.966515 -0.150908 -0.61201 -0.776319 -0.0869845 -0.268464 -0.959354 
-0.141243 -0.562965 -0.814322 -0.11403 -0.364649 -0.924136 -0.110369 -0.478357 -0.871202 
-0.10216 -0.366767 -0.924687 -0.0865663 -0.471658 -0.877522 -0.0748889 -0.399826 -0.913527 
-0.0425031 -0.483656 -0.874225 -0.0383517 -0.469989 -0.881839 -0.181483 -0.586882 -0.789071 
-0.102873 -0.608658 -0.786736 -0.0946044 -0.578387 -0.810259 0.278137 -0.727656 -0.627022 
0.265109 -0.730636 -0.629197 0.265508 -0.724061 -0.636585 0.131533 -0.739618 -0.660049 
0.108448 -0.665713 -0.738286 0.0727513 -0.686632 -0.723356 0.0373422 -0.589432 -0.806954 
-0.0149981 -0.700831 -0.71317 0.00135483 -0.566363 -0.824155 -0.0921982 -0.687537 -0.720273 
-0.0871491 -0.572578 -0.815205 -0.147088 -0.627186 -0.764854 -0.130063 -0.639612 -0.757615 
-0.128188 -0.58558 -0.800415 0.0995892 0.273023 -0.956839 0.114267 0.259611 -0.958929 
0.166344 0.200185 -0.965534 0.0229505 0.206958 -0.978081 0.0968879 0.252421 -0.962755 
-0.0606864 0.0972394 -0.993409 0.200675 0.173294 -0.964209 0.145565 0.164628 -0.975555 
-0.0249748 0.0949836 -0.995166 -0.0639272 0.0256444 -0.997625 -0.0633126 0.0488193 -0.996799 
0.19869 0.123269 -0.972279 0.217277 0.102655 -0.970697 0.116343 0.0446033 -0.992207 
-0.0232961 0.0351679 -0.99911 -0.134499 -0.0557848 -0.989342 -0.187875 -0.0168046 -0.982049 
-0.15571 -0.0283181 -0.987397 0.26698 0.0220563 -0.96345 0.218404 0.0228453 -0.975591 
0.0445556 0.0212208 -0.998782 -0.186582 -0.0152496 -0.982321 -0.0920136 -0.0445079 -0.994763 
-0.186935 -0.00768221 -0.982342 0.133612 0.101546 -0.985818 -0.156813 0.0114756 -0.987562 
-0.131424 0.215286 -0.967667 0.243313 -0.0800418 -0.96664 0.224845 -0.0946583 -0.969786 
0.223803 -0.0790157 -0.971426 0.0482833 -0.0600191 -0.997029 -0.0527877 -0.0103983 -0.998552 
-0.127139 0.00162497 -0.991884 -0.158986 -0.020858 -0.98706 -0.161174 -0.0071055 -0.9869 
0.0876944 0.0312824 -0.995656 0.144046 0.0247391 -0.989262 -0.180377 -0.0474479 -0.982453 
-0.190835 -0.0683256 -0.979241 -0.196366 -0.0464397 -0.97943 -0.118685 -0.0845578 -0.989325 
-0.187272 -0.0954486 -0.97766 -0.168014 -0.155243 -0.973484 -0.177584 -0.103232 -0.978676 
0.147742 -0.122857 -0.981366 0.123321 -0.157553 -0.97978 0.107921 -0.0974875 -0.989368 
-0.129889 -0.0497353 -0.99028 -0.00381969 -0.15779 -0.987465 -0.0436842 -0.0952228 -0.994497 
0.0560701 -0.147188 -0.987518 0.0560674 -0.14719 -0.987518 0.0560693 -0.147189 -0.987518 
0.0560705 -0.147189 -0.987518 
