# vtk DataFile Version 4.2
vtk output
ASCII
DATASET POLYDATA
POINTS 574 float
-46.9402 -30.7364 -18.3142 -38.0841 -30.7364 -19.6647 -29.2279 -30.7364 -20.043 
-20.3718 -30.7364 -19.502 -11.5156 -30.7364 -19.3677 -2.65945 -30.7364 -18.0647 
6.1967 -30.7364 -18.0403 15.0529 -30.7364 -19.1811 23.909 -30.7364 -20.116 
32.7652 -30.7364 -19.9675 41.6213 -30.7364 -18.4838 50.4775 -30.7364 -16.2246 
-55.7964 -21.8802 -20.0037 -46.9402 -21.8802 -22.6148 -38.0841 -21.8802 -22.2119 
-29.2279 -21.8802 -21.2966 -20.3718 -21.8802 -21.37 -11.5156 -21.8802 -20.4991 
-2.65945 -21.8802 -20.2985 6.1967 -21.8802 -20.9025 15.0529 -21.8802 -21.3697 
23.909 -21.8802 -21.8458 32.7652 -21.8802 -22.2587 41.6213 -21.8802 -20.7746 
50.4775 -21.8802 -19.105 -64.6525 -13.0241 -17.3122 -55.7964 -13.0241 -21.6297 
-46.9402 -13.0241 -22.4501 -38.0841 -13.0241 -22.3632 -29.2279 -13.0241 -22.0775 
-20.3718 -13.0241 -20.1562 -11.5156 -13.0241 -20.4559 -2.65945 -13.0241 -21.7495 
6.1967 -13.0241 -22.3791 15.0529 -13.0241 -20.4796 23.909 -13.0241 -20.8018 
32.7652 -13.0241 -21.788 41.6213 -13.0241 -22.0158 50.4775 -13.0241 -20.5856 
59.3336 -13.0241 -17.0187 -64.6525 -4.16791 -18.4757 -55.7964 -4.16791 -21.392 
-46.9402 -4.16791 -22.1486 -38.0841 -4.16791 -21.8286 -29.2279 -4.16791 -20.2798 
-20.3718 -4.16791 -19.2364 -11.5156 -4.16791 -23.214 -2.65945 -4.16791 -20.3045 
6.1967 -4.16791 -21.8417 15.0529 -4.16791 -20.3533 23.909 -4.16791 -20.6401 
32.7652 -4.16791 -22.0007 41.6213 -4.16791 -22.2199 50.4775 -4.16791 -20.8763 
59.3336 -4.16791 -17.1996 -64.6525 4.68824 -16.9136 -55.7964 4.68824 -20.2952 
-46.9402 4.68824 -21.446 -38.0841 4.68824 -21.2519 -29.2279 4.68824 -20.4893 
-20.3718 4.68824 -19.7773 -11.5156 4.68824 -24.3067 -2.65945 4.68824 -19.8124 
6.1967 4.68824 -22.4042 15.0529 4.68824 -21.2575 23.909 4.68824 -21.0166 
32.7652 4.68824 -21.9407 41.6213 4.68824 -21.8224 50.4775 4.68824 -20.2905 
59.3336 4.68824 -16.7274 -55.7964 13.5444 -19.0972 -46.9402 13.5444 -21.0843 
-38.0841 13.5444 -21.5882 -29.2279 13.5444 -21.384 -20.3718 13.5444 -20.7822 
-11.5156 13.5444 -20.7839 -2.65945 13.5444 -20.7173 6.1967 13.5444 -22.2164 
15.0529 13.5444 -20.4887 23.909 13.5444 -20.8751 32.7652 13.5444 -21.5022 
41.6213 13.5444 -21.1907 50.4775 13.5444 -19.0092 -55.7964 22.4006 -17.4364 
-46.9402 22.4006 -19.8227 -38.0841 22.4006 -20.5227 -29.2279 22.4006 -20.8761 
-20.3718 22.4006 -21.1747 -11.5156 22.4006 -21.1753 -2.65945 22.4006 -20.9878 
6.1967 22.4006 -20.2377 15.0529 22.4006 -19.7587 23.909 22.4006 -20.5818 
32.7652 22.4006 -21.2149 41.6213 22.4006 -20.1279 50.4775 22.4006 -18.1474 
-46.9402 31.2567 -17.0383 -38.0841 31.2567 -18.2978 -29.2279 31.2567 -19.7632 
-20.3718 31.2567 -20.0028 -11.5156 31.2567 -20.5187 -2.65945 31.2567 -20.046 
6.1967 31.2567 -18.6341 15.0529 31.2567 -18.388 23.909 31.2567 -19.0702 
32.7652 31.2567 -19.4062 41.6213 31.2567 -17.7952 -20.3718 40.1129 -16.4185 
-11.5156 40.1129 -17.3916 -2.65945 40.1129 -16.3975 -46.9402 -33.7474 -15.7323 
-38.0841 -36.4834 -15.7323 -38.0841 -39.5925 -11.8658 -29.2279 -38.1594 -15.7323 
-29.2279 -39.5925 -14.2645 -20.3718 -38.9177 -15.7323 -20.3718 -39.5925 -15.2634 
-11.5156 -38.5841 -15.7323 -11.5156 -39.5925 -15.0776 -2.65945 -35.6315 -15.7323 
-2.65945 -39.5925 -13.3582 6.1967 -34.7675 -15.7323 6.1967 -39.5925 -12.1054 
15.0529 -36.1224 -15.7323 15.0529 -39.5925 -12.6192 23.909 -37.6311 -15.7323 
23.909 -39.5925 -13.7036 32.7652 -37.7129 -15.7323 32.7652 -39.5925 -13.3208 
41.6213 -34.8135 -15.7323 41.6213 -39.5925 -10.2822 50.4775 -31.4025 -15.7323 
-52.8109 -30.7364 -15.7323 -55.7964 -28.9271 -15.7323 -55.7964 -30.7364 -13.4766 
51.3269 -30.7364 -15.7323 59.3336 -30.7364 -9.37881 -62.4584 -21.8802 -15.7323 
-64.6525 -16.8377 -15.7323 -64.6525 -21.8802 -12.8535 58.581 -21.8802 -15.7323 
59.3336 -20.1563 -15.7323 59.3336 -21.8802 -15.3548 68.1898 -21.8802 -8.53563 
-66.3163 -13.0241 -15.7323 61.6996 -13.0241 -15.7323 68.1898 -13.0241 -9.77246 
-67.8837 -4.16791 -15.7323 -73.5087 -4.16791 -7.01417 61.873 -4.16791 -15.7323 
68.1898 -4.16791 -10.0472 -66.2564 4.68824 -15.7323 -64.6525 11.6019 -15.7323 
61.1091 4.68824 -15.7323 59.3336 9.63192 -15.7323 68.1898 4.68824 -9.50278 
-63.9991 13.5444 -15.7323 -64.6525 13.5444 -15.3927 57.659 13.5444 -15.7323 
59.3336 13.5444 -14.854 68.1898 13.5444 -7.59934 -61.4274 22.4006 -15.7323 
-64.6525 22.4006 -13.282 -55.7964 25.7862 -15.7323 54.7596 22.4006 -15.7323 
50.4775 29.4578 -15.7323 59.3336 22.4006 -12.2937 -49.7757 31.2567 -15.7323 
-55.7964 31.2567 -11.7605 -46.9402 33.1169 -15.7323 -38.0841 35.6467 -15.7323 
-29.2279 39.2426 -15.7323 6.1967 38.2423 -15.7323 15.0529 37.8829 -15.7323 
23.909 39.3271 -15.7323 32.7652 39.3165 -15.7323 48.2405 31.2567 -15.7323 
41.6213 35.8963 -15.7323 50.4775 31.2567 -14.9232 59.3336 31.2567 -7.00831 
-46.9402 40.1129 -7.26884 -38.0841 40.1129 -11.6988 -25.416 40.1129 -15.7323 
-29.2279 40.1129 -14.9225 -20.3718 40.9277 -15.7323 -11.5156 42.1044 -15.7323 
1.22323 40.1129 -15.7323 -2.65945 40.9405 -15.7323 6.1967 40.1129 -14.7368 
15.0529 40.1129 -14.6515 23.909 40.1129 -15.377 32.7652 40.1129 -15.2786 
41.6213 40.1129 -13.2991 50.4775 40.1129 -7.37684 23.909 48.969 -7.23785 
-38.0841 -42.011 -6.87617 -29.2279 -44.4677 -6.87617 -20.3718 -45.8516 -6.87617 
-11.5156 -46.2859 -6.87617 -2.65945 -45.3036 -6.87617 -2.65945 -48.4487 1.97742 
6.1967 -44.0121 -6.87617 15.0529 -43.6797 -6.87617 23.909 -43.7628 -6.87617 
32.7652 -42.714 -6.87617 41.6213 -41.4488 -6.87617 -55.7964 -35.4309 -6.87617 
-45.543 -39.5925 -6.87617 -46.9402 -39.0865 -6.87617 -46.9402 -39.5925 -0.121176 
48.8762 -39.5925 -6.87617 50.4775 -39.0885 -6.87617 50.4775 -39.5925 -4.10947 
59.3336 -33.0212 -6.87617 -60.5342 -30.7364 -6.87617 -64.6525 -26.4103 -6.87617 
61.78 -30.7364 -6.87617 68.1898 -23.4534 -6.87617 -67.9932 -21.8802 -6.87617 
69.117 -21.8802 -6.87617 -71.5774 -13.0241 -6.87617 -73.5087 -4.40122 -6.87617 
70.0743 -13.0241 -6.87617 -73.5629 -4.16791 -6.87617 -73.5087 1.55201 -6.87617 
-73.5087 -4.16791 -6.59516 70.4349 -4.16791 -6.87617 -73.4751 4.68824 -6.87617 
69.9905 4.68824 -6.87617 -72.8863 13.5444 -6.87617 68.7378 13.5444 -6.87617 
68.1898 15.7627 -6.87617 -68.1586 22.4006 -6.87617 -64.6525 28.7593 -6.87617 
65.8484 22.4006 -6.87617 68.1898 22.4006 -0.957905 -62.6301 31.2567 -6.87617 
-64.6525 31.2567 1.74443 -55.7964 36.2721 -6.87617 59.4402 31.2567 -6.87617 
59.3336 31.4054 -6.87617 -47.651 40.1129 -6.87617 -46.9402 40.3842 -6.87617 
-38.0841 43.0355 -6.87617 -29.2279 45.1472 -6.87617 -20.3718 46.2687 -6.87617 
-11.5156 46.9726 -6.87617 -2.65945 46.8389 -6.87617 6.1967 46.814 -6.87617 
15.0529 47.923 -6.87617 32.7652 47.878 -6.87617 41.6213 45.9929 -6.87617 
50.9424 40.1129 -6.87617 50.4775 40.4723 -6.87617 21.9956 48.969 -6.87617 
15.0529 48.969 0.492748 25.6026 48.969 -6.87617 23.909 49.201 -6.87617 
-2.65945 -48.4495 1.97999 -46.9402 -39.7435 1.97999 -38.0841 -43.3083 1.97999 
-29.2279 -45.8769 1.97999 -20.3718 -47.3854 1.97999 -2.69945 -48.4487 1.97999 
-11.5156 -48.2786 1.97999 -2.64781 -48.4487 1.97999 -2.65945 -48.4487 1.98601 
6.1967 -47.834 1.97999 15.0529 -46.4754 1.97999 23.909 -45.1579 1.97999 
32.7652 -43.8381 1.97999 41.6213 -42.4083 1.97999 50.4775 -40.5658 1.97999 
-47.2378 -39.5925 1.97999 -55.7964 -34.1997 1.97999 -46.9402 -39.5925 2.48467 
52.1337 -39.5925 1.97999 50.4775 -39.5925 4.94149 59.3336 -35.5675 1.97999 
-59.4169 -30.7364 1.97999 -64.6525 -23.8097 1.97999 -55.7964 -30.7364 7.5965 
64.7616 -30.7364 1.97999 68.1898 -26.0415 1.97999 -65.821 -21.8802 1.97999 
-64.6525 -21.8802 3.83498 70.7816 -21.8802 1.97999 68.1898 -21.8802 10.5987 
-70.1556 -13.0241 1.97999 -64.6525 -13.0241 9.97184 72.9825 -13.0241 1.97999 
-71.7967 -4.16791 1.97999 73.8203 -4.16791 1.97999 -73.0034 4.68824 1.97999 
73.4006 4.68824 1.97999 -72.5537 13.5444 1.97999 71.6645 13.5444 1.97999 
-69.9862 22.4006 1.97999 68.977 22.4006 1.97999 68.1898 23.7643 1.97999 
68.1898 22.4006 5.02467 -64.6903 31.2567 1.97999 -64.6525 31.2941 1.97999 
-64.6525 31.2567 2.06552 -55.7964 38.5091 1.97999 63.3109 31.2567 1.97999 
59.3336 35.6124 1.97999 -52.3008 40.1129 1.97999 -46.9402 42.351 1.97999 
-46.9402 40.1129 8.05779 -38.0841 44.1364 1.97999 -29.2279 45.8196 1.97999 
-20.3718 45.8018 1.97999 -11.5156 45.7918 1.97999 -11.5156 40.1129 10.6024 
-2.65945 46.1622 1.97999 -2.65945 40.1129 10.674 6.1967 47.532 1.97999 
32.7652 48.6114 1.97999 41.6213 46.2821 1.97999 53.7702 40.1129 1.97999 
50.4775 42.4324 1.97999 50.4775 40.1129 6.5329 14.0572 48.969 1.97999 
15.0529 49.1427 1.97999 15.0529 48.969 2.34166 28.9122 48.969 1.97999 
23.909 49.4279 1.97999 23.909 48.969 2.93574 -38.0841 -41.6432 10.8361 
-29.2279 -44.6459 10.8361 -20.3718 -45.82 10.8361 -11.5156 -46.7598 10.8361 
-2.65945 -47.1239 10.8361 6.1967 -46.7302 10.8361 15.0529 -44.8453 10.8361 
23.909 -42.8132 10.8361 32.7652 -41.7595 10.8361 41.6213 -39.7779 10.8361 
-42.1421 -39.5925 10.8361 -46.9402 -36.3405 10.8361 -38.0841 -39.5925 14.0298 
-29.2279 -39.5925 17.986 -20.3718 -39.5925 18.9151 -11.5156 -39.5925 19.0195 
-2.65945 -39.5925 18.7034 6.1967 -39.5925 17.7791 15.0529 -39.5925 17.0731 
23.909 -39.5925 14.78 32.7652 -39.5925 13.7329 42.4132 -39.5925 10.8361 
41.6213 -39.5925 11.1112 50.4775 -37.2092 10.8361 59.3336 -32.1205 10.8361 
-53.3877 -30.7364 10.8361 -55.7964 -27.0605 10.8361 -46.9402 -30.7364 15.7208 
15.0529 -30.7364 19.4659 41.6213 -30.7364 19.2207 50.4775 -30.7364 17.6343 
60.8327 -30.7364 10.8361 59.3336 -30.7364 12.2664 -58.8818 -21.8802 10.8361 
-55.7964 -21.8802 13.4319 -46.9402 -21.8802 18.957 68.0667 -21.8802 10.8361 
59.3336 -21.8802 17.4057 68.1898 -21.4992 10.8361 -63.6612 -13.0241 10.8361 
-64.6525 -9.99829 10.8361 -55.7964 -13.0241 16.5716 59.3336 -13.0241 19.3578 
69.9639 -13.0241 10.8361 68.1898 -13.0241 12.7494 -66.0058 -4.16791 10.8361 
-64.6525 -4.16791 12.1003 -55.7964 -4.16791 17.1724 -20.3718 -4.16791 19.3374 
15.0529 -4.16791 18.7252 23.909 -4.16791 18.7016 59.3336 -4.16791 18.747 
71.0426 -4.16791 10.8361 68.1898 -4.16791 13.8278 -67.8946 4.68824 10.8361 
[...]
POINT_DATA 574
SCALARS ImageScalars float
LOOKUP_TABLE default
0 0 0 0 0 0 0 0 0 
0 0 0 0 0 0 0 0 0 
0 0 0 0 0 0 0 0 0 
0 0 0 0 0 0 0 0 0 
0 0 0 0 0 0 0 0 0 
0 0 0 0 0 0 0 0 0 
0 0 0 0 0 0 0 0 0 
0 0 0 0 0 0 0 0 0 
0 0 0 0 0 0 0 0 0 
0 0 0 0 0 0 0 0 0 
0 0 0 0 0 0 0 0 0 
0 0 0 0 0 0 0 0 0 
0 0 0 0 0 0 0 0 0 
0 0 0 0 0 0 0 0 0 
0 0 0 0 0 0 0 0 0 
0 0 0 0 0 0 0 0 0 
0 0 0 0 0 0 0 0 0 
0 0 0 0 0 0 0 0 0 
0 0 0 0 0 0 0 0 0 
0 0 0 0 0 0 0 0 0 
0 0 0 0 0 0 0 0 0 
0 0 0 0 0 0 0 0 0 
0 0 0 0 0 0 0 0 0 
0 0 0 0 0 0 0 0 0 
0 0 0 0 0 0 0 0 0 
0 0 0 0 0 0 0 0 0 
0 0 0 0 0 0 0 0 0 
0 0 0 0 0 0 0 0 0 
0 0 0 0 0 0 0 0 0 
0 0 0 0 0 0 0 0 0 
0 0 0 0 0 0 0 0 0 
0 0 0 0 0 0 0 0 0 
0 0 0 0 0 0 0 0 0 
0 0 0 0 0 0 0 0 0 
0 0 0 0 0 0 0 0 0 
0 0 0 0 0 0 0 0 0 
0 0 0 0 0 0 0 0 0 
0 0 0 0 0 0 0 0 0 
0 0 0 0 0 0 0 0 0 
0 0 0 0 0 0 0 0 0 
0 0 0 0 0 0 0 0 0 
0 0 0 0 0 0 0 0 0 
0 0 0 0 0 0 0 0 0 
0 0 0 0 0 0 0 0 0 
0 0 0 0 0 0 0 0 0 
0 0 0 0 0 0 0 0 0 
0 0 0 0 0 0 0 0 0 
0 0 0 0 0 0 0 0 0 
0 0 0 0 0 0 0 0 0 
0 0 0 0 0 0 0 0 0 
0 0 0 0 0 0 0 0 0 
0 0 0 0 0 0 0 0 0 
0 0 0 0 0 0 0 0 0 
0 0 0 0 0 0 0 0 0 
0 0 0 0 0 0 0 0 0 
0 0 0 0 0 0 0 0 0 
0 0 0 0 0 0 0 0 0 
0 0 0 0 0 0 0 0 0 
0 0 0 0 0 0 0 0 0 
0 0 0 0 0 0 0 0 0 
0 0 0 0 0 0 0 0 0 
0 0 0 0 0 0 0 0 0 
0 0 0 0 0 0 0 0 0 
0 0 0 0 0 0 0 
NORMALS Normals float
0.23064 0.573732 0.785899 0.0908678 0.431998 0.897285 -0.0132579 0.318253 0.947913 
-0.0375524 0.277358 0.960033 -0.0761377 0.270537 0.959694 -0.0758023 0.337861 0.938138 
0.0564031 0.409388 0.910615 0.110446 0.399322 0.910134 0.039822 0.350586 0.935684 
-0.0795503 0.379919 0.921593 -0.202724 0.417563 0.885745 -0.368286 0.47954 0.796496 
0.367446 0.300253 0.880245 0.131465 0.202038 0.970514 -0.0722733 0.130181 0.988853 
-0.0465054 0.116786 0.992068 -0.0451001 0.0441238 0.998008 -0.0593164 0.0624252 0.996285 
0.0215177 0.199197 0.979723 0.0594983 0.234733 0.970237 0.0522796 0.0631654 0.996633 
0.0496502 0.0294537 0.998332 -0.0576194 0.0977246 0.993544 -0.16305 0.177412 0.970536 
-0.253197 0.227036 0.940397 0.598691 0.202123 0.775058 0.234858 0.0901626 0.967839 
0.0363472 -0.0252825 0.999019 -0.0222403 -0.0232115 0.999483 -0.116123 -0.0583438 0.99152 
-0.0945029 -0.121002 0.988144 0.0902364 0.101165 0.990769 0.107795 0.0126658 0.994092 
-0.0687306 0.053069 0.996223 -0.0880005 -0.0569208 0.994493 0.0729869 -0.0661115 0.995139 
0.0682626 -0.0132807 0.997579 -0.0619565 0.0798866 0.994877 -0.275025 0.0947592 0.956756 
-0.435957 0.0776119 0.896615 0.517275 -0.0223762 0.855527 0.168615 -0.0746447 0.982851 
0.021286 -0.0565455 0.998173 -0.10467 -0.0623756 0.992549 -0.14649 -0.0919755 0.984927 
0.0917968 -0.019912 0.995579 0.0986418 0.249732 0.963278 -0.0328123 -0.121847 0.992006 
-0.00782503 -0.00248646 0.999966 -0.0644413 0.0434068 0.996977 0.0941442 0.0115856 0.995491 
0.0846503 0.0085868 0.996374 -0.0593805 -0.0107396 0.998178 -0.260939 -0.0158632 0.965225 
-0.451274 -0.0146794 0.892265 0.506313 -0.13683 0.851425 0.210703 -0.121322 0.969992 
0.0498753 -0.0615572 0.996857 -0.0517714 -0.0141495 0.998559 -0.0841892 0.0649544 0.99433 
0.192761 0.088808 0.977219 0.0249406 -0.172332 0.984723 -0.104873 0.0322861 0.993961 
0.0737579 0.0205208 0.997065 -0.0738244 0.00501279 0.997259 0.0402939 0.0124766 0.99911 
0.0435185 -0.0280748 0.998658 -0.0885783 -0.0574492 0.994411 -0.267326 -0.0983986 0.958569 
-0.437564 -0.108592 0.892606 0.279418 -0.159202 0.946879 0.1278 -0.0814756 0.988448 
0.0193331 -0.0397344 0.999023 -0.0442318 0.0173948 0.99887 -0.0343323 0.077842 0.996374 
-0.00369792 -0.150116 0.988662 0.0804821 0.0593033 0.99499 -0.0121229 -0.12075 0.992609 
-0.0763442 -0.0828657 0.993632 0.0571112 -0.024133 0.998076 0.0179195 -0.0404881 0.999019 
-0.133327 -0.0982475 0.98619 -0.312679 -0.118797 0.942401 0.267658 -0.303916 0.914327 
0.17882 -0.240826 0.953953 0.0560541 -0.168556 0.984097 0.0369755 -0.0924619 0.995029 
0.0162948 -0.0436934 0.998912 -0.0105072 -0.0149597 0.999833 -0.0521884 -0.0353988 0.99801 
-0.0690859 -0.198121 0.97774 0.0195641 -0.116289 0.993023 0.0809526 -0.0939678 0.992279 
-0.0288189 -0.124717 0.991774 -0.168794 -0.172376 0.970461 -0.36878 -0.179752 0.911971 
0.265459 -0.462209 0.846105 0.161025 -0.381954 0.910045 0.0832467 -0.281016 0.956086 
0.0418899 -0.240634 0.969712 0.00387499 -0.193236 0.981145 -0.103231 -0.233408 0.966884 
-0.0892699 -0.276154 0.956959 0.02171 -0.250915 0.967766 0.0580708 -0.264519 0.962631 
-0.063685 -0.295691 0.953159 -0.217836 -0.317919 0.922754 0.114702 -0.599752 0.791922 
-0.00147827 -0.566798 0.823855 -0.130488 -0.564005 0.815396 0.25885 0.679781 0.686218 
0.180021 0.658319 0.730896 0.234344 0.832217 0.502492 0.0768942 0.643153 0.761867 
0.104395 0.728782 0.676741 0.0174509 0.609762 0.792392 0.0266726 0.648261 0.760951 
-0.0841116 0.551093 0.830194 -0.0805983 0.600138 0.795826 -0.106067 0.47186 0.87527 
-0.124265 0.621038 0.773867 0.0224321 0.51836 0.854868 -0.034884 0.697221 0.716007 
0.0926324 0.588159 0.803422 0.0562748 0.746949 0.662495 0.0554407 0.657826 0.751127 
0.0313571 0.774927 0.631273 -0.0991162 0.664229 0.740929 -0.106752 0.803708 0.585369 
-0.234244 0.574233 0.784466 -0.218616 0.863722 0.454083 -0.371045 0.502095 0.78117 
0.401363 0.630758 0.664118 0.466018 0.581774 0.666608 0.514496 0.677225 0.525985 
-0.388085 0.486775 0.782585 -0.587322 0.596291 0.547257 0.635909 0.388377 0.666921 
0.659241 0.292126 0.692867 0.758031 0.460283 0.462091 -0.432631 0.324445 0.841169 
-0.446589 0.282951 0.848821 -0.454545 0.338832 0.82376 -0.821941 0.340547 0.456553 
0.663047 0.215812 0.716794 -0.506037 0.0775319 0.85902 -0.820751 0.0500577 0.569088 
0.659194 0.00912829 0.751917 0.987394 0.11315 0.11068 -0.52448 -0.0171544 0.85125 
-0.796306 -0.00961785 0.604818 0.568103 -0.130548 0.812537 0.528991 -0.123574 0.839582 
-0.488856 -0.118265 0.864311 -0.477959 -0.165041 0.862738 -0.806822 -0.0950671 0.583096 
0.51603 -0.122138 0.847818 0.542415 -0.128318 0.830253 -0.476234 -0.187147 0.859172 
-0.521084 -0.21373 0.826311 -0.816438 -0.17902 0.548982 0.469176 -0.331805 0.8184 
0.66223 -0.367368 0.653063 0.322099 -0.389719 0.86277 -0.481794 -0.22735 0.846278 
-0.415143 -0.35871 0.836052 -0.593382 -0.302387 0.745962 0.323271 -0.48492 0.812618 
0.464513 -0.59672 0.654334 0.272107 -0.52998 0.803168 0.216214 -0.533014 0.818014 
0.159416 -0.640473 0.751253 -0.0848089 -0.48839 0.868495 0.0235008 -0.459592 0.887819 
0.0326943 -0.477139 0.87822 -0.0791143 -0.476553 0.875579 -0.371727 -0.387555 0.843576 
-0.244054 -0.460648 0.85337 -0.433884 -0.413379 0.800539 -0.721186 -0.495489 0.48413 
0.307098 -0.854236 0.419489 0.261745 -0.777897 0.571284 0.143139 -0.647827 0.748219 
0.166335 -0.697396 0.697116 0.119111 -0.63577 0.762633 0.00261181 -0.664291 0.747469 
-0.110055 -0.558712 0.822027 -0.126967 -0.599431 0.790293 -0.0783396 -0.576816 0.813109 
0.0325746 -0.552369 0.832963 0.0297188 -0.507331 0.861239 -0.0847686 -0.508826 0.856686 
-0.293862 -0.636035 0.713515 -0.545095 -0.738068 0.397653 -0.0045428 -0.930082 0.367323 
0.262076 0.921642 0.286166 0.205814 0.917938 0.339161 0.0920002 0.926547 0.364755 
-0.025698 0.911154 0.411264 -0.114597 0.853107 0.508995 -0.0233343 0.996063 0.0855279 
-0.0802807 0.839308 0.537696 -0.0119066 0.891984 0.45191 -0.0538943 0.941482 0.332727 
-0.120868 0.958343 0.258784 -0.179473 0.93874 0.294205 0.54368 0.82293 0.164921 
0.305683 0.911711 0.274484 0.320078 0.907013 0.273638 0.405365 0.914002 -0.0166956 
-0.348543 0.864636 0.361832 -0.390133 0.839163 0.378948 -0.391914 0.889247 0.235889 
-0.585809 0.681448 0.438699 0.665888 0.728604 0.160404 0.763875 0.633143 0.125 
-0.642255 0.622432 0.447311 -0.837475 0.393719 0.378974 0.856495 0.50534 0.105107 
-0.86056 0.339885 0.379362 0.951992 0.281302 0.120747 0.987697 0.118611 0.101913 
-0.885465 0.0740321 0.458771 0.988187 0.113851 0.10259 0.985 0.020392 0.171344 
0.989368 0.115706 0.08811 -0.862435 -0.00422357 0.506151 0.977363 -0.031388 0.209227 
-0.864043 -0.0881929 0.495632 0.932582 -0.239701 0.269877 -0.834592 -0.180943 0.520303 
-0.829755 -0.229316 0.508842 0.835439 -0.434159 0.336969 0.725055 -0.581582 0.36886 
-0.776856 -0.382227 0.500397 -0.895432 -0.418237 0.152574 0.640612 -0.651754 0.405996 
0.734281 -0.672193 -0.0948074 0.477314 -0.781566 0.401654 -0.723288 -0.497133 0.479283 
-0.721594 -0.500527 0.478305 0.321471 -0.858241 0.400098 0.309284 -0.860857 0.404064 
0.239593 -0.916344 0.320795 0.17668 -0.936633 0.302495 0.100125 -0.973481 0.205694 
0.0314369 -0.988834 0.145666 -0.00897113 -0.978153 0.207691 0.0529612 -0.933464 0.354739 
0.124107 -0.903616 0.409971 -0.152297 -0.941946 0.299239 -0.335831 -0.879204 0.33796 
-0.5545 -0.743008 0.374792 -0.548344 -0.749272 0.371364 0.0211285 -0.932953 0.359377 
0.111507 -0.989341 -0.0936546 -0.0353476 -0.941289 0.335747 -0.00831136 -0.937761 0.347181 
-0.0233101 0.996072 0.0854236 0.425204 0.899402 -0.101383 0.317533 0.948112 -0.01603 
0.2209 0.975282 0.00531662 0.134727 0.990878 -0.00322442 -0.0229399 0.996104 0.0851521 
0.0594478 0.997942 0.0240297 -0.0234247 0.996064 0.0854883 -0.0232944 0.996096 0.0851427 
-0.112549 0.98467 0.133262 -0.146357 0.987312 0.0616036 -0.147088 0.988022 -0.0466647 
-0.148269 0.987717 -0.0493099 -0.173029 0.981443 -0.082644 -0.372936 0.924846 -0.0746927 
0.430502 0.896319 -0.10621 0.629447 0.733995 -0.255045 0.431696 0.893932 -0.120515 
-0.404841 0.911317 -0.0748712 -0.382333 0.897558 -0.21957 -0.562329 0.825462 -0.0489755 
0.688712 0.674763 -0.265274 0.780894 0.517732 -0.349511 0.653319 0.586835 -0.478329 
-0.750265 0.659403 -0.0478443 -0.859444 0.508003 -0.0573517 0.806332 0.469224 -0.360079 
0.777685 0.466543 -0.42136 -0.914031 0.402328 -0.0517645 -0.755371 0.382073 -0.532386 
0.899691 0.308366 -0.308978 0.621921 0.288175 -0.728127 -0.985862 0.167433 -0.0065578 
0.91481 0.161509 -0.370186 -0.999525 0.0224437 0.0211026 0.964455 0.0385657 -0.261419 
-0.992858 -0.118324 0.0152631 0.960584 -0.154115 -0.231357 -0.968344 -0.24716 0.034943 
0.920987 -0.369174 -0.124474 -0.908003 -0.418847 0.00990002 -0.895763 -0.444533 0.000173673 
-0.887612 -0.429608 -0.166081 0.734042 -0.67077 -0.106061 0.733164 -0.671697 -0.106268 
0.733272 -0.671102 -0.109249 0.500654 -0.864088 -0.0519441 -0.790021 -0.612981 -0.011007 
-0.687846 -0.723163 -0.0624724 0.415392 -0.907749 -0.0586585 0.300255 -0.951531 -0.0666078 
0.288068 -0.868937 -0.402448 0.185976 -0.977915 -0.0953682 0.0914623 -0.981722 -0.166903 
-0.00153537 -0.967616 -0.252424 0.0196619 -0.943292 -0.331381 -0.0391353 -0.69859 -0.714451 
0.0966383 -0.945892 -0.309758 0.0609466 -0.657236 -0.751217 0.160883 -0.963277 -0.214973 
-0.16364 -0.962999 -0.214137 -0.327492 -0.913857 -0.240029 -0.559483 -0.819383 -0.124861 
-0.500746 -0.857111 -0.12089 -0.498275 -0.768211 -0.401962 0.11131 -0.976238 -0.18593 
0.104827 -0.97728 -0.184217 0.104968 -0.973207 -0.204574 -0.106877 -0.969981 -0.218434 
-0.0299609 -0.97403 -0.224428 -0.0318759 -0.958268 -0.284089 0.376791 0.850263 -0.367535 
0.219254 0.915934 -0.336143 0.110918 0.924336 -0.365104 0.0682751 0.918473 -0.389546 
-0.000401261 0.918188 -0.396145 -0.121076 0.906028 -0.405528 -0.204276 0.877724 -0.433442 
-0.164853 0.863563 -0.476532 -0.158424 0.876999 -0.453624 -0.213207 0.867275 -0.449862 
0.446996 0.796335 -0.407487 0.527201 0.686129 -0.501284 0.38238 0.766698 -0.515713 
0.176946 0.64959 -0.739407 0.0413622 0.60252 -0.797031 -0.011016 0.567167 -0.823529 
-0.0619763 0.521694 -0.850879 -0.0787518 0.503459 -0.860423 -0.139035 0.555141 -0.820053 
-0.144983 0.710663 -0.688432 -0.13835 0.788751 -0.598942 -0.227249 0.860886 -0.45523 
-0.213986 0.861594 -0.460289 -0.370867 0.763129 -0.529237 -0.553824 0.637324 -0.535815 
0.605619 0.528942 -0.594514 0.633642 0.436601 -0.638653 0.508347 0.448919 -0.734884 
-0.0475592 0.137359 -0.989379 -0.136154 0.40087 -0.905961 -0.322137 0.488532 -0.810903 
-0.586508 0.607296 -0.53591 -0.543468 0.584828 -0.602178 0.650592 0.34777 -0.67512 
0.585625 0.31504 -0.746856 0.363322 0.185186 -0.913073 -0.746943 0.379564 -0.5459 
-0.45151 0.312974 -0.835575 -0.750743 0.370775 -0.546728 0.587226 0.275917 -0.760944 
0.61749 0.245355 -0.747333 0.469123 0.171228 -0.866374 -0.371439 0.0464078 -0.927297 
-0.806383 0.163261 -0.568412 -0.734348 0.150304 -0.661922 0.682854 0.163873 -0.711938 
0.638528 0.176615 -0.749059 0.42011 0.0909959 -0.902899 0.0692288 -0.0293875 -0.997168 
-0.142849 -0.113745 -0.983187 0.0844672 -0.12705 -0.988293 -0.354896 -0.0382833 -0.934122 
-0.829148 0.0268169 -0.558385 -0.700642 0.0335621 -0.712724 0.735419 0.0790534 -0.672986 
0.616021 0.100026 -0.781353 0.348765 0.0921738 -0.932666 -0.112321 -0.152042 -0.981971 
-0.109609 -0.0627168 -0.991994 0.099894 0.0159547 -0.99487 -0.353019 -0.00291917 -0.935612 
-0.835447 -0.09481 -0.541331 -0.723866 -0.0905947 -0.683967 0.765913 -0.10495 -0.634321 
0.664587 -0.0956862 -0.741059 0.322288 0.0227642 -0.946368 -0.16283 -0.0482887 -0.985472 
-0.00148525 -0.212679 -0.977121 0.0888414 -0.0423334 -0.995146 -0.0894078 -0.16181 -0.982763 
-0.0291855 -0.0730877 -0.996898 0.131784 -0.00756415 -0.99125 -0.377953 -0.111348 -0.919104 
-0.8069 -0.216435 -0.549608 -0.794088 -0.287481 -0.535517 -0.773914 -0.212232 -0.59667 
0.7214 -0.297617 -0.625305 0.704498 -0.37285 -0.603875 0.692576 -0.290234 -0.660381 
0.391706 -0.22881 -0.891186 -0.157002 -0.115953 -0.980768 -0.0298246 -0.0888838 -0.995595 
-0.0186587 -0.177902 -0.983871 -0.0764595 -0.195994 -0.97762 0.0339151 -0.112478 -0.993075 
0.120453 -0.154716 -0.980588 0.096722 -0.188073 -0.977381 -0.177042 -0.254389 -0.950759 
-0.750804 -0.404536 -0.522153 -0.454787 -0.363635 -0.812981 0.57746 -0.600176 -0.55347 
0.476292 -0.666857 -0.573103 0.408039 -0.558801 -0.721973 0.264658 -0.770872 -0.579407 
0.204913 -0.482919 -0.851351 0.0526206 -0.377813 -0.924386 -0.0525808 -0.395634 -0.916902 
-0.0836583 -0.344148 -0.935181 -0.0414626 -0.685142 -0.727228 -0.0691307 -0.347194 -0.935242 
0.0583345 -0.646938 -0.760308 -0.0263037 -0.374512 -0.926849 -0.00170252 -0.290089 -0.956998 
0.0149431 -0.224713 -0.97431 0.0339353 -0.252273 -0.967061 0.0311198 -0.333511 -0.942232 
-0.0693242 -0.411725 -0.908667 -0.397745 -0.613747 -0.681992 -0.285978 -0.522768 -0.803076 
-0.52825 -0.640761 -0.557115 -0.526747 -0.641581 -0.557594 -0.525236 -0.639585 -0.5613 
0.200656 -0.816251 -0.541731 0.126026 -0.843105 -0.522773 0.117284 -0.796906 -0.592609 
-0.0134312 -0.767813 -0.640534 -0.0337505 -0.717651 -0.695585 -0.0465911 -0.697574 -0.714996 
-0.0706271 -0.734416 -0.675014 -0.0735755 -0.7087 -0.701663 0.0645822 -0.644662 -0.761735 
0.109118 -0.61584 -0.780278 0.0946365 -0.569936 -0.816221 0.052781 -0.606902 -0.793022 
0.047542 -0.506167 -0.861124 -0.0346086 -0.598808 -0.800144 -0.0116627 -0.516772 -0.856044 
-0.0666695 -0.623171 -0.779239 -0.0518818 -0.54436 -0.837246 -0.248299 -0.675907 -0.6939 
-0.170141 -0.702732 -0.690811 -0.169844 -0.665074 -0.727207 0.334555 0.345736 -0.876664 
0.151578 0.4891 -0.858956 0.0323898 0.518417 -0.854515 -0.0203999 0.500315 -0.865603 
-0.0811656 0.412209 -0.907467 -0.117377 0.235685 -0.964715 0.061018 0.302794 -0.951101 
-0.0348157 0.430673 -0.901836 0.361159 0.28499 -0.887888 0.319218 0.252186 -0.913511 
0.125444 0.211174 -0.969365 0.00712958 0.172271 -0.985024 -0.054551 0.191864 -0.979904 
-0.111435 0.17812 -0.977679 -0.0670645 0.131497 -0.989045 -0.140142 0.117397 -0.983147 
0.052981 0.287743 -0.956241 -0.01019 0.102184 -0.994713 0.062031 0.301292 -0.951512 
-0.095313 0.386508 -0.917348 -0.0234304 0.374322 -0.927003 -0.132248 0.318501 -0.938652 
-0.203962 0.201358 -0.958047 0.306527 0.129762 -0.942976 0.237786 0.1018 -0.965968 
0.195716 0.0319234 -0.980141 0.0866034 -0.068563 -0.993881 0.0269958 -0.137552 -0.990127 
-0.0141636 -0.0583586 -0.998195 -0.159142 0.0774816 -0.984211 -0.125701 -0.0106736 -0.992011 
0.0681442 0.0349788 -0.997062 0.120268 0.0369356 -0.992054 -0.0165346 0.0529156 -0.998462 
-0.119571 0.105921 -0.987159 -0.219925 0.171945 -0.960244 -0.182356 0.14892 -0.971889 
0.233655 0.0971136 -0.967458 0.229334 0.0955748 -0.968644 0.0809438 0.0200664 -0.996517 
-0.0503813 -0.128213 -0.990466 0.0466898 -0.0922309 -0.994642 0.00832464 -0.188336 -0.982069 
0.169307 -0.0590106 -0.983795 -0.0624909 -0.0130851 -0.99796 -0.178891 0.0573114 -0.982198 
-0.0385461 -0.0866561 -0.995492 0.00535087 -0.0734527 -0.997284 0.0778986 -0.141496 -0.986869 
0.0747787 -0.153654 -0.985291 0.0506644 -0.115495 -0.992015 -0.0291713 -0.00110438 -0.999574 
-0.321513 0.04723 -0.945726 -0.122999 0.0681203 -0.990066 0.278008 0.0534099 -0.959093 
0.222098 0.047134 -0.973884 -0.00593392 0.0123065 -0.999907 0.000591144 -0.0315582 -0.999502 
-0.123368 -0.0342513 -0.99177 0.083746 -0.0218789 -0.996247 0.0643625 -0.00106224 -0.997926 
0.200857 0.0587108 -0.97786 -0.0920375 -0.19547 -0.976381 -0.0651581 -0.241806 -0.968134 
-0.166325 -0.0689667 -0.983656 -0.174584 -0.00664142 -0.98462 0.114039 -0.0940035 -0.989019 
0.131628 -0.076003 -0.988381 0.0576225 -0.0146015 -0.998232 -0.26791 -0.0288656 -0.963011 
-0.131367 0.00191319 -0.991332 0.236595 0.0515257 -0.970241 0.161324 0.0294039 -0.986463 
0.00127877 0.0255287 -0.999673 -0.100176 0.0344417 -0.994373 0.0625783 -0.00119326 -0.998039 
0.064324 -0.000832978 -0.997929 -0.094113 -0.18486 -0.978248 -0.017768 -0.238267 -0.971037 
0.014689 -0.270801 -0.962523 -0.0772926 -0.132103 -0.988218 -0.0741901 -0.0901388 -0.993162 
-0.0872609 -0.159095 -0.983399 -0.0487314 -0.100983 -0.993694 0.15026 -0.0052054 -0.988633 
0.164356 -0.0118059 -0.986331 0.049914 -0.012069 -0.998681 -0.250255 -0.0192107 -0.967989 
-0.148501 -0.0479343 -0.98775 0.258814 0.0146015 -0.965817 0.160928 -0.0127702 -0.986884 
-0.00910481 -0.0444737 -0.998969 -0.159036 -0.0362896 -0.986606 -0.146076 0.000389628 -0.989273 
0.11292 -0.0364907 -0.992934 0.101357 -0.0999481 -0.989817 0.101931 -0.0519394 -0.993435 
0.0210212 -0.0722789 -0.997163 -0.232124 -0.121709 -0.965042 -0.14062 -0.176419 -0.974219 
-0.11955 -0.13275 -0.983913 0.237544 -0.222757 -0.945491 0.117906 -0.271763 -0.955114 
0.100728 -0.220539 -0.970163 0.0281289 -0.257049 -0.965989 0.0147198 -0.194533 -0.980785 
-0.131261 -0.137567 -0.981757 -0.0852458 -0.244797 -0.96582 -0.0997772 -0.161333 -0.981843 
0.000952274 -0.225598 -0.97422 -0.0503551 -0.238632 -0.969804 -0.0301464 -0.247194 -0.968497 
-0.0288243 -0.236272 -0.971259 
