# vtk DataFile Version 4.2
vtk output
ASCII
DATASET POLYDATA
POINTS 520 float
-29.1858 -9.29575 -21.9966 -21.826 -38.7351 -14.8 -14.4661 -38.7351 -17.3028 
-7.10628 -38.7351 -17.603 0.25357 -38.7351 -16.1592 -29.1858 -31.3753 -16.2677 
-21.826 -31.3753 -19.78 -14.4661 -31.3753 -20.6538 -7.10628 -31.3753 -19.7887 
0.25357 -31.3753 -17.985 7.61342 -31.3753 -17.284 14.9733 -31.3753 -15.7709 
-36.5457 -24.0154 -16.4262 -29.1858 -24.0154 -20.2267 -21.826 -24.0154 -21.7902 
-14.4661 -24.0154 -21.7479 -7.10628 -24.0154 -20.4785 0.25357 -24.0154 -18.4095 
7.61342 -24.0154 -17.5571 14.9733 -24.0154 -17.6833 22.3331 -24.0154 -16.8375 
-43.9055 -16.6556 -16.283 -36.5457 -16.6556 -20.3933 -29.1858 -10.351 -21.9469 
-29.1858 -16.6556 -21.6389 -21.826 -16.6556 -21.8404 -14.4661 -16.6556 -21.5903 
-7.10628 -16.6556 -20.0791 0.25357 -16.6556 -17.5405 7.61342 -16.6556 -17.299 
14.9733 -16.6556 -18.2119 22.3331 -16.6556 -17.9481 29.693 -16.6556 -16.9398 
-43.9055 -9.29575 -18.9797 -29.8072 -9.29575 -21.9469 -36.5457 -9.29575 -21.44 
-28.6191 -9.29575 -21.9469 -29.1858 -8.73843 -21.9469 -21.826 -9.29575 -21.3501 
-14.4661 -9.29575 -20.4414 -7.10628 -9.29575 -19.4187 0.25357 -9.29575 -17.1433 
7.61342 -9.29575 -17.6681 14.9733 -9.29575 -17.8465 22.3331 -9.29575 -17.9632 
29.693 -9.29575 -17.9232 37.0528 -9.29575 -16.8448 -43.9055 -1.9359 -19.7411 
-36.5457 -1.9359 -21.3404 -29.1858 -1.9359 -21.3346 -21.826 -1.9359 -20.1269 
-14.4661 -1.9359 -18.5017 -7.10628 -1.9359 -18.042 0.25357 -1.9359 -17.4959 
7.61342 -1.9359 -18.9209 14.9733 -1.9359 -16.9042 22.3331 -1.9359 -17.8255 
29.693 -1.9359 -18.3468 37.0528 -1.9359 -17.6598 44.4127 -1.9359 -15.0564 
-43.9055 5.42395 -18.5588 -36.5457 5.42395 -20.3084 -29.1858 5.42395 -20.4006 
-21.826 5.42395 -18.4173 -14.4661 5.42395 -16.6221 -7.10628 5.42395 -18.3649 
0.25357 5.42395 -16.9221 7.61342 5.42395 -18.3063 14.9733 5.42395 -17.6813 
22.3331 5.42395 -17.6907 29.693 5.42395 -17.8743 37.0528 5.42395 -17.2007 
-43.9055 12.7838 -17.0838 -36.5457 12.7838 -18.7927 -29.1858 12.7838 -18.5324 
-21.826 12.7838 -17.7496 -14.4661 12.7838 -17.0933 -7.10628 12.7838 -19.0829 
0.25357 12.7838 -17.5911 7.61342 12.7838 -17.9937 14.9733 12.7838 -18.1912 
22.3331 12.7838 -17.4012 29.693 12.7838 -16.6818 37.0528 12.7838 -15.1957 
-43.9055 20.1437 -15.6373 -36.5457 20.1437 -17.8476 -29.1858 20.1437 -17.6249 
-21.826 20.1437 -17.0191 -14.4661 20.1437 -17.2211 -7.10628 20.1437 -17.8488 
0.25357 20.1437 -17.0889 7.61342 20.1437 -16.7887 14.9733 20.1437 -16.5008 
22.3331 20.1437 -15.051 -36.5457 27.5035 -15.0821 -29.1858 27.5035 -15.5483 
-21.826 27.5035 -15.54 -14.4661 27.5035 -14.8724 -7.10628 27.5035 -14.7343 
-21.826 -38.8968 -14.5871 -14.4661 -41.5469 -14.5871 -7.10628 -42.9974 -14.5871 
0.25357 -41.135 -14.5871 -22.0788 -38.7351 -14.5871 -29.1858 -33.2767 -14.5871 
6.37304 -38.7351 -14.5871 7.61342 -37.9133 -14.5871 7.61342 -38.7351 -14.1743 
14.9733 -33.7607 -14.5871 14.9733 -38.7351 -11.2853 -31.2706 -31.3753 -14.5871 
-36.5457 -26.2517 -14.5871 19.6195 -31.3753 -14.5871 22.3331 -29.626 -14.5871 
22.3331 -31.3753 -13.6818 29.693 -31.3753 -7.54891 -38.709 -24.0154 -14.5871 
-43.9055 -18.3199 -14.5871 28.9799 -24.0154 -14.5871 29.693 -23.3401 -14.5871 
29.693 -24.0154 -14.2931 37.0528 -24.0154 -8.57543 -45.091 -16.6556 -14.5871 
36.7876 -16.6556 -14.5871 37.0528 -16.3939 -14.5871 37.0528 -16.6556 -14.478 
44.4127 -16.6556 -7.63602 -48.3723 -9.29575 -14.5871 42.7863 -9.29575 -14.5871 
44.4127 -4.92075 -14.5871 44.4127 -9.29575 -13.5863 -50.083 -1.9359 -14.5871 
45.0614 -1.9359 -14.5871 44.4127 4.53003 -14.5871 -49.2989 5.42395 -14.5871 
-51.2654 5.42395 -7.46877 44.2467 5.42395 -14.5871 44.4127 5.42395 -14.5149 
51.7725 5.42395 -7.38638 -47.2212 12.7838 -14.5871 29.693 17.5663 -14.5871 
39.004 12.7838 -14.5871 37.0528 14.0995 -14.5871 44.4127 12.7838 -12.4694 
-45.2739 20.1437 -14.5871 -43.9055 22.1708 -14.5871 0.25357 26.7393 -14.5871 
7.61342 24.9194 -14.5871 14.9733 23.4419 -14.5871 24.4561 20.1437 -14.5871 
22.3331 20.8875 -14.5871 29.693 20.1437 -13.3138 37.0528 20.1437 -11.3157 
-37.6766 27.5035 -14.5871 -43.9055 27.5035 -9.95198 -36.5457 28.2015 -14.5871 
-29.1858 28.807 -14.5871 -21.826 29.0884 -14.5871 -14.4661 27.9342 -14.5871 
-4.80268 27.5035 -14.5871 -7.10628 27.7156 -14.5871 0.25357 27.5035 -14.2164 
7.61342 27.5035 -12.9781 14.9733 27.5035 -11.1864 22.3331 27.5035 -9.2229 
-29.1858 34.8634 -8.64202 -21.826 34.8634 -8.8996 -14.4661 34.8634 -8.60809 
-7.10628 34.8634 -7.70221 -21.826 -41.0537 -7.2272 -14.4661 -44.4584 -7.2272 
-7.10628 -45.9983 -7.2272 0.25357 -46.0819 -7.2272 7.61342 -44.6231 -7.2272 
14.9733 -41.8497 -7.2272 -25.1506 -38.7351 -7.2272 -29.1858 -35.5623 -7.2272 
20.2248 -38.7351 -7.2272 22.3331 -37.2768 -7.2272 29.693 -31.6283 -7.2272 
-33.7537 -31.3753 -7.2272 -36.5457 -28.6557 -7.2272 29.9823 -31.3753 -7.2272 
37.0528 -25.1347 -7.2272 -40.9068 -24.0154 -7.2272 -43.9055 -20.227 -7.2272 
38.2287 -24.0154 -7.2272 44.4127 -17.0268 -7.2272 -46.3675 -16.6556 -7.2272 
-43.9055 -16.6556 -0.624127 44.7053 -16.6556 -7.2272 -49.5626 -9.29575 -7.2272 
49.0974 -9.29575 -7.2272 -50.9193 -1.9359 -7.2272 -51.2654 4.51743 -7.2272 
51.5371 -1.9359 -7.2272 51.7725 3.22878 -7.2272 51.7725 -1.9359 -5.98358 
-51.3135 5.42395 -7.2272 -51.2654 6.72087 -7.2272 -51.2654 5.42395 -7.0627 
51.8733 5.42395 -7.2272 51.7725 5.77726 -7.2272 -51.0362 12.7838 -7.2272 
49.5084 12.7838 -7.2272 44.4127 19.6537 -7.2272 51.7725 12.7838 -2.46731 
-49.6338 20.1437 -7.2272 29.693 27.435 -7.2272 43.8345 20.1437 -7.2272 
37.0528 24.5979 -7.2272 44.4127 20.1437 -6.71691 -45.8643 27.5035 -7.2272 
-43.9055 29.6398 -7.2272 -36.5457 34.6127 -7.2272 0.25357 34.4088 -7.2272 
7.61342 32.6524 -7.2272 14.9733 30.6868 -7.2272 29.4547 27.5035 -7.2272 
22.3331 29.1956 -7.2272 29.693 27.5035 -7.14481 37.0528 27.5035 -3.51592 
-35.3173 34.8634 -7.2272 -36.5457 34.8634 -5.43881 -29.1858 35.839 -7.2272 
-21.826 35.9862 -7.2272 -14.4661 35.9171 -7.2272 -3.7169 34.8634 -7.2272 
-7.10628 35.2128 -7.2272 0.25357 34.8634 -6.36064 7.61342 34.8634 -3.00281 
14.9733 34.8634 -0.32393 -21.826 -38.9419 0.132649 -14.4661 -42.2384 0.132649 
-7.10628 -44.8891 0.132649 0.25357 -45.9114 0.132649 7.61342 -45.2559 0.132649 
14.9733 -42.7411 0.132649 -22.1156 -38.7351 0.132649 -29.1858 -31.9822 0.132649 
-21.826 -38.7351 0.383511 -14.4661 -38.7351 4.3458 21.9592 -38.7351 0.132649 
22.3331 -38.5158 0.132649 29.693 -33.51 0.132649 -29.8675 -31.3753 0.132649 
-36.5457 -24.917 0.132649 -29.1858 -31.3753 0.776913 -21.826 -31.3753 6.36699 
32.4613 -31.3753 0.132649 29.693 -31.3753 6.18089 37.0528 -27.4738 0.132649 
-37.357 -24.0154 0.132649 -36.5457 -24.0154 1.01685 -29.1858 -24.0154 7.24517 
40.4134 -24.0154 0.132649 44.4127 -19.1289 0.132649 -43.5019 -16.6556 0.132649 
-43.9055 -15.7009 0.132649 -36.5457 -16.6556 6.80138 46.263 -16.6556 0.132649 
44.4127 -16.6556 5.60784 -46.0888 -9.29575 0.132649 -43.9055 -9.29575 2.7294 
50.3061 -9.29575 0.132649 51.7725 -5.17204 0.132649 -47.6338 -1.9359 0.132649 
-43.9055 -1.9359 4.74161 52.7824 -1.9359 0.132649 51.7725 -1.9359 4.87802 
-48.5496 5.42395 0.132649 -43.9055 5.42395 5.76367 54.0725 5.42395 0.132649 
-49.4436 12.7838 0.132649 -43.9055 12.7838 6.76197 52.7738 12.7838 0.132649 
51.7725 15.5158 0.132649 -48.3918 20.1437 0.132649 -43.9055 20.1437 6.91877 
49.5615 20.1437 0.132649 44.4127 25.7397 0.132649 -44.9844 27.5035 0.132649 
-43.9055 28.9787 0.132649 -43.9055 27.5035 1.74825 22.3331 33.9352 0.132649 
29.693 32.7258 0.132649 41.7634 27.5035 0.132649 37.0528 29.9408 0.132649 
44.4127 27.5035 6.48367 -37.6474 34.8634 0.132649 -36.5457 35.4451 0.132649 
-36.5457 34.8634 1.63068 -29.1858 37.8118 0.132649 -21.826 38.5254 0.132649 
-14.4661 38.813 0.132649 -7.10628 38.5216 0.132649 0.25357 37.678 0.132649 
7.61342 36.2211 0.132649 16.5869 34.8634 0.132649 14.9733 35.091 0.132649 
22.3331 34.8634 3.63436 -7.10628 -39.0933 7.4925 0.25357 -40.8259 7.4925 
7.61342 -41.0079 7.4925 14.9733 -39.2459 7.4925 -7.95244 -38.7351 7.4925 
-14.4661 -34.9796 7.4925 -7.10628 -38.7351 7.80189 0.25357 -38.7351 9.59128 
7.61342 -38.7351 10.0031 16.0413 -38.7351 7.4925 14.9733 -38.7351 8.09458 
22.3331 -35.4116 7.4925 -19.5765 -31.3753 7.4925 -21.826 -29.693 7.4925 
-14.4661 -31.3753 9.63163 -7.10628 -31.3753 12.2383 0.25357 -31.3753 13.9074 
7.61342 -31.3753 14.5954 14.9733 -31.3753 14.2199 28.9047 -31.3753 7.4925 
22.3331 -31.3753 11.4663 29.693 -30.857 7.4925 37.0528 -24.7589 7.4925 
-28.7406 -24.0154 7.4925 -29.1858 -23.6311 7.4925 -21.826 -24.0154 10.6371 
-14.4661 -24.0154 13.109 29.693 -24.0154 13.3663 37.7613 -24.0154 7.4925 
37.0528 -24.0154 8.287 -35.6015 -16.6556 7.4925 -36.5457 -15.2295 7.4925 
-29.1858 -16.6556 11.2497 -21.826 -16.6556 13.9441 43.6788 -16.6556 7.4925 
37.0528 -16.6556 13.6147 44.4127 -15.5829 7.4925 -39.3171 -9.29575 7.4925 
-36.5457 -9.29575 9.91862 -29.1858 -9.29575 14.1761 47.94 -9.29575 7.4925 
44.4127 -9.29575 12.4083 -41.3731 -1.9359 7.4925 -36.5457 -1.9359 11.7176 
51.1578 -1.9359 7.4925 51.7725 0.462012 7.4925 -42.3317 5.42395 7.4925 
-36.5457 5.42395 12.7115 53.0652 5.42395 7.4925 51.7725 5.42395 10.6833 
-43.2238 12.7838 7.4925 -36.5457 12.7838 13.2472 52.7128 12.7838 7.4925 
51.7725 16.2629 7.4925 51.7725 12.7838 9.68046 -43.3524 20.1437 7.4925 
-36.5457 20.1437 12.9084 50.5663 20.1437 7.4925 -40.2769 27.5035 7.4925 
-36.5457 31.7052 7.4925 -36.5457 27.5035 11.3659 29.693 34.7406 7.4925 
37.0528 32.1613 7.4925 44.6884 27.5035 7.4925 44.4127 27.7278 7.4925 
44.4127 27.5035 8.20889 -31.6012 34.8634 7.4925 -29.1858 36.0464 7.4925 
-29.1858 34.8634 9.38293 -21.826 38.0923 7.4925 -21.826 34.8634 13.2754 
-14.4661 39.0382 7.4925 -7.10628 39.0089 7.4925 0.25357 38.3862 7.4925 
7.61342 37.323 7.4925 7.61342 34.8634 14.6251 14.9733 36.4498 7.4925 
14.9733 34.8634 13.3733 28.8241 34.8634 7.4925 22.3331 35.7431 7.4925 
22.3331 34.8634 11.1428 -7.10628 -24.194 14.8524 0.25357 -28.7955 14.8524 
7.61342 -30.7217 14.8524 14.9733 -29.6083 14.8524 22.3331 -25.2917 14.8524 
[...]
POINT_DATA 520
SCALARS ImageScalars float
LOOKUP_TABLE default
0 0 0 0 0 0 0 0 0 
0 0 0 0 0 0 0 0 0 
0 0 0 0 0 0 0 0 0 
0 0 0 0 0 0 0 0 0 
0 0 0 0 0 0 0 0 0 
0 0 0 0 0 0 0 0 0 
0 0 0 0 0 0 0 0 0 
0 0 0 0 0 0 0 0 0 
0 0 0 0 0 0 0 0 0 
0 0 0 0 0 0 0 0 0 
0 0 0 0 0 0 0 0 0 
0 0 0 0 0 0 0 0 0 
0 0 0 0 0 0 0 0 0 
0 0 0 0 0 0 0 0 0 
0 0 0 0 0 0 0 0 0 
0 0 0 0 0 0 0 0 0 
0 0 0 0 0 0 0 0 0 
0 0 0 0 0 0 0 0 0 
0 0 0 0 0 0 0 0 0 
0 0 0 0 0 0 0 0 0 
0 0 0 0 0 0 0 0 0 
0 0 0 0 0 0 0 0 0 
0 0 0 0 0 0 0 0 0 
0 0 0 0 0 0 0 0 0 
0 0 0 0 0 0 0 0 0 
0 0 0 0 0 0 0 0 0 
0 0 0 0 0 0 0 0 0 
0 0 0 0 0 0 0 0 0 
0 0 0 0 0 0 0 0 0 
0 0 0 0 0 0 0 0 0 
0 0 0 0 0 0 0 0 0 
0 0 0 0 0 0 0 0 0 
0 0 0 0 0 0 0 0 0 
0 0 0 0 0 0 0 0 0 
0 0 0 0 0 0 0 0 0 
0 0 0 0 0 0 0 0 0 
0 0 0 0 0 0 0 0 0 
0 0 0 0 0 0 0 0 0 
0 0 0 0 0 0 0 0 0 
0 0 0 0 0 0 0 0 0 
0 0 0 0 0 0 0 0 0 
0 0 0 0 0 0 0 0 0 
0 0 0 0 0 0 0 0 0 
0 0 0 0 0 0 0 0 0 
0 0 0 0 0 0 0 0 0 
0 0 0 0 0 0 0 0 0 
0 0 0 0 0 0 0 0 0 
0 0 0 0 0 0 0 0 0 
0 0 0 0 0 0 0 0 0 
0 0 0 0 0 0 0 0 0 
0 0 0 0 0 0 0 0 0 
0 0 0 0 0 0 0 0 0 
0 0 0 0 0 0 0 0 0 
0 0 0 0 0 0 0 0 0 
0 0 0 0 0 0 0 0 0 
0 0 0 0 0 0 0 0 0 
0 0 0 0 0 0 0 0 0 
0 0 0 0 0 0 0 
NORMALS Normals float
0.00392497 0.0211181 -0.999769 -0.435343 -0.750879 -0.496646 -0.132165 -0.646927 -0.751011 
0.0847523 -0.468325 -0.879482 0.197126 -0.426356 -0.882815 -0.520741 -0.57596 -0.630158 
-0.255797 -0.355355 -0.89905 0.00807832 -0.253012 -0.967429 0.181136 -0.187962 -0.965329 
0.162253 -0.149699 -0.975328 0.142117 -0.179235 -0.973487 0.210789 -0.344841 -0.914687 
-0.535011 -0.569898 -0.623682 -0.307251 -0.30557 -0.901235 -0.0863102 -0.119687 -0.989053 
0.0868389 -0.0659969 -0.994034 0.223915 -0.0197333 -0.974409 0.196617 0.0280095 -0.98008 
0.0483993 -7.23085e-05 -0.998828 0.0432178 -0.155479 -0.986893 0.214381 -0.259324 -0.941696 
-0.715843 -0.478218 -0.508799 -0.255405 -0.294323 -0.920947 -0.00963424 0.00411895 -0.999945 
-0.0941573 -0.10419 -0.99009 0.00373579 0.0301199 -0.999539 0.11169 0.0865294 -0.989969 
0.268257 0.070666 -0.960752 0.18225 0.0874565 -0.979355 -0.0474484 -0.00678576 -0.998851 
-0.0418883 -0.0101167 -0.999071 0.081333 -0.0694855 -0.994262 0.208406 -0.231413 -0.950271 
-0.562652 -0.171817 -0.808642 -0.010633 0.0144482 -0.999839 -0.170919 -0.0576346 -0.983598 
0.011522 0.0280978 -0.999539 0.00959729 0.0268355 -0.999594 0.103542 0.11302 -0.988183 
0.12833 0.20186 -0.970971 0.220102 0.134235 -0.966197 0.117887 0.00315998 -0.993022 
-0.0480369 -0.107317 -0.993064 -0.019724 0.0892415 -0.995815 -0.00534191 0.00834069 -0.999951 
0.073093 -0.0896141 -0.993291 0.249555 -0.183967 -0.950725 -0.425316 0.0400372 -0.904159 
-0.102093 0.0854552 -0.991098 0.080308 0.102184 -0.991519 0.185159 0.196573 -0.962848 
0.140593 0.255998 -0.956399 0.0647782 0.0700062 -0.995441 -0.0592237 0.0141722 -0.998144 
0.0489192 -0.0423793 -0.997903 0.0683942 0.0116397 -0.99759 -0.0975043 0.0184305 -0.995064 
0.00996645 0.00456888 -0.99994 0.203898 -0.0230388 -0.978721 0.50471 -0.0393732 -0.86239 
-0.434056 0.162329 -0.88614 -0.11615 0.158116 -0.980565 0.129447 0.191712 -0.972877 
0.240947 0.155764 -0.957957 0.0083876 0.0911419 -0.995803 -0.0222237 -0.0725022 -0.997121 
-0.001829 -0.00697953 -0.999974 -0.0473429 0.0619674 -0.996955 0.0422609 -0.0869283 -0.995318 
-0.0130393 0.0289206 -0.999497 0.0313361 0.106786 -0.993788 0.206011 0.156196 -0.966003 
-0.456265 0.220091 -0.862196 -0.0786651 0.174479 -0.981514 0.0648676 0.17361 -0.982676 
0.100253 0.0975711 -0.990166 -0.0901071 -0.04013 -0.995123 -0.0403033 0.0353704 -0.998561 
0.072322 -0.00940075 -0.997337 -0.0392253 0.0992144 -0.994293 0.041216 0.0729018 -0.996487 
0.0966259 0.165252 -0.981507 0.142387 0.27989 -0.949414 0.238677 0.343434 -0.908343 
-0.47995 0.312614 -0.819707 -0.138016 0.257579 -0.956349 0.0548771 0.181796 -0.981804 
0.0255372 0.14469 -0.989147 -0.0539929 0.130253 -0.99001 0.00812432 0.270147 -0.962785 
0.0686729 0.205139 -0.976321 0.0389155 0.289602 -0.956356 0.110938 0.371578 -0.92175 
0.192343 0.446016 -0.874113 -0.234479 0.509432 -0.827948 -0.0326695 0.462811 -0.885855 
0.0407621 0.390567 -0.919672 0.0548699 0.463688 -0.884298 0.0371941 0.516568 -0.855438 
-0.438063 -0.758136 -0.483043 -0.220216 -0.778579 -0.587639 0.00467321 -0.732988 -0.680225 
0.213934 -0.564349 -0.797335 -0.445362 -0.75467 -0.481794 -0.567417 -0.641455 -0.516307 
0.265337 -0.517962 -0.813211 0.262836 -0.501152 -0.824478 0.278291 -0.55027 -0.787247 
0.245861 -0.432398 -0.867516 0.382246 -0.696052 -0.607783 -0.579325 -0.633262 -0.513187 
-0.588131 -0.63706 -0.498253 0.293897 -0.430884 -0.853208 0.316657 -0.427077 -0.846956 
0.368811 -0.502603 -0.781901 0.602507 -0.695583 -0.391343 -0.616358 -0.614567 -0.492351 
-0.753055 -0.529698 -0.390293 0.360678 -0.398525 -0.843261 0.362065 -0.395659 -0.844016 
0.381923 -0.419711 -0.823394 0.61643 -0.640772 -0.45763 -0.777646 -0.498203 -0.383485 
0.409847 -0.396588 -0.821427 0.410689 -0.395515 -0.821525 0.41945 -0.405207 -0.812323 
0.736244 -0.560364 -0.37939 -0.849972 -0.295098 -0.436424 0.495503 -0.271462 -0.825097 
0.535595 -0.139425 -0.832885 0.597757 -0.308118 -0.740102 -0.897209 -0.0618323 -0.437255 
0.536369 -0.0471045 -0.842668 0.463389 0.118091 -0.878251 -0.808805 0.138466 -0.571544 
-0.99952 -0.00437887 0.030662 0.450253 0.140671 -0.88175 0.457756 0.140265 -0.877944 
0.885596 0.111317 -0.450919 -0.643124 0.228305 -0.730936 0.187304 0.42258 -0.88676 
0.298584 0.353729 -0.88641 0.250054 0.378995 -0.890975 0.500965 0.383512 -0.775856 
-0.564661 0.329463 -0.756711 -0.514367 0.391472 -0.763005 0.0853857 0.485623 -0.869988 
0.105 0.482008 -0.869852 0.148145 0.514475 -0.844611 0.195999 0.462604 -0.864628 
0.195372 0.473826 -0.858673 0.204402 0.505 -0.838567 0.323476 0.56018 -0.762602 
-0.286617 0.527592 -0.799686 -0.6441 0.650211 -0.402941 -0.241112 0.533632 -0.810618 
-0.0433289 0.521286 -0.852281 0.0348651 0.463363 -0.885483 0.0576349 0.481728 -0.874424 
0.052432 0.517433 -0.854116 0.0377841 0.52396 -0.850905 0.0894476 0.524642 -0.846611 
0.150587 0.613906 -0.774882 0.182436 0.709652 -0.680523 0.18539 0.726874 -0.661275 
-0.0858454 0.851734 -0.516894 0.00249644 0.833198 -0.552969 0.0530045 0.804433 -0.591674 
0.0868942 0.825923 -0.557046 -0.504748 -0.863229 0.00806021 -0.311992 -0.949045 -0.0444351 
-0.104752 -0.991574 -0.0762093 0.0832168 -0.974936 -0.206336 0.267702 -0.910269 -0.315827 
0.406882 -0.843971 -0.349515 -0.58118 -0.813481 0.0218676 -0.647771 -0.759826 0.0552895 
0.514554 -0.785759 -0.343246 0.542519 -0.763171 -0.35106 0.605367 -0.702306 -0.374562 
-0.686073 -0.725783 0.0504286 -0.71014 -0.702283 0.0499882 0.606848 -0.700297 -0.375924 
0.633793 -0.667553 -0.390742 -0.766237 -0.63944 0.0632208 -0.820255 -0.566969 0.0756801 
0.647566 -0.656119 -0.387513 0.742086 -0.566655 -0.358065 -0.863986 -0.495013 0.0921381 
-0.78202 -0.431073 0.450133 0.747372 -0.560747 -0.356368 -0.948151 -0.292798 0.123607 
0.854267 -0.380958 -0.353692 -0.985142 -0.112419 0.129833 -0.998165 -0.0206667 0.0569168 
0.913576 -0.15941 -0.374123 0.904952 0.0262095 -0.424706 0.93681 -0.173814 -0.303604 
-0.99887 -0.00801036 0.046844 -0.999584 0.0122937 0.0260903 -0.998402 -0.0100118 0.0556222 
0.889088 0.109577 -0.444427 0.885344 0.121379 -0.448812 -0.991178 0.109738 -0.0743205 
0.752727 0.3578 -0.552614 0.533967 0.566213 -0.62792 0.911645 0.28437 -0.296712 
-0.938251 0.311933 -0.14961 0.241678 0.719142 -0.651481 0.515039 0.57921 -0.631863 
0.335992 0.661907 -0.670066 0.538273 0.580695 -0.610782 -0.742006 0.630209 -0.228612 
-0.653489 0.713748 -0.252023 -0.365522 0.839482 -0.402075 0.139217 0.833971 -0.533958 
0.20611 0.815975 -0.540097 0.188907 0.798739 -0.571253 0.239778 0.721452 -0.649626 
0.16795 0.771889 -0.613173 0.24191 0.721718 -0.648539 0.345296 0.760372 -0.550096 
-0.315929 0.854263 -0.412824 -0.388407 0.881832 -0.267417 -0.0769083 0.892691 -0.444059 
-0.00503915 0.882236 -0.470781 0.0472877 0.84214 -0.537182 0.111622 0.837307 -0.535217 
0.0883636 0.836569 -0.540689 0.141139 0.856988 -0.495632 0.188492 0.903595 -0.384691 
0.145454 0.925616 -0.349398 -0.473538 -0.733024 0.4883 -0.360997 -0.816301 0.450925 
-0.204046 -0.907659 0.366769 -0.0166102 -0.960095 0.279181 0.189599 -0.961274 0.200012 
0.392372 -0.908543 0.143505 -0.480075 -0.728343 0.488922 -0.572771 -0.647377 0.502829 
-0.473036 -0.725843 0.499389 -0.367826 -0.666851 0.648085 0.521896 -0.847369 0.0979269 
0.52825 -0.843806 0.0945694 0.597842 -0.800437 0.0434268 -0.575655 -0.645036 0.502544 
-0.641891 -0.582497 0.498671 -0.561979 -0.637478 0.527069 -0.414934 -0.53548 0.735588 
0.624873 -0.780361 0.0238948 0.533106 -0.75347 0.384814 0.685861 -0.727642 0.0115357 
-0.650288 -0.572969 0.49883 -0.631955 -0.564801 0.530691 -0.451311 -0.492354 0.744248 
0.735847 -0.676614 0.0268608 0.805299 -0.591142 0.0452175 -0.761068 -0.419524 0.494747 
-0.770471 -0.392333 0.502443 -0.560668 -0.409961 0.719433 0.833607 -0.54921 0.0588977 
0.780195 -0.533678 0.326319 -0.802438 -0.231642 0.549941 -0.752669 -0.21659 0.621754 
0.916951 -0.393398 0.0666196 0.955192 -0.293036 0.0416882 -0.834594 -0.134397 0.53422 
-0.746408 -0.13869 0.650877 0.973311 -0.228603 0.0201517 0.933607 -0.272565 0.232562 
-0.857756 -0.0972547 0.504773 -0.743396 -0.0888465 0.662925 0.997562 -0.00441795 -0.069648 
-0.906679 0.0198703 0.421353 -0.717747 -0.0517625 0.694378 0.952632 0.251707 -0.170695 
0.915808 0.342561 -0.209638 -0.906405 0.22478 0.357636 -0.73644 0.163721 0.656392 
0.788196 0.537554 -0.299638 0.579559 0.735293 -0.351361 -0.802742 0.511358 0.306788 
-0.773225 0.570937 0.27596 -0.789707 0.488862 0.370643 0.137796 0.908291 -0.394994 
0.238888 0.881562 -0.407161 0.484746 0.787214 -0.381203 0.3666 0.844002 -0.391491 
0.632708 0.774286 -0.0127478 -0.4546 0.880526 0.134211 -0.410055 0.901744 0.136796 
-0.427339 0.878225 0.214712 -0.205795 0.978482 -0.014872 -0.0659469 0.989763 -0.126567 
-0.000492423 0.98251 -0.186211 0.0760718 0.969008 -0.235025 0.15087 0.957581 -0.245514 
0.173996 0.944196 -0.279678 0.139487 0.927262 -0.34746 0.141512 0.931614 -0.334768 
0.126989 0.971229 -0.201465 -0.242177 -0.631216 0.736829 -0.093162 -0.722839 0.684708 
0.0904743 -0.773424 0.627399 0.294832 -0.777469 0.555532 -0.259357 -0.619651 0.740787 
-0.352083 -0.533297 0.769176 -0.245273 -0.617167 0.747627 -0.120042 -0.646619 0.753309 
0.070204 -0.690684 0.719741 0.317919 -0.772993 0.549008 0.29177 -0.762176 0.577891 
0.430346 -0.729246 0.53198 -0.378373 -0.509564 0.772773 -0.388608 -0.506149 0.769933 
-0.324958 -0.459305 0.826705 -0.252974 -0.410388 0.87612 -0.140284 -0.392244 0.909101 
-0.0218044 -0.414243 0.909905 0.164639 -0.445541 0.879993 0.499751 -0.7276 0.469943 
0.359326 -0.599892 0.714852 0.507673 -0.724834 0.465707 0.642172 -0.627285 0.440599 
-0.442092 -0.4866 0.753509 -0.446523 -0.485148 0.75183 -0.33306 -0.425814 0.841281 
-0.256202 -0.368297 0.89371 0.344481 -0.468037 0.813802 0.653208 -0.6153 0.441277 
0.632668 -0.607324 0.480509 -0.53596 -0.405183 0.740657 -0.564897 -0.375435 0.734806 
-0.391701 -0.391249 0.832763 -0.272187 -0.349795 0.896414 0.739491 -0.51687 0.431275 
0.459888 -0.438941 0.771903 0.753739 -0.505868 0.419494 -0.649065 -0.238799 0.722281 
-0.586823 -0.254185 0.768784 -0.377308 -0.286202 0.880754 0.802744 -0.429454 0.413728 
0.653808 -0.416102 0.631976 -0.694893 -0.145053 0.704332 -0.591134 -0.151066 0.7923 
0.88649 -0.294461 0.35697 0.916904 -0.235501 0.322222 -0.71217 -0.0872643 0.696562 
-0.599313 -0.082376 0.796265 0.959188 -0.102206 0.263653 0.903411 -0.122883 0.41079 
-0.699009 -0.049484 0.713399 -0.589623 -0.0101492 0.807615 0.967935 0.1437 0.206038 
0.946846 0.268596 0.177026 0.937757 0.144495 0.315807 -0.716537 0.153763 0.680391 
-0.579907 0.0979551 0.808772 0.889734 0.435473 0.136886 -0.697195 0.402902 0.592949 
-0.533261 0.629478 0.565146 -0.568126 0.395384 0.721737 0.240214 0.970719 0.00107563 
0.406356 0.913699 -0.00540171 0.644461 0.763613 0.0395685 0.635938 0.770832 0.0374179 
0.641246 0.763098 0.0805252 -0.399305 0.802356 0.443599 -0.357771 0.844752 0.397988 
-0.385875 0.78658 0.482072 -0.191704 0.945713 0.262443 -0.247711 0.757855 0.603569 
-0.0607432 0.98084 0.185105 0.0437617 0.988649 0.143729 0.114631 0.984118 0.135542 
0.130805 0.988148 0.080329 0.0538787 0.820152 0.569603 0.106269 0.993868 0.0305658 
0.0717824 0.897379 0.435382 0.225182 0.974316 0.00142676 0.112994 0.993592 0.00271927 
0.109642 0.961708 0.251189 -0.210606 -0.318353 0.924282 -0.143932 -0.352306 0.924751 
-0.021545 -0.399699 0.916393 0.149917 -0.387796 0.909472 0.214605 -0.373977 0.902267 
-0.211033 -0.318226 0.924228 -0.236289 -0.339601 0.910406 -0.20962 -0.316905 0.925003 
-0.151113 -0.298406 0.942401 -0.00868577 -0.277559 0.960669 0.116262 -0.24359 0.962885 
0.2307 -0.369629 0.900084 0.193322 -0.335653 0.921935 0.273599 -0.379159 0.883958 
-0.250656 -0.337167 0.907463 -0.263436 -0.315149 0.911747 -0.232797 -0.326413 0.916112 
-0.179353 -0.393886 0.901491 -0.0890214 -0.371037 0.924341 0.0525819 -0.269932 0.961443 
0.112023 -0.161756 0.980452 0.0999899 -0.221382 0.970047 0.350865 -0.381531 0.855177 
0.212228 -0.315103 0.925024 0.395965 -0.405197 0.824031 -0.339332 -0.276534 0.899101 
-0.370626 -0.248937 0.8948 -0.249627 -0.25192 0.934999 -0.297236 -0.202342 0.933118 
-0.243617 -0.248988 0.937366 -0.0175787 -0.237455 0.971239 0.203642 -0.216222 0.954871 
0.15549 -0.17264 0.972635 0.0287242 -0.219088 0.975282 0.118658 -0.284026 0.951446 
0.483046 -0.389408 0.784237 0.320451 -0.358319 0.87688 0.589041 -0.35891 0.724027 
-0.426816 -0.173908 0.887459 -0.358591 -0.17701 0.916559 -0.197323 -0.169148 0.965636 
-0.247838 -0.129393 0.960122 -0.226422 -0.0859237 0.970232 0.105015 -0.153618 0.982534 
-0.0167246 -0.209884 0.977583 0.0659646 -0.231521 0.970591 0.263057 -0.284906 0.921753 
0.627512 -0.33734 0.701734 0.56453 -0.325787 0.758399 -0.498117 -0.0881541 0.862617 
-0.373785 -0.100892 0.922012 -0.203881 -0.139262 0.96904 -0.226616 -0.17088 0.958877 
0.0442562 -0.0702458 0.996548 -0.0591218 -0.0800803 0.995034 0.208364 -0.117561 0.97096 
0.753812 -0.144966 0.6409 0.507829 -0.136329 0.850602 -0.527467 -0.00966855 0.849521 
-0.408973 -0.0356514 0.91185 -0.260344 -0.0848763 0.961778 -0.192138 -0.103023 0.975945 
0.0310128 -0.00221523 0.999517 -0.0585474 0.0279197 0.997894 0.227902 0.0239731 0.973389 
0.752219 0.132466 0.64546 0.539116 0.0820892 0.838221 -0.527138 0.111825 0.84239 
-0.443037 0.129799 0.887057 -0.253455 0.0965008 0.962522 -0.139219 0.0849418 0.986612 
0.0408403 0.235451 0.971028 0.0464593 0.176356 0.983229 0.00828872 0.10354 0.994591 
-0.0159504 0.141066 0.989872 0.0394171 0.194388 0.980133 0.234681 0.220346 0.94677 
0.720592 0.352021 0.597352 0.654152 0.502196 0.565584 0.628538 0.321714 0.708125 
-0.426912 0.365386 0.827187 -0.411575 0.41068 0.813602 -0.407899 0.365475 0.836688 
-0.26303 0.646163 0.716441 -0.287854 0.361661 0.886759 -0.106674 0.354192 0.929069 
0.0221653 0.363013 0.93152 0.0370786 0.397847 0.916702 0.0503413 0.806104 0.589629 
-0.000971425 0.39455 0.918874 0.0556644 0.827437 0.558792 -0.00107325 0.387795 0.921745 
0.0896105 0.82986 0.55073 0.0360501 0.449495 0.892555 0.213918 0.818357 0.533415 
0.135446 0.514664 0.846626 0.501076 0.6855 0.528217 0.401483 0.759569 0.511729 
0.369207 0.647641 0.666519 -0.168367 0.727835 0.664762 -0.118383 0.75447 0.64557 
-0.120059 0.726756 0.676322 0.0162031 0.778824 0.627034 0.0175139 0.729161 0.684118 
0.0539418 0.800372 0.597072 0.0657992 0.769287 0.635507 0.0641155 0.75345 0.654372 
-0.0242454 -0.195721 0.98036 0.141691 -0.104982 0.984328 -0.117743 -0.0907266 0.988891 
-0.220504 -0.0870317 0.971496 -0.0402218 -0.0947464 0.994689 0.12727 -0.0901147 0.987766 
0.129418 -0.0841445 0.988013 0.0403824 -0.107529 0.993381 -0.219985 -0.096541 0.970714 
-0.217915 -0.0878688 0.972004 -0.0166498 -0.0707711 0.997354 0.110993 -0.0300195 0.993368 
0.147565 -0.0091564 0.98901 0.031316 -0.103428 0.994144 0.0441361 -0.105896 0.993397 
0.0399744 -0.10567 0.993597 -0.166587 -0.0630923 0.984006 -0.123876 0.00462043 0.992287 
0.0406723 0.222958 0.973979 0.0352309 0.0957457 0.994782 0.0968408 0.0398623 0.994501 
0.0975154 0.105392 0.989638 0.129627 0.0607519 0.9897 -0.0198208 0.0328101 0.999265 
0.0849414 0.0331376 0.995835 0.0301182 0.0834996 0.996053 0.0286744 0.0369543 0.998905 
-0.057196 0.148845 0.987205 0.0169009 0.212686 0.976974 -0.0140927 0.193825 0.980935 
-0.0184637 0.178593 0.98375 
