# vtk DataFile Version 4.2
vtk output
ASCII
DATASET POLYDATA
POINTS 506 float
35.7189 3.02173 -23.8482 27.1989 20.0617 -23.6689 18.6789 28.5817 -23.8264 
10.1589 -39.5783 -15.2036 -23.9211 -31.0583 -16.2716 -15.4011 -31.0583 -17.197 
-6.88113 -31.0583 -17.9895 1.63887 -31.0583 -19.0726 10.1589 -31.0583 -20.0461 
18.6789 -31.0583 -20.0091 27.1989 -31.0583 -19.5408 35.7189 -31.0583 -18.3307 
44.2389 -31.0583 -16.0391 -32.4411 -22.5383 -17.7387 -23.9211 -22.5383 -18.7985 
-15.4011 -22.5383 -19.3493 -6.88113 -22.5383 -19.6007 1.63887 -22.5383 -21.1517 
10.1589 -22.5383 -22.0302 18.6789 -22.5383 -21.2837 27.1989 -22.5383 -21.139 
35.7189 -22.5383 -21.2089 44.2389 -22.5383 -20.6908 52.7589 -22.5383 -15.1026 
-40.9611 -14.0183 -17.2494 -32.4411 -14.0183 -19.7064 -23.9211 -14.0183 -20.5147 
-15.4011 -14.0183 -21.1074 -6.88113 -14.0183 -21.4258 1.63887 -14.0183 -22.2325 
10.1589 -14.0183 -22.5543 18.6789 -14.0183 -21.0374 27.1989 -14.0183 -21.598 
35.7189 -14.0183 -22.0756 44.2389 -14.0183 -21.8254 52.7589 -14.0183 -19.2574 
-40.9611 -5.49826 -18.6028 -32.4411 -5.49826 -20.3465 -23.9211 -5.49826 -20.9273 
-15.4011 -5.49826 -22.1195 -6.88113 -5.49826 -22.0723 1.63887 -5.49826 -21.0104 
10.1589 -5.49826 -23.104 18.6789 -5.49826 -21.3265 27.1989 -5.49826 -22.3859 
35.7189 -0.400963 -23.6154 35.7189 -5.49826 -23.2682 44.2389 -5.49826 -23.2043 
52.7589 -5.49826 -21.1496 -49.4811 3.02173 -16.0107 -40.9611 3.02173 -18.9574 
-32.4411 3.02173 -20.4446 -23.9211 3.02173 -20.7011 -15.4011 3.02173 -21.4735 
-6.88113 3.02173 -22.7875 1.63887 3.02173 -22.1058 10.1589 3.02173 -22.8976 
18.6789 3.02173 -21.6266 33.2928 3.02173 -23.6154 27.1989 3.02173 -23.0012 
40.4888 3.02173 -23.6154 35.7189 8.82088 -23.6154 44.2389 3.02173 -23.4245 
52.7589 3.02173 -20.82 -49.4811 11.5417 -15.6955 -40.9611 11.5417 -19.448 
-32.4411 11.5417 -20.7742 -23.9211 11.5417 -21.6248 -15.4011 11.5417 -21.7303 
-6.88113 11.5417 -22.2839 1.63887 11.5417 -21.655 10.1589 11.5417 -20.739 
18.6789 11.5417 -21.7268 27.1989 19.423 -23.6154 27.1989 11.5417 -22.9665 
35.7189 11.5417 -23.5049 44.2389 11.5417 -22.4942 52.7589 11.5417 -18.8233 
-40.9611 20.0617 -19.0353 -32.4411 20.0617 -21.3794 -23.9211 20.0617 -22.2981 
-15.4011 20.0617 -22.0135 -6.88113 20.0617 -21.6105 1.63887 20.0617 -21.6135 
10.1589 20.0617 -22.078 26.703 20.0617 -23.6154 18.6789 26.9351 -23.6154 
18.6789 20.0617 -22.7655 27.5877 20.0617 -23.6154 27.1989 20.4534 -23.6154 
35.7189 20.0617 -22.577 44.2389 20.0617 -20.548 -40.9611 28.5817 -17.6985 
-32.4411 28.5817 -20.7138 -23.9211 28.5817 -21.8152 -15.4011 28.5817 -22.3795 
-6.88113 28.5817 -22.053 1.63887 28.5817 -23.0146 15.7966 28.5817 -23.6154 
10.1589 28.5817 -23.2173 20.0198 28.5817 -23.6154 18.6789 30.3032 -23.6154 
27.1989 28.5817 -22.5763 35.7189 28.5817 -21.1666 44.2389 28.5817 -17.2167 
-32.4411 37.1017 -16.9924 -23.9211 37.1017 -19.5136 -15.4011 37.1017 -20.6821 
-6.88113 37.1017 -21.2197 1.63887 37.1017 -22.3677 10.1589 37.1017 -22.7005 
18.6789 37.1017 -22.6622 27.1989 37.1017 -20.0497 35.7189 37.1017 -16.2003 
-6.88113 45.6217 -16.6125 1.63887 45.6217 -18.619 10.1589 45.6217 -18.6423 
18.6789 45.6217 -16.3162 10.1589 -39.696 -15.0954 -23.9211 -33.35 -15.0954 
-23.9211 -39.5783 -10.149 -15.4011 -35.4478 -15.0954 -15.4011 -39.5783 -12.7096 
-6.88113 -37.7107 -15.0954 -6.88113 -39.5783 -14.0106 8.00159 -39.5783 -15.0954 
1.63887 -38.9959 -15.0954 1.63887 -39.5783 -14.7334 15.4058 -39.5783 -15.0954 
18.6789 -39.4825 -15.0954 18.6789 -39.5783 -14.9991 27.1989 -39.1374 -15.0954 
27.1989 -39.5783 -14.6139 35.7189 -36.3342 -15.0954 35.7189 -39.5783 -10.3776 
44.2389 -32.2884 -15.0954 -27.5453 -31.0583 -15.0954 -32.4411 -27.8375 -15.0954 
-32.4411 -31.0583 -12.9849 45.5803 -31.0583 -15.0954 52.7589 -22.5493 -15.0954 
-38.6096 -22.5383 -15.0954 -40.9611 -19.7757 -15.0954 -40.9611 -22.5383 -13.3868 
52.7665 -22.5383 -15.0954 -44.6549 -14.0183 -15.0954 -49.4811 -14.0183 -10.036 
56.9538 -14.0183 -15.0954 -49.0654 -5.49826 -15.0954 -49.4811 -4.10653 -15.0954 
-49.4811 -5.49826 -14.8298 58.6387 -5.49826 -15.0954 -50.605 3.02173 -15.0954 
58.2333 3.02173 -15.0954 -50.2078 11.5417 -15.0954 -49.4811 13.7965 -15.0954 
56.3068 11.5417 -15.0954 52.7589 19.4984 -15.0954 -47.0714 20.0617 -15.0954 
-49.4811 20.0617 -12.161 52.4217 20.0617 -15.0954 52.7589 20.0617 -14.2989 
-43.4665 28.5817 -15.0954 -40.9611 31.6895 -15.0954 46.4382 28.5817 -15.0954 
44.2389 30.9993 -15.0954 -35.0169 37.1017 -15.0954 -32.4411 38.7114 -15.0954 
-23.9211 41.7758 -15.0954 -15.4011 44.786 -15.0954 27.1989 42.3838 -15.0954 
37.0491 37.1017 -15.0954 35.7189 38.0077 -15.0954 -12.6518 45.6217 -15.0954 
-15.4011 45.6217 -7.49981 -6.88113 46.9249 -15.0954 1.63887 48.8007 -15.0954 
10.1589 48.5512 -15.0954 20.4582 45.6217 -15.0954 18.6789 46.3527 -15.0954 
-23.9211 -42.2006 -6.57542 -15.4011 -44.8548 -6.57542 -6.88113 -45.9712 -6.57542 
-6.88113 -48.0983 1.83356 1.63887 -46.1818 -6.57542 10.1589 -45.5751 -6.57542 
18.6789 -44.6559 -6.57542 27.1989 -43.6006 -6.57542 35.7189 -41.3319 -6.57542 
-28.9129 -39.5783 -6.57542 -32.4411 -37.4247 -6.57542 38.7935 -39.5783 -6.57542 
35.7189 -39.5783 -1.38892 44.2389 -36.0371 -6.57542 -39.2879 -31.0583 -6.57542 
-40.9611 -29.1082 -6.57542 -40.9611 -31.0583 1.75464 49.3683 -31.0583 -6.57542 
44.2389 -31.0583 0.253997 52.7589 -26.4563 -6.57542 -45.9748 -22.5383 -6.57542 
-49.4811 -17.4305 -6.57542 55.2823 -22.5383 -6.57542 52.7589 -22.5383 -1.77923 
-51.5507 -14.0183 -6.57542 57.7838 -14.0183 -6.57542 52.7589 -14.0183 0.118204 
-55.3974 -5.49826 -6.57542 60.0343 -5.49826 -6.57542 -56.9404 3.02173 -6.57542 
-58.0011 3.02173 -0.79123 60.027 3.02173 -6.57542 -56.0236 11.5417 -6.57542 
58.1295 11.5417 -6.57542 -52.7893 20.0617 -6.57542 -49.4811 25.9295 -6.57542 
55.0778 20.0617 -6.57542 52.7589 24.0228 -6.57542 52.7589 20.0617 -0.754959 
-47.8211 28.5817 -6.57542 -40.9611 35.7385 -6.57542 49.518 28.5817 -6.57542 
44.2389 33.8818 -6.57542 -38.7749 37.1017 -6.57542 -32.4411 40.3826 -6.57542 
-32.4411 37.1017 0.766823 -23.9211 43.1015 -6.57542 27.1989 43.3813 -6.57542 
39.8314 37.1017 -6.57542 35.7189 39.6218 -6.57542 35.7189 37.1017 -1.21259 
-15.614 45.6217 -6.57542 -15.4011 45.6859 -6.57542 -15.4011 45.6217 -6.43542 
-6.88113 48.2166 -6.57542 -6.88113 45.6217 -1.38478 1.63887 49.6599 -6.57542 
1.63887 45.6217 0.977954 10.1589 49.1986 -6.57542 10.1589 45.6217 0.446171 
21.8707 45.6217 -6.57542 18.6789 46.8021 -6.57542 18.6789 45.6217 -4.05289 
-6.88113 -48.1226 1.94458 -23.9211 -44.1966 1.94458 -7.02978 -48.0983 1.94458 
-15.4011 -46.7073 1.94458 -2.45822 -48.0983 1.94458 -6.88113 -48.0983 2.12349 
1.63887 -48.0757 1.94458 10.1589 -47.1763 1.94458 18.6789 -45.3017 1.94458 
27.1989 -42.7323 1.94458 -40.9611 -31.0961 1.94458 -32.4321 -39.5783 1.94458 
-32.4411 -39.572 1.94458 33.5072 -39.5783 1.94458 27.1989 -39.5783 7.17667 
35.7189 -38.2364 1.94458 -40.9916 -31.0583 1.94458 -40.9611 -31.0583 2.15338 
42.9435 -31.0583 1.94458 35.7189 -31.0583 8.50515 44.2389 -28.5687 1.94458 
-46.867 -22.5383 1.94458 -49.4811 -18.6479 1.94458 35.7189 -22.5383 9.23632 
49.1674 -22.5383 1.94458 44.2389 -22.5383 4.5125 -52.3668 -14.0183 1.94458 
50.89 -14.0183 1.94458 44.2389 -14.0183 6.88864 52.7589 -9.71624 1.94458 
-56.629 -5.49826 1.94458 -58.0011 0.8672 1.94458 44.2389 -5.49826 9.13001 
54.5973 -5.49826 1.94458 52.7589 -5.49826 3.37827 -58.4569 3.02173 1.94458 
-58.0011 6.27803 1.94458 -58.0011 3.02173 4.52432 55.421 3.02173 1.94458 
52.7589 3.02173 4.52625 -57.1794 11.5417 1.94458 54.5946 11.5417 1.94458 
52.7589 16.6721 1.94458 52.7589 11.5417 4.07893 -53.0938 20.0617 1.94458 
-49.4811 24.659 1.94458 51.5274 20.0617 1.94458 44.2389 20.0617 9.87637 
-45.2427 28.5817 1.94458 -40.9611 32.134 1.94458 -40.9611 28.5817 7.80445 
-32.4411 36.5008 1.94458 35.7189 35.4974 1.94458 35.7189 28.5817 10.1181 
45.1328 28.5817 1.94458 44.2389 29.4535 1.94458 44.2389 28.5817 2.98079 
-30.8503 37.1017 1.94458 -23.9211 39.592 1.94458 -23.9211 37.1017 5.36592 
-15.4011 41.1947 1.94458 -15.4011 37.1017 7.23284 -6.88113 43.4653 1.94458 
-6.88113 37.1017 8.73361 1.63887 44.9452 1.94458 1.63887 37.1017 10.2296 
10.1589 44.6238 1.94458 10.1589 37.1017 10.4146 18.6789 42.4482 1.94458 
18.6789 37.1017 8.72372 32.3384 37.1017 1.94458 27.1989 39.6218 1.94458 
27.1989 37.1017 5.17621 -23.9211 -42.7759 10.4646 -15.4011 -45.3327 10.4646 
-6.88113 -46.7793 10.4646 1.63887 -46.4535 10.4646 10.1589 -44.8265 10.4646 
18.6789 -41.544 10.4646 -30.1402 -39.5783 10.4646 -32.4411 -38.03 10.4646 
-23.9211 -39.5783 16.5678 1.63887 -39.5783 18.6761 10.1589 -39.5783 16.0963 
22.6882 -39.5783 10.4646 18.6789 -39.5783 12.5445 27.1989 -34.7993 10.4646 
-39.4641 -31.0583 10.4646 -40.9611 -29.1136 10.4646 18.6789 -31.0583 16.5311 
31.1827 -31.0583 10.4646 27.1989 -31.0583 12.0297 -45.3709 -22.5383 10.4646 
-49.4811 -16.4577 10.4646 18.6789 -22.5383 17.9932 32.9317 -22.5383 10.4646 
27.1989 -22.5383 13.3037 35.7189 -14.7139 10.4646 -51.0077 -14.0183 10.4646 
-49.4811 -14.0183 14.059 27.1989 -14.0183 14.0029 36.0061 -14.0183 10.4646 
35.7189 -14.0183 10.5708 -55.3846 -5.49826 10.4646 27.1989 -5.49826 17.1922 
41.1949 -5.49826 10.4646 35.7189 -5.49826 12.764 44.2389 -0.304975 10.4646 
-56.8845 3.02173 10.4646 35.7189 3.02173 16.3036 45.4333 3.02173 10.4646 
44.2389 3.02173 11.4206 -55.3067 11.5417 10.4646 -49.4811 11.5417 18.4973 
35.7189 11.5417 17.44 46.4126 11.5417 10.4646 44.2389 18.1825 10.4646 
44.2389 11.5417 12.2125 -50.2304 20.0617 10.4646 -49.4811 20.8709 10.4646 
-49.4811 20.0617 11.513 -40.9611 26.654 10.4646 -40.9611 20.0617 17.8432 
27.1989 20.0617 18.6295 43.5086 20.0617 10.4646 35.7189 28.1556 10.4646 
35.7189 20.0617 15.5 -37.167 28.5817 10.4646 -32.4411 30.676 10.4646 
-32.4411 28.5817 13.0978 -23.9211 33.1871 10.4646 -23.9211 28.5817 16.4876 
-15.4011 34.422 10.4646 -15.4011 28.5817 17.635 -6.88113 35.4193 10.4646 
-6.88113 28.5817 16.8303 1.63887 36.8183 10.4646 1.63887 28.5817 16.762 
10.1589 37.0496 10.4646 10.1589 28.5817 17.306 18.6789 35.3763 10.4646 
[...]
POINT_DATA 506
SCALARS ImageScalars float
LOOKUP_TABLE default
0 0 0 0 0 0 0 0 0 
0 0 0 0 0 0 0 0 0 
0 0 0 0 0 0 0 0 0 
0 0 0 0 0 0 0 0 0 
0 0 0 0 0 0 0 0 0 
0 0 0 0 0 0 0 0 0 
0 0 0 0 0 0 0 0 0 
0 0 0 0 0 0 0 0 0 
0 0 0 0 0 0 0 0 0 
0 0 0 0 0 0 0 0 0 
0 0 0 0 0 0 0 0 0 
0 0 0 0 0 0 0 0 0 
0 0 0 0 0 0 0 0 0 
0 0 0 0 0 0 0 0 0 
0 0 0 0 0 0 0 0 0 
0 0 0 0 0 0 0 0 0 
0 0 0 0 0 0 0 0 0 
0 0 0 0 0 0 0 0 0 
0 0 0 0 0 0 0 0 0 
0 0 0 0 0 0 0 0 0 
0 0 0 0 0 0 0 0 0 
0 0 0 0 0 0 0 0 0 
0 0 0 0 0 0 0 0 0 
0 0 0 0 0 0 0 0 0 
0 0 0 0 0 0 0 0 0 
0 0 0 0 0 0 0 0 0 
0 0 0 0 0 0 0 0 0 
0 0 0 0 0 0 0 0 0 
0 0 0 0 0 0 0 0 0 
0 0 0 0 0 0 0 0 0 
0 0 0 0 0 0 0 0 0 
0 0 0 0 0 0 0 0 0 
0 0 0 0 0 0 0 0 0 
0 0 0 0 0 0 0 0 0 
0 0 0 0 0 0 0 0 0 
0 0 0 0 0 0 0 0 0 
0 0 0 0 0 0 0 0 0 
0 0 0 0 0 0 0 0 0 
0 0 0 0 0 0 0 0 0 
0 0 0 0 0 0 0 0 0 
0 0 0 0 0 0 0 0 0 
0 0 0 0 0 0 0 0 0 
0 0 0 0 0 0 0 0 0 
0 0 0 0 0 0 0 0 0 
0 0 0 0 0 0 0 0 0 
0 0 0 0 0 0 0 0 0 
0 0 0 0 0 0 0 0 0 
0 0 0 0 0 0 0 0 0 
0 0 0 0 0 0 0 0 0 
0 0 0 0 0 0 0 0 0 
0 0 0 0 0 0 0 0 0 
0 0 0 0 0 0 0 0 0 
0 0 0 0 0 0 0 0 0 
0 0 0 0 0 0 0 0 0 
0 0 0 0 0 0 0 0 0 
0 0 0 0 0 0 0 0 0 
0 0 
NORMALS Normals float
0.0241556 0.0138807 0.999612 -0.0148137 -0.0263644 0.999543 -0.0417998 0.00169884 0.999125 
0.0127772 0.659365 0.751715 0.193681 0.380453 0.904291 0.0987465 0.335179 0.936965 
0.0979353 0.292243 0.951316 0.118939 0.332049 0.935733 0.0484414 0.347816 0.936311 
-0.0276853 0.30583 0.951684 -0.0973894 0.324011 0.941027 -0.187257 0.428368 0.883988 
-0.447995 0.568762 0.68979 0.248553 0.335768 0.90856 0.0919362 0.242283 0.96584 
0.0449807 0.213485 0.97591 0.0997188 0.196872 0.975345 0.144538 0.172396 0.974366 
0.00460601 0.136534 0.990625 -0.0525252 0.0584308 0.996909 -0.00471388 0.114174 0.99345 
-0.0201246 0.219454 0.975415 -0.306764 0.320601 0.896164 -0.665288 0.502251 0.552391 
0.407212 0.240639 0.881063 0.178719 0.145387 0.973099 0.0820956 0.121105 0.989239 
0.0529795 0.163102 0.985186 0.0650671 0.142581 0.987642 0.0648058 -0.00723302 0.997872 
-0.0725351 0.0623454 0.995415 -0.0509636 0.00253081 0.998697 0.060527 0.0724178 0.995536 
0.0142426 0.1171 0.993018 -0.158832 0.138645 0.977522 -0.564244 0.32742 0.757908 
0.296416 0.0948915 0.950333 0.131208 0.0440042 0.990378 0.0989791 0.0104205 0.995035 
0.0711305 0.0230129 0.997202 -0.0634085 0.0800257 0.994774 0.059106 -0.0123028 0.998176 
0.010288 0.0201089 0.999745 -0.0343273 0.0346614 0.998809 0.113572 0.080315 0.990278 
0.0337651 0.0498012 0.998188 0.0478249 0.102992 0.993532 -0.0994322 0.0930845 0.990681 
-0.504056 0.0907745 0.858887 0.541302 0.0405414 0.83985 0.253602 0.0504997 0.965989 
0.0977738 0.0249156 0.994897 0.0577019 0.0403021 0.99752 0.123172 -0.0222841 0.992135 
0.0381664 0.0113578 0.999207 0.0054927 0.0355036 0.999354 -0.0338945 -0.144148 0.988976 
0.00770793 0.0234912 0.999694 0.0542832 0.0196962 0.998331 0.132307 0.0344543 0.99061 
-0.0662852 -0.0161041 0.997671 -0.00875463 -0.0489341 0.998764 -0.142242 -0.0405731 0.989 
-0.548164 -0.115191 0.828401 0.604232 -0.136364 0.785053 0.278448 0.00328335 0.960446 
0.131572 0.056508 0.989695 0.0555177 0.0938578 0.994036 0.0370094 0.0309435 0.998836 
-0.00435489 -0.0697873 0.997552 -0.0911883 -0.0270841 0.995465 0.00433447 -0.0391332 0.999225 
0.130543 0.0667488 0.989193 -0.00580033 -0.0215619 0.999751 0.103067 0.0383296 0.993936 
-0.024317 -0.0780173 0.996655 -0.233565 -0.161859 0.958775 -0.618749 -0.278069 0.734729 
0.419385 -0.0796484 0.904308 0.184584 -8.66791e-05 0.982817 0.0397008 0.0118572 0.999141 
-0.040258 0.0374192 0.998488 -0.0235489 -0.0115386 0.999656 0.0277401 0.0789101 0.996496 
0.0678165 0.146101 0.986942 -0.0084846 -0.0176133 0.999809 -0.0152373 0.0265399 0.999532 
0.0913782 0.119767 0.988588 -0.021879 -0.0311669 0.999275 -0.0210613 -0.03346 0.999218 
-0.16508 -0.127365 0.978022 -0.383979 -0.263138 0.885053 0.569533 -0.396131 0.720217 
0.207938 -0.221507 0.952731 0.0931336 -0.153288 0.983783 0.0134407 -0.0636378 0.997883 
0.0363188 -0.0236253 0.999061 0.0689678 0.0460749 0.996554 -0.0114709 0.0135252 0.999843 
0.0459849 0.0348345 0.998335 -0.0589542 -0.0263648 0.997912 -0.0582701 -0.0493036 0.997083 
-0.145875 -0.182676 0.972291 -0.273511 -0.297143 0.914821 -0.593145 -0.514554 0.619204 
0.432985 -0.667613 0.605655 0.185922 -0.537757 0.822345 0.105175 -0.371633 0.922403 
0.0964155 -0.25257 0.962763 0.0936032 -0.222443 0.970442 0.0170888 -0.212998 0.976903 
-0.134925 -0.279624 0.950582 -0.312501 -0.52673 0.790505 -0.492257 -0.716948 0.493629 
0.210736 -0.787666 0.578941 0.0992759 -0.700365 0.706847 -0.0849413 -0.744426 0.66228 
-0.32432 -0.853383 0.408109 0.0118535 0.663613 0.747982 0.21968 0.446103 0.867602 
0.336251 0.733012 0.591293 0.121499 0.467414 0.87565 0.159115 0.638106 0.753329 
0.0922985 0.500335 0.860898 0.0899149 0.583385 0.807204 0.023115 0.643797 0.764847 
0.0582295 0.575609 0.815649 0.0524837 0.601527 0.797127 -0.00699645 0.688339 0.725355 
-0.019403 0.701719 0.712189 -0.0203015 0.708349 0.705571 -0.115728 0.708347 0.696312 
-0.121725 0.743798 0.657227 -0.25888 0.637497 0.725657 -0.366305 0.871324 0.326521 
-0.475293 0.617975 0.626262 0.282227 0.445147 0.849819 0.34404 0.462077 0.817387 
0.43761 0.558269 0.704864 -0.518945 0.587836 0.6206 -0.665481 0.502523 0.551911 
0.461212 0.431485 0.775309 0.503884 0.388884 0.771278 0.579942 0.483484 0.655676 
-0.665545 0.502376 0.551968 0.532087 0.307269 0.788967 0.771079 0.438232 0.461942 
-0.847693 0.301515 0.436469 0.573985 0.206066 0.792514 0.582188 0.183607 0.792052 
0.595221 0.214752 0.774334 -0.864511 0.0820276 0.495876 0.590417 0.0408233 0.806065 
-0.847121 -0.131613 0.514844 0.634333 -0.139098 0.760443 0.636018 -0.180516 0.750263 
-0.820926 -0.282651 0.496175 -0.721683 -0.453254 0.523197 0.630644 -0.255569 0.732784 
0.764327 -0.343116 0.545964 -0.713257 -0.459816 0.528993 -0.746571 -0.468941 0.47194 
0.656537 -0.44856 0.606427 0.609496 -0.550311 0.570677 -0.666103 -0.555166 0.498094 
-0.630996 -0.60353 0.487437 0.503982 -0.706551 0.496778 0.449986 -0.753427 0.479437 
0.288454 -0.825951 0.484354 0.279661 -0.861547 0.423705 -0.400815 -0.819569 0.409456 
-0.522208 -0.737403 0.428411 -0.502781 -0.754271 0.42224 0.267771 -0.864882 0.424591 
0.294324 -0.945855 -0.136862 0.231612 -0.849786 0.473518 0.0895689 -0.884152 0.458533 
-0.144745 -0.902602 0.405411 -0.352592 -0.875667 0.329981 -0.335395 -0.884581 0.324077 
0.359286 0.839823 0.406953 0.195146 0.880965 0.431066 0.0713529 0.895687 0.438923 
0.0791866 0.995793 0.0461009 -0.0228526 0.911585 0.410476 -0.0838019 0.930227 0.357288 
-0.111484 0.953729 0.279235 -0.181959 0.9681 0.172257 -0.385734 0.919989 0.0694915 
0.468027 0.785232 0.405414 0.540562 0.741276 0.397873 -0.469316 0.881351 0.0544283 
-0.435454 0.851139 -0.293158 -0.640752 0.767624 -0.0138331 0.701422 0.62136 0.349168 
0.729685 0.60185 0.324556 0.787421 0.616277 0.0130319 -0.76507 0.640175 -0.069603 
-0.699715 0.474148 -0.534399 -0.84278 0.532484 -0.0786347 0.770895 0.570239 0.28381 
0.815851 0.506916 0.278251 -0.889105 0.441182 -0.121859 -0.808017 0.350561 -0.473514 
0.838719 0.464839 0.283683 -0.932388 0.273319 -0.236537 -0.749228 0.206866 -0.629177 
0.89826 0.281154 0.337759 -0.981886 0.122066 -0.144914 0.924324 0.0319296 0.380271 
0.99286 0.0344846 0.114196 -0.985819 -0.11416 -0.122994 0.918632 -0.221256 0.327355 
-0.961768 -0.263755 -0.0737229 0.882414 -0.401063 0.245957 0.836892 -0.525202 0.154193 
-0.895517 -0.442397 -0.0483145 -0.846857 -0.530159 -0.0420131 -0.835848 -0.422729 -0.350226 
0.797871 -0.596411 0.0877261 0.609769 -0.791917 -0.0323952 -0.760513 -0.647695 -0.0459443 
-0.644012 -0.761744 -0.0706717 0.543922 -0.836467 -0.0668687 0.372346 -0.923045 -0.0966817 
0.372448 -0.823554 -0.427833 0.278579 -0.954296 -0.108225 -0.382474 -0.915564 -0.124324 
-0.54513 -0.832326 -0.100329 -0.470065 -0.875912 -0.108706 -0.451076 -0.815935 -0.361635 
0.29009 -0.937904 -0.19022 0.290271 -0.9375 -0.191927 0.289127 -0.936613 -0.197891 
0.240597 -0.956921 -0.162529 0.220403 -0.880365 -0.419977 0.0525503 -0.983149 -0.175091 
0.0503602 -0.822292 -0.566833 -0.164547 -0.968664 -0.186049 -0.139738 -0.844587 -0.516862 
-0.342423 -0.924096 -0.169687 -0.315359 -0.929403 -0.191728 -0.294298 -0.909806 -0.292647 
0.079233 0.995988 0.0415948 0.371105 0.928293 0.0235198 0.0816531 0.995806 0.0412621 
0.218677 0.975568 0.0211447 0.0094498 0.999587 0.0271242 0.0790583 0.996296 0.0338309 
-0.0550522 0.998391 0.0135716 -0.157382 0.987274 -0.0228083 -0.249743 0.957798 -0.142308 
-0.353505 0.880138 -0.316846 0.787578 0.616186 0.00600051 0.601947 0.797992 0.029477 
0.602211 0.797793 0.029452 -0.426322 0.775831 -0.46512 -0.463761 0.687817 -0.558421 
-0.456545 0.714348 -0.530352 0.788 0.615646 0.0059849 0.787832 0.61589 -8.96861e-05 
-0.656484 0.417881 -0.628016 -0.453286 0.344477 -0.822112 -0.62549 0.375519 -0.683921 
0.820191 0.571346 -0.0291659 0.835906 0.548007 -0.0308009 -0.447161 0.102561 -0.888554 
-0.610303 0.272362 -0.743875 -0.498668 0.262861 -0.825975 0.860758 0.508319 -0.026595 
-0.651441 0.191362 -0.73417 -0.444777 0.234756 -0.864328 -0.659361 0.186344 -0.728368 
0.947647 0.319285 -0.0046444 0.994251 0.106901 -0.00610184 -0.463812 0.219608 -0.858284 
-0.650353 0.185317 -0.736681 -0.621582 0.180848 -0.762188 0.999364 0.0352681 -0.0053048 
0.995893 -0.09014 -0.00849899 0.995177 0.033039 -0.0923603 -0.758658 -0.00841609 -0.651435 
-0.71759 0.0371777 -0.695472 0.954357 -0.297895 -0.0214895 -0.815895 -0.180146 -0.549421 
-0.797805 -0.310241 -0.516969 -0.780033 -0.151829 -0.607039 0.840507 -0.526499 -0.12785 
0.737371 -0.638935 -0.219194 -0.771943 -0.402824 -0.491769 -0.605249 -0.343635 -0.718045 
0.61366 -0.710956 -0.343456 0.509706 -0.754329 -0.413749 0.475481 -0.729682 -0.491408 
0.361314 -0.801591 -0.476344 -0.433525 -0.752423 -0.495899 -0.401593 -0.599188 -0.692602 
-0.628209 -0.62275 -0.466407 -0.607655 -0.641043 -0.468849 -0.606961 -0.621222 -0.495663 
0.338826 -0.806228 -0.484967 0.222004 -0.837687 -0.498993 0.20538 -0.803654 -0.558533 
0.17612 -0.824162 -0.538274 0.126515 -0.783289 -0.608648 0.184279 -0.78711 -0.588642 
0.123175 -0.704967 -0.698462 0.0490188 -0.788252 -0.613397 0.0677595 -0.660116 -0.748101 
-0.124884 -0.803791 -0.581656 -0.0594365 -0.687604 -0.723649 -0.221577 -0.817196 -0.532065 
-0.188462 -0.721246 -0.666548 -0.395151 -0.773595 -0.495385 -0.327921 -0.804308 -0.495536 
-0.324025 -0.764178 -0.55771 0.357536 0.885032 -0.298138 0.209452 0.92404 -0.319814 
0.0622721 0.929238 -0.364197 -0.0953023 0.91397 -0.394431 -0.250414 0.840221 -0.480959 
-0.366249 0.712273 -0.598773 0.525149 0.80111 -0.287126 0.591846 0.756361 -0.278633 
0.32602 0.800754 -0.502497 -0.15943 0.570298 -0.805818 -0.287544 0.590252 -0.754269 
-0.424658 0.62355 -0.656393 -0.372524 0.614794 -0.695165 -0.454062 0.401069 -0.795595 
0.743872 0.61663 -0.257725 0.768443 0.5882 -0.252022 -0.415073 0.250179 -0.874714 
-0.416493 0.274048 -0.866851 -0.425866 0.241261 -0.872027 0.797015 0.552196 -0.244635 
0.818396 0.522074 -0.240139 -0.436255 0.15747 -0.885938 -0.450429 0.100359 -0.887154 
-0.460945 0.103279 -0.881398 -0.365691 0.176628 -0.913823 0.83067 0.500976 -0.242918 
0.804397 0.481424 -0.348103 -0.467627 0.189884 -0.86329 -0.359582 0.185688 -0.914451 
-0.35876 0.183596 -0.915196 0.916896 0.299416 -0.263916 -0.496721 0.343146 -0.797194 
-0.429334 0.244586 -0.869396 -0.392535 0.302647 -0.868516 -0.526031 0.180565 -0.831076 
0.952261 0.0133612 -0.304994 -0.437143 0.24152 -0.866357 -0.584033 0.144382 -0.798786 
-0.561795 0.156294 -0.812378 0.865854 -0.358093 -0.34938 0.658991 -0.439488 -0.610394 
-0.420662 -0.0400223 -0.906334 -0.63504 -0.0699629 -0.769304 -0.605211 -0.277609 -0.746092 
-0.599526 -0.06643 -0.797594 0.661676 -0.601448 -0.447712 0.634734 -0.622998 -0.457151 
0.633114 -0.608421 -0.478529 0.443976 -0.716972 -0.537435 0.421593 -0.644849 -0.637519 
-0.284664 -0.327878 -0.900812 -0.585175 -0.340808 -0.735813 -0.401191 -0.585058 -0.704807 
-0.406359 -0.341604 -0.847454 0.377856 -0.739958 -0.556495 0.291596 -0.762048 -0.578148 
0.287843 -0.747215 -0.599013 0.168336 -0.784962 -0.596237 0.163661 -0.76021 -0.628725 
0.097745 -0.768508 -0.63233 0.0060714 -0.762784 -0.646625 0.0966639 -0.693269 -0.714166 
-0.0332273 -0.674678 -0.737364 0.0669872 -0.655957 -0.75182 0.0229764 -0.606461 -0.794781 
-0.0590337 -0.686776 -0.724468 -0.0207534 -0.600816 -0.799118 -0.176987 -0.689229 -0.702594 
-0.162137 -0.570579 -0.805078 -0.389938 -0.595482 -0.702388 -0.28455 -0.660966 -0.694374 
-0.280448 -0.565456 -0.775634 0.105474 0.738843 -0.665572 -0.0376039 0.662394 -0.748211 
0.523332 0.636702 -0.566335 0.163179 0.744831 -0.646992 0.302473 0.738694 -0.602363 
0.0963055 0.72189 -0.685274 -0.127412 0.587028 -0.799478 -0.0476782 0.638901 -0.76781 
-0.165491 0.548095 -0.819881 -0.319039 0.351247 -0.88025 0.568627 0.604576 -0.55781 
0.690062 0.512829 -0.510706 0.511625 0.598599 -0.616376 0.22848 0.496678 -0.837322 
-0.0128114 0.462589 -0.88648 -0.15563 0.414351 -0.896712 -0.244272 0.324523 -0.913792 
-0.354033 0.264979 -0.896909 -0.329793 0.27255 -0.903854 0.691245 0.512099 -0.509838 
0.687367 0.510152 -0.516983 0.37871 0.37521 -0.846047 -0.336605 0.289385 -0.896077 
-0.416067 0.178218 -0.891699 -0.361288 0.23133 -0.903304 -0.50897 0.223034 -0.831388 
0.7293 0.441436 -0.522738 0.772834 0.335347 -0.538767 0.528001 0.357622 -0.770274 
-0.398148 0.303048 -0.865817 -0.554174 0.255449 -0.792236 -0.551125 0.266812 -0.790615 
0.795244 0.242242 -0.555792 0.735822 0.222853 -0.639454 -0.313697 0.145648 -0.938286 
-0.534584 0.31773 -0.783114 -0.519426 0.195048 -0.831957 -0.4627 0.262589 -0.846732 
0.77896 -0.0767892 -0.622354 0.662122 -0.407862 -0.628684 0.673372 -0.0903036 -0.733768 
-0.3863 0.00548232 -0.922357 -0.410257 0.199936 -0.889784 -0.397001 0.15563 -0.904527 
0.638759 -0.443944 -0.628412 0.423062 -0.61574 -0.664743 0.366975 -0.431352 -0.824175 
0.220664 -0.340309 -0.914055 -0.397653 -0.149135 -0.905335 -0.366548 -0.069432 -0.927805 
-0.29078 -0.287921 -0.912441 -0.320252 -0.102632 -0.941757 0.394735 -0.638345 -0.660833 
0.295787 -0.677781 -0.673144 0.286981 -0.602625 -0.744637 0.164926 -0.721722 -0.672247 
0.162346 -0.55014 -0.81914 -0.00665881 -0.748381 -0.663236 0.0122181 -0.556184 -0.830969 
-0.066327 -0.675736 -0.734154 -0.0597695 -0.649938 -0.757633 0.00232419 -0.641187 -0.767381 
-0.0502778 -0.667959 -0.742497 -0.0449431 -0.586608 -0.808623 -0.172281 -0.537382 -0.825554 
-0.278354 -0.330869 -0.90169 -0.205016 -0.453207 -0.867509 -0.263159 -0.359996 -0.89507 
0.166895 0.314724 -0.934395 -0.0232526 0.360813 -0.932348 -0.209943 0.329825 -0.920402 
0.240526 0.305486 -0.921317 0.307794 0.272668 -0.911545 0.152332 0.2604 -0.953408 
-0.0212665 0.275549 -0.961052 -0.235109 0.316946 -0.918841 -0.215533 0.319103 -0.922886 
-0.332633 0.264683 -0.905151 0.335524 0.229381 -0.913678 0.377615 0.136753 -0.915808 
0.253477 0.179929 -0.95046 0.118923 0.124223 -0.985102 0.0399375 0.100607 -0.994124 
-0.131642 0.178152 -0.975157 -0.34268 0.264423 -0.901471 -0.32634 0.249913 -0.911617 
0.378733 0.126324 -0.916844 0.369958 0.12429 -0.920697 0.167189 0.042173 -0.985023 
0.0711468 0.024422 -0.997167 0.0347071 -0.0030578 -0.999393 -0.0723377 0.0134035 -0.99729 
-0.302149 0.137566 -0.943282 -0.228179 0.0763169 -0.970624 -0.315702 0.058806 -0.947035 
0.353717 -0.15776 -0.921952 0.349086 -0.16606 -0.92226 0.349166 -0.158819 -0.923504 
0.218917 -0.334486 -0.916621 0.157818 -0.121445 -0.979972 0.0739139 -0.101954 -0.992039 
0.0296938 -0.0594025 -0.997792 -0.0557398 -0.0546636 -0.996948 -0.186716 0.0219762 -0.982168 
-0.318016 0.0349067 -0.947443 -0.316324 0.0361305 -0.947963 0.217328 -0.337948 -0.915729 
0.143283 -0.370504 -0.917713 0.135556 -0.286611 -0.948408 0.0470846 -0.430467 -0.901377 
0.0823571 -0.247686 -0.965334 -0.0195908 -0.50913 -0.860467 0.00747283 -0.2774 -0.960726 
-0.101074 -0.47823 -0.872399 -0.129937 -0.223478 -0.966009 -0.365685 -0.173163 -0.914488 
-0.347606 -0.213744 -0.912953 -0.358339 -0.173472 -0.917333 
