# vtk DataFile Version 4.2
vtk output
ASCII
DATASET POLYDATA
POINTS 532 float
-29.7634 -40.4358 -14.5719 -21.9086 -40.4358 -15.9313 -14.0538 -40.4358 -16.99 
-6.19902 -40.4358 -16.5604 1.65578 -40.4358 -16.7265 9.51058 -40.4358 -16.6166 
17.3654 -40.4358 -15.6919 25.2202 -40.4358 -12.0985 -45.473 -32.581 -12.4659 
-37.6182 -32.581 -15.1074 -29.7634 -32.581 -18.0319 -21.9086 -32.581 -17.561 
-14.0538 -32.581 -18.2764 -6.19902 -32.581 -19.0468 1.65578 -32.581 -19.2813 
9.51058 -32.581 -19.4908 17.3654 -32.581 -19.0755 25.2202 -32.581 -17.4749 
33.075 -32.581 -15.374 -45.473 -24.7262 -14.7265 -37.6182 -24.7262 -16.8916 
-29.7634 -24.7262 -17.5122 -21.9086 -24.7262 -18.7178 -14.0538 -24.7262 -17.7912 
-6.19902 -24.7262 -17.8942 1.65578 -24.7262 -19.1663 9.51058 -24.7262 -19.4986 
17.3654 -24.7262 -19.1961 25.2202 -24.7262 -18.6551 33.075 -24.7262 -18.2961 
40.9298 -24.7262 -15.8655 -53.3278 -16.8714 -12.1069 -45.473 -16.8714 -16.1937 
-37.6182 -16.8714 -18.6995 -29.7634 -16.8714 -17.9499 -21.9086 -16.8714 -17.196 
-14.0538 -16.8714 -16.555 -6.19902 -16.8714 -16.7082 1.65578 -16.8714 -17.8985 
9.51058 -16.8714 -17.7772 17.3654 -16.8714 -17.4233 25.2202 -16.8714 -17.5947 
33.075 -16.8714 -17.8049 40.9298 -16.8714 -17.322 48.7846 -16.8714 -16.0832 
-53.3278 -9.01663 -14.4797 -45.473 -9.01663 -17.3438 -37.6182 -9.01663 -17.8709 
-29.7634 -9.01663 -17.5877 -21.9086 -9.01663 -16.5263 -14.0538 -9.01663 -16.1466 
-6.19902 -9.01663 -18.4312 1.65578 -9.01663 -17.0849 9.51058 -9.01663 -16.7441 
17.3654 -9.01663 -16.1197 25.2202 -9.01663 -17.217 33.075 -9.01663 -18.1421 
40.9298 -9.01663 -18.2575 48.7846 -9.01663 -16.0194 56.6394 -9.01663 -12.87 
-53.3278 -1.16184 -14.0743 -45.473 -1.16184 -16.7384 -37.6182 -1.16184 -17.5496 
-29.7634 -1.16184 -17.2771 -21.9086 -1.16184 -16.232 -14.0538 -1.16184 -16.5174 
-6.19902 -1.16184 -18.2242 1.65578 -1.16184 -15.5924 9.51058 -1.16184 -19.9372 
17.3654 -1.16184 -16.4646 25.2202 -1.16184 -17.3453 33.075 -1.16184 -17.761 
40.9298 -1.16184 -17.216 48.7846 -1.16184 -14.9442 -45.473 6.69296 -14.6531 
-37.6182 6.69296 -15.4585 -29.7634 6.69296 -15.9798 -21.9086 6.69296 -15.5315 
-14.0538 6.69296 -14.3857 -6.19902 6.69296 -15.4085 1.65578 6.69296 -16.6651 
9.51058 6.69296 -16.2157 17.3654 6.69296 -16.9163 25.2202 6.69296 -17.0261 
33.075 6.69296 -16.4903 40.9298 6.69296 -14.9684 -37.6182 14.5478 -13.3344 
-29.7634 14.5478 -15.0052 -21.9086 14.5478 -15.4614 -14.0538 14.5478 -15.201 
-6.19902 14.5478 -14.2318 1.65578 14.5478 -16.0263 9.51058 14.5478 -16.6617 
17.3654 14.5478 -17.1401 25.2202 14.5478 -16.7515 33.075 14.5478 -14.4153 
-29.7634 22.4026 -15.4399 -21.9086 22.4026 -16.2803 -14.0538 22.4026 -15.6853 
-6.19902 22.4026 -14.4707 1.65578 22.4026 -14.7524 9.51058 22.4026 -15.7957 
17.3654 22.4026 -16.2854 25.2202 22.4026 -15.0714 -29.7634 30.2574 -13.8408 
-21.9086 30.2574 -15.6473 -14.0538 30.2574 -14.9428 -6.19902 30.2574 -13.6046 
1.65578 30.2574 -13.235 9.51058 30.2574 -13.2007 17.3654 30.2574 -12.9067 
-21.9086 38.1122 -12.7404 -14.0538 38.1122 -12.4571 -29.7634 -44.3783 -12.0878 
-21.9086 -45.4999 -12.0878 -14.0538 -46.07 -12.0878 -6.19902 -46.2791 -12.0878 
1.65578 -45.4275 -12.0878 9.51058 -44.5774 -12.0878 17.3654 -43.1291 -12.0878 
25.2202 -40.4444 -12.0878 -45.473 -33.0183 -12.0878 -35.382 -40.4358 -12.0878 
-37.6182 -38.5326 -12.0878 -37.6182 -40.4358 -7.97683 25.2401 -40.4358 -12.0878 
33.075 -36.5763 -12.0878 -45.8332 -32.581 -12.0878 39.3086 -32.581 -12.0878 
40.9298 -31.2785 -12.0878 40.9298 -32.581 -9.33191 -49.2394 -24.7262 -12.0878 
-53.3278 -16.9251 -12.0878 48.1458 -24.7262 -12.0878 48.7846 -23.9122 -12.0878 
48.7846 -24.7262 -11.3339 -53.3489 -16.8714 -12.0878 54.5537 -16.8714 -12.0878 
56.6394 -12.1995 -12.0878 56.6394 -16.8714 -9.86309 -56.2172 -9.01663 -12.0878 
57.5174 -9.01663 -12.0878 56.6394 -5.35394 -12.0878 -55.9298 -1.16184 -12.0878 
-61.1826 -1.16184 -5.26347 -53.3278 2.49651 -12.0878 54.823 -1.16184 -12.0878 
48.7846 6.42229 -12.0878 56.6394 -1.16184 -10.6953 -50.2297 6.69296 -12.0878 
-53.3278 6.69296 -9.44433 -45.473 11.1945 -12.0878 48.5015 6.69296 -12.0878 
40.9298 12.7591 -12.0878 48.7846 6.69296 -11.9541 56.6394 6.69296 -6.23602 
-40.5518 14.5478 -12.0878 -45.473 14.5478 -9.51775 -37.6182 18.8072 -12.0878 
38.8508 14.5478 -12.0878 33.075 20.4478 -12.0878 40.9298 14.5478 -11.0706 
48.7846 14.5478 -6.77203 -45.473 22.4026 -5.1166 -35.6929 22.4026 -12.0878 
-37.6182 22.4026 -10.8365 31.4405 22.4026 -12.0878 25.2202 28.2112 -12.0878 
33.075 22.4026 -11.1434 40.9298 22.4026 -5.73769 -33.1426 30.2574 -12.0878 
-37.6182 30.2574 -8.69197 -29.7634 34.8071 -12.0878 -6.19902 35.4518 -12.0878 
1.65578 33.515 -12.0878 9.51058 32.446 -12.0878 20.7652 30.2574 -12.0878 
17.3654 31.5289 -12.0878 25.2202 30.2574 -10.8334 33.075 30.2574 -6.42276 
-24.4827 38.1122 -12.0878 -29.7634 38.1122 -10.2715 -21.9086 39.2123 -12.0878 
-11.6698 38.1122 -12.0878 -14.0538 38.7284 -12.0878 -6.19902 38.1122 -11.1788 
1.65578 38.1122 -10.2028 9.51058 38.1122 -8.93639 17.3654 38.1122 -7.18985 
25.2202 38.1122 -4.94495 -21.9086 45.967 -5.27476 -14.0538 45.967 -6.12332 
-6.19902 45.967 -5.57635 1.65578 45.967 -5.18503 -37.6182 -41.4443 -4.23302 
-29.7634 -45.56 -4.23302 -21.9086 -47.3002 -4.23302 -14.0538 -47.6292 -4.23302 
-6.19902 -47.188 -4.23302 1.65578 -46.2656 -4.23302 9.51058 -45.3466 -4.23302 
17.3654 -43.284 -4.23302 25.2202 -40.9186 -4.23302 -38.84 -40.4358 -4.23302 
-45.473 -33.6897 -4.23302 -37.6182 -40.4358 -2.65287 -29.7634 -40.4358 3.03607 
17.3654 -40.4358 1.36963 26.4831 -40.4358 -4.23302 25.2202 -40.4358 -3.26377 
33.075 -38.1388 -4.23302 40.9298 -34.1444 -4.23302 -46.4192 -32.581 -4.23302 
-45.473 -32.581 -2.65904 43.3598 -32.581 -4.23302 40.9298 -32.581 -0.196306 
48.7846 -28.6838 -4.23302 -52.4048 -24.7262 -4.23302 -53.3278 -23.4496 -4.23302 
53.0708 -24.7262 -4.23302 56.6394 -20.8168 -4.23302 -57.4951 -16.8714 -4.23302 
59.5137 -16.8714 -4.23302 -60.7476 -9.01663 -4.23302 -61.1826 -5.20246 -4.23302 
61.9049 -9.01663 -4.23302 -61.6422 -1.16184 -4.23302 -61.1826 -0.0462609 -4.23302 
-61.1826 -1.16184 -1.57323 61.042 -1.16184 -4.23302 -57.6571 6.69296 -4.23302 
-53.3278 12.7182 -4.23302 57.9383 6.69296 -4.23302 56.6394 8.29099 -4.23302 
-51.7341 14.5478 -4.23302 -53.3278 14.5478 0.365946 51.4281 14.5478 -4.23302 
48.7846 17.0727 -4.23302 -46.2819 22.4026 -4.23302 -45.473 23.4873 -4.23302 
42.6499 22.4026 -4.23302 40.9298 24.2121 -4.23302 -41.1668 30.2574 -4.23302 
-37.6182 36.0215 -4.23302 35.4829 30.2574 -4.23302 33.075 32.6468 -4.23302 
40.9298 30.2574 3.14058 -35.9915 38.1122 -4.23302 -29.7634 43.9149 -4.23302 
9.51058 44.3244 -4.23302 17.3654 41.3993 -4.23302 26.2702 38.1122 -4.23302 
25.2202 38.7808 -4.23302 33.075 38.1122 3.07085 -24.1094 45.967 -4.23302 
-21.9086 46.5812 -4.23302 -14.0538 47.261 -4.23302 -6.19902 47.0471 -4.23302 
4.85261 45.967 -4.23302 1.65578 46.7787 -4.23302 9.51058 45.967 -2.01354 
17.3654 45.967 2.67746 -21.9086 -42.221 3.62178 -14.0538 -42.9837 3.62178 
-6.19902 -42.4561 3.62178 1.65578 -42.2489 3.62178 9.51058 -41.2018 3.62178 
-37.6182 -34.8049 3.62178 -28.2312 -40.4358 3.62178 -29.7634 -39.6944 3.62178 
-21.9086 -40.4358 5.22076 -14.0538 -40.4358 6.01087 -6.19902 -40.4358 5.6283 
1.65578 -40.4358 5.65954 12.7165 -40.4358 3.62178 9.51058 -40.4358 4.60408 
17.3654 -39.1871 3.62178 25.2202 -36.8181 3.62178 33.075 -34.4854 3.62178 
-40.0203 -32.581 3.62178 -45.473 -26.9974 3.62178 -37.6182 -32.581 5.17932 
-29.7634 -32.581 7.98142 -21.9086 -32.581 9.10915 -14.0538 -32.581 9.81552 
-6.19902 -32.581 10.3521 9.51058 -32.581 11.1167 17.3654 -32.581 10.0932 
25.2202 -32.581 8.13528 37.2997 -32.581 3.62178 33.075 -32.581 5.85307 
40.9298 -30.4738 3.62178 48.7846 -26.0161 3.62178 -47.3619 -24.7262 3.62178 
-53.3278 -17.9816 3.62178 -45.473 -24.7262 5.16206 -37.6182 -24.7262 8.65535 
-29.7634 -24.7262 11.2747 40.9298 -24.7262 9.44237 50.3292 -24.7262 3.62178 
48.7846 -24.7262 5.16223 56.6394 -19.2128 3.62178 -54.1625 -16.8714 3.62178 
-53.3278 -16.8714 4.49306 -45.473 -16.8714 9.41046 58.6573 -16.8714 3.62178 
56.6394 -16.8714 6.41478 -58.4659 -9.01663 3.62178 -53.3278 -9.01663 10.1213 
61.319 -9.01663 3.62178 56.6394 -9.01663 10.6054 -60.0411 -1.16184 3.62178 
62.0911 -1.16184 3.62178 -58.5369 6.69296 3.62178 -53.3278 6.69296 10.6653 
60.2072 6.69296 3.62178 56.6394 12.245 3.62178 -54.1731 14.5478 3.62178 
-53.3278 15.9598 3.62178 -53.3278 14.5478 6.14486 54.9855 14.5478 3.62178 
48.7846 21.6715 3.62178 -49.0794 22.4026 3.62178 -45.473 27.411 3.62178 
48.152 22.4026 3.62178 -43.617 30.2574 3.62178 -37.6182 37.9674 3.62178 
41.2228 30.2574 3.62178 40.9298 30.5995 3.62178 -37.4737 38.1122 3.62178 
-29.7634 44.4771 3.62178 25.2202 43.3202 3.62178 33.4719 38.1122 3.62178 
33.075 38.4356 3.62178 -25.8038 45.967 3.62178 -21.9086 47.2383 3.62178 
-21.9086 45.967 6.70289 -14.0538 48.909 3.62178 -14.0538 45.967 10.335 
-6.19902 50.0121 3.62178 1.65578 49.93 3.62178 9.51058 48.7386 3.62178 
18.6143 45.967 3.62178 17.3654 46.4311 3.62178 1.65578 -32.8141 11.4766 
-21.9086 -26.8207 11.4766 -14.0538 -27.9737 11.4766 0.762467 -32.581 11.4766 
-6.19902 -29.6835 11.4766 4.05779 -32.581 11.4766 1.65578 -32.581 11.6243 
9.51058 -31.7976 11.4766 17.3654 -30.0359 11.4766 25.2202 -27.9985 11.4766 
33.075 -25.3651 11.4766 -37.6182 -18.6475 11.4766 -28.2796 -24.7262 11.4766 
-29.7634 -24.1911 11.4766 -21.9086 -24.7262 12.3124 -14.0538 -24.7262 12.5537 
-6.19902 -24.7262 13.2437 1.65578 -24.7262 13.9845 9.51058 -24.7262 14.3005 
17.3654 -24.7262 13.888 25.2202 -24.7262 13.3991 34.7566 -24.7262 11.4766 
33.075 -24.7262 11.8722 40.9298 -21.9968 11.4766 48.7846 -17.2301 11.4766 
-39.9227 -16.8714 11.4766 -45.473 -11.9772 11.4766 -37.6182 -16.8714 12.2741 
-29.7634 -16.8714 14.0436 -21.9086 -16.8714 15.1945 -14.0538 -16.8714 15.1948 
-6.19902 -16.8714 14.685 1.65578 -16.8714 14.4164 9.51058 -16.8714 14.8281 
17.3654 -16.8714 16.1251 25.2202 -16.8714 16.4555 33.075 -16.8714 15.581 
40.9298 -16.8714 14.0703 49.2458 -16.8714 11.4766 48.7846 -16.8714 11.7506 
[...]
POINT_DATA 532
SCALARS ImageScalars float
LOOKUP_TABLE default
0 0 0 0 0 0 0 0 0 
0 0 0 0 0 0 0 0 0 
0 0 0 0 0 0 0 0 0 
0 0 0 0 0 0 0 0 0 
0 0 0 0 0 0 0 0 0 
0 0 0 0 0 0 0 0 0 
0 0 0 0 0 0 0 0 0 
0 0 0 0 0 0 0 0 0 
0 0 0 0 0 0 0 0 0 
0 0 0 0 0 0 0 0 0 
0 0 0 0 0 0 0 0 0 
0 0 0 0 0 0 0 0 0 
0 0 0 0 0 0 0 0 0 
0 0 0 0 0 0 0 0 0 
0 0 0 0 0 0 0 0 0 
0 0 0 0 0 0 0 0 0 
0 0 0 0 0 0 0 0 0 
0 0 0 0 0 0 0 0 0 
0 0 0 0 0 0 0 0 0 
0 0 0 0 0 0 0 0 0 
0 0 0 0 0 0 0 0 0 
0 0 0 0 0 0 0 0 0 
0 0 0 0 0 0 0 0 0 
0 0 0 0 0 0 0 0 0 
0 0 0 0 0 0 0 0 0 
0 0 0 0 0 0 0 0 0 
0 0 0 0 0 0 0 0 0 
0 0 0 0 0 0 0 0 0 
0 0 0 0 0 0 0 0 0 
0 0 0 0 0 0 0 0 0 
0 0 0 0 0 0 0 0 0 
0 0 0 0 0 0 0 0 0 
0 0 0 0 0 0 0 0 0 
0 0 0 0 0 0 0 0 0 
0 0 0 0 0 0 0 0 0 
0 0 0 0 0 0 0 0 0 
0 0 0 0 0 0 0 0 0 
0 0 0 0 0 0 0 0 0 
0 0 0 0 0 0 0 0 0 
0 0 0 0 0 0 0 0 0 
0 0 0 0 0 0 0 0 0 
0 0 0 0 0 0 0 0 0 
0 0 0 0 0 0 0 0 0 
0 0 0 0 0 0 0 0 0 
0 0 0 0 0 0 0 0 0 
0 0 0 0 0 0 0 0 0 
0 0 0 0 0 0 0 0 0 
0 0 0 0 0 0 0 0 0 
0 0 0 0 0 0 0 0 0 
0 0 0 0 0 0 0 0 0 
0 0 0 0 0 0 0 0 0 
0 0 0 0 0 0 0 0 0 
0 0 0 0 0 0 0 0 0 
0 0 0 0 0 0 0 0 0 
0 0 0 0 0 0 0 0 0 
0 0 0 0 0 0 0 0 0 
0 0 0 0 0 0 0 0 0 
0 0 0 0 0 0 0 0 0 
0 0 0 0 0 0 0 0 0 
0 
NORMALS Normals float
0.265326 0.512883 0.816427 0.170249 0.425417 0.888839 0.0335503 0.353649 0.934776 
-0.0136049 0.486199 0.873742 0.00483787 0.544797 0.838554 -0.0531265 0.622439 0.780863 
-0.236772 0.71499 0.65782 -0.372342 0.836767 0.401475 0.679803 0.516016 0.521149 
0.333804 0.318397 0.887242 0.182766 0.21271 0.95987 0.0197711 0.163267 0.986384 
0.0950057 0.0358322 0.994832 0.0619977 0.0749568 0.995258 0.0284701 0.144133 0.989149 
-0.0121672 0.149941 0.98862 -0.136454 0.166404 0.97657 -0.229438 0.325424 0.91731 
-0.355716 0.509322 0.783618 0.474914 0.253995 0.842581 0.144896 0.236208 0.960839 
0.111096 -0.000333492 0.99381 0.0176952 -0.0246571 0.999539 -0.0513536 -0.108028 0.992821 
0.0847292 -0.144467 0.985875 0.103229 -0.0851 0.99101 0.000979136 -0.107495 0.994205 
-0.052594 -0.104443 0.993139 -0.0557514 0.00638432 0.998424 -0.179493 0.134929 0.974462 
-0.348742 0.302557 0.887039 0.664923 0.283288 0.691104 0.34234 0.136942 0.929543 
0.0994906 0.0522471 0.993666 -0.0915971 0.00464015 0.995785 -0.0874461 -0.136451 0.98678 
-0.0312402 -0.102281 0.994265 0.0831821 0.0104036 0.99648 0.0667908 -0.131382 0.989079 
-0.0302919 -0.173182 0.984424 -0.0113563 -0.195194 0.980699 0.024061 -0.0892965 0.995714 
-0.0155252 -0.005829 0.999862 -0.0928297 0.157212 0.983192 -0.395142 0.216387 0.892771 
0.523929 0.0942628 0.84653 0.177838 0.0336378 0.983485 0.0130791 -0.0685769 0.99756 
-0.0851546 -0.0425119 0.99546 -0.0915728 -0.062422 0.99384 0.0976766 -0.00580161 0.995201 
0.057445 0.112265 0.992016 -0.0875768 -0.123691 0.988449 -0.0673962 0.100027 0.9927 
0.0340294 -0.0621105 0.997489 0.127396 -0.0157015 0.991728 0.0659059 -0.00258334 0.997823 
-0.144902 -0.00678738 0.989423 -0.312118 -0.0674047 0.947649 -0.636001 0.0156 0.77153 
0.506353 -0.251666 0.824785 0.188201 -0.180908 0.965325 0.0303952 -0.134361 0.990466 
-0.0834403 -0.100855 0.991396 -0.0505757 -0.0634393 0.996703 0.120105 -0.127833 0.984497 
-0.0386795 -0.190302 0.980963 0.0929568 -0.0386968 0.994918 0.000811079 -0.0545893 0.998509 
-0.118863 0.0530055 0.991495 0.0802234 -0.0121158 0.996703 -0.00642577 -0.103084 0.994652 
-0.171029 -0.189848 0.966802 -0.351801 -0.223862 0.908912 0.279839 -0.376887 0.882976 
0.0896139 -0.272322 0.958024 0.000162639 -0.147435 0.989072 -0.101755 -0.0492636 0.993589 
-0.0171296 -0.0681056 0.997531 0.14834 -0.235208 0.960558 0.0427588 0.0164164 0.998951 
0.0186723 -0.159883 0.986959 0.0509102 0.0415968 0.997837 -0.0261011 -0.0382775 0.998926 
-0.122778 -0.202878 0.971476 -0.24891 -0.33417 0.909051 0.293752 -0.251093 0.922313 
0.128734 -0.0359552 0.991027 0.012338 0.0471892 0.99881 -0.0779631 0.0809047 0.993668 
0.0426037 -0.0498557 0.997847 0.161113 -0.122642 0.979286 0.0670425 -0.0249154 0.997439 
0.00523364 -0.0380993 0.99926 -0.161685 -0.114281 0.980203 -0.31859 -0.295004 0.900818 
0.306542 -0.0733016 0.94903 0.0125684 0.0105667 0.999865 -0.116373 -0.0159177 0.993078 
-0.0564392 -0.0385611 0.997661 0.0826618 -0.17262 0.981514 0.0958382 -0.21164 0.972637 
-0.040938 -0.249976 0.967386 -0.280729 -0.331993 0.90054 0.356419 -0.258988 0.897714 
0.0680721 -0.209066 0.975529 -0.130014 -0.18691 0.973736 -0.108316 -0.194105 0.974983 
-0.0248724 -0.268293 0.963016 -0.0189157 -0.394502 0.9187 -0.121261 -0.48754 0.864639 
0.0957345 -0.470393 0.877249 -0.0910029 -0.442383 0.892197 0.317811 0.762985 0.562894 
0.0893028 0.82664 0.5556 0.0405921 0.88805 0.457951 -0.0420135 0.859284 0.509771 
-0.0996108 0.88259 0.459471 -0.145099 0.896766 0.418039 -0.25826 0.89623 0.360656 
-0.372342 0.837136 0.400706 0.685973 0.530131 0.4984 0.506603 0.647369 0.569445 
0.530276 0.614923 0.583675 0.619368 0.772981 0.137418 -0.372467 0.837091 0.400684 
-0.428926 0.755207 0.495665 0.695603 0.517502 0.498325 -0.503999 0.671767 0.542876 
-0.504216 0.645677 0.57347 -0.536308 0.7818 0.318061 0.64201 0.395464 0.656834 
0.665686 0.284614 0.689824 -0.575722 0.490104 0.654479 -0.576856 0.48346 0.65841 
-0.607272 0.530605 0.591336 0.665729 0.283416 0.690275 -0.605571 0.343838 0.717676 
-0.664733 0.154069 0.731022 -0.727718 0.395083 0.560657 0.665372 0.117943 0.737136 
-0.685114 0.017685 0.728222 -0.646084 -0.0898131 0.757964 0.623129 -0.247353 0.741975 
0.957361 -0.177433 0.227985 0.56029 -0.359978 0.745983 -0.567022 -0.224573 0.792498 
-0.353503 -0.428879 0.831323 -0.669412 -0.221358 0.709146 0.470641 -0.438979 0.765372 
0.623226 -0.470257 0.624858 0.382602 -0.43999 0.812419 -0.350209 -0.431684 0.831266 
-0.354712 -0.432715 0.828817 -0.357182 -0.436012 0.826024 -0.70158 -0.52245 0.484594 
0.361451 -0.330785 0.871742 0.496999 -0.467913 0.730787 0.408879 -0.234884 0.881844 
-0.370686 -0.417106 0.829828 -0.426605 -0.371003 0.824842 -0.389405 -0.467625 0.793531 
-0.534172 -0.589462 0.605966 0.678326 -0.506026 0.53274 0.455007 -0.187522 0.870519 
0.51427 -0.241384 0.822958 -0.42208 -0.385359 0.820577 -0.299101 -0.477968 0.825885 
-0.461465 -0.39974 0.791996 -0.551782 -0.538523 0.636812 0.498178 -0.275718 0.82207 
0.697166 -0.336456 0.633053 0.39553 -0.401616 0.825991 -0.121356 -0.338389 0.933148 
-0.0677026 -0.330536 0.941362 -0.0576736 -0.43105 0.900483 -0.200087 -0.506547 0.838675 
-0.133304 -0.51393 0.847411 -0.309049 -0.524614 0.793265 -0.520344 -0.536859 0.664097 
0.197382 -0.488182 0.850129 0.445445 -0.541478 0.713008 0.102787 -0.510368 0.853791 
-0.10286 -0.434173 0.894938 -0.0891895 -0.465046 0.880782 -0.125551 -0.423651 0.897082 
-0.122459 -0.435195 0.891969 -0.155402 -0.5367 0.829339 -0.203827 -0.646254 0.735398 
-0.358838 -0.678786 0.640691 0.174414 -0.903674 0.391092 0.00478678 -0.838219 0.545312 
-0.0443413 -0.774199 0.631387 -0.137363 -0.750159 0.646833 0.589037 0.792937 -0.155839 
0.366671 0.895184 -0.253372 0.132411 0.96564 -0.223622 -0.00788264 0.981206 -0.192804 
-0.0882664 0.976051 -0.198832 -0.115224 0.977504 -0.176663 -0.176923 0.96439 -0.196599 
-0.248564 0.943079 -0.22095 -0.303753 0.934458 -0.185803 0.615561 0.773938 -0.148673 
0.739255 0.644403 -0.19557 0.580552 0.775513 -0.24807 0.319413 0.641471 -0.697488 
-0.232084 0.858307 -0.457653 -0.320199 0.929941 -0.180784 -0.301016 0.923966 -0.235958 
-0.409764 0.903871 -0.122923 -0.507378 0.860711 -0.0417724 0.75229 0.630597 -0.190805 
0.719249 0.623861 -0.305743 -0.536595 0.842398 -0.0493074 -0.512201 0.806498 -0.295314 
-0.630458 0.776201 0.00589373 0.789214 0.602308 -0.119861 0.803704 0.58613 -0.102526 
-0.708832 0.703421 0.0525059 -0.80195 0.588016 0.105418 0.880227 0.474547 0.00226721 
-0.876444 0.451135 0.168296 0.971076 0.227984 0.0709536 0.992779 0.052236 0.107992 
-0.971722 0.102788 0.21258 0.974983 -0.163399 0.150693 0.964381 -0.201847 0.170957 
0.991186 -0.123773 -0.0472175 -0.907968 -0.197989 0.369316 0.823947 -0.443333 0.352941 
0.680898 -0.573406 0.455613 -0.748964 -0.528505 0.399668 -0.73809 -0.537316 0.408063 
0.656213 -0.57152 0.492696 0.807442 -0.566977 0.163018 -0.626122 -0.595712 0.503089 
-0.579151 -0.610772 0.539946 0.700054 -0.52126 0.48807 0.708463 -0.510112 0.487714 
-0.572587 -0.560161 0.598635 -0.567004 -0.558553 0.605413 0.77323 -0.440424 0.456225 
0.741203 -0.553438 0.3799 -0.547633 -0.562351 0.619563 -0.541438 -0.566632 0.621106 
-0.728033 -0.63196 0.265696 0.701998 -0.613454 0.361764 0.474359 -0.817317 0.327072 
-0.235462 -0.721291 0.651381 -0.261533 -0.694783 0.669983 -0.390102 -0.676913 0.624187 
-0.359842 -0.693998 0.623603 -0.593646 -0.760507 0.263086 0.258076 -0.911034 0.32158 
0.182627 -0.926457 0.329127 0.030095 -0.89554 0.443962 -0.0299917 -0.822849 0.567468 
-0.183464 -0.76466 0.617767 -0.133954 -0.78596 0.603591 -0.248361 -0.826493 0.505199 
-0.329455 -0.907671 0.259986 0.153019 0.659652 -0.73583 0.0153512 0.707561 -0.706486 
-0.0404221 0.721881 -0.690835 -0.0698399 0.785709 -0.614641 -0.161228 0.805437 -0.57033 
0.430389 0.547511 -0.717633 0.279409 0.618809 -0.73417 0.30313 0.606843 -0.734747 
0.15398 0.588724 -0.793533 0.0282913 0.586125 -0.809727 -0.0208488 0.658429 -0.752354 
-0.0447492 0.730016 -0.681963 -0.183749 0.807046 -0.561171 -0.154498 0.784127 -0.601062 
-0.214008 0.798256 -0.563017 -0.248851 0.762469 -0.597255 -0.292631 0.774199 -0.561233 
0.45811 0.511163 -0.727219 0.537287 0.512232 -0.670031 0.421606 0.471582 -0.774505 
0.226329 0.458291 -0.859503 0.0982893 0.432624 -0.896201 0.0711834 0.384628 -0.920323 
0.0988067 0.411651 -0.905969 -0.0811293 0.485555 -0.870434 -0.144326 0.560515 -0.815471 
-0.203028 0.655799 -0.727123 -0.397101 0.72839 -0.558354 -0.290466 0.718255 -0.632249 
-0.45178 0.695836 -0.558307 -0.528095 0.704609 -0.473964 0.576912 0.505629 -0.641492 
0.663739 0.494766 -0.560943 0.509874 0.502412 -0.698291 0.331631 0.397978 -0.855357 
0.208561 0.336567 -0.918273 -0.331553 0.609356 -0.720249 -0.553397 0.691198 -0.464756 
-0.510185 0.664728 -0.545755 -0.688605 0.614839 -0.384442 0.668811 0.498736 -0.55132 
0.637856 0.498255 -0.587266 0.396892 0.407961 -0.822219 -0.754367 0.540849 -0.372039 
-0.656983 0.544019 -0.521935 0.819722 0.311968 -0.480345 0.544169 0.367064 -0.754416 
-0.925791 0.216739 -0.309734 -0.646118 0.259008 -0.717946 0.910024 -0.0165405 -0.414226 
-0.983792 -0.0533291 -0.171201 0.920712 -0.320634 -0.222449 0.686375 -0.163484 -0.708634 
-0.903099 -0.424657 -0.0638651 -0.828801 -0.5588 0.0288448 0.855338 -0.515974 -0.0465535 
0.849367 -0.527248 -0.0241801 0.861781 -0.468032 -0.195652 -0.786764 -0.615171 0.050664 
-0.741545 -0.64643 0.179553 0.817937 -0.575286 -0.00503466 0.827168 -0.561646 0.0185987 
-0.739746 -0.64379 0.195731 0.826924 -0.562288 0.00545521 0.712297 -0.697932 -0.0743202 
-0.737212 -0.631087 0.241346 -0.732775 -0.634641 0.245501 0.708028 -0.701969 -0.0770372 
0.456697 -0.868731 -0.191665 -0.450211 -0.862169 0.232322 -0.597906 -0.765147 0.238869 
-0.590943 -0.771769 0.23486 0.359663 -0.917523 -0.169687 0.272546 -0.949192 -0.157329 
0.27123 -0.900185 -0.340736 0.169775 -0.982348 -0.078549 0.233596 -0.786172 -0.57216 
0.0650344 -0.995781 0.0647402 -0.0817639 -0.991975 0.096434 -0.216778 -0.960857 0.172513 
-0.345324 -0.914046 0.212769 -0.321503 -0.924658 0.204068 0.0458215 0.451454 -0.891117 
0.0783172 0.374876 -0.923761 0.0645407 0.343698 -0.93686 0.0538859 0.440162 -0.8963 
0.0981015 0.350072 -0.931572 0.00840159 0.456523 -0.889672 0.0478459 0.443759 -0.894868 
-0.073395 0.455597 -0.887155 -0.110672 0.475854 -0.872533 -0.149095 0.518588 -0.841925 
-0.197563 0.511776 -0.836095 0.279199 0.37444 -0.884219 0.18237 0.339609 -0.922717 
0.205535 0.332875 -0.920299 0.0752384 0.354046 -0.932196 0.0566411 0.320559 -0.945533 
0.0877297 0.257018 -0.962416 0.0650295 0.157871 -0.985316 -0.00479444 0.212259 -0.977202 
-0.0525223 0.343105 -0.937828 -0.1157 0.439282 -0.890867 -0.218385 0.520065 -0.825736 
-0.190283 0.497983 -0.846053 -0.289664 0.532086 -0.7956 -0.40162 0.513368 -0.75839 
0.301093 0.375996 -0.876339 0.306914 0.368348 -0.877567 0.262786 0.364397 -0.893397 
0.171184 0.301199 -0.93807 0.0695075 0.271038 -0.960056 -0.0325072 0.272789 -0.961525 
-0.0471831 0.185905 -0.981434 0.00879473 0.12543 -0.992063 0.10456 0.138276 -0.984859 
0.100369 0.216828 -0.971036 -0.0319516 0.283062 -0.958569 -0.13971 0.358944 -0.922844 
-0.209624 0.413245 -0.886164 -0.410903 0.509101 -0.75629 -0.396459 0.508469 -0.764382 
0.405653 0.365778 -0.837646 0.57116 0.177338 -0.801453 0.267104 0.340472 -0.901518 
0.208088 0.284163 -0.935923 0.107171 0.210024 -0.971805 0.0407868 0.123679 -0.991484 
-0.0267886 0.129246 -0.991251 -0.0522873 0.233457 -0.97096 0.0242766 0.154774 -0.987652 
0.0843336 0.266704 -0.960082 0.0933863 0.121742 -0.988159 0.0424957 0.144311 -0.988619 
-0.0569671 0.225622 -0.972548 -0.190202 0.274624 -0.942552 -0.576455 0.271567 -0.770682 
-0.361139 0.287754 -0.887004 -0.658789 0.173202 -0.732119 0.623399 0.0211049 -0.781619 
0.631806 -0.0677124 -0.772163 0.588772 0.0262665 -0.807872 0.313745 0.173435 -0.933533 
0.138645 0.163679 -0.976722 0.0208589 0.131022 -0.99116 -0.00797352 0.0781798 -0.996907 
0.0738056 0.0502208 -0.996007 -0.0264045 0.23314 -0.972085 0.0332623 0.186088 -0.98197 
0.0724074 0.177329 -0.981484 -0.00318156 0.0956223 -0.995413 0.0717126 0.0800279 -0.99421 
-0.00712421 0.105884 -0.994353 -0.148903 0.112432 -0.982439 -0.337815 0.148159 -0.929478 
-0.719857 0.0760413 -0.689945 -0.683756 0.0902497 -0.724109 0.626131 -0.129599 -0.768872 
0.373891 -0.00551912 -0.927456 0.161106 0.0529327 -0.985517 0.00970746 0.0746947 -0.997159 
-0.0414551 0.0753929 -0.996292 0.123347 0.0664647 -0.990135 -0.00795039 0.278744 -0.960332 
-0.0145874 0.13345 -0.990948 -0.151975 -0.000219734 -0.988384 -0.343826 -0.100279 -0.933664 
-0.83292 -0.226898 -0.504738 -0.819065 -0.284239 -0.498338 -0.791299 -0.214437 -0.572593 
0.719953 -0.285635 -0.63252 0.475641 -0.171379 -0.862783 0.205359 -0.0591373 -0.976898 
0.0471997 -0.0155556 -0.998764 -0.0176634 0.0394052 -0.999067 0.0871096 0.0598389 -0.9944 
-0.279016 -0.107158 -0.954289 -0.738105 -0.470143 -0.483908 -0.775982 -0.528082 -0.344937 
-0.598675 -0.345542 -0.722626 0.69813 -0.469593 -0.54046 0.696536 -0.474874 -0.537897 
0.684695 -0.456952 -0.567792 0.305913 -0.288948 -0.907153 0.110479 -0.112259 -0.987518 
0.0340193 -0.067557 -0.997135 0.0884037 0.0152916 -0.995967 -0.77698 -0.540572 -0.322621 
-0.451945 -0.331472 -0.828174 0.584868 -0.499073 -0.639418 0.531188 -0.542214 -0.651033 
0.486875 -0.446926 -0.750473 0.228188 -0.347052 -0.909662 0.111726 -0.239389 -0.964474 
0.135541 -0.146288 -0.979913 -0.328775 -0.326303 -0.886247 -0.735325 -0.611416 -0.292349 
-0.728172 -0.621705 -0.288529 -0.721919 -0.592937 -0.356735 0.359694 -0.579084 -0.73163 
0.342826 -0.577586 -0.740854 0.333585 -0.565393 -0.754355 0.253839 -0.676226 -0.691581 
0.241122 -0.454059 -0.857724 0.232745 -0.703897 -0.671088 0.182498 -0.409437 -0.893899 
0.175319 -0.335948 -0.92542 0.0766956 -0.354807 -0.931789 -0.0614031 -0.346314 -0.936107 
-0.118316 -0.446868 -0.886741 -0.398016 -0.867166 -0.299342 -0.276057 -0.513213 -0.812653 
-0.57051 -0.763336 -0.303045 -0.557488 -0.771617 -0.306292 -0.55138 -0.75959 -0.344968 
0.223448 -0.738771 -0.635837 0.168725 -0.810353 -0.561124 0.177542 -0.709812 -0.68165 
-0.00926594 -0.86613 -0.499732 0.0124684 -0.759061 -0.6509 -0.138358 -0.894829 -0.424427 
-0.122082 -0.810296 -0.573163 -0.280337 -0.878409 -0.387052 -0.278158 -0.878062 -0.389404 
-0.276929 -0.876432 -0.393925 0.0502951 0.142617 -0.988499 0.0266187 0.143763 -0.989254 
0.0582317 0.0922159 -0.994035 -0.00943058 0.0955124 -0.995384 0.104004 0.0799974 -0.991354 
0.00238656 0.26007 -0.965587 0.0971394 0.08361 -0.991753 -0.00876354 0.259337 -0.965747 
-0.00596292 0.272724 -0.962074 -0.0156162 0.125114 -0.992019 -0.01778 0.11285 -0.993453 
0.0260368 0.111532 -0.99342 -0.0155073 0.128061 -0.991645 0.0531332 0.0970178 -0.993863 
-0.127011 0.00907002 -0.99186 -0.0196899 0.0493423 -0.998588 0.149144 0.0230672 -0.988546 
0.179463 0.00515797 -0.983751 0.0410693 0.0939786 -0.994727 -0.0576315 0.0641264 -0.996276 
-0.0156048 0.112185 -0.993565 -0.0115093 0.0750729 -0.997112 -0.183043 -0.0505551 -0.981804 
-0.0994057 0.00323128 -0.995042 0.113805 -0.000588849 -0.993503 0.138604 -0.0191737 -0.990162 
0.0524025 -0.0253284 -0.998305 -0.00648493 -0.000650351 -0.999979 -0.00550167 -0.00101071 -0.999984 
-0.0519591 -0.0145316 -0.998544 -0.250483 -0.114057 -0.961379 -0.280255 -0.226613 -0.932794 
-0.201673 -0.0691995 -0.977005 0.136564 -0.138273 -0.980934 0.140814 -0.15842 -0.977279 
0.137319 -0.13591 -0.981159 0.0729162 -0.297875 -0.951816 0.0619811 -0.111599 -0.991818 
-0.0548037 -0.287294 -0.956273 -0.0349514 -0.109821 -0.993337 -0.0566586 -0.25262 -0.965905 
-0.0306538 -0.165153 -0.985792 -0.2426 -0.284727 -0.927403 -0.114911 -0.265816 -0.957151 
-0.0810907 -0.217118 -0.972771 
