# vtk DataFile Version 4.2
vtk output
ASCII
DATASET POLYDATA
POINTS 540 float
36.7991 15.8363 -28.5757 28.0791 24.5563 -28.0877 -41.6811 -19.0439 -21.3137 
-32.9611 -19.0439 -22.2208 -24.2411 -19.0439 -22.3404 -15.521 -19.0439 -21.484 
-6.80101 -19.0439 -20.2307 1.91903 -19.0439 -19.3084 -50.4012 -10.3238 -22.6121 
-41.6811 -10.3238 -23.9706 -32.9611 -10.3238 -24.1828 -24.2411 -10.3238 -24.2369 
-15.521 -10.3238 -24.0729 -6.80101 -10.3238 -21.9905 1.91903 -10.3238 -20.8719 
28.0791 -10.3238 -20.0023 36.7991 -10.3238 -21.3448 45.5192 -10.3238 -21.1351 
-59.1212 -1.60381 -20.319 -50.4012 -1.60381 -23.6521 -41.6811 -1.60381 -24.7677 
-32.9611 -1.60381 -24.6803 -24.2411 -1.60381 -24.0244 -15.521 -1.60381 -23.6032 
-6.80101 -1.60381 -21.1623 1.91903 -1.60381 -19.8639 10.6391 -1.60381 -22.0216 
19.3591 -1.60381 -21.2642 28.0791 -1.60381 -23.5513 36.7991 -1.60381 -25.0231 
45.5192 -1.60381 -25.1898 54.2392 -1.60381 -24.1247 62.9592 -1.60381 -20.5651 
-59.1212 7.11622 -20.5957 -50.4012 7.11622 -23.7442 -41.6811 7.11622 -24.6791 
-32.9611 7.11622 -24.3395 -24.2411 7.11622 -23.3776 -15.521 7.11622 -23.0918 
-6.80101 7.11622 -21.6281 1.91903 7.11622 -20.1355 10.6391 7.11622 -22.525 
19.3591 7.11622 -23.3814 28.0791 7.11622 -25.1412 36.7991 12.697 -27.8477 
36.7991 7.11622 -26.5463 45.5192 7.11622 -27.0778 54.2392 7.11622 -26.8055 
62.9592 7.11622 -25.1395 -59.1212 15.8363 -19.979 -50.4012 15.8363 -22.7687 
-41.6811 15.8363 -24.0275 -32.9611 15.8363 -23.1116 -24.2411 15.8363 -22.0153 
-15.521 15.8363 -21.3919 -6.80101 15.8363 -21.9657 1.91903 15.8363 -21.9761 
10.6391 15.8363 -24.7995 19.3591 15.8363 -25.9785 32.5322 15.8363 -27.8477 
28.0791 22.5006 -27.8477 28.0791 15.8363 -27.0625 42.2551 15.8363 -27.8477 
36.7991 23.0965 -27.8477 45.5192 15.8363 -27.4747 54.2392 15.8363 -25.9773 
62.9592 15.8363 -21.8137 -41.6811 24.5563 -19.9746 1.91903 24.5563 -21.3303 
10.6391 24.5563 -24.6543 26.4213 24.5563 -27.8477 19.3591 24.5563 -26.912 
33.4466 24.5563 -27.8477 28.0791 25.3539 -27.8477 36.7991 24.5563 -27.6895 
45.5192 24.5563 -26.6557 54.2392 24.5563 -23.6126 10.6391 33.2763 -20.7837 
19.3591 33.2763 -24.3878 28.0791 33.2763 -24.744 36.7991 33.2763 -23.8158 
-32.9611 -36.4839 -10.7476 -24.2411 -36.4839 -11.578 -15.521 -36.4839 -11.3021 
-50.4012 -27.7639 -11.8024 -41.6811 -23.0407 -19.1277 -41.6811 -27.7639 -16.0058 
-32.9611 -25.8645 -19.1277 -32.9611 -27.7639 -18.0746 -24.2411 -25.8802 -19.1277 
-24.2411 -27.7639 -18.1359 -15.521 -23.9371 -19.1277 -15.521 -27.7639 -17.2181 
-6.80101 -21.7431 -19.1277 -6.80101 -27.7639 -16.3936 1.91903 -19.5315 -19.1277 
1.91903 -27.7639 -15.8521 10.6391 -27.7639 -14.445 19.3591 -27.7639 -14.0847 
28.0791 -27.7639 -13.1951 36.7991 -27.7639 -12.2083 -59.1212 -19.0439 -13.093 
-49.8346 -19.0439 -19.1277 -50.4012 -18.7201 -19.1277 -50.4012 -19.0439 -18.9692 
2.3346 -19.0439 -19.1277 10.6391 -19.0439 -15.6996 19.3591 -19.0439 -15.1979 
28.0791 -12.2924 -19.1277 28.0791 -19.0439 -16.2442 36.7991 -14.4088 -19.1277 
36.7991 -19.0439 -16.523 45.5192 -13.5588 -19.1277 45.5192 -19.0439 -15.4047 
54.2392 -19.0439 -12.3883 -57.9094 -10.3238 -19.1277 -59.1212 -7.14153 -19.1277 
-59.1212 -10.3238 -18.385 8.10544 -10.3238 -19.1277 10.6391 -8.54838 -19.1277 
10.6391 -10.3238 -18.2599 24.0189 -10.3238 -19.1277 19.3591 -7.66893 -19.1277 
19.3591 -10.3238 -18.1162 54.029 -10.3238 -19.1277 54.2392 -10.2434 -19.1277 
54.2392 -10.3238 -19.0714 62.9592 -3.9109 -19.1277 62.9592 -10.3238 -14.0968 
-60.74 -1.60381 -19.1277 -67.8412 -1.60381 -10.5373 64.9187 -1.60381 -19.1277 
71.6793 -1.60381 -11.4882 -61.0525 7.11622 -19.1277 70.4212 7.11622 -19.1277 
71.6793 7.11622 -16.7749 -60.1978 15.8363 -19.1277 -59.1212 17.9179 -19.1277 
-50.4012 23.054 -19.1277 -32.9611 23.7603 -19.1277 -24.2411 21.1736 -19.1277 
-15.521 19.0254 -19.1277 -6.80101 22.4449 -19.1277 66.0116 15.8363 -19.1277 
62.9592 20.2988 -19.1277 -59.1212 24.5563 -14.5928 -46.0788 24.5563 -19.1277 
-50.4012 24.5563 -18.0716 -35.7498 24.5563 -19.1277 -41.6811 25.621 -19.1277 
-32.9611 24.5563 -18.6235 -24.2411 24.5563 -16.1929 -15.521 24.5563 -14.0544 
-4.12557 24.5563 -19.1277 -6.80101 24.5563 -17.917 1.91903 28.8432 -19.1277 
45.5192 32.9093 -19.1277 59.729 24.5563 -19.1277 54.2392 28.6377 -19.1277 
-50.4012 33.2763 -10.5125 -41.6811 33.2763 -10.8255 -32.9611 33.2763 -10.5319 
7.52546 33.2763 -19.1277 1.91903 33.2763 -15.3266 10.6391 34.679 -19.1277 
19.3591 37.4774 -19.1277 28.0791 37.5662 -19.1277 44.6232 33.2763 -19.1277 
36.7991 36.0403 -19.1277 -32.9611 -36.7751 -10.4076 -24.2411 -37.558 -10.4076 
-15.521 -37.4029 -10.4076 -50.4012 -29.0592 -10.4076 -33.7821 -36.4839 -10.4076 
-41.6811 -33.2137 -10.4076 -41.6811 -36.4839 -4.30201 -8.48721 -36.4839 -10.4076 
-6.80101 -36.2147 -10.4076 -6.80101 -36.4839 -10.1417 1.91903 -36.287 -10.4076 
1.91903 -36.4839 -10.2326 10.6391 -36.0906 -10.4076 10.6391 -36.4839 -10.1634 
19.3591 -34.961 -10.4076 19.3591 -36.4839 -9.428 28.0791 -32.8244 -10.4076 
28.0791 -36.4839 -7.7181 36.7991 -30.4094 -10.4076 36.7991 -36.4839 -4.72635 
-51.9706 -27.7639 -10.4076 -59.1212 -21.5844 -10.4076 43.9172 -27.7639 -10.4076 
45.5192 -27.1438 -10.4076 45.5192 -27.7639 -9.89652 54.2392 -21.2056 -10.4076 
54.2392 -27.7639 -1.83377 -61.2677 -19.0439 -10.4076 57.433 -19.0439 -10.4076 
62.9592 -14.6359 -10.4076 62.9592 -19.0439 -4.27058 -66.1279 -10.3238 -10.4076 
-67.8412 -1.97034 -10.4076 66.38 -10.3238 -10.4076 71.6793 -2.77103 -10.4076 
-67.9101 -1.60381 -10.4076 -67.8412 0.285633 -10.4076 72.3158 -1.60381 -10.4076 
-67.5923 7.11622 -10.4076 73.8483 7.11622 -10.4076 71.6793 13.4213 -10.4076 
-65.9314 15.8363 -10.4076 70.7945 15.8363 -10.4076 62.9592 23.7812 -10.4076 
-61.8156 24.5563 -10.4076 -59.1212 27.4688 -10.4076 -24.2411 29.5906 -10.4076 
-15.521 28.1792 -10.4076 -6.80101 32.1884 -10.4076 45.5192 31.864 -10.4076 
61.7438 24.5563 -10.4076 54.2392 29.6981 -10.4076 -50.5305 33.2763 -10.4076 
-50.4012 33.3525 -10.4076 -41.6811 33.6027 -10.4076 -32.661 33.2763 -10.4076 
-32.9611 33.3813 -10.4076 -24.2411 33.2763 -6.42871 -15.521 33.2763 -4.8421 
-4.82805 33.2763 -10.4076 -6.80101 33.2763 -8.33787 1.91903 36.0837 -10.4076 
10.6391 37.0893 -10.4076 19.3591 37.6102 -10.4076 28.0791 36.706 -10.4076 
28.0791 33.2763 -3.77596 42.4292 33.2763 -10.4076 36.7991 35.7248 -10.4076 
36.7991 33.2763 -6.38292 -41.6811 -37.6985 -1.6876 -32.9611 -40.9262 -1.6876 
-24.2411 -42.5545 -1.6876 -15.521 -42.5489 -1.6876 -6.80101 -42.4025 -1.6876 
1.91903 -42.773 -1.6876 10.6391 -43.2763 -1.6876 19.3591 -42.4687 -1.6876 
28.0791 -40.9775 -1.6876 36.7991 -38.4556 -1.6876 -44.3962 -36.4839 -1.6876 
-50.4012 -33.3539 -1.6876 40.9277 -36.4839 -1.6876 45.5192 -34.0925 -1.6876 
54.2392 -27.8767 -1.6876 -56.6706 -27.7639 -1.6876 -59.1212 -25.327 -1.6876 
54.3569 -27.7639 -1.6876 62.9592 -20.4523 -1.6876 -63.9133 -19.0439 -1.6876 
64.2386 -19.0439 -1.6876 -67.3501 -10.3238 -1.6876 -67.8412 -6.74614 -1.6876 
69.9457 -10.3238 -1.6876 71.6793 -6.77624 -1.6876 -68.4951 -1.60381 -1.6876 
-67.8412 4.16586 -1.6876 -67.8412 -1.60381 0.859466 73.7987 -1.60381 -1.6876 
71.6793 -1.60381 6.99845 -67.4468 7.11622 -1.6876 74.5744 7.11622 -1.6876 
71.6793 12.6196 -1.6876 -65.6829 15.8363 -1.6876 69.4892 15.8363 -1.6876 
62.9592 21.1384 -1.6876 -62.443 24.5563 -1.6876 -59.1212 29.2229 -1.6876 
-59.1212 24.5563 4.35217 28.0791 32.0467 -1.6876 36.7991 30.0328 -1.6876 
45.5192 28.1903 -1.6876 45.5192 24.5563 5.84008 57.3928 24.5563 -1.6876 
54.2392 26.5598 -1.6876 54.2392 24.5563 1.36455 -54.9439 33.2763 -1.6876 
-50.4012 36.4315 -1.6876 -41.6811 38.2343 -1.6876 -32.9611 38.1764 -1.6876 
-24.2411 36.8606 -1.6876 -15.521 35.7015 -1.6876 -6.80101 35.9626 -1.6876 
1.91903 36.1451 -1.6876 10.6391 34.8993 -1.6876 10.6391 33.2763 4.34868 
22.3153 33.2763 -1.6876 19.3591 33.8757 -1.6876 19.3591 33.2763 -0.454807 
-41.6811 -38.1325 7.03243 -32.9611 -41.7008 7.03243 -24.2411 -43.3955 7.03243 
-15.521 -43.7895 7.03243 -6.80101 -44.4368 7.03243 1.91903 -45.0139 7.03243 
10.6391 -44.9765 7.03243 19.3591 -43.4326 7.03243 28.0791 -41.2091 7.03243 
36.7991 -38.619 7.03243 -44.7569 -36.4839 7.03243 -50.4012 -32.9012 7.03243 
-41.6811 -36.4839 10.6827 28.0791 -36.4839 15.3166 42.2173 -36.4839 7.03243 
36.7991 -36.4839 11.2001 45.5192 -35.043 7.03243 54.2392 -29.2618 7.03243 
-56.2532 -27.7639 7.03243 -59.1212 -24.0424 7.03243 -50.4012 -27.7639 14.9554 
55.9536 -27.7639 7.03243 54.2392 -27.7639 9.62673 62.9592 -21.138 7.03243 
-62.0843 -19.0439 7.03243 -59.1212 -19.0439 11.7739 64.6863 -19.0439 7.03243 
62.9592 -19.0439 9.85096 -64.5131 -10.3238 7.03243 -59.1212 -10.3238 14.8439 
69.3381 -10.3238 7.03243 62.9592 -10.3238 15.3635 -65.799 -1.60381 7.03243 
-59.1212 -1.60381 15.0638 71.6688 -1.60381 7.03243 71.6793 -1.47077 7.03243 
-62.8248 7.11622 7.03243 -59.1212 7.11622 11.5128 62.9592 7.11622 15.0587 
72.2254 7.11622 7.03243 71.6793 7.91334 7.03243 71.6793 7.11622 7.82884 
-60.9959 15.8363 7.03243 -59.1212 20.105 7.03243 -59.1212 15.8363 9.18604 
45.5192 23.8946 7.03243 54.2392 20.5105 7.03243 54.2392 15.8363 13.2694 
62.9846 15.8363 7.03243 62.9592 15.8569 7.03243 62.9592 15.8363 7.06017 
-57.6679 24.5563 7.03243 10.6391 32.5667 7.03243 19.3591 30.0817 7.03243 
28.0791 26.6851 7.03243 28.0791 24.5563 12.4404 39.1034 24.5563 7.03243 
36.7991 24.7837 7.03243 36.7991 24.5563 7.42532 -52.6993 33.2763 7.03243 
-50.4012 35.2852 7.03243 -50.4012 33.2763 10.061 -41.6811 40.2316 7.03243 
-32.9611 40.7483 7.03243 -24.2411 39.7983 7.03243 -15.521 38.8864 7.03243 
-6.80101 37.1709 7.03243 7.95938 33.2763 7.03243 1.91903 34.9403 7.03243 
1.91903 33.2763 15.2339 -32.9611 -37.8925 15.7525 -24.2411 -40.2105 15.7525 
-15.521 -40.9691 15.7525 -6.80101 -40.9092 15.7525 1.91903 -41.7429 15.7525 
10.6391 -41.451 15.7525 19.3591 -38.8475 15.7525 -36.1788 -36.4839 15.7525 
-41.6811 -33.5826 15.7525 -32.9611 -36.4839 17.3409 -24.2411 -36.4839 19.7849 
-15.521 -36.4839 20.2213 -6.80101 -36.4839 20.2039 1.91903 -36.4839 20.891 
10.6391 -36.4839 20.4271 26.9954 -36.4839 15.7525 19.3591 -36.4839 17.9794 
[...]
POINT_DATA 540
SCALARS ImageScalars float
LOOKUP_TABLE default
0 0 0 0 0 0 0 0 0 
0 0 0 0 0 0 0 0 0 
0 0 0 0 0 0 0 0 0 
0 0 0 0 0 0 0 0 0 
0 0 0 0 0 0 0 0 0 
0 0 0 0 0 0 0 0 0 
0 0 0 0 0 0 0 0 0 
0 0 0 0 0 0 0 0 0 
0 0 0 0 0 0 0 0 0 
0 0 0 0 0 0 0 0 0 
0 0 0 0 0 0 0 0 0 
0 0 0 0 0 0 0 0 0 
0 0 0 0 0 0 0 0 0 
0 0 0 0 0 0 0 0 0 
0 0 0 0 0 0 0 0 0 
0 0 0 0 0 0 0 0 0 
0 0 0 0 0 0 0 0 0 
0 0 0 0 0 0 0 0 0 
0 0 0 0 0 0 0 0 0 
0 0 0 0 0 0 0 0 0 
0 0 0 0 0 0 0 0 0 
0 0 0 0 0 0 0 0 0 
0 0 0 0 0 0 0 0 0 
0 0 0 0 0 0 0 0 0 
0 0 0 0 0 0 0 0 0 
0 0 0 0 0 0 0 0 0 
0 0 0 0 0 0 0 0 0 
0 0 0 0 0 0 0 0 0 
0 0 0 0 0 0 0 0 0 
0 0 0 0 0 0 0 0 0 
0 0 0 0 0 0 0 0 0 
0 0 0 0 0 0 0 0 0 
0 0 0 0 0 0 0 0 0 
0 0 0 0 0 0 0 0 0 
0 0 0 0 0 0 0 0 0 
0 0 0 0 0 0 0 0 0 
0 0 0 0 0 0 0 0 0 
0 0 0 0 0 0 0 0 0 
0 0 0 0 0 0 0 0 0 
0 0 0 0 0 0 0 0 0 
0 0 0 0 0 0 0 0 0 
0 0 0 0 0 0 0 0 0 
0 0 0 0 0 0 0 0 0 
0 0 0 0 0 0 0 0 0 
0 0 0 0 0 0 0 0 0 
0 0 0 0 0 0 0 0 0 
0 0 0 0 0 0 0 0 0 
0 0 0 0 0 0 0 0 0 
0 0 0 0 0 0 0 0 0 
0 0 0 0 0 0 0 0 0 
0 0 0 0 0 0 0 0 0 
0 0 0 0 0 0 0 0 0 
0 0 0 0 0 0 0 0 0 
0 0 0 0 0 0 0 0 0 
0 0 0 0 0 0 0 0 0 
0 0 0 0 0 0 0 0 0 
0 0 0 0 0 0 0 0 0 
0 0 0 0 0 0 0 0 0 
0 0 0 0 0 0 0 0 0 
0 0 0 0 0 0 0 0 0 

NORMALS Normals float
0.0149208 0.0719637 0.997296 0.0507904 -0.0909 0.994564 0.163014 0.398726 0.902465 
0.0529177 0.323123 0.944876 -0.0380043 0.321142 0.946268 -0.117437 0.36082 0.925212 
-0.11549 0.289374 0.950224 -0.253749 0.260821 0.931442 0.276865 0.227392 0.933616 
0.0881191 0.176492 0.98035 0.0155858 0.133531 0.990922 -0.00609313 0.0909396 0.995838 
-0.124165 0.108182 0.986347 -0.18471 0.0565094 0.981167 -0.188915 0.0364943 0.981315 
0.16668 0.389673 0.905744 0.0582194 0.442736 0.89476 -0.105445 0.49664 0.861528 
0.499721 0.108215 0.8594 0.222703 0.0652393 0.972701 0.0556571 0.0423585 0.997551 
-0.0424899 0.00830099 0.999062 -0.0614697 -0.0490571 0.996903 -0.148823 -0.0561535 0.987268 
-0.225833 -0.0231491 0.973891 0.0594471 -0.0488786 0.997034 0.0690951 0.214921 0.974184 
0.0817982 0.277875 0.957128 0.204096 0.27018 0.940929 0.0899545 0.285886 0.954032 
-0.0496768 0.316812 0.947187 -0.225822 0.368488 0.901788 -0.471354 0.41948 0.775798 
0.501567 -0.0218481 0.864843 0.2033 -0.0529324 0.977685 0.0312195 -0.0401385 0.998706 
-0.0731577 -0.0839879 0.993778 -0.0725712 -0.111977 0.991057 -0.091671 -0.117477 0.988836 
-0.174317 0.0461849 0.983606 0.0606481 0.125958 0.99018 0.173666 0.148236 0.973584 
0.146006 0.259176 0.95473 0.179818 0.194564 0.964267 0.051742 0.114748 0.992046 
0.107141 0.186695 0.976558 0.0151161 0.129646 0.991445 -0.0912125 0.107079 0.990058 
-0.466181 0.0939249 0.879689 0.540432 -0.229529 0.809475 0.21524 -0.265795 0.939694 
0.0254026 -0.255922 0.966364 -0.113414 -0.28001 0.953274 -0.0932881 -0.328764 0.939793 
-0.00138311 -0.422187 0.906507 0.0317658 -0.180591 0.983045 0.151757 0.0630812 0.986403 
0.227654 0.122646 0.965987 0.128162 0.210404 0.969177 0.0843541 0.120097 0.989172 
0.0736714 -0.0308877 0.996804 0.147444 0.171439 0.974099 -0.0805654 0.0126932 0.996669 
-0.064158 -0.141042 0.987923 -0.132022 -0.0186437 0.991071 -0.289246 -0.149465 0.945514 
-0.558873 -0.378706 0.737728 0.0252693 -0.577638 0.815902 0.345396 -0.253534 0.903561 
0.320715 -0.168984 0.93198 0.0754111 -0.0823986 0.993742 0.183044 -0.0569504 0.981454 
-0.0294226 -0.147294 0.988655 0.0476361 -0.126105 0.990872 -0.0818269 -0.187191 0.978909 
-0.198324 -0.353764 0.914067 -0.487443 -0.495506 0.718939 0.38526 -0.68009 0.623741 
0.187558 -0.60537 0.77353 -0.0174381 -0.659639 0.75138 -0.245965 -0.728755 0.639076 
0.191094 0.768879 0.610171 0.0235037 0.7318 0.681114 -0.0630993 0.696362 0.714911 
0.452105 0.701027 0.551509 0.205892 0.497056 0.842938 0.259011 0.625291 0.736155 
0.0790326 0.48998 0.868144 0.0902127 0.54201 0.835516 -0.0481759 0.470609 0.881025 
-0.0432364 0.513013 0.857291 -0.100995 0.432077 0.896164 -0.0868737 0.488599 0.868173 
-0.100059 0.342683 0.934107 -0.069241 0.480476 0.87427 -0.247074 0.270721 0.930411 
-0.101522 0.446599 0.888956 -0.0919624 0.288341 0.953102 -0.0656165 0.29043 0.954644 
-0.0910956 0.397854 0.912915 -0.163333 0.509307 0.844943 0.655261 0.529218 0.539037 
0.319636 0.468236 0.823765 0.328906 0.463281 0.822916 0.331406 0.472922 0.816403 
-0.253747 0.259163 0.931905 -0.22187 0.185081 0.95735 0.0270395 0.206104 0.978156 
0.150574 0.38316 0.911327 0.0734448 0.357199 0.931136 0.0213182 0.440438 0.89753 
-0.0379701 0.437256 0.898535 -0.131549 0.519618 0.844211 -0.186627 0.538777 0.821517 
-0.365376 0.639961 0.675981 0.518954 0.27718 0.808615 0.540228 0.219724 0.812327 
0.567557 0.288985 0.770952 -0.181281 0.287738 0.940395 -0.114543 0.366792 0.923225 
-0.166346 0.384914 0.907838 0.132664 0.374766 0.917579 0.0862911 0.33291 0.939002 
0.0955861 0.352188 0.931035 -0.288252 0.549979 0.783859 -0.291974 0.549572 0.782766 
-0.292707 0.551038 0.78146 -0.470878 0.47207 0.745268 -0.533815 0.600783 0.595065 
0.570011 0.110168 0.814218 0.951015 0.0747659 0.299966 -0.535728 0.412083 0.737009 
-0.85555 0.337126 0.392912 0.597662 -0.0279338 0.801261 -0.784823 0.0321141 0.618887 
-0.877811 -0.00219802 0.479002 0.592887 -0.234021 0.770531 0.540927 -0.309638 0.781999 
0.202381 -0.520187 0.829728 -0.148773 -0.573175 0.805815 -0.155669 -0.535381 0.830141 
0.0213646 -0.546332 0.837296 0.267078 -0.404948 0.874464 -0.683196 -0.385558 0.620151 
-0.629733 -0.52909 0.56877 0.573766 -0.613184 0.542953 0.110173 -0.580562 0.806728 
0.206424 -0.579809 0.788169 -0.0948929 -0.59598 0.797373 0.0173352 -0.61004 0.792181 
-0.154562 -0.599879 0.78502 -0.192927 -0.667973 0.718743 0.0925905 -0.692693 0.715264 
0.338746 -0.408959 0.847351 0.339091 -0.488184 0.804173 0.370975 -0.468928 0.801551 
-0.390946 -0.881539 0.264671 -0.605363 -0.659042 0.446317 -0.523845 -0.771669 0.360711 
0.292031 -0.804347 0.51744 -0.000198742 -0.801301 0.598261 -0.163725 -0.783157 0.599883 
0.38428 -0.696322 0.606188 0.342692 -0.782368 0.52006 0.371961 -0.758589 0.534965 
0.157314 -0.926777 0.341081 -0.0879717 -0.961454 0.260515 -0.383178 -0.886886 0.258084 
-0.259904 -0.929034 0.263337 0.193648 0.776067 0.600183 0.0327583 0.763445 0.645041 
-0.0597842 0.724986 0.686164 0.469977 0.723193 0.506077 0.205983 0.775658 0.596595 
0.313244 0.761944 0.56685 0.368055 0.872401 0.32164 -0.0501114 0.706195 0.706242 
-0.047653 0.700681 0.711882 -0.0460573 0.711318 0.70136 -0.00254066 0.663114 0.748514 
0.000411623 0.671164 0.741309 -0.0372325 0.568438 0.821883 -0.0336916 0.58714 0.808784 
-0.091888 0.539859 0.836725 -0.0997351 0.619125 0.778934 -0.134624 0.539294 0.831287 
-0.181984 0.718728 0.671053 -0.204233 0.566858 0.798098 -0.34324 0.815281 0.466372 
0.49894 0.715927 0.488373 0.671699 0.607373 0.424167 -0.306589 0.589922 0.746991 
-0.327382 0.597563 0.731942 -0.345097 0.613236 0.710527 -0.404862 0.650963 0.642132 
-0.620965 0.707707 0.336977 0.722616 0.544927 0.425301 -0.463437 0.641785 0.611014 
-0.600988 0.598978 0.529187 -0.687505 0.648153 0.327468 0.876099 0.32236 0.358518 
0.95122 0.0844245 0.296738 -0.661353 0.59897 0.451493 -0.858911 0.369387 0.354718 
0.952834 0.0740006 0.294333 0.958901 0.0354362 0.28152 -0.87909 0.323822 0.349771 
0.967026 -0.101852 0.233424 -0.977383 -0.0751873 0.197662 -0.941962 -0.300132 0.150427 
0.9146 -0.317734 0.250104 -0.901073 -0.412589 0.133558 -0.521584 -0.852275 -0.0397033 
0.743706 -0.591526 0.311444 0.625318 -0.695564 0.353792 -0.209965 -0.727561 0.653123 
0.113421 -0.717094 0.687685 0.392213 -0.773679 0.497584 -0.320403 -0.912836 -0.253124 
-0.493434 -0.867502 -0.0629493 -0.421576 -0.900698 -0.104961 0.296952 -0.805852 0.512271 
0.292373 -0.807027 0.513056 0.00232081 -0.808059 0.589096 -0.165946 -0.782813 0.599721 
-0.163246 -0.785508 0.596932 -0.172899 -0.780924 0.60022 0.0203895 -0.801814 0.597226 
0.368527 -0.82384 0.430669 0.309396 -0.849652 0.427043 0.232342 -0.938206 0.25649 
0.0836219 -0.996484 -0.00523799 -0.0181596 -0.982901 -0.183239 -0.109807 -0.954102 -0.278624 
-0.174236 -0.858402 -0.482481 -0.307085 -0.907936 -0.285219 -0.239509 -0.924939 -0.295165 
-0.2387 -0.8722 -0.426954 0.380321 0.896735 0.226324 0.253096 0.933103 0.255461 
0.0877868 0.953276 0.289066 -0.00800231 0.953442 0.301471 0.010974 0.917332 0.397971 
0.0478846 0.903708 0.425463 -0.0185205 0.921494 0.38795 -0.124659 0.93008 0.345561 
-0.218021 0.924469 0.312769 -0.35625 0.88726 0.293012 0.431279 0.878097 0.207231 
0.559473 0.81312 0.160702 -0.406325 0.858097 0.313959 -0.463975 0.821386 0.33174 
-0.622257 0.709587 0.330579 0.668556 0.729105 0.146418 0.733175 0.670654 0.112595 
-0.623428 0.708679 0.33032 -0.708129 0.667589 0.229955 0.872909 0.486499 0.0367246 
-0.737473 0.637431 0.223195 0.968542 0.236721 -0.0767379 0.98599 0.143392 -0.08522 
-0.838631 0.529061 0.129585 -0.914952 0.39966 0.0559838 0.995119 0.00708098 -0.0984249 
0.98008 -0.0941904 -0.174845 0.980177 -0.0126403 -0.197721 -0.977403 0.2079 -0.0382258 
-0.892108 0.140549 -0.429405 0.964354 -0.149079 -0.218623 -0.970414 -0.21731 -0.105229 
-0.884981 -0.412727 -0.215555 0.937204 -0.27522 -0.214246 -0.76973 -0.557461 -0.311052 
-0.476519 -0.798662 -0.367516 0.879189 -0.433881 -0.196908 0.772827 -0.62864 -0.0868919 
0.841279 -0.354386 -0.40824 -0.195541 -0.828957 -0.524018 -0.186378 -0.833114 -0.520753 
-0.173005 -0.881502 -0.439344 -0.181014 -0.855211 -0.485641 -0.390761 -0.827918 -0.402315 
-0.357682 -0.828415 -0.431036 -0.359981 -0.799631 -0.480629 0.569638 -0.819823 0.0583354 
0.403285 -0.907248 0.119421 0.0949186 -0.934263 0.343719 -0.0734457 -0.902954 0.423415 
-0.124704 -0.862921 0.48971 -0.0434663 -0.853538 0.519215 0.0229396 -0.972299 0.232613 
-0.0616916 -0.995998 -0.0646625 -0.117075 -0.960033 -0.254226 -0.219944 -0.946727 -0.235231 
-0.168671 -0.871853 -0.459808 -0.147606 -0.893639 -0.423818 -0.173231 -0.896818 -0.407072 
0.437856 0.883191 -0.168096 0.274714 0.951502 -0.138481 0.115519 0.98751 -0.10714 
0.0592753 0.99629 -0.0623911 0.0700926 0.995754 -0.0596823 0.0317405 0.998937 -0.0334366 
-0.0883153 0.994091 -0.0631115 -0.211782 0.967818 -0.135927 -0.263519 0.940007 -0.216668 
-0.327422 0.918253 -0.222724 0.484318 0.854732 -0.18673 0.588721 0.774925 -0.229997 
0.437692 0.83518 -0.333016 -0.228086 0.72978 -0.644514 -0.415089 0.888115 -0.197364 
-0.311986 0.853411 -0.417557 -0.468467 0.863767 -0.185597 -0.625785 0.762979 -0.16204 
0.705561 0.668385 -0.235467 0.795494 0.53372 -0.286937 0.556185 0.58947 -0.585819 
-0.644733 0.747817 -0.158393 -0.617589 0.723586 -0.308232 -0.755369 0.618351 -0.216932 
0.865397 0.366983 -0.341191 0.787855 0.330332 -0.519774 -0.790831 0.564809 -0.23575 
-0.753735 0.537987 -0.37743 0.887856 0.173608 -0.426113 0.754753 0.100501 -0.648265 
-0.875609 0.375522 -0.303796 -0.654856 0.240317 -0.716527 0.880207 -0.0709891 -0.469251 
0.718698 -0.122442 -0.684457 -0.891385 0.139964 -0.431095 -0.891651 0.133709 -0.432527 
0.815567 -0.208613 -0.539751 0.756561 -0.216103 -0.617183 -0.546422 -0.346587 -0.762431 
-0.807572 -0.324509 -0.492464 -0.787372 -0.360485 -0.500095 -0.78633 -0.329334 -0.522709 
0.793387 -0.25341 -0.553463 0.803251 -0.27763 -0.526981 0.765877 -0.23545 -0.598327 
-0.185496 -0.84392 -0.503378 -0.351547 -0.75702 -0.550759 -0.340753 -0.674612 -0.654817 
-0.519384 -0.654563 -0.549352 -0.518713 -0.655219 -0.549204 -0.518949 -0.654397 -0.54996 
0.820179 -0.311913 -0.479601 -0.259685 -0.938046 -0.229421 -0.304384 -0.898376 -0.316656 
-0.271834 -0.871467 -0.408231 -0.336197 -0.826122 -0.452211 -0.151432 -0.849699 -0.505055 
-0.141045 -0.849607 -0.508208 -0.145266 -0.848808 -0.508352 0.661303 -0.668483 -0.340307 
0.606504 -0.735813 -0.301218 0.629219 -0.645783 -0.43249 0.260756 -0.964433 -0.0432975 
-0.0273635 -0.998356 0.0503724 -0.106616 -0.985417 0.132616 -0.150166 -0.980482 0.126906 
-0.218072 -0.97592 0.004937 -0.260722 -0.943459 -0.204717 -0.257625 -0.952853 -0.160315 
-0.295561 -0.890698 -0.345401 0.296805 0.759963 -0.578241 0.150783 0.819695 -0.552597 
0.035558 0.835337 -0.548588 0.036219 0.805513 -0.591471 0.0285178 0.815705 -0.577765 
-0.125579 0.799276 -0.587697 -0.241386 0.732268 -0.636802 0.343131 0.739821 -0.578729 
0.411194 0.68546 -0.600886 0.291292 0.711836 -0.639093 0.127293 0.657404 -0.742709 
0.0195655 0.641299 -0.767042 0.0314366 0.616079 -0.787057 0.0113089 0.572068 -0.820128 
-0.131062 0.602375 -0.78738 -0.225083 0.711944 -0.665187 -0.228062 0.645872 -0.728586 
-0.223012 0.706976 -0.671156 -0.254115 0.684501 -0.683289 -0.378466 0.634993 -0.67346 
0.532859 0.571845 -0.623742 0.548029 0.553839 -0.626838 0.365503 0.490527 -0.79107 
0.204711 0.39205 -0.896878 -0.193734 0.338375 -0.920853 -0.200039 0.392285 -0.897829 
-0.200584 0.469228 -0.859995 -0.434514 0.59966 -0.672016 -0.36809 0.568955 -0.735391 
-0.518117 0.497441 -0.695778 0.669211 0.307414 -0.676501 0.50583 0.304019 -0.807285 
0.253836 0.262884 -0.930838 -0.144706 0.114247 -0.982857 -0.140713 0.19676 -0.970302 
-0.236081 0.26583 -0.934666 -0.574443 0.42017 -0.702476 -0.465293 0.396692 -0.791289 
0.728948 0.0943912 -0.67803 0.514917 0.0775489 -0.853725 -0.107761 -0.129043 -0.985767 
-0.0110497 -0.00488694 -0.999927 -0.0524588 0.0651903 -0.996493 -0.167957 0.109483 -0.979696 
-0.631616 0.230025 -0.740371 -0.348784 0.139126 -0.926819 -0.62879 0.141405 -0.76461 
0.707301 -0.122613 -0.696198 0.529299 -0.0836869 -0.844298 -0.0712628 0.021418 -0.997228 
0.0435918 -0.0124149 -0.998972 -0.0284986 -0.0388616 -0.998838 -0.160306 -0.0593598 -0.985281 
-0.34104 -0.0568606 -0.938328 -0.604482 -0.00659159 -0.796591 -0.575651 -0.170879 -0.799641 
-0.586383 -0.0131116 -0.809928 0.695219 -0.203826 -0.689293 0.601695 -0.18631 -0.776693 
-0.0964338 0.0354647 -0.994707 -0.0724193 -0.0802474 -0.994141 -0.101325 -0.203116 -0.973898 
-0.189192 -0.280773 -0.940943 -0.52213 -0.340708 -0.781856 -0.345608 -0.568656 -0.746449 
-0.33564 -0.342115 -0.877669 0.681957 -0.141133 -0.717646 0.630604 -0.124106 -0.766118 
0.396947 -0.147477 -0.905916 -0.0961472 -0.189899 -0.977084 -0.100184 -0.242968 -0.964847 
-0.356433 -0.766631 -0.534072 -0.209875 -0.39339 -0.895096 -0.26723 -0.742345 -0.614421 
-0.241621 -0.56144 -0.791457 -0.288921 -0.659672 -0.6938 -0.260873 -0.679565 -0.685665 
-0.264217 -0.646478 -0.71572 0.7041 -0.268793 -0.657262 0.654248 -0.361618 -0.664223 
0.624163 -0.269119 -0.733482 0.421046 -0.200389 -0.884627 -0.298243 -0.883377 -0.36152 
-0.272667 -0.339004 -0.900405 -0.294958 -0.820047 -0.490431 -0.239747 -0.494631 -0.835381 
-0.356846 -0.78347 -0.508759 -0.339777 -0.794824 -0.502799 -0.303175 -0.676556 -0.671087 
0.571242 -0.567398 -0.593078 0.430642 -0.721723 -0.541907 0.467301 -0.528186 -0.708978 
0.133626 -0.906917 -0.399557 0.155794 -0.528852 -0.834293 -0.0581549 -0.955561 -0.288999 
0.0181665 -0.53833 -0.842538 -0.20352 -0.930725 -0.303858 -0.0986069 -0.624818 -0.774518 
-0.297021 -0.885834 -0.356479 -0.282817 -0.910304 -0.30226 -0.258675 -0.779893 -0.569959 
0.0672745 0.343511 -0.936736 -0.00259142 0.334 -0.942569 -0.00618128 0.296015 -0.955163 
0.0235264 0.252193 -0.967391 -0.0632891 0.331088 -0.941475 0.0958106 0.341129 -0.935121 
0.173969 0.312553 -0.933834 0.0655881 0.327688 -0.942507 -0.00411808 0.312418 -0.949936 
-0.00843179 0.283479 -0.958941 0.0242123 0.236533 -0.971322 -0.113343 0.309267 -0.944197 
-0.05191 0.291 -0.955314 -0.179252 0.16596 -0.969704 0.241961 0.256095 -0.93588 
0.253114 0.246714 -0.935449 0.120525 0.195066 -0.973357 0.0397087 0.141046 -0.989206 
-0.0277473 0.115199 -0.992955 -0.0484772 0.114119 -0.992284 0.0230972 0.0401022 -0.998929 
-0.0267857 0.0285066 -0.999235 -0.155299 0.0543542 -0.986371 -0.134372 -0.0662407 -0.988714 
-0.162322 0.00656193 -0.986716 0.346636 0.0936364 -0.933314 0.250258 0.11 -0.96191 
0.0816813 0.127919 -0.988415 -0.0129384 0.059042 -0.998172 -0.0356157 0.0136478 -0.999272 
-0.0897357 0.0250876 -0.99565 -0.06067 -0.00872272 -0.99812 -0.10182 -0.115651 -0.988057 
-0.0856157 -0.0909659 -0.992167 0.400959 -0.0458473 -0.914948 0.290653 -0.0140576 -0.956725 
0.061913 0.0171557 -0.997934 -0.0720249 -0.00188964 -0.997401 -0.0599475 -0.044896 -0.997191 
-0.0711348 -0.0599698 -0.995662 -0.091991 0.0103512 -0.995706 -0.133986 -0.0139516 -0.990885 
-0.149101 -0.0237446 -0.988537 0.402926 -0.129226 -0.906064 0.386648 -0.14144 -0.911317 
0.348417 -0.115473 -0.9302 0.0930434 -0.0842389 -0.992092 -0.0737131 -0.0280026 -0.996886 
-0.0954551 -0.0158969 -0.995307 -0.0326571 0.00244597 -0.999464 -0.0243979 -0.0141847 -0.999602 
-0.0914402 0.0133855 -0.995721 -0.0866443 -0.123984 -0.988494 -0.075845 -0.0559654 -0.995548 
0.372334 -0.142349 -0.917117 0.149424 -0.0856747 -0.985055 -0.00454484 -0.0441914 -0.999013 
-0.03 0.0147279 -0.999441 -0.0686557 0.0475505 -0.996507 -0.119126 -0.146692 -0.981983 
-0.221114 -0.228028 -0.948215 -0.152275 -0.0909474 -0.984145 0.2898 -0.193659 -0.93729 
0.173785 -0.325956 -0.929275 0.194723 -0.198431 -0.960577 0.0284421 -0.388527 -0.920998 
0.0277326 -0.179053 -0.983448 -0.0473443 -0.429578 -0.901788 -0.00175858 -0.158319 -0.987386 
-0.239132 -0.300462 -0.92333 -0.184008 -0.442141 -0.877868 -0.133501 -0.21805 -0.966763 

