# vtk DataFile Version 4.2
vtk output
ASCII
DATASET POLYDATA
POINTS 524 float
22.3881 19.4482 -24.8023 30.6269 19.4482 -24.6749 22.3881 27.687 -24.8807 
-18.8057 -21.7456 -16.5321 -10.5669 -21.7456 -17.4987 -2.32817 -21.7456 -18.0545 
5.9106 -21.7456 -16.6987 14.1494 -21.7456 -16.6479 22.3881 -21.7456 -17.8453 
30.6269 -21.7456 -17.957 38.8657 -21.7456 -17.1467 -43.522 -13.5068 -18.0925 
-35.2833 -13.5068 -19.225 -27.0445 -13.5068 -18.3802 -18.8057 -13.5068 -17.5765 
-10.5669 -13.5068 -18.7027 -2.32817 -13.5068 -20.0054 5.9106 -13.5068 -19.6503 
14.1494 -13.5068 -19.3467 22.3881 -13.5068 -19.7885 30.6269 -13.5068 -20.2698 
38.8657 -13.5068 -19.776 47.1045 -13.5068 -17.352 -51.7608 -5.26807 -17.2436 
-43.522 -5.26807 -20.4362 -35.2833 -5.26807 -21.2047 -27.0445 -5.26807 -20.4842 
-18.8057 -5.26807 -19.4179 -10.5669 -5.26807 -20.8361 -2.32817 -5.26807 -18.7648 
5.9106 -5.26807 -20.5707 14.1494 -5.26807 -22.0158 22.3881 -5.26807 -21.3755 
30.6269 -5.26807 -21.6735 38.8657 -5.26807 -21.8948 47.1045 -5.26807 -19.4719 
-51.7608 2.97071 -18.7233 -43.522 2.97071 -21.7728 -35.2833 2.97071 -22.5599 
-27.0445 2.97071 -21.9729 -18.8057 2.97071 -20.6196 -10.5669 2.97071 -21.5759 
-2.32817 2.97071 -21.2971 5.9106 2.97071 -22.476 14.1494 2.97071 -22.3195 
22.3881 2.97071 -22.1715 30.6269 2.97071 -22.609 38.8657 2.97071 -22.4156 
47.1045 2.97071 -20.4825 -51.7608 11.2095 -17.9942 -43.522 11.2095 -21.5337 
-35.2833 11.2095 -22.6802 -27.0445 11.2095 -22.4149 -18.8057 11.2095 -21.2804 
-10.5669 11.2095 -20.6071 -2.32817 11.2095 -22.0454 5.9106 11.2095 -23.1371 
14.1494 11.2095 -22.9465 22.3881 17.9774 -24.514 22.3881 11.2095 -23.1881 
30.6269 18.334 -24.514 30.6269 11.2095 -23.5139 38.8657 11.2095 -22.9382 
47.1045 11.2095 -20.6243 -43.522 19.4482 -20.6438 -35.2833 19.4482 -22.4466 
-27.0445 19.4482 -23.7338 -18.8057 19.4482 -22.6696 -10.5669 19.4482 -22.638 
-2.32817 19.4482 -22.9531 5.9106 19.4482 -23.459 19.205 19.4482 -24.514 
14.1494 19.4482 -24.0586 31.61 19.4482 -24.514 30.6269 20.4028 -24.514 
38.8657 19.4482 -23.2545 47.1045 19.4482 -20.3097 -43.522 27.687 -17.7302 
-35.2833 27.687 -21.5932 -27.0445 27.687 -22.7232 -18.8057 27.687 -23.3539 
-10.5669 27.687 -24.0512 -2.32817 27.687 -24.1347 5.9106 27.687 -24.2869 
15.2513 27.687 -24.514 14.1494 27.687 -24.451 24.4742 27.687 -24.514 
22.3881 29.2449 -24.514 30.6269 27.687 -23.3349 38.8657 27.687 -21.255 
47.1045 27.687 -17.4373 -35.2833 35.9258 -18.098 -27.0445 35.9258 -21.1696 
-18.8057 35.9258 -22.376 -10.5669 35.9258 -23.6321 -2.32817 35.9258 -24.2554 
5.9106 35.9258 -23.9311 14.1494 35.9258 -22.8669 22.3881 35.9258 -22.1846 
30.6269 35.9258 -19.3378 -10.5669 44.1646 -16.4688 -2.32817 44.1646 -17.4212 
5.9106 44.1646 -16.648 -10.5669 -38.2232 -9.24221 -2.32817 -38.2232 -9.67999 
5.9106 -38.2232 -9.8595 14.1494 -38.2232 -10.4121 22.3881 -38.2232 -10.5073 
30.6269 -38.2232 -10.3981 -35.2833 -29.9844 -11.1484 -27.0445 -29.9844 -13.1754 
-18.8057 -22.6852 -16.2753 -18.8057 -29.9844 -14.1526 -10.5669 -26.4449 -16.2753 
-10.5669 -29.9844 -15.2656 -2.32817 -27.0187 -16.2753 -2.32817 -29.9844 -15.2155 
5.9106 -23.3082 -16.2753 5.9106 -29.9844 -14.5344 14.1494 -23.0761 -16.2753 
14.1494 -29.9844 -14.3456 22.3881 -26.5615 -16.2753 22.3881 -29.9844 -15.0415 
30.6269 -26.1016 -16.2753 30.6269 -29.9844 -14.7617 38.8657 -24.2158 -16.2753 
38.8657 -29.9844 -13.5147 -43.522 -17.252 -16.2753 -43.522 -21.7456 -13.8261 
-35.2833 -21.2308 -16.2753 -35.2833 -21.7456 -16.0563 -26.9897 -21.7456 -16.2753 
-27.0445 -21.739 -16.2753 -27.0445 -21.7456 -16.2736 41.7184 -21.7456 -16.2753 
47.1045 -16.4835 -16.2753 47.1045 -21.7456 -13.9787 -47.5106 -13.5068 -16.2753 
-51.7608 -7.99185 -16.2753 -51.7608 -13.5068 -13.7402 48.6882 -13.5068 -16.2753 
55.3432 -13.5068 -9.36439 -52.9888 -5.26807 -16.2753 52.9942 -5.26807 -16.2753 
55.3432 -5.26807 -14.0132 -54.5766 2.97071 -16.2753 54.2208 2.97071 -16.2753 
55.3432 2.97071 -15.1586 -53.6435 11.2095 -16.2753 -51.7608 17.0614 -16.2753 
54.1617 11.2095 -16.2753 55.3432 11.2095 -14.9243 -50.8602 19.4482 -16.2753 
-51.7608 19.4482 -14.8813 52.1204 19.4482 -16.2753 55.3432 19.4482 -11.7373 
-45.2194 27.687 -16.2753 -43.522 29.8357 -16.2753 38.8657 34.5919 -16.2753 
48.254 27.687 -16.2753 47.1045 28.9241 -16.2753 -37.6558 35.9258 -16.2753 
-35.2833 37.4435 -16.2753 -27.0445 41.3832 -16.2753 -18.8057 43.1712 -16.2753 
14.1494 42.9055 -16.2753 22.3881 41.1283 -16.2753 36.5988 35.9258 -16.2753 
30.6269 38.4456 -16.2753 38.8657 35.9258 -11.4603 -11.5619 44.1646 -16.2753 
-10.5669 44.2806 -16.2753 -10.5669 44.1646 -14.9675 -2.32817 44.8233 -16.2753 
-2.32817 44.1646 -8.59556 7.23073 44.1646 -16.2753 5.9106 44.3794 -16.2753 
5.9106 44.1646 -12.2876 -10.5669 -39.261 -8.03649 -2.32817 -39.789 -8.03649 
5.9106 -40.2098 -8.03649 14.1494 -40.748 -8.03649 14.1494 -46.4619 -0.0964618 
22.3881 -40.9418 -8.03649 30.6269 -40.7543 -8.03649 -35.2833 -33.1201 -8.03649 
-27.0445 -36.0759 -8.03649 -27.0445 -38.2232 -3.94022 -18.6011 -38.2232 -8.03649 
-18.8057 -38.1899 -8.03649 -18.8057 -38.2232 -7.97922 35.3566 -38.2232 -8.03649 
38.8657 -35.8939 -8.03649 38.8657 -38.2232 -3.98072 -41.179 -29.9844 -8.03649 
-43.522 -28.5304 -8.03649 -43.522 -29.9844 -5.07228 46.045 -29.9844 -8.03649 
47.1045 -28.9726 -8.03649 47.1045 -29.9844 -5.66584 -51.451 -21.7456 -8.03649 
-51.7608 -21.3817 -8.03649 -51.7608 -21.7456 -7.48674 52.2353 -21.7456 -8.03649 
55.3432 -15.366 -8.03649 -56.4667 -13.5068 -8.03649 56.1538 -13.5068 -8.03649 
-59.2803 -5.26807 -8.03649 58.8058 -5.26807 -8.03649 -59.9338 2.97071 -8.03649 
59.6324 2.97071 -8.03649 -58.4509 11.2095 -8.03649 59.0441 11.2095 -8.03649 
-54.7539 19.4482 -8.03649 -51.7608 24.5216 -8.03649 57.0718 19.4482 -8.03649 
55.3432 22.3996 -8.03649 -49.6974 27.687 -8.03649 -43.522 34.2136 -8.03649 
51.5797 27.687 -8.03649 47.1045 32.0516 -8.03649 -41.1425 35.9258 -8.03649 
-35.2833 39.3226 -8.03649 -27.0445 42.5028 -8.03649 -18.8057 43.1783 -8.03649 
-10.5669 43.579 -8.03649 -2.32817 44.1189 -8.03649 5.9106 43.9463 -8.03649 
14.1494 42.7514 -8.03649 22.3881 41.3878 -8.03649 30.6269 39.5988 -8.03649 
40.2891 35.9258 -8.03649 38.8657 36.5989 -8.03649 38.8657 35.9258 -4.17077 
14.1494 -46.6151 0.202285 -27.0445 -39.8407 0.202285 -18.8057 -41.4741 0.202285 
-10.5669 -42.7942 0.202285 -2.32817 -44.189 0.202285 12.8568 -46.4619 0.202285 
5.9106 -45.5641 0.202285 15.5328 -46.4619 0.202285 14.1494 -46.4619 4.77106 
22.3881 -45.7187 0.202285 30.6269 -44.0519 0.202285 38.8657 -40.1167 0.202285 
-43.522 -31.9355 0.202285 -31.2693 -38.2232 0.202285 -35.2833 -36.5775 0.202285 
41.339 -38.2232 0.202285 38.8657 -38.2232 6.60059 47.1045 -32.2767 0.202285 
-45.9972 -29.9844 0.202285 -51.7608 -24.8841 0.202285 48.8627 -29.9844 0.202285 
47.1045 -29.9844 5.0498 -54.3556 -21.7456 0.202285 53.7237 -21.7456 0.202285 
55.3432 -17.4652 0.202285 -58.23 -13.5068 0.202285 56.706 -13.5068 0.202285 
55.3432 -13.5068 3.71891 -59.9352 -5.26807 0.202285 59.3493 -5.26807 0.202285 
-59.8423 2.97071 0.202285 59.8805 2.97071 0.202285 -58.5844 11.2095 0.202285 
59.1319 11.2095 0.202285 55.3432 11.2095 8.00159 -53.5451 19.4482 0.202285 
-51.7608 22.2705 0.202285 -51.7608 19.4482 3.11729 56.6685 19.4482 0.202285 
55.3432 21.7668 0.202285 55.3432 19.4482 2.79715 -47.4463 27.687 0.202285 
-43.522 31.4013 0.202285 -43.522 27.687 4.38063 38.8657 35.1523 0.202285 
50.7897 27.687 0.202285 47.1045 30.7847 0.202285 47.1045 27.687 5.38331 
-36.5736 35.9258 0.202285 -35.2833 36.5601 0.202285 -35.2833 35.9258 1.14718 
-27.0445 39.1017 0.202285 -27.0445 35.9258 4.66979 -18.8057 39.9494 0.202285 
-18.8057 35.9258 7.32098 -10.5669 40.7208 0.202285 -2.32817 41.7411 0.202285 
5.9106 41.7298 0.202285 14.1494 40.3754 0.202285 22.3881 38.9117 0.202285 
22.3881 35.9258 7.49519 36.4599 35.9258 0.202285 30.6269 37.6077 0.202285 
30.6269 35.9258 4.26342 -27.0445 -39.3645 8.44106 -18.8057 -41.2848 8.44106 
-10.5669 -43.1975 8.44106 -2.32817 -44.9192 8.44106 5.9106 -46.014 8.44106 
14.1494 -46.3282 8.44106 22.3881 -45.0995 8.44106 30.6269 -42.4689 8.44106 
-43.522 -31.7459 8.44106 -30.2192 -38.2232 8.44106 -35.2833 -36.3285 8.44106 
-27.0445 -38.2232 11.4872 -18.8057 -38.2232 16.5156 37.9264 -38.2232 8.44106 
30.6269 -38.2232 13.7446 38.8657 -37.456 8.44106 -45.6832 -29.9844 8.44106 
-51.7608 -23.6477 8.44106 -43.522 -29.9844 14.0086 45.5945 -29.9844 8.44106 
38.8657 -29.9844 14.8178 47.1045 -27.5887 8.44106 -53.2023 -21.7456 8.44106 
-51.7608 -21.7456 11.9726 50.1378 -21.7456 8.44106 47.1045 -21.7456 12.1618 
-57.1671 -13.5068 8.44106 53.3145 -13.5068 8.44106 47.1045 -13.5068 15.5595 
55.3432 -6.96089 8.44106 -58.1238 -5.26807 8.44106 47.1045 -5.26807 16.5875 
55.8383 -5.26807 8.44106 55.3432 -5.26807 9.07582 -57.0322 2.97071 8.44106 
-51.7608 2.97071 15.7859 47.1045 2.97071 16.2495 56.1522 2.97071 8.44106 
55.3432 9.27474 8.44106 55.3432 2.97071 9.38067 -53.7004 11.2095 8.44106 
-51.7608 14.223 8.44106 -51.7608 11.2095 11.008 -43.522 11.2095 16.3648 
55.058 11.2095 8.44106 47.1045 11.2095 14.9043 -47.5678 19.4482 8.44106 
-43.522 23.646 8.44106 -43.522 19.4482 11.5637 -35.2833 19.4482 14.7243 
-27.0445 19.4482 16.2338 51.8593 19.4482 8.44106 47.1045 25.2878 8.44106 
47.1045 19.4482 12.6983 -38.1614 27.687 8.44106 -35.2833 29.5824 8.44106 
-35.2833 27.687 10.015 -27.0445 32.6774 8.44106 -27.0445 27.687 12.3908 
-18.8057 35.1699 8.44106 -18.8057 27.687 14.7833 22.3881 35.5325 8.44106 
30.6269 33.7837 8.44106 30.6269 27.687 15.8673 44.3248 27.687 8.44106 
38.8657 30.9305 8.44106 38.8657 27.687 12.2425 -16.8685 35.9258 8.44106 
-10.5669 37.815 8.44106 -10.5669 35.9258 11.5094 -2.32817 39.597 8.44106 
-2.32817 35.9258 14.2454 5.9106 39.5875 8.44106 5.9106 35.9258 14.5258 
21.0999 35.9258 8.44106 14.1494 37.8691 8.44106 14.1494 35.9258 12.1254 
-10.5669 -40.3345 16.6798 -2.32817 -41.8352 16.6798 5.9106 -42.0328 16.6798 
14.1494 -40.7404 16.6798 22.3881 -38.7159 16.6798 -35.2833 -33.2869 16.6798 
-27.0445 -35.8982 16.6798 -18.5421 -38.2232 16.6798 -18.8057 -38.1448 16.6798 
[...]
POINT_DATA 524
SCALARS ImageScalars float
LOOKUP_TABLE default
0 0 0 0 0 0 0 0 0 
0 0 0 0 0 0 0 0 0 
0 0 0 0 0 0 0 0 0 
0 0 0 0 0 0 0 0 0 
0 0 0 0 0 0 0 0 0 
0 0 0 0 0 0 0 0 0 
0 0 0 0 0 0 0 0 0 
0 0 0 0 0 0 0 0 0 
0 0 0 0 0 0 0 0 0 
0 0 0 0 0 0 0 0 0 
0 0 0 0 0 0 0 0 0 
0 0 0 0 0 0 0 0 0 
0 0 0 0 0 0 0 0 0 
0 0 0 0 0 0 0 0 0 
0 0 0 0 0 0 0 0 0 
0 0 0 0 0 0 0 0 0 
0 0 0 0 0 0 0 0 0 
0 0 0 0 0 0 0 0 0 
0 0 0 0 0 0 0 0 0 
0 0 0 0 0 0 0 0 0 
0 0 0 0 0 0 0 0 0 
0 0 0 0 0 0 0 0 0 
0 0 0 0 0 0 0 0 0 
0 0 0 0 0 0 0 0 0 
0 0 0 0 0 0 0 0 0 
0 0 0 0 0 0 0 0 0 
0 0 0 0 0 0 0 0 0 
0 0 0 0 0 0 0 0 0 
0 0 0 0 0 0 0 0 0 
0 0 0 0 0 0 0 0 0 
0 0 0 0 0 0 0 0 0 
0 0 0 0 0 0 0 0 0 
0 0 0 0 0 0 0 0 0 
0 0 0 0 0 0 0 0 0 
0 0 0 0 0 0 0 0 0 
0 0 0 0 0 0 0 0 0 
0 0 0 0 0 0 0 0 0 
0 0 0 0 0 0 0 0 0 
0 0 0 0 0 0 0 0 0 
0 0 0 0 0 0 0 0 0 
0 0 0 0 0 0 0 0 0 
0 0 0 0 0 0 0 0 0 
0 0 0 0 0 0 0 0 0 
0 0 0 0 0 0 0 0 0 
0 0 0 0 0 0 0 0 0 
0 0 0 0 0 0 0 0 0 
0 0 0 0 0 0 0 0 0 
0 0 0 0 0 0 0 0 0 
0 0 0 0 0 0 0 0 0 
0 0 0 0 0 0 0 0 0 
0 0 0 0 0 0 0 0 0 
0 0 0 0 0 0 0 0 0 
0 0 0 0 0 0 0 0 0 
0 0 0 0 0 0 0 0 0 
0 0 0 0 0 0 0 0 0 
0 0 0 0 0 0 0 0 0 
0 0 0 0 0 0 0 0 0 
0 0 0 0 0 0 0 0 0 
0 0 
NORMALS Normals float
0.0383612 0.104365 0.993799 -0.090084 -0.0114379 0.995869 -0.0653623 -0.119222 0.990714 
0.0706715 0.189966 0.979244 0.0888489 0.193092 0.97715 -0.0416889 0.277305 0.959877 
-0.0829842 0.298238 0.950877 0.0685 0.281452 0.957127 0.0759151 0.270078 0.959841 
-0.0402023 0.315259 0.948154 -0.187978 0.317353 0.92949 0.259682 0.352198 0.899178 
0.00750431 0.307487 0.951523 -0.0953449 0.239713 0.966151 0.0168809 0.171727 0.985 
0.147244 0.194501 0.969788 0.0543333 0.0461933 0.997454 -0.0393338 0.218316 0.975085 
0.00794871 0.325161 0.945625 0.0536902 0.215834 0.974953 -0.000624474 0.217452 0.976071 
-0.149553 0.27293 0.950338 -0.43019 0.287779 0.85564 0.517309 0.227717 0.824946 
0.207064 0.19706 0.958275 0.00310141 0.193394 0.981116 -0.107445 0.216965 0.970248 
0.0197084 0.184834 0.982572 -0.0298226 0.173434 0.984394 -0.0224295 0.0653618 0.997609 
0.199627 0.170171 0.964982 0.0386218 0.165894 0.985387 -0.0203759 0.138302 0.99018 
0.0306189 0.139239 0.989785 -0.126579 0.152516 0.980162 -0.373706 0.162692 0.913168 
0.537264 0.0426887 0.842333 0.197579 0.064624 0.978155 0.00984207 0.0881832 0.996056 
-0.117375 0.111373 0.986823 -0.0268341 0.111863 0.993361 0.0449112 -0.0168815 0.998848 
0.0533449 0.200399 0.978261 0.0572219 0.152292 0.986678 -0.0177988 0.0567898 0.998227 
0.017487 0.109022 0.993886 0.0141066 0.110671 0.993757 -0.119746 0.0609999 0.990929 
-0.36945 0.0670887 0.926826 0.577564 -0.164095 0.799683 0.244232 -0.0708746 0.967123 
0.048175 -0.00803161 0.998807 -0.083954 0.0959482 0.99184 -0.109217 0.119757 0.986778 
0.0464375 0.0600123 0.997117 0.153823 0.0946255 0.983557 0.0540148 0.0555162 0.996996 
0.00301139 0.105461 0.994419 0.0371295 0.116233 0.992528 0.0342984 0.155656 0.987216 
-0.0797021 0.00688261 0.996795 -0.0159496 0.122429 0.992349 -0.164237 0.0501067 0.985147 
-0.402681 -0.00602757 0.91532 0.366325 -0.181882 0.912538 0.170698 -0.0575611 0.983641 
0.0249098 0.0212529 0.999464 -0.0607975 0.131068 0.989507 0.0172133 0.210834 0.97737 
0.0488862 0.127337 0.990654 0.0663068 0.0696907 0.995363 0.0546807 0.100105 0.993473 
0.079533 0.089918 0.992768 -0.10282 -0.0203451 0.994492 -0.103007 -0.0394404 0.993898 
-0.215965 -0.0897381 0.972269 -0.494355 -0.162297 0.853975 0.555991 -0.451488 0.697877 
0.263111 -0.217814 0.939856 0.100801 -0.137374 0.985377 0.0802116 -0.0171655 0.99663 
0.0483834 0.0568193 0.997211 0.0142897 0.0765167 0.996966 0.0201254 0.0329368 0.999255 
0.0240949 -0.0699963 0.997256 0.038396 -0.0625517 0.997303 -0.0998597 -0.149275 0.98374 
-0.0817707 -0.180931 0.980091 -0.204897 -0.259033 0.943885 -0.33097 -0.358997 0.872686 
-0.61299 -0.502997 0.609292 0.468899 -0.641581 0.607048 0.230486 -0.460813 0.857046 
0.14983 -0.354009 0.923162 0.113098 -0.289264 0.950545 0.0213389 -0.243536 0.969657 
-0.0841846 -0.293949 0.952107 -0.0969068 -0.423138 0.900868 -0.180346 -0.547523 0.817125 
-0.312889 -0.700838 0.641036 0.0935162 -0.957795 0.271814 0.00792593 -0.939889 0.341389 
-0.113674 -0.947998 0.297283 0.0735612 0.769382 0.634539 0.0293256 0.715593 0.697902 
0.0344594 0.640654 0.767056 0.0330339 0.60094 0.798611 -0.00139349 0.605719 0.795677 
-0.201036 0.64451 0.737693 0.303126 0.629822 0.715149 0.153309 0.517655 0.841742 
0.0752389 0.208778 0.975064 0.113484 0.406146 0.906734 0.071973 0.304502 0.949789 
0.0592863 0.405294 0.912262 -0.0461311 0.362057 0.931014 -0.0413073 0.420257 0.906464 
-0.0772469 0.304963 0.949226 -0.047995 0.353615 0.934159 0.0643159 0.282587 0.957083 
0.0268809 0.315103 0.948677 0.046733 0.3228 0.945313 0.0248077 0.374642 0.926838 
-0.0474176 0.366196 0.929329 -0.0686345 0.414434 0.907488 -0.213712 0.36595 0.905764 
-0.325511 0.535158 0.779518 0.288248 0.418903 0.861065 0.347628 0.533035 0.771381 
0.105546 0.393717 0.913152 0.114055 0.402766 0.908169 0.0260977 0.279845 0.95969 
0.025703 0.280401 0.959539 0.0258139 0.280447 0.959522 -0.283967 0.350809 0.892354 
-0.447921 0.335919 0.828568 -0.531737 0.447668 0.718922 0.386736 0.37455 0.842702 
0.525804 0.276922 0.804266 0.586034 0.412491 0.697435 -0.488622 0.303393 0.818047 
-0.855705 0.357967 0.373669 0.575942 0.217949 0.787902 -0.602318 0.194428 0.774216 
-0.757297 0.202575 0.620858 0.659226 0.0252699 0.75152 -0.665386 0.0382173 0.745521 
-0.741504 0.0321265 0.670179 0.684219 -0.182144 0.706164 0.700381 -0.292367 0.651144 
-0.691724 -0.0788814 0.717841 -0.773867 -0.0947861 0.626215 0.697655 -0.32899 0.63643 
0.763248 -0.36949 0.530027 -0.671618 -0.277607 0.686924 -0.84456 -0.367333 0.389596 
0.609221 -0.492645 0.621411 0.594101 -0.533751 0.601792 -0.469097 -0.757303 0.454357 
-0.661135 -0.51445 0.546115 -0.631797 -0.552775 0.54339 0.536046 -0.682578 0.496731 
0.488313 -0.731885 0.475285 0.30656 -0.84809 0.432162 0.155767 -0.925903 0.34415 
-0.183569 -0.926245 0.3292 -0.267183 -0.894686 0.35798 -0.43523 -0.796032 0.420604 
-0.337002 -0.843979 0.417287 -0.440473 -0.88295 0.16243 0.0991495 -0.959645 0.263156 
0.0928954 -0.96181 0.257473 0.0887531 -0.978471 0.186326 0.00612547 -0.966749 0.255652 
0.0224021 -0.986583 -0.161716 -0.124139 -0.953939 0.273113 -0.112128 -0.956028 0.270993 
-0.10265 -0.992944 0.0593792 0.0835003 0.806661 0.585086 0.0478207 0.768046 0.638606 
0.0448914 0.708647 0.704133 0.034101 0.688895 0.724058 0.00568898 0.966106 0.258081 
-0.000836072 0.709606 0.704598 -0.212114 0.758718 0.615918 0.350103 0.741331 0.572588 
0.232749 0.762609 0.603536 0.27027 0.893121 0.359569 0.155174 0.810286 0.565117 
0.157021 0.809866 0.565209 0.157324 0.812343 0.561558 -0.377397 0.698937 0.607502 
-0.473315 0.672257 0.569248 -0.544267 0.776128 0.318431 0.461954 0.704582 0.538667 
0.494358 0.696793 0.519702 0.544273 0.74892 0.378001 -0.619403 0.620424 0.481054 
-0.651361 0.605492 0.457283 -0.714395 0.618876 0.326545 0.658134 0.588096 0.470109 
0.668566 0.580203 0.465171 0.676509 0.58962 0.441229 -0.795726 0.472885 0.378417 
-0.871861 0.375362 0.314583 0.819522 0.419778 0.390091 -0.885617 0.352972 0.301818 
0.938628 0.175282 0.297074 -0.938347 0.197211 0.283922 0.973568 -0.0488002 0.223123 
-0.962665 0.0138809 0.270339 0.934761 -0.285376 0.21162 -0.959626 -0.14738 0.239577 
0.880812 -0.457557 0.121704 0.839514 -0.534327 0.098539 -0.905578 -0.382703 0.182941 
-0.863727 -0.470339 0.180988 0.797378 -0.597296 0.0861746 0.632909 -0.773993 0.0190077 
-0.75303 -0.645315 0.128504 -0.638059 -0.765369 0.0842054 0.559945 -0.828459 -0.0108403 
0.418879 -0.906412 -0.0543887 0.214203 -0.970522 -0.110477 0.063113 -0.983227 -0.17112 
0.0602756 -0.976104 -0.208777 0.0233765 -0.981647 -0.189271 -0.0870979 -0.983072 -0.161196 
-0.163167 -0.975038 -0.15059 -0.206907 -0.970115 -0.12675 -0.259984 -0.964013 -0.0555624 
-0.434729 -0.900304 0.0215369 -0.397521 -0.917565 0.00721674 -0.374706 -0.918468 -0.12654 
0.00394707 0.970312 0.241824 0.28099 0.948488 0.146338 0.174325 0.971981 0.157683 
0.158223 0.965529 0.206687 0.159399 0.951916 0.261627 0.025478 0.96892 0.246058 
0.138146 0.952127 0.272708 -0.0216039 0.973224 0.228843 -0.0245944 0.999065 -0.0355471 
-0.14206 0.97576 0.166467 -0.304523 0.948834 0.0835427 -0.552981 0.831356 0.0553109 
0.571834 0.808487 0.13912 0.351831 0.925254 0.141844 0.417264 0.897882 0.140354 
-0.614171 0.788076 0.0416024 -0.595675 0.737967 -0.317138 -0.79292 0.608871 -0.0235281 
0.627274 0.767147 0.134211 0.756689 0.646914 0.094471 -0.82869 0.558798 -0.0318933 
-0.782437 0.554055 -0.284282 0.820285 0.567504 0.0712245 -0.899767 0.423319 -0.105928 
-0.922092 0.365358 -0.127515 0.942987 0.331657 0.0279085 -0.937543 0.317956 -0.141124 
-0.904414 0.309865 -0.29329 0.993214 0.0933688 -0.0693415 -0.972222 0.176567 -0.153652 
0.98485 -0.0666242 -0.160101 -0.984816 -0.0112692 -0.173235 0.914222 -0.332711 -0.231303 
-0.96561 -0.173761 -0.193402 -0.786663 -0.195181 -0.585718 0.811435 -0.499194 -0.303938 
0.779607 -0.535576 -0.32461 0.753714 -0.504144 -0.42161 -0.879791 -0.407387 -0.244956 
-0.845351 -0.477303 -0.239924 -0.847917 -0.401725 -0.345911 0.666323 -0.633966 -0.392556 
0.568426 -0.706162 -0.42217 0.535437 -0.627176 -0.565648 -0.336195 -0.896465 -0.288658 
-0.681271 -0.687662 -0.250982 -0.583947 -0.76064 -0.283607 -0.566514 -0.678737 -0.467309 
0.370721 -0.814692 -0.445918 0.339076 -0.826375 -0.44959 0.336448 -0.810497 -0.479475 
0.181469 -0.862214 -0.472923 0.211258 -0.772555 -0.598773 0.0852964 -0.896815 -0.434106 
0.225415 -0.805117 -0.548612 0.100592 -0.934718 -0.340857 0.0559801 -0.96067 -0.27199 
-0.0763382 -0.961982 -0.262229 -0.159809 -0.943137 -0.291469 -0.163552 -0.92869 -0.332845 
-0.210519 -0.888685 -0.407333 -0.290626 -0.909333 -0.297741 -0.202128 -0.927921 -0.31322 
-0.214751 -0.885968 -0.411027 0.281873 0.938626 -0.198818 0.224686 0.959143 -0.171935 
0.213781 0.968955 -0.124193 0.167122 0.979684 -0.11086 0.0838425 0.983791 -0.158511 
-0.0471524 0.964482 -0.259906 -0.206107 0.930423 -0.303038 -0.376983 0.841022 -0.388029 
0.583859 0.798819 -0.144906 0.328772 0.928028 -0.175138 0.405481 0.902401 -0.145797 
0.26318 0.912138 -0.314232 0.226923 0.830537 -0.50864 -0.567593 0.705249 -0.424807 
-0.367559 0.672505 -0.642369 -0.590267 0.681551 -0.432519 0.634976 0.757814 -0.150081 
0.784722 0.576545 -0.227612 0.573565 0.738338 -0.354796 -0.704591 0.528199 -0.473874 
-0.535424 0.467668 -0.703284 -0.741453 0.477979 -0.470939 0.815617 0.527868 -0.236906 
0.785062 0.512764 -0.347492 -0.789694 0.364149 -0.493741 -0.718175 0.341587 -0.606253 
0.923275 0.275896 -0.267292 -0.813078 0.27639 -0.51236 -0.627547 0.18439 -0.756429 
-0.823071 0.170568 -0.541721 0.933456 -0.00712586 -0.358621 -0.538892 0.0266297 -0.841954 
-0.823344 0.142307 -0.549411 -0.809553 0.138007 -0.570594 0.867091 -0.224347 -0.444771 
0.649405 -0.279969 -0.707029 -0.4763 -0.0872647 -0.874942 -0.812542 -0.0359043 -0.581796 
-0.782736 -0.158281 -0.60189 -0.791248 -0.041622 -0.610077 0.730924 -0.428088 -0.531498 
0.687508 -0.470284 -0.553323 0.661117 -0.456587 -0.595359 0.335492 -0.475655 -0.81314 
-0.767679 -0.194994 -0.610448 -0.483446 -0.176055 -0.857488 0.57218 -0.511881 -0.640771 
0.480972 -0.556541 -0.677442 0.444914 -0.511871 -0.734874 0.232771 -0.44504 -0.86473 
0.140053 -0.354662 -0.924446 -0.699152 -0.397849 -0.594057 -0.554916 -0.581391 -0.595024 
-0.516844 -0.373063 -0.770517 0.388671 -0.590579 -0.707214 0.33412 -0.618705 -0.711033 
0.331705 -0.572706 -0.749653 0.241246 -0.666471 -0.705419 0.240773 -0.51958 -0.819795 
0.2477 -0.774578 -0.581956 0.262417 -0.426147 -0.865758 -0.220614 -0.879725 -0.421205 
-0.240866 -0.820406 -0.518572 -0.283893 -0.565902 -0.774054 -0.484953 -0.658053 -0.57601 
-0.360483 -0.751226 -0.552911 -0.383866 -0.614602 -0.689138 0.246526 -0.807224 -0.536298 
0.239362 -0.870029 -0.430994 0.265245 -0.778361 -0.569034 0.103401 -0.918202 -0.382379 
0.117468 -0.725724 -0.677883 -0.100701 -0.925471 -0.365189 -0.068905 -0.748375 -0.659687 
-0.220558 -0.885707 -0.408506 -0.222851 -0.905173 -0.361938 -0.21493 -0.837747 -0.501982 
0.193268 0.82075 -0.537603 0.0929614 0.813762 -0.573716 -0.0475767 0.760593 -0.647483 
-0.146907 0.680823 -0.717564 -0.226223 0.598909 -0.7682 0.350469 0.788952 -0.504704 
0.225334 0.811173 -0.539651 0.225389 0.825893 -0.516818 0.226014 0.825674 -0.516895 
0.168449 0.736412 -0.655227 0.0481912 0.65559 -0.753578 -0.0769089 0.596299 -0.79907 
-0.163239 0.57589 -0.801064 -0.243484 0.589941 -0.769861 -0.226619 0.582381 -0.78069 
-0.341475 0.524155 -0.780165 0.50425 0.717491 -0.48056 0.563955 0.672551 -0.479197 
0.304743 0.672977 -0.673968 0.17965 0.594941 -0.783435 0.101304 0.450466 -0.887027 
0.0537215 0.357203 -0.932481 -0.120269 0.308163 -0.9437 -0.159459 0.31675 -0.935009 
-0.191676 0.363184 -0.911788 -0.45122 0.436708 -0.778259 -0.314185 0.395666 -0.862981 
-0.501004 0.378443 -0.778316 0.713286 0.4674 -0.522265 0.779024 0.297304 -0.552025 
0.518911 0.397255 -0.756915 -0.168645 0.203127 -0.96452 -0.275125 0.20926 -0.938358 
-0.547934 0.291516 -0.784083 -0.465232 0.267051 -0.843945 0.798994 0.18544 -0.572032 
0.757905 0.170706 -0.629634 0.382775 0.0932619 -0.919122 -0.186023 -0.0520884 -0.981164 
-0.241468 -0.00809866 -0.970375 -0.576793 0.159653 -0.801137 -0.401137 0.0921767 -0.911368 
0.748947 -0.0927713 -0.656103 0.66337 -0.221481 -0.714764 0.700086 -0.111594 -0.705285 
0.355979 -0.207011 -0.911277 -0.171563 -0.24756 -0.953562 -0.153108 -0.257384 -0.954102 
-0.13737 -0.142997 -0.980144 -0.533229 0.0242301 -0.845624 -0.292199 -0.0629477 -0.954284 
0.59613 -0.295609 -0.746488 0.333091 -0.469591 -0.81764 0.352185 -0.376924 -0.856677 
0.131866 -0.38597 -0.913038 0.0438824 -0.415003 -0.908761 0.150512 -0.393943 -0.906727 
-0.149609 -0.328497 -0.932581 -0.115348 -0.208283 -0.971243 -0.170127 -0.1193 -0.978174 
-0.0836446 -0.138472 -0.986828 -0.062099 -0.13498 -0.9889 -0.442907 -0.0948926 -0.891532 
-0.236952 -0.141718 -0.961129 0.310288 -0.473349 -0.824416 0.188575 -0.442569 -0.876682 
0.141614 -0.454047 -0.879652 0.1257 -0.356658 -0.92574 0.043596 -0.391831 -0.919004 
0.138675 -0.361216 -0.922113 0.0562788 -0.411806 -0.909532 0.0163479 -0.312467 -0.949788 
0.111928 -0.165385 -0.979857 -0.0907569 0.0031385 -0.995868 -0.16737 0.0500563 -0.984623 
-0.15088 -0.0869828 -0.984718 -0.356232 -0.159632 -0.920661 -0.263313 -0.155271 -0.952133 
0.152893 -0.318486 -0.935516 0.19669 -0.299727 -0.933529 0.172151 -0.265818 -0.948528 
0.0970036 -0.239758 -0.965974 0.0823888 -0.107239 -0.990814 0.194524 -0.160515 -0.967675 
0.0382734 -0.164859 -0.985574 -0.180179 -0.121129 -0.976147 -0.284614 -0.485278 -0.826741 
-0.268392 -0.194759 -0.943417 -0.332332 -0.267967 -0.904295 -0.331308 -0.272161 -0.903418 
-0.329886 -0.266567 -0.905603 0.237231 -0.350625 -0.905971 0.238168 -0.380132 -0.893743 
0.226468 -0.332671 -0.915446 0.125518 -0.466678 -0.875475 0.119587 -0.201438 -0.972174 
-0.0213739 -0.554289 -0.832049 0.0613836 -0.269055 -0.961167 -0.138549 -0.625228 -0.768045 
-0.0576732 -0.430294 -0.900845 -0.264137 -0.54773 -0.793866 -0.219795 -0.618501 -0.754418 
-0.202272 -0.525372 -0.826481 -0.0183784 0.315073 -0.94889 0.244004 0.35439 -0.902701 
0.100713 0.397028 -0.912264 0.0586784 0.349546 -0.93508 -0.0170015 0.315348 -0.948824 
0.0433739 0.316966 -0.947445 -0.0195851 0.314481 -0.949062 -0.0184581 0.314531 -0.949068 
-0.112125 0.255085 -0.960395 -0.126207 0.20299 -0.971013 0.289447 0.319223 -0.902395 
0.239633 0.304324 -0.921934 0.0499259 0.252712 -0.966253 -0.00833345 0.2012 -0.979515 
0.00104989 0.161948 -0.986799 -0.0269042 0.151722 -0.988057 -0.0946892 0.175789 -0.979863 
-0.128002 0.19925 -0.971553 -0.124575 0.198799 -0.97209 0.355283 0.0822668 -0.931132 
0.169722 -0.00114784 -0.985491 0.0477713 -0.00677254 -0.998835 -0.0166158 -0.0015156 -0.999861 
-0.00587844 0.0352793 -0.99936 -0.00771728 -0.00651034 -0.999949 -0.0741552 -0.00944673 -0.997202 
-0.183817 -0.0504773 -0.981663 -0.168193 -0.217091 -0.961552 -0.138501 -0.0131944 -0.990274 
0.234693 -0.211161 -0.948857 0.135913 -0.258171 -0.956491 0.140597 -0.20832 -0.967903 
0.0495188 -0.333939 -0.941293 0.0505505 -0.247201 -0.967645 0.105087 -0.324651 -0.939978 
0.0339829 -0.213144 -0.97643 -0.00517507 -0.0881383 -0.996095 -0.129911 -0.286816 -0.949136 
-0.074812 -0.190168 -0.978897 -0.159982 -0.245162 -0.956191 -0.108716 -0.226389 -0.967951 
-0.101401 -0.236705 -0.966276 0.0801022 -0.332509 -0.939692 -0.0749215 -0.308555 -0.948251 
0.0343685 -0.320977 -0.946463 0.0239626 -0.277461 -0.960438 
