# vtk DataFile Version 4.2
vtk output
ASCII
DATASET POLYDATA
POINTS 546 float
-20.0627 -26.3539 -18.8995 -27.7696 -18.6469 -18.7665 -27.7696 -41.7677 -11.9148 
-20.0627 -41.7677 -14.2823 -12.3558 -41.7677 -15.1786 -4.64884 -41.7677 -14.2732 
3.05808 -41.7677 -12.4233 -35.4765 -34.0608 -14.2013 -27.7696 -34.0608 -16.5425 
-20.0627 -27.6165 -18.6631 -20.0627 -34.0608 -17.4022 -12.3558 -34.0608 -17.4443 
-4.64884 -34.0608 -16.543 3.05808 -34.0608 -15.5683 10.765 -34.0608 -14.8192 
18.4719 -34.0608 -14.4724 26.1788 -34.0608 -13.6219 33.8858 -34.0608 -11.4623 
-43.1834 -26.3539 -14.5616 -35.4765 -26.3539 -17.5459 -22.6294 -26.3539 -18.6631 
-27.7696 -19.9372 -18.6631 -27.7696 -26.3539 -18.1351 -18.235 -26.3539 -18.6631 
-20.0627 -21.8672 -18.6631 -12.3558 -26.3539 -17.8345 -4.64884 -26.3539 -17.0269 
3.05808 -26.3539 -15.9869 10.765 -26.3539 -15.917 18.4719 -26.3539 -16.3704 
26.1788 -26.3539 -16.1364 33.8858 -26.3539 -15.2569 41.5927 -26.3539 -14.2363 
49.2996 -26.3539 -11.7632 -50.8904 -18.6469 -12.3252 -43.1834 -18.6469 -16.784 
-29.3926 -18.6469 -18.6631 -35.4765 -18.6469 -18.2689 -24.9997 -18.6469 -18.6631 
-27.7696 -15.327 -18.6631 -20.0627 -18.6469 -18.4787 -12.3558 -18.6469 -17.3583 
-4.64884 -18.6469 -16.0586 3.05808 -18.6469 -15.2806 10.765 -18.6469 -15.935 
18.4719 -18.6469 -16.7871 26.1788 -18.6469 -17.2499 33.8858 -18.6469 -16.9935 
41.5927 -18.6469 -15.7358 49.2996 -18.6469 -14.1066 -50.8904 -10.94 -14.6766 
-43.1834 -10.94 -17.5987 -35.4765 -10.94 -18.5737 -27.7696 -10.94 -18.5262 
-20.0627 -10.94 -17.8131 -12.3558 -10.94 -16.9473 -4.64884 -10.94 -16.3455 
3.05808 -10.94 -15.2694 10.765 -10.94 -16.2654 18.4719 -10.94 -16.3917 
26.1788 -10.94 -16.7686 33.8858 -10.94 -17.1595 41.5927 -10.94 -16.7281 
49.2996 -10.94 -16.1825 57.0065 -10.94 -12.4012 -50.8904 -3.2331 -14.1623 
-43.1834 -3.2331 -17.1208 -35.4765 -3.2331 -18.0778 -27.7696 -3.2331 -17.8673 
-20.0627 -3.2331 -16.9088 -12.3558 -3.2331 -17.1138 -4.64884 -3.2331 -17.2633 
3.05808 -3.2331 -15.1842 10.765 -3.2331 -17.3484 18.4719 -3.2331 -15.3365 
26.1788 -3.2331 -16.2604 33.8858 -3.2331 -16.8763 41.5927 -3.2331 -16.923 
49.2996 -3.2331 -15.4214 57.0065 -3.2331 -12.9461 -50.8904 4.47382 -12.6564 
-43.1834 4.47382 -15.9641 -35.4765 4.47382 -17.0936 -27.7696 4.47382 -16.9503 
-20.0627 4.47382 -16.0373 -12.3558 4.47382 -16.6216 -4.64884 4.47382 -18.5469 
3.05808 4.47382 -16.02 10.765 4.47382 -16.6634 18.4719 4.47382 -15.0831 
26.1788 4.47382 -15.9713 33.8858 4.47382 -16.5979 41.5927 4.47382 -16.7108 
49.2996 4.47382 -15.0093 57.0065 4.47382 -11.9467 -50.8904 12.1807 -12.1584 
-43.1834 12.1807 -14.6609 -35.4765 12.1807 -15.9797 -27.7696 12.1807 -15.9049 
-20.0627 12.1807 -15.3213 -12.3558 12.1807 -14.4844 -4.64884 12.1807 -16.0247 
3.05808 12.1807 -17.2738 10.765 12.1807 -17.0812 18.4719 12.1807 -16.0347 
26.1788 12.1807 -16.1276 33.8858 12.1807 -16.2829 41.5927 12.1807 -15.3605 
49.2996 12.1807 -13.5512 -43.1834 19.8877 -12.0962 -35.4765 19.8877 -14.0601 
-27.7696 19.8877 -15.092 -20.0627 19.8877 -15.1097 -12.3558 19.8877 -15.1479 
-4.64884 19.8877 -15.132 3.05808 19.8877 -15.8297 10.765 19.8877 -16.3978 
18.4719 19.8877 -16.2284 26.1788 19.8877 -16.0088 33.8858 19.8877 -15.7868 
41.5927 19.8877 -14.3033 49.2996 19.8877 -12.4159 -35.4765 27.5946 -12.1168 
-27.7696 27.5946 -13.5866 -20.0627 27.5946 -15.001 -12.3558 27.5946 -15.6401 
-4.64884 27.5946 -15.6901 3.05808 27.5946 -15.6526 10.765 27.5946 -15.7948 
18.4719 27.5946 -15.1176 26.1788 27.5946 -14.5159 33.8858 27.5946 -13.7029 
-27.7696 35.3015 -11.7793 -20.0627 35.3015 -13.6903 -12.3558 35.3015 -15.2684 
-4.64884 35.3015 -15.1014 3.05808 35.3015 -14.7605 10.765 35.3015 -14.0195 
18.4719 35.3015 -13.1788 26.1788 35.3015 -11.0079 -12.3558 43.0084 -12.172 
-4.64884 43.0084 -12.3852 3.05808 43.0084 -11.7731 -27.7696 -42.5757 -10.9561 
-20.0627 -45.7607 -10.9561 -12.3558 -46.9131 -10.9561 -12.3558 -49.4746 -3.27229 
-4.64884 -45.8359 -10.9561 3.05808 -43.5058 -10.9561 -29.4643 -41.7677 -10.9561 
-35.4765 -38.4181 -10.9561 9.96466 -41.7677 -10.9561 10.765 -41.4779 -10.9561 
10.765 -41.7677 -10.7035 18.4719 -39.1688 -10.9561 18.4719 -41.7677 -8.04141 
26.1788 -37.9371 -10.9561 26.1788 -41.7677 -4.70901 33.8858 -34.6183 -10.9561 
-41.9978 -34.0608 -10.9561 -43.1834 -33.0051 -10.9561 -43.1834 -34.0608 -9.03614 
35.6965 -34.0608 -10.9561 41.5927 -31.4741 -10.9561 41.5927 -34.0608 -7.95151 
49.2996 -27.3623 -10.9561 -49.071 -26.3539 -10.9561 -50.8904 -22.4089 -10.9561 
-50.8904 -26.3539 -7.48537 50.4213 -26.3539 -10.9561 -52.1975 -18.6469 -10.9561 
55.3586 -18.6469 -10.9561 57.0065 -16.1811 -10.9561 57.0065 -18.6469 -9.59576 
-54.3791 -10.94 -10.9561 58.7722 -10.94 -10.9561 -54.3893 -3.2331 -10.9561 
-58.5973 -3.2331 -3.82468 59.4255 -3.2331 -10.9561 -52.8903 4.47382 -10.9561 
58.1249 4.47382 -10.9561 57.0065 7.58378 -10.9561 -52.393 12.1807 -10.9561 
-50.8904 15.4615 -10.9561 53.8985 12.1807 -10.9561 57.0065 12.1807 -7.80921 
-46.0366 19.8877 -10.9561 -50.8904 19.8877 -8.19301 -43.1834 24.5727 -10.9561 
41.5927 26.8913 -10.9561 51.3743 19.8877 -10.9561 49.2996 22.5736 -10.9561 
-40.1868 27.5946 -10.9561 -43.1834 27.5946 -9.79274 -35.4765 30.8858 -10.9561 
40.7392 27.5946 -10.9561 33.8858 33.3901 -10.9561 41.5927 27.5946 -10.457 
49.2996 27.5946 -5.08082 -30.4148 35.3015 -10.9561 -35.4765 35.3015 -8.75389 
-27.7696 36.9541 -10.9561 -20.0627 41.3032 -10.9561 10.765 42.2975 -10.9561 
18.4719 40.1589 -10.9561 26.4946 35.3015 -10.9561 26.1788 35.3776 -10.9561 
33.8858 35.3015 -9.4687 41.5927 35.3015 -4.06997 -27.7696 43.0084 -6.58668 
-16.7119 43.0084 -10.9561 -20.0627 43.0084 -9.88889 -12.3558 44.4895 -10.9561 
-4.64884 45.1455 -10.9561 8.6145 43.0084 -10.9561 3.05808 44.2566 -10.9561 
10.765 43.0084 -10.5675 18.4719 43.0084 -8.95148 26.1788 43.0084 -4.09039 
-4.64884 50.7153 -3.90898 3.05808 50.7153 -3.73887 -12.3558 -49.4804 -3.24921 
-27.7696 -45.6003 -3.24921 -12.4023 -49.4746 -3.24921 -20.0627 -48.4648 -3.24921 
-12.2797 -49.4746 -3.24921 -12.3558 -49.4746 -3.21309 -4.64884 -48.8919 -3.24921 
3.05808 -47.5397 -3.24921 10.765 -46.2627 -3.24921 18.4719 -44.4555 -3.24921 
26.1788 -42.3821 -3.24921 -43.1834 -36.0352 -3.24921 -34.7172 -41.7677 -3.24921 
-35.4765 -41.3351 -3.24921 27.9503 -41.7677 -3.24921 26.1788 -41.7677 3.16438 
33.8858 -39.6034 -3.24921 41.5927 -35.9864 -3.24921 -45.6351 -34.0608 -3.24921 
-50.8904 -28.4262 -3.24921 -43.1834 -34.0608 3.87219 44.8672 -34.0608 -3.24921 
49.2996 -31.0462 -3.24921 -52.3552 -26.3539 -3.24921 -50.8904 -26.3539 2.56343 
54.7917 -26.3539 -3.24921 57.0065 -23.8048 -3.24921 -56.1248 -18.6469 -3.24921 
60.6103 -18.6469 -3.24921 -58.121 -10.94 -3.24921 -58.5973 -5.63084 -3.24921 
62.7238 -10.94 -3.24921 -58.8259 -3.2331 -3.24921 -58.5973 0.0328715 -3.24921 
-58.5973 -3.2331 -1.66833 63.0585 -3.2331 -3.24921 -58.2532 4.47382 -3.24921 
61.9569 4.47382 -3.24921 -56.8972 12.1807 -3.24921 59.2564 12.1807 -3.24921 
57.0065 17.3084 -3.24921 57.0065 12.1807 4.06873 -54.0505 19.8877 -3.24921 
-50.8904 24.9497 -3.24921 55.7514 19.8877 -3.24921 -48.5415 27.5946 -3.24921 
-43.1834 33.5101 -3.24921 50.396 27.5946 -3.24921 49.2996 28.7756 -3.24921 
-41.3013 35.3015 -3.24921 -35.4765 39.9876 -3.24921 33.8858 40.023 -3.24921 
42.2116 35.3015 -3.24921 41.5927 35.7538 -3.24921 -31.4362 43.0084 -3.24921 
-27.7696 45.1604 -3.24921 -20.0627 48.2952 -3.24921 -12.3558 50.292 -3.24921 
10.765 49.5565 -3.24921 18.4719 47.0243 -3.24921 27.4552 43.0084 -3.24921 
26.1788 43.5689 -3.24921 -8.19431 50.7153 -3.24921 -4.64884 51.0444 -3.24921 
4.70713 50.7153 -3.24921 3.05808 50.9937 -3.24921 -27.7696 -43.3864 4.45771 
-20.0627 -46.4669 4.45771 -12.3558 -48.0584 4.45771 -4.64884 -48.1147 4.45771 
3.05808 -47.2577 4.45771 10.765 -45.8924 4.45771 18.4719 -44.1371 4.45771 
-30.8549 -41.7677 4.45771 -35.4765 -39.0653 4.45771 -27.7696 -41.7677 6.69991 
-20.0627 -41.7677 10.4626 10.765 -41.7677 11.1922 25.7954 -41.7677 4.45771 
18.4719 -41.7677 8.31817 26.1788 -41.6219 4.45771 33.8858 -37.6006 4.45771 
41.5927 -34.5536 4.45771 -42.93 -34.0608 4.45771 -43.1834 -33.8503 4.45771 
-35.4765 -34.0608 9.9822 33.8858 -34.0608 8.05166 42.3878 -34.0608 4.45771 
41.5927 -34.0608 5.13392 49.2996 -28.5601 4.45771 -50.2686 -26.3539 4.45771 
-50.8904 -25.3037 4.45771 -43.1834 -26.3539 10.6606 41.5927 -26.3539 10.1611 
51.8941 -26.3539 4.45771 49.2996 -26.3539 6.91657 57.0065 -21.1537 4.45771 
-54.0152 -18.6469 4.45771 -50.8904 -18.6469 8.92507 49.2996 -18.6469 10.4582 
58.6551 -18.6469 4.45771 57.0065 -18.6469 6.40118 -56.9538 -10.94 4.45771 
-50.8904 -10.94 10.9189 49.2996 -10.94 11.8101 60.7689 -10.94 4.45771 
57.0065 -10.94 8.353 -57.5302 -3.2331 4.45771 -50.8904 -3.2331 11.8771 
49.2996 -3.2331 11.7086 60.8906 -3.2331 4.45771 57.0065 -3.2331 8.44596 
-57.693 4.47382 4.45771 49.2996 4.47382 11.142 59.8331 4.47382 4.45771 
57.0065 11.873 4.45771 57.0065 4.47382 7.43156 -57.375 12.1807 4.45771 
-50.8904 12.1807 12.097 56.8169 12.1807 4.45771 49.2996 12.1807 9.58814 
-54.4162 19.8877 4.45771 -50.8904 26.3863 4.45771 -50.8904 19.8877 9.47397 
53.0607 19.8877 4.45771 49.2996 19.8877 8.41433 -50.0711 27.5946 4.45771 
-43.1834 35.2985 4.45771 41.5927 27.5946 9.69629 49.6561 27.5946 4.45771 
49.2996 28.0308 4.45771 49.2996 27.5946 4.86367 -43.18 35.3015 4.45771 
-35.4765 40.9991 4.45771 -35.4765 35.3015 11.6518 33.8858 40.0658 4.45771 
33.8858 35.3015 9.40203 41.9562 35.3015 4.45771 41.5927 35.594 4.45771 
41.5927 35.3015 4.88173 -32.4327 43.0084 4.45771 -27.7696 45.5709 4.45771 
-27.7696 43.0084 8.09323 -20.0627 48.1791 4.45771 -20.0627 43.0084 10.8534 
-12.3558 50.1173 4.45771 10.765 50.5519 4.45771 18.4719 47.8212 4.45771 
18.4719 43.0084 10.9984 29.0397 43.0084 4.45771 26.1788 44.4283 4.45771 
26.1788 43.0084 7.35155 -9.20442 50.7153 4.45771 -4.64884 51.4681 4.45771 
-4.64884 50.7153 5.81627 9.78574 50.7153 4.45771 3.05808 51.7535 4.45771 
3.05808 50.7153 6.35814 -12.3558 -42.3932 12.1646 -4.64884 -43.0427 12.1646 
3.05808 -42.6204 12.1646 -27.7696 -36.2243 12.1646 -14.609 -41.7677 12.1646 
[...]
POINT_DATA 546
SCALARS ImageScalars float
LOOKUP_TABLE default
0 0 0 0 0 0 0 0 0 
0 0 0 0 0 0 0 0 0 
0 0 0 0 0 0 0 0 0 
0 0 0 0 0 0 0 0 0 
0 0 0 0 0 0 0 0 0 
0 0 0 0 0 0 0 0 0 
0 0 0 0 0 0 0 0 0 
0 0 0 0 0 0 0 0 0 
0 0 0 0 0 0 0 0 0 
0 0 0 0 0 0 0 0 0 
0 0 0 0 0 0 0 0 0 
0 0 0 0 0 0 0 0 0 
0 0 0 0 0 0 0 0 0 
0 0 0 0 0 0 0 0 0 
0 0 0 0 0 0 0 0 0 
0 0 0 0 0 0 0 0 0 
0 0 0 0 0 0 0 0 0 
0 0 0 0 0 0 0 0 0 
0 0 0 0 0 0 0 0 0 
0 0 0 0 0 0 0 0 0 
0 0 0 0 0 0 0 0 0 
0 0 0 0 0 0 0 0 0 
0 0 0 0 0 0 0 0 0 
0 0 0 0 0 0 0 0 0 
0 0 0 0 0 0 0 0 0 
0 0 0 0 0 0 0 0 0 
0 0 0 0 0 0 0 0 0 
0 0 0 0 0 0 0 0 0 
0 0 0 0 0 0 0 0 0 
0 0 0 0 0 0 0 0 0 
0 0 0 0 0 0 0 0 0 
0 0 0 0 0 0 0 0 0 
0 0 0 0 0 0 0 0 0 
0 0 0 0 0 0 0 0 0 
0 0 0 0 0 0 0 0 0 
0 0 0 0 0 0 0 0 0 
0 0 0 0 0 0 0 0 0 
0 0 0 0 0 0 0 0 0 
0 0 0 0 0 0 0 0 0 
0 0 0 0 0 0 0 0 0 
0 0 0 0 0 0 0 0 0 
0 0 0 0 0 0 0 0 0 
0 0 0 0 0 0 0 0 0 
0 0 0 0 0 0 0 0 0 
0 0 0 0 0 0 0 0 0 
0 0 0 0 0 0 0 0 0 
0 0 0 0 0 0 0 0 0 
0 0 0 0 0 0 0 0 0 
0 0 0 0 0 0 0 0 0 
0 0 0 0 0 0 0 0 0 
0 0 0 0 0 0 0 0 0 
0 0 0 0 0 0 0 0 0 
0 0 0 0 0 0 0 0 0 
0 0 0 0 0 0 0 0 0 
0 0 0 0 0 0 0 0 0 
0 0 0 0 0 0 0 0 0 
0 0 0 0 0 0 0 0 0 
0 0 0 0 0 0 0 0 0 
0 0 0 0 0 0 0 0 0 
0 0 0 0 0 0 0 0 0 
0 0 0 0 0 0 
NORMALS Normals float
-0.0199563 0.0703771 0.997321 0.0130799 0.024332 0.999618 0.351681 0.710394 0.60964 
0.161667 0.567622 0.80726 -0.0031884 0.484728 0.874659 -0.17184 0.494086 0.852262 
-0.207677 0.583638 0.785008 0.337836 0.497179 0.799174 0.204717 0.31493 0.926774 
-0.0093996 0.101236 0.994818 0.0497714 0.262751 0.963579 -0.0543581 0.161778 0.985329 
-0.125525 0.168207 0.977727 -0.107278 0.202758 0.973335 -0.0702112 0.28592 0.955678 
-0.0775257 0.396385 0.914805 -0.154557 0.475955 0.865782 -0.260864 0.615758 0.7435 
0.428499 0.345284 0.834965 0.221948 0.247309 0.943174 0.013211 0.0897838 0.995874 
0.0245836 0.0418184 0.998823 0.0846925 0.13295 0.987498 -0.0426555 0.0526345 0.997702 
-0.0605563 -0.0110127 0.998104 -0.118805 -0.00630191 0.992898 -0.121233 -0.0278097 0.992234 
-0.0694403 -0.0173311 0.997436 0.0238221 0.071005 0.997191 0.0138658 0.137376 0.990422 
-0.0656091 0.216926 0.973981 -0.109012 0.305184 0.946033 -0.24078 0.384229 0.891287 
-0.45652 0.500943 0.735286 0.668417 0.254955 0.698725 0.308603 0.184061 0.933213 
0.0346663 0.0317161 0.998896 0.118463 0.0613689 0.99106 -0.0242207 -0.0100458 0.999656 
-0.013718 -0.0110977 0.999844 -0.0904467 -0.0708941 0.993375 -0.149166 -0.0570085 0.987167 
-0.139105 -0.0455407 0.98923 -0.00416112 -0.0471209 0.998881 0.0974276 0.021977 0.995 
0.0845572 0.000591916 0.996418 0.012069 0.0445348 0.998935 -0.0898077 0.10927 0.989947 
-0.175858 0.134131 0.975235 -0.371391 0.286594 0.883138 0.572225 0.0839672 0.815787 
0.20804 0.0201117 0.977913 0.0544877 -0.0124348 0.998437 -0.0490785 -0.0580719 0.997105 
-0.101568 -0.0972095 0.990068 -0.0906003 -0.0165389 0.99575 -0.111695 0.0690875 0.991338 
0.000680162 -0.00545149 0.999985 0.0689482 0.0844745 0.994037 0.0323781 -0.0936696 0.995077 
0.049644 -0.06356 0.996742 -0.00176835 -0.00668001 0.999976 -0.058256 0.0753438 0.995454 
-0.285276 0.0558848 0.956815 -0.570644 0.170592 0.803283 0.538894 -0.0989717 0.836539 
0.211797 -0.102816 0.97189 0.0434984 -0.0955863 0.99447 -0.0711633 -0.101385 0.992299 
-0.0511848 -0.117173 0.991792 0.0213322 -0.0189227 0.999593 -0.117573 0.138225 0.983397 
0.0196987 0.0440931 0.998833 -0.0227792 0.0313432 0.999249 -0.0515016 -0.084849 0.995062 
0.0995681 -0.0516701 0.993688 0.0430258 -0.0366116 0.998403 -0.101581 -0.00100047 0.994827 
-0.260822 -0.0665576 0.96309 -0.542005 -0.029199 0.839868 0.563073 -0.112412 0.818726 
0.235849 -0.159599 0.958594 0.0587443 -0.138327 0.988643 -0.0669897 -0.126344 0.989722 
-0.0253691 -0.0999654 0.994667 0.137163 -0.18555 0.973015 -0.0131892 -0.0922396 0.99565 
-0.0957877 0.138101 0.985775 -0.0772107 -0.012678 0.996934 -0.0336703 0.0452437 0.998408 
0.0978039 -0.00851732 0.995169 0.0475797 -0.0383859 0.99813 -0.109445 -0.100435 0.988906 
-0.289553 -0.101627 0.951752 -0.607211 -0.217657 0.764147 0.571383 -0.209264 0.793556 
0.248204 -0.214742 0.944606 0.0807199 -0.183953 0.979615 -0.0435803 -0.124874 0.991215 
-0.0928032 -0.0589967 0.993935 0.0341906 -0.0835678 0.995915 0.18976 -0.18967 0.963336 
0.0624806 -0.0347091 0.997442 -0.0805225 -0.0204217 0.996544 -0.0594426 0.0739842 0.995486 
0.0160446 0.00250379 0.999868 -0.0474502 -0.0502825 0.997607 -0.154566 -0.153783 0.975941 
-0.386701 -0.18867 0.902699 0.311446 -0.302953 0.900678 0.174204 -0.232435 0.956884 
0.0628222 -0.142423 0.98781 0.00361864 -0.0212106 0.999768 0.00145126 0.0766329 0.997058 
0.0441429 -0.0144824 0.99892 0.0814985 -0.095275 0.992109 0.0258083 -0.0810099 0.996379 
-0.0250518 -0.057564 0.998027 -0.0277343 -0.0975428 0.994845 -0.12005 -0.178801 0.976534 
-0.212947 -0.251176 0.944227 -0.451378 -0.33758 0.826013 0.219314 -0.292339 0.930827 
0.173955 -0.195649 0.965122 0.125401 -0.0834088 0.988594 0.0472674 0.00886882 0.998843 
0.000798856 -0.00369497 0.999993 0.00650151 -0.0694264 0.997566 -0.0334992 -0.14515 0.988842 
-0.0792003 -0.197808 0.977036 -0.0941717 -0.276385 0.956422 -0.202235 -0.343375 0.917166 
0.269212 -0.34376 0.899641 0.196863 -0.275034 0.941064 0.0847996 -0.181319 0.979761 
-0.0317318 -0.198025 0.979683 -0.0669153 -0.231956 0.970422 -0.104297 -0.287651 0.95204 
-0.161887 -0.34367 0.925032 -0.219572 -0.507809 0.833017 0.128373 -0.537496 0.833438 
-0.0258871 -0.490013 0.871331 -0.0980185 -0.494369 0.863708 0.370936 0.748667 0.549458 
0.228562 0.773551 0.591082 0.00247224 0.809645 0.586915 0.0242126 0.998616 0.0466873 
-0.17966 0.749295 0.6374 -0.216807 0.680138 0.700291 0.388542 0.743464 0.544331 
0.429015 0.689471 0.583589 -0.194887 0.646868 0.737279 -0.190133 0.63884 0.745475 
-0.194189 0.661978 0.723931 -0.138816 0.650814 0.746439 -0.201847 0.838217 0.506606 
-0.199286 0.664988 0.719775 -0.287265 0.926997 0.241157 -0.272642 0.640028 0.718353 
0.535306 0.63181 0.560593 0.55253 0.611865 0.565979 0.59427 0.693823 0.406759 
-0.293899 0.640161 0.709801 -0.341146 0.611525 0.713903 -0.43475 0.784036 0.443036 
-0.475006 0.558366 0.680144 0.656815 0.433395 0.617059 0.707227 0.346974 0.615986 
0.796822 0.506359 0.329661 -0.508767 0.524599 0.682607 0.727099 0.25417 0.637749 
-0.562598 0.363179 0.742687 -0.603547 0.324388 0.728356 -0.6593 0.415124 0.626893 
0.745675 0.1102 0.657134 -0.668958 0.18078 0.720981 0.705408 -0.0648027 0.705833 
0.987 0.00942584 0.160442 -0.716076 -0.04048 0.696848 0.65074 -0.0994266 0.752763 
-0.677432 -0.224207 0.700584 -0.641518 -0.269944 0.718043 0.643823 -0.211084 0.735483 
0.579427 -0.30756 0.754766 -0.559088 -0.282517 0.77949 -0.797513 -0.381225 0.46759 
0.412216 -0.364015 0.835207 0.650744 -0.452234 0.609931 0.404011 -0.385619 0.829502 
-0.37278 -0.471594 0.799146 -0.597117 -0.373066 0.710122 -0.506613 -0.433932 0.745014 
0.36983 -0.383406 0.846301 0.492096 -0.46131 0.738265 0.305926 -0.374762 0.875193 
-0.372382 -0.472521 0.798783 -0.231562 -0.546349 0.804911 -0.406216 -0.503716 0.762404 
-0.65678 -0.680809 0.324252 0.321509 -0.394887 0.860637 0.463562 -0.543171 0.700054 
0.291716 -0.405716 0.866197 0.235654 -0.51094 0.826685 -0.140189 -0.538182 0.831088 
-0.220252 -0.526411 0.821207 -0.220384 -0.512789 0.829746 -0.221288 -0.509929 0.831266 
-0.265778 -0.658888 0.703725 -0.566954 -0.767539 0.299078 0.421671 -0.734492 0.53171 
0.199217 -0.563226 0.801928 0.259293 -0.61672 0.743252 0.142653 -0.603064 0.784833 
-0.0076649 -0.586555 0.809873 -0.132543 -0.544349 0.828322 -0.108125 -0.546716 0.830308 
-0.147569 -0.573181 0.806031 -0.26905 -0.676213 0.68582 -0.412611 -0.818198 0.40038 
0.0397675 -0.948364 0.314682 -0.0900775 -0.929456 0.357768 0.0242582 0.998673 0.0454309 
0.414726 0.909504 0.0283627 0.025539 0.998648 0.0452786 0.242918 0.969799 0.0219386 
0.0228123 0.998683 0.045948 0.0245494 0.998743 0.0436989 -0.124071 0.987045 0.101726 
-0.176303 0.96668 0.1856 -0.196485 0.959079 0.203868 -0.241331 0.946029 0.216304 
-0.29998 0.941761 0.151984 0.61996 0.784338 0.021555 0.499642 0.866133 0.0130735 
0.509129 0.860605 0.0121278 -0.321185 0.936327 0.14189 -0.349509 0.906008 -0.238732 
-0.390498 0.91344 0.114625 -0.469242 0.877821 0.09614 0.662203 0.748779 0.0285785 
0.810229 0.584828 0.0387972 0.583061 0.715409 -0.385006 -0.503222 0.85862 0.0976749 
-0.579835 0.81136 0.0740667 0.847241 0.529998 0.0358397 0.793669 0.52005 -0.315654 
-0.736625 0.670486 0.0884943 -0.79819 0.590719 0.118089 0.937833 0.338969 0.0746292 
-0.88632 0.445412 0.126667 0.980335 0.161097 0.11398 0.990848 0.0593853 0.121218 
-0.983457 0.150424 0.100925 0.992198 0.0127008 0.124027 0.987671 -0.0372141 0.152059 
0.999433 0.0175442 0.0287387 -0.995741 -0.0518055 0.0762676 0.974409 -0.112232 0.194761 
-0.967974 -0.235316 0.0874834 0.923425 -0.266216 0.276433 -0.921176 -0.381041 0.0790104 
-0.885923 -0.452861 0.100282 -0.772724 -0.352641 -0.52777 0.851191 -0.426879 0.305365 
0.767791 -0.535597 0.351614 -0.86359 -0.494305 0.0993738 0.720765 -0.586021 0.370239 
0.635381 -0.66566 0.391393 -0.712565 -0.673744 0.195754 -0.689307 -0.694726 0.205457 
0.611221 -0.687366 0.392347 0.560218 -0.753252 0.344626 -0.438077 -0.849394 0.294309 
-0.582314 -0.775375 0.244345 -0.569901 -0.783773 0.246804 0.500828 -0.803538 0.321711 
0.442714 -0.844898 0.300252 0.309825 -0.913605 0.263315 0.161312 -0.957991 0.23713 
-0.239717 -0.902281 0.358365 -0.34439 -0.871939 0.348019 -0.424379 -0.837783 0.343544 
-0.418282 -0.837281 0.352137 0.096098 -0.961654 0.256877 0.0431857 -0.96001 0.276616 
-0.122073 -0.93462 0.334042 -0.0876147 -0.939581 0.330925 0.390008 0.816003 -0.426652 
0.264914 0.86861 -0.418732 0.0899057 0.926554 -0.365259 -0.0497251 0.952559 -0.300264 
-0.138238 0.958711 -0.248521 -0.190983 0.945868 -0.262409 -0.269452 0.918715 -0.288719 
0.424789 0.801124 -0.421609 0.477938 0.764832 -0.43198 0.375456 0.76471 -0.523691 
0.254651 0.674204 -0.693255 -0.192702 0.703147 -0.684434 -0.349431 0.882542 -0.31467 
-0.268091 0.795204 -0.543854 -0.354221 0.879332 -0.318282 -0.408101 0.785635 -0.465006 
-0.444133 0.783031 -0.435441 0.571194 0.704349 -0.421462 0.574646 0.701166 -0.422075 
0.417192 0.599493 -0.683051 -0.354449 0.662057 -0.660338 -0.454764 0.774507 -0.439692 
-0.439188 0.761028 -0.47744 -0.553656 0.681248 -0.478923 0.742783 0.504334 -0.440364 
0.764978 0.477898 -0.431767 0.507357 0.455151 -0.731728 -0.337767 0.4595 -0.821446 
-0.604679 0.632626 -0.483889 -0.52079 0.594151 -0.612994 -0.716533 0.497163 -0.489294 
0.839365 0.347021 -0.41838 0.71694 0.305186 -0.626784 -0.420747 0.247083 -0.872881 
-0.773253 0.422817 -0.472552 -0.683944 0.426271 -0.592043 0.889805 0.191434 -0.414247 
0.628171 0.12534 -0.767914 -0.350528 0.069011 -0.934006 -0.838215 0.136474 -0.527987 
-0.669924 0.110035 -0.734231 0.920148 0.0396818 -0.389554 0.605648 0.0702583 -0.792625 
-0.323389 -0.0426131 -0.945306 -0.880261 -0.0610415 -0.470546 -0.599821 -0.0607563 -0.797824 
0.9468 -0.00855766 -0.321709 -0.353979 -0.122601 -0.927183 -0.83738 -0.236001 -0.49305 
-0.756409 -0.342335 -0.557362 -0.649716 -0.234569 -0.723082 0.948818 -0.20307 -0.241882 
0.613522 -0.135427 -0.777979 -0.752604 -0.34564 -0.560465 -0.488353 -0.151485 -0.859397 
0.889447 -0.382146 -0.250697 0.823019 -0.539796 -0.176804 0.767768 -0.299321 -0.566515 
-0.758864 -0.384293 -0.525779 -0.607038 -0.273265 -0.746211 0.801242 -0.576664 -0.159595 
0.65809 -0.739393 -0.14218 -0.533286 -0.36619 -0.762568 -0.734966 -0.515683 -0.440337 
-0.729321 -0.527721 -0.435433 -0.722716 -0.512793 -0.463384 0.658033 -0.739442 -0.142193 
0.543748 -0.81582 -0.196917 0.4016 -0.569758 -0.717003 -0.518701 -0.800177 -0.301107 
-0.435191 -0.60136 -0.670056 -0.601526 -0.728918 -0.326871 -0.594961 -0.735584 -0.32394 
-0.593317 -0.722099 -0.355736 0.47973 -0.84634 -0.231448 0.384777 -0.88225 -0.27126 
0.335175 -0.795635 -0.504602 0.295279 -0.911004 -0.287892 0.268762 -0.667147 -0.694753 
0.190984 -0.946374 -0.260578 -0.233682 -0.959921 -0.15474 -0.381814 -0.903416 -0.195082 
-0.310016 -0.620692 -0.720161 -0.464341 -0.863593 -0.196455 -0.432173 -0.884896 -0.173738 
-0.413843 -0.823898 -0.387203 0.151713 -0.956137 -0.250568 0.101721 -0.964492 -0.243739 
0.0967171 -0.941228 -0.323629 -0.211147 -0.963998 -0.161629 -0.0592275 -0.974892 -0.214658 
-0.0422782 -0.943178 -0.329587 0.130818 0.646333 -0.751758 0.0106621 0.649027 -0.760691 
-0.104404 0.656603 -0.746976 0.308864 0.537717 -0.784515 0.165333 0.631655 -0.757415 
0.239381 0.581318 -0.777667 0.130517 0.622052 -0.772021 0.01234 0.588577 -0.808347 
-0.150514 0.647242 -0.747277 -0.101245 0.612483 -0.783973 -0.186053 0.622362 -0.760295 
-0.241681 0.50372 -0.829371 -0.302059 0.417671 -0.85692 0.341276 0.521824 -0.781812 
0.375457 0.489536 -0.787011 0.291364 0.465843 -0.835522 0.193426 0.401185 -0.895342 
0.0425557 0.288221 -0.956618 -0.0200703 0.277922 -0.960394 -0.0552499 0.270319 -0.961184 
-0.136199 0.292296 -0.94658 -0.229078 0.373764 -0.89879 -0.301586 0.416481 -0.857665 
-0.300575 0.412154 -0.860107 -0.266408 0.420073 -0.867505 0.443738 0.410027 -0.796853 
0.451694 0.360386 -0.816146 0.310057 0.350034 -0.883935 0.1857 0.256331 -0.948583 
0.0941451 0.139714 -0.985706 0.00636497 0.0764073 -0.997056 -0.0241462 0.029199 -0.999282 
-0.0651471 0.0280738 -0.997481 -0.0948787 0.0671908 -0.993219 -0.147057 0.131706 -0.98032 
-0.174026 0.217203 -0.960488 -0.270542 0.383192 -0.88316 -0.234659 0.344508 -0.908983 
-0.283063 0.322853 -0.903129 0.513862 0.260763 -0.817281 0.383879 0.231964 -0.893773 
0.258598 0.175891 -0.949837 0.076995 0.116779 -0.990169 -0.0116017 0.0158329 -0.999807 
-0.0669219 -0.0324293 -0.997231 -0.0636448 0.00980849 -0.997924 -0.022057 0.0562888 -0.998171 
-0.041917 0.0167363 -0.998981 -0.0751419 0.0134451 -0.997082 -0.0729311 0.0836147 -0.993826 
-0.138524 0.147359 -0.979335 -0.328117 0.218563 -0.919005 -0.255018 0.219317 -0.941736 
0.549446 0.110199 -0.828231 0.356413 0.124104 -0.92605 0.176866 0.0666119 -0.981978 
0.0408252 0.0352065 -0.998546 -0.0561791 -0.0035735 -0.998414 -0.000339824 0.0326676 -0.999466 
0.0759228 0.156643 -0.984733 -0.0660637 0.10351 -0.992432 -0.142636 0.103741 -0.984324 
-0.0789168 -0.0128162 -0.996799 -0.046664 -0.00568165 -0.998895 -0.100013 -0.00306342 -0.994981 
-0.327743 0.0557343 -0.943122 -0.218238 0.00980736 -0.975846 0.584928 0.0704012 -0.808024 
0.605574 0.0317938 -0.795154 0.340137 0.0732891 -0.937515 0.152526 0.0622335 -0.986338 
0.00754041 0.0365138 -0.999305 -0.0138481 0.000691346 -0.999904 0.0862127 0.0143112 -0.996174 
0.00567013 0.0199298 -0.999785 -0.073818 0.0012799 -0.997271 -0.150313 0.137574 -0.97902 
-0.179668 0.00337782 -0.983721 -0.0637892 -0.0461416 -0.996896 -0.114975 -0.0445284 -0.99237 
-0.28905 -0.0455937 -0.956228 -0.195428 -0.0557843 -0.97913 0.613712 0.0121492 -0.789437 
0.6117 -0.0899183 -0.785963 0.609091 0.0123743 -0.793004 0.328646 0.0171385 -0.944298 
0.136517 0.0102081 -0.990585 -0.0199842 -0.00535672 -0.999786 -0.0809865 -0.0283736 -0.996311 
0.0293916 -0.139204 -0.989827 0.0606925 -0.155658 -0.985945 0.0567274 -0.0356835 -0.997752 
-0.142521 -0.0776269 -0.986743 -0.263579 0.0355942 -0.963981 -0.0919826 0.018674 -0.995586 
-0.109252 0.00427294 -0.994005 -0.293306 -0.0824247 -0.952459 -0.230867 -0.0512667 -0.971634 
0.60787 -0.133553 -0.782725 0.326647 -0.0629041 -0.943051 0.127676 -0.0648005 -0.989697 
-0.0301476 -0.0409041 -0.998708 -0.139702 -0.0279867 -0.989798 -0.05156 -0.0354729 -0.99804 
0.0928208 -0.0852618 -0.992026 0.0115896 -0.109497 -0.99392 -0.0753508 -0.224815 -0.971484 
-0.0841412 -0.00202988 -0.996452 -0.0974407 0.0509872 -0.993934 -0.178892 0.0101576 -0.983816 
-0.36422 -0.0708496 -0.928614 -0.327882 -0.062488 -0.94265 0.611953 -0.237138 -0.754506 
0.380766 -0.17607 -0.907754 0.157818 -0.159651 -0.974477 0.0160598 -0.108889 -0.993924 
-0.0805929 -0.0368611 -0.996065 -0.0251422 0.0553157 -0.998152 0.000850085 0.0319864 -0.999488 
-0.0867054 -0.0312385 -0.995744 -0.042133 -0.049038 -0.997908 0.00614082 -0.0505615 -0.998702 
-0.0804502 -0.028553 -0.99635 -0.217611 -0.0818954 -0.972594 -0.348594 -0.198025 -0.916116 
-0.348637 -0.201338 -0.915377 -0.34299 -0.195581 -0.918752 0.488295 -0.471932 -0.734063 
0.480373 -0.482354 -0.732514 0.476284 -0.4709 -0.742567 0.377344 -0.530123 -0.759329 
0.240906 -0.31802 -0.916967 0.0993543 -0.224175 -0.969471 0.019124 -0.131366 -0.991149 
0.0220857 -0.0356726 -0.999119 0.00134445 -0.0284278 -0.999595 -0.0748355 -0.0189557 -0.997016 
-0.0894279 -0.000795761 -0.995993 -0.0610275 -0.104245 -0.992677 -0.133211 -0.182357 -0.974167 
-0.399545 -0.300029 -0.866225 -0.347749 -0.399891 -0.848032 -0.295729 -0.271963 -0.91574 
0.360917 -0.541356 -0.75939 0.23158 -0.574652 -0.78495 0.178014 -0.435491 -0.882416 
0.233329 -0.562809 -0.792972 0.127428 -0.321088 -0.938437 0.0771889 -0.237922 -0.968212 
0.0168955 -0.189678 -0.981701 -0.0572496 -0.156978 -0.985941 -0.119483 -0.150764 -0.981323 
-0.258627 -0.488159 -0.833555 -0.179228 -0.242233 -0.95352 -0.310223 -0.400408 -0.862227 
-0.297783 -0.44803 -0.842968 -0.252665 -0.323353 -0.911923 0.231027 -0.580795 -0.78058 
0.191071 -0.590749 -0.783905 0.184439 -0.533465 -0.825468 0.096287 -0.631274 -0.76956 
0.099737 -0.474543 -0.874564 -0.0147119 -0.635263 -0.772156 -0.0408203 -0.430351 -0.901738 
-0.263183 -0.534408 -0.803208 -0.198653 -0.591799 -0.781224 -0.186168 -0.445204 -0.875863 

