# vtk DataFile Version 4.2
vtk output
ASCII
DATASET POLYDATA
POINTS 504 float
34.9916 -6.86799 -24.0356 42.8607 -6.86799 -24.549 34.9916 1.00108 -24.2608 
42.8607 1.00108 -24.3433 -12.2228 -30.4752 -16.8942 -4.35376 -30.4752 -18.4625 
3.51531 -30.4752 -18.6404 11.3844 -30.4752 -18.3051 19.2534 -30.4752 -18.4556 
27.1225 -30.4752 -19.1948 34.9916 -30.4752 -18.7497 42.8607 -30.4752 -17.7235 
-27.961 -22.6061 -18.3291 -20.0919 -22.6061 -19.9811 -12.2228 -22.6061 -20.6686 
-4.35376 -22.6061 -20.9496 3.51531 -22.6061 -21.3404 11.3844 -22.6061 -21.3772 
19.2534 -22.6061 -21.5533 27.1225 -22.6061 -22.328 34.9916 -22.6061 -23.539 
42.8607 -22.6061 -21.6503 50.7297 -22.6061 -19.2408 -35.83 -14.7371 -18.2094 
-27.961 -14.7371 -19.9723 -20.0919 -14.7371 -21.2017 -12.2228 -14.7371 -21.7118 
-4.35376 -14.7371 -21.2706 3.51531 -14.7371 -21.2778 11.3844 -14.7371 -21.1784 
19.2534 -14.7371 -21.6322 27.1225 -14.7371 -22.7663 34.9916 -7.26685 -24.0133 
34.9916 -14.7371 -23.5905 42.8607 -13.0745 -24.0133 42.8607 -14.7371 -23.8428 
50.7297 -14.7371 -22.1085 -43.6991 -6.86799 -16.9936 -35.83 -6.86799 -19.7621 
-27.961 -6.86799 -20.249 -20.0919 -6.86799 -21.0521 -12.2228 -6.86799 -21.6779 
-4.35376 -6.86799 -20.9471 3.51531 -6.86799 -21.6557 11.3844 -6.86799 -20.1556 
19.2534 -6.86799 -20.8814 34.8491 -6.86799 -24.0133 27.1225 -6.86799 -22.7956 
44.815 -6.86799 -24.0133 50.7297 -6.86799 -22.2291 58.5988 -6.86799 -17.8024 
-43.6991 1.00108 -16.9706 -35.83 1.00108 -19.746 -27.961 1.00108 -21.0043 
-20.0919 1.00108 -21.5268 -12.2228 1.00108 -21.359 -4.35376 1.00108 -20.5031 
3.51531 1.00108 -23.3406 11.3844 1.00108 -21.012 19.2534 1.00108 -20.8086 
33.4394 1.00108 -24.0133 27.1225 1.00108 -22.9389 34.9916 5.69778 -24.0133 
44.0467 1.00108 -24.0133 42.8607 4.28297 -24.0133 50.7297 1.00108 -21.8609 
58.5988 1.00108 -16.5831 -35.83 8.87015 -18.4925 -27.961 8.87015 -20.7162 
-20.0919 8.87015 -21.9355 -12.2228 8.87015 -21.568 -4.35376 8.87015 -20.4021 
3.51531 8.87015 -20.2332 11.3844 8.87015 -20.114 19.2534 8.87015 -21.5406 
27.1225 8.87015 -23.1841 34.9916 8.87015 -23.8444 42.8607 8.87015 -23.4748 
50.7297 8.87015 -21.2988 -27.961 16.7392 -18.2203 -20.0919 16.7392 -20.3643 
-12.2228 16.7392 -21.0033 -4.35376 16.7392 -20.4137 3.51531 16.7392 -19.7414 
11.3844 16.7392 -20.2225 19.2534 16.7392 -21.8729 27.1225 16.7392 -22.5175 
34.9916 16.7392 -22.7016 42.8607 16.7392 -21.696 50.7297 16.7392 -18.2318 
-20.0919 24.6083 -16.5276 -12.2228 24.6083 -18.1151 -4.35376 24.6083 -18.7059 
3.51531 24.6083 -18.9832 11.3844 24.6083 -19.7823 19.2534 24.6083 -20.7745 
27.1225 24.6083 -21.1661 34.9916 24.6083 -20.5407 42.8607 24.6083 -17.8581 
19.2534 32.4774 -17.0862 27.1225 32.4774 -17.4104 -12.2228 -31.3332 -16.1443 
-4.35376 -33.0652 -16.1443 3.51531 -33.0981 -16.1443 11.3844 -32.698 -16.1443 
19.2534 -33.065 -16.1443 27.1225 -33.8759 -16.1443 34.9916 -33.269 -16.1443 
42.8607 -31.971 -16.1443 -35.83 -30.4752 -9.33256 -27.961 -26.7294 -16.1443 
-27.961 -30.4752 -12.9769 -17.3364 -30.4752 -16.1443 -20.0919 -29.7747 -16.1443 
-20.0919 -30.4752 -15.5456 45.6398 -30.4752 -16.1443 50.7297 -26.8791 -16.1443 
-43.6991 -22.6061 -11.9656 -35.6534 -22.6061 -16.1443 -35.83 -22.4175 -16.1443 
-35.83 -22.6061 -16.0866 54.4255 -22.6061 -16.1443 -51.5682 -14.7371 -9.65805 
-41.4602 -14.7371 -16.1443 -43.6991 -10.7063 -16.1443 -43.6991 -14.7371 -15.2411 
58.2872 -14.7371 -16.1443 58.5988 -13.7359 -16.1443 58.5988 -14.7371 -15.5354 
-45.1675 -6.86799 -16.1443 -51.5682 -6.86799 -11.9906 60.1199 -6.86799 -16.1443 
-45.2016 1.00108 -16.1443 -51.5682 1.00108 -11.4623 -43.6991 4.35491 -16.1443 
58.9866 1.00108 -16.1443 58.5988 2.42497 -16.1443 -41.015 8.87015 -16.1443 
-43.6991 8.87015 -14.5444 -35.83 13.308 -16.1443 56.3195 8.87015 -16.1443 
58.5988 8.87015 -10.5401 -32.1931 16.7392 -16.1443 -35.83 16.7392 -13.6553 
-27.961 19.9844 -16.1443 52.7896 16.7392 -16.1443 50.7297 19.5851 -16.1443 
-20.9581 24.6083 -16.1443 -27.961 24.6083 -11.7978 -20.0919 25.0957 -16.1443 
-12.2228 27.3934 -16.1443 -4.35376 28.3849 -16.1443 3.51531 29.9409 -16.1443 
11.3844 32.468 -16.1443 34.9916 31.5123 -16.1443 45.4311 24.6083 -16.1443 
42.8607 26.9163 -16.1443 -12.2228 32.4774 -10.0169 -4.35376 32.4774 -11.1621 
3.51531 32.4774 -13.9654 11.4301 32.4774 -16.1443 11.3844 32.4774 -16.1377 
19.2534 33.6116 -16.1443 32.452 32.4774 -16.1443 27.1225 33.9291 -16.1443 
34.9916 32.4774 -15.0615 -35.83 -31.2003 -8.2752 -27.961 -33.5263 -8.2752 
-20.0919 -34.8508 -8.2752 -12.2228 -36.2578 -8.2752 -4.35376 -37.5554 -8.2752 
-4.35376 -38.3443 -0.562644 3.51531 -37.3441 -8.2752 11.3844 -36.7981 -8.2752 
19.2534 -37.1233 -8.2752 27.1225 -36.6273 -8.2752 34.9916 -36.3061 -8.2752 
42.8607 -34.4466 -8.2752 -37.3758 -30.4752 -8.2752 -43.6991 -26.5533 -8.2752 
50.3926 -30.4752 -8.2752 50.7297 -30.2496 -8.2752 -47.9362 -22.6061 -8.2752 
-51.5682 -17.2104 -8.2752 -51.5682 -22.6061 -1.76966 57.4613 -22.6061 -8.2752 
58.5988 -20.3647 -8.2752 -52.9786 -14.7371 -8.2752 60.9177 -14.7371 -8.2752 
58.5988 -14.7371 -0.418706 -54.9067 -6.86799 -8.2752 62.6805 -6.86799 -8.2752 
-54.7477 1.00108 -8.2752 -51.5682 7.41735 -8.2752 61.4919 1.00108 -8.2752 
-50.7013 8.87015 -8.2752 -51.5682 8.87015 -7.2368 -43.6991 15.8264 -8.2752 
59.2668 8.87015 -8.2752 58.5988 10.4367 -8.2752 58.5988 8.87015 -5.73351 
-42.618 16.7392 -8.2752 -43.6991 16.7392 -7.11177 -35.83 21.6066 -8.2752 
55.6964 16.7392 -8.2752 50.7297 23.8674 -8.2752 -31.9112 24.6083 -8.2752 
-35.83 24.6083 -3.83763 -27.961 27.612 -8.2752 -20.0919 31.8611 -8.2752 
50.1365 24.6083 -8.2752 42.8607 31.669 -8.2752 -17.3631 32.4774 -8.2752 
-20.0919 32.4774 -6.73894 -12.2228 33.4066 -8.2752 -4.35376 34.0671 -8.2752 
3.51531 36.2113 -8.2752 11.3844 38.4152 -8.2752 19.2534 39.0547 -8.2752 
27.1225 38.392 -8.2752 41.6244 32.4774 -8.2752 34.9916 36.2064 -8.2752 
-4.35376 -38.3594 -0.406128 -35.83 -33.5529 -0.406128 -27.961 -35.2694 -0.406128 
-20.0919 -36.1993 -0.406128 -4.46747 -38.3443 -0.406128 -12.2228 -37.3057 -0.406128 
-3.99854 -38.3443 -0.406128 -4.35376 -38.3443 -0.329134 3.51531 -38.0276 -0.406128 
11.3844 -36.9668 -0.406128 19.2534 -36.5055 -0.406128 27.1225 -35.6891 -0.406128 
34.9916 -34.2059 -0.406128 42.8607 -31.0902 -0.406128 -51.5682 -23.1946 -0.406128 
-42.9574 -30.4752 -0.406128 -43.6991 -30.0866 -0.406128 27.1225 -30.4752 6.27341 
34.9916 -30.4752 3.81396 44.204 -30.4752 -0.406128 42.8607 -30.4752 0.336926 
50.7297 -25.8384 -0.406128 -52.1197 -22.6061 -0.406128 -51.5682 -22.6061 3.48265 
42.8607 -22.6061 6.46487 53.3642 -22.6061 -0.406128 50.7297 -22.6061 1.88263 
-56.8641 -14.7371 -0.406128 58.5931 -14.7371 -0.406128 50.7297 -14.7371 5.43143 
58.5988 -14.7209 -0.406128 -58.7182 -6.86799 -0.406128 50.7297 -6.86799 7.40957 
60.4886 -6.86799 -0.406128 58.5988 -6.86799 1.97658 -58.4953 1.00108 -0.406128 
-59.4373 1.00108 6.63114 50.7297 1.00108 7.20353 59.5337 1.00108 -0.406128 
58.5988 4.23841 -0.406128 58.5988 1.00108 0.855382 -55.5206 8.87015 -0.406128 
-51.5682 13.6007 -0.406128 56.8136 8.87015 -0.406128 50.7297 8.87015 5.56545 
-48.2892 16.7392 -0.406128 -43.6991 20.7733 -0.406128 53.1334 16.7392 -0.406128 
50.7297 20.5987 -0.406128 50.7297 16.7392 3.03756 -38.6106 24.6083 -0.406128 
-35.83 26.7095 -0.406128 -27.961 31.8664 -0.406128 47.953 24.6083 -0.406128 
42.8607 30.2205 -0.406128 42.8607 24.6083 4.95391 -26.4647 32.4774 -0.406128 
-27.961 32.4774 1.57243 -20.0919 34.5576 -0.406128 -12.2228 35.4103 -0.406128 
-4.35376 36.5979 -0.406128 3.51531 38.5253 -0.406128 11.3844 40.1391 -0.406128 
19.2534 40.2104 -0.406128 27.1225 38.9927 -0.406128 40.1251 32.4774 -0.406128 
34.9916 35.6867 -0.406128 34.9916 32.4774 4.36832 -35.83 -32.286 7.46294 
-27.961 -34.275 7.46294 -20.0919 -35.3453 7.46294 -12.2228 -36.0641 7.46294 
-4.35376 -36.6423 7.46294 3.51531 -35.8268 7.46294 11.3844 -33.5187 7.46294 
19.2534 -30.8104 7.46294 -40.3822 -30.4752 7.46294 -43.6991 -28.8751 7.46294 
-35.83 -30.4752 11.5203 -4.35376 -30.4752 15.0164 3.51531 -30.4752 13.1642 
11.3844 -30.4752 10.4891 20.8727 -30.4752 7.46294 19.2534 -30.4752 7.75634 
27.1225 -28.393 7.46294 34.9916 -25.8209 7.46294 -50.8514 -22.6061 7.46294 
-51.5682 -21.8282 7.46294 11.3844 -22.6061 13.9201 19.2534 -22.6061 11.1394 
27.1225 -22.6061 9.98554 40.2904 -22.6061 7.46294 34.9916 -22.6061 9.1942 
42.8607 -20.2516 7.46294 -56.5041 -14.7371 7.46294 11.3844 -14.7371 14.9349 
19.2534 -14.7371 12.3799 27.1225 -14.7371 11.8802 34.9916 -14.7371 11.2995 
47.0952 -14.7371 7.46294 42.8607 -14.7371 9.49009 -59.2882 -6.86799 7.46294 
-59.4373 -2.10393 7.46294 19.2534 -6.86799 13.8286 27.1225 -6.86799 13.3636 
34.9916 -6.86799 12.4618 50.6126 -6.86799 7.46294 42.8607 -6.86799 10.6946 
-59.5369 1.00108 7.46294 -59.4373 1.34217 7.46294 -59.4373 1.00108 7.95433 
27.1225 1.00108 14.6129 34.9916 1.00108 13.2387 50.2505 1.00108 7.46294 
42.8607 1.00108 11.0182 -57.2377 8.87015 7.46294 -51.5682 16.4887 7.46294 
27.1225 8.87015 14.8789 34.9916 8.87015 12.9496 47.8431 8.87015 7.46294 
42.8607 8.87015 10.1435 -51.3169 16.7392 7.46294 -43.6991 23.9465 7.46294 
27.1225 16.7392 14.2049 34.9916 16.7392 11.8631 45.1406 16.7392 7.46294 
42.8607 19.6521 7.46294 42.8607 16.7392 8.53056 -42.9172 24.6083 7.46294 
-43.6991 24.6083 13.0922 -35.83 29.9339 7.46294 19.2534 24.6083 15.0039 
27.1225 24.6083 12.9748 39.0643 24.6083 7.46294 34.9916 28.5946 7.46294 
34.9916 24.6083 9.57562 -31.0561 32.4774 7.46294 -27.961 33.9617 7.46294 
-20.0919 35.7354 7.46294 -12.2228 36.3061 7.46294 -4.35376 37.2982 7.46294 
3.51531 38.5215 7.46294 11.3844 38.811 7.46294 11.3844 32.4774 14.4245 
19.2534 37.3984 7.46294 19.2534 32.4774 11.9224 30.8071 32.4774 7.46294 
27.1225 34.5334 7.46294 27.1225 32.4774 9.33012 -27.961 -31.0048 15.332 
-20.0919 -32.0101 15.332 -12.2228 -31.5242 15.332 -43.6991 -23.981 15.332 
-29.7959 -30.4752 15.332 -35.83 -28.4922 15.332 -27.961 -30.4752 16.028 
-20.0919 -30.4752 17.1262 -6.06811 -30.4752 15.332 -12.2228 -30.4752 16.3942 
-4.35376 -29.9364 15.332 3.51531 -25.8111 15.332 -45.702 -22.6061 15.332 
[...]
POINT_DATA 504
SCALARS ImageScalars float
LOOKUP_TABLE default
0 0 0 0 0 0 0 0 0 
0 0 0 0 0 0 0 0 0 
0 0 0 0 0 0 0 0 0 
0 0 0 0 0 0 0 0 0 
0 0 0 0 0 0 0 0 0 
0 0 0 0 0 0 0 0 0 
0 0 0 0 0 0 0 0 0 
0 0 0 0 0 0 0 0 0 
0 0 0 0 0 0 0 0 0 
0 0 0 0 0 0 0 0 0 
0 0 0 0 0 0 0 0 0 
0 0 0 0 0 0 0 0 0 
0 0 0 0 0 0 0 0 0 
0 0 0 0 0 0 0 0 0 
0 0 0 0 0 0 0 0 0 
0 0 0 0 0 0 0 0 0 
0 0 0 0 0 0 0 0 0 
0 0 0 0 0 0 0 0 0 
0 0 0 0 0 0 0 0 0 
0 0 0 0 0 0 0 0 0 
0 0 0 0 0 0 0 0 0 
0 0 0 0 0 0 0 0 0 
0 0 0 0 0 0 0 0 0 
0 0 0 0 0 0 0 0 0 
0 0 0 0 0 0 0 0 0 
0 0 0 0 0 0 0 0 0 
0 0 0 0 0 0 0 0 0 
0 0 0 0 0 0 0 0 0 
0 0 0 0 0 0 0 0 0 
0 0 0 0 0 0 0 0 0 
0 0 0 0 0 0 0 0 0 
0 0 0 0 0 0 0 0 0 
0 0 0 0 0 0 0 0 0 
0 0 0 0 0 0 0 0 0 
0 0 0 0 0 0 0 0 0 
0 0 0 0 0 0 0 0 0 
0 0 0 0 0 0 0 0 0 
0 0 0 0 0 0 0 0 0 
0 0 0 0 0 0 0 0 0 
0 0 0 0 0 0 0 0 0 
0 0 0 0 0 0 0 0 0 
0 0 0 0 0 0 0 0 0 
0 0 0 0 0 0 0 0 0 
0 0 0 0 0 0 0 0 0 
0 0 0 0 0 0 0 0 0 
0 0 0 0 0 0 0 0 0 
0 0 0 0 0 0 0 0 0 
0 0 0 0 0 0 0 0 0 
0 0 0 0 0 0 0 0 0 
0 0 0 0 0 0 0 0 0 
0 0 0 0 0 0 0 0 0 
0 0 0 0 0 0 0 0 0 
0 0 0 0 0 0 0 0 0 
0 0 0 0 0 0 0 0 0 
0 0 0 0 0 0 0 0 0 
0 0 0 0 0 0 0 0 0 

NORMALS Normals float
0.112913 0.041918 0.99272 -0.108863 0.0261799 0.993712 0.085076 -0.0118065 0.996305 
-0.138622 -0.0635079 0.988307 0.150871 0.612505 0.775935 0.0994925 0.542521 0.83413 
-0.00879613 0.572781 0.819661 -0.0100541 0.614208 0.78908 0.0491629 0.586562 0.808411 
0.0188077 0.592287 0.805508 -0.0782881 0.652227 0.75397 -0.291309 0.719198 0.630788 
0.22625 0.330023 0.916458 0.143224 0.302287 0.942395 0.0571462 0.268182 0.961672 
0.0415824 0.154671 0.987091 0.026931 0.138232 0.990034 0.0131326 0.147133 0.98903 
0.0588067 0.17221 0.983303 0.114528 0.190142 0.975054 -0.0477353 0.252717 0.966362 
-0.231057 0.319012 0.919154 -0.480295 0.457554 0.748305 0.265399 0.213323 0.940243 
0.187117 0.117973 0.975228 0.106425 0.0598511 0.992518 0.00483563 0.0601664 0.998177 
-0.0274829 -0.000483253 0.999622 -0.00563187 0.0189335 0.999805 0.0226694 -0.0773016 0.99675 
0.102406 -0.0405296 0.993917 0.122887 0.0285954 0.992009 0.11088 0.0411885 0.99298 
0.0673956 0.0313287 0.997234 -0.0804146 0.164648 0.983069 -0.0737565 0.2021 0.976584 
-0.411368 0.165818 0.896259 0.417335 0.0945275 0.903823 0.184741 0.0925295 0.978422 
0.0793714 0.0638623 0.994797 0.0902794 0.0205027 0.995705 -0.00652914 -0.022342 0.999729 
-0.00365383 -0.048867 0.998799 -0.0496223 0.128149 0.990513 -0.0500831 -0.0136493 0.998652 
0.169965 -0.0533166 0.984007 0.114345 0.0414407 0.992576 0.190418 0.0103044 0.981649 
-0.167962 0.0155507 0.985671 -0.362874 -0.0159619 0.931701 -0.742057 0.0379406 0.669262 
0.432156 -0.111089 0.89493 0.241667 -0.0684856 0.967939 0.115196 0.0296979 0.992899 
0.0220679 0.055635 0.998207 -0.0649961 -0.00704219 0.997861 0.115579 -0.0348094 0.992688 
0.0465394 -0.0887649 0.994965 -0.163308 -0.00425496 0.986566 0.117188 0.0403945 0.992288 
0.112461 -0.00485301 0.993644 0.219532 0.0248143 0.97529 0.0474681 -0.063105 0.996877 
-0.175601 -0.0588415 0.982701 -0.131898 -0.109399 0.985208 -0.410809 -0.0490925 0.910399 
-0.786081 -0.186781 0.589228 0.341024 -0.298794 0.891305 0.196206 -0.155309 0.968185 
0.0540364 -0.0673977 0.996262 -0.0955388 -0.0212436 0.995199 -0.0847165 -0.00571289 0.996389 
-0.0187271 -0.223088 0.974618 0.0793665 -0.0457979 0.995793 0.196572 0.0673405 0.978174 
0.138666 -0.0270693 0.989969 0.0200479 -0.0980361 0.994981 -0.129076 -0.172856 0.976453 
-0.477644 -0.194392 0.856777 0.327826 -0.425781 0.843351 0.159151 -0.303596 0.939415 
0.00040995 -0.199506 0.979896 -0.0786939 -0.0976298 0.992107 -0.0119874 -0.0751879 0.997097 
0.1332 -0.021903 0.990847 0.146194 -0.0452142 0.988222 0.0519485 -0.129318 0.990241 
-0.0505014 -0.190353 0.980416 -0.234921 -0.30563 0.922715 -0.611972 -0.429929 0.663815 
0.277358 -0.561254 0.779786 0.121113 -0.488609 0.864056 0.0522544 -0.406916 0.91197 
0.070206 -0.283091 0.95652 0.105269 -0.22246 0.969242 0.0921519 -0.26368 0.960198 
-0.0110533 -0.29302 0.956043 -0.184836 -0.388581 0.902685 -0.416936 -0.544843 0.727537 
0.0725257 -0.569326 0.818907 -0.0770052 -0.627327 0.774939 0.154623 0.653075 0.74134 
0.0891045 0.690616 0.717712 -0.0205303 0.722662 0.690897 -0.00232281 0.737409 0.675442 
0.0601076 0.723555 0.687645 0.0103853 0.79357 0.60839 -0.103226 0.78061 0.616435 
-0.304254 0.777886 0.54984 0.352502 0.803295 0.480063 0.234064 0.514402 0.824988 
0.238164 0.752828 0.613619 0.163322 0.653601 0.739007 0.167452 0.642432 0.747824 
0.170243 0.689256 0.704233 -0.394465 0.743239 0.540364 -0.566447 0.61495 0.548611 
0.531952 0.502415 0.68162 0.309767 0.371651 0.875169 0.310948 0.368232 0.876194 
0.312655 0.373826 0.873213 -0.692391 0.48609 0.533209 0.690691 0.33141 0.642738 
0.38269 0.226768 0.895614 0.424799 0.163829 0.89034 0.441505 0.245959 0.862889 
-0.761679 0.286143 0.581349 -0.774523 0.257112 0.577934 -0.794897 0.292384 0.531649 
0.448025 0.0967286 0.888773 0.670473 0.0835118 0.737219 -0.820957 0.0353853 0.569892 
0.462039 -0.122237 0.878395 0.666683 -0.205509 0.716449 0.473167 -0.231011 0.850145 
-0.803384 -0.188311 0.564902 -0.797476 -0.214686 0.563864 0.458809 -0.375043 0.805504 
0.526009 -0.420375 0.739323 0.423103 -0.451626 0.785505 -0.753838 -0.319318 0.574251 
-0.923575 -0.350776 0.154808 0.412129 -0.498712 0.76252 0.480599 -0.57752 0.659921 
0.378743 -0.520483 0.765279 -0.70668 -0.444603 0.550392 -0.658733 -0.506988 0.555908 
0.295847 -0.571507 0.765411 0.460477 -0.658643 0.595105 0.280883 -0.577569 0.766498 
0.138917 -0.606513 0.782843 0.0958224 -0.604247 0.791014 0.145771 -0.557892 0.817011 
0.13275 -0.607264 0.783331 -0.293185 -0.675076 0.67699 -0.506412 -0.59166 0.627284 
-0.454857 -0.612132 0.646838 0.129725 -0.886632 0.44391 0.14649 -0.853837 0.499503 
0.192131 -0.724496 0.66196 0.132444 -0.607522 0.783183 0.132849 -0.607862 0.78285 
0.0712885 -0.614186 0.785935 -0.229319 -0.692214 0.68429 -0.094252 -0.690977 0.716706 
-0.317968 -0.741612 0.590685 0.347434 0.830974 0.434479 0.209 0.900039 0.382426 
0.163827 0.930598 0.327336 0.163615 0.940379 0.298189 0.0652648 0.961121 0.268305 
0.0452262 0.998029 -0.0435169 -0.0460642 0.96483 0.258806 -0.0133955 0.974496 0.224007 
-0.0129055 0.986548 0.162963 -0.0499235 0.996357 0.0691401 -0.127418 0.99092 0.042913 
-0.355876 0.934309 -0.0204599 0.382605 0.810672 0.443198 0.547312 0.666688 0.505941 
-0.586017 0.810264 0.00751093 -0.598692 0.800943 0.00760556 0.64063 0.554908 0.530725 
0.706628 0.406967 0.578839 0.748083 0.638677 0.18018 -0.83053 0.556953 -0.00484681 
-0.882746 0.469759 0.00922767 0.736836 0.331238 0.589367 -0.960345 0.278814 0.000365209 
-0.799947 0.300431 -0.519448 0.813748 0.0802424 0.575652 -0.999318 0.0356648 0.00953531 
0.790713 -0.209994 0.575043 0.67763 -0.44704 0.583929 -0.979343 -0.201415 0.0178564 
0.654418 -0.493741 0.572674 0.672941 -0.496841 0.547997 0.558673 -0.642041 0.52504 
-0.939175 -0.343254 0.011239 -0.928589 -0.370804 0.0150752 -0.92686 -0.351174 -0.132691 
0.547543 -0.656351 0.519038 0.56027 -0.662711 0.496901 0.526122 -0.685207 0.503673 
-0.870085 -0.492642 0.0160138 -0.780498 -0.623053 0.051264 0.515113 -0.697127 0.49867 
0.538711 -0.715224 0.445248 0.481621 -0.726353 0.49036 0.280999 -0.849202 0.447097 
-0.767364 -0.638297 0.0610632 -0.590014 -0.798391 0.120233 0.222079 -0.880786 0.418206 
0.262627 -0.878794 0.398432 0.122734 -0.919375 0.373746 0.163383 -0.905498 0.391637 
0.251811 -0.878514 0.405961 0.172379 -0.906366 0.385728 -0.00320714 -0.952744 0.303759 
-0.17038 -0.950344 0.260417 -0.552469 -0.823009 0.132038 -0.37562 -0.907104 0.189928 
0.0448004 0.997774 -0.0494001 0.314584 0.947603 0.055549 0.158503 0.98648 0.0416357 
0.127513 0.99148 0.0266205 0.0461022 0.997737 -0.0489352 0.136713 0.990529 -0.0126839 
0.0388719 0.997964 -0.0505731 0.0444278 0.997638 -0.0523876 -0.0872792 0.993274 -0.0760827 
-0.0962013 0.982028 -0.162379 -0.081571 0.95161 -0.296283 -0.127362 0.929391 -0.346426 
-0.244168 0.843348 -0.478693 -0.354593 0.77621 -0.521309 0.744787 0.658664 0.107025 
0.517223 0.851793 0.0832384 0.539089 0.83771 0.0873197 -0.181191 0.595279 -0.782824 
-0.25776 0.687513 -0.678885 -0.390261 0.756572 -0.524686 -0.351623 0.752873 -0.556367 
-0.591721 0.57661 -0.563371 0.757318 0.643752 0.109787 0.740103 0.670811 -0.047547 
-0.3499 0.409862 -0.842367 -0.640959 0.506386 -0.576841 -0.579018 0.458476 -0.674195 
0.909264 0.38283 0.163339 -0.799346 0.300393 -0.520393 -0.512258 0.252558 -0.820857 
-0.799604 0.299901 -0.520281 0.965052 0.0865859 0.24734 -0.4704 0.101131 -0.876639 
-0.858522 0.0565283 -0.509651 -0.777157 0.0637245 -0.626072 0.946133 -0.193749 0.259412 
0.990747 -0.13504 -0.013563 -0.526707 -0.0901852 -0.845249 -0.855604 -0.19476 -0.479593 
-0.842949 -0.256016 -0.473173 -0.820312 -0.187374 -0.540351 0.807324 -0.493656 0.323315 
0.713563 -0.605324 0.352718 -0.811259 -0.329885 -0.482737 -0.608086 -0.183965 -0.772262 
0.655306 -0.668998 0.350735 0.574025 -0.72625 0.378228 -0.791768 -0.431004 -0.432826 
-0.763691 -0.492726 -0.417129 -0.712942 -0.384256 -0.586567 0.545196 -0.735434 0.402365 
0.535981 -0.743464 0.399982 0.423054 -0.848248 0.318592 -0.715694 -0.561961 -0.414707 
-0.630004 -0.68563 -0.364702 -0.589743 -0.486706 -0.644453 0.378704 -0.876016 0.298627 
0.401807 -0.876749 0.264316 0.201459 -0.952566 0.228104 0.121683 -0.975858 0.181371 
0.19725 -0.960034 0.198561 0.21041 -0.968693 0.13176 0.110937 -0.993479 0.0262988 
-0.0659685 -0.996243 -0.0561123 -0.262546 -0.948152 -0.179101 -0.581357 -0.745027 -0.327045 
-0.474977 -0.829732 -0.293159 -0.487052 -0.665904 -0.565113 0.309837 0.911462 -0.270625 
0.180105 0.953444 -0.24188 0.107521 0.965864 -0.235681 0.0793207 0.947086 -0.311025 
-0.00897785 0.916039 -0.400989 -0.171189 0.860008 -0.480708 -0.262455 0.735689 -0.624403 
-0.219312 0.592095 -0.775452 0.422639 0.86535 -0.269344 0.515137 0.813929 -0.268614 
0.315725 0.863309 -0.393721 -0.162378 0.574005 -0.802591 -0.229315 0.556381 -0.798658 
-0.287182 0.576609 -0.764884 -0.212425 0.573116 -0.791463 -0.223605 0.574469 -0.787392 
-0.159 0.485363 -0.859734 -0.212111 0.482498 -0.849826 0.699452 0.681848 -0.214127 
0.723357 0.658834 -0.20662 -0.330398 0.235542 -0.913979 -0.225348 0.246764 -0.94251 
-0.117149 0.305942 -0.944815 -0.297713 0.391198 -0.870822 -0.194281 0.369917 -0.908524 
-0.33851 0.348607 -0.874005 0.866324 0.458324 -0.198547 -0.430573 0.259782 -0.864361 
-0.175935 0.161781 -0.971017 -0.066568 0.214383 -0.974479 -0.151708 0.212652 -0.965279 
-0.421816 0.233748 -0.876033 -0.319865 0.232115 -0.918591 0.980446 0.164876 -0.107433 
0.997617 -0.0110244 -0.0681026 -0.281385 0.246419 -0.927416 -0.0847982 0.167768 -0.982173 
-0.162089 0.116443 -0.979882 -0.46709 0.100911 -0.878433 -0.283418 0.0965961 -0.954119 
0.990801 -0.128725 -0.0417531 0.989107 -0.142038 -0.0386252 0.990452 -0.124016 -0.0602051 
-0.1792 0.0922031 -0.979483 -0.217581 0.0304456 -0.975567 -0.512686 -0.0849787 -0.85436 
-0.340956 -0.0307848 -0.939575 0.898941 -0.4374 0.0241986 0.734445 -0.668503 0.117026 
-0.232344 -0.0260153 -0.972286 -0.277819 -0.0832315 -0.957021 -0.516623 -0.147377 -0.843434 
-0.401573 -0.146958 -0.903959 0.728789 -0.673829 0.121743 0.639441 -0.74293 0.197916 
-0.259738 -0.114005 -0.958926 -0.339794 -0.187077 -0.921706 -0.482699 -0.280145 -0.829772 
-0.474064 -0.327624 -0.817267 -0.423371 -0.248376 -0.871244 0.630991 -0.749223 0.201283 
0.656965 -0.753579 -0.0227125 0.51906 -0.826455 0.218055 -0.262667 -0.226926 -0.937822 
-0.307217 -0.268137 -0.913083 -0.500559 -0.409145 -0.762916 -0.454109 -0.477931 -0.751909 
-0.41067 -0.358399 -0.838391 0.409846 -0.899002 0.15434 0.336037 -0.934604 0.116591 
0.141931 -0.989462 0.0286268 0.100397 -0.994599 -0.0263238 0.134893 -0.985454 -0.103366 
0.0977006 -0.969702 -0.223901 -0.0523302 -0.914992 -0.400064 -0.236215 -0.514554 -0.824279 
-0.237651 -0.763972 -0.599891 -0.273349 -0.535042 -0.799381 -0.396883 -0.595104 -0.69881 
-0.339684 -0.662094 -0.668017 -0.338862 -0.575419 -0.744356 0.184009 0.823633 -0.536441 
0.0317939 0.814762 -0.578923 -0.0895444 0.725047 -0.682853 0.473219 0.683146 -0.556216 
0.216036 0.81707 -0.534532 0.32237 0.775811 -0.542397 0.1786 0.805297 -0.565331 
0.00994194 0.753991 -0.656809 -0.153031 0.594661 -0.789278 -0.110096 0.682938 -0.722132 
-0.17268 0.549143 -0.817694 -0.257215 0.39563 -0.881656 0.516201 0.660347 -0.545416 
0.682555 0.50623 -0.527114 0.463831 0.649072 -0.602964 0.262611 0.543244 -0.797447 
0.0884618 0.473137 -0.876536 -0.074064 0.452958 -0.88845 -0.229474 0.422899 -0.87664 
-0.265532 0.346162 -0.899814 -0.301905 0.281198 -0.910923 -0.274097 0.325315 -0.905009 
0.716603 0.455024 -0.528614 0.670838 0.448243 -0.590808 0.377237 0.389744 -0.840114 
-0.31636 0.295911 -0.901306 -0.426419 0.262841 -0.865495 -0.323509 0.223488 -0.919454 
-0.435399 0.276814 -0.856622 0.836614 0.251524 -0.486634 0.614225 0.275826 -0.739356 
-0.281834 0.0051988 -0.959449 -0.360303 0.291681 -0.886061 -0.393789 0.303274 -0.86773 
-0.350754 0.210575 -0.912485 0.923252 -0.0378038 -0.382331 -0.177157 -0.00690495 -0.984158 
-0.140898 0.048803 -0.98882 -0.266287 0.135155 -0.954371 -0.375144 0.178015 -0.909713 
0.877082 -0.345409 -0.333798 0.806093 -0.559945 -0.191509 0.704404 -0.240391 -0.667852 
-0.227008 0.0833575 -0.970319 -0.20773 -0.133793 -0.968993 -0.247333 -0.0204653 -0.968714 
-0.303427 -0.0163344 -0.952715 0.799891 -0.572312 -0.180645 -0.324824 -0.0354716 -0.945109 
-0.263195 -0.140486 -0.954459 -0.250513 -0.111256 -0.961699 -0.258519 -0.193643 -0.946399 
-0.243565 -0.111733 -0.963427 0.658387 -0.744892 -0.107993 0.654451 -0.748483 -0.107084 
0.655383 -0.742391 -0.139029 0.468749 -0.873168 -0.133611 -0.286729 -0.285421 -0.914506 
-0.293748 -0.226721 -0.928606 -0.264579 -0.222793 -0.938276 -0.251687 -0.410854 -0.876272 
-0.27736 -0.202746 -0.93913 0.353199 -0.920268 -0.168396 0.22813 -0.950663 -0.210232 
0.213194 -0.902445 -0.374355 0.0579393 -0.95855 -0.278971 0.00318347 -0.833306 -0.552803 
-0.0277378 -0.923878 -0.381679 -0.10647 -0.790596 -0.603011 -0.0633203 -0.820261 -0.568473 
-0.13306 -0.713874 -0.687517 -0.210294 -0.529045 -0.822124 -0.146415 -0.633669 -0.759623 
-0.17625 -0.571326 -0.801575 0.215841 0.419151 -0.881887 0.0807724 0.438498 -0.895095 
-0.0764262 0.418426 -0.90503 -0.247467 0.337334 -0.908276 0.320244 0.366724 -0.873474 
0.354672 0.34355 -0.869587 0.195003 0.334038 -0.922168 0.034122 0.26178 -0.964524 
-0.0847881 0.222801 -0.97117 -0.284379 0.291155 -0.913432 -0.247268 0.278239 -0.928139 
-0.355075 0.184136 -0.916524 0.452565 0.262078 -0.85235 0.596107 0.0457375 -0.801601 
0.3058 0.253704 -0.917671 0.109544 0.193901 -0.974886 -0.0142888 0.138485 -0.990261 
-0.0611168 0.0850516 -0.9945 -0.16552 0.109936 -0.98006 -0.349843 0.115428 -0.92967 
-0.362858 0.140043 -0.921261 0.597216 0.0425238 -0.800953 0.598282 0.0372582 -0.800419 
0.596203 0.0427889 -0.801692 0.271578 0.10309 -0.956879 0.0635017 0.111638 -0.991718 
-0.0835554 0.0922749 -0.992222 -0.116026 0.059616 -0.991455 -0.179993 -0.00303772 -0.983663 
-0.43238 -0.0139772 -0.901583 -0.451721 -0.0158562 -0.892019 0.607779 -0.183003 -0.772732 
0.35431 -0.0969985 -0.930084 0.0977847 -0.0193443 -0.99502 -0.0625878 0.00856237 -0.998003 
-0.1602 0.0430121 -0.986147 -0.239427 -9.60207e-05 -0.970914 -0.351801 -0.00179098 -0.936073 
-0.363932 -0.015108 -0.931303 0.605085 -0.388071 -0.695178 0.568744 -0.493879 -0.657734 
0.486289 -0.334083 -0.80741 0.162465 -0.185324 -0.969154 -0.0241788 -0.122131 -0.992219 
-0.119516 -0.0612507 -0.990941 -0.247917 -0.0854499 -0.965006 -0.337406 -0.0685101 -0.938863 
-0.324919 -0.135092 -0.936044 -0.338341 -0.074476 -0.938072 0.476886 -0.623491 -0.619547 
0.368061 -0.665601 -0.649235 0.327457 -0.560284 -0.760824 0.141399 -0.689081 -0.710756 
0.069304 -0.387991 -0.919054 -0.0647106 -0.629142 -0.774592 -0.123741 -0.357126 -0.925824 
-0.270304 -0.298522 -0.915325 -0.216181 -0.449074 -0.866948 -0.242642 -0.329803 -0.912335 

