# vtk DataFile Version 4.2
vtk output
ASCII
DATASET POLYDATA
POINTS 594 float
48.6119 -29.5721 -14.0982 8.22038 -21.4938 -13.7514 24.377 -21.4938 -14.5123 
32.4553 -21.4938 -15.1686 40.5336 -21.4938 -15.0593 48.6119 -21.4938 -15.8204 
-48.3278 -13.4155 -15.081 -40.2495 -13.4155 -14.5405 -32.1712 -13.4155 -15.0952 
-24.0928 -13.4155 -14.5491 -16.0145 -13.4155 -14.7242 0.142073 -13.4155 -14.2702 
8.22038 -13.4155 -14.9209 16.2987 -13.4155 -14.8738 24.377 -13.4155 -15.5507 
32.4553 -13.4155 -15.7544 40.5336 -13.4155 -16.8546 48.6119 -13.4155 -16.1816 
56.6902 -13.4155 -15.8466 -64.4844 -5.33716 -15.328 -56.4061 -5.33716 -15.279 
-48.3278 -5.33716 -15.7102 -40.2495 -5.33716 -16.0305 -32.1712 -5.33716 -15.1889 
-24.0928 -5.33716 -14.2226 -16.0145 -5.33716 -13.9631 -7.93623 -5.33716 -15.2755 
0.142073 -5.33716 -15.9334 8.22038 -5.33716 -17.3597 16.2987 -5.33716 -19.5636 
24.377 -5.33716 -15.2044 32.4553 -5.33716 -16.0162 40.5336 -5.33716 -17.0952 
48.6119 -5.33716 -16.916 56.6902 -5.33716 -17.687 64.7685 -5.33716 -13.788 
72.8468 -5.33716 -13.7445 -56.4061 2.74114 -16.825 -48.3278 2.74114 -16.4158 
-40.2495 2.74114 -16.9366 -32.1712 2.74114 -15.7483 -24.0928 2.74114 -14.2947 
-7.93623 2.74114 -15.7648 0.142073 2.74114 -15.2967 8.22038 2.74114 -18.5814 
16.2987 2.74114 -20.9111 24.377 2.74114 -15.8839 32.4553 2.74114 -16.1812 
40.5336 2.74114 -17.017 48.6119 2.74114 -16.9413 56.6902 2.74114 -17.8406 
64.7685 2.74114 -13.9416 -56.4061 10.8194 -15.8169 -48.3278 10.8194 -16.4461 
-40.2495 10.8194 -17.239 -32.1712 10.8194 -16.0098 -24.0928 10.8194 -14.7257 
-7.93623 10.8194 -16.0335 0.142073 10.8194 -17.8523 8.22038 10.8194 -17.4194 
16.2987 10.8194 -18.4369 24.377 10.8194 -16.8631 32.4553 10.8194 -16.9834 
40.5336 10.8194 -17.2735 48.6119 10.8194 -16.453 56.6902 10.8194 -16.7291 
-48.3278 18.8978 -16.0746 -40.2495 18.8978 -16.0831 -32.1712 18.8978 -16.6724 
-24.0928 18.8978 -15.22 -16.0145 18.8978 -14.5654 -7.93623 18.8978 -16.4896 
0.142073 18.8978 -18.0358 8.22038 18.8978 -17.9144 16.2987 18.8978 -17.9151 
24.377 18.8978 -17.3316 32.4553 18.8978 -16.9743 40.5336 18.8978 -16.6472 
48.6119 18.8978 -18.0549 56.6902 18.8978 -14.4687 64.7685 18.8978 -14.1967 
-40.2495 26.9761 -14.344 -32.1712 26.9761 -13.6156 -16.0145 26.9761 -13.65 
-7.93623 26.9761 -14.6534 0.142073 26.9761 -16.4082 8.22038 26.9761 -17.0844 
16.2987 26.9761 -17.3496 24.377 26.9761 -16.7003 32.4553 26.9761 -15.9231 
40.5336 26.9761 -15.5737 16.2987 35.0544 -13.6652 24.377 35.0544 -14.17 
48.6119 -30.3099 -13.5595 -48.3278 -29.5721 -5.92054 -40.2495 -29.5721 -7.99213 
-32.1712 -29.5721 -8.19228 -24.0928 -29.5721 -8.80635 -16.0145 -29.5721 -8.64392 
-7.93623 -29.5721 -8.75621 0.142073 -29.5721 -10.2126 8.22038 -22.02 -13.5595 
8.22038 -29.5721 -10.2505 16.2987 -29.5721 -9.78005 24.377 -23.788 -13.5595 
24.377 -29.5721 -10.7151 32.4553 -25.4207 -13.5595 32.4553 -29.5721 -11.8096 
45.8665 -29.5721 -13.5595 40.5336 -25.964 -13.5595 40.5336 -29.5721 -12.0123 
51.2516 -29.5721 -13.5595 56.6902 -29.5721 -11.3989 64.7685 -29.5721 -6.63 
-64.4844 -21.4938 -6.31976 -56.4061 -21.4938 -12.3917 -48.3278 -17.1543 -13.5595 
-48.3278 -21.4938 -11.8249 -40.2495 -18.0517 -13.5595 -40.2495 -21.4938 -12.7318 
-32.1712 -18.9785 -13.5595 -32.1712 -21.4938 -12.7812 -24.0928 -21.3228 -13.5595 
-24.0928 -21.4938 -13.5361 -16.0145 -21.1398 -13.5595 -16.0145 -21.4938 -13.5032 
-7.93623 -21.4938 -12.482 4.38605 -21.4938 -13.5595 0.142073 -19.604 -13.5595 
0.142073 -21.4938 -13.347 11.6409 -21.4938 -13.5595 17.9573 -21.4938 -13.5595 
16.2987 -20.1485 -13.5595 16.2987 -21.4938 -13.293 56.3059 -21.4938 -13.5595 
56.6902 -21.1229 -13.5595 56.6902 -21.4938 -13.4692 64.7685 -21.4938 -13.5008 
72.8468 -21.4938 -6.76552 -72.5627 -13.4155 -9.64256 -64.4844 -11.7393 -13.5595 
-64.4844 -13.4155 -12.635 -55.1374 -13.4155 -13.5595 -56.4061 -12.3016 -13.5595 
-56.4061 -13.4155 -13.3343 -8.31312 -13.4155 -13.5595 -7.30617 -13.4155 -13.5595 
-7.93623 -13.1355 -13.5595 -7.93623 -13.4155 -13.4995 62.1949 -13.4155 -13.5595 
64.7685 -6.77466 -13.5595 64.7685 -13.4155 -12.6839 72.8468 -5.66649 -13.5595 
72.8468 -13.4155 -11.1036 -68.006 -5.33716 -13.5595 -72.5627 -5.33716 -9.21444 
-64.4844 1.23149 -13.5595 -16.0145 -2.33973 -13.5595 72.9384 -5.33716 -13.5595 
72.8468 -2.59246 -13.5595 -72.5627 2.74114 -10.6298 -63.2056 2.74114 -13.5595 
-64.4844 2.74114 -13.1043 -19.8286 2.74114 -13.5595 -13.8015 2.74114 -13.5595 
-16.0145 2.74114 -12.9039 70.2891 2.74114 -13.5595 64.7685 6.47867 -13.5595 
72.8468 2.74114 -13.2 -72.5627 10.8194 -9.30882 -61.1065 10.8194 -13.5595 
-64.4844 10.8194 -12.1862 -56.4061 17.7051 -13.5595 -16.0158 10.8194 -13.5595 
-16.0138 10.8194 -13.5595 -16.0145 10.821 -13.5595 -16.0145 10.8194 -13.5593 
63.7478 10.8194 -13.5595 64.7685 13.4218 -13.5595 64.7685 10.8194 -13.1725 
72.8468 10.8194 -11.0574 -64.4844 18.8978 -10.9828 -55.5492 18.8978 -13.5595 
-56.4061 18.8978 -13.23 -48.3278 24.6552 -13.5595 -24.0928 26.2957 -13.5595 
48.6119 26.4234 -13.5595 56.6902 22.9783 -13.5595 65.843 18.8978 -13.5595 
64.7685 20.032 -13.5595 -56.4061 26.9761 -10.7388 -43.5854 26.9761 -13.5595 
-48.3278 26.9761 -12.1883 -40.2495 28.5062 -13.5595 -30.1219 26.9761 -13.5595 
-32.1712 27.0785 -13.5595 -18.9987 26.9761 -13.5595 -24.0928 26.9761 -13.3842 
-16.0145 27.1053 -13.5595 -7.93623 28.428 -13.5595 0.142073 31.1271 -13.5595 
8.22038 33.6796 -13.5595 32.4553 32.1119 -13.5595 47.7568 26.9761 -13.5595 
40.5336 30.4002 -13.5595 48.6119 26.9761 -13.2289 56.6902 26.9761 -12.1818 
-40.2495 35.0544 -5.99234 -32.1712 35.0544 -5.99224 0.142073 35.0544 -6.41316 
15.3682 35.0544 -13.5595 8.22038 35.0544 -11.8169 16.2987 35.1683 -13.5595 
26.8263 35.0544 -13.5595 24.377 35.6706 -13.5595 32.4553 35.0544 -11.4081 
40.5336 35.0544 -8.4153 -48.3278 -30.0141 -5.48118 -40.2495 -31.901 -5.48118 
-32.1712 -32.0156 -5.48118 -24.0928 -32.3916 -5.48118 -16.0145 -32.3763 -5.48118 
-7.93623 -32.5599 -5.48118 0.142073 -34.0217 -5.48118 8.22038 -34.7481 -5.48118 
16.2987 -34.7918 -5.48118 24.377 -35.3995 -5.48118 32.4553 -35.9241 -5.48118 
32.4553 -37.6504 1.17738 40.5336 -36.5965 -5.48118 48.6119 -35.7888 -5.48118 
56.6902 -33.9029 -5.48118 64.7685 -30.7786 -5.48118 -64.4844 -23.632 -5.48118 
-50.2497 -29.5721 -5.48118 -56.4061 -28.2069 -5.48118 -56.4061 -29.5721 -3.03053 
66.0306 -29.5721 -5.48118 64.7685 -29.5721 -0.753288 72.8468 -22.8816 -5.48118 
-66.2773 -21.4938 -5.48118 -72.5627 -19.1147 -5.48118 -72.5627 -21.4938 -0.427148 
73.9757 -21.4938 -5.48118 72.8468 -21.4938 -1.24352 -77.7272 -13.4155 -5.48118 
77.9568 -13.4155 -5.48118 -77.4358 -5.33716 -5.48118 -80.641 -5.33716 1.11075 
79.8939 -5.33716 -5.48118 -77.4233 2.74114 -5.48118 78.6725 2.74114 -5.48118 
-76.3223 10.8194 -5.48118 -72.5627 16.7524 -5.48118 77.4965 10.8194 -5.48118 
72.8468 18.5127 -5.48118 -70.4987 18.8978 -5.48118 -64.4844 25.7194 -5.48118 
72.598 18.8978 -5.48118 64.7685 26.284 -5.48118 -63.059 26.9761 -5.48118 
-56.4061 30.5676 -5.48118 -48.3278 33.5852 -5.48118 -24.0928 34.9215 -5.48118 
-16.0145 33.3766 -5.48118 -7.93623 33.4016 -5.48118 48.6119 34.4877 -5.48118 
63.6248 26.9761 -5.48118 56.6902 31.216 -5.48118 -41.5221 35.0544 -5.48118 
-40.2495 35.31 -5.48118 -26.4894 35.0544 -5.48118 -32.1712 35.3244 -5.48118 
-24.0928 35.0544 -2.48564 -1.17208 35.0544 -5.48118 0.142073 35.4107 -5.48118 
0.142073 35.0544 1.48349 8.22038 37.6656 -5.48118 16.2987 39.0383 -5.48118 
24.377 39.2807 -5.48118 32.4553 38.5549 -5.48118 46.8944 35.0544 -5.48118 
40.5336 36.8306 -5.48118 32.4553 -37.9884 2.59712 -56.4061 -31.8639 2.59712 
-48.3278 -34.0743 2.59712 -40.2495 -34.481 2.59712 -32.1712 -34.6075 2.59712 
-24.0928 -34.7351 2.59712 -16.0145 -34.3707 2.59712 -7.93623 -34.3784 2.59712 
0.142073 -35.6741 2.59712 8.22038 -37.0022 2.59712 16.2987 -37.3513 2.59712 
27.0254 -37.6504 2.59712 24.377 -37.4895 2.59712 35.8692 -37.6504 2.59712 
32.4553 -37.6504 3.27805 40.5336 -37.1356 2.59712 48.6119 -36.1933 2.59712 
56.6902 -33.8482 2.59712 -72.5627 -23.41 2.59712 -63.7577 -29.5721 2.59712 
-64.4844 -29.3193 2.59712 40.5336 -29.5721 9.99402 48.6119 -29.5721 10.4186 
63.682 -29.5721 2.59712 56.6902 -29.5721 6.96862 64.7685 -28.7229 2.59712 
-74.0864 -21.4938 2.59712 -72.5627 -21.4938 6.11815 71.683 -21.4938 2.59712 
64.7685 -21.4938 7.64218 72.8468 -19.4994 2.59712 -80.3831 -13.4155 2.59712 
-80.641 -10.653 2.59712 64.7685 -13.4155 9.96478 75.8871 -13.4155 2.59712 
-81.0397 -5.33716 2.59712 -80.641 -3.47176 2.59712 -80.641 -5.33716 3.40306 
78.0858 -5.33716 2.59712 72.8468 -5.33716 6.97798 -79.2472 2.74114 2.59712 
77.4608 2.74114 2.59712 72.8468 2.74114 6.50512 -76.4524 10.8194 2.59712 
-72.5627 16.1894 2.59712 -72.5627 10.8194 7.43623 64.7685 10.8194 9.44508 
75.9174 10.8194 2.59712 72.8468 15.2825 2.59712 72.8468 10.8194 7.02831 
-69.873 18.8978 2.59712 -64.4844 24.4172 2.59712 -64.4844 18.8978 7.52246 
70.1309 18.8978 2.59712 64.7685 23.8558 2.59712 64.7685 18.8978 6.28172 
-61.0447 26.9761 2.59712 -56.4061 29.646 2.59712 -56.4061 26.9761 6.27427 
-48.3278 33.166 2.59712 -16.0145 33.8697 2.59712 -7.93623 33.7044 2.59712 
0.142073 35.0033 2.59712 40.5336 26.9761 9.98153 48.6119 32.9479 2.59712 
48.6119 26.9761 9.23345 60.9491 26.9761 2.59712 56.6902 30.8286 2.59712 
56.6902 26.9761 5.5118 -40.8361 35.0544 2.59712 -40.2495 35.167 2.59712 
-40.2495 35.0544 2.82836 -32.1712 35.4052 2.59712 -32.1712 35.0544 3.56424 
-22.9627 35.0544 2.59712 -24.0928 35.2484 2.59712 -24.0928 35.0544 3.11743 
0.46468 35.0544 2.59712 8.22038 36.3156 2.59712 8.22038 35.0544 5.20465 
16.2987 37.1333 2.59712 16.2987 35.0544 5.92699 24.377 37.4006 2.59712 
24.377 35.0544 6.32349 32.4553 37.0242 2.59712 32.4553 35.0544 5.36028 
40.7025 35.0544 2.59712 40.5336 35.109 2.59712 40.5336 35.0544 2.66791 
-56.4061 -29.8362 10.6754 -48.3278 -32.2913 10.6754 -40.2495 -32.1326 10.6754 
-32.1712 -32.6418 10.6754 -24.0928 -31.8745 10.6754 -16.0145 -30.6933 10.6754 
-7.93623 -29.8974 10.6754 0.142073 -30.773 10.6754 8.22038 -33.0708 10.6754 
[...]
POINT_DATA 594
SCALARS ImageScalars float
LOOKUP_TABLE default
0 0 0 0 0 0 0 0 0 
0 0 0 0 0 0 0 0 0 
0 0 0 0 0 0 0 0 0 
0 0 0 0 0 0 0 0 0 
0 0 0 0 0 0 0 0 0 
0 0 0 0 0 0 0 0 0 
0 0 0 0 0 0 0 0 0 
0 0 0 0 0 0 0 0 0 
0 0 0 0 0 0 0 0 0 
0 0 0 0 0 0 0 0 0 
0 0 0 0 0 0 0 0 0 
0 0 0 0 0 0 0 0 0 
0 0 0 0 0 0 0 0 0 
0 0 0 0 0 0 0 0 0 
0 0 0 0 0 0 0 0 0 
0 0 0 0 0 0 0 0 0 
0 0 0 0 0 0 0 0 0 
0 0 0 0 0 0 0 0 0 
0 0 0 0 0 0 0 0 0 
0 0 0 0 0 0 0 0 0 
0 0 0 0 0 0 0 0 0 
0 0 0 0 0 0 0 0 0 
0 0 0 0 0 0 0 0 0 
0 0 0 0 0 0 0 0 0 
0 0 0 0 0 0 0 0 0 
0 0 0 0 0 0 0 0 0 
0 0 0 0 0 0 0 0 0 
0 0 0 0 0 0 0 0 0 
0 0 0 0 0 0 0 0 0 
0 0 0 0 0 0 0 0 0 
0 0 0 0 0 0 0 0 0 
0 0 0 0 0 0 0 0 0 
0 0 0 0 0 0 0 0 0 
0 0 0 0 0 0 0 0 0 
0 0 0 0 0 0 0 0 0 
0 0 0 0 0 0 0 0 0 
0 0 0 0 0 0 0 0 0 
0 0 0 0 0 0 0 0 0 
0 0 0 0 0 0 0 0 0 
0 0 0 0 0 0 0 0 0 
0 0 0 0 0 0 0 0 0 
0 0 0 0 0 0 0 0 0 
0 0 0 0 0 0 0 0 0 
0 0 0 0 0 0 0 0 0 
0 0 0 0 0 0 0 0 0 
0 0 0 0 0 0 0 0 0 
0 0 0 0 0 0 0 0 0 
0 0 0 0 0 0 0 0 0 
0 0 0 0 0 0 0 0 0 
0 0 0 0 0 0 0 0 0 
0 0 0 0 0 0 0 0 0 
0 0 0 0 0 0 0 0 0 
0 0 0 0 0 0 0 0 0 
0 0 0 0 0 0 0 0 0 
0 0 0 0 0 0 0 0 0 
0 0 0 0 0 0 0 0 0 
0 0 0 0 0 0 0 0 0 
0 0 0 0 0 0 0 0 0 
0 0 0 0 0 0 0 0 0 
0 0 0 0 0 0 0 0 0 
0 0 0 0 0 0 0 0 0 
0 0 0 0 0 0 0 0 0 
0 0 0 0 0 0 0 0 0 
0 0 0 0 0 0 0 0 0 
0 0 0 0 0 0 0 0 0 
0 0 0 0 0 0 0 0 0 

NORMALS Normals float
-0.0180235 0.50082 0.865364 -0.00293351 0.245095 0.969495 0.107828 0.272535 0.956085 
0.0367917 0.237319 0.970735 0.0330732 0.241544 0.969826 -0.0922219 0.161731 0.982516 
0.0683097 0.23834 0.968776 0.00718654 0.189119 0.981928 -0.000127407 0.138259 0.990396 
-0.0262938 0.0421936 0.998763 -0.0631654 0.0264235 0.997653 0.0898209 0.160272 0.982978 
0.0358476 0.197195 0.979709 0.0430516 0.299563 0.953105 0.0510703 0.0430894 0.997765 
0.0805087 0.0497968 0.995509 0.0265552 0.125269 0.991767 -0.0591095 0.0646589 0.996155 
-0.218141 0.245713 0.944479 0.244619 0.0279234 0.969217 0.0234012 0.201787 0.97915 
0.0448145 0.0792847 0.995844 -0.0321992 0.145227 0.988874 -0.110965 0.0406874 0.992991 
-0.0747922 -0.0155483 0.997078 0.0597344 -0.114082 0.991674 0.122649 0.138261 0.982772 
0.11797 0.0719123 0.99041 0.202434 0.226461 0.952752 -0.174428 0.363183 0.915245 
-0.14665 0.0126916 0.989107 0.115814 0.0261423 0.992927 0.0558013 0.00971926 0.998395 
0.0318876 0.0467664 0.998397 -0.181583 0.117438 0.976338 -0.193287 0.0707398 0.978589 
-0.690691 0.166796 0.703651 0.207168 0.0366267 0.97762 0.00948652 0.0451691 0.998934 
-0.0410917 0.0737942 0.996427 -0.160935 0.0500776 0.985694 -0.173861 0.0307158 0.984291 
0.184724 0.0495522 0.98154 0.161794 0.13871 0.977027 0.282031 -0.00715681 0.959379 
-0.197061 -0.116595 0.973433 -0.173648 0.112749 0.978332 0.0674843 0.0598345 0.995925 
0.0469524 0.0108878 0.998838 0.0453759 -0.028325 0.998568 -0.176414 -0.056109 0.982716 
-0.214833 -0.0332598 0.976084 0.266376 -0.202967 0.942257 0.0843706 -0.0255501 0.996107 
-0.0283743 -0.0500872 0.998342 -0.151979 0.0544241 0.986884 -0.150939 0.0565797 0.986923 
0.294575 0.0442092 0.954605 0.0694195 0.139034 0.987852 0.0388582 -0.0274838 0.998867 
-0.0389477 -0.124018 0.991515 -0.0889789 0.0804245 0.992781 0.0254787 0.0496299 0.998443 
-0.0326507 -0.0219664 0.999225 -0.0356634 0.0497287 0.998126 -0.197221 -0.192065 0.961361 
0.142378 -0.205055 0.968339 0.0364148 -0.191362 0.980844 -0.055435 -0.135207 0.989265 
-0.126485 -0.0650977 0.98983 0.0694669 0.00678566 0.997561 0.219315 -0.0822477 0.972181 
0.0805649 -0.0800306 0.993531 -0.00767997 -0.0209894 0.99975 -0.0358975 -0.0678352 0.997051 
-0.0578915 -0.00868032 0.998285 -0.0423244 -0.0602501 0.997286 0.0511011 -0.114622 0.992094 
-0.0958689 -0.145069 0.984766 -0.211229 -0.240743 0.947325 -0.336333 -0.255057 0.906546 
0.0701837 -0.363593 0.92891 -0.0599949 -0.425058 0.903175 0.0746241 -0.420091 0.904409 
0.171595 -0.467283 0.867296 0.147175 -0.399923 0.904655 0.0560136 -0.270799 0.961005 
-0.0226436 -0.227139 0.973599 -0.0866233 -0.179549 0.979928 -0.0727596 -0.27841 0.957702 
-0.136274 -0.339985 0.930505 0.0819731 -0.683597 0.725242 -0.0934153 -0.644067 0.759244 
-0.0133679 0.549307 0.835514 0.201478 0.715833 0.668573 0.100635 0.700404 0.706616 
0.0410629 0.717821 0.695016 0.0236737 0.712137 0.701642 -0.00191501 0.727938 0.68564 
0.0861167 0.685064 0.723375 0.0816023 0.605917 0.791331 -0.00478768 0.259629 0.965697 
-0.0242687 0.563566 0.825714 0.028591 0.557503 0.829682 0.103931 0.337425 0.935597 
0.113256 0.544694 0.830952 0.0554431 0.327301 0.943292 0.0711654 0.482347 0.873084 
0.0455032 0.520032 0.852934 0.0909252 0.401341 0.911405 0.111882 0.584772 0.803445 
-0.124216 0.500789 0.85661 -0.344379 0.564932 0.749837 -0.557543 0.72218 0.409392 
0.435805 0.449526 0.779744 0.214266 0.443665 0.870202 0.0442513 0.323538 0.94518 
0.024301 0.432017 0.901538 0.0397891 0.301283 0.952704 0.0592114 0.388254 0.919648 
0.029055 0.287389 0.957373 0.0438722 0.361052 0.931513 0.0425361 0.271196 0.961584 
0.0441005 0.276454 0.960015 -0.0640952 0.297914 0.952439 -0.0637901 0.310883 0.948305 
-0.00825103 0.246813 0.969028 0.0351101 0.228399 0.972934 0.0804593 0.197529 0.976989 
0.0781872 0.211196 0.974311 0.0191562 0.258463 0.965831 0.0613976 0.277481 0.958767 
0.0501947 0.275879 0.959881 0.0485204 0.278937 0.959083 -0.122362 0.200097 0.972105 
-0.127723 0.204781 0.970439 -0.125164 0.205494 0.970622 -0.443011 0.376778 0.813498 
-0.730163 0.581145 0.359349 0.422668 0.228253 0.87707 0.259564 0.34754 0.901023 
0.25394 0.440134 0.861276 0.115996 0.160808 0.980146 0.104088 0.154058 0.982564 
0.12545 0.149741 0.980734 -0.0326571 0.160507 0.986494 -0.0219368 0.166689 0.985766 
-0.0259272 0.165509 0.985868 -0.0313956 0.167104 0.985439 -0.240116 0.0863094 0.9669 
-0.204861 0.0614022 0.976863 -0.261935 0.0575928 0.963365 -0.701154 0.181814 0.689439 
-0.686323 0.358356 0.632884 0.368238 0.0807486 0.926218 0.598541 0.0231696 0.800757 
0.260317 -0.174514 0.949621 0.0593777 -0.0803189 0.994999 -0.708414 0.168127 0.685481 
-0.721537 0.0529118 0.690351 0.70143 -0.014392 0.712593 0.253872 -0.181548 0.950047 
0.268983 -0.207911 0.940437 -0.0503375 0.00195639 0.99873 0.082969 -0.0106517 0.996495 
0.0555626 -0.0245651 0.998153 -0.527544 -0.115713 0.84161 -0.248011 -0.00557977 0.968741 
-0.737789 -0.161367 0.65546 0.613471 -0.329411 0.717734 0.31998 -0.125639 0.939057 
0.36243 -0.118106 0.924497 0.283099 -0.223826 0.932608 0.052689 0.102461 0.993341 
0.0527418 0.102466 0.993337 0.0527245 0.102451 0.99334 0.0527203 0.102469 0.993338 
-0.274759 0.00247312 0.96151 -0.308126 -0.0727058 0.948563 -0.293351 0.0163846 0.955864 
-0.698929 -0.387872 0.600877 0.561067 -0.422795 0.711651 0.270979 -0.227207 0.935386 
0.292415 -0.23578 0.926769 0.164186 -0.405086 0.899416 -0.00873908 -0.390792 0.920438 
-0.191785 -0.481516 0.855196 -0.249651 -0.361053 0.898507 -0.387707 -0.297866 0.87233 
-0.378615 -0.328388 0.865339 0.357262 -0.625607 0.693527 0.111847 -0.413252 0.903722 
0.189243 -0.540802 0.819586 0.0682192 -0.441752 0.89454 -0.0456796 -0.424223 0.904405 
-0.0609741 -0.429624 0.900947 0.0484293 -0.421026 0.905755 0.000296601 -0.425773 0.90483 
0.074155 -0.428358 0.900561 0.174952 -0.557522 0.811518 0.21648 -0.639687 0.737521 
0.160152 -0.667916 0.726801 -0.169302 -0.486185 0.857299 -0.188383 -0.484024 0.854536 
-0.166739 -0.52519 0.83449 -0.198928 -0.510311 0.836666 -0.346087 -0.55262 0.758179 
0.0989634 -0.956242 0.275333 -0.0257182 -0.953801 0.299335 0.264934 -0.943589 0.198619 
0.0928281 -0.692165 0.715745 0.190309 -0.812932 0.550386 0.082235 -0.68956 0.719545 
-0.137758 -0.640814 0.755235 -0.0874797 -0.685855 0.722461 -0.226705 -0.721205 0.654574 
-0.238463 -0.886693 0.396119 0.200968 0.731447 0.651611 0.089071 0.811865 0.577011 
0.0279835 0.839944 0.541951 0.0208723 0.857651 0.513809 0.00958442 0.865109 0.501493 
0.0947391 0.854916 0.510043 0.123727 0.868553 0.479903 0.0440397 0.847512 0.528947 
0.0342363 0.804973 0.592323 0.0590566 0.861611 0.504122 0.0598245 0.905066 0.421042 
-0.00421489 0.998837 -0.048031 -0.00170049 0.908855 0.417109 -0.145261 0.927808 0.343616 
-0.259603 0.907432 0.330415 -0.586805 0.739019 0.330923 0.4388 0.517205 0.734815 
0.18255 0.738971 0.648535 0.156445 0.771446 0.616763 0.187102 0.872215 0.451922 
-0.629631 0.724839 0.279594 -0.636385 0.770872 -0.0277355 -0.72731 0.645501 0.233126 
0.474229 0.51833 0.711647 0.53618 0.660645 0.525414 0.685487 0.706064 0.177712 
-0.75491 0.605995 0.250761 -0.810817 0.58415 0.036674 0.804774 0.347988 0.480878 
-0.896734 0.315354 0.310515 0.824043 -0.0205835 0.566153 0.998077 -0.0507511 -0.0355838 
-0.884232 0.0963401 0.457005 0.85458 -0.0728565 0.514184 -0.913015 -0.144972 0.381296 
0.887963 -0.284772 0.361146 0.704887 -0.603489 0.37274 -0.888241 -0.342911 0.305678 
-0.80923 -0.539771 0.231937 0.669542 -0.665486 0.32991 0.641472 -0.716087 0.275196 
-0.802754 -0.551109 0.227741 -0.539911 -0.821237 0.184569 0.601352 -0.755962 0.258644 
0.433843 -0.86863 0.239295 0.271756 -0.934848 0.228488 -0.117153 -0.94148 0.316055 
-0.0842634 -0.946833 0.310495 0.125251 -0.96352 0.236519 -0.322617 -0.933821 0.154586 
-0.520898 -0.832709 0.18778 -0.445619 -0.861954 0.241783 0.129571 -0.96321 0.235453 
0.102754 -0.964803 0.242066 -0.088937 -0.94964 0.300455 -0.0229125 -0.962336 0.270895 
-0.111667 -0.984616 0.134395 0.238716 -0.958131 0.15811 0.263374 -0.95347 0.146726 
0.172052 -0.97765 -0.120827 0.208084 -0.973555 0.0943002 0.0993548 -0.99178 0.0806307 
-0.0303309 -0.995491 0.0898789 -0.157134 -0.976484 0.147606 -0.307774 -0.93946 0.150629 
-0.25062 -0.948287 0.194784 -0.0185589 0.990814 -0.133952 0.298583 0.95156 0.0733639 
0.150682 0.984902 0.08522 0.0360506 0.999022 0.0256138 0.0156251 0.999149 0.0381606 
-0.014698 0.999553 -0.0260203 -0.0223451 0.997018 -0.0738573 0.0807246 0.989742 -0.117876 
0.172201 0.975488 -0.137002 0.102125 0.992239 -0.0709391 0.0302845 0.998428 -0.0471696 
0.020704 0.995592 -0.0914815 0.0378215 0.996523 -0.0742406 -0.0576678 0.98171 -0.181436 
-0.0267581 0.982509 -0.184281 -0.108747 0.960942 -0.25449 -0.197549 0.924432 -0.32619 
-0.397338 0.864507 -0.307813 0.748767 0.661666 0.0393193 0.37474 0.926047 -0.0447999 
0.386798 0.920896 -0.0483629 -0.0794126 0.513575 -0.854362 -0.204938 0.543998 -0.813675 
-0.596445 0.751565 -0.281786 -0.332551 0.59353 -0.732893 -0.616411 0.733298 -0.286899 
0.751807 0.657203 0.0535815 0.741962 0.643786 -0.187168 -0.820713 0.521595 -0.23317 
-0.352165 0.288979 -0.890209 -0.836597 0.514446 -0.188285 0.926588 0.360375 -0.107539 
0.971203 0.211383 -0.109915 -0.00573714 0.339276 -0.940669 -0.878521 0.428777 -0.210596 
0.992186 -0.067661 -0.10483 0.989595 -0.116136 -0.0849381 0.986134 -0.0475923 -0.158981 
-0.907708 0.0939698 -0.408946 -0.561844 -0.184488 -0.806409 0.957667 -0.286923 -0.0234502 
-0.896295 -0.117662 -0.427563 -0.599092 -0.0189653 -0.800456 0.882352 -0.422831 -0.206566 
0.723056 -0.644529 -0.24854 0.683905 -0.398325 -0.611237 -0.421749 -0.348995 -0.836857 
-0.811604 -0.377481 -0.445878 -0.717862 -0.514906 -0.468557 -0.582768 -0.263393 -0.768769 
0.641474 -0.722682 -0.257376 0.571984 -0.715845 -0.4005 0.457324 -0.692313 -0.558173 
-0.652695 -0.512744 -0.557748 -0.505112 -0.702729 -0.501033 -0.461557 -0.401779 -0.79091 
0.525138 -0.747217 -0.407304 0.440658 -0.833944 -0.332203 0.474539 -0.708461 -0.522395 
0.316904 -0.890964 -0.325199 -0.0927792 -0.990019 -0.106089 0.0694682 -0.993417 -0.0910912 
0.156538 -0.974216 -0.162475 -0.137683 -0.49174 -0.859788 -0.201291 -0.929973 -0.307623 
-0.250271 -0.393963 -0.884397 -0.510729 -0.730936 -0.452646 -0.494861 -0.765974 -0.41036 
-0.459291 -0.563944 -0.686308 0.128615 -0.956487 -0.261898 0.113663 -0.959578 -0.257471 
0.117143 -0.955885 -0.269373 0.0046969 -0.984965 -0.172689 0.0114068 -0.976186 -0.216635 
-0.0946947 -0.983085 -0.156768 -0.0947721 -0.981743 -0.164922 -0.0916357 -0.977919 -0.187823 
0.155591 -0.973428 -0.168014 0.127617 -0.943413 -0.30608 0.0775207 -0.909338 -0.408773 
0.065257 -0.914252 -0.399856 0.0364486 -0.841061 -0.539711 -0.00573002 -0.913564 -0.406654 
-0.0253026 -0.817782 -0.574971 -0.11831 -0.897486 -0.424879 -0.140239 -0.814569 -0.562859 
-0.258409 -0.858372 -0.443196 -0.26026 -0.855894 -0.446889 -0.258442 -0.854721 -0.450178 
0.290146 0.821008 -0.491692 0.13177 0.857136 -0.497949 0.0201233 0.860844 -0.508471 
-0.0146835 0.857024 -0.515067 -0.105508 0.815549 -0.568988 -0.106816 0.750535 -0.652141 
-0.00093686 0.66396 -0.747767 0.154218 0.610575 -0.776798 0.134992 0.713248 -0.68779 
-0.0166681 0.719497 -0.694296 -0.0930218 0.593569 -0.799389 -0.147888 0.525922 -0.837577 
0.295814 0.818119 -0.493128 0.429479 0.720476 -0.544483 0.286764 0.812119 -0.508162 
0.133465 0.70905 -0.692413 0.0120757 0.748375 -0.663166 -0.0269055 0.705126 -0.708572 
-0.105356 0.692019 -0.71415 -0.119804 0.696602 -0.707385 -0.00500037 0.647987 -0.761635 
0.148896 0.546525 -0.8241 0.124676 0.512989 -0.849293 -0.0670831 0.496714 -0.865318 
-0.090309 0.427234 -0.89962 -0.105153 0.472706 -0.874924 -0.151002 0.42855 -0.890811 
-0.0845887 0.447771 -0.890138 -0.19467 0.465517 -0.863364 -0.276171 0.361757 -0.890428 
0.607382 0.569306 -0.554056 0.68199 0.474758 -0.556322 0.407001 0.462903 -0.787446 
0.226865 0.356035 -0.906516 0.0541273 0.341242 -0.938416 -0.0910955 0.320356 -0.942907 
-0.123368 0.285504 -0.950404 -0.161412 0.316727 -0.934682 -0.11772 0.357886 -0.926315 
0.0687971 0.202732 -0.976815 0.13694 0.165799 -0.976605 -0.0579998 0.259823 -0.963913 
-0.178438 0.157032 -0.97134 -0.0540564 0.133604 -0.989559 -0.119575 0.199986 -0.972475 
-0.136803 0.161805 -0.977294 -0.275966 0.294837 -0.91483 -0.288032 0.31567 -0.904096 
-0.359923 0.2349 -0.902927 0.734633 0.244501 -0.632878 0.601043 0.26318 -0.754641 
0.242289 0.175153 -0.954263 -0.0882333 0.134097 -0.987032 -0.159943 0.203246 -0.965976 
-0.0526941 0.209887 -0.976305 0.186762 0.0446295 -0.981391 -0.0823494 0.265833 -0.960495 
-0.23885 0.0613233 -0.969118 -0.0956582 -0.00553254 -0.995399 -0.0732038 0.00146572 -0.997316 
-0.11262 0.177079 -0.977732 -0.042186 0.237162 -0.970554 -0.168262 0.0490253 -0.984522 
-0.0510425 0.223159 -0.973445 -0.114926 0.274802 -0.954608 -0.543142 -0.0663686 -0.837014 
-0.348167 -0.219833 -0.911292 -0.27966 -0.0961498 -0.955272 0.722395 0.00319804 -0.691473 
0.500113 -0.124738 -0.856929 0.17028 -0.208559 -0.963072 0.193278 -0.0171152 -0.980995 
-0.0897433 0.0789262 -0.992833 0.0156451 -0.143155 -0.989577 0.146752 -0.0441088 -0.988189 
-0.444551 0.0880437 -0.891416 -0.0872064 -0.0319789 -0.995677 0.0645234 0.0319676 -0.997404 
-0.0787162 0.0448197 -0.995889 -0.134322 0.0446356 -0.989932 -0.444318 -0.0294606 -0.895384 
-0.433739 0.0925638 -0.896271 0.399181 -0.381046 -0.833942 0.377189 -0.400816 -0.83491 
0.365751 -0.405923 -0.837528 0.37153 -0.200341 -0.906548 0.0276163 -0.213359 -0.976584 
-0.0147032 -0.16627 -0.985971 0.0522315 0.0171117 -0.998488 -0.40987 -0.0156487 -0.91201 
-0.122983 0.066242 -0.990195 0.00102446 -0.0149533 -0.999888 -0.100623 -0.0743726 -0.992141 
-0.13588 0.0564068 -0.989118 -0.454974 -0.10312 -0.884514 -0.430892 -0.247863 -0.867696 
-0.44679 -0.150226 -0.881936 0.486201 -0.301691 -0.820117 0.400785 -0.520404 -0.754023 
0.363688 -0.254999 -0.895939 0.261551 -0.388519 -0.883541 0.0927911 -0.2308 -0.968567 
0.130094 -0.178974 -0.975215 0.0556071 0.140412 -0.98853 -0.165865 0.0460969 -0.98507 
-0.047748 -0.247836 -0.967625 -0.179337 -0.0878455 -0.979858 -0.129832 0.0149132 -0.991424 
-0.0736795 -0.036904 -0.996599 -0.0243397 -0.156386 -0.987396 -0.351795 -0.303199 -0.885613 
-0.164484 -0.0658275 -0.984181 0.364975 -0.563499 -0.741122 0.411496 -0.521031 -0.747795 
0.300935 -0.420212 -0.856072 0.208042 -0.375338 -0.903239 0.196758 -0.317791 -0.927521 
0.184513 -0.260204 -0.94776 -0.117443 -0.182576 -0.976152 0.000498283 -0.0277541 -0.999615 
-0.0371272 -0.277948 -0.959878 -0.136498 -0.165259 -0.976759 -0.0969039 -0.247217 -0.964102 
-0.100574 -0.195846 -0.975464 -0.0973586 -0.18084 -0.978682 -0.141502 -0.428713 -0.89229 
-0.165367 -0.208612 -0.963916 -0.189884 -0.257288 -0.947495 -0.15112 -0.231159 -0.961108 
-0.325635 -0.522223 -0.78819 -0.325316 -0.522661 -0.788032 -0.325168 -0.52221 -0.788393 
0.280256 -0.581261 -0.763932 0.266073 -0.584023 -0.766892 0.264164 -0.576834 -0.772968 
0.204599 -0.619446 -0.757909 0.206422 -0.536325 -0.81838 0.100896 -0.756732 -0.645893 
0.164725 -0.533234 -0.829775 -0.00956663 -0.808823 -0.587975 0.0540641 -0.613577 -0.787782 
0.00646963 -0.853845 -0.520488 0.00308523 -0.57925 -0.815144 0.0474306 -0.85265 -0.520325 
0.00139954 -0.517144 -0.855897 -0.0146227 -0.824384 -0.565841 -0.0912736 -0.520742 -0.848821 
-0.0792354 -0.685551 -0.723699 -0.137544 -0.478053 -0.867495 -0.040024 -0.60606 -0.794411 
-0.0713625 -0.470844 -0.879326 -0.0652944 -0.543546 -0.836836 -0.0845803 -0.416379 -0.905248 
-0.136097 -0.451175 -0.881997 -0.137963 -0.477639 -0.867656 -0.136325 -0.41849 -0.897932 
-0.00709691 0.392451 -0.919746 0.200697 0.209897 -0.956903 0.0403719 0.338851 -0.939973 
0.0557562 0.318546 -0.946266 -0.068076 0.324757 -0.943344 -0.0044318 0.339991 -0.940418 
-0.0908989 0.283642 -0.954612 -0.130994 0.158171 -0.978684 0.172439 0.0583144 -0.983293 
0.184435 -0.00980199 -0.982796 0.158692 0.0116757 -0.987259 0.076918 0.121989 -0.989546 
-0.0484451 0.0527417 -0.997432 -0.0806313 0.113452 -0.990266 -0.122987 0.127972 -0.984123 
-0.133351 0.127788 -0.982796 -0.107779 0.446674 -0.888182 -0.0760949 0.261464 -0.962209 
0.18848 -0.0211862 -0.981849 0.21734 -0.076376 -0.973103 0.0307464 -0.209675 -0.977288 
0.110553 -0.128114 -0.985579 -0.00990829 -0.0676282 -0.997661 -0.0346752 -0.00596088 -0.999381 
-0.0909943 0.0804405 -0.992597 -0.107398 0.0829184 -0.990752 -0.133739 0.0696847 -0.988564 
-0.0476945 0.173664 -0.983649 -0.0785428 0.396525 -0.914658 -0.111796 0.45158 -0.885199 
0.0757405 0.0422653 -0.996231 -0.315031 0.137908 -0.939008 0.000268063 0.167357 -0.985896 
0.241303 -0.136894 -0.960746 0.130244 -0.175816 -0.975769 0.241673 -0.144502 -0.959538 
0.238646 -0.132001 -0.962093 0.0338521 -0.206391 -0.977884 0.0971599 -0.166466 -0.981249 
0.0752006 -0.161546 -0.983996 0.0693837 -0.0663367 -0.995382 -0.0418921 0.0513036 -0.997804 
-0.266168 0.00837609 -0.96389 -0.296153 0.030369 -0.954657 0.122315 0.00125911 -0.99249 
-0.000800196 0.0655182 -0.997851 0.0366071 0.126084 -0.991344 0.0132676 -0.162078 -0.986689 
-0.18621 -0.155907 -0.970061 -0.00167027 -0.25351 -0.967331 0.0580395 -0.251101 -0.966219 
0.163545 -0.143615 -0.976026 0.181513 -0.175535 -0.967595 0.179814 -0.123803 -0.975879 
-0.00518612 -0.0599436 -0.998188 -0.250175 -0.0362891 -0.96752 -0.217097 -0.110688 -0.969854 
-0.287636 -0.0559311 -0.956105 0.07939 -0.0570656 -0.995209 -0.095656 -0.0844086 -0.991829 
-0.024382 -0.274984 -0.96114 0.0490135 -0.225092 -0.973104 0.089673 -0.276962 -0.956687 
-0.0553125 -0.228367 -0.972003 0.0335379 -0.335027 -0.941612 0.026722 -0.285716 -0.957942 

