# vtk DataFile Version 4.2
vtk output
ASCII
DATASET POLYDATA
POINTS 516 float
-12.0297 29.6096 -22.6492 -36.1595 -26.6933 -17.0811 -28.1162 -26.6933 -17.8947 
-20.073 -26.6933 -17.8019 -12.0297 -26.6933 -17.0038 -3.98643 -26.6933 -16.412 
4.05684 -26.6933 -15.2033 12.1001 -26.6933 -14.7911 20.1434 -26.6933 -15.6989 
28.1866 -26.6933 -16.7443 36.2299 -26.6933 -15.8091 -44.2028 -18.65 -18.4656 
-36.1595 -18.65 -20.1219 -28.1162 -18.65 -20.2894 -20.073 -18.65 -19.3584 
-12.0297 -18.65 -18.851 -3.98643 -18.65 -19.0426 4.05684 -18.65 -18.3496 
12.1001 -18.65 -17.1736 20.1434 -18.65 -18.3496 28.1866 -18.65 -19.0435 
36.2299 -18.65 -18.729 44.2732 -18.65 -17.4409 -52.246 -10.6067 -16.1492 
-44.2028 -10.6067 -20.0389 -36.1595 -10.6067 -21.3354 -28.1162 -10.6067 -21.1277 
-20.073 -10.6067 -19.857 -12.0297 -10.6067 -18.5887 -3.98643 -10.6067 -18.859 
4.05684 -10.6067 -19.1069 12.1001 -10.6067 -18.629 20.1434 -10.6067 -19.1541 
28.1866 -10.6067 -20.0483 36.2299 -10.6067 -20.5306 44.2732 -10.6067 -19.3187 
52.3165 -10.6067 -16.9869 -52.246 -2.56347 -16.9401 -44.2028 -2.56347 -20.2745 
-36.1595 -2.56347 -21.5985 -28.1162 -2.56347 -21.4062 -20.073 -2.56347 -20.4173 
-12.0297 -2.56347 -20.5365 -3.98643 -2.56347 -20.2327 4.05684 -2.56347 -19.6957 
12.1001 -2.56347 -20.85 20.1434 -2.56347 -19.4024 28.1866 -2.56347 -20.139 
36.2299 -2.56347 -20.7054 44.2732 -2.56347 -20.2071 52.3165 -2.56347 -17.9215 
-52.246 5.4798 -16.1441 -44.2028 5.4798 -20.0023 -36.1595 5.4798 -21.2591 
-28.1162 5.4798 -21.1777 -20.073 5.4798 -20.1314 -12.0297 5.4798 -20.4522 
-3.98643 5.4798 -21.1213 4.05684 5.4798 -20.7714 12.1001 5.4798 -21.0334 
20.1434 5.4798 -19.9489 28.1866 5.4798 -20.6351 36.2299 5.4798 -21.0654 
44.2732 5.4798 -20.6143 52.3165 5.4798 -18.5832 -44.2028 13.5231 -19.1846 
-36.1595 13.5231 -21.106 -28.1162 13.5231 -21.2153 -20.073 13.5231 -20.4291 
-12.0297 13.5231 -20.0164 -3.98643 13.5231 -20.0728 4.05684 13.5231 -20.4786 
12.1001 13.5231 -20.8727 20.1434 13.5231 -20.8282 28.1866 13.5231 -21.599 
36.2299 13.5231 -21.9092 44.2732 13.5231 -20.039 52.3165 13.5231 -16.9157 
-44.2028 21.5663 -16.452 -36.1595 21.5663 -19.2425 -28.1162 21.5663 -20.3164 
-20.073 21.5663 -21.0684 -12.0297 29.137 -22.5918 -12.0297 21.5663 -21.5874 
-3.98643 21.5663 -21.9511 4.05684 21.5663 -22.1012 12.1001 21.5663 -22.0381 
20.1434 21.5663 -21.8032 28.1866 21.5663 -21.2413 36.2299 21.5663 -20.4472 
44.2732 21.5663 -18.1432 -36.1595 29.6096 -15.5379 -28.1162 29.6096 -19.3418 
-12.2971 29.6096 -22.5918 -20.073 29.6096 -20.7999 -7.89258 29.6096 -22.5918 
-12.0297 29.8815 -22.5918 -3.98643 29.6096 -22.5324 4.05684 29.6096 -22.4191 
12.1001 29.6096 -22.1409 20.1434 29.6096 -21.5787 28.1866 29.6096 -20.2753 
36.2299 29.6096 -17.9609 -20.073 37.6529 -17.912 -12.0297 37.6529 -20.4536 
-3.98643 37.6529 -20.3902 4.05684 37.6529 -20.117 12.1001 37.6529 -19.8554 
20.1434 37.6529 -18.0029 28.1866 37.6529 -15.509 -36.1595 -29.8901 -14.5485 
-36.1595 -34.7365 -8.65144 -28.1162 -32.0539 -14.5485 -28.1162 -34.7365 -11.8304 
-20.073 -32.0928 -14.5485 -20.073 -34.7365 -12.4104 -12.0297 -31.1605 -14.5485 
-12.0297 -34.7365 -11.9659 -3.98643 -29.7672 -14.5485 -3.98643 -34.7365 -10.89 
4.05684 -27.8436 -14.5485 4.05684 -34.7365 -9.86268 12.1001 -27.1633 -14.5485 
12.1001 -34.7365 -9.78037 20.1434 -28.6534 -14.5485 20.1434 -34.7365 -10.5482 
28.1866 -30.4866 -14.5485 28.1866 -34.7365 -10.0522 36.2299 -28.3906 -14.5485 
36.2299 -34.7365 -6.95366 -42.7528 -26.6933 -14.5485 -44.2028 -25.7573 -14.5485 
-44.2028 -26.6933 -13.762 40.9479 -26.6933 -14.5485 44.2732 -24.8748 -14.5485 
44.2732 -26.6933 -13.2616 -50.0618 -18.65 -14.5485 -52.246 -14.8631 -14.5485 
-52.246 -18.65 -12.3436 50.7667 -18.65 -14.5485 52.3165 -17.0226 -14.5485 
52.3165 -18.65 -13.551 -54.0378 -10.6067 -14.5485 55.7668 -10.6067 -14.5485 
60.3597 -10.6067 -8.40291 -54.9729 -2.56347 -14.5485 57.4377 -2.56347 -14.5485 
60.3597 -2.56347 -11.3412 -54.0367 5.4798 -14.5485 -52.246 11.6209 -14.5485 
57.6496 5.4798 -14.5485 60.3597 5.4798 -11.081 -51.4278 13.5231 -14.5485 
-52.246 13.5231 -13.7375 55.3066 13.5231 -14.5485 52.3165 18.6765 -14.5485 
-46.7551 21.5663 -14.5485 -52.246 21.5663 -6.97949 -44.2028 24.4948 -14.5485 
49.9499 21.5663 -14.5485 44.2732 27.5109 -14.5485 52.3165 21.5663 -11.2324 
-37.767 29.6096 -14.5485 -44.2028 29.6096 -8.21727 -36.1595 30.7885 -14.5485 
-28.1162 37.2382 -14.5485 41.8969 29.6096 -14.5485 36.2299 33.4165 -14.5485 
44.2732 29.6096 -11.038 -27.4458 37.6529 -14.5485 -28.1162 37.6529 -13.8378 
-20.073 41.1059 -14.5485 -12.0297 43.5043 -14.5485 -3.98643 44.011 -14.5485 
4.05684 43.2941 -14.5485 12.1001 42.3809 -14.5485 20.1434 40.6193 -14.5485 
29.5943 37.6529 -14.5485 28.1866 38.3061 -14.5485 -36.1595 -35.8881 -6.50523 
-28.1162 -38.096 -6.50523 -20.073 -39.1815 -6.50523 -12.0297 -39.3048 -6.50523 
-3.98643 -38.7512 -6.50523 4.05684 -38.0142 -6.50523 12.1001 -37.8027 -6.50523 
20.1434 -38.1557 -6.50523 28.1866 -36.7525 -6.50523 36.2299 -34.9842 -6.50523 
-38.6122 -34.7365 -6.50523 -44.2028 -31.6588 -6.50523 36.8781 -34.7365 -6.50523 
44.2732 -31.4792 -6.50523 -50.2467 -26.6933 -6.50523 -52.246 -24.3659 -6.50523 
51.0754 -26.6933 -6.50523 52.3165 -25.5482 -6.50523 -56.121 -18.65 -6.50523 
58.2068 -18.65 -6.50523 60.3597 -13.7084 -6.50523 -59.1829 -10.6067 -6.50523 
61.3853 -10.6067 -6.50523 -59.8023 -2.56347 -6.50523 -60.2893 -2.56347 -2.45318 
63.0227 -2.56347 -6.50523 -58.961 5.4798 -6.50523 62.6231 5.4798 -6.50523 
60.3597 12.8156 -6.50523 -56.8069 13.5231 -6.50523 60.1014 13.5231 -6.50523 
-52.5104 21.5663 -6.50523 -52.246 21.9123 -6.50523 54.6346 21.5663 -6.50523 
52.3165 24.2906 -6.50523 52.3165 21.5663 -0.903023 -45.2971 29.6096 -6.50523 
-44.2028 30.5929 -6.50523 -36.1595 36.1542 -6.50523 36.2299 36.1921 -6.50523 
46.5418 29.6096 -6.50523 44.2732 31.323 -6.50523 44.2732 29.6096 -2.70517 
-33.6091 37.6529 -6.50523 -28.1162 40.6519 -6.50523 -20.073 43.8472 -6.50523 
-12.0297 45.3945 -6.50523 -3.98643 45.311 -6.50523 4.05684 44.25 -6.50523 
12.1001 43.4086 -6.50523 20.1434 41.8189 -6.50523 32.9464 37.6529 -6.50523 
28.1866 39.6137 -6.50523 28.1866 37.6529 -1.91052 -36.1595 -36.6951 1.53804 
-28.1162 -39.4896 1.53804 -20.073 -41.377 1.53804 -12.0297 -42.3468 1.53804 
-3.98643 -42.556 1.53804 4.05684 -42.0174 1.53804 12.1001 -41.3221 1.53804 
20.1434 -39.8279 1.53804 28.1866 -38.018 1.53804 36.2299 -35.2132 1.53804 
-39.9439 -34.7365 1.53804 -44.2028 -32.3023 1.53804 -36.1595 -34.7365 8.24134 
37.268 -34.7365 1.53804 36.2299 -34.7365 3.05641 44.2732 -31.1284 1.53804 
-50.9345 -26.6933 1.53804 -52.246 -25.237 1.53804 50.454 -26.6933 1.53804 
52.3165 -24.9092 1.53804 -56.9034 -18.65 1.53804 57.4064 -18.65 1.53804 
60.3597 -11.7313 1.53804 -59.8672 -10.6067 1.53804 -60.2893 -6.73371 1.53804 
60.7602 -10.6067 1.53804 60.3597 -10.6067 2.3571 -60.7383 -2.56347 1.53804 
-60.2893 0.4597 1.53804 -60.2893 -2.56347 3.07428 61.927 -2.56347 1.53804 
60.3597 -2.56347 4.31498 -59.5276 5.4798 1.53804 61.4932 5.4798 1.53804 
60.3597 7.61351 1.53804 60.3597 5.4798 3.23933 -57.1379 13.5231 1.53804 
57.3908 13.5231 1.53804 52.3165 20.3559 1.53804 52.3165 13.5231 8.30803 
-52.6427 21.5663 1.53804 -52.246 22.0666 1.53804 -52.246 21.5663 2.44509 
51.198 21.5663 1.53804 44.2732 27.6714 1.53804 44.2732 21.5663 8.45208 
-44.8368 29.6096 1.53804 -44.2028 30.1384 1.53804 -44.2028 29.6096 2.62594 
-36.1595 35.206 1.53804 28.1866 35.8795 1.53804 28.1866 29.6096 8.75805 
41.3928 29.6096 1.53804 36.2299 33.2564 1.53804 36.2299 29.6096 5.67434 
-31.0464 37.6529 1.53804 -28.1162 38.9703 1.53804 -28.1162 37.6529 3.76443 
-20.073 41.9716 1.53804 -20.073 37.6529 7.94341 -12.0297 43.5602 1.53804 
-3.98643 43.3006 1.53804 4.05684 41.6633 1.53804 4.05684 37.6529 8.23216 
12.1001 40.0309 1.53804 12.1001 37.6529 4.90825 22.6878 37.6529 1.53804 
20.1434 38.4143 1.53804 20.1434 37.6529 2.61421 -28.1162 -37.5727 9.58131 
-20.073 -40.3503 9.58131 -12.0297 -42.0457 9.58131 -3.98643 -42.4448 9.58131 
4.05684 -41.8274 9.58131 12.1001 -40.5574 9.58131 20.1434 -38.5953 9.58131 
28.1866 -35.7319 9.58131 -44.2028 -29.4879 9.58131 -35.1076 -34.7365 9.58131 
-36.1595 -34.2368 9.58131 -28.1162 -34.7365 13.9634 20.1434 -34.7365 16.538 
30.7071 -34.7365 9.58131 28.1866 -34.7365 11.2829 36.2299 -32.2436 9.58131 
44.2732 -27.4737 9.58131 -47.5893 -26.6933 9.58131 -52.246 -21.5989 9.58131 
-44.2028 -26.6933 13.108 36.2299 -26.6933 16.2154 45.276 -26.6933 9.58131 
44.2732 -26.6933 10.6117 52.3165 -19.4636 9.58131 -54.2769 -18.65 9.58131 
-52.246 -18.65 12.2753 44.2732 -18.65 16.7305 52.9772 -18.65 9.58131 
52.3165 -18.65 10.3155 -57.3015 -10.6067 9.58131 -52.246 -10.6067 16.5063 
56.1111 -10.6067 9.58131 52.3165 -10.6067 13.6271 -57.9639 -2.56347 9.58131 
-52.246 -2.56347 15.8192 56.9324 -2.56347 9.58131 52.3165 -2.56347 14.0551 
-56.3575 5.4798 9.58131 -52.246 5.4798 14.5756 44.2732 5.4798 17.0586 
55.6229 5.4798 9.58131 52.3165 11.4727 9.58131 52.3165 5.4798 12.7088 
-53.5358 13.5231 9.58131 -52.246 15.6957 9.58131 -52.246 13.5231 11.027 
-44.2028 13.5231 16.5277 36.2299 13.5231 16.623 50.6714 13.5231 9.58131 
44.2732 19.9841 9.58131 44.2732 13.5231 13.5003 -47.43 21.5663 9.58131 
-44.2028 24.7025 9.58131 -44.2028 21.5663 12.1956 -36.1595 21.5663 15.8114 
-28.1162 21.5663 17.1177 -20.073 21.5663 17.5609 20.1434 21.5663 16.9882 
28.1866 28.6779 9.58131 28.1866 21.5663 14.7915 42.0838 21.5663 9.58131 
36.2299 25.1718 9.58131 36.2299 21.5663 12.1742 -37.3647 29.6096 9.58131 
-36.1595 30.2767 9.58131 -36.1595 29.6096 10.2486 -28.1162 33.2147 9.58131 
-28.1162 29.6096 12.5943 -20.073 36.0044 9.58131 -20.073 29.6096 13.8863 
-12.0297 29.6096 15.4594 -3.98643 29.6096 17.1794 4.05684 36.6831 9.58131 
4.05684 29.6096 16.6266 12.1001 33.8556 9.58131 12.1001 29.6096 13.8054 
25.693 29.6096 9.58131 20.1434 31.4634 9.58131 20.1434 29.6096 11.2539 
-14.9827 37.6529 9.58131 -12.0297 38.3847 9.58131 -12.0297 37.6529 10.3246 
0.146524 37.6529 9.58131 -3.98643 38.5982 9.58131 -3.98643 37.6529 10.675 
[...]
POINT_DATA 516
SCALARS ImageScalars float
LOOKUP_TABLE default
0 0 0 0 0 0 0 0 0 
0 0 0 0 0 0 0 0 0 
0 0 0 0 0 0 0 0 0 
0 0 0 0 0 0 0 0 0 
0 0 0 0 0 0 0 0 0 
0 0 0 0 0 0 0 0 0 
0 0 0 0 0 0 0 0 0 
0 0 0 0 0 0 0 0 0 
0 0 0 0 0 0 0 0 0 
0 0 0 0 0 0 0 0 0 
0 0 0 0 0 0 0 0 0 
0 0 0 0 0 0 0 0 0 
0 0 0 0 0 0 0 0 0 
0 0 0 0 0 0 0 0 0 
0 0 0 0 0 0 0 0 0 
0 0 0 0 0 0 0 0 0 
0 0 0 0 0 0 0 0 0 
0 0 0 0 0 0 0 0 0 
0 0 0 0 0 0 0 0 0 
0 0 0 0 0 0 0 0 0 
0 0 0 0 0 0 0 0 0 
0 0 0 0 0 0 0 0 0 
0 0 0 0 0 0 0 0 0 
0 0 0 0 0 0 0 0 0 
0 0 0 0 0 0 0 0 0 
0 0 0 0 0 0 0 0 0 
0 0 0 0 0 0 0 0 0 
0 0 0 0 0 0 0 0 0 
0 0 0 0 0 0 0 0 0 
0 0 0 0 0 0 0 0 0 
0 0 0 0 0 0 0 0 0 
0 0 0 0 0 0 0 0 0 
0 0 0 0 0 0 0 0 0 
0 0 0 0 0 0 0 0 0 
0 0 0 0 0 0 0 0 0 
0 0 0 0 0 0 0 0 0 
0 0 0 0 0 0 0 0 0 
0 0 0 0 0 0 0 0 0 
0 0 0 0 0 0 0 0 0 
0 0 0 0 0 0 0 0 0 
0 0 0 0 0 0 0 0 0 
0 0 0 0 0 0 0 0 0 
0 0 0 0 0 0 0 0 0 
0 0 0 0 0 0 0 0 0 
0 0 0 0 0 0 0 0 0 
0 0 0 0 0 0 0 0 0 
0 0 0 0 0 0 0 0 0 
0 0 0 0 0 0 0 0 0 
0 0 0 0 0 0 0 0 0 
0 0 0 0 0 0 0 0 0 
0 0 0 0 0 0 0 0 0 
0 0 0 0 0 0 0 0 0 
0 0 0 0 0 0 0 0 0 
0 0 0 0 0 0 0 0 0 
0 0 0 0 0 0 0 0 0 
0 0 0 0 0 0 0 0 0 
0 0 0 0 0 0 0 0 0 
0 0 0 
NORMALS Normals float
0.106623 -0.0477032 0.993155 0.211573 0.506917 0.835627 0.0351577 0.415981 0.908693 
-0.0527188 0.352291 0.934405 -0.078501 0.359287 0.92992 -0.104304 0.42432 0.899485 
-0.0903744 0.441412 0.892742 0.0247894 0.381715 0.923948 0.116624 0.414483 0.902554 
0.00853755 0.413687 0.910379 -0.175763 0.495625 0.850566 0.365321 0.325242 0.872215 
0.100372 0.235866 0.966588 -0.0475463 0.187934 0.98103 -0.088338 0.117392 0.989149 
-0.0195295 0.0910282 0.995657 -0.0291753 0.135376 0.990365 -0.116172 0.231893 0.965779 
-3.01923e-05 0.226309 0.974055 0.118579 0.194177 0.973773 0.0219314 0.191313 0.981284 
-0.0885308 0.259397 0.961704 -0.247038 0.34 0.907399 0.610654 0.199359 0.766393 
0.294206 0.0960374 0.950905 0.064622 0.0839928 0.994369 -0.0917155 0.0681717 0.993449 
-0.159507 0.0664344 0.984959 -0.0615731 0.0922101 0.993834 0.0326508 0.062684 0.997499 
-0.0141517 0.0767908 0.996947 0.00307077 0.216607 0.976254 0.0870267 0.0629951 0.994212 
0.0862736 0.0718482 0.993677 -0.0468513 0.118161 0.991889 -0.210632 0.151308 0.965785 
-0.451541 0.19177 0.871398 0.57417 -0.000153148 0.818736 0.270716 -0.00291697 0.962655 
0.0657535 -0.00356419 0.99783 -0.0731166 0.00332535 0.997318 -0.0550741 0.0168512 0.99834 
-0.00937941 0.124476 0.992178 -0.0521494 0.151801 0.987034 0.0422028 0.112171 0.992792 
-0.0281792 0.153409 0.987761 -0.0381947 0.0493458 0.998051 0.0806929 0.0363091 0.996077 
0.00462931 0.0333993 0.999431 -0.157179 0.0803438 0.984297 -0.404131 0.0940766 0.90985 
0.620599 -0.152775 0.769101 0.283079 -0.0569291 0.957406 0.0751082 -0.0300189 0.996723 
-0.070537 -0.0119808 0.997437 -0.0457339 -0.000217196 0.998954 0.0627363 -0.0341397 0.997446 
0.0174144 -0.0187861 0.999672 -0.00477077 0.0414441 0.999129 -0.0528952 0.000688666 0.9986 
-0.0209574 0.088437 0.995861 0.0689883 0.0900324 0.993547 -0.000626519 0.0721018 0.997397 
-0.137837 -0.0135283 0.990363 -0.425225 -0.0630454 0.902889 0.378317 -0.205621 0.90255 
0.10271 -0.124546 0.986883 -0.0402689 -0.0530749 0.997778 -0.0754834 0.0587541 0.995415 
-0.0212422 0.0739599 0.997035 0.0290617 0.052011 0.998224 0.0498167 0.0795954 0.995582 
0.021566 0.062845 0.99779 0.045524 0.116503 0.992146 0.0664175 0.0379794 0.997069 
-0.101269 -0.0293848 0.994425 -0.274537 -0.124132 0.953531 -0.533953 -0.279874 0.79785 
0.487794 -0.422253 0.764042 0.216967 -0.277385 0.93594 0.113109 -0.112831 0.987155 
0.0784872 0.0209273 0.996695 0.103822 -0.0355367 0.993961 0.0528995 0.159034 0.985855 
0.0318811 0.154084 0.987543 0.00502497 0.121241 0.99261 -0.0183697 0.0787807 0.996723 
-0.0489915 0.0458276 0.997747 -0.0804148 -0.074724 0.993957 -0.17574 -0.210606 0.961645 
-0.394647 -0.371947 0.840184 0.464723 -0.552151 0.692215 0.282398 -0.306715 0.908943 
0.109544 -0.0506931 0.992688 0.1927 -0.159436 0.968219 0.0452228 -0.0651894 0.996848 
0.107174 -0.0590104 0.992488 -0.014382 -0.0822277 0.99651 -0.0249796 -0.103488 0.994317 
-0.0530486 -0.101462 0.993424 -0.107707 -0.190441 0.975772 -0.215521 -0.273502 0.937415 
-0.382825 -0.494609 0.780261 0.324676 -0.573839 0.751861 0.130401 -0.46444 0.875952 
-0.0191798 -0.475687 0.879406 -0.0301563 -0.514305 0.857077 -0.116307 -0.547614 0.828609 
-0.203034 -0.685902 0.698796 -0.373787 -0.789097 0.487451 0.250909 0.611289 0.75058 
0.330009 0.854171 0.401854 0.0884035 0.627903 0.773255 0.132161 0.782376 0.608622 
-0.0295717 0.579726 0.814275 0.000687065 0.716957 0.697117 -0.0803634 0.520247 0.850226 
-0.0700982 0.681072 0.728853 -0.108791 0.514608 0.850496 -0.0989942 0.68339 0.723311 
-0.0847591 0.466444 0.880481 -0.0521747 0.673459 0.737381 0.0245065 0.395815 0.918003 
0.0339195 0.689668 0.723331 0.109319 0.4705 0.875602 0.0217766 0.727058 0.686231 
-0.022036 0.559753 0.828366 -0.12897 0.838906 0.528775 -0.196049 0.552664 0.810017 
-0.278024 0.915204 0.291727 0.397557 0.571205 0.718104 0.429806 0.552994 0.713767 
0.448048 0.595501 0.666807 -0.293078 0.539866 0.789082 -0.35521 0.515816 0.77959 
-0.404879 0.605127 0.685488 0.577 0.388559 0.718396 0.638257 0.304966 0.706841 
0.688506 0.418727 0.592137 -0.47109 0.467834 0.7478 -0.512972 0.43604 0.739411 
-0.547525 0.5102 0.663259 0.682664 0.199907 0.702857 -0.616148 0.219676 0.756375 
-0.910807 0.256671 0.323343 0.701389 0.000203692 0.712779 -0.646327 0.0849212 0.75832 
-0.866019 0.0930031 0.491285 0.697108 -0.146238 0.701894 0.632526 -0.288836 0.718669 
-0.696077 -0.106675 0.709998 -0.890121 -0.155732 0.428291 0.606057 -0.324107 0.726394 
0.653748 -0.34016 0.675947 -0.675906 -0.285494 0.679444 -0.600929 -0.437532 0.668917 
0.590585 -0.438284 0.677581 0.79008 -0.551952 0.266687 0.527307 -0.504518 0.683673 
-0.55371 -0.506464 0.660984 -0.513345 -0.601943 0.611671 -0.701726 -0.602151 0.380781 
0.484345 -0.584717 0.650781 0.624176 -0.721541 0.299639 0.483741 -0.592612 0.644054 
0.442038 -0.698589 0.562651 -0.507904 -0.631813 0.585531 -0.462109 -0.694347 0.551668 
-0.583513 -0.752515 0.305341 0.436474 -0.708628 0.55438 0.448396 -0.733307 0.511079 
0.339779 -0.756268 0.559114 0.159237 -0.864705 0.47637 -0.012642 -0.876062 0.482032 
-0.097558 -0.8893 0.446798 -0.169049 -0.890409 0.422604 -0.238639 -0.866761 0.437923 
-0.400816 -0.807988 0.431859 -0.377693 -0.824256 0.421842 0.339972 0.896143 0.285214 
0.198735 0.91325 0.355638 0.0690305 0.895104 0.44048 -0.0214277 0.857933 0.513315 
-0.0670718 0.812521 0.57906 -0.0491928 0.786656 0.615429 0.00991411 0.806539 0.591097 
-0.0640194 0.88649 0.458299 -0.183969 0.928261 0.323243 -0.277205 0.923165 0.266315 
0.389356 0.8774 0.280307 0.525469 0.807589 0.267736 -0.295076 0.918163 0.264398 
-0.510629 0.825812 0.239358 0.674736 0.685181 0.274332 0.740448 0.609965 0.282275 
-0.650481 0.723047 0.232545 -0.678371 0.696596 0.233596 0.856417 0.425671 0.292153 
-0.826229 0.526437 0.200524 -0.910275 0.361336 0.202077 0.934323 0.200114 0.294948 
-0.940108 0.265353 0.213975 0.954455 -0.0137941 0.298035 0.994943 -0.0177152 0.0988613 
-0.980578 0.0716799 0.18256 0.946038 -0.165533 0.278587 -0.970974 -0.174539 0.16354 
-0.918866 -0.38634 0.08016 0.897573 -0.370184 0.239428 -0.909823 -0.408389 0.0737637 
0.795236 -0.55457 0.245055 0.790976 -0.561355 0.243386 -0.781239 -0.623652 0.0269276 
-0.736661 -0.675389 0.0343527 -0.716614 -0.625641 -0.308282 0.658013 -0.725327 0.202287 
0.636861 -0.74404 0.202021 0.523087 -0.836972 0.160805 -0.443551 -0.895967 -0.0224657 
-0.614181 -0.789121 -0.00831758 -0.57602 -0.817165 -0.0210205 -0.554559 -0.794832 -0.246388 
0.495767 -0.859303 0.12575 0.444489 -0.892514 0.0764665 0.273008 -0.961499 0.0314173 
0.0846893 -0.996383 -0.00696039 -0.0704537 -0.996238 -0.0504636 -0.117057 -0.9887 -0.0936489 
-0.158486 -0.979951 -0.12074 -0.218687 -0.969785 -0.108135 -0.400182 -0.913836 -0.0689827 
-0.333802 -0.93571 -0.114118 -0.301077 -0.890253 -0.341763 0.398223 0.913853 -0.0793204 
0.283772 0.958526 -0.0264906 0.171537 0.983056 0.0646135 0.0711157 0.987169 0.142967 
-0.01956 0.98249 0.185287 -0.0753588 0.979722 0.185652 -0.135702 0.981534 0.134815 
-0.198128 0.979751 0.0288621 -0.27453 0.960196 -0.0515507 -0.373208 0.918764 -0.128795 
0.460293 0.882881 -0.0930151 0.544415 0.832636 -0.101633 0.414698 0.836467 -0.358257 
-0.39228 0.90954 -0.13731 -0.383975 0.905771 -0.179283 -0.532921 0.823103 -0.196205 
0.698201 0.707922 -0.106589 0.741091 0.6634 -0.103367 -0.655798 0.723345 -0.216104 
-0.702049 0.675493 -0.225471 0.8937 0.437877 -0.0977993 -0.817223 0.522097 -0.24405 
-0.926711 0.2665 -0.264922 0.970728 0.218975 -0.0986806 0.990042 0.104368 -0.0944635 
-0.937357 0.229225 -0.262332 -0.927279 0.225628 -0.298739 0.99586 -0.0197499 -0.0887346 
0.990894 -0.0871356 -0.102651 0.986749 -0.0241264 -0.160448 -0.946154 0.0476496 -0.32019 
-0.899605 0.0198426 -0.436253 0.970681 -0.203199 -0.128412 -0.895814 -0.253953 -0.364726 
-0.871075 -0.300974 -0.388129 -0.86042 -0.258202 -0.439328 0.903828 -0.396704 -0.160375 
-0.780975 -0.455772 -0.427024 -0.674516 -0.583441 -0.452354 -0.599859 -0.464096 -0.651755 
0.792158 -0.582915 -0.18082 0.782892 -0.594714 -0.182746 0.778781 -0.586864 -0.221566 
-0.650095 -0.603158 -0.462143 -0.497979 -0.712633 -0.494136 -0.44876 -0.569887 -0.688363 
0.610792 -0.760056 -0.221917 0.600283 -0.768235 -0.222431 0.597272 -0.754752 -0.271322 
0.468995 -0.837132 -0.281518 -0.252673 -0.813233 -0.524221 -0.239898 -0.65042 -0.720696 
-0.463985 -0.728382 -0.504161 -0.386377 -0.779614 -0.492864 -0.383528 -0.66799 -0.637727 
0.405825 -0.85539 -0.321893 0.367974 -0.86372 -0.344358 0.349788 -0.832466 -0.429707 
0.256476 -0.888758 -0.379906 0.237986 -0.738633 -0.630701 0.0739027 -0.926465 -0.369054 
-0.107145 -0.924672 -0.365378 -0.180912 -0.892521 -0.413132 -0.215078 -0.793422 -0.569405 
-0.182072 -0.843637 -0.505101 -0.199522 -0.796595 -0.570638 -0.223127 -0.820676 -0.526028 
-0.211247 -0.823636 -0.526306 -0.209585 -0.8051 -0.554876 0.338768 0.861649 -0.377885 
0.25341 0.91831 -0.30412 0.120661 0.963133 -0.240448 -0.0134374 0.976487 -0.215157 
-0.111214 0.968564 -0.222521 -0.18342 0.94526 -0.269891 -0.275292 0.908489 -0.314422 
-0.327907 0.860195 -0.390566 0.527879 0.725311 -0.441892 0.403674 0.817701 -0.410379 
0.413164 0.808496 -0.419081 0.337002 0.751332 -0.567389 -0.280899 0.766978 -0.576923 
-0.350761 0.84562 -0.402361 -0.330569 0.830361 -0.44858 -0.411596 0.794462 -0.446563 
-0.527653 0.696657 -0.486057 0.592613 0.66961 -0.447696 0.716144 0.530395 -0.453674 
0.508402 0.631895 -0.585009 -0.406994 0.596993 -0.691343 -0.547301 0.676569 -0.492662 
-0.531564 0.671907 -0.515733 -0.680864 0.478102 -0.554835 0.77271 0.437512 -0.459894 
0.70108 0.440028 -0.561126 -0.504904 0.364214 -0.782573 -0.695769 0.456311 -0.554694 
-0.677047 0.455701 -0.577878 0.864707 0.198625 -0.461335 0.63846 0.137488 -0.757275 
-0.756947 0.185562 -0.626576 -0.665025 0.15611 -0.730322 0.857842 -0.0474016 -0.511723 
0.626818 -0.0821225 -0.774826 -0.747506 -0.0203014 -0.663944 -0.619102 -0.0447862 -0.784033 
0.815672 -0.229491 -0.53105 0.658491 -0.215528 -0.721067 -0.375549 -0.287315 -0.881143 
-0.676274 -0.262746 -0.688199 -0.591934 -0.4079 -0.695149 -0.586273 -0.26894 -0.76417 
0.736309 -0.390698 -0.552453 0.706281 -0.438324 -0.555912 0.69069 -0.39051 -0.608645 
0.402652 -0.357153 -0.842801 -0.283613 -0.409846 -0.866943 -0.551164 -0.453217 -0.70058 
-0.435014 -0.537662 -0.722276 -0.412553 -0.43553 -0.800071 0.578331 -0.563946 -0.58949 
0.519181 -0.602206 -0.606464 0.48072 -0.540249 -0.69068 0.232489 -0.462218 -0.855747 
0.0923603 -0.41434 -0.905423 0.0924751 -0.404885 -0.909679 -0.249913 -0.493614 -0.833 
-0.239097 -0.628548 -0.740108 -0.240292 -0.508814 -0.826661 -0.405865 -0.554639 -0.726395 
-0.333336 -0.579387 -0.743773 -0.314527 -0.530333 -0.787287 0.366969 -0.681089 -0.633602 
0.338061 -0.691837 -0.638026 0.33116 -0.675056 -0.659267 0.245397 -0.677486 -0.693393 
0.183193 -0.586 -0.789332 0.21618 -0.663964 -0.715833 0.151704 -0.468822 -0.870168 
0.17657 -0.428094 -0.886317 0.0701009 -0.4917 -0.867939 -0.217211 -0.767417 -0.603233 
-0.156817 -0.611896 -0.775237 -0.233391 -0.714174 -0.659913 -0.252487 -0.64004 -0.725671 
-0.233846 -0.641144 -0.730925 -0.22011 -0.666096 -0.712649 -0.230854 -0.632974 -0.738952 
0.153589 -0.699617 -0.697815 0.109306 -0.709426 -0.696252 0.11208 -0.686129 -0.718794 
-0.151633 -0.775707 -0.612606 -0.0832797 -0.778716 -0.621825 -0.0731978 -0.754882 -0.651763 
0.261642 0.657633 -0.706443 0.137897 0.717011 -0.683286 0.00624663 0.744992 -0.667044 
-0.0965953 0.751399 -0.652739 -0.177894 0.747344 -0.640181 0.33265 0.505112 -0.79637 
0.271994 0.647942 -0.71147 0.297823 0.564254 -0.770012 0.261036 0.636417 -0.725833 
0.136399 0.604323 -0.784977 0.0159181 0.593606 -0.804598 -0.0794621 0.627679 -0.774406 
-0.247077 0.740194 -0.625352 -0.166776 0.694754 -0.699645 -0.275697 0.7266 -0.62932 
-0.350027 0.634211 -0.689389 0.33862 0.501632 -0.796054 0.427268 0.406581 -0.807548 
0.329128 0.495584 -0.803785 0.255942 0.40825 -0.876257 0.218714 0.307654 -0.92602 
0.119722 0.269301 -0.955586 0.014972 0.260344 -0.9654 -0.00526109 0.272138 -0.962244 
-0.0778278 0.332113 -0.940023 -0.211909 0.418896 -0.882961 -0.387759 0.568619 -0.725476 
-0.336056 0.517323 -0.787047 -0.403097 0.517879 -0.754529 0.459265 0.362683 -0.810886 
0.408605 0.339191 -0.847344 0.24688 0.245541 -0.937422 0.154003 0.171838 -0.973013 
0.139555 0.101084 -0.985041 0.107823 0.073597 -0.991442 0.0247927 0.0619766 -0.99777 
0.0083007 0.0697552 -0.99753 -0.13233 0.114157 -0.98461 -0.242088 0.203938 -0.948579 
-0.477754 0.345781 -0.807581 -0.366853 0.286166 -0.885171 -0.483947 0.2775 -0.829933 
0.559669 0.12147 -0.819766 0.317341 0.0893871 -0.944089 0.177311 0.0582367 -0.98243 
0.117481 0.0265733 -0.99272 0.125173 0.0228217 -0.991872 0.0832619 0.0487377 -0.995335 
0.0104817 -0.0467225 -0.998853 0.0267201 -0.0138634 -0.999547 -0.0984752 -0.0476282 -0.993999 
-0.175642 -0.0153989 -0.984334 -0.298278 0.0356434 -0.953813 -0.505016 0.120108 -0.854712 
-0.439683 0.108783 -0.891541 0.50326 -0.0804895 -0.860379 0.340784 -0.0679155 -0.937685 
0.185021 -0.0624891 -0.980746 0.122112 -0.05351 -0.991073 0.165779 -0.00130234 -0.986162 
-0.03937 -0.017481 -0.999072 0.0825627 0.00531702 -0.996572 -0.174834 -0.105209 -0.978961 
-0.15871 -0.161174 -0.974081 -0.25527 -0.136908 -0.957128 -0.46421 -0.0998477 -0.880079 
-0.384536 -0.238302 -0.891821 -0.407926 -0.115557 -0.905672 0.458096 -0.204206 -0.865129 
0.369933 -0.296928 -0.880331 0.330221 -0.193931 -0.923767 0.185534 -0.170457 -0.96774 
0.171655 -0.165374 -0.971178 0.247874 -0.166182 -0.954433 -0.0511403 -0.0351355 -0.998073 
0.0634645 -0.0294524 -0.997549 -0.274519 -0.188535 -0.942918 -0.202454 -0.249812 -0.946893 
-0.349848 -0.286954 -0.891776 -0.27281 -0.372849 -0.886881 -0.248057 -0.282876 -0.926525 
0.32413 -0.33139 -0.88607 0.213718 -0.372701 -0.903005 0.211331 -0.298532 -0.930708 
0.0919757 -0.397527 -0.912969 0.115184 -0.308816 -0.944122 0.0928758 -0.404439 -0.909837 
0.143299 -0.375675 -0.915606 0.17094 -0.452516 -0.875219 0.0946936 -0.24103 -0.965887 
-0.00784292 -0.21676 -0.976193 -0.218959 -0.35446 -0.909074 -0.255499 -0.471372 -0.844114 
-0.28324 -0.34867 -0.893423 -0.263781 -0.391319 -0.88164 -0.240527 -0.412388 -0.878682 
-0.241829 -0.367613 -0.897986 0.0975289 -0.404358 -0.909386 0.183188 -0.398788 -0.89856 
0.186055 -0.403239 -0.895981 0.0845877 -0.477752 -0.874413 0.165552 -0.403345 -0.899948 
-0.136481 -0.581518 -0.802004 -0.0604274 -0.447991 -0.891994 -0.254499 -0.496935 -0.82963 
-0.260323 -0.557759 -0.788122 -0.257766 -0.510978 -0.820036 -0.0283936 0.094431 -0.995126 
-0.0180641 0.0830411 -0.996382 -0.0340641 0.089186 -0.995432 -0.0270146 0.0876231 -0.995787 
0.0577889 0.0586362 -0.996605 -0.000733739 0.00629829 -0.99998 -0.0423893 0.0106115 -0.999045 
-0.0274357 0.0256909 -0.999293 0.0574809 0.0569549 -0.996721 0.0184622 0.046642 -0.998741 
0.0361517 0.0665717 -0.997127 0.0219823 0.0119941 -0.999686 -0.0901265 -0.0125486 -0.995851 
-0.0598071 0.0200476 -0.998009 0.122276 -0.148968 -0.981253 -0.00309194 -0.0808041 -0.996725 
0.0887342 -0.222309 -0.97093 0.0599878 -0.139878 -0.98835 0.0376386 -0.0412574 -0.998439 
-0.163015 -0.130268 -0.977986 -0.157255 -0.175995 -0.971749 -0.136977 -0.117794 -0.983546 

