# vtk DataFile Version 4.2
vtk output
ASCII
DATASET POLYDATA
POINTS 536 float
-22.3289 -45.6642 -13.6069 -14.2673 -45.6642 -15.0201 -6.20572 -45.6642 -15.4839 
1.85586 -45.6642 -15.112 9.91745 -45.6642 -13.5098 -30.3905 -37.6026 -15.3432 
-22.3289 -37.6026 -17.757 -14.2673 -37.6026 -17.8528 -6.20572 -37.6026 -17.7712 
1.85586 -37.6026 -17.3653 9.91745 -37.6026 -16.9448 17.979 -37.6026 -16.125 
26.0406 -37.6026 -13.8524 -38.4521 -29.541 -15.7422 -30.3905 -29.541 -17.9305 
-22.3289 -29.541 -18.7454 -14.2673 -29.541 -18.5157 -6.20572 -29.541 -18.1502 
1.85586 -29.541 -17.8515 9.91745 -29.541 -17.858 17.979 -29.541 -17.4369 
26.0406 -29.541 -16.8611 34.1022 -29.541 -15.1984 42.1638 -29.541 -12.554 
-46.5136 -21.4794 -14.7067 -38.4521 -21.4794 -18.8991 -30.3905 -21.4794 -19.288 
-22.3289 -21.4794 -18.8058 -14.2673 -21.4794 -17.7663 -6.20572 -21.4794 -17.0724 
1.85586 -21.4794 -17.0027 9.91745 -21.4794 -17.4646 17.979 -21.4794 -17.2969 
26.0406 -21.4794 -16.8719 34.1022 -21.4794 -17.0756 42.1638 -21.4794 -15.1558 
50.2254 -21.4794 -12.9442 -54.5752 -13.4178 -12.0058 -46.5136 -13.4178 -17.2171 
-38.4521 -13.4178 -18.7817 -30.3905 -13.4178 -19.1208 -22.3289 -13.4178 -18.1244 
-14.2673 -13.4178 -17.0206 -6.20572 -13.4178 -15.415 1.85586 -13.4178 -15.5461 
9.91745 -13.4178 -16.801 17.979 -13.4178 -16.0685 26.0406 -13.4178 -16.3862 
34.1022 -13.4178 -16.8154 42.1638 -13.4178 -16.7257 50.2254 -13.4178 -15.8589 
58.287 -13.4178 -12.2242 -54.5752 -5.35623 -13.4781 -46.5136 -5.35623 -17.4652 
-38.4521 -5.35623 -18.5812 -30.3905 -5.35623 -18.3553 -22.3289 -5.35623 -17.1743 
-14.2673 -5.35623 -16.1855 -6.20572 -5.35623 -18.521 1.85586 -5.35623 -14.99 
9.91745 -5.35623 -16.3073 17.979 -5.35623 -14.8998 26.0406 -5.35623 -16.1162 
34.1022 -5.35623 -16.9896 42.1638 -5.35623 -17.4202 50.2254 -5.35623 -16.2258 
58.287 -5.35623 -13.6545 -54.5752 2.70535 -13.927 -46.5136 2.70535 -17.1038 
-38.4521 2.70535 -17.931 -30.3905 2.70535 -17.4319 -22.3289 2.70535 -15.7655 
-14.2673 2.70535 -14.814 -6.20572 2.70535 -17.4769 1.85586 2.70535 -11.477 
9.91745 2.70535 -16.5306 17.979 2.70535 -14.9719 26.0406 2.70535 -15.9746 
34.1022 2.70535 -16.7481 42.1638 2.70535 -16.8567 50.2254 2.70535 -15.5844 
58.287 2.70535 -13.3234 -54.5752 10.7669 -13.6511 -46.5136 10.7669 -16.5627 
-38.4521 10.7669 -17.4451 -30.3905 10.7669 -17.5229 -22.3289 10.7669 -16.3734 
-14.2673 10.7669 -15.1312 -6.20572 10.7669 -15.9973 1.85586 10.7669 -14.1782 
9.91745 10.7669 -13.9539 17.979 10.7669 -14.7042 26.0406 10.7669 -15.6193 
34.1022 10.7669 -16.1312 42.1638 10.7669 -15.6935 50.2254 10.7669 -14.2526 
-54.5752 18.8285 -12.9259 -46.5136 18.8285 -15.6194 -38.4521 18.8285 -17.1904 
-30.3905 18.8285 -16.8892 -22.3289 18.8285 -16.1753 -14.2673 18.8285 -15.5935 
-6.20572 18.8285 -14.7136 1.85586 18.8285 -13.4401 9.91745 18.8285 -13.8274 
17.979 18.8285 -14.5875 26.0406 18.8285 -15.2957 34.1022 18.8285 -15.4185 
42.1638 18.8285 -14.5247 50.2254 18.8285 -11.7003 -46.5136 26.8901 -12.8591 
-38.4521 26.8901 -15.0836 -30.3905 26.8901 -15.5371 -22.3289 26.8901 -15.0169 
-14.2673 26.8901 -14.095 -6.20572 26.8901 -13.5811 1.85586 26.8901 -13.3708 
9.91745 26.8901 -13.7074 17.979 26.8901 -14.2243 26.0406 26.8901 -14.5541 
34.1022 26.8901 -13.5714 42.1638 26.8901 -11.6651 -22.3289 34.9517 -11.7762 
1.85586 34.9517 -11.6585 9.91745 34.9517 -12.2805 17.979 34.9517 -12.5184 
26.0406 34.9517 -12.3902 -22.3289 -47.6698 -11.4513 -14.2673 -50.2377 -11.4513 
-6.20572 -51.0359 -11.4513 -6.20572 -53.7257 -4.2487 1.85586 -50.5709 -11.4513 
9.91745 -48.2406 -11.4513 -27.5421 -45.6642 -11.4513 -30.3905 -44.2234 -11.4513 
-30.3905 -45.6642 -8.61818 16.3414 -45.6642 -11.4513 17.979 -44.8124 -11.4513 
17.979 -45.6642 -10.3606 26.0406 -41.3143 -11.4513 -37.1106 -37.6026 -11.4513 
-38.4521 -36.3458 -11.4513 -38.4521 -37.6026 -8.90542 32.1227 -37.6026 -11.4513 
34.1022 -36.3541 -11.4513 34.1022 -37.6026 -10.0432 42.1638 -31.2252 -11.4513 
-44.9408 -29.541 -11.4513 -46.5136 -27.4539 -11.4513 -46.5136 -29.541 -5.74324 
45.3837 -29.541 -11.4513 50.2254 -25.4778 -11.4513 50.2254 -29.541 -8.65428 
-50.2767 -21.4794 -11.4513 -54.5752 -14.355 -11.4513 53.2641 -21.4794 -11.4513 
58.287 -15.6747 -11.4513 58.287 -21.4794 -7.41287 -55.0407 -13.4178 -11.4513 
59.3119 -13.4178 -11.4513 -56.4986 -5.35623 -11.4513 61.2658 -5.35623 -11.4513 
66.3485 -5.35623 -3.68271 -57.4683 2.70535 -11.4513 60.8126 2.70535 -11.4513 
58.287 10.0625 -11.4513 66.3485 2.70535 -3.46247 -57.3183 10.7669 -11.4513 
-62.6368 10.7669 -3.87089 57.6993 10.7669 -11.4513 58.287 10.7669 -11.1931 
-56.3821 18.8285 -11.4513 -54.5752 22.3323 -11.4513 50.8294 18.8285 -11.4513 
50.2254 19.8294 -11.4513 58.287 18.8285 -7.5572 -49.5669 26.8901 -11.4513 
-54.5752 26.8901 -7.91429 -46.5136 29.3802 -11.4513 -38.4521 33.2714 -11.4513 
-30.3905 34.3772 -11.4513 -14.2673 34.3879 -11.4513 -6.20572 33.8449 -11.4513 
34.1022 32.4424 -11.4513 42.9864 26.8901 -11.4513 42.1638 27.4454 -11.4513 
50.2254 26.8901 -9.34315 -46.5136 34.9517 -6.41642 -38.4521 34.9517 -9.99177 
-26.4453 34.9517 -11.4513 -30.3905 34.9517 -11.0603 -17.4009 34.9517 -11.4513 
-22.3289 35.3814 -11.4513 -14.2673 34.9517 -11.2189 -1.1358 34.9517 -11.4513 
-6.20572 34.9517 -11.0793 1.85586 35.4266 -11.4513 9.91745 36.7436 -11.4513 
17.979 38.0786 -11.4513 30.065 34.9517 -11.4513 26.0406 37.0638 -11.4513 
34.1022 34.9517 -10.2968 42.1638 34.9517 -8.04228 -14.2673 43.0133 -4.42077 
-6.20572 43.0133 -6.16987 1.85586 43.0133 -7.25639 9.91745 43.0133 -7.87872 
17.979 43.0133 -8.75737 26.0406 43.0133 -7.1652 -6.20572 -53.9546 -3.38975 
-30.3905 -47.3171 -3.38975 -22.3289 -51.4234 -3.38975 -9.10888 -53.7257 -3.38975 
-14.2673 -53.3155 -3.38975 -2.61658 -53.7257 -3.38975 -6.20572 -53.7257 -2.559 
1.85586 -53.437 -3.38975 9.91745 -51.6481 -3.38975 17.979 -48.8138 -3.38975 
-32.5469 -45.6642 -3.38975 -38.4521 -39.8779 -3.38975 -30.3905 -45.6642 3.8417 
24.9883 -45.6642 -3.38975 26.0406 -45.1758 -3.38975 34.1022 -41.402 -3.38975 
-40.4739 -37.6026 -3.38975 -46.5136 -30.1631 -3.38975 -38.4521 -37.6026 3.76687 
41.4944 -37.6026 -3.38975 42.1638 -37.2375 -3.38975 50.2254 -32.3308 -3.38975 
-46.9558 -29.541 -3.38975 -46.5136 -29.541 -2.01691 53.7642 -29.541 -3.38975 
58.287 -24.7242 -3.38975 -52.495 -21.4794 -3.38975 -54.5752 -17.7299 -3.38975 
60.8356 -21.4794 -3.38975 -56.7994 -13.4178 -3.38975 64.5226 -13.4178 -3.38975 
66.3485 -6.03333 -3.38975 -60.3046 -5.35623 -3.38975 66.5099 -5.35623 -3.38975 
66.3485 -5.35623 -1.68026 -62.4044 2.70535 -3.38975 -62.6368 6.79752 -3.38975 
66.391 2.70535 -3.38975 66.3485 2.91172 -3.38975 66.3485 2.70535 -3.03519 
-62.8475 10.7669 -3.38975 -62.6368 11.8943 -3.38975 -62.6368 10.7669 -0.765475 
64.6721 10.7669 -3.38975 -61.2607 18.8285 -3.38975 61.5823 18.8285 -3.38975 
58.287 23.7422 -3.38975 -57.807 26.8901 -3.38975 -54.5752 30.6726 -3.38975 
55.8829 26.8901 -3.38975 50.2254 32.6009 -3.38975 -49.4294 34.9517 -3.38975 
-46.5136 36.7432 -3.38975 -38.4521 39.7387 -3.38975 -30.3905 41.7552 -3.38975 
-22.3289 42.5204 -3.38975 34.1022 42.8072 -3.38975 47.3497 34.9517 -3.38975 
42.1638 38.5972 -3.38975 -30.3905 43.0133 3.18806 -19.4895 43.0133 -3.38975 
-22.3289 43.0133 -1.8784 -14.2673 43.815 -3.38975 -6.20572 45.3032 -3.38975 
1.85586 46.5648 -3.38975 9.91745 47.2906 -3.38975 17.979 46.8266 -3.38975 
33.6213 43.0133 -3.38975 26.0406 45.5348 -3.38975 34.1022 43.0133 -1.19125 
-22.3289 -48.8802 4.67184 -14.2673 -50.673 4.67184 -6.20572 -51.0635 4.67184 
1.85586 -50.2718 4.67184 9.91745 -48.0239 4.67184 17.979 -46.1687 4.67184 
-29.8934 -45.6642 4.67184 -30.3905 -45.4039 4.67184 -22.3289 -45.6642 8.18738 
-14.2673 -45.6642 9.56419 -6.20572 -45.6642 9.52595 1.85586 -45.6642 8.64399 
9.91745 -45.6642 7.36801 19.0838 -45.6642 4.67184 17.979 -45.6642 5.24682 
26.0406 -41.3102 4.67184 34.1022 -38.8327 4.67184 -38.1452 -37.6026 4.67184 
-38.4521 -37.2342 4.67184 -30.3905 -37.6026 11.1823 1.85586 -37.6026 12.4095 
9.91745 -37.6026 11.7589 17.979 -37.6026 10.1403 26.0406 -37.6026 7.52408 
36.5508 -37.6026 4.67184 34.1022 -37.6026 5.96417 42.1638 -33.8546 4.67184 
50.2254 -29.8035 4.67184 -43.9706 -29.541 4.67184 -46.5136 -25.8304 4.67184 
-38.4521 -29.541 10.6462 17.979 -29.541 12.3756 26.0406 -29.541 12.1646 
34.1022 -29.541 10.5728 42.1638 -29.541 8.82532 50.5522 -29.541 4.67184 
50.2254 -29.541 4.94066 58.287 -21.8445 4.67184 -49.5424 -21.4794 4.67184 
-54.5752 -13.9117 4.67184 -46.5136 -21.4794 8.34275 42.1638 -21.4794 11.9535 
50.2254 -21.4794 10.3797 58.5899 -21.4794 4.67184 58.287 -21.4794 4.96699 
-54.8886 -13.4178 4.67184 -54.5752 -13.4178 5.11213 50.2254 -13.4178 11.797 
61.5022 -13.4178 4.67184 58.287 -13.4178 7.77576 -58.8656 -5.35623 4.67184 
-54.5752 -5.35623 10.8983 65.4206 -5.35623 4.67184 58.287 -5.35623 11.6359 
-62.0859 2.70535 4.67184 65.1239 2.70535 4.67184 58.287 2.70535 12.4187 
-62.1586 10.7669 4.67184 64.1437 10.7669 4.67184 -60.8528 18.8285 4.67184 
-54.5752 18.8285 12.3449 62.3382 18.8285 4.67184 58.287 25.2528 4.67184 
58.287 18.8285 10.9565 -57.8075 26.8901 4.67184 -54.5752 30.7208 4.67184 
-54.5752 26.8901 9.50735 56.832 26.8901 4.67184 50.2254 33.4627 4.67184 
50.2254 26.8901 10.705 -49.897 34.9517 4.67184 -46.5136 37.2512 4.67184 
-46.5136 34.9517 9.14194 -38.4521 40.797 4.67184 48.1742 34.9517 4.67184 
42.1638 38.7184 4.67184 42.1638 34.9517 9.29297 -31.2209 43.0133 4.67184 
-30.3905 43.2587 4.67184 -30.3905 43.0133 5.25923 -22.3289 44.7442 4.67184 
-22.3289 43.0133 9.12128 -14.2673 46.408 4.67184 -6.20572 48.604 4.67184 
1.85586 49.7275 4.67184 9.91745 49.8682 4.67184 17.979 48.5 4.67184 
26.0406 45.9428 4.67184 26.0406 43.0133 8.81656 34.9268 43.0133 4.67184 
34.1022 43.4157 4.67184 34.1022 43.0133 5.44289 -22.3289 -39.9963 12.7334 
-14.2673 -40.2577 12.7334 -6.20572 -39.0435 12.7334 -26.6644 -37.6026 12.7334 
-30.3905 -34.192 12.7334 -22.3289 -37.6026 14.0739 -14.2673 -37.6026 14.0509 
-0.997472 -37.6026 12.7334 -6.20572 -37.6026 13.3545 1.85586 -35.8968 12.7334 
9.91745 -33.5513 12.7334 -34.6589 -29.541 12.7334 -38.4521 -25.6777 12.7334 
[...]
POINT_DATA 536
SCALARS ImageScalars float
LOOKUP_TABLE default
0 0 0 0 0 0 0 0 0 
0 0 0 0 0 0 0 0 0 
0 0 0 0 0 0 0 0 0 
0 0 0 0 0 0 0 0 0 
0 0 0 0 0 0 0 0 0 
0 0 0 0 0 0 0 0 0 
0 0 0 0 0 0 0 0 0 
0 0 0 0 0 0 0 0 0 
0 0 0 0 0 0 0 0 0 
0 0 0 0 0 0 0 0 0 
0 0 0 0 0 0 0 0 0 
0 0 0 0 0 0 0 0 0 
0 0 0 0 0 0 0 0 0 
0 0 0 0 0 0 0 0 0 
0 0 0 0 0 0 0 0 0 
0 0 0 0 0 0 0 0 0 
0 0 0 0 0 0 0 0 0 
0 0 0 0 0 0 0 0 0 
0 0 0 0 0 0 0 0 0 
0 0 0 0 0 0 0 0 0 
0 0 0 0 0 0 0 0 0 
0 0 0 0 0 0 0 0 0 
0 0 0 0 0 0 0 0 0 
0 0 0 0 0 0 0 0 0 
0 0 0 0 0 0 0 0 0 
0 0 0 0 0 0 0 0 0 
0 0 0 0 0 0 0 0 0 
0 0 0 0 0 0 0 0 0 
0 0 0 0 0 0 0 0 0 
0 0 0 0 0 0 0 0 0 
0 0 0 0 0 0 0 0 0 
0 0 0 0 0 0 0 0 0 
0 0 0 0 0 0 0 0 0 
0 0 0 0 0 0 0 0 0 
0 0 0 0 0 0 0 0 0 
0 0 0 0 0 0 0 0 0 
0 0 0 0 0 0 0 0 0 
0 0 0 0 0 0 0 0 0 
0 0 0 0 0 0 0 0 0 
0 0 0 0 0 0 0 0 0 
0 0 0 0 0 0 0 0 0 
0 0 0 0 0 0 0 0 0 
0 0 0 0 0 0 0 0 0 
0 0 0 0 0 0 0 0 0 
0 0 0 0 0 0 0 0 0 
0 0 0 0 0 0 0 0 0 
0 0 0 0 0 0 0 0 0 
0 0 0 0 0 0 0 0 0 
0 0 0 0 0 0 0 0 0 
0 0 0 0 0 0 0 0 0 
0 0 0 0 0 0 0 0 0 
0 0 0 0 0 0 0 0 0 
0 0 0 0 0 0 0 0 0 
0 0 0 0 0 0 0 0 0 
0 0 0 0 0 0 0 0 0 
0 0 0 0 0 0 0 0 0 
0 0 0 0 0 0 0 0 0 
0 0 0 0 0 0 0 0 0 
0 0 0 0 0 0 0 0 0 
0 0 0 0 0 
NORMALS Normals float
0.252458 0.646764 0.719695 0.0887884 0.525612 0.846079 0.00482388 0.4608 0.887491 
-0.118317 0.468918 0.875281 -0.21571 0.581558 0.784385 0.342023 0.412944 0.844096 
0.142929 0.229999 0.962638 0.000248238 0.194012 0.980999 -0.0302106 0.159659 0.98671 
-0.0518452 0.163217 0.985227 -0.0666006 0.239486 0.968613 -0.190274 0.300874 0.93449 
-0.286987 0.463089 0.838563 0.388581 0.406732 0.826785 0.165785 0.222004 0.960848 
0.0376559 0.0582864 0.997589 -0.0366381 -0.00191818 0.999327 -0.0411313 -0.043229 0.998218 
-0.0180971 -0.0230546 0.99957 -0.0251183 0.0333815 0.999127 -0.059346 0.060452 0.996405 
-0.14539 0.175763 0.973637 -0.207644 0.314832 0.926156 -0.350664 0.451474 0.820491 
0.588417 0.364947 0.721511 0.231527 0.164109 0.958886 -0.00908074 0.0766171 0.997019 
-0.0926387 -0.038087 0.994971 -0.109539 -0.0912317 0.989787 -0.0471404 -0.165432 0.985094 
0.0244512 -0.142865 0.98944 0.0181186 -0.0648041 0.997734 -0.0365112 -0.0838581 0.995809 
-0.0146245 -0.0295883 0.999455 -0.107396 0.113445 0.987723 -0.221283 0.211886 0.951913 
-0.360702 0.331749 0.871686 0.801894 0.297548 0.518103 0.350555 0.14991 0.924466 
0.115442 -0.018853 0.993135 -0.0405999 -0.0571006 0.997543 -0.128081 -0.100713 0.986637 
-0.166608 -0.0995863 0.980981 -0.0881258 0.0449961 0.995093 0.0859608 -0.121353 0.98888 
0.0321743 -0.0685555 0.997128 -0.0252415 -0.149925 0.988375 0.0461257 -0.0466003 0.997848 
0.0212537 -0.00422111 0.999765 -0.0508597 0.137419 0.989206 -0.28367 0.174956 0.942826 
-0.534427 0.257077 0.80517 0.656044 0.0962048 0.748566 0.264012 -0.00691945 0.964495 
0.0480291 -0.0527047 0.997454 -0.0844342 -0.105267 0.990853 -0.134983 -0.146397 0.979973 
0.0540042 -0.129208 0.990146 -0.0518094 0.178463 0.982582 -0.121618 -0.245051 0.961852 
-0.0200464 -0.01921 0.999614 -0.00178883 -0.0676723 0.997706 0.128829 -0.0254481 0.99134 
0.0796492 -0.00414987 0.996814 -0.0564614 0.00708239 0.99838 -0.236588 -0.0225383 0.971349 
-0.501943 0.0649054 0.862462 0.554137 0.00710768 0.832395 0.208643 -0.0532984 0.976539 
0.0178876 -0.0700703 0.997382 -0.132925 -0.0510912 0.989808 -0.156168 -0.0465056 0.986635 
0.0663254 -0.074313 0.995027 -0.153093 -0.177999 0.972049 0.0276072 -0.0374813 0.998916 
0.132586 -0.148244 0.980023 -0.0249486 -0.0119324 0.999618 0.109186 -0.030475 0.993554 
0.0547266 -0.0528563 0.997101 -0.07789 -0.106089 0.991301 -0.225124 -0.114638 0.967563 
-0.489307 -0.145346 0.859914 0.52367 -0.0618383 0.849674 0.197818 -0.0971487 0.975413 
0.0564531 -0.0446166 0.997408 -0.0667379 -0.0337727 0.997199 -0.146049 0.0253189 0.988953 
-0.0253869 0.0468387 0.99858 -0.0543293 -0.144192 0.988057 -0.129619 0.0768097 0.988584 
0.0346264 -0.160457 0.986435 0.101185 -0.0240384 0.994577 0.0883666 -0.0426005 0.995177 
0.00497634 -0.0811355 0.996691 -0.1061 -0.147402 0.983369 -0.281761 -0.236431 0.929899 
0.541191 -0.228868 0.809155 0.246685 -0.18804 0.950677 0.0907538 -0.152426 0.984139 
-0.0615354 -0.115741 0.991371 -0.0821726 -0.0876957 0.992752 -0.0904893 -0.0623527 0.993944 
-0.129598 -0.144752 0.980944 -0.0548992 -0.0477016 0.997352 0.0705486 -0.0147924 0.997399 
0.0907368 -0.0295002 0.995438 0.0510995 -0.0639686 0.996643 -0.0519256 -0.157651 0.986129 
-0.200574 -0.209646 0.956984 -0.376656 -0.258483 0.88956 0.343989 -0.432638 0.833364 
0.13674 -0.358184 0.923584 -0.00471204 -0.309868 0.950768 -0.0841676 -0.256238 0.962942 
-0.0892636 -0.25722 0.962221 -0.0438241 -0.214528 0.975734 0.0081125 -0.103806 0.994564 
0.0526326 -0.0913254 0.994429 0.0504485 -0.120871 0.991386 -0.0396379 -0.182687 0.982372 
-0.153129 -0.274382 0.94935 -0.234748 -0.365362 0.90078 0.00295562 -0.556842 0.830613 
0.0701576 -0.313844 0.946879 0.0504869 -0.301301 0.952191 0.0062748 -0.274371 0.961603 
-0.111216 -0.339605 0.93397 0.294195 0.736534 0.60907 0.155619 0.766465 0.623149 
0.0162735 0.782745 0.62213 0.0086409 0.998811 0.0479796 -0.13467 0.762543 0.632766 
-0.263707 0.706558 0.656684 0.410198 0.708 0.574869 0.462812 0.674028 0.575752 
0.522627 0.771187 0.3635 -0.304302 0.711529 0.633346 -0.30841 0.703341 0.640465 
-0.333934 0.779317 0.530239 -0.332083 0.628575 0.703288 0.594445 0.611959 0.521672 
0.608814 0.610579 0.506496 0.678794 0.655367 0.331258 -0.346962 0.608544 0.713647 
-0.34241 0.600414 0.722675 -0.386826 0.707499 0.591448 -0.37584 0.512511 0.77206 
0.692434 0.549695 0.4673 0.71307 0.532872 0.455608 0.815421 0.574055 0.074497 
-0.401136 0.496595 0.76973 -0.416719 0.439257 0.795863 -0.540262 0.664077 0.516835 
0.729041 0.471303 0.49636 0.815443 0.325891 0.47838 -0.451155 0.372388 0.81104 
-0.553819 0.314917 0.770786 -0.717606 0.532475 0.4489 0.820538 0.304196 0.483925 
-0.576777 0.266489 0.772213 0.752185 0.131222 0.645754 -0.659271 0.0695378 0.748683 
-0.963177 0.111303 0.244748 0.687254 0.0428282 0.725154 -0.621623 -0.14728 0.769346 
-0.49876 -0.268615 0.824066 -0.963666 -0.113342 0.241869 0.630824 -0.0556361 0.773929 
0.976831 -0.068086 0.202892 -0.48104 -0.27853 0.831277 -0.505833 -0.280551 0.815735 
0.636839 -0.233032 0.734937 0.567475 -0.342875 0.748605 -0.391211 -0.268638 0.88022 
-0.384767 -0.276419 0.880651 -0.63425 -0.459612 0.621678 0.42396 -0.473313 0.772161 
0.633412 -0.556259 0.537927 0.357677 -0.518656 0.776572 0.152966 -0.58016 0.800009 
0.0759479 -0.588313 0.805059 -0.0434566 -0.451591 0.891166 0.0155912 -0.337344 0.941252 
-0.202097 -0.402468 0.892847 -0.254937 -0.370745 0.893059 -0.242205 -0.376074 0.894374 
-0.481103 -0.463495 0.744119 0.432379 -0.782153 0.448648 0.173756 -0.677819 0.714402 
0.044183 -0.584386 0.810272 0.0834374 -0.616074 0.783257 -0.0218063 -0.503966 0.863448 
0.0080026 -0.571871 0.820304 -0.0368973 -0.47035 0.881708 0.0534496 -0.330563 0.942269 
0.0270704 -0.364055 0.930984 0.0692817 -0.329154 0.941731 0.0614784 -0.367277 0.928078 
0.00913971 -0.399262 0.916791 -0.166096 -0.396682 0.902804 -0.140982 -0.416896 0.897954 
-0.239664 -0.495964 0.834614 -0.418337 -0.627421 0.656763 0.142207 -0.812996 0.564637 
0.135069 -0.713196 0.687829 0.0805293 -0.658834 0.747966 0.0655294 -0.660055 0.748354 
-0.019832 -0.685949 0.72738 -0.220752 -0.788648 0.573849 0.00740541 0.999963 -0.00433352 
0.555478 0.830778 0.0353699 0.34256 0.938533 0.0425221 0.0568974 0.99838 8.99013e-05 
0.147082 0.989076 0.00977553 -0.0581481 0.998241 -0.0115915 0.00559265 0.998592 -0.0527574 
-0.140433 0.989893 -0.0197742 -0.27448 0.961432 -0.01758 -0.365436 0.930484 0.0256318 
0.609624 0.791871 0.036043 0.733655 0.678803 0.0312609 0.51225 0.772023 -0.376271 
-0.423454 0.90591 -0.00360848 -0.432971 0.901335 -0.0114349 -0.444292 0.894342 0.0525062 
0.751246 0.659762 0.0185142 0.820441 0.569183 -0.0539205 0.715176 0.599959 -0.358571 
-0.481904 0.874837 0.0492893 -0.487696 0.871722 0.0474708 -0.589015 0.803837 0.0831115 
0.824934 0.562382 -0.0566533 0.820073 0.559934 -0.118123 -0.66626 0.740497 0.0881012 
-0.772568 0.623362 0.120661 0.845812 0.532331 -0.03502 0.871423 0.489914 -0.0246378 
-0.825297 0.54731 0.139052 0.897385 0.441231 0.00392698 -0.944105 0.305334 0.124242 
-0.966503 0.127928 0.222498 0.946967 0.305168 0.100629 -0.967054 0.112752 0.22824 
-0.987783 0.1287 0.0878655 0.970213 0.152199 0.188471 0.982592 0.0400612 0.181408 
-0.964785 -0.113124 0.237474 -0.96394 -0.117284 0.238881 -0.970999 -0.112757 0.210823 
0.982493 -0.0649647 0.174608 0.979207 -0.0895048 0.182053 0.997177 -0.0666059 0.0346546 
-0.921773 -0.269552 0.278703 0.936816 -0.265445 0.22785 -0.804837 -0.464707 0.369168 
-0.742002 -0.551681 0.380895 0.790033 -0.550782 0.269233 0.696 -0.665948 0.268508 
-0.718366 -0.588896 0.370341 -0.612745 -0.70499 0.357117 0.533458 -0.798857 0.277938 
0.446585 -0.846826 0.288873 0.274946 -0.908289 0.315304 0.158779 -0.902416 0.400542 
0.110212 -0.878906 0.464088 -0.400936 -0.849312 0.343395 -0.568346 -0.747276 0.344327 
-0.486136 -0.811078 0.325304 0.228127 -0.973029 -0.034259 0.1247 -0.868321 0.480071 
0.131066 -0.92311 0.361511 0.150402 -0.84653 0.510652 0.158568 -0.804914 0.571813 
0.108778 -0.814708 0.569577 0.0132945 -0.838202 0.545199 -0.108555 -0.893738 0.435256 
-0.391702 -0.855218 0.33937 -0.236155 -0.913451 0.331418 -0.409832 -0.89215 0.190017 
0.277921 0.818941 -0.502091 0.10886 0.836688 -0.536752 -0.0185497 0.82251 -0.568447 
-0.147869 0.78654 -0.599575 -0.225949 0.767771 -0.599562 -0.297204 0.773748 -0.559449 
0.486078 0.760373 -0.430769 0.501082 0.752783 -0.426889 0.222762 0.711159 -0.666806 
0.0605295 0.626628 -0.776964 -0.0513653 0.584382 -0.809852 -0.102022 0.581232 -0.807317 
-0.186774 0.663388 -0.724591 -0.310239 0.76633 -0.562575 -0.296813 0.751181 -0.589601 
-0.333129 0.688231 -0.644486 -0.329602 0.758135 -0.562667 0.698223 0.585182 -0.412367 
0.701861 0.581359 -0.411597 0.436276 0.465295 -0.770172 -0.0896282 0.290012 -0.952817 
-0.137219 0.293088 -0.946187 -0.230067 0.38149 -0.895285 -0.239229 0.570931 -0.785371 
-0.361463 0.749314 -0.554863 -0.299255 0.708538 -0.639078 -0.420364 0.716841 -0.556268 
-0.514451 0.660238 -0.547197 0.729579 0.513307 -0.451919 0.738974 0.513339 -0.43635 
0.559632 0.442802 -0.700527 -0.0854153 0.213442 -0.973215 -0.101396 0.338188 -0.9356 
-0.164768 0.402067 -0.900663 -0.307721 0.540398 -0.78312 -0.518595 0.653464 -0.551401 
-0.513309 0.647246 -0.563548 -0.662996 0.50115 -0.556134 0.741841 0.515278 -0.429139 
0.78322 0.485314 -0.388634 0.660585 0.48474 -0.573284 -0.134179 0.299573 -0.944591 
-0.377845 0.37562 -0.846252 -0.672738 0.492876 -0.551812 -0.65752 0.492141 -0.570495 
0.786979 0.481659 -0.385575 0.778913 0.480994 -0.402417 -0.332669 0.158586 -0.929614 
-0.768135 0.30981 -0.560345 -0.653013 0.316224 -0.688169 0.868722 0.354042 -0.346375 
0.712079 0.335633 -0.61668 -0.853596 0.167898 -0.493136 -0.505991 0.204713 -0.837893 
0.939001 0.18356 -0.290831 -0.892892 -0.0658634 -0.445428 -0.510181 0.0464918 -0.85881 
0.958223 -0.0646576 -0.278619 -0.921758 -0.173709 -0.346679 0.922248 -0.235377 -0.306687 
0.627682 -0.202434 -0.751689 -0.889302 -0.366996 -0.272867 -0.779065 -0.584755 -0.226096 
-0.65004 -0.33239 -0.683348 0.813122 -0.514333 -0.27257 0.725072 -0.6372 -0.26124 
0.673388 -0.472359 -0.568706 -0.738149 -0.628999 -0.243918 -0.607186 -0.760038 -0.23166 
-0.519566 -0.462353 -0.718527 0.59869 -0.770031 -0.220504 0.509619 -0.837945 -0.195286 
0.502763 -0.721471 -0.47614 0.34384 -0.928012 -0.143413 -0.566073 -0.789588 -0.23688 
-0.485449 -0.82738 -0.282458 -0.402134 -0.69872 -0.591674 0.245981 -0.961697 -0.120966 
0.236205 -0.964056 -0.121669 0.236104 -0.959357 -0.154563 0.188745 -0.980782 -0.0494181 
0.215279 -0.901623 -0.37514 0.235356 -0.971855 -0.0102987 0.204139 -0.978891 -0.00997726 
0.0797734 -0.996451 -0.0268506 -0.0737069 -0.995151 -0.0651306 -0.233678 -0.964376 -0.123986 
-0.332491 -0.904721 -0.266325 -0.31147 -0.78677 -0.532897 -0.394982 -0.890217 -0.226942 
-0.382838 -0.89574 -0.226019 -0.380126 -0.882198 -0.277905 0.150555 0.47739 -0.865697 
-0.0218107 0.414976 -0.909571 -0.0900577 0.333354 -0.938491 0.28332 0.431035 -0.856702 
0.368688 0.396147 -0.840914 0.132382 0.39958 -0.907089 -0.0424035 0.334667 -0.941382 
-0.0897804 0.289586 -0.952932 -0.0959602 0.289534 -0.952345 -0.0858008 0.252315 -0.963834 
-0.113883 0.1928 -0.974607 0.423457 0.384883 -0.820091 0.475869 0.386008 -0.790283 
0.290606 0.32135 -0.901267 0.068949 0.181399 -0.980989 -0.0853462 0.151392 -0.984782 
-0.115262 0.116984 -0.986422 -0.0843446 0.117589 -0.989474 -0.0863594 0.182866 -0.979338 
-0.0921734 0.114952 -0.989085 -0.0601895 0.187029 -0.980509 -0.0818832 0.273294 -0.958439 
-0.109073 0.242849 -0.963913 0.48864 0.38878 -0.781077 0.535519 0.397758 -0.744989 
0.406851 0.333913 -0.850279 0.143188 0.21487 -0.966089 -0.0171336 0.108912 -0.993904 
-0.108801 0.0423517 -0.993161 -0.137673 0.105659 -0.984826 -0.0961232 0.116108 -0.988574 
-0.0435603 0.0849353 -0.995434 0.00238225 0.118464 -0.992955 -0.0416628 0.141436 -0.98907 
-0.107712 0.241807 -0.964327 -0.105037 0.226057 -0.968434 -0.129364 0.249113 -0.959796 
0.545997 0.392578 -0.740115 0.505962 0.379983 -0.774348 0.256263 0.257046 -0.931803 
0.049588 0.148445 -0.987677 -0.113128 0.0554671 -0.992031 -0.076103 -0.0198449 -0.996902 
-0.0116527 0.237243 -0.97138 -0.110235 0.136116 -0.984541 -0.106755 0.300117 -0.94791 
-0.0351735 0.0636416 -0.997353 0.0151044 0.0456501 -0.998843 -0.00336998 0.124606 -0.992201 
-0.263501 0.148556 -0.953152 -0.159674 0.156533 -0.97468 -0.245734 0.15272 -0.957231 
0.621063 0.308447 -0.720514 0.658272 0.233467 -0.715662 0.3883 0.255456 -0.885418 
0.13523 0.15743 -0.978227 -0.0598933 0.0714576 -0.995644 -0.173693 0.0257897 -0.984462 
0.0420465 0.0417119 -0.998245 0.0393389 0.173285 -0.984086 -0.0166345 -0.0880841 -0.995974 
-0.0947682 0.211976 -0.972669 -0.250306 0.0686266 -0.965731 0.0188039 0.066506 -0.997609 
0.0133323 0.0883346 -0.996002 -0.0803416 0.0858619 -0.993062 -0.351921 0.188162 -0.916922 
-0.185669 0.165856 -0.968514 0.668643 0.161122 -0.725918 0.633577 0.157663 -0.757445 
0.294024 0.0790765 -0.952521 0.0752824 0.0307441 -0.996688 -0.0826255 0.0230247 -0.996315 
-0.142768 0.0534933 -0.98831 0.0525597 0.15027 -0.987247 -0.116042 0.0344076 -0.992648 
-0.0263385 0.129806 -0.99119 -0.00691403 -0.0910126 -0.995826 -0.192146 0.0942759 -0.976827 
0.0395718 0.128063 -0.990976 0.0147251 0.120736 -0.992575 -0.0937238 0.0956836 -0.99099 
-0.470069 0.0515747 -0.881122 -0.216274 0.0929384 -0.971899 -0.516758 -0.0329393 -0.855498 
0.661998 -0.0735455 -0.745889 0.6152 -0.177364 -0.768161 0.603292 -0.084144 -0.793069 
0.256009 -0.0813711 -0.963243 0.0808658 -0.0640911 -0.994662 -0.0380658 0.0106493 -0.999218 
-0.0506542 0.0664135 -0.996506 0.0446472 0.106675 -0.993291 -0.0716711 -0.129018 -0.989049 
-0.133134 0.121335 -0.983643 -0.0817583 -0.0656316 -0.994489 -0.0386351 0.112853 -0.99286 
0.0364577 0.121984 -0.991862 -0.0178016 0.068318 -0.997505 -0.0962158 0.0211664 -0.995135 
-0.263319 0.00253798 -0.964706 -0.524171 -0.0578045 -0.849649 -0.525411 -0.0709188 -0.847888 
-0.519788 -0.056589 -0.852419 0.60097 -0.198461 -0.774241 0.337922 -0.169408 -0.925802 
0.156893 -0.121856 -0.980069 0.048933 -0.0800757 -0.995587 -0.0486927 0.0219888 -0.998572 
-0.102595 -0.0124654 -0.994645 -0.101365 -0.0728317 -0.99218 -0.00755181 0.0573133 -0.998328 
-0.00570221 0.0597437 -0.998197 -0.00875612 0.0886457 -0.996025 -0.00652109 -0.00662495 -0.999957 
-0.0858413 -0.0521241 -0.994944 -0.153375 -0.0560572 -0.986577 -0.462307 -0.285881 -0.839371 
-0.371975 -0.317099 -0.8724 -0.295915 -0.243668 -0.923613 0.493916 -0.392391 -0.775936 
0.429689 -0.499054 -0.752537 0.406979 -0.374888 -0.832963 0.177637 -0.330709 -0.926864 
0.114399 -0.229524 -0.966557 0.0178516 -0.170638 -0.985172 -0.0552195 -0.117541 -0.991532 
0.00369617 -0.0193239 -0.999806 -0.000777037 0.0462799 -0.998928 -0.0486072 -0.00699873 -0.998793 
-0.106563 -0.059496 -0.992524 -0.104357 -0.155158 -0.982362 -0.0690755 -0.212752 -0.974662 
-0.396703 -0.379644 -0.835762 -0.321014 -0.474744 -0.819492 -0.298763 -0.342239 -0.890849 
0.322834 -0.569693 -0.755796 0.29741 -0.578642 -0.759421 0.290855 -0.552916 -0.780824 
0.213566 -0.68919 -0.692392 0.193024 -0.471317 -0.860582 0.17999 -0.692193 -0.698908 
0.0657559 -0.434616 -0.898212 0.0492969 -0.304567 -0.951214 0.0646811 -0.210185 -0.97552 
0.00301284 -0.205324 -0.978689 -0.10685 -0.175554 -0.978654 -0.156467 -0.264032 -0.951738 
-0.241747 -0.506595 -0.827599 -0.179968 -0.35791 -0.916249 -0.285429 -0.485963 -0.826057 
-0.282695 -0.487022 -0.826374 -0.27903 -0.473761 -0.83528 0.19435 -0.723762 -0.662116 
0.189826 -0.725396 -0.661639 0.187164 -0.704673 -0.684402 0.117154 -0.70054 -0.70393 
0.102657 -0.601337 -0.792373 0.0675656 -0.685642 -0.724797 0.0574607 -0.561259 -0.825643 
-0.0853231 -0.704674 -0.704382 -0.102125 -0.510396 -0.853854 -0.307648 -0.563467 -0.766719 
-0.308481 -0.565049 -0.765218 -0.304357 -0.543381 -0.78237 
