# vtk DataFile Version 4.2
vtk output
ASCII
DATASET POLYDATA
POINTS 500 float
-30.0257 -16.9685 -21.0025 -22.0885 -16.9685 -21.0018 -14.1513 -16.9685 -20.6458 
-6.21405 -16.9685 -21.0637 1.72317 -16.9685 -21.7987 9.66039 -16.9685 -21.7645 
17.5976 -16.9685 -21.4948 25.5348 -16.9685 -21.3789 33.4721 -16.9685 -20.7425 
-45.9002 -9.03127 -20.0574 -37.963 -9.03127 -23.004 -30.0257 -9.03127 -23.5618 
-22.0885 -9.03127 -23.3892 -14.1513 -9.03127 -23.2008 -6.21405 -9.03127 -23.9638 
1.72317 -9.03127 -24.268 9.66039 -9.03127 -25.218 17.5976 -9.03127 -25.1047 
25.5348 -9.03127 -24.8958 33.4721 -9.03127 -24.2141 41.4093 -9.03127 -21.7505 
-45.9002 -1.09404 -21.2481 -37.963 -1.09404 -24.4423 -30.0257 -1.09404 -25.2117 
-22.0885 -1.09404 -24.3686 -14.1513 -1.09404 -24.7514 -6.21405 -1.09404 -26.6606 
1.72317 -1.09404 -26.2305 9.66039 -1.09404 -25.8173 17.5976 -1.09404 -26.0821 
25.5348 -1.09404 -26.7212 33.4721 -1.09404 -26.2727 41.4093 -1.09404 -24.2149 
-45.9002 6.84318 -21.3441 -37.963 6.84318 -24.9563 -30.0257 6.84318 -26.2066 
-22.0885 6.84318 -25.2912 -14.1513 6.84318 -25.3917 -6.21405 6.84318 -26.9398 
1.72317 6.84318 -26.8764 9.66039 6.84318 -25.7353 17.5976 6.84318 -26.1726 
25.5348 6.84318 -27.2171 33.4721 6.84318 -26.8879 41.4093 6.84318 -24.8571 
-45.9002 14.7804 -19.6312 -37.963 14.7804 -24.454 -30.0257 14.7804 -26.1096 
-22.0885 14.7804 -26.3939 -14.1513 14.7804 -26.2744 -6.21405 14.7804 -26.2141 
1.72317 14.7804 -26.1381 9.66039 14.7804 -26.0201 17.5976 14.7804 -26.4588 
25.5348 14.7804 -26.7919 33.4721 14.7804 -26.1924 41.4093 14.7804 -23.5019 
-37.963 22.7176 -21.6786 -30.0257 22.7176 -25.7114 -22.0885 22.7176 -26.6607 
-14.1513 22.7176 -26.8602 -6.21405 22.7176 -26.4034 1.72317 22.7176 -26.3107 
9.66039 22.7176 -26.1646 17.5976 22.7176 -26.1681 25.5348 22.7176 -26.0096 
33.4721 22.7176 -24.3238 41.4093 22.7176 -19.8698 -30.0257 30.6549 -20.9332 
-22.0885 30.6549 -23.9944 -14.1513 30.6549 -24.9127 -6.21405 30.6549 -25.4851 
1.72317 30.6549 -25.5009 9.66039 30.6549 -25.0044 17.5976 30.6549 -24.1144 
25.5348 30.6549 -22.6683 1.72317 38.5921 -19.629 -37.963 -24.9057 -12.6227 
-30.0257 -19.4997 -19.5009 -30.0257 -24.9057 -15.6362 -22.0885 -20.0513 -19.5009 
-22.0885 -24.9057 -16.9064 -14.1513 -19.4385 -19.5009 -14.1513 -24.9057 -16.6903 
-6.21405 -19.8478 -19.5009 -6.21405 -24.9057 -16.5046 1.72317 -20.2408 -19.5009 
1.72317 -24.9057 -15.8711 9.66039 -19.8414 -19.5009 9.66039 -24.9057 -15.3673 
17.5976 -19.6964 -19.5009 17.5976 -24.9057 -15.424 25.5348 -19.7687 -19.5009 
25.5348 -24.9057 -15.5743 33.4721 -18.8537 -19.5009 33.4721 -24.9057 -14.4742 
-45.9002 -10.0513 -19.5009 -45.9002 -16.9685 -13.7274 -37.6574 -16.9685 -19.5009 
-37.963 -16.8465 -19.5009 -37.963 -16.9685 -19.4268 36.9717 -16.9685 -19.5009 
41.4093 -13.6335 -19.5009 41.4093 -16.9685 -17.4299 -46.5472 -9.03127 -19.5009 
44.9005 -9.03127 -19.5009 49.3465 -9.03127 -15.1271 -48.05 -1.09404 -19.5009 
48.4189 -1.09404 -19.5009 49.3465 -1.09404 -18.4461 -47.9476 6.84318 -19.5009 
48.9075 6.84318 -19.5009 49.3465 6.84318 -18.9091 -46.0341 14.7804 -19.5009 
-45.9002 15.033 -19.5009 46.7261 14.7804 -19.5009 49.3465 14.7804 -15.5941 
-40.8843 22.7176 -19.5009 -37.963 25.7696 -19.5009 33.4721 30.283 -19.5009 
41.8021 22.7176 -19.5009 41.4093 23.151 -19.5009 -32.2006 30.6549 -19.5009 
-30.0257 31.9827 -19.5009 -22.0885 35.3505 -19.5009 -14.1513 37.2049 -19.5009 
-6.21405 38.1854 -19.5009 9.66039 38.1912 -19.5009 17.5976 36.6235 -19.5009 
32.8768 30.6549 -19.5009 25.5348 34.0448 -19.5009 33.4721 30.6549 -18.9088 
-14.1513 38.5921 -15.3252 -0.168044 38.5921 -19.5009 -6.21405 38.5921 -18.4563 
3.73685 38.5921 -19.5009 1.72317 38.6906 -19.5009 9.66039 38.5921 -18.5832 
17.5976 38.5921 -14.7158 -37.963 -25.7279 -11.5637 -30.0257 -29.14 -11.5637 
-30.0257 -32.8429 -4.93412 -22.0885 -31.1382 -11.5637 -22.0885 -32.8429 -9.28078 
-14.1513 -31.6467 -11.5637 -14.1513 -32.8429 -10.323 -6.21405 -31.5843 -11.5637 
-6.21405 -32.8429 -10.3982 1.72317 -30.709 -11.5637 1.72317 -32.8429 -9.78695 
9.66039 -29.7828 -11.5637 9.66039 -32.8429 -8.90034 17.5976 -29.815 -11.5637 
17.5976 -32.8429 -8.52637 25.5348 -29.3247 -11.5637 25.5348 -32.8429 -6.85529 
33.4721 -27.6675 -11.5637 -39.0598 -24.9057 -11.5637 -45.9002 -18.799 -11.5637 
38.8581 -24.9057 -11.5637 41.4093 -23.3432 -11.5637 41.4093 -24.9057 -9.12046 
-47.4131 -16.9685 -11.5637 47.7694 -16.9685 -11.5637 49.3465 -14.3562 -11.5637 
49.3465 -16.9685 -8.42517 -51.8919 -9.03127 -11.5637 51.7153 -9.03127 -11.5637 
-53.717 -1.09404 -11.5637 -53.8374 -1.09404 -10.3631 53.3879 -1.09404 -11.5637 
-52.9404 6.84318 -11.5637 53.2403 6.84318 -11.5637 -50.484 14.7804 -11.5637 
-45.9002 22.4237 -11.5637 51.1812 14.7804 -11.5637 49.3465 18.2686 -11.5637 
-45.6944 22.7176 -11.5637 -45.9002 22.7176 -7.08472 -37.963 30.1133 -11.5637 
46.374 22.7176 -11.5637 41.4093 27.9922 -11.5637 -37.1857 30.6549 -11.5637 
-30.0257 34.7574 -11.5637 -22.0885 37.5599 -11.5637 25.5348 37.3184 -11.5637 
38.0485 30.6549 -11.5637 33.4721 33.6987 -11.5637 -17.9915 38.5921 -11.5637 
-14.1513 39.5359 -11.5637 -6.21405 40.4887 -11.5637 1.72317 40.9305 -11.5637 
9.66039 40.5851 -11.5637 21.0373 38.5921 -11.5637 17.5976 39.5241 -11.5637 
-30.0257 -33.4259 -3.62643 -22.0885 -36.0536 -3.62643 -14.1513 -37.4535 -3.62643 
-6.21405 -38.0461 -3.62643 1.72317 -38.082 -3.62643 9.66039 -37.4296 -3.62643 
17.5976 -36.3265 -3.62643 25.5348 -34.7117 -3.62643 -31.1152 -32.8429 -3.62643 
-37.963 -28.8683 -3.62643 31.3243 -32.8429 -3.62643 33.4721 -32.1412 -3.62643 
33.4721 -32.8429 0.162462 41.4093 -27.7771 -3.62643 -42.6359 -24.9057 -3.62643 
-45.9002 -21.3858 -3.62643 44.7619 -24.9057 -3.62643 49.3465 -19.6248 -3.62643 
-49.203 -16.9685 -3.62643 51.092 -16.9685 -3.62643 -53.0269 -9.03127 -3.62643 
-53.8374 -4.59454 -3.62643 53.9816 -9.03127 -3.62643 -54.4447 -1.09404 -3.62643 
-53.8374 4.4159 -3.62643 54.9067 -1.09404 -3.62643 -53.5701 6.84318 -3.62643 
54.3051 6.84318 -3.62643 -50.9589 14.7804 -3.62643 51.8689 14.7804 -3.62643 
49.3465 19.0663 -3.62643 -46.0464 22.7176 -3.62643 -45.9002 22.888 -3.62643 
-45.9002 22.7176 -2.81562 -37.963 30.1794 -3.62643 46.7239 22.7176 -3.62643 
41.4093 28.2704 -3.62643 -37.2054 30.6549 -3.62643 -30.0257 34.55 -3.62643 
-22.0885 37.1699 -3.62643 25.5348 37.1462 -3.62643 38.2294 30.6549 -3.62643 
33.4721 33.7052 -3.62643 -14.8848 38.5921 -3.62643 -14.1513 38.7384 -3.62643 
-14.1513 38.5921 -3.12668 -6.21405 39.6959 -3.62643 -6.21405 38.5921 -0.484772 
1.72317 40.2307 -3.62643 1.72317 38.5921 1.27605 9.66039 40.2003 -3.62643 
9.66039 38.5921 1.89852 20.0507 38.5921 -3.62643 17.5976 39.2266 -3.62643 
17.5976 38.5921 -1.12762 -30.0257 -34.8566 4.31079 -22.0885 -37.6979 4.31079 
-14.1513 -39.2696 4.31079 -6.21405 -40.2283 4.31079 1.72317 -40.7664 4.31079 
9.66039 -40.4138 4.31079 17.5976 -39.0363 4.31079 25.5348 -36.8572 4.31079 
33.4721 -33.613 4.31079 -33.4378 -32.8429 4.31079 -37.963 -29.7309 4.31079 
34.9375 -32.8429 4.31079 33.4721 -32.8429 8.88446 41.4093 -28.8719 4.31079 
-43.1229 -24.9057 4.31079 -45.9002 -21.5385 4.31079 45.6884 -24.9057 4.31079 
49.3465 -20.1739 4.31079 -49.0517 -16.9685 4.31079 51.2795 -16.9685 4.31079 
49.3465 -16.9685 10.523 -52.5911 -9.03127 4.31079 -53.8374 -1.93607 4.31079 
53.854 -9.03127 4.31079 -53.9826 -1.09404 4.31079 -53.8374 -0.042024 4.31079 
-53.8374 -1.09404 4.91088 54.3823 -1.09404 4.31079 -52.8837 6.84318 4.31079 
53.4292 6.84318 4.31079 -49.9244 14.7804 4.31079 -45.9002 20.9446 4.31079 
50.8274 14.7804 4.31079 49.3465 17.1745 4.31079 49.3465 14.7804 7.59582 
-44.4746 22.7176 4.31079 -37.963 28.4533 4.31079 45.0771 22.7176 4.31079 
41.4093 26.4415 4.31079 41.4093 22.7176 10.8138 -34.4037 30.6549 4.31079 
-30.0257 32.9516 4.31079 -30.0257 30.6549 8.9031 -22.0885 35.0024 4.31079 
-22.0885 30.6549 11.7852 -14.1513 36.2193 4.31079 -6.21405 36.7227 4.31079 
-6.21405 30.6549 12.0952 1.72317 37.4213 4.31079 9.66039 37.8305 4.31079 
17.5976 37.1527 4.31079 25.5348 35.3288 4.31079 35.535 30.6549 4.31079 
33.4721 31.9251 4.31079 33.4721 30.6549 7.06206 -30.0257 -33.7309 12.248 
-22.0885 -36.7168 12.248 -14.1513 -38.3771 12.248 -6.21405 -39.7212 12.248 
1.72317 -40.4782 12.248 9.66039 -40.4481 12.248 17.5976 -38.9229 12.248 
25.5348 -36.1422 12.248 -31.5492 -32.8429 12.248 -37.963 -28.4181 12.248 
-30.0257 -32.8429 14.2674 32.341 -32.8429 12.248 25.5348 -32.8429 18.5058 
33.4721 -32.1971 12.248 41.4093 -26.4328 12.248 -41.6551 -24.9057 12.248 
-45.9002 -19.3981 12.248 -37.963 -24.9057 18.5745 42.962 -24.9057 12.248 
41.4093 -24.9057 14.1265 -47.5107 -16.9685 12.248 -45.9002 -16.9685 15.2379 
48.6441 -16.9685 12.248 41.4093 -16.9685 18.8143 49.3465 -14.6237 12.248 
-50.9462 -9.03127 12.248 -45.9002 -9.03127 20.0666 50.7381 -9.03127 12.248 
49.3465 -9.03127 13.9693 -51.8506 -1.09404 12.248 -45.9002 -1.09404 20.0161 
41.4093 -1.09404 20.083 51.0433 -1.09404 12.248 49.3465 -1.09404 14.3072 
-50.3345 6.84318 12.248 -45.9002 6.84318 18.0485 41.4093 6.84318 18.9972 
49.8815 6.84318 12.248 49.3465 8.29723 12.248 49.3465 6.84318 12.892 
-46.56 14.7804 12.248 -45.9002 15.7868 12.248 -45.9002 14.7804 13.0424 
-37.963 14.7804 18.9664 46.5013 14.7804 12.248 41.4093 21.5465 12.248 
41.4093 14.7804 16.9569 -39.5652 22.7176 12.248 -37.963 24.0056 12.248 
-37.963 22.7176 13.537 -30.0257 28.3275 12.248 -30.0257 22.7176 17.0207 
-22.0885 30.2823 12.248 -22.0885 22.7176 18.5027 -14.1513 22.7176 19.0559 
-6.21405 30.4906 12.248 -6.21405 22.7176 18.2043 1.72317 22.7176 17.6954 
9.66039 22.7176 18.6215 17.5976 22.7176 19.4343 25.5348 22.7176 18.8447 
40.1525 22.7176 12.248 33.4721 27.5607 12.248 33.4721 22.7176 16.3871 
-14.8694 30.6549 12.248 -12.5791 30.6549 12.248 -14.1513 30.6874 12.248 
-14.1513 30.6549 12.2822 -3.72528 30.6549 12.248 1.72317 30.9833 12.248 
1.72317 30.6549 12.5298 9.66039 32.5445 12.248 9.66039 30.6549 14.0588 
17.5976 32.6022 12.248 17.5976 30.6549 14.2388 27.0192 30.6549 12.248 
25.5348 31.2392 12.248 25.5348 30.6549 12.9061 -22.0885 -33.0237 20.1852 
[...]
POINT_DATA 500
SCALARS ImageScalars float
LOOKUP_TABLE default
0 0 0 0 0 0 0 0 0 
0 0 0 0 0 0 0 0 0 
0 0 0 0 0 0 0 0 0 
0 0 0 0 0 0 0 0 0 
0 0 0 0 0 0 0 0 0 
0 0 0 0 0 0 0 0 0 
0 0 0 0 0 0 0 0 0 
0 0 0 0 0 0 0 0 0 
0 0 0 0 0 0 0 0 0 
0 0 0 0 0 0 0 0 0 
0 0 0 0 0 0 0 0 0 
0 0 0 0 0 0 0 0 0 
0 0 0 0 0 0 0 0 0 
0 0 0 0 0 0 0 0 0 
0 0 0 0 0 0 0 0 0 
0 0 0 0 0 0 0 0 0 
0 0 0 0 0 0 0 0 0 
0 0 0 0 0 0 0 0 0 
0 0 0 0 0 0 0 0 0 
0 0 0 0 0 0 0 0 0 
0 0 0 0 0 0 0 0 0 
0 0 0 0 0 0 0 0 0 
0 0 0 0 0 0 0 0 0 
0 0 0 0 0 0 0 0 0 
0 0 0 0 0 0 0 0 0 
0 0 0 0 0 0 0 0 0 
0 0 0 0 0 0 0 0 0 
0 0 0 0 0 0 0 0 0 
0 0 0 0 0 0 0 0 0 
0 0 0 0 0 0 0 0 0 
0 0 0 0 0 0 0 0 0 
0 0 0 0 0 0 0 0 0 
0 0 0 0 0 0 0 0 0 
0 0 0 0 0 0 0 0 0 
0 0 0 0 0 0 0 0 0 
0 0 0 0 0 0 0 0 0 
0 0 0 0 0 0 0 0 0 
0 0 0 0 0 0 0 0 0 
0 0 0 0 0 0 0 0 0 
0 0 0 0 0 0 0 0 0 
0 0 0 0 0 0 0 0 0 
0 0 0 0 0 0 0 0 0 
0 0 0 0 0 0 0 0 0 
0 0 0 0 0 0 0 0 0 
0 0 0 0 0 0 0 0 0 
0 0 0 0 0 0 0 0 0 
0 0 0 0 0 0 0 0 0 
0 0 0 0 0 0 0 0 0 
0 0 0 0 0 0 0 0 0 
0 0 0 0 0 0 0 0 0 
0 0 0 0 0 0 0 0 0 
0 0 0 0 0 0 0 0 0 
0 0 0 0 0 0 0 0 0 
0 0 0 0 0 0 0 0 0 
0 0 0 0 0 0 0 0 0 
0 0 0 0 0 
NORMALS Normals float
0.0860685 0.414984 0.905749 -0.0215039 0.367858 0.929633 0.00425607 0.368906 0.929457 
0.0655548 0.416419 0.906806 0.0424071 0.463589 0.885035 -0.0167701 0.54101 0.840849 
-0.0205943 0.523865 0.851552 -0.0425847 0.495404 0.867619 -0.189677 0.498794 0.845711 
0.575176 0.308524 0.757618 0.199916 0.283429 0.937924 0.0244148 0.248406 0.968348 
-0.0222313 0.197754 0.98 0.034072 0.247938 0.968177 0.0655202 0.330981 0.94136 
0.0749657 0.253082 0.964536 0.0521961 0.218097 0.97453 -0.0193234 0.253732 0.967081 
-0.0534189 0.307701 0.949982 -0.176005 0.323647 0.929664 -0.410656 0.351736 0.841216 
0.532318 0.0764684 0.843084 0.21486 0.123458 0.96881 -0.00735672 0.162965 0.986604 
-0.0282679 0.117759 0.99264 0.140788 0.136276 0.980616 0.0932815 0.180832 0.97908 
-0.0531993 0.165522 0.98477 -0.00851286 0.0312907 0.999474 0.0556109 0.0653276 0.996313 
0.0128276 0.140657 0.989975 -0.148816 0.160816 0.975701 -0.391476 0.174609 0.90347 
0.586592 -0.084172 0.805497 0.268002 -0.00063502 0.963418 0.0160078 0.0565281 0.998273 
-0.0500349 0.126343 0.990724 0.100985 0.0937826 0.990458 0.0933175 -0.0293736 0.995203 
-0.0767929 -0.00725669 0.997021 -0.0426136 0.0127756 0.99901 0.0931141 0.0236594 0.995374 
0.0453584 0.00367122 0.998964 -0.141591 -0.00681788 0.989902 -0.399442 -0.0379688 0.915972 
0.698773 -0.296462 0.65102 0.342489 -0.176255 0.922841 0.123028 -0.0275413 0.992021 
0.00998535 0.0849647 0.996334 -0.0115795 0.092609 0.995635 -0.00847023 -0.0323118 0.999442 
-0.0122127 -0.0345071 0.99933 0.0201782 0.0270043 0.999432 0.0484824 -0.000169255 0.998824 
-0.0172921 -0.076932 0.996886 -0.183547 -0.145347 0.972206 -0.480815 -0.255627 0.838732 
0.51295 -0.450961 0.730422 0.272054 -0.257527 0.927182 0.0646475 -0.124158 0.990154 
-0.0169306 -0.0763557 0.996937 -0.0338767 -0.0384684 0.998685 -0.0150492 -0.0338792 0.999313 
-0.00893278 -0.0553646 0.998426 -0.0099226 -0.136159 0.990637 -0.10415 -0.221597 0.96956 
-0.332191 -0.357697 0.872755 -0.600628 -0.518058 0.608985 0.410547 -0.668461 0.62017 
0.212282 -0.53015 0.8209 0.08435 -0.433515 0.89719 0.0353005 -0.338496 0.940306 
-0.0279289 -0.317982 0.947685 -0.0856442 -0.362529 0.928029 -0.131666 -0.440718 0.887937 
-0.246036 -0.593462 0.766334 0.00115277 -0.843334 0.537389 0.443478 0.727424 0.523624 
0.105961 0.481542 0.869994 0.191059 0.656904 0.729365 0.00181401 0.432799 0.901488 
0.049512 0.559654 0.827246 -0.00388408 0.414046 0.910248 -0.0210568 0.526059 0.850188 
0.0266405 0.464901 0.884962 -0.0415921 0.547621 0.835692 -0.00408123 0.544303 0.838879 
-0.0594073 0.601474 0.79668 -0.0216561 0.594869 0.803531 -0.0223863 0.623906 0.781179 
-0.00328505 0.567281 0.823518 0.0101846 0.619225 0.785148 -0.0317037 0.549541 0.834865 
-0.0426728 0.649248 0.759379 -0.191808 0.539726 0.819698 -0.232877 0.68453 0.690787 
0.581069 0.336666 0.740955 0.665025 0.570474 0.481977 0.291593 0.497261 0.817132 
0.298491 0.496719 0.814968 0.301319 0.500776 0.811437 -0.290278 0.510287 0.809534 
-0.421967 0.447163 0.788663 -0.443045 0.528948 0.723827 0.606363 0.307743 0.733224 
-0.539552 0.344642 0.768183 -0.766083 0.313528 0.561085 0.646769 0.0736474 0.759122 
-0.697872 0.149735 0.700395 -0.755639 0.138337 0.640213 0.691672 -0.102615 0.714885 
-0.747233 -0.0755526 0.660253 -0.776974 -0.0808228 0.624323 0.70364 -0.297577 0.645243 
0.701856 -0.303661 0.644351 -0.700564 -0.310018 0.642728 -0.83419 -0.344668 0.430501 
0.600834 -0.500603 0.623214 0.54929 -0.57867 0.602844 -0.470874 -0.695837 0.542299 
-0.613604 -0.521774 0.592657 -0.605624 -0.531675 0.592066 0.465118 -0.695607 0.547536 
0.424643 -0.724954 0.542328 0.280503 -0.805188 0.522485 0.143105 -0.841086 0.521628 
0.0748378 -0.851594 0.518833 -0.100179 -0.826888 0.553372 -0.20122 -0.783113 0.588426 
-0.459581 -0.703945 0.541522 -0.311288 -0.751002 0.582319 -0.477986 -0.718214 0.505667 
0.167824 -0.951165 0.259075 0.0197069 -0.851194 0.52448 0.0794533 -0.891198 0.446601 
-0.0246283 -0.84577 0.532978 0.0015921 -0.848223 0.529636 -0.100391 -0.868111 0.486113 
-0.207393 -0.93783 0.278322 0.460017 0.746697 0.480445 0.268062 0.763093 0.588075 
0.379485 0.865788 0.326193 0.114812 0.743884 0.658372 0.156051 0.812376 0.561866 
0.0202302 0.692688 0.720954 0.0383319 0.742162 0.669123 -0.035301 0.665109 0.745912 
-0.0247554 0.70701 0.70677 -0.0714155 0.63796 0.766751 -0.0675311 0.686562 0.723929 
-0.0335011 0.632951 0.773466 -0.0559485 0.696106 0.715756 -0.0207531 0.679085 0.733766 
-0.0748829 0.769137 0.634682 -0.0996928 0.73473 0.670994 -0.193161 0.847555 0.494308 
-0.267225 0.74775 0.607833 0.485603 0.736659 0.470663 0.689584 0.612311 0.386717 
-0.420208 0.707108 0.568703 -0.499848 0.67719 0.539968 -0.532483 0.718904 0.44681 
0.736619 0.562571 0.375375 -0.707341 0.519018 0.479885 -0.778076 0.437854 0.450423 
-0.796255 0.497792 0.343776 0.881692 0.339732 0.327414 -0.860174 0.292712 0.417636 
0.956683 0.0517423 0.286495 0.968659 0.0482433 0.243664 -0.936855 0.0837129 0.339551 
0.948328 -0.173452 0.265686 -0.950248 -0.138547 0.278985 0.886504 -0.39412 0.242448 
0.792707 -0.572609 0.209129 -0.89835 -0.363213 0.247068 -0.859794 -0.45465 0.232482 
0.786746 -0.581281 0.20771 0.789237 -0.611269 0.0587896 0.581591 -0.795761 0.168868 
-0.781218 -0.586331 0.214276 -0.657775 -0.724244 0.20689 0.562686 -0.810757 0.161426 
0.408294 -0.903337 0.131448 0.281328 -0.956008 0.0830873 -0.331085 -0.932029 0.147329 
-0.580975 -0.792908 0.183749 -0.490735 -0.85484 0.168604 0.227845 -0.970993 0.0725204 
0.178843 -0.98122 0.0722677 0.0882064 -0.992951 0.0791679 0.00560832 -0.996508 0.0833136 
-0.0859565 -0.990861 0.103954 -0.252341 -0.959052 0.128617 -0.195927 -0.973001 0.121986 
0.390816 0.876053 0.282479 0.231881 0.910278 0.342967 0.116185 0.912811 0.391505 
0.0365659 0.898871 0.436685 -0.0329074 0.869131 0.493485 -0.0986101 0.856359 0.506877 
-0.153007 0.875027 0.459257 -0.235022 0.892774 0.384342 0.412403 0.868589 0.274731 
0.56128 0.802388 0.202825 -0.32215 0.89098 0.319959 -0.357393 0.885007 0.298385 
-0.392104 0.906648 0.155704 -0.579314 0.774931 0.25274 0.668132 0.726275 0.161628 
0.765432 0.632581 0.118134 -0.668438 0.707826 0.228413 -0.819077 0.543907 0.182422 
0.851285 0.517801 0.0848362 -0.866847 0.469953 0.166495 0.953818 0.298621 0.0325094 
0.988634 0.148962 0.0203037 -0.968084 0.221558 0.117154 0.999378 0.0315835 0.0156674 
0.991465 -0.130372 -0.000167047 -0.998211 0.0194252 0.0565486 0.979632 -0.20071 -0.00602645 
-0.981801 -0.18958 0.0111976 0.909851 -0.413683 -0.0321944 -0.913424 -0.406549 -0.0193367 
-0.851518 -0.522503 -0.043691 0.778082 -0.625789 -0.0545549 0.774847 -0.629691 -0.0556959 
0.774345 -0.6285 -0.0733285 0.566522 -0.81969 -0.0846199 -0.778494 -0.624647 -0.0613427 
-0.654168 -0.752738 -0.0738216 0.547483 -0.832235 -0.0874482 0.391239 -0.913976 -0.107607 
0.247006 -0.957166 -0.151069 -0.320859 -0.939723 -0.118195 -0.573376 -0.814913 -0.0845975 
-0.472578 -0.875926 -0.0970763 0.162271 -0.968649 -0.188116 0.153967 -0.969304 -0.191689 
0.151378 -0.96694 -0.205209 0.0920524 -0.971793 -0.217126 0.0841918 -0.946794 -0.310634 
0.0303935 -0.978775 -0.202672 0.0493153 -0.935104 -0.350924 -0.0615818 -0.984559 -0.163862 
-0.0343971 -0.945715 -0.323171 -0.224096 -0.965255 -0.1344 -0.182829 -0.973132 -0.139959 
-0.17412 -0.963767 -0.202078 0.439999 0.897824 0.017723 0.262948 0.964167 0.035206 
0.156272 0.986487 0.049223 0.0937677 0.991397 0.0913223 0.0122814 0.992197 0.124077 
-0.105762 0.981937 0.156888 -0.213517 0.966665 0.141312 -0.315163 0.945585 0.080881 
-0.42305 0.906051 0.0100073 0.515134 0.857069 0.00840082 0.619964 0.784431 -0.0176754 
-0.451087 0.892479 0.0010153 -0.4602 0.870934 -0.172306 -0.624864 0.778996 -0.0520565 
0.726459 0.685672 -0.0459482 0.793468 0.604612 -0.0696727 -0.733716 0.675062 -0.0771458 
-0.846857 0.520491 -0.109186 0.865424 0.492832 -0.0903232 -0.895566 0.426292 -0.127423 
-0.839438 0.381095 -0.387441 0.952869 0.280685 -0.115134 0.988493 0.0446719 -0.14452 
-0.967334 0.183734 -0.174664 0.988857 0.0170514 -0.147889 0.988321 -0.0150029 -0.151646 
0.986083 0.0134684 -0.165709 -0.977261 -0.0239263 -0.210687 0.957416 -0.227207 -0.178136 
-0.945287 -0.218508 -0.242253 0.866654 -0.445001 -0.225578 0.7645 -0.59955 -0.236811 
-0.865728 -0.426476 -0.261979 -0.830011 -0.48975 -0.266884 -0.818301 -0.428035 -0.383626 
0.718717 -0.649482 -0.248233 0.551659 -0.786223 -0.278435 -0.719753 -0.637269 -0.275398 
-0.64026 -0.71351 -0.284553 -0.603255 -0.612746 -0.510515 0.459834 -0.838715 -0.291736 
0.349226 -0.883868 -0.311156 0.318159 -0.81992 -0.475926 0.189031 -0.912708 -0.36226 
0.108212 -0.761267 -0.639345 0.0999736 -0.898866 -0.426667 0.0656698 -0.879034 -0.472214 
0.0133206 -0.688934 -0.724701 0.0625955 -0.886022 -0.459399 -0.0180977 -0.916552 -0.399505 
-0.145899 -0.924823 -0.351307 -0.288627 -0.904183 -0.314877 -0.502098 -0.81503 -0.289179 
-0.456175 -0.840319 -0.292863 -0.451373 -0.809707 -0.375015 0.434706 0.863097 -0.257089 
0.266577 0.929273 -0.25571 0.178879 0.950841 -0.252792 0.128582 0.966932 -0.220247 
0.0428587 0.981333 -0.187479 -0.0942472 0.983893 -0.151893 -0.255619 0.951501 -0.171189 
-0.377553 0.891271 -0.251177 0.466873 0.846207 -0.256834 0.621867 0.737739 -0.262723 
0.434482 0.840361 -0.324067 -0.466176 0.831086 -0.303276 -0.410802 0.714848 -0.565892 
-0.483228 0.813592 -0.323355 -0.643546 0.65013 -0.403954 0.705077 0.65503 -0.271665 
0.80057 0.518001 -0.30127 0.603145 0.616788 -0.505756 -0.678349 0.60918 -0.410781 
-0.641434 0.588023 -0.492739 0.83237 0.460967 -0.307683 0.793497 0.441752 -0.41859 
-0.803342 0.362232 -0.472684 -0.524705 0.254137 -0.812465 -0.820604 0.292618 -0.490901 
0.907168 0.232045 -0.351 0.70433 0.141979 -0.695529 -0.83115 0.129519 -0.540754 
-0.785889 0.116169 -0.607358 0.907602 -0.0329375 -0.418537 0.643988 -0.0882333 -0.759931 
-0.409998 -0.0656966 -0.909717 -0.823128 -0.0456709 -0.566016 -0.761484 -0.0483095 -0.646381 
0.844524 -0.274428 -0.459857 0.624013 -0.296985 -0.722778 -0.436708 -0.163351 -0.884648 
-0.789981 -0.223988 -0.570754 -0.779161 -0.258749 -0.570926 -0.771773 -0.222809 -0.595586 
0.720238 -0.468331 -0.511784 0.703747 -0.489632 -0.514783 0.69455 -0.470146 -0.544576 
0.370049 -0.422762 -0.827246 -0.704287 -0.412071 -0.57808 -0.587304 -0.573743 -0.57087 
-0.522977 -0.361347 -0.771961 0.513861 -0.640215 -0.571027 0.47385 -0.664595 -0.577736 
0.457928 -0.629815 -0.627403 0.277827 -0.730857 -0.623426 0.233169 -0.54283 -0.806826 
0.103927 -0.745065 -0.658845 0.103346 -0.50655 -0.855995 -0.0148594 -0.558969 -0.829055 
0.0114403 -0.684385 -0.729031 -0.0719556 -0.580074 -0.81138 0.027809 -0.465527 -0.884596 
0.0962073 -0.395892 -0.913244 0.0152907 -0.412389 -0.910879 -0.157659 -0.450022 -0.87899 
-0.557476 -0.597785 -0.576085 -0.410613 -0.696936 -0.587944 -0.359624 -0.5335 -0.765538 
0.0179715 -0.734169 -0.678729 0.0101844 -0.723358 -0.690398 0.00968826 -0.732555 -0.680639 
0.00948604 -0.73184 -0.68141 0.0395796 -0.673038 -0.738548 0.0989137 -0.647494 -0.755624 
0.0989374 -0.638314 -0.763391 0.0717228 -0.710117 -0.700421 0.0871542 -0.643116 -0.760793 
-0.0693187 -0.754519 -0.652607 -0.0533377 -0.684495 -0.727064 -0.265385 -0.751256 -0.604306 
-0.232124 -0.756607 -0.611281 -0.225591 -0.738118 -0.635838 0.24639 0.782733 -0.571508 
0.161861 0.798358 -0.580022 0.143573 0.807604 -0.571981 0.0769006 0.835779 -0.543654 
-0.0876517 0.826697 -0.555779 -0.295371 0.744414 -0.598835 0.256037 0.780376 -0.57049 
0.409646 0.703338 -0.580952 0.244961 0.776782 -0.580176 0.150264 0.73217 -0.66434 
0.138062 0.670177 -0.729247 0.0603353 0.603352 -0.795189 -0.118917 0.572139 -0.81149 
-0.380117 0.663848 -0.644062 -0.297731 0.600142 -0.742419 -0.403669 0.605214 -0.686125 
-0.438393 0.418609 -0.795348 0.556684 0.594353 -0.580386 0.587346 0.553825 -0.590172 
0.373091 0.498883 -0.782252 0.179685 0.43508 -0.88228 0.0780611 0.383059 -0.92042 
-0.26233 0.182063 -0.947648 -0.34337 0.291659 -0.892767 -0.441672 0.410498 -0.797758 
-0.434248 0.404696 -0.804767 0.68003 0.362143 -0.637504 0.512774 0.287175 -0.809069 
0.295488 0.136291 -0.945575 -0.193661 -0.0597959 -0.979245 -0.231076 0.00708828 -0.97291 
-0.445666 0.201357 -0.87226 -0.336844 0.141876 -0.93081 -0.441361 0.0625351 -0.895148 
0.698312 0.138726 -0.702222 0.386979 0.0185106 -0.921903 0.180084 -0.104639 -0.97807 
-0.20894 -0.116966 -0.970908 -0.203994 -0.139783 -0.968941 -0.142424 -0.112689 -0.98337 
-0.219531 -0.00413223 -0.975597 -0.441358 0.0619127 -0.895193 -0.439837 0.0562606 -0.896313 
-0.441073 0.061882 -0.895335 0.631909 -0.0920418 -0.769558 0.291101 -0.190085 -0.937618 
0.106309 -0.230218 -0.967315 0.0992686 -0.296448 -0.949876 0.0662124 -0.288092 -0.955311 
-0.0402798 -0.29041 -0.956054 -0.0744062 -0.334041 -0.939617 -0.145494 -0.203509 -0.968202 
-0.194034 -0.118565 -0.973803 -0.101903 -0.0843609 -0.991211 -0.400009 -0.0662576 -0.914113 
-0.176202 -0.0796039 -0.98113 0.440864 -0.300725 -0.845697 0.323191 -0.371166 -0.870507 
0.277898 -0.302056 -0.911885 0.106211 -0.28018 -0.954054 0.089564 -0.27119 -0.95835 
0.081589 -0.252421 -0.964172 -0.101109 -0.247783 -0.963525 -0.0746621 -0.31992 -0.944498 
0.00607201 -0.293811 -0.955844 -0.0821666 -0.133663 -0.987615 -0.105094 -0.0929376 -0.99011 
-0.334653 -0.140834 -0.931758 -0.213931 -0.129651 -0.968207 0.237054 -0.375508 -0.89599 
0.169499 -0.379241 -0.909641 0.152231 -0.34856 -0.924841 0.116912 -0.395202 -0.911124 
0.123995 -0.29782 -0.946535 0.00620559 -0.500761 -0.865564 0.0841105 -0.328264 -0.940834 
-0.0996276 -0.516119 -0.850703 -0.119801 -0.377508 -0.918224 -0.0644066 -0.35599 -0.932268 
-0.0970821 -0.319457 -0.942615 0.0751348 -0.344178 -0.935893 0.0561815 -0.31244 -0.948275 
0.0168189 -0.359496 -0.932995 0.00939444 -0.234384 -0.972099 -0.123993 -0.336751 -0.933394 
-0.0966345 -0.218129 -0.971124 -0.263771 -0.279312 -0.92326 -0.246288 -0.291677 -0.924266 
-0.238312 -0.272404 -0.932204 0.0419336 0.334871 -0.94133 0.00399912 0.251827 -0.967764 
-0.134558 0.17996 -0.974427 0.16462 0.270405 -0.948568 0.0579889 0.35199 -0.934206 
0.0731027 0.353931 -0.93241 0.0358898 0.318762 -0.947155 -0.00509752 0.206174 -0.978502 
-0.145375 0.160218 -0.976318 -0.134249 0.159473 -0.978032 0.241277 0.111824 -0.963992 
0.153622 0.0902288 -0.984002 0.0397142 0.0990392 -0.994291 -0.0403934 0.0789397 -0.996061 
-0.111762 0.0117745 -0.993665 -0.174145 -0.0582619 -0.982995 -0.174245 -0.05848 -0.982964 
-0.174114 -0.0582506 -0.983001 0.156962 -0.157131 -0.975025 0.138762 -0.207901 -0.968257 
0.14804 -0.180982 -0.972281 0.067143 -0.242433 -0.967842 0.0657436 -0.156857 -0.985431 
-0.0438138 -0.251332 -0.966909 -0.054801 -0.146359 -0.987713 -0.171788 -0.140383 -0.97508 
-0.124863 -0.209605 -0.969781 -0.143408 -0.157089 -0.977117 
