# vtk DataFile Version 4.2
vtk output
ASCII
DATASET POLYDATA
POINTS 546 float
-24.4758 -40.1104 -11.5582 -16.783 -40.1104 -10.5337 -32.1686 -32.4176 -11.5478 
-24.4758 -32.4176 -13.4258 -16.783 -32.4176 -13.2305 -9.09015 -32.4176 -12.8615 
-1.39731 -32.4176 -12.6571 6.29552 -32.4176 -13.114 13.9884 -32.4176 -13.2959 
21.6812 -32.4176 -12.936 29.374 -32.4176 -13.2523 37.0668 -32.4176 -12.6301 
44.7597 -32.4176 -11.9685 -39.8615 -24.7248 -10.821 -32.1686 -24.7248 -13.2415 
-24.4758 -24.7248 -14.7089 -16.783 -24.7248 -14.3367 -9.09015 -24.7248 -13.7076 
-1.39731 -24.7248 -13.5093 6.29552 -24.7248 -14.0319 13.9884 -24.7248 -14.2555 
21.6812 -24.7248 -14.5589 29.374 -24.7248 -15.4077 37.0668 -24.7248 -14.8457 
44.7597 -24.7248 -15.3539 52.4525 -24.7248 -12.6879 -39.8615 -17.0319 -12.3902 
-32.1686 -17.0319 -14.0711 -24.4758 -17.0319 -14.6545 -16.783 -17.0319 -14.3458 
-9.09015 -17.0319 -13.4565 -1.39731 -17.0319 -13.1533 6.29552 -17.0319 -13.7401 
13.9884 -17.0319 -14.0354 21.6812 -17.0319 -14.9075 29.374 -17.0319 -15.576 
37.0668 -17.0319 -16.238 44.7597 -17.0319 -15.8255 52.4525 -17.0319 -14.2869 
60.1453 -17.0319 -10.6247 -39.8615 -9.33911 -13.0741 -32.1686 -9.33911 -14.0953 
-24.4758 -9.33911 -14.4861 -16.783 -9.33911 -14.148 -9.09015 -9.33911 -14.9488 
-1.39731 -9.33911 -16.352 6.29552 -9.33911 -14.465 13.9884 -9.33911 -13.3548 
21.6812 -9.33911 -14.1784 29.374 -9.33911 -15.3512 37.0668 -9.33911 -16.1485 
44.7597 -9.33911 -15.4665 52.4525 -9.33911 -14.8817 60.1453 -9.33911 -11.8018 
-47.5543 -1.64628 -10.4599 -39.8615 -1.64628 -12.6362 -32.1686 -1.64628 -13.7157 
-24.4758 -1.64628 -13.7871 -16.783 -1.64628 -14.2508 -9.09015 -1.64628 -15.4915 
-1.39731 -1.64628 -12.0813 6.29552 -1.64628 -16.5204 13.9884 -1.64628 -14.4962 
21.6812 -1.64628 -13.3371 29.374 -1.64628 -14.7404 37.0668 -1.64628 -15.808 
44.7597 -1.64628 -15.268 52.4525 -1.64628 -14.51 60.1453 -1.64628 -11.5545 
-47.5543 6.04656 -10.7884 -39.8615 6.04656 -12.7317 -32.1686 6.04656 -13.7883 
-24.4758 6.04656 -13.8374 -16.783 6.04656 -13.5197 -9.09015 6.04656 -16.2917 
-1.39731 6.04656 -15.5111 6.29552 6.04656 -15.3255 13.9884 6.04656 -14.5641 
21.6812 6.04656 -14.016 29.374 6.04656 -14.9981 37.0668 6.04656 -16.0592 
44.7597 6.04656 -15.032 52.4525 6.04656 -14.1843 60.1453 6.04656 -11.1602 
-47.5543 13.7394 -10.6523 -39.8615 13.7394 -13.1134 -32.1686 13.7394 -13.719 
-24.4758 13.7394 -13.6458 -16.783 13.7394 -13.068 -9.09015 13.7394 -13.8093 
-1.39731 13.7394 -14.918 6.29552 13.7394 -13.397 13.9884 13.7394 -14.0866 
21.6812 13.7394 -14.9691 29.374 13.7394 -15.4116 37.0668 13.7394 -15.703 
44.7597 13.7394 -14.694 52.4525 13.7394 -11.6131 -47.5543 21.4322 -11.1074 
-39.8615 21.4322 -12.1273 -32.1686 21.4322 -12.9446 -24.4758 21.4322 -13.9612 
-16.783 21.4322 -13.3986 -9.09015 21.4322 -13.3527 -1.39731 21.4322 -14.5907 
6.29552 21.4322 -14.8479 13.9884 21.4322 -14.8141 21.6812 21.4322 -15.1635 
29.374 21.4322 -15.7622 37.0668 21.4322 -14.1091 44.7597 21.4322 -12.9805 
-39.8615 29.1251 -10.3361 -32.1686 29.1251 -11.744 -24.4758 29.1251 -12.3671 
-16.783 29.1251 -13.914 -9.09015 29.1251 -14.1019 -1.39731 29.1251 -14.9528 
6.29552 29.1251 -15.4965 13.9884 29.1251 -15.2808 21.6812 29.1251 -15.3193 
29.374 29.1251 -13.6318 37.0668 29.1251 -12.2671 -24.4758 36.8179 -10.3833 
-16.783 36.8179 -13.0248 -9.09015 36.8179 -13.4904 -1.39731 36.8179 -14.5375 
6.29552 36.8179 -14.8945 13.9884 36.8179 -14.2694 21.6812 36.8179 -13.3356 
29.374 36.8179 -10.803 -16.783 44.5107 -11.1496 -9.09015 44.5107 -10.993 
-1.39731 44.5107 -11.9684 6.29552 44.5107 -11.9822 13.9884 44.5107 -10.9456 
21.6812 44.5107 -10.4868 -24.4758 -41.7753 -10.2263 -16.783 -40.5783 -10.2263 
-28.0859 -40.1104 -10.2263 -32.1686 -35.6128 -10.2263 -32.1686 -40.1104 -7.54345 
-10.9024 -40.1104 -10.2263 -9.09015 -39.8852 -10.2263 -9.09015 -40.1104 -10.1331 
-1.39731 -38.6202 -10.2263 -1.39731 -40.1104 -9.47954 6.29552 -38.6987 -10.2263 
6.29552 -40.1104 -9.38206 13.9884 -38.6804 -10.2263 13.9884 -40.1104 -9.15107 
21.6812 -37.5095 -10.2263 21.6812 -40.1104 -7.99623 29.374 -38.0449 -10.2263 
29.374 -40.1104 -7.25348 37.0668 -35.4538 -10.2263 37.0668 -40.1104 -2.72747 
44.7597 -34.8111 -10.2263 -36.3463 -32.4176 -10.2263 -39.8615 -27.4327 -10.2263 
-39.8615 -32.4176 -8.84266 48.2421 -32.4176 -10.2263 52.4525 -28.9832 -10.2263 
52.4525 -32.4176 -3.46501 -41.1932 -24.7248 -10.2263 -47.5543 -24.7248 -6.93027 
56.2928 -24.7248 -10.2263 60.1453 -17.4879 -10.2263 -55.2471 -17.0319 -2.68312 
-46.3623 -17.0319 -10.2263 -47.5543 -17.0319 -9.72825 60.3357 -17.0319 -10.2263 
-55.2471 -9.33911 -5.71363 -47.1063 -9.33911 -10.2263 -47.5543 -5.78072 -10.2263 
-47.5543 -9.33911 -10.0252 62.0477 -9.33911 -10.2263 -48.1247 -1.64628 -10.2263 
-55.2471 -1.64628 -7.25598 61.8221 -1.64628 -10.2263 -49.0188 6.04656 -10.2263 
-55.2471 6.04656 -7.86922 61.2718 6.04656 -10.2263 60.1453 8.73505 -10.2263 
-48.7741 13.7394 -10.2263 -55.2471 13.7394 -7.82542 55.3096 13.7394 -10.2263 
52.4525 20.1504 -10.2263 60.1453 13.7394 -5.80458 -48.9265 21.4322 -10.2263 
-55.2471 21.4322 -4.0267 -47.5543 23.082 -10.2263 51.7437 21.4322 -10.2263 
44.7597 27.4326 -10.2263 52.4525 21.4322 -9.6868 -40.092 29.1251 -10.2263 
-47.5543 29.1251 -3.99799 -39.8615 29.2939 -10.2263 -32.1686 33.0381 -10.2263 
42.6085 29.1251 -10.2263 37.0668 32.8799 -10.2263 44.7597 29.1251 -8.58475 
-25.1936 36.8179 -10.2263 -32.1686 36.8179 -6.61188 -24.4758 37.1733 -10.2263 
30.9696 36.8179 -10.2263 29.374 37.7622 -10.2263 37.0668 36.8179 -5.70325 
-18.8057 44.5107 -10.2263 -24.4758 44.5107 -2.61662 -16.783 45.5889 -10.2263 
-9.09015 45.5469 -10.2263 -1.39731 46.6653 -10.2263 6.29552 46.3956 -10.2263 
13.9884 45.3328 -10.2263 22.1995 44.5107 -10.2263 21.6812 44.7755 -10.2263 
-32.1686 -43.5293 -2.53343 -24.4758 -46.578 -2.53343 -16.783 -47.6804 -2.53343 
-9.09015 -47.4646 -2.53343 -1.39731 -46.0014 -2.53343 6.29552 -45.0466 -2.53343 
13.9884 -44.1163 -2.53343 21.6812 -43.3227 -2.53343 29.374 -41.9938 -2.53343 
37.0668 -40.177 -2.53343 -37.7183 -40.1104 -2.53343 -39.8615 -38.501 -2.53343 
21.6812 -40.1104 4.11555 29.374 -40.1104 2.49878 37.2536 -40.1104 -2.53343 
37.0668 -40.1104 -2.37513 44.7597 -37.3131 -2.53343 52.4525 -32.7681 -2.53343 
-46.1715 -32.4176 -2.53343 -47.5543 -30.6942 -2.53343 -47.5543 -32.4176 2.90407 
52.9022 -32.4176 -2.53343 52.4525 -32.4176 -1.99898 -51.8687 -24.7248 -2.53343 
-55.2471 -17.3355 -2.53343 59.3278 -24.7248 -2.53343 60.1453 -23.5432 -2.53343 
-55.3684 -17.0319 -2.53343 63.2328 -17.0319 -2.53343 60.1453 -17.0319 2.15241 
-58.1787 -9.33911 -2.53343 65.3475 -9.33911 -2.53343 -59.9272 -1.64628 -2.53343 
65.5439 -1.64628 -2.53343 -60.7513 6.04656 -2.53343 64.9426 6.04656 -2.53343 
-60.7203 13.7394 -2.53343 61.7399 13.7394 -2.53343 60.1453 16.3401 -2.53343 
60.1453 13.7394 0.88153 -56.5889 21.4322 -2.53343 -55.2471 23.0086 -2.53343 
56.4494 21.4322 -2.53343 52.4525 26.1661 -2.53343 52.4525 21.4322 5.14 
-48.8368 29.1251 -2.53343 -47.5543 30.052 -2.53343 -47.5543 29.1251 1.53612 
-39.8615 33.8765 -2.53343 49.0123 29.1251 -2.53343 44.7597 32.1379 -2.53343 
44.7597 29.1251 3.79339 -34.8132 36.8179 -2.53343 -32.1686 38.4053 -2.53343 
-32.1686 36.8179 0.0122198 -24.4758 36.8179 2.86532 29.374 44.0801 -2.53343 
38.9784 36.8179 -2.53343 37.0668 38.3173 -2.53343 37.0668 36.8179 1.65026 
-24.5168 44.5107 -2.53343 -24.4758 44.5418 -2.53343 -24.4758 44.5107 -2.47586 
-16.783 48.6765 -2.53343 -16.783 44.5107 4.90289 -9.09015 50.8353 -2.53343 
-1.39731 50.8067 -2.53343 6.29552 50.2405 -2.53343 13.9884 49.7601 -2.53343 
28.5994 44.5107 -2.53343 21.6812 47.6897 -2.53343 -32.1686 -42.5999 5.15941 
-24.4758 -46.0446 5.15941 -16.783 -47.5406 5.15941 -9.09015 -46.2353 5.15941 
-1.39731 -45.2222 5.15941 6.29552 -42.7943 5.15941 13.9884 -40.94 5.15941 
-47.5543 -32.9152 5.15941 -37.5945 -40.1104 5.15941 -39.8615 -38.8935 5.15941 
-32.1686 -40.1104 7.8481 -24.4758 -40.1104 10.8683 -16.783 -40.1104 11.7007 
-9.09015 -40.1104 11.5243 -1.39731 -40.1104 10.1223 6.29552 -40.1104 7.8007 
18.3411 -40.1104 5.15941 13.9884 -40.1104 5.98493 21.6812 -39.256 5.15941 
29.374 -38.3222 5.15941 37.0668 -34.1015 5.15941 44.7597 -32.523 5.15941 
-48.0447 -32.4176 5.15941 -47.5543 -32.4176 6.03456 -39.8615 -32.4176 11.2218 
6.29552 -32.4176 12.2982 13.9884 -32.4176 10.868 21.6812 -32.4176 9.6614 
29.374 -32.4176 8.42849 37.0668 -32.4176 6.28186 44.8985 -32.4176 5.15941 
44.7597 -32.4176 5.23059 52.4525 -25.6251 5.15941 -53.5422 -24.7248 5.15941 
-55.2471 -21.7762 5.15941 -47.5543 -24.7248 11.9311 21.6812 -24.7248 11.5974 
29.374 -24.7248 10.6311 37.0668 -24.7248 9.52367 44.7597 -24.7248 7.41377 
53.1909 -24.7248 5.15941 52.4525 -24.7248 5.6369 -57.4514 -17.0319 5.15941 
-55.2471 -17.0319 10.3047 21.6812 -17.0319 11.8216 29.374 -17.0319 11.1994 
37.0668 -17.0319 10.5796 44.7597 -17.0319 10.8899 55.2493 -17.0319 5.15941 
52.4525 -17.0319 6.4736 60.1453 -10.4684 5.15941 -60.314 -9.33911 5.15941 
-55.2471 -9.33911 12.4851 21.6812 -9.33911 12.081 29.374 -9.33911 12.0106 
37.0668 -9.33911 11.5291 44.7597 -9.33911 10.4459 52.4525 -9.33911 8.52455 
60.5575 -9.33911 5.15941 60.1453 -9.33911 5.48141 -62.0292 -1.64628 5.15941 
6.29552 -1.64628 10.315 37.0668 -1.64628 12.7841 44.7597 -1.64628 11.6517 
52.4525 -1.64628 10.4128 61.6403 -1.64628 5.15941 60.1453 -1.64628 6.40944 
-62.8532 6.04656 5.15941 -1.39731 6.04656 11.6085 44.7597 6.04656 12.0013 
52.4525 6.04656 10.8983 61.3143 6.04656 5.15941 60.1453 8.92575 5.15941 
60.1453 6.04656 6.2049 -62.2106 13.7394 5.15941 -55.2471 13.7394 11.2747 
-9.09015 13.7394 12.5873 37.0668 13.7394 12.7615 44.7597 13.7394 10.8581 
56.2997 13.7394 5.15941 52.4525 21.3995 5.15941 52.4525 13.7394 7.54008 
-57.3851 21.4322 5.15941 -55.2471 23.5699 5.15941 -55.2471 21.4322 8.23443 
-47.5543 27.7296 5.15941 -47.5543 21.4322 12.1602 -39.8615 21.4322 12.0209 
-32.1686 21.4322 12.1172 -24.4758 21.4322 10.6194 -16.783 21.4322 9.97106 
-9.09015 21.4322 11.8532 29.374 21.4322 11.8685 37.0668 21.4322 10.0937 
[...]
POINT_DATA 546
SCALARS ImageScalars float
LOOKUP_TABLE default
0 0 0 0 0 0 0 0 0 
0 0 0 0 0 0 0 0 0 
0 0 0 0 0 0 0 0 0 
0 0 0 0 0 0 0 0 0 
0 0 0 0 0 0 0 0 0 
0 0 0 0 0 0 0 0 0 
0 0 0 0 0 0 0 0 0 
0 0 0 0 0 0 0 0 0 
0 0 0 0 0 0 0 0 0 
0 0 0 0 0 0 0 0 0 
0 0 0 0 0 0 0 0 0 
0 0 0 0 0 0 0 0 0 
0 0 0 0 0 0 0 0 0 
0 0 0 0 0 0 0 0 0 
0 0 0 0 0 0 0 0 0 
0 0 0 0 0 0 0 0 0 
0 0 0 0 0 0 0 0 0 
0 0 0 0 0 0 0 0 0 
0 0 0 0 0 0 0 0 0 
0 0 0 0 0 0 0 0 0 
0 0 0 0 0 0 0 0 0 
0 0 0 0 0 0 0 0 0 
0 0 0 0 0 0 0 0 0 
0 0 0 0 0 0 0 0 0 
0 0 0 0 0 0 0 0 0 
0 0 0 0 0 0 0 0 0 
0 0 0 0 0 0 0 0 0 
0 0 0 0 0 0 0 0 0 
0 0 0 0 0 0 0 0 0 
0 0 0 0 0 0 0 0 0 
0 0 0 0 0 0 0 0 0 
0 0 0 0 0 0 0 0 0 
0 0 0 0 0 0 0 0 0 
0 0 0 0 0 0 0 0 0 
0 0 0 0 0 0 0 0 0 
0 0 0 0 0 0 0 0 0 
0 0 0 0 0 0 0 0 0 
0 0 0 0 0 0 0 0 0 
0 0 0 0 0 0 0 0 0 
0 0 0 0 0 0 0 0 0 
0 0 0 0 0 0 0 0 0 
0 0 0 0 0 0 0 0 0 
0 0 0 0 0 0 0 0 0 
0 0 0 0 0 0 0 0 0 
0 0 0 0 0 0 0 0 0 
0 0 0 0 0 0 0 0 0 
0 0 0 0 0 0 0 0 0 
0 0 0 0 0 0 0 0 0 
0 0 0 0 0 0 0 0 0 
0 0 0 0 0 0 0 0 0 
0 0 0 0 0 0 0 0 0 
0 0 0 0 0 0 0 0 0 
0 0 0 0 0 0 0 0 0 
0 0 0 0 0 0 0 0 0 
0 0 0 0 0 0 0 0 0 
0 0 0 0 0 0 0 0 0 
0 0 0 0 0 0 0 0 0 
0 0 0 0 0 0 0 0 0 
0 0 0 0 0 0 0 0 0 
0 0 0 0 0 0 0 0 0 
0 0 0 0 0 0 
NORMALS Normals float
0.129647 0.502796 0.854628 -0.0981263 0.463401 0.880699 0.2881 0.30251 0.908563 
0.0913146 0.206662 0.974142 -0.0372392 0.215707 0.975748 -0.0366927 0.200151 0.979078 
0.0152913 0.220932 0.975169 0.0399491 0.242872 0.969235 -0.0111829 0.264063 0.964441 
0.000110313 0.326928 0.945049 -0.00749549 0.369573 0.929171 -0.103884 0.518729 0.848604 
-0.241546 0.529898 0.812935 0.350168 0.196938 0.91575 0.226351 0.144779 0.963226 
0.0680067 0.0865188 0.993926 -0.0624183 0.0691292 0.995653 -0.0547489 0.0377411 0.997787 
0.0227019 0.0297127 0.999301 0.0476132 0.0358332 0.998223 0.0347749 0.0433003 0.998457 
0.0708627 0.118423 0.990431 0.0204224 0.16455 0.986157 -0.00886349 0.191227 0.981506 
-0.194966 0.330329 0.92351 -0.434789 0.324468 0.840047 0.279907 0.139812 0.949792 
0.13895 0.0547887 0.988783 0.0167676 -0.0144219 0.999755 -0.0734976 -0.0122381 0.99722 
-0.0799409 0.0658759 0.99462 0.0200455 0.136997 0.990369 0.0571053 0.0234493 0.998093 
0.0716662 -0.0582667 0.995725 0.103149 -0.025382 0.994342 0.0824912 -0.00374336 0.996585 
0.00886853 0.0838174 0.996442 -0.0957926 0.000578967 0.995401 -0.291616 0.184795 0.938515 
-0.779884 0.335438 0.528453 0.242546 0.0117307 0.970069 0.0953729 -0.0241456 0.995149 
0.0030396 -0.0562608 0.998411 0.0207224 -0.00636249 0.999765 0.135183 0.139201 0.980994 
-0.0438527 0.0396557 0.998251 -0.176697 0.155395 0.971921 -0.0130035 0.00235934 0.999913 
0.125499 -0.0977407 0.987267 0.129254 -0.054841 0.990094 0.00548667 -0.0278864 0.999596 
-0.0755909 -0.0425288 0.996232 -0.286467 0.0103263 0.958035 -0.565954 0.0152267 0.824296 
0.31852 0.0449565 0.946849 0.200015 -0.0234521 0.979512 0.0724782 -0.0192389 0.997184 
0.0341293 -0.0420308 0.998533 0.111424 -0.0412691 0.992916 -0.0629844 0.0716166 0.995442 
-0.00829272 -0.0674257 0.99769 0.119067 0.0694891 0.990452 -0.22123 0.100592 0.97002 
0.0436902 -0.0105769 0.998989 0.158792 -0.0211444 0.987086 0.0341164 -0.0059767 0.9994 
-0.076298 -0.0279311 0.996694 -0.297185 -0.0430365 0.95385 -0.545785 -0.0460111 0.836661 
0.287241 0.0112103 0.957793 0.181376 0.0318166 0.982899 0.0717081 0.000449161 0.997426 
-0.0173875 -0.00918525 0.999807 0.118789 -0.0769571 0.989933 0.160088 -0.0878533 0.983185 
-0.0660574 0.14191 0.987673 -0.0622102 -0.21016 0.975686 -0.0862029 -0.0317395 0.995772 
0.0315552 0.107209 0.993736 0.130574 0.0432884 0.990493 0.00303344 -0.00621053 0.999976 
-0.109441 -0.0400887 0.993185 -0.30304 -0.172704 0.937198 -0.574163 -0.171432 0.800592 
0.319239 0.0254576 0.947332 0.182134 -0.029702 0.982825 0.0374907 -0.0542325 0.997824 
-0.0422396 0.00748944 0.999079 0.00103019 -0.00773133 0.99997 0.130097 -0.17504 0.975928 
-0.0454773 -0.0550404 0.997448 -0.0455863 -0.0103392 0.998907 0.103125 0.0191595 0.994484 
0.0855349 0.0737968 0.993598 0.0469475 0.0483184 0.997728 -0.0586088 -0.124144 0.990532 
-0.214449 -0.105824 0.970986 -0.402149 -0.243874 0.882497 0.381807 -0.23687 0.893373 
0.144758 -0.214102 0.966026 0.107537 -0.110346 0.988059 0.0290407 -0.0809852 0.996292 
-0.0384795 0.0536176 0.99782 0.0779354 0.0249713 0.996646 0.0978334 0.00425058 0.995194 
0.0145524 0.13655 0.990526 0.0204509 0.0772967 0.996798 0.0596118 0.0221744 0.997975 
-0.0659678 -0.114455 0.991236 -0.163481 -0.198051 0.966462 -0.274116 -0.36202 0.890956 
0.33537 -0.458252 0.823123 0.161469 -0.298153 0.940762 0.138487 -0.214719 0.966808 
0.112306 -0.0325064 0.993142 0.0669463 0.0108947 0.997697 0.0901122 -0.00167147 0.99593 
0.0213846 0.00591521 0.999754 -0.0116149 -0.0308349 0.999457 -0.10694 -0.127609 0.986042 
-0.174838 -0.275064 0.945395 -0.268678 -0.375103 0.887192 0.361925 -0.383476 0.84968 
0.159137 -0.171183 0.972302 0.10094 -0.164063 0.981272 0.0906197 -0.162176 0.982592 
-0.0170097 -0.188193 0.981985 -0.103048 -0.236474 0.966158 -0.184397 -0.286314 0.940224 
-0.346636 -0.459785 0.817583 0.238411 -0.587655 0.77319 0.0451659 -0.506927 0.860805 
0.0529644 -0.525536 0.849121 -0.0572557 -0.586095 0.808217 -0.0869162 -0.606036 0.790675 
-0.266386 -0.673424 0.689593 0.145822 0.604408 0.783216 -0.0946177 0.480411 0.871925 
0.26659 0.546368 0.793984 0.3569 0.40717 0.840735 0.47304 0.648649 0.596228 
-0.0679192 0.477879 0.875796 -0.0561249 0.473867 0.878806 -0.0574859 0.486135 0.871991 
-0.027764 0.479046 0.877351 -0.0441806 0.575387 0.816687 0.00150413 0.545808 0.837909 
-0.0157036 0.652625 0.757518 -0.0424642 0.586697 0.808692 -0.062527 0.721862 0.689206 
-0.0161601 0.561385 0.827397 -0.0767537 0.810543 0.580628 -0.0754754 0.68204 0.72741 
-0.136999 0.89743 0.419346 -0.146222 0.630754 0.762082 -0.288438 0.957266 -0.0210861 
-0.312385 0.704101 0.637698 0.372966 0.347957 0.860129 0.387449 0.262572 0.883708 
0.479087 0.432609 0.763757 -0.431848 0.664568 0.6098 -0.565162 0.598043 0.568275 
-0.646039 0.760647 -0.0636354 0.370764 0.224729 0.901128 0.575901 0.423734 0.699134 
-0.652017 0.458169 0.604115 -0.791737 0.365234 0.48965 0.79315 0.351138 0.49761 
0.446761 0.152191 0.881614 0.487453 0.156343 0.859038 -0.797395 0.35091 0.490941 
0.65861 0.247266 0.710699 0.422208 0.0358697 0.905789 0.381423 0.0404099 0.923517 
0.434877 0.0403661 0.899585 -0.703591 0.0913147 0.704714 0.326695 0.0494943 0.943833 
0.55439 0.137134 0.820881 -0.66119 -0.0477186 0.748699 0.312174 0.0166385 0.949879 
0.519539 0.0378934 0.853606 -0.644198 -0.216284 0.733642 -0.651037 -0.3088 0.693393 
0.332544 0.00166502 0.943086 0.506402 -0.235886 0.829406 -0.57326 -0.328515 0.750633 
-0.536319 -0.363568 0.761696 -0.843354 -0.503517 0.187683 0.427944 -0.254116 0.867346 
0.71792 -0.510465 0.473303 0.399467 -0.345564 0.849124 -0.526838 -0.395133 0.752537 
-0.396928 -0.539374 0.742647 -0.57762 -0.421522 0.699052 0.33915 -0.467643 0.816264 
0.52506 -0.806675 0.271269 0.341902 -0.467712 0.815076 0.277994 -0.464254 0.840944 
-0.393668 -0.529951 0.751117 -0.364075 -0.520704 0.772216 -0.491828 -0.655598 0.572971 
0.366999 -0.407829 0.836054 0.475451 -0.800835 0.364156 0.374703 -0.397191 0.837757 
-0.370046 -0.500752 0.782505 -0.373763 -0.491531 0.786574 -0.568875 -0.762894 0.307202 
0.311314 -0.623059 0.717552 0.619615 -0.781569 -0.0722945 0.24488 -0.675224 0.695778 
0.0504743 -0.53504 0.843318 0.032826 -0.622387 0.782021 -0.0672833 -0.682256 0.728011 
-0.091996 -0.643558 0.759848 -0.282029 -0.681501 0.675289 -0.267543 -0.69248 0.669995 
0.467638 0.851222 0.238193 0.238596 0.940682 0.241225 0.0602019 0.967213 0.246729 
-0.103469 0.969224 0.22338 -0.153198 0.957666 0.243734 -0.121248 0.981932 0.145288 
-0.1155 0.990951 0.0683784 -0.143336 0.988961 0.0375747 -0.203214 0.979071 0.0111462 
-0.288828 0.95667 -0.0368998 0.572136 0.769396 0.28406 0.605144 0.731542 0.314082 
-0.128641 0.812758 -0.568222 -0.195419 0.886367 -0.419721 -0.291908 0.955681 -0.0382602 
-0.29034 0.955639 -0.0495611 -0.439397 0.892949 -0.0978379 -0.638206 0.759489 -0.125973 
0.702232 0.604246 0.376507 0.717802 0.569126 0.401069 0.723783 0.689825 0.0166976 
-0.6516 0.747854 -0.127013 -0.642053 0.750161 -0.158198 0.788762 0.482729 0.380562 
0.796845 0.361061 0.484431 -0.813539 0.558232 -0.162887 -0.833082 0.529327 -0.160585 
0.796851 0.354464 0.489268 -0.92701 0.353886 -0.124164 -0.785352 0.403462 -0.469512 
0.814853 0.287434 0.503384 -0.985957 0.15494 -0.0623123 0.86105 0.178766 0.476062 
-0.999528 -0.0278358 -0.0129837 0.887994 0.0545075 0.456613 -0.971691 -0.236222 0.0039784 
0.898723 -0.266915 0.347927 -0.883817 -0.467542 0.016508 -0.847993 -0.529995 0.0036559 
-0.817355 -0.494683 -0.29533 0.744149 -0.552559 0.375393 0.722923 -0.60111 0.34066 
-0.768871 -0.639396 0.00318128 -0.694782 -0.719219 -0.00139676 -0.561414 -0.441663 -0.699819 
0.563262 -0.808841 0.168857 0.534333 -0.826248 0.178334 0.503328 -0.847861 -0.166709 
0.500146 -0.865907 0.00774004 -0.63558 -0.772031 -0.00247092 -0.612904 -0.790133 0.00618833 
-0.505814 -0.645348 -0.572432 0.491058 -0.867791 -0.0761593 0.514036 -0.850816 -0.108994 
0.425051 -0.840765 -0.335329 0.471038 -0.547773 -0.691424 -0.528737 -0.845414 0.0755787 
-0.6171 -0.786086 0.0354364 -0.612747 -0.788862 0.047297 -0.606038 -0.738079 -0.296576 
0.618784 -0.781426 -0.0805004 0.61818 -0.781928 -0.0802645 0.619286 -0.780517 -0.0853106 
0.41068 -0.910334 -0.0513143 0.325702 -0.617013 -0.716389 0.125446 -0.99205 -0.00998208 
-0.0395867 -0.998537 -0.0368475 -0.0692784 -0.997158 -0.0295939 -0.16867 -0.985434 0.0216751 
-0.509792 -0.857303 0.0717255 -0.343753 -0.938321 0.037247 0.377545 0.838224 -0.393498 
0.250026 0.897378 -0.363593 0.010656 0.934268 -0.356412 -0.122023 0.911357 -0.393115 
-0.190949 0.888475 -0.417314 -0.231814 0.810097 -0.538521 -0.177005 0.755429 -0.63087 
0.691731 0.706088 -0.151484 0.48764 0.818255 -0.304411 0.542333 0.796613 -0.266989 
0.313708 0.768624 -0.557499 0.198832 0.592749 -0.780458 0.0371796 0.491065 -0.870329 
-0.0875673 0.502746 -0.859987 -0.200234 0.574792 -0.793423 -0.230189 0.680953 -0.695209 
-0.14625 0.744818 -0.651043 -0.171817 0.717274 -0.675275 -0.122612 0.724677 -0.678093 
-0.184643 0.697416 -0.692472 -0.230785 0.571854 -0.787223 -0.32406 0.479911 -0.815274 
0.704792 0.693959 -0.147274 0.686022 0.695591 -0.213373 0.379021 0.587265 -0.715167 
-0.163126 0.354546 -0.920699 -0.160988 0.402598 -0.901109 -0.161606 0.376045 -0.9124 
-0.178508 0.375142 -0.909617 -0.218219 0.519621 -0.82606 -0.327147 0.478242 -0.815021 
-0.321073 0.473079 -0.820432 -0.467605 0.375328 -0.800297 0.833369 0.534395 -0.141129 
0.871478 0.481732 -0.091985 0.538065 0.449968 -0.712752 -0.161631 0.129069 -0.978374 
-0.14914 0.185817 -0.9712 -0.171046 0.214467 -0.961638 -0.293457 0.339833 -0.893531 
-0.458586 0.351589 -0.81614 -0.440235 0.324801 -0.837076 0.907962 0.413327 -0.0690337 
0.801023 0.333519 -0.497118 -0.15441 0.0314453 -0.987506 -0.0822653 0.0877697 -0.992738 
-0.0238863 0.145458 -0.989076 -0.219044 0.155047 -0.963317 -0.520243 0.234017 -0.821331 
-0.413729 0.175988 -0.893228 -0.569931 0.231553 -0.788392 0.956104 0.276579 -0.0967948 
0.635884 0.13558 -0.759783 -0.0716962 0.151943 -0.985786 -0.0383297 0.15083 -0.987816 
-0.0969884 0.137434 -0.985751 -0.1779 0.0518418 -0.982682 -0.336198 0.213729 -0.917219 
-0.57041 0.206853 -0.794886 -0.548388 0.197077 -0.812669 0.982635 0.165068 -0.0847383 
0.123853 0.057965 -0.990606 -0.115117 0.106706 -0.987604 -0.139986 0.101133 -0.984975 
-0.360161 0.129322 -0.923883 -0.678809 0.0370861 -0.733378 -0.590099 0.0475612 -0.805929 
0.995677 0.0224202 -0.0901399 0.0376611 -0.00270912 -0.999287 -0.132555 -0.0595773 -0.989384 
-0.386257 -0.142533 -0.911312 -0.697435 -0.191536 -0.690579 -0.650933 -0.286634 -0.702942 
-0.635441 -0.18358 -0.750009 0.918528 -0.333029 -0.213068 0.569911 -0.283265 -0.771338 
0.0228392 -0.116285 -0.992953 -0.147603 -0.174319 -0.973564 -0.270091 -0.17463 -0.946866 
-0.580852 -0.366682 -0.726743 -0.560356 -0.440094 -0.701654 -0.495945 -0.319803 -0.807319 
0.696574 -0.667393 -0.263383 0.588885 -0.74948 -0.30248 0.579548 -0.63971 -0.504871 
0.38095 -0.770851 -0.510555 0.165468 -0.685327 -0.709188 -0.000361909 -0.618465 -0.785812 
-0.0993756 -0.517586 -0.849841 -0.108559 -0.470745 -0.875565 0.0833882 -0.195832 -0.977086 
0.271306 -0.0469066 -0.96135 -0.208804 -0.126669 -0.969719 -0.200761 -0.268933 -0.942003 
-0.559828 -0.440864 -0.701593 -0.436459 -0.561341 -0.703136 -0.308006 -0.405055 -0.86085 
0.276693 -0.766254 -0.57991 0.158087 -0.76727 -0.621535 0.134638 -0.715855 -0.685146 
0.168802 -0.587091 -0.791726 0.0993863 -0.563104 -0.820388 0.29361 -0.452146 -0.842234 
0.160321 -0.416723 -0.894784 0.271321 -0.15242 -0.950344 0.210737 -0.108607 -0.971491 
-0.325782 -0.213745 -0.920966 -0.451939 -0.548291 -0.703654 -0.503189 -0.555582 -0.661913 
-0.397353 -0.366067 -0.84149 0.37076 -0.367447 -0.852948 0.323281 -0.585564 -0.743374 
0.355978 -0.260631 -0.897414 0.235005 -0.304543 -0.923052 0.081673 -0.32072 -0.943646 
0.0676669 -0.410864 -0.909182 -0.0131861 -0.408284 -0.91276 -0.22171 -0.371338 -0.901639 
-0.525728 -0.585508 -0.617082 -0.516626 -0.623413 -0.586902 -0.462151 -0.483861 -0.743166 
0.28934 -0.603683 -0.742866 0.103364 -0.621011 -0.776957 0.106145 -0.580371 -0.807405 
0.00530544 -0.698617 -0.715476 0.0113047 -0.641957 -0.766657 -9.89651e-05 -0.713489 -0.700666 
-0.0033946 -0.666563 -0.745441 -0.0345412 -0.75729 -0.652165 0.00181031 -0.702431 -0.711749 
-0.324723 -0.799183 -0.505828 -0.236527 -0.835084 -0.496679 -0.222049 -0.789419 -0.572287 
0.181992 0.51488 -0.837722 0.115553 0.441217 -0.88993 0.0250136 0.396376 -0.917747 
-0.0824529 0.349714 -0.933221 -0.150423 0.30833 -0.939311 0.240763 0.506058 -0.828214 
0.316705 0.488769 -0.812898 0.156225 0.468691 -0.869438 0.0416023 0.338213 -0.94015 
-0.0264079 0.282287 -0.958967 -0.078513 0.195106 -0.977634 -0.150259 0.305075 -0.9404 
-0.130155 0.248623 -0.959816 -0.142812 0.300554 -0.943012 -0.169719 0.192216 -0.966565 
0.460532 0.41799 -0.783068 0.477738 0.390019 -0.78718 0.279475 0.361668 -0.889433 
0.0904308 0.29947 -0.949811 -0.0892823 0.244154 -0.965618 -0.138842 0.154129 -0.978247 
-0.104806 0.0506268 -0.993203 -0.0409377 0.0638155 -0.997122 -0.0900527 0.175898 -0.980281 
-0.169426 0.15227 -0.973709 -0.172331 0.16169 -0.971678 0.614918 0.266976 -0.742024 
0.379805 0.215456 -0.899626 0.239579 0.169391 -0.955986 0.00205347 0.0864594 -0.996253 
-0.0982958 0.0753414 -0.992301 -0.219814 0.0710466 -0.972951 -0.179066 0.0353453 -0.983202 
0.00273366 -0.0529327 -0.998594 -0.0530627 -0.0625459 -0.99663 -0.193943 0.00978147 -0.980964 
-0.219716 -0.00447057 -0.975554 0.597978 0.122118 -0.792155 0.601521 0.114647 -0.790587 
0.321087 0.111341 -0.940482 0.145924 0.0042893 -0.989286 0.0012592 -0.00258196 -0.999996 
-0.109081 -0.027836 -0.993643 -0.185519 -0.0542839 -0.98114 -0.229042 -0.0660637 -0.971172 
-0.152539 -0.00265616 -0.988294 -0.0318503 -0.234831 -0.971514 -0.0387517 -0.283945 -0.958057 
-0.0752061 0.0767989 -0.994206 -0.0773461 0.050429 -0.995728 -0.0662099 0.155315 -0.985644 
-0.0697576 0.129815 -0.989081 0.603912 0.0896298 -0.791996 0.559285 0.0799565 -0.825111 
0.251439 0.0241373 -0.967572 0.101908 -0.00680407 -0.994771 -0.0275929 -0.0316152 -0.999119 
-0.14932 -0.0115931 -0.988721 -0.254713 -0.045621 -0.96594 -0.130233 -0.121841 -0.983969 
-0.155311 -0.0661931 -0.985645 -0.0848922 -0.114671 -0.98977 -0.266859 -0.15499 -0.951191 
0.131114 0.0687805 -0.988978 0.108269 0.199301 -0.973939 0.20748 0.0698899 -0.975739 
-0.063324 0.153534 -0.986112 -0.112467 0.107732 -0.987798 -0.0918887 0.114277 -0.98919 
-0.114988 0.0850085 -0.989723 0.569779 -0.123972 -0.812393 0.517488 -0.186852 -0.83504 
0.512749 -0.145234 -0.846165 0.235309 -0.0943976 -0.967326 0.0942779 -0.0991194 -0.990599 
-0.00269461 -0.128552 -0.991699 -0.123225 -0.153478 -0.980439 -0.273065 -0.151951 -0.949919 
-0.208216 -0.083503 -0.974512 -0.074728 -0.112461 -0.990842 -0.328072 -0.0913253 -0.940228 
0.108732 0.109623 -0.988008 0.112419 0.0802356 -0.990416 0.146788 0.255771 -0.955528 
0.0166134 -0.0217706 -0.999625 -0.0219155 -0.0636861 -0.997729 -0.0797212 -0.0248247 -0.996508 
-0.116041 -0.0163333 -0.99311 -0.140473 -0.13344 -0.981051 -0.114176 -0.00269622 -0.993457 
0.462366 -0.259292 -0.84793 0.177383 -0.635414 -0.751521 0.287638 -0.237534 -0.927816 
-0.005721 -0.582113 -0.813088 0.0619905 -0.350233 -0.934609 -0.107401 -0.494075 -0.86276 
-0.0847413 -0.395903 -0.914374 -0.164074 -0.506539 -0.846462 -0.168322 -0.457316 -0.873229 
-0.0566896 -0.244842 -0.967904 -0.154681 -0.43218 -0.888422 -0.193604 -0.462601 -0.865169 
0.0546676 -0.0447914 -0.997499 0.144581 0.144042 -0.978953 0.0307682 0.0794859 -0.996361 
-0.102755 0.0558966 -0.993135 -0.063615 -0.0537888 -0.996524 -0.118387 -0.162226 -0.979626 
-0.0651852 -0.127117 -0.989743 -0.0351355 -0.128817 -0.991046 0.244906 -0.0393133 -0.968749 
0.214924 -0.0288014 -0.976206 0.0606087 -0.0614982 -0.996265 -0.115134 0.0171271 -0.993202 
-0.199629 -0.0378667 -0.97914 -0.1993 0.0168347 -0.979794 0.144456 -0.157678 -0.976868 
0.121696 -0.188755 -0.974455 0.128502 -0.172592 -0.976575 0.0747328 -0.307201 -0.948706 
0.0757982 -0.238822 -0.9681 -0.0160316 -0.355258 -0.934631 -0.0203312 -0.163107 -0.986399 
-0.229955 -0.151232 -0.961379 -0.204506 -0.203953 -0.957382 -0.200196 -0.139499 -0.969774 

