# vtk DataFile Version 4.2
vtk output
ASCII
DATASET POLYDATA
POINTS 579 float
-19.365 -36.2372 -14.5117 -11.0082 -36.2372 -15.6819 -2.65132 -36.2372 -14.8803 
14.0624 -36.2372 -14.124 22.4192 -36.2372 -14.7431 30.776 -36.2372 -14.5906 
-44.4355 -27.8804 -16.9611 -36.0787 -27.8804 -18.3179 -27.7218 -27.8804 -18.5559 
-19.365 -27.8804 -18.3691 -11.0082 -27.8804 -19.141 -2.65132 -27.8804 -18.8535 
5.70552 -27.8804 -16.8842 14.0624 -27.8804 -17.0163 22.4192 -27.8804 -17.4004 
30.776 -27.8804 -18.0214 39.1329 -27.8804 -15.6351 -52.7924 -19.5235 -18.2063 
-44.4355 -19.5235 -20.9812 -36.0787 -19.5235 -21.0001 -27.7218 -19.5235 -20.5161 
-19.365 -19.5235 -19.6958 -11.0082 -19.5235 -19.9933 -2.65132 -19.5235 -19.9131 
5.70552 -19.5235 -17.5769 14.0624 -19.5235 -16.9798 22.4192 -19.5235 -17.9282 
30.776 -19.5235 -18.2379 39.1329 -19.5235 -18.1487 47.4897 -19.5235 -16.8849 
-61.1492 -11.1667 -16.0277 -52.7924 -11.1667 -20.2043 -44.4355 -11.1667 -21.6274 
-36.0787 -11.1667 -21.8745 -27.7218 -11.1667 -21.0891 -19.365 -11.1667 -20.0048 
-11.0082 -11.1667 -19.7868 -2.65132 -11.1667 -19.8501 5.70552 -11.1667 -18.2614 
14.0624 -11.1667 -16.9004 22.4192 -11.1667 -17.6087 30.776 -11.1667 -18.3965 
39.1329 -11.1667 -18.4725 47.4897 -11.1667 -17.4961 55.8466 -11.1667 -15.2884 
-61.1492 -2.80986 -16.8253 -52.7924 -2.80986 -20.8537 -44.4355 -2.80986 -22.1673 
-36.0787 -2.80986 -22.1705 -27.7218 -2.80986 -21.2378 -19.365 -2.80986 -20.1963 
-11.0082 -2.80986 -21.7907 -2.65132 -2.80986 -18.5144 5.70552 -2.80986 -19.2633 
14.0624 -2.80986 -19.3903 22.4192 -2.80986 -18.4245 30.776 -2.80986 -19.0112 
39.1329 -2.80986 -18.9061 47.4897 -2.80986 -17.8118 55.8466 -2.80986 -15.4407 
-61.1492 5.54698 -15.9086 -52.7924 5.54698 -20.5354 -44.4355 5.54698 -22.0601 
-36.0787 5.54698 -22.1709 -27.7218 5.54698 -21.2075 -19.365 5.54698 -19.9869 
-11.0082 5.54698 -20.6731 -2.65132 5.54698 -19.5097 5.70552 5.54698 -19.9212 
14.0624 5.54698 -19.9682 22.4192 5.54698 -19.4155 30.776 5.54698 -19.4952 
39.1329 5.54698 -19.0038 47.4897 5.54698 -17.6807 55.8466 5.54698 -14.8672 
-52.7924 13.9038 -19.3329 -44.4355 13.9038 -21.3319 -36.0787 13.9038 -22.0527 
-27.7218 13.9038 -21.6171 -19.365 13.9038 -20.4527 -11.0082 13.9038 -19.1875 
-2.65132 13.9038 -18.9951 5.70552 13.9038 -19.247 14.0624 13.9038 -18.5495 
22.4192 13.9038 -19.1875 30.776 13.9038 -19.4951 39.1329 13.9038 -18.7121 
47.4897 13.9038 -16.4519 -52.7924 22.2607 -15.9458 -44.4355 22.2607 -20.5207 
-36.0787 22.2607 -21.7949 -27.7218 22.2607 -21.94 -19.365 22.2607 -21.2344 
-11.0082 22.2607 -20.2914 -2.65132 22.2607 -19.2869 5.70552 22.2607 -19.1006 
14.0624 22.2607 -18.3897 22.4192 22.2607 -18.6797 30.776 22.2607 -18.8937 
39.1329 22.2607 -18.3319 47.4897 22.2607 -15.2944 -44.4355 30.6175 -16.0004 
-36.0787 30.6175 -20.266 -27.7218 30.6175 -21.1886 -19.365 30.6175 -20.9021 
-11.0082 30.6175 -20.155 -2.65132 30.6175 -19.6883 5.70552 30.6175 -19.0836 
14.0624 30.6175 -18.3616 22.4192 30.6175 -17.364 30.776 30.6175 -17.0598 
39.1329 30.6175 -15.599 -36.0787 38.9743 -13.9129 -27.7218 38.9743 -17.3128 
-19.365 38.9743 -18.0077 -11.0082 38.9743 -18.2252 -2.65132 38.9743 -18.2485 
5.70552 38.9743 -17.6754 14.0624 38.9743 -16.4237 22.4192 38.9743 -14.6676 
-19.365 -36.9483 -13.8666 -11.0082 -38.193 -13.8666 -2.65132 -37.358 -13.8666 
14.0624 -36.5633 -13.8666 22.4192 -37.4778 -13.8666 22.4192 -44.5941 -6.21984 
30.776 -37.4292 -13.8666 -44.4355 -31.9102 -13.8666 -44.4355 -36.2372 -8.61 
-36.0787 -34.5973 -13.8666 -36.0787 -36.2372 -12.1416 -25.5899 -36.2372 -13.8666 
-27.7218 -35.9162 -13.8666 -27.7218 -36.2372 -13.558 4.18928 -36.2372 -13.8666 
9.68894 -36.2372 -13.8666 5.70552 -35.7245 -13.8666 5.70552 -36.2372 -13.584 
33.6655 -36.2372 -13.8666 39.1329 -32.4939 -13.8666 39.1329 -36.2372 -11.8628 
47.4897 -36.2372 -6.54289 -61.1492 -27.8804 -6.91693 -52.3382 -27.8804 -13.8666 
-52.7924 -27.5852 -13.8666 -52.7924 -27.8804 -13.6243 47.2036 -27.8804 -13.8666 
47.4897 -27.7382 -13.8666 47.4897 -27.8804 -13.7964 55.8466 -27.8804 -9.62862 
-59.7965 -19.5235 -13.8666 -61.1492 -16.6022 -13.8666 -61.1492 -19.5235 -12.5039 
54.6266 -19.5235 -13.8666 55.8466 -16.9172 -13.8666 55.8466 -19.5235 -13.2461 
64.2034 -19.5235 -8.42414 -63.4304 -11.1667 -13.8666 59.3657 -11.1667 -13.8666 
64.2034 -11.1667 -11.2529 -64.1374 -2.80986 -13.8666 59.7115 -2.80986 -13.8666 
64.2034 -2.80986 -11.289 -63.1372 5.54698 -13.8666 -61.1492 11.4128 -13.8666 
57.9017 5.54698 -13.8666 55.8466 9.42909 -13.8666 64.2034 5.54698 -9.55369 
-60.2612 13.9038 -13.8666 -61.1492 13.9038 -12.3564 53.3878 13.9038 -13.8666 
55.8466 13.9038 -12.6173 64.2034 13.9038 -6.25877 -55.2904 22.2607 -13.8666 
-52.7924 25.0747 -13.8666 51.139 22.2607 -13.8666 47.4897 25.7922 -13.8666 
55.8466 22.2607 -10.7752 -47.1758 30.6175 -13.8666 -44.4355 32.9602 -13.8666 
30.776 36.4589 -13.8666 43.0884 30.6175 -13.8666 39.1329 33.19 -13.8666 
47.4897 30.6175 -11.115 -36.1436 38.9743 -13.8666 -36.0787 39.0158 -13.8666 
-27.7218 42.2614 -13.8666 -19.365 44.0219 -13.8666 -11.0082 44.7712 -13.8666 
-2.65132 45.4516 -13.8666 5.70552 45.0786 -13.8666 14.0624 42.1708 -13.8666 
25.6006 38.9743 -13.8666 22.4192 40.0034 -13.8666 30.776 38.9743 -11.5373 
39.1329 38.9743 -7.13741 -19.365 47.3312 -5.97266 -11.0082 47.3312 -7.97768 
-2.65132 47.3312 -9.9663 5.70552 47.3312 -9.91557 22.4192 -44.9862 -5.50978 
-44.4355 -38.2323 -5.50978 -36.0787 -40.0509 -5.50978 -27.7218 -41.6025 -5.50978 
-19.365 -42.3768 -5.50978 -11.0082 -42.8545 -5.50978 -2.65132 -42.228 -5.50978 
5.70552 -41.9532 -5.50978 20.1842 -44.5941 -5.50978 14.0624 -43.4214 -5.50978 
25.6898 -44.5941 -5.50978 22.4192 -44.5941 1.53771 30.776 -43.9061 -5.50978 
39.1329 -41.1737 -5.50978 47.4897 -36.9144 -5.50978 -61.1492 -28.8125 -5.50978 
-52.0792 -36.2372 -5.50978 -52.7924 -35.9883 -5.50978 -52.7924 -36.2372 -3.85597 
48.6996 -36.2372 -5.50978 55.8466 -31.3128 -5.50978 -62.0251 -27.8804 -5.50978 
60.0884 -27.8804 -5.50978 64.2034 -23.5595 -5.50978 -66.2531 -19.5235 -5.50978 
66.8839 -19.5235 -5.50978 -69.0387 -11.1667 -5.50978 69.4732 -11.1667 -5.50978 
72.5602 -11.1667 2.56773 -69.3315 -2.80986 -5.50978 -69.506 -2.80986 -2.60572 
69.3129 -2.80986 -5.50978 -67.6671 5.54698 -5.50978 67.7114 5.54698 -5.50978 
-64.4895 13.9038 -5.50978 -61.1492 18.899 -5.50978 64.8049 13.9038 -5.50978 
64.2034 15.3545 -5.50978 -58.5897 22.2607 -5.50978 -52.7924 28.3855 -5.50978 
60.4271 22.2607 -5.50978 55.8466 28.9025 -5.50978 -50.74 30.6175 -5.50978 
-44.4355 36.1521 -5.50978 54.4316 30.6175 -5.50978 47.4897 36.0722 -5.50978 
55.8466 30.6175 -1.03328 -40.6893 38.9743 -5.50978 -36.0787 42.0633 -5.50978 
-27.7218 45.6957 -5.50978 14.0624 47.3028 -5.50978 22.4192 44.931 -5.50978 
30.776 42.1157 -5.50978 41.7303 38.9743 -5.50978 39.1329 39.9445 -5.50978 
-20.0694 47.3312 -5.50978 -19.365 47.4719 -5.50978 -19.365 47.3312 -4.72529 
-11.0082 48.1168 -5.50978 -11.0082 47.3312 -2.41364 -2.65132 48.7922 -5.50978 
-2.65132 47.3312 -0.473458 13.9227 47.3312 -5.50978 5.70552 48.9412 -5.50978 
5.70552 47.3312 -0.395058 -52.7924 -36.8975 2.84706 -44.4355 -39.6587 2.84706 
-36.0787 -41.2223 2.84706 -27.7218 -42.7342 2.84706 -19.365 -43.0395 2.84706 
-11.0082 -42.8776 2.84706 -2.65132 -41.7881 2.84706 5.70552 -41.3984 2.84706 
14.0624 -42.944 2.84706 22.4192 -44.511 2.84706 30.776 -43.653 2.84706 
39.1329 -41.6805 2.84706 47.4897 -38.6494 2.84706 -53.7935 -36.2372 2.84706 
-61.1492 -29.9636 2.84706 -52.7924 -36.2372 4.98441 5.70552 -36.2372 10.7771 
51.7703 -36.2372 2.84706 47.4897 -36.2372 8.52735 55.8466 -33.9719 2.84706 
-63.0954 -27.8804 2.84706 -61.1492 -27.8804 7.81274 63.6108 -27.8804 2.84706 
64.2034 -27.2466 2.84706 -67.388 -19.5235 2.84706 70.1789 -19.5235 2.84706 
72.5602 -11.4614 2.84706 -69.4254 -11.1667 2.84706 -69.506 -9.40353 2.84706 
72.5602 -9.10704 2.84706 72.5602 -11.1667 3.07283 -69.8075 -2.80986 2.84706 
-69.506 -1.67305 2.84706 -69.506 -2.80986 3.69073 72.3218 -2.80986 2.84706 
-67.5001 5.54698 2.84706 70.9266 5.54698 2.84706 -63.8464 13.9038 2.84706 
-61.1492 17.6447 2.84706 -61.1492 13.9038 7.92641 67.1726 13.9038 2.84706 
64.2034 20.254 2.84706 64.2034 13.9038 10.502 -57.6026 22.2607 2.84706 
-52.7924 27.3067 2.84706 63.1221 22.2607 2.84706 -49.5477 30.6175 2.84706 
-44.4355 35.2174 2.84706 -44.4355 30.6175 10.7331 47.4897 36.9844 2.84706 
56.6984 30.6175 2.84706 55.8466 31.4337 2.84706 55.8466 30.6175 4.63487 
-39.482 38.9743 2.84706 -36.0787 41.2339 2.84706 -36.0787 38.9743 8.54187 
-27.7218 44.6632 2.84706 -19.365 45.8755 2.84706 -11.0082 45.8887 2.84706 
-2.65132 46.227 2.84706 5.70552 46.1321 2.84706 14.0624 44.2511 2.84706 
14.0624 38.9743 9.20489 22.4192 42.5785 2.84706 22.4192 38.9743 7.57566 
30.776 40.5845 2.84706 30.776 38.9743 6.00993 40.4622 38.9743 2.84706 
39.1329 39.3104 2.84706 39.1329 38.9743 3.52543 -44.4355 -36.8773 11.2039 
-36.0787 -38.6285 11.2039 -27.7218 -39.2646 11.2039 -19.365 -39.5221 11.2039 
-11.0082 -38.7607 11.2039 -2.65132 -37.0734 11.2039 14.0624 -37.4377 11.2039 
22.4192 -39.1282 11.2039 30.776 -38.8721 11.2039 39.1329 -37.7673 11.2039 
-46.3442 -36.2372 11.2039 -52.7924 -33.0464 11.2039 -44.4355 -36.2372 12.0239 
-36.0787 -36.2372 13.863 -27.7218 -36.2372 14.267 -19.365 -36.2372 14.6686 
-11.0082 -36.2372 13.7147 3.3138 -36.2372 11.2039 -2.65132 -36.2372 11.9871 
7.63604 -36.2372 11.2039 5.70552 -35.7241 11.2039 14.0624 -36.2372 12.2402 
22.4192 -36.2372 13.6082 30.776 -36.2372 13.5475 43.7844 -36.2372 11.2039 
39.1329 -36.2372 12.9341 47.4897 -34.4371 11.2039 55.8466 -30.6942 11.2039 
-58.9659 -27.8804 11.2039 -61.1492 -25.4929 11.2039 -52.7924 -27.8804 15.7507 
-44.4355 -27.8804 18.4144 -27.7218 -27.8804 19.049 -19.365 -27.8804 18.3801 
-11.0082 -27.8804 18.5158 -2.65132 -27.8804 16.9884 5.70552 -27.8804 15.392 
14.0624 -27.8804 16.4999 22.4192 -27.8804 17.9007 30.776 -27.8804 18.8228 
39.1329 -27.8804 17.4385 47.4897 -27.8804 16.7794 59.3194 -27.8804 11.2039 
55.8466 -27.8804 13.8019 64.2034 -22.6095 11.2039 -64.3809 -19.5235 11.2039 
[...]
POINT_DATA 579
SCALARS ImageScalars float
LOOKUP_TABLE default
0 0 0 0 0 0 0 0 0 
0 0 0 0 0 0 0 0 0 
0 0 0 0 0 0 0 0 0 
0 0 0 0 0 0 0 0 0 
0 0 0 0 0 0 0 0 0 
0 0 0 0 0 0 0 0 0 
0 0 0 0 0 0 0 0 0 
0 0 0 0 0 0 0 0 0 
0 0 0 0 0 0 0 0 0 
0 0 0 0 0 0 0 0 0 
0 0 0 0 0 0 0 0 0 
0 0 0 0 0 0 0 0 0 
0 0 0 0 0 0 0 0 0 
0 0 0 0 0 0 0 0 0 
0 0 0 0 0 0 0 0 0 
0 0 0 0 0 0 0 0 0 
0 0 0 0 0 0 0 0 0 
0 0 0 0 0 0 0 0 0 
0 0 0 0 0 0 0 0 0 
0 0 0 0 0 0 0 0 0 
0 0 0 0 0 0 0 0 0 
0 0 0 0 0 0 0 0 0 
0 0 0 0 0 0 0 0 0 
0 0 0 0 0 0 0 0 0 
0 0 0 0 0 0 0 0 0 
0 0 0 0 0 0 0 0 0 
0 0 0 0 0 0 0 0 0 
0 0 0 0 0 0 0 0 0 
0 0 0 0 0 0 0 0 0 
0 0 0 0 0 0 0 0 0 
0 0 0 0 0 0 0 0 0 
0 0 0 0 0 0 0 0 0 
0 0 0 0 0 0 0 0 0 
0 0 0 0 0 0 0 0 0 
0 0 0 0 0 0 0 0 0 
0 0 0 0 0 0 0 0 0 
0 0 0 0 0 0 0 0 0 
0 0 0 0 0 0 0 0 0 
0 0 0 0 0 0 0 0 0 
0 0 0 0 0 0 0 0 0 
0 0 0 0 0 0 0 0 0 
0 0 0 0 0 0 0 0 0 
0 0 0 0 0 0 0 0 0 
0 0 0 0 0 0 0 0 0 
0 0 0 0 0 0 0 0 0 
0 0 0 0 0 0 0 0 0 
0 0 0 0 0 0 0 0 0 
0 0 0 0 0 0 0 0 0 
0 0 0 0 0 0 0 0 0 
0 0 0 0 0 0 0 0 0 
0 0 0 0 0 0 0 0 0 
0 0 0 0 0 0 0 0 0 
0 0 0 0 0 0 0 0 0 
0 0 0 0 0 0 0 0 0 
0 0 0 0 0 0 0 0 0 
0 0 0 0 0 0 0 0 0 
0 0 0 0 0 0 0 0 0 
0 0 0 0 0 0 0 0 0 
0 0 0 0 0 0 0 0 0 
0 0 0 0 0 0 0 0 0 
0 0 0 0 0 0 0 0 0 
0 0 0 0 0 0 0 0 0 
0 0 0 0 0 0 0 0 0 
0 0 0 0 0 0 0 0 0 
0 0 0 
NORMALS Normals float
0.106892 0.629422 0.769677 0.0189882 0.610033 0.792149 -0.111453 0.625834 0.771952 
0.0603126 0.527016 0.847713 0.022452 0.471444 0.88161 -0.120016 0.474825 0.871859 
0.207348 0.511102 0.834135 0.0874135 0.439876 0.893794 0.000732785 0.354949 0.934886 
0.0329164 0.267538 0.962985 0.0300067 0.226938 0.973447 -0.130916 0.26536 0.95522 
-0.102608 0.212882 0.971675 0.030149 0.138083 0.989962 0.0574089 0.168635 0.984005 
-0.0966655 0.21411 0.972015 -0.213057 0.302267 0.929108 0.376156 0.292163 0.879288 
0.161283 0.244397 0.956168 -0.0266981 0.189112 0.981593 -0.0785785 0.152052 0.985244 
-0.0278323 0.0959189 0.995 0.0131357 0.0368793 0.999233 -0.140863 0.0563512 0.988424 
-0.174679 0.0763616 0.98166 0.0225424 -0.00691212 0.999722 0.0745889 0.0116189 0.997147 
0.0136372 0.0213745 0.999679 -0.0890621 0.158189 0.983384 -0.244586 0.16859 0.954859 
0.596265 0.187599 0.78056 0.27579 0.161215 0.947602 0.092547 0.0668485 0.993462 
-0.032471 0.0678183 0.997169 -0.111205 0.0407744 0.992961 -0.077317 0.0298712 0.996559 
-0.00933414 0.0985385 0.995089 -0.0797684 -0.0679122 0.994497 -0.184588 0.0965051 0.978067 
-0.0293876 0.131705 0.990853 0.0903139 0.0299819 0.995462 0.0514763 0.0455649 0.997634 
-0.052531 0.0442565 0.997638 -0.176135 0.0589964 0.982596 -0.329657 0.115897 0.93696 
0.605245 -0.0040994 0.796029 0.267664 0.0195636 0.963314 0.0710844 0.0255319 0.997144 
-0.0553909 0.0176544 0.998309 -0.117509 0.0070239 0.993047 0.0252481 -0.00106987 0.999681 
-0.0652134 0.060073 0.996061 -0.164518 -0.0294495 0.985934 0.0476453 0.0997003 0.993876 
-0.0544348 0.193175 0.979653 -0.0178004 0.108699 0.993915 0.0288966 0.066009 0.997401 
-0.0695045 0.0316994 0.997078 -0.194199 0.0111775 0.980898 -0.34149 -0.0233033 0.939597 
0.651004 -0.166463 0.740597 0.303406 -0.0900758 0.948594 0.0879529 -0.0493786 0.9949 
-0.0509211 -0.00703426 0.998678 -0.129764 0.0224792 0.99129 -0.0361549 0.0152755 0.999229 
-0.0243006 -0.161425 0.986586 -0.0431428 0.0184902 0.998898 0.0265239 -0.00448939 0.999638 
-0.0311692 -0.0547372 0.998014 -0.026743 0.0454173 0.99861 -0.0243557 0.0285156 0.999297 
-0.104618 -0.0113275 0.994448 -0.228625 -0.0775554 0.97042 -0.378311 -0.142492 0.914646 
0.383971 -0.245336 0.890155 0.155612 -0.083257 0.984303 0.0155776 -0.0217466 0.999642 
-0.0994752 0.0455638 0.993996 -0.147486 0.0756944 0.986163 -0.0880144 -0.0142606 0.996017 
0.00304092 -0.0107681 0.999937 -0.027119 -0.0473909 0.998508 -0.00198433 -0.0903554 0.995908 
0.0564333 -0.0438625 0.997442 -0.0275127 -0.0348469 0.999014 -0.173885 -0.0375529 0.98405 
-0.324506 -0.136371 0.936001 0.57079 -0.486248 0.661636 0.307502 -0.263367 0.914374 
0.0730716 -0.0894496 0.993307 -0.0338989 -0.0219362 0.999184 -0.0981541 0.0255967 0.994842 
-0.116377 0.0579089 0.991515 -0.0714912 0.0415588 0.996575 -0.0542867 -0.00952751 0.99848 
-0.0242112 -0.0113029 0.999643 0.0296876 -0.105622 0.993963 -0.0178438 -0.132578 0.991012 
-0.209796 -0.18358 0.960356 -0.359119 -0.246575 0.90013 0.498851 -0.567087 0.655408 
0.257362 -0.373051 0.891402 0.026158 -0.231577 0.972465 -0.057877 -0.169988 0.983745 
-0.0756912 -0.120095 0.989873 -0.0637465 -0.0623345 0.996017 -0.0814783 -0.0858556 0.99297 
-0.098352 -0.0908591 0.990995 -0.0793355 -0.227142 0.970625 -0.105247 -0.351543 0.930237 
-0.257579 -0.435103 0.862751 0.422297 -0.719842 0.550902 0.196298 -0.614644 0.76399 
0.0457456 -0.522577 0.851364 0.0138789 -0.43124 0.902131 -0.0345075 -0.371299 0.927872 
-0.095535 -0.355975 0.929599 -0.183465 -0.465074 0.866053 -0.21386 -0.537831 0.815476 
0.10747 0.66004 0.743503 0.0193328 0.700303 0.713584 -0.103604 0.675193 0.730329 
0.0620469 0.541829 0.838195 0.0354935 0.529131 0.847798 0.0319517 0.955112 0.294518 
-0.128216 0.529349 0.83866 0.229602 0.640541 0.732796 0.228748 0.844884 0.483575 
0.159507 0.661173 0.733081 0.17517 0.752636 0.634708 0.0919376 0.676172 0.730985 
0.0856004 0.677273 0.730735 0.0890018 0.696068 0.712438 -0.0529862 0.582331 0.811223 
0.00677667 0.551682 0.834027 -0.0439749 0.547831 0.835432 -0.037737 0.582366 0.812051 
-0.181272 0.505374 0.843646 -0.265537 0.443108 0.856239 -0.332749 0.620925 0.709739 
-0.454692 0.784348 0.421963 0.697068 0.609042 0.37837 0.387692 0.563435 0.729545 
0.398242 0.55596 0.729597 0.401566 0.568344 0.718144 -0.248592 0.452254 0.856545 
-0.249898 0.452711 0.855923 -0.251269 0.458728 0.85231 -0.522144 0.545455 0.655625 
0.615572 0.316866 0.721572 0.647148 0.269375 0.713188 0.684271 0.327276 0.651663 
-0.401848 0.211275 0.891 -0.397189 0.184803 0.898938 -0.431353 0.225693 0.873497 
-0.659808 0.365701 0.656442 0.682365 0.178881 0.708788 -0.428786 0.123408 0.894938 
-0.606387 0.119688 0.78611 0.723854 -0.0149052 0.689792 -0.455432 -0.0410372 0.889324 
-0.627204 -0.0672932 0.775942 0.729961 -0.184888 0.658007 0.745058 -0.300171 0.595639 
-0.437233 -0.164845 0.884112 -0.427271 -0.154537 0.890819 -0.700602 -0.213173 0.680966 
0.739225 -0.340252 0.581184 0.788729 -0.377198 0.485415 -0.441306 -0.155912 0.883708 
-0.501217 -0.19399 0.843297 -0.782943 -0.316534 0.535543 0.647393 -0.530309 0.547407 
0.624331 -0.572665 0.531287 -0.439442 -0.288872 0.850555 -0.415897 -0.357162 0.83634 
-0.605936 -0.367722 0.705423 0.57411 -0.62001 0.534776 0.533691 -0.65268 0.537757 
-0.234945 -0.559678 0.794708 -0.370598 -0.468028 0.802251 -0.284842 -0.53976 0.792164 
-0.521631 -0.534925 0.664648 0.423882 -0.720862 0.548345 0.422813 -0.721254 0.548655 
0.250946 -0.774749 0.580336 0.123689 -0.769175 0.626954 0.0662928 -0.763988 0.641815 
0.0166327 -0.757923 0.652132 -0.133884 -0.703643 0.697826 -0.221553 -0.624808 0.748685 
-0.239599 -0.586531 0.773676 -0.217211 -0.59956 0.77029 -0.296261 -0.747267 0.594828 
-0.315499 -0.889503 0.330522 0.139808 -0.986268 0.0879155 0.0801985 -0.980024 0.181993 
0.038981 -0.947484 0.317417 -0.113138 -0.93349 0.340287 0.0290916 0.966518 0.254943 
0.236839 0.903712 0.356668 0.181063 0.931748 0.314742 0.12977 0.932403 0.337319 
0.0700972 0.954343 0.29037 -0.00967774 0.975143 0.221366 -0.0528686 0.977704 0.203225 
0.0689842 0.96979 0.233986 0.0689632 0.966055 0.248963 0.171471 0.954828 0.242696 
-0.0623626 0.969295 0.237863 0.0363161 0.982337 -0.183562 -0.203558 0.954276 0.218909 
-0.364817 0.878838 0.307493 -0.458819 0.811602 0.361644 0.703935 0.637367 0.313432 
0.429357 0.843825 0.321888 0.449681 0.83382 0.320206 0.459539 0.856682 0.234348 
-0.46959 0.802371 0.368356 -0.553823 0.708556 0.437297 0.727825 0.60903 0.315203 
-0.609966 0.633571 0.47595 -0.694707 0.498669 0.518374 0.871204 0.369006 0.323787 
-0.74504 0.378396 0.549302 0.955111 0.15613 0.251768 -0.798666 0.120181 0.589652 
-0.993081 0.116256 -0.0165792 0.965091 -0.0775136 0.250182 0.989926 -0.0899061 0.109378 
-0.802967 -0.088457 0.589423 0.950322 -0.249812 0.185693 -0.800347 -0.241072 0.548934 
0.870759 -0.464783 0.160486 0.811513 -0.572211 0.118413 -0.80309 -0.324773 0.499569 
-0.798922 -0.349146 0.489715 0.764183 -0.63833 0.0925194 0.724812 -0.684883 0.0747229 
-0.759991 -0.471021 0.44783 -0.691512 -0.577271 0.434246 0.703591 -0.706498 0.0762871 
0.627095 -0.773915 0.0883592 -0.669384 -0.610777 0.422937 -0.515336 -0.78376 0.346624 
-0.706739 -0.693854 0.138155 0.571948 -0.814901 0.0938728 0.482274 -0.870377 0.0992802 
0.297911 -0.949521 0.0982756 -0.235699 -0.970763 0.0454399 -0.316238 -0.945263 0.0804428 
-0.281316 -0.951841 0.121904 -0.363151 -0.894606 0.260387 -0.308055 -0.920962 0.238602 
0.152767 -0.986128 0.0649127 0.139574 -0.988242 0.0624231 0.133975 -0.990523 0.0302433 
0.0805125 -0.996353 0.0282537 0.0604257 -0.991542 -0.114865 0.0486587 -0.998532 0.0238155 
0.032517 -0.966963 -0.252836 -0.232964 -0.971456 0.0447387 -0.0808029 -0.996209 0.0322402 
-0.099705 -0.955928 -0.276155 0.468936 0.877573 -0.0998237 0.262402 0.9621 -0.0742225 
0.1742 0.982039 -0.0724859 0.108295 0.988436 -0.106141 0.00848063 0.99089 -0.134406 
-0.0720252 0.978347 -0.194034 -0.0882275 0.964098 -0.250462 0.0654272 0.955162 -0.288765 
0.174197 0.946673 -0.271046 0.0372012 0.964129 -0.262815 -0.154901 0.962229 -0.223875 
-0.288826 0.940461 -0.179197 -0.42018 0.901594 -0.102846 0.498431 0.861076 -0.100574 
0.72849 0.67748 -0.101606 0.476532 0.855231 -0.203708 0.0158632 0.675182 -0.737481 
-0.46112 0.882296 -0.0944586 -0.401085 0.8022 -0.442273 -0.514328 0.855072 -0.0657146 
0.7833 0.612774 -0.104638 0.704294 0.625751 -0.33527 -0.719458 0.691024 -0.0697614 
-0.737786 0.67134 -0.0705343 0.936132 0.33804 -0.0968801 -0.894443 0.445133 -0.0427534 
-0.991422 0.126002 -0.0347137 0.982854 0.133545 -0.127141 0.987807 0.0827418 -0.131878 
-0.997387 0.0630141 -0.0353261 -0.992239 0.116159 -0.0443657 0.983309 -0.107089 -0.147091 
0.97953 -0.131016 -0.152824 0.977046 -0.110485 -0.182137 -0.994724 -0.0956804 -0.0370082 
0.934078 -0.303648 -0.187874 -0.953037 -0.300859 -0.0347127 0.833308 -0.503743 -0.227686 
0.792841 -0.561074 -0.237904 0.752231 -0.518331 -0.406794 -0.909909 -0.413607 -0.0315382 
-0.866577 -0.497511 -0.0390683 -0.737028 -0.397375 -0.546702 0.740442 -0.631494 -0.230134 
0.700148 -0.675507 -0.231263 -0.844954 -0.533687 -0.0350759 0.676507 -0.692555 -0.25041 
0.614507 -0.75203 -0.238393 0.566493 -0.614204 -0.5494 -0.407846 -0.8977 -0.166725 
-0.6919 -0.715238 -0.0985346 -0.668058 -0.736762 -0.104307 -0.663519 -0.721162 -0.199171 
0.537115 -0.81517 -0.216807 0.47701 -0.852002 -0.215765 0.457576 -0.77152 -0.44202 
0.250745 -0.93991 -0.231723 0.070765 -0.949181 -0.306673 0.0184497 -0.926344 -0.376227 
0.0145351 -0.894276 -0.44728 -0.104139 -0.869825 -0.482245 -0.201616 -0.834853 -0.512222 
-0.17283 -0.688046 -0.704785 -0.199385 -0.867013 -0.456654 -0.114177 -0.764352 -0.63461 
-0.182795 -0.928504 -0.323211 -0.136189 -0.89189 -0.431259 -0.224325 -0.94049 -0.255258 
-0.193142 -0.943705 -0.268544 -0.188404 -0.936105 -0.297005 0.250247 0.821216 -0.512817 
0.128175 0.827585 -0.546512 0.0482577 0.804039 -0.592615 -0.025501 0.800057 -0.599381 
-0.119304 0.763112 -0.635159 -0.137247 0.704293 -0.696516 0.146634 0.65186 -0.744028 
0.0644363 0.694633 -0.716472 -0.0695872 0.721545 -0.688862 -0.198529 0.75713 -0.622367 
0.29754 0.803953 -0.514906 0.45967 0.708058 -0.536058 0.243498 0.800401 -0.547783 
0.0986635 0.734298 -0.671619 0.039869 0.682122 -0.730151 -0.0285484 0.631945 -0.774488 
-0.133494 0.660731 -0.738657 -0.0307942 0.667666 -0.743824 -0.14097 0.672192 -0.726832 
0.043824 0.650662 -0.758102 0.0108649 0.643635 -0.765255 0.141748 0.606164 -0.782606 
0.0685836 0.59191 -0.803081 -0.0314992 0.627168 -0.778247 -0.293336 0.729281 -0.618145 
-0.181953 0.694578 -0.696028 -0.34064 0.696919 -0.631085 -0.448241 0.69001 -0.568302 
0.607838 0.602578 -0.517139 0.68411 0.520507 -0.510946 0.39467 0.539628 -0.743665 
0.17798 0.493185 -0.851523 -0.0769014 0.314489 -0.946141 -0.0312802 0.245457 -0.968903 
-0.0739041 0.349739 -0.933928 -0.178125 0.433692 -0.88328 -0.0274222 0.365759 -0.930305 
0.141014 0.336628 -0.931019 0.124532 0.329986 -0.935736 -0.0232433 0.341664 -0.939535 
-0.103871 0.353898 -0.929498 -0.211276 0.463416 -0.860586 -0.552847 0.61758 -0.559424 
-0.401266 0.541927 -0.738445 -0.641391 0.522946 -0.561378 0.793645 0.314277 -0.52092 
0.662369 0.303427 -0.684981 -0.0968452 0.2618 -0.960251 0.112781 0.176065 -0.977897 
-0.0900611 0.173446 -0.980717 -0.312412 0.260137 -0.913634 -0.675212 0.436607 -0.594528 
-0.576968 0.386836 -0.719351 0.840345 0.100129 -0.532723 0.628147 0.114685 -0.769597 
-0.10297 0.0225804 -0.994428 0.0127923 -0.0563341 -0.99833 -0.268697 0.0283634 -0.962807 
-0.806092 0.146281 -0.573427 -0.493636 0.13668 -0.858861 0.833788 -0.122063 -0.538422 
0.622618 -0.118574 -0.77349 -0.121578 0.0315979 -0.992079 -0.2815 -0.0141494 -0.959457 
-0.84053 -0.0878949 -0.534588 -0.505148 -0.0574175 -0.861121 0.780669 -0.314253 -0.540186 
0.720513 -0.44276 -0.53369 0.682603 -0.307491 -0.66295 -0.33293 -0.0704434 -0.940317 
-0.790788 -0.2692 -0.549714 -0.708825 -0.382434 -0.592716 -0.591425 -0.250258 -0.766542 
0.666995 -0.495712 -0.556226 0.483362 -0.395476 -0.780999 0.0150687 -0.240151 -0.970619 
-0.181962 -0.193274 -0.964124 -0.701337 -0.385656 -0.599497 -0.412463 -0.210973 -0.886208 
0.617658 -0.568401 -0.543524 0.615432 -0.571453 -0.54285 0.611639 -0.565304 -0.553471 
0.55683 -0.602895 -0.571365 0.37246 -0.456271 -0.80814 0.173248 -0.283359 -0.943235 
-0.0495905 -0.109373 -0.992763 -0.100638 -0.165186 -0.981115 -0.0469281 -0.23601 -0.970617 
0.0802319 -0.294581 -0.952253 0.0896405 -0.301354 -0.949289 -0.279008 -0.300774 -0.91197 
-0.696361 -0.487459 -0.526749 -0.573133 -0.567222 -0.59142 -0.474874 -0.450944 -0.75574 
0.554958 -0.604267 -0.571736 0.432525 -0.697665 -0.571126 0.353862 -0.472841 -0.806971 
0.139991 -0.34823 -0.926897 -0.0257397 -0.324741 -0.945453 -0.08035 -0.32323 -0.942903 
-0.0483418 -0.365812 -0.929433 -0.129781 -0.377118 -0.917027 -0.171727 -0.602806 -0.779189 
-0.132051 -0.429665 -0.893281 -0.0369746 -0.636703 -0.770222 -0.00794341 -0.536794 -0.843676 
-0.014657 -0.725322 -0.688254 0.0247964 -0.552338 -0.833252 -0.130214 -0.739536 -0.660402 
-0.0909096 -0.612905 -0.784909 -0.44296 -0.665331 -0.600934 -0.350659 -0.698444 -0.62387 
-0.339524 -0.633483 -0.695286 0.33622 -0.736117 -0.587441 0.18709 -0.768255 -0.612193 
0.176178 -0.698653 -0.69343 -0.00956353 -0.765828 -0.642974 -0.0108991 -0.67381 -0.738824 
-0.0581455 -0.728403 -0.682677 -0.0634623 -0.66885 -0.740683 -0.0548409 -0.705681 -0.706404 
-0.0602249 -0.668198 -0.741542 -0.146104 -0.65584 -0.740626 -0.138278 -0.662328 -0.736342 
-0.13961 -0.652156 -0.745118 0.031741 0.421615 -0.906219 0.371598 0.265267 -0.88969 
0.0549246 0.424185 -0.903909 0.158875 0.420077 -0.893473 -0.00397051 0.380806 -0.924646 
0.0293002 0.409382 -0.911892 -0.0997056 0.255459 -0.961665 0.0018578 0.0711157 -0.997466 
-0.0187755 0.213491 -0.976765 -0.174009 0.337187 -0.925216 0.104719 0.0873745 -0.990656 
-0.0158795 0.208452 -0.977904 -0.0793685 0.153954 -0.984885 0.373295 0.263397 -0.889535 
0.371741 0.263446 -0.890171 0.118586 0.228337 -0.966333 -0.0906897 0.177243 -0.97998 
-0.139547 0.140349 -0.980219 -0.0356439 0.0482797 -0.998198 0.00338601 0.0628704 -0.998016 
0.0454467 0.0795801 -0.995792 -0.151981 0.297208 -0.942639 -0.169929 0.30608 -0.936717 
-0.147004 0.176429 -0.973274 0.103485 0.0773527 -0.991619 -0.0363651 0.198771 -0.979371 
0.0775261 0.0296984 -0.996548 0.101723 0.0614791 -0.992911 -0.0062705 0.0607613 -0.998133 
-0.0793414 0.151218 -0.985311 -0.0792558 0.150311 -0.985457 -0.0981536 0.13565 -0.985883 
0.464813 0.12363 -0.876735 0.307981 0.126568 -0.942936 0.0516862 0.0693732 -0.996251 
-0.0879943 0.0650834 -0.993993 -0.108265 0.0259291 -0.993784 -0.185882 0.0693654 -0.980121 
-0.00919071 0.0158469 -0.999832 -0.0976063 0.025801 -0.994891 0.1792 0.0023134 -0.98381 
-0.0105123 -0.0193757 -0.999757 -0.15528 0.159444 -0.974918 -0.0396496 0.15298 -0.987434 
-0.0517286 0.201837 -0.978052 0.0442375 -0.0455766 -0.997981 0.0661472 -0.0383582 -0.997072 
0.0244487 0.0488901 -0.998505 -0.173415 0.0699353 -0.982363 -0.115898 0.106577 -0.987527 
0.476084 -0.115772 -0.871746 0.321365 -0.105178 -0.941096 0.0657347 -0.0499943 -0.996584 
-0.083578 -0.0163285 -0.996367 -0.181842 0.00493378 -0.983315 -0.0702003 0.0347924 -0.996926 
-0.000164913 0.084052 -0.996461 -0.0125319 -0.0727285 -0.997273 0.145233 0.048137 -0.988226 
-0.126235 0.0604883 -0.990154 -0.147001 0.155051 -0.976908 0.080409 0.0213423 -0.996533 
-0.106035 0.0737843 -0.991621 0.0981852 0.0204628 -0.994958 0.0647152 0.0218171 -0.997665 
-0.205415 0.00519382 -0.978661 -0.121282 0.0251578 -0.992299 0.375774 -0.270753 -0.886277 
0.367944 -0.277499 -0.887475 0.361174 -0.270494 -0.892405 0.14019 -0.167267 -0.975894 
-0.0336239 -0.0973919 -0.994678 -0.142835 -0.0315071 -0.989245 -0.0273652 0.0192354 -0.99944 
0.0914254 -0.0679981 -0.993488 -0.0422089 0.052252 -0.997742 0.0471757 -0.0539265 -0.99743 
0.013036 -0.237731 -0.971244 -0.0717207 -0.158176 -0.984803 -0.104018 0.0781114 -0.991503 
0.0562863 0.0517002 -0.997075 0.0291089 0.00850312 -0.99954 -0.232657 -0.0746273 -0.969692 
-0.170112 -0.165298 -0.971462 -0.152835 -0.0975852 -0.983422 0.313949 -0.29963 -0.900921 
0.284598 -0.321514 -0.903124 0.255738 -0.270081 -0.928253 0.152407 -0.268887 -0.951037 
0.0477137 -0.178241 -0.982829 -0.0722316 -0.0856158 -0.993706 -0.0926017 0.0241358 -0.995411 
-0.00679176 -0.104082 -0.994546 0.0301652 -0.102332 -0.994293 0.0016479 -0.107099 -0.994247 
-0.00545176 -0.207501 -0.97822 -0.0854832 -0.113481 -0.989856 -0.0781506 -0.0892224 -0.992941 
0.0210256 -0.221021 -0.975042 0.0669136 -0.140874 -0.987764 0.0592998 -0.0831826 -0.994768 
0.0784986 -0.2485 -0.965446 0.0274891 -0.0502162 -0.99836 -0.147376 -0.148325 -0.977896 
-0.0827085 -0.057009 -0.994942 0.130439 -0.238593 -0.96232 0.0871408 -0.213517 -0.973045 
0.066454 -0.166592 -0.983784 -0.0489677 -0.100977 -0.993683 -0.0314749 -0.242573 -0.969622 
-0.0447683 -0.0737147 -0.996274 -0.022248 -0.172495 -0.984759 -0.0227351 -0.180698 -0.983276 
-0.0186543 -0.184412 -0.982672 -0.0181254 -0.181709 -0.983185 -0.0300382 -0.299119 -0.953743 
-0.121632 -0.295345 -0.947617 -0.107738 -0.307609 -0.945394 -0.109099 -0.295068 -0.949227 

