# vtk DataFile Version 4.2
vtk output
ASCII
DATASET POLYDATA
POINTS 558 float
-52.4387 -12.9111 -23.4002 -52.4387 -3.76781 -23.6371 -52.4387 5.3755 -23.0876 
-43.2954 23.6621 -22.7532 -61.582 -31.1977 -16.5757 -52.4387 -31.1977 -18.1605 
-43.2954 -31.1977 -19.219 -34.1521 -31.1977 -18.7552 -25.0087 -31.1977 -17.178 
-15.8654 -31.1977 -15.6585 -6.72213 -31.1977 -13.8855 -70.7253 -22.0544 -16.2403 
-61.582 -22.0544 -21.1788 -52.4387 -16.7934 -22.6342 -52.4387 -22.0544 -21.5988 
-43.2954 -22.0544 -21.6092 -34.1521 -22.0544 -21.4646 -25.0087 -22.0544 -19.8508 
-15.8654 -22.0544 -18.501 -6.72213 -22.0544 -16.9295 2.42118 -22.0544 -15.562 
29.8511 -22.0544 -14.8588 38.9944 -22.0544 -15.9335 48.1377 -22.0544 -16.2444 
57.281 -22.0544 -14.7787 -70.7253 -12.9111 -17.29 -55.3054 -12.9111 -22.6342 
-61.582 -12.9111 -21.1922 -44.6541 -12.9111 -22.6342 -43.2954 -12.9111 -22.5069 
-34.1521 -12.9111 -21.3739 -25.0087 -12.9111 -20.0439 -15.8654 -12.9111 -18.8819 
-6.72213 -12.9111 -18.6641 2.42118 -12.9111 -18.2607 11.5645 -12.9111 -16.6262 
20.7078 -12.9111 -15.6122 29.8511 -12.9111 -17.3426 38.9944 -12.9111 -18.5764 
48.1377 -12.9111 -18.8857 57.281 -12.9111 -18.4539 66.4244 -12.9111 -15.6123 
-70.7253 -3.76781 -17.6028 -55.492 -3.76781 -22.6342 -61.582 -3.76781 -20.6339 
-46.0335 -3.76781 -22.6342 -43.2954 -3.76781 -22.2271 -34.1521 -3.76781 -20.8198 
-25.0087 -3.76781 -18.8373 -15.8654 -3.76781 -18.7372 -6.72213 -3.76781 -19.82 
2.42118 -3.76781 -16.1205 11.5645 -3.76781 -21.1082 20.7078 -3.76781 -16.5058 
29.8511 -3.76781 -18.4536 38.9944 -3.76781 -20.1508 48.1377 -3.76781 -20.5499 
57.281 -3.76781 -19.8414 66.4244 -3.76781 -18.0871 75.5677 -3.76781 -13.9329 
-70.7253 5.3755 -16.158 -53.65 5.3755 -22.6342 -61.582 5.3755 -20.2282 
-49.4454 5.3755 -22.6342 -52.4387 9.35958 -22.6342 -43.2954 5.3755 -21.7664 
-34.1521 5.3755 -20.4517 -25.0087 5.3755 -18.5311 -15.8654 5.3755 -18.0668 
-6.72213 5.3755 -20.556 2.42118 5.3755 -19.3908 11.5645 5.3755 -20.8104 
20.7078 5.3755 -17.4782 29.8511 5.3755 -19.8569 38.9944 5.3755 -21.5348 
48.1377 5.3755 -21.6166 57.281 5.3755 -20.4547 66.4244 5.3755 -18.6377 
-70.7253 14.5188 -15.4165 -61.582 14.5188 -21.5959 -52.4387 14.5188 -22.0231 
-43.2954 22.6307 -22.6342 -43.2954 14.5188 -21.4997 -34.1521 14.5188 -20.6672 
-25.0087 14.5188 -19.6256 -15.8654 14.5188 -18.0337 -6.72213 14.5188 -17.1653 
2.42118 14.5188 -17.6245 11.5645 14.5188 -16.6225 20.7078 14.5188 -18.4449 
29.8511 14.5188 -20.5073 38.9944 14.5188 -22.0243 48.1377 14.5188 -21.732 
57.281 14.5188 -19.9641 66.4244 14.5188 -16.4151 -61.582 23.6621 -16.9958 
-43.7682 23.6621 -22.6342 -52.4387 23.6621 -20.2379 -42.5369 23.6621 -22.6342 
-43.2954 24.015 -22.6342 -34.1521 23.6621 -21.0106 -25.0087 23.6621 -20.0129 
-15.8654 23.6621 -19.032 -6.72213 23.6621 -18.0417 2.42118 23.6621 -17.4625 
11.5645 23.6621 -17.3958 20.7078 23.6621 -18.4166 29.8511 23.6621 -20.3466 
38.9944 23.6621 -20.4674 48.1377 23.6621 -20.4708 57.281 23.6621 -18.5306 
-52.4387 32.8054 -17.4256 -43.2954 32.8054 -19.1856 -34.1521 32.8054 -20.5474 
-25.0087 32.8054 -19.1782 -15.8654 32.8054 -19.004 -6.72213 32.8054 -18.5302 
2.42118 32.8054 -18.4813 11.5645 32.8054 -17.4999 20.7078 32.8054 -17.2079 
29.8511 32.8054 -18.4087 38.9944 32.8054 -18.3171 48.1377 32.8054 -16.4438 
-43.2954 41.9487 -13.6049 -34.1521 41.9487 -15.6445 -25.0087 41.9487 -17.1644 
-15.8654 41.9487 -17.1966 -6.72213 41.9487 -17.1786 2.42118 41.9487 -17.1646 
11.5645 41.9487 -15.7571 20.7078 41.9487 -15.585 -61.582 -35.2184 -13.4909 
-61.582 -40.341 -4.53565 -52.4387 -37.6475 -13.4909 -52.4387 -40.341 -9.20994 
-43.2954 -38.5266 -13.4909 -43.2954 -40.341 -11.2028 -34.1521 -38.0646 -13.4909 
-34.1521 -40.341 -10.8098 -25.0087 -37.0698 -13.4909 -25.0087 -40.341 -10.1251 
-15.8654 -34.7128 -13.4909 -15.8654 -40.341 -8.486 -6.72213 -31.8566 -13.4909 
-6.72213 -40.341 -7.03535 2.42118 -40.341 -5.38544 11.5645 -40.341 -4.78175 
20.7078 -40.341 -4.65256 29.8511 -40.341 -5.09963 38.9944 -40.341 -4.56508 
-66.7327 -31.1977 -13.4909 -70.7253 -27.0334 -13.4909 -70.7253 -31.1977 -8.84806 
-5.07386 -31.1977 -13.4909 2.42118 -27.0409 -13.4909 2.42118 -31.1977 -11.6274 
11.5645 -31.1977 -10.1004 20.7078 -31.1977 -9.95208 29.8511 -25.0115 -13.4909 
29.8511 -31.1977 -10.4589 38.9944 -27.0005 -13.4909 38.9944 -31.1977 -11.0743 
48.1377 -28.6568 -13.4909 48.1377 -31.1977 -11.8539 57.281 -25.8598 -13.4909 
57.281 -31.1977 -10.9192 66.4244 -31.1977 -5.11047 -73.9115 -22.0544 -13.4909 
10.5975 -22.0544 -13.4909 11.5645 -21.2754 -13.4909 11.5645 -22.0544 -13.2487 
22.4141 -22.0544 -13.4909 20.7078 -20.9244 -13.4909 20.7078 -22.0544 -13.1942 
63.5867 -22.0544 -13.4909 66.4244 -20.1071 -13.4909 66.4244 -22.0544 -12.8722 
75.5677 -22.0544 -6.72914 -75.442 -12.9111 -13.4909 -79.8686 -12.9111 -4.74196 
71.2008 -12.9111 -13.4909 75.5677 -5.60899 -13.4909 75.5677 -12.9111 -11.0449 
-75.6929 -3.76781 -13.4909 76.0936 -3.76781 -13.4909 75.5677 1.56171 -13.4909 
-73.6335 5.3755 -13.4909 74.9532 5.3755 -13.4909 75.5677 5.3755 -12.9376 
-72.6231 14.5188 -13.4909 -70.7253 18.1111 -13.4909 70.281 14.5188 -13.4909 
66.4244 22.7703 -13.4909 75.5677 14.5188 -5.30965 -65.9484 23.6621 -13.4909 
-61.582 29.9004 -13.4909 65.8829 23.6621 -13.4909 57.281 30.6501 -13.4909 
66.4244 23.6621 -12.5918 -58.848 32.8054 -13.4909 -52.4387 37.3095 -13.4909 
29.8511 41.6679 -13.4909 38.9944 38.9412 -13.4909 53.8073 32.8054 -13.4909 
48.1377 35.7058 -13.4909 57.281 32.8054 -8.39655 -43.535 41.9487 -13.4909 
-43.2954 42.0505 -13.4909 -34.1521 45.2679 -13.4909 -25.0087 47.1237 -13.4909 
-15.8654 48.4082 -13.4909 -6.72213 49.8632 -13.4909 2.42118 49.0965 -13.4909 
11.5645 46.4953 -13.4909 29.3083 41.9487 -13.4909 20.7078 46.1675 -13.4909 
29.8511 41.9487 -13.2766 38.9944 41.9487 -8.64243 -25.0087 51.092 -8.30394 
-15.8654 51.092 -11.2441 -6.72213 51.092 -12.5516 2.42118 51.092 -11.9381 
11.5645 51.092 -10.1421 20.7078 51.092 -6.71645 -61.582 -40.4184 -4.3476 
-52.4387 -42.5421 -4.3476 -43.2954 -44.7758 -4.3476 -34.1521 -44.3217 -4.3476 
-25.0087 -43.9863 -4.3476 -15.8654 -43.4091 -4.3476 -6.72213 -42.6608 -4.3476 
2.42118 -41.3684 -4.3476 11.5645 -40.8373 -4.3476 20.7078 -40.8293 -4.3476 
20.7078 -49.4844 4.63524 29.8511 -41.1166 -4.3476 38.9944 -40.5574 -4.3476 
-61.7155 -40.341 -4.3476 -70.7253 -33.8847 -4.3476 -61.582 -40.341 2.08728 
44.3717 -40.341 -4.3476 48.1377 -40.1082 -4.3476 48.1377 -40.341 -3.99928 
57.281 -36.0036 -4.3476 66.4244 -31.9761 -4.3476 -73.5027 -31.1977 -4.3476 
67.343 -31.1977 -4.3476 75.5677 -24.4703 -4.3476 -78.2758 -22.0544 -4.3476 
-79.8686 -13.6348 -4.3476 77.4795 -22.0544 -4.3476 -79.9946 -12.9111 -4.3476 
-79.8686 -7.97843 -4.3476 -79.8686 -12.9111 -3.96504 80.6564 -12.9111 -4.3476 
-79.7611 -3.76781 -4.3476 81.7079 -3.76781 -4.3476 -77.2221 5.3755 -4.3476 
80.5961 5.3755 -4.3476 -73.9178 14.5188 -4.3476 -70.7253 20.1212 -4.3476 
-70.7253 14.5188 1.38078 75.9759 14.5188 -4.3476 75.5677 15.2386 -4.3476 
75.5677 14.5188 -2.53805 -68.3602 23.6621 -4.3476 -61.582 32.3694 -4.3476 
69.5732 23.6621 -4.3476 66.4244 26.5709 -4.3476 66.4244 23.6621 3.79148 
-61.1849 32.8054 -4.3476 -52.4387 40.4466 -4.3476 48.1377 39.8008 -4.3476 
58.7932 32.8054 -4.3476 57.281 33.8989 -4.3476 57.281 32.8054 -0.606204 
-50.118 41.9487 -4.3476 -43.2954 45.9698 -4.3476 -34.1521 50.4646 -4.3476 
29.8511 48.3568 -4.3476 43.748 41.9487 -4.3476 38.9944 44.1499 -4.3476 
-32.2758 51.092 -4.3476 -25.0087 53.3927 -4.3476 -15.8654 55.3452 -4.3476 
-6.72213 56.1445 -4.3476 2.42118 56.0035 -4.3476 11.5645 54.7389 -4.3476 
23.1466 51.092 -4.3476 20.7078 52.0408 -4.3476 20.7078 51.092 3.48774 
20.7078 -49.5623 4.79571 -52.4387 -42.95 4.79571 -43.2954 -45.1884 4.79571 
-34.1521 -45.8145 4.79571 -25.0087 -46.3528 4.79571 -15.8654 -47.0733 4.79571 
-6.72213 -46.9984 4.79571 2.42118 -47.5942 4.79571 20.0407 -49.4844 4.79571 
11.5645 -48.3351 4.79571 21.0926 -49.4844 4.79571 20.7078 -49.4844 6.20528 
29.8511 -47.6228 4.79571 38.9944 -46.4341 4.79571 48.1377 -43.7893 4.79571 
-70.7253 -32.56 4.79571 -61.4639 -40.341 4.79571 -61.582 -40.2892 4.79571 
-52.4387 -40.341 10.4102 56.6077 -40.341 4.79571 57.281 -40.0578 4.79571 
66.4244 -34.7988 4.79571 -71.9965 -31.1977 4.79571 -70.7253 -31.1977 6.45177 
70.3176 -31.1977 4.79571 66.4244 -31.1977 11.0697 75.5677 -25.3342 4.79571 
-76.0379 -22.0544 4.79571 -70.7253 -22.0544 10.8295 77.8346 -22.0544 4.79571 
75.5677 -22.0544 8.02335 -76.7975 -12.9111 4.79571 -70.7253 -12.9111 10.8311 
80.7784 -12.9111 4.79571 75.5677 -12.9111 12.1321 -74.642 -3.76781 4.79571 
-70.7253 -3.76781 8.6533 -61.582 -3.76781 13.8085 80.7643 -3.76781 4.79571 
75.5677 -3.76781 11.8972 -72.2542 5.3755 4.79571 -70.7253 9.16832 4.79571 
-70.7253 5.3755 6.23626 -61.582 5.3755 12.0076 79.6038 5.3755 4.79571 
75.5677 12.0828 4.79571 75.5677 5.3755 9.89437 -68.2475 14.5188 4.79571 
-61.582 14.5188 9.53876 -52.4387 14.5188 11.9814 73.499 14.5188 4.79571 
66.4244 23.1877 4.79571 66.4244 14.5188 12.5726 -62.2577 23.6621 4.79571 
-61.582 24.5934 4.79571 -61.582 23.6621 5.35322 -52.4387 23.6621 10.3612 
-43.2954 23.6621 13.0664 65.9432 23.6621 4.79571 57.281 30.8272 4.79571 
57.281 23.6621 11.6876 -54.7993 32.8054 4.79571 -52.4387 35.1852 4.79571 
-52.4387 32.8054 6.55176 -43.2954 32.8054 10.5209 38.9944 32.8054 13.7669 
54.2233 32.8054 4.79571 48.1377 36.5175 4.79571 48.1377 32.8054 9.62813 
-44.233 41.9487 4.79571 -43.2954 42.6428 4.79571 -43.2954 41.9487 5.48179 
-34.1521 47.6992 4.79571 -34.1521 41.9487 10.2133 20.7078 50.8942 4.79571 
20.7078 41.9487 13.0052 29.8511 46.2903 4.79571 29.8511 41.9487 9.55759 
39.2452 41.9487 4.79571 38.9944 42.0747 4.79571 38.9944 41.9487 4.98072 
-28.0469 51.092 4.79571 -25.0087 52.4074 4.79571 -25.0087 51.092 6.94947 
-15.8654 54.3237 4.79571 -15.8654 51.092 9.37486 -6.72213 55.0648 4.79571 
-6.72213 51.092 10.1605 2.42118 54.6609 4.79571 2.42118 51.092 9.55373 
19.9431 51.092 4.79571 11.5645 52.9582 4.79571 11.5645 51.092 7.23436 
-43.2954 -40.4606 13.939 -34.1521 -42.0769 13.939 -25.0087 -43.5171 13.939 
[...]
POINT_DATA 558
SCALARS ImageScalars float
LOOKUP_TABLE default
0 0 0 0 0 0 0 0 0 
0 0 0 0 0 0 0 0 0 
0 0 0 0 0 0 0 0 0 
0 0 0 0 0 0 0 0 0 
0 0 0 0 0 0 0 0 0 
0 0 0 0 0 0 0 0 0 
0 0 0 0 0 0 0 0 0 
0 0 0 0 0 0 0 0 0 
0 0 0 0 0 0 0 0 0 
0 0 0 0 0 0 0 0 0 
0 0 0 0 0 0 0 0 0 
0 0 0 0 0 0 0 0 0 
0 0 0 0 0 0 0 0 0 
0 0 0 0 0 0 0 0 0 
0 0 0 0 0 0 0 0 0 
0 0 0 0 0 0 0 0 0 
0 0 0 0 0 0 0 0 0 
0 0 0 0 0 0 0 0 0 
0 0 0 0 0 0 0 0 0 
0 0 0 0 0 0 0 0 0 
0 0 0 0 0 0 0 0 0 
0 0 0 0 0 0 0 0 0 
0 0 0 0 0 0 0 0 0 
0 0 0 0 0 0 0 0 0 
0 0 0 0 0 0 0 0 0 
0 0 0 0 0 0 0 0 0 
0 0 0 0 0 0 0 0 0 
0 0 0 0 0 0 0 0 0 
0 0 0 0 0 0 0 0 0 
0 0 0 0 0 0 0 0 0 
0 0 0 0 0 0 0 0 0 
0 0 0 0 0 0 0 0 0 
0 0 0 0 0 0 0 0 0 
0 0 0 0 0 0 0 0 0 
0 0 0 0 0 0 0 0 0 
0 0 0 0 0 0 0 0 0 
0 0 0 0 0 0 0 0 0 
0 0 0 0 0 0 0 0 0 
0 0 0 0 0 0 0 0 0 
0 0 0 0 0 0 0 0 0 
0 0 0 0 0 0 0 0 0 
0 0 0 0 0 0 0 0 0 
0 0 0 0 0 0 0 0 0 
0 0 0 0 0 0 0 0 0 
0 0 0 0 0 0 0 0 0 
0 0 0 0 0 0 0 0 0 
0 0 0 0 0 0 0 0 0 
0 0 0 0 0 0 0 0 0 
0 0 0 0 0 0 0 0 0 
0 0 0 0 0 0 0 0 0 
0 0 0 0 0 0 0 0 0 
0 0 0 0 0 0 0 0 0 
0 0 0 0 0 0 0 0 0 
0 0 0 0 0 0 0 0 0 
0 0 0 0 0 0 0 0 0 
0 0 0 0 0 0 0 0 0 
0 0 0 0 0 0 0 0 0 
0 0 0 0 0 0 0 0 0 
0 0 0 0 0 0 0 0 0 
0 0 0 0 0 0 0 0 0 
0 0 0 0 0 0 0 0 0 
0 0 0 0 0 0 0 0 0 

NORMALS Normals float
-0.0815355 -0.110556 -0.99052 -0.0815283 0.0162117 -0.996539 -0.108544 0.0857446 -0.990387 
-0.0535193 0.1261 -0.990573 -0.328498 -0.541149 -0.77411 -0.13675 -0.450851 -0.882061 
-0.0335164 -0.430818 -0.901816 0.105019 -0.430377 -0.896519 0.154937 -0.416561 -0.895808 
0.165385 -0.420525 -0.89208 0.199979 -0.434185 -0.878346 -0.55934 -0.277572 -0.781084 
-0.277947 -0.230798 -0.932458 -0.0512078 -0.181462 -0.982064 -0.018879 -0.273464 -0.961697 
0.00711164 -0.168742 -0.985635 0.0960059 -0.127254 -0.987213 0.155262 -0.14724 -0.976839 
0.157826 -0.16788 -0.973092 0.150911 -0.239483 -0.9591 0.185617 -0.331142 -0.925144 
-0.142458 -0.340651 -0.929334 -0.0709893 -0.370054 -0.926294 0.0541211 -0.331278 -0.94198 
0.172165 -0.375494 -0.910694 -0.528876 -0.0774618 -0.845156 -0.141361 -0.0607313 -0.988093 
-0.26774 0.0269991 -0.963113 0.0808967 -0.0435949 -0.995769 0.107767 -0.0324653 -0.993646 
0.133307 0.0346674 -0.990468 0.139621 0.0566615 -0.988582 0.0748928 -0.0137102 -0.997097 
0.0342111 -0.14029 -0.989519 0.0931359 -0.0576828 -0.993981 0.155459 -0.353174 -0.922551 
-0.0493082 -0.178635 -0.982679 -0.164231 -0.187137 -0.968508 -0.0791859 -0.214397 -0.973532 
0.00757975 -0.244173 -0.969702 0.154606 -0.241405 -0.95803 0.334807 -0.250716 -0.90832 
-0.538348 0.0523224 -0.841097 -0.14958 0.033838 -0.98817 -0.285751 0.0591732 -0.956475 
0.0819805 0.0337361 -0.996063 0.147877 0.039944 -0.988199 0.182244 0.0495415 -0.982004 
0.113474 0.0832956 -0.990043 -0.0455218 0.0444114 -0.997976 0.114406 -0.117461 -0.986466 
-0.030687 -0.0244568 -0.99923 0.0742019 -0.220815 -0.972489 0.0597956 -0.100236 -0.993165 
-0.195282 -0.134149 -0.971529 -0.113347 -0.162472 -0.980181 0.0158475 -0.140026 -0.990021 
0.125537 -0.114505 -0.985459 0.329587 -0.151244 -0.931932 0.599301 -0.0712749 -0.797344 
-0.635289 0.117928 -0.763217 -0.134333 0.0656237 -0.988761 -0.302399 -0.0314516 -0.952662 
-0.024622 0.071252 -0.997154 -0.0533443 0.129034 -0.990204 0.137092 0.0393691 -0.989776 
0.17512 0.00825312 -0.984513 0.128853 -0.0395668 -0.990874 -0.105119 0.0348326 -0.993849 
-0.0723074 0.174262 -0.982041 0.00635749 -0.047528 -0.99885 0.13246 0.289276 -0.948037 
-0.0110992 -0.109846 -0.993887 -0.207274 -0.109339 -0.972154 -0.0962085 -0.101397 -0.990183 
0.0574945 -0.0695669 -0.995919 0.154771 -0.00722438 -0.987924 0.390362 0.0701205 -0.917987 
-0.703514 0.28174 -0.652449 -0.335365 0.0951559 -0.93727 0.0130774 0.179123 -0.98374 
-0.0402343 0.107545 -0.993386 0.0706225 -0.0481392 -0.996341 0.0988657 -0.0304342 -0.994635 
0.142372 -0.0830584 -0.986322 0.130364 -0.0542529 -0.989981 0.0215763 0.114092 -0.993236 
0.0321194 0.0885438 -0.995554 -0.0504522 0.11159 -0.992473 -0.208339 -0.0463883 -0.976956 
-0.191366 -0.026896 -0.98115 -0.0651066 0.0573371 -0.99623 0.103098 0.0533124 -0.993241 
0.252143 0.0844366 -0.963999 0.526245 0.264917 -0.808013 -0.527277 0.424303 -0.73617 
-0.0627171 0.128795 -0.989686 -0.255774 0.198229 -0.946195 -0.0381808 0.116699 -0.992433 
-0.0557841 0.134549 -0.989336 0.141301 0.00383457 -0.989959 0.106913 0.0254618 -0.993942 
0.108062 -0.0498585 -0.992893 0.0852471 -0.0740989 -0.993601 0.0353985 -0.0466436 -0.998284 
-0.0514436 -0.0474373 -0.997549 -0.150759 0.066091 -0.986359 -0.116666 0.107537 -0.987332 
-0.00620838 0.195586 -0.980667 0.0851559 0.235068 -0.968241 0.351016 0.368806 -0.86068 
-0.361986 0.528498 -0.767891 -0.134108 0.381468 -0.914602 -0.00376533 0.269221 -0.963071 
0.0757673 0.157439 -0.984618 0.0357719 0.090214 -0.99528 0.0278806 0.0456402 -0.998569 
0.0555397 0.00926626 -0.998414 0.0689625 0.0812849 -0.994302 -0.0420243 0.15698 -0.986707 
-0.0599506 0.332643 -0.941145 0.0745509 0.42626 -0.901523 0.311589 0.603838 -0.733684 
-0.288456 0.759882 -0.582557 -0.163984 0.535273 -0.828608 -0.0803856 0.408912 -0.909026 
-0.00084388 0.32193 -0.946763 0.0015379 0.274345 -0.96163 0.0708356 0.296735 -0.952329 
0.0826601 0.306728 -0.948201 0.116784 0.336226 -0.934512 -0.379167 -0.628164 -0.679442 
-0.396571 -0.894477 -0.206499 -0.137975 -0.74953 -0.647432 -0.175429 -0.893212 -0.414001 
-0.0165248 -0.722239 -0.691446 -0.0362612 -0.806473 -0.590158 0.0522387 -0.705216 -0.707065 
0.0350243 -0.811496 -0.583307 0.113334 -0.626297 -0.771303 0.0817775 -0.784157 -0.615151 
0.162693 -0.524626 -0.835642 0.111259 -0.7641 -0.635432 0.19889 -0.451761 -0.869687 
0.125485 -0.736067 -0.665176 0.0922272 -0.688444 -0.719402 0.0315212 -0.625494 -0.779592 
-0.01501 -0.544026 -0.838934 0.00454951 -0.644564 -0.764537 0.0402304 -0.699947 -0.713061 
-0.494429 -0.583413 -0.644337 -0.599933 -0.469577 -0.647748 -0.649158 -0.654946 -0.386834 
0.199504 -0.439333 -0.875891 0.191498 -0.400029 -0.896273 0.181425 -0.462622 -0.867794 
0.0804134 -0.398336 -0.913708 -0.0169411 -0.410667 -0.911628 -0.118695 -0.380795 -0.91701 
-0.0527779 -0.465378 -0.883537 -0.0844401 -0.471048 -0.878057 -0.0576349 -0.548437 -0.834203 
0.00334918 -0.524264 -0.851549 -0.00316611 -0.604944 -0.796262 0.22055 -0.411267 -0.88443 
0.278122 -0.559017 -0.78112 0.489697 -0.711086 -0.504533 -0.713306 -0.298028 -0.634329 
0.131412 -0.313933 -0.940307 0.126871 -0.30958 -0.942371 0.123152 -0.31034 -0.942615 
-0.0921125 -0.295725 -0.950822 -0.0795781 -0.271357 -0.959183 -0.0805958 -0.284738 -0.955211 
0.28426 -0.41112 -0.866127 0.341031 -0.387139 -0.856633 0.340791 -0.437299 -0.832245 
0.705554 -0.5113 -0.490679 -0.785639 -0.0891828 -0.612223 -0.99697 -0.0770041 -0.0110274 
0.431428 -0.297728 -0.851603 0.589817 -0.127029 -0.797483 0.615402 -0.340816 -0.710721 
-0.734779 0.0769513 -0.673927 0.622959 -0.0659939 -0.779466 0.648141 0.0779688 -0.757518 
-0.81387 0.144181 -0.562874 0.652586 0.182934 -0.735301 0.687986 0.19685 -0.698516 
-0.80618 0.301685 -0.508979 -0.756647 0.386706 -0.527204 0.626794 0.32094 -0.710019 
0.626598 0.507823 -0.591178 0.862515 0.486851 -0.137998 -0.698138 0.48833 -0.523581 
-0.635319 0.563629 -0.527913 0.620933 0.529109 -0.578347 0.484511 0.673412 -0.55836 
0.648192 0.560208 -0.515765 -0.575404 0.625575 -0.526845 -0.44499 0.706067 -0.550866 
0.241002 0.575393 -0.781563 0.204917 0.710896 -0.672782 0.448972 0.703487 -0.550936 
0.366185 0.723725 -0.584919 0.557688 0.801891 -0.214372 -0.29407 0.762843 -0.575841 
-0.290915 0.763351 -0.57677 -0.2168 0.649076 -0.729177 -0.10158 0.645353 -0.7571 
-0.0956212 0.598941 -0.795063 -0.0224674 0.577199 -0.816295 0.0890325 0.557504 -0.825386 
0.0827093 0.497291 -0.863632 0.242754 0.568613 -0.785971 0.171924 0.544095 -0.82122 
0.254375 0.590266 -0.766081 0.341527 0.87522 -0.342563 -0.209869 0.885258 -0.415058 
-0.147895 0.771269 -0.61909 -0.0256816 0.667238 -0.744402 0.0896064 0.695537 -0.71288 
0.151571 0.8017 -0.57819 0.317225 0.907635 -0.274896 -0.395568 -0.897065 -0.196976 
-0.226176 -0.946209 -0.231372 -0.0956004 -0.952267 -0.28991 0.0393012 -0.93727 -0.346381 
0.0456708 -0.911766 -0.408163 0.0642388 -0.863393 -0.500426 0.0942308 -0.808358 -0.581101 
0.0799657 -0.715638 -0.693879 0.0230927 -0.640346 -0.76774 -0.0127436 -0.557604 -0.830009 
0.0463034 -0.969153 -0.242071 0.0178058 -0.667284 -0.74459 0.0407006 -0.705738 -0.707303 
-0.398912 -0.895451 -0.197578 -0.66607 -0.724256 -0.178339 -0.463093 -0.876932 0.12859 
0.146494 -0.726512 -0.671357 0.22214 -0.73661 -0.638796 0.23162 -0.751364 -0.617903 
0.292993 -0.834419 -0.466798 0.493781 -0.724341 -0.481155 -0.756684 -0.634045 -0.159426 
0.511743 -0.721966 -0.465709 0.723735 -0.589239 -0.359172 -0.945138 -0.312719 -0.0944498 
-0.995879 -0.0906608 -0.00215588 0.797834 -0.500051 -0.336764 -0.99728 -0.0735238 0.00508712 
-0.998733 0.0420871 0.027603 -0.997309 -0.0709012 0.0186328 0.941724 -0.237447 -0.238277 
-0.988987 0.140551 0.0463728 0.976989 0.00529447 -0.213226 -0.939018 0.328464 0.101767 
0.940577 0.279211 -0.19328 -0.880764 0.433529 0.190544 -0.835218 0.510329 0.204879 
-0.769416 0.411817 0.488268 0.8677 0.489967 -0.0838374 0.861156 0.501608 -0.082458 
0.860337 0.509661 0.0081051 -0.819349 0.543351 0.182855 -0.716481 0.673344 0.182383 
0.72729 0.686222 -0.0121819 0.679463 0.733708 0.00148825 0.631016 0.67063 0.389968 
-0.711193 0.679514 0.18018 -0.579838 0.810065 0.0870813 0.483125 0.875367 -0.0179415 
0.586488 0.809919 0.00795741 0.568736 0.822466 0.00941765 0.560908 0.809159 0.175053 
-0.541974 0.838137 0.0615706 -0.47368 0.880319 -0.0257997 -0.371825 0.926228 -0.0620368 
0.398445 0.905776 -0.14426 0.446148 0.892487 -0.0664737 0.418765 0.901318 -0.110733 
-0.350069 0.932167 -0.0922844 -0.261455 0.943411 -0.204 -0.148929 0.968439 -0.199866 
-0.0376514 0.983515 -0.176864 0.082459 0.978505 -0.189019 0.212922 0.960881 -0.177123 
0.353561 0.926297 -0.130266 0.334175 0.933214 -0.132054 0.31556 0.8995 0.302195 
0.045519 -0.971395 -0.233064 -0.271315 -0.945035 0.182473 -0.147148 -0.975557 0.163205 
-0.0675493 -0.993654 0.08994 -0.0664772 -0.997688 0.0141504 -0.0368234 -0.998058 -0.050234 
-0.0265218 -0.99261 -0.118414 -0.068239 -0.976249 -0.205625 0.0353648 -0.971362 -0.234957 
-0.0950455 -0.959782 -0.26417 0.0517424 -0.969996 -0.237551 0.0341606 -0.988948 -0.144271 
0.155523 -0.929446 -0.334579 0.210963 -0.936032 -0.281673 0.335125 -0.938509 -0.0830163 
-0.681452 -0.631234 0.370361 -0.473972 -0.838477 0.268899 -0.477385 -0.835979 0.270633 
-0.286103 -0.831031 0.477003 0.404801 -0.910774 -0.0814025 0.413277 -0.907242 -0.0781931 
0.612258 -0.787258 0.0732433 -0.719029 -0.589889 0.367461 -0.677521 -0.586246 0.444163 
0.682753 -0.721324 0.116364 0.610805 -0.575349 0.543958 0.803576 -0.541881 0.246234 
-0.854683 -0.220163 0.470155 -0.689312 -0.159129 0.706772 0.856007 -0.433674 0.281386 
0.796314 -0.429481 0.425946 -0.887161 0.0443723 0.459321 -0.564513 0.0855534 0.820979 
0.941688 -0.158425 0.296858 0.659192 -0.141104 0.738617 -0.783166 0.233517 0.576299 
-0.603904 0.253725 0.755595 -0.335727 0.206819 0.918974 0.930919 0.064086 0.35956 
0.735014 0.103541 0.670099 -0.677499 0.270249 0.684076 -0.676799 0.30467 0.670163 
-0.624439 0.261126 0.736131 -0.412915 0.244842 0.877242 0.858838 0.323967 0.39679 
0.76853 0.495075 0.405293 0.730293 0.330685 0.597762 -0.668195 0.353249 0.654776 
-0.459788 0.313806 0.830735 -0.269032 0.187635 0.944677 0.737482 0.532765 0.415068 
0.61961 0.650263 0.439592 0.537461 0.417193 0.732861 -0.548751 0.477912 0.685909 
-0.537261 0.502404 0.677451 -0.532825 0.471446 0.702735 -0.402362 0.288369 0.868878 
-0.243491 0.198706 0.94933 0.611569 0.656784 0.441155 0.517322 0.732764 0.44208 
0.45196 0.542343 0.708235 -0.52592 0.524989 0.669174 -0.534359 0.530281 0.658227 
-0.481704 0.473012 0.737714 -0.386363 0.342082 0.856565 0.216957 0.522255 0.82473 
0.494646 0.753663 0.432802 0.465916 0.767991 0.439445 0.404063 0.686699 0.6043 
-0.508099 0.648296 0.567052 -0.501117 0.659559 0.560235 -0.497453 0.632299 0.593918 
-0.440836 0.751788 0.490386 -0.422091 0.52576 0.738522 0.305961 0.874894 0.375431 
0.203993 0.480095 0.853168 0.406868 0.802493 0.436422 0.32505 0.674238 0.663133 
0.41288 0.81372 0.409134 0.411226 0.814883 0.408483 0.409346 0.81199 0.416064 
-0.348909 0.860518 0.371176 -0.300701 0.891812 0.33801 -0.302519 0.842767 0.445225 
-0.142481 0.920595 0.363598 -0.113973 0.798765 0.590749 -0.01923 0.926024 0.376974 
-0.00659978 0.776781 0.629736 0.111939 0.909933 0.399363 0.119953 0.77553 0.61981 
0.296714 0.876455 0.379193 0.198982 0.873726 0.443856 0.185467 0.811776 0.553735 
-0.180432 -0.692951 0.698042 -0.139099 -0.762017 0.632442 -0.100254 -0.799692 0.591981 
-0.0768478 -0.798626 0.596901 -0.0929843 -0.835711 0.541241 -0.124346 -0.862008 0.491406 
-0.144967 -0.913799 0.379415 -0.0383054 -0.926878 0.373402 0.130433 -0.943931 0.303285 
0.30988 -0.874661 0.372751 0.467374 -0.721246 0.51124 -0.467824 -0.406916 0.784576 
-0.185251 -0.69145 0.698269 -0.263557 -0.620036 0.738981 -0.17967 -0.687153 0.703946 
-0.138301 -0.682569 0.717616 -0.0906326 -0.627729 0.773138 -0.0523368 -0.599381 0.798751 
-0.0877104 -0.581238 0.808993 -0.138757 -0.524145 0.840249 -0.139078 -0.439475 0.887423 
-0.098601 -0.413404 0.905193 0.101783 -0.389361 0.915444 0.322778 -0.479143 0.816233 
0.464609 -0.703585 0.537687 0.453995 -0.660792 0.597698 0.412285 -0.614543 0.672575 
-0.486682 -0.377262 0.787918 -0.454455 -0.35639 0.816368 -0.239171 -0.326715 0.91436 
-0.107436 -0.302984 0.94692 -0.0733201 -0.285328 0.955621 -0.0432142 -0.204035 0.978009 
-0.0239966 -0.186691 0.982126 -0.0356796 -0.167619 0.985206 -0.0742647 -0.0962958 0.992578 
-0.0929151 -0.0671396 0.993408 0.200868 -0.143092 0.969111 0.257667 -0.266087 0.928873 
0.480913 -0.467893 0.741484 0.368502 -0.422183 0.828231 0.54459 -0.330815 0.770703 
-0.481398 -0.0923091 0.871628 -0.377707 -0.100635 0.92044 -0.269375 -0.0357494 0.962372 
-0.12616 -0.0358588 0.991362 -0.0357861 -0.020005 0.999159 0.0236114 0.0344232 0.999128 
-0.0129 0.0337529 0.999347 0.0106945 -0.0193724 0.999755 -0.0294782 0.044929 0.998555 
-0.091996 0.0520722 0.994397 -0.0126702 0.113535 0.993453 0.0227332 0.121152 0.992374 
0.0569817 -0.0301579 0.99792 0.183062 -0.120565 0.97568 0.250827 -0.123715 0.960094 
0.575828 -0.248667 0.778837 0.506083 -0.2254 0.832511 -0.462283 0.0809908 0.883026 
-0.339155 0.201255 0.918951 -0.421448 0.101805 0.90112 -0.168247 0.129008 0.977267 
-0.0812404 0.128653 0.988356 -0.00416233 0.16374 0.986495 0.00979225 0.12515 0.99209 
-0.0773976 0.039743 0.996208 -0.0229015 0.00851129 0.999701 -0.00321228 0.087757 0.996137 
-0.0239504 -0.00413113 0.999705 0.0245409 0.169853 0.985164 -0.0365451 0.101267 0.994188 
-0.0341198 0.0292904 0.998988 0.115739 0.0152318 0.993163 0.239575 -0.0302631 0.970406 
0.525526 -0.112479 0.843309 0.379795 -0.0520584 0.923605 -0.329998 0.20734 0.92093 
-0.238987 0.224234 0.944777 -0.101314 0.209242 0.972601 -0.0279512 0.182916 0.982731 
-0.0963463 0.120464 0.988031 -0.129749 0.0349002 0.990932 0.0635324 0.153213 0.986149 
-0.0609422 -0.0189126 0.997962 0.00241818 0.0862659 0.996269 0.0895895 0.0821143 0.992588 
-0.118653 0.0146571 0.992828 -0.0288815 -0.000383745 0.999583 0.105451 0.0493473 0.993199 
0.21566 0.0203023 0.976257 0.575872 0.0917237 0.812378 0.342432 0.0541449 0.937981 
-0.253751 0.260292 0.931589 -0.215835 0.245992 0.944935 -0.2042 0.263561 0.942782 
-0.140222 0.227795 0.96356 -0.102373 0.141599 0.984616 -0.125656 0.0863212 0.988311 
-0.0417688 0.191142 0.980673 -0.0843864 0.261837 0.961416 -0.0648966 -0.0781634 0.994826 
0.0861941 0.214764 0.972855 -0.0546374 0.0235688 0.998228 -0.121611 -0.00130301 0.992577 
0.00793883 0.0615874 0.99807 0.141599 0.0857434 0.986204 0.252401 0.147014 0.956389 
0.554162 0.22991 0.800029 0.505047 0.331182 0.797023 0.442391 0.193717 0.875651 
-0.225427 0.159454 0.961123 -0.221164 0.169538 0.960387 -0.214772 0.156615 0.964025 
-0.166001 0.0876542 0.982222 -0.0645722 0.0395353 0.99713 0.0437584 0.0892518 0.995047 
-0.176426 0.00936137 0.984269 -0.0952755 0.135832 0.98614 0.073629 0.0952469 0.992727 
-0.119505 0.0774749 0.989806 -0.0764106 0.110909 0.990889 0.0605653 0.187962 0.980307 
0.196538 0.245764 0.949196 0.46375 0.395024 0.793027 0.386044 0.457384 0.801105 
0.318183 0.347327 0.882113 -0.234032 0.158263 0.959261 -0.227922 0.0989217 0.968641 
-0.114684 0.0268677 0.993039 -0.0396414 -0.0342511 0.998627 -0.0661117 -0.102027 0.992582 
-0.00724405 0.131257 0.991322 0.0430356 0.0534615 0.997642 -0.0374731 0.142373 0.989104 
-0.00255281 0.258541 0.965997 0.211649 0.514011 0.831263 0.135733 0.342733 0.929575 
0.372451 0.468492 0.801121 0.327811 0.517528 0.790383 0.283319 0.403396 0.870059 
-0.318981 0.240717 0.916682 -0.32077 0.254812 0.912238 -0.310776 0.232227 0.921677 
-0.199316 0.141744 0.96963 -0.0865413 0.0892367 0.992244 -0.0135636 0.0552288 0.998382 
0.0652709 0.160946 0.984803 0.0884189 0.196397 0.97653 0.173266 0.416925 0.892274 
0.0897285 0.264562 0.960185 0.2091 0.512002 0.833145 0.189614 0.483616 0.854495 
0.146439 0.424127 0.893685 -0.287661 0.386289 0.876374 -0.2616 0.418369 0.869789 
-0.254827 0.365199 0.895373 -0.0972408 0.498596 0.861363 -0.113235 0.359474 0.926259 
0.00420026 0.551328 0.834278 0.0109478 0.360502 0.932694 0.120616 0.496229 0.859772 
0.12329 0.37538 0.918635 0.155132 0.438786 0.8851 0.136589 0.449404 0.882824 
0.135009 0.423709 0.89568 -0.054351 -0.098802 0.993622 0.106242 -0.255573 0.960934 
-0.0625092 -0.0619947 0.996117 -0.0322228 0.0135336 0.999389 -0.0471352 -0.0595434 0.997112 
0.130342 -0.00949993 0.991424 0.0744563 0.0670288 0.994969 0.113836 0.0234138 0.993224 

