# vtk DataFile Version 4.2
vtk output
ASCII
DATASET POLYDATA
POINTS 502 float
-0.77247 -26.6303 -14.0542 6.17209 -26.6303 -14.9708 13.1167 -26.6303 -14.6997 
20.0612 -26.6303 -13.3151 -21.6062 -19.6858 -13.4838 -14.6616 -19.6858 -14.612 
-7.71703 -19.6858 -14.7421 -0.77247 -19.6858 -15.7488 6.17209 -19.6858 -17.2329 
13.1167 -19.6858 -17.1351 20.0612 -19.6858 -16.023 27.0058 -19.6858 -14.5722 
-28.5507 -12.7412 -13.2898 -21.6062 -12.7412 -14.7253 -14.6616 -12.7412 -16.0407 
-7.71703 -12.7412 -16.4932 -0.77247 -12.7412 -17.159 6.17209 -12.7412 -18.3924 
13.1167 -12.7412 -18.2137 20.0612 -12.7412 -17.4904 27.0058 -12.7412 -17.0976 
33.9503 -12.7412 -16.4303 40.8949 -12.7412 -14.1703 -28.5507 -5.79666 -13.6976 
-21.6062 -5.79666 -14.8965 -14.6616 -5.79666 -16.1489 -7.71703 -5.79666 -18.7026 
-0.77247 -5.79666 -17.9478 6.17209 -5.79666 -18.7379 13.1167 -5.79666 -19.2312 
20.0612 -5.79666 -18.8995 27.0058 -5.79666 -19.1855 33.9503 -5.79666 -18.8109 
40.8949 -5.79666 -17.556 47.8395 -5.79666 -13.355 -28.5507 1.1479 -13.7269 
-21.6062 1.1479 -14.1054 -14.6616 1.1479 -13.9704 -7.71703 1.1479 -17.3758 
-0.77247 1.1479 -17.1822 6.17209 1.1479 -18.7637 13.1167 1.1479 -19.7727 
20.0612 1.1479 -19.6914 27.0058 1.1479 -19.8371 33.9503 1.1479 -19.5441 
40.8949 1.1479 -18.3364 47.8395 1.1479 -15.0322 -28.5507 8.09246 -13.5116 
-21.6062 8.09246 -14.1151 -14.6616 8.09246 -14.3425 -7.71703 8.09246 -15.8496 
-0.77247 8.09246 -17.2231 6.17209 8.09246 -19.1961 13.1167 8.09246 -19.7433 
20.0612 8.09246 -19.7896 27.0058 8.09246 -20.0412 33.9503 8.09246 -19.7049 
40.8949 8.09246 -18.2463 47.8395 8.09246 -14.71 -28.5507 15.037 -13.7988 
-21.6062 15.037 -14.9745 -14.6616 15.037 -15.8703 -7.71703 15.037 -16.5503 
-0.77247 15.037 -17.7769 6.17209 15.037 -19.704 13.1167 15.037 -20.133 
20.0612 15.037 -19.9548 27.0058 15.037 -19.8777 33.9503 15.037 -19.127 
40.8949 15.037 -17.2118 -21.6062 21.9816 -14.8905 -14.6616 21.9816 -16.3307 
-7.71703 21.9816 -16.9652 -0.77247 21.9816 -18.3595 6.17209 21.9816 -19.6226 
13.1167 21.9816 -19.9495 20.0612 21.9816 -19.4405 27.0058 21.9816 -18.736 
33.9503 21.9816 -16.2136 -14.6616 28.9261 -14.9777 -7.71703 28.9261 -16.2414 
-0.77247 28.9261 -17.2261 6.17209 28.9261 -18.1872 13.1167 28.9261 -17.9128 
20.0612 28.9261 -16.723 27.0058 28.9261 -13.9142 -0.77247 35.8707 -13.285 
-14.6616 -33.5749 -8.5033 -7.71703 -33.5749 -9.43869 -0.77247 -28.2702 -13.2827 
-0.77247 -33.5749 -10.2016 6.17209 -29.5674 -13.2827 6.17209 -33.5749 -10.4813 
13.1167 -28.9737 -13.2827 13.1167 -33.5749 -9.59459 20.0612 -26.6786 -13.2827 
20.0612 -33.5749 -6.68939 -28.5507 -26.6303 -7.69017 -21.6062 -20.2968 -13.2827 
-21.6062 -26.6303 -10.9957 -14.6616 -25.3121 -13.2827 -14.6616 -26.6303 -12.9271 
-6.83303 -26.6303 -13.2827 -7.71703 -26.1359 -13.2827 -7.71703 -26.6303 -13.1683 
20.1519 -26.6303 -13.2827 27.0058 -22.1241 -13.2827 27.0058 -26.6303 -10.2967 
-35.4953 -19.6858 -7.07792 -22.2142 -19.6858 -13.2827 -28.5507 -12.7664 -13.2827 
-28.5507 -19.6858 -11.1415 31.4062 -19.6858 -13.2827 33.9503 -18.4423 -13.2827 
33.9503 -19.6858 -12.3835 40.8949 -14.0232 -13.2827 40.8949 -19.6858 -7.38089 
-28.5706 -12.7412 -13.2827 -35.4953 -12.7412 -10.2342 42.1963 -12.7412 -13.2827 
47.8395 -5.92135 -13.2827 47.8395 -12.7412 -6.57872 -42.4398 -5.79666 -7.83818 
-30.0293 -5.79666 -13.2827 -35.4953 -5.79666 -11.7157 47.9173 -5.79666 -13.2827 
-42.4398 1.1479 -9.10768 -30.5705 1.1479 -13.2827 -35.4953 1.1479 -12.2363 
49.6233 1.1479 -13.2827 -42.4398 8.09246 -8.66319 -29.5407 8.09246 -13.2827 
-35.4953 8.09246 -11.9132 49.2216 8.09246 -13.2827 47.8395 11.9353 -13.2827 
-30.4735 15.037 -13.2827 -35.4953 15.037 -11.5212 -28.5507 18.3619 -13.2827 
46.0991 15.037 -13.2827 40.8949 21.1458 -13.2827 47.8395 15.037 -9.10491 
-35.4953 21.9816 -8.55874 -26.625 21.9816 -13.2827 -28.5507 21.9816 -12.6235 
-21.6062 28.3413 -13.2827 39.9797 21.9816 -13.2827 33.9503 26.1257 -13.2827 
40.8949 21.9816 -11.693 -28.5507 28.9261 -9.10124 -21.0153 28.9261 -13.2827 
-21.6062 28.9261 -13.0991 -14.6616 31.9033 -13.2827 -7.71703 34.5481 -13.2827 
6.17209 35.7487 -13.2827 13.1167 34.4012 -13.2827 20.0612 32.4609 -13.2827 
28.5055 28.9261 -13.2827 27.0058 29.558 -13.2827 -14.6616 35.8707 -9.62548 
-0.791092 35.8707 -13.2827 -7.71703 35.8707 -11.9724 -0.620176 35.8707 -13.2827 
-0.77247 35.873 -13.2827 6.17209 35.8707 -13.0273 13.1167 35.8707 -8.73649 
-14.6616 -35.5346 -6.3381 -7.71703 -36.6832 -6.3381 -0.77247 -37.3776 -6.3381 
-0.77247 -40.5195 0.511815 6.17209 -37.298 -6.3381 6.17209 -40.5195 0.604895 
13.1167 -36.2443 -6.3381 20.0612 -33.8408 -6.3381 -28.5507 -28.225 -6.3381 
-20.0681 -33.5749 -6.3381 -21.6062 -32.8575 -6.3381 -21.6062 -33.5749 -5.08758 
20.626 -33.5749 -6.3381 27.0058 -30.368 -6.3381 -30.4116 -26.6303 -6.3381 
-35.4953 -20.8645 -6.3381 -35.4953 -26.6303 0.0151913 32.8754 -26.6303 -6.3381 
33.9503 -25.9117 -6.3381 33.9503 -26.6303 -2.13174 40.8949 -20.3917 -6.3381 
-36.5492 -19.6858 -6.3381 41.663 -19.6858 -6.3381 47.8395 -12.9093 -6.3381 
-40.6546 -12.7412 -6.3381 -42.4398 -9.48829 -6.3381 -42.4398 -12.7412 -4.25605 
47.9645 -12.7412 -6.3381 47.8395 -12.7412 -5.82825 -44.2078 -5.79666 -6.3381 
51.5761 -5.79666 -6.3381 -46.0305 1.1479 -6.3381 -49.3844 1.1479 -0.282016 
52.5266 1.1479 -6.3381 -45.3386 8.09246 -6.3381 -42.4398 14.8167 -6.3381 
51.5586 8.09246 -6.3381 -42.3321 15.037 -6.3381 -42.4398 15.037 -6.20688 
48.55 15.037 -6.3381 47.8395 15.9832 -6.3381 47.8395 15.037 -3.81659 
-38.0931 21.9816 -6.3381 -35.4953 25.0451 -6.3381 33.9503 28.2379 -6.3381 
42.6111 21.9816 -6.3381 40.8949 23.4916 -6.3381 40.8949 21.9816 -3.64856 
-31.7949 28.9261 -6.3381 -28.5507 31.4585 -6.3381 -21.6062 35.7959 -6.3381 
20.0612 34.3662 -6.3381 32.6658 28.9261 -6.3381 27.0058 31.7376 -6.3381 
27.0058 28.9261 0.103752 -21.3964 35.8707 -6.3381 -14.6616 37.7632 -6.3381 
-7.71703 38.9521 -6.3381 -0.77247 38.9602 -6.3381 6.17209 38.0682 -6.3381 
15.1535 35.8707 -6.3381 13.1167 36.4688 -6.3381 13.1167 35.8707 -3.90293 
-0.77247 -40.5541 0.606465 6.17209 -40.5201 0.606465 -21.6062 -35.6173 0.606465 
-14.6616 -37.7381 0.606465 -1.04316 -40.5195 0.606465 -7.71703 -39.6236 0.606465 
-0.77247 -40.5195 1.14172 6.17547 -40.5195 0.606465 6.17209 -40.5195 0.617393 
13.1167 -39.1515 0.606465 20.0612 -36.7497 0.606465 -35.4953 -26.9732 0.606465 
-25.8388 -33.5749 0.606465 -28.5507 -32.0043 0.606465 25.4692 -33.5749 0.606465 
27.0058 -32.6024 0.606465 33.9503 -27.0756 0.606465 -35.8579 -26.6303 0.606465 
-35.4953 -26.6303 3.96936 34.4841 -26.6303 0.606465 33.9503 -26.6303 1.4501 
40.8949 -20.0726 0.606465 -41.6724 -19.6858 0.606465 -42.4398 -18.456 0.606465 
41.2392 -19.6858 0.606465 40.8949 -19.6858 1.04579 -45.4506 -12.7412 0.606465 
46.1325 -12.7412 0.606465 40.8949 -12.7412 6.33472 47.8395 -9.05599 0.606465 
-48.2598 -5.79666 0.606465 -49.3844 -0.56178 0.606465 49.4186 -5.79666 0.606465 
47.8395 -5.79666 2.39705 -49.7219 1.1479 0.606465 -49.3844 3.91949 0.606465 
-49.3844 1.1479 4.21647 49.7049 1.1479 0.606465 47.8395 1.1479 2.5322 
-48.8513 8.09246 0.606465 40.8949 8.09246 6.70241 47.8579 8.09246 0.606465 
47.8395 8.17628 0.606465 47.8395 8.09246 0.629747 -46.3187 15.037 0.606465 
-42.4398 21.5843 0.606465 45.2566 15.037 0.606465 40.8949 18.3261 0.606465 
40.8949 15.037 3.07476 -42.1578 21.9816 0.606465 -35.4953 28.5873 0.606465 
27.0058 28.6482 0.606465 27.0058 21.9816 6.95699 36.8323 21.9816 0.606465 
33.9503 24.4966 0.606465 33.9503 21.9816 2.68351 -35.0562 28.9261 0.606465 
-28.5507 33.0454 0.606465 -21.6062 35.8704 0.606465 13.1167 34.6518 0.606465 
26.5403 28.9261 0.606465 20.0612 32.251 0.606465 20.0612 28.9261 5.15421 
-21.6047 35.8707 0.606465 -14.6616 37.5439 0.606465 -14.6616 35.8707 4.09313 
-7.71703 38.0192 0.606465 -7.71703 35.8707 4.23708 -0.77247 37.5009 0.606465 
-0.77247 35.8707 3.2121 8.27078 35.8707 0.606465 6.17209 36.3852 0.606465 
6.17209 35.8707 1.45728 -21.6062 -34.3088 7.55103 -14.6616 -36.4751 7.55103 
-7.71703 -38.5891 7.55103 -0.77247 -40.0777 7.55103 6.17209 -40.1044 7.55103 
13.1167 -38.3647 7.55103 20.0612 -35.2571 7.55103 -23.2517 -33.5749 7.55103 
-28.5507 -30.898 7.55103 -21.6062 -33.5749 8.74315 -14.6616 -33.5749 11.9219 
13.1167 -33.5749 13.7476 22.5731 -33.5749 7.55103 20.0612 -33.5749 9.64052 
27.0058 -29.6772 7.55103 -34.9881 -26.6303 7.55103 -35.4953 -26.2147 7.55103 
-28.5507 -26.6303 13.2788 20.0612 -26.6303 14.1457 30.0249 -26.6303 7.55103 
27.0058 -26.6303 10.0882 33.9503 -22.4179 7.55103 -41.5008 -19.6858 7.55103 
-42.4398 -18.3089 7.55103 27.0058 -19.6858 12.709 36.096 -19.6858 7.55103 
33.9503 -19.6858 9.50044 -45.5415 -12.7412 7.55103 -42.4398 -12.7412 12.423 
27.0058 -12.7412 13.3416 39.1471 -12.7412 7.55103 33.9503 -12.7412 10.436 
40.8949 -9.18367 7.55103 -47.9347 -5.79666 7.55103 27.0058 -5.79666 13.4661 
33.9503 -5.79666 11.3335 42.2555 -5.79666 7.55103 40.8949 -5.79666 8.45175 
-49.0426 1.1479 7.55103 27.0058 1.1479 13.376 33.9503 1.1479 11.2283 
42.0785 1.1479 7.55103 40.8949 4.60958 7.55103 40.8949 1.1479 8.32028 
-48.4735 8.09246 7.55103 27.0058 8.09246 12.5991 39.1656 8.09246 7.55103 
33.9503 8.09246 9.9438 -45.8765 15.037 7.55103 -42.4398 20.28 7.55103 
-42.4398 15.037 13.4802 20.0612 15.037 13.8706 27.0058 21.0338 7.55103 
27.0058 15.037 10.689 34.1087 15.037 7.55103 33.9503 15.1925 7.55103 
33.9503 15.037 7.6396 -40.9589 21.9816 7.55103 -35.4953 26.8896 7.55103 
-35.4953 21.9816 13.4429 6.17209 21.9816 14.0732 13.1167 21.9816 13.2946 
25.9723 21.9816 7.55103 20.0612 26.4001 7.55103 20.0612 21.9816 10.7034 
-32.2738 28.9261 7.55103 -28.5507 30.9416 7.55103 -28.5507 28.9261 10.3147 
-21.6062 33.2452 7.55103 -21.6062 28.9261 12.0906 -14.6616 33.7828 7.55103 
-14.6616 28.9261 12.3476 -7.71703 33.4028 7.55103 -7.71703 28.9261 11.3902 
-0.77247 32.4798 7.55103 -0.77247 28.9261 10.5159 6.17209 31.2144 7.55103 
6.17209 28.9261 9.60973 14.8977 28.9261 7.55103 13.1167 29.5902 7.55103 
13.1167 28.9261 8.19348 -7.71703 -34.4112 14.4956 -0.77247 -35.6552 14.4956 
[...]
POINT_DATA 502
SCALARS ImageScalars float
LOOKUP_TABLE default
0 0 0 0 0 0 0 0 0 
0 0 0 0 0 0 0 0 0 
0 0 0 0 0 0 0 0 0 
0 0 0 0 0 0 0 0 0 
0 0 0 0 0 0 0 0 0 
0 0 0 0 0 0 0 0 0 
0 0 0 0 0 0 0 0 0 
0 0 0 0 0 0 0 0 0 
0 0 0 0 0 0 0 0 0 
0 0 0 0 0 0 0 0 0 
0 0 0 0 0 0 0 0 0 
0 0 0 0 0 0 0 0 0 
0 0 0 0 0 0 0 0 0 
0 0 0 0 0 0 0 0 0 
0 0 0 0 0 0 0 0 0 
0 0 0 0 0 0 0 0 0 
0 0 0 0 0 0 0 0 0 
0 0 0 0 0 0 0 0 0 
0 0 0 0 0 0 0 0 0 
0 0 0 0 0 0 0 0 0 
0 0 0 0 0 0 0 0 0 
0 0 0 0 0 0 0 0 0 
0 0 0 0 0 0 0 0 0 
0 0 0 0 0 0 0 0 0 
0 0 0 0 0 0 0 0 0 
0 0 0 0 0 0 0 0 0 
0 0 0 0 0 0 0 0 0 
0 0 0 0 0 0 0 0 0 
0 0 0 0 0 0 0 0 0 
0 0 0 0 0 0 0 0 0 
0 0 0 0 0 0 0 0 0 
0 0 0 0 0 0 0 0 0 
0 0 0 0 0 0 0 0 0 
0 0 0 0 0 0 0 0 0 
0 0 0 0 0 0 0 0 0 
0 0 0 0 0 0 0 0 0 
0 0 0 0 0 0 0 0 0 
0 0 0 0 0 0 0 0 0 
0 0 0 0 0 0 0 0 0 
0 0 0 0 0 0 0 0 0 
0 0 0 0 0 0 0 0 0 
0 0 0 0 0 0 0 0 0 
0 0 0 0 0 0 0 0 0 
0 0 0 0 0 0 0 0 0 
0 0 0 0 0 0 0 0 0 
0 0 0 0 0 0 0 0 0 
0 0 0 0 0 0 0 0 0 
0 0 0 0 0 0 0 0 0 
0 0 0 0 0 0 0 0 0 
0 0 0 0 0 0 0 0 0 
0 0 0 0 0 0 0 0 0 
0 0 0 0 0 0 0 0 0 
0 0 0 0 0 0 0 0 0 
0 0 0 0 0 0 0 0 0 
0 0 0 0 0 0 0 0 0 
0 0 0 0 0 0 0 
NORMALS Normals float
0.11673 0.333019 0.935667 0.0461552 0.416711 0.907867 -0.104986 0.438887 0.892388 
-0.253901 0.491664 0.832947 0.232622 0.240151 0.942451 0.0838437 0.216916 0.972583 
0.0775336 0.215868 0.973339 0.176565 0.216688 0.960141 0.0954882 0.229478 0.968618 
-0.0844334 0.239568 0.967201 -0.17411 0.274955 0.945561 -0.220014 0.404009 0.887902 
0.280413 0.170051 0.944696 0.195755 0.0948817 0.976052 0.122646 0.106988 0.986667 
0.0799069 0.284913 0.955217 0.135452 0.157072 0.978254 0.072504 0.106272 0.99169 
-0.0635564 0.148564 0.986858 -0.0781962 0.201009 0.976463 -0.0744383 0.309073 0.948121 
-0.174231 0.377845 0.909328 -0.429276 0.48288 0.763249 0.214862 0.0305168 0.976167 
0.164879 -0.0449056 0.985291 0.280137 -0.136711 0.950175 0.114256 0.0659044 0.991263 
0.00283213 0.000349924 0.999996 0.0924933 0.0270652 0.995345 0.0118517 0.111843 0.993655 
-0.00348005 0.156062 0.987741 -0.00490209 0.187784 0.982198 -0.0973313 0.220911 0.970425 
-0.331134 0.261369 0.906662 -0.649225 0.357982 0.671085 0.134215 -0.0131994 0.990864 
0.0183211 -0.055146 0.99831 0.207314 -0.121658 0.97068 0.223295 -0.221756 0.949191 
0.0969166 -0.0525824 0.993903 0.192033 0.0330782 0.980831 0.0621517 0.035868 0.997422 
0.00460842 0.0624018 0.99804 -0.0104409 0.0600799 0.998139 -0.109222 0.0609557 0.992147 
-0.291122 0.0372541 0.95596 -0.661894 0.0776799 0.745561 0.156972 0.00629645 0.987583 
0.0579382 0.0616927 0.996412 0.126187 0.133349 0.983003 0.201595 -0.0440604 0.978477 
0.235356 0.0419364 0.971004 0.177971 0.0658745 0.981828 0.0410614 0.0258287 0.998823 
0.0214574 0.0188694 0.999592 -0.00725795 0.00332043 0.999968 -0.125102 -0.0253744 0.991819 
-0.32378 -0.0609265 0.944169 -0.705226 -0.185069 0.684401 0.22186 -0.0534468 0.973613 
0.150947 0.0561091 0.986948 0.112685 0.135952 0.984286 0.132957 0.0788519 0.98798 
0.227313 0.0805015 0.970489 0.165981 0.029379 0.985691 0.0177046 0.015382 0.999725 
-0.0182625 -0.0228003 0.999573 -0.0555525 -0.0820493 0.995079 -0.162492 -0.242505 0.956445 
-0.449447 -0.334722 0.828226 0.243216 -0.109596 0.963761 0.144526 -0.0551083 0.987965 
0.142523 -0.0222908 0.989541 0.18951 -0.0357387 0.981228 0.111246 -0.103101 0.98843 
-0.0109202 -0.143973 0.989521 -0.0820246 -0.201822 0.975982 -0.208767 -0.345564 0.914878 
-0.365023 -0.498801 0.786102 0.204652 -0.337657 0.918752 0.14711 -0.275342 0.950024 
0.138499 -0.310326 0.940487 0.0496332 -0.380811 0.92332 -0.0932139 -0.474023 0.875565 
-0.249447 -0.564813 0.786615 -0.347287 -0.723401 0.596726 0.0482115 -0.733056 0.678457 
0.20899 0.703468 0.679306 0.0978227 0.646288 0.756797 0.106327 0.390589 0.914404 
0.0611692 0.637727 0.76783 0.0186901 0.506263 0.862176 -0.0297479 0.672746 0.739276 
-0.120702 0.523755 0.843275 -0.181605 0.730936 0.657839 -0.254442 0.493348 0.831786 
-0.34611 0.786508 0.51148 0.476283 0.544771 0.690202 0.239091 0.256015 0.936638 
0.30998 0.45071 0.837122 0.123887 0.322975 0.938264 0.135466 0.356154 0.924556 
0.0811182 0.327898 0.941224 0.0761126 0.318283 0.944935 0.0767644 0.328092 0.941522 
-0.255225 0.492971 0.831769 -0.271022 0.465234 0.842677 -0.380948 0.633322 0.673633 
0.556645 0.436048 0.707112 0.244971 0.247516 0.937403 0.280725 0.170603 0.944504 
0.383923 0.323724 0.864758 -0.287187 0.507533 0.812363 -0.296218 0.534538 0.791533 
-0.341905 0.582712 0.737257 -0.454867 0.504397 0.733948 -0.626717 0.714408 0.311203 
0.280906 0.170304 0.944504 0.476677 0.277973 0.833972 -0.499052 0.492175 0.713239 
-0.650896 0.362507 0.667025 -0.81504 0.56302 0.136816 0.616673 0.244196 0.748387 
0.244855 0.0449639 0.968517 0.373734 0.12415 0.91919 -0.652692 0.3589 0.667221 
0.566905 0.0503556 0.822242 0.182819 -0.00618776 0.983127 0.301261 0.0126003 0.953458 
-0.773467 0.0664523 0.630343 0.578837 -0.16943 0.797647 0.178676 0.0027117 0.983904 
0.312915 -0.0462703 0.948653 -0.791768 -0.193041 0.579516 -0.740701 -0.355689 0.569954 
0.278052 -0.0873342 0.956588 0.445415 -0.191667 0.874568 0.298134 -0.150232 0.942627 
-0.680211 -0.473432 0.55962 -0.579197 -0.622259 0.526617 -0.817711 -0.537795 0.205244 
0.57976 -0.437797 0.687178 0.345546 -0.216818 0.91301 0.390904 -0.262372 0.882244 
0.336124 -0.363087 0.869016 -0.562483 -0.633788 0.530966 -0.445306 -0.712331 0.542482 
-0.62009 -0.691908 0.369799 0.520389 -0.588133 0.619109 0.33223 -0.38346 0.861732 
0.347108 -0.393565 0.851248 0.223894 -0.500609 0.836219 0.156543 -0.618885 0.769725 
-0.0827043 -0.816698 0.571108 -0.189335 -0.820781 0.538954 -0.290469 -0.803545 0.519561 
-0.379293 -0.750129 0.541704 -0.358155 -0.752501 0.552691 0.227703 -0.846061 0.482009 
0.0484872 -0.732996 0.678502 0.146681 -0.759521 0.633729 0.0452431 -0.735388 0.676134 
0.0481803 -0.733178 0.678328 -0.0887811 -0.832197 0.547327 -0.243246 -0.955998 0.164011 
0.231641 0.80449 0.546935 0.113483 0.797915 0.591991 0.0365925 0.807498 0.588734 
0.0615729 0.985755 0.156514 -0.0715665 0.823597 0.562641 -0.0928985 0.981596 0.166849 
-0.209214 0.825182 0.524695 -0.347992 0.79493 0.496979 0.500829 0.617806 0.606206 
0.345121 0.754193 0.558645 0.373111 0.733173 0.568547 0.38396 0.796752 0.466648 
-0.355933 0.79354 0.493565 -0.436689 0.769582 0.465882 0.531004 0.576936 0.620628 
0.577571 0.469552 0.667782 0.685935 0.694036 0.218649 -0.547408 0.745282 0.380656 
-0.56016 0.743671 0.364931 -0.635081 0.770493 0.0548937 -0.646387 0.72447 0.23943 
0.587888 0.449449 0.672594 -0.656664 0.718428 0.229466 -0.815282 0.56591 0.122726 
0.639681 0.334774 0.691907 0.662356 0.299611 0.686672 0.747094 0.370726 0.551737 
-0.818763 0.561179 0.121264 -0.825049 0.55815 0.0881039 0.689453 0.261122 0.675625 
-0.942387 0.325868 0.0756102 0.741239 0.0600002 0.668554 0.977923 0.0426197 0.204574 
-0.999425 -0.00646051 0.0332841 0.71985 -0.191442 0.667207 0.667753 -0.353932 0.654857 
-0.961191 -0.270656 -0.0534597 0.666706 -0.358059 0.65368 0.673804 -0.361625 0.644372 
-0.842395 -0.538664 -0.0145295 -0.825556 -0.563989 -0.0193531 -0.817453 -0.539205 -0.202557 
0.658652 -0.473902 0.58446 0.627802 -0.545957 0.554792 -0.511461 -0.857036 -0.0624309 
-0.673959 -0.730965 -0.107096 -0.629199 -0.769648 -0.108399 -0.628691 -0.722124 -0.288592 
0.585841 -0.656548 0.475116 0.537463 -0.727583 0.426329 0.387372 -0.884774 0.259073 
-0.319697 -0.947369 -0.016889 -0.490611 -0.86942 -0.0583952 -0.40866 -0.911332 -0.0497115 
-0.401325 -0.77689 -0.48516 0.381411 -0.888141 0.256382 0.220073 -0.946746 0.235033 
0.0859648 -0.981822 0.169221 -0.063549 -0.994149 0.0873464 -0.173497 -0.984346 0.0310032 
-0.27315 -0.96196 -0.00459093 -0.254966 -0.96695 0.000901424 -0.257552 -0.957177 -0.132212 
0.0618613 0.986539 0.151371 -0.0928964 0.98161 0.166767 0.369397 0.927042 0.0643368 
0.279487 0.958738 0.0520387 0.0675085 0.986445 0.14956 0.203111 0.973659 0.103601 
0.0651588 0.990522 0.120911 -0.0929704 0.981605 0.166758 -0.0929321 0.981719 0.166109 
-0.249626 0.95878 0.135752 -0.420764 0.90318 0.0849947 0.683626 0.706244 0.184053 
0.462454 0.882485 0.085766 0.52489 0.843997 0.110273 -0.53003 0.847738 0.0202125 
-0.562005 0.827095 -0.00802814 -0.646671 0.750189 -0.137963 0.691518 0.697809 0.186722 
0.674912 0.737104 -0.0342358 -0.653209 0.744434 -0.138336 -0.64704 0.73732 -0.194161 
-0.727368 0.620416 -0.293291 0.803068 0.560372 0.202647 0.820215 0.532467 0.209108 
-0.729915 0.613295 -0.301817 -0.72845 0.602814 -0.32554 0.875745 0.417546 0.242334 
-0.812373 0.437705 -0.385311 -0.575412 0.343411 -0.742274 -0.828331 0.326618 -0.455179 
0.944188 0.272074 0.185698 0.983316 0.0968689 0.153965 -0.824989 0.228535 -0.51688 
-0.781685 0.184625 -0.59572 0.988311 0.0388265 0.147424 0.98702 -0.0661786 0.146329 
0.996158 0.038235 -0.0787901 -0.793748 -0.0888587 -0.60172 -0.738209 -0.0763303 -0.670239 
0.964274 -0.218609 0.149621 -0.454675 -0.291332 -0.841663 -0.794469 -0.189817 -0.576878 
-0.793736 -0.193084 -0.576802 -0.793909 -0.189617 -0.577714 0.897838 -0.404924 0.172986 
0.788422 -0.597552 0.146021 -0.626685 -0.503121 -0.595093 -0.521104 -0.584555 -0.621889 
-0.481987 -0.494902 -0.723022 0.780035 -0.609681 0.140838 0.6186 -0.784057 0.0508763 
-0.398517 -0.75461 -0.521294 -0.423452 -0.518418 -0.74292 -0.524103 -0.606653 -0.597736 
-0.492598 -0.649749 -0.578942 -0.473327 -0.569963 -0.671643 0.606373 -0.794052 0.0423516 
0.460593 -0.886206 -0.0499287 0.299343 -0.944032 -0.138552 -0.249795 -0.882816 -0.397792 
-0.39624 -0.761275 -0.513277 -0.357523 -0.827891 -0.432174 -0.369301 -0.704914 -0.605569 
0.299311 -0.944039 -0.138576 0.14447 -0.959564 -0.241588 0.0796111 -0.905304 -0.417237 
-0.000200877 -0.938547 -0.345153 -0.0376815 -0.862406 -0.504813 -0.110827 -0.915233 -0.387384 
-0.112206 -0.854966 -0.506402 -0.202879 -0.895343 -0.396485 -0.185424 -0.898414 -0.398083 
-0.182311 -0.881897 -0.434764 0.336587 0.863687 -0.375172 0.296086 0.889056 -0.349158 
0.23674 0.920002 -0.312332 0.0995012 0.959394 -0.263936 -0.108265 0.954862 -0.276619 
-0.31503 0.892171 -0.323708 -0.481444 0.77624 -0.407018 0.362513 0.856981 -0.366291 
0.458489 0.82463 -0.331321 0.329193 0.838017 -0.435155 0.297171 0.757356 -0.581465 
-0.313899 0.557803 -0.768325 -0.529286 0.727987 -0.435765 -0.489394 0.681694 -0.543863 
-0.597896 0.605736 -0.524981 0.613742 0.738976 -0.277912 0.627004 0.729959 -0.272077 
0.361785 0.640197 -0.677687 -0.399823 0.333361 -0.853822 -0.591777 0.556738 -0.58296 
-0.569631 0.463453 -0.678773 -0.5979 0.475688 -0.645164 0.779906 0.579223 -0.237166 
0.809103 0.539266 -0.233547 -0.410408 0.188775 -0.892149 -0.630189 0.385131 -0.674193 
-0.560576 0.344478 -0.753053 0.882217 0.401919 -0.245264 0.742652 0.354478 -0.568166 
-0.361653 0.0473086 -0.931112 -0.515293 0.277199 -0.810946 -0.438888 0.118873 -0.890644 
-0.528198 0.216082 -0.821167 0.935662 0.231105 -0.266698 -0.273974 0.00232645 -0.961734 
-0.342001 0.0519697 -0.938261 -0.551233 0.111771 -0.826831 -0.505654 0.110318 -0.855654 
0.957698 0.0358148 -0.285539 -0.264103 -0.0579573 -0.962752 -0.343119 -0.091796 -0.934795 
-0.529499 -0.0994695 -0.842459 -0.471131 -0.200396 -0.858998 -0.494437 -0.108971 -0.862356 
0.940193 -0.208553 -0.269339 -0.344865 -0.171845 -0.922788 -0.423276 -0.277754 -0.862375 
-0.380364 -0.234442 -0.894629 0.866143 -0.421668 -0.268312 0.740316 -0.602432 -0.298341 
0.680507 -0.393611 -0.618045 -0.335397 -0.267251 -0.903375 -0.418044 -0.489367 -0.765349 
-0.391117 -0.333311 -0.857864 -0.432024 -0.397915 -0.809333 -0.430716 -0.400418 -0.808795 
-0.430321 -0.396972 -0.810702 0.685178 -0.652465 -0.323759 0.541474 -0.757311 -0.365083 
0.461601 -0.605523 -0.648279 -0.0799783 -0.415079 -0.906263 -0.197342 -0.453572 -0.869096 
-0.416683 -0.507971 -0.753884 -0.367745 -0.606566 -0.70487 -0.37213 -0.471121 -0.799727 
0.444145 -0.800134 -0.403138 0.354019 -0.823537 -0.443235 0.306273 -0.772618 -0.556109 
0.184103 -0.826534 -0.531929 0.0997911 -0.673946 -0.73201 0.0102747 -0.794148 -0.607638 
-0.0432041 -0.624506 -0.779824 -0.068682 -0.738299 -0.670967 -0.107138 -0.593782 -0.797461 
-0.113283 -0.693461 -0.711533 -0.103133 -0.586842 -0.803107 -0.15111 -0.69403 -0.703909 
-0.132487 -0.630079 -0.765145 -0.253116 -0.67369 -0.694315 -0.219635 -0.686907 -0.692761 
-0.214947 -0.669874 -0.71068 0.216612 0.703123 -0.677272 0.0376652 0.682166 -0.730227 
-0.143298 0.611041 -0.778521 0.280938 0.61069 -0.740359 0.242889 0.686627 -0.685236 
0.283059 0.6362 -0.717723 0.210458 0.668451 -0.713358 0.0154247 0.579864 -0.814567 
-0.251981 0.537109 -0.804996 -0.152803 0.527978 -0.835398 -0.303407 0.470519 -0.828586 
0.476701 0.458585 -0.74997 0.311023 0.590495 -0.744702 0.330942 0.564855 -0.755921 
0.270489 0.549326 -0.790618 0.214058 0.465946 -0.85853 0.0836275 0.355116 -0.931074 
-0.0862188 0.259487 -0.96189 -0.187603 0.171531 -0.967152 -0.381719 0.314015 -0.869301 
-0.26661 0.214695 -0.939588 -0.379354 0.288204 -0.879221 0.48033 0.455078 -0.749791 
0.474328 0.453239 -0.754711 0.295091 0.389883 -0.872303 0.190457 0.30654 -0.932609 
0.118918 0.21218 -0.969968 -0.0126514 0.139639 -0.990122 -0.186665 0.0618234 -0.980476 
-0.218178 0.0227014 -0.975645 -0.189177 0.0517068 -0.980581 -0.34614 0.135652 -0.928324 
-0.299564 0.105554 -0.948219 0.601469 0.317466 -0.73311 0.653731 0.231612 -0.720411 
0.401407 0.289434 -0.868965 0.213677 0.235914 -0.947991 0.0923482 0.159734 -0.982831 
0.0315837 0.0802405 -0.996275 -0.0750218 -0.0114263 -0.997116 -0.214374 -0.0409165 -0.975894 
-0.190672 0.00535658 -0.981639 -0.18723 -0.0186264 -0.982139 -0.324799 0.00118663 -0.945782 
-0.27925 -0.0410054 -0.959342 0.665561 0.192938 -0.720974 0.634541 0.186626 -0.750018 
0.370699 0.150055 -0.916551 0.172682 0.127213 -0.976728 -0.133956 -0.0374769 -0.990278 
-0.170556 -0.0798462 -0.982108 -0.195667 -0.136963 -0.971059 -0.233714 -0.109856 -0.966079 
-0.258313 -0.0339087 -0.965466 -0.246079 -0.0590919 -0.967447 0.694508 0.0302151 -0.71885 
0.610698 0.0296813 -0.791307 0.354781 0.0423758 -0.933989 -0.203628 -0.0343734 -0.978445 
-0.309983 -0.0306785 -0.950247 -0.221428 -0.157545 -0.962367 -0.09431 -0.0488328 -0.994344 
-0.203852 -0.0218342 -0.978758 -0.175827 -0.00730941 -0.984394 0.671982 -0.154987 -0.724168 
0.648711 -0.297458 -0.700494 0.619533 -0.142853 -0.771862 0.357467 -0.13421 -0.924232 
0.125066 -0.149855 -0.980766 -0.0930731 -0.175962 -0.979987 -0.130435 -0.153797 -0.979456 
-0.287049 -0.0822743 -0.954376 -0.213387 -0.000348736 -0.976968 -0.0937163 -0.00555158 -0.995583 
-0.278647 -0.0969666 -0.955486 -0.296982 -0.173021 -0.939077 -0.253559 -0.072315 -0.964613 
0.614897 -0.379248 -0.691428 0.430746 -0.553341 -0.712931 0.354242 -0.350323 -0.867056 
0.141924 -0.325073 -0.934979 -0.00980239 -0.319053 -0.947686 -0.0996621 -0.315453 -0.943693 
-0.112766 -0.328975 -0.937582 -0.156912 -0.320493 -0.934164 -0.0871529 -0.368639 -0.925478 
-0.132978 -0.156507 -0.978684 -0.283323 -0.243069 -0.92771 -0.18188 -0.332964 -0.925232 
-0.166422 -0.19433 -0.966716 0.377322 -0.575259 -0.725744 0.224711 -0.602212 -0.766059 
0.18898 -0.507748 -0.840523 0.0512939 -0.570867 -0.819439 0.00907626 -0.475174 -0.879845 
-0.0731904 -0.528141 -0.845997 -0.0923005 -0.438904 -0.893781 -0.132436 -0.480432 -0.866975 
-0.134042 -0.443898 -0.885995 -0.095104 -0.444834 -0.890549 -0.0987471 -0.454604 -0.885203 
-0.0989986 -0.452138 -0.886437 0.0585303 0.126822 -0.990197 -0.00302378 0.0673753 -0.997723 
0.1083 0.116951 -0.987215 0.172548 0.0752756 -0.98212 0.0365817 0.106655 -0.993623 
-0.0814799 0.020074 -0.996473 -0.0552591 0.0484303 -0.997297 0.20842 0.0185994 -0.977863 
0.138417 -0.103833 -0.984916 0.171683 0.0101918 -0.985099 0.0103809 0.00266732 -0.999943 
-0.155446 -0.0295533 -0.987402 -0.0966639 -0.147722 -0.984294 -0.110465 -0.0239955 -0.99359 
0.0883437 -0.153064 -0.984259 -0.069201 -0.172109 -0.982644 -0.00111535 -0.194987 -0.980805 
0.00195167 -0.160391 -0.987052 
