# vtk DataFile Version 4.2
vtk output
ASCII
DATASET POLYDATA
POINTS 516 float
19.8866 -18.5529 -17.7707 27.3962 -18.5529 -18.7746 34.9059 -18.5529 -18.8358 
42.4156 -18.5529 -19.1399 49.9252 -18.5529 -18.0811 -25.1714 -11.0433 -17.4709 
-17.6617 -11.0433 -18.2291 -10.1521 -11.0433 -19.434 -2.64241 -11.0433 -18.6435 
4.86726 -11.0433 -18.5546 12.3769 -11.0433 -18.2209 19.8866 -11.0433 -18.3626 
27.3962 -11.0433 -19.2667 34.9059 -11.0433 -20.6736 42.4156 -11.0433 -19.6375 
49.9252 -11.0433 -18.8185 -40.1907 -3.53359 -17.3344 -32.6811 -3.53359 -17.9359 
-25.1714 -3.53359 -18.1719 -17.6617 -3.53359 -21.2006 -10.1521 -3.53359 -23.8492 
-2.64241 -3.53359 -20.7098 4.86726 -3.53359 -20.6572 12.3769 -3.53359 -18.7093 
19.8866 -3.53359 -17.4132 27.3962 -3.53359 -18.8489 34.9059 -3.53359 -19.9573 
42.4156 -3.53359 -20.111 49.9252 -3.53359 -19.3093 57.4349 -3.53359 -17.6222 
-40.1907 3.97607 -17.3157 -32.6811 3.97607 -17.9612 -25.1714 3.97607 -18.1225 
-17.6617 3.97607 -21.1669 -10.1521 3.97607 -23.8803 -2.64241 3.97607 -21.0101 
4.86726 3.97607 -21.1063 12.3769 3.97607 -18.4859 19.8866 3.97607 -17.0399 
27.3962 3.97607 -18.8314 34.9059 3.97607 -20.3212 42.4156 3.97607 -19.5445 
49.9252 3.97607 -18.7683 -32.6811 11.4857 -17.1656 -25.1714 11.4857 -18.2943 
-17.6617 11.4857 -19.5995 -10.1521 11.4857 -21.0816 -2.64241 11.4857 -19.9007 
4.86726 11.4857 -19.8876 12.3769 11.4857 -18.6758 19.8866 11.4857 -17.8117 
27.3962 11.4857 -18.1792 34.9059 11.4857 -18.6043 42.4156 11.4857 -18.2321 
-25.1714 18.9954 -17.6408 -17.6617 18.9954 -19.1874 -10.1521 18.9954 -20.2396 
-2.64241 18.9954 -20.0323 4.86726 18.9954 -19.4859 12.3769 18.9954 -18.709 
19.8866 18.9954 -17.7825 27.3962 18.9954 -17.1236 -10.1521 26.5051 -18.6503 
-2.64241 26.5051 -18.9787 4.86726 26.5051 -18.3797 12.3769 26.5051 -17.3303 
-10.1521 -26.0626 -10.0772 -2.64241 -26.0626 -10.9419 4.86726 -26.0626 -11.7029 
12.3769 -26.0626 -12.8812 19.8866 -20.4425 -17.0124 19.8866 -26.0626 -14.1745 
27.3962 -23.4963 -17.0124 27.3962 -26.0626 -15.586 34.9059 -23.1371 -17.0124 
34.9059 -26.0626 -15.5601 42.4156 -24.1529 -17.0124 42.4156 -26.0626 -15.7963 
49.9252 -20.6208 -17.0124 49.9252 -26.0626 -12.3099 -47.7004 -18.5529 -9.97047 
-40.1907 -18.5529 -12.6572 -32.6811 -18.5529 -14.1136 -25.1714 -12.3215 -17.0124 
-25.1714 -18.5529 -14.5667 -17.6617 -13.8751 -17.0124 -17.6617 -18.5529 -14.9563 
-10.1521 -15.3718 -17.0124 -10.1521 -18.5529 -15.3195 -2.64241 -14.6199 -17.0124 
-2.64241 -18.5529 -15.2042 4.86726 -15.015 -17.0124 4.86726 -18.5529 -15.647 
14.7698 -18.5529 -17.0124 12.3769 -16.9176 -17.0124 12.3769 -18.5529 -16.6686 
52.3702 -18.5529 -17.0124 57.4349 -18.5529 -13.6718 -55.2101 -11.0433 -10.4316 
-47.7004 -11.0433 -13.8831 -40.1907 -5.33022 -17.0124 -40.1907 -11.0433 -15.8125 
-30.9767 -11.0433 -17.0124 -32.6811 -10.1678 -17.0124 -32.6811 -11.0433 -16.8765 
56.0625 -11.0433 -17.0124 57.4349 -8.35202 -17.0124 57.4349 -11.0433 -16.5533 
-55.2101 -3.53359 -11.7059 -41.2208 -3.53359 -17.0124 -47.7004 -3.53359 -14.8426 
58.2995 -3.53359 -17.0124 57.4349 -0.116319 -17.0124 -55.2101 3.97607 -11.6705 
-41.1298 3.97607 -17.0124 -47.7004 3.97607 -14.7475 -40.1907 6.00218 -17.0124 
55.0219 3.97607 -17.0124 49.9252 8.89622 -17.0124 57.4349 3.97607 -15.7634 
-55.2101 11.4857 -10.0522 -47.7004 11.4857 -14.2528 -33.7494 11.4857 -17.0124 
-40.1907 11.4857 -16.0407 -32.6811 12.5764 -17.0124 34.9059 16.7064 -17.0124 
46.8274 11.4857 -17.0124 42.4156 14.2691 -17.0124 49.9252 11.4857 -15.9903 
57.4349 11.4857 -10.7965 -47.7004 18.9954 -10.0924 -40.1907 18.9954 -13.4796 
-28.3485 18.9954 -17.0124 -32.6811 18.9954 -15.999 -25.1714 20.618 -17.0124 
-17.6617 25.9302 -17.0124 19.8866 22.3866 -17.0124 28.3822 18.9954 -17.0124 
27.3962 19.2948 -17.0124 34.9059 18.9954 -16.2593 42.4156 18.9954 -14.3348 
49.9252 18.9954 -10.4374 -32.6811 26.5051 -10.9454 -25.1714 26.5051 -13.8909 
-16.914 26.5051 -17.0124 -17.6617 26.5051 -16.7777 -10.1521 29.1241 -17.0124 
-2.64241 30.0006 -17.0124 4.86726 29.2617 -17.0124 14.212 26.5051 -17.0124 
12.3769 27.2311 -17.0124 19.8866 26.5051 -15.967 27.3962 26.5051 -13.7287 
34.9059 26.5051 -10.7794 -10.1521 34.0147 -11.2076 -2.64241 34.0147 -13.0803 
4.86726 34.0147 -13.513 12.3769 34.0147 -12.8593 19.8866 34.0147 -9.85334 
-10.1521 -26.6484 -9.50272 -2.64241 -27.5802 -9.50272 4.86726 -28.1831 -9.50272 
12.3769 -28.8393 -9.50272 19.8866 -29.8113 -9.50272 27.3962 -30.6412 -9.50272 
34.9059 -30.8758 -9.50272 42.4156 -29.8309 -9.50272 49.9252 -27.9875 -9.50272 
-47.7004 -19.112 -9.50272 -40.1907 -22.9524 -9.50272 -40.1907 -26.0626 -6.79737 
-32.6811 -24.7023 -9.50272 -32.6811 -26.0626 -8.07683 -25.1714 -25.61 -9.50272 
-25.1714 -26.0626 -9.02229 -16.3817 -26.0626 -9.50272 -17.6617 -25.9222 -9.50272 
-17.6617 -26.0626 -9.35144 52.9575 -26.0626 -9.50272 57.4349 -22.5111 -9.50272 
-48.4435 -18.5529 -9.50272 -55.2101 -12.5604 -9.50272 -55.2101 -18.5529 -3.61978 
61.0895 -18.5529 -9.50272 -56.29 -11.0433 -9.50272 63.6124 -11.0433 -9.50272 
-57.8067 -3.53359 -9.50272 63.991 -3.53359 -9.50272 -57.7694 3.97607 -9.50272 
62.5735 3.97607 -9.50272 -55.8012 11.4857 -9.50272 -55.2101 12.3449 -9.50272 
58.4646 11.4857 -9.50272 57.4349 13.0339 -9.50272 -48.5079 18.9954 -9.50272 
-47.7004 19.6957 -9.50272 -40.1907 25.3055 -9.50272 42.4156 23.855 -9.50272 
51.0416 18.9954 -9.50272 49.9252 19.7462 -9.50272 -37.2906 26.5051 -9.50272 
-40.1907 26.5051 -7.78547 -32.6811 27.8601 -9.50272 -25.1714 30.4794 -9.50272 
-17.6617 32.8856 -9.50272 27.3962 30.7508 -9.50272 37.2104 26.5051 -9.50272 
34.9059 27.6005 -9.50272 -13.7175 34.0147 -9.50272 -17.6617 34.0147 -4.56542 
-10.1521 34.938 -9.50272 -2.64241 36.2162 -9.50272 4.86726 36.9579 -9.50272 
12.3769 36.5151 -9.50272 20.5282 34.0147 -9.50272 19.8866 34.285 -9.50272 
-40.1907 -29.3913 -1.99306 -32.6811 -30.2912 -1.99306 -25.1714 -30.6523 -1.99306 
-25.1714 -33.5723 5.40035 -17.6617 -30.9077 -1.99306 -10.1521 -31.5634 -1.99306 
-2.64241 -31.9116 -1.99306 4.86726 -31.0368 -1.99306 12.3769 -29.7476 -1.99306 
19.8866 -30.0623 -1.99306 27.3962 -31.3726 -1.99306 34.9059 -31.165 -1.99306 
42.4156 -30.8293 -1.99306 49.9252 -28.8042 -1.99306 -55.2101 -20.0916 -1.99306 
-46.5803 -26.0626 -1.99306 -47.7004 -25.3659 -1.99306 -47.7004 -26.0626 -0.101033 
54.1478 -26.0626 -1.99306 49.9252 -26.0626 4.18789 57.4349 -23.2527 -1.99306 
-56.4027 -18.5529 -1.99306 61.3977 -18.5529 -1.99306 -61.1375 -11.0433 -1.99306 
63.6781 -11.0433 -1.99306 -62.6467 -3.53359 -1.99306 64.2011 -3.53359 -1.99306 
-62.229 3.97607 -1.99306 62.7455 3.97607 -1.99306 -60.0637 11.4857 -1.99306 
-55.2101 18.283 -1.99306 59.3214 11.4857 -1.99306 57.4349 14.4865 -1.99306 
57.4349 11.4857 1.58137 -54.5667 18.9954 -1.99306 -47.7004 24.3797 -1.99306 
42.4156 26.2369 -1.99306 53.3961 18.9954 -1.99306 49.9252 21.7297 -1.99306 
-44.3794 26.5051 -1.99306 -40.1907 28.6894 -1.99306 -32.6811 30.9668 -1.99306 
-25.1714 32.7046 -1.99306 27.3962 33.5727 -1.99306 41.9146 26.5051 -1.99306 
34.9059 30.3073 -1.99306 -19.783 34.0147 -1.99306 -17.6617 34.5216 -1.99306 
-17.6617 34.0147 3.97663 -10.1521 36.1003 -1.99306 -2.64241 37.2568 -1.99306 
4.86726 38.2013 -1.99306 12.3769 38.3165 -1.99306 26.3404 34.0147 -1.99306 
19.8866 36.602 -1.99306 -25.1714 -33.6141 5.51661 -47.7004 -28.0732 5.51661 
-40.1907 -31.5973 5.51661 -26.171 -33.5723 5.51661 -32.6811 -33.2822 5.51661 
-24.4272 -33.5723 5.51661 -25.1714 -33.5723 6.11254 -17.6617 -33.1922 5.51661 
-10.1521 -32.8436 5.51661 -2.64241 -32.4021 5.51661 4.86726 -30.5833 5.51661 
12.3769 -28.0085 5.51661 19.8866 -27.6526 5.51661 27.3962 -28.8628 5.51661 
34.9059 -29.697 5.51661 42.4156 -27.3128 5.51661 -50.867 -26.0626 5.51661 
-55.2101 -22.3644 5.51661 19.8866 -26.0626 10.0177 27.3962 -26.0626 10.1476 
34.9059 -26.0626 9.8913 47.0828 -26.0626 5.51661 42.4156 -26.0626 7.37486 
49.9252 -24.7058 5.51661 57.4349 -18.715 5.51661 -57.9624 -18.5529 5.51661 
-55.2101 -18.5529 10.7286 42.4156 -18.5529 12.6143 49.9252 -18.5529 9.40517 
57.5565 -18.5529 5.51661 57.4349 -18.5529 5.63478 -61.9016 -11.0433 5.51661 
49.9252 -11.0433 10.6243 59.1411 -11.0433 5.51661 57.4349 -11.0433 7.0462 
-62.7051 -3.53359 5.51661 49.9252 -3.53359 11.0979 59.9975 -3.53359 5.51661 
57.4349 -3.53359 7.80305 -62.1636 3.97607 5.51661 -55.2101 3.97607 12.9745 
49.9252 3.97607 10.8775 58.659 3.97607 5.51661 57.4349 6.85232 5.51661 
57.4349 3.97607 6.714 -59.1133 11.4857 5.51661 -55.2101 17.3418 5.51661 
-55.2101 11.4857 9.9272 54.5164 11.4857 5.51661 49.9252 11.4857 9.17795 
-53.9351 18.9954 5.51661 -47.7004 23.6604 5.51661 -47.7004 18.9954 10.9251 
42.4156 25.1645 5.51661 42.4156 18.9954 11.9186 50.093 18.9954 5.51661 
49.9252 19.1564 5.51661 49.9252 18.9954 5.72358 -42.4459 26.5051 5.51661 
-40.1907 27.5516 5.51661 -40.1907 26.5051 7.28208 -32.6811 29.8555 5.51661 
-32.6811 26.5051 10.9505 -25.1714 31.9269 5.51661 -17.6617 33.8781 5.51661 
27.3962 32.9539 5.51661 40.5254 26.5051 5.51661 34.9059 29.7235 5.51661 
34.9059 26.5051 10.973 -16.858 34.0147 5.51661 -10.1521 35.1427 5.51661 
-10.1521 34.0147 7.65641 -2.64241 35.6498 5.51661 -2.64241 34.0147 8.19172 
4.86726 36.2082 5.51661 4.86726 34.0147 8.60747 12.3769 36.3366 5.51661 
12.3769 34.0147 8.91536 24.0342 34.0147 5.51661 19.8866 35.2769 5.51661 
19.8866 34.0147 7.748 -47.7004 -26.3229 13.0263 -40.1907 -30.8072 13.0263 
-32.6811 -33.0214 13.0263 -25.1714 -33.044 13.0263 -17.6617 -32.1082 13.0263 
-10.1521 -30.7511 13.0263 -2.64241 -29.9138 13.0263 4.86726 -28.3495 13.0263 
12.3769 -26.1787 13.0263 -48.0457 -26.0626 13.0263 -47.7004 -26.0626 13.2968 
-40.1907 -26.0626 18.9757 -17.6617 -26.0626 19.8858 -10.1521 -26.0626 17.8866 
-2.64241 -26.0626 16.8882 4.86726 -26.0626 15.5791 13.1303 -26.0626 13.0263 
12.3769 -26.0626 13.1795 19.8866 -24.7137 13.0263 27.3962 -23.8146 13.0263 
34.9059 -22.1785 13.0263 -53.7934 -18.5529 13.0263 -55.2101 -14.3911 13.0263 
-47.7004 -18.5529 17.9637 -2.64241 -18.5529 19.8358 4.86726 -18.5529 19.0927 
12.3769 -18.5529 18.4546 19.8866 -18.5529 18.1977 27.3962 -18.5529 17.0758 
[...]
POINT_DATA 516
SCALARS ImageScalars float
LOOKUP_TABLE default
0 0 0 0 0 0 0 0 0 
0 0 0 0 0 0 0 0 0 
0 0 0 0 0 0 0 0 0 
0 0 0 0 0 0 0 0 0 
0 0 0 0 0 0 0 0 0 
0 0 0 0 0 0 0 0 0 
0 0 0 0 0 0 0 0 0 
0 0 0 0 0 0 0 0 0 
0 0 0 0 0 0 0 0 0 
0 0 0 0 0 0 0 0 0 
0 0 0 0 0 0 0 0 0 
0 0 0 0 0 0 0 0 0 
0 0 0 0 0 0 0 0 0 
0 0 0 0 0 0 0 0 0 
0 0 0 0 0 0 0 0 0 
0 0 0 0 0 0 0 0 0 
0 0 0 0 0 0 0 0 0 
0 0 0 0 0 0 0 0 0 
0 0 0 0 0 0 0 0 0 
0 0 0 0 0 0 0 0 0 
0 0 0 0 0 0 0 0 0 
0 0 0 0 0 0 0 0 0 
0 0 0 0 0 0 0 0 0 
0 0 0 0 0 0 0 0 0 
0 0 0 0 0 0 0 0 0 
0 0 0 0 0 0 0 0 0 
0 0 0 0 0 0 0 0 0 
0 0 0 0 0 0 0 0 0 
0 0 0 0 0 0 0 0 0 
0 0 0 0 0 0 0 0 0 
0 0 0 0 0 0 0 0 0 
0 0 0 0 0 0 0 0 0 
0 0 0 0 0 0 0 0 0 
0 0 0 0 0 0 0 0 0 
0 0 0 0 0 0 0 0 0 
0 0 0 0 0 0 0 0 0 
0 0 0 0 0 0 0 0 0 
0 0 0 0 0 0 0 0 0 
0 0 0 0 0 0 0 0 0 
0 0 0 0 0 0 0 0 0 
0 0 0 0 0 0 0 0 0 
0 0 0 0 0 0 0 0 0 
0 0 0 0 0 0 0 0 0 
0 0 0 0 0 0 0 0 0 
0 0 0 0 0 0 0 0 0 
0 0 0 0 0 0 0 0 0 
0 0 0 0 0 0 0 0 0 
0 0 0 0 0 0 0 0 0 
0 0 0 0 0 0 0 0 0 
0 0 0 0 0 0 0 0 0 
0 0 0 0 0 0 0 0 0 
0 0 0 0 0 0 0 0 0 
0 0 0 0 0 0 0 0 0 
0 0 0 0 0 0 0 0 0 
0 0 0 0 0 0 0 0 0 
0 0 0 0 0 0 0 0 0 
0 0 0 0 0 0 0 0 0 
0 0 0 
NORMALS Normals float
0.145587 0.229207 0.962429 0.0646466 0.204373 0.976756 0.0212749 0.280893 0.959503 
-0.0623061 0.235828 0.969795 -0.273632 0.317471 0.907931 0.084013 0.220991 0.97165 
0.119741 0.356361 0.926644 0.0232592 0.517995 0.855068 -0.0512973 0.341616 0.938439 
-0.0277592 0.320068 0.946988 -0.010935 0.126067 0.991961 0.0680562 -0.0226814 0.997424 
0.152202 0.0101688 0.988297 0.0248839 0.0716326 0.997121 -0.116291 0.0598806 0.991409 
-0.175861 0.0899216 0.980299 0.201131 0.088597 0.975549 0.0565143 0.0670758 0.996146 
0.172901 0.0425237 0.984021 0.388484 0.188001 0.902073 -0.0520137 0.255941 0.965292 
-0.21151 0.155175 0.964979 -0.112274 0.161615 0.980446 -0.231013 0.0223934 0.972693 
0.0157849 -0.0909085 0.995734 0.169946 -0.0298459 0.985001 0.0775144 -0.0228414 0.99673 
-0.0402828 -0.00629245 0.999169 -0.181145 -0.00457453 0.983446 -0.474928 -0.0387625 0.879171 
0.206933 -0.0762816 0.975377 0.0572794 -0.0494325 0.997134 0.167591 0.00798146 0.985824 
0.398586 -0.108118 0.910736 -0.0401852 -0.182003 0.982476 -0.181242 -0.0595106 0.981636 
-0.137137 -0.0526303 0.989153 -0.293296 0.000127733 0.956022 0.0418715 0.0286729 0.998711 
0.210213 -0.0444366 0.976645 0.0467325 -0.0863013 0.995172 -0.0952914 -0.121663 0.987987 
-0.216281 -0.19695 0.95626 0.143861 -0.122928 0.981933 0.155538 -0.0334659 0.987263 
0.184322 -0.109294 0.97677 0.0138907 -0.232388 0.972524 -0.0764183 -0.0595093 0.995298 
-0.0803389 -0.106525 0.991059 -0.1411 0.0127396 0.989913 -0.032195 0.046353 0.998406 
0.0521828 -0.10849 0.992727 0.00283914 -0.25746 0.966285 -0.153346 -0.293882 0.943461 
0.19911 -0.232933 0.951892 0.178165 -0.171239 0.968986 0.0525664 -0.15362 0.986731 
-0.0488965 -0.0601716 0.99699 -0.0883282 -0.100014 0.991058 -0.111057 -0.0823463 0.990397 
-0.103251 -0.113872 0.988116 -0.0983192 -0.251116 0.962951 0.1335 -0.390313 0.910952 
-0.0190288 -0.331185 0.943374 -0.102518 -0.302611 0.947585 -0.153425 -0.296404 0.942659 
0.0830104 0.690861 0.718207 0.0871296 0.647121 0.757392 0.106361 0.677046 0.728214 
0.140834 0.712816 0.687065 0.151854 0.320095 0.935136 0.143174 0.680001 0.719096 
0.0678589 0.445032 0.89294 0.0715809 0.621931 0.779794 0.0134173 0.445127 0.895367 
0.00763146 0.619879 0.78466 -0.112828 0.534468 0.837624 -0.147561 0.66663 0.730637 
-0.31559 0.402863 0.85913 -0.404214 0.73369 0.546177 0.391225 0.541745 0.743945 
0.235642 0.495228 0.836195 0.105507 0.459168 0.882062 0.0762406 0.260136 0.962557 
0.0486971 0.463879 0.884559 0.0838818 0.385201 0.919012 0.0441737 0.479989 0.876162 
0.0170098 0.496823 0.867685 0.0138983 0.495907 0.868264 -0.0141847 0.380024 0.924868 
0.0207132 0.435295 0.90005 0.0367998 0.34893 0.936426 0.0913722 0.383711 0.918922 
0.138525 0.267914 0.953432 0.103272 0.246278 0.963682 0.132864 0.288709 0.948153 
-0.353207 0.362181 0.862595 -0.581556 0.523893 0.622358 0.564589 0.34648 0.749127 
0.342773 0.282096 0.896062 0.19541 0.131301 0.971892 0.175994 0.273109 0.945747 
0.0988001 0.231473 0.967811 0.0974304 0.214348 0.971886 0.103901 0.235052 0.966414 
-0.464864 0.196054 0.863402 -0.510925 0.128489 0.849968 -0.537363 0.22264 0.813433 
0.556223 0.0765638 0.827499 0.223534 0.0814189 0.97129 0.348918 0.0439249 0.936123 
-0.528095 -0.0340764 0.848502 -0.518419 -0.157946 0.840414 0.560286 -0.0965823 0.822649 
0.226145 -0.0687973 0.971661 0.352224 -0.0305252 0.935418 0.195205 -0.120546 0.973326 
-0.443836 -0.276594 0.852353 -0.303137 -0.312478 0.900259 -0.591091 -0.317475 0.741499 
0.613814 -0.373284 0.695623 0.368014 -0.253633 0.894559 0.146037 -0.139 0.979465 
0.168639 -0.242423 0.955402 0.159927 -0.14969 0.975713 -0.0997272 -0.355493 0.929343 
-0.269914 -0.344343 0.899207 -0.182846 -0.389324 0.90277 -0.366489 -0.400265 0.839925 
-0.726986 -0.509181 0.460681 0.48319 -0.545332 0.684938 0.326067 -0.410485 0.851577 
0.217439 -0.264244 0.939625 0.248514 -0.319957 0.914258 0.217702 -0.297072 0.929706 
0.261188 -0.440086 0.859131 -0.143531 -0.230237 0.962491 -0.105005 -0.27187 0.956588 
-0.104517 -0.261469 0.959536 -0.15305 -0.410575 0.89889 -0.278293 -0.582274 0.763878 
-0.485492 -0.735543 0.472519 0.27843 -0.708847 0.648084 0.299472 -0.604722 0.737989 
0.25518 -0.456165 0.852523 0.269522 -0.469431 0.840829 0.153381 -0.53257 0.832372 
0.0108117 -0.522142 0.85279 -0.0832182 -0.431765 0.898139 -0.161808 -0.314719 0.935292 
-0.155629 -0.328234 0.931688 -0.199623 -0.389375 0.899187 -0.283583 -0.571388 0.770127 
-0.339777 -0.738501 0.582381 0.194663 -0.889654 0.413064 0.0865286 -0.828391 0.553427 
-0.0129589 -0.758655 0.651363 -0.174122 -0.740511 0.649096 -0.320832 -0.801207 0.505108 
0.0854331 0.710353 0.698641 0.0829501 0.71343 0.6958 0.0757049 0.794174 0.602956 
0.106903 0.896733 0.429466 0.120367 0.924507 0.361662 0.0707135 0.931339 0.357222 
-0.0470004 0.951684 0.303462 -0.199702 0.916727 0.346021 -0.393382 0.845077 0.362071 
0.394162 0.557098 0.730944 0.249267 0.612835 0.749866 0.265118 0.725778 0.63479 
0.10714 0.703751 0.702322 0.0952716 0.758025 0.64523 0.0524601 0.717965 0.694099 
0.0518685 0.738439 0.672322 0.0553016 0.718507 0.693317 0.0491407 0.719396 0.692859 
0.04956 0.725701 0.686223 -0.492929 0.789954 0.364684 -0.635096 0.682941 0.360895 
0.41179 0.546805 0.728994 0.575118 0.4018 0.712598 0.684017 0.577009 0.446298 
-0.79165 0.524521 0.313318 0.609084 0.351879 0.710773 -0.930112 0.168058 0.326571 
0.678256 0.0802443 0.730432 -0.935373 -0.0576245 0.348936 0.687501 -0.111364 0.717593 
-0.863855 -0.341425 0.370384 0.635036 -0.381705 0.671588 0.620441 -0.415785 0.664963 
-0.777846 -0.509666 0.36769 -0.743262 -0.548709 0.382728 0.509732 -0.555055 0.657334 
0.498052 -0.563581 0.65903 0.365129 -0.703586 0.609629 -0.396182 -0.771822 0.497324 
-0.524712 -0.745049 0.4118 -0.501359 -0.755417 0.421882 0.33166 -0.740325 0.584739 
0.377033 -0.797187 0.471529 0.287156 -0.762468 0.579814 0.286657 -0.826075 0.485208 
0.265738 -0.885342 0.381513 -0.365963 -0.762029 0.534212 -0.365793 -0.781729 0.505069 
-0.356492 -0.77809 0.517195 0.226283 -0.912945 0.339598 0.235135 -0.959608 0.154478 
0.20148 -0.924497 0.323591 0.12812 -0.930177 0.34403 0.0211134 -0.914476 0.40409 
-0.16536 -0.875055 0.454901 -0.326965 -0.809251 0.488064 -0.320722 -0.812456 0.486881 
0.264605 0.861934 0.432498 0.0815623 0.868397 0.489117 0.0367028 0.888288 0.457818 
-0.00669136 0.988335 0.152146 0.0572182 0.908027 0.414985 0.0629862 0.93963 0.336344 
-0.0362692 0.965956 0.256152 -0.141764 0.981802 0.126365 -0.0643465 0.996238 -0.0580498 
0.108566 0.985495 -0.130431 0.073298 0.99216 -0.101227 -0.0348996 0.997586 -0.060037 
-0.16299 0.978173 -0.128888 -0.421216 0.895516 -0.143623 0.684256 0.620946 0.382386 
0.429454 0.795173 0.428099 0.455718 0.781377 0.426345 0.475579 0.814359 0.332631 
-0.574332 0.800997 -0.168958 -0.441506 0.702242 -0.558506 -0.704257 0.685206 -0.185781 
0.73125 0.571082 0.373013 -0.855886 0.459477 -0.237361 0.879249 0.357655 0.31465 
-0.934764 0.196035 -0.296287 0.962823 0.0557009 0.264329 -0.957822 -0.0603265 -0.280958 
0.958901 -0.14853 0.24176 -0.916248 -0.303762 -0.261187 0.879095 -0.436385 0.191729 
0.763968 -0.613396 0.200247 -0.863279 -0.472543 -0.177349 -0.812029 -0.561469 -0.159252 
-0.802935 -0.45414 -0.386073 0.744562 -0.6349 0.206228 0.523293 -0.836074 0.164755 
-0.468489 -0.880407 0.0734992 -0.684115 -0.725551 -0.0745841 -0.61059 -0.791535 -0.0255308 
0.444681 -0.886867 0.1254 0.374392 -0.921542 0.102915 0.267521 -0.95865 0.0970725 
0.228391 -0.97066 0.0752047 -0.401732 -0.909486 0.106993 -0.464247 -0.882265 0.077993 
-0.421178 -0.899472 0.116444 0.222437 -0.973216 0.0580751 0.220353 -0.973884 0.0547169 
0.206501 -0.95854 -0.196363 0.177468 -0.984058 0.0116169 0.138375 -0.989778 -0.0345124 
0.0698353 -0.996666 -0.042192 -0.100669 -0.994811 -0.0147561 -0.389623 -0.915781 0.0976664 
-0.297942 -0.953127 0.0527158 -0.0072296 0.989067 0.14729 0.501828 0.862286 0.0680502 
0.296791 0.950552 0.091467 0.011049 0.988725 0.149333 0.127684 0.978855 0.159811 
-0.0117526 0.990009 0.140515 -0.010834 0.993601 0.112428 -0.0496731 0.995853 0.0762191 
-0.0522519 0.997975 -0.0362803 -0.145295 0.983622 -0.106664 -0.286912 0.9447 -0.158817 
-0.188015 0.955044 -0.22922 0.0485901 0.943438 -0.32797 0.118825 0.896665 -0.426465 
-0.0785267 0.90101 -0.426631 -0.259486 0.80462 -0.534092 0.592297 0.805108 0.03139 
0.750485 0.657684 -0.06499 -0.0516283 0.894421 -0.444237 -0.00910959 0.832538 -0.553893 
-0.104125 0.728074 -0.677544 -0.367589 0.706688 -0.604542 -0.273153 0.750117 -0.602256 
-0.431563 0.619348 -0.655867 -0.606541 0.423084 -0.673133 0.830823 0.545057 -0.112452 
0.796833 0.40964 -0.444131 -0.315422 0.263073 -0.911757 -0.459964 0.344432 -0.818413 
-0.611596 0.415832 -0.673078 -0.605428 0.415621 -0.678761 0.940618 0.270341 -0.205314 
-0.424466 0.0876167 -0.901195 -0.714829 0.156173 -0.681637 -0.62434 0.148364 -0.766934 
0.973541 0.0211248 -0.227535 -0.413726 0.016355 -0.910254 -0.757263 -0.0326118 -0.652296 
-0.595459 -0.0197139 -0.803144 0.931541 -0.190364 -0.309826 0.593358 -0.222219 -0.773657 
-0.464085 -0.0995773 -0.880176 -0.72619 -0.259584 -0.636604 -0.698162 -0.324167 -0.638345 
-0.665452 -0.24859 -0.70383 0.822712 -0.438023 -0.362327 0.752752 -0.560611 -0.345078 
0.692059 -0.38929 -0.607871 -0.670493 -0.380426 -0.636958 -0.584901 -0.239594 -0.77491 
0.711884 -0.615837 -0.337589 0.484045 -0.810856 -0.328958 0.484232 -0.604864 -0.632186 
-0.559438 -0.758336 -0.334597 -0.526083 -0.402778 -0.749004 -0.675221 -0.585234 -0.448974 
-0.672874 -0.590438 -0.445673 -0.673597 -0.581648 -0.456019 0.379304 -0.861563 -0.337398 
0.346739 -0.872527 -0.344193 0.342223 -0.833023 -0.43469 0.278196 -0.904611 -0.322932 
0.26451 -0.76826 -0.582933 0.247144 -0.924121 -0.29141 0.200691 -0.943653 -0.26314 
-0.325367 -0.907658 -0.265129 -0.521126 -0.800931 -0.29485 -0.436239 -0.859813 -0.265362 
-0.412224 -0.720546 -0.55757 0.190932 -0.944727 -0.266527 0.111416 -0.94494 -0.307692 
0.0927694 -0.905147 -0.414853 0.0664538 -0.920373 -0.385352 0.0363686 -0.86041 -0.508303 
0.044113 -0.892046 -0.449786 0.0295622 -0.809361 -0.586568 -0.0573932 -0.899516 -0.433102 
-0.0276503 -0.81306 -0.581523 -0.273262 -0.914958 -0.29695 -0.2101 -0.915805 -0.342285 
-0.179788 -0.878279 -0.44306 0.574733 0.681198 -0.453488 0.342762 0.872909 -0.347196 
0.144074 0.944312 -0.295835 -0.0522821 0.947046 -0.316814 -0.140139 0.909313 -0.391806 
-0.132809 0.858452 -0.4954 -0.146328 0.824347 -0.546846 -0.243083 0.808782 -0.535521 
-0.209446 0.84128 -0.498378 0.583162 0.672055 -0.45636 0.575042 0.668801 -0.471203 
0.343485 0.529772 -0.775474 -0.177956 0.531961 -0.827858 -0.165649 0.544084 -0.822517 
-0.130569 0.581384 -0.803084 -0.206516 0.671839 -0.711325 -0.199287 0.841368 -0.502378 
-0.208094 0.835582 -0.508429 -0.11326 0.815721 -0.567249 -0.109538 0.711257 -0.694345 
-0.188456 0.511518 -0.838352 0.734232 0.329779 -0.593421 0.72336 0.227377 -0.651959 
0.504579 0.312845 -0.804691 -0.0968002 0.253944 -0.962363 -0.0902276 0.170897 -0.981149 
-0.0572614 0.264969 -0.962555 -0.0857754 0.405626 -0.910006 -0.183949 0.372166 -0.909756 
-0.304594 0.270284 -0.913328 -0.269947 0.351582 -0.896392 -0.334329 0.193413 -0.922397 
0.705487 0.157435 -0.691016 0.677929 0.146847 -0.720311 0.362712 0.0511546 -0.930496 
-0.186411 0.104344 -0.976915 0.0498201 0.0349416 -0.998147 -0.00782797 0.0451838 -0.998948 
-0.188216 0.0714466 -0.979525 -0.292793 0.0805872 -0.952774 -0.383614 0.0769134 -0.920285 
-0.371032 0.0865916 -0.924574 0.666569 -0.0528644 -0.743567 0.592877 -0.217088 -0.77548 
0.598022 -0.0707112 -0.798355 0.308599 -0.151285 -0.939084 -0.100187 0.0556428 -0.993411 
-0.0451496 -0.0115723 -0.998913 -0.161534 0.0430974 -0.985926 -0.269847 0.0447458 -0.961863 
-0.361021 0.0272787 -0.932159 -0.33272 0.0381875 -0.942252 0.590064 -0.221252 -0.776448 
0.373241 -0.194108 -0.907201 0.239373 -0.180079 -0.954082 -0.163237 -0.0210018 -0.986363 
-0.0213379 0.0479206 -0.998623 -0.130596 0.0772651 -0.98842 -0.27511 0.0799274 -0.958084 
-0.428967 -0.0337326 -0.90269 -0.406085 -0.0090114 -0.913791 0.54031 -0.343272 -0.768264 
0.453872 -0.471094 -0.756353 0.408491 -0.311472 -0.857974 0.270053 -0.273163 -0.923284 
0.203145 -0.244064 -0.948243 -0.139672 -0.255402 -0.956693 -0.0201288 -0.0937838 -0.995389 
0.0559184 -0.0386052 -0.997689 -0.126675 -0.0479361 -0.990785 -0.350723 -0.057061 -0.934739 
-0.497042 -0.126982 -0.858385 -0.501593 -0.250038 -0.828182 -0.479178 -0.12061 -0.869392 
0.405696 -0.543429 -0.734912 0.330088 -0.598283 -0.730137 0.311003 -0.504552 -0.805421 
0.245547 -0.674955 -0.695803 0.196845 -0.467052 -0.862041 0.121212 -0.439442 -0.890055 
0.0140667 -0.399187 -0.916762 -0.0234844 -0.303531 -0.952532 -0.0344603 -0.318757 -0.94721 
-0.0511942 -0.30461 -0.9511 0.0394921 -0.2124 -0.976384 0.0237455 -0.224961 -0.974078 
-0.143056 -0.280483 -0.949139 -0.489329 -0.370644 -0.789418 -0.398885 -0.59967 -0.693748 
-0.358075 -0.324416 -0.875521 0.211538 -0.691403 -0.690807 0.195119 -0.693122 -0.69391 
0.185156 -0.668202 -0.720571 0.141425 -0.674565 -0.724542 0.112767 -0.573829 -0.811175 
0.0388928 -0.663174 -0.747454 0.027286 -0.510347 -0.859535 -0.0226723 -0.638856 -0.768993 
-0.0352957 -0.515141 -0.856379 -0.00459866 -0.595555 -0.803302 -0.0154803 -0.49206 -0.870424 
0.0233961 -0.591531 -0.805943 0.0451743 -0.461869 -0.885797 -0.0754574 -0.673345 -0.735468 
-0.0359362 -0.521194 -0.852681 -0.323826 -0.656875 -0.68092 -0.242728 -0.679601 -0.692261 
-0.227297 -0.611687 -0.757743 0.108166 0.457547 -0.882582 -0.0454339 0.475256 -0.878674 
0.131798 0.451208 -0.882633 0.301945 0.294316 -0.906756 0.108207 0.447279 -0.887825 
-0.0975352 0.475815 -0.874121 -0.0427827 0.444263 -0.894874 -0.168585 0.42184 -0.890859 
-0.162702 0.201949 -0.965787 0.327845 0.190636 -0.925297 0.274916 0.156927 -0.948575 
0.0722156 0.108182 -0.991505 -0.0232071 0.115439 -0.993043 -0.130427 0.0941369 -0.986979 
-0.15217 0.197561 -0.968408 -0.161319 0.188263 -0.968779 -0.123664 0.225812 -0.96629 
0.303709 0.0271294 -0.952379 0.183994 -0.0440006 -0.981942 0.0622413 -0.0404903 -0.997239 
-0.0594476 -0.053112 -0.996817 -0.100515 -0.0434577 -0.993986 -0.0267974 0.0324776 -0.999113 
-0.166063 0.175377 -0.970395 -0.149091 0.201387 -0.968099 -0.268126 0.207643 -0.94074 
0.209585 -0.137262 -0.968108 0.207144 -0.146891 -0.96722 0.196484 -0.132515 -0.971511 
0.0677736 -0.0955504 -0.993115 -0.0216578 -0.0518098 -0.998422 -0.0521969 0.0467074 -0.997544 
0.087219 0.0332524 -0.995634 0.000191332 0.0594893 -0.998229 -0.253787 0.196086 -0.947176 
-0.282466 0.223733 -0.932822 0.185472 -0.152886 -0.970683 0.175215 -0.187774 -0.966458 
0.143078 -0.128977 -0.981272 0.080652 -0.0434924 -0.995793 -0.0143674 0.0103575 -0.999843 
-0.0152025 -0.032161 -0.999367 0.0244474 -0.145532 -0.989051 -0.182128 -0.0304124 -0.982804 
-0.150035 -0.221789 -0.963483 -0.196294 -0.051019 -0.979217 0.164755 -0.229666 -0.959223 
0.118666 -0.272581 -0.954787 0.115774 -0.210312 -0.970755 -0.0183932 -0.299426 -0.953942 
-0.0398399 -0.205923 -0.977757 -0.0654376 -0.202164 -0.977163 -0.0674693 -0.196184 -0.978243 
-0.0687811 -0.23505 -0.969547 -0.0275414 -0.230022 -0.972796 -0.0265861 -0.221747 -0.974742 

