# vtk DataFile Version 4.2
vtk output
ASCII
DATASET POLYDATA
POINTS 554 float
15.9683 24.6173 -20.5847 8.03392 -38.8577 -12.8191 15.9683 -38.8577 -13.0833 
0.0995539 -30.9233 -15.1317 8.03392 -30.9233 -16.5842 15.9683 -30.9233 -16.2777 
23.9027 -30.9233 -15.6956 31.837 -30.9233 -14.0843 -39.5723 -22.989 -12.7541 
-31.6379 -22.989 -13.4624 -23.7036 -22.989 -13.9741 -15.7692 -22.989 -13.1899 
-7.83482 -22.989 -14.4466 0.0995539 -22.989 -16.7582 8.03392 -22.989 -17.549 
15.9683 -22.989 -17.7943 23.9027 -22.989 -17.9811 31.837 -22.989 -16.7381 
39.7714 -22.989 -14.8789 -47.5067 -15.0546 -13.6215 -39.5723 -15.0546 -15.6337 
-31.6379 -15.0546 -16.3429 -23.7036 -15.0546 -16.2464 -15.7692 -15.0546 -15.8916 
-7.83482 -15.0546 -16.3657 0.0995539 -15.0546 -17.816 8.03392 -15.0546 -17.9991 
15.9683 -15.0546 -18.4068 23.9027 -15.0546 -18.6942 31.837 -15.0546 -18.2556 
39.7714 -15.0546 -17.149 47.7058 -15.0546 -14.4069 -47.5067 -7.12022 -15.7056 
-39.5723 -7.12022 -17.126 -31.6379 -7.12022 -17.781 -23.7036 -7.12022 -17.1719 
-15.7692 -7.12022 -17.6342 -7.83482 -7.12022 -19.3948 0.0995539 -7.12022 -16.7638 
8.03392 -7.12022 -19.3425 15.9683 -7.12022 -19.5158 23.9027 -7.12022 -18.8224 
31.837 -7.12022 -18.7427 39.7714 -7.12022 -18.1698 47.7058 -7.12022 -16.471 
55.6401 -7.12022 -12.8888 -55.441 0.814153 -12.7655 -47.5067 0.814153 -16.1445 
-39.5723 0.814153 -17.6934 -31.6379 0.814153 -17.7611 -23.7036 0.814153 -16.8575 
-15.7692 0.814153 -16.1917 -7.83482 0.814153 -19.301 0.0995539 0.814153 -15.8473 
8.03392 0.814153 -19.6007 15.9683 0.814153 -19.2224 23.9027 0.814153 -18.9417 
31.837 0.814153 -19.3282 39.7714 0.814153 -19.1856 47.7058 0.814153 -18.0004 
55.6401 0.814153 -15.2158 -47.5067 8.74852 -16.5657 -39.5723 8.74852 -18.3493 
-31.6379 8.74852 -18.6494 -23.7036 8.74852 -17.7234 -15.7692 8.74852 -16.7204 
-7.83482 8.74852 -17.9416 0.0995539 8.74852 -20.1284 8.03392 8.74852 -18.4818 
15.9683 8.74852 -17.8837 23.9027 8.74852 -19.0406 31.837 8.74852 -19.8851 
39.7714 8.74852 -19.984 47.7058 8.74852 -19.2573 55.6401 8.74852 -17.7732 
-47.5067 16.6829 -16.4609 -39.5723 16.6829 -18.824 -31.6379 16.6829 -20.1987 
-23.7036 16.6829 -19.3834 -15.7692 16.6829 -18.6508 -7.83482 16.6829 -18.2145 
0.0995539 16.6829 -19.3447 8.03392 16.6829 -19.0246 15.9683 24.4864 -20.5577 
15.9683 16.6829 -18.9446 23.9027 16.6829 -19.8415 31.837 16.6829 -20.1297 
39.7714 16.6829 -19.9411 47.7058 16.6829 -19.3591 55.6401 16.6829 -15.3115 
-47.5067 24.6173 -14.4237 -39.5723 24.6173 -18.1066 -31.6379 24.6173 -19.5592 
-23.7036 24.6173 -19.6967 -15.7692 24.6173 -19.6472 -7.83482 24.6173 -19.052 
0.0995539 24.6173 -20.0165 14.6122 24.6173 -20.5577 8.03392 24.6173 -20.427 
16.2437 24.6173 -20.5577 15.9683 25.1288 -20.5577 23.9027 24.6173 -19.8089 
31.837 24.6173 -19.9469 39.7714 24.6173 -20.5292 47.7058 24.6173 -17.1963 
-39.5723 32.5516 -14.6973 -31.6379 32.5516 -17.8364 -23.7036 32.5516 -18.4166 
-15.7692 32.5516 -18.6427 -7.83482 32.5516 -18.431 0.0995539 32.5516 -19.4397 
8.03392 32.5516 -20.3771 15.9683 32.5516 -20.1858 23.9027 32.5516 -19.4206 
31.837 32.5516 -18.9455 39.7714 32.5516 -16.5808 -15.7692 40.486 -13.1768 
-7.83482 40.486 -13.7476 0.0995539 40.486 -15.3004 8.03392 40.486 -17.1151 
15.9683 40.486 -18.1493 23.9027 40.486 -15.6898 8.03392 -39.0971 -12.6233 
15.9683 -39.4471 -12.6233 -7.83482 -38.8577 -7.05767 7.0809 -38.8577 -12.6233 
0.0995539 -36.1398 -12.6233 0.0995539 -38.8577 -10.8488 18.0968 -38.8577 -12.6233 
23.9027 -36.7257 -12.6233 23.9027 -38.8577 -10.8725 31.837 -33.0852 -12.6233 
31.837 -38.8577 -6.35143 -39.5723 -23.203 -12.6233 -39.5723 -30.9233 -5.9961 
-31.6379 -24.3821 -12.6233 -31.6379 -30.9233 -8.31005 -23.7036 -25.4589 -12.6233 
-23.7036 -30.9233 -9.01632 -15.7692 -24.6163 -12.6233 -15.7692 -30.9233 -10.1248 
-7.14886 -30.9233 -12.6233 -7.83482 -30.0346 -12.6233 -7.83482 -30.9233 -12.3766 
34.8358 -30.9233 -12.6233 39.7714 -26.8828 -12.6233 39.7714 -30.9233 -8.94858 
-40.2088 -22.989 -12.6233 -47.5067 -17.9894 -12.6233 -47.5067 -22.989 -10.1658 
43.7812 -22.989 -12.6233 47.7058 -18.6107 -12.6233 47.7058 -22.989 -9.35586 
-49.6936 -15.0546 -12.6233 -55.441 -15.0546 -9.39577 51.6115 -15.0546 -12.6233 
55.6401 -7.95471 -12.6233 55.6401 -15.0546 -9.66502 -53.4045 -7.12022 -12.6233 
-55.441 0.10838 -12.6233 -55.441 -7.12022 -11.1266 56.0486 -7.12022 -12.6233 
-55.6275 0.814153 -12.6233 -55.441 3.69301 -12.6233 59.1145 0.814153 -12.6233 
63.5745 0.814153 -7.24634 -55.0415 8.74852 -12.6233 -55.441 8.74852 -12.3571 
61.9161 8.74852 -12.6233 63.5745 8.74852 -9.80624 -53.5753 16.6829 -12.6233 
-55.441 16.6829 -10.8112 58.7607 16.6829 -12.6233 55.6401 23.2408 -12.6233 
-50.5566 24.6173 -12.6233 -55.441 24.6173 -5.41934 -47.5067 28.0608 -12.6233 
55.0185 24.6173 -12.6233 47.7058 31.8826 -12.6233 55.6401 24.6173 -11.3949 
-43.1691 32.5516 -12.6233 -47.5067 32.5516 -6.81699 -39.5723 34.9628 -12.6233 
-31.6379 38.3181 -12.6233 -23.7036 40.1397 -12.6233 31.837 40.3664 -12.6233 
46.8959 32.5516 -12.6233 39.7714 36.8192 -12.6233 47.7058 32.5516 -10.3063 
-20.4027 40.486 -12.6233 -23.7036 40.486 -11.3443 -15.7692 40.8748 -12.6233 
-7.83482 41.2162 -12.6233 0.0995539 42.7115 -12.6233 8.03392 44.3432 -12.6233 
15.9683 44.4403 -12.6233 31.5785 40.486 -12.6233 23.9027 42.9716 -12.6233 
31.837 40.486 -11.6819 -7.83482 -40.9507 -4.68892 0.0995539 -43.6785 -4.68892 
8.03392 -45.2016 -4.68892 8.03392 -46.7921 3.02753 15.9683 -45.2729 -4.68892 
23.9027 -43.5732 -4.68892 31.837 -39.9199 -4.68892 -39.5723 -31.9232 -4.68892 
-31.6379 -34.0592 -4.68892 -23.7036 -35.6251 -4.68892 -23.7036 -38.8577 1.7973 
-13.6698 -38.8577 -4.68892 -15.7692 -37.9016 -4.68892 -15.7692 -38.8577 -3.40654 
33.4307 -38.8577 -4.68892 39.7714 -34.1279 -4.68892 -42.0217 -30.9233 -4.68892 
-47.5067 -27.8761 -4.68892 43.6095 -30.9233 -4.68892 47.7058 -27.1251 -4.68892 
-53.9488 -22.989 -4.68892 -55.441 -21.5081 -4.68892 -55.441 -22.989 -0.770403 
51.9624 -22.989 -4.68892 55.6401 -19.2847 -4.68892 -59.2399 -15.0546 -4.68892 
58.9141 -15.0546 -4.68892 -61.6694 -7.12022 -4.68892 62.8785 -7.12022 -4.68892 
63.5745 -4.65331 -4.68892 -63.2433 0.814153 -4.68892 -63.3754 0.814153 -3.62274 
64.7788 0.814153 -4.68892 -62.0437 8.74852 -4.68892 65.333 8.74852 -4.68892 
63.5745 15.0734 -4.68892 63.5745 8.74852 0.921932 -59.9566 16.6829 -4.68892 
63.1135 16.6829 -4.68892 -55.7336 24.6173 -4.68892 -55.441 24.9904 -4.68892 
-55.441 24.6173 1.9556 58.3428 24.6173 -4.68892 55.6401 27.6305 -4.68892 
55.6401 24.6173 -0.100295 -48.5131 32.5516 -4.68892 -47.5067 33.3829 -4.68892 
-47.5067 32.5516 1.43403 -39.5723 37.778 -4.68892 -31.6379 40.2237 -4.68892 
39.7714 37.5946 -4.68892 49.5112 32.5516 -4.68892 47.7058 33.8047 -4.68892 
47.7058 32.5516 -2.50401 -30.3923 40.486 -4.68892 -23.7036 41.8634 -4.68892 
-23.7036 40.486 -1.21463 -15.7692 41.8016 -4.68892 -15.7692 40.486 -1.03438 
-7.83482 41.8677 -4.68892 -7.83482 40.486 -1.53871 0.0995539 42.9931 -4.68892 
0.0995539 40.486 0.238559 8.03392 44.2788 -4.68892 8.03392 40.486 1.80558 
15.9683 44.4346 -4.68892 15.9683 40.486 1.50645 23.9027 43.1078 -4.68892 
23.9027 40.486 -0.515233 33.2582 40.486 -4.68892 31.837 41.1289 -4.68892 
31.837 40.486 -3.53216 8.03392 -46.8322 3.24545 -23.7036 -39.4412 3.24545 
-15.7692 -42.1886 3.24545 -7.83482 -44.4192 3.24545 7.64154 -46.7921 3.24545 
0.0995539 -46.0049 3.24545 9.86518 -46.7921 3.24545 8.03392 -46.7921 3.57997 
15.9683 -46.6543 3.24545 23.9027 -44.7422 3.24545 31.837 -40.3903 3.24545 
-39.5723 -34.2684 3.24545 -25.5779 -38.8577 3.24545 -31.6379 -36.9711 3.24545 
33.9797 -38.8577 3.24545 31.837 -38.8577 6.62998 39.7714 -34.4206 3.24545 
-55.441 -23.9403 3.24545 -46.9279 -30.9233 3.24545 -47.5067 -30.6133 3.24545 
43.9275 -30.9233 3.24545 39.7714 -30.9233 9.00667 47.7058 -27.6681 3.24545 
-56.2979 -22.989 3.24545 -55.441 -22.989 5.91223 52.5875 -22.989 3.24545 
47.7058 -22.989 10.1615 55.6401 -19.4601 3.24545 -61.0847 -15.0546 3.24545 
58.9599 -15.0546 3.24545 55.6401 -15.0546 8.53318 -63.2643 -7.12022 3.24545 
-63.3754 -6.02596 3.24545 62.6277 -7.12022 3.24545 63.5745 0.541898 3.24545 
-64.0647 0.814153 3.24545 -63.3754 6.28606 3.24545 -63.3754 0.814153 5.29396 
63.6058 0.814153 3.24545 63.5745 1.13132 3.24545 63.5745 0.814153 3.2912 
-63.0652 8.74852 3.24545 62.5017 8.74852 3.24545 55.6401 8.74852 9.78501 
-60.0956 16.6829 3.24545 -55.441 24.5257 3.24545 59.7238 16.6829 3.24545 
55.6401 22.0939 3.24545 55.6401 16.6829 7.15055 -55.3696 24.6173 3.24545 
-47.5067 32.2409 3.24545 39.7714 24.6173 10.3056 52.376 24.6173 3.24545 
47.7058 28.2018 3.24545 47.7058 24.6173 6.25476 -46.9387 32.5516 3.24545 
-39.5723 35.8825 3.24545 -39.5723 32.5516 8.36649 -31.6379 37.8269 3.24545 
-31.6379 32.5516 10.9371 -23.7036 38.5368 3.24545 -23.7036 32.5516 10.9399 
-15.7692 38.5846 3.24545 -15.7692 32.5516 10.3115 -7.83482 38.1503 3.24545 
-7.83482 32.5516 9.66852 0.0995539 38.6847 3.24545 0.0995539 32.5516 9.69334 
8.03392 39.4592 3.24545 8.03392 32.5516 9.92108 15.9683 39.1716 3.24545 
15.9683 32.5516 9.44557 23.9027 37.7142 3.24545 23.9027 32.5516 8.00419 
31.837 35.7287 3.24545 31.837 32.5516 6.29938 42.0578 32.5516 3.24545 
39.7714 34.1173 3.24545 39.7714 32.5516 4.5719 -23.7036 -39.0394 11.1798 
-15.7692 -41.7508 11.1798 -7.83482 -44.2753 11.1798 0.0995539 -45.4858 11.1798 
8.03392 -45.7812 11.1798 15.9683 -44.7919 11.1798 23.9027 -41.7045 11.1798 
-39.5723 -31.89 11.1798 -24.145 -38.8577 11.1798 -31.6379 -35.5371 11.1798 
-23.7036 -38.8577 11.4818 -15.7692 -38.8577 15.5367 -7.83482 -38.8577 18.5968 
15.9683 -38.8577 17.737 28.2267 -38.8577 11.1798 23.9027 -38.8577 14.2552 
31.837 -35.9863 11.1798 -41.6685 -30.9233 11.1798 -47.5067 -27.2846 11.1798 
-39.5723 -30.9233 12.2891 -31.6379 -30.9233 16.4489 -23.7036 -30.9233 18.8673 
23.9027 -30.9233 18.9054 37.7625 -30.9233 11.1798 31.837 -30.9233 15.1237 
39.7714 -29.0321 11.1798 -52.5141 -22.989 11.1798 -55.441 -19.8124 11.1798 
-47.5067 -22.989 14.5182 -39.5723 -22.989 18.8786 31.837 -22.989 17.9657 
46.6135 -22.989 11.1798 39.7714 -22.989 15.0909 47.7058 -21.756 11.1798 
[...]
POINT_DATA 554
SCALARS ImageScalars float
LOOKUP_TABLE default
0 0 0 0 0 0 0 0 0 
0 0 0 0 0 0 0 0 0 
0 0 0 0 0 0 0 0 0 
0 0 0 0 0 0 0 0 0 
0 0 0 0 0 0 0 0 0 
0 0 0 0 0 0 0 0 0 
0 0 0 0 0 0 0 0 0 
0 0 0 0 0 0 0 0 0 
0 0 0 0 0 0 0 0 0 
0 0 0 0 0 0 0 0 0 
0 0 0 0 0 0 0 0 0 
0 0 0 0 0 0 0 0 0 
0 0 0 0 0 0 0 0 0 
0 0 0 0 0 0 0 0 0 
0 0 0 0 0 0 0 0 0 
0 0 0 0 0 0 0 0 0 
0 0 0 0 0 0 0 0 0 
0 0 0 0 0 0 0 0 0 
0 0 0 0 0 0 0 0 0 
0 0 0 0 0 0 0 0 0 
0 0 0 0 0 0 0 0 0 
0 0 0 0 0 0 0 0 0 
0 0 0 0 0 0 0 0 0 
0 0 0 0 0 0 0 0 0 
0 0 0 0 0 0 0 0 0 
0 0 0 0 0 0 0 0 0 
0 0 0 0 0 0 0 0 0 
0 0 0 0 0 0 0 0 0 
0 0 0 0 0 0 0 0 0 
0 0 0 0 0 0 0 0 0 
0 0 0 0 0 0 0 0 0 
0 0 0 0 0 0 0 0 0 
0 0 0 0 0 0 0 0 0 
0 0 0 0 0 0 0 0 0 
0 0 0 0 0 0 0 0 0 
0 0 0 0 0 0 0 0 0 
0 0 0 0 0 0 0 0 0 
0 0 0 0 0 0 0 0 0 
0 0 0 0 0 0 0 0 0 
0 0 0 0 0 0 0 0 0 
0 0 0 0 0 0 0 0 0 
0 0 0 0 0 0 0 0 0 
0 0 0 0 0 0 0 0 0 
0 0 0 0 0 0 0 0 0 
0 0 0 0 0 0 0 0 0 
0 0 0 0 0 0 0 0 0 
0 0 0 0 0 0 0 0 0 
0 0 0 0 0 0 0 0 0 
0 0 0 0 0 0 0 0 0 
0 0 0 0 0 0 0 0 0 
0 0 0 0 0 0 0 0 0 
0 0 0 0 0 0 0 0 0 
0 0 0 0 0 0 0 0 0 
0 0 0 0 0 0 0 0 0 
0 0 0 0 0 0 0 0 0 
0 0 0 0 0 0 0 0 0 
0 0 0 0 0 0 0 0 0 
0 0 0 0 0 0 0 0 0 
0 0 0 0 0 0 0 0 0 
0 0 0 0 0 0 0 0 0 
0 0 0 0 0 0 0 0 0 
0 0 0 0 0 
NORMALS Normals float
-0.0404463 0.0795362 0.996011 0.104523 0.590288 0.800397 -0.0851154 0.56232 0.822527 
0.249942 0.307799 0.918035 0.0650237 0.256824 0.964268 -0.0549415 0.274214 0.960098 
-0.125016 0.363873 0.923021 -0.310153 0.466721 0.828237 0.135125 0.460659 0.877231 
0.075516 0.437556 0.896015 -0.0190131 0.399565 0.916508 0.0262236 0.330768 0.943348 
0.219177 0.235497 0.946838 0.186763 0.159076 0.96944 0.0631768 0.0863093 0.994263 
0.0267316 0.129502 0.991219 -0.0662214 0.183759 0.980738 -0.183151 0.2428 0.95263 
-0.3541 0.370367 0.858744 0.322001 0.297228 0.898872 0.146704 0.26807 0.952164 
0.035611 0.239221 0.970312 -0.0274901 0.196578 0.980103 0.00529063 0.263613 0.964614 
0.123107 0.308883 0.943099 0.0952967 0.00358421 0.995442 0.0368956 0.107325 0.993539 
0.0432786 0.105035 0.993526 -0.00853146 0.0512353 0.99865 -0.0920322 0.130018 0.987231 
-0.229898 0.197754 0.952911 -0.36651 0.334442 0.868228 0.315705 0.1293 0.940006 
0.132227 0.119623 0.983975 0.00779811 0.0864441 0.996226 -0.0117919 0.0384585 0.999191 
0.142195 0.020498 0.989626 -0.052423 0.172409 0.983629 -0.00820439 -0.116671 0.993137 
0.165428 0.102029 0.98093 -0.0340986 0.0528334 0.998021 -0.0470985 0.015483 0.99877 
-0.0405833 0.0662009 0.996981 -0.134844 0.120408 0.983524 -0.284515 0.21764 0.93364 
-0.513721 0.263171 0.816598 0.537584 0.0645882 0.840733 0.267649 0.055272 0.96193 
0.0942469 0.0775635 0.992523 -0.0525139 0.0545152 0.997131 -0.0985359 0.0363027 0.994471 
0.117785 -0.05223 0.991665 0.0296139 -0.0923804 0.995283 0.040115 0.256719 0.965653 
0.164837 -0.0553558 0.984766 -0.0399417 -0.104974 0.993673 0.00744252 0.0137295 0.999878 
0.0154566 0.0718074 0.997299 -0.0792508 0.113209 0.990405 -0.209432 0.164732 0.963847 
-0.479484 0.23204 0.846317 0.323093 0.01851 0.946186 0.123206 0.071405 0.989809 
-0.0388536 0.15021 0.98789 -0.12225 0.160913 0.979368 0.00465924 0.154199 0.988029 
0.231081 -0.0542942 0.971418 0.0233563 0.149407 0.9885 -0.143578 -0.0289982 0.989214 
0.0378675 -0.0140375 0.999184 0.123732 0.0563641 0.990714 0.059085 0.0503165 0.996984 
-0.0363624 0.0473271 0.998217 -0.117061 0.0854331 0.989443 -0.431434 0.0161986 0.901999 
0.400127 -0.11484 0.909236 0.228613 -0.0096413 0.97347 0.0383513 0.0593698 0.997499 
-0.0967828 0.124746 0.987457 -0.0733928 0.181637 0.980623 0.0443174 0.0683269 0.996678 
0.0518473 -0.00659393 0.998633 -0.0260433 0.124809 0.991839 -0.0389583 0.0810069 0.995952 
0.051593 0.160484 0.985689 0.0743752 0.0482239 0.996064 0.00647282 0.00418033 0.99997 
-0.0443528 0.0279388 0.998625 -0.235894 -0.145006 0.960899 -0.568164 -0.253027 0.78305 
0.476723 -0.358205 0.80276 0.306542 -0.233923 0.922666 0.0901296 -0.129748 0.987442 
0.00529846 -0.0596588 0.998205 -0.041133 0.00592196 0.999136 0.0239444 0.0140908 0.999614 
0.0865491 0.00500864 0.996235 -0.0270298 0.0797295 0.99645 0.034922 0.0806485 0.996131 
-0.0404119 0.0759224 0.996294 -0.0413965 0.0674594 0.996863 -0.0368419 -0.0246041 0.999018 
0.0397897 -0.0626716 0.997241 -0.168121 -0.18956 0.967369 -0.394779 -0.321395 0.860729 
0.419291 -0.557414 0.716578 0.209493 -0.448224 0.869027 0.0447332 -0.345665 0.937291 
0.0011232 -0.327992 0.94468 0.0571036 -0.239837 0.969132 0.12179 -0.237425 0.963741 
0.0483322 -0.167756 0.984643 -0.055668 -0.106261 0.992779 -0.0820842 -0.217907 0.972512 
-0.174503 -0.368342 0.913166 -0.313939 -0.559461 0.767103 0.0692568 -0.875008 0.479129 
0.112935 -0.872997 0.474471 0.17461 -0.775162 0.607153 0.150336 -0.665617 0.730995 
-0.0714236 -0.616237 0.784315 -0.292252 -0.7409 0.604695 0.105034 0.600804 0.792466 
-0.0833206 0.588588 0.804128 0.314931 0.689724 0.651997 0.125277 0.592284 0.795931 
0.266269 0.492056 0.828843 0.270094 0.626837 0.730838 -0.132473 0.579168 0.804373 
-0.224443 0.544104 0.808441 -0.273859 0.660788 0.698828 -0.344403 0.545473 0.764098 
-0.46887 0.794955 0.384978 0.136868 0.468234 0.87294 0.296154 0.795394 0.528811 
0.0812469 0.478539 0.8743 0.137832 0.713996 0.686449 0.0168157 0.451711 0.892006 
0.0911435 0.603233 0.79234 0.0554216 0.351227 0.934649 0.185421 0.465169 0.865584 
0.268877 0.353193 0.89608 0.26552 0.342674 0.901151 0.271734 0.358738 0.89301 
-0.389084 0.526317 0.756045 -0.438302 0.488485 0.754502 -0.544709 0.660775 0.516399 
0.154085 0.46631 0.871099 0.348392 0.380728 0.856545 0.422481 0.564146 0.709401 
-0.466367 0.449975 0.761593 -0.446143 0.425767 0.787197 -0.592019 0.572745 0.566989 
0.390051 0.304221 0.869086 0.649446 0.3327 0.683762 -0.478597 0.378891 0.792077 
-0.525738 0.277445 0.804129 -0.666676 0.457153 0.588688 0.532447 0.14653 0.833684 
0.543471 0.0717358 0.836357 0.622913 0.15684 0.766407 -0.528603 0.266618 0.805911 
0.543594 0.0637746 0.836922 0.560668 0.00899323 0.827992 -0.6186 0.206826 0.757996 
-0.925865 0.16312 0.340831 0.583235 -0.0796845 0.808386 0.602894 -0.0883482 0.792914 
-0.743498 -0.0198412 0.668444 -0.905017 -0.0556829 0.421715 0.628055 -0.146184 0.764315 
0.732148 -0.200117 0.651085 -0.681749 -0.275232 0.677839 -0.695401 -0.40539 0.593361 
0.587921 -0.405149 0.700145 0.800949 -0.566634 0.193407 0.543493 -0.497487 0.676108 
-0.693536 -0.433881 0.575113 -0.544344 -0.705641 0.453609 -0.739695 -0.489355 0.461934 
0.513601 -0.610809 0.6026 0.617229 -0.752529 0.229626 0.437041 -0.687234 0.580263 
0.260791 -0.81509 0.517317 0.129949 -0.878728 0.459293 -0.370579 -0.818943 0.438183 
-0.531529 -0.723791 0.440003 -0.386647 -0.823214 0.415719 -0.558071 -0.789699 0.254819 
0.106354 -0.889579 0.444228 0.129401 -0.923263 0.361719 0.0673892 -0.897542 0.43575 
0.119515 -0.915888 0.383229 0.206115 -0.896049 0.393208 0.112824 -0.926311 0.359469 
-0.0894413 -0.940514 0.32777 -0.369436 -0.821702 0.433962 -0.260712 -0.88549 0.384625 
-0.373663 -0.853592 0.362983 0.299435 0.778784 0.551212 0.233136 0.867875 0.438681 
0.0884531 0.923476 0.373321 0.041445 0.998325 0.0403652 -0.0884839 0.931606 0.352534 
-0.308542 0.889526 0.336965 -0.484464 0.821786 0.299938 0.309758 0.824004 0.474413 
0.195477 0.823388 0.532748 0.18491 0.768801 0.612171 0.294898 0.928465 0.225806 
0.280702 0.743068 0.6075 0.265257 0.724612 0.636063 0.280811 0.785426 0.551589 
-0.509732 0.810094 0.289692 -0.596018 0.755139 0.272995 0.366008 0.806178 0.464882 
0.49097 0.747206 0.447919 -0.625484 0.730553 0.273973 -0.654294 0.696874 0.293711 
0.635765 0.643523 0.42624 0.68658 0.591441 0.422855 0.728721 0.658629 0.187546 
-0.689336 0.659443 0.299917 -0.745679 0.608695 0.271023 0.820019 0.383003 0.425297 
-0.810684 0.518376 0.272174 0.876652 0.215982 0.429922 -0.904622 0.366079 0.218279 
-0.936097 0.296156 0.189774 0.933782 0.0144185 0.357552 0.956578 0.0102564 0.291296 
-0.976673 0.141322 0.161672 0.917423 -0.183137 0.353264 -0.994481 -0.103276 0.0184627 
-0.950274 -0.311234 -0.01063 -0.903769 -0.188274 -0.384388 0.891558 -0.354052 0.28244 
-0.93068 -0.365679 -0.0106124 0.803879 -0.574049 0.155712 0.79879 -0.58204 0.152197 
0.76654 -0.627555 -0.136347 -0.769477 -0.636849 -0.048252 -0.700621 -0.705955 -0.103717 
-0.63758 -0.706164 -0.307936 0.626999 -0.770746 0.113239 0.599493 -0.793639 0.103658 
0.554379 -0.807547 -0.201325 0.415193 -0.909457 0.022431 0.235883 -0.970444 -0.0509655 
-0.420955 -0.899431 -0.117561 -0.546692 -0.824048 -0.148571 -0.515591 -0.845938 -0.136215 
-0.534936 -0.807512 -0.248531 0.21539 -0.974638 -0.0607254 0.0995082 -0.99085 -0.0911844 
0.08472 -0.962757 -0.256753 -9.629e-05 -0.993077 -0.117465 -0.00830959 -0.957262 -0.289102 
0.0721612 -0.984201 -0.161685 0.0423593 -0.948252 -0.314682 0.143276 -0.967588 -0.207958 
0.101198 -0.88682 -0.450898 0.0892227 -0.962899 -0.254687 0.037399 -0.814509 -0.578944 
-0.0688003 -0.960151 -0.270882 -0.0819428 -0.8026 -0.590863 -0.204089 -0.943763 -0.260113 
-0.179587 -0.848975 -0.496981 -0.330661 -0.924291 -0.190658 -0.312257 -0.926763 -0.208818 
-0.295362 -0.915067 -0.274615 0.0401876 0.998678 0.0320605 0.304507 0.939088 0.159339 
0.30133 0.935755 0.183201 0.234143 0.957085 0.170776 0.0453463 0.998356 0.0350463 
0.147742 0.984381 0.0957373 0.00409874 0.999819 0.0185753 0.037142 0.999154 0.0176787 
-0.119927 0.992398 -0.0276309 -0.356842 0.930433 -0.0834206 -0.543409 0.825543 -0.15227 
0.379284 0.92522 0.0105788 0.303345 0.941695 0.145578 0.308652 0.947005 0.0889695 
-0.567585 0.807136 -0.162417 -0.55116 0.768453 -0.325119 -0.616507 0.764797 -0.187094 
0.743477 0.667287 -0.0443865 0.519873 0.854177 -0.0106559 0.533767 0.845546 -0.0120394 
-0.632604 0.749895 -0.193573 -0.576306 0.651576 -0.493275 -0.65569 0.731186 -0.18825 
0.769111 0.637432 -0.046357 0.739523 0.64409 -0.195584 -0.724131 0.662158 -0.192826 
-0.581285 0.557638 -0.592577 -0.770333 0.59823 -0.2207 0.910127 0.410005 -0.0597156 
-0.822697 0.510631 -0.249851 -0.698132 0.464275 -0.545033 0.982779 0.167672 -0.0776619 
0.986346 0.142257 -0.0829746 -0.930952 0.256754 -0.259625 -0.910714 0.0170903 -0.412684 
0.993368 -0.0128296 -0.114259 0.98003 -0.159796 -0.118348 0.975253 -0.0176129 -0.22039 
-0.908761 0.00831822 -0.417234 -0.906047 -0.000661515 -0.423176 -0.907661 0.00739015 -0.419638 
0.96671 -0.225669 -0.120607 -0.800135 -0.212565 -0.560893 -0.530034 -0.269063 -0.804157 
0.887185 -0.42523 -0.179117 0.753017 -0.62929 -0.192251 -0.738954 -0.361955 -0.568274 
-0.560452 -0.608145 -0.562186 -0.544212 -0.331768 -0.77056 0.750558 -0.63183 -0.193529 
0.530177 -0.796103 -0.291775 -0.264039 -0.452328 -0.85187 -0.482458 -0.647503 -0.589893 
-0.476497 -0.60564 -0.6373 -0.365188 -0.519607 -0.772429 0.515366 -0.803722 -0.297371 
0.331674 -0.862458 -0.382306 0.270715 -0.779696 -0.564613 0.144951 -0.89419 -0.423572 
0.0902463 -0.697779 -0.710605 0.0446744 -0.877852 -0.476844 -0.0280135 -0.646033 -0.762796 
-0.019905 -0.855928 -0.516711 -0.0577171 -0.644118 -0.762745 0.0034796 -0.832373 -0.554205 
-0.0276015 -0.664646 -0.746648 0.0648224 -0.795321 -0.602712 0.0119321 -0.650156 -0.759707 
0.0254922 -0.765401 -0.643049 -0.012424 -0.633537 -0.773612 -0.081468 -0.74149 -0.666 
-0.091957 -0.632042 -0.769459 -0.15952 -0.720324 -0.675046 -0.148666 -0.632281 -0.760341 
-0.164935 -0.712486 -0.682027 -0.17492 -0.635661 -0.75189 -0.39611 -0.655454 -0.643022 
-0.316332 -0.692631 -0.648226 -0.307862 -0.644206 -0.700157 0.359411 0.88027 -0.309756 
0.311877 0.900625 -0.302669 0.223398 0.933061 -0.28194 0.0904125 0.950101 -0.298554 
-0.0387247 0.93815 -0.344055 -0.209853 0.879079 -0.427996 -0.428682 0.744317 -0.512078 
0.394123 0.77703 -0.490807 0.359992 0.878625 -0.313726 0.363944 0.836726 -0.409188 
0.359698 0.873213 -0.32881 0.289132 0.760169 -0.581847 0.174866 0.612538 -0.770856 
-0.247544 0.533278 -0.808911 -0.497809 0.675286 -0.54422 -0.42808 0.612936 -0.664121 
-0.513886 0.62582 -0.586745 0.424713 0.759676 -0.492454 0.512001 0.678441 -0.526852 
0.38569 0.74643 -0.542296 0.312937 0.610319 -0.727724 0.233781 0.426757 -0.873627 
-0.317421 0.28415 -0.904712 -0.531428 0.585155 -0.612518 -0.439455 0.448059 -0.778539 
-0.525615 0.56972 -0.631781 0.60633 0.593162 -0.529644 0.699066 0.493208 -0.517738 
0.477261 0.529827 -0.701075 0.294911 0.411997 -0.86214 -0.27964 0.249563 -0.927103 
-0.545355 0.520403 -0.657091 -0.397826 0.397969 -0.826653 -0.549889 0.503998 -0.666039 
0.784117 0.329529 -0.5259 0.665953 0.323076 -0.672405 0.36296 0.312761 -0.877747 
-0.289259 0.156699 -0.944338 -0.590191 0.395694 -0.703634 -0.458286 0.277075 -0.844514 
-0.623715 0.294854 -0.723906 0.812718 0.140302 -0.565513 0.627758 0.142482 -0.765257 
-0.12102 -0.134299 -0.983523 -0.198587 -0.0698978 -0.977588 -0.32173 0.0105533 -0.946772 
-0.660443 0.159523 -0.733735 -0.558097 0.137777 -0.818258 0.820357 -0.0345244 -0.570808 
0.593326 -0.0402844 -0.803954 -0.0798056 -0.00725107 -0.996784 -0.127561 -0.179474 -0.975457 
-0.0911589 -0.195237 -0.97651 -0.165686 -0.188989 -0.967901 -0.289326 -0.164372 -0.943012 
-0.577418 -0.147283 -0.803054 -0.526606 -0.216789 -0.822003 -0.527735 -0.151399 -0.835808 
0.769292 -0.224765 -0.598055 0.615633 -0.236541 -0.751695 0.0943299 -0.12597 -0.987539 
-0.0783909 -0.103275 -0.991559 -0.115068 -0.0797213 -0.990153 -0.178695 -0.129164 -0.97539 
-0.127503 -0.209652 -0.969427 -0.164467 -0.251665 -0.953738 -0.428503 -0.262736 -0.864497 
-0.287247 -0.22957 -0.929939 0.71013 -0.366363 -0.601243 0.682083 -0.412932 -0.603532 
0.673956 -0.366538 -0.641431 0.346974 -0.368155 -0.862595 0.160895 -0.311713 -0.936455 
-0.12766 -0.226036 -0.965718 -0.0181517 -0.217941 -0.975793 0.0584121 -0.401486 -0.914 
-0.0205012 -0.300054 -0.953702 -0.00504054 -0.207785 -0.978162 -0.113937 -0.204814 -0.972147 
-0.252694 -0.199758 -0.946701 -0.196929 -0.247963 -0.948543 -0.230023 -0.394934 -0.889447 
-0.169081 -0.262785 -0.949924 -0.328499 -0.327317 -0.885975 -0.312347 -0.341327 -0.88653 
-0.310205 -0.333537 -0.890239 0.476078 -0.590625 -0.651546 0.442513 -0.6001 -0.66638 
0.429767 -0.576881 -0.694629 0.237613 -0.692333 -0.681333 0.204092 -0.509442 -0.835952 
0.0860348 -0.687035 -0.721513 0.0312908 -0.471321 -0.881406 -0.0300577 -0.63388 -0.772847 
-0.0805248 -0.419907 -0.903988 -0.0594641 -0.59925 -0.798351 -0.0675279 -0.393535 -0.916826 
-0.0247551 -0.602051 -0.798074 -0.00140732 -0.454516 -0.890737 0.00869389 -0.59999 -0.79996 
0.014827 -0.465214 -0.885074 -0.013701 -0.594012 -0.80434 0.000463915 -0.442401 -0.896817 
-0.0967916 -0.591646 -0.800366 -0.100284 -0.486863 -0.867702 -0.167503 -0.519755 -0.837734 
-0.198525 -0.431605 -0.879946 -0.198389 -0.421328 -0.884944 -0.165478 -0.423784 -0.890519 
-0.165412 -0.403258 -0.900012 0.0427526 0.551481 -0.833091 -0.10051 0.525415 -0.844889 
0.237565 0.469817 -0.850197 0.117048 0.565806 -0.816188 0.162338 0.562137 -0.810955 
0.0385556 0.515879 -0.855793 -0.128586 0.506711 -0.852472 -0.100369 0.505897 -0.856735 
-0.225914 0.365688 -0.902904 0.209744 0.39224 -0.895631 0.229205 0.410077 -0.882781 
0.222405 0.403669 -0.887461 0.210787 0.327361 -0.921088 0.0771229 0.232706 -0.969484 
-0.0121134 0.181255 -0.983362 -0.0973751 0.146606 -0.98439 -0.303021 0.271316 -0.913546 
-0.189348 0.188577 -0.963632 -0.293457 0.240326 -0.925271 0.274932 0.394482 -0.876811 
0.28496 0.390659 -0.875319 0.160966 0.298649 -0.940691 0.123751 0.21433 -0.96889 
0.0823982 0.0970864 -0.991859 0.0198787 0.00494214 -0.99979 -0.0589159 -0.0477016 -0.997123 
-0.0941166 -0.0626854 -0.993586 -0.128357 0.00969258 -0.991681 -0.228565 0.142813 -0.962996 
-0.197179 0.0702971 -0.977844 -0.183683 0.12665 -0.974792 0.330493 0.29215 -0.897454 
0.345375 0.265292 -0.900187 0.194471 0.205752 -0.959087 0.0846013 0.141889 -0.986261 
0.0282651 0.0252408 -0.999282 -0.00977067 -0.0562734 -0.998368 -0.0665497 -0.108912 -0.991821 
-0.0761624 -0.165439 -0.983275 -0.0438305 -0.0613003 -0.997157 -0.0580533 -0.0315719 -0.997814 
-0.0739008 -0.00311821 -0.997261 -0.186575 0.0926763 -0.97806 -0.121989 -0.124571 -0.984683 
-0.137309 0.0634394 -0.988495 0.426035 0.138095 -0.894105 0.30094 0.107212 -0.947597 
0.148093 0.0692963 -0.986543 -0.00684636 -0.0015692 -0.999975 -0.0758086 -0.107406 -0.991321 
-0.0530443 -0.181221 -0.982011 -0.0875068 -0.0881162 -0.992259 -0.0619282 -0.0490305 -0.996876 
-0.011861 -0.163691 -0.98644 0.0399055 -0.0800889 -0.995989 -0.0709497 -0.0680548 -0.995156 
-0.120458 -0.133961 -0.983638 -0.117714 -0.147647 -0.98201 -0.104926 -0.121596 -0.987018 
0.438906 -0.0463731 -0.897335 0.272007 -0.0520808 -0.960885 0.0992704 -0.07034 -0.992571 
-0.0963241 -0.113751 -0.988829 -0.152105 -0.132514 -0.979441 0.0603685 -0.147905 -0.987157 
0.0109859 -0.176984 -0.984152 -0.0755396 -0.000665586 -0.997143 -0.0441971 0.0304116 -0.99856 
-0.030125 -0.0562265 -0.997963 -0.108754 -0.00839637 -0.994033 -0.031033 -0.119746 -0.992319 
0.0553802 -0.148274 -0.987394 -0.111184 -0.15004 -0.982408 -0.108127 -0.0998283 -0.989112 
-0.0985841 -0.129365 -0.986684 0.313155 -0.233499 -0.92055 0.272603 -0.251528 -0.928666 
0.2622 -0.222899 -0.938918 0.153107 -0.301428 -0.941116 0.0892681 -0.208921 -0.97385 
-0.0684981 -0.148838 -0.986486 0.016394 -0.127628 -0.991687 -0.133134 -0.187912 -0.973121 
-0.140507 -0.128349 -0.981725 0.0994926 -0.132193 -0.986218 0.0685821 -0.362469 -0.929469 
0.121391 -0.146134 -0.981789 -0.109114 -0.0823297 -0.990614 -0.0866016 -0.198806 -0.976205 
-0.19967 -0.0209904 -0.979638 0.112836 -0.299004 -0.947557 -0.0756831 -0.243053 -0.967056 
-0.00912621 -0.298482 -0.954372 -0.0182526 -0.261211 -0.965109 
