# vtk DataFile Version 4.2
vtk output
ASCII
DATASET POLYDATA
POINTS 526 float
-51.5141 -18.1503 -16.4089 -43.869 -18.1503 -18.6604 -36.224 -18.1503 -19.4778 
-28.5789 -18.1503 -19.5965 -20.9338 -18.1503 -19.493 -13.2888 -18.1503 -19.1026 
-5.6437 -18.1503 -18.4959 2.00137 -18.1503 -17.276 9.64644 -18.1503 -16.7421 
-51.5141 -10.5052 -18.134 -43.869 -10.5052 -20.5952 -36.224 -10.5052 -21.4612 
-28.5789 -10.5052 -20.8169 -20.9338 -10.5052 -20.1358 -13.2888 -10.5052 -21.2917 
-5.6437 -10.5052 -21.2783 2.00137 -10.5052 -18.3521 9.64644 -10.5052 -18.4094 
17.2915 -10.5052 -17.5427 24.9366 -10.5052 -17.8958 32.5816 -10.5052 -18.5381 
40.2267 -10.5052 -17.7815 47.8718 -10.5052 -16.8277 -51.5141 -2.86017 -19.2602 
-43.869 -2.86017 -20.5516 -36.224 -2.86017 -20.8327 -28.5789 -2.86017 -20.1086 
-20.9338 -2.86017 -19.4065 -13.2888 -2.86017 -22.181 -5.6437 -2.86017 -23.211 
2.00137 -2.86017 -19.4614 9.64644 -2.86017 -21.2279 17.2915 -2.86017 -17.4603 
24.9366 -2.86017 -17.7035 32.5816 -2.86017 -18.5917 40.2267 -2.86017 -18.9312 
47.8718 -2.86017 -18.588 55.5168 -2.86017 -17.1101 -51.5141 4.7849 -19.3795 
-43.869 4.7849 -20.6082 -36.224 4.7849 -20.9098 -28.5789 4.7849 -20.1512 
-20.9338 4.7849 -19.6044 -13.2888 4.7849 -21.6014 -5.6437 4.7849 -22.5494 
2.00137 4.7849 -18.851 9.64644 4.7849 -20.2499 17.2915 4.7849 -17.2938 
24.9366 4.7849 -17.8611 32.5816 4.7849 -18.8248 40.2267 4.7849 -19.3369 
47.8718 4.7849 -19.0534 55.5168 4.7849 -17.3736 -51.5141 12.43 -18.6149 
-43.869 12.43 -20.2337 -36.224 12.43 -21.6754 -28.5789 12.43 -21.5015 
-20.9338 12.43 -20.6252 -13.2888 12.43 -20.8552 -5.6437 12.43 -20.1479 
2.00137 12.43 -17.9626 9.64644 12.43 -18.7208 17.2915 12.43 -18.4083 
24.9366 12.43 -18.6859 32.5816 12.43 -19.4702 40.2267 12.43 -19.198 
47.8718 12.43 -17.2161 -51.5141 20.075 -17.1732 -43.869 20.075 -19.6179 
-36.224 20.075 -20.0819 -28.5789 20.075 -20.3205 -20.9338 20.075 -20.2647 
-13.2888 20.075 -20.4237 -5.6437 20.075 -19.3852 2.00137 20.075 -18.1109 
9.64644 20.075 -18.416 17.2915 20.075 -18.4377 24.9366 20.075 -17.7214 
32.5816 20.075 -17.0584 -36.224 27.7201 -16.8489 -28.5789 27.7201 -17.7841 
-20.9338 27.7201 -18.285 -13.2888 27.7201 -17.9559 -5.6437 27.7201 -16.7182 
-51.5141 -18.1963 -16.3799 -43.869 -22.1611 -16.3799 -43.869 -25.7954 -13.4827 
-36.224 -24.8309 -16.3799 -36.224 -25.7954 -15.6718 -28.5789 -25.4824 -16.3799 
-28.5789 -25.7954 -16.1971 -20.9338 -24.3981 -16.3799 -20.9338 -25.7954 -15.411 
-13.2888 -23.5432 -16.3799 -13.2888 -25.7954 -14.8956 -5.6437 -22.1197 -16.3799 
-5.6437 -25.7954 -14.0682 2.00137 -20.2769 -16.3799 2.00137 -25.7954 -13.4055 
9.64644 -19.0709 -16.3799 9.64644 -25.7954 -12.7139 17.2915 -25.7954 -11.1394 
24.9366 -25.7954 -9.35541 -51.561 -18.1503 -16.3799 -59.1592 -18.1503 -9.11743 
15.1547 -18.1503 -16.3799 17.2915 -17.329 -16.3799 17.2915 -18.1503 -16.23 
24.9366 -16.8018 -16.3799 24.9366 -18.1503 -16.0109 32.5816 -16.6559 -16.3799 
32.5816 -18.1503 -15.7784 40.2267 -14.3094 -16.3799 40.2267 -18.1503 -14.7231 
47.8718 -11.5688 -16.3799 47.8718 -18.1503 -12.8175 55.5168 -18.1503 -8.8945 
-55.3337 -10.5052 -16.3799 -59.1592 -10.5052 -14.3567 49.5014 -10.5052 -16.3799 
55.5168 -5.41249 -16.3799 55.5168 -10.5052 -14.5476 -58.5319 -2.86017 -16.3799 
-59.1592 -2.86017 -16.0926 56.8371 -2.86017 -16.3799 63.1619 -2.86017 -11.9051 
-58.8921 4.7849 -16.3799 -59.1592 4.7849 -16.2574 57.3231 4.7849 -16.3799 
55.5168 8.11921 -16.3799 63.1619 4.7849 -12.2096 -56.6781 12.43 -16.3799 
-59.1592 12.43 -15.0564 40.2267 19.5413 -16.3799 50.6582 12.43 -16.3799 
47.8718 14.8693 -16.3799 55.5168 12.43 -14.5642 -52.7509 20.075 -16.3799 
-59.1592 20.075 -9.21177 -51.5141 21.3054 -16.3799 -43.869 25.9882 -16.3799 
2.00137 24.6935 -16.3799 9.64644 24.7012 -16.3799 17.2915 24.0257 -16.3799 
24.9366 22.4896 -16.3799 37.9359 20.075 -16.3799 32.5816 21.1346 -16.3799 
40.2267 20.075 -16.0355 47.8718 20.075 -13.5779 -38.5142 27.7201 -16.3799 
-43.869 27.7201 -14.8857 -36.224 28.1838 -16.3799 -28.5789 29.4874 -16.3799 
-20.9338 30.3042 -16.3799 -13.2888 29.7221 -16.3799 -4.02381 27.7201 -16.3799 
-5.6437 28.1533 -16.3799 2.00137 27.7201 -14.3426 9.64644 27.7201 -13.3998 
17.2915 27.7201 -11.4304 24.9366 27.7201 -9.49412 32.5816 27.7201 -8.91382 
-43.869 -29.2857 -8.73485 -36.224 -30.2245 -8.73485 -28.5789 -31.0859 -8.73485 
-20.9338 -31.3223 -8.73485 -13.2888 -31.1081 -8.73485 -13.2888 -33.4404 -1.40213 
-5.6437 -30.7621 -8.73485 2.00137 -29.8342 -8.73485 9.64644 -28.9878 -8.73485 
17.2915 -27.7054 -8.73485 24.9366 -26.2341 -8.73485 -59.1592 -18.6 -8.73485 
-50.4894 -25.7954 -8.73485 -51.5141 -25.1704 -8.73485 -51.5141 -25.7954 -6.15543 
30.1809 -25.7954 -8.73485 32.5816 -25.5642 -8.73485 32.5816 -25.7954 -8.16293 
40.2267 -23.8174 -8.73485 40.2267 -25.7954 -2.40014 47.8718 -21.7102 -8.73485 
55.5168 -18.2855 -8.73485 -59.4895 -18.1503 -8.73485 55.724 -18.1503 -8.73485 
-64.0568 -10.5052 -8.73485 62.9248 -10.5052 -8.73485 63.1619 -10.0746 -8.73485 
63.1619 -10.5052 -8.31208 -65.7735 -2.86017 -8.73485 -66.8042 -2.86017 -4.21566 
66.244 -2.86017 -8.73485 -65.7315 4.7849 -8.73485 -66.8042 4.7849 -3.98109 
66.5082 4.7849 -8.73485 63.1619 11.6749 -8.73485 -64.3501 12.43 -8.73485 
62.6544 12.43 -8.73485 55.5168 19.7804 -8.73485 63.1619 12.43 -7.67978 
-59.518 20.075 -8.73485 -59.1592 20.5806 -8.73485 -51.5141 26.9805 -8.73485 
40.2267 25.5998 -8.73485 55.0784 20.075 -8.73485 47.8718 23.502 -8.73485 
55.5168 20.075 -7.62167 -50.2293 27.7201 -8.73485 -43.869 30.8484 -8.73485 
-36.224 32.7909 -8.73485 -28.5789 33.9104 -8.73485 -20.9338 34.6306 -8.73485 
-13.2888 34.2455 -8.73485 -5.6437 32.6857 -8.73485 2.00137 30.913 -8.73485 
9.64644 29.8765 -8.73485 17.2915 28.8257 -8.73485 24.9366 28.0494 -8.73485 
24.9366 27.7201 -4.85722 32.8955 27.7201 -8.73485 32.5816 27.8046 -8.73485 
-13.2888 -33.5243 -1.08978 -51.5141 -26.8074 -1.08978 -43.869 -30.083 -1.08978 
-36.224 -31.5845 -1.08978 -28.5789 -32.265 -1.08978 -14.5845 -33.4404 -1.08978 
-20.9338 -33.0293 -1.08978 -10.0216 -33.4404 -1.08978 -13.2888 -33.4404 -0.36628 
-5.6437 -33.3224 -1.08978 2.00137 -31.6088 -1.08978 9.64644 -30.8999 -1.08978 
17.2915 -29.9701 -1.08978 24.9366 -28.7668 -1.08978 32.5816 -27.8992 -1.08978 
40.2267 -26.1765 -1.08978 -53.3476 -25.7954 -1.08978 -59.1592 -21.2461 -1.08978 
-51.5141 -25.7954 3.06658 42.4208 -25.7954 -1.08978 47.8718 -24.7637 -1.08978 
55.5168 -20.7882 -1.08978 -61.6064 -18.1503 -1.08978 59.9119 -18.1503 -1.08978 
63.1619 -15.1883 -1.08978 -65.9025 -10.5052 -1.08978 -66.8042 -6.12179 -1.08978 
66.5144 -10.5052 -1.08978 -67.4557 -2.86017 -1.08978 -66.8042 -2.86017 1.489 
69.6833 -2.86017 -1.08978 -67.4109 4.7849 -1.08978 -66.8042 7.70168 -1.08978 
-66.8042 4.7849 0.60068 69.3937 4.7849 -1.08978 -65.7112 12.43 -1.08978 
65.5865 12.43 -1.08978 63.1619 15.8294 -1.08978 -60.2908 20.075 -1.08978 
-59.1592 21.4377 -1.08978 -59.1592 20.075 1.05489 -51.5141 26.9623 -1.08978 
24.9366 27.4041 -1.08978 40.2267 26.0902 -1.08978 47.8718 25.2613 -1.08978 
57.7931 20.075 -1.08978 55.5168 21.2502 -1.08978 55.5168 20.075 4.63657 
-49.8222 27.7201 -1.08978 -43.869 30.1045 -1.08978 -43.869 27.7201 3.17678 
-36.224 31.7321 -1.08978 -36.224 27.7201 5.45451 -28.5789 32.7749 -1.08978 
-20.9338 32.8741 -1.08978 -13.2888 32.4926 -1.08978 -13.2888 27.7201 5.62569 
-5.6437 31.4415 -1.08978 -5.6437 27.7201 4.82568 2.00137 30.5451 -1.08978 
2.00137 27.7201 5.48322 9.64644 29.6238 -1.08978 9.64644 27.7201 5.8425 
21.6796 27.7201 -1.08978 17.2915 28.135 -1.08978 17.2915 27.7201 0.703612 
31.4324 27.7201 -1.08978 32.8303 27.7201 -1.08978 32.5816 27.7668 -1.08978 
32.5816 27.7201 -0.897453 -43.869 -28.2173 6.55529 -36.224 -29.5164 6.55529 
-28.5789 -30.6397 6.55529 -20.9338 -31.5765 6.55529 -13.2888 -32.5871 6.55529 
-5.6437 -32.4113 6.55529 2.00137 -30.5269 6.55529 9.64644 -30.2758 6.55529 
17.2915 -29.9187 6.55529 24.9366 -28.8622 6.55529 32.5816 -27.783 6.55529 
40.2267 -25.8966 6.55529 -59.1592 -18.4364 6.55529 -49.3447 -25.7954 6.55529 
-51.5141 -24.7258 6.55529 -43.869 -25.7954 9.52871 -36.224 -25.7954 12.7365 
-28.5789 -25.7954 13.4967 32.5816 -25.7954 12.4345 40.6567 -25.7954 6.55529 
40.2267 -25.7954 6.87758 47.8718 -23.9427 6.55529 55.5168 -20.2094 6.55529 
-59.3797 -18.1503 6.55529 -59.1592 -18.1503 6.81685 -51.5141 -18.1503 12.5328 
58.9856 -18.1503 6.55529 55.5168 -18.1503 11.496 63.1619 -13.915 6.55529 
-63.2092 -10.5052 6.55529 -59.1592 -10.5052 10.3409 65.5254 -10.5052 6.55529 
63.1619 -10.5052 10.9395 -64.9626 -2.86017 6.55529 -59.1592 -2.86017 11.5305 
68.5292 -2.86017 6.55529 -63.682 4.7849 6.55529 -59.1592 4.7849 11.6131 
68.543 4.7849 6.55529 63.1619 4.7849 14.0521 -61.8359 12.43 6.55529 
-59.1592 16.0795 6.55529 -59.1592 12.43 9.72687 -51.5141 12.43 12.827 
55.5168 19.6423 6.55529 63.4153 12.43 6.55529 63.1619 12.7959 6.55529 
63.1619 12.43 6.99186 -54.5876 20.075 6.55529 -51.5141 22.2275 6.55529 
-51.5141 20.075 8.41282 -43.869 25.2427 6.55529 -43.869 20.075 11.2106 
-36.224 26.9447 6.55529 -36.224 20.075 12.572 -28.5789 20.075 13.0529 
-20.9338 20.075 13.0453 -13.2888 26.9298 6.55529 -13.2888 20.075 13.5819 
-5.6437 26.4419 6.55529 2.00137 27.1077 6.55529 9.64644 27.5029 6.55529 
17.2915 26.3368 6.55529 24.9366 25.5578 6.55529 32.5816 25.5522 6.55529 
40.2267 24.1747 6.55529 54.5009 20.075 6.55529 47.8718 22.6668 6.55529 
47.8718 20.075 11.6827 -31.051 27.7201 6.55529 -28.5789 28.0544 6.55529 
-28.5789 27.7201 6.92647 -20.5073 27.7201 6.55529 -20.9338 27.7662 6.55529 
-20.9338 27.7201 6.60286 -20.9338 -26.2028 14.2004 -13.2888 -27.9209 14.2004 
-5.6437 -28.4534 14.2004 2.00137 -27.4412 14.2004 9.64644 -27.3411 14.2004 
17.2915 -27.3034 14.2004 24.9366 -26.4091 14.2004 -43.869 -20.7932 14.2004 
-36.224 -24.2104 14.2004 -23.8397 -25.7954 14.2004 -28.5789 -24.9899 14.2004 
-20.9338 -25.7954 14.5652 -13.2888 -25.7954 16.0906 -5.6437 -25.7954 16.6742 
2.00137 -25.7954 16.0077 9.64644 -25.7954 15.9451 17.2915 -25.7954 15.976 
28.4632 -25.7954 14.2004 24.9366 -25.7954 15.0137 32.5816 -24.9888 14.2004 
[...]
POINT_DATA 526
SCALARS ImageScalars float
LOOKUP_TABLE default
0 0 0 0 0 0 0 0 0 
0 0 0 0 0 0 0 0 0 
0 0 0 0 0 0 0 0 0 
0 0 0 0 0 0 0 0 0 
0 0 0 0 0 0 0 0 0 
0 0 0 0 0 0 0 0 0 
0 0 0 0 0 0 0 0 0 
0 0 0 0 0 0 0 0 0 
0 0 0 0 0 0 0 0 0 
0 0 0 0 0 0 0 0 0 
0 0 0 0 0 0 0 0 0 
0 0 0 0 0 0 0 0 0 
0 0 0 0 0 0 0 0 0 
0 0 0 0 0 0 0 0 0 
0 0 0 0 0 0 0 0 0 
0 0 0 0 0 0 0 0 0 
0 0 0 0 0 0 0 0 0 
0 0 0 0 0 0 0 0 0 
0 0 0 0 0 0 0 0 0 
0 0 0 0 0 0 0 0 0 
0 0 0 0 0 0 0 0 0 
0 0 0 0 0 0 0 0 0 
0 0 0 0 0 0 0 0 0 
0 0 0 0 0 0 0 0 0 
0 0 0 0 0 0 0 0 0 
0 0 0 0 0 0 0 0 0 
0 0 0 0 0 0 0 0 0 
0 0 0 0 0 0 0 0 0 
0 0 0 0 0 0 0 0 0 
0 0 0 0 0 0 0 0 0 
0 0 0 0 0 0 0 0 0 
0 0 0 0 0 0 0 0 0 
0 0 0 0 0 0 0 0 0 
0 0 0 0 0 0 0 0 0 
0 0 0 0 0 0 0 0 0 
0 0 0 0 0 0 0 0 0 
0 0 0 0 0 0 0 0 0 
0 0 0 0 0 0 0 0 0 
0 0 0 0 0 0 0 0 0 
0 0 0 0 0 0 0 0 0 
0 0 0 0 0 0 0 0 0 
0 0 0 0 0 0 0 0 0 
0 0 0 0 0 0 0 0 0 
0 0 0 0 0 0 0 0 0 
0 0 0 0 0 0 0 0 0 
0 0 0 0 0 0 0 0 0 
0 0 0 0 0 0 0 0 0 
0 0 0 0 0 0 0 0 0 
0 0 0 0 0 0 0 0 0 
0 0 0 0 0 0 0 0 0 
0 0 0 0 0 0 0 0 0 
0 0 0 0 0 0 0 0 0 
0 0 0 0 0 0 0 0 0 
0 0 0 0 0 0 0 0 0 
0 0 0 0 0 0 0 0 0 
0 0 0 0 0 0 0 0 0 
0 0 0 0 0 0 0 0 0 
0 0 0 0 0 0 0 0 0 
0 0 0 0 
NORMALS Normals float
0.423863 0.404559 0.810353 0.196638 0.389448 0.899813 0.0550013 0.336453 0.940093 
0.000295381 0.272392 0.962186 -0.0306945 0.251589 0.967347 -0.0619586 0.360446 0.93072 
-0.115132 0.396536 0.910771 -0.10684 0.266104 0.958005 -0.0648199 0.290885 0.95456 
0.363355 0.178849 0.914323 0.193062 0.103532 0.975709 0.0199284 0.0759386 0.996913 
-0.0859588 0.0315018 0.995801 0.0275199 -0.00550145 0.999606 0.0768336 0.188914 0.978983 
-0.19071 0.281046 0.940555 -0.166967 0.139727 0.976012 -0.0521529 0.280714 0.958373 
-0.0319605 0.0784818 0.996403 0.0630975 0.107172 0.992236 -0.00742143 0.174099 0.9847 
-0.103504 0.240205 0.965188 -0.183012 0.303474 0.935099 0.234008 0.075669 0.969286 
0.0962908 0.000506362 0.995353 -0.0293941 -0.0341577 0.998984 -0.0948751 -0.0439354 0.994519 
0.103195 -0.03437 0.994067 0.267782 0.0294144 0.963031 -0.19761 0.0813654 0.976898 
-0.102342 0.0336155 0.994181 -0.111221 0.12687 0.985664 -0.227999 -0.0164718 0.973522 
0.0723604 -0.00205493 0.997376 0.0800364 0.0184941 0.99662 0.00058167 0.0994765 0.99504 
-0.12738 0.141052 0.981773 -0.364751 0.151051 0.918771 0.236389 -0.0391658 0.970869 
0.0932774 -0.0204634 0.99543 -0.0302257 0.05342 0.998115 -0.0867222 0.0913033 0.99204 
0.0642568 0.0801401 0.99471 0.210582 -0.0918911 0.973248 -0.197236 -0.200816 0.959568 
-0.128943 -0.102528 0.986338 -0.106217 -0.172255 0.979309 -0.143051 0.0647336 0.987596 
0.0986962 0.0642531 0.993041 0.095292 0.0552345 0.993916 0.0150037 0.0159657 0.99976 
-0.136699 -0.0843568 0.987014 -0.375541 -0.116632 0.919438 0.284775 -0.149973 0.94679 
0.181677 -0.055501 0.981791 0.0783487 -0.046104 0.995859 -0.0691455 0.0115197 0.99754 
-0.0419811 0.0438113 0.998157 -0.0282728 -0.0670437 0.997349 -0.193432 -0.18583 0.963354 
-0.0845216 -0.0451883 0.995396 0.0290381 -0.111422 0.993349 -0.00213053 0.0712909 0.997453 
0.0672652 -0.00757997 0.997706 0.0313904 -0.0967554 0.994813 -0.130635 -0.170651 0.976633 
-0.274308 -0.272239 0.922302 0.421813 -0.373556 0.826154 0.200939 -0.292765 0.934833 
0.040933 -0.254272 0.966266 0.0107619 -0.214771 0.976605 0.00707998 -0.140835 0.990008 
-0.0542366 -0.162283 0.985253 -0.151881 -0.20017 0.967917 -0.0603638 -0.161461 0.985031 
0.0208665 -0.215187 0.97635 -0.0449308 -0.238035 0.970217 -0.0878211 -0.326066 0.941259 
-0.100391 -0.438923 0.892899 0.149754 -0.632619 0.759847 0.0788174 -0.529199 0.844829 
0.010519 -0.475318 0.879751 -0.0997097 -0.530786 0.84162 -0.178314 -0.563763 0.806459 
0.424081 0.406589 0.809222 0.243021 0.52844 0.813444 0.302403 0.698299 0.648792 
0.109571 0.598924 0.793274 0.120285 0.661467 0.740266 -0.0179402 0.559121 0.828892 
-0.0178253 0.578207 0.815696 -0.0588652 0.559032 0.827054 -0.0643685 0.644377 0.761994 
-0.0745522 0.529585 0.844975 -0.0681518 0.630437 0.773243 -0.0949462 0.487903 0.867719 
-0.0749166 0.630296 0.772732 -0.0903545 0.346496 0.93369 -0.0703998 0.651296 0.755551 
-0.0684102 0.324667 0.943351 -0.11502 0.698076 0.706725 -0.156512 0.762493 0.62778 
-0.123881 0.846873 0.517165 0.425291 0.405008 0.80938 0.701548 0.550446 0.452592 
-0.0498171 0.307831 0.950136 -0.0427192 0.288331 0.956577 -0.0450831 0.317609 0.94715 
-0.00900714 0.341368 0.939887 -0.0257972 0.398887 0.916637 -0.0583748 0.418674 0.906259 
-0.0713981 0.485747 0.871179 -0.122346 0.374119 0.919275 -0.153228 0.552245 0.819479 
-0.199882 0.338976 0.919316 -0.298135 0.645017 0.703611 -0.46032 0.730817 0.503995 
0.455345 0.23739 0.858083 0.579833 0.337128 0.741713 -0.219232 0.330472 0.918001 
-0.363001 0.248393 0.898071 -0.384119 0.434731 0.814532 0.475698 0.108655 0.872872 
0.509047 0.112572 0.853346 -0.407066 0.149377 0.901101 -0.661266 0.143561 0.736287 
0.501755 -0.0528329 0.863395 0.514855 -0.0541105 0.855568 -0.433008 -0.115954 0.893901 
-0.386448 -0.25363 0.886752 -0.66872 -0.129633 0.732126 0.460362 -0.245094 0.853227 
0.57898 -0.323807 0.748286 -0.152638 -0.537038 0.829634 -0.321735 -0.323777 0.88975 
-0.300709 -0.354471 0.885395 -0.427081 -0.443358 0.788058 0.46076 -0.399798 0.792377 
0.756333 -0.550123 0.354012 0.438162 -0.445919 0.780494 0.284631 -0.571674 0.769528 
-0.09465 -0.440313 0.892842 -0.0255755 -0.526736 0.849644 -0.0818475 -0.53122 0.843271 
-0.110945 -0.481942 0.869151 -0.139495 -0.52932 0.836876 -0.113258 -0.49418 0.861951 
-0.159816 -0.576406 0.801383 -0.341986 -0.650089 0.67855 0.20062 -0.641649 0.740296 
0.325545 -0.699602 0.636063 0.153345 -0.656341 0.738717 0.107055 -0.626078 0.772376 
0.0122927 -0.611202 0.791379 -0.109107 -0.632984 0.766438 -0.165762 -0.581514 0.79647 
-0.181375 -0.586899 0.789083 -0.138048 -0.731073 0.668188 -0.0943037 -0.846664 0.523706 
-0.117719 -0.93556 0.332972 -0.0723615 -0.973038 0.218997 -0.152409 -0.956572 0.248479 
0.291393 0.891798 0.346102 0.114119 0.92837 0.353704 0.0646192 0.944292 0.322702 
0.00425621 0.907595 0.419826 -0.0322316 0.874594 0.483783 0.01776 0.995754 0.0903276 
-0.075758 0.860408 0.503943 -0.1059 0.881703 0.459767 -0.129386 0.876956 0.462826 
-0.168287 0.853915 0.492451 -0.126301 0.864093 0.487227 0.700799 0.567377 0.432394 
0.440583 0.810646 0.385668 0.466859 0.793495 0.390395 0.471254 0.847927 0.242773 
-0.137012 0.859762 0.491973 -0.14104 0.855672 0.497929 -0.144302 0.872954 0.465969 
-0.20724 0.8577 0.470533 -0.210639 0.961608 0.175902 -0.317936 0.798478 0.511224 
-0.460472 0.736388 0.49568 0.708563 0.555238 0.435488 -0.466218 0.731718 0.497221 
0.847567 0.34015 0.407342 -0.704607 0.483742 0.519156 -0.712397 0.467673 0.523233 
-0.720072 0.489659 0.491661 0.923206 0.109401 0.368405 0.987419 0.103972 0.119134 
-0.792241 0.154594 0.590301 0.930368 -0.0867096 0.356225 0.99205 -0.10194 0.0737941 
-0.814612 -0.158983 0.557792 -0.729505 -0.475111 0.492028 0.875057 -0.341959 0.342549 
-0.714237 -0.505847 0.483719 -0.488035 -0.766078 0.418267 -0.748169 -0.521719 0.409942 
0.763665 -0.555033 0.329778 0.75424 -0.569003 0.327655 0.477714 -0.843523 0.245475 
-0.252726 -0.926959 0.277265 -0.47716 -0.777602 0.409455 -0.343847 -0.858573 0.380291 
-0.484334 -0.803245 0.346726 0.44767 -0.864551 0.228349 0.338022 -0.927018 0.162416 
0.207758 -0.965594 0.156412 0.118415 -0.984716 0.12772 0.0241202 -0.995591 0.0906518 
-0.127652 -0.986138 0.106001 -0.222963 -0.964405 0.142165 -0.180013 -0.96039 0.212714 
-0.132798 -0.972824 0.189679 -0.115898 -0.982568 0.145355 -0.0678599 -0.983554 0.16738 
-0.0449731 -0.998988 0.000792658 -0.15563 -0.958693 0.23809 -0.152116 -0.959492 0.237141 
0.0194586 0.996927 0.075882 0.462846 0.886213 -0.0200121 0.275959 0.959879 -0.0497943 
0.149871 0.987731 -0.0438957 0.0932236 0.995375 -0.0232151 0.0301132 0.997441 0.0648494 
0.0822159 0.996558 0.0105995 -0.042488 0.995851 0.080469 0.0226125 0.99881 0.0432063 
-0.126599 0.988176 0.0864897 -0.153535 0.987586 0.0331837 -0.105636 0.991901 0.0705155 
-0.137229 0.982239 0.127961 -0.13858 0.977851 0.156856 -0.15687 0.979601 0.125595 
-0.204764 0.9711 0.122627 0.514727 0.857064 -0.0223022 0.737884 0.674731 -0.0162902 
0.456853 0.861307 -0.222339 -0.243638 0.96184 0.124516 -0.336457 0.932829 0.128943 
-0.479332 0.871216 0.105938 0.80479 0.593457 -0.0110058 -0.606545 0.785463 0.123092 
-0.746636 0.652176 0.131151 0.948763 0.315314 -0.0206435 0.981669 0.189789 -0.0175204 
-0.848689 0.518015 0.106714 0.994688 0.0984772 -0.0299691 0.978807 0.0804481 -0.188321 
-0.980048 0.148996 0.131555 0.9907 -0.110261 -0.0797299 0.972699 -0.213443 -0.0911021 
0.973948 -0.127233 -0.187714 -0.96878 -0.219426 0.115398 0.916756 -0.381269 -0.119129 
-0.834419 -0.550411 0.0281446 -0.752687 -0.657563 0.0327705 0.743132 -0.648071 -0.166609 
0.712693 -0.680696 -0.169476 0.712785 -0.639535 -0.287981 0.434036 -0.872785 -0.22329 
-0.0243433 -0.986799 -0.160109 -0.151431 -0.984477 -0.0887354 -0.284436 -0.957345 -0.0508538 
-0.513157 -0.858294 0.00150867 -0.454227 -0.890782 -0.0136547 -0.411792 -0.887123 -0.208425 
0.389848 -0.889044 -0.240039 0.270782 -0.923517 -0.27165 0.253014 -0.83499 -0.488647 
0.180241 -0.928735 -0.323981 0.14866 -0.808781 -0.569011 0.0644063 -0.942072 -0.329168 
-0.0161841 -0.92668 -0.375503 -0.0897717 -0.914287 -0.394994 -0.0705352 -0.763795 -0.641593 
-0.123311 -0.931195 -0.343031 -0.0149014 -0.823538 -0.567066 -0.111921 -0.970396 -0.214023 
0.032145 -0.865988 -0.49903 -0.154584 -0.977268 -0.145092 -0.0671289 -0.925245 -0.373383 
-0.0744845 -0.984396 -0.159425 -0.142529 -0.977306 -0.156712 -0.138406 -0.972473 -0.187459 
-0.0723134 -0.987713 -0.138539 -0.0824696 -0.987631 -0.133355 -0.0803444 -0.987653 -0.134484 
-0.0804648 -0.987029 -0.138923 0.279853 0.847486 -0.451054 0.140516 0.905274 -0.400916 
0.124927 0.923125 -0.363638 0.124519 0.926468 -0.35518 0.0511565 0.954467 -0.293897 
-0.133469 0.954829 -0.265495 -0.127664 0.961296 -0.244156 -0.0386496 0.977856 -0.205678 
-0.0903346 0.984327 -0.151459 -0.141386 0.981074 -0.1323 -0.181028 0.97001 -0.1622 
-0.240952 0.955975 -0.167494 0.716049 0.520678 -0.46494 0.39189 0.810771 -0.434826 
0.437135 0.789421 -0.430961 0.291682 0.742339 -0.603203 0.171327 0.731754 -0.659684 
0.0776773 0.673558 -0.735041 -0.182187 0.883255 -0.432052 -0.246757 0.9537 -0.171951 
-0.242832 0.953464 -0.178713 -0.33989 0.906406 -0.250805 -0.481129 0.850999 -0.210515 
0.72124 0.511979 -0.466573 0.715868 0.507497 -0.479563 0.441612 0.475828 -0.760635 
-0.583198 0.776669 -0.238046 -0.49679 0.742421 -0.449455 -0.766296 0.581171 -0.273917 
0.798346 0.275616 -0.535425 0.668874 0.214631 -0.711717 -0.827738 0.482733 -0.286039 
-0.765748 0.435985 -0.472808 0.83105 0.0299791 -0.555389 0.636399 0.0665256 -0.768486 
-0.91889 0.154622 -0.362952 0.783771 -0.161421 -0.599705 0.625025 -0.079884 -0.776506 
-0.89942 -0.25869 -0.352311 -0.728456 -0.209112 -0.652398 0.721913 -0.377279 -0.580089 
0.642483 -0.474205 -0.601951 0.586182 -0.390617 -0.709795 0.284191 -0.407667 -0.86778 
-0.405227 -0.867723 -0.287832 -0.761389 -0.55312 -0.338149 -0.755126 -0.561628 -0.33817 
-0.75693 -0.549909 -0.353069 0.485816 -0.586783 -0.647818 0.374222 -0.652917 -0.658526 
0.38414 -0.576441 -0.721216 0.234638 -0.71778 -0.655543 0.229041 -0.546826 -0.805309 
0.139195 -0.771984 -0.620214 0.0998587 -0.514968 -0.851373 0.0265425 -0.529502 -0.847893 
0.0246008 -0.534482 -0.844822 -0.0638577 -0.740486 -0.669031 0.0677449 -0.630572 -0.773169 
0.0089651 -0.786803 -0.617139 0.0585807 -0.834975 -0.547161 -0.0547216 -0.915364 -0.398891 
-0.116439 -0.948684 -0.294007 -0.049149 -0.960788 -0.272893 -0.0855757 -0.945289 -0.314811 
-0.171444 -0.943486 -0.283621 -0.378404 -0.878956 -0.290252 -0.274399 -0.886407 -0.372811 
-0.288085 -0.826566 -0.483525 0.0721548 -0.756437 -0.650074 0.0403064 -0.745602 -0.665171 
0.0375872 -0.73532 -0.676677 -0.0576832 -0.735102 -0.675498 -0.0568172 -0.734946 -0.675741 
-0.0568935 -0.73401 -0.676751 0.140058 0.643245 -0.752741 0.114305 0.680157 -0.7241 
-0.0329849 0.749154 -0.661574 -0.061673 0.796169 -0.601923 -0.00826398 0.808575 -0.588335 
-0.056427 0.828873 -0.556583 -0.137068 0.847794 -0.512306 0.292333 0.528335 -0.797122 
0.166592 0.635085 -0.754264 0.114323 0.639895 -0.759911 0.0716827 0.627762 -0.775098 
0.140829 0.625227 -0.767632 0.118004 0.569359 -0.813576 -0.00214666 0.608936 -0.793216 
-0.0428096 0.709594 -0.703309 -0.00182956 0.727466 -0.686141 -0.04244 0.749717 -0.660396 
-0.156554 0.842806 -0.514945 -0.130651 0.820575 -0.556405 -0.174119 0.832124 -0.526547 
-0.250564 0.828166 -0.501356 -0.333218 0.759138 -0.559175 0.368919 0.447677 -0.814545 
0.429854 0.339564 -0.836613 0.272124 0.440358 -0.85559 0.14031 0.372178 -0.917494 
0.059574 0.375417 -0.924939 0.0496929 0.32642 -0.943918 0.0961585 0.293825 -0.95101 
0.0644216 0.297184 -0.952645 0.0254594 0.334218 -0.942152 0.0388485 0.327952 -0.943895 
0.0457528 0.333122 -0.941773 0.00410506 0.398338 -0.91723 -0.0958499 0.530499 -0.842249 
-0.211843 0.595573 -0.774865 -0.435789 0.693344 -0.573901 -0.328214 0.681318 -0.654279 
-0.500442 0.615169 -0.6092 0.483637 0.215298 -0.848376 0.419406 0.208067 -0.883633 
0.251141 0.152985 -0.955784 0.10442 0.166238 -0.980541 0.0422728 0.111962 -0.992813 
0.055831 0.151047 -0.986949 0.102459 0.271729 -0.956904 -0.305967 0.355861 -0.883033 
-0.65081 0.406639 -0.641164 -0.483142 0.391952 -0.78291 -0.740097 0.116518 -0.662329 
0.525082 0.0418327 -0.850023 0.388088 -0.0252484 -0.921276 0.222735 -0.0532599 -0.973423 
0.0960135 -0.0607868 -0.993522 0.0489778 -0.0795273 -0.995629 0.208188 -0.0710353 -0.975506 
-0.485888 0.121979 -0.865467 -0.741986 0.0794002 -0.665697 -0.737469 -0.112724 -0.665907 
-0.736501 0.0791877 -0.671785 0.435619 -0.163119 -0.885228 0.288772 -0.324708 -0.900653 
0.321839 -0.223978 -0.91992 0.212803 -0.212295 -0.953753 0.0808253 -0.23509 -0.968607 
0.0305367 -0.20999 -0.977227 0.122887 -0.258436 -0.95818 0.232265 -0.322947 -0.917474 
-0.723503 -0.208466 -0.658092 -0.47897 -0.221779 -0.849354 0.223504 -0.383156 -0.896235 
0.20621 -0.396458 -0.894594 0.194047 -0.364493 -0.910764 0.101645 -0.436462 -0.893963 
0.0977314 -0.359481 -0.928021 0.0306005 -0.473494 -0.880265 0.0306114 -0.347452 -0.937198 
0.0416228 -0.47534 -0.878817 0.0773961 -0.355323 -0.931534 0.0933947 -0.602137 -0.792911 
0.238409 -0.405262 -0.882566 0.187212 -0.391742 -0.900827 0.0846243 -0.452153 -0.887917 
-0.307621 -0.76751 -0.562403 -0.351039 -0.503852 -0.789243 -0.547452 -0.52565 -0.651144 
-0.480683 -0.594619 -0.644494 -0.495364 -0.52147 -0.694754 0.0694679 -0.728365 -0.681659 
0.0655304 -0.766718 -0.638631 0.0683299 -0.761937 -0.644036 0.0998572 -0.748602 -0.655456 
0.0943127 -0.738239 -0.667913 0.118671 -0.742851 -0.658855 0.129658 -0.682641 -0.719159 
0.028341 -0.835514 -0.548739 0.0803182 -0.715931 -0.693535 -0.0435654 -0.881683 -0.469827 
-0.00467039 -0.764973 -0.644045 -0.0810314 -0.871045 -0.484473 -0.0847365 -0.790646 -0.606382 
-0.252182 -0.813399 -0.5242 -0.198149 -0.852718 -0.48333 -0.21054 -0.791699 -0.573485 
0.0609319 0.282007 -0.957476 0.0120595 0.292251 -0.956266 0.0175574 0.281918 -0.959278 
0.0642912 0.250473 -0.965987 0.0436162 0.32908 -0.943294 -0.0612766 0.445871 -0.892997 
-0.175093 0.41936 -0.890775 0.0637732 0.281448 -0.957455 0.144892 0.189469 -0.971137 
0.0607705 0.281883 -0.957522 0.00883359 0.288746 -0.957365 0.0137657 0.279334 -0.960095 
0.0694956 0.220905 -0.972816 0.103185 0.240354 -0.965185 0.0141262 0.280021 -0.95989 
-0.276424 0.349468 -0.895244 -0.151369 0.32868 -0.932232 -0.304081 0.312423 -0.899959 
0.218468 -0.0380128 -0.975103 0.233193 -0.22292 -0.946535 0.222211 0.0043239 -0.974989 
0.0809216 0.0483658 -0.995546 0.0361557 0.112728 -0.992968 -0.0216966 0.19522 -0.980519 
0.018355 0.164594 -0.986191 0.0841999 0.151449 -0.984872 0.00955621 0.109471 -0.993944 
-0.121843 0.102412 -0.987252 -0.39181 0.11759 -0.912501 -0.29237 0.11804 -0.948992 
0.206857 -0.277253 -0.938265 0.179997 -0.28748 -0.940721 0.168874 -0.216788 -0.961501 
0.0976699 -0.407001 -0.908191 0.15367 -0.194063 -0.968878 0.0593442 -0.149178 -0.987028 
0.0253774 -0.0682383 -0.997346 0.0469968 -0.0818972 -0.995532 -0.0312783 -0.117119 -0.992625 
-0.138445 -0.144953 -0.979705 -0.376883 -0.195231 -0.905453 -0.32858 -0.353628 -0.875775 
-0.287272 -0.177698 -0.941222 0.0930055 -0.459344 -0.883376 0.100007 -0.481603 -0.870665 
0.09841 -0.468487 -0.877972 0.102663 -0.463638 -0.880057 0.0958316 -0.38418 -0.918271 
0.036615 -0.513977 -0.857022 0.0355568 -0.371395 -0.927794 -0.0765316 -0.529398 -0.844915 
-0.055526 -0.38558 -0.921002 -0.261164 -0.466044 -0.845338 -0.199017 -0.498975 -0.843455 
-0.188036 -0.446288 -0.874911 
