# vtk DataFile Version 4.2
vtk output
ASCII
DATASET POLYDATA
POINTS 560 float
-36.0984 -15.704 -17.8213 -43.3893 -8.41308 -17.8441 -43.3893 -1.12219 -18.0671 
-43.3893 -30.2858 -11.1319 -36.0984 -30.2858 -12.2929 -28.8075 -30.2858 -12.7851 
-21.5166 -30.2858 -12.2162 -14.2257 -30.2858 -11.5002 -6.9348 -30.2858 -10.9438 
0.356096 -30.2858 -10.772 7.64699 -30.2858 -11.3364 14.9379 -30.2858 -12.8854 
22.2288 -30.2858 -13.9426 29.5197 -30.2858 -14.4407 36.8106 -30.2858 -13.0627 
-50.6802 -22.9949 -11.4115 -43.3893 -22.9949 -14.836 -36.0984 -15.8876 -17.7682 
-36.0984 -22.9949 -15.2957 -28.8075 -22.9949 -15.5321 -21.5166 -22.9949 -14.2166 
-14.2257 -22.9949 -13.1933 -6.9348 -22.9949 -12.4245 0.356096 -22.9949 -12.0219 
7.64699 -22.9949 -12.8549 14.9379 -22.9949 -14.9409 22.2288 -22.9949 -16.483 
29.5197 -22.9949 -16.7623 36.8106 -22.9949 -15.9879 44.1015 -22.9949 -13.5228 
-50.6802 -15.704 -13.7962 -36.3762 -15.704 -17.7682 -43.3893 -8.73772 -17.7682 
-43.3893 -15.704 -16.1609 -35.7956 -15.704 -17.7682 -36.0984 -13.9595 -17.7682 
-28.8075 -15.704 -16.3795 -21.5166 -15.704 -14.9092 -14.2257 -15.704 -13.608 
-6.9348 -15.704 -12.8322 0.356096 -15.704 -12.0902 7.64699 -15.704 -12.2796 
14.9379 -15.704 -15.2157 22.2288 -15.704 -17.0246 29.5197 -15.704 -17.3419 
36.8106 -15.704 -17.2047 44.1015 -15.704 -15.1015 51.3924 -15.704 -11.6062 
-43.9601 -8.41308 -17.7682 -50.6802 -8.41308 -16.5819 -41.4203 -8.41308 -17.7682 
-36.0984 -8.41308 -17.5786 -28.8075 -8.41308 -16.8077 -21.5166 -8.41308 -15.5269 
-14.2257 -8.41308 -13.2481 -6.9348 -8.41308 -14.5822 0.356096 -8.41308 -15.3125 
7.64699 -8.41308 -12.8874 14.9379 -8.41308 -14.9686 22.2288 -8.41308 -16.1766 
29.5197 -8.41308 -16.4468 36.8106 -8.41308 -16.6281 44.1015 -8.41308 -14.796 
51.3924 -8.41308 -11.7691 -44.0971 -1.12219 -17.7682 -50.6802 -1.12219 -15.1038 
-36.5285 -1.12219 -17.7682 -43.3893 0.79204 -17.7682 -36.0984 -1.12219 -17.751 
-28.8075 -1.12219 -16.9384 -21.5166 -1.12219 -15.272 -14.2257 -1.12219 -13.6547 
-6.9348 -1.12219 -14.8438 7.64699 -1.12219 -16.1773 14.9379 -1.12219 -12.6293 
22.2288 -1.12219 -14.0664 29.5197 -1.12219 -15.1191 36.8106 -1.12219 -15.7361 
44.1015 -1.12219 -14.6614 51.3924 -1.12219 -11.5138 -50.6802 6.16871 -15.0989 
-43.3893 6.16871 -16.9234 -36.0984 6.16871 -17.1064 -28.8075 6.16871 -16.3749 
-21.5166 6.16871 -15.0878 -14.2257 6.16871 -13.1781 -6.9348 6.16871 -16.3592 
0.356096 6.16871 -13.9845 7.64699 6.16871 -15.9421 14.9379 6.16871 -12.3609 
22.2288 6.16871 -13.4676 29.5197 6.16871 -14.5396 36.8106 6.16871 -14.8848 
44.1015 6.16871 -14.2058 51.3924 6.16871 -11.0516 -50.6802 13.4596 -12.915 
-43.3893 13.4596 -15.1345 -36.0984 13.4596 -17.1877 -28.8075 13.4596 -15.322 
-21.5166 13.4596 -14.0197 -14.2257 13.4596 -13.1309 -6.9348 13.4596 -12.8791 
0.356096 13.4596 -13.0345 7.64699 13.4596 -13.2925 14.9379 13.4596 -13.9628 
22.2288 13.4596 -14.2305 29.5197 13.4596 -14.5702 36.8106 13.4596 -14.4158 
44.1015 13.4596 -13.4459 51.3924 13.4596 -10.5884 -43.3893 20.7505 -12.787 
-36.0984 20.7505 -14.027 -28.8075 20.7505 -15.4319 -21.5166 20.7505 -14.3235 
-14.2257 20.7505 -13.7925 -6.9348 20.7505 -14.2868 0.356096 20.7505 -14.075 
7.64699 20.7505 -13.976 14.9379 20.7505 -14.3716 22.2288 20.7505 -14.7543 
29.5197 20.7505 -14.8525 36.8106 20.7505 -14.1468 44.1015 20.7505 -11.1679 
-36.0984 28.0414 -13.3166 -28.8075 28.0414 -13.726 -21.5166 28.0414 -15.2805 
-14.2257 28.0414 -14.7935 -6.9348 28.0414 -14.8948 0.356096 28.0414 -14.4975 
7.64699 28.0414 -14.0047 14.9379 28.0414 -13.9651 22.2288 28.0414 -14.1285 
29.5197 28.0414 -13.4603 36.8106 28.0414 -11.4295 -36.0984 35.3323 -10.9042 
-28.8075 35.3323 -13.0892 -21.5166 35.3323 -13.6916 -14.2257 35.3323 -14.4695 
-6.9348 35.3323 -14.504 0.356096 35.3323 -13.7698 7.64699 35.3323 -12.6735 
14.9379 35.3323 -12.2711 22.2288 35.3323 -11.2245 -21.5166 42.6232 -10.906 
-14.2257 42.6232 -12.0864 -6.9348 42.6232 -11.8987 0.356096 42.6232 -10.5347 
-43.3893 -30.9785 -10.4773 -36.0984 -33.3406 -10.4773 -36.0984 -37.5767 -5.48445 
-28.8075 -34.9978 -10.4773 -28.8075 -37.5767 -8.51164 -21.5166 -34.4696 -10.4773 
-21.5166 -37.5767 -8.49349 -14.2257 -32.5555 -10.4773 -14.2257 -37.5767 -7.70582 
-6.9348 -31.3964 -10.4773 -6.9348 -37.5767 -7.49494 0.356096 -31.0168 -10.4773 
0.356096 -37.5767 -7.44768 7.64699 -32.1532 -10.4773 7.64699 -37.5767 -7.72754 
14.9379 -34.3433 -10.4773 14.9379 -37.5767 -8.36323 22.2288 -35.7519 -10.4773 
22.2288 -37.5767 -8.87982 29.5197 -36.0334 -10.4773 29.5197 -37.5767 -8.27618 
36.8106 -33.4629 -10.4773 36.8106 -37.5767 -3.35574 -44.3329 -30.2858 -10.4773 
-50.6802 -24.3276 -10.4773 42.8364 -30.2858 -10.4773 44.1015 -29.063 -10.4773 
44.1015 -30.2858 -9.37436 -51.7182 -22.9949 -10.4773 48.7535 -22.9949 -10.4773 
51.3924 -18.9977 -10.4773 51.3924 -22.9949 -7.63191 -54.2286 -15.704 -10.4773 
52.7313 -15.704 -10.4773 -56.8359 -8.41308 -10.4773 0.356096 -1.53046 -10.4773 
53.2271 -8.41308 -10.4773 58.6833 -8.41308 -3.60399 -57.1076 -1.12219 -10.4773 
-57.9711 -1.12219 -3.89864 0.0695816 -1.12219 -10.4773 0.653576 -1.12219 -10.4773 
0.356096 -0.77109 -10.4773 0.356096 -1.12219 -10.2105 52.9509 -1.12219 -10.4773 
58.6833 -1.12219 -4.27004 -55.1931 6.16871 -10.4773 52.2507 6.16871 -10.4773 
58.6833 6.16871 -3.67858 -53.2248 13.4596 -10.4773 -50.6802 17.9299 -10.4773 
51.5404 13.4596 -10.4773 51.3924 13.8219 -10.4773 -47.2796 20.7505 -10.4773 
-43.3893 27.8389 -10.4773 45.6469 20.7505 -10.4773 44.1015 23.3684 -10.4773 
51.3924 20.7505 -6.60517 -43.2422 28.0414 -10.4773 -43.3893 28.0414 -10.2251 
29.5197 33.8901 -10.4773 39.9131 28.0414 -10.4773 36.8106 29.8122 -10.4773 
44.1015 28.0414 -8.58647 -36.7299 35.3323 -10.4773 -36.0984 35.9805 -10.4773 
-28.8075 41.136 -10.4773 7.64699 39.5516 -10.4773 14.9379 38.7726 -10.4773 
25.3364 35.3323 -10.4773 22.2288 36.2979 -10.4773 29.5197 35.3323 -9.24174 
36.8106 35.3323 -5.30359 -24.3555 42.6232 -10.4773 -28.8075 42.6232 -9.16744 
-21.5166 43.1923 -10.4773 -14.2257 44.6897 -10.4773 -6.9348 44.5968 -10.4773 
0.565102 42.6232 -10.4773 0.356096 42.6908 -10.4773 7.64699 42.6232 -8.23553 
14.9379 42.6232 -6.18971 -36.0984 -38.5741 -3.18642 -28.8075 -41.0671 -3.18642 
-21.5166 -41.4726 -3.18642 -14.2257 -41.9434 -3.18642 -6.9348 -42.3379 -3.18642 
-6.9348 -44.8676 2.83828 0.356096 -42.1855 -3.18642 0.356096 -44.8676 3.37349 
7.64699 -42.0079 -3.18642 14.9379 -41.8428 -3.18642 22.2288 -41.5218 -3.18642 
29.5197 -40.033 -3.18642 36.8106 -37.6515 -3.18642 -38.2037 -37.5767 -3.18642 
-43.3893 -34.8834 -3.18642 36.9843 -37.5767 -3.18642 36.8106 -37.5767 -1.23016 
44.1015 -33.8064 -3.18642 -48.719 -30.2858 -3.18642 -50.6802 -27.9628 -3.18642 
48.003 -30.2858 -3.18642 51.3924 -26.4533 -3.18642 -54.2199 -22.9949 -3.18642 
53.8063 -22.9949 -3.18642 -56.6275 -15.704 -3.18642 57.4127 -15.704 -3.18642 
58.6833 -9.37813 -3.18642 -57.9525 -8.41308 -3.18642 -57.9711 -6.78856 -3.18642 
58.879 -8.41308 -3.18642 58.6833 -8.41308 -1.36108 -58.0358 -1.12219 -3.18642 
-57.9711 -0.827396 -3.18642 -57.9711 -1.12219 -3.04475 59.2694 -1.12219 -3.18642 
58.6833 -1.12219 1.16623 -56.3566 6.16871 -3.18642 58.9533 6.16871 -3.18642 
58.6833 7.11391 -3.18642 58.6833 6.16871 -1.27119 -53.7821 13.4596 -3.18642 
-50.6802 19.4631 -3.18642 -50.6802 13.4596 1.84846 56.7431 13.4596 -3.18642 
-50.0021 20.7505 -3.18642 53.6519 20.7505 -3.18642 51.3924 24.1592 -3.18642 
-44.9701 28.0414 -3.18642 -43.3893 30.3532 -3.18642 -43.3893 28.0414 -0.44324 
48.3078 28.0414 -3.18642 44.1015 31.8674 -3.18642 -39.8076 35.3323 -3.18642 
-36.0984 39.5493 -3.18642 -36.0984 35.3323 3.69711 22.2288 42.1539 -3.18642 
29.5197 39.4966 -3.18642 38.7616 35.3323 -3.18642 36.8106 36.4434 -3.18642 
-32.7526 42.6232 -3.18642 -28.8075 45.3214 -3.18642 -21.5166 48.5488 -3.18642 
-14.2257 49.3242 -3.18642 -6.9348 48.8968 -3.18642 0.356096 47.9167 -3.18642 
7.64699 46.078 -3.18642 20.602 42.6232 -3.18642 14.9379 44.1171 -3.18642 
-6.9348 -45.2504 4.10448 0.356096 -45.0979 4.10448 -36.0984 -39.0414 4.10448 
-28.8075 -41.6681 4.10448 -21.5166 -43.5048 4.10448 -10.7956 -44.8676 4.10448 
-14.2257 -44.5123 4.10448 -6.9348 -44.8676 5.32969 2.40391 -44.8676 4.10448 
0.356096 -44.8676 4.81115 7.64699 -44.272 4.10448 14.9379 -43.0658 4.10448 
22.2288 -41.7748 4.10448 29.5197 -40.0893 4.10448 -38.5121 -37.5767 4.10448 
-43.3893 -34.1346 4.10448 -36.0984 -37.5767 6.70126 -28.8075 -37.5767 10.2616 
22.2288 -37.5767 10.6401 36.2925 -37.5767 4.10448 29.5197 -37.5767 8.40315 
36.8106 -37.3468 4.10448 44.1015 -33.2961 4.10448 -47.1227 -30.2858 4.10448 
-50.6802 -25.1041 4.10448 -43.3893 -30.2858 9.16435 47.3649 -30.2858 4.10448 
44.1015 -30.2858 8.19476 51.3924 -25.535 4.10448 -51.9407 -22.9949 4.10448 
-50.6802 -22.9949 5.83484 -43.3893 -22.9949 10.962 53.1243 -22.9949 4.10448 
51.3924 -22.9949 6.65284 -53.8071 -15.704 4.10448 -50.6802 -15.704 7.64593 
56.0872 -15.704 4.10448 51.3924 -15.704 9.99329 -53.6377 -8.41308 4.10448 
-50.6802 -8.41308 7.23056 57.9526 -8.41308 4.10448 51.3924 -8.41308 10.2218 
-53.3223 -1.12219 4.10448 -50.6802 -1.12219 6.73681 58.1515 -1.12219 4.10448 
-51.999 6.16871 4.10448 -50.6802 9.62012 4.10448 -50.6802 6.16871 5.3778 
-43.3893 6.16871 9.47968 57.6274 6.16871 4.10448 51.3924 6.16871 11.0071 
-48.1425 13.4596 4.10448 -43.3893 13.4596 7.33206 -36.0984 13.4596 10.8103 
54.94 13.4596 4.10448 51.3924 13.4596 8.17661 -45.3092 20.7505 4.10448 
-43.3893 23.8951 4.10448 -43.3893 20.7505 5.76467 -36.0984 20.7505 8.85016 
44.1015 20.7505 10.1951 52.6981 20.7505 4.10448 51.3924 22.7708 4.10448 
51.3924 20.7505 5.67857 -39.8175 28.0414 4.10448 -36.0984 34.8144 4.10448 
-36.0984 28.0414 7.15644 -28.8075 28.0414 10.903 36.8106 28.0414 11.0639 
47.4806 28.0414 4.10448 44.1015 31.3035 4.10448 44.1015 28.0414 7.8958 
-35.773 35.3323 4.10448 -28.8075 35.3323 8.49198 22.2288 41.9321 4.10448 
29.5197 39.1002 4.10448 29.5197 35.3323 9.01821 38.0358 35.3323 4.10448 
36.8106 36.0302 4.10448 36.8106 35.3323 5.20633 -28.9942 42.6232 4.10448 
-28.8075 42.7684 4.10448 -28.8075 42.6232 4.25777 -21.5166 45.9172 4.10448 
[...]
POINT_DATA 560
SCALARS ImageScalars float
LOOKUP_TABLE default
0 0 0 0 0 0 0 0 0 
0 0 0 0 0 0 0 0 0 
0 0 0 0 0 0 0 0 0 
0 0 0 0 0 0 0 0 0 
0 0 0 0 0 0 0 0 0 
0 0 0 0 0 0 0 0 0 
0 0 0 0 0 0 0 0 0 
0 0 0 0 0 0 0 0 0 
0 0 0 0 0 0 0 0 0 
0 0 0 0 0 0 0 0 0 
0 0 0 0 0 0 0 0 0 
0 0 0 0 0 0 0 0 0 
0 0 0 0 0 0 0 0 0 
0 0 0 0 0 0 0 0 0 
0 0 0 0 0 0 0 0 0 
0 0 0 0 0 0 0 0 0 
0 0 0 0 0 0 0 0 0 
0 0 0 0 0 0 0 0 0 
0 0 0 0 0 0 0 0 0 
0 0 0 0 0 0 0 0 0 
0 0 0 0 0 0 0 0 0 
0 0 0 0 0 0 0 0 0 
0 0 0 0 0 0 0 0 0 
0 0 0 0 0 0 0 0 0 
0 0 0 0 0 0 0 0 0 
0 0 0 0 0 0 0 0 0 
0 0 0 0 0 0 0 0 0 
0 0 0 0 0 0 0 0 0 
0 0 0 0 0 0 0 0 0 
0 0 0 0 0 0 0 0 0 
0 0 0 0 0 0 0 0 0 
0 0 0 0 0 0 0 0 0 
0 0 0 0 0 0 0 0 0 
0 0 0 0 0 0 0 0 0 
0 0 0 0 0 0 0 0 0 
0 0 0 0 0 0 0 0 0 
0 0 0 0 0 0 0 0 0 
0 0 0 0 0 0 0 0 0 
0 0 0 0 0 0 0 0 0 
0 0 0 0 0 0 0 0 0 
0 0 0 0 0 0 0 0 0 
0 0 0 0 0 0 0 0 0 
0 0 0 0 0 0 0 0 0 
0 0 0 0 0 0 0 0 0 
0 0 0 0 0 0 0 0 0 
0 0 0 0 0 0 0 0 0 
0 0 0 0 0 0 0 0 0 
0 0 0 0 0 0 0 0 0 
0 0 0 0 0 0 0 0 0 
0 0 0 0 0 0 0 0 0 
0 0 0 0 0 0 0 0 0 
0 0 0 0 0 0 0 0 0 
0 0 0 0 0 0 0 0 0 
0 0 0 0 0 0 0 0 0 
0 0 0 0 0 0 0 0 0 
0 0 0 0 0 0 0 0 0 
0 0 0 0 0 0 0 0 0 
0 0 0 0 0 0 0 0 0 
0 0 0 0 0 0 0 0 0 
0 0 0 0 0 0 0 0 0 
0 0 0 0 0 0 0 0 0 
0 0 0 0 0 0 0 0 0 
0 0 
NORMALS Normals float
0.00831421 0.139709 0.990158 0.0478179 0.130963 0.990233 0.184042 -0.0614627 0.980995 
0.371785 0.606629 0.702693 0.110272 0.491715 0.863745 -0.00957087 0.405544 0.914025 
-0.0855339 0.325772 0.941571 -0.0814634 0.314364 0.945801 -0.0464866 0.292501 0.955135 
0.0219994 0.271055 0.962312 0.123546 0.306121 0.943942 0.160561 0.379486 0.911159 
0.0914368 0.418348 0.903672 -0.051722 0.432378 0.900208 -0.271969 0.518954 0.810383 
0.590914 0.453239 0.66738 0.251621 0.316202 0.914715 0.00850757 0.144004 0.989541 
0.0394281 0.328354 0.943731 -0.0733235 0.24158 0.967607 -0.151172 0.17196 0.973436 
-0.11994 0.138384 0.983089 -0.0786849 0.124977 0.989035 0.0286662 0.0866215 0.995829 
0.195965 0.0557336 0.979026 0.246195 0.131876 0.960207 0.120308 0.191472 0.974097 
-0.0298774 0.190473 0.981238 -0.18759 0.260318 0.947124 -0.436506 0.326143 0.838507 
0.568007 0.327545 0.755038 0.0154515 0.140846 0.989911 0.0539894 0.132411 0.989723 
0.227192 0.179834 0.957102 0.00044035 0.137567 0.990492 -0.00974756 0.106404 0.994275 
-0.187736 0.0825495 0.978745 -0.189141 0.0865375 0.978129 -0.138688 0.00315722 0.990331 
-0.102914 0.107598 0.988854 -0.042635 0.140913 0.989103 0.217598 -0.000569465 0.976038 
0.307829 0.00210196 0.951439 0.141033 -0.0169537 0.98986 0.0128287 -0.0219832 0.999676 
-0.156835 0.0374356 0.986915 -0.35084 0.0590933 0.934569 -0.595748 0.156596 0.787758 
0.0783498 0.121725 0.989467 0.445411 0.0379029 0.894523 0.013664 0.0924904 0.99562 
-0.0689465 -0.00436281 0.997611 -0.142765 0.0394893 0.988968 -0.243633 0.0237329 0.969577 
-0.0955435 0.00326329 0.99542 0.149212 0.170934 0.973919 -0.161828 -0.0121635 0.986744 
0.0436822 0.203928 0.978011 0.207438 -0.170667 0.963246 0.0987403 -0.205689 0.973623 
0.0287167 -0.150674 0.988166 -0.106926 -0.094597 0.989757 -0.287349 -0.0316132 0.957304 
-0.501684 -0.00467328 0.865038 0.209679 -0.062212 0.975789 0.484006 -0.0746833 0.871872 
-0.0607333 -0.0338375 0.99758 0.159545 -0.108208 0.981242 -0.0749958 -0.0321457 0.996666 
-0.167455 -0.0274208 0.985498 -0.226757 -0.0297403 0.973497 -0.0378997 -0.00354707 0.999275 
-0.142658 0.0768837 0.986781 0.0236226 0.254086 0.966893 -0.0701233 -0.181662 0.980857 
0.166009 -0.173189 0.970797 0.111 -0.129122 0.985397 -0.0410039 -0.118923 0.992056 
-0.243052 -0.0399422 0.969191 -0.514486 -0.0421493 0.856462 0.516605 -0.147024 0.843507 
0.10508 -0.227188 0.968165 -0.0359548 -0.0393006 0.99858 -0.1396 -0.112176 0.983834 
-0.20749 -0.0853472 0.974507 -0.0281713 -0.0385089 0.998861 0.0794733 -0.196696 0.977238 
0.0182309 0.111779 0.993566 -0.151006 -0.226823 0.962158 -0.0962992 0.0880321 0.991452 
0.148745 0.0119681 0.988803 0.0958214 -0.0372949 0.9947 -0.0259518 -0.0889695 0.995696 
-0.226848 -0.0779902 0.970803 -0.511466 -0.05953 0.857239 0.635687 -0.377146 0.673545 
0.268058 -0.225396 0.936665 0.0352475 -0.209183 0.977241 -0.204817 -0.0609287 0.976902 
-0.152266 -0.0523892 0.98695 -0.0800335 0.0436162 0.995837 -0.00691093 -0.0173142 0.999826 
0.0281911 0.0125604 0.999524 0.0628965 -0.0805504 0.994764 0.064147 0.141613 0.987841 
0.0413376 0.0895091 0.995128 0.0129464 0.0206405 0.999703 -0.0694541 -0.0540052 0.996122 
-0.269006 -0.190464 0.944118 -0.535554 -0.175145 0.826139 0.352662 -0.391312 0.850003 
0.154382 -0.2418 0.957966 0.0132704 -0.108502 0.994008 -0.108199 0.0828719 0.990669 
-0.00252483 0.115671 0.993284 0.0192766 0.137105 0.990369 -0.0215314 0.10124 0.994629 
0.020307 0.0466365 0.998706 0.0532416 -0.00141174 0.998581 0.032765 -0.0047514 0.999452 
-0.0500491 -0.0836133 0.995241 -0.204522 -0.157404 0.966124 -0.421187 -0.261244 0.868535 
0.227059 -0.232558 0.945707 0.122153 -0.144284 0.981968 0.0712869 -0.0397144 0.996665 
-0.0250224 0.0472931 0.998568 -0.0201936 0.0163003 0.999663 -0.0608629 -0.0172223 0.997998 
-0.0364989 -0.0827562 0.995901 0.00783607 -0.142846 0.989714 -0.0378353 -0.200469 0.978969 
-0.151874 -0.303775 0.940561 -0.293141 -0.454045 0.841375 0.477185 -0.479837 0.736241 
0.202985 -0.267191 0.942022 0.0827944 -0.252116 0.964149 0.0549491 -0.15415 0.986518 
-0.0457722 -0.199044 0.978921 -0.1224 -0.22794 0.965951 -0.0998062 -0.314124 0.944121 
-0.0817506 -0.365064 0.927386 -0.179844 -0.527101 0.830554 0.14157 -0.533057 0.834151 
0.0564882 -0.511076 0.857677 -0.085655 -0.513057 0.85407 -0.212039 -0.585004 0.782822 
0.38199 0.643091 0.663715 0.195626 0.602295 0.773933 0.359556 0.853546 0.377067 
0.0395709 0.566299 0.823249 0.0854947 0.727425 0.68084 -0.0769674 0.51076 0.856271 
-0.0461215 0.691741 0.720671 -0.0833462 0.395159 0.914824 -0.0471522 0.635046 0.771034 
-0.0434335 0.328446 0.943524 -0.0143826 0.583463 0.812012 0.0204703 0.295977 0.954976 
0.0129561 0.58329 0.81216 0.103162 0.369072 0.923658 0.0503206 0.620933 0.782247 
0.120002 0.519574 0.845957 0.0617707 0.685622 0.725332 0.0613583 0.633758 0.771094 
0.00691371 0.750774 0.660523 -0.116637 0.731675 0.671601 -0.169016 0.846205 0.505342 
-0.315437 0.66056 0.681293 -0.3549 0.914534 0.194097 0.412523 0.622471 0.665097 
0.621 0.481634 0.618376 -0.463845 0.57853 0.670933 -0.493638 0.549531 0.674045 
-0.527334 0.613403 0.587925 0.658238 0.454879 0.59984 -0.586155 0.396878 0.706336 
-0.637605 0.262157 0.724385 -0.729572 0.478714 0.488423 0.748 0.301323 0.591355 
-0.653614 0.17533 0.73624 0.863191 0.144729 0.483689 -0.0187252 0.0392029 0.999056 
-0.602839 0.018149 0.797657 -0.970393 0.129414 0.203935 0.875004 -0.0869839 0.476237 
0.985244 -0.107796 -0.132945 -0.0307751 0.0510609 0.998221 -0.00628303 0.0586061 0.998261 
-0.0108554 0.0643696 0.997867 -0.0281301 0.0450693 0.998588 -0.584744 -0.0399919 0.810232 
-0.96174 -0.00153751 0.273958 0.83639 -0.240703 0.492456 -0.551446 -0.0654212 0.831641 
-0.95632 -0.169772 0.237969 0.799976 -0.371932 0.470855 0.702609 -0.497085 0.509164 
-0.542346 -0.179476 0.820761 -0.542611 -0.19121 0.817932 0.56929 -0.53728 0.622285 
0.615583 -0.479137 0.625688 -0.486433 -0.301066 0.820209 -0.456581 -0.329249 0.826516 
-0.742946 -0.521809 0.419222 0.615506 -0.475826 0.628285 0.636184 -0.488641 0.597076 
-0.20647 -0.582195 0.786397 -0.371393 -0.464818 0.803749 -0.315488 -0.511544 0.799243 
-0.531167 -0.534009 0.657796 0.5152 -0.508116 0.690208 0.503931 -0.514094 0.69409 
0.321288 -0.550218 0.770736 -0.125217 -0.515672 0.847587 -0.132252 -0.548991 0.825299 
-0.200507 -0.584459 0.78626 -0.20362 -0.571572 0.794887 -0.23974 -0.689921 0.683033 
-0.446824 -0.818512 0.361089 0.220088 -0.56829 0.792848 0.393728 -0.678373 0.620313 
0.14423 -0.550573 0.822233 0.0649607 -0.596538 0.799952 -0.0972108 -0.606764 0.788915 
-0.211152 -0.587606 0.781111 -0.213164 -0.587578 0.780585 -0.187058 -0.74175 0.644062 
-0.229856 -0.867538 0.441071 0.37838 0.894656 0.237527 0.190526 0.921615 0.338121 
0.0555384 0.883299 0.465508 0.0509775 0.826774 0.560219 0.0141209 0.807173 0.590146 
0.0365482 0.995974 0.0818573 -0.0183398 0.814538 0.57982 -0.064539 0.996946 0.0439711 
-0.0204338 0.853151 0.521264 -0.0314063 0.9134 0.405849 -0.122981 0.946794 0.297416 
-0.243027 0.945195 0.218046 -0.354855 0.916503 0.184665 0.416242 0.882474 0.219049 
0.525581 0.832207 0.176625 -0.359331 0.914701 0.18494 -0.372124 0.925599 0.0692081 
-0.589322 0.786644 0.184096 0.727831 0.680133 0.0876355 0.800645 0.597452 0.044928 
-0.693108 0.702897 0.159803 -0.770752 0.615777 0.163583 0.887909 0.459867 -0.0118094 
-0.825127 0.535244 0.180772 0.969548 0.236276 -0.0644219 -0.937028 0.296929 0.183881 
-0.971513 0.151495 0.182242 0.982068 0.0914213 -0.16488 0.984078 0.0490905 -0.170824 
-0.975164 0.129113 0.179958 -0.990333 0.131142 0.0452005 0.976199 -0.107797 -0.188188 
0.974924 -0.114392 -0.190885 0.973953 -0.108871 -0.198905 -0.980404 0.00461013 0.196944 
-0.982798 -0.00610474 -0.184585 0.944101 -0.262985 -0.198777 -0.964415 -0.16756 0.204516 
-0.960428 -0.187227 0.206213 -0.983341 -0.176802 0.042216 0.879624 -0.415973 -0.230709 
0.853723 -0.476914 -0.209068 0.70911 -0.401255 -0.579791 -0.926708 -0.32637 0.186264 
0.854487 -0.485482 -0.184822 -0.834566 -0.507223 0.215 -0.783669 -0.578743 0.225651 
0.809468 -0.571139 -0.13624 0.809467 -0.576153 -0.113185 0.773917 -0.544049 -0.324133 
-0.718699 -0.65599 0.23054 -0.609416 -0.759166 0.228647 0.77444 -0.630453 -0.0526524 
0.708372 -0.705671 -0.0153699 0.646799 -0.474237 -0.597286 -0.29393 -0.92787 0.229485 
-0.352782 -0.90577 0.234789 -0.491124 -0.845347 0.210203 -0.456149 -0.865282 0.207884 
0.613742 -0.789202 0.0219298 0.49986 -0.86499 0.0439609 0.261405 -0.961015 0.0901021 
0.0234896 -0.992206 0.122377 -0.0940469 -0.981597 0.1662 -0.201784 -0.954825 0.218156 
-0.249172 -0.935087 0.252043 -0.287563 -0.930876 0.225336 -0.267126 -0.935311 0.232029 
0.0392235 0.999224 -0.00360803 -0.0668803 0.997754 -0.00380195 0.451805 0.862476 -0.228052 
0.305817 0.930582 -0.201231 0.187205 0.980721 -0.0560418 0.0801198 0.996722 -0.0112303 
0.118355 0.992778 -0.0195896 0.0388989 0.994891 -0.0931595 -0.0859174 0.996072 -0.0214401 
-0.0707704 0.995907 -0.0562233 -0.136272 0.988393 -0.0671481 -0.170175 0.978202 -0.118999 
-0.202145 0.95285 -0.226306 -0.276943 0.928861 -0.246008 0.501418 0.825861 -0.25794 
0.618754 0.713009 -0.329789 0.456706 0.786283 -0.416147 0.320815 0.698462 -0.63971 
-0.197702 0.679995 -0.70606 -0.384646 0.885332 -0.261217 -0.252798 0.822726 -0.509131 
-0.395032 0.879634 -0.264943 -0.58862 0.752516 -0.295375 0.727715 0.570708 -0.380425 
0.776291 0.442445 -0.449015 0.581146 0.472769 -0.662389 -0.675535 0.678084 -0.289575 
-0.559327 0.61038 -0.560883 -0.77982 0.540851 -0.315216 0.793962 0.392815 -0.464027 
0.736182 0.378367 -0.561137 0.518498 0.17676 -0.83661 -0.818612 0.466936 -0.334433 
-0.749832 0.436078 -0.497582 0.82154 0.114867 -0.55846 0.698639 0.0663208 -0.712394 
-0.86324 0.28461 -0.416911 -0.690692 0.150326 -0.707352 0.739949 -0.0267549 -0.67213 
0.677398 -0.0461293 -0.734169 -0.907095 0.119108 -0.403722 -0.583405 0.0786112 -0.808368 
0.712305 -0.100471 -0.694642 0.659618 -0.108778 -0.743688 -0.895287 -0.016254 -0.445193 
0.688723 -0.221564 -0.690341 0.647813 -0.284925 -0.70651 0.636748 -0.224454 -0.73768 
0.443373 -0.22937 -0.866493 -0.870202 -0.174904 -0.460606 -0.525245 -0.158612 -0.836038 
0.597858 -0.330974 -0.730083 0.508823 -0.246785 -0.82474 0.34351 -0.248649 -0.905635 
-0.825957 -0.287823 -0.484719 -0.64188 -0.26189 -0.720697 0.621721 -0.344656 -0.703331 
0.61937 -0.370811 -0.692011 0.54602 -0.31076 -0.778004 0.421148 -0.199738 -0.884725 
-0.512118 -0.214799 -0.831623 -0.800274 -0.421402 -0.426592 -0.77405 -0.475601 -0.417911 
-0.753055 -0.421438 -0.505271 0.608405 -0.400282 -0.685287 0.628941 -0.448513 -0.635035 
0.536424 -0.29302 -0.791447 0.411044 -0.237149 -0.880229 -0.358313 -0.467703 -0.808001 
-0.697851 -0.611988 -0.372121 -0.612981 -0.708898 -0.34888 -0.572569 -0.521467 -0.632643 
0.628315 -0.455254 -0.630844 0.502177 -0.357538 -0.787391 -0.314345 -0.908724 -0.274604 
-0.35739 -0.877745 -0.319118 -0.298291 -0.715361 -0.631887 -0.479842 -0.819329 -0.313769 
-0.457848 -0.832535 -0.311867 -0.453795 -0.803671 -0.384945 0.494765 -0.665507 -0.558846 
0.490288 -0.669421 -0.558116 0.490535 -0.662675 -0.565895 0.321166 -0.786478 -0.527546 
0.31347 -0.661924 -0.680877 0.12972 -0.892186 -0.432639 0.137667 -0.65195 -0.74566 
-0.036851 -0.939809 -0.339706 0.0334684 -0.620529 -0.783469 -0.164594 -0.93325 -0.319301 
-0.100441 -0.67971 -0.726571 -0.220231 -0.929166 -0.296898 -0.192964 -0.778232 -0.597595 
-0.292375 -0.916046 -0.274548 -0.243732 -0.925433 -0.290118 -0.226949 -0.874355 -0.428949 
0.219405 0.685113 -0.694609 0.113736 0.738356 -0.664751 0.0373365 0.75363 -0.656238 
-0.0887759 0.734491 -0.672787 -0.146034 0.704459 -0.694558 -0.178354 0.651522 -0.737366 
0.362486 0.481128 -0.798198 0.287349 0.633865 -0.718085 0.308619 0.609823 -0.72998 
0.199286 0.549836 -0.811151 0.133539 0.505751 -0.852281 0.0197628 0.513763 -0.857704 
-0.0814838 0.496063 -0.864455 -0.143445 0.541324 -0.828488 -0.189606 0.627984 -0.754775 
-0.180354 0.564152 -0.805733 -0.180201 0.622419 -0.761657 -0.207799 0.643015 -0.737124 
-0.358613 0.577079 -0.733741 0.418416 0.421963 -0.804285 0.352348 0.423326 -0.834653 
0.213128 0.349856 -0.912237 0.115636 0.27824 -0.953526 0.072784 0.188599 -0.979353 
0.0138614 0.11213 -0.993597 -0.0231843 0.162869 -0.986375 -0.106181 0.182699 -0.977418 
-0.0760195 0.273755 -0.95879 -0.0753642 0.415492 -0.906469 -0.144011 0.402906 -0.903841 
-0.405662 0.529746 -0.744854 -0.352846 0.526145 -0.773739 -0.464208 0.395646 -0.792448 
0.499222 0.17577 -0.848459 0.509462 0.144174 -0.848329 0.347513 0.205367 -0.914909 
0.183838 0.159003 -0.970011 0.0580304 0.118459 -0.991262 -0.0322175 0.0123686 -0.999404 
-0.00511672 -0.0255235 -0.999661 -0.0330865 -0.010957 -0.999392 -0.0340093 0.00423112 -0.999413 
0.0312671 0.114648 -0.992914 -0.0178014 0.14365 -0.989468 -0.135919 0.19084 -0.972166 
-0.25672 0.217258 -0.94175 -0.488752 0.3437 -0.801867 -0.453986 0.33224 -0.826748 
0.532068 0.0781743 -0.843085 0.50628 0.0775517 -0.858875 0.318083 0.0651783 -0.94582 
0.0933904 0.0462488 -0.994555 -0.0390959 -0.0147513 -0.999127 -0.069141 -0.0489594 -0.996405 
-0.0110891 -0.0321064 -0.999423 0.00494083 0.00457366 -0.999977 0.0309706 0.00713484 -0.999495 
0.0694293 0.0190817 -0.997404 0.00468512 -0.0269492 -0.999626 -0.0842627 -0.0017687 -0.996442 
-0.225112 0.0412324 -0.97346 -0.602137 0.131011 -0.78757 -0.358518 0.103036 -0.927819 
0.522448 -0.041699 -0.851651 0.488532 -0.0538112 -0.870885 0.297256 -0.0910505 -0.950446 
0.124428 -0.0664912 -0.989998 -0.0372327 -0.0229469 -0.999043 -0.0518714 -0.0283594 -0.998251 
0.0513279 0.0258454 -0.998347 0.0032933 -0.0200349 -0.999794 -0.0197656 0.0272122 -0.999434 
-0.000841483 -0.107787 -0.994174 -0.0380285 -0.17452 -0.983919 -0.0725021 -0.137805 -0.987802 
-0.162979 -0.096963 -0.981853 -0.505227 0.0435621 -0.861887 -0.327494 -0.0547165 -0.943268 
-0.521138 0.0544882 -0.851731 0.451994 -0.176013 -0.874483 0.443043 -0.181032 -0.878032 
0.441792 -0.176996 -0.879484 0.318137 -0.190837 -0.928639 0.174702 -0.141059 -0.974465 
0.000697418 -0.0586448 -0.998279 -0.0219523 0.0358738 -0.999115 -0.00447694 -0.0019124 -0.999988 
0.00890408 -0.00505101 -0.999948 -0.0557241 0.0672619 -0.996178 -0.140132 -0.131072 -0.981419 
-0.0162566 -0.148775 -0.988737 -0.012255 -0.118101 -0.992926 -0.135448 -0.102205 -0.985499 
-0.237559 -0.070872 -0.968784 -0.522361 0.0456942 -0.851499 -0.516599 -0.0473626 -0.854917 
-0.508325 0.0466039 -0.859903 0.393275 -0.23753 -0.888208 0.340253 -0.252586 -0.905775 
0.346756 -0.254432 -0.902787 0.2648 -0.209451 -0.941282 0.135119 -0.0816811 -0.987457 
0.0080937 0.0667644 -0.997736 0.00845594 -0.00781941 -0.999934 0.0762809 -0.026281 -0.99674 
-0.143572 -0.0168613 -0.989496 -0.214601 0.0575182 -0.975007 -0.0309174 0.0446469 -0.998524 
-0.0259974 -0.0208624 -0.999444 -0.102798 -0.0594256 -0.992926 -0.480967 -0.153512 -0.863194 
-0.244617 -0.107926 -0.963595 0.338619 -0.23201 -0.911871 0.344669 -0.159256 -0.925117 
0.270306 -0.088781 -0.958672 0.0498704 0.00407172 -0.998747 -0.0946374 0.0261343 -0.995169 
-0.000723586 -0.0312745 -0.999511 0.0193126 -0.0794776 -0.99665 -0.0728614 0.0989002 -0.992426 
-0.0963354 0.11172 -0.989059 -0.115651 0.0210853 -0.993066 -0.206762 -0.0140334 -0.978291 
-0.369185 -0.200501 -0.90747 -0.379155 -0.188688 -0.905891 -0.333532 -0.187016 -0.924003 
0.425461 -0.165415 -0.889731 0.409447 -0.21457 -0.886743 0.41691 -0.161483 -0.894488 
0.314821 -0.114579 -0.94221 0.115913 -0.0723754 -0.990619 -0.0293855 -0.00685024 -0.999545 
-0.0326805 0.0332103 -0.998914 -0.00918235 -0.0346412 -0.999358 -0.0257653 -0.0390125 -0.998906 
-0.113939 -0.0597433 -0.99169 -0.154945 -0.0712253 -0.985352 -0.447395 -0.18858 -0.874229 
-0.352205 -0.437644 -0.827297 -0.280724 -0.153694 -0.947403 0.398648 -0.225656 -0.888909 
0.350863 -0.168231 -0.921191 0.159506 -0.190477 -0.968647 0.0134693 -0.142057 -0.989767 
-0.0281483 -0.118083 -0.992605 -0.0521831 -0.151089 -0.987142 -0.0975221 -0.214892 -0.971757 
-0.124243 -0.282145 -0.951293 -0.345367 -0.451317 -0.822821 -0.26715 -0.550232 -0.791123 
-0.220067 -0.315454 -0.92307 0.411829 -0.328666 -0.849927 0.332243 -0.451271 -0.828233 
0.339527 -0.319445 -0.88469 0.134631 -0.558903 -0.818231 0.157211 -0.360896 -0.91926 
0.0357792 -0.60406 -0.796135 0.0454531 -0.335323 -0.941006 -0.0900423 -0.625636 -0.774902 
-0.0461464 -0.346478 -0.936922 -0.16722 -0.611394 -0.773456 -0.114786 -0.404991 -0.907087 
-0.181508 -0.590728 -0.786191 -0.169385 -0.477248 -0.862289 -0.232652 -0.560346 -0.794912 
-0.227189 -0.558052 -0.7981 -0.222044 -0.53532 -0.814941 
