# vtk DataFile Version 4.2
vtk output
ASCII
DATASET POLYDATA
POINTS 556 float
-25.2664 -15.1439 -20.835 -32.7742 7.37946 -20.6968 -25.2664 -37.6672 -13.5543 
-17.7586 -37.6672 -14.4095 -10.2508 -37.6672 -15.1193 -2.74305 -37.6672 -15.3864 
4.76474 -37.6672 -15.0417 12.2725 -37.6672 -14.4604 19.7803 -37.6672 -13.308 
-40.282 -30.1595 -13.924 -32.7742 -30.1595 -17.2866 -25.2664 -30.1595 -18.158 
-17.7586 -30.1595 -18.5786 -10.2508 -30.1595 -18.2189 -2.74305 -30.1595 -17.8396 
4.76474 -30.1595 -17.4952 12.2725 -30.1595 -17.4155 19.7803 -30.1595 -16.1191 
27.2881 -30.1595 -14.2088 -40.282 -22.6517 -17.6762 -32.7742 -22.6517 -19.5733 
-25.2664 -16.6643 -20.6716 -25.2664 -22.6517 -20.0226 -17.7586 -22.6517 -20.153 
-10.2508 -22.6517 -18.999 -2.74305 -22.6517 -18.4586 4.76474 -22.6517 -18.0497 
12.2725 -22.6517 -17.887 19.7803 -22.6517 -17.1806 27.2881 -22.6517 -15.5987 
34.7959 -22.6517 -13.17 -47.7897 -15.1439 -15.4137 -40.282 -15.1439 -18.6406 
-26.9976 -15.1439 -20.6716 -32.7742 -15.1439 -20.1725 -24.0408 -15.1439 -20.6716 
-25.2664 -13.8589 -20.6716 -17.7586 -15.1439 -19.839 -10.2508 -15.1439 -19.0376 
-2.74305 -15.1439 -18.2442 4.76474 -15.1439 -17.7185 12.2725 -15.1439 -17.6482 
19.7803 -15.1439 -17.1866 27.2881 -15.1439 -15.4546 -47.7897 -7.6361 -17.0209 
-40.282 -7.6361 -19.2862 -32.7742 -7.6361 -20.103 -25.2664 -7.6361 -19.886 
-17.7586 -7.6361 -19.4355 -10.2508 -7.6361 -19.38 -2.74305 -7.6361 -19.4917 
4.76474 -7.6361 -17.8337 12.2725 -7.6361 -17.4926 19.7803 -7.6361 -16.759 
27.2881 -7.6361 -14.5516 -47.7897 -0.128321 -16.9794 -40.282 -0.128321 -19.5332 
-32.7742 6.98911 -20.6716 -32.7742 -0.128321 -20.2154 -25.2664 -0.128321 -19.8161 
-17.7586 -0.128321 -19.1676 -10.2508 -0.128321 -19.9035 -2.74305 -0.128321 -18.2637 
4.76474 -0.128321 -15.5609 12.2725 -0.128321 -16.8016 19.7803 -0.128321 -15.6408 
27.2881 -0.128321 -13.2355 -47.7897 7.37946 -17.0289 -32.9538 7.37946 -20.6716 
-40.282 7.37946 -19.5857 -32.0894 7.37946 -20.6716 -32.7742 7.74019 -20.6716 
-25.2664 7.37946 -20.4224 -17.7586 7.37946 -19.6179 -10.2508 7.37946 -18.8576 
-2.74305 7.37946 -18.8373 4.76474 7.37946 -18.4636 12.2725 7.37946 -15.9885 
19.7803 7.37946 -14.3288 -47.7897 14.8872 -14.7399 -40.282 14.8872 -18.7603 
-32.7742 14.8872 -20.2012 -25.2664 14.8872 -20.3179 -17.7586 14.8872 -19.484 
-10.2508 14.8872 -17.9791 -2.74305 14.8872 -17.4706 4.76474 14.8872 -17.6814 
12.2725 14.8872 -15.2338 19.7803 14.8872 -13.8843 -40.282 22.395 -16.8028 
-32.7742 22.395 -19.1152 -25.2664 22.395 -19.596 -17.7586 22.395 -19.6577 
-10.2508 22.395 -18.3619 -2.74305 22.395 -17.6195 4.76474 22.395 -16.1737 
12.2725 22.395 -14.3089 19.7803 22.395 -13.3823 -32.7742 29.9028 -16.4767 
-25.2664 29.9028 -18.325 -17.7586 29.9028 -19.361 -10.2508 29.9028 -18.1473 
-2.74305 29.9028 -17.1319 4.76474 29.9028 -15.163 12.2725 29.9028 -13.2806 
-25.2664 37.4106 -15.7893 -17.7586 37.4106 -17.2418 -10.2508 37.4106 -16.5102 
-2.74305 37.4106 -15.0025 -25.2664 -38.0265 -13.1638 -17.7586 -38.9022 -13.1638 
-10.2508 -40.0792 -13.1638 -2.74305 -40.5271 -13.1638 4.76474 -40.095 -13.1638 
12.2725 -39.2707 -13.1638 19.7803 -37.8503 -13.1638 -40.282 -31.0327 -13.1638 
-26.3201 -37.6672 -13.1638 -32.7742 -34.9385 -13.1638 -32.7742 -37.6672 -8.56894 
20.3047 -37.6672 -13.1638 27.2881 -32.8706 -13.1638 27.2881 -37.6672 -10.8206 
-41.319 -30.1595 -13.1638 30.3943 -30.1595 -13.1638 34.7959 -22.6868 -13.1638 
34.7959 -30.1595 -11.572 -47.4413 -22.6517 -13.1638 -47.7897 -22.0371 -13.1638 
-47.7897 -22.6517 -12.7645 34.8077 -22.6517 -13.1638 34.7959 -22.5506 -13.1638 
42.3036 -22.6517 -8.12274 -50.3514 -15.1439 -13.1638 33.4627 -15.1439 -13.1638 
34.7959 -15.1439 -12.6908 42.3036 -15.1439 -9.58041 -52.1293 -7.6361 -13.1638 
-55.2975 -7.6361 -5.69107 31.4566 -7.6361 -13.1638 34.7959 -7.6361 -12.1148 
42.3036 -7.6361 -9.42208 -52.2248 -0.128321 -13.1638 -55.2975 -0.128321 -7.45625 
27.534 -0.128321 -13.1638 27.2881 0.512092 -13.1638 34.7959 -0.128321 -11.114 
42.3036 -0.128321 -8.53523 -52.0194 7.37946 -13.1638 24.3428 7.37946 -13.1638 
27.2881 7.37946 -12.4228 34.7959 7.37946 -10.6133 42.3036 7.37946 -7.69319 
-49.3696 14.8872 -13.1638 -47.7897 17.562 -13.1638 23.7811 14.8872 -13.1638 
27.2881 14.8872 -12.5175 34.7959 14.8872 -10.4082 42.3036 14.8872 -7.39784 
-44.6033 22.395 -13.1638 -40.282 27.738 -13.1638 21.0544 22.395 -13.1638 
19.7803 23.323 -13.1638 27.2881 22.395 -12.1212 34.7959 22.395 -9.72118 
-37.8093 29.9028 -13.1638 -40.282 29.9028 -9.2684 -32.7742 34.8108 -13.1638 
4.76474 35.8202 -13.1638 12.8037 29.9028 -13.1638 12.2725 30.2384 -13.1638 
19.7803 29.9028 -11.5853 27.2881 29.9028 -10.2159 34.7959 29.9028 -7.63208 
-29.9972 37.4106 -13.1638 -32.7742 37.4106 -9.21869 -25.2664 40.4604 -13.1638 
-17.7586 42.7627 -13.1638 -10.2508 43.014 -13.1638 3.05273 37.4106 -13.1638 
-2.74305 40.4995 -13.1638 4.76474 37.4106 -12.5634 12.2725 37.4106 -10.1607 
19.7803 37.4106 -8.22794 -17.7586 44.9184 -10.2346 -10.2508 44.9184 -11.0631 
-2.74305 44.9184 -9.19127 4.76474 44.9184 -6.39474 -32.7742 -38.955 -5.65601 
-25.2664 -41.5703 -5.65601 -17.7586 -43.3035 -5.65601 -10.2508 -44.4699 -5.65601 
-2.74305 -44.9077 -5.65601 4.76474 -44.9101 -5.65601 12.2725 -45.103 -5.65601 
12.2725 -45.175 -2.45957 19.7803 -43.8142 -5.65601 27.2881 -42.2036 -5.65601 
-35.6554 -37.6672 -5.65601 -40.282 -35.2599 -5.65601 34.4945 -37.6672 -5.65601 
34.7959 -37.4417 -5.65601 34.7959 -37.6672 -5.15479 -46.48 -30.1595 -5.65601 
-47.7897 -28.5616 -5.65601 41.3702 -30.1595 -5.65601 42.3036 -28.1589 -5.65601 
42.3036 -30.1595 -4.24533 -51.3263 -22.6517 -5.65601 45.8133 -22.6517 -5.65601 
49.8114 -22.6517 -1.17339 -54.0417 -15.1439 -5.65601 -55.2975 -7.71595 -5.65601 
48.9051 -15.1439 -5.65601 49.8114 -15.1439 -4.7115 -55.3101 -7.6361 -5.65601 
-55.2975 -7.6361 -5.59876 48.5133 -7.6361 -5.65601 49.8114 -7.6361 -4.63394 
-55.9742 -0.128321 -5.65601 -55.2975 4.45427 -5.65601 -55.2975 -0.128321 -2.85399 
49.4459 -0.128321 -5.65601 49.8114 -0.128321 -5.40532 -54.8475 7.37946 -5.65601 
46.8497 7.37946 -5.65601 49.8114 7.37946 -3.54302 -52.2726 14.8872 -5.65601 
-47.7897 22.2982 -5.65601 44.5894 14.8872 -5.65601 42.3036 20.6837 -5.65601 
49.8114 14.8872 -1.26386 -47.724 22.395 -5.65601 41.5534 22.395 -5.65601 
42.3036 22.395 -5.10936 -41.8549 29.9028 -5.65601 -40.282 31.5682 -5.65601 
-40.282 29.9028 0.487707 27.2881 37.1951 -5.65601 39.1387 29.9028 -5.65601 
34.7959 33.5348 -5.65601 42.3036 29.9028 -3.25791 -34.5041 37.4106 -5.65601 
-32.7742 38.958 -5.65601 -32.7742 37.4106 -0.0991119 -25.2664 43.9654 -5.65601 
12.2725 42.7032 -5.65601 26.8937 37.4106 -5.65601 19.7803 40.6739 -5.65601 
27.2881 37.4106 -5.45945 34.7959 37.4106 -1.53742 -23.0921 44.9184 -5.65601 
-17.7586 46.9109 -5.65601 -10.2508 47.9828 -5.65601 -2.74305 47.3355 -5.65601 
6.5747 44.9184 -5.65601 4.76474 45.5143 -5.65601 12.2725 44.9184 -1.98016 
12.2725 -45.2625 1.85177 -32.7742 -38.1755 1.85177 -25.2664 -41.0136 1.85177 
-17.7586 -42.6344 1.85177 -10.2508 -43.9125 1.85177 -2.74305 -44.4968 1.85177 
10.9773 -45.175 1.85177 4.76474 -44.7551 1.85177 13.1073 -45.175 1.85177 
12.2725 -45.175 2.07415 19.7803 -44.4754 1.85177 27.2881 -43.2723 1.85177 
34.7959 -40.2448 1.85177 -33.8932 -37.6672 1.85177 -40.282 -34.2313 1.85177 
-32.7742 -37.6672 2.82796 -25.2664 -37.6672 7.97604 38.4915 -37.6672 1.85177 
34.7959 -37.6672 7.69486 42.3036 -34.5051 1.85177 -44.9642 -30.1595 1.85177 
-47.7897 -26.5976 1.85177 -40.282 -30.1595 7.74341 46.5021 -30.1595 1.85177 
49.8114 -25.5285 1.85177 -50.1202 -22.6517 1.85177 -47.7897 -22.6517 5.7507 
51.4931 -22.6517 1.85177 -52.5801 -15.1439 1.85177 -47.7897 -15.1439 8.97935 
54.2471 -15.1439 1.85177 -53.5514 -7.6361 1.85177 55.9007 -7.6361 1.85177 
-54.0502 -0.128321 1.85177 55.1472 -0.128321 1.85177 -52.5272 7.37946 1.85177 
-47.7897 7.37946 8.76599 53.7398 7.37946 1.85177 -49.9302 14.8872 1.85177 
-47.7897 18.8615 1.85177 -47.7897 14.8872 5.17175 52.2111 14.8872 1.85177 
49.8114 22.2101 1.85177 -45.6595 22.395 1.85177 -40.282 29.4609 1.85177 
49.7306 22.395 1.85177 49.8114 22.395 3.27776 -39.8959 29.9028 1.85177 
-32.7742 36.7905 1.85177 45.9077 29.9028 1.85177 42.3036 33.8229 1.85177 
-32.0308 37.4106 1.85177 -25.2664 42.1736 1.85177 -25.2664 37.4106 8.77717 
19.7803 44.4931 1.85177 27.2881 42.1204 1.85177 37.6632 37.4106 1.85177 
34.7959 39.2459 1.85177 -19.2805 44.9184 1.85177 -17.7586 45.5595 1.85177 
-17.7586 44.9184 2.95731 -10.2508 47.5305 1.85177 -10.2508 44.9184 7.30768 
-2.74305 48.4737 1.85177 4.76474 48.0423 1.85177 18.325 44.9184 1.85177 
12.2725 46.6402 1.85177 -17.7586 -38.071 9.35955 -10.2508 -39.6107 9.35955 
-2.74305 -40.3848 9.35955 4.76474 -40.7248 9.35955 12.2725 -41.2582 9.35955 
19.7803 -40.7647 9.35955 27.2881 -39.1722 9.35955 -32.7742 -32.9622 9.35955 
-20.0197 -37.6672 9.35955 -25.2664 -36.4769 9.35955 -17.7586 -37.6672 9.75073 
-10.2508 -37.6672 11.1881 -2.74305 -37.6672 11.9024 4.76474 -37.6672 12.1616 
12.2725 -37.6672 12.3445 19.7803 -37.6672 12.1445 32.1475 -37.6672 9.35955 
27.2881 -37.6672 10.9489 34.7959 -36.5816 9.35955 42.3036 -31.6388 9.35955 
-37.8967 -30.1595 9.35955 -40.282 -28.0073 9.35955 -32.7742 -30.1595 11.7636 
-25.2664 -30.1595 13.4482 -17.7586 -30.1595 14.6847 -10.2508 -30.1595 15.2098 
-2.74305 -30.1595 15.6372 4.76474 -30.1595 15.6059 12.2725 -30.1595 15.4804 
19.7803 -30.1595 15.3766 27.2881 -30.1595 15.0912 34.7959 -30.1595 13.4196 
43.8146 -30.1595 9.35955 42.3036 -30.1595 10.6592 49.8114 -23.4479 9.35955 
-44.2199 -22.6517 9.35955 -40.282 -22.6517 12.0775 -32.7742 -22.6517 15.0396 
-25.2664 -22.6517 15.8286 -17.7586 -22.6517 16.0221 -10.2508 -22.6517 16.339 
-2.74305 -22.6517 16.4808 4.76474 -22.6517 16.2661 12.2725 -22.6517 16.6757 
34.7959 -22.6517 16.7311 42.3036 -22.6517 14.2628 50.394 -22.6517 9.35955 
49.8114 -22.6517 10.026 -47.384 -15.1439 9.35955 -47.7897 -13.1037 9.35955 
-40.282 -15.1439 13.7251 -32.7742 -15.1439 16.216 -25.2664 -15.1439 16.8605 
-17.7586 -15.1439 16.4109 -10.2508 -15.1439 16.227 -2.74305 -15.1439 16.7922 
[...]
POINT_DATA 556
SCALARS ImageScalars float
LOOKUP_TABLE default
0 0 0 0 0 0 0 0 0 
0 0 0 0 0 0 0 0 0 
0 0 0 0 0 0 0 0 0 
0 0 0 0 0 0 0 0 0 
0 0 0 0 0 0 0 0 0 
0 0 0 0 0 0 0 0 0 
0 0 0 0 0 0 0 0 0 
0 0 0 0 0 0 0 0 0 
0 0 0 0 0 0 0 0 0 
0 0 0 0 0 0 0 0 0 
0 0 0 0 0 0 0 0 0 
0 0 0 0 0 0 0 0 0 
0 0 0 0 0 0 0 0 0 
0 0 0 0 0 0 0 0 0 
0 0 0 0 0 0 0 0 0 
0 0 0 0 0 0 0 0 0 
0 0 0 0 0 0 0 0 0 
0 0 0 0 0 0 0 0 0 
0 0 0 0 0 0 0 0 0 
0 0 0 0 0 0 0 0 0 
0 0 0 0 0 0 0 0 0 
0 0 0 0 0 0 0 0 0 
0 0 0 0 0 0 0 0 0 
0 0 0 0 0 0 0 0 0 
0 0 0 0 0 0 0 0 0 
0 0 0 0 0 0 0 0 0 
0 0 0 0 0 0 0 0 0 
0 0 0 0 0 0 0 0 0 
0 0 0 0 0 0 0 0 0 
0 0 0 0 0 0 0 0 0 
0 0 0 0 0 0 0 0 0 
0 0 0 0 0 0 0 0 0 
0 0 0 0 0 0 0 0 0 
0 0 0 0 0 0 0 0 0 
0 0 0 0 0 0 0 0 0 
0 0 0 0 0 0 0 0 0 
0 0 0 0 0 0 0 0 0 
0 0 0 0 0 0 0 0 0 
0 0 0 0 0 0 0 0 0 
0 0 0 0 0 0 0 0 0 
0 0 0 0 0 0 0 0 0 
0 0 0 0 0 0 0 0 0 
0 0 0 0 0 0 0 0 0 
0 0 0 0 0 0 0 0 0 
0 0 0 0 0 0 0 0 0 
0 0 0 0 0 0 0 0 0 
0 0 0 0 0 0 0 0 0 
0 0 0 0 0 0 0 0 0 
0 0 0 0 0 0 0 0 0 
0 0 0 0 0 0 0 0 0 
0 0 0 0 0 0 0 0 0 
0 0 0 0 0 0 0 0 0 
0 0 0 0 0 0 0 0 0 
0 0 0 0 0 0 0 0 0 
0 0 0 0 0 0 0 0 0 
0 0 0 0 0 0 0 0 0 
0 0 0 0 0 0 0 0 0 
0 0 0 0 0 0 0 0 0 
0 0 0 0 0 0 0 0 0 
0 0 0 0 0 0 0 0 0 
0 0 0 0 0 0 0 0 0 
0 0 0 0 0 0 0 
NORMALS Normals float
-0.0196604 -0.0103266 0.999753 0.0515312 -0.00270263 0.998668 0.188697 0.732382 0.654225 
0.0930268 0.660462 0.745075 0.0523793 0.567475 0.821723 -0.00535479 0.506571 0.862181 
-0.0548623 0.507513 0.859896 -0.105585 0.531759 0.840288 -0.187895 0.531689 0.825834 
0.480963 0.560747 0.673971 0.239656 0.475724 0.846317 0.0721255 0.367259 0.927318 
0.0023482 0.309049 0.951043 -0.0451163 0.22967 0.972222 -0.0487478 0.190037 0.980566 
-0.0272825 0.184945 0.98237 -0.0874115 0.195099 0.976881 -0.194774 0.231182 0.953215 
-0.284455 0.268617 0.920288 0.377751 0.271641 0.885164 0.134743 0.168606 0.97643 
-0.00838167 0.0280108 0.999572 0.0369741 0.170507 0.984663 -0.0692665 0.0739849 0.994851 
-0.110511 0.0559506 0.992299 -0.063122 0.0259331 0.997669 -0.0383916 0.0141669 0.999162 
-0.0562135 0.013166 0.998332 -0.148042 0.0668151 0.986722 -0.271277 0.0747238 0.959596 
-0.414473 0.0574076 0.908249 0.587493 0.240759 0.772585 0.290623 0.0901786 0.952579 
0.0200406 -0.000119485 0.999799 0.139813 0.0319549 0.989662 -0.0369454 -0.0161825 0.999186 
-0.0238822 -0.0203313 0.999508 -0.117125 -0.0468747 0.99201 -0.106612 0.0255562 0.993972 
-0.0875806 0.0676454 0.993858 -0.0394752 -0.0145334 0.999115 -0.0357364 -0.0268594 0.999 
-0.135324 -0.0272346 0.990427 -0.290163 -0.0647036 0.954787 0.491354 0.0974949 0.865486 
0.200938 0.0609681 0.977705 0.0379705 0.00246805 0.999276 -0.0431671 -0.0639793 0.997017 
-0.0342789 -0.0450102 0.998398 0.00382506 0.0582123 0.998297 -0.102099 0.0141777 0.994673 
-0.133146 -0.142858 0.980747 -0.0696354 -0.0559863 0.996 -0.184807 -0.0996186 0.977713 
-0.300978 -0.139923 0.94331 0.492865 0.000360961 0.870106 0.193618 0.0200866 0.980871 
0.0498237 -0.000448481 0.998758 0.0174265 0.0400572 0.999045 -0.0694322 0.0361121 0.996933 
0.00577843 0.0120222 0.999911 -0.0444798 -0.0321128 0.998494 -0.313053 -0.0479753 0.948523 
-0.0705868 0.0324176 0.996979 0.00855658 -0.0974002 0.995209 -0.234128 -0.160858 0.958806 
-0.288212 -0.132995 0.948286 0.533233 -0.128359 0.836174 0.0557273 -0.0038404 0.998439 
0.233469 -0.0523046 0.970957 0.0405265 0.000664751 0.999178 0.0539726 -0.00720967 0.998516 
-0.0698555 0.0333235 0.997 -0.103055 0.0210373 0.994453 -0.0521288 -0.131948 0.989885 
-0.0250024 -0.0600786 0.99788 -0.187324 0.148475 0.971012 -0.264096 -0.102485 0.959036 
-0.227038 -0.110593 0.967586 0.660203 -0.372139 0.652415 0.31382 -0.161568 0.935635 
0.0990146 -0.0965902 0.990387 -0.0458722 -0.0563617 0.997356 -0.157445 0.00286044 0.987524 
-0.128747 -0.0304966 0.991208 -0.0212783 -0.0798391 0.996581 -0.147833 -0.154097 0.976934 
-0.24058 -0.109138 0.964474 -0.169323 -0.0606086 0.983695 0.468656 -0.396595 0.789351 
0.168217 -0.219695 0.960956 0.0335712 -0.126369 0.991415 -0.0823406 -0.00763617 0.996575 
-0.133329 0.0112089 0.991008 -0.142573 -0.023381 0.989508 -0.215103 -0.154684 0.964263 
-0.179276 -0.124784 0.975853 -0.140737 -0.144501 0.979445 0.37873 -0.446721 0.810558 
0.163362 -0.237208 0.957625 -0.0150629 -0.12872 0.991567 -0.144113 -0.119306 0.982343 
-0.186717 -0.16103 0.969126 -0.258977 -0.216261 0.941362 -0.224535 -0.236708 0.945279 
0.325034 -0.524158 0.787154 0.036879 -0.448783 0.89288 -0.131576 -0.364396 0.921902 
-0.23586 -0.400111 0.885596 0.189937 0.750267 0.633264 0.114978 0.713161 0.691507 
0.0825828 0.682083 0.726597 0.00126938 0.663487 0.748187 -0.0601077 0.639326 0.766583 
-0.108547 0.603864 0.789662 -0.186525 0.541454 0.819778 0.488868 0.594407 0.638505 
0.209876 0.744629 0.633624 0.324549 0.685502 0.651732 0.369213 0.873347 0.317721 
-0.194657 0.531255 0.824547 -0.289062 0.350688 0.890764 -0.34082 0.570921 0.746921 
0.516654 0.572754 0.636413 -0.339515 0.271895 0.900446 -0.414574 0.0584219 0.908138 
-0.450747 0.306296 0.838457 0.626532 0.407703 0.664256 0.636162 0.397652 0.661189 
0.653123 0.415728 0.63293 -0.414793 0.0575138 0.908096 -0.413921 0.0556952 0.908608 
-0.577659 0.254031 0.775744 0.719345 0.239934 0.6519 -0.355086 -0.0678077 0.932371 
-0.366502 -0.062531 0.928314 -0.433468 0.0635946 0.898922 0.78222 0.103359 0.614369 
0.990009 0.122039 0.070625 -0.315464 -0.117537 0.94163 -0.322523 -0.101061 0.941151 
-0.420592 -0.0662599 0.904827 0.763559 -0.00655215 0.645705 0.985623 -0.0236864 0.167289 
-0.288445 -0.131277 0.948454 -0.28347 -0.125362 0.950752 -0.29696 -0.0944498 0.950207 
-0.371108 -0.110935 0.921939 0.794144 -0.160907 0.586041 -0.22955 -0.0698897 0.970784 
-0.234314 -0.0453466 0.971103 -0.301719 -0.0453403 0.952318 -0.398888 -0.070916 0.914254 
0.73593 -0.378464 0.561402 0.704279 -0.43531 0.5608 -0.194345 -0.0398409 0.980124 
-0.222578 -0.0205578 0.974698 -0.293947 -0.0539601 0.954297 -0.48953 -0.139227 0.8608 
0.65243 -0.504205 0.565785 0.584517 -0.583626 0.563667 -0.153542 -0.14246 0.977819 
-0.145618 -0.162403 0.97592 -0.225027 -0.134915 0.964967 -0.404461 -0.167348 0.899114 
0.552659 -0.589949 0.588667 0.683751 -0.668389 0.292814 0.528107 -0.59332 0.607515 
-0.276409 -0.385588 0.880296 -0.221418 -0.240607 0.94503 -0.225481 -0.245808 0.942728 
-0.182298 -0.304918 0.934769 -0.25077 -0.354033 0.900985 -0.369154 -0.368641 0.853129 
0.484744 -0.621257 0.615681 0.631041 -0.714888 0.301202 0.358386 -0.693309 0.625206 
0.132113 -0.694412 0.707346 -0.0872251 -0.626055 0.774885 -0.271001 -0.426048 0.863158 
-0.2427 -0.520269 0.81879 -0.280743 -0.438839 0.853583 -0.247011 -0.494413 0.833391 
-0.242801 -0.551815 0.797839 0.197509 -0.869018 0.45365 -0.0569845 -0.79321 0.606276 
-0.201935 -0.791214 0.577238 -0.261609 -0.790185 0.554228 0.362409 0.921299 0.140953 
0.265154 0.950393 0.162626 0.191337 0.965583 0.176182 0.104622 0.978008 0.18043 
0.0285957 0.9826 0.183521 0.0117953 0.975455 0.219884 -0.0687445 0.958241 0.277575 
-0.0481264 0.995745 0.0785913 -0.167679 0.931675 0.322283 -0.340426 0.856957 0.386956 
0.434071 0.888841 0.146778 0.564826 0.811643 0.149022 -0.512542 0.729027 0.453674 
-0.519028 0.721046 0.459024 -0.52004 0.743084 0.42117 0.732623 0.666918 0.135958 
0.781777 0.608893 0.134437 -0.689684 0.393578 0.60781 -0.672312 0.368127 0.642246 
-0.729505 0.444932 0.519479 0.89738 0.429268 0.10217 -0.631473 0.308899 0.711212 
-0.824824 0.393829 0.405664 0.962103 0.252055 0.104049 0.989968 0.123249 0.0690837 
-0.688415 0.0985931 0.718585 -0.750448 0.115504 0.650759 0.990143 0.12198 0.0688255 
0.990373 0.121885 0.0656114 -0.588628 0.00929169 0.80835 -0.651214 0.0276052 0.758392 
0.997316 -0.0282266 0.0675549 0.98798 -0.151268 0.0318384 0.992935 -0.0432873 -0.110482 
-0.601541 -0.0361588 0.798023 -0.621823 -0.0349392 0.782378 0.972578 -0.232276 0.0118207 
-0.52733 -0.161249 0.834219 -0.686612 -0.192629 0.701041 0.917553 -0.397088 0.0204069 
0.812413 -0.581407 0.0441668 -0.562234 -0.17633 0.807961 -0.557221 -0.179183 0.810801 
-0.800904 -0.224697 0.555035 0.810801 -0.58363 0.0444669 -0.559127 -0.183756 0.808462 
-0.589646 -0.200409 0.782402 0.74173 -0.668357 0.0559956 0.728172 -0.682675 0.0609918 
0.719268 -0.646534 -0.254259 -0.289404 -0.655083 0.697934 -0.491561 -0.372822 0.787002 
-0.383028 -0.521067 0.762744 -0.648191 -0.438116 0.622818 0.671102 -0.739168 0.0570367 
0.642345 -0.764308 0.056793 0.629462 -0.736898 -0.246494 0.455038 -0.88707 0.07776 
-0.24368 -0.734514 0.633332 -0.288907 -0.657966 0.695424 -0.263963 -0.702797 0.660606 
-0.292812 -0.670588 0.681596 -0.459967 -0.783382 0.418023 0.38895 -0.916988 0.0886085 
0.23831 -0.964159 0.116641 0.0364263 -0.977637 0.20712 -0.14928 -0.914587 0.375826 
-0.254664 -0.801119 0.541622 -0.255424 -0.813699 0.522161 -0.245386 -0.899013 0.362714 
-0.0184347 0.982737 -0.18409 0.377972 0.883411 -0.276989 0.276096 0.922098 -0.271121 
0.189487 0.940348 -0.282561 0.119015 0.958553 -0.258865 0.0545668 0.969919 -0.237234 
-0.00664044 0.981949 -0.189028 0.0494561 0.975282 -0.215357 -0.0303001 0.983055 -0.180791 
-0.0180974 0.980449 -0.195938 -0.126744 0.979525 -0.156415 -0.252655 0.956055 -0.148746 
-0.489391 0.870602 -0.0504905 0.403223 0.870849 -0.28113 0.570819 0.760226 -0.310197 
0.381093 0.866277 -0.323005 0.241609 0.763168 -0.599333 -0.586718 0.808971 -0.0364452 
-0.417174 0.767209 -0.487192 -0.697596 0.716054 0.0250405 0.679393 0.655866 -0.329036 
0.774116 0.535985 -0.336845 0.532224 0.587799 -0.609286 -0.775222 0.625271 0.0898118 
-0.847663 0.510837 0.143226 0.858623 0.400868 -0.319486 0.745886 0.404128 -0.529466 
-0.879756 0.435544 0.190605 0.899041 0.218244 -0.379599 0.692103 0.172474 -0.70089 
-0.915227 0.274805 0.294689 0.909448 0.0924872 -0.405401 -0.933073 0.0606144 0.354543 
0.900223 -0.0652011 -0.430519 -0.909364 -0.139512 0.391911 0.870456 -0.241236 -0.429082 
0.705219 -0.208833 -0.677536 -0.904074 -0.194325 0.380641 0.838962 -0.371354 -0.397792 
0.790132 -0.47589 -0.38629 0.770234 -0.366773 -0.521745 -0.893583 -0.24002 0.379341 
-0.864104 -0.367663 0.343727 0.755824 -0.5439 -0.364559 0.70906 -0.625483 -0.325584 
-0.862793 -0.371417 0.342982 -0.892089 -0.392621 0.223664 0.702656 -0.632826 -0.325277 
0.607697 -0.712396 -0.350994 -0.796333 -0.547647 0.256781 -0.6902 -0.689636 0.219149 
0.595974 -0.72117 -0.353168 0.476638 -0.798756 -0.367159 0.393375 -0.64087 -0.659198 
-0.286926 -0.954714 0.078704 -0.318087 -0.939104 0.130016 -0.547279 -0.817376 0.179949 
-0.471158 -0.864362 0.175751 0.353588 -0.864143 -0.358096 0.317365 -0.880578 -0.351941 
0.326314 -0.855259 -0.402556 0.180117 -0.953052 -0.243414 0.234109 -0.82166 -0.51968 
0.0322269 -0.993328 -0.11073 -0.117196 -0.993071 0.00868384 -0.277702 -0.956804 0.086071 
-0.238601 -0.965028 0.108587 0.153781 0.69774 -0.69965 0.120847 0.725608 -0.677414 
0.05977 0.734559 -0.675907 0.0449435 0.735443 -0.676094 0.00130631 0.722757 -0.691101 
-0.105155 0.744135 -0.659701 -0.221897 0.720392 -0.657113 0.336316 0.628611 -0.701241 
0.17547 0.700237 -0.69201 0.223595 0.687477 -0.690928 0.150763 0.683496 -0.714216 
0.11751 0.645265 -0.754867 0.0552597 0.607779 -0.792181 0.0257775 0.591275 -0.806058 
-0.00161242 0.551139 -0.834412 -0.0690153 0.588963 -0.805208 -0.321765 0.705189 -0.631804 
-0.207897 0.654699 -0.726738 -0.360819 0.685007 -0.63291 -0.552175 0.63284 -0.542786 
0.446768 0.55493 -0.701749 0.501145 0.495008 -0.709803 0.295904 0.52706 -0.796648 
0.159963 0.421195 -0.892752 0.112641 0.35578 -0.927757 0.0568091 0.293886 -0.954151 
0.0262212 0.259309 -0.965438 -0.0101775 0.243522 -0.969842 -0.015091 0.264365 -0.964305 
-0.0227111 0.28645 -0.957826 -0.125224 0.343367 -0.930816 -0.250426 0.458833 -0.852502 
-0.589728 0.620803 -0.516551 -0.510763 0.595172 -0.620396 -0.714584 0.541718 -0.442618 
0.573406 0.359657 -0.736106 0.461989 0.314544 -0.829234 0.216066 0.261212 -0.940789 
0.0601519 0.217593 -0.974184 0.0327721 0.100863 -0.99436 0.031439 0.0674379 -0.997228 
-0.00491858 0.0727436 -0.997339 0.0126862 0.0556962 -0.998367 0.0426835 0.124071 -0.991355 
-0.177633 0.286086 -0.941595 -0.379193 0.36635 -0.849706 -0.727991 0.524517 -0.441487 
-0.697777 0.519743 -0.492924 0.671005 0.169835 -0.72174 0.681551 0.142144 -0.717833 
0.426368 0.135899 -0.894283 0.191883 0.105406 -0.975741 0.0144214 0.0933541 -0.995529 
-0.0420516 0.0220258 -0.998873 0.025215 0.0476031 -0.998548 0.0171625 0.135645 -0.990609 
0.0400848 0.137957 -0.989627 -0.190752 0.261812 -0.94608 -0.845289 0.358089 -0.396558 
-0.561745 0.335097 -0.756408 0.696271 0.0703038 -0.714328 0.666308 0.0694597 -0.742434 
0.400136 0.0551136 -0.914797 0.176534 0.0550989 -0.982751 -0.014614 0.0157618 -0.999769 
-0.922357 0.0994994 -0.373306 -0.476938 -0.0115248 -0.878861 0.682925 -0.0643137 -0.727652 
0.684632 -0.16225 -0.710602 0.642878 -0.0617633 -0.763475 0.405028 -0.0201388 -0.914082 
-0.0124265 0.052198 -0.998559 -0.923329 -0.0960577 -0.371801 -0.581567 -0.0414526 -0.812442 
0.681043 -0.198717 -0.704763 0.481108 -0.103373 -0.870545 0.148264 -0.0851476 -0.985275 
-0.938984 -0.198933 -0.280598 -0.54529 -0.0633191 -0.835852 0.65846 -0.301771 -0.689467 
0.56108 -0.243774 -0.791052 0.286917 -0.1588 -0.944702 0.0137324 0.0295298 -0.99947 
-0.902044 -0.288906 -0.320701 -0.712683 -0.276196 -0.644824 0.641979 -0.435241 -0.631211 
0.640035 -0.438737 -0.630765 0.638302 -0.433446 -0.636157 0.365882 -0.346871 -0.863603 
0.103685 -0.266601 -0.958214 0.0161242 -0.16053 -0.986899 0.0786811 -0.000517948 -0.9969 
-0.492193 -0.235023 -0.838159 -0.8568 -0.411436 -0.310828 -0.850014 -0.423608 -0.313102 
-0.847522 -0.41221 -0.334348 0.511128 -0.576401 -0.637582 0.498641 -0.582564 -0.641853 
0.481175 -0.569024 -0.666845 0.379446 -0.61746 -0.689031 0.256003 -0.441192 -0.860123 
0.161611 -0.305691 -0.938315 0.159122 -0.190554 -0.968695 -0.267821 -0.458226 -0.847526 
-0.717864 -0.600684 -0.351923 -0.615048 -0.709532 -0.343918 -0.561111 -0.514652 -0.648296 
0.368211 -0.620041 -0.692799 0.300429 -0.623068 -0.72217 0.271904 -0.540246 -0.796368 
0.243525 -0.716834 -0.653333 0.247543 -0.441605 -0.862385 0.12211 -0.363907 -0.923397 
-0.00850708 -0.368258 -0.929685 -0.0770307 -0.438204 -0.895569 -0.260252 -0.845986 -0.465377 
-0.113881 -0.562082 -0.819204 -0.265445 -0.855986 -0.443652 -0.198821 -0.716817 -0.668314 
-0.446311 -0.805641 -0.389549 -0.402762 -0.821505 -0.403624 -0.394401 -0.778677 -0.487966 
0.148817 -0.793054 -0.590694 0.114717 -0.808989 -0.576521 0.118661 -0.791927 -0.598975 
-0.00212709 -0.859359 -0.511369 0.00331032 -0.821675 -0.569947 -0.190493 -0.873922 -0.447184 
-0.170206 -0.875506 -0.452237 -0.167831 -0.854397 -0.491772 0.0266955 0.171016 -0.984907 
-0.0231276 0.210349 -0.977353 0.0305274 0.160232 -0.986607 0.0562269 0.152651 -0.986679 
0.0279092 0.167976 -0.985396 -0.118519 0.254377 -0.959816 -0.0090464 0.193381 -0.981082 
-0.167258 0.266092 -0.949326 0.013679 0.0926872 -0.995601 0.120427 0.0796277 -0.989523 
0.0201127 0.134604 -0.990695 0.0630513 0.178188 -0.981974 0.0558015 0.13122 -0.989782 
0.0946517 0.2349 -0.9674 0.0513698 0.12093 -0.991331 -0.00445853 0.0927716 -0.995677 
-0.182111 0.251427 -0.950589 -0.0865913 0.113088 -0.989805 -0.186201 0.254569 -0.948959 
0.153279 0.055309 -0.986634 0.180464 0.0513172 -0.982242 -0.0231718 0.0375657 -0.999025 
-0.0306565 0.0528452 -0.998132 0.104224 0.0676758 -0.992249 0.155953 0.0927545 -0.9834 
0.0880337 0.11208 -0.989792 0.118014 0.113553 -0.986498 0.00183271 0.19511 -0.98078 
-0.114984 0.00244855 -0.993364 -0.0124102 0.00696119 -0.999899 -0.00568418 0.0474798 -0.998856 
-0.440243 -0.00322802 -0.897873 -0.1475 0.0898963 -0.984968 0.205669 0.0362647 -0.97795 
0.190955 0.0400121 -0.980783 -0.0145337 0.0547113 -0.998396 -0.0256474 0.0639395 -0.997624 
0.0214083 0.0248412 -0.999462 -0.0668039 0.0474836 -0.996636 0.141152 -0.0753061 -0.98712 
0.125276 -0.0571996 -0.990472 0.0290047 0.0622975 -0.997636 0.138323 0.101917 -0.985129 
-0.0244191 -0.0778035 -0.99667 -0.126746 -0.0512833 -0.990609 0.0404735 -0.0148317 -0.999071 
-0.00726275 -0.0108687 -0.999915 -0.346448 -0.0281883 -0.937645 -0.220529 -0.0257997 -0.975039 
0.294884 -0.0382538 -0.954767 0.275847 -0.11643 -0.954124 0.253691 -0.0258539 -0.96694 
-0.0245833 0.010311 -0.999645 -0.043675 0.00322205 -0.999041 -0.125624 0.0419082 -0.991192 
0.176158 -0.08397 -0.980774 0.230185 -0.0508777 -0.971816 -0.0197484 0.0741064 -0.997055 
-0.12405 -0.0902718 -0.988161 -0.0603894 0.0589466 -0.996433 0.0274916 0.0302129 -0.999165 
-0.0188002 -0.0100949 -0.999772 -0.373743 -0.0612946 -0.925505 -0.164666 -0.0597223 -0.98454 
0.232148 -0.148066 -0.961345 0.0841371 -0.221812 -0.971453 0.0400632 -0.110103 -0.993112 
-0.0566055 -0.0126777 -0.998316 -0.0386537 -0.105334 -0.993685 -0.102185 -0.0395108 -0.99398 
0.111494 -0.0421357 -0.992871 0.211749 -0.117646 -0.970217 0.078837 -0.0810943 -0.993584 
-0.032461 -0.0389844 -0.998712 -0.00955627 0.055746 -0.998399 -0.0270749 0.054995 -0.998119 
-0.0855502 0.0277407 -0.995948 -0.342648 -0.186194 -0.920828 -0.337996 -0.181751 -0.923431 
-0.303414 -0.172722 -0.937074 0.0851928 -0.00305609 -0.99636 0.128172 -0.0296885 -0.991307 
0.0590848 -0.0966694 -0.993561 0.0125503 -0.061326 -0.998039 0.0332948 -0.0856049 -0.995773 
-0.00958923 -0.0775008 -0.996946 -0.359937 -0.18166 -0.91512 -0.24847 -0.360556 -0.899034 
-0.209619 -0.124151 -0.969869 0.119092 -0.138495 -0.983177 0.107861 -0.164321 -0.980492 
0.103287 -0.119588 -0.987436 0.0292658 -0.251671 -0.96737 0.0576506 -0.180415 -0.9819 
-0.0483276 -0.300184 -0.952656 -0.0227949 -0.185556 -0.982369 -0.0267499 -0.316627 -0.948173 
-0.0176599 -0.266008 -0.963809 -0.180438 -0.370724 -0.911047 -0.105129 -0.392233 -0.913839 
-0.0790614 -0.277521 -0.957461 
