# vtk DataFile Version 4.2
vtk output
ASCII
DATASET POLYDATA
POINTS 545 float
37.0366 12.6587 -20.792 -34.1257 -26.8759 -13.59 -26.2188 -26.8759 -13.9641 
-18.3119 -26.8759 -13.8347 -10.405 -26.8759 -13.4309 -42.0327 -18.969 -14.6928 
-34.1257 -18.969 -15.438 -26.2188 -18.969 -15.7323 -18.3119 -18.969 -15.5626 
-10.405 -18.969 -15.5781 -2.49803 -18.969 -14.7164 5.40889 -18.969 -13.5031 
13.3158 -18.969 -13.2911 21.2227 -18.969 -13.7023 29.1297 -18.969 -14.3248 
37.0366 -18.969 -14.282 44.9435 -18.969 -13.6336 -49.9396 -11.0621 -14.1508 
-42.0327 -11.0621 -15.5614 -34.1257 -11.0621 -16.1215 -26.2188 -11.0621 -15.7756 
-18.3119 -11.0621 -15.4757 -10.405 -11.0621 -16.8717 -2.49803 -11.0621 -16.1914 
5.40889 -11.0621 -15.2163 13.3158 -11.0621 -13.5732 21.2227 -11.0621 -14.6236 
29.1297 -11.0621 -16.0996 37.0366 -11.0621 -17.1204 44.9435 -11.0621 -17.1429 
52.8504 -11.0621 -16.8178 60.7574 -11.0621 -13.5202 -49.9396 -3.15513 -15.5951 
-42.0327 -3.15513 -17.018 -34.1257 -3.15513 -16.938 -26.2188 -3.15513 -16.1201 
-18.3119 -3.15513 -14.8552 -10.405 -3.15513 -15.8911 -2.49803 -3.15513 -14.5291 
5.40889 -3.15513 -17.6893 13.3158 -3.15513 -13.8875 21.2227 -3.15513 -15.1863 
29.1297 -3.15513 -17.3823 37.0366 -3.15513 -18.8203 44.9435 -3.15513 -19.0837 
52.8504 -3.15513 -18.1345 60.7574 -3.15513 -15.9325 -49.9396 4.75179 -16.5128 
-42.0327 4.75179 -18.0346 -34.1257 4.75179 -17.7704 -26.2188 4.75179 -16.7882 
-18.3119 4.75179 -15.2085 -10.405 4.75179 -13.6695 -2.49803 4.75179 -15.6355 
5.40889 4.75179 -16.5702 13.3158 4.75179 -15.6594 21.2227 4.75179 -16.9807 
29.1297 4.75179 -18.7204 37.0366 12.5633 -20.7855 37.0366 4.75179 -20.2429 
44.9435 4.75179 -19.93 52.8504 4.75179 -19.0913 60.7574 4.75179 -17.1615 
-49.9396 12.6587 -16.5649 -42.0327 12.6587 -18.3253 -34.1257 12.6587 -18.2358 
-26.2188 12.6587 -17.7342 -18.3119 12.6587 -16.0168 -10.405 12.6587 -14.5324 
-2.49803 12.6587 -14.5644 5.40889 12.6587 -16.69 13.3158 12.6587 -18.4933 
21.2227 12.6587 -19.3071 36.9793 12.6587 -20.7855 29.1297 12.6587 -19.9088 
37.0987 12.6587 -20.7855 37.0366 12.7206 -20.7855 44.9435 12.6587 -20.0073 
52.8504 12.6587 -18.1103 60.7574 12.6587 -14.4558 -49.9396 20.5656 -15.1347 
-42.0327 20.5656 -17.4934 -34.1257 20.5656 -17.8831 -26.2188 20.5656 -18.0009 
-18.3119 20.5656 -16.0011 -2.49803 20.5656 -13.0309 5.40889 20.5656 -17.7678 
13.3158 20.5656 -19.9664 21.2227 20.5656 -20.6735 29.1297 20.5656 -20.4836 
37.0366 20.5656 -19.9629 44.9435 20.5656 -19.0454 52.8504 20.5656 -16.4881 
-42.0327 28.4726 -15.2447 -34.1257 28.4726 -15.8202 -26.2188 28.4726 -14.6577 
5.40889 28.4726 -16.554 13.3158 28.4726 -19.9666 21.2227 28.4726 -20.7252 
29.1297 28.4726 -19.9788 37.0366 28.4726 -18.6216 44.9435 28.4726 -14.7509 
13.3158 36.3795 -16.998 21.2227 36.3795 -17.8427 29.1297 36.3795 -16.5771 
-34.1257 -28.1107 -12.8786 -34.1257 -34.7828 -7.22636 -26.2188 -28.8678 -12.8786 
-26.2188 -34.7828 -8.81013 -18.3119 -28.9214 -12.8786 -18.3119 -34.7828 -9.40989 
-10.405 -28.1165 -12.8786 -10.405 -34.7828 -9.4663 -2.49803 -34.7828 -8.96594 
5.40889 -34.7828 -8.47707 13.3158 -34.7828 -8.64268 21.2227 -34.7828 -8.30313 
29.1297 -34.7828 -6.10522 -49.9396 -26.8759 -6.86891 -36.4148 -26.8759 -12.8786 
-42.0327 -23.1594 -12.8786 -42.0327 -26.8759 -10.7597 -6.13975 -26.8759 -12.8786 
-2.49803 -25.2624 -12.8786 -2.49803 -26.8759 -12.4136 5.40889 -21.8286 -12.8786 
5.40889 -26.8759 -11.7467 13.3158 -22.1006 -12.8786 13.3158 -26.8759 -12.1995 
21.2227 -22.5883 -12.8786 21.2227 -26.8759 -11.9233 29.1297 -23.6883 -12.8786 
29.1297 -26.8759 -11.7775 37.0366 -21.58 -12.8786 37.0366 -26.8759 -9.63193 
44.9435 -20.0461 -12.8786 44.9435 -26.8759 -6.98244 -57.8465 -18.969 -5.82507 
-46.4889 -18.969 -12.8786 -49.9396 -14.2933 -12.8786 -49.9396 -18.969 -11.0766 
50.916 -18.969 -12.8786 52.8504 -18.5021 -12.8786 52.8504 -18.969 -12.5166 
60.7574 -12.1741 -12.8786 60.7574 -18.969 -6.54628 -54.2547 -11.0621 -12.8786 
-57.8465 -11.0621 -11.231 61.5902 -11.0621 -12.8786 -55.4705 -3.15513 -12.8786 
-57.8465 -3.15513 -11.3543 65.0467 -3.15513 -12.8786 68.6643 -3.15513 -7.52036 
-57.0239 4.75179 -12.8786 -57.8465 4.75179 -12.3038 66.4875 4.75179 -12.8786 
68.6643 4.75179 -8.42979 -57.072 12.6587 -12.8786 -57.8465 12.6587 -12.2705 
-10.405 19.0006 -12.8786 62.3961 12.6587 -12.8786 60.7574 16.7632 -12.8786 
-54.0695 20.5656 -12.8786 -57.8465 20.5656 -9.64671 -49.9396 25.0943 -12.8786 
-11.3277 20.5656 -12.8786 -18.3119 27.3231 -12.8786 -4.47183 20.5656 -12.8786 
-10.405 20.5656 -12.2179 -2.49803 20.8881 -12.8786 58.4759 20.5656 -12.8786 
52.8504 24.9958 -12.8786 -47.0593 28.4726 -12.8786 -49.9396 28.4726 -10.776 
-42.0327 32.3743 -12.8786 -34.1257 33.0096 -12.8786 -20.3272 28.4726 -12.8786 
-26.2188 30.684 -12.8786 -18.3119 28.4726 -11.6109 1.50826 28.4726 -12.8786 
-2.49803 28.4726 -6.28432 5.40889 34.5338 -12.8786 37.0366 35.7473 -12.8786 
48.4908 28.4726 -12.8786 44.9435 30.6374 -12.8786 -42.0327 36.3795 -6.63085 
-34.1257 36.3795 -8.70436 7.06728 36.3795 -12.8786 5.40889 36.3795 -9.96035 
13.3158 40.958 -12.8786 21.2227 42.1961 -12.8786 36.0869 36.3795 -12.8786 
29.1297 39.9916 -12.8786 37.0366 36.3795 -10.4044 21.2227 44.2864 -6.7914 
-34.1257 -36.4004 -4.97166 -26.2188 -38.0916 -4.97166 -18.3119 -38.9447 -4.97166 
-10.405 -39.5996 -4.97166 -2.49803 -39.406 -4.97166 -2.49803 -42.6898 2.7874 
5.40889 -38.8554 -4.97166 13.3158 -39.0624 -4.97166 21.2227 -38.7931 -4.97166 
29.1297 -36.0394 -4.97166 -49.9396 -28.4743 -4.97166 -38.7598 -34.7828 -4.97166 
-42.0327 -33.3197 -4.97166 32.389 -34.7828 -4.97166 37.0366 -32.8167 -4.97166 
37.0366 -34.7828 -0.577562 44.9435 -28.4088 -4.97166 -51.7598 -26.8759 -4.97166 
-57.8465 -19.9546 -4.97166 47.7139 -26.8759 -4.97166 52.8504 -23.9297 -4.97166 
60.7574 -19.8527 -4.97166 -58.53 -18.969 -4.97166 61.7825 -18.969 -4.97166 
60.7574 -18.969 -0.154098 -62.333 -11.0621 -4.97166 66.3597 -11.0621 -4.97166 
68.6643 -5.66778 -4.97166 -65.1901 -3.15513 -4.97166 -65.7534 -3.15513 -1.2699 
69.5947 -3.15513 -4.97166 68.6643 -3.15513 -2.12597 -65.4989 4.75179 -4.97166 
-65.7534 4.75179 -1.70742 69.6234 4.75179 -4.97166 68.6643 6.98288 -4.97166 
68.6643 4.75179 -2.25546 -64.1527 12.6587 -4.97166 65.924 12.6587 -4.97166 
60.7574 19.7511 -4.97166 -60.5739 20.5656 -4.97166 -57.8465 24.9698 -4.97166 
-10.405 25.859 -4.97166 59.9843 20.5656 -4.97166 52.8504 27.3224 -4.97166 
-55.1727 28.4726 -4.97166 -49.9396 33.8571 -4.97166 -26.2188 36.2148 -4.97166 
-13.9268 28.4726 -4.97166 -18.3119 31.8307 -4.97166 -4.26414 28.4726 -4.97166 
-10.405 28.4726 1.22109 -2.49803 29.2674 -4.97166 51.2694 28.4726 -4.97166 
44.9435 32.6246 -4.97166 44.9435 28.4726 2.50502 -44.1592 36.3795 -4.97166 
-42.0327 37.0481 -4.97166 -26.8569 36.3795 -4.97166 -34.1257 38.099 -4.97166 
-26.2188 36.3795 -3.62092 3.65737 36.3795 -4.97166 5.40889 38.344 -4.97166 
5.40889 36.3795 2.42969 13.3158 43.2458 -4.97166 29.1297 42.1102 -4.97166 
38.7923 36.3795 -4.97166 37.0366 37.4529 -4.97166 37.0366 36.3795 -2.77635 
18.653 44.2864 -4.97166 22.8047 44.2864 -4.97166 21.2227 44.2864 -3.97077 
-2.49803 -42.7357 2.93526 -34.1257 -37.1876 2.93526 -26.2188 -39.7003 2.93526 
-18.3119 -41.2007 2.93526 -4.08074 -42.6898 2.93526 -10.405 -42.5044 2.93526 
-1.42195 -42.6898 2.93526 -2.49803 -42.6898 3.12412 5.40889 -42.3974 2.93526 
13.3158 -42.5309 2.93526 21.2227 -42.5331 2.93526 29.1297 -40.1526 2.93526 
37.0366 -35.9468 2.93526 -49.9396 -29.6076 2.93526 -40.7726 -34.7828 2.93526 
-42.0327 -34.2973 2.93526 -34.1257 -34.7828 8.18966 38.6747 -34.7828 2.93526 
37.0366 -34.7828 7.48205 44.9435 -30.0466 2.93526 -53.1314 -26.8759 2.93526 
-57.8465 -21.7416 2.93526 -49.9396 -26.8759 7.69118 49.4343 -26.8759 2.93526 
52.8504 -24.2212 2.93526 -59.85 -18.969 2.93526 -57.8465 -18.969 6.79396 
59.741 -18.969 2.93526 52.8504 -18.969 10.464 60.7574 -17.7413 2.93526 
-64.2788 -11.0621 2.93526 -65.7534 -5.09343 2.93526 64.6429 -11.0621 2.93526 
60.7574 -11.0621 7.47747 -66.2203 -3.15513 2.93526 -65.7534 -3.15513 4.03948 
66.8823 -3.15513 2.93526 60.7574 -3.15513 9.32356 -66.0388 4.75179 2.93526 
-65.7534 7.24311 2.93526 -65.7534 4.75179 3.58984 66.6878 4.75179 2.93526 
60.7574 4.75179 8.85256 -64.9893 12.6587 2.93526 52.8504 12.6587 9.64711 
62.0226 12.6587 2.93526 60.7574 14.6523 2.93526 60.7574 12.6587 4.12725 
-60.3693 20.5656 2.93526 -57.8465 24.2517 2.93526 -57.8465 20.5656 7.09081 
37.0366 20.5656 10.5974 44.9435 28.1201 2.93526 44.9435 20.5656 8.51408 
55.1784 20.5656 2.93526 52.8504 22.2593 2.93526 52.8504 20.5656 4.39961 
-54.0675 28.4726 2.93526 -49.9396 32.8343 2.93526 -49.9396 28.4726 7.92446 
-18.3119 33.4967 2.93526 -10.405 29.257 2.93526 -10.405 28.4726 7.45317 
-2.49803 29.4247 2.93526 -2.49803 28.4726 4.96677 5.40889 36.228 2.93526 
5.40889 28.4726 10.657 29.1297 28.4726 9.2566 44.41 28.4726 2.93526 
37.0366 32.7595 2.93526 37.0366 28.4726 6.54192 -42.4905 36.3795 2.93526 
-42.0327 36.5278 2.93526 -42.0327 36.3795 3.23609 -34.1257 38.1483 2.93526 
-34.1257 36.3795 6.49348 -24.5533 36.3795 2.93526 -26.2188 37.1102 2.93526 
-26.2188 36.3795 4.65104 5.71978 36.3795 2.93526 13.3158 39.6637 2.93526 
13.3158 36.3795 6.4782 21.2227 39.8254 2.93526 21.2227 36.3795 6.45966 
31.2566 36.3795 2.93526 29.1297 37.4431 2.93526 29.1297 36.3795 4.02026 
-26.2188 -35.746 10.8422 -18.3119 -38.1063 10.8422 -10.405 -39.661 10.8422 
-2.49803 -40.2191 10.8422 5.40889 -40.0095 10.8422 13.3158 -40.2501 10.8422 
21.2227 -40.2063 10.8422 29.1297 -37.7026 10.8422 -42.0327 -29.3802 10.8422 
-29.313 -34.7828 10.8422 -34.1257 -33.1375 10.8422 -26.2188 -34.7828 11.8245 
-18.3119 -34.7828 14.2809 -10.405 -34.7828 15.1252 -2.49803 -34.7828 15.5913 
5.40889 -34.7828 15.7274 13.3158 -34.7828 16.133 21.2227 -34.7828 16.306 
34.9528 -34.7828 10.8422 29.1297 -34.7828 13.5194 37.0366 -33.1441 10.8422 
44.9435 -26.8966 10.8422 -46.3166 -26.8759 10.8422 -49.9396 -23.8818 10.8422 
-42.0327 -26.8759 13.2618 -34.1257 -26.8759 15.6826 -26.2188 -26.8759 16.9441 
-18.3119 -26.8759 17.8326 -10.405 -26.8759 18.278 -2.49803 -26.8759 18.4834 
[...]
POINT_DATA 545
SCALARS ImageScalars float
LOOKUP_TABLE default
0 0 0 0 0 0 0 0 0 
0 0 0 0 0 0 0 0 0 
0 0 0 0 0 0 0 0 0 
0 0 0 0 0 0 0 0 0 
0 0 0 0 0 0 0 0 0 
0 0 0 0 0 0 0 0 0 
0 0 0 0 0 0 0 0 0 
0 0 0 0 0 0 0 0 0 
0 0 0 0 0 0 0 0 0 
0 0 0 0 0 0 0 0 0 
0 0 0 0 0 0 0 0 0 
0 0 0 0 0 0 0 0 0 
0 0 0 0 0 0 0 0 0 
0 0 0 0 0 0 0 0 0 
0 0 0 0 0 0 0 0 0 
0 0 0 0 0 0 0 0 0 
0 0 0 0 0 0 0 0 0 
0 0 0 0 0 0 0 0 0 
0 0 0 0 0 0 0 0 0 
0 0 0 0 0 0 0 0 0 
0 0 0 0 0 0 0 0 0 
0 0 0 0 0 0 0 0 0 
0 0 0 0 0 0 0 0 0 
0 0 0 0 0 0 0 0 0 
0 0 0 0 0 0 0 0 0 
0 0 0 0 0 0 0 0 0 
0 0 0 0 0 0 0 0 0 
0 0 0 0 0 0 0 0 0 
0 0 0 0 0 0 0 0 0 
0 0 0 0 0 0 0 0 0 
0 0 0 0 0 0 0 0 0 
0 0 0 0 0 0 0 0 0 
0 0 0 0 0 0 0 0 0 
0 0 0 0 0 0 0 0 0 
0 0 0 0 0 0 0 0 0 
0 0 0 0 0 0 0 0 0 
0 0 0 0 0 0 0 0 0 
0 0 0 0 0 0 0 0 0 
0 0 0 0 0 0 0 0 0 
0 0 0 0 0 0 0 0 0 
0 0 0 0 0 0 0 0 0 
0 0 0 0 0 0 0 0 0 
0 0 0 0 0 0 0 0 0 
0 0 0 0 0 0 0 0 0 
0 0 0 0 0 0 0 0 0 
0 0 0 0 0 0 0 0 0 
0 0 0 0 0 0 0 0 0 
0 0 0 0 0 0 0 0 0 
0 0 0 0 0 0 0 0 0 
0 0 0 0 0 0 0 0 0 
0 0 0 0 0 0 0 0 0 
0 0 0 0 0 0 0 0 0 
0 0 0 0 0 0 0 0 0 
0 0 0 0 0 0 0 0 0 
0 0 0 0 0 0 0 0 0 
0 0 0 0 0 0 0 0 0 
0 0 0 0 0 0 0 0 0 
0 0 0 0 0 0 0 0 0 
0 0 0 0 0 0 0 0 0 
0 0 0 0 0 0 0 0 0 
0 0 0 0 0 
NORMALS Normals float
0.00440113 -0.018357 0.999822 0.169738 0.393006 0.903734 0.0164522 0.355562 0.934508 
-0.031623 0.330742 0.943191 -0.0857177 0.342506 0.935597 0.231498 0.249232 0.940368 
0.0722236 0.166725 0.983355 0.0069707 0.105315 0.994414 -0.00938397 0.0970105 0.995239 
-0.0501723 0.203546 0.977779 -0.131383 0.229095 0.964497 -0.0839105 0.203471 0.975479 
0.0125414 0.0838832 0.996397 0.0618902 0.16644 0.984107 0.0377915 0.267946 0.962692 
-0.0341179 0.421183 0.906334 -0.0975411 0.521723 0.84752 0.229581 0.264712 0.936601 
0.112371 0.152368 0.981915 0.011984 0.0922111 0.995667 -0.0407413 0.0243614 0.998873 
0.0631314 -0.0447346 0.997002 0.0497622 0.0378197 0.998045 -0.0996802 0.00940374 0.994975 
-0.168313 0.237839 0.95661 -0.0301967 0.0320747 0.999029 0.158179 0.0925677 0.983062 
0.15576 0.182191 0.970848 0.0632269 0.267403 0.961508 -0.0144783 0.30653 0.951751 
-0.226385 0.322338 0.919156 -0.511767 0.391951 0.764506 0.300216 0.136044 0.94412 
0.0924928 0.153621 0.983792 -0.0561671 0.103649 0.993027 -0.130286 0.0633056 0.989453 
-0.0343425 -0.017581 0.999255 0.00148641 -0.213955 0.976842 0.115805 -0.0400938 0.992462 
-0.025411 0.0923282 0.995404 -0.126627 0.143581 0.981504 0.195788 0.146154 0.969694 
0.219607 0.160526 0.962291 0.105378 0.192842 0.975555 -0.0399551 0.163835 0.985678 
-0.17199 0.123286 0.977354 -0.46633 0.21786 0.857364 0.298381 0.0622356 0.952416 
0.0917787 0.0815736 0.992433 -0.0774477 0.081491 0.99366 -0.159496 0.100886 0.98203 
-0.189071 0.0744672 0.979136 0.0259149 -0.0487427 0.998475 0.172781 -0.0149501 0.984847 
0.00428668 -0.0523132 0.998622 0.0271954 0.255839 0.966337 0.186572 0.246064 0.951127 
0.195542 0.154924 0.968381 0.00526455 -0.0166451 0.999848 0.0757809 0.123451 0.989453 
-0.0692805 0.0608714 0.995738 -0.148395 0.000310292 0.988928 -0.49979 -0.0611564 0.863985 
0.312411 -0.0668664 0.947591 0.116751 -0.0321688 0.99264 -0.0368638 0.00734119 0.999293 
-0.138109 0.0749081 0.98758 -0.200223 0.0493672 0.978506 -0.0923483 -0.0630129 0.993731 
0.132342 -0.153285 0.97928 0.242453 0.0693239 0.967683 0.155778 0.256196 0.95399 
0.0874732 0.231167 0.968974 0.00500824 -0.0174228 0.999836 0.0895024 0.109731 0.989923 
0.00311004 -0.0185101 0.999824 0.00379532 -0.0190742 0.999811 -0.156164 -0.0443222 0.986736 
-0.289646 -0.133161 0.947825 -0.641184 -0.331172 0.692249 0.383406 -0.295343 0.875084 
0.147382 -0.196585 0.969347 0.0294778 -0.13367 0.990587 -0.120553 -0.169663 0.978101 
-0.313312 -0.207847 0.926626 0.369531 -0.36687 0.853729 0.410543 0.000901228 0.911841 
0.169022 0.0873379 0.981735 0.0332529 0.0865101 0.995696 -0.0442003 0.00667829 0.999 
-0.0823759 -0.119931 0.989359 -0.188262 -0.325163 0.926729 -0.454954 -0.425515 0.782275 
0.232265 -0.410706 0.881688 -0.0286883 -0.397813 0.917018 -0.198075 -0.528881 0.825258 
0.574396 -0.303575 0.760205 0.231568 -0.161933 0.959247 0.000399154 -0.151054 0.988525 
-0.123487 -0.211981 0.969441 -0.290728 -0.373598 0.880853 -0.43697 -0.612248 0.658946 
0.295336 -0.531274 0.794056 -0.0176499 -0.526616 0.84992 -0.277049 -0.604564 0.746824 
0.172761 0.444625 0.878898 0.23308 0.821502 0.520393 0.0305353 0.433433 0.900668 
0.10733 0.738835 0.665284 -0.0198556 0.394502 0.91868 0.0323849 0.654406 0.75545 
-0.0801214 0.371201 0.925089 -0.0253327 0.586884 0.809274 -0.0541579 0.550512 0.833069 
-0.0180683 0.554059 0.832281 -0.00965708 0.552707 0.833319 -0.132335 0.578298 0.805021 
-0.255674 0.66318 0.703436 0.571323 0.642123 0.511144 0.207226 0.423154 0.882042 
0.268721 0.378486 0.885741 0.320035 0.530101 0.78522 -0.0949581 0.33116 0.938784 
-0.107545 0.301633 0.947339 -0.100474 0.322557 0.941203 -0.0566046 0.228873 0.971809 
-0.0136447 0.285671 0.958231 0.0108031 0.153075 0.988156 0.0101077 0.26365 0.964566 
0.0235249 0.22594 0.973857 -0.02319 0.300023 0.95365 -0.0512372 0.355872 0.933129 
-0.118902 0.424701 0.897492 -0.0915081 0.461477 0.88242 -0.231584 0.570927 0.787662 
-0.121967 0.551781 0.825022 -0.371553 0.775998 0.509682 0.740178 0.498415 0.451353 
0.345673 0.290723 0.892183 0.305859 0.294877 0.905261 0.449081 0.357518 0.818845 
-0.240946 0.606989 0.757304 -0.282201 0.614933 0.736356 -0.290859 0.639153 0.711958 
-0.522539 0.424743 0.739288 -0.610094 0.736289 0.292682 0.402368 0.251273 0.880319 
0.602032 0.241271 0.761148 -0.547646 0.402442 0.73357 0.476444 0.0755695 0.875951 
0.573672 0.0552931 0.817216 -0.636413 0.218295 0.739815 -0.952293 0.211576 0.21994 
0.545954 0.0531127 0.83613 0.584273 0.0480996 0.81013 -0.744469 -0.123354 0.656162 
-0.951364 -0.189816 0.242645 0.602816 -0.0837027 0.793477 0.646976 -0.0903642 0.757137 
-0.195622 -0.394773 0.897712 -0.701218 -0.346263 0.623213 -0.683222 -0.44855 0.576204 
0.52158 -0.324537 0.789069 0.743142 -0.377206 0.55268 0.455726 -0.410044 0.790049 
-0.238947 -0.451521 0.85967 -0.422028 -0.542363 0.726454 0.228633 -0.414053 0.881072 
-0.230618 -0.510709 0.828246 0.381468 -0.376115 0.844405 -0.640557 -0.554761 0.530968 
-0.548093 -0.663673 0.50905 0.414306 -0.453548 0.789078 0.55603 -0.533533 0.637317 
0.233136 -0.617563 0.751175 -0.0855536 -0.648746 0.756181 -0.370558 -0.586342 0.72034 
-0.214023 -0.632319 0.744558 -0.458638 -0.626594 0.630104 0.65539 -0.411759 0.633182 
0.590681 -0.718425 0.367371 0.625983 -0.565502 0.536985 -0.458148 -0.756388 0.46688 
-0.511363 -0.690107 0.512114 -0.483282 -0.701177 0.524203 0.225951 -0.936802 0.26711 
-0.0773946 -0.905922 0.416311 0.560393 -0.622546 0.546257 0.685297 -0.641703 0.344361 
0.343632 -0.762962 0.547545 -0.0577106 -0.823764 0.563988 -0.449317 -0.764222 0.462686 
-0.351743 -0.783542 0.51219 -0.495647 -0.825018 0.27144 -0.0691763 -0.997263 0.0260969 
0.262081 0.884291 0.38645 0.154698 0.881914 0.445305 0.0825811 0.857291 0.508165 
0.0258687 0.819217 0.572899 -0.0370829 0.782421 0.621645 -0.00728027 0.999074 0.0424068 
-0.0169836 0.762645 0.646594 -0.00256763 0.768921 0.639339 -0.141988 0.750191 0.645796 
-0.281004 0.704946 0.65122 0.592954 0.708294 0.383048 0.34922 0.86334 0.364264 
0.411718 0.82964 0.377076 -0.328316 0.721272 0.609898 -0.382861 0.746034 0.544839 
-0.509961 0.826147 0.239628 -0.432445 0.803307 0.409498 0.630464 0.673828 0.385319 
0.749498 0.515902 0.414846 -0.454079 0.812489 0.365615 -0.487755 0.827882 0.276961 
-0.608521 0.770166 0.191175 0.762117 0.493588 0.418984 -0.661022 0.727128 0.185297 
-0.683093 0.71026 -0.170042 0.837179 0.342066 0.426758 -0.865538 0.482938 0.132716 
-0.962344 0.267459 0.048574 0.887715 0.165009 0.429807 0.979702 0.141714 0.141779 
-0.983929 0.176234 0.0287195 -0.980324 0.157201 -0.119383 0.930344 -0.0589634 0.361917 
0.989671 -0.0656588 0.127434 -0.977526 -0.209522 -0.0233067 -0.957863 -0.28346 -0.0463591 
-0.961715 -0.223129 -0.159117 0.896641 -0.274326 0.347534 -0.873695 -0.484444 -0.0444021 
-0.71963 -0.686069 -0.106966 0.857458 -0.456694 0.237055 0.80525 -0.55751 0.201879 
-0.222502 -0.84557 0.485287 -0.699465 -0.705403 -0.114695 -0.631286 -0.761276 -0.148112 
0.731296 -0.651969 0.200355 0.566272 -0.797813 0.206958 -0.337578 -0.894858 0.292011 
-0.381527 -0.841001 0.383608 -0.526151 -0.804122 0.276682 0.437156 -0.827666 0.351944 
-0.256989 -0.948939 0.18295 0.583279 -0.764329 0.274929 -0.618807 -0.771009 -0.15041 
-0.543216 -0.829798 -0.127876 -0.455262 -0.667338 -0.589404 0.312731 -0.934311 0.171062 
0.225727 -0.959977 0.165803 -0.314406 -0.90527 0.28572 -0.0455898 -0.975627 0.214645 
-0.330929 -0.91844 0.21669 0.743624 -0.667553 0.037362 0.720643 -0.692457 0.0343216 
0.546144 -0.743659 -0.385613 0.338307 -0.938205 -0.072943 -0.402617 -0.906233 -0.129003 
-0.511352 -0.850507 -0.123118 -0.509965 -0.853263 -0.108987 -0.509733 -0.825459 -0.242466 
0.079938 -0.990737 -0.109769 -0.141458 -0.981734 -0.127231 -0.0744997 -0.977629 -0.196703 
-0.00685255 0.999403 0.0338557 0.313528 0.938192 -0.146618 0.243719 0.963855 -0.107636 
0.174157 0.983739 -0.0439082 0.0135164 0.999527 0.0276141 0.0956374 0.995412 0.00298928 
-0.00765784 0.999351 0.0352006 -0.00641418 0.999731 0.0222664 -0.013061 0.998864 0.0458251 
0.00860772 0.998854 0.0470894 -0.137752 0.989039 0.0531553 -0.371907 0.925487 0.0718289 
-0.551136 0.833759 0.0330796 0.59452 0.789299 -0.153467 0.386222 0.908841 -0.157608 
0.405667 0.900088 -0.158983 0.301037 0.851507 -0.429317 -0.572291 0.819919 0.0146544 
-0.578667 0.774598 -0.25523 -0.603805 0.79404 -0.0701446 0.662435 0.734809 -0.145726 
0.780612 0.610152 -0.135494 0.562301 0.689761 -0.456122 -0.60248 0.78482 -0.145169 
-0.611645 0.759054 -0.222997 0.819621 0.55674 -0.135137 0.741762 0.552397 -0.380324 
-0.667856 0.64241 -0.37587 -0.520869 0.462942 -0.717203 -0.688031 0.604149 -0.402016 
0.929148 0.349477 -0.120625 0.975354 0.16422 -0.147367 -0.826524 0.397791 -0.398272 
-0.66877 0.352078 -0.654819 0.983587 0.106998 -0.145283 0.972996 0.109892 -0.202986 
-0.883662 0.110464 -0.454906 -0.534799 0.0565625 -0.843084 0.98155 -0.0673123 -0.178967 
0.970428 -0.148769 -0.190097 0.974857 -0.0709262 -0.211241 -0.842636 -0.252581 -0.47557 
-0.484011 -0.279071 -0.829369 0.91843 -0.33806 -0.205432 -0.404679 -0.410534 -0.817127 
-0.636499 -0.491227 -0.594614 -0.605587 -0.540173 -0.584361 -0.596344 -0.485685 -0.639128 
0.816608 -0.515403 -0.259831 0.751563 -0.596809 -0.281018 0.710661 -0.510375 -0.48423 
-0.176351 -0.353593 -0.918625 -0.443137 -0.650704 -0.616615 -0.331682 -0.484532 -0.809454 
-0.493043 -0.615817 -0.614556 -0.464538 -0.630345 -0.621988 -0.434145 -0.577331 -0.691526 
0.688606 -0.654473 -0.312231 0.5937 -0.731966 -0.334284 0.552601 -0.604553 -0.573714 
-0.409353 -0.911528 -0.0393351 -0.270854 -0.956882 0.104955 -0.319603 -0.921289 -0.22154 
0.337347 -0.919881 -0.200042 0.2563 -0.920901 -0.293685 0.526214 -0.744543 -0.410798 
0.206294 -0.580744 -0.787514 -0.255428 -0.418806 -0.871412 -0.439885 -0.65124 -0.618375 
-0.41912 -0.649988 -0.63392 -0.33891 -0.541017 -0.769702 0.268224 -0.926288 -0.264662 
0.251426 -0.932273 -0.260099 0.25403 -0.927383 -0.274643 0.032148 -0.974737 -0.221032 
0.0496654 -0.902128 -0.4286 -0.301785 -0.944203 -0.131937 -0.275997 -0.949349 -0.150207 
-0.257441 -0.93751 -0.23409 0.515001 -0.746716 -0.420939 0.189052 -0.792754 -0.579483 
0.151815 -0.688243 -0.709418 -0.115867 -0.745454 -0.65641 -0.122496 -0.653395 -0.747041 
-0.347728 -0.693118 -0.631406 -0.304115 -0.710994 -0.634036 -0.30351 -0.669993 -0.677489 
0.250691 0.736945 -0.627747 0.203254 0.79161 -0.576231 0.115596 0.796357 -0.593678 
0.0179569 0.819683 -0.572535 0.00227888 0.834048 -0.551687 0.0107422 0.849397 -0.527645 
-0.123269 0.851801 -0.509157 -0.349894 0.764195 -0.54183 0.375867 0.671427 -0.638678 
0.263 0.745477 -0.61245 0.280508 0.73749 -0.614348 0.242103 0.701738 -0.670037 
0.1747 0.611387 -0.771806 0.0719058 0.548394 -0.833123 0.0349699 0.524853 -0.850475 
0.0307222 0.561363 -0.826999 0.0318072 0.564502 -0.824818 -0.136969 0.529373 -0.837259 
-0.50445 0.691903 -0.516527 -0.323021 0.618216 -0.716566 -0.539165 0.646875 -0.539309 
-0.554036 0.589616 -0.587706 0.44057 0.614656 -0.654291 0.500519 0.539682 -0.676922 
0.3546 0.577507 -0.735353 0.186981 0.429033 -0.883725 0.126793 0.377511 -0.917283 
0.0795536 0.27024 -0.959501 0.0398953 0.224813 -0.973585 0.0425264 0.185359 -0.98175 
-0.117898 0.197698 -0.973147 -0.262097 0.280432 -0.923397 -0.393414 0.38507 -0.834833 
-0.553916 0.589431 -0.588004 -0.553597 0.588816 -0.588919 0.574769 0.474485 -0.666712 
0.642086 0.390562 -0.659687 0.461415 0.39536 -0.794221 0.199011 0.291435 -0.93566 
0.126356 0.242529 -0.96188 -0.288653 0.208865 -0.934374 -0.506069 0.440922 -0.741271 
-0.392457 0.279203 -0.876369 -0.509827 0.419975 -0.750798 0.709381 0.277144 -0.648051 
0.591879 0.26691 -0.760551 0.341895 0.175723 -0.923163 -0.0749642 -0.0124507 -0.997109 
-0.174446 0.026183 -0.984319 -0.303953 0.121299 -0.944934 -0.506665 0.208968 -0.836435 
-0.43193 0.164608 -0.886759 0.696267 0.0538881 -0.715757 0.549159 0.0337946 -0.835034 
0.297124 0.0791039 -0.951556 -0.0979645 -0.127621 -0.986973 -0.167903 -0.102472 -0.980463 
-0.250669 -0.0587188 -0.96629 -0.442534 0.0143397 -0.896637 -0.363056 -0.0164537 -0.931622 
0.703564 -0.0725458 -0.70692 0.563625 -0.0568984 -0.824069 0.316136 -0.0763205 -0.945639 
-0.239861 -0.274336 -0.931239 -0.0955003 -0.28013 -0.9552 -0.11195 -0.250649 -0.961583 
-0.221685 -0.22871 -0.947917 -0.390151 -0.230124 -0.891529 -0.385271 -0.333196 -0.86055 
-0.346897 -0.212955 -0.913407 0.675747 -0.300325 -0.673179 0.631221 -0.371595 -0.680792 
0.592965 -0.293713 -0.74975 0.351492 -0.193744 -0.915924 -0.0701869 -0.207225 -0.975772 
-0.132835 -0.252736 -0.958373 -0.20744 -0.380122 -0.901374 -0.131954 -0.286961 -0.948811 
-0.079255 -0.288648 -0.954149 -0.168696 -0.348191 -0.92212 -0.118878 -0.32422 -0.938483 
-0.310461 -0.382359 -0.870296 -0.243097 -0.39141 -0.887525 -0.206949 -0.351123 -0.913173 
0.56503 -0.460812 -0.684392 0.48372 -0.517619 -0.705752 0.454237 -0.412506 -0.789625 
0.197919 -0.344592 -0.917651 0.110048 -0.31479 -0.94276 -1.92705e-05 -0.302885 -0.953027 
-0.131357 -0.341896 -0.930512 -0.317586 -0.81239 -0.489041 -0.134333 -0.478207 -0.867913 
-0.00643522 -0.774541 -0.632491 -0.0606263 -0.565123 -0.822776 0.192399 -0.57125 -0.797907 
-0.0653402 -0.422035 -0.904222 -0.117139 -0.270923 -0.955447 -0.14389 -0.199931 -0.969187 
-0.168185 -0.337058 -0.92634 -0.188172 -0.329227 -0.925311 -0.144755 -0.278141 -0.94957 
0.379681 -0.567018 -0.730981 0.307215 -0.612293 -0.728503 0.301178 -0.543528 -0.783498 
0.0883737 -0.6955 -0.71307 0.101567 -0.50686 -0.856024 -0.115867 -0.754729 -0.645723 
-0.0486254 -0.547599 -0.835327 -0.316398 -0.813293 -0.48831 -0.272916 -0.787671 -0.552351 
-0.221222 -0.655523 -0.722046 0.177417 -0.553424 -0.813784 0.0622678 -0.452903 -0.889383 
0.040839 -0.406939 -0.912542 -0.172656 -0.35914 -0.917174 -0.13716 -0.383765 -0.913187 
-0.136123 -0.338319 -0.931134 0.0570621 0.244123 -0.968064 -0.00105873 0.283036 -0.959109 
0.0821356 0.188973 -0.978541 0.0342737 0.158952 -0.986691 0.000813814 0.142442 -0.989803 
0.0509761 0.204125 -0.977617 0.0443907 0.108239 -0.993133 0.0595888 0.221164 -0.973414 
-0.116442 0.197843 -0.973293 -0.0137254 0.209834 -0.977641 -0.117507 0.19635 -0.973467 
-0.183501 0.0943954 -0.978477 0.19423 0.165742 -0.966853 0.0879023 0.185862 -0.978636 
0.0911764 0.191536 -0.977241 0.0769655 0.169503 -0.98252 0.00557247 0.0939256 -0.995564 
-0.0245938 0.0902477 -0.995616 0.045447 0.0576302 -0.997303 0.0625609 0.0473034 -0.99692 
0.0160452 -0.025978 -0.999534 -0.0678387 0.0245747 -0.997394 -0.185464 0.0860566 -0.978876 
-0.0837614 -0.00484167 -0.996474 -0.175968 0.0755729 -0.981491 0.220853 0.143244 -0.964731 
0.196691 0.140066 -0.970409 0.046267 0.11792 -0.991945 -0.0231693 0.0470519 -0.998624 
-0.0039896 0.0272942 -0.999619 0.00155983 0.171168 -0.985241 -0.00280973 0.108283 -0.994116 
-0.0213061 0.0223714 -0.999523 -0.0348525 0.0263144 -0.999046 -0.0733342 -0.0138419 -0.997211 
-0.0201036 -0.0571836 -0.998161 0.189517 0.0430819 -0.980932 0.140818 0.0262131 -0.989688 
0.0247486 0.0322695 -0.999173 -0.0113058 0.0301336 -0.999482 0.128575 0.0858589 -0.987976 
0.0634531 0.15482 -0.985903 -0.111839 0.0049508 -0.993714 -0.0186338 -0.013106 -0.99974 
-0.0624915 0.106262 -0.992372 -0.0984005 -0.121341 -0.987721 -0.151105 -0.142822 -0.978146 
-0.102711 -0.0766325 -0.991755 0.221651 -0.0388038 -0.974354 0.156756 -0.0132439 -0.987549 
0.0455348 0.0010965 -0.998962 0.0298984 0.0270515 -0.999187 0.114552 -0.00150985 -0.993416 
-0.067929 -0.151701 -0.986089 -0.0916888 -0.193496 -0.976807 -0.182728 -0.136617 -0.973625 
-0.0233595 -0.196482 -0.980229 0.0913635 -0.131401 -0.98711 -0.207348 -0.268822 -0.940607 
-0.15482 -0.337254 -0.928596 -0.0980609 -0.235139 -0.967003 0.235466 -0.177479 -0.95554 
0.209483 -0.201838 -0.956754 0.214434 -0.177106 -0.960548 0.0887101 -0.242827 -0.966005 
0.0646229 -0.154073 -0.985944 -0.00212312 -0.268503 -0.963276 -0.0143768 -0.118996 -0.992791 
-0.0894587 -0.258254 -0.961926 -0.0500294 -0.188792 -0.980742 -0.0699303 -0.233756 -0.969777 
-0.0761357 -0.364632 -0.928034 -0.0673885 -0.35269 -0.93331 
