# vtk DataFile Version 4.2
vtk output
ASCII
DATASET POLYDATA
POINTS 528 float
-47.336 -33.8011 -12.4739 -38.9523 -33.8011 -13.5626 -30.5687 -33.8011 -14.802 
-22.185 -33.8011 -14.7594 -13.8014 -33.8011 -14.7928 -5.41772 -33.8011 -14.9475 
2.96593 -33.8011 -14.7389 11.3496 -33.8011 -13.4778 -55.7197 -25.4175 -14.0316 
-47.336 -25.4175 -16.454 -38.9523 -25.4175 -16.6557 -30.5687 -25.4175 -17.7578 
-22.185 -25.4175 -16.393 -13.8014 -25.4175 -16.1751 -5.41772 -25.4175 -16.1528 
2.96593 -25.4175 -16.092 11.3496 -25.4175 -15.1658 19.7332 -25.4175 -13.3677 
28.1169 -25.4175 -12.2979 36.5005 -25.4175 -12.1791 -55.7197 -17.0338 -16.1794 
-47.336 -17.0338 -17.5244 -38.9523 -17.0338 -18.41 -30.5687 -17.0338 -17.8937 
-22.185 -17.0338 -16.5836 -13.8014 -17.0338 -15.6988 -5.41772 -17.0338 -16.7285 
2.96593 -17.0338 -16.7234 11.3496 -17.0338 -15.6527 19.7332 -17.0338 -15.1744 
28.1169 -17.0338 -15.7532 36.5005 -17.0338 -16.9025 44.8842 -17.0338 -16.5411 
53.2679 -17.0338 -14.8492 61.6515 -17.0338 -12.2807 -64.1033 -8.65015 -14.9378 
-55.7197 -8.65015 -17.4456 -47.336 -8.65015 -19.3083 -38.9523 -8.65015 -18.9892 
-30.5687 -8.65015 -18.0321 -22.185 -8.65015 -16.3152 -13.8014 -8.65015 -15.4073 
-5.41772 -8.65015 -18.2743 2.96593 -8.65015 -17.439 11.3496 -8.65015 -18.1961 
19.7332 -8.65015 -17.1439 28.1169 -8.65015 -18.2134 36.5005 -8.65015 -19.1784 
44.8842 -8.65015 -19.5139 53.2679 -8.65015 -18.2107 61.6515 -8.65015 -14.9815 
-64.1033 -0.266493 -14.8901 -55.7197 -0.266493 -18.3231 -47.336 -0.266493 -20.1897 
-38.9523 -0.266493 -19.5531 -30.5687 -0.266493 -18.5519 -22.185 -0.266493 -17.0649 
-13.8014 -0.266493 -17.0284 -5.41772 -0.266493 -18.473 2.96593 -0.266493 -17.4668 
11.3496 -0.266493 -19.5041 19.7332 -0.266493 -16.7754 28.1169 -0.266493 -18.5742 
36.5005 -0.266493 -19.8086 44.8842 -0.266493 -19.534 53.2679 -0.266493 -18.4695 
61.6515 -0.266493 -15.7471 -64.1033 8.11716 -13.9267 -55.7197 8.11716 -17.8973 
-47.336 8.11716 -19.8286 -38.9523 8.11716 -19.7171 -30.5687 8.11716 -18.9191 
-22.185 8.11716 -17.7921 -13.8014 8.11716 -17.6643 -5.41772 8.11716 -18.7867 
2.96593 8.11716 -18.8585 11.3496 8.11716 -18.6526 19.7332 8.11716 -17.2865 
28.1169 8.11716 -18.2618 36.5005 8.11716 -19.1732 44.8842 8.11716 -19.5362 
53.2679 8.11716 -17.9905 61.6515 8.11716 -14.5472 -64.1033 16.5008 -12.9611 
-55.7197 16.5008 -17.228 -47.336 16.5008 -18.3921 -38.9523 16.5008 -19.0263 
-30.5687 16.5008 -19.2271 -22.185 16.5008 -18.4815 -13.8014 16.5008 -18.2953 
-5.41772 16.5008 -18.2063 2.96593 16.5008 -17.7667 11.3496 16.5008 -18.3309 
19.7332 16.5008 -18.5362 28.1169 16.5008 -18.6715 36.5005 16.5008 -18.518 
44.8842 16.5008 -17.9609 53.2679 16.5008 -16.0016 61.6515 16.5008 -12.2181 
-55.7197 24.8845 -14.6182 -47.336 24.8845 -17.0868 -38.9523 24.8845 -17.4561 
-30.5687 24.8845 -17.5454 -22.185 24.8845 -18.3212 -13.8014 24.8845 -18.2964 
-5.41772 24.8845 -18.2505 2.96593 24.8845 -17.814 11.3496 24.8845 -18.0838 
19.7332 24.8845 -18.4534 28.1169 24.8845 -18.4114 36.5005 24.8845 -17.8923 
44.8842 24.8845 -15.9728 -38.9523 33.2681 -13.7136 -30.5687 33.2681 -15.4595 
-22.185 33.2681 -15.8531 -13.8014 33.2681 -16.6818 -5.41772 33.2681 -17.3455 
2.96593 33.2681 -17.0568 11.3496 33.2681 -16.6001 19.7332 33.2681 -16.4614 
28.1169 33.2681 -16.0586 36.5005 33.2681 -14.5634 -13.8014 41.6518 -12.9148 
-5.41772 41.6518 -14.0047 2.96593 41.6518 -13.7506 11.3496 41.6518 -12.6925 
-47.336 -34.151 -12.1521 -38.9523 -35.8405 -12.1521 -30.5687 -38.8592 -12.1521 
-30.5687 -42.1848 -7.47249 -22.185 -38.4255 -12.1521 -22.185 -42.1848 -9.18663 
-13.8014 -39.5913 -12.1521 -13.8014 -42.1848 -10.4928 -5.41772 -40.5493 -12.1521 
-5.41772 -42.1848 -11.2633 2.96593 -40.3537 -12.1521 2.96593 -42.1848 -11.2538 
11.3496 -36.9629 -12.1521 11.3496 -42.1848 -9.61867 19.7332 -42.1848 -6.82989 
-47.8805 -33.8011 -12.1521 -55.7197 -27.9549 -12.1521 16.9208 -33.8011 -12.1521 
19.7332 -30.8751 -12.1521 19.7332 -33.8011 -11.4215 28.1169 -25.7257 -12.1521 
28.1169 -33.8011 -8.29298 36.5005 -25.456 -12.1521 36.5005 -33.8011 -6.1107 
-58.3464 -25.4175 -12.1521 37.1127 -25.4175 -12.1521 44.8842 -24.9145 -12.1521 
44.8842 -25.4175 -11.6585 53.2679 -21.4165 -12.1521 53.2679 -25.4175 -8.8397 
61.6515 -17.1931 -12.1521 -63.4586 -17.0338 -12.1521 -64.1033 -16.3555 -12.1521 
-64.1033 -17.0338 -11.5885 61.8183 -17.0338 -12.1521 -67.4759 -8.65015 -12.1521 
65.9901 -8.65015 -12.1521 70.0352 -8.65015 -7.4178 -67.7612 -0.266493 -12.1521 
-72.487 -0.266493 -6.26268 66.8143 -0.266493 -12.1521 70.0352 -0.266493 -8.47905 
-66.4466 8.11716 -12.1521 65.0995 8.11716 -12.1521 70.0352 8.11716 -5.91236 
-65.0714 16.5008 -12.1521 -64.1033 18.1452 -12.1521 53.2679 24.6068 -12.1521 
61.732 16.5008 -12.1521 61.6515 16.6201 -12.1521 -59.3864 24.8845 -12.1521 
-64.1033 24.8845 -4.71907 -55.7197 28.0652 -12.1521 -47.336 33.0054 -12.1521 
53.0114 24.8845 -12.1521 44.8842 31.8943 -12.1521 53.2679 24.8845 -11.9754 
-46.5077 33.2681 -12.1521 -47.336 33.2681 -11.8848 -38.9523 35.1972 -12.1521 
-30.5687 37.7898 -12.1521 -22.185 39.8538 -12.1521 19.7332 40.9214 -12.1521 
28.1169 38.8466 -12.1521 42.7258 33.2681 -12.1521 36.5005 37.0081 -12.1521 
44.8842 33.2681 -10.9672 -30.5687 41.6518 -7.26161 -17.1731 41.6518 -12.1521 
-22.185 41.6518 -10.3979 -13.8014 42.5035 -12.1521 -5.41772 43.802 -12.1521 
2.96593 43.5437 -12.1521 15.8426 41.6518 -12.1521 11.3496 42.3478 -12.1521 
19.7332 41.6518 -11.4064 28.1169 41.6518 -8.96192 36.5005 41.6518 -5.40698 
-30.5687 -43.6333 -3.76845 -22.185 -45.8601 -3.76845 -13.8014 -47.6613 -3.76845 
-5.41772 -49.1583 -3.76845 2.96593 -49.5823 -3.76845 2.96593 -50.5684 1.04635 
11.3496 -48.4829 -3.76845 19.7332 -45.225 -3.76845 -47.336 -37.2103 -3.76845 
-35.0035 -42.1848 -3.76845 -38.9523 -40.9051 -3.76845 -30.5687 -42.1848 2.34654 
26.0732 -42.1848 -3.76845 28.1169 -40.7869 -3.76845 28.1169 -42.1848 -1.23031 
36.5005 -36.0554 -3.76845 -53.0236 -33.8011 -3.76845 -55.7197 -31.8796 -3.76845 
41.5106 -33.8011 -3.76845 44.8842 -31.9766 -3.76845 44.8842 -33.8011 0.988657 
53.2679 -28.6185 -3.76845 -62.8101 -25.4175 -3.76845 -64.1033 -23.7437 -3.76845 
58.415 -25.4175 -3.76845 61.6515 -23.3115 -3.76845 -68.2977 -17.0338 -3.76845 
67.9534 -17.0338 -3.76845 70.0352 -12.6003 -3.76845 -71.519 -8.65015 -3.76845 
-72.487 -5.03921 -3.76845 71.9835 -8.65015 -3.76845 -73.7247 -0.266493 -3.76845 
-72.487 7.40294 -3.76845 -72.487 -0.266493 0.299949 72.4069 -0.266493 -3.76845 
-72.3706 8.11716 -3.76845 71.143 8.11716 -3.76845 70.0352 10.2742 -3.76845 
-69.8914 16.5008 -3.76845 66.956 16.5008 -3.76845 61.6515 24.0005 -3.76845 
-64.5642 24.8845 -3.76845 -64.1033 25.4016 -3.76845 -64.1033 24.8845 -1.85892 
-55.7197 32.534 -3.76845 60.9039 24.8845 -3.76845 53.2679 32.714 -3.76845 
-54.5752 33.2681 -3.76845 -47.336 37.3075 -3.76845 -38.9523 40.8413 -3.76845 
52.5961 33.2681 -3.76845 44.8842 38.5043 -3.76845 -36.7051 41.6518 -3.76845 
-30.5687 43.7498 -3.76845 -22.185 45.4024 -3.76845 -13.8014 46.5344 -3.76845 
-5.41772 47.2831 -3.76845 2.96593 47.6157 -3.76845 11.3496 46.7543 -3.76845 
19.7332 45.8267 -3.76845 28.1169 44.5493 -3.76845 38.1134 41.6518 -3.76845 
36.5005 42.378 -3.76845 36.5005 41.6518 3.15532 2.96593 -51.1683 4.6152 
-22.185 -43.9532 4.6152 -13.8014 -47.4721 4.6152 -1.84478 -50.5684 4.6152 
-5.41772 -50.0625 4.6152 7.50048 -50.5684 4.6152 2.96593 -50.5684 5.5931 
11.3496 -50.0106 4.6152 19.7332 -47.7127 4.6152 28.1169 -44.0914 4.6152 
-47.336 -34.6917 4.6152 -38.9523 -38.0357 4.6152 -28.397 -42.1848 4.6152 
-30.5687 -41.4263 4.6152 -22.185 -42.1848 6.66024 -13.8014 -42.1848 10.6852 
31.6482 -42.1848 4.6152 28.1169 -42.1848 8.59361 36.5005 -39.4378 4.6152 
44.8842 -34.8627 4.6152 -48.8467 -33.8011 4.6152 -55.7197 -29.0003 4.6152 
-47.336 -33.8011 5.80471 -38.9523 -33.8011 8.28236 -30.5687 -33.8011 10.6731 
-22.185 -33.8011 12.6376 46.7605 -33.8011 4.6152 44.8842 -33.8011 7.1477 
53.2679 -30.0907 4.6152 -59.6711 -25.4175 4.6152 -64.1033 -19.7946 4.6152 
-55.7197 -25.4175 8.00955 -47.336 -25.4175 11.2249 59.7767 -25.4175 4.6152 
53.2679 -25.4175 11.7774 61.6515 -23.5932 4.6152 -65.8608 -17.0338 4.6152 
-64.1033 -17.0338 6.44955 -55.7197 -17.0338 11.2467 67.1376 -17.0338 4.6152 
61.6515 -17.0338 12.6954 70.0352 -11.6951 4.6152 -68.4691 -8.65015 4.6152 
-64.1033 -8.65015 9.09807 71.5074 -8.65015 4.6152 70.0352 -8.65015 6.95627 
-70.5364 -0.266493 4.6152 -64.1033 -0.266493 10.9195 71.5436 -0.266493 4.6152 
70.0352 -0.266493 6.95952 -69.2824 8.11716 4.6152 -64.1033 8.11716 9.63045 
70.0991 8.11716 4.6152 70.0352 8.24463 4.6152 70.0352 8.11716 4.71115 
-67.2872 16.5008 4.6152 -64.1033 22.109 4.6152 -64.1033 16.5008 7.82813 
-55.7197 16.5008 11.6045 66.0214 16.5008 4.6152 61.6515 22.7892 4.6152 
61.6515 16.5008 10.303 -62.0625 24.8845 4.6152 -55.7197 30.4194 4.6152 
-55.7197 24.8845 9.60657 -47.336 24.8845 11.8471 59.5961 24.8845 4.6152 
53.2679 31.3906 4.6152 53.2679 24.8845 10.2005 -51.7273 33.2681 4.6152 
-47.336 35.9763 4.6152 -47.336 33.2681 8.00035 -38.9523 39.7331 4.6152 
-38.9523 33.2681 10.4936 36.5005 41.467 4.6152 36.5005 33.2681 12.6334 
50.8533 33.2681 4.6152 44.8842 37.037 4.6152 44.8842 33.2681 8.77619 
-34.3871 41.6518 4.6152 -30.5687 42.912 4.6152 -30.5687 41.6518 6.65483 
-22.185 44.1281 4.6152 -22.185 41.6518 7.93992 -13.8014 44.7332 4.6152 
-13.8014 41.6518 8.50963 -5.41772 45.0847 4.6152 -5.41772 41.6518 8.74812 
2.96593 45.4125 4.6152 2.96593 41.6518 9.1198 11.3496 45.0931 4.6152 
11.3496 41.6518 9.1539 19.7332 44.5374 4.6152 19.7332 41.6518 8.57322 
35.9304 41.6518 4.6152 28.1169 43.6526 4.6152 28.1169 41.6518 7.81668 
-5.41772 -43.5209 12.9989 2.96593 -43.2336 12.9989 11.3496 -43.3225 12.9989 
19.7332 -42.4519 12.9989 -8.12935 -42.1848 12.9989 -13.8014 -37.5097 12.9989 
-5.41772 -42.1848 13.8287 2.96593 -42.1848 13.7634 11.3496 -42.1848 13.7073 
20.4268 -42.1848 12.9989 19.7332 -42.1848 13.2013 28.1169 -38.9189 12.9989 
36.5005 -35.9666 12.9989 -38.9523 -27.8738 12.9989 -30.5687 -29.5622 12.9989 
-20.6164 -33.8011 12.9989 -22.185 -32.914 12.9989 -13.8014 -33.8011 14.4139 
[...]
POINT_DATA 528
SCALARS ImageScalars float
LOOKUP_TABLE default
0 0 0 0 0 0 0 0 0 
0 0 0 0 0 0 0 0 0 
0 0 0 0 0 0 0 0 0 
0 0 0 0 0 0 0 0 0 
0 0 0 0 0 0 0 0 0 
0 0 0 0 0 0 0 0 0 
0 0 0 0 0 0 0 0 0 
0 0 0 0 0 0 0 0 0 
0 0 0 0 0 0 0 0 0 
0 0 0 0 0 0 0 0 0 
0 0 0 0 0 0 0 0 0 
0 0 0 0 0 0 0 0 0 
0 0 0 0 0 0 0 0 0 
0 0 0 0 0 0 0 0 0 
0 0 0 0 0 0 0 0 0 
0 0 0 0 0 0 0 0 0 
0 0 0 0 0 0 0 0 0 
0 0 0 0 0 0 0 0 0 
0 0 0 0 0 0 0 0 0 
0 0 0 0 0 0 0 0 0 
0 0 0 0 0 0 0 0 0 
0 0 0 0 0 0 0 0 0 
0 0 0 0 0 0 0 0 0 
0 0 0 0 0 0 0 0 0 
0 0 0 0 0 0 0 0 0 
0 0 0 0 0 0 0 0 0 
0 0 0 0 0 0 0 0 0 
0 0 0 0 0 0 0 0 0 
0 0 0 0 0 0 0 0 0 
0 0 0 0 0 0 0 0 0 
0 0 0 0 0 0 0 0 0 
0 0 0 0 0 0 0 0 0 
0 0 0 0 0 0 0 0 0 
0 0 0 0 0 0 0 0 0 
0 0 0 0 0 0 0 0 0 
0 0 0 0 0 0 0 0 0 
0 0 0 0 0 0 0 0 0 
0 0 0 0 0 0 0 0 0 
0 0 0 0 0 0 0 0 0 
0 0 0 0 0 0 0 0 0 
0 0 0 0 0 0 0 0 0 
0 0 0 0 0 0 0 0 0 
0 0 0 0 0 0 0 0 0 
0 0 0 0 0 0 0 0 0 
0 0 0 0 0 0 0 0 0 
0 0 0 0 0 0 0 0 0 
0 0 0 0 0 0 0 0 0 
0 0 0 0 0 0 0 0 0 
0 0 0 0 0 0 0 0 0 
0 0 0 0 0 0 0 0 0 
0 0 0 0 0 0 0 0 0 
0 0 0 0 0 0 0 0 0 
0 0 0 0 0 0 0 0 0 
0 0 0 0 0 0 0 0 0 
0 0 0 0 0 0 0 0 0 
0 0 0 0 0 0 0 0 0 
0 0 0 0 0 0 0 0 0 
0 0 0 0 0 0 0 0 0 
0 0 0 0 0 0 
NORMALS Normals float
-0.343675 -0.640808 -0.686478 -0.153516 -0.499391 -0.852667 -0.0520557 -0.407342 -0.911791 
0.00056751 -0.337328 -0.941387 -0.0112433 -0.277985 -0.96052 0.00316795 -0.260495 -0.96547 
0.0820436 -0.262727 -0.961376 0.187755 -0.284038 -0.94025 -0.431837 -0.471201 -0.769081 
-0.168135 -0.305441 -0.93725 -0.0710168 -0.25409 -0.96457 0.0181899 -0.182156 -0.983101 
0.0894779 -0.100552 -0.9909 0.0137831 -0.0529551 -0.998502 0.00498986 -0.108093 -0.994128 
0.0597182 -0.11862 -0.991142 0.157778 -0.12274 -0.979817 0.160926 -0.206451 -0.965133 
0.068226 -0.40716 -0.910805 0.0240388 -0.569533 -0.821617 -0.355528 -0.240357 -0.903232 
-0.123032 -0.15541 -0.980159 -0.0186918 -0.126367 -0.991807 0.111796 -0.0156719 -0.993608 
0.13006 0.00470643 -0.991495 -0.00837971 0.0454436 -0.998932 -0.0617526 -0.110206 -0.991989 
0.0631846 -0.0796779 -0.994816 0.0899187 -0.168178 -0.981647 -0.00502042 -0.222417 -0.974939 
-0.101475 -0.318721 -0.942401 -0.0434038 -0.35913 -0.932278 0.100729 -0.387759 -0.91624 
0.251459 -0.482937 -0.838773 0.451759 -0.47576 -0.754696 -0.507575 -0.165299 -0.845603 
-0.255044 -0.112231 -0.960394 -0.101972 -0.154742 -0.982678 0.0753521 -0.0718417 -0.994566 
0.157426 -0.0387721 -0.986769 0.153751 -0.0282341 -0.987706 -0.0926516 -0.0731293 -0.993009 
-0.115872 -0.11267 -0.986853 -0.000802468 -0.045113 -0.998982 0.0185358 -0.21923 -0.975497 
-0.00453088 -0.0897294 -0.995956 -0.120057 -0.161638 -0.97952 -0.0749591 -0.172783 -0.982103 
0.0615307 -0.183425 -0.981106 0.22842 -0.17275 -0.958114 0.46177 -0.199103 -0.864365 
-0.499127 0.0513517 -0.865006 -0.26299 -0.0267405 -0.964428 -0.0886903 -0.0309023 -0.99558 
0.096283 -0.0434084 -0.994407 0.145758 -0.052542 -0.987924 0.0909006 -0.0883312 -0.991935 
-0.0759898 -0.13793 -0.987523 -0.0350809 -0.0336599 -0.998817 -0.0481159 -0.0982422 -0.993999 
0.0707491 -0.0319028 -0.996984 0.0130411 -0.00882947 -0.999876 -0.174437 -0.00233513 -0.984666 
-0.0571535 0.0008138 -0.998365 0.0774721 -0.00125929 -0.996994 0.194435 0.0146542 -0.980806 
0.480605 0.0217841 -0.876667 -0.549797 0.10281 -0.828947 -0.286792 0.0560168 -0.956354 
-0.123168 0.104795 -0.986837 0.0537722 0.0311802 -0.998066 0.113676 -0.0397009 -0.992724 
0.0745533 -0.0831455 -0.993745 -0.0591891 -0.0722944 -0.995625 -0.0715816 0.0194384 -0.997245 
0.00691121 0.000728416 -0.999976 0.102171 0.0620433 -0.99283 0.0135882 -0.10235 -0.994656 
-0.111959 -0.00585408 -0.993696 -0.0746574 0.0764022 -0.994278 0.0787191 0.0905091 -0.99278 
0.246139 0.133316 -0.960022 0.494881 0.19423 -0.846976 -0.58845 0.282758 -0.757479 
-0.309973 0.199938 -0.929485 -0.0944541 0.145161 -0.984889 -0.0474025 0.125949 -0.990904 
0.032734 0.0793333 -0.996311 0.0550305 -0.0317618 -0.997979 0.0164193 -0.03758 -0.999159 
0.0316375 0.0314852 -0.999003 -0.00740894 0.0599468 -0.998174 -0.045454 0.031358 -0.998474 
-0.0205645 -0.070236 -0.997318 0.00128135 -0.00938892 -0.999955 0.0403123 0.0727609 -0.996534 
0.143834 0.214505 -0.966074 0.311412 0.311967 -0.897607 0.579002 0.360161 -0.731464 
-0.426322 0.481248 -0.765931 -0.171309 0.346448 -0.922294 -0.0226877 0.261515 -0.964933 
-0.0493104 0.221336 -0.97395 -0.0428754 0.147734 -0.988097 0.00418825 0.0919469 -0.995755 
0.0286996 0.0480074 -0.998435 0.0101057 0.0399316 -0.999151 -0.0382879 0.0997701 -0.994274 
-0.0193094 0.119858 -0.992603 0.0309799 0.141723 -0.989421 0.155109 0.231086 -0.96049 
0.280076 0.3167 -0.906233 -0.208266 0.552031 -0.807395 -0.0965835 0.426732 -0.899206 
-0.0696139 0.376748 -0.923696 -0.0856514 0.290479 -0.95304 -0.0214529 0.230179 -0.972912 
0.0434276 0.224768 -0.973444 0.0343314 0.29074 -0.956186 0.0289303 0.352243 -0.935461 
0.106658 0.403988 -0.908525 0.238213 0.467996 -0.85102 -0.165381 0.638059 -0.752017 
-0.0460426 0.593886 -0.803231 0.0733728 0.586558 -0.806577 0.116988 0.607064 -0.785994 
-0.348246 -0.662315 -0.663373 -0.208419 -0.596522 -0.775063 -0.0831808 -0.626811 -0.774719 
-0.211505 -0.913337 -0.347968 -0.0196919 -0.532869 -0.845969 -0.108027 -0.796308 -0.595167 
-0.0639521 -0.505345 -0.860544 -0.0976803 -0.65871 -0.746029 -0.0218268 -0.474323 -0.88008 
-0.0336169 -0.55303 -0.832483 0.0843564 -0.447126 -0.890484 0.0809101 -0.522985 -0.848493 
0.197907 -0.372945 -0.906501 0.224241 -0.571814 -0.789141 0.338651 -0.639991 -0.68973 
-0.357451 -0.653736 -0.666976 -0.499435 -0.551866 -0.667839 0.239844 -0.308071 -0.920634 
0.233269 -0.274258 -0.932935 0.273973 -0.325828 -0.904862 0.0761931 -0.408425 -0.909606 
0.27273 -0.481703 -0.832815 0.0249355 -0.569958 -0.821296 0.279044 -0.702547 -0.654647 
-0.573217 -0.508461 -0.642565 0.0311837 -0.578757 -0.814904 0.126851 -0.674467 -0.727326 
0.132084 -0.695879 -0.705908 0.30871 -0.567222 -0.763516 0.370684 -0.704898 -0.604741 
0.453347 -0.483052 -0.749091 -0.576245 -0.413633 -0.704875 -0.592763 -0.402764 -0.697433 
-0.61492 -0.434633 -0.658003 0.457653 -0.477734 -0.749883 -0.726161 -0.185028 -0.662159 
0.65251 -0.226038 -0.723283 0.875669 -0.280052 -0.393414 -0.684027 0.0354725 -0.728594 
-0.97231 -0.0490751 -0.228484 0.650907 0.0324919 -0.758462 0.867168 0.0417575 -0.496262 
-0.66147 0.115639 -0.741003 0.645546 0.223165 -0.730389 0.905673 0.319372 -0.278852 
-0.622858 0.295975 -0.724187 -0.617862 0.336292 -0.710742 0.478207 0.454877 -0.751269 
0.581725 0.362226 -0.728278 0.581145 0.365281 -0.727214 -0.538258 0.514216 -0.667728 
-0.751931 0.63888 -0.162583 -0.455742 0.584823 -0.67103 -0.308114 0.664623 -0.680693 
0.478113 0.454491 -0.751562 0.368629 0.557737 -0.743668 0.488988 0.462893 -0.739338 
-0.304141 0.662696 -0.684348 -0.31782 0.680526 -0.660208 -0.238368 0.628671 -0.740239 
-0.159318 0.638668 -0.752808 -0.181891 0.618224 -0.764667 0.130772 0.658748 -0.740911 
0.141926 0.660731 -0.737084 0.350077 0.570613 -0.742864 0.262899 0.615038 -0.743379 
0.404299 0.637621 -0.65573 -0.231157 0.878391 -0.418326 -0.186975 0.660319 -0.727337 
-0.212437 0.751155 -0.62501 -0.168975 0.676261 -0.717021 -0.0541839 0.707403 -0.704731 
0.0663727 0.68126 -0.729027 0.129788 0.652995 -0.746159 0.120435 0.634685 -0.763328 
0.140708 0.718022 -0.681649 0.178058 0.848429 -0.498462 0.338006 0.905767 -0.255614 
-0.28815 -0.954818 -0.0727501 -0.233898 -0.955137 -0.181674 -0.192845 -0.938272 -0.287153 
-0.105334 -0.926641 -0.360889 0.0290679 -0.911786 -0.409636 0.0124798 -0.999372 -0.0331572 
0.219783 -0.867669 -0.445921 0.3724 -0.765134 -0.52525 -0.462916 -0.885921 -0.0291952 
-0.318524 -0.946634 -0.0492699 -0.349726 -0.93602 -0.039472 -0.282386 -0.897168 0.33963 
0.434345 -0.717203 -0.544945 0.432306 -0.697296 -0.571742 0.470753 -0.80708 -0.356389 
0.355531 -0.737428 -0.57428 -0.583439 -0.810888 -0.0453901 -0.631859 -0.77336 -0.0516636 
0.373192 -0.768831 -0.519255 0.380064 -0.789181 -0.482436 0.470631 -0.865875 -0.169606 
0.420469 -0.834859 -0.355269 -0.760049 -0.646204 -0.0688889 -0.790388 -0.607465 -0.0792042 
0.50101 -0.806299 -0.314438 0.57979 -0.767517 -0.273425 -0.878404 -0.468681 -0.0935114 
0.819001 -0.531339 -0.216601 0.898303 -0.383526 -0.214381 -0.952464 -0.293834 -0.080455 
-0.97844 -0.184613 -0.092593 0.938731 -0.267616 -0.217179 -0.994619 -0.0477105 -0.0919617 
-0.97946 0.180558 -0.0897542 -0.973901 -0.0484616 0.221741 0.981543 0.044747 -0.185936 
-0.975215 0.202326 -0.0895575 0.932291 0.316509 -0.175087 0.91766 0.358361 -0.17169 
-0.893871 0.438059 -0.0953918 0.851709 0.491741 -0.181058 0.750488 0.637306 -0.174953 
-0.761194 0.640585 -0.101167 -0.749189 0.654405 -0.102322 -0.764275 0.644116 0.0315997 
-0.590787 0.799476 -0.108668 0.740422 0.648757 -0.175755 0.636685 0.751501 -0.172852 
-0.570289 0.813449 -0.114327 -0.425007 0.894104 -0.141236 -0.35423 0.924095 -0.143419 
0.624175 0.762201 -0.171624 0.478481 0.861586 -0.169483 -0.330719 0.929593 -0.162734 
-0.264946 0.939413 -0.2175 -0.166143 0.97277 -0.161604 -0.11383 0.989235 -0.0919667 
-0.064514 0.996921 -0.0445605 0.0331415 0.996679 -0.074376 0.10721 0.990091 -0.0906951 
0.132725 0.980773 -0.143068 0.196555 0.962284 -0.188083 0.37217 0.914822 -0.156814 
0.346808 0.92448 -0.158304 0.345673 0.898284 0.271286 0.0038247 -0.975116 0.221663 
-0.320726 -0.817149 0.478959 -0.332648 -0.885438 0.324569 -0.111257 -0.972118 0.206417 
-0.1988 -0.960024 0.197062 0.108227 -0.977572 0.180663 0.000373554 -0.958487 0.285137 
0.195296 -0.969738 0.146517 0.334535 -0.937752 0.0933147 0.437809 -0.897615 0.0510893 
-0.400015 -0.780926 0.479732 -0.316173 -0.781337 0.538095 -0.279487 -0.823935 0.492969 
-0.266168 -0.821472 0.504319 -0.310498 -0.748053 0.586522 -0.342662 -0.57832 0.740357 
0.467725 -0.883757 0.0143685 0.39217 -0.863888 0.31607 0.496557 -0.867373 -0.0330912 
0.484677 -0.873556 0.0445907 -0.430925 -0.763281 0.481358 -0.558342 -0.654259 0.510096 
-0.389751 -0.748538 0.536456 -0.221481 -0.667013 0.711365 -0.215166 -0.543135 0.811608 
-0.200623 -0.434478 0.878054 0.48923 -0.870804 0.0485194 0.481759 -0.854727 0.19326 
0.535218 -0.837383 0.111045 -0.631649 -0.589622 0.503354 -0.720416 -0.457597 0.521158 
-0.503907 -0.537097 0.676464 -0.341512 -0.434123 0.833611 0.637844 -0.749917 0.175442 
0.520341 -0.59901 0.608632 0.684006 -0.699853 0.205769 -0.763282 -0.401148 0.506439 
-0.674244 -0.396169 0.623254 -0.439958 -0.279833 0.853306 0.811957 -0.495207 0.309025 
0.612553 -0.344421 0.711444 0.886377 -0.338527 0.315808 -0.807899 -0.217808 0.547595 
-0.677476 -0.215005 0.70342 0.915511 -0.239245 0.323422 0.876076 -0.236769 0.420038 
-0.801867 -0.0392711 0.59621 -0.545605 -0.021233 0.837774 0.93662 0.0750108 0.342222 
0.873266 0.0846724 0.479831 -0.792298 0.162766 0.588023 -0.620393 0.161251 0.767535 
0.870862 0.327015 0.36696 0.869926 0.329178 0.367246 0.86891 0.327101 0.371483 
-0.797266 0.352385 0.490094 -0.71003 0.491866 0.503909 -0.605082 0.345551 0.717266 
-0.367163 0.193349 0.909839 0.820347 0.452137 0.350148 0.71718 0.607129 0.34212 
0.630159 0.428399 0.64759 -0.667591 0.565204 0.48463 -0.559063 0.683354 0.469549 
-0.445763 0.448582 0.774642 -0.287548 0.328823 0.899551 0.678935 0.64157 0.356979 
0.605406 0.709919 0.35986 0.527935 0.523387 0.668843 -0.509314 0.742625 0.434865 
-0.435362 0.798155 0.416424 -0.406895 0.662494 0.628918 -0.374803 0.8386 0.395314 
-0.279969 0.557547 0.78151 0.337391 0.869636 0.360418 0.229272 0.509751 0.829209 
0.558254 0.744255 0.366658 0.460347 0.798859 0.387176 0.398301 0.683669 0.611517 
-0.298529 0.88839 0.348775 -0.231615 0.909325 0.345663 -0.218206 0.859523 0.462176 
-0.106103 0.906275 0.409154 -0.0734695 0.809765 0.582136 -0.0545 0.890778 0.451159 
-0.035205 0.767993 0.63949 -0.0373179 0.873359 0.485645 -0.026736 0.729526 0.68343 
-8.92717e-05 0.875493 0.483231 -0.0183249 0.71979 0.69395 0.0496686 0.900802 0.431381 
0.0227128 0.748362 0.662902 0.0851694 0.912348 0.400458 0.0538212 0.785715 0.616242 
0.325603 0.875171 0.357852 0.169961 0.921734 0.348597 0.159278 0.835442 0.525991 
-0.144161 -0.508333 0.849008 0.00764893 -0.536234 0.844035 0.0328317 -0.541885 0.839811 
0.163416 -0.628689 0.760293 -0.203175 -0.465785 0.861258 -0.255852 -0.394378 0.882613 
-0.14574 -0.445309 0.883436 0.0066329 -0.495279 0.868709 0.0307109 -0.49335 0.869288 
0.170941 -0.632288 0.75564 0.157596 -0.618456 0.769855 0.257522 -0.657492 0.708087 
0.357596 -0.66623 0.654418 -0.185847 -0.451397 0.872755 -0.131151 -0.433249 0.891681 
-0.198623 -0.406011 0.892023 -0.187723 -0.413759 0.890822 -0.201883 -0.310934 0.928743 
-0.158437 -0.244503 0.956617 -0.0520178 -0.260182 0.964157 -0.0123906 -0.28822 0.957484 
0.0279466 -0.310732 0.950087 0.159341 -0.417136 0.894767 0.383635 -0.661906 0.643976 
0.318582 -0.581047 0.748926 0.411235 -0.649214 0.639849 -0.256119 -0.398288 0.880778 
-0.305567 -0.332256 0.89232 -0.187751 -0.382245 0.904786 -0.0718769 -0.350635 0.93375 
-0.0921687 -0.296203 0.950667 -0.128557 -0.210831 0.969032 -0.115228 -0.133216 0.984366 
-0.0673608 -0.176253 0.982037 -0.0198022 -0.135133 0.99063 -0.00815299 -0.124638 0.992169 
-0.00214316 -0.167717 0.985833 0.147986 -0.28246 0.947796 0.48014 -0.544687 0.687591 
0.320925 -0.411199 0.853184 0.479272 -0.52714 0.701728 -0.360607 -0.244152 0.900196 
-0.327377 -0.164104 0.930534 -0.274846 -0.223249 0.935211 -0.150116 -0.179678 0.972204 
-0.076537 -0.141565 0.986966 -0.045758 -0.114024 0.992424 -0.0484162 -0.0818196 0.99547 
-0.127799 0.0169701 0.991655 -0.0577186 -0.10186 0.993123 0.0485514 -0.0245254 0.99852 
-0.0137536 0.0127843 0.999824 -0.0297019 -0.0603156 0.997737 0.0305143 -0.103156 0.994197 
0.201196 -0.203114 0.958261 0.59548 -0.338524 0.728563 0.34733 -0.297823 0.889193 
0.602749 -0.308226 0.735996 -0.336838 -0.157146 0.928356 -0.303473 -0.147916 0.941289 
-0.225687 -0.0579864 0.972473 -0.111572 0.00708742 0.993731 -0.0239681 0.0354149 0.999085 
-0.0276439 0.140731 0.989662 0.00699098 0.0927551 0.995664 -0.122116 0.0813695 0.989175 
-0.119761 0.0623815 0.990841 0.0940818 -0.0612022 0.993681 -0.0453666 -0.0024809 0.998967 
-0.125755 -0.0194657 0.99187 0.0239195 -0.0380596 0.998989 0.14609 -0.038281 0.98853 
0.284352 -0.0847769 0.954964 0.613471 -0.112575 0.781653 0.52962 -0.0955173 0.84284 
-0.377686 -0.00607803 0.925914 -0.277281 0.00404268 0.96078 -0.129733 0.0237364 0.991265 
-0.044678 0.0582197 0.997304 0.0551239 0.103739 0.993076 0.0325815 0.144693 0.98894 
-0.109327 0.109614 0.987943 -0.1449 -0.0814786 0.986086 -0.21254 -0.005425 0.977137 
-0.00652341 -0.0861749 0.996259 0.025108 -0.0497129 0.998448 -0.0664949 0.0103372 0.997733 
0.00933928 0.0248373 0.999648 0.140589 0.00648504 0.990047 0.303169 0.053675 0.951424 
0.572085 0.0122029 0.820104 0.50927 -0.000287583 0.860606 -0.316857 0.150638 0.936434 
-0.300165 0.151892 0.941716 -0.284382 0.14584 0.947553 -0.169303 0.059445 0.98377 
-0.0394699 0.0586938 0.997495 0.0701456 0.0500297 0.996281 -0.0197889 -0.0394694 0.999025 
-0.23452 -0.0313798 0.971605 -0.209197 0.0598888 0.976038 -0.11195 0.0973341 0.988935 
0.0513936 0.162817 0.985317 0.0401801 0.0693371 0.996784 -0.0477789 0.0713014 0.99631 
0.0138199 0.106184 0.99425 0.170573 0.128547 0.976924 0.304314 0.164735 0.938219 
0.602772 0.211729 0.769309 0.566667 0.286665 0.772471 0.53324 0.19506 0.823169 
-0.303652 0.194979 0.932619 -0.263154 0.26988 0.926237 -0.2237 0.1926 0.955439 
-0.0560131 0.110278 0.992321 -0.042839 0.0195797 0.99889 -0.0561025 -0.0653903 0.996281 
-0.0225487 0.016557 0.999609 -0.0569215 0.153399 0.986524 -0.0929847 0.210503 0.973161 
-0.0329592 0.217399 0.975526 -0.0469471 0.157476 0.986406 -0.0297663 0.171284 0.984772 
0.0696793 0.221 0.972781 0.204113 0.277897 0.938675 0.466327 0.391461 0.793282 
0.415626 0.422249 0.805582 0.356939 0.348719 0.866596 -0.251594 0.288612 0.923798 
-0.226417 0.368876 0.90148 -0.197298 0.242043 0.949994 -0.107833 0.143195 0.983802 
-0.0372939 0.111495 0.993065 0.00888153 0.123845 0.992262 -0.0260539 0.130546 0.9911 
-0.0502492 0.177579 0.982823 -0.0197984 0.191191 0.981353 -0.0171086 0.197077 0.980239 
0.0260694 0.273448 0.961533 0.217075 0.486498 0.846285 0.137669 0.33904 0.930645 
0.381882 0.441299 0.812048 0.313086 0.482405 0.818084 0.284175 0.398527 0.872021 
-0.198427 0.388675 0.899755 -0.184259 0.40312 0.896406 -0.182118 0.358732 0.915502 
-0.0571945 0.470682 0.880447 -0.0661628 0.387337 0.919561 -0.0163208 0.474317 0.880203 
-0.00777173 0.36123 0.932444 -0.0085852 0.444758 0.895609 -0.0030797 0.355347 0.934729 
-0.0279573 0.469716 0.882375 -0.0281109 0.367465 0.929612 0.0114519 0.493394 0.86973 
0.00221016 0.374899 0.927063 0.0513882 0.501628 0.863556 0.0531525 0.408329 0.911286 
0.19139 0.484456 0.853623 0.107842 0.490804 0.86457 0.101555 0.434829 0.894768 

