# vtk DataFile Version 4.2
vtk output
ASCII
DATASET POLYDATA
POINTS 568 float
-38.9072 0.913927 -21.4789 -38.9072 9.25002 -22.0002 -38.9072 17.5861 -21.5862 
-30.5711 17.5861 -21.4137 -30.5711 25.9222 -21.7702 11.1093 -32.4304 -14.6094 
19.4454 -32.4304 -15.8841 27.7815 -32.4304 -15.4413 36.1176 -32.4304 -14.0618 
-55.5794 -24.0943 -13.6729 -47.2433 -24.0943 -16.1282 -38.9072 -24.0943 -16.3027 
-30.5711 -24.0943 -16.9584 -22.235 -24.0943 -15.875 -13.899 -24.0943 -15.4162 
-5.56286 -24.0943 -14.5071 2.77323 -24.0943 -15.2935 11.1093 -24.0943 -17.6938 
19.4454 -24.0943 -18.7578 27.7815 -24.0943 -19.1729 36.1176 -24.0943 -18.172 
44.4537 -24.0943 -16.6254 52.7898 -24.0943 -13.6958 -63.9155 -15.7583 -13.6815 
-55.5794 -15.7583 -17.4895 -47.2433 -15.7583 -18.4189 -38.9072 -15.7583 -18.4928 
-30.5711 -15.7583 -18.1658 -22.235 -15.7583 -16.7887 -13.899 -15.7583 -16.6771 
-5.56286 -15.7583 -17.2853 2.77323 -15.7583 -16.8894 11.1093 -15.7583 -18.6051 
19.4454 -15.7583 -19.0064 27.7815 -15.7583 -19.3198 36.1176 -15.7583 -19.104 
44.4537 -15.7583 -18.9223 52.7898 -15.7583 -17.3169 61.1259 -15.7583 -13.9037 
-63.9155 -7.42216 -14.3434 -55.5794 -7.42216 -18.5481 -47.2433 -7.42216 -21.0162 
-38.9072 0.30332 -21.3804 -38.9072 -7.42216 -20.0966 -30.5711 -7.42216 -18.604 
-22.235 -7.42216 -16.2623 -13.899 -7.42216 -14.6912 -5.56286 -7.42216 -18.5839 
2.77323 -7.42216 -16.2916 11.1093 -7.42216 -18.7118 19.4454 -7.42216 -17.9576 
27.7815 -7.42216 -18.7469 36.1176 -7.42216 -19.6409 44.4537 -7.42216 -19.6431 
52.7898 -7.42216 -18.6493 61.1259 -7.42216 -16.6077 -63.9155 0.913927 -14.5788 
-55.5794 0.913927 -19.1503 -39.6806 0.913927 -21.3804 -47.2433 0.913927 -20.5463 
-38.3714 0.913927 -21.3804 -30.5711 0.913927 -19.886 -22.235 0.913927 -17.7843 
-13.899 0.913927 -16.5668 -5.56286 0.913927 -19.0079 2.77323 0.913927 -15.8867 
11.1093 0.913927 -21.0863 19.4454 0.913927 -16.7394 27.7815 0.913927 -18.4537 
36.1176 0.913927 -19.8245 44.4537 0.913927 -19.7468 52.7898 0.913927 -19.0972 
61.1259 0.913927 -17.5425 69.462 0.913927 -13.151 -63.9155 9.25002 -13.4213 
-55.5794 9.25002 -18.333 -42.6173 9.25002 -21.3804 -47.2433 9.25002 -20.6606 
-34.0972 9.25002 -21.3804 -30.5711 17.007 -21.3804 -30.5711 9.25002 -20.9327 
-22.235 9.25002 -19.5171 -13.899 9.25002 -18.0294 -5.56286 9.25002 -17.6109 
2.77323 9.25002 -18.6537 11.1093 9.25002 -18.8892 19.4454 9.25002 -17.1815 
27.7815 9.25002 -18.5888 36.1176 9.25002 -19.7561 44.4537 9.25002 -19.841 
52.7898 9.25002 -19.0402 61.1259 9.25002 -17.91 -55.5794 17.5861 -16.4548 
-40.1899 17.5861 -21.3804 -47.2433 17.5861 -20.1578 -38.9072 18.875 -21.3804 
-30.2242 17.5861 -21.3804 -22.235 17.5861 -20.6057 -13.899 17.5861 -19.2094 
-5.56286 17.5861 -18.4769 2.77323 17.5861 -19.0094 11.1093 17.5861 -18.6026 
19.4454 17.5861 -18.3273 27.7815 17.5861 -19.0525 36.1176 17.5861 -19.6928 
44.4537 17.5861 -20.8363 52.7898 17.5861 -18.5703 61.1259 17.5861 -14.1633 
-47.2433 25.9222 -17.5794 -32.692 25.9222 -21.3804 -38.9072 25.9222 -20.2696 
-25.6993 25.9222 -21.3804 -30.5711 29.7272 -21.3804 -22.235 25.9222 -21.1134 
-13.899 25.9222 -20.9225 -5.56286 25.9222 -19.8174 2.77323 25.9222 -20.0786 
11.1093 25.9222 -19.9152 19.4454 25.9222 -19.6217 27.7815 25.9222 -19.9426 
36.1176 25.9222 -19.2993 44.4537 25.9222 -18.579 52.7898 25.9222 -16.5665 
-38.9072 34.2583 -17.3048 -30.5711 34.2583 -20.7882 -22.235 34.2583 -20.3372 
-13.899 34.2583 -20.5725 -5.56286 34.2583 -19.6273 2.77323 34.2583 -19.7984 
11.1093 34.2583 -20.5578 19.4454 34.2583 -19.1993 27.7815 34.2583 -18.404 
36.1176 34.2583 -17.9925 44.4537 34.2583 -15.9845 -22.235 42.5944 -15.1309 
-13.899 42.5944 -16.3984 -5.56286 42.5944 -16.2157 2.77323 42.5944 -16.9293 
11.1093 42.5944 -17.2172 19.4454 42.5944 -16.3318 27.7815 42.5944 -13.8235 
11.1093 -34.3991 -13.0443 19.4454 -35.9184 -13.0443 27.7815 -35.2599 -13.0443 
36.1176 -33.6476 -13.0443 -55.5794 -24.9324 -13.0443 -55.5794 -32.4304 -4.87456 
-47.2433 -28.3633 -13.0443 -47.2433 -32.4304 -9.06393 -38.9072 -29.5141 -13.0443 
-38.9072 -32.4304 -10.5767 -30.5711 -30.0059 -13.0443 -30.5711 -32.4304 -10.8196 
-22.235 -29.6765 -13.0443 -22.235 -32.4304 -10.7285 -13.899 -28.568 -13.0443 
-13.899 -32.4304 -10.1746 -5.56286 -27.0591 -13.0443 -5.56286 -32.4304 -9.77056 
6.11152 -32.4304 -13.0443 2.77323 -29.8828 -13.0443 2.77323 -32.4304 -11.6823 
39.1981 -32.4304 -13.0443 44.4537 -29.9304 -13.0443 44.4537 -32.4304 -10.6169 
52.7898 -25.1591 -13.0443 52.7898 -32.4304 -6.38674 -56.8318 -24.0943 -13.0443 
-63.9155 -17.1823 -13.0443 -63.9155 -24.0943 -8.31451 54.4988 -24.0943 -13.0443 
61.1259 -17.9632 -13.0443 61.1259 -24.0943 -9.7899 -64.7222 -15.7583 -13.0443 
62.5997 -15.7583 -13.0443 69.462 -15.7583 -7.94843 -65.4778 -7.42216 -13.0443 
68.4497 -7.42216 -13.0443 69.462 -0.7538 -13.0443 69.462 -7.42216 -12.3758 
-65.5789 0.913927 -13.0443 69.5825 0.913927 -13.0443 69.462 3.30224 -13.0443 
-64.2751 9.25002 -13.0443 -63.9155 10.0553 -13.0443 68.9011 9.25002 -13.0443 
69.462 9.25002 -12.4248 -59.3484 17.5861 -13.0443 -55.5794 24.3573 -13.0443 
62.7198 17.5861 -13.0443 61.1259 22.2839 -13.0443 -54.5578 25.9222 -13.0443 
-55.5794 25.9222 -10.8979 -47.2433 33.2781 -13.0443 59.5111 25.9222 -13.0443 
52.7898 32.7046 -13.0443 61.1259 25.9222 -9.57683 -46.1492 34.2583 -13.0443 
-47.2433 34.2583 -10.476 -38.9072 39.0008 -13.0443 -30.5711 42.4458 -13.0443 
36.1176 40.7022 -13.0443 50.8307 34.2583 -13.0443 44.4537 37.1446 -13.0443 
-30.0155 42.5944 -13.0443 -30.5711 42.5944 -11.8584 -22.235 44.1986 -13.0443 
-13.899 45.2319 -13.0443 -5.56286 45.6933 -13.0443 2.77323 46.5863 -13.0443 
11.1093 46.0024 -13.0443 19.4454 45.3906 -13.0443 30.2365 42.5944 -13.0443 
27.7815 43.2895 -13.0443 -55.5794 -32.543 -4.7082 -47.2433 -35.1243 -4.7082 
-38.9072 -36.7275 -4.7082 -30.5711 -36.5871 -4.7082 -22.235 -36.4243 -4.7082 
-13.899 -36.9782 -4.7082 -5.56286 -37.4542 -4.7082 2.77323 -38.2753 -4.7082 
11.1093 -39.8668 -4.7082 19.4454 -40.1052 -4.7082 27.7815 -39.9838 -4.7082 
36.1176 -38.868 -4.7082 44.4537 -36.7225 -4.7082 52.7898 -33.4683 -4.7082 
-55.7572 -32.4304 -4.7082 -63.9155 -26.9308 -4.7082 55.0232 -32.4304 -4.7082 
61.1259 -28.7854 -4.7082 -66.4937 -24.0943 -4.7082 65.6304 -24.0943 -4.7082 
69.462 -19.4672 -4.7082 -71.002 -15.7583 -4.7082 -72.2516 -15.7583 2.84597 
71.741 -15.7583 -4.7082 -71.803 -7.42216 -4.7082 -72.2516 -7.42216 3.50498 
74.8906 -7.42216 -4.7082 -70.9717 0.913927 -4.7082 74.3331 0.913927 -4.7082 
-68.1746 9.25002 -4.7082 -63.9155 16.8651 -4.7082 73.0998 9.25002 -4.7082 
69.462 16.0943 -4.7082 -63.4635 17.5861 -4.7082 68.6883 17.5861 -4.7082 
-57.6074 25.9222 -4.7082 -55.5794 28.1061 -4.7082 52.7898 34.0277 -4.7082 
62.4205 25.9222 -4.7082 61.1259 27.1751 -4.7082 61.1259 25.9222 -2.70449 
-48.9831 34.2583 -4.7082 -47.2433 35.6246 -4.7082 -47.2433 34.2583 -0.531281 
-38.9072 40.3933 -4.7082 36.1176 41.819 -4.7082 52.4178 34.2583 -4.7082 
44.4537 39.2648 -4.7082 44.4537 34.2583 2.59399 -32.6146 42.5944 -4.7082 
-30.5711 43.3655 -4.7082 -30.5711 42.5944 -3.14912 -22.235 44.9262 -4.7082 
-22.235 42.5944 -0.224435 -13.899 46.0374 -4.7082 -13.899 42.5944 1.62517 
-5.56286 46.9899 -4.7082 -5.56286 42.5944 2.83583 2.77323 47.7156 -4.7082 
2.77323 42.5944 2.76379 11.1093 47.1292 -4.7082 11.1093 42.5944 1.59089 
19.4454 45.7297 -4.7082 19.4454 42.5944 -0.271065 32.7853 42.5944 -4.7082 
27.7815 43.8685 -4.7082 27.7815 42.5944 -2.81141 -55.5794 -34.3553 3.62789 
-47.2433 -36.7171 3.62789 -38.9072 -38.9831 3.62789 -30.5711 -38.8867 3.62789 
-22.235 -39.4067 3.62789 -13.899 -40.2325 3.62789 -5.56286 -40.4712 3.62789 
2.77323 -39.7786 3.62789 11.1093 -39.8441 3.62789 19.4454 -40.3005 3.62789 
27.7815 -40.6841 3.62789 36.1176 -40.3886 3.62789 44.4537 -38.6172 3.62789 
52.7898 -35.415 3.62789 -58.5858 -32.4304 3.62789 -63.9155 -28.6004 3.62789 
-55.5794 -32.4304 10.5602 58.8536 -32.4304 3.62789 61.1259 -31.0028 3.62789 
-67.8056 -24.0943 3.62789 -72.2516 -15.9572 3.62789 67.8495 -24.0943 3.62789 
69.462 -21.5606 3.62789 -72.3439 -15.7583 3.62789 -72.2516 -15.7583 3.89959 
72.3202 -15.7583 3.62789 69.462 -15.7583 8.6524 -72.2576 -7.42216 3.62789 
-72.2516 -7.38176 3.62789 -72.2516 -7.42216 3.6434 74.4808 -7.42216 3.62789 
-70.9449 0.913927 3.62789 73.3265 0.913927 3.62789 69.462 0.913927 8.68379 
-67.9817 9.25002 3.62789 -63.9155 16.0136 3.62789 -63.9155 9.25002 11.7205 
61.1259 9.25002 11.4441 70.3602 9.25002 3.62789 69.462 10.626 3.62789 
69.462 9.25002 4.55081 -62.8115 17.5861 3.62789 52.7898 17.5861 11.0493 
65.3807 17.5861 3.62789 61.1259 22.1188 3.62789 61.1259 17.5861 7.43296 
-55.8881 25.9222 3.62789 -55.5794 26.2258 3.62789 -55.5794 25.9222 4.07699 
-47.2433 32.7172 3.62789 -47.2433 25.9222 11.7661 19.4454 25.9222 11.5922 
27.7815 25.9222 11.2883 36.1176 25.9222 10.1593 44.4537 33.1515 3.62789 
44.4537 25.9222 8.58774 56.6024 25.9222 3.62789 52.7898 28.9169 3.62789 
52.7898 25.9222 6.24906 -44.6311 34.2583 3.62789 -38.9072 37.3775 3.62789 
-38.9072 34.2583 7.44808 -30.5711 38.9988 3.62789 -30.5711 34.2583 9.08329 
-22.235 40.1581 3.62789 -22.235 34.2583 9.16208 -13.899 41.1688 3.62789 
-13.899 34.2583 9.15017 -5.56286 41.9104 3.62789 -5.56286 34.2583 9.17803 
2.77323 41.7771 3.62789 2.77323 34.2583 8.84801 11.1093 40.4367 3.62789 
11.1093 34.2583 7.82886 19.4454 38.9402 3.62789 19.4454 34.2583 7.01901 
27.7815 37.4451 3.62789 27.7815 34.2583 6.47993 42.2945 34.2583 3.62789 
36.1176 36.2963 3.62789 36.1176 34.2583 5.52253 -47.2433 -35.2623 11.964 
-38.9072 -37.4803 11.964 -30.5711 -38.2833 11.964 -22.235 -39.2573 11.964 
-13.899 -40.0712 11.964 -5.56286 -39.3231 11.964 2.77323 -37.405 11.964 
11.1093 -37.1251 11.964 19.4454 -38.5344 11.964 27.7815 -38.8193 11.964 
36.1176 -38.7907 11.964 44.4537 -36.7821 11.964 52.7898 -33.5604 11.964 
-63.9155 -24.9177 11.964 -54.653 -32.4304 11.964 -55.5794 -31.9012 11.964 
-47.2433 -32.4304 16.0719 -38.9072 -32.4304 18.2932 -30.5711 -32.4304 19.6011 
-5.56286 -32.4304 20.1681 2.77323 -32.4304 18.0403 11.1093 -32.4304 17.8351 
[...]
POINT_DATA 568
SCALARS ImageScalars float
LOOKUP_TABLE default
0 0 0 0 0 0 0 0 0 
0 0 0 0 0 0 0 0 0 
0 0 0 0 0 0 0 0 0 
0 0 0 0 0 0 0 0 0 
0 0 0 0 0 0 0 0 0 
0 0 0 0 0 0 0 0 0 
0 0 0 0 0 0 0 0 0 
0 0 0 0 0 0 0 0 0 
0 0 0 0 0 0 0 0 0 
0 0 0 0 0 0 0 0 0 
0 0 0 0 0 0 0 0 0 
0 0 0 0 0 0 0 0 0 
0 0 0 0 0 0 0 0 0 
0 0 0 0 0 0 0 0 0 
0 0 0 0 0 0 0 0 0 
0 0 0 0 0 0 0 0 0 
0 0 0 0 0 0 0 0 0 
0 0 0 0 0 0 0 0 0 
0 0 0 0 0 0 0 0 0 
0 0 0 0 0 0 0 0 0 
0 0 0 0 0 0 0 0 0 
0 0 0 0 0 0 0 0 0 
0 0 0 0 0 0 0 0 0 
0 0 0 0 0 0 0 0 0 
0 0 0 0 0 0 0 0 0 
0 0 0 0 0 0 0 0 0 
0 0 0 0 0 0 0 0 0 
0 0 0 0 0 0 0 0 0 
0 0 0 0 0 0 0 0 0 
0 0 0 0 0 0 0 0 0 
0 0 0 0 0 0 0 0 0 
0 0 0 0 0 0 0 0 0 
0 0 0 0 0 0 0 0 0 
0 0 0 0 0 0 0 0 0 
0 0 0 0 0 0 0 0 0 
0 0 0 0 0 0 0 0 0 
0 0 0 0 0 0 0 0 0 
0 0 0 0 0 0 0 0 0 
0 0 0 0 0 0 0 0 0 
0 0 0 0 0 0 0 0 0 
0 0 0 0 0 0 0 0 0 
0 0 0 0 0 0 0 0 0 
0 0 0 0 0 0 0 0 0 
0 0 0 0 0 0 0 0 0 
0 0 0 0 0 0 0 0 0 
0 0 0 0 0 0 0 0 0 
0 0 0 0 0 0 0 0 0 
0 0 0 0 0 0 0 0 0 
0 0 0 0 0 0 0 0 0 
0 0 0 0 0 0 0 0 0 
0 0 0 0 0 0 0 0 0 
0 0 0 0 0 0 0 0 0 
0 0 0 0 0 0 0 0 0 
0 0 0 0 0 0 0 0 0 
0 0 0 0 0 0 0 0 0 
0 0 0 0 0 0 0 0 0 
0 0 0 0 0 0 0 0 0 
0 0 0 0 0 0 0 0 0 
0 0 0 0 0 0 0 0 0 
0 0 0 0 0 0 0 0 0 
0 0 0 0 0 0 0 0 0 
0 0 0 0 0 0 0 0 0 
0 0 0 0 0 0 0 0 0 
0 
NORMALS Normals float
-0.0288511 0.114075 0.993053 0.0189009 0.00698827 0.999797 0.068154 -0.104126 0.992226 
-0.0579299 0.0491296 0.997111 0.0512533 -0.0326644 0.998151 0.219907 0.541114 0.811687 
0.0487862 0.532174 0.845228 -0.10151 0.564471 0.819188 -0.211993 0.591572 0.777883 
0.347079 0.524705 0.777317 0.135381 0.437851 0.888796 0.043393 0.386068 0.921449 
-0.0277092 0.349079 0.936684 -0.0834366 0.28051 0.956218 -0.0781827 0.313402 0.946397 
-0.00866067 0.376762 0.92627 0.186546 0.278799 0.942057 0.19719 0.217649 0.9559 
0.083528 0.16829 0.982192 -0.0288298 0.194591 0.980461 -0.149216 0.274704 0.94988 
-0.216712 0.370374 0.903249 -0.337591 0.48438 0.807099 0.562781 0.249289 0.788119 
0.275187 0.265512 0.924 0.0504905 0.261685 0.963832 -0.0147078 0.207935 0.978032 
-0.105854 0.0889514 0.990395 -0.086003 0.0215811 0.996061 0.0276887 -0.0322913 0.999095 
0.0130131 0.234802 0.971956 0.0806033 0.0563121 0.995154 0.126108 0.0582778 0.990303 
0.0424271 -0.0479859 0.997947 0.00605217 -0.0263002 0.999636 -0.0232987 0.0822682 0.996338 
-0.117189 0.191691 0.974434 -0.254086 0.241896 0.936444 -0.450298 0.303907 0.839567 
0.610454 0.0487523 0.79055 0.321807 0.0853855 0.942947 0.104622 0.108204 0.988608 
-0.0372735 0.118773 0.992222 -0.137838 0.172241 0.975363 -0.223005 0.0983234 0.969846 
-0.221016 0.0524573 0.973858 0.13791 -0.0398595 0.989642 0.0813624 0.0973803 0.991916 
0.0159613 -0.0559689 0.998305 0.0940405 0.115514 0.988844 0.00229768 -0.136952 0.990575 
0.100287 -0.0515902 0.99362 0.0536153 0.0427498 0.997646 -0.0548461 0.0447746 0.99749 
-0.169268 0.111487 0.979244 -0.357345 0.193445 0.91372 0.669531 -0.0473817 0.741271 
0.29112 -0.00810186 0.956652 -0.0116509 0.100242 0.994895 0.133646 -0.0178606 0.990868 
-0.0405189 0.115468 0.992484 -0.205583 0.136623 0.969056 -0.179475 0.199253 0.963373 
0.0497789 0.21933 0.97438 -0.0169816 -0.0736113 0.997142 0.127345 0.190876 0.973319 
-0.0780417 0.0374565 0.996246 -0.0924495 -0.0480667 0.994557 0.184978 -0.00949978 0.982697 
0.0775337 0.00691515 0.996966 -0.0426465 0.0123608 0.999014 -0.116664 0.0228005 0.99291 
-0.379639 0.069363 0.922531 -0.641384 0.00962934 0.76716 0.721786 -0.243407 0.647903 
0.389352 -0.132252 0.911545 0.105547 -0.000450172 0.994414 0.206741 -0.0185093 0.978221 
-0.0768829 0.0532572 0.995617 -0.0639939 0.0516808 0.996611 -0.14492 0.0877568 0.985544 
-0.173772 0.160927 0.971548 -0.111275 0.133468 0.984786 0.0360048 -0.0138967 0.999255 
0.074405 0.133244 0.988286 -0.100775 -0.129387 0.98646 -0.00241869 0.0946729 0.995506 
0.15297 0.0355639 0.987591 0.074547 -0.00786838 0.997186 -0.0411101 0.059557 0.997378 
-0.0994702 -0.0366871 0.994364 -0.400582 -0.176471 0.899106 0.562307 -0.304725 0.768735 
0.0933357 -0.11268 0.989238 0.251173 -0.174712 0.952044 0.0925738 -0.120464 0.988392 
-0.0609088 0.0509144 0.996844 -0.130614 0.0941165 0.986956 -0.126291 0.166197 0.977972 
-0.0127886 0.130994 0.991301 0.00626989 0.0855713 0.996312 -0.0403967 0.0647489 0.997084 
0.0277062 0.149829 0.988324 0.0812363 0.0794492 0.993523 0.099998 -0.0309678 0.994506 
-0.0980441 -0.0606225 0.993334 -0.306556 -0.113629 0.945046 -0.593081 -0.269921 0.75855 
0.415163 -0.350214 0.839637 0.0952675 -0.0767232 0.992491 0.222754 -0.21816 0.950151 
-0.00726243 -0.0219763 0.999732 0.0912344 -0.186427 0.978224 -0.0484042 -0.01639 0.998693 
-0.0809351 0.0861034 0.992993 -0.0449315 0.064851 0.996883 0.00585888 0.0453538 0.998954 
-0.027297 0.113588 0.993153 0.00123688 0.0534258 0.998571 -0.0263319 -0.0420513 0.998768 
-0.0715054 -0.0973463 0.992679 -0.165828 -0.267549 0.949167 -0.357674 -0.391706 0.847724 
0.370696 -0.529991 0.762689 0.142864 -0.376139 0.915483 -0.00789446 -0.277907 0.960575 
-0.044609 -0.20438 0.977875 -0.0418481 -0.182254 0.98236 0.0547686 -0.171888 0.983593 
-0.0329521 -0.0994104 0.994501 -0.136515 -0.178707 0.974386 -0.0737252 -0.319337 0.944769 
-0.1233 -0.391145 0.912032 -0.361001 -0.562925 0.743501 0.165635 -0.830021 0.53257 
0.0507195 -0.740853 0.66975 0.0335052 -0.679259 0.733134 0.0549324 -0.612557 0.788515 
-0.0317337 -0.669051 0.742539 -0.186571 -0.658832 0.728788 -0.268538 -0.811012 0.519757 
0.211732 0.63049 0.746761 0.0394713 0.710836 0.702249 -0.106956 0.696804 0.709242 
-0.216571 0.642162 0.73534 0.348299 0.544772 0.762831 0.437971 0.802232 0.405715 
0.171215 0.604332 0.778118 0.204801 0.800615 0.563092 0.059094 0.586187 0.808018 
0.0658715 0.732249 0.677844 0.00665161 0.611832 0.79096 0.00638591 0.742742 0.669547 
-0.0487655 0.540984 0.839618 -0.0283776 0.718487 0.694961 -0.0767368 0.499064 0.863161 
-0.0391258 0.691682 0.721141 0.0150944 0.447858 0.893977 0.0636533 0.633572 0.771061 
0.233225 0.544547 0.805652 0.226578 0.459681 0.858694 0.233351 0.573498 0.785269 
-0.238881 0.627149 0.741364 -0.264296 0.586935 0.765281 -0.281917 0.712187 0.642894 
-0.343596 0.513066 0.786578 -0.385062 0.804303 0.452574 0.377559 0.526468 0.761762 
0.568414 0.297668 0.767006 0.616127 0.568633 0.545017 -0.356772 0.493443 0.793239 
-0.458916 0.35245 0.815583 -0.506008 0.565423 0.651346 0.597831 0.250281 0.76155 
-0.502878 0.313847 0.805365 -0.761794 0.430377 0.484196 0.679568 0.0384044 0.732606 
-0.563361 0.209964 0.799087 -0.634697 0.0495376 0.771171 -0.616448 0.212302 0.758235 
0.711838 -0.0651807 0.699313 -0.64722 0.00905176 0.762249 -0.656793 -0.0565453 0.751948 
0.737161 -0.245837 0.629411 0.732056 -0.264212 0.627922 -0.663099 -0.231605 0.7118 
-0.708944 -0.246451 0.660802 0.677744 -0.422463 0.60182 0.686945 -0.506716 0.520908 
-0.626839 -0.287711 0.724082 -0.636484 -0.378125 0.672242 0.678542 -0.524946 0.513821 
0.723923 -0.578634 0.375656 0.602648 -0.670896 0.432104 -0.606016 -0.487112 0.628861 
-0.518034 -0.664874 0.538129 -0.721437 -0.630356 0.286669 0.58904 -0.69072 0.419449 
0.617311 -0.742993 0.258629 0.436456 -0.786919 0.436194 0.272096 -0.864364 0.422893 
-0.291022 -0.846398 0.446 -0.518016 -0.685052 0.512214 -0.41804 -0.740775 0.525828 
0.264621 -0.868518 0.419109 0.276011 -0.899 0.340026 0.159424 -0.906323 0.391361 
0.0908832 -0.897118 0.432343 0.0828244 -0.857299 0.508113 0.0185958 -0.864851 0.501684 
-0.076812 -0.885718 0.457824 -0.167269 -0.900346 0.401744 -0.284825 -0.851304 0.440631 
-0.27257 -0.844771 0.460507 0.438203 0.805514 0.398905 0.215631 0.903079 0.371419 
0.08587 0.900385 0.426536 -0.0162655 0.908132 0.418368 0.019208 0.898893 0.437748 
0.0524718 0.853339 0.518709 0.0668042 0.83339 0.548633 0.1299 0.904172 0.406939 
0.0946944 0.966669 0.237874 0.00530662 0.980673 0.195582 -0.0680174 0.967984 0.241619 
-0.181196 0.92674 0.329122 -0.287964 0.875118 0.388902 -0.387649 0.839311 0.381164 
0.441305 0.80417 0.398197 0.629752 0.676812 0.381233 -0.429283 0.816555 0.385944 
-0.57051 0.716794 0.400905 0.735304 0.566362 0.37224 -0.668191 0.643835 0.372823 
-0.767846 0.538603 0.34687 0.879561 0.293392 0.374557 0.967147 0.243234 -0.0739213 
-0.842098 0.421047 0.337032 0.957568 -0.0120703 0.287954 0.984177 -0.0772135 -0.159482 
-0.948503 0.162642 0.271825 0.94933 -0.214064 0.230107 -0.976231 -0.0979085 0.193358 
0.901769 -0.390345 0.18559 0.842735 -0.523338 0.126154 -0.940795 -0.33035 0.0759885 
-0.889476 -0.45646 0.0218244 0.836824 -0.533523 0.122795 -0.871947 -0.48883 0.0274741 
0.758581 -0.649116 0.0566011 0.729615 -0.682761 0.0387341 -0.537514 -0.816785 -0.209619 
-0.706393 -0.700129 -0.104059 -0.682783 -0.718125 -0.134549 -0.655776 -0.727386 -0.202157 
0.615748 -0.787486 -0.0268332 0.581541 -0.812366 -0.0432701 0.554291 -0.806657 -0.205099 
0.423593 -0.901283 -0.0908702 -0.249867 -0.939468 -0.23445 -0.533699 -0.818486 -0.21271 
-0.439729 -0.886125 -0.14636 -0.387782 -0.634422 -0.66868 0.300093 -0.941075 -0.155957 
0.259441 -0.951212 -0.166993 0.245607 -0.936686 -0.249592 0.146389 -0.972734 -0.179888 
0.136808 -0.890689 -0.433539 0.120232 -0.976018 -0.181477 0.0970633 -0.824784 -0.557055 
0.096588 -0.98141 -0.165848 0.0360389 -0.754526 -0.655279 0.00984586 -0.976414 -0.215684 
-0.0504357 -0.724513 -0.687413 -0.112832 -0.96856 -0.221721 -0.117181 -0.737484 -0.665121 
-0.188962 -0.940638 -0.281944 -0.171985 -0.81522 -0.553026 -0.230586 -0.940708 -0.248794 
-0.21566 -0.942251 -0.256228 -0.208812 -0.910876 -0.355952 0.424665 0.905126 -0.0201773 
0.251253 0.967884 0.00848956 0.128783 0.990757 0.0426002 0.0251117 0.995398 0.0924804 
0.08159 0.984892 0.152743 0.0643044 0.985616 0.156291 -0.0272117 0.99671 0.0763478 
-0.03759 0.997927 -0.0522287 0.0307956 0.988888 -0.145438 0.0500612 0.995286 -0.0830653 
0.00523956 0.998144 -0.060675 -0.131709 0.991288 0.00104285 -0.263594 0.964631 0.00209439 
-0.432406 0.901656 0.00639357 0.496881 0.867154 -0.0339688 0.673019 0.736163 -0.0714844 
0.488814 0.780526 -0.389667 -0.547283 0.83636 -0.031375 -0.607925 0.792239 -0.0527681 
0.822944 0.560116 -0.0950439 0.963272 0.242615 -0.115087 -0.776401 0.624841 -0.0823091 
-0.825386 0.549145 -0.131061 0.964896 0.235793 -0.115662 0.963369 0.2353 -0.128665 
-0.913861 0.342314 -0.218356 -0.785101 0.336951 -0.519692 0.983126 -0.0778889 -0.165519 
0.983078 -0.0787713 -0.165385 0.983005 -0.0778661 -0.166244 -0.974612 0.0551267 -0.217008 
0.952999 -0.264763 -0.147289 -0.92202 -0.205188 -0.328295 -0.672057 -0.352762 -0.651075 
0.884756 -0.413009 -0.215943 0.806119 -0.54222 -0.237001 0.698843 -0.404945 -0.589608 
-0.462173 -0.382794 -0.799915 -0.72364 -0.453864 -0.519954 -0.727284 -0.449613 -0.518561 
-0.68923 -0.444281 -0.572343 0.784062 -0.568085 -0.250053 -0.274534 -0.434388 -0.857868 
-0.704032 -0.471113 -0.531405 -0.533147 -0.64561 -0.546756 -0.472527 -0.448298 -0.75878 
0.650616 -0.688865 -0.319632 0.644933 -0.693032 -0.322131 0.641439 -0.68926 -0.336863 
0.497989 -0.777624 -0.383806 0.367628 -0.595185 -0.714566 -0.0386905 -0.455333 -0.88948 
-0.0817831 -0.412442 -0.907306 -0.128185 -0.430425 -0.893478 -0.352438 -0.587454 -0.728481 
-0.225407 -0.50351 -0.834068 -0.454949 -0.66483 -0.592471 -0.437573 -0.629394 -0.642179 
-0.341807 -0.549296 -0.762524 0.441842 -0.792923 -0.419582 0.3085 -0.81035 -0.498158 
0.246169 -0.73514 -0.631641 0.137438 -0.789684 -0.597921 0.0704974 -0.68681 -0.72341 
0.100393 -0.748577 -0.655403 0.00257376 -0.598507 -0.801114 0.075443 -0.732941 -0.676096 
0.000863855 -0.517598 -0.855624 0.0274983 -0.707958 -0.705719 -0.0163493 -0.492254 -0.870298 
-0.0556761 -0.674475 -0.736195 -0.0703181 -0.47852 -0.875256 -0.109532 -0.618593 -0.77804 
-0.0954996 -0.502061 -0.859543 -0.119075 -0.635515 -0.762851 -0.067844 -0.542645 -0.837218 
-0.116574 -0.666663 -0.736186 -0.0788176 -0.573268 -0.815568 -0.313634 -0.614388 -0.723989 
-0.160406 -0.695222 -0.700669 -0.171021 -0.621735 -0.764328 0.277229 0.87858 -0.388897 
0.178767 0.906067 -0.383516 0.100044 0.942489 -0.318912 0.105006 0.955719 -0.274908 
0.00554276 0.961304 -0.275434 -0.152495 0.92583 -0.345808 -0.128545 0.884889 -0.447715 
0.0626521 0.878136 -0.474291 0.0956453 0.90207 -0.420859 0.0141198 0.908486 -0.417676 
-0.113573 0.903002 -0.414353 -0.279668 0.854549 -0.437644 -0.44664 0.778684 -0.44064 
0.652973 0.551758 -0.518835 0.468848 0.756204 -0.45644 0.489689 0.733993 -0.470595 
0.282096 0.739873 -0.610745 0.15116 0.628085 -0.763321 0.098269 0.568819 -0.816571 
-0.111352 0.452815 -0.884624 -0.114024 0.609894 -0.784237 0.0533746 0.652731 -0.755707 
0.0750337 0.536222 -0.840736 0.00309889 0.533238 -0.84596 -0.12782 0.514939 -0.847644 
-0.251039 0.611964 -0.749987 -0.487934 0.742677 -0.45864 -0.447238 0.72173 -0.528284 
-0.622133 0.519121 -0.586058 0.675124 0.525894 -0.517343 0.649783 0.525695 -0.549023 
0.433169 0.39949 -0.807944 -0.366393 0.241025 -0.898701 -0.679217 0.434248 -0.591687 
-0.577661 0.401034 -0.710971 0.813594 0.175618 -0.554278 0.586942 0.164146 -0.792815 
-0.272011 0.0673882 -0.959932 -0.636867 0.249268 -0.729566 -0.513394 0.1699 -0.841166 
-0.664329 0.0782473 -0.743333 0.776638 -0.058265 -0.627247 0.62406 -0.0816587 -0.777098 
-0.100386 -0.227373 -0.96862 0.0691153 -0.212384 -0.974739 -0.000165885 -0.229573 -0.973291 
-0.0615802 -0.130338 -0.989555 -0.141272 -0.119544 -0.982726 -0.41208 -0.110018 -0.904481 
-0.680172 -0.0189718 -0.732807 -0.61661 -0.13973 -0.77477 -0.619748 -0.0342591 -0.784053 
0.766332 -0.222383 -0.602728 0.693555 -0.395564 -0.602089 0.624709 -0.212692 -0.751333 
0.341219 -0.186904 -0.921215 -0.103564 -0.158646 -0.981889 0.190796 -0.243108 -0.95105 
-0.0299848 -0.431287 -0.901716 -0.200212 -0.0756652 -0.976827 0.062996 -0.204755 -0.976784 
0.0269315 -0.232026 -0.972337 -0.0947247 -0.26027 -0.960878 -0.23581 -0.258262 -0.936854 
-0.485333 -0.321169 -0.813205 -0.454916 -0.362807 -0.813279 -0.416484 -0.276927 -0.86594 
0.68884 -0.403103 -0.602501 0.434678 -0.320785 -0.841518 -0.147355 -0.155103 -0.976847 
-0.180885 -0.163969 -0.969739 0.104701 -0.257618 -0.960557 -0.044026 -0.261121 -0.964302 
0.0546774 -0.337321 -0.939801 -0.189505 -0.114586 -0.975171 -0.083423 -0.212226 -0.973653 
-0.0488313 -0.290418 -0.955653 -0.114508 -0.333617 -0.935728 -0.41901 -0.38257 -0.82345 
-0.261582 -0.416296 -0.870788 -0.214134 -0.365625 -0.905795 0.549121 -0.530266 -0.645975 
0.531019 -0.544486 -0.649272 0.516676 -0.512904 -0.685547 0.363066 -0.588111 -0.722709 
0.256587 -0.442854 -0.859095 0.0747659 -0.358739 -0.930439 -0.103602 -0.304229 -0.946948 
-0.186357 -0.254545 -0.948935 -0.055604 -0.240092 -0.969156 -0.00527205 -0.415531 -0.909564 
0.0143276 -0.258055 -0.966024 0.0235848 -0.421582 -0.906484 -0.0417956 -0.445374 -0.894369 
-0.0905909 -0.337984 -0.936782 -0.0884985 -0.387229 -0.917726 -0.11278 -0.294852 -0.948864 
-0.117093 -0.381353 -0.916984 -0.108748 -0.338458 -0.934677 -0.191884 -0.399346 -0.896495 
-0.148541 -0.392252 -0.907785 -0.137286 -0.375386 -0.916645 0.351663 -0.590275 -0.726573 
0.165866 -0.604318 -0.779287 0.137816 -0.543247 -0.828184 0.0253641 -0.574519 -0.818098 
-0.0174098 -0.468439 -0.883324 -0.0651565 -0.482143 -0.873666 -0.101913 -0.399548 -0.91103 
-0.0465059 -0.384473 -0.921964 -0.0632985 -0.344577 -0.936621 -0.0246183 -0.375738 -0.926399 
-0.0267742 -0.346064 -0.937829 -0.0508574 -0.365507 -0.929418 -0.0457006 -0.350488 -0.935452 
-0.0456535 -0.43942 -0.897121 -0.0474546 -0.437622 -0.897906 -0.0466271 -0.437037 -0.898234 
0.0393857 0.498806 -0.865818 -0.012417 0.454273 -0.890776 0.241682 0.419639 -0.874925 
0.111017 0.443554 -0.889345 0.0475121 0.500456 -0.864457 0.085845 0.482994 -0.871406 
0.0380781 0.490692 -0.870501 -0.0679129 0.446765 -0.89207 -0.0126213 0.443532 -0.89617 
-0.107232 0.433032 -0.894978 -0.0621221 0.409175 -0.910339 0.0174529 0.407375 -0.913094 
0.0461615 0.357584 -0.932739 0.00182321 0.407365 -0.913263 -0.105359 0.374623 -0.921172 
-0.231572 0.266009 -0.935742 0.319048 0.340203 -0.884573 0.314183 0.138672 -0.93918 
0.228374 0.316776 -0.920597 0.0477394 0.265933 -0.962809 0.0307806 0.225435 -0.973772 
0.0150302 0.149622 -0.988629 -0.0417566 0.0893163 -0.995128 -0.0474554 0.135866 -0.98959 
-0.0213608 0.277372 -0.960525 -0.0132379 0.230593 -0.97296 0.00870725 0.115183 -0.993306 
0.00170453 0.11706 -0.993123 -0.0598709 0.179493 -0.981936 -0.258363 0.198884 -0.945354 
-0.230006 0.195196 -0.953413 0.312729 0.113522 -0.943034 0.299566 0.109941 -0.94772 
0.163608 0.0518363 -0.985163 0.077749 0.0385421 -0.996228 -0.0242834 -0.00706053 -0.99968 
-0.105457 -0.104352 -0.988934 -0.0345109 -0.116764 -0.99256 0.0820457 0.0100669 -0.996578 
0.00693447 0.0996149 -0.995002 -0.123997 0.0131866 -0.992195 -0.0846617 -0.200361 -0.976057 
-0.0569256 -0.165642 -0.984542 0.0674197 -0.200232 -0.977426 0.0622727 -0.128123 -0.989801 
-0.00305752 -0.223169 -0.974775 -0.0571392 -0.0902146 -0.994282 -0.219501 -0.0177418 -0.975451 
-0.101725 -0.108935 -0.98883 -0.200031 -0.0591339 -0.978003 0.360926 -0.043209 -0.931593 
0.33185 -0.113997 -0.936419 0.328288 -0.0371603 -0.943846 0.13491 -0.0433083 -0.989911 
-0.0122071 -0.0789827 -0.996801 -0.113905 -0.145461 -0.982785 -0.0971713 -0.181883 -0.978507 
-0.092837 -0.210365 -0.973205 0.131185 -0.193699 -0.972251 0.0749437 -0.144043 -0.98673 
0.166706 0.00669791 -0.985984 -0.0289371 -0.414968 -0.909376 -0.00967853 -0.178416 -0.983908 
-0.1936 -0.153478 -0.969001 -0.312103 -0.0357859 -0.949374 0.28835 -0.168574 -0.942569 
0.12345 -0.114591 -0.985712 -0.0261005 -0.119879 -0.992445 -0.128519 -0.149531 -0.980369 
-0.147993 -0.154393 -0.976863 -0.163518 -0.139046 -0.976692 0.159332 -0.215795 -0.963351 
-0.0212736 -0.398371 -0.916978 0.0202177 -0.103869 -0.994385 -0.0467966 -0.396048 -0.917037 
-0.19793 -0.117595 -0.973137 0.00373662 -0.299696 -0.954028 -0.159912 -0.160471 -0.974001 
0.237529 -0.25602 -0.937035 0.20087 -0.278317 -0.93925 0.195866 -0.246351 -0.949183 
-0.142649 -0.15792 -0.977094 -0.00236542 -0.26368 -0.964607 -0.0324848 -0.220041 -0.97495 
0.00152794 -0.394172 -0.919036 -0.0244558 -0.394512 -0.918565 -0.015535 -0.413899 -0.91019 
-0.0212886 -0.404227 -0.914411 
