# vtk DataFile Version 4.2
vtk output
ASCII
DATASET POLYDATA
POINTS 542 float
-35.3446 19.8011 -21.6752 -27.4637 -35.3652 -14.6535 -19.5828 -35.3652 -15.4717 
-11.7019 -35.3652 -15.0126 11.9407 -35.3652 -14.0636 19.8216 -35.3652 -14.531 
27.7025 -35.3652 -13.8424 -35.3446 -27.4843 -16.932 -27.4637 -27.4843 -18.4811 
-19.5828 -27.4843 -19.2403 -11.7019 -27.4843 -18.9895 -3.82105 -27.4843 -17.6934 
4.05984 -27.4843 -17.2519 11.9407 -27.4843 -17.388 19.8216 -27.4843 -17.9518 
27.7025 -27.4843 -17.4764 35.5834 -27.4843 -15.8493 -43.2255 -19.6034 -16.9714 
-35.3446 -19.6034 -19.1262 -27.4637 -19.6034 -20.204 -19.5828 -19.6034 -20.2478 
-11.7019 -19.6034 -19.6521 -3.82105 -19.6034 -18.9888 4.05984 -19.6034 -18.7473 
11.9407 -19.6034 -18.0918 19.8216 -19.6034 -17.8975 27.7025 -19.6034 -18.2051 
35.5834 -19.6034 -18.0638 43.4643 -19.6034 -15.9118 -51.1064 -11.7225 -15.2681 
-43.2255 -11.7225 -18.8986 -35.3446 -11.7225 -21.0459 -27.4637 -11.7225 -21.1576 
-19.5828 -11.7225 -20.1434 -11.7019 -11.7225 -19.7677 -3.82105 -11.7225 -19.1256 
4.05984 -11.7225 -19.4076 11.9407 -11.7225 -16.535 19.8216 -11.7225 -16.0718 
27.7025 -11.7225 -16.839 35.5834 -11.7225 -17.4157 43.4643 -11.7225 -16.7516 
51.3452 -11.7225 -15.1952 -51.1064 -3.84161 -17.0542 -43.2255 -3.84161 -20.0841 
-35.3446 -3.84161 -20.9729 -27.4637 -3.84161 -20.5257 -19.5828 -3.84161 -19.3789 
-11.7019 -3.84161 -20.1434 -3.82105 -3.84161 -18.5071 4.05984 -3.84161 -18.6108 
11.9407 -3.84161 -16.3362 27.7025 -3.84161 -15.4452 35.5834 -3.84161 -16.5634 
43.4643 -3.84161 -16.3598 51.3452 -3.84161 -16.115 -51.1064 4.03928 -17.928 
-43.2255 4.03928 -20.6597 -35.3446 4.03928 -21.2879 -27.4637 4.03928 -20.4021 
-19.5828 4.03928 -18.661 -11.7019 4.03928 -19.2125 -3.82105 4.03928 -20.0419 
4.05984 4.03928 -19.0575 27.7025 4.03928 -14.4088 35.5834 4.03928 -15.5896 
43.4643 4.03928 -15.5017 51.3452 4.03928 -15.0306 -51.1064 11.9202 -17.6852 
-43.2255 11.9202 -20.6221 -35.3446 18.5129 -21.6207 -35.3446 11.9202 -21.3573 
-27.4637 11.9202 -20.5399 -19.5828 11.9202 -19.8422 -11.7019 11.9202 -20.0444 
-3.82105 11.9202 -21.0969 4.05984 11.9202 -19.7355 11.9407 11.9202 -16.7971 
19.8216 11.9202 -14.7432 27.7025 11.9202 -14.6 35.5834 11.9202 -15.3896 
43.4643 11.9202 -14.2351 -51.1064 19.8011 -15.1541 -36.2494 19.8011 -21.6207 
-43.2255 19.8011 -21.1118 -33.6023 19.8011 -21.6207 -35.3446 20.0105 -21.6207 
-27.4637 19.8011 -21.4373 -19.5828 19.8011 -20.8052 -11.7019 19.8011 -21.1039 
-3.82105 19.8011 -21.1365 4.05984 19.8011 -20.6339 11.9407 19.8011 -19.759 
19.8216 19.8011 -17.7719 27.7025 19.8011 -15.799 35.5834 19.8011 -14.8449 
-43.2255 27.682 -17.4672 -35.3446 27.682 -19.6666 -27.4637 27.682 -21.0525 
-19.5828 27.682 -20.8121 -11.7019 27.682 -20.9575 -3.82105 27.682 -20.98 
4.05984 27.682 -20.9523 11.9407 27.682 -21.2742 19.8216 27.682 -19.0558 
27.7025 27.682 -17.131 35.5834 27.682 -14.513 -35.3446 35.5628 -15.7082 
-27.4637 35.5628 -17.8018 -19.5828 35.5628 -18.4003 -11.7019 35.5628 -19.1346 
-3.82105 35.5628 -19.2289 4.05984 35.5628 -19.4867 11.9407 35.5628 -19.7838 
19.8216 35.5628 -17.9103 27.7025 35.5628 -14.5289 4.05984 43.4437 -13.968 
-27.4637 -36.3296 -13.7398 -19.5828 -37.2256 -13.7398 -11.7019 -36.6311 -13.7398 
11.9407 -35.7722 -13.7398 19.8216 -36.3296 -13.7398 27.7025 -35.478 -13.7398 
-29.9812 -35.3652 -13.7398 -35.3446 -32.4052 -13.7398 -35.3446 -35.3652 -11.1745 
-5.2879 -35.3652 -13.7398 -3.82105 -34.9109 -13.7398 -3.82105 -35.3652 -13.3781 
8.71101 -35.3652 -13.7398 4.05984 -34.5041 -13.7398 4.05984 -35.3652 -13.1289 
28.0159 -35.3652 -13.7398 35.5834 -31.1385 -13.7398 35.5834 -35.3652 -9.41789 
-51.1064 -27.4843 -6.79311 -42.6745 -27.4843 -13.7398 -43.2255 -26.9601 -13.7398 
-43.2255 -27.4843 -13.4628 42.2495 -27.4843 -13.7398 43.4643 -26.3733 -13.7398 
43.4643 -27.4843 -13.1484 -48.9083 -19.6034 -13.7398 -51.1064 -16.071 -13.7398 
-51.1064 -19.6034 -12.0731 49.4539 -19.6034 -13.7398 51.3452 -16.8043 -13.7398 
51.3452 -19.6034 -12.698 -53.4534 -11.7225 -13.7398 19.8216 -4.34025 -13.7398 
53.8658 -11.7225 -13.7398 59.2261 -11.7225 -8.91128 -54.8609 -3.84161 -13.7398 
18.8127 -3.84161 -13.7398 11.9407 3.41175 -13.7398 20.4954 -3.84161 -13.7398 
19.8216 -3.84161 -13.5764 55.8881 -3.84161 -13.7398 59.2261 -3.84161 -11.4073 
-55.5074 4.03928 -13.7398 11.7776 4.03928 -13.7398 11.9407 4.32977 -13.7398 
11.9407 4.03928 -13.5717 24.7314 4.03928 -13.7398 19.8216 8.26264 -13.7398 
19.8216 4.03928 -12.6272 54.2957 4.03928 -13.7398 51.3452 7.10104 -13.7398 
59.2261 4.03928 -10.6814 -54.9574 11.9202 -13.7398 45.3477 11.9202 -13.7398 
43.4643 16.758 -13.7398 51.3452 11.9202 -12.0909 59.2261 11.9202 -6.16064 
-52.4942 19.8011 -13.7398 -51.1064 22.3785 -13.7398 41.6477 19.8011 -13.7398 
43.4643 19.8011 -13.3603 51.3452 19.8011 -9.94078 -47.8297 27.682 -13.7398 
-43.2255 32.1926 -13.7398 37.2082 27.682 -13.7398 35.5834 29.504 -13.7398 
43.4643 27.682 -9.0213 -38.4557 35.5628 -13.7398 -35.3446 37.2752 -13.7398 
-27.4637 39.3173 -13.7398 -19.5828 40.7474 -13.7398 -11.7019 41.973 -13.7398 
-3.82105 43.093 -13.7398 11.9407 43.3685 -13.7398 19.8216 41.1083 -13.7398 
28.9877 35.5628 -13.7398 27.7025 36.4222 -13.7398 35.5834 35.5628 -8.25496 
-11.7019 43.4437 -9.00601 1.09464 43.4437 -13.7398 -3.82105 43.4437 -12.7159 
9.91885 43.4437 -13.7398 4.05984 43.602 -13.7398 11.9407 43.4437 -13.5581 
19.8216 43.4437 -7.75079 -35.3446 -38.9299 -5.85894 -27.4637 -41.066 -5.85894 
-19.5828 -41.4866 -5.85894 -11.7019 -40.9951 -5.85894 -3.82105 -40.3454 -5.85894 
4.05984 -40.7385 -5.85894 11.9407 -41.9275 -5.85894 11.9407 -43.2461 0.612891 
19.8216 -41.8587 -5.85894 27.7025 -40.2868 -5.85894 35.5834 -37.2885 -5.85894 
-51.1064 -28.3719 -5.85894 -43.2067 -35.3652 -5.85894 -43.2255 -35.3538 -5.85894 
-43.2255 -35.3652 -5.81039 39.4836 -35.3652 -5.85894 43.4643 -32.9846 -5.85894 
-51.7467 -27.4843 -5.85894 50.4644 -27.4843 -5.85894 51.3452 -26.6225 -5.85894 
-55.8843 -19.6034 -5.85894 56.6774 -19.6034 -5.85894 59.2261 -15.1705 -5.85894 
-58.1697 -11.7225 -5.85894 60.8748 -11.7225 -5.85894 -58.9477 -3.84161 -5.85894 
62.6869 -3.84161 -5.85894 -58.4023 4.03928 -5.85894 62.0064 4.03928 -5.85894 
-57.3443 11.9202 -5.85894 59.4293 11.9202 -5.85894 59.2261 12.3499 -5.85894 
59.2261 11.9202 -3.70142 -54.7657 19.8011 -5.85894 -51.1064 27.4033 -5.85894 
54.2675 19.8011 -5.85894 51.3452 23.3027 -5.85894 -50.9403 27.682 -5.85894 
-43.2255 35.1828 -5.85894 47.1938 27.682 -5.85894 43.4643 30.6977 -5.85894 
-42.6182 35.5628 -5.85894 -35.3446 39.3725 -5.85894 -27.4637 42.0683 -5.85894 
-19.5828 43.1075 -5.85894 27.7025 41.2451 -5.85894 37.622 35.5628 -5.85894 
35.5834 37.0654 -5.85894 -17.0584 43.4437 -5.85894 -11.7019 44.1509 -5.85894 
-11.7019 43.4437 -3.05158 -3.82105 45.0571 -5.85894 4.05984 45.7147 -5.85894 
11.9407 45.5384 -5.85894 21.4469 43.4437 -5.85894 19.8216 43.9747 -5.85894 
19.8216 43.4437 -1.14958 11.9407 -43.5033 2.02195 -43.2255 -36.8379 2.02195 
-35.3446 -39.9741 2.02195 -27.4637 -42.0109 2.02195 -19.5828 -41.637 2.02195 
-11.7019 -41.1785 2.02195 -3.82105 -41.4093 2.02195 9.81435 -43.2461 2.02195 
4.05984 -42.5486 2.02195 16.2957 -43.2461 2.02195 11.9407 -43.2461 3.58201 
19.8216 -43.0323 2.02195 27.7025 -40.7565 2.02195 35.5834 -36.8185 2.02195 
-45.6871 -35.3652 2.02195 -51.1064 -30.5896 2.02195 -43.2255 -35.3652 7.4841 
37.9884 -35.3652 2.02195 35.5834 -35.3652 6.67276 43.4643 -31.6554 2.02195 
-53.2864 -27.4843 2.02195 -51.1064 -27.4843 8.63451 49.0876 -27.4843 2.02195 
51.3452 -25.3161 2.02195 -56.9136 -19.6034 2.02195 55.7223 -19.6034 2.02195 
59.2261 -13.7393 2.02195 -58.3027 -11.7225 2.02195 60.2627 -11.7225 2.02195 
59.2261 -11.7225 4.02626 -58.4711 -3.84161 2.02195 62.1539 -3.84161 2.02195 
59.2261 -3.84161 7.31193 -57.1292 4.03928 2.02195 61.7569 4.03928 2.02195 
59.2261 10.6401 2.02195 59.2261 4.03928 6.50378 -55.6561 11.9202 2.02195 
-51.1064 11.9202 9.24684 58.6923 11.9202 2.02195 -52.7297 19.8011 2.02195 
-51.1064 22.7902 2.02195 -51.1064 19.8011 4.5971 53.7406 19.8011 2.02195 
51.3452 22.4557 2.02195 51.3452 19.8011 4.96809 -47.9588 27.682 2.02195 
-43.2255 32.3988 2.02195 -43.2255 27.682 7.80443 45.9813 27.682 2.02195 
43.4643 29.7775 2.02195 43.4643 27.682 4.94443 -38.6316 35.5628 2.02195 
-35.3446 37.5168 2.02195 -35.3446 35.5628 5.0464 -27.4637 39.5365 2.02195 
-27.4637 35.5628 7.94978 -19.5828 40.7962 2.02195 -11.7019 42.0577 2.02195 
19.8216 43.0856 2.02195 27.7025 40.0452 2.02195 35.6061 35.5628 2.02195 
35.5834 35.5776 2.02195 35.5834 35.5628 2.05216 -4.58708 43.4437 2.02195 
-3.82105 43.5844 2.02195 -3.82105 43.4437 2.42579 4.05984 44.6095 2.02195 
4.05984 43.4437 6.73205 18.0594 43.4437 2.02195 11.9407 44.6584 2.02195 
11.9407 43.4437 8.63612 -35.3446 -38.4174 9.90284 -27.4637 -39.5411 9.90284 
-19.5828 -38.9638 9.90284 -11.7019 -38.3479 9.90284 -3.82105 -38.8457 9.90284 
4.05984 -40.5775 9.90284 11.9407 -42.0377 9.90284 19.8216 -41.458 9.90284 
27.7025 -38.9221 9.90284 -41.9956 -35.3652 9.90284 -43.2255 -34.5167 9.90284 
-35.3446 -35.3652 13.9545 -27.4637 -35.3652 14.9258 -19.5828 -35.3652 14.5035 
-11.7019 -35.3652 13.3513 -3.82105 -35.3652 13.4987 4.05984 -35.3652 15.3605 
11.9407 -35.3652 17.2385 19.8216 -35.3652 17.4657 33.8896 -35.3652 9.90284 
27.7025 -35.3652 15.0799 35.5834 -34.1507 9.90284 43.4643 -28.1323 9.90284 
-50.5578 -27.4843 9.90284 -51.1064 -26.5146 9.90284 -43.2255 -27.4843 15.6335 
-3.82105 -27.4843 17.6076 44.2297 -27.4843 9.90284 43.4643 -27.4843 10.8187 
51.3452 -19.8688 9.90284 -53.9166 -19.6034 9.90284 -51.1064 -19.6034 13.2085 
43.4643 -19.6034 17.5896 51.5784 -19.6034 9.90284 51.3452 -19.6034 10.159 
-55.399 -11.7225 9.90284 -51.1064 -11.7225 14.4788 55.5101 -11.7225 9.90284 
51.3452 -11.7225 14.4033 -54.1069 -3.84161 9.90284 -51.1064 -3.84161 13.107 
57.2266 -3.84161 9.90284 51.3452 -3.84161 15.1781 -52.7257 4.03928 9.90284 
-51.1064 10.241 9.90284 -51.1064 4.03928 11.626 -43.2255 4.03928 16.6618 
56.4213 4.03928 9.90284 51.3452 4.03928 14.201 -50.4969 11.9202 9.90284 
[...]
POINT_DATA 542
SCALARS ImageScalars float
LOOKUP_TABLE default
0 0 0 0 0 0 0 0 0 
0 0 0 0 0 0 0 0 0 
0 0 0 0 0 0 0 0 0 
0 0 0 0 0 0 0 0 0 
0 0 0 0 0 0 0 0 0 
0 0 0 0 0 0 0 0 0 
0 0 0 0 0 0 0 0 0 
0 0 0 0 0 0 0 0 0 
0 0 0 0 0 0 0 0 0 
0 0 0 0 0 0 0 0 0 
0 0 0 0 0 0 0 0 0 
0 0 0 0 0 0 0 0 0 
0 0 0 0 0 0 0 0 0 
0 0 0 0 0 0 0 0 0 
0 0 0 0 0 0 0 0 0 
0 0 0 0 0 0 0 0 0 
0 0 0 0 0 0 0 0 0 
0 0 0 0 0 0 0 0 0 
0 0 0 0 0 0 0 0 0 
0 0 0 0 0 0 0 0 0 
0 0 0 0 0 0 0 0 0 
0 0 0 0 0 0 0 0 0 
0 0 0 0 0 0 0 0 0 
0 0 0 0 0 0 0 0 0 
0 0 0 0 0 0 0 0 0 
0 0 0 0 0 0 0 0 0 
0 0 0 0 0 0 0 0 0 
0 0 0 0 0 0 0 0 0 
0 0 0 0 0 0 0 0 0 
0 0 0 0 0 0 0 0 0 
0 0 0 0 0 0 0 0 0 
0 0 0 0 0 0 0 0 0 
0 0 0 0 0 0 0 0 0 
0 0 0 0 0 0 0 0 0 
0 0 0 0 0 0 0 0 0 
0 0 0 0 0 0 0 0 0 
0 0 0 0 0 0 0 0 0 
0 0 0 0 0 0 0 0 0 
0 0 0 0 0 0 0 0 0 
0 0 0 0 0 0 0 0 0 
0 0 0 0 0 0 0 0 0 
0 0 0 0 0 0 0 0 0 
0 0 0 0 0 0 0 0 0 
0 0 0 0 0 0 0 0 0 
0 0 0 0 0 0 0 0 0 
0 0 0 0 0 0 0 0 0 
0 0 0 0 0 0 0 0 0 
0 0 0 0 0 0 0 0 0 
0 0 0 0 0 0 0 0 0 
0 0 0 0 0 0 0 0 0 
0 0 0 0 0 0 0 0 0 
0 0 0 0 0 0 0 0 0 
0 0 0 0 0 0 0 0 0 
0 0 0 0 0 0 0 0 0 
0 0 0 0 0 0 0 0 0 
0 0 0 0 0 0 0 0 0 
0 0 0 0 0 0 0 0 0 
0 0 0 0 0 0 0 0 0 
0 0 0 0 0 0 0 0 0 
0 0 0 0 0 0 0 0 0 
0 0 
NORMALS Normals float
0.0149374 -0.108008 0.994038 0.200577 0.635684 0.745436 0.0201802 0.64029 0.767868 
-0.113782 0.665025 0.738102 0.0691075 0.565463 0.821874 -0.0119101 0.559991 0.828413 
-0.180687 0.657081 0.731845 0.284256 0.403618 0.86965 0.131115 0.308231 0.942233 
0.0290945 0.260151 0.96513 -0.0945327 0.242111 0.965632 -0.105796 0.30751 0.945645 
-0.0177574 0.309824 0.950628 0.0418442 0.230895 0.972078 0.00244344 0.179507 0.983754 
-0.114482 0.236239 0.964928 -0.227551 0.420806 0.878147 0.343286 0.31433 0.885072 
0.185554 0.232112 0.954827 0.0664211 0.159252 0.985001 -0.0348798 0.0575366 0.997734 
-0.0797513 0.0473268 0.995691 -0.0572075 0.0849543 0.994741 -0.0564802 0.130382 0.989854 
-0.05354 -0.0455177 0.997528 0.0069201 -0.1167 0.993143 0.00894836 -0.036847 0.999281 
-0.126352 0.0743385 0.989196 -0.310515 0.163577 0.936388 0.526713 0.247268 0.813285 
0.319642 0.172225 0.931755 0.135636 0.106854 0.98498 -0.0576514 0.0192306 0.998152 
-0.0867377 -0.0545951 0.994734 -0.0645773 0.0294869 0.997477 -0.0227501 -0.0237057 0.99946 
-0.146432 0.000904489 0.98922 -0.22346 -0.110383 0.968443 0.0219785 -0.257276 0.966088 
0.0859181 -0.174539 0.980895 -0.0046599 -0.102907 0.99468 -0.123348 0.0257296 0.99203 
-0.356046 0.168214 0.919204 0.547924 0.154389 0.822158 0.228125 0.109828 0.967418 
0.02559 0.0156444 0.99955 -0.100288 -0.0471584 0.99384 -0.0279768 -0.0946643 0.995116 
-0.0388956 -0.0282515 0.998844 -0.105465 0.0415143 0.993556 -0.0745243 -0.0378122 0.996502 
-0.424233 -0.0797043 0.902039 0.175972 -0.153757 0.972313 0.0568828 -0.115796 0.991643 
-0.0262123 -0.0804501 0.996414 -0.280705 -0.00709769 0.959768 0.539211 0.0386704 0.841282 
0.198235 0.0330066 0.979599 -0.0176831 0.0243064 0.999548 -0.162687 0.000876781 0.986677 
-0.0807167 0.0227432 0.996478 0.0842599 -0.00739792 0.996416 -0.00669095 0.173927 0.984736 
-0.163826 0.0872626 0.982622 0.173891 -0.0515219 0.983416 0.070358 -0.0752602 0.994679 
-0.0290323 -0.13543 0.990362 -0.255753 -0.250862 0.933627 0.594074 -0.15146 0.790023 
0.200529 0.0214132 0.979454 0.0119699 -0.0857353 0.996246 -0.00126502 0.0234524 0.999724 
-0.0976702 0.0691074 0.992817 -0.0336701 0.139812 0.989605 0.0825856 0.117317 0.989655 
-0.0247257 0.0552207 0.998168 -0.232857 0.090517 0.968289 -0.356302 0.245668 0.901497 
-0.11461 0.312241 0.943064 0.039909 0.0861729 0.995481 -0.0227058 -0.0458275 0.998691 
-0.185792 -0.118139 0.975461 0.708394 -0.345644 0.615393 0.0507357 -0.113773 0.99221 
0.319231 -0.158561 0.934318 -0.00155431 -0.0756615 0.997132 0.0192206 -0.113466 0.993356 
-0.0547839 0.0343701 0.997907 -0.0214648 0.056076 0.998196 0.0212858 0.0528122 0.998378 
-0.0289977 -0.0074305 0.999552 -0.0822878 0.077439 0.993595 -0.1802 0.246431 0.95226 
-0.234768 0.25874 0.936983 -0.179955 0.170166 0.968845 -0.143619 -0.0588557 0.987881 
0.424872 -0.514134 0.745084 0.202099 -0.320826 0.925325 0.0741458 -0.180389 0.980797 
-0.00473925 -0.13414 0.990951 0.0102873 -0.105099 0.994409 -0.000289127 -0.113233 0.993568 
0.0179566 -0.0697006 0.997406 -0.108021 0.00505888 0.994136 -0.270382 0.0122821 0.962675 
-0.280822 -0.0257701 0.959414 -0.403006 -0.212497 0.890186 0.347966 -0.698768 0.625014 
0.148987 -0.601109 0.785156 0.0736512 -0.518375 0.851976 0.0495154 -0.42513 0.903777 
0.022018 -0.362973 0.931539 0.0327938 -0.328337 0.943991 -0.0946072 -0.359671 0.928271 
-0.26154 -0.36458 0.893688 -0.442751 -0.537815 0.717445 0.0125969 -0.86513 0.501389 
0.196994 0.68056 0.705713 0.0147236 0.725946 0.687594 -0.111899 0.720399 0.684473 
0.0701812 0.582753 0.809613 -0.0183715 0.607917 0.793788 -0.181158 0.662646 0.726692 
0.238863 0.644973 0.725916 0.309784 0.557663 0.770095 0.324825 0.704875 0.630587 
-0.0957603 0.657342 0.747484 -0.0929611 0.633895 0.767812 -0.0893397 0.663558 0.742771 
0.053895 0.592095 0.804064 0.0286083 0.593785 0.804115 0.0371028 0.642673 0.765242 
-0.186943 0.659779 0.727835 -0.306564 0.550526 0.776492 -0.389436 0.810527 0.437477 
0.737076 0.532106 0.416633 0.410227 0.438387 0.799707 0.416631 0.431526 0.800128 
0.42288 0.444288 0.789798 -0.401147 0.517945 0.755523 -0.419948 0.477755 0.771618 
-0.447056 0.554718 0.701733 0.55561 0.351412 0.75353 0.585548 0.315219 0.74684 
0.657915 0.364113 0.659219 -0.437381 0.321286 0.839925 -0.43299 0.295985 0.851418 
-0.521748 0.405774 0.750417 0.632451 0.251942 0.732482 0.0405071 -0.233053 0.97162 
-0.470884 0.181847 0.86325 -0.848475 0.298861 0.436775 0.745891 0.0895545 0.66002 
0.000374183 -0.235315 0.971919 -0.652044 0.12509 0.747791 0.0542974 -0.22326 0.973246 
0.0441631 -0.229618 0.972278 -0.501254 0.0273805 0.864867 -0.720714 0.0607616 0.690565 
0.815461 0.00132258 0.57881 -0.660936 0.164337 0.732228 -0.652842 0.179096 0.736017 
-0.654798 0.162953 0.738029 0.140083 -0.00551227 0.990124 -0.0326184 0.220893 0.974752 
0.0915713 0.0750196 0.992969 -0.40159 -0.240013 0.88381 -0.294702 -0.231401 0.927148 
-0.720815 -0.221019 0.656944 0.848193 -0.161388 0.504503 -0.224453 -0.136482 0.96488 
-0.198233 -0.203755 0.958743 -0.411067 -0.22884 0.882415 -0.866959 -0.396373 0.30211 
0.764328 -0.363935 0.532309 0.743854 -0.414807 0.524039 -0.192148 -0.213632 0.957831 
-0.219611 -0.280336 0.934443 -0.622434 -0.490138 0.610197 0.676796 -0.520268 0.520835 
0.518995 -0.658194 0.545367 -0.431253 -0.256633 0.864963 -0.433953 -0.309579 0.846077 
-0.615364 -0.577271 0.536736 0.411018 -0.748467 0.520444 0.341842 -0.79314 0.504056 
0.204897 -0.8144 0.542927 0.137275 -0.82532 0.547724 0.120556 -0.848995 0.514464 
0.0824476 -0.870274 0.485619 -0.119575 -0.857018 0.50122 -0.302969 -0.747238 0.591477 
-0.460846 -0.569114 0.680977 -0.455097 -0.584027 0.672161 -0.554253 -0.768854 0.318854 
0.128332 -0.977183 0.169248 0.039323 -0.875289 0.481999 0.0858501 -0.907853 0.410405 
-0.0861057 -0.863572 0.496819 0.012973 -0.872892 0.487742 -0.119471 -0.864217 0.488728 
-0.266479 -0.947964 0.174218 0.319459 0.889956 0.325459 0.153553 0.942619 0.296463 
-0.00570093 0.975034 0.221984 -0.0708253 0.969395 0.235069 -0.0169798 0.94413 0.329137 
0.0936552 0.911522 0.400445 0.0651859 0.922762 0.379818 0.0359096 0.99692 0.0697211 
-0.0935992 0.948693 0.302027 -0.275692 0.922536 0.27004 -0.410857 0.889856 0.198375 
0.740309 0.559367 0.372897 0.487793 0.799438 0.350652 0.488251 0.799073 0.350847 
0.488228 0.800234 0.348222 -0.480583 0.860125 0.170954 -0.564338 0.810505 0.156857 
0.758854 0.535418 0.370768 -0.676083 0.718514 0.163246 -0.694482 0.700007 0.166388 
0.869984 0.355098 0.342102 -0.811347 0.563638 0.155008 -0.881609 0.440341 0.169899 
0.967639 0.173565 0.183168 -0.920856 0.329303 0.208767 0.984603 0.00875822 0.174588 
-0.962753 0.0762097 0.259422 0.992208 -0.0969954 0.0782048 -0.9376 -0.21481 0.273428 
0.974401 -0.221613 0.03783 -0.876372 -0.394178 0.276761 -0.8712 -0.404753 0.277822 
-0.907041 -0.405152 0.114578 0.931557 -0.363585 -0.00263461 0.841639 -0.53998 -0.00806247 
-0.75263 -0.607955 0.252863 -0.709445 -0.664826 0.233867 0.835595 -0.54928 -0.00846923 
0.551092 -0.834443 -0.00157823 -0.67908 -0.683222 0.268436 -0.650925 -0.720079 0.24038 
0.533008 -0.846108 -0.00191991 0.380016 -0.924845 0.015807 0.222637 -0.974855 -0.00949411 
0.129083 -0.991459 -0.0186354 -0.397967 -0.90895 0.124224 -0.584036 -0.795419 0.161896 
-0.556949 -0.815015 0.15987 0.126421 -0.991794 -0.0190516 0.122479 -0.992404 -0.0115889 
0.140888 -0.981252 -0.131512 0.0981735 -0.994957 0.020541 0.0304933 -0.998112 0.053325 
-0.106608 -0.991538 0.074079 -0.27769 -0.957338 0.0799524 -0.253027 -0.964356 0.0774209 
-0.264385 -0.962237 -0.0648062 0.0309025 0.999486 0.00857908 0.461018 0.8868 -0.0323707 
0.289589 0.956476 -0.0359404 0.104003 0.991382 -0.079661 -0.0518071 0.988978 -0.1387 
-0.0142425 0.9897 -0.14245 0.0865309 0.993503 -0.0739188 0.0583001 0.998271 0.0074249 
0.132153 0.991229 0.000284221 -0.0787653 0.996892 -0.00143185 0.0338551 0.997311 -0.0649919 
-0.167534 0.985798 -0.011557 -0.356493 0.931033 -0.078044 -0.492076 0.85613 -0.157804 
0.534788 0.844019 -0.0404315 0.780497 0.622803 -0.0542376 0.506132 0.803398 -0.313658 
-0.520349 0.834825 -0.179732 -0.520008 0.806825 -0.280402 -0.580884 0.782452 -0.224371 
0.852176 0.521202 -0.0463157 0.750347 0.504296 -0.427392 -0.653081 0.718768 -0.238446 
-0.697528 0.673096 -0.245755 0.952268 0.284143 -0.111571 -0.783485 0.579345 -0.224747 
-0.878759 0.40436 -0.253528 0.988507 0.0916655 -0.120214 -0.904745 0.33935 -0.257444 
-0.877346 0.32822 -0.350049 0.967969 -0.0693494 -0.241302 -0.965777 0.0874424 -0.244189 
-0.819013 0.0771359 -0.568566 0.929713 -0.171818 -0.32575 -0.947566 -0.206663 -0.243739 
-0.886207 -0.357898 -0.294187 -0.817093 -0.223118 -0.53158 0.889462 -0.267681 -0.37041 
0.712567 -0.279081 -0.64371 -0.872876 -0.388725 -0.294926 0.840155 -0.385465 -0.381517 
0.792776 -0.456212 -0.404198 0.777818 -0.397202 -0.487063 -0.72795 -0.613501 -0.306114 
-0.67986 -0.661374 -0.316819 -0.646551 -0.619087 -0.44576 0.690733 -0.584062 -0.426333 
0.581079 -0.69842 -0.417801 0.540985 -0.557856 -0.62939 -0.636318 -0.701823 -0.320224 
-0.603193 -0.73613 -0.307036 -0.604639 -0.670248 -0.430325 0.462078 -0.788671 -0.405564 
0.364046 -0.84644 -0.388599 0.371147 -0.770673 -0.51799 0.188307 -0.887003 -0.421623 
0.187296 -0.766733 -0.614037 0.146144 -0.903354 -0.403228 0.170136 -0.917466 -0.359597 
-0.268434 -0.949333 -0.163432 -0.415039 -0.882472 -0.221327 -0.53051 -0.801214 -0.276794 
-0.53033 -0.801355 -0.276733 -0.53067 -0.800835 -0.277583 0.154248 -0.950933 -0.268205 
0.151864 -0.953703 -0.259593 0.157299 -0.950149 -0.269209 0.0651809 -0.979896 -0.188559 
0.112352 -0.948188 -0.297181 -0.229702 -0.960256 -0.158576 -0.0943145 -0.984481 -0.147991 
-0.0845589 -0.948096 -0.306534 0.25507 0.869822 -0.422314 0.0396513 0.875334 -0.48189 
-0.0668522 0.869 -0.490275 -0.00784313 0.842037 -0.539363 0.123774 0.827715 -0.547328 
0.182642 0.860828 -0.474992 0.0467426 0.914805 -0.401183 -0.183501 0.905945 -0.381564 
-0.377772 0.846399 -0.375364 0.475806 0.761362 -0.440382 0.513292 0.727643 -0.455047 
0.242807 0.724474 -0.645122 0.0282857 0.701383 -0.712223 -0.0769442 0.716821 -0.692999 
-0.0451323 0.709046 -0.703716 0.105794 0.654581 -0.748553 0.202038 0.589549 -0.782057 
0.109157 0.564107 -0.818455 -0.08842 0.606998 -0.789769 -0.500429 0.779326 -0.377124 
-0.318777 0.710563 -0.627281 -0.529477 0.756725 -0.383433 -0.592849 0.677432 -0.435449 
0.706836 0.49441 -0.505907 0.732087 0.456124 -0.505965 0.460329 0.422697 -0.780656 
0.0263151 0.333789 -0.94228 -0.599611 0.667488 -0.441504 -0.590877 0.6608 -0.462827 
-0.679637 0.505864 -0.531221 0.814345 0.223455 -0.535639 0.707788 0.213263 -0.673465 
-0.527009 0.366628 -0.766711 -0.682858 0.500622 -0.532055 -0.678813 0.498084 -0.53956 
0.813981 0.0197283 -0.580556 0.63344 -0.00370184 -0.773783 -0.741593 0.246357 -0.623978 
-0.660751 0.199292 -0.723664 0.750651 -0.137476 -0.646238 0.651014 -0.134407 -0.747071 
-0.710729 0.0508212 -0.701628 -0.599204 -0.0152531 -0.800451 0.741494 -0.17505 -0.647722 
0.700922 -0.255778 -0.665797 0.676536 -0.176121 -0.715038 0.426407 -0.166268 -0.889119 
-0.665725 -0.205281 -0.717405 -0.568776 -0.201968 -0.79731 0.685898 -0.275523 -0.673521 
0.468233 -0.209235 -0.858475 -0.423035 -0.33178 -0.843186 -0.605661 -0.378169 -0.700117 
-0.573729 -0.421126 -0.702487 -0.554304 -0.369471 -0.745814 0.600299 -0.373702 -0.707098 
0.526785 -0.469016 -0.708888 0.520376 -0.349702 -0.779049 0.283309 -0.324723 -0.902381 
-0.4322 -0.333309 -0.837919 -0.549073 -0.496466 -0.67234 -0.549561 -0.509962 -0.661757 
-0.53753 -0.460914 -0.70613 0.450893 -0.529742 -0.718379 0.34813 -0.59223 -0.726684 
0.346095 -0.511358 -0.786595 0.193405 -0.698336 -0.689145 0.211906 -0.482346 -0.849964 
0.167553 -0.46709 -0.868189 -0.549964 -0.561932 -0.617877 -0.555475 -0.59298 -0.582942 
-0.547122 -0.527891 -0.649607 0.186047 -0.728579 -0.659211 0.186157 -0.729582 -0.658069 
0.186484 -0.726834 -0.661012 0.254157 -0.771017 -0.583898 0.270161 -0.697814 -0.663376 
0.261073 -0.832811 -0.488127 0.283986 -0.622729 -0.729082 0.145088 -0.910666 -0.386829 
-0.0831132 -0.93621 -0.341472 -0.324706 -0.882287 -0.340787 -0.530776 -0.722366 -0.443244 
-0.500196 -0.762601 -0.410175 -0.514981 -0.697639 -0.498091 0.243386 0.4348 -0.867013 
0.0372718 0.523268 -0.851353 -0.0934936 0.514671 -0.852275 -0.122516 0.446698 -0.886256 
0.194432 0.370543 -0.908237 0.116339 0.51334 -0.850263 -0.0802651 0.580747 -0.810118 
-0.254746 0.566603 -0.783623 -0.412968 0.5285 -0.741718 0.333177 0.359635 -0.871583 
0.399563 0.221803 -0.889468 0.247503 0.335036 -0.909117 0.044939 0.377032 -0.92511 
-0.098951 0.388677 -0.916045 -0.00182207 0.346148 -0.938178 -0.133376 0.401923 -0.905908 
0.0458357 0.325927 -0.944283 0.0214089 0.327956 -0.94445 0.187816 0.270852 -0.944121 
0.153114 0.24645 -0.956984 -0.00371117 0.297653 -0.954667 -0.193386 0.399024 -0.896316 
-0.413611 0.527916 -0.741775 -0.412326 0.527238 -0.742972 0.415222 0.180247 -0.891685 
0.388703 0.169976 -0.905549 0.213318 0.114093 -0.970298 0.0848475 0.106573 -0.990678 
-0.0610612 0.191711 -0.97955 -0.141104 0.259163 -0.955471 -0.0265154 0.282791 -0.958815 
0.129471 0.25183 -0.959072 0.139477 0.0820098 -0.986823 0.0794391 0.0639326 -0.994787 
-0.0861084 0.155026 -0.98415 -0.51746 0.360699 -0.775971 -0.297759 0.259664 -0.918648 
-0.520471 0.349075 -0.779267 0.418582 -0.011661 -0.908104 0.334644 -0.0255761 -0.941997 
0.202547 -0.0311597 -0.978777 0.138096 -0.00992313 -0.990369 0.0484335 0.1013 -0.993676 
-0.0485012 0.152894 -0.987052 0.00583365 0.0958957 -0.995374 -0.00869244 0.216662 -0.976208 
-0.0261159 0.0755701 -0.996798 0.0685079 -0.0456775 -0.996604 0.00719064 -0.00158512 -0.999973 
-0.192975 0.0689537 -0.978778 -0.532326 0.146591 -0.833751 -0.42974 0.133232 -0.893069 
0.37281 -0.129731 -0.918794 0.369431 -0.13498 -0.919403 0.356469 -0.125495 -0.925841 
0.237598 -0.0825119 -0.967853 0.218561 -0.0558879 -0.974222 0.105298 0.0117849 -0.994371 
-0.147006 0.070975 -0.986586 0.0286841 -0.00365004 -0.999582 0.122174 0.046072 -0.991439 
-0.132682 0.115727 -0.984379 0.00268868 0.0108566 -0.999937 0.0325494 -0.0369152 -0.998788 
-0.166017 -0.0882988 -0.982162 -0.503657 -0.0576338 -0.861979 -0.427064 -0.0797388 -0.900699 
0.363673 -0.149638 -0.919429 0.262819 -0.113565 -0.958138 0.213792 -0.123064 -0.969097 
0.179336 -0.149163 -0.972414 -0.0534934 0.00468853 -0.998557 -0.0233023 0.182964 -0.982843 
0.0961745 -0.113332 -0.988891 -0.0616068 -0.0312925 -0.99761 -0.0759954 0.0588691 -0.995369 
-0.0907529 -0.0840057 -0.992324 -0.23867 -0.204942 -0.949229 -0.415741 -0.236927 -0.87808 
-0.394133 -0.263325 -0.880522 -0.380151 -0.244463 -0.892033 0.299501 -0.195199 -0.933915 
0.279505 -0.218195 -0.935023 0.279562 -0.195088 -0.940099 0.184616 -0.18684 -0.964887 
0.224759 -0.224801 -0.948129 0.176292 -0.144054 -0.97374 -0.0825331 0.0354812 -0.995957 
-0.0855499 -0.10611 -0.990667 0.0413667 -0.0720192 -0.996545 -0.0581121 0.00977529 -0.998262 
-0.228784 -0.111674 -0.967051 -0.385683 -0.267084 -0.883128 -0.403967 -0.295543 -0.865716 
-0.351261 -0.235913 -0.906069 0.197213 -0.288353 -0.936995 0.181392 -0.303068 -0.935546 
0.178154 -0.281183 -0.942972 0.185519 -0.375006 -0.908269 0.208855 -0.290351 -0.93385 
0.220193 -0.317325 -0.922399 0.0115424 -0.224393 -0.97443 -0.014751 -0.0610531 -0.998026 
0.0583397 -0.0499974 -0.997044 -0.114501 -0.0714424 -0.990851 -0.411792 -0.303003 -0.859428 
-0.348887 -0.18718 -0.918282 0.225605 -0.457997 -0.85985 0.241037 -0.470922 -0.848607 
0.237643 -0.457722 -0.856748 0.252255 -0.518153 -0.817242 0.187287 -0.37725 -0.906976 
0.092352 -0.197479 -0.975947 0.0272278 -0.192656 -0.980888 -0.18872 -0.261793 -0.946493 
-0.502933 -0.345951 -0.792071 -0.501372 -0.389914 -0.772395 -0.487014 -0.321452 -0.812087 
0.214891 -0.548533 -0.808043 0.179674 -0.566457 -0.804266 0.175679 -0.518293 -0.836964 
-0.0251347 -0.616659 -0.786829 -0.0172273 -0.508028 -0.861168 -0.29871 -0.602251 -0.740315 
-0.272373 -0.614354 -0.740528 -0.26724 -0.595685 -0.757458 
