# vtk DataFile Version 4.2
vtk output
ASCII
DATASET POLYDATA
POINTS 530 float
-37.3629 -27.4864 -15.2204 -28.9353 -27.4864 -14.8266 -20.5076 -27.4864 -14.5595 
-45.7906 -19.0588 -15.8636 -37.3629 -19.0588 -15.5555 -28.9353 -19.0588 -15.2421 
-20.5076 -19.0588 -15.4794 -12.08 -19.0588 -14.8107 -3.6523 -19.0588 -13.7827 
4.77535 -19.0588 -13.8454 13.203 -19.0588 -14.4141 21.6307 -19.0588 -13.8289 
-62.6459 -10.6311 -13.5356 -54.2182 -10.6311 -16.226 -45.7906 -10.6311 -15.6363 
-37.3629 -10.6311 -16.232 -28.9353 -10.6311 -14.9927 -20.5076 -10.6311 -14.1138 
-12.08 -10.6311 -14.6435 -3.6523 -10.6311 -16.68 4.77535 -10.6311 -14.5114 
13.203 -10.6311 -14.0454 21.6307 -10.6311 -14.7986 30.0583 -10.6311 -14.3979 
38.486 -10.6311 -13.9608 -54.2182 -2.20347 -17.7359 -45.7906 -2.20347 -16.438 
-37.3629 -2.20347 -16.37 -28.9353 -2.20347 -15.1664 -20.5076 -2.20347 -13.5732 
-12.08 -2.20347 -15.852 -3.6523 -2.20347 -15.6552 4.77535 -2.20347 -15.9777 
13.203 -2.20347 -16.3833 21.6307 -2.20347 -16.0164 30.0583 -2.20347 -15.813 
38.486 -2.20347 -15.8025 46.9136 -2.20347 -14.7489 -54.2182 6.22418 -19.3197 
-45.7906 6.22418 -17.0918 -37.3629 6.22418 -16.6124 -28.9353 6.22418 -15.9815 
-20.5076 6.22418 -15.0797 -12.08 6.22418 -19.3135 -3.6523 6.22418 -16.4965 
4.77535 6.22418 -16.6602 13.203 6.22418 -15.0483 21.6307 6.22418 -15.1036 
30.0583 6.22418 -16.1093 38.486 6.22418 -16.6404 46.9136 6.22418 -15.6994 
55.3413 6.22418 -14.7347 -54.2182 14.6518 -18.9767 -45.7906 14.6518 -17.2394 
-37.3629 14.6518 -17.2475 -28.9353 14.6518 -16.8664 -20.5076 14.6518 -15.8484 
-12.08 14.6518 -15.795 -3.6523 14.6518 -16.0537 4.77535 14.6518 -16.8425 
13.203 14.6518 -14.9933 21.6307 14.6518 -14.9357 30.0583 14.6518 -15.9072 
38.486 14.6518 -16.4109 46.9136 14.6518 -15.7269 55.3413 14.6518 -13.8279 
-62.6459 23.0795 -13.5657 -54.2182 23.0795 -16.3915 -45.7906 23.0795 -16.8013 
-37.3629 23.0795 -17.9791 -28.9353 23.0795 -17.4832 -20.5076 23.0795 -17.0408 
-12.08 23.0795 -17.0801 -3.6523 23.0795 -16.81 4.77535 23.0795 -16.9869 
13.203 23.0795 -16.3982 21.6307 23.0795 -16.0894 30.0583 23.0795 -16.724 
38.486 23.0795 -15.6287 46.9136 23.0795 -15.8701 -45.7906 31.5071 -17.8673 
-37.3629 31.5071 -16.92 -28.9353 31.5071 -19.1705 -20.5076 31.5071 -17.4524 
-12.08 31.5071 -17.3129 -3.6523 31.5071 -16.7687 4.77535 31.5071 -16.5608 
13.203 31.5071 -16.3672 21.6307 31.5071 -16.3746 30.0583 31.5071 -15.148 
38.486 31.5071 -15.4552 -37.3629 39.9348 -16.0353 -28.9353 39.9348 -15.2138 
-20.5076 39.9348 -15.8104 -12.08 39.9348 -14.9922 -3.6523 39.9348 -13.7061 
4.77535 39.9348 -13.2647 13.203 39.9348 -13.475 21.6307 39.9348 -13.9539 
-28.9353 -44.3417 -5.8667 -20.5076 -44.3417 -5.65309 -12.08 -44.3417 -5.00712 
-3.6523 -44.3417 -4.74105 4.77535 -44.3417 -4.74382 -45.7906 -35.9141 -9.33834 
-37.3629 -32.301 -13.1659 -37.3629 -35.9141 -11.3816 -28.9353 -32.35 -13.1659 
-28.9353 -35.9141 -11.7661 -20.5076 -30.9344 -13.1659 -20.5076 -35.9141 -10.8511 
-12.08 -35.9141 -9.58547 -3.6523 -35.9141 -9.18803 4.77535 -35.9141 -9.25631 
13.203 -35.9141 -8.30856 21.6307 -35.9141 -6.03455 -54.2182 -27.4864 -10.9072 
-44.971 -27.4864 -13.1659 -45.7906 -26.8896 -13.1659 -45.7906 -27.4864 -12.8789 
-13.473 -27.4864 -13.1659 -12.08 -26.2289 -13.1659 -12.08 -27.4864 -12.8495 
-3.6523 -21.3226 -13.1659 -3.6523 -27.4864 -11.5669 4.77535 -23.0095 -13.1659 
4.77535 -27.4864 -12.3965 13.203 -26.4507 -13.1659 13.203 -27.4864 -12.9748 
21.6307 -21.3945 -13.1659 21.6307 -27.4864 -11.3407 30.0583 -27.4864 -9.85154 
38.486 -27.4864 -8.32895 46.9136 -27.4864 -6.74428 -62.6459 -11.7024 -13.1659 
-62.6459 -19.0588 -8.72053 -52.5134 -19.0588 -13.1659 -54.2182 -16.9858 -13.1659 
-54.2182 -19.0588 -12.4084 26.3402 -19.0588 -13.1659 30.0583 -16.552 -13.1659 
30.0583 -19.0588 -12.6317 38.486 -13.8392 -13.1659 38.486 -19.0588 -11.7738 
46.9136 -19.0588 -11.307 55.3413 -19.0588 -8.28654 -63.2174 -10.6311 -13.1659 
-62.6459 -8.41462 -13.1659 44.8391 -10.6311 -13.1659 46.9136 -9.45622 -13.1659 
46.9136 -10.6311 -12.8921 55.3413 -10.6311 -11.8567 63.7689 -10.6311 -7.20106 
-60.5989 -2.20347 -13.1659 -62.6459 -2.20347 -12.0332 54.3341 -2.20347 -13.1659 
55.3413 -1.12229 -13.1659 55.3413 -2.20347 -12.9406 63.7689 -2.20347 -10.0032 
-71.0735 6.22418 -4.89191 -62.0372 6.22418 -13.1659 -62.6459 6.22418 -12.7968 
59.8386 6.22418 -13.1659 63.7689 6.22418 -11.4022 -61.4048 14.6518 -13.1659 
-62.6459 19.9314 -13.1659 -62.6459 14.6518 -12.3767 58.4216 14.6518 -13.1659 
55.3413 17.7646 -13.1659 63.7689 14.6518 -11.4982 -63.2066 23.0795 -13.1659 
-62.6459 24.06 -13.1659 -54.2182 29.5985 -13.1659 52.7704 23.0795 -13.1659 
46.9136 29.1073 -13.1659 55.3413 23.0795 -12.1505 63.7689 23.0795 -9.17241 
-52.8497 31.5071 -13.1659 -54.2182 31.5071 -12.2958 -45.7906 38.2336 -13.1659 
30.0583 39.0538 -13.1659 44.0843 31.5071 -13.1659 38.486 35.1067 -13.1659 
46.9136 31.5071 -12.1652 55.3413 31.5071 -10.7332 -54.2182 39.9348 -5.71504 
-43.2308 39.9348 -13.1659 -45.7906 39.9348 -11.7435 -37.3629 44.3852 -13.1659 
-28.9353 47.569 -13.1659 -20.5076 44.3284 -13.1659 -12.08 42.4605 -13.1659 
-3.6523 40.598 -13.1659 4.77535 40.0498 -13.1659 13.203 40.3387 -13.1659 
28.2341 39.9348 -13.1659 21.6307 41.2621 -13.1659 30.0583 39.9348 -12.8253 
38.486 39.9348 -9.75579 46.9136 39.9348 -7.00738 -28.9353 48.3624 -12.1457 
-20.5076 48.3624 -8.12554 -28.9353 -45.1939 -4.73827 -20.5076 -45.3437 -4.73827 
-12.08 -44.6772 -4.73827 -3.6523 -44.3452 -4.73827 4.77535 -44.3478 -4.73827 
-45.7906 -40.0453 -4.73827 -36.6864 -44.3417 -4.73827 -37.3629 -44.2603 -4.73827 
-37.3629 -44.3417 -4.47622 4.79019 -44.3417 -4.73827 13.203 -40.2889 -4.73827 
13.203 -44.3417 0.43295 21.6307 -37.2441 -4.73827 -53.0059 -35.9141 -4.73827 
-54.2182 -35.0075 -4.73827 26.5984 -35.9141 -4.73827 30.0583 -34.8488 -4.73827 
30.0583 -35.9141 -3.58589 38.486 -32.0276 -4.73827 38.486 -35.9141 -0.615332 
46.9136 -29.8442 -4.73827 -60.3641 -27.4864 -4.73827 -62.6459 -24.5233 -4.73827 
50.9222 -27.4864 -4.73827 55.3413 -24.4339 -4.73827 55.3413 -27.4864 -0.964522 
-65.6215 -19.0588 -4.73827 -62.6459 -19.0588 1.95426 61.2487 -19.0588 -4.73827 
63.7689 -15.6491 -4.73827 63.7689 -19.0588 -1.43677 -68.934 -10.6311 -4.73827 
66.7238 -10.6311 -4.73827 -70.9246 -2.20347 -4.73827 -71.0735 3.51484 -4.73827 
69.9661 -2.20347 -4.73827 72.1966 -2.20347 2.50119 -71.1383 6.22418 -4.73827 
-71.0735 7.22218 -4.73827 -71.0735 6.22418 -4.6125 71.8014 6.22418 -4.73827 
72.1966 6.22418 -3.55614 -70.5548 14.6518 -4.73827 70.547 14.6518 -4.73827 
-67.2305 23.0795 -4.73827 -62.6459 31.2234 -4.73827 -62.6459 23.0795 2.54093 
68.1303 23.0795 -4.73827 63.7689 29.0795 -4.73827 -62.449 31.5071 -4.73827 
61.7244 31.5071 -4.73827 55.3413 36.3232 -4.73827 -54.7256 39.9348 -4.73827 
-54.2182 40.3387 -4.73827 -54.2182 39.9348 -3.99676 -45.7906 45.2456 -4.73827 
-37.3629 48.3543 -4.73827 -12.08 48.0314 -4.73827 -3.6523 46.319 -4.73827 
4.77535 45.1877 -4.73827 13.203 45.3863 -4.73827 21.6307 45.4358 -4.73827 
30.0583 45.1889 -4.73827 38.486 43.7697 -4.73827 49.3393 39.9348 -4.73827 
46.9136 41.2499 -4.73827 46.9136 39.9348 1.19335 -37.3157 48.3624 -4.73827 
-28.9353 49.7531 -4.73827 -28.9353 48.3624 -0.726556 -13.6676 48.3624 -4.73827 
-20.5076 49.7794 -4.73827 -20.5076 48.3624 -0.475404 -37.3629 -46.4019 3.68938 
-28.9353 -49.6572 3.68938 -20.5076 -51.4217 3.68938 -12.08 -52.395 3.68938 
-3.6523 -52.0051 3.68938 4.77535 -50.0333 3.68938 13.203 -46.369 3.68938 
-41.0954 -44.3417 3.68938 -45.7906 -41.3272 3.68938 -37.3629 -44.3417 7.66354 
-28.9353 -44.3417 11.4683 17.9072 -44.3417 3.68938 21.6307 -42.9042 3.68938 
30.0583 -40.5068 3.68938 38.486 -38.6099 3.68938 -51.6634 -35.9141 3.68938 
-54.2182 -32.8245 3.68938 -45.7906 -35.9141 9.60889 46.7702 -35.9141 3.68938 
46.9136 -35.8637 3.68938 55.3413 -30.5758 3.68938 -58.4203 -27.4864 3.68938 
-54.2182 -27.4864 7.28752 -45.7906 -27.4864 10.7185 58.869 -27.4864 3.68938 
63.7689 -22.4727 3.68938 -61.1814 -19.0588 3.68938 -62.6459 -16.7061 3.68938 
-54.2182 -19.0588 8.14498 -45.7906 -19.0588 11.4489 66.3826 -19.0588 3.68938 
63.7689 -19.0588 8.60327 -64.6533 -10.6311 3.68938 -62.6459 -10.6311 5.39388 
-54.2182 -10.6311 9.8347 -45.7906 -10.6311 12.1106 70.1779 -10.6311 3.68938 
72.1966 -3.09734 3.68938 -66.0934 -2.20347 3.68938 -62.6459 -2.20347 6.39352 
-54.2182 -2.20347 10.5036 -45.7906 -2.20347 11.801 72.4242 -2.20347 3.68938 
72.1966 -2.20347 4.03473 -66.1101 6.22418 3.68938 -62.6459 6.22418 6.38886 
-54.2182 6.22418 10.2911 -45.7906 6.22418 11.7213 73.7108 6.22418 3.68938 
72.1966 11.4042 3.68938 72.1966 6.22418 5.52602 -65.1406 14.6518 3.68938 
-62.6459 20.9555 3.68938 -62.6459 14.6518 5.5959 -54.2182 14.6518 9.35176 
-45.7906 14.6518 11.3863 70.6892 14.6518 3.68938 63.7689 14.6518 10.3938 
-61.0626 23.0795 3.68938 -54.2182 23.0795 7.25043 -45.7906 23.0795 10.3978 
67.6715 23.0795 3.68938 63.7689 27.1996 3.68938 63.7689 23.0795 6.70079 
-56.2277 31.5071 3.68938 -54.2182 33.7917 3.68938 -54.2182 31.5071 5.06068 
-45.7906 31.5071 8.48855 -37.3629 31.5071 10.394 4.77535 31.5071 11.7007 
13.203 31.5071 11.3604 21.6307 31.5071 12.0572 30.0583 31.5071 11.8165 
38.486 31.5071 10.8019 46.9136 38.9612 3.68938 46.9136 31.5071 10.0076 
59.29 31.5071 3.68938 55.3413 34.3815 3.68938 55.3413 31.5071 6.89489 
-46.8255 39.9348 3.68938 -45.7906 40.645 3.68938 -45.7906 39.9348 4.24587 
-37.3629 44.7443 3.68938 -37.3629 39.9348 8.0329 -28.9353 45.9905 3.68938 
-28.9353 39.9348 8.94992 -20.5076 46.3629 3.68938 -20.5076 39.9348 8.86897 
-12.08 44.856 3.68938 -12.08 39.9348 8.45946 -3.6523 42.748 3.68938 
-3.6523 39.9348 6.78487 4.77535 41.3569 3.68938 4.77535 39.9348 5.32192 
13.203 41.4285 3.68938 13.203 39.9348 5.28272 21.6307 42.1686 3.68938 
21.6307 39.9348 6.27134 30.0583 42.4342 3.68938 30.0583 39.9348 6.92112 
44.3312 39.9348 3.68938 38.486 41.3046 3.68938 38.486 39.9348 5.26218 
-20.5076 -48.3458 12.117 -12.08 -49.4429 12.117 -3.6523 -50.2005 12.117 
4.77535 -48.727 12.117 13.203 -45.5012 12.117 -37.3629 -36.3088 12.117 
[...]
POINT_DATA 530
SCALARS ImageScalars float
LOOKUP_TABLE default
0 0 0 0 0 0 0 0 0 
0 0 0 0 0 0 0 0 0 
0 0 0 0 0 0 0 0 0 
0 0 0 0 0 0 0 0 0 
0 0 0 0 0 0 0 0 0 
0 0 0 0 0 0 0 0 0 
0 0 0 0 0 0 0 0 0 
0 0 0 0 0 0 0 0 0 
0 0 0 0 0 0 0 0 0 
0 0 0 0 0 0 0 0 0 
0 0 0 0 0 0 0 0 0 
0 0 0 0 0 0 0 0 0 
0 0 0 0 0 0 0 0 0 
0 0 0 0 0 0 0 0 0 
0 0 0 0 0 0 0 0 0 
0 0 0 0 0 0 0 0 0 
0 0 0 0 0 0 0 0 0 
0 0 0 0 0 0 0 0 0 
0 0 0 0 0 0 0 0 0 
0 0 0 0 0 0 0 0 0 
0 0 0 0 0 0 0 0 0 
0 0 0 0 0 0 0 0 0 
0 0 0 0 0 0 0 0 0 
0 0 0 0 0 0 0 0 0 
0 0 0 0 0 0 0 0 0 
0 0 0 0 0 0 0 0 0 
0 0 0 0 0 0 0 0 0 
0 0 0 0 0 0 0 0 0 
0 0 0 0 0 0 0 0 0 
0 0 0 0 0 0 0 0 0 
0 0 0 0 0 0 0 0 0 
0 0 0 0 0 0 0 0 0 
0 0 0 0 0 0 0 0 0 
0 0 0 0 0 0 0 0 0 
0 0 0 0 0 0 0 0 0 
0 0 0 0 0 0 0 0 0 
0 0 0 0 0 0 0 0 0 
0 0 0 0 0 0 0 0 0 
0 0 0 0 0 0 0 0 0 
0 0 0 0 0 0 0 0 0 
0 0 0 0 0 0 0 0 0 
0 0 0 0 0 0 0 0 0 
0 0 0 0 0 0 0 0 0 
0 0 0 0 0 0 0 0 0 
0 0 0 0 0 0 0 0 0 
0 0 0 0 0 0 0 0 0 
0 0 0 0 0 0 0 0 0 
0 0 0 0 0 0 0 0 0 
0 0 0 0 0 0 0 0 0 
0 0 0 0 0 0 0 0 0 
0 0 0 0 0 0 0 0 0 
0 0 0 0 0 0 0 0 0 
0 0 0 0 0 0 0 0 0 
0 0 0 0 0 0 0 0 0 
0 0 0 0 0 0 0 0 0 
0 0 0 0 0 0 0 0 0 
0 0 0 0 0 0 0 0 0 
0 0 0 0 0 0 0 0 0 
0 0 0 0 0 0 0 0 
NORMALS Normals float
0.0922302 0.21913 0.971327 -0.0422669 0.180193 0.982723 -0.109228 0.241167 0.964317 
0.149786 0.128746 0.9803 -0.0404077 0.0621063 0.997251 -0.00435521 0.00909408 0.999949 
-0.0248688 -0.0259128 0.999355 -0.0985788 0.103083 0.989776 -0.0560776 0.294263 0.954078 
0.0369084 0.114111 0.992782 -0.000934329 0.0623612 0.998053 -0.100758 0.190858 0.976433 
0.474999 0.0960965 0.874724 0.175619 0.316577 0.932168 0.00700898 0.0318067 0.999469 
-0.0382641 0.0470506 0.998159 -0.124621 -0.00452788 0.992194 -0.0227778 -0.101976 0.994526 
0.158138 0.0147481 0.987307 0.0106352 0.117205 0.993051 -0.168223 0.139053 0.975892 
0.0231131 0.117777 0.992771 0.0194291 0.12902 0.991452 -0.0487026 0.182093 0.982074 
-0.0833436 0.224419 0.970922 0.250405 0.172746 0.952605 -0.0654051 0.085612 0.994179 
-0.0800594 0.0239312 0.996503 -0.125206 0.0570917 0.990487 -0.0605099 0.0495094 0.996939 
0.13142 0.257981 0.95717 0.0181919 -0.0207969 0.999618 0.0423971 0.114911 0.992471 
0.00124669 0.0679125 0.99769 -0.0331266 0.0201206 0.999249 -0.0129052 0.0989868 0.995005 
-0.0628729 0.157374 0.985536 -0.159714 0.155072 0.974907 0.220453 0.0745255 0.972546 
-0.131921 0.0471973 0.990136 -0.0647718 0.0501667 0.996638 -0.0845783 0.104949 0.990874 
0.0723373 0.121487 0.989954 0.100124 -0.205347 0.973554 -0.0857944 0.0183136 0.996145 
-0.0823599 0.0554189 0.995061 -0.0938452 -0.0889577 0.991605 0.0651289 -0.0677163 0.995577 
0.0874788 0.00548237 0.996151 -0.0240973 0.0356715 0.999073 -0.107861 0.0571548 0.992522 
-0.235762 0.0536171 0.970331 0.256469 -0.166163 0.952163 -0.0780064 -0.0169741 0.996808 
-0.0228922 0.0830749 0.99628 -0.0800321 0.0872718 0.992965 -0.0643515 0.109493 0.991902 
0.0130177 -0.01943 0.999726 0.062166 0.0229792 0.997801 -0.0555072 0.0188824 0.99828 
-0.116517 0.0831047 0.989706 0.0543573 0.0588536 0.996786 0.0869207 0.0350479 0.995599 
-0.0104965 -0.0589428 0.998206 -0.137031 0.00862023 0.990529 -0.209807 -0.152828 0.965725 
0.535036 -0.158598 0.829809 0.240367 -0.343892 0.907724 0.0840575 0.0230084 0.996195 
0.0399097 -0.0176503 0.999047 -0.0546047 0.125408 0.990601 -0.0244807 0.0943693 0.995236 
-0.0134452 0.089309 0.995913 -0.00555028 0.0427391 0.999071 -0.0244793 -0.0158591 0.999575 
-0.0531286 0.0749949 0.995768 0.0183161 0.0868853 0.99605 -0.0263057 -0.0414426 0.998795 
-0.0519778 -0.0558257 0.997087 -0.206062 -0.195127 0.958887 0.20559 -0.204629 0.957006 
0.0782516 -0.103711 0.991524 0.0297523 -0.122519 0.99202 -0.0993208 -0.0599326 0.993249 
-0.0399538 -0.10326 0.993852 -0.0447669 -0.155053 0.986891 -0.0233721 -0.187148 0.982054 
-0.010582 -0.148651 0.988833 -0.0667994 -0.124559 0.989961 -0.0681124 -0.189646 0.979487 
-0.15904 -0.281373 0.946327 0.156223 -0.357282 0.920839 -0.00568915 -0.34201 0.939679 
-0.00933305 -0.350146 0.936649 -0.114175 -0.44534 0.888052 -0.0935266 -0.547593 0.831501 
-0.0120864 -0.60768 0.79409 0.0436877 -0.551717 0.832887 -0.022323 -0.490377 0.871224 
0.0464214 0.755844 0.653104 -0.0388195 0.630793 0.774979 -0.043695 0.587099 0.808335 
-0.0128523 0.588052 0.808721 -0.163227 0.638811 0.751849 0.370829 0.596549 0.711769 
0.0825308 0.384134 0.919581 0.0927949 0.526934 0.844825 -0.0351639 0.310085 0.950058 
-0.0290939 0.433473 0.900697 -0.116405 0.323804 0.938936 -0.115531 0.452493 0.884253 
-0.089115 0.389309 0.916786 -0.0178658 0.351208 0.936127 -0.0432319 0.41982 0.906577 
-0.153979 0.575204 0.803387 -0.209036 0.653014 0.727926 0.444719 0.415774 0.79332 
0.219674 0.336603 0.915665 0.228698 0.332977 0.914781 0.239727 0.356547 0.902998 
-0.168585 0.284876 0.943623 -0.16977 0.263565 0.949585 -0.180615 0.293806 0.938646 
-0.048385 0.280405 0.958662 -0.0199035 0.253528 0.967123 0.0599926 0.171399 0.983373 
0.0803289 0.251426 0.964537 -0.0487771 0.280589 0.958588 -0.0559066 0.31253 0.948261 
-0.121666 0.239284 0.963297 -0.16981 0.384986 0.907166 -0.149213 0.418234 0.896 
-0.174231 0.497184 0.849971 -0.298219 0.53898 0.78776 0.485515 0.138124 0.863248 
0.740899 0.493333 0.455732 0.317461 0.209631 0.92481 0.31031 0.245094 0.918497 
0.378899 0.240337 0.893685 -0.109276 0.227833 0.967549 -0.0951088 0.234437 0.967468 
-0.117472 0.257744 0.959045 -0.0740084 0.247305 0.966107 -0.0719917 0.296892 0.952194 
-0.210289 0.343338 0.915367 -0.381732 0.437728 0.814048 0.500683 0.110872 0.858501 
0.470683 0.0610365 0.880189 -0.103922 0.195315 0.975219 -0.118279 0.180553 0.976427 
-0.11451 0.188999 0.975278 -0.314687 0.279458 0.907125 -0.555055 0.351024 0.754119 
0.417132 -0.00164585 0.908844 0.500045 -0.0229319 0.865696 -0.219942 0.148976 0.96407 
-0.229124 0.135335 0.963943 -0.233549 0.15042 0.96064 -0.595528 0.252487 0.762625 
0.999085 -0.0201247 -0.0377353 0.469941 0.0258752 0.882318 0.49856 0.0230637 0.866548 
-0.333329 0.0626739 0.940725 -0.482975 0.0695661 0.872866 0.468302 0.0219952 0.883295 
0.523427 -0.0842508 0.847895 0.527832 0.0241505 0.849006 -0.347704 -0.148215 0.925815 
-0.258447 -0.14695 0.954783 -0.642346 -0.130724 0.755184 0.567002 -0.178214 0.804207 
0.555006 -0.212914 0.804137 0.393998 -0.3235 0.860298 -0.287563 -0.160916 0.944147 
-0.219497 -0.320152 0.921588 -0.340644 -0.157338 0.926934 -0.666751 -0.40561 0.625239 
0.421429 -0.316262 0.849927 0.487494 -0.362908 0.794133 0.312955 -0.492994 0.811798 
-0.224679 -0.49593 0.838792 -0.20837 -0.34575 0.914898 -0.194761 -0.438814 0.877217 
-0.240822 -0.396901 0.885706 -0.42774 -0.49345 0.757328 0.610194 -0.791853 0.0251431 
0.285493 -0.501617 0.816623 0.364703 -0.621704 0.693163 0.247529 -0.611613 0.751438 
-0.011864 -0.704236 0.709866 -0.128994 -0.584248 0.801258 -0.147872 -0.589063 0.794443 
-0.099344 -0.587649 0.802994 -0.011762 -0.614855 0.788553 0.0506561 -0.575097 0.816515 
-0.191449 -0.527366 0.827788 -0.0283514 -0.573515 0.818704 -0.238464 -0.553924 0.797686 
-0.240363 -0.746054 0.620991 -0.41602 -0.829727 0.37213 -0.00018722 -0.80952 0.587092 
-0.157592 -0.949285 0.272071 0.0600958 0.787327 0.6136 -0.0180734 0.656017 0.754529 
-0.0420639 0.600136 0.798792 -0.0128736 0.588185 0.808624 -0.163291 0.639016 0.751661 
0.484233 0.765121 0.424392 0.201264 0.840725 0.502668 0.213721 0.843158 0.493364 
0.223001 0.850375 0.476584 -0.163526 0.63905 0.751582 -0.253548 0.665194 0.702303 
-0.385058 0.832247 0.398866 -0.22512 0.684915 0.692973 0.614435 0.730658 0.297672 
0.630954 0.724678 0.277018 -0.205616 0.696472 0.687495 -0.199952 0.687693 0.697924 
-0.208297 0.748085 0.630065 -0.223449 0.604777 0.764405 -0.275354 0.809087 0.51919 
-0.270853 0.644805 0.714748 0.758079 0.613478 0.221273 0.813211 0.557037 0.168518 
-0.399648 0.557864 0.727372 -0.471766 0.507457 0.721058 -0.582477 0.654572 0.48193 
0.880256 0.461891 0.108658 0.838516 0.403941 -0.365682 -0.558022 0.498648 0.663296 
-0.617044 0.448846 0.646369 -0.729411 0.556633 0.397643 0.951483 0.305884 0.0333927 
-0.68459 0.372999 0.626266 0.991578 0.128985 -0.011633 0.998948 0.0260122 -0.0377596 
-0.779606 0.239783 0.578549 -0.96446 0.225889 -0.137078 0.998719 -0.020859 -0.0461047 
0.997767 -0.044384 -0.0499019 0.998284 -0.0209842 -0.0546696 -0.880093 0.0207697 0.474348 
-0.929825 0.00581227 0.367956 0.972955 -0.224546 -0.0542072 -0.877055 -0.186066 0.442893 
0.90819 -0.416015 0.046061 0.799967 -0.597621 -0.0538683 0.598368 -0.491152 -0.633029 
-0.813424 -0.426961 0.395026 -0.75766 -0.584347 0.290672 0.796127 -0.603131 -0.0491397 
-0.707117 -0.658919 0.256536 -0.536789 -0.816494 0.212593 0.614815 -0.787035 -0.050784 
0.601485 -0.797377 -0.0490563 0.608109 -0.787702 -0.0986338 0.450219 -0.892885 -0.00774382 
0.242584 -0.966956 -0.0784188 -0.200663 -0.978099 0.0552819 -0.171822 -0.983564 0.0554887 
-0.0567304 -0.998043 0.0262836 0.0148011 -0.999832 0.0107899 -0.0123643 -0.999922 0.00202558 
-0.103858 -0.992713 0.0611117 -0.249111 -0.954341 0.164855 -0.455183 -0.872352 0.178354 
-0.419565 -0.891402 0.17137 -0.407142 -0.850343 -0.333395 0.241581 -0.967192 -0.0786058 
0.0813714 -0.995218 -0.0540405 0.107934 -0.936181 -0.334537 -0.180226 -0.982353 0.0500199 
-0.10047 -0.994534 0.0284116 -0.090745 -0.960963 -0.261372 0.455115 0.882981 -0.114955 
0.294251 0.95539 0.0254215 0.158279 0.976639 0.145341 0.0419034 0.977499 0.206736 
-0.137777 0.959807 0.244515 -0.299539 0.930067 0.212723 -0.404129 0.88784 0.220046 
0.51883 0.834072 -0.187458 0.597716 0.75279 -0.275758 0.477834 0.756625 -0.446311 
0.316611 0.557583 -0.767371 -0.364018 0.900601 0.237504 -0.318694 0.914083 0.250771 
-0.249031 0.924998 0.286989 -0.261704 0.930359 0.256792 0.69659 0.604936 -0.385765 
0.710635 0.527357 -0.465718 0.525526 0.421357 -0.739108 -0.412699 0.873707 0.25752 
-0.415472 0.872595 0.25683 -0.600925 0.783502 0.158159 0.796205 0.445465 -0.409413 
0.529971 0.369116 -0.763469 0.469899 0.091835 -0.87793 -0.65936 0.732284 0.170308 
-0.783113 0.620044 0.0477377 0.765797 0.325545 -0.554595 0.746576 0.319123 -0.583768 
0.430024 0.163256 -0.887934 0.339209 0.0845795 -0.936901 -0.850982 0.525002 -0.0142446 
-0.769294 0.472898 -0.429597 0.674097 0.220667 -0.704911 0.59383 0.148671 -0.790736 
0.415813 0.109642 -0.902817 0.217232 0.0198063 -0.975919 -0.939307 0.336416 -0.0672879 
-0.948221 0.22562 -0.223546 0.675528 0.0796417 -0.733021 0.520038 0.0590993 -0.852096 
0.350332 0.0220346 -0.936366 0.155384 -0.0224692 -0.987599 -0.948221 0.210197 -0.238106 
-0.943383 0.203619 -0.261855 0.650746 -0.0476198 -0.757801 0.50478 -0.0477157 -0.861928 
0.384791 -0.0634203 -0.920822 0.161943 -0.0244614 -0.986497 -0.951254 -0.0746757 -0.29923 
-0.89123 -0.219986 -0.39663 -0.885848 -0.0961896 -0.453896 0.609964 -0.155437 -0.777035 
0.53105 -0.396022 -0.749101 0.511408 -0.149932 -0.846157 0.393198 -0.166112 -0.904324 
0.204457 -0.0834165 -0.975315 -0.851755 -0.305731 -0.42549 -0.601787 -0.418035 -0.680514 
0.513694 -0.415528 -0.750636 0.375464 -0.246644 -0.893417 0.271734 -0.141932 -0.951849 
-0.763492 -0.516707 -0.387419 -0.676048 -0.617201 -0.402519 -0.562615 -0.42656 -0.708174 
0.512769 -0.407653 -0.75557 0.500338 -0.443064 -0.743879 0.463222 -0.366463 -0.806926 
0.341979 -0.376583 -0.86095 0.186818 -0.266474 -0.945564 -0.0746932 -0.468652 -0.880219 
0.0176526 -0.481945 -0.876023 0.0243112 -0.402688 -0.915014 -0.0721076 -0.395006 -0.915844 
-0.0839913 -0.486377 -0.869703 -0.360485 -0.765261 -0.533316 -0.19942 -0.521012 -0.829926 
-0.581609 -0.710073 -0.396896 -0.47931 -0.7646 -0.430869 -0.394386 -0.633371 -0.665808 
0.475552 -0.553607 -0.683645 0.456645 -0.567409 -0.685218 0.454234 -0.54176 -0.707225 
0.249179 -0.764478 -0.594544 0.260168 -0.460668 -0.848586 0.0940289 -0.723398 -0.683999 
0.0516435 -0.51302 -0.856822 -0.0567653 -0.793724 -0.605623 -0.0235216 -0.53584 -0.843992 
-0.178178 -0.789685 -0.58707 -0.0990652 -0.627286 -0.772462 -0.172518 -0.799525 -0.575323 
-0.146301 -0.710924 -0.687883 -0.0672379 -0.79969 -0.596637 -0.0688374 -0.755898 -0.65106 
0.0389764 -0.774497 -0.631375 0.038364 -0.728989 -0.68345 0.0550838 -0.8097 -0.584252 
0.0769909 -0.725573 -0.683825 -0.0524481 -0.848174 -0.527115 -0.0545942 -0.707245 -0.704858 
-0.30972 -0.784902 -0.536659 -0.180195 -0.828344 -0.530449 -0.18913 -0.767715 -0.612244 
0.219335 0.655803 -0.722367 0.0872258 0.760938 -0.642935 -0.0665117 0.834214 -0.547416 
-0.243274 0.827307 -0.506341 -0.359286 0.794224 -0.490023 0.289038 0.356454 -0.88848 
0.292425 0.508591 -0.809829 0.302689 0.475799 -0.82583 0.19258 0.446621 -0.873752 
0.130727 0.421127 -0.897532 0.0363487 0.421366 -0.906162 -0.171625 0.481276 -0.859603 
-0.319453 0.835288 -0.447486 -0.337513 0.734213 -0.589081 -0.231369 0.882953 -0.408487 
-0.215525 0.92489 -0.313253 -0.3145 0.870665 -0.378197 0.292484 0.345248 -0.891772 
0.283425 0.34488 -0.894834 0.263568 0.235299 -0.935503 0.142067 0.164915 -0.976022 
0.0250117 0.0785897 -0.996593 0.036954 0.0444235 -0.998329 -0.0187534 0.107648 -0.994012 
-0.0219751 0.29854 -0.954144 0.00395223 0.451852 -0.892084 -0.125659 0.562273 -0.817349 
-0.449212 0.802747 -0.392181 -0.311022 0.723578 -0.616198 -0.468702 0.778459 -0.417517 
-0.63976 0.570488 -0.515024 0.411161 0.0837169 -0.90771 0.28968 0.0869684 -0.953164 
0.132313 0.0605291 -0.989358 0.0355415 -0.0336646 -0.998801 0.0196802 -0.0709384 -0.997287 
0.0486314 -0.120021 -0.99158 0.0773316 -0.0835691 -0.993497 0.112995 0.0180636 -0.993431 
0.0683231 0.108996 -0.991691 0.0192653 0.102132 -0.994584 -0.184759 0.186142 -0.964995 
-0.358785 0.253081 -0.898456 -0.69485 0.499363 -0.517514 -0.597862 0.483931 -0.63904 
0.309929 0.0394149 -0.949942 0.240778 -0.0815702 -0.967146 0.147308 -0.0533324 -0.987652 
0.0046878 0.00072874 -0.999989 -0.0620311 -0.0578509 -0.996396 0.0141703 -0.0875811 -0.996057 
0.126511 -0.153817 -0.979967 0.178026 -0.152113 -0.972198 0.106704 -0.14452 -0.983732 
-0.0261084 -0.105626 -0.994063 -0.111718 -0.0895115 -0.9897 -0.142583 -0.00463848 -0.989772 
-0.616384 0.312578 -0.722749 -0.501579 0.182656 -0.845609 -0.59492 0.27471 -0.755383 
0.217055 0.0194901 -0.975965 0.194292 -0.0602242 -0.979093 0.192512 -0.0366713 -0.980609 
0.0326492 0.0671542 -0.997208 -0.0648397 -0.0183563 -0.997727 -0.0551424 0.00831852 -0.998444 
0.0192722 -0.0486782 -0.998629 0.118402 -0.0856085 -0.989268 0.117609 -0.205563 -0.971551 
0.0593591 -0.182455 -0.981421 -0.0600633 -0.149936 -0.98687 -0.107065 -0.0741703 -0.991482 
-0.267656 -0.0713024 -0.960873 -0.600127 0.199434 -0.774645 -0.502353 0.172625 -0.847256 
0.160097 -0.0252704 -0.986778 0.198852 -0.034158 -0.979434 0.284785 0.00399465 -0.958583 
0.026093 0.0409582 -0.99882 -0.15138 -0.00373013 -0.988469 0.000139687 0.0994513 -0.995042 
0.0483046 -0.0715497 -0.996267 -0.000760074 0.107318 -0.994224 0.00961877 -0.027697 -0.99957 
0.0440267 -0.129356 -0.99062 -0.0116606 -0.109062 -0.993967 -0.0703892 -0.0919268 -0.993275 
-0.20244 -0.092583 -0.974908 -0.540799 0.00870565 -0.841107 -0.448304 -0.000489885 -0.893881 
0.171968 -0.0219403 -0.984858 0.216385 -0.0157192 -0.976182 0.274686 -0.0393619 -0.960728 
0.017266 -0.123811 -0.992156 -0.0499539 0.0037014 -0.998745 -0.112128 0.0192627 -0.993507 
0.0829713 0.0166738 -0.996412 0.141365 0.0123543 -0.98988 -0.115375 0.04814 -0.992155 
-0.0268316 -0.0569195 -0.998018 -0.0220818 -0.0723256 -0.997137 -0.0947838 -0.0437935 -0.994534 
-0.154653 -0.147954 -0.976828 -0.491099 -0.146793 -0.858646 -0.508144 -0.306739 -0.804798 
-0.406713 -0.107803 -0.907173 0.190566 -0.0623925 -0.97969 0.188719 -0.031424 -0.981528 
0.159546 -0.10859 -0.9812 0.0657363 -0.204969 -0.976559 0.063652 -0.0654014 -0.995827 
-0.0237328 -0.0969578 -0.995005 -0.00698329 0.0456029 -0.998935 0.0738909 -0.164065 -0.983678 
-0.0683557 -0.106669 -0.991942 -0.073782 -0.077421 -0.994265 -0.000797727 -0.113477 -0.99354 
-0.152185 -0.163962 -0.974657 -0.376958 -0.246799 -0.892745 -0.249438 -0.140641 -0.958124 
0.213938 -0.154228 -0.964595 0.194188 -0.186473 -0.963078 0.200337 -0.161631 -0.966302 
0.0966403 -0.142826 -0.985018 0.0733633 -0.186511 -0.97971 0.072595 -0.166756 -0.983322 
0.00504518 -0.23086 -0.972974 -0.0705923 -0.434984 -0.897667 -0.0341084 -0.206005 -0.977956 
0.0146803 -0.44054 -0.897613 0.000705912 -0.295838 -0.955238 0.0234796 -0.398831 -0.916724 
-0.0204267 -0.26645 -0.963632 -0.0667593 -0.37196 -0.925845 -0.0282568 -0.208603 -0.977592 
-0.0781609 -0.400246 -0.913069 -0.0980842 -0.240765 -0.965615 -0.153507 -0.343106 -0.926668 
-0.148291 -0.287919 -0.946104 -0.325202 -0.279657 -0.903347 -0.31983 -0.28922 -0.902253 
-0.318128 -0.275798 -0.907045 0.140806 -0.244771 -0.959302 0.137311 -0.251568 -0.95805 
0.139176 -0.244199 -0.959686 0.0341337 -0.314389 -0.94868 0.0421 -0.286731 -0.957086 
-0.00798052 -0.378308 -0.925645 0.011164 -0.321051 -0.946996 -0.073098 -0.452586 -0.88872 
-0.0773047 -0.462291 -0.883352 -0.0680463 -0.433665 -0.898501 
