# vtk DataFile Version 4.2
vtk output
ASCII
DATASET POLYDATA
POINTS 520 float
-21.9287 -42.845 -18.2645 -13.0938 -42.845 -18.8428 -4.25896 -42.845 -18.432 
4.57591 -42.845 -16.7952 -39.5985 -34.0101 -18.806 -30.7636 -34.0101 -20.804 
-21.9287 -34.0101 -21.3054 -13.0938 -34.0101 -21.1559 -4.25896 -34.0101 -20.5184 
4.57591 -34.0101 -19.3712 13.4108 -34.0101 -19.3907 22.2457 -34.0101 -18.7517 
31.0805 -34.0101 -17.9332 -48.4333 -25.1753 -19.3148 -39.5985 -25.1753 -21.2739 
-30.7636 -25.1753 -22.613 -21.9287 -25.1753 -21.8916 -13.0938 -25.1753 -21.5282 
-4.25896 -25.1753 -21.101 4.57591 -25.1753 -20.078 13.4108 -25.1753 -20.7495 
22.2457 -25.1753 -22.0011 31.0805 -25.1753 -21.579 39.9154 -25.1753 -20.533 
48.7503 -25.1753 -17.2193 -57.2682 -16.3404 -17.3516 -48.4333 -16.3404 -21.9985 
-39.5985 -16.3404 -23.1226 -30.7636 -16.3404 -22.2856 -21.9287 -16.3404 -21.1196 
-13.0938 -16.3404 -20.6583 -4.25896 -16.3404 -21.1843 4.57591 -16.3404 -20.4669 
13.4108 -16.3404 -21.6966 22.2457 -16.3404 -22.2838 31.0805 -16.3404 -22.0288 
39.9154 -16.3404 -21.6687 48.7503 -16.3404 -20.1053 -57.2682 -7.5055 -18.3245 
-48.4333 -7.5055 -21.6506 -39.5985 -7.5055 -22.4641 -30.7636 -7.5055 -21.8599 
-21.9287 -7.5055 -20.5614 -13.0938 -7.5055 -21.6698 -4.25896 -7.5055 -22.067 
4.57591 -7.5055 -21.6377 13.4108 -7.5055 -22.8302 22.2457 -7.5055 -20.9091 
31.0805 -7.5055 -21.7106 39.9154 -7.5055 -22.1491 48.7503 -7.5055 -21.2124 
57.5852 -7.5055 -17.4929 -57.2682 1.32937 -17.9513 -48.4333 1.32937 -21.4169 
-39.5985 1.32937 -22.2789 -30.7636 1.32937 -21.8597 -21.9287 1.32937 -21.3517 
-13.0938 1.32937 -24.8473 -4.25896 1.32937 -21.5597 4.57591 1.32937 -20.6613 
13.4108 1.32937 -22.7823 22.2457 1.32937 -20.0404 31.0805 1.32937 -21.5344 
39.9154 1.32937 -22.4975 48.7503 1.32937 -20.9421 57.5852 1.32937 -17.3259 
-57.2682 10.1643 -16.4766 -48.4333 10.1643 -20.9051 -39.5985 10.1643 -22.4839 
-30.7636 10.1643 -22.4367 -21.9287 10.1643 -22.5067 -13.0938 10.1643 -23.4601 
-4.25896 10.1643 -23.1555 4.57591 10.1643 -22.719 13.4108 10.1643 -20.2231 
22.2457 10.1643 -20.5783 31.0805 10.1643 -22.4464 39.9154 10.1643 -22.6284 
48.7503 10.1643 -20.6249 -48.4333 18.9991 -19.7266 -39.5985 18.9991 -22.922 
-30.7636 18.9991 -23.4604 -21.9287 18.9991 -23.3615 -13.0938 18.9991 -22.5596 
-4.25896 18.9991 -21.7993 4.57591 18.9991 -21.3544 13.4108 18.9991 -20.4774 
22.2457 18.9991 -21.1174 31.0805 18.9991 -21.8457 39.9154 18.9991 -21.5755 
48.7503 18.9991 -18.8542 -48.4333 27.834 -17.2937 -39.5985 27.834 -21.4975 
-30.7636 27.834 -22.8725 -21.9287 27.834 -23.4625 -13.0938 27.834 -22.5478 
-4.25896 27.834 -22.0849 4.57591 27.834 -21.7148 13.4108 27.834 -21.2976 
22.2457 27.834 -21.3813 31.0805 27.834 -21.4951 39.9154 27.834 -19.0207 
-39.5985 36.6689 -17.5106 -30.7636 36.6689 -20.3058 -21.9287 36.6689 -21.7367 
-13.0938 36.6689 -21.7298 -4.25896 36.6689 -21.3195 4.57591 36.6689 -21.2869 
13.4108 36.6689 -21.3309 22.2457 36.6689 -19.9959 31.0805 36.6689 -18.1246 
-13.0938 45.5038 -17.7314 -4.25896 45.5038 -17.9785 4.57591 45.5038 -17.4433 
13.4108 45.5038 -16.5263 -21.9287 -44.9819 -16.4459 -13.0938 -46.2485 -16.4459 
-4.25896 -45.7345 -16.4459 4.57591 -43.3435 -16.4459 -39.5985 -38.2291 -16.4459 
-39.5985 -42.845 -12.1976 -29.5599 -42.845 -16.4459 -30.7636 -42.4382 -16.4459 
-30.7636 -42.845 -16.1196 5.94075 -42.845 -16.4459 13.4108 -39.2145 -16.4459 
13.4108 -42.845 -12.8854 22.2457 -37.1715 -16.4459 31.0805 -35.7424 -16.4459 
-46.1035 -34.0101 -16.4459 -48.4333 -32.0459 -16.4459 -48.4333 -34.0101 -15.2123 
37.0491 -34.0101 -16.4459 39.9154 -32.8387 -16.4459 39.9154 -34.0101 -15.0111 
48.7503 -26.4327 -16.4459 48.7503 -34.0101 -8.02178 -53.6124 -25.1753 -16.4459 
-57.2682 -19.127 -16.4459 -57.2682 -25.1753 -13.2323 50.077 -25.1753 -16.4459 
57.5852 -25.1753 -10.1461 -58.3674 -16.3404 -16.4459 55.9089 -16.3404 -16.4459 
57.5852 -12.5039 -16.4459 57.5852 -16.3404 -15.439 -59.5324 -7.5055 -16.4459 
59.2843 -7.5055 -16.4459 66.42 -7.5055 -8.72845 -59.0784 1.32937 -16.4459 
58.8056 1.32937 -16.4459 57.5852 7.31919 -16.4459 -57.3083 10.1643 -16.4459 
-57.2682 10.2677 -16.4459 56.8536 10.1643 -16.4459 57.5852 10.1643 -15.7586 
-53.2424 18.9991 -16.4459 -57.2682 18.9991 -12.0575 52.0712 18.9991 -16.4459 
48.7503 23.2558 -16.4459 57.5852 18.9991 -7.98424 -49.496 27.834 -16.4459 
-48.4333 29.1522 -16.4459 44.6717 27.834 -16.4459 39.9154 32.5593 -16.4459 
48.7503 27.834 -9.78009 -41.1255 36.6689 -16.4459 -39.5985 37.7949 -16.4459 
-30.7636 42.2185 -16.4459 -21.9287 45.289 -16.4459 22.2457 43.0308 -16.4459 
34.8292 36.6689 -16.4459 31.0805 39.0596 -16.4459 39.9154 36.6689 -8.95248 
-30.7636 45.5038 -10.8679 -21.0842 45.5038 -16.4459 -21.9287 45.5038 -16.2075 
-13.0938 46.9913 -16.4459 -4.25896 47.3175 -16.4459 4.57591 46.6362 -16.4459 
13.869 45.5038 -16.4459 13.4108 45.589 -16.4459 22.2457 45.5038 -12.913 
-39.5985 -45.5633 -7.61101 -30.7636 -49.0858 -7.61101 -21.9287 -51.0248 -7.61101 
-13.0938 -51.6088 -7.61101 -4.25896 -51.2769 -7.61101 4.57591 -49.4265 -7.61101 
13.4108 -46.1196 -7.61101 -44.1527 -42.845 -7.61101 -48.4333 -39.888 -7.61101 
20.2862 -42.845 -7.61101 22.2457 -42.0332 -7.61101 31.0805 -39.7857 -7.61101 
39.9154 -37.5219 -7.61101 48.7503 -34.26 -7.61101 -54.6706 -34.0101 -7.61101 
-57.2682 -30.7173 -7.61101 49.1863 -34.0101 -7.61101 57.5852 -27.71 -7.61101 
-60.9146 -25.1753 -7.61101 59.8866 -25.1753 -7.61101 -64.1888 -16.3404 -7.61101 
64.7108 -16.3404 -7.61101 66.42 -10.1396 -7.61101 66.42 -16.3404 -2.71209 
-65.274 -7.5055 -7.61101 67.1037 -7.5055 -7.61101 66.42 -1.64524 -7.61101 
-64.9221 1.32937 -7.61101 66.0617 1.32937 -7.61101 66.42 1.32937 -6.21085 
-63.3158 10.1643 -7.61101 63.0251 10.1643 -7.61101 -60.0342 18.9991 -7.61101 
-57.2682 24.3627 -7.61101 57.7521 18.9991 -7.61101 57.5852 19.2219 -7.61101 
-55.2689 27.834 -7.61101 -48.4333 35.3707 -7.61101 49.7223 27.834 -7.61101 
48.7503 28.7705 -7.61101 48.7503 27.834 -0.755539 -47.0056 36.6689 -7.61101 
-39.5985 41.9803 -7.61101 31.0805 43.355 -7.61101 40.4636 36.6689 -7.61101 
39.9154 37.1451 -7.61101 39.9154 36.6689 -5.04153 -33.286 45.5038 -7.61101 
-30.7636 46.8429 -7.61101 -21.9287 50.194 -7.61101 -13.0938 52.0719 -7.61101 
-4.25896 52.2752 -7.61101 4.57591 51.3107 -7.61101 13.4108 49.7284 -7.61101 
26.7766 45.5038 -7.61101 22.2457 47.4874 -7.61101 -39.5985 -45.9654 1.22387 
-30.7636 -49.1292 1.22387 -21.9287 -50.6342 1.22387 -13.0938 -50.842 1.22387 
-4.25896 -50.5011 1.22387 4.57591 -48.8559 1.22387 13.4108 -45.5319 1.22387 
-44.865 -42.845 1.22387 -48.4333 -40.3783 1.22387 -39.5985 -42.845 8.36442 
19.4208 -42.845 1.22387 13.4108 -42.845 8.29867 22.2457 -41.7522 1.22387 
31.0805 -39.8841 1.22387 39.9154 -38.1033 1.22387 48.7503 -35.9223 1.22387 
-55.0011 -34.0101 1.22387 -57.2682 -31.0876 1.22387 52.056 -34.0101 1.22387 
57.5852 -30.466 1.22387 -61.1861 -25.1753 1.22387 -57.2682 -25.1753 9.8337 
62.8786 -25.1753 1.22387 66.42 -18.8936 1.22387 -64.5617 -16.3404 1.22387 
67.577 -16.3404 1.22387 66.42 -16.3404 7.84706 -66.0081 -7.5055 1.22387 
69.6758 -7.5055 1.22387 -65.9585 1.32937 1.22387 68.0508 1.32937 1.22387 
66.42 5.35062 1.22387 -64.3412 10.1643 1.22387 64.2291 10.1643 1.22387 
-60.8436 18.9991 1.22387 -57.2682 25.1013 1.22387 48.7503 27.5835 1.22387 
57.8106 18.9991 1.22387 57.5852 19.2368 1.22387 57.5852 18.9991 3.12289 
-55.3953 27.834 1.22387 -48.4333 35.2348 1.22387 48.4579 27.834 1.22387 
39.9154 35.442 1.22387 -46.6617 36.6689 1.22387 -39.5985 41.6083 1.22387 
38.364 36.6689 1.22387 31.0805 41.9572 1.22387 -32.7395 45.5038 1.22387 
-30.7636 46.5888 1.22387 -30.7636 45.5038 4.35692 -21.9287 50.3379 1.22387 
-13.0938 52.5384 1.22387 -4.25896 52.6284 1.22387 4.57591 51.1385 1.22387 
13.4108 49.3453 1.22387 24.6913 45.5038 1.22387 22.2457 46.6506 1.22387 
22.2457 45.5038 7.25805 -30.7636 -45.1174 10.0587 -21.9287 -46.2155 10.0587 
-13.0938 -46.2346 10.0587 -4.25896 -45.8504 10.0587 4.57591 -44.6563 10.0587 
-48.4333 -35.7223 10.0587 -37.126 -42.845 10.0587 -39.5985 -41.7646 10.0587 
-30.7636 -42.845 12.5771 -21.9287 -42.845 13.6161 -13.0938 -42.845 13.6361 
-4.25896 -42.845 13.2137 11.0015 -42.845 10.0587 4.57591 -42.845 12.1188 
13.4108 -42.1569 10.0587 22.2457 -40.3194 10.0587 31.0805 -38.5349 10.0587 
39.9154 -36.7787 10.0587 48.7503 -34.4628 10.0587 -50.2127 -34.0101 10.0587 
-48.4333 -34.0101 11.7024 -39.5985 -34.0101 15.776 -30.7636 -34.0101 18.5396 
-4.25896 -34.0101 18.8427 4.57591 -34.0101 18.4546 13.4108 -34.0101 18.0465 
22.2457 -34.0101 17.9787 31.0805 -34.0101 18.2731 39.9154 -34.0101 15.8392 
49.5977 -34.0101 10.0587 48.7503 -34.0101 10.8827 57.5852 -28.8805 10.0587 
-57.1135 -25.1753 10.0587 -57.2682 -24.9232 10.0587 -48.4333 -25.1753 16.1572 
61.1829 -25.1753 10.0587 57.5852 -25.1753 14.7067 -61.0017 -16.3404 10.0587 
-57.2682 -16.3404 14.2323 65.9757 -16.3404 10.0587 66.42 -14.806 10.0587 
-62.7455 -7.5055 10.0587 -57.2682 -7.5055 16.5974 68.3935 -7.5055 10.0587 
66.42 -7.5055 13.2576 -62.9168 1.32937 10.0587 -57.2682 1.32937 16.9897 
66.7421 1.32937 10.0587 66.42 2.19834 10.0587 66.42 1.32937 10.6669 
-61.522 10.1643 10.0587 -57.2682 10.1643 15.3503 63.1939 10.1643 10.0587 
57.5852 18.0164 10.0587 -57.7076 18.9991 10.0587 -57.2682 19.7279 10.0587 
-57.2682 18.9991 10.6193 -48.4333 18.9991 17.856 56.735 18.9991 10.0587 
48.7503 26.3004 10.0587 -51.5644 27.834 10.0587 -48.4333 31.1331 10.0587 
-48.4333 27.834 13.3503 -39.5985 27.834 18.3906 46.9228 27.834 10.0587 
39.9154 33.7266 10.0587 -41.5631 36.6689 10.0587 -39.5985 38.0703 10.0587 
-39.5985 36.6689 11.762 -30.7636 43.2488 10.0587 -30.7636 36.6689 16.7806 
22.2457 44.9432 10.0587 36.5113 36.6689 10.0587 31.0805 40.6302 10.0587 
31.0805 36.6689 18.7869 -26.846 45.5038 10.0587 -21.9287 47.9426 10.0587 
-21.9287 45.5038 13.3514 -13.0938 50.3789 10.0587 -13.0938 45.5038 16.786 
-4.25896 50.8386 10.0587 -4.25896 45.5038 18.5397 4.57591 49.7875 10.0587 
4.57591 45.5038 18.4299 20.7616 45.5038 10.0587 13.4108 48.0814 10.0587 
13.4108 45.5038 15.9632 -21.9287 -34.2424 18.8936 -13.0938 -34.8526 18.8936 
[...]
POINT_DATA 520
SCALARS ImageScalars float
LOOKUP_TABLE default
0 0 0 0 0 0 0 0 0 
0 0 0 0 0 0 0 0 0 
0 0 0 0 0 0 0 0 0 
0 0 0 0 0 0 0 0 0 
0 0 0 0 0 0 0 0 0 
0 0 0 0 0 0 0 0 0 
0 0 0 0 0 0 0 0 0 
0 0 0 0 0 0 0 0 0 
0 0 0 0 0 0 0 0 0 
0 0 0 0 0 0 0 0 0 
0 0 0 0 0 0 0 0 0 
0 0 0 0 0 0 0 0 0 
0 0 0 0 0 0 0 0 0 
0 0 0 0 0 0 0 0 0 
0 0 0 0 0 0 0 0 0 
0 0 0 0 0 0 0 0 0 
0 0 0 0 0 0 0 0 0 
0 0 0 0 0 0 0 0 0 
0 0 0 0 0 0 0 0 0 
0 0 0 0 0 0 0 0 0 
0 0 0 0 0 0 0 0 0 
0 0 0 0 0 0 0 0 0 
0 0 0 0 0 0 0 0 0 
0 0 0 0 0 0 0 0 0 
0 0 0 0 0 0 0 0 0 
0 0 0 0 0 0 0 0 0 
0 0 0 0 0 0 0 0 0 
0 0 0 0 0 0 0 0 0 
0 0 0 0 0 0 0 0 0 
0 0 0 0 0 0 0 0 0 
0 0 0 0 0 0 0 0 0 
0 0 0 0 0 0 0 0 0 
0 0 0 0 0 0 0 0 0 
0 0 0 0 0 0 0 0 0 
0 0 0 0 0 0 0 0 0 
0 0 0 0 0 0 0 0 0 
0 0 0 0 0 0 0 0 0 
0 0 0 0 0 0 0 0 0 
0 0 0 0 0 0 0 0 0 
0 0 0 0 0 0 0 0 0 
0 0 0 0 0 0 0 0 0 
0 0 0 0 0 0 0 0 0 
0 0 0 0 0 0 0 0 0 
0 0 0 0 0 0 0 0 0 
0 0 0 0 0 0 0 0 0 
0 0 0 0 0 0 0 0 0 
0 0 0 0 0 0 0 0 0 
0 0 0 0 0 0 0 0 0 
0 0 0 0 0 0 0 0 0 
0 0 0 0 0 0 0 0 0 
0 0 0 0 0 0 0 0 0 
0 0 0 0 0 0 0 0 0 
0 0 0 0 0 0 0 0 0 
0 0 0 0 0 0 0 0 0 
0 0 0 0 0 0 0 0 0 
0 0 0 0 0 0 0 0 0 
0 0 0 0 0 0 0 0 0 
0 0 0 0 0 0 0 
NORMALS Normals float
-0.136847 -0.526311 -0.839208 -0.00309259 -0.455421 -0.890271 0.113594 -0.439254 -0.891152 
0.21502 -0.490355 -0.844582 -0.289312 -0.392128 -0.873232 -0.118808 -0.30336 -0.94544 
-0.0224522 -0.172612 -0.984734 0.0428334 -0.144027 -0.988646 0.099255 -0.146023 -0.98429 
0.0623672 -0.177034 -0.982227 0.0310275 -0.306353 -0.951412 0.0791693 -0.517123 -0.852242 
0.154119 -0.614893 -0.773404 -0.327076 -0.325991 -0.88699 -0.16663 -0.21564 -0.962151 
-0.0320264 -0.0884217 -0.995568 0.0599267 0.0123445 -0.998126 0.0437473 0.0283474 -0.99864 
0.0831245 -0.0372286 -0.995844 0.0184881 -0.0601232 -0.99802 -0.107863 -0.119544 -0.986952 
-0.0465919 -0.177098 -0.98309 0.0802953 -0.20028 -0.976443 0.227711 -0.282917 -0.931722 
0.428848 -0.402513 -0.808748 -0.596813 -0.188079 -0.780026 -0.29364 -0.109302 -0.949646 
-0.00764804 -0.0660187 -0.997789 0.110796 0.0415037 -0.992976 0.0915136 0.0744913 -0.993014 
-0.00293863 0.0035953 -0.999989 0.00924919 -0.049833 -0.998715 -0.0273855 -0.0836331 -0.99612 
-0.101198 -0.111787 -0.988566 -0.0171422 0.0588574 -0.998119 0.0339986 -0.00791544 -0.999391 
0.100809 -0.0926855 -0.990579 0.312424 -0.199918 -0.928668 -0.568519 -0.029874 -0.822128 
-0.217321 0.0302403 -0.975632 -0.0156204 0.0462964 -0.998806 0.110126 0.0246656 -0.993612 
0.0238246 -0.0132958 -0.999628 -0.0920246 -0.231306 -0.968519 0.00428053 -0.0334152 -0.999432 
-0.0437896 -0.0258068 -0.998707 0.0473272 -0.0635306 -0.996857 0.0526359 0.128742 -0.99028 
-0.068176 0.0274347 -0.997296 0.0234987 -0.0465262 -0.998641 0.250469 -0.0395311 -0.967317 
0.477107 -0.0880393 -0.874424 -0.577202 0.0949558 -0.811062 -0.227365 0.0430586 -0.972857 
-0.0276942 -0.00195121 -0.999615 0.052322 -0.0325659 -0.998099 -0.138682 -0.111503 -0.98404 
-0.081078 -0.0721167 -0.994095 0.245808 -0.0808222 -0.965943 -0.0813318 -0.0826903 -0.993251 
0.0749575 0.15215 -0.985511 0.0512523 0.019227 -0.998501 -0.141851 -0.0426947 -0.988967 
0.0402649 -0.0268779 -0.998827 0.26259 0.0307935 -0.964416 0.539904 0.0724962 -0.838599 
-0.605542 0.212843 -0.766822 -0.310294 0.0844425 -0.946883 -0.0853096 -0.0335499 -0.995789 
-0.00111605 -0.0925754 -0.995705 -0.0574624 -0.113425 -0.991884 -0.0384762 0.121488 -0.991847 
0.0434313 0.0171269 -0.99891 0.155806 -0.00968804 -0.98774 0.1305 0.11262 -0.985031 
-0.128335 -0.0630013 -0.989728 -0.107882 -0.0140375 -0.994065 0.103996 0.0508767 -0.993276 
0.323181 0.0975586 -0.941295 -0.453633 0.187067 -0.871334 -0.188656 0.0544473 -0.980533 
-0.0228854 -0.0229376 -0.999475 0.0507146 -0.0537288 -0.997267 0.088116 0.0511577 -0.994796 
0.0676084 0.0593187 -0.995947 0.0752174 0.0575431 -0.995505 0.012839 -0.0608776 -0.998063 
-0.0771952 -0.0427041 -0.996101 -0.0266303 0.0520397 -0.99829 0.141356 0.197954 -0.969965 
0.479882 0.350946 -0.804083 -0.579682 0.392745 -0.713947 -0.288112 0.260364 -0.921521 
-0.105734 0.160804 -0.981306 0.016799 0.082944 -0.996413 0.0766032 0.0480554 -0.995903 
0.0470094 0.0259221 -0.998558 0.0445934 0.00550127 -0.99899 0.0188739 -0.0480498 -0.998667 
-0.0106278 0.0557732 -0.998387 0.132493 0.207867 -0.969142 0.382911 0.395121 -0.83502 
-0.430066 0.608806 -0.666632 -0.209816 0.452118 -0.86693 -0.0750659 0.321802 -0.943827 
0.0224687 0.237032 -0.971242 0.0259385 0.212285 -0.976864 -0.000424314 0.210744 -0.977541 
0.0664409 0.231625 -0.970534 0.17811 0.310351 -0.933788 0.308607 0.518811 -0.797243 
-0.074104 0.62017 -0.78096 0.0154299 0.579421 -0.814882 0.0751994 0.639336 -0.765241 
0.128641 0.693778 -0.708607 -0.152183 -0.618511 -0.770898 -0.0300715 -0.625241 -0.779852 
0.116129 -0.587463 -0.800875 0.221734 -0.512934 -0.829297 -0.342364 -0.506241 -0.791522 
-0.428113 -0.738299 -0.521185 -0.200229 -0.605794 -0.770014 -0.204488 -0.60106 -0.772601 
-0.211839 -0.623507 -0.752571 0.225761 -0.522482 -0.822219 0.170351 -0.551231 -0.816777 
0.33095 -0.788546 -0.518332 0.132404 -0.66076 -0.738827 0.180416 -0.698883 -0.692107 
-0.423106 -0.487285 -0.763894 -0.443294 -0.47435 -0.76058 -0.489026 -0.543467 -0.682274 
0.270134 -0.687508 -0.674062 0.315286 -0.657384 -0.684427 0.32168 -0.744958 -0.584431 
0.439908 -0.440756 -0.782441 0.420347 -0.833946 -0.357552 -0.534221 -0.385824 -0.752162 
-0.620367 -0.270589 -0.736156 -0.717287 -0.448646 -0.53312 0.460195 -0.410225 -0.78736 
0.65719 -0.529996 -0.535916 -0.636344 -0.198539 -0.745418 0.488871 -0.25964 -0.832822 
0.508021 -0.193026 -0.839438 0.546357 -0.280715 -0.789109 -0.669173 -0.0290785 -0.742537 
0.532792 -0.0855992 -0.841906 0.878625 -0.0669808 -0.472792 -0.656667 0.0896821 -0.748829 
0.584263 0.0855704 -0.80704 0.612124 0.188153 -0.768051 -0.607084 0.212899 -0.765587 
-0.606657 0.21422 -0.765557 0.615785 0.234754 -0.75213 0.658054 0.256974 -0.707763 
-0.584394 0.274106 -0.763774 -0.773576 0.368129 -0.515812 0.599831 0.417503 -0.682564 
0.575446 0.493244 -0.652359 0.794154 0.569698 -0.211572 -0.615889 0.402889 -0.677024 
-0.59904 0.433674 -0.673111 0.536538 0.524295 -0.661242 0.502142 0.56895 -0.651268 
0.690944 0.688628 -0.219972 -0.472481 0.630385 -0.615935 -0.447055 0.650959 -0.61351 
-0.302328 0.687928 -0.659813 -0.198077 0.713014 -0.67259 0.248706 0.670412 -0.699066 
0.4347 0.604172 -0.667841 0.36521 0.618907 -0.695396 0.644785 0.75178 -0.138125 
-0.396378 0.859815 -0.321874 -0.188856 0.713061 -0.675187 -0.203171 0.727376 -0.655474 
-0.088943 0.677641 -0.729994 0.0173225 0.65926 -0.751715 0.0814842 0.688679 -0.720473 
0.136678 0.69949 -0.701451 0.130058 0.697416 -0.704767 0.306576 0.861654 -0.404431 
-0.438598 -0.860966 -0.257624 -0.283343 -0.925144 -0.252636 -0.139428 -0.967042 -0.213047 
-0.0133164 -0.986331 -0.164237 0.119015 -0.978208 -0.170131 0.270433 -0.939499 -0.210256 
0.395034 -0.89494 -0.207438 -0.524463 -0.804813 -0.277875 -0.598414 -0.747552 -0.288214 
0.348601 -0.922282 -0.166951 0.328423 -0.930246 -0.163649 0.237646 -0.954996 -0.177504 
0.280507 -0.93068 -0.23484 0.418263 -0.842435 -0.339646 -0.72918 -0.628605 -0.270467 
-0.785805 -0.557113 -0.268581 0.427806 -0.837454 -0.340077 0.658315 -0.626525 -0.417238 
-0.857293 -0.444692 -0.259417 0.707529 -0.552436 -0.4407 -0.934782 -0.22391 -0.275767 
0.840776 -0.30004 -0.450634 0.891796 -0.134164 -0.432087 0.92495 -0.31315 -0.215418 
-0.952517 -0.0370081 -0.302227 0.899965 -0.0636132 -0.431297 0.911686 0.108625 -0.396268 
-0.940062 0.104743 -0.324519 0.904636 0.192631 -0.380166 0.924514 0.208153 -0.31929 
-0.923363 0.245403 -0.295259 0.857989 0.415189 -0.302445 -0.875137 0.39066 -0.285516 
-0.831904 0.488889 -0.262533 0.796543 0.572244 -0.195078 0.794014 0.576569 -0.192639 
-0.796351 0.557645 -0.234215 -0.673203 0.714825 -0.189268 0.700971 0.704626 -0.110189 
0.697163 0.709445 -0.103206 0.661413 0.747797 0.0577153 -0.643022 0.745057 -0.177234 
-0.514613 0.842073 -0.161514 0.505507 0.857622 -0.0945906 0.652805 0.75454 -0.0671981 
0.646618 0.759703 -0.0688256 0.652528 0.757754 -0.00413222 -0.440469 0.882431 -0.165234 
-0.413972 0.894263 -0.170061 -0.283198 0.932977 -0.222157 -0.11005 0.962554 -0.247746 
0.0425438 0.970023 -0.239259 0.145338 0.968521 -0.202098 0.204168 0.964709 -0.16629 
0.414452 0.904181 -0.103375 0.323535 0.938484 -0.12072 -0.428095 -0.888419 0.16567 
-0.246645 -0.953752 0.171826 -0.0995072 -0.967113 0.234072 0.0073289 -0.965626 0.259831 
0.108084 -0.95937 0.260629 0.256836 -0.937249 0.235796 0.375041 -0.906847 0.192282 
-0.53322 -0.829945 0.163917 -0.613268 -0.772304 0.165675 -0.406728 -0.77676 0.480849 
0.341967 -0.932432 0.116745 0.250711 -0.871653 0.421148 0.309261 -0.946939 0.087548 
0.192092 -0.978589 0.0739251 0.216987 -0.97534 0.0403573 0.392164 -0.919879 -0.00546235 
-0.7542 -0.634509 0.169059 -0.803168 -0.570862 0.170407 0.466441 -0.884474 -0.0117852 
0.618308 -0.785277 -0.0321889 -0.873055 -0.458534 0.165895 -0.707334 -0.458737 0.53781 
0.772991 -0.632732 -0.0462054 0.917566 -0.394296 -0.0510115 -0.954543 -0.256754 0.151411 
0.947806 -0.313946 -0.0556959 0.911767 -0.325069 0.251022 -0.990828 -0.073412 0.113449 
0.997676 -0.0259492 -0.0630043 -0.991531 0.0935913 0.0900356 0.964293 0.2624 -0.0358592 
0.929869 0.367366 -0.0196632 -0.959926 0.266287 0.0873685 0.86461 0.502407 -0.00607631 
-0.894263 0.434456 0.107432 -0.823454 0.551182 0.134618 0.648851 0.754074 0.101803 
0.739567 0.671861 0.0405466 0.736827 0.674724 0.0428169 0.73686 0.671874 0.07498 
-0.780182 0.607195 0.150436 -0.643778 0.747992 0.161426 0.648043 0.754516 0.103666 
0.64793 0.74747 0.146544 -0.61224 0.772535 0.168379 -0.525441 0.8335 0.170848 
0.632532 0.760764 0.145401 0.525398 0.839455 0.138824 -0.461914 0.871593 0.164201 
-0.442372 0.882134 0.161699 -0.450617 0.851954 0.266682 -0.312461 0.943008 0.114473 
-0.121122 0.988867 0.086437 0.077772 0.993946 0.0776062 0.178789 0.980266 0.084344 
0.250554 0.963621 0.0930458 0.401514 0.904939 0.140968 0.356816 0.924597 0.133431 
0.377031 0.902636 0.207596 -0.206718 -0.777296 0.594204 -0.0499729 -0.785 0.617477 
0.0170674 -0.784177 0.620303 0.0760539 -0.772197 0.630815 0.176821 -0.792623 0.583509 
-0.54721 -0.608631 0.574569 -0.340099 -0.743835 0.575363 -0.385387 -0.720444 0.576573 
-0.189729 -0.697081 0.691434 -0.04254 -0.678355 0.733502 0.0177113 -0.675792 0.73688 
0.0648571 -0.672033 0.737675 0.203104 -0.833608 0.51366 0.153571 -0.734973 0.660477 
0.208556 -0.844628 0.493059 0.199335 -0.910212 0.363013 0.174678 -0.944148 0.279414 
0.219242 -0.934342 0.280961 0.363419 -0.876721 0.315099 -0.587833 -0.57831 0.565694 
-0.525031 -0.563435 0.637875 -0.305974 -0.471761 0.826935 -0.156892 -0.35034 0.923389 
0.0463594 -0.37276 0.926769 0.0382899 -0.350369 0.935829 0.0238314 -0.455384 0.889976 
-0.00730125 -0.621751 0.783181 0.0544815 -0.642757 0.76413 0.22948 -0.813012 0.535117 
0.384159 -0.869848 0.309493 0.363015 -0.863897 0.349145 0.630567 -0.707854 0.318321 
-0.699116 -0.456902 0.549979 -0.703925 -0.451869 0.548 -0.427895 -0.352741 0.832154 
0.72558 -0.588709 0.356308 0.622766 -0.526683 0.578592 -0.79707 -0.259119 0.54547 
-0.657488 -0.257417 0.708128 0.874924 -0.32112 0.362478 0.892406 -0.273495 0.358905 
-0.8409 -0.0952226 0.532748 -0.619056 -0.1158 0.776763 0.935488 -0.038699 0.351232 
0.853549 -0.0498007 0.518627 -0.85562 0.0668199 0.513273 -0.623023 0.0521431 0.780464 
0.914584 0.25281 0.315632 0.909898 0.272954 0.31238 0.906109 0.250277 0.341069 
-0.832302 0.252007 0.493726 -0.658364 0.239238 0.713669 0.846075 0.462 0.26592 
0.739075 0.640553 0.208471 -0.762235 0.436243 0.478216 -0.754404 0.448409 0.479379 
-0.747326 0.435633 0.501725 -0.432091 0.310271 0.846776 0.720383 0.663834 0.20093 
0.640812 0.754049 0.14412 -0.655721 0.57467 0.489678 -0.603316 0.630608 0.488204 
-0.569224 0.535733 0.623679 -0.308025 0.364192 0.878911 0.631854 0.762017 0.141746 
0.621766 0.759373 0.191727 -0.519441 0.707217 0.479609 -0.499869 0.722655 0.477389 
-0.486297 0.6827 0.545378 -0.442026 0.759807 0.476766 -0.319892 0.522393 0.790427 
0.381788 0.890531 0.247372 0.591384 0.780478 0.202777 0.511258 0.830454 0.221275 
0.413316 0.679694 0.605959 -0.405782 0.794837 0.451193 -0.337247 0.834935 0.434912 
-0.343354 0.742403 0.575279 -0.154031 0.897921 0.412325 -0.194005 0.660782 0.725072 
0.0356012 0.93514 0.352486 -0.0665058 0.638781 0.766508 0.149407 0.949154 0.2771 
0.0688294 0.717931 0.692703 0.362725 0.898831 0.246034 0.255832 0.930515 0.262091 
0.209313 0.844077 0.493683 -0.0405414 -0.357523 0.933024 0.00947577 -0.378548 0.925533 
-0.237555 -0.308986 0.920921 -0.0715275 -0.349903 0.934051 -0.14325 -0.318787 0.936939 
-0.0412223 -0.350528 0.935645 0.0426481 -0.370674 0.927783 0.00937198 -0.353867 0.935249 
0.0467165 -0.369498 0.928057 0.0354825 -0.292454 0.955621 -0.0231836 -0.356126 0.93415 
-0.0334848 -0.532692 0.845647 0.0417364 -0.58073 0.813025 0.184689 -0.626174 0.757494 
0.314574 -0.549557 0.77397 -0.269823 -0.281037 0.920985 -0.326345 -0.252607 0.910872 
-0.217467 -0.26078 0.940586 -0.0789222 -0.161766 0.983668 -0.0324128 -0.125128 0.991611 
-0.000896623 -0.169305 0.985563 0.0659881 -0.232842 0.970273 0.0300597 -0.135439 0.99033 
-0.109446 -0.172668 0.978881 -0.0935364 -0.208275 0.973587 -0.00130856 -0.253394 0.967362 
0.0937339 -0.354613 0.930303 0.390211 -0.474524 0.789026 0.308904 -0.477196 0.822716 
0.553394 -0.252361 0.793769 -0.335499 -0.245557 0.909473 -0.318714 -0.242969 0.916181 
-0.111644 -0.159811 0.980814 -0.00740588 -0.0564808 0.998376 -0.0567988 -0.0123629 0.998309 
-0.101071 -0.125945 0.986875 0.0819949 -0.115531 0.989914 0.0976622 -0.181554 0.978519 
-0.0888253 -0.106687 0.990317 -0.122942 0.0372151 0.991716 -0.106867 -0.0388281 0.993515 
0.0131741 -0.0946202 0.995426 0.243525 -0.150469 0.958152 0.562346 -0.23801 0.791908 
0.546811 -0.235321 0.803506 -0.45409 -0.121558 0.882625 -0.280352 -0.0982234 0.954859 
-0.0588395 -0.0500219 0.997013 0.0651486 -0.045378 0.996843 -0.0959769 -0.0388299 0.994626 
-0.111181 -0.111587 0.987516 0.00873229 0.0892111 0.995974 0.0235557 -0.133427 0.990779 
0.119354 -0.0845047 0.989249 -0.025269 0.0536382 0.998241 -0.140633 0.00594262 0.990044 
-0.0410189 -0.000254285 0.999158 0.145144 -0.0365025 0.988737 0.551915 -0.0805429 0.830002 
0.450417 -0.0910112 0.888168 -0.473337 0.0483424 0.879554 -0.24641 0.0300039 0.968701 
-0.0573287 -0.00326557 0.99835 0.00816579 -0.0507175 0.99868 -0.12131 -0.0421402 0.99172 
0.00988611 0.0307154 0.999479 0.0873515 -0.021745 0.99594 -0.0773403 0.0166321 0.996866 
0.108185 0.0521366 0.992763 -0.0551019 -0.0799643 0.995274 -0.161731 -0.0820597 0.983417 
-0.0334773 -0.0404454 0.998621 0.169695 0.000309917 0.985497 0.613345 0.109009 0.782256 
0.513495 0.0741336 0.854884 -0.423687 0.200577 0.883322 -0.38039 0.254669 0.889071 
-0.327182 0.166389 0.930197 -0.144491 0.078029 0.986425 0.0229864 0.0181228 0.999572 
-0.0224921 0.00139287 0.999746 -0.0708338 0.125256 0.989593 -0.0043517 -0.0729009 0.99733 
0.0792549 -0.0343552 0.996262 0.0146733 -0.0689349 0.997513 -0.140996 -0.168753 0.975522 
-0.0995158 -0.126636 0.986945 0.0391779 0.0118138 0.999162 0.251562 0.134643 0.95843 
0.661148 0.313924 0.681421 0.656332 0.341849 0.672583 0.640467 0.307951 0.703539 
-0.343095 0.27038 0.899544 -0.281807 0.325828 0.902453 -0.197231 0.214637 0.956572 
-0.0678561 0.12074 0.990362 -0.0171279 0.0345098 0.999258 -0.0551209 0.0579741 0.996795 
-0.0973711 -0.0102846 0.995195 -0.0466531 -0.0594182 0.997142 -0.0444813 -0.178056 0.983015 
-0.103664 -0.131223 0.985918 0.0212777 0.0446609 0.998776 0.218021 0.176006 0.959942 
0.610356 0.4798 0.630284 0.59237 0.568465 0.570916 0.501838 0.390522 0.771784 
-0.270272 0.331861 0.903782 -0.22384 0.35977 0.905793 -0.163236 0.248901 0.954674 
-0.0873491 0.12917 0.987768 -0.11242 0.030842 0.993182 -0.125846 0.0238171 0.991764 
-0.0804034 0.0184855 0.996591 -0.0617631 0.0138932 0.997994 0.0783411 0.137435 0.987408 
0.410255 0.675346 0.612861 0.211646 0.316903 0.924542 0.529482 0.652601 0.541996 
0.488169 0.658946 0.572259 0.418131 0.57019 0.707143 -0.260875 0.382434 0.886391 
-0.261592 0.386423 0.884447 -0.249953 0.348163 0.903497 -0.187926 0.491216 0.850524 
-0.149641 0.236472 0.960046 -0.0704592 0.606021 0.792322 -0.104951 0.24823 0.962999 
0.0567382 0.683647 0.727604 -0.060261 0.279065 0.95838 0.160171 0.728651 0.665893 
0.0780066 0.35716 0.93078 0.409392 0.675845 0.612888 0.296965 0.690481 0.659582 
0.234264 0.509813 0.827775 
