# vtk DataFile Version 4.2
vtk output
ASCII
DATASET POLYDATA
POINTS 558 float
-6.41165 -47.3885 -15.1903 1.79691 -47.3885 -15.4031 -31.0373 -39.18 -13.83 
-22.8288 -39.18 -14.7043 -14.6202 -39.18 -16.3455 -6.41165 -39.18 -18.0456 
1.79691 -39.18 -18.0453 10.0055 -39.18 -16.7201 18.214 -39.18 -15.1949 
26.4226 -39.18 -14.4417 -39.2459 -30.9714 -15.4608 -31.0373 -30.9714 -17.0958 
-22.8288 -30.9714 -16.6757 -14.6202 -30.9714 -17.2403 -6.41165 -30.9714 -18.3681 
1.79691 -30.9714 -18.7764 10.0055 -30.9714 -17.5881 18.214 -30.9714 -16.6465 
26.4226 -30.9714 -17.072 34.6311 -30.9714 -15.3497 -39.2459 -22.7629 -17.0699 
-31.0373 -22.7629 -17.7837 -22.8288 -22.7629 -17.7419 -14.6202 -22.7629 -16.5611 
-6.41165 -22.7629 -17.5267 1.79691 -22.7629 -18.0243 10.0055 -22.7629 -16.9752 
18.214 -22.7629 -16.8465 26.4226 -22.7629 -17.1948 34.6311 -22.7629 -16.2058 
-47.4545 -14.5543 -14.4555 -39.2459 -14.5543 -18.072 -31.0373 -14.5543 -18.8005 
-22.8288 -14.5543 -17.927 -14.6202 -14.5543 -15.7378 -6.41165 -14.5543 -15.0895 
1.79691 -14.5543 -17.6751 10.0055 -14.5543 -15.6536 18.214 -14.5543 -16.5979 
26.4226 -14.5543 -17.1922 34.6311 -14.5543 -16.7086 42.8397 -14.5543 -14.3886 
-47.4545 -6.34575 -14.8847 -39.2459 -6.34575 -17.3829 -31.0373 -6.34575 -18.1129 
-22.8288 -6.34575 -17.534 -14.6202 -6.34575 -16.9731 -6.41165 -6.34575 -15.3257 
1.79691 -6.34575 -19.3475 10.0055 -6.34575 -21.4671 18.214 -6.34575 -16.5234 
26.4226 -6.34575 -16.9446 34.6311 -6.34575 -16.8416 42.8397 -6.34575 -15.346 
-47.4545 1.86281 -15.5911 -39.2459 1.86281 -17.0381 -31.0373 1.86281 -17.4249 
-22.8288 1.86281 -16.7423 -14.6202 1.86281 -18.6759 -6.41165 1.86281 -19.7583 
1.79691 1.86281 -14.1732 10.0055 1.86281 -18.7104 18.214 1.86281 -15.2209 
26.4226 1.86281 -16.5522 34.6311 1.86281 -17.2027 42.8397 1.86281 -16.6408 
51.0483 1.86281 -14.1738 -47.4545 10.0714 -15.7863 -39.2459 10.0714 -17.4647 
-31.0373 10.0714 -18.151 -22.8288 10.0714 -16.9492 -14.6202 10.0714 -15.1913 
-6.41165 10.0714 -14.5054 1.79691 10.0714 -17.5812 10.0055 10.0714 -15.5663 
18.214 10.0714 -14.3794 26.4226 10.0714 -15.9996 34.6311 10.0714 -17.0056 
42.8397 10.0714 -16.8222 51.0483 10.0714 -15.1171 -47.4545 18.2799 -15.3995 
-39.2459 18.2799 -18.5497 -31.0373 18.2799 -18.4196 -22.8288 18.2799 -17.3983 
-14.6202 18.2799 -15.7696 -6.41165 18.2799 -15.0119 1.79691 18.2799 -15.4511 
10.0055 18.2799 -14.5517 18.214 18.2799 -14.4554 26.4226 18.2799 -15.5367 
34.6311 18.2799 -16.5426 42.8397 18.2799 -15.3974 -39.2459 26.4885 -17.0346 
-31.0373 26.4885 -17.7998 -22.8288 26.4885 -17.5883 -14.6202 26.4885 -17.1129 
-6.41165 26.4885 -15.8208 1.79691 26.4885 -15.0924 10.0055 26.4885 -14.2209 
18.214 26.4885 -13.9842 -39.2459 34.6971 -14.9748 -31.0373 34.6971 -16.3471 
-22.8288 34.6971 -17.2054 -14.6202 34.6971 -16.2491 -6.41165 34.6971 -15.5255 
1.79691 34.6971 -14.5527 -22.8288 42.9056 -14.445 -14.6202 42.9056 -14.6888 
-6.41165 42.9056 -13.94 -6.41165 -49.1073 -13.8222 1.79691 -49.3978 -13.8222 
-31.0373 -39.1962 -13.8222 -31.0373 -47.3885 -6.96252 -22.8288 -40.9625 -13.8222 
-22.8288 -47.3885 -9.27766 -12.2065 -47.3885 -13.8222 -14.6202 -45.8495 -13.8222 
-14.6202 -47.3885 -13.0313 9.87515 -47.3885 -13.8222 10.0055 -47.3174 -13.8222 
10.0055 -47.3885 -13.7867 18.214 -42.0636 -13.8222 18.214 -47.3885 -10.3325 
26.4226 -40.2437 -13.8222 26.4226 -47.3885 -6.67864 -31.0574 -39.18 -13.8222 
-39.2459 -34.3595 -13.8222 -39.2459 -39.18 -10.0337 28.0556 -39.18 -13.8222 
34.6311 -34.1534 -13.8222 34.6311 -39.18 -9.778 -42.3045 -30.9714 -13.8222 
-47.4545 -30.9714 -8.78261 37.0024 -30.9714 -13.8222 42.8397 -30.9714 -6.7545 
-46.6045 -22.7629 -13.8222 -47.4545 -19.8043 -13.8222 -47.4545 -22.7629 -13.2903 
38.8371 -22.7629 -13.8222 42.8397 -16.3295 -13.8222 42.8397 -22.7629 -10.7986 
-48.4591 -14.5543 -13.8222 43.7881 -14.5543 -13.8222 51.0483 -14.5543 -6.4405 
-49.2271 -6.34575 -13.8222 46.5262 -6.34575 -13.8222 51.0483 0.726185 -13.8222 
51.0483 -6.34575 -11.3117 -49.991 1.86281 -13.8222 -55.663 1.86281 -6.15952 
51.6243 1.86281 -13.8222 59.2568 1.86281 -7.77257 -50.0868 10.0714 -13.8222 
-55.663 10.0714 -5.70307 53.6861 10.0714 -13.8222 51.0483 16.5005 -13.8222 
59.2568 10.0714 -9.81745 -50.1474 18.2799 -13.8222 -47.4545 25.6831 -13.8222 
26.4226 26.3691 -13.8222 34.6311 26.2278 -13.8222 49.6839 18.2799 -13.8222 
42.8397 23.3374 -13.8222 51.0483 18.2799 -13.491 59.2568 18.2799 -9.23316 
-47.0023 26.4885 -13.8222 -47.4545 26.4885 -13.5467 10.0055 28.6172 -13.8222 
25.3615 26.4885 -13.8222 18.214 27.2375 -13.8222 26.4226 26.4885 -13.7955 
34.6311 26.4885 -13.7387 42.8397 26.4885 -12.7828 51.0483 26.4885 -9.82498 
-41.5154 34.6971 -13.8222 -47.4545 34.6971 -8.32157 -39.2459 38.5964 -13.8222 
-31.0373 41.2785 -13.8222 5.03353 34.6971 -13.8222 1.79691 37.7166 -13.8222 
10.0055 34.6971 -12.6856 18.214 34.6971 -11.8225 26.4226 34.6971 -10.7126 
34.6311 34.6971 -8.68312 42.8397 34.6971 -6.37798 -39.2459 42.9056 -10.7434 
-27.0326 42.9056 -13.8222 -31.0373 42.9056 -13.0641 -22.8288 44.3378 -13.8222 
-14.6202 44.9221 -13.8222 -5.69688 42.9056 -13.8222 -6.41165 43.1466 -13.8222 
1.79691 42.9056 -12.2587 10.0055 42.9056 -9.49133 18.214 42.9056 -6.16964 
-22.8288 51.1142 -6.79568 -14.6202 51.1142 -7.58419 -6.41165 51.1142 -6.35369 
-31.0373 -47.9902 -5.6136 -22.8288 -50.1709 -5.6136 -14.6202 -53.051 -5.6136 
-6.41165 -54.8798 -5.6136 1.79691 -55.5827 -5.6136 10.0055 -53.8669 -5.6136 
18.214 -51.12 -5.6136 26.4226 -48.1179 -5.6136 -32.1545 -47.3885 -5.6136 
-39.2459 -42.7171 -5.6136 27.6847 -47.3885 -5.6136 34.6311 -42.7041 -5.6136 
-43.4876 -39.18 -5.6136 -47.4545 -34.2999 -5.6136 38.4377 -39.18 -5.6136 
42.8397 -32.403 -5.6136 -49.409 -30.9714 -5.6136 43.6428 -30.9714 -5.6136 
-52.4886 -22.7629 -5.6136 47.3274 -22.7629 -5.6136 51.0483 -15.7255 -5.6136 
-53.9666 -14.5543 -5.6136 51.6532 -14.5543 -5.6136 -54.7157 -6.34575 -5.6136 
-55.663 -0.184009 -5.6136 57.4932 -6.34575 -5.6136 59.2568 -2.65425 -5.6136 
-55.9581 1.86281 -5.6136 -55.663 1.86281 -4.43194 60.6753 1.86281 -5.6136 
-55.7079 10.0714 -5.6136 -55.663 10.4015 -5.6136 -55.663 10.0714 -5.40278 
62.1175 10.0714 -5.6136 -54.5892 18.2799 -5.6136 61.7196 18.2799 -5.6136 
59.2568 22.8551 -5.6136 -52.7386 26.4885 -5.6136 56.3096 26.4885 -5.6136 
51.0483 31.1108 -5.6136 -49.1355 34.6971 -5.6136 -47.4545 37.3647 -5.6136 
26.4226 40.9852 -5.6136 34.6311 38.07 -5.6136 43.8997 34.6971 -5.6136 
42.8397 35.1703 -5.6136 -42.5919 42.9056 -5.6136 -39.2459 45.719 -5.6136 
-31.0373 50.5896 -5.6136 1.79691 49.8536 -5.6136 10.0055 47.3383 -5.6136 
20.2304 42.9056 -5.6136 18.214 43.468 -5.6136 26.4226 42.9056 -0.53111 
-27.3812 51.1142 -5.6136 -31.0373 51.1142 0.260312 -22.8288 51.7033 -5.6136 
-14.6202 52.0778 -5.6136 -4.04474 51.1142 -5.6136 -6.41165 51.5523 -5.6136 
1.79691 51.1142 -1.32217 -31.0373 -47.5219 2.59496 -22.8288 -50.3843 2.59496 
-14.6202 -53.1544 2.59496 -6.41165 -55.2826 2.59496 1.79691 -55.5804 2.59496 
10.0055 -54.3187 2.59496 18.214 -51.5887 2.59496 26.4226 -47.7358 2.59496 
-31.2722 -47.3885 2.59496 -39.2459 -42.1969 2.59496 -31.0373 -47.3885 2.8211 
-22.8288 -47.3885 7.5943 18.214 -47.3885 10.2226 27.0075 -47.3885 2.59496 
26.4226 -47.3885 3.16255 34.6311 -42.173 2.59496 -42.5935 -39.18 2.59496 
-47.4545 -32.0413 2.59496 -39.2459 -39.18 6.52537 -31.0373 -39.18 10.4339 
37.7399 -39.18 2.59496 34.6311 -39.18 6.48361 42.8397 -32.676 2.59496 
-48.0754 -30.9714 2.59496 -47.4545 -30.9714 3.54158 43.974 -30.9714 2.59496 
42.8397 -30.9714 4.75216 -51.2178 -22.7629 2.59496 -47.4545 -22.7629 8.22544 
48.6352 -22.7629 2.59496 51.0483 -18.7979 2.59496 -52.6323 -14.5543 2.59496 
-47.4545 -14.5543 9.90239 53.6142 -14.5543 2.59496 51.0483 -14.5543 9.63971 
-53.253 -6.34575 2.59496 -47.4545 -6.34575 9.65713 58.2226 -6.34575 2.59496 
59.2568 -4.07789 2.59496 -53.5581 1.86281 2.59496 -47.4545 1.86281 9.55984 
61.7168 1.86281 2.59496 59.2568 1.86281 9.01105 -53.4857 10.0714 2.59496 
-47.4545 10.0714 8.96851 63.6434 10.0714 2.59496 -52.5285 18.2799 2.59496 
-47.4545 18.2799 9.01278 62.7209 18.2799 2.59496 59.2568 24.8448 2.59496 
59.2568 18.2799 10.1542 -50.8022 26.4885 2.59496 -47.4545 26.4885 7.27686 
58.1587 26.4885 2.59496 51.0483 33.1633 2.59496 -48.4507 34.6971 2.59496 
-47.4545 36.3651 2.59496 -47.4545 34.6971 4.37355 34.6311 41.0562 2.59496 
48.7356 34.6971 2.59496 42.8397 37.9576 2.59496 -42.9514 42.9056 2.59496 
-39.2459 46.5891 2.59496 -39.2459 42.9056 8.94521 10.0055 49.907 2.59496 
18.214 46.9501 2.59496 29.0535 42.9056 2.59496 26.4226 43.7733 2.59496 
26.4226 42.9056 5.7636 -31.3637 51.1142 2.59496 -31.0373 51.2767 2.59496 
-31.0373 51.1142 3.02389 -22.8288 53.2802 2.59496 -22.8288 51.1142 7.62146 
-14.6202 53.4331 2.59496 -14.6202 51.1142 8.19227 -6.41165 52.9364 2.59496 
-6.41165 51.1142 7.87992 5.30863 51.1142 2.59496 1.79691 52.0035 2.59496 
1.79691 51.1142 4.92676 -14.6202 -47.7523 10.8035 -6.41165 -50.9832 10.8035 
1.79691 -51.4982 10.8035 10.0055 -49.9361 10.8035 -15.6814 -47.3885 10.8035 
-22.8288 -44.0346 10.8035 -14.6202 -47.3885 11.1615 -6.41165 -47.3885 14.0009 
1.79691 -47.3885 14.4762 17.1123 -47.3885 10.8035 10.0055 -47.3885 13.1281 
18.214 -46.7151 10.8035 26.4226 -39.7675 10.8035 -39.2459 -31.391 10.8035 
-30.2348 -39.18 10.8035 -31.0373 -38.6559 10.8035 -22.8288 -39.18 13.5333 
-14.6202 -39.18 15.8374 -6.41165 -39.18 17.7874 1.79691 -39.18 18.2748 
10.0055 -39.18 17.0449 18.214 -39.18 14.5139 27.334 -39.18 10.8035 
26.4226 -39.18 11.2064 34.6311 -33.429 10.8035 -39.5244 -30.9714 10.8035 
-39.2459 -30.9714 10.9902 -31.0373 -30.9714 14.8511 -22.8288 -30.9714 16.0535 
-14.6202 -30.9714 17.3112 -6.41165 -30.9714 18.6275 10.0055 -30.9714 18.2909 
18.214 -30.9714 16.0883 26.4226 -30.9714 14.5512 36.9497 -30.9714 10.8035 
34.6311 -30.9714 12.1823 42.8397 -25.1028 10.8035 -44.1846 -22.7629 10.8035 
-39.2459 -22.7629 13.5311 -31.0373 -22.7629 16.2784 -22.8288 -22.7629 17.8058 
-14.6202 -22.7629 17.8276 -6.41165 -22.7629 18.7203 10.0055 -22.7629 17.3557 
18.214 -22.7629 16.3664 26.4226 -22.7629 16.487 34.6311 -22.7629 15.7169 
[...]
POINT_DATA 558
SCALARS ImageScalars float
LOOKUP_TABLE default
0 0 0 0 0 0 0 0 0 
0 0 0 0 0 0 0 0 0 
0 0 0 0 0 0 0 0 0 
0 0 0 0 0 0 0 0 0 
0 0 0 0 0 0 0 0 0 
0 0 0 0 0 0 0 0 0 
0 0 0 0 0 0 0 0 0 
0 0 0 0 0 0 0 0 0 
0 0 0 0 0 0 0 0 0 
0 0 0 0 0 0 0 0 0 
0 0 0 0 0 0 0 0 0 
0 0 0 0 0 0 0 0 0 
0 0 0 0 0 0 0 0 0 
0 0 0 0 0 0 0 0 0 
0 0 0 0 0 0 0 0 0 
0 0 0 0 0 0 0 0 0 
0 0 0 0 0 0 0 0 0 
0 0 0 0 0 0 0 0 0 
0 0 0 0 0 0 0 0 0 
0 0 0 0 0 0 0 0 0 
0 0 0 0 0 0 0 0 0 
0 0 0 0 0 0 0 0 0 
0 0 0 0 0 0 0 0 0 
0 0 0 0 0 0 0 0 0 
0 0 0 0 0 0 0 0 0 
0 0 0 0 0 0 0 0 0 
0 0 0 0 0 0 0 0 0 
0 0 0 0 0 0 0 0 0 
0 0 0 0 0 0 0 0 0 
0 0 0 0 0 0 0 0 0 
0 0 0 0 0 0 0 0 0 
0 0 0 0 0 0 0 0 0 
0 0 0 0 0 0 0 0 0 
0 0 0 0 0 0 0 0 0 
0 0 0 0 0 0 0 0 0 
0 0 0 0 0 0 0 0 0 
0 0 0 0 0 0 0 0 0 
0 0 0 0 0 0 0 0 0 
0 0 0 0 0 0 0 0 0 
0 0 0 0 0 0 0 0 0 
0 0 0 0 0 0 0 0 0 
0 0 0 0 0 0 0 0 0 
0 0 0 0 0 0 0 0 0 
0 0 0 0 0 0 0 0 0 
0 0 0 0 0 0 0 0 0 
0 0 0 0 0 0 0 0 0 
0 0 0 0 0 0 0 0 0 
0 0 0 0 0 0 0 0 0 
0 0 0 0 0 0 0 0 0 
0 0 0 0 0 0 0 0 0 
0 0 0 0 0 0 0 0 0 
0 0 0 0 0 0 0 0 0 
0 0 0 0 0 0 0 0 0 
0 0 0 0 0 0 0 0 0 
0 0 0 0 0 0 0 0 0 
0 0 0 0 0 0 0 0 0 
0 0 0 0 0 0 0 0 0 
0 0 0 0 0 0 0 0 0 
0 0 0 0 0 0 0 0 0 
0 0 0 0 0 0 0 0 0 
0 0 0 0 0 0 0 0 0 
0 0 0 0 0 0 0 0 0 

NORMALS Normals float
-0.122003 -0.533074 -0.837226 0.0803392 -0.513062 -0.854584 -0.225499 -0.419106 -0.879489 
-0.133595 -0.342592 -0.929937 -0.199844 -0.231054 -0.952196 -0.0965309 -0.185672 -0.977859 
0.07848 -0.198506 -0.976953 0.165751 -0.221278 -0.961022 0.139202 -0.29551 -0.945144 
0.21707 -0.419549 -0.881396 -0.32436 -0.29921 -0.897365 -0.08232 -0.202507 -0.975815 
-0.0103073 -0.165475 -0.98616 -0.103386 -0.00907068 -0.9946 -0.0928727 0.0315856 -0.995177 
0.0476207 0.00261097 -0.998862 0.126443 -0.0132282 -0.991886 0.0333439 -0.0931286 -0.995096 
0.0876383 -0.176134 -0.980457 0.395973 -0.262118 -0.880057 -0.206799 -0.163059 -0.9647 
-0.0374372 -0.100762 -0.994206 0.076011 -0.0785413 -0.994009 0.00861968 0.0907842 -0.995833 
-0.089779 0.184227 -0.978775 0.0342426 0.064596 -0.997324 0.0727962 0.105217 -0.991781 
-0.0131109 0.00311886 -0.999909 0.0329226 -0.00670753 -0.999435 0.299703 -0.0880777 -0.949958 
-0.515378 -0.0764602 -0.853545 -0.257366 -0.0106986 -0.966255 0.0138428 -0.0199278 -0.999706 
0.184207 0.0134786 -0.982795 0.170644 -0.0129607 -0.985247 -0.118052 0.14527 -0.982324 
-0.0384642 -0.0550253 -0.997744 0.0673287 -0.149915 -0.986404 -0.0848201 0.0198568 -0.996198 
-0.00537733 0.0152567 -0.999869 0.166879 -0.0349885 -0.985356 0.435856 -0.205568 -0.876225 
-0.461144 -0.0717431 -0.88442 -0.191464 0.0567166 -0.97986 -0.0122498 0.0840783 -0.996384 
0.063262 0.0718069 -0.99541 0.116837 -0.182892 -0.976166 -0.114579 -0.239586 -0.96409 
-0.304876 0.128193 -0.943725 0.247323 -0.235935 -0.939769 0.164153 0.0821251 -0.98301 
-0.0189629 0.0389101 -0.999063 0.0930972 -0.0304066 -0.995193 0.278737 -0.134473 -0.950906 
-0.414668 -0.0547267 -0.908326 -0.114691 -0.00336701 -0.993396 0.0182011 0.00243649 -0.999831 
-0.0528578 0.036621 -0.99793 -0.189495 0.127282 -0.973597 0.20499 0.0515878 -0.977404 
0.0891745 0.048346 -0.994842 0.0304731 0.325951 -0.944895 0.0476123 0.137351 -0.989377 
-0.114128 0.0570326 -0.991828 -0.00684841 -0.00992973 -0.999927 0.160848 -0.0882583 -0.983025 
0.416301 -0.184392 -0.890333 -0.44534 0.0116137 -0.895286 -0.134439 -0.0848341 -0.987284 
0.0269082 -0.0639482 -0.99759 0.168404 -0.0410738 -0.984862 0.133947 0.14643 -0.98011 
-0.15581 0.212033 -0.964762 -0.0381687 -0.00128155 -0.99927 0.203124 0.197926 -0.95894 
-0.0447097 0.0451493 -0.997979 -0.151219 0.0618082 -0.986566 -0.0499238 0.0375248 -0.998048 
0.100786 0.074407 -0.992122 0.344499 0.0406325 -0.937907 -0.462889 0.101993 -0.880529 
-0.18486 0.0193857 -0.982574 0.0693758 0.023099 -0.997323 0.150794 -0.0362645 -0.9879 
0.149764 -0.117317 -0.981737 0.01518 -0.0701853 -0.997418 0.0276941 0.141011 -0.989621 
0.0607065 0.067379 -0.995879 -0.0592524 0.0256321 -0.997914 -0.120903 0.12714 -0.984489 
0.00655959 0.195962 -0.98059 0.157373 0.212344 -0.96444 -0.195865 0.214384 -0.95691 
-0.0294876 0.118428 -0.992525 0.0417615 0.0104631 -0.999073 0.109649 -0.0224647 -0.993716 
0.120995 -0.0312791 -0.99216 0.0950624 0.0537869 -0.994017 0.0678093 0.112131 -0.991377 
0.0247877 0.140126 -0.989823 -0.319281 0.267388 -0.909155 -0.133736 0.244366 -0.960416 
0.00907729 0.198516 -0.980056 0.0966774 0.146587 -0.984462 0.102027 0.114772 -0.988139 
0.170494 0.154294 -0.973204 -0.0826317 0.384632 -0.919364 0.0328328 0.325192 -0.945078 
0.134736 0.354738 -0.925207 -0.116052 -0.614133 -0.780624 0.0697282 -0.606985 -0.791648 
-0.22572 -0.419724 -0.879137 -0.377567 -0.877396 -0.296005 -0.148234 -0.406689 -0.901461 
-0.249386 -0.777705 -0.577045 -0.224039 -0.528214 -0.819022 -0.256948 -0.466164 -0.846563 
-0.272179 -0.548469 -0.790633 0.235894 -0.509317 -0.827617 0.237931 -0.506493 -0.828766 
0.238643 -0.51012 -0.826333 0.186232 -0.405807 -0.894784 0.314602 -0.708057 -0.632204 
0.233093 -0.458495 -0.857584 0.406912 -0.84577 -0.345104 -0.226066 -0.41957 -0.879122 
-0.362977 -0.419079 -0.832238 -0.487362 -0.676394 -0.55224 0.26742 -0.451179 -0.851424 
0.432012 -0.383438 -0.816297 0.562947 -0.638194 -0.525165 -0.462514 -0.335396 -0.820725 
-0.807574 -0.438972 -0.393861 0.498013 -0.28141 -0.820239 0.837112 -0.402697 -0.370243 
-0.580833 -0.230017 -0.780849 -0.582597 -0.184354 -0.791577 -0.642682 -0.245597 -0.725701 
0.466785 -0.192829 -0.863092 0.473998 -0.22822 -0.850436 0.678115 -0.331994 -0.655698 
-0.560152 -0.0956521 -0.822849 0.468221 -0.224662 -0.854574 0.790854 -0.424976 -0.440391 
-0.554511 -0.0649718 -0.829636 0.375795 -0.206509 -0.9034 0.427606 -0.201397 -0.881245 
0.547467 -0.356667 -0.757013 -0.555996 -0.0331878 -0.830522 -0.981556 -0.0541791 -0.183339 
0.437236 -0.187596 -0.879564 0.836088 -0.225102 -0.500286 -0.59089 -0.00679806 -0.806724 
-0.984861 0.0832445 -0.152052 0.450343 0.01001 -0.892799 0.304709 0.227416 -0.924897 
0.755897 -0.0602901 -0.651909 -0.599399 0.115699 -0.792044 -0.562331 0.301778 -0.76988 
0.0136795 0.266281 -0.963798 0.0524856 0.378596 -0.924073 0.267783 0.266608 -0.925858 
0.187583 0.297477 -0.93612 0.300387 0.277789 -0.91247 0.73353 0.28913 -0.615091 
-0.553173 0.314871 -0.771269 -0.586676 0.325427 -0.741558 0.0874186 0.147913 -0.985129 
0.0168687 0.251463 -0.96772 0.0311833 0.160803 -0.986494 0.0155439 0.268488 -0.963158 
0.0539023 0.384647 -0.921489 0.217332 0.385005 -0.89696 0.455624 0.534923 -0.711523 
-0.413103 0.308711 -0.856763 -0.775449 0.488927 -0.399537 -0.361365 0.414073 -0.835439 
-0.129979 0.415944 -0.900053 0.162312 0.190051 -0.968264 0.195092 0.234721 -0.952284 
0.152374 0.254738 -0.95493 0.110154 0.39587 -0.911676 0.163415 0.4876 -0.857637 
0.18608 0.665499 -0.722831 0.316751 0.813786 -0.487259 -0.468433 0.659718 -0.587659 
-0.111777 0.41922 -0.900977 -0.152285 0.486084 -0.860541 -0.093452 0.442217 -0.892026 
0.0406204 0.42638 -0.903632 0.143558 0.357138 -0.922954 0.136078 0.366367 -0.920466 
0.231187 0.421504 -0.876862 0.311792 0.545634 -0.777862 0.290088 0.705834 -0.646256 
-0.0890444 0.906492 -0.412727 0.0220127 0.892062 -0.451376 0.128791 0.895334 -0.426368 
-0.390876 -0.898671 -0.199015 -0.310724 -0.894901 -0.320318 -0.265733 -0.923305 -0.277299 
-0.138025 -0.94671 -0.291014 0.0521589 -0.956239 -0.287898 0.243048 -0.922706 -0.299233 
0.326248 -0.88835 -0.323105 0.418375 -0.863822 -0.280665 -0.413228 -0.889368 -0.195619 
-0.557959 -0.792264 -0.246981 0.445049 -0.853129 -0.272219 0.617611 -0.745251 -0.251311 
-0.679298 -0.698812 -0.224091 -0.824226 -0.536392 -0.181477 0.728368 -0.642396 -0.238343 
0.845245 -0.448895 -0.289921 -0.877026 -0.443475 -0.184812 0.853934 -0.42226 -0.304127 
-0.952434 -0.261317 -0.156789 0.834958 -0.401968 -0.375853 0.8109 -0.43156 -0.395219 
-0.980918 -0.140322 -0.134569 0.803576 -0.441242 -0.399464 -0.984626 -0.118129 -0.128675 
-0.987531 -0.0726859 -0.139636 0.802196 -0.475329 -0.36131 0.861753 -0.365457 -0.351885 
-0.987232 -0.0583135 -0.148233 -0.996103 -0.0551335 -0.0688384 0.897492 -0.231404 -0.375446 
-0.985578 0.0845824 -0.146565 -0.985981 0.0881403 -0.141679 -0.987445 0.084784 -0.133279 
0.901674 -0.0689744 -0.42688 -0.983912 0.173173 -0.0439192 0.880919 0.271312 -0.387778 
0.800303 0.440689 -0.406581 -0.941615 0.319697 -0.105621 0.679282 0.580546 -0.448934 
0.482617 0.73836 -0.471067 -0.845126 0.490841 -0.21175 -0.806327 0.54675 -0.225613 
0.242781 0.795013 -0.555888 0.278279 0.786745 -0.550993 0.340233 0.827555 -0.446536 
0.328058 0.831285 -0.448712 -0.661291 0.709914 -0.242313 -0.559907 0.781259 -0.275933 
-0.299682 0.906454 -0.297544 0.212926 0.865017 -0.454322 0.316294 0.773453 -0.549298 
0.28728 0.747216 -0.599281 0.302006 0.725815 -0.61805 0.32076 0.928291 -0.188117 
-0.207889 0.927241 -0.311458 -0.346657 0.937401 0.033296 -0.0901313 0.933861 -0.346091 
0.0106595 0.941356 -0.337246 0.149264 0.905802 -0.396538 0.123728 0.914029 -0.38632 
0.200898 0.968043 -0.15011 -0.437396 -0.843685 0.311256 -0.340754 -0.906923 0.247743 
-0.287963 -0.928287 0.235289 -0.140067 -0.975221 0.171244 0.0564276 -0.981358 0.183716 
0.228953 -0.95764 0.174663 0.370917 -0.906738 0.200614 0.483672 -0.826857 0.286999 
-0.440913 -0.841114 0.313245 -0.583631 -0.743381 0.326742 -0.438984 -0.837325 0.325854 
-0.3232 -0.772471 0.546654 0.378252 -0.660795 0.648287 0.492413 -0.821191 0.288399 
0.48636 -0.813721 0.318297 0.615753 -0.729166 0.298605 -0.683003 -0.643311 0.345915 
-0.805464 -0.467151 0.364688 -0.552811 -0.617462 0.55959 -0.338627 -0.546816 0.765718 
0.686129 -0.663153 0.29909 0.570796 -0.633853 0.521942 0.800104 -0.558547 0.218767 
-0.817883 -0.447669 0.36147 -0.792371 -0.44928 0.412669 0.819498 -0.536658 0.201047 
0.772245 -0.549599 0.318715 -0.895839 -0.25731 0.362304 -0.715585 -0.23906 0.656344 
0.858139 -0.50137 0.110567 0.861083 -0.503064 0.0739058 -0.920964 -0.120613 0.370511 
-0.66941 -0.0571882 0.740688 0.860439 -0.507017 0.0507701 0.754761 -0.471862 0.455722 
-0.916142 -0.0536903 0.397241 -0.671067 0.0149932 0.741246 0.884325 -0.456481 0.0979503 
0.90412 -0.413577 0.107333 -0.875651 -0.0137495 0.482748 -0.641223 0.0321742 0.76668 
0.948089 -0.297864 0.111373 0.848192 -0.246177 0.469007 -0.870331 0.0635175 0.488354 
-0.642993 0.0255576 0.765445 0.991787 -0.0580207 0.113984 -0.866467 0.151661 0.475641 
-0.677061 0.0659459 0.732967 0.946615 0.286379 0.148007 0.849221 0.510991 0.133085 
0.754757 0.289514 0.588662 -0.865043 0.250964 0.434417 -0.761903 0.177991 0.622754 
0.808376 0.575104 0.125632 0.565258 0.81979 0.0918004 -0.858858 0.416263 0.298477 
-0.8439 0.448456 0.294481 -0.828623 0.403019 0.388535 0.338383 0.940552 0.0293222 
0.505549 0.860818 0.058414 0.407807 0.912926 0.0161311 -0.756724 0.616611 0.217164 
-0.625554 0.758876 0.181078 -0.620055 0.559202 0.550295 0.292639 0.955266 0.0427673 
0.351767 0.936067 -0.00615967 0.343401 0.939157 0.00777388 0.346927 0.937891 -0.00142643 
0.332941 0.924078 0.187696 -0.362829 0.919816 0.149312 -0.355285 0.922989 0.147862 
-0.357373 0.918429 0.169623 -0.132736 0.98355 0.122514 -0.125739 0.895091 0.427788 
0.0213852 0.992314 0.121881 -0.00842702 0.88973 0.456409 0.0879186 0.992147 0.0889625 
0.0808472 0.909437 0.407906 0.230184 0.971149 0.0623274 0.182056 0.980117 0.0789067 
0.179575 0.959649 0.216396 -0.286356 -0.637408 0.71534 -0.172986 -0.720365 0.671677 
0.049022 -0.760357 0.647652 0.223739 -0.698203 0.68004 -0.286416 -0.634618 0.717793 
-0.286661 -0.568299 0.771273 -0.28414 -0.625331 0.726791 -0.156921 -0.566453 0.809016 
0.0439317 -0.588373 0.807396 0.352315 -0.63708 0.685568 0.209143 -0.589248 0.780414 
0.369512 -0.61636 0.695385 0.377473 -0.489593 0.786011 -0.511415 -0.337229 0.7904 
-0.326269 -0.526359 0.785172 -0.330961 -0.525276 0.783932 -0.257699 -0.395011 0.881792 
-0.245339 -0.306028 0.919867 -0.134467 -0.255754 0.957345 0.0396506 -0.261799 0.964308 
0.217817 -0.274992 0.936448 0.298899 -0.306753 0.903638 0.382202 -0.485927 0.786 
0.367969 -0.473282 0.800376 0.422353 -0.474654 0.772219 -0.516501 -0.329771 0.790239 
-0.511263 -0.326459 0.795006 -0.257295 -0.2888 0.922168 -0.145148 -0.243308 0.959027 
-0.158104 -0.107392 0.981565 -0.127441 -0.0510685 0.990531 0.213598 -0.013094 0.976834 
0.208465 -0.0987992 0.973027 0.214683 -0.271022 0.938327 0.463195 -0.472229 0.749967 
0.380347 -0.436058 0.815591 0.57535 -0.492679 0.65287 -0.557954 -0.210883 0.80263 
-0.411747 -0.179774 0.89339 -0.24129 -0.145408 0.959497 -0.0928792 -0.139775 0.985818 
-0.0557121 -0.0416989 0.997576 -0.0805846 0.0385593 0.996002 0.170947 0.147464 0.974182 
0.0503757 -0.0304428 0.998266 0.0348205 -0.199687 0.979241 0.225512 -0.312501 0.922761 
0.601421 -0.48795 0.632612 0.538509 -0.464251 0.703192 -0.610385 -0.0552875 0.790173 
-0.406096 -0.075964 0.910668 -0.217 -0.0727071 0.97346 -0.0400345 -0.0521635 0.997836 
0.0246561 -0.0870226 0.995901 -0.0170367 0.00166161 0.999853 0.13254 -0.0232242 0.990906 
0.102343 -0.0502091 0.993481 -0.125747 -0.0579755 0.990367 -0.0858136 -0.130964 0.987666 
0.0972553 -0.228266 0.968729 0.710919 -0.455053 0.53621 0.371684 -0.35025 0.859753 
0.720685 -0.448455 0.528679 -0.604259 0.0178397 0.796588 -0.400176 0.0124575 0.916353 
-0.217143 0.03078 0.975654 -0.107103 0.0103491 0.994194 -0.0193924 -0.0864889 0.996064 
0.158824 -0.350012 0.923183 -0.0163971 -0.123479 0.992212 -0.148636 -0.092204 0.984584 
0.219528 -0.162013 0.96206 0.752789 -0.378932 0.538257 0.581194 -0.292897 0.759226 
-0.568128 0.0354359 0.822177 -0.382086 0.0440251 0.923078 -0.218561 0.0348936 0.975199 
-0.18253 0.0257775 0.982862 0.0775736 -0.161464 0.983825 0.777684 -0.216514 0.590194 
0.467787 -0.0878735 0.879462 0.788515 -0.130827 0.60094 -0.549752 0.0172825 0.835149 
-0.413539 -0.00122217 0.910486 -0.237198 -0.0396927 0.97065 -0.109309 -0.0680349 0.991677 
-0.0307332 0.0435044 0.99858 -0.138336 0.042358 0.989479 0.416781 -0.0312749 0.908469 
0.784292 -0.0228731 0.61997 0.748922 0.203271 0.630711 0.743519 -0.0194149 0.668433 
-0.594273 0.0461893 0.802936 -0.460057 -0.0102169 0.88783 -0.283661 -0.0628295 0.956864 
-0.107169 -0.00895959 0.994201 0.723745 0.285376 0.628295 0.448403 0.197937 0.87164 
-0.639246 0.123354 0.759044 -0.553765 0.0832157 0.828505 -0.263435 0.0185958 0.964498 
-0.0604065 0.0225373 0.997919 0.15931 0.352415 0.922184 0.313896 0.404477 0.858992 
0.582924 0.518785 0.625349 0.540232 0.571602 0.617592 0.517973 0.516696 0.681711 
-0.629034 0.253742 0.7348 -0.593523 0.408017 0.693724 -0.576172 0.22595 0.785476 
-0.310037 0.204263 0.928522 -0.076391 0.231731 0.969776 0.0205067 0.220215 0.975236 
0.00235831 0.201273 0.979532 -0.0199425 0.295433 0.955155 0.0741808 0.338592 0.938005 
0.152667 0.413864 0.897446 0.284571 0.788759 0.544867 0.20755 0.493662 0.844524 
0.29321 0.740631 0.60456 0.241038 0.65648 0.714797 0.377074 0.735283 0.563182 
0.364076 0.744073 0.560182 0.359709 0.727647 0.584071 -0.507324 0.532993 0.677157 
-0.336964 0.660792 0.670678 -0.292998 0.524597 0.799343 -0.121691 0.745664 0.655116 
-0.0866924 0.504179 0.859237 -0.0213676 0.762631 0.64648 -0.0188158 0.471805 0.881502 
0.0705268 0.776634 0.625991 0.0313683 0.448919 0.893022 0.141058 0.751461 0.644522 
0.0755312 0.539928 0.838315 0.20688 0.768408 0.605598 0.162605 0.624184 0.764169 
0.266366 0.778538 0.568268 0.262118 0.764385 0.589075 0.249447 0.737372 0.627741 
0.0270261 -0.130586 0.991069 -0.0594739 -0.051479 0.996902 0.0959 -0.0375819 0.994681 
0.0187504 -0.0534819 0.998393 0.0251655 0.0580338 0.997997 0.0863757 0.0745205 0.993472 
0.087953 0.0510054 0.994818 0.0783627 0.0675902 0.994631 0.00420806 -0.107958 0.994147 
0.0559757 -0.0361626 0.997777 0.0367316 -0.164688 0.985662 -0.0467026 -0.0601101 0.997099 
-0.0096364 -0.102147 0.994723 -0.00145277 -0.113176 0.993574 -0.017772 -0.0735201 0.997135 
0.0114326 -0.0529649 0.998531 0.128771 -0.296779 0.946224 -0.0169613 -0.048716 0.998669 
0.150968 -0.338274 0.928859 -0.110403 -0.0997695 0.988867 -0.124343 -0.0917576 0.987988 
0.170479 -0.152537 0.973483 -0.000498629 -0.119174 0.992873 0.201557 -0.0747423 0.976621 
-0.132109 0.0288491 0.990815 -0.0411412 0.041584 0.998288 -0.075344 0.0355005 0.996525 
-0.0705348 0.0264422 0.997159 0.0523071 -0.00488113 0.998619 -0.0949827 -0.0937317 0.991056 
0.0711155 -0.159309 0.984664 0.0393729 -0.128699 0.990902 0.00471301 -0.129513 0.991567 
0.0732598 -0.151091 0.985802 -0.081613 -0.0900086 0.992591 0.0226432 -0.0389637 0.998984 
0.202787 -0.0392535 0.978436 0.195011 -0.0392309 0.980016 -0.0992503 -0.0676863 0.992758 
0.0176435 -0.0119404 0.999773 -0.13999 0.026612 0.989795 -0.144585 -0.10483 0.983924 
0.0622874 -0.025953 0.997721 0.0565027 -0.125208 0.99052 -0.023288 -0.0639535 0.997681 
0.0465019 -0.0249087 0.998608 0.2378 -0.0143171 0.971209 0.202008 -0.00455123 0.979373 
-0.128561 -0.0662783 0.989484 -0.0944718 -0.0674688 0.993239 -0.00572964 -0.0279763 0.999592 
0.0384102 -0.0364103 0.998599 -0.116028 -0.00157221 0.993245 -0.162259 0.042984 0.985811 
0.0163542 0.032877 0.999326 0.0480105 0.00669316 0.998824 0.0186353 0.0595704 0.99805 
0.15345 0.332152 0.93066 0.0869158 0.0968262 0.991499 0.198283 0.178255 0.963799 
0.178087 0.192801 0.964942 0.170492 0.177475 0.969245 -0.124238 0.0351023 0.991631 
-0.0785337 0.135927 0.987601 -0.0807892 0.0415704 0.995864 -0.0389978 0.0250999 0.998924 
0.0251304 0.10968 0.993649 0.0295363 0.0328936 0.999022 -0.0636851 0.0304361 0.997506 
-0.0426183 0.257063 0.965454 -0.106307 0.142589 0.984056 0.0652448 0.303726 0.950523 
0.0257058 0.158188 0.987074 0.108892 0.265082 0.958058 0.0856573 0.198501 0.97635 
0.120922 0.318605 0.940143 0.0674363 0.276053 0.958774 0.0612475 0.265622 0.96213 

