# vtk DataFile Version 4.2
vtk output
ASCII
DATASET POLYDATA
POINTS 508 float
-11.2758 -34.205 -17.639 -4.14435 -34.205 -18.7153 2.98714 -34.205 -19.1683 
10.1186 -34.205 -19.0325 17.2501 -34.205 -17.9151 -18.4073 -27.0735 -20.1926 
-11.2758 -27.0735 -21.8718 -4.14435 -27.0735 -22.7651 2.98714 -27.0735 -22.9879 
10.1186 -27.0735 -22.8433 17.2501 -27.0735 -21.9258 24.3816 -27.0735 -20.1205 
-25.5388 -19.9421 -20.1121 -18.4073 -19.9421 -22.3288 -11.2758 -19.9421 -23.6396 
-4.14435 -19.9421 -24.3623 2.98714 -19.9421 -24.5047 10.1186 -19.9421 -24.0274 
17.2501 -19.9421 -23.5943 24.3816 -19.9421 -22.57 31.5131 -19.9421 -19.2716 
-32.6703 -12.8106 -18.0767 -25.5388 -12.8106 -20.9209 -18.4073 -12.8106 -22.8791 
-11.2758 -12.8106 -23.9391 -4.14435 -12.8106 -24.3518 2.98714 -12.8106 -24.3745 
10.1186 -12.8106 -24.3357 17.2501 -12.8106 -24.148 24.3816 -12.8106 -23.6231 
31.5131 -12.8106 -20.9593 -32.6703 -5.67908 -17.9893 -25.5388 -5.67908 -20.2872 
-18.4073 -5.67908 -22.2878 -11.2758 -5.67908 -23.6558 -4.14435 -5.67908 -22.9559 
2.98714 -5.67908 -23.4366 10.1186 -5.67908 -24.6066 17.2501 -5.67908 -24.1301 
24.3816 -5.67908 -22.9714 31.5131 -5.67908 -20.9393 -25.5388 1.45241 -18.2767 
-18.4073 1.45241 -19.7666 -11.2758 1.45241 -21.7228 -4.14435 1.45241 -21.464 
2.98714 1.45241 -23.2398 10.1186 1.45241 -24.555 17.2501 1.45241 -23.1378 
24.3816 1.45241 -21.948 31.5131 1.45241 -20.4859 -11.2758 8.58389 -18.104 
-4.14435 8.58389 -20.5332 2.98714 8.58389 -22.3883 10.1186 8.58389 -21.9866 
17.2501 8.58389 -21.1615 24.3816 8.58389 -21.1177 31.5131 8.58389 -19.6171 
-4.14435 15.7154 -18.3554 2.98714 15.7154 -18.8521 10.1186 15.7154 -18.6705 
17.2501 15.7154 -19.5495 24.3816 15.7154 -19.9141 31.5131 15.7154 -18.7152 
-11.2758 -34.2325 -17.6133 -4.14435 -35.3431 -17.6133 2.98714 -35.8004 -17.6133 
10.1186 -35.7412 -17.6133 17.2501 -34.5038 -17.6133 -11.3657 -34.205 -17.6133 
-18.4073 -31.2035 -17.6133 -18.4073 -34.205 -14.7681 17.9943 -34.205 -17.6133 
24.3816 -30.7134 -17.6133 24.3816 -34.205 -12.8577 -24.89 -27.0735 -17.6133 
-25.5388 -26.4154 -17.6133 -25.5388 -27.0735 -17.2605 28.5783 -27.0735 -17.6133 
31.5131 -23.3293 -17.6133 31.5131 -27.0735 -13.7253 -30.2759 -19.9421 -17.6133 
-32.6703 -14.7956 -17.6133 -32.6703 -19.9421 -15.9109 33.3749 -19.9421 -17.6133 
-33.4096 -12.8106 -17.6133 -39.8018 -12.8106 -11.6984 36.3249 -12.8106 -17.6133 
38.6446 -12.8106 -14.593 -33.3577 -5.67908 -17.6133 -39.8018 -5.67908 -13.4223 
-32.6703 -3.43429 -17.6133 37.1823 -5.67908 -17.6133 38.6446 -5.67908 -16.2749 
-39.8018 1.45241 -13.268 -28.7375 1.45241 -17.6133 -32.6703 1.45241 -16.8174 
-25.5388 5.23474 -17.6133 -18.4073 8.22414 -17.6133 36.9995 1.45241 -17.6133 
38.6446 1.45241 -16.527 -39.8018 8.58389 -12.7658 -32.6703 8.58389 -15.7693 
-25.5388 8.58389 -17.0734 -17.0595 8.58389 -17.6133 -18.4073 8.58389 -17.5145 
-11.2758 11.6515 -17.6133 36.3969 8.58389 -17.6133 38.6446 8.58389 -16.4272 
-39.8018 15.7154 -11.1383 -32.6703 15.7154 -14.9895 -25.5388 15.7154 -16.3145 
-18.4073 15.7154 -16.7958 -8.0967 15.7154 -17.6133 -11.2758 15.7154 -17.0497 
-4.14435 18.5642 -17.6133 2.98714 19.0105 -17.6133 10.1186 19.1811 -17.6133 
17.2501 21.2497 -17.6133 24.3816 22.4936 -17.6133 33.94 15.7154 -17.6133 
31.5131 18.5894 -17.6133 38.6446 15.7154 -14.54 -32.6703 22.8469 -13.6932 
-25.5388 22.8469 -15.4492 -18.4073 22.8469 -16.0741 -11.2758 22.8469 -16.5284 
-4.14435 22.8469 -16.563 2.98714 22.8469 -16.2918 10.1186 22.8469 -16.466 
17.2501 22.8469 -17.0165 24.3816 22.8469 -17.4732 31.5131 22.8469 -15.5849 
-25.5388 29.9784 -12.5053 -18.4073 29.9784 -13.7117 -11.2758 29.9784 -14.2656 
-4.14435 29.9784 -14.2774 2.98714 29.9784 -13.745 10.1186 29.9784 -13.2203 
17.2501 29.9784 -12.9934 24.3816 29.9784 -12.4674 -18.4073 -37.049 -10.4818 
-11.2758 -39.0233 -10.4818 -4.14435 -39.7677 -10.4818 2.98714 -40.0149 -10.4818 
2.98714 -41.3365 -3.49802 10.1186 -39.7051 -10.4818 17.2501 -38.4081 -10.4818 
24.3816 -35.4198 -10.4818 -23.5875 -34.205 -10.4818 -25.5388 -32.9457 -10.4818 
-25.5388 -34.205 -3.4533 26.06 -34.205 -10.4818 31.5131 -29.0173 -10.4818 
-31.8221 -27.0735 -10.4818 -32.6703 -26.0709 -10.4818 -32.6703 -27.0735 -5.42852 
33.0886 -27.0735 -10.4818 -37.2105 -19.9421 -10.4818 -39.8018 -14.7627 -10.4818 
37.4133 -19.9421 -10.4818 38.6446 -17.3498 -10.4818 -40.6881 -12.8106 -10.4818 
40.7727 -12.8106 -10.4818 -42.5426 -5.67908 -10.4818 42.6739 -5.67908 -10.4818 
-42.9797 1.45241 -10.4818 43.7523 1.45241 -10.4818 45.7761 1.45241 -5.34586 
-42.533 8.58389 -10.4818 43.7686 8.58389 -10.4818 45.7761 8.58389 -5.93169 
-40.5742 15.7154 -10.4818 -39.8018 17.5153 -10.4818 42.3117 15.7154 -10.4818 
38.6446 22.3958 -10.4818 -37.2817 22.8469 -10.4818 -39.8018 22.8469 -7.14426 
-32.6703 28.1651 -10.4818 38.3285 22.8469 -10.4818 31.5131 28.4383 -10.4818 
38.6446 22.8469 -9.91231 -30.0036 29.9784 -10.4818 -32.6703 29.9784 -8.44188 
-25.5388 32.6392 -10.4818 -18.4073 34.2938 -10.4818 -11.2758 35.4016 -10.4818 
-4.14435 35.6129 -10.4818 2.98714 34.6373 -10.4818 10.1186 33.4621 -10.4818 
17.2501 32.7038 -10.4818 28.3362 29.9784 -10.4818 24.3816 31.621 -10.4818 
31.5131 29.9784 -7.11755 -18.4073 37.1098 -6.76718 -11.2758 37.1098 -8.44981 
-4.14435 37.1098 -8.79881 2.98714 37.1098 -7.6511 10.1186 37.1098 -5.98861 
17.2501 37.1098 -3.49691 2.98714 -41.3629 -3.35032 -25.5388 -34.2225 -3.35032 
-18.4073 -38.4682 -3.35032 -11.2758 -40.5578 -3.35032 0.472193 -41.3365 -3.35032 
-4.14435 -41.2884 -3.35032 3.24746 -41.3365 -3.35032 2.98714 -41.3365 -3.03323 
10.1186 -40.6643 -3.35032 17.2501 -39.1373 -3.35032 24.3816 -35.8305 -3.35032 
-25.5594 -34.205 -3.35032 -32.6703 -27.4206 -3.35032 -25.5388 -34.205 -3.16802 
26.5091 -34.205 -3.35032 24.3816 -34.205 3.29902 31.5131 -29.1945 -3.35032 
-32.9911 -27.0735 -3.35032 -32.6703 -27.0735 -0.368373 33.2393 -27.0735 -3.35032 
-38.5022 -19.9421 -3.35032 -39.8018 -17.8622 -3.35032 37.9494 -19.9421 -3.35032 
38.6446 -18.694 -3.35032 -42.6928 -12.8106 -3.35032 41.7892 -12.8106 -3.35032 
-45.3163 -5.67908 -3.35032 44.7203 -5.67908 -3.35032 45.7761 -1.45151 -3.35032 
-46.5944 1.45241 -3.35032 -46.9333 1.45241 2.90846 46.4668 1.45241 -3.35032 
-46.4904 8.58389 -3.35032 46.7416 8.58389 -3.35032 45.7761 13.8012 -3.35032 
-44.9471 15.7154 -3.35032 45.385 15.7154 -3.35032 45.7761 15.7154 0.952182 
-42.0002 22.8469 -3.35032 -39.8018 26.0638 -3.35032 41.3404 22.8469 -3.35032 
38.6446 25.956 -3.35032 -36.447 29.9784 -3.35032 -32.6703 33.0625 -3.35032 
-25.5388 36.9456 -3.35032 24.3816 34.862 -3.35032 33.713 29.9784 -3.35032 
31.5131 31.4527 -3.35032 -24.9958 37.1098 -3.35032 -25.5388 37.1098 -0.379376 
-18.4073 38.8873 -3.35032 -11.2758 39.929 -3.35032 -4.14435 40.2262 -3.35032 
2.98714 39.6329 -3.35032 10.1186 38.6999 -3.35032 17.4787 37.1098 -3.35032 
17.2501 37.1827 -3.35032 -18.4073 -38.1065 3.78116 -11.2758 -40.322 3.78116 
-4.14435 -41.0096 3.78116 2.98714 -40.7538 3.78116 10.1186 -39.8154 3.78116 
17.2501 -37.714 3.78116 -24.6599 -34.205 3.78116 -25.5388 -33.563 3.78116 
24.1571 -34.205 3.78116 17.2501 -34.205 10.1138 24.3816 -34.057 3.78116 
31.5131 -27.2961 3.78116 -32.2426 -27.0735 3.78116 -32.6703 -26.5725 3.78116 
31.7018 -27.0735 3.78116 31.5131 -27.0735 4.12954 -37.9154 -19.9421 3.78116 
-39.8018 -17.0498 3.78116 36.6748 -19.9421 3.78116 38.6446 -16.9004 3.78116 
-42.3299 -12.8106 3.78116 41.2132 -12.8106 3.78116 38.6446 -12.8106 9.8407 
-45.2887 -5.67908 3.78116 -46.9333 1.25289 3.78116 44.8083 -5.67908 3.78116 
45.7761 -2.61643 3.78116 -46.9787 1.45241 3.78116 -46.9333 2.81798 3.78116 
-46.9333 1.45241 3.92937 46.9856 1.45241 3.78116 45.7761 1.45241 8.23196 
-46.7432 8.58389 3.78116 47.4131 8.58389 3.78116 45.7761 8.58389 10.0794 
-45.3479 15.7154 3.78116 46.0239 15.7154 3.78116 45.7761 16.1976 3.78116 
45.7761 15.7154 4.81034 -42.3182 22.8469 3.78116 -39.8018 26.4834 3.78116 
-39.8018 22.8469 10.1413 41.8282 22.8469 3.78116 38.6446 26.5081 3.78116 
-36.7652 29.9784 3.78116 -32.6703 33.3312 3.78116 24.3816 35.8342 3.78116 
34.5969 29.9784 3.78116 31.5131 32.1219 3.78116 -25.95 37.1098 3.78116 
-25.5388 37.3129 3.78116 -25.5388 37.1098 4.37394 -18.4073 39.3366 3.78116 
-18.4073 37.1098 9.97812 -11.2758 40.4109 3.78116 -4.14435 40.7422 3.78116 
2.98714 40.4804 3.78116 10.1186 39.7825 3.78116 20.683 37.1098 3.78116 
17.2501 38.2505 3.78116 17.2501 37.1098 8.20026 -18.4073 -35.7138 10.9127 
-11.2758 -38.1304 10.9127 -4.14435 -38.6849 10.9127 2.98714 -37.8504 10.9127 
10.1186 -36.2453 10.9127 -20.9361 -34.205 10.9127 -25.5388 -30.9841 10.9127 
-18.4073 -34.205 13.0016 -11.2758 -34.205 15.8124 -4.14435 -34.205 16.1548 
2.98714 -34.205 14.9583 15.8249 -34.205 10.9127 10.1186 -34.205 13.0618 
17.2501 -33.5737 10.9127 24.3816 -29.0265 10.9127 -29.6826 -27.0735 10.9127 
-32.6703 -23.6483 10.9127 -25.5388 -27.0735 15.5485 10.1186 -27.0735 17.612 
17.2501 -27.0735 15.9457 26.5237 -27.0735 10.9127 24.3816 -27.0735 12.5869 
31.5131 -21.6185 10.9127 -35.5655 -19.9421 10.9127 -39.8018 -13.0482 10.9127 
-32.6703 -19.9421 14.6577 24.3816 -19.9421 16.704 32.8472 -19.9421 10.9127 
31.5131 -19.9421 12.2541 -39.9355 -12.8106 10.9127 -39.8018 -12.8106 11.1141 
38.0628 -12.8106 10.9127 31.5131 -12.8106 16.1926 38.6446 -11.9787 10.9127 
-42.8933 -5.67908 10.9127 -39.8018 -5.67908 15.0816 42.3307 -5.67908 10.9127 
38.6446 -5.67908 14.9354 -44.504 1.45241 10.9127 -39.8018 1.45241 16.8502 
44.8551 1.45241 10.9127 38.6446 1.45241 16.7908 -44.6106 8.58389 10.9127 
-39.8018 8.58389 17.1352 45.5011 8.58389 10.9127 38.6446 8.58389 17.2622 
-43.0066 15.7154 10.9127 -39.8018 22.2198 10.9127 -39.8018 15.7154 15.3306 
44.0017 15.7154 10.9127 38.6446 15.7154 16.6399 -39.4414 22.8469 10.9127 
-32.6703 22.8469 17.8299 31.5131 22.8469 17.2891 39.7286 22.8469 10.9127 
38.6446 24.1321 10.9127 38.6446 22.8469 12.2071 -32.9657 29.9784 10.9127 
-32.6703 30.2145 10.9127 -32.6703 29.9784 11.1945 -25.5388 34.447 10.9127 
-25.5388 29.9784 16.0557 -18.4073 36.7048 10.9127 -18.4073 29.9784 17.89 
-4.14435 29.9784 17.2878 2.98714 29.9784 17.3213 10.1186 29.9784 17.5955 
[...]
POINT_DATA 508
SCALARS ImageScalars float
LOOKUP_TABLE default
0 0 0 0 0 0 0 0 0 
0 0 0 0 0 0 0 0 0 
0 0 0 0 0 0 0 0 0 
0 0 0 0 0 0 0 0 0 
0 0 0 0 0 0 0 0 0 
0 0 0 0 0 0 0 0 0 
0 0 0 0 0 0 0 0 0 
0 0 0 0 0 0 0 0 0 
0 0 0 0 0 0 0 0 0 
0 0 0 0 0 0 0 0 0 
0 0 0 0 0 0 0 0 0 
0 0 0 0 0 0 0 0 0 
0 0 0 0 0 0 0 0 0 
0 0 0 0 0 0 0 0 0 
0 0 0 0 0 0 0 0 0 
0 0 0 0 0 0 0 0 0 
0 0 0 0 0 0 0 0 0 
0 0 0 0 0 0 0 0 0 
0 0 0 0 0 0 0 0 0 
0 0 0 0 0 0 0 0 0 
0 0 0 0 0 0 0 0 0 
0 0 0 0 0 0 0 0 0 
0 0 0 0 0 0 0 0 0 
0 0 0 0 0 0 0 0 0 
0 0 0 0 0 0 0 0 0 
0 0 0 0 0 0 0 0 0 
0 0 0 0 0 0 0 0 0 
0 0 0 0 0 0 0 0 0 
0 0 0 0 0 0 0 0 0 
0 0 0 0 0 0 0 0 0 
0 0 0 0 0 0 0 0 0 
0 0 0 0 0 0 0 0 0 
0 0 0 0 0 0 0 0 0 
0 0 0 0 0 0 0 0 0 
0 0 0 0 0 0 0 0 0 
0 0 0 0 0 0 0 0 0 
0 0 0 0 0 0 0 0 0 
0 0 0 0 0 0 0 0 0 
0 0 0 0 0 0 0 0 0 
0 0 0 0 0 0 0 0 0 
0 0 0 0 0 0 0 0 0 
0 0 0 0 0 0 0 0 0 
0 0 0 0 0 0 0 0 0 
0 0 0 0 0 0 0 0 0 
0 0 0 0 0 0 0 0 0 
0 0 0 0 0 0 0 0 0 
0 0 0 0 0 0 0 0 0 
0 0 0 0 0 0 0 0 0 
0 0 0 0 0 0 0 0 0 
0 0 0 0 0 0 0 0 0 
0 0 0 0 0 0 0 0 0 
0 0 0 0 0 0 0 0 0 
0 0 0 0 0 0 0 0 0 
0 0 0 0 0 0 0 0 0 
0 0 0 0 0 0 0 0 0 
0 0 0 0 0 0 0 0 0 
0 0 0 0 
NORMALS Normals float
0.176969 0.669187 0.721713 0.0885494 0.659455 0.746511 0.0180255 0.651251 0.758648 
-0.0731446 0.633084 0.770619 -0.231554 0.689234 0.686542 0.283779 0.387653 0.877037 
0.159756 0.35645 0.920555 0.0750759 0.337045 0.93849 0.00530359 0.319796 0.947471 
-0.0707603 0.30187 0.950719 -0.169463 0.342479 0.924116 -0.364801 0.459507 0.809798 
0.362593 0.219799 0.905657 0.223128 0.165659 0.96061 0.134865 0.138653 0.981115 
0.0588541 0.104376 0.992795 -0.023605 0.0921945 0.995461 -0.0627271 0.0974976 0.993257 
-0.099934 0.149151 0.983752 -0.261569 0.217563 0.940345 -0.595956 0.299094 0.745237 
0.477251 0.0982183 0.873261 0.317476 0.00963612 0.948217 0.202306 -0.00388832 0.979315 
0.101172 0.000332554 0.994869 0.0302883 -0.0937568 0.995134 -0.00112678 -0.0719052 0.997411 
-0.015808 0.0404123 0.999058 -0.0476851 0.0368986 0.998181 -0.195931 0.0268315 0.980251 
-0.460889 0.099581 0.881853 0.400892 -0.0844704 0.912223 0.280206 -0.169348 0.944884 
0.224486 -0.194091 0.954953 0.0446685 -0.140759 0.989036 -0.0169999 -0.206197 0.978363 
0.116779 -0.0802286 0.989912 0.045739 0.015506 0.998833 -0.112661 -0.0665937 0.991399 
-0.21274 -0.11167 0.970707 -0.376622 -0.0305706 0.925863 0.187295 -0.211627 0.959236 
0.22467 -0.340686 0.912938 0.102425 -0.363742 0.925852 0.0970864 -0.160809 0.982199 
0.221924 -0.0711338 0.972466 -0.00955547 -0.160719 0.986954 -0.179657 -0.203893 0.962367 
-0.172121 -0.12652 0.976917 -0.324119 -0.0869784 0.942009 0.204948 -0.307053 0.929362 
0.270811 -0.210568 0.93932 0.0988219 -0.281098 0.954577 -0.0840728 -0.406422 0.909809 
-0.0535577 -0.243463 0.96843 -0.0997905 -0.142481 0.984754 -0.292628 -0.120987 0.948541 
0.122784 -0.268718 0.955361 0.0205643 -0.405848 0.913709 0.05014 -0.347823 0.936219 
0.0833371 -0.261759 0.961529 -0.0572768 -0.23665 0.969905 -0.295778 -0.233365 0.926313 
0.177024 0.670314 0.720654 0.086232 0.709492 0.699418 0.022303 0.725907 0.687431 
-0.0768786 0.711075 0.6989 -0.234221 0.702358 0.672186 0.178813 0.669722 0.720763 
0.315153 0.56777 0.760471 0.347649 0.743645 0.571079 -0.255686 0.697234 0.669694 
-0.426465 0.608494 0.669225 -0.499676 0.78535 0.365444 0.436866 0.465148 0.769926 
0.445582 0.448371 0.774868 0.460031 0.480419 0.746705 -0.555357 0.523888 0.645848 
-0.644084 0.420403 0.639075 -0.724585 0.580408 0.371623 0.512189 0.298829 0.80521 
0.508704 0.163776 0.84522 0.624528 0.372495 0.686449 -0.672642 0.336035 0.659267 
0.499087 0.109223 0.859641 0.810463 0.285415 0.511554 -0.688608 0.196234 0.698077 
-0.826863 0.272913 0.491747 0.41905 -0.0752702 0.904838 0.685113 0.0697867 0.725086 
0.369577 -0.103839 0.92338 -0.636483 0.0312707 0.770656 -0.726781 0.0710347 0.683186 
0.592874 -0.0401582 0.804293 0.235779 -0.180653 0.954868 0.308762 -0.142686 0.940376 
0.147219 -0.171403 0.974139 0.0727818 -0.193903 0.978317 -0.549464 -0.0238783 0.835176 
-0.634833 0.00584948 0.772627 0.559463 -0.133852 0.817976 0.275022 -0.122851 0.953557 
0.11741 -0.136714 0.983628 0.090365 -0.208609 0.973815 0.065023 -0.185607 0.98047 
0.163044 -0.21765 0.962312 -0.478915 -0.101148 0.872015 -0.592003 -0.100243 0.799677 
0.619626 -0.246574 0.745161 0.325778 -0.136222 0.935581 0.122481 -0.110128 0.986342 
0.0511331 -0.0981849 0.993854 0.113604 -0.176014 0.97781 0.105551 -0.102827 0.989083 
0.0632635 -0.264586 0.962285 0.0110231 -0.364688 0.931064 0.0545299 -0.34006 0.938821 
0.0728872 -0.375604 0.92391 -0.0741518 -0.412511 0.90793 -0.390373 -0.245398 0.887349 
-0.30682 -0.33171 0.892093 -0.634819 -0.287022 0.717372 0.404114 -0.324749 0.85512 
0.159834 -0.238253 0.957961 0.0736256 -0.195325 0.977971 0.0357636 -0.185715 0.981953 
-0.0159978 -0.263922 0.964411 -0.00743376 -0.321302 0.946948 0.048018 -0.345347 0.937246 
0.0645469 -0.409821 0.909879 -0.0763883 -0.423955 0.902456 -0.34683 -0.51393 0.784592 
0.257776 -0.542781 0.799338 0.110842 -0.478327 0.871159 0.0352753 -0.439492 0.897554 
-0.0332585 -0.434537 0.90004 -0.0667186 -0.461214 0.884777 -0.0474611 -0.535754 0.843039 
-0.0411787 -0.629797 0.775668 -0.199457 -0.734168 0.64901 0.344896 0.866963 0.359753 
0.168719 0.917046 0.361333 0.0649131 0.935326 0.347782 -0.00527318 0.944826 0.327531 
-0.0445958 0.997604 0.0528919 -0.10511 0.954424 0.279334 -0.271429 0.922496 0.274458 
-0.499927 0.831513 0.242198 0.50552 0.791691 0.343037 0.56466 0.75236 0.339284 
0.609291 0.792268 0.0328043 -0.562889 0.791781 0.237148 -0.747839 0.63205 0.2031 
0.702498 0.632657 0.325948 0.720988 0.609016 0.330569 0.744016 0.660493 0.100946 
-0.782925 0.589304 0.199369 0.806353 0.465534 0.364792 0.837344 0.346062 0.423198 
-0.859931 0.450033 0.24081 -0.877975 0.404444 0.256095 0.842393 0.306733 0.443045 
-0.900367 0.323078 0.291478 0.813963 0.140996 0.563546 -0.891779 0.188046 0.411544 
0.747111 0.00235575 0.664695 -0.86674 0.0677656 0.494136 -0.953705 0.118869 0.276256 
0.702405 -0.129412 0.699915 -0.848175 -0.0791432 0.52377 -0.942852 -0.07003 0.325769 
0.652685 -0.255131 0.71338 0.65111 -0.28914 0.701751 -0.798159 -0.307671 0.517958 
-0.700303 -0.532575 0.47533 0.626666 -0.391697 0.673694 0.769524 -0.452033 0.451109 
0.477581 -0.577814 0.661851 -0.687447 -0.549341 0.475017 -0.440868 -0.739631 0.50851 
-0.703911 -0.552977 0.445786 0.406116 -0.622381 0.669113 0.511462 -0.683856 0.520335 
0.290694 -0.657184 0.695418 0.130514 -0.682029 0.719585 0.0619972 -0.688565 0.722519 
-0.0351836 -0.680443 0.731956 -0.101955 -0.659012 0.74519 -0.0954354 -0.662742 0.742741 
-0.104152 -0.732436 0.672823 -0.346225 -0.777143 0.525526 -0.233879 -0.795752 0.558641 
-0.475005 -0.807774 0.349101 0.173853 -0.870149 0.461102 0.0749414 -0.813165 0.577189 
-0.0330555 -0.788485 0.614165 -0.11431 -0.82125 0.559 -0.153867 -0.861505 0.483875 
-0.248176 -0.91596 0.315318 -0.0452814 0.997844 0.0475053 0.609518 0.792252 0.0287203 
0.378549 0.923491 0.0621783 0.185105 0.979318 0.0816862 -0.00969754 0.998216 0.0589107 
0.0552456 0.995296 0.0795883 -0.0491919 0.997715 0.0463149 -0.0467048 0.998245 0.0364096 
-0.150178 0.988598 0.010992 -0.310483 0.949632 -0.0424154 -0.546927 0.833384 -0.0796373 
0.609983 0.791897 0.0286256 0.744073 0.667912 0.0157471 0.61019 0.791896 0.0238456 
-0.617246 0.782118 -0.0854346 -0.552698 0.770645 -0.317225 -0.760737 0.643681 -0.0833926 
0.74844 0.66301 0.0159797 0.745803 0.663894 -0.0549751 -0.793626 0.603346 -0.0783061 
0.828734 0.558447 0.0365595 0.852006 0.520723 0.0541538 -0.860911 0.507321 -0.0381738 
-0.869269 0.493667 -0.0257696 0.903081 0.418348 0.097107 -0.902181 0.43033 0.0297673 
0.955989 0.250784 0.152289 -0.942244 0.30732 0.133158 -0.96299 0.204182 0.175957 
0.973991 0.0804055 0.211843 0.991481 0.0963934 -0.0875984 -0.97028 0.132304 0.202613 
0.969714 -0.110336 0.217901 -0.971388 -0.0692045 0.227193 -0.942479 -0.256952 0.213795 
0.926732 -0.280883 0.249546 -0.921986 -0.326586 0.208044 -0.939375 -0.340704 0.038663 
0.842418 -0.478597 0.247541 0.781605 -0.576537 0.238117 -0.790529 -0.583273 0.186696 
-0.712083 -0.677404 0.184558 0.662364 -0.711778 0.233764 0.548373 -0.802433 0.235347 
0.359501 -0.906437 0.221656 -0.34425 -0.90358 0.255021 -0.552351 -0.810217 0.196102 
-0.497619 -0.843336 0.202878 0.347167 -0.910672 0.223945 0.371109 -0.926009 0.0691809 
0.202476 -0.94284 0.26468 0.0908543 -0.957648 0.273232 -0.019678 -0.959408 0.281335 
-0.103456 -0.943093 0.316027 -0.168399 -0.923016 0.345954 -0.252822 -0.917351 0.307487 
-0.249868 -0.917649 0.309009 0.396804 0.903244 -0.163392 0.190499 0.970128 -0.150205 
0.0300626 0.987004 -0.15786 -0.0788431 0.974177 -0.211575 -0.198086 0.945223 -0.259452 
-0.351206 0.882194 -0.313669 0.598814 0.783907 -0.164047 0.622452 0.765258 -0.164116 
-0.54456 0.768948 -0.334922 -0.358573 0.730381 -0.581351 -0.551125 0.764321 -0.334776 
-0.726436 0.616443 -0.303791 0.734952 0.659841 -0.156381 0.741417 0.652651 -0.156037 
-0.729827 0.612926 -0.302779 -0.724454 0.613021 -0.315234 0.806679 0.569408 -0.158249 
0.836922 0.523816 -0.158675 -0.801404 0.539659 -0.257915 -0.818684 0.526459 -0.229341 
0.878505 0.449984 -0.160448 -0.844984 0.498333 -0.194076 -0.731488 0.498651 -0.465051 
0.943608 0.297791 -0.144652 0.986311 0.103518 -0.128351 -0.921753 0.365382 -0.129876 
-0.954517 0.277289 -0.10958 0.986933 0.0978528 -0.128012 0.990419 0.0578988 -0.125372 
0.986053 0.0980884 -0.134458 -0.981937 0.166065 -0.0906787 -0.92902 0.178504 -0.324127 
0.98774 -0.108096 -0.112624 -0.995333 -0.0605743 -0.0751193 -0.907225 -0.049573 -0.417714 
0.952182 -0.283364 -0.114252 -0.935663 -0.345455 -0.0720833 -0.929474 -0.36176 -0.0721625 
-0.930726 -0.34434 -0.123206 0.860447 -0.491533 -0.134258 0.789254 -0.600369 -0.128979 
0.768965 -0.473878 -0.429106 -0.800839 -0.59358 -0.0794916 -0.717312 -0.692628 -0.0756907 
0.68033 -0.720508 -0.134237 0.56097 -0.816633 -0.135732 -0.38164 -0.923633 -0.0353975 
-0.601585 -0.796345 -0.0626843 -0.532188 -0.844721 -0.0567687 0.383228 -0.913138 -0.138979 
0.373324 -0.917142 -0.139568 0.371671 -0.913208 -0.167067 0.213873 -0.968296 -0.129078 
0.196597 -0.874696 -0.443008 0.0956297 -0.986325 -0.13423 0.00517625 -0.990036 -0.140716 
-0.0673416 -0.991133 -0.114541 -0.154056 -0.985198 -0.0751734 -0.318524 -0.946998 -0.0416671 
-0.263878 -0.963384 -0.0475384 -0.235174 -0.93263 -0.273668 0.385886 0.807375 -0.446361 
0.176357 0.869258 -0.461833 -0.0147457 0.871508 -0.490159 -0.144082 0.825424 -0.545817 
-0.237833 0.763013 -0.601037 0.45961 0.771039 -0.440746 0.578961 0.696729 -0.423524 
0.378782 0.75295 -0.538136 0.138927 0.680265 -0.71968 -0.0477538 0.629103 -0.775854 
-0.16584 0.64698 -0.744254 -0.334279 0.714735 -0.614338 -0.239467 0.677232 -0.695709 
-0.354342 0.699853 -0.620199 -0.494858 0.619 -0.609881 0.655566 0.635465 -0.407943 
0.707124 0.581124 -0.402829 0.505049 0.57307 -0.64538 -0.194245 0.382942 -0.903119 
-0.285946 0.462565 -0.839207 -0.542965 0.586252 -0.601247 -0.476592 0.565515 -0.673092 
-0.638945 0.526663 -0.560692 0.747465 0.525284 -0.406661 0.804323 0.415352 -0.424907 
0.651303 0.494559 -0.575513 -0.351493 0.379209 -0.855951 -0.656461 0.515159 -0.551063 
-0.614081 0.496251 -0.61371 0.805702 0.411849 -0.425705 0.801965 0.410306 -0.434167 
-0.699373 0.488229 -0.522025 -0.459373 0.332134 -0.82381 -0.708784 0.481127 -0.515889 
0.849616 0.269422 -0.453393 0.72747 0.243972 -0.641299 -0.782741 0.375079 -0.496622 
-0.587727 0.33186 -0.737866 0.87812 0.104808 -0.46682 0.671295 0.096075 -0.734937 
-0.852637 0.178504 -0.491067 -0.511951 0.123712 -0.85006 0.890169 -0.0921967 -0.446204 
0.659173 -0.0680369 -0.748907 -0.881364 -0.0470788 -0.470086 -0.494896 -0.00420615 -0.868942 
0.845327 -0.291611 -0.447643 0.760825 -0.452951 -0.464738 0.70742 -0.285658 -0.646495 
-0.828235 -0.320652 -0.459575 -0.555673 -0.234926 -0.79752 0.749202 -0.469785 -0.466903 
0.457736 -0.441355 -0.771805 -0.370488 -0.429603 -0.823516 -0.709986 -0.557719 -0.429965 
-0.683322 -0.590164 -0.429857 -0.666743 -0.548515 -0.504565 0.534962 -0.694114 -0.481685 
0.527282 -0.699982 -0.481663 0.525116 -0.692611 -0.494513 0.340928 -0.801928 -0.490591 
0.306073 -0.628836 -0.714762 0.19084 -0.847303 -0.495639 0.104712 -0.553462 -0.826266 
-0.0479668 -0.4662 -0.883378 0.0188944 -0.462305 -0.886519 0.0196466 -0.469863 -0.882521 
-0.203687 -0.877411 -0.434351 -0.0884121 -0.511982 -0.854434 -0.338872 -0.840186 -0.423383 
-0.295167 -0.61821 -0.728486 -0.533308 -0.739257 -0.411196 -0.522799 -0.747121 -0.410478 
-0.520446 -0.734209 -0.435974 0.146046 -0.851566 -0.503494 0.0737175 -0.850487 -0.520804 
0.0700716 -0.8286 -0.555439 0.00475167 -0.831504 -0.555498 0.00337126 -0.79587 -0.605458 
-0.0271779 -0.840105 -0.541743 -0.0231697 -0.812048 -0.583131 -0.13293 -0.874381 -0.466677 
-0.0925373 -0.867242 -0.489213 -0.0873716 -0.850778 -0.518211 0.268122 0.488375 -0.830422 
0.0924736 0.505716 -0.85773 -0.0621975 0.465015 -0.883115 -0.150863 0.410662 -0.89922 
0.322952 0.472531 -0.82001 0.410587 0.425308 -0.806555 0.247331 0.434124 -0.866235 
0.0515899 0.33707 -0.940065 -0.0727328 0.321734 -0.944032 -0.179153 0.36552 -0.9134 
-0.144168 0.326545 -0.934122 -0.179944 0.353007 -0.918154 -0.219337 0.336212 -0.915889 
0.461597 0.381974 -0.80064 0.513474 0.322784 -0.795081 0.35217 0.321904 -0.878837 
0.128931 0.220488 -0.966831 -0.0036949 0.156318 -0.9877 -0.0789464 0.128609 -0.988548 
-0.107925 0.148451 -0.983013 -0.116372 0.248587 -0.961594 -0.248827 0.324577 -0.912543 
-0.196321 0.29735 -0.934367 -0.302459 0.288934 -0.908315 0.520404 0.290166 -0.803108 
0.4799 0.274488 -0.833278 0.23824 0.164369 -0.957196 0.073167 0.0949477 -0.99279 
-0.0385317 0.0937023 -0.994854 -0.0780879 0.0619626 -0.995019 -0.0318937 0.0680647 -0.997171 
-0.0408805 0.179227 -0.982958 -0.154425 0.179298 -0.971599 -0.337194 0.252948 -0.906817 
-0.275588 0.214637 -0.937007 -0.316649 0.221296 -0.922367 0.549974 0.186042 -0.814197 
0.400425 0.15902 -0.902426 0.160027 0.086567 -0.983309 0.0628227 0.050767 -0.996733 
-0.0372121 0.0558913 -0.997743 -0.10864 0.0443726 -0.99309 0.0109815 0.0364466 -0.999275 
-0.000850669 0.051474 -0.998674 -0.155841 0.0333416 -0.987219 -0.212477 0.103752 -0.971642 
-0.318496 0.215376 -0.923133 -0.296431 0.206428 -0.932479 0.58445 0.0871236 -0.806739 
0.344867 0.0643723 -0.936442 0.122646 0.0628889 -0.990456 0.0410922 0.0105029 -0.9991 
-0.045474 -0.0402896 -0.998153 -0.0978859 -0.00281042 -0.995194 -0.0224499 0.0634988 -0.997729 
-0.0434965 -0.0470725 -0.997944 -0.108835 -0.0393185 -0.993282 -0.107263 0.0553185 -0.992691 
-0.381931 0.109863 -0.917638 -0.240829 0.106193 -0.964741 0.592257 -0.0610153 -0.803436 
0.358341 -0.0589229 -0.931729 0.110268 -0.0347424 -0.993294 -0.041796 -0.0483365 -0.997956 
-0.0513721 -0.0961033 -0.994045 -0.00375967 -0.0736891 -0.997274 -0.0337894 -0.0155836 -0.999307 
-0.105892 -0.0516138 -0.993037 -0.0516632 -0.00564529 -0.998649 -0.0667164 -0.00108754 -0.997771 
-0.410004 0.00756238 -0.912052 -0.231669 0.0116409 -0.972725 0.541364 -0.244902 -0.80433 
0.450186 -0.423757 -0.785978 0.375375 -0.201748 -0.90465 0.137281 -0.182356 -0.973602 
-0.0197494 -0.125226 -0.991932 -0.0709839 -0.114549 -0.990878 -0.0165609 -0.144036 -0.989434 
0.000705397 -0.162475 -0.986712 -0.0332492 -0.0887141 -0.995502 -0.0582335 -0.0330469 -0.997756 
-0.095137 -0.0986556 -0.990564 -0.419114 -0.194514 -0.886853 -0.326054 -0.351958 -0.87739 
-0.235684 -0.154049 -0.959543 0.438186 -0.434115 -0.787107 0.261375 -0.49974 -0.825799 
0.204411 -0.353743 -0.912733 0.100916 -0.541335 -0.834729 0.0302778 -0.280174 -0.959472 
-0.0737248 -0.243829 -0.967012 -0.0473625 -0.411134 -0.910344 -0.046419 -0.256928 -0.965315 
0.0170153 -0.409264 -0.912257 0.0156252 -0.271374 -0.962347 0.0240654 -0.429892 -0.90256 
0.0282427 -0.247992 -0.96835 -0.0826032 -0.469887 -0.878853 -0.060201 -0.219651 -0.973719 
-0.310177 -0.372922 -0.874482 -0.239691 -0.406666 -0.881573 -0.203415 -0.273825 -0.940022 
0.00700189 -0.501262 -0.865267 -0.0390346 -0.474573 -0.87935 -0.037202 -0.479297 -0.876864 
-0.0380874 -0.475913 -0.878667 
