# vtk DataFile Version 4.2
vtk output
ASCII
DATASET POLYDATA
POINTS 564 float
46.2921 -5.52846 -20.936 -42.4445 -27.7126 -14.1749 -35.0498 -27.7126 -16.0148 
-27.6551 -27.7126 -16.8977 -20.2604 -27.7126 -17.229 -12.8657 -27.7126 -16.1751 
-5.47096 -27.7126 -14.0765 -49.8393 -20.3179 -15.6537 -42.4445 -20.3179 -17.389 
-35.0498 -20.3179 -17.9667 -27.6551 -20.3179 -19.4542 -20.2604 -20.3179 -18.4877 
-12.8657 -20.3179 -18.1404 -5.47096 -20.3179 -16.8531 1.92375 -20.3179 -15.1343 
9.31847 -20.3179 -13.458 24.1079 -20.3179 -13.5403 31.5026 -20.3179 -14.6518 
38.8973 -20.3179 -16.1985 46.2921 -20.3179 -15.1481 -49.8393 -12.9232 -17.0108 
-42.4445 -12.9232 -19.0364 -35.0498 -12.9232 -18.5226 -27.6551 -12.9232 -18.161 
-20.2604 -12.9232 -17.6304 -12.8657 -12.9232 -17.76 -5.47096 -12.9232 -17.7753 
1.92375 -12.9232 -16.9758 9.31847 -12.9232 -15.2389 16.7132 -12.9232 -14.5846 
24.1079 -12.9232 -16.483 31.5026 -12.9232 -18.6696 38.8973 -12.9232 -19.2363 
46.2921 -8.31291 -20.4717 46.2921 -12.9232 -19.5757 53.6868 -12.9232 -17.5397 
61.0815 -12.9232 -13.7512 -57.234 -5.52846 -13.507 -49.8393 -5.52846 -16.5043 
-42.4445 -5.52846 -19.1943 -35.0498 -5.52846 -18.2515 -27.6551 -5.52846 -17.2637 
-20.2604 -5.52846 -15.7381 -12.8657 -5.52846 -15.3585 -5.47096 -5.52846 -19.6061 
1.92375 -5.52846 -17.3509 9.31847 -5.52846 -16.7847 16.7132 -5.52846 -15.6625 
24.1079 -5.52846 -17.5118 31.5026 -5.52846 -19.1214 40.4674 -5.52846 -20.4717 
38.8973 -5.52846 -20.3326 48.124 -5.52846 -20.4717 46.2921 -3.87889 -20.4717 
53.6868 -5.52846 -18.9407 61.0815 -5.52846 -15.1974 -49.8393 1.86626 -16.7154 
-42.4445 1.86626 -18.3332 -35.0498 1.86626 -17.804 -27.6551 1.86626 -16.7782 
-20.2604 1.86626 -15.1217 -12.8657 1.86626 -15.6179 -5.47096 1.86626 -19.6672 
1.92375 1.86626 -16.3539 9.31847 1.86626 -19.0452 16.7132 1.86626 -14.7971 
24.1079 1.86626 -16.2945 31.5026 1.86626 -17.7376 38.8973 1.86626 -18.535 
46.2921 1.86626 -18.6329 53.6868 1.86626 -17.3073 61.0815 1.86626 -13.2576 
-49.8393 9.26098 -15.5931 -42.4445 9.26098 -17.4571 -35.0498 9.26098 -17.5441 
-27.6551 9.26098 -17.0597 -20.2604 9.26098 -16.389 -12.8657 9.26098 -15.9233 
-5.47096 9.26098 -16.7697 1.92375 9.26098 -18.0307 9.31847 9.26098 -20.0897 
16.7132 9.26098 -14.2298 24.1079 9.26098 -14.0797 31.5026 9.26098 -15.0536 
38.8973 9.26098 -15.4149 46.2921 9.26098 -15.0263 -49.8393 16.6557 -13.1273 
-42.4445 16.6557 -15.8425 -35.0498 16.6557 -17.2846 -27.6551 16.6557 -18.1107 
-20.2604 16.6557 -17.5942 -12.8657 16.6557 -16.7445 -5.47096 16.6557 -16.1571 
1.92375 16.6557 -17.4218 9.31847 16.6557 -18.446 16.7132 16.6557 -14.9866 
-42.4445 24.0504 -14.1033 -35.0498 24.0504 -16.4636 -27.6551 24.0504 -16.9906 
-20.2604 24.0504 -17.557 -12.8657 24.0504 -16.3844 -5.47096 24.0504 -16.302 
1.92375 24.0504 -16.6676 9.31847 24.0504 -16.3714 16.7132 24.0504 -14.0031 
-27.6551 31.4451 -14.6688 -20.2604 31.4451 -14.6567 -12.8657 31.4451 -14.4699 
-5.47096 31.4451 -14.0483 1.92375 31.4451 -14.2732 -42.4445 -28.9945 -13.077 
-35.0498 -31.0688 -13.077 -27.6551 -32.4757 -13.077 -27.6551 -35.1073 -6.35008 
-20.2604 -32.5165 -13.077 -20.2604 -35.1073 -6.24921 -12.8657 -31.6781 -13.077 
-5.47096 -28.9393 -13.077 -44.5324 -27.7126 -13.077 -49.8393 -23.5204 -13.077 
-49.8393 -27.7126 -7.5133 -2.39247 -27.7126 -13.077 1.92375 -24.8476 -13.077 
1.92375 -27.7126 -11.1787 9.31847 -21.0996 -13.077 9.31847 -27.7126 -8.57827 
16.7132 -27.7126 -6.82741 24.1079 -20.9409 -13.077 24.1079 -27.7126 -6.53419 
31.5026 -22.1892 -13.077 31.5026 -27.7126 -5.75514 38.8973 -23.3458 -13.077 
46.2921 -22.9595 -13.077 -54.3737 -20.3179 -13.077 -57.234 -20.3179 -10.1252 
11.6648 -20.3179 -13.077 21.5489 -20.3179 -13.077 16.7132 -17.7612 -13.077 
16.7132 -20.3179 -12.2042 51.7663 -20.3179 -13.077 53.6868 -19.386 -13.077 
53.6868 -20.3179 -11.9067 61.0815 -14.8183 -13.077 -57.1723 -12.9232 -13.077 
-57.234 -12.1889 -13.077 -57.234 -12.9232 -13.0198 61.9417 -12.9232 -13.077 
-57.8141 -5.52846 -13.077 -57.234 -1.43326 -13.077 64.5205 -5.52846 -13.077 
68.4762 -5.52846 -9.24658 -56.7769 1.86626 -13.077 -57.234 1.86626 -12.7141 
53.6868 8.69298 -13.077 61.3513 1.86626 -13.077 61.0815 2.25671 -13.077 
68.4762 1.86626 -7.09233 -54.3026 9.26098 -13.077 -57.234 9.26098 -10.5273 
24.1079 14.8216 -13.077 31.5026 13.6524 -13.077 38.8973 13.5993 -13.077 
52.4868 9.26098 -13.077 46.2921 13.5231 -13.077 53.6868 9.26098 -12.6298 
61.0815 9.26098 -9.61853 -49.9313 16.6557 -13.077 -57.234 16.6557 -7.07406 
-49.8393 16.8815 -13.077 22.9931 16.6557 -13.077 24.1079 16.6557 -12.7456 
31.5026 16.6557 -11.7524 38.8973 16.6557 -11.2495 46.2921 16.6557 -10.8344 
53.6868 16.6557 -7.70538 -45.7343 24.0504 -13.077 -49.8393 24.0504 -9.89979 
-42.4445 25.8205 -13.077 -35.0498 30.828 -13.077 9.31847 31.3237 -13.077 
18.8401 24.0504 -13.077 16.7132 25.976 -13.077 24.1079 24.0504 -10.7896 
31.5026 24.0504 -8.92339 38.8973 24.0504 -6.04874 -42.4445 31.4451 -7.1213 
-33.7909 31.4451 -13.077 -35.0498 31.4451 -12.5433 -27.6551 33.1965 -13.077 
-20.2604 33.3591 -13.077 -12.8657 33.3587 -13.077 -5.47096 33.0216 -13.077 
8.97418 31.4451 -13.077 1.92375 33.1652 -13.077 9.31847 31.4451 -13.0029 
16.7132 31.4451 -9.71517 24.1079 31.4451 -6.56417 -5.47096 38.8398 -5.89066 
1.92375 38.8398 -6.18516 -27.6551 -35.317 -5.68227 -20.2604 -35.2743 -5.68227 
-49.8393 -28.722 -5.68227 -42.4445 -32.3098 -5.68227 -30.4686 -35.1073 -5.68227 
-35.0498 -34.7479 -5.68227 -27.6551 -35.1073 -3.70169 -18.5785 -35.1073 -5.68227 
-20.2604 -35.1073 -3.24239 -12.8657 -34.5306 -5.68227 -5.47096 -33.2898 -5.68227 
1.92375 -31.554 -5.68227 9.31847 -29.9196 -5.68227 16.7132 -28.7291 -5.68227 
24.1079 -28.3901 -5.68227 31.5026 -27.7532 -5.68227 -51.2119 -27.7126 -5.68227 
-57.234 -22.7904 -5.68227 34.3601 -27.7126 -5.68227 38.8973 -27.6533 -5.68227 
38.8973 -27.7126 -5.47853 46.2921 -26.533 -5.68227 53.6868 -24.4295 -5.68227 
-59.3294 -20.3179 -5.68227 60.9489 -20.3179 -5.68227 61.0815 -20.2328 -5.68227 
-63.1986 -12.9232 -5.68227 67.3534 -12.9232 -5.68227 68.4762 -10.377 -5.68227 
-64.4221 -5.52846 -5.68227 70.3071 -5.52846 -5.68227 -63.7922 1.86626 -5.68227 
69.3549 1.86626 -5.68227 68.4762 3.66288 -5.68227 -61.3186 9.26098 -5.68227 
64.8747 9.26098 -5.68227 61.0815 13.7239 -5.68227 -58.0474 16.6557 -5.68227 
-57.234 17.9787 -5.68227 46.2921 21.2284 -5.68227 57.111 16.6557 -5.68227 
53.6868 18.6768 -5.68227 -52.302 24.0504 -5.68227 -49.8393 26.4097 -5.68227 
31.5026 29.689 -5.68227 39.6141 24.0504 -5.68227 38.8973 24.4291 -5.68227 
46.2921 24.0504 -2.23286 -43.764 31.4451 -5.68227 -42.4445 32.2675 -5.68227 
-35.0498 36.0067 -5.68227 -27.6551 37.1077 -5.68227 -20.2604 37.5448 -5.68227 
-12.8657 38.1566 -5.68227 9.31847 37.4455 -5.68227 16.7132 34.8979 -5.68227 
26.9554 31.4451 -5.68227 24.1079 32.2117 -5.68227 31.5026 31.4451 -2.9869 
-6.38361 38.8398 -5.68227 -5.47096 38.9365 -5.68227 3.23123 38.8398 -5.68227 
1.92375 39.1011 -5.68227 -49.8393 -28.2825 1.71244 -42.4445 -31.6225 1.71244 
-35.0498 -34.0295 1.71244 -27.6551 -34.5463 1.71244 -20.2604 -34.7751 1.71244 
-12.8657 -34.6246 1.71244 -5.47096 -33.9708 1.71244 1.92375 -32.9534 1.71244 
9.31847 -32.443 1.71244 16.7132 -32.2809 1.71244 24.1079 -31.6982 1.71244 
31.5026 -30.8845 1.71244 38.8973 -29.7245 1.71244 -50.6241 -27.7126 1.71244 
-57.234 -22.3847 1.71244 -49.8393 -27.7126 3.00464 45.1381 -27.7126 1.71244 
46.2921 -27.3512 1.71244 53.6868 -24.269 1.71244 -58.9754 -20.3179 1.71244 
-57.234 -20.3179 5.00459 60.2441 -20.3179 1.71244 53.6868 -20.3179 8.75471 
61.0815 -19.6705 1.71244 -63.2977 -12.9232 1.71244 66.4313 -12.9232 1.71244 
61.0815 -12.9232 8.39113 68.4762 -9.07724 1.71244 -64.4639 -5.52846 1.71244 
70.0759 -5.52846 1.71244 68.4762 -5.52846 4.35712 -64.1501 1.86626 1.71244 
68.6673 1.86626 1.71244 68.4762 2.60328 1.71244 68.4762 1.86626 2.09641 
-62.2982 9.26098 1.71244 66.3128 9.26098 1.71244 61.0815 16.0515 1.71244 
-58.3857 16.6557 1.71244 -57.234 18.5066 1.71244 -57.234 16.6557 4.19194 
60.5035 16.6557 1.71244 53.6868 21.8041 1.71244 -52.8986 24.0504 1.71244 
-49.8393 26.8169 1.71244 -49.8393 24.0504 6.58243 38.8973 30.1221 1.71244 
50.3589 24.0504 1.71244 46.2921 26.5988 1.71244 -43.18 31.4451 1.71244 
-42.4445 31.8752 1.71244 -42.4445 31.4451 2.65304 -35.0498 35.3298 1.71244 
-35.0498 31.4451 8.93747 -27.6551 36.4091 1.71244 -20.2604 37.2157 1.71244 
-12.8657 38.3094 1.71244 9.31847 38.2597 1.71244 16.7132 36.5455 1.71244 
24.1079 35.1586 1.71244 35.9783 31.4451 1.71244 31.5026 33.2462 1.71244 
-9.28769 38.8398 1.71244 -5.47096 39.4001 1.71244 -5.47096 38.8398 3.20578 
5.27646 38.8398 1.71244 1.92375 39.3285 1.71244 1.92375 38.8398 3.07213 
-42.4445 -29.5709 9.10716 -35.0498 -31.59 9.10716 -27.6551 -32.7005 9.10716 
-20.2604 -33.4751 9.10716 -12.8657 -33.5161 9.10716 -5.47096 -33.0427 9.10716 
1.92375 -32.0978 9.10716 9.31847 -31.8929 9.10716 16.7132 -32.4311 9.10716 
24.1079 -31.858 9.10716 31.5026 -30.3378 9.10716 38.8973 -27.8575 9.10716 
-45.7604 -27.7126 9.10716 -49.8393 -24.8929 9.10716 -42.4445 -27.7126 11.8622 
-35.0498 -27.7126 14.7709 -5.47096 -27.7126 16.2267 1.92375 -27.7126 15.1141 
9.31847 -27.7126 14.9694 16.7132 -27.7126 15.0141 24.1079 -27.7126 14.3387 
31.5026 -27.7126 12.5258 39.3379 -27.7126 9.10716 38.8973 -27.7126 9.32258 
46.2921 -24.3354 9.10716 -54.6682 -20.3179 9.10716 -57.234 -16.4955 9.10716 
-49.8393 -20.3179 13.7577 38.8973 -20.3179 15.0171 53.2082 -20.3179 9.10716 
46.2921 -20.3179 12.379 53.6868 -19.949 9.10716 -59.5201 -12.9232 9.10716 
-57.234 -12.9232 11.3097 46.2921 -12.9232 15.2477 60.1185 -12.9232 9.10716 
53.6868 -12.9232 12.748 61.0815 -11.8637 9.10716 -60.7416 -5.52846 9.10716 
-57.234 -5.52846 12.6803 53.6868 -5.52846 15.54 64.8009 -5.52846 9.10716 
61.0815 -5.52846 11.932 -60.9541 1.86626 9.10716 -57.234 1.86626 12.6956 
1.92375 1.86626 15.9202 16.7132 1.86626 15.6674 24.1079 1.86626 16.416 
53.6868 1.86626 15.1496 64.0137 1.86626 9.10716 61.0815 1.86626 11.5026 
-58.6374 9.26098 9.10716 -57.234 12.038 9.10716 -57.234 9.26098 10.5879 
[...]
POINT_DATA 564
SCALARS ImageScalars float
LOOKUP_TABLE default
0 0 0 0 0 0 0 0 0 
0 0 0 0 0 0 0 0 0 
0 0 0 0 0 0 0 0 0 
0 0 0 0 0 0 0 0 0 
0 0 0 0 0 0 0 0 0 
0 0 0 0 0 0 0 0 0 
0 0 0 0 0 0 0 0 0 
0 0 0 0 0 0 0 0 0 
0 0 0 0 0 0 0 0 0 
0 0 0 0 0 0 0 0 0 
0 0 0 0 0 0 0 0 0 
0 0 0 0 0 0 0 0 0 
0 0 0 0 0 0 0 0 0 
0 0 0 0 0 0 0 0 0 
0 0 0 0 0 0 0 0 0 
0 0 0 0 0 0 0 0 0 
0 0 0 0 0 0 0 0 0 
0 0 0 0 0 0 0 0 0 
0 0 0 0 0 0 0 0 0 
0 0 0 0 0 0 0 0 0 
0 0 0 0 0 0 0 0 0 
0 0 0 0 0 0 0 0 0 
0 0 0 0 0 0 0 0 0 
0 0 0 0 0 0 0 0 0 
0 0 0 0 0 0 0 0 0 
0 0 0 0 0 0 0 0 0 
0 0 0 0 0 0 0 0 0 
0 0 0 0 0 0 0 0 0 
0 0 0 0 0 0 0 0 0 
0 0 0 0 0 0 0 0 0 
0 0 0 0 0 0 0 0 0 
0 0 0 0 0 0 0 0 0 
0 0 0 0 0 0 0 0 0 
0 0 0 0 0 0 0 0 0 
0 0 0 0 0 0 0 0 0 
0 0 0 0 0 0 0 0 0 
0 0 0 0 0 0 0 0 0 
0 0 0 0 0 0 0 0 0 
0 0 0 0 0 0 0 0 0 
0 0 0 0 0 0 0 0 0 
0 0 0 0 0 0 0 0 0 
0 0 0 0 0 0 0 0 0 
0 0 0 0 0 0 0 0 0 
0 0 0 0 0 0 0 0 0 
0 0 0 0 0 0 0 0 0 
0 0 0 0 0 0 0 0 0 
0 0 0 0 0 0 0 0 0 
0 0 0 0 0 0 0 0 0 
0 0 0 0 0 0 0 0 0 
0 0 0 0 0 0 0 0 0 
0 0 0 0 0 0 0 0 0 
0 0 0 0 0 0 0 0 0 
0 0 0 0 0 0 0 0 0 
0 0 0 0 0 0 0 0 0 
0 0 0 0 0 0 0 0 0 
0 0 0 0 0 0 0 0 0 
0 0 0 0 0 0 0 0 0 
0 0 0 0 0 0 0 0 0 
0 0 0 0 0 0 0 0 0 
0 0 0 0 0 0 0 0 0 
0 0 0 0 0 0 0 0 0 
0 0 0 0 0 0 0 0 0 
0 0 0 0 0 0 
NORMALS Normals float
-0.0973772 -0.0660502 0.993053 0.336705 0.585986 0.737055 0.191172 0.520756 0.832026 
0.0700919 0.482472 0.873102 -0.048604 0.434968 0.899133 -0.20025 0.475413 0.85667 
-0.282403 0.545366 0.789192 0.369789 0.415468 0.831049 0.131922 0.31279 0.940616 
0.128444 0.142778 0.981385 0.0357957 0.0835465 0.995861 -0.0847657 0.0213643 0.996172 
-0.105647 0.0963961 0.98972 -0.196251 0.225227 0.954336 -0.213054 0.313365 0.925424 
-0.18152 0.338028 0.923465 0.140263 0.507536 0.850138 0.161336 0.582731 0.79649 
0.014818 0.618596 0.78557 -0.19524 0.592914 0.781239 0.315005 0.0339639 0.948482 
0.12607 0.117089 0.985087 -0.0563377 0.0185998 0.998239 -0.0569777 -0.140531 0.988435 
-0.028491 -0.188704 0.981621 0.0094189 -0.155665 0.987765 -0.051021 0.170104 0.984104 
-0.163104 0.142191 0.976309 -0.16226 0.203377 0.965562 0.0678638 0.219801 0.973181 
0.272249 0.252934 0.928388 0.16742 0.23796 0.956737 0.0562506 0.24706 0.967366 
-0.106071 0.0965298 0.989662 -0.113248 0.346097 0.931339 -0.313287 0.324413 0.892528 
-0.594271 0.23695 0.768568 0.526384 -0.0189911 0.850035 0.323224 -0.0217265 0.946073 
0.113246 -0.0479545 0.992409 -0.123892 -0.0480996 0.991129 -0.167986 -0.0930584 0.981387 
-0.12069 -0.159509 0.979791 0.265164 -0.160696 0.950718 0.0835715 0.140816 0.986502 
-0.174011 -0.0334174 0.984177 -0.122249 0.236827 0.96383 0.0663403 0.0158656 0.997671 
0.233694 -0.0199222 0.972106 0.185777 -0.0582991 0.980861 0.0796163 -0.0487026 0.995635 
0.123984 -0.04436 0.991292 -0.155164 -0.0559046 0.986306 -0.0985331 -0.141123 0.985076 
-0.31558 -0.0216904 0.948651 -0.492466 -0.0298772 0.869819 0.301877 -0.0629169 0.951268 
0.0905606 -0.1149 0.989241 -0.102364 -0.047528 0.993611 -0.178644 -0.0128371 0.98383 
-0.0920744 0.0442929 0.994767 0.317351 0.0429557 0.947335 -0.0323124 -0.198386 0.979591 
-0.0382969 0.0399885 0.998466 -0.136451 0.193755 0.971514 -0.132587 -0.0890418 0.987164 
0.190124 -0.223525 0.955976 0.145321 -0.264708 0.953316 0.0560234 -0.306725 0.950148 
-0.0852715 -0.363682 0.927612 -0.277856 -0.337467 0.899395 -0.54019 -0.280901 0.793278 
0.345181 -0.196202 0.917799 0.143091 -0.165125 0.975838 -0.0272072 -0.0348547 0.999022 
-0.0774374 0.0883787 0.993072 -0.0757058 0.167071 0.983034 0.0214746 0.0705957 0.997274 
0.136202 -0.203236 0.96961 0.19354 0.0585881 0.979341 -0.187636 -0.0575951 0.980549 
-0.330055 0.0113372 0.943894 0.056059 -0.238658 0.969484 0.0832034 -0.377411 0.9223 
-0.00273935 -0.439559 0.89821 -0.15063 -0.438794 0.885873 0.429107 -0.293755 0.854152 
0.230455 -0.2095 0.950263 0.144616 -0.0698681 0.987018 0.0203396 -0.00196302 0.999791 
-0.0911267 0.0781981 0.992764 -0.0966939 0.029393 0.99488 0.0457465 -0.0279204 0.998563 
0.153895 -0.0903277 0.98395 -0.147272 -0.215667 0.965297 -0.379904 -0.0236131 0.924724 
0.310629 -0.375952 0.873023 0.188398 -0.278746 0.941704 0.0701274 -0.217549 0.973527 
-0.0404695 -0.184976 0.981909 -0.0799323 -0.148544 0.98567 0.0202494 -0.127219 0.991668 
0.0056972 -0.189001 0.98196 -0.165397 -0.325427 0.930989 -0.345412 -0.273442 0.89773 
0.120007 -0.564906 0.816382 -0.0132219 -0.565159 0.824876 -0.0388778 -0.472215 0.880626 
-0.0146769 -0.43953 0.898108 -0.0621144 -0.484043 0.872837 0.343277 0.66154 0.666728 
0.203902 0.703173 0.681155 0.0749405 0.788779 0.610092 0.0371041 0.989564 0.139238 
-0.0428195 0.801873 0.595958 -0.0504484 0.988988 0.139134 -0.192535 0.741419 0.642829 
-0.287567 0.613934 0.735112 0.386689 0.625896 0.677293 0.426583 0.582371 0.692005 
0.535413 0.788013 0.303923 -0.281983 0.572454 0.769924 -0.252371 0.484466 0.837616 
-0.267586 0.661298 0.700773 -0.188021 0.369102 0.910171 -0.207825 0.740594 0.639007 
-0.096876 0.74988 0.654443 0.130282 0.524837 0.841173 -0.040006 0.799099 0.599867 
0.129538 0.64896 0.749714 -0.0422181 0.893826 0.446423 0.0305941 0.75108 0.659502 
-0.188951 0.727627 0.659436 0.547553 0.439759 0.711897 0.718323 0.483234 0.500497 
-0.124276 0.364998 0.922676 0.0893736 0.477973 0.873816 0.0227083 0.349677 0.936595 
-0.00498524 0.429429 0.903087 -0.236733 0.701994 0.671686 -0.260236 0.691998 0.673361 
-0.277957 0.75799 0.590077 -0.585974 0.350035 0.730828 0.651869 0.111864 0.750036 
0.642932 0.0994185 0.759443 0.65603 0.113702 0.746121 -0.622457 0.249472 0.741829 
0.547996 -0.0149207 0.836348 0.566542 -0.0895867 0.819149 -0.656405 -0.00919229 0.754353 
-0.902486 0.0789288 0.423426 0.578161 -0.138017 0.804165 0.60407 -0.148012 0.783065 
-0.2898 -0.553147 0.781054 -0.55118 -0.280824 0.785709 -0.537185 -0.293916 0.790598 
-0.884228 -0.31489 0.344943 0.519857 -0.218679 0.825789 0.708044 -0.236948 0.665229 
-0.134307 -0.207395 0.968994 -0.0148952 -0.387742 0.921647 -0.00401482 -0.459177 0.888336 
-0.267744 -0.549108 0.791703 -0.18425 -0.536855 0.82331 -0.289326 -0.567842 0.770614 
-0.501923 -0.575267 0.645865 0.432254 -0.295308 0.852027 0.800539 -0.459833 0.384305 
0.434162 -0.300292 0.84931 -0.223029 -0.16942 0.959977 -0.197981 -0.199655 0.959657 
-0.0890851 -0.384883 0.918656 -0.0531339 -0.481788 0.874676 -0.202336 -0.632704 0.747493 
-0.362 -0.667795 0.650389 0.425819 -0.432245 0.794885 0.638346 -0.569707 0.517637 
0.34851 -0.468292 0.811938 0.305405 -0.585863 0.750661 -0.24084 -0.541001 0.8058 
-0.342608 -0.281313 0.896372 -0.340927 -0.350347 0.872368 -0.319007 -0.325615 0.890062 
-0.235039 -0.422417 0.875397 -0.367866 -0.628006 0.685772 0.492397 -0.813263 0.310077 
0.284413 -0.611141 0.738658 0.318112 -0.632428 0.706286 0.120928 -0.689437 0.71418 
0.0095573 -0.663967 0.747701 -0.0133472 -0.588032 0.808728 -0.010611 -0.51987 0.854179 
-0.233633 -0.54299 0.806584 -0.075238 -0.572679 0.81632 -0.242067 -0.547084 0.801313 
-0.320459 -0.656425 0.682944 -0.288768 -0.717321 0.634085 0.0624579 -0.959997 0.272957 
-0.0910155 -0.947641 0.306091 0.033422 0.994218 0.102044 -0.0516265 0.992474 0.111044 
0.537613 0.820635 0.193727 0.347096 0.929232 0.126696 0.0958914 0.988775 0.11458 
0.199836 0.969998 0.138455 0.0377442 0.998838 0.0299776 -0.069638 0.990609 0.117658 
-0.0331859 0.998743 0.0375622 -0.132952 0.979896 0.148752 -0.193951 0.945518 0.261492 
-0.215336 0.90416 0.368952 -0.172831 0.850045 0.497546 -0.0940158 0.788413 0.60792 
-0.056319 0.823205 0.564944 -0.0429775 0.894871 0.444251 0.559076 0.807244 0.189184 
0.735285 0.656483 0.168483 -0.0595812 0.90079 0.430148 -0.0861946 0.909496 0.406678 
-0.0910141 0.913515 0.396493 -0.184196 0.95847 0.217732 -0.410034 0.882686 0.229647 
0.807253 0.560838 0.183857 -0.55972 0.825076 0.0772141 -0.564253 0.822103 0.0759338 
0.912017 0.310912 0.267503 -0.866514 0.468996 0.170869 -0.920006 0.344454 0.186926 
0.960945 0.0334571 0.274708 -0.967497 0.111425 0.227011 0.931699 -0.185339 0.312387 
-0.916461 -0.298921 0.26598 -0.875594 -0.394426 0.278862 0.871799 -0.330452 0.361619 
-0.69572 -0.609213 0.38057 -0.597712 -0.663034 0.450696 0.831046 -0.476638 0.286668 
0.814796 -0.504274 0.286033 -0.27837 -0.716955 0.639129 -0.471473 -0.709616 0.523602 
-0.372348 -0.732252 0.570231 0.718421 -0.650091 0.247492 0.680612 -0.695652 0.22986 
-0.325154 -0.69253 0.643954 -0.371366 -0.640741 0.671966 -0.380003 -0.635923 0.671714 
-0.407939 -0.806497 0.427958 0.523251 -0.820196 0.231272 0.490856 -0.841595 0.225341 
0.301638 -0.932448 0.198885 0.097111 -0.977585 0.186807 0.0705659 -0.975616 0.207829 
0.0900169 -0.966147 0.24178 -0.255347 -0.908207 0.3316 -0.307293 -0.842876 0.441736 
-0.302721 -0.746264 0.592832 -0.288633 -0.75946 0.583019 -0.338856 -0.846877 0.40985 
0.0666688 -0.964205 0.256639 0.0632488 -0.963472 0.260233 -0.118048 -0.952417 0.281011 
-0.0889232 -0.957147 0.275613 0.52025 0.828767 -0.206119 0.332825 0.926977 -0.173037 
0.192004 0.961636 -0.195933 0.0481352 0.984831 -0.166705 0.00506124 0.993568 -0.113123 
-0.054409 0.996427 -0.0645962 -0.112194 0.993564 -0.0155861 -0.102445 0.994208 0.0324951 
-0.045269 0.992049 0.117432 -0.0505685 0.976131 0.211211 -0.0927461 0.974871 0.202547 
-0.130172 0.980842 0.144931 -0.235662 0.971793 0.00901126 0.534619 0.821768 -0.197182 
0.723469 0.657329 -0.210978 0.516044 0.817743 -0.25494 -0.307407 0.950573 -0.0437263 
-0.322749 0.944306 -0.0641844 -0.4722 0.852093 -0.225753 0.783354 0.582528 -0.216836 
0.731083 0.557937 -0.392713 -0.578954 0.777217 -0.246469 -0.426431 0.630844 -0.648223 
-0.6026 0.754369 -0.260385 0.920546 0.338361 -0.195211 -0.799846 0.527095 -0.287082 
-0.555781 0.483561 -0.676221 -0.905608 0.30979 -0.289663 0.975809 0.0465054 -0.213619 
-0.958106 0.0937048 -0.270653 -0.883584 0.10642 -0.456019 0.976294 -0.143739 -0.161833 
-0.938585 -0.210216 -0.273618 -0.937796 -0.23385 -0.256618 -0.933678 -0.203314 -0.294804 
0.929166 -0.338498 -0.148558 -0.872744 -0.482985 -0.0710117 -0.724382 -0.683957 -0.0864547 
0.840685 -0.517696 -0.158871 0.817974 -0.548497 -0.173404 0.80374 -0.52924 -0.271858 
-0.705824 -0.70461 -0.0730523 -0.56352 -0.825211 0.0383664 0.706861 -0.685379 -0.174939 
0.645739 -0.74175 -0.181185 0.603179 -0.657358 -0.451724 -0.418691 -0.899236 0.126776 
-0.529254 -0.841813 0.106028 -0.47783 -0.865073 0.152734 0.469435 -0.8557 -0.217735 
0.452186 -0.865007 -0.217466 0.453076 -0.852304 -0.261345 0.283193 -0.921153 -0.266979 
0.238126 -0.752596 -0.613918 0.119835 -0.956184 -0.267117 0.125063 -0.966426 -0.224456 
0.142119 -0.974855 -0.171641 -0.181446 -0.977253 -0.109791 -0.206179 -0.977932 -0.0337501 
-0.219011 -0.975033 0.0366745 -0.385763 -0.916465 0.106207 -0.323767 -0.942326 0.0848364 
0.108388 -0.980932 -0.161318 0.0693856 -0.985267 -0.156313 0.070025 -0.967862 -0.241536 
-0.123789 -0.982855 -0.136648 -0.0762172 -0.984306 -0.159162 -0.0709239 -0.970372 -0.230971 
0.367221 0.824156 -0.431179 0.202642 0.880524 -0.428501 0.115601 0.928517 -0.352835 
0.0522157 0.945131 -0.322491 -0.0278354 0.944621 -0.32698 -0.0940768 0.938362 -0.332606 
-0.0775698 0.939356 -0.334055 0.0226759 0.943313 -0.331128 -0.00254933 0.955194 -0.295971 
-0.141502 0.946929 -0.288623 -0.260645 0.893978 -0.36451 -0.316721 0.843535 -0.433746 
0.423233 0.779814 -0.461264 0.509884 0.688013 -0.516387 0.381649 0.734411 -0.561234 
0.245622 0.708983 -0.66107 -0.113922 0.558959 -0.821332 -0.0649148 0.632623 -0.771735 
-0.00477269 0.643304 -0.765596 -0.0343947 0.60508 -0.795422 -0.137931 0.635771 -0.759454 
-0.24512 0.731649 -0.636086 -0.323108 0.838772 -0.43825 -0.317277 0.836595 -0.446592 
-0.411827 0.700953 -0.582292 0.641298 0.506031 -0.576775 0.677696 0.409814 -0.610558 
0.501744 0.486416 -0.715298 -0.232867 0.383626 -0.893646 -0.418952 0.615842 -0.667246 
-0.387886 0.525734 -0.757066 -0.422433 0.606105 -0.673934 0.735655 0.305949 -0.604324 
0.652331 0.314639 -0.689541 -0.2691 0.222541 -0.937049 -0.520766 0.458572 -0.720079 
-0.364434 0.376257 -0.851832 -0.538277 0.427597 -0.726236 0.787119 0.0773081 -0.611937 
0.628962 0.0764211 -0.773671 -0.320945 0.142736 -0.93628 -0.634653 0.120199 -0.763392 
-0.506375 0.122387 -0.853584 0.797927 -0.125304 -0.589585 0.61487 -0.117838 -0.779775 
0.110375 -0.0795011 -0.990705 -0.300038 -0.150624 -0.941961 0.112451 -0.0866972 -0.989868 
-0.339866 -0.0979618 -0.935358 -0.658477 -0.105891 -0.745114 -0.545245 -0.0839091 -0.834066 
0.732619 -0.317001 -0.602313 0.707559 -0.399585 -0.582831 0.68147 -0.298197 -0.66834 
0.415941 -0.203278 -0.886381 -0.187232 0.0444702 -0.981309 0.0659213 -0.0192067 -0.99764 
0.0863222 -0.122991 -0.988646 -0.183708 -0.111496 -0.976637 -0.294317 -0.280229 -0.913701 
-0.634896 -0.427296 -0.643682 -0.614817 -0.471309 -0.63235 -0.586104 -0.410512 -0.698543 
0.644938 -0.499921 -0.578043 0.557436 -0.559491 -0.61338 0.465043 -0.41989 -0.779377 
0.232356 -0.311031 -0.921558 -0.0584108 -0.175786 -0.982694 0.0408229 -0.064874 -0.997058 
-0.0503304 0.0181408 -0.998568 -0.0498892 -0.0623654 -0.996806 -0.0624074 -0.158964 -0.98531 
-0.0670756 -0.2112 -0.975139 -0.267412 -0.354172 -0.896132 -0.567832 -0.558284 -0.604885 
-0.540245 -0.62209 -0.566692 -0.486169 -0.483071 -0.728205 0.498296 -0.609839 -0.616277 
0.405896 -0.671481 -0.61997 0.359514 -0.556696 -0.748892 0.236379 -0.745191 -0.62355 
0.1904 -0.459393 -0.867586 0.0647088 -0.39811 -0.915052 -0.0168609 -0.353754 -0.935187 
-0.00646203 -0.284571 -0.958633 0.00592793 -0.22147 -0.975149 0.0175169 -0.204163 -0.97878 
0.0054776 -0.252528 -0.967574 -0.0730215 -0.224003 -0.971849 -0.12281 -0.299063 -0.946298 
-0.101272 -0.386315 -0.91679 -0.371015 -0.766275 -0.524567 -0.256419 -0.532559 -0.806617 
-0.463704 -0.702661 -0.539672 -0.449473 -0.711436 -0.540215 -0.438462 -0.676051 -0.592205 
0.225696 -0.749323 -0.622556 0.120806 -0.773665 -0.621972 0.116773 -0.738935 -0.66358 
0.123085 -0.766978 -0.629758 0.101147 -0.678899 -0.727232 0.122664 -0.76124 -0.636764 
0.0804989 -0.593389 -0.80088 0.0634675 -0.752739 -0.655252 0.041141 -0.533017 -0.845104 
-0.0274068 -0.762028 -0.646964 0.0013325 -0.526267 -0.850318 -0.086182 -0.790463 -0.606416 
-0.032072 -0.576166 -0.816703 -0.135915 -0.832425 -0.537211 -0.107718 -0.648384 -0.753654 
-0.174978 -0.815513 -0.551652 -0.160763 -0.73222 -0.661822 -0.290749 -0.812841 -0.504732 
-0.275497 -0.817788 -0.505296 -0.272304 -0.800659 -0.533662 0.130689 0.67276 -0.728227 
0.00458824 0.651665 -0.758493 -0.063714 0.596896 -0.799785 0.339406 0.439485 -0.831659 
0.177069 0.651723 -0.737498 0.247453 0.566297 -0.786177 0.12119 0.630654 -0.766543 
-0.00274911 0.597167 -0.802112 -0.102419 0.550001 -0.82886 -0.063932 0.550236 -0.832558 
-0.110973 0.519639 -0.847148 -0.0568309 0.468705 -0.881525 -0.016682 0.438701 -0.898478 
-0.0439509 0.396423 -0.917015 -0.115938 0.30996 -0.943654 -0.157706 0.282849 -0.946111 
0.36253 0.414145 -0.834899 0.463168 0.217766 -0.8591 0.333834 0.394923 -0.855915 
0.189777 0.296059 -0.936127 0.0787585 0.256248 -0.963397 -0.0399229 0.188692 -0.981224 
-0.111104 0.171136 -0.978963 -0.0746244 0.177936 -0.981208 -0.0507762 0.246272 -0.96787 
-0.030452 0.225544 -0.973757 -0.0454527 0.178796 -0.982836 -0.101797 0.191574 -0.976185 
-0.158643 0.280899 -0.946535 -0.156961 0.278452 -0.947538 -0.190979 0.227349 -0.954903 
0.475171 0.161095 -0.865021 0.445311 0.148509 -0.882974 0.232286 0.0874112 -0.968712 
0.167316 0.0296889 -0.985456 0.00184988 -0.0467211 -0.998906 -0.104322 -0.0977794 -0.989725 
-0.0821512 -0.0460584 -0.995555 -0.027641 0.0161565 -0.999487 -0.0206817 -0.0426769 -0.998875 
-0.0853672 0.136589 -0.986943 -0.0743283 -0.0326922 -0.996698 -0.0301355 -0.0316939 -0.999043 
-0.0319982 0.0748173 -0.996684 -0.215479 0.173341 -0.961 -0.178563 0.145677 -0.973084 
-0.126219 0.10514 -0.986415 0.374922 -0.0327418 -0.926478 0.368035 -0.0351004 -0.929149 
0.194511 -0.000267183 -0.9809 0.0589961 -0.0596751 -0.996473 -0.0499533 -0.171447 -0.983926 
-0.0476981 -0.215066 -0.975434 0.00648737 -0.0981888 -0.995147 -0.0781118 0.0116239 -0.996877 
0.099975 -0.141086 -0.984936 0.0749059 -0.233489 -0.96947 -0.0168878 0.11222 -0.99354 
-0.27101 -0.161044 -0.949009 -0.218062 -0.149084 -0.964481 0.0961869 -0.0896426 -0.991318 
0.0132372 -0.103693 -0.994521 0.0175042 -0.0265361 -0.999495 -0.0699513 -0.0248289 -0.997241 
-0.141802 0.100461 -0.984784 -0.10911 0.0926315 -0.989704 0.398619 -0.0836359 -0.913295 
0.398244 -0.0849399 -0.913338 0.397797 -0.0835751 -0.913659 0.182885 -0.038012 -0.982399 
-0.00596209 -0.0800792 -0.996771 -0.154922 -0.108318 -0.981971 -0.0453439 -0.104174 -0.993525 
0.161292 -0.0739561 -0.984132 0.0659254 -0.0840193 -0.994281 -0.149895 -0.0532963 -0.987264 
0.0965746 -0.0909663 -0.99116 0.036279 -0.00350597 -0.999336 -0.27301 -0.148179 -0.950531 
0.00637209 -0.10894 -0.994028 0.106817 -0.0868085 -0.990482 0.0850339 -0.122292 -0.988845 
0.0433214 -0.0872879 -0.995241 -0.0548303 -0.0198209 -0.998299 -0.123232 -0.0686214 -0.990003 
-0.12015 -0.0689353 -0.99036 -0.118048 -0.0680234 -0.990675 0.329952 -0.206876 -0.92105 
0.220523 -0.28384 -0.933169 0.218068 -0.216532 -0.951609 -0.00316209 -0.172304 -0.985039 
-0.0694879 -0.0675786 -0.995291 -0.0103285 0.0147717 -0.999838 0.057215 -0.0896137 -0.994332 
-0.0624472 -0.18088 -0.981521 -0.0895584 -0.222693 -0.970766 0.0253686 -0.0119711 -0.999606 
0.016588 0.0148769 -0.999752 -0.165574 -0.0632747 -0.984165 -0.0784369 -0.27202 -0.95909 
0.0770653 -0.123798 -0.98931 -0.0958108 -0.11804 -0.988376 -0.050261 -0.138955 -0.989022 
-0.0561024 -0.126327 -0.990401 0.167273 -0.27126 -0.94786 0.135041 -0.284559 -0.9491 
0.123706 -0.243936 -0.961869 0.0525106 -0.320318 -0.945853 0.0275681 -0.153734 -0.987728 
-0.0360262 -0.242101 -0.969582 -0.0500783 -0.12081 -0.991412 -0.063524 -0.17157 -0.983122 
-0.0498972 -0.203103 -0.977885 -0.0758732 -0.158242 -0.984481 0.0249253 -0.110802 -0.99353 
-0.0302991 -0.0508216 -0.998248 0.00532988 -0.197773 -0.980233 0.003001 -0.172925 -0.98493 

