# vtk DataFile Version 4.2
vtk output
ASCII
DATASET POLYDATA
POINTS 528 float
-14.82 -30.2123 -12.4282 -7.72248 -30.2123 -12.6717 -0.624918 -30.2123 -11.847 
-36.1127 -23.1147 -12.9277 -29.0152 -23.1147 -13.9933 -21.9176 -23.1147 -14.3603 
-14.82 -23.1147 -14.9153 -7.72248 -23.1147 -15.0603 -0.624918 -23.1147 -14.4235 
6.47264 -23.1147 -13.6295 13.5702 -23.1147 -13.8061 20.6678 -23.1147 -14.0449 
27.7653 -23.1147 -13.8279 34.8629 -23.1147 -13.6116 -43.2103 -16.0171 -13.1937 
-36.1127 -16.0171 -14.79 -29.0152 -16.0171 -15.3239 -21.9176 -16.0171 -15.2121 
-14.82 -16.0171 -15.1334 -7.72248 -16.0171 -15.5001 -0.624918 -16.0171 -15.1534 
6.47264 -16.0171 -15.1131 13.5702 -16.0171 -15.6295 20.6678 -16.0171 -14.9811 
27.7653 -16.0171 -14.9121 34.8629 -16.0171 -14.5445 41.9604 -16.0171 -15.2768 
49.058 -16.0171 -11.8552 -43.2103 -8.91958 -14.716 -36.1127 -8.91958 -16.4005 
-29.0152 -8.91958 -16.3315 -21.9176 -8.91958 -15.6688 -14.82 -8.91958 -14.5083 
-7.72248 -8.91958 -15.5817 -0.624918 -8.91958 -16.0062 6.47264 -8.91958 -16.1441 
13.5702 -8.91958 -16.1299 20.6678 -8.91958 -14.288 27.7653 -8.91958 -14.7314 
34.8629 -8.91958 -15.277 41.9604 -8.91958 -14.3052 49.058 -8.91958 -13.9748 
56.1556 -8.91958 -13.0867 -43.2103 -1.82202 -14.4688 -36.1127 -1.82202 -16.0153 
-29.0152 -1.82202 -16.2559 -21.9176 -1.82202 -15.4435 -14.82 -1.82202 -14.3498 
-7.72248 -1.82202 -16.7101 -0.624918 -1.82202 -14.1181 6.47264 -1.82202 -15.7308 
13.5702 -1.82202 -17.159 20.6678 -1.82202 -13.3015 27.7653 -1.82202 -14.1397 
34.8629 -1.82202 -15.1306 41.9604 -1.82202 -14.5437 49.058 -1.82202 -14.4746 
56.1556 -1.82202 -13.3631 -43.2103 5.27554 -14.4251 -36.1127 5.27554 -15.787 
-29.0152 5.27554 -16.3125 -21.9176 5.27554 -15.4558 -14.82 5.27554 -14.1093 
-7.72248 5.27554 -17.0576 -0.624918 5.27554 -15.5381 6.47264 5.27554 -15.9269 
13.5702 5.27554 -17.3024 20.6678 5.27554 -12.9933 27.7653 5.27554 -13.5003 
34.8629 5.27554 -14.3533 41.9604 5.27554 -13.6606 49.058 5.27554 -13.3629 
56.1556 5.27554 -12.4526 -43.2103 12.3731 -13.174 -36.1127 12.3731 -14.993 
-29.0152 12.3731 -15.629 -21.9176 12.3731 -15.5625 -14.82 12.3731 -15.142 
-7.72248 12.3731 -15.2536 -0.624918 12.3731 -15.1119 6.47264 12.3731 -15.5121 
13.5702 12.3731 -15.9602 20.6678 12.3731 -13.8457 27.7653 12.3731 -12.8481 
34.8629 12.3731 -12.5873 41.9604 12.3731 -13.0073 -36.1127 19.4707 -13.6732 
-29.0152 19.4707 -15.1406 -21.9176 19.4707 -16.5338 -14.82 19.4707 -16.1437 
-7.72248 19.4707 -15.6975 -0.624918 19.4707 -15.2872 6.47264 19.4707 -15.5382 
13.5702 19.4707 -15.9745 20.6678 19.4707 -14.9119 27.7653 19.4707 -12.9456 
34.8629 19.4707 -12.5288 -36.1127 26.5682 -12.1552 -29.0152 26.5682 -14.3156 
-21.9176 26.5682 -15.4425 -14.82 26.5682 -16.0938 -7.72248 26.5682 -15.4804 
-0.624918 26.5682 -14.9571 6.47264 26.5682 -14.7606 13.5702 26.5682 -15.0733 
20.6678 26.5682 -14.004 27.7653 26.5682 -12.9226 -21.9176 33.6658 -12.8971 
-14.82 33.6658 -13.5706 -7.72248 33.6658 -13.0067 -0.624918 33.6658 -12.122 
-14.82 -31.0941 -11.7305 -7.72248 -31.5057 -11.7305 -0.624918 -30.3671 -11.7305 
-36.1127 -25.1769 -11.7305 -36.1127 -30.2123 -7.16635 -29.0152 -28.401 -11.7305 
-29.0152 -30.2123 -10.6771 -20.3309 -30.2123 -11.7305 -21.9176 -29.789 -11.7305 
-21.9176 -30.2123 -11.5278 -0.168356 -30.2123 -11.7305 6.47264 -27.008 -11.7305 
6.47264 -30.2123 -9.34377 13.5702 -26.5128 -11.7305 13.5702 -30.2123 -7.92417 
20.6678 -27.0159 -11.7305 20.6678 -30.2123 -8.66486 27.7653 -27.0712 -11.7305 
27.7653 -30.2123 -9.3328 34.8629 -26.3717 -11.7305 34.8629 -30.2123 -7.74536 
-38.8815 -23.1147 -11.7305 -43.2103 -18.7486 -11.7305 -43.2103 -23.1147 -8.99015 
40.953 -23.1147 -11.7305 41.9604 -22.3733 -11.7305 41.9604 -23.1147 -11.3084 
49.058 -16.4431 -11.7305 49.058 -23.1147 -8.34649 -46.3785 -16.0171 -11.7305 
-50.3078 -16.0171 -8.66001 49.614 -16.0171 -11.7305 56.1556 -13.0293 -11.7305 
56.1556 -16.0171 -9.37659 -48.8789 -8.91958 -11.7305 -50.3078 -8.91958 -10.6876 
58.2285 -8.91958 -11.7305 -57.4054 -1.82202 -4.64318 -49.5411 -1.82202 -11.7305 
-50.3078 -1.82202 -11.3458 58.7696 -1.82202 -11.7305 63.2531 -1.82202 -5.34993 
-48.2163 5.27554 -11.7305 -50.3078 5.27554 -10.1354 49.058 8.56573 -11.7305 
57.2654 5.27554 -11.7305 56.1556 6.95541 -11.7305 -46.5561 12.3731 -11.7305 
-50.3078 12.3731 -8.88948 -43.2103 16.6099 -11.7305 44.7441 12.3731 -11.7305 
41.9604 14.5525 -11.7305 49.058 12.3731 -10.2701 56.1556 12.3731 -7.43575 
-41.0893 19.4707 -11.7305 -43.2103 19.4707 -10.6753 37.0276 19.4707 -11.7305 
34.8629 21.2531 -11.7305 41.9604 19.4707 -9.35448 49.058 19.4707 -6.40087 
-36.9045 26.5682 -11.7305 -43.2103 26.5682 -5.58392 -36.1127 27.3798 -11.7305 
-29.0152 31.9069 -11.7305 6.47264 33.1785 -11.7305 13.5702 32.898 -11.7305 
20.6678 32.2044 -11.7305 29.9733 26.5682 -11.7305 27.7653 28.6864 -11.7305 
34.8629 26.5682 -8.25386 -25.9312 33.6658 -11.7305 -29.0152 33.6658 -10.1703 
-21.9176 34.982 -11.7305 -14.82 35.8265 -11.7305 -7.72248 35.3571 -11.7305 
3.74378 33.6658 -11.7305 -0.624918 34.1633 -11.7305 6.47264 33.6658 -11.3601 
13.5702 33.6658 -11.0789 20.6678 33.6658 -10.734 27.7653 33.6658 -6.68905 
-36.1127 -32.3377 -4.63296 -29.0152 -34.8314 -4.63296 -21.9176 -36.1098 -4.63296 
-14.82 -36.9542 -4.63296 -7.72248 -36.8484 -4.63296 -0.624918 -35.8314 -4.63296 
6.47264 -33.5922 -4.63296 13.5702 -32.2089 -4.63296 20.6678 -32.7935 -4.63296 
27.7653 -33.5355 -4.63296 34.8629 -32.133 -4.63296 -40.8047 -30.2123 -4.63296 
-43.2103 -28.6617 -4.63296 40.8193 -30.2123 -4.63296 41.9604 -29.7638 -4.63296 
49.058 -25.5248 -4.63296 -48.4316 -23.1147 -4.63296 -50.3078 -20.5626 -4.63296 
51.8086 -23.1147 -4.63296 49.058 -23.1147 1.44905 56.1556 -19.325 -4.63296 
-52.8319 -16.0171 -4.63296 58.9744 -16.0171 -4.63296 56.1556 -16.0171 1.72472 
-56.1282 -8.91958 -4.63296 -57.4054 -1.86511 -4.63296 62.0229 -8.91958 -4.63296 
63.2531 -4.1261 -4.63296 -57.4119 -1.82202 -4.63296 -57.4054 -1.78772 -4.63296 
63.6711 -1.82202 -4.63296 63.2531 3.46919 -4.63296 63.2531 -1.82202 -3.28684 
-55.7242 5.27554 -4.63296 63.0419 5.27554 -4.63296 -53.1393 12.3731 -4.63296 
-50.3078 18.0448 -4.63296 58.4301 12.3731 -4.63296 56.1556 14.9184 -4.63296 
-49.6088 19.4707 -4.63296 41.9604 25.967 -4.63296 50.8097 19.4707 -4.63296 
49.058 20.8519 -4.63296 49.058 19.4707 0.675605 -43.8545 26.5682 -4.63296 
-43.2103 27.2162 -4.63296 -36.1127 32.7662 -4.63296 41.1166 26.5682 -4.63296 
34.8629 30.8288 -4.63296 -34.626 33.6658 -4.63296 -29.0152 36.4502 -4.63296 
-21.9176 38.6953 -4.63296 -14.82 39.9256 -4.63296 -7.72248 39.6641 -4.63296 
-0.624918 38.7164 -4.63296 6.47264 37.7701 -4.63296 13.5702 37.6228 -4.63296 
20.6678 37.2559 -4.63296 30.4933 33.6658 -4.63296 27.7653 34.9875 -4.63296 
27.7653 33.6658 0.81329 -36.1127 -33.461 2.4646 -29.0152 -35.6087 2.4646 
-21.9176 -36.6181 2.4646 -14.82 -37.2993 2.4646 -7.72248 -37.1935 2.4646 
-0.624918 -36.4492 2.4646 6.47264 -34.6123 2.4646 13.5702 -33.4182 2.4646 
20.6678 -33.5924 2.4646 27.7653 -33.825 2.4646 34.8629 -31.5983 2.4646 
-42.2549 -30.2123 2.4646 -43.2103 -29.5796 2.4646 27.7653 -30.2123 7.67159 
37.9617 -30.2123 2.4646 34.8629 -30.2123 4.48833 41.9604 -28.1925 2.4646 
-49.5609 -23.1147 2.4646 -50.3078 -22.144 2.4646 34.8629 -23.1147 9.11652 
48.5682 -23.1147 2.4646 41.9604 -23.1147 6.87166 49.058 -22.629 2.4646 
-54.1032 -16.0171 2.4646 55.6874 -16.0171 2.4646 49.058 -16.0171 6.72631 
56.1556 -15.2674 2.4646 -57.1366 -8.91958 2.4646 -57.4054 -6.28866 2.4646 
49.058 -8.91958 8.96749 59.5339 -8.91958 2.4646 56.1556 -8.91958 5.11057 
-57.8617 -1.82202 2.4646 -57.4054 1.57487 2.4646 -57.4054 -1.82202 3.65006 
61.2848 -1.82202 2.4646 56.1556 -1.82202 6.60054 -56.8972 5.27554 2.4646 
60.4613 5.27554 2.4646 56.1556 5.27554 6.14152 -54.7442 12.3731 2.4646 
-50.3078 19.2402 2.4646 41.9604 12.3731 8.9827 49.058 18.7422 2.4646 
49.058 12.3731 6.56978 56.2463 12.3731 2.4646 56.1556 12.4916 2.4646 
56.1556 12.3731 2.59728 -50.143 19.4707 2.4646 34.8629 19.4707 7.91029 
48.1742 19.4707 2.4646 41.9604 23.461 2.4646 41.9604 19.4707 5.82482 
-43.4391 26.5682 2.4646 -43.2103 26.7751 2.4646 -43.2103 26.5682 2.80964 
-36.1127 31.5169 2.4646 20.6678 26.5682 9.36046 27.7653 33.0611 2.4646 
27.7653 26.5682 7.03502 38.4379 26.5682 2.4646 34.8629 29.1941 2.4646 
34.8629 26.5682 4.84333 -31.1441 33.6658 2.4646 -29.0152 34.5046 2.4646 
-29.0152 33.6658 3.8413 -21.9176 36.603 2.4646 -21.9176 33.6658 6.6439 
-14.82 37.4223 2.4646 -14.82 33.6658 7.81002 -7.72248 37.9194 2.4646 
-7.72248 33.6658 8.81226 -0.624918 37.4933 2.4646 -0.624918 33.6658 8.51156 
6.47264 36.587 2.4646 6.47264 33.6658 6.96979 13.5702 36.0013 2.4646 
13.5702 33.6658 5.68706 26.4124 33.6658 2.4646 20.6678 35.398 2.4646 
20.6678 33.6658 4.7303 -36.1127 -30.3451 9.56217 -29.0152 -32.3848 9.56217 
-21.9176 -33.9237 9.56217 -14.82 -34.4304 9.56217 -7.72248 -34.6627 9.56217 
-0.624918 -34.216 9.56217 6.47264 -32.6876 9.56217 13.5702 -31.3507 9.56217 
20.6678 -30.4802 9.56217 -36.3484 -30.2123 9.56217 -43.2103 -25.246 9.56217 
-36.1127 -30.2123 9.71698 -29.0152 -30.2123 11.8939 -21.9176 -30.2123 13.6118 
-14.82 -30.2123 14.0637 -7.72248 -30.2123 14.6246 -0.624918 -30.2123 14.2745 
6.47264 -30.2123 12.5342 13.5702 -30.2123 10.8757 21.7628 -30.2123 9.56217 
20.6678 -30.2123 9.8556 27.7653 -27.4253 9.56217 -45.3093 -23.1147 9.56217 
-50.3078 -16.3458 9.56217 -43.2103 -23.1147 11.3415 -36.1127 -23.1147 14.5613 
-29.0152 -23.1147 16.566 6.47264 -23.1147 16.2729 13.5702 -23.1147 15.2406 
20.6678 -23.1147 14.101 33.6326 -23.1147 9.56217 27.7653 -23.1147 11.5986 
34.8629 -21.4615 9.56217 41.9604 -17.6167 9.56217 -50.506 -16.0171 9.56217 
-50.3078 -16.0171 9.76892 -43.2103 -16.0171 14.546 13.5702 -16.0171 16.4469 
20.6678 -16.0171 14.9258 27.7653 -16.0171 12.9773 34.8629 -16.0171 10.9877 
43.4451 -16.0171 9.56217 41.9604 -16.0171 10.192 -53.0244 -8.91958 9.56217 
-50.3078 -8.91958 12.3677 6.47264 -8.91958 15.8668 20.6678 -8.91958 14.5076 
27.7653 -8.91958 12.3004 34.8629 -8.91958 11.2881 45.8196 -8.91958 9.56217 
[...]
POINT_DATA 528
SCALARS ImageScalars float
LOOKUP_TABLE default
0 0 0 0 0 0 0 0 0 
0 0 0 0 0 0 0 0 0 
0 0 0 0 0 0 0 0 0 
0 0 0 0 0 0 0 0 0 
0 0 0 0 0 0 0 0 0 
0 0 0 0 0 0 0 0 0 
0 0 0 0 0 0 0 0 0 
0 0 0 0 0 0 0 0 0 
0 0 0 0 0 0 0 0 0 
0 0 0 0 0 0 0 0 0 
0 0 0 0 0 0 0 0 0 
0 0 0 0 0 0 0 0 0 
0 0 0 0 0 0 0 0 0 
0 0 0 0 0 0 0 0 0 
0 0 0 0 0 0 0 0 0 
0 0 0 0 0 0 0 0 0 
0 0 0 0 0 0 0 0 0 
0 0 0 0 0 0 0 0 0 
0 0 0 0 0 0 0 0 0 
0 0 0 0 0 0 0 0 0 
0 0 0 0 0 0 0 0 0 
0 0 0 0 0 0 0 0 0 
0 0 0 0 0 0 0 0 0 
0 0 0 0 0 0 0 0 0 
0 0 0 0 0 0 0 0 0 
0 0 0 0 0 0 0 0 0 
0 0 0 0 0 0 0 0 0 
0 0 0 0 0 0 0 0 0 
0 0 0 0 0 0 0 0 0 
0 0 0 0 0 0 0 0 0 
0 0 0 0 0 0 0 0 0 
0 0 0 0 0 0 0 0 0 
0 0 0 0 0 0 0 0 0 
0 0 0 0 0 0 0 0 0 
0 0 0 0 0 0 0 0 0 
0 0 0 0 0 0 0 0 0 
0 0 0 0 0 0 0 0 0 
0 0 0 0 0 0 0 0 0 
0 0 0 0 0 0 0 0 0 
0 0 0 0 0 0 0 0 0 
0 0 0 0 0 0 0 0 0 
0 0 0 0 0 0 0 0 0 
0 0 0 0 0 0 0 0 0 
0 0 0 0 0 0 0 0 0 
0 0 0 0 0 0 0 0 0 
0 0 0 0 0 0 0 0 0 
0 0 0 0 0 0 0 0 0 
0 0 0 0 0 0 0 0 0 
0 0 0 0 0 0 0 0 0 
0 0 0 0 0 0 0 0 0 
0 0 0 0 0 0 0 0 0 
0 0 0 0 0 0 0 0 0 
0 0 0 0 0 0 0 0 0 
0 0 0 0 0 0 0 0 0 
0 0 0 0 0 0 0 0 0 
0 0 0 0 0 0 0 0 0 
0 0 0 0 0 0 0 0 0 
0 0 0 0 0 0 0 0 0 
0 0 0 0 0 0 
NORMALS Normals float
0.0728151 0.530657 0.844453 -0.0395761 0.499513 0.865402 -0.173203 0.527679 0.831598 
0.260059 0.383126 0.886332 0.104093 0.300519 0.948078 0.0638399 0.227832 0.971605 
0.0472331 0.154878 0.986804 -0.0325578 0.187219 0.981779 -0.0986458 0.216166 0.97136 
-0.0424023 0.331603 0.942466 0.0285285 0.393507 0.918879 0.00194723 0.326432 0.945219 
-0.0318405 0.318147 0.947507 -0.1457 0.329981 0.932676 0.323557 0.346249 0.880581 
0.128946 0.241173 0.961878 0.0268466 0.153969 0.987711 -0.013337 0.0903669 0.995819 
0.0203378 -0.0255259 0.999467 0.00160679 0.035016 0.999385 -0.02728 0.105893 0.994003 
0.0333357 0.171585 0.984605 -0.00893208 0.153808 0.98806 -0.0501263 0.0138508 0.998647 
-0.0303464 0.0584841 0.997827 0.0166229 0.124754 0.992049 -0.165077 0.163727 0.972596 
-0.313439 0.271212 0.910055 0.331807 0.0677089 0.940914 0.121593 0.0773568 0.989561 
-0.050397 0.0650277 0.99661 -0.123967 0.0164018 0.992151 -0.0132165 -0.0567007 0.998304 
0.107253 0.0663004 0.992019 0.0381131 -0.0269541 0.99891 0.00851892 0.0530467 0.998556 
-0.137651 0.0857588 0.986761 -0.0888101 -0.115938 0.989278 0.0693521 -0.0543169 0.996112 
-0.0294775 0.0399991 0.998765 -0.0879948 -0.0387702 0.995366 -0.119303 0.184318 0.975599 
-0.395682 0.230744 0.888928 0.28928 -0.0220511 0.95699 0.117348 -0.0419742 0.992203 
-0.0401092 -0.00132352 0.999194 -0.135561 -0.0148059 0.990658 0.0405218 -0.0278995 0.998789 
0.0608011 0.108152 0.992273 -0.0576826 -0.069697 0.995899 0.173429 -0.0212988 0.984616 
-0.251648 0.0961366 0.963032 -0.118214 -0.0939924 0.98853 0.126023 -0.0858465 0.988306 
0.0286446 -0.0638541 0.997548 -0.0455219 -0.0412167 0.998113 -0.123598 -0.0357659 0.991688 
-0.373673 -0.0501621 0.926203 0.331748 -0.0700161 0.940766 0.135708 -0.0662474 0.988532 
-0.0212509 -0.0443541 0.99879 -0.155233 0.00839858 0.987842 0.0557981 0.056994 0.996814 
0.154696 -0.127668 0.979679 -0.0742859 0.0456733 0.996191 0.0853511 -0.0209652 0.99613 
-0.291175 -0.104077 0.950992 -0.126061 0.0386029 0.991271 0.0934101 -0.0900191 0.99155 
0.0149449 -0.175485 0.984369 -0.0621676 -0.0933832 0.993687 -0.113439 -0.311705 0.943383 
-0.399509 -0.302683 0.865318 0.328998 -0.238657 0.913676 0.151754 -0.151954 0.976668 
0.0370915 -0.0819728 0.995944 -0.0340936 0.0740839 0.996669 -0.0218154 0.142233 0.989593 
-0.00219499 -0.0623282 0.998053 0.0175134 -0.010073 0.999796 0.0600559 -0.0225377 0.997941 
-0.12403 -0.0517021 0.990931 -0.209596 0.13401 0.968561 -0.0863488 -0.0394044 0.995485 
0.00390335 -0.13049 0.991442 -0.169167 -0.304147 0.937485 0.267191 -0.189723 0.944783 
0.188075 -0.0846412 0.978501 0.0709306 -0.00595816 0.997463 -0.0580266 0.0667822 0.996079 
-0.0602092 0.0141476 0.998085 -0.0112666 -0.0117869 0.999867 0.0479919 -0.0517595 0.997506 
-0.0418719 -0.0599313 0.997324 -0.209749 0.0136226 0.97766 -0.175186 0.00532931 0.984521 
-0.221695 -0.238014 0.945622 0.406109 -0.35804 0.840763 0.227302 -0.273779 0.934547 
0.113952 -0.226761 0.967261 -0.00141925 -0.152302 0.988333 -0.0771417 -0.171096 0.98223 
-0.0517697 -0.198803 0.978671 0.00654666 -0.235724 0.971798 -0.050512 -0.278537 0.959096 
-0.152727 -0.242081 0.95816 -0.331323 -0.271929 0.903482 0.175468 -0.580772 0.794931 
0.00400682 -0.542207 0.840236 -0.0907104 -0.532025 0.841856 -0.0982919 -0.578687 0.809605 
0.0709769 0.576409 0.814073 -0.037189 0.567766 0.822349 -0.174511 0.535573 0.826261 
0.279351 0.463877 0.840702 0.348972 0.753527 0.55715 0.175719 0.484429 0.857001 
0.217653 0.591422 0.776432 0.0886031 0.512655 0.854011 0.0922433 0.487974 0.86797 
0.0940827 0.513146 0.853129 -0.173176 0.535528 0.826571 -0.110677 0.504383 0.856358 
-0.195609 0.709411 0.677107 0.00350168 0.578071 0.815979 -0.0354429 0.842642 0.537306 
0.024131 0.555002 0.831499 0.0646753 0.808589 0.584809 -0.0299788 0.495838 0.867898 
-0.0433556 0.737274 0.674201 -0.150744 0.535398 0.831038 -0.204915 0.855378 0.47575 
0.332941 0.417174 0.845645 0.369068 0.408601 0.834766 0.511332 0.512279 0.690007 
-0.259981 0.445709 0.856594 -0.271174 0.438716 0.856734 -0.288329 0.479258 0.828962 
-0.318674 0.281745 0.905023 -0.571555 0.641806 0.511282 0.454133 0.340858 0.823152 
0.703987 0.359989 0.612217 -0.325914 0.292206 0.899108 -0.46022 0.406337 0.789359 
-0.589724 0.548747 0.592539 0.546773 0.0849466 0.832961 0.618319 0.108005 0.778471 
-0.600058 0.265364 0.754661 0.931201 -0.0200288 0.363955 0.492826 -0.0288814 0.869649 
0.528695 -0.0304508 0.848265 -0.585121 -0.0522014 0.809264 -0.979155 0.0468367 0.197639 
0.531194 -0.07869 0.843588 0.635494 -0.113503 0.763717 -0.171881 -0.32041 0.931555 
-0.474876 -0.333364 0.81447 -0.427928 -0.394951 0.812952 0.461882 -0.262083 0.847336 
0.708069 -0.299127 0.639658 0.419737 -0.30804 0.853775 -0.222473 -0.32231 0.920121 
-0.227851 -0.341511 0.911841 -0.311505 -0.374221 0.873455 -0.664628 -0.624387 0.410378 
0.425785 -0.286152 0.858384 0.518636 -0.365104 0.773121 -0.251346 -0.28911 0.92371 
-0.275021 -0.293819 0.915442 -0.36379 -0.47987 0.798362 -0.556197 -0.759428 0.337511 
0.431968 -0.373997 0.820689 0.702346 -0.644458 0.302296 0.419044 -0.400604 0.814812 
0.295213 -0.547221 0.783198 -0.0540955 -0.629411 0.775187 -0.029811 -0.636279 0.770883 
-0.185818 -0.532186 0.825984 -0.370077 -0.330247 0.86832 -0.344313 -0.39905 0.849828 
-0.504443 -0.560419 0.656862 0.251646 -0.62165 0.741772 0.345079 -0.719782 0.602357 
0.177415 -0.66633 0.724244 0.024768 -0.654034 0.75606 -0.0872533 -0.618899 0.780609 
-0.0752225 -0.628409 0.774237 -0.104703 -0.602992 0.790847 -0.0590993 -0.676838 0.733756 
-0.0278846 -0.709755 0.703897 -0.204012 -0.671867 0.712021 -0.39381 -0.84637 0.358568 
0.371195 0.840982 0.393653 0.233027 0.911372 0.339263 0.132941 0.946077 0.295407 
0.051016 0.952487 0.300276 -0.0729676 0.957533 0.278938 -0.210944 0.926946 0.31028 
-0.245618 0.898015 0.365021 -0.0506795 0.93215 0.358507 0.0892746 0.93991 0.329543 
-0.0513964 0.950427 0.306669 -0.248081 0.936649 0.247275 0.502886 0.784479 0.362902 
0.577095 0.733532 0.359016 -0.388648 0.909332 0.14855 -0.416445 0.898549 0.138501 
-0.610845 0.785753 0.0972668 0.706272 0.606984 0.36435 0.763286 0.551261 0.336905 
-0.65133 0.752782 0.0953304 -0.626848 0.635725 -0.450462 -0.741381 0.666435 0.0788573 
0.829857 0.435937 0.348275 -0.843024 0.529558 0.0942317 -0.71674 0.549689 -0.429098 
0.885648 0.253371 0.389141 0.931478 -0.018324 0.363336 -0.929336 0.35145 0.113213 
-0.978497 0.150078 0.141493 0.931473 -0.0200188 0.363259 0.931406 -0.0209848 0.363377 
-0.986381 0.0533324 0.155591 -0.955429 -0.241122 0.170341 -0.997522 0.0516514 0.0477601 
0.880572 -0.228923 0.414956 -0.923062 -0.341384 0.17724 0.843628 -0.384481 0.374787 
0.81702 -0.47244 0.330575 -0.771879 -0.598971 0.213159 -0.709496 -0.671287 0.214449 
0.80103 -0.499602 0.329771 -0.562243 -0.804506 0.191451 -0.596873 -0.772969 0.215087 
-0.583739 -0.783636 0.212516 -0.580407 -0.789848 -0.198161 0.710896 -0.663194 0.234097 
0.700671 -0.677267 0.22443 0.554995 -0.824049 0.113687 -0.568535 -0.798424 0.198207 
-0.573736 -0.791671 0.209964 0.51219 -0.853739 0.0937586 0.365323 -0.928541 0.0659617 
0.244625 -0.96769 0.0611067 0.0688413 -0.99661 0.0450585 -0.0859929 -0.990908 0.103475 
-0.136139 -0.978698 0.153674 -0.0785052 -0.984484 0.156937 -0.0367597 -0.990492 0.132567 
-0.184252 -0.976178 0.114578 -0.470029 -0.868705 0.15628 -0.398773 -0.898325 0.184372 
-0.421147 -0.827382 -0.371583 0.393317 0.911106 -0.123235 0.206999 0.969324 -0.132524 
0.115408 0.985278 -0.126127 0.0402176 0.988735 -0.144172 -0.0590236 0.989958 -0.128448 
-0.176584 0.979738 -0.0945067 -0.212187 0.975749 -0.0537595 -0.0697087 0.996472 -0.0467254 
0.0277798 0.990879 -0.131857 -0.137883 0.953478 -0.268083 -0.362696 0.863281 -0.350996 
0.566094 0.809062 -0.157976 0.594823 0.787636 -0.160671 -0.240193 0.725888 -0.644511 
-0.401728 0.82705 -0.393196 -0.380129 0.775866 -0.503522 -0.449895 0.762657 -0.464703 
0.755074 0.637989 -0.151107 0.774003 0.615089 -0.150282 -0.328642 0.342993 -0.879972 
-0.60205 0.602863 -0.523537 -0.417997 0.517983 -0.746306 -0.604641 0.59449 -0.530085 
0.873185 0.468279 -0.135143 -0.688162 0.534799 -0.490329 -0.402445 0.405441 -0.820765 
-0.691793 0.526534 -0.49415 0.960501 0.233144 -0.151929 0.977835 0.141513 -0.154314 
-0.384794 0.300528 -0.872706 -0.721123 0.364527 -0.589153 -0.569432 0.268112 -0.777086 
0.987593 -0.0151939 -0.1563 0.98429 -0.0952736 -0.148651 0.97389 -0.01346 -0.226621 
-0.849541 0.0472391 -0.525403 -0.502631 0.0683275 -0.861797 0.971725 -0.190121 -0.140012 
-0.790931 -0.303902 -0.531104 -0.5646 -0.16669 -0.808358 0.886821 -0.44278 -0.132264 
0.785327 -0.592631 -0.179027 -0.218056 -0.28797 -0.932483 -0.551234 -0.738982 -0.387358 
-0.356881 -0.424299 -0.83223 -0.662339 -0.618732 -0.422467 -0.659772 -0.622194 -0.421398 
-0.658504 -0.615753 -0.43269 0.78142 -0.596913 -0.181869 -0.24274 -0.364337 -0.899075 
-0.540488 -0.748695 -0.383835 -0.523761 -0.730866 -0.437618 -0.305903 -0.544585 -0.780929 
0.632863 -0.73053 -0.256536 0.629673 -0.733351 -0.256335 0.627953 -0.727777 -0.275711 
0.454911 -0.823826 -0.338182 -0.264156 -0.35761 -0.895732 -0.395381 -0.74116 -0.542546 
-0.306859 -0.458128 -0.83424 -0.532159 -0.723983 -0.438925 -0.504923 -0.721921 -0.473163 
-0.400766 -0.602096 -0.690556 0.353755 -0.852382 -0.385101 0.308646 -0.863277 -0.399363 
0.301849 -0.841851 -0.447409 0.183713 -0.881941 -0.434085 0.160756 -0.781149 -0.603294 
0.0883453 -0.883701 -0.459639 0.0987506 -0.756151 -0.646904 0.00297924 -0.918573 -0.39524 
0.0319506 -0.733566 -0.678867 -0.0908102 -0.933078 -0.348021 -0.0830487 -0.750336 -0.655819 
-0.100262 -0.926646 -0.362319 -0.128794 -0.794658 -0.593237 -0.0808717 -0.896625 -0.435342 
-0.107214 -0.790285 -0.603286 -0.356919 -0.773586 -0.523616 -0.163413 -0.865117 -0.474203 
-0.196703 -0.771732 -0.604762 0.359738 0.738879 -0.569777 0.218995 0.778923 -0.58764 
0.118002 0.831915 -0.542211 0.0455297 0.833842 -0.550122 -0.0141075 0.858872 -0.511995 
-0.126048 0.862688 -0.489777 -0.187951 0.847831 -0.49584 -0.142129 0.831171 -0.537544 
-0.162962 0.757065 -0.63269 0.366264 0.735585 -0.569882 0.546488 0.589003 -0.595338 
0.359151 0.733721 -0.576771 0.211864 0.689444 -0.692662 0.115514 0.643986 -0.756266 
0.0566494 0.633524 -0.771647 0.0129438 0.613426 -0.789646 -0.113728 0.626279 -0.771259 
-0.192984 0.694789 -0.692839 -0.150196 0.765892 -0.62518 -0.180846 0.732636 -0.656155 
-0.165287 0.741922 -0.649794 -0.286302 0.496527 -0.819446 0.59248 0.545455 -0.592829 
0.692236 0.384039 -0.611002 0.518092 0.516269 -0.681944 0.305249 0.464604 -0.831244 
0.202758 0.404882 -0.891605 -0.159353 0.222478 -0.961827 -0.14473 0.316363 -0.937533 
-0.243018 0.284696 -0.927303 -0.319583 0.324545 -0.890245 -0.304216 0.27774 -0.911215 
-0.295531 0.290809 -0.909995 -0.30559 0.273187 -0.912131 0.695278 0.376499 -0.61224 
0.688289 0.375197 -0.620875 0.469049 0.314525 -0.825268 -0.118 0.105423 -0.987402 
-0.245998 0.0273232 -0.968885 -0.260969 0.0441822 -0.964336 -0.215064 0.138088 -0.966788 
-0.293457 0.248684 -0.92306 -0.275186 0.203023 -0.93971 0.724253 0.206575 -0.657863 
0.64621 0.192816 -0.7384 -0.107718 -0.11647 -0.987336 -0.314971 -0.043689 -0.948095 
-0.215728 -0.0571682 -0.974779 -0.142932 0.0507016 -0.988433 -0.276732 0.185322 -0.942908 
-0.148667 0.0571594 -0.987234 -0.361198 0.232653 -0.903 0.765753 -0.00905045 -0.643071 
0.605549 -0.0104024 -0.79574 -0.122921 -0.0286457 -0.992003 -0.380737 -0.126813 -0.915946 
-0.153763 -0.014108 -0.988007 -0.0789735 -0.00711737 -0.996851 -0.0981186 0.0363435 -0.994511 
-0.339625 0.0764721 -0.937447 -0.308981 0.0867064 -0.947108 0.715925 -0.188781 -0.672171 
0.637913 -0.190473 -0.746181 0.372583 -0.196895 -0.90687 -0.167078 0.084539 -0.982313 
-0.194909 -0.205101 -0.959137 -0.240546 -0.18544 -0.952759 -0.0916552 -0.10157 -0.990597 
-0.0946732 -0.0971542 -0.990756 -0.157303 -0.230178 -0.960351 -0.040847 -0.141763 -0.989057 
-0.388571 -0.217134 -0.895469 -0.339061 -0.282983 -0.897195 -0.349082 -0.232565 -0.907775 
0.66883 -0.364825 -0.647742 0.661724 -0.378136 -0.647406 0.652092 -0.363889 -0.665102 
0.409484 -0.314593 -0.856361 -0.0509344 -0.188771 -0.980699 -0.0728396 -0.00836842 -0.997309 
-0.342214 -0.12554 -0.931198 -0.231265 -0.0829839 -0.969345 -0.0835329 -0.163827 -0.982946 
-0.167275 -0.253232 -0.952834 -0.147032 -0.260335 -0.954257 -0.118107 -0.225359 -0.96709 
0.552923 -0.529833 -0.643081 0.513907 -0.54693 -0.660883 0.480042 -0.503955 -0.718045 
0.277469 -0.433791 -0.857226 0.172972 -0.395217 -0.902155 -0.107484 -0.18602 -0.976649 
-0.0536762 -0.12627 -0.990543 -0.102226 -0.206868 -0.973014 -0.290666 -0.190725 -0.937623 
-0.265857 -0.332327 -0.904919 -0.275077 -0.133771 -0.95207 -0.234231 -0.246458 -0.940422 
-0.237597 -0.24771 -0.939248 -0.2351 -0.23988 -0.941905 0.352132 -0.645939 -0.677322 
0.350182 -0.646859 -0.677456 0.350243 -0.64573 -0.6785 0.216701 -0.671959 -0.708175 
0.197758 -0.585859 -0.785914 0.140671 -0.674993 -0.72429 0.123178 -0.554753 -0.822847 
0.0985244 -0.688451 -0.71856 0.0580109 -0.515036 -0.855203 0.0307714 -0.692311 -0.720943 
0.000841557 -0.423698 -0.905803 -0.0814621 -0.685556 -0.723448 -0.0697129 -0.393579 -0.916644 
-0.147054 -0.655855 -0.740425 -0.152192 -0.463447 -0.872957 -0.260299 -0.365909 -0.893507 
-0.1908 -0.556388 -0.80872 -0.228517 -0.457037 -0.859592 0.0874049 0.432829 -0.897229 
0.0283979 0.398589 -0.91669 2.16546e-05 0.380371 -0.924834 -0.112024 0.331748 -0.936693 
0.285395 0.353218 -0.890947 0.193952 0.401154 -0.895242 0.199606 0.39839 -0.895233 
0.0763845 0.359679 -0.929944 0.013263 0.297063 -0.954766 -0.0159537 0.232732 -0.97241 
-0.144579 0.218886 -0.96498 -0.113339 0.224692 -0.967816 -0.123475 -0.0234247 -0.992071 
0.357086 0.289628 -0.888034 0.387542 0.169014 -0.906226 0.272792 0.278971 -0.920739 
0.112211 0.251501 -0.96133 -0.000591424 0.179027 -0.983844 -0.0682896 0.0786826 -0.994558 
-0.0585894 -0.0154923 -0.998162 -0.132944 0.0593367 -0.989346 -0.122104 -0.0238395 -0.992231 
-0.122165 -0.0318777 -0.991998 -0.122288 -0.0306736 -0.992021 -0.0989043 0.0804235 -0.991842 
0.38816 0.167346 -0.906271 0.38633 0.166679 -0.907175 0.24129 0.108845 -0.96433 
0.0790792 0.100246 -0.991815 -0.0991577 0.0555986 -0.993517 -0.18344 -0.00784662 -0.983 
-0.0410221 -0.0659022 -0.996983 -0.121333 -0.0506895 -0.991317 -0.132397 0.10582 -0.985532 
-0.0917282 0.0431531 -0.994849 -0.100536 0.0617729 -0.993014 -0.0879351 0.0666782 -0.993892 
0.400052 -0.0145005 -0.916378 0.367896 -0.145547 -0.918406 0.360386 -0.0185225 -0.932619 
0.219071 -0.0293513 -0.975267 0.0619075 -0.0403774 -0.997265 -0.101075 -0.0531648 -0.993457 
-0.190396 -0.0278998 -0.981311 0.0570299 0.00382216 -0.998365 -0.184372 -0.0174391 -0.982702 
-0.168449 0.0178464 -0.985549 -0.0687365 -0.0459796 -0.996575 -0.123787 -0.0712805 -0.989745 
-0.112314 -0.129318 -0.985222 -0.0317747 -0.0518498 -0.998149 0.354948 -0.196764 -0.913945 
0.222822 -0.185146 -0.957116 0.0566952 -0.159846 -0.985513 -0.0864532 -0.132545 -0.987399 
-0.118944 -0.0503826 -0.991622 -0.0118967 -0.0471007 -0.998819 -0.169758 -0.0596328 -0.98368 
-0.089532 -0.226364 -0.969919 -0.166469 -0.291446 -0.941991 0.250464 -0.296023 -0.921758 
0.24651 -0.299144 -0.921817 0.245593 -0.295474 -0.923244 0.150746 -0.345398 -0.92627 
0.112504 -0.265522 -0.957518 0.00164747 -0.191492 -0.981493 -0.10309 -0.112628 -0.988275 
-0.138016 -0.129727 -0.981897 -0.14394 -0.136647 -0.980107 -0.165061 -0.108318 -0.980317 
0.0831387 -0.331983 -0.939614 0.0793541 -0.331533 -0.9401 0.0786779 -0.329013 -0.941042 
-0.0662232 -0.235224 -0.969683 -0.023709 -0.299643 -0.953757 -0.0334709 -0.272596 -0.961546 

