# vtk DataFile Version 4.2
vtk output
ASCII
DATASET POLYDATA
POINTS 534 float
-23.7901 -48.4716 -15.0509 -14.5817 -48.4716 -15.2904 -5.37337 -48.4716 -14.6282 
3.83498 -48.4716 -13.9709 -42.2068 -39.2632 -15.4363 -32.9984 -39.2632 -17.7962 
-23.7901 -39.2632 -19.1393 -14.5817 -39.2632 -18.3918 -5.37337 -39.2632 -17.5525 
3.83498 -39.2632 -17.2129 13.0433 -39.2632 -17.5178 22.2517 -39.2632 -18.2431 
31.46 -39.2632 -17.494 40.6684 -39.2632 -15.816 -51.4151 -30.0549 -15.7058 
-42.2068 -30.0549 -18.6279 -32.9984 -30.0549 -19.392 -23.7901 -30.0549 -19.815 
-14.5817 -30.0549 -18.7668 -5.37337 -30.0549 -17.9267 3.83498 -30.0549 -17.8597 
13.0433 -30.0549 -18.8005 22.2517 -30.0549 -20.1455 31.46 -30.0549 -20.1061 
40.6684 -30.0549 -20.7859 49.8767 -30.0549 -18.7035 59.0851 -30.0549 -15.0802 
-60.6235 -20.8465 -14.9705 -51.4151 -20.8465 -18.8298 -42.2068 -20.8465 -21.1402 
-32.9984 -20.8465 -20.4104 -23.7901 -20.8465 -19.2483 -14.5817 -20.8465 -17.9172 
-5.37337 -20.8465 -17.5351 3.83498 -20.8465 -17.8537 13.0433 -20.8465 -18.9678 
22.2517 -20.8465 -20.2579 31.46 -20.8465 -20.8649 40.6684 -20.8465 -21.268 
49.8767 -20.8465 -21.3969 59.0851 -20.8465 -21.4795 68.2934 -20.8465 -15.8195 
-69.8318 -11.6382 -13.6454 -60.6235 -11.6382 -18.9413 -51.4151 -11.6382 -20.418 
-42.2068 -11.6382 -20.7757 -32.9984 -11.6382 -20.1498 -23.7901 -11.6382 -18.7534 
-14.5817 -11.6382 -16.6712 -5.37337 -11.6382 -20.2558 3.83498 -11.6382 -19.7831 
13.0433 -11.6382 -19.2323 22.2517 -11.6382 -19.4547 31.46 -11.6382 -20.7307 
40.6684 -11.6382 -21.4888 49.8767 -11.6382 -22.2468 59.0851 -11.6382 -20.0332 
68.2934 -11.6382 -17.3489 -69.8318 -2.42981 -15.6006 -60.6235 -2.42981 -18.4706 
-51.4151 -2.42981 -20.595 -42.2068 -2.42981 -20.6078 -32.9984 -2.42981 -19.8741 
-23.7901 -2.42981 -18.568 -14.5817 -2.42981 -19.3361 -5.37337 -2.42981 -21.2896 
3.83498 -2.42981 -19.0762 13.0433 -2.42981 -22.0293 22.2517 -2.42981 -18.7136 
31.46 -2.42981 -20.0977 40.6684 -2.42981 -21.4016 49.8767 -2.42981 -21.5449 
59.0851 -2.42981 -20.3929 68.2934 -2.42981 -17.8748 -69.8318 6.77855 -13.907 
-60.6235 6.77855 -16.9497 -51.4151 6.77855 -18.3913 -42.2068 6.77855 -18.8888 
-32.9984 6.77855 -18.2657 -23.7901 6.77855 -17.4656 -14.5817 6.77855 -20.0493 
-5.37337 6.77855 -18.7778 3.83498 6.77855 -21.1937 13.0433 6.77855 -20.6038 
22.2517 6.77855 -18.8321 31.46 6.77855 -20.2812 40.6684 6.77855 -21.4571 
49.8767 6.77855 -22.6333 59.0851 6.77855 -20.5574 68.2934 6.77855 -18.0345 
-60.6235 15.9869 -14.8604 -51.4151 15.9869 -15.4735 -42.2068 15.9869 -15.9401 
-32.9984 15.9869 -15.7498 -23.7901 15.9869 -15.7466 -14.5817 15.9869 -17.636 
-5.37337 15.9869 -17.2133 3.83498 15.9869 -19.8679 13.0433 15.9869 -20.5606 
22.2517 15.9869 -20.4572 31.46 15.9869 -20.9803 40.6684 15.9869 -21.5958 
49.8767 15.9869 -22.1549 59.0851 15.9869 -19.563 68.2934 15.9869 -15.5521 
-23.7901 25.1953 -13.6046 -14.5817 25.1953 -14.769 -5.37337 25.1953 -16.2344 
3.83498 25.1953 -18.8646 13.0433 25.1953 -20.778 22.2517 25.1953 -21.324 
31.46 25.1953 -21.6747 40.6684 25.1953 -20.993 49.8767 25.1953 -19.7511 
59.0851 25.1953 -17.9418 68.2934 25.1953 -13.6877 3.83498 34.4036 -16.7429 
13.0433 34.4036 -19.2674 22.2517 34.4036 -19.7903 31.46 34.4036 -19.2752 
40.6684 34.4036 -18.5101 49.8767 34.4036 -16.455 59.0851 34.4036 -13.5633 
22.2517 43.612 -13.9564 -23.7901 -50.8368 -13.454 -14.5817 -51.4805 -13.454 
-5.37337 -50.6171 -13.454 3.83498 -49.3746 -13.454 -42.2068 -42.1375 -13.454 
-31.1057 -48.4716 -13.454 -32.9984 -47.6548 -13.454 -32.9984 -48.4716 -12.6534 
12.9749 -48.4716 -13.454 13.0433 -48.4632 -13.454 13.0433 -48.4716 -13.4482 
22.2517 -46.0473 -13.454 22.2517 -48.4716 -10.6746 31.46 -44.1699 -13.454 
31.46 -48.4716 -4.75212 40.6684 -42.244 -13.454 -45.9041 -39.2632 -13.454 
-51.4151 -34.1642 -13.454 -51.4151 -39.2632 -5.91598 48.2584 -39.2632 -13.454 
49.8767 -38.5533 -13.454 49.8767 -39.2632 -11.4352 59.0851 -32.1007 -13.454 
-54.9456 -30.0549 -13.454 -60.6235 -23.5829 -13.454 -60.6235 -30.0549 -4.87667 
61.4033 -30.0549 -13.454 68.2934 -24.7651 -13.454 -62.5823 -20.8465 -13.454 
-69.8318 -12.0126 -13.454 71.0362 -20.8465 -13.454 -70.0466 -11.6382 -13.454 
73.4964 -11.6382 -13.454 77.5018 -11.6382 -4.57626 -72.5476 -2.42981 -13.454 
74.9801 -2.42981 -13.454 77.5018 -2.42981 -10.1581 -70.4283 6.77855 -13.454 
-69.8318 7.77486 -13.454 76.7355 6.77855 -13.454 77.5018 6.77855 -12.6825 
-63.2496 15.9869 -13.454 -69.8318 15.9869 -9.10088 -60.6235 19.4446 -13.454 
-51.4151 21.4501 -13.454 -42.2068 22.2393 -13.454 -32.9984 24.0803 -13.454 
71.471 15.9869 -13.454 77.5018 15.9869 -6.58178 -60.6235 25.1953 -10.0966 
-51.4151 25.1953 -11.8364 -42.2068 25.1953 -12.203 -26.862 25.1953 -13.454 
-32.9984 25.1953 -13.1264 -23.7901 25.6287 -13.454 -14.5817 28.341 -13.454 
-5.37337 32.0536 -13.454 68.5956 25.1953 -13.454 68.2934 25.5459 -13.454 
-51.4151 34.4036 -5.3161 -42.2068 34.4036 -8.00789 -32.9984 34.4036 -9.27793 
-23.7901 34.4036 -10.0309 -14.5817 34.4036 -10.7223 -3.15724 34.4036 -13.454 
-5.37337 34.4036 -12.3211 3.83498 39.3208 -13.454 13.0433 43.3514 -13.454 
31.46 42.8269 -13.454 40.6684 40.8473 -13.454 49.8767 37.7076 -13.454 
59.248 34.4036 -13.454 59.0851 34.5155 -13.454 -32.9984 43.612 -4.75649 
-23.7901 43.612 -5.20245 -14.5817 43.612 -4.65875 -5.37337 43.612 -4.67554 
3.83498 43.612 -8.78075 15.6201 43.612 -13.454 13.0433 43.612 -13.1555 
26.1834 43.612 -13.454 22.2517 44.0517 -13.454 31.46 43.612 -12.0768 
40.6684 43.612 -7.84106 -32.9984 -53.0425 -4.2457 -23.7901 -56.1155 -4.2457 
-14.5817 -57.4389 -4.2457 -5.37337 -57.6033 -4.2457 3.83498 -56.9093 -4.2457 
13.0433 -54.8409 -4.2457 22.2517 -52.0456 -4.2457 31.46 -48.6648 -4.2457 
-51.4151 -39.8872 -4.2457 -41.1631 -48.4716 -4.2457 -42.2068 -47.8073 -4.2457 
31.9416 -48.4716 -4.2457 31.46 -48.4716 -3.57019 40.6684 -44.9851 -4.2457 
49.8767 -40.9757 -4.2457 -52.0594 -39.2632 -4.2457 -60.6235 -30.3436 -4.2457 
-51.4151 -39.2632 -2.06356 52.755 -39.2632 -4.2457 49.8767 -39.2632 -0.993189 
59.0851 -35.0519 -4.2457 -60.9116 -30.0549 -4.2457 -60.6235 -30.0549 -3.31086 
64.9875 -30.0549 -4.2457 59.0851 -30.0549 3.32383 68.2934 -26.843 -4.2457 
-68.8237 -20.8465 -4.2457 -69.8318 -19.5067 -4.2457 73.095 -20.8465 -4.2457 
68.2934 -20.8465 3.25095 77.5018 -11.8287 -4.2457 -75.0225 -11.6382 -4.2457 
77.5939 -11.6382 -4.2457 77.5018 -11.6382 -4.04007 -78.5602 -2.42981 -4.2457 
79.9202 -2.42981 -4.2457 77.5018 -2.42981 2.47824 -77.9543 6.77855 -4.2457 
81.1833 6.77855 -4.2457 -76.1416 15.9869 -4.2457 -69.8318 24.0835 -4.2457 
78.6371 15.9869 -4.2457 77.5018 19.1576 -4.2457 77.5018 15.9869 1.05175 
-68.7549 25.1953 -4.2457 -69.8318 25.1953 -2.51489 -60.6235 31.6244 -4.2457 
74.6721 25.1953 -4.2457 68.2934 32.0257 -4.2457 -54.114 34.4036 -4.2457 
-60.6235 34.4036 -0.465508 -51.4151 35.7561 -4.2457 -42.2068 40.8973 -4.2457 
49.8767 41.9764 -4.2457 65.2755 34.4036 -4.2457 59.0851 38.1926 -4.2457 
-51.4151 43.612 3.89525 -35.4362 43.612 -4.2457 -42.2068 43.612 -2.31938 
-32.9984 44.2007 -4.2457 -23.7901 44.6785 -4.2457 -14.5817 44.1031 -4.2457 
-5.37337 43.9385 -4.2457 3.83498 46.211 -4.2457 13.0433 48.1444 -4.2457 
22.2517 47.733 -4.2457 31.46 46.6045 -4.2457 44.8171 43.612 -4.2457 
40.6684 44.966 -4.2457 -32.9984 -50.4432 4.96266 -23.7901 -52.7825 4.96266 
-14.5817 -55.0262 4.96266 -5.37337 -56.5211 4.96266 3.83498 -56.0919 4.96266 
13.0433 -53.6841 4.96266 22.2517 -50.1052 4.96266 -36.5995 -48.4716 4.96266 
-42.2068 -44.3398 4.96266 -32.9984 -48.4716 7.45316 -23.7901 -48.4716 9.23934 
-14.5817 -48.4716 10.9581 -5.37337 -48.4716 12.4202 3.83498 -48.4716 12.7739 
13.0433 -48.4716 10.868 25.7629 -48.4716 4.96266 22.2517 -48.4716 7.11312 
31.46 -45.0084 4.96266 40.6684 -40.7532 4.96266 -48.5261 -39.2632 4.96266 
-51.4151 -36.6037 4.96266 -42.2068 -39.2632 9.70601 -32.9984 -39.2632 13.9211 
31.46 -39.2632 9.75612 43.3814 -39.2632 4.96266 40.6684 -39.2632 6.47162 
49.8767 -33.2286 4.96266 -57.6357 -30.0549 4.96266 -60.6235 -26.6701 4.96266 
-51.4151 -30.0549 10.1884 31.46 -30.0549 14.1622 40.6684 -30.0549 10.8372 
55.6803 -30.0549 4.96266 49.8767 -30.0549 7.05148 59.0851 -27.4721 4.96266 
-65.5922 -20.8465 4.96266 -69.8318 -17.0538 4.96266 -60.6235 -20.8465 10.9306 
40.6684 -20.8465 13.8891 49.8767 -20.8465 11.2129 65.525 -20.8465 4.96266 
59.0851 -20.8465 7.93064 68.2934 -18.6747 4.96266 -73.9053 -11.6382 4.96266 
-69.8318 -11.6382 10.3426 59.0851 -11.6382 13.3078 72.5805 -11.6382 4.96266 
68.2934 -11.6382 8.29378 -77.0039 -2.42981 4.96266 76.0192 -2.42981 4.96266 
68.2934 -2.42981 11.1485 77.5018 3.28433 4.96266 -78.9786 6.77855 4.96266 
-69.8318 6.77855 13.9619 68.2934 6.77855 12.6797 78.0985 6.77855 4.96266 
77.5018 10.4981 4.96266 77.5018 6.77855 5.87833 -78.4593 15.9869 4.96266 
76.3159 15.9869 4.96266 68.2934 15.9869 13.0288 -72.9439 25.1953 4.96266 
-69.8318 29.3887 4.96266 -69.8318 25.1953 12.1284 72.7191 25.1953 4.96266 
68.2934 30.3894 4.96266 68.2934 25.1953 9.91784 -65.0034 34.4036 4.96266 
-60.6235 38.1778 4.96266 49.8767 41.9635 4.96266 49.8767 34.4036 13.1639 
63.5065 34.4036 4.96266 59.0851 37.0643 4.96266 59.0851 34.4036 9.43782 
-52.6352 43.612 4.96266 -51.4151 44.3496 4.96266 -42.2068 48.9145 4.96266 
-32.9984 51.3593 4.96266 -23.7901 51.3498 4.96266 -14.5817 50.6041 4.96266 
-5.37337 48.4012 4.96266 3.83498 47.9612 4.96266 13.0433 48.2676 4.96266 
22.2517 47.7144 4.96266 22.2517 43.612 12.7625 31.46 46.032 4.96266 
31.46 43.612 9.6972 43.0222 43.612 4.96266 40.6684 44.0628 4.96266 
40.6684 43.612 5.86704 -23.7901 -40.8201 14.171 -14.5817 -42.0441 14.171 
-5.37337 -44.3697 14.171 3.83498 -45.5418 14.171 13.0433 -43.1039 14.171 
22.2517 -39.4531 14.171 -42.2068 -33.1539 14.171 -31.0495 -39.2632 14.171 
-32.9984 -38.7543 14.171 -23.7901 -39.2632 15.0589 -14.5817 -39.2632 15.4435 
-5.37337 -39.2632 16.1243 3.83498 -39.2632 16.4201 13.0433 -39.2632 16.0426 
22.5014 -39.2632 14.171 22.2517 -39.2632 14.2734 -45.4992 -30.0549 14.171 
-51.4151 -23.7612 14.171 -42.2068 -30.0549 15.7852 -32.9984 -30.0549 18.0411 
[...]
POINT_DATA 534
SCALARS ImageScalars float
LOOKUP_TABLE default
0 0 0 0 0 0 0 0 0 
0 0 0 0 0 0 0 0 0 
0 0 0 0 0 0 0 0 0 
0 0 0 0 0 0 0 0 0 
0 0 0 0 0 0 0 0 0 
0 0 0 0 0 0 0 0 0 
0 0 0 0 0 0 0 0 0 
0 0 0 0 0 0 0 0 0 
0 0 0 0 0 0 0 0 0 
0 0 0 0 0 0 0 0 0 
0 0 0 0 0 0 0 0 0 
0 0 0 0 0 0 0 0 0 
0 0 0 0 0 0 0 0 0 
0 0 0 0 0 0 0 0 0 
0 0 0 0 0 0 0 0 0 
0 0 0 0 0 0 0 0 0 
0 0 0 0 0 0 0 0 0 
0 0 0 0 0 0 0 0 0 
0 0 0 0 0 0 0 0 0 
0 0 0 0 0 0 0 0 0 
0 0 0 0 0 0 0 0 0 
0 0 0 0 0 0 0 0 0 
0 0 0 0 0 0 0 0 0 
0 0 0 0 0 0 0 0 0 
0 0 0 0 0 0 0 0 0 
0 0 0 0 0 0 0 0 0 
0 0 0 0 0 0 0 0 0 
0 0 0 0 0 0 0 0 0 
0 0 0 0 0 0 0 0 0 
0 0 0 0 0 0 0 0 0 
0 0 0 0 0 0 0 0 0 
0 0 0 0 0 0 0 0 0 
0 0 0 0 0 0 0 0 0 
0 0 0 0 0 0 0 0 0 
0 0 0 0 0 0 0 0 0 
0 0 0 0 0 0 0 0 0 
0 0 0 0 0 0 0 0 0 
0 0 0 0 0 0 0 0 0 
0 0 0 0 0 0 0 0 0 
0 0 0 0 0 0 0 0 0 
0 0 0 0 0 0 0 0 0 
0 0 0 0 0 0 0 0 0 
0 0 0 0 0 0 0 0 0 
0 0 0 0 0 0 0 0 0 
0 0 0 0 0 0 0 0 0 
0 0 0 0 0 0 0 0 0 
0 0 0 0 0 0 0 0 0 
0 0 0 0 0 0 0 0 0 
0 0 0 0 0 0 0 0 0 
0 0 0 0 0 0 0 0 0 
0 0 0 0 0 0 0 0 0 
0 0 0 0 0 0 0 0 0 
0 0 0 0 0 0 0 0 0 
0 0 0 0 0 0 0 0 0 
0 0 0 0 0 0 0 0 0 
0 0 0 0 0 0 0 0 0 
0 0 0 0 0 0 0 0 0 
0 0 0 0 0 0 0 0 0 
0 0 0 0 0 0 0 0 0 
0 0 0 
NORMALS Normals float
-0.0987495 -0.524047 -0.845945 0.0239873 -0.464589 -0.885202 0.0704265 -0.433319 -0.898484 
0.0630023 -0.471212 -0.879767 -0.364348 -0.471159 -0.803281 -0.162798 -0.28411 -0.944869 
-0.0254061 -0.247016 -0.968678 0.0831967 -0.183614 -0.979471 0.0656557 -0.176512 -0.982106 
0.00236748 -0.202484 -0.979283 -0.0509583 -0.270901 -0.961258 -0.00504486 -0.385506 -0.922692 
0.12815 -0.479037 -0.86839 0.210338 -0.616198 -0.758985 -0.431746 -0.41425 -0.801244 
-0.165455 -0.258168 -0.951827 -0.0603022 -0.133094 -0.989267 0.0342672 -0.00237458 -0.99941 
0.101621 0.0250478 -0.994508 0.049165 0.000176301 -0.998791 -0.0472295 -0.0366598 -0.998211 
-0.121639 -0.0794818 -0.989387 -0.0724401 -0.0968046 -0.992664 -0.0300812 -0.164241 -0.985961 
0.0874513 -0.296119 -0.951139 0.252375 -0.366562 -0.895511 0.507129 -0.597241 -0.621388 
-0.526034 -0.411934 -0.744042 -0.277695 -0.210489 -0.937326 -0.0768965 -0.102709 -0.991735 
0.0995975 -0.0407865 -0.994192 0.133911 0.0543868 -0.9895 0.0939104 0.115096 -0.988905 
0.00341663 -0.0844292 -0.996424 -0.0770127 -0.0982931 -0.992173 -0.129736 -0.0230806 -0.99128 
-0.102299 0.0374871 -0.994047 -0.0575073 -0.0346169 -0.997745 -0.0281082 -0.03461 -0.999006 
-0.0112811 -0.212063 -0.977191 0.32536 -0.170222 -0.930143 0.607535 -0.34679 -0.714589 
-0.624681 -0.33914 -0.70339 -0.359467 -0.140511 -0.922518 -0.087783 -0.0952418 -0.991576 
0.0155956 0.0274693 -0.999501 0.102081 0.0288935 -0.994356 0.194878 0.0380289 -0.98009 
-0.039348 -0.0503947 -0.997954 -0.196916 -0.218961 -0.955657 0.0504194 -0.0779531 -0.995681 
0.0167233 -0.139681 -0.990055 -0.0806804 0.0822914 -0.993337 -0.109764 0.0412984 -0.993099 
-0.0804196 -0.0071976 -0.996735 0.0772103 3.34392e-05 -0.997015 0.233101 0.0379127 -0.971713 
0.509966 -0.135761 -0.849414 -0.515623 -0.0017891 -0.856814 -0.269139 0.0898098 -0.958905 
-0.127297 0.109506 -0.985801 0.0389109 0.100572 -0.994169 0.109717 0.099148 -0.989005 
0.0372906 0.0678792 -0.996996 -0.139992 -0.207897 -0.968081 0.013286 0.0967206 -0.995223 
-0.048519 -0.0694015 -0.996408 0.0542491 -0.09518 -0.993981 0.0706523 0.0343401 -0.99691 
-0.143051 0.0242308 -0.989419 -0.0786457 0.00171845 -0.996901 0.051164 -0.019548 -0.998499 
0.177047 -0.0273825 -0.983821 0.455513 -0.0308869 -0.889693 -0.513405 0.317891 -0.797095 
-0.271067 0.233123 -0.933904 -0.094075 0.256565 -0.961938 0.00669507 0.245282 -0.969429 
0.0758221 0.215645 -0.973524 -0.0807695 0.152502 -0.984997 -0.0833969 0.103227 -0.991156 
-0.048513 0.200503 -0.978491 -0.102352 -0.0289624 -0.994326 0.136076 0.0721195 -0.98807 
0.00452391 -0.0961848 -0.995353 -0.141245 -0.0475396 -0.988833 -0.124187 -0.0104454 -0.992204 
0.0429249 -0.0378335 -0.998362 0.218796 0.0499646 -0.97449 0.426491 0.110192 -0.897755 
-0.305207 0.322684 -0.895949 -0.0643742 0.3385 -0.938762 -0.0128305 0.337595 -0.941204 
0.010149 0.276213 -0.961043 -0.0973764 0.205886 -0.973719 -0.0800564 0.263128 -0.961434 
-0.111801 0.127093 -0.98557 -0.189455 0.115102 -0.97512 -0.0297324 -0.00988287 -0.999509 
-0.0226242 -0.133652 -0.99077 -0.0614375 -0.0743573 -0.995337 -0.061916 0.0278215 -0.997694 
0.127927 0.154037 -0.979749 0.291516 0.113065 -0.94986 0.496388 0.209234 -0.842509 
-0.0830197 0.28551 -0.954773 -0.137622 0.340608 -0.930079 -0.211899 0.224469 -0.951164 
-0.242401 0.152672 -0.958088 -0.128502 0.0602759 -0.989876 -0.0482955 0.029216 -0.998406 
0.0214802 0.0874022 -0.995941 0.0959273 0.151388 -0.983809 0.1491 0.246759 -0.957538 
0.314575 0.31848 -0.894211 0.549004 0.395775 -0.736177 -0.32842 0.394918 -0.858009 
-0.150277 0.340811 -0.928044 0.00160936 0.340126 -0.940378 0.0654066 0.3902 -0.918404 
0.121035 0.457543 -0.880911 0.269096 0.545079 -0.794026 0.417516 0.637772 -0.647245 
0.0199884 0.769582 -0.638235 -0.136566 -0.619985 -0.772637 0.00352392 -0.594775 -0.803884 
0.0673578 -0.523052 -0.849635 0.0725323 -0.507217 -0.858761 -0.427226 -0.574099 -0.69849 
-0.254277 -0.640613 -0.72454 -0.283019 -0.637174 -0.716875 -0.309117 -0.699304 -0.644531 
0.109736 -0.58169 -0.805975 0.109961 -0.5822 -0.805575 0.110153 -0.582702 -0.805186 
0.140329 -0.652642 -0.744558 0.227583 -0.8109 -0.539117 0.153881 -0.735151 -0.660208 
0.356405 -0.931833 -0.068281 0.261204 -0.743896 -0.615135 -0.473454 -0.553207 -0.685422 
-0.519576 -0.52451 -0.674485 -0.688466 -0.714029 -0.127192 0.348911 -0.772764 -0.530185 
0.367418 -0.771299 -0.519713 0.408094 -0.840758 -0.355789 0.537882 -0.640318 -0.548339 
-0.516409 -0.500251 -0.695032 -0.557075 -0.461957 -0.690118 -0.710828 -0.698063 -0.0862041 
0.564124 -0.619753 -0.545591 0.655795 -0.495847 -0.569271 -0.57911 -0.426419 -0.694836 
-0.630011 -0.346866 -0.694816 0.732822 -0.384345 -0.561472 -0.630962 -0.342563 -0.696087 
0.702059 -0.198043 -0.684026 0.93292 -0.355387 0.0579661 -0.629514 -0.0212181 -0.776699 
0.670317 -0.0924234 -0.736297 0.875319 -0.148789 -0.460086 -0.53224 0.315733 -0.785514 
-0.515696 0.336867 -0.787768 0.668177 0.104165 -0.736675 0.727082 0.103222 -0.678746 
-0.367856 0.348221 -0.86222 -0.52715 0.41554 -0.741242 -0.330091 0.340774 -0.880292 
-0.0690484 0.410465 -0.909258 -0.0416822 0.372395 -0.927138 -0.0596269 0.322248 -0.944776 
0.624593 0.248647 -0.740309 0.911265 0.335902 -0.238256 -0.362621 0.450133 -0.816019 
-0.0955594 0.4667 -0.879238 -0.0624058 0.389187 -0.919042 -0.0778074 0.300307 -0.950664 
-0.0689477 0.328986 -0.941814 -0.0827407 0.29186 -0.952875 -0.128161 0.38222 -0.915141 
-0.275248 0.416882 -0.866284 0.556672 0.404567 -0.725563 0.557494 0.412034 -0.720714 
-0.253209 0.559037 -0.789533 -0.181265 0.465085 -0.86651 -0.0912573 0.407056 -0.908833 
-0.071209 0.414553 -0.907235 -0.102995 0.472615 -0.87523 -0.307864 0.465739 -0.829643 
-0.281528 0.489536 -0.825286 -0.331453 0.592153 -0.734502 -0.164989 0.724294 -0.66946 
0.132047 0.785002 -0.605257 0.186906 0.763802 -0.617796 0.306232 0.699267 -0.645947 
0.424113 0.639661 -0.641063 0.419473 0.641241 -0.642536 -0.112262 0.597223 -0.79418 
0.00162704 0.609338 -0.792909 0.0273579 0.662545 -0.748523 -0.126168 0.801157 -0.585003 
-0.279101 0.798586 -0.533256 -0.11357 0.747784 -0.654157 -0.162788 0.740763 -0.651744 
0.0712672 0.793187 -0.604794 0.0225327 0.788179 -0.615034 0.141701 0.843768 -0.517665 
0.225789 0.929328 -0.292178 -0.407784 -0.910721 -0.065568 -0.224919 -0.97328 -0.0462201 
-0.0794737 -0.992118 -0.0968804 0.025223 -0.985544 -0.167532 0.1495 -0.967067 -0.205987 
0.252381 -0.947971 -0.19405 0.312768 -0.940125 -0.135433 0.363687 -0.930502 -0.0435634 
-0.69281 -0.720394 -0.0323552 -0.551594 -0.833427 -0.0338232 -0.571679 -0.819958 -0.0291863 
0.364479 -0.930492 -0.0366015 0.371547 -0.928374 -0.00867965 0.390709 -0.916715 0.0835518 
0.462279 -0.877293 0.129058 -0.696671 -0.716648 -0.0326437 -0.712743 -0.699575 -0.0509189 
-0.690914 -0.719486 0.0705533 0.498546 -0.853548 0.151352 0.490371 -0.810721 0.319794 
0.609436 -0.776103 0.162028 -0.71386 -0.698463 -0.0505289 -0.714368 -0.699744 -0.00610974 
0.682759 -0.712776 0.160591 0.502264 -0.586514 0.635399 0.708603 -0.679614 0.189754 
-0.80173 -0.590891 -0.0898731 -0.810349 -0.576765 -0.103327 0.827427 -0.542084 0.146661 
0.567335 -0.542127 0.619862 0.930487 -0.357665 0.0791835 -0.87542 -0.452508 -0.169932 
0.931721 -0.354799 0.0775484 0.929784 -0.357441 0.0879621 -0.961632 -0.162172 -0.221277 
0.983086 -0.182231 -0.0182404 0.866961 -0.231912 0.44113 -0.904494 0.109522 -0.412185 
0.996652 0.0664169 -0.0476883 -0.774178 0.384909 -0.502487 -0.654953 0.463547 -0.596792 
0.940249 0.31527 -0.128593 0.907906 0.395327 -0.13937 0.93067 0.286227 0.227877 
-0.634791 0.484405 -0.60199 -0.710868 0.507706 -0.486726 -0.33278 0.726918 -0.600707 
0.814437 0.558869 -0.156066 0.666197 0.729113 -0.156767 -0.284075 0.63043 -0.722398 
-0.461167 0.796773 -0.390484 -0.295199 0.571349 -0.765779 -0.271961 0.51011 -0.815981 
0.330311 0.933333 -0.140653 0.595115 0.791142 -0.141182 0.469676 0.874872 -0.118338 
-0.479854 0.813315 -0.329027 -0.157967 0.586475 -0.794414 -0.321981 0.607445 -0.726181 
-0.104751 0.618397 -0.778853 0.000582587 0.646501 -0.762913 0.0349148 0.672777 -0.739021 
-0.114637 0.810787 -0.574006 -0.221855 0.90365 -0.366328 -0.0779516 0.971805 -0.222529 
0.080891 0.981893 -0.171299 0.146186 0.979342 -0.139713 0.28207 0.950333 -0.131546 
0.245497 0.960931 -0.12784 -0.345065 -0.808704 0.47637 -0.214462 -0.803446 0.555411 
-0.16537 -0.849553 0.500911 -0.0465028 -0.911343 0.409013 0.132148 -0.921531 0.365127 
0.288872 -0.876902 0.384182 0.37726 -0.818924 0.43248 -0.42442 -0.773689 0.470397 
-0.521918 -0.707387 0.47666 -0.316747 -0.745993 0.585803 -0.152385 -0.664246 0.731817 
-0.147405 -0.590719 0.793298 -0.0844413 -0.508831 0.856715 0.060206 -0.529748 0.846016 
0.229719 -0.647369 0.726734 0.395789 -0.79529 0.459201 0.363746 -0.76445 0.532264 
0.405972 -0.728873 0.551299 0.382398 -0.686605 0.618341 -0.587395 -0.66864 0.455946 
-0.620208 -0.643087 0.449202 -0.437019 -0.608445 0.662427 -0.213548 -0.449211 0.867529 
0.353119 -0.522076 0.776365 0.405597 -0.650355 0.642285 0.372577 -0.632047 0.679488 
0.394935 -0.547598 0.737673 -0.642254 -0.612519 0.460793 -0.663653 -0.601751 0.444365 
-0.538866 -0.511454 0.669356 0.309491 -0.260262 0.914592 0.311732 -0.339737 0.887357 
0.412777 -0.526073 0.743547 0.344729 -0.479849 0.806788 0.443794 -0.506987 0.738926 
-0.682743 -0.589625 0.431513 -0.717663 -0.560037 0.413907 -0.570455 -0.487117 0.661285 
0.231506 -0.224502 0.946575 0.261588 -0.307632 0.914841 0.492692 -0.488168 0.720379 
0.401339 -0.44176 0.802356 0.525918 -0.469116 0.709465 -0.804582 -0.449205 0.388411 
-0.628144 -0.440698 0.641265 0.303703 -0.282388 0.909957 0.644133 -0.366057 0.671636 
0.500045 -0.331682 0.799964 -0.872083 -0.268257 0.409278 0.747288 -0.222126 0.626276 
0.497469 -0.215297 0.84034 0.822964 -0.098009 0.559575 -0.96499 -0.055283 0.256392 
-0.585219 -0.129044 0.800542 0.491131 -0.0816743 0.867248 0.85515 -0.0059637 0.518346 
0.85147 0.0950994 0.515708 0.832257 -0.0110325 0.55428 -0.941691 0.280338 0.186085 
0.833843 0.226523 0.503382 0.551891 0.0984531 0.828084 -0.824192 0.566051 0.0171404 
-0.769288 0.638075 0.0324852 -0.684497 0.497292 0.53307 0.764945 0.476833 0.433 
0.669798 0.630742 0.391836 0.665772 0.468285 0.58091 -0.675508 0.734603 -0.0636136 
-0.607501 0.768643 -0.200326 0.335967 0.897498 0.285698 0.274729 0.608197 0.744728 
0.552152 0.761561 0.339341 0.475033 0.821079 0.316502 0.452735 0.705349 0.545449 
-0.491483 0.823403 -0.283641 -0.477786 0.833507 -0.277465 -0.350825 0.908119 -0.228567 
-0.127327 0.939582 -0.317762 0.0352555 0.953927 -0.297961 0.171289 0.963892 -0.203892 
0.133156 0.983728 -0.120617 0.00495448 0.998099 0.0614248 0.0125911 0.983464 0.180666 
0.119943 0.969344 0.214444 0.14651 0.772133 0.618341 0.190676 0.947111 0.258116 
0.192443 0.854967 0.481661 0.236501 0.930235 0.280588 0.204278 0.935501 0.288285 
0.204756 0.922977 0.325865 -0.0810823 -0.458507 0.884984 -0.0785584 -0.393724 0.915866 
-0.0778362 -0.364139 0.928086 0.0356479 -0.400718 0.915508 0.154354 -0.419403 0.894582 
0.282911 -0.398752 0.872329 -0.346956 -0.425158 0.83598 -0.182259 -0.443427 0.877584 
-0.206565 -0.437689 0.875077 -0.0755095 -0.429066 0.900112 -0.0524822 -0.33381 0.941178 
-0.052465 -0.234075 0.970802 0.00338303 -0.206586 0.978423 0.114503 -0.320674 0.940243 
0.283863 -0.39522 0.873626 0.281839 -0.392789 0.875376 -0.385345 -0.396128 0.833422 
-0.357761 -0.375317 0.85507 -0.321596 -0.351764 0.879112 -0.140539 -0.288884 0.946992 
0.00427866 -0.227566 0.973753 0.0765679 -0.181705 0.980368 0.0495121 -0.083113 0.995309 
-0.0453268 -0.00197147 0.99897 0.00931579 -0.0696256 0.99753 0.309128 -0.259941 0.914806 
0.18678 -0.174395 0.966799 0.308902 -0.259262 0.915075 -0.395498 -0.387707 0.832625 
-0.430105 -0.365214 0.825608 -0.300987 -0.324634 0.896671 -0.210246 -0.202833 0.956376 
-0.0706788 -0.097094 0.992762 0.027459 -0.053871 0.99817 0.106409 -0.034856 0.993711 
0.137516 -0.186416 0.972799 0.0131906 0.0540483 0.998451 -0.0671606 0.00498558 0.99773 
0.103408 -0.027132 0.994269 0.228121 -0.204426 0.95193 0.206132 -0.092096 0.974181 
0.206772 -0.216151 0.954214 0.10209 -0.295456 0.949886 -0.428417 -0.343865 0.835593 
-0.578066 -0.183451 0.795101 -0.365716 -0.313102 0.876481 -0.201809 -0.233786 0.951114 
-0.108513 -0.12488 0.98622 0.00720293 -0.0624095 0.998025 0.0697219 -0.0193853 0.997378 
-0.0570581 -0.0421762 0.99748 0.0877849 -0.0664861 0.993918 0.170818 -0.104974 0.979695 
-0.0550522 -0.182577 0.981649 0.100166 0.00716928 0.994945 0.101627 -0.0907168 0.990678 
0.0876983 -0.183267 0.979144 0.120302 -0.293877 0.948242 0.0990957 -0.295605 0.950157 
0.26779 -0.227679 0.936189 -0.592155 -0.147287 0.792249 -0.579295 -0.131036 0.804517 
-0.570829 -0.141678 0.808753 -0.329676 -0.203205 0.921966 -0.122518 -0.19188 0.973741 
-0.032602 -0.112016 0.993172 0.0369262 -0.0678552 0.997012 0.0381758 -0.0669122 0.997028 
0.0731229 -0.199887 0.977087 0.0820664 -0.0167313 0.996486 -0.123241 -0.241522 0.962538 
0.0632998 -0.157183 0.985539 0.182991 -0.0855392 0.979386 0.0146013 -0.175762 0.984324 
0.0401906 -0.21434 0.975932 0.139753 -0.229162 0.963303 0.277748 -0.210453 0.937318 
0.250488 -0.209117 0.945265 -0.57254 -0.127794 0.809856 -0.580561 -0.118845 0.805496 
-0.31538 -0.0420901 0.948032 -0.149333 -0.073031 0.986086 0.0164791 -0.0511452 0.998555 
0.0523323 -0.0266607 0.998274 -0.0475782 -0.00908057 0.998826 -0.0290654 0.0410167 0.998736 
0.0679532 -0.0876009 0.993835 0.0284887 -0.238806 0.970649 0.113435 0.000764622 0.993545 
0.0623821 -0.131595 0.989339 -0.0200112 -0.162473 0.98651 0.0240024 -0.153021 0.987931 
0.0903177 -0.150338 0.9845 0.433367 -0.0957709 0.896115 0.307984 -0.120475 0.943733 
-0.677548 0.0815101 0.730948 -0.621139 0.364951 0.693539 -0.514677 0.0534988 0.855714 
-0.234398 0.0393495 0.971344 -0.150646 0.0695066 0.986141 0.0133567 0.0160587 0.999782 
0.0789287 -0.0621497 0.994941 0.085431 -0.0440006 0.995372 -0.00433949 0.0638394 0.997951 
-0.157688 -0.00259602 0.987486 -0.0249668 -0.0267101 0.999331 0.132666 -0.0512313 0.989836 
0.0289743 -0.0886423 0.995642 -0.00870736 -0.0570978 0.998331 0.0512815 -0.0415796 0.997818 
0.177847 0.0410879 0.9832 0.476825 0.105439 0.872651 0.325701 0.139371 0.935144 
-0.578599 0.420276 0.698993 -0.403566 0.232629 0.884883 -0.156337 0.186242 0.969986 
-0.115215 0.024324 0.993043 -0.0116283 0.0033268 0.999927 0.0870493 -0.10947 0.990171 
0.0275555 -0.0956556 0.995033 -0.0527469 -0.0107465 0.99855 -0.0271855 0.107471 0.993837 
0.0618855 0.0453541 0.997052 0.0642054 0.0346728 0.997334 0.0271168 0.111119 0.993437 
0.128146 0.198327 0.971723 0.263891 0.529223 0.806402 0.244186 0.251284 0.936605 
0.399288 0.292891 0.868783 0.379318 0.312234 0.870992 0.364798 0.275353 0.88944 
-0.632163 0.479614 0.608556 -0.621605 0.523667 0.582563 -0.568975 0.449104 0.688892 
-0.29263 0.244175 0.924525 -0.189381 0.227224 0.955251 -0.0548104 0.125523 0.990575 
-0.0143833 0.00372191 0.99989 0.0902843 0.100765 0.990805 0.0541148 0.18318 0.981589 
0.0299261 0.293035 0.955633 0.0587788 0.29509 0.95366 0.14702 0.690195 0.70853 
0.0991121 0.327449 0.939656 0.176386 0.633119 0.75369 0.15838 0.425354 0.891061 
0.251507 0.561801 0.788115 0.22032 0.609189 0.761806 0.203194 0.492533 0.846241 
-0.538515 0.7096 0.454389 -0.516588 0.729231 0.448731 -0.507808 0.690972 0.514479 
-0.343113 0.801221 0.490222 -0.234482 0.482214 0.84409 -0.161733 0.885632 0.435315 
-0.217611 0.348399 0.911737 0.119625 0.888655 0.4427 0.0779632 0.450498 0.889367 
0.253791 0.814605 0.521545 0.208879 0.512759 0.832735 0.229335 0.811881 0.536894 
0.199506 0.672752 0.712462 0.103694 0.782333 0.614168 0.100933 0.738894 0.666219 
0.113599 0.74442 0.657977 0.0931681 0.761682 0.641218 0.0947313 0.744988 0.660317 

