# vtk DataFile Version 4.2
vtk output
ASCII
DATASET POLYDATA
POINTS 536 float
-18.4497 -26.8808 -15.283 -10.5006 -26.8808 -15.7225 -2.5516 -26.8808 -15.3326 
5.39743 -26.8808 -15.4977 13.3465 -26.8808 -14.844 -34.3477 -18.9317 -14.6482 
-26.3987 -18.9317 -15.6425 -18.4497 -18.9317 -16.4148 -10.5006 -18.9317 -17.0223 
-2.5516 -18.9317 -16.4634 5.39743 -18.9317 -16.7269 13.3465 -18.9317 -16.2643 
21.2955 -18.9317 -15.9026 29.2445 -18.9317 -15.237 -42.2968 -10.9827 -15.2226 
-34.3477 -10.9827 -15.4943 -26.3987 -10.9827 -15.3993 -18.4497 -10.9827 -15.2672 
-10.5006 -10.9827 -19.5525 -2.5516 -10.9827 -17.735 5.39743 -10.9827 -19.3755 
13.3465 -10.9827 -19.7029 21.2955 -10.9827 -16.0878 29.2445 -10.9827 -16.1927 
37.1935 -10.9827 -16.3653 45.1426 -10.9827 -15.3801 -50.2458 -3.03368 -17.1563 
-42.2968 -3.03368 -17.7444 -34.3477 -3.03368 -17.0002 -26.3987 -3.03368 -15.6599 
-10.5006 -3.03368 -22.2855 -2.5516 -3.03368 -17.4216 5.39743 -3.03368 -19.6752 
13.3465 -3.03368 -20.7694 21.2955 -3.03368 -16.7743 29.2445 -3.03368 -17.6316 
37.1935 -3.03368 -18.3908 45.1426 -3.03368 -18.8303 53.0916 -3.03368 -16.7575 
-58.1948 4.91535 -15.3533 -50.2458 4.91535 -17.8568 -42.2968 4.91535 -18.8633 
-34.3477 4.91535 -19.2116 -26.3987 4.91535 -17.7963 -18.4497 4.91535 -16.0127 
-10.5006 4.91535 -17.3706 -2.5516 4.91535 -18.9244 5.39743 4.91535 -18.687 
13.3465 4.91535 -17.6341 21.2955 4.91535 -18.207 29.2445 4.91535 -19.8944 
37.1935 4.91535 -21.0789 45.1426 4.91535 -19.938 53.0916 4.91535 -18.4201 
-58.1948 12.8644 -15.6522 -50.2458 12.8644 -18.95 -42.2968 12.8644 -19.8784 
-34.3477 12.8644 -20.6509 -26.3987 12.8644 -19.4394 -18.4497 12.8644 -17.1633 
-10.5006 12.8644 -14.633 -2.5516 12.8644 -18.3021 5.39743 12.8644 -19.5056 
13.3465 12.8644 -19.041 21.2955 12.8644 -20.0254 29.2445 12.8644 -20.8626 
37.1935 12.8644 -21.7069 45.1426 12.8644 -19.9098 53.0916 12.8644 -18.135 
-50.2458 20.8134 -17.3515 -42.2968 20.8134 -20.152 -34.3477 20.8134 -19.6361 
-26.3987 20.8134 -19.1733 -18.4497 20.8134 -16.2764 -2.5516 20.8134 -14.6653 
5.39743 20.8134 -16.6068 13.3465 20.8134 -18.305 21.2955 20.8134 -19.823 
29.2445 20.8134 -20.0033 37.1935 20.8134 -19.743 45.1426 20.8134 -18.1208 
-42.2968 28.7624 -15.6264 -34.3477 28.7624 -16.0561 -26.3987 28.7624 -15.4687 
13.3465 28.7624 -15.1231 21.2955 28.7624 -16.1441 29.2445 28.7624 -15.4145 
-26.3987 -34.8298 -9.81994 -18.4497 -28.6537 -14.5295 -18.4497 -34.8298 -11.3423 
-10.5006 -29.8137 -14.5295 -10.5006 -34.8298 -12.0043 -2.5516 -29.0984 -14.5295 
-2.5516 -34.8298 -12.061 5.39743 -29.2767 -14.5295 5.39743 -34.8298 -11.7013 
13.3465 -27.6267 -14.5295 13.3465 -34.8298 -10.9153 21.2955 -34.8298 -10.2303 
29.2445 -34.8298 -7.50394 -42.2968 -26.8808 -9.24346 -34.3477 -19.5983 -14.5295 
-34.3477 -26.8808 -12.9009 -23.8171 -26.8808 -14.5295 -26.3987 -24.9679 -14.5295 
-26.3987 -26.8808 -14.1769 17.5641 -26.8808 -14.5295 21.2955 -25.6682 -14.5295 
21.2955 -26.8808 -14.2436 29.2445 -21.4459 -14.5295 29.2445 -26.8808 -12.7355 
37.1935 -26.8808 -10.6059 45.1426 -26.8808 -6.75504 -50.2458 -18.9317 -10.7062 
-36.3259 -18.9317 -14.5295 -42.2968 -16.2442 -14.5295 -42.2968 -18.9317 -14.0986 
33.0125 -18.9317 -14.5295 37.1935 -16.4243 -14.5295 37.1935 -18.9317 -13.6999 
45.1426 -13.1745 -14.5295 45.1426 -18.9317 -12.274 53.0916 -18.9317 -8.7145 
-58.1948 -10.9827 -10.6689 -48.7225 -10.9827 -14.5295 -50.2458 -10.5949 -14.5295 
-50.2458 -10.9827 -14.3385 -18.4497 -6.06604 -14.5295 48.6545 -10.9827 -14.5295 
53.0916 -8.44892 -14.5295 53.0916 -10.9827 -13.4347 61.0406 -10.9827 -8.42486 
-66.1438 -3.03368 -6.73741 -55.8857 -3.03368 -14.5295 -58.1948 2.27824 -14.5295 
-58.1948 -3.03368 -13.1235 -20.5028 -3.03368 -14.5295 -17.4373 -3.03368 -14.5295 
-18.4497 -1.19937 -14.5295 -18.4497 -3.03368 -14.1388 58.0155 -3.03368 -14.5295 
61.0406 -3.03368 -12.9047 -59.4267 4.91535 -14.5295 -66.1438 4.91535 -7.45523 
60.5654 4.91535 -14.5295 61.0406 4.91535 -14.2794 -59.3506 12.8644 -14.5295 
-58.1948 14.9177 -14.5295 -10.5006 16.9418 -14.5295 58.8314 12.8644 -14.5295 
53.0916 19.9673 -14.5295 61.0406 12.8644 -12.218 -54.6615 20.8134 -14.5295 
-58.1948 20.8134 -8.72027 -50.2458 24.8419 -14.5295 -10.911 20.8134 -14.5295 
-18.4497 28.0366 -14.5295 -7.29439 20.8134 -14.5295 -10.5006 20.8134 -14.4442 
-2.5516 21.5902 -14.5295 5.39743 27.2824 -14.5295 37.1935 27.8894 -14.5295 
52.1086 20.8134 -14.5295 45.1426 24.7782 -14.5295 53.0916 20.8134 -13.5069 
-44.3396 28.7624 -14.5295 -42.2968 29.7766 -14.5295 -34.3477 30.6603 -14.5295 
-19.7199 28.7624 -14.5295 -26.3987 30.3324 -14.5295 -18.4497 28.7624 -14.3542 
-10.5006 28.7624 -13.2208 -2.5516 28.7624 -13.3821 9.04241 28.7624 -14.5295 
5.39743 28.7624 -14.0798 13.3465 29.8268 -14.5295 21.2955 30.5567 -14.5295 
33.5238 28.7624 -14.5295 29.2445 29.6257 -14.5295 37.1935 28.7624 -12.7089 
-26.3987 36.7115 -8.15704 -18.4497 36.7115 -9.88874 -10.5006 36.7115 -10.2583 
-2.5516 36.7115 -9.97359 5.39743 36.7115 -9.7858 13.3465 36.7115 -9.5426 
-26.3987 -37.6914 -6.58046 -18.4497 -39.4853 -6.58046 -10.5006 -40.3466 -6.58046 
-10.5006 -42.7788 1.02362 -2.5516 -40.3714 -6.58046 -2.5516 -42.7788 1.11967 
5.39743 -39.8416 -6.58046 13.3465 -39.029 -6.58046 21.2955 -38.109 -6.58046 
29.2445 -35.6698 -6.58046 -42.2968 -29.9807 -6.58046 -33.0849 -34.8298 -6.58046 
-34.3477 -34.1468 -6.58046 -34.3477 -34.8298 -5.16593 31.1675 -34.8298 -6.58046 
37.1935 -31.8021 -6.58046 37.1935 -34.8298 1.31236 45.1426 -27.0214 -6.58046 
-47.5217 -26.8808 -6.58046 -50.2458 -25.0082 -6.58046 -50.2458 -26.8808 -0.528059 
45.3663 -26.8808 -6.58046 53.0916 -21.0073 -6.58046 -57.6177 -18.9317 -6.58046 
-58.1948 -18.3276 -6.58046 -58.1948 -18.9317 -4.77213 56.644 -18.9317 -6.58046 
61.0406 -14.3741 -6.58046 61.0406 -18.9317 0.960434 -63.338 -10.9827 -6.58046 
-66.1438 -3.39952 -6.58046 62.6533 -10.9827 -6.58046 -66.2398 -3.03368 -6.58046 
68.1891 -3.03368 -6.58046 -66.5778 4.91535 -6.58046 -66.1438 6.40156 -6.58046 
-66.1438 4.91535 -3.17074 68.3672 4.91535 -6.58046 -64.0808 12.8644 -6.58046 
65.1624 12.8644 -6.58046 61.0406 18.5724 -6.58046 -59.193 20.8134 -6.58046 
-58.1948 21.9323 -6.58046 -58.1948 20.8134 -4.33373 -50.2458 28.3491 -6.58046 
45.1426 27.7364 -6.58046 58.5482 20.8134 -6.58046 53.0916 24.5502 -6.58046 
-49.5619 28.7624 -6.58046 -42.2968 32.6458 -6.58046 -34.3477 35.6415 -6.58046 
21.2955 36.2964 -6.58046 29.2445 33.2213 -6.58046 42.6528 28.7624 -6.58046 
37.1935 30.8236 -6.58046 -30.0377 36.7115 -6.58046 -26.3987 37.6057 -6.58046 
-26.3987 36.7115 1.24005 -18.4497 39.2352 -6.58046 -10.5006 39.8762 -6.58046 
-2.5516 40.2968 -6.58046 5.39743 39.905 -6.58046 20.0525 36.7115 -6.58046 
13.3465 38.9179 -6.58046 21.2955 36.7115 -4.67291 -10.5006 -42.8677 1.36857 
-2.5516 -42.8413 1.36857 -34.3477 -36.9668 1.36857 -26.3987 -40.1502 1.36857 
-11.3777 -42.7788 1.36857 -18.4497 -42.044 1.36857 -10.5006 -42.7788 1.71557 
-1.75959 -42.7788 1.36857 -2.5516 -42.7788 1.6235 5.39743 -42.21 1.36857 
13.3465 -41.24 1.36857 21.2955 -39.9968 1.36857 29.2445 -37.9407 1.36857 
37.1935 -34.8463 1.36857 -50.2458 -27.3299 1.36857 -38.3058 -34.8298 1.36857 
-42.2968 -32.5863 1.36857 -34.3477 -34.8298 8.7111 29.2445 -34.8298 8.70086 
37.2279 -34.8298 1.36857 37.1935 -34.8298 1.42317 45.1426 -30.777 1.36857 
-50.9141 -26.8808 1.36857 -58.1948 -20.5352 1.36857 -50.2458 -26.8808 2.63516 
51.2312 -26.8808 1.36857 53.0916 -25.5106 1.36857 61.0406 -19.0269 1.36857 
-59.4217 -18.9317 1.36857 -58.1948 -18.9317 4.27962 61.1308 -18.9317 1.36857 
61.0406 -18.9317 1.60774 -64.5167 -10.9827 1.36857 -66.1438 -5.31802 1.36857 
65.7911 -10.9827 1.36857 -66.7763 -3.03368 1.36857 -66.1438 1.10238 1.36857 
-66.1438 -3.03368 2.65711 68.1138 -3.03368 1.36857 -65.5414 4.91535 1.36857 
68.7532 4.91535 1.36857 -62.2519 12.8644 1.36857 -58.1948 17.4259 1.36857 
-58.1948 12.8644 6.13844 64.5344 12.8644 1.36857 61.0406 17.5689 1.36857 
61.0406 12.8644 6.63681 -54.7903 20.8134 1.36857 -50.2458 25.3844 1.36857 
-50.2458 20.8134 6.46009 45.1426 26.7641 1.36857 56.6576 20.8134 1.36857 
53.0916 22.8947 1.36857 53.0916 20.8134 5.13382 -43.7619 28.7624 1.36857 
-42.2968 29.3867 1.36857 -42.2968 28.7624 2.13155 -34.3477 32.8901 1.36857 
-34.3477 28.7624 7.08814 -26.3987 36.6944 1.36857 29.2445 33.6524 1.36857 
40.3433 28.7624 1.36857 37.1935 30.2049 1.36857 37.1935 28.7624 5.72851 
-26.3617 36.7115 1.36857 -18.4497 39.8095 1.36857 -18.4497 36.7115 6.61619 
-10.5006 41.7696 1.36857 -2.5516 42.5841 1.36857 5.39743 42.4986 1.36857 
13.3465 41.2216 1.36857 23.6418 36.7115 1.36857 21.2955 38.0473 1.36857 
21.2955 36.7115 8.2182 -26.3987 -37.3818 9.3176 -18.4497 -39.4169 9.3176 
-10.5006 -40.3126 9.3176 -2.5516 -40.2673 9.3176 5.39743 -39.6047 9.3176 
13.3465 -38.0423 9.3176 21.2955 -36.2543 9.3176 -42.2968 -29.6438 9.3176 
-33.7404 -34.8298 9.3176 -34.3477 -34.5803 9.3176 -26.3987 -34.8298 12.2318 
-18.4497 -34.8298 14.0501 -10.5006 -34.8298 14.5684 -2.5516 -34.8298 14.2053 
5.39743 -34.8298 13.9911 13.3465 -34.8298 12.7635 27.7392 -34.8298 9.3176 
21.2955 -34.8298 10.8604 29.2445 -34.475 9.3176 37.1935 -31.8524 9.3176 
45.1426 -28.325 9.3176 -46.4573 -26.8808 9.3176 -50.2458 -23.9129 9.3176 
-42.2968 -26.8808 12.5838 -34.3477 -26.8808 15.9705 13.3465 -26.8808 17.1174 
21.2955 -26.8808 16.4238 29.2445 -26.8808 15.8788 37.1935 -26.8808 13.837 
47.3773 -26.8808 9.3176 45.1426 -26.8808 11.0663 53.0916 -22.6123 9.3176 
-55.414 -18.9317 9.3176 -58.1948 -15.6621 9.3176 -50.2458 -18.9317 13.8715 
-42.2968 -18.9317 17.1837 45.1426 -18.9317 15.8763 57.1115 -18.9317 9.3176 
53.0916 -18.9317 12.6283 61.0406 -12.7589 9.3176 -61.0833 -10.9827 9.3176 
-58.1948 -10.9827 12.1516 -50.2458 -10.9827 16.2823 53.0916 -10.9827 15.8574 
62.1848 -10.9827 9.3176 61.0406 -10.9827 10.2468 -62.4165 -3.03368 9.3176 
-58.1948 -3.03368 13.4174 -50.2458 -3.03368 17.2188 53.0916 -3.03368 16.8207 
64.1161 -3.03368 9.3176 61.0406 -3.03368 12.2296 -60.4129 4.91535 9.3176 
-58.1948 8.83003 9.3176 -58.1948 4.91535 11.4523 -50.2458 4.91535 16.1478 
[...]
POINT_DATA 536
SCALARS ImageScalars float
LOOKUP_TABLE default
0 0 0 0 0 0 0 0 0 
0 0 0 0 0 0 0 0 0 
0 0 0 0 0 0 0 0 0 
0 0 0 0 0 0 0 0 0 
0 0 0 0 0 0 0 0 0 
0 0 0 0 0 0 0 0 0 
0 0 0 0 0 0 0 0 0 
0 0 0 0 0 0 0 0 0 
0 0 0 0 0 0 0 0 0 
0 0 0 0 0 0 0 0 0 
0 0 0 0 0 0 0 0 0 
0 0 0 0 0 0 0 0 0 
0 0 0 0 0 0 0 0 0 
0 0 0 0 0 0 0 0 0 
0 0 0 0 0 0 0 0 0 
0 0 0 0 0 0 0 0 0 
0 0 0 0 0 0 0 0 0 
0 0 0 0 0 0 0 0 0 
0 0 0 0 0 0 0 0 0 
0 0 0 0 0 0 0 0 0 
0 0 0 0 0 0 0 0 0 
0 0 0 0 0 0 0 0 0 
0 0 0 0 0 0 0 0 0 
0 0 0 0 0 0 0 0 0 
0 0 0 0 0 0 0 0 0 
0 0 0 0 0 0 0 0 0 
0 0 0 0 0 0 0 0 0 
0 0 0 0 0 0 0 0 0 
0 0 0 0 0 0 0 0 0 
0 0 0 0 0 0 0 0 0 
0 0 0 0 0 0 0 0 0 
0 0 0 0 0 0 0 0 0 
0 0 0 0 0 0 0 0 0 
0 0 0 0 0 0 0 0 0 
0 0 0 0 0 0 0 0 0 
0 0 0 0 0 0 0 0 0 
0 0 0 0 0 0 0 0 0 
0 0 0 0 0 0 0 0 0 
0 0 0 0 0 0 0 0 0 
0 0 0 0 0 0 0 0 0 
0 0 0 0 0 0 0 0 0 
0 0 0 0 0 0 0 0 0 
0 0 0 0 0 0 0 0 0 
0 0 0 0 0 0 0 0 0 
0 0 0 0 0 0 0 0 0 
0 0 0 0 0 0 0 0 0 
0 0 0 0 0 0 0 0 0 
0 0 0 0 0 0 0 0 0 
0 0 0 0 0 0 0 0 0 
0 0 0 0 0 0 0 0 0 
0 0 0 0 0 0 0 0 0 
0 0 0 0 0 0 0 0 0 
0 0 0 0 0 0 0 0 0 
0 0 0 0 0 0 0 0 0 
0 0 0 0 0 0 0 0 0 
0 0 0 0 0 0 0 0 0 
0 0 0 0 0 0 0 0 0 
0 0 0 0 0 0 0 0 0 
0 0 0 0 0 0 0 0 0 
0 0 0 0 0 
NORMALS Normals float
-0.0931415 -0.264363 -0.959915 -0.0026477 -0.270989 -0.962579 0.0142357 -0.242616 -0.970018 
0.0284204 -0.27371 -0.961392 0.077633 -0.280672 -0.956659 -0.0949267 -0.14387 -0.985033 
-0.106078 -0.0720468 -0.991744 -0.087521 -0.0061092 -0.996144 -0.00135356 -0.204159 -0.978937 
0.0176656 -0.140438 -0.989932 0.0116569 -0.220486 -0.975321 0.0533057 -0.235241 -0.970474 
0.0654804 -0.113456 -0.991383 0.134517 -0.19644 -0.971245 -0.0718897 -0.225032 -0.971696 
-0.0102256 -0.142384 -0.989759 0.0135655 -0.00131279 -0.999907 -0.208082 0.13455 -0.968813 
-0.145577 -0.248836 -0.957543 -0.00190874 -0.0724632 -0.997369 -0.122608 -0.203353 -0.971398 
0.240627 -0.296422 -0.924247 0.157043 -0.0553699 -0.986038 -0.017465 -0.148892 -0.988699 
0.0468868 -0.275036 -0.96029 0.163831 -0.373067 -0.913225 -0.239936 -0.209241 -0.947971 
0.0032693 -0.223451 -0.97471 0.125498 -0.22787 -0.96557 0.158101 -0.146992 -0.976421 
-0.251661 0.0724931 -0.965097 0.00223638 -0.0832476 -0.996526 -0.179626 0.0560602 -0.982136 
0.232549 0.180237 -0.955738 0.130371 -0.129233 -0.983007 -0.0969198 -0.234375 -0.967303 
-0.0713718 -0.273808 -0.959132 0.0996193 -0.268556 -0.958099 0.311728 -0.249636 -0.916792 
-0.450151 -0.146926 -0.880782 -0.189157 -0.117342 -0.97491 -0.0804837 -0.12971 -0.98828 
0.0653613 -0.218765 -0.973586 0.185019 -0.233394 -0.954618 0.0659132 -0.176417 -0.982106 
-0.194942 0.312425 -0.929725 -0.0503461 -0.0404966 -0.99791 0.0835494 -0.0040515 -0.996495 
0.0329297 0.0511532 -0.998148 -0.144339 -0.205026 -0.968055 -0.157114 -0.188825 -0.969361 
-0.00534573 -0.204766 -0.978796 0.138904 -0.066085 -0.988098 0.323666 -0.0887629 -0.941999 
-0.612131 0.198113 -0.765537 -0.214024 0.0346405 -0.976214 -0.0961201 -0.0776169 -0.992339 
0.0286962 -0.029598 -0.99915 0.203767 -0.0859272 -0.975241 0.278788 -0.013742 -0.960254 
-0.0139764 0.121012 -0.992553 -0.315886 0.284931 -0.905003 -0.0250025 0.119431 -0.992528 
-0.0342936 -0.04347 -0.998466 -0.115357 -0.0922452 -0.989032 -0.102891 -0.00534496 -0.994678 
0.0682427 0.0838722 -0.994137 0.212321 0.0943341 -0.972636 0.362535 0.179123 -0.914594 
-0.426521 0.371564 -0.824633 -0.162123 0.258693 -0.952257 0.0544167 0.231881 -0.971221 
0.189437 0.219371 -0.957074 0.285816 0.167347 -0.943559 -0.126345 0.24618 -0.960954 
-0.214111 0.321281 -0.922461 -0.187741 0.219595 -0.957356 -0.10825 0.202615 -0.973257 
0.00458834 0.2809 -0.959726 0.109468 0.39614 -0.911641 0.291037 0.475691 -0.83007 
-0.239379 0.710365 -0.661876 0.0110531 0.583131 -0.812303 0.0945967 0.482702 -0.870661 
-0.115847 0.446205 -0.887401 -0.0199456 0.595497 -0.80311 0.118726 0.734498 -0.668144 
-0.255972 -0.685344 -0.681749 -0.0957724 -0.32671 -0.94026 -0.109911 -0.622632 -0.774757 
-0.0140553 -0.371593 -0.928289 -0.0376562 -0.58661 -0.808994 0.0140161 -0.314126 -0.949278 
0.0160301 -0.559821 -0.828459 0.0373453 -0.351413 -0.935475 0.0601206 -0.594377 -0.801936 
0.0763812 -0.306018 -0.948957 0.077662 -0.643706 -0.761322 0.17482 -0.667371 -0.723916 
0.313083 -0.744112 -0.590149 -0.373642 -0.585559 -0.719383 -0.108164 -0.164449 -0.980437 
-0.277999 -0.416252 -0.865708 -0.113706 -0.27868 -0.953629 -0.118632 -0.235451 -0.964619 
-0.12739 -0.290668 -0.948306 0.0999411 -0.286251 -0.952928 0.110198 -0.262443 -0.958634 
0.12136 -0.293941 -0.948088 0.158115 -0.254517 -0.954055 0.2062 -0.401953 -0.892141 
0.275662 -0.499684 -0.821174 0.458283 -0.716485 -0.525953 -0.386246 -0.451007 -0.804616 
-0.127003 -0.187567 -0.974007 -0.17073 -0.280168 -0.944647 -0.221755 -0.315259 -0.922733 
0.155809 -0.255071 -0.954286 0.13577 -0.303032 -0.943259 0.173034 -0.319452 -0.93167 
0.167834 -0.368817 -0.914224 0.225744 -0.396116 -0.890018 0.442753 -0.627015 -0.640954 
-0.517203 -0.360158 -0.776394 -0.212735 -0.365469 -0.906188 -0.244381 -0.386951 -0.889127 
-0.245115 -0.396552 -0.884684 -0.146145 0.0292517 -0.988831 0.218275 -0.364802 -0.905138 
0.296488 -0.311243 -0.902897 0.305137 -0.371364 -0.876915 0.677246 -0.446258 -0.584971 
-0.917927 -0.162406 -0.361987 -0.415377 -0.232794 -0.879357 -0.46697 -0.17942 -0.865879 
-0.51137 -0.248258 -0.82272 -0.0295355 -0.0769028 -0.996601 -0.125515 -0.0237076 -0.991808 
-0.0605053 -0.0845985 -0.994576 -0.103154 -0.0456199 -0.993619 0.437749 -0.226234 -0.870169 
0.55253 -0.240678 -0.797988 -0.507483 -0.12021 -0.853235 -0.959408 0.11607 -0.257029 
0.522159 -4.3078e-05 -0.852848 0.54188 0.00988455 -0.840398 -0.662425 0.220957 -0.715801 
-0.658332 0.286207 -0.696193 0.0419623 0.102783 -0.993818 0.607228 0.277065 -0.744654 
0.527645 0.595977 -0.605312 0.724754 0.362266 -0.586084 -0.60014 0.464838 -0.650966 
-0.764944 0.624376 -0.158161 -0.493084 0.612208 -0.618118 0.0996458 0.0930842 -0.990659 
0.152123 0.293749 -0.9437 0.00397397 0.152086 -0.988359 0.0899578 0.0888627 -0.991973 
-0.118475 0.243939 -0.962527 -0.12473 0.34908 -0.928755 0.249876 0.780387 -0.5732 
0.510678 0.633642 -0.581124 0.356036 0.751753 -0.555073 0.534234 0.670187 -0.515212 
-0.319152 0.744083 -0.586927 -0.259729 0.75813 -0.598148 -0.0434689 0.66345 -0.746957 
0.130465 0.336355 -0.932655 0.0614404 0.532456 -0.844225 0.137717 0.311237 -0.940301 
0.0543552 0.205684 -0.977108 -0.0520462 0.256611 -0.965113 -0.106523 0.397827 -0.911256 
-0.0991733 0.359179 -0.927984 -0.0913024 0.477916 -0.873647 0.0271117 0.666284 -0.745205 
0.195773 0.784487 -0.588433 0.130917 0.769682 -0.62486 0.274823 0.851158 -0.447216 
-0.186885 0.922934 -0.336552 -0.0823268 0.762712 -0.641478 -0.00106148 0.654351 -0.756191 
0.023563 0.618492 -0.785438 0.021393 0.667871 -0.743969 0.13662 0.770676 -0.62241 
-0.275736 -0.822086 -0.498141 -0.145923 -0.835606 -0.529593 -0.0480846 -0.844794 -0.532926 
-0.0491028 -0.998597 -0.019832 0.0280964 -0.847709 -0.529717 0.0408545 -0.999029 -0.0164904 
0.0740049 -0.849519 -0.522341 0.0976451 -0.849402 -0.518634 0.186714 -0.848013 -0.495996 
0.323516 -0.780383 -0.535107 -0.426442 -0.715937 -0.552794 -0.366262 -0.766849 -0.527063 
-0.382697 -0.750671 -0.53855 -0.400097 -0.806346 -0.435579 0.345208 -0.776523 -0.527108 
0.392215 -0.744677 -0.540022 0.411405 -0.911452 0.00118763 0.460921 -0.721428 -0.516811 
-0.468443 -0.715106 -0.51883 -0.490103 -0.707245 -0.509513 -0.580088 -0.812 -0.0644487 
0.463196 -0.719385 -0.517624 0.492193 -0.676828 -0.547403 -0.66928 -0.578534 -0.466222 
-0.678817 -0.570765 -0.461991 -0.724263 -0.606511 -0.328007 0.541043 -0.646058 -0.538407 
0.678794 -0.524273 -0.514175 0.743732 -0.667298 0.0396891 -0.775057 -0.43517 -0.458163 
-0.917886 -0.173451 -0.356931 0.725179 -0.470522 -0.502718 -0.920799 -0.160195 -0.355621 
0.86847 -0.290088 -0.402006 -0.97216 0.129953 -0.194982 -0.967402 0.180144 -0.177991 
-0.984274 0.172905 0.0361628 0.921409 0.181345 -0.343687 -0.914519 0.386655 -0.118969 
0.855077 0.468356 -0.222453 0.698777 0.687088 -0.199048 -0.768416 0.639704 -0.0177607 
-0.739662 0.672968 -0.00386073 -0.739151 0.666072 0.10002 -0.550469 0.833935 -0.0392042 
0.356784 0.93033 -0.0848027 0.607673 0.778626 -0.156445 0.51095 0.853279 -0.10414 
-0.537607 0.842459 -0.0352215 -0.403235 0.914985 -0.0143073 -0.291422 0.955561 -0.0444464 
0.318441 0.879688 -0.353191 0.321937 0.922973 -0.210897 0.339385 0.936725 -0.0858181 
0.312564 0.943801 -0.107441 -0.255854 0.957547 -0.132828 -0.222179 0.948584 -0.225445 
-0.407749 0.855204 0.319949 -0.143895 0.902152 -0.406714 -0.0681679 0.844615 -0.531017 
-0.000817337 0.810915 -0.585164 0.0815988 0.812525 -0.577187 0.305741 0.87653 -0.371777 
0.20642 0.853337 -0.478756 0.356984 0.894512 -0.269091 -0.048796 -0.998809 -0.000460379 
0.0410238 -0.999154 -0.00274384 -0.423953 -0.905657 -0.00701335 -0.30937 -0.950856 0.0127785 
-0.0611202 -0.99813 -0.000585544 -0.16373 -0.986504 0.00144586 -0.0492318 -0.998617 0.0184726 
0.0467634 -0.998904 -0.00174362 0.0411737 -0.999083 0.011709 0.099626 -0.994976 0.00986059 
0.137823 -0.989196 0.0499559 0.207664 -0.974103 0.0894316 0.295825 -0.953191 0.0625713 
0.411085 -0.911588 0.00396889 -0.585519 -0.809353 0.0459805 -0.462693 -0.886501 0.00565677 
-0.50183 -0.864675 0.0224412 -0.389955 -0.813563 0.431335 0.225 -0.833512 0.504611 
0.411528 -0.911389 0.00385699 0.410896 -0.911657 0.00678182 0.510814 -0.858962 -0.0353957 
-0.594624 -0.802629 0.0470016 -0.753906 -0.652021 0.0805886 -0.584464 -0.803074 0.116078 
0.59409 -0.803824 -0.0304018 0.616285 -0.786904 -0.0312424 0.743057 -0.665924 0.0664192 
-0.783295 -0.617567 0.0711373 -0.73954 -0.618975 0.264482 0.745278 -0.663396 0.0668321 
0.744585 -0.662842 0.0789602 -0.912874 -0.387237 0.129261 -0.96978 -0.152959 0.190081 
0.907549 -0.419752 0.0127803 -0.978623 -0.0664546 0.19463 -0.958504 0.0809225 0.273352 
-0.963695 -0.048605 0.262546 0.964645 -0.160992 0.208667 -0.915927 0.225426 0.332054 
0.955931 0.179268 0.232503 -0.782181 0.512993 0.353599 -0.656863 0.623839 0.423504 
-0.617187 0.523871 0.587059 0.807897 0.528477 0.260795 0.638024 0.715306 0.285066 
0.652768 0.54969 0.521282 -0.615108 0.651543 0.443997 -0.528853 0.713358 0.45982 
-0.470455 0.629383 0.618506 0.37449 0.898184 0.230266 0.538637 0.792633 0.285662 
0.507113 0.806942 0.30279 0.498882 0.74691 0.439593 -0.384245 0.780005 0.49391 
-0.360513 0.788998 0.497506 -0.358892 0.772407 0.524008 -0.360504 0.815796 0.452232 
-0.335661 0.697651 0.632942 -0.409634 0.851218 0.328066 0.459677 0.885555 0.0669999 
0.383879 0.900671 0.203538 0.396366 0.900482 0.178958 0.437822 0.84364 0.310779 
-0.409231 0.851658 0.327427 -0.290953 0.932051 0.215935 -0.328071 0.787572 0.521631 
-0.169506 0.979371 0.110004 -0.0451958 0.997492 0.054469 0.0824341 0.996449 0.0171206 
0.254313 0.96712 0.001824 0.453931 0.890977 0.0103357 0.440406 0.897664 -0.0155552 
0.396581 0.859142 0.323417 -0.263447 -0.818375 0.510743 -0.156835 -0.835205 0.527102 
-0.0452968 -0.844167 0.534163 0.0384867 -0.828888 0.558089 0.116135 -0.833578 0.540057 
0.177621 -0.805282 0.565661 0.188928 -0.775116 0.602911 -0.467944 -0.737195 0.487413 
-0.373092 -0.798049 0.473203 -0.382339 -0.794232 0.472241 -0.227191 -0.726896 0.648079 
-0.11324 -0.613151 0.781807 -0.0062002 -0.540738 0.841168 0.0316349 -0.555828 0.830695 
0.0728091 -0.606439 0.791789 0.160275 -0.658858 0.734995 0.210408 -0.80365 0.556665 
0.173524 -0.726012 0.665429 0.214399 -0.807065 0.550163 0.316264 -0.780448 0.539331 
0.443256 -0.755528 0.482391 -0.492204 -0.706818 0.508078 -0.542007 -0.653102 0.528854 
-0.43012 -0.631512 0.645127 -0.24278 -0.472625 0.847162 0.0830506 -0.330905 0.940003 
0.0721223 -0.409722 0.909355 0.136019 -0.445844 0.884716 0.240561 -0.566427 0.78822 
0.477816 -0.735678 0.480072 0.422175 -0.703751 0.571404 0.568991 -0.642532 0.513227 
-0.601695 -0.552985 0.576343 -0.645462 -0.465524 0.605529 -0.505272 -0.44898 0.736965 
-0.260897 -0.354926 0.897753 0.274517 -0.336212 0.90089 0.646174 -0.560336 0.518153 
0.501408 -0.529543 0.684233 0.676022 -0.403338 0.616695 -0.749906 -0.285474 0.596779 
-0.619237 -0.310887 0.721037 -0.438425 -0.168191 0.88289 0.403179 -0.212321 0.89015 
0.677189 -0.350448 0.646994 0.650204 -0.329993 0.684353 -0.76418 0.031622 0.644227 
-0.601179 0.0356273 0.79832 -0.349026 0.00699714 0.937087 0.359113 -0.036992 0.932561 
0.756079 -0.0653248 0.651212 0.616701 -0.0768548 0.783437 -0.689455 0.27337 0.670761 
-0.609753 0.392148 0.688782 -0.612453 0.294044 0.733784 -0.407123 0.242235 0.880666 
0.361375 0.19671 0.911435 0.70084 0.202925 0.683846 0.610407 0.402427 0.682243 
0.584831 0.202094 0.785576 -0.535146 0.479706 0.695342 -0.43686 0.570802 0.695225 
-0.437735 0.460617 0.772152 -0.291702 0.429531 0.854642 0.298187 0.310636 0.902546 
0.557527 0.503963 0.659685 0.473508 0.604398 0.640698 0.430335 0.473272 0.768652 
-0.348844 0.620105 0.702693 -0.309449 0.6333 0.709346 -0.299135 0.608163 0.735294 
-0.298959 0.637407 0.710166 -0.220058 0.547942 0.807053 -0.170702 0.451994 0.875535 
-0.235428 0.284305 0.929378 0.460821 0.770952 0.439633 0.362993 0.423399 0.830042 
0.439509 0.670078 0.598186 0.421608 0.714649 0.558144 0.422892 0.604052 0.675488 
-0.305211 0.61753 0.724916 -0.309549 0.607507 0.731516 -0.289887 0.573805 0.765972 
-0.317764 0.641022 0.698654 -0.327042 0.465582 0.822361 -0.312768 0.428927 0.847466 
0.382949 0.841882 0.380243 0.465304 0.78995 0.399339 0.469415 0.815063 0.339591 
0.400937 0.675702 0.618608 -0.266442 0.726362 0.633567 -0.234441 0.756778 0.610184 
-0.238571 0.726409 0.644525 -0.101709 0.828661 0.550433 -0.108737 0.743517 0.659818 
0.0311495 0.847338 0.53014 0.0196965 0.731909 0.681117 0.36602 0.845818 0.3881 
0.175201 0.860554 0.478279 0.152627 0.779477 0.607553 -0.121022 -0.408705 0.904607 
-0.0210779 -0.365687 0.930499 0.0256674 -0.263831 0.964227 -0.00590743 -0.260318 0.965505 
0.0333734 -0.332067 0.942665 -0.142502 -0.401069 0.904896 -0.197122 -0.362205 0.911016 
-0.113262 -0.382487 0.916993 0.00105845 -0.308852 0.951109 0.0303219 -0.227358 0.973339 
-0.00996764 -0.228884 0.973403 0.0716329 -0.321569 0.944173 0.0270975 -0.288704 0.957035 
0.0791292 -0.315913 0.945483 0.055268 -0.321024 0.945457 0.102306 -0.32312 0.940812 
0.167328 -0.30807 0.936533 -0.254972 -0.348647 0.901906 -0.25874 -0.347168 0.901403 
-0.150851 -0.238677 0.959311 -0.0485442 -0.16086 0.985783 0.0736807 -0.118304 0.99024 
0.0856972 -0.105016 0.990771 -0.0412115 -0.0663929 0.996942 -0.0441031 -0.116628 0.992196 
0.0320471 -0.136807 0.990079 0.0224599 -0.156541 0.987416 0.0717978 -0.206565 0.975795 
0.184839 -0.289428 0.939184 0.163156 -0.280593 0.945858 0.210794 -0.214454 0.953717 
-0.38225 -0.148822 0.911996 -0.209219 -0.125411 0.969793 -0.0597771 -0.10585 0.992584 
0.010336 -0.0499805 0.998697 0.0649562 -0.0160241 0.997759 0.087283 -0.121431 0.988755 
-0.0204358 -0.116597 0.992969 -0.0487525 -0.107465 0.993013 0.0400399 -0.0746878 0.996403 
0.00566578 0.0117213 0.999915 -0.000427465 -0.0282368 0.999601 0.0820348 -0.099584 0.991642 
0.260624 -0.180086 0.948496 0.188193 -0.164652 0.968232 -0.34573 0.00783028 0.938302 
-0.201342 0.0333756 0.978952 -0.0649136 -0.000651791 0.997891 0.043616 0.00202977 0.999046 
0.00279614 0.0132838 0.999908 -0.0220494 -0.0260918 0.999416 -0.0245361 -0.162056 0.986476 
-0.00424498 -0.123877 0.992288 0.16254 -0.132009 0.977831 0.0627685 -0.0315203 0.99753 
-0.0428151 -0.00781629 0.999052 0.0333823 -0.00868416 0.999405 0.314352 -0.0328473 0.948738 
0.159667 -0.0221189 0.986923 -0.338113 0.221911 0.914568 -0.27209 0.334601 0.902225 
-0.233305 0.197389 0.952159 -0.0881466 0.144839 0.985521 0.0238915 0.126734 0.991649 
0.0412285 0.0995651 0.994177 -0.0867165 0.0964415 0.991554 -0.113943 -0.0815149 0.990137 
-0.0150863 0.0153129 0.999769 0.130052 -0.0271673 0.991135 0.120681 -0.166177 0.978684 
0.0229953 -0.0361723 0.999081 0.0689067 0.0572824 0.995977 0.292537 0.180141 0.939134 
0.224455 0.226739 0.947739 0.16657 0.152072 0.974232 -0.216973 0.401261 0.889895 
-0.160733 0.420158 0.893103 -0.143459 0.377988 0.914628 -0.0647899 0.364336 0.929011 
-0.00576518 0.305414 0.952202 -0.158418 0.251986 0.954676 -0.0355642 0.201142 0.978916 
-0.208437 0.0340703 0.977442 -0.10221 -0.019224 0.994577 0.0495387 0.0708223 0.996258 
-0.0282895 0.0693115 0.997194 0.0657794 -0.0504936 0.996556 0.180219 0.0235473 0.983345 
0.253388 0.229023 0.939864 0.304121 0.305273 0.902396 0.217034 0.157477 0.963378 
-0.252237 0.238212 0.937887 -0.313392 0.40629 0.85832 -0.295194 0.111289 0.948934 
-0.0801523 0.163239 0.983325 0.07854 0.150383 0.985503 0.0023907 0.155846 0.987778 
0.0722905 0.21738 0.973406 0.325774 0.361315 0.873683 0.300917 0.429029 0.851695 
0.240255 0.255197 0.936564 -0.292843 0.431675 0.853171 -0.0883181 0.531107 0.842689 
-0.0725707 0.457227 0.886384 0.0215568 0.451809 0.891854 0.0270572 0.376317 0.926096 
0.0750459 0.463082 0.883133 0.0611368 0.398715 0.915035 0.182136 0.511686 0.839645 
0.175934 0.511619 0.841007 0.17444 0.507236 0.843968 
