# vtk DataFile Version 4.2
vtk output
ASCII
DATASET POLYDATA
POINTS 518 float
8.30078 -1.37841 -24.5178 -24.6581 -34.3373 -18.2137 -16.4184 -34.3373 -20.005 
-8.17866 -34.3373 -21.1734 0.0610639 -34.3373 -21.3508 8.30078 -34.3373 -20.793 
16.5405 -34.3373 -19.5227 24.7802 -34.3373 -18.1226 -41.1375 -26.0976 -17.603 
-32.8978 -26.0976 -19.8484 -24.6581 -26.0976 -21.1646 -16.4184 -26.0976 -21.8708 
-8.17866 -26.0976 -22.6198 0.0610639 -26.0976 -22.4256 8.30078 -26.0976 -22.5416 
16.5405 -26.0976 -21.9451 24.7802 -26.0976 -21.2552 33.0199 -26.0976 -20.7614 
41.2597 -26.0976 -19.5936 -49.3773 -17.8578 -17.8404 -41.1375 -17.8578 -20.8328 
-32.8978 -17.8578 -21.2058 -24.6581 -17.8578 -21.6353 -16.4184 -17.8578 -21.7302 
-8.17866 -17.8578 -21.5826 0.0610639 -17.8578 -21.7835 8.30078 -17.8578 -21.8888 
16.5405 -17.8578 -21.6175 24.7802 -17.8578 -22.0052 33.0199 -17.8578 -22.2781 
41.2597 -17.8578 -21.8904 49.4994 -17.8578 -20.2028 -57.617 -9.61813 -16.7126 
-49.3773 -9.61813 -20.6851 -41.1375 -9.61813 -21.7677 -32.8978 -9.61813 -21.6933 
-24.6581 -9.61813 -21.2544 -16.4184 -9.61813 -21.4329 -8.17866 -9.61813 -22.0139 
0.0610639 -9.61813 -20.7975 8.30078 -1.41101 -24.5075 8.30078 -9.61813 -21.8523 
16.5405 -9.61813 -21.0129 24.7802 -9.61813 -21.9443 33.0199 -9.61813 -22.7464 
41.2597 -9.61813 -23.0546 49.4994 -9.61813 -21.4097 57.7391 -9.61813 -18.0268 
-57.617 -1.37841 -17.7972 -49.3773 -1.37841 -21.4802 -41.1375 -1.37841 -22.1738 
-32.8978 -1.37841 -21.6083 -24.6581 -1.37841 -20.8014 -16.4184 -1.37841 -21.6223 
-8.17866 -1.37841 -23.825 8.27857 -1.37841 -24.5075 0.0610639 -1.37841 -20.5528 
8.32588 -1.37841 -24.5075 8.30078 -1.33077 -24.5075 16.5405 -1.37841 -20.8971 
24.7802 -1.37841 -21.0175 33.0199 -1.37841 -22.5039 41.2597 -1.37841 -23.2441 
49.4994 -1.37841 -21.7376 57.7391 -1.37841 -18.7268 -57.617 6.86131 -17.1027 
-49.3773 6.86131 -20.95 -41.1375 6.86131 -21.7461 -32.8978 6.86131 -21.7678 
-24.6581 6.86131 -20.8543 -16.4184 6.86131 -21.0742 -8.17866 6.86131 -22.4556 
0.0610639 6.86131 -19.8977 8.30078 6.86131 -22.6288 16.5405 6.86131 -20.4161 
24.7802 6.86131 -21.2172 33.0199 6.86131 -22.4566 41.2597 6.86131 -23.3304 
49.4994 6.86131 -21.8058 57.7391 6.86131 -18.9869 -49.3773 15.101 -18.6337 
-41.1375 15.101 -20.3552 -32.8978 15.101 -20.7992 -24.6581 15.101 -20.66 
-16.4184 15.101 -21.5041 -8.17866 15.101 -22.7901 0.0610639 15.101 -22.1244 
8.30078 15.101 -21.9068 16.5405 15.101 -21.8778 24.7802 15.101 -22.3626 
33.0199 15.101 -22.7398 41.2597 15.101 -23.118 49.4994 15.101 -21.2113 
57.7391 15.101 -16.5072 -41.1375 23.3407 -17.3245 -32.8978 23.3407 -18.8693 
-24.6581 23.3407 -19.1227 -16.4184 23.3407 -20.2405 -8.17866 23.3407 -22.0516 
0.0610639 23.3407 -22.4612 8.30078 23.3407 -22.1998 16.5405 23.3407 -22.8148 
24.7802 23.3407 -23.4766 33.0199 23.3407 -22.4222 41.2597 23.3407 -22.0253 
49.4994 23.3407 -18.4718 0.0610639 31.5805 -16.8979 8.30078 31.5805 -18.655 
16.5405 31.5805 -19.547 24.7802 31.5805 -20.4071 33.0199 31.5805 -19.0231 
41.2597 31.5805 -16.6662 -24.6581 -36.624 -16.2678 -16.4184 -39.2982 -16.2678 
-8.17866 -40.6336 -16.2678 -8.17866 -42.577 -9.46783 0.0610639 -40.4132 -16.2678 
8.30078 -39.7039 -16.2678 16.5405 -38.1608 -16.2678 24.7802 -36.2171 -16.2678 
-41.1375 -27.7746 -16.2678 -29.8227 -34.3373 -16.2678 -32.8978 -32.3795 -16.2678 
-32.8978 -34.3373 -13.5911 30.1204 -34.3373 -16.2678 33.0199 -32.9233 -16.2678 
33.0199 -34.3373 -13.7405 41.2597 -29.5108 -16.2678 -43.9055 -26.0976 -16.2678 
-49.3773 -21.075 -16.2678 -49.3773 -26.0976 -12.0023 48.0051 -26.0976 -16.2678 
49.4994 -24.9887 -16.2678 49.4994 -26.0976 -15.2015 -52.1345 -17.8578 -16.2678 
-57.617 -10.7435 -16.2678 -57.617 -17.8578 -11.6998 55.7267 -17.8578 -16.2678 
57.7391 -14.6362 -16.2678 57.7391 -17.8578 -14.3324 -58.184 -9.61813 -16.2678 
59.8541 -9.61813 -16.2678 -59.6674 -1.37841 -16.2678 60.7393 -1.37841 -16.2678 
-58.6818 6.86131 -16.2678 -57.617 9.38706 -16.2678 61.153 6.86131 -16.2678 
-53.6884 15.101 -16.2678 -57.617 15.101 -13.0611 -49.3773 19.4524 -16.2678 
58.0146 15.101 -16.2678 57.7391 15.6756 -16.2678 -43.7715 23.3407 -16.2678 
-49.3773 23.3407 -12.9449 -41.1375 24.5203 -16.2678 -32.8978 26.8863 -16.2678 
-24.6581 27.5296 -16.2678 -16.4184 29.052 -16.2678 -8.17866 30.7974 -16.2678 
52.7232 23.3407 -16.2678 49.4994 26.5004 -16.2678 57.7391 23.3407 -8.55498 
-32.8978 31.5805 -10.4033 -24.6581 31.5805 -11.5065 -16.4184 31.5805 -12.6044 
-3.45251 31.5805 -16.2678 -8.17866 31.5805 -14.2463 0.0610639 32.057 -16.2678 
8.30078 33.3863 -16.2678 16.5405 34.2364 -16.2678 24.7802 34.839 -16.2678 
33.0199 33.8712 -16.2678 41.96 31.5805 -16.2678 41.2597 31.8948 -16.2678 
-8.17866 -42.884 -8.02811 -32.8978 -36.5612 -8.02811 -24.6581 -39.8056 -8.02811 
-11.813 -42.577 -8.02811 -16.4184 -42.175 -8.02811 -2.63859 -42.577 -8.02811 
-8.17866 -42.577 -6.78424 0.0610639 -42.4281 -8.02811 8.30078 -41.7919 -8.02811 
16.5405 -40.7791 -8.02811 24.7802 -38.8159 -8.02811 33.0199 -36.3225 -8.02811 
-49.3773 -28.6471 -8.02811 -38.2267 -34.3373 -8.02811 -41.1375 -33.0641 -8.02811 
39.4927 -34.3373 -8.02811 41.2597 -33.7556 -8.02811 49.4994 -29.6367 -8.02811 
-52.6802 -26.0976 -8.02811 -57.617 -21.3488 -8.02811 54.2748 -26.0976 -8.02811 
57.7391 -22.6458 -8.02811 -60.3134 -17.8578 -8.02811 61.4513 -17.8578 -8.02811 
-64.3297 -9.61813 -8.02811 64.8645 -9.61813 -8.02811 -65.6814 -1.37841 -8.02811 
-65.8567 -1.37841 -6.31815 65.8103 -1.37841 -8.02811 -64.5607 6.86131 -8.02811 
65.8589 6.86131 -8.02811 65.9788 6.86131 -3.4886 -61.295 15.101 -8.02811 
-57.617 20.4493 -8.02811 62.9859 15.101 -8.02811 -54.5765 23.3407 -8.02811 
-49.3773 26.6763 -8.02811 -41.1375 30.3768 -8.02811 49.4994 30.0284 -8.02811 
58.0048 23.3407 -8.02811 57.7391 23.6211 -8.02811 57.7391 23.3407 -5.85361 
-37.1704 31.5805 -8.02811 -41.1375 31.5805 -1.29995 -32.8978 32.8694 -8.02811 
-24.6581 33.6258 -8.02811 -16.4184 33.7074 -8.02811 -8.17866 33.3272 -8.02811 
0.0610639 33.0798 -8.02811 8.30078 33.7871 -8.02811 16.5405 34.7043 -8.02811 
24.7802 34.8942 -8.02811 33.0199 34.4381 -8.02811 46.1394 31.5805 -8.02811 
41.2597 33.8005 -8.02811 41.2597 31.5805 -1.54924 -32.8978 -36.0239 0.211612 
-24.6581 -38.4482 0.211612 -16.4184 -40.3957 0.211612 -8.17866 -40.5823 0.211612 
0.0610639 -40.025 0.211612 8.30078 -39.6062 0.211612 16.5405 -38.6954 0.211612 
24.7802 -36.6538 0.211612 33.0199 -34.3709 0.211612 -49.3773 -29.4102 0.211612 
-37.8277 -34.3373 0.211612 -41.1375 -33.1297 0.211612 -32.8978 -34.3373 4.83143 
0.0610639 -34.3373 7.41125 8.30078 -34.3373 7.17208 16.5405 -34.3373 6.34973 
24.7802 -34.3373 4.11928 33.1424 -34.3373 0.211612 33.0199 -34.3373 0.274799 
41.2597 -32.0968 0.211612 49.4994 -28.7894 0.211612 -53.7224 -26.0976 0.211612 
-57.617 -22.6576 0.211612 -49.3773 -26.0976 7.61165 53.5923 -26.0976 0.211612 
49.4994 -26.0976 5.80234 57.7391 -22.2924 0.211612 -61.4499 -17.8578 0.211612 
61.3432 -17.8578 0.211612 57.7391 -17.8578 7.6225 -65.1476 -9.61813 0.211612 
-65.8567 -5.27553 0.211612 65.1657 -9.61813 0.211612 -66.5249 -1.37841 0.211612 
-65.8567 1.72286 0.211612 -65.8567 -1.37841 2.15113 65.6223 -1.37841 0.211612 
65.9788 5.20271 0.211612 -64.7864 6.86131 0.211612 66.0681 6.86131 0.211612 
65.9788 7.10395 0.211612 65.9788 6.86131 0.440508 -61.618 15.101 0.211612 
-57.617 20.3484 0.211612 62.4885 15.101 0.211612 57.7391 22.3664 0.211612 
-54.8223 23.3407 0.211612 -49.3773 27.4687 0.211612 41.2597 30.9652 0.211612 
56.8203 23.3407 0.211612 49.4994 28.2256 0.211612 -41.7662 31.5805 0.211612 
-41.1375 31.8725 0.211612 -41.1375 31.5805 3.86779 -32.8978 35.0252 0.211612 
-24.6581 36.4726 0.211612 -16.4184 36.3967 0.211612 -8.17866 34.9171 0.211612 
0.0610639 32.9974 0.211612 8.30078 31.9174 0.211612 16.5405 31.7815 0.211612 
24.7802 32.0307 0.211612 24.7802 31.5805 2.92919 37.4218 31.5805 0.211612 
33.0199 32.2269 0.211612 33.0199 31.5805 1.80086 -24.6581 -34.4042 8.45133 
-16.4184 -35.0391 8.45133 -8.17866 -34.4449 8.45133 -41.1375 -30.0718 8.45133 
-25.0227 -34.3373 8.45133 -32.8978 -32.7367 8.45133 -24.6581 -34.3373 8.53591 
-16.4184 -34.3373 9.2214 -7.33149 -34.3373 8.45133 -8.17866 -34.3373 8.55389 
0.0610639 -33.0317 8.45133 8.30078 -33.0585 8.45133 16.5405 -32.4551 8.45133 
24.7802 -31.3337 8.45133 33.0199 -29.916 8.45133 41.2597 -27.7313 8.45133 
-57.617 -18.3378 8.45133 -48.7861 -26.0976 8.45133 -49.3773 -25.7206 8.45133 
-41.1375 -26.0976 13.4521 -32.8978 -26.0976 15.3874 -24.6581 -26.0976 16.1184 
-16.4184 -26.0976 15.7496 -8.17866 -26.0976 13.9742 0.0610639 -26.0976 12.7615 
8.30078 -26.0976 13.8138 16.5405 -26.0976 14.0393 24.7802 -26.0976 13.7984 
33.0199 -26.0976 12.9701 45.6463 -26.0976 8.45133 41.2597 -26.0976 10.5254 
49.4994 -24.3371 8.45133 -57.9811 -17.8578 8.45133 -57.617 -17.8578 8.85785 
-49.3773 -17.8578 15.8871 57.1591 -17.8578 8.45133 49.4994 -17.8578 14.4737 
57.7391 -16.9294 8.45133 -62.1735 -9.61813 8.45133 -57.617 -9.61813 14.0685 
61.3789 -9.61813 8.45133 57.7391 -9.61813 12.2138 -63.5569 -1.37841 8.45133 
-57.617 -1.37841 15.8684 62.2899 -1.37841 8.45133 57.7391 -1.37841 13.8799 
-61.6193 6.86131 8.45133 -57.617 6.86131 13.7123 62.0316 6.86131 8.45133 
57.7391 6.86131 13.468 -57.9285 15.101 8.45133 -57.617 15.4896 8.45133 
-57.617 15.101 8.81524 58.3047 15.101 8.45133 57.7391 15.8709 8.45133 
57.7391 15.101 9.13821 -51.1814 23.3407 8.45133 -49.3773 24.9389 8.45133 
-49.3773 23.3407 10.8552 -41.1375 31.1614 8.45133 24.7802 30.6065 8.45133 
33.0199 29.0294 8.45133 41.2597 27.3398 8.45133 41.2597 23.3407 16.0652 
50.3899 23.3407 8.45133 49.4994 23.981 8.45133 49.4994 23.3407 9.31355 
-40.3694 31.5805 8.45133 -32.8978 35.176 8.45133 -24.6581 37.5261 8.45133 
-16.4184 37.8614 8.45133 -8.17866 36.7021 8.45133 0.0610639 34.9313 8.45133 
8.30078 33.7905 8.45133 16.91 31.5805 8.45133 16.5405 31.6259 8.45133 
16.5405 31.5805 9.41412 -41.1375 -21.8365 16.691 -32.8978 -24.0939 16.691 
-24.6581 -24.884 16.691 -16.4184 -23.6525 16.691 -8.17866 -20.221 16.691 
0.0610639 -18.1254 16.691 8.30078 -20.7752 16.691 16.5405 -21.8295 16.691 
[...]
POINT_DATA 518
SCALARS ImageScalars float
LOOKUP_TABLE default
0 0 0 0 0 0 0 0 0 
0 0 0 0 0 0 0 0 0 
0 0 0 0 0 0 0 0 0 
0 0 0 0 0 0 0 0 0 
0 0 0 0 0 0 0 0 0 
0 0 0 0 0 0 0 0 0 
0 0 0 0 0 0 0 0 0 
0 0 0 0 0 0 0 0 0 
0 0 0 0 0 0 0 0 0 
0 0 0 0 0 0 0 0 0 
0 0 0 0 0 0 0 0 0 
0 0 0 0 0 0 0 0 0 
0 0 0 0 0 0 0 0 0 
0 0 0 0 0 0 0 0 0 
0 0 0 0 0 0 0 0 0 
0 0 0 0 0 0 0 0 0 
0 0 0 0 0 0 0 0 0 
0 0 0 0 0 0 0 0 0 
0 0 0 0 0 0 0 0 0 
0 0 0 0 0 0 0 0 0 
0 0 0 0 0 0 0 0 0 
0 0 0 0 0 0 0 0 0 
0 0 0 0 0 0 0 0 0 
0 0 0 0 0 0 0 0 0 
0 0 0 0 0 0 0 0 0 
0 0 0 0 0 0 0 0 0 
0 0 0 0 0 0 0 0 0 
0 0 0 0 0 0 0 0 0 
0 0 0 0 0 0 0 0 0 
0 0 0 0 0 0 0 0 0 
0 0 0 0 0 0 0 0 0 
0 0 0 0 0 0 0 0 0 
0 0 0 0 0 0 0 0 0 
0 0 0 0 0 0 0 0 0 
0 0 0 0 0 0 0 0 0 
0 0 0 0 0 0 0 0 0 
0 0 0 0 0 0 0 0 0 
0 0 0 0 0 0 0 0 0 
0 0 0 0 0 0 0 0 0 
0 0 0 0 0 0 0 0 0 
0 0 0 0 0 0 0 0 0 
0 0 0 0 0 0 0 0 0 
0 0 0 0 0 0 0 0 0 
0 0 0 0 0 0 0 0 0 
0 0 0 0 0 0 0 0 0 
0 0 0 0 0 0 0 0 0 
0 0 0 0 0 0 0 0 0 
0 0 0 0 0 0 0 0 0 
0 0 0 0 0 0 0 0 0 
0 0 0 0 0 0 0 0 0 
0 0 0 0 0 0 0 0 0 
0 0 0 0 0 0 0 0 0 
0 0 0 0 0 0 0 0 0 
0 0 0 0 0 0 0 0 0 
0 0 0 0 0 0 0 0 0 
0 0 0 0 0 0 0 0 0 
0 0 0 0 0 0 0 0 0 
0 0 0 0 0 
NORMALS Normals float
-0.0271547 -0.0508403 -0.998338 -0.27759 -0.562217 -0.779009 -0.173584 -0.440506 -0.880808 
-0.0822905 -0.405167 -0.910532 0.0231099 -0.409815 -0.911876 0.111744 -0.464194 -0.878656 
0.154276 -0.537631 -0.828946 0.230282 -0.645076 -0.728592 -0.326656 -0.547417 -0.770475 
-0.199074 -0.318888 -0.92665 -0.114574 -0.183861 -0.976252 -0.0856833 -0.0967508 -0.991614 
-0.0331327 -0.0209369 -0.999232 0.0046805 -0.0214234 -0.99976 0.031481 -0.057724 -0.997836 
0.0741934 -0.108676 -0.991305 0.07268 -0.206131 -0.975822 0.0844482 -0.352768 -0.931892 
0.285593 -0.516287 -0.807394 -0.421129 -0.355353 -0.83449 -0.171538 -0.203354 -0.963962 
-0.0506569 -0.101381 -0.993557 -0.0314559 -0.00392353 -0.999497 0.00320348 0.0263807 -0.999647 
-0.00318971 0.0362817 -0.999337 -0.0186459 0.0992778 -0.994885 0.0101479 0.0413816 -0.999092 
-0.0070869 0.057503 -0.99832 -0.0398661 -0.039889 -0.998408 0.00567626 -0.108549 -0.994075 
0.108193 -0.165787 -0.980209 0.371997 -0.308418 -0.875498 -0.553504 -0.234528 -0.799143 
-0.285525 -0.185401 -0.940267 -0.0547738 -0.0893293 -0.994495 0.0309649 -0.024012 -0.999232 
0.0157935 0.0505134 -0.998599 -0.0464702 0.00810995 -0.998887 0.0406695 -0.131859 -0.990434 
0.0118402 0.0737364 -0.997207 -0.0270845 -0.051305 -0.998316 -0.0137426 -0.155079 -0.987807 
-0.00809778 0.0439834 -0.998999 -0.105713 0.056943 -0.992765 -0.0665344 -0.0134041 -0.997694 
0.0835939 -0.0802066 -0.993267 0.278598 -0.0785567 -0.95719 0.571311 -0.197527 -0.796609 
-0.523394 -0.0212818 -0.851825 -0.262222 -0.0141171 -0.964904 -0.00241517 0.00164058 -0.999996 
0.0819591 -0.00443616 -0.996626 0.0053666 0.0247598 -0.999679 -0.187677 0.0222925 -0.981978 
0.0765512 -0.0331677 -0.996514 -0.0271732 -0.0505915 -0.99835 -0.0487117 0.0578792 -0.997135 
-0.0264236 -0.0505938 -0.99837 -0.027122 -0.049624 -0.9984 0.213953 0.0389455 -0.976067 
-0.0994509 0.0452988 -0.994011 -0.128755 0.0175675 -0.991521 0.0518115 -0.0165268 -0.99852 
0.254663 -0.0236425 -0.966741 0.543112 -0.0537409 -0.837938 -0.553712 0.179951 -0.813032 
-0.270446 0.145971 -0.951605 -0.0442897 0.107904 -0.993174 0.0536102 0.0469693 -0.997457 
0.0422088 0.00850566 -0.999073 -0.0978928 0.00355309 -0.995191 0.0729989 0.0575588 -0.99567 
-0.00635223 -0.101227 -0.994843 -0.0280199 0.160548 -0.98663 0.0782387 -0.0604854 -0.995098 
-0.124297 -0.0813368 -0.988906 -0.125224 -0.0141169 -0.992028 0.0464054 0.00728708 -0.998896 
0.242968 0.0255166 -0.969699 0.537424 0.119423 -0.834814 -0.315186 0.357207 -0.879239 
-0.11479 0.228995 -0.966636 -0.0170528 0.164031 -0.986308 -0.0425068 0.0988827 -0.994191 
-0.131017 0.0462197 -0.990302 -0.0372606 0.0228984 -0.999043 0.0534149 -0.149801 -0.987272 
0.0149058 0.0229391 -0.999626 -0.0280279 -0.144823 -0.98906 -0.0507268 -0.131907 -0.989963 
-0.044796 0.0034984 -0.99899 0.0787169 0.082567 -0.993472 0.351079 0.169376 -0.920899 
0.621385 0.320163 -0.715106 -0.249411 0.534534 -0.807507 -0.0930575 0.444481 -0.890942 
-0.0797863 0.392646 -0.916222 -0.174832 0.360481 -0.916235 -0.132744 0.321904 -0.93742 
-0.00841094 0.227317 -0.973784 -0.0227554 0.142125 -0.989587 -0.080739 0.104659 -0.991225 
0.0328398 0.0774975 -0.996452 0.0848055 0.177242 -0.980507 0.200302 0.280665 -0.938673 
0.494709 0.432276 -0.753924 -0.15058 0.860312 -0.487021 -0.138726 0.774372 -0.617335 
-0.0918067 0.714264 -0.693829 0.02803 0.681799 -0.731003 0.186391 0.742505 -0.643386 
0.322262 0.806374 -0.49589 -0.318667 -0.701058 -0.637941 -0.198467 -0.754092 -0.626063 
-0.0517765 -0.824931 -0.562857 -0.0191223 -0.997687 -0.0652381 0.0485067 -0.838955 -0.542035 
0.118398 -0.8192 -0.561154 0.186018 -0.772266 -0.607455 0.266487 -0.752696 -0.602024 
-0.353188 -0.617191 -0.703088 -0.359564 -0.676373 -0.642833 -0.357549 -0.640815 -0.679348 
-0.394938 -0.800366 -0.451041 0.296223 -0.755465 -0.5844 0.294061 -0.739631 -0.605372 
0.316885 -0.863794 -0.391719 0.344966 -0.692135 -0.633993 -0.377156 -0.58133 -0.720978 
-0.461829 -0.439276 -0.770552 -0.528446 -0.695189 -0.487295 0.445747 -0.608242 -0.656773 
0.464587 -0.579606 -0.669489 0.486637 -0.642943 -0.591447 -0.505204 -0.383533 -0.773092 
-0.564938 -0.268292 -0.780298 -0.701892 -0.515953 -0.49106 0.558695 -0.415915 -0.717548 
0.606376 -0.344429 -0.716712 0.659935 -0.461966 -0.592514 -0.573355 -0.240764 -0.783133 
0.668118 -0.200193 -0.716617 -0.604281 -0.021842 -0.796472 0.691296 -0.0602927 -0.720052 
-0.595081 0.189815 -0.780928 -0.576066 0.263213 -0.773865 0.705169 0.12751 -0.69748 
-0.480559 0.402602 -0.779086 -0.69324 0.47482 -0.542184 -0.385958 0.491362 -0.780769 
0.631527 0.323778 -0.704515 0.628475 0.338978 -0.700081 -0.306121 0.570441 -0.762159 
-0.467796 0.69269 -0.548951 -0.260774 0.591385 -0.76306 -0.134025 0.609863 -0.781092 
-0.090649 0.611173 -0.786289 -0.14668 0.699199 -0.699718 -0.133075 0.846131 -0.516095 
0.597495 0.485612 -0.638107 0.539254 0.580251 -0.610339 0.749161 0.641079 -0.166658 
-0.175563 0.865044 -0.469976 -0.0674019 0.842993 -0.533686 -0.0664624 0.863292 -0.50031 
-0.142125 0.873686 -0.465267 -0.0890084 0.904343 -0.417422 -0.152809 0.883197 -0.443409 
-0.143685 0.903104 -0.404669 -0.0950059 0.906412 -0.411572 0.0223807 0.92552 -0.378037 
0.177377 0.889895 -0.420267 0.339766 0.813586 -0.471844 0.323435 0.8215 -0.469603 
-0.0148781 -0.999729 0.0179208 -0.371532 -0.918739 -0.133728 -0.318547 -0.945659 -0.0652474 
-0.0864229 -0.996256 -0.00225831 -0.178111 -0.983554 -0.0299808 0.0396259 -0.998863 0.0265232 
-0.009391 -0.997215 0.0739924 0.0659151 -0.997359 0.0305088 0.0995781 -0.994854 0.0187046 
0.177409 -0.984097 -0.00886334 0.260499 -0.965405 -0.011546 0.300031 -0.952776 -0.0468903 
-0.542955 -0.794762 -0.271208 -0.39008 -0.903501 -0.177547 -0.412079 -0.886189 -0.211803 
0.357022 -0.931699 -0.0668745 0.37519 -0.9236 -0.0787147 0.510643 -0.847914 -0.142428 
-0.602589 -0.750905 -0.270238 -0.717208 -0.624967 -0.308268 0.63772 -0.749555 -0.177429 
0.745291 -0.634757 -0.204019 -0.785184 -0.527683 -0.324095 0.848125 -0.486625 -0.209477 
-0.904977 -0.271404 -0.327653 0.931985 -0.253699 -0.258923 -0.944479 -0.0139661 -0.328276 
-0.971262 -0.00687885 -0.237915 0.970599 -0.0546586 -0.234413 -0.930703 0.222893 -0.290019 
0.961792 0.153668 -0.22659 0.986782 0.162036 -0.00255197 -0.836048 0.477983 -0.269362 
-0.717904 0.645195 -0.261414 0.902506 0.378266 -0.205905 -0.618478 0.7399 -0.264638 
-0.50542 0.812187 -0.291381 -0.307729 0.892697 -0.329233 0.469229 0.882686 -0.0262508 
0.753377 0.642123 -0.141782 0.746462 0.650399 -0.140624 0.747123 0.663859 -0.0331408 
-0.245396 0.904256 -0.349431 -0.379627 0.919875 -0.0985612 -0.179737 0.909332 -0.375246 
-0.0507784 0.905435 -0.421437 0.0184723 0.932562 -0.360538 0.0362482 0.974433 -0.221737 
-0.024878 0.998411 -0.0505624 -0.105964 0.989557 0.0977134 -0.0632772 0.987733 0.142757 
0.0173786 0.982817 0.183762 0.0590618 0.993277 0.0995574 0.376351 0.926228 0.0214802 
0.26002 0.964512 0.045887 0.238166 0.922828 0.302764 -0.289991 -0.936055 0.199264 
-0.241677 -0.925563 0.291421 -0.117921 -0.919697 0.374502 0.0197234 -0.904376 0.426281 
0.05262 -0.892837 0.447295 0.0725655 -0.899887 0.430044 0.160957 -0.900154 0.404742 
0.234961 -0.893411 0.382898 0.247853 -0.902979 0.350994 -0.511558 -0.847623 0.140864 
-0.314123 -0.931179 0.185021 -0.342911 -0.923678 0.17097 -0.264305 -0.894548 0.360454 
0.0568571 -0.670956 0.739314 0.0418557 -0.728798 0.683448 0.106496 -0.764457 0.635817 
0.198084 -0.842395 0.501132 0.248632 -0.903008 0.350369 0.247254 -0.902485 0.352685 
0.307223 -0.901813 0.303887 0.450927 -0.854908 0.256508 -0.612305 -0.783661 0.104683 
-0.719593 -0.688493 0.090354 -0.474141 -0.765812 0.434422 0.581203 -0.779224 0.234549 
0.432397 -0.775004 0.460871 0.729416 -0.650795 0.210757 -0.831268 -0.547975 0.0933693 
0.829383 -0.523439 0.195284 0.687736 -0.508663 0.517959 -0.958271 -0.262408 0.113392 
-0.986925 -0.112506 0.115419 0.959764 -0.232254 0.157835 -0.993248 0.0197642 0.114312 
-0.985802 0.102409 0.133065 -0.9817 0.0234178 0.188988 0.982089 -0.0476453 0.182292 
0.974696 0.119753 0.188751 -0.955153 0.249466 0.159527 0.968273 0.163024 0.189394 
0.966788 0.17059 0.190314 0.96628 0.163518 0.198907 -0.850243 0.506101 0.144735 
-0.750819 0.63834 0.169685 0.871414 0.435628 0.225537 0.705018 0.651474 0.280235 
-0.675129 0.723976 0.141631 -0.573343 0.815528 0.0786908 0.226235 0.901627 0.368627 
0.663053 0.690497 0.289093 0.401722 0.863062 0.306177 -0.40508 0.913293 -0.0424961 
-0.391656 0.918718 -0.0506225 -0.442998 0.894792 0.0556791 -0.252106 0.958107 -0.135915 
-0.0864785 0.969378 -0.229843 0.0912437 0.964374 -0.24831 0.197542 0.958782 -0.204241 
0.176146 0.978111 -0.110777 0.0712146 0.997433 -0.00750318 -0.00680124 0.981663 0.190505 
-0.0250368 0.974056 0.224916 0.0349643 0.973874 0.22438 0.148066 0.923059 0.35502 
0.0535159 0.940712 0.334958 0.0810816 0.938484 0.33567 -0.112164 -0.814478 0.569249 
-0.00585686 -0.760523 0.649284 0.0783727 -0.67766 0.731187 -0.32406 -0.821729 0.46877 
-0.117556 -0.815832 0.566214 -0.225724 -0.828675 0.512198 -0.11112 -0.812833 0.571799 
0.00394985 -0.743109 0.669159 0.0767873 -0.672768 0.735858 0.079435 -0.674607 0.73389 
0.0501704 -0.620437 0.78265 0.0250532 -0.686213 0.726969 0.0766939 -0.70813 0.701905 
0.123867 -0.763976 0.633243 0.172339 -0.800968 0.573367 0.266686 -0.794898 0.544992 
-0.701541 -0.517312 0.490132 -0.454744 -0.758216 0.467243 -0.467697 -0.749141 0.469092 
-0.284093 -0.686066 0.66978 -0.123635 -0.601799 0.78902 -0.0142209 -0.51676 0.856012 
0.111195 -0.461139 0.880333 0.156001 -0.461365 0.873388 0.00868955 -0.464216 0.885679 
-0.0662173 -0.527778 0.846797 -0.00103735 -0.588843 0.808247 0.0488504 -0.647391 0.760591 
0.132171 -0.703271 0.698528 0.34207 -0.76395 0.547145 0.260016 -0.762748 0.59212 
0.428145 -0.709545 0.559676 -0.711037 -0.502655 0.491695 -0.701181 -0.501945 0.506355 
-0.426032 -0.469944 0.773078 0.662794 -0.506033 0.551937 0.440086 -0.50719 0.741001 
0.682922 -0.475981 0.55413 -0.841373 -0.252961 0.477601 -0.646132 -0.271079 0.713463 
0.793853 -0.246285 0.556005 0.686658 -0.261184 0.678442 -0.884885 0.0302801 0.464825 
-0.622242 0.00926987 0.78277 0.85214 -0.02743 0.522595 0.698171 -0.0534109 0.713936 
-0.842693 0.25751 0.472818 -0.696471 0.264001 0.667257 0.823669 0.189948 0.534311 
0.699378 0.188604 0.68942 -0.732114 0.489407 0.473804 -0.72688 0.498063 0.472841 
-0.724905 0.48854 0.485635 0.729881 0.446199 0.517861 0.713207 0.469947 0.520082 
0.71725 0.445704 0.535631 -0.651853 0.656316 0.379916 -0.62685 0.691031 0.35991 
-0.634358 0.63659 0.43857 -0.50067 0.841518 0.202922 0.157857 0.958019 0.239335 
0.168523 0.925659 0.338756 0.269628 0.861623 0.430008 0.358692 0.705881 0.610796 
0.473186 0.719064 0.508961 0.450692 0.737485 0.502984 0.460846 0.715266 0.525372 
-0.485169 0.853674 0.189343 -0.361122 0.925909 0.110835 -0.152178 0.988093 0.0226608 
0.0496535 0.998764 -0.0021818 0.178832 0.983614 -0.0228807 0.179631 0.981657 -0.063891 
0.198289 0.975588 -0.0943903 0.192049 0.980532 0.0409252 0.193503 0.980595 0.0314591 
0.210006 0.975437 0.0664853 -0.235498 -0.519768 0.821207 -0.0956709 -0.531748 0.841482 
0.00125656 -0.478957 0.877837 0.111435 -0.39497 0.911911 0.12414 -0.454314 0.88215 
-0.0247674 -0.548556 0.835747 -0.100616 -0.492101 0.864704 -0.0375895 -0.495826 0.867608 
0.0187701 -0.532806 0.846029 0.0935572 -0.547676 0.831443 0.216909 -0.516176 0.828561 
-0.371773 -0.450747 0.811549 -0.414835 -0.422334 0.805944 -0.209512 -0.407326 0.888927 
-0.0322127 -0.360156 0.932336 0.0801861 -0.30169 0.950028 0.0979957 -0.268338 0.958327 
0.0960467 -0.45662 0.884462 -0.0261898 -0.551747 0.8336 -0.0976315 -0.483322 0.869982 
-0.0459731 -0.420395 0.906176 0.00021707 -0.429349 0.903139 0.080296 -0.456362 0.886164 
0.284393 -0.480339 0.829696 0.206928 -0.469296 0.858453 0.430759 -0.358602 0.828162 
-0.515982 -0.262755 0.815305 -0.3897 -0.24578 0.887539 -0.126319 -0.226079 0.965884 
0.0168305 -0.19423 0.980812 0.0962367 -0.206717 0.973656 -0.0415294 -0.26493 0.963373 
-0.102747 -0.404611 0.908699 -0.0128782 -0.335595 0.941918 0.0158381 -0.388275 0.921407 
0.024997 -0.351883 0.93571 -0.00584243 -0.266455 0.96383 0.0635634 -0.266275 0.961799 
0.210681 -0.269273 0.939737 0.489463 -0.26104 0.832036 0.420966 -0.254857 0.870538 
-0.574485 0.00228446 0.818512 -0.380096 -0.0081859 0.924911 -0.160309 -0.0750191 0.984212 
-0.01757 -0.144454 0.989356 0.00754816 -0.232949 0.97246 -0.117114 -0.357898 0.926387 
-0.0297693 -0.348854 0.936704 0.0966573 -0.174274 0.979942 0.0898614 -0.121034 0.988573 
0.216009 -0.112544 0.969884 0.568403 -0.0663852 0.820068 0.433919 -0.0838153 0.897045 
-0.582296 0.21922 0.782862 -0.466749 0.15201 0.871228 -0.258377 0.0276911 0.965647 
-0.141603 -0.122435 0.982323 0.114952 0.00597839 0.993353 0.231026 0.064231 0.970825 
0.585387 0.160485 0.794712 0.474754 0.125748 0.871089 -0.59022 0.362932 0.721055 
-0.590386 0.390859 0.706168 -0.57701 0.347679 0.739039 -0.401368 0.206524 0.892329 
0.149156 0.150417 0.977306 0.205079 0.244554 0.9477 0.362478 0.676584 0.640971 
0.324276 0.336706 0.88401 0.528903 0.405746 0.745407 0.51753 0.423531 0.743495 
0.515322 0.405399 0.755046 -0.572175 0.505834 0.64556 -0.558095 0.569523 0.603468 
-0.53069 0.451204 0.717484 -0.359454 0.346724 0.866358 0.32828 0.876481 0.352154 
0.158517 0.406748 0.899682 0.298878 0.812908 0.499853 0.252765 0.572186 0.780201 
0.345673 0.697292 0.627928 0.256439 0.758114 0.599585 0.263754 0.661693 0.701852 
-0.455335 0.736698 0.499945 -0.427313 0.757531 0.493509 -0.415632 0.719834 0.555958 
-0.19215 0.871435 0.451309 -0.208516 0.657613 0.723924 0.0436745 0.906092 0.420821 
0.0250681 0.648786 0.760558 0.137403 0.889698 0.435383 0.126789 0.719524 0.682796 
0.11036 0.904895 0.411078 0.0924978 0.789627 0.606575 0.304523 0.886558 0.348253 
0.159906 0.916308 0.367165 0.149548 0.835632 0.52854 -0.0305976 -0.342708 0.938944 
-0.0559858 -0.362428 0.930329 0.0980711 -0.295675 0.950241 -0.0902973 -0.209426 0.973646 
-0.0350407 -0.341621 0.939184 -0.14565 -0.325615 0.934217 -0.0261248 -0.341394 0.939557 
-0.0251757 -0.338937 0.940472 -0.0610077 -0.357081 0.932079 -0.0287547 -0.346466 0.937622 
-0.0760599 -0.355474 0.931586 0.10312 -0.269358 0.957503 0.104655 -0.290974 0.95099 
0.15325 -0.0724917 0.985525 -0.132287 -0.155068 0.979007 -0.177108 -0.0610722 0.982295 
-0.118401 -0.200307 0.972552 -0.176414 -0.274168 0.945362 -0.0933755 -0.235145 0.967465 
-0.00902297 -0.290058 0.956966 0.0807844 -0.107728 0.990893 0.210355 -0.0424507 0.976703 
0.153329 -0.0477106 0.987023 0.149444 0.146316 0.977885 0.16158 -0.0569162 0.985217 
-0.261955 0.0697111 0.962559 -0.272389 0.140834 0.951825 -0.231524 0.0409771 0.971966 
-0.159313 -0.0256868 0.986894 -0.158015 -0.00596726 0.987419 -0.049878 0.100883 0.993647 
0.0895816 0.148247 0.984885 0.176138 0.20987 0.961733 0.149167 0.150406 0.977306 
0.150754 0.279619 0.948202 0.162045 0.166333 0.972664 -0.249082 0.281001 0.926821 
-0.180745 0.325047 0.928265 -0.170997 0.235767 0.956647 -0.00680636 0.437021 0.899425 
-0.0405754 0.283587 0.958088 0.087562 0.48675 0.869142 0.0661843 0.413077 0.908288 
0.0847397 0.478061 0.874229 0.0891607 0.450337 0.888396 0.0862053 0.385017 0.918875 
0.0838223 0.387756 0.917943 0.083859 0.385174 0.919026 
