# vtk DataFile Version 4.2
vtk output
ASCII
DATASET POLYDATA
POINTS 532 float
-26.4053 -42.0902 -14.5841 -17.5924 -42.0902 -15.7828 -8.77952 -42.0902 -15.9488 
0.0333647 -42.0902 -14.7046 8.84625 -42.0902 -14.0071 -35.2182 -33.2774 -16.025 
-26.4053 -33.2774 -18.2166 -17.5924 -33.2774 -19.1933 -8.77952 -33.2774 -19.0111 
0.0333647 -33.2774 -17.38 8.84625 -33.2774 -15.213 17.6591 -33.2774 -14.0418 
-44.0311 -24.4645 -16.6946 -35.2182 -24.4645 -18.5491 -26.4053 -24.4645 -19.7686 
-17.5924 -24.4645 -19.8969 -8.77952 -24.4645 -19.2764 0.0333647 -24.4645 -16.9954 
8.84625 -24.4645 -15.425 17.6591 -24.4645 -15.5469 26.472 -24.4645 -16.2298 
35.2849 -24.4645 -17.31 44.0978 -24.4645 -17.3978 52.9107 -24.4645 -15.5184 
-52.844 -15.6516 -15.7942 -44.0311 -15.6516 -18.4845 -35.2182 -15.6516 -19.5019 
-26.4053 -15.6516 -19.2726 -17.5924 -15.6516 -18.9928 -8.77952 -15.6516 -19.4649 
0.0333647 -15.6516 -16.0146 8.84625 -15.6516 -14.5938 17.6591 -15.6516 -16.5924 
26.472 -15.6516 -18.2991 35.2849 -15.6516 -19.3183 44.0978 -15.6516 -19.9525 
52.9107 -15.6516 -17.9244 61.7236 -15.6516 -14.8937 -52.844 -6.8387 -17.8348 
-44.0311 -6.8387 -20.0411 -35.2182 -6.8387 -20.4836 -26.4053 -6.8387 -19.0386 
-17.5924 -6.8387 -17.4783 -8.77952 -6.8387 -19.6715 0.0333647 -6.8387 -17.784 
8.84625 -6.8387 -17.1034 17.6591 -6.8387 -18.2129 26.472 -6.8387 -18.8326 
35.2849 -6.8387 -19.9399 44.0978 -6.8387 -20.3591 52.9107 -6.8387 -19.7544 
61.7236 -6.8387 -17.6874 -61.6568 1.97419 -16.2492 -52.844 1.97419 -19.931 
-44.0311 1.97419 -21.4341 -35.2182 1.97419 -21.4236 -26.4053 1.97419 -20.1275 
-17.5924 1.97419 -18.0789 -8.77952 1.97419 -18.8002 0.0333647 1.97419 -17.0055 
8.84625 1.97419 -21.361 17.6591 1.97419 -19.0021 26.472 1.97419 -19.0408 
35.2849 1.97419 -20.1277 44.0978 1.97419 -20.521 52.9107 1.97419 -19.7898 
61.7236 1.97419 -17.7902 -61.6568 10.7871 -14.9396 -52.844 10.7871 -19.5725 
-44.0311 10.7871 -20.5985 -35.2182 10.7871 -20.7041 -26.4053 10.7871 -18.7163 
-17.5924 10.7871 -16.9163 -8.77952 10.7871 -19.9258 0.0333647 10.7871 -19.2773 
8.84625 10.7871 -21.7943 17.6591 10.7871 -20.191 26.472 10.7871 -19.965 
35.2849 10.7871 -20.2499 44.0978 10.7871 -20.4365 52.9107 10.7871 -19.3485 
61.7236 10.7871 -16.8152 -52.844 19.6 -15.9222 -44.0311 19.6 -17.0189 
-35.2182 19.6 -16.2894 -26.4053 19.6 -14.1315 -17.5924 19.6 -14.5155 
-8.77952 19.6 -19.0121 0.0333647 19.6 -19.5491 8.84625 19.6 -20.3293 
17.6591 19.6 -20.8201 26.472 19.6 -20.1958 35.2849 19.6 -20.1302 
44.0978 19.6 -19.923 52.9107 19.6 -17.8807 61.7236 19.6 -15.5851 
-8.77952 28.4128 -18.685 0.0333647 28.4128 -19.8764 8.84625 28.4128 -20.1684 
17.6591 28.4128 -20.0758 26.472 28.4128 -19.2542 35.2849 28.4128 -18.553 
44.0978 28.4128 -16.2886 -8.77952 37.2257 -17.449 0.0333647 37.2257 -17.8821 
8.84625 37.2257 -17.3481 17.6591 37.2257 -16.6907 26.472 37.2257 -15.0976 
-8.77952 46.0386 -13.8571 -26.4053 -43.3942 -13.5445 -17.5924 -44.8723 -13.5445 
-8.77952 -45.1681 -13.5445 -8.77952 -50.9031 -5.42601 0.0333647 -43.6889 -13.5445 
8.84625 -42.7327 -13.5445 -29.0074 -42.0902 -13.5445 -35.2182 -37.6705 -13.5445 
-35.2182 -42.0902 -9.28879 10.3379 -42.0902 -13.5445 17.6591 -34.7441 -13.5445 
17.6591 -42.0902 -10.3176 26.472 -42.0902 -6.6356 -52.844 -33.2774 -5.15188 
-41.7365 -33.2774 -13.5445 -44.0311 -31.5501 -13.5445 -44.0311 -33.2774 -12.3423 
23.1663 -33.2774 -13.5445 26.472 -32.3917 -13.5445 26.472 -33.2774 -13.2214 
35.2849 -31.5084 -13.5445 35.2849 -33.2774 -12.4384 44.0978 -30.5958 -13.5445 
44.0978 -33.2774 -11.006 52.9107 -27.8724 -13.5445 52.9107 -33.2774 -8.54023 
-50.4108 -24.4645 -13.5445 -52.844 -20.8158 -13.5445 -52.844 -24.4645 -11.8274 
58.8734 -24.4645 -13.5445 61.7236 -20.9812 -13.5445 61.7236 -24.4645 -12.1462 
-56.6041 -15.6516 -13.5445 -61.6568 -15.6516 -9.75196 63.7671 -15.6516 -13.5445 
70.5365 -15.6516 -5.35248 -60.6619 -6.8387 -13.5445 -61.6568 -5.04836 -13.5445 
-61.6568 -6.8387 -12.8081 68.2387 -6.8387 -13.5445 70.5365 -6.8387 -10.4816 
-64.7507 1.97419 -13.5445 -70.4697 1.97419 -5.76013 67.6536 1.97419 -13.5445 
70.5365 1.97419 -9.56094 -63.2684 10.7871 -13.5445 -61.6568 15.1772 -13.5445 
65.8343 10.7871 -13.5445 70.5365 10.7871 -5.92223 -58.9247 19.6 -13.5445 
-61.6568 19.6 -11.4924 -52.844 22.7753 -13.5445 -44.0311 23.6331 -13.5445 
-35.2182 23.0433 -13.5445 -26.4053 21.1852 -13.5445 -17.5924 26.1724 -13.5445 
52.9107 27.8782 -13.5445 64.1147 19.6 -13.5445 61.7236 22.5363 -13.5445 
-52.844 28.4128 -6.11879 -44.0311 28.4128 -9.2908 -35.2182 28.4128 -9.31708 
-26.4053 28.4128 -11.1959 -17.0635 28.4128 -13.5445 -17.5924 28.4128 -13.2044 
35.2849 35.0198 -13.5445 52.0365 28.4128 -13.5445 44.0978 32.0762 -13.5445 
52.9107 28.4128 -12.8629 -26.4053 37.2257 -7.57912 -17.3745 37.2257 -13.5445 
-17.5924 37.2257 -13.4363 0.0333647 45.7031 -13.5445 8.84625 42.6397 -13.5445 
17.6591 40.9158 -13.5445 30.5662 37.2257 -13.5445 26.472 38.7522 -13.5445 
35.2849 37.2257 -9.95798 -26.4053 46.0386 -5.91769 -10.2551 46.0386 -13.5445 
-17.5924 46.0386 -11.4108 -3.19495 46.0386 -13.5445 -8.77952 46.5116 -13.5445 
0.0333647 46.0386 -13.2881 8.84625 46.0386 -9.25542 -8.77952 54.8515 -5.20281 
-8.77952 -51.2234 -4.7316 -35.2182 -44.7394 -4.7316 -26.4053 -48.2767 -4.7316 
-11.9097 -50.9031 -4.7316 -17.5924 -50.3082 -4.7316 -4.1399 -50.9031 -4.7316 
-8.77952 -50.9031 -1.87136 0.0333647 -50.5984 -4.7316 8.84625 -49.2988 -4.7316 
17.6591 -46.6872 -4.7316 26.472 -43.5606 -4.7316 -52.844 -33.5746 -4.7316 
-40.3636 -42.0902 -4.7316 -44.0311 -39.8317 -4.7316 31.197 -42.0902 -4.7316 
35.2849 -40.6408 -4.7316 44.0978 -37.9034 -4.7316 52.9107 -35.2545 -4.7316 
-53.1623 -33.2774 -4.7316 56.6416 -33.2774 -4.7316 61.7236 -29.81 -4.7316 
-60.5175 -24.4645 -4.7316 -61.6568 -22.7375 -4.7316 -61.6568 -24.4645 0.33582 
67.0268 -24.4645 -4.7316 70.5365 -16.5211 -4.7316 -65.1271 -15.6516 -4.7316 
70.8209 -15.6516 -4.7316 70.5365 -15.6516 -3.43677 -68.0725 -6.8387 -4.7316 
-70.4697 0.304311 -4.7316 72.7358 -6.8387 -4.7316 -70.955 1.97419 -4.7316 
-70.4697 6.06364 -4.7316 72.4422 1.97419 -4.7316 70.5365 1.97419 2.07365 
-69.8616 10.7871 -4.7316 70.9974 10.7871 -4.7316 70.5365 11.9013 -4.7316 
70.5365 10.7871 -3.19484 -66.1301 19.6 -4.7316 -61.6568 24.0227 -4.7316 
67.1169 19.6 -4.7316 61.7236 25.9743 -4.7316 -54.4669 28.4128 -4.7316 
-52.844 29.2816 -4.7316 -44.0311 32.0024 -4.7316 -35.2182 35.5773 -4.7316 
44.0978 36.7812 -4.7316 58.6438 28.4128 -4.7316 52.9107 32.1469 -4.7316 
-32.8352 37.2257 -4.7316 -35.2182 37.2257 -2.5573 17.6591 45.6658 -4.7316 
26.472 42.662 -4.7316 42.6461 37.2257 -4.7316 35.2849 39.4315 -4.7316 
-27.4836 46.0386 -4.7316 -26.4053 47.2482 -4.7316 -17.5924 52.8643 -4.7316 
0.0333647 52.0504 -4.7316 16.5317 46.0386 -4.7316 8.84625 48.5394 -4.7316 
-10.3674 54.8515 -4.7316 -7.90063 54.8515 -4.7316 -8.77952 55.1394 -4.7316 
-35.2182 -44.2956 4.08129 -26.4053 -47.5727 4.08129 -17.5924 -49.6136 4.08129 
-8.77952 -50.1532 4.08129 0.0333647 -49.2391 4.08129 8.84625 -48.1512 4.08129 
17.6591 -46.2064 4.08129 26.472 -43.5688 4.08129 -52.844 -34.5956 4.08129 
-40.1262 -42.0902 4.08129 -44.0311 -40.1951 4.08129 -35.2182 -42.0902 7.79383 
-26.4053 -42.0902 12.2839 8.84625 -42.0902 11.3761 17.6591 -42.0902 9.43634 
31.1322 -42.0902 4.08129 26.472 -42.0902 6.24828 35.2849 -40.5967 4.08129 
44.0978 -37.6554 4.08129 52.9107 -34.5355 4.08129 -54.3939 -33.2774 4.08129 
-61.6568 -25.2884 4.08129 -52.844 -33.2774 6.91272 35.2849 -33.2774 12.4171 
44.0978 -33.2774 9.60793 55.1156 -33.2774 4.08129 52.9107 -33.2774 6.02181 
61.7236 -28.1362 4.08129 -62.2655 -24.4645 4.08129 -61.6568 -24.4645 5.4743 
52.9107 -24.4645 12.1924 65.1595 -24.4645 4.08129 61.7236 -24.4645 7.57352 
-66.4802 -15.6516 4.08129 68.3348 -15.6516 4.08129 61.7236 -15.6516 11.2102 
70.5365 -7.11388 4.08129 -68.7923 -6.8387 4.08129 -70.4697 1.91869 4.08129 
70.5903 -6.8387 4.08129 70.5365 -6.10812 4.08129 70.5365 -6.8387 4.15355 
-70.4805 1.97419 4.08129 -70.4697 2.03173 4.08129 -70.4697 1.97419 4.09925 
69.7655 1.97419 4.08129 61.7236 1.97419 12.4017 -68.4151 10.7871 4.08129 
67.733 10.7871 4.08129 61.7236 10.7871 10.6771 -64.9337 19.6 4.08129 
-61.6568 23.189 4.08129 -61.6568 19.6 8.02971 -52.844 19.6 12.658 
52.9107 19.6 12.4522 64.2827 19.6 4.08129 61.7236 22.7538 4.08129 
61.7236 19.6 6.91298 -54.9688 28.4128 4.08129 -52.844 29.8169 4.08129 
-52.844 28.4128 6.2724 -44.0311 34.0195 4.08129 -44.0311 28.4128 11.0573 
44.0978 34.5009 4.08129 44.0978 28.4128 10.7243 55.1696 28.4128 4.08129 
52.9107 29.9326 4.08129 52.9107 28.4128 6.18074 -39.6972 37.2257 4.08129 
-35.2182 40.8919 4.08129 -35.2182 37.2257 9.47615 17.6591 45.8891 4.08129 
26.472 41.735 4.08129 26.472 37.2257 11.9152 37.1168 37.2257 4.08129 
35.2849 37.8061 4.08129 35.2849 37.2257 5.03569 -30.3405 46.0386 4.08129 
-26.4053 50.0238 4.08129 -26.4053 46.0386 9.70535 -17.5924 54.684 4.08129 
0.0333647 52.8674 4.08129 17.27 46.0386 4.08129 8.84625 49.2125 4.08129 
8.84625 46.0386 11.6455 -16.7106 54.8515 4.08129 -5.02478 54.8515 4.08129 
-8.77952 56.258 4.08129 -8.77952 54.8515 7.21067 -17.5924 -43.9808 12.8942 
-8.77952 -43.5113 12.8942 0.0333647 -42.2389 12.8942 -44.0311 -33.6634 12.8942 
-35.2182 -37.7729 12.8942 -24.5437 -42.0902 12.8942 -26.4053 -41.4273 12.8942 
-17.5924 -42.0902 14.5266 -8.77952 -42.0902 14.124 0.782309 -42.0902 12.8942 
0.0333647 -42.0902 13.0078 8.84625 -39.8823 12.8942 17.6591 -37.8514 12.8942 
26.472 -35.1045 12.8942 -44.8282 -33.2774 12.8942 -52.844 -28.1071 12.8942 
-44.0311 -33.2774 13.2429 -35.2182 -33.2774 16.1789 -26.4053 -33.2774 17.7819 
-17.5924 -33.2774 19.0032 -8.77952 -33.2774 18.6721 0.0333647 -33.2774 17.0696 
8.84625 -33.2774 16.3297 17.6591 -33.2774 15.5164 33.1912 -33.2774 12.8942 
26.472 -33.2774 14.1509 35.2849 -32.5251 12.8942 44.0978 -29.3976 12.8942 
-56.0727 -24.4645 12.8942 -61.6568 -17.6305 12.8942 -52.844 -24.4645 15.3353 
-44.0311 -24.4645 18.4648 -35.2182 -24.4645 19.9184 -26.4053 -24.4645 20.0712 
-17.5924 -24.4645 20.7616 -8.77952 -24.4645 20.2024 0.0333647 -24.4645 18.7258 
[...]
POINT_DATA 532
SCALARS ImageScalars float
LOOKUP_TABLE default
0 0 0 0 0 0 0 0 0 
0 0 0 0 0 0 0 0 0 
0 0 0 0 0 0 0 0 0 
0 0 0 0 0 0 0 0 0 
0 0 0 0 0 0 0 0 0 
0 0 0 0 0 0 0 0 0 
0 0 0 0 0 0 0 0 0 
0 0 0 0 0 0 0 0 0 
0 0 0 0 0 0 0 0 0 
0 0 0 0 0 0 0 0 0 
0 0 0 0 0 0 0 0 0 
0 0 0 0 0 0 0 0 0 
0 0 0 0 0 0 0 0 0 
0 0 0 0 0 0 0 0 0 
0 0 0 0 0 0 0 0 0 
0 0 0 0 0 0 0 0 0 
0 0 0 0 0 0 0 0 0 
0 0 0 0 0 0 0 0 0 
0 0 0 0 0 0 0 0 0 
0 0 0 0 0 0 0 0 0 
0 0 0 0 0 0 0 0 0 
0 0 0 0 0 0 0 0 0 
0 0 0 0 0 0 0 0 0 
0 0 0 0 0 0 0 0 0 
0 0 0 0 0 0 0 0 0 
0 0 0 0 0 0 0 0 0 
0 0 0 0 0 0 0 0 0 
0 0 0 0 0 0 0 0 0 
0 0 0 0 0 0 0 0 0 
0 0 0 0 0 0 0 0 0 
0 0 0 0 0 0 0 0 0 
0 0 0 0 0 0 0 0 0 
0 0 0 0 0 0 0 0 0 
0 0 0 0 0 0 0 0 0 
0 0 0 0 0 0 0 0 0 
0 0 0 0 0 0 0 0 0 
0 0 0 0 0 0 0 0 0 
0 0 0 0 0 0 0 0 0 
0 0 0 0 0 0 0 0 0 
0 0 0 0 0 0 0 0 0 
0 0 0 0 0 0 0 0 0 
0 0 0 0 0 0 0 0 0 
0 0 0 0 0 0 0 0 0 
0 0 0 0 0 0 0 0 0 
0 0 0 0 0 0 0 0 0 
0 0 0 0 0 0 0 0 0 
0 0 0 0 0 0 0 0 0 
0 0 0 0 0 0 0 0 0 
0 0 0 0 0 0 0 0 0 
0 0 0 0 0 0 0 0 0 
0 0 0 0 0 0 0 0 0 
0 0 0 0 0 0 0 0 0 
0 0 0 0 0 0 0 0 0 
0 0 0 0 0 0 0 0 0 
0 0 0 0 0 0 0 0 0 
0 0 0 0 0 0 0 0 0 
0 0 0 0 0 0 0 0 0 
0 0 0 0 0 0 0 0 0 
0 0 0 0 0 0 0 0 0 
0 
NORMALS Normals float
-0.235438 -0.578589 -0.7809 -0.0725314 -0.521157 -0.850373 0.0551884 -0.498693 -0.86502 
0.10345 -0.460903 -0.8814 0.193962 -0.430932 -0.881292 -0.275816 -0.387529 -0.879629 
-0.160943 -0.266054 -0.950428 -0.0466546 -0.206854 -0.977259 0.098241 -0.159328 -0.982325 
0.208262 -0.111819 -0.97166 0.179958 -0.0818156 -0.980266 0.108797 -0.251256 -0.961787 
-0.317751 -0.266766 -0.909874 -0.166167 -0.172668 -0.970863 -0.0843101 -0.0612687 -0.994554 
0.027323 0.0134016 -0.999537 0.161386 -0.0249605 -0.986576 0.219284 0.0664695 -0.973394 
0.07985 0.0355609 -0.996172 -0.0427101 -0.136669 -0.989696 -0.0944833 -0.270366 -0.95811 
-0.0630001 -0.349254 -0.934908 0.0753435 -0.392022 -0.916865 0.271549 -0.384014 -0.882493 
-0.403181 -0.285804 -0.869345 -0.180772 -0.198139 -0.96336 -0.0405486 -0.115398 -0.992491 
0.0285429 0.040391 -0.998776 -0.0106552 0.135533 -0.990716 0.130355 -0.0200467 -0.991265 
0.30476 -0.0221958 -0.952171 -0.0462083 -0.0692455 -0.996529 -0.206281 -0.149685 -0.966976 
-0.151023 -0.138746 -0.978745 -0.0894939 -0.139189 -0.986214 0.0784339 -0.177922 -0.980914 
0.243642 -0.200124 -0.948994 0.465161 -0.257198 -0.847039 -0.34266 -0.20089 -0.91773 
-0.139362 -0.158962 -0.977399 0.0567223 -0.107722 -0.992562 0.171571 -0.0485628 -0.983974 
-0.0127602 0.0548647 -0.998412 -0.0515023 0.0397312 -0.997882 0.146941 -0.0491615 -0.987923 
-0.0373089 -0.389928 -0.920089 -0.0870484 -0.132824 -0.98731 -0.098544 -0.0413582 -0.994273 
-0.0881295 -0.0462425 -0.995035 0.00922256 -0.0308963 -0.99948 0.131834 -0.104342 -0.985765 
0.406901 -0.135753 -0.903329 -0.553479 -0.0987198 -0.826991 -0.248321 -0.092187 -0.964281 
-0.0793628 -0.0297468 -0.996402 0.0737201 -0.014091 -0.997179 0.179965 0.0103233 -0.983619 
0.0808692 0.025509 -0.996398 0.0591792 -0.018319 -0.998079 -0.125829 -0.102158 -0.986778 
-0.109449 -0.232274 -0.966473 0.120533 -0.114413 -0.986094 -0.0647473 -0.0613299 -0.996015 
-0.0836109 -0.0174957 -0.996345 0.0177905 -0.00435532 -0.999832 0.131136 0.0224943 -0.991109 
0.429317 0.0376088 -0.90237 -0.609997 0.185565 -0.77037 -0.247728 0.214496 -0.944787 
-0.0663465 0.194647 -0.978627 0.0966329 0.263162 -0.9599 0.204353 0.28705 -0.935864 
-0.0648947 0.202692 -0.97709 -0.12452 -0.0120009 -0.992144 -0.100797 -0.133219 -0.985947 
-0.0589527 0.0637188 -0.996225 0.101326 -0.102804 -0.989527 -0.00420807 -0.0677278 -0.997695 
-0.0260857 -0.00031261 -0.99966 0.0481317 0.03164 -0.99834 0.170705 0.109302 -0.979241 
0.507849 0.134682 -0.850853 -0.229798 0.524585 -0.819758 -0.0251487 0.5638 -0.825528 
0.128197 0.573138 -0.809369 0.0923355 0.412064 -0.906464 -0.259712 0.181061 -0.94856 
-0.283791 0.066686 -0.956565 -0.072462 -0.0333406 -0.996814 -0.073124 0.0884157 -0.993396 
0.00763919 0.00724539 -0.999945 0.0390194 0.0377774 -0.998524 0.0148911 0.0823256 -0.996494 
0.131916 0.22827 -0.96462 0.24942 0.280577 -0.926858 0.555059 0.388317 -0.735608 
-0.300275 0.0874975 -0.949831 -0.0801731 0.086012 -0.993063 -0.0109291 0.155458 -0.987782 
0.0490818 0.208733 -0.97674 0.0815123 0.245588 -0.965941 0.162178 0.394992 -0.904257 
0.246046 0.512525 -0.822666 -0.225711 0.246592 -0.942468 0.0036559 0.333726 -0.942663 
0.0626592 0.457646 -0.886924 0.111387 0.55398 -0.825045 0.244161 0.658322 -0.712038 
-0.0727841 0.507771 -0.858412 -0.248302 -0.637457 -0.72938 -0.0769993 -0.661609 -0.745885 
0.0440275 -0.628502 -0.776561 -0.0137081 -0.976882 -0.213338 0.100886 -0.545755 -0.831849 
0.191659 -0.466884 -0.8633 -0.288391 -0.616751 -0.732426 -0.352114 -0.544556 -0.761232 
-0.425056 -0.778251 -0.462227 0.213127 -0.441583 -0.87154 0.144834 -0.288284 -0.946528 
0.341452 -0.601761 -0.722007 0.294966 -0.82496 -0.482117 -0.645894 -0.675393 -0.355901 
-0.390956 -0.5058 -0.768974 -0.413633 -0.486084 -0.769825 -0.44447 -0.561294 -0.698137 
0.0886109 -0.364123 -0.927126 0.0599805 -0.41229 -0.909076 0.0794809 -0.436766 -0.896057 
0.0506401 -0.503072 -0.86276 0.0994378 -0.576245 -0.811206 0.0956046 -0.617712 -0.780571 
0.138723 -0.759374 -0.635694 0.285531 -0.521137 -0.804293 0.356836 -0.83072 -0.427284 
-0.495597 -0.355764 -0.792348 -0.492813 -0.35179 -0.795851 -0.56581 -0.408999 -0.715946 
0.415973 -0.434705 -0.798748 0.476804 -0.368958 -0.797827 0.52517 -0.489761 -0.695939 
-0.493358 -0.317614 -0.809765 -0.701307 -0.351896 -0.61995 0.535385 -0.26252 -0.802774 
0.945198 -0.284787 -0.159679 -0.583973 -0.250757 -0.772073 -0.606891 -0.22143 -0.763317 
-0.629836 -0.258734 -0.732368 0.664705 -0.123725 -0.73679 0.865998 -0.115906 -0.486429 
-0.662814 -0.0997401 -0.742112 -0.959673 -0.0911428 -0.265933 0.674628 0.0829553 -0.733482 
0.908787 0.102282 -0.40453 -0.659473 0.18135 -0.729526 -0.607068 0.285127 -0.741735 
0.659312 0.163098 -0.733966 0.950986 0.286441 -0.116521 -0.465333 0.470833 -0.749521 
-0.608628 0.477003 -0.634066 -0.194327 0.69375 -0.693504 -0.0117931 0.669525 -0.742696 
0.0529888 0.609804 -0.790779 0.0356308 0.394156 -0.918353 -0.387299 0.0968004 -0.916858 
0.405447 0.661243 -0.631166 0.659232 0.391253 -0.642132 0.579193 0.510152 -0.635831 
-0.371278 0.856948 -0.357481 -0.102429 0.787049 -0.608328 -0.101548 0.583195 -0.80596 
-0.204849 0.337778 -0.918664 -0.425968 0.0635433 -0.902504 -0.430453 0.0636728 -0.900364 
0.265312 0.691604 -0.671784 0.399948 0.667244 -0.628353 0.289232 0.68072 -0.673027 
0.428341 0.698967 -0.572686 -0.501236 0.264489 -0.823898 -0.492204 0.0628174 -0.86821 
-0.498832 0.0596065 -0.864647 0.141498 0.619091 -0.772466 0.161643 0.655229 -0.737934 
0.171747 0.71015 -0.682781 0.271979 0.718548 -0.64009 0.257939 0.728015 -0.635186 
0.311222 0.854826 -0.415227 -0.642846 0.479713 -0.59718 -0.12088 0.492778 -0.861718 
-0.389107 0.435371 -0.811818 0.066615 0.589798 -0.804798 -0.0662277 0.523536 -0.849426 
0.150611 0.636937 -0.75606 0.271022 0.832334 -0.483495 0.0716688 0.914767 -0.397575 
-0.0167419 -0.98466 -0.173681 -0.425775 -0.878781 -0.215543 -0.298493 -0.94011 -0.164607 
-0.0673842 -0.982844 -0.171691 -0.157793 -0.972457 -0.171548 0.0461107 -0.983217 -0.176514 
-0.00706271 -0.999849 -0.0158468 0.1035 -0.977941 -0.181436 0.208666 -0.950943 -0.2284 
0.334369 -0.898084 -0.285732 0.323774 -0.874427 -0.361315 -0.646875 -0.685868 -0.333374 
-0.487036 -0.8416 -0.233465 -0.534605 -0.800779 -0.270092 0.309919 -0.896873 -0.315546 
0.289256 -0.913686 -0.285499 0.277148 -0.918604 -0.2817 0.387354 -0.899709 -0.201199 
-0.651974 -0.679896 -0.335665 0.487351 -0.851942 -0.19153 0.647178 -0.74061 -0.180715 
-0.753992 -0.528794 -0.389709 -0.778941 -0.500015 -0.378465 -0.825565 -0.557171 -0.0894551 
0.801621 -0.572864 -0.170969 0.944256 -0.305051 -0.123793 -0.856314 -0.377209 -0.352761 
0.953051 -0.278469 -0.11895 0.959763 -0.278542 -0.035632 -0.897664 -0.303837 -0.319189 
-0.965723 -0.128506 -0.225533 0.994062 -0.0881483 -0.0637976 -0.973772 -0.0868205 -0.21031 
-0.979211 0.0548369 -0.195291 0.994199 0.0938544 -0.0525284 0.917099 0.120046 0.380155 
-0.958721 0.222691 -0.176816 0.958249 0.28304 -0.0405822 0.950171 0.309031 -0.040934 
0.956424 0.288108 0.0474036 -0.756609 0.618759 -0.211376 -0.611833 0.77285 -0.168413 
0.852501 0.52231 -0.0208518 0.694272 0.719395 -0.0213892 -0.439733 0.852782 -0.281776 
-0.403174 0.857951 -0.318388 -0.258499 0.84813 -0.462443 -0.38996 0.632001 -0.669706 
0.356703 0.9302 -0.0865486 0.610521 0.79034 -0.0512573 0.493019 0.867549 -0.0655107 
-0.467732 0.548363 -0.6932 -0.51971 0.703519 -0.484729 0.31041 0.92694 -0.210778 
0.329003 0.93536 -0.12984 0.348165 0.933187 -0.0891274 0.329655 0.939558 -0.0925118 
-0.674421 0.513196 -0.530835 -0.648223 0.54234 -0.534485 -0.382787 0.816448 -0.432304 
0.324604 0.896115 -0.302672 0.312675 0.924559 -0.217773 0.327287 0.905324 -0.270688 
-0.00426127 0.923901 -0.382607 0.10343 0.924468 -0.366962 0.0745279 0.924104 -0.374803 
-0.381563 -0.882153 0.276071 -0.279792 -0.916678 0.285339 -0.134181 -0.951713 0.276111 
0.0167219 -0.943011 0.332341 0.102649 -0.929989 0.352964 0.156901 -0.917012 0.366702 
0.253059 -0.907529 0.335188 0.286833 -0.906174 0.310767 -0.611554 -0.776958 0.149463 
-0.43349 -0.868463 0.240539 -0.473247 -0.854483 0.214233 -0.349123 -0.825904 0.442713 
-0.243532 -0.669076 0.70216 0.144103 -0.63041 0.762769 0.210967 -0.738322 0.640604 
0.294199 -0.909102 0.294925 0.265274 -0.864728 0.426468 0.30679 -0.90737 0.287332 
0.303905 -0.898973 0.315419 0.432106 -0.835778 0.338762 -0.643827 -0.752008 0.14132 
-0.817786 -0.562359 0.122386 -0.594273 -0.748079 0.295326 0.2061 -0.571846 0.79405 
0.245713 -0.740386 0.625663 0.484035 -0.801495 0.351163 0.431285 -0.785848 0.443212 
0.652989 -0.62614 0.426092 -0.830299 -0.543994 0.121136 -0.811128 -0.551204 0.195564 
0.397967 -0.376009 0.836803 0.76253 -0.513345 0.393732 0.595943 -0.533917 0.599821 
-0.929599 -0.353189 0.10537 0.833671 -0.242886 0.495983 0.57731 -0.260276 0.773931 
0.872355 -0.0640533 0.484659 -0.956621 -0.195563 0.215943 -0.940411 -0.00496988 0.340004 
0.873224 -0.0587839 0.48376 0.872531 -0.044155 0.48656 0.871573 -0.0588928 0.486715 
-0.940167 -0.00360135 0.340694 -0.939994 -0.00185961 0.341187 -0.939852 -0.00343399 0.341565 
0.850417 0.12353 0.511401 0.562753 0.132807 0.815887 -0.883827 0.262308 0.387356 
0.809451 0.261514 0.525737 0.604144 0.234625 0.761552 -0.752697 0.531042 0.389155 
-0.671257 0.652164 0.352272 -0.611335 0.530591 0.587148 -0.388521 0.403267 0.828509 
0.441901 0.38407 0.810687 0.743877 0.470927 0.47421 0.677802 0.55028 0.487623 
0.627888 0.461992 0.626354 -0.544219 0.795972 0.265055 -0.511601 0.823421 0.245442 
-0.505397 0.765537 0.398154 -0.50943 0.848821 0.141365 -0.395278 0.622524 0.67544 
0.378407 0.826761 0.416263 0.344812 0.630568 0.695334 0.524042 0.735956 0.42866 
0.472973 0.77398 0.421011 0.469427 0.72021 0.510818 -0.582543 0.810735 0.057905 
-0.698879 0.714809 0.0248223 -0.599805 0.667307 0.441514 0.380047 0.913093 0.147735 
0.425228 0.865045 0.266231 0.453914 0.645098 0.614662 0.353911 0.861184 0.364841 
0.350064 0.864986 0.359518 0.350237 0.849307 0.394982 -0.718235 0.691015 0.0814631 
-0.618975 0.776885 0.115409 -0.586901 0.63822 0.498219 -0.29879 0.944569 0.136066 
0.352509 0.922307 0.15839 0.378725 0.913845 0.146472 0.365031 0.920703 0.138055 
0.271786 0.801205 0.533106 -0.263544 0.954431 0.140024 0.231243 0.959712 0.159625 
0.107656 0.979382 0.170941 0.10016 0.924104 0.368782 -0.0812889 -0.678923 0.729695 
0.0701348 -0.648775 0.757742 0.122186 -0.573293 0.810189 -0.325973 -0.628755 0.705981 
-0.270433 -0.641646 0.717744 -0.205809 -0.647464 0.73378 -0.232823 -0.635751 0.735944 
-0.0791126 -0.604239 0.792866 0.0769276 -0.597705 0.798017 0.12394 -0.570208 0.812097 
0.122925 -0.567697 0.814009 0.12354 -0.535818 0.835246 0.154629 -0.534962 0.830605 
0.168215 -0.535034 0.827914 -0.33843 -0.627364 0.701341 -0.49094 -0.554662 0.671809 
-0.319752 -0.619593 0.716843 -0.205627 -0.502568 0.839728 -0.143256 -0.380375 0.91367 
-0.0475689 -0.314143 0.948183 0.10143 -0.296993 0.949477 0.123079 -0.295018 0.947531 
0.0820456 -0.362694 0.92829 0.112067 -0.412614 0.903986 0.189858 -0.539149 0.820532 
0.151488 -0.47504 0.866827 0.19079 -0.538952 0.820445 0.2221 -0.524485 0.821941 
-0.561301 -0.492585 0.665057 -0.696986 -0.283697 0.658579 -0.461984 -0.437461 0.771491 
-0.215241 -0.337199 0.916498 -0.0805406 -0.289464 0.953795 -0.0455556 -0.186578 0.981383 
-0.00932537 -0.0958636 0.995351 0.114035 -0.153329 0.981573 0.086907 -0.183327 0.979203 
0.0139095 -0.232215 0.972565 0.0550427 -0.248764 0.966999 0.0784431 -0.278339 0.957274 
0.100197 -0.322999 0.94108 0.358095 -0.363036 0.860216 0.219111 -0.350566 0.910546 
0.376209 -0.337687 0.862806 -0.725486 -0.21974 0.652215 -0.673136 -0.209967 0.709085 
-0.350079 -0.121415 0.928818 -0.199066 -0.0990807 0.974964 0.0620275 -0.0678502 0.995766 
-0.00738708 -0.0287628 0.999559 0.0143197 -0.161474 0.986773 0.0426749 -0.23635 0.97073 
0.0269338 -0.237594 0.970991 0.0739 -0.138232 0.987639 0.0648689 -0.157306 0.985417 
0.080749 -0.158257 0.984091 0.186275 -0.193022 0.963351 0.475958 -0.254688 0.841783 
0.341339 -0.221579 0.91345 0.550022 -0.136698 0.823887 -0.643514 0.0268618 0.764963 
-0.613314 0.0335312 0.789127 -0.338744 0.0226968 0.940605 -0.156952 0.0518153 0.986246 
-0.0377735 0.107661 0.99347 -0.000673903 0.056436 0.998406 -0.106837 -0.0700385 0.991807 
0.126757 -0.0868865 0.988121 0.0590952 -0.110244 0.992146 0.0702181 -0.0934759 0.993142 
0.191003 -0.0573699 0.979912 0.301801 -0.0410046 0.952489 0.576649 -0.0441071 0.8158 
0.555478 0.0827142 0.827407 0.535344 -0.0438011 0.843498 -0.603215 -0.0108807 0.797504 
-0.589077 -0.00978706 0.808017 -0.308857 0.122112 0.943237 -0.127309 0.131632 0.98309 
-0.0484172 0.143781 0.988424 -0.115251 0.116634 0.986465 0.0835662 0.00739453 0.996475 
0.056273 -0.0233881 0.998141 0.132386 -0.0305285 0.990728 0.239454 0.0275708 0.970516 
0.536695 0.127534 0.834082 0.356207 0.0695571 0.931815 -0.599831 0.200441 0.774613 
-0.561111 0.254917 0.78751 -0.557325 0.200027 0.80584 -0.376242 0.392227 0.839405 
-0.252841 0.259402 0.932085 -0.149657 0.204438 0.967372 -0.0564545 0.179643 0.982111 
-0.113401 0.133539 0.984534 -0.158558 0.223828 0.961645 0.0740637 0.0715076 0.994686 
0.0217867 0.112848 0.993373 0.119137 0.110808 0.986675 0.276978 0.143977 0.950028 
0.494905 0.222987 0.839849 0.431711 0.353667 0.829787 0.386911 0.17854 0.904668 
-0.377308 0.394398 0.837908 -0.330039 0.503768 0.798306 -0.201061 0.308498 0.929733 
-0.100627 0.196749 0.975276 -0.0863438 0.12356 0.988573 -0.0170841 0.139623 0.990057 
-0.0871545 0.177735 0.980211 -0.214922 0.154758 0.964292 0.144797 0.059139 0.987692 
0.0996037 0.215135 0.971492 0.165615 0.310543 0.93602 0.42388 0.377656 0.823226 
0.327087 0.520693 0.788602 0.286406 0.352322 0.890977 -0.345229 0.482281 0.805123 
-0.428034 0.459998 0.777939 -0.273294 0.290654 0.916968 -0.169463 0.159456 0.972551 
-0.0759859 0.0387199 0.996357 -0.085025 0.0454274 0.995343 -0.163088 0.0992979 0.981602 
-0.00495446 0.168731 0.98565 0.224222 0.163819 0.96067 0.437145 0.593226 0.676008 
0.284536 0.340728 0.896071 0.31183 0.563873 0.764728 0.310595 0.586128 0.748321 
0.27499 0.519029 0.809314 -0.437454 0.464169 0.770183 -0.428394 0.466622 0.773785 
-0.320025 0.304749 0.897058 -0.135757 0.207255 0.968822 -0.0266878 0.157021 0.987235 
-0.0643165 0.281382 0.957438 0.238013 0.751751 0.614996 0.0512451 0.422353 0.904981 
0.438748 0.613657 0.656448 0.360921 0.713215 0.600884 0.303156 0.501763 0.810142 
-0.366154 0.501756 0.783691 -0.253626 0.553452 0.793325 -0.220295 0.437236 0.871949 
0.0537718 0.621724 0.781389 0.00559122 0.403891 0.91479 0.234486 0.724623 0.648026 
0.212212 0.647353 0.732052 0.163707 0.576933 0.800218 -0.0612123 -0.09512 0.993582 
-0.079619 -0.0753888 0.993971 -0.0112573 -0.0711719 0.997401 -0.0533926 -0.0150595 0.99846 
-0.0603538 -0.0725971 0.995534 -8.0399e-05 -0.15227 0.988339 0.0288944 -0.152918 0.987816 
0.0640691 -0.181911 0.981225 -0.102213 -0.0763598 0.991827 -0.137602 -0.0171045 0.99034 
-0.0833584 -0.0943081 0.992047 0.0176287 -0.0696614 0.997415 0.117379 -0.0985461 0.988186 
0.102413 -0.114013 0.988186 -0.152766 0.0474389 0.987123 -0.164989 0.0838566 0.982724 
-0.163658 0.0260521 0.986173 0.0143917 0.0558118 0.998338 0.0176965 0.0129484 0.99976 
0.0787497 0.00894111 0.996854 0.0168599 0.024883 0.999548 -0.123788 0.289711 0.949075 
-0.109856 0.301038 0.947263 -0.108633 0.306082 0.945787 -0.0865835 0.132399 0.987408 
-0.0150957 0.111205 0.993683 0.0907784 0.0610059 0.994001 0.102913 0.0548859 0.993175 
-0.0441519 0.0799574 0.99582 0.00197781 0.0674084 0.997724 -0.017549 0.0932465 0.995488 
-0.0207048 0.0696105 0.997359 
