# vtk DataFile Version 4.2
vtk output
ASCII
DATASET POLYDATA
POINTS 591 float
-2.83842 -40.2862 -16.4632 5.95976 -40.2862 -16.2195 14.7579 -40.2862 -15.8122 
23.5561 -40.2862 -15.9689 32.3543 -40.2862 -16.0078 -46.8293 -31.488 -15.6957 
-38.0311 -31.488 -16.4337 -29.233 -31.488 -17.2224 -20.4348 -31.488 -17.8396 
-11.6366 -31.488 -18.8353 -2.83842 -31.488 -19.3623 5.95976 -31.488 -19.0266 
14.7579 -31.488 -19.2345 23.5561 -31.488 -19.6308 32.3543 -31.488 -19.5537 
41.1525 -31.488 -17.2651 -55.6275 -22.6898 -18.1248 -46.8293 -22.6898 -20.0183 
-38.0311 -22.6898 -20.3904 -29.233 -22.6898 -20.9689 -20.4348 -22.6898 -20.0324 
-11.6366 -22.6898 -19.8338 -2.83842 -22.6898 -19.703 5.95976 -22.6898 -18.9797 
14.7579 -22.6898 -19.0471 23.5561 -22.6898 -20.2911 32.3543 -22.6898 -21.1469 
41.1525 -22.6898 -20.0718 49.9507 -22.6898 -16.767 -64.4257 -13.8917 -16.5966 
-55.6275 -13.8917 -20.5253 -46.8293 -13.8917 -21.6889 -38.0311 -13.8917 -22.6653 
-29.233 -13.8917 -21.2845 -20.4348 -13.8917 -19.9924 -11.6366 -13.8917 -20.0364 
-2.83842 -13.8917 -19.4285 5.95976 -13.8917 -17.5856 14.7579 -13.8917 -17.9523 
23.5561 -13.8917 -19.6132 32.3543 -13.8917 -20.9796 41.1525 -13.8917 -21.1617 
49.9507 -13.8917 -19.4095 -64.4257 -5.09348 -19.4686 -55.6275 -5.09348 -22.1855 
-46.8293 -5.09348 -22.685 -38.0311 -5.09348 -22.1372 -29.233 -5.09348 -20.3846 
-20.4348 -5.09348 -19.0204 -11.6366 -5.09348 -22.7633 -2.83842 -5.09348 -20.4944 
5.95976 -5.09348 -21.4864 14.7579 -5.09348 -17.4185 23.5561 -5.09348 -19.1159 
32.3543 -5.09348 -20.9906 41.1525 -5.09348 -22.1498 49.9507 -5.09348 -21.4659 
58.7488 -5.09348 -18.5669 -64.4257 3.7047 -18.6853 -55.6275 3.7047 -22.3001 
-46.8293 3.7047 -22.6894 -38.0311 3.7047 -22.0436 -29.233 3.7047 -20.1981 
-20.4348 3.7047 -18.596 -11.6366 3.7047 -24.0782 -2.83842 3.7047 -18.5368 
5.95976 3.7047 -20.9271 14.7579 3.7047 -16.8438 23.5561 3.7047 -18.3144 
32.3543 3.7047 -20.6854 41.1525 3.7047 -22.372 49.9507 3.7047 -21.6344 
58.7488 3.7047 -20.0662 -64.4257 12.5029 -18.3619 -55.6275 12.5029 -21.1154 
-46.8293 12.5029 -21.9924 -38.0311 12.5029 -22.4558 -29.233 12.5029 -21.0346 
-20.4348 12.5029 -19.5238 -11.6366 12.5029 -20.7199 -2.83842 12.5029 -20.514 
5.95976 12.5029 -20.079 14.7579 12.5029 -16.6673 23.5561 12.5029 -18.6129 
32.3543 12.5029 -20.0873 41.1525 12.5029 -21.6388 49.9507 12.5029 -22.3764 
58.7488 12.5029 -19.5867 67.547 12.5029 -15.8584 -55.6275 21.3011 -19.7624 
-46.8293 21.3011 -21.7901 -38.0311 21.3011 -21.3047 -29.233 21.3011 -20.478 
-20.4348 21.3011 -19.7163 -11.6366 21.3011 -18.1641 -2.83842 21.3011 -15.9822 
23.5561 21.3011 -16.4759 32.3543 21.3011 -19.0477 41.1525 21.3011 -20.4667 
49.9507 21.3011 -20.3202 58.7488 21.3011 -20.2081 -55.6275 30.0992 -15.7415 
-46.8293 30.0992 -18.5975 -38.0311 30.0992 -20.4814 -29.233 30.0992 -19.5492 
-20.4348 30.0992 -18.933 -11.6366 30.0992 -17.297 41.1525 30.0992 -17.0404 
49.9507 30.0992 -17.7 58.7488 30.0992 -15.7324 -38.0311 38.8974 -17.3442 
-29.233 38.8974 -16.7405 -20.4348 38.8974 -16.2907 -2.83842 -41.4466 -15.5881 
5.95976 -41.1151 -15.5881 14.7579 -40.5784 -15.5881 23.5561 -40.7528 -15.5881 
32.3543 -40.7662 -15.5881 -46.8293 -31.6177 -15.5881 -38.0311 -32.6221 -15.5881 
-38.0311 -40.2862 -7.3086 -29.233 -33.8461 -15.5881 -29.233 -40.2862 -8.75704 
-20.4348 -35.5491 -15.5881 -20.4348 -40.2862 -11.4897 -8.15051 -40.2862 -15.5881 
-11.6366 -39.0271 -15.5881 -11.6366 -40.2862 -14.8216 33.5135 -40.2862 -15.5881 
41.1525 -34.7103 -15.5881 41.1525 -40.2862 -11.2459 -47.0645 -31.488 -15.5881 
-55.6275 -26.2976 -15.5881 -55.6275 -31.488 -9.30603 44.6649 -31.488 -15.5881 
49.9507 -25.5129 -15.5881 49.9507 -31.488 -11.7888 -59.7346 -22.6898 -15.5881 
-64.4257 -15.6566 -15.5881 -64.4257 -22.6898 -10.0944 51.7831 -22.6898 -15.5881 
58.7488 -22.6898 -8.08973 -65.603 -13.8917 -15.5881 57.5122 -13.8917 -15.5881 
58.7488 -12.3356 -15.5881 58.7488 -13.8917 -14.6618 -68.6551 -5.09348 -15.5881 
-73.2239 -5.09348 -7.17026 63.6968 -5.09348 -15.5881 67.547 -5.09348 -12.0775 
-69.1466 3.7047 -15.5881 -73.2239 3.7047 -7.89085 66.6644 3.7047 -15.5881 
67.547 9.85975 -15.5881 67.547 3.7047 -14.7914 -67.3063 12.5029 -15.5881 
-64.4257 18.0279 -15.5881 5.95976 16.2213 -15.5881 14.7579 14.4479 -15.5881 
67.9071 12.5029 -15.5881 67.547 14.1761 -15.5881 -62.6494 21.3011 -15.5881 
-64.4257 21.3011 -13.5948 -2.1419 21.3011 -15.5881 -2.83842 22.8023 -15.5881 
5.95976 21.3011 -10.4074 21.6275 21.3011 -15.5881 14.7579 21.3011 -12.1522 
23.5561 23.5701 -15.5881 32.3543 29.2799 -15.5881 65.7383 21.3011 -15.5881 
67.547 21.3011 -14.4441 -55.8988 30.0992 -15.5881 -64.4257 30.0992 -7.05033 
-55.6275 30.3257 -15.5881 -46.8293 36.5574 -15.5881 -7.1754 30.0992 -15.5881 
-11.6366 35.5623 -15.5881 -2.83842 30.0992 -13.6968 5.95976 30.0992 -8.57268 
14.7579 30.0992 -8.04129 23.5561 30.0992 -11.7587 34.1488 30.0992 -15.5881 
32.3543 30.0992 -15.1915 41.1525 33.7773 -15.5881 49.9507 33.0922 -15.5881 
59.0834 30.0992 -15.5881 58.7488 30.3255 -15.5881 67.547 30.0992 -10.7682 
-55.6275 38.8974 -9.18847 -43.7245 38.8974 -15.5881 -46.8293 38.8974 -14.1148 
-38.0311 41.3489 -15.5881 -29.233 40.8421 -15.5881 -17.269 38.8974 -15.5881 
-20.4348 40.0297 -15.5881 -11.6366 38.8974 -14.3039 -2.83842 38.8974 -10.0055 
32.3543 38.8974 -7.77109 41.1525 38.8974 -10.9804 49.9507 38.8974 -10.2931 
58.7488 38.8974 -8.22295 -38.0311 47.6956 -7.53613 -29.233 47.6956 -9.5645 
-20.4348 47.6956 -8.87825 -38.0311 -40.5836 -6.78988 -29.233 -41.6113 -6.78988 
-20.4348 -43.5097 -6.78988 -11.6366 -46.4144 -6.78988 -2.83842 -47.9681 -6.78988 
-2.83842 -49.0844 1.78721 5.95976 -47.4629 -6.78988 14.7579 -47.029 -6.78988 
23.5561 -47.6222 -6.78988 32.3543 -46.291 -6.78988 41.1525 -43.562 -6.78988 
-55.6275 -33.5216 -6.78988 -39.0521 -40.2862 -6.78988 -46.8293 -37.5215 -6.78988 
46.0069 -40.2862 -6.78988 49.9507 -36.5778 -6.78988 -58.0596 -31.488 -6.78988 
-64.4257 -25.4432 -6.78988 53.7499 -31.488 -6.78988 58.7488 -24.0309 -6.78988 
-66.5104 -22.6898 -6.78988 59.6257 -22.6898 -6.78988 -71.8876 -13.8917 -6.78988 
-73.2239 -6.02991 -6.78988 65.5319 -13.8917 -6.78988 67.547 -11.1079 -6.78988 
67.547 -13.8917 1.28811 -73.355 -5.09348 -6.78988 -73.2239 -5.09348 -5.13254 
71.2408 -5.09348 -6.78988 -73.5885 3.7047 -6.78988 -73.2239 6.41675 -6.78988 
-73.2239 3.7047 -3.89873 73.846 3.7047 -6.78988 -72.3579 12.5029 -6.78988 
75.9303 12.5029 -6.78988 76.3452 12.5029 -2.63374 -68.7659 21.3011 -6.78988 
74.6734 21.3011 -6.78988 -64.5469 30.0992 -6.78988 -64.4257 30.2618 -6.78988 
-64.4257 30.0992 -5.51937 5.95976 33.0505 -6.78988 14.7579 31.744 -6.78988 
23.5561 34.6274 -6.78988 70.643 30.0992 -6.78988 67.547 33.8474 -6.78988 
-57.5443 38.8974 -6.78988 -55.6275 40.7021 -6.78988 -46.8293 45.6382 -6.78988 
-11.6366 46.8874 -6.78988 0.626279 38.8974 -6.78988 -2.83842 41.8812 -6.78988 
5.95976 38.8974 1.12611 30.7335 38.8974 -6.78988 23.5561 38.8974 0.0131373 
32.3543 39.6306 -6.78988 41.1525 40.8753 -6.78988 49.9507 41.9998 -6.78988 
60.5754 38.8974 -6.78988 58.7488 39.786 -6.78988 -40.0087 47.6956 -6.78988 
-38.0311 48.1649 -6.78988 -29.233 49.4364 -6.78988 -14.5683 47.6956 -6.78988 
-20.4348 49.0594 -6.78988 -2.83842 -49.1106 2.0083 -38.0311 -42.2626 2.0083 
-29.233 -44.6791 2.0083 -20.4348 -46.1304 2.0083 -3.11562 -49.0844 2.0083 
-11.6366 -48.2645 2.0083 -2.55537 -49.0844 2.0083 -2.83842 -49.0844 2.11122 
5.95976 -48.2873 2.0083 14.7579 -47.7324 2.0083 23.5561 -47.7485 2.0083 
32.3543 -47.5725 2.0083 41.1525 -45.6748 2.0083 -55.6275 -35.6086 2.0083 
-45.277 -40.2862 2.0083 -46.8293 -39.8335 2.0083 49.3896 -40.2862 2.0083 
49.9507 -39.7942 2.0083 -60.122 -31.488 2.0083 -64.4257 -26.6407 2.0083 
56.5449 -31.488 2.0083 58.7488 -28.072 2.0083 -67.1116 -22.6898 2.0083 
-64.4257 -22.6898 8.02037 62.1466 -22.6898 2.0083 67.547 -14.1377 2.0083 
-71.0394 -13.8917 2.0083 67.6973 -13.8917 2.0083 67.547 -13.8917 2.71736 
-72.6403 -5.09348 2.0083 72.8093 -5.09348 2.0083 -72.4548 3.7047 2.0083 
75.2195 3.7047 2.0083 76.3452 10.2135 2.0083 -71.1899 12.5029 2.0083 
76.3452 14.9742 2.0083 76.3452 12.5029 2.90733 -67.826 21.3011 2.0083 
-64.4257 28.5997 2.0083 -64.4257 21.3011 7.914 75.3797 21.3011 2.0083 
-63.6108 30.0992 2.0083 14.7579 37.5561 2.0083 70.8878 30.0992 2.0083 
67.547 34.1353 2.0083 67.547 30.0992 6.63407 -56.892 38.8974 2.0083 
-55.6275 40.0861 2.0083 -55.6275 38.8974 3.9026 -46.8293 45.475 2.0083 
-11.6366 46.3985 2.0083 -2.83842 43.6077 2.0083 -2.83842 38.8974 8.1433 
7.91903 38.8974 2.0083 5.95976 39.2754 2.0083 5.95976 38.8974 2.824 
19.9682 38.8974 2.0083 23.5561 39.7906 2.0083 23.5561 38.8974 4.87596 
32.3543 42.1497 2.0083 32.3543 38.8974 10.2803 41.1525 43.0487 2.0083 
49.9507 43.0309 2.0083 49.9507 38.8974 10.2988 60.9359 38.8974 2.0083 
58.7488 39.9417 2.0083 58.7488 38.8974 4.08605 -39.3063 47.6956 2.0083 
-38.0311 48.0265 2.0083 -38.0311 47.6956 2.66523 -29.233 49.0848 2.0083 
-29.233 47.6956 4.71326 -16.818 47.6956 2.0083 -20.4348 48.4678 2.0083 
-20.4348 47.6956 3.38555 -38.0311 -41.3684 10.8065 -29.233 -43.7111 10.8065 
-20.4348 -44.8897 10.8065 -11.6366 -46.2224 10.8065 -2.83842 -46.1116 10.8065 
5.95976 -44.7936 10.8065 14.7579 -44.5463 10.8065 23.5561 -46.1293 10.8065 
32.3543 -45.2005 10.8065 41.1525 -43.6278 10.8065 -55.6275 -32.3694 10.8065 
-41.2749 -40.2862 10.8065 -46.8293 -38.1208 10.8065 -38.0311 -40.2862 12.726 
-29.233 -40.2862 15.6644 -20.4348 -40.2862 16.8043 -11.6366 -40.2862 17.3813 
-2.83842 -40.2862 15.9099 5.95976 -40.2862 15.254 14.7579 -40.2862 15.3735 
23.5561 -40.2862 16.8645 32.3543 -40.2862 16.9253 46.6557 -40.2862 10.8065 
41.1525 -40.2862 15.3157 49.9507 -37.6393 10.8065 -56.498 -31.488 10.8065 
-55.6275 -31.488 11.7081 -46.8293 -31.488 17.7147 -2.83842 -31.488 19.2912 
5.95976 -31.488 18.5803 54.9461 -31.488 10.8065 49.9507 -31.488 17.1937 
58.7488 -25.629 10.8065 -62.8734 -22.6898 10.8065 -64.4257 -20.127 10.8065 
-55.6275 -22.6898 18.2228 60.681 -22.6898 10.8065 58.7488 -22.6898 13.3718 
-67.3188 -13.8917 10.8065 -64.4257 -13.8917 14.2152 -55.6275 -13.8917 19.3586 
[...]
POINT_DATA 591
SCALARS ImageScalars float
LOOKUP_TABLE default
0 0 0 0 0 0 0 0 0 
0 0 0 0 0 0 0 0 0 
0 0 0 0 0 0 0 0 0 
0 0 0 0 0 0 0 0 0 
0 0 0 0 0 0 0 0 0 
0 0 0 0 0 0 0 0 0 
0 0 0 0 0 0 0 0 0 
0 0 0 0 0 0 0 0 0 
0 0 0 0 0 0 0 0 0 
0 0 0 0 0 0 0 0 0 
0 0 0 0 0 0 0 0 0 
0 0 0 0 0 0 0 0 0 
0 0 0 0 0 0 0 0 0 
0 0 0 0 0 0 0 0 0 
0 0 0 0 0 0 0 0 0 
0 0 0 0 0 0 0 0 0 
0 0 0 0 0 0 0 0 0 
0 0 0 0 0 0 0 0 0 
0 0 0 0 0 0 0 0 0 
0 0 0 0 0 0 0 0 0 
0 0 0 0 0 0 0 0 0 
0 0 0 0 0 0 0 0 0 
0 0 0 0 0 0 0 0 0 
0 0 0 0 0 0 0 0 0 
0 0 0 0 0 0 0 0 0 
0 0 0 0 0 0 0 0 0 
0 0 0 0 0 0 0 0 0 
0 0 0 0 0 0 0 0 0 
0 0 0 0 0 0 0 0 0 
0 0 0 0 0 0 0 0 0 
0 0 0 0 0 0 0 0 0 
0 0 0 0 0 0 0 0 0 
0 0 0 0 0 0 0 0 0 
0 0 0 0 0 0 0 0 0 
0 0 0 0 0 0 0 0 0 
0 0 0 0 0 0 0 0 0 
0 0 0 0 0 0 0 0 0 
0 0 0 0 0 0 0 0 0 
0 0 0 0 0 0 0 0 0 
0 0 0 0 0 0 0 0 0 
0 0 0 0 0 0 0 0 0 
0 0 0 0 0 0 0 0 0 
0 0 0 0 0 0 0 0 0 
0 0 0 0 0 0 0 0 0 
0 0 0 0 0 0 0 0 0 
0 0 0 0 0 0 0 0 0 
0 0 0 0 0 0 0 0 0 
0 0 0 0 0 0 0 0 0 
0 0 0 0 0 0 0 0 0 
0 0 0 0 0 0 0 0 0 
0 0 0 0 0 0 0 0 0 
0 0 0 0 0 0 0 0 0 
0 0 0 0 0 0 0 0 0 
0 0 0 0 0 0 0 0 0 
0 0 0 0 0 0 0 0 0 
0 0 0 0 0 0 0 0 0 
0 0 0 0 0 0 0 0 0 
0 0 0 0 0 0 0 0 0 
0 0 0 0 0 0 0 0 0 
0 0 0 0 0 0 0 0 0 
0 0 0 0 0 0 0 0 0 
0 0 0 0 0 0 0 0 0 
0 0 0 0 0 0 0 0 0 
0 0 0 0 0 0 0 0 0 
0 0 0 0 0 0 0 0 0 
0 0 0 0 0 0 
NORMALS Normals float
0.0630122 0.516494 0.853969 -0.0352968 0.522308 0.852026 -0.0143217 0.568438 0.822601 
0.0107391 0.560194 0.828292 -0.162006 0.616992 0.770113 0.249024 0.606804 0.754835 
0.0818292 0.543908 0.835146 0.0705293 0.502818 0.86151 0.0872006 0.367616 0.925881 
0.0837513 0.251927 0.964115 0.0100907 0.169303 0.985512 -0.00620868 0.142721 0.989743 
0.0324978 0.164688 0.98581 0.0192852 0.212743 0.976918 -0.116491 0.269593 0.955902 
-0.334603 0.387819 0.858858 0.356734 0.428252 0.830266 0.134613 0.339961 0.930756 
0.0485118 0.311102 0.949138 -0.0204338 0.21025 0.977434 -0.0613008 0.115463 0.991418 
-0.0181175 0.0661862 0.997643 -0.0481491 0.00372743 0.998833 -0.0363548 -0.0838117 0.995818 
0.0756181 -0.0689743 0.994748 0.117103 -0.00295343 0.993115 -0.0170122 0.0859894 0.996151 
-0.216597 0.192144 0.957166 -0.484726 0.319828 0.814095 0.558634 0.345752 0.753913 
0.232462 0.230036 0.945011 0.113462 0.137121 0.984035 -0.0243609 0.0955618 0.995125 
-0.148941 -0.0340283 0.98826 -0.0715848 -0.0583263 0.995728 -0.0317248 0.11242 0.993154 
-0.142181 0.0379129 0.989114 -0.0848866 0.118614 0.989305 0.118602 -0.0892346 0.988924 
0.165994 -0.0672106 0.983834 0.0868357 -0.00857991 0.996186 -0.0837731 0.122915 0.988875 
-0.301895 0.245344 0.921231 0.516053 0.0781941 0.85298 0.144697 0.0984991 0.984561 
-0.00520203 0.0557898 0.998429 -0.129213 -0.0343889 0.99102 -0.179937 -0.0624842 0.981692 
0.0603524 -0.0827761 0.994739 0.12322 0.238051 0.963405 -0.0391992 -0.0200794 0.99903 
-0.147205 0.213928 0.965694 -0.119435 -0.0555947 0.991284 0.185786 -0.0740744 0.979794 
0.167662 -0.0163174 0.98571 0.0297217 0.0681834 0.99723 -0.188512 0.119586 0.974763 
-0.417779 0.256641 0.871548 0.483459 -0.0442831 0.874246 0.228979 -0.0593151 0.971623 
-0.0163686 -0.0392554 0.999095 -0.13995 0.015472 0.990038 -0.198585 0.0377277 0.979357 
0.0974462 0.0298561 0.994793 0.119825 -0.14852 0.981623 -0.104107 0.0198427 0.994368 
-0.0741226 -0.0745055 0.994462 -0.127008 -0.0414589 0.991035 0.188232 -0.0277909 0.981731 
0.224437 -0.0498192 0.973214 0.0491067 -0.0302208 0.998336 -0.127342 0.0468365 0.990752 
-0.326686 0.0515496 0.943726 0.536057 -0.214339 0.816518 0.165142 -0.151462 0.97457 
0.0695416 -0.050048 0.996323 -0.058113 -0.0436549 0.997355 -0.155714 0.0156812 0.987678 
-0.0267662 0.0650016 0.997526 0.0604734 -0.270221 0.960897 -0.0288366 -0.163793 0.986073 
-0.218992 -0.47134 0.854331 -0.0203682 -0.270003 0.962644 0.176179 -0.102845 0.978971 
0.17388 -0.0881677 0.980812 0.123509 -0.112455 0.985951 -0.112451 -0.0677589 0.991344 
-0.319892 -0.00028183 0.947454 -0.540589 -0.0260868 0.840882 0.329553 -0.227976 0.9162 
0.0959748 -0.177281 0.979469 -0.0721585 -0.10045 0.992322 -0.089227 -0.083041 0.992544 
-0.127984 -0.0318185 0.991266 -0.19674 -0.177999 0.964163 -0.372467 -0.381186 0.846147 
0.337519 -0.294495 0.894066 0.230994 -0.245836 0.941386 0.0638634 -0.229497 0.971212 
-0.0144172 -0.256715 0.96638 -0.290391 -0.176408 0.940507 0.381487 -0.528324 0.758513 
0.212111 -0.341629 0.915586 0.0498574 -0.250871 0.966736 -0.0797815 -0.190428 0.978454 
-0.131667 -0.175629 0.975612 -0.265735 -0.18339 0.946442 0.123278 -0.396397 0.909765 
-0.0559598 -0.460975 0.885647 -0.290341 -0.472935 0.831886 0.0924357 -0.478541 0.873186 
-0.0592175 -0.414517 0.908113 -0.120087 -0.414029 0.902308 0.0660117 0.567211 0.820923 
-0.0360666 0.560745 0.827203 -0.0151213 0.581516 0.813394 0.00800406 0.579553 0.814896 
-0.16567 0.638066 0.751947 0.249785 0.611027 0.751168 0.0896771 0.579341 0.810137 
0.191703 0.898093 0.395826 0.0951559 0.572841 0.814124 0.14434 0.833773 0.532906 
0.147894 0.51907 0.841839 0.229196 0.756583 0.612414 0.141528 0.557575 0.817973 
0.177157 0.534904 0.826132 0.196594 0.597224 0.777608 -0.198942 0.625892 0.75411 
-0.385806 0.488365 0.782721 -0.445366 0.694952 0.564528 0.255384 0.609477 0.750545 
0.409945 0.543644 0.732391 0.503792 0.722782 0.473053 -0.447779 0.437813 0.779624 
-0.529934 0.37396 0.761133 -0.642367 0.496262 0.584027 0.50562 0.476492 0.719238 
0.59015 0.378143 0.713254 0.72148 0.54479 0.4274 -0.536569 0.356843 0.764694 
-0.749672 0.500382 0.433139 0.606252 0.346339 0.715896 -0.532418 0.377168 0.75781 
-0.541139 0.379705 0.750328 -0.580074 0.406097 0.706116 0.708052 0.135876 0.692965 
0.984423 0.0859168 0.153396 -0.563772 0.308117 0.766306 -0.716813 0.347045 0.604764 
0.688556 -0.0553231 0.72307 0.98478 -0.0561408 0.164491 -0.63452 0.129515 0.761978 
-0.581408 0.0244021 0.813246 -0.676392 0.145245 0.722079 0.671212 -0.261786 0.6935 
0.645015 -0.300811 0.702473 -0.263959 -0.626134 0.733677 0.0755655 -0.304059 0.949652 
-0.548776 -0.0238486 0.835629 -0.547191 -0.0557275 0.83515 0.617225 -0.313607 0.721584 
0.731216 -0.351718 0.58448 -0.373533 -0.401077 0.836427 -0.396362 -0.353847 0.847166 
-0.172725 -0.456537 0.872777 0.332084 -0.328216 0.884305 0.30567 -0.418799 0.855086 
0.350533 -0.353376 0.867325 0.217756 -0.471096 0.854781 -0.523581 -0.18694 0.831214 
-0.586572 -0.18866 0.787617 0.390824 -0.530238 0.752399 0.806859 -0.561699 0.182957 
0.384663 -0.532789 0.75377 0.341278 -0.476224 0.810395 -0.36612 -0.210521 0.906442 
-0.263548 -0.344883 0.900887 -0.46724 -0.239319 0.851125 -0.300186 -0.331903 0.894276 
0.114171 -0.556329 0.823081 0.355465 -0.578846 0.733882 0.196256 -0.472829 0.859021 
0.220879 -0.497494 0.838876 0.115174 -0.515521 0.849101 -0.0961531 -0.546514 0.831912 
-0.299878 -0.468952 0.830757 -0.288325 -0.477812 0.829798 -0.650587 -0.508811 0.56378 
0.591165 -0.687322 0.422033 0.279252 -0.51492 0.810479 0.395453 -0.569836 0.72035 
0.109852 -0.576435 0.809725 -0.0483699 -0.491346 0.86962 -0.170017 -0.432337 0.885539 
-0.124451 -0.463659 0.87723 -0.281069 -0.480808 0.830557 -0.536916 -0.572015 0.620097 
0.277816 -0.81814 0.503454 0.105082 -0.826588 0.552911 -0.0936781 -0.77573 0.624073 
-0.32802 -0.858475 0.394239 0.179076 -0.928075 0.326509 0.0498457 -0.900968 0.431013 
-0.142228 -0.906292 0.398002 0.194377 0.906189 0.375551 0.15548 0.872357 0.463486 
0.248654 0.865828 0.434181 0.230598 0.892869 0.386794 0.0538863 0.942295 0.330419 
0.00219524 0.998263 -0.0588666 -0.0501054 0.950313 0.307236 0.00822093 0.951443 0.307716 
-0.0375777 0.962704 0.267934 -0.19849 0.921591 0.333576 -0.421012 0.814661 0.398845 
0.510154 0.77353 0.376024 0.205846 0.903531 0.375845 0.316131 0.866377 0.386591 
-0.571046 0.716757 0.400208 -0.680626 0.613169 0.400963 0.565856 0.739378 0.364865 
0.730284 0.616936 0.293386 -0.744477 0.529176 0.407095 -0.766873 0.510498 0.38897 
0.783826 0.55792 0.272655 -0.767145 0.511726 0.386814 0.922729 0.342882 0.176077 
0.984679 0.109772 0.135493 -0.769689 0.518234 0.372843 -0.79065 0.48966 0.367566 
-0.846337 0.532008 0.0260929 0.987509 0.0839231 0.133354 0.994676 0.083431 0.060482 
-0.836752 0.398807 0.375232 0.992963 -0.0544274 0.105177 0.987753 -0.114312 0.106189 
0.997576 -0.0650926 -0.0245791 -0.887017 0.247964 0.389507 0.959491 -0.251429 0.127124 
-0.929392 0.0385941 0.36707 -0.995148 0.0224827 0.095784 0.893401 -0.410978 0.18147 
-0.898271 -0.249029 0.362069 0.810411 -0.561373 0.167613 0.808453 -0.564024 0.168171 
0.820643 -0.561476 0.106253 -0.359104 -0.467856 0.807561 0.0785801 -0.619338 0.781182 
0.332452 -0.732019 0.594663 -0.758824 -0.566572 0.321218 -0.68349 -0.663583 0.304135 
0.660309 -0.699349 0.273686 0.607545 -0.744371 0.27713 0.408064 -0.874627 0.261746 
-0.339727 -0.892074 0.297977 -0.545787 -0.660792 0.515238 -0.560098 -0.708678 0.429028 
-0.329468 -0.943646 0.0313506 0.27807 -0.830727 0.482255 0.25701 -0.951902 0.16682 
0.266917 -0.844022 0.465169 0.124687 -0.929748 0.346441 -0.0731488 -0.904226 0.420743 
-0.410562 -0.858236 0.308008 -0.344547 -0.886096 0.310034 0.232038 -0.931864 0.278904 
0.184083 -0.939402 0.289202 0.051179 -0.95944 0.277228 -0.268884 -0.919735 0.285987 
-0.136961 -0.951441 0.275685 0.00096442 0.997689 -0.0679454 0.247709 0.967759 0.0456408 
0.212565 0.97192 0.100932 0.19975 0.977539 0.0672141 0.00616023 0.997808 -0.0658879 
0.167234 0.985911 -0.00357552 -0.00155526 0.997597 -0.0692616 0.000288238 0.997388 -0.0722241 
-0.078481 0.990241 -0.115168 -0.0303387 0.992762 -0.116205 -0.00903209 0.997552 -0.0693377 
-0.105533 0.993059 -0.0519341 -0.384041 0.923311 -0.00315643 0.571677 0.819674 -0.0363243 
0.305204 0.951728 0.0326088 0.326032 0.944861 0.0306737 -0.667115 0.744572 0.0238954 
-0.687198 0.725986 0.0265123 0.678502 0.73142 -0.0682631 0.792765 0.5964 -0.125819 
-0.821534 0.567997 0.0496089 -0.833473 0.550615 0.0463182 0.85795 0.489639 -0.155485 
0.781618 0.470738 -0.409241 -0.838914 0.542194 0.0474231 -0.847872 0.530201 -1.23769e-05 
0.931256 0.2811 -0.23183 -0.848589 0.529051 -0.000965133 -0.84962 0.526511 -0.0305332 
0.962651 0.0767292 -0.259647 -0.921603 0.384187 -0.0552099 0.949509 -0.0840219 -0.302279 
-0.971523 0.216488 -0.0963106 -0.985727 0.06202 -0.156512 0.917645 -0.247724 -0.310742 
-0.981984 -0.0671942 -0.176615 -0.978171 4.18326e-05 -0.2078 0.876343 -0.403092 -0.263703 
0.828151 -0.494366 -0.264138 0.745797 -0.377039 -0.549207 -0.949904 -0.254664 -0.181186 
0.817055 -0.515239 -0.258748 0.031345 -0.996877 0.0724847 -0.77919 -0.589108 -0.214045 
-0.692806 -0.677134 -0.248013 -0.67835 -0.604388 -0.4178 0.662245 -0.697188 -0.274519 
0.631681 -0.725564 -0.273013 0.628076 -0.68539 -0.368459 0.421105 -0.868909 -0.26013 
-0.274634 -0.903452 -0.329168 -0.386257 -0.895452 -0.221292 -0.261227 -0.715423 -0.64802 
-0.23956 -0.970881 0.00132082 -0.314175 -0.94913 -0.0211305 -0.298537 -0.951645 -0.0724411 
0.151482 -0.98619 0.0669563 0.238868 -0.968975 0.0634865 0.233182 -0.966817 -0.104359 
0.193354 -0.980455 -0.0363571 0.183544 -0.828976 -0.528308 0.0436559 -0.997291 -0.0591938 
-0.173456 -0.969248 -0.17456 -0.240003 -0.72504 -0.645535 -0.437899 -0.870931 -0.222989 
-0.372989 -0.905703 -0.201447 -0.391987 -0.877136 -0.277449 0.203692 -0.946506 -0.250271 
0.170842 -0.954649 -0.243839 0.173301 -0.945673 -0.27508 0.0255971 -0.966834 -0.254119 
0.0161994 -0.923208 -0.383958 -0.189794 -0.92997 -0.314856 -0.130996 -0.944008 -0.302803 
-0.140952 -0.916233 -0.375033 0.282358 0.90717 -0.311957 0.19017 0.917999 -0.348012 
0.13589 0.914277 -0.381616 0.0673608 0.879319 -0.471445 -0.0708531 0.827901 -0.556381 
-0.0726087 0.803765 -0.590499 0.0671243 0.828487 -0.555972 0.0326602 0.88702 -0.460575 
-0.124285 0.881402 -0.455723 -0.343331 0.835727 -0.428584 0.618554 0.631363 -0.46773 
0.314812 0.888889 -0.332822 0.390705 0.82871 -0.400736 0.2765 0.869946 -0.40834 
0.146218 0.771965 -0.618619 0.0737098 0.657952 -0.749444 -0.0513837 0.559774 -0.827051 
-0.100275 0.518524 -0.849163 -0.0281193 0.572377 -0.819508 0.0766099 0.618437 -0.782091 
0.0727896 0.585589 -0.807334 -0.0593676 0.662951 -0.746305 -0.535296 0.744321 -0.399304 
-0.326437 0.690102 -0.645909 -0.637747 0.67076 -0.37863 0.635713 0.609683 -0.47345 
0.615059 0.602552 -0.50856 0.37908 0.517788 -0.766938 -0.0973308 0.206885 -0.973512 
0.0165311 0.219692 -0.975429 -0.748066 0.553473 -0.366149 -0.535968 0.44129 -0.719723 
-0.780244 0.50729 -0.36589 0.721814 0.437988 -0.535864 0.74644 0.38411 -0.543403 
0.517799 0.292212 -0.80405 -0.787485 0.493741 -0.368899 -0.724363 0.469978 -0.5044 
0.798036 0.233516 -0.555526 0.702022 0.219487 -0.677488 0.385206 0.067771 -0.920339 
-0.791416 0.446099 -0.417919 -0.513618 0.258695 -0.818091 -0.806392 0.396339 -0.438916 
0.790365 0.0241726 -0.612159 0.65936 -0.0028336 -0.751822 -0.000251215 -0.114139 -0.993465 
-0.0512905 0.0283801 -0.99828 -0.829487 0.304576 -0.468172 -0.729054 0.279456 -0.624808 
0.767494 -0.096522 -0.633747 0.654491 -0.0962197 -0.749922 0.367257 -0.0859565 -0.926139 
-0.117067 0.0605338 -0.991278 -0.85486 0.116245 -0.505669 -0.647712 0.0561216 -0.759815 
0.726245 -0.221961 -0.650616 0.68418 -0.290694 -0.668876 0.67041 -0.231897 -0.704822 
0.424419 -0.155568 -0.892002 -0.0851057 -0.0671717 -0.994105 -0.0388408 -0.169516 -0.984762 
0.0451638 -0.182866 -0.9821 0.0963093 -0.0794866 -0.992173 -0.322479 -0.118552 -0.939123 
-0.795758 -0.0673755 -0.601856 -0.560839 -0.111023 -0.820447 0.640658 -0.339818 -0.688535 
0.488005 -0.279144 -0.827 0.210555 -0.272639 -0.938794 -0.148105 -0.203891 -0.967726 
-0.135055 -0.295835 -0.945643 -0.00415714 -0.297933 -0.954578 0.106193 -0.260205 -0.959696 
0.117816 -0.198169 -0.973061 0.0835431 -0.179766 -0.980155 -0.103811 -0.245455 -0.963834 
-0.318637 -0.290823 -0.90216 -0.685252 -0.298863 -0.664162 -0.591183 -0.475413 -0.651525 
-0.539567 -0.29995 -0.7867 0.591726 -0.444021 -0.672835 0.546002 -0.479532 -0.686972 
0.522699 -0.444208 -0.727644 0.300727 -0.372479 -0.877965 0.129917 -0.282091 -0.950551 
-0.0340772 -0.309176 -0.950394 -0.138201 -0.365543 -0.920477 -0.205781 -0.38913 -0.897904 
-0.181686 -0.55261 -0.813395 -0.148494 -0.438134 -0.88656 -0.049341 -0.618273 -0.784413 
-0.0105511 -0.495409 -0.868596 0.125353 -0.740493 -0.66027 0.135682 -0.552345 -0.822499 
0.197471 -0.780054 -0.593735 0.160514 -0.437531 -0.884761 0.177944 -0.804228 -0.567056 
0.0642622 -0.394354 -0.916709 -0.00979538 -0.404888 -0.914314 -0.235272 -0.698787 -0.675533 
-0.134662 -0.446077 -0.884806 -0.512564 -0.549348 -0.65992 -0.411565 -0.637937 -0.650884 
-0.337867 -0.416491 -0.844027 0.402529 -0.6183 -0.675037 0.363499 -0.651729 -0.665671 
0.373596 -0.608058 -0.700494 0.161431 -0.71049 -0.684941 0.123648 -0.592131 -0.796299 
-0.0319685 -0.696301 -0.717038 -0.0822734 -0.545831 -0.833846 -0.180352 -0.634301 -0.751755 
-0.167988 -0.579917 -0.797168 -0.215619 -0.605561 -0.766031 -0.215638 -0.605605 -0.765991 
-0.21563 -0.605525 -0.766057 0.153456 -0.808088 -0.568722 -0.198939 -0.721329 -0.663406 
-0.00477478 -0.800441 -0.599392 -0.0188401 -0.734111 -0.678768 0.187437 0.463014 -0.866305 
0.0461248 0.44929 -0.892194 -0.00879221 0.373237 -0.927694 -0.0896696 0.27812 -0.956352 
0.132804 0.251326 -0.958748 0.0805648 0.356481 -0.930822 -0.0376296 0.389845 -0.920111 
-0.20136 0.340427 -0.918457 0.256435 0.422312 -0.869422 0.301583 0.365154 -0.880744 
0.16787 0.364345 -0.916009 0.0132796 0.30429 -0.952487 -0.0543757 0.236178 -0.970187 
-0.0968917 0.200673 -0.974855 -0.0958828 0.191982 -0.976703 -0.093446 0.140036 -0.985727 
0.128796 0.246357 -0.960583 0.0296198 0.129326 -0.99116 0.133381 0.247744 -0.9596 
0.0807851 0.258939 -0.962509 -0.0271829 0.232791 -0.972147 -0.270055 0.315739 -0.909604 
-0.183432 0.280289 -0.942227 -0.330125 0.202495 -0.921962 0.411183 0.251659 -0.876126 
0.224662 0.197833 -0.954143 0.06964 0.120677 -0.990246 -0.0426999 0.0662422 -0.99689 
-0.0748426 0.00729568 -0.997169 -0.106409 0.00592258 -0.994305 -0.0880193 0.0483595 -0.994944 
0.0312161 0.114652 -0.992915 0.130865 0.0305652 -0.990929 0.0841013 0.00110215 -0.996457 
-0.035835 0.0414933 -0.998496 -0.119935 0.11936 -0.985581 -0.329949 0.202106 -0.92211 
-0.329536 0.201825 -0.922319 0.364059 0.0609493 -0.92938 0.374995 0.0218096 -0.92677 
0.179835 0.0372502 -0.982991 0.0357101 -0.00184412 -0.999361 -0.0990911 -0.0525893 -0.993688 
-0.116615 -0.0900806 -0.989084 -0.0518931 -0.0371787 -0.99796 0.0107974 -0.0755728 -0.997082 
0.00929678 -0.0573687 -0.99831 0.00289389 0.0621328 -0.998064 -0.017404 -0.0412846 -0.998996 
0.0151603 -0.0898628 -0.995839 0.0968172 -0.128506 -0.986971 0.101069 -0.023852 -0.994593 
-0.0087329 0.0939373 -0.99554 -0.408114 0.207525 -0.889031 -0.231321 0.133078 -0.963733 
-0.397427 0.121402 -0.909568 0.37691 -0.00407188 -0.926241 0.368981 -0.0301886 -0.928946 
0.369486 -0.00407859 -0.929227 0.151681 -0.0191555 -0.988244 -0.0218354 -0.0407834 -0.998929 
-0.127536 -0.0759258 -0.988924 -0.0628618 -0.0750135 -0.995199 -0.0299288 -0.0416506 -0.998684 
-0.0788337 0.0420587 -0.996 0.00690733 -0.084946 -0.996362 -0.0392257 -0.0034887 -0.999224 
0.00372101 -0.0503336 -0.998726 0.110318 -0.0433389 -0.992951 -0.0337249 0.0184972 -0.99926 
0.157579 -0.0655706 -0.985327 0.18157 -0.0272545 -0.983 0.0252025 -0.00378512 -0.999675 
-0.168981 0.00835899 -0.985584 -0.380084 0.0875638 -0.920798 -0.359722 0.0789045 -0.929717 
0.338995 -0.0796682 -0.937409 0.152055 -0.0520634 -0.987 -0.0256084 -0.041371 -0.998816 
-0.135691 -0.0340541 -0.990166 -0.00881187 -0.0309652 -0.999482 -0.0869773 0.0121079 -0.996137 
-0.0445413 -0.0427564 -0.998092 0.124775 -0.142164 -0.981947 0.12723 -0.1591 -0.97903 
0.14126 -0.156641 -0.977501 0.0295514 -0.116056 -0.992803 -0.00606921 -0.0145177 -0.999876 
0.0629661 -0.0488966 -0.996817 0.0398559 -0.0284402 -0.998801 0.159254 -0.0594561 -0.985446 
0.024551 -0.0951172 -0.995163 -0.128456 -0.0154678 -0.991595 -0.327045 -0.0360812 -0.94432 
-0.308539 -0.0823922 -0.947637 -0.286171 -0.0439625 -0.95717 0.322111 -0.129853 -0.937754 
0.209473 -0.266281 -0.940859 0.194622 -0.106228 -0.975109 -0.00256814 -0.0969346 -0.995287 
-0.116115 -0.0404007 -0.992414 -0.0662727 0.0231785 -0.997532 -0.0798524 -0.0721002 -0.994196 
-0.0680351 -0.153456 -0.985811 -0.0164108 -0.126129 -0.991878 0.100917 -0.0850988 -0.991249 
0.085773 -0.17394 -0.981014 0.118539 -0.103955 -0.987493 0.0669331 -0.156859 -0.98535 
-0.289218 -0.12075 -0.949617 -0.104542 -0.227979 -0.968038 -0.129332 -0.146876 -0.980663 
0.196975 -0.265205 -0.943857 0.0884859 -0.221736 -0.971084 0.0483845 -0.174306 -0.983502 
-0.0246304 -0.216351 -0.976005 -0.0167736 -0.128337 -0.991589 -0.114043 -0.142166 -0.983251 
-0.100149 -0.16699 -0.980859 -0.0863655 -0.0942724 -0.991793 0.0548298 -0.196559 -0.978958 
-0.0431624 -0.240389 -0.969716 -0.0157907 -0.248273 -0.968561 -0.0169048 -0.238816 -0.970918 

