# vtk DataFile Version 4.2
vtk output
ASCII
DATASET POLYDATA
POINTS 558 float
28.7396 -10.1015 -17.1012 -42.0274 -31.3316 -12.001 -34.9507 -31.3316 -11.4686 
-27.874 -31.3316 -12.5786 -20.7973 -31.3316 -10.8097 -49.1041 -24.2549 -12.6451 
-42.0274 -24.2549 -13.4578 -34.9507 -24.2549 -14.1179 -27.874 -24.2549 -13.702 
-20.7973 -24.2549 -14.4926 -13.7206 -24.2549 -13.0458 -6.64386 -24.2549 -12.1351 
0.43284 -24.2549 -11.3589 7.50954 -24.2549 -11.8907 14.5862 -24.2549 -12.5956 
21.6629 -24.2549 -13.1535 28.7396 -24.2549 -13.598 35.8163 -24.2549 -12.7261 
42.893 -24.2549 -12.5305 -56.1808 -17.1782 -11.7409 -49.1041 -17.1782 -12.1968 
-42.0274 -17.1782 -16.2403 -34.9507 -17.1782 -14.2542 -27.874 -17.1782 -13.7076 
-20.7973 -17.1782 -13.773 -13.7206 -17.1782 -13.5882 -6.64386 -17.1782 -13.3731 
0.43284 -17.1782 -12.6904 7.50954 -17.1782 -13.3989 14.5862 -17.1782 -15.107 
21.6629 -17.1782 -16.0234 28.7396 -10.3774 -17.078 28.7396 -17.1782 -16.4668 
35.8163 -17.1782 -15.9557 42.893 -17.1782 -14.3021 49.9697 -17.1782 -12.9236 
-56.1808 -10.1015 -12.9814 -49.1041 -10.1015 -13.3253 -42.0274 -10.1015 -13.8881 
-34.9507 -10.1015 -14.2976 -27.874 -10.1015 -13.5242 -20.7973 -10.1015 -12.6448 
-13.7206 -10.1015 -12.9914 -6.64386 -10.1015 -13.8318 0.43284 -10.1015 -12.2885 
7.50954 -10.1015 -13.6625 14.5862 -10.1015 -15.6231 28.1135 -10.1015 -17.078 
21.6629 -10.1015 -16.8383 28.9067 -10.1015 -17.078 28.7396 -9.75778 -17.078 
35.8163 -10.1015 -16.1296 42.893 -10.1015 -14.5223 49.9697 -10.1015 -12.0088 
-56.1808 -3.02478 -11.1217 -49.1041 -3.02478 -12.9585 -42.0274 -3.02478 -13.7963 
-34.9507 -3.02478 -14.202 -27.874 -3.02478 -13.4702 -20.7973 -3.02478 -12.4956 
-13.7206 -3.02478 -14.5918 -6.64386 -3.02478 -15.0054 0.43284 -3.02478 -11.862 
7.50954 -3.02478 -15.329 14.5862 -3.02478 -16.0621 21.6629 -3.02478 -16.7028 
28.7396 -3.02478 -16.6048 35.8163 -3.02478 -15.8174 42.893 -3.02478 -13.8315 
49.9697 -3.02478 -11.0438 -49.1041 4.05192 -11.9917 -42.0274 4.05192 -13.4218 
-34.9507 4.05192 -14.2675 -27.874 4.05192 -13.7634 -20.7973 4.05192 -13.3214 
-13.7206 4.05192 -14.647 -6.64386 4.05192 -13.7328 0.43284 4.05192 -13.6288 
7.50954 4.05192 -14.2585 14.5862 4.05192 -15.1328 21.6629 4.05192 -15.7862 
28.7396 4.05192 -15.6766 35.8163 4.05192 -14.8667 42.893 4.05192 -12.9943 
-49.1041 11.1286 -10.5299 -42.0274 11.1286 -14.5284 -34.9507 11.1286 -14.0275 
-27.874 11.1286 -14.1002 -20.7973 11.1286 -14.2026 -13.7206 11.1286 -14.5846 
-6.64386 11.1286 -14.779 0.43284 11.1286 -15.7999 7.50954 11.1286 -14.5249 
14.5862 11.1286 -14.7099 21.6629 11.1286 -15.2898 28.7396 11.1286 -15.0495 
35.8163 11.1286 -13.4319 42.893 11.1286 -11.1979 -42.0274 18.2053 -11.8505 
-34.9507 18.2053 -13.0538 -27.874 18.2053 -14.2329 -20.7973 18.2053 -14.8523 
-13.7206 18.2053 -15.2224 -6.64386 18.2053 -15.0641 0.43284 18.2053 -14.7029 
7.50954 18.2053 -14.5447 14.5862 18.2053 -14.5429 21.6629 18.2053 -14.7208 
28.7396 18.2053 -14.4251 35.8163 18.2053 -12.3434 42.893 18.2053 -10.1231 
-42.0274 25.282 -10.1056 -34.9507 25.282 -11.7227 -27.874 25.282 -12.9701 
-20.7973 25.282 -14.357 -13.7206 25.282 -15.0509 -6.64386 25.282 -14.7593 
0.43284 25.282 -14.2075 7.50954 25.282 -14.3107 14.5862 25.282 -13.4222 
21.6629 25.282 -12.7328 28.7396 25.282 -11.3193 -27.874 32.3587 -10.2243 
-20.7973 32.3587 -12.306 -13.7206 32.3587 -13.1045 -6.64386 32.3587 -13.3307 
0.43284 32.3587 -12.8556 7.50954 32.3587 -11.952 14.5862 32.3587 -10.7454 
-42.0274 -34.0189 -10.0013 -34.9507 -34.0428 -10.0013 -34.9507 -38.4083 -4.09458 
-27.874 -34.0865 -10.0013 -20.7973 -32.4037 -10.0013 -48.0525 -31.3316 -10.0013 
-49.1041 -30.5958 -10.0013 -49.1041 -31.3316 -9.45828 -14.2503 -31.3316 -10.0013 
-13.7206 -31.1903 -10.0013 -13.7206 -31.3316 -9.84157 -6.64386 -27.6763 -10.0013 
-6.64386 -31.3316 -5.32777 0.43284 -26.2292 -10.0013 0.43284 -31.3316 -3.86212 
7.50954 -26.7997 -10.0013 7.50954 -31.3316 -4.06914 14.5862 -27.207 -10.0013 
21.6629 -27.4899 -10.0013 28.7396 -27.8917 -10.0013 35.8163 -27.5528 -10.0013 
42.893 -26.8453 -10.0013 -55.0427 -24.2549 -10.0013 -56.1808 -21.6391 -10.0013 
-56.1808 -24.2549 -9.06106 47.7467 -24.2549 -10.0013 49.9697 -22.4439 -10.0013 
49.9697 -24.2549 -8.47932 -57.6792 -17.1782 -10.0013 54.0554 -17.1782 -10.0013 
57.0464 -17.1782 -7.21696 -58.5136 -10.1015 -10.0013 -63.2575 -10.1015 -3.13978 
54.0418 -10.1015 -10.0013 57.0464 -10.1015 -8.49763 -57.9277 -3.02478 -10.0013 
-56.1808 3.51164 -10.0013 51.8692 -3.02478 -10.0013 49.9697 3.06931 -10.0013 
57.0464 -3.02478 -7.02162 -55.7295 4.05192 -10.0013 -56.1808 4.05192 -9.83382 
49.6286 4.05192 -10.0013 49.9697 4.05192 -9.83094 57.0464 4.05192 -5.43046 
-50.3639 11.1286 -10.0013 -56.1808 11.1286 -6.7943 -49.1041 15.9185 -10.0013 
45.601 11.1286 -10.0013 49.9697 11.1286 -7.49968 -48.2367 18.2053 -10.0013 
-49.1041 18.2053 -9.67022 35.8163 22.9711 -10.0013 43.104 18.2053 -10.0013 
42.893 18.4552 -10.0013 49.9697 18.2053 -3.94883 -42.202 25.282 -10.0013 
-42.0274 25.4345 -10.0013 -34.9507 28.8983 -10.0013 21.6629 29.5216 -10.0013 
32.375 25.282 -10.0013 28.7396 27.1423 -10.0013 35.8163 25.282 -8.25057 
42.893 25.282 -3.56439 -28.6805 32.3587 -10.0013 -34.9507 32.3587 -7.52751 
-27.874 32.6367 -10.0013 -20.7973 36.121 -10.0013 -13.7206 36.8849 -10.0013 
-6.64386 37.1915 -10.0013 0.43284 36.3555 -10.0013 7.50954 34.9233 -10.0013 
16.6638 32.3587 -10.0013 14.5862 33.29 -10.0013 21.6629 32.3587 -6.86774 
-20.7973 39.4354 -5.2346 -13.7206 39.4354 -6.78564 -6.64386 39.4354 -7.31956 
0.43284 39.4354 -5.85459 7.50954 39.4354 -3.00221 -34.9507 -38.778 -2.9246 
-49.1041 -35.8873 -2.9246 -38.8779 -38.4083 -2.9246 -42.0274 -38.0911 -2.9246 
-29.5514 -38.4083 -2.9246 -34.9507 -38.4083 -1.79439 -27.874 -38.2902 -2.9246 
-20.7973 -36.503 -2.9246 -13.7206 -34.2343 -2.9246 -6.64386 -32.4186 -2.9246 
0.43284 -31.8154 -2.9246 7.50954 -31.8985 -2.9246 -55.3188 -31.3316 -2.9246 
-56.1808 -30.3829 -2.9246 -6.64386 -31.3316 1.06156 0.43284 -31.3316 -0.0499301 
10.8525 -31.3316 -2.9246 7.50954 -31.3316 3.86359 14.5862 -30.6553 -2.9246 
21.6629 -29.807 -2.9246 28.7396 -30.1324 -2.9246 35.8163 -31.1976 -2.9246 
42.893 -29.6154 -2.9246 49.9697 -28.1768 -2.9246 -60.7734 -24.2549 -2.9246 
55.8115 -24.2549 -2.9246 57.0464 -22.9078 -2.9246 57.0464 -24.2549 2.66901 
-63.1855 -17.1782 -2.9246 -63.2575 -14.6072 -2.9246 61.0783 -17.1782 -2.9246 
-63.3745 -10.1015 -2.9246 -63.2575 -5.97228 -2.9246 -63.2575 -10.1015 -2.58299 
62.6227 -10.1015 -2.9246 64.1231 -10.1015 1.3686 -63.1558 -3.02478 -2.9246 
60.9089 -3.02478 -2.9246 -61.1808 4.05192 -2.9246 59.384 4.05192 -2.9246 
57.0464 8.28608 -2.9246 -58.6975 11.1286 -2.9246 -56.1808 15.451 -2.9246 
54.8167 11.1286 -2.9246 57.0464 11.1286 1.97974 -54.2886 18.2053 -2.9246 
-49.1041 24.4848 -2.9246 50.8115 18.2053 -2.9246 49.9697 19.1709 -2.9246 
-48.3119 25.282 -2.9246 -42.0274 30.4824 -2.9246 28.7396 32.1668 -2.9246 
35.8163 29.1343 -2.9246 43.4044 25.282 -2.9246 42.893 25.6557 -2.9246 
-39.2597 32.3587 -2.9246 -34.9507 35.0707 -2.9246 -27.874 38.3079 -2.9246 
14.5862 37.3212 -2.9246 28.1939 32.3587 -2.9246 21.6629 34.5201 -2.9246 
-24.3279 39.4354 -2.9246 -20.7973 40.4122 -2.9246 -13.7206 41.2961 -2.9246 
-6.64386 41.6191 -2.9246 0.43284 40.7516 -2.9246 7.61918 39.4354 -2.9246 
7.50954 39.4678 -2.9246 7.50954 39.4354 -2.58415 -49.1041 -32.8019 4.1521 
-42.0274 -35.6174 4.1521 -34.9507 -35.5513 4.1521 -27.874 -35.4135 4.1521 
-20.7973 -34.3843 4.1521 -13.7206 -31.9241 4.1521 -51.1293 -31.3316 4.1521 
-56.1808 -26.5379 4.1521 -49.1041 -31.3316 5.27723 -42.0274 -31.3316 7.97532 
-34.9507 -31.3316 8.2277 -27.874 -31.3316 8.47631 -20.7973 -31.3316 7.04096 
-11.1552 -31.3316 4.1521 -13.7206 -31.3316 4.75337 -6.64386 -30.0445 4.1521 
0.43284 -30.3221 4.1521 7.50954 -31.2955 4.1521 14.5862 -29.811 4.1521 
21.6629 -28.5546 4.1521 28.7396 -29.0086 4.1521 35.8163 -30.111 4.1521 
42.893 -29.4696 4.1521 49.9697 -28.2981 4.1521 57.0464 -24.5296 4.1521 
-57.8443 -24.2549 4.1521 -56.1808 -24.2549 5.37136 -49.1041 -24.2549 7.56658 
-34.9507 -24.2549 9.88139 -27.874 -24.2549 10.766 -20.7973 -24.2549 10.9017 
-13.7206 -24.2549 8.918 -6.64386 -24.2549 8.06723 0.43284 -24.2549 8.49043 
7.50954 -24.2549 9.46921 14.5862 -24.2549 8.95306 21.6629 -24.2549 9.55784 
49.9697 -24.2549 10.5342 57.424 -24.2549 4.1521 57.0464 -24.2549 4.66781 
-59.9918 -17.1782 4.1521 -56.1808 -17.1782 6.79885 -49.1041 -17.1782 10.5585 
-42.0274 -17.1782 10.2897 -27.874 -17.1782 11.0281 -20.7973 -17.1782 11.1687 
-13.7206 -17.1782 10.5508 -6.64386 -17.1782 9.77122 0.43284 -17.1782 9.33356 
7.50954 -17.1782 10.8187 63.2592 -17.1782 4.1521 64.1231 -13.7095 4.1521 
-60.7465 -10.1015 4.1521 -56.1808 -10.1015 7.79325 -42.0274 -10.1015 11.044 
-20.7973 -10.1015 10.5917 -13.7206 -10.1015 10.381 0.43284 -10.1015 8.09194 
7.50954 -10.1015 10.5525 65.0084 -10.1015 4.1521 64.1231 -4.67709 4.1521 
64.1231 -10.1015 6.53498 -58.0488 -3.02478 4.1521 -56.1808 -3.02478 5.3683 
63.8512 -3.02478 4.1521 -58.7349 4.05192 4.1521 -56.1808 4.05192 6.43375 
61.8755 4.05192 4.1521 -56.7287 11.1286 4.1521 -56.1808 12.1543 4.1521 
-56.1808 11.1286 4.67151 -49.1041 11.1286 9.97339 57.7869 11.1286 4.1521 
57.0464 12.3341 4.1521 57.0464 11.1286 6.20428 -51.3794 18.2053 4.1521 
-49.1041 21.7568 4.1521 -49.1041 18.2053 6.25351 -42.0274 18.2053 10.5457 
52.8749 18.2053 4.1521 49.9697 21.1387 4.1521 49.9697 18.2053 9.84704 
-46.3976 25.282 4.1521 -42.0274 29.0099 4.1521 -42.0274 25.282 8.13602 
28.7396 32.3449 4.1521 35.8163 29.5623 4.1521 44.5941 25.282 4.1521 
42.893 26.3921 4.1521 42.893 25.282 6.72175 -37.9564 32.3587 4.1521 
-34.9507 34.2102 4.1521 -34.9507 32.3587 6.81085 -27.874 37.9627 4.1521 
-27.874 32.3587 10.2919 7.50954 38.7118 4.1521 14.5862 36.7179 4.1521 
14.5862 32.3587 11.1079 28.6914 32.3587 4.1521 21.6629 34.2542 4.1521 
21.6629 32.3587 7.51354 -23.3597 39.4354 4.1521 -20.7973 40.1078 4.1521 
-20.7973 39.4354 5.29284 -13.7206 40.703 4.1521 -13.7206 39.4354 6.48075 
-6.64386 40.776 4.1521 -6.64386 39.4354 6.54875 2.82995 39.4354 4.1521 
[...]
POINT_DATA 558
SCALARS ImageScalars float
LOOKUP_TABLE default
0 0 0 0 0 0 0 0 0 
0 0 0 0 0 0 0 0 0 
0 0 0 0 0 0 0 0 0 
0 0 0 0 0 0 0 0 0 
0 0 0 0 0 0 0 0 0 
0 0 0 0 0 0 0 0 0 
0 0 0 0 0 0 0 0 0 
0 0 0 0 0 0 0 0 0 
0 0 0 0 0 0 0 0 0 
0 0 0 0 0 0 0 0 0 
0 0 0 0 0 0 0 0 0 
0 0 0 0 0 0 0 0 0 
0 0 0 0 0 0 0 0 0 
0 0 0 0 0 0 0 0 0 
0 0 0 0 0 0 0 0 0 
0 0 0 0 0 0 0 0 0 
0 0 0 0 0 0 0 0 0 
0 0 0 0 0 0 0 0 0 
0 0 0 0 0 0 0 0 0 
0 0 0 0 0 0 0 0 0 
0 0 0 0 0 0 0 0 0 
0 0 0 0 0 0 0 0 0 
0 0 0 0 0 0 0 0 0 
0 0 0 0 0 0 0 0 0 
0 0 0 0 0 0 0 0 0 
0 0 0 0 0 0 0 0 0 
0 0 0 0 0 0 0 0 0 
0 0 0 0 0 0 0 0 0 
0 0 0 0 0 0 0 0 0 
0 0 0 0 0 0 0 0 0 
0 0 0 0 0 0 0 0 0 
0 0 0 0 0 0 0 0 0 
0 0 0 0 0 0 0 0 0 
0 0 0 0 0 0 0 0 0 
0 0 0 0 0 0 0 0 0 
0 0 0 0 0 0 0 0 0 
0 0 0 0 0 0 0 0 0 
0 0 0 0 0 0 0 0 0 
0 0 0 0 0 0 0 0 0 
0 0 0 0 0 0 0 0 0 
0 0 0 0 0 0 0 0 0 
0 0 0 0 0 0 0 0 0 
0 0 0 0 0 0 0 0 0 
0 0 0 0 0 0 0 0 0 
0 0 0 0 0 0 0 0 0 
0 0 0 0 0 0 0 0 0 
0 0 0 0 0 0 0 0 0 
0 0 0 0 0 0 0 0 0 
0 0 0 0 0 0 0 0 0 
0 0 0 0 0 0 0 0 0 
0 0 0 0 0 0 0 0 0 
0 0 0 0 0 0 0 0 0 
0 0 0 0 0 0 0 0 0 
0 0 0 0 0 0 0 0 0 
0 0 0 0 0 0 0 0 0 
0 0 0 0 0 0 0 0 0 
0 0 0 0 0 0 0 0 0 
0 0 0 0 0 0 0 0 0 
0 0 0 0 0 0 0 0 0 
0 0 0 0 0 0 0 0 0 
0 0 0 0 0 0 0 0 0 
0 0 0 0 0 0 0 0 0 

NORMALS Normals float
0.0508925 -0.00818561 -0.998671 -0.0911237 -0.424472 -0.900844 -0.00984548 -0.497655 -0.867319 
0.0550995 -0.457242 -0.887634 0.140943 -0.578389 -0.803493 -0.219792 -0.118999 -0.968262 
-0.144525 -0.307303 -0.940573 -0.0110112 -0.140913 -0.989961 -0.011815 -0.0542836 -0.998456 
0.0426648 -0.180414 -0.982665 0.151075 -0.230282 -0.961325 0.113935 -0.360054 -0.925948 
0.0181972 -0.41258 -0.91074 -0.0828345 -0.431255 -0.898419 -0.0842126 -0.55371 -0.82844 
-0.064413 -0.601073 -0.796594 0.0272082 -0.574742 -0.817882 0.0675021 -0.57615 -0.814551 
0.253739 -0.556082 -0.791448 -0.434988 -0.207091 -0.876298 -0.295045 -0.0286772 -0.955053 
-0.0978008 -0.00307724 -0.995201 0.159009 -0.0156111 -0.987154 0.0349029 0.0130912 -0.999305 
0.00836868 0.123955 -0.992253 0.0281957 0.00617422 -0.999583 0.0632811 -0.110283 -0.991884 
-0.000525406 -0.0566245 -0.998395 -0.16351 -0.110924 -0.980286 -0.186149 -0.195525 -0.96287 
-0.0881715 -0.228255 -0.969601 0.0490296 -0.0157953 -0.998672 0.00260964 -0.216967 -0.976175 
0.153975 -0.210525 -0.965386 0.220314 -0.135128 -0.966024 0.413553 -0.202542 -0.887666 
-0.456451 0.118091 -0.881877 -0.0653677 -0.0557665 -0.996302 -0.0607257 0.147353 -0.987218 
0.0257257 0.00371704 -0.999662 0.116023 0.01667 -0.993107 0.0383026 0.0916572 -0.995054 
-0.0860738 -0.0272307 -0.995917 0.0526276 -0.100958 -0.993498 0.0117538 0.0507857 -0.99864 
-0.235377 -0.136588 -0.962259 -0.219893 -0.0656891 -0.97331 0.0373883 -0.0118832 -0.99923 
-0.102136 -0.0484542 -0.99359 0.0538528 -0.00792385 -0.998517 0.0511829 -0.00308438 -0.998685 
0.175708 0.00858234 -0.984405 0.272673 0.0338931 -0.96151 0.367923 0.13111 -0.920567 
-0.43157 0.1307 -0.892561 -0.250501 0.0899944 -0.963924 -0.0781557 0.0326547 -0.996406 
0.0230635 0.00215634 -0.999732 0.119673 -0.0167883 -0.992671 -0.0204637 -0.0459698 -0.998733 
-0.216908 -0.147988 -0.96491 0.174309 0.000165211 -0.984691 -0.0981934 -0.0758845 -0.99227 
-0.233871 -0.0397798 -0.971453 -0.0971605 0.0329413 -0.994723 -0.0382319 0.0738303 -0.996538 
0.0590527 0.100899 -0.993143 0.200777 0.0877248 -0.975701 0.307298 0.106449 -0.945641 
0.429531 0.137308 -0.892552 -0.201747 0.148509 -0.968113 -0.139113 -0.0372559 -0.989575 
-0.0238466 0.0120782 -0.999643 0.0647945 -0.0443497 -0.996913 -0.0547078 -0.122549 -0.990954 
-0.0355258 0.00227844 -0.999366 0.0760864 -0.00598115 -0.997083 -0.0474952 -0.306689 -0.950624 
-0.0967209 0.0602699 -0.993485 -0.107441 0.096809 -0.989487 -0.0367201 0.0995663 -0.994353 
0.0617864 0.106329 -0.992409 0.187081 0.157017 -0.969715 0.318628 0.167736 -0.93292 
-0.411674 0.14388 -0.899902 -0.200668 0.0762348 -0.976689 0.0246827 0.0841284 -0.996149 
-0.0122519 -0.0335313 -0.999363 -0.0340152 -0.104175 -0.993977 -0.0408217 -0.0412789 -0.998313 
-0.0814836 -0.084557 -0.993081 0.018707 -0.0317984 -0.999319 0.0746869 -0.0203232 -0.997 
-0.0540926 0.0407142 -0.997706 -0.0243824 0.0729343 -0.997039 0.126523 0.0838344 -0.988415 
0.244368 0.167031 -0.955189 0.352356 0.202576 -0.913678 -0.250005 0.305247 -0.91887 
-0.155496 0.141498 -0.97765 -0.120696 0.0726741 -0.990026 -0.0720516 -0.00976288 -0.997353 
-0.0149935 -0.0332706 -0.999334 0.0370382 0.00247235 -0.999311 0.0359347 0.107217 -0.993586 
0.0112982 0.0144254 -0.999832 -0.0117568 0.0872483 -0.996117 0.0062327 0.166026 -0.986102 
0.164694 0.240028 -0.956694 0.271302 0.268384 -0.924319 0.447637 0.313126 -0.8376 
-0.390211 0.444081 -0.806553 -0.219688 0.322892 -0.920586 -0.173525 0.242092 -0.95461 
-0.136626 0.170312 -0.975872 -0.0299024 0.13668 -0.990164 0.0573116 0.105378 -0.992779 
0.0336688 0.115209 -0.99277 0.0526276 0.156063 -0.986344 0.10356 0.248812 -0.963 
0.138764 0.40528 -0.9036 0.241381 0.510058 -0.825576 -0.273881 0.534811 -0.799354 
-0.163502 0.422762 -0.891369 -0.0695107 0.396831 -0.915256 0.0145874 0.394243 -0.91889 
0.0855891 0.398658 -0.913097 0.135503 0.474243 -0.869904 0.23953 0.556983 -0.795233 
-0.169677 -0.634993 -0.753653 -0.00338922 -0.606103 -0.795379 -0.0231074 -0.99415 -0.105508 
0.0914574 -0.653243 -0.751604 0.143282 -0.635307 -0.758851 -0.407041 -0.585293 -0.701249 
-0.437158 -0.55928 -0.704343 -0.462662 -0.618229 -0.635403 0.219657 -0.665303 -0.713528 
0.226288 -0.663198 -0.713416 0.230556 -0.682153 -0.693911 0.180289 -0.573149 -0.799372 
0.1845 -0.940847 -0.284194 0.0346069 -0.538676 -0.841802 0.0413461 -0.967395 -0.249876 
-0.0516909 -0.595232 -0.80189 0.0695129 -0.956816 -0.282261 -0.0387897 -0.735628 -0.676274 
-0.040974 -0.822108 -0.567855 -0.00787076 -0.832814 -0.553497 0.0696016 -0.747814 -0.66025 
0.229725 -0.737942 -0.634562 -0.602951 -0.342184 -0.720666 -0.610783 -0.320507 -0.72403 
-0.682226 -0.397666 -0.613539 0.409706 -0.566 -0.715392 0.47217 -0.463974 -0.749523 
0.467687 -0.588528 -0.659473 -0.558453 -0.209838 -0.802557 0.558125 -0.235441 -0.795653 
0.650245 -0.314331 -0.691648 -0.650688 -0.0123454 -0.759245 -0.992256 0.00166039 -0.1242 
0.440681 0.0797629 -0.894113 0.539557 0.0154442 -0.841808 -0.513324 0.133339 -0.847773 
-0.574401 0.269612 -0.772899 0.461198 0.150618 -0.87442 0.466068 0.173925 -0.867485 
0.60761 0.199758 -0.768704 -0.563239 0.274048 -0.779525 -0.596974 0.284079 -0.750281 
0.462506 0.180915 -0.867962 0.470381 0.183005 -0.863279 0.661557 0.317884 -0.679185 
-0.453591 0.178716 -0.873107 -0.757134 0.443647 -0.479505 -0.44627 0.266669 -0.854243 
0.420025 0.229971 -0.877891 0.571183 0.317827 -0.756793 -0.433009 0.321218 -0.842213 
-0.475771 0.34189 -0.810404 0.307474 0.492212 -0.814363 0.455512 0.317387 -0.83173 
0.451596 0.324548 -0.831101 0.696638 0.530615 -0.48285 -0.397496 0.451097 -0.799067 
-0.39562 0.453243 -0.798784 -0.298428 0.471356 -0.829918 0.239908 0.595233 -0.766904 
0.290476 0.558881 -0.776708 0.264289 0.589129 -0.763596 0.35278 0.66307 -0.660215 
0.550781 0.759253 -0.346663 -0.286186 0.543893 -0.788846 -0.426165 0.691563 -0.583201 
-0.278219 0.548091 -0.78879 -0.190505 0.635627 -0.748122 -0.0487155 0.675853 -0.735425 
0.0240091 0.658563 -0.752143 0.107505 0.635725 -0.764393 0.155124 0.635016 -0.756764 
0.258157 0.607584 -0.75113 0.251317 0.611214 -0.750504 0.328651 0.807192 -0.490337 
-0.203097 0.919885 -0.335504 -0.0687782 0.898168 -0.43424 0.0305804 0.862167 -0.5057 
0.141775 0.920379 -0.364421 0.232151 0.959344 -0.160514 -0.0111315 -0.999927 0.00472198 
-0.415176 -0.906526 -0.0764121 -0.123652 -0.991407 -0.0426836 -0.217175 -0.972419 -0.0850633 
0.116963 -0.992688 -0.02984 -0.0160345 -0.995743 0.0907705 0.157756 -0.986604 -0.0415308 
0.267804 -0.961565 -0.0606168 0.292804 -0.955704 -0.0299392 0.157194 -0.984113 -0.0825386 
0.0375967 -0.983322 -0.177946 0.0801086 -0.975376 -0.205487 -0.71832 -0.688658 -0.0988256 
-0.745942 -0.657911 -0.103555 0.122913 -0.952789 0.277644 -0.00229734 -0.996613 0.0822007 
0.114007 -0.976409 -0.183378 0.0319547 -0.918059 0.395153 0.147043 -0.977566 -0.150808 
0.0329907 -0.997994 -0.0540276 -0.0897309 -0.994375 -0.0562776 0.0311981 -0.993964 -0.105176 
0.209316 -0.962081 -0.174889 0.347468 -0.901225 -0.258957 -0.877255 -0.461143 -0.133305 
0.644694 -0.6656 -0.37596 0.687724 -0.597246 -0.412714 0.610445 -0.791308 0.0344783 
-0.978829 -0.175341 -0.105591 -0.988031 -0.111877 -0.106203 0.794474 -0.373083 -0.479188 
-0.994587 0.00189916 -0.103885 -0.988552 0.0920876 -0.119518 -0.996495 0.000886175 -0.0836472 
0.892704 0.0141639 -0.45042 0.990432 -0.0189831 -0.13669 -0.979577 0.156953 -0.125679 
0.812502 0.222129 -0.53898 -0.946086 0.300224 -0.121604 0.78014 0.334415 -0.528724 
0.729288 0.433959 -0.528979 -0.887368 0.43411 -0.155325 -0.833694 0.527268 -0.164145 
0.708046 0.470274 -0.526795 0.829595 0.540307 -0.140853 -0.806477 0.573453 -0.144034 
-0.699599 0.688018 -0.192854 0.716725 0.542747 -0.43787 0.701842 0.565989 -0.432522 
-0.68363 0.702826 -0.196686 -0.573388 0.796594 -0.191479 0.350248 0.90484 -0.242057 
0.396548 0.874404 -0.279584 0.563708 0.765348 -0.310606 0.552011 0.775803 -0.305637 
-0.537361 0.81856 -0.202984 -0.476733 0.857398 -0.193892 -0.363836 0.901111 -0.235844 
0.329972 0.929718 -0.163529 0.349404 0.906234 -0.238026 0.344983 0.91436 -0.211974 
-0.280067 0.93818 -0.203421 -0.196112 0.963553 -0.181952 -0.0833668 0.980818 -0.176201 
0.0389575 0.985558 -0.164794 0.149413 0.978442 -0.142572 0.233638 0.959746 -0.15589 
0.232273 0.96007 -0.155929 0.231665 0.963288 -0.135671 -0.453175 -0.571719 0.683937 
-0.172298 -0.83805 0.517673 0.0118785 -0.762788 0.64654 0.0807912 -0.788163 0.61014 
0.203852 -0.787915 0.581063 0.276052 -0.770239 0.574916 -0.510608 -0.531684 0.675715 
-0.539883 -0.499322 0.677646 -0.433233 -0.458775 0.77578 -0.228064 -0.525033 0.819956 
-0.0348479 -0.550017 0.834426 0.0897766 -0.54922 0.830841 0.196303 -0.615553 0.763256 
0.210338 -0.788374 0.578121 0.268293 -0.741239 0.615291 0.0809439 -0.784006 0.615453 
-0.0657876 -0.848425 0.525211 0.0293874 -0.906176 0.421878 0.169894 -0.86866 0.465366 
0.035783 -0.919403 0.391686 -0.106199 -0.933705 0.341931 -0.0254435 -0.936837 0.348839 
0.129073 -0.967745 0.216356 0.294547 -0.942772 0.156278 0.570208 -0.809196 0.141651 
-0.583799 -0.405902 0.703151 -0.47979 -0.369186 0.795929 -0.460614 -0.358657 0.811911 
0.0641585 -0.225292 0.972177 -0.0746225 -0.134362 0.988119 0.124014 -0.271432 0.954435 
0.17966 -0.350222 0.919275 0.0305345 -0.402253 0.915019 -0.102243 -0.370503 0.923187 
-0.0432164 -0.383204 0.922652 -0.000143998 -0.564564 0.825389 -0.114192 -0.650141 0.751183 
0.364129 -0.594657 0.716793 0.58177 -0.80153 0.138182 0.572616 -0.803424 0.163162 
-0.71868 -0.191442 0.668468 -0.474265 -0.196301 0.858218 -0.356033 -0.30108 0.884642 
-0.096507 0.0470275 0.994221 0.0482659 -0.0413465 0.997978 0.033727 0.0250223 0.999118 
0.0977026 -0.102904 0.989881 0.087336 -0.257401 0.96235 -0.0722982 0.0248947 0.997072 
-0.181489 -0.0675985 0.981067 0.930526 -0.361794 0.0568 0.980281 -0.195055 0.031682 
-0.850807 0.0525634 0.522843 -0.513155 0.0476292 0.856973 0.0480189 -0.0669563 0.9966 
0.0699478 -0.0233116 0.997278 -0.100126 -0.0823899 0.991558 0.0842637 -0.16865 0.982068 
-0.321648 -0.101016 0.941455 0.998793 -0.0415558 0.0261708 0.986555 0.157934 -0.0420384 
0.968843 -0.0593287 0.240465 -0.692015 0.149521 0.706228 -0.600768 0.133837 0.78814 
0.974505 0.217227 -0.0561506 -0.795474 0.112638 0.595428 -0.630957 0.0661687 0.772991 
0.926275 0.376698 0.0106623 -0.712048 0.37033 0.596526 -0.698817 0.39058 0.599252 
-0.682314 0.361935 0.635178 -0.463846 0.253053 0.849006 0.84347 0.537109 0.00850066 
0.834808 0.550395 0.0126614 0.826559 0.538535 0.163645 -0.713304 0.436208 0.548562 
-0.692652 0.503139 0.516802 -0.664537 0.40661 0.626944 -0.374203 0.174849 0.910714 
0.745605 0.663412 0.062915 0.673842 0.733672 0.0875313 0.599505 0.610441 0.517645 
-0.646067 0.613561 0.454027 -0.591472 0.699475 0.401119 -0.531123 0.50228 0.682366 
0.319459 0.916661 0.240162 0.358976 0.915139 0.183457 0.540062 0.831344 0.13115 
0.500076 0.854216 0.142262 0.483864 0.821306 0.302213 -0.526129 0.77248 0.355615 
-0.480491 0.810371 0.335302 -0.458529 0.713898 0.529246 -0.372263 0.872642 0.316096 
-0.294109 0.559769 0.774699 0.19786 0.929068 0.312545 0.289847 0.911929 0.290473 
0.2218 0.659934 0.717838 0.319221 0.916708 0.240302 0.285153 0.922084 0.261629 
0.268552 0.844263 0.463788 -0.239839 0.922122 0.303591 -0.168984 0.937162 0.305239 
-0.172654 0.911415 0.373516 -0.0457175 0.955028 0.29297 -0.052042 0.902824 0.426848 
0.0630247 0.945648 0.319028 0.0608985 0.894134 0.44364 0.154851 0.936794 0.313749 
0.135494 0.938401 0.317875 0.13376 0.927481 0.349123 -0.126249 -0.200071 0.971614 
-0.145593 -0.682296 0.716432 -0.124613 -0.733324 0.668362 0.0438963 -0.770084 0.636431 
-0.184495 -0.21146 0.959816 -0.0316884 -0.168684 0.985161 -0.0858574 -0.0624649 0.994347 
-0.0808124 -0.14243 0.9865 -0.0084096 -0.132574 0.991137 -0.145251 -0.311754 0.938995 
-0.146132 -0.672178 0.725825 -0.17642 -0.504009 0.845488 -0.148337 -0.676231 0.7216 
-0.125432 -0.69518 0.707807 0.31029 -0.580455 0.752856 0.106581 -0.590623 0.799878 
0.351091 -0.550595 0.757351 0.517487 -0.437435 0.73543 -0.309626 -0.188218 0.932044 
-0.0641103 -0.0326051 0.99741 0.0245634 -0.0540048 0.998239 -0.0522048 -0.0977369 0.993842 
0.0493034 -0.0332149 0.998231 0.136989 -0.263475 0.95489 -0.184372 -0.127881 0.974502 
-0.195067 -0.236703 0.951799 -0.230975 -0.341565 0.911034 -0.194964 -0.362112 0.911517 
-0.0563601 -0.287925 0.955993 0.049372 -0.357357 0.932662 0.209311 -0.384367 0.899139 
0.563104 -0.386363 0.730504 0.495218 -0.36116 0.790141 -0.268155 -0.0555631 0.961772 
-0.00935318 -0.0651831 0.997829 -0.232926 -0.0355852 0.971843 -0.00257943 -0.00924266 0.999954 
-0.000867828 -0.0406263 0.999174 -0.0228868 0.0128185 0.999656 0.0525123 -0.0275408 0.99824 
0.0499618 -0.028714 0.998338 0.00778738 -0.212096 0.977218 0.0234073 -0.172341 0.984759 
-0.128529 -0.338363 0.932197 0.160322 -0.261239 0.951867 0.153239 -0.269058 0.950855 
0.0860143 -0.471094 0.877879 -0.314926 -0.105234 0.943264 -0.23751 -0.189894 0.952643 
-0.311135 -0.11593 0.943268 -0.306476 -0.150356 0.939928 -0.180703 -0.157553 0.970837 
-0.0747249 -0.128485 0.988892 0.222144 -0.0572906 0.973329 0.703124 -0.0945763 0.70475 
0.584854 -0.104192 0.804419 -0.302333 0.0357519 0.952532 -0.284139 0.030827 0.958287 
-0.00420804 -0.0390962 0.999227 -0.0131873 -0.0890963 0.995936 0.00867194 -0.138755 0.990289 
-0.0308448 -0.30447 0.952022 -0.129457 -0.479075 0.868175 -0.0250495 -0.166782 0.985676 
0.0668612 -0.523536 0.849376 -0.072928 -0.341247 0.93714 -0.223713 -0.205844 0.95267 
-0.258386 -0.130065 0.957246 -0.182282 -0.0496148 0.981994 0.292039 0.0300629 0.955934 
0.719607 0.133484 0.68143 0.590698 0.0835511 0.802555 -0.358272 0.0850684 0.929734 
-0.375819 0.122962 0.918499 -0.345353 0.0800089 0.935056 -0.0860614 -0.0301882 0.995832 
-0.117392 -0.109918 0.986984 -0.149016 -0.220556 0.963924 -0.216636 -0.235409 0.947445 
0.0547727 -0.116115 0.991724 0.0541146 -0.121758 0.991084 -0.0558994 -0.20076 0.978044 
0.00404114 -0.119124 0.992871 -0.148836 -0.182054 0.971959 -0.164712 -0.109121 0.980287 
-0.112747 -0.0173523 0.993472 0.320585 0.142126 0.936496 0.73779 0.290792 0.609184 
0.704239 0.360651 0.611537 0.674962 0.274068 0.685065 -0.299553 0.135543 0.944402 
-0.269088 0.107735 0.957071 -0.222825 0.0734126 0.97209 -0.197992 -0.0184134 0.980031 
-0.170562 -0.0987966 0.980381 -0.0526558 -0.0277851 0.998226 0.0287346 0.0293142 0.999157 
-0.0338352 -0.149165 0.988233 0.0449115 -0.0222048 0.998744 -0.0436813 -0.0475025 0.997916 
-0.200792 -0.0263192 0.97928 -0.101471 0.0302292 0.994379 -0.000765515 0.0998309 0.995004 
0.0913533 0.17074 0.981072 0.180294 0.309555 0.933633 0.620374 0.469205 0.628477 
0.545961 0.54726 0.634376 0.447829 0.390919 0.804134 -0.333526 0.144258 0.931639 
-0.274651 0.096785 0.956661 -0.180343 0.0881563 0.979645 -0.0802805 0.0773073 0.99377 
-0.0716096 -0.0155645 0.997311 -0.0242577 -0.0588307 0.997973 0.0546627 -0.0168963 0.998362 
0.00549722 -0.0420627 0.9991 -0.0691178 0.10874 0.991664 -0.0342797 0.223735 0.974047 
0.0381078 0.283322 0.958267 0.180814 0.371185 0.910784 0.516834 0.55667 0.650385 
0.385204 0.628334 0.67588 0.331397 0.451511 0.828441 -0.311635 0.32608 0.8925 
-0.298205 0.339881 0.891938 -0.28764 0.312361 0.905369 -0.255386 0.459592 0.850619 
-0.182593 0.265551 0.946648 -0.162153 0.206882 0.964835 -0.107322 0.133945 0.98516 
-0.0382924 0.168416 0.984972 0.0617275 0.175975 0.982457 0.0887205 0.199906 0.97579 
0.218454 0.649905 0.727943 0.08192 0.310302 0.947102 0.18768 0.652426 0.734246 
0.0810805 0.473628 0.876985 0.206742 0.693653 0.690002 0.172055 0.575256 0.799673 
0.263624 0.672937 0.691128 0.255858 0.673208 0.693778 0.25398 0.667241 0.700203 
-0.239032 0.499679 0.832577 -0.189748 0.535 0.823268 -0.187764 0.453593 0.871205 
-0.0890424 0.631093 0.770579 -0.0999019 0.457105 0.883785 0.0296413 0.658191 0.752267 
0.0152779 0.478206 0.878115 0.108502 0.667282 0.736859 0.0918987 0.535589 0.839464 
0.215741 0.652627 0.726315 0.150245 0.654439 0.741037 0.140497 0.583703 0.799719 
0.0674329 -0.211705 0.975004 0.0279331 -0.1763 0.98394 -0.0872161 -0.0903549 0.992083 
0.0883403 -0.177326 0.980179 0.0711033 -0.194535 0.978315 -0.126808 -0.0578083 0.990241 
-0.0938567 -0.0636575 0.993549 0.168654 0.00391992 0.985667 0.0997492 0.00189331 0.995011 
-0.088327 0.0103077 0.996038 0.0165219 0.110716 0.993715 -0.0283987 0.0748286 0.996792 
0.163125 0.159215 0.973674 0.145213 0.182174 0.972484 0.144703 0.163236 0.975918 

