# vtk DataFile Version 4.2
vtk output
ASCII
DATASET POLYDATA
POINTS 530 float
-21.0322 -42.4667 -15.63 -13.3574 -42.4667 -17.8071 -5.68271 -42.4667 -17.9965 
1.99203 -42.4667 -18.1044 9.66678 -42.4667 -17.1898 17.3415 -42.4667 -15.1193 
-36.3817 -34.792 -14.3589 -28.7069 -34.792 -18.2525 -21.0322 -34.792 -19.0916 
-13.3574 -34.792 -20.2743 -5.68271 -34.792 -19.8852 1.99203 -34.792 -19.9914 
9.66678 -34.792 -20.6025 17.3415 -34.792 -18.5615 25.0163 -34.792 -16.8375 
-36.3817 -27.1172 -18.622 -28.7069 -27.1172 -19.784 -21.0322 -27.1172 -19.9705 
-13.3574 -27.1172 -20.3563 -5.68271 -27.1172 -19.9244 1.99203 -27.1172 -19.996 
9.66678 -27.1172 -20.0185 17.3415 -27.1172 -19.6656 25.0163 -27.1172 -18.9575 
32.691 -27.1172 -16.8799 -44.0564 -19.4425 -16.1286 -36.3817 -19.4425 -18.9471 
-28.7069 -19.4425 -19.893 -21.0322 -19.4425 -20.2648 -13.3574 -19.4425 -19.327 
-5.68271 -19.4425 -18.7598 1.99203 -19.4425 -19.0108 9.66678 -19.4425 -19.3569 
17.3415 -19.4425 -19.4456 25.0163 -19.4425 -19.4101 32.691 -19.4425 -18.9785 
40.3657 -19.4425 -17.1193 -44.0564 -11.7678 -16.7534 -36.3817 -11.7678 -19.5141 
-28.7069 -11.7678 -19.8498 -21.0322 -11.7678 -19.0389 -13.3574 -11.7678 -17.872 
-5.68271 -11.7678 -17.6479 1.99203 -11.7678 -18.398 9.66678 -11.7678 -19.3511 
17.3415 -11.7678 -18.6415 25.0163 -11.7678 -19.1156 32.691 -11.7678 -19.3581 
40.3657 -11.7678 -18.2142 48.0405 -11.7678 -14.4048 -44.0564 -4.09301 -16.4794 
-36.3817 -4.09301 -19.1682 -28.7069 -4.09301 -19.3585 -21.0322 -4.09301 -18.2366 
-13.3574 -4.09301 -17.485 -5.68271 -4.09301 -18.8456 1.99203 -4.09301 -18.3217 
9.66678 -4.09301 -20.4573 17.3415 -4.09301 -18.0838 25.0163 -4.09301 -18.8084 
32.691 -4.09301 -19.2697 40.3657 -4.09301 -18.5992 48.0405 -4.09301 -14.9437 
-44.0564 3.58173 -15.5248 -36.3817 3.58173 -18.1492 -28.7069 3.58173 -18.4373 
-21.0322 3.58173 -17.4832 -13.3574 3.58173 -17.0585 -5.68271 3.58173 -19.0999 
1.99203 3.58173 -17.416 9.66678 3.58173 -19.8777 17.3415 3.58173 -17.8551 
25.0163 3.58173 -18.3431 32.691 3.58173 -18.7789 40.3657 3.58173 -17.5914 
48.0405 3.58173 -14.0382 -44.0564 11.2565 -14.8808 -36.3817 11.2565 -16.9787 
-28.7069 11.2565 -17.5714 -21.0322 11.2565 -16.7327 -13.3574 11.2565 -16.2797 
-5.68271 11.2565 -17.9079 1.99203 11.2565 -17.6215 9.66678 11.2565 -17.8744 
17.3415 11.2565 -17.6756 25.0163 11.2565 -18.0866 32.691 11.2565 -17.5949 
40.3657 11.2565 -15.6306 -36.3817 18.9312 -16.1275 -28.7069 18.9312 -17.0732 
-21.0322 18.9312 -17.0602 -13.3574 18.9312 -17.1818 -5.68271 18.9312 -17.8206 
1.99203 18.9312 -17.6557 9.66678 18.9312 -17.8667 17.3415 18.9312 -17.8114 
25.0163 18.9312 -17.2494 32.691 18.9312 -15.7514 -36.3817 26.606 -14.0672 
-28.7069 26.606 -16.1218 -21.0322 26.606 -16.7808 -13.3574 26.606 -17.4386 
-5.68271 26.606 -18.048 1.99203 26.606 -17.8556 9.66678 26.606 -17.5083 
17.3415 26.606 -17.4224 25.0163 26.606 -15.8911 32.691 26.606 -13.1363 
-21.0322 34.2807 -14.8516 -13.3574 34.2807 -16.068 -5.68271 34.2807 -16.5361 
1.99203 34.2807 -16.2786 9.66678 34.2807 -16.0313 17.3415 34.2807 -14.8697 
-21.0322 -44.8909 -13.0826 -13.3574 -46.8397 -13.0826 -5.68271 -48.4501 -13.0826 
-5.68271 -50.1415 -6.58404 1.99203 -48.6797 -13.0826 1.99203 -50.1415 -7.68535 
9.66678 -47.0989 -13.0826 17.3415 -44.254 -13.0826 -36.3817 -36.2298 -13.0826 
-26.9649 -42.4667 -13.0826 -28.7069 -41.4656 -13.0826 -28.7069 -42.4667 -10.5635 
20.3008 -42.4667 -13.0826 25.0163 -38.8273 -13.0826 -37.974 -34.792 -13.0826 
30.9007 -34.792 -13.0826 32.691 -33.3633 -13.0826 32.691 -34.792 -10.4171 
-43.778 -27.1172 -13.0826 -44.0564 -26.6685 -13.0826 -44.0564 -27.1172 -12.345 
40.2911 -27.1172 -13.0826 40.3657 -27.0367 -13.0826 40.3657 -27.1172 -12.9884 
-46.9695 -19.4425 -13.0826 46.1012 -19.4425 -13.0826 48.0405 -15.6155 -13.0826 
48.0405 -19.4425 -10.2565 -47.9665 -11.7678 -13.0826 49.447 -11.7678 -13.0826 
-47.7728 -4.09301 -13.0826 50.1324 -4.09301 -13.0826 -46.979 3.58173 -13.0826 
49.107 3.58173 -13.0826 48.0405 5.83394 -13.0826 -46.3843 11.2565 -13.0826 
-44.0564 18.1564 -13.0826 44.3955 11.2565 -13.0826 40.3657 17.38 -13.0826 
48.0405 11.2565 -9.53089 -43.548 18.9312 -13.0826 -44.0564 18.9312 -12.799 
39.0093 18.9312 -13.0826 40.3657 18.9312 -12.2298 -38.1217 26.606 -13.0826 
-44.0564 26.606 -7.58049 -36.3817 28.3559 -13.0826 -28.7069 33.7439 -13.0826 
25.0163 33.9093 -13.0826 32.7789 26.606 -13.0826 32.691 26.7012 -13.0826 
40.3657 26.606 -5.57065 -36.3817 34.2807 -7.68507 -27.804 34.2807 -13.0826 
-28.7069 34.2807 -12.7858 -21.0322 36.9785 -13.0826 -13.3574 39.9374 -13.0826 
-5.68271 41.2271 -13.0826 1.99203 41.3038 -13.0826 9.66678 39.7819 -13.0826 
24.4228 34.2807 -13.0826 17.3415 37.3134 -13.0826 25.0163 34.2807 -12.8794 
32.691 34.2807 -6.56436 -21.0322 41.9554 -8.49887 -13.3574 41.9554 -11.4728 
-5.68271 41.9554 -12.6063 1.99203 41.9554 -12.7056 9.66678 41.9554 -11.4749 
17.3415 41.9554 -9.1428 -5.68271 -50.3778 -5.40782 1.99203 -50.6134 -5.40782 
-28.7069 -43.828 -5.40782 -21.0322 -46.9405 -5.40782 -7.20781 -50.1415 -5.40782 
-13.3574 -49.0661 -5.40782 -5.68271 -50.1415 -4.84356 4.46779 -50.1415 -5.40782 
1.99203 -50.1415 -4.41575 9.66678 -49.0011 -5.40782 17.3415 -45.5572 -5.40782 
-31.1576 -42.4667 -5.40782 -36.3817 -39.0078 -5.40782 -28.7069 -42.4667 -0.983759 
23.3681 -42.4667 -5.40782 25.0163 -41.5686 -5.40782 32.691 -36.723 -5.40782 
-41.0611 -34.792 -5.40782 -44.0564 -30.3823 -5.40782 35.5631 -34.792 -5.40782 
32.691 -34.792 -0.0846483 40.3657 -31.1369 -5.40782 -45.9556 -27.1172 -5.40782 
-44.0564 -27.1172 0.548639 44.1897 -27.1172 -5.40782 48.0405 -22.5359 -5.40782 
-49.2361 -19.4425 -5.40782 50.1209 -19.4425 -5.40782 -51.2267 -11.7678 -5.40782 
53.0695 -11.7678 -5.40782 -51.493 -4.09301 -5.40782 54.3335 -4.09301 -5.40782 
-51.5799 3.58173 -5.40782 53.613 3.58173 -5.40782 -51.5256 11.2565 -5.40782 
-51.7312 11.2565 -1.31214 50.6904 11.2565 -5.40782 48.0405 16.2736 -5.40782 
-49.6484 18.9312 -5.40782 46.3877 18.9312 -5.40782 -45.682 26.606 -5.40782 
-44.0564 28.7546 -5.40782 40.4902 26.606 -5.40782 40.3657 26.7649 -5.40782 
-38.6226 34.2807 -5.40782 -36.3817 36.0017 -5.40782 -28.7069 40.9162 -5.40782 
25.0163 41.3609 -5.40782 33.7469 34.2807 -5.40782 32.691 35.3592 -5.40782 
-26.447 41.9554 -5.40782 -28.7069 41.9554 0.673375 -21.0322 44.2523 -5.40782 
-13.3574 46.8018 -5.40782 -5.68271 48.2625 -5.40782 1.99203 48.7429 -5.40782 
9.66678 47.3759 -5.40782 23.8543 41.9554 -5.40782 17.3415 45.0218 -5.40782 
25.0163 41.9554 -3.91346 -5.68271 49.6302 -1.0094 1.99203 49.6302 -2.72395 
9.66678 49.6302 1.67919 -21.0322 -44.3297 2.26692 -13.3574 -46.0347 2.26692 
-5.68271 -46.9101 2.26692 1.99203 -46.7592 2.26692 9.66678 -45.2837 2.26692 
17.3415 -42.5464 2.26692 -36.3817 -35.9922 2.26692 -26.0316 -42.4667 2.26692 
-28.7069 -41.3591 2.26692 -21.0322 -42.4667 5.43616 -13.3574 -42.4667 8.01143 
-5.68271 -42.4667 8.70538 1.99203 -42.4667 8.2634 9.66678 -42.4667 6.4581 
17.4778 -42.4667 2.26692 17.3415 -42.4667 2.37603 25.0163 -38.5878 2.26692 
-37.6329 -34.792 2.26692 -36.3817 -34.792 3.85247 31.336 -34.792 2.26692 
25.0163 -34.792 8.45704 32.691 -33.9597 2.26692 40.3657 -28.4575 2.26692 
-43.4921 -27.1172 2.26692 -44.0564 -26.0962 2.26692 41.944 -27.1172 2.26692 
40.3657 -27.1172 4.63663 48.0405 -20.4745 2.26692 -47.0599 -19.4425 2.26692 
-44.0564 -19.4425 7.52804 48.7696 -19.4425 2.26692 48.0405 -19.4425 3.90744 
-49.1185 -11.7678 2.26692 52.7508 -11.7678 2.26692 -50.433 -4.09301 2.26692 
54.7477 -4.09301 2.26692 -51.5297 3.58173 2.26692 -51.7312 7.85106 2.26692 
54.3137 3.58173 2.26692 -51.8955 11.2565 2.26692 -51.7312 11.9627 2.26692 
-51.7312 11.2565 2.76044 51.994 11.2565 2.26692 48.0405 18.7759 2.26692 
-50.1093 18.9312 2.26692 47.9503 18.9312 2.26692 -46.5736 26.606 2.26692 
-44.0564 29.8438 2.26692 -44.0564 26.606 7.92725 42.5839 26.606 2.26692 
40.3657 29.4306 2.26692 -39.8263 34.2807 2.26692 -36.3817 37.2056 2.26692 
-36.3817 34.2807 8.76996 36.3229 34.2807 2.26692 32.691 38.1367 2.26692 
-29.0836 41.9554 2.26692 -28.7069 42.1865 2.26692 -28.7069 41.9554 3.03651 
-21.0322 46.1909 2.26692 -13.3574 48.9459 2.26692 17.3415 47.7389 2.26692 
28.1476 41.9554 2.26692 25.0163 44.1406 2.26692 -9.95176 49.6302 2.26692 
-5.68271 50.4584 2.26692 -5.68271 49.6302 8.49917 1.99203 50.9507 2.26692 
10.2697 49.6302 2.26692 9.66678 49.7823 2.26692 9.66678 49.6302 3.52254 
-28.7069 -35.5144 9.94166 -21.0322 -39.1983 9.94166 -13.3574 -40.9658 9.94166 
-5.68271 -41.3901 9.94166 1.99203 -40.9325 9.94166 9.66678 -39.6715 9.94166 
17.3415 -37.1726 9.94166 -29.704 -34.792 9.94166 -36.3817 -28.53 9.94166 
-28.7069 -34.792 10.5999 -21.0322 -34.792 14.061 -13.3574 -34.792 15.7301 
-5.68271 -34.792 16.1282 1.99203 -34.792 15.7613 9.66678 -34.792 14.9134 
22.76 -34.792 9.94166 17.3415 -34.792 12.6355 25.0163 -33.757 9.94166 
32.691 -29.4138 9.94166 -37.5048 -27.1172 9.94166 -36.3817 -27.1172 10.9156 
-28.7069 -27.1172 15.3668 25.0163 -27.1172 16.4583 36.0587 -27.1172 9.94166 
32.691 -27.1172 12.5823 40.3657 -23.8342 9.94166 -42.0444 -19.4425 9.94166 
-44.0564 -15.2445 9.94166 -36.3817 -19.4425 14.4573 44.7838 -19.4425 9.94166 
40.3657 -19.4425 14.4159 48.0405 -15.3036 9.94166 -45.3147 -11.7678 9.94166 
-44.0564 -11.7678 11.4483 -36.3817 -11.7678 16.9885 50.1535 -11.7678 9.94166 
48.0405 -11.7678 12.9149 -47.331 -4.09301 9.94166 -44.0564 -4.09301 13.9037 
52.7157 -4.09301 9.94166 48.0405 -4.09301 16.2374 -48.6845 3.58173 9.94166 
-44.0564 3.58173 14.9899 52.4727 3.58173 9.94166 48.0405 3.58173 15.9249 
-48.7099 11.2565 9.94166 -44.0564 11.2565 14.3562 50.1508 11.2565 9.94166 
48.0405 15.3932 9.94166 48.0405 11.2565 12.7195 -46.5502 18.9312 9.94166 
-44.0564 24.3715 9.94166 -44.0564 18.9312 12.4181 -36.3817 18.9312 16.9064 
45.7979 18.9312 9.94166 40.3657 18.9312 14.9588 -42.6196 26.606 9.94166 
-36.3817 33.397 9.94166 -36.3817 26.606 13.9348 -28.7069 26.606 16.9502 
32.691 26.606 15.9546 40.4461 26.606 9.94166 40.3657 26.7078 9.94166 
40.3657 26.606 10.0408 -35.4564 34.2807 9.94166 -28.7069 39.1624 9.94166 
[...]
POINT_DATA 530
SCALARS ImageScalars float
LOOKUP_TABLE default
0 0 0 0 0 0 0 0 0 
0 0 0 0 0 0 0 0 0 
0 0 0 0 0 0 0 0 0 
0 0 0 0 0 0 0 0 0 
0 0 0 0 0 0 0 0 0 
0 0 0 0 0 0 0 0 0 
0 0 0 0 0 0 0 0 0 
0 0 0 0 0 0 0 0 0 
0 0 0 0 0 0 0 0 0 
0 0 0 0 0 0 0 0 0 
0 0 0 0 0 0 0 0 0 
0 0 0 0 0 0 0 0 0 
0 0 0 0 0 0 0 0 0 
0 0 0 0 0 0 0 0 0 
0 0 0 0 0 0 0 0 0 
0 0 0 0 0 0 0 0 0 
0 0 0 0 0 0 0 0 0 
0 0 0 0 0 0 0 0 0 
0 0 0 0 0 0 0 0 0 
0 0 0 0 0 0 0 0 0 
0 0 0 0 0 0 0 0 0 
0 0 0 0 0 0 0 0 0 
0 0 0 0 0 0 0 0 0 
0 0 0 0 0 0 0 0 0 
0 0 0 0 0 0 0 0 0 
0 0 0 0 0 0 0 0 0 
0 0 0 0 0 0 0 0 0 
0 0 0 0 0 0 0 0 0 
0 0 0 0 0 0 0 0 0 
0 0 0 0 0 0 0 0 0 
0 0 0 0 0 0 0 0 0 
0 0 0 0 0 0 0 0 0 
0 0 0 0 0 0 0 0 0 
0 0 0 0 0 0 0 0 0 
0 0 0 0 0 0 0 0 0 
0 0 0 0 0 0 0 0 0 
0 0 0 0 0 0 0 0 0 
0 0 0 0 0 0 0 0 0 
0 0 0 0 0 0 0 0 0 
0 0 0 0 0 0 0 0 0 
0 0 0 0 0 0 0 0 0 
0 0 0 0 0 0 0 0 0 
0 0 0 0 0 0 0 0 0 
0 0 0 0 0 0 0 0 0 
0 0 0 0 0 0 0 0 0 
0 0 0 0 0 0 0 0 0 
0 0 0 0 0 0 0 0 0 
0 0 0 0 0 0 0 0 0 
0 0 0 0 0 0 0 0 0 
0 0 0 0 0 0 0 0 0 
0 0 0 0 0 0 0 0 0 
0 0 0 0 0 0 0 0 0 
0 0 0 0 0 0 0 0 0 
0 0 0 0 0 0 0 0 0 
0 0 0 0 0 0 0 0 0 
0 0 0 0 0 0 0 0 0 
0 0 0 0 0 0 0 0 0 
0 0 0 0 0 0 0 0 0 
0 0 0 0 0 0 0 0 
NORMALS Normals float
0.302625 0.657921 0.689608 0.13448 0.557157 0.819445 0.0169902 0.454494 0.890588 
-0.0502651 0.44597 0.893635 -0.167719 0.564802 0.808003 -0.404806 0.675908 0.615857 
0.528556 0.580395 0.619491 0.265394 0.402482 0.876113 0.120047 0.248767 0.961095 
0.0495604 0.129944 0.990282 -0.0167275 0.117108 0.992978 0.0429224 0.116454 0.992268 
-0.0806094 0.154944 0.984629 -0.221369 0.262542 0.939184 -0.372295 0.494404 0.785469 
0.365123 0.248527 0.897173 0.0731794 0.0873044 0.99349 0.0364002 0.0707039 0.996833 
-0.00298486 -0.0619001 0.998078 -0.0233754 -0.0727218 0.997078 0.00610964 -0.0635013 0.997963 
-0.0221619 -0.0808019 0.996484 -0.0663181 0.0520473 0.99644 -0.181919 0.13479 0.974031 
-0.33311 0.375341 0.864961 0.622522 0.21398 0.752781 0.225322 0.0535025 0.972814 
0.0799442 0.00384564 0.996792 -0.0381351 -0.0627934 0.997298 -0.092029 -0.156205 0.983428 
-0.0204451 -0.1476 0.988836 0.0388987 -0.104129 0.993803 0.0281846 -0.0434134 0.99866 
0.00346683 -0.0663046 0.997793 -0.0285936 0.00805666 0.999559 -0.131298 0.160714 0.978229 
-0.399207 0.291215 0.869383 0.561428 0.0214051 0.827249 0.169376 0.0139705 0.985452 
-0.0319544 -0.0347336 0.998886 -0.124944 -0.121353 0.984714 -0.0914719 -0.120328 0.988511 
0.0345728 0.00149179 0.999401 0.111129 -0.0450794 0.992783 0.0157768 0.0649977 0.997761 
-0.0132854 -0.0883875 0.995998 0.0501258 -0.0405226 0.997921 -0.0572657 0.0164241 0.998224 
-0.285114 0.0809119 0.955072 -0.65466 0.172661 0.73594 0.536344 -0.0704819 0.841051 
0.160262 -0.088371 0.983111 -0.0559426 -0.0915921 0.994224 -0.12344 -0.102302 0.987065 
0.0394668 -0.0514677 0.997895 0.0604695 0.0989003 0.993258 0.104029 -0.0648832 0.992456 
-0.0409718 0.0367233 0.998485 -0.0902679 -0.0512011 0.9946 0.0769679 -0.0501263 0.995773 
-0.0131436 -0.0395808 0.99913 -0.244986 -0.0383317 0.968769 -0.624234 -0.0220785 0.780925 
0.518915 -0.0981559 0.849171 0.163347 -0.138156 0.976847 -0.0419504 -0.115578 0.992412 
-0.0896557 -0.0969846 0.99124 0.102013 -0.0834164 0.99128 0.0271678 -0.0680862 0.997309 
0.0522968 -0.0398209 0.997837 0.0105383 -0.171136 0.985191 -0.0900088 -0.026772 0.995581 
0.0612177 -0.0466752 0.997033 -0.0456992 -0.102136 0.99372 -0.277176 -0.173321 0.945057 
-0.612375 -0.231787 0.755825 0.484587 -0.16123 0.859756 0.167868 -0.122435 0.978177 
-0.0171451 -0.0876393 0.996005 -0.0852103 -0.0262917 0.996016 0.0774096 0.0125293 0.996921 
0.0888664 -0.0780739 0.992979 -0.00213753 0.0141219 0.999898 0.0035728 -0.12109 0.992635 
0.0135157 -0.00249746 0.999906 -0.00327842 -0.0733508 0.997301 -0.143551 -0.19979 0.969266 
-0.383721 -0.307849 0.870625 0.256169 -0.18666 0.948438 0.0543674 -0.0884074 0.9946 
0.00708652 0.00376487 0.999968 0.0499561 0.0758246 0.995869 0.030774 0.0089583 0.999486 
0.00300031 0.0150185 0.999883 0.0100079 -0.0235026 0.999674 -0.0403435 -0.0147023 0.999078 
-0.129431 -0.138482 0.981871 -0.282987 -0.262348 0.922547 0.369472 -0.370498 0.852186 
0.176196 -0.26084 0.949167 0.0818966 -0.127571 0.988442 0.0801104 -0.0713068 0.994232 
0.0272785 -0.0781142 0.996571 -0.0351096 -0.085125 0.995752 -0.0276926 -0.119427 0.992457 
-0.103496 -0.182201 0.977799 -0.250686 -0.259155 0.932735 -0.44569 -0.411669 0.794915 
0.204283 -0.409162 0.8893 0.0961011 -0.321632 0.941975 0.0146554 -0.319138 0.947595 
-0.0321784 -0.305195 0.951746 -0.0858706 -0.333525 0.938822 -0.185143 -0.415255 0.890665 
0.302587 0.801794 0.515332 0.208526 0.829194 0.518609 0.102745 0.85031 0.516156 
0.0998278 0.994604 -0.0282529 -0.0760297 0.854347 0.514111 -0.0849347 0.99565 0.0382958 
-0.254985 0.819152 0.513782 -0.426003 0.774894 0.466969 0.549478 0.637016 0.540633 
0.407767 0.746272 0.526122 0.429283 0.725049 0.538536 0.450608 0.823105 0.345618 
-0.487189 0.728382 0.481774 -0.509647 0.671781 0.537559 0.58871 0.599547 0.542184 
-0.491159 0.667897 0.559175 -0.484323 0.64569 0.590352 -0.533346 0.760953 0.369448 
0.727259 0.44425 0.523198 0.733596 0.43481 0.52228 0.757336 0.455383 0.468047 
-0.555915 0.556023 0.617897 -0.556623 0.555178 0.61802 -0.560267 0.560129 0.61021 
0.80553 0.228295 0.546812 -0.645911 0.384822 0.659326 -0.696597 0.281968 0.659732 
-0.784741 0.446708 0.42969 0.783688 0.0534338 0.618851 -0.722106 0.181055 0.667669 
0.751244 -0.0498053 0.658143 -0.706793 -0.0169178 0.707219 0.690371 -0.0729655 0.719767 
-0.659035 -0.235765 0.714204 -0.63639 -0.278253 0.719433 0.62067 -0.143758 0.77078 
0.510202 -0.309502 0.802435 -0.540302 -0.358868 0.761109 -0.478218 -0.401077 0.78131 
-0.735859 -0.405112 0.542583 0.494102 -0.318111 0.809116 0.520511 -0.328928 0.787956 
-0.462721 -0.393418 0.794425 -0.518426 -0.434065 0.736765 0.432568 -0.396516 0.809728 
0.721275 -0.525122 0.451674 0.39503 -0.433706 0.809846 0.30427 -0.496971 0.812674 
-0.35308 -0.488438 0.797974 -0.448267 -0.413306 0.792612 -0.447451 -0.413887 0.792771 
-0.721056 -0.571296 0.392046 0.520197 -0.714294 0.468166 0.301435 -0.502397 0.810392 
0.318137 -0.519876 0.792791 0.237476 -0.512628 0.825117 0.151096 -0.554272 0.818506 
0.0477825 -0.560206 0.826974 -0.0513416 -0.549838 0.833692 -0.132829 -0.53574 0.83387 
-0.34521 -0.4934 0.798365 -0.217736 -0.509274 0.832605 -0.36124 -0.502868 0.785258 
-0.617135 -0.631129 0.469916 0.307589 -0.764084 0.567066 0.17664 -0.664284 0.726309 
0.0553191 -0.594432 0.802241 -0.0541128 -0.578163 0.814125 -0.160984 -0.636119 0.75461 
-0.285793 -0.71118 0.642297 0.0964709 0.98897 -0.11239 -0.0836009 0.987012 -0.137177 
0.429964 0.902724 -0.0148586 0.320916 0.94612 -0.0432335 0.118223 0.987152 -0.107492 
0.205838 0.976 -0.0711006 0.0931247 0.985504 -0.141808 -0.151727 0.978601 -0.138991 
-0.0859024 0.977534 -0.192479 -0.290737 0.948773 -0.123701 -0.417877 0.905491 -0.0739239 
0.476927 0.878713 -0.0201226 0.609234 0.792844 -0.0152727 0.437093 0.865386 -0.245065 
-0.488723 0.869926 -0.0661692 -0.507623 0.860344 -0.0461152 -0.547591 0.836746 -0.000349232 
0.746968 0.664227 -0.0290131 0.846458 0.531706 -0.0282352 -0.573465 0.819211 0.00569664 
-0.518895 0.816472 -0.253222 -0.65352 0.756232 0.0319956 0.887688 0.459722 -0.0257962 
0.826123 0.474343 -0.30417 -0.737731 0.67302 0.0528911 -0.826332 0.557383 0.0806202 
0.95822 0.286016 -0.00296645 -0.868131 0.486378 0.0989175 0.987956 0.151405 0.0319281 
-0.955493 0.247069 0.161213 0.993642 0.0201919 0.110759 -0.97098 0.0394089 0.235891 
0.978066 0.00229751 0.208283 -0.936742 -0.214357 0.276704 0.953072 -0.116851 0.279285 
0.993212 -0.104567 0.0509494 -0.849754 -0.403749 0.338975 -0.803423 -0.487842 0.341353 
0.905074 -0.321411 0.278454 -0.772396 -0.526343 0.355483 0.778818 -0.530667 0.334417 
0.735989 -0.590574 0.330971 -0.723837 -0.572709 0.384791 -0.722919 -0.573798 0.384895 
0.587791 -0.734243 0.33969 0.543974 -0.762156 0.351013 0.43905 -0.819447 0.368431 
-0.450294 -0.764555 0.461185 -0.643105 -0.643165 0.415638 -0.626717 -0.657057 0.418929 
0.404881 -0.832221 0.378788 0.496234 -0.868014 0.0174002 0.335073 -0.845765 0.41522 
0.220712 -0.872481 0.435962 0.106336 -0.887409 0.448552 -0.0470851 -0.878359 0.475676 
-0.197227 -0.857538 0.47511 -0.427072 -0.775055 0.465725 -0.309203 -0.82068 0.480498 
-0.469522 -0.796325 0.381334 0.120991 -0.969994 0.210886 -0.0461997 -0.94543 0.322533 
-0.199196 -0.975425 0.094168 0.259333 0.875786 -0.407118 0.152727 0.882992 -0.443846 
0.0433484 0.872497 -0.486692 -0.0944453 0.852485 -0.51415 -0.218366 0.84157 -0.494041 
-0.392444 0.801157 -0.451813 0.615285 0.670678 -0.414265 0.372478 0.835365 -0.404259 
0.432221 0.802249 -0.411804 0.260568 0.83227 -0.489316 0.1164 0.805027 -0.581707 
0.00646968 0.773296 -0.634012 -0.0875074 0.770446 -0.631471 -0.216127 0.795153 -0.566587 
-0.394874 0.800317 -0.451184 -0.392148 0.800157 -0.453837 -0.45591 0.794183 -0.401771 
0.643034 0.640851 -0.419305 0.615321 0.639637 -0.4607 -0.488979 0.793357 -0.362609 
-0.389155 0.754556 -0.528398 -0.500549 0.788298 -0.357822 -0.589393 0.739851 -0.324401 
0.793414 0.470553 -0.386101 0.807487 0.449962 -0.381443 -0.627196 0.715198 -0.308409 
-0.582459 0.722044 -0.373355 -0.794212 0.548306 -0.261893 0.867463 0.322177 -0.379091 
0.763307 0.348192 -0.544173 -0.807131 0.532734 -0.254428 -0.782453 0.543298 -0.304293 
0.921032 0.208294 -0.329111 -0.926523 0.336795 -0.167703 0.959651 0.149151 -0.238379 
-0.990903 0.0952436 -0.0950754 0.983349 0.0917235 -0.156881 0.98889 -0.00881724 -0.148385 
-0.983613 -0.167385 -0.0669854 0.98588 -0.0905678 -0.140845 0.983834 -0.110521 -0.140911 
0.982194 -0.0914444 -0.16411 -0.926439 -0.375144 -0.0312597 -0.856101 -0.516261 -0.0237797 
0.939842 -0.308303 -0.147127 -0.854424 -0.519029 -0.0238519 0.832991 -0.536606 -0.134831 
0.764201 -0.631254 -0.132344 0.726185 -0.513898 -0.456689 -0.795627 -0.605755 -0.00623446 
-0.779679 -0.62614 -0.0070231 0.663617 -0.738001 -0.12234 0.601534 -0.792596 -0.0997409 
0.583802 -0.648284 -0.488776 -0.742361 -0.669991 -0.00344135 -0.690411 -0.72307 0.0224335 
0.505377 -0.860169 -0.0685796 0.502 -0.862311 -0.0664536 0.507152 -0.855308 -0.106043 
0.409625 -0.912188 -0.011013 0.258393 -0.965366 0.0360802 -0.327994 -0.942176 0.068734 
-0.586804 -0.807831 0.0554081 -0.51639 -0.854413 0.0576151 0.197933 -0.979115 0.0464326 
0.125983 -0.990271 0.0590951 0.139836 -0.951818 -0.272925 -0.0430072 -0.996851 0.0666187 
-0.207166 -0.975996 0.0671799 -0.198099 -0.977873 0.067236 -0.201131 -0.979562 0.00205047 
0.418086 0.607945 -0.674986 0.251921 0.715518 -0.65159 0.103297 0.756968 -0.645235 
-0.00154206 0.742887 -0.669415 -0.0819543 0.734412 -0.673738 -0.180944 0.744133 -0.64306 
-0.291782 0.742107 -0.603441 0.438196 0.593919 -0.674718 0.568108 0.473708 -0.672944 
0.417807 0.589067 -0.691692 0.25774 0.566807 -0.782496 0.107079 0.549488 -0.828612 
0.00184959 0.559164 -0.829055 -0.0600758 0.580726 -0.811879 -0.142511 0.640381 -0.75472 
-0.350026 0.738739 -0.575974 -0.270347 0.701052 -0.659877 -0.372551 0.732217 -0.570144 
-0.448235 0.708199 -0.545472 0.588064 0.449178 -0.672622 0.561477 0.442979 -0.698938 
0.368208 0.380993 -0.848096 -0.291867 0.556683 -0.777765 -0.491018 0.689316 -0.532677 
-0.42528 0.659491 -0.619845 -0.553718 0.646967 -0.524243 0.680973 0.353716 -0.641218 
0.739594 0.307031 -0.598943 0.490956 0.322263 -0.809388 -0.64154 0.576572 -0.505956 
-0.503781 0.547344 -0.668296 -0.73887 0.483333 -0.469532 0.773613 0.265966 -0.57514 
0.727929 0.268232 -0.631008 0.402959 0.230683 -0.885669 -0.803113 0.389924 -0.450521 
-0.725225 0.393781 -0.564788 0.829673 0.18809 -0.525609 0.694987 0.173554 -0.697762 
-0.895022 0.13422 -0.425348 -0.671352 0.125146 -0.730496 0.84374 0.0805694 -0.530671 
0.626966 0.0182058 -0.778834 -0.897037 -0.149496 -0.415903 -0.669879 -0.158987 -0.725249 
0.807826 -0.11107 -0.578861 0.586362 -0.135716 -0.798599 -0.829125 -0.359893 -0.427819 
-0.786056 -0.448091 -0.42583 -0.73778 -0.361757 -0.569923 0.732673 -0.300514 -0.61064 
0.678915 -0.427547 -0.59689 0.628246 -0.281018 -0.72549 0.324871 -0.219987 -0.919818 
-0.735714 -0.505802 -0.450432 -0.509012 -0.408701 -0.757542 0.648695 -0.469762 -0.598764 
0.56041 -0.596714 -0.574345 0.435884 -0.38686 -0.812616 0.291051 -0.243267 -0.925262 
-0.414197 -0.335574 -0.846068 -0.711361 -0.559735 -0.425044 -0.710811 -0.560399 -0.425089 
-0.709023 -0.558439 -0.43062 0.5554 -0.61233 -0.562657 0.501225 -0.685326 -0.528301 
0.4279 -0.487204 -0.761271 0.291559 -0.328024 -0.898551 -0.361422 -0.36517 -0.857919 
-0.689202 -0.568197 -0.449614 -0.680135 -0.586652 -0.439609 -0.66752 -0.540843 -0.511767 
0.474695 -0.740216 -0.476177 0.427757 -0.777471 -0.461045 0.413452 -0.690269 -0.59379 
0.300993 -0.86232 -0.407195 0.239819 -0.539472 -0.807129 0.139894 -0.923413 -0.357405 
0.0921983 -0.405186 -0.909573 -0.198257 -0.904617 -0.377308 -0.135531 -0.496585 -0.857342 
-0.340606 -0.848788 -0.404408 -0.303753 -0.631446 -0.713449 -0.508565 -0.75871 -0.407088 
-0.480501 -0.775914 -0.408751 -0.472326 -0.751556 -0.460512 0.0752539 -0.92997 -0.359851 
-0.0893644 -0.925673 -0.367618 -0.0402443 -0.927545 -0.371539 -0.0408857 -0.912849 -0.406246 
0.207922 0.303911 -0.929735 0.112372 0.37547 -0.919997 0.0184629 0.439235 -0.898183 
-0.0319647 0.464459 -0.885018 -0.0958961 0.511506 -0.853912 -0.203337 0.512093 -0.834515 
0.22142 0.293713 -0.929896 0.278509 0.237149 -0.930695 0.203756 0.283407 -0.937104 
0.114087 0.242622 -0.963389 0.0448252 0.248914 -0.967488 0.010832 0.321412 -0.946878 
-0.0575735 0.391194 -0.918506 -0.24019 0.506125 -0.82834 -0.186454 0.458137 -0.869106 
-0.262307 0.490605 -0.830964 -0.329894 0.469571 -0.818947 0.284629 0.227685 -0.931207 
0.267451 0.21962 -0.93821 0.14166 0.128642 -0.981521 0.0763941 0.0610292 -0.995208 
0.0868274 0.0646009 -0.994127 0.0949141 0.111883 -0.989178 0.0128007 0.171403 -0.985118 
-0.0955374 0.206751 -0.973718 -0.180688 0.316222 -0.931319 -0.353716 0.460085 -0.814375 
-0.316065 0.435552 -0.842851 -0.429796 0.39922 -0.809876 0.33756 0.206133 -0.918457 
0.373895 0.181943 -0.90945 0.168469 0.150616 -0.974132 0.0466897 0.0366095 -0.998238 
0.0499651 0.0492679 -0.997535 0.101365 0.0107111 -0.994792 0.124525 -0.109567 -0.986148 
0.0382352 -0.0297001 -0.998827 -0.0370905 -0.0142129 -0.999211 -0.0715052 0.0706981 -0.994932 
-0.177093 0.216872 -0.960002 -0.484468 0.337707 -0.806998 -0.394359 0.316345 -0.86279 
0.41062 0.122571 -0.903531 0.335409 0.109317 -0.935709 0.0764873 0.0450718 -0.996051 
0.0364265 -0.0351322 -0.998719 0.0531118 0.0213311 -0.998361 -0.0824264 0.0266761 -0.99624 
0.0614307 -0.140105 -0.988229 0.10872 -0.101791 -0.988847 0.00815388 -0.151706 -0.988392 
0.0558139 -0.0752101 -0.995604 -0.0668759 0.0150611 -0.997648 -0.566097 0.107181 -0.817341 
-0.326364 0.0643894 -0.943049 0.389113 -0.0321746 -0.920628 0.279173 -0.0528425 -0.958786 
0.023977 -0.0828521 -0.996273 0.0158497 -0.0678361 -0.997571 0.11771 -0.0831852 -0.989558 
-0.043574 -0.00762826 -0.999021 -0.00201721 0.083723 -0.996487 0.0107562 -0.0400569 -0.999139 
-0.0115504 -0.11086 -0.993769 0.0886149 -0.135355 -0.986826 -0.0383441 -0.152682 -0.987531 
-0.514701 -0.158257 -0.842638 -0.28287 -0.154965 -0.946557 0.268612 -0.111003 -0.956831 
0.268127 -0.132016 -0.954295 0.252919 -0.110834 -0.961118 0.0675895 -0.0891018 -0.993727 
0.0412533 0.00396852 -0.999141 0.109506 -0.0222359 -0.993737 0.0707191 -0.0707173 -0.994986 
0.0234485 0.00654814 -0.999704 -0.0686604 -0.0209447 -0.99742 -0.0883231 0.0207416 -0.995876 
0.0259516 -0.0992261 -0.994726 -0.0864056 -0.201226 -0.975727 -0.394471 -0.285071 -0.873572 
-0.377694 -0.29193 -0.878706 -0.360279 -0.275872 -0.891119 0.25401 -0.180851 -0.950143 
0.233607 -0.194215 -0.952737 0.157506 -0.127193 -0.979292 0.0835415 0.00286491 -0.9965 
0.0362119 0.0521236 -0.997984 -0.00743915 -0.0379472 -0.999252 0.0467514 -0.0548501 -0.9974 
0.0266907 -0.0465345 -0.99856 -0.0910767 0.0384617 -0.995101 -0.144825 -0.0491033 -0.988238 
-0.251151 -0.258233 -0.932866 -0.252095 -0.254996 -0.933502 -0.231112 -0.247921 -0.940809 
0.2616 -0.198085 -0.944631 0.280669 -0.299163 -0.91199 0.211383 -0.113377 -0.970805 
0.069227 -0.0283366 -0.997198 -0.037336 -0.0353624 -0.998677 0.0160549 -0.0346161 -0.999272 
0.0258986 -0.05505 -0.998148 -0.0873165 -0.0742291 -0.993411 -0.313348 -0.206218 -0.926977 
-0.333051 -0.306901 -0.891565 -0.262166 -0.128505 -0.956428 0.274025 -0.319144 -0.907225 
0.177226 -0.391407 -0.90299 0.119529 -0.2738 -0.95433 0.0807902 -0.367845 -0.926371 
-0.00817049 -0.16902 -0.985579 0.0327258 -0.137425 -0.989971 -0.11128 -0.422498 -0.899506 
-0.0139754 -0.198582 -0.979985 -0.314838 -0.343805 -0.884689 -0.213671 -0.387736 -0.896664 
-0.17112 -0.282735 -0.943811 0.00673786 -0.382712 -0.923843 -0.036708 -0.39032 -0.919947 
-0.0235468 -0.384949 -0.922638 -0.0230192 -0.377271 -0.925817 
