# vtk DataFile Version 4.2
vtk output
ASCII
DATASET POLYDATA
POINTS 544 float
-42.8769 -24.8787 -13.6847 -35.1324 -24.8787 -15.4201 -27.388 -24.8787 -15.1988 
-19.6435 -24.8787 -15.0914 -11.8991 -24.8787 -15.2319 -4.15462 -24.8787 -15.3675 
3.58982 -24.8787 -15.1854 11.3343 -24.8787 -14.5033 -50.6213 -17.1343 -15.089 
-42.8769 -17.1343 -17.3346 -35.1324 -17.1343 -17.5856 -27.388 -17.1343 -17.6207 
-19.6435 -17.1343 -17.212 -11.8991 -17.1343 -17.1863 -4.15462 -17.1343 -17.5163 
3.58982 -17.1343 -16.5424 11.3343 -17.1343 -16.5366 19.0787 -17.1343 -17.0823 
26.8232 -17.1343 -17.7977 34.5676 -17.1343 -18.1709 42.3121 -17.1343 -17.4979 
50.0565 -17.1343 -16.2264 -50.6213 -9.3898 -17.2185 -42.8769 -9.3898 -19.1135 
-35.1324 -9.3898 -19.721 -27.388 -9.3898 -18.9266 -19.6435 -9.3898 -17.8299 
-11.8991 -9.3898 -17.7116 -4.15462 -9.3898 -17.9212 3.58982 -9.3898 -16.8663 
11.3343 -9.3898 -18.4595 19.0787 -9.3898 -18.1364 26.8232 -9.3898 -19.0398 
34.5676 -9.3898 -18.8965 42.3121 -9.3898 -18.4267 50.0565 -9.3898 -16.9717 
57.801 -9.3898 -14.5028 -58.3658 -1.64536 -14.8583 -50.6213 -1.64536 -18.2016 
-42.8769 -1.64536 -19.6919 -35.1324 -1.64536 -19.9011 -27.388 -1.64536 -19.0378 
-19.6435 -1.64536 -17.8907 -11.8991 -1.64536 -19.1723 -4.15462 -1.64536 -19.0674 
3.58982 -1.64536 -17.8513 11.3343 -1.64536 -20.2709 19.0787 -1.64536 -17.026 
26.8232 -1.64536 -17.4254 34.5676 -1.64536 -17.9502 42.3121 -1.64536 -17.9539 
50.0565 -1.64536 -16.2227 -58.3658 6.09909 -13.8317 -50.6213 6.09909 -17.7902 
-42.8769 6.09909 -19.5153 -35.1324 6.09909 -20.0326 -27.388 6.09909 -19.3133 
-19.6435 6.09909 -18.1883 -11.8991 6.09909 -19.1573 -4.15462 6.09909 -21.1627 
3.58982 6.09909 -18.5808 11.3343 6.09909 -18.846 19.0787 6.09909 -17.1616 
26.8232 6.09909 -16.8477 34.5676 6.09909 -16.8613 42.3121 6.09909 -16.4997 
50.0565 6.09909 -15.2287 -50.6213 13.8435 -16.9335 -42.8769 13.8435 -18.9213 
-35.1324 13.8435 -20.2474 -27.388 13.8435 -19.9543 -19.6435 13.8435 -18.9829 
-11.8991 13.8435 -17.8433 -4.15462 13.8435 -18.7929 3.58982 13.8435 -18.2375 
11.3343 13.8435 -18.2244 19.0787 13.8435 -18.0949 26.8232 13.8435 -16.7604 
34.5676 13.8435 -15.9793 42.3121 13.8435 -14.8149 -50.6213 21.588 -13.6936 
-42.8769 21.588 -17.4688 -35.1324 21.588 -18.9928 -27.388 21.588 -19.5232 
-19.6435 21.588 -19.0089 -11.8991 21.588 -17.7593 -4.15462 21.588 -17.7684 
3.58982 21.588 -18.2586 11.3343 21.588 -17.49 19.0787 21.588 -16.2708 
26.8232 21.588 -14.2631 -35.1324 29.3324 -16.645 -27.388 29.3324 -17.9888 
-19.6435 29.3324 -18.0931 -11.8991 29.3324 -17.343 -4.15462 29.3324 -17.3117 
3.58982 29.3324 -17.3166 11.3343 29.3324 -15.2917 -19.6435 37.0769 -13.9108 
-11.8991 37.0769 -14.3596 -4.15462 37.0769 -14.5003 3.58982 37.0769 -13.5728 
-42.8769 -25.1054 -13.5531 -42.8769 -32.6231 -7.39582 -35.1324 -27.566 -13.5531 
-35.1324 -32.6231 -9.04372 -27.388 -27.9144 -13.5531 -27.388 -32.6231 -10.2782 
-19.6435 -27.694 -13.5531 -19.6435 -32.6231 -10.2146 -11.8991 -27.6524 -13.5531 
-11.8991 -32.6231 -9.15023 -4.15462 -27.5339 -13.5531 -4.15462 -32.6231 -7.98172 
3.58982 -27.4533 -13.5531 3.58982 -32.6231 -7.96221 11.3343 -26.3104 -13.5531 
11.3343 -32.6231 -6.19645 -43.3711 -24.8787 -13.5531 -50.6213 -20.6141 -13.5531 
-50.6213 -24.8787 -10.3267 16.4112 -24.8787 -13.5531 19.0787 -23.9192 -13.5531 
19.0787 -24.8787 -12.813 26.8232 -23.4179 -13.5531 26.8232 -24.8787 -11.7374 
34.5676 -24.2415 -13.5531 34.5676 -24.8787 -12.7981 42.3121 -22.417 -13.5531 
42.3121 -24.8787 -10.2781 50.0565 -20.4967 -13.5531 50.0565 -24.8787 -8.29803 
-54.6634 -17.1343 -13.5531 -58.3658 -17.1343 -10.5546 54.0958 -17.1343 -13.5531 
57.801 -11.6883 -13.5531 57.801 -17.1343 -11.3389 -57.9822 -9.3898 -13.5531 
-58.3658 -8.19095 -13.5531 -58.3658 -9.3898 -13.3155 59.506 -9.3898 -13.5531 
57.801 -1.73912 -13.5531 65.5454 -9.3898 -9.54869 -60.0935 -1.64536 -13.5531 
-66.1102 -1.64536 -6.89838 57.7737 -1.64536 -13.5531 57.801 -1.64536 -13.5436 
65.5454 -1.64536 -8.13077 -58.7044 6.09909 -13.5531 -58.3658 7.0024 -13.5531 
55.4289 6.09909 -13.5531 50.0565 10.21 -13.5531 57.801 6.09909 -12.591 
65.5454 6.09909 -6.32743 -55.9639 13.8435 -13.5531 -58.3658 13.8435 -10.9525 
34.5676 19.079 -13.5531 45.9827 13.8435 -13.5531 42.3121 16.2314 -13.5531 
50.0565 13.8435 -11.882 57.801 13.8435 -7.93891 -50.8381 21.588 -13.5531 
-50.6213 21.8092 -13.5531 -42.8769 28.9028 -13.5531 19.0787 25.5077 -13.5531 
29.4302 21.588 -13.5531 26.8232 22.3335 -13.5531 34.5676 21.588 -11.7047 
42.3121 21.588 -9.5216 -42.3193 29.3324 -13.5531 -42.8769 29.3324 -13.082 
-35.1324 33.3029 -13.5531 -27.388 36.9966 -13.5531 14.2533 29.3324 -13.5531 
11.3343 31.9133 -13.5531 19.0787 29.3324 -7.93616 -35.1324 37.0769 -6.43859 
-26.2647 37.0769 -13.5531 -27.388 37.0769 -13.4392 -19.6435 37.4522 -13.5531 
-11.8991 37.9251 -13.5531 -4.15462 38.2632 -13.5531 3.63431 37.0769 -13.5531 
3.58982 37.0995 -13.5531 11.3343 37.0769 -6.42945 -42.8769 -33.791 -5.80861 
-35.1324 -35.7667 -5.80861 -27.388 -37.2532 -5.80861 -27.388 -40.3676 0.625038 
-19.6435 -36.7269 -5.80861 -11.8991 -35.1842 -5.80861 -4.15462 -33.9759 -5.80861 
3.58982 -33.8816 -5.80861 11.3343 -32.8594 -5.80861 -45.4329 -32.6231 -5.80861 
-50.6213 -29.077 -5.80861 11.9771 -32.6231 -5.80861 19.0787 -29.9855 -5.80861 
19.0787 -32.6231 -0.379838 26.8232 -28.4879 -5.80861 34.5676 -28.9224 -5.80861 
42.3121 -27.3045 -5.80861 50.0565 -26.0064 -5.80861 -56.1769 -24.8787 -5.80861 
-58.3658 -22.4155 -5.80861 52.7581 -24.8787 -5.80861 57.801 -22.2869 -5.80861 
-61.2647 -17.1343 -5.80861 63.8603 -17.1343 -5.80861 65.5454 -14.5615 -5.80861 
-65.3948 -9.3898 -5.80861 -66.1102 -5.45523 -5.80861 68.461 -9.3898 -5.80861 
-66.6656 -1.64536 -5.80861 -66.1102 2.57448 -5.80861 67.382 -1.64536 -5.80861 
-65.5404 6.09909 -5.80861 66.0165 6.09909 -5.80861 65.5454 6.86988 -5.80861 
-62.7427 13.8435 -5.80861 -58.3658 19.5799 -5.80861 50.0565 21.3588 -5.80861 
60.3564 13.8435 -5.80861 57.801 16.2547 -5.80861 65.5454 13.8435 1.3922 
-56.8007 21.588 -5.80861 -50.6213 27.1365 -5.80861 26.8232 26.9144 -5.80861 
34.5676 26.0396 -5.80861 49.6213 21.588 -5.80861 42.3121 24.5383 -5.80861 
50.0565 21.588 -5.49603 -47.8798 29.3324 -5.80861 -42.8769 32.8733 -5.80861 
21.4475 29.3324 -5.80861 19.0787 30.7898 -5.80861 26.8232 29.3324 -0.56581 
34.5676 29.3324 0.818535 -35.5653 37.0769 -5.80861 -35.1324 37.3071 -5.80861 
-35.1324 37.0769 -4.96503 -27.388 40.4615 -5.80861 -19.6435 42.2813 -5.80861 
-11.8991 42.963 -5.80861 -4.15462 42.8883 -5.80861 3.58982 41.5984 -5.80861 
11.8039 37.0769 -5.80861 11.3343 37.4261 -5.80861 -27.388 -40.8344 1.93584 
-42.8769 -36.2989 1.93584 -29.7625 -40.3676 1.93584 -35.1324 -39.2714 1.93584 
-21.3437 -40.3676 1.93584 -27.388 -40.3676 5.88149 -19.6435 -40.2304 1.93584 
-11.8991 -38.4948 1.93584 -4.15462 -36.6266 1.93584 3.58982 -36.209 1.93584 
11.3343 -35.8413 1.93584 19.0787 -33.6524 1.93584 -49.0959 -32.6231 1.93584 
-50.6213 -31.5144 1.93584 22.3937 -32.6231 1.93584 26.8232 -31.282 1.93584 
34.5676 -29.8677 1.93584 42.3121 -28.2928 1.93584 50.0565 -26.6367 1.93584 
-57.7083 -24.8787 1.93584 -58.3658 -23.9609 1.93584 53.7316 -24.8787 1.93584 
50.0565 -24.8787 6.58399 57.801 -22.3967 1.93584 -62.2302 -17.1343 1.93584 
-58.3658 -17.1343 8.31005 64.5347 -17.1343 1.93584 65.5454 -15.7582 1.93584 
-65.2531 -9.3898 1.93584 -66.1102 -3.94483 1.93584 69.1148 -9.3898 1.93584 
65.5454 -9.3898 9.17623 -66.4722 -1.64536 1.93584 -66.1102 0.686321 1.93584 
-66.1102 -1.64536 2.59882 70.6397 -1.64536 1.93584 -65.2537 6.09909 1.93584 
70.2038 6.09909 1.93584 -62.6161 13.8435 1.93584 -58.3658 19.2332 1.93584 
-58.3658 13.8435 7.36213 57.801 21.3246 1.93584 65.8004 13.8435 1.93584 
65.5454 14.2406 1.93584 65.5454 13.8435 3.22 -56.0603 21.588 1.93584 
-50.6213 25.7037 1.93584 42.3121 27.4201 1.93584 57.4017 21.588 1.93584 
50.0565 26.0775 1.93584 -44.7398 29.3324 1.93584 -42.8769 30.4125 1.93584 
-42.8769 29.3324 3.90134 -35.1324 34.9533 1.93584 -35.1324 29.3324 9.07618 
19.0787 33.6667 1.93584 26.8232 30.359 1.93584 36.157 29.3324 1.93584 
34.5676 29.8368 1.93584 -30.5092 37.0769 1.93584 -27.388 38.4093 1.93584 
-27.388 37.0769 4.04483 -19.6435 41.0861 1.93584 -19.6435 37.0769 8.10074 
-11.8991 42.1269 1.93584 -11.8991 37.0769 9.48783 -4.15462 42.1366 1.93584 
3.58982 41.4257 1.93584 13.9337 37.0769 1.93584 11.3343 38.8443 1.93584 
-42.8769 -34.4586 9.68029 -35.1324 -37.6845 9.68029 -27.388 -39.7946 9.68029 
-19.6435 -39.2757 9.68029 -11.8991 -37.6261 9.68029 -4.15462 -35.933 9.68029 
3.58982 -35.3841 9.68029 11.3343 -35.8835 9.68029 19.0787 -34.7381 9.68029 
-45.3676 -32.6231 9.68029 -50.6213 -27.5379 9.68029 -42.8769 -32.6231 11.6711 
-35.1324 -32.6231 13.7837 -27.388 -32.6231 15.5753 -19.6435 -32.6231 16.1027 
-11.8991 -32.6231 14.5727 -4.15462 -32.6231 13.2076 3.58982 -32.6231 12.9349 
11.3343 -32.6231 13.5879 25.4555 -32.6231 9.68029 19.0787 -32.6231 13.1604 
26.8232 -32.1351 9.68029 34.5676 -29.3123 9.68029 42.3121 -26.5832 9.68029 
-52.9863 -24.8787 9.68029 -50.6213 -24.8787 11.633 -42.8769 -24.8787 15.4149 
-35.1324 -24.8787 17.1017 -27.388 -24.8787 16.8833 -11.8991 -24.8787 16.6331 
-4.15462 -24.8787 16.7405 3.58982 -24.8787 16.8469 11.3343 -24.8787 17.1608 
26.8232 -24.8787 16.8016 34.5676 -24.8787 14.4961 46.5678 -24.8787 9.68029 
42.3121 -24.8787 12.2109 50.0565 -22.8378 9.68029 57.801 -19.0262 9.68029 
-56.8755 -17.1343 9.68029 -58.3658 -14.656 9.68029 -50.6213 -17.1343 13.4617 
-42.8769 -17.1343 15.7298 -35.1324 -17.1343 17.0287 -27.388 -17.1343 17.312 
-19.6435 -17.1343 16.6788 -11.8991 -17.1343 16.1307 42.3121 -17.1343 16.5913 
50.0565 -17.1343 14.9652 59.8948 -17.1343 9.68029 57.801 -17.1343 11.3753 
-60.3023 -9.3898 9.68029 -58.3658 -9.3898 11.3108 -50.6213 -9.3898 15.4973 
-42.8769 -9.3898 16.6699 -35.1324 -9.3898 16.927 -27.388 -9.3898 16.3719 
-19.6435 -9.3898 15.2203 -11.8991 -9.3898 14.5574 11.3343 -9.3898 17.2112 
50.0565 -9.3898 17.4025 65.1291 -9.3898 9.68029 57.801 -9.3898 14.7029 
65.5454 -8.56138 9.68029 -61.3701 -1.64536 9.68029 -58.3658 -1.64536 12.0527 
[...]
POINT_DATA 544
SCALARS ImageScalars float
LOOKUP_TABLE default
0 0 0 0 0 0 0 0 0 
0 0 0 0 0 0 0 0 0 
0 0 0 0 0 0 0 0 0 
0 0 0 0 0 0 0 0 0 
0 0 0 0 0 0 0 0 0 
0 0 0 0 0 0 0 0 0 
0 0 0 0 0 0 0 0 0 
0 0 0 0 0 0 0 0 0 
0 0 0 0 0 0 0 0 0 
0 0 0 0 0 0 0 0 0 
0 0 0 0 0 0 0 0 0 
0 0 0 0 0 0 0 0 0 
0 0 0 0 0 0 0 0 0 
0 0 0 0 0 0 0 0 0 
0 0 0 0 0 0 0 0 0 
0 0 0 0 0 0 0 0 0 
0 0 0 0 0 0 0 0 0 
0 0 0 0 0 0 0 0 0 
0 0 0 0 0 0 0 0 0 
0 0 0 0 0 0 0 0 0 
0 0 0 0 0 0 0 0 0 
0 0 0 0 0 0 0 0 0 
0 0 0 0 0 0 0 0 0 
0 0 0 0 0 0 0 0 0 
0 0 0 0 0 0 0 0 0 
0 0 0 0 0 0 0 0 0 
0 0 0 0 0 0 0 0 0 
0 0 0 0 0 0 0 0 0 
0 0 0 0 0 0 0 0 0 
0 0 0 0 0 0 0 0 0 
0 0 0 0 0 0 0 0 0 
0 0 0 0 0 0 0 0 0 
0 0 0 0 0 0 0 0 0 
0 0 0 0 0 0 0 0 0 
0 0 0 0 0 0 0 0 0 
0 0 0 0 0 0 0 0 0 
0 0 0 0 0 0 0 0 0 
0 0 0 0 0 0 0 0 0 
0 0 0 0 0 0 0 0 0 
0 0 0 0 0 0 0 0 0 
0 0 0 0 0 0 0 0 0 
0 0 0 0 0 0 0 0 0 
0 0 0 0 0 0 0 0 0 
0 0 0 0 0 0 0 0 0 
0 0 0 0 0 0 0 0 0 
0 0 0 0 0 0 0 0 0 
0 0 0 0 0 0 0 0 0 
0 0 0 0 0 0 0 0 0 
0 0 0 0 0 0 0 0 0 
0 0 0 0 0 0 0 0 0 
0 0 0 0 0 0 0 0 0 
0 0 0 0 0 0 0 0 0 
0 0 0 0 0 0 0 0 0 
0 0 0 0 0 0 0 0 0 
0 0 0 0 0 0 0 0 0 
0 0 0 0 0 0 0 0 0 
0 0 0 0 0 0 0 0 0 
0 0 0 0 0 0 0 0 0 
0 0 0 0 0 0 0 0 0 
0 0 0 0 0 0 0 0 0 
0 0 0 0 
NORMALS Normals float
-0.223307 -0.471258 -0.853258 -0.0906058 -0.451063 -0.887881 0.0195056 -0.39846 -0.916978 
-0.00176884 -0.378683 -0.925525 -0.016491 -0.39947 -0.916598 0.00262563 -0.439464 -0.898256 
0.0539467 -0.373606 -0.926017 0.124739 -0.442508 -0.888047 -0.310726 -0.327645 -0.892243 
-0.153901 -0.340769 -0.927465 -0.0173005 -0.269082 -0.962962 0.0230894 -0.23047 -0.972806 
0.0287996 -0.166466 -0.985627 -0.0193264 -0.150943 -0.988353 0.0417675 -0.151128 -0.987631 
0.0621031 -0.0996388 -0.993084 -0.0326592 -0.23621 -0.971153 -0.0814308 -0.289247 -0.953785 
-0.0681301 -0.338242 -0.93859 0.0152504 -0.309105 -0.950906 0.109337 -0.350967 -0.929983 
0.350655 -0.360728 -0.864243 -0.317265 -0.188906 -0.929332 -0.147508 -0.138875 -0.979263 
0.0104541 -0.145582 -0.989291 0.120118 -0.0922971 -0.98846 0.0780006 -0.0426901 -0.996039 
-0.00551158 -0.11814 -0.992982 0.0538572 -0.08626 -0.994816 -0.029386 -0.0763663 -0.996647 
-0.0805584 -0.222606 -0.971574 -0.0394582 0.0030516 -0.999217 -0.0495159 0.0240257 -0.998484 
0.0420046 0.0150885 -0.999003 0.116047 -0.0233597 -0.992969 0.227832 0.0123388 -0.973622 
0.414451 -0.117044 -0.902514 -0.531379 -0.0287336 -0.846647 -0.26325 -0.0354776 -0.964075 
-0.10184 -0.0273057 -0.994426 0.0421516 -0.0198273 -0.998914 0.132402 -0.025415 -0.99087 
0.000106371 -0.0231439 -0.999732 -0.0852456 -0.102483 -0.991075 0.0810642 -0.22524 -0.970925 
-0.0788105 -0.127391 -0.988716 0.0747663 -0.0198528 -0.997003 0.154073 0.0670391 -0.985783 
-0.0584413 0.143011 -0.987994 -0.0339483 0.129496 -0.990999 0.109995 0.123164 -0.986272 
0.258833 0.107159 -0.95996 -0.58173 0.173718 -0.794614 -0.302558 0.0820719 -0.949591 
-0.13442 0.0509106 -0.989616 0.0133584 -0.0219688 -0.999669 0.121226 -0.0601448 -0.990801 
0.0206889 -0.0716804 -0.997213 -0.202226 0.0953969 -0.974681 0.0613709 0.0385462 -0.99737 
0.139061 -0.0174715 -0.99013 0.0837974 0.118036 -0.989467 0.129881 -0.070126 -0.989047 
0.0175804 0.0427349 -0.998932 0.0213172 0.128992 -0.991417 0.106753 0.210598 -0.971726 
0.223907 0.251594 -0.941576 -0.377806 0.222234 -0.898818 -0.2055 0.113528 -0.97205 
-0.0716298 0.0655541 -0.995275 0.0807656 -0.0110179 -0.996672 0.134891 -0.0524506 -0.989471 
0.0167022 0.077576 -0.996847 -0.0278338 0.216914 -0.975794 0.0348748 0.0211998 -0.999167 
0.00913338 0.0877482 -0.996101 0.0939939 0.0513788 -0.994246 0.134029 0.139372 -0.981128 
0.128022 0.258651 -0.95745 0.235862 0.349807 -0.906644 -0.497845 0.4946 -0.712405 
-0.320011 0.340516 -0.884105 -0.120633 0.202423 -0.97184 -0.000179493 0.120235 -0.992745 
0.118107 0.0536536 -0.99155 0.0795172 0.0336715 -0.996265 -0.0317067 0.0897526 -0.995459 
0.0192994 0.0613119 -0.997932 0.120283 0.165732 -0.978808 0.208562 0.43397 -0.876454 
0.251517 0.602161 -0.757721 -0.289812 0.494461 -0.819461 -0.0769397 0.349028 -0.933949 
0.0459778 0.273585 -0.960748 0.0463713 0.167608 -0.984763 0.00181642 0.194578 -0.980885 
0.107979 0.263237 -0.958669 0.387922 0.430866 -0.814783 -0.0469506 0.66143 -0.748536 
-0.0330642 0.607661 -0.793508 0.0468939 0.557846 -0.828619 0.252613 0.64368 -0.7224 
-0.224298 -0.478355 -0.849039 -0.286257 -0.793793 -0.536609 -0.0992687 -0.539668 -0.836005 
-0.134179 -0.700866 -0.700559 -0.00776616 -0.483644 -0.87523 -0.0583018 -0.652132 -0.75586 
0.00919454 -0.468337 -0.883502 0.0487395 -0.666613 -0.743809 0.00628403 -0.511503 -0.859259 
0.0962093 -0.75759 -0.645601 0.00765083 -0.567802 -0.82313 0.0495616 -0.849544 -0.525185 
0.0525447 -0.519657 -0.852757 0.063475 -0.863895 -0.499657 0.147511 -0.511194 -0.846712 
0.22154 -0.855747 -0.467565 -0.232781 -0.478427 -0.846712 -0.339178 -0.44026 -0.831342 
-0.439837 -0.630531 -0.639511 0.128527 -0.580707 -0.803903 0.100035 -0.608001 -0.787609 
0.137107 -0.661506 -0.7373 -0.0188665 -0.714292 -0.699594 0.00759745 -0.799145 -0.60109 
0.0453843 -0.706573 -0.706183 0.047004 -0.751645 -0.657891 0.16006 -0.690085 -0.705807 
0.158433 -0.859504 -0.485955 0.330882 -0.5581 -0.760948 0.277567 -0.873319 -0.400339 
-0.458061 -0.348727 -0.817661 -0.691844 -0.408491 -0.595388 0.441827 -0.398344 -0.80381 
0.441596 -0.205365 -0.873395 0.528825 -0.467068 -0.708655 -0.558278 -0.16137 -0.813809 
-0.565487 -0.139776 -0.812827 -0.575939 -0.166005 -0.80046 0.458446 -0.131022 -0.879011 
0.37486 0.0915025 -0.922555 0.749608 -0.180651 -0.636752 -0.59547 -0.0257731 -0.802964 
-0.946234 -0.00971727 -0.323336 0.373927 0.0939027 -0.922692 0.374549 0.0939416 -0.922436 
0.784267 0.141702 -0.604025 -0.593287 0.176391 -0.785428 -0.597247 0.190124 -0.779198 
0.356201 0.257341 -0.898274 0.279265 0.34911 -0.894502 0.429377 0.272995 -0.860877 
0.712641 0.307277 -0.630653 -0.607809 0.279742 -0.743177 -0.732896 0.366847 -0.572964 
0.202309 0.518507 -0.830796 0.282739 0.389673 -0.876478 0.248317 0.44782 -0.858951 
0.335049 0.447344 -0.829232 0.514839 0.517592 -0.683403 -0.503933 0.497778 -0.705881 
-0.501669 0.503079 -0.703733 -0.437847 0.609918 -0.660522 0.375396 0.581525 -0.721739 
0.249796 0.620736 -0.743162 0.260227 0.642393 -0.720842 0.211758 0.669589 -0.711905 
0.251587 0.7088 -0.65902 -0.434328 0.616499 -0.656725 -0.454112 0.641081 -0.618707 
-0.362781 0.662431 -0.65542 -0.180627 0.735668 -0.652814 0.449585 0.54005 -0.711491 
0.448336 0.536697 -0.714808 0.537237 0.70324 -0.46565 -0.436462 0.895823 -0.08368 
-0.162128 0.729882 -0.664068 -0.183794 0.743526 -0.642953 -0.0481804 0.676193 -0.735147 
-0.0418115 0.648905 -0.759719 0.0435842 0.615541 -0.786899 0.254239 0.644294 -0.721282 
0.252847 0.644597 -0.7215 0.54063 0.777479 -0.321319 -0.306301 -0.825575 -0.473926 
-0.188821 -0.798565 -0.571525 -0.0483518 -0.813336 -0.579781 -0.0592935 -0.979269 -0.193693 
0.110364 -0.820944 -0.560242 0.151614 -0.842512 -0.516901 0.0708126 -0.891961 -0.446532 
0.0639048 -0.90963 -0.410475 0.220907 -0.863028 -0.454293 -0.381457 -0.802206 -0.459299 
-0.534224 -0.728906 -0.428137 0.223924 -0.860736 -0.457156 0.242319 -0.841524 -0.482824 
0.27891 -0.901161 -0.33184 0.058419 -0.901668 -0.428464 0.0711714 -0.954269 -0.290354 
0.186579 -0.939312 -0.287892 0.277677 -0.926854 -0.252658 -0.649596 -0.662208 -0.373504 
-0.73254 -0.591849 -0.336304 0.348933 -0.902793 -0.251418 0.519725 -0.809327 -0.273634 
-0.824416 -0.47623 -0.305847 0.746574 -0.572387 -0.339118 0.819839 -0.449247 -0.355023 
-0.919121 -0.277203 -0.279956 -0.955671 -0.139231 -0.259435 0.896143 -0.211943 -0.389883 
-0.967886 -0.00805231 -0.25126 -0.962544 0.10383 -0.250455 0.826364 0.125861 -0.548891 
-0.944286 0.202489 -0.259464 0.718319 0.305359 -0.625119 0.712211 0.324106 -0.622664 
-0.837129 0.469353 -0.28093 -0.772274 0.59812 -0.214117 0.383297 0.718167 -0.580792 
0.587137 0.526944 -0.614492 0.521521 0.607863 -0.598764 0.815054 0.559482 -0.150556 
-0.740541 0.646875 -0.182077 -0.638011 0.761958 -0.11118 0.230315 0.867547 -0.440814 
0.141086 0.846455 -0.513428 0.376173 0.726237 -0.57539 0.231075 0.829378 -0.508661 
0.384612 0.730335 -0.564521 -0.600151 0.796468 -0.0738712 -0.540455 0.84002 -0.0476969 
0.462833 0.77847 -0.423994 0.567436 0.726737 -0.387129 0.229531 0.918245 -0.322711 
0.187815 0.950351 -0.248111 -0.441025 0.896523 -0.0417492 -0.435047 0.899384 -0.0429187 
-0.439587 0.898189 0.00436286 -0.31011 0.948206 -0.0688249 -0.156628 0.97449 -0.160741 
-0.0391527 0.981733 -0.186192 0.0848925 0.980939 -0.17479 0.285825 0.93468 -0.211368 
0.547905 0.782375 -0.296126 0.542647 0.786698 -0.294349 -0.0613537 -0.990471 -0.123297 
-0.43515 -0.899415 -0.0411949 -0.126798 -0.984947 -0.117479 -0.264755 -0.959131 -0.0998606 
0.105002 -0.985756 -0.131374 -0.07045 -0.987535 0.140751 0.14884 -0.97991 -0.132749 
0.224101 -0.965779 -0.130574 0.14791 -0.981926 -0.118084 0.050248 -0.99469 -0.0898179 
0.159521 -0.97185 -0.173382 0.27881 -0.920465 -0.273876 -0.587731 -0.807028 0.0572462 
-0.630546 -0.772431 0.0759065 0.287217 -0.923293 -0.255024 0.257424 -0.940505 -0.221771 
0.17446 -0.984312 -0.0263173 0.235967 -0.970856 0.0419237 0.320766 -0.939146 0.122943 
-0.76762 -0.615408 0.178976 -0.780962 -0.594949 0.190091 0.419648 -0.894916 0.151727 
0.384743 -0.831865 0.399968 0.541607 -0.824724 0.162761 -0.879977 -0.456 0.133059 
-0.678986 -0.459985 0.572182 0.756179 -0.628786 0.181167 0.80309 -0.56806 0.179873 
-0.936027 -0.241639 0.255861 -0.960282 -0.0713086 0.269766 0.92544 -0.363123 0.108177 
0.681516 -0.461129 0.568239 -0.96327 -0.00147363 0.268529 -0.960264 0.0544234 0.273736 
-0.952633 -0.000856025 0.304121 0.99803 -0.0598535 0.0187943 -0.941282 0.199748 0.272192 
0.95845 0.283998 -0.0268161 -0.822773 0.493062 0.282726 -0.722039 0.630655 0.284489 
-0.678736 0.506481 0.531783 0.51912 0.836073 -0.17747 0.820712 0.558972 -0.118244 
0.812638 0.570339 -0.119716 0.83118 0.555033 -0.0328385 -0.668723 0.690148 0.276596 
-0.547345 0.781192 0.300253 0.213324 0.959785 -0.182496 0.509093 0.84173 -0.179764 
0.346611 0.919327 -0.186277 -0.483 0.802626 0.350003 -0.472223 0.807179 0.354214 
-0.458981 0.776742 0.431288 -0.429097 0.802768 0.414053 -0.29714 0.629312 0.718105 
0.505878 0.848191 -0.157032 0.22864 0.934516 -0.272771 0.196805 0.959573 -0.201213 
0.192069 0.959676 -0.20526 -0.38507 0.832387 0.398564 -0.345343 0.852708 0.391954 
-0.345741 0.809052 0.475287 -0.218132 0.915135 0.339038 -0.212148 0.735954 0.642934 
-0.0642389 0.946666 0.315749 -0.0690274 0.69101 0.719542 0.0440586 0.953716 0.297462 
0.191066 0.958541 0.211407 0.487612 0.872721 -0.0243378 0.452337 0.891091 0.0367205 
-0.470408 -0.720352 0.509715 -0.312229 -0.810899 0.49493 -0.077444 -0.906331 0.415412 
0.127446 -0.916618 0.378905 0.196984 -0.875086 0.442065 0.136972 -0.889524 0.435874 
0.000592071 -0.900393 0.435078 0.0434737 -0.928848 0.3679 0.237265 -0.948302 0.210782 
-0.533806 -0.660787 0.527647 -0.599731 -0.51153 0.615353 -0.456433 -0.643956 0.613994 
-0.233068 -0.518488 0.822708 -0.141653 -0.382825 0.912896 0.0536071 -0.381997 0.922607 
0.167019 -0.518152 0.838823 0.100039 -0.671656 0.734078 -0.0214929 -0.728461 0.68475 
-0.0193576 -0.713437 0.700452 0.306662 -0.924723 0.22549 0.191777 -0.830378 0.523158 
0.318049 -0.917214 0.239922 0.333772 -0.875438 0.349577 0.332642 -0.840961 0.426772 
-0.617348 -0.463662 0.63553 -0.54063 -0.414415 0.732106 -0.325159 -0.215948 0.920673 
-0.0765688 -0.194827 0.977844 -0.0302365 -0.107873 0.993705 0.0526986 -0.0799499 0.995405 
-0.0134272 -0.238302 0.971098 -0.0261258 -0.245359 0.96908 -0.103705 -0.219468 0.970092 
0.225432 -0.389257 0.893118 0.25085 -0.602773 0.757455 0.378605 -0.768143 0.516348 
0.327456 -0.740331 0.587096 0.384208 -0.703086 0.598376 0.489996 -0.623612 0.609107 
-0.586924 -0.398426 0.704825 -0.615032 -0.35056 0.706288 -0.356014 -0.245511 0.901653 
-0.210977 -0.0751148 0.974601 -0.0938453 0.0103111 0.995533 0.0207073 0.0331419 0.999236 
0.0751328 0.14714 0.986258 -0.0549757 0.133851 0.989475 0.151586 -0.327761 0.932521 
0.304957 -0.490687 0.816228 0.556559 -0.546541 0.625728 0.488559 -0.527241 0.695217 
-0.6533 -0.163711 0.739187 -0.579253 -0.14555 0.802048 -0.322496 -0.126656 0.938059 
-0.0839439 -0.0665157 0.994248 0.0197369 0.0115506 0.999738 0.109173 0.0758566 0.991124 
0.119392 0.124604 0.984997 -0.181779 0.0315085 0.982834 -0.00216107 -0.129854 0.991531 
0.204166 -0.215545 0.954912 0.649741 -0.45485 0.609056 0.397534 -0.368976 0.840133 
0.673943 -0.423866 0.605094 -0.654017 0.00524564 0.756462 -0.531737 0.00702851 0.84688 
-0.297784 0.013092 0.954543 -0.0541696 0.0129331 0.998448 0.0409993 0.0073564 0.999132 
0.132427 0.00433919 0.991183 0.0272571 -0.00122653 0.999628 -0.174115 -0.0613525 0.982812 
-0.0751582 0.0691041 0.994774 -0.184554 -0.0663347 0.980581 0.808592 -0.0835957 0.582401 
0.7106 -0.095245 0.697119 -0.637076 0.218749 0.73911 -0.613297 0.351989 0.707086 
-0.568369 0.189064 0.800757 -0.317914 0.171059 0.932561 -0.0912553 0.111845 0.989527 
0.0113794 0.0498467 0.998692 0.101263 -0.0116852 0.994791 0.0613172 -0.0622519 0.996175 
-0.167894 0.0228057 0.985541 0.837127 0.171477 0.519436 0.803887 0.350806 0.480314 
0.767659 0.155004 0.62183 -0.567873 0.424132 0.705431 -0.361236 0.334829 0.870286 
-0.193226 0.261883 0.945558 -0.0801461 0.1871 0.979066 0.0214135 0.0796889 0.99659 
0.0526952 -0.030168 0.998155 -0.0527535 -0.0375267 0.997902 -0.124069 0.118654 0.985154 
0.00354257 0.137896 0.99044 -0.00568797 0.0376463 0.999275 0.766854 0.470258 0.436797 
0.568035 0.758375 0.319694 0.512485 0.457305 0.726795 -0.458018 0.591119 0.663926 
-0.453248 0.594654 0.664043 -0.450407 0.589132 0.670863 -0.309273 0.587587 0.747724 
-0.240394 0.501223 0.831255 -0.278541 0.600676 0.749402 -0.181282 0.397138 0.899677 
-0.121775 0.27488 0.953736 -0.0569885 0.135938 0.989077 -0.0105179 0.0677793 0.997645 
-0.0429384 0.140421 0.98916 -0.0800998 0.126982 0.988666 -0.0433539 0.0204286 0.998851 
-0.0616522 0.125901 0.990125 0.240835 0.945264 0.220169 0.540326 0.783397 0.307143 
0.377154 0.877036 0.297595 0.358793 0.610672 0.705937 -0.276895 0.599158 0.751225 
-0.266275 0.58872 0.763221 -0.226568 0.494039 0.8394 -0.199235 0.631789 0.749098 
-0.165994 0.382506 0.90892 -0.0685133 0.678381 0.731508 -0.0498505 0.355317 0.933415 
-0.0486832 0.34106 0.93878 -0.114075 0.333469 0.935834 0.00241895 0.340744 0.940153 
0.322901 0.89965 0.293878 0.15802 0.54708 0.82203 0.298569 0.931724 0.206755 
0.228157 0.815866 0.531326 0.243644 0.934549 0.259338 0.246 0.93146 0.268079 
0.240171 0.925456 0.293002 -0.0558009 0.676582 0.73425 -0.0422788 0.671932 0.739406 
-0.0434292 0.666223 0.744487 0.0106902 0.761369 0.648231 -0.00430554 0.732836 0.680392 
0.201179 0.880295 0.429659 0.198238 0.878864 0.433934 0.19639 0.876147 0.440224 
0.0197495 -0.0571744 0.998169 0.0435113 -0.333877 0.941612 0.00692189 -0.0378651 0.999259 
0.0221595 -0.027443 0.999378 0.0263369 0.00861502 0.999616 0.0165383 -0.0202488 0.999658 
-0.0888289 -0.140717 0.986057 -0.0148295 -0.118309 0.992866 -0.0804813 -0.211579 0.974042 
-0.0679464 -0.111017 0.991493 0.147841 -0.303682 0.941233 0.0135265 -0.190143 0.981663 
0.139351 -0.264776 0.954188 0.101139 -0.259381 0.960465 -0.0979536 -0.10571 0.989561 
-0.101036 -0.126205 0.986845 -0.00866935 -0.0650703 0.997843 -0.0136119 -0.0741442 0.997155 
-0.0291926 -0.00212175 0.999572 -0.0350847 0.0309005 0.998906 0.0296486 -0.126006 0.991586 
0.100418 -0.254483 0.96185 0.0928142 -0.241459 0.965962 0.122724 -0.262883 0.956991 
-0.242691 0.0091752 0.97006 -0.0857271 0.0672094 0.994049 -0.225377 0.0107927 0.974212 
0.0305994 -0.0793025 0.996381 -0.0689548 -0.0269309 0.997256 0.101514 0.0300561 0.99438 
-0.0372202 -0.0884165 0.995388 -0.00588478 -0.123255 0.992358 -0.116185 0.00455292 0.993217 
-0.0848841 -0.0471603 0.995274 0.0262775 -0.13743 0.990163 0.202079 -0.214954 0.955489 
0.111219 -0.196854 0.974104 0.2032 -0.214891 0.955265 0.391519 -0.238811 0.888641 
-0.108799 0.0655896 0.991898 -0.168708 -0.0653882 0.983495 -0.151663 -0.0594036 0.986646 
-0.0331582 -0.0611689 0.997577 0.048345 0.0175912 0.998676 -0.113913 -0.00890971 0.993451 
-0.0636278 -0.0611206 0.9961 0.0352785 -0.127906 0.991159 0.161212 -0.199649 0.966515 
0.401857 -0.222094 0.888361 0.39409 -0.225657 0.890939 -0.213897 0.0484288 0.975655 
-0.193015 0.0683771 0.97881 -0.214935 0.0491168 0.975392 0.00333646 0.133065 0.991102 
-0.0180658 -0.00187609 0.999835 0.0536675 0.170646 0.98387 0.0826545 0.226869 0.970412 
-0.0797177 0.0381147 0.996089 -0.172864 -0.00775142 0.984915 -0.0878157 -0.0382343 0.995403 
-0.0332957 -0.0341627 0.998861 0.128842 0.0554884 0.990112 0.514667 0.0903008 0.852621 
0.461446 0.271424 0.844628 0.435148 0.0640831 0.898075 -0.155438 0.0223212 0.987593 
-0.138775 0.0453038 0.989287 -0.161934 0.0212533 0.986573 -0.186439 0.0613205 0.980551 
-0.0952382 0.104004 0.990006 0.113772 0.153942 0.981508 0.356334 0.319267 0.87812 
0.312078 0.347294 0.884305 0.285331 0.268214 0.920134 -0.0690903 0.149192 0.986391 
-0.0630694 0.337086 0.939359 -0.100813 0.269404 0.957736 0.0606229 0.524683 0.849136 
0.0260579 0.387045 0.921693 0.201459 0.539006 0.817855 0.188563 0.550879 0.813005 
0.186358 0.539803 0.820904 
