# vtk DataFile Version 4.2
vtk output
ASCII
DATASET POLYDATA
POINTS 542 float
-9.92236 -42.7115 -16.7562 -0.91534 -42.7115 -18.0133 8.09168 -42.7115 -18.5688 
17.0987 -42.7115 -17.7645 -36.9434 -33.7045 -16.5938 -27.9364 -33.7045 -19.3144 
-18.9294 -33.7045 -20.1429 -9.92236 -33.7045 -20.4309 -0.91534 -33.7045 -21.178 
8.09168 -33.7045 -21.6886 17.0987 -33.7045 -21.499 26.1057 -33.7045 -20.9733 
35.1127 -33.7045 -19.6719 -45.9504 -24.6975 -16.4164 -36.9434 -24.6975 -19.5134 
-27.9364 -24.6975 -20.8201 -18.9294 -24.6975 -21.5298 -9.92236 -24.6975 -22.0643 
-0.91534 -24.6975 -22.0177 8.09168 -24.6975 -22.3031 17.0987 -24.6975 -22.1242 
26.1057 -24.6975 -21.8525 35.1127 -24.6975 -20.8699 44.1197 -24.6975 -19.8598 
-54.9574 -15.6905 -16.6752 -45.9504 -15.6905 -19.8858 -36.9434 -15.6905 -20.9422 
-27.9364 -15.6905 -21.1179 -18.9294 -15.6905 -21.387 -9.92236 -15.6905 -23.4825 
-0.91534 -15.6905 -22.9763 8.09168 -15.6905 -22.1561 17.0987 -15.6905 -21.2362 
26.1057 -15.6905 -21.0852 35.1127 -15.6905 -21.4904 44.1197 -15.6905 -20.7433 
53.1268 -15.6905 -18.336 -54.9574 -6.68344 -19.297 -45.9504 -6.68344 -21.37 
-36.9434 -6.68344 -21.7861 -27.9364 -6.68344 -20.8797 -18.9294 -6.68344 -20.9786 
-9.92236 -6.68344 -25.2149 -0.91534 -6.68344 -22.5807 8.09168 -6.68344 -23.8387 
17.0987 -6.68344 -20.0382 26.1057 -6.68344 -19.5811 35.1127 -6.68344 -20.7701 
44.1197 -6.68344 -21.1358 53.1268 -6.68344 -20.4028 62.1338 -6.68344 -17.5098 
-63.9645 2.32357 -16.9785 -54.9574 2.32357 -20.8515 -45.9504 2.32357 -22.3262 
-36.9434 2.32357 -22.3531 -27.9364 2.32357 -21.303 -18.9294 2.32357 -20.0461 
-9.92236 2.32357 -23.6715 -0.91534 2.32357 -20.0867 8.09168 2.32357 -23.5598 
17.0987 2.32357 -20.1694 26.1057 2.32357 -20.1436 35.1127 2.32357 -21.41 
44.1197 2.32357 -21.9432 53.1268 2.32357 -21.2899 62.1338 2.32357 -18.3655 
-54.9574 11.3306 -20.3386 -45.9504 11.3306 -21.8601 -36.9434 11.3306 -22.212 
-27.9364 11.3306 -21.3503 -18.9294 11.3306 -20.4303 -9.92236 11.3306 -21.6722 
-0.91534 11.3306 -21.9224 8.09168 11.3306 -21.2567 17.0987 11.3306 -20.4448 
26.1057 11.3306 -21.2354 35.1127 11.3306 -22.2245 44.1197 11.3306 -22.1491 
53.1268 11.3306 -21.1027 62.1338 11.3306 -17.8131 -54.9574 20.3376 -18.538 
-45.9504 20.3376 -21.4459 -36.9434 20.3376 -21.9404 -27.9364 20.3376 -22.1704 
-18.9294 20.3376 -22.273 -9.92236 20.3376 -22.6483 -0.91534 20.3376 -21.8195 
8.09168 20.3376 -20.7455 17.0987 20.3376 -21.1662 26.1057 20.3376 -22.0418 
35.1127 20.3376 -22.95 44.1197 20.3376 -21.3598 53.1268 20.3376 -19.1914 
-45.9504 29.3446 -17.2305 -36.9434 29.3446 -20.0678 -27.9364 29.3446 -21.8426 
-18.9294 29.3446 -22.5106 -9.92236 29.3446 -22.6596 -0.91534 29.3446 -21.8539 
8.09168 29.3446 -21.1407 17.0987 29.3446 -21.0698 26.1057 29.3446 -21.6534 
35.1127 29.3446 -20.3441 44.1197 29.3446 -17.6942 -27.9364 38.3516 -18.1562 
-18.9294 38.3516 -20.2986 -9.92236 38.3516 -20.8037 -0.91534 38.3516 -19.7536 
8.09168 38.3516 -19.2647 17.0987 38.3516 -18.8685 26.1057 38.3516 -17.1353 
-9.92236 -43.3196 -16.29 -0.91534 -44.9675 -16.29 8.09168 -45.551 -16.29 
17.0987 -44.3801 -16.29 -36.9434 -34.2857 -16.29 -36.9434 -42.7115 -10.3182 
-27.9364 -40.5865 -16.29 -27.9364 -42.7115 -14.8575 -14.3893 -42.7115 -16.29 
-18.9294 -41.7505 -16.29 -18.9294 -42.7115 -15.7173 24.3303 -42.7115 -16.29 
26.1057 -42.1071 -16.29 26.1057 -42.7115 -15.4629 35.1127 -38.101 -16.29 
35.1127 -42.7115 -8.90277 -37.7549 -33.7045 -16.29 -45.9504 -25.0594 -16.29 
-45.9504 -33.7045 -12.4618 42.8143 -33.7045 -16.29 44.1197 -32.5642 -16.29 
44.1197 -33.7045 -15.4543 -46.2234 -24.6975 -16.29 -54.9574 -16.5349 -16.29 
-54.9574 -24.6975 -11.1169 51.6339 -24.6975 -16.29 53.1268 -22.5739 -16.29 
53.1268 -24.6975 -15.393 -55.8427 -15.6905 -16.29 -63.9645 -15.6905 -9.22873 
57.598 -15.6905 -16.29 62.1338 -9.95028 -16.29 62.1338 -15.6905 -13.5043 
-60.9036 -6.68344 -16.29 -63.9645 -0.00608778 -16.29 -63.9645 -6.68344 -14.327 
64.4941 -6.68344 -16.29 71.1408 -6.68344 -10.0975 -64.8043 2.32357 -16.29 
-72.9715 2.32357 -8.11822 -63.9645 8.55879 -16.29 66.0894 2.32357 -16.29 
71.1408 2.32357 -10.7587 -63.4304 11.3306 -16.29 -63.9645 11.3306 -15.9966 
64.0417 11.3306 -16.29 62.1338 14.6229 -16.29 71.1408 11.3306 -8.10477 
-58.5515 20.3376 -16.29 -63.9645 20.3376 -10.7041 -54.9574 24.2509 -16.29 
58.354 20.3376 -16.29 53.1268 25.6361 -16.29 62.1338 20.3376 -12.6994 
-47.9209 29.3446 -16.29 -54.9574 29.3446 -11.3755 -45.9504 30.7713 -16.29 
-36.9434 37.0713 -16.29 35.1127 35.8356 -16.29 47.4634 29.3446 -16.29 
44.1197 31.0532 -16.29 53.1268 29.3446 -11.5457 -45.9504 38.3516 -7.61866 
-34.4359 38.3516 -16.29 -36.9434 38.3516 -15.081 -27.9364 40.6007 -16.29 
-18.9294 43.0133 -16.29 -9.92236 43.6867 -16.29 -0.91534 43.2783 -16.29 
8.09168 42.1623 -16.29 17.0987 41.5697 -16.29 28.9641 38.3516 -16.29 
26.1057 39.3184 -16.29 35.1127 38.3516 -11.9119 -9.92236 47.3587 -8.61473 
-0.91534 47.3587 -8.3523 -36.9434 -45.2171 -7.28297 -27.9364 -48.2517 -7.28297 
-18.9294 -49.8922 -7.28297 -9.92236 -50.4336 -7.28297 -9.92236 -51.7185 1.38353 
-0.91534 -50.9836 -7.28297 8.09168 -50.3443 -7.28297 17.0987 -48.4053 -7.28297 
26.1057 -46.0461 -7.28297 35.1127 -43.3154 -7.28297 -40.6669 -42.7115 -7.28297 
-45.9504 -38.8067 -7.28297 36.469 -42.7115 -7.28297 35.1127 -42.7115 -4.09193 
44.1197 -38.7571 -7.28297 -51.8449 -33.7045 -7.28297 -54.9574 -29.9356 -7.28297 
51.7931 -33.7045 -7.28297 53.1268 -32.6183 -7.28297 -59.3231 -24.6975 -7.28297 
-63.9645 -17.9351 -7.28297 61.1663 -24.6975 -7.28297 62.1338 -23.5352 -7.28297 
-65.5154 -15.6905 -7.28297 67.8545 -15.6905 -7.28297 71.1408 -9.94527 -7.28297 
-70.5411 -6.68344 -7.28297 -72.9715 0.45634 -7.28297 72.6412 -6.68344 -7.28297 
-73.4728 2.32357 -7.28297 -72.9715 5.06281 -7.28297 72.9639 2.32357 -7.28297 
-71.6478 11.3306 -7.28297 71.6112 11.3306 -7.28297 71.1408 12.3742 -7.28297 
-66.7138 20.3376 -7.28297 -63.9645 24.0585 -7.28297 66.4459 20.3376 -7.28297 
62.1338 24.4058 -7.28297 -59.0349 29.3446 -7.28297 -54.9574 32.8328 -7.28297 
44.1197 36.4855 -7.28297 56.0269 29.3446 -7.28297 53.1268 31.4174 -7.28297 
-46.3277 38.3516 -7.28297 -45.9504 38.5587 -7.28297 -36.9434 42.8439 -7.28297 
-27.9364 45.5713 -7.28297 -18.9294 47.275 -7.28297 8.09168 46.9738 -7.28297 
17.0987 45.539 -7.28297 26.1057 43.3217 -7.28297 39.8227 38.3516 -7.28297 
35.1127 40.2718 -7.28297 -17.5707 47.3587 -7.28297 -18.9294 47.3587 -5.76246 
-9.92236 47.8181 -7.28297 3.55035 47.3587 -7.28297 -0.91534 47.7346 -7.28297 
-9.92236 -51.7642 1.72405 -36.9434 -47.2466 1.72405 -27.9364 -49.9765 1.72405 
-10.6826 -51.7185 1.72405 -18.9294 -51.2492 1.72405 -9.21003 -51.7185 1.72405 
-9.92236 -51.7185 1.86135 -0.91534 -51.1815 1.72405 8.09168 -49.3132 1.72405 
17.0987 -46.396 1.72405 26.1057 -43.8928 1.72405 -44.6548 -42.7115 1.72405 
-45.9504 -41.802 1.72405 17.0987 -42.7115 8.2162 30.3648 -42.7115 1.72405 
26.1057 -42.7115 3.80988 35.1127 -41.482 1.72405 44.1197 -37.6755 1.72405 
-54.3629 -33.7045 1.72405 -54.9574 -33.0321 1.72405 50.6907 -33.7045 1.72405 
44.1197 -33.7045 9.51004 53.1268 -32.0218 1.72405 -62.0772 -24.6975 1.72405 
-63.9645 -22.0095 1.72405 61.5951 -24.6975 1.72405 62.1338 -24.1503 1.72405 
-68.5512 -15.6905 1.72405 68.7573 -15.6905 1.72405 71.1408 -11.6074 1.72405 
-71.964 -6.68344 1.72405 -72.9715 -1.47363 1.72405 73.6847 -6.68344 1.72405 
71.1408 -6.68344 9.51285 -73.6975 2.32357 1.72405 -72.9715 7.99786 1.72405 
-72.9715 2.32357 3.45069 74.3802 2.32357 1.72405 -72.5451 11.3306 1.72405 
72.6066 11.3306 1.72405 71.1408 14.5446 1.72405 71.1408 11.3306 6.5701 
-67.7429 20.3376 1.72405 -63.9645 25.3775 1.72405 -63.9645 20.3376 8.96042 
67.5117 20.3376 1.72405 62.1338 25.1693 1.72405 -60.2036 29.3446 1.72405 
-54.9574 34.2313 1.72405 44.1197 36.4002 1.72405 56.192 29.3446 1.72405 
53.1268 31.1755 1.72405 53.1268 29.3446 10.6753 -48.4501 38.3516 1.72405 
-45.9504 39.6962 1.72405 -45.9504 38.3516 5.41987 -36.9434 43.5655 1.72405 
-27.9364 45.9924 1.72405 8.09168 46.94 1.72405 17.0987 44.9009 1.72405 
26.1057 42.4072 1.72405 38.6135 38.3516 1.72405 35.1127 39.5149 1.72405 
-20.8847 47.3587 1.72405 -18.9294 47.7592 1.72405 -18.9294 47.3587 3.97332 
-9.92236 48.268 1.72405 -9.92236 47.3587 8.36092 4.89381 47.3587 1.72405 
-0.91534 48.1132 1.72405 -0.91534 47.3587 10.1424 -36.9434 -43.6469 10.7311 
-27.9364 -46.3393 10.7311 -18.9294 -48.0624 10.7311 -9.92236 -47.8137 10.7311 
-0.91534 -46.4241 10.7311 8.09168 -43.7964 10.7311 -38.5105 -42.7115 10.7311 
-45.9504 -37.7715 10.7311 -36.9434 -42.7115 11.7572 -27.9364 -42.7115 14.2303 
-18.9294 -42.7115 15.3043 -9.92236 -42.7115 15.241 -0.91534 -42.7115 14.0865 
11.5805 -42.7115 10.7311 8.09168 -42.7115 11.7898 17.0987 -40.7607 10.7311 
26.1057 -38.4464 10.7311 35.1127 -36.1657 10.7311 -50.275 -33.7045 10.7311 
-54.9574 -28.4901 10.7311 -45.9504 -33.7045 14.3656 -36.9434 -33.7045 16.9338 
-27.9364 -33.7045 19.3181 -18.9294 -33.7045 19.1541 -9.92236 -33.7045 19.3065 
-0.91534 -33.7045 18.1384 8.09168 -33.7045 17.3344 17.0987 -33.7045 16.4607 
26.1057 -33.7045 15.5789 42.0242 -33.7045 10.7311 35.1127 -33.7045 13.3391 
44.1197 -32.8013 10.7311 53.1268 -27.1778 10.7311 -58.2335 -24.6975 10.7311 
-63.9645 -16.223 10.7311 -54.9574 -24.6975 13.6556 -45.9504 -24.6975 17.3988 
-36.9434 -24.6975 19.2367 8.09168 -24.6975 19.7078 35.1127 -24.6975 19.1782 
44.1197 -24.6975 17.0763 56.0584 -24.6975 10.7311 53.1268 -24.6975 13.1234 
62.1338 -18.8939 10.7311 -64.32 -15.6905 10.7311 -63.9645 -15.6905 11.0731 
-54.9574 -15.6905 17.99 53.1268 -15.6905 18.5823 64.7437 -15.6905 10.7311 
62.1338 -15.6905 13.4926 -68.1372 -6.68344 10.7311 -63.9645 -6.68344 14.8193 
-54.9574 -6.68344 18.7739 -18.9294 -6.68344 19.6773 70.5142 -6.68344 10.7311 
62.1338 -6.68344 18.2808 71.1408 1.65819 10.7311 -69.497 2.32357 10.7311 
-63.9645 2.32357 15.8376 -54.9574 2.32357 19.0446 71.1756 2.32357 10.7311 
71.1408 2.56603 10.7311 71.1408 2.32357 10.781 -68.0219 11.3306 10.7311 
-63.9645 18.6759 10.7311 -63.9645 11.3306 14.5816 -54.9574 11.3306 18.4098 
[...]
POINT_DATA 542
SCALARS ImageScalars float
LOOKUP_TABLE default
0 0 0 0 0 0 0 0 0 
0 0 0 0 0 0 0 0 0 
0 0 0 0 0 0 0 0 0 
0 0 0 0 0 0 0 0 0 
0 0 0 0 0 0 0 0 0 
0 0 0 0 0 0 0 0 0 
0 0 0 0 0 0 0 0 0 
0 0 0 0 0 0 0 0 0 
0 0 0 0 0 0 0 0 0 
0 0 0 0 0 0 0 0 0 
0 0 0 0 0 0 0 0 0 
0 0 0 0 0 0 0 0 0 
0 0 0 0 0 0 0 0 0 
0 0 0 0 0 0 0 0 0 
0 0 0 0 0 0 0 0 0 
0 0 0 0 0 0 0 0 0 
0 0 0 0 0 0 0 0 0 
0 0 0 0 0 0 0 0 0 
0 0 0 0 0 0 0 0 0 
0 0 0 0 0 0 0 0 0 
0 0 0 0 0 0 0 0 0 
0 0 0 0 0 0 0 0 0 
0 0 0 0 0 0 0 0 0 
0 0 0 0 0 0 0 0 0 
0 0 0 0 0 0 0 0 0 
0 0 0 0 0 0 0 0 0 
0 0 0 0 0 0 0 0 0 
0 0 0 0 0 0 0 0 0 
0 0 0 0 0 0 0 0 0 
0 0 0 0 0 0 0 0 0 
0 0 0 0 0 0 0 0 0 
0 0 0 0 0 0 0 0 0 
0 0 0 0 0 0 0 0 0 
0 0 0 0 0 0 0 0 0 
0 0 0 0 0 0 0 0 0 
0 0 0 0 0 0 0 0 0 
0 0 0 0 0 0 0 0 0 
0 0 0 0 0 0 0 0 0 
0 0 0 0 0 0 0 0 0 
0 0 0 0 0 0 0 0 0 
0 0 0 0 0 0 0 0 0 
0 0 0 0 0 0 0 0 0 
0 0 0 0 0 0 0 0 0 
0 0 0 0 0 0 0 0 0 
0 0 0 0 0 0 0 0 0 
0 0 0 0 0 0 0 0 0 
0 0 0 0 0 0 0 0 0 
0 0 0 0 0 0 0 0 0 
0 0 0 0 0 0 0 0 0 
0 0 0 0 0 0 0 0 0 
0 0 0 0 0 0 0 0 0 
0 0 0 0 0 0 0 0 0 
0 0 0 0 0 0 0 0 0 
0 0 0 0 0 0 0 0 0 
0 0 0 0 0 0 0 0 0 
0 0 0 0 0 0 0 0 0 
0 0 0 0 0 0 0 0 0 
0 0 0 0 0 0 0 0 0 
0 0 0 0 0 0 0 0 0 
0 0 0 0 0 0 0 0 0 
0 0 
NORMALS Normals float
-0.110626 -0.546785 -0.829933 -0.0937181 -0.51896 -0.849646 0.0113843 -0.539568 -0.841865 
0.129644 -0.626021 -0.768954 -0.317232 -0.398565 -0.860529 -0.173056 -0.29096 -0.940954 
-0.0620163 -0.281162 -0.957654 -0.0544785 -0.27131 -0.960949 -0.0681628 -0.208626 -0.975617 
-0.0170956 -0.191121 -0.981418 0.0370833 -0.213084 -0.97633 0.089313 -0.273991 -0.957576 
0.283476 -0.390009 -0.87609 -0.384335 -0.32726 -0.863242 -0.221882 -0.211246 -0.951916 
-0.113691 -0.0979918 -0.988672 -0.0693718 -0.0615928 -0.995688 -0.0280154 -0.160078 -0.986707 
-0.0125059 -0.0972793 -0.995179 -0.00599345 -0.0254186 -0.999659 0.024397 0.0150401 -0.999589 
0.0679842 -0.00645502 -0.997666 0.10408 -0.0866474 -0.990787 0.282148 -0.26739 -0.921355 
-0.360036 -0.341391 -0.868232 -0.229018 -0.253351 -0.939874 -0.0632982 -0.132636 -0.989142 
-0.0242064 -0.00409539 -0.999699 -0.123477 0.0299428 -0.991896 -0.0893388 -0.168115 -0.981711 
0.0725896 -0.0339746 -0.996783 0.096344 -0.0832633 -0.991859 0.0582134 0.106721 -0.992583 
-0.0144083 0.131471 -0.991215 0.0266636 0.0068869 -0.999621 0.159302 -0.0600643 -0.985401 
0.337779 -0.241119 -0.909817 -0.318567 -0.218546 -0.922362 -0.128782 -0.125675 -0.983677 
0.0278213 -0.0768193 -0.996657 0.0449049 -0.0102932 -0.998938 -0.226476 0.0766216 -0.970998 
-0.100754 -0.0247637 -0.994603 0.0704139 0.16149 -0.984359 0.11949 -0.0796778 -0.989633 
0.253364 0.0658054 -0.96513 -0.0443845 0.0462157 -0.997945 -0.0858835 0.00384975 -0.996298 
0.0180919 -0.0692768 -0.997433 0.188547 -0.155835 -0.969621 0.40106 -0.212636 -0.891031 
-0.547108 -0.074654 -0.833727 -0.24315 -0.0562897 -0.968354 -0.0769875 -0.0272538 -0.99666 
0.0566244 -0.0235619 -0.998118 0.125975 -0.0259448 -0.991694 -0.0921658 0.030229 -0.995285 
-0.0224893 0.210236 -0.977392 -0.0205119 0.0258167 -0.999456 -0.00683542 0.147873 -0.988983 
0.190544 -0.0239454 -0.981387 -0.0700028 -0.0931182 -0.993191 -0.0975209 -0.081173 -0.991918 
0.00474636 -0.0560676 -0.998416 0.201073 -0.0382347 -0.97883 0.39913 -0.0206204 -0.916663 
-0.273908 0.132758 -0.952549 -0.0923369 0.0452352 -0.9947 0.0286906 0.0223008 -0.99934 
0.100647 -0.0486324 -0.993733 -0.0157229 -0.118137 -0.992873 -0.0852387 0.0334888 -0.995798 
0.020912 -0.0858007 -0.996093 0.0843504 0.147868 -0.985404 -0.0019506 -0.0534654 -0.998568 
-0.0981487 -0.101865 -0.989945 -0.0504817 -0.0825646 -0.995306 0.0579116 0.0349646 -0.997709 
0.204422 0.115465 -0.972049 0.508265 0.217994 -0.833154 -0.404886 0.322519 -0.855599 
-0.187261 0.225413 -0.956097 -0.0372133 0.121136 -0.991938 -0.0177986 -0.0275315 -0.999462 
-0.0270252 -0.117419 -0.992715 0.0261013 -0.053136 -0.998246 0.106153 0.0038168 -0.994343 
0.0359295 0.00323663 -0.999349 -0.0713426 -0.0347304 -0.996847 -0.0960343 -0.0252366 -0.995058 
0.0453175 0.112356 -0.992634 0.189933 0.20017 -0.961175 0.367279 0.344761 -0.863855 
-0.353266 0.475786 -0.8055 -0.23192 0.307432 -0.922875 -0.131481 0.19068 -0.972807 
-0.045933 0.0980697 -0.994119 0.0363084 0.0844964 -0.995762 0.0859175 0.108366 -0.990391 
0.0421137 0.0636953 -0.99708 -0.0255182 0.120884 -0.992339 0.0419159 0.240982 -0.969624 
0.186397 0.393766 -0.900113 0.342053 0.577002 -0.741666 -0.237342 0.566041 -0.789472 
-0.133442 0.475676 -0.86944 0.0330467 0.439099 -0.897831 0.07527 0.415038 -0.906685 
0.0509529 0.445432 -0.893865 0.114621 0.506582 -0.854539 0.228942 0.645613 -0.728539 
-0.112175 -0.568802 -0.814789 -0.0904511 -0.615717 -0.782758 0.0296173 -0.675757 -0.736529 
0.153175 -0.705506 -0.691953 -0.320515 -0.411864 -0.853017 -0.421415 -0.700602 -0.575818 
-0.188352 -0.542798 -0.81847 -0.200088 -0.643778 -0.73859 -0.0960847 -0.564057 -0.820127 
-0.0761597 -0.550269 -0.831507 -0.0812395 -0.592059 -0.801789 0.227976 -0.726387 -0.648374 
0.2431 -0.719112 -0.650985 0.254754 -0.774479 -0.579036 0.33701 -0.617506 -0.710712 
0.364049 -0.914058 -0.178791 -0.328907 -0.401524 -0.854751 -0.388264 -0.330058 -0.860415 
-0.501682 -0.500937 -0.70525 0.417477 -0.527913 -0.739609 0.41773 -0.51275 -0.750059 
0.447674 -0.5693 -0.689555 -0.389385 -0.330967 -0.859558 -0.370893 -0.356114 -0.857684 
-0.569414 -0.525573 -0.632092 0.40341 -0.384647 -0.830245 0.412926 -0.358693 -0.837157 
0.452711 -0.424496 -0.784128 -0.380503 -0.350148 -0.855929 -0.724834 -0.476344 -0.497706 
0.45209 -0.284778 -0.84529 0.452586 -0.266786 -0.850877 0.605656 -0.395626 -0.690407 
-0.493109 -0.224737 -0.840439 -0.560393 -0.116043 -0.820057 -0.614658 -0.26622 -0.742511 
0.482245 -0.235553 -0.843774 0.848737 -0.249426 -0.466295 -0.574907 -0.0725054 -0.815 
-0.927672 -0.0467925 -0.370454 -0.560069 0.140076 -0.816518 0.550906 0.0262059 -0.834156 
0.868739 0.0607509 -0.491531 -0.541095 0.22448 -0.810447 -0.562431 0.234696 -0.792836 
0.574696 0.251713 -0.778695 0.555646 0.332919 -0.761855 0.888429 0.285996 -0.359025 
-0.50835 0.351607 -0.7861 -0.722979 0.476089 -0.50064 -0.429086 0.45338 -0.781237 
0.520094 0.429497 -0.738265 0.451193 0.541599 -0.709292 0.636026 0.5535 -0.537689 
-0.380812 0.507858 -0.772698 -0.527298 0.674037 -0.517331 -0.37709 0.514881 -0.76987 
-0.32863 0.599663 -0.729662 0.301282 0.680849 -0.667588 0.397044 0.621992 -0.674894 
0.368812 0.63291 -0.680737 0.51588 0.755214 -0.404376 -0.451545 0.830465 -0.326243 
-0.311514 0.630158 -0.711238 -0.346539 0.676688 -0.649619 -0.245148 0.665184 -0.705289 
-0.133562 0.736699 -0.662899 -0.0151581 0.758887 -0.651046 0.0628343 0.706349 -0.705069 
0.0752895 0.683035 -0.726495 0.132438 0.692337 -0.709316 0.268832 0.693085 -0.668851 
0.242716 0.686486 -0.685438 0.351307 0.855326 -0.38079 -0.0267259 0.969897 -0.242046 
0.0464517 0.971264 -0.233428 -0.426709 -0.796995 -0.427456 -0.218876 -0.889987 -0.400021 
-0.112758 -0.917897 -0.380462 -0.057491 -0.930641 -0.361389 5.14125e-05 -0.996534 0.0831892 
0.00741724 -0.967709 -0.25196 0.139478 -0.979941 -0.142342 0.230679 -0.970487 -0.070303 
0.27776 -0.958193 -0.068673 0.356359 -0.930243 -0.087498 -0.506217 -0.751617 -0.422865 
-0.579508 -0.691133 -0.431864 0.376095 -0.922082 -0.0911934 0.348855 -0.935617 0.0540481 
0.501512 -0.85052 -0.158435 -0.666036 -0.607674 -0.432583 -0.674824 -0.587666 -0.446386 
0.610591 -0.763132 -0.211679 0.629993 -0.742245 -0.228431 -0.688295 -0.565422 -0.454475 
-0.754994 -0.513387 -0.407944 0.712256 -0.654078 -0.254701 0.721022 -0.639093 -0.267745 
-0.766519 -0.495244 -0.40888 0.807589 -0.481351 -0.340736 0.89074 -0.327202 -0.315468 
-0.866718 -0.313005 -0.388366 -0.938031 -0.0971349 -0.33266 0.915664 -0.24187 -0.321028 
-0.944231 -0.0440951 -0.326319 -0.944839 0.0612074 -0.321764 0.942528 0.0533367 -0.329843 
-0.900521 0.290868 -0.3232 0.902314 0.285821 -0.322699 0.891151 0.32083 -0.320808 
-0.785314 0.520675 -0.334932 -0.734523 0.602656 -0.3119 0.737407 0.60724 -0.295789 
0.665747 0.694406 -0.273096 -0.638892 0.707144 -0.302926 -0.574623 0.750789 -0.325766 
0.430543 0.87999 -0.200624 0.575492 0.791714 -0.204932 0.526586 0.830051 -0.183638 
-0.456104 0.833273 -0.312451 -0.451502 0.835745 -0.312532 -0.341567 0.901279 -0.266511 
-0.228032 0.94737 -0.224703 -0.12168 0.969582 -0.21238 0.119322 0.977161 -0.175835 
0.19941 0.970546 -0.135191 0.272525 0.954011 -0.12487 0.393619 0.903912 -0.167355 
0.3541 0.924819 -0.139004 -0.106814 0.972099 -0.208838 -0.12362 0.978391 -0.165737 
-0.0242919 0.981007 -0.192446 0.0815813 0.980098 -0.180978 0.0456519 0.98038 -0.191758 
0.00198445 -0.995116 0.0986898 -0.396848 -0.914757 0.0757047 -0.211442 -0.974255 0.0782299 
-0.00633756 -0.995426 0.0953228 -0.0951739 -0.993472 0.0628911 0.0120044 -0.994384 0.105145 
0.00304228 -0.994465 0.105023 0.129383 -0.974168 0.185084 0.255275 -0.920816 0.294842 
0.267567 -0.898575 0.347807 0.258789 -0.896046 0.360735 -0.581657 -0.811887 0.0501536 
-0.61423 -0.787778 0.0461311 0.245704 -0.791706 0.559313 0.28534 -0.895402 0.341812 
0.24864 -0.874841 0.415729 0.310786 -0.894346 0.321804 0.438417 -0.860125 0.260723 
-0.742295 -0.66645 0.0695848 -0.747283 -0.661024 0.0679444 0.535521 -0.811978 0.232182 
0.38292 -0.7465 0.544159 0.573714 -0.790202 0.215485 -0.795301 -0.603315 0.059218 
-0.81368 -0.578047 0.0615332 0.687947 -0.704481 0.174457 0.69929 -0.694286 0.170175 
-0.861127 -0.50337 0.0712689 0.849487 -0.510076 0.134887 0.90536 -0.406527 0.122713 
-0.964642 -0.233537 0.122171 -0.97983 -0.11075 0.166337 0.953902 -0.284196 0.0964565 
0.834482 -0.298115 0.463429 -0.98198 -0.0306085 0.186491 -0.96924 0.168299 0.179578 
-0.968001 -0.024437 0.249752 0.994541 0.0508596 0.0911149 -0.94426 0.282563 0.168913 
0.944569 0.317417 0.0838847 0.900155 0.426629 0.0877962 0.910309 0.303252 0.281736 
-0.825211 0.550296 0.127285 -0.745514 0.649686 0.148719 -0.653075 0.53721 0.533758 
0.75811 0.647064 0.0810997 0.658668 0.748691 0.0749524 -0.683712 0.716053 0.140735 
-0.604761 0.786117 0.127609 0.405607 0.909371 0.0923428 0.542121 0.835888 0.0859966 
0.489478 0.866734 0.0958347 0.515029 0.805916 0.291965 -0.485884 0.867171 0.109227 
-0.448791 0.88784 0.101622 -0.472159 0.840065 0.267125 -0.323516 0.941935 0.0899744 
-0.215116 0.972269 0.0917536 0.173951 0.984167 0.0340192 0.242324 0.967674 0.0699025 
0.28316 0.952737 0.110059 0.347862 0.933626 0.0856429 0.319325 0.943873 0.0844659 
-0.148653 0.986603 0.0672012 -0.129863 0.98957 0.0623475 -0.140895 0.979491 0.144032 
-0.0190066 0.998837 0.0443007 -0.0518841 0.96202 0.268004 0.137994 0.989989 0.0296555 
0.0729273 0.997022 0.0250633 0.0382078 0.964054 0.262946 -0.374416 -0.733892 0.566758 
-0.200746 -0.772963 0.601855 -0.0715621 -0.798344 0.597935 0.0714244 -0.775503 0.627291 
0.175595 -0.727766 0.662965 0.234259 -0.69237 0.682457 -0.404962 -0.720179 0.563337 
-0.525242 -0.644113 0.556093 -0.368968 -0.699697 0.61179 -0.158173 -0.631081 0.75942 
-0.0499582 -0.554219 0.83087 0.0574276 -0.5565 0.828861 0.158725 -0.577384 0.800896 
0.228068 -0.704187 0.672388 0.223374 -0.659236 0.717992 0.207615 -0.717866 0.664503 
0.189138 -0.757582 0.624737 0.242746 -0.745013 0.621313 -0.598243 -0.588736 0.543595 
-0.636285 -0.546593 0.544406 -0.458078 -0.507217 0.729997 -0.236339 -0.353756 0.904987 
-0.114686 -0.296012 0.948274 8.96341e-05 -0.258921 0.965898 0.0544289 -0.254693 0.965489 
0.0991905 -0.298378 0.94928 0.0841644 -0.372513 0.924202 0.0823912 -0.514922 0.853269 
0.135058 -0.618077 0.774429 0.338639 -0.724596 0.600237 0.230524 -0.681592 0.694472 
0.365918 -0.712144 0.599128 0.496403 -0.651007 0.574259 -0.648577 -0.521649 0.554284 
-0.684381 -0.454917 0.569802 -0.546964 -0.482869 0.683862 -0.279319 -0.287687 0.916088 
-0.157738 -0.194141 0.968209 0.00766767 -0.228851 0.973431 0.162403 -0.370877 0.914372 
0.281024 -0.494207 0.82267 0.53151 -0.633499 0.562296 0.461369 -0.595919 0.657281 
0.632471 -0.552059 0.543333 -0.68892 -0.44605 0.571339 -0.678366 -0.444728 0.584839 
-0.408085 -0.240761 0.880625 0.332385 -0.410382 0.84918 0.681744 -0.502772 0.531456 
0.588542 -0.484096 0.647509 -0.784478 -0.227665 0.576856 -0.592871 -0.218165 0.775183 
-0.291197 -0.045627 0.955574 -0.140933 -0.0337909 0.989442 0.797401 -0.295011 0.526422 
0.519917 -0.279165 0.807312 0.862529 0.0181057 0.505684 -0.794038 0.00591852 0.607839 
-0.510264 0.0145368 0.859895 -0.271943 0.0189676 0.962126 0.863622 0.0420246 0.502386 
0.863715 0.0482823 0.501662 0.862604 0.0419224 0.50414 -0.739604 0.255504 0.622659 
-0.609665 0.47117 0.637423 -0.555841 0.274075 0.784808 -0.346858 0.117116 0.930577 
0.84028 0.284714 0.461376 0.573469 0.173188 0.800712 -0.587551 0.49871 0.637237 
-0.437259 0.341868 0.831824 -0.206821 0.288809 0.934781 0.51516 0.805295 0.293445 
0.704826 0.600384 0.377834 0.66389 0.653942 0.36278 0.653642 0.582594 0.483049 
-0.559439 0.591135 0.581023 -0.558859 0.591563 0.581145 -0.558435 0.590816 0.582312 
-0.467752 0.690826 0.551332 -0.386411 0.458769 0.800136 -0.241467 0.30305 0.921875 
0.514909 0.805514 0.293286 0.426401 0.85852 0.284826 0.376508 0.618042 0.69012 
-0.431703 0.744028 0.509955 -0.343219 0.798447 0.494655 -0.33619 0.689995 0.641002 
-0.243248 0.855791 0.456565 -0.1964 0.580217 0.790427 -0.170173 0.887608 0.428011 
-0.148575 0.50204 0.851987 -0.0653088 0.932203 0.355996 0.0355638 0.959214 0.280435 
0.158504 0.956634 0.244395 0.2653 0.936909 0.227635 0.284909 0.930562 0.229957 
0.283317 0.794058 0.537777 0.350229 0.902815 0.24953 0.342191 0.906135 0.248645 
0.341714 0.897937 0.277383 -0.100196 -0.219192 0.970523 0.00102162 -0.16506 0.986283 
0.0385033 -0.204737 0.978059 0.0562344 -0.245341 0.967804 -0.0274941 -0.268677 0.962838 
0.0611807 -0.322987 0.944424 -0.152275 -0.197689 0.968365 -0.121989 -0.140379 0.982554 
-0.109729 -0.16061 0.9809 -0.0675388 -0.062469 0.995759 0.000877511 -0.0546445 0.998505 
0.00745867 -0.120358 0.992702 0.00945769 -0.228902 0.973403 0.0416494 -0.23075 0.972121 
0.00440017 -0.229489 0.973301 0.00835001 -0.229303 0.973319 -0.037728 -0.236965 0.970785 
0.112704 -0.323567 0.939469 0.0464617 -0.268331 0.962206 0.132549 -0.333977 0.933215 
0.186163 -0.371148 0.909721 -0.198944 -0.191701 0.961079 -0.136563 -0.180467 0.974054 
-0.00971589 -0.0934643 0.995575 0.0295145 0.0240987 0.999274 -0.131562 -0.0252391 0.990987 
-0.058384 0.0384061 0.997555 -0.129359 -0.120166 0.98429 -0.0134164 -0.0857869 0.996223 
0.057384 -0.267375 0.961882 0.0119447 -0.128787 0.9916 -0.00802562 -0.116408 0.993169 
0.0349217 -0.234316 0.971533 0.239873 -0.367987 0.898358 0.146218 -0.323056 0.935016 
0.304737 -0.365561 0.879489 -0.198514 -0.0353535 0.97946 -0.114859 -0.0310297 0.992897 
0.0323281 -0.0134601 0.999387 -0.108366 -0.0281094 0.993714 0.0655432 0.00308156 0.997845 
-0.140856 -0.0362751 0.989365 -0.14509 -0.0378747 0.988693 -0.111396 -0.135705 0.984467 
-0.119434 0.105503 0.987221 -0.0345637 -0.172452 0.984411 0.116457 -0.109882 0.987099 
-0.070141 -0.118312 0.990496 -0.0643004 -0.172918 0.982835 0.083694 -0.217251 0.972521 
0.426137 -0.277591 0.861017 0.264512 -0.265104 0.927229 0.537973 -0.067964 0.840218 
-0.206548 -0.00481873 0.978425 -0.101054 -0.0303853 0.994417 0.0242264 -0.0430861 0.998778 
0.00637943 -0.0416405 0.999112 -0.212163 -0.106449 0.971419 0.0197467 -0.0570433 0.998176 
-0.0595705 -0.129734 0.989758 -0.131779 0.0158749 0.991152 0.0697038 -0.0846019 0.993974 
-0.0768472 -0.120276 0.989762 -0.0653559 -0.100342 0.992804 0.0588333 -0.0952944 0.993709 
0.253281 -0.0726654 0.96466 0.542427 -0.0527324 0.838447 0.5608 0.0692808 0.825048 
0.538998 -0.0532476 0.840622 -0.265921 0.0893706 0.959843 -0.198917 0.255052 0.946245 
-0.163443 0.0612336 0.984651 0.0140906 0.0150037 0.999788 0.00586854 -0.0669843 0.997737 
-0.148905 -0.0442567 0.987861 -0.116244 0.107542 0.987381 -0.0431574 -0.127624 0.990883 
-0.0196045 0.0222855 0.999559 -0.0201546 -0.0899885 0.995739 -0.0843858 -0.0895091 0.992405 
-0.0414851 -0.0463582 0.998063 0.103399 0.024974 0.994326 0.567886 0.171523 0.805038 
0.302862 0.107223 0.946984 -0.184418 0.249828 0.950566 -0.221616 0.272405 0.936313 
-0.111652 0.119801 0.9865 -0.0614544 0.00170308 0.998108 -0.0293403 0.0211087 0.999347 
-0.0801032 0.0971519 0.992041 -0.135789 0.0219269 0.990495 -0.094292 -0.0175763 0.995389 
-0.0436567 -0.0314683 0.998551 -0.0325447 0.0207662 0.999255 0.0521524 0.120628 0.991327 
0.371277 0.6046 0.704707 0.208354 0.293132 0.933093 0.473457 0.467952 0.74623 
0.447413 0.510171 0.734539 0.427103 0.43985 0.79001 -0.219079 0.290797 0.931366 
-0.119071 0.313808 0.941991 -0.0937376 0.22853 0.969014 -0.0986726 0.327775 0.939589 
-0.0523442 0.180194 0.982237 -0.111017 0.116402 0.986978 -0.159557 0.103064 0.981794 
-0.073498 0.136017 0.987976 0.021625 0.188936 0.981751 0.261038 0.697352 0.667502 
0.0824223 0.305231 0.948705 0.369716 0.608989 0.701743 0.289135 0.667765 0.685924 
0.243394 0.505469 0.827805 -0.160973 0.411705 0.896988 -0.162387 0.416718 0.894414 
-0.162324 0.404922 0.899827 -0.0921478 0.546191 0.832577 -0.11222 0.424321 0.898531 
0.047319 0.655457 0.753749 0.00922085 0.517411 0.855687 0.239229 0.712349 0.659794 
0.178084 0.697018 0.694588 0.154532 0.62871 0.762131 
