# vtk DataFile Version 4.2
vtk output
ASCII
DATASET POLYDATA
POINTS 560 float
-29.1442 -33.9432 -12.3146 -21.7804 -33.9432 -13.3205 -14.4166 -33.9432 -13.2699 
-7.05275 -33.9432 -13.0472 0.311048 -33.9432 -12.8611 7.67485 -33.9432 -12.1274 
15.0386 -33.9432 -11.7506 29.7662 -33.9432 -11.9598 -36.508 -26.5794 -13.6706 
-29.1442 -26.5794 -15.1491 -21.7804 -26.5794 -15.6182 -14.4166 -26.5794 -16.1986 
-7.05275 -26.5794 -16.0893 0.311048 -26.5794 -16.2652 7.67485 -26.5794 -15.6319 
15.0386 -26.5794 -15.4401 22.4024 -26.5794 -15.7054 29.7662 -26.5794 -16.7004 
37.1301 -26.5794 -15.6921 44.4939 -26.5794 -16.3318 51.8577 -26.5794 -11.5976 
-43.8718 -19.2156 -11.6722 -36.508 -19.2156 -14.1777 -29.1442 -19.2156 -15.5911 
-21.7804 -19.2156 -16.0324 -14.4166 -19.2156 -16.3792 -7.05275 -19.2156 -16.8908 
0.311048 -19.2156 -17.1725 7.67485 -19.2156 -16.822 15.0386 -19.2156 -16.7798 
22.4024 -19.2156 -17.0859 29.7662 -19.2156 -17.7017 37.1301 -19.2156 -18.4215 
44.4939 -19.2156 -16.5143 51.8577 -19.2156 -15.1349 -43.8718 -11.8518 -11.6993 
-36.508 -11.8518 -14.1405 -29.1442 -11.8518 -15.3242 -21.7804 -11.8518 -15.476 
-14.4166 -11.8518 -15.1998 -7.05275 -11.8518 -16.3593 0.311048 -11.8518 -17.2358 
7.67485 -11.8518 -16.9586 15.0386 -11.8518 -16.6862 22.4024 -11.8518 -17.1281 
29.7662 -11.8518 -17.9976 37.1301 -11.8518 -17.993 44.4939 -11.8518 -17.2649 
51.8577 -11.8518 -17.0044 -36.508 -4.48803 -13.4224 -29.1442 -4.48803 -14.6753 
-21.7804 -4.48803 -14.9413 -14.4166 -4.48803 -14.0934 -7.05275 -4.48803 -16.1826 
0.311048 -4.48803 -15.2415 7.67485 -4.48803 -17.8302 15.0386 -4.48803 -16.4454 
22.4024 -4.48803 -16.2212 29.7662 -4.48803 -17.2138 37.1301 -4.48803 -17.7741 
44.4939 -4.48803 -17.5162 51.8577 -4.48803 -17.0833 -36.508 2.87577 -12.0451 
-29.1442 2.87577 -13.5151 -21.7804 2.87577 -14.3535 -14.4166 2.87577 -15.1627 
-7.05275 2.87577 -16.4658 0.311048 2.87577 -15.5356 7.67485 2.87577 -18.7787 
15.0386 2.87577 -16.401 22.4024 2.87577 -16.6067 29.7662 2.87577 -17.4702 
37.1301 2.87577 -17.5794 44.4939 2.87577 -16.9281 51.8577 2.87577 -14.641 
-29.1442 10.2396 -11.7729 -21.7804 10.2396 -12.673 -14.4166 10.2396 -13.9581 
-7.05275 10.2396 -15.6757 0.311048 10.2396 -15.6674 7.67485 10.2396 -15.305 
15.0386 10.2396 -16.0299 22.4024 10.2396 -17.0886 29.7662 10.2396 -17.8731 
37.1301 10.2396 -17.435 44.4939 10.2396 -15.9634 51.8577 10.2396 -11.9116 
-21.7804 17.6034 -11.7847 -14.4166 17.6034 -13.2385 -7.05275 17.6034 -14.385 
0.311048 17.6034 -14.8905 7.67485 17.6034 -15.4323 15.0386 17.6034 -16.3616 
22.4024 17.6034 -17.5798 29.7662 17.6034 -18.1296 37.1301 17.6034 -17.7944 
44.4939 17.6034 -14.4533 -14.4166 24.9672 -13.2261 -7.05275 24.9672 -14.4628 
0.311048 24.9672 -15.3798 7.67485 24.9672 -16.1825 15.0386 24.9672 -16.8204 
22.4024 24.9672 -17.5012 29.7662 24.9672 -16.9019 37.1301 24.9672 -15.3145 
-14.4166 32.331 -12.1929 -7.05275 32.331 -14.0855 0.311048 32.331 -15.0023 
7.67485 32.331 -15.8732 15.0386 32.331 -16.222 22.4024 32.331 -16.6479 
29.7662 32.331 -14.6579 -7.05275 39.6948 -11.963 0.311048 39.6948 -13.5408 
7.67485 39.6948 -13.7617 15.0386 39.6948 -14.3385 22.4024 39.6948 -12.5113 
-29.1442 -35.0227 -11.5838 -21.7804 -36.1785 -11.5838 -14.4166 -36.0076 -11.5838 
-7.05275 -35.6446 -11.5838 0.311048 -35.348 -11.5838 7.67485 -34.5313 -11.5838 
15.0386 -34.1114 -11.5838 29.7662 -34.3943 -11.5838 -43.8718 -33.9432 -4.68738 
-31.4883 -33.9432 -11.5838 -36.508 -30.9584 -11.5838 -36.508 -33.9432 -9.55088 
18.4569 -33.9432 -11.5838 24.783 -33.9432 -11.5838 22.4024 -33.6591 -11.5838 
22.4024 -33.9432 -11.2767 32.3564 -33.9432 -11.5838 37.1301 -32.8902 -11.5838 
37.1301 -33.9432 -10.3621 44.4939 -33.0285 -11.5838 44.4939 -33.9432 -10.0537 
51.8577 -26.6 -11.5838 -42.1734 -26.5794 -11.5838 -43.8718 -20.0021 -11.5838 
-43.8718 -26.5794 -10.5521 51.8781 -26.5794 -11.5838 -44.0058 -19.2156 -11.5838 
-51.2356 -19.2156 -6.64124 58.3608 -19.2156 -11.5838 59.2215 -19.2156 -10.233 
-44.1404 -11.8518 -11.5838 -51.2356 -11.8518 -7.6418 -43.8718 -10.6715 -11.5838 
58.8539 -11.8518 -11.5838 59.2215 -11.8518 -10.9258 -51.2356 -4.48803 -6.6571 
-42.1694 -4.48803 -11.5838 -43.8718 -4.48803 -10.9825 57.2915 -4.48803 -11.5838 
59.2215 -4.48803 -6.26358 -51.2356 2.87577 -6.26354 -37.8917 2.87577 -11.5838 
-43.8718 2.87577 -9.57355 -36.508 4.66613 -11.5838 54.8774 2.87577 -11.5838 
-43.8718 10.2396 -7.36765 -30.0025 10.2396 -11.5838 -36.508 10.2396 -10.061 
-29.1442 11.1506 -11.5838 52.1317 10.2396 -11.5838 51.8577 10.8855 -11.5838 
-36.508 17.6034 -7.59189 -22.7828 17.6034 -11.5838 -29.1442 17.6034 -10.1776 
-21.7804 19.9063 -11.5838 48.4401 17.6034 -11.5838 44.4939 22.617 -11.5838 
-36.508 24.9672 -4.75129 -29.1442 24.9672 -8.53343 -20.1841 24.9672 -11.5838 
-21.7804 24.9672 -11.1413 42.6221 24.9672 -11.5838 37.1301 30.656 -11.5838 
-29.1442 32.331 -6.47907 -16.2353 32.331 -11.5838 -21.7804 32.331 -9.74572 
-14.4166 34.2505 -11.5838 35.1855 32.331 -11.5838 29.7662 36.5632 -11.5838 
-21.7804 39.6948 -6.38636 -8.39049 39.6948 -11.5838 -14.4166 39.6948 -9.59654 
-7.05275 40.509 -11.5838 0.311048 42.6064 -11.5838 7.67485 42.8619 -11.5838 
15.0386 43.2099 -11.5838 24.4394 39.6948 -11.5838 22.4024 40.8274 -11.5838 
-7.05275 47.0586 -6.4501 0.311048 47.0586 -6.7654 7.67485 47.0586 -6.7052 
-43.8718 -34.2873 -4.21997 -36.508 -38.3696 -4.21997 -29.1442 -40.7344 -4.21997 
-21.7804 -40.7672 -4.21997 -14.4166 -40.2859 -4.21997 -7.05275 -39.902 -4.21997 
0.311048 -39.4137 -4.21997 7.67485 -38.6452 -4.21997 15.0386 -37.7593 -4.21997 
22.4024 -37.6493 -4.21997 29.7662 -38.1227 -4.21997 37.1301 -37.0303 -4.21997 
44.4939 -35.7898 -4.21997 -44.2646 -33.9432 -4.21997 48.3242 -33.9432 -4.21997 
44.4939 -33.9432 0.887604 51.8577 -32.2139 -4.21997 -50.1664 -26.5794 -4.21997 
-51.2356 -24.7525 -4.21997 -51.2356 -26.5794 -1.58955 57.425 -26.5794 -4.21997 
59.2215 -22.87 -4.21997 -53.442 -19.2156 -4.21997 60.8947 -19.2156 -4.21997 
59.2215 -19.2156 -0.263901 -54.4993 -11.8518 -4.21997 -58.5994 -11.8518 3.08148 
61.1723 -11.8518 -4.21997 59.2215 -11.8518 -0.316424 -53.8089 -4.48803 -4.21997 
-58.5994 -4.48803 3.12241 59.7232 -4.48803 -4.21997 59.2215 -2.71831 -4.21997 
59.2215 -4.48803 -3.22891 -53.4723 2.87577 -4.21997 -51.2356 9.30656 -4.21997 
57.6355 2.87577 -4.21997 -50.4638 10.2396 -4.21997 -51.2356 10.2396 -3.68262 
-43.8718 16.873 -4.21997 53.6794 10.2396 -4.21997 51.8577 13.2767 -4.21997 
51.8577 10.2396 -1.21405 -43.3098 17.6034 -4.21997 -43.8718 17.6034 -3.87813 
49.1201 17.6034 -4.21997 44.4939 24.1276 -4.21997 44.4939 17.6034 2.43445 
-37.3783 24.9672 -4.21997 -43.8718 24.9672 1.33388 -36.508 26.1472 -4.21997 
43.8282 24.9672 -4.21997 37.1301 32.3084 -4.21997 -32.2257 32.331 -4.21997 
-36.508 32.331 0.0665043 -29.1442 35.7113 -4.21997 37.1071 32.331 -4.21997 
29.7662 38.8275 -4.21997 -24.8655 39.6948 -4.21997 -29.1442 39.6948 0.503124 
-21.7804 41.6938 -4.21997 -14.4166 46.0237 -4.21997 15.0386 46.716 -4.21997 
28.5839 39.6948 -4.21997 22.4024 43.7135 -4.21997 -11.7422 47.0586 -4.21997 
-14.4166 47.0586 -0.102297 -7.05275 48.3256 -4.21997 0.311048 48.6513 -4.21997 
13.5629 47.0586 -4.21997 7.67485 48.3647 -4.21997 -43.8718 -35.6927 3.14383 
-36.508 -39.4483 3.14383 -29.1442 -41.2885 3.14383 -21.7804 -41.1786 3.14383 
-14.4166 -40.6227 3.14383 -7.05275 -40.1869 3.14383 0.311048 -39.5562 3.14383 
7.67485 -38.5666 3.14383 15.0386 -36.9256 3.14383 22.4024 -36.1577 3.14383 
29.7662 -35.5251 3.14383 37.1301 -35.0425 3.14383 -46.0658 -33.9432 3.14383 
-51.2356 -28.4336 3.14383 -43.8718 -33.9432 7.38779 15.0386 -33.9432 7.67053 
22.4024 -33.9432 6.32527 29.7662 -33.9432 5.25962 41.4478 -33.9432 3.14383 
37.1301 -33.9432 4.71326 44.4939 -33.0201 3.14383 51.8577 -28.2333 3.14383 
-52.7436 -26.5794 3.14383 -51.2356 -26.5794 7.19035 29.7662 -26.5794 10.2594 
37.1301 -26.5794 9.29578 44.4939 -26.5794 8.49688 53.4361 -26.5794 3.14383 
51.8577 -26.5794 4.50019 -56.1614 -19.2156 3.14383 -58.5994 -11.9306 3.14383 
44.4939 -19.2156 9.80449 57.4435 -19.2156 3.14383 51.8577 -19.2156 7.48015 
-58.6243 -11.8518 3.14383 -58.5994 -11.8518 3.33276 44.4939 -11.8518 10.3348 
56.5153 -11.8518 3.14383 51.8577 -11.8518 6.79951 -58.6089 -4.48803 3.14383 
-58.5994 -4.39913 3.14383 -58.5994 -4.48803 3.21262 44.4939 -4.48803 10.1777 
55.419 -4.48803 3.14383 51.8577 -4.48803 6.96452 -57.763 2.87577 3.14383 
44.4939 2.87577 8.1431 53.1459 2.87577 3.14383 51.8577 5.17269 3.14383 
51.8577 2.87577 4.32701 -55.1418 10.2396 3.14383 -51.2356 16.9602 3.14383 
37.1301 10.2396 9.27545 47.938 10.2396 3.14383 44.4939 16.3686 3.14383 
44.4939 10.2396 5.61677 -50.7996 17.6034 3.14383 43.7009 17.6034 3.14383 
37.1301 17.6034 7.21763 -45.1786 24.9672 3.14383 -43.8718 26.572 3.14383 
-43.8718 24.9672 10.1752 29.7662 24.9672 8.91292 38.5958 24.9672 3.14383 
37.1301 26.782 3.14383 37.1301 24.9672 4.38962 -38.7264 32.331 3.14383 
-36.508 34.6861 3.14383 -36.508 32.331 10.4809 22.4024 32.331 9.62852 
32.1756 32.331 3.14383 29.7662 34.6712 3.14383 29.7662 32.331 5.11206 
-30.889 39.6948 3.14383 -29.1442 41.0295 3.14383 -29.1442 39.6948 6.82935 
-21.7804 45.2071 3.14383 15.0386 44.5314 3.14383 15.0386 39.6948 8.63064 
23.7547 39.6948 3.14383 22.4024 40.6612 3.14383 22.4024 39.6948 4.20003 
-16.2524 47.0586 3.14383 -14.4166 47.6325 3.14383 -14.4166 47.0586 4.87819 
-7.05275 48.6874 3.14383 -7.05275 47.0586 7.03452 0.311048 48.8306 3.14383 
0.311048 47.0586 6.48122 8.99164 47.0586 3.14383 7.67485 47.4937 3.14383 
7.67485 47.0586 3.97704 -36.508 -35.8054 10.5076 -29.1442 -37.9368 10.5076 
-21.7804 -38.0755 10.5076 -14.4166 -38.0115 10.5076 -7.05275 -36.9115 10.5076 
0.311048 -36.147 10.5076 7.67485 -34.7842 10.5076 -40.6683 -33.9432 10.5076 
-43.8718 -31.9134 10.5076 -36.508 -33.9432 12.6664 -29.1442 -33.9432 14.0599 
-21.7804 -33.9432 14.6075 -14.4166 -33.9432 14.0148 -7.05275 -33.9432 13.3375 
0.311048 -33.9432 12.6369 9.73469 -33.9432 10.5076 7.67485 -33.9432 11.358 
15.0386 -29.748 10.5076 22.4024 -26.9069 10.5076 -49.3814 -26.5794 10.5076 
[...]
POINT_DATA 560
SCALARS ImageScalars float
LOOKUP_TABLE default
0 0 0 0 0 0 0 0 0 
0 0 0 0 0 0 0 0 0 
0 0 0 0 0 0 0 0 0 
0 0 0 0 0 0 0 0 0 
0 0 0 0 0 0 0 0 0 
0 0 0 0 0 0 0 0 0 
0 0 0 0 0 0 0 0 0 
0 0 0 0 0 0 0 0 0 
0 0 0 0 0 0 0 0 0 
0 0 0 0 0 0 0 0 0 
0 0 0 0 0 0 0 0 0 
0 0 0 0 0 0 0 0 0 
0 0 0 0 0 0 0 0 0 
0 0 0 0 0 0 0 0 0 
0 0 0 0 0 0 0 0 0 
0 0 0 0 0 0 0 0 0 
0 0 0 0 0 0 0 0 0 
0 0 0 0 0 0 0 0 0 
0 0 0 0 0 0 0 0 0 
0 0 0 0 0 0 0 0 0 
0 0 0 0 0 0 0 0 0 
0 0 0 0 0 0 0 0 0 
0 0 0 0 0 0 0 0 0 
0 0 0 0 0 0 0 0 0 
0 0 0 0 0 0 0 0 0 
0 0 0 0 0 0 0 0 0 
0 0 0 0 0 0 0 0 0 
0 0 0 0 0 0 0 0 0 
0 0 0 0 0 0 0 0 0 
0 0 0 0 0 0 0 0 0 
0 0 0 0 0 0 0 0 0 
0 0 0 0 0 0 0 0 0 
0 0 0 0 0 0 0 0 0 
0 0 0 0 0 0 0 0 0 
0 0 0 0 0 0 0 0 0 
0 0 0 0 0 0 0 0 0 
0 0 0 0 0 0 0 0 0 
0 0 0 0 0 0 0 0 0 
0 0 0 0 0 0 0 0 0 
0 0 0 0 0 0 0 0 0 
0 0 0 0 0 0 0 0 0 
0 0 0 0 0 0 0 0 0 
0 0 0 0 0 0 0 0 0 
0 0 0 0 0 0 0 0 0 
0 0 0 0 0 0 0 0 0 
0 0 0 0 0 0 0 0 0 
0 0 0 0 0 0 0 0 0 
0 0 0 0 0 0 0 0 0 
0 0 0 0 0 0 0 0 0 
0 0 0 0 0 0 0 0 0 
0 0 0 0 0 0 0 0 0 
0 0 0 0 0 0 0 0 0 
0 0 0 0 0 0 0 0 0 
0 0 0 0 0 0 0 0 0 
0 0 0 0 0 0 0 0 0 
0 0 0 0 0 0 0 0 0 
0 0 0 0 0 0 0 0 0 
0 0 0 0 0 0 0 0 0 
0 0 0 0 0 0 0 0 0 
0 0 0 0 0 0 0 0 0 
0 0 0 0 0 0 0 0 0 
0 0 0 0 0 0 0 0 0 
0 0 
NORMALS Normals float
0.204423 0.499976 0.841567 0.0632517 0.510624 0.857474 -0.0174672 0.553881 0.832413 
-0.0244917 0.586037 0.809914 -0.0552566 0.625562 0.778215 -0.0680645 0.653092 0.754214 
-0.0448229 0.695617 0.717013 -0.0269999 0.661866 0.749135 0.270011 0.236072 0.933469 
0.135492 0.211318 0.967981 0.0673919 0.168017 0.983478 0.0309853 0.175054 0.984071 
0.00440724 0.232088 0.972685 -0.0307332 0.261531 0.964706 -0.0533572 0.277197 0.95933 
0.00449264 0.299037 0.954231 0.0720242 0.333798 0.939889 0.00367915 0.351948 0.936012 
-0.0279671 0.408958 0.912125 -0.220728 0.342152 0.913352 -0.483308 0.455219 0.747789 
0.461379 0.0524798 0.88565 0.239692 0.031999 0.970322 0.119299 0.00999642 0.992808 
0.0533019 -0.0104521 0.998524 0.057192 -0.0683811 0.996019 0.0549613 0.0193391 0.998301 
-0.00524161 0.0628388 0.99801 -0.0268177 0.0881323 0.995748 0.0172342 0.0772855 0.99686 
0.0625225 0.0927366 0.993726 0.0916302 0.0746698 0.99299 -0.0704801 0.126731 0.98943 
-0.204341 0.0573362 0.977219 -0.377496 0.307559 0.873444 0.368278 -0.0438189 0.928682 
0.2284 -0.0499864 0.972283 0.0881482 -0.0620886 0.99417 -0.00845157 -0.0747706 0.997165 
0.0558808 -0.157258 0.985975 0.143492 -0.0472452 0.988523 0.0372587 -0.114033 0.992778 
-0.0367048 0.062022 0.9974 0.0115054 -0.0216828 0.999699 0.0841588 -0.0588357 0.994714 
0.0612388 -0.0349815 0.99751 -0.0472124 -0.0440548 0.997913 -0.0639941 0.0676436 0.995655 
-0.37242 0.103004 0.92233 0.230834 -0.136211 0.963412 0.100392 -0.120646 0.987606 
-0.0393675 -0.0745335 0.996441 0.0611454 -0.00534124 0.998115 0.0956517 0.00876994 0.995376 
0.114261 -0.127287 0.985263 0.0716287 0.129113 0.98904 -0.106887 -0.0206441 0.994057 
0.0541516 -0.0361572 0.997878 0.104957 -0.0317573 0.99397 0.0212921 -0.0280259 0.99938 
-0.0387659 -0.0224692 0.998996 -0.413131 -0.111401 0.903832 0.249986 -0.207445 0.945766 
0.150423 -0.189711 0.970249 0.10799 -0.147779 0.983107 0.144864 -0.00284672 0.989447 
0.0321586 -0.0342114 0.998897 0.159047 0.0283023 0.986865 0.032262 -0.159997 0.98659 
-0.145249 -0.0303724 0.988929 0.0700444 0.059119 0.99579 0.0668962 0.0454514 0.996724 
-0.0339986 -0.022953 0.999158 -0.158895 -0.104218 0.98178 -0.550951 -0.250997 0.795898 
0.163062 -0.216763 0.962509 0.141863 -0.176327 0.974055 0.19685 -0.130145 0.971757 
0.111875 -0.146413 0.982877 -0.025444 -0.0508241 0.998383 0.0314835 -0.222628 0.974395 
0.117742 -0.00146514 0.993043 0.127159 0.0671517 0.989607 0.0235975 0.0432409 0.998786 
-0.119309 0.0114887 0.992791 -0.321519 -0.176419 0.930323 -0.770085 -0.349664 0.533577 
0.196266 -0.0988441 0.975556 0.176285 -0.046 0.983264 0.110603 -0.0765608 0.990911 
0.0713819 -0.00955106 0.997403 0.101313 0.0596723 0.993063 0.148674 0.0547098 0.987372 
0.117686 0.0279004 0.992659 0.0181148 -0.0717187 0.99726 -0.225347 -0.134263 0.964983 
-0.540187 -0.323249 0.776987 0.219254 -0.0667038 0.973385 0.141678 -0.0206638 0.989697 
0.116051 0.00814577 0.99321 0.0972232 0.0300063 0.99481 0.0879947 -0.00854859 0.996084 
0.00369853 -0.0560529 0.998421 -0.141173 -0.224613 0.964168 -0.381059 -0.394074 0.836361 
0.282218 -0.208483 0.936423 0.179434 -0.160281 0.970625 0.121926 -0.124698 0.984675 
0.0819431 -0.148648 0.985489 0.0480137 -0.166668 0.984843 -0.0988174 -0.30719 0.946504 
-0.32661 -0.478131 0.815302 0.238835 -0.369006 0.898216 0.116878 -0.405323 0.906671 
0.0557121 -0.428644 0.901754 -0.077849 -0.470104 0.879171 -0.328378 -0.634162 0.700005 
0.202071 0.550965 0.809694 0.0435872 0.64135 0.766009 -0.0291397 0.666178 0.745223 
-0.0341708 0.680373 0.732069 -0.0609616 0.698939 0.712579 -0.0710445 0.684238 0.72579 
-0.0444739 0.705821 0.706993 -0.0329365 0.683262 0.72943 0.6112 0.671878 0.418346 
0.248375 0.521941 0.81602 0.30501 0.430181 0.849655 0.348895 0.620047 0.702719 
-0.0173594 0.697376 0.716495 -0.00108202 0.685057 0.728489 0.0152405 0.682124 0.731078 
0.0149834 0.711474 0.702553 -0.0421065 0.700432 0.712476 -0.062768 0.722987 0.688005 
-0.0826011 0.824195 0.56025 -0.248088 0.701419 0.668179 -0.269454 0.811807 0.518039 
-0.48377 0.456431 0.746751 0.467875 0.276294 0.839497 0.471657 0.0772206 0.878394 
0.552313 0.302869 0.776673 -0.484414 0.455841 0.746694 0.465027 0.0547034 0.883605 
0.702831 0.212227 0.678961 -0.713412 0.264534 0.648896 -0.818927 0.268891 0.507007 
0.375703 -0.040674 0.925847 0.62784 0.00739008 0.778308 0.369739 -0.0594601 0.927231 
-0.759918 -0.0588685 0.647348 -0.80864 -0.0674238 0.584427 0.614815 -0.0720084 0.785377 
0.343953 -0.140142 0.92847 0.384158 -0.13787 0.912915 -0.783698 -0.187818 0.592066 
-0.970199 -0.237069 0.0501292 0.582718 -0.165854 0.795571 0.273928 -0.203756 0.939919 
0.376618 -0.199321 0.904671 0.248522 -0.22901 0.941165 -0.73951 -0.289633 0.60765 
0.396849 -0.340362 0.852446 0.171996 -0.225394 0.958966 0.254895 -0.29453 0.921021 
0.176429 -0.215842 0.960357 -0.786797 -0.356044 0.504165 -0.788833 -0.366619 0.493287 
0.342846 -0.295284 0.891776 0.205538 -0.114355 0.971945 0.267982 -0.210494 0.940148 
0.230131 -0.108233 0.967122 -0.753819 -0.463946 0.465307 -0.712888 -0.544983 0.441343 
0.500705 -0.375233 0.780061 0.377497 -0.19795 0.904606 0.286331 -0.116228 0.951055 
0.303173 -0.128901 0.944177 -0.695571 -0.57633 0.428981 -0.608862 -0.67062 0.423741 
0.496165 -0.388064 0.776676 0.287727 -0.20996 0.934414 0.321527 -0.241963 0.915464 
0.282102 -0.268766 0.920969 -0.574906 -0.687254 0.444033 -0.463734 -0.709198 0.531027 
0.443434 -0.589588 0.675094 0.246864 -0.382478 0.890375 0.295949 -0.485756 0.822469 
0.236124 -0.406911 0.882422 0.0761294 -0.564262 0.822078 0.0320157 -0.600426 0.799039 
-0.111456 -0.708392 0.696963 -0.398509 -0.691959 0.601983 -0.35641 -0.685234 0.635158 
0.170963 -0.864965 0.471813 0.0105491 -0.880848 0.473281 -0.0910441 -0.929831 0.356547 
0.61335 0.685475 0.392334 0.363645 0.862979 0.350755 0.14634 0.944822 0.293079 
-0.0300219 0.968075 0.248858 -0.0566058 0.973422 0.221914 -0.0577706 0.969373 0.238704 
-0.0833159 0.970485 0.226311 -0.111532 0.970487 0.213811 -0.0666733 0.986081 0.152311 
0.0250956 0.994487 0.101811 -0.0436086 0.998407 0.0357915 -0.149099 0.986602 0.0662247 
-0.310965 0.950275 -0.0166592 0.624457 0.674158 0.394417 -0.388457 0.921097 -0.0261052 
-0.35027 0.847688 -0.398417 -0.507706 0.861521 -0.00399227 0.72525 0.479243 0.494305 
0.744392 0.418972 0.519946 0.784608 0.535644 0.312211 -0.864441 0.502493 -0.0155752 
-0.936363 0.345991 -0.0592868 0.813387 0.219604 0.53868 -0.969812 0.240016 -0.0431007 
-0.924637 0.234761 -0.299891 0.738031 0.0354812 0.673833 0.977991 0.15687 0.13757 
-0.993949 -0.0798609 -0.0754136 -0.926633 -0.114361 -0.358151 0.679315 -0.0564153 0.731675 
0.98675 -0.0542493 0.15291 -0.96474 -0.235232 -0.118079 -0.955839 -0.264719 -0.127654 
-0.953673 -0.239099 -0.182592 0.700684 -0.172195 0.692381 0.604489 -0.378426 0.70099 
-0.92141 -0.369049 -0.121678 0.579037 -0.409507 0.704996 0.618577 -0.419532 0.664345 
0.502028 -0.379035 0.777368 -0.838827 -0.524234 -0.146793 -0.830671 -0.534936 -0.154365 
-0.786146 -0.499358 -0.364164 0.501392 -0.373391 0.780503 0.52511 -0.387068 0.757917 
-0.824436 -0.543286 -0.158577 -0.762098 -0.618465 -0.191595 -0.567918 -0.44925 -0.689669 
0.522608 -0.397124 0.754436 0.70427 -0.636267 0.314909 0.529701 -0.391136 0.752615 
-0.755668 -0.627263 -0.188432 -0.692095 -0.709196 -0.134336 0.55002 -0.438599 0.71071 
0.714027 -0.579717 0.392548 0.531418 -0.503717 0.681075 -0.691917 -0.709415 -0.13409 
-0.61321 -0.786545 -0.0729394 0.492371 -0.623868 0.606926 0.591766 -0.762856 0.260508 
0.450067 -0.688467 0.56873 0.348129 -0.821444 0.451704 -0.285554 -0.955743 0.070806 
-0.589617 -0.805461 -0.0598702 -0.471899 -0.881571 -0.012021 0.281384 -0.878144 0.386894 
0.285668 -0.94791 0.140928 0.162174 -0.934837 0.315878 0.0027879 -0.95056 0.310527 
-0.25281 -0.96259 0.0975099 -0.126581 -0.974258 0.186543 0.578959 0.810196 -0.091592 
0.3292 0.936211 -0.123028 0.118168 0.983577 -0.136431 -0.0447682 0.989803 -0.135223 
-0.0671349 0.991972 -0.107166 -0.0720758 0.985394 -0.154286 -0.1072 0.979382 -0.171226 
-0.175724 0.959994 -0.218022 -0.16585 0.923803 -0.345082 -0.0925802 0.893913 -0.438576 
-0.0744187 0.860684 -0.503671 -0.147136 0.870615 -0.469448 0.646187 0.759427 -0.0755816 
0.79455 0.606662 -0.025517 0.54967 0.752121 -0.363561 -0.223576 0.735053 -0.640086 
-0.112055 0.764007 -0.635403 -0.0755658 0.779772 -0.621486 -0.270188 0.80798 -0.523609 
-0.172311 0.805963 -0.566333 -0.34665 0.750064 -0.563239 -0.553266 0.572914 -0.604703 
0.829763 0.557851 -0.0171806 0.765126 0.556833 -0.323295 -0.0887509 0.377436 -0.921773 
-0.116387 0.395113 -0.91123 -0.311929 0.445646 -0.839106 -0.623269 0.485905 -0.612725 
-0.560099 0.480871 -0.674575 0.939781 0.340572 0.0286915 0.978303 0.15879 0.133072 
-0.303743 0.120322 -0.945126 -0.789354 0.190613 -0.583598 -0.41914 0.15374 -0.894811 
0.978543 0.157039 0.133388 0.979943 0.158934 0.120213 -0.334523 0.0257893 -0.942034 
-0.734013 -0.124238 -0.667675 -0.520011 -0.0408724 -0.853181 0.987004 -0.0540355 0.151341 
0.986739 -0.0559994 0.152346 0.987727 -0.0538889 0.146598 -0.315339 -0.142731 -0.938184 
-0.731674 -0.186197 -0.655732 -0.583533 -0.160673 -0.796036 0.950636 -0.22718 0.21138 
-0.406522 -0.255301 -0.877246 -0.649037 -0.322453 -0.689039 -0.626401 -0.353361 -0.694808 
-0.593261 -0.327276 -0.735481 0.882852 -0.423475 0.203078 0.793968 -0.547744 0.263801 
-0.405662 -0.230259 -0.884545 -0.588568 -0.36818 -0.719744 -0.534379 -0.415337 -0.736162 
-0.488249 -0.325354 -0.809789 0.787315 -0.552629 0.273378 -0.532649 -0.417191 -0.736367 
-0.497991 -0.27784 -0.821468 0.74141 -0.640056 0.201595 0.728909 -0.649641 0.216005 
0.704394 -0.617555 -0.349936 -0.47137 -0.342227 -0.812829 -0.607811 -0.448356 -0.655395 
-0.5956 -0.466789 -0.653734 -0.57147 -0.427742 -0.700328 0.747095 -0.64226 0.171325 
0.72886 -0.669113 0.145088 0.597025 -0.684732 -0.417975 -0.43973 -0.427987 -0.789598 
-0.574588 -0.546213 -0.609508 -0.555334 -0.58174 -0.594292 -0.543031 -0.515267 -0.663037 
0.60469 -0.793132 0.0727418 0.572268 -0.818088 0.0569371 0.546224 -0.809256 -0.216205 
0.387369 -0.921734 0.0187616 -0.376414 -0.809116 -0.451268 -0.399725 -0.616046 -0.678755 
-0.495577 -0.682213 -0.537577 -0.479051 -0.700875 -0.528473 -0.481502 -0.667279 -0.568238 
0.2613 -0.963795 -0.0531266 0.223967 -0.971693 -0.0751794 0.20949 -0.960339 -0.184021 
0.0810385 -0.981172 -0.175312 0.0294978 -0.921296 -0.387741 -0.0789091 -0.969509 -0.232005 
-0.106461 -0.899627 -0.423482 -0.272591 -0.903741 -0.330071 -0.251034 -0.916419 -0.311702 
-0.256461 -0.899941 -0.352609 0.287756 0.762866 -0.578992 0.123046 0.776151 -0.618425 
0.00395405 0.801528 -0.597945 -0.0665401 0.796335 -0.601185 -0.101041 0.76865 -0.631639 
-0.12257 0.751804 -0.647895 -0.251978 0.683161 -0.685418 0.393793 0.707639 -0.586663 
0.491403 0.645717 -0.584442 0.266429 0.667018 -0.695774 0.0961389 0.588772 -0.802562 
-0.00367334 0.577239 -0.816567 -0.0731451 0.570201 -0.818243 -0.0822075 0.609037 -0.78887 
-0.11521 0.63392 -0.764769 -0.2519 0.643157 -0.723115 -0.254454 0.634005 -0.730267 
-0.244062 0.438506 -0.864955 -0.107471 0.383663 -0.917198 0.634925 0.508306 -0.581803 
0.698003 0.434516 -0.569199 0.434422 0.428066 -0.792488 0.141711 0.27614 -0.950613 
0.0641387 0.278562 -0.958274 -0.0171993 0.225501 -0.974091 -0.0719172 0.229328 -0.970689 
-0.0617983 0.257087 -0.96441 -0.129536 0.248277 -0.959989 -0.284887 0.240298 -0.927953 
-0.245029 0.292274 -0.924412 -0.101148 0.372029 -0.922694 -0.106103 0.37162 -0.922302 
-0.0882472 0.355812 -0.930382 -0.144389 0.309606 -0.939838 0.764722 0.343569 -0.545124 
0.658905 0.333584 -0.674215 0.265479 0.174277 -0.948234 -0.0646765 0.0689149 -0.995524 
-0.146712 0.0715601 -0.986587 -0.243709 0.0169369 -0.969701 -0.158876 0.113871 -0.98071 
-0.0522178 0.195807 -0.979251 -0.0613821 0.208597 -0.976074 -0.269235 0.149956 -0.951328 
-0.17802 0.213779 -0.960525 0.824471 0.21116 -0.525032 0.497851 0.0891144 -0.862672 
-0.0120097 -0.0882521 -0.996026 -0.00804564 0.0839648 -0.996436 -0.184454 0.0270264 -0.982469 
-0.248564 -0.0240584 -0.968317 -0.0734216 0.115738 -0.990562 -0.00346123 0.0950607 -0.995465 
-0.0713808 0.0661058 -0.995256 -0.324246 0.0259949 -0.945615 -0.214403 0.0042889 -0.976736 
0.857246 -0.0145098 -0.514703 0.529276 0.0298172 -0.847926 -0.124071 -0.0190828 -0.99209 
0.0911305 -0.0118011 -0.995769 -0.272679 -0.0949166 -0.957412 -0.132419 0.0713433 -0.988623 
-0.0430942 0.191566 -0.980533 -0.103714 0.100578 -0.989509 -0.147514 -0.0315403 -0.988557 
-0.298871 -0.134552 -0.94476 -0.21954 -0.0999211 -0.970473 0.864833 -0.181595 -0.468067 
0.521201 -0.00510324 -0.853419 -0.0833643 0.0528582 -0.995116 0.0421426 0.0868422 -0.99533 
-0.153787 -0.0140959 -0.988003 0.033541 0.126755 -0.991367 -0.0493955 0.0915195 -0.994577 
-0.221857 0.0515904 -0.973713 -0.267197 -0.0641491 -0.961504 -0.337412 -0.203446 -0.91911 
-0.348124 -0.204355 -0.914903 -0.31569 -0.187199 -0.930213 0.828985 -0.357543 -0.430054 
0.784284 -0.492513 -0.377266 0.630678 -0.325024 -0.704702 0.232245 -0.254661 -0.938728 
-0.0727152 0.050456 -0.996076 -0.0598209 -0.0515262 -0.996878 -0.0112108 0.127273 -0.991804 
-0.0301895 0.100009 -0.994528 -0.113651 -0.00687699 -0.993497 -0.258612 -0.0441574 -0.964971 
-0.391678 -0.186587 -0.900985 -0.370372 -0.106157 -0.922798 0.774925 -0.504599 -0.380619 
0.696309 -0.609818 -0.378518 0.474925 -0.3198 -0.819863 -0.0105409 0.0557418 -0.99839 
-0.000813818 0.0709937 -0.997476 -0.101834 0.0240777 -0.99451 -0.189246 -0.0664019 -0.979682 
-0.313252 -0.16048 -0.936012 -0.445887 -0.223743 -0.866674 -0.446489 -0.258593 -0.856608 
-0.432006 -0.210032 -0.877073 0.696031 -0.610575 -0.377809 0.595958 -0.684327 -0.420155 
0.322551 -0.406807 -0.854674 0.171063 -0.237396 -0.956233 -0.165782 -0.105513 -0.980501 
-0.291191 -0.187609 -0.938089 -0.436222 -0.314967 -0.842915 -0.426107 -0.385652 -0.818355 
-0.385033 -0.28385 -0.878168 0.59576 -0.684353 -0.420394 0.448711 -0.707313 -0.546229 
0.267837 -0.440674 -0.856779 0.130781 -0.341019 -0.930915 0.0909317 -0.229846 -0.96897 
0.0217329 -0.198899 -0.979779 -0.100152 -0.228036 -0.968488 -0.244907 -0.307403 -0.919524 
-0.422069 -0.412248 -0.807409 -0.388223 -0.519684 -0.76106 -0.359838 -0.362702 -0.85963 
0.408033 -0.705751 -0.579158 0.316442 -0.707824 -0.631545 0.283702 -0.598202 -0.749445 
0.134872 -0.768179 -0.625868 0.133009 -0.506783 -0.851751 -0.025003 -0.767219 -0.640898 
-0.0132765 -0.477284 -0.878649 -0.133855 -0.70346 -0.698016 -0.138899 -0.510483 -0.848595 
-0.346617 -0.570113 -0.744868 -0.282026 -0.622247 -0.730254 -0.27997 -0.537305 -0.795563 
0.143608 0.121651 -0.982129 0.057507 0.210669 -0.975865 -0.0199721 0.212781 -0.976896 
-0.0538547 0.0335846 -0.997984 0.147542 0.118215 -0.981966 0.162974 0.152512 -0.974771 
0.144439 0.11655 -0.982626 0.0386829 0.0819093 -0.995889 -0.0671538 0.00414421 -0.997734 
-0.0555439 0.0333478 -0.997899 -0.0486276 0.0111358 -0.998755 -0.0527162 0.0215837 -0.998376 
0.178364 0.144589 -0.973283 0.157681 0.152271 -0.975679 0.034659 0.0681152 -0.997075 
-0.046785 -0.0317677 -0.9984 -0.0688806 -0.0719448 -0.995027 -0.084366 -0.0620775 -0.994499 
-0.0775435 -0.0694597 -0.994566 -0.00270585 0.0811891 -0.996695 0.328784 0.0386833 -0.943613 
0.269952 0.0426425 -0.961929 -0.0294344 0.0132187 -0.999479 -0.113038 -0.0135239 -0.993499 
-0.0981331 -0.00570741 -0.995157 0.079354 0.0141329 -0.996746 -0.180614 -0.0563366 -0.981939 
0.0613042 0.0393224 -0.997344 0.299969 -0.0477255 -0.952754 0.178914 -0.187782 -0.965778 
0.148252 -0.104966 -0.983363 -0.0117533 -0.0444127 -0.998944 -0.0819364 0.0397856 -0.995843 
-0.0786391 0.00311116 -0.996898 -0.0687797 0.0517701 -0.996288 -0.035668 -0.0407566 -0.998532 
-0.100579 -0.107476 -0.989107 -0.0772241 -0.0977839 -0.992207 -0.0878889 -0.124583 -0.988309 
0.13271 -0.111345 -0.984881 0.0748302 -0.0218313 -0.996957 -0.00180276 0.00824229 -0.999964 
-0.0713156 0.0504381 -0.996178 -0.042991 0.0501255 -0.997817 -0.0710645 0.0447043 -0.996469 
0.260424 -0.182436 -0.948102 0.220491 -0.207037 -0.953163 0.212272 -0.159478 -0.96411 
0.0674908 -0.161971 -0.984485 -0.00375567 -0.105282 -0.994435 -0.040946 0.000120243 -0.999161 
-0.048341 0.0188911 -0.998652 -0.0605731 0.00769053 -0.998134 0.000912308 0.00962817 -0.999953 
-0.00767891 0.0525215 -0.99859 0.0983793 -0.178986 -0.978921 0.0805015 -0.187808 -0.978901 
0.0702643 -0.157831 -0.984963 -0.00696142 -0.0837139 -0.996466 -0.0175932 -0.0688644 -0.997471 
0.00729264 -0.038072 -0.999248 0.00374739 -0.00166157 -0.999992 -0.0686985 -0.0521426 -0.996274 
-0.0530053 -0.0753799 -0.995745 -0.0405806 -0.0376057 -0.998468 
