# vtk DataFile Version 4.2
vtk output
ASCII
DATASET POLYDATA
POINTS 542 float
-31.278 -41.6507 -13.8688 -22.9682 -41.6507 -16.9554 -14.6584 -41.6507 -17.8512 
-6.34865 -41.6507 -17.3993 1.96113 -41.6507 -16.5341 10.2709 -41.6507 -15.549 
18.5807 -41.6507 -14.0362 -39.5877 -33.3409 -15.5856 -31.278 -33.3409 -18.3255 
-22.9682 -33.3409 -18.7091 -14.6584 -33.3409 -19.7839 -6.34865 -33.3409 -19.4913 
1.96113 -33.3409 -19.4151 10.2709 -33.3409 -18.3691 18.5807 -33.3409 -17.1387 
26.8905 -33.3409 -15.8261 35.2002 -33.3409 -14.9746 -47.8975 -25.0311 -14.975 
-39.5877 -25.0311 -18.3525 -31.278 -25.0311 -19.1481 -22.9682 -25.0311 -19.2783 
-14.6584 -25.0311 -19.6934 -6.34865 -25.0311 -19.5335 1.96113 -25.0311 -19.7487 
10.2709 -25.0311 -18.9083 18.5807 -25.0311 -17.8426 26.8905 -25.0311 -17.4671 
35.2002 -25.0311 -17.8408 43.51 -25.0311 -16.8868 -47.8975 -16.7213 -17.2378 
-39.5877 -16.7213 -18.8197 -31.278 -16.7213 -20.138 -22.9682 -16.7213 -19.1964 
-14.6584 -16.7213 -18.4533 -6.34865 -16.7213 -18.5105 1.96113 -16.7213 -18.9187 
10.2709 -16.7213 -18.1055 18.5807 -16.7213 -17.3978 26.8905 -16.7213 -18.0996 
35.2002 -16.7213 -18.8677 43.51 -16.7213 -18.8352 51.8198 -16.7213 -17.0514 
-47.8975 -8.41155 -17.5901 -39.5877 -8.41155 -19.1965 -31.278 -8.41155 -19.2422 
-22.9682 -8.41155 -18.2825 -14.6584 -8.41155 -17.6403 -6.34865 -8.41155 -19.6491 
1.96113 -8.41155 -18.4642 10.2709 -8.41155 -18.2033 18.5807 -8.41155 -17.0699 
26.8905 -8.41155 -18.5901 35.2002 -8.41155 -19.8274 43.51 -8.41155 -19.7047 
51.8198 -8.41155 -18.2393 60.1296 -8.41155 -14.6573 -56.2073 -0.101779 -14.0046 
-47.8975 -0.101779 -17.6698 -39.5877 -0.101779 -19.1142 -31.278 -0.101779 -19.0646 
-22.9682 -0.101779 -18.0997 -14.6584 -0.101779 -18.1265 -6.34865 -0.101779 -19.1384 
1.96113 -0.101779 -17.4881 10.2709 -0.101779 -21.193 18.5807 -0.101779 -16.4593 
26.8905 -0.101779 -18.5091 35.2002 -0.101779 -19.5825 43.51 -0.101779 -19.8747 
51.8198 -0.101779 -18.6826 60.1296 -0.101779 -15.1024 -47.8975 8.208 -16.9575 
-39.5877 8.208 -18.6961 -31.278 8.208 -18.7624 -22.9682 8.208 -17.7779 
-14.6584 8.208 -17.0431 -6.34865 8.208 -19.0247 1.96113 8.208 -18.82 
10.2709 8.208 -18.6273 18.5807 8.208 -17.0144 26.8905 8.208 -18.714 
35.2002 8.208 -19.9561 43.51 8.208 -19.3936 51.8198 8.208 -18.1123 
60.1296 8.208 -14.0759 -47.8975 16.5178 -15.9168 -39.5877 16.5178 -17.3381 
-31.278 16.5178 -17.3283 -22.9682 16.5178 -16.0581 -14.6584 16.5178 -15.4101 
-6.34865 16.5178 -18.9022 1.96113 16.5178 -18.5823 10.2709 16.5178 -16.6087 
18.5807 16.5178 -17.402 26.8905 16.5178 -18.4899 35.2002 16.5178 -18.8688 
43.51 16.5178 -18.3713 51.8198 16.5178 -16.0155 -39.5877 24.8275 -14.2806 
-31.278 24.8275 -14.329 -22.9682 24.8275 -14.2896 -14.6584 24.8275 -15.0862 
-6.34865 24.8275 -17.8482 1.96113 24.8275 -18.0255 10.2709 24.8275 -17.438 
18.5807 24.8275 -17.4804 26.8905 24.8275 -17.7292 35.2002 24.8275 -17.5999 
43.51 24.8275 -15.6925 -6.34865 33.1373 -16.2856 1.96113 33.1373 -17.4197 
10.2709 33.1373 -16.8186 18.5807 33.1373 -16.7115 26.8905 33.1373 -15.7723 
35.2002 33.1373 -14.0892 1.96113 41.4471 -14.7262 10.2709 41.4471 -14.3844 
18.5807 41.4471 -13.7736 -31.278 -41.9531 -13.6349 -22.9682 -45.4899 -13.6349 
-14.6584 -46.5071 -13.6349 -14.6584 -49.9604 -6.47208 -6.34865 -46.6342 -13.6349 
-6.34865 -49.9604 -6.31113 1.96113 -45.478 -13.6349 10.2709 -43.7429 -13.6349 
18.5807 -42.1255 -13.6349 -31.7965 -41.6507 -13.6349 -39.5877 -36.4719 -13.6349 
-39.5877 -41.6507 -6.24005 19.9487 -41.6507 -13.6349 26.8905 -37.6014 -13.6349 
26.8905 -41.6507 -10.662 35.2002 -35.3906 -13.6349 35.2002 -41.6507 -6.72255 
-43.2914 -33.3409 -13.6349 -47.8975 -27.9729 -13.6349 -47.8975 -33.3409 -8.80002 
39.1749 -33.3409 -13.6349 43.51 -30.7789 -13.6349 43.51 -33.3409 -11.4705 
-50.4801 -25.0311 -13.6349 -56.2073 -25.0311 -6.38116 50.8631 -25.0311 -13.6349 
51.8198 -24.0956 -13.6349 51.8198 -25.0311 -12.9569 -53.7672 -16.7213 -13.6349 
-56.2073 -16.7213 -11.0904 57.7218 -16.7213 -13.6349 60.1296 -11.3583 -13.6349 
60.1296 -16.7213 -11.374 -55.3633 -8.41155 -13.6349 -56.2073 -3.4853 -13.6349 
-56.2073 -8.41155 -13.0466 61.3388 -8.41155 -13.6349 -56.6613 -0.101779 -13.6349 
-56.2073 2.88384 -13.6349 61.8351 -0.101779 -13.6349 -55.048 8.208 -13.6349 
-56.2073 8.208 -12.9633 60.6479 8.208 -13.6349 60.1296 9.89489 -13.6349 
-52.3113 16.5178 -13.6349 -56.2073 16.5178 -10.747 -47.8975 21.7294 -13.6349 
56.9507 16.5178 -13.6349 51.8198 21.1386 -13.6349 60.1296 16.5178 -10.8945 
-56.2073 24.8275 -7.35057 -42.1214 24.8275 -13.6349 -47.8975 24.8275 -11.9341 
-39.5877 25.9298 -13.6349 -31.278 26.7193 -13.6349 -22.9682 27.643 -13.6349 
-14.6584 32.06 -13.6349 47.871 24.8275 -13.6349 43.51 28.1455 -13.6349 
51.8198 24.8275 -10.7186 -47.8975 33.1373 -6.38282 -39.5877 33.1373 -8.82623 
-31.278 33.1373 -11.0741 -22.9682 33.1373 -12.142 -13.9969 33.1373 -13.6349 
-14.6584 33.1373 -13.4007 -6.34865 41.2473 -13.6349 26.8905 37.1086 -13.6349 
36.2687 33.1373 -13.6349 35.2002 33.8073 -13.6349 43.51 33.1373 -8.72629 
-22.9682 41.4471 -7.0907 -14.6584 41.4471 -11.0564 -5.85479 41.4471 -13.6349 
-6.34865 41.4471 -13.5522 1.96113 43.0039 -13.6349 10.2709 42.4963 -13.6349 
19.0813 41.4471 -13.6349 18.5807 41.6594 -13.6349 26.8905 41.4471 -10.4572 
35.2002 41.4471 -5.52247 1.96113 49.7569 -5.9069 10.2709 49.7569 -5.33969 
-14.6584 -50.3492 -5.32511 -6.34865 -50.2779 -5.32511 -39.5877 -42.0624 -5.32511 
-31.278 -46.3263 -5.32511 -16.8252 -49.9604 -5.32511 -22.9682 -48.8454 -5.32511 
-14.6584 -49.9604 -4.17922 -0.100499 -49.9604 -5.32511 -6.34865 -49.9604 -4.30096 
1.96113 -49.8515 -5.32511 10.2709 -48.7103 -5.32511 18.5807 -47.3842 -5.32511 
26.8905 -45.4115 -5.32511 35.2002 -42.6055 -5.32511 -40.1778 -41.6507 -5.32511 
-47.8975 -35.4207 -5.32511 -39.5877 -41.6507 -2.72448 37.4592 -41.6507 -5.32511 
43.51 -38.7578 -5.32511 -50.0603 -33.3409 -5.32511 -56.2073 -25.6935 -5.32511 
51.7586 -33.3409 -5.32511 51.8198 -33.2879 -5.32511 -56.6515 -25.0311 -5.32511 
59.1966 -25.0311 -5.32511 60.1296 -23.8513 -5.32511 -60.2807 -16.7213 -5.32511 
64.0826 -16.7213 -5.32511 -62.3377 -8.41155 -5.32511 66.8242 -8.41155 -5.32511 
-63.9247 -0.101779 -5.32511 67.2112 -0.101779 -5.32511 -63.2261 8.208 -5.32511 
66.2466 8.208 -5.32511 -61.2551 16.5178 -5.32511 63.0498 16.5178 -5.32511 
60.1296 20.722 -5.32511 -57.7341 24.8275 -5.32511 -56.2073 26.7375 -5.32511 
56.3537 24.8275 -5.32511 51.8198 29.2101 -5.32511 -48.9667 33.1373 -5.32511 
-47.8975 33.8924 -5.32511 -39.5877 37.6343 -5.32511 -31.278 41.1612 -5.32511 
46.9163 33.1373 -5.32511 43.51 35.7234 -5.32511 -30.3673 41.4471 -5.32511 
-31.278 41.4471 -4.78158 -22.9682 43.3682 -5.32511 -14.6584 47.2882 -5.32511 
-6.34865 49.3066 -5.32511 18.5807 48.3227 -5.32511 26.8905 45.4373 -5.32511 
35.4162 41.4471 -5.32511 35.2002 41.5842 -5.32511 -1.9902 49.7569 -5.32511 
1.96113 50.087 -5.32511 10.3234 49.7569 -5.32511 10.2709 49.7648 -5.32511 
10.2709 49.7569 -5.0628 -31.278 -44.2188 2.98467 -22.9682 -46.4336 2.98467 
-14.6584 -47.0873 2.98467 -6.34865 -47.2778 2.98467 1.96113 -46.882 2.98467 
10.2709 -46.3728 2.98467 18.5807 -45.7708 2.98467 26.8905 -44.2299 2.98467 
35.2002 -41.8889 2.98467 -47.8975 -34.34 2.98467 -37.386 -41.6507 2.98467 
-39.5877 -40.6063 2.98467 -31.278 -41.6507 6.91444 -22.9682 -41.6507 9.07356 
-14.6584 -41.6507 9.31183 -6.34865 -41.6507 9.26812 1.96113 -41.6507 8.81412 
10.2709 -41.6507 8.32805 18.5807 -41.6507 8.40748 26.8905 -41.6507 6.41433 
35.7252 -41.6507 2.98467 35.2002 -41.6507 3.33178 43.51 -37.899 2.98467 
-48.9942 -33.3409 2.98467 -56.2073 -25.0459 2.98467 -47.8975 -33.3409 4.87297 
35.2002 -33.3409 10.5297 50.0545 -33.3409 2.98467 43.51 -33.3409 8.97023 
51.8198 -31.7928 2.98467 -56.2184 -25.0311 2.98467 -56.2073 -25.0311 3.00584 
57.9322 -25.0311 2.98467 51.8198 -25.0311 10.0892 60.1296 -21.6715 2.98467 
-60.469 -16.7213 2.98467 62.8313 -16.7213 2.98467 60.1296 -16.7213 6.81586 
-63.3018 -8.41155 2.98467 65.6367 -8.41155 2.98467 60.1296 -8.41155 10.6212 
-64.4338 -0.101779 2.98467 66.2485 -0.101779 2.98467 -64.3876 8.208 2.98467 
65.7171 8.208 2.98467 -63.1936 16.5178 2.98467 62.6503 16.5178 2.98467 
60.1296 20.4294 2.98467 60.1296 16.5178 7.19246 -59.7872 24.8275 2.98467 
-56.2073 29.406 2.98467 56.8466 24.8275 2.98467 51.8198 29.9888 2.98467 
-52.368 33.1373 2.98467 -47.8975 36.594 2.98467 -39.5877 41.1265 2.98467 
48.1796 33.1373 2.98467 43.51 36.8332 2.98467 43.51 33.1373 11.0904 
-38.7446 41.4471 2.98467 -31.278 44.1252 2.98467 -31.278 41.4471 9.10618 
-22.9682 46.6769 2.98467 -14.6584 48.4838 2.98467 -6.34865 49.4854 2.98467 
10.2709 49.4875 2.98467 18.5807 48.4253 2.98467 26.8905 46.2201 2.98467 
36.5218 41.4471 2.98467 35.2002 42.2717 2.98467 35.2002 41.4471 5.01379 
-2.52865 49.7569 2.98467 6.45654 49.7569 2.98467 1.96113 50.0457 2.98467 
1.96113 49.7569 3.58946 -39.5877 -33.8395 11.2944 -31.278 -37.7313 11.2944 
-22.9682 -39.2149 11.2944 -14.6584 -39.2891 11.2944 -6.34865 -38.793 11.2944 
1.96113 -38.0698 11.2944 10.2709 -36.8376 11.2944 18.5807 -35.8572 11.2944 
26.8905 -35.3885 11.2944 -40.4519 -33.3409 11.2944 -47.8975 -27.6609 11.2944 
-39.5877 -33.3409 11.732 -31.278 -33.3409 14.8211 -22.9682 -33.3409 15.6987 
-14.6584 -33.3409 15.2175 -6.34865 -33.3409 14.4086 1.96113 -33.3409 13.8233 
10.2709 -33.3409 13.0431 18.5807 -33.3409 12.2449 32.221 -33.3409 11.2944 
26.8905 -33.3409 12.3995 35.2002 -32.0255 11.2944 43.51 -29.4439 11.2944 
-50.0154 -25.0311 11.2944 -56.2073 -17.1896 11.2944 -47.8975 -25.0311 13.0101 
-39.5877 -25.0311 17.0093 -31.278 -25.0311 18.7789 -22.9682 -25.0311 19.1254 
-14.6584 -25.0311 18.5092 -6.34865 -25.0311 17.4557 1.96113 -25.0311 16.4479 
10.2709 -25.0311 15.2029 18.5807 -25.0311 14.695 26.8905 -25.0311 15.3102 
35.2002 -25.0311 14.7915 49.223 -25.0311 11.2944 43.51 -25.0311 13.4429 
51.8198 -22.3354 11.2944 -56.4727 -16.7213 11.2944 -56.2073 -16.7213 11.5709 
-47.8975 -16.7213 16.6057 -39.5877 -16.7213 19.0381 1.96113 -16.7213 18.2377 
10.2709 -16.7213 15.981 18.5807 -16.7213 16.1228 26.8905 -16.7213 17.3465 
[...]
POINT_DATA 542
SCALARS ImageScalars float
LOOKUP_TABLE default
0 0 0 0 0 0 0 0 0 
0 0 0 0 0 0 0 0 0 
0 0 0 0 0 0 0 0 0 
0 0 0 0 0 0 0 0 0 
0 0 0 0 0 0 0 0 0 
0 0 0 0 0 0 0 0 0 
0 0 0 0 0 0 0 0 0 
0 0 0 0 0 0 0 0 0 
0 0 0 0 0 0 0 0 0 
0 0 0 0 0 0 0 0 0 
0 0 0 0 0 0 0 0 0 
0 0 0 0 0 0 0 0 0 
0 0 0 0 0 0 0 0 0 
0 0 0 0 0 0 0 0 0 
0 0 0 0 0 0 0 0 0 
0 0 0 0 0 0 0 0 0 
0 0 0 0 0 0 0 0 0 
0 0 0 0 0 0 0 0 0 
0 0 0 0 0 0 0 0 0 
0 0 0 0 0 0 0 0 0 
0 0 0 0 0 0 0 0 0 
0 0 0 0 0 0 0 0 0 
0 0 0 0 0 0 0 0 0 
0 0 0 0 0 0 0 0 0 
0 0 0 0 0 0 0 0 0 
0 0 0 0 0 0 0 0 0 
0 0 0 0 0 0 0 0 0 
0 0 0 0 0 0 0 0 0 
0 0 0 0 0 0 0 0 0 
0 0 0 0 0 0 0 0 0 
0 0 0 0 0 0 0 0 0 
0 0 0 0 0 0 0 0 0 
0 0 0 0 0 0 0 0 0 
0 0 0 0 0 0 0 0 0 
0 0 0 0 0 0 0 0 0 
0 0 0 0 0 0 0 0 0 
0 0 0 0 0 0 0 0 0 
0 0 0 0 0 0 0 0 0 
0 0 0 0 0 0 0 0 0 
0 0 0 0 0 0 0 0 0 
0 0 0 0 0 0 0 0 0 
0 0 0 0 0 0 0 0 0 
0 0 0 0 0 0 0 0 0 
0 0 0 0 0 0 0 0 0 
0 0 0 0 0 0 0 0 0 
0 0 0 0 0 0 0 0 0 
0 0 0 0 0 0 0 0 0 
0 0 0 0 0 0 0 0 0 
0 0 0 0 0 0 0 0 0 
0 0 0 0 0 0 0 0 0 
0 0 0 0 0 0 0 0 0 
0 0 0 0 0 0 0 0 0 
0 0 0 0 0 0 0 0 0 
0 0 0 0 0 0 0 0 0 
0 0 0 0 0 0 0 0 0 
0 0 0 0 0 0 0 0 0 
0 0 0 0 0 0 0 0 0 
0 0 0 0 0 0 0 0 0 
0 0 0 0 0 0 0 0 0 
0 0 0 0 0 0 0 0 0 
0 0 
NORMALS Normals float
-0.383789 -0.584838 -0.714612 -0.221134 -0.472452 -0.853164 -0.0278842 -0.472207 -0.881047 
0.0704692 -0.45086 -0.889809 0.0996374 -0.511634 -0.853407 0.146611 -0.549256 -0.822693 
0.20301 -0.588848 -0.782333 -0.374238 -0.420498 -0.826515 -0.177178 -0.279612 -0.943623 
-0.0826547 -0.135471 -0.987328 -0.046895 -0.0898786 -0.994848 0.0215179 -0.118368 -0.992737 
0.0628577 -0.166973 -0.983956 0.144964 -0.164757 -0.975623 0.139358 -0.210815 -0.967541 
0.14074 -0.30937 -0.940469 0.18603 -0.448039 -0.874445 -0.42717 -0.34608 -0.835317 
-0.247149 -0.192612 -0.949641 -0.0512537 -0.102868 -0.993374 -0.0325496 -0.0281956 -0.999072 
-0.0154841 0.0802436 -0.996655 -0.00331189 0.0568208 -0.998379 0.0374383 0.0290485 -0.998877 
0.114727 0.0174565 -0.993244 0.0849347 -0.0170338 -0.996241 0.0021368 -0.127654 -0.991817 
0.0394518 -0.252757 -0.966725 0.219104 -0.338257 -0.915191 -0.350053 -0.145616 -0.925343 
-0.173925 -0.0468763 -0.983643 -0.0218706 -0.00422784 -0.999752 0.1009 0.0601278 -0.993078 
0.0416174 0.123401 -0.991484 -0.0286163 -0.000571562 -0.99959 0.0248726 0.0768351 -0.996734 
0.0934318 0.0441907 -0.994645 9.31968e-05 0.0463126 -0.998927 -0.0875322 -0.0661309 -0.993964 
-0.0443733 -0.113665 -0.992528 0.114747 -0.180799 -0.976803 0.334319 -0.23665 -0.912265 
-0.311645 -0.0270403 -0.949814 -0.0919498 -0.0176373 -0.995607 0.0547512 0.0635193 -0.996478 
0.0953466 0.0656453 -0.993277 -0.0743645 0.0234149 -0.996956 -0.0524452 -0.0442849 -0.997641 
0.0791115 0.0714303 -0.994303 0.0930734 -0.114123 -0.989097 -0.0348801 0.0574726 -0.997738 
-0.16671 -0.025242 -0.985683 -0.0669168 -0.0428264 -0.996839 0.0891334 -0.0585132 -0.994299 
0.256827 -0.0997454 -0.961296 0.582448 -0.169262 -0.79505 -0.559938 0.0063315 -0.828511 
-0.262501 0.0367426 -0.964232 -0.0769429 0.0306538 -0.996564 0.0605685 0.0285549 -0.997756 
0.0565587 0.0301678 -0.997943 -0.0553832 0.0375134 -0.99776 0.0206081 0.0414001 -0.99893 
-0.0506121 -0.0265837 -0.998365 0.162438 -0.0451721 -0.985684 0.0415997 0.00569561 -0.999118 
-0.192723 -0.0078195 -0.981222 -0.079066 -0.00786372 -0.996838 0.0507038 0.0185358 -0.998542 
0.237945 0.00768632 -0.971248 0.582063 0.0299173 -0.812593 -0.293005 0.102967 -0.95055 
-0.099084 0.100403 -0.990001 0.0547983 0.1018 -0.993294 0.102455 0.111503 -0.988469 
-0.0736332 0.156355 -0.984952 -0.107094 0.0125127 -0.99417 0.0225926 -0.0494011 -0.998523 
0.119086 0.23125 -0.965578 -0.0315057 -0.0582051 -0.997807 -0.16917 0.00217577 -0.985584 
-0.0422912 0.0424395 -0.998204 0.105984 0.0850186 -0.990727 0.269471 0.149932 -0.951265 
0.615147 0.165617 -0.770821 -0.311659 0.250536 -0.91657 -0.086339 0.256308 -0.962731 
0.0680935 0.252386 -0.965228 0.11395 0.20898 -0.971258 -0.156146 0.117178 -0.980759 
-0.200352 0.0739794 -0.976927 0.136935 0.0501308 -0.989311 0.0626988 0.0423659 -0.997133 
-0.112112 -0.0267071 -0.993337 -0.0866087 0.0579382 -0.994556 0.00484354 0.133699 -0.99101 
0.162763 0.2167 -0.962574 0.346665 0.340281 -0.87409 -0.113312 0.430135 -0.895625 
-0.000420087 0.344266 -0.938872 -0.0467937 0.214984 -0.975496 -0.210971 0.113867 -0.970838 
-0.181666 0.149675 -0.971903 0.0254273 0.066558 -0.997459 0.0328012 -0.0111221 -0.9994 
-0.0173321 0.045123 -0.998831 -0.00777025 0.151553 -0.988419 0.11564 0.276525 -0.954024 
0.302547 0.414165 -0.858448 -0.225401 0.233141 -0.94596 -0.0299611 0.185568 -0.982175 
0.0420118 0.166347 -0.985172 0.0553669 0.210569 -0.97601 0.15775 0.336577 -0.928348 
0.281801 0.498756 -0.819653 -0.043977 0.468206 -0.882524 0.0553963 0.459916 -0.886233 
0.165023 0.509035 -0.844778 -0.387281 -0.597627 -0.702036 -0.204805 -0.73709 -0.644013 
-0.0625226 -0.740451 -0.669196 -0.0884729 -0.993111 -0.076827 0.0447881 -0.729733 -0.682264 
0.0307829 -0.997167 -0.0686346 0.133699 -0.691555 -0.709843 0.159488 -0.652807 -0.740545 
0.203985 -0.612259 -0.763891 -0.393449 -0.594913 -0.700911 -0.427483 -0.54869 -0.718469 
-0.544317 -0.820168 -0.176191 0.220833 -0.601577 -0.767684 0.226694 -0.488371 -0.842677 
0.315737 -0.747759 -0.584094 0.21407 -0.520235 -0.826758 0.340406 -0.873301 -0.348525 
-0.483616 -0.490851 -0.724694 -0.492865 -0.432475 -0.755017 -0.66643 -0.645937 -0.37234 
0.263198 -0.522897 -0.810744 0.314002 -0.527019 -0.789717 0.389716 -0.644648 -0.657686 
-0.525441 -0.376266 -0.763109 -0.840293 -0.491191 -0.229432 0.445254 -0.471501 -0.761207 
0.458795 -0.458196 -0.761291 0.48839 -0.500312 -0.714956 -0.611309 -0.149046 -0.77723 
-0.760724 -0.20487 -0.615896 0.574475 -0.285511 -0.767113 0.617682 -0.211694 -0.7574 
0.732483 -0.329538 -0.595712 -0.590996 -0.105069 -0.799803 -0.587634 -0.0449161 -0.807879 
-0.635425 -0.122905 -0.762319 0.617904 -0.173327 -0.766911 -0.577161 0.00516222 -0.816614 
-0.5681 0.0582123 -0.820898 0.638401 0.0311786 -0.769072 -0.536218 0.138974 -0.83256 
-0.589659 0.150651 -0.793477 0.629976 0.168342 -0.75815 0.624591 0.212586 -0.751461 
-0.468958 0.241498 -0.849563 -0.651344 0.243367 -0.718695 -0.306718 0.362186 -0.880196 
0.529005 0.387948 -0.754752 0.439812 0.464394 -0.768703 0.708245 0.440096 -0.552 
-0.669994 0.50458 -0.544524 -0.166644 0.431697 -0.886492 -0.324129 0.449465 -0.832419 
-0.118788 0.448175 -0.886018 -0.0391665 0.370759 -0.927903 -0.0735358 0.259598 -0.962913 
-0.228598 0.203918 -0.951925 0.416174 0.490778 -0.765465 0.364662 0.513734 -0.776595 
0.560092 0.592321 -0.579182 -0.442051 0.732156 -0.518207 -0.21122 0.618639 -0.756751 
-0.174371 0.475753 -0.862122 -0.125473 0.369071 -0.920893 -0.230721 0.21938 -0.947967 
-0.233175 0.218853 -0.947488 -0.194169 0.481395 -0.854726 0.246993 0.486764 -0.837887 
0.304537 0.518931 -0.798729 0.292945 0.517322 -0.80409 0.508647 0.705056 -0.49414 
-0.296997 0.643504 -0.705475 -0.328009 0.476836 -0.815498 -0.184184 0.487516 -0.853466 
-0.193485 0.490164 -0.849884 -0.0442922 0.543332 -0.838349 0.0527169 0.508423 -0.859492 
0.175433 0.517266 -0.837651 0.166881 0.518453 -0.838664 0.348128 0.704161 -0.618841 
0.473299 0.808823 -0.34899 -0.0241183 0.949898 -0.311629 0.0945563 0.961467 -0.258146 
-0.0862914 -0.99627 -0.000796411 0.0296419 -0.999539 -0.00656251 -0.543854 -0.829767 -0.125339 
-0.381322 -0.922325 -0.0625257 -0.124487 -0.9922 -0.006476 -0.231184 -0.972381 -0.0320859 
-0.0852014 -0.994151 0.0663654 0.0783807 -0.996695 -0.0213212 0.0273783 -0.998327 0.0509362 
0.0949772 -0.995098 -0.0275726 0.142958 -0.985419 -0.092267 0.195123 -0.966893 -0.164453 
0.281688 -0.936699 -0.207959 0.351877 -0.899594 -0.258676 -0.553444 -0.82318 -0.126782 
-0.677275 -0.718209 -0.159609 -0.53439 -0.845205 0.00748147 0.385719 -0.889411 -0.245293 
0.49105 -0.840512 -0.228929 -0.713148 -0.679513 -0.172282 -0.841987 -0.512733 -0.167817 
0.634185 -0.751192 -0.183082 0.635087 -0.750512 -0.182748 -0.849567 -0.498869 -0.171367 
0.772469 -0.614606 -0.159847 0.799534 -0.580831 -0.152909 -0.90171 -0.32438 -0.285827 
0.905351 -0.384012 -0.181314 -0.921068 -0.19207 -0.338737 0.968964 -0.191493 -0.156333 
-0.947542 -0.0519221 -0.315387 0.986053 0.0323192 -0.16326 -0.913861 0.130312 -0.384547 
0.944902 0.252719 -0.208071 -0.842316 0.295555 -0.450724 0.855574 0.47509 -0.205629 
0.78574 0.577927 -0.220484 -0.739436 0.50923 -0.440362 -0.69719 0.559463 -0.44825 
0.700117 0.659308 -0.274134 0.626769 0.722261 -0.292404 -0.485933 0.739893 -0.465218 
-0.456737 0.756211 -0.468546 -0.327687 0.745143 -0.580847 -0.245434 0.782007 -0.572912 
0.576257 0.754457 -0.314203 0.554657 0.765917 -0.325158 -0.25417 0.777112 -0.575755 
-0.255716 0.809594 -0.528363 -0.316463 0.720798 -0.616686 -0.295534 0.856681 -0.422796 
-0.14939 0.932651 -0.328396 0.237662 0.933015 -0.270186 0.366462 0.866771 -0.338251 
0.47751 0.810901 -0.338266 0.475002 0.812175 -0.33874 -0.0804447 0.950387 -0.30049 
-0.0220621 0.959654 -0.280316 0.0954151 0.961604 -0.257318 0.0946121 0.961679 -0.257338 
0.0949507 0.965492 -0.242507 -0.322121 -0.856508 0.403276 -0.155226 -0.870436 0.467169 
-0.0484948 -0.848188 0.527471 0.0106165 -0.849245 0.527892 0.0489062 -0.848341 0.527187 
0.0629606 -0.866718 0.49481 0.12548 -0.888561 0.441264 0.225876 -0.886934 0.4029 
0.355569 -0.858744 0.368958 -0.634837 -0.729585 0.254337 -0.433835 -0.835324 0.33767 
-0.47317 -0.821268 0.318793 -0.264778 -0.793911 0.547355 -0.0848643 -0.729755 0.678422 
-0.0086094 -0.68946 0.724272 0.0223324 -0.645992 0.763018 0.0434058 -0.657521 0.752185 
0.0193042 -0.669523 0.742541 0.0841943 -0.673413 0.734457 0.210311 -0.779005 0.590695 
0.362353 -0.855595 0.369673 0.354515 -0.84917 0.391445 0.454814 -0.819526 0.348599 
-0.657761 -0.710357 0.250484 -0.801561 -0.547163 0.241067 -0.623064 -0.708568 0.331243 
0.176981 -0.541651 0.821761 0.590082 -0.729404 0.346081 0.350116 -0.633104 0.690361 
0.62958 -0.69677 0.343717 -0.801747 -0.54692 0.240998 -0.801413 -0.547004 0.241917 
0.749056 -0.56088 0.352601 0.506509 -0.462264 0.727846 0.78965 -0.489541 0.369868 
-0.904299 -0.384044 0.18642 0.854969 -0.385447 0.347072 0.720369 -0.393384 0.571242 
-0.964101 -0.22142 0.146567 0.912165 -0.197522 0.359082 0.646924 -0.198175 0.736353 
-0.990186 -0.0676753 0.122275 0.942456 -0.00455788 0.334299 -0.991912 0.0691187 0.106458 
0.935907 0.2098 0.282952 -0.960242 0.266578 0.0828937 0.859094 0.433449 0.272174 
0.818187 0.521778 0.241491 0.779688 0.410087 0.473197 -0.859781 0.505927 0.0693893 
-0.761774 0.645484 0.055232 0.753853 0.630872 0.183589 0.66918 0.727474 0.151591 
-0.650795 0.758563 0.0323621 -0.544309 0.838782 0.0131395 -0.405587 0.914056 -0.00115612 
0.625903 0.769564 0.126559 0.58303 0.803958 0.117164 0.50345 0.646492 0.573225 
-0.395976 0.918256 0.00301507 -0.322017 0.946341 0.0272829 -0.243077 0.869696 0.429584 
-0.250425 0.967292 0.0404083 -0.163171 0.973774 0.158556 -0.0912622 0.967692 0.235041 
0.0932168 0.961889 0.257062 0.183111 0.958372 0.219076 0.339205 0.924357 0.174655 
0.503825 0.852927 0.136658 0.489094 0.861075 0.139059 0.477499 0.844738 0.241686 
-0.0497341 0.969808 0.238744 0.0509616 0.967021 0.249545 -2.77251e-05 0.969713 0.244247 
-6.09016e-05 0.960945 0.276739 -0.349317 -0.620873 0.701779 -0.207401 -0.666256 0.716302 
-0.0595005 -0.652716 0.755262 0.0129978 -0.610783 0.791691 0.0402057 -0.546702 0.836361 
0.0573117 -0.514627 0.855497 0.0595701 -0.462488 0.884622 0.0432865 -0.399522 0.915701 
0.109533 -0.471294 0.875148 -0.365242 -0.618769 0.695502 -0.533018 -0.524903 0.663603 
-0.343259 -0.6109 0.713424 -0.181646 -0.553026 0.813122 -0.0159895 -0.497994 0.867033 
0.0707605 -0.458363 0.885944 0.0773273 -0.420173 0.904144 0.0749028 -0.387326 0.918895 
0.0887971 -0.350082 0.932501 0.0357883 -0.320264 0.946652 0.136258 -0.481795 0.865626 
0.0797357 -0.413591 0.906965 0.157175 -0.496992 0.853402 0.283119 -0.485799 0.826948 
-0.571615 -0.485238 0.661664 -0.69991 -0.353047 0.620873 -0.512223 -0.452687 0.729864 
-0.287003 -0.366045 0.885235 -0.113164 -0.279565 0.953434 0.0149673 -0.270607 0.962574 
0.0958046 -0.297711 0.949837 0.116857 -0.296542 0.947843 0.131984 -0.251015 0.958943 
0.0997366 -0.16426 0.981362 -0.00325458 -0.221247 0.975212 -0.00598495 -0.296064 0.955149 
0.0938767 -0.352195 0.931207 0.412544 -0.421752 0.807423 0.253839 -0.378705 0.890027 
0.471148 -0.385515 0.793345 -0.706065 -0.343877 0.619048 -0.695485 -0.343576 0.631075 
-0.39206 -0.263678 0.881341 -0.197977 -0.179421 0.963646 0.22072 -0.109755 0.969142 
0.122975 -0.146389 0.981554 -0.0809646 -0.158648 0.98401 -0.067983 -0.176117 0.982019 
0.0716546 -0.216214 0.973713 0.206626 -0.230371 0.950913 0.507975 -0.308271 0.80432 
0.439991 -0.280948 0.852922 -0.738217 -0.211531 0.640539 -0.630583 -0.202043 0.749362 
-0.30739 -0.188998 0.932626 0.218816 0.0803107 0.972456 0.0526299 -0.255029 0.9655 
-0.0435433 -0.0888668 0.995091 -0.0672649 -0.0822835 0.994336 0.0341725 -0.118644 0.992349 
0.168262 -0.149083 0.974404 0.603964 -0.193249 0.773228 0.381331 -0.137965 0.914086 
0.634891 -0.114703 0.76404 -0.786452 -0.0901538 0.611036 -0.585698 -0.0852445 0.806034 
-0.0251651 0.0306304 0.999214 0.0855835 -0.0508453 0.995033 -0.102798 -0.0463915 0.99362 
0.00915265 -0.0554564 0.998419 0.181096 -0.0671422 0.981171 0.38014 -0.0295783 0.924456 
0.650379 -0.0521284 0.757819 0.633359 -0.0522249 0.772094 -0.790242 0.0791544 0.607662 
-0.599315 0.0694801 0.797492 0.193011 0.102584 0.975819 -0.0472269 -0.0606664 0.99704 
0.0462527 -0.105902 0.9933 -0.0754218 -0.0481943 0.995986 0.0106603 -0.00268594 0.99994 
0.193452 0.027462 0.980725 0.389914 0.0307316 0.920338 0.672802 0.158934 0.72255 
0.667174 0.194649 0.719021 0.647799 0.155043 0.745868 -0.745208 0.228492 0.626464 
-0.631988 0.212341 0.745321 -0.302699 0.22409 0.926368 0.156365 0.0569957 0.986053 
0.00220147 0.0109878 0.999937 -0.094809 0.0694202 0.993072 -0.0474847 -0.0501205 0.997614 
0.00284843 -0.0153307 0.999878 0.0838376 0.0417331 0.995605 0.20563 0.18023 0.961891 
0.637042 0.332074 0.695633 0.481689 0.238681 0.843212 -0.690608 0.442008 0.572442 
-0.685367 0.448123 0.573984 -0.681077 0.442947 0.583037 -0.393434 0.344419 0.852399 
-0.193265 0.308123 0.931509 0.0791145 0.175745 0.981252 0.0985957 0.110871 0.988932 
-0.0261251 0.0656148 0.997503 -0.0803523 0.088913 0.992793 -0.0388489 0.111892 0.992961 
0.0173954 0.124837 0.992025 0.193479 0.225445 0.954851 0.498316 0.637176 0.587952 
0.378122 0.342718 0.859981 0.594022 0.492362 0.636174 0.593419 0.493443 0.635899 
0.592132 0.491836 0.638339 -0.505822 0.665254 0.549164 -0.493466 0.675563 0.547819 
-0.488536 0.65908 0.571792 -0.334477 0.715874 0.612902 -0.274418 0.5618 0.780433 
-0.20215 0.776329 0.597034 -0.138795 0.424168 0.894884 -0.00341707 0.391293 0.92026 
0.0185771 0.338678 0.940719 0.0358567 0.28196 0.958756 -0.0157422 0.25333 0.967252 
-0.0458138 0.29895 0.953168 -0.00566217 0.327669 0.944776 0.130831 0.368115 0.920529 
0.49563 0.639512 0.587687 0.371403 0.675783 0.636693 0.302776 0.514713 0.80212 
-0.174814 0.750476 0.637358 -0.154111 0.72086 0.675729 -0.139051 0.682627 0.717416 
-0.0569431 0.691494 0.720134 -0.0445114 0.610871 0.790478 -0.021653 0.652462 0.757512 
-0.00474217 0.565012 0.825069 -8.20232e-05 0.624881 0.78072 -0.00376731 0.524058 0.851674 
0.0275985 0.664367 0.746897 0.00900304 0.586594 0.809831 0.0989576 0.696384 0.710814 
0.0744767 0.625437 0.776712 0.244004 0.730677 0.637631 0.238893 0.73118 0.638988 
0.237292 0.727781 0.64345 -0.0989781 -0.172185 0.980079 0.00412985 -0.206079 0.978527 
0.072092 -0.216618 0.973591 0.131754 -0.236458 0.962667 -0.142734 -0.140504 0.979738 
-0.162549 -0.152122 0.974904 -0.0914658 -0.103168 0.99045 -0.0189574 -0.0681534 0.997495 
0.0516226 -0.150939 0.987194 0.140305 -0.222809 0.964713 0.132399 -0.233107 0.963396 
-0.197671 -0.152361 0.968355 -0.246488 -0.0993701 0.964038 -0.11196 -0.118624 0.986607 
0.0070903 -0.0418518 0.999099 -0.0288048 0.0361381 0.998932 -0.0739793 -0.0525366 0.995875 
0.204313 0.0209551 0.978681 0.169604 -0.0684509 0.983132 -0.000898929 -0.18028 0.983615 
-0.259937 -0.0758965 0.962638 -0.234646 -0.0748192 0.969197 -0.0688126 -0.054496 0.99614 
0.060636 -0.0518267 0.996814 -0.0241475 -0.0261157 0.999367 -0.0544663 0.00304995 0.998511 
0.220695 0.117081 0.96829 0.2115 0.115926 0.970479 0.284667 0.148274 0.94709 
-0.0167308 -0.107993 0.994011 0.00863716 -0.114866 0.993343 -0.0147822 -0.141819 0.989782 
-0.301057 0.0660125 0.951319 -0.272779 0.116334 0.955017 -0.267119 0.0619565 0.96167 
-0.0832657 0.0281312 0.99613 0.0330577 -0.0102604 0.999401 0.0227389 -0.05731 0.998097 
0.174523 0.0989605 0.979668 0.0789575 0.0596972 0.995089 -0.0181595 0.072238 0.997222 
0.00402995 0.0490914 0.998786 -0.0404435 0.0912431 0.995007 -0.00733281 0.102409 0.994715 
-0.218806 0.172032 0.960484 -0.184298 0.27803 0.942726 -0.128826 0.115634 0.984902 
-0.0220521 0.102747 0.994463 0.0424951 0.0645113 0.997012 0.140105 0.0793687 0.986951 
0.0864376 0.161989 0.983 0.122396 0.0989449 0.987537 -0.0715437 0.251775 0.965138 
-0.0177207 0.229456 0.973158 -0.0144313 0.22436 0.974399 0.0321205 0.202163 0.978825 
0.0131672 0.216729 0.976143 0.0137101 0.212586 0.977046 
