# vtk DataFile Version 4.2
vtk output
ASCII
DATASET POLYDATA
POINTS 530 float
-25.1042 -36.1316 -12.9155 -17.241 -36.1316 -13.1377 -9.37789 -36.1316 -13.5863 
-1.51475 -36.1316 -13.6114 -32.9673 -28.2684 -13.2795 -25.1042 -28.2684 -13.888 
-17.241 -28.2684 -14.2519 -9.37789 -28.2684 -14.5571 -1.51475 -28.2684 -15.1096 
6.34839 -28.2684 -15.1168 14.2115 -28.2684 -13.9082 -40.8304 -20.4053 -12.6573 
-32.9673 -20.4053 -13.6852 -25.1042 -20.4053 -14.2152 -17.241 -20.4053 -14.5317 
-9.37789 -20.4053 -14.1902 -1.51475 -20.4053 -14.4827 6.34839 -20.4053 -15.1955 
14.2115 -20.4053 -15.1714 22.0747 -20.4053 -14.7688 29.9378 -20.4053 -14.2793 
37.8009 -20.4053 -13.5677 -40.8304 -12.5422 -13.861 -32.9673 -12.5422 -15.1602 
-25.1042 -12.5422 -14.501 -17.241 -12.5422 -13.9947 -9.37789 -12.5422 -13.8393 
-1.51475 -12.5422 -14.1099 6.34839 -12.5422 -14.0033 14.2115 -12.5422 -14.2309 
22.0747 -12.5422 -14.7526 29.9378 -12.5422 -15.2613 37.8009 -12.5422 -15.3061 
45.6641 -12.5422 -14.2108 -48.6936 -4.67903 -14.3667 -40.8304 -4.67903 -15.0391 
-32.9673 -4.67903 -15.199 -25.1042 -4.67903 -14.4604 -17.241 -4.67903 -13.7898 
-9.37789 -4.67903 -16.1288 -1.51475 -4.67903 -14.9448 6.34839 -4.67903 -16.5257 
14.2115 -4.67903 -13.1668 22.0747 -4.67903 -14.6704 29.9378 -4.67903 -15.9235 
37.8009 -4.67903 -17.0327 45.6641 -4.67903 -15.786 53.5272 -4.67903 -14.2209 
-48.6936 3.18411 -15.3638 -40.8304 3.18411 -15.4241 -32.9673 3.18411 -15.3423 
-25.1042 3.18411 -14.357 -17.241 3.18411 -13.2321 -9.37789 3.18411 -15.2001 
-1.51475 3.18411 -12.845 6.34839 3.18411 -20.0628 14.2115 3.18411 -14.3286 
22.0747 3.18411 -14.697 29.9378 3.18411 -16.1418 37.8009 3.18411 -16.484 
45.6641 3.18411 -16.1512 53.5272 3.18411 -14.6279 -56.5567 11.0472 -13.3466 
-48.6936 11.0472 -15.3743 -40.8304 11.0472 -15.3505 -32.9673 11.0472 -15.4767 
-25.1042 11.0472 -14.8707 -17.241 11.0472 -13.9789 -9.37789 11.0472 -14.7704 
-1.51475 11.0472 -14.0163 6.34839 11.0472 -15.4448 14.2115 11.0472 -13.5355 
22.0747 11.0472 -14.3454 29.9378 11.0472 -15.5123 37.8009 11.0472 -16.465 
45.6641 11.0472 -15.4814 53.5272 11.0472 -13.7777 -48.6936 18.9104 -13.6579 
-40.8304 18.9104 -15.1499 -32.9673 18.9104 -16.6488 -25.1042 18.9104 -16.3512 
-17.241 18.9104 -16.1218 -9.37789 18.9104 -15.4109 -1.51475 18.9104 -14.2434 
6.34839 18.9104 -14.0621 14.2115 18.9104 -14.3018 22.0747 18.9104 -14.5308 
29.9378 18.9104 -15.3413 37.8009 18.9104 -14.6621 45.6641 18.9104 -14.4337 
53.5272 18.9104 -13.1549 -40.8304 26.7735 -15.7774 -32.9673 26.7735 -16.0581 
-25.1042 26.7735 -16.4863 -17.241 26.7735 -16.7767 -9.37789 26.7735 -15.9186 
-1.51475 26.7735 -14.7925 6.34839 26.7735 -14.3118 14.2115 26.7735 -13.7947 
22.0747 26.7735 -13.7922 29.9378 26.7735 -13.0169 37.8009 26.7735 -12.652 
45.6641 26.7735 -13.0498 -32.9673 34.6367 -14.8818 -25.1042 34.6367 -15.2973 
-17.241 34.6367 -16.1557 -9.37789 34.6367 -15.3167 -1.51475 34.6367 -14.5683 
6.34839 34.6367 -12.7397 -32.9673 -43.9947 -5.6679 -25.1042 -37.798 -12.4781 
-25.1042 -43.9947 -10.0122 -17.241 -38.0804 -12.4781 -17.241 -43.9947 -10.3056 
-9.37789 -39.1872 -12.4781 -9.37789 -43.9947 -10.5648 -1.51475 -38.5745 -12.4781 
-1.51475 -43.9947 -9.40364 6.34839 -43.9947 -5.2318 -40.8304 -36.1316 -6.46327 
-26.2705 -36.1316 -12.4781 -32.9673 -30.1697 -12.4781 -32.9673 -36.1316 -10.1703 
6.31736 -36.1316 -12.4781 6.34839 -36.1189 -12.4781 6.34839 -36.1316 -12.4731 
14.2115 -31.1079 -12.4781 14.2115 -36.1316 -8.27988 -48.6936 -28.2684 -5.19208 
-34.5789 -28.2684 -12.4781 -40.8304 -20.8339 -12.4781 -40.8304 -28.2684 -9.69647 
21.224 -28.2684 -12.4781 22.0747 -27.7285 -12.4781 22.0747 -28.2684 -12.2404 
29.9378 -24.2316 -12.4781 29.9378 -28.2684 -9.93517 37.8009 -22.2868 -12.4781 
37.8009 -28.2684 -7.19645 -41.2288 -20.4053 -12.4781 -48.6936 -20.4053 -8.91951 
41.0523 -20.4053 -12.4781 45.6641 -16.6498 -12.4781 45.6641 -20.4053 -10.4915 
53.5272 -20.4053 -7.06684 -56.5567 -12.5422 -8.72077 -46.3986 -12.5422 -12.4781 
-48.6936 -10.4984 -12.4781 -48.6936 -12.5422 -11.9143 51.2438 -12.5422 -12.4781 
53.5272 -10.1243 -12.4781 53.5272 -12.5422 -11.6089 61.3904 -12.5422 -6.3013 
-55.087 -4.67903 -12.4781 -56.5567 -4.67903 -11.8848 58.4997 -4.67903 -12.4781 
61.3904 -4.67903 -10.9445 -64.4199 3.18411 -4.8293 -53.5048 3.18411 -12.4781 
-56.5567 7.93207 -12.4781 -56.5567 3.18411 -10.7859 60.9737 3.18411 -12.4781 
61.3904 3.18411 -12.2955 -57.8251 11.0472 -12.4781 -56.5567 15.241 -12.4781 
57.0821 11.0472 -12.4781 61.3904 11.0472 -10.4189 -52.8092 18.9104 -12.4781 
-56.5567 18.9104 -10.8584 -48.6936 22.9134 -12.4781 54.7429 18.9104 -12.4781 
53.5272 20.1779 -12.4781 61.3904 18.9104 -7.17341 -56.5567 26.7735 -6.90112 
-46.6357 26.7735 -12.4781 -48.6936 26.7735 -11.407 -40.8304 33.5832 -12.4781 
14.2115 31.431 -12.4781 22.0747 30.8913 -12.4781 29.9378 28.0654 -12.4781 
37.8009 27.2309 -12.4781 46.7783 26.7735 -12.4781 45.6641 27.585 -12.4781 
53.5272 26.7735 -6.4603 -48.6936 34.6367 -8.27483 -39.7567 34.6367 -12.4781 
-40.8304 34.6367 -11.9227 -32.9673 40.0054 -12.4781 -25.1042 40.1506 -12.4781 
-17.241 42.1033 -12.4781 -9.37789 41.5596 -12.4781 -1.51475 38.801 -12.4781 
7.9511 34.6367 -12.4781 6.34839 35.1212 -12.4781 14.2115 34.6367 -11.4199 
22.0747 34.6367 -11.0613 29.9378 34.6367 -9.17055 37.8009 34.6367 -8.72815 
-32.9673 42.4998 -8.41798 -25.1042 42.4998 -10.2657 -17.241 42.4998 -12.1451 
-9.37789 42.4998 -11.7636 -1.51475 42.4998 -9.79748 6.34839 42.4998 -6.65552 
-32.9673 -44.9016 -4.61501 -25.1042 -48.0732 -4.61501 -17.241 -50.6524 -4.61501 
-9.37789 -50.8244 -4.61501 -9.37789 -51.8579 2.63271 -1.51475 -48.4483 -4.61501 
6.34839 -44.4398 -4.61501 -34.2988 -43.9947 -4.61501 -40.8304 -38.2688 -4.61501 
6.97719 -43.9947 -4.61501 14.2115 -38.7124 -4.61501 -42.7341 -36.1316 -4.61501 
-48.6936 -28.9556 -4.61501 19.1831 -36.1316 -4.61501 22.0747 -34.6565 -4.61501 
22.0747 -36.1316 1.06707 29.9378 -32.5976 -4.61501 37.8009 -30.2626 -4.61501 
-49.2121 -28.2684 -4.61501 43.5684 -28.2684 -4.61501 45.6641 -27.3358 -4.61501 
45.6641 -28.2684 -1.91865 53.5272 -22.5624 -4.61501 -54.73 -20.4053 -4.61501 
-56.5567 -18.4214 -4.61501 56.4851 -20.4053 -4.61501 61.3904 -15.0162 -4.61501 
-60.1279 -12.5422 -4.61501 62.8224 -12.5422 -4.61501 -62.7059 -4.67903 -4.61501 
-64.4199 2.35468 -4.61501 66.8458 -4.67903 -4.61501 -64.567 3.18411 -4.61501 
-64.4199 7.38604 -4.61501 -64.4199 3.18411 -3.45518 67.3439 3.18411 -4.61501 
-64.2445 11.0472 -4.61501 66.1874 11.0472 -4.61501 -61.1092 18.9104 -4.61501 
63.4984 18.9104 -4.61501 61.3904 21.5126 -4.61501 -58.2677 26.7735 -4.61501 
-56.5567 28.9783 -4.61501 -56.5567 26.7735 1.67883 45.6641 33.0217 -4.61501 
55.3384 26.7735 -4.61501 53.5272 28.3346 -4.61501 -51.3197 34.6367 -4.61501 
-48.6936 36.7804 -4.61501 -48.6936 34.6367 2.35709 -40.8304 41.3737 -4.61501 
14.2115 42.1565 -4.61501 22.0747 40.8164 -4.61501 29.9378 39.0777 -4.61501 
43.2265 34.6367 -4.61501 37.8009 37.2168 -4.61501 -37.338 42.4998 -4.61501 
-32.9673 43.7002 -4.61501 -32.9673 42.4998 -0.715878 -25.1042 45.3137 -4.61501 
-17.241 46.4259 -4.61501 -9.37789 46.5282 -4.61501 -1.51475 45.6527 -4.61501 
12.821 42.4998 -4.61501 6.34839 43.7863 -4.61501 6.34839 42.4998 2.00073 
-9.37789 -51.9241 3.24813 -32.9673 -45.8189 3.24813 -25.1042 -49.6954 3.24813 
-11.5243 -51.8579 3.24813 -17.241 -51.6581 3.24813 -9.103 -51.8579 3.24813 
-9.37789 -51.8579 3.39947 -1.51475 -49.8985 3.24813 6.34839 -45.8999 3.24813 
-35.61 -43.9947 3.24813 -40.8304 -39.211 3.24813 -32.9673 -43.9947 6.00332 
-25.1042 -43.9947 9.85482 9.15498 -43.9947 3.24813 6.34839 -43.9947 6.95913 
14.2115 -40.4471 3.24813 22.0747 -36.625 3.24813 -43.6121 -36.1316 3.24813 
-48.6936 -29.6851 3.24813 -40.8304 -36.1316 6.55978 24.3066 -36.1316 3.24813 
22.0747 -36.1316 4.95039 29.9378 -34.9033 3.24813 37.8009 -32.7213 3.24813 
45.6641 -29.6111 3.24813 -49.6664 -28.2684 3.24813 -48.6936 -28.2684 4.50434 
-40.8304 -28.2684 10.3846 48.1157 -28.2684 3.24813 45.6641 -28.2684 9.54458 
53.5272 -24.835 3.24813 -55.1177 -20.4053 3.24813 -56.5567 -18.3198 3.24813 
-48.6936 -20.4053 10.5585 59.0157 -20.4053 3.24813 61.3904 -17.5551 3.24813 
-59.8527 -12.5422 3.24813 -56.5567 -12.5422 6.9315 -48.6936 -12.5422 10.694 
64.44 -12.5422 3.24813 61.3904 -12.5422 8.90613 -61.7765 -4.67903 3.24813 
-56.5567 -4.67903 8.96573 67.9866 -4.67903 3.24813 -63.1035 3.18411 3.24813 
-56.5567 3.18411 9.78021 68.5211 3.18411 3.24813 -62.5409 11.0472 3.24813 
-56.5567 11.0472 9.32761 66.7318 11.0472 3.24813 61.3904 11.0472 9.87243 
-60.4476 18.9104 3.24813 -56.5567 26.0098 3.24813 -56.5567 18.9104 7.00039 
-48.6936 18.9104 10.2106 63.2733 18.9104 3.24813 61.3904 21.1437 3.24813 
61.3904 18.9104 5.64622 -55.8127 26.7735 3.24813 -48.6936 34.1296 3.24813 
-48.6936 26.7735 8.1259 -40.8304 26.7735 10.5039 37.8009 26.7735 10.9036 
45.6641 33.039 3.24813 45.6641 26.7735 10.6434 54.9187 26.7735 3.24813 
53.5272 27.9704 3.24813 53.5272 26.7735 4.63175 -48.2152 34.6367 3.24813 
-40.8304 39.1544 3.24813 -40.8304 34.6367 7.3671 -32.9673 40.7651 3.24813 
-32.9673 34.6367 8.52934 -25.1042 34.6367 9.715 -17.241 34.6367 10.4421 
-9.37789 34.6367 10.8719 -1.51475 34.6367 10.3449 6.34839 42.1782 3.24813 
6.34839 34.6367 9.28293 14.2115 40.7587 3.24813 14.2115 34.6367 8.78162 
22.0747 40.1396 3.24813 22.0747 34.6367 8.74606 29.9378 38.7372 3.24813 
29.9378 34.6367 7.67254 42.4833 34.6367 3.24813 37.8009 36.8304 3.24813 
37.8009 34.6367 6.46214 -26.1924 42.4998 3.24813 -25.1042 42.7044 3.24813 
-25.1042 42.4998 3.53182 -17.241 43.7798 3.24813 -17.241 42.4998 4.82216 
-9.37789 44.1268 3.24813 -9.37789 42.4998 5.29542 4.9563 42.4998 3.24813 
-1.51475 43.6706 3.24813 -1.51475 42.4998 4.74702 -17.241 -45.2252 11.1113 
-9.37789 -45.9412 11.1113 -1.51475 -44.4509 11.1113 -32.9673 -36.8369 11.1113 
-20.3206 -43.9947 11.1113 -25.1042 -42.0896 11.1113 -17.241 -43.9947 11.9671 
-9.37789 -43.9947 12.6008 -0.451797 -43.9947 11.1113 -1.51475 -43.9947 11.5143 
6.34839 -40.3444 11.1113 14.2115 -37.0326 11.1113 -33.7114 -36.1316 11.1113 
[...]
POINT_DATA 530
SCALARS ImageScalars float
LOOKUP_TABLE default
0 0 0 0 0 0 0 0 0 
0 0 0 0 0 0 0 0 0 
0 0 0 0 0 0 0 0 0 
0 0 0 0 0 0 0 0 0 
0 0 0 0 0 0 0 0 0 
0 0 0 0 0 0 0 0 0 
0 0 0 0 0 0 0 0 0 
0 0 0 0 0 0 0 0 0 
0 0 0 0 0 0 0 0 0 
0 0 0 0 0 0 0 0 0 
0 0 0 0 0 0 0 0 0 
0 0 0 0 0 0 0 0 0 
0 0 0 0 0 0 0 0 0 
0 0 0 0 0 0 0 0 0 
0 0 0 0 0 0 0 0 0 
0 0 0 0 0 0 0 0 0 
0 0 0 0 0 0 0 0 0 
0 0 0 0 0 0 0 0 0 
0 0 0 0 0 0 0 0 0 
0 0 0 0 0 0 0 0 0 
0 0 0 0 0 0 0 0 0 
0 0 0 0 0 0 0 0 0 
0 0 0 0 0 0 0 0 0 
0 0 0 0 0 0 0 0 0 
0 0 0 0 0 0 0 0 0 
0 0 0 0 0 0 0 0 0 
0 0 0 0 0 0 0 0 0 
0 0 0 0 0 0 0 0 0 
0 0 0 0 0 0 0 0 0 
0 0 0 0 0 0 0 0 0 
0 0 0 0 0 0 0 0 0 
0 0 0 0 0 0 0 0 0 
0 0 0 0 0 0 0 0 0 
0 0 0 0 0 0 0 0 0 
0 0 0 0 0 0 0 0 0 
0 0 0 0 0 0 0 0 0 
0 0 0 0 0 0 0 0 0 
0 0 0 0 0 0 0 0 0 
0 0 0 0 0 0 0 0 0 
0 0 0 0 0 0 0 0 0 
0 0 0 0 0 0 0 0 0 
0 0 0 0 0 0 0 0 0 
0 0 0 0 0 0 0 0 0 
0 0 0 0 0 0 0 0 0 
0 0 0 0 0 0 0 0 0 
0 0 0 0 0 0 0 0 0 
0 0 0 0 0 0 0 0 0 
0 0 0 0 0 0 0 0 0 
0 0 0 0 0 0 0 0 0 
0 0 0 0 0 0 0 0 0 
0 0 0 0 0 0 0 0 0 
0 0 0 0 0 0 0 0 0 
0 0 0 0 0 0 0 0 0 
0 0 0 0 0 0 0 0 0 
0 0 0 0 0 0 0 0 0 
0 0 0 0 0 0 0 0 0 
0 0 0 0 0 0 0 0 0 
0 0 0 0 0 0 0 0 0 
0 0 0 0 0 0 0 0 
NORMALS Normals float
0.193527 0.200674 0.960353 0.0379293 0.223439 0.97398 0.0298849 0.228774 0.973021 
-0.0618687 0.300053 0.951914 0.26911 0.220871 0.937441 0.0569714 0.074508 0.995592 
0.0404915 0.0837025 0.995668 0.0539451 0.0351082 0.997927 0.0360982 0.0480059 0.998195 
-0.0736616 0.15339 0.985416 -0.171807 0.321075 0.93134 0.277327 0.274936 0.920598 
0.0895688 0.114985 0.989321 0.052906 0.0382542 0.997867 -0.00159628 -0.0163933 0.999864 
-0.00314468 -0.0440048 0.999026 0.0640576 -0.0615145 0.996049 0.044349 -0.0702052 0.996546 
-0.0263509 0.0161316 0.999523 -0.0540168 0.135636 0.989285 -0.080471 0.287445 0.954411 
-0.189305 0.3668 0.910835 0.183839 0.132735 0.973953 0.0396176 0.0954642 0.994644 
-0.0730864 0.0155576 0.997204 -0.0413165 -0.0470544 0.998038 0.00654869 0.107832 0.994148 
0.00984606 0.0237268 0.99967 0.00844465 0.0113284 0.9999 0.0477871 -0.107064 0.993103 
0.0651126 -0.00618107 0.997859 0.0350144 0.0986151 0.994509 -0.0681633 0.223686 0.972275 
-0.209671 0.287309 0.934608 0.224258 0.216125 0.950262 0.0466249 0.0986014 0.994034 
-0.0369109 0.0115207 0.999252 -0.0893293 -0.00911568 0.99596 0.0866817 -0.0487006 0.995045 
0.0920938 0.0998639 0.99073 -0.013429 -0.0655803 0.997757 -0.0770313 0.403243 0.911845 
-0.0243176 -0.0373035 0.999008 0.148856 -0.00363575 0.988852 0.145729 0.0551998 0.987783 
-0.00826487 0.0715858 0.9974 -0.164976 0.12113 0.978831 -0.272733 0.172081 0.946575 
0.271888 0.0561431 0.96069 -0.00192791 0.0196681 0.999805 -0.0675416 0.0176098 0.997561 
-0.134574 0.0238072 0.990618 0.0271146 0.00829124 0.999598 0.0098771 -0.0925383 0.99566 
0.223621 -0.0580792 0.972944 0.215516 -0.150346 0.964857 -0.286883 0.000151651 0.957966 
0.108083 -0.0215615 0.993908 0.112851 -0.0259884 0.993272 0.000800365 -0.0348201 0.999393 
-0.110749 -0.0191412 0.993664 -0.258701 -0.0238315 0.965663 0.471145 0.0279438 0.881613 
0.176623 -0.106136 0.978539 0.00683898 -0.0173102 0.999827 -0.027764 0.0810383 0.996324 
-0.093671 0.131109 0.986933 -0.00418142 0.189514 0.981869 0.00171921 0.0199568 0.999799 
0.0309186 0.0756436 0.996655 -0.0417081 -0.316385 0.947714 -0.0513451 0.0244191 0.998382 
0.124834 -0.010204 0.992125 0.132485 -0.0500624 0.98992 -0.00133575 -0.113595 0.993526 
-0.149684 -0.0945201 0.984206 -0.303869 -0.10278 0.947154 0.260042 -0.23811 0.935779 
0.174216 0.0201868 0.9845 0.0756391 0.0393518 0.996358 -0.0333171 0.0967349 0.994752 
-0.0594886 0.166204 0.984295 -0.118447 0.0700904 0.990484 -0.0856079 0.0482904 0.995158 
0.00375548 -0.0577854 0.998322 0.0300015 0.0168999 0.999407 0.0635129 -0.0325653 0.99745 
0.0109561 -0.154563 0.987922 -0.0540526 -0.215844 0.974931 -0.121046 -0.192204 0.973861 
-0.360328 -0.325113 0.874337 0.260146 -0.16243 0.951809 0.043192 -0.123026 0.991463 
0.0445927 -0.0601536 0.997193 -0.0344335 0.00655714 0.999385 -0.126997 -0.00827135 0.991869 
-0.0989561 0.0224644 0.994838 -0.0638567 -0.0727086 0.995307 -0.032356 -0.165224 0.985725 
-0.0479797 -0.208033 0.976944 -0.0640487 -0.326097 0.943164 0.00755476 -0.328051 0.94463 
-0.272498 -0.465014 0.842322 0.17128 -0.281965 0.944012 0.0804989 -0.274399 0.958241 
-0.00694001 -0.269704 0.962918 -0.0874102 -0.228709 0.969563 -0.161082 -0.252483 0.954099 
-0.177838 -0.341769 0.922804 0.468229 0.726599 0.502807 0.197067 0.275278 0.94095 
0.228832 0.596446 0.769343 0.027965 0.277492 0.960321 0.0271316 0.515251 0.85661 
0.00687724 0.326057 0.945325 -0.0452885 0.52288 0.851202 -0.103042 0.385838 0.916794 
-0.243784 0.650767 0.719077 -0.483809 0.776428 0.403842 0.615995 0.550694 0.563282 
0.217326 0.223829 0.950089 0.287178 0.262405 0.921234 0.344865 0.396383 0.850852 
-0.224315 0.452938 0.862861 -0.224713 0.453052 0.862698 -0.225082 0.453623 0.862302 
-0.245067 0.444626 0.861539 -0.431843 0.711261 0.554634 0.726753 0.531479 0.435156 
0.299613 0.24436 0.922237 0.283823 0.277073 0.917974 0.428126 0.33665 0.838674 
-0.207815 0.489551 0.846849 -0.201099 0.48358 0.851886 -0.213154 0.516571 0.829289 
-0.148118 0.429371 0.890899 -0.230245 0.638496 0.734377 -0.203328 0.439412 0.874971 
-0.254269 0.765256 0.591381 0.286272 0.277832 0.916983 0.510203 0.407471 0.757404 
-0.238787 0.409198 0.880646 -0.261943 0.384128 0.885343 -0.336172 0.494158 0.801746 
-0.483099 0.649337 0.587347 0.632537 0.39095 0.668621 0.243726 0.24014 0.939644 
0.251353 0.266379 0.930518 0.282833 0.289963 0.914291 -0.339841 0.319575 0.884522 
-0.354778 0.278202 0.892601 -0.402614 0.3442 0.848191 -0.706854 0.452371 0.543799 
0.456153 0.1018 0.884059 0.527406 0.0871553 0.845131 -0.455126 0.236364 0.858483 
-0.59779 0.267975 0.755537 0.94263 0.0794084 0.324257 0.422431 0.077101 0.90311 
0.484936 0.059765 0.872505 0.544723 0.0911657 0.833646 -0.524199 -0.0277318 0.851144 
-0.544441 -0.0269694 0.838365 0.514591 0.0177722 0.857252 0.50125 -0.132967 0.855025 
-0.398598 -0.167128 0.901769 -0.581241 -0.249824 0.774433 0.392575 -0.266251 0.880338 
0.571529 -0.30115 0.763324 0.334775 -0.222918 0.915551 -0.412756 -0.341007 0.844599 
-0.395079 -0.36529 0.842898 -0.707113 -0.497647 0.502334 0.773738 -0.51975 0.362202 
0.386445 -0.208629 0.898407 0.449934 -0.244055 0.859067 0.325638 -0.412111 0.850955 
-0.067188 -0.32201 0.944349 -0.0820984 -0.3263 0.941694 -0.0704767 -0.361699 0.929627 
-0.00372551 -0.346757 0.937948 -0.307586 -0.493484 0.81355 -0.287668 -0.519235 0.804762 
-0.569765 -0.689529 0.447122 0.589129 -0.654785 0.47348 0.307607 -0.420528 0.853542 
0.34258 -0.467025 0.815185 0.189876 -0.619381 0.761783 0.068866 -0.59468 0.801007 
0.0468279 -0.602884 0.796454 -0.0966138 -0.558507 0.823854 -0.201612 -0.444248 0.872924 
-0.158879 -0.362338 0.918406 -0.18175 -0.365126 0.913045 -0.102092 -0.472605 0.875341 
-0.121978 -0.498386 0.858331 -0.134771 -0.677666 0.722915 -0.27114 -0.730887 0.626328 
0.225691 -0.919219 0.322646 0.118427 -0.838035 0.532609 0.0500174 -0.64108 0.765842 
-0.0951778 -0.64683 0.756672 -0.217044 -0.74171 0.634633 -0.245799 -0.899599 0.360978 
0.467809 0.772528 0.429365 0.32853 0.83298 0.445211 0.138122 0.898358 0.416983 
-0.122206 0.899164 0.420203 -0.111968 0.985111 -0.130456 -0.339005 0.842668 0.418313 
-0.490367 0.786889 0.374628 0.502444 0.752278 0.426178 0.656247 0.628928 0.41688 
-0.497184 0.783055 0.373676 -0.515342 0.77421 0.367453 0.680867 0.601712 0.417568 
0.736072 0.543417 0.403604 -0.386812 0.841232 0.377763 -0.317092 0.860433 0.398883 
-0.321411 0.94356 0.0799286 -0.249457 0.857141 0.450645 -0.272212 0.841776 0.466169 
0.738922 0.540033 0.402937 -0.360361 0.817018 0.450134 -0.4018 0.793912 0.456355 
-0.4253 0.859513 0.283475 -0.519691 0.720993 0.458356 0.717444 0.576141 0.391581 
0.758347 0.543362 0.360093 -0.581483 0.677327 0.450673 -0.732535 0.509693 0.451226 
0.848538 0.405853 0.339509 -0.780198 0.45155 0.432889 0.910432 0.262158 0.319978 
0.945503 0.0988842 0.310234 -0.830133 0.2828 0.480524 0.949689 0.0783114 0.303245 
0.952058 -0.0638889 0.299173 0.976784 0.0774872 0.199723 -0.893875 -0.0427293 0.446275 
0.940399 -0.185507 0.285021 -0.885543 -0.258835 0.38577 0.892048 -0.347415 0.289057 
-0.791302 -0.499509 0.352607 -0.713368 -0.610666 0.343793 0.834134 -0.505375 0.220943 
0.79666 -0.567812 0.207177 0.712422 -0.579155 -0.396276 -0.481154 -0.822552 0.30315 
-0.600571 -0.734446 0.316075 -0.57934 -0.750514 0.317953 0.671934 -0.72738 0.139367 
0.599922 -0.791514 0.116613 0.585128 -0.678115 -0.444731 0.409841 -0.907001 0.0968514 
-0.182392 -0.944544 0.273075 -0.170519 -0.945432 0.277635 -0.230889 -0.910621 0.342724 
-0.451911 -0.84196 0.294753 -0.345776 -0.892492 0.289649 0.326681 -0.944347 0.0385718 
0.241333 -0.970434 0.00410831 0.226937 -0.936453 -0.267499 0.171461 -0.984158 0.0451104 
0.0801958 -0.996327 0.0300293 -0.0509396 -0.996324 0.0688722 -0.183582 -0.973989 0.132829 
-0.190535 -0.947239 0.257748 -0.230163 -0.951566 0.203832 -0.180507 -0.91177 -0.368906 
-0.109568 0.978974 -0.17206 0.544358 0.807882 -0.225832 0.327198 0.920539 -0.213421 
-0.0418421 0.983955 -0.17344 0.138098 0.97462 -0.176198 -0.118277 0.978149 -0.170981 
-0.10951 0.977108 -0.182394 -0.344804 0.925981 -0.153848 -0.508723 0.85165 -0.126068 
0.603067 0.764577 -0.227448 0.701021 0.667604 -0.250747 0.51751 0.736672 -0.435313 
0.250324 0.622647 -0.741383 -0.536176 0.837922 -0.101995 -0.466491 0.803451 -0.369936 
-0.536013 0.842125 -0.0592942 -0.316461 0.948201 -0.0277019 0.73662 0.6257 -0.256691 
0.775081 0.562059 -0.288687 0.654441 0.551566 -0.517187 -0.297738 0.954338 -0.0242996 
-0.310377 0.939898 -0.14233 -0.253203 0.967332 -0.0125374 -0.300348 0.953829 -0.00123262 
-0.440715 0.897466 0.0180141 0.779273 0.551821 -0.297031 0.75654 0.543974 -0.36296 
0.492882 0.29503 -0.81855 -0.489142 0.872195 0.00397774 -0.434287 0.797172 -0.419417 
-0.602974 0.796778 -0.0396032 0.787795 0.52868 -0.316032 0.800424 0.486118 -0.350729 
0.506058 0.254769 -0.824014 -0.712165 0.696776 -0.0855818 -0.783744 0.609894 -0.117366 
0.86936 0.374666 -0.322239 0.666589 0.366662 -0.649013 0.412547 0.0768491 -0.907689 
-0.868265 0.480625 -0.122942 -0.722603 0.424469 -0.545592 0.882109 0.181506 -0.434672 
0.66495 0.161949 -0.729118 -0.951912 0.230182 -0.202186 0.86323 0.0430558 -0.502972 
0.636628 0.0198747 -0.770915 -0.973162 -0.0726786 -0.218341 0.856411 -0.152178 -0.493358 
0.642717 -0.185571 -0.743288 -0.90758 -0.327388 -0.262899 -0.595744 -0.378521 -0.708386 
0.855875 -0.333647 -0.395167 0.66159 -0.540145 -0.520137 0.603589 -0.350756 -0.715996 
0.330658 -0.177665 -0.926877 -0.751882 -0.5766 -0.319695 -0.688656 -0.651275 -0.318737 
-0.658918 -0.551002 -0.512077 0.641115 -0.558963 -0.525863 0.566027 -0.647276 -0.510536 
0.483467 -0.443705 -0.754577 0.208008 -0.307084 -0.928672 -0.145341 -0.369283 -0.917881 
-0.453639 -0.831765 -0.319967 -0.263588 -0.47353 -0.840411 -0.650584 -0.686133 -0.325519 
-0.634045 -0.700253 -0.328075 -0.619793 -0.658322 -0.427163 0.55298 -0.657117 -0.51226 
0.34158 -0.773261 -0.534219 0.284117 -0.59005 -0.755724 0.186603 -0.794541 -0.577827 
0.139737 -0.552861 -0.821474 0.103309 -0.453443 -0.885278 0.0651166 -0.44221 -0.894544 
-0.00336545 -0.424127 -0.905596 -0.0925503 -0.405321 -0.909477 -0.161626 -0.865409 -0.474283 
-0.0867658 -0.46049 -0.883414 -0.10683 -0.8907 -0.441862 -0.0340511 -0.568782 -0.821783 
-0.117198 -0.913046 -0.390656 -0.0623267 -0.609641 -0.790223 -0.205536 -0.90476 -0.373047 
-0.116479 -0.709283 -0.695234 -0.4041 -0.851254 -0.33477 -0.330593 -0.87973 -0.341736 
-0.293843 -0.760257 -0.579367 0.159106 -0.84275 -0.514255 0.153377 -0.848094 -0.507161 
0.153471 -0.838111 -0.523466 0.085424 -0.836054 -0.541956 0.0786382 -0.78256 -0.617589 
-0.00672227 -0.846782 -0.531898 -0.0026528 -0.774193 -0.632944 -0.156521 -0.865033 -0.476675 
-0.119074 -0.851845 -0.51008 -0.114423 -0.797379 -0.592532 0.15103 0.541941 -0.826734 
-0.0418852 0.597577 -0.800717 -0.216495 0.60484 -0.766354 0.38572 0.407232 -0.827878 
0.179495 0.526853 -0.830787 0.217516 0.5155 -0.828822 0.151748 0.492487 -0.856988 
-0.0230796 0.523777 -0.851543 -0.232878 0.605669 -0.760876 -0.211599 0.588018 -0.78068 
-0.287671 0.559484 -0.777318 -0.306438 0.623922 -0.7189 0.398239 0.392096 -0.829257 
0.383811 0.387875 -0.837999 0.169746 0.299629 -0.938834 0.0780866 0.210334 -0.974506 
0.0123151 0.177471 -0.984049 -0.100948 0.222764 -0.969632 -0.197324 0.352703 -0.914693 
-0.281247 0.653311 -0.702911 -0.279095 0.576669 -0.767828 -0.176289 0.698794 -0.693259 
-0.17565 0.7745 -0.607698 -0.251771 0.729156 -0.636351 0.444655 0.260231 -0.857066 
0.413787 0.275284 -0.867755 0.283262 0.148772 -0.947433 0.131932 0.104868 -0.985696 
0.00911856 0.0675746 -0.997673 -0.0114241 0.0112674 -0.999871 -0.0505769 -0.0384795 -0.997979 
-0.074512 0.0476183 -0.996083 -0.0519279 0.196407 -0.979146 -0.0059549 0.427729 -0.903888 
-0.102541 0.483897 -0.869097 -0.382205 0.73286 -0.562882 -0.220729 0.634318 -0.740891 
-0.406785 0.721309 -0.56057 -0.544699 0.559077 -0.625089 0.447768 0.241928 -0.860799 
0.264129 0.233217 -0.935866 0.153957 0.0462233 -0.986996 0.0950319 -0.0377965 -0.994756 
-0.00337658 -0.03315 -0.999445 -0.0972237 -0.0628622 -0.993275 -0.0581513 -0.151092 -0.986808 
0.044408 -0.117732 -0.992052 0.122689 -0.0117728 -0.992375 0.08521 0.10379 -0.990942 
-0.00142726 0.183994 -0.982926 -0.108599 0.293507 -0.949768 -0.259266 0.338118 -0.904687 
-0.567098 0.535978 -0.625402 -0.506171 0.517308 -0.69006 0.384349 0.0660225 -0.920824 
0.353895 0.0733708 -0.932403 0.216399 0.0238411 -0.976014 0.0813583 0.00596583 -0.996667 
0.0414404 -0.0998754 -0.994137 -0.0125657 -0.136428 -0.99057 -0.131023 0.0354304 -0.990746 
-0.105743 -0.0437948 -0.993429 0.0684652 -0.0117088 -0.997585 0.168468 -0.132385 -0.976777 
0.192645 -0.0776546 -0.978191 0.0936912 0.0181295 -0.995436 -0.0443357 0.0639551 -0.996967 
-0.153879 0.174254 -0.972603 -0.588972 0.338708 -0.73375 -0.423341 0.238332 -0.874059 
-0.614471 0.280053 -0.73756 0.370828 0.113196 -0.921777 0.241667 0.081642 -0.966919 
0.153975 -0.0453561 -0.987033 0.0311801 -0.0482231 -0.99835 -0.0478736 -0.135056 -0.989681 
0.129533 -0.22101 -0.966631 0.0269848 -0.0492686 -0.998421 -0.109305 -0.0723615 -0.991371 
-0.115473 0.282036 -0.952429 0.067166 -0.163593 -0.984239 0.239543 -0.126315 -0.962634 
0.144658 -0.0963154 -0.984783 0.0576701 -0.0478243 -0.99719 -0.0952174 -0.00184392 -0.995455 
-0.34065 0.0730113 -0.937351 -0.639654 0.154261 -0.753025 -0.550854 0.14074 -0.82265 
0.397505 -0.00668505 -0.917576 0.187865 -0.0314108 -0.981692 0.116944 0.0121477 -0.993064 
-0.0164154 -0.0656838 -0.997705 -0.128269 -0.0625078 -0.989768 -0.018389 -0.0834662 -0.996341 
0.0234632 -0.18025 -0.983341 0.0602727 0.00045981 -0.998182 -0.0822014 -0.19268 -0.977813 
0.0351665 -0.0464 -0.998304 0.245269 -0.104638 -0.963791 0.164432 -0.128531 -0.977979 
0.0487602 -0.123294 -0.991172 -0.0415445 -0.173692 -0.983923 -0.297519 -0.173152 -0.938883 
-0.621258 -0.123839 -0.773759 -0.546519 -0.281422 -0.788745 -0.52132 -0.110431 -0.846186 
0.297027 -0.123315 -0.946873 0.256662 -0.114019 -0.959752 0.230555 -0.104497 -0.967432 
0.114216 -0.0338154 -0.99288 -0.0429943 -0.0582192 -0.997378 -0.0593898 0.0423806 -0.997335 
0.0525218 0.138844 -0.98892 0.0654874 0.0639338 -0.995803 -0.00158708 0.0692499 -0.997598 
-0.0995814 -0.150312 -0.983611 -0.0165935 0.0921876 -0.995603 0.163946 -0.0540777 -0.984986 
0.128136 -0.126142 -0.983702 0.0103055 -0.206713 -0.978347 -0.130258 -0.227577 -0.965009 
-0.45973 -0.327385 -0.82551 -0.251961 -0.253821 -0.933858 0.268654 -0.175619 -0.947092 
0.193121 -0.278804 -0.94073 0.179889 -0.207752 -0.961498 0.0642742 -0.0710818 -0.995398 
0.0608722 -0.0265585 -0.997792 0.0515504 0.0401535 -0.997863 -0.0407124 -0.0264545 -0.998821 
-0.123773 -0.0717589 -0.989713 -8.96987e-05 -0.112101 -0.993697 0.0454215 0.014925 -0.998856 
0.0361278 -0.0645775 -0.997258 0.0230463 -0.131331 -0.991071 -0.138119 -0.353545 -0.925164 
-0.064968 -0.254485 -0.964892 -0.229374 -0.425078 -0.875612 -0.131075 -0.284663 -0.949624 
-0.381789 -0.41601 -0.825332 -0.367972 -0.43657 -0.820977 -0.347072 -0.404811 -0.845972 
0.175025 -0.287456 -0.941666 0.13442 -0.352723 -0.926023 0.13164 -0.258671 -0.956954 
0.0780753 -0.337702 -0.938009 0.0558732 -0.234957 -0.970398 0.0641916 -0.383955 -0.921118 
0.0521408 -0.21505 -0.97521 -0.00612592 -0.402438 -0.915427 -0.0460738 -0.219303 -0.974568 
-0.0926167 -0.314915 -0.94459 -0.0949135 -0.176501 -0.979714 -0.0346763 -0.265788 -0.963408 
-0.00774725 -0.192131 -0.981339 0.0084222 -0.356791 -0.934146 0.0303455 -0.261757 -0.964656 
0.00777873 -0.349773 -0.936802 0.0274377 -0.243335 -0.969554 -0.137068 -0.358397 -0.923452 
-0.0789459 -0.436666 -0.896153 -0.0704619 -0.314448 -0.946656 
