# vtk DataFile Version 4.2
vtk output
ASCII
DATASET POLYDATA
POINTS 532 float
-9.70924 -42.9284 -13.892 -2.08222 -42.9284 -14.6884 5.54479 -42.9284 -15.1786 
13.1718 -42.9284 -13.2552 -17.3363 -35.3014 -14.7889 -9.70924 -35.3014 -16.2041 
-2.08222 -35.3014 -17.3114 5.54479 -35.3014 -17.7139 13.1718 -35.3014 -17.4086 
20.7988 -35.3014 -16.2774 28.4258 -35.3014 -12.51 -24.9633 -27.6744 -14.0006 
-17.3363 -27.6744 -16.2191 -9.70924 -27.6744 -16.9615 -2.08222 -27.6744 -17.7512 
5.54479 -27.6744 -18.4621 13.1718 -27.6744 -18.6575 20.7988 -27.6744 -19.0161 
28.4258 -27.6744 -17.047 36.0528 -27.6744 -12.9151 -24.9633 -20.0474 -14.9332 
-17.3363 -20.0474 -16.4563 -9.70924 -20.0474 -16.4542 -2.08222 -20.0474 -16.8722 
5.54479 -20.0474 -17.8076 13.1718 -20.0474 -18.8419 20.7988 -20.0474 -19.7023 
28.4258 -20.0474 -19.3177 36.0528 -20.0474 -16.2091 -32.5903 -12.4203 -13.4112 
-24.9633 -12.4203 -15.3381 -17.3363 -12.4203 -16.3517 -9.70924 -12.4203 -15.9915 
-2.08222 -12.4203 -16.2453 5.54479 -12.4203 -17.945 13.1718 -12.4203 -18.3708 
20.7988 -12.4203 -19.1985 28.4258 -12.4203 -18.9077 36.0528 -12.4203 -17.5599 
43.6799 -12.4203 -13.7049 -40.2173 -4.79333 -12.7792 -32.5903 -4.79333 -14.0314 
-24.9633 -4.79333 -14.875 -17.3363 -4.79333 -15.9621 -9.70924 -4.79333 -17.1329 
-2.08222 -4.79333 -16.5657 5.54479 -4.79333 -18.4573 13.1718 -4.79333 -17.8961 
20.7988 -4.79333 -18.4912 28.4258 -4.79333 -18.766 36.0528 -4.79333 -17.7169 
43.6799 -4.79333 -15.1558 -40.2173 2.83369 -12.9093 -32.5903 2.83369 -14.8962 
-24.9633 2.83369 -15.6408 -17.3363 2.83369 -16.1424 -9.70924 2.83369 -17.7637 
-2.08222 2.83369 -17.1162 5.54479 2.83369 -18.7765 13.1718 2.83369 -18.2483 
20.7988 2.83369 -18.731 28.4258 2.83369 -18.8873 36.0528 2.83369 -17.8721 
43.6799 2.83369 -15.3936 -40.2173 10.4607 -13.7253 -32.5903 10.4607 -16.1525 
-24.9633 10.4607 -17.2406 -17.3363 10.4607 -17.5523 -9.70924 10.4607 -17.1437 
-2.08222 10.4607 -18.7843 5.54479 10.4607 -19.2157 13.1718 10.4607 -18.0848 
20.7988 10.4607 -19.0842 28.4258 10.4607 -19.1196 36.0528 10.4607 -17.6562 
43.6799 10.4607 -14.8258 -40.2173 18.0877 -14.2397 -32.5903 18.0877 -17.2401 
-24.9633 18.0877 -18.8349 -17.3363 18.0877 -18.9242 -9.70924 18.0877 -17.9677 
-2.08222 18.0877 -18.3836 5.54479 18.0877 -18.3835 13.1718 18.0877 -18.4067 
20.7988 18.0877 -18.789 28.4258 18.0877 -18.635 36.0528 18.0877 -16.2834 
43.6799 18.0877 -12.4086 -40.2173 25.7147 -12.7822 -32.5903 25.7147 -17.2494 
-24.9633 25.7147 -19.5184 -17.3363 25.7147 -19.4425 -9.70924 25.7147 -18.9745 
-2.08222 25.7147 -18.9846 5.54479 25.7147 -18.8507 13.1718 25.7147 -18.4169 
20.7988 25.7147 -18.0701 28.4258 25.7147 -15.6676 -32.5903 33.3417 -15.225 
-24.9633 33.3417 -17.6345 -17.3363 33.3417 -18.7561 -9.70924 33.3417 -19.4957 
-2.08222 33.3417 -18.8642 5.54479 33.3417 -19.0695 13.1718 33.3417 -17.259 
20.7988 33.3417 -14.7372 -24.9633 40.9688 -13.804 -17.3363 40.9688 -16.0542 
-9.70924 40.9688 -17.2743 -2.08222 40.9688 -16.6813 5.54479 40.9688 -16.1803 
13.1718 40.9688 -13.3947 -9.70924 -45.0471 -12.3463 -2.08222 -45.813 -12.3463 
5.54479 -46.1346 -12.3463 13.1718 -43.9246 -12.3463 -24.9633 -42.9284 -5.97917 
-13.8548 -42.9284 -12.3463 -17.3363 -40.1905 -12.3463 -17.3363 -42.9284 -10.4497 
15.4674 -42.9284 -12.3463 20.7988 -40.1892 -12.3463 20.7988 -42.9284 -7.09482 
28.4258 -35.463 -12.3463 -32.5903 -35.3014 -5.24825 -22.5964 -35.3014 -12.3463 
-24.9633 -32.2796 -12.3463 -24.9633 -35.3014 -11.019 28.6361 -35.3014 -12.3463 
36.0528 -28.3857 -12.3463 -27.8431 -27.6744 -12.3463 -32.5903 -27.6744 -9.22619 
36.7174 -27.6744 -12.3463 -40.2173 -20.0474 -7.54563 -31.6031 -20.0474 -12.3463 
-32.5903 -17.993 -12.3463 -32.5903 -20.0474 -11.9213 41.6585 -20.0474 -12.3463 
43.6799 -16.2445 -12.3463 43.6799 -20.0474 -10.1365 -47.8443 -12.4203 -5.79606 
-35.6852 -12.4203 -12.3463 -40.2173 -6.59516 -12.3463 -40.2173 -12.4203 -10.7853 
45.8635 -12.4203 -12.3463 51.3069 -12.4203 -7.25555 -41.0944 -4.79333 -12.3463 
-47.8443 -4.79333 -8.14792 48.5522 -4.79333 -12.3463 51.3069 -4.79333 -10.3473 
-41.4185 2.83369 -12.3463 -47.8443 2.83369 -8.99349 49.2803 2.83369 -12.3463 
51.3069 2.83369 -11.0126 -42.6886 10.4607 -12.3463 -47.8443 10.4607 -8.88921 
47.7813 10.4607 -12.3463 51.3069 10.4607 -9.67186 -43.0313 18.0877 -12.3463 
-47.8443 18.0877 -7.65413 36.0528 25.3136 -12.3463 43.7851 18.0877 -12.3463 
43.6799 18.1988 -12.3463 51.3069 18.0877 -5.83 -40.7626 25.7147 -12.3463 
-40.2173 26.7248 -12.3463 35.5756 25.7147 -12.3463 28.4258 30.7502 -12.3463 
36.0528 25.7147 -11.9757 43.6799 25.7147 -4.97623 -36.5241 33.3417 -12.3463 
-40.2173 33.3417 -6.75095 -32.5903 37.2668 -12.3463 25.1765 33.3417 -12.3463 
20.7988 36.5123 -12.3463 28.4258 33.3417 -8.79948 -27.5183 40.9688 -12.3463 
-24.9633 42.5381 -12.3463 -17.3363 45.2402 -12.3463 -9.70924 46.6617 -12.3463 
-2.08222 46.7468 -12.3463 5.54479 45.0172 -12.3463 14.8027 40.9688 -12.3463 
13.1718 42.0831 -12.3463 -17.3363 48.5958 -4.8516 -9.70924 48.5958 -8.76027 
-2.08222 48.5958 -8.67484 -24.9633 -43.8882 -4.71927 -17.3363 -47.5737 -4.71927 
-9.70924 -49.7908 -4.71927 -2.08222 -50.5364 -4.71927 5.54479 -49.5459 -4.71927 
13.1718 -47.5586 -4.71927 20.7988 -43.7581 -4.71927 -26.1719 -42.9284 -4.71927 
-32.5903 -35.8543 -4.71927 22.0673 -42.9284 -4.71927 20.7988 -42.9284 1.0137 
28.4258 -38.5185 -4.71927 -33.0956 -35.3014 -4.71927 32.4432 -35.3014 -4.71927 
36.0528 -32.1482 -4.71927 -39.4096 -27.6744 -4.71927 -40.2173 -26.4901 -4.71927 
-40.2173 -27.6744 -3.88132 40.855 -27.6744 -4.71927 43.6799 -24.4885 -4.71927 
-45.3444 -20.0474 -4.71927 -47.8443 -15.5476 -4.71927 -47.8443 -20.0474 -2.46171 
47.48 -20.0474 -4.71927 51.3069 -14.9826 -4.71927 -48.9729 -12.4203 -4.71927 
53.0099 -12.4203 -4.71927 -51.9344 -4.79333 -4.71927 -55.4713 -4.79333 2.69184 
56.3704 -4.79333 -4.71927 -52.7381 2.83369 -4.71927 57.4682 2.83369 -4.71927 
58.9339 2.83369 0.279448 -51.6862 10.4607 -4.71927 55.8698 10.4607 -4.71927 
-49.746 18.0877 -4.71927 -47.8443 22.4326 -4.71927 52.1995 18.0877 -4.71927 
51.3069 19.0532 -4.71927 -46.2111 25.7147 -4.71927 36.0528 30.6071 -4.71927 
43.8882 25.7147 -4.71927 43.6799 25.8629 -4.71927 -41.2971 33.3417 -4.71927 
-40.2173 34.5434 -4.71927 -32.5903 40.9445 -4.71927 20.7988 40.6181 -4.71927 
31.8401 33.3417 -4.71927 28.4258 35.5361 -4.71927 -32.5538 40.9688 -4.71927 
-24.9633 45.4636 -4.71927 5.54479 48.218 -4.71927 20.2426 40.9688 -4.71927 
13.1718 45.3964 -4.71927 -17.4453 48.5958 -4.71927 -17.3363 48.638 -4.71927 
-17.3363 48.5958 -4.49172 -9.70924 50.106 -4.71927 3.94528 48.5958 -4.71927 
-2.08222 49.9757 -4.71927 -2.08222 48.5958 2.47203 -24.9633 -45.0028 2.90774 
-17.3363 -48.0962 2.90774 -9.70924 -49.6108 2.90774 -2.08222 -49.4781 2.90774 
5.54479 -48.3472 2.90774 13.1718 -46.225 2.90774 -28.3165 -42.9284 2.90774 
-32.5903 -39.967 2.90774 -24.9633 -42.9284 9.84394 20.1626 -42.9284 2.90774 
13.1718 -42.9284 7.97252 20.7988 -42.5961 2.90774 28.4258 -37.0642 2.90774 
-37.6669 -35.3014 2.90774 -40.2173 -32.5447 2.90774 30.7617 -35.3014 2.90774 
28.4258 -35.3014 5.96924 36.0528 -31.2592 2.90774 -44.5571 -27.6744 2.90774 
-47.8443 -23.9137 2.90774 40.0569 -27.6744 2.90774 36.0528 -27.6744 8.11064 
43.6799 -24.3143 2.90774 -50.6708 -20.0474 2.90774 47.9457 -20.0474 2.90774 
43.6799 -20.0474 8.63666 51.3069 -16.2325 2.90774 -53.9147 -12.4203 2.90774 
-55.4713 -5.15605 2.90774 54.1829 -12.4203 2.90774 51.3069 -12.4203 8.72665 
-55.5427 -4.79333 2.90774 -55.4713 -1.18157 2.90774 -55.4713 -4.79333 3.25538 
58.3899 -4.79333 2.90774 58.9339 -1.39868 2.90774 -55.3905 2.83369 2.90774 
59.5322 2.83369 2.90774 58.9339 6.90787 2.90774 58.9339 2.83369 4.61933 
-53.7014 10.4607 2.90774 58.3925 10.4607 2.90774 -50.7601 18.0877 2.90774 
-47.8443 23.4435 2.90774 -47.8443 18.0877 10.405 54.7502 18.0877 2.90774 
51.3069 21.6297 2.90774 -46.5027 25.7147 2.90774 36.0528 31.7683 2.90774 
46.1525 25.7147 2.90774 43.6799 27.34 2.90774 -40.4354 33.3417 2.90774 
-40.2173 33.5545 2.90774 -40.2173 33.3417 3.2374 -32.5903 39.742 2.90774 
20.7988 39.6236 2.90774 33.0189 33.3417 2.90774 28.4258 35.8144 2.90774 
28.4258 33.3417 9.65605 -30.3742 40.9688 2.90774 -24.9633 43.9255 2.90774 
-24.9633 40.9688 7.46268 -17.3363 46.9204 2.90774 -17.3363 40.9688 9.62461 
-2.08222 48.4962 2.90774 5.54479 46.503 2.90774 5.54479 40.9688 9.45629 
18.0943 40.9688 2.90774 13.1718 43.5919 2.90774 13.1718 40.9688 6.32996 
-9.74402 48.5958 2.90774 -9.18399 48.5958 2.90774 -9.70924 48.6024 2.90774 
-9.70924 48.5958 2.91872 -17.3363 -44.4101 10.5348 -9.70924 -44.7763 10.5348 
-2.08222 -44.1417 10.5348 5.54479 -42.9772 10.5348 -32.5903 -38.5383 10.5348 
-23.9781 -42.9284 10.5348 -24.9633 -42.6443 10.5348 -17.3363 -42.9284 12.0898 
-9.70924 -42.9284 12.0962 -2.08222 -42.9284 11.5558 5.73251 -42.9284 10.5348 
5.54479 -42.9284 10.5775 13.1718 -40.456 10.5348 20.7988 -36.7871 10.5348 
-36.9008 -35.3014 10.5348 -40.2173 -32.5309 10.5348 -32.5903 -35.3014 13.6976 
-24.9633 -35.3014 16.4369 -17.3363 -35.3014 17.2364 -9.70924 -35.3014 16.0807 
-2.08222 -35.3014 15.521 5.54479 -35.3014 14.8148 13.1718 -35.3014 13.971 
23.1984 -35.3014 10.5348 20.7988 -35.3014 11.6848 28.4258 -31.6153 10.5348 
-44.5674 -27.6744 10.5348 -47.8443 -22.8225 10.5348 -40.2173 -27.6744 14.5906 
-9.70924 -27.6744 17.6091 -2.08222 -27.6744 16.9808 5.54479 -27.6744 16.3691 
13.1718 -27.6744 16.3148 20.7988 -27.6744 15.2399 33.2316 -27.6744 10.5348 
28.4258 -27.6744 13.09 36.0528 -25.2178 10.5348 -49.5036 -20.0474 10.5348 
-47.8443 -20.0474 12.9114 -40.2173 -20.0474 17.7126 -9.70924 -20.0474 17.9685 
-2.08222 -20.0474 17.2487 5.54479 -20.0474 16.515 13.1718 -20.0474 16.8213 
20.7988 -20.0474 16.4336 28.4258 -20.0474 15.4117 41.547 -20.0474 10.5348 
36.0528 -20.0474 13.4498 43.6799 -17.9499 10.5348 -52.8101 -12.4203 10.5348 
-47.8443 -12.4203 14.6447 -17.3363 -12.4203 18.0937 -9.70924 -12.4203 17.7532 
5.54479 -12.4203 16.2931 13.1718 -12.4203 16.2501 20.7988 -12.4203 16.7089 
28.4258 -12.4203 16.4088 36.0528 -12.4203 15.8692 49.638 -12.4203 10.5348 
[...]
POINT_DATA 532
SCALARS ImageScalars float
LOOKUP_TABLE default
0 0 0 0 0 0 0 0 0 
0 0 0 0 0 0 0 0 0 
0 0 0 0 0 0 0 0 0 
0 0 0 0 0 0 0 0 0 
0 0 0 0 0 0 0 0 0 
0 0 0 0 0 0 0 0 0 
0 0 0 0 0 0 0 0 0 
0 0 0 0 0 0 0 0 0 
0 0 0 0 0 0 0 0 0 
0 0 0 0 0 0 0 0 0 
0 0 0 0 0 0 0 0 0 
0 0 0 0 0 0 0 0 0 
0 0 0 0 0 0 0 0 0 
0 0 0 0 0 0 0 0 0 
0 0 0 0 0 0 0 0 0 
0 0 0 0 0 0 0 0 0 
0 0 0 0 0 0 0 0 0 
0 0 0 0 0 0 0 0 0 
0 0 0 0 0 0 0 0 0 
0 0 0 0 0 0 0 0 0 
0 0 0 0 0 0 0 0 0 
0 0 0 0 0 0 0 0 0 
0 0 0 0 0 0 0 0 0 
0 0 0 0 0 0 0 0 0 
0 0 0 0 0 0 0 0 0 
0 0 0 0 0 0 0 0 0 
0 0 0 0 0 0 0 0 0 
0 0 0 0 0 0 0 0 0 
0 0 0 0 0 0 0 0 0 
0 0 0 0 0 0 0 0 0 
0 0 0 0 0 0 0 0 0 
0 0 0 0 0 0 0 0 0 
0 0 0 0 0 0 0 0 0 
0 0 0 0 0 0 0 0 0 
0 0 0 0 0 0 0 0 0 
0 0 0 0 0 0 0 0 0 
0 0 0 0 0 0 0 0 0 
0 0 0 0 0 0 0 0 0 
0 0 0 0 0 0 0 0 0 
0 0 0 0 0 0 0 0 0 
0 0 0 0 0 0 0 0 0 
0 0 0 0 0 0 0 0 0 
0 0 0 0 0 0 0 0 0 
0 0 0 0 0 0 0 0 0 
0 0 0 0 0 0 0 0 0 
0 0 0 0 0 0 0 0 0 
0 0 0 0 0 0 0 0 0 
0 0 0 0 0 0 0 0 0 
0 0 0 0 0 0 0 0 0 
0 0 0 0 0 0 0 0 0 
0 0 0 0 0 0 0 0 0 
0 0 0 0 0 0 0 0 0 
0 0 0 0 0 0 0 0 0 
0 0 0 0 0 0 0 0 0 
0 0 0 0 0 0 0 0 0 
0 0 0 0 0 0 0 0 0 
0 0 0 0 0 0 0 0 0 
0 0 0 0 0 0 0 0 0 
0 0 0 0 0 0 0 0 0 
0 
NORMALS Normals float
0.216143 0.486303 0.846636 0.082952 0.507909 0.857407 -0.0798986 0.543563 0.835557 
-0.285327 0.669909 0.685428 0.292278 0.301418 0.907591 0.151517 0.190049 0.970012 
0.095861 0.176369 0.979645 0.00529121 0.204293 0.978895 -0.0767605 0.302714 0.949985 
-0.269441 0.491042 0.82842 -0.489673 0.664844 0.564094 0.399679 0.220151 0.889826 
0.180314 0.0989576 0.978618 0.0976907 0.0143515 0.995113 0.0976972 -0.0261861 0.994872 
0.0594486 0.00421313 0.998222 0.0347269 0.0955396 0.99482 -0.0942854 0.180795 0.978991 
-0.332002 0.360663 0.871606 -0.593902 0.505207 0.626136 0.282007 0.0813696 0.955956 
0.09543 0.00798867 0.995404 0.0254271 -0.0634226 0.997663 0.0906624 -0.0983365 0.991015 
0.127114 -0.0345775 0.991285 0.121534 -0.0176456 0.99243 0.0339572 0.00834191 0.999388 
-0.19486 0.107475 0.974925 -0.463824 0.255376 0.848322 0.28528 0.129754 0.94962 
0.183329 -0.00488647 0.983039 0.0433762 -0.0322715 0.998537 -0.00823249 0.0426878 0.999055 
0.131024 -0.0201331 0.991175 0.13107 0.0420449 0.990481 0.0821695 -0.0628287 0.994636 
0.0333001 -0.0784609 0.996361 -0.108329 -0.0339281 0.993536 -0.30557 0.0842043 0.948439 
-0.513596 0.225256 0.827937 0.328757 0.12635 0.935924 0.139258 0.0927404 0.985904 
0.125591 0.0191245 0.991898 0.145017 -0.0140301 0.98933 0.0423386 0.116685 0.992266 
0.0897979 0.0533071 0.994532 0.0796265 0.0528503 0.995423 0.00319574 -0.00688091 0.999971 
0.0575651 -0.031047 0.997859 -0.0478457 -0.0012704 0.998854 -0.220369 0.0205207 0.975201 
-0.415639 0.10093 0.903912 0.338535 0.0569061 0.939232 0.165234 0.131988 0.977383 
0.0792114 0.152609 0.985107 0.136663 0.104292 0.985112 0.0674304 -0.000438461 0.997724 
0.0690158 0.150013 0.986272 0.0615701 0.0497562 0.996862 -0.000889174 0.0123383 0.999923 
0.0417982 0.0388286 0.998371 -0.0551184 0.0232934 0.998208 -0.214672 -0.0038393 0.976679 
-0.390724 -0.0194981 0.920301 0.395557 0.079856 0.914963 0.211861 0.147082 0.966169 
0.0899033 0.207581 0.974078 -0.00675798 0.180143 0.983617 0.0712306 0.0144894 0.997355 
0.143133 0.0718194 0.987094 -0.0510177 -0.0289735 0.998277 -0.00338902 0.0104791 0.999939 
0.0677793 0.0041584 0.997692 -0.0905633 -0.0137641 0.995796 -0.260078 -0.0963282 0.960771 
-0.434947 -0.166641 0.884902 0.483356 -0.0473987 0.87414 0.273667 0.0694798 0.959312 
0.105615 0.145919 0.983643 -0.0560445 0.121216 0.991043 -0.0357347 0.122192 0.991863 
0.0273115 0.0156004 0.999505 0.00151493 -0.0200634 0.999798 0.026103 0.0217752 0.999422 
0.0164539 -0.0633982 0.997853 -0.149384 -0.204617 0.967376 -0.348974 -0.295978 0.889165 
-0.497022 -0.387682 0.77632 0.626149 -0.261332 0.734604 0.37278 -0.110854 0.921274 
0.14368 -0.0786032 0.986498 -0.0354846 -0.00815459 0.999337 -0.0308519 0.101011 0.994407 
-0.00810842 0.0310018 0.999486 -0.0364768 0.0436254 0.998382 -0.049681 -0.0689214 0.996384 
-0.163949 -0.235646 0.95791 -0.324858 -0.434724 0.83993 0.453015 -0.41812 0.787371 
0.203947 -0.31989 0.925244 0.121588 -0.195614 0.973114 0.00125724 -0.0790291 0.996872 
-0.0258587 -0.135725 0.990409 -0.0919513 -0.127298 0.987593 -0.265007 -0.279654 0.922803 
-0.372248 -0.502215 0.78052 0.351562 -0.640572 0.682694 0.194709 -0.48675 0.851565 
0.0296408 -0.471201 0.881528 -0.056864 -0.45124 0.890589 -0.179498 -0.541033 0.821623 
-0.408087 -0.624183 0.666229 0.202846 0.609468 0.766422 0.0551342 0.673483 0.737144 
-0.0998667 0.740243 0.664881 -0.296211 0.714851 0.63344 0.548719 0.69096 0.470619 
0.318612 0.520148 0.792422 0.369211 0.452627 0.811672 0.400921 0.59399 0.697451 
-0.334111 0.707754 0.622458 -0.404292 0.68854 0.602048 -0.495921 0.837173 0.230661 
-0.49192 0.670783 0.555036 0.628772 0.523279 0.575174 0.416463 0.369517 0.830672 
0.445201 0.328114 0.833149 0.482634 0.401039 0.778609 -0.495036 0.668613 0.554884 
-0.608302 0.529075 0.591648 0.452933 0.257009 0.853697 0.525729 0.338503 0.7804 
-0.615195 0.516326 0.59577 0.482689 0.380487 0.788823 0.393778 0.206351 0.895745 
0.379113 0.198564 0.903795 0.412107 0.225879 0.882693 -0.59894 0.371456 0.70943 
-0.581127 0.311276 0.75193 -0.680381 0.461719 0.56912 0.654366 0.261826 0.709403 
0.325977 0.193583 0.925346 0.341382 0.163862 0.925531 0.388311 0.282116 0.877283 
-0.566216 0.252777 0.78454 -0.774998 0.407596 0.482953 0.357825 0.127735 0.925011 
0.591076 0.157227 0.791144 -0.550428 0.124103 0.825607 -0.662709 0.160495 0.731477 
0.37091 0.0529547 0.927158 0.598259 0.0431024 0.800142 -0.546149 -0.0291324 0.837181 
-0.622567 -0.0328456 0.781877 0.477118 0.0506996 0.877375 0.708089 -0.0592335 0.703635 
-0.544351 -0.180854 0.81913 -0.666537 -0.217543 0.713024 0.574642 -0.0857939 0.813896 
0.826546 -0.235581 0.511197 -0.442551 -0.56768 0.694181 -0.499301 -0.389003 0.774193 
-0.498469 -0.392004 0.773215 -0.693444 -0.542432 0.47424 0.64267 -0.269719 0.717096 
0.640523 -0.297648 0.707909 -0.440212 -0.573584 0.690807 -0.439378 -0.600692 0.66792 
-0.449811 -0.590083 0.670427 -0.559154 -0.758182 0.335422 0.594971 -0.490468 0.63675 
0.749451 -0.604042 0.27103 0.528444 -0.611257 0.589162 -0.449645 -0.611128 0.651416 
-0.451335 -0.62156 0.640282 -0.514217 -0.737726 0.437425 0.428878 -0.692368 0.58025 
0.374838 -0.714247 0.591057 0.219784 -0.76224 0.60884 0.0762011 -0.757552 0.648312 
-0.0826384 -0.765642 0.637937 -0.238249 -0.751028 0.615788 -0.438531 -0.668509 0.600654 
-0.417074 -0.686271 0.595887 0.28313 -0.956389 0.0718116 0.08557 -0.929576 0.358562 
-0.106737 -0.936598 0.333753 0.547572 0.734138 0.401505 0.373347 0.877634 0.300615 
0.166181 0.964413 0.205651 -0.0194794 0.988229 0.151736 -0.179231 0.977697 0.109471 
-0.362755 0.926317 0.101709 -0.509051 0.856232 0.0879415 0.568602 0.707875 0.419053 
0.633122 0.541982 0.552642 -0.522969 0.848049 0.08554 -0.497934 0.841421 -0.209933 
-0.590622 0.804073 0.0680652 0.634949 0.532602 0.55962 -0.629849 0.773384 0.0718869 
-0.663091 0.741832 0.0999788 0.610609 0.470179 0.63725 0.600956 0.468936 0.647264 
0.63438 0.496957 0.592111 -0.70957 0.691312 0.136373 -0.73857 0.645695 0.19389 
0.594832 0.433987 0.676632 0.661934 0.338342 0.668856 0.702803 0.48812 0.517501 
-0.757178 0.601212 0.255393 -0.801803 0.505647 0.318485 0.694265 0.276063 0.664669 
-0.824207 0.446283 0.34859 0.745133 0.175751 0.643342 0.993061 0.0902389 0.0754121 
-0.855395 0.258027 0.449134 0.820762 -0.0212402 0.570875 -0.874113 -0.0253538 0.48506 
-0.993388 -0.0101382 0.114359 0.858163 -0.17821 0.481454 -0.827347 -0.260387 0.497691 
0.888392 -0.299366 0.348051 0.87413 -0.389497 0.290152 -0.715504 -0.551455 0.428897 
-0.696284 -0.580442 0.422227 0.849726 -0.46297 0.25224 -0.516025 -0.809098 0.281209 
-0.561625 -0.760354 0.32625 -0.558597 -0.763277 0.324619 0.767868 -0.620182 0.160479 
0.743223 -0.650998 0.154341 0.568817 -0.818284 0.0828176 -0.531918 -0.838105 0.12101 
-0.52861 -0.815461 0.235785 -0.539955 -0.815136 0.209765 0.568082 -0.818829 0.0824756 
0.433478 -0.899584 0.0533456 -0.268753 -0.961598 0.0556859 -0.52747 -0.841859 0.114231 
-0.45298 -0.889415 0.0612395 0.285379 -0.956225 0.064752 0.283412 -0.956786 0.0651043 
0.284161 -0.957295 0.0532759 0.0874557 -0.993326 0.0751937 -0.233918 -0.970528 0.0579484 
-0.117886 -0.990641 0.0687948 -0.118873 -0.926548 -0.356901 0.469801 0.880354 -0.0653025 
0.265749 0.948315 -0.173424 0.0960202 0.96473 -0.245104 -0.0758488 0.943511 -0.322543 
-0.188718 0.920721 -0.341553 -0.343397 0.876391 -0.337664 0.534634 0.845083 0.000368015 
0.626327 0.77226 0.106437 0.330702 0.82349 -0.460978 -0.472549 0.824039 -0.312501 
-0.304741 0.754655 -0.581058 -0.483689 0.818222 -0.310737 -0.567284 0.767184 -0.299363 
0.711902 0.678155 0.182486 0.725178 0.65243 0.220118 -0.577007 0.762586 -0.292449 
-0.535953 0.724838 -0.432856 -0.613402 0.738707 -0.279373 0.747076 0.62398 0.229187 
0.779868 0.594722 0.195223 -0.645552 0.715424 -0.267266 -0.553059 0.633824 -0.540734 
-0.669254 0.703434 -0.239331 0.834931 0.525443 0.16371 -0.710605 0.672812 -0.205827 
-0.579994 0.592997 -0.558535 -0.76849 0.620635 -0.155679 0.932507 0.31631 0.174293 
0.992918 0.0979712 0.0671973 -0.830022 0.542736 -0.128454 -0.676924 0.507074 -0.533525 
0.994226 0.0875128 0.0621049 0.999753 -0.00563324 0.0214853 0.995743 0.0832709 0.039512 
-0.942881 0.32369 -0.0787426 -0.981936 0.176423 -0.0683913 0.993385 -0.112078 -0.025007 
-0.998345 -0.00133877 -0.0574879 -0.991295 -0.126215 -0.0374788 -0.98404 0.00550752 -0.177861 
0.953801 -0.296865 -0.0462063 -0.969372 -0.244771 -0.0201117 0.902716 -0.417052 -0.105694 
0.86707 -0.474671 -0.15125 0.736964 -0.364929 -0.568956 -0.799122 -0.601144 0.00540106 
-0.70203 -0.711992 0.0148533 0.840267 -0.510817 -0.181706 -0.46253 -0.884595 -0.0596506 
-0.580687 -0.814125 -0.00175569 -0.549102 -0.835746 -0.00407664 0.684599 -0.681295 -0.259153 
0.680109 -0.685057 -0.261054 0.677508 -0.681742 -0.276064 0.495599 -0.808487 -0.31738 
-0.439826 -0.857356 -0.267384 -0.451919 -0.887248 -0.0925256 -0.446365 -0.882536 -0.147948 
-0.304631 -0.815547 -0.49202 0.461586 -0.823837 -0.328985 0.389771 -0.847038 -0.361392 
0.325965 -0.744619 -0.582485 0.274806 -0.874657 -0.39932 0.168765 -0.603309 -0.779446 
-0.118127 -0.915352 -0.384937 -0.271648 -0.871714 -0.407826 -0.225256 -0.619114 -0.752302 
-0.433343 -0.84484 -0.313783 -0.393522 -0.831232 -0.392675 -0.32961 -0.756539 -0.564806 
0.0873721 -0.914909 -0.394091 0.072308 -0.9163 -0.39391 0.0864744 -0.91497 -0.394148 
0.0864552 -0.914736 -0.394695 0.116765 0.760973 -0.638189 -0.00961799 0.694152 -0.719764 
-0.0868041 0.662735 -0.743806 -0.152253 0.648427 -0.745896 0.482187 0.755096 -0.444214 
0.283152 0.802752 -0.524799 0.308284 0.804614 -0.507501 0.0826287 0.695461 -0.713797 
-0.0307066 0.619588 -0.784327 -0.0846004 0.61552 -0.783567 -0.155137 0.648461 -0.745272 
-0.151836 0.646585 -0.747578 -0.259117 0.62387 -0.737322 -0.35298 0.607524 -0.711561 
0.596683 0.711181 -0.371741 0.67032 0.664612 -0.330094 0.408181 0.637694 -0.653249 
0.198714 0.453168 -0.868994 -0.0315026 0.342784 -0.938886 -0.0983702 0.315058 -0.943961 
-0.0800061 0.311533 -0.946861 -0.0924055 0.330287 -0.939346 -0.183076 0.415259 -0.891091 
-0.383717 0.604907 -0.697746 -0.329707 0.558221 -0.761369 -0.443099 0.572908 -0.689521 
0.740563 0.582528 -0.335005 0.796845 0.491888 -0.350834 0.555519 0.46934 -0.686381 
-0.0868891 0.122696 -0.988633 -0.0805444 0.111901 -0.99045 -0.0429727 0.107841 -0.993239 
-0.0741774 0.167728 -0.983039 -0.189525 0.275616 -0.942399 -0.472136 0.548764 -0.689888 
-0.362391 0.431566 -0.826089 -0.478945 0.53237 -0.697993 0.813479 0.435819 -0.385116 
0.74182 0.371331 -0.558405 0.291365 0.284617 -0.913291 -0.0674372 0.00912038 -0.997682 
-0.0941878 0.106774 -0.989812 -0.0290556 -0.00498221 -0.999565 -0.00691267 -0.00580365 -0.999959 
-0.0902037 0.0913252 -0.991727 -0.189789 0.193455 -0.962577 -0.501751 0.51306 -0.69643 
-0.344635 0.373595 -0.861193 -0.496846 0.512388 -0.70043 0.850081 0.23033 -0.473614 
0.611267 0.0919842 -0.786061 -0.0888209 -0.052429 -0.994667 0.0413232 0.0672482 -0.99688 
-0.153187 0.0451955 -0.987163 0.0271488 -0.0306251 -0.999162 0.0109895 -0.0523263 -0.99857 
-0.0523807 0.0616651 -0.996721 -0.17861 0.189093 -0.965579 -0.57114 0.457134 -0.681783 
-0.356683 0.345065 -0.868163 -0.610885 0.415883 -0.673692 0.830522 -0.0328949 -0.556013 
0.517691 -0.0344813 -0.854873 0.218645 -0.116567 -0.968817 0.0405857 -0.0106832 -0.999119 
-0.129561 -0.28278 -0.950394 -0.0619377 0.0483525 -0.996908 -0.114025 -0.0246985 -0.993171 
0.00262946 -0.0510049 -0.998695 0.0552145 0.0399706 -0.997674 -0.0401815 0.090712 -0.995066 
-0.200043 0.192495 -0.960692 -0.662738 0.287879 -0.691306 -0.532405 0.273826 -0.800977 
0.766909 -0.153579 -0.623109 0.551458 -0.109201 -0.827024 0.259267 -0.0384471 -0.96504 
-0.0184155 -0.0122818 -0.999755 -0.0974892 -0.0980145 -0.990398 0.0618924 -0.110718 -0.991923 
-0.0513976 -0.0318787 -0.998169 0.0749412 0.0845808 -0.993594 0.091548 0.104612 -0.990291 
-0.0304424 0.0891361 -0.995554 -0.164007 0.0700596 -0.983968 -0.727967 0.0426965 -0.684282 
-0.489685 0.0652576 -0.869454 0.744398 -0.258106 -0.615835 0.732063 -0.359834 -0.578449 
0.645836 -0.211451 -0.733611 0.279065 -0.118226 -0.952967 -0.252319 -0.0918013 -0.96328 
-0.124171 -0.224057 -0.966633 0.0852497 -0.0374717 -0.995655 0.0258619 -0.13657 -0.990293 
0.0762981 0.00897498 -0.997045 0.132502 0.0960452 -0.986518 0.0578773 0.0897588 -0.99428 
-0.0695954 -0.00152306 -0.997574 -0.202549 -0.0641288 -0.97717 -0.746926 -0.180579 -0.639917 
-0.547733 -0.145181 -0.82396 0.730368 -0.362979 -0.578626 0.380134 -0.261269 -0.887264 
0.13332 -0.213921 -0.96771 -0.0436527 -0.166952 -0.984998 -0.215651 -0.107279 -0.97056 
-0.130177 0.0513635 -0.99016 0.0234698 -0.03247 -0.999197 0.105339 -0.0578757 -0.992751 
0.181335 -0.0304661 -0.982949 0.15436 -0.0444226 -0.987015 -0.176679 -0.174688 -0.968643 
-0.338206 -0.296489 -0.893147 -0.706662 -0.477204 -0.522404 -0.67774 -0.533655 -0.505847 
-0.665892 -0.47105 -0.578532 0.576631 -0.514793 -0.634417 0.540637 -0.538457 -0.646355 
0.516207 -0.494601 -0.699214 0.19946 -0.345817 -0.916857 0.0302444 -0.281212 -0.959169 
-0.0382584 -0.167163 -0.985187 -0.0574296 0.0129015 -0.998266 -0.0345901 -0.0190971 -0.999219 
0.0379204 -0.0619038 -0.997361 0.0891514 -0.209522 -0.973731 0.0642199 -0.330182 -0.94173 
-0.275638 -0.789027 -0.549054 -0.0833215 -0.438173 -0.895021 -0.367152 -0.804294 -0.467238 
-0.284601 -0.55145 -0.784159 -0.527554 -0.741761 -0.414099 -0.526868 -0.742272 -0.414056 
-0.526615 -0.741129 -0.416419 0.391477 -0.587415 -0.7083 0.379899 -0.591237 -0.711418 
0.370419 -0.579323 -0.726068 0.233289 -0.589905 -0.773038 0.137785 -0.433867 -0.890379 
0.140702 -0.536509 -0.832082 0.0829732 -0.332201 -0.939552 0.0176996 -0.23368 -0.972153 
-0.0500242 -0.217244 -0.974835 -0.194389 -0.535242 -0.822027 -0.0950788 -0.288274 -0.952816 
-0.165647 -0.545692 -0.821451 -0.108238 -0.445455 -0.888738 -0.253326 -0.770226 -0.585301 
-0.176541 -0.679031 -0.712566 -0.126862 -0.628959 -0.767018 0.110505 -0.559262 -0.821593 
0.0783705 -0.567667 -0.81952 0.074334 -0.540545 -0.838025 -0.131218 -0.548705 -0.825654 
-0.0817263 -0.54696 -0.83316 -0.0792634 -0.514593 -0.853763 0.213288 0.282397 -0.935286 
0.030928 0.206286 -0.978003 -0.057927 0.093268 -0.993954 0.226663 0.272097 -0.935194 
0.204372 0.260537 -0.943585 -0.00687672 0.145972 -0.989265 -0.0647547 0.0682547 -0.995564 
-0.0604016 0.0577856 -0.9965 0.208028 0.212368 -0.95479 0.279442 0.195717 -0.940004 
0.0717845 0.0912164 -0.99324 -0.0388211 0.0312945 -0.998756 -0.0689185 -0.00484915 -0.997611 
-0.0818831 -0.0375587 -0.995934 -0.0696655 -0.012675 -0.99749 -0.098577 0.0581792 -0.993427 
0.343427 -0.00353308 -0.939173 0.237405 -0.0848209 -0.9677 0.272781 -0.0145828 -0.961966 
0.00927557 -0.0194966 -0.999767 -0.0903209 -0.0519562 -0.994557 -0.108515 -0.0448967 -0.99308 
-0.0175735 0.0506507 -0.998562 0.0300467 0.0562135 -0.997967 -0.116665 0.033903 -0.992592 
-0.111842 -0.10858 -0.987776 -0.100743 0.0296287 -0.994471 0.133164 -0.0996793 -0.986069 
0.0406406 -0.0763588 -0.996252 -0.054067 -0.038056 -0.997812 -0.0771753 -0.0436554 -0.996061 
0.027462 0.00421621 -0.999614 -0.0646663 -0.135852 -0.988616 0.0151038 0.0266283 -0.999531 
0.126443 -0.0145016 -0.991868 0.073472 -0.0082906 -0.997263 -0.0297499 0.0018888 -0.999556 
-0.041952 0.0127946 -0.999038 -0.168448 -0.288765 -0.942465 -0.169166 -0.29007 -0.941935 
-0.169172 -0.290134 -0.941915 -0.16919 -0.290129 -0.941913 0.135749 -0.0943872 -0.986237 
0.0969151 -0.123131 -0.987647 0.0858154 -0.0868414 -0.992519 -0.129246 -0.0663168 -0.989393 
-0.0657476 -0.0968072 -0.993129 -0.0794901 -0.0571403 -0.995197 0.0273485 0.0132373 -0.999538 
0.0396774 -0.0677997 -0.99691 -0.0536328 -0.101978 -0.99334 -0.0203372 -0.137052 -0.990355 
-0.00940771 -0.0794555 -0.996794 
