# vtk DataFile Version 4.2
vtk output
ASCII
DATASET POLYDATA
POINTS 566 float
-28.2262 29.5511 -18.7398 -21.0118 -35.3783 -11.6432 -13.7975 -35.3783 -12.0441 
-6.58308 -35.3783 -12.0667 -35.4406 -28.1639 -11.7022 -28.2262 -28.1639 -13.4452 
-21.0118 -28.1639 -14.6085 -13.7975 -28.1639 -14.4001 -6.58308 -28.1639 -14.2339 
0.631305 -28.1639 -13.4384 7.84569 -28.1639 -12.857 15.0601 -28.1639 -12.9057 
22.2745 -28.1639 -12.2286 -42.655 -20.9495 -13.0057 -35.4406 -20.9495 -15.0162 
-28.2262 -20.9495 -15.6315 -21.0118 -20.9495 -15.5813 -13.7975 -20.9495 -14.9127 
-6.58308 -20.9495 -14.4661 0.631305 -20.9495 -13.7177 7.84569 -20.9495 -13.7272 
15.0601 -20.9495 -14.5254 22.2745 -20.9495 -14.5023 29.4888 -20.9495 -14.1549 
36.7032 -20.9495 -12.5767 -49.8694 -13.7352 -11.3173 -42.655 -13.7352 -14.8902 
-35.4406 -13.7352 -16.5062 -28.2262 -13.7352 -16.561 -21.0118 -13.7352 -15.5165 
-13.7975 -13.7352 -14.24 -6.58308 -13.7352 -13.6579 0.631305 -13.7352 -12.9271 
7.84569 -13.7352 -14.1118 15.0601 -13.7352 -15.1607 22.2745 -13.7352 -15.6198 
29.4888 -13.7352 -15.5719 36.7032 -13.7352 -14.7036 43.9176 -13.7352 -12.4545 
-49.8694 -6.52078 -12.7403 -42.655 -6.52078 -15.5726 -35.4406 -6.52078 -16.4818 
-28.2262 -6.52078 -16.2138 -21.0118 -6.52078 -14.9078 -13.7975 -6.52078 -12.8088 
-6.58308 -6.52078 -13.751 0.631305 -6.52078 -14.8224 7.84569 -6.52078 -15.1713 
15.0601 -6.52078 -14.8218 22.2745 -6.52078 -15.5301 29.4888 -6.52078 -15.9863 
36.7032 -6.52078 -15.8648 43.9176 -6.52078 -13.9996 -49.8694 0.693603 -13.3521 
-42.655 0.693603 -15.7154 -35.4406 0.693603 -16.3632 -28.2262 0.693603 -15.81 
-21.0118 0.693603 -14.6444 -13.7975 0.693603 -12.8127 -6.58308 0.693603 -15.8049 
7.84569 0.693603 -16.6909 15.0601 0.693603 -14.3953 22.2745 0.693603 -14.9234 
29.4888 0.693603 -15.6907 36.7032 0.693603 -15.8497 43.9176 0.693603 -14.3182 
-49.8694 7.90799 -12.5488 -42.655 7.90799 -15.4704 -35.4406 7.90799 -16.5592 
-28.2262 7.90799 -16.4532 -21.0118 7.90799 -15.8453 -13.7975 7.90799 -15.646 
-6.58308 7.90799 -17.8417 0.631305 7.90799 -15.899 7.84569 7.90799 -17.5616 
15.0601 7.90799 -14.1961 22.2745 7.90799 -14.5017 29.4888 7.90799 -15.2545 
36.7032 7.90799 -15.3202 43.9176 7.90799 -14.2631 -49.8694 15.1224 -11.3259 
-42.655 15.1224 -15.0175 -35.4406 15.1224 -17.0266 -28.2262 15.1224 -18.0362 
-21.0118 15.1224 -17.5473 -13.7975 15.1224 -17.7565 -6.58308 15.1224 -17.7433 
0.631305 15.1224 -16.3961 7.84569 15.1224 -14.9126 15.0601 15.1224 -14.4488 
22.2745 15.1224 -14.9244 29.4888 15.1224 -14.895 36.7032 15.1224 -14.6309 
43.9176 15.1224 -13.9713 -49.8694 22.3368 -11.2815 -42.655 22.3368 -14.3838 
-35.4406 22.3368 -17.4245 -28.2262 26.4144 -18.4893 -28.2262 22.3368 -18.0895 
-21.0118 22.3368 -18.4058 -13.7975 22.3368 -18.4437 -6.58308 22.3368 -18.0717 
0.631305 22.3368 -16.9698 7.84569 22.3368 -15.6435 15.0601 22.3368 -15.2138 
22.2745 22.3368 -14.3194 29.4888 22.3368 -14.4239 36.7032 22.3368 -13.8264 
-28.9121 29.5511 -18.4893 -35.4406 29.5511 -15.539 -24.9341 29.5511 -18.4893 
-28.2262 30.1002 -18.4893 -21.0118 29.5511 -18.1148 -13.7975 29.5511 -18.1482 
-6.58308 29.5511 -17.8291 0.631305 29.5511 -16.9336 7.84569 29.5511 -15.6732 
15.0601 29.5511 -14.5651 22.2745 29.5511 -13.2592 29.4888 29.5511 -12.4164 
-28.2262 36.7655 -14.0295 -21.0118 36.7655 -16.4004 -13.7975 36.7655 -16.1295 
-6.58308 36.7655 -16.0777 0.631305 36.7655 -15.247 7.84569 36.7655 -14.2102 
15.0601 36.7655 -12.5106 -21.0118 -35.8971 -11.2749 -13.7975 -36.4886 -11.2749 
-6.58308 -36.558 -11.2749 -6.58308 -42.5927 -4.24509 -35.4406 -28.7613 -11.2749 
-22.1597 -35.3783 -11.2749 -28.2262 -31.965 -11.2749 -28.2262 -35.3783 -8.39909 
-0.377257 -35.3783 -11.2749 0.631305 -35.0101 -11.2749 0.631305 -35.3783 -11.1415 
7.84569 -34.249 -11.2749 7.84569 -35.3783 -10.905 15.0601 -32.1096 -11.2749 
15.0601 -35.3783 -9.55759 22.2745 -29.8944 -11.2749 22.2745 -35.3783 -7.58145 
29.4888 -35.3783 -5.09102 -36.7192 -28.1639 -11.2749 -42.655 -24.3599 -11.2749 
-42.655 -28.1639 -8.19428 27.3195 -28.1639 -11.2749 29.4888 -27.2687 -11.2749 
29.4888 -28.1639 -10.8051 36.7032 -23.1997 -11.2749 36.7032 -28.1639 -7.42712 
-46.0331 -20.9495 -11.2749 -49.8694 -13.8881 -11.2749 -49.8694 -20.9495 -7.95517 
39.4707 -20.9495 -11.2749 43.9176 -16.2231 -11.2749 43.9176 -20.9495 -8.41906 
-49.9203 -13.7352 -11.2749 45.7906 -13.7352 -11.2749 51.132 -13.7352 -6.40566 
-51.7099 -6.52078 -11.2749 0.631305 -1.23564 -11.2749 49.9674 -6.52078 -11.2749 
51.132 -6.52078 -10.4431 -52.6462 0.693603 -11.2749 -57.0838 0.693603 -5.98147 
-1.52999 0.693603 -11.2749 2.14672 0.693603 -11.2749 0.631305 2.30289 -11.2749 
0.631305 0.693603 -10.0046 49.9851 0.693603 -11.2749 51.132 0.693603 -10.4679 
-51.4842 7.90799 -11.2749 50.0322 7.90799 -11.2749 51.132 7.90799 -10.5778 
-49.9282 15.1224 -11.2749 50.0259 15.1224 -11.2749 43.9176 21.7124 -11.2749 
51.132 15.1224 -10.612 -49.8751 22.3368 -11.2749 -49.8694 22.346 -11.2749 
-42.655 29.3922 -11.2749 43.4144 22.3368 -11.2749 36.7032 27.6882 -11.2749 
43.9176 22.3368 -11.0237 51.132 22.3368 -6.57834 -42.5338 29.5511 -11.2749 
-42.655 29.5511 -11.0504 -35.4406 36.472 -11.2749 22.2745 33.5305 -11.2749 
33.4015 29.5511 -11.2749 29.4888 31.4068 -11.2749 36.7032 29.5511 -9.85378 
43.9176 29.5511 -6.037 -34.9197 36.7655 -11.2749 -35.4406 36.7655 -9.50073 
-28.2262 39.5607 -11.2749 -21.0118 41.5035 -11.2749 -13.7975 42.2348 -11.2749 
-6.58308 42.655 -11.2749 0.631305 41.8131 -11.2749 7.84569 39.9507 -11.2749 
18.3102 36.7655 -11.2749 15.0601 38.2 -11.2749 22.2745 36.7655 -7.7744 
-6.58308 43.9799 -4.65323 -6.58308 -42.6869 -4.06056 -28.2262 -38.5704 -4.06056 
-21.0118 -41.116 -4.06056 -7.92722 -42.5927 -4.06056 -13.7975 -42.1581 -4.06056 
-5.39415 -42.5927 -4.06056 -6.58308 -42.5927 -1.93322 0.631305 -42.065 -4.06056 
7.84569 -41.6066 -4.06056 15.0601 -40.7116 -4.06056 22.2745 -38.742 -4.06056 
29.4888 -36.1901 -4.06056 -42.655 -30.4312 -4.06056 -35.3863 -35.3783 -4.06056 
-35.4406 -35.3503 -4.06056 -35.4406 -35.3783 -2.69211 30.8852 -35.3783 -4.06056 
36.7032 -31.3662 -4.06056 -45.2195 -28.1639 -4.06056 -49.8694 -23.3251 -4.06056 
40.9201 -28.1639 -4.06056 43.9176 -25.5756 -4.06056 -51.7546 -20.9495 -4.06056 
47.9787 -20.9495 -4.06056 51.132 -16.4688 -4.06056 -54.8968 -13.7352 -4.06056 
52.6696 -13.7352 -4.06056 -56.753 -6.52078 -4.06056 -57.0838 -4.79838 -4.06056 
55.6196 -6.52078 -4.06056 -58.0372 0.693603 -4.06056 -57.0838 5.27512 -4.06056 
56.6936 0.693603 -4.06056 -56.4982 7.90799 -4.06056 57.6407 7.90799 -4.06056 
58.3464 7.90799 -0.487805 -54.8214 15.1224 -4.06056 56.1473 15.1224 -4.06056 
-51.6926 22.3368 -4.06056 -49.8694 24.8967 -4.06056 -49.8694 22.3368 0.348041 
53.1396 22.3368 -4.06056 51.132 25.0799 -4.06056 -45.6708 29.5511 -4.06056 
-42.655 32.2959 -4.06056 -42.655 29.5511 1.26715 29.4888 36.1632 -4.06056 
36.7032 33.7894 -4.06056 45.8609 29.5511 -4.06056 43.9176 30.6436 -4.06056 
-36.3824 36.7655 -4.06056 -35.4406 37.4469 -4.06056 -35.4406 36.7655 -3.12499 
-28.2262 39.819 -4.06056 -28.2262 36.7655 0.261555 -21.0118 42.0571 -4.06056 
-21.0118 36.7655 1.99103 -13.7975 42.9899 -4.06056 -13.7975 36.7655 3.08045 
0.631305 43.3396 -4.06056 7.84569 42.6402 -4.06056 15.0601 40.6519 -4.06056 
27.4888 36.7655 -4.06056 22.2745 38.3443 -4.06056 22.2745 36.7655 0.282397 
-7.3434 43.9799 -4.06056 -5.51228 43.9799 -4.06056 -6.58308 43.9799 -3.93646 
-35.4406 -35.4764 3.15382 -28.2262 -39.045 3.15382 -21.0118 -41.0121 3.15382 
-13.7975 -41.7649 3.15382 -6.58308 -42.3396 3.15382 0.631305 -42.0309 3.15382 
7.84569 -42.5369 3.15382 15.0601 -42.584 3.15382 22.2745 -41.2927 3.15382 
29.4888 -38.4022 3.15382 -35.5864 -35.3783 3.15382 -42.655 -30.1672 3.15382 
-35.4406 -35.3783 3.35393 -28.2262 -35.3783 8.98919 34.5506 -35.3783 3.15382 
36.7032 -33.9811 3.15382 -44.7872 -28.1639 3.15382 -49.8694 -22.6415 3.15382 
-42.655 -28.1639 6.35978 43.7235 -28.1639 3.15382 43.9176 -27.9684 3.15382 
-51.1723 -20.9495 3.15382 -49.8694 -20.9495 5.32909 49.7957 -20.9495 3.15382 
51.132 -18.7339 3.15382 -54.3067 -13.7352 3.15382 53.8119 -13.7352 3.15382 
-56.2532 -6.52078 3.15382 -57.0838 0.564521 3.15382 56.58 -6.52078 3.15382 
-57.0982 0.693603 3.15382 -57.0838 0.778409 3.15382 -57.0838 0.693603 3.18033 
57.9608 0.693603 3.15382 58.3464 3.56739 3.15382 -55.7114 7.90799 3.15382 
-49.8694 7.90799 9.92775 58.3464 10.9778 3.15382 58.3464 7.90799 4.91251 
-53.1008 15.1224 3.15382 -49.8694 20.3072 3.15382 -49.8694 15.1224 6.93009 
57.5529 15.1224 3.15382 -48.2761 22.3368 3.15382 -42.655 28.319 3.15382 
-42.655 22.3368 7.39152 -35.4406 22.3368 9.26536 -28.2262 22.3368 10.2475 
54.0445 22.3368 3.15382 51.132 26.0401 3.15382 51.132 22.3368 8.50834 
-40.587 29.5511 3.15382 -35.4406 32.072 3.15382 -35.4406 29.5511 5.27562 
-28.2262 33.7633 3.15382 -28.2262 29.5511 6.12841 -21.0118 35.4528 3.15382 
-21.0118 29.5511 7.02624 -13.7975 36.6734 3.15382 -13.7975 29.5511 7.49193 
-6.58308 29.5511 7.95992 0.631305 29.5511 8.96416 7.84569 29.5511 9.57004 
15.0601 29.5511 9.42941 22.2745 35.3928 3.15382 22.2745 29.5511 9.04325 
29.4888 34.2915 3.15382 29.4888 29.5511 8.93677 36.7032 32.5275 3.15382 
36.7032 29.5511 8.60479 45.6549 29.5511 3.15382 43.9176 30.3405 3.15382 
43.9176 29.5511 4.64326 -12.723 36.7655 3.15382 -6.58308 37.1407 3.15382 
-6.58308 36.7655 3.50055 0.631305 37.8994 3.15382 0.631305 36.7655 4.27515 
7.84569 38.2099 3.15382 7.84569 36.7655 4.72555 17.0752 36.7655 3.15382 
15.0601 37.212 3.15382 15.0601 36.7655 3.67914 -21.0118 -36.606 10.3682 
-13.7975 -37.8573 10.3682 -6.58308 -37.7798 10.3682 0.631305 -38.476 10.3682 
7.84569 -39.626 10.3682 15.0601 -39.8398 10.3682 22.2745 -39.224 10.3682 
29.4888 -36.061 10.3682 -35.4406 -29.929 10.3682 -24.8574 -35.3783 10.3682 
-28.2262 -34.0083 10.3682 -21.0118 -35.3783 11.503 -13.7975 -35.3783 12.6721 
-6.58308 -35.3783 12.7483 0.631305 -35.3783 13.49 7.84569 -35.3783 14.347 
15.0601 -35.3783 15.0038 22.2745 -35.3783 13.8638 30.8067 -35.3783 10.3682 
29.4888 -35.3783 11.1 36.7032 -31.8196 10.3682 -37.8041 -28.1639 10.3682 
[...]
POINT_DATA 566
SCALARS ImageScalars float
LOOKUP_TABLE default
0 0 0 0 0 0 0 0 0 
0 0 0 0 0 0 0 0 0 
0 0 0 0 0 0 0 0 0 
0 0 0 0 0 0 0 0 0 
0 0 0 0 0 0 0 0 0 
0 0 0 0 0 0 0 0 0 
0 0 0 0 0 0 0 0 0 
0 0 0 0 0 0 0 0 0 
0 0 0 0 0 0 0 0 0 
0 0 0 0 0 0 0 0 0 
0 0 0 0 0 0 0 0 0 
0 0 0 0 0 0 0 0 0 
0 0 0 0 0 0 0 0 0 
0 0 0 0 0 0 0 0 0 
0 0 0 0 0 0 0 0 0 
0 0 0 0 0 0 0 0 0 
0 0 0 0 0 0 0 0 0 
0 0 0 0 0 0 0 0 0 
0 0 0 0 0 0 0 0 0 
0 0 0 0 0 0 0 0 0 
0 0 0 0 0 0 0 0 0 
0 0 0 0 0 0 0 0 0 
0 0 0 0 0 0 0 0 0 
0 0 0 0 0 0 0 0 0 
0 0 0 0 0 0 0 0 0 
0 0 0 0 0 0 0 0 0 
0 0 0 0 0 0 0 0 0 
0 0 0 0 0 0 0 0 0 
0 0 0 0 0 0 0 0 0 
0 0 0 0 0 0 0 0 0 
0 0 0 0 0 0 0 0 0 
0 0 0 0 0 0 0 0 0 
0 0 0 0 0 0 0 0 0 
0 0 0 0 0 0 0 0 0 
0 0 0 0 0 0 0 0 0 
0 0 0 0 0 0 0 0 0 
0 0 0 0 0 0 0 0 0 
0 0 0 0 0 0 0 0 0 
0 0 0 0 0 0 0 0 0 
0 0 0 0 0 0 0 0 0 
0 0 0 0 0 0 0 0 0 
0 0 0 0 0 0 0 0 0 
0 0 0 0 0 0 0 0 0 
0 0 0 0 0 0 0 0 0 
0 0 0 0 0 0 0 0 0 
0 0 0 0 0 0 0 0 0 
0 0 0 0 0 0 0 0 0 
0 0 0 0 0 0 0 0 0 
0 0 0 0 0 0 0 0 0 
0 0 0 0 0 0 0 0 0 
0 0 0 0 0 0 0 0 0 
0 0 0 0 0 0 0 0 0 
0 0 0 0 0 0 0 0 0 
0 0 0 0 0 0 0 0 0 
0 0 0 0 0 0 0 0 0 
0 0 0 0 0 0 0 0 0 
0 0 0 0 0 0 0 0 0 
0 0 0 0 0 0 0 0 0 
0 0 0 0 0 0 0 0 0 
0 0 0 0 0 0 0 0 0 
0 0 0 0 0 0 0 0 0 
0 0 0 0 0 0 0 0 0 
0 0 0 0 0 0 0 0 
NORMALS Normals float
0.164122 -0.213722 0.963009 0.173476 0.525966 0.832626 0.0276515 0.475684 0.879182 
-0.0584201 0.461091 0.885427 0.263649 0.535752 0.802159 0.162856 0.401261 0.90137 
0.060599 0.260008 0.963703 -0.024078 0.180572 0.983267 -0.0656653 0.150046 0.986496 
-0.0939704 0.160528 0.982548 -0.0357198 0.187121 0.981687 -0.0388199 0.30787 0.950636 
-0.133214 0.39776 0.907767 0.376302 0.363949 0.85202 0.153277 0.284094 0.946466 
0.035278 0.195974 0.979974 -0.0506108 0.0564773 0.99712 -0.0765475 -0.0116053 0.996998 
-0.0825246 -0.0402733 0.995775 -0.0514921 -0.0361239 0.99802 0.0564412 0.0850248 0.994779 
0.0531801 0.153865 0.98666 -0.0235066 0.219896 0.97524 -0.123035 0.302233 0.94526 
-0.303975 0.390025 0.869183 0.604966 0.199916 0.770746 0.312972 0.145345 0.938575 
0.104647 0.0909209 0.990345 -0.068176 0.0458252 0.99662 -0.158632 -0.0419935 0.986444 
-0.128867 -0.13454 0.982493 -0.0906888 -0.0517794 0.994532 0.0309925 0.0691612 0.997124 
0.156374 0.101065 0.982514 0.103322 0.0209391 0.994428 0.0284056 0.0685192 0.997245 
-0.0594449 0.118256 0.991202 -0.195616 0.214823 0.956862 -0.420636 0.309927 0.852649 
0.540104 0.11713 0.833407 0.217111 0.0545358 0.974622 0.041222 -0.0100215 0.9991 
-0.103184 -0.0534904 0.993223 -0.225373 -0.0598952 0.97243 -0.0940537 -0.105475 0.989964 
0.156325 0.117358 0.980709 0.083759 -0.103652 0.991081 -0.00165842 0.160921 0.986966 
0.0249223 -0.04847 0.998514 0.0811361 -0.0484277 0.995526 0.0236468 0.00785409 0.99969 
-0.137088 0.0737486 0.98781 -0.328551 0.11469 0.937497 0.48743 -0.0114781 0.873087 
0.176113 -0.00669793 0.984347 0.00396871 0.00530975 0.999978 -0.109216 0.0163502 0.993884 
-0.196835 0.0644456 0.978316 0.0203169 0.194501 0.980692 -0.106642 0.286244 0.952204 
0.194795 0.189757 0.962313 -0.10699 -0.0460599 0.993193 0.08555 -0.0722823 0.993708 
0.0635475 -0.0505245 0.996699 -0.0990458 -0.0367519 0.994404 -0.316057 0.0175474 0.948578 
0.539237 -0.11353 0.834467 0.236925 -0.045802 0.970448 0.0634097 0.0486684 0.9968 
-0.0465721 0.152372 0.987225 -0.055083 0.194359 0.979383 0.135717 0.322143 0.936912 
0.0125734 0.0850085 0.996301 -0.0346848 0.317424 0.947649 -0.114501 -0.144719 0.982826 
-0.184246 0.00628157 0.98286 0.0706931 0.000118156 0.997498 0.0564836 -0.054966 0.996889 
-0.0724842 -0.0823967 0.99396 -0.283141 -0.0204344 0.95886 0.629878 -0.0780033 0.772768 
0.344018 -0.0753276 0.935937 0.188079 0.0534239 0.9807 0.0423337 0.112911 0.992703 
-0.019726 0.171567 0.984975 0.013515 0.177243 0.984074 -0.0915643 0.0162599 0.995666 
-0.192996 0.0693734 0.978744 -0.136523 -0.102497 0.98532 0.00168205 0.0673638 0.997727 
0.0315654 -0.0124821 0.999424 -0.0195641 -0.055518 0.998266 -0.0580891 -0.112295 0.991976 
-0.273842 -0.200836 0.940572 0.751171 -0.320487 0.577087 0.385007 -0.197171 0.901606 
0.286668 -0.107702 0.951957 0.122755 -0.104643 0.986905 0.0630189 0.0478571 0.996864 
0.0241216 0.0400977 0.998905 -0.0230673 0.024469 0.999434 -0.0988449 0.00617273 0.995084 
-0.168967 0.0366397 0.98494 -0.117616 0.0513885 0.991729 -0.0892755 0.00528766 0.995993 
-0.0541759 -0.106645 0.99282 -0.0403711 -0.182444 0.982387 -0.195416 -0.25284 0.947568 
0.183948 -0.22051 0.957882 0.41176 -0.327034 0.850589 0.0734338 -0.176308 0.981592 
0.169418 -0.238789 0.956179 -0.0412707 -0.127062 0.991036 -0.0191465 -0.142629 0.989591 
-0.0866314 -0.136088 0.986902 -0.149113 -0.117057 0.981867 -0.178032 -0.0791615 0.980835 
-0.150813 -0.17537 0.972883 -0.164975 -0.275043 0.947172 -0.181689 -0.423114 0.887673 
0.303212 -0.685911 0.661504 0.131424 -0.448256 0.884192 -0.0215795 -0.506203 0.862144 
-0.0652803 -0.453241 0.888994 -0.123288 -0.462936 0.877776 -0.208141 -0.502691 0.839035 
-0.270279 -0.580505 0.768091 0.180305 0.551766 0.814276 0.030786 0.538098 0.84232 
-0.0577232 0.526694 0.848093 -0.00586485 0.967023 0.254623 0.277931 0.556248 0.783162 
0.195237 0.548268 0.813194 0.236456 0.545591 0.804002 0.329859 0.733766 0.593952 
-0.0683233 0.463914 0.883242 -0.0711481 0.448214 0.89109 -0.0700283 0.468371 0.880752 
-0.0784734 0.398549 0.913784 -0.0893828 0.45396 0.886528 -0.114634 0.423111 0.898797 
-0.178755 0.559986 0.808989 -0.154205 0.451937 0.878621 -0.235191 0.674102 0.700194 
-0.38013 0.752922 0.537224 0.306402 0.555054 0.773326 0.4346 0.494853 0.752491 
0.547652 0.676684 0.492113 -0.211828 0.452902 0.86603 -0.229844 0.453483 0.861118 
-0.250629 0.482183 0.839455 -0.333131 0.457865 0.824247 -0.436671 0.638869 0.633376 
0.514387 0.418367 0.748582 0.606376 0.20531 0.768216 0.720129 0.520898 0.458344 
-0.386754 0.42953 0.816043 -0.456144 0.377766 0.805745 -0.563841 0.516884 0.644138 
0.607184 0.20047 0.768856 -0.487591 0.340808 0.803807 -0.765419 0.419278 0.488201 
0.631883 0.126685 0.76464 0.166279 -0.00943826 0.986033 -0.581473 0.158695 0.797938 
-0.652022 0.170856 0.738699 0.624828 -0.0104587 0.780693 0.942133 -0.0164107 0.334838 
0.0419531 0.18376 0.982075 0.19624 0.0875614 0.976639 0.0980002 0.184461 0.977942 
0.132872 0.0802273 0.987881 -0.557031 0.00223027 0.830489 -0.620939 0.00735582 0.783824 
0.619737 -0.125392 0.774727 -0.517076 0.00156739 0.855938 -0.571703 0.00727386 0.820428 
0.632192 -0.0793406 0.770739 -0.532444 -0.1786 0.827409 -0.396859 -0.328791 0.856971 
-0.590424 -0.175705 0.787735 0.751546 -0.320506 0.576589 0.751359 -0.320818 0.576659 
0.645671 -0.532524 0.547292 -0.393563 -0.331834 0.857318 -0.256932 -0.505906 0.823435 
-0.412003 -0.343212 0.844073 -0.684763 -0.483571 0.545215 0.647256 -0.535819 0.542178 
0.653857 -0.547878 0.521824 0.470909 -0.782783 0.406812 -0.283166 -0.530792 0.798797 
-0.232621 -0.517116 0.823698 -0.216192 -0.522365 0.824861 -0.302903 -0.64903 0.697861 
-0.4822 -0.785261 0.388391 0.460713 -0.792334 0.399937 0.486506 -0.840949 0.23689 
0.344631 -0.842481 0.414071 0.169894 -0.926066 0.336953 0.0818655 -0.88604 0.456324 
-0.0243857 -0.86702 0.497677 -0.163164 -0.81345 0.55828 -0.241684 -0.71703 0.653802 
-0.321063 -0.659221 0.679961 -0.286428 -0.690404 0.664306 -0.352417 -0.877087 0.326374 
0.019466 -0.949878 -0.312015 -0.00477244 0.970158 0.242429 0.374649 0.873105 0.311972 
0.227197 0.944032 0.239133 0.0153201 0.971275 0.237467 0.0986959 0.970159 0.221474 
-0.0151354 0.96844 0.248788 0.00162086 0.995797 0.0915731 -0.066666 0.954567 0.290444 
-0.0827265 0.928282 0.362558 -0.167833 0.867505 0.46826 -0.271636 0.807907 0.522973 
-0.393674 0.783147 0.481354 0.603684 0.768787 0.211027 0.493549 0.831715 0.254283 
0.494274 0.831393 0.253928 0.508697 0.844667 0.166631 -0.418843 0.772318 0.477594 
-0.503175 0.724136 0.471637 0.666652 0.718745 0.197436 0.770738 0.611475 0.179056 
-0.563617 0.692534 0.450259 -0.627714 0.653373 0.423177 0.816084 0.550119 0.177136 
-0.718566 0.566137 0.40392 -0.799049 0.479795 0.362378 0.926162 0.327465 0.187058 
-0.83324 0.424463 0.35432 0.959701 0.208618 0.188289 0.970035 0.158087 0.1845 
-0.895257 0.261424 0.360795 0.981615 -0.0177584 0.190044 0.974184 -0.14484 0.173167 
-0.901477 0.129097 0.413126 0.962391 -0.210648 0.171553 -0.896323 -0.0296921 0.442406 
-0.986616 -0.0280615 0.160627 0.938773 -0.323503 0.118538 -0.854654 -0.275867 0.439846 
0.860704 -0.507013 -0.0461126 0.811408 -0.578569 -0.0829221 0.758371 -0.561417 -0.331187 
-0.78255 -0.495363 0.377136 -0.716802 -0.594362 0.364594 0.696083 -0.714602 -0.0693759 
0.630566 -0.773617 -0.0624775 0.576065 -0.664005 -0.476704 -0.300386 -0.948104 0.104246 
-0.362782 -0.917569 0.162651 -0.534442 -0.804638 0.258707 -0.481899 -0.845624 0.22955 
0.482178 -0.845058 -0.231043 0.462422 -0.851431 -0.24745 0.439803 -0.847872 -0.296118 
0.273038 -0.927372 -0.255798 0.249302 -0.787884 -0.563105 0.230038 -0.931099 -0.283085 
0.13829 -0.667788 -0.731393 0.129116 -0.959642 -0.249831 0.0782337 -0.587028 -0.805778 
-0.094185 -0.960085 -0.263376 -0.19196 -0.970337 -0.146959 -0.279999 -0.957458 -0.0698199 
-0.295855 -0.952092 0.0774019 -0.30066 -0.953675 0.0104006 -0.230255 -0.92209 -0.31102 
0.0348994 -0.931132 -0.36301 0.00251113 -0.932486 -0.361198 0.0209404 -0.922213 -0.386114 
0.523154 0.82599 -0.209884 0.354902 0.909958 -0.214526 0.176634 0.955711 -0.23541 
0.0842896 0.966782 -0.241305 0.0169283 0.96155 -0.274106 0.0157989 0.979066 -0.202928 
0.0365733 0.994211 -0.101027 -0.0810801 0.995766 -0.0433244 -0.27296 0.961488 0.0321598 
-0.443283 0.896365 0.00539477 0.525317 0.824564 -0.210085 0.641074 0.725174 -0.251289 
0.522674 0.823191 -0.221741 0.311533 0.739367 -0.596895 -0.528757 0.848493 0.0218284 
-0.567003 0.823153 0.0304481 0.683336 0.68196 -0.260735 0.76471 0.57531 -0.290234 
0.62046 0.641595 -0.450982 -0.700492 0.713592 0.00991832 -0.704737 0.709419 0.00836334 
0.792117 0.533073 -0.297292 0.738174 0.530533 -0.416694 -0.831381 0.554442 -0.037423 
-0.862822 0.503015 -0.0501482 0.899617 0.331245 -0.284544 -0.910388 0.406407 -0.0776341 
0.939499 0.176974 -0.293295 0.942562 -0.02492 -0.333101 -0.955224 0.281422 -0.0913717 
0.942228 -0.0286763 -0.333743 0.94207 -0.0312399 -0.333958 0.941767 -0.0288209 -0.33503 
-0.984005 0.154987 -0.0878217 -0.992868 0.0823852 -0.0861712 0.900146 -0.249574 -0.357002 
0.58809 -0.248325 -0.76973 -0.986718 -0.13306 -0.0931807 -0.979423 -0.0327191 -0.199149 
0.81508 -0.411365 -0.407951 0.697245 -0.527168 -0.48574 0.599889 -0.405474 -0.689728 
-0.954034 -0.280711 -0.104978 0.641343 -0.559822 -0.52467 0.514996 -0.593516 -0.61848 
0.367688 -0.4942 -0.787764 0.171014 -0.460261 -0.871157 0.0888571 -0.447688 -0.889764 
-0.79652 -0.585632 -0.150305 -0.67751 -0.71469 -0.173778 -0.662835 -0.553204 -0.504593 
0.439938 -0.618758 -0.65084 0.230843 -0.686847 -0.689168 0.22272 -0.578888 -0.784401 
0.173608 -0.623111 -0.762623 0.113089 -0.512523 -0.851194 0.122294 -0.601962 -0.789104 
0.0817772 -0.491547 -0.867003 0.0773496 -0.582445 -0.809181 0.0560484 -0.483284 -0.873667 
0.0882098 -0.517386 -0.851193 0.0954306 -0.531469 -0.841685 0.0272825 -0.531169 -0.846826 
-0.0274864 -0.57992 -0.814209 -0.15674 -0.819964 -0.550538 -0.02779 -0.698716 -0.714859 
-0.185147 -0.866866 -0.462888 -0.0171564 -0.768226 -0.639949 -0.228529 -0.916521 -0.328274 
-0.143354 -0.834671 -0.531765 -0.415212 -0.878182 -0.237477 -0.354506 -0.899951 -0.253798 
-0.341414 -0.88151 -0.326154 0.0762394 -0.593068 -0.801535 0.0605275 -0.64955 -0.757905 
0.0677591 -0.638694 -0.766471 0.0592927 -0.703943 -0.707777 0.0699175 -0.665906 -0.742752 
-0.0431118 -0.761327 -0.646933 -0.0283499 -0.701181 -0.71242 -0.159492 -0.796368 -0.583404 
-0.158052 -0.787106 -0.596224 -0.152399 -0.768818 -0.621042 0.189681 0.700029 -0.688462 
0.0614638 0.737997 -0.671999 0.0359796 0.743815 -0.667416 0.102561 0.78427 -0.611883 
0.0796267 0.80652 -0.58582 -0.0219843 0.837286 -0.546324 -0.220781 0.817 -0.532698 
-0.384496 0.755984 -0.529764 0.41592 0.57345 -0.705809 0.246687 0.679618 -0.690843 
0.290952 0.643702 -0.70781 0.183525 0.649222 -0.738125 0.0704154 0.616256 -0.784392 
0.0473509 0.639757 -0.767117 0.0928595 0.632275 -0.769159 0.0858083 0.57878 -0.810957 
-0.0279287 0.538382 -0.842238 -0.215812 0.61878 -0.755338 -0.406168 0.751992 -0.519168 
-0.368464 0.730621 -0.574828 -0.503896 0.712359 -0.4885 0.456186 0.53814 -0.708731 
0.516557 0.470174 -0.715615 0.39271 0.507591 -0.766896 0.216949 0.394243 -0.893032 
0.127525 0.324041 -0.937409 0.0798756 0.312139 -0.946672 0.0611032 0.347067 -0.935848 
0.0441826 0.289959 -0.956019 0.0413984 0.204729 -0.977943 -0.0630074 0.272139 -0.960193 
-0.206338 0.420435 -0.883549 -0.601865 0.640124 -0.477494 -0.434992 0.575879 -0.692203 
-0.657167 0.586713 -0.473179 0.538025 0.440859 -0.718452 0.655244 0.240592 -0.716081 
0.483091 0.408727 -0.774316 0.270392 0.279931 -0.921155 0.148456 0.228006 -0.962276 
0.0934861 0.138619 -0.985924 -0.70002 0.503301 -0.506617 -0.598141 0.432821 -0.674457 
-0.798078 0.342961 -0.495429 0.65667 0.237373 -0.715849 0.654179 0.236959 -0.718262 
0.382592 0.195932 -0.902903 0.230942 0.143295 -0.962358 0.0311509 0.0245621 -0.999213 
-0.054126 -0.0658436 -0.996361 0.15159 -0.0478551 -0.987284 -0.440142 0.243192 -0.864369 
-0.800833 0.334943 -0.496468 -0.794164 0.334078 -0.507637 0.660609 0.0769 -0.746781 
0.619134 0.0702221 -0.782139 0.343206 0.0617705 -0.937227 0.142461 0.015547 -0.989678 
0.0220385 -0.0552895 -0.998227 0.0397765 -0.0597843 -0.997419 -0.125707 0.0554088 -0.990519 
0.111633 -0.105958 -0.988084 -0.807111 0.233249 -0.542371 -0.686249 0.205451 -0.697748 
0.629123 -0.0674857 -0.77437 0.578569 -0.202873 -0.79 0.559103 -0.073577 -0.825827 
0.308204 -0.109299 -0.94502 0.123289 -0.113481 -0.985861 0.00143315 -0.117724 -0.993045 
-0.0289701 -0.143708 -0.989196 0.067167 -0.115581 -0.991025 0.0417543 -0.0380173 -0.998404 
-0.801341 0.114351 -0.587176 -0.626152 0.0825747 -0.775316 0.553333 -0.24997 -0.794568 
0.320954 -0.259036 -0.910982 0.138166 -0.252393 -0.95771 -0.00367782 -0.238755 -0.971073 
0.0421279 -0.215107 -0.975681 0.149081 -0.0774539 -0.985787 0.00242919 -0.0468221 -0.9989 
-0.0141159 -0.136351 -0.99056 0.0152188 -0.0772661 -0.996894 0.0716128 0.0775644 -0.994412 
-0.778633 -0.0547746 -0.625084 -0.57623 -0.0588534 -0.815166 0.340659 -0.389221 -0.855838 
0.319714 -0.40156 -0.858215 0.322454 -0.390621 -0.862229 0.169776 -0.439473 -0.882065 
0.14949 -0.387492 -0.909672 0.0875646 -0.444335 -0.891571 0.039826 -0.354615 -0.934164 
0.116962 -0.3068 -0.94456 0.235908 -0.319821 -0.917639 0.00601592 -0.304351 -0.952541 
-0.0201967 -0.205321 -0.978486 0.101062 -0.211814 -0.972071 0.107651 -0.139713 -0.984323 
-0.261835 -0.277451 -0.924372 -0.729673 -0.296441 -0.616198 -0.634261 -0.457966 -0.622881 
-0.609006 -0.304627 -0.732334 0.0812089 -0.435453 -0.896541 0.0638125 -0.412868 -0.908553 
0.0643689 -0.407117 -0.911105 0.094223 -0.482242 -0.870956 0.107643 -0.488341 -0.865989 
0.109027 -0.524294 -0.844529 0.111638 -0.53732 -0.835957 0.0964743 -0.503422 -0.858638 
0.0903321 -0.419272 -0.903355 0.0336649 -0.514723 -0.856695 0.0685513 -0.427448 -0.901437 
-0.00367786 -0.561287 -0.827613 0.0685765 -0.475434 -0.877074 0.0115586 -0.671095 -0.741281 
0.0891497 -0.507076 -0.857278 0.00494798 -0.733671 -0.679486 0.015753 -0.498977 -0.866472 
-0.123269 -0.771408 -0.624287 -0.117835 -0.509224 -0.852529 -0.55568 -0.541366 -0.630985 
-0.314604 -0.704454 -0.636214 -0.313055 -0.552986 -0.772142 -0.00341156 0.193349 -0.981124 
0.10265 0.143742 -0.984277 0.0518936 0.273164 -0.960567 0.0152387 0.225586 -0.974104 
0.0224966 0.180579 -0.983303 0.00954881 0.0963529 -0.995301 -0.0324035 0.215821 -0.975895 
0.000224715 0.156631 -0.987657 -0.0340709 0.234868 -0.97143 -0.141648 0.335134 -0.931462 
-0.303716 0.324661 -0.895741 0.0852518 0.0947805 -0.991841 0.10201 0.127588 -0.986567 
0.104829 0.125296 -0.986566 0.0436468 0.195592 -0.979714 -0.0496926 0.0760092 -0.995868 
-0.0377476 -0.0434517 -0.998342 -0.0287731 -0.0358631 -0.998942 0.148192 -0.0470001 -0.987841 
0.0450348 -0.0188802 -0.998807 0.0572579 0.109162 -0.992374 -0.0365854 0.181205 -0.982765 
-0.325169 0.301898 -0.896171 -0.28891 0.291346 -0.911947 0.0996837 0.0826679 -0.991579 
0.0398407 0.0340547 -0.998626 0.0386929 -0.0154829 -0.999131 0.0749729 0.0718554 -0.994593 
0.0393634 0.0245017 -0.998924 0.149831 0.0271622 -0.988338 0.00718498 0.104191 -0.994531 
-0.127132 -0.0116554 -0.991817 -0.198839 0.0410843 -0.979171 0.151428 -0.047364 -0.987333 
0.126116 0.00295464 -0.992011 -0.000252929 0.0439134 -0.999035 -0.322271 0.170646 -0.93114 
-0.20183 0.108257 -0.973419 -0.337014 0.144585 -0.930332 0.0746509 -0.0736793 -0.994484 
0.150017 -0.118083 -0.981606 0.188531 -0.119179 -0.974809 0.0521777 -0.125496 -0.990721 
-0.153334 0.033794 -0.987596 -0.206375 -0.0379783 -0.977736 -0.138459 0.0307897 -0.98989 
0.122796 -0.094527 -0.98792 0.156609 -0.0659255 -0.985458 0.0687835 -0.0133136 -0.997543 
-0.116426 0.042213 -0.992302 -0.342881 0.129285 -0.930439 -0.315588 0.119972 -0.941282 
0.0857571 -0.18857 -0.978308 0.0594761 -0.146806 -0.987376 0.0872282 -0.194669 -0.976983 
0.0020962 -0.184143 -0.982897 0.00515431 -0.189925 -0.981785 -0.125531 0.0138105 -0.991994 
-0.0897377 -0.0144037 -0.995861 -0.142913 0.0190822 -0.989551 0.181469 -0.0279645 -0.982999 
0.223358 -0.0247797 -0.974421 0.10594 -0.0292333 -0.993943 -0.0751357 -0.0104521 -0.997119 
-0.345373 0.0406745 -0.937584 -0.280448 0.0343544 -0.959254 0.12779 0.0342783 -0.991209 
0.163347 0.00805154 -0.986536 0.0824308 -0.0640253 -0.994538 -0.0435083 -0.0879971 -0.99517 
-0.341928 -0.0745496 -0.936764 -0.250228 -0.199822 -0.947342 -0.250291 -0.0772076 -0.965087 
0.0967849 -0.167359 -0.981134 0.0842036 -0.251794 -0.964111 0.0835953 -0.198383 -0.976553 
0.012263 -0.292174 -0.956287 0.00973493 -0.212233 -0.977171 -0.176124 -0.266829 -0.947514 
-0.0904231 -0.303006 -0.948689 -0.0807312 -0.251067 -0.964597 
