# vtk DataFile Version 4.2
vtk output
ASCII
DATASET POLYDATA
POINTS 534 float
-36.1937 14.3603 -21.4569 -4.15648 -33.6955 -13.9558 3.85283 -33.6955 -14.8152 
11.8621 -33.6955 -15.5568 19.8714 -33.6955 -13.3507 -20.1751 -25.6862 -13.8704 
-12.1658 -25.6862 -13.9032 -4.15648 -25.6862 -14.7672 3.85283 -25.6862 -16.013 
11.8621 -25.6862 -17.3946 19.8714 -25.6862 -16.9585 27.8807 -25.6862 -14.7018 
-44.203 -17.6769 -15.2632 -36.1937 -17.6769 -16.9046 -28.1844 -17.6769 -16.7482 
-20.1751 -17.6769 -15.5971 -12.1658 -17.6769 -14.4895 -4.15648 -17.6769 -14.0137 
3.85283 -17.6769 -15.9607 11.8621 -17.6769 -18.476 19.8714 -17.6769 -18.5636 
27.8807 -17.6769 -17.9591 35.89 -17.6769 -16.279 -52.2123 -9.66763 -15.4831 
-44.203 -9.66763 -18.8196 -36.1937 -9.66763 -19.2358 -28.1844 -9.66763 -18.4153 
-20.1751 -9.66763 -16.7982 -12.1658 -9.66763 -15.8909 -4.15648 -9.66763 -16.1187 
3.85283 -9.66763 -17.4534 11.8621 -9.66763 -19.4987 19.8714 -9.66763 -18.6177 
27.8807 -9.66763 -19.0199 35.89 -9.66763 -18.8888 43.8993 -9.66763 -17.4338 
-52.2123 -1.65833 -17.2003 -44.203 -1.65833 -19.7605 -36.1937 -1.65833 -20.9946 
-28.1844 -1.65833 -19.3805 -20.1751 -1.65833 -17.1909 -12.1658 -1.65833 -16.7651 
-4.15648 -1.65833 -19.3187 3.85283 -1.65833 -17.9759 11.8621 -1.65833 -20.7445 
19.8714 -1.65833 -18.6952 27.8807 -1.65833 -19.4664 35.89 -1.65833 -20.0243 
43.8993 -1.65833 -19.4208 51.9086 -1.65833 -16.706 -52.2123 6.35097 -17.1837 
-44.203 6.35097 -20.0083 -36.1937 13.2809 -21.3333 -36.1937 6.35097 -20.5569 
-28.1844 6.35097 -20.079 -20.1751 6.35097 -17.9869 -12.1658 6.35097 -16.3737 
-4.15648 6.35097 -19.2497 3.85283 6.35097 -20.548 11.8621 6.35097 -20.0387 
19.8714 6.35097 -18.694 27.8807 6.35097 -19.6933 35.89 6.35097 -20.3604 
43.8993 6.35097 -19.951 51.9086 6.35097 -17.9076 -52.2123 14.3603 -16 
-36.7359 14.3603 -21.3333 -44.203 14.3603 -19.6792 -34.6959 14.3603 -21.3333 
-36.1937 15.7875 -21.3333 -28.1844 14.3603 -20.8093 -20.1751 14.3603 -19.5692 
-12.1658 14.3603 -18.3021 -4.15648 14.3603 -18.2599 3.85283 14.3603 -19.6304 
11.8621 14.3603 -18.9935 19.8714 14.3603 -19.1194 27.8807 14.3603 -19.9945 
35.89 14.3603 -20.7184 43.8993 14.3603 -21.2168 51.9086 14.3603 -17.2921 
-44.203 22.3696 -19.1724 -36.1937 22.3696 -20.7565 -28.1844 22.3696 -20.9661 
-20.1751 22.3696 -21.0617 -12.1658 22.3696 -19.7969 -4.15648 22.3696 -19.5337 
3.85283 22.3696 -19.5938 11.8621 22.3696 -19.7208 19.8714 22.3696 -19.9533 
27.8807 22.3696 -19.756 35.89 22.3696 -19.3925 43.8993 22.3696 -18.2477 
51.9086 22.3696 -14.8032 -44.203 30.3789 -15.3639 -36.1937 30.3789 -19.9249 
-28.1844 30.3789 -20.4041 -20.1751 30.3789 -20.4264 -12.1658 30.3789 -20.251 
-4.15648 30.3789 -20.2358 3.85283 30.3789 -19.8964 11.8621 30.3789 -19.6179 
19.8714 30.3789 -20.1 27.8807 30.3789 -18.6762 35.89 30.3789 -17.9624 
43.8993 30.3789 -14.6841 -36.1937 38.3882 -13.3258 -28.1844 38.3882 -17.3422 
-20.1751 38.3882 -18.1342 -12.1658 38.3882 -18.9412 -4.15648 38.3882 -18.5867 
3.85283 38.3882 -18.2008 11.8621 38.3882 -17.4124 19.8714 38.3882 -16.5711 
27.8807 38.3882 -15.6943 -12.1658 -41.7048 -6.47871 -4.15648 -35.3445 -13.324 
-4.15648 -41.7048 -9.91458 3.85283 -38.4518 -13.324 3.85283 -41.7048 -12.0314 
11.8621 -38.0571 -13.324 11.8621 -41.7048 -10.5977 19.8714 -33.7382 -13.324 
19.8714 -41.7048 -6.30595 -28.1844 -33.6955 -7.30693 -20.1751 -27.0474 -13.324 
-20.1751 -33.6955 -10.06 -6.79239 -33.6955 -13.324 -12.1658 -28.066 -13.324 
-12.1658 -33.6955 -11.8014 19.9225 -33.6955 -13.324 27.8807 -27.7994 -13.324 
27.8807 -33.6955 -7.45019 -44.203 -20.3525 -13.324 -44.203 -25.6862 -7.72683 
-36.1937 -23.5253 -13.324 -36.1937 -25.6862 -11.7409 -27.2433 -25.6862 -13.324 
-28.1844 -25.5098 -13.324 -28.1844 -25.6862 -13.24 31.3116 -25.6862 -13.324 
35.89 -22.7696 -13.324 35.89 -25.6862 -10.5958 -47.767 -17.6769 -13.324 
-52.2123 -13.551 -13.324 -52.2123 -17.6769 -9.49824 43.3633 -17.6769 -13.324 
43.8993 -17.2495 -13.324 43.8993 -17.6769 -12.9741 -55.0461 -9.66763 -13.324 
51.43 -9.66763 -13.324 51.9086 -9.12463 -13.324 51.9086 -9.66763 -12.892 
-57.339 -1.65833 -13.324 -60.2216 -1.65833 -7.26595 56.7433 -1.65833 -13.324 
59.9179 -1.65833 -7.91914 -57.0402 6.35097 -13.324 59.0202 6.35097 -13.324 
59.9179 6.35097 -11.9318 -55.4281 14.3603 -13.324 -52.2123 21.6601 -13.324 
57.9618 14.3603 -13.324 59.9179 14.3603 -9.81014 -51.8584 22.3696 -13.324 
-52.2123 22.3696 -12.5704 53.5608 22.3696 -13.324 51.9086 25.0168 -13.324 
-46.4382 30.3789 -13.324 -44.203 32.6378 -13.324 35.89 36.9451 -13.324 
47.059 30.3789 -13.324 43.8993 32.2022 -13.324 -36.196 38.3882 -13.324 
-36.1937 38.3896 -13.324 -28.1844 42.0806 -13.324 -20.1751 44.2064 -13.324 
-12.1658 46.0222 -13.324 -4.15648 45.8935 -13.324 3.85283 44.5565 -13.324 
11.8621 43.1681 -13.324 19.8714 41.8898 -13.324 33.3818 38.3882 -13.324 
27.8807 40.5375 -13.324 35.89 38.3882 -7.95878 -12.1658 46.3975 -11.7786 
-4.15648 46.3975 -11.6519 -12.1658 -42.7396 -5.31473 -4.15648 -46.0071 -5.31473 
3.85283 -47.8763 -5.31473 3.85283 -49.7141 0.773611 11.8621 -46.3631 -5.31473 
19.8714 -42.3934 -5.31473 -28.1844 -35.7084 -5.31473 -14.8444 -41.7048 -5.31473 
-20.1751 -39.3028 -5.31473 -20.1751 -41.7048 -1.01804 20.7934 -41.7048 -5.31473 
27.8807 -35.4435 -5.31473 -44.203 -27.443 -5.31473 -33.1359 -33.6955 -5.31473 
-36.1937 -32.4011 -5.31473 -36.1937 -33.6955 -2.05109 30.1967 -33.6955 -5.31473 
35.89 -29.7615 -5.31473 -46.5148 -25.6862 -5.31473 -52.2123 -20.815 -5.31473 
41.209 -25.6862 -5.31473 43.8993 -23.5784 -5.31473 43.8993 -25.6862 0.786696 
-54.9354 -17.6769 -5.31473 50.2004 -17.6769 -5.31473 51.9086 -15.8281 -5.31473 
-59.2901 -9.66763 -5.31473 -60.2216 -5.15307 -5.31473 56.6924 -9.66763 -5.31473 
59.9179 -3.81252 -5.31473 -60.8757 -1.65833 -5.31473 -60.2216 4.5636 -5.31473 
60.9223 -1.65833 -5.31473 -60.0354 6.35097 -5.31473 62.8276 6.35097 -5.31473 
-58.1923 14.3603 -5.31473 61.5165 14.3603 -5.31473 59.9179 18.1774 -5.31473 
-54.527 22.3696 -5.31473 -52.2123 25.7003 -5.31473 57.6947 22.3696 -5.31473 
51.9086 28.6389 -5.31473 -48.1483 30.3789 -5.31473 -44.203 34.532 -5.31473 
49.8262 30.3789 -5.31473 43.8993 34.7627 -5.31473 -38.8772 38.3882 -5.31473 
-36.1937 39.864 -5.31473 -36.1937 38.3882 -2.16462 -28.1844 43.0916 -5.31473 
-20.1751 45.9234 -5.31473 3.85283 46.355 -5.31473 11.8621 45.143 -5.31473 
19.8714 43.5953 -5.31473 27.8807 41.9615 -5.31473 27.8807 38.3882 1.17449 
36.9176 38.3882 -5.31473 35.89 38.9327 -5.31473 35.89 38.3882 -4.31991 
-18.0997 46.3975 -5.31473 -12.1658 47.5446 -5.31473 -12.1658 46.3975 -3.00285 
3.60027 46.3975 -5.31473 -4.15648 47.5858 -5.31473 -4.15648 46.3975 -2.83809 
3.85283 -50.1924 2.69458 -20.1751 -43.2959 2.69458 -12.1658 -46.1945 2.69458 
0.955067 -49.7141 2.69458 -4.15648 -48.8653 2.69458 7.7004 -49.7141 2.69458 
3.85283 -49.7141 7.97869 11.8621 -49.134 2.69458 19.8714 -45.5005 2.69458 
-36.1937 -35.1973 2.69458 -24.0674 -41.7048 2.69458 -28.1844 -39.9237 2.69458 
25.2526 -41.7048 2.69458 27.8807 -39.5286 2.69458 -38.3623 -33.6955 2.69458 
-44.203 -29.247 2.69458 -36.1937 -33.6955 10.5163 35.4694 -33.6955 2.69458 
35.89 -33.3767 2.69458 35.89 -33.6955 4.04807 43.8993 -26.3726 2.69458 
-48.1484 -25.6862 2.69458 -52.2123 -21.248 2.69458 44.5952 -25.6862 2.69458 
-54.9184 -17.6769 2.69458 -52.2123 -17.6769 8.85991 51.8366 -17.6769 2.69458 
51.9086 -17.5801 2.69458 -58.709 -9.66763 2.69458 -60.2216 -2.78774 2.69458 
57.1357 -9.66763 2.69458 59.9179 -3.67242 2.69458 -60.4699 -1.65833 2.69458 
-60.2216 -0.0963785 2.69458 -60.2216 -1.65833 3.27561 60.7698 -1.65833 2.69458 
59.9179 -1.65833 4.90166 -59.1927 6.35097 2.69458 62.356 6.35097 2.69458 
59.9179 6.35097 7.70097 -56.6047 14.3603 2.69458 -52.2123 14.3603 9.42689 
60.1385 14.3603 2.69458 59.9179 14.8082 2.69458 59.9179 14.3603 3.10342 
-52.6309 22.3696 2.69458 -52.2123 22.9063 2.69458 -52.2123 22.3696 3.35065 
43.8993 22.3696 10.667 54.8633 22.3696 2.69458 51.9086 25.5888 2.69458 
51.9086 22.3696 5.88855 -44.9441 30.3789 2.69458 -44.203 31.1194 2.69458 
-44.203 30.3789 3.50094 -36.1937 35.65 2.69458 -36.1937 30.3789 8.35416 
-28.1844 30.3789 10.6955 19.8714 30.3789 10.285 27.8807 37.3178 2.69458 
27.8807 30.3789 8.42553 35.89 34.5784 2.69458 35.89 30.3789 7.3141 
44.5039 30.3789 2.69458 43.8993 30.706 2.69458 43.8993 30.3789 3.05086 
-29.0459 38.3882 2.69458 -28.1844 38.694 2.69458 -28.1844 38.3882 3.07313 
-20.1751 41.3334 2.69458 -20.1751 38.3882 6.16003 -12.1658 42.7876 2.69458 
-12.1658 38.3882 7.2455 -4.15648 42.9124 2.69458 -4.15648 38.3882 7.10807 
3.85283 41.7208 2.69458 3.85283 38.3882 6.1506 11.8621 40.737 2.69458 
11.8621 38.3882 5.31796 24.7257 38.3882 2.69458 19.8714 39.8296 2.69458 
19.8714 38.3882 4.16207 -20.1751 -43.4211 10.7039 -12.1658 -46.143 10.7039 
-4.15648 -48.2101 10.7039 3.85283 -49.4512 10.7039 11.8621 -48.5465 10.7039 
19.8714 -45.5473 10.7039 -24.0564 -41.7048 10.7039 -28.1844 -39.6134 10.7039 
-20.1751 -41.7048 13.7133 -12.1658 -41.7048 18.0171 26.9743 -41.7048 10.7039 
19.8714 -41.7048 17.9507 27.8807 -41.1535 10.7039 35.89 -35.3653 10.7039 
-44.203 -25.9194 10.7039 -36.1399 -33.6955 10.7039 -36.1937 -33.6486 10.7039 
-28.1844 -33.6955 17.7799 37.5249 -33.6955 10.7039 35.89 -33.6955 13.6494 
43.8993 -27.1792 10.7039 -44.423 -25.6862 10.7039 -44.203 -25.6862 10.9325 
-36.1937 -25.6862 17.5891 45.1853 -25.6862 10.7039 43.8993 -25.6862 12.8953 
-51.161 -17.6769 10.7039 -52.2123 -15.7096 10.7039 -44.203 -17.6769 16.4527 
50.5701 -17.6769 10.7039 43.8993 -17.6769 18.5686 51.9086 -15.2888 10.7039 
-54.8216 -9.66763 10.7039 -52.2123 -9.66763 13.7882 54.7473 -9.66763 10.7039 
51.9086 -9.66763 14.4217 -56.1714 -1.65833 10.7039 -52.2123 -1.65833 14.3976 
57.256 -1.65833 10.7039 51.9086 -1.65833 16.3334 -54.5323 6.35097 10.7039 
-52.2123 12.0668 10.7039 -52.2123 6.35097 13.142 -44.203 6.35097 17.9255 
-20.1751 6.35097 18.1129 -12.1658 6.35097 17.3178 -4.15648 6.35097 18.1056 
19.8714 6.35097 18.6026 57.6914 6.35097 10.7039 51.9086 6.35097 15.9941 
-50.8616 14.3603 10.7039 -44.203 14.3603 14.6629 -36.1937 14.3603 16.6837 
[...]
POINT_DATA 534
SCALARS ImageScalars float
LOOKUP_TABLE default
0 0 0 0 0 0 0 0 0 
0 0 0 0 0 0 0 0 0 
0 0 0 0 0 0 0 0 0 
0 0 0 0 0 0 0 0 0 
0 0 0 0 0 0 0 0 0 
0 0 0 0 0 0 0 0 0 
0 0 0 0 0 0 0 0 0 
0 0 0 0 0 0 0 0 0 
0 0 0 0 0 0 0 0 0 
0 0 0 0 0 0 0 0 0 
0 0 0 0 0 0 0 0 0 
0 0 0 0 0 0 0 0 0 
0 0 0 0 0 0 0 0 0 
0 0 0 0 0 0 0 0 0 
0 0 0 0 0 0 0 0 0 
0 0 0 0 0 0 0 0 0 
0 0 0 0 0 0 0 0 0 
0 0 0 0 0 0 0 0 0 
0 0 0 0 0 0 0 0 0 
0 0 0 0 0 0 0 0 0 
0 0 0 0 0 0 0 0 0 
0 0 0 0 0 0 0 0 0 
0 0 0 0 0 0 0 0 0 
0 0 0 0 0 0 0 0 0 
0 0 0 0 0 0 0 0 0 
0 0 0 0 0 0 0 0 0 
0 0 0 0 0 0 0 0 0 
0 0 0 0 0 0 0 0 0 
0 0 0 0 0 0 0 0 0 
0 0 0 0 0 0 0 0 0 
0 0 0 0 0 0 0 0 0 
0 0 0 0 0 0 0 0 0 
0 0 0 0 0 0 0 0 0 
0 0 0 0 0 0 0 0 0 
0 0 0 0 0 0 0 0 0 
0 0 0 0 0 0 0 0 0 
0 0 0 0 0 0 0 0 0 
0 0 0 0 0 0 0 0 0 
0 0 0 0 0 0 0 0 0 
0 0 0 0 0 0 0 0 0 
0 0 0 0 0 0 0 0 0 
0 0 0 0 0 0 0 0 0 
0 0 0 0 0 0 0 0 0 
0 0 0 0 0 0 0 0 0 
0 0 0 0 0 0 0 0 0 
0 0 0 0 0 0 0 0 0 
0 0 0 0 0 0 0 0 0 
0 0 0 0 0 0 0 0 0 
0 0 0 0 0 0 0 0 0 
0 0 0 0 0 0 0 0 0 
0 0 0 0 0 0 0 0 0 
0 0 0 0 0 0 0 0 0 
0 0 0 0 0 0 0 0 0 
0 0 0 0 0 0 0 0 0 
0 0 0 0 0 0 0 0 0 
0 0 0 0 0 0 0 0 0 
0 0 0 0 0 0 0 0 0 
0 0 0 0 0 0 0 0 0 
0 0 0 0 0 0 0 0 0 
0 0 0 
NORMALS Normals float
0.0723331 0.0130374 0.997295 0.17129 0.249059 0.95322 0.101688 0.222554 0.969603 
-0.0663035 0.3474 0.93537 -0.365755 0.501254 0.784199 0.0362909 0.303111 0.952264 
0.0590594 0.153662 0.986357 0.126534 0.00553582 0.991947 0.166271 0.0684832 0.983699 
0.058715 0.182575 0.981437 -0.147878 0.281301 0.948157 -0.312319 0.467151 0.82718 
0.30743 0.497967 0.810874 0.079727 0.395275 0.915096 -0.079598 0.297195 0.951493 
-0.136205 0.180768 0.974049 -0.0960872 0.11263 0.98898 0.0785389 0.0447999 0.995904 
0.286548 0.0771437 0.954955 0.144604 0.127081 0.981295 -0.029103 0.101691 0.99439 
-0.136819 0.240388 0.960986 -0.258617 0.402607 0.87808 0.511913 0.326022 0.794767 
0.214937 0.254618 0.942853 -0.028525 0.235413 0.971477 -0.146632 0.152334 0.977391 
-0.151043 0.0957146 0.983882 -0.04823 0.137896 0.989272 0.0959791 0.326391 0.940349 
0.20721 0.122792 0.97056 0.0517233 0.136001 0.989358 -0.0283927 0.00827918 0.999563 
0.0174539 0.0896295 0.995822 -0.0871859 0.226853 0.970019 -0.296516 0.351999 0.887792 
0.486529 0.101462 0.867753 0.214205 0.0649572 0.974627 -0.00949897 0.0797983 0.996766 
-0.224564 0.101207 0.96919 -0.150847 0.0716589 0.985956 0.110845 0.0289968 0.993415 
0.0652473 0.161428 0.984725 0.11346 0.19279 0.974658 0.00699325 0.0382786 0.999243 
-0.0698791 0.00475025 0.997544 0.0850236 0.0424069 0.995476 -0.00439012 0.0883007 0.996084 
-0.187085 0.13559 0.972941 -0.468005 0.243033 0.849651 0.525771 -0.0664919 0.848024 
0.187474 -0.00410155 0.982261 0.0656881 0.0160319 0.997711 0.0103956 0.030298 0.999487 
-0.151555 0.087884 0.984534 -0.224283 0.143324 0.963927 0.0756641 0.104848 0.991606 
0.256017 -0.0666583 0.964371 0.0496873 0.0767665 0.99581 -0.120234 -0.116352 0.985904 
-0.0113963 0.0267921 0.999576 0.105253 0.0337971 0.993871 0.0161979 0.0426973 0.998957 
-0.140015 0.101736 0.984909 -0.375401 0.0340533 0.926237 0.60745 -0.193091 0.770532 
0.0872241 0.01158 0.996121 0.294977 -0.0466453 0.954365 0.0370714 0.0204439 0.999103 
0.075351 -0.00207773 0.997155 -0.113581 0.0508233 0.992228 -0.15607 0.173575 0.972375 
-0.079095 0.212615 0.97393 0.0798282 0.0200644 0.996607 0.0462706 -0.0529214 0.997526 
-0.0305607 -0.0118269 0.999463 0.0621729 0.0774181 0.995058 0.0982706 0.00383597 0.995152 
0.0734519 -0.0588194 0.995563 -0.195838 -0.0790978 0.977441 -0.478689 -0.127242 0.868716 
0.368013 -0.253947 0.89447 0.0959788 -0.0849422 0.991752 0.0180347 -0.0226439 0.999581 
-0.07596 0.0526949 0.995717 -0.0867956 0.119402 0.989045 -0.0128381 0.124149 0.992181 
0.0116748 0.0166464 0.999793 0.0223542 0.0390151 0.998989 0.00220796 0.0605334 0.998164 
-0.0340746 -0.0781124 0.996362 -0.0853691 -0.15872 0.983626 -0.212848 -0.377901 0.901047 
-0.569969 -0.401848 0.716696 0.582488 -0.548076 0.600267 0.260196 -0.339119 0.904045 
0.0262466 -0.199016 0.979645 -0.00961821 -0.166925 0.985923 -0.011912 -0.052689 0.99854 
-0.0222072 -0.0501976 0.998492 -0.0385235 -0.0833489 0.995776 0.0106437 -0.134752 0.990822 
-0.0539684 -0.184183 0.981409 -0.128969 -0.234453 0.963535 -0.250645 -0.413184 0.875475 
-0.404461 -0.564161 0.719815 0.466256 -0.770352 0.43493 0.240394 -0.61894 0.747746 
0.0981223 -0.487523 0.867579 0.0286583 -0.367739 0.929487 -0.0507921 -0.387023 0.92067 
-0.0737571 -0.431441 0.899121 -0.105201 -0.509227 0.854178 -0.102918 -0.624988 0.77382 
-0.260286 -0.681891 0.683576 0.32412 0.712263 0.622598 0.189926 0.310512 0.931402 
0.263264 0.593652 0.76044 0.0666466 0.376952 0.923832 0.0397513 0.524992 0.850178 
-0.146464 0.483643 0.862924 -0.231764 0.650649 0.723147 -0.366493 0.502356 0.783148 
-0.491343 0.713295 0.499791 0.28144 0.690404 0.666433 0.0651583 0.333912 0.94035 
0.224965 0.530061 0.817573 0.186823 0.286517 0.939684 0.106162 0.215245 0.970773 
0.217513 0.379483 0.899267 -0.366661 0.502441 0.783015 -0.35756 0.519236 0.776238 
-0.49895 0.680281 0.536904 0.349118 0.55877 0.752259 0.482408 0.733789 0.478368 
0.181166 0.535197 0.825072 0.241068 0.60734 0.756984 0.0979484 0.456082 0.884531 
0.102071 0.472107 0.875612 0.106542 0.476583 0.87265 -0.352953 0.536945 0.766234 
-0.347591 0.548426 0.760532 -0.434779 0.647626 0.625738 0.441175 0.543692 0.713977 
0.555733 0.46448 0.689507 0.651351 0.602884 0.460732 -0.424795 0.536323 0.72932 
-0.430342 0.535929 0.726351 -0.443723 0.551729 0.70619 0.6426 0.355482 0.678748 
-0.575543 0.455318 0.679291 -0.585674 0.444955 0.677496 -0.601788 0.466405 0.648319 
0.760909 0.0915428 0.642368 0.96935 0.0519569 0.240126 -0.683114 0.299058 0.666273 
-0.897317 0.31881 0.305258 0.78761 -0.0888378 0.609737 -0.762979 0.0571315 0.643893 
-0.839822 0.0555188 0.540016 0.763574 -0.269593 0.586749 0.768076 -0.418297 0.484857 
-0.733939 -0.19403 0.650911 -0.899281 -0.227944 0.373277 0.766904 -0.430179 0.476239 
0.788448 -0.445869 0.423733 -0.63809 -0.449935 0.624819 -0.627402 -0.51212 0.586601 
0.658929 -0.592759 0.463087 0.607388 -0.64918 0.457871 -0.389933 -0.73342 0.556819 
-0.521622 -0.619545 0.586578 -0.445826 -0.655298 0.609774 0.466313 -0.770379 0.43482 
0.466276 -0.770401 0.43482 0.330048 -0.838663 0.433257 0.216373 -0.839997 0.497583 
0.086524 -0.876014 0.474462 -0.0783488 -0.858272 0.507178 -0.132784 -0.84893 0.511553 
-0.148211 -0.825759 0.544203 -0.155574 -0.824787 0.54362 -0.367285 -0.76888 0.52338 
-0.267624 -0.826607 0.495075 -0.423975 -0.903044 0.0689658 0.0946564 -0.933206 0.34665 
-0.0809681 -0.931042 0.355816 0.331241 0.750746 0.571542 0.273888 0.802591 0.529936 
0.0215106 0.881086 0.472466 0.021489 0.986811 0.160443 -0.292111 0.835535 0.465351 
-0.499329 0.732182 0.463227 0.328631 0.738155 0.589177 0.328296 0.750398 0.573695 
0.314666 0.738378 0.596475 0.353338 0.862757 0.361667 -0.510416 0.723086 0.465428 
-0.533706 0.703323 0.46957 0.519718 0.773459 0.362843 0.377319 0.768452 0.516829 
0.407431 0.783576 0.46905 0.481759 0.826475 0.291285 -0.523694 0.715178 0.462888 
-0.526759 0.730427 0.434742 0.55329 0.756309 0.349095 0.691167 0.670772 0.268986 
-0.57233 0.727313 0.378754 -0.59657 0.724428 0.345412 -0.672268 0.711629 0.204059 
0.77282 0.586133 0.243306 -0.690736 0.668715 0.275143 -0.725516 0.639714 0.253758 
0.932748 0.327705 0.150299 0.976575 0.163985 0.139317 -0.802071 0.547739 0.238043 
-0.911446 0.369344 0.181251 0.989356 0.0406876 0.139709 0.989088 -0.112269 0.0954006 
-0.935992 0.308205 0.170087 0.984199 -0.155478 0.0847238 -0.985554 0.040045 0.164561 
0.942579 -0.331979 0.0365323 -0.962639 -0.256791 0.0859307 -0.913766 -0.403659 0.0457279 
0.862185 -0.505871 0.027027 0.823977 -0.566615 -0.0032443 -0.809109 -0.58742 0.0167586 
-0.691973 -0.720405 -0.0468044 0.737206 -0.672464 -0.065721 0.637948 -0.766993 -0.0688806 
-0.645999 -0.759641 -0.0750308 -0.524388 -0.846222 -0.0944773 0.481729 -0.868737 -0.115037 
0.421145 -0.897617 -0.130077 0.396869 -0.866513 -0.302739 0.353097 -0.917825 -0.181438 
0.251439 -0.952856 -0.169832 -0.148863 -0.978213 -0.144701 -0.161535 -0.976909 -0.139836 
-0.184548 -0.977883 -0.0984209 -0.258057 -0.956947 -0.132891 -0.281198 -0.786067 -0.550479 
-0.414833 -0.89862 -0.142814 -0.400518 -0.905482 -0.140313 -0.399378 -0.896334 -0.192567 
0.210343 -0.962617 -0.170659 0.0998381 -0.983073 -0.153624 0.105427 -0.950393 -0.292642 
-0.146563 -0.978526 -0.144936 -0.0758436 -0.987028 -0.141504 -0.0710403 -0.953511 -0.292866 
0.0201245 0.996698 0.0786604 0.36412 0.910358 0.196633 0.327674 0.929113 0.171405 
0.0990611 0.991324 0.086392 0.236987 0.965947 0.103847 -0.122676 0.988625 0.0870084 
0.0177689 0.984713 -0.173274 -0.280067 0.954714 0.100418 -0.499418 0.851417 0.160221 
0.544268 0.836347 0.0655502 0.400158 0.897809 0.183883 0.441089 0.880651 0.172899 
-0.576402 0.787466 0.218308 -0.591149 0.766805 0.250108 0.566943 0.82243 0.0467394 
0.640856 0.76698 -0.0323221 0.585198 0.713713 -0.384912 -0.591457 0.763912 0.258103 
-0.593289 0.763775 0.254274 -0.61442 0.764059 0.196729 -0.692589 0.702351 0.164388 
0.691686 0.7172 -0.0848275 0.770222 0.62163 -0.142596 -0.697492 0.69988 0.153857 
0.828772 0.530228 -0.178871 0.755247 0.47701 -0.449514 -0.788028 0.615545 0.0107512 
-0.789439 0.613761 0.00912843 0.926617 0.301373 -0.224844 0.970468 0.0676693 -0.231546 
-0.862118 0.495168 -0.10752 -0.92363 0.341701 -0.173634 0.972374 0.0296581 -0.231534 
0.970893 -0.0171762 -0.238898 0.96613 0.0277287 -0.256561 -0.940583 0.284708 -0.185056 
-0.922442 0.27063 -0.275427 0.938312 -0.212983 -0.272413 -0.966919 -0.0345861 -0.252729 
-0.873255 -0.0846497 -0.479853 0.857299 -0.381987 -0.345144 0.672489 -0.380017 -0.635095 
-0.870818 -0.364944 -0.32938 -0.8635 -0.379334 -0.332375 -0.862373 -0.36708 -0.348662 
0.739905 -0.551671 -0.384968 0.731004 -0.560263 -0.389536 0.724543 -0.553659 -0.410487 
-0.2821 -0.613365 -0.737701 -0.652066 -0.623985 -0.430643 -0.579938 -0.663314 -0.472955 
-0.514907 -0.628513 -0.58296 0.594334 -0.649078 -0.474831 0.571278 -0.665611 -0.480211 
0.57042 -0.647869 -0.504862 0.342677 -0.759179 -0.553371 0.303157 -0.633487 -0.711892 
0.192047 -0.562994 -0.803838 -0.15168 -0.500636 -0.852266 -0.26231 -0.718844 -0.643783 
-0.148116 -0.571602 -0.807052 -0.314621 -0.754304 -0.576229 -0.246797 -0.617863 -0.74655 
-0.421789 -0.714153 -0.55864 -0.407332 -0.719363 -0.56267 -0.406595 -0.710811 -0.573958 
0.294221 -0.779312 -0.55327 0.288302 -0.781378 -0.553471 0.287315 -0.773759 -0.564576 
0.206667 -0.787074 -0.581208 0.178886 -0.717994 -0.672669 0.0841803 -0.772353 -0.629591 
0.0423525 -0.667196 -0.743677 -0.0534046 -0.764788 -0.642065 -0.0523552 -0.636866 -0.769195 
-0.111278 -0.766877 -0.632074 -0.087442 -0.675856 -0.731828 -0.0930916 -0.785734 -0.61152 
-0.0950255 -0.716331 -0.69126 -0.236667 -0.740529 -0.628971 -0.164936 -0.77644 -0.608224 
-0.172167 -0.725882 -0.665923 0.360017 0.902605 -0.235992 0.278719 0.926701 -0.252072 
0.190151 0.93265 -0.306605 0.0167875 0.951464 -0.307302 -0.221586 0.934765 -0.277694 
-0.392848 0.896547 -0.204634 0.415235 0.872571 -0.257294 0.494217 0.81843 -0.293124 
0.362327 0.826238 -0.431335 0.205914 0.664868 -0.718019 -0.526194 0.840507 -0.129107 
-0.295 0.695003 -0.655703 -0.542301 0.831427 -0.120987 -0.665192 0.739757 -0.101391 
0.650763 0.591594 -0.475946 0.584408 0.709011 -0.394678 0.584646 0.708251 -0.395689 
0.443145 0.474132 -0.760803 -0.70056 0.703875 -0.117368 -0.663886 0.677298 -0.317053 
-0.758818 0.622002 -0.193155 0.651663 0.588606 -0.478413 0.648156 0.584336 -0.488308 
0.410109 0.375704 -0.831058 -0.765723 0.60715 -0.21222 -0.746891 0.582911 -0.319949 
0.712851 0.442388 -0.544185 0.732235 0.397661 -0.552899 0.480035 0.351335 -0.803822 
-0.801786 0.514507 -0.30401 -0.492575 0.263845 -0.829311 -0.812782 0.473052 -0.34001 
0.770723 0.246342 -0.587624 0.677263 0.212215 -0.704471 -0.827077 0.349755 -0.440018 
-0.729613 0.273199 -0.626919 0.763716 -0.0102318 -0.645471 0.615489 -0.03186 -0.787501 
-0.81423 0.155242 -0.559401 -0.597532 0.0636685 -0.799313 0.720943 -0.23415 -0.652238 
0.652741 -0.333672 -0.680142 0.640592 -0.227959 -0.733265 0.3213 -0.228844 -0.918911 
-0.111041 -0.237167 -0.965102 0.00291935 -0.237658 -0.971344 0.167129 -0.0867748 -0.982109 
0.0153683 -0.200559 -0.979561 -0.752367 -0.1347 -0.644825 -0.531873 -0.183212 -0.826768 
0.601986 -0.376191 -0.704339 0.352051 -0.378885 -0.855865 0.15317 -0.343939 -0.926415 
0.0202264 -0.23304 -0.972257 -0.0267032 -0.135026 -0.990482 0.0238366 -0.0815532 -0.996384 
0.0738241 -0.172855 -0.982177 0.0147661 -0.321525 -0.946786 -0.102059 -0.24834 -0.963281 
-0.0358336 -0.26566 -0.963401 0.0273721 -0.363386 -0.931237 -0.0302991 -0.423188 -0.905535 
-0.281662 -0.61246 -0.73862 -0.220626 -0.473268 -0.852843 -0.572938 -0.417752 -0.705142 
-0.490577 -0.493149 -0.718427 -0.508212 -0.437752 -0.741683 0.434957 -0.514168 -0.739219 
0.431009 -0.515879 -0.740338 0.429354 -0.51333 -0.743066 0.265513 -0.54979 -0.791981 
0.227362 -0.43597 -0.870768 0.191879 -0.562623 -0.804138 0.122801 -0.3678 -0.921761 
0.0511018 -0.271207 -0.961164 -0.0302649 -0.240104 -0.970275 -0.0610409 -0.302191 -0.951291 
-0.00201704 -0.36927 -0.92932 -0.0554521 -0.357259 -0.932358 -0.147743 -0.484804 -0.862054 
-0.106981 -0.362158 -0.925957 -0.119198 -0.516011 -0.848248 -0.0758218 -0.457792 -0.88582 
-0.279367 -0.61183 -0.740012 -0.176143 -0.535254 -0.826121 -0.14205 -0.530127 -0.835935 
0.191665 -0.562594 -0.804209 0.130331 -0.545122 -0.828164 0.114928 -0.487109 -0.865746 
0.00933841 -0.540875 -0.841051 -0.00596354 -0.45809 -0.888886 -0.062263 -0.4948 -0.866773 
-0.0676351 -0.440827 -0.89504 -0.0535041 -0.492817 -0.868487 -0.0464941 -0.456503 -0.888506 
-0.121965 -0.504564 -0.854716 -0.077802 -0.530728 -0.843964 -0.0740076 -0.512477 -0.855506 
0.096604 0.606873 -0.788906 0.0280488 0.591822 -0.80558 -0.10064 0.608293 -0.787306 
0.271583 0.490758 -0.827888 0.144012 0.613408 -0.776525 0.188107 0.597659 -0.779371 
0.0934086 0.5813 -0.80831 0.0269074 0.518207 -0.854832 -0.22003 0.639946 -0.736244 
-0.0935543 0.55028 -0.829723 -0.267671 0.637108 -0.722804 -0.416869 0.537007 -0.733378 
0.372665 0.423404 -0.825742 0.376154 0.363733 -0.852177 0.215757 0.348522 -0.91213 
0.129285 0.260229 -0.956852 0.066114 0.193988 -0.978774 0.00560062 0.147217 -0.989088 
-0.0400566 0.187957 -0.98136 -0.124913 0.242123 -0.962171 -0.462132 0.498983 -0.73311 
-0.375253 0.444661 -0.813303 -0.47378 0.414013 -0.777255 0.334352 0.284023 -0.898632 
0.313922 0.266526 -0.911272 0.256017 0.176764 -0.950374 0.172855 0.0929194 -0.980554 
0.0391657 0.0297331 -0.99879 -0.00670516 -0.0370023 -0.999293 0.0232133 -0.0657152 -0.997568 
0.00791348 -0.0458274 -0.998918 -0.0579941 0.0148492 -0.998206 -0.160426 0.14954 -0.975654 
-0.494355 0.377872 -0.782832 -0.399412 0.33293 -0.854182 0.307341 0.235449 -0.922012 
0.372107 0.128793 -0.919211 0.257263 0.203715 -0.944625 0.15461 0.0984304 -0.98306 
0.0741728 -0.0210526 -0.997023 0.000773696 -0.0654061 -0.997858 -0.0331683 -0.113597 -0.992973 
-0.00571688 -0.081383 -0.996666 0.0370394 -0.161289 -0.986212 0.0695931 -0.134482 -0.988469 
-0.0245191 -0.0368079 -0.999022 -0.48092 0.255622 -0.838674 -0.277789 0.0980219 -0.955628 
-0.476788 0.244974 -0.844193 0.375 0.119481 -0.919293 0.36676 0.11719 -0.922905 
0.17293 0.0684434 -0.982553 0.0523254 -0.00311627 -0.998625 0.00711927 -0.0704978 -0.997487 
-0.050927 -0.0882294 -0.994797 -0.024473 -0.179365 -0.983478 -0.0227273 -0.0289068 -0.999324 
-0.0359012 -0.104065 -0.993922 0.0650181 -0.157404 -0.985392 0.0571678 -0.120066 -0.991118 
-0.110338 -0.0313601 -0.993399 -0.432032 0.115547 -0.894426 -0.356067 0.0923354 -0.929887 
0.339713 -0.0489224 -0.939256 0.335317 -0.0620065 -0.940063 0.336253 -0.0490321 -0.940494 
0.133676 -0.0719021 -0.988413 0.0118111 -0.157329 -0.987476 -0.0907725 -0.238225 -0.966959 
-0.0130921 -0.223881 -0.974528 -0.0505217 -0.265702 -0.962731 -0.113042 -0.267486 -0.956908 
0.0582275 -0.164675 -0.984628 0.0212672 -0.190045 -0.981545 0.0859072 -0.0786279 -0.993196 
-0.103409 -0.0725879 -0.991987 0.0203225 -0.194482 -0.980695 0.0605765 -0.134756 -0.989025 
0.104854 -0.110932 -0.988281 -0.0521268 -0.084586 -0.995052 -0.394505 0.0106274 -0.918832 
-0.272868 -0.0238391 -0.961756 0.221197 -0.237774 -0.945799 0.0982595 -0.288731 -0.952355 
0.0726919 -0.249091 -0.965748 -0.102557 -0.229272 -0.967945 -0.069362 -0.223199 -0.972302 
-0.0973403 -0.222766 -0.97 0.144942 -0.116327 -0.982578 0.031694 -0.291815 -0.95595 
0.0965509 -0.188694 -0.977278 0.000624897 -0.193932 -0.981015 -0.105266 -0.189372 -0.976247 
-0.105642 -0.151871 -0.982738 0.0254903 -0.204639 -0.978506 0.0863295 -0.286284 -0.954248 
0.118101 -0.239896 -0.963588 -0.0162981 -0.336764 -0.941448 -0.0252292 -0.25306 -0.967122 
-0.302717 -0.193926 -0.933143 -0.228372 -0.272706 -0.9346 -0.233206 -0.194187 -0.952841 

