# vtk DataFile Version 4.2
vtk output
ASCII
DATASET POLYDATA
POINTS 508 float
39.6099 5.5465 -24.6443 47.9224 5.5465 -24.7183 39.6099 13.859 -24.381 
-18.5777 -27.7036 -16.8696 -10.2652 -27.7036 -18.3555 -1.95266 -27.7036 -18.1346 
6.35985 -27.7036 -17.4 14.6724 -27.7036 -17.3345 22.9849 -27.7036 -18.0318 
31.2974 -27.7036 -18.0535 39.6099 -27.7036 -16.502 -26.8902 -19.391 -16.0473 
-18.5777 -19.391 -18.005 -10.2652 -19.391 -19.4409 -1.95266 -19.391 -19.2172 
6.35985 -19.391 -18.5082 14.6724 -19.391 -18.7921 22.9849 -19.391 -20.1711 
31.2974 -19.391 -21.0259 39.6099 -19.391 -21.0743 47.9224 -19.391 -19.8002 
-26.8902 -11.0785 -17.6011 -18.5777 -11.0785 -19.5338 -10.2652 -11.0785 -20.4762 
-1.95266 -11.0785 -19.9496 6.35985 -11.0785 -19.9401 14.6724 -11.0785 -18.4864 
22.9849 -11.0785 -20.2975 31.2974 -11.0785 -22.5657 39.6099 -11.0785 -23.1377 
47.9224 -11.0785 -22.5194 56.2349 -11.0785 -20.0539 -35.2027 -2.76601 -16.5309 
-26.8902 -2.76601 -19.1766 -18.5777 -2.76601 -21.5566 -10.2652 -2.76601 -21.9445 
-1.95266 -2.76601 -19.3287 6.35985 -2.76601 -19.9885 14.6724 -2.76601 -17.2509 
22.9849 -2.76601 -20.209 31.2974 -2.76601 -22.7649 39.6099 0.583563 -24.3594 
39.6099 -2.76601 -24.1685 47.9224 0.114314 -24.3594 47.9224 -2.76601 -24.1753 
56.2349 -2.76601 -22.3162 -35.2027 5.5465 -17.6529 -26.8902 5.5465 -19.7782 
-18.5777 5.5465 -20.9277 -10.2652 5.5465 -21.5304 -1.95266 5.5465 -20.2294 
6.35985 5.5465 -19.6749 14.6724 5.5465 -19.1564 22.9849 5.5465 -21.2399 
37.6734 5.5465 -24.3594 31.2974 5.5465 -23.4144 49.6901 5.5465 -24.3594 
47.9224 7.03767 -24.3594 56.2349 5.5465 -22.785 -35.2027 13.859 -18.365 
-26.8902 13.859 -20.5754 -18.5777 13.859 -20.9596 -10.2652 13.859 -20.8081 
-1.95266 13.859 -20.051 6.35985 13.859 -19.5588 14.6724 13.859 -19.85 
22.9849 13.859 -21.5682 39.3975 13.859 -24.3594 31.2974 13.859 -23.437 
39.7344 13.859 -24.3594 39.6099 13.923 -24.3594 47.9224 13.859 -22.7701 
56.2349 13.859 -19.7801 -35.2027 22.1715 -18.6242 -26.8902 22.1715 -20.5381 
-18.5777 22.1715 -21.4594 -10.2652 22.1715 -21.5132 -1.95266 22.1715 -21.3557 
6.35985 22.1715 -20.5219 14.6724 22.1715 -19.4753 22.9849 22.1715 -19.606 
31.2974 22.1715 -20.9881 39.6099 22.1715 -20.6615 47.9224 22.1715 -18.7177 
-26.8902 30.484 -19.1707 -18.5777 30.484 -20.8389 -10.2652 30.484 -21.7934 
-1.95266 30.484 -21.5087 6.35985 30.484 -20.8983 14.6724 30.484 -18.2445 
22.9849 30.484 -17.2596 -10.2652 38.7966 -18.028 -1.95266 38.7966 -18.7691 
6.35985 38.7966 -18.1033 -26.8902 -36.0161 -10.4046 -18.5777 -29.9719 -16.0469 
-18.5777 -36.0161 -13.4334 -10.2652 -34.0463 -16.0469 -10.2652 -36.0161 -15.1318 
-1.95266 -33.6297 -16.0469 -1.95266 -36.0161 -14.9868 6.35985 -31.6493 -16.0469 
6.35985 -36.0161 -14.1778 14.6724 -30.9146 -16.0469 14.6724 -36.0161 -13.3682 
22.9849 -31.0115 -16.0469 22.9849 -36.0161 -12.1028 31.2974 -30.6445 -16.0469 
31.2974 -36.0161 -9.27788 39.6099 -28.2165 -16.0469 -35.2027 -27.7036 -10.7239 
-21.2536 -27.7036 -16.0469 -26.8902 -19.3931 -16.0469 -26.8902 -27.7036 -14.221 
40.7136 -27.7036 -16.0469 47.9224 -24.1643 -16.0469 47.9224 -27.7036 -10.1637 
-43.5152 -19.391 -9.42045 -26.8915 -19.391 -16.0469 -35.2027 -19.391 -13.2199 
54.9605 -19.391 -16.0469 56.2349 -18.2929 -16.0469 56.2349 -19.391 -14.3139 
-43.5152 -11.0785 -11.0567 -32.5141 -11.0785 -16.0469 -35.2027 -5.99939 -16.0469 
-35.2027 -11.0785 -15.2463 60.7819 -11.0785 -16.0469 -36.2901 -2.76601 -16.0469 
-43.5152 -2.76601 -12.5339 63.3864 -2.76601 -16.0469 64.5475 -2.76601 -13.4386 
-38.8589 5.5465 -16.0469 -43.5152 5.5465 -13.816 63.4454 5.5465 -16.0469 
64.5475 5.5465 -13.5114 -51.8278 13.859 -8.10792 -40.4559 13.859 -16.0469 
-43.5152 13.859 -14.5648 60.2741 13.859 -16.0469 56.2349 19.0282 -16.0469 
-41.5034 22.1715 -16.0469 -43.5152 22.1715 -14.8395 -35.2027 30.1955 -16.0469 
31.2974 29.4959 -16.0469 39.6099 28.0239 -16.0469 52.1714 22.1715 -16.0469 
47.9224 24.9071 -16.0469 56.2349 22.1715 -9.61866 -43.5152 30.484 -9.90644 
-34.9234 30.484 -16.0469 -35.2027 30.484 -15.9068 -26.8902 35.3328 -16.0469 
-18.5777 38.5322 -16.0469 14.6724 35.9123 -16.0469 28.5737 30.484 -16.0469 
22.9849 32.6639 -16.0469 31.2974 30.484 -15.2288 39.6099 30.484 -13.2096 
-26.8902 38.7966 -9.99911 -17.8185 38.7966 -16.0469 -18.5777 38.7966 -15.5287 
-10.2652 40.71 -16.0469 -1.95266 41.5281 -16.0469 11.6032 38.7966 -16.0469 
6.35985 41.1617 -16.0469 14.6724 38.7966 -14.3938 22.9849 38.7966 -10.2168 
-26.8902 -38.6379 -7.73437 -18.5777 -41.4341 -7.73437 -10.2652 -42.4153 -7.73437 
-10.2652 -44.3286 -0.00717566 -1.95266 -42.2647 -7.73437 6.35985 -41.7129 -7.73437 
14.6724 -40.7939 -7.73437 22.9849 -39.2934 -7.73437 31.2974 -36.8476 -7.73437 
-31.0647 -36.0161 -7.73437 -35.2027 -32.2243 -7.73437 -35.2027 -36.0161 -4.0357 
33.2811 -36.0161 -7.73437 39.6099 -33.3499 -7.73437 47.9224 -28.7851 -7.73437 
-39.4791 -27.7036 -7.73437 -43.5152 -22.7375 -7.73437 -43.5152 -27.7036 -4.09202 
49.4721 -27.7036 -7.73437 47.9224 -27.7036 -0.128487 56.2349 -22.2152 -7.73437 
-45.7404 -19.391 -7.73437 -51.8278 -19.391 -0.960252 58.9618 -19.391 -7.73437 
-48.0562 -11.0785 -7.73437 -51.8278 -11.0785 -4.17389 63.9205 -11.0785 -7.73437 
64.5475 -9.02324 -7.73437 -49.9309 -2.76601 -7.73437 -51.8278 -2.76601 -5.86873 
66.2672 -2.76601 -7.73437 64.5475 -2.76601 -2.96667 -51.3984 5.5465 -7.73437 
-51.8278 9.72375 -7.73437 -51.8278 5.5465 -7.28355 66.4371 5.5465 -7.73437 
64.5475 10.4794 -7.73437 64.5475 5.5465 -2.58402 -52.2292 13.859 -7.73437 
-51.8278 17.2546 -7.73437 63.1288 13.859 -7.73437 -51.1913 22.1715 -7.73437 
-51.8278 22.1715 -6.89456 47.9224 29.3099 -7.73437 57.1276 22.1715 -7.73437 
56.2349 22.9441 -7.73437 56.2349 22.1715 -4.37893 -45.4825 30.484 -7.73437 
-43.5152 32.2901 -7.73437 -35.2027 36.8466 -7.73437 31.2974 37.0766 -7.73437 
45.8526 30.484 -7.73437 39.6099 33.7286 -7.73437 -29.391 38.7966 -7.73437 
-26.8902 39.5596 -7.73437 -26.8902 38.7966 0.37169 -18.5777 41.2708 -7.73437 
-10.2652 43.0793 -7.73437 -1.95266 44.5504 -7.73437 6.35985 44.7544 -7.73437 
14.6724 43.2247 -7.73437 27.1993 38.7966 -7.73437 22.9849 40.3815 -7.73437 
-10.2652 -44.4539 0.578141 -35.2027 -38.5705 0.578141 -26.8902 -41.7982 0.578141 
-11.9407 -44.3286 0.578141 -18.5777 -43.8192 0.578141 -4.81287 -44.3286 0.578141 
-10.2652 -44.3286 1.44161 -1.95266 -44.2627 0.578141 6.35985 -43.6123 0.578141 
14.6724 -42.5513 0.578141 22.9849 -40.5825 0.578141 31.2974 -37.4752 0.578141 
-39.1312 -36.0161 0.578141 -43.5152 -31.9342 0.578141 34.339 -36.0161 0.578141 
31.2974 -36.0161 4.12891 39.6099 -33.2215 0.578141 -47.5118 -27.7036 0.578141 
-51.8278 -21.3209 0.578141 47.7691 -27.7036 0.578141 47.9224 -27.5806 0.578141 
56.2349 -19.8023 0.578141 -52.8508 -19.391 0.578141 56.598 -19.391 0.578141 
56.2349 -19.391 1.15615 -55.3751 -11.0785 0.578141 61.4884 -11.0785 0.578141 
56.2349 -11.0785 6.41458 -56.8417 -2.76601 0.578141 63.0862 -2.76601 0.578141 
56.2349 -2.76601 8.62071 -57.8063 5.5465 0.578141 -60.1403 5.5465 8.59815 
63.1615 5.5465 0.578141 56.2349 5.5465 8.39004 -58.1112 13.859 0.578141 
60.0553 13.859 0.578141 56.2349 20.2082 0.578141 56.2349 13.859 4.51586 
-55.5485 22.1715 0.578141 -51.8278 27.5267 0.578141 54.6355 22.1715 0.578141 
47.9224 28.0397 0.578141 47.9224 22.1715 5.66248 -48.5119 30.484 0.578141 
-43.5152 33.8205 0.578141 -35.2027 37.1959 0.578141 -26.8902 38.7774 0.578141 
31.2974 37.5271 0.578141 44.5031 30.484 0.578141 39.6099 33.1666 0.578141 
39.6099 30.484 3.82698 -26.7427 38.7966 0.578141 -18.5777 39.8894 0.578141 
-18.5777 38.7966 3.18483 -10.2652 41.4461 0.578141 -10.2652 38.7966 6.35602 
-1.95266 42.907 0.578141 -1.95266 38.7966 7.69043 6.35985 43.4923 0.578141 
6.35985 38.7966 7.28571 14.6724 42.7979 0.578141 14.6724 38.7966 6.49386 
28.0919 38.7966 0.578141 22.9849 40.7178 0.578141 22.9849 38.7966 3.53225 
-35.2027 -38.2171 8.89066 -26.8902 -40.7921 8.89066 -18.5777 -42.3859 8.89066 
-10.2652 -43.1572 8.89066 -1.95266 -42.7305 8.89066 6.35985 -41.3695 8.89066 
14.6724 -39.6633 8.89066 22.9849 -37.4316 8.89066 -39.0889 -36.0161 8.89066 
-43.5152 -33.0564 8.89066 -35.2027 -36.0161 13.173 -26.8902 -36.0161 16.0343 
-1.95266 -36.0161 16.916 6.35985 -36.0161 14.6637 14.6724 -36.0161 12.9744 
26.3573 -36.0161 8.89066 22.9849 -36.0161 10.5638 31.2974 -33.5538 8.89066 
39.6099 -28.1192 8.89066 -49.5766 -27.7036 8.89066 -51.8278 -24.7728 8.89066 
22.9849 -27.7036 16.4052 31.2974 -27.7036 13.9383 40.146 -27.7036 8.89066 
39.6099 -27.7036 9.26069 47.9224 -20.268 8.89066 -55.2163 -19.391 8.89066 
31.2974 -19.391 16.5554 39.6099 -19.391 13.7575 48.9091 -19.391 8.89066 
47.9224 -19.391 9.45203 -58.3917 -11.0785 8.89066 39.6099 -11.0785 15.6796 
53.3089 -11.0785 8.89066 47.9224 -11.0785 12.3998 -59.7375 -2.76601 8.89066 
-60.1403 4.30848 8.89066 14.6724 -2.76601 16.7482 22.9849 -2.76601 16.9314 
39.6099 -2.76601 16.2869 55.8565 -2.76601 8.89066 47.9224 -2.76601 13.6146 
-60.2103 5.5465 8.89066 -60.1403 6.5094 8.89066 -60.1403 5.5465 9.31057 
22.9849 5.5465 16.7247 31.2974 5.5465 16.5859 39.6099 5.5465 15.4624 
55.4777 5.5465 8.89066 47.9224 5.5465 13.0704 -59.5655 13.859 8.89066 
14.6724 13.859 16.8683 22.9849 13.859 15.4834 31.2974 13.859 14.801 
39.6099 13.859 13.2589 50.4756 13.859 8.89066 47.9224 16.9686 8.89066 
47.9224 13.859 10.4034 -55.917 22.1715 8.89066 -51.8278 27.0285 8.89066 
-51.8278 22.1715 16.9806 6.35985 22.1715 16.2639 14.6724 22.1715 14.7166 
22.9849 22.1715 13.6257 31.2974 22.1715 12.3281 43.4592 22.1715 8.89066 
39.6099 25.2541 8.89066 39.6099 22.1715 10.8681 -46.4632 30.484 8.89066 
-43.5152 32.0276 8.89066 -43.5152 30.484 12.2333 -35.2027 35.2753 8.89066 
-35.2027 30.484 15.1075 -26.8902 35.5223 8.89066 -26.8902 30.484 15.4507 
-18.5777 36.1762 8.89066 -18.5777 30.484 15.3795 -10.2652 37.42 8.89066 
-10.2652 30.484 15.6676 -1.95266 37.89 8.89066 -1.95266 30.484 14.9263 
6.35985 37.1516 8.89066 6.35985 30.484 13.3214 14.6724 35.9946 8.89066 
14.6724 30.484 12.0624 22.9849 33.5427 8.89066 22.9849 30.484 10.7473 
31.8365 30.484 8.89066 31.2974 30.8113 8.89066 31.2974 30.484 9.1389 
[...]
POINT_DATA 508
SCALARS ImageScalars float
LOOKUP_TABLE default
0 0 0 0 0 0 0 0 0 
0 0 0 0 0 0 0 0 0 
0 0 0 0 0 0 0 0 0 
0 0 0 0 0 0 0 0 0 
0 0 0 0 0 0 0 0 0 
0 0 0 0 0 0 0 0 0 
0 0 0 0 0 0 0 0 0 
0 0 0 0 0 0 0 0 0 
0 0 0 0 0 0 0 0 0 
0 0 0 0 0 0 0 0 0 
0 0 0 0 0 0 0 0 0 
0 0 0 0 0 0 0 0 0 
0 0 0 0 0 0 0 0 0 
0 0 0 0 0 0 0 0 0 
0 0 0 0 0 0 0 0 0 
0 0 0 0 0 0 0 0 0 
0 0 0 0 0 0 0 0 0 
0 0 0 0 0 0 0 0 0 
0 0 0 0 0 0 0 0 0 
0 0 0 0 0 0 0 0 0 
0 0 0 0 0 0 0 0 0 
0 0 0 0 0 0 0 0 0 
0 0 0 0 0 0 0 0 0 
0 0 0 0 0 0 0 0 0 
0 0 0 0 0 0 0 0 0 
0 0 0 0 0 0 0 0 0 
0 0 0 0 0 0 0 0 0 
0 0 0 0 0 0 0 0 0 
0 0 0 0 0 0 0 0 0 
0 0 0 0 0 0 0 0 0 
0 0 0 0 0 0 0 0 0 
0 0 0 0 0 0 0 0 0 
0 0 0 0 0 0 0 0 0 
0 0 0 0 0 0 0 0 0 
0 0 0 0 0 0 0 0 0 
0 0 0 0 0 0 0 0 0 
0 0 0 0 0 0 0 0 0 
0 0 0 0 0 0 0 0 0 
0 0 0 0 0 0 0 0 0 
0 0 0 0 0 0 0 0 0 
0 0 0 0 0 0 0 0 0 
0 0 0 0 0 0 0 0 0 
0 0 0 0 0 0 0 0 0 
0 0 0 0 0 0 0 0 0 
0 0 0 0 0 0 0 0 0 
0 0 0 0 0 0 0 0 0 
0 0 0 0 0 0 0 0 0 
0 0 0 0 0 0 0 0 0 
0 0 0 0 0 0 0 0 0 
0 0 0 0 0 0 0 0 0 
0 0 0 0 0 0 0 0 0 
0 0 0 0 0 0 0 0 0 
0 0 0 0 0 0 0 0 0 
0 0 0 0 0 0 0 0 0 
0 0 0 0 0 0 0 0 0 
0 0 0 0 0 0 0 0 0 
0 0 0 0 
NORMALS Normals float
0.0774213 0.0114422 0.996933 -0.0983282 -0.08583 0.991446 -0.0382377 -0.195168 0.980024 
0.227181 0.231205 0.946009 0.0693904 0.233472 0.969884 -0.0557061 0.231879 0.971148 
-0.0457326 0.228503 0.972468 0.0335018 0.277225 0.960221 0.0425626 0.382374 0.923027 
-0.0687207 0.501891 0.862197 -0.257195 0.632101 0.730958 0.263525 0.179748 0.947758 
0.199265 0.151133 0.968221 0.067695 0.121984 0.990221 -0.0557876 0.104885 0.992918 
-0.0252938 0.143652 0.989305 0.0964235 0.0661814 0.993138 0.139972 0.123433 0.982432 
0.0497909 0.24522 0.968188 -0.0579937 0.342756 0.937633 -0.290177 0.474963 0.830787 
0.244193 0.180942 0.952696 0.168476 0.207341 0.963652 0.0222136 0.146132 0.989016 
-0.0316712 0.00677945 0.999475 -0.0916668 0.0921071 0.991521 0.0253561 -0.0912017 0.99551 
0.243304 0.00226243 0.969947 0.170604 0.111445 0.979017 -0.00199465 0.16963 0.985506 
-0.169395 0.225587 0.959383 -0.48684 0.347902 0.801218 0.35696 0.13269 0.924648 
0.281949 0.126037 0.951115 0.163532 0.0786929 0.983394 -0.138307 0.0636456 0.988342 
-0.115414 0.0174795 0.993164 -0.143375 -0.0191689 0.989483 0.0273667 0.039485 0.998845 
0.325354 0.0556286 0.943955 0.227541 0.0499407 0.972487 0.0802769 0.0623141 0.994823 
0.0825237 0.0942599 0.992121 -0.0885633 0.0560129 0.994494 -0.0861241 0.128238 0.987997 
-0.454467 0.146452 0.878642 0.3293 0.10178 0.938724 0.183154 0.0800818 0.979817 
0.107744 -0.034328 0.993586 -0.0428616 -0.0677603 0.996781 -0.110466 0.0427946 0.992958 
-0.0658844 -0.023819 0.997543 0.0933362 0.155729 0.98338 0.254773 0.0787455 0.963789 
0.105268 0.0192817 0.994257 0.199019 0.0393587 0.979205 -0.169153 -0.0987257 0.980633 
-0.122789 -0.121865 0.984922 -0.448878 -0.133526 0.883561 0.324852 0.0550955 0.944159 
0.145876 0.0468712 0.988192 0.0133981 0.0320056 0.999398 -0.0543255 -0.000743581 0.998523 
-0.0747313 0.0676005 0.99491 -0.0120418 0.0496747 0.998693 0.118928 0.01831 0.992734 
0.211676 -0.0942412 0.972786 -0.0331821 -0.193536 0.980532 0.164287 -0.127703 0.978111 
-0.0411551 -0.196453 0.979649 -0.0386049 -0.197344 0.979574 -0.239221 -0.291499 0.926176 
-0.518477 -0.428713 0.739856 0.311372 -0.10916 0.943998 0.170964 -0.0726856 0.982593 
0.0570971 -0.00796582 0.998337 -0.00622155 0.0578988 0.998303 -0.0579103 0.0874093 0.994488 
-0.113605 0.0790955 0.990373 -0.0530385 -0.0884038 0.994672 0.0811587 -0.257955 0.962742 
0.0641959 -0.408624 0.910443 -0.108527 -0.517891 0.848535 -0.330133 -0.599831 0.728845 
0.274876 -0.360643 0.89128 0.143311 -0.276271 0.950335 0.0413859 -0.168964 0.984753 
-0.0496048 -0.118245 0.991745 -0.184203 -0.126191 0.974754 -0.217981 -0.260174 0.940635 
-0.145703 -0.400984 0.904424 0.154278 -0.673161 0.723224 0.00109852 -0.595525 0.803336 
-0.216832 -0.551484 0.805512 0.394931 0.589924 0.704286 0.226479 0.302988 0.925692 
0.222311 0.564816 0.794708 0.0751864 0.453741 0.887956 0.0748959 0.547488 0.833455 
-0.0494341 0.434577 0.899277 -0.0458468 0.544137 0.837743 -0.057947 0.359458 0.93136 
-0.076474 0.564827 0.821658 -0.0116102 0.383194 0.923595 -0.09466 0.631332 0.769714 
-0.0122264 0.511057 0.85946 -0.151801 0.769958 0.619775 -0.11033 0.613487 0.78196 
-0.301638 0.883312 0.358852 -0.268771 0.650881 0.710011 0.445044 0.393038 0.804647 
0.25301 0.241327 0.936882 0.263536 0.179768 0.947751 0.321828 0.285131 0.902844 
-0.287181 0.653315 0.700505 -0.392353 0.658598 0.642112 -0.523302 0.813866 0.25254 
0.533718 0.279748 0.798052 0.263539 0.179753 0.947753 0.370778 0.223698 0.901378 
-0.538073 0.610263 0.581426 -0.57541 0.585344 0.571205 -0.617898 0.641701 0.454336 
0.510246 0.165473 0.843959 0.304764 0.185091 0.93427 0.349841 0.152552 0.924305 
0.340628 0.185666 0.921684 -0.745129 0.356195 0.563833 0.375234 0.131746 0.91752 
0.515844 0.139311 0.845279 -0.795743 0.133763 0.590678 -0.911547 0.144655 0.384912 
0.405533 0.103287 0.908226 0.509832 0.104072 0.853956 -0.807092 -0.157728 0.568968 
-0.908701 -0.175685 0.378678 0.712598 -0.00609789 0.701546 0.4358 0.0655114 0.897656 
0.51169 0.0502615 0.857699 -0.739068 -0.414363 0.531115 -0.572791 -0.599506 0.55902 
0.48052 -0.163522 0.861604 0.549408 -0.187675 0.814204 0.432661 -0.462171 0.774082 
-0.150113 -0.60936 0.778554 -0.194717 -0.691318 0.695819 -0.450084 -0.67721 0.582075 
-0.362442 -0.712089 0.601303 -0.658951 -0.733115 0.1683 0.612458 -0.596799 0.518388 
0.432302 -0.471319 0.768748 0.437054 -0.478408 0.761649 0.320236 -0.635883 0.702212 
0.225165 -0.77547 0.58987 -0.28775 -0.463281 0.838195 -0.167943 -0.556699 0.813561 
-0.190847 -0.483978 0.854016 -0.187576 -0.64754 0.738585 -0.280993 -0.806633 0.519987 
0.270323 -0.933074 0.237271 0.220413 -0.782126 0.582835 0.226798 -0.805277 0.547805 
0.169703 -0.790188 0.588901 0.0285213 -0.780343 0.624701 -0.283971 -0.572488 0.769167 
-0.203115 -0.688152 0.696556 -0.326834 -0.630099 0.704382 -0.339789 -0.829255 0.443712 
0.387811 0.722092 0.572874 0.192772 0.843088 0.502037 0.0420621 0.89699 0.440045 
0.0265497 0.997906 0.0589745 -0.0386206 0.89882 0.436614 -0.0817639 0.891562 0.445457 
-0.138494 0.886455 0.441608 -0.225329 0.892467 0.390806 -0.328741 0.901908 0.280164 
0.452809 0.627332 0.633577 0.488614 0.531473 0.691949 0.506704 0.722304 0.470668 
-0.348886 0.901074 0.257574 -0.410747 0.890785 0.194394 -0.53859 0.832972 0.1268 
0.537812 0.453162 0.710917 0.566785 0.364499 0.738848 0.63638 0.535112 0.555586 
-0.56979 0.81313 0.118989 -0.590256 0.761725 -0.267157 -0.714512 0.696844 0.0622955 
0.592985 0.290639 0.750932 0.807546 0.347944 0.476239 -0.771496 0.634763 0.0432493 
0.638972 0.169463 0.750332 0.758195 0.187246 0.624563 -0.927199 0.372467 0.0396233 
-0.949554 0.312729 0.0234245 0.664336 0.127923 0.736405 0.722334 0.12104 0.68087 
-0.989869 0.139189 -0.0280471 -0.955201 0.105765 -0.276415 0.702351 0.0916146 0.70591 
0.713409 0.0421389 0.699479 0.716266 0.089132 0.692112 -0.98478 -0.172503 -0.021243 
-0.949255 -0.314504 -0.00164578 -0.944636 -0.149213 -0.292231 0.721432 -0.0117439 0.692386 
0.744387 -0.129792 0.655013 -0.90385 -0.427829 0.00419266 0.755282 -0.293719 0.5859 
0.77628 -0.309917 0.548945 -0.515736 -0.843886 0.147896 -0.692019 -0.71938 0.0600152 
-0.673509 -0.736201 0.0662768 -0.693313 -0.709958 -0.123601 0.656333 -0.614286 0.438041 
0.603748 -0.686362 0.405458 0.388322 -0.88683 0.250475 -0.3698 -0.873909 0.315485 
-0.480608 -0.859508 0.17396 -0.39142 -0.891879 0.226588 0.284284 -0.948591 0.139129 
0.249652 -0.96154 0.114517 0.165979 -0.962699 -0.213685 0.203334 -0.977203 0.0610656 
0.194921 -0.980396 0.0287987 0.099238 -0.993631 0.0533774 -0.0790389 -0.991672 0.101683 
-0.260831 -0.934743 0.241294 -0.368244 -0.879436 0.301642 -0.350689 -0.884701 0.307117 
0.025702 0.999089 0.0340587 0.475232 0.856993 0.199294 0.30112 0.949243 0.0909044 
0.052132 0.998034 0.0347978 0.158098 0.98666 0.0388093 -0.0240578 0.999388 0.0253992 
0.0252243 0.999682 -0.000770586 -0.0503016 0.998518 0.0207714 -0.101321 0.994709 -0.0169782 
-0.176157 0.982886 -0.0538831 -0.284647 0.954383 -0.0901671 -0.39761 0.906726 -0.140548 
0.565611 0.790944 0.233436 0.661759 0.681569 0.312311 -0.427253 0.890165 -0.158309 
-0.405749 0.859267 -0.311494 -0.489074 0.846398 -0.210753 0.723513 0.579762 0.374705 
0.816588 0.406277 0.410028 -0.588094 0.74986 -0.303078 -0.590523 0.746979 -0.305459 
-0.731172 0.582351 -0.355323 0.833268 0.357387 0.421827 -0.737437 0.572943 -0.357664 
-0.730661 0.568296 -0.378383 0.849442 0.212061 0.483197 -0.83263 0.31167 -0.45781 
-0.679848 0.257842 -0.68653 0.871769 0.125431 0.473588 -0.874633 0.0769887 -0.478634 
-0.599872 0.0783779 -0.796248 0.897777 0.0644095 0.435714 0.998795 -0.00549341 0.0487629 
-0.863668 -0.135881 -0.4854 -0.563177 -0.174742 -0.807649 0.924221 -0.144586 0.353427 
-0.779512 -0.373328 -0.502978 -0.683107 -0.570357 -0.456132 -0.662445 -0.371169 -0.650692 
0.880248 -0.408832 0.240872 0.768657 -0.615314 0.174799 -0.638862 -0.629721 -0.441934 
-0.554652 -0.737409 -0.385472 -0.508383 -0.543598 -0.667868 0.637958 -0.766026 0.0788277 
0.469598 -0.882597 -0.022391 0.268483 -0.960336 -0.0753094 0.163428 -0.961248 -0.222023 
-0.384109 -0.882812 -0.270376 -0.525097 -0.772113 -0.357931 -0.47219 -0.812267 -0.34243 
-0.445466 -0.721731 -0.529777 0.163265 -0.961035 -0.223062 0.148458 -0.949038 -0.278005 
0.136722 -0.928027 -0.346516 0.169006 -0.93693 -0.30594 0.118033 -0.872136 -0.474812 
0.115457 -0.928665 -0.352493 0.0193232 -0.798215 -0.602062 -0.00444693 -0.925539 -0.378625 
-0.0420226 -0.741724 -0.669388 -0.158348 -0.931457 -0.327586 -0.139043 -0.753972 -0.642022 
-0.345175 -0.899185 -0.268925 -0.301834 -0.916329 -0.263129 -0.290332 -0.840299 -0.457826 
0.383816 0.887938 -0.253478 0.25268 0.912236 -0.322456 0.126896 0.931529 -0.340809 
0.0189182 0.942445 -0.333825 -0.0968582 0.921079 -0.377137 -0.168452 0.864156 -0.474193 
-0.210168 0.825845 -0.523268 -0.29062 0.796071 -0.530858 0.469591 0.856827 -0.212912 
0.57898 0.805814 -0.12428 0.33165 0.831212 -0.446202 0.18236 0.74164 -0.645535 
-0.180085 0.521311 -0.834149 -0.189953 0.578677 -0.793127 -0.192786 0.655079 -0.730551 
-0.335606 0.773459 -0.537707 -0.285384 0.744454 -0.603609 -0.401432 0.715436 -0.571843 
-0.49853 0.597293 -0.628259 0.73988 0.671212 -0.0452907 0.815296 0.578922 -0.0118679 
-0.181183 0.353601 -0.917681 -0.349973 0.459229 -0.816473 -0.503139 0.590384 -0.631108 
-0.496063 0.582834 -0.643604 -0.500403 0.455897 -0.73604 0.896675 0.440995 0.0386814 
-0.239042 0.183205 -0.95357 -0.375433 0.305744 -0.874969 -0.51216 0.438321 -0.738625 
-0.487118 0.429757 -0.760279 0.962008 0.257032 0.0920568 -0.277142 0.140493 -0.950502 
-0.586631 0.217022 -0.780235 -0.441471 0.213796 -0.871433 0.989615 0.1062 0.09687 
0.998934 0.00882994 0.0453065 -0.129381 -0.0587244 -0.989855 0.0413093 -0.0557028 -0.997592 
-0.210901 -0.0122688 -0.97743 -0.586184 0.0753617 -0.806665 -0.40366 0.0334383 -0.914298 
0.999303 -0.00816454 0.0364238 0.999147 -0.0326178 0.0253222 0.999807 -0.0122941 0.0152988 
-0.0565998 -0.0865989 -0.994634 -0.0719669 -0.158394 -0.98475 -0.197151 -0.180319 -0.963648 
-0.53771 -0.173137 -0.825162 -0.378957 -0.172494 -0.909196 0.972021 -0.226069 -0.063781 
-0.206454 -0.169419 -0.963677 -0.120109 -0.184451 -0.975475 -0.129075 -0.245131 -0.960859 
-0.245242 -0.266034 -0.932246 -0.466644 -0.338246 -0.81721 -0.442379 -0.385298 -0.809844 
-0.402327 -0.328191 -0.854648 0.831025 -0.532517 -0.160698 0.674072 -0.6989 -0.239093 
0.579114 -0.577012 -0.57592 -0.212145 -0.314065 -0.925396 -0.150677 -0.261055 -0.953492 
-0.138234 -0.272108 -0.952286 -0.163747 -0.325052 -0.931412 -0.405219 -0.462084 -0.788845 
-0.358063 -0.516254 -0.777993 -0.303956 -0.417012 -0.85657 0.462064 -0.840427 -0.28316 
0.375575 -0.876733 -0.300472 0.346188 -0.83869 -0.420419 0.187014 -0.893836 -0.407534 
0.0878417 -0.750435 -0.655081 0.0464339 -0.873073 -0.485374 0.0102916 -0.696466 -0.717516 
0.0937503 -0.843333 -0.52915 0.0112359 -0.623372 -0.781844 0.0846186 -0.817507 -0.569668 
-0.0256042 -0.542173 -0.839876 -0.00483404 -0.756885 -0.653531 -0.123346 -0.499059 -0.857745 
-0.0670478 -0.658666 -0.749442 -0.147757 -0.433828 -0.888797 -0.131346 -0.59516 -0.792801 
-0.144301 -0.399523 -0.905295 -0.192505 -0.537763 -0.820824 -0.157313 -0.44314 -0.882542 
-0.307667 -0.539068 -0.784058 -0.302466 -0.5415 -0.784406 -0.298383 -0.529604 -0.794032 
0.0953697 0.67495 -0.731674 -0.0506282 0.630994 -0.774134 0.439921 0.719087 -0.537944 
0.245387 0.730508 -0.637294 0.135498 0.686188 -0.714693 0.16078 0.696713 -0.6991 
0.0893257 0.635956 -0.766539 -0.155426 0.530126 -0.833552 -0.0583105 0.577605 -0.814232 
-0.184105 0.484531 -0.855181 -0.152879 0.322194 -0.934248 -0.105146 0.292879 -0.950351 
0.505716 0.686508 -0.522454 0.722515 0.557597 -0.408727 0.41941 0.671138 -0.611285 
0.165136 0.594148 -0.787222 0.0107524 0.488637 -0.872421 -0.0654703 0.347772 -0.935291 
-0.145937 0.231203 -0.961898 -0.196088 0.180627 -0.963807 -0.136042 0.22212 -0.965482 
-0.115244 0.29093 -0.949778 -0.101697 0.279142 -0.95485 -0.155726 0.216346 -0.963817 
0.777267 0.496536 -0.386405 0.701874 0.49665 -0.510599 0.27036 0.383992 -0.882868 
-0.184873 0.220185 -0.957779 -0.247453 0.137529 -0.959089 -0.219482 0.113559 -0.968985 
-0.101149 0.128326 -0.98656 -0.0522104 0.0673549 -0.996362 -0.191939 0.132738 -0.972389 
-0.130439 0.0691141 -0.989044 -0.154527 0.0930204 -0.9836 0.882132 0.278392 -0.379923 
0.601943 0.190617 -0.775455 -0.25067 0.123309 -0.960187 -0.198753 0.115197 -0.973256 
-0.18651 0.0318397 -0.981937 -0.139426 -0.0742056 -0.987448 -0.163565 -0.115926 -0.979698 
0.00290477 -0.0599991 -0.998194 -0.0613879 -0.0683339 -0.995772 -0.141735 0.0671035 -0.987628 
-0.115495 0.0513446 -0.99198 0.923087 0.0736376 -0.377475 0.522215 -0.00662073 -0.852788 
-0.128207 -0.145314 -0.981044 -0.163573 -0.0104876 -0.986476 -0.328643 -0.0192316 -0.944259 
-0.166321 -0.0729224 -0.983372 -0.32158 -0.132608 -0.937551 -0.108672 -0.020955 -0.993857 
-7.62881e-05 -0.0538584 -0.998549 -0.0711903 -0.0438945 -0.996496 -0.0450182 -0.0816768 -0.995642 
-0.0355706 -0.0523708 -0.997994 0.881335 -0.113331 -0.458698 0.491601 -0.116741 -0.86296 
-0.16402 -0.206878 -0.96452 -0.0921661 -0.214635 -0.972336 -0.114494 -0.198276 -0.973436 
-0.336603 -0.0876535 -0.937558 -0.19418 -0.0189029 -0.980784 -0.0764129 -0.0326488 -0.996542 
-0.152705 -0.0852919 -0.984584 -0.0922327 0.00821161 -0.995704 0.755258 -0.335558 -0.563016 
0.574929 -0.569784 -0.5872 0.534347 -0.294427 -0.792329 0.116316 -0.296509 -0.94792 
-0.0784676 -0.239032 -0.967836 -0.169083 -0.253557 -0.952428 -0.114044 -0.218844 -0.969072 
-0.0562271 -0.256442 -0.964923 -0.152608 -0.162544 -0.974828 -0.211749 -0.16057 -0.964043 
-0.221585 -0.245533 -0.943723 -0.230282 -0.111344 -0.966733 0.5635 -0.574892 -0.593267 
0.273881 -0.673838 -0.686244 0.221006 -0.504813 -0.834458 0.0470238 -0.672977 -0.738167 
0.0119359 -0.445778 -0.895064 -0.0268682 -0.598813 -0.800438 -0.122743 -0.398622 -0.908864 
-0.0302448 -0.502611 -0.863984 -0.0858908 -0.334048 -0.938634 -0.0552008 -0.435724 -0.898386 
-0.0815543 -0.312062 -0.946555 -0.194345 -0.317581 -0.928101 -0.15737 -0.376158 -0.913093 
-0.165814 -0.321651 -0.932226 0.074159 0.378629 -0.922573 -0.0865116 0.296907 -0.950979 
0.188157 0.358614 -0.914326 0.252799 0.313754 -0.915233 0.0551183 0.317424 -0.946681 
-0.131802 0.25022 -0.959176 -0.100894 0.266123 -0.958644 -0.199137 0.115591 -0.973131 
0.372176 0.141303 -0.917343 0.22539 0.129438 -0.965632 0.0247529 0.0723674 -0.997071 
-0.110777 0.0530564 -0.992428 -0.217599 0.0608608 -0.974139 -0.133538 -0.133564 -0.982002 
-0.206398 0.0409704 -0.97761 0.383658 -0.0289711 -0.923021 0.176177 -0.0567698 -0.98272 
-0.0204862 -0.0926368 -0.995489 -0.12861 -0.144924 -0.981049 -0.161456 -0.198614 -0.966687 
-0.137898 -0.126341 -0.982355 0.218664 -0.1338 -0.966583 0.135422 -0.210454 -0.968179 
0.155798 -0.14707 -0.976779 -0.142146 -0.201397 -0.969141 -0.0641799 -0.207379 -0.976153 
-0.0419283 -0.172119 -0.984183 
