# vtk DataFile Version 4.2
vtk output
ASCII
DATASET POLYDATA
POINTS 506 float
-21.5394 -38.7991 -17.3169 -13.5775 -38.7991 -17.3546 -37.4631 -30.8372 -17.8008 
-29.5013 -30.8372 -21.7145 -21.5394 -30.8372 -21.8955 -13.5775 -30.8372 -21.3071 
-5.6156 -30.8372 -19.8205 2.34629 -30.8372 -17.9257 10.3082 -30.8372 -16.243 
-45.425 -22.8753 -16.9019 -37.4631 -22.8753 -22.0157 -29.5013 -22.8753 -23.3911 
-21.5394 -22.8753 -23.1145 -13.5775 -22.8753 -22.5095 -5.6156 -22.8753 -20.8198 
2.34629 -22.8753 -19.6539 10.3082 -22.8753 -18.9353 18.2701 -22.8753 -18.6916 
26.2319 -22.8753 -16.9358 -45.425 -14.9134 -19.674 -37.4631 -14.9134 -23.1256 
-29.5013 -14.9134 -23.6992 -21.5394 -14.9134 -22.9859 -13.5775 -14.9134 -21.6001 
-5.6156 -14.9134 -21.0068 2.34629 -14.9134 -20.5571 10.3082 -14.9134 -19.9624 
18.2701 -14.9134 -19.9753 26.2319 -14.9134 -19.3965 34.1938 -14.9134 -17.1286 
-45.425 -6.95153 -20.9488 -37.4631 -6.95153 -23.5475 -29.5013 -6.95153 -23.7344 
-21.5394 -6.95153 -22.4938 -13.5775 -6.95153 -20.7383 -5.6156 -6.95153 -21.1776 
2.34629 -6.95153 -19.469 10.3082 -6.95153 -19.5926 18.2701 -6.95153 -20.1675 
26.2319 -6.95153 -19.4351 34.1938 -6.95153 -18.1659 -45.425 1.01035 -20.7879 
-37.4631 1.01035 -23.1026 -29.5013 1.01035 -23.1048 -21.5394 1.01035 -21.6864 
-13.5775 1.01035 -20.1394 -5.6156 1.01035 -21.2544 2.34629 1.01035 -18.6634 
10.3082 1.01035 -21.1642 18.2701 1.01035 -20.1018 26.2319 1.01035 -18.664 
34.1938 1.01035 -17.3889 -45.425 8.97224 -19.4543 -37.4631 8.97224 -22.3142 
-29.5013 8.97224 -22.5968 -21.5394 8.97224 -21.5757 -13.5775 8.97224 -20.3778 
-5.6156 8.97224 -21.3688 2.34629 8.97224 -22.0346 10.3082 8.97224 -21.6778 
18.2701 8.97224 -18.7047 26.2319 8.97224 -17.0244 -45.425 16.9341 -16.6936 
-37.4631 16.9341 -21.5782 -29.5013 16.9341 -22.5171 -21.5394 16.9341 -22.0282 
-13.5775 16.9341 -21.1469 -5.6156 16.9341 -20.5591 2.34629 16.9341 -20.2865 
10.3082 16.9341 -18.8788 18.2701 16.9341 -17.2278 26.2319 16.9341 -15.997 
-37.4631 24.896 -18.8127 -29.5013 24.896 -21.1214 -21.5394 24.896 -21.9322 
-13.5775 24.896 -21.213 -5.6156 24.896 -20.5829 2.34629 24.896 -19.565 
10.3082 24.896 -18.17 18.2701 24.896 -16.6472 -29.5013 32.8579 -18.5484 
-21.5394 32.8579 -20.5964 -13.5775 32.8579 -20.2072 -5.6156 32.8579 -19.8111 
2.34629 32.8579 -18.9773 10.3082 32.8579 -16.9203 -21.5394 40.8198 -16.245 
-13.5775 40.8198 -17.8872 -5.6156 40.8198 -17.8383 2.34629 40.8198 -16.3358 
-21.5394 -40.2629 -15.8004 -13.5775 -40.376 -15.8004 -37.4631 -33.2574 -15.8004 
-27.3453 -38.7991 -15.8004 -29.5013 -38.189 -15.8004 -29.5013 -38.7991 -14.3884 
-5.99534 -38.7991 -15.8004 -5.6156 -38.6725 -15.8004 -5.6156 -38.7991 -15.7108 
2.34629 -34.9114 -15.8004 2.34629 -38.7991 -13.088 10.3082 -31.5792 -15.8004 
10.3082 -38.7991 -9.67527 -40.0933 -30.8372 -15.8004 -45.425 -24.3701 -15.8004 
12.4719 -30.8372 -15.8004 18.2701 -28.5352 -15.8004 18.2701 -30.8372 -14.1433 
26.2319 -24.7197 -15.8004 26.2319 -30.8372 -10.0591 -46.3179 -22.8753 -15.8004 
29.2526 -22.8753 -15.8004 34.1938 -18.2579 -15.8004 34.1938 -22.8753 -13.3425 
-49.3495 -14.9134 -15.8004 37.0649 -14.9134 -15.8004 42.1557 -14.9134 -12.9538 
-51.0615 -6.95153 -15.8004 40.0152 -6.95153 -15.8004 42.1557 -6.95153 -14.8302 
-51.1006 1.01035 -15.8004 38.4929 1.01035 -15.8004 34.1938 8.12958 -15.8004 
42.1557 1.01035 -14.3093 -49.4264 8.97224 -15.8004 33.1251 8.97224 -15.8004 
34.1938 8.97224 -15.6171 42.1557 8.97224 -12.27 -46.1121 16.9341 -15.8004 
-45.425 18.3924 -15.8004 27.0385 16.9341 -15.8004 26.2319 18.5219 -15.8004 
34.1938 16.9341 -14.0173 42.1557 16.9341 -9.48823 -41.652 24.896 -15.8004 
-37.4631 30.6253 -15.8004 22.5493 24.896 -15.8004 18.2701 28.5797 -15.8004 
26.2319 24.896 -14.9108 34.1938 24.896 -11.3047 -35.1267 32.8579 -15.8004 
-37.4631 32.8579 -11.8779 -29.5013 37.4805 -15.8004 14.3206 32.8579 -15.8004 
10.3082 35.6727 -15.8004 18.2701 32.8579 -14.5849 26.2319 32.8579 -10.7961 
-22.7204 40.8198 -15.8004 -29.5013 40.8198 -10.4742 -21.5394 41.308 -15.8004 
-13.5775 43.9051 -15.8004 -5.6156 44.0239 -15.8004 4.00565 40.8198 -15.8004 
2.34629 41.7251 -15.8004 10.3082 40.8198 -12.9876 18.2701 40.8198 -8.34418 
-13.5775 48.7817 -9.24484 -5.6156 48.7817 -9.95563 2.34629 48.7817 -8.34086 
-29.5013 -41.1448 -7.83856 -21.5394 -43.7115 -7.83856 -13.5775 -44.8933 -7.83856 
-5.6156 -44.7661 -7.83856 -5.6156 -46.761 -0.630406 2.34629 -43.5132 -7.83856 
2.34629 -46.761 0.0617144 10.3082 -40.284 -7.83856 -33.9011 -38.7991 -7.83856 
-37.4631 -36.5295 -7.83856 13.3752 -38.7991 -7.83856 18.2701 -36.3027 -7.83856 
18.2701 -38.7991 -2.89123 26.2319 -32.3888 -7.83856 -43.593 -30.8372 -7.83856 
-45.425 -28.4162 -7.83856 29.0484 -30.8372 -7.83856 34.1938 -27.7306 -7.83856 
34.1938 -30.8372 -1.48255 -48.7603 -22.8753 -7.83856 41.5521 -22.8753 -7.83856 
42.1557 -22.2883 -7.83856 42.1557 -22.8753 -6.98923 -51.9039 -14.9134 -7.83856 
47.6244 -14.9134 -7.83856 50.1176 -14.9134 -3.39789 -53.3477 -6.95153 -7.83856 
50.0902 -6.95153 -7.83856 50.1176 -6.95153 -7.79036 -53.3482 1.01035 -7.83856 
49.7372 1.01035 -7.83856 50.1176 1.01035 -7.19533 -51.8848 8.97224 -7.83856 
47.3501 8.97224 -7.83856 50.1176 8.97224 -3.0393 -48.8324 16.9341 -7.83856 
-45.425 23.3884 -7.83856 43.924 16.9341 -7.83856 42.1557 19.7553 -7.83856 
-44.5439 24.896 -7.83856 38.3683 24.896 -7.83856 34.1938 29.5556 -7.83856 
42.1557 24.896 -2.07915 -38.8963 32.8579 -7.83856 -37.4631 34.574 -7.83856 
-37.4631 32.8579 -1.2583 30.7462 32.8579 -7.83856 26.2319 36.009 -7.83856 
34.1938 32.8579 -2.07425 -30.9882 40.8198 -7.83856 -29.5013 41.9774 -7.83856 
-29.5013 40.8198 -1.70224 -21.5394 46.9632 -7.83856 10.3082 45.0911 -7.83856 
18.8872 40.8198 -7.83856 18.2701 41.1639 -7.83856 -15.9204 48.7817 -7.83856 
-13.5775 49.469 -7.83856 -5.6156 49.879 -7.83856 2.98606 48.7817 -7.83856 
2.34629 49.049 -7.83856 -5.6156 -46.9472 0.123321 2.34629 -46.7806 0.123321 
-29.5013 -39.9817 0.123321 -21.5394 -43.3929 0.123321 -6.88046 -46.761 0.123321 
-13.5775 -45.7411 0.123321 -5.6156 -46.761 1.32837 2.41968 -46.761 0.123321 
2.34629 -46.761 0.333746 10.3082 -44.089 0.123321 18.2701 -40.1041 0.123321 
-31.8132 -38.7991 0.123321 -37.4631 -35.1579 0.123321 -29.5013 -38.7991 2.46206 
20.7097 -38.7991 0.123321 26.2319 -35.7009 0.123321 34.1938 -31.5403 0.123321 
-42.1138 -30.8372 0.123321 -45.425 -26.4616 0.123321 -37.4631 -30.8372 6.12656 
35.3767 -30.8372 0.123321 42.1557 -26.2653 0.123321 -47.5309 -22.8753 0.123321 
-45.425 -22.8753 3.66491 45.7973 -22.8753 0.123321 50.1176 -17.4115 0.123321 
-50.7061 -14.9134 0.123321 51.5769 -14.9134 0.123321 -52.0362 -6.95153 0.123321 
53.6068 -6.95153 0.123321 -51.6821 1.01035 0.123321 53.3173 1.01035 0.123321 
-49.681 8.97224 0.123321 -45.425 8.97224 5.67398 51.4959 8.97224 0.123321 
50.1176 12.4851 0.123321 -46.1442 16.9341 0.123321 -45.425 18.496 0.123321 
-45.425 16.9341 1.13082 48.1654 16.9341 0.123321 -42.0623 24.896 0.123321 
-37.4631 32.347 0.123321 -37.4631 24.896 5.37198 43.1723 24.896 0.123321 
42.1557 26.1545 0.123321 -37.1403 32.8579 0.123321 -29.5013 40.4403 0.123321 
26.2319 38.7976 0.123321 35.2094 32.8579 0.123321 34.1938 33.6872 0.123321 
-29.0568 40.8198 0.123321 -21.5394 46.5057 0.123321 10.3082 46.3781 0.123321 
21.9348 40.8198 0.123321 18.2701 42.6536 0.123321 18.2701 40.8198 7.87134 
-14.7851 48.7817 0.123321 -13.5775 49.1341 0.123321 -13.5775 48.7817 0.823325 
-5.6156 49.9383 0.123321 -5.6156 48.7817 2.68294 3.2091 48.7817 0.123321 
2.34629 49.0562 0.123321 2.34629 48.7817 0.793532 -21.5394 -39.8927 8.08521 
-13.5775 -43.2551 8.08521 -5.6156 -45.5058 8.08521 2.34629 -45.9948 8.08521 
10.3082 -44.3546 8.08521 18.2701 -41.2826 8.08521 -23.6922 -38.7991 8.08521 
-29.5013 -35.1607 8.08521 -21.5394 -38.7991 9.43589 -13.5775 -38.7991 13.264 
23.5815 -38.7991 8.08521 26.2319 -37.5479 8.08521 34.1938 -33.4571 8.08521 
-35.4824 -30.8372 8.08521 -37.4631 -28.8585 8.08521 -29.5013 -30.8372 11.6793 
-21.5394 -30.8372 14.8442 38.3831 -30.8372 8.08521 42.1557 -28.0646 8.08521 
-42.0435 -22.8753 8.08521 -45.425 -15.5035 8.08521 -37.4631 -22.8753 11.8543 
-29.5013 -22.8753 15.2037 47.2166 -22.8753 8.08521 50.1176 -18.6873 8.08521 
-45.658 -14.9134 8.08521 -45.425 -14.9134 8.30323 -37.4631 -14.9134 13.6201 
-29.5013 -14.9134 15.9204 52.1581 -14.9134 8.08521 50.1176 -14.9134 15.3734 
-46.6945 -6.95153 8.08521 -45.425 -6.95153 9.21205 -37.4631 -6.95153 13.9001 
53.9349 -6.95153 8.08521 -45.5269 1.01035 8.08521 -45.425 1.36862 8.08521 
-45.425 1.01035 8.17124 -37.4631 1.01035 12.8917 -29.5013 1.01035 15.2204 
53.5944 1.01035 8.08521 -42.6147 8.97224 8.08521 -37.4631 8.97224 11.1423 
-29.5013 8.97224 14.2388 51.7304 8.97224 8.08521 50.1176 13.319 8.08521 
50.1176 8.97224 13.754 -38.8665 16.9341 8.08521 -37.4631 19.6227 8.08521 
-37.4631 16.9341 9.13347 -29.5013 16.9341 13.3985 48.5857 16.9341 8.08521 
-34.5885 24.896 8.08521 -29.5013 24.896 11.5883 -21.5394 24.896 15.2775 
43.1509 24.896 8.08521 42.1557 26.0477 8.08521 42.1557 24.896 10.9129 
-30.1349 32.8579 8.08521 -29.5013 33.5963 8.08521 -29.5013 32.8579 8.6188 
-21.5394 32.8579 12.8264 -13.5775 32.8579 15.1518 18.2701 40.7689 8.08521 
26.2319 37.6498 8.08521 34.4185 32.8579 8.08521 34.1938 33.028 8.08521 
34.1938 32.8579 8.4856 -21.6292 40.8198 8.08521 -21.5394 40.8938 8.08521 
-21.5394 40.8198 8.14558 -13.5775 44.1504 8.08521 -13.5775 40.8198 10.9999 
-5.6156 45.7124 8.08521 -5.6156 40.8198 12.6145 2.34629 45.3341 8.08521 
2.34629 40.8198 13.0373 18.1257 40.8198 8.08521 10.3082 43.5659 8.08521 
10.3082 40.8198 12.0607 -5.6156 -39.7838 16.0471 2.34629 -40.4595 16.0471 
10.3082 -41.2163 16.0471 18.2701 -39.1074 16.0471 -7.54582 -38.7991 16.0471 
-13.5775 -32.9289 16.0471 -5.6156 -38.7991 16.7355 2.34629 -38.7991 17.4358 
10.3082 -38.7991 18.65 19.299 -38.7991 16.0471 18.2701 -38.7991 16.5021 
26.2319 -36.8411 16.0471 34.1938 -33.1552 16.0471 -16.9251 -30.8372 16.0471 
-21.5394 -26.3393 16.0471 -13.5775 -30.8372 16.8414 -5.6156 -30.8372 18.8207 
2.34629 -30.8372 20.6904 10.3082 -30.8372 22.3808 18.2701 -30.8372 23.7453 
[...]
POINT_DATA 506
SCALARS ImageScalars float
LOOKUP_TABLE default
0 0 0 0 0 0 0 0 0 
0 0 0 0 0 0 0 0 0 
0 0 0 0 0 0 0 0 0 
0 0 0 0 0 0 0 0 0 
0 0 0 0 0 0 0 0 0 
0 0 0 0 0 0 0 0 0 
0 0 0 0 0 0 0 0 0 
0 0 0 0 0 0 0 0 0 
0 0 0 0 0 0 0 0 0 
0 0 0 0 0 0 0 0 0 
0 0 0 0 0 0 0 0 0 
0 0 0 0 0 0 0 0 0 
0 0 0 0 0 0 0 0 0 
0 0 0 0 0 0 0 0 0 
0 0 0 0 0 0 0 0 0 
0 0 0 0 0 0 0 0 0 
0 0 0 0 0 0 0 0 0 
0 0 0 0 0 0 0 0 0 
0 0 0 0 0 0 0 0 0 
0 0 0 0 0 0 0 0 0 
0 0 0 0 0 0 0 0 0 
0 0 0 0 0 0 0 0 0 
0 0 0 0 0 0 0 0 0 
0 0 0 0 0 0 0 0 0 
0 0 0 0 0 0 0 0 0 
0 0 0 0 0 0 0 0 0 
0 0 0 0 0 0 0 0 0 
0 0 0 0 0 0 0 0 0 
0 0 0 0 0 0 0 0 0 
0 0 0 0 0 0 0 0 0 
0 0 0 0 0 0 0 0 0 
0 0 0 0 0 0 0 0 0 
0 0 0 0 0 0 0 0 0 
0 0 0 0 0 0 0 0 0 
0 0 0 0 0 0 0 0 0 
0 0 0 0 0 0 0 0 0 
0 0 0 0 0 0 0 0 0 
0 0 0 0 0 0 0 0 0 
0 0 0 0 0 0 0 0 0 
0 0 0 0 0 0 0 0 0 
0 0 0 0 0 0 0 0 0 
0 0 0 0 0 0 0 0 0 
0 0 0 0 0 0 0 0 0 
0 0 0 0 0 0 0 0 0 
0 0 0 0 0 0 0 0 0 
0 0 0 0 0 0 0 0 0 
0 0 0 0 0 0 0 0 0 
0 0 0 0 0 0 0 0 0 
0 0 0 0 0 0 0 0 0 
0 0 0 0 0 0 0 0 0 
0 0 0 0 0 0 0 0 0 
0 0 0 0 0 0 0 0 0 
0 0 0 0 0 0 0 0 0 
0 0 0 0 0 0 0 0 0 
0 0 0 0 0 0 0 0 0 
0 0 0 0 0 0 0 0 0 
0 0 
NORMALS Normals float
0.0947841 0.723407 0.683885 -0.0856379 0.647028 0.757642 0.522502 0.553461 0.648593 
0.202091 0.370649 0.90652 -0.0242096 0.295524 0.955028 -0.128403 0.274698 0.952919 
-0.203075 0.273426 0.940212 -0.209151 0.338098 0.917576 -0.192839 0.439643 0.877227 
0.726249 0.412337 0.550037 0.320492 0.300549 0.898307 0.0573023 0.116183 0.991573 
-0.0541324 0.0706008 0.996035 -0.142861 0.0137828 0.989647 -0.175983 0.0700069 0.981901 
-0.115291 0.157312 0.980796 -0.0596313 0.221426 0.973352 -0.116268 0.308838 0.943981 
-0.273265 0.423921 0.863491 0.613774 0.197019 0.764503 0.206841 0.0833188 0.97482 
-0.00704871 0.0208301 0.999758 -0.136886 -0.0401565 0.989773 -0.124397 -0.111101 0.985993 
-0.0650625 0.0222611 0.997633 -0.0657576 -0.00451098 0.997825 -0.0363159 0.0391758 0.998572 
-0.0330028 0.0852177 0.995816 -0.166847 0.140956 0.975855 -0.341051 0.238424 0.909306 
0.514233 0.0598579 0.855559 0.156101 9.94118e-05 0.987741 -0.0653927 -0.0371523 0.997168 
-0.186584 -0.0774211 0.979384 -0.0820452 -0.0920399 0.99237 -0.0684181 0.0154578 0.997537 
-0.107265 -0.120462 0.986906 0.0432882 0.0665633 0.996843 -0.00999002 0.00848424 0.999914 
-0.119556 -0.0450821 0.991803 -0.261238 0.0132595 0.965183 0.481833 -0.0866301 0.87197 
0.132744 -0.0804364 0.987881 -0.0827544 -0.0710883 0.994031 -0.189298 -0.0580872 0.9802 
-0.0228273 -0.0227063 0.999482 -0.0742907 0.0121678 0.997162 -0.0177062 0.179021 0.983686 
0.0771008 0.132517 0.988178 -0.153355 -0.0845448 0.984548 -0.161836 -0.144059 0.976246 
-0.248276 -0.150811 0.956878 0.573477 -0.196607 0.79528 0.166237 -0.0864976 0.982285 
-0.0449496 -0.0366932 0.998315 -0.137764 0.0218567 0.990224 -0.0150194 0.063585 0.997863 
0.10399 -0.0444744 0.993584 0.0212182 0.0772565 0.996785 -0.20219 -0.143547 0.968769 
-0.270659 -0.186643 0.944409 -0.180213 -0.165267 0.969644 0.733475 -0.373995 0.567576 
0.249683 -0.208527 0.945608 0.0202867 -0.0959118 0.995183 -0.0847481 0.0222615 0.996154 
-0.0918221 0.0514563 0.994445 -0.0536166 -0.0472475 0.997443 -0.0998966 -0.153942 0.983017 
-0.197715 -0.201445 0.959338 -0.167653 -0.118798 0.978662 -0.198314 -0.122929 0.972399 
0.458568 -0.381469 0.802619 0.173416 -0.226781 0.958383 0.00655442 -0.0816769 0.996637 
-0.0829844 -0.056972 0.994921 -0.101953 -0.0455008 0.993748 -0.15373 -0.0825443 0.984659 
-0.181471 -0.111538 0.97705 -0.197194 -0.149893 0.968838 0.317563 -0.430263 0.845002 
0.0935918 -0.277588 0.95613 -0.0456946 -0.199634 0.978804 -0.0774591 -0.168489 0.982655 
-0.168063 -0.187913 0.9677 -0.263929 -0.254283 0.93042 0.252549 -0.61544 0.746627 
0.0715298 -0.452495 0.888893 -0.09178 -0.413214 0.905997 -0.242982 -0.452023 0.858274 
0.111558 0.78578 0.608362 -0.0713995 0.715842 0.694602 0.551543 0.641401 0.533296 
0.258172 0.799282 0.542674 0.315181 0.791946 0.522956 0.334912 0.836258 0.434174 
-0.197163 0.613074 0.765027 -0.202802 0.605604 0.76949 -0.202132 0.61252 0.764174 
-0.233 0.472168 0.850158 -0.260735 0.64131 0.721622 -0.204756 0.46209 0.862872 
-0.343263 0.74187 0.576021 0.610352 0.590224 0.528304 0.742512 0.461315 0.485659 
-0.210022 0.484968 0.848939 -0.214895 0.526223 0.822745 -0.271866 0.627139 0.729921 
-0.295206 0.491365 0.819399 -0.391285 0.750417 0.5327 0.764688 0.424546 0.484782 
-0.32927 0.457675 0.825902 -0.377472 0.348601 0.8579 -0.430075 0.550291 0.715692 
0.808192 0.252398 0.532092 -0.412363 0.262715 0.872317 -0.570571 0.333321 0.750563 
0.846385 0.0935921 0.524283 -0.433205 0.0461141 0.900115 -0.504794 0.0628476 0.860949 
0.846782 -0.0862026 0.524909 -0.367655 -0.142903 0.918917 -0.25486 -0.192117 0.947701 
-0.485343 -0.136231 0.863645 0.792439 -0.263207 0.550238 -0.244257 -0.193254 0.950259 
-0.255869 -0.197129 0.946399 -0.525865 -0.249087 0.813278 0.765861 -0.387891 0.512833 
0.757278 -0.407314 0.510515 -0.212399 -0.12957 0.968555 -0.212153 -0.149493 0.965735 
-0.341644 -0.226379 0.912158 -0.624041 -0.370998 0.687702 0.671859 -0.461277 0.579508 
0.601363 -0.557769 0.572063 -0.229289 -0.208886 0.95068 -0.250285 -0.235519 0.939089 
-0.270725 -0.26808 0.924576 -0.498652 -0.430691 0.752231 0.548423 -0.577462 0.604789 
0.715571 -0.635643 0.289684 0.414075 -0.608691 0.676784 -0.28917 -0.300372 0.908932 
-0.292067 -0.361767 0.885337 -0.327518 -0.362632 0.872485 -0.443536 -0.560105 0.699685 
0.289891 -0.635358 0.71574 0.563537 -0.784093 0.260047 0.263189 -0.631851 0.729037 
0.113977 -0.597643 0.793619 -0.0776526 -0.573503 0.815515 -0.266309 -0.47387 0.839361 
-0.250161 -0.488796 0.835762 -0.367296 -0.630609 0.683685 -0.454257 -0.787197 0.417099 
0.164633 -0.939639 0.299959 -0.0332384 -0.925051 0.378385 -0.270281 -0.913672 0.303566 
0.401094 0.912099 0.0848536 0.214874 0.963639 0.158835 0.0638778 0.959657 0.27382 
-0.0711047 0.909203 0.410236 0.053827 0.995536 0.0775246 -0.240229 0.83007 0.503264 
-0.151502 0.981076 0.120569 -0.358817 0.781191 0.510873 0.507133 0.858355 0.0777322 
0.60127 0.795825 0.0716663 -0.379231 0.775878 0.50418 -0.39664 0.771199 0.497925 
-0.430477 0.831533 0.35106 -0.410804 0.789587 0.455843 0.750874 0.656744 0.069826 
0.807652 0.586201 0.0637654 -0.429433 0.779395 0.456214 -0.468856 0.739448 0.483106 
-0.471167 0.82164 0.320795 0.889067 0.453699 0.0609718 -0.587388 0.635536 0.501068 
-0.601943 0.616912 0.507034 -0.603898 0.641351 0.47326 0.962995 0.261914 0.063571 
-0.74471 0.373681 0.552965 -0.844921 0.389721 0.366369 0.99543 0.0855819 0.0423617 
-0.819375 0.0970895 0.564976 -0.821082 0.0971716 0.562479 0.995772 -0.0883684 0.0250645 
-0.804938 -0.125699 0.579892 -0.829615 -0.125457 0.544059 0.96304 -0.26926 0.00728016 
-0.738299 -0.271207 0.617544 -0.887377 -0.293668 0.355417 0.913777 -0.406202 -0.00330123 
0.867752 -0.496997 0.000860256 -0.692679 -0.392886 0.604845 -0.670888 -0.429062 0.604826 
0.853838 -0.520518 0.0046171 -0.62519 -0.502177 0.597457 -0.571768 -0.588933 0.571173 
-0.763374 -0.578453 0.287494 0.779524 -0.624497 0.0484301 0.758103 -0.649047 0.0633862 
0.771197 -0.553598 -0.314299 -0.538538 -0.633724 0.55531 -0.487244 -0.691795 0.532928 
-0.627473 -0.746313 0.222024 0.615218 -0.782051 0.0995158 0.587003 -0.802568 0.106359 
0.622906 -0.746136 -0.235094 0.399141 -0.892024 0.212084 -0.422879 -0.82801 0.368203 
-0.458848 -0.796955 0.392838 -0.45578 -0.800791 0.388585 0.23403 -0.94849 0.213534 
0.166951 -0.961755 0.21715 -0.026689 -0.966845 0.253967 -0.283936 -0.917999 0.276871 
-0.268585 -0.923862 0.272655 0.06377 0.996879 0.0465456 -0.150867 0.981499 0.117894 
0.422797 0.862976 -0.276613 0.328003 0.923157 -0.20049 0.0863289 0.995886 0.0275448 
0.207456 0.97486 -0.0813005 0.0769709 0.997013 -0.0064373 -0.153096 0.981065 0.11863 
-0.149166 0.98294 0.1076 -0.382071 0.899281 0.212874 -0.442239 0.858831 0.258523 
0.467675 0.837906 -0.281414 0.598795 0.743004 -0.298981 0.431728 0.824238 -0.366391 
-0.443794 0.854921 0.268622 -0.447116 0.849024 0.281505 -0.46885 0.834808 0.288574 
0.704642 0.642657 -0.300786 0.798972 0.518744 -0.304219 0.574565 0.601535 -0.555006 
-0.487629 0.824283 0.287706 -0.62144 0.7371 0.265512 0.84956 0.431329 -0.303651 
0.78307 0.415069 -0.463163 -0.704972 0.665425 0.245405 -0.8476 0.475987 0.234544 
0.918354 0.242275 -0.312935 -0.891036 0.393191 0.226837 0.940644 0.0550779 -0.334896 
-0.971936 0.106893 0.209558 0.913604 -0.126221 -0.386518 -0.970675 -0.12391 0.206002 
0.85621 -0.294243 -0.424647 0.686523 -0.27978 -0.671126 -0.930383 -0.299256 0.211737 
-0.904671 -0.371228 0.209188 0.813004 -0.371773 -0.448117 0.807874 -0.38617 -0.44521 
0.794149 -0.367047 -0.484359 -0.864317 -0.457524 0.208873 0.775826 -0.45517 -0.436938 
0.755622 -0.522944 -0.394418 0.658088 -0.398093 -0.639094 -0.785216 -0.590757 0.185586 
-0.766738 -0.616941 0.177472 0.753183 -0.530067 -0.389545 0.619858 -0.708042 -0.338309 
-0.468784 -0.881227 0.0606692 -0.638934 -0.760478 0.115917 -0.621836 -0.775247 0.110964 
0.61301 -0.716105 -0.333785 0.430823 -0.862633 -0.265057 -0.366903 -0.925536 -0.0936207 
-0.434829 -0.900491 0.00629511 -0.42284 -0.905868 -0.0246944 -0.336644 -0.885141 -0.321242 
0.215332 -0.943355 -0.252413 0.184749 -0.949805 -0.252464 0.185733 -0.939798 -0.286849 
-0.00539004 -0.979002 -0.20378 0.0089059 -0.942049 -0.335356 -0.227142 -0.955451 -0.188469 
-0.210008 -0.957801 -0.19625 -0.205489 -0.952065 -0.226596 0.393845 0.746352 -0.536511 
0.301125 0.827218 -0.474378 0.159378 0.923777 -0.348189 -0.0716233 0.9566 -0.282466 
-0.279336 0.947836 -0.153554 -0.395251 0.917132 -0.0514275 0.410475 0.726083 -0.551647 
0.431996 0.647946 -0.627332 0.394485 0.702388 -0.592481 0.319454 0.584862 -0.745578 
-0.419287 0.907713 0.0159937 -0.430023 0.901074 0.0560811 -0.487817 0.868515 0.0878426 
0.517739 0.563907 -0.643393 0.548307 0.527403 -0.649003 0.394516 0.498571 -0.771871 
0.27784 0.347799 -0.895456 -0.576336 0.815055 0.0593482 -0.669036 0.742704 0.027945 
0.633236 0.387074 -0.670213 0.698954 0.210939 -0.683351 0.496009 0.340118 -0.798933 
0.25928 0.220996 -0.940178 -0.778055 0.627718 -0.0245039 -0.872874 0.48275 -0.0710088 
0.702504 0.19737 -0.683764 0.695224 0.196272 -0.691478 0.406718 0.10311 -0.907716 
0.198376 0.0516069 -0.978766 -0.929543 0.356583 -0.093798 -0.85332 0.312155 -0.417617 
0.702219 -0.00322407 -0.711954 0.659006 -0.00924805 -0.752081 0.377945 -0.0438656 -0.924788 
-0.98866 0.0887712 -0.121123 0.644974 -0.155457 -0.748225 0.642558 -0.160575 -0.749223 
0.641512 -0.155552 -0.751177 0.381 -0.159109 -0.910782 0.200201 -0.118121 -0.972608 
-0.984276 -0.130108 -0.119471 0.576838 -0.25436 -0.776247 0.442459 -0.209158 -0.872057 
0.29076 -0.104345 -0.951089 -0.949899 -0.290497 -0.11534 -0.91542 -0.38663 -0.111905 
-0.893307 -0.285869 -0.346817 0.573746 -0.28893 -0.766377 0.57219 -0.307524 -0.760281 
0.538051 -0.270575 -0.798304 0.39181 -0.148841 -0.907927 -0.874479 -0.471482 -0.113976 
0.587154 -0.330235 -0.73905 0.498094 -0.249495 -0.830455 0.313986 -0.187391 -0.930751 
-0.765893 -0.627321 -0.140988 -0.745779 -0.649601 -0.147758 -0.731816 -0.633874 -0.250296 
0.56703 -0.443551 -0.694074 0.558254 -0.458228 -0.69165 0.552253 -0.439422 -0.708467 
0.353441 -0.384117 -0.852956 0.21569 -0.337624 -0.916236 -0.333561 -0.883138 -0.329856 
-0.407723 -0.870792 -0.274743 -0.574066 -0.792941 -0.204187 -0.569804 -0.795675 -0.205487 
-0.567573 -0.793427 -0.219852 0.424056 -0.587432 -0.689275 0.421901 -0.589196 -0.689092 
0.421965 -0.586611 -0.691255 0.20815 -0.691418 -0.69182 0.222396 -0.577323 -0.785645 
0.0535424 -0.761971 -0.645394 0.105163 -0.594762 -0.796994 -0.121019 -0.816603 -0.56437 
-0.0163695 -0.681688 -0.731459 -0.33217 -0.883027 -0.331552 -0.247187 -0.860595 -0.445281 
-0.1638 -0.791927 -0.588236 0.210763 0.532735 -0.819617 0.0733135 0.640278 -0.764636 
-0.0880642 0.797257 -0.597181 -0.249901 0.867005 -0.431105 0.239769 0.491763 -0.837066 
0.256497 0.316771 -0.913162 0.216138 0.479129 -0.850717 0.107501 0.54926 -0.828708 
-0.0184367 0.67331 -0.739131 -0.255167 0.872466 -0.416766 -0.241571 0.857296 -0.454629 
-0.307341 0.887919 -0.342259 -0.512844 0.806928 -0.293017 0.246178 0.281297 -0.927506 
0.206944 0.206682 -0.956272 0.233471 0.24213 -0.941735 0.231282 0.173716 -0.957252 
0.210238 0.231534 -0.949838 0.178735 0.294584 -0.938762 0.038696 0.376581 -0.925575 
-0.187498 0.543221 -0.818385 -0.584636 0.751531 -0.305617 -0.485021 0.702339 -0.521032 
-0.67739 0.641779 -0.35953 0.206144 0.164695 -0.964562 0.160255 0.115187 -0.980332 
0.174764 0.0225344 -0.984352 0.246131 0.0257098 -0.968895 0.281748 0.100533 -0.954207 
-0.743882 0.537838 -0.3967 -0.628591 0.494218 -0.600518 0.184011 0.0418937 -0.982031 
0.174465 -0.00724992 -0.984637 0.0838321 -0.0175709 -0.996325 0.135687 -0.0146578 -0.990643 
0.304785 0.00154535 -0.95242 0.329808 0.00854983 -0.944009 -0.839102 0.305091 -0.450365 
-0.442951 0.170598 -0.880165 -0.845645 0.277493 -0.455941 0.166977 -0.0425542 -0.985042 
0.163346 -0.0489584 -0.985353 0.159438 -0.0422685 -0.986303 0.0919297 -0.0476256 -0.994626 
0.199008 0.0815576 -0.976598 0.251842 -0.00720205 -0.967742 0.281339 -0.104257 -0.953928 
0.163099 -0.087842 -0.982691 -0.373088 0.0114053 -0.927726 -0.862121 0.0785812 -0.500572 
-0.804344 0.0755705 -0.589339 0.199118 -0.0302414 -0.979509 0.199281 -0.0178016 -0.979781 
0.194119 0.0677739 -0.978634 0.105505 0.0464143 -0.993335 0.277451 -0.0226766 -0.960472 
0.211902 -0.0564425 -0.97566 -0.377984 -0.0159485 -0.925675 -0.868809 -0.117893 -0.480907 
-0.86021 -0.218433 -0.460788 -0.823465 -0.109713 -0.556658 0.273455 -0.00544814 -0.961869 
0.272574 0.00257652 -0.962131 0.256851 -0.0276833 -0.966054 0.169439 0.0361241 -0.984878 
0.170571 0.049549 -0.984099 0.186506 -0.0364868 -0.981776 -0.844165 -0.279115 -0.45769 
-0.44587 -0.183352 -0.876117 0.283987 -0.0587402 -0.957027 0.283855 -0.0758278 -0.955864 
0.278663 -0.0542025 -0.958858 0.211895 -0.0931438 -0.972844 0.199161 -0.108154 -0.97398 
0.180969 -0.0657798 -0.981286 0.156712 -0.0787929 -0.984496 0.132888 -0.140588 -0.98111 
-0.751849 -0.457278 -0.474995 -0.677117 -0.563666 -0.473067 -0.60578 -0.419123 -0.676289 
0.262226 -0.18219 -0.947652 0.204491 -0.265359 -0.942214 0.193033 -0.178396 -0.964839 
0.196201 -0.180351 -0.963835 0.19171 -0.189639 -0.962956 0.110795 -0.219337 -0.969338 
0.0253608 -0.308008 -0.951046 -0.111834 -0.417909 -0.901579 -0.597166 -0.630332 -0.496059 
-0.465159 -0.699482 -0.542543 -0.369318 -0.575117 -0.729962 0.19623 -0.324754 -0.925218 
0.176288 -0.360831 -0.915819 0.184607 -0.317028 -0.930276 0.0729529 -0.514673 -0.854277 
0.126944 -0.38384 -0.914632 -0.0521006 -0.618078 -0.784389 0.0119234 -0.472069 -0.881481 
-0.165837 -0.696288 -0.698342 -0.105793 -0.588175 -0.801785 -0.329982 -0.729525 -0.599088 
-0.301934 -0.73319 -0.609318 -0.288785 -0.7115 -0.640602 0.218646 0.155774 -0.96329 
0.0489011 0.333673 -0.94142 -0.134364 0.391589 -0.910277 -0.309912 0.309634 -0.898933 
0.227429 0.138225 -0.963935 0.221878 0.140798 -0.964855 0.0920908 0.111752 -0.98946 
-0.06753 0.165256 -0.983936 -0.320106 0.29827 -0.899204 -0.302233 0.288557 -0.90851 
0.235544 -0.00659148 -0.971841 0.164726 -0.0840381 -0.982753 0.194317 -0.0160683 -0.980807 
0.0835557 -0.0442779 -0.995519 0.00449145 -0.012914 -0.999907 -0.387038 0.15077 -0.909654 
-0.145001 0.0673967 -0.987133 0.160252 -0.0875867 -0.983183 0.0999263 -0.0802077 -0.991757 
0.0440962 -0.0291948 -0.998601 -0.318574 0.00509519 -0.947884 -0.113055 -0.00542641 -0.993574 
0.163508 -0.0252863 -0.986218 0.145945 -0.0127372 -0.989211 0.0796942 0.00474018 -0.996808 
-0.343787 -0.0140601 -0.938943 -0.105165 -0.0120383 -0.994382 0.170354 -0.0259881 -0.98504 
0.133574 -0.137802 -0.981412 0.159946 -0.0190228 -0.986942 0.0445876 -0.0455078 -0.997968 
-0.335106 -0.149334 -0.930271 -0.133396 -0.0868455 -0.98725 0.130725 -0.141808 -0.981224 
-0.0222769 -0.267645 -0.96326 0.009678 -0.207053 -0.978282 -0.243551 -0.276082 -0.929764 
-0.237695 -0.27968 -0.930204 -0.23596 -0.273274 -0.932547 
