# vtk DataFile Version 4.2
vtk output
ASCII
DATASET POLYDATA
POINTS 552 float
-15.7174 -50.0412 -14.4643 -7.37176 -50.0412 -14.6128 0.97385 -50.0412 -14.0144 
-32.4086 -41.6956 -14.9176 -24.063 -41.6956 -17.3459 -15.7174 -41.6956 -18.7083 
-7.37176 -41.6956 -17.652 0.97385 -41.6956 -17.4556 9.31946 -41.6956 -15.5468 
17.6651 -41.6956 -13.4572 -40.7542 -33.35 -15.1406 -32.4086 -33.35 -19.8397 
-24.063 -33.35 -19.3509 -15.7174 -33.35 -19.3046 -7.37176 -33.35 -18.8187 
0.97385 -33.35 -18.1098 9.31946 -33.35 -16.6428 17.6651 -33.35 -15.788 
26.0107 -33.35 -14.2769 34.3563 -33.35 -13.325 -40.7542 -25.0044 -18.804 
-32.4086 -25.0044 -20.2603 -24.063 -25.0044 -20.0254 -15.7174 -25.0044 -19.0868 
-7.37176 -25.0044 -17.6445 0.97385 -25.0044 -17.2252 9.31946 -25.0044 -17.0591 
17.6651 -25.0044 -16.8173 26.0107 -25.0044 -16.3939 34.3563 -25.0044 -17.0583 
42.7019 -25.0044 -15.7763 -49.0998 -16.6587 -15.6063 -40.7542 -16.6587 -19.5671 
-32.4086 -16.6587 -20.5636 -24.063 -16.6587 -20.1387 -15.7174 -16.6587 -18.3919 
-7.37176 -16.6587 -15.9752 0.97385 -16.6587 -16.2411 9.31946 -16.6587 -17.6882 
17.6651 -16.6587 -17.3245 26.0107 -16.6587 -17.9877 34.3563 -16.6587 -18.7163 
42.7019 -16.6587 -18.3461 51.0475 -16.6587 -15.6599 -49.0998 -8.31313 -17.437 
-40.7542 -8.31313 -20.2785 -32.4086 -8.31313 -20.5057 -24.063 -8.31313 -19.4071 
-15.7174 -8.31313 -17.8177 -7.37176 -8.31313 -18.5356 0.97385 -8.31313 -18.219 
9.31946 -8.31313 -19.6369 17.6651 -8.31313 -18.0336 26.0107 -8.31313 -19.147 
34.3563 -8.31313 -19.5752 42.7019 -8.31313 -19.386 51.0475 -8.31313 -17.1901 
-49.0998 0.0324821 -17.842 -40.7542 0.0324821 -20.2527 -32.4086 0.0324821 -20.4187 
-24.063 0.0324821 -19.216 -15.7174 0.0324821 -17.3573 -7.37176 0.0324821 -19.93 
0.97385 0.0324821 -15.1232 9.31946 0.0324821 -18.3715 17.6651 0.0324821 -17.8504 
26.0107 0.0324821 -19.0985 34.3563 0.0324821 -19.893 42.7019 0.0324821 -19.4175 
51.0475 0.0324821 -17.0845 -49.0998 8.37809 -16.8233 -40.7542 8.37809 -19.6077 
-32.4086 8.37809 -20.1464 -24.063 8.37809 -19.3329 -15.7174 8.37809 -18.0081 
-7.37176 8.37809 -18.7501 0.97385 8.37809 -20.2234 9.31946 8.37809 -19.978 
17.6651 8.37809 -18.3396 26.0107 8.37809 -19.2404 34.3563 8.37809 -19.7914 
42.7019 8.37809 -18.8684 51.0475 8.37809 -15.6816 -49.0998 16.7237 -14.3139 
-40.7542 16.7237 -18.4453 -32.4086 16.7237 -20.2369 -24.063 16.7237 -19.6253 
-15.7174 16.7237 -18.6294 -7.37176 16.7237 -17.6008 0.97385 16.7237 -17.2741 
9.31946 16.7237 -17.964 17.6651 16.7237 -18.8937 26.0107 16.7237 -19.5419 
34.3563 16.7237 -19.4231 42.7019 16.7237 -17.7354 51.0475 16.7237 -12.7687 
-40.7542 25.0693 -16.8263 -32.4086 25.0693 -18.69 -24.063 25.0693 -19.2751 
-15.7174 25.0693 -18.961 -7.37176 25.0693 -18.3293 0.97385 25.0693 -18.2566 
9.31946 25.0693 -18.4578 17.6651 25.0693 -19.1348 26.0107 25.0693 -19.5126 
34.3563 25.0693 -17.9137 42.7019 25.0693 -14.9217 -40.7542 33.4149 -12.9043 
-32.4086 33.4149 -16.5096 -24.063 33.4149 -17.8293 -15.7174 33.4149 -18.4473 
-7.37176 33.4149 -19.1499 0.97385 33.4149 -18.8485 9.31946 33.4149 -19.6156 
17.6651 33.4149 -18.7636 26.0107 33.4149 -17.6079 34.3563 33.4149 -15.3728 
-24.063 41.7605 -14.8368 -15.7174 41.7605 -16.2954 -7.37176 41.7605 -17.544 
0.97385 41.7605 -17.7026 9.31946 41.7605 -18.3725 17.6651 41.7605 -16.7276 
26.0107 41.7605 -14.1056 -7.37176 50.1062 -12.5616 0.97385 50.1062 -13.1694 
9.31946 50.1062 -12.722 -15.7174 -52.1408 -12.287 -7.37176 -53.347 -12.287 
0.97385 -52.5281 -12.287 -32.4086 -45.3315 -12.287 -22.3398 -50.0412 -12.287 
-24.063 -49.3745 -12.287 -24.063 -50.0412 -11.2605 6.78393 -50.0412 -12.287 
9.31946 -48.4414 -12.287 9.31946 -50.0412 -11.2362 17.6651 -44.259 -12.287 
17.6651 -50.0412 -6.87978 -36.9453 -41.6956 -12.287 -40.7542 -37.9498 -12.287 
20.7416 -41.6956 -12.287 26.0107 -37.3328 -12.287 26.0107 -41.6956 -9.55389 
34.3563 -34.9621 -12.287 34.3563 -41.6956 -4.36728 -43.9863 -33.35 -12.287 
37.0492 -33.35 -12.287 42.7019 -30.6303 -12.287 42.7019 -33.35 -9.55154 
-48.7833 -25.0044 -12.287 -49.0998 -24.3703 -12.287 -49.0998 -25.0044 -10.2934 
49.8214 -25.0044 -12.287 51.0475 -23.743 -12.287 51.0475 -25.0044 -11.1751 
-52.2424 -16.6587 -12.287 56.1659 -16.6587 -12.287 59.3931 -16.6587 -5.17293 
-54.4658 -8.31313 -12.287 58.7602 -8.31313 -12.287 59.3931 -8.31313 -11.0247 
-55.1797 0.0324821 -12.287 -57.4454 0.0324821 -5.22167 57.8204 0.0324821 -12.287 
59.3931 0.0324821 -8.74612 -54.386 8.37809 -12.287 54.9922 8.37809 -12.287 
-51.2644 16.7237 -12.287 -49.0998 21.5672 -12.287 51.4661 16.7237 -12.287 
51.0475 17.5202 -12.287 -47.3248 25.0693 -12.287 -49.0998 25.0693 -9.82775 
46.3353 25.0693 -12.287 42.7019 29.502 -12.287 -41.5464 33.4149 -12.287 
-40.7542 34.376 -12.287 -32.4086 40.9606 -12.287 39.1928 33.4149 -12.287 
34.3563 37.9789 -12.287 42.7019 33.4149 -7.64036 -40.7542 41.7605 -4.85817 
-31.2119 41.7605 -12.287 -32.4086 41.7605 -11.6816 -24.063 45.4688 -12.287 
-15.7174 47.639 -12.287 17.6651 47.9023 -12.287 29.382 41.7605 -12.287 
26.0107 44.2111 -12.287 34.3563 41.7605 -7.00239 -24.063 50.1062 -5.58607 
-8.44737 50.1062 -12.287 -15.7174 50.1062 -9.40425 -7.37176 50.3858 -12.287 
0.97385 50.9836 -12.287 10.9986 50.1062 -12.287 9.31946 50.5373 -12.287 
17.6651 50.1062 -8.99875 -24.063 -53.2313 -3.94137 -15.7174 -56.418 -3.94137 
-7.37176 -58.2694 -3.94137 0.97385 -58.2144 -3.94137 9.31946 -55.6585 -3.94137 
17.6651 -51.7059 -3.94137 -29.2318 -50.0412 -3.94137 -32.4086 -47.8238 -3.94137 
20.2118 -50.0412 -3.94137 26.0107 -46.3487 -3.94137 34.3563 -41.8858 -3.94137 
-38.7159 -41.6956 -3.94137 -40.7542 -39.3024 -3.94137 34.6704 -41.6956 -3.94137 
34.3563 -41.6956 -3.31033 42.7019 -36.9258 -3.94137 -45.1731 -33.35 -3.94137 
-49.0998 -26.4025 -3.94137 47.592 -33.35 -3.94137 51.0475 -30.1391 -3.94137 
-49.8666 -25.0044 -3.94137 -49.0998 -25.0044 -1.85845 55.4774 -25.0044 -3.94137 
59.3931 -17.4627 -3.94137 -53.6531 -16.6587 -3.94137 59.7449 -16.6587 -3.94137 
59.3931 -16.6587 -2.79944 -56.5034 -8.31313 -3.94137 -57.4454 -2.12174 -3.94137 
61.6586 -8.31313 -3.94137 -57.7705 0.0324821 -3.94137 -57.4454 5.40088 -3.94137 
-57.4454 0.0324821 -0.546094 60.8167 0.0324821 -3.94137 59.3931 5.94113 -3.94137 
59.3931 0.0324821 3.51628 -57.2652 8.37809 -3.94137 58.7736 8.37809 -3.94137 
-55.2171 16.7237 -3.94137 55.56 16.7237 -3.94137 51.0475 24.857 -3.94137 
-52.2391 25.0693 -3.94137 -49.0998 31.3934 -3.94137 50.9228 25.0693 -3.94137 
-47.9648 33.4149 -3.94137 44.6995 33.4149 -3.94137 42.7019 35.6352 -3.94137 
-41.2726 41.7605 -3.94137 -40.7542 42.2429 -3.94137 -32.4086 47.8615 -3.94137 
26.0107 48.8604 -3.94137 36.2882 41.7605 -3.94137 34.3563 43.3476 -3.94137 
-26.4038 50.1062 -3.94137 -24.063 50.8793 -3.94137 -15.7174 52.9738 -3.94137 
-7.37176 54.6133 -3.94137 0.97385 54.8557 -3.94137 9.31946 54.3574 -3.94137 
23.2451 50.1062 -3.94137 17.6651 52.339 -3.94137 -24.063 -51.2319 4.40424 
-15.7174 -55.1484 4.40424 -7.37176 -57.9903 4.40424 0.97385 -57.8852 4.40424 
9.31946 -55.8409 4.40424 17.6651 -51.6188 4.40424 -25.8838 -50.0412 4.40424 
-32.4086 -44.949 4.40424 -24.063 -50.0412 6.29517 -15.7174 -50.0412 11.7481 
19.8185 -50.0412 4.40424 17.6651 -50.0412 7.18565 26.0107 -44.3421 4.40424 
-35.6108 -41.6956 4.40424 -40.7542 -35.1118 4.40424 -32.4086 -41.6956 8.09649 
29.8702 -41.6956 4.40424 26.0107 -41.6956 6.89195 34.3563 -38.0926 4.40424 
42.7019 -33.64 4.40424 -42.0111 -33.35 4.40424 -40.7542 -33.35 6.06391 
26.0107 -33.35 11.2151 34.3563 -33.35 8.43003 43.0684 -33.35 4.40424 
42.7019 -33.35 4.67585 51.0475 -25.7139 4.40424 -46.3872 -25.0044 4.40424 
-49.0998 -20.5935 4.40424 -40.7542 -25.0044 10.7852 34.3563 -25.0044 11.4963 
42.7019 -25.0044 9.78159 51.6718 -25.0044 4.40424 51.0475 -25.0044 4.97486 
-51.1359 -16.6587 4.40424 -49.0998 -16.6587 7.34333 42.7019 -16.6587 12.6732 
56.2252 -16.6587 4.40424 51.0475 -16.6587 9.48578 59.3931 -8.52666 4.40424 
-54.5699 -8.31313 4.40424 -49.0998 -8.31313 12.0749 51.0475 -8.31313 11.7808 
59.4556 -8.31313 4.40424 59.3931 -6.21099 4.40424 59.3931 -8.31313 4.4893 
-56.8723 0.0324821 4.40424 59.1894 0.0324821 4.40424 -56.2927 8.37809 4.40424 
57.7652 8.37809 4.40424 -54.6794 16.7237 4.40424 54.876 16.7237 4.40424 
51.0475 23.9063 4.40424 51.0475 16.7237 11.591 -52.1865 25.0693 4.40424 
-49.0998 30.7226 4.40424 -49.0998 25.0693 9.65155 50.3286 25.0693 4.40424 
-47.483 33.4149 4.40424 44.3021 33.4149 4.40424 42.7019 35.19 4.40424 
42.7019 33.4149 7.26237 -41.1914 41.7605 4.40424 -40.7542 42.1747 4.40424 
-40.7542 41.7605 5.22978 -32.4086 48.1584 4.40424 26.0107 48.2295 4.40424 
35.7905 41.7605 4.40424 34.3563 42.9249 4.40424 34.3563 41.7605 6.5492 
-27.3497 50.1062 4.40424 -24.063 51.1552 4.40424 -24.063 50.1062 6.59675 
-15.7174 52.8878 4.40424 -15.7174 50.1062 10.2205 -7.37176 53.977 4.40424 
-7.37176 50.1062 12.1856 0.97385 54.4718 4.40424 0.97385 50.1062 12.6514 
9.31946 53.8017 4.40424 9.31946 50.1062 11.2704 22.0094 50.1062 4.40424 
17.6651 51.8392 4.40424 17.6651 50.1062 7.7422 -7.37176 -52.9071 12.7499 
0.97385 -52.9159 12.7499 9.31946 -50.685 12.7499 -24.063 -43.8574 12.7499 
-13.819 -50.0412 12.7499 -15.7174 -48.9351 12.7499 -7.37176 -50.0412 15.1426 
0.97385 -50.0412 15.2848 10.5461 -50.0412 12.7499 9.31946 -50.0412 13.3385 
17.6651 -44.581 12.7499 -26.5047 -41.6956 12.7499 -32.4086 -34.8272 12.7499 
-24.063 -41.6956 14.1899 -15.7174 -41.6956 17.4548 -7.37176 -41.6956 18.8012 
0.97385 -41.6956 19.5751 9.31946 -41.6956 18.4496 19.7649 -41.6956 12.7499 
17.6651 -41.6956 14.3731 -33.5382 -33.35 12.7499 -32.4086 -33.35 13.56 
-24.063 -33.35 17.6834 -15.7174 -33.35 19.8894 -7.37176 -33.35 20.4019 
9.31946 -33.35 20.3801 23.2236 -33.35 12.7499 17.6651 -33.35 16.3485 
26.0107 -26.5828 12.7499 -38.4556 -25.0044 12.7499 -40.7542 -21.2156 12.7499 
-32.4086 -25.0044 16.5041 -24.063 -25.0044 19.1737 -15.7174 -25.0044 20.82 
-7.37176 -25.0044 20.5723 17.6651 -25.0044 16.4647 27.8362 -25.0044 12.7499 
26.0107 -25.0044 13.0847 34.3563 -21.4386 12.7499 -43.4172 -16.6587 12.7499 
[...]
POINT_DATA 552
SCALARS ImageScalars float
LOOKUP_TABLE default
0 0 0 0 0 0 0 0 0 
0 0 0 0 0 0 0 0 0 
0 0 0 0 0 0 0 0 0 
0 0 0 0 0 0 0 0 0 
0 0 0 0 0 0 0 0 0 
0 0 0 0 0 0 0 0 0 
0 0 0 0 0 0 0 0 0 
0 0 0 0 0 0 0 0 0 
0 0 0 0 0 0 0 0 0 
0 0 0 0 0 0 0 0 0 
0 0 0 0 0 0 0 0 0 
0 0 0 0 0 0 0 0 0 
0 0 0 0 0 0 0 0 0 
0 0 0 0 0 0 0 0 0 
0 0 0 0 0 0 0 0 0 
0 0 0 0 0 0 0 0 0 
0 0 0 0 0 0 0 0 0 
0 0 0 0 0 0 0 0 0 
0 0 0 0 0 0 0 0 0 
0 0 0 0 0 0 0 0 0 
0 0 0 0 0 0 0 0 0 
0 0 0 0 0 0 0 0 0 
0 0 0 0 0 0 0 0 0 
0 0 0 0 0 0 0 0 0 
0 0 0 0 0 0 0 0 0 
0 0 0 0 0 0 0 0 0 
0 0 0 0 0 0 0 0 0 
0 0 0 0 0 0 0 0 0 
0 0 0 0 0 0 0 0 0 
0 0 0 0 0 0 0 0 0 
0 0 0 0 0 0 0 0 0 
0 0 0 0 0 0 0 0 0 
0 0 0 0 0 0 0 0 0 
0 0 0 0 0 0 0 0 0 
0 0 0 0 0 0 0 0 0 
0 0 0 0 0 0 0 0 0 
0 0 0 0 0 0 0 0 0 
0 0 0 0 0 0 0 0 0 
0 0 0 0 0 0 0 0 0 
0 0 0 0 0 0 0 0 0 
0 0 0 0 0 0 0 0 0 
0 0 0 0 0 0 0 0 0 
0 0 0 0 0 0 0 0 0 
0 0 0 0 0 0 0 0 0 
0 0 0 0 0 0 0 0 0 
0 0 0 0 0 0 0 0 0 
0 0 0 0 0 0 0 0 0 
0 0 0 0 0 0 0 0 0 
0 0 0 0 0 0 0 0 0 
0 0 0 0 0 0 0 0 0 
0 0 0 0 0 0 0 0 0 
0 0 0 0 0 0 0 0 0 
0 0 0 0 0 0 0 0 0 
0 0 0 0 0 0 0 0 0 
0 0 0 0 0 0 0 0 0 
0 0 0 0 0 0 0 0 0 
0 0 0 0 0 0 0 0 0 
0 0 0 0 0 0 0 0 0 
0 0 0 0 0 0 0 0 0 
0 0 0 0 0 0 0 0 0 
0 0 0 0 0 0 0 0 0 
0 0 0 
NORMALS Normals float
0.125529 0.638918 0.758964 -0.0282008 0.50609 0.86202 -0.154072 0.503109 0.850378 
0.372638 0.572935 0.72999 0.208155 0.359803 0.909513 0.00592201 0.209906 0.977704 
-0.0636463 0.230322 0.971031 -0.116822 0.231578 0.965776 -0.238184 0.262501 0.935073 
-0.286898 0.349388 0.891974 0.598296 0.44187 0.668426 0.192761 0.268526 0.943789 
-0.0269702 0.146194 0.988888 -0.0319269 0.0187263 0.999315 -0.0707118 0.00831864 0.997462 
-0.129554 -0.0139255 0.991475 -0.135417 0.086393 0.987015 -0.133911 0.200566 0.970485 
-0.130467 0.3451 0.929454 -0.213804 0.497908 0.840461 0.370853 0.231661 0.899334 
0.0593687 0.0399637 0.997436 -0.0681486 0.0461407 0.996608 -0.135878 -0.0533379 0.989289 
-0.109098 -0.17278 0.9789 -0.0338393 -0.109839 0.993373 -0.023485 0.0616556 0.997821 
-0.0391325 0.0869646 0.995443 0.0103309 0.206594 0.978372 -0.03548 0.27975 0.959417 
-0.252715 0.387879 0.886389 0.676965 0.264748 0.686751 0.242433 0.0784517 0.966991 
0.0379471 0.0141943 0.999179 -0.129497 -0.0379247 0.990854 -0.242735 -0.0744204 0.967234 
-0.125972 0.0367201 0.991354 0.107469 0.0632351 0.992195 0.0609016 0.152964 0.986353 
0.0178998 0.0724712 0.99721 0.0824862 0.158216 0.983953 0.0233809 0.141092 0.98972 
-0.180951 0.219974 0.958576 -0.431109 0.271016 0.860636 0.539043 0.117983 0.833974 
0.162953 0.0439624 0.985654 -0.0520818 -0.00866283 0.998605 -0.159304 -0.0521409 0.985852 
-0.0592005 -0.0610998 0.996374 0.0268811 0.251395 0.967511 0.0705625 -0.0331594 0.996956 
-0.0141218 0.0418587 0.999024 -0.030284 0.0312587 0.999052 0.0958061 0.0684213 0.993046 
0.0119959 0.0692841 0.997525 -0.136634 0.0570789 0.988976 -0.395815 0.0812937 0.914725 
0.475333 -0.0373784 0.879012 0.138325 -0.039438 0.989601 -0.0617261 -0.0214188 0.997863 
-0.182766 -0.00437676 0.983147 0.028344 0.010309 0.999545 -0.0728745 0.00406392 0.997333 
-0.0791968 0.0894864 0.992834 0.12316 0.0159458 0.992259 0.0438698 0.0183708 0.998868 
0.121701 0.00576719 0.99255 0.0192258 0.0129137 0.999732 -0.15946 -0.0309411 0.986719 
-0.429548 -0.0797237 0.899518 0.506899 -0.186167 0.841663 0.182778 -0.107501 0.977259 
-0.0176035 -0.0111051 0.999783 -0.124602 0.0244001 0.991907 -0.038221 0.0775148 0.996258 
0.120345 -0.136722 0.983272 0.0762785 0.0639523 0.995034 -0.115652 -0.0269653 0.992924 
-0.0361135 0.0622951 0.997404 0.0866915 0.0264578 0.995884 -0.022387 -0.0273192 0.999376 
-0.214171 -0.0901584 0.972627 -0.545295 -0.202683 0.813371 0.619537 -0.29355 0.728012 
0.297041 -0.157169 0.941841 0.0708546 -0.0948519 0.992967 -0.0949093 -0.00418654 0.995477 
-0.121434 0.0555165 0.991046 -0.0808594 -0.0204891 0.996515 0.0225685 -0.0920796 0.995496 
0.0966467 -0.0807947 0.992034 0.0940079 0.0473347 0.994446 0.0319429 0.0163369 0.999356 
-0.0965447 -0.114203 0.988755 -0.297973 -0.219509 0.928993 -0.693141 -0.379224 0.61298 
0.374844 -0.262005 0.889295 0.138868 -0.198034 0.970308 0.0178754 -0.10827 0.993961 
-0.057391 -0.0101199 0.9983 -0.0424989 0.0929493 0.994763 0.00767157 0.0940602 0.995537 
0.0537409 0.0985411 0.993681 0.0621007 -0.0070668 0.998045 -0.0742181 -0.117887 0.99025 
-0.242243 -0.21977 0.944997 -0.483477 -0.383006 0.787119 0.491956 -0.482149 0.724922 
0.236628 -0.351271 0.905878 0.103049 -0.24865 0.963096 0.0802235 -0.146254 0.985989 
0.0226176 -0.0348564 0.999136 0.0267151 -0.0332687 0.999089 -0.00335237 0.00577578 0.999978 
-0.118839 -0.128708 0.984536 -0.183414 -0.28317 0.941368 -0.386475 -0.424145 0.818986 
0.213245 -0.486444 0.847289 0.152716 -0.390658 0.90778 0.0768318 -0.338121 0.937961 
0.0423232 -0.285449 0.957459 -0.0445668 -0.340118 0.939326 -0.232098 -0.39319 0.889681 
-0.35895 -0.531342 0.767353 0.137617 -0.694853 0.705862 0.0083613 -0.708248 0.705915 
-0.12715 -0.725405 0.676476 0.181947 0.729407 0.65944 0.020212 0.6588 0.752047 
-0.174294 0.607197 0.775199 0.463311 0.699674 0.543874 0.273423 0.744907 0.608566 
0.293933 0.738919 0.606302 0.328295 0.787731 0.521251 -0.242754 0.565846 0.787965 
-0.265903 0.534668 0.802138 -0.292434 0.621521 0.72677 -0.318325 0.442257 0.838497 
-0.464868 0.779579 0.419708 0.579943 0.655152 0.484192 0.678132 0.59167 0.435964 
-0.294458 0.418888 0.858969 -0.213983 0.449489 0.867278 -0.367983 0.659813 0.655161 
-0.249908 0.548053 0.798238 -0.50531 0.857561 0.0961795 0.738528 0.505557 0.446082 
-0.270299 0.559932 0.783208 -0.328064 0.585799 0.741089 -0.431502 0.74602 0.507208 
0.812199 0.400476 0.424208 0.816158 0.393039 0.423564 0.857252 0.426424 0.288585 
-0.523349 0.498764 0.690899 -0.548613 0.48122 0.683704 -0.60435 0.539904 0.585888 
0.836147 0.304475 0.456237 -0.677487 0.323548 0.660551 -0.944172 0.322342 0.0680851 
0.855312 0.155467 0.494238 -0.795038 0.0623898 0.603342 -0.862527 0.0623282 0.502158 
0.861579 -0.00125467 0.507622 0.990786 0.0399799 0.129402 -0.78067 -0.166953 0.602231 
-0.924877 -0.175697 0.337243 0.79739 -0.190057 0.572754 -0.71776 -0.289253 0.633367 
0.712102 -0.317913 0.625972 0.700679 -0.33922 0.627677 -0.709323 -0.386434 0.589516 
-0.70564 -0.395353 0.58802 0.679418 -0.352668 0.643442 0.785689 -0.376669 0.490727 
-0.623258 -0.448519 0.640609 -0.589412 -0.500387 0.634198 0.520809 -0.491597 0.697919 
0.50358 -0.506382 0.699989 0.354401 -0.570329 0.74103 -0.558659 -0.535266 0.633554 
-0.492059 -0.587932 0.642039 -0.698647 -0.624978 0.348274 0.646891 -0.718483 0.255569 
0.341531 -0.579155 0.740227 0.369905 -0.607367 0.703047 0.244301 -0.63813 0.730141 
0.186452 -0.671047 0.717587 -0.260126 -0.710895 0.653425 -0.443249 -0.609788 0.657031 
-0.396186 -0.627822 0.669982 -0.588426 -0.741565 0.322236 0.283432 -0.904448 0.318811 
0.148318 -0.706527 0.691969 0.21556 -0.835997 0.504621 0.140149 -0.705744 0.694467 
0.00716604 -0.747028 0.664754 -0.158573 -0.74389 0.649216 -0.132336 -0.741453 0.657825 
-0.291342 -0.861427 0.416009 0.451299 0.890238 0.0616874 0.274851 0.954338 0.117027 
0.103318 0.978422 0.178928 -0.139792 0.968067 0.208097 -0.354449 0.892829 0.277889 
-0.497685 0.834266 0.237295 0.550332 0.834944 0.00176344 0.620531 0.783456 -0.0337285 
-0.511767 0.83134 0.216723 -0.512109 0.836492 0.195 -0.50968 0.857765 0.066831 
0.740981 0.66626 -0.0839351 0.772941 0.626152 -0.102449 -0.510403 0.85749 0.0648109 
-0.51607 0.856236 0.023049 -0.535249 0.840769 0.0813407 0.835738 0.539849 -0.100528 
0.8765 0.468338 -0.111387 -0.627815 0.777571 0.0350914 -0.709844 0.704238 0.0130184 
0.883317 0.456492 -0.106609 0.864866 0.462869 -0.194317 -0.812547 0.582548 0.0201334 
-0.941572 0.336622 -0.0113173 0.929364 0.363621 -0.0637429 -0.949121 0.314726 -0.0108534 
-0.942574 0.325514 -0.074803 0.97256 0.232647 -0.00172839 0.993919 0.0939266 0.0574637 
-0.997661 0.0630173 0.026484 0.995879 0.0451696 0.0786382 0.993994 -0.0789441 0.0757824 
0.995875 0.0643639 -0.0639592 -0.985386 -0.163003 0.0494373 -0.963898 -0.250473 0.0903583 
-0.936852 -0.100806 -0.334884 0.986313 -0.146656 0.07536 -0.950049 -0.291204 0.112284 
0.947992 -0.281958 0.147687 -0.891798 -0.429064 0.143526 -0.838627 -0.526377 0.140113 
0.893277 -0.398959 0.207094 0.848358 -0.498296 0.178855 -0.836951 -0.529044 0.140087 
0.82652 -0.533196 0.180461 -0.744556 -0.643878 0.176232 -0.719291 -0.672344 0.174854 
0.66285 -0.719018 0.20891 0.650277 -0.73019 0.209673 0.437108 -0.861876 0.257113 
-0.474261 -0.868188 0.146034 -0.629234 -0.756813 0.176915 -0.602511 -0.778234 0.177009 
0.328621 -0.913789 0.238743 0.28779 -0.927876 0.237114 0.213423 -0.952224 0.218447 
0.112917 -0.979812 0.164978 -0.0150415 -0.985992 0.166114 -0.144196 -0.977974 0.15091 
-0.415534 -0.897367 0.148541 -0.302117 -0.939542 0.161202 0.479065 0.796779 -0.368294 
0.346551 0.876835 -0.333262 0.149143 0.95765 -0.2463 -0.115985 0.964158 -0.238635 
-0.337728 0.915504 -0.218615 -0.539779 0.80663 -0.240802 0.509618 0.776707 -0.370156 
0.626106 0.658946 -0.41687 0.473387 0.763904 -0.438583 0.33704 0.661974 -0.669474 
-0.569463 0.783826 -0.247648 -0.531373 0.754643 -0.384911 -0.603501 0.666509 -0.437667 
0.678732 0.600837 -0.422277 0.735095 0.506454 -0.45071 0.60375 0.5645 -0.562873 
-0.548807 0.653939 -0.520744 -0.592948 0.539528 -0.597765 -0.464938 0.65864 -0.59163 
-0.480004 0.628729 -0.611797 0.745321 0.482081 -0.460538 0.718285 0.465808 -0.516807 
-0.379112 0.310037 -0.871866 -0.360198 0.500854 -0.787022 -0.485468 0.624649 -0.611665 
-0.473697 0.616608 -0.628813 -0.588628 0.544272 -0.597733 0.759034 0.437629 -0.482025 
0.785035 0.427109 -0.448663 0.634424 0.353435 -0.687452 -0.171408 0.306782 -0.936218 
-0.340167 0.427156 -0.837749 -0.592874 0.53214 -0.604423 -0.574687 0.520851 -0.631228 
0.814371 0.393302 -0.426747 0.748996 0.394874 -0.532053 -0.243901 0.305075 -0.920566 
-0.742285 0.350549 -0.571077 -0.521502 0.341422 -0.781963 -0.857414 0.13416 -0.496832 
0.875933 0.299501 -0.378207 0.634624 0.295579 -0.714063 -0.531794 0.194746 -0.824178 
-0.859275 0.128098 -0.495214 -0.880115 0.071673 -0.469319 -0.856403 0.129 -0.499932 
0.951388 0.0934169 -0.293488 -0.918931 -0.0894766 -0.384135 0.955055 -0.117732 -0.272045 
-0.920446 -0.23677 -0.310999 0.942007 -0.226988 -0.247182 -0.885867 -0.38613 -0.257182 
-0.82919 -0.506983 -0.2354 -0.750486 -0.31326 -0.581926 0.892313 -0.384623 -0.23631 
0.845685 -0.481553 -0.230053 0.80029 -0.356171 -0.482367 -0.817919 -0.525006 -0.235325 
0.820535 -0.524542 -0.227109 -0.736373 -0.636223 -0.230163 -0.713909 -0.661587 -0.229428 
-0.698604 -0.625281 -0.347816 0.673595 -0.709731 -0.206281 0.664074 -0.718948 -0.205229 
0.66281 -0.707892 -0.244075 0.454383 -0.869459 -0.193849 -0.463228 -0.853532 -0.238545 
-0.608429 -0.757114 -0.237893 -0.586973 -0.773184 -0.240103 -0.576866 -0.748708 -0.326591 
0.334896 -0.921535 -0.196516 0.263931 -0.942117 -0.206776 0.25363 -0.917562 -0.306188 
0.161546 -0.96283 -0.216473 0.159997 -0.853197 -0.496443 0.0925053 -0.964467 -0.247479 
0.0719609 -0.792944 -0.60503 -0.0109714 -0.969714 -0.243999 -0.0315227 -0.764883 -0.643397 
-0.147636 -0.954556 -0.258893 -0.148075 -0.800383 -0.580914 -0.390691 -0.887182 -0.245498 
-0.306732 -0.915373 -0.260783 -0.287068 -0.865153 -0.411221 0.168907 0.701911 -0.691948 
-0.0973431 0.727434 -0.679238 -0.292825 0.676041 -0.676182 0.416117 0.531281 -0.737962 
0.299579 0.635962 -0.711199 0.328581 0.613527 -0.718066 0.16656 0.586868 -0.792366 
-0.0865347 0.623545 -0.776984 -0.316618 0.661022 -0.680296 -0.289483 0.655116 -0.69787 
-0.533603 0.425759 -0.730751 0.451242 0.489525 -0.746154 0.530153 0.408614 -0.742948 
0.404552 0.469485 -0.784806 0.246879 0.398463 -0.883333 0.115532 0.285353 -0.951434 
-0.0180924 0.308294 -0.951119 -0.280967 0.348205 -0.894322 -0.565816 0.320011 -0.759898 
-0.540319 0.312595 -0.781242 0.542497 0.388638 -0.744753 0.518534 0.379723 -0.766116 
0.31738 0.266707 -0.91002 0.150965 0.174244 -0.973061 0.0787422 0.103359 -0.991522 
-0.23166 0.168931 -0.958017 -0.411619 0.219244 -0.884592 -0.507302 0.112572 -0.854384 
-0.263703 0.208638 -0.94177 0.566123 0.311935 -0.763021 0.555135 0.321072 -0.767293 
0.414533 0.212596 -0.884853 0.23823 0.0933818 -0.966709 0.0798393 0.00705736 -0.996783 
0.039431 -0.0151116 -0.999108 -0.469769 0.052999 -0.881197 -0.2243 0.211224 -0.951354 
-0.246112 0.188979 -0.95064 -0.133232 0.3103 -0.941256 0.54722 0.324985 -0.77132 
0.468651 0.288093 -0.835086 0.265252 0.131186 -0.955213 0.126658 -0.0107536 -0.991888 
0.0457674 -0.0514366 -0.997627 0.0586997 0.132336 -0.989465 0.128126 -0.0110333 -0.991697 
-0.428234 0.160853 -0.889237 -0.156525 0.264169 -0.95169 -0.236954 0.305766 -0.92215 
-0.100441 0.335263 -0.936755 -0.244687 0.30391 -0.920743 0.596437 0.292407 -0.747503 
0.623104 0.265333 -0.735758 0.347587 0.238849 -0.906716 0.115095 0.128677 -0.984985 
0.0737209 0.025583 -0.996951 0.239605 0.00860519 -0.970832 -0.223062 0.20082 -0.953894 
-0.0974009 0.36829 -0.924595 -0.125405 0.333653 -0.934318 -0.469717 0.21953 -0.855086 
-0.298205 0.29444 -0.907953 -0.558759 0.148453 -0.815935 0.69077 0.147501 -0.70787 
0.610595 0.155032 -0.77662 0.283845 0.153562 -0.946494 0.0533399 0.151341 -0.987041 
0.00135775 0.137062 -0.990561 0.21635 0.0706456 -0.973757 -0.162215 0.0715098 -0.984161 
0.107331 0.0858044 -0.990514 0.0127896 0.160493 -0.986954 -0.0412991 0.217284 -0.975234 
-0.153105 0.207914 -0.966091 -0.335652 0.175982 -0.925402 -0.627829 0.0900393 -0.773126 
-0.589953 0.10358 -0.800767 0.751283 -0.0590252 -0.657335 0.649246 -0.0376775 -0.759644 
0.299547 0.0184506 -0.953903 0.0208006 0.0750191 -0.996965 -0.380744 0.0152826 -0.924554 
-0.707108 -0.0964224 -0.700501 -0.714129 -0.217079 -0.665504 -0.669301 -0.0785635 -0.738826 
0.733246 -0.2198 -0.643458 0.725248 -0.254977 -0.639532 0.70043 -0.212334 -0.681404 
0.369316 -0.106608 -0.923169 0.14529 -0.0371832 -0.98869 0.0291523 -0.00760582 -0.999546 
-0.706306 -0.293206 -0.644331 -0.465369 -0.192914 -0.863838 0.691688 -0.32501 -0.644931 
0.441197 -0.27426 -0.854474 0.224722 -0.136503 -0.964814 -0.143923 -0.171511 -0.974613 
-0.303349 -0.300854 -0.904138 -0.651812 -0.436376 -0.620256 -0.620119 -0.487423 -0.614713 
-0.573678 -0.40581 -0.711485 0.593433 -0.451888 -0.666059 0.569325 -0.483628 -0.664811 
0.555591 -0.440229 -0.705349 0.319902 -0.349108 -0.880787 0.113829 -0.261424 -0.958489 
0.0377533 -0.19868 -0.979337 0.0189954 -0.168012 -0.985602 -0.000781285 -0.150705 -0.988578 
-0.0174517 -0.212832 -0.976933 -0.114484 -0.240019 -0.963994 -0.258299 -0.362152 -0.895616 
-0.560158 -0.551868 -0.61779 -0.502346 -0.599663 -0.622939 -0.4454 -0.486222 -0.751803 
0.439124 -0.594072 -0.67398 0.413026 -0.609534 -0.676667 0.408325 -0.584447 -0.701208 
0.238198 -0.730051 -0.640537 0.229589 -0.510394 -0.828726 0.144479 -0.751303 -0.643948 
0.0857042 -0.464175 -0.881587 0.0695669 -0.765816 -0.639286 0.0347202 -0.413858 -0.909679 
-0.0317436 -0.75988 -0.649288 -0.0154497 -0.409527 -0.912167 -0.142652 -0.732774 -0.665351 
-0.0824328 -0.442484 -0.89298 -0.245939 -0.706342 -0.663774 -0.217422 -0.530926 -0.819051 
-0.417085 -0.645261 -0.640061 -0.389576 -0.656866 -0.645568 -0.377663 -0.619147 -0.688497 
-0.000350886 0.132256 -0.991216 0.0146608 0.11359 -0.99342 -0.0392454 0.126623 -0.991174 
0.00144324 0.115519 -0.993304 -0.237455 0.134032 -0.962107 0.0469781 -0.0130622 -0.998811 
0.122566 -0.0110258 -0.992399 0.0535239 -0.0102051 -0.998514 -0.267532 0.106425 -0.957653 
-0.243327 0.114182 -0.9632 0.0676014 0.157452 -0.98521 0.119663 -0.0099428 -0.992765 
0.103124 -0.0251231 -0.994351 -0.284561 0.0538072 -0.957147 -0.195794 0.0264542 -0.980288 
0.186762 0.0855202 -0.978676 0.0676146 0.198178 -0.977831 -0.0728581 -0.0976054 -0.992555 
-0.0630895 -0.113264 -0.99156 -0.147305 -0.00672804 -0.989068 0.0283895 0.0218654 -0.999358 
-0.111949 -0.0946682 -0.989194 0.100592 0.0517534 -0.993581 -0.00331585 0.121267 -0.992614 
0.143647 0.0288553 -0.989208 -0.123321 -0.000888874 -0.992366 -0.0578581 -0.0852443 -0.994679 
-0.0054165 0.138143 -0.990398 0.0860057 0.0945535 -0.991798 -0.00226759 0.148793 -0.988866 
-0.0423741 0.186949 -0.981455 -0.168436 0.0982843 -0.9808 0.103859 0.0492047 -0.993374 
0.122701 0.00794091 -0.992412 0.101567 0.0495443 -0.993594 0.0150925 0.0849677 -0.996269 
-0.00422013 0.118732 -0.992917 0.0262671 0.0566653 -0.998048 0.0142316 0.0712117 -0.99736 
0.0335752 -0.0175527 -0.999282 0.0837052 -0.132381 -0.987658 0.101045 0.159985 -0.981934 
-0.0237727 0.131823 -0.990988 -0.0756648 0.0929374 -0.992793 -0.0474387 0.0570606 -0.997243 
-0.190237 0.0690691 -0.979306 -0.171715 0.0719391 -0.982517 0.142 -0.0355448 -0.989228 
0.0276702 0.0203974 -0.999409 0.022574 -0.00337112 -0.999739 -0.0449049 0.0389342 -0.998232 
0.0331541 -0.0102812 -0.999397 0.0238878 -0.00785099 -0.999684 0.115291 -0.0698945 -0.99087 
0.023394 -0.0752118 -0.996893 -0.0637457 -0.0216503 -0.997731 -0.131739 -0.155528 -0.979008 
-0.0622032 -0.0590367 -0.996316 -0.208393 -0.123943 -0.97016 -0.191428 -0.14389 -0.970902 
-0.175227 -0.116204 -0.977646 0.138857 -0.108391 -0.984363 0.0844301 -0.152861 -0.984634 
0.0713096 -0.0901877 -0.993369 0.018612 -0.137643 -0.990307 -0.00722858 -0.0524564 -0.998597 
0.00455774 -0.111927 -0.993706 -0.0229152 -0.00936316 -0.999694 0.0104114 -0.121192 -0.992575 
0.0326242 -0.0628828 -0.997488 -0.00825394 -0.194517 -0.980864 0.0262696 -0.121407 -0.992255 
-0.130418 -0.159884 -0.978482 -0.0943274 -0.185088 -0.978184 -0.0611809 -0.103165 -0.992781 

