# vtk DataFile Version 4.2
vtk output
ASCII
DATASET POLYDATA
POINTS 536 float
-26.081 -40.6863 -13.1912 -18.3077 -40.6863 -15.1403 -10.5343 -40.6863 -15.4371 
-2.76097 -40.6863 -16.1928 5.01239 -40.6863 -16.3688 12.7857 -40.6863 -15.4133 
20.5591 -40.6863 -14.4463 -33.8544 -32.913 -14.9743 -26.081 -32.913 -16.9211 
-18.3077 -32.913 -17.2218 -10.5343 -32.913 -17.8003 -2.76097 -32.913 -18.179 
5.01239 -32.913 -18.3138 12.7857 -32.913 -17.7873 20.5591 -32.913 -17.2866 
28.3325 -32.913 -16.5227 36.1058 -32.913 -14.7692 -41.6278 -25.1396 -14.6216 
-33.8544 -25.1396 -17.1924 -26.081 -25.1396 -17.6003 -18.3077 -25.1396 -17.9778 
-10.5343 -25.1396 -18.1458 -2.76097 -25.1396 -17.6064 5.01239 -25.1396 -17.6907 
12.7857 -25.1396 -18.1301 20.5591 -25.1396 -18.2468 28.3325 -25.1396 -18.1231 
36.1058 -25.1396 -17.9535 43.8792 -25.1396 -15.5429 -41.6278 -17.3663 -15.8659 
-33.8544 -17.3663 -17.1679 -26.081 -17.3663 -17.501 -18.3077 -17.3663 -17.444 
-10.5343 -17.3663 -17.5784 -2.76097 -17.3663 -17.1607 5.01239 -17.3663 -17.1443 
12.7857 -17.3663 -17.844 20.5591 -17.3663 -18.4409 28.3325 -17.3663 -18.5764 
36.1058 -17.3663 -18.3385 43.8792 -17.3663 -17.187 51.6525 -17.3663 -14.1846 
-49.4011 -9.59291 -13.4819 -41.6278 -9.59291 -16.4208 -33.8544 -9.59291 -17.2693 
-26.081 -9.59291 -17.1318 -18.3077 -9.59291 -16.7043 -10.5343 -9.59291 -18.7433 
-2.76097 -9.59291 -18.8779 5.01239 -9.59291 -18.4775 12.7857 -9.59291 -17.6038 
20.5591 -9.59291 -17.3455 28.3325 -9.59291 -18.1567 36.1058 -9.59291 -18.2447 
43.8792 -9.59291 -17.6178 51.6525 -9.59291 -15.2297 -49.4011 -1.81955 -12.8296 
-41.6278 -1.81955 -15.9501 -33.8544 -1.81955 -16.9197 -26.081 -1.81955 -16.6355 
-18.3077 -1.81955 -15.4387 -10.5343 -1.81955 -17.7486 -2.76097 -1.81955 -16.1319 
5.01239 -1.81955 -18.6947 12.7857 -1.81955 -17.1116 20.5591 -1.81955 -15.6551 
28.3325 -1.81955 -16.9557 36.1058 -1.81955 -17.5749 43.8792 -1.81955 -16.9904 
51.6525 -1.81955 -14.5598 -41.6278 5.9538 -14.3941 -33.8544 5.9538 -15.8674 
-26.081 5.9538 -15.8624 -18.3077 5.9538 -15.4727 -10.5343 5.9538 -17.6035 
-2.76097 5.9538 -16.4037 5.01239 5.9538 -17.6467 12.7857 5.9538 -14.9456 
20.5591 5.9538 -14.8475 28.3325 5.9538 -16.3138 36.1058 5.9538 -16.8107 
43.8792 5.9538 -16.0006 51.6525 5.9538 -12.7325 -33.8544 13.7272 -14.4045 
-26.081 13.7272 -14.7361 -18.3077 13.7272 -14.6492 -10.5343 13.7272 -15.4137 
-2.76097 13.7272 -15.4529 5.01239 13.7272 -14.3005 12.7857 13.7272 -14.4785 
20.5591 13.7272 -15.317 28.3325 13.7272 -16.0034 36.1058 13.7272 -16.0524 
43.8792 13.7272 -14.177 -26.081 21.5005 -13.0076 -18.3077 21.5005 -13.3579 
-10.5343 21.5005 -13.2136 -2.76097 21.5005 -13.5326 5.01239 21.5005 -13.8881 
12.7857 21.5005 -14.252 20.5591 21.5005 -14.6591 28.3325 21.5005 -14.6528 
36.1058 21.5005 -13.4537 -10.5343 29.2739 -12.9878 -2.76097 29.2739 -13.0945 
5.01239 29.2739 -13.5127 12.7857 29.2739 -13.9211 20.5591 29.2739 -13.0829 
-26.081 -41.759 -12.3776 -18.3077 -43.9695 -12.3776 -10.5343 -44.2868 -12.3776 
-2.76097 -45.2502 -12.3776 5.01239 -45.4733 -12.3776 5.01239 -48.4597 -5.45369 
12.7857 -44.3813 -12.3776 20.5591 -43.1722 -12.3776 -28.0882 -40.6863 -12.3776 
-33.8544 -37.2446 -12.3776 -33.8544 -40.6863 -7.73492 27.19 -40.6863 -12.3776 
28.3325 -40.0234 -12.3776 28.3325 -40.6863 -11.5818 36.1058 -36.1953 -12.3776 
-39.4602 -32.913 -12.3776 -41.6278 -30.523 -12.3776 -41.6278 -32.913 -10.7716 
41.3043 -32.913 -12.3776 43.8792 -30.8457 -12.3776 43.8792 -32.913 -9.78162 
-47.8885 -25.1396 -12.3776 -49.4011 -25.1396 -11.1461 50.6432 -25.1396 -12.3776 
51.6525 -23.0216 -12.3776 51.6525 -25.1396 -10.7112 -49.1448 -17.3663 -12.3776 
-49.4011 -16.476 -12.3776 -49.4011 -17.3663 -12.2228 53.3872 -17.3663 -12.3776 
-50.8586 -9.59291 -12.3776 54.7213 -9.59291 -12.3776 -50.002 -1.81955 -12.3776 
-49.4011 -0.380143 -12.3776 53.9038 -1.81955 -12.3776 -45.8886 5.9538 -12.3776 
-49.4011 5.9538 -10.1933 -41.6278 12.9916 -12.3776 52.0544 5.9538 -12.3776 
51.6525 6.62689 -12.3776 -49.4011 13.7272 -6.61996 -40.8963 13.7272 -12.3776 
-41.6278 13.7272 -12.1457 -33.8544 20.3048 -12.3776 46.96 13.7272 -12.3776 
43.8792 17.255 -12.3776 51.6525 13.7272 -7.41396 -41.6278 21.5005 -7.541 
-31.0262 21.5005 -12.3776 -33.8544 21.5005 -11.9625 -26.081 24.1876 -12.3776 
-18.3077 27.2045 -12.3776 28.3325 28.0353 -12.3776 38.6001 21.5005 -12.3776 
36.1058 23.4158 -12.3776 43.8792 21.5005 -8.84224 -33.8544 29.2739 -7.61197 
-26.081 29.2739 -11.0681 -15.5556 29.2739 -12.3776 -18.3077 29.2739 -12.0176 
-10.5343 33.0739 -12.3776 -2.76097 33.0869 -12.3776 5.01239 34.822 -12.3776 
12.7857 36.1309 -12.3776 25.2359 29.2739 -12.3776 20.5591 31.2051 -12.3776 
28.3325 29.2739 -11.8333 36.1058 29.2739 -7.51772 -26.081 37.0472 -7.82242 
-18.3077 37.0472 -10.1242 -10.5343 37.0472 -11.6114 -2.76097 37.0472 -11.634 
5.01239 37.0472 -11.9162 12.7857 37.0472 -12.1236 20.5591 37.0472 -10.0378 
28.3325 37.0472 -6.30566 -18.3077 44.8206 -5.33271 -10.5343 44.8206 -8.04842 
-2.76097 44.8206 -8.30885 5.01239 44.8206 -8.3402 12.7857 44.8206 -7.8602 
20.5591 44.8206 -4.97956 5.01239 -48.7182 -4.60428 -33.8544 -42.1755 -4.60428 
-26.081 -45.0897 -4.60428 -18.3077 -46.8025 -4.60428 -10.5343 -47.7506 -4.60428 
0.908979 -48.4597 -4.60428 -2.76097 -48.2434 -4.60428 9.4175 -48.4597 -4.60428 
5.01239 -48.4597 -4.07595 12.7857 -48.2697 -4.60428 20.5591 -46.308 -4.60428 
28.3325 -43.8199 -4.60428 -36.6593 -40.6863 -4.60428 -41.6278 -37.6552 -4.60428 
-33.8544 -40.6863 -0.309818 35.6549 -40.6863 -4.60428 28.3325 -40.6863 2.73311 
36.1058 -40.4824 -4.60428 43.8792 -35.7587 -4.60428 -47.2749 -32.913 -4.60428 
-49.4011 -30.3212 -4.60428 47.1328 -32.913 -4.60428 43.8792 -32.913 1.82221 
51.6525 -27.8811 -4.60428 -52.9482 -25.1396 -4.60428 53.5291 -25.1396 -4.60428 
51.6525 -25.1396 0.0872551 -55.7896 -17.3663 -4.60428 57.2699 -17.3663 -4.60428 
-56.8881 -9.59291 -4.60428 58.5765 -9.59291 -4.60428 -56.8806 -1.81955 -4.60428 
58.3612 -1.81955 -4.60428 -54.0686 5.9538 -4.60428 56.9704 5.9538 -4.60428 
-50.8507 13.7272 -4.60428 -49.4011 16.3598 -4.60428 53.3198 13.7272 -4.60428 
51.6525 16.0794 -4.60428 51.6525 13.7272 3.15759 -45.2929 21.5005 -4.60428 
-41.6278 25.9294 -4.60428 47.1488 21.5005 -4.60428 43.8792 24.833 -4.60428 
-38.5039 29.2739 -4.60428 -41.6278 29.2739 2.0694 -33.8544 34.5185 -4.60428 
38.8391 29.2739 -4.60428 36.1058 31.8663 -4.60428 -31.093 37.0472 -4.60428 
-33.8544 37.0472 0.234563 -26.081 40.995 -4.60428 30.316 37.0472 -4.60428 
28.3325 38.8792 -4.60428 -19.8182 44.8206 -4.60428 -26.081 44.8206 1.89886 
-18.3077 45.5338 -4.60428 -10.5343 48.56 -4.60428 -2.76097 49.6889 -4.60428 
5.01239 49.4966 -4.60428 12.7857 47.792 -4.60428 21.0475 44.8206 -4.60428 
20.5591 45.1482 -4.60428 -10.5343 52.5939 2.89818 -2.76097 52.5939 0.535367 
5.01239 52.5939 0.922083 -26.081 -42.0741 3.16908 -18.3077 -43.3247 3.16908 
-10.5343 -43.0998 3.16908 -2.76097 -43.7674 3.16908 5.01239 -43.93 3.16908 
12.7857 -43.3464 3.16908 20.5591 -42.8236 3.16908 -41.6278 -35.691 3.16908 
-30.3191 -40.6863 3.16908 -33.8544 -39.2274 3.16908 -26.081 -40.6863 4.85559 
-18.3077 -40.6863 5.88589 -10.5343 -40.6863 5.57784 -2.76097 -40.6863 6.20161 
5.01239 -40.6863 6.30191 12.7857 -40.6863 5.69444 27.6807 -40.6863 3.16908 
20.5591 -40.6863 5.40514 28.3325 -40.4194 3.16908 36.1058 -37.2235 3.16908 
-45.4754 -32.913 3.16908 -49.4011 -29.1339 3.16908 -41.6278 -32.913 6.33443 
-33.8544 -32.913 9.14022 -26.081 -32.913 9.78261 -18.3077 -32.913 9.93157 
-10.5343 -32.913 10.1959 -2.76097 -32.913 10.3304 5.01239 -32.913 10.1458 
12.7857 -32.913 9.97493 20.5591 -32.913 9.51066 28.3325 -32.913 8.68119 
42.9494 -32.913 3.16908 36.1058 -32.913 7.27197 43.8792 -32.0186 3.16908 
-52.4664 -25.1396 3.16908 -49.4011 -25.1396 7.17975 49.8202 -25.1396 3.16908 
43.8792 -25.1396 8.35581 51.6525 -22.8054 3.16908 -55.6872 -17.3663 3.16908 
43.8792 -17.3663 10.7941 54.4955 -17.3663 3.16908 51.6525 -17.3663 6.46201 
-57.1608 -9.59291 3.16908 56.0414 -9.59291 3.16908 51.6525 -9.59291 8.12226 
-56.8242 -1.81955 3.16908 56.19 -1.81955 3.16908 51.6525 -1.81955 8.60208 
-55.05 5.9538 3.16908 54.9495 5.9538 3.16908 51.6525 13.7213 3.16908 
51.6525 5.9538 7.77274 -52.155 13.7272 3.16908 -49.4011 18.9077 3.16908 
-49.4011 13.7272 9.42107 51.6496 13.7272 3.16908 -47.8793 21.5005 3.16908 
46.2675 21.5005 3.16908 43.8792 24.3215 3.16908 43.8792 21.5005 6.66837 
-41.9702 29.2739 3.16908 -41.6278 29.6725 3.16908 -41.6278 29.2739 4.16817 
39.5322 29.2739 3.16908 36.1058 33.2504 3.16908 36.1058 29.2739 9.16644 
-34.8254 37.0472 3.16908 -33.8544 38.0343 3.16908 -33.8544 37.0472 6.09336 
32.8856 37.0472 3.16908 28.3325 41.9347 3.16908 -26.6728 44.8206 3.16908 
-26.081 45.2933 3.16908 -26.081 44.8206 4.94301 -18.3077 50.0218 3.16908 
12.7857 51.7654 3.16908 25.2016 44.8206 3.16908 20.5591 48.2233 3.16908 
-10.8482 52.5939 3.16908 -10.5343 52.6934 3.16908 -10.5343 52.5939 3.75435 
-2.76097 53.6107 3.16908 9.11367 52.5939 3.16908 5.01239 53.4946 3.16908 
5.01239 52.5939 10.031 -41.6278 -26.9093 10.9424 -33.8544 -30.1531 10.9424 
-26.081 -30.7778 10.9424 -18.3077 -30.3888 10.9424 -10.5343 -29.9915 10.9424 
-2.76097 -31.0568 10.9424 5.01239 -30.3728 10.9424 12.7857 -29.2484 10.9424 
20.5591 -29.2963 10.9424 28.3325 -28.5715 10.9424 36.1058 -25.1985 10.9424 
-43.9429 -25.1396 10.9424 -49.4011 -17.8892 10.9424 -41.6278 -25.1396 12.1176 
-33.8544 -25.1396 13.9836 -26.081 -25.1396 13.9548 -18.3077 -25.1396 12.9533 
-10.5343 -25.1396 12.0673 -2.76097 -25.1396 12.8015 5.01239 -25.1396 12.5302 
12.7857 -25.1396 11.9317 20.5591 -25.1396 12.6473 28.3325 -25.1396 12.5931 
36.2064 -25.1396 10.9424 36.1058 -25.1396 10.9695 -49.6393 -17.3663 10.9424 
-49.4011 -17.3663 11.1534 -41.6278 -17.3663 15.4368 -33.8544 -17.3663 16.6534 
-26.081 -17.3663 16.5126 -18.3077 -17.3663 15.3361 -10.5343 -17.3663 13.6959 
-2.76097 -17.3663 14.2722 5.01239 -17.3663 13.7796 12.7857 -17.3663 13.8582 
20.5591 -17.3663 14.7561 28.3325 -17.3663 14.9007 43.4817 -17.3663 10.9424 
36.1058 -17.3663 13.5256 43.8792 -16.7124 10.9424 -52.0216 -9.59291 10.9424 
[...]
POINT_DATA 536
SCALARS ImageScalars float
LOOKUP_TABLE default
0 0 0 0 0 0 0 0 0 
0 0 0 0 0 0 0 0 0 
0 0 0 0 0 0 0 0 0 
0 0 0 0 0 0 0 0 0 
0 0 0 0 0 0 0 0 0 
0 0 0 0 0 0 0 0 0 
0 0 0 0 0 0 0 0 0 
0 0 0 0 0 0 0 0 0 
0 0 0 0 0 0 0 0 0 
0 0 0 0 0 0 0 0 0 
0 0 0 0 0 0 0 0 0 
0 0 0 0 0 0 0 0 0 
0 0 0 0 0 0 0 0 0 
0 0 0 0 0 0 0 0 0 
0 0 0 0 0 0 0 0 0 
0 0 0 0 0 0 0 0 0 
0 0 0 0 0 0 0 0 0 
0 0 0 0 0 0 0 0 0 
0 0 0 0 0 0 0 0 0 
0 0 0 0 0 0 0 0 0 
0 0 0 0 0 0 0 0 0 
0 0 0 0 0 0 0 0 0 
0 0 0 0 0 0 0 0 0 
0 0 0 0 0 0 0 0 0 
0 0 0 0 0 0 0 0 0 
0 0 0 0 0 0 0 0 0 
0 0 0 0 0 0 0 0 0 
0 0 0 0 0 0 0 0 0 
0 0 0 0 0 0 0 0 0 
0 0 0 0 0 0 0 0 0 
0 0 0 0 0 0 0 0 0 
0 0 0 0 0 0 0 0 0 
0 0 0 0 0 0 0 0 0 
0 0 0 0 0 0 0 0 0 
0 0 0 0 0 0 0 0 0 
0 0 0 0 0 0 0 0 0 
0 0 0 0 0 0 0 0 0 
0 0 0 0 0 0 0 0 0 
0 0 0 0 0 0 0 0 0 
0 0 0 0 0 0 0 0 0 
0 0 0 0 0 0 0 0 0 
0 0 0 0 0 0 0 0 0 
0 0 0 0 0 0 0 0 0 
0 0 0 0 0 0 0 0 0 
0 0 0 0 0 0 0 0 0 
0 0 0 0 0 0 0 0 0 
0 0 0 0 0 0 0 0 0 
0 0 0 0 0 0 0 0 0 
0 0 0 0 0 0 0 0 0 
0 0 0 0 0 0 0 0 0 
0 0 0 0 0 0 0 0 0 
0 0 0 0 0 0 0 0 0 
0 0 0 0 0 0 0 0 0 
0 0 0 0 0 0 0 0 0 
0 0 0 0 0 0 0 0 0 
0 0 0 0 0 0 0 0 0 
0 0 0 0 0 0 0 0 0 
0 0 0 0 0 0 0 0 0 
0 0 0 0 0 0 0 0 0 
0 0 0 0 0 
NORMALS Normals float
0.310702 0.581406 0.751952 0.139986 0.514481 0.845998 0.0635248 0.475656 0.877335 
0.0508831 0.479275 0.876188 -0.0427258 0.469164 0.882077 -0.123366 0.487469 0.864381 
-0.15824 0.575191 0.802568 0.290432 0.364938 0.884573 0.144705 0.256403 0.955677 
0.0534599 0.17888 0.982417 0.0608209 0.145509 0.987486 0.0329462 0.0659434 0.997279 
-0.0254782 0.060236 0.997859 -0.0683173 0.146756 0.986811 -0.0717323 0.22771 0.971083 
-0.173885 0.297282 0.938822 -0.278011 0.490432 0.825946 0.319463 0.240533 0.916563 
0.206618 0.151304 0.966652 0.0484344 0.0322095 0.998307 0.0346725 0.0124758 0.999321 
-0.0239068 -0.0152379 0.999598 -0.0299611 -0.0647746 0.99745 0.0342581 -0.0743585 0.996643 
0.0357639 0.00272402 0.999357 -0.000216213 0.0778227 0.996967 -0.0179054 0.119445 0.992679 
-0.171996 0.231705 0.95746 -0.347587 0.312391 0.884079 0.266419 0.115565 0.956904 
0.0976623 0.00501359 0.995207 0.0176666 -0.0300662 0.999392 0.00505078 -0.08301 0.996536 
-0.0177523 0.0298306 0.999397 -0.0280769 0.0689238 0.997227 0.0440031 0.0419954 0.998148 
0.0818671 -0.0337474 0.996072 0.0480075 -0.0584121 0.997138 -0.00680597 0.00136651 0.999976 
-0.0830196 0.0160143 0.996419 -0.216758 0.136362 0.966655 -0.61497 0.197314 0.763465 
0.515199 0.0314433 0.856493 0.211249 0.00509142 0.977419 0.0418037 -0.0159023 0.998999 
-0.0361512 -0.0555105 0.997803 0.0878809 -0.121418 0.988703 0.152171 0.0301228 0.987895 
-0.0171212 -0.0104085 0.999799 -0.0842853 0.103084 0.991095 -0.070835 -0.037505 0.996783 
0.0353796 -0.170386 0.984742 0.0572895 -0.103477 0.992981 -0.0320014 -0.0488732 0.998292 
-0.155157 -0.0140729 0.98779 -0.533794 0.0177828 0.845428 0.520658 -0.166753 0.837322 
0.224711 -0.124784 0.966402 0.0399161 -0.0890654 0.995226 -0.0885509 -0.0803481 0.992826 
0.0348397 -0.082127 0.996013 0.0808385 -0.0782161 0.993654 0.0566503 -0.192101 0.979739 
0.0600211 -0.063931 0.996148 -0.206971 -0.183233 0.961035 0.0240433 -0.16191 0.986513 
0.119445 -0.117873 0.985819 0.00368063 -0.0918927 0.995762 -0.14924 -0.100859 0.983644 
-0.546073 -0.127393 0.827995 0.292662 -0.227902 0.92866 0.0868052 -0.15365 0.984305 
-0.0254397 -0.120416 0.992397 0.0994931 -0.0498875 0.993787 0.0748507 -0.129961 0.98869 
0.00295807 -0.0457624 0.998948 -0.0798904 -0.267559 0.960224 -0.185173 -0.13342 0.973607 
0.0897844 -0.0198729 0.995763 0.125315 -0.0604331 0.990275 -0.0174118 -0.0935184 0.995465 
-0.20846 -0.180757 0.961182 -0.585596 -0.3057 0.750749 0.156802 -0.246763 0.956306 
0.0143643 -0.178473 0.98384 0.0352419 -0.135596 0.990137 0.0547969 -0.29052 0.955298 
-0.0727969 -0.198095 0.977476 -0.0505383 -0.231514 0.971518 0.0639786 -0.0388294 0.997196 
0.0971104 -0.0114837 0.995207 0.0473174 -0.109144 0.992899 -0.121883 -0.216468 0.968652 
-0.367215 -0.331051 0.869229 0.086443 -0.226478 0.970173 0.0121433 -0.164974 0.986223 
0.0110836 -0.128682 0.991624 0.0427895 -0.127081 0.990969 0.0461644 -0.0478549 0.997787 
0.049089 -0.0366969 0.99812 0.0259203 -0.138503 0.990023 -0.0715206 -0.253034 0.96481 
-0.270647 -0.409885 0.871059 0.0658829 -0.0968984 0.993111 0.0338753 -0.119774 0.992223 
0.0538807 -0.122651 0.990986 -0.0243156 -0.135329 0.990502 -0.12746 -0.264676 0.955877 
0.322301 0.639637 0.697844 0.12389 0.749031 0.650849 0.0690423 0.751511 0.656098 
0.0588601 0.743969 0.665616 -0.0419282 0.736862 0.674742 -0.00232764 0.999784 -0.0206335 
-0.125612 0.7261 0.676019 -0.198417 0.730456 0.653502 0.34807 0.624392 0.699272 
0.366497 0.573606 0.732568 0.433519 0.858594 0.273637 -0.356984 0.701682 0.616607 
-0.373404 0.68536 0.625181 -0.392271 0.751127 0.530972 -0.343324 0.633471 0.693429 
0.445313 0.470474 0.761807 0.442848 0.428261 0.787705 0.542919 0.559151 0.62657 
-0.438834 0.599461 0.669381 -0.4709 0.564535 0.677904 -0.57182 0.704838 0.419792 
0.546517 0.302262 0.780998 0.653934 0.342669 0.674499 -0.655968 0.413472 0.631464 
-0.690714 0.360257 0.627 -0.75673 0.459116 0.465374 0.562984 0.0993408 0.820476 
0.567375 0.0917885 0.818328 0.578673 0.102959 0.809034 -0.69895 0.210312 0.683547 
0.583218 0.0349398 0.811564 -0.680711 0.0308611 0.731901 0.54655 -0.168806 0.820236 
0.535131 -0.186504 0.823924 -0.657235 -0.127634 0.7428 0.453823 -0.248907 0.855623 
0.642618 -0.29067 0.708909 0.340417 -0.331992 0.879715 -0.601012 -0.307432 0.737747 
-0.598814 -0.318608 0.734787 0.749344 -0.420457 0.511566 0.326896 -0.334856 0.883748 
0.348876 -0.347204 0.87048 0.24808 -0.345336 0.905096 -0.495048 -0.390415 0.776211 
-0.435083 -0.45257 0.778385 -0.78199 -0.513707 0.352981 0.531248 -0.503201 0.68159 
0.201222 -0.315507 0.927343 0.269283 -0.36706 0.890367 0.135692 -0.229383 0.963831 
0.0878114 -0.196383 0.976587 -0.21208 -0.405015 0.889373 -0.354573 -0.469341 0.808701 
-0.322821 -0.462532 0.825743 -0.585824 -0.636619 0.501525 0.446553 -0.475827 0.757746 
0.244501 -0.261959 0.933594 0.0976613 -0.166889 0.981127 0.116861 -0.206812 0.971376 
0.0816469 -0.164561 0.982982 0.0227137 -0.19718 0.980104 0.0402398 -0.246326 0.968351 
-0.0930224 -0.279254 0.955701 -0.194841 -0.36888 0.908826 -0.168058 -0.303794 0.937799 
-0.251102 -0.441609 0.861353 -0.548054 -0.664581 0.507906 0.405788 -0.50389 0.762516 
0.184447 -0.334383 0.924212 0.0970357 -0.252331 0.962763 0.0188128 -0.279278 0.960026 
0.0289349 -0.29718 0.954383 -0.103646 -0.303834 0.94707 -0.305243 -0.4492 0.83967 
-0.512613 -0.632144 0.581053 0.305489 -0.688994 0.657239 0.14219 -0.566603 0.81163 
0.0139529 -0.532649 0.846221 -0.0189769 -0.550935 0.834332 -0.173036 -0.634661 0.753169 
-0.409486 -0.712693 0.569553 0.00140008 0.996134 -0.0878365 0.415519 0.908559 0.0431821 
0.284232 0.957664 -0.0457464 0.173281 0.983055 -0.0598034 0.0950338 0.992448 -0.0775568 
0.0340527 0.995378 -0.0897985 0.062829 0.994032 -0.0891799 -0.0865971 0.993268 -0.0769407 
0.00088211 0.992063 -0.125741 -0.153549 0.985901 -0.0664974 -0.276737 0.959985 -0.0429706 
-0.345375 0.937992 -0.0297925 0.474923 0.877874 0.0615228 0.594433 0.794827 0.122066 
0.392557 0.882004 -0.260706 -0.437817 0.898829 0.0205644 -0.303772 0.774911 -0.554289 
-0.444976 0.895255 0.0226866 -0.607922 0.793819 0.0167758 0.725248 0.667488 0.168745 
0.784086 0.597022 0.169631 -0.675419 0.737353 0.0109106 -0.590908 0.669168 -0.450601 
-0.807755 0.58825 -0.0386534 0.867084 0.457943 0.196095 -0.859752 0.509516 -0.0349222 
-0.774865 0.53064 -0.343521 0.936839 0.226617 0.266416 -0.95007 0.311653 0.0154644 
0.965972 0.0616807 0.251186 -0.997744 0.0657021 0.0137639 0.950191 -0.160772 0.267001 
-0.993539 -0.0967803 0.0592743 0.869175 -0.338047 0.360915 -0.941425 -0.325395 0.0885249 
0.816146 -0.432078 0.383685 0.781623 -0.47933 0.399134 -0.839002 -0.522372 0.152324 
-0.809321 -0.565284 0.159542 -0.800819 -0.45771 -0.386253 0.664655 -0.560676 0.493839 
0.629371 -0.577276 0.520235 -0.719275 -0.664136 0.203881 -0.667565 -0.704314 0.241453 
0.605464 -0.566028 0.559487 0.760155 -0.647642 0.0521927 0.569311 -0.588449 0.574119 
-0.630543 -0.707716 0.318674 -0.622 -0.694624 0.361405 0.559898 -0.602657 0.568611 
0.692941 -0.694997 0.191865 0.485692 -0.63091 0.605026 -0.574323 -0.665248 0.477072 
-0.55629 -0.664332 0.499205 0.341369 -0.706739 0.619667 0.596024 -0.79311 0.125426 
0.311183 -0.716554 0.624272 0.200693 -0.716801 0.667771 0.0400863 -0.745199 0.665636 
-0.0906437 -0.743605 0.662446 -0.234789 -0.752903 0.614826 -0.42324 -0.720176 0.549741 
-0.411115 -0.725092 0.552473 0.214483 -0.970229 0.112487 0.0455097 -0.954913 0.293378 
-0.114248 -0.957823 0.263671 0.222758 0.802058 -0.55415 0.0700789 0.799427 -0.596662 
0.0198973 0.738547 -0.673909 0.041976 0.726939 -0.685418 -0.0204814 0.710817 -0.703079 
-0.0600228 0.704509 -0.707152 -0.162147 0.777339 -0.607826 0.478788 0.753713 -0.450198 
0.285336 0.792247 -0.539378 0.321269 0.784528 -0.530379 0.207273 0.732347 -0.648618 
0.039254 0.636169 -0.770551 0.0130881 0.623286 -0.781885 0.0358333 0.618968 -0.784598 
-0.0255013 0.598753 -0.800527 -0.0463844 0.610117 -0.790953 -0.284546 0.756313 -0.589087 
-0.140355 0.659422 -0.738555 -0.293782 0.752151 -0.589883 -0.368812 0.736637 -0.566871 
0.577107 0.711886 -0.400206 0.702186 0.62636 -0.338538 0.416227 0.687924 -0.594571 
0.161429 0.606041 -0.77888 0.0430206 0.49823 -0.865977 0.0230027 0.408938 -0.912272 
0.0247443 0.344544 -0.938444 -0.00351741 0.354643 -0.934995 -0.0208366 0.33617 -0.941571 
-0.0397407 0.336863 -0.940715 -0.0736322 0.409372 -0.909391 -0.126956 0.512605 -0.849187 
-0.540195 0.633932 -0.553462 -0.302937 0.581961 -0.754686 -0.56431 0.612719 -0.55329 
0.794737 0.51942 -0.313999 0.651057 0.510822 -0.561414 -0.662751 0.500452 -0.557054 
-0.471591 0.420472 -0.775116 -0.70573 0.455553 -0.542603 0.930587 0.248318 -0.268972 
-0.394264 0.214815 -0.893538 -0.807556 0.310482 -0.501451 -0.659473 0.323377 -0.678618 
0.974387 0.0714991 -0.213208 -0.850238 0.101 -0.516618 -0.651824 0.108472 -0.750573 
0.967042 -0.130939 -0.218368 -0.879714 -0.0642191 -0.471148 -0.661157 -0.01004 -0.750181 
0.950029 -0.274475 -0.148688 -0.865017 -0.26515 -0.425958 -0.800633 -0.457372 -0.387038 
-0.737149 -0.222401 -0.638082 0.902572 -0.41789 -0.103599 0.861574 -0.501907 -0.0760201 
0.809769 -0.330859 -0.484569 -0.80058 -0.457485 -0.387013 0.836214 -0.545911 -0.0522312 
-0.755247 -0.584767 -0.296055 -0.743835 -0.615848 -0.259692 -0.71877 -0.516657 -0.465225 
0.764984 -0.643928 -0.012529 0.762162 -0.647269 -0.012313 0.760859 -0.644868 -0.0723766 
-0.749401 -0.640625 -0.167323 -0.766928 -0.634068 -0.0988889 -0.713928 -0.499927 -0.490285 
0.715998 -0.698099 -0.00204823 0.711339 -0.702848 -0.00105931 0.696824 -0.688915 -0.19958 
-0.755329 -0.655275 -0.00958154 -0.692607 -0.719437 0.0520218 0.611984 -0.789805 0.041031 
0.599834 -0.798927 0.0437524 0.609929 -0.78876 -0.076453 0.427528 -0.900941 0.0743262 
-0.308667 -0.941556 0.134895 -0.623007 -0.779219 0.0684148 -0.511607 -0.855349 0.0814606 
0.222179 -0.970325 0.0954271 0.213891 -0.972175 0.0955354 0.219053 -0.9739 0.0594552 
0.0498421 -0.989934 0.132463 -0.217201 -0.967052 0.132794 -0.115667 -0.984946 0.128463 
-0.104191 -0.948071 -0.300508 0.319539 0.518721 -0.792984 0.129077 0.541825 -0.830521 
0.0116882 0.465212 -0.885122 -0.0174385 0.378063 -0.925616 0.0110021 0.287638 -0.957676 
0.00254965 0.320202 -0.947346 -0.0304772 0.292984 -0.955631 -0.0200986 0.277276 -0.96058 
-0.0209421 0.368674 -0.929323 -0.103475 0.431345 -0.896233 -0.219223 0.357235 -0.907923 
0.388115 0.480563 -0.786401 0.602987 0.268644 -0.751157 0.313848 0.48038 -0.818984 
0.0958296 0.43985 -0.892944 -0.0664329 0.38461 -0.920686 -0.11218 0.324074 -0.939357 
-0.0118 0.21474 -0.9766 0.0290619 0.238006 -0.970829 -0.0543337 0.223234 -0.97325 
0.00573309 0.231643 -0.972784 0.0419626 0.319655 -0.946604 -0.0937353 0.369906 -0.924328 
-0.221622 0.356542 -0.907613 -0.218892 0.35595 -0.908508 0.61037 0.256772 -0.749344 
0.602886 0.258164 -0.754904 0.285493 0.270691 -0.919358 0.0668866 0.258035 -0.963818 
-0.0824009 0.273963 -0.958204 -0.17214 0.289152 -0.941679 -0.0660318 0.258716 -0.963694 
0.00550071 0.213844 -0.976852 -0.0251697 0.21461 -0.976375 0.0596792 0.298747 -0.952464 
0.0638142 0.274655 -0.959423 -0.0734656 0.251097 -0.96517 -0.385216 0.215032 -0.897424 
-0.238904 0.246267 -0.939296 -0.393158 0.206282 -0.896032 0.703507 0.115191 -0.701291 
0.597671 0.108059 -0.794426 0.252992 0.150621 -0.955672 0.0745007 0.161855 -0.983998 
-0.0565908 0.127607 -0.990209 -0.118712 0.157626 -0.980338 -0.0896184 0.292067 -0.95219 
-0.0286389 0.211957 -0.976859 0.0443566 0.251792 -0.966764 0.070233 0.315286 -0.946394 
-0.0196703 0.210112 -0.977479 -0.118187 0.169186 -0.978472 -0.249755 0.158571 -0.955237 
-0.470825 0.128205 -0.872862 -0.394622 0.137595 -0.908483 0.710118 -0.0598618 -0.701533 
0.608135 -0.0454151 -0.792533 0.323076 0.0131539 -0.946282 -0.0825941 0.0161508 -0.996452 
-0.030675 0.0187305 -0.999354 9.98142e-05 0.0569261 -0.998378 -0.0171711 0.207491 -0.978086 
0.0679718 0.146894 -0.986814 -0.0794465 0.0823134 -0.993435 -0.129545 0.0802967 -0.988317 
-0.259482 0.0681568 -0.96334 -0.532747 0.0260277 -0.845874 -0.434635 0.0436923 -0.899546 
0.74023 -0.181847 -0.647295 0.751207 -0.254702 -0.608946 0.68375 -0.158049 -0.712395 
0.322991 -0.102434 -0.940842 -0.081209 0.00945807 -0.996652 -0.0753642 0.0419169 -0.996275 
0.0913921 0.0261333 -0.995472 -0.0993716 -0.0235826 -0.994771 0.0136145 -0.054302 -0.998432 
0.00885914 0.0173995 -0.999809 -0.132835 0.0133997 -0.991048 -0.283764 -0.0123878 -0.958814 
-0.569031 -0.148502 -0.808796 -0.452119 -0.101908 -0.886117 0.744135 -0.295974 -0.598884 
0.411981 -0.253244 -0.875294 0.166078 -0.161974 -0.972719 -0.015317 0.0709418 -0.997363 
0.0175623 0.147555 -0.988898 -0.0517909 0.083813 -0.995135 0.0525197 0.1015 -0.993448 
-0.013432 0.0430841 -0.998981 -0.1439 -0.0291966 -0.989161 -0.365938 -0.131454 -0.921309 
-0.578045 -0.289083 -0.763082 -0.584405 -0.298232 -0.754671 -0.571458 -0.280203 -0.771312 
0.642512 -0.453577 -0.617613 0.620899 -0.503065 -0.601173 0.549197 -0.413707 -0.726105 
0.295009 -0.278189 -0.914101 0.147314 -0.147461 -0.978036 -0.303878 -0.0693567 -0.950183 
-0.612473 -0.37521 -0.695769 -0.657204 -0.42546 -0.622147 -0.503214 -0.295193 -0.81218 
0.581822 -0.521042 -0.624499 0.561597 -0.551838 -0.616509 0.435559 -0.420174 -0.796079 
0.292805 -0.278489 -0.914718 0.225479 -0.0801495 -0.970946 -0.674739 -0.429983 -0.599868 
-0.485361 -0.218634 -0.846536 0.5523 -0.552865 -0.623943 0.520751 -0.590116 -0.616913 
0.441502 -0.412183 -0.796982 0.334038 -0.306291 -0.891406 -0.328709 -0.317137 -0.889592 
-0.705859 -0.50474 -0.496991 -0.664641 -0.582615 -0.467774 -0.644545 -0.47184 -0.601605 
0.483662 -0.649354 -0.586866 0.422754 -0.68113 -0.59778 0.392888 -0.59764 -0.698903 
0.275852 -0.836736 -0.473053 0.310062 -0.505055 -0.805469 0.106488 -0.431611 -0.895753 
-0.101363 -0.926926 -0.361295 -0.06995 -0.424536 -0.902705 -0.316486 -0.862914 -0.393974 
-0.285509 -0.530483 -0.798168 -0.553401 -0.702799 -0.447013 -0.513298 -0.732814 -0.446665 
-0.489786 -0.6687 -0.559419 0.0869678 -0.919872 -0.382454 -0.0146682 -0.929451 -0.368654 
0.0701649 -0.92342 -0.377321 0.0714284 -0.918501 -0.388913 0.0621836 0.113562 -0.991583 
0.0130458 0.0578485 -0.99824 0.140457 0.0332398 -0.989529 -0.0620737 0.0202581 -0.997866 
0.047193 0.0396893 -0.998097 0.0254065 0.112716 -0.993302 0.0157156 0.0548777 -0.998369 
-0.00386361 0.048563 -0.998813 0.00967987 0.0330948 -0.999405 0.00928737 0.0420472 -0.999072 
0.125368 -0.0679284 -0.989782 -0.0630848 0.00157418 -0.998007 0.112418 -0.103301 -0.988277 
0.0718725 -0.0538121 -0.995961 -0.0393013 -0.00667546 -0.999205 0.0614559 0.0462505 -0.997038 
-0.0264837 0.0140675 -0.99955 0.0485901 0.0547611 -0.997316 0.034547 -0.0447381 -0.998401 
0.00824898 -0.00353285 -0.99996 0.0318478 -0.0422589 -0.998599 0.0157156 -0.0279825 -0.999485 
0.0413277 0.0357593 -0.998506 -0.0373616 0.0776636 -0.996279 0.0244328 0.139561 -0.989912 
-0.0608425 0.0490155 -0.996943 -0.0612399 0.0470284 -0.997015 -0.0440951 0.146659 -0.988204 
0.0106089 0.124004 -0.992225 -0.0620201 0.0521631 -0.996711 0.115111 -0.0464366 -0.992267 
0.160686 -0.037951 -0.986276 0.101424 -0.00137156 -0.994842 0.0642688 0.093219 -0.993569 
-0.0206754 0.124233 -0.992038 -0.0379477 0.192435 -0.980576 -0.0244266 0.143217 -0.98939 
-0.158063 0.0386803 -0.986671 -0.11713 0.0618761 -0.991187 0.213319 -0.0710451 -0.974396 
0.148791 -0.0319551 -0.988352 0.0420007 0.0361662 -0.998463 -0.0349195 0.0736606 -0.996672 
-0.0891262 0.0191983 -0.995835 -0.270458 -0.0858135 -0.958899 -0.280316 -0.217066 -0.935043 
-0.20017 -0.0464289 -0.97866 0.237387 -0.243152 -0.940492 0.211151 -0.261701 -0.941768 
0.19034 -0.211687 -0.958624 0.102504 -0.359667 -0.927433 0.0777887 -0.159863 -0.984069 
-0.0674445 -0.363621 -0.929102 -0.0531444 -0.150555 -0.987172 -0.2723 -0.277762 -0.92125 
-0.191257 -0.29448 -0.936324 -0.153367 -0.191238 -0.969488 
