# vtk DataFile Version 4.2
vtk output
ASCII
DATASET POLYDATA
POINTS 518 float
-29.2557 -34.0878 -15.4361 -21.4167 -34.0878 -16.75 -13.5778 -34.0878 -17.1662 
-5.73884 -34.0878 -17.482 2.10011 -34.0878 -16.9534 9.93906 -34.0878 -16.4334 
17.778 -34.0878 -15.79 -37.0946 -26.2488 -18.2151 -29.2557 -26.2488 -19.1019 
-21.4167 -26.2488 -19.3931 -13.5778 -26.2488 -19.8679 -5.73884 -26.2488 -19.539 
2.10011 -26.2488 -19.4508 9.93906 -26.2488 -19.3396 17.778 -26.2488 -19.1966 
25.617 -26.2488 -18.4529 33.4559 -26.2488 -15.8932 -44.9336 -18.4099 -16.9605 
-37.0946 -18.4099 -19.2096 -29.2557 -18.4099 -19.9078 -21.4167 -18.4099 -19.8854 
-13.5778 -18.4099 -19.6409 -5.73884 -18.4099 -19.8648 2.10011 -18.4099 -19.731 
9.93906 -18.4099 -20.0622 17.778 -18.4099 -19.9808 25.617 -18.4099 -19.4374 
33.4559 -18.4099 -18.6262 41.2949 -18.4099 -16.8442 -52.7725 -10.5709 -15.2956 
-44.9336 -10.5709 -19.0331 -37.0946 -10.5709 -19.9937 -29.2557 -10.5709 -19.8186 
-21.4167 -10.5709 -19.5193 -13.5778 -10.5709 -19.4063 -5.73884 -10.5709 -19.5168 
2.10011 -10.5709 -19.2253 9.93906 -10.5709 -20.0024 17.778 -10.5709 -18.9933 
25.617 -10.5709 -19.1566 33.4559 -10.5709 -19.7671 41.2949 -10.5709 -18.8449 
49.1338 -10.5709 -16.6386 -52.7725 -2.73197 -16.2849 -44.9336 -2.73197 -19.0729 
-37.0946 -2.73197 -20.4713 -29.2557 -2.73197 -19.7537 -21.4167 -2.73197 -18.4295 
-13.5778 -2.73197 -20.2013 -5.73884 -2.73197 -20.7859 2.10011 -2.73197 -18.4343 
9.93906 -2.73197 -21.3807 17.778 -2.73197 -18.332 25.617 -2.73197 -19.3006 
33.4559 -2.73197 -20.1769 41.2949 -2.73197 -20.0303 49.1338 -2.73197 -18.2138 
-52.7725 5.10698 -16.5468 -44.9336 5.10698 -19.4187 -37.0946 5.10698 -21.0199 
-29.2557 5.10698 -20.1107 -21.4167 5.10698 -18.9031 -13.5778 5.10698 -19.0476 
-5.73884 5.10698 -21.1145 2.10011 5.10698 -18.8844 9.93906 5.10698 -20.8035 
17.778 5.10698 -18.8437 25.617 5.10698 -19.6168 33.4559 5.10698 -20.2258 
41.2949 5.10698 -20.0339 49.1338 5.10698 -18.1962 -52.7725 12.9459 -15.3668 
-44.9336 12.9459 -20.1228 -37.0946 12.9459 -20.9853 -29.2557 12.9459 -20.7465 
-21.4167 12.9459 -19.7422 -13.5778 12.9459 -19.0344 -5.73884 12.9459 -19.5282 
2.10011 12.9459 -19.2677 9.93906 12.9459 -19.3733 17.778 12.9459 -19.2508 
25.617 12.9459 -19.9849 33.4559 12.9459 -20.3093 41.2949 12.9459 -18.7544 
49.1338 12.9459 -15.938 -44.9336 20.7849 -18.0653 -37.0946 20.7849 -19.6543 
-29.2557 20.7849 -20.3615 -21.4167 20.7849 -20.3337 -13.5778 20.7849 -19.6113 
-5.73884 20.7849 -19.7329 2.10011 20.7849 -19.9435 9.93906 20.7849 -19.871 
17.778 20.7849 -19.7065 25.617 20.7849 -19.2714 33.4559 20.7849 -18.2437 
41.2949 20.7849 -15.827 -37.0946 28.6238 -16.8459 -29.2557 28.6238 -18.5815 
-21.4167 28.6238 -19.7241 -13.5778 28.6238 -19.4677 -5.73884 28.6238 -20.2331 
2.10011 28.6238 -20.0195 9.93906 28.6238 -19.8901 17.778 28.6238 -19.1993 
25.617 28.6238 -17.8357 33.4559 28.6238 -15.333 -21.4167 36.4628 -16.1166 
-13.5778 36.4628 -17.8303 -5.73884 36.4628 -18.3857 2.10011 36.4628 -18.2207 
9.93906 36.4628 -17.4863 17.778 36.4628 -15.9259 -29.2557 -35.3265 -14.2196 
-21.4167 -36.9846 -14.2196 -13.5778 -37.5065 -14.2196 -5.73884 -37.7836 -14.2196 
2.10011 -37.3614 -14.2196 9.93906 -36.7369 -14.2196 17.778 -35.79 -14.2196 
-33.0969 -34.0878 -14.2196 -37.0946 -32.2785 -14.2196 -37.0946 -34.0878 -12.1507 
23.9007 -34.0878 -14.2196 25.617 -33.3772 -14.2196 25.617 -34.0878 -13.4937 
33.4559 -28.8279 -14.2196 33.4559 -34.0878 -7.44188 -44.8855 -26.2488 -14.2196 
-44.9336 -26.1856 -14.2196 -44.9336 -26.2488 -14.184 37.5894 -26.2488 -14.2196 
41.2949 -23.2948 -14.2196 41.2949 -26.2488 -11.7564 -49.5253 -18.4099 -14.2196 
-52.7725 -13.4977 -14.2196 -52.7725 -18.4099 -11.1284 47.11 -18.4099 -14.2196 
49.1338 -16.3673 -14.2196 49.1338 -18.4099 -12.9743 -54.3261 -10.5709 -14.2196 
53.1606 -10.5709 -14.2196 56.9728 -10.5709 -10.8401 -55.9576 -2.73197 -14.2196 
56.3029 -2.73197 -14.2196 56.9728 -2.73197 -13.6924 -55.5849 5.10698 -14.2196 
55.761 5.10698 -14.2196 56.9728 5.10698 -13.1594 -54.1199 12.9459 -14.2196 
-52.7725 15.744 -14.2196 51.5221 12.9459 -14.2196 49.1338 15.9077 -14.2196 
56.9728 12.9459 -6.9436 -50.1289 20.7849 -14.2196 -52.7725 20.7849 -9.7823 
-44.9336 26.6634 -14.2196 43.9652 20.7849 -14.2196 41.2949 23.4673 -14.2196 
49.1338 20.7849 -8.99201 -42.0982 28.6238 -14.2196 -44.9336 28.6238 -10.9993 
-37.0946 31.7632 -14.2196 -29.2557 36.4078 -14.2196 25.617 36.3383 -14.2196 
35.4807 28.6238 -14.2196 33.4559 30.2305 -14.2196 41.2949 28.6238 -8.96759 
-29.1231 36.4628 -14.2196 -29.2557 36.4628 -14.1351 -21.4167 38.7464 -14.2196 
-13.5778 41.6005 -14.2196 -5.73884 42.3638 -14.2196 2.10011 42.5214 -14.2196 
9.93906 40.5546 -14.2196 25.3427 36.4628 -14.2196 17.778 38.4024 -14.2196 
25.617 36.4628 -14.0964 33.4559 36.4628 -6.40702 -13.5778 44.3017 -6.58433 
-5.73884 44.3017 -10.0616 2.10011 44.3017 -10.2374 -37.0946 -36.9751 -6.38061 
-29.2557 -39.5523 -6.38061 -21.4167 -40.6689 -6.38061 -13.5778 -41.1358 -6.38061 
-5.73884 -41.5655 -6.38061 2.10011 -41.5447 -6.38061 9.93906 -41.2932 -6.38061 
17.778 -40.1815 -6.38061 25.617 -38.0809 -6.38061 33.4559 -34.6509 -6.38061 
-42.0539 -34.0878 -6.38061 -44.9336 -32.018 -6.38061 34.521 -34.0878 -6.38061 
41.2949 -30.0951 -6.38061 -50.8815 -26.2488 -6.38061 -52.7725 -23.5588 -6.38061 
47.101 -26.2488 -6.38061 49.1338 -24.6773 -6.38061 49.1338 -26.2488 -1.33341 
-55.9007 -18.4099 -6.38061 55.7958 -18.4099 -6.38061 56.9728 -16.7732 -6.38061 
56.9728 -18.4099 -1.84941 -59.6222 -10.5709 -6.38061 60.3401 -10.5709 -6.38061 
-60.5762 -2.73197 -6.38061 -60.6115 -2.73197 -5.23395 62.1801 -2.73197 -6.38061 
-60.2614 5.10698 -6.38061 61.5952 5.10698 -6.38061 -58.2076 12.9459 -6.38061 
57.2921 12.9459 -6.38061 56.9728 13.4056 -6.38061 -54.3141 20.7849 -6.38061 
-52.7725 22.7245 -6.38061 -52.7725 20.7849 0.730573 50.8968 20.7849 -6.38061 
49.1338 22.7704 -6.38061 -47.1858 28.6238 -6.38061 -44.9336 30.6118 -6.38061 
-37.0946 35.831 -6.38061 43.2495 28.6238 -6.38061 41.2949 30.3812 -6.38061 
-35.8067 36.4628 -6.38061 -29.2557 39.367 -6.38061 -21.4167 42.26 -6.38061 
9.93906 43.7165 -6.38061 17.778 42.1325 -6.38061 25.617 40.0771 -6.38061 
33.4768 36.4628 -6.38061 33.4559 36.4771 -6.38061 33.4559 36.4628 -5.10684 
-13.7805 44.3017 -6.38061 -13.5778 44.3539 -6.38061 -13.5778 44.3017 -6.19749 
-5.73884 45.3562 -6.38061 -5.73884 44.3017 -2.29485 7.04916 44.3017 -6.38061 
2.10011 45.2692 -6.38061 2.10011 44.3017 -2.30412 -37.0946 -36.1547 1.45834 
-29.2557 -38.7686 1.45834 -21.4167 -40.0187 1.45834 -13.5778 -40.6575 1.45834 
-5.73884 -41.2867 1.45834 2.10011 -41.4038 1.45834 9.93906 -41.5579 1.45834 
17.778 -40.6562 1.45834 25.617 -38.5708 1.45834 33.4559 -35.3817 1.45834 
-40.5425 -34.0878 1.45834 -44.9336 -31.2244 1.45834 -37.0946 -34.0878 5.56551 
36.2313 -34.0878 1.45834 33.4559 -34.0878 6.06772 41.2949 -31.5037 1.45834 
49.1338 -26.8636 1.45834 -50.3473 -26.2488 1.45834 -52.7725 -23.4109 1.45834 
49.9241 -26.2488 1.45834 49.1338 -26.2488 4.14019 56.9728 -19.15 1.45834 
-56.2066 -18.4099 1.45834 57.6371 -18.4099 1.45834 56.9728 -18.4099 4.10021 
-59.7937 -10.5709 1.45834 -60.6115 -4.29595 1.45834 61.9603 -10.5709 1.45834 
-60.8048 -2.73197 1.45834 -60.6115 -1.27851 1.45834 -60.6115 -2.73197 2.07703 
63.2509 -2.73197 1.45834 -59.7482 5.10698 1.45834 62.2496 5.10698 1.45834 
-57.5054 12.9459 1.45834 -52.7725 20.5031 1.45834 58.014 12.9459 1.45834 
56.9728 14.4189 1.45834 56.9728 12.9459 4.77606 -52.5838 20.7849 1.45834 
51.6841 20.7849 1.45834 49.1338 23.6245 1.45834 49.1338 20.7849 8.44656 
-45.0796 28.6238 1.45834 -44.9336 28.7656 1.45834 -44.9336 28.6238 1.73195 
-37.0946 34.1696 1.45834 33.4559 36.3926 1.45834 43.9984 28.6238 1.45834 
41.2949 30.9722 1.45834 41.2949 28.6238 7.08977 -32.1301 36.4628 1.45834 
-29.2557 37.684 1.45834 -29.2557 36.4628 4.09237 -21.4167 40.0738 1.45834 
-21.4167 36.4628 7.90025 -13.5778 41.9827 1.45834 -5.73884 43.1734 1.45834 
2.10011 43.3652 1.45834 9.93906 42.4325 1.45834 17.778 41.2187 1.45834 
33.2911 36.4628 1.45834 25.617 39.4632 1.45834 25.617 36.4628 7.64135 
-29.2557 -35.1754 9.29729 -21.4167 -36.9878 9.29729 -13.5778 -37.7184 9.29729 
-5.73884 -38.1654 9.29729 2.10011 -38.3452 9.29729 9.93906 -38.3547 9.29729 
17.778 -37.7552 9.29729 25.617 -35.8965 9.29729 -44.9336 -27.0567 9.29729 
-32.1309 -34.0878 9.29729 -37.0946 -31.8339 9.29729 -29.2557 -34.0878 10.6803 
-21.4167 -34.0878 12.9288 -13.5778 -34.0878 13.7826 -5.73884 -34.0878 13.7819 
2.10011 -34.0878 13.3925 9.93906 -34.0878 13.5302 17.778 -34.0878 13.5716 
30.7629 -34.0878 9.29729 25.617 -34.0878 11.6863 33.4559 -33.0668 9.29729 
41.2949 -29.4676 9.29729 -45.819 -26.2488 9.29729 -52.7725 -18.7412 9.29729 
-44.9336 -26.2488 10.1332 -37.0946 -26.2488 14.6881 -29.2557 -26.2488 16.9103 
33.4559 -26.2488 16.6988 46.8111 -26.2488 9.29729 41.2949 -26.2488 13.5886 
49.1338 -24.618 9.29729 -53.0159 -18.4099 9.29729 -52.7725 -18.4099 9.60348 
-44.9336 -18.4099 16.1928 55.4055 -18.4099 9.29729 49.1338 -18.4099 15.601 
56.9728 -16.0502 9.29729 -56.9771 -10.5709 9.29729 -52.7725 -10.5709 14.7486 
59.7804 -10.5709 9.29729 56.9728 -10.5709 12.9521 -58.0358 -2.73197 9.29729 
-52.7725 -2.73197 16.2341 61.0577 -2.73197 9.29729 56.9728 -2.73197 14.5085 
-56.8754 5.10698 9.29729 -52.7725 5.10698 14.746 60.1991 5.10698 9.29729 
56.9728 10.5962 9.29729 56.9728 5.10698 13.5276 -53.7655 12.9459 9.29729 
-52.7725 14.424 9.29729 -52.7725 12.9459 10.4787 55.3278 12.9459 9.29729 
49.1338 20.4156 9.29729 49.1338 12.9459 15.8989 -48.3344 20.7849 9.29729 
-44.9336 24.3731 9.29729 -44.9336 20.7849 13.2 9.93906 20.7849 16.9945 
48.7512 20.7849 9.29729 41.2949 27.5829 9.29729 41.2949 20.7849 15.6537 
-39.8353 28.6238 9.29729 -37.0946 30.5202 9.29729 -37.0946 28.6238 11.7475 
-29.2557 33.7759 9.29729 -29.2557 28.6238 15.7732 -21.4167 35.5831 9.29729 
-21.4167 28.6238 16.3295 -13.5778 28.6238 16.2015 -5.73884 28.6238 16.6308 
2.10011 28.6238 16.9121 9.93906 28.6238 15.7412 17.778 28.6238 14.762 
25.617 35.3312 9.29729 25.617 28.6238 14.7189 39.7375 28.6238 9.29729 
[...]
POINT_DATA 518
SCALARS ImageScalars float
LOOKUP_TABLE default
0 0 0 0 0 0 0 0 0 
0 0 0 0 0 0 0 0 0 
0 0 0 0 0 0 0 0 0 
0 0 0 0 0 0 0 0 0 
0 0 0 0 0 0 0 0 0 
0 0 0 0 0 0 0 0 0 
0 0 0 0 0 0 0 0 0 
0 0 0 0 0 0 0 0 0 
0 0 0 0 0 0 0 0 0 
0 0 0 0 0 0 0 0 0 
0 0 0 0 0 0 0 0 0 
0 0 0 0 0 0 0 0 0 
0 0 0 0 0 0 0 0 0 
0 0 0 0 0 0 0 0 0 
0 0 0 0 0 0 0 0 0 
0 0 0 0 0 0 0 0 0 
0 0 0 0 0 0 0 0 0 
0 0 0 0 0 0 0 0 0 
0 0 0 0 0 0 0 0 0 
0 0 0 0 0 0 0 0 0 
0 0 0 0 0 0 0 0 0 
0 0 0 0 0 0 0 0 0 
0 0 0 0 0 0 0 0 0 
0 0 0 0 0 0 0 0 0 
0 0 0 0 0 0 0 0 0 
0 0 0 0 0 0 0 0 0 
0 0 0 0 0 0 0 0 0 
0 0 0 0 0 0 0 0 0 
0 0 0 0 0 0 0 0 0 
0 0 0 0 0 0 0 0 0 
0 0 0 0 0 0 0 0 0 
0 0 0 0 0 0 0 0 0 
0 0 0 0 0 0 0 0 0 
0 0 0 0 0 0 0 0 0 
0 0 0 0 0 0 0 0 0 
0 0 0 0 0 0 0 0 0 
0 0 0 0 0 0 0 0 0 
0 0 0 0 0 0 0 0 0 
0 0 0 0 0 0 0 0 0 
0 0 0 0 0 0 0 0 0 
0 0 0 0 0 0 0 0 0 
0 0 0 0 0 0 0 0 0 
0 0 0 0 0 0 0 0 0 
0 0 0 0 0 0 0 0 0 
0 0 0 0 0 0 0 0 0 
0 0 0 0 0 0 0 0 0 
0 0 0 0 0 0 0 0 0 
0 0 0 0 0 0 0 0 0 
0 0 0 0 0 0 0 0 0 
0 0 0 0 0 0 0 0 0 
0 0 0 0 0 0 0 0 0 
0 0 0 0 0 0 0 0 0 
0 0 0 0 0 0 0 0 0 
0 0 0 0 0 0 0 0 0 
0 0 0 0 0 0 0 0 0 
0 0 0 0 0 0 0 0 0 
0 0 0 0 0 0 0 0 0 
0 0 0 0 0 
NORMALS Normals float
0.213987 0.636064 0.741372 0.0921074 0.553503 0.827738 0.0432638 0.529308 0.847326 
-0.011569 0.493214 0.869831 -0.0609957 0.508469 0.858917 -0.0656047 0.545072 0.835818 
-0.138657 0.611379 0.779096 0.282986 0.33662 0.898113 0.0646001 0.232632 0.970417 
0.0467711 0.178783 0.982776 0.00917689 0.135347 0.990756 -0.0257576 0.130829 0.99107 
-0.0127426 0.149422 0.988691 -0.0154877 0.199132 0.97985 -0.0521624 0.238968 0.969625 
-0.19546 0.290369 0.93674 -0.318631 0.444502 0.837193 0.368761 0.273152 0.888484 
0.171992 0.0999244 0.980017 0.0411107 0.0425631 0.998248 -0.0170241 0.00729934 0.999828 
-0.00133394 -0.0292386 0.999572 0.00577658 -0.00160238 0.999982 0.0125907 -0.0144693 0.999816 
0.0159299 0.0423732 0.998975 -0.0392796 -0.0125275 0.99915 -0.0855578 0.0377415 0.995618 
-0.146675 0.233434 0.961247 -0.308321 0.350315 0.88443 0.530269 0.216109 0.819825 
0.281362 0.117389 0.952394 0.0431561 0.0798628 0.995871 -0.0298643 -0.00982132 0.999506 
-0.0264537 -0.0879011 0.995778 -0.000198025 0.0231977 0.999731 -0.0116267 0.045912 0.998878 
0.0313713 -0.0765026 0.996576 -0.0120575 0.072558 0.997291 -0.0548915 -0.106867 0.992757 
0.053116 -0.008835 0.998549 -0.0177785 0.0931397 0.995494 -0.187571 0.179886 0.965639 
-0.385128 0.277211 0.880245 0.493062 0.0773736 0.866547 0.247194 0.0251486 0.96864 
0.0495261 0.0647416 0.996672 -0.123017 0.0186985 0.992228 0.000543552 -0.0437504 0.999042 
0.156977 -0.0183106 0.987433 -0.12082 0.118069 0.985628 0.0430304 -0.0260633 0.998734 
-0.0352451 0.0586814 0.997654 -0.111529 -0.00780603 0.993731 0.11816 0.0294459 0.992558 
0.0455694 0.0311255 0.998476 -0.1165 0.0742517 0.990411 -0.32693 0.0911652 0.940641 
0.555209 -0.0482585 0.83031 0.259627 0.0581292 0.963958 0.0531712 0.032932 0.998042 
-0.12647 0.0632861 0.98995 -0.0721982 0.0854062 0.993727 0.135708 -0.0615753 0.988834 
-0.0169661 -0.0928481 0.995536 -0.0132698 0.0523402 0.998541 -0.00978745 -0.129518 0.991529 
-0.065405 0.0587178 0.99613 0.0877971 0.0416524 0.995267 0.0268857 0.00815499 0.999605 
-0.120757 -0.0806205 0.989403 -0.354323 -0.136571 0.925097 0.639239 -0.240615 0.730396 
0.305954 -0.0670147 0.949685 0.0314977 -0.0859377 0.995803 -0.0785629 0.014098 0.996809 
-0.108162 0.0853465 0.990463 -0.0135925 0.03603 0.999258 0.0148922 -0.0756297 0.997025 
-0.00986782 0.0660352 0.997769 -0.00108523 -0.0518125 0.998656 0.0360774 0.054852 0.997842 
0.0685028 -0.0222371 0.997403 -0.0760928 -0.11428 0.99053 -0.252736 -0.229707 0.939872 
-0.476711 -0.365359 0.799537 0.390758 -0.403597 0.827295 0.140237 -0.221469 0.965031 
0.0397047 -0.124864 0.991379 -0.0483893 0.0026324 0.998825 -0.0378977 0.0277439 0.998896 
0.0211681 0.0438121 0.998815 0.00879593 0.0481306 0.998802 -0.0151343 0.032869 0.999345 
-0.0379018 -0.00399142 0.999273 -0.0879593 -0.124848 0.988269 -0.195318 -0.277679 0.940609 
-0.384793 -0.438819 0.812017 0.328344 -0.522191 0.787088 0.15629 -0.355106 0.921669 
0.0511923 -0.238738 0.969734 0.0327283 -0.11508 0.992817 0.0334364 -0.0694636 0.997024 
-0.0206811 -0.0900521 0.995722 -0.0550353 -0.138364 0.988851 -0.119761 -0.207818 0.970808 
-0.225102 -0.287996 0.930799 -0.377671 -0.463663 0.801487 0.220161 -0.584305 0.7811 
0.134475 -0.410242 0.902008 0.0283848 -0.395805 0.917896 -0.0555339 -0.399997 0.914833 
-0.137177 -0.50212 0.853849 -0.18965 -0.605081 0.773246 0.217581 0.6973 0.682958 
0.111454 0.721001 0.683912 0.0427772 0.741106 0.670024 -0.00618146 0.741816 0.670575 
-0.0532436 0.70859 0.703609 -0.0798684 0.687751 0.72154 -0.158065 0.690275 0.706071 
0.294807 0.66178 0.689301 0.359806 0.602465 0.712443 0.395399 0.736428 0.548939 
-0.26458 0.681403 0.682413 -0.290867 0.665191 0.68769 -0.30297 0.714467 0.630671 
-0.358607 0.548601 0.755273 -0.433673 0.842752 0.318901 0.522662 0.451525 0.723152 
0.522947 0.450332 0.72369 0.524739 0.453109 0.720654 -0.38527 0.53015 0.75532 
-0.399105 0.510621 0.761566 -0.472036 0.645068 0.60089 0.548203 0.353127 0.758139 
0.57856 0.300917 0.758101 0.730775 0.44333 0.519062 -0.42381 0.453463 0.784064 
-0.447415 0.426092 0.786299 -0.483569 0.50357 0.715946 0.594406 0.240997 0.767204 
-0.538425 0.294155 0.789666 -0.72599 0.332531 0.601965 0.65197 0.0517357 0.756478 
-0.637262 0.0964769 0.764584 -0.678412 0.0972651 0.728215 0.699935 -0.0835265 0.709305 
-0.637498 -0.20457 0.742797 -0.705528 -0.229119 0.670623 0.691 -0.267861 0.671394 
0.691447 -0.341472 0.63663 -0.567817 -0.403382 0.717542 -0.533979 -0.459644 0.709643 
-0.796463 -0.527108 0.296318 0.668736 -0.456152 0.587126 0.794678 -0.535693 0.285517 
0.516731 -0.609072 0.601681 -0.471917 -0.501895 0.724842 -0.450131 -0.504049 0.7371 
-0.66907 -0.634501 0.38698 0.471619 -0.636894 0.60987 0.588378 -0.718165 0.371551 
0.405442 -0.660945 0.631481 0.320503 -0.727381 0.606791 -0.335886 -0.669021 0.663017 
-0.423547 -0.508434 0.749735 -0.411775 -0.520617 0.74793 -0.614723 -0.678231 0.40264 
0.320127 -0.72742 0.606942 0.32253 -0.732512 0.599501 0.271448 -0.691832 0.669092 
0.178486 -0.754631 0.631407 0.0451468 -0.777353 0.627442 -0.095533 -0.778065 0.620877 
-0.191578 -0.74343 0.640789 -0.331767 -0.673204 0.660853 -0.216164 -0.706311 0.67409 
-0.337576 -0.679207 0.651706 -0.504573 -0.833951 0.223454 0.190988 -0.981591 -0.00137756 
0.0632109 -0.96456 0.256179 -0.110202 -0.956957 0.268495 0.407737 0.900888 0.148832 
0.228148 0.960847 0.157233 0.0978387 0.984956 0.142444 0.0571296 0.98816 0.142394 
0.0257255 0.986371 0.162515 -0.0169452 0.984184 0.176336 -0.0842417 0.971202 0.222869 
-0.193312 0.948413 0.251282 -0.318176 0.913173 0.254714 -0.432314 0.86144 0.266505 
0.54447 0.823853 0.157535 0.624052 0.761664 0.174434 -0.444375 0.853154 0.273239 
-0.521897 0.789014 0.324161 0.742732 0.633818 0.215925 0.78877 0.566268 0.239127 
-0.56563 0.742612 0.358595 -0.585896 0.71843 0.374945 -0.595805 0.793326 0.125099 
0.854509 0.452246 0.255516 -0.705881 0.605684 0.367259 -0.743682 0.554862 0.372913 
-0.76442 0.630214 0.135984 0.937072 0.258912 0.234224 -0.850795 0.341732 0.399207 
0.978938 0.0360087 0.200957 0.988192 0.0300604 0.150242 -0.938771 0.0632045 0.338694 
0.969582 -0.133971 0.204849 -0.910728 -0.279405 0.304149 0.927447 -0.340659 0.15425 
-0.803215 -0.530355 0.271237 -0.797713 -0.539177 0.270077 0.827306 -0.553562 0.0955764 
0.791804 -0.603931 0.0911821 0.787499 -0.566257 -0.243307 -0.711421 -0.650814 0.265182 
-0.698894 -0.663636 0.266709 0.673069 -0.73615 0.0711449 0.626452 -0.775163 0.0817359 
0.483098 -0.872054 0.078341 -0.659004 -0.704806 0.262606 -0.64122 -0.721409 0.261544 
0.464239 -0.882868 0.070896 0.379965 -0.923115 0.059035 0.305008 -0.951615 0.0374114 
-0.197181 -0.978054 0.0673002 -0.22108 -0.967074 0.126063 -0.323805 -0.93209 0.162354 
-0.504832 -0.834159 0.222089 -0.504413 -0.834436 0.222001 -0.501889 -0.850861 0.155384 
0.192973 -0.981112 -0.0134537 0.19015 -0.981656 -0.0139782 0.190547 -0.98141 -0.0229488 
0.0570694 -0.998212 0.0177624 0.0729413 -0.977982 -0.195527 -0.163886 -0.985686 0.0395586 
-0.104467 -0.994489 0.00888489 -0.0787707 -0.981535 -0.174309 0.403589 0.877626 -0.258628 
0.226542 0.941444 -0.249723 0.115216 0.969991 -0.214108 0.0797172 0.977129 -0.197142 
0.0466461 0.981458 -0.185915 0.017493 0.986147 -0.164946 -0.0466411 0.988066 -0.1468 
-0.183098 0.974537 -0.129432 -0.312575 0.942469 -0.118525 -0.407099 0.909448 -0.0847044 
0.496904 0.830171 -0.25279 0.604772 0.763268 -0.227316 0.404808 0.813784 -0.416996 
-0.441643 0.894541 -0.0688999 -0.375253 0.885033 -0.275504 -0.501951 0.86413 -0.0363928 
-0.587099 0.809501 -0.00486716 0.703359 0.679059 -0.210153 0.770693 0.61066 -0.182007 
-0.604684 0.796455 -0.0040482 -0.587813 0.797754 -0.134402 -0.767546 0.640715 -0.0189112 
0.861485 0.485912 -0.147422 -0.779284 0.626282 -0.0220727 -0.772678 0.618408 -0.143316 
0.953406 0.265848 -0.142623 0.988791 0.0486491 -0.141157 -0.950697 0.308023 -0.0360033 
0.990345 -0.0044529 -0.138551 0.988085 -0.0343328 -0.150029 0.986402 -0.00551413 -0.164256 
-0.997823 0.0195915 -0.0629742 0.965479 -0.175734 -0.192268 -0.943238 -0.321154 -0.084632 
0.879887 -0.42297 -0.216553 0.782651 -0.558266 -0.275312 -0.837344 -0.538748 -0.092763 
-0.817682 -0.568157 -0.0926973 -0.807305 -0.543805 -0.229205 0.778294 -0.563991 -0.275993 
-0.744316 -0.66183 -0.0892997 -0.724212 -0.682856 -0.0960494 -0.660404 -0.645511 -0.383643 
0.642985 -0.710792 -0.285211 0.64056 -0.713143 -0.284797 0.640588 -0.710262 -0.291847 
0.456985 -0.845348 -0.276679 -0.451351 -0.870357 -0.196878 -0.660481 -0.742006 -0.114856 
-0.626077 -0.769254 -0.127576 -0.565236 -0.734423 -0.375674 0.366122 -0.882922 -0.293946 
0.324339 -0.89665 -0.301367 0.304973 -0.87712 -0.371014 0.252024 -0.891183 -0.377197 
0.164643 -0.836877 -0.522044 0.178041 -0.889087 -0.421695 0.0860748 -0.90798 -0.410078 
-0.0465878 -0.937206 -0.34565 -0.131538 -0.942714 -0.306575 -0.179565 -0.942388 -0.282242 
-0.447195 -0.872252 -0.197973 -0.275878 -0.929068 -0.246421 -0.241986 -0.813534 -0.528776 
0.262921 0.79545 -0.546014 0.141304 0.845458 -0.515008 0.0672285 0.860425 -0.505123 
0.0352806 0.834528 -0.549836 0.0108062 0.810747 -0.585297 -0.0335158 0.816164 -0.576848 
-0.13793 0.838381 -0.527345 -0.258112 0.837003 -0.482499 0.537293 0.644159 -0.544404 
0.309563 0.773813 -0.552615 0.378146 0.725986 -0.574412 0.264712 0.760514 -0.592913 
0.137738 0.723177 -0.676789 0.0404723 0.691414 -0.721324 -0.021115 0.655957 -0.754503 
-0.0126954 0.62191 -0.782986 0.00939612 0.633162 -0.773962 -0.0801059 0.672603 -0.735655 
-0.313848 0.840027 -0.442554 -0.230295 0.771908 -0.592555 -0.34012 0.837185 -0.428299 
-0.44401 0.801622 -0.400322 0.551854 0.633311 -0.542563 0.698632 0.514054 -0.497657 
0.529073 0.624732 -0.574275 0.324988 0.565414 -0.758083 0.185302 0.447607 -0.87482 
-0.183213 0.52132 -0.833462 -0.522318 0.756302 -0.393944 -0.389556 0.689765 -0.610304 
-0.564881 0.722134 -0.399289 0.704773 0.507035 -0.496197 0.695867 0.507457 -0.50819 
0.42855 0.449927 -0.783525 -0.715246 0.57364 -0.399199 -0.48198 0.467973 -0.74074 
-0.765346 0.492987 -0.413775 0.829139 0.271279 -0.488811 0.655574 0.277686 -0.702221 
-0.85069 0.297253 -0.433553 -0.712035 0.280961 -0.643481 0.870084 -0.008963 -0.492822 
0.654228 -0.00151101 -0.756296 -0.889209 0.0208391 -0.457026 -0.694483 0.0227394 -0.71915 
0.846471 -0.211111 -0.488794 0.686518 -0.225386 -0.691299 -0.849938 -0.302711 -0.431244 
-0.773512 -0.471187 -0.423865 -0.713459 -0.282026 -0.641434 0.746402 -0.438207 -0.500857 
0.733853 -0.462706 -0.497356 0.721236 -0.436232 -0.538071 -0.736943 -0.526095 -0.424428 
-0.647726 -0.634496 -0.421742 -0.545695 -0.419064 -0.725674 0.67214 -0.559138 -0.485378 
0.612177 -0.62464 -0.484833 0.583703 -0.531076 -0.614205 -0.102048 -0.132827 -0.985872 
-0.641023 -0.639364 -0.424622 -0.523662 -0.70178 -0.482993 -0.384102 -0.558138 -0.735491 
0.498137 -0.714864 -0.490743 0.434667 -0.75365 -0.493027 0.433583 -0.701313 -0.565832 
0.258224 -0.809499 -0.527287 0.18787 -0.640366 -0.744739 0.140169 -0.813771 -0.56403 
0.0165266 -0.558371 -0.829427 0.0172152 -0.500071 -0.865813 0.0394498 -0.463769 -0.885078 
-0.0524651 -0.36252 -0.930498 -0.127713 -0.310329 -0.942011 -0.058585 -0.396189 -0.916298 
-0.216615 -0.747502 -0.627947 -0.0874093 -0.501901 -0.860497 -0.489684 -0.710853 -0.504874 
-0.351064 -0.734895 -0.580244 -0.284708 -0.636842 -0.716501 0.112796 -0.754566 -0.646458 
0.108592 -0.743255 -0.660136 0.106019 -0.740288 -0.663877 0.119734 -0.73668 -0.665557 
0.116854 -0.704373 -0.700146 0.00957283 -0.770406 -0.637482 0.0138265 -0.684387 -0.728988 
-0.104683 -0.748713 -0.654576 -0.106419 -0.683558 -0.722096 -0.168307 -0.746829 -0.643366 
-0.13651 -0.740408 -0.65815 -0.133216 -0.720252 -0.680802 0.0980882 0.433304 -0.895894 
0.00539859 0.421655 -0.90674 -0.0462994 0.399379 -0.915616 -0.0185891 0.396944 -0.917655 
0.0244563 0.424208 -0.905234 -0.0168809 0.420323 -0.907218 -0.0887716 0.460109 -0.883414 
0.24965 0.442889 -0.861118 0.168652 0.431661 -0.88613 0.176452 0.432654 -0.884124 
0.0873296 0.357044 -0.929996 -0.00662519 0.323128 -0.946332 -0.0500591 0.321063 -0.945734 
-0.0171293 0.372528 -0.927863 0.0256626 0.390841 -0.920101 -0.00334768 0.364513 -0.931192 
-0.139836 0.479713 -0.866211 -0.0770053 0.42502 -0.901903 -0.166316 0.483096 -0.859627 
-0.283007 0.456457 -0.843536 0.347772 0.419879 -0.838306 0.399533 0.390624 -0.829329 
0.197046 0.356749 -0.913183 0.0769748 0.273663 -0.95874 0.00698964 0.184891 -0.982734 
-0.0107252 0.175901 -0.984349 0.0177356 0.213532 -0.976775 0.0627426 0.308069 -0.949293 
0.00420864 0.319439 -0.947598 -0.0400138 0.175871 -0.9836 -0.0158693 0.176667 -0.984143 
-0.0966051 0.265657 -0.959215 -0.365183 0.398255 -0.841447 -0.233099 0.331914 -0.914056 
-0.425703 0.322327 -0.845507 0.492023 0.265796 -0.829015 0.337978 0.23341 -0.911751 
0.142529 0.182483 -0.972824 0.00809713 0.146375 -0.989196 -0.00775658 0.123009 -0.992375 
0.0228058 0.190707 -0.981382 0.0701691 0.183836 -0.980449 0.0955892 0.0459597 -0.994359 
-0.105448 0.157343 -0.981898 -0.136381 0.0661093 -0.988448 0.0129256 0.0926703 -0.995613 
-0.0141879 0.137619 -0.990384 -0.158048 0.197915 -0.967394 -0.446704 0.213693 -0.868787 
-0.390847 0.206866 -0.896908 0.593339 0.00523602 -0.804935 0.30945 0.0390622 -0.950113 
0.113119 0.0253363 -0.993258 0.00593284 0.0263046 -0.999636 0.0470819 0.0102333 -0.998839 
0.0615892 0.0387878 -0.997348 -0.131192 0.0875426 -0.987484 0.048891 -0.093379 -0.99443 
0.0159819 -0.0452505 -0.998848 -0.109419 0.0632002 -0.991984 0.0553129 0.0947262 -0.993966 
0.0104755 0.0835307 -0.99645 -0.160322 0.0673233 -0.984766 -0.520997 0.0285949 -0.853079 
-0.400101 0.040793 -0.915563 0.541986 -0.207994 -0.814242 0.348022 -0.168088 -0.922294 
0.134572 -0.0714766 -0.988323 -0.00632816 -0.0339925 -0.999402 -0.00216832 -0.0501144 -0.998741 
0.0980031 -0.180255 -0.978725 -0.0559186 -0.0859638 -0.994728 -0.040003 -0.024765 -0.998893 
0.0521192 -0.319036 -0.946308 0.00327253 -0.111893 -0.993715 0.0357298 -0.0412533 -0.99851 
-0.0390144 -0.0839928 -0.995702 -0.1996 -0.119312 -0.972587 -0.522183 -0.215924 -0.825047 
-0.500918 -0.334025 -0.798442 -0.434421 -0.192927 -0.879805 0.478655 -0.327068 -0.814811 
0.474364 -0.343004 -0.810757 0.461445 -0.317906 -0.828254 0.246089 -0.208136 -0.946636 
0.0283356 -0.137277 -0.990127 -0.0892344 -0.0755974 -0.993138 0.0156849 -0.154166 -0.98792 
0.0238884 -0.206299 -0.978197 -0.208017 -0.130472 -0.969384 -0.0957777 -0.161113 -0.982278 
-0.0634903 -0.324229 -0.943846 0.177711 -0.286346 -0.941501 0.0825938 -0.248387 -0.965133 
-0.0648908 -0.268174 -0.961183 -0.4699 -0.38568 -0.794005 -0.337021 -0.485588 -0.806611 
-0.263272 -0.308601 -0.914031 0.385714 -0.436954 -0.812586 0.34615 -0.464473 -0.815135 
0.318053 -0.409345 -0.855148 0.16019 -0.545858 -0.822422 0.117925 -0.311712 -0.94283 
-0.00172266 -0.496385 -0.868101 -0.0305077 -0.270771 -0.96216 0.00147785 -0.423449 -0.905919 
-0.0345278 -0.238152 -0.970614 0.0267393 -0.430385 -0.902249 -0.0177969 -0.281338 -0.959444 
-0.105715 -0.13875 -0.984669 -0.0644338 -0.344609 -0.936532 -0.163205 -0.222651 -0.96114 
-0.0298672 -0.199312 -0.979481 0.0665355 -0.301938 -0.951003 0.0769905 -0.294736 -0.952472 
0.00364911 -0.402738 -0.915308 0.0390054 -0.366381 -0.929647 -0.226307 -0.482006 -0.846437 
-0.152245 -0.462759 -0.873313 -0.125636 -0.427941 -0.895032 
