# vtk DataFile Version 4.2
vtk output
ASCII
DATASET POLYDATA
POINTS 568 float
-39.8424 -31.8788 -15.9975 -31.1844 -31.8788 -15.9296 -22.5263 -31.8788 -15.4558 
-13.8682 -31.8788 -14.3224 12.1061 -31.8788 -14.7016 20.7642 -31.8788 -14.6439 
29.4223 -31.8788 -14.1932 38.0804 -31.8788 -14.2574 -48.5005 -23.2207 -17.3662 
-39.8424 -23.2207 -18.2992 -31.1844 -23.2207 -17.9641 -22.5263 -23.2207 -17.2362 
-13.8682 -23.2207 -15.1835 -5.21009 -23.2207 -14.452 3.448 -23.2207 -15.534 
12.1061 -23.2207 -16.2746 20.7642 -23.2207 -16.7382 29.4223 -23.2207 -16.8219 
38.0804 -23.2207 -16.6805 46.7384 -23.2207 -16.2628 -57.1586 -14.5626 -16.7006 
-48.5005 -14.5626 -18.3379 -39.8424 -14.5626 -19.0807 -31.1844 -14.5626 -19.3108 
-22.5263 -14.5626 -18.0308 -13.8682 -14.5626 -16.3744 -5.21009 -14.5626 -16.2011 
3.448 -14.5626 -17.9455 12.1061 -14.5626 -18.0526 20.7642 -14.5626 -17.5473 
29.4223 -14.5626 -17.8618 38.0804 -14.5626 -18.0879 46.7384 -14.5626 -17.4283 
55.3965 -14.5626 -16.3162 -65.8167 -5.90452 -15.0371 -57.1586 -5.90452 -17.6364 
-48.5005 -5.90452 -19.4056 -39.8424 -5.90452 -19.5058 -31.1844 -5.90452 -18.8181 
-22.5263 -5.90452 -17.93 -13.8682 -5.90452 -20.4854 -5.21009 -5.90452 -19.1706 
3.448 -5.90452 -17.1646 12.1061 -5.90452 -20.5134 20.7642 -5.90452 -16.8903 
29.4223 -5.90452 -17.6307 38.0804 -5.90452 -18.4755 46.7384 -5.90452 -18.8229 
55.3965 -5.90452 -17.7131 -57.1586 2.75357 -18.1268 -48.5005 2.75357 -19.7596 
-39.8424 2.75357 -19.5378 -31.1844 2.75357 -18.7421 -22.5263 2.75357 -17.6969 
-13.8682 2.75357 -21.6991 -5.21009 2.75357 -19.3898 3.448 2.75357 -17.7295 
12.1061 2.75357 -20.2969 20.7642 2.75357 -15.8489 29.4223 2.75357 -17.2759 
38.0804 2.75357 -18.3356 46.7384 2.75357 -18.6049 55.3965 2.75357 -17.6043 
64.0546 2.75357 -14.276 -57.1586 11.4117 -18.7046 -48.5005 11.4117 -19.112 
-39.8424 11.4117 -19.2608 -31.1844 11.4117 -18.6584 -22.5263 11.4117 -17.7976 
-13.8682 11.4117 -18.2747 -5.21009 11.4117 -19.9624 3.448 11.4117 -18.4506 
12.1061 11.4117 -16.3947 20.7642 11.4117 -16.5204 29.4223 11.4117 -17.7615 
38.0804 11.4117 -18.3097 46.7384 11.4117 -18.1865 55.3965 11.4117 -17.8231 
-57.1586 20.0697 -15.519 -48.5005 20.0697 -17.6903 -39.8424 20.0697 -19.903 
-31.1844 20.0697 -19.1761 -22.5263 20.0697 -19.009 -13.8682 20.0697 -19.0847 
-5.21009 20.0697 -19.1524 3.448 20.0697 -17.5698 12.1061 20.0697 -16.88 
20.7642 20.0697 -17.8644 29.4223 20.0697 -18.7684 38.0804 20.0697 -18.482 
46.7384 20.0697 -17.4615 55.3965 20.0697 -16.0954 64.0546 20.0697 -14.2668 
-48.5005 28.7278 -15.9785 -39.8424 28.7278 -17.6697 -31.1844 28.7278 -18.4757 
-22.5263 28.7278 -19.8177 -13.8682 28.7278 -19.7014 -5.21009 28.7278 -19.7486 
3.448 28.7278 -18.4607 12.1061 28.7278 -17.5902 20.7642 28.7278 -17.9438 
29.4223 28.7278 -18.3592 38.0804 28.7278 -17.5083 46.7384 28.7278 -17.2245 
-39.8424 37.3859 -14.2321 -31.1844 37.3859 -16.4808 -22.5263 37.3859 -18.0268 
-13.8682 37.3859 -18.724 -5.21009 37.3859 -18.2024 3.448 37.3859 -17.3502 
12.1061 37.3859 -16.9624 20.7642 37.3859 -16.4896 29.4223 37.3859 -15.6635 
38.0804 37.3859 -14.4151 -39.8424 -35.0627 -14.1132 -39.8424 -40.5369 -9.35801 
-31.1844 -35.2877 -14.1132 -31.1844 -40.5369 -10.6802 -22.5263 -34.5362 -14.1132 
-22.5263 -40.5369 -10.6523 -13.8682 -32.4113 -14.1132 -13.8682 -40.5369 -10.3335 
-5.21009 -40.5369 -10.4056 3.448 -40.5369 -10.5378 12.1061 -33.3808 -14.1132 
12.1061 -40.5369 -10.7339 20.7642 -33.0459 -14.1132 20.7642 -40.5369 -10.2137 
29.4223 -32.04 -14.1132 29.4223 -40.5369 -8.9329 38.0804 -32.1791 -14.1132 
38.0804 -40.5369 -6.4526 -57.1586 -31.8788 -8.09453 -46.21 -31.8788 -14.1132 
-48.5005 -30.4373 -14.1132 -48.5005 -31.8788 -13.2487 -10.8187 -31.8788 -14.1132 
-5.21009 -27.2236 -14.1132 -5.21009 -31.8788 -13.6999 6.46648 -31.8788 -14.1132 
3.448 -30.2997 -14.1132 3.448 -31.8788 -13.79 38.5559 -31.8788 -14.1132 
46.7384 -27.3864 -14.1132 46.7384 -31.8788 -10.9652 55.3965 -31.8788 -7.60579 
-55.4769 -23.2207 -14.1132 -57.1586 -20.7113 -14.1132 -57.1586 -23.2207 -13.0268 
52.461 -23.2207 -14.1132 55.3965 -19.9096 -14.1132 55.3965 -23.2207 -12.7117 
64.0546 -23.2207 -8.19592 -63.4199 -14.5626 -14.1132 -65.8167 -10.7295 -14.1132 
-65.8167 -14.5626 -12.6805 62.148 -14.5626 -14.1132 64.0546 -14.5626 -13.2835 
-67.0097 -5.90452 -14.1132 -65.8167 0.813511 -14.1132 63.9877 -5.90452 -14.1132 
64.0546 -4.38506 -14.1132 64.0546 -5.90452 -14.0797 72.7127 -5.90452 -8.46814 
-74.4748 2.75357 -6.04519 -65.3038 2.75357 -14.1132 -65.8167 2.75357 -13.7805 
64.3607 2.75357 -14.1132 64.0546 3.98218 -14.1132 72.7127 2.75357 -8.6808 
-64.0211 11.4117 -14.1132 -65.8167 11.4117 -12.8685 62.1569 11.4117 -14.1132 
64.0546 18.6173 -14.1132 64.0546 11.4117 -13.1179 72.7127 11.4117 -7.08205 
-60.6266 20.0697 -14.1132 -65.8167 20.0697 -11.353 -57.1586 28.0344 -14.1132 
55.3965 24.4838 -14.1132 64.2611 20.0697 -14.1132 64.0546 20.3714 -14.1132 
-56.5977 28.7278 -14.1132 -57.1586 28.7278 -13.9019 -48.5005 32.8379 -14.1132 
51.9169 28.7278 -14.1132 46.7384 32.91 -14.1132 55.3965 28.7278 -11.969 
-40.2955 37.3859 -14.1132 -48.5005 37.3859 -9.08568 -39.8424 37.5569 -14.1132 
-31.1844 40.8703 -14.1132 -22.5263 43.8676 -14.1132 -13.8682 45.1938 -14.1132 
-5.21009 44.9213 -14.1132 3.448 44.4149 -14.1132 12.1061 43.4207 -14.1132 
20.7642 41.4249 -14.1132 29.4223 39.7226 -14.1132 38.7611 37.3859 -14.1132 
38.0804 37.757 -14.1132 46.7384 37.3859 -9.99558 -31.1844 46.044 -5.55814 
-22.5263 46.044 -10.7296 -13.8682 46.044 -12.6806 -5.21009 46.044 -12.6593 
3.448 46.044 -12.5094 12.1061 46.044 -11.6294 20.7642 46.044 -9.77715 
29.4223 46.044 -6.83898 -39.8424 -43.5246 -5.45509 -31.1844 -45.3841 -5.45509 
-22.5263 -45.5935 -5.45509 -13.8682 -45.8654 -5.45509 -5.21009 -46.354 -5.45509 
3.448 -46.4512 -5.45509 3.448 -49.195 2.28751 12.1061 -46.3133 -5.45509 
20.7642 -45.376 -5.45509 29.4223 -43.8149 -5.45509 38.0804 -41.2264 -5.45509 
-57.1586 -33.8419 -5.45509 -48.3499 -40.5369 -5.45509 -48.5005 -40.4707 -5.45509 
-48.5005 -40.5369 0.567074 40.2072 -40.5369 -5.45509 46.7384 -38.2009 -5.45509 
55.3965 -33.4682 -5.45509 -59.0416 -31.8788 -5.45509 57.4438 -31.8788 -5.45509 
64.0546 -25.7204 -5.45509 -65.3429 -23.2207 -5.45509 -65.8167 -22.5402 -5.45509 
66.4601 -23.2207 -5.45509 -70.2653 -14.5626 -5.45509 71.2815 -14.5626 -5.45509 
72.7127 -11.9244 -5.45509 -72.8996 -5.90452 -5.45509 -74.4748 0.819048 -5.45509 
75.0553 -5.90452 -5.45509 -74.8378 2.75357 -5.45509 -74.4748 6.00199 -5.45509 
75.181 2.75357 -5.45509 -73.701 11.4117 -5.45509 73.9333 11.4117 -5.45509 
72.7127 14.5388 -5.45509 -70.1818 20.0697 -5.45509 -65.8167 26.2643 -5.45509 
70.5896 20.0697 -5.45509 64.0546 28.6546 -5.45509 -63.4997 28.7278 -5.45509 
-57.1586 33.5152 -5.45509 63.962 28.7278 -5.45509 55.3965 35.8044 -5.45509 
-50.7777 37.3859 -5.45509 -48.5005 38.6424 -5.45509 -48.5005 37.3859 -0.339903 
-39.8424 42.959 -5.45509 38.0804 44.1409 -5.45509 52.9826 37.3859 -5.45509 
46.7384 40.5022 -5.45509 -31.2907 46.044 -5.45509 -31.1844 46.0822 -5.45509 
-31.1844 46.044 -5.33341 -22.5263 48.1324 -5.45509 -22.5263 46.044 0.348807 
-13.8682 48.6982 -5.45509 -13.8682 46.044 2.1479 -5.21009 48.8823 -5.45509 
3.448 49.2602 -5.45509 12.1061 49.3183 -5.45509 20.7642 48.4146 -5.45509 
32.028 46.044 -5.45509 29.4223 46.7948 -5.45509 29.4223 46.044 -1.09326 
3.448 -49.4235 3.203 -48.5005 -40.5614 3.203 -39.8424 -44.5404 3.203 
-31.1844 -46.608 3.203 -22.5263 -47.3038 3.203 -13.8682 -48.0121 3.203 
-0.100072 -49.195 3.203 -5.21009 -48.8652 3.203 7.30913 -49.195 3.203 
3.448 -49.195 3.87428 12.1061 -48.911 3.203 20.7642 -47.9698 3.203 
29.4223 -46.5486 3.203 38.0804 -44.2449 3.203 -48.5398 -40.5369 3.203 
-57.1586 -33.479 3.203 -48.5005 -40.5369 3.24762 -39.8424 -40.5369 9.73529 
46.338 -40.5369 3.203 38.0804 -40.5369 10.2603 46.7384 -40.3474 3.203 
55.3965 -34.8301 3.203 -58.5862 -31.8788 3.203 -57.1586 -31.8788 5.07804 
-48.5005 -31.8788 11.751 59.0279 -31.8788 3.203 55.3965 -31.8788 8.81064 
64.0546 -26.981 3.203 -64.574 -23.2207 3.203 -65.8167 -21.4109 3.203 
67.5518 -23.2207 3.203 64.0546 -23.2207 8.62931 -69.6697 -14.5626 3.203 
-65.8167 -14.5626 8.44641 72.4665 -14.5626 3.203 72.7127 -13.9897 3.203 
-72.6954 -5.90452 3.203 -74.4748 1.85112 3.203 75.9302 -5.90452 3.203 
72.7127 -5.90452 8.7741 -74.674 2.75357 3.203 -74.4748 4.60482 3.203 
-74.4748 2.75357 3.55132 76.1635 2.75357 3.203 72.7127 2.75357 9.27179 
-73.7422 11.4117 3.203 74.9543 11.4117 3.203 72.7127 16.7584 3.203 
72.7127 11.4117 7.09191 -69.7546 20.0697 3.203 -65.8167 26.1497 3.203 
-65.8167 20.0697 8.36792 71.1739 20.0697 3.203 64.0546 28.5864 3.203 
-62.8101 28.7278 3.203 -57.1586 32.0254 3.203 -57.1586 28.7278 7.22814 
-48.5005 36.3939 3.203 -48.5005 28.7278 11.0033 63.8998 28.7278 3.203 
55.3965 35.0859 3.203 -46.5672 37.3859 3.203 -39.8424 40.3964 3.203 
-39.8424 37.3859 6.84484 -31.1844 42.6435 3.203 -31.1844 37.3859 9.11937 
-22.5263 44.7264 3.203 -22.5263 37.3859 10.2515 -13.8682 45.5719 3.203 
-13.8682 37.3859 11.0491 -5.21009 37.3859 11.3536 3.448 37.3859 11.7488 
29.4223 45.1655 3.203 29.4223 37.3859 11.5779 38.0804 42.9752 3.203 
38.0804 37.3859 10.9245 51.6508 37.3859 3.203 46.7384 39.9972 3.203 
46.7384 37.3859 7.31477 -6.24782 46.044 3.203 -5.21009 46.0977 3.203 
-5.21009 46.044 3.27931 3.448 47.1175 3.203 3.448 46.044 4.71961 
12.1061 47.1535 3.203 12.1061 46.044 4.96344 25.2268 46.044 3.203 
20.7642 46.8575 3.203 20.7642 46.044 4.4667 -31.1844 -40.9133 11.8611 
-22.5263 -42.2236 11.8611 -13.8682 -43.9085 11.8611 -5.21009 -44.5856 11.8611 
3.448 -45.4315 11.8611 12.1061 -45.2717 11.8611 20.7642 -44.9634 11.8611 
29.4223 -42.7506 11.8611 -32.6803 -40.5369 11.8611 -39.8424 -38.3332 11.8611 
-31.1844 -40.5369 12.2436 -22.5263 -40.5369 13.2509 -13.8682 -40.5369 14.462 
-5.21009 -40.5369 15.4761 3.448 -40.5369 15.8803 12.1061 -40.5369 16.1927 
20.7642 -40.5369 15.6912 35.3532 -40.5369 11.8611 29.4223 -40.5369 13.8969 
38.0804 -39.4476 11.8611 46.7384 -34.6169 11.8611 -57.1586 -24.2533 11.8611 
-48.3227 -31.8788 11.8611 -48.5005 -31.6971 11.8611 -39.8424 -31.8788 15.7605 
[...]
POINT_DATA 568
SCALARS ImageScalars float
LOOKUP_TABLE default
0 0 0 0 0 0 0 0 0 
0 0 0 0 0 0 0 0 0 
0 0 0 0 0 0 0 0 0 
0 0 0 0 0 0 0 0 0 
0 0 0 0 0 0 0 0 0 
0 0 0 0 0 0 0 0 0 
0 0 0 0 0 0 0 0 0 
0 0 0 0 0 0 0 0 0 
0 0 0 0 0 0 0 0 0 
0 0 0 0 0 0 0 0 0 
0 0 0 0 0 0 0 0 0 
0 0 0 0 0 0 0 0 0 
0 0 0 0 0 0 0 0 0 
0 0 0 0 0 0 0 0 0 
0 0 0 0 0 0 0 0 0 
0 0 0 0 0 0 0 0 0 
0 0 0 0 0 0 0 0 0 
0 0 0 0 0 0 0 0 0 
0 0 0 0 0 0 0 0 0 
0 0 0 0 0 0 0 0 0 
0 0 0 0 0 0 0 0 0 
0 0 0 0 0 0 0 0 0 
0 0 0 0 0 0 0 0 0 
0 0 0 0 0 0 0 0 0 
0 0 0 0 0 0 0 0 0 
0 0 0 0 0 0 0 0 0 
0 0 0 0 0 0 0 0 0 
0 0 0 0 0 0 0 0 0 
0 0 0 0 0 0 0 0 0 
0 0 0 0 0 0 0 0 0 
0 0 0 0 0 0 0 0 0 
0 0 0 0 0 0 0 0 0 
0 0 0 0 0 0 0 0 0 
0 0 0 0 0 0 0 0 0 
0 0 0 0 0 0 0 0 0 
0 0 0 0 0 0 0 0 0 
0 0 0 0 0 0 0 0 0 
0 0 0 0 0 0 0 0 0 
0 0 0 0 0 0 0 0 0 
0 0 0 0 0 0 0 0 0 
0 0 0 0 0 0 0 0 0 
0 0 0 0 0 0 0 0 0 
0 0 0 0 0 0 0 0 0 
0 0 0 0 0 0 0 0 0 
0 0 0 0 0 0 0 0 0 
0 0 0 0 0 0 0 0 0 
0 0 0 0 0 0 0 0 0 
0 0 0 0 0 0 0 0 0 
0 0 0 0 0 0 0 0 0 
0 0 0 0 0 0 0 0 0 
0 0 0 0 0 0 0 0 0 
0 0 0 0 0 0 0 0 0 
0 0 0 0 0 0 0 0 0 
0 0 0 0 0 0 0 0 0 
0 0 0 0 0 0 0 0 0 
0 0 0 0 0 0 0 0 0 
0 0 0 0 0 0 0 0 0 
0 0 0 0 0 0 0 0 0 
0 0 0 0 0 0 0 0 0 
0 0 0 0 0 0 0 0 0 
0 0 0 0 0 0 0 0 0 
0 0 0 0 0 0 0 0 0 
0 0 0 0 0 0 0 0 0 
0 
NORMALS Normals float
0.12057 0.399777 0.908648 -0.0294361 0.350383 0.936144 -0.0918822 0.32369 0.941691 
-0.0940962 0.24382 0.965245 0.0477897 0.282811 0.957984 -0.028066 0.333946 0.942174 
-0.0201177 0.37759 0.925754 -0.145384 0.369432 0.917814 0.244523 0.236656 0.94032 
0.03938 0.186814 0.981606 -0.0575377 0.185136 0.981027 -0.156458 0.142159 0.977401 
-0.151713 0.117783 0.981382 0.0225382 0.125059 0.991893 0.102477 0.223691 0.969258 
0.0687073 0.186037 0.980138 0.0311145 0.157507 0.987028 -0.00294407 0.19488 0.980823 
-0.0348239 0.227379 0.973183 -0.187445 0.299592 0.935473 0.301308 0.236025 0.923854 
0.120646 0.122251 0.985139 0.0540194 0.0669948 0.99629 -0.0611378 0.0488699 0.996932 
-0.167162 0.0368932 0.985239 -0.103339 0.254543 0.961524 0.0922236 0.25064 0.963678 
0.0925838 0.108961 0.989725 -0.0240943 0.227686 0.973436 -0.00989467 0.00938855 0.999907 
0.0319369 0.0471538 0.998377 -0.024593 0.0987209 0.994811 -0.0941495 0.15134 0.983988 
-0.234094 0.27442 0.932681 0.556807 0.0385775 0.829746 0.254868 0.0733672 0.964189 
0.119596 0.0808924 0.989522 -0.0341103 0.0263235 0.999071 -0.090563 -0.0324551 0.995362 
0.0671531 -0.0195721 0.997551 0.102169 0.317423 0.942764 -0.191459 0.18741 0.963442 
0.09781 -0.0244152 0.994906 -0.0530874 0.139633 0.988779 -0.137786 -0.101655 0.985232 
0.0893069 -0.0329152 0.99546 0.0680751 0.0141964 0.997579 -0.053433 0.0674908 0.996288 
-0.240918 0.0595338 0.968718 0.285668 0.0561899 0.95668 0.0954621 -0.0167166 0.995293 
-0.0581597 -0.0141175 0.998207 -0.105777 -0.00917231 0.994348 0.0965194 -0.0077675 0.995301 
0.166464 -0.163764 0.972353 -0.214309 0.0558347 0.975169 0.0292979 0.0916291 0.995362 
-0.202674 -0.27825 0.938882 -0.0724952 -0.0205006 0.997158 0.142675 0.00745512 0.989742 
0.0760719 -0.00953831 0.997057 -0.0466743 -0.0364354 0.998245 -0.225086 0.00369647 0.974332 
-0.435721 -0.0484601 0.898776 0.305853 -0.108727 0.94585 0.0296586 -0.118822 0.992473 
-0.0265417 0.0186613 0.999474 -0.0841867 0.0248569 0.99614 -0.0235432 0.0768275 0.996766 
0.127558 -0.091 0.987648 0.0160549 -0.0241848 0.999579 -0.200836 -0.0221325 0.979375 
-0.107948 -0.115128 0.987468 0.0795145 0.118805 0.989729 0.102141 0.0869953 0.990959 
0.0247758 0.00853396 0.999657 -0.025507 -0.0649025 0.997566 -0.266317 -0.0704203 0.96131 
0.321592 -0.265751 0.90882 0.216318 -0.151055 0.964567 0.0792732 -0.076472 0.993915 
-0.0490182 -0.0100409 0.998747 -0.00521495 0.114476 0.993412 0.00825522 0.080239 0.996741 
-0.086114 -0.0106985 0.996228 -0.134543 0.00559156 0.990892 0.0176601 0.0662206 0.997649 
0.107982 0.0788687 0.991019 0.0356466 0.031907 0.998855 -0.0721051 -0.0421789 0.996505 
-0.127143 -0.0530038 0.990467 -0.214324 -0.288418 0.93321 -0.477865 -0.215445 0.851604 
0.23161 -0.320029 0.918661 0.124358 -0.274835 0.953415 0.115474 -0.136732 0.983855 
0.0716817 -0.0568947 0.995804 -0.00383739 -0.022726 0.999734 -0.0719491 -0.0488858 0.99621 
-0.123629 -0.0102606 0.992275 -0.0298028 0.00331581 0.99955 0.0475308 -0.0691755 0.996472 
-0.0215818 -0.159377 0.986982 -0.069442 -0.189383 0.979445 -0.268823 -0.309441 0.91213 
0.253501 -0.525786 0.811965 0.199956 -0.408152 0.890746 0.119195 -0.360436 0.925137 
0.0120862 -0.304741 0.952359 -0.0807105 -0.320561 0.943783 -0.0705004 -0.272316 0.959622 
-0.0451722 -0.25654 0.965477 -0.0763828 -0.357883 0.930637 -0.0928007 -0.458185 0.883999 
-0.25871 -0.528907 0.808286 0.129601 0.512381 0.848923 0.189207 0.777976 0.599128 
-0.0127308 0.45046 0.892706 0.0576154 0.683169 0.727984 -0.0715851 0.389386 0.918289 
-0.0183156 0.634803 0.772457 -0.0889972 0.258236 0.961974 -0.0117949 0.571693 0.820382 
0.010379 0.51611 0.856459 0.0172213 0.518016 0.855198 0.0364405 0.319738 0.946805 
-0.015486 0.560341 0.828117 -0.0351517 0.362016 0.931509 -0.0856302 0.612592 0.785747 
-0.0203455 0.382007 0.923935 -0.144795 0.701545 0.69776 -0.146857 0.379884 0.913302 
-0.252418 0.827844 0.500959 0.653746 0.622405 0.43038 0.258546 0.466009 0.846162 
0.299455 0.446369 0.843256 0.32306 0.505366 0.800149 -0.0706799 0.230975 0.970389 
-0.0014162 0.160679 0.987006 -0.0291087 0.209847 0.977301 0.0529315 0.262235 0.963551 
0.064794 0.244747 0.96742 0.0559722 0.253434 0.965732 -0.151649 0.378083 0.913267 
-0.22228 0.418288 0.880697 -0.295098 0.586223 0.754493 -0.502238 0.701876 0.505101 
0.455152 0.303562 0.837071 0.443533 0.305078 0.842737 0.528416 0.343588 0.776353 
-0.303995 0.340577 0.889716 -0.310418 0.339423 0.887938 -0.386603 0.382975 0.838969 
-0.644545 0.589329 0.487087 0.501593 0.319119 0.804094 0.579628 0.199132 0.790176 
0.625093 0.342239 0.701521 -0.435205 0.235483 0.868991 -0.508338 0.23119 0.829544 
0.62201 0.0499379 0.781415 0.549771 -0.0833243 0.831149 -0.458551 0.0382533 0.887844 
-0.456611 0.0228301 0.889373 -0.460665 0.0383084 0.886747 -0.815229 0.187453 0.547962 
0.939451 0.0388855 0.340471 0.52678 -0.107698 0.843151 0.549035 -0.110491 0.828464 
-0.446661 -0.0482745 0.8934 -0.442097 -0.0418208 0.895992 -0.815294 -0.0581118 0.576123 
0.528366 -0.105387 0.84245 0.592249 -0.0995389 0.799583 -0.432478 -0.0259592 0.901271 
-0.478142 -0.18479 0.858622 -0.485907 -0.0131674 0.873912 -0.821512 -0.272298 0.500972 
0.413163 -0.257777 0.873411 0.644053 -0.343258 0.683645 0.419283 -0.440024 0.794091 
-0.3212 -0.34532 0.881808 -0.484566 -0.22117 0.846333 -0.482976 -0.231953 0.844353 
0.416035 -0.449449 0.790513 0.433656 -0.465197 0.771709 0.322421 -0.502048 0.802491 
-0.390987 -0.382188 0.837294 -0.311819 -0.498291 0.808996 -0.491346 -0.472101 0.731915 
0.263217 -0.535761 0.802295 0.483579 -0.819294 0.308071 0.256818 -0.534986 0.804882 
0.229213 -0.597729 0.768233 0.161429 -0.669892 0.724697 0.0405159 -0.755586 0.653795 
-0.0250312 -0.705737 0.708032 -0.0473827 -0.624642 0.779472 -0.0914244 -0.53337 0.840927 
-0.124242 -0.50545 0.853864 -0.118693 -0.559019 0.820616 -0.267755 -0.54241 0.796303 
-0.262964 -0.546254 0.795271 -0.376666 -0.758848 0.531294 0.285722 -0.957763 0.032434 
0.164382 -0.894978 0.414721 0.046427 -0.847871 0.528167 -0.00487526 -0.823701 0.567003 
-0.0337325 -0.77927 0.62578 -0.0933927 -0.777981 0.621307 -0.161441 -0.855381 0.492199 
-0.229212 -0.938143 0.259519 0.254717 0.886368 0.386615 0.118088 0.901614 0.416109 
0.02408 0.890722 0.45391 0.0374068 0.854202 0.518595 0.0285733 0.831072 0.55543 
-0.00203185 0.820065 0.572267 0.00197917 0.999973 0.00705354 -0.0520775 0.838443 0.542495 
-0.121939 0.835945 0.535095 -0.196019 0.824781 0.530389 -0.26746 0.848777 0.456117 
0.68324 0.683834 0.256036 0.446387 0.84991 0.279984 0.449995 0.848584 0.278224 
0.513091 0.853733 -0.0887566 -0.294908 0.845736 0.444702 -0.387175 0.804599 0.450239 
-0.529414 0.756523 0.383919 0.720693 0.648071 0.246181 -0.565423 0.73261 0.378918 
-0.675442 0.632172 0.379653 0.812345 0.53001 0.24328 0.822085 0.517684 0.23702 
-0.719111 0.579475 0.383521 0.893424 0.379826 0.239846 -0.818566 0.409983 0.402321 
-0.849497 0.344915 0.399234 0.9234 0.247033 0.293782 0.947254 0.0878104 0.308219 
-0.88954 0.190459 0.415264 0.949146 0.0394822 0.312351 0.945996 -0.0640297 0.317793 
-0.906847 -0.0608424 0.417045 0.912639 -0.233187 0.33573 -0.878118 -0.269358 0.395417 
-0.861076 -0.323962 0.391914 0.828792 -0.479321 0.288714 0.732581 -0.628184 0.262124 
-0.844367 -0.411374 0.343243 -0.643022 -0.709011 0.289528 0.679244 -0.69883 0.224194 
0.570006 -0.808841 0.144463 -0.641236 -0.710359 0.290185 -0.559181 -0.797384 0.226927 
0.506489 -0.85963 0.0671259 0.487168 -0.87219 0.0441735 0.448035 -0.860942 -0.240922 
0.400209 -0.916114 0.0238389 -0.344146 -0.925381 0.158849 -0.513061 -0.830965 0.215093 
-0.413953 -0.880384 0.231444 0.287218 -0.957513 0.0259864 0.286042 -0.957847 0.026615 
0.286024 -0.958016 0.0199148 0.14777 -0.988868 0.0174546 0.147576 -0.919536 -0.364245 
0.0431449 -0.998849 0.0209746 0.0637203 -0.880832 -0.469122 0.0321391 -0.999213 0.0232596 
0.0259333 -0.996337 0.08149 -0.0520436 -0.994403 0.0919493 -0.146907 -0.977152 0.153597 
-0.26684 -0.949627 0.164333 -0.235221 -0.956055 0.175014 -0.232937 -0.966984 -0.103357 
0.00258524 0.999022 -0.0441306 0.518631 0.819535 -0.24369 0.316204 0.928107 -0.196552 
0.161193 0.970355 -0.180077 0.0817188 0.987982 -0.131201 0.0914696 0.993479 -0.0680585 
0.0346065 0.99795 -0.053842 0.0811607 0.994444 -0.0670325 -0.0356081 0.998551 -0.0403597 
0.0046581 0.996569 -0.082638 -0.0833026 0.995909 -0.0350163 -0.135063 0.99079 -0.00964547 
-0.206811 0.977577 -0.0396611 -0.339314 0.938175 -0.0685081 0.519429 0.818972 -0.24388 
0.700092 0.643523 -0.309434 0.518776 0.818732 -0.246069 0.286252 0.753599 -0.591733 
-0.458861 0.884076 -0.0886361 -0.312718 0.802904 -0.507496 -0.464678 0.880798 -0.0909344 
-0.611628 0.778154 -0.142783 0.731787 0.615605 -0.292435 0.674504 0.628489 -0.387357 
0.450062 0.462633 -0.763816 -0.665412 0.728746 -0.161729 -0.57331 0.653065 -0.494794 
-0.704249 0.685423 -0.185011 0.797277 0.507284 -0.327127 0.800734 0.496342 -0.335365 
-0.75957 0.619795 -0.197249 -0.624835 0.591665 -0.509425 0.844791 0.419941 -0.331629 
0.68521 0.407493 -0.603685 -0.89378 0.403368 -0.196091 -0.899147 0.389656 -0.199256 
0.916248 0.252399 -0.311101 0.949786 0.0786377 -0.302857 -0.961775 0.200634 -0.186372 
-0.834406 0.211737 -0.508856 0.95278 0.0573591 -0.298196 0.954296 -0.00703849 -0.298779 
0.9472 0.0580226 -0.315348 -0.983813 -0.0527275 -0.171265 -0.835461 -0.059301 -0.546341 
0.932277 -0.229114 -0.279939 -0.942081 -0.279864 -0.184824 -0.887166 -0.408095 -0.215393 
-0.855064 -0.297513 -0.424678 0.813171 -0.519379 -0.262675 0.677368 -0.670503 -0.302653 
0.629098 -0.544699 -0.554562 -0.840665 -0.49113 -0.228195 -0.671942 -0.688768 -0.272199 
0.580726 -0.744036 -0.330405 0.474003 -0.786629 -0.395646 0.411906 -0.737519 -0.535163 
0.38955 -0.811062 -0.436382 0.227891 -0.60662 -0.761629 -0.668706 -0.692147 -0.271598 
-0.496306 -0.814199 -0.301265 0.37233 -0.811809 -0.449818 0.303488 -0.812804 -0.497238 
0.270426 -0.710958 -0.64916 0.219101 -0.807643 -0.547455 0.155224 -0.63377 -0.757787 
0.13781 -0.811164 -0.56835 0.0813414 -0.559107 -0.825095 0.0653198 -0.839207 -0.539875 
0.0515137 -0.54974 -0.833746 0.0336017 -0.522492 -0.851982 0.0477326 -0.450641 -0.891428 
-0.205497 -0.89379 -0.398636 -0.0747657 -0.55416 -0.829046 -0.277535 -0.889223 -0.363672 
-0.158664 -0.63815 -0.753386 -0.457119 -0.830653 -0.317895 -0.401838 -0.8683 -0.290829 
-0.393891 -0.733755 -0.553583 0.0791265 -0.862866 -0.4992 0.080535 -0.865566 -0.494276 
0.0808919 -0.863541 -0.497748 0.0594327 -0.881789 -0.467885 0.0660834 -0.84075 -0.537375 
-0.0148681 -0.903702 -0.427903 -0.00859226 -0.860082 -0.510083 -0.159165 -0.904395 -0.395899 
-0.105241 -0.910344 -0.400248 -0.104773 -0.881213 -0.460963 0.155121 0.676201 -0.720201 
0.124943 0.67214 -0.729806 0.105281 0.703216 -0.703138 0.0699256 0.73859 -0.670519 
0.0305318 0.744905 -0.666472 -0.0217467 0.772613 -0.634505 -0.11946 0.787947 -0.604044 
-0.24448 0.733647 -0.634028 0.172665 0.67174 -0.720383 0.266478 0.615396 -0.741807 
0.15092 0.662692 -0.733528 0.106236 0.606369 -0.788055 0.112951 0.532018 -0.839166 
0.0793143 0.507812 -0.857809 0.0341847 0.511013 -0.858893 -0.00933095 0.544883 -0.83846 
-0.114883 0.560377 -0.820232 -0.278865 0.730795 -0.623035 -0.221244 0.644245 -0.73212 
-0.29344 0.721483 -0.627181 -0.419803 0.589717 -0.689927 0.549246 0.34819 -0.759666 
0.444504 0.458011 -0.769832 0.445475 0.456101 -0.770405 0.263757 0.354857 -0.896944 
0.110505 0.31736 -0.941845 0.020681 0.328266 -0.944359 0.0256745 0.258652 -0.965629 
0.0617417 0.20014 -0.97782 0.0585362 0.217446 -0.974315 0.0204227 0.200448 -0.979492 
-0.0426813 0.271547 -0.961478 -0.119147 0.335908 -0.934329 -0.197865 0.375218 -0.905572 
-0.46553 0.55002 -0.693369 -0.38922 0.496518 -0.775872 -0.480829 0.512532 -0.711417 
0.564508 0.314374 -0.763216 0.546862 0.30308 -0.780439 0.317872 0.231933 -0.919328 
0.142383 0.161077 -0.976617 0.0919014 0.080963 -0.992471 -0.0021525 0.0752667 -0.997161 
-0.00430221 0.126721 -0.991929 0.0445658 0.149272 -0.987791 0.0512139 0.0661695 -0.996493 
0.046921 0.092492 -0.994607 -0.167404 0.18141 -0.969054 -0.248114 0.267 -0.931209 
-0.502725 0.480421 -0.718654 -0.425861 0.400541 -0.811301 -0.554527 0.418123 -0.719495 
0.498692 0.281181 -0.819905 0.573556 0.269191 -0.773673 0.406479 0.228845 -0.884536 
0.2462 0.0982306 -0.964228 0.122581 0.0657958 -0.990275 0.0376173 -0.0218236 -0.999054 
0.0628461 -0.0751084 -0.995193 0.0986372 0.0594825 -0.993344 -0.00107913 0.0307351 -0.999527 
-0.0431228 0.0757876 -0.996191 -0.178724 0.193303 -0.964724 -0.313837 0.226775 -0.921997 
-0.613471 0.306517 -0.727806 -0.50494 0.275683 -0.817945 0.582573 0.248669 -0.773804 
0.562857 0.243027 -0.790019 0.338834 0.213939 -0.9162 0.136566 0.156831 -0.978138 
0.02867 0.0817887 -0.996237 -0.0489946 0.0249791 -0.998487 0.0633885 -0.0217926 -0.997751 
0.211116 -0.0176865 -0.977301 -0.0733255 -0.172509 -0.982275 0.0588802 -0.0703531 -0.995783 
-0.261509 0.079346 -0.961934 -0.670193 0.150099 -0.726851 -0.453209 0.102032 -0.885546 
0.658334 0.0573181 -0.750541 0.543848 0.0536733 -0.837466 0.310588 0.0454924 -0.949455 
0.084642 0.0301964 -0.995954 -0.00565471 0.0168644 -0.999842 -0.0656595 0.0224961 -0.997588 
0.0134067 0.0380535 -0.999186 0.0210358 -0.0135786 -0.999687 -0.0248336 -0.115889 -0.992952 
0.0844394 -0.113475 -0.989946 -0.0301563 -0.139935 -0.989701 0.145347 -0.0962245 -0.98469 
0.0287067 -0.0664799 -0.997375 -0.093499 -0.0783457 -0.992532 -0.216635 -0.0527417 -0.974827 
-0.659059 -0.0566646 -0.749954 -0.412397 -0.0626748 -0.908846 0.595834 -0.220506 -0.772243 
0.53918 -0.345281 -0.768157 0.534427 -0.213133 -0.817901 0.307001 -0.213954 -0.927348 
0.103137 -0.181772 -0.977917 0.021791 -0.144607 -0.989249 -0.0274291 -0.110564 -0.99349 
0.038962 -0.0810417 -0.995949 0.0412985 -0.101493 -0.993979 -0.0701811 -0.0912469 -0.993352 
-0.109698 -0.194633 -0.974723 -0.0822157 -0.199123 -0.97652 0.044643 -0.0394648 -0.998223 
0.127995 -0.0965325 -0.987066 0.0604023 -0.141527 -0.98809 -0.0886397 -0.155765 -0.983809 
-0.250314 -0.139885 -0.958006 -0.606924 -0.203455 -0.768277 -0.471859 -0.163441 -0.866392 
0.41402 -0.470398 -0.779303 0.357725 -0.51297 -0.780317 0.325837 -0.419918 -0.847053 
0.212721 -0.56167 -0.799548 0.169577 -0.378929 -0.909756 0.0680249 -0.33828 -0.938584 
0.0049968 -0.299331 -0.954136 0.0285169 -0.242613 -0.969704 0.0102164 -0.253054 -0.967398 
-0.108452 -0.250482 -0.962027 -0.0474168 -0.198481 -0.978957 0.0571345 -0.128097 -0.990115 
0.0637334 -0.0776866 -0.994939 0.0504439 -0.15221 -0.98706 -0.0256233 -0.238646 -0.970768 
-0.111445 -0.289772 -0.950585 -0.272405 -0.36709 -0.889405 -0.534957 -0.395564 -0.746559 
-0.507127 -0.445013 -0.738096 -0.490357 -0.381977 -0.783354 0.180792 -0.552478 -0.813684 
0.158258 -0.524808 -0.83638 0.132087 -0.505419 -0.852705 0.121385 -0.497157 -0.859128 
0.0873145 -0.415126 -0.905564 0.0748262 -0.478296 -0.875005 0.0867009 -0.368693 -0.925499 
0.0483366 -0.508486 -0.859713 0.0347801 -0.36118 -0.931847 0.026261 -0.493306 -0.869459 
-0.0274222 -0.320176 -0.946961 0.0463496 -0.441985 -0.895824 0.0131388 -0.237768 -0.971233 
0.0591925 -0.233384 -0.970581 0.017013 -0.248969 -0.968362 -0.071249 -0.534237 -0.842327 
-0.0470399 -0.325932 -0.944222 -0.14408 -0.569363 -0.809362 -0.0970676 -0.369754 -0.924046 
-0.229157 -0.524821 -0.819787 -0.166574 -0.482024 -0.860178 -0.361873 -0.557145 -0.747421 
-0.355882 -0.556538 -0.750742 -0.34522 -0.542564 -0.765799 0.0463498 -0.446697 -0.893484 
0.0393022 -0.463222 -0.88537 0.041226 -0.438949 -0.897566 -0.061774 -0.531769 -0.844634 
-0.0418785 -0.519467 -0.853464 -0.0335842 -0.487079 -0.872712 0.00509585 0.124481 -0.992209 
-0.0879646 0.134702 -0.986974 0.0101257 0.133027 -0.991061 0.0368624 0.091102 -0.995159 
0.0464467 0.0837502 -0.995404 0.0162715 0.0867334 -0.996099 -0.0935031 0.128424 -0.987302 
-0.0850862 0.121813 -0.988899 0.0434293 0.0994854 -0.994091 -0.00112638 0.0863036 -0.996268 
-0.00132986 0.128318 -0.991732 0.0264931 0.0534696 -0.998218 -0.00479441 -0.0244215 -0.99969 
0.0454404 0.068352 -0.996626 -0.0283838 -0.0988132 -0.994701 -0.00775172 -0.0684762 -0.997623 
-0.0362204 0.029479 -0.998909 -0.00226942 -0.0394736 -0.999218 -0.0283612 -0.0260238 -0.999259 
0.00138347 0.0410133 -0.999158 -0.138691 0.0871848 -0.986491 0.179795 -0.0322286 -0.983176 
0.00229067 -0.114882 -0.993377 0.0149722 -0.101053 -0.994768 -0.000567616 -0.0353022 -0.999377 
-0.00525538 -0.03127 -0.999497 -0.0689122 -0.0980943 -0.992788 -0.058341 -0.00713616 -0.998271 
0.0508649 -0.0164765 -0.99857 0.0338433 -0.0470713 -0.998318 0.0471797 0.00384811 -0.998879 
-0.13868 0.0182278 -0.99017 -0.0995821 -0.0365157 -0.994359 -0.104089 0.000129567 -0.994568 
-0.0949607 -0.23624 -0.967043 -0.106615 -0.241669 -0.964484 -0.107564 -0.244251 -0.963728 
-0.107952 -0.24369 -0.963826 
