# vtk DataFile Version 4.2
vtk output
ASCII
DATASET POLYDATA
POINTS 504 float
28.1756 -8.12969 -23.3885 -19.677 -32.056 -17.0692 -11.7016 -32.056 -18.9481 
-3.72618 -32.056 -19.8037 4.24926 -32.056 -19.9369 12.2247 -32.056 -19.5192 
20.2001 -32.056 -18.6129 28.1756 -32.056 -16.4657 -27.6525 -24.0806 -17.7991 
-19.677 -24.0806 -19.3598 -11.7016 -24.0806 -20.7334 -3.72618 -24.0806 -21.9756 
4.24926 -24.0806 -22.1833 12.2247 -24.0806 -21.8316 20.2001 -24.0806 -21.4152 
28.1756 -24.0806 -20.8739 36.151 -24.0806 -18.607 -35.6279 -16.1051 -17.8882 
-27.6525 -16.1051 -19.5908 -19.677 -16.1051 -20.4046 -11.7016 -16.1051 -21.3996 
-3.72618 -16.1051 -22.8287 4.24926 -16.1051 -22.979 12.2247 -16.1051 -22.2433 
20.2001 -16.1051 -22.4031 28.1756 -8.12991 -23.3885 28.1756 -16.1051 -22.5577 
36.151 -16.1051 -21.7951 44.1264 -16.1051 -18.0164 -43.6034 -8.12969 -16.2927 
-35.6279 -8.12969 -19.6329 -27.6525 -8.12969 -20.3761 -19.677 -8.12969 -21.1096 
-11.7016 -8.12969 -21.985 -3.72618 -8.12969 -22.394 4.24926 -8.12969 -22.906 
12.2247 -8.12969 -21.7744 28.1753 -8.12969 -23.3885 20.2001 -8.12969 -22.4892 
28.176 -8.12969 -23.3885 28.1756 -8.12843 -23.3885 36.151 -8.12969 -22.9721 
44.1264 -8.12969 -19.9612 -43.6034 -0.154252 -16.9872 -35.6279 -0.154252 -19.8022 
-27.6525 -0.154252 -20.6078 -19.677 -0.154252 -21.2582 -11.7016 -0.154252 -22.8218 
-3.72618 -0.154252 -21.8116 4.24926 -0.154252 -23.0441 12.2247 -0.154252 -22.033 
20.2001 -0.154252 -22.0097 28.1756 -0.154252 -23.2328 36.151 -0.154252 -22.8222 
44.1264 -0.154252 -19.5577 -43.6034 7.82118 -17.0335 -35.6279 7.82118 -19.8333 
-27.6525 7.82118 -20.054 -19.677 7.82118 -20.6336 -11.7016 7.82118 -22.6756 
-3.72618 7.82118 -22.7434 4.24926 7.82118 -22.6983 12.2247 7.82118 -22.3884 
20.2001 7.82118 -22.615 28.1756 7.82118 -22.8956 36.151 7.82118 -21.96 
44.1264 7.82118 -17.6598 -43.6034 15.7966 -15.6617 -35.6279 15.7966 -18.9619 
-27.6525 15.7966 -20.1115 -19.677 15.7966 -20.7728 -11.7016 15.7966 -21.8878 
-3.72618 15.7966 -22.2315 4.24926 15.7966 -21.8387 12.2247 15.7966 -22.5284 
20.2001 15.7966 -22.9602 28.1756 15.7966 -22.7071 36.151 15.7966 -21.1318 
-35.6279 23.7721 -18.0763 -27.6525 23.7721 -20.0897 -19.677 23.7721 -21.1348 
-11.7016 23.7721 -22.2278 -3.72618 23.7721 -22.6756 4.24926 23.7721 -22.5129 
12.2247 23.7721 -22.6893 20.2001 23.7721 -22.6997 28.1756 23.7721 -21.7802 
36.151 23.7721 -18.0066 -27.6525 31.7475 -18.2003 -19.677 31.7475 -20.0073 
-11.7016 31.7475 -21.846 -3.72618 31.7475 -22.3967 4.24926 31.7475 -22.4085 
12.2247 31.7475 -22.3249 20.2001 31.7475 -21.0134 28.1756 31.7475 -18.5926 
-19.677 39.7229 -16.7396 -11.7016 39.7229 -19.5372 -3.72618 39.7229 -20.9006 
4.24926 39.7229 -20.8891 12.2247 39.7229 -19.6449 20.2001 39.7229 -16.8394 
-19.677 -34.7935 -15.4131 -19.677 -40.0314 -11.1788 -11.7016 -38.2985 -15.4131 
-11.7016 -40.0314 -14.0448 -3.72618 -39.7754 -15.4131 -3.72618 -40.0314 -15.2169 
4.24926 -39.6012 -15.4131 4.24926 -40.0314 -15.0533 12.2247 -38.4406 -15.4131 
12.2247 -40.0314 -13.8602 20.2001 -36.3391 -15.4131 20.2001 -40.0314 -11.1069 
28.1756 -33.2696 -15.4131 -35.6279 -32.056 -9.61782 -24.646 -32.056 -15.4131 
-27.6525 -29.7712 -15.4131 -27.6525 -32.056 -14.2622 30.3839 -32.056 -15.4131 
36.151 -28.4157 -15.4131 36.151 -32.056 -10.2536 -43.6034 -24.0806 -9.07876 
-35.5964 -24.0806 -15.4131 -35.6279 -24.0505 -15.4131 -35.6279 -24.0806 -15.4018 
41.6825 -24.0806 -15.4131 44.1264 -21.1687 -15.4131 44.1264 -24.0806 -11.9326 
-41.0117 -16.1051 -15.4131 -43.6034 -11.2077 -15.4131 -43.6034 -16.1051 -13.936 
46.8529 -16.1051 -15.4131 -44.6626 -8.12969 -15.4131 48.6763 -8.12969 -15.4131 
-45.8261 -0.154252 -15.4131 48.1399 -0.154252 -15.4131 -45.5155 7.82118 -15.4131 
46.1489 7.82118 -15.4131 44.1264 13.7286 -15.4131 -43.9027 15.7966 -15.4131 
-43.6034 17.259 -15.4131 43.219 15.7966 -15.4131 44.1264 15.7966 -13.5426 
-41.6645 23.7721 -15.4131 -43.6034 23.7721 -13.6282 -35.6279 30.0771 -15.4131 
38.7972 23.7721 -15.4131 36.151 27.5695 -15.4131 -33.9892 31.7475 -15.4131 
-35.6279 31.7475 -14.3469 -27.6525 37.6712 -15.4131 32.4405 31.7475 -15.4131 
28.1756 35.5271 -15.4131 36.151 31.7475 -7.94371 -24.0076 39.7229 -15.4131 
-27.6525 39.7229 -13.399 -19.677 41.4357 -15.4131 -11.7016 45.2769 -15.4131 
-3.72618 46.9299 -15.4131 4.24926 47.0254 -15.4131 12.2247 45.7505 -15.4131 
22.4913 39.7229 -15.4131 20.2001 41.2377 -15.4131 -11.7016 47.6984 -10.9831 
-3.72618 47.6984 -14.2967 4.24926 47.6984 -14.4632 12.2247 47.6984 -11.7406 
-19.677 -42.94 -7.43765 -11.7016 -45.1442 -7.43765 -3.72618 -45.9028 -7.43765 
-3.72618 -48.0069 0.354511 4.24926 -45.5515 -7.43765 12.2247 -44.3145 -7.43765 
20.2001 -42.1673 -7.43765 -35.6279 -33.9823 -7.43765 -26.0565 -40.0314 -7.43765 
-27.6525 -39.1904 -7.43765 -27.6525 -40.0314 -5.67597 25.1595 -40.0314 -7.43765 
28.1756 -38.6153 -7.43765 28.1756 -40.0314 -0.636121 36.151 -33.5788 -7.43765 
-37.8038 -32.056 -7.43765 -43.6034 -25.7479 -7.43765 38.0157 -32.056 -7.43765 
44.1264 -26.2764 -7.43765 -44.84 -24.0806 -7.43765 45.9209 -24.0806 -7.43765 
-48.8516 -16.1051 -7.43765 50.2712 -16.1051 -7.43765 -50.9226 -8.12969 -7.43765 
51.6492 -8.12969 -7.43765 -51.2447 -0.154252 -7.43765 51.0626 -0.154252 -7.43765 
-50.9172 7.82118 -7.43765 49.0947 7.82118 -7.43765 -49.6735 15.7966 -7.43765 
46.2641 15.7966 -7.43765 44.1264 20.0114 -7.43765 -47.0891 23.7721 -7.43765 
-43.6034 29.7595 -7.43765 42.0736 23.7721 -7.43765 -42.1898 31.7475 -7.43765 
-35.6279 37.86 -7.43765 28.1756 39.4954 -7.43765 36.3401 31.7475 -7.43765 
36.151 31.9584 -7.43765 -32.9757 39.7229 -7.43765 -27.6525 42.8678 -7.43765 
-19.677 46.4439 -7.43765 27.8877 39.7229 -7.43765 20.2001 45.22 -7.43765 
28.1756 39.7229 0.450886 -15.9724 47.6984 -7.43765 -11.7016 49.075 -7.43765 
-3.72618 50.8023 -7.43765 4.24926 50.9805 -7.43765 15.4939 47.6984 -7.43765 
12.2247 49.2539 -7.43765 -3.72618 -48.0509 0.537784 -27.6525 -42.3231 0.537784 
-19.677 -45.6744 0.537784 -4.32602 -48.0069 0.537784 -11.7016 -47.4539 0.537784 
-3.01544 -48.0069 0.537784 -3.72618 -48.0069 0.927012 4.24926 -47.5514 0.537784 
12.2247 -46.3109 0.537784 20.2001 -43.8954 0.537784 28.1756 -40.2583 0.537784 
-31.3786 -40.0314 0.537784 -35.6279 -37.0644 0.537784 28.5521 -40.0314 0.537784 
28.1756 -40.0314 1.56215 36.151 -34.9277 0.537784 -41.2686 -32.056 0.537784 
-43.6034 -29.1429 0.537784 39.4377 -32.056 0.537784 44.1264 -27.0201 0.537784 
-47.0232 -24.0806 0.537784 46.366 -24.0806 0.537784 44.1264 -24.0806 8.36326 
-49.8711 -16.1051 0.537784 50.4484 -16.1051 0.537784 -50.9369 -8.12969 0.537784 
51.978 -8.12969 0.537784 -51.0856 -0.154252 0.537784 51.6101 -0.154252 0.537784 
-49.723 7.82118 0.537784 49.8353 7.82118 0.537784 -48.3335 15.7966 0.537784 
-43.6034 15.7966 6.48833 46.9549 15.7966 0.537784 44.1264 20.936 0.537784 
-44.8911 23.7721 0.537784 -43.6034 26.7754 0.537784 -43.6034 23.7721 2.09856 
42.3717 23.7721 0.537784 -40.8294 31.7475 0.537784 -35.6279 36.7699 0.537784 
-35.6279 31.7475 5.24204 36.2432 31.7475 0.537784 36.151 31.848 0.537784 
36.151 31.7475 0.795959 -31.757 39.7229 0.537784 -27.6525 42.0484 0.537784 
-27.6525 39.7229 3.91371 -19.677 45.6822 0.537784 20.2001 45.6886 0.537784 
28.1782 39.7229 0.537784 28.1756 39.7253 0.537784 28.1756 39.7229 0.544255 
-14.0106 47.6984 0.537784 -11.7016 48.5072 0.537784 -11.7016 47.6984 2.24757 
-3.72618 50.5935 0.537784 -3.72618 47.6984 6.99179 4.24926 51.2207 0.537784 
16.6382 47.6984 0.537784 12.2247 49.7797 0.537784 12.2247 47.6984 6.28103 
-27.6525 -41.4869 8.51322 -19.677 -44.8777 8.51322 -11.7016 -46.6711 8.51322 
-3.72618 -47.0862 8.51322 4.24926 -46.3239 8.51322 12.2247 -44.7654 8.51322 
20.2001 -42.2587 8.51322 -30.0273 -40.0314 8.51322 -35.6279 -35.9789 8.51322 
-27.6525 -40.0314 11.3629 12.2247 -40.0314 15.0031 24.9129 -40.0314 8.51322 
20.2001 -40.0314 11.7825 28.1756 -38.219 8.51322 36.151 -32.6453 8.51322 
-39.7581 -32.056 8.51322 -43.6034 -26.6915 8.51322 -35.6279 -32.056 13.687 
28.1756 -32.056 15.2887 36.8101 -32.056 8.51322 36.151 -32.056 9.33021 
-45.1591 -24.0806 8.51322 -43.6034 -24.0806 10.9497 44.0715 -24.0806 8.51322 
36.151 -24.0806 16.0093 44.1264 -24.0004 8.51322 -47.449 -16.1051 8.51322 
-43.6034 -16.1051 13.8263 48.5224 -16.1051 8.51322 44.1264 -16.1051 14.2559 
-47.8217 -8.12969 8.51322 -43.6034 -8.12969 14.0291 50.4432 -8.12969 8.51322 
-47.0364 -0.154252 8.51322 -43.6034 -0.154252 12.5656 50.5237 -0.154252 8.51322 
-44.6397 7.82118 8.51322 -43.6034 10.9199 8.51322 -43.6034 7.82118 9.67101 
-35.6279 7.82118 16.02 48.8662 7.82118 8.51322 -41.5309 15.7966 8.51322 
-35.6279 15.7966 12.9127 45.5538 15.7966 8.51322 44.1264 18.1466 8.51322 
44.1264 15.7966 11.2198 -37.0672 23.7721 8.51322 -35.6279 26.128 8.51322 
-35.6279 23.7721 9.62777 -27.6525 23.7721 14.4321 40.2092 23.7721 8.51322 
36.151 28.4383 8.51322 36.151 23.7721 13.1981 -31.4956 31.7475 8.51322 
-27.6525 35.1948 8.51322 -27.6525 31.7475 10.8407 -19.677 31.7475 14.8 
32.8469 31.7475 8.51322 28.1756 36.2613 8.51322 28.1756 31.7475 12.7725 
-21.8508 39.7229 8.51322 -19.677 40.9475 8.51322 -19.677 39.7229 9.73982 
-11.7016 44.1146 8.51322 -11.7016 39.7229 12.6597 -3.72618 46.8607 8.51322 
-3.72618 39.7229 15.1936 4.24926 39.7229 16.4625 12.2247 46.6876 8.51322 
12.2247 39.7229 15.3463 24.0758 39.7229 8.51322 20.2001 42.5826 8.51322 
20.2001 39.7229 11.6067 1.19928 47.6984 8.51322 6.92506 47.6984 8.51322 
4.24926 48.1379 8.51322 4.24926 47.6984 9.1285 -19.677 -40.5292 16.4887 
-11.7016 -42.3401 16.4887 -3.72618 -42.3488 16.4887 4.24926 -40.8561 16.4887 
-20.8277 -40.0314 16.4887 -27.6525 -36.4535 16.4887 -19.677 -40.0314 16.9945 
-11.7016 -40.0314 18.7046 -3.72618 -40.0314 18.5487 7.25464 -40.0314 16.4887 
4.24926 -40.0314 17.1648 12.2247 -38.1895 16.4887 20.2001 -34.504 16.4887 
-32.7676 -32.056 16.4887 -35.6279 -28.3436 16.4887 -27.6525 -32.056 19.8017 
-19.677 -32.056 22.3277 -11.7016 -32.056 23.3165 -3.72618 -32.056 22.2283 
4.24926 -32.056 21.0116 12.2247 -32.056 19.7376 25.0222 -32.056 16.4887 
[...]
POINT_DATA 504
SCALARS ImageScalars float
LOOKUP_TABLE default
0 0 0 0 0 0 0 0 0 
0 0 0 0 0 0 0 0 0 
0 0 0 0 0 0 0 0 0 
0 0 0 0 0 0 0 0 0 
0 0 0 0 0 0 0 0 0 
0 0 0 0 0 0 0 0 0 
0 0 0 0 0 0 0 0 0 
0 0 0 0 0 0 0 0 0 
0 0 0 0 0 0 0 0 0 
0 0 0 0 0 0 0 0 0 
0 0 0 0 0 0 0 0 0 
0 0 0 0 0 0 0 0 0 
0 0 0 0 0 0 0 0 0 
0 0 0 0 0 0 0 0 0 
0 0 0 0 0 0 0 0 0 
0 0 0 0 0 0 0 0 0 
0 0 0 0 0 0 0 0 0 
0 0 0 0 0 0 0 0 0 
0 0 0 0 0 0 0 0 0 
0 0 0 0 0 0 0 0 0 
0 0 0 0 0 0 0 0 0 
0 0 0 0 0 0 0 0 0 
0 0 0 0 0 0 0 0 0 
0 0 0 0 0 0 0 0 0 
0 0 0 0 0 0 0 0 0 
0 0 0 0 0 0 0 0 0 
0 0 0 0 0 0 0 0 0 
0 0 0 0 0 0 0 0 0 
0 0 0 0 0 0 0 0 0 
0 0 0 0 0 0 0 0 0 
0 0 0 0 0 0 0 0 0 
0 0 0 0 0 0 0 0 0 
0 0 0 0 0 0 0 0 0 
0 0 0 0 0 0 0 0 0 
0 0 0 0 0 0 0 0 0 
0 0 0 0 0 0 0 0 0 
0 0 0 0 0 0 0 0 0 
0 0 0 0 0 0 0 0 0 
0 0 0 0 0 0 0 0 0 
0 0 0 0 0 0 0 0 0 
0 0 0 0 0 0 0 0 0 
0 0 0 0 0 0 0 0 0 
0 0 0 0 0 0 0 0 0 
0 0 0 0 0 0 0 0 0 
0 0 0 0 0 0 0 0 0 
0 0 0 0 0 0 0 0 0 
0 0 0 0 0 0 0 0 0 
0 0 0 0 0 0 0 0 0 
0 0 0 0 0 0 0 0 0 
0 0 0 0 0 0 0 0 0 
0 0 0 0 0 0 0 0 0 
0 0 0 0 0 0 0 0 0 
0 0 0 0 0 0 0 0 0 
0 0 0 0 0 0 0 0 0 
0 0 0 0 0 0 0 0 0 
0 0 0 0 0 0 0 0 0 

NORMALS Normals float
0.0281329 0.045175 0.998583 0.250391 0.390328 0.885973 0.151347 0.352241 0.923591 
0.0587664 0.37085 0.926831 -0.0167928 0.387464 0.921732 -0.0717197 0.410757 0.90892 
-0.167955 0.479337 0.86141 -0.300387 0.613791 0.730088 0.230037 0.284016 0.930816 
0.174412 0.191148 0.965941 0.158936 0.148462 0.976063 0.0884744 0.176257 0.98036 
-0.00853859 0.175986 0.984356 -0.0489032 0.161619 0.985641 -0.0561317 0.204358 0.977286 
-0.15431 0.340687 0.927427 -0.363725 0.490558 0.791869 0.300792 0.244789 0.921739 
0.14818 0.150932 0.977375 0.110597 0.10556 0.988244 0.149729 0.0764244 0.985769 
0.0984083 0.0260815 0.994804 -0.0364816 0.0457559 0.998286 -0.0362202 -0.00433273 0.999334 
0.0200937 0.0671639 0.99754 0.0281311 0.0451778 0.998583 -0.0354382 0.145937 0.988659 
-0.23524 0.236679 0.94268 -0.618007 0.307636 0.723483 0.546806 0.161525 0.821531 
0.212366 0.112708 0.970669 0.0883521 0.0617363 0.994174 0.0997299 0.0524801 0.99363 
0.0801665 0.0889407 0.992806 0.0579755 -0.0634538 0.996299 -0.0394478 0.00375611 0.999215 
-0.0284023 -0.0130094 0.999512 0.028135 0.0451731 0.998583 0.103452 -0.0251271 0.994317 
0.0281205 0.0451761 0.998583 0.0281366 0.0451631 0.998583 -0.184505 0.0628866 0.980818 
-0.569072 0.0806376 0.818324 0.501735 0.0369679 0.864231 0.207071 0.0113928 0.97826 
0.0922377 -0.0202682 0.995531 0.139012 -0.0298571 0.98984 0.0333408 0.0432601 0.998507 
0.0116541 0.0222715 0.999684 0.0130782 -0.0128679 0.999832 -0.0641102 0.0395804 0.997158 
0.0766528 0.00836791 0.997023 0.0514376 -0.0308356 0.9982 -0.192863 -0.0627339 0.979218 
-0.600963 -0.11928 0.790327 0.529083 -0.0694686 0.845722 0.150316 -0.0496976 0.987388 
0.0485593 -0.0307027 0.998348 0.157573 -0.0292661 0.987073 0.134484 -0.0596026 0.989122 
0.00128145 0.0251646 0.999682 -0.0226357 -0.0761015 0.996843 -0.00533781 0.0309743 0.999506 
0.0322414 0.0603661 0.997655 -0.0404287 -0.0334964 0.998621 -0.26443 -0.0954608 0.959669 
-0.697847 -0.246345 0.67255 0.565627 -0.146787 0.811493 0.23475 -0.108328 0.966001 
0.10968 0.00234475 0.993964 0.110368 0.0307227 0.993416 0.09111 -0.0259142 0.995504 
-0.003223 -0.00382746 0.999987 0.0180019 -0.0104486 0.999783 0.0706349 0.0189549 0.997322 
0.010112 0.00482476 0.999937 -0.0933382 -0.0667736 0.993393 -0.405705 -0.210476 0.88944 
0.315361 -0.221791 0.92269 0.19068 -0.118004 0.974534 0.127706 -0.045796 0.990754 
0.0953028 -0.0010011 0.995448 0.0174128 0.00940571 0.999804 0.00087693 0.0353574 0.999374 
0.0120982 -0.0118171 0.999857 -0.0555357 -0.117054 0.991572 -0.243534 -0.22377 0.943726 
-0.605264 -0.41466 0.679494 0.28952 -0.315022 0.903847 0.215918 -0.240278 0.946386 
0.153668 -0.160805 0.97495 0.0319703 -0.0937543 0.995082 -0.00404305 -0.0844256 0.996422 
-0.0871444 -0.177391 0.980275 -0.201924 -0.318215 0.926264 -0.430084 -0.530444 0.730518 
0.300064 -0.53611 0.789017 0.232194 -0.439934 0.867493 0.0797607 -0.369841 0.925665 
-0.0715726 -0.366084 0.927825 -0.212021 -0.439809 0.872706 -0.399621 -0.628858 0.666964 
0.275161 0.486089 0.82946 0.30997 0.72742 0.612191 0.164913 0.579557 0.798071 
0.168741 0.666306 0.726335 0.0452776 0.628766 0.776275 0.0448443 0.64129 0.765987 
-0.0506412 0.645462 0.762112 -0.0544507 0.666776 0.743266 -0.123916 0.645708 0.753462 
-0.144011 0.729495 0.668653 -0.223802 0.653064 0.723478 -0.290577 0.815696 0.500204 
-0.321451 0.649688 0.688894 0.532066 0.62983 0.56588 0.309046 0.460315 0.832226 
0.308248 0.441434 0.842686 0.353414 0.516523 0.779937 -0.361515 0.649684 0.668744 
-0.45346 0.632396 0.628052 -0.55799 0.738867 0.377786 0.695361 0.523257 0.49262 
0.378323 0.379776 0.844181 0.378667 0.379534 0.844136 0.37913 0.380259 0.843602 
-0.583531 0.562691 0.585552 -0.666122 0.482682 0.568594 -0.715371 0.583564 0.384313 
0.480761 0.27437 0.83282 0.558221 0.215587 0.801194 0.602094 0.304002 0.738286 
-0.732177 0.330222 0.595709 0.585816 0.170808 0.79224 -0.816682 0.0623009 0.573715 
0.605075 0.0361404 0.795347 -0.810204 -0.143193 0.568389 0.622317 -0.0855699 0.778074 
-0.791247 -0.263032 0.552036 -0.770031 -0.341674 0.538805 0.578372 -0.14753 0.802322 
0.583178 -0.176768 0.792878 -0.755231 -0.363909 0.545157 -0.809548 -0.380429 0.447108 
0.557586 -0.297143 0.775116 0.71053 -0.352626 0.608935 0.442375 -0.433319 0.7852 
-0.710614 -0.453576 0.537863 -0.670938 -0.521733 0.526913 0.442343 -0.450824 0.7753 
0.504399 -0.519501 0.68971 0.370465 -0.56297 0.738797 -0.593889 -0.60131 0.53453 
-0.518673 -0.649917 0.555505 -0.739676 -0.653411 0.161038 0.347365 -0.602678 0.718413 
0.418333 -0.710957 0.565277 0.319025 -0.609226 0.725994 0.239445 -0.724649 0.646181 
0.0801333 -0.776532 0.624962 -0.0494075 -0.779919 0.623927 -0.279098 -0.736254 0.616469 
-0.456899 -0.672035 0.582762 -0.429928 -0.677723 0.596534 0.25742 -0.906278 0.335254 
0.0881408 -0.834664 0.543661 -0.0555367 -0.827604 0.558559 -0.313226 -0.864102 0.393976 
0.309327 0.829956 0.464208 0.161327 0.884036 0.438696 0.0228722 0.907987 0.418373 
0.00608417 0.997473 0.0707916 -0.0933803 0.910671 0.402442 -0.194476 0.902085 0.385255 
-0.314691 0.879932 0.355935 0.552182 0.68952 0.468676 0.411132 0.773108 0.482984 
0.434822 0.753962 0.492413 0.447379 0.798748 0.40231 -0.39716 0.854512 0.334774 
-0.444188 0.836033 0.322095 -0.485481 0.873554 0.0348145 -0.578871 0.766559 0.278022 
0.593291 0.653682 0.469793 0.71392 0.558918 0.421815 -0.612688 0.743472 0.268073 
-0.752707 0.626282 0.202984 0.743723 0.526368 0.412083 -0.795219 0.57587 0.189736 
0.875192 0.324768 0.358558 -0.925463 0.333037 0.18057 0.953528 0.14349 0.264942 
-0.983495 0.0398285 0.176498 0.976713 -0.00165538 0.214544 -0.970844 -0.150581 0.186514 
0.982998 -0.0969697 0.155925 -0.938732 -0.281376 0.199024 0.958498 -0.224051 0.176301 
-0.899 -0.39395 0.191319 -0.871768 -0.455825 0.179564 0.900271 -0.417033 0.124884 
0.806468 -0.565762 0.171821 -0.842781 -0.511271 0.168292 0.759908 -0.619633 0.196455 
0.600618 -0.774141 0.199908 -0.622901 -0.762505 0.174872 -0.743553 -0.653633 0.141041 
-0.740872 -0.656702 0.140892 0.552394 -0.812729 0.18529 0.462242 -0.86982 0.172471 
0.363917 -0.915937 0.169184 -0.618977 -0.765367 0.176296 -0.509637 -0.834761 0.208434 
-0.646004 -0.752244 -0.129648 0.313673 -0.9376 0.150053 0.258605 -0.954674 0.147383 
0.114557 -0.976353 0.183337 -0.088902 -0.971606 0.219269 -0.401195 -0.893109 0.203466 
-0.325329 -0.924464 0.198817 0.00572295 0.997965 0.0635086 0.460015 0.881676 0.105045 
0.311056 0.945227 0.0989457 0.0155102 0.997776 0.0648253 0.139224 0.986904 0.0814675 
-0.00401843 0.998087 0.0616999 0.00465006 0.998853 0.0476596 -0.105466 0.993532 0.042088 
-0.224187 0.974086 0.0299572 -0.346157 0.938155 0.00639971 -0.487484 0.873044 -0.0123465 
0.524561 0.84514 0.102836 0.604339 0.791722 0.089171 -0.493466 0.869664 -0.0132733 
-0.49088 0.869399 -0.0564098 -0.623548 0.780727 -0.04066 0.732555 0.676704 0.0737202 
0.803881 0.592739 0.0493588 -0.683228 0.728255 -0.0533309 -0.78174 0.617927 -0.0839611 
0.886738 0.462141 0.0110519 -0.828573 0.552181 -0.0925376 -0.749968 0.544726 -0.375262 
0.971308 0.224555 -0.0783331 -0.94205 0.32247 -0.0924972 0.981983 0.0748229 -0.173525 
-0.995314 0.0665061 -0.0701952 0.972094 -0.0773414 -0.221475 -0.991226 -0.127932 -0.0332271 
0.931759 -0.152315 -0.329583 -0.960392 -0.278376 -0.0123769 0.891508 -0.25703 -0.373026 
0.692195 -0.309401 -0.652026 -0.907368 -0.418887 -0.034884 -0.860952 -0.504771 -0.0629952 
0.812177 -0.369955 -0.451112 0.795391 -0.437927 -0.419015 0.772792 -0.353528 -0.527078 
-0.829445 -0.552266 -0.0838033 0.735483 -0.565843 -0.372674 0.61116 -0.696486 -0.376019 
0.563511 -0.524744 -0.638043 -0.733298 -0.665047 -0.141372 -0.732204 -0.6662 -0.141616 
-0.730995 -0.665586 -0.150472 0.530346 -0.777092 -0.338912 0.458428 -0.83244 -0.311267 
0.475048 -0.730693 -0.490324 0.354113 -0.892443 -0.279552 -0.532591 -0.837315 -0.123491 
-0.645954 -0.751711 -0.132943 -0.645929 -0.751734 -0.132938 -0.645916 -0.7517 -0.133187 
0.298788 -0.919667 -0.254831 0.281909 -0.927518 -0.245435 0.287551 -0.903505 -0.317794 
0.15691 -0.963843 -0.215375 0.187722 -0.852855 -0.487236 -0.0521987 -0.985076 -0.164016 
-0.434143 -0.89183 -0.127118 -0.309474 -0.940934 -0.137362 -0.286616 -0.874919 -0.390344 
0.459996 0.848467 -0.26174 0.296013 0.919423 -0.258915 0.128425 0.956985 -0.260166 
-0.0193199 0.957568 -0.28756 -0.134817 0.935741 -0.325905 -0.237144 0.897767 -0.371184 
-0.348008 0.854514 -0.385612 0.50403 0.822516 -0.263479 0.623232 0.723645 -0.296511 
0.454718 0.802774 -0.385727 -0.227498 0.668884 -0.707699 -0.427402 0.819411 -0.381959 
-0.334332 0.770003 -0.543432 -0.478777 0.786885 -0.389339 -0.605476 0.695251 -0.387331 
0.711382 0.623648 -0.324035 0.810961 0.464703 -0.355518 0.615876 0.565812 -0.548228 
-0.356527 0.534695 -0.766153 -0.616396 0.685167 -0.388075 -0.600463 0.679144 -0.422146 
0.840755 0.389349 -0.376217 0.796579 0.368466 -0.479266 -0.747451 0.543894 -0.381441 
-0.427792 0.408996 -0.806049 -0.748747 0.542198 -0.381313 0.879466 0.145995 -0.453018 
0.750241 0.108511 -0.652199 -0.844371 0.3557 -0.400644 -0.65611 0.337841 -0.674821 
0.863181 -0.0177141 -0.504583 0.724287 -0.0529028 -0.687466 -0.930953 0.107507 -0.348954 
0.79829 -0.167704 -0.578454 0.70601 -0.193152 -0.681353 -0.953216 -0.0899737 -0.288589 
0.722199 -0.23892 -0.649112 0.683386 -0.267343 -0.679346 0.695757 -0.253272 -0.672142 
0.534958 -0.30472 -0.788014 -0.919686 -0.281248 -0.274003 0.616323 -0.303827 -0.726523 
0.520472 -0.30823 -0.796306 -0.840975 -0.451293 -0.298489 -0.816059 -0.489316 -0.3076 
-0.785299 -0.453651 -0.421315 0.570432 -0.345829 -0.74499 0.539102 -0.389466 -0.746784 
0.546975 -0.352414 -0.759357 0.413936 -0.339669 -0.84456 -0.717729 -0.587867 -0.373198 
-0.654766 -0.628582 -0.419721 -0.538249 -0.554959 -0.634278 0.474346 -0.465977 -0.746901 
0.461561 -0.524796 -0.715228 0.444881 -0.444963 -0.777232 0.333598 -0.404942 -0.851313 
-0.627664 -0.634633 -0.450864 -0.588766 -0.660867 -0.465413 -0.501539 -0.563068 -0.656821 
0.392578 -0.644519 -0.656108 0.356769 -0.679854 -0.640714 0.357635 -0.639086 -0.680931 
0.286969 -0.731311 -0.618735 0.267344 -0.586359 -0.764664 0.194352 -0.803129 -0.563215 
0.189352 -0.514169 -0.836526 0.0094619 -0.447455 -0.894257 -0.27426 -0.820644 -0.501323 
-0.224547 -0.515765 -0.82678 -0.541336 -0.694441 -0.474033 -0.480069 -0.730912 -0.485079 
-0.450442 -0.639184 -0.623334 0.0688165 -0.846698 -0.527605 -0.0986412 -0.856849 -0.506043 
-0.00978907 -0.860299 -0.509696 -0.00689575 -0.846059 -0.533044 0.260864 0.721143 -0.641796 
0.0915578 0.739085 -0.667361 -0.068398 0.702057 -0.708828 -0.173745 0.618352 -0.766455 
0.283694 0.714132 -0.639948 0.430981 0.622304 -0.653447 0.256797 0.703513 -0.662665 
0.0753901 0.642723 -0.76238 -0.0852933 0.593636 -0.800201 -0.192699 0.604501 -0.772946 
-0.175015 0.583053 -0.793359 -0.211138 0.564785 -0.797771 -0.270811 0.504779 -0.81967 
0.534255 0.503739 -0.678836 0.564883 0.406371 -0.718172 0.393696 0.43069 -0.812102 
0.192392 0.381182 -0.90426 -0.00831542 0.354391 -0.935061 -0.131341 0.331277 -0.934348 
-0.151313 0.314287 -0.937191 -0.164085 0.341163 -0.925572 -0.302431 0.474974 -0.826399 
-0.247645 0.415002 -0.875468 -0.313332 0.451906 -0.835227 0.596402 0.289025 -0.748845 
0.50888 0.255298 -0.82211 0.327978 0.150826 -0.932567 0.193035 0.142744 -0.970753 
-0.148488 0.243031 -0.958586 -0.170499 0.209301 -0.962873 -0.126473 0.195102 -0.972594 
-0.160879 0.206041 -0.965228 -0.394994 0.387167 -0.833115 -0.25292 0.301166 -0.919419 
-0.407057 0.384728 -0.828425 0.616175 0.0842558 -0.78309 0.438847 0.0692228 -0.895891 
0.298274 0.0316061 -0.953957 -0.18251 0.182668 -0.966086 -0.118762 0.113663 -0.986396 
-0.148269 0.189142 -0.970691 -0.5045 0.310411 -0.805683 -0.325802 0.2781 -0.903611 
-0.603311 0.214133 -0.768221 0.608151 -0.0594622 -0.791591 0.436274 -0.0514837 -0.89834 
0.293952 -0.00505351 -0.955807 -0.153173 0.0621972 -0.98624 -0.106598 0.0925318 -0.989987 
-0.268887 0.132095 -0.954071 -0.6261 0.16724 -0.761596 -0.592136 0.167377 -0.788264 
0.571496 -0.21109 -0.79299 0.528891 -0.292243 -0.796787 0.494889 -0.197942 -0.846111 
0.368345 -0.0997512 -0.924322 -0.0907831 -0.209353 -0.973617 -0.0857124 -0.225196 -0.970536 
-0.0831024 -0.0752815 -0.993693 -0.0751268 -0.0234257 -0.996899 -0.254168 -0.00602669 -0.967141 
-0.66914 -0.0322818 -0.742435 -0.594604 -0.0230237 -0.803689 0.526379 -0.304961 -0.793677 
0.451942 -0.274732 -0.848688 -0.245416 -0.174966 -0.953498 -0.0692048 -0.259505 -0.963259 
0.0424545 -0.171837 -0.98421 -0.0365531 -0.150276 -0.987968 -0.261667 -0.17419 -0.949309 
-0.67062 -0.239427 -0.702099 -0.665202 -0.253992 -0.702135 -0.659272 -0.237237 -0.713498 
0.447871 -0.32771 -0.831876 0.422083 -0.334183 -0.842715 0.431314 -0.335717 -0.837414 
0.337847 -0.395065 -0.854273 0.0991909 -0.423969 -0.900229 -0.154202 -0.283037 -0.946632 
-0.215819 -0.138306 -0.966589 -0.0683731 -0.103834 -0.992242 0.0180699 -0.171899 -0.984949 
-0.0911986 -0.248594 -0.964305 -0.477458 -0.421194 -0.771122 -0.392898 -0.448845 -0.802602 
-0.330603 -0.38864 -0.860035 0.3405 -0.338831 -0.877071 0.311855 -0.362311 -0.878338 
0.298499 -0.344246 -0.890164 0.161269 -0.364604 -0.917091 0.0210573 -0.271101 -0.962321 
-0.0790801 -0.12027 -0.989587 -0.108106 -0.060684 -0.992285 -0.102378 -0.192936 -0.975856 
-0.323232 -0.415978 -0.849991 -0.307768 -0.408686 -0.859218 -0.25564 -0.36201 -0.896436 
0.241117 -0.381078 -0.892548 0.214406 -0.400542 -0.89084 0.20441 -0.374622 -0.904364 
0.16014 -0.430088 -0.88847 0.110403 -0.309442 -0.944488 0.00957266 -0.444989 -0.895485 
0.00563157 -0.233632 -0.972309 -0.194484 -0.41613 -0.888264 -0.136909 -0.219341 -0.965995 
-0.308259 -0.345161 -0.886476 -0.306317 -0.344727 -0.887318 -0.302863 -0.338861 -0.890757 
-0.00143631 0.250996 -0.967987 0.166455 0.148559 -0.974794 0.206661 0.107301 -0.972511 
-0.141608 0.240497 -0.960265 0.00543774 0.183107 -0.983078 -0.147734 0.241218 -0.95916 
-0.203557 0.191764 -0.960099 0.244174 0.0283419 -0.969317 0.235935 0.0275902 -0.971377 
0.0914497 0.111705 -0.989525 -0.105056 0.145351 -0.983787 -0.205112 0.189745 -0.96017 
-0.206513 0.189994 -0.95982 -0.207456 0.0722158 -0.975575 0.272058 0.0284113 -0.961861 
0.269013 0.034441 -0.962521 0.119071 0.0647721 -0.990771 -0.0768704 -0.0474403 -0.995912 
-0.102774 -0.166104 -0.980738 -0.132827 -0.039834 -0.990338 -0.205325 0.0602842 -0.976835 
-0.183131 -0.00462255 -0.983078 -0.209064 0.0598156 -0.976071 0.32326 -0.0265072 -0.945939 
0.306219 0.00362791 -0.951954 0.000417638 -0.00547107 -0.999985 -0.135145 -0.177004 -0.974887 
-0.220634 -0.107781 -0.969383 0.363239 -0.227042 -0.903609 0.353063 -0.244102 -0.903195 
0.352889 -0.222023 -0.908942 0.0767135 -0.38005 -0.921779 0.0127586 -0.217069 -0.976073 
-0.268474 -0.142567 -0.952678 -0.236508 -0.18684 -0.953496 -0.274864 -0.131988 -0.952381 

