# vtk DataFile Version 4.2
vtk output
ASCII
DATASET POLYDATA
POINTS 550 float
-23.1715 -28.2434 -10.5695 -16.7285 -28.2434 -11.5832 -10.2856 -28.2434 -12.1099 
-3.8427 -28.2434 -12.0747 2.60022 -28.2434 -11.3078 -29.6144 -21.8004 -12.8612 
-23.1715 -21.8004 -13.3497 -16.7285 -21.8004 -13.8386 -10.2856 -21.8004 -13.9915 
-3.8427 -21.8004 -14.1996 2.60022 -21.8004 -13.8759 9.04314 -21.8004 -13.5731 
15.4861 -21.8004 -13.0069 21.929 -21.8004 -12.3947 28.3719 -21.8004 -11.6855 
-42.5002 -15.3575 -10.7856 -36.0573 -15.3575 -13.6392 -29.6144 -15.3575 -14.262 
-23.1715 -15.3575 -14.558 -16.7285 -15.3575 -14.1551 -10.2856 -15.3575 -14.2378 
-3.8427 -15.3575 -14.5332 2.60022 -15.3575 -14.0659 9.04314 -15.3575 -14.362 
15.4861 -15.3575 -14.3796 21.929 -15.3575 -14.3699 28.3719 -15.3575 -14.2772 
34.8148 -15.3575 -13.4898 41.2577 -15.3575 -12.7861 47.7007 -15.3575 -11.1033 
-42.5002 -8.9146 -13.3361 -36.0573 -8.9146 -15.1648 -29.6144 -8.9146 -15.1252 
-23.1715 -8.9146 -14.5625 -16.7285 -8.9146 -13.4612 -10.2856 -8.9146 -13.478 
-3.8427 -8.9146 -14.7367 2.60022 -8.9146 -13.4147 9.04314 -8.9146 -14.7522 
15.4861 -8.9146 -13.8661 21.929 -8.9146 -14.1179 28.3719 -8.9146 -14.6297 
34.8148 -8.9146 -15.0019 41.2577 -8.9146 -13.7881 47.7007 -8.9146 -12.2033 
-48.9431 -2.47168 -11.1905 -42.5002 -2.47168 -14.5542 -36.0573 -2.47168 -15.6046 
-29.6144 -2.47168 -15.7968 -23.1715 -2.47168 -14.7725 -16.7285 -2.47168 -13.2538 
-10.2856 -2.47168 -13.6146 -3.8427 -2.47168 -15.3603 2.60022 -2.47168 -13.0669 
9.04314 -2.47168 -16.2741 15.4861 -2.47168 -12.5753 21.929 -2.47168 -13.7495 
28.3719 -2.47168 -14.8114 34.8148 -2.47168 -14.9474 41.2577 -2.47168 -14.5687 
47.7007 -2.47168 -13.6652 54.1436 -2.47168 -10.8733 -48.9431 3.97124 -11.7065 
-42.5002 3.97124 -14.5103 -36.0573 3.97124 -15.7699 -29.6144 3.97124 -16.1189 
-23.1715 3.97124 -15.0804 -16.7285 3.97124 -13.6734 -10.2856 3.97124 -13.8804 
-3.8427 3.97124 -15.4063 2.60022 3.97124 -13.5886 9.04314 3.97124 -15.5005 
15.4861 3.97124 -13.0481 21.929 3.97124 -14.1471 28.3719 3.97124 -15.3389 
34.8148 3.97124 -15.2247 41.2577 3.97124 -14.8381 47.7007 3.97124 -13.9483 
54.1436 3.97124 -10.9824 -48.9431 10.4142 -11.2258 -42.5002 10.4142 -14.4546 
-36.0573 10.4142 -16.3158 -29.6144 10.4142 -15.9973 -23.1715 10.4142 -15.4039 
-16.7285 10.4142 -14.5933 -10.2856 10.4142 -14.7342 -3.8427 10.4142 -14.6245 
2.60022 10.4142 -14.6454 9.04314 10.4142 -15.9048 15.4861 10.4142 -15.2986 
21.929 10.4142 -15.1879 28.3719 10.4142 -15.7482 34.8148 10.4142 -15.7187 
41.2577 10.4142 -14.1323 47.7007 10.4142 -12.2673 -42.5002 16.8571 -13.3756 
-36.0573 16.8571 -14.9847 -29.6144 16.8571 -15.3992 -23.1715 16.8571 -15.8285 
-16.7285 16.8571 -15.8476 -10.2856 16.8571 -16.2307 -3.8427 16.8571 -15.7762 
2.60022 16.8571 -15.8637 9.04314 16.8571 -16.5835 15.4861 16.8571 -16.4269 
21.929 16.8571 -15.6659 28.3719 16.8571 -15.3281 34.8148 16.8571 -14.3116 
41.2577 16.8571 -13.2848 47.7007 16.8571 -11.004 -36.0573 23.3 -12.5306 
-29.6144 23.3 -14.5853 -23.1715 23.3 -15.0103 -16.7285 23.3 -15.6835 
-10.2856 23.3 -16.0429 -3.8427 23.3 -16.1441 2.60022 23.3 -16.235 
9.04314 23.3 -16.3347 15.4861 23.3 -15.6583 21.929 23.3 -14.3676 
28.3719 23.3 -12.9838 34.8148 23.3 -10.5858 -23.1715 29.7429 -11.7228 
-16.7285 29.7429 -12.3838 -10.2856 29.7429 -12.1675 -3.8427 29.7429 -11.9529 
2.60022 29.7429 -12.7371 9.04314 29.7429 -12.9701 15.4861 29.7429 -11.5399 
-23.1715 -28.3555 -10.4768 -16.7285 -29.5638 -10.4768 -10.2856 -30.427 -10.4768 
-3.8427 -30.2734 -10.4768 2.60022 -29.2315 -10.4768 -23.4482 -28.2434 -10.4768 
-29.6144 -25.4453 -10.4768 -29.6144 -28.2434 -7.3473 7.28022 -28.2434 -10.4768 
9.04314 -27.727 -10.4768 9.04314 -28.2434 -9.97322 15.4861 -26.0059 -10.4768 
15.4861 -28.2434 -8.00627 21.929 -24.7513 -10.4768 21.929 -28.2434 -5.71594 
28.3719 -23.3161 -10.4768 -42.5002 -15.901 -10.4768 -42.5002 -21.8004 -4.6896 
-35.6685 -21.8004 -10.4768 -36.0573 -21.5169 -10.4768 -36.0573 -21.8004 -10.2414 
34.707 -21.8004 -10.4768 34.8148 -21.7598 -10.4768 34.8148 -21.8004 -10.4482 
41.2577 -18.7909 -10.4768 41.2577 -21.8004 -7.81482 47.7007 -16.2806 -10.4768 
-42.9746 -15.3575 -10.4768 -48.9431 -15.3575 -4.10112 48.6255 -15.3575 -10.4768 
-47.6693 -8.9146 -10.4768 -48.9431 -5.40818 -10.4768 -48.9431 -8.9146 -9.34397 
51.1499 -8.9146 -10.4768 54.1436 -4.11837 -10.4768 54.1436 -8.9146 -8.4538 
-49.8325 -2.47168 -10.4768 54.6332 -2.47168 -10.4768 -50.4438 3.97124 -10.4768 
-55.386 3.97124 -4.20413 54.7568 3.97124 -10.4768 54.1436 5.69333 -10.4768 
-49.7811 10.4142 -10.4768 -48.9431 13.135 -10.4768 50.8826 10.4142 -10.4768 
54.1436 10.4142 -7.78369 -47.2605 16.8571 -10.4768 -48.9431 16.8571 -8.64123 
-42.5002 22.7773 -10.4768 41.2577 20.3461 -10.4768 48.3942 16.8571 -10.4768 
47.7007 17.4771 -10.4768 -41.9001 23.3 -10.4768 -42.5002 23.3 -9.82249 
-36.0573 26.2014 -10.4768 -29.6144 29.0165 -10.4768 21.929 28.2761 -10.4768 
28.3719 25.8343 -10.4768 35.1347 23.3 -10.4768 34.8148 23.4186 -10.4768 
41.2577 23.3 -5.41816 -27.518 29.7429 -10.4768 -29.6144 29.7429 -8.81445 
-23.1715 30.7167 -10.4768 -16.7285 31.1946 -10.4768 -10.2856 30.8918 -10.4768 
-3.8427 30.7326 -10.4768 2.60022 31.4782 -10.4768 9.04314 31.8468 -10.4768 
18.2245 29.7429 -10.4768 15.4861 30.6202 -10.4768 21.929 29.7429 -5.20169 
-29.6144 -30.3015 -4.03391 -23.1715 -32.4977 -4.03391 -16.7285 -34.079 -4.03391 
-10.2856 -34.5302 -4.03391 -3.8427 -34.1492 -4.03391 2.60022 -33.028 -4.03391 
9.04314 -31.7151 -4.03391 15.4861 -30.2658 -4.03391 21.929 -29.0027 -4.03391 
-42.5002 -22.1923 -4.03391 -33.5809 -28.2434 -4.03391 -36.0573 -26.7577 -4.03391 
26.0205 -28.2434 -4.03391 28.3719 -27.777 -4.03391 34.8148 -26.4907 -4.03391 
41.2577 -24.1692 -4.03391 -42.9965 -21.8004 -4.03391 -48.9431 -15.415 -4.03391 
45.6065 -21.8004 -4.03391 47.7007 -20.4761 -4.03391 -48.9816 -15.3575 -4.03391 
53.6058 -15.3575 -4.03391 54.1436 -14.5531 -4.03391 -52.8282 -8.9146 -4.03391 
57.1385 -8.9146 -4.03391 -54.6308 -2.47168 -4.03391 -55.386 3.22677 -4.03391 
-55.386 -2.47168 1.81798 58.5206 -2.47168 -4.03391 -55.4719 3.97124 -4.03391 
-55.386 4.49781 -4.03391 58.6027 3.97124 -4.03391 -54.4229 10.4142 -4.03391 
56.3992 10.4142 -4.03391 54.1436 14.698 -4.03391 -51.2307 16.8571 -4.03391 
-48.9431 19.966 -4.03391 52.4963 16.8571 -4.03391 47.7007 20.4358 -4.03391 
-45.4048 23.3 -4.03391 -42.5002 25.4009 -4.03391 -36.0573 28.6254 -4.03391 
28.3719 28.2343 -4.03391 34.8148 26.4207 -4.03391 42.3208 23.3 -4.03391 
41.2577 23.7929 -4.03391 41.2577 23.3 -0.233922 -33.1047 29.7429 -4.03391 
-29.6144 31.031 -4.03391 -29.6144 29.7429 0.382104 -23.1715 31.6443 -4.03391 
-23.1715 29.7429 0.858581 -16.7285 31.5448 -4.03391 -16.7285 29.7429 -0.0914925 
-10.2856 30.6558 -4.03391 -10.2856 29.7429 -2.03536 -3.8427 30.7892 -4.03391 
-3.8427 29.7429 -1.39144 2.60022 32.3724 -4.03391 9.04314 33.107 -4.03391 
15.4861 32.1042 -4.03391 22.8265 29.7429 -4.03391 21.929 29.9846 -4.03391 
21.929 29.7429 -3.14557 -29.6144 -30.2744 2.40901 -23.1715 -32.2577 2.40901 
-16.7285 -33.4578 2.40901 -10.2856 -34.0023 2.40901 -3.8427 -33.7405 2.40901 
2.60022 -33.0545 2.40901 9.04314 -31.905 2.40901 15.4861 -30.4871 2.40901 
21.929 -28.9473 2.40901 -42.5002 -22.9643 2.40901 -33.914 -28.2434 2.40901 
-36.0573 -27.1977 2.40901 -29.6144 -28.2434 7.11725 15.4861 -28.2434 8.09518 
25.6098 -28.2434 2.40901 21.929 -28.2434 4.33994 28.3719 -27.7105 2.40901 
34.8148 -26.442 2.40901 41.2577 -23.8287 2.40901 -44.0335 -21.8004 2.40901 
-48.9431 -16.6837 2.40901 -42.5002 -21.8004 5.78809 45.0515 -21.8004 2.40901 
41.2577 -21.8004 6.57815 47.7007 -20.1248 2.40901 -49.8326 -15.3575 2.40901 
-48.9431 -15.3575 5.2938 53.1578 -15.3575 2.40901 54.1436 -13.8558 2.40901 
-53.6605 -8.9146 2.40901 -55.386 -2.71375 2.40901 56.6945 -8.9146 2.40901 
54.1436 -8.9146 6.15034 -55.4534 -2.47168 2.40901 -55.386 -2.47168 2.60603 
58.2543 -2.47168 2.40901 54.1436 -2.47168 8.23711 -55.6347 3.97124 2.40901 
-55.386 5.58503 2.40901 -55.386 3.97124 3.04605 58.2494 3.97124 2.40901 
54.1436 3.97124 8.1707 -54.5532 10.4142 2.40901 55.7708 10.4142 2.40901 
54.1436 13.5187 2.40901 54.1436 10.4142 4.76762 -50.6549 16.8571 2.40901 
-48.9431 18.9125 2.40901 -48.9431 16.8571 5.17395 41.2577 22.932 2.40901 
51.4908 16.8571 2.40901 47.7007 19.6126 2.40901 47.7007 16.8571 6.70274 
-43.6092 23.3 2.40901 -42.5002 24.0901 2.40901 -42.5002 23.3 3.58972 
-36.0573 26.9336 2.40901 -36.0573 23.3 7.427 -29.6144 29.0107 2.40901 
-23.1715 29.1172 2.40901 -16.7285 28.4189 2.40901 -10.2856 27.518 2.40901 
-3.8427 27.9302 2.40901 21.929 28.152 2.40901 28.3719 26.622 2.40901 
28.3719 23.3 8.62779 40.3762 23.3 2.40901 34.8148 25.5322 2.40901 
34.8148 23.3 6.5793 1.50735 29.7429 2.40901 2.60022 30.0737 2.40901 
2.60022 29.7429 2.97589 9.04314 30.9124 2.40901 9.04314 29.7429 4.17195 
15.504 29.7429 2.40901 15.4861 29.7476 2.40901 15.4861 29.7429 2.41597 
-23.1715 -28.5767 8.85193 -16.7285 -29.5535 8.85193 -10.2856 -30.2205 8.85193 
-3.8427 -30.2488 8.85193 2.60022 -30.3867 8.85193 9.04314 -29.6403 8.85193 
-36.0573 -24.7861 8.85193 -24.8852 -28.2434 8.85193 -29.6144 -27.2968 8.85193 
-23.1715 -28.2434 9.22307 -16.7285 -28.2434 10.1384 -10.2856 -28.2434 10.5431 
-3.8427 -28.2434 10.7861 2.60022 -28.2434 11.1754 14.2145 -28.2434 8.85193 
9.04314 -28.2434 10.4855 15.4861 -27.8451 8.85193 21.929 -25.9943 8.85193 
28.3719 -24.4863 8.85193 34.8148 -22.2565 8.85193 -40.9213 -21.8004 8.85193 
-42.5002 -20.6065 8.85193 -36.0573 -21.8004 12.429 -29.6144 -21.8004 14.3989 
-23.1715 -21.8004 14.8156 -16.7285 -21.8004 14.4019 -10.2856 -21.8004 13.7605 
-3.8427 -21.8004 14.0149 2.60022 -21.8004 15.0979 9.04314 -21.8004 14.8251 
15.4861 -21.8004 13.99 21.929 -21.8004 12.3973 28.3719 -21.8004 11.3561 
36.3746 -21.8004 8.85193 34.8148 -21.8004 9.3585 41.2577 -19.7387 8.85193 
47.7007 -15.9676 8.85193 -47.6267 -15.3575 8.85193 -48.9431 -13.6564 8.85193 
-42.5002 -15.3575 13.7751 21.929 -15.3575 15.0984 28.3719 -15.3575 14.6935 
34.8148 -15.3575 13.5371 41.2577 -15.3575 11.8498 48.3172 -15.3575 8.85193 
[...]
POINT_DATA 550
SCALARS ImageScalars float
LOOKUP_TABLE default
0 0 0 0 0 0 0 0 0 
0 0 0 0 0 0 0 0 0 
0 0 0 0 0 0 0 0 0 
0 0 0 0 0 0 0 0 0 
0 0 0 0 0 0 0 0 0 
0 0 0 0 0 0 0 0 0 
0 0 0 0 0 0 0 0 0 
0 0 0 0 0 0 0 0 0 
0 0 0 0 0 0 0 0 0 
0 0 0 0 0 0 0 0 0 
0 0 0 0 0 0 0 0 0 
0 0 0 0 0 0 0 0 0 
0 0 0 0 0 0 0 0 0 
0 0 0 0 0 0 0 0 0 
0 0 0 0 0 0 0 0 0 
0 0 0 0 0 0 0 0 0 
0 0 0 0 0 0 0 0 0 
0 0 0 0 0 0 0 0 0 
0 0 0 0 0 0 0 0 0 
0 0 0 0 0 0 0 0 0 
0 0 0 0 0 0 0 0 0 
0 0 0 0 0 0 0 0 0 
0 0 0 0 0 0 0 0 0 
0 0 0 0 0 0 0 0 0 
0 0 0 0 0 0 0 0 0 
0 0 0 0 0 0 0 0 0 
0 0 0 0 0 0 0 0 0 
0 0 0 0 0 0 0 0 0 
0 0 0 0 0 0 0 0 0 
0 0 0 0 0 0 0 0 0 
0 0 0 0 0 0 0 0 0 
0 0 0 0 0 0 0 0 0 
0 0 0 0 0 0 0 0 0 
0 0 0 0 0 0 0 0 0 
0 0 0 0 0 0 0 0 0 
0 0 0 0 0 0 0 0 0 
0 0 0 0 0 0 0 0 0 
0 0 0 0 0 0 0 0 0 
0 0 0 0 0 0 0 0 0 
0 0 0 0 0 0 0 0 0 
0 0 0 0 0 0 0 0 0 
0 0 0 0 0 0 0 0 0 
0 0 0 0 0 0 0 0 0 
0 0 0 0 0 0 0 0 0 
0 0 0 0 0 0 0 0 0 
0 0 0 0 0 0 0 0 0 
0 0 0 0 0 0 0 0 0 
0 0 0 0 0 0 0 0 0 
0 0 0 0 0 0 0 0 0 
0 0 0 0 0 0 0 0 0 
0 0 0 0 0 0 0 0 0 
0 0 0 0 0 0 0 0 0 
0 0 0 0 0 0 0 0 0 
0 0 0 0 0 0 0 0 0 
0 0 0 0 0 0 0 0 0 
0 0 0 0 0 0 0 0 0 
0 0 0 0 0 0 0 0 0 
0 0 0 0 0 0 0 0 0 
0 0 0 0 0 0 0 0 0 
0 0 0 0 0 0 0 0 0 
0 0 0 0 0 0 0 0 0 
0 
NORMALS Normals float
0.217056 0.605625 0.765575 0.11531 0.525259 0.843093 0.0315892 0.482485 0.875334 
-0.057529 0.520035 0.852205 -0.138171 0.584012 0.7999 0.188204 0.389647 0.901529 
0.0729769 0.278467 0.957669 0.0521065 0.170238 0.984024 0.0270541 0.154265 0.987659 
-0.00823465 0.17756 0.984076 -0.0492251 0.192555 0.980051 -0.0615413 0.279425 0.958193 
-0.0914017 0.359746 0.928563 -0.0919894 0.435583 0.895436 -0.116512 0.556423 0.82269 
0.500904 0.424025 0.754518 0.220418 0.298063 0.928749 0.070926 0.169642 0.98295 
-0.00676714 0.0977885 0.995184 -0.0241633 -0.0302659 0.99925 0.0296705 -0.0402591 0.998749 
-0.0133532 0.0400121 0.99911 -0.0133899 -0.0350215 0.999297 0.0243468 0.0919653 0.995465 
0.00063854 0.0593471 0.998237 -0.00870008 0.127118 0.991849 -0.0619384 0.196505 0.978544 
-0.110465 0.271042 0.956208 -0.202558 0.358378 0.911337 -0.432349 0.410405 0.802896 
0.354701 0.250029 0.900929 0.139908 0.169422 0.975562 -0.0462233 0.123484 0.991269 
-0.128056 0.0164286 0.991631 -0.0853977 -0.0711232 0.993805 0.0994964 -0.0555775 0.993485 
-0.00291182 0.0527421 0.998604 0.0066072 -0.0723298 0.997359 0.0378969 0.10953 0.993261 
-0.0502741 -0.142299 0.988546 0.0590059 -0.0471737 0.997142 0.0663531 0.0427462 0.99688 
-0.0627444 0.108243 0.992142 -0.189629 0.119027 0.974614 -0.361558 0.202158 0.910169 
0.623078 0.132909 0.770785 0.286618 0.0848863 0.954277 0.0981742 0.0426797 0.994254 
-0.0626869 0.0766018 0.995089 -0.193699 0.0395185 0.980265 -0.103578 0.0167934 0.99448 
0.158942 0.0328614 0.986741 -0.0527817 0.0615229 0.996709 0.0476378 0.00809873 0.998832 
-0.144339 0.0959421 0.984866 -0.099027 -0.0595854 0.993299 0.171602 0.00187782 0.985165 
0.0916575 0.0550303 0.994269 -0.0181036 0.0174685 0.999683 -0.0893561 0.0801474 0.99277 
-0.329742 0.122621 0.936074 -0.585769 0.128811 0.800177 0.569271 0.00382119 0.822141 
0.269896 -0.00846502 0.962852 0.11688 0.0526082 0.991752 -0.0530195 0.0155006 0.998473 
-0.186097 0.048144 0.981351 -0.100201 0.106251 0.989278 0.130951 0.0905668 0.987243 
-0.0356678 -0.0705644 0.996869 0.000834518 0.12667 0.991945 -0.0801603 -0.00916218 0.99674 
-0.0588188 0.202593 0.977495 0.1744 0.109999 0.978511 0.0819665 0.0717572 0.994048 
-0.0379792 0.062181 0.997342 -0.0893647 -0.0330653 0.99545 -0.339513 -0.0923944 0.936053 
-0.593598 -0.13469 0.79341 0.62163 -0.142778 0.770188 0.315839 -0.0655157 0.946548 
0.138333 -0.052723 0.988981 -0.0688861 -0.055011 0.996107 -0.10755 0.0617271 0.992282 
-0.0528645 0.168633 0.98426 0.00264328 0.162883 0.986642 -0.00652364 0.0431224 0.999048 
0.102091 0.165453 0.980919 0.0507402 0.0766857 0.995763 -0.0563032 0.26309 0.963127 
0.0350398 0.116405 0.992584 0.041365 -0.00331423 0.999139 -0.118645 -0.0592841 0.991165 
-0.243335 -0.0997776 0.964797 -0.408172 -0.218763 0.886306 0.39204 -0.308345 0.866734 
0.133742 -0.287627 0.948358 0.0662804 -0.098376 0.99294 0.0322916 -0.0263697 0.999131 
0.0295687 0.0832621 0.996089 -0.0054853 0.0965469 0.995313 -0.0263385 0.11245 0.993308 
0.062394 0.115962 0.991292 0.0444614 0.0351976 0.998391 -0.0708971 0.0222783 0.997235 
-0.0870218 -0.0527856 0.994807 -0.095548 -0.179233 0.979156 -0.146311 -0.361548 0.920802 
-0.26135 -0.388505 0.883606 -0.493525 -0.491728 0.717382 0.29855 -0.481106 0.82426 
0.203928 -0.382984 0.900964 0.0857088 -0.270468 0.958906 0.0793405 -0.207054 0.975107 
0.0381231 -0.238263 0.970452 0.0147922 -0.195529 0.980586 0.0138481 -0.168946 0.985528 
-0.0454685 -0.227642 0.972683 -0.143766 -0.298578 0.943495 -0.205089 -0.399271 0.8936 
-0.258304 -0.593122 0.762552 -0.311708 -0.675145 0.668594 0.170062 -0.805359 0.567869 
0.0288787 -0.806066 0.59112 -0.026798 -0.864689 0.501593 0.0367555 -0.863486 0.503031 
0.0605986 -0.758205 0.649194 -0.076078 -0.733225 0.675717 -0.231613 -0.78473 0.574939 
0.218204 0.611945 0.760204 0.125578 0.618196 0.775928 0.0389492 0.624896 0.779736 
-0.0723489 0.652166 0.754616 -0.149318 0.643545 0.750702 0.22237 0.612063 0.758901 
0.288798 0.596636 0.748746 0.366677 0.792662 0.487068 -0.153515 0.66132 0.734227 
-0.151046 0.655689 0.739769 -0.161823 0.706272 0.689197 -0.14116 0.614737 0.775998 
-0.176263 0.82784 0.532553 -0.136382 0.609486 0.780979 -0.185872 0.925949 0.328741 
-0.144445 0.643617 0.751594 0.507852 0.442588 0.739055 0.6054 0.727794 0.322189 
0.387975 0.573326 0.721646 0.393221 0.570445 0.721089 0.402706 0.5869 0.702407 
-0.238147 0.615313 0.75145 -0.239648 0.613877 0.752146 -0.240357 0.617335 0.749083 
-0.263435 0.538534 0.800364 -0.367593 0.752894 0.545917 -0.446367 0.457021 0.769342 
0.51779 0.430389 0.739364 0.787589 0.535909 0.304147 -0.481847 0.426208 0.765617 
0.589855 0.292899 0.752517 0.639913 0.201632 0.741523 0.674583 0.305937 0.671819 
-0.478481 0.268845 0.83593 -0.588442 0.187388 0.786525 -0.674114 0.366094 0.641518 
0.658361 0.136318 0.740256 -0.61772 0.128121 0.775891 0.629484 -0.00497173 0.776998 
0.959068 -0.0243884 0.282125 -0.632276 -0.137831 0.762384 -0.607966 -0.199469 0.768498 
0.655214 -0.146524 0.741097 0.645882 -0.231693 0.72743 -0.517468 -0.285494 0.806672 
-0.743336 -0.397488 0.53801 0.599111 -0.37274 0.708612 0.715312 -0.441342 0.541799 
0.491578 -0.603943 0.627379 -0.344774 -0.645572 0.681445 -0.531634 -0.501978 0.68219 
-0.503158 -0.528419 0.683817 0.479838 -0.614482 0.626232 0.511921 -0.651079 0.560387 
0.353666 -0.68837 0.633299 0.269407 -0.762597 0.588104 -0.320393 -0.79913 0.508665 
-0.283228 -0.771545 0.569649 -0.316423 -0.681574 0.659798 -0.312954 -0.681784 0.661234 
-0.406681 -0.89147 0.199731 0.239713 -0.810542 0.534377 0.266276 -0.870237 0.414469 
0.153295 -0.87286 0.463266 0.0110677 -0.916469 0.399953 -0.0379458 -0.945396 0.323707 
0.0461175 -0.936336 0.348063 0.0917318 -0.894898 0.436741 -0.0626892 -0.875471 0.479188 
-0.28082 -0.832572 0.477456 -0.24283 -0.836464 0.491286 -0.302154 -0.952046 0.0480897 
0.390576 0.88574 0.25083 0.285634 0.931298 0.226048 0.149371 0.969055 0.196519 
0.00474554 0.98285 0.184348 -0.110909 0.976055 0.187125 -0.182801 0.956818 0.226014 
-0.207941 0.945753 0.249623 -0.203512 0.950477 0.234897 -0.183585 0.960449 0.209366 
0.610339 0.741109 0.279722 0.461314 0.85006 0.254141 0.50644 0.818725 0.270568 
-0.179097 0.957992 0.223998 -0.18116 0.953747 0.239892 -0.279786 0.931711 0.231592 
-0.391585 0.89193 0.226102 0.619662 0.732501 0.281887 0.787901 0.537749 0.300063 
-0.507114 0.830914 0.228948 -0.570693 0.791687 0.218038 0.788719 0.536535 0.300089 
-0.770214 0.585657 0.252541 -0.792062 0.553797 0.2568 0.86477 0.373087 0.336122 
-0.901142 0.358729 0.243427 0.933249 0.178621 0.311674 0.961776 -0.00135164 0.273836 
0.985136 0.153874 -0.0763542 -0.958538 0.111852 0.262095 0.962459 -0.024571 0.270312 
0.962351 -0.0461343 0.267865 -0.95572 -0.158753 0.247783 0.929515 -0.274658 0.246099 
-0.888775 -0.407723 0.20938 -0.795885 -0.568356 0.208661 0.819927 -0.547283 0.167934 
0.743217 -0.657178 0.125477 -0.717766 -0.672015 0.182229 -0.56398 -0.814544 0.135808 
0.623482 -0.778656 0.0704694 0.545658 -0.835781 0.0610574 0.382283 -0.924035 0.00438343 
-0.269661 -0.962144 0.0395106 -0.325783 -0.938848 0.111487 -0.424164 -0.898963 0.109322 
-0.399565 -0.911015 0.101975 -0.39652 -0.911198 -0.111757 0.300224 -0.953762 -0.0143058 
0.221887 -0.974934 -0.0164177 0.18343 -0.930071 -0.318311 0.0413209 -0.991905 -0.120075 
-0.0243299 -0.925431 -0.378133 -0.076899 -0.979932 -0.183899 -0.0974123 -0.925388 -0.366289 
-0.0600223 -0.968497 -0.241685 -0.0507263 -0.948823 -0.311708 0.136061 -0.972798 -0.187485 
0.158765 -0.942536 -0.293972 0.18208 -0.977786 -0.103835 -0.0201251 -0.997029 -0.0743532 
-0.232586 -0.970913 -0.0568492 -0.287474 -0.957516 -0.0228395 -0.28992 -0.956569 -0.0303666 
-0.284454 -0.955647 -0.0763188 0.357151 0.914177 -0.191635 0.237684 0.939911 -0.245101 
0.129947 0.951437 -0.279071 0.0198359 0.96404 -0.265015 -0.0718084 0.96763 -0.24194 
-0.138654 0.975569 -0.170412 -0.194684 0.971529 -0.13502 -0.222264 0.963351 -0.150176 
-0.206365 0.962942 -0.173657 0.603185 0.793031 -0.0852638 0.42527 0.892116 -0.152558 
0.46138 0.878284 -0.125484 0.284195 0.856296 -0.431265 -0.225208 0.834537 -0.502821 
-0.193336 0.96306 -0.187449 -0.211043 0.934378 -0.287051 -0.18616 0.961799 -0.200718 
-0.287739 0.926964 -0.240717 -0.418021 0.877113 -0.236498 0.636518 0.766947 -0.0814665 
0.800735 0.594707 -0.0717413 0.58554 0.766479 -0.263919 -0.513301 0.819234 -0.255691 
-0.404227 0.75588 -0.51502 -0.579091 0.769349 -0.269734 0.825124 0.560658 -0.0695206 
0.794688 0.562655 -0.227794 -0.749472 0.589981 -0.300356 -0.785791 0.535044 -0.310259 
0.923964 0.374051 -0.0798531 0.981032 0.158784 -0.111194 -0.88526 0.371922 -0.279264 
-0.738644 0.378333 -0.557915 0.982259 0.15066 -0.111661 0.981081 0.149106 -0.123481 
-0.971341 0.108171 -0.211649 -0.652253 0.110987 -0.749832 0.982548 -0.0620478 -0.175357 
0.974987 -0.127737 -0.181887 0.973912 -0.0663411 -0.217013 -0.961137 -0.169764 -0.217705 
-0.642637 -0.190578 -0.74209 0.91954 -0.335607 -0.204486 -0.842111 -0.438033 -0.314604 
-0.768367 -0.541497 -0.341164 -0.770175 -0.435434 -0.466076 0.762789 -0.585627 -0.274216 
0.705758 -0.652987 -0.274799 0.688578 -0.571083 -0.446906 -0.382431 -0.883736 -0.269735 
-0.660838 -0.674892 -0.328351 -0.549708 -0.77528 -0.311065 -0.507557 -0.654642 -0.560206 
0.515111 -0.790206 -0.332017 0.485197 -0.801438 -0.349688 0.467919 -0.793337 -0.389446 
0.309839 -0.854241 -0.41746 0.247173 -0.728694 -0.638678 0.159001 -0.869912 -0.466874 
-0.0411367 -0.885494 -0.462826 -0.111533 -0.871462 -0.477613 -0.0341198 -0.896963 -0.440788 
0.163714 -0.881902 -0.442094 -0.219225 -0.893504 -0.391907 -0.182895 -0.919346 -0.348358 
-0.122287 -0.7707 -0.625354 -0.366631 -0.890564 -0.269217 -0.268977 -0.91277 -0.307411 
-0.238661 -0.824023 -0.513835 0.202363 -0.86629 -0.456718 0.204096 -0.865766 -0.45694 
0.197451 -0.85586 -0.478033 -0.016716 -0.887618 -0.460276 -0.0278338 -0.842576 -0.537857 
-0.197982 -0.859129 -0.471911 -0.197873 -0.859037 -0.472125 -0.19781 -0.85889 -0.472418 
0.137618 0.764117 -0.630228 0.101705 0.732967 -0.672618 0.0422085 0.709245 -0.703697 
0.0111171 0.739075 -0.673531 -0.0430569 0.807884 -0.587767 -0.168001 0.825919 -0.538176 
0.382456 0.786338 -0.48518 0.165487 0.778995 -0.604798 0.240515 0.811214 -0.532995 
0.129658 0.754251 -0.643657 0.0802029 0.678673 -0.730048 0.0404443 0.600989 -0.798233 
0.0419842 0.63341 -0.772676 -0.0152807 0.689911 -0.723733 -0.212681 0.807533 -0.550144 
-0.156382 0.753097 -0.639054 -0.223145 0.798235 -0.559488 -0.204581 0.758271 -0.619009 
-0.211748 0.745442 -0.632044 -0.2563 0.708072 -0.657985 0.507179 0.732091 -0.454766 
0.55537 0.699066 -0.450411 0.33691 0.672035 -0.65944 0.138154 0.570807 -0.809378 
-0.00389743 0.521296 -0.853367 -0.0726481 0.40875 -0.90975 -0.0255888 0.354003 -0.934894 
0.095339 0.335852 -0.937077 0.0584965 0.337446 -0.939526 -0.0746673 0.349496 -0.933958 
-0.165934 0.419486 -0.892467 -0.17835 0.532616 -0.827352 -0.172693 0.614203 -0.770021 
-0.283748 0.694697 -0.660971 -0.253545 0.688933 -0.679034 -0.357646 0.629696 -0.689618 
-0.497272 0.508558 -0.702915 0.708087 0.546664 -0.446959 0.752161 0.482843 -0.44846 
0.504866 0.460598 -0.730041 -0.0678685 0.275077 -0.959024 -0.110687 0.337402 -0.93483 
-0.184957 0.35243 -0.917379 -0.317752 0.440204 -0.839794 -0.518571 0.472871 -0.712374 
-0.495634 0.465548 -0.73322 0.826685 0.30065 -0.475606 0.684717 0.288028 -0.669479 
-0.193174 0.153284 -0.969117 -0.284329 0.161239 -0.945071 -0.578758 0.281428 -0.7654 
-0.463143 0.221703 -0.858106 0.839159 0.0509677 -0.541493 0.640412 0.00201335 -0.768029 
-0.246118 0.0513923 -0.967876 -0.591114 0.102034 -0.800109 -0.379059 0.0761519 -0.922234 
0.761885 -0.121287 -0.636255 0.617794 -0.149589 -0.771981 -0.246131 -0.103016 -0.963746 
-0.578191 -0.167365 -0.798552 -0.379306 -0.104197 -0.919386 0.692811 -0.365303 -0.621745 
0.623854 -0.42464 -0.656116 0.612275 -0.377481 -0.694714 0.2942 -0.32597 -0.898438 
0.0297154 -0.165202 -0.985812 -0.174512 -0.226941 -0.958146 -0.28322 -0.264319 -0.921912 
-0.583309 -0.352139 -0.731949 -0.488601 -0.510235 -0.707764 -0.455093 -0.3062 -0.836141 
0.480161 -0.540859 -0.690592 0.389174 -0.623583 -0.678003 0.393327 -0.532825 -0.749261 
0.23021 -0.666413 -0.709152 0.180548 -0.507533 -0.842504 0.0392599 -0.434153 -0.899983 
-0.0148021 -0.381717 -0.924161 0.050898 -0.337524 -0.93994 0.0783173 -0.376742 -0.923002 
-0.0697207 -0.428721 -0.900743 -0.0830107 -0.360463 -0.929072 0.0280841 -0.393966 -0.918696 
0.0445945 -0.401878 -0.914607 -0.00710197 -0.403674 -0.914876 -0.119462 -0.758851 -0.640214 
-0.102949 -0.436018 -0.89403 -0.224963 -0.719164 -0.657415 -0.208422 -0.46935 -0.858062 
-0.409841 -0.586073 -0.698963 -0.364367 -0.606494 -0.706684 -0.350762 -0.554637 -0.754548 
0.154112 -0.680504 -0.716354 0.138639 -0.68069 -0.719333 0.136753 -0.674026 -0.725939 
0.0381997 -0.687141 -0.725519 0.0355959 -0.649631 -0.759416 -0.0177272 -0.707055 -0.706937 
-0.00611903 -0.666699 -0.745302 0.0035636 -0.780557 -0.625074 0.0119973 -0.746901 -0.664827 
0.0695505 -0.782454 -0.618812 0.0500264 -0.744008 -0.666296 0.0690446 -0.673858 -0.735628 
0.0271101 -0.580057 -0.814125 -0.0422781 -0.607848 -0.792927 -0.0395392 -0.522202 -0.851905 
-0.0816233 -0.655512 -0.750761 -0.0652756 -0.621126 -0.780988 -0.1105 -0.751597 -0.650301 
-0.0820068 -0.711798 -0.69758 -0.0713268 -0.691937 -0.718426 0.278135 0.479368 -0.832374 
0.113885 0.496926 -0.860287 -0.0206184 0.474528 -0.879999 -0.110572 0.318661 -0.941397 
-0.0525416 0.220946 -0.97387 0.080271 0.264304 -0.961093 0.055669 0.311911 -0.948479 
-0.0709284 0.284429 -0.95607 -0.0997595 0.225471 -0.969129 0.386912 0.405628 -0.828109 
0.437416 0.315932 -0.841935 0.252473 0.353654 -0.900659 0.0559914 0.294029 -0.954155 
-0.0996902 0.233333 -0.967273 -0.153301 0.202034 -0.967306 -0.0556981 0.200649 -0.978078 
0.0727662 0.242483 -0.967423 0.0339931 0.16092 -0.986382 -0.0648313 0.171283 -0.983087 
-0.0736563 0.238436 -0.968361 -0.0836886 0.181467 -0.979829 -0.0595649 0.2468 -0.967234 
-0.101062 0.253765 -0.961972 0.468404 0.230768 -0.852845 0.391157 0.206915 -0.896762 
0.148024 0.116519 -0.982096 -0.00655472 0.0466916 -0.998888 -0.109657 0.0200231 -0.993768 
-0.132401 0.0178996 -0.991035 0.00869066 0.0770141 -0.996992 0.0580329 0.117776 -0.991343 
-0.0130109 -0.0412626 -0.999064 -0.0514541 0.105447 -0.993093 -0.0562145 0.0668451 -0.996179 
-0.0194828 0.0862341 -0.996084 -0.190812 0.152059 -0.969778 -0.0850096 0.104479 -0.990887 
-0.189599 0.146234 -0.970911 0.496342 -0.0142985 -0.868009 0.33697 -0.0479313 -0.940294 
0.103059 -0.0795719 -0.991487 -0.0429932 -0.0886856 -0.995131 -0.13488 -0.107292 -0.985036 
-0.100898 -0.122763 -0.987294 0.0427943 0.00883312 -0.999045 -0.054043 0.0409866 -0.997697 
0.0301799 -0.0601753 -0.997732 0.0426334 0.0445659 -0.998096 -0.101278 -0.0288076 -0.994441 
-0.0269375 -0.0360366 -0.998987 -0.0425529 -0.0259039 -0.998758 -0.166697 0.035852 -0.985356 
-0.123389 0.0257753 -0.992024 0.365057 -0.145669 -0.919518 0.298234 -0.261188 -0.918062 
0.313963 -0.146253 -0.938103 0.113326 -0.189435 -0.975332 -0.0344752 -0.182203 -0.982656 
-0.140592 -0.183474 -0.972919 -0.00595331 -0.153234 -0.988172 -0.025393 -0.146152 -0.988936 
0.186376 -0.0538998 -0.980999 -0.018844 -0.0303951 -0.99936 -0.00478496 0.000118007 -0.999989 
-0.0253852 -0.102363 -0.994423 -0.136391 -0.0553477 -0.989108 -0.0150965 -0.0504814 -0.998611 
-0.0247839 -0.0438344 -0.998731 -0.143919 -0.0738437 -0.986831 -0.138317 -0.131685 -0.981594 
-0.109733 -0.064052 -0.991895 0.212944 -0.319256 -0.923434 0.092663 -0.34341 -0.934603 
0.0802395 -0.310566 -0.947159 -0.011398 -0.322131 -0.946626 -0.029666 -0.28123 -0.959182 
-0.0715422 -0.23449 -0.969482 -0.0886094 -0.25348 -0.963274 -0.0918588 -0.247264 -0.964584 
0.0912009 -0.167699 -0.981611 0.134175 -0.236254 -0.962383 0.16325 -0.17441 -0.971046 
-0.0477489 -0.362378 -0.930807 -0.00309354 -0.256166 -0.966628 -0.0638179 -0.274917 -0.959348 
-0.0573115 -0.250893 -0.966317 0.00788853 -0.360858 -0.932588 -0.0071107 -0.341519 -0.939848 
-0.0154557 -0.231922 -0.972612 -0.038123 -0.179513 -0.983017 -0.0142366 -0.197751 -0.980149 
-0.0177348 -0.150812 -0.988403 -0.103511 -0.189672 -0.976376 -0.0657768 -0.203668 -0.976828 
-0.0597946 -0.168299 -0.983921 
