# vtk DataFile Version 4.2
vtk output
ASCII
DATASET POLYDATA
POINTS 534 float
9.26807 -2.76468 -21.7101 17.0195 -33.7703 -14.1334 24.7709 -33.7703 -14.5466 
32.5223 -33.7703 -13.9919 -37.2404 -26.0189 -15.4695 -29.489 -26.0189 -16.1685 
-21.7376 -26.0189 -15.7636 -13.9861 -26.0189 -14.6961 9.26807 -26.0189 -15.853 
17.0195 -26.0189 -17.2728 24.7709 -26.0189 -17.6847 32.5223 -26.0189 -17.2518 
40.2737 -26.0189 -16.1068 -44.9918 -18.2675 -15.7658 -37.2404 -18.2675 -17.1676 
-29.489 -18.2675 -17.1344 -21.7376 -18.2675 -16.8978 -13.9861 -18.2675 -16.1587 
-6.23474 -18.2675 -15.3812 1.51667 -18.2675 -16.4203 9.26807 -18.2675 -17.6833 
17.0195 -18.2675 -18.0546 24.7709 -18.2675 -18.6416 32.5223 -18.2675 -18.946 
40.2737 -18.2675 -17.8276 48.0251 -18.2675 -15.0474 -52.7432 -10.5161 -14.1971 
-44.9918 -10.5161 -16.669 -37.2404 -10.5161 -17.6117 -29.489 -10.5161 -17.4078 
-21.7376 -10.5161 -16.6356 -13.9861 -10.5161 -16.0205 -6.23474 -10.5161 -17.6642 
1.51667 -10.5161 -20.127 9.26807 -2.80676 -21.7033 9.26807 -10.5161 -20.2779 
17.0195 -10.5161 -18.5749 24.7709 -10.5161 -18.7937 32.5223 -10.5161 -19.1984 
40.2737 -10.5161 -18.5934 48.0251 -10.5161 -16.2777 -52.7432 -2.76468 -14.8573 
-44.9918 -2.76468 -17.934 -37.2404 -2.76468 -18.5757 -29.489 -2.76468 -18.1386 
-21.7376 -2.76468 -16.9532 -13.9861 -2.76468 -16.4475 -6.23474 -2.76468 -19.339 
9.25168 -2.76468 -21.7033 1.51667 -2.76468 -17.723 9.29396 -2.76468 -21.7033 
9.26807 -2.67329 -21.7033 17.0195 -2.76468 -19.6256 24.7709 -2.76468 -19.4761 
32.5223 -2.76468 -20.0135 40.2737 -2.76468 -19.4669 48.0251 -2.76468 -17.3646 
-52.7432 4.98672 -14.5779 -44.9918 4.98672 -18.3432 -37.2404 4.98672 -19.3027 
-29.489 4.98672 -19.1175 -21.7376 4.98672 -18.454 -13.9861 4.98672 -18.3413 
-6.23474 4.98672 -20.41 1.51667 4.98672 -20.1353 9.26807 4.98672 -21.0909 
17.0195 4.98672 -19.6223 24.7709 4.98672 -20.0121 32.5223 4.98672 -20.2575 
40.2737 4.98672 -19.7282 48.0251 4.98672 -17.5286 -44.9918 12.7381 -17.3583 
-37.2404 12.7381 -19.2789 -29.489 12.7381 -20.0321 -21.7376 12.7381 -19.6266 
-13.9861 12.7381 -18.9266 -6.23474 12.7381 -18.4961 1.51667 12.7381 -20.6326 
9.26807 12.7381 -19.8328 17.0195 12.7381 -18.6831 24.7709 12.7381 -19.3704 
32.5223 12.7381 -19.4741 40.2737 12.7381 -18.6442 48.0251 12.7381 -16.0188 
-44.9918 20.4895 -15.0968 -37.2404 20.4895 -18.3426 -29.489 20.4895 -20.0232 
-21.7376 20.4895 -20.4976 -13.9861 20.4895 -19.4801 -6.23474 20.4895 -18.2089 
1.51667 20.4895 -18.84 9.26807 20.4895 -19.0783 17.0195 20.4895 -18.3723 
24.7709 20.4895 -18.2176 32.5223 20.4895 -17.515 40.2737 20.4895 -16.0494 
-37.2404 28.2409 -15.3252 -29.489 28.2409 -18.1706 -21.7376 28.2409 -19.7739 
-13.9861 28.2409 -18.6694 -6.23474 28.2409 -18.0866 1.51667 28.2409 -18.1899 
9.26807 28.2409 -18.3056 17.0195 28.2409 -17.8144 24.7709 28.2409 -16.5407 
32.5223 28.2409 -15.0059 -21.7376 35.9923 -14.4645 -13.9861 35.9923 -15.5304 
-6.23474 35.9923 -15.6412 1.51667 35.9923 -16.1749 9.26807 35.9923 -16.5324 
17.0195 35.9923 -16.0243 17.0195 -33.9991 -13.9519 24.7709 -34.4667 -13.9519 
32.5223 -33.821 -13.9519 -37.2404 -28.6471 -13.9519 -37.2404 -33.7703 -9.27996 
-29.489 -30.3245 -13.9519 -29.489 -33.7703 -11.6302 -21.7376 -30.0233 -13.9519 
-21.7376 -33.7703 -11.5496 -13.9861 -27.5198 -13.9519 -13.9861 -33.7703 -10.1793 
-6.23474 -33.7703 -8.00468 1.51667 -33.7703 -8.3126 16.1744 -33.7703 -13.9519 
9.26807 -30.4183 -13.9519 9.26807 -33.7703 -11.7026 32.64 -33.7703 -13.9519 
40.2737 -29.7493 -13.9519 40.2737 -33.7703 -10.5093 -40.911 -26.0189 -13.9519 
-44.9918 -22.3012 -13.9519 -44.9918 -26.0189 -11.5501 -9.86138 -26.0189 -13.9519 
-6.23474 -23.6765 -13.9519 -6.23474 -26.0189 -13.2985 2.28847 -26.0189 -13.9519 
1.51667 -25.3593 -13.9519 1.51667 -26.0189 -13.7339 44.2505 -26.0189 -13.9519 
48.0251 -20.8702 -13.9519 48.0251 -26.0189 -10.7838 -48.3967 -18.2675 -13.9519 
-52.7432 -11.0205 -13.9519 -52.7432 -18.2675 -10.3221 50.3242 -18.2675 -13.9519 
55.7765 -18.2675 -8.43627 -53.0543 -10.5161 -13.9519 51.9306 -10.5161 -13.9519 
55.7765 -10.5161 -10.658 -54.191 -2.76468 -13.9519 53.9897 -2.76468 -13.9519 
55.7765 -2.76468 -12.4887 -53.6583 4.98672 -13.9519 -52.7432 7.35388 -13.9519 
53.5338 4.98672 -13.9519 55.7765 4.98672 -11.7344 -50.2871 12.7381 -13.9519 
-52.7432 12.7381 -11.4513 50.8712 12.7381 -13.9519 48.0251 16.8357 -13.9519 
55.7765 12.7381 -7.66522 -46.4581 20.4895 -13.9519 -44.9918 22.1581 -13.9519 
44.1758 20.4895 -13.9519 40.2737 24.1465 -13.9519 48.0251 20.4895 -10.7686 
-39.0519 28.2409 -13.9519 -37.2404 29.6694 -13.9519 -29.489 33.7845 -13.9519 
24.7709 35.9862 -13.9519 34.9213 28.2409 -13.9519 32.5223 30.1692 -13.9519 
40.2737 28.2409 -10.6268 -23.2703 35.9923 -13.9519 -29.489 35.9923 -8.91963 
-21.7376 36.4438 -13.9519 -13.9861 37.596 -13.9519 -6.23474 38.1297 -13.9519 
1.51667 39.3252 -13.9519 9.26807 40.1946 -13.9519 24.7633 35.9923 -13.9519 
17.0195 39.5098 -13.9519 24.7709 35.9923 -13.9493 32.5223 35.9923 -9.72279 
1.51667 43.7438 -8.4273 9.26807 43.7438 -10.1061 17.0195 43.7438 -9.77968 
24.7709 43.7438 -6.38435 -37.2404 -36.4919 -6.20046 -29.489 -38.005 -6.20046 
-21.7376 -37.8605 -6.20046 -13.9861 -37.2907 -6.20046 -6.23474 -35.282 -6.20046 
1.51667 -35.3209 -6.20046 9.26807 -37.9595 -6.20046 17.0195 -39.506 -6.20046 
24.7709 -40.3371 -6.20046 24.7709 -41.5217 0.346021 32.5223 -40.0718 -6.20046 
40.2737 -36.948 -6.20046 -42.3819 -33.7703 -6.20046 -44.9918 -32.1542 -6.20046 
-44.9918 -33.7703 0.24834 45.0442 -33.7703 -6.20046 48.0251 -30.8217 -6.20046 
-51.809 -26.0189 -6.20046 -52.7432 -24.7591 -6.20046 -52.7432 -26.0189 -2.20217 
52.1258 -26.0189 -6.20046 55.7765 -20.3909 -6.20046 -56.4237 -18.2675 -6.20046 
56.8943 -18.2675 -6.20046 -60.0372 -10.5161 -6.20046 58.9943 -10.5161 -6.20046 
-60.1353 -2.76468 -6.20046 60.2778 -2.76468 -6.20046 -58.9897 4.98672 -6.20046 
59.7284 4.98672 -6.20046 -56.0612 12.7381 -6.20046 -52.7432 18.5727 -6.20046 
56.6718 12.7381 -6.20046 55.7765 14.2465 -6.20046 -51.4318 20.4895 -6.20046 
-44.9918 27.4923 -6.20046 51.397 20.4895 -6.20046 48.0251 24.302 -6.20046 
-44.15 28.2409 -6.20046 -37.2404 33.12 -6.20046 44.186 28.2409 -6.20046 
40.2737 32.228 -6.20046 -31.5646 35.9923 -6.20046 -29.489 36.9333 -6.20046 
-21.7376 39.5558 -6.20046 -13.9861 41.6145 -6.20046 -6.23474 43.4785 -6.20046 
36.1875 35.9923 -6.20046 32.5223 39.4504 -6.20046 -4.85589 43.7438 -6.20046 
-6.23474 43.7438 -4.53422 1.51667 45.0712 -6.20046 9.26807 46.0109 -6.20046 
17.0195 46.0365 -6.20046 25.0581 43.7438 -6.20046 24.7709 43.8763 -6.20046 
24.7709 -41.7223 1.55095 -44.9918 -34.0219 1.55095 -37.2404 -38.1914 1.55095 
-29.489 -40.0758 1.55095 -21.7376 -40.2114 1.55095 -13.9861 -39.2976 1.55095 
-6.23474 -38.3423 1.55095 1.51667 -38.1303 1.55095 9.26807 -39.4422 1.55095 
22.731 -41.5217 1.55095 17.0195 -40.9621 1.55095 29.204 -41.5217 1.55095 
24.7709 -41.5217 2.95457 32.5223 -41.3556 1.55095 40.2737 -37.5974 1.55095 
-45.3574 -33.7703 1.55095 -52.7432 -26.8475 1.55095 -44.9918 -33.7703 2.89308 
45.7019 -33.7703 1.55095 48.0251 -31.672 1.55095 -53.4241 -26.0189 1.55095 
-52.7432 -26.0189 3.79677 52.7671 -26.0189 1.55095 55.7765 -21.1966 1.55095 
-57.6766 -18.2675 1.55095 57.4976 -18.2675 1.55095 55.7765 -18.2675 5.2713 
-59.8455 -10.5161 1.55095 59.7551 -10.5161 1.55095 -59.9342 -2.76468 1.55095 
60.7472 -2.76468 1.55095 -58.1802 4.98672 1.55095 59.9823 4.98672 1.55095 
-55.4026 12.7381 1.55095 -52.7432 17.3244 1.55095 -52.7432 12.7381 6.61446 
56.5095 12.7381 1.55095 55.7765 13.9476 1.55095 55.7765 12.7381 2.90617 
-50.7642 20.4895 1.55095 -44.9918 26.9194 1.55095 51.1329 20.4895 1.55095 
48.0251 24.1394 1.55095 48.0251 20.4895 5.97292 -43.4753 28.2409 1.55095 
-37.2404 32.7468 1.55095 44.3249 28.2409 1.55095 40.2737 32.7218 1.55095 
40.2737 28.2409 7.00492 -30.9539 35.9923 1.55095 -29.489 36.6717 1.55095 
-29.489 35.9923 4.81533 -21.7376 39.8547 1.55095 -13.9861 42.5062 1.55095 
37.0239 35.9923 1.55095 32.5223 39.8386 1.55095 32.5223 35.9923 7.21418 
-9.60509 43.7438 1.55095 -6.23474 44.6391 1.55095 -6.23474 43.7438 6.24254 
1.51667 45.8467 1.55095 1.51667 43.7438 8.71105 9.26807 46.4966 1.55095 
9.26807 43.7438 8.13575 17.0195 46.2024 1.55095 17.0195 43.7438 6.62178 
26.0107 43.7438 1.55095 24.7709 44.3879 1.55095 24.7709 43.7438 2.74645 
-37.2404 -36.9253 9.30235 -29.489 -39.1002 9.30235 -21.7376 -39.9822 9.30235 
-13.9861 -39.9098 9.30235 -6.23474 -39.1135 9.30235 1.51667 -38.8107 9.30235 
9.26807 -39.7327 9.30235 17.0195 -40.8489 9.30235 24.7709 -40.5544 9.30235 
32.5223 -39.0188 9.30235 40.2737 -34.9537 9.30235 -42.8372 -33.7703 9.30235 
-44.9918 -32.1629 9.30235 -37.2404 -33.7703 14.0412 32.5223 -33.7703 15.2434 
41.7583 -33.7703 9.30235 40.2737 -33.7703 10.6777 48.0251 -27.0648 9.30235 
-50.8432 -26.0189 9.30235 -52.7432 -22.6287 9.30235 -44.9918 -26.0189 15.0435 
40.2737 -26.0189 15.2241 48.8415 -26.0189 9.30235 48.0251 -26.0189 10.1198 
-54.6489 -18.2675 9.30235 -52.7432 -18.2675 11.6702 53.116 -18.2675 9.30235 
48.0251 -18.2675 13.7334 55.7765 -11.142 9.30235 -56.1241 -10.5161 9.30235 
-52.7432 -10.5161 12.9995 48.0251 -10.5161 15.0134 55.9525 -10.5161 9.30235 
55.7765 -10.5161 9.49339 -56.0735 -2.76468 9.30235 -52.7432 -2.76468 12.8177 
48.0251 -2.76468 15.3438 56.7228 -2.76468 9.30235 55.7765 -2.76468 10.2921 
-53.9676 4.98672 9.30235 -52.7432 8.63855 9.30235 -52.7432 4.98672 10.6224 
-44.9918 4.98672 15.8319 17.0195 4.98672 16.5335 40.2737 4.98672 16.9346 
48.0251 4.98672 14.2605 56.0229 4.98672 9.30235 55.7765 5.47706 9.30235 
55.7765 4.98672 9.55692 -51.01 12.7381 9.30235 -44.9918 12.7381 14.3303 
17.0195 12.7381 16.2938 24.7709 12.7381 16.1368 32.5223 12.7381 15.7167 
40.2737 12.7381 14.7352 50.7231 12.7381 9.30235 48.0251 16.4617 9.30235 
48.0251 12.7381 11.3949 -46.8931 20.4895 9.30235 -44.9918 22.9364 9.30235 
-44.9918 20.4895 11.6559 17.0195 20.4895 16.6071 24.7709 20.4895 15.538 
32.5223 20.4895 14.2766 44.4344 20.4895 9.30235 40.2737 25.3522 9.30235 
40.2737 20.4895 11.8853 -39.8785 28.2409 9.30235 -37.2404 30.3623 9.30235 
[...]
POINT_DATA 534
SCALARS ImageScalars float
LOOKUP_TABLE default
0 0 0 0 0 0 0 0 0 
0 0 0 0 0 0 0 0 0 
0 0 0 0 0 0 0 0 0 
0 0 0 0 0 0 0 0 0 
0 0 0 0 0 0 0 0 0 
0 0 0 0 0 0 0 0 0 
0 0 0 0 0 0 0 0 0 
0 0 0 0 0 0 0 0 0 
0 0 0 0 0 0 0 0 0 
0 0 0 0 0 0 0 0 0 
0 0 0 0 0 0 0 0 0 
0 0 0 0 0 0 0 0 0 
0 0 0 0 0 0 0 0 0 
0 0 0 0 0 0 0 0 0 
0 0 0 0 0 0 0 0 0 
0 0 0 0 0 0 0 0 0 
0 0 0 0 0 0 0 0 0 
0 0 0 0 0 0 0 0 0 
0 0 0 0 0 0 0 0 0 
0 0 0 0 0 0 0 0 0 
0 0 0 0 0 0 0 0 0 
0 0 0 0 0 0 0 0 0 
0 0 0 0 0 0 0 0 0 
0 0 0 0 0 0 0 0 0 
0 0 0 0 0 0 0 0 0 
0 0 0 0 0 0 0 0 0 
0 0 0 0 0 0 0 0 0 
0 0 0 0 0 0 0 0 0 
0 0 0 0 0 0 0 0 0 
0 0 0 0 0 0 0 0 0 
0 0 0 0 0 0 0 0 0 
0 0 0 0 0 0 0 0 0 
0 0 0 0 0 0 0 0 0 
0 0 0 0 0 0 0 0 0 
0 0 0 0 0 0 0 0 0 
0 0 0 0 0 0 0 0 0 
0 0 0 0 0 0 0 0 0 
0 0 0 0 0 0 0 0 0 
0 0 0 0 0 0 0 0 0 
0 0 0 0 0 0 0 0 0 
0 0 0 0 0 0 0 0 0 
0 0 0 0 0 0 0 0 0 
0 0 0 0 0 0 0 0 0 
0 0 0 0 0 0 0 0 0 
0 0 0 0 0 0 0 0 0 
0 0 0 0 0 0 0 0 0 
0 0 0 0 0 0 0 0 0 
0 0 0 0 0 0 0 0 0 
0 0 0 0 0 0 0 0 0 
0 0 0 0 0 0 0 0 0 
0 0 0 0 0 0 0 0 0 
0 0 0 0 0 0 0 0 0 
0 0 0 0 0 0 0 0 0 
0 0 0 0 0 0 0 0 0 
0 0 0 0 0 0 0 0 0 
0 0 0 0 0 0 0 0 0 
0 0 0 0 0 0 0 0 0 
0 0 0 0 0 0 0 0 0 
0 0 0 0 0 0 0 0 0 
0 0 0 
NORMALS Normals float
0.078002 0.0446717 0.995952 0.122123 0.582399 0.803677 -0.00804592 0.566598 0.823955 
-0.183434 0.578819 0.794557 0.224686 0.368749 0.901965 0.0246777 0.301139 0.953261 
-0.0869801 0.277151 0.956881 -0.151333 0.318692 0.9357 0.216493 0.312557 0.924899 
0.109119 0.231371 0.966727 -0.00139601 0.232129 0.972684 -0.0962001 0.281921 0.954603 
-0.312367 0.350797 0.882819 0.324914 0.252072 0.911532 0.102066 0.15562 0.98253 
-0.0174499 0.0736106 0.997134 -0.0624836 0.0534343 0.996615 -0.0957986 0.077376 0.992389 
0.00725891 0.260637 0.96541 0.151159 0.388432 0.908995 0.0920457 0.254557 0.962667 
0.0619713 0.0853334 0.994423 0.0564534 0.0681073 0.99608 -0.0457459 0.130108 0.990444 
-0.241104 0.161257 0.957008 -0.39155 0.26251 0.881917 0.492316 0.244529 0.835362 
0.177908 0.14126 0.973855 0.0434016 0.0880157 0.995173 -0.0586751 0.0641744 0.996212 
-0.0928179 0.00359469 0.995677 0.0578342 0.0153504 0.998208 0.25689 0.240919 0.93593 
0.158393 0.0828623 0.983893 0.0770756 0.0459179 0.995967 -0.105111 0.271335 0.956728 
-0.0851985 0.10289 0.991037 0.0399519 0.0537122 0.997757 -0.0122547 0.067501 0.997644 
-0.173901 0.0992088 0.979753 -0.399188 0.141623 0.905865 0.481607 0.0139238 0.876277 
0.240195 0.104349 0.9651 0.00991061 0.108481 0.994049 -0.102856 0.10916 0.988688 
-0.104232 0.110538 0.988391 0.14426 0.154042 0.977476 0.0841349 0.177446 0.980528 
0.0781906 0.044648 0.995938 0.177867 -0.0188092 0.983875 0.0773018 0.0447921 0.996001 
0.0765776 0.0428715 0.996141 -0.14249 0.0684891 0.987424 0.0253619 0.0791941 0.996537 
5.78089e-05 0.0682487 0.997668 -0.159693 0.0720545 0.984533 -0.36456 0.0754081 0.928121 
0.547194 -0.132198 0.8265 0.305064 -0.030577 0.951841 0.0436426 0.0454977 0.998011 
-0.0521541 0.119274 0.991491 -0.0507398 0.175861 0.983106 0.130195 0.15073 0.979964 
0.111993 -0.060221 0.991883 0.0452676 0.174176 0.983674 -0.0428036 -0.115381 0.992399 
-0.065166 -0.0617577 0.995962 0.0402835 -0.00677112 0.999165 -0.0171169 -0.037695 0.999143 
-0.171108 -0.0541121 0.983765 -0.395065 -0.0826415 0.914929 0.374853 -0.192597 0.906858 
0.152748 -0.0616 0.986343 0.0212168 0.0591559 0.998023 -0.0698223 0.126256 0.989537 
-0.0724799 0.0712644 0.994821 0.100163 -0.143529 0.984564 0.0920086 -0.0931037 0.991396 
-0.127635 -0.131757 0.983031 -0.0233041 -0.0801669 0.996509 0.0509125 -0.114066 0.992168 
-0.0453976 -0.164373 0.985353 -0.214477 -0.206452 0.954661 -0.467483 -0.306274 0.82925 
0.552861 -0.423679 0.717524 0.291709 -0.209523 0.933277 0.131616 -0.107503 0.985454 
-0.0334107 0.0160198 0.999313 -0.145937 -0.0149315 0.989181 -0.0423876 -0.0262068 0.998757 
0.0560326 -0.144796 0.987874 -0.032052 -0.0920447 0.995239 -0.0539467 -0.0557727 0.996985 
-0.0527603 -0.175004 0.983153 -0.12496 -0.271583 0.954268 -0.315403 -0.415411 0.853203 
0.481201 -0.57826 0.658833 0.241189 -0.424137 0.872889 0.026939 -0.306712 0.951421 
-0.0979118 -0.225097 0.969404 -0.0305658 -0.154163 0.987573 0.0141304 -0.168456 0.985608 
-0.0258943 -0.161984 0.986454 -0.107042 -0.146527 0.983398 -0.168845 -0.249456 0.953553 
-0.288593 -0.398404 0.870625 0.192501 -0.763453 0.616509 0.0622627 -0.639041 0.766648 
0.040228 -0.515961 0.855667 0.0558435 -0.423834 0.904017 -0.00996721 -0.387129 0.921972 
-0.144298 -0.384912 0.911603 0.121509 0.59392 0.795295 -0.00800843 0.602827 0.797832 
-0.183678 0.580761 0.793082 0.244495 0.470539 0.84783 0.300308 0.728042 0.616255 
0.0623818 0.476287 0.877074 0.105917 0.664418 0.739818 -0.0868026 0.436571 0.895473 
-0.0764681 0.665234 0.742709 -0.156307 0.376133 0.913286 -0.170468 0.689439 0.703999 
-0.099439 0.766336 0.634698 0.160027 0.774886 0.611509 0.134222 0.586219 0.798957 
0.239497 0.470685 0.849174 0.255658 0.657868 0.708413 -0.186473 0.580535 0.792595 
-0.362158 0.504859 0.783556 -0.417337 0.709306 0.56808 0.326575 0.433142 0.840082 
0.388411 0.38143 0.838838 0.46383 0.521466 0.716194 -0.0994668 0.346061 0.932924 
-0.0410998 0.328768 0.943516 -0.0578956 0.374104 0.925578 0.165012 0.358331 0.918896 
0.157051 0.364184 0.917989 0.157367 0.367266 0.916707 -0.465894 0.410804 0.783698 
-0.457382 0.333562 0.824341 -0.625494 0.505073 0.594692 0.448713 0.3011 0.841425 
0.502438 0.255187 0.826096 0.666571 0.387457 0.636836 -0.49029 0.282832 0.824392 
-0.843145 0.357531 0.401593 0.507672 0.246929 0.825406 -0.551848 0.12301 0.824823 
-0.774961 0.154626 0.612801 0.54686 0.0200948 0.836983 -0.605441 0.0577062 0.793795 
-0.718727 0.0487569 0.693581 0.585986 -0.148281 0.796638 0.59024 -0.203491 0.781158 
-0.626399 -0.139506 0.766917 -0.760398 -0.183958 0.62286 0.597824 -0.299205 0.743695 
0.754914 -0.38559 0.530495 -0.590955 -0.319405 0.740778 -0.513267 -0.419916 0.748483 
-0.847628 -0.415608 0.329843 0.608439 -0.443076 0.658396 0.587811 -0.477839 0.6528 
-0.428802 -0.477834 0.766683 -0.388957 -0.465315 0.795107 -0.61623 -0.580811 0.531902 
0.530446 -0.614187 0.584296 0.498597 -0.646783 0.577125 0.326549 -0.743867 0.58312 
-0.309893 -0.453016 0.835908 -0.345412 -0.434975 0.831557 -0.317808 -0.428481 0.845814 
-0.551978 -0.593443 0.585786 0.228428 -0.781476 0.580617 0.364488 -0.891067 0.270459 
0.19922 -0.781841 0.590792 0.0940542 -0.718461 0.689178 0.0812481 -0.616446 0.783194 
0.0956766 -0.581821 0.807669 0.0105601 -0.586223 0.810081 -0.30983 -0.453121 0.835875 
-0.158397 -0.530067 0.83303 -0.310028 -0.453243 0.835735 -0.512064 -0.620276 0.594179 
0.159121 -0.884367 0.438834 0.0449353 -0.847553 0.528806 -0.150696 -0.83046 0.536308 
-0.344307 -0.866574 0.36125 0.319873 0.838112 0.44187 0.0712024 0.893972 0.442429 
-0.041291 0.896526 0.441063 -0.151851 0.860626 0.48607 -0.113286 0.827681 0.549646 
0.147752 0.850464 0.504856 0.245729 0.885196 0.395026 0.130832 0.924168 0.358883 
0.0351966 0.932634 0.359103 0.0289442 0.997675 0.0617055 -0.199637 0.911708 0.359073 
-0.439923 0.835048 0.330399 0.450766 0.785967 0.423162 0.517025 0.748681 0.414924 
0.55274 0.830991 0.0627173 -0.603579 0.731793 0.316497 -0.684066 0.654188 0.322633 
0.690862 0.597517 0.407042 0.717812 0.569653 0.400302 0.776291 0.610586 0.156709 
-0.758288 0.564956 0.325306 -0.86399 0.425495 0.269215 0.823248 0.412111 0.39042 
-0.885596 0.37519 0.273773 0.946426 0.197597 0.255407 -0.913332 0.210534 0.34857 
0.973018 -0.0631128 0.22193 -0.946906 0.0452678 0.318307 0.954788 -0.237912 0.178262 
-0.926946 -0.219877 0.304014 0.884974 -0.426036 0.187921 0.806164 -0.56326 0.181214 
-0.867038 -0.430443 0.250925 -0.850516 -0.467081 0.24178 0.775097 -0.607365 0.174162 
0.68642 -0.706828 0.170944 -0.748383 -0.625047 0.221898 -0.714873 -0.659205 0.23325 
0.667701 -0.725648 0.166163 0.509714 -0.84762 0.147419 -0.683171 -0.681811 0.261555 
-0.663808 -0.695947 0.273892 0.401421 -0.905009 0.140781 0.366655 -0.919995 0.138471 
0.278233 -0.941225 0.191524 0.231123 -0.934542 0.270578 0.202328 -0.922496 0.328732 
-0.638555 -0.703056 0.312984 -0.573993 -0.755423 0.316019 0.196173 -0.924797 0.325986 
0.206402 -0.945383 0.252289 0.164111 -0.934203 0.316752 0.0546957 -0.954319 0.293742 
-0.11918 -0.948556 0.293323 -0.353091 -0.868489 0.347926 -0.345517 -0.870464 0.350585 
0.0253643 0.999609 0.0117513 0.553222 0.83303 0.0026824 0.343386 0.939072 0.0151816 
0.129582 0.989893 0.0576262 -0.0491812 0.99194 0.116773 -0.120707 0.980567 0.154653 
-0.0761835 0.971892 0.22276 0.0709661 0.979224 0.189957 0.185398 0.978016 0.0954549 
0.0578024 0.997903 0.0291416 0.143753 0.986578 0.0774551 -0.12595 0.991727 -0.0247727 
0.00552188 0.999118 -0.041629 -0.236317 0.97032 -0.0513218 -0.486966 0.868132 -0.0959747 
0.562263 0.826959 0.000358954 0.789531 0.611872 -0.0474691 0.563811 0.824117 -0.0542988 
-0.640468 0.75583 -0.136092 -0.709111 0.690461 -0.142915 0.805827 0.589834 -0.0523302 
0.797653 0.582554 -0.156141 -0.807078 0.568561 -0.15926 -0.868288 0.465344 -0.171844 
0.930806 0.349824 -0.105945 -0.899591 0.406573 -0.159483 -0.832025 0.403337 -0.38086 
0.967162 0.133922 -0.216017 -0.965702 0.199236 -0.166508 0.968871 -0.100582 -0.226214 
-0.980608 0.0124125 -0.195586 0.920321 -0.268122 -0.284817 -0.947214 -0.248907 -0.202065 
0.86736 -0.429033 -0.252223 0.82632 -0.509087 -0.240886 0.792027 -0.395398 -0.465138 
-0.854046 -0.466671 -0.229834 -0.840522 -0.490955 -0.229098 -0.83216 -0.471097 -0.292535 
0.788561 -0.574126 -0.220343 0.671284 -0.719791 -0.176858 -0.744364 -0.625029 -0.235076 
-0.715392 -0.653123 -0.248283 -0.627669 -0.585232 -0.513356 0.636669 -0.752571 -0.168198 
0.520006 -0.843002 -0.13763 -0.717681 -0.654843 -0.236886 -0.706008 -0.675799 -0.211774 
-0.618499 -0.541836 -0.569098 0.424553 -0.898346 -0.112824 0.406334 -0.907352 -0.107727 
0.422891 -0.884014 -0.199204 0.341642 -0.938495 -0.0500835 0.296407 -0.954885 -0.018393 
-0.669322 -0.716293 -0.197314 -0.585386 -0.781375 -0.216278 -0.518577 -0.633779 -0.573935 
0.248779 -0.968368 -0.0192935 0.2098 -0.977418 -0.0252507 0.166163 -0.957152 -0.237169 
0.118308 -0.988558 -0.0935794 0.0157287 -0.878829 -0.476878 0.0235278 -0.986406 -0.162632 
-0.0599157 -0.850684 -0.522251 -0.125001 -0.968406 -0.215786 -0.164919 -0.851466 -0.497803 
-0.388736 -0.896024 -0.214534 -0.354025 -0.910519 -0.213592 -0.356249 -0.890893 -0.281773 
0.376458 0.862316 -0.338659 0.177594 0.942645 -0.282633 0.0486843 0.975593 -0.21412 
-0.0546428 0.987492 -0.1479 -0.072287 0.986019 -0.150137 0.0406625 0.986462 -0.15887 
0.129383 0.974368 -0.184028 0.0514642 0.970451 -0.235745 -0.0995458 0.946388 -0.307311 
-0.312561 0.841192 -0.441251 -0.527497 0.694792 -0.488888 0.530825 0.77132 -0.351129 
0.596432 0.710236 -0.373945 0.380445 0.726762 -0.571908 -0.377507 0.538665 -0.753212 
-0.550774 0.665523 -0.503714 -0.527686 0.638733 -0.559971 -0.653964 0.486714 -0.579172 
0.728297 0.52298 -0.442803 0.775457 0.414885 -0.47596 0.586803 0.410884 -0.697737 
-0.437869 0.324904 -0.838277 -0.671209 0.460051 -0.581233 -0.644796 0.456111 -0.613352 
0.812968 0.271886 -0.514938 0.741251 0.245269 -0.624812 -0.686848 0.347399 -0.638399 
-0.530426 0.257703 -0.807612 -0.752324 0.179923 -0.633748 0.804577 0.0812209 -0.588267 
0.677471 0.050044 -0.733845 -0.46489 0.0788492 -0.881851 -0.756916 0.162672 -0.632942 
-0.749786 0.162529 -0.641409 0.778947 -0.121136 -0.615279 0.620015 -0.120512 -0.77528 
-0.410128 -0.0425731 -0.911034 -0.755619 0.00357908 -0.655002 -0.71714 0.00104192 -0.696929 
0.737287 -0.254765 -0.625702 0.729912 -0.307531 -0.610454 0.691526 -0.247672 -0.678565 
0.445388 -0.158591 -0.88118 -0.108141 -0.0851869 -0.990479 -0.194816 -0.177435 -0.964657 
-0.412363 -0.21051 -0.886365 -0.703489 -0.250147 -0.66523 -0.698309 -0.263355 -0.665589 
-0.693029 -0.248867 -0.676592 0.717169 -0.347924 -0.603836 0.545154 -0.201091 -0.813861 
-0.152804 0.00496662 -0.988244 -0.03624 -0.113397 -0.992889 -0.0870226 -0.205799 -0.974717 
-0.23059 -0.27849 -0.932347 -0.584486 -0.40548 -0.702824 -0.527646 -0.446125 -0.722885 
-0.478065 -0.381053 -0.791361 0.719473 -0.474209 -0.507428 0.695654 -0.532449 -0.482249 
0.6853 -0.43484 -0.58419 -0.17136 -0.0257747 -0.984871 -0.142786 -0.102156 -0.984468 
-0.210531 -0.226355 -0.951021 -0.483429 -0.474819 -0.73542 -0.509854 -0.463018 -0.725027 
-0.394875 -0.398978 -0.827581 0.604986 -0.673959 -0.423994 0.560636 -0.723096 -0.403509 
0.56188 -0.638328 -0.526145 0.44226 -0.829597 -0.340846 -0.159411 -0.200085 -0.966723 
-0.225642 -0.216559 -0.949836 -0.506161 -0.447418 -0.737305 -0.441809 -0.513684 -0.735482 
-0.369232 -0.348748 -0.861419 0.419487 -0.846332 -0.328257 0.353907 -0.878677 -0.320431 
0.302359 -0.746617 -0.592573 0.261588 -0.899445 -0.350099 0.134592 -0.593985 -0.793137 
0.126263 -0.911961 -0.390366 -0.00583539 -0.508467 -0.861061 0.00299956 -0.856678 -0.515842 
-0.107231 -0.489215 -0.865546 -0.0768597 -0.793426 -0.603794 -0.154902 -0.430515 -0.889192 
-0.17744 -0.707837 -0.683726 -0.178039 -0.445532 -0.877385 -0.408242 -0.554824 -0.724919 
-0.326764 -0.596855 -0.732796 -0.306405 -0.496953 -0.811883 0.2284 0.6761 -0.700516 
0.081637 0.727895 -0.680812 -0.033481 0.70962 -0.703789 -0.0645365 0.705603 -0.705663 
0.014526 0.668101 -0.743929 0.0585435 0.650875 -0.756924 -0.0133784 0.652468 -0.757698 
-0.187577 0.583578 -0.790096 0.267944 0.654794 -0.706719 0.37436 0.552001 -0.745084 
0.230439 0.638497 -0.734315 0.0737114 0.61808 -0.782652 -0.0414304 0.573754 -0.817979 
-0.0614625 0.605368 -0.793569 0.00690203 0.587026 -0.809539 0.0545696 0.51392 -0.856101 
-0.0229888 0.526215 -0.850041 -0.281282 0.498966 -0.819703 -0.195928 0.485711 -0.851878 
-0.342106 0.322638 -0.882535 0.502616 0.367244 -0.78263 0.529367 0.242265 -0.813067 
0.340086 0.3343 -0.878968 0.150531 0.265956 -0.95216 0.0211383 0.209013 -0.977684 
-0.0738848 0.183349 -0.980267 -0.0897705 0.155866 -0.98369 -0.0534019 0.128771 -0.990235 
0.0330616 0.0890229 -0.995481 -0.0185792 0.0653501 -0.997689 -0.172631 0.0943001 -0.980462 
-0.352052 0.240509 -0.904552 -0.300178 0.199055 -0.932883 -0.305344 0.186337 -0.933833 
0.525504 0.177843 -0.831996 0.507844 0.170448 -0.844418 0.28186 0.0530253 -0.957989 
0.0954381 0.0227423 -0.995176 -0.0296934 -0.0344791 -0.998964 -0.109538 -0.0344699 -0.993385 
-0.123262 -0.0403259 -0.991554 -0.0743419 -0.0323083 -0.996709 -0.00381066 -0.104503 -0.994517 
-0.0094409 -0.147342 -0.989041 -0.0630907 -0.0878917 -0.99413 -0.175582 0.040476 -0.983632 
-0.305484 0.177876 -0.935436 -0.294989 0.17265 -0.939773 0.496959 -0.0191676 -0.867562 
0.4345 -0.0436641 -0.899613 0.2217 -0.0859634 -0.971318 0.0708287 -0.131968 -0.98872 
-0.0396286 -0.150342 -0.98784 -0.0850421 -0.115031 -0.989715 -0.0876479 -0.051587 -0.994815 
-0.116946 -0.0310418 -0.992653 -0.0845471 -0.0267828 -0.996059 0.00283573 -0.172855 -0.984943 
0.00313561 -0.121438 -0.992594 -0.0531647 -0.0505332 -0.997306 -0.304665 0.0359393 -0.951781 
-0.219228 0.0192984 -0.975483 0.404381 -0.154938 -0.901371 0.403458 -0.156346 -0.901542 
0.398515 -0.155727 -0.903844 0.213174 -0.137214 -0.967331 0.0419995 -0.124476 -0.991333 
-0.00341479 -0.113114 -0.993576 -0.0113182 -0.0668569 -0.997698 -0.0412698 -0.0197457 -0.998953 
-0.0466479 -0.0376011 -0.998203 -0.153384 0.0245474 -0.987862 -0.106324 -0.110309 -0.988194 
-0.0999689 -0.13739 -0.985459 0.0506706 -0.101194 -0.993576 -0.0305064 -0.0701174 -0.997072 
-0.236441 -0.065405 -0.969442 -0.192382 -0.159477 -0.968275 -0.181252 -0.072829 -0.980736 
0.367251 -0.136824 -0.920003 0.256702 -0.112929 -0.95987 0.0906415 -0.0290175 -0.995461 
0.0139778 -0.00702479 -0.999878 0.00897366 -0.0418666 -0.999083 -0.0567038 -0.0558033 -0.99683 
-0.0763812 0.0436542 -0.996123 -0.130114 -0.0830906 -0.988011 -0.20177 -0.0699096 -0.976935 
0.00598668 -0.112182 -0.99367 0.0457535 -0.122893 -0.991365 0.0699165 -0.125831 -0.989585 
-0.167453 -0.176643 -0.969926 -0.0427843 -0.181731 -0.982417 -0.0252933 -0.171637 -0.984836 
0.37975 -0.111304 -0.918369 0.318973 -0.0931268 -0.943177 0.155529 -0.0260684 -0.987487 
-0.0181244 0.0314352 -0.999341 -0.0605185 -0.01606 -0.998038 0.0426051 -0.029135 -0.998667 
-0.0507442 0.0234613 -0.998436 -0.198672 -0.0149016 -0.979953 -0.28384 -0.0586343 -0.957077 
0.419243 -0.260795 -0.86961 0.415227 -0.274014 -0.867469 0.404225 -0.253444 -0.878845 
0.205458 -0.154116 -0.966455 0.0264186 -0.114147 -0.993113 -0.0513885 -0.0326691 -0.998144 
-0.0168479 0.0089384 -0.999818 -0.103126 -0.123133 -0.987017 -0.18149 -0.0447458 -0.982374 
-0.207133 -0.102501 -0.972928 0.330866 -0.484655 -0.809714 0.315099 -0.49734 -0.80831 
0.301451 -0.46908 -0.830115 0.181135 -0.493842 -0.850476 0.11107 -0.330427 -0.937273 
0.0988449 -0.470523 -0.876834 0.0583584 -0.221951 -0.97331 -0.00949176 -0.483517 -0.875284 
-0.0494652 -0.174534 -0.983408 -0.129367 -0.379063 -0.916284 -0.167409 -0.220128 -0.960998 
-0.166885 -0.187679 -0.967949 -0.167021 -0.188631 -0.967741 -0.166978 -0.187619 -0.967945 

