# vtk DataFile Version 4.2
vtk output
ASCII
DATASET POLYDATA
POINTS 524 float
-9.32853 -1.00203 -24.5082 -26.3398 -35.0245 -17.2828 -17.8342 -35.0245 -17.8927 
-9.32853 -35.0245 -17.8223 -0.822899 -35.0245 -18.9881 7.68273 -35.0245 -20.0623 
16.1884 -35.0245 -20.5372 24.694 -35.0245 -18.9146 33.1996 -35.0245 -16.8177 
-43.351 -26.5189 -17.7645 -34.8454 -26.5189 -19.9512 -26.3398 -26.5189 -20.1928 
-17.8342 -26.5189 -20.1437 -9.32853 -26.5189 -20.4841 -0.822899 -26.5189 -21.0628 
7.68273 -26.5189 -21.3337 16.1884 -26.5189 -21.747 24.694 -26.5189 -20.7334 
33.1996 -26.5189 -20.3157 41.7052 -26.5189 -20.1174 50.2109 -26.5189 -17.6988 
-51.8567 -18.0133 -18.4317 -43.351 -18.0133 -20.2618 -34.8454 -18.0133 -20.8277 
-26.3398 -18.0133 -20.0349 -17.8342 -18.0133 -19.3513 -9.32853 -18.0133 -20.0462 
-0.822899 -18.0133 -20.0116 7.68273 -18.0133 -20.3882 16.1884 -18.0133 -20.8239 
24.694 -18.0133 -21.231 33.1996 -18.0133 -21.1832 41.7052 -18.0133 -20.6233 
50.2109 -18.0133 -19.9336 58.7165 -18.0133 -16.5773 -51.8567 -9.50766 -19.0918 
-43.351 -9.50766 -20.7978 -34.8454 -9.50766 -21.0763 -26.3398 -9.50766 -20.1612 
-17.8342 -9.50766 -18.7028 -9.32853 -1.58235 -24.2968 -9.32853 -9.50766 -20.5729 
-0.822899 -9.50766 -19.8699 7.68273 -9.50766 -20.1909 16.1884 -9.50766 -20.4874 
24.694 -9.50766 -20.1346 33.1996 -9.50766 -20.5109 41.7052 -9.50766 -20.8385 
50.2109 -9.50766 -20.5835 58.7165 -9.50766 -18.8863 -51.8567 -1.00203 -19.2336 
-43.351 -1.00203 -21.373 -34.8454 -1.00203 -21.8932 -26.3398 -1.00203 -21.4029 
-9.8405 -1.00203 -24.2968 -17.8342 -1.00203 -21.031 -8.84828 -1.00203 -24.2968 
-9.32853 -0.302431 -24.2968 -0.822899 -1.00203 -19.9556 7.68273 -1.00203 -21.6193 
16.1884 -1.00203 -19.7586 24.694 -1.00203 -18.5732 33.1996 -1.00203 -19.5499 
41.7052 -1.00203 -20.1094 50.2109 -1.00203 -19.764 58.7165 -1.00203 -18.0583 
-51.8567 7.5036 -17.8177 -43.351 7.5036 -20.6257 -34.8454 7.5036 -21.5561 
-26.3398 7.5036 -21.0854 -17.8342 7.5036 -20.2539 -9.32853 7.5036 -21.695 
-0.822899 7.5036 -20.3742 7.68273 7.5036 -20.1209 16.1884 7.5036 -19.265 
24.694 7.5036 -18.3515 33.1996 7.5036 -18.7456 41.7052 7.5036 -18.7605 
50.2109 7.5036 -18.0678 58.7165 7.5036 -16.0617 -43.351 16.0092 -18.7097 
-34.8454 16.0092 -19.8177 -26.3398 16.0092 -19.4801 -17.8342 16.0092 -18.2908 
-9.32853 16.0092 -19.0578 -0.822899 16.0092 -19.5699 7.68273 16.0092 -18.5045 
16.1884 16.0092 -19.2569 24.694 16.0092 -18.577 33.1996 16.0092 -17.4434 
41.7052 16.0092 -16.4197 -43.351 24.5149 -15.9183 -34.8454 24.5149 -17.0914 
-26.3398 24.5149 -17.2307 -17.8342 24.5149 -16.7956 -9.32853 24.5149 -17.1877 
-0.822899 24.5149 -16.8027 7.68273 24.5149 -15.8843 16.1884 24.5149 -16.4111 
-26.3398 -36.794 -15.7912 -17.8342 -37.2472 -15.7912 -9.32853 -37.1162 -15.7912 
-0.822899 -38.6699 -15.7912 7.68273 -40.6917 -15.7912 16.1884 -40.6292 -15.7912 
24.694 -39.0786 -15.7912 33.1996 -36.1244 -15.7912 -43.351 -30.8375 -15.7912 
-43.351 -35.0245 -12.4383 -34.6082 -35.0245 -15.7912 -34.8454 -34.9524 -15.7912 
-34.8454 -35.0245 -15.7172 39.333 -35.0245 -15.7912 41.7052 -34.3322 -15.7912 
41.7052 -35.0245 -14.8458 50.2109 -29.2269 -15.7912 -60.3623 -26.5189 -8.38534 
-49.6655 -26.5189 -15.7912 -51.8567 -25.0137 -15.7912 -51.8567 -26.5189 -14.9277 
53.7687 -26.5189 -15.7912 58.7165 -19.4915 -15.7912 58.7165 -26.5189 -10.6098 
-56.2315 -18.0133 -15.7912 -60.3623 -18.0133 -12.1045 60.1036 -18.0133 -15.7912 
67.2221 -18.0133 -8.47656 -57.9069 -9.50766 -15.7912 -60.3623 -9.50766 -14.1796 
64.3362 -9.50766 -15.7912 67.2221 -9.50766 -13.1464 -58.2122 -1.00203 -15.7912 
-60.3623 -1.00203 -14.3645 62.8606 -1.00203 -15.7912 67.2221 -1.00203 -12.6188 
-55.1167 7.5036 -15.7912 -60.3623 7.5036 -11.3991 -51.8567 14.8071 -15.7912 
50.2109 13.8403 -15.7912 59.368 7.5036 -15.7912 58.7165 7.98204 -15.7912 
67.2221 7.5036 -11.2176 -51.0555 16.0092 -15.7912 -51.8567 16.0092 -15.3987 
24.694 23.9022 -15.7912 33.1996 19.7336 -15.7912 45.3621 16.0092 -15.7912 
41.7052 17.0829 -15.7912 50.2109 16.0092 -14.8974 58.7165 16.0092 -11.3732 
-43.6127 24.5149 -15.7912 -51.8567 24.5149 -9.88998 -43.351 24.7217 -15.7912 
-34.8454 27.3434 -15.7912 -26.3398 28.0057 -15.7912 -17.8342 28.6696 -15.7912 
-9.32853 29.1537 -15.7912 -0.822899 27.1296 -15.7912 7.68273 24.7228 -15.7912 
22.4331 24.5149 -15.7912 16.1884 25.5485 -15.7912 24.694 24.5149 -15.5138 
33.1996 24.5149 -13.0953 41.7052 24.5149 -10.1831 -43.351 33.0205 -8.12298 
-34.8454 33.0205 -12.4413 -26.3398 33.0205 -13.4366 -17.8342 33.0205 -14.5997 
-9.32853 33.0205 -14.4641 -0.822899 33.0205 -13.1912 7.68273 33.0205 -11.3029 
16.1884 33.0205 -9.89287 24.694 33.0205 -7.75614 -9.32853 41.5261 -7.32575 
-43.351 -37.9152 -7.28558 -34.8454 -39.5866 -7.28558 -26.3398 -40.3705 -7.28558 
-17.8342 -39.1366 -7.28558 -9.32853 -38.6678 -7.28558 -0.822899 -40.7177 -7.28558 
7.68273 -43.1205 -7.28558 16.1884 -43.5249 -7.28558 24.694 -42.1955 -7.28558 
33.1996 -40.4028 -7.28558 41.7052 -37.545 -7.28558 -60.3623 -27.0677 -7.28558 
-49.5607 -35.0245 -7.28558 -51.8567 -33.7308 -7.28558 47.8816 -35.0245 -7.28558 
41.7052 -35.0245 -0.740281 50.2109 -34.0062 -7.28558 58.7165 -29.2685 -7.28558 
-60.8489 -26.5189 -7.28558 61.1185 -26.5189 -7.28558 58.7165 -26.5189 -3.16545 
67.2221 -18.8411 -7.28558 -65.2201 -18.0133 -7.28558 67.7534 -18.0133 -7.28558 
67.2221 -18.0133 -5.37488 -66.8026 -9.50766 -7.28558 -68.8679 -9.50766 0.19241 
71.7814 -9.50766 -7.28558 -67.4846 -1.00203 -7.28558 -68.8679 -1.00203 -0.525667 
72.2217 -1.00203 -7.28558 -63.7156 7.5036 -7.28558 -60.3623 15.2766 -7.28558 
70.8702 7.5036 -7.28558 67.2221 13.5207 -7.28558 -60.0214 16.0092 -7.28558 
-60.3623 16.0092 -6.37245 50.2109 24.4196 -7.28558 65.3817 16.0092 -7.28558 
58.7165 20.3977 -7.28558 67.2221 16.0092 -2.59047 -54.5221 24.5149 -7.28558 
-51.8567 27.2018 -7.28558 33.1996 30.1485 -7.28558 49.9171 24.5149 -7.28558 
41.7052 27.0957 -7.28558 50.2109 24.5149 -7.13927 -44.4313 33.0205 -7.28558 
-43.351 33.7245 -7.28558 -34.8454 37.5177 -7.28558 -26.3398 39.8076 -7.28558 
-17.8342 41.2866 -7.28558 -0.822899 39.765 -7.28558 7.68273 37.26 -7.28558 
16.1884 35.4534 -7.28558 25.7379 33.0205 -7.28558 24.694 33.4409 -7.28558 
33.1996 33.0205 -3.58748 -26.3398 41.5261 -2.97172 -10.396 41.5261 -7.28558 
-17.8342 41.5261 -6.72305 -9.16338 41.5261 -7.28558 -9.32853 41.5561 -7.28558 
-0.822899 41.5261 -3.97818 7.68273 41.5261 -0.81882 16.1884 41.5261 0.77803 
-43.351 -37.12 1.22005 -34.8454 -37.8857 1.22005 -26.3398 -37.7521 1.22005 
-17.8342 -36.2624 1.22005 -9.32853 -35.7398 1.22005 -0.822899 -37.9498 1.22005 
7.68273 -40.3754 1.22005 16.1884 -40.414 1.22005 24.694 -38.6801 1.22005 
33.1996 -36.7908 1.22005 -60.3623 -28.4888 1.22005 -51.6681 -35.0245 1.22005 
-51.8567 -34.9743 1.22005 -43.351 -35.0245 5.01766 -34.8454 -35.0245 7.0457 
-26.3398 -35.0245 5.83091 -17.8342 -35.0245 3.2404 -9.32853 -35.0245 2.47243 
-0.822899 -35.0245 5.38346 7.68273 -35.0245 6.91603 16.1884 -35.0245 6.62268 
24.694 -35.0245 4.85946 38.6694 -35.0245 1.22005 33.1996 -35.0245 3.00018 
41.7052 -34.1239 1.22005 50.2109 -31.2182 1.22005 -62.3294 -26.5189 1.22005 
-60.3623 -26.5189 6.5806 33.1996 -26.5189 9.62216 41.7052 -26.5189 8.35153 
55.5908 -26.5189 1.22005 50.2109 -26.5189 5.07314 58.7165 -23.8911 1.22005 
-67.5673 -18.0133 1.22005 -68.8679 -10.9306 1.22005 64.8042 -18.0133 1.22005 
58.7165 -18.0133 6.94746 67.2221 -14.6286 1.22005 -69.0958 -9.50766 1.22005 
-68.8679 -9.50766 2.14812 70.9064 -9.50766 1.22005 67.2221 -9.50766 7.56888 
-69.1295 -1.00203 1.22005 -68.8679 -0.169364 1.22005 -68.8679 -1.00203 2.44991 
72.5345 -1.00203 1.22005 67.2221 -1.00203 9.25439 -66.3821 7.5036 1.22005 
72.3604 7.5036 1.22005 -62.7825 16.0092 1.22005 -60.3623 20.2467 1.22005 
58.7165 23.8718 1.22005 68.1012 16.0092 1.22005 67.2221 16.9996 1.22005 
67.2221 16.0092 3.49 -57.5872 24.5149 1.22005 -51.8567 30.7955 1.22005 
41.7052 32.6808 1.22005 57.7498 24.5149 1.22005 50.2109 28.5952 1.22005 
-48.8932 33.0205 1.22005 -43.351 36.3816 1.22005 -34.8454 39.7482 1.22005 
24.694 39.7312 1.22005 40.9859 33.0205 1.22005 33.1996 36.3403 1.22005 
41.7052 33.0205 5.01051 -29.9734 41.5261 1.22005 -26.3398 42.7147 1.22005 
-26.3398 41.5261 7.13047 -17.8342 44.1463 1.22005 -9.32853 44.5221 1.22005 
-0.822899 43.6103 1.22005 7.68273 42.5616 1.22005 17.4662 41.5261 1.22005 
16.1884 41.7913 1.22005 24.694 41.5261 6.52665 -51.8567 -30.0119 9.72568 
-43.351 -32.3894 9.72568 -34.8454 -33.2878 9.72568 -26.3398 -31.9151 9.72568 
-17.8342 -30.1832 9.72568 -9.32853 -29.5355 9.72568 -0.822899 -30.6152 9.72568 
7.68273 -30.1288 9.72568 16.1884 -29.2591 9.72568 24.694 -28.3275 9.72568 
-58.2046 -26.5189 9.72568 -60.3623 -24.6017 9.72568 -51.8567 -26.5189 13.0434 
-43.351 -26.5189 15.1405 -34.8454 -26.5189 15.0799 -26.3398 -26.5189 14.062 
-17.8342 -26.5189 12.7189 -9.32853 -26.5189 12.0438 -0.822899 -26.5189 12.3639 
7.68273 -26.5189 11.3883 16.1884 -26.5189 11.0138 32.512 -26.5189 9.72568 
24.694 -26.5189 10.8075 33.1996 -26.3171 9.72568 41.7052 -23.7645 9.72568 
50.2109 -19.9079 9.72568 -64.3008 -18.0133 9.72568 -60.3623 -18.0133 13.6738 
-51.8567 -18.0133 17.6256 -26.3398 -18.0133 17.5605 -17.8342 -18.0133 16.0045 
-9.32853 -18.0133 15.6234 -0.822899 -18.0133 15.4107 7.68273 -18.0133 14.8459 
16.1884 -18.0133 15.7433 24.694 -18.0133 14.7378 33.1996 -18.0133 13.6603 
41.7052 -18.0133 12.5472 53.2253 -18.0133 9.72568 50.2109 -18.0133 10.9292 
58.7165 -13.5463 9.72568 -66.8375 -9.50766 9.72568 -60.3623 -9.50766 17.1311 
-17.8342 -9.50766 17.352 24.694 -9.50766 18.2229 33.1996 -9.50766 17.1797 
41.7052 -9.50766 16.2144 50.2109 -9.50766 14.6017 64.5205 -9.50766 9.72568 
58.7165 -9.50766 11.737 -67.032 -1.00203 9.72568 -60.3623 -1.00203 17.8405 
50.2109 -1.00203 17.7756 66.6782 -1.00203 9.72568 58.7165 -1.00203 14.8332 
67.2221 0.626223 9.72568 -64.506 7.5036 9.72568 -60.3623 7.5036 15.2409 
58.7165 7.5036 18.1642 68.8874 7.5036 9.72568 67.2221 10.7804 9.72568 
67.2221 7.5036 11.4044 -60.801 16.0092 9.72568 -60.3623 16.7585 9.72568 
[...]
POINT_DATA 524
SCALARS ImageScalars float
LOOKUP_TABLE default
0 0 0 0 0 0 0 0 0 
0 0 0 0 0 0 0 0 0 
0 0 0 0 0 0 0 0 0 
0 0 0 0 0 0 0 0 0 
0 0 0 0 0 0 0 0 0 
0 0 0 0 0 0 0 0 0 
0 0 0 0 0 0 0 0 0 
0 0 0 0 0 0 0 0 0 
0 0 0 0 0 0 0 0 0 
0 0 0 0 0 0 0 0 0 
0 0 0 0 0 0 0 0 0 
0 0 0 0 0 0 0 0 0 
0 0 0 0 0 0 0 0 0 
0 0 0 0 0 0 0 0 0 
0 0 0 0 0 0 0 0 0 
0 0 0 0 0 0 0 0 0 
0 0 0 0 0 0 0 0 0 
0 0 0 0 0 0 0 0 0 
0 0 0 0 0 0 0 0 0 
0 0 0 0 0 0 0 0 0 
0 0 0 0 0 0 0 0 0 
0 0 0 0 0 0 0 0 0 
0 0 0 0 0 0 0 0 0 
0 0 0 0 0 0 0 0 0 
0 0 0 0 0 0 0 0 0 
0 0 0 0 0 0 0 0 0 
0 0 0 0 0 0 0 0 0 
0 0 0 0 0 0 0 0 0 
0 0 0 0 0 0 0 0 0 
0 0 0 0 0 0 0 0 0 
0 0 0 0 0 0 0 0 0 
0 0 0 0 0 0 0 0 0 
0 0 0 0 0 0 0 0 0 
0 0 0 0 0 0 0 0 0 
0 0 0 0 0 0 0 0 0 
0 0 0 0 0 0 0 0 0 
0 0 0 0 0 0 0 0 0 
0 0 0 0 0 0 0 0 0 
0 0 0 0 0 0 0 0 0 
0 0 0 0 0 0 0 0 0 
0 0 0 0 0 0 0 0 0 
0 0 0 0 0 0 0 0 0 
0 0 0 0 0 0 0 0 0 
0 0 0 0 0 0 0 0 0 
0 0 0 0 0 0 0 0 0 
0 0 0 0 0 0 0 0 0 
0 0 0 0 0 0 0 0 0 
0 0 0 0 0 0 0 0 0 
0 0 0 0 0 0 0 0 0 
0 0 0 0 0 0 0 0 0 
0 0 0 0 0 0 0 0 0 
0 0 0 0 0 0 0 0 0 
0 0 0 0 0 0 0 0 0 
0 0 0 0 0 0 0 0 0 
0 0 0 0 0 0 0 0 0 
0 0 0 0 0 0 0 0 0 
0 0 0 0 0 0 0 0 0 
0 0 0 0 0 0 0 0 0 
0 0 
NORMALS Normals float
-0.0148142 0.0325907 0.999359 0.115492 0.581391 0.805386 0.0361047 0.619972 0.783793 
0.0698257 0.651598 0.755344 0.140056 0.536718 0.832056 0.0872129 0.402838 0.911107 
-0.0681882 0.38379 0.920899 -0.189452 0.4669 0.863778 -0.212189 0.619501 0.755774 
0.257269 0.362263 0.895867 0.123109 0.242629 0.962276 0.0132953 0.152891 0.988154 
0.0176139 0.069351 0.997437 0.0551774 0.114692 0.991868 0.050192 0.0485596 0.997558 
0.0393415 0.0192117 0.999041 -0.0354365 0.00316722 0.999367 -0.0811495 0.126674 0.988619 
-0.0337057 0.207798 0.977591 -0.164156 0.289757 0.942918 -0.351406 0.425093 0.834152 
0.380836 0.172015 0.908501 0.141242 0.154359 0.977867 -0.010374 0.0733921 0.997249 
-0.0847388 -0.00139219 0.996402 0.000677122 -0.0842915 0.996441 0.0394094 -0.00210075 0.999221 
0.019185 -0.0694908 0.997398 0.0488909 -0.0680489 0.996483 0.0473707 -0.0728492 0.996217 
0.0215976 -0.0361236 0.999114 -0.0349059 0.00910983 0.999349 -0.0690706 0.0361959 0.996955 
-0.194272 0.181086 0.964088 -0.420779 0.372563 0.827129 0.325226 0.0507158 0.944275 
0.109257 0.0693425 0.991592 -0.0373682 0.0621681 0.997366 -0.137974 0.0798152 0.987215 
-0.00172653 0.100791 0.994906 -0.00705888 0.05164 0.998641 0.0829569 0.257936 0.962594 
-0.0150164 -0.00469271 0.999876 0.0369106 0.0651837 0.99719 -0.00433639 -0.0571307 0.998357 
0.00131943 -0.153402 0.988163 0.0414252 -0.096144 0.994505 0.00496275 -0.0300781 0.999535 
-0.131542 -0.0137748 0.991215 -0.324622 0.0458015 0.944734 0.348131 -0.0684805 0.934941 
0.145338 -0.00919183 0.989339 0.00109077 0.028851 0.999583 -0.0503889 0.053981 0.99727 
-0.00176814 0.0384819 0.999258 0.155585 0.0975571 0.982993 -0.023341 0.0339545 0.999151 
-0.0118735 0.00338265 0.999924 -0.160696 0.0310673 0.986515 -0.0176825 -0.00736659 0.999817 
-0.181075 -0.0787059 0.980315 -0.00284524 -0.104021 0.994571 0.0894145 -0.102988 0.990656 
0.013227 -0.120209 0.99266 -0.126863 -0.141661 0.981752 -0.344646 -0.144136 0.927601 
0.424337 -0.202651 0.882536 0.198774 -0.152552 0.9681 0.0256523 -0.117853 0.9927 
-0.073111 -0.110662 0.991165 0.0278674 -0.163966 0.986072 0.0114788 -0.300204 0.953806 
-0.0904228 -0.0266972 0.995546 -0.0626495 -0.167445 0.983889 -0.102249 -0.0260085 0.994419 
-0.0296952 -0.00027553 0.999559 0.0228822 -0.118979 0.992633 -0.0366827 -0.196328 0.979852 
-0.133238 -0.261304 0.956017 -0.290733 -0.364054 0.884838 0.23181 -0.267022 0.935395 
0.0440756 -0.255864 0.965707 -0.088165 -0.219566 0.971606 -0.0256132 -0.195381 0.980393 
0.0748295 -0.255232 0.96398 -0.0330899 -0.211619 0.976792 -0.0141226 -0.241653 0.97026 
0.00376181 -0.154614 0.987968 -0.105729 -0.144845 0.983789 -0.117902 -0.277404 0.953491 
-0.135678 -0.393385 0.909307 0.300948 -0.456918 0.837052 0.0730654 -0.363595 0.928687 
-0.0167184 -0.312683 0.94971 -0.00106468 -0.201033 0.979584 0.000324417 -0.241816 0.970322 
-0.0732077 -0.331652 0.940557 -0.0236415 -0.358058 0.9334 -0.0145196 -0.447327 0.894252 
0.111056 0.688477 0.716705 0.0171788 0.787256 0.616387 0.079695 0.802124 0.591816 
0.195076 0.773703 0.602767 0.104202 0.790184 0.603946 -0.0804438 0.803563 0.589758 
-0.20853 0.720766 0.661069 -0.229045 0.678331 0.698144 0.316377 0.504672 0.803251 
0.347073 0.765877 0.54127 0.190009 0.671697 0.716044 0.191529 0.670076 0.717157 
0.191931 0.676685 0.710817 -0.283531 0.690674 0.665266 -0.297687 0.682311 0.667708 
-0.319633 0.751171 0.577562 -0.382858 0.569447 0.727427 0.752043 0.568056 0.334279 
0.292666 0.502064 0.813805 0.321704 0.485802 0.812713 0.322622 0.564359 0.759877 
-0.461033 0.466703 0.754743 -0.452745 0.409324 0.792133 -0.707303 0.635357 0.309909 
0.542906 0.146478 0.826921 0.695439 0.181803 0.695207 -0.461646 0.38821 0.797606 
-0.852742 0.494913 0.167009 0.531603 0.0766207 0.843521 0.633969 0.102906 0.766482 
-0.553118 0.0557141 0.831238 -0.750953 0.0989169 0.652905 0.55052 -0.0968401 0.829186 
0.633631 -0.115153 0.765018 -0.477558 -0.121098 0.870215 -0.686948 -0.0725409 0.723077 
0.524858 -0.208607 0.825232 0.725097 -0.277683 0.630179 0.440536 -0.318511 0.839332 
-0.220438 -0.412317 0.883969 -0.311621 -0.363474 0.87794 -0.296266 -0.376091 0.877942 
-0.664725 -0.329406 0.670546 0.421085 -0.331657 0.84421 0.449154 -0.342984 0.824998 
-0.157798 -0.470815 0.868006 -0.167431 -0.408043 0.897479 -0.182885 -0.427329 0.885405 
-0.1492 -0.427051 0.891833 -0.247877 -0.480337 0.841329 -0.404375 -0.582232 0.705328 
0.309748 -0.458782 0.832812 0.586277 -0.568058 0.577572 0.303328 -0.462117 0.833331 
0.105839 -0.422375 0.900221 0.0266692 -0.392638 0.919306 0.0237597 -0.299894 0.953677 
-0.0383443 -0.336131 0.941034 -0.0958786 -0.373739 0.922565 -0.026092 -0.362491 0.931622 
-0.121452 -0.483973 0.866614 -0.0280415 -0.477357 0.878262 -0.162078 -0.499247 0.851166 
-0.229467 -0.600149 0.766268 -0.251402 -0.70796 0.659992 0.453739 -0.730832 0.509907 
0.21973 -0.636599 0.73923 0.107417 -0.551918 0.826951 0.0507563 -0.433029 0.89995 
-0.0728474 -0.444026 0.893048 -0.156891 -0.51186 0.844621 -0.155112 -0.599137 0.785478 
-0.148142 -0.694947 0.703635 -0.241403 -0.726968 0.64284 -0.0703875 -0.84618 0.528228 
0.310008 0.927818 0.207481 0.138901 0.984244 0.109412 -0.0286009 0.999413 0.0188386 
-0.0989161 0.993383 -0.058353 0.0922692 0.992413 -0.0812525 0.271077 0.961408 -0.0470386 
0.159936 0.98673 -0.0280054 -0.0521987 0.998348 -0.0240168 -0.182837 0.982853 -0.0238679 
-0.260673 0.965187 0.0215345 -0.341199 0.939918 -0.0117173 0.752549 0.60232 0.266234 
0.456292 0.838741 0.297171 0.509797 0.78714 0.347156 -0.363617 0.929446 0.0625538 
-0.264774 0.866001 -0.42419 -0.390858 0.915533 0.0950216 -0.658699 0.751268 0.0413814 
0.766882 0.581504 0.271561 -0.733409 0.676013 0.0715397 -0.668632 0.714019 -0.207625 
-0.851487 0.518178 0.0803843 0.824818 0.29907 0.479825 -0.861251 0.501216 0.0838366 
-0.852967 0.521762 -0.0145609 0.884251 0.0991512 0.456365 0.995736 0.0842143 0.0376471 
-0.931799 0.264211 0.248886 0.882562 -0.154977 0.443922 0.98519 -0.16102 0.0589311 
-0.917068 -0.0302619 0.397581 0.822277 -0.334561 0.460358 0.811107 -0.398733 0.427923 
-0.786235 -0.381842 0.48583 -0.736337 -0.450624 0.504724 0.807488 -0.407573 0.426436 
0.827069 -0.416174 0.37783 -0.289718 -0.776639 0.559371 -0.66857 -0.528608 0.523055 
-0.383891 -0.747142 0.542593 -0.782345 -0.5954 0.182854 0.660378 -0.585131 0.470661 
0.602858 -0.642433 0.47312 -0.269775 -0.735218 0.621833 -0.288568 -0.777124 0.559291 
-0.276166 -0.763842 0.583333 -0.291748 -0.780388 0.553062 0.483509 -0.737871 0.470919 
0.462275 -0.749914 0.473214 0.282046 -0.845493 0.453422 0.189124 -0.825417 0.531901 
0.0811841 -0.847827 0.524022 -0.193804 -0.791592 0.579502 -0.192265 -0.734352 0.65097 
-0.165677 -0.737664 0.654525 -0.24829 -0.732924 0.633383 -0.243495 -0.73276 0.635431 
-0.307139 -0.791656 0.528154 0.226777 -0.937936 0.262389 -0.0513957 -0.848742 0.526303 
0.083295 -0.867834 0.489823 -0.0728979 -0.846681 0.527084 -0.0704504 -0.847254 0.526495 
-0.165568 -0.896047 0.411931 -0.128202 -0.906731 0.40175 -0.143192 -0.88309 0.44682 
0.169343 0.944268 -0.282279 0.0304078 0.948145 -0.31638 -0.0850527 0.906317 -0.413951 
-0.11206 0.890468 -0.441031 0.0860298 0.897998 -0.431508 0.240006 0.858651 -0.452897 
0.130306 0.844661 -0.519199 -0.0785737 0.831454 -0.55001 -0.168257 0.796521 -0.580727 
-0.221256 0.780218 -0.585069 0.688027 0.721068 -0.0817296 0.412635 0.89355 -0.176921 
0.418275 0.891487 -0.174062 0.165171 0.900608 -0.402025 0.015076 0.846393 -0.532346 
-0.114713 0.826936 -0.55047 -0.110505 0.861236 -0.496046 0.080574 0.880013 -0.468065 
0.162244 0.779223 -0.605383 0.043204 0.624078 -0.780167 -0.094895 0.591481 -0.800715 
-0.164893 0.669837 -0.723967 -0.225381 0.793575 -0.565192 -0.208389 0.725594 -0.65581 
-0.231614 0.800319 -0.553032 -0.409719 0.734838 -0.540503 0.74826 0.658573 -0.0799271 
0.66949 0.655821 -0.34883 -0.127997 0.503868 -0.854245 -0.214925 0.527067 -0.822197 
-0.532863 0.652514 -0.538779 -0.381945 0.585233 -0.715276 -0.565425 0.65178 -0.505447 
0.933124 0.355127 -0.0562441 0.992273 0.122476 -0.0198423 -0.704939 0.560291 -0.434897 
-0.459043 0.522714 -0.718366 -0.770137 0.524198 -0.363462 0.996736 0.0800876 -0.0101868 
0.994554 0.0868161 -0.0576678 -0.840846 0.418158 -0.343688 -0.660708 0.351047 -0.663498 
0.986782 -0.159083 -0.0308699 0.983919 -0.176435 -0.027821 0.983823 -0.156435 -0.0872921 
-0.980418 0.0565597 -0.188631 -0.670539 0.145285 -0.727509 0.94487 -0.326403 0.0260959 
-0.967654 -0.228509 -0.106912 0.887027 -0.460678 0.0309538 0.851487 -0.523996 0.0199505 
-0.579083 -0.809788 0.0943777 -0.781353 -0.620991 -0.0621067 -0.750625 -0.657368 -0.0665461 
-0.774579 -0.608724 -0.171702 0.798166 -0.602285 0.0135461 0.660284 -0.750652 0.0233613 
-0.420295 -0.86109 0.28614 -0.557627 -0.821711 0.117661 -0.402274 -0.888155 0.222163 
0.572998 -0.819263 0.0219618 0.454441 -0.890674 0.0135421 0.341192 -0.939712 0.023015 
-0.282908 -0.855794 0.433104 -0.417534 -0.859315 0.295369 -0.37519 -0.834592 0.403346 
-0.472632 -0.878208 0.0732835 0.281481 -0.958959 0.0341424 0.238259 -0.970363 0.0403501 
0.2526 -0.934173 -0.252019 0.112154 -0.991458 0.0665823 -0.0315364 -0.993486 0.109507 
-0.113491 -0.97329 0.199564 -0.103991 -0.936233 0.335639 -0.163224 -0.886056 0.433892 
-0.141045 -0.889232 0.43517 -0.318971 -0.937155 0.14141 0.316652 0.731127 -0.604305 
0.150103 0.788865 -0.595953 -0.014022 0.754677 -0.655947 -0.130111 0.70172 -0.700471 
-0.101438 0.670468 -0.734972 0.0107172 0.6484 -0.761225 0.0316745 0.579751 -0.814178 
-0.0385414 0.46023 -0.886963 -0.0531721 0.463713 -0.884389 -0.0877798 0.503966 -0.859251 
0.553785 0.635873 -0.537576 0.637062 0.5689 -0.5201 0.304376 0.636968 -0.708256 
0.0968254 0.542385 -0.834532 -0.055872 0.526041 -0.848622 -0.122631 0.517159 -0.847058 
-0.107442 0.520738 -0.846928 -0.0181775 0.533221 -0.845781 -0.0382343 0.442052 -0.896174 
-0.0719459 0.382541 -0.921133 -0.0325493 0.441503 -0.896669 -0.123457 0.50074 -0.856748 
-0.069726 0.475144 -0.877141 -0.127901 0.499918 -0.856577 -0.191693 0.482263 -0.854796 
-0.262746 0.494833 -0.828315 0.764154 0.398071 -0.507551 0.573816 0.401103 -0.714039 
0.284509 0.359527 -0.888704 -0.162423 0.265059 -0.950454 -0.112634 0.245174 -0.962914 
-0.0331708 0.335344 -0.941512 -0.0425544 0.416157 -0.908296 0.0133193 0.417692 -0.908491 
-0.00826599 0.516088 -0.856495 -0.106815 0.405647 -0.907767 -0.112524 0.382685 -0.917001 
-0.148045 0.422343 -0.894264 -0.308748 0.480127 -0.821068 -0.251001 0.470329 -0.846043 
-0.357287 0.443213 -0.822136 0.868832 0.13152 -0.477319 0.538943 0.18173 -0.822505 
-0.0511632 0.17783 -0.98273 -0.183794 0.320774 -0.929152 -0.109519 0.354204 -0.928733 
-0.133258 0.363203 -0.922131 -0.249524 0.392838 -0.885108 -0.519656 0.337517 -0.784882 
-0.336584 0.388688 -0.857691 0.88773 -0.131143 -0.441289 0.566444 -0.0706627 -0.821065 
-0.233297 0.269068 -0.934438 -0.63515 0.15155 -0.757375 -0.381978 0.307083 -0.871661 
-0.670699 0.093045 -0.735871 0.858342 -0.308128 -0.410252 0.682802 -0.276271 -0.676355 
-0.393431 0.00859006 -0.919314 -0.773184 -0.132121 -0.620267 -0.758697 -0.262626 -0.59616 
-0.716398 -0.0983798 -0.690721 0.797314 -0.450843 -0.401287 0.790282 -0.461758 -0.402782 
0.783955 -0.449845 -0.427848 0.463344 -0.306201 -0.831597 -0.713923 -0.482952 -0.507022 
-0.64684 -0.633645 -0.424373 -0.55489 -0.442962 -0.704189 0.695638 -0.588719 -0.411701 
0.627573 -0.656786 -0.418072 0.593055 -0.551763 -0.586381 -0.611843 -0.707479 -0.353725 
-0.50873 -0.825433 -0.244652 -0.472205 -0.54272 -0.694606 0.49389 -0.771397 -0.401271 
0.458103 -0.793936 -0.399759 0.451061 -0.758234 -0.470771 0.334241 -0.857699 -0.390686 
0.276908 -0.637327 -0.719122 0.251649 -0.88441 -0.393055 -0.496269 -0.864845 -0.0758958 
-0.499644 -0.844944 -0.190854 -0.502677 -0.844282 -0.185753 -0.505198 -0.831283 -0.231825 
0.223117 -0.901199 -0.371562 0.162578 -0.925428 -0.342275 0.172587 -0.882212 -0.438082 
0.0633014 -0.95946 -0.274643 0.102695 -0.857931 -0.503397 0.0261443 -0.983399 -0.179565 
0.0697823 -0.869169 -0.489568 0.0387541 -0.995965 -0.080942 0.0646834 -0.836278 -0.544477 
-0.104394 -0.994388 -0.0171484 -0.0818951 -0.78325 -0.616289 -0.362252 -0.931755 -0.0246246 
-0.323343 -0.946171 -0.014489 -0.336123 -0.918231 -0.209458 0.079056 0.383452 -0.920171 
-0.10644 0.348838 -0.931119 0.221334 0.351351 -0.909705 0.274167 0.328348 -0.903891 
0.0713262 0.329075 -0.941606 -0.142462 0.284772 -0.94795 -0.117208 0.307577 -0.944277 
-0.179627 0.236803 -0.954808 0.143013 0.387133 -0.910865 0.00397527 0.347071 -0.93783 
0.0381936 0.341052 -0.939268 -0.0233169 0.425291 -0.904756 0.441875 0.194422 -0.875755 
0.253118 0.220198 -0.942043 0.00972087 0.183062 -0.983053 -0.11913 0.183148 -0.975841 
-0.119971 0.191314 -0.974169 -0.205291 0.201648 -0.957702 0.116145 0.348777 -0.929981 
-0.00615699 0.226027 -0.974102 0.158384 0.390389 -0.906924 0.00412429 0.282363 -0.959299 
0.0375443 0.325231 -0.944889 -0.18326 0.320752 -0.929265 -0.0335598 0.298955 -0.953677 
-0.183468 0.320244 -0.929399 -0.0961343 0.315027 -0.944201 -0.130343 0.299659 -0.945101 
0.535005 -0.062543 -0.842531 0.282572 -0.000927442 -0.959246 0.0349862 0.059158 -0.997635 
-0.0936543 0.136083 -0.986261 -0.1715 0.18316 -0.968008 0.0414257 0.272948 -0.961137 
0.101362 0.229827 -0.967939 -0.0584764 0.316062 -0.946935 0.0586403 0.388967 -0.919383 
-0.0342363 0.0562849 -0.997828 -0.0878825 0.164176 -0.982508 -0.068285 0.239363 -0.968526 
-0.201106 0.268312 -0.942107 -0.128201 0.266516 -0.955266 -0.219995 0.224542 -0.949307 
0.488047 -0.220873 -0.844408 0.451742 -0.293344 -0.842543 0.36262 -0.180901 -0.914211 
0.142933 -0.0727151 -0.987058 0.00292368 0.0212637 -0.99977 -0.0786364 0.114395 -0.990318 
0.0112956 0.195129 -0.980713 0.172056 0.0277807 -0.984695 0.155557 0.166462 -0.9737 
-0.196714 0.179123 -0.96396 -0.237395 0.023666 -0.971125 0.00159673 0.0429703 -0.999075 
-0.00998717 0.0814439 -0.996628 -0.0910398 0.0752255 -0.993002 -0.386099 0.0107999 -0.922394 
-0.189651 0.0683737 -0.979468 0.447497 -0.298101 -0.843138 0.234887 -0.19944 -0.951342 
0.090945 -0.129219 -0.987437 0.00451982 -0.0395539 -0.999207 -0.0189252 0.0216566 -0.999586 
0.0798229 -0.0156451 -0.996686 0.113134 -0.0915999 -0.989348 -0.127857 -0.109054 -0.985779 
-0.183985 0.0893696 -0.978858 -0.0296976 0.047384 -0.998435 -0.0342783 -0.0286488 -0.999002 
-0.139997 -0.110057 -0.984016 -0.335147 -0.217188 -0.916791 -0.347727 -0.260983 -0.900541 
-0.299793 -0.179183 -0.937026 0.342445 -0.430456 -0.835128 0.33165 -0.439843 -0.834593 
0.327077 -0.423936 -0.84457 0.229915 -0.485147 -0.843665 0.17424 -0.337433 -0.925083 
0.0772111 -0.230283 -0.970056 0.0379479 -0.135502 -0.99005 0.0603381 -0.0711896 -0.995636 
0.0643166 -0.133684 -0.988935 -0.0177565 -0.100414 -0.994787 -0.0908857 0.0126872 -0.995781 
-0.118506 0.0473773 -0.991822 -0.181093 -0.164483 -0.969614 -0.316144 -0.393492 -0.863259 
-0.289429 -0.409981 -0.864955 -0.233431 -0.33485 -0.9129 0.21678 -0.533086 -0.817817 
0.212735 -0.538013 -0.81565 0.210085 -0.522825 -0.826147 0.160933 -0.555326 -0.815913 
0.139554 -0.415027 -0.899043 0.114313 -0.591234 -0.798358 0.0874387 -0.356616 -0.93015 
0.0901614 -0.662094 -0.743978 0.0749446 -0.331296 -0.940546 0.0645272 -0.725655 -0.685026 
0.0283334 -0.322713 -0.946073 -0.0766399 -0.725871 -0.683548 -0.0332921 -0.265021 -0.963668 
-0.287463 -0.627117 -0.72394 -0.227263 -0.341152 -0.912122 -0.424464 -0.489853 -0.761495 
-0.420027 -0.500871 -0.756773 -0.41257 -0.463676 -0.784086 
