# vtk DataFile Version 4.2
vtk output
ASCII
DATASET POLYDATA
POINTS 520 float
-23.7699 -33.8817 -14.5512 -16.0083 -33.8817 -15.8447 -8.24663 -33.8817 -16.5979 
-0.484992 -33.8817 -16.3087 7.27664 -33.8817 -16.1082 15.0383 -33.8817 -15.4593 
22.7999 -33.8817 -14.2035 -39.2932 -26.1201 -14.8809 -31.5315 -26.1201 -16.8876 
-23.7699 -26.1201 -18.2167 -16.0083 -26.1201 -18.5872 -8.24663 -26.1201 -19.0739 
-0.484992 -26.1201 -18.5881 7.27664 -26.1201 -18.6407 15.0383 -26.1201 -18.6398 
22.7999 -26.1201 -18.3132 30.5615 -26.1201 -16.966 38.3232 -26.1201 -14.8444 
-47.0548 -18.3584 -15.4142 -39.2932 -18.3584 -18.4277 -31.5315 -18.3584 -18.8107 
-23.7699 -18.3584 -18.927 -16.0083 -18.3584 -18.9204 -8.24663 -18.3584 -18.7696 
-0.484992 -18.3584 -18.5444 7.27664 -18.3584 -19.0957 15.0383 -18.3584 -19.4524 
22.7999 -18.3584 -19.3782 30.5615 -18.3584 -19.2916 38.3232 -18.3584 -17.7418 
46.0848 -18.3584 -15.4098 -47.0548 -10.5968 -17.3208 -39.2932 -10.5968 -18.7061 
-31.5315 -10.5968 -18.9536 -23.7699 -10.5968 -18.2957 -16.0083 -10.5968 -18.0451 
-8.24663 -10.5968 -18.6917 -0.484992 -10.5968 -17.6507 7.27664 -10.5968 -19.4361 
15.0383 -10.5968 -19.5097 22.7999 -10.5968 -19.1971 30.5615 -10.5968 -19.4413 
38.3232 -10.5968 -19.015 46.0848 -10.5968 -17.5947 53.8465 -10.5968 -14.073 
-54.8164 -2.83515 -14.989 -47.0548 -2.83515 -18.5213 -39.2932 -2.83515 -19.4244 
-31.5315 -2.83515 -19.1344 -23.7699 -2.83515 -17.8866 -16.0083 -2.83515 -16.7384 
-8.24663 -2.83515 -20.5342 -0.484992 -2.83515 -16.4953 7.27664 -2.83515 -20.4261 
15.0383 -2.83515 -19.3681 22.7999 -2.83515 -18.6792 30.5615 -2.83515 -19.3987 
38.3232 -2.83515 -19.6357 46.0848 -2.83515 -18.8602 53.8465 -2.83515 -15.9483 
-54.8164 4.92649 -15.2713 -47.0548 4.92649 -19.1607 -39.2932 4.92649 -19.9364 
-31.5315 4.92649 -19.5395 -23.7699 4.92649 -18.3486 -16.0083 4.92649 -17.1676 
-8.24663 4.92649 -20.6819 -0.484992 4.92649 -17.8206 7.27664 4.92649 -19.2842 
15.0383 4.92649 -17.856 22.7999 4.92649 -18.217 30.5615 4.92649 -19.1936 
38.3232 4.92649 -19.5756 46.0848 4.92649 -19.2787 53.8465 4.92649 -16.4162 
-54.8164 12.6881 -15.4797 -47.0548 12.6881 -18.8835 -39.2932 12.6881 -19.906 
-31.5315 12.6881 -19.9164 -23.7699 12.6881 -18.958 -16.0083 12.6881 -18.1713 
-8.24663 12.6881 -19.0912 -0.484992 12.6881 -18.9868 7.27664 12.6881 -18.3516 
15.0383 12.6881 -18.0269 22.7999 12.6881 -18.2905 30.5615 12.6881 -18.9272 
38.3232 12.6881 -18.9171 46.0848 12.6881 -17.8506 53.8465 12.6881 -15.2232 
-47.0548 20.4498 -17.3718 -39.2932 20.4498 -19.0191 -31.5315 20.4498 -20.078 
-23.7699 20.4498 -19.4062 -16.0083 20.4498 -18.9985 -8.24663 20.4498 -19.1456 
-0.484992 20.4498 -19.2599 7.27664 20.4498 -18.7141 15.0383 20.4498 -18.5246 
22.7999 20.4498 -18.5238 30.5615 20.4498 -18.541 38.3232 20.4498 -18.2358 
46.0848 20.4498 -16.0741 -39.2932 28.2114 -16.6641 -31.5315 28.2114 -17.8339 
-23.7699 28.2114 -18.69 -16.0083 28.2114 -18.7831 -8.24663 28.2114 -19.352 
-0.484992 28.2114 -19.2508 7.27664 28.2114 -18.5731 15.0383 28.2114 -18.0187 
22.7999 28.2114 -17.3853 30.5615 28.2114 -16.9258 38.3232 28.2114 -14.8925 
-23.7699 35.973 -15.1972 -16.0083 35.973 -16.2556 -8.24663 35.973 -16.9435 
-0.484992 35.973 -16.7319 7.27664 35.973 -15.8745 15.0383 35.973 -14.7873 
22.7999 35.973 -13.9612 -23.7699 -35.3499 -13.2216 -16.0083 -37.0583 -13.2216 
-8.24663 -37.8055 -13.2216 -0.484992 -37.2889 -13.2216 7.27664 -36.9816 -13.2216 
15.0383 -36.2882 -13.2216 22.7999 -34.7917 -13.2216 -39.2932 -28.4853 -13.2216 
-39.2932 -33.8817 -6.50174 -28.7881 -33.8817 -13.2216 -31.5315 -32.8111 -13.2216 
-31.5315 -33.8817 -12.1186 25.8549 -33.8817 -13.2216 30.5615 -32.0888 -13.2216 
30.5615 -33.8817 -10.9165 38.3232 -28.272 -13.2216 -42.6412 -26.1201 -13.2216 
-47.0548 -22.4283 -13.2216 -47.0548 -26.1201 -9.86812 41.5976 -26.1201 -13.2216 
46.0848 -22.3093 -13.2216 46.0848 -26.1201 -9.11588 -50.4098 -18.3584 -13.2216 
-54.8164 -18.3584 -8.35849 50.4467 -18.3584 -13.2216 53.8465 -12.8336 -13.2216 
53.8465 -18.3584 -9.84756 -54.811 -10.5968 -13.2216 -54.8164 -10.5806 -13.2216 
-54.8164 -10.5968 -13.2174 54.9081 -10.5968 -13.2216 -56.7615 -2.83515 -13.2216 
58.5673 -2.83515 -13.2216 61.6081 -2.83515 -9.92815 -57.6117 4.92649 -13.2216 
59.5735 4.92649 -13.2216 61.6081 4.92649 -11.1144 -56.8837 12.6881 -13.2216 
-54.8164 17.0709 -13.2216 56.6008 12.6881 -13.2216 53.8465 17.1418 -13.2216 
61.6081 12.6881 -7.92797 -53.0792 20.4498 -13.2216 -54.8164 20.4498 -10.7447 
-47.0548 27.2063 -13.2216 51.6247 20.4498 -13.2216 46.0848 25.3341 -13.2216 
53.8465 20.4498 -11.2894 -45.7933 28.2114 -13.2216 -47.0548 28.2114 -11.5488 
-39.2932 32.2827 -13.2216 -31.5315 35.8484 -13.2216 30.5615 33.2496 -13.2216 
42.0828 28.2114 -13.2216 38.3232 30.3493 -13.2216 46.0848 28.2114 -10.0388 
-31.1581 35.973 -13.2216 -31.5315 35.973 -12.9837 -23.7699 37.8764 -13.2216 
-16.0083 39.6422 -13.2216 -8.24663 40.3325 -13.2216 -0.484992 39.9307 -13.2216 
7.27664 38.9957 -13.2216 15.0383 37.7537 -13.2216 24.9519 35.973 -13.2216 
22.7999 36.7013 -13.2216 30.5615 35.973 -9.51618 -39.2932 -34.4807 -5.45996 
-31.5315 -37.6365 -5.45996 -23.7699 -40.0916 -5.45996 -16.0083 -41.4161 -5.45996 
-8.24663 -41.5402 -5.45996 -0.484992 -40.9219 -5.45996 7.27664 -40.3543 -5.45996 
15.0383 -39.8659 -5.45996 22.7999 -38.8437 -5.45996 30.5615 -36.8332 -5.45996 
-40.4742 -33.8817 -5.45996 -47.0548 -29.7516 -5.45996 37.6315 -33.8817 -5.45996 
38.3232 -33.566 -5.45996 46.0848 -28.2472 -5.45996 -50.7217 -26.1201 -5.45996 
-54.8164 -21.2323 -5.45996 48.748 -26.1201 -5.45996 53.8465 -21.3184 -5.45996 
-56.6753 -18.3584 -5.45996 56.4957 -18.3584 -5.45996 -60.2639 -10.5968 -5.45996 
61.0487 -10.5968 -5.45996 61.6081 -9.29421 -5.45996 61.6081 -10.5968 2.24908 
-61.9636 -2.83515 -5.45996 63.8874 -2.83515 -5.45996 -62.4689 4.92649 -5.45996 
64.6316 4.92649 -5.45996 -61.2901 12.6881 -5.45996 62.9707 12.6881 -5.45996 
61.6081 15.9599 -5.45996 -57.6013 20.4498 -5.45996 -54.8164 23.995 -5.45996 
58.9559 20.4498 -5.45996 53.8465 25.5203 -5.45996 -50.3558 28.2114 -5.45996 
-47.0548 30.9202 -5.45996 -39.2932 35.413 -5.45996 38.3232 34.8583 -5.45996 
50.5004 28.2114 -5.45996 46.0848 30.9081 -5.45996 -38.0153 35.973 -5.45996 
-31.5315 38.5214 -5.45996 -31.5315 35.973 1.30533 -23.7699 40.8982 -5.45996 
-16.0083 42.7416 -5.45996 -8.24663 43.0126 -5.45996 -0.484992 42.5237 -5.45996 
7.27664 42.0475 -5.45996 15.0383 41.4742 -5.45996 22.7999 40.0638 -5.45996 
35.4741 35.973 -5.45996 30.5615 37.8 -5.45996 -39.2932 -34.5961 2.30168 
-31.5315 -37.7258 2.30168 -23.7699 -40.0512 2.30168 -16.0083 -41.3377 2.30168 
-8.24663 -41.3739 2.30168 -0.484992 -40.7004 2.30168 7.27664 -39.9885 2.30168 
15.0383 -39.374 2.30168 22.7999 -38.3342 2.30168 30.5615 -36.4285 2.30168 
-40.6642 -33.8817 2.30168 -47.0548 -29.8903 2.30168 -39.2932 -33.8817 3.99209 
36.6834 -33.8817 2.30168 30.5615 -33.8817 8.22228 38.3232 -33.1804 2.30168 
46.0848 -28.3604 2.30168 -50.8714 -26.1201 2.30168 -54.8164 -21.3803 2.30168 
-47.0548 -26.1201 9.20844 49.0116 -26.1201 2.30168 46.0848 -26.1201 8.12314 
53.8465 -21.7296 2.30168 -56.8288 -18.3584 2.30168 -54.8164 -18.3584 7.05825 
56.9456 -18.3584 2.30168 53.8465 -18.3584 9.46674 61.6081 -10.6036 2.30168 
-60.7026 -10.5968 2.30168 61.6115 -10.5968 2.30168 61.6081 -10.5968 2.31142 
-62.3003 -2.83515 2.30168 64.4712 -2.83515 2.30168 61.6081 -2.83515 9.75755 
-62.5553 4.92649 2.30168 65.0753 4.92649 2.30168 -61.5881 12.6881 2.30168 
63.1919 12.6881 2.30168 61.6081 16.0822 2.30168 61.6081 12.6881 5.86687 
-56.9217 20.4498 2.30168 -54.8164 22.8336 2.30168 -54.8164 20.4498 6.44449 
58.8366 20.4498 2.30168 53.8465 25.2776 2.30168 53.8465 20.4498 9.52533 
-48.2134 28.2114 2.30168 -47.0548 29.1504 2.30168 -47.0548 28.2114 3.69669 
-39.2932 32.5321 2.30168 -39.2932 28.2114 8.65071 -31.5315 35.5411 2.30168 
38.3232 33.1772 2.30168 38.3232 28.2114 9.8047 49.1364 28.2114 2.30168 
46.0848 29.8016 2.30168 46.0848 28.2114 5.14982 -30.2751 35.973 2.30168 
-23.7699 38.0498 2.30168 -23.7699 35.973 5.22892 -16.0083 39.748 2.30168 
-16.0083 35.973 7.50377 -8.24663 40.4835 2.30168 -8.24663 35.973 8.91069 
-0.484992 40.3608 2.30168 -0.484992 35.973 8.88145 7.27664 40.2394 2.30168 
7.27664 35.973 8.57291 15.0383 39.7601 2.30168 15.0383 35.973 7.81576 
22.7999 38.2232 2.30168 22.7999 35.973 5.99113 30.8782 35.973 2.30168 
30.5615 36.1013 2.30168 30.5615 35.973 2.50307 -31.5315 -34.4513 10.0633 
-23.7699 -36.8427 10.0633 -16.0083 -38.1276 10.0633 -8.24663 -38.379 10.0633 
-0.484992 -37.9786 10.0633 7.27664 -37.3418 10.0633 15.0383 -36.4101 10.0633 
22.7999 -35.013 10.0633 -32.9072 -33.8817 10.0633 -39.2932 -30.8531 10.0633 
-31.5315 -33.8817 10.7493 -23.7699 -33.8817 13.3062 -16.0083 -33.8817 14.3753 
-8.24663 -33.8817 14.6758 -0.484992 -33.8817 14.5408 7.27664 -33.8817 14.0723 
15.0383 -33.8817 13.1418 27.2322 -33.8817 10.0633 22.7999 -33.8817 11.5294 
30.5615 -32.9462 10.0633 38.3232 -29.7851 10.0633 -46.3679 -26.1201 10.0633 
-47.0548 -25.5208 10.0633 -39.2932 -26.1201 14.344 -31.5315 -26.1201 17.2733 
30.5615 -26.1201 16.883 44.6336 -26.1201 10.0633 38.3232 -26.1201 13.8795 
46.0848 -25.1337 10.0633 -53.1119 -18.3584 10.0633 -54.8164 -16.1131 10.0633 
-47.0548 -18.3584 15.0914 53.5042 -18.3584 10.0633 46.0848 -18.3584 15.6438 
53.8465 -17.928 10.0633 -57.8887 -10.5968 10.0633 -54.8164 -10.5968 13.7956 
58.298 -10.5968 10.0633 53.8465 -10.5968 14.9381 -59.3834 -2.83515 10.0633 
-54.8164 -2.83515 15.6574 61.4519 -2.83515 10.0633 53.8465 -2.83515 16.9887 
61.6081 -1.26397 10.0633 -59.5193 4.92649 10.0633 -54.8164 4.92649 15.8013 
53.8465 4.92649 16.8962 62.1161 4.92649 10.0633 61.6081 6.55212 10.0633 
61.6081 4.92649 10.7105 -57.8544 12.6881 10.0633 -54.8164 17.2494 10.0633 
-54.8164 12.6881 13.1344 58.9933 12.6881 10.0633 53.8465 19.9117 10.0633 
53.8465 12.6881 14.8327 -51.7848 20.4498 10.0633 -47.0548 23.7873 10.0633 
-47.0548 20.4498 13.4986 -39.2932 27.057 10.0633 -39.2932 20.4498 15.7523 
-31.5315 20.4498 16.8423 -23.7699 20.4498 16.772 -16.0083 20.4498 16.8376 
[...]
POINT_DATA 520
SCALARS ImageScalars float
LOOKUP_TABLE default
0 0 0 0 0 0 0 0 0 
0 0 0 0 0 0 0 0 0 
0 0 0 0 0 0 0 0 0 
0 0 0 0 0 0 0 0 0 
0 0 0 0 0 0 0 0 0 
0 0 0 0 0 0 0 0 0 
0 0 0 0 0 0 0 0 0 
0 0 0 0 0 0 0 0 0 
0 0 0 0 0 0 0 0 0 
0 0 0 0 0 0 0 0 0 
0 0 0 0 0 0 0 0 0 
0 0 0 0 0 0 0 0 0 
0 0 0 0 0 0 0 0 0 
0 0 0 0 0 0 0 0 0 
0 0 0 0 0 0 0 0 0 
0 0 0 0 0 0 0 0 0 
0 0 0 0 0 0 0 0 0 
0 0 0 0 0 0 0 0 0 
0 0 0 0 0 0 0 0 0 
0 0 0 0 0 0 0 0 0 
0 0 0 0 0 0 0 0 0 
0 0 0 0 0 0 0 0 0 
0 0 0 0 0 0 0 0 0 
0 0 0 0 0 0 0 0 0 
0 0 0 0 0 0 0 0 0 
0 0 0 0 0 0 0 0 0 
0 0 0 0 0 0 0 0 0 
0 0 0 0 0 0 0 0 0 
0 0 0 0 0 0 0 0 0 
0 0 0 0 0 0 0 0 0 
0 0 0 0 0 0 0 0 0 
0 0 0 0 0 0 0 0 0 
0 0 0 0 0 0 0 0 0 
0 0 0 0 0 0 0 0 0 
0 0 0 0 0 0 0 0 0 
0 0 0 0 0 0 0 0 0 
0 0 0 0 0 0 0 0 0 
0 0 0 0 0 0 0 0 0 
0 0 0 0 0 0 0 0 0 
0 0 0 0 0 0 0 0 0 
0 0 0 0 0 0 0 0 0 
0 0 0 0 0 0 0 0 0 
0 0 0 0 0 0 0 0 0 
0 0 0 0 0 0 0 0 0 
0 0 0 0 0 0 0 0 0 
0 0 0 0 0 0 0 0 0 
0 0 0 0 0 0 0 0 0 
0 0 0 0 0 0 0 0 0 
0 0 0 0 0 0 0 0 0 
0 0 0 0 0 0 0 0 0 
0 0 0 0 0 0 0 0 0 
0 0 0 0 0 0 0 0 0 
0 0 0 0 0 0 0 0 0 
0 0 0 0 0 0 0 0 0 
0 0 0 0 0 0 0 0 0 
0 0 0 0 0 0 0 0 0 
0 0 0 0 0 0 0 0 0 
0 0 0 0 0 0 0 
NORMALS Normals float
-0.19066 -0.597971 -0.778511 -0.114741 -0.531091 -0.83951 -0.0287105 -0.50639 -0.861826 
0.0299603 -0.529402 -0.847842 0.049926 -0.562094 -0.825565 0.101553 -0.608378 -0.787124 
0.205052 -0.680565 -0.703409 -0.326497 -0.488551 -0.809146 -0.190029 -0.343925 -0.919568 
-0.110681 -0.240094 -0.964419 -0.0519341 -0.177818 -0.982692 0.00260875 -0.121767 -0.992555 
0.0257759 -0.116773 -0.992824 -0.00345951 -0.166229 -0.986081 0.0193194 -0.229498 -0.973117 
0.104427 -0.258715 -0.960292 0.196653 -0.394519 -0.897598 0.342419 -0.521337 -0.781637 
-0.438444 -0.321664 -0.839225 -0.207687 -0.214267 -0.95444 -0.0293763 -0.132 -0.990814 
-0.00688584 -0.00148055 -0.999975 0.010126 0.0329349 -0.999406 0.0242131 0.023622 -0.999428 
-0.0209845 0.0604081 -0.997953 -0.0583823 -0.0516775 -0.996956 -0.0182495 -0.0539322 -0.998378 
0.0101704 -0.0510261 -0.998646 0.109324 -0.159725 -0.981089 0.226706 -0.237276 -0.944619 
0.37538 -0.367934 -0.850714 -0.287877 -0.197008 -0.937184 -0.095861 -0.0615368 -0.993491 
0.0267596 -0.0205033 -0.999432 0.0577443 0.0664281 -0.996119 -0.0258888 0.141807 -0.989556 
0.0276313 -0.0906639 -0.995498 -0.046561 0.121743 -0.991469 -0.12209 -0.0759196 -0.989611 
0.0155682 0.00469283 -0.999868 0.00413977 0.0439802 -0.999024 0.011117 -0.00632322 -0.999918 
0.11291 -0.122376 -0.98604 0.263583 -0.209921 -0.941518 0.553279 -0.278258 -0.785147 
-0.583774 -0.105798 -0.804993 -0.230503 -0.112616 -0.966533 -0.0338686 -0.0783846 -0.996348 
0.0980607 -0.0375412 -0.994472 0.152336 -0.00264055 -0.988325 -0.125461 0.0547799 -0.990585 
-0.0177053 -0.142802 -0.989593 -0.00124412 -0.000492111 -0.999999 -0.173684 0.008117 -0.984768 
0.106852 0.113945 -0.987724 -0.00583909 0.0637746 -0.997947 -0.0602803 0.0159036 -0.998055 
0.0317264 -0.0353866 -0.99887 0.231175 -0.103618 -0.967379 0.436646 -0.118554 -0.891788 
-0.550426 -0.0221661 -0.834589 -0.291366 -0.0227482 -0.956341 -0.0193161 -0.0310438 -0.999331 
0.0994854 -0.0500913 -0.993777 0.152713 -0.0689017 -0.985866 -0.110537 -0.095859 -0.989238 
-0.0728179 0.101864 -0.99213 0.0628411 -0.166505 -0.984036 0.00943458 0.125637 -0.992031 
0.0683971 0.0825479 -0.994237 -0.0858137 0.0243459 -0.996014 -0.0869555 0.0302609 -0.995753 
-0.00674296 0.0453326 -0.998949 0.205919 0.0634105 -0.976512 0.419351 0.0290075 -0.907361 
-0.617214 0.174256 -0.767256 -0.231194 0.120854 -0.965372 -0.0589533 0.0623842 -0.99631 
0.0607776 -0.0342804 -0.997562 0.116074 -0.069225 -0.990825 -0.00612926 -0.117505 -0.993053 
-0.0537611 0.0799313 -0.99535 0.0473345 -0.0831892 -0.995409 0.0611628 0.0342189 -0.997541 
0.00420989 -0.04353 -0.999043 -0.0577965 -0.019701 -0.998134 -0.0397906 0.040951 -0.998369 
0.0657309 0.0834435 -0.994342 0.19533 0.199134 -0.960308 0.467724 0.253275 -0.84681 
-0.378267 0.291333 -0.878658 -0.164468 0.186491 -0.968592 -0.0285314 0.135246 -0.990401 
0.0684025 0.0135256 -0.997566 0.0166516 -0.0396209 -0.999076 -0.016994 -0.016266 -0.999723 
0.0277565 -0.0169802 -0.99947 0.0473392 -0.0146544 -0.998771 0.0122496 0.00202257 -0.999923 
-0.00102181 0.0538775 -0.998547 0.0174924 0.110998 -0.993667 0.152282 0.237591 -0.959354 
0.332187 0.327393 -0.884571 -0.270412 0.508881 -0.817262 -0.120333 0.382157 -0.916229 
-0.0642693 0.227367 -0.971686 -0.0410505 0.160746 -0.986142 -0.0304584 0.129435 -0.99112 
0.047826 0.142827 -0.988591 0.0800062 0.164493 -0.983128 0.0712074 0.210311 -0.975038 
0.0676201 0.263833 -0.962195 0.155689 0.408747 -0.89927 0.283379 0.535312 -0.7957 
-0.183401 0.647216 -0.739916 -0.0988017 0.528314 -0.843281 -0.0304258 0.520524 -0.853305 
0.0655058 0.529396 -0.845842 0.120993 0.564191 -0.816731 0.112973 0.614815 -0.780538 
0.203672 0.674616 -0.709515 -0.202084 -0.670083 -0.714248 -0.123301 -0.690051 -0.713181 
-0.0108979 -0.74274 -0.669491 0.0455366 -0.751589 -0.658058 0.0550141 -0.759797 -0.647829 
0.119245 -0.737173 -0.665099 0.208196 -0.725723 -0.65573 -0.363518 -0.571452 -0.735729 
-0.422552 -0.851026 -0.311776 -0.259033 -0.655476 -0.709404 -0.280023 -0.633567 -0.721235 
-0.302762 -0.710821 -0.634877 0.246517 -0.70547 -0.664486 0.278372 -0.651106 -0.706095 
0.313107 -0.784345 -0.535505 0.376813 -0.599414 -0.706197 -0.424309 -0.529681 -0.734439 
-0.491562 -0.456864 -0.741379 -0.580545 -0.627731 -0.518575 0.434459 -0.577009 -0.691597 
0.47018 -0.515061 -0.716689 0.573552 -0.704204 -0.418491 -0.550901 -0.373149 -0.746504 
-0.774848 -0.462246 -0.431208 0.530026 -0.441908 -0.723733 0.585027 -0.344189 -0.734355 
0.686025 -0.541303 -0.486169 -0.638728 -0.279301 -0.71695 -0.638875 -0.279076 -0.716907 
-0.639057 -0.279405 -0.716616 0.589655 -0.301861 -0.749124 -0.664652 -0.13744 -0.734403 
0.61951 -0.176504 -0.764888 0.821383 -0.204861 -0.532317 -0.66828 -0.000928248 -0.743909 
0.649262 0.069911 -0.757345 0.791058 0.0696905 -0.607758 -0.713083 0.220172 -0.66561 
-0.693662 0.334244 -0.638055 0.568794 0.283277 -0.772157 0.530748 0.377732 -0.758699 
0.854091 0.305546 -0.420916 -0.662074 0.40493 -0.630626 -0.751958 0.472057 -0.460132 
-0.541165 0.633862 -0.552593 0.501261 0.424454 -0.75404 0.416109 0.561536 -0.715213 
0.604769 0.499405 -0.620361 -0.516785 0.66273 -0.541961 -0.563159 0.710856 -0.42135 
-0.374683 0.732843 -0.567938 -0.288526 0.762268 -0.579396 0.266541 0.649401 -0.712204 
0.36697 0.615514 -0.697478 0.316373 0.635737 -0.704093 0.480078 0.755044 -0.44658 
-0.28687 0.763455 -0.578655 -0.294031 0.775487 -0.558717 -0.220491 0.749549 -0.624147 
-0.139533 0.729392 -0.669715 -0.0146318 0.7725 -0.634847 0.0760626 0.777359 -0.624442 
0.123211 0.73377 -0.668132 0.128888 0.704131 -0.698274 0.239323 0.703763 -0.668911 
0.211327 0.714193 -0.667285 0.326591 0.859605 -0.39296 -0.425156 -0.868009 -0.256519 
-0.327297 -0.916927 -0.228299 -0.22506 -0.950558 -0.213979 -0.0896222 -0.974727 -0.204634 
0.0319576 -0.983543 -0.177825 0.0755469 -0.98332 -0.165451 0.0674763 -0.985945 -0.152835 
0.0948141 -0.983212 -0.1559 0.179192 -0.968475 -0.17305 0.32694 -0.925521 -0.191106 
-0.449309 -0.856718 -0.25329 -0.606231 -0.753328 -0.254912 0.444737 -0.873534 -0.197857 
0.457423 -0.866473 -0.199971 0.591944 -0.774302 -0.223736 -0.690266 -0.674681 -0.261416 
-0.792767 -0.550324 -0.262037 0.628459 -0.74208 -0.233145 0.718888 -0.651687 -0.241875 
-0.835438 -0.479762 -0.268089 0.769268 -0.586889 -0.252564 -0.909426 -0.30927 -0.278024 
0.868092 -0.412227 -0.27656 0.885341 -0.37804 -0.27066 0.901511 -0.41353 0.127557 
-0.961743 -0.129244 -0.24155 0.937757 -0.208088 -0.278049 -0.974833 0.0425777 -0.218833 
0.958408 0.0543298 -0.280182 -0.935148 0.277507 -0.220199 0.912362 0.306579 -0.271302 
0.867454 0.426448 -0.256255 -0.834071 0.526821 -0.163661 -0.74783 0.652288 -0.123575 
0.766969 0.591844 -0.24795 0.655706 0.72176 -0.221615 -0.62284 0.779379 -0.0681011 
-0.571075 0.818357 -0.064529 -0.438122 0.89889 0.00681322 0.395005 0.912148 -0.10935 
0.578839 0.794521 -0.183528 0.495423 0.853675 -0.160606 -0.421402 0.906796 0.011908 
-0.33332 0.942785 0.00732924 -0.324075 0.84635 0.42269 -0.258537 0.965967 0.00810434 
-0.136444 0.990448 0.0198801 0.0147756 0.999786 0.0144646 0.0622841 0.998055 -0.00265058 
0.0675743 0.996741 -0.0440489 0.126795 0.988422 -0.0833358 0.235098 0.969053 -0.0752619 
0.363231 0.926254 -0.100584 0.31992 0.941427 -0.106612 -0.427338 -0.886568 0.177142 
-0.324079 -0.93083 0.168903 -0.215133 -0.962135 0.167372 -0.0872761 -0.981324 0.171426 
0.040573 -0.985139 0.166897 0.0876822 -0.983023 0.161178 0.0838039 -0.982029 0.169106 
0.103319 -0.975139 0.196035 0.179245 -0.960126 0.214544 0.309946 -0.927698 0.208111 
-0.45577 -0.871909 0.17902 -0.614274 -0.76841 0.179485 -0.425833 -0.868498 0.253729 
0.410235 -0.893835 0.181016 0.274109 -0.848695 0.452307 0.437355 -0.882026 0.175362 
0.578352 -0.802669 0.14571 -0.701668 -0.691275 0.172631 -0.802168 -0.572921 0.16819 
-0.579472 -0.63754 0.507696 0.623692 -0.768848 0.141001 0.544418 -0.74131 0.392516 
0.71616 -0.684161 0.137982 -0.847747 -0.504662 0.163221 -0.767235 -0.516858 0.379747 
0.77789 -0.613476 0.136143 0.676789 -0.581086 0.45199 0.901167 -0.413483 0.130113 
-0.937659 -0.319548 0.136691 0.901239 -0.413331 0.130101 0.901171 -0.41334 0.130539 
-0.984114 -0.112675 0.137201 0.970951 -0.197922 0.134465 0.836636 -0.189249 0.514028 
-0.987067 0.0364585 0.156105 0.986979 0.0735057 0.143068 -0.931612 0.325296 0.162116 
0.929406 0.329357 0.166519 0.872631 0.450714 0.188077 0.856948 0.351243 0.377185 
-0.76491 0.597335 0.241047 -0.708074 0.655325 0.26302 -0.679143 0.607161 0.412456 
0.745766 0.634988 0.201553 0.616662 0.749045 0.242198 0.518509 0.611387 0.597791 
-0.533576 0.771521 0.346484 -0.499082 0.790438 0.35514 -0.492486 0.772424 0.401023 
-0.330004 0.835772 0.438843 -0.267317 0.76908 0.580567 -0.312735 0.819017 0.481049 
0.346361 0.874049 0.340695 0.237532 0.709549 0.663415 0.489273 0.825908 0.280157 
0.413358 0.861528 0.294797 0.400009 0.825789 0.397575 -0.303085 0.822311 0.481606 
-0.227669 0.846461 0.481321 -0.226797 0.781185 0.581647 -0.140493 0.8638 0.48385 
-0.148047 0.74579 0.649522 -0.0344867 0.896355 0.441995 -0.0571668 0.734858 0.675808 
0.0146071 0.910526 0.413194 0.0141513 0.73175 0.681426 0.0368759 0.917795 0.395338 
0.0452062 0.721848 0.690574 0.121864 0.911436 0.39298 0.0998174 0.746305 0.658077 
0.21209 0.898112 0.385244 0.203183 0.815292 0.542233 0.313188 0.866678 0.388308 
0.310356 0.866581 0.39079 0.30891 0.863469 0.398743 -0.30469 -0.777654 0.549926 
-0.197843 -0.804799 0.559605 -0.0840125 -0.816748 0.570846 0.00929247 -0.829469 0.558476 
0.0588984 -0.844895 0.53168 0.0893059 -0.852987 0.514235 0.131044 -0.840284 0.526071 
0.187952 -0.826639 0.530416 -0.321386 -0.771322 0.549338 -0.397976 -0.720805 0.567499 
-0.300046 -0.759466 0.57722 -0.17123 -0.676137 0.716602 -0.0694351 -0.63203 0.771827 
-0.00896702 -0.626219 0.779596 0.0308002 -0.633963 0.77275 0.0680695 -0.697539 0.713306 
0.11673 -0.742983 0.659053 0.227862 -0.815536 0.531958 0.183209 -0.788672 0.586882 
0.259595 -0.801728 0.53837 0.388941 -0.758629 0.522691 -0.551665 -0.622874 0.554701 
-0.564334 -0.61189 0.554182 -0.362824 -0.560356 0.744554 -0.209129 -0.456751 0.864664 
0.210878 -0.559184 0.801775 0.496573 -0.713298 0.494591 0.352782 -0.643459 0.679342 
0.522387 -0.696143 0.49244 -0.675194 -0.501326 0.541096 -0.722356 -0.455443 0.520359 
-0.485634 -0.42082 0.766205 0.662006 -0.572746 0.483436 0.434176 -0.481987 0.761039 
0.670119 -0.56346 0.48317 -0.802584 -0.311899 0.508505 -0.66616 -0.315883 0.67561 
0.759106 -0.387774 0.522867 0.603758 -0.319437 0.730368 -0.850032 -0.0980107 0.517532 
-0.645634 -0.0969016 0.757474 0.82548 -0.187376 0.532422 0.518102 -0.0842436 0.85116 
0.833002 -0.129697 0.537854 -0.84631 0.0740776 0.527514 -0.645449 0.11979 0.754351 
0.499638 0.0986167 0.860603 0.830643 0.0986704 0.547993 0.807364 0.154458 0.569479 
0.808433 0.107396 0.578707 -0.74646 0.352173 0.564599 -0.649458 0.499219 0.573572 
-0.62823 0.367071 0.685993 0.681367 0.365131 0.634365 0.511934 0.586059 0.62806 
0.522134 0.348026 0.778623 -0.544734 0.607643 0.577957 -0.403023 0.681158 0.611225 
-0.374877 0.603202 0.703999 -0.241943 0.735725 0.632591 -0.160582 0.544231 0.823423 
-0.0546591 0.519243 0.852877 -0.000378012 0.39074 0.920501 -0.0308844 0.288499 0.956982 
0.0264535 0.291958 0.956065 0.0803802 0.296039 0.951788 -0.00204999 0.31376 0.9495 
-0.0510092 0.351609 0.934756 -0.00862625 0.382996 0.92371 0.0301272 0.437172 0.898873 
0.232865 0.70036 0.674737 0.113008 0.492824 0.862759 0.491879 0.6035 0.627569 
0.34801 0.704538 0.618477 0.316533 0.559425 0.766061 -0.213317 0.701553 0.679941 
-0.19062 0.665297 0.721833 -0.169719 0.651106 0.739768 -0.184415 0.630651 0.753837 
-0.155117 0.561844 0.81257 -0.144325 0.643519 0.7517 -0.126177 0.479565 0.868388 
-0.0548791 0.681022 0.730204 -0.0291286 0.437458 0.898767 0.021075 0.664425 0.747058 
0.0544482 0.393072 0.917894 0.0483864 0.627388 0.777202 0.0551851 0.395534 0.916792 
0.0815486 0.617017 0.782713 0.0546657 0.448996 0.89186 0.1459 0.63454 0.758994 
0.0935638 0.521532 0.848086 0.225526 0.698669 0.67897 0.171248 0.68113 0.711854 
0.144996 0.641073 0.753659 -0.0792122 -0.402061 0.91218 -0.0361744 -0.398733 0.916353 
0.00349175 -0.391405 0.920212 -0.0121699 -0.373296 0.927633 0.00341398 -0.456963 0.889479 
0.0570957 -0.479836 0.875499 0.104923 -0.482015 0.869858 -0.289076 -0.384348 0.876762 
-0.13508 -0.414099 0.900153 -0.189476 -0.413253 0.890686 -0.0729157 -0.378831 0.922589 
-0.0292257 -0.353173 0.935101 0.00929473 -0.326139 0.945276 -0.0201249 -0.334009 0.942355 
-0.0174019 -0.389166 0.921003 0.047163 -0.431124 0.901059 0.136564 -0.492408 0.859584 
0.0987354 -0.459345 0.882754 0.187806 -0.498473 0.846318 0.291048 -0.436139 0.851512 
-0.326897 -0.356977 0.875046 -0.380037 -0.297564 0.875801 -0.263469 -0.336896 0.903928 
-0.106766 -0.241103 0.964609 -0.0528386 -0.195138 0.979352 -0.0146371 -0.182599 0.983079 
0.00516751 -0.243769 0.96982 -0.0478392 -0.221966 0.97388 -0.05473 -0.2581 0.964567 
0.0282419 -0.246357 0.968768 0.0550606 -0.22768 0.972178 0.119126 -0.299373 0.94667 
0.324215 -0.40917 0.852916 0.268193 -0.375339 0.887239 0.364611 -0.340455 0.866689 
-0.390335 -0.284568 0.875591 -0.36578 -0.278196 0.888151 -0.178297 -0.19675 0.964106 
-0.0537404 -0.142361 0.988355 -0.0173654 -0.0528361 0.998452 -0.0701999 -0.0346393 0.996931 
-0.0261231 -0.105862 0.994038 -0.0392305 0.0205938 0.999018 -0.0487858 -0.0966633 0.994121 
0.0741827 -0.0720064 0.994642 0.0337121 -0.0528073 0.998035 0.0391208 -0.0889141 0.995271 
0.194872 -0.170566 0.965884 0.419631 -0.266849 0.867584 0.334415 -0.245615 0.909857 
-0.497373 -0.110102 0.860522 -0.335825 -0.0948153 0.93714 -0.134744 -0.0943896 0.986374 
0.0278983 -0.0603457 0.997788 0.0519028 0.0482981 0.997484 -0.0718943 0.097242 0.992661 
0.0613879 0.0419982 0.99723 -0.039958 0.0271348 0.998833 -0.151925 -0.0310831 0.987903 
0.0745961 0.0428682 0.996292 0.0428717 0.0629482 0.997096 0.00525187 0.0254468 0.999662 
0.101926 -0.0246148 0.994487 0.457329 -0.0773159 0.88593 0.278395 -0.0780597 0.957289 
-0.507682 0.126927 0.852144 -0.341183 0.104787 0.934138 -0.150271 0.107156 0.982821 
0.0976753 0.112605 0.988827 0.133645 0.12089 0.983628 -0.0776005 0.155957 0.984711 
-0.0965887 0.158048 0.982696 -0.109232 0.0196541 0.993822 -0.0363234 0.157155 0.986906 
0.171335 0.198761 0.964955 0.00937677 0.150287 0.988598 -0.0490939 0.140162 0.988911 
0.0961494 0.133776 0.986336 0.443297 0.101743 0.890582 0.277623 0.114732 0.953815 
-0.354796 0.350522 0.866749 -0.353245 0.352077 0.866752 -0.353184 0.350182 0.867545 
-0.150678 0.44096 0.884788 -0.133719 0.355178 0.925185 -0.029661 0.466959 0.883781 
0.0371443 0.314778 0.948438 0.0458983 0.326331 0.944141 0.101011 0.239226 0.965695 
-0.0234648 0.240653 0.970327 -0.0229561 0.204038 0.978694 0.00939752 0.291585 0.956499 
-0.0668597 0.297595 0.952348 0.0563125 0.32333 0.944609 -0.00180066 0.356899 0.934141 
0.00444263 0.423394 0.905935 0.0201978 0.516744 0.855902 -0.0328926 0.344512 0.938206 
0.0182186 0.342915 0.93919 -0.0150179 0.331353 0.943387 -0.0180684 0.258169 0.965931 
0.0146324 0.383902 0.923258 -0.00686197 0.313783 0.94947 0.0923103 0.401521 0.911186 
0.085239 0.32743 0.941023 0.27376 0.335811 0.90127 0.244305 0.357509 0.901389 
0.239157 0.335872 0.91104 
