# vtk DataFile Version 4.2
vtk output
ASCII
DATASET POLYDATA
POINTS 528 float
-7.95547 -7.79934 -21.3221 -33.0244 -41.2246 -14.1838 -24.6681 -41.2246 -13.7336 
-16.3118 -41.2246 -13.5193 -49.737 -32.8683 -14.1639 -41.3807 -32.8683 -17.2634 
-33.0244 -32.8683 -18.4799 -24.6681 -32.8683 -17.7248 -16.3118 -32.8683 -16.0772 
-7.95547 -32.8683 -14.478 0.400835 -32.8683 -14.1158 8.75715 -32.8683 -14.1133 
17.1135 -32.8683 -13.0852 -58.0933 -24.512 -14.269 -49.737 -24.512 -17.2226 
-41.3807 -24.512 -19.4845 -33.0244 -24.512 -19.3597 -24.6681 -24.512 -19.4747 
-16.3118 -24.512 -17.8492 -7.95547 -24.512 -16.1351 0.400835 -24.512 -15.0963 
8.75715 -24.512 -15.4004 17.1135 -24.512 -15.376 25.4698 -24.512 -14.0158 
-58.0933 -16.1556 -14.9953 -49.737 -16.1556 -17.9645 -41.3807 -16.1556 -19.3657 
-33.0244 -16.1556 -19.893 -24.6681 -16.1556 -18.7598 -16.3118 -16.1556 -17.8372 
-7.95547 -8.01857 -21.2419 -7.95547 -16.1556 -18.1661 0.400835 -16.1556 -16.9447 
8.75715 -16.1556 -17.0419 17.1135 -16.1556 -17.0371 25.4698 -16.1556 -15.2934 
33.8261 -16.1556 -13.8803 -58.0933 -7.79934 -16.2399 -49.737 -7.79934 -18.7987 
-41.3807 -7.79934 -19.5695 -33.0244 -7.79934 -19.0492 -24.6681 -7.79934 -18.1622 
-8.1043 -7.79934 -21.2419 -16.3118 -7.79934 -17.0362 -7.72478 -7.79934 -21.2419 
-7.95547 -6.88774 -21.2419 0.400835 -7.79934 -18.2903 8.75715 -7.79934 -19.6847 
17.1135 -7.79934 -17.9216 25.4698 -7.79934 -15.3997 33.8261 -7.79934 -14.7984 
42.1824 -7.79934 -13.8625 -58.0933 0.55697 -16.2593 -49.737 0.55697 -18.9601 
-41.3807 0.55697 -19.6839 -33.0244 0.55697 -19.233 -24.6681 0.55697 -17.8747 
-16.3118 0.55697 -16.9282 -7.95547 0.55697 -20.5005 0.400835 0.55697 -15.2284 
8.75715 0.55697 -20.8112 17.1135 0.55697 -17.1809 25.4698 0.55697 -15.5642 
33.8261 0.55697 -15.555 42.1824 0.55697 -14.8795 50.5387 0.55697 -13.026 
-58.0933 8.91328 -14.2731 -49.737 8.91328 -18.0964 -41.3807 8.91328 -19.5595 
-33.0244 8.91328 -19.4775 -24.6681 8.91328 -18.4668 -16.3118 8.91328 -17.7815 
-7.95547 8.91328 -19.3435 0.400835 8.91328 -18.7991 8.75715 8.91328 -19.9202 
17.1135 8.91328 -17.0865 25.4698 8.91328 -16.63 33.8261 8.91328 -16.2519 
42.1824 8.91328 -15.3753 50.5387 8.91328 -13.3233 -49.737 17.2696 -16.6047 
-41.3807 17.2696 -18.7129 -33.0244 17.2696 -19.5676 -24.6681 17.2696 -18.956 
-16.3118 17.2696 -18.3353 -7.95547 17.2696 -18.6481 0.400835 17.2696 -18.0922 
8.75715 17.2696 -17.409 17.1135 17.2696 -17.4375 25.4698 17.2696 -17.1389 
33.8261 17.2696 -16.7194 42.1824 17.2696 -14.6568 -41.3807 25.6259 -16.1589 
-33.0244 25.6259 -17.9953 -24.6681 25.6259 -17.7598 -16.3118 25.6259 -17.4734 
-7.95547 25.6259 -17.4008 0.400835 25.6259 -17.1659 8.75715 25.6259 -16.8432 
17.1135 25.6259 -17.1088 25.4698 25.6259 -16.5959 33.8261 25.6259 -15.2771 
-33.0244 33.9822 -14.1965 -24.6681 33.9822 -14.6186 -16.3118 33.9822 -15.184 
-7.95547 33.9822 -15.5862 0.400835 33.9822 -15.8156 8.75715 33.9822 -15.6653 
17.1135 33.9822 -15.5962 25.4698 33.9822 -14.4086 -7.95547 42.3385 -13.2426 
0.400835 42.3385 -14.0602 8.75715 42.3385 -13.7894 -33.0244 -42.4777 -12.8856 
-24.6681 -42.3343 -12.8856 -16.3118 -42.0537 -12.8856 -49.737 -34.8281 -12.8856 
-38.2545 -41.2246 -12.8856 -41.3807 -40.4208 -12.8856 -41.3807 -41.2246 -11.6376 
-12.5496 -41.2246 -12.8856 -7.95547 -38.4517 -12.8856 -7.95547 -41.2246 -11.8802 
0.400835 -36.7889 -12.8856 0.400835 -41.2246 -11.1886 8.75715 -36.3078 -12.8856 
8.75715 -41.2246 -10.857 17.1135 -33.3627 -12.8856 17.1135 -41.2246 -9.35021 
25.4698 -41.2246 -6.73595 -51.7295 -32.8683 -12.8856 -58.0933 -27.1033 -12.8856 
18.6844 -32.8683 -12.8856 25.4698 -29.3602 -12.8856 25.4698 -32.8683 -11.9483 
33.8261 -32.8683 -9.09618 42.1824 -32.8683 -5.94398 -59.5449 -24.512 -12.8856 
31.7962 -24.512 -12.8856 33.8261 -22.2781 -12.8856 33.8261 -24.512 -12.4905 
42.1824 -24.512 -10.0892 50.5387 -24.512 -6.89057 -60.7108 -16.1556 -12.8856 
40.1463 -16.1556 -12.8856 42.1824 -14.1052 -12.8856 42.1824 -16.1556 -12.5456 
50.5387 -16.1556 -11.0066 58.895 -16.1556 -6.99402 -62.1728 -7.79934 -12.8856 
46.5127 -7.79934 -12.8856 50.5387 -0.51487 -12.8856 50.5387 -7.79934 -12.0214 
58.895 -7.79934 -8.19673 -62.1016 0.55697 -12.8856 -66.4496 0.55697 -5.41819 
50.9713 0.55697 -12.8856 58.895 0.55697 -9.55482 -59.5819 8.91328 -12.8856 
-58.0933 14.2587 -12.8856 51.7416 8.91328 -12.8856 50.5387 11.3194 -12.8856 
58.895 8.91328 -9.46795 -56.9834 17.2696 -12.8856 -58.0933 17.2696 -11.2562 
-49.737 24.5063 -12.8856 47.4593 17.2696 -12.8856 42.1824 25.5812 -12.8856 
50.5387 17.2696 -11.7616 58.895 17.2696 -6.43629 -48.3826 25.6259 -12.8856 
-49.737 25.6259 -11.84 -41.3807 30.5974 -12.8856 42.1484 25.6259 -12.8856 
33.8261 32.1813 -12.8856 42.1824 25.6259 -12.8745 50.5387 25.6259 -8.00083 
-36.2095 33.9822 -12.8856 -41.3807 33.9822 -9.61938 -33.0244 35.8188 -12.8856 
-24.6681 36.8893 -12.8856 -16.3118 39.4599 -12.8856 17.1135 40.8414 -12.8856 
31.28 33.9822 -12.8856 25.4698 36.8918 -12.8856 33.8261 33.9822 -12.0708 
42.1824 33.9822 -7.44734 -33.0244 42.3385 -5.46265 -24.6681 42.3385 -8.89522 
-9.89873 42.3385 -12.8856 -16.3118 42.3385 -11.5106 -7.95547 43.1166 -12.8856 
0.400835 44.924 -12.8856 13.8455 42.3385 -12.8856 8.75715 44.2179 -12.8856 
17.1135 42.3385 -12.146 25.4698 42.3385 -9.10007 -16.3118 50.6948 -4.93742 
-7.95547 50.6948 -7.01366 0.400835 50.6948 -8.22349 8.75715 50.6948 -7.81619 
-41.3807 -44.27 -4.52927 -33.0244 -47.0843 -4.52927 -24.6681 -47.5984 -4.52927 
-16.3118 -47.5008 -4.52927 -7.95547 -47.6791 -4.52927 0.400835 -48.5054 -4.52927 
8.75715 -48.3264 -4.52927 17.1135 -46.4992 -4.52927 25.4698 -43.2268 -4.52927 
-46.9635 -41.2246 -4.52927 -49.737 -39.3705 -4.52927 -41.3807 -41.2246 2.18449 
32.6424 -41.2246 -4.52927 33.8261 -40.7601 -4.52927 33.8261 -41.2246 -4.00209 
42.1824 -34.769 -4.52927 42.1824 -41.2246 3.36042 -56.1468 -32.8683 -4.52927 
-58.0933 -30.445 -4.52927 45.7938 -32.8683 -4.52927 50.5387 -29.3044 -4.52927 
50.5387 -32.8683 -2.03501 -61.9579 -24.512 -4.52927 -58.0933 -24.512 3.55482 
54.9597 -24.512 -4.52927 58.895 -21.103 -4.52927 58.895 -24.512 -1.62207 
-65.0596 -16.1556 -4.52927 61.8336 -16.1556 -4.52927 -66.3473 -7.79934 -4.52927 
-66.4496 -5.7256 -4.52927 63.8597 -7.79934 -4.52927 67.2513 -7.79934 -0.239627 
-66.7536 0.55697 -4.52927 -66.4496 1.64326 -4.52927 -66.4496 0.55697 -3.39746 
64.5872 0.55697 -4.52927 67.2513 0.55697 0.111059 -64.2852 8.91328 -4.52927 
63.9575 8.91328 -4.52927 -60.7057 17.2696 -4.52927 -58.0933 21.5091 -4.52927 
60.6057 17.2696 -4.52927 58.895 19.8005 -4.52927 -55.0675 25.6259 -4.52927 
-49.737 31.4372 -4.52927 53.6994 25.6259 -4.52927 50.5387 28.7557 -4.52927 
-46.7433 33.9822 -4.52927 -41.3807 37.9292 -4.52927 33.8261 42.3383 -4.52927 
44.9109 33.9822 -4.52927 42.1824 36.1303 -4.52927 -34.164 42.3385 -4.52927 
-33.0244 42.9802 -4.52927 -24.6681 46.7153 -4.52927 17.1135 50.4006 -4.52927 
33.8257 42.3385 -4.52927 25.4698 46.4527 -4.52927 33.8261 42.3385 -4.5277 
-17.0119 50.6948 -4.52927 -16.3118 50.9855 -4.52927 -7.95547 52.5142 -4.52927 
0.400835 53.2149 -4.52927 16.2988 50.6948 -4.52927 8.75715 52.8374 -4.52927 
17.1135 50.6948 -1.7044 -33.0244 -43.7191 3.82704 -24.6681 -44.0156 3.82704 
-16.3118 -45.5549 3.82704 -7.95547 -46.1488 3.82704 0.400835 -48.2965 3.82704 
8.75715 -49.4434 3.82704 17.1135 -48.8498 3.82704 25.4698 -47.0865 3.82704 
33.8261 -44.8429 3.82704 42.1824 -41.4561 3.82704 -49.737 -34.2055 3.82704 
-39.3807 -41.2246 3.82704 -41.3807 -39.7632 3.82704 -33.0244 -41.2246 6.30244 
-24.6681 -41.2246 6.91735 -16.3118 -41.2246 7.75262 -7.95547 -41.2246 8.7475 
0.400835 -41.2246 11.1408 42.6463 -41.2246 3.82704 42.1824 -41.2246 5.87511 
50.5387 -36.8349 3.82704 -51.0499 -32.8683 3.82704 -49.737 -32.8683 4.84291 
-41.3807 -32.8683 8.11905 -33.0244 -32.8683 10.1074 -24.6681 -32.8683 11.4454 
-16.3118 -32.8683 11.6261 55.7321 -32.8683 3.82704 58.895 -29.6137 3.82704 
-57.7915 -24.512 3.82704 -58.0933 -24.1739 3.82704 -49.737 -24.512 8.12451 
-41.3807 -24.512 10.8785 62.8107 -24.512 3.82704 -61.4588 -16.1556 3.82704 
-58.0933 -16.1556 6.98734 -49.737 -16.1556 10.5859 66.7862 -16.1556 3.82704 
67.2513 -14.5262 3.82704 -62.8467 -7.79934 3.82704 -58.0933 -7.79934 8.70653 
69.1716 -7.79934 3.82704 -63.7544 0.55697 3.82704 -58.0933 0.55697 10.3549 
68.6146 0.55697 3.82704 67.2513 7.01713 3.82704 67.2513 0.55697 7.92866 
-62.4348 8.91328 3.82704 -58.0933 8.91328 9.22718 66.8136 8.91328 3.82704 
-58.9451 17.2696 3.82704 -58.0933 18.8602 3.82704 -58.0933 17.2696 5.00646 
62.9986 17.2696 3.82704 58.895 22.5628 3.82704 58.895 17.2696 11.6948 
-53.7065 25.6259 3.82704 -49.737 30.1657 3.82704 -49.737 25.6259 8.74773 
56.0635 25.6259 3.82704 50.5387 30.868 3.82704 50.5387 25.6259 10.4045 
-45.9798 33.9822 3.82704 -41.3807 37.7975 3.82704 -41.3807 33.9822 9.68007 
46.6416 33.9822 3.82704 42.1824 37.4338 3.82704 42.1824 33.9822 9.02556 
-35.3902 42.3385 3.82704 -33.0244 43.9692 3.82704 -33.0244 42.3385 7.25492 
-24.6681 48.9625 3.82704 25.4698 47.8354 3.82704 25.4698 42.3385 11.4307 
35.2416 42.3385 3.82704 33.8261 43.2704 3.82704 33.8261 42.3385 5.82831 
-20.9134 50.6948 3.82704 -16.3118 52.6458 3.82704 -16.3118 50.6948 8.27995 
-7.95547 54.8271 3.82704 -7.95547 50.6948 10.0368 0.400835 55.132 3.82704 
0.400835 50.6948 10.0025 8.75715 53.6115 3.82704 8.75715 50.6948 8.21069 
18.3595 50.6948 3.82704 17.1135 51.1627 3.82704 17.1135 50.6948 4.81999 
8.75715 -43.0567 12.1833 17.1135 -43.8558 12.1833 25.4698 -43.2353 12.1833 
33.8261 -41.9755 12.1833 -7.95547 -33.8039 12.1833 3.95901 -41.2246 12.1833 
0.400835 -38.9554 12.1833 8.75715 -41.2246 13.3679 17.1135 -41.2246 14.0284 
25.4698 -41.2246 13.6752 37.8372 -41.2246 12.1833 33.8261 -41.2246 13.0928 
42.1824 -40.161 12.1833 50.5387 -34.5363 12.1833 -33.0244 -26.9675 12.1833 
-24.6681 -29.7724 12.1833 -11.2256 -32.8683 12.1833 -16.3118 -30.7232 12.1833 
-7.95547 -32.8683 12.5562 0.400835 -32.8683 14.5712 8.75715 -32.8683 16.1595 
17.1135 -32.8683 16.9023 25.4698 -32.8683 17.3788 33.8261 -32.8683 17.3435 
[...]
POINT_DATA 528
SCALARS ImageScalars float
LOOKUP_TABLE default
0 0 0 0 0 0 0 0 0 
0 0 0 0 0 0 0 0 0 
0 0 0 0 0 0 0 0 0 
0 0 0 0 0 0 0 0 0 
0 0 0 0 0 0 0 0 0 
0 0 0 0 0 0 0 0 0 
0 0 0 0 0 0 0 0 0 
0 0 0 0 0 0 0 0 0 
0 0 0 0 0 0 0 0 0 
0 0 0 0 0 0 0 0 0 
0 0 0 0 0 0 0 0 0 
0 0 0 0 0 0 0 0 0 
0 0 0 0 0 0 0 0 0 
0 0 0 0 0 0 0 0 0 
0 0 0 0 0 0 0 0 0 
0 0 0 0 0 0 0 0 0 
0 0 0 0 0 0 0 0 0 
0 0 0 0 0 0 0 0 0 
0 0 0 0 0 0 0 0 0 
0 0 0 0 0 0 0 0 0 
0 0 0 0 0 0 0 0 0 
0 0 0 0 0 0 0 0 0 
0 0 0 0 0 0 0 0 0 
0 0 0 0 0 0 0 0 0 
0 0 0 0 0 0 0 0 0 
0 0 0 0 0 0 0 0 0 
0 0 0 0 0 0 0 0 0 
0 0 0 0 0 0 0 0 0 
0 0 0 0 0 0 0 0 0 
0 0 0 0 0 0 0 0 0 
0 0 0 0 0 0 0 0 0 
0 0 0 0 0 0 0 0 0 
0 0 0 0 0 0 0 0 0 
0 0 0 0 0 0 0 0 0 
0 0 0 0 0 0 0 0 0 
0 0 0 0 0 0 0 0 0 
0 0 0 0 0 0 0 0 0 
0 0 0 0 0 0 0 0 0 
0 0 0 0 0 0 0 0 0 
0 0 0 0 0 0 0 0 0 
0 0 0 0 0 0 0 0 0 
0 0 0 0 0 0 0 0 0 
0 0 0 0 0 0 0 0 0 
0 0 0 0 0 0 0 0 0 
0 0 0 0 0 0 0 0 0 
0 0 0 0 0 0 0 0 0 
0 0 0 0 0 0 0 0 0 
0 0 0 0 0 0 0 0 0 
0 0 0 0 0 0 0 0 0 
0 0 0 0 0 0 0 0 0 
0 0 0 0 0 0 0 0 0 
0 0 0 0 0 0 0 0 0 
0 0 0 0 0 0 0 0 0 
0 0 0 0 0 0 0 0 0 
0 0 0 0 0 0 0 0 0 
0 0 0 0 0 0 0 0 0 
0 0 0 0 0 0 0 0 0 
0 0 0 0 0 0 0 0 0 
0 0 0 0 0 0 
NORMALS Normals float
-0.10496 -0.15327 -0.982594 -0.0710826 -0.656394 -0.751062 0.0311515 -0.602933 -0.797183 
0.0979691 -0.533087 -0.840369 -0.4993 -0.502002 -0.706183 -0.201098 -0.344584 -0.916963 
-0.0311695 -0.234571 -0.971599 0.12724 -0.288696 -0.948928 0.195865 -0.253184 -0.947383 
0.113871 -0.236321 -0.96498 0.0207939 -0.215065 -0.976378 0.0569308 -0.25288 -0.965821 
0.122766 -0.318737 -0.939859 -0.641547 -0.296974 -0.707265 -0.298911 -0.175581 -0.937989 
-0.147888 -0.142886 -0.978628 5.41672e-05 -0.0798457 -0.996807 0.0907545 -0.0701815 -0.993397 
0.194614 -0.0997473 -0.975795 0.161906 -0.205876 -0.965091 0.0429608 -0.162546 -0.985765 
-0.0165496 -0.170004 -0.985304 0.0809474 -0.22353 -0.97133 0.168957 -0.191408 -0.966859 
-0.560546 -0.114289 -0.820199 -0.220995 -0.0977206 -0.970367 -0.106707 -0.00563081 -0.994274 
0.036289 0.0191863 -0.999157 0.121662 0.0735465 -0.989843 0.037021 0.0484493 -0.998139 
-0.101846 -0.158627 -0.982072 0.0494661 -0.270699 -0.961392 0.0659533 -0.194269 -0.978729 
-0.00520589 -0.254665 -0.967015 0.1039 -0.144158 -0.984085 0.184029 -0.0809167 -0.979585 
0.156459 -0.136178 -0.978252 -0.497051 -0.0592213 -0.865698 -0.166363 -0.0579295 -0.984361 
-0.0116916 -0.018994 -0.999751 0.0788556 0.0392848 -0.996112 0.125305 0.0551009 -0.990587 
-0.107468 -0.149921 -0.98284 -0.136643 0.0576432 -0.988942 -0.0998779 -0.147606 -0.98399 
-0.0892861 -0.122275 -0.988472 0.0611313 0.0839802 -0.994591 0.0154751 -0.207616 -0.978088 
0.267601 -0.019394 -0.963335 0.166966 -0.0161119 -0.985831 0.088516 -0.0971458 -0.991326 
0.161703 -0.130109 -0.978225 -0.501811 0.0905195 -0.860228 -0.166818 0.0407405 -0.985146 
-0.0129495 0.000517638 -0.999916 0.107248 -0.0254934 -0.993905 0.136944 -0.0197736 -0.990381 
-0.13001 -0.0472152 -0.990388 0.0512864 0.115964 -0.991928 -0.0222871 -0.0492289 -0.998539 
-0.118601 -0.0189661 -0.992761 0.318807 0.0494086 -0.946531 0.0731372 -0.0728391 -0.994658 
0.0402205 -0.0865862 -0.995432 0.144367 -0.0892959 -0.985487 0.268239 -0.0795658 -0.960061 
-0.60549 0.206998 -0.768462 -0.259083 0.139939 -0.955664 -0.0754769 0.0590797 -0.995396 
0.0649971 -0.0198048 -0.997689 0.103504 -0.0657484 -0.992454 -0.0492935 -0.0835633 -0.995283 
-0.0626915 0.100956 -0.992914 -0.0282436 -0.139596 -0.989806 0.100194 0.207055 -0.973185 
0.183648 -0.0174455 -0.982837 0.0485117 -0.0946659 -0.994326 0.0741255 -0.0706544 -0.994743 
0.163992 0.0117996 -0.986391 0.301322 0.0672164 -0.95115 -0.353406 0.271751 -0.895129 
-0.167704 0.180083 -0.96925 -0.0161844 0.0788225 -0.996757 0.0731334 0.0357476 -0.996681 
0.0183466 0.018197 -0.999666 0.0123209 0.114042 -0.9934 0.0757837 0.0989546 -0.992202 
0.0365244 0.164807 -0.985649 0.0161865 0.000667043 -0.999869 0.0435939 0.00136956 -0.999048 
0.139696 0.0510959 -0.988875 0.274698 0.124334 -0.953458 -0.269366 0.422399 -0.86546 
-0.0858342 0.306891 -0.947866 0.0303738 0.247715 -0.968357 0.0197761 0.183971 -0.982733 
0.0181962 0.178527 -0.983767 0.0328361 0.129631 -0.991019 0.00259596 0.10186 -0.994795 
0.0139491 0.108099 -0.994042 0.104894 0.151762 -0.982836 0.191499 0.258049 -0.946963 
-0.200978 0.535987 -0.819955 -0.0575001 0.436025 -0.898096 -0.0535424 0.332662 -0.941525 
-0.0365983 0.245795 -0.968631 -0.00451561 0.18795 -0.982168 0.0128413 0.184289 -0.982788 
0.0685045 0.277867 -0.958174 0.193101 0.360733 -0.91246 -0.143237 0.369162 -0.918261 
-0.0327762 0.337982 -0.940582 0.10607 0.361744 -0.926224 -0.0919623 -0.715867 -0.692154 
0.0191954 -0.648547 -0.760933 0.0905464 -0.578892 -0.810362 -0.507199 -0.56949 -0.646862 
-0.193464 -0.730413 -0.655033 -0.255188 -0.721614 -0.643546 -0.291008 -0.795143 -0.532035 
0.10817 -0.500749 -0.858807 0.119986 -0.376848 -0.918471 0.116889 -0.499649 -0.858305 
0.0376593 -0.30904 -0.950303 0.0520147 -0.479907 -0.875776 0.0748719 -0.327081 -0.942026 
0.0957798 -0.491399 -0.865652 0.124204 -0.330449 -0.935616 0.197745 -0.578396 -0.791426 
0.270587 -0.67275 -0.688615 -0.554352 -0.53375 -0.638596 -0.692448 -0.375058 -0.616317 
0.140248 -0.318623 -0.937449 0.194757 -0.260238 -0.945699 0.218229 -0.326665 -0.919601 
0.287608 -0.420479 -0.860511 0.348498 -0.533145 -0.770912 -0.744449 -0.305182 -0.593852 
0.212978 -0.241878 -0.946644 0.209853 -0.225956 -0.951265 0.226617 -0.260008 -0.938638 
0.272547 -0.311828 -0.91021 0.373288 -0.427026 -0.823592 -0.665562 -0.13569 -0.733904 
0.155306 -0.207536 -0.96582 0.156549 -0.206417 -0.965859 0.157138 -0.231456 -0.960071 
0.320781 -0.258469 -0.911204 0.528695 -0.221411 -0.819426 -0.698556 -0.054436 -0.713482 
0.217767 -0.113089 -0.969427 0.267913 -0.0812699 -0.960009 0.27922 -0.101678 -0.954829 
0.510811 -0.143262 -0.847672 -0.688193 0.114318 -0.716465 -0.987948 0.121157 -0.0963324 
0.281005 -0.079205 -0.956432 0.54981 -0.061244 -0.833042 -0.673724 0.219356 -0.705676 
-0.680478 0.302631 -0.667357 0.332908 0.0820152 -0.939386 0.333444 0.108154 -0.936546 
0.5919 0.153567 -0.791247 -0.663411 0.353853 -0.659298 -0.75345 0.393842 -0.526499 
-0.484353 0.523022 -0.701321 0.364692 0.179939 -0.913576 0.33663 0.31413 -0.887695 
0.431978 0.228819 -0.872374 0.691473 0.411171 -0.593972 -0.463623 0.54163 -0.701207 
-0.530325 0.577646 -0.620548 -0.345347 0.572277 -0.743798 0.336332 0.314969 -0.887511 
0.264999 0.396524 -0.878945 0.337193 0.315498 -0.886996 0.593587 0.539958 -0.596741 
-0.278183 0.582021 -0.764111 -0.438233 0.710657 -0.550379 -0.226561 0.583326 -0.780001 
-0.108418 0.50053 -0.858903 -0.149796 0.407943 -0.900635 0.187738 0.432295 -0.881973 
0.254304 0.414268 -0.873906 0.222595 0.447734 -0.866017 0.298718 0.457887 -0.837321 
0.53274 0.672818 -0.513327 -0.405842 0.819634 -0.404341 -0.270794 0.670959 -0.690279 
-0.157543 0.387701 -0.908223 -0.205536 0.472952 -0.85678 -0.147029 0.396698 -0.906098 
-0.0295756 0.444675 -0.895204 0.173978 0.425674 -0.887994 0.118555 0.438261 -0.890995 
0.218037 0.484893 -0.846958 0.328252 0.67889 -0.656779 -0.278511 0.839424 -0.46669 
-0.137431 0.78017 -0.610285 -0.0298315 0.777012 -0.628779 0.152223 0.807132 -0.570408 
-0.417224 -0.908208 0.0329147 -0.19392 -0.981003 -0.00539583 -0.0251333 -0.998451 -0.0496399 
-0.003808 -0.985372 -0.170374 -0.0536166 -0.97266 -0.225961 -0.0380384 -0.943502 -0.329176 
0.0990994 -0.905609 -0.412373 0.245189 -0.816734 -0.522329 0.285698 -0.747538 -0.599636 
-0.539615 -0.837827 0.0828331 -0.607937 -0.788686 0.0915863 -0.442187 -0.723287 0.530402 
0.306318 -0.694801 -0.650708 0.311867 -0.6792 -0.664399 0.316391 -0.715347 -0.623038 
0.381021 -0.587817 -0.713649 0.449209 -0.870638 -0.200502 -0.75316 -0.650392 0.0986938 
-0.791134 -0.600505 0.116195 0.383253 -0.562283 -0.732772 0.438428 -0.495124 -0.750089 
0.49481 -0.644298 -0.583133 -0.889202 -0.450439 0.0801513 -0.629192 -0.464111 0.623473 
0.540964 -0.492561 -0.681719 0.604085 -0.439571 -0.664724 0.672219 -0.586836 -0.45138 
-0.964449 -0.26191 0.0352216 0.641292 -0.302019 -0.705357 -0.995313 -0.0965826 0.00479793 
-0.999041 -0.0434861 -0.00504499 0.74241 -0.141704 -0.654788 0.9316 -0.153805 -0.329342 
-0.99238 0.11754 -0.0369644 -0.988674 0.144857 -0.0392523 -0.993017 0.113504 0.0321637 
0.754962 0.000696805 -0.655768 0.955874 0.0869735 -0.280607 -0.93937 0.332293 -0.0846435 
0.795864 0.219087 -0.564448 -0.877382 0.474706 -0.0696804 -0.82635 0.557083 -0.082494 
0.765552 0.423677 -0.484178 0.732678 0.477732 -0.484721 -0.75744 0.639701 -0.130639 
-0.667505 0.727496 -0.158705 0.669327 0.614526 -0.417563 0.64077 0.653853 -0.402356 
-0.610452 0.767031 -0.197515 -0.529294 0.806236 -0.264256 0.491685 0.800674 -0.342296 
0.590471 0.723535 -0.357548 0.568666 0.745232 -0.348207 -0.441763 0.829194 -0.342465 
-0.427427 0.830255 -0.357747 -0.386723 0.790761 -0.474491 0.332205 0.876515 -0.34837 
0.491681 0.800676 -0.342298 0.413013 0.819684 -0.396911 0.491706 0.800702 -0.342202 
-0.290691 0.847195 -0.444701 -0.279143 0.850903 -0.445019 -0.136536 0.857302 -0.496378 
-0.0134779 0.891889 -0.452054 0.318101 0.882177 -0.347241 0.164952 0.911558 -0.376634 
0.343305 0.924406 -0.166177 -0.193061 -0.772272 0.605247 -0.0972277 -0.779714 0.618541 
-0.107079 -0.841378 0.529733 -0.153606 -0.882473 0.444575 -0.17624 -0.928338 0.327306 
-0.024247 -0.981399 0.19044 0.138238 -0.986045 0.0927635 0.237585 -0.97127 -0.013722 
0.320478 -0.945583 -0.0562646 0.44188 -0.879629 -0.176057 -0.500274 -0.530492 0.684328 
-0.366664 -0.672624 0.642756 -0.411616 -0.633069 0.655588 -0.203253 -0.639211 0.741685 
-0.0814607 -0.672663 0.735452 -0.0900636 -0.623141 0.776906 -0.186889 -0.592597 0.783518 
-0.241141 -0.523371 0.817272 0.447519 -0.875305 -0.183214 0.425863 -0.904437 -0.0252111 
0.550522 -0.813732 -0.186454 -0.52611 -0.50224 0.686268 -0.484801 -0.479155 0.731696 
-0.329067 -0.471261 0.818308 -0.158482 -0.358885 0.919829 -0.0971058 -0.306751 0.946823 
-0.06196 -0.319464 0.945571 0.665894 -0.719468 -0.19736 0.720321 -0.655809 -0.225949 
-0.614971 -0.457223 0.642462 -0.621509 -0.451771 0.640024 -0.440407 -0.352682 0.825625 
-0.239407 -0.256549 0.936411 0.798314 -0.562095 -0.216203 -0.749573 -0.266474 0.605914 
-0.564676 -0.257419 0.78414 -0.349788 -0.22123 0.910333 0.939575 -0.32101 -0.118958 
0.951451 -0.281141 -0.125302 -0.797329 -0.118445 0.591809 -0.593723 -0.163517 0.78788 
0.985817 -0.110461 -0.126343 -0.840906 0.0357383 0.539999 -0.609896 -0.0209557 0.792205 
0.991829 0.126388 -0.0173416 0.956978 0.284369 0.0576792 0.935063 0.184735 0.30254 
-0.862076 0.241798 0.445374 -0.675044 0.201068 0.709851 0.938912 0.333987 0.0830501 
-0.809525 0.434927 0.394345 -0.796458 0.46013 0.392345 -0.775713 0.426599 0.465063 
0.844667 0.528528 0.0848267 0.765297 0.633605 0.113424 0.60034 0.431169 0.673562 
-0.747129 0.568983 0.343593 -0.697992 0.638189 0.324841 -0.632645 0.489036 0.600503 
0.720908 0.677961 0.143741 0.637784 0.75435 0.155522 0.546898 0.574788 0.608705 
-0.664245 0.694716 0.275949 -0.62273 0.745097 0.238827 -0.556244 0.595228 0.57991 
0.605665 0.778053 0.166742 0.583133 0.793481 0.174195 0.522232 0.688287 0.503522 
-0.569993 0.804808 0.165505 -0.551205 0.821732 0.14467 -0.527529 0.768364 0.362395 
-0.459819 0.879758 0.120798 0.425457 0.886666 0.181134 0.296433 0.630732 0.71715 
0.541966 0.8261 0.154374 0.530285 0.833371 0.155855 0.514222 0.812754 0.273875 
-0.407427 0.906765 0.108536 -0.33704 0.934882 0.111359 -0.282277 0.857308 0.430514 
-0.146505 0.976373 0.158843 -0.0486536 0.757134 0.651446 0.0735537 0.979226 0.188961 
0.0792146 0.740326 0.667564 0.236094 0.941036 0.242304 0.182525 0.826368 0.532729 
0.344563 0.920985 0.181833 0.329333 0.926072 0.184203 0.319708 0.915999 0.242349 
-0.150193 -0.545254 0.824706 -0.00474946 -0.633265 0.773921 0.0936095 -0.689191 0.718507 
0.155801 -0.790236 0.592666 -0.168773 -0.308989 0.935971 -0.203448 -0.479451 0.85366 
-0.230087 -0.423942 0.875976 -0.152084 -0.465324 0.871977 -0.0194121 -0.502534 0.864339 
0.0466797 -0.589913 0.806117 0.219784 -0.804561 0.551704 0.135555 -0.743376 0.654993 
0.290627 -0.798388 0.527364 0.502531 -0.683891 0.528919 -0.144241 -0.257849 0.955358 
-0.0770521 -0.240431 0.967603 -0.124726 -0.299037 0.946055 -0.0590146 -0.280563 0.958019 
-0.167388 -0.287421 0.943064 -0.206241 -0.242767 0.947908 -0.134114 -0.236734 0.962274 
-0.070776 -0.213964 0.974274 -0.0252717 -0.271627 0.962071 0.0682154 -0.284774 0.956164 
0.177946 -0.431495 0.884391 0.535774 -0.662741 0.523183 0.473834 -0.626874 0.618474 
0.675512 -0.520807 0.521961 -0.178026 -0.228082 0.957228 -0.20394 -0.231642 0.951183 
-0.143332 -0.214646 0.966118 -0.0475427 -0.152032 0.987231 -0.0530857 -0.192512 0.979858 
-0.109461 -0.185434 0.976541 -0.192223 -0.114178 0.974686 -0.122277 -0.0417419 0.991618 
-0.0753657 0.015382 0.997037 -0.0596791 -0.0317723 0.997712 -0.0402762 -0.0998372 0.994188 
0.126089 -0.223377 0.966542 0.277061 -0.233326 0.932092 0.785382 -0.391625 0.479379 
0.584961 -0.378199 0.717486 -0.255453 -0.216013 0.942381 -0.313938 -0.212052 0.92546 
-0.180125 -0.218579 0.959051 -0.0527661 -0.120279 0.991337 -0.0662923 -0.0814497 0.99447 
-0.103053 -0.117559 0.987704 -0.0938264 -0.269928 0.958298 -0.0611696 -0.0629996 0.996137 
-0.00466161 -0.0549524 0.998478 -0.0585393 0.132716 0.989424 -0.148478 0.0723226 0.986268 
-0.10481 -0.0238032 0.994207 0.0315734 0.00584662 0.999484 0.201502 -0.131469 0.970625 
0.706128 -0.240237 0.666085 0.555041 -0.215819 0.803338 0.790131 -0.0651929 0.609461 
-0.339221 -0.214487 0.915928 -0.303331 -0.215736 0.928143 -0.126265 -0.163443 0.978439 
-0.00118741 -0.162511 0.986706 -0.0411342 -0.11897 0.992045 -0.252221 -0.0118004 0.967598 
-0.041874 -0.14214 0.98896 0.0259354 0.0694587 0.997248 0.0955217 -0.234752 0.967351 
0.0273631 0.0424978 0.998722 -0.20823 0.0259312 0.977736 -0.115515 0.0335793 0.992738 
0.00842177 0.0314912 0.999469 0.0468113 0.00722644 0.998878 0.372199 -0.0173482 0.927991 
0.790799 -0.0622868 0.608898 0.790006 -0.0566295 0.610479 0.789235 -0.0622573 0.610927 
-0.483415 -0.0422748 0.87437 -0.314757 -0.0900936 0.944887 -0.123241 -0.144576 0.981789 
-0.00531227 -0.167774 0.985811 0.0881347 -0.16972 0.981543 -0.10212 -0.026216 0.994427 
-0.0410874 0.0774427 0.99615 -0.112138 -0.0983257 0.988816 0.00899026 0.239089 0.970956 
0.142081 -0.0681315 0.987507 -0.160621 -0.0432887 0.986066 -0.095136 0.0176431 0.995308 
0.0106771 0.0356668 0.999307 0.134863 0.0978905 0.986017 0.692545 0.212371 0.689405 
0.46715 0.213154 0.8581 -0.50707 0.145592 0.849519 -0.414048 0.100107 0.904734 
-0.200804 0.00177441 0.97963 -0.0235987 -0.0514437 0.998397 0.0915321 -0.0884025 0.99187 
0.0270196 -0.0932566 0.995275 -0.131924 0.12426 0.983441 0.106063 -0.104549 0.988848 
0.0889701 0.135778 0.986736 -0.135116 -0.105603 0.985186 -0.129073 -0.0454598 0.990592 
-0.037064 0.0210558 0.999091 0.0844464 0.0840409 0.992878 0.243363 0.117458 0.962797 
0.633867 0.271904 0.724072 0.57881 0.394232 0.713835 0.503094 0.249478 0.82744 
-0.512599 0.238652 0.824796 -0.515794 0.253121 0.818466 -0.506754 0.233242 0.829939 
-0.269872 0.171181 0.947558 -0.0941276 0.0617294 0.993645 0.0514028 0.0100317 0.998628 
0.0892098 -0.0505206 0.994731 -0.0453445 0.0066156 0.99895 -0.0640846 0.0462171 0.996874 
-0.0193979 -0.138623 0.990155 -0.0516473 -0.0948027 0.994155 -0.0291256 0.00221753 0.999573 
0.0390205 0.0820063 0.995868 0.106226 0.22416 0.968746 0.567133 0.417288 0.710092 
0.46212 0.492895 0.737224 0.331244 0.329202 0.884253 -0.465787 0.359101 0.808758 
-0.455648 0.438462 0.774685 -0.371407 0.295556 0.880172 -0.183754 0.206698 0.960994 
-0.0176143 0.106685 0.994137 0.0208292 0.00455062 0.999773 -0.0242356 -0.023089 0.99944 
-0.0730526 0.0237909 0.997044 -0.0448774 -0.00283383 0.998989 0.00484658 0.0366529 0.999316 
0.0492608 0.0976942 0.993997 0.17502 0.229666 0.957404 0.456472 0.48911 0.743239 
0.41979 0.529634 0.737065 0.322297 0.373311 0.869921 -0.414996 0.46978 0.779157 
-0.361535 0.505896 0.783174 -0.2774 0.371368 0.886079 -0.167593 0.242685 0.955519 
-0.0426384 0.139403 0.989317 -0.0208348 0.119485 0.992617 -0.0423062 0.135731 0.989842 
-0.00502709 0.197539 0.980282 0.0515533 0.237183 0.970096 0.269601 0.577857 0.770322 
0.167811 0.340918 0.924994 0.404864 0.535367 0.74126 0.371611 0.557527 0.74234 
0.325992 0.445255 0.833953 -0.327098 0.545709 0.771497 -0.320311 0.54399 0.775549 
-0.311173 0.532088 0.787435 -0.173691 0.608307 0.774464 -0.103461 0.361084 0.926776 
-0.0011052 0.536797 0.843711 -0.0171473 0.323967 0.945913 0.0462469 0.542685 0.838662 
0.00658836 0.347469 0.937668 0.0769384 0.571739 0.81682 0.0542299 0.425795 0.903193 
0.257358 0.580267 0.772695 0.186295 0.600137 0.777901 0.161018 0.474402 0.865457 

