# vtk DataFile Version 4.2
vtk output
ASCII
DATASET POLYDATA
POINTS 536 float
-24.0526 -27.9156 -15.6594 -16.6092 -27.9156 -16.1344 -9.16591 -27.9156 -16.8591 
-1.72258 -27.9156 -16.8769 5.72076 -27.9156 -16.5699 13.1641 -27.9156 -16.0912 
20.6074 -27.9156 -15.123 -38.9393 -20.4722 -14.858 -31.4959 -20.4722 -16.8457 
-24.0526 -20.4722 -17.7882 -16.6092 -20.4722 -17.8497 -9.16591 -20.4722 -17.6266 
-1.72258 -20.4722 -17.8189 5.72076 -20.4722 -17.7049 13.1641 -20.4722 -17.1132 
20.6074 -20.4722 -16.8076 28.0508 -20.4722 -16.1426 35.4941 -20.4722 -14.9576 
-46.3826 -13.0289 -15.2304 -38.9393 -13.0289 -17.1895 -31.4959 -13.0289 -18.4018 
-24.0526 -13.0289 -18.5735 -16.6092 -13.0289 -18.061 -9.16591 -13.0289 -17.7757 
-1.72258 -13.0289 -18.0419 5.72076 -13.0289 -17.9919 13.1641 -13.0289 -17.3761 
20.6074 -13.0289 -17.0906 28.0508 -13.0289 -17.2206 35.4941 -13.0289 -16.6973 
-46.3826 -5.58555 -16.0854 -38.9393 -5.58555 -17.8643 -31.4959 -5.58555 -18.4348 
-24.0526 -5.58555 -18.1518 -16.6092 -5.58555 -17.7225 -9.16591 -5.58555 -18.1642 
-1.72258 -5.58555 -18.8646 5.72076 -5.58555 -20.8865 13.1641 -5.58555 -18.8432 
20.6074 -5.58555 -17.1099 28.0508 -5.58555 -16.9654 35.4941 -5.58555 -16.6081 
42.9374 -5.58555 -15.6089 -46.3826 1.85779 -16.9569 -38.9393 1.85779 -18.1862 
-31.4959 1.85779 -18.2865 -24.0526 1.85779 -17.5794 -16.6092 1.85779 -17.0684 
-9.16591 1.85779 -19.8471 -1.72258 1.85779 -20.0738 5.72076 1.85779 -21.6707 
13.1641 1.85779 -20.5931 20.6074 1.85779 -16.8702 28.0508 1.85779 -16.6164 
35.4941 1.85779 -16.3723 42.9374 1.85779 -15.4077 -46.3826 9.30112 -16.4559 
-38.9393 9.30112 -17.6106 -31.4959 9.30112 -18.087 -24.0526 9.30112 -17.3636 
-16.6092 9.30112 -16.5707 -9.16591 9.30112 -19.1219 -1.72258 9.30112 -17.5533 
5.72076 9.30112 -18.1926 13.1641 9.30112 -18.936 20.6074 9.30112 -16.2799 
28.0508 9.30112 -16.1285 35.4941 9.30112 -15.589 -46.3826 16.7445 -15.4327 
-38.9393 16.7445 -16.183 -31.4959 16.7445 -16.1284 -24.0526 16.7445 -16.0481 
-16.6092 16.7445 -15.5048 -9.16591 16.7445 -15.7019 -1.72258 16.7445 -15.5716 
5.72076 16.7445 -17.4059 13.1641 16.7445 -16.9045 -24.0526 -29.5642 -14.7942 
-24.0526 -35.3589 -9.47948 -16.6092 -30.5755 -14.7942 -16.6092 -35.3589 -11.712 
-9.16591 -32.8419 -14.7942 -9.16591 -35.3589 -13.3788 -1.72258 -33.5208 -14.7942 
-1.72258 -35.3589 -13.934 5.72076 -32.316 -14.7942 5.72076 -35.3589 -13.2003 
13.1641 -30.6948 -14.7942 13.1641 -35.3589 -11.8188 20.6074 -28.559 -14.7942 
20.6074 -35.3589 -10.2989 -38.9393 -20.6032 -14.7942 -38.9393 -27.9156 -9.25188 
-27.5661 -27.9156 -14.7942 -31.4959 -25.4894 -14.7942 -31.4959 -27.9156 -13.5088 
22.5426 -27.9156 -14.7942 28.0508 -24.9349 -14.7942 28.0508 -27.9156 -13.7438 
35.4941 -20.8902 -14.7942 35.4941 -27.9156 -11.5169 -39.0863 -20.4722 -14.7942 
-46.3826 -14.0885 -14.7942 -46.3826 -20.4722 -10.4968 36.0336 -20.4722 -14.7942 
42.9374 -20.4722 -12.2744 -47.0888 -13.0289 -14.7942 -53.8259 -13.0289 -7.98062 
41.8935 -13.0289 -14.7942 42.9374 -10.7646 -14.7942 42.9374 -13.0289 -14.4487 
50.3808 -13.0289 -11.0864 -49.0905 -5.58555 -14.7942 -53.8259 -5.58555 -11.9963 
45.9977 -5.58555 -14.7942 50.3808 -5.58555 -13.6472 -51.9941 1.85779 -14.7942 
-53.8259 1.85779 -14.0205 45.2923 1.85779 -14.7942 42.9374 8.51779 -14.7942 
50.3808 1.85779 -13.2585 57.8241 1.85779 -8.35687 -50.7704 9.30112 -14.7942 
-53.8259 9.30112 -13.5349 20.6074 16.592 -14.7942 28.0508 14.7248 -14.7942 
42.3297 9.30112 -14.7942 35.4941 14.1126 -14.7942 42.9374 9.30112 -14.7224 
50.3808 9.30112 -12.4705 57.8241 9.30112 -7.89857 -47.673 16.7445 -14.7942 
-53.8259 16.7445 -10.5671 -46.3826 17.921 -14.7942 -38.9393 20.8441 -14.7942 
-31.4959 20.2235 -14.7942 -24.0526 20.7603 -14.7942 -16.6092 18.8447 -14.7942 
-9.16591 19.0108 -14.7942 -1.72258 19.4656 -14.7942 5.72076 22.6826 -14.7942 
20.4899 16.7445 -14.7942 13.1641 20.0505 -14.7942 20.6074 16.7445 -14.7613 
28.0508 16.7445 -14.2899 35.4941 16.7445 -14.3431 42.9374 16.7445 -13.8059 
50.3808 16.7445 -11.5087 -46.3826 24.1878 -10.2184 -38.9393 24.1878 -13.4539 
-31.4959 24.1878 -13.1636 -24.0526 24.1878 -13.5349 -16.6092 24.1878 -12.764 
-9.16591 24.1878 -12.6891 -1.72258 24.1878 -13.3112 5.72076 24.1878 -13.9009 
13.1641 24.1878 -11.3657 20.6074 24.1878 -11.1212 28.0508 24.1878 -11.4736 
35.4941 24.1878 -11.7085 42.9374 24.1878 -11.19 50.3808 24.1878 -7.97082 
-31.4959 31.6311 -8.13289 -24.0526 31.6311 -8.40518 -16.6092 31.6311 -7.92327 
-9.16591 31.6311 -7.88834 -1.72258 31.6311 -7.45404 -24.0526 -36.6414 -7.35089 
-16.6092 -39.071 -7.35089 -9.16591 -40.8463 -7.35089 -1.72258 -41.2364 -7.35089 
-1.72258 -42.8022 -0.714528 5.72076 -40.3738 -7.35089 13.1641 -39.1247 -7.35089 
20.6074 -37.7832 -7.35089 -38.9393 -29.1766 -7.35089 -26.8953 -35.3589 -7.35089 
-31.4959 -33.1383 -7.35089 27.9786 -35.3589 -7.35089 28.0508 -35.3299 -7.35089 
28.0508 -35.3589 -7.23166 35.4941 -31.519 -7.35089 -40.7405 -27.9156 -7.35089 
-46.3826 -23.2795 -7.35089 41.0387 -27.9156 -7.35089 42.9374 -26.2306 -7.35089 
42.9374 -27.9156 -1.9537 -49.0075 -20.4722 -7.35089 -53.8259 -13.7599 -7.35089 
49.4266 -20.4722 -7.35089 50.3808 -19.4272 -7.35089 50.3808 -20.4722 -5.13148 
-54.3457 -13.0289 -7.35089 54.598 -13.0289 -7.35089 -57.7648 -5.58555 -7.35089 
57.5723 -5.58555 -7.35089 57.8241 -3.5102 -7.35089 57.8241 -5.58555 -6.84163 
-60.0214 1.85779 -7.35089 58.5442 1.85779 -7.35089 -59.6107 9.30112 -7.35089 
-61.2693 9.30112 -0.839807 58.2862 9.30112 -7.35089 57.8241 10.9279 -7.35089 
-57.5481 16.7445 -7.35089 -53.8259 22.9248 -7.35089 56.1226 16.7445 -7.35089 
57.8241 16.7445 -4.89643 -52.4731 24.1878 -7.35089 -53.8259 24.1878 -3.87631 
-46.3826 27.3084 -7.35089 -38.9393 30.1164 -7.35089 5.72076 29.8549 -7.35089 
13.1641 27.6502 -7.35089 20.6074 28.3549 -7.35089 28.0508 30.0645 -7.35089 
35.4941 30.1318 -7.35089 42.9374 29.0474 -7.35089 51.5261 24.1878 -7.35089 
50.3808 25.2205 -7.35089 57.8241 24.1878 -0.192498 -34.096 31.6311 -7.35089 
-38.9393 31.6311 -4.69273 -31.4959 32.3828 -7.35089 -24.0526 32.6846 -7.35089 
-16.6092 32.2189 -7.35089 -9.16591 32.215 -7.35089 -1.35864 31.6311 -7.35089 
-1.72258 31.7256 -7.35089 5.72076 31.6311 -3.92591 13.1641 31.6311 -1.27879 
20.6074 31.6311 -2.74501 28.0508 31.6311 -5.86772 35.4941 31.6311 -5.82862 
42.9374 31.6311 -4.39987 50.3808 31.6311 -1.99965 -1.72258 -42.9651 0.092447 
-24.0526 -37.2446 0.092447 -16.6092 -40.6699 0.092447 -4.21906 -42.8022 0.092447 
-9.16591 -42.4733 0.092447 0.352455 -42.8022 0.092447 -1.72258 -42.8022 0.828005 
5.72076 -42.379 0.092447 13.1641 -41.4102 0.092447 20.6074 -39.6892 0.092447 
28.0508 -36.73 0.092447 -38.9393 -29.4584 0.092447 -28.1418 -35.3589 0.092447 
-31.4959 -33.7657 0.092447 -24.0526 -35.3589 5.05067 30.8507 -35.3589 0.092447 
28.0508 -35.3589 3.44344 35.4941 -32.9654 0.092447 42.9374 -28.4035 0.092447 
-41.2944 -27.9156 0.092447 -46.3826 -23.8593 0.092447 -38.9393 -27.9156 2.9208 
43.6474 -27.9156 0.092447 42.9374 -27.9156 0.921581 50.3808 -22.3146 0.092447 
-49.7829 -20.4722 0.092447 -53.8259 -15.0849 0.092447 -46.3826 -20.4722 5.07491 
52.1173 -20.4722 0.092447 50.3808 -20.4722 2.59013 -55.1581 -13.0289 0.092447 
-53.8259 -13.0289 2.44609 57.3639 -13.0289 0.092447 57.8241 -12.1218 0.092447 
-58.9076 -5.58555 0.092447 61.016 -5.58555 0.092447 57.8241 -5.58555 4.88615 
-61.2335 1.85779 0.092447 -61.2693 2.87382 0.092447 61.542 1.85779 0.092447 
57.8241 1.85779 6.07489 -61.485 9.30112 0.092447 -61.2693 10.2189 0.092447 
-61.2693 9.30112 0.67143 62.1927 9.30112 0.092447 57.8241 9.30112 6.90588 
-59.3895 16.7445 0.092447 60.6556 16.7445 0.092447 57.8241 16.7445 4.57768 
-54.5952 24.1878 0.092447 -53.8259 24.9581 0.092447 -53.8259 24.1878 1.78889 
-46.3826 31.4711 0.092447 57.9241 24.1878 0.092447 57.8241 24.3663 0.092447 
57.8241 24.1878 0.453167 -45.9767 31.6311 0.092447 -38.9393 33.9789 0.092447 
-31.4959 35.9625 0.092447 -24.0526 37.3168 0.092447 -16.6092 38.3416 0.092447 
-9.16591 38.1694 0.092447 -1.72258 36.5364 0.092447 5.72076 33.5032 0.092447 
13.1641 32.3504 0.092447 20.6074 33.4061 0.092447 28.0508 35.5674 0.092447 
35.4941 35.8723 0.092447 42.9374 36.3883 0.092447 51.9747 31.6311 0.092447 
50.3808 32.7374 0.092447 50.3808 31.6311 3.19719 -16.6092 -38.2214 7.53578 
-9.16591 -40.5003 7.53578 -1.72258 -41.1061 7.53578 5.72076 -40.6999 7.53578 
13.1641 -39.7462 7.53578 20.6074 -37.5481 7.53578 -31.4959 -30.0601 7.53578 
-22.1938 -35.3589 7.53578 -24.0526 -34.2577 7.53578 -16.6092 -35.3589 11.6008 
-9.16591 -35.3589 14.1427 -1.72258 -35.3589 14.597 5.72076 -35.3589 14.3577 
13.1641 -35.3589 13.2228 24.6491 -35.3589 7.53578 20.6074 -35.3589 10.1609 
28.0508 -32.9034 7.53578 35.4941 -28.6252 7.53578 -34.8522 -27.9156 7.53578 
-38.9393 -25.0389 7.53578 -31.4959 -27.9156 9.92239 -24.0526 -27.9156 14.4367 
20.6074 -27.9156 14.9267 28.0508 -27.9156 11.3388 36.5209 -27.9156 7.53578 
35.4941 -27.9156 8.15686 42.9374 -23.4203 7.53578 -44.4775 -20.4722 7.53578 
-46.3826 -18.4293 7.53578 -38.9393 -20.4722 11.6115 28.0508 -20.4722 14.0221 
35.4941 -20.4722 12.6073 46.3505 -20.4722 7.53578 42.9374 -20.4722 9.83982 
50.3808 -15.8315 7.53578 -50.6321 -13.0289 7.53578 -53.8259 -6.93652 7.53578 
-46.3826 -13.0289 11.0564 -38.9393 -13.0289 14.7584 35.4941 -13.0289 14.3786 
42.9374 -13.0289 12.7694 53.1603 -13.0289 7.53578 50.3808 -13.0289 9.24264 
-54.5364 -5.58555 7.53578 -53.8259 -5.58555 8.15356 -46.3826 -5.58555 13.9179 
42.9374 -5.58555 14.0531 55.7696 -5.58555 7.53578 50.3808 -5.58555 11.9241 
-57.651 1.85779 7.53578 -53.8259 1.85779 10.4294 -46.3826 1.85779 14.4347 
42.9374 1.85779 14.0835 56.5369 1.85779 7.53578 50.3808 1.85779 11.7341 
-57.502 9.30112 7.53578 -53.8259 9.30112 10.4566 20.6074 9.30112 14.6726 
42.9374 9.30112 13.9414 57.1512 9.30112 7.53578 50.3808 9.30112 11.4989 
-55.1549 16.7445 7.53578 -53.8259 18.9529 7.53578 -53.8259 16.7445 8.55017 
-46.3826 16.7445 14.2152 13.1641 16.7445 14.7439 20.6074 16.7445 14.6079 
56.0542 16.7445 7.53578 50.3808 16.7445 12.3951 -50.6082 24.1878 7.53578 
[...]
POINT_DATA 536
SCALARS ImageScalars float
LOOKUP_TABLE default
0 0 0 0 0 0 0 0 0 
0 0 0 0 0 0 0 0 0 
0 0 0 0 0 0 0 0 0 
0 0 0 0 0 0 0 0 0 
0 0 0 0 0 0 0 0 0 
0 0 0 0 0 0 0 0 0 
0 0 0 0 0 0 0 0 0 
0 0 0 0 0 0 0 0 0 
0 0 0 0 0 0 0 0 0 
0 0 0 0 0 0 0 0 0 
0 0 0 0 0 0 0 0 0 
0 0 0 0 0 0 0 0 0 
0 0 0 0 0 0 0 0 0 
0 0 0 0 0 0 0 0 0 
0 0 0 0 0 0 0 0 0 
0 0 0 0 0 0 0 0 0 
0 0 0 0 0 0 0 0 0 
0 0 0 0 0 0 0 0 0 
0 0 0 0 0 0 0 0 0 
0 0 0 0 0 0 0 0 0 
0 0 0 0 0 0 0 0 0 
0 0 0 0 0 0 0 0 0 
0 0 0 0 0 0 0 0 0 
0 0 0 0 0 0 0 0 0 
0 0 0 0 0 0 0 0 0 
0 0 0 0 0 0 0 0 0 
0 0 0 0 0 0 0 0 0 
0 0 0 0 0 0 0 0 0 
0 0 0 0 0 0 0 0 0 
0 0 0 0 0 0 0 0 0 
0 0 0 0 0 0 0 0 0 
0 0 0 0 0 0 0 0 0 
0 0 0 0 0 0 0 0 0 
0 0 0 0 0 0 0 0 0 
0 0 0 0 0 0 0 0 0 
0 0 0 0 0 0 0 0 0 
0 0 0 0 0 0 0 0 0 
0 0 0 0 0 0 0 0 0 
0 0 0 0 0 0 0 0 0 
0 0 0 0 0 0 0 0 0 
0 0 0 0 0 0 0 0 0 
0 0 0 0 0 0 0 0 0 
0 0 0 0 0 0 0 0 0 
0 0 0 0 0 0 0 0 0 
0 0 0 0 0 0 0 0 0 
0 0 0 0 0 0 0 0 0 
0 0 0 0 0 0 0 0 0 
0 0 0 0 0 0 0 0 0 
0 0 0 0 0 0 0 0 0 
0 0 0 0 0 0 0 0 0 
0 0 0 0 0 0 0 0 0 
0 0 0 0 0 0 0 0 0 
0 0 0 0 0 0 0 0 0 
0 0 0 0 0 0 0 0 0 
0 0 0 0 0 0 0 0 0 
0 0 0 0 0 0 0 0 0 
0 0 0 0 0 0 0 0 0 
0 0 0 0 0 0 0 0 0 
0 0 0 0 0 0 0 0 0 
0 0 0 0 0 
NORMALS Normals float
0.13988 0.401884 0.904944 0.0818308 0.335089 0.938626 0.0454363 0.248512 0.967563 
-0.0187126 0.237003 0.971329 -0.0519306 0.262661 0.96349 -0.0901144 0.285646 0.954089 
-0.142842 0.350907 0.925452 0.322583 0.381954 0.866055 0.176286 0.273908 0.945462 
0.0631868 0.188478 0.980043 -0.0107964 0.121238 0.992565 -0.00168497 0.0628239 0.998023 
0.00520782 0.0749366 0.997175 -0.0471039 0.0920019 0.994644 -0.0588343 0.0843602 0.994697 
-0.0624679 0.121893 0.990575 -0.112173 0.206987 0.971892 -0.215208 0.306983 0.927064 
0.442638 0.257678 0.85888 0.20765 0.172309 0.962907 0.0974768 0.103961 0.989793 
-0.0223829 0.0269758 0.999385 -0.0540886 -0.00907202 0.998495 -0.000734789 0.0358018 0.999359 
0.0145873 0.0680926 0.997572 -0.0447585 0.186695 0.981398 -0.0603876 0.104191 0.992722 
-0.00979932 0.0200614 0.999751 -0.0289351 0.0510563 0.998277 -0.17593 0.0925755 0.98004 
0.323417 0.112971 0.939489 0.147195 0.068596 0.986726 0.0186573 -0.00779052 0.999796 
-0.0477037 -0.0662403 0.996663 0.000594786 -0.0657923 0.997833 0.0753193 0.12876 0.988811 
0.167156 0.139922 0.975951 0.012074 0.257552 0.966189 -0.25285 0.207226 0.945052 
-0.111147 -0.014643 0.993696 -0.0334846 -0.041547 0.998575 -0.088095 -0.0223494 0.995861 
-0.191081 0.0635682 0.979514 0.244642 0.0230377 0.96934 0.0834149 -0.0168926 0.996372 
-0.0407505 -0.0231937 0.9989 -0.0814949 -0.0526998 0.995279 0.134874 -0.077282 0.987844 
0.214129 0.0755124 0.973882 0.109288 -0.0593027 0.99224 0.053833 -0.166855 0.984511 
-0.340513 2.35713e-05 0.94024 -0.21706 -0.0549234 0.974612 -0.0331446 -0.0574217 0.9978 
-0.0791617 -0.0678014 0.994553 -0.187424 -0.0583951 0.980542 0.232777 -0.104699 0.966878 
0.101847 -0.120069 0.987528 -0.0167539 -0.139715 0.99005 -0.100448 -0.105075 0.989378 
0.0922473 -0.105199 0.990163 0.0903664 -0.277089 0.956586 -0.0572378 -0.325138 0.943933 
0.0871128 -0.273192 0.958007 -0.137213 -0.220072 0.965785 -0.174327 -0.135979 0.975254 
-0.0447352 -0.146776 0.988158 -0.0919393 -0.128761 0.987405 0.28598 -0.328125 0.900305 
0.0538979 -0.276415 0.959526 -0.00869833 -0.299338 0.954107 -0.040863 -0.240577 0.969769 
-0.0250062 -0.23412 0.971886 0.0046806 -0.377583 0.925964 0.107167 -0.238117 0.965306 
0.090379 -0.238954 0.966816 -0.173619 -0.400496 0.8997 0.16432 0.472438 0.865911 
0.3207 0.834976 0.447177 0.103925 0.436691 0.893589 0.185417 0.696517 0.69317 
0.0877289 0.443801 0.891821 0.112364 0.580432 0.806519 -0.0121636 0.447056 0.894423 
-0.00840095 0.543086 0.839635 -0.0813645 0.433274 0.897582 -0.10988 0.596769 0.794854 
-0.111175 0.403921 0.908013 -0.148285 0.675759 0.722053 -0.149453 0.375629 0.91464 
-0.214214 0.737631 0.640323 0.32443 0.386225 0.863467 0.519475 0.74879 0.411654 
0.203701 0.466229 0.860893 0.248831 0.449899 0.857715 0.300535 0.579279 0.757704 
-0.158641 0.373949 0.913781 -0.16452 0.347232 0.923235 -0.210378 0.468634 0.857976 
-0.221415 0.319383 0.921396 -0.383562 0.606337 0.696588 0.325153 0.384979 0.863751 
0.451807 0.293192 0.842561 0.602786 0.586558 0.540924 -0.228794 0.3129 0.921817 
-0.452512 0.437365 0.777138 0.47104 0.263643 0.841792 0.769397 0.492902 0.406295 
-0.318105 0.159078 0.934614 -0.299339 0.137681 0.944161 -0.342391 0.173554 0.923389 
-0.533827 0.387934 0.751356 0.413905 0.159023 0.896323 0.657059 0.308869 0.687658 
-0.264655 0.0923537 0.959911 -0.394141 0.132918 0.909387 0.420149 0.0610022 0.905402 
0.502583 0.0809471 0.860731 -0.229296 -0.0606089 0.971468 -0.188739 -0.0944116 0.977478 
-0.365075 -0.0807981 0.927465 -0.793914 0.0384417 0.606814 0.370245 -0.146387 0.917327 
0.515317 -0.199451 0.833467 -0.161907 -0.303358 0.939021 -0.0311616 -0.244026 0.969268 
-0.180367 -0.101431 0.978355 -0.0501686 -0.194619 0.979595 -0.189077 -0.0991887 0.97694 
-0.370467 -0.118433 0.921264 -0.738155 -0.141946 0.659528 0.328934 -0.314889 0.890307 
0.619653 -0.333442 0.710525 0.277623 -0.36582 0.888313 0.102599 -0.363569 0.9259 
-0.000764961 -0.380306 0.924861 -0.0296907 -0.341794 0.939306 -0.0372484 -0.284371 0.95799 
0.0120457 -0.386698 0.922128 0.101566 -0.2982 0.949084 -0.0435958 -0.522419 0.851573 
-0.162081 -0.308667 0.937259 -0.174855 -0.528767 0.830561 -0.161444 -0.307139 0.937871 
-0.0252791 -0.281887 0.959115 -0.0286259 -0.236773 0.971143 -0.202602 -0.247717 0.947412 
-0.392671 -0.204014 0.896765 0.297014 -0.629942 0.717604 0.159424 -0.472251 0.866927 
0.00770478 -0.476489 0.879147 -0.0233253 -0.437851 0.898745 -0.0505695 -0.429736 0.901538 
0.031916 -0.442564 0.896169 0.0679967 -0.444694 0.893098 -0.0864575 -0.608562 0.788782 
-0.136766 -0.69818 0.702737 0.00893223 -0.565423 0.824753 0.0339652 -0.494402 0.86857 
-0.0210648 -0.467633 0.883671 -0.17043 -0.447787 0.877748 -0.439159 -0.488084 0.754263 
0.125634 -0.740313 0.660418 -0.0100881 -0.692736 0.72112 -0.0284664 -0.662012 0.748952 
-0.0227511 -0.659123 0.751691 -0.125886 -0.746996 0.652801 0.351006 0.882277 0.31366 
0.265651 0.865402 0.424863 0.130907 0.889526 0.437729 -0.029449 0.901806 0.431138 
-0.00935318 0.999441 0.0321027 -0.127446 0.880378 0.456828 -0.158026 0.861006 0.483422 
-0.239844 0.850589 0.467946 0.529632 0.798313 0.286682 0.376367 0.874995 0.304519 
0.419308 0.84934 0.320628 -0.367365 0.833877 0.411937 -0.368375 0.833504 0.411789 
-0.370101 0.836848 0.403373 -0.44945 0.790273 0.416489 0.5671 0.770211 0.291844 
0.67652 0.661404 0.323831 -0.534619 0.720637 0.441435 -0.56073 0.685818 0.463934 
-0.576489 0.817047 0.00977922 0.726995 0.611854 0.31163 0.77606 0.515534 0.363257 
-0.595814 0.605091 0.528082 -0.608816 0.585196 0.53562 -0.672118 0.663265 0.329146 
0.782479 0.502072 0.368307 -0.752614 0.383676 0.53513 0.865541 0.329534 0.377155 
-0.832227 0.20792 0.513973 -0.83743 0.169627 0.519555 -0.855421 0.216564 0.470484 
0.930249 0.114461 0.348618 -0.832291 0.0462794 0.552403 0.905287 -0.127275 0.405285 
0.994147 -0.105675 -0.0224497 -0.759799 -0.137642 0.635422 -0.75911 -0.14902 0.633676 
0.781259 -0.388731 0.488387 0.657146 -0.648296 0.384539 -0.708916 -0.204172 0.675094 
-0.881635 -0.220459 0.417274 0.596034 -0.694801 0.402487 0.707107 -0.696419 0.122479 
0.356736 -0.743487 0.565655 0.262267 -0.785255 0.560884 -0.207717 -0.818699 0.535337 
-0.0852126 -0.78876 0.608766 0.111559 -0.7246 0.68008 0.0897177 -0.670289 0.736656 
-0.0557347 -0.646428 0.760936 -0.154811 -0.664266 0.731289 -0.481762 -0.481494 0.732167 
-0.426474 -0.526346 0.735581 -0.888697 -0.454502 0.0603861 0.18676 -0.775997 0.602453 
0.282073 -0.87488 0.393726 0.137293 -0.763645 0.63087 -0.00644694 -0.729691 0.683746 
-0.0259127 -0.680033 0.732723 -0.0260689 -0.674304 0.737993 -0.13187 -0.753458 0.644137 
-0.128125 -0.749301 0.649717 -0.23674 -0.898473 0.369729 -0.0221471 -0.954719 0.296682 
0.200434 -0.884728 0.420811 0.114539 -0.755065 0.645567 -0.0714666 -0.752012 0.655264 
-0.159298 -0.794037 0.586625 -0.468622 -0.838174 0.279031 -0.00709559 0.999927 -0.00974017 
0.41435 0.902537 -0.117219 0.327561 0.943325 -0.053314 0.0419666 0.999003 -0.0152415 
0.14281 0.989428 -0.0252593 -0.0327671 0.999459 -0.00286842 -0.00505008 0.998939 -0.0457782 
-0.101508 0.994709 0.015833 -0.175634 0.983866 0.0340641 -0.297159 0.95478 -0.00961464 
-0.409381 0.907942 -0.0897169 0.52135 0.830659 -0.195449 0.424478 0.89441 -0.140884 
0.445656 0.881511 -0.155978 0.440058 0.82634 -0.351443 -0.43445 0.894673 -0.103986 
-0.44489 0.841446 -0.306662 -0.482637 0.866426 -0.127937 -0.554479 0.820644 -0.138187 
0.568742 0.801211 -0.18599 0.674984 0.716099 -0.17776 0.511997 0.78826 -0.341328 
-0.565154 0.813728 -0.135821 -0.551108 0.812856 -0.188536 -0.702928 0.701884 -0.115113 
0.735016 0.657474 -0.165772 0.823756 0.54319 -0.162389 0.632467 0.614171 -0.471995 
-0.735727 0.664925 -0.12877 -0.704059 0.654318 -0.275987 0.846504 0.504436 -0.17022 
0.816314 0.490824 -0.304504 -0.877662 0.479203 -0.00863129 -0.892363 0.451133 -0.0129377 
0.926851 0.350383 -0.134829 -0.961358 0.26383 -0.0786461 -0.863752 0.178665 -0.47118 
0.984514 0.155025 -0.0818462 0.989396 0.120863 -0.0805458 -0.994291 0.0802634 -0.0703074 
-0.813351 0.0953266 -0.57391 0.991656 -0.104006 -0.0761597 0.987283 -0.139037 -0.0770817 
0.987822 -0.106238 -0.113674 -0.997791 -0.0601265 -0.0282325 -0.737607 -0.067132 -0.671885 
0.911572 -0.398327 -0.101839 -0.963741 -0.265932 -0.0219816 -0.900018 -0.164038 -0.403806 
0.744287 -0.660734 -0.0973021 0.726603 -0.681028 -0.0908282 0.738838 -0.651076 -0.173835 
0.481913 -0.875341 0.0392195 -0.890532 -0.453541 0.0353906 -0.887442 -0.459495 0.0362173 
-0.893183 -0.449651 0.00619504 0.469896 -0.881556 0.0453575 0.301 -0.944039 0.134868 
0.2155 -0.953679 0.209896 0.143768 -0.946589 0.288618 0.0599726 -0.927398 0.369238 
-0.115668 -0.927293 0.356017 -0.293515 -0.916745 0.270974 -0.267816 -0.945308 0.186191 
-0.00853642 -0.973946 0.226618 0.228182 -0.936965 0.264632 0.149797 -0.94264 0.298314 
0.0461182 -0.966756 0.251509 -0.258301 -0.916503 0.305456 -0.574023 -0.814824 0.0809928 
-0.508935 -0.855497 0.0954463 -0.557315 -0.816982 -0.148123 0.341635 0.836682 -0.428075 
0.173381 0.889378 -0.42302 0.0117951 0.906637 -0.421747 -0.083826 0.910311 -0.405349 
-0.189763 0.892543 -0.409092 -0.361542 0.802345 -0.4749 0.446625 0.716066 -0.536447 
0.423552 0.784941 -0.452185 0.445507 0.760438 -0.472502 0.328063 0.73126 -0.598025 
0.131514 0.616186 -0.776543 0.0100286 0.567628 -0.823224 -0.0665479 0.596184 -0.800085 
-0.204329 0.660203 -0.72276 -0.422035 0.735581 -0.529913 -0.380013 0.695787 -0.609483 
-0.444018 0.655991 -0.610347 -0.431748 0.61186 -0.662738 0.457598 0.693824 -0.556069 
0.474186 0.654555 -0.588817 0.444804 0.641001 -0.625514 0.385614 0.517036 -0.764183 
-0.366099 0.298199 -0.881504 -0.39017 0.450797 -0.802838 -0.434204 0.608297 -0.66441 
-0.419948 0.585015 -0.693831 -0.445266 0.586659 -0.676439 0.560121 0.565531 -0.605342 
0.588363 0.520944 -0.618422 0.442203 0.49362 -0.748863 -0.203406 0.233047 -0.950955 
-0.265195 0.368668 -0.890929 -0.515085 0.533339 -0.670997 -0.395134 0.472643 -0.787704 
-0.527362 0.492189 -0.69256 0.663823 0.416077 -0.621465 0.673402 0.338185 -0.657389 
0.511184 0.38448 -0.768678 0.352136 0.282415 -0.892324 -0.159442 0.193272 -0.968103 
-0.309991 0.26859 -0.912011 -0.581758 0.415815 -0.699039 -0.466111 0.404441 -0.786873 
0.677967 0.320221 -0.66168 0.657517 0.309561 -0.686908 0.467559 0.188276 -0.863679 
-0.247842 0.073958 -0.965973 -0.708673 0.131043 -0.69326 -0.42519 0.14149 -0.893977 
0.736929 0.139102 -0.661503 0.584236 0.1237 -0.802101 0.39122 0.100019 -0.914846 
-0.204233 -0.00777019 -0.978892 -0.701343 0.070749 -0.709304 -0.402392 -0.0274484 -0.915056 
0.744156 -0.107929 -0.659229 0.615691 -0.104603 -0.781014 -0.0044036 -0.0691784 -0.997595 
-0.210611 0.0823095 -0.974099 -0.676988 -0.0493878 -0.734336 -0.384585 0.0525497 -0.921593 
0.665489 -0.318884 -0.674861 0.666257 -0.389145 -0.636135 0.628184 -0.288914 -0.722436 
0.463078 -0.260024 -0.847317 -0.0630332 -0.130777 -0.989406 0.0403735 -0.0417581 -0.998312 
-0.746999 -0.0901889 -0.65868 -0.484251 -0.117572 -0.866994 0.653353 -0.546536 -0.523859 
0.547726 -0.653989 -0.521818 0.477528 -0.485742 -0.732136 0.355404 -0.380852 -0.853604 
-0.197274 -0.348335 -0.916376 0.0304518 -0.401095 -0.91553 0.148963 -0.183286 -0.971708 
-0.0528039 -0.15759 -0.986092 -0.34206 -0.381938 -0.858556 -0.657378 -0.364021 -0.659805 
-0.547934 -0.603496 -0.579276 -0.493531 -0.364159 -0.78982 0.483114 -0.775085 -0.40724 
0.452681 -0.803099 -0.387444 0.446331 -0.757912 -0.475771 0.303354 -0.901257 -0.309376 
0.281832 -0.645609 -0.70976 0.195752 -0.949787 -0.244102 0.190379 -0.494252 -0.848217 
0.0609345 -0.976507 -0.206691 -0.144597 -0.954154 -0.262074 -0.367457 -0.883703 -0.289906 
-0.319634 -0.541251 -0.777741 -0.325351 -0.855897 -0.40198 -0.315742 -0.771075 -0.552947 
0.0128341 -0.895838 -0.444196 0.0164098 -0.885696 -0.463976 0.251518 -0.91634 -0.311543 
0.259173 -0.807758 -0.529487 0.161692 -0.908203 -0.386035 0.0757387 -0.635575 -0.768315 
-0.0668803 -0.931534 -0.357453 -0.183661 -0.593249 -0.783788 -0.501415 -0.698592 -0.510444 
-0.339825 -0.776464 -0.53068 -0.325655 -0.636678 -0.698992 0.254256 0.535143 -0.80559 
0.108206 0.543418 -0.832459 0.00846966 0.526206 -0.850315 -0.0568649 0.536711 -0.841848 
-0.194941 0.501189 -0.843094 0.336118 0.36712 -0.867322 0.355043 0.49062 -0.795762 
0.366079 0.474458 -0.800547 0.188295 0.37413 -0.908059 0.0316208 0.308699 -0.950634 
-0.00150128 0.238129 -0.971232 -0.0193867 0.294502 -0.955454 -0.362295 0.297187 -0.883415 
-0.168482 0.269437 -0.948165 -0.362096 0.287959 -0.886547 0.336117 0.367084 -0.867337 
0.33608 0.367043 -0.867369 0.247612 0.243591 -0.937737 0.119643 0.110373 -0.986663 
-0.0291349 0.0575131 -0.99792 -0.00887176 0.0589261 -0.998223 -0.0142429 0.118784 -0.992818 
-0.218327 0.0316173 -0.975363 -0.228261 0.152119 -0.961643 -0.269963 0.0610157 -0.960936 
-0.127281 0.141166 -0.98177 0.341413 0.272763 -0.899465 0.339198 0.265449 -0.902486 
0.242284 0.183524 -0.95269 0.120072 0.0724862 -0.990115 0.00232837 -0.0252034 -0.99968 
-0.0218469 -0.03054 -0.999295 0.0605826 0.0725756 -0.995521 -0.0485026 -0.000332043 -0.998823 
-0.245614 -0.00975165 -0.969319 -0.169774 0.0212849 -0.985253 -0.121253 0.137782 -0.983013 
-0.101316 0.110397 -0.98871 -0.136692 0.124713 -0.982732 0.386238 0.166132 -0.907315 
0.24713 0.133768 -0.959705 0.138337 0.075685 -0.987489 0.0403278 0.00638999 -0.999166 
0.0187415 -0.00328256 -0.999819 0.0686976 0.0867671 -0.993857 0.0215154 -0.040598 -0.998944 
-0.0949806 -0.11424 -0.988902 -0.196824 0.0286708 -0.98002 -0.150712 -0.0182516 -0.988409 
-0.039384 -0.00606462 -0.999206 -0.174806 0.0497154 -0.983347 -0.10882 0.0354131 -0.99343 
0.35764 0.0947313 -0.929042 0.409056 0.0547205 -0.910867 0.241985 0.0697772 -0.967768 
0.116247 0.0323263 -0.992694 0.0405653 0.0152512 -0.999061 0.0828114 0.0255315 -0.996238 
-0.0525763 -0.0240787 -0.998327 -0.163221 -0.136851 -0.977052 0.0335932 -0.0682033 -0.997106 
-0.159673 -0.152448 -0.975328 -0.060418 -0.084388 -0.9946 -0.191687 -0.114825 -0.974716 
-0.0425526 -0.0333037 -0.998539 -0.0814939 -0.0492639 -0.995456 -0.0768774 -0.0506183 -0.995755 
0.458543 -0.0157298 -0.888533 0.450908 -0.14292 -0.881054 0.424741 -0.00786492 -0.905281 
0.183301 -0.00332435 -0.983051 0.0888163 -0.0114848 -0.995982 0.0335254 0.00018216 -0.999438 
-0.0218058 -0.0199265 -0.999564 -0.0805877 -0.14267 -0.986484 -0.0164368 -0.0411444 -0.999018 
-0.115114 -0.137032 -0.983855 -0.125267 -0.147514 -0.981095 -0.141159 -0.170547 -0.975186 
-0.261149 -0.238219 -0.935443 0.010675 -0.0270225 -0.999578 0.0235885 0.00786082 -0.999691 
-0.0950403 0.00299229 -0.995469 -0.0905681 -0.00069776 -0.99589 -0.188125 0.0698149 -0.979661 
0.409371 -0.251412 -0.877045 0.328081 -0.335608 -0.883024 0.256667 -0.204246 -0.944672 
0.122775 -0.101675 -0.987213 0.0311696 -0.0649128 -0.997404 -0.0584367 -0.0687477 -0.995921 
-0.0966275 -0.0668436 -0.993074 -0.140051 -0.108132 -0.984222 -0.0917522 -0.177584 -0.979819 
-0.173868 -0.308719 -0.935127 -0.16929 -0.303667 -0.937618 0.0331093 -0.0131738 -0.999365 
0.0273774 0.0131284 -0.999539 0.0116419 -0.0538034 -0.998484 0.0133009 -0.0504181 -0.99864 
-0.22649 0.0255101 -0.973679 -0.298862 -0.253646 -0.91997 -0.174225 0.0623425 -0.98273 
0.322093 -0.355407 -0.877463 0.235842 -0.452361 -0.860086 0.206149 -0.293401 -0.933498 
0.190362 -0.494207 -0.848246 0.0634858 -0.246083 -0.967167 -0.0219662 -0.165233 -0.98601 
-0.114412 -0.156608 -0.981012 -0.223013 -0.276308 -0.934836 -0.266464 -0.324902 -0.907434 
-0.244028 -0.234085 -0.941092 0.0578475 -0.141167 -0.988294 -0.00846513 -0.14099 -0.989975 
0.0186605 -0.226653 -0.973797 0.015714 -0.141175 -0.98986 0.190331 -0.494219 -0.848246 
0.0142904 -0.506473 -0.862138 0.0158497 -0.41983 -0.907464 -0.193042 -0.471685 -0.860377 
-0.183164 -0.481021 -0.857362 -0.183099 -0.471112 -0.86286 
