# vtk DataFile Version 4.2
vtk output
ASCII
DATASET POLYDATA
POINTS 532 float
-2.72576 -39.1306 -16.8382 5.99925 -39.1306 -17.886 14.7243 -39.1306 -17.3045 
-20.1758 -30.4055 -15.6304 -11.4508 -30.4055 -17.8912 -2.72576 -30.4055 -19.4631 
5.99925 -30.4055 -20.7525 14.7243 -30.4055 -20.659 23.4493 -30.4055 -19.6346 
32.1743 -30.4055 -17.9604 40.8993 -30.4055 -16.4836 -28.9008 -21.6805 -15.5064 
-20.1758 -21.6805 -16.2796 -11.4508 -21.6805 -18.3322 -2.72576 -21.6805 -19.8359 
5.99925 -21.6805 -20.928 14.7243 -21.6805 -21.0488 23.4493 -21.6805 -20.846 
32.1743 -21.6805 -21.3909 40.8993 -21.6805 -20.4168 49.6243 -21.6805 -18.2529 
-46.3508 -12.9555 -15.9422 -37.6258 -12.9555 -16.9023 -28.9008 -12.9555 -16.487 
-20.1758 -12.9555 -16.1918 -11.4508 -12.9555 -18.5737 -2.72576 -12.9555 -19.8595 
5.99925 -12.9555 -20.7567 14.7243 -12.9555 -20.2343 23.4493 -12.9555 -20.4378 
32.1743 -12.9555 -21.4838 40.8993 -12.9555 -22.3151 49.6243 -12.9555 -21.552 
58.3493 -12.9555 -18.0055 -55.0758 -4.23051 -16.8722 -46.3508 -4.23051 -18.8171 
-37.6258 -4.23051 -19.1965 -28.9008 -4.23051 -18.5833 -20.1758 -4.23051 -17.2728 
-11.4508 -4.23051 -20.7071 -2.72576 -4.23051 -19.6411 5.99925 -4.23051 -22.1177 
14.7243 -4.23051 -21.3393 23.4493 -4.23051 -19.6971 32.1743 -4.23051 -21.407 
40.8993 -4.23051 -23.1317 49.6243 -4.23051 -22.0408 58.3493 -4.23051 -20.2806 
-55.0758 4.4945 -17.5877 -46.3508 4.4945 -20.159 -37.6258 4.4945 -20.6512 
-28.9008 4.4945 -19.8779 -20.1758 4.4945 -17.792 -11.4508 4.4945 -20.2096 
-2.72576 4.4945 -19.8661 5.99925 4.4945 -21.636 14.7243 4.4945 -20.1402 
23.4493 4.4945 -18.7148 32.1743 4.4945 -20.7665 40.8993 4.4945 -22.4214 
49.6243 4.4945 -21.9402 58.3493 4.4945 -20.511 67.0743 4.4945 -16.2686 
-55.0758 13.2195 -18.3295 -46.3508 13.2195 -20.5688 -37.6258 13.2195 -20.6931 
-28.9008 13.2195 -19.9407 -20.1758 13.2195 -18.8299 -11.4508 13.2195 -19.277 
-2.72576 13.2195 -19.7131 5.99925 13.2195 -19.7096 14.7243 13.2195 -17.4663 
23.4493 13.2195 -18.1643 32.1743 13.2195 -19.5399 40.8993 13.2195 -20.9253 
49.6243 13.2195 -21.9422 58.3493 13.2195 -19.4809 67.0743 13.2195 -15.7173 
-55.0758 21.9445 -16.3497 -46.3508 21.9445 -18.5949 -37.6258 21.9445 -19.399 
-28.9008 21.9445 -20.0798 -20.1758 21.9445 -19.3234 -11.4508 21.9445 -18.4743 
-2.72576 21.9445 -17.9678 5.99925 21.9445 -17.3767 14.7243 21.9445 -15.5396 
23.4493 21.9445 -15.6221 32.1743 21.9445 -17.2372 40.8993 21.9445 -18.3896 
49.6243 21.9445 -18.4281 58.3493 21.9445 -17.2488 -46.3508 30.6695 -15.8655 
-37.6258 30.6695 -17.1345 -28.9008 30.6695 -18.3281 -20.1758 30.6695 -17.8414 
-11.4508 30.6695 -17.0391 -2.72576 30.6695 -15.9063 -2.72576 -41.2039 -15.3743 
5.99925 -42.3894 -15.3743 14.7243 -41.46 -15.3743 -28.9008 -39.1306 -8.45273 
-20.1758 -31.174 -15.3743 -20.1758 -39.1306 -12.4426 -10.172 -39.1306 -15.3743 
-11.4508 -38.3865 -15.3743 -11.4508 -39.1306 -15.0778 21.4236 -39.1306 -15.3743 
23.4493 -38.1354 -15.3743 23.4493 -39.1306 -14.3384 32.1743 -34.3125 -15.3743 
32.1743 -39.1306 -8.31948 40.8993 -31.5955 -15.3743 -46.3508 -30.4055 -7.92731 
-37.6258 -30.4055 -11.2669 -21.1658 -30.4055 -15.3743 -28.9008 -22.2894 -15.3743 
-28.9008 -30.4055 -13.3946 43.0387 -30.4055 -15.3743 49.6243 -25.6529 -15.3743 
49.6243 -30.4055 -7.83104 -55.0758 -21.6805 -9.85867 -46.3508 -14.6968 -15.3743 
-46.3508 -21.6805 -13.2638 -29.8134 -21.6805 -15.3743 -37.6258 -17.8056 -15.3743 
-37.6258 -21.6805 -14.207 54.6353 -21.6805 -15.3743 58.3493 -17.884 -15.3743 
58.3493 -21.6805 -10.999 -63.8008 -12.9555 -9.68462 -48.7363 -12.9555 -15.3743 
-55.0758 -8.71406 -15.3743 -55.0758 -12.9555 -13.9213 62.3238 -12.9555 -15.3743 
-60.4734 -4.23051 -15.3743 -63.8008 -4.23051 -13.7125 66.7292 -4.23051 -15.3743 
67.0743 -2.13925 -15.3743 67.0743 -4.23051 -15.0029 -59.8161 4.4945 -15.3743 
-63.8008 4.4945 -13.1902 68.0685 4.4945 -15.3743 -60.4508 13.2195 -15.3743 
-63.8008 13.2195 -12.8294 67.502 13.2195 -15.3743 67.0743 17.8306 -15.3743 
-56.8147 21.9445 -15.3743 -63.8008 21.9445 -9.36969 -55.0758 23.4647 -15.3743 
5.99925 28.2923 -15.3743 14.7243 22.5699 -15.3743 23.4493 22.4954 -15.3743 
32.1743 25.7483 -15.3743 40.8993 28.1121 -15.3743 49.6243 26.6613 -15.3743 
65.8253 21.9445 -15.3743 58.3493 24.5145 -15.3743 67.0743 21.9445 -14.912 
-47.3776 30.6695 -15.3743 -55.0758 30.6695 -9.87282 -46.3508 31.5307 -15.3743 
-37.6258 33.9199 -15.3743 -28.9008 37.1072 -15.3743 -20.1758 35.9025 -15.3743 
-11.4508 34.086 -15.3743 0.920233 30.6695 -15.3743 -2.72576 31.6454 -15.3743 
5.99925 30.6695 -14.5325 14.7243 30.6695 -12.9488 23.4493 30.6695 -11.4417 
32.1743 30.6695 -12.5312 40.8993 30.6695 -13.7168 49.6243 30.6695 -11.8887 
58.3493 30.6695 -10.1418 -37.6258 39.3945 -11.0681 -28.9008 39.3945 -13.6587 
-20.1758 39.3945 -13.1589 -11.4508 39.3945 -11.4219 -2.72576 39.3945 -8.29603 
-28.9008 -41.14 -6.64925 -20.1758 -44.8653 -6.64925 -11.4508 -46.7919 -6.64925 
-2.72576 -47.3816 -6.64925 5.99925 -47.2614 -6.64925 14.7243 -46.1181 -6.64925 
23.4493 -43.3289 -6.64925 32.1743 -39.9351 -6.64925 -46.3508 -31.9983 -6.64925 
-32.3165 -39.1306 -6.64925 -37.6258 -36.2512 -6.64925 -37.6258 -39.1306 0.0366949 
33.9799 -39.1306 -6.64925 40.8993 -36.0777 -6.64925 49.6243 -30.9759 -6.64925 
-49.5635 -30.4055 -6.64925 -55.0758 -26.9907 -6.64925 -55.0758 -30.4055 -1.43308 
50.5029 -30.4055 -6.64925 49.6243 -30.4055 -0.712619 58.3493 -24.3472 -6.64925 
-60.8851 -21.6805 -6.64925 -63.8008 -17.7178 -6.64925 -63.8008 -21.6805 -2.39505 
60.6568 -21.6805 -6.64925 -66.3172 -12.9555 -6.64925 66.5023 -12.9555 -6.64925 
67.0743 -12.0467 -6.64925 -69.4537 -4.23051 -6.64925 -72.5258 -4.23051 1.47855 
71.4758 -4.23051 -6.64925 -70.8389 4.4945 -6.64925 -72.5258 4.4945 0.0934087 
73.4381 4.4945 -6.64925 -69.7165 13.2195 -6.64925 73.9346 13.2195 -6.64925 
-65.6289 21.9445 -6.64925 -63.8008 25.0708 -6.64925 71.6173 21.9445 -6.64925 
67.0743 27.4339 -6.64925 -59.0896 30.6695 -6.64925 -55.0758 34.0591 -6.64925 
-46.3508 39.0835 -6.64925 5.99925 38.875 -6.64925 14.7243 37.4378 -6.64925 
23.4493 35.8139 -6.64925 32.1743 35.9722 -6.64925 40.8993 36.0824 -6.64925 
49.6243 35.1136 -6.64925 62.502 30.6695 -6.64925 58.3493 33.012 -6.64925 
-45.6053 39.3945 -6.64925 -46.3508 39.3945 -3.07213 -37.6258 42.3515 -6.64925 
-28.9008 44.4197 -6.64925 -20.1758 44.2485 -6.64925 -11.4508 42.6281 -6.64925 
3.30378 39.3945 -6.64925 -2.72576 40.4115 -6.64925 14.7243 39.3945 -0.508289 
23.4493 39.3945 0.942311 -37.6258 -39.8344 2.07576 -28.9008 -43.6892 2.07576 
-20.1758 -46.1239 2.07576 -11.4508 -47.258 2.07576 -2.72576 -47.0232 2.07576 
5.99925 -46.1647 2.07576 14.7243 -44.8989 2.07576 23.4493 -42.6295 2.07576 
32.1743 -39.56 2.07576 -55.0758 -31.9192 2.07576 -39.4643 -39.1306 2.07576 
-46.3508 -36.4549 2.07576 -37.6258 -39.1306 4.9885 -28.9008 -39.1306 10.375 
23.4493 -39.1306 9.39133 33.1365 -39.1306 2.07576 32.1743 -39.1306 3.2319 
40.8993 -35.6004 2.07576 -57.085 -30.4055 2.07576 -63.8008 -24.0126 2.07576 
-55.0758 -30.4055 6.35107 49.2291 -30.4055 2.07576 49.6243 -30.1115 2.07576 
58.3493 -22.1546 2.07576 -65.5959 -21.6805 2.07576 -63.8008 -21.6805 7.13497 
58.7816 -21.6805 2.07576 58.3493 -21.6805 2.90896 -70.4472 -12.9555 2.07576 
-72.5258 -4.85514 2.07576 64.7881 -12.9555 2.07576 67.0743 -9.2752 2.07576 
-72.6873 -4.23051 2.07576 -72.5258 -4.23051 2.55585 69.8344 -4.23051 2.07576 
67.0743 -4.23051 6.86538 -72.8974 4.4945 2.07576 -72.5258 10.06 2.07576 
-72.5258 4.4945 3.19504 71.9237 4.4945 2.07576 67.0743 4.4945 10.111 
-72.2983 13.2195 2.07576 72.8175 13.2195 2.07576 67.0743 13.2195 10.4225 
-68.0614 21.9445 2.07576 -63.8008 27.816 2.07576 70.8593 21.9445 2.07576 
67.0743 26.6272 2.07576 67.0743 21.9445 8.39235 -61.0076 30.6695 2.07576 
-55.0758 35.7476 2.07576 5.99925 39.3686 2.07576 32.1743 39.1884 2.07576 
40.8993 37.8954 2.07576 49.6243 36.3658 2.07576 62.523 30.6695 2.07576 
58.3493 33.4582 2.07576 58.3493 30.6695 6.8258 -47.3513 39.3945 2.07576 
-46.3508 39.7952 2.07576 -46.3508 39.3945 2.95089 -37.6258 42.7246 2.07576 
-37.6258 39.3945 9.04166 -28.9008 44.6206 2.07576 -20.1758 44.2992 2.07576 
-11.4508 42.3648 2.07576 -11.4508 39.3945 7.81101 5.56749 39.3945 2.07576 
-2.72576 39.8814 2.07576 -2.72576 39.3945 2.99526 6.3153 39.3945 2.07576 
14.7243 40.0358 2.07576 14.7243 39.3945 3.85895 29.2417 39.3945 2.07576 
23.4493 39.797 2.07576 23.4493 39.3945 3.53497 -20.1758 -41.3867 10.8008 
-11.4508 -42.615 10.8008 -2.72576 -41.7138 10.8008 5.99925 -40.3245 10.8008 
14.7243 -39.4685 10.8008 -46.3508 -33.0098 10.8008 -37.6258 -37.0258 10.8008 
-27.9092 -39.1306 10.8008 -28.9008 -38.7819 10.8008 -20.1758 -39.1306 12.9366 
-11.4508 -39.1306 14.085 -2.72576 -39.1306 13.1707 5.99925 -39.1306 11.8769 
17.2964 -39.1306 10.8008 14.7243 -39.1306 11.1381 23.4493 -38.2631 10.8008 
32.1743 -35.934 10.8008 40.8993 -32.0714 10.8008 -51.7203 -30.4055 10.8008 
-55.0758 -28.0117 10.8008 -46.3508 -30.4055 13.6617 -37.6258 -30.4055 15.1906 
-28.9008 -30.4055 16.9136 -20.1758 -30.4055 17.7578 -11.4508 -30.4055 18.9578 
-2.72576 -30.4055 17.8622 5.99925 -30.4055 16.6604 14.7243 -30.4055 17.1449 
23.4493 -30.4055 18.0185 32.1743 -30.4055 16.7616 43.5017 -30.4055 10.8008 
40.8993 -30.4055 12.7915 49.6243 -25.3887 10.8008 -61.6809 -21.6805 10.8008 
-63.8008 -19.484 10.8008 -55.0758 -21.6805 15.3437 -46.3508 -21.6805 17.6899 
-37.6258 -21.6805 18.2462 -28.9008 -21.6805 19.2301 40.8993 -21.6805 19.3275 
53.323 -21.6805 10.8008 49.6243 -21.6805 14.0812 58.3493 -14.7152 10.8008 
-67.3815 -12.9555 10.8008 -63.8008 -12.9555 14.2645 -28.9008 -12.9555 19.3102 
-20.1758 -12.9555 19.2145 49.6243 -12.9555 18.4545 59.449 -12.9555 10.8008 
58.3493 -12.9555 11.9311 -69.4882 -4.23051 10.8008 -63.8008 -4.23051 16.0204 
-55.0758 -4.23051 18.6883 -20.1758 -4.23051 18.5057 64.1266 -4.23051 10.8008 
58.3493 -4.23051 15.9554 -68.9245 4.4945 10.8008 -63.8008 4.4945 15.4097 
-55.0758 4.4945 18.9 -20.1758 4.4945 19.1964 66.4634 4.4945 10.8008 
58.3493 4.4945 17.204 -68.4943 13.2195 10.8008 -63.8008 13.2195 15.2512 
-55.0758 13.2195 18.4531 66.6523 13.2195 10.8008 58.3493 13.2195 16.6207 
[...]
POINT_DATA 532
SCALARS ImageScalars float
LOOKUP_TABLE default
0 0 0 0 0 0 0 0 0 
0 0 0 0 0 0 0 0 0 
0 0 0 0 0 0 0 0 0 
0 0 0 0 0 0 0 0 0 
0 0 0 0 0 0 0 0 0 
0 0 0 0 0 0 0 0 0 
0 0 0 0 0 0 0 0 0 
0 0 0 0 0 0 0 0 0 
0 0 0 0 0 0 0 0 0 
0 0 0 0 0 0 0 0 0 
0 0 0 0 0 0 0 0 0 
0 0 0 0 0 0 0 0 0 
0 0 0 0 0 0 0 0 0 
0 0 0 0 0 0 0 0 0 
0 0 0 0 0 0 0 0 0 
0 0 0 0 0 0 0 0 0 
0 0 0 0 0 0 0 0 0 
0 0 0 0 0 0 0 0 0 
0 0 0 0 0 0 0 0 0 
0 0 0 0 0 0 0 0 0 
0 0 0 0 0 0 0 0 0 
0 0 0 0 0 0 0 0 0 
0 0 0 0 0 0 0 0 0 
0 0 0 0 0 0 0 0 0 
0 0 0 0 0 0 0 0 0 
0 0 0 0 0 0 0 0 0 
0 0 0 0 0 0 0 0 0 
0 0 0 0 0 0 0 0 0 
0 0 0 0 0 0 0 0 0 
0 0 0 0 0 0 0 0 0 
0 0 0 0 0 0 0 0 0 
0 0 0 0 0 0 0 0 0 
0 0 0 0 0 0 0 0 0 
0 0 0 0 0 0 0 0 0 
0 0 0 0 0 0 0 0 0 
0 0 0 0 0 0 0 0 0 
0 0 0 0 0 0 0 0 0 
0 0 0 0 0 0 0 0 0 
0 0 0 0 0 0 0 0 0 
0 0 0 0 0 0 0 0 0 
0 0 0 0 0 0 0 0 0 
0 0 0 0 0 0 0 0 0 
0 0 0 0 0 0 0 0 0 
0 0 0 0 0 0 0 0 0 
0 0 0 0 0 0 0 0 0 
0 0 0 0 0 0 0 0 0 
0 0 0 0 0 0 0 0 0 
0 0 0 0 0 0 0 0 0 
0 0 0 0 0 0 0 0 0 
0 0 0 0 0 0 0 0 0 
0 0 0 0 0 0 0 0 0 
0 0 0 0 0 0 0 0 0 
0 0 0 0 0 0 0 0 0 
0 0 0 0 0 0 0 0 0 
0 0 0 0 0 0 0 0 0 
0 0 0 0 0 0 0 0 0 
0 0 0 0 0 0 0 0 0 
0 0 0 0 0 0 0 0 0 
0 0 0 0 0 0 0 0 0 
0 
NORMALS Normals float
0.150023 0.472612 0.868407 0.0281592 0.508363 0.860682 -0.151012 0.565196 0.811017 
0.254538 0.19467 0.947267 0.205419 0.16884 0.964 0.162945 0.163513 0.972991 
0.0674471 0.164449 0.984077 -0.0610698 0.194604 0.978979 -0.149256 0.279644 0.948431 
-0.166901 0.478836 0.861893 -0.299572 0.633729 0.713193 0.116715 0.165784 0.979231 
0.164559 0.0301906 0.985905 0.204077 0.0369313 0.978258 0.145754 0.0217482 0.989082 
0.0692444 4.91146e-05 0.9976 -0.00460848 -0.0238731 0.999704 0.0176216 0.041614 0.998978 
-0.0267641 0.201347 0.979154 -0.156489 0.296509 0.942122 -0.347557 0.46628 0.813503 
0.15643 0.298466 0.941514 0.0279175 0.27907 0.959865 -0.0401914 0.178393 0.983138 
0.0950209 0.0548129 0.993965 0.23224 0.105019 0.966972 0.110155 -0.00928903 0.993871 
0.0230539 0.0542418 0.998262 -0.0178148 -0.00166747 0.99984 0.0708702 -0.0648953 0.995372 
0.105304 0.000553921 0.99444 0.00945252 0.155205 0.987837 -0.223721 0.188505 0.95625 
-0.470902 0.335188 0.816028 0.255402 0.194577 0.947053 0.134496 0.239502 0.961535 
-0.0140457 0.210207 0.977556 -0.10741 0.193729 0.975157 0.0584719 0.0944908 0.993807 
0.168663 0.098847 0.980705 0.0826836 -0.00205259 0.996574 0.1083 0.064802 0.992004 
-0.157046 0.0204289 0.98738 0.0316244 -0.100201 0.994465 0.193875 -0.0404225 0.980193 
0.0366255 0.00498047 0.999317 -0.154609 0.0183403 0.987805 -0.322598 0.132977 0.937149 
0.355522 0.0847818 0.930815 0.160945 0.0916257 0.982701 -0.0141616 0.0846024 0.996314 
-0.16491 0.0775646 0.983254 -0.0253741 0.0888055 0.995726 0.147589 -0.0869522 0.985219 
0.0803696 0.00274929 0.996761 0.0339617 -0.147342 0.988502 -0.188166 -0.231721 0.95441 
0.0634174 -0.0866664 0.994217 0.206967 -0.103934 0.972812 0.0661267 -0.125329 0.989909 
-0.103513 -0.00557448 0.994613 -0.253279 -0.044117 0.966387 -0.62635 0.0274252 0.77906 
0.35772 -0.0462963 0.932681 0.144337 -0.0786931 0.986395 -0.0364685 -0.0703565 0.996855 
-0.106016 0.0112463 0.994301 -0.0380481 0.0868626 0.995493 0.0524329 -0.0857965 0.994932 
0.0255275 -0.108 0.993823 -0.120382 -0.227177 0.966384 -0.0855823 -0.215991 0.972637 
0.114929 -0.159277 0.980521 0.153038 -0.191794 0.96943 0.130373 -0.215111 0.967848 
-0.0784166 -0.192162 0.978225 -0.296064 -0.150702 0.943205 -0.572356 -0.0599748 0.817809 
0.356278 -0.380916 0.853211 0.147765 -0.263317 0.953326 0.0784937 -0.18349 0.979883 
-0.00442624 -0.0996935 0.995008 -0.0903396 -0.0522956 0.994537 -0.0757927 -0.126316 0.98909 
-0.0609904 -0.211284 0.97552 -0.132313 -0.271232 0.953376 -0.0978601 -0.228215 0.96868 
0.0950877 -0.347043 0.933016 0.145072 -0.355719 0.923265 0.0633273 -0.365232 0.92876 
-0.0462687 -0.432218 0.900581 -0.193498 -0.430765 0.881476 0.292263 -0.420631 0.858867 
0.147993 -0.379211 0.913399 0.0326037 -0.309121 0.950464 -0.0747603 -0.286542 0.955146 
-0.105445 -0.296036 0.949339 -0.133337 -0.370309 0.919289 0.139593 0.567841 0.811215 
0.0063966 0.666639 0.745353 -0.181803 0.669909 0.71984 0.411744 0.642955 0.645814 
0.258967 0.219444 0.940628 0.309552 0.535739 0.785596 0.211239 0.466839 0.858743 
0.221085 0.439383 0.870669 0.221222 0.47371 0.852443 -0.266251 0.670906 0.692095 
-0.279441 0.655538 0.701558 -0.303804 0.727192 0.615544 -0.251031 0.618905 0.744271 
-0.381304 0.880249 0.282433 -0.321505 0.679448 0.659534 0.339418 0.633925 0.694935 
0.282684 0.458005 0.842805 0.252692 0.209183 0.944664 0.124992 0.175961 0.97643 
0.235156 0.33315 0.913079 -0.357012 0.667036 0.653916 -0.448315 0.594333 0.667669 
-0.534203 0.818564 0.211141 0.415679 0.466916 0.780513 0.167571 0.31015 0.935803 
0.216536 0.388389 0.895693 0.118102 0.179923 0.976565 0.0852558 0.289823 0.953276 
0.122117 0.296275 0.947264 -0.524443 0.552476 0.647865 -0.561985 0.505018 0.655079 
-0.690332 0.639036 0.339227 0.635439 0.363873 0.681038 0.174698 0.315531 0.932695 
0.230303 0.289031 0.929205 0.252508 0.361743 0.897431 -0.622044 0.413312 0.665007 
0.440894 0.131575 0.887863 0.584627 0.109951 0.803818 -0.700276 0.211254 0.681898 
-0.698375 0.172488 0.694636 -0.724862 0.222497 0.651974 0.463129 0.011017 0.886222 
0.584724 -0.0345469 0.810496 -0.655951 0.0400658 0.75374 0.534447 -0.0750294 0.841865 
0.66084 -0.120993 0.74071 -0.583414 -0.0592428 0.810011 -0.549992 -0.247748 0.797577 
0.414308 -0.382375 0.825917 0.75657 -0.3968 0.519761 0.37419 -0.422813 0.825355 
-0.143573 -0.383559 0.912288 -0.102055 -0.241879 0.964925 0.0881113 -0.359357 0.929031 
0.138662 -0.443626 0.88542 0.0130267 -0.524015 0.851609 -0.105652 -0.556893 0.823837 
-0.472134 -0.413139 0.778721 -0.209733 -0.525595 0.824477 -0.530703 -0.413937 0.739602 
0.314644 -0.435784 0.843262 0.525715 -0.636428 0.564431 0.298732 -0.453229 0.839847 
0.171073 -0.474954 0.863222 0.0560398 -0.555908 0.829353 -0.0868865 -0.487411 0.868839 
-0.125065 -0.447313 0.88559 -0.139632 -0.397249 0.907026 -0.140693 -0.412216 0.900158 
-0.151496 -0.453781 0.878141 -0.154372 -0.480858 0.863102 -0.0235917 -0.584863 0.810789 
0.103997 -0.606565 0.788203 -0.0179284 -0.640854 0.767453 -0.147513 -0.753786 0.640349 
-0.318287 -0.796863 0.51352 0.249556 -0.770466 0.586603 0.0719624 -0.688518 0.72164 
-0.090341 -0.693739 0.714538 -0.192979 -0.793637 0.576975 -0.212471 -0.906551 0.36472 
0.424744 0.734479 0.529276 0.261813 0.860614 0.436803 0.134746 0.935723 0.325986 
0.0234128 0.974916 0.221339 -0.0698736 0.98736 0.142262 -0.216567 0.96722 0.132608 
-0.331901 0.926356 0.178065 -0.384048 0.902425 0.195284 0.356871 0.683109 0.637186 
0.41567 0.728688 0.544273 0.359265 0.729575 0.581935 0.37621 0.915879 0.140112 
-0.394267 0.898069 0.195001 -0.434811 0.881219 0.185452 -0.536657 0.829463 0.154886 
0.393398 0.664064 0.635812 0.465935 0.606668 0.644095 0.546283 0.79654 0.259035 
-0.549038 0.822369 0.14922 -0.584741 0.806055 -0.0913934 -0.712251 0.693689 0.107204 
0.590661 0.505632 0.628853 0.683336 0.431484 0.58896 0.756775 0.577292 0.306637 
-0.758142 0.6438 0.103642 0.746047 0.342821 0.570866 -0.847923 0.526646 0.0605852 
-0.857329 0.510762 0.0641058 0.819161 0.197235 0.538584 0.989579 0.143977 0.00171663 
-0.930337 0.349054 0.112399 0.87433 0.00343397 0.48532 0.999033 -0.0186567 0.0398141 
-0.983137 0.14374 0.113054 0.848377 -0.229631 0.476996 -0.977798 -0.103788 0.182042 
0.811616 -0.429287 0.396223 0.76829 -0.515842 0.378995 -0.866813 -0.460597 0.191012 
-0.675039 -0.705612 0.215485 0.622293 -0.677147 0.392713 0.546006 -0.741249 0.39042 
0.36611 -0.883118 0.293371 -0.153852 -0.924595 0.348502 -0.147996 -0.837596 0.52586 
-0.0682598 -0.778523 0.623893 0.0134854 -0.856051 0.516716 -0.0402687 -0.915869 0.399453 
-0.174084 -0.909887 0.376564 -0.482792 -0.827469 0.286719 -0.347373 -0.881494 0.319844 
0.356664 -0.887401 0.292079 0.36757 -0.925033 0.0959501 0.285385 -0.908077 0.306516 
0.107242 -0.938395 0.328503 -0.103215 -0.947495 0.302655 -0.217084 -0.935789 0.2778 
-0.170588 -0.933306 0.315974 -0.212711 -0.940794 0.263933 -0.0222702 -0.995223 0.0950527 
-0.0543913 -0.993221 0.102729 0.368305 0.928933 0.0378937 0.337622 0.93462 -0.111789 
0.194678 0.970292 -0.143647 0.0507733 0.982063 -0.181588 -0.0589157 0.966906 -0.248236 
-0.121139 0.938119 -0.324436 -0.194123 0.927708 -0.318863 -0.284414 0.927434 -0.242846 
-0.368757 0.910494 -0.187134 0.549755 0.834676 0.0329491 0.369586 0.928486 0.0363384 
0.412006 0.911042 0.015916 0.350293 0.926937 -0.134475 0.195649 0.764637 -0.614046 
-0.186088 0.825811 -0.53236 -0.377069 0.907467 -0.185266 -0.360845 0.904891 -0.225749 
-0.456779 0.870165 -0.184841 0.594024 0.803777 0.0328344 0.76989 0.637742 0.0235687 
0.555907 0.789425 -0.260336 -0.589298 0.781114 -0.20637 -0.59599 0.775256 -0.209222 
-0.716189 0.638113 -0.282639 0.808603 0.588035 0.0193827 0.741472 0.591382 -0.316996 
-0.723522 0.62981 -0.282587 -0.717733 0.626412 -0.304086 0.937141 0.34894 0.00274787 
0.987492 0.154407 -0.0319025 -0.790215 0.527513 -0.311914 -0.827275 0.457763 -0.325683 
0.989664 0.140127 -0.0304965 0.988699 0.140506 -0.0522813 -0.887541 0.330644 -0.320851 
-0.794992 0.331347 -0.508131 0.997439 -0.0215896 -0.0681814 0.983587 -0.165315 -0.0723008 
0.992729 -0.0251002 -0.117723 -0.940468 0.164321 -0.29752 -0.716605 0.119699 -0.687131 
0.966047 -0.248393 -0.0710945 -0.953706 -0.0556818 -0.29554 -0.651587 -0.0559788 -0.756505 
0.857006 -0.508236 -0.0850687 0.740827 -0.661513 -0.116511 -0.859962 -0.429368 -0.275876 
-0.733065 -0.6353 -0.24292 -0.754074 -0.386866 -0.530761 0.664234 -0.7359 -0.131315 
0.540603 -0.829415 -0.140782 0.010617 -0.976486 -0.21532 -0.10883 -0.993782 0.0235397 
-0.156658 -0.986265 -0.0523353 -0.256391 -0.955781 -0.144035 -0.56261 -0.798271 -0.215018 
-0.43908 -0.876873 -0.19571 -0.441987 -0.747325 -0.496139 0.369679 -0.912938 -0.172862 
0.351611 -0.919959 -0.173335 0.348992 -0.912016 -0.215478 0.254874 -0.948237 -0.189436 
0.213726 -0.8236 -0.525361 0.0887281 -0.969763 -0.227349 -0.123859 -0.967858 -0.218883 
-0.247439 -0.938529 -0.2407 -0.246428 -0.841316 -0.481103 0.00171396 -0.975753 -0.218869 
-0.168041 -0.943951 -0.28411 -0.166637 -0.931723 -0.322684 0.0109538 -0.977789 -0.209304 
0.0238439 -0.998217 -0.0547212 0.0452824 -0.98705 -0.153892 -0.0882878 -0.995644 0.0299612 
-0.0480983 -0.998086 0.0388766 -0.0425126 -0.997931 -0.0482376 0.17181 0.723926 -0.668141 
0.0148157 0.759048 -0.650865 -0.101078 0.712905 -0.693938 -0.0999899 0.677672 -0.728535 
-0.0891973 0.719206 -0.689048 0.343342 0.758077 -0.554469 0.256837 0.765949 -0.589369 
0.183561 0.740833 -0.646121 0.1838 0.740144 -0.646842 0.153529 0.64209 -0.751098 
0.00987629 0.631158 -0.775592 -0.105471 0.621246 -0.776485 -0.0953502 0.636087 -0.765704 
-0.109672 0.740457 -0.663095 -0.0848262 0.709663 -0.699416 -0.156407 0.785277 -0.599063 
-0.282812 0.803275 -0.524182 -0.428649 0.752523 -0.499969 0.433454 0.699272 -0.568451 
0.500118 0.632209 -0.591771 0.293448 0.655299 -0.696041 0.152859 0.471542 -0.868494 
0.138807 0.379527 -0.914709 0.104466 0.343423 -0.933353 0.00524605 0.357749 -0.933803 
-0.124658 0.364203 -0.922939 -0.0385924 0.388256 -0.920743 0.0654543 0.450652 -0.890297 
-0.00692631 0.517509 -0.85565 -0.216322 0.613307 -0.759644 -0.474863 0.72402 -0.500301 
-0.415416 0.705819 -0.573802 -0.589896 0.611189 -0.527703 0.616691 0.533566 -0.578791 
0.655016 0.493814 -0.571929 0.404547 0.47846 -0.77937 0.13469 0.295765 -0.945718 
0.0831846 0.242018 -0.966699 0.111362 0.120305 -0.986471 -0.323711 0.383968 -0.864743 
-0.633373 0.546186 -0.548196 -0.557009 0.501643 -0.661888 -0.675581 0.444801 -0.587999 
0.758138 0.342982 -0.554608 0.604067 0.315206 -0.731949 -0.0352592 0.0215547 -0.999146 
0.140553 -0.0895217 -0.986018 -0.454788 0.294441 -0.840519 -0.682055 0.421323 -0.597736 
-0.659942 0.406445 -0.631885 0.835508 0.0946915 -0.541258 0.492214 0.0711539 -0.867561 
0.221592 -0.0534148 -0.973675 0.205058 -0.00297816 -0.978745 -0.696638 0.283552 -0.65901 
-0.568466 0.219012 -0.79302 0.787109 -0.0585538 -0.614028 0.524644 -0.0482962 -0.849951 
0.247763 -0.0123929 -0.968741 0.193863 0.0736126 -0.978263 -0.688013 0.109491 -0.717391 
-0.508541 0.0304914 -0.860498 0.778427 -0.241219 -0.579538 0.538994 -0.214887 -0.814438 
0.300015 -0.0931869 -0.949372 -0.63151 -0.0572088 -0.773255 -0.452703 -0.142535 -0.880195 
0.647721 -0.492921 -0.580936 0.644423 -0.497683 -0.580544 0.642848 -0.491462 -0.587547 
0.37066 -0.358868 -0.856636 0.10305 -0.265366 -0.958625 0.0714045 -0.240967 -0.967903 
-0.10899 -0.352887 -0.929296 0.0245438 -0.400592 -0.915928 0.0397812 -0.304563 -0.951661 
-0.00707332 -0.253986 -0.967182 -0.00362352 -0.288023 -0.957617 -0.113747 -0.345802 -0.931388 
-0.240107 -0.347435 -0.906442 -0.641897 -0.362389 -0.675753 -0.406385 -0.547963 -0.731155 
-0.329507 -0.406072 -0.852368 0.47544 -0.62908 -0.614992 0.470083 -0.632565 -0.615536 
0.469062 -0.625898 -0.623083 0.296778 -0.730656 -0.614869 0.250762 -0.569892 -0.782523 
0.189657 -0.747375 -0.636759 0.113264 -0.438497 -0.891567 0.0644788 -0.387472 -0.919624 
-0.0357298 -0.414088 -0.909535 -0.235211 -0.747118 -0.621683 -0.168846 -0.521478 -0.836392 
-0.153241 -0.711525 -0.685747 -0.159645 -0.620975 -0.7674 0.0877689 -0.701391 -0.707352 
0.0829708 -0.605345 -0.791627 0.129013 -0.767477 -0.62796 0.111954 -0.542359 -0.832654 
-0.00320976 -0.805693 -0.592325 -0.00531347 -0.524488 -0.851401 -0.106834 -0.803929 -0.585051 
-0.102057 -0.53799 -0.83675 -0.178971 -0.753016 -0.633196 -0.145662 -0.61659 -0.773692 
-0.327488 -0.676361 -0.659763 -0.271338 -0.746517 -0.607526 -0.276999 -0.656368 -0.70175 
0.0764981 -0.756297 -0.64974 0.0596525 -0.753863 -0.654319 0.0592199 -0.749847 -0.658955 
-0.108214 -0.768768 -0.630306 -0.092444 -0.76917 -0.632322 -0.0918309 -0.762938 -0.639916 
0.114027 0.143384 -0.983076 0.00762524 0.307762 -0.951433 -0.104239 0.267709 -0.957845 
0.0025848 0.365502 -0.930807 0.0924361 0.3391 -0.936198 0.0270027 0.401979 -0.915251 
-0.153258 0.422651 -0.89324 0.305737 0.173991 -0.936083 0.01024 0.175453 -0.984434 
-0.0173464 0.1569 -0.987462 0.115679 0.103971 -0.98783 0.13402 -0.0312261 -0.990487 
0.117084 0.0772979 -0.990109 0.025028 0.15082 -0.988244 -0.0873727 0.218378 -0.971945 
0.00503052 0.365922 -0.930632 0.0942858 0.298999 -0.949584 0.0463447 0.245931 -0.968179 
-0.30512 0.373827 -0.875874 -0.112176 0.280439 -0.953295 -0.315016 0.368405 -0.874667 
0.321755 0.133836 -0.937316 0.26834 0.0498838 -0.962032 0.292658 0.121216 -0.948503 
-0.00859164 0.145201 -0.989365 -0.038212 0.0695237 -0.996848 -0.0433646 0.137598 -0.989538 
-0.094188 0.036643 -0.99488 0.142781 -0.0659932 -0.987552 0.14224 0.118169 -0.982753 
0.099315 0.00872859 -0.995018 0.0645381 0.30636 -0.949726 -0.0630821 0.166395 -0.984039 
-0.00262544 0.0175284 -0.999843 -0.0408483 0.071146 -0.996629 -0.379897 0.261377 -0.887333 
-0.213859 0.189214 -0.958364 -0.4024 0.21036 -0.890967 0.147923 -0.0111198 -0.988936 
0.107006 0.0174332 -0.994106 -0.0268968 0.0669431 -0.997394 -0.092984 0.0397811 -0.994873 
-0.116128 0.0427098 -0.992316 0.204492 0.0198133 -0.978668 0.0991358 0.121081 -0.98768 
0.0832593 -0.0871708 -0.992708 0.192996 0.0104922 -0.981143 -0.205431 0.0260334 -0.978325 
-0.0417919 -0.0702016 -0.996657 0.0550919 -0.0165187 -0.998345 -0.104836 0.0295682 -0.99405 
-0.40034 0.145605 -0.904725 -0.347227 0.12006 -0.930064 0.190313 0.0137234 -0.981628 
0.115145 0.048298 -0.992174 -0.019884 0.00781026 -0.999772 0.0820699 0.0579859 -0.994938 
-0.102324 0.0312572 -0.99426 0.187637 0.0598154 -0.980416 0.119083 0.0581355 -0.991181 
0.0577772 -0.117649 -0.991373 0.00415642 0.0253867 -0.999669 0.165379 -0.211904 -0.963196 
-0.155011 -0.113301 -0.981394 -0.0286905 -0.0673842 -0.997315 0.059009 -0.0874229 -0.994422 
-0.0890692 -0.104076 -0.990573 -0.362118 -0.0135329 -0.932034 -0.264497 -0.0399712 -0.963558 
0.22903 -0.0948339 -0.968789 0.110314 -0.196137 -0.974352 0.131547 -0.10252 -0.985994 
0.0426572 -0.205205 -0.977789 -0.0466199 -0.107882 -0.99307 -0.0582899 -0.0101434 -0.998248 
0.0786112 0.0481206 -0.995743 0.0784904 -0.1821 -0.980142 -0.0737378 -0.262742 -0.962044 
-0.000241554 -0.0837488 -0.996487 0.0265622 -0.35579 -0.934188 0.0385167 -0.28903 -0.956545 
0.026988 -0.289664 -0.956748 -0.0537627 -0.214314 -0.975284 -0.0124256 -0.226624 -0.973903 
-0.037382 -0.118752 -0.99222 0.00242743 -0.262784 -0.964852 0.0150795 -0.186164 -0.982403 
-0.106772 -0.31612 -0.942692 -0.0658177 -0.189524 -0.979668 -0.240173 -0.223026 -0.944762 
-0.222473 -0.23873 -0.945259 -0.220257 -0.227606 -0.948516 0.0659188 -0.175359 -0.982295 
0.0603635 -0.168577 -0.983838 0.0584474 -0.125797 -0.990333 0.0157992 -0.180034 -0.983534 
0.0282721 -0.116405 -0.992799 -0.0904288 -0.292597 -0.95195 -0.094069 -0.302048 -0.94864 
-0.0652809 -0.22692 -0.971723 
