# vtk DataFile Version 4.2
vtk output
ASCII
DATASET POLYDATA
POINTS 508 float
10.4656 -33.5542 -24.2938 -13.0987 -41.409 -19.6021 -5.24394 -41.409 -21.0052 
2.61084 -41.409 -21.8123 10.4656 -34.0597 -24.1482 10.4656 -41.409 -21.3362 
18.3204 -41.409 -19.326 -28.8083 -33.5542 -16.5452 -20.9535 -33.5542 -20.864 
-13.0987 -33.5542 -23.0285 -5.24394 -33.5542 -23.9613 9.0847 -33.5542 -24.1482 
2.61084 -33.5542 -23.4441 11.4343 -33.5542 -24.1482 10.4656 -29.1477 -24.1482 
18.3204 -33.5542 -23.0117 26.1752 -33.5542 -20.9646 -28.8083 -25.6995 -18.5401 
-20.9535 -25.6995 -22.5058 -13.0987 -25.6995 -23.482 -5.24394 -25.6995 -23.1469 
2.61084 -25.6995 -23.4999 10.4656 -25.6995 -24.0241 18.3204 -25.6995 -23.8869 
26.1752 -25.6995 -22.6035 34.03 -25.6995 -20.2121 -28.8083 -17.8447 -18.4504 
-20.9535 -17.8447 -21.8336 -13.0987 -17.8447 -23.1166 -5.24394 -17.8447 -22.2766 
2.61084 -17.8447 -22.577 10.4656 -17.8447 -23.4249 18.3204 -17.8447 -23.4422 
26.1752 -17.8447 -22.7507 34.03 -17.8447 -21.5637 41.8848 -17.8447 -18.3466 
-28.8083 -9.98989 -17.5595 -20.9535 -9.98989 -20.7104 -13.0987 -9.98989 -22.7878 
-5.24394 -9.98989 -22.2853 2.61084 -9.98989 -22.6164 10.4656 -9.98989 -22.809 
18.3204 -9.98989 -22.5334 26.1752 -9.98989 -22.825 34.03 -9.98989 -22.3272 
41.8848 -9.98989 -20.1441 -28.8083 -2.1351 -17.0114 -20.9535 -2.1351 -20.2195 
-13.0987 -2.1351 -23.2976 -5.24394 -2.1351 -22.6765 2.61084 -2.1351 -22.6499 
10.4656 -2.1351 -22.945 18.3204 -2.1351 -22.1025 26.1752 -2.1351 -22.4551 
34.03 -2.1351 -22.5612 41.8848 -2.1351 -20.8072 -28.8083 5.71968 -16.4584 
-20.9535 5.71968 -19.2659 -13.0987 5.71968 -22.1747 -5.24394 5.71968 -22.0936 
2.61084 5.71968 -22.5064 10.4656 5.71968 -22.6263 18.3204 5.71968 -21.9654 
26.1752 5.71968 -22.3979 34.03 5.71968 -22.092 41.8848 5.71968 -20.3182 
-20.9535 13.5745 -17.7419 -13.0987 13.5745 -19.7264 -5.24394 13.5745 -20.96 
2.61084 13.5745 -21.4566 10.4656 13.5745 -21.1747 18.3204 13.5745 -21.2239 
26.1752 13.5745 -21.4314 34.03 13.5745 -20.9573 41.8848 13.5745 -18.862 
-13.0987 21.4292 -17.1334 -5.24394 21.4292 -17.512 2.61084 21.4292 -18.3667 
10.4656 21.4292 -19.2102 18.3204 21.4292 -19.6669 26.1752 21.4292 -19.7707 
34.03 21.4292 -18.7222 10.4656 29.284 -17.3515 18.3204 29.284 -17.2549 
26.1752 29.284 -16.8617 -13.0987 -44.8874 -16.2935 -5.24394 -46.3474 -16.2935 
2.61084 -47.3272 -16.2935 2.61084 -49.2638 -8.91981 10.4656 -46.3769 -16.2935 
18.3204 -44.2079 -16.2935 -28.8083 -33.8999 -16.2935 -20.5252 -41.409 -16.2935 
-20.9535 -41.119 -16.2935 -20.9535 -41.409 -15.841 23.7344 -41.409 -16.2935 
26.1752 -39.7793 -16.2935 26.1752 -41.409 -11.7393 -29.0806 -33.5542 -16.2935 
33.4438 -33.5542 -16.2935 34.03 -32.9035 -16.2935 34.03 -33.5542 -15.3313 
-32.0274 -25.6995 -16.2935 -36.6631 -25.6995 -11.7728 39.5967 -25.6995 -16.2935 
41.8848 -22.1578 -16.2935 41.8848 -25.6995 -12.4899 -32.6397 -17.8447 -16.2935 
-36.6631 -17.8447 -13.6742 44.9067 -17.8447 -16.2935 -44.5179 -9.98989 -8.77969 
-31.8001 -9.98989 -16.2935 -36.6631 -9.98989 -14.1689 48.3427 -9.98989 -16.2935 
49.7395 -9.98989 -14.3191 -44.5179 -2.1351 -9.55484 -30.8949 -2.1351 -16.2935 
-36.6631 -2.1351 -14.1469 49.4201 -2.1351 -16.2935 49.7395 -2.1351 -15.9634 
-44.5179 5.71968 -9.06176 -29.2999 5.71968 -16.2935 -36.6631 5.71968 -13.6469 
-28.8083 7.16756 -16.2935 49.0435 5.71968 -16.2935 49.7395 5.71968 -15.6875 
-36.6631 13.5745 -12.2096 -26.1888 13.5745 -16.2935 -28.8083 13.5745 -15.5734 
-20.9535 20.6458 -16.2935 46.4431 13.5745 -16.2935 41.8848 19.9952 -16.2935 
49.7395 13.5745 -13.0448 -36.6631 21.4292 -9.47071 -28.8083 21.4292 -13.6273 
-19.717 21.4292 -16.2935 -20.9535 21.4292 -16.1264 -13.0987 24.1077 -16.2935 
-5.24394 27.1912 -16.2935 2.61084 29.2283 -16.2935 40.3285 21.4292 -16.2935 
34.03 26.3833 -16.2935 41.8848 21.4292 -15.5385 -28.8083 29.284 -9.80357 
-20.9535 29.284 -13.1227 -13.0987 29.284 -14.6184 -5.24394 29.284 -15.8191 
2.71718 29.284 -16.2935 2.61084 29.284 -16.2785 10.4656 31.4144 -16.2935 
18.3204 30.8584 -16.2935 28.4648 29.284 -16.2935 26.1752 30.1555 -16.2935 
34.03 29.284 -14.4113 41.8848 29.284 -8.61461 -13.0987 37.1388 -9.94495 
-5.24394 37.1388 -11.6862 2.61084 37.1388 -12.4638 10.4656 37.1388 -12.2211 
18.3204 37.1388 -11.3312 26.1752 37.1388 -8.81543 2.61084 -49.3571 -8.43868 
-20.9535 -44.355 -8.43868 -13.0987 -47.5554 -8.43868 -0.684592 -49.2638 -8.43868 
-5.24394 -49.1356 -8.43868 3.2244 -49.2638 -8.43868 2.61084 -49.2638 -8.03608 
10.4656 -48.1577 -8.43868 18.3204 -45.9082 -8.43868 26.1752 -42.2969 -8.43868 
-25.5458 -41.409 -8.43868 -28.8083 -38.9549 -8.43868 27.5972 -41.409 -8.43868 
26.1752 -41.409 -5.66712 34.03 -36.7141 -8.43868 -34.0609 -33.5542 -8.43868 
-36.6631 -29.6051 -8.43868 37.3361 -33.5542 -8.43868 41.8848 -28.2888 -8.43868 
-39.106 -25.6995 -8.43868 43.8547 -25.6995 -8.43868 -42.263 -17.8447 -8.43868 
-44.5179 -11.0823 -8.43868 -44.5179 -17.8447 -4.73236 48.7207 -17.8447 -8.43868 
49.7395 -15.5974 -8.43868 -44.85 -9.98989 -8.43868 52.0937 -9.98989 -8.43868 
-45.6969 -2.1351 -8.43868 53.821 -2.1351 -8.43868 -45.1847 5.71968 -8.43868 
-44.5179 8.1246 -8.43868 54.2256 5.71968 -8.43868 -42.4653 13.5745 -8.43868 
-44.5179 13.5745 -6.64378 52.3146 13.5745 -8.43868 49.7395 19.2335 -8.43868 
-38.1252 21.4292 -8.43868 -44.5179 21.4292 -2.5677 -36.6631 23.3131 -8.43868 
48.4887 21.4292 -8.43868 49.7395 21.4292 -2.33157 -31.1503 29.284 -8.43868 
-36.6631 29.284 -4.10507 -28.8083 31.051 -8.43868 -20.9535 35.8212 -8.43868 
34.03 34.4175 -8.43868 42.033 29.284 -8.43868 41.8848 29.4323 -8.43868 
-28.8083 37.1388 -0.80959 -17.7247 37.1388 -8.43868 -20.9535 37.1388 -6.64054 
-13.0987 38.5339 -8.43868 -5.24394 40.0284 -8.43868 2.61084 40.5037 -8.43868 
10.4656 40.2229 -8.43868 18.3204 39.3068 -8.43868 26.8811 37.1388 -8.43868 
26.1752 37.3797 -8.43868 34.03 37.1388 -0.833058 -20.9535 -44.0143 -0.583894 
-13.0987 -46.8486 -0.583894 -5.24394 -47.8896 -0.583894 2.61084 -47.2014 -0.583894 
10.4656 -45.4341 -0.583894 18.3204 -43.2886 -0.583894 -25.6184 -41.409 -0.583894 
-28.8083 -39.3983 -0.583894 -20.9535 -41.409 5.61151 2.61084 -41.409 6.76929 
10.4656 -41.409 4.20507 22.6256 -41.409 -0.583894 18.3204 -41.409 1.68081 
26.1752 -39.4425 -0.583894 34.03 -34.3451 -0.583894 -35.7279 -33.5542 -0.583894 
-36.6631 -32.6263 -0.583894 26.1752 -33.5542 5.67366 34.8942 -33.5542 -0.583894 
34.03 -33.5542 0.414678 41.8848 -25.7893 -0.583894 -42.2592 -25.6995 -0.583894 
-44.5179 -21.7801 -0.583894 34.03 -25.6995 6.32443 41.9525 -25.6995 -0.583894 
41.8848 -25.6995 -0.488901 -46.731 -17.8447 -0.583894 46.6181 -17.8447 -0.583894 
41.8848 -17.8447 4.34507 49.7395 -12.5009 -0.583894 -49.6365 -9.98989 -0.583894 
50.8797 -9.98989 -0.583894 49.7395 -9.98989 1.23774 -50.7548 -2.1351 -0.583894 
52.7819 -2.1351 -0.583894 49.7395 -2.1351 4.03424 -50.7744 5.71968 -0.583894 
-52.3726 5.71968 6.91489 53.8533 5.71968 -0.583894 49.7395 5.71968 6.73915 
-49.5816 13.5745 -0.583894 52.6784 13.5745 -0.583894 49.7395 13.5745 5.37151 
-46.3074 21.4292 -0.583894 -44.5179 24.4095 -0.583894 50.0507 21.4292 -0.583894 
49.7395 21.9641 -0.583894 49.7395 21.4292 0.189979 -40.7155 29.284 -0.583894 
-44.5179 29.284 6.00085 -36.6631 32.4926 -0.583894 44.56 29.284 -0.583894 
41.8848 32.0893 -0.583894 -29.0871 37.1388 -0.583894 -28.8083 37.269 -0.583894 
-20.9535 40.0331 -0.583894 -13.0987 41.8942 -0.583894 -5.24394 42.8323 -0.583894 
2.61084 43.2084 -0.583894 10.4656 42.9361 -0.583894 18.3204 41.7924 -0.583894 
26.1752 40.2154 -0.583894 34.185 37.1388 -0.583894 34.03 37.2221 -0.583894 
34.03 37.1388 0.592713 -13.0987 -43.1722 7.27089 -5.24394 -43.3214 7.27089 
-28.8083 -36.4398 7.27089 -18.6249 -41.409 7.27089 -20.9535 -40.6048 7.27089 
-13.0987 -41.409 9.39146 1.18079 -41.409 7.27089 -5.24394 -41.409 9.22811 
2.61084 -40.8367 7.27089 10.4656 -37.5295 7.27089 18.3204 -34.8614 7.27089 
-33.0162 -33.5542 7.27089 -36.6631 -30.7191 7.27089 -28.8083 -33.5542 10.9959 
-20.9535 -33.5542 14.5297 -5.24394 -33.5542 14.6798 2.61084 -33.5542 12.0465 
10.4656 -33.5542 9.70206 21.7675 -33.5542 7.27089 18.3204 -33.5542 8.26808 
26.1752 -31.2539 7.27089 -41.4652 -25.6995 7.27089 -44.5179 -21.8806 7.27089 
-36.6631 -25.6995 13.2586 10.4656 -25.6995 13.4235 18.3204 -25.6995 12.2384 
32.4035 -25.6995 7.27089 26.1752 -25.6995 10.1686 34.03 -23.5173 7.27089 
-46.9661 -17.8447 7.27089 -44.5179 -17.8447 12.1193 18.3204 -17.8447 14.7364 
26.1752 -17.8447 12.6052 37.686 -17.8447 7.27089 34.03 -17.8447 9.3249 
41.8848 -12.1425 7.27089 -50.1195 -9.98989 7.27089 26.1752 -9.98989 13.6828 
34.03 -9.98989 11.687 43.2924 -9.98989 7.27089 41.8848 -9.98989 8.14691 
-51.6825 -2.1351 7.27089 -52.3726 5.00132 7.27089 34.03 -2.1351 13.966 
46.6537 -2.1351 7.27089 41.8848 -2.1351 10.8231 -52.4407 5.71968 7.27089 
-52.3726 6.69637 7.27089 -52.3726 5.71968 7.52902 49.3011 5.71968 7.27089 
41.8848 5.71968 12.7682 -51.8839 13.5745 7.27089 48.5319 13.5745 7.27089 
41.8848 13.5745 13.3089 -49.8421 21.4292 7.27089 46.563 21.4292 7.27089 
41.8848 21.4292 12.3405 -44.965 29.284 7.27089 -44.5179 29.7723 7.27089 
-44.5179 29.284 11.5484 -36.6631 36.2054 7.27089 34.03 36.6361 7.27089 
42.0983 29.284 7.27089 41.8848 29.5294 7.27089 41.8848 29.284 7.52557 
-34.5803 37.1388 7.27089 -28.8083 39.2914 7.27089 -20.9535 41.0975 7.27089 
-13.0987 42.2139 7.27089 -5.24394 43.0756 7.27089 2.61084 43.8027 7.27089 
10.4656 43.4711 7.27089 18.3204 42.4801 7.27089 33.1238 37.1388 7.27089 
26.1752 40.4686 7.27089 26.1752 37.1388 15.0845 -13.0987 -33.6005 15.1257 
-28.8083 -29.1448 15.1257 -13.4928 -33.5542 15.1257 -20.9535 -32.48 15.1257 
-12.6352 -33.5542 15.1257 -13.0987 -33.5542 15.1519 -5.24394 -32.4232 15.1257 
2.61084 -26.1499 15.1257 -33.8682 -25.6995 15.1257 -36.6631 -23.3767 15.1257 
-28.8083 -25.6995 17.1404 -20.9535 -25.6995 17.9977 -13.0987 -25.6995 18.0475 
-5.24394 -25.6995 17.3813 3.35596 -25.6995 15.1257 2.61084 -25.6995 15.3145 
10.4656 -21.9118 15.1257 -41.6951 -17.8447 15.1257 -44.5179 -12.5294 15.1257 
-36.6631 -17.8447 17.882 -28.8083 -17.8447 19.681 -20.9535 -17.8447 19.9719 
[...]
POINT_DATA 508
SCALARS ImageScalars float
LOOKUP_TABLE default
0 0 0 0 0 0 0 0 0 
0 0 0 0 0 0 0 0 0 
0 0 0 0 0 0 0 0 0 
0 0 0 0 0 0 0 0 0 
0 0 0 0 0 0 0 0 0 
0 0 0 0 0 0 0 0 0 
0 0 0 0 0 0 0 0 0 
0 0 0 0 0 0 0 0 0 
0 0 0 0 0 0 0 0 0 
0 0 0 0 0 0 0 0 0 
0 0 0 0 0 0 0 0 0 
0 0 0 0 0 0 0 0 0 
0 0 0 0 0 0 0 0 0 
0 0 0 0 0 0 0 0 0 
0 0 0 0 0 0 0 0 0 
0 0 0 0 0 0 0 0 0 
0 0 0 0 0 0 0 0 0 
0 0 0 0 0 0 0 0 0 
0 0 0 0 0 0 0 0 0 
0 0 0 0 0 0 0 0 0 
0 0 0 0 0 0 0 0 0 
0 0 0 0 0 0 0 0 0 
0 0 0 0 0 0 0 0 0 
0 0 0 0 0 0 0 0 0 
0 0 0 0 0 0 0 0 0 
0 0 0 0 0 0 0 0 0 
0 0 0 0 0 0 0 0 0 
0 0 0 0 0 0 0 0 0 
0 0 0 0 0 0 0 0 0 
0 0 0 0 0 0 0 0 0 
0 0 0 0 0 0 0 0 0 
0 0 0 0 0 0 0 0 0 
0 0 0 0 0 0 0 0 0 
0 0 0 0 0 0 0 0 0 
0 0 0 0 0 0 0 0 0 
0 0 0 0 0 0 0 0 0 
0 0 0 0 0 0 0 0 0 
0 0 0 0 0 0 0 0 0 
0 0 0 0 0 0 0 0 0 
0 0 0 0 0 0 0 0 0 
0 0 0 0 0 0 0 0 0 
0 0 0 0 0 0 0 0 0 
0 0 0 0 0 0 0 0 0 
0 0 0 0 0 0 0 0 0 
0 0 0 0 0 0 0 0 0 
0 0 0 0 0 0 0 0 0 
0 0 0 0 0 0 0 0 0 
0 0 0 0 0 0 0 0 0 
0 0 0 0 0 0 0 0 0 
0 0 0 0 0 0 0 0 0 
0 0 0 0 0 0 0 0 0 
0 0 0 0 0 0 0 0 0 
0 0 0 0 0 0 0 0 0 
0 0 0 0 0 0 0 0 0 
0 0 0 0 0 0 0 0 0 
0 0 0 0 0 0 0 0 0 
0 0 0 0 
NORMALS Normals float
-0.0234155 0.136311 0.990389 0.25424 0.594935 0.762505 0.121438 0.503744 0.855275 
0.0170067 0.467037 0.884074 -0.0301067 0.155915 0.987312 -0.130232 0.536667 0.833683 
-0.331935 0.65755 0.676349 0.629952 0.401727 0.664661 0.354036 0.325503 0.876759 
0.1841 0.214877 0.959132 0.0203997 0.0949494 0.995273 -0.0161514 0.125525 0.991959 
0.0206131 0.0831381 0.996325 -0.0435256 0.146872 0.988197 0.00316097 0.0294497 0.999561 
-0.191711 0.23869 0.951984 -0.389678 0.378135 0.839741 0.534093 0.0975379 0.83978 
0.269653 0.0532593 0.961484 0.0367729 0.0040656 0.999315 0.00141165 -0.102665 0.994715 
0.0557349 -0.0530109 0.997037 0.0246586 -0.055363 0.998162 -0.0853229 0.0272416 0.995981 
-0.228378 0.102677 0.968143 -0.415445 0.313479 0.853895 0.453196 -0.0565048 0.889618 
0.281279 -0.10625 0.953726 0.0245244 -0.044197 0.998722 -0.0346107 -0.0549921 0.997887 
0.0740142 -0.0570147 0.995626 0.0532094 -0.0771529 0.995598 -0.0424501 -0.0847585 0.995497 
-0.119097 0.0133708 0.992793 -0.251923 0.125426 0.959585 -0.516919 0.297519 0.802669 
0.378399 -0.0844388 0.921783 0.32033 -0.0973853 0.942287 0.0892085 0.0108039 0.995954 
-0.0113706 0.0248129 0.999627 0.0336663 0.00451727 0.999423 -0.00526056 -0.0308867 0.999509 
0.000922215 -0.0855396 0.996334 -0.0128572 -0.0189625 0.999738 -0.156699 0.0633978 0.985609 
-0.389331 0.145374 0.909554 0.340876 -0.06425 0.93791 0.387331 -0.0864266 0.917881 
0.139511 -0.0360529 0.989564 -0.0414631 -0.0126213 0.99906 0.0171745 -0.006939 0.999828 
-0.0362376 -0.0118422 0.999273 -0.0296972 -0.0357736 0.998919 0.0295762 -0.0274928 0.999184 
-0.0972476 -0.0146125 0.995153 -0.348002 0.0100244 0.93744 0.319137 -0.0851823 0.943873 
0.343525 -0.145729 0.927768 0.167695 -0.212702 0.962619 0.0207441 -0.0996233 0.994809 
0.0344765 -0.0683969 0.997062 -0.0349448 -0.107997 0.993537 -0.0146693 -0.0552204 0.998366 
0.00870834 -0.0645456 0.997877 -0.12328 -0.1047 0.986833 -0.343901 -0.120092 0.931295 
0.247159 -0.19063 0.950038 0.189849 -0.310268 0.931499 0.103862 -0.295793 0.949589 
0.0112757 -0.271176 0.962464 -0.0127797 -0.213915 0.976769 0.0160951 -0.143763 0.989481 
-0.0176709 -0.160769 0.986834 -0.15289 -0.195305 0.968752 -0.38625 -0.249655 0.887966 
0.085032 -0.297391 0.950962 0.0767931 -0.299917 0.950869 0.10199 -0.294745 0.950117 
0.0812741 -0.238942 0.967627 0.0338397 -0.23352 0.971763 -0.0537421 -0.277522 0.959215 
-0.226564 -0.355817 0.906677 0.0587521 -0.351678 0.934276 -0.0299623 -0.425101 0.90465 
-0.132222 -0.477641 0.868548 0.269447 0.78187 0.562208 0.132222 0.82625 0.547565 
-0.00353023 0.851737 0.523957 -0.0594451 0.998192 0.00891784 -0.174405 0.86194 0.476069 
-0.338694 0.814195 0.471564 0.633174 0.41674 0.652241 0.457785 0.685205 0.566503 
0.466664 0.675916 0.570405 0.47155 0.69827 0.538571 -0.454177 0.738746 0.497974 
-0.498713 0.688089 0.527085 -0.512586 0.838073 0.186789 0.637025 0.405671 0.655462 
-0.596098 0.562238 0.573198 -0.59666 0.553916 0.580667 -0.623181 0.596204 0.506148 
0.611843 0.16064 0.774495 0.753035 0.324818 0.572216 -0.653036 0.448313 0.610377 
-0.646518 0.414888 0.640221 -0.774538 0.542785 0.324768 0.513948 0.00182544 0.857819 
0.608964 0.100704 0.786779 -0.643076 0.370743 0.670077 0.714373 0.163801 0.680323 
0.404904 -0.0458305 0.91321 0.47216 0.0238137 0.881191 -0.707854 0.184518 0.681833 
-0.832477 0.228562 0.504719 0.645646 0.0132897 0.763522 0.355469 -0.0539206 0.933131 
0.424242 -0.0293509 0.905073 -0.708116 0.0264636 0.7056 -0.735217 0.031861 0.677082 
0.640483 -0.133499 0.75628 0.323559 -0.0866261 0.942234 0.421144 -0.10907 0.900412 
0.317721 -0.0973197 0.943177 -0.650106 -0.108464 0.752062 -0.700397 -0.108335 0.705484 
0.46771 -0.218506 0.856447 0.289561 -0.163228 0.943139 0.316145 -0.157946 0.935471 
0.201038 -0.254327 0.945992 -0.57376 -0.287297 0.766981 -0.458622 -0.410062 0.788362 
-0.778803 -0.320897 0.538973 0.506625 -0.371872 0.777844 0.354825 -0.314949 0.880288 
0.178721 -0.26779 0.946756 0.197324 -0.262876 0.944436 0.105755 -0.32164 0.940937 
0.0927197 -0.296975 0.950373 0.0934836 -0.30688 0.947146 -0.424675 -0.43289 0.795146 
-0.298347 -0.508047 0.808009 -0.485718 -0.454023 0.746954 0.409996 -0.505441 0.759231 
0.262842 -0.437281 0.860058 0.152074 -0.386227 0.909781 0.0995505 -0.306252 0.946731 
0.0929215 -0.307723 0.946928 0.0934154 -0.307276 0.947024 0.0309769 -0.424653 0.904826 
-0.0458724 -0.479554 0.876312 -0.191075 -0.511973 0.837481 -0.143741 -0.510725 0.847643 
-0.354782 -0.614361 0.704762 -0.606444 -0.674194 0.421531 0.215082 -0.71099 0.669502 
0.131039 -0.66344 0.736666 0.029446 -0.666594 0.744839 -0.0530733 -0.714549 0.69757 
-0.134538 -0.776447 0.615653 -0.260437 -0.850432 0.457098 -0.0618222 0.997911 -0.0187481 
0.466042 0.87415 0.136625 0.279223 0.955803 0.0920566 0.0107101 0.99983 0.0149977 
0.109924 0.991984 0.0623262 -0.0734163 0.997082 -0.0209206 -0.0651841 0.997266 -0.0348131 
-0.210289 0.976567 -0.0457694 -0.336709 0.939713 -0.0597219 -0.491267 0.870585 -0.0271545 
0.562278 0.809643 0.16829 0.645533 0.734148 0.21051 -0.519089 0.854518 -0.0185874 
-0.487068 0.855887 -0.173844 -0.657603 0.752624 0.0334023 0.750095 0.587316 0.304002 
0.781854 0.483102 0.394101 -0.713775 0.698713 0.0482234 -0.786176 0.613146 0.0773302 
0.788804 0.400626 0.466141 -0.811654 0.577859 0.085423 0.73763 0.275951 0.616241 
0.726546 0.186495 0.661325 0.826356 0.362344 0.431096 -0.886175 0.46069 0.0495889 
-0.908975 0.412077 0.0629022 0.725617 0.165998 0.667776 -0.949448 0.296282 0.103753 
0.692102 0.0191252 0.721546 -0.978711 0.130902 0.158081 0.665124 -0.130778 0.735192 
0.645638 -0.174997 0.743322 -0.969604 -0.096932 0.224661 0.597701 -0.256724 0.759504 
0.666986 -0.271063 0.694014 -0.908277 -0.319158 0.2705 -0.831891 -0.44894 0.326206 
0.532973 -0.379034 0.756487 0.6988 -0.397736 0.594546 0.51458 -0.414171 0.750779 
-0.78641 -0.500917 0.361444 -0.890851 -0.454288 -0.00278966 0.446723 -0.518555 0.729068 
0.542804 -0.583765 0.603806 0.417409 -0.561777 0.714266 0.324785 -0.704934 0.630542 
-0.385631 -0.797305 0.46432 -0.61153 -0.674992 0.412816 -0.607536 -0.677932 0.413893 
0.374457 -0.845717 0.38019 0.283939 -0.741701 0.607666 0.319335 -0.785901 0.529513 
0.217371 -0.76935 0.600709 0.11521 -0.821558 0.558363 0.0116726 -0.853483 0.52099 
-0.0739213 -0.854118 0.514799 -0.161506 -0.86338 0.478006 -0.271324 -0.854047 0.443833 
-0.261761 -0.857125 0.443642 -0.422628 -0.897132 0.128605 0.41409 0.889256 -0.194303 
0.220984 0.945424 -0.239455 0.0253861 0.950029 -0.311129 -0.139019 0.906172 -0.399407 
-0.223903 0.838925 -0.496056 -0.298095 0.809015 -0.50659 0.508276 0.846919 -0.156155 
0.576985 0.80772 -0.121149 0.359204 0.82445 -0.437326 -0.243128 0.650198 -0.719814 
-0.234905 0.684431 -0.690199 -0.37597 0.786717 -0.489616 -0.284742 0.749011 -0.598252 
-0.436294 0.763159 -0.476693 -0.592511 0.689639 -0.416327 0.695721 0.718273 -0.00752779 
0.715848 0.698051 0.016926 -0.334828 0.595959 -0.729879 -0.61029 0.675425 -0.413942 
-0.586537 0.665959 -0.460948 -0.742427 0.539114 -0.397692 0.814047 0.565772 0.13126 
0.852136 0.482601 0.202389 -0.47844 0.394221 -0.784656 -0.743377 0.537735 -0.397783 
-0.741655 0.536829 -0.402198 0.888693 0.398078 0.227505 -0.771164 0.463196 -0.436757 
-0.619959 0.387359 -0.682352 -0.845973 0.376551 -0.377542 0.93081 0.229415 0.284538 
-0.870971 0.325477 -0.368067 -0.826346 0.32548 -0.459582 0.942354 0.067233 0.327795 
-0.91792 0.185769 -0.35059 -0.797755 0.205446 -0.566902 0.917054 -0.0601211 0.394206 
0.999782 0.00999807 -0.0183099 -0.967518 -0.0120708 -0.252512 -0.75457 0.063215 -0.653167 
0.862901 -0.218438 0.455726 -0.957465 -0.218419 -0.188557 -0.851948 -0.168655 -0.495721 
0.750725 -0.40708 0.520286 0.710582 -0.47616 0.51802 -0.896359 -0.431824 -0.100342 
-0.889484 -0.446814 -0.0957823 -0.89449 -0.424112 -0.141476 0.625929 -0.60575 0.491203 
0.74194 -0.65015 0.1638 0.540649 -0.692043 0.478304 -0.738494 -0.674256 -0.0022864 
-0.668157 -0.74388 0.0144762 0.378071 -0.846549 0.374723 0.372765 -0.850005 0.372206 
0.267094 -0.924843 0.270787 0.173523 -0.963635 0.203216 0.0809375 -0.981639 0.172724 
0.00643964 -0.98117 0.19304 -0.0876953 -0.978997 0.184048 -0.160851 -0.96909 0.187059 
-0.267979 -0.946318 0.180745 -0.42796 -0.89624 0.116633 -0.42408 -0.897847 0.118438 
-0.441505 -0.895195 0.0608282 0.141327 0.813552 -0.564056 -0.088815 0.755125 -0.649537 
0.471612 0.768005 -0.433301 0.280707 0.802385 -0.52667 0.335883 0.792421 -0.509168 
0.117288 0.751155 -0.649623 -0.223788 0.653471 -0.723115 -0.118345 0.690333 -0.713747 
-0.248678 0.625353 -0.739657 -0.231132 0.557395 -0.797426 -0.213211 0.565593 -0.796647 
0.543492 0.744006 -0.38868 0.622573 0.702071 -0.345686 0.414619 0.701062 -0.580175 
0.169186 0.540053 -0.824451 -0.176845 0.438539 -0.881141 -0.276142 0.423718 -0.862675 
-0.207463 0.474428 -0.855498 -0.251473 0.557137 -0.791429 -0.201471 0.538481 -0.818198 
-0.316048 0.514959 -0.796825 0.725701 0.624461 -0.288801 0.808878 0.542847 -0.225906 
0.53867 0.57832 -0.612683 -0.172451 0.40776 -0.896656 -0.189086 0.369349 -0.909851 
-0.430897 0.376491 -0.820111 -0.317086 0.363696 -0.875889 -0.452639 0.355387 -0.817813 
0.868933 0.450446 -0.205069 0.753231 0.438657 -0.490125 -0.253497 0.173658 -0.951621 
-0.306925 0.201761 -0.930102 -0.493205 0.325077 -0.806891 -0.415751 0.294649 -0.860426 
-0.505218 0.323952 -0.799881 0.938452 0.289219 -0.188841 -0.22016 0.197643 -0.955231 
-0.31361 0.25504 -0.91466 -0.521521 0.313017 -0.793748 -0.478878 0.311811 -0.82064 
0.982723 0.139831 -0.121252 0.998787 0.0236757 -0.0431778 -0.287141 0.265895 -0.920244 
-0.635351 0.232745 -0.736315 -0.46307 0.25849 -0.847791 0.999265 0.0125182 -0.0362434 
0.999592 -0.00658209 -0.0277777 0.998632 0.0154527 -0.0499489 -0.727445 0.0706372 -0.68252 
-0.485451 0.132551 -0.864157 0.988526 -0.147232 0.0337404 -0.783571 -0.134044 -0.60667 
-0.531783 -0.0152495 -0.846743 0.910084 -0.405789 0.0841539 -0.781004 -0.309496 -0.542443 
-0.632954 -0.237311 -0.736921 0.752331 -0.650122 0.106489 0.738855 -0.66541 0.106408 
0.751891 -0.650352 -0.108173 0.504726 -0.854379 0.123648 -0.518718 -0.809985 -0.273596 
-0.730919 -0.542036 -0.414675 -0.726156 -0.549039 -0.413828 -0.725082 -0.539623 -0.427859 
0.443258 -0.889785 0.108648 0.298089 -0.951691 0.0736689 0.178692 -0.983902 0.00250454 
0.123875 -0.991874 -0.0289895 0.100342 -0.994665 -0.0239393 0.0251392 -0.999665 0.00619845 
-0.0820537 -0.99659 -0.00870399 -0.180253 -0.981766 -0.0603708 -0.492627 -0.832974 -0.251939 
-0.330272 -0.930889 -0.156097 -0.459526 -0.619908 -0.636043 0.00483361 0.435516 -0.900168 
0.291263 0.522306 -0.801475 0.0121877 0.439275 -0.89827 0.143223 0.498305 -0.85509 
-0.00612758 0.434709 -0.90055 0.00454628 0.434211 -0.9008 -0.174986 0.410563 -0.894884 
-0.243704 0.390211 -0.887887 0.408715 0.512085 -0.755461 0.462821 0.499032 -0.732642 
0.218367 0.418068 -0.88178 0.0534822 0.313232 -0.948169 -0.0388811 0.253307 -0.966604 
-0.152578 0.266095 -0.951795 -0.234255 0.392133 -0.889582 -0.240174 0.389916 -0.888978 
-0.206897 0.357685 -0.910635 0.570344 0.39569 -0.719817 0.644002 0.309093 -0.699802 
0.350722 0.347833 -0.869486 0.122214 0.268355 -0.955536 -0.0145245 0.226774 -0.973839 
-0.0418631 0.204091 -0.978056 -0.0314465 0.232215 -0.972156 -0.138733 0.273071 -0.951938 
-0.253005 0.195343 -0.947539 -0.251635 0.294409 -0.921956 -0.275678 0.150867 -0.949337 
0.65694 0.267365 -0.704944 0.619521 0.260866 -0.740367 0.306503 0.232947 -0.922926 
0.0719278 0.197916 -0.977576 -0.000267842 0.184198 -0.982889 -0.0374511 0.231556 -0.9721 
-0.0888756 0.173533 -0.98081 -0.176103 -0.0137278 -0.984276 -0.277292 0.109405 -0.954536 
-0.277952 0.147978 -0.949129 -0.284276 0.142813 -0.948046 -0.197641 0.236313 -0.951364 
0.74249 0.215159 -0.634363 0.579303 0.227631 -0.782683 0.255892 0.176367 -0.950481 
0.071799 0.199598 -0.977244 0.00844726 0.150655 -0.98855 -0.270127 0.163673 -0.948811 
-0.201792 0.14472 -0.968678 -0.0904325 0.0964901 -0.991217 -0.184629 0.212204 -0.959626 
-0.227098 0.261382 -0.93814 -0.186993 0.256272 -0.948345 -0.289213 0.209254 -0.934114 
0.828067 0.120177 -0.547597 0.559832 0.157503 -0.813499 -0.221609 0.203185 -0.953732 
-0.226628 0.0649006 -0.971817 -0.118408 0.123806 -0.985217 -0.159259 0.167189 -0.972977 
-0.342139 0.154029 -0.926939 -0.291769 0.162874 -0.942519 0.892116 -0.0773854 -0.445129 
0.588342 0.0202769 -0.808358 -0.238866 0.0816913 -0.96761 -0.178384 0.127057 -0.975723 
-0.0734494 0.106556 -0.99159 -0.15377 0.0845454 -0.984483 -0.405283 0.0329019 -0.913599 
-0.305567 0.0577742 -0.950416 0.866324 -0.33376 -0.3716 0.739873 -0.602519 -0.299263 
0.680296 -0.243675 -0.691245 -0.202489 0.178798 -0.962824 -0.176253 0.102976 -0.978944 
-0.207741 -0.0110089 -0.978122 -0.485753 -0.142791 -0.862354 -0.374797 -0.0732684 -0.924207 
0.721887 -0.625966 -0.295037 0.492619 -0.821915 -0.285976 0.426778 -0.474222 -0.770048 
-0.217538 -0.0487482 -0.974834 -0.259778 -0.04604 -0.96457 -0.459311 -0.616184 -0.639806 
-0.316356 -0.227259 -0.921017 -0.500068 -0.387801 -0.774301 -0.500037 -0.38828 -0.774081 
-0.499811 -0.387517 -0.77461 0.376741 -0.879859 -0.289679 0.264618 -0.912606 -0.311653 
0.250584 -0.859558 -0.445384 0.163845 -0.933034 -0.320316 0.137805 -0.777664 -0.613391 
0.147783 -0.927004 -0.344707 0.0983431 -0.684362 -0.72248 0.122891 -0.935671 -0.330783 
0.0631235 -0.593137 -0.802623 0.0213395 -0.945217 -0.325745 -0.0728728 -0.489072 -0.869194 
-0.167397 -0.903484 -0.394582 -0.178163 -0.483177 -0.857204 -0.459246 -0.618228 -0.637877 
-0.337414 -0.802082 -0.492764 -0.345983 -0.52872 -0.775082 -0.0408831 0.133778 -0.990168 
0.252485 0.177184 -0.95124 0.0716562 0.199588 -0.977256 -0.00817565 0.142414 -0.989773 
0.00422114 0.15118 -0.988497 -0.0731761 0.131557 -0.988604 -0.0406888 0.125683 -0.991236 
-0.159468 0.121397 -0.979711 0.291612 0.176957 -0.940026 0.252868 0.179755 -0.950656 
0.0358603 0.191814 -0.980776 -0.0710319 0.160153 -0.984533 -0.0318918 0.0735468 -0.996782 
-0.139279 0.138453 -0.980526 -0.0765699 0.086918 -0.993268 0.412071 0.0478869 -0.909893 
0.266071 0.0585033 -0.962177 0.0462689 0.0708309 -0.996415 -0.102502 0.117269 -0.987796 
-0.114627 0.133782 -0.984359 -0.179359 0.0739812 -0.980998 -0.126634 0.0684469 -0.989585 
-0.19313 0.117191 -0.974149 0.41856 -0.163041 -0.893434 0.364223 -0.329449 -0.871094 
0.283868 -0.133923 -0.949465 0.0878349 -0.0799443 -0.992922 -0.0164085 -0.0125756 -0.999786 
-0.0798517 0.0406118 -0.995979 -0.127859 0.0936448 -0.987361 -0.177573 0.154919 -0.971837 
-0.162786 0.142233 -0.976356 0.330944 -0.417474 -0.846281 0.21098 -0.492024 -0.84463 
0.179598 -0.359248 -0.915798 0.0824181 -0.520739 -0.849728 0.022133 -0.266073 -0.963699 
0.0401806 -0.46291 -0.885494 -0.00858422 -0.222931 -0.974797 0.0388395 -0.484729 -0.873802 
-0.0288904 -0.118112 -0.99258 -0.209113 -0.0495031 -0.976638 -0.0975125 -0.368267 -0.924592 
-0.152082 -0.0537792 -0.986904 
