# vtk DataFile Version 4.2
vtk output
ASCII
DATASET POLYDATA
POINTS 529 float
-16.9588 -30.7267 -14.4023 -9.62893 -30.7267 -14.8307 -2.29905 -30.7267 -15.3728 
5.03084 -30.7267 -15.5915 12.3607 -30.7267 -15.2946 19.6906 -30.7267 -14.7289 
-31.6186 -23.3968 -15.1356 -24.2887 -23.3968 -16.3893 -16.9588 -23.3968 -17.2406 
-9.62893 -23.3968 -17.9719 -2.29905 -23.3968 -18.4344 5.03084 -23.3968 -18.3254 
12.3607 -23.3968 -17.8244 19.6906 -23.3968 -17.2024 27.0205 -23.3968 -17.1418 
34.3504 -23.3968 -16.8107 41.6802 -23.3968 -14.8235 -38.9484 -16.0669 -16.8513 
-31.6186 -16.0669 -17.5794 -24.2887 -16.0669 -17.7836 -16.9588 -16.0669 -18.1201 
-9.62893 -16.0669 -18.8957 -2.29905 -16.0669 -19.0584 5.03084 -16.0669 -18.4876 
12.3607 -16.0669 -17.3796 19.6906 -16.0669 -17.8559 27.0205 -16.0669 -18.0995 
34.3504 -16.0669 -18.4063 41.6802 -16.0669 -17.8653 49.0101 -16.0669 -15.1742 
-46.2783 -8.73705 -16.9564 -38.9484 -8.73705 -18.3665 -31.6186 -8.73705 -18.5864 
-24.2887 -8.73705 -18.0757 -16.9588 -8.73705 -17.9108 -9.62893 -8.73705 -19.1919 
-2.29905 -8.73705 -18.2392 5.03084 -8.73705 -18.3492 12.3607 -8.73705 -16.3263 
19.6906 -8.73705 -17.2042 27.0205 -8.73705 -18.5722 34.3504 -8.73705 -19.5554 
41.6802 -8.73705 -18.5955 49.0101 -8.73705 -17.1223 -53.6082 -1.40717 -15.1028 
-46.2783 -1.40717 -18.7234 -38.9484 -1.40717 -19.6356 -31.6186 -1.40717 -19.3196 
-24.2887 -1.40717 -18.2467 -16.9588 -1.40717 -17.3272 -9.62893 -1.40717 -20.6845 
-2.29905 -1.40717 -17.2546 5.03084 -1.40717 -19.8164 12.3607 -1.40717 -19.3187 
19.6906 -1.40717 -16.9286 27.0205 -1.40717 -18.641 34.3504 -1.40717 -19.0188 
41.6802 -1.40717 -19.0599 49.0101 -1.40717 -17.8323 56.34 -1.40717 -14.4943 
-53.6082 5.92271 -16.21 -46.2783 5.92271 -19.7287 -38.9484 5.92271 -20.2414 
-31.6186 5.92271 -19.6505 -24.2887 5.92271 -18.3077 -16.9588 5.92271 -16.8368 
-9.62893 5.92271 -19.3604 -2.29905 5.92271 -17.6455 5.03084 5.92271 -18.2586 
12.3607 5.92271 -19.5309 19.6906 5.92271 -17.3745 27.0205 5.92271 -18.2019 
34.3504 5.92271 -18.9542 41.6802 5.92271 -18.7319 49.0101 5.92271 -17.573 
56.34 5.92271 -14.5592 -53.6082 13.2526 -16.0398 -46.2783 13.2526 -19.3276 
-38.9484 13.2526 -19.7257 -31.6186 13.2526 -19.3442 -24.2887 13.2526 -18.5294 
-16.9588 13.2526 -16.7038 -9.62893 13.2526 -16.8554 -2.29905 13.2526 -17.4781 
5.03084 13.2526 -16.4496 12.3607 13.2526 -16.8571 19.6906 13.2526 -16.6809 
27.0205 13.2526 -17.2353 34.3504 13.2526 -17.4738 41.6802 13.2526 -17.3427 
49.0101 13.2526 -16.4361 -46.2783 20.5825 -17.8742 -38.9484 20.5825 -19.0159 
-31.6186 20.5825 -18.1562 -24.2887 20.5825 -17.2997 -16.9588 20.5825 -15.168 
-9.62893 20.5825 -14.9243 -2.29905 20.5825 -15.8578 5.03084 20.5825 -15.5635 
12.3607 20.5825 -15.583 19.6906 20.5825 -15.7921 27.0205 20.5825 -15.5906 
34.3504 20.5825 -15.6399 41.6802 20.5825 -14.5232 -38.9484 27.9123 -14.7822 
-16.9588 -30.7443 -14.3886 -9.62893 -31.2611 -14.3886 -2.29905 -31.9688 -14.3886 
5.03084 -32.2832 -14.3886 12.3607 -31.8657 -14.3886 19.6906 -31.1558 -14.3886 
-31.6186 -24.6756 -14.3886 -31.6186 -30.7267 -8.69192 -17.0167 -30.7267 -14.3886 
-24.2887 -27.4013 -14.3886 -24.2887 -30.7267 -12.1337 21.6956 -30.7267 -14.3886 
27.0205 -28.9694 -14.3886 27.0205 -30.7267 -13.0545 34.3504 -26.81 -14.3886 
34.3504 -30.7267 -9.52465 41.6802 -23.9447 -14.3886 -34.4645 -23.3968 -14.3886 
-38.9484 -20.8927 -14.3886 -38.9484 -23.3968 -12.7521 42.4437 -23.3968 -14.3886 
49.0101 -17.3454 -14.3886 49.0101 -23.3968 -7.17024 -45.6272 -16.0669 -14.3886 
-46.2783 -15.4584 -14.3886 -46.2783 -16.0669 -14.0945 50.1695 -16.0669 -14.3886 
56.34 -16.0669 -7.075 -51.0108 -8.73705 -14.3886 -53.6082 -3.85924 -14.3886 
-53.6082 -8.73705 -12.4168 54.2343 -8.73705 -14.3886 56.34 -1.92893 -14.3886 
56.34 -8.73705 -12.6358 -54.5715 -1.40717 -14.3886 56.48 -1.40717 -14.3886 
-55.8979 5.92271 -14.3886 56.6019 5.92271 -14.3886 56.34 6.30504 -14.3886 
-56.3347 13.2526 -14.3886 -53.6082 18.3429 -14.3886 52.7262 13.2526 -14.3886 
49.0101 17.2076 -14.3886 56.34 13.2526 -11.5488 -52.4258 20.5825 -14.3886 
-53.6082 20.5825 -13.1706 -46.2783 25.7549 -14.3886 -31.6186 27.5341 -14.3886 
-24.2887 25.4219 -14.3886 -16.9588 22.3683 -14.3886 -9.62893 21.5898 -14.3886 
-2.29905 23.0075 -14.3886 5.03084 22.8357 -14.3886 12.3607 23.5918 -14.3886 
19.6906 24.4565 -14.3886 27.0205 23.6407 -14.3886 34.3504 23.6633 -14.3886 
42.1328 20.5825 -14.3886 41.6802 20.8235 -14.3886 49.0101 20.5825 -12.0323 
-40.3199 27.9123 -14.3886 -46.2783 27.9123 -11.7444 -34.3155 27.9123 -14.3886 
-38.9484 28.3075 -14.3886 -31.6186 27.9123 -14.1052 -24.2887 27.9123 -12.3242 
-16.9588 27.9123 -10.589 -9.62893 27.9123 -9.62702 -2.29905 27.9123 -9.91445 
5.03084 27.9123 -10.4822 12.3607 27.9123 -12.0331 19.6906 27.9123 -12.7684 
27.0205 27.9123 -12.4742 34.3504 27.9123 -12.502 41.6802 27.9123 -9.55717 
-31.6186 -31.8383 -7.05874 -24.2887 -34.673 -7.05874 -16.9588 -36.3186 -7.05874 
-9.62893 -37.0009 -7.05874 -9.62893 -38.0566 0.0580226 -2.29905 -37.2881 -7.05874 
5.03084 -37.4105 -7.05874 12.3607 -37.0268 -7.05874 19.6906 -36.0375 -7.05874 
27.0205 -34.5499 -7.05874 34.3504 -31.9766 -7.05874 -33.8301 -30.7267 -7.05874 
-38.9484 -28.0573 -7.05874 37.1336 -30.7267 -7.05874 41.6802 -28.4982 -7.05874 
49.0101 -23.4654 -7.05874 -45.6029 -23.3968 -7.05874 -46.2783 -22.8628 -7.05874 
-46.2783 -23.3968 -5.4014 49.0904 -23.3968 -7.05874 49.0101 -23.3968 -3.45702 
56.34 -16.0801 -7.05874 -52.9138 -16.0669 -7.05874 -53.6082 -15.0999 -7.05874 
-53.6082 -16.0669 -4.77473 56.3498 -16.0669 -7.05874 56.34 -16.0669 -6.30989 
-57.5089 -8.73705 -7.05874 60.3347 -8.73705 -7.05874 -59.8019 -1.40717 -7.05874 
62.1485 -1.40717 -7.05874 -60.5105 5.92271 -7.05874 62.9696 5.92271 -7.05874 
-60.7995 13.2526 -7.05874 60.7795 13.2526 -7.05874 56.34 19.8927 -7.05874 
-57.4937 20.5825 -7.05874 -53.6082 25.8274 -7.05874 55.7429 20.5825 -7.05874 
49.0101 26.422 -7.05874 56.34 20.5825 -5.68697 -51.1036 27.9123 -7.05874 
-46.2783 31.2142 -7.05874 -38.9484 32.306 -7.05874 -31.6186 33.362 -7.05874 
-24.2887 31.6516 -7.05874 -16.9588 30.213 -7.05874 -9.62893 29.7556 -7.05874 
-2.29905 29.8236 -7.05874 5.03084 30.3249 -7.05874 12.3607 31.8644 -7.05874 
19.6906 33.5311 -7.05874 27.0205 34.0229 -7.05874 34.3504 32.9054 -7.05874 
46.4454 27.9123 -7.05874 41.6802 30.3332 -7.05874 49.0101 27.9123 -3.89811 
19.6906 35.2422 -2.78968 27.0205 35.2422 -3.89953 34.3504 35.2422 -1.14423 
-9.62893 -38.0859 0.271139 -31.6186 -33.3917 0.271139 -24.2887 -35.9999 0.271139 
-10.0748 -38.0566 0.271139 -16.9588 -37.6039 0.271139 -7.96157 -38.0566 0.271139 
-9.62893 -38.0566 0.39241 -2.29905 -37.9577 0.271139 5.03084 -37.6798 0.271139 
12.3607 -37.176 0.271139 19.6906 -36.2315 0.271139 27.0205 -34.6656 0.271139 
34.3504 -32.2856 0.271139 -46.2783 -25.1052 0.271139 -37.1286 -30.7267 0.271139 
-38.9484 -29.8546 0.271139 38.0142 -30.7267 0.271139 34.3504 -30.7267 4.07221 
41.6802 -28.8834 0.271139 -48.5936 -23.3968 0.271139 -53.6082 -18.1497 0.271139 
48.9175 -23.3968 0.271139 49.0101 -23.3195 0.271139 -54.9612 -16.0669 0.271139 
-53.6082 -16.0669 6.85785 56.2342 -16.0669 0.271139 56.34 -15.9067 0.271139 
-58.6568 -8.73705 0.271139 60.6317 -8.73705 0.271139 -60.4689 -1.40717 0.271139 
62.781 -1.40717 0.271139 -60.5374 5.92271 0.271139 63.4455 5.92271 0.271139 
-60.4236 13.2526 0.271139 61.9309 13.2526 0.271139 -57.4429 20.5825 0.271139 
-53.6082 26.0444 0.271139 58.5146 20.5825 0.271139 56.34 22.8377 0.271139 
56.34 20.5825 4.45626 -51.4978 27.9123 0.271139 -46.2783 30.9628 0.271139 
-46.2783 27.9123 6.93896 -38.9484 32.8704 0.271139 -31.6186 33.503 0.271139 
-24.2887 32.7083 0.271139 -16.9588 31.7952 0.271139 -9.62893 31.8158 0.271139 
-2.29905 32.0514 0.271139 5.03084 32.475 0.271139 12.3607 34.1917 0.271139 
41.6802 33.4778 0.271139 51.0607 27.9123 0.271139 49.0101 29.4372 0.271139 
49.0101 27.9123 4.96987 16.1027 35.2422 0.271139 19.6906 36.2253 0.271139 
19.6906 35.2422 4.94568 27.0205 36.434 0.271139 27.0205 35.2422 5.97283 
36.1441 35.2422 0.271139 34.3504 35.7472 0.271139 34.3504 35.2422 2.36031 
-31.6186 -31.7212 7.60102 -24.2887 -34.1409 7.60102 -16.9588 -35.7508 7.60102 
-9.62893 -36.1629 7.60102 -2.29905 -35.58 7.60102 5.03084 -34.634 7.60102 
12.3607 -33.6979 7.60102 19.6906 -32.7955 7.60102 27.0205 -31.7972 7.60102 
-46.2783 -23.6194 7.60102 -33.7902 -30.7267 7.60102 -38.9484 -28.3812 7.60102 
-31.6186 -30.7267 9.38905 -24.2887 -30.7267 12.8266 -2.29905 -30.7267 13.9681 
5.03084 -30.7267 12.0752 12.3607 -30.7267 10.8682 19.6906 -30.7267 9.95314 
29.9926 -30.7267 7.60102 27.0205 -30.7267 8.95532 34.3504 -29.005 7.60102 
41.6802 -25.3544 7.60102 -46.5682 -23.3968 7.60102 -46.2783 -23.3968 7.96835 
34.3504 -23.3968 13.3013 44.356 -23.3968 7.60102 41.6802 -23.3968 9.8523 
49.0101 -19.2707 7.60102 -53.4452 -16.0669 7.60102 -53.6082 -15.768 7.60102 
41.6802 -16.0669 14.6698 52.0187 -16.0669 7.60102 49.0101 -16.0669 10.4378 
56.34 -9.22689 7.60102 -56.9483 -8.73705 7.60102 -53.6082 -8.73705 13.0363 
49.0101 -8.73705 14.1838 56.6419 -8.73705 7.60102 56.34 -8.73705 7.97641 
-58.7063 -1.40717 7.60102 59.7134 -1.40717 7.60102 56.34 -1.40717 10.6567 
-58.2562 5.92271 7.60102 -53.6082 5.92271 14.1622 61.0652 5.92271 7.60102 
56.34 5.92271 11.8018 -57.3914 13.2526 7.60102 -53.6082 13.2526 12.2029 
49.0101 13.2526 14.6908 58.4765 13.2526 7.60102 56.34 17.328 7.60102 
56.34 13.2526 9.49036 -53.8485 20.5825 7.60102 -53.6082 20.9489 7.60102 
-53.6082 20.5825 7.88496 -46.2783 27.5733 7.60102 -46.2783 20.5825 14.879 
41.6802 20.5825 14.5059 54.493 20.5825 7.60102 49.0101 26.5934 7.60102 
49.0101 20.5825 11.6831 -45.5258 27.9123 7.60102 -38.9484 30.3126 7.60102 
-38.9484 27.9123 11.7081 -31.6186 31.5103 7.60102 -31.6186 27.9123 12.638 
-24.2887 30.6793 7.60102 -24.2887 27.9123 11.8557 -16.9588 30.2543 7.60102 
-16.9588 27.9123 11.4515 -9.62893 30.9674 7.60102 -9.62893 27.9123 12.4959 
-2.29905 31.671 7.60102 -2.29905 27.9123 13.6448 5.03084 31.8625 7.60102 
5.03084 27.9123 13.4371 12.3607 32.8914 7.60102 12.3607 27.9123 13.5769 
[...]
POINT_DATA 529
SCALARS ImageScalars float
LOOKUP_TABLE default
0 0 0 0 0 0 0 0 0 
0 0 0 0 0 0 0 0 0 
0 0 0 0 0 0 0 0 0 
0 0 0 0 0 0 0 0 0 
0 0 0 0 0 0 0 0 0 
0 0 0 0 0 0 0 0 0 
0 0 0 0 0 0 0 0 0 
0 0 0 0 0 0 0 0 0 
0 0 0 0 0 0 0 0 0 
0 0 0 0 0 0 0 0 0 
0 0 0 0 0 0 0 0 0 
0 0 0 0 0 0 0 0 0 
0 0 0 0 0 0 0 0 0 
0 0 0 0 0 0 0 0 0 
0 0 0 0 0 0 0 0 0 
0 0 0 0 0 0 0 0 0 
0 0 0 0 0 0 0 0 0 
0 0 0 0 0 0 0 0 0 
0 0 0 0 0 0 0 0 0 
0 0 0 0 0 0 0 0 0 
0 0 0 0 0 0 0 0 0 
0 0 0 0 0 0 0 0 0 
0 0 0 0 0 0 0 0 0 
0 0 0 0 0 0 0 0 0 
0 0 0 0 0 0 0 0 0 
0 0 0 0 0 0 0 0 0 
0 0 0 0 0 0 0 0 0 
0 0 0 0 0 0 0 0 0 
0 0 0 0 0 0 0 0 0 
0 0 0 0 0 0 0 0 0 
0 0 0 0 0 0 0 0 0 
0 0 0 0 0 0 0 0 0 
0 0 0 0 0 0 0 0 0 
0 0 0 0 0 0 0 0 0 
0 0 0 0 0 0 0 0 0 
0 0 0 0 0 0 0 0 0 
0 0 0 0 0 0 0 0 0 
0 0 0 0 0 0 0 0 0 
0 0 0 0 0 0 0 0 0 
0 0 0 0 0 0 0 0 0 
0 0 0 0 0 0 0 0 0 
0 0 0 0 0 0 0 0 0 
0 0 0 0 0 0 0 0 0 
0 0 0 0 0 0 0 0 0 
0 0 0 0 0 0 0 0 0 
0 0 0 0 0 0 0 0 0 
0 0 0 0 0 0 0 0 0 
0 0 0 0 0 0 0 0 0 
0 0 0 0 0 0 0 0 0 
0 0 0 0 0 0 0 0 0 
0 0 0 0 0 0 0 0 0 
0 0 0 0 0 0 0 0 0 
0 0 0 0 0 0 0 0 0 
0 0 0 0 0 0 0 0 0 
0 0 0 0 0 0 0 0 0 
0 0 0 0 0 0 0 0 0 
0 0 0 0 0 0 0 0 0 
0 0 0 0 0 0 0 0 0 
0 0 0 0 0 0 0 
NORMALS Normals float
0.134816 0.555905 0.82024 0.0613865 0.573434 0.816948 0.0446799 0.5545 0.830984 
-0.00419942 0.530792 0.847492 -0.0563453 0.526237 0.848469 -0.111812 0.549675 0.827862 
0.202419 0.430223 0.879736 0.137818 0.306636 0.941796 0.104546 0.235167 0.966316 
0.077471 0.234804 0.968951 0.0245585 0.228077 0.973333 -0.0405586 0.178487 0.983106 
-0.0758892 0.117929 0.990118 -0.0444898 0.190213 0.980734 -0.0227967 0.269745 0.962662 
-0.153741 0.410521 0.898797 -0.371856 0.547194 0.749868 0.222763 0.332278 0.916498 
0.057768 0.229646 0.971558 0.0363945 0.108721 0.993406 0.0750598 0.0429021 0.996256 
0.0640871 0.0830312 0.994484 -0.0276302 -0.0132065 0.999531 -0.111444 0.00134677 0.99377 
-0.0468876 -0.097254 0.994155 0.0500834 -0.000526265 0.998745 0.035275 0.0933853 0.995005 
-0.0109168 0.166439 0.985991 -0.222046 0.25926 0.939936 -0.467776 0.399317 0.7885 
0.307191 0.296995 0.904117 0.101638 0.175734 0.979177 -0.0208119 0.114327 0.993225 
-0.0468003 0.0318136 0.998398 0.0751112 -0.0538775 0.995719 0.0251343 0.105699 0.99408 
-0.058361 -0.111406 0.99206 -0.123542 0.0673763 0.990049 -0.0834513 0.0530322 0.9951 
0.15194 -0.0585944 0.986651 0.156837 0.0361745 0.986962 0.00248033 0.0399275 0.9992 
-0.155266 0.073471 0.985137 -0.311818 0.174746 0.933935 0.556642 0.196928 0.807074 
0.291365 0.176268 0.940232 0.0339125 0.12394 0.99171 -0.0935216 0.0719818 0.993012 
-0.134773 0.0156796 0.990753 0.127052 -0.0753136 0.989033 0.0507939 0.0429416 0.997786 
-0.0709857 -0.0539171 0.996019 0.143132 0.0236152 0.989422 -0.223429 0.254206 0.940988 
0.0241539 0.0129623 0.999624 0.135174 -0.0253953 0.990496 0.0295297 -0.0418041 0.998689 
-0.0763419 0.00907098 0.99704 -0.253411 0.0280599 0.966952 -0.555512 0.0867588 0.82697 
0.556883 0.0557365 0.828719 0.256643 0.0360857 0.965832 -0.009369 0.00573367 0.99994 
-0.129557 0.00172174 0.991571 -0.189569 0.0187077 0.981689 0.0208336 -0.0436951 0.998828 
0.0999055 -0.270588 0.957497 -0.0618232 0.0121793 0.998013 0.124003 -0.241829 0.962363 
-0.0955669 -0.191993 0.976732 -0.0677129 -0.0189187 0.997525 0.107694 -0.0948559 0.989649 
0.0361832 -0.1021 0.994116 -0.0891432 -0.108618 0.990079 -0.225765 -0.102494 0.968775 
-0.487545 -0.175063 0.855367 0.491896 -0.137818 0.859677 0.250392 -0.132389 0.95905 
-0.00218314 -0.0771056 0.997021 -0.0797979 -0.0974466 0.992037 -0.179579 -0.0610862 0.981845 
-0.112803 -0.107821 0.98775 0.0533727 -0.250473 0.966651 -0.0315094 -0.113768 0.993008 
-0.0420429 -0.15207 0.987475 0.0159087 -0.236998 0.97138 0.025903 -0.110345 0.993556 
0.0520011 -0.168684 0.984298 0.00806783 -0.213035 0.977011 -0.0769558 -0.277479 0.957644 
-0.297496 -0.292314 0.908872 0.272883 -0.334768 0.901923 0.0225367 -0.298427 0.954166 
-0.10416 -0.303245 0.947203 -0.192626 -0.332915 0.923073 -0.146439 -0.303553 0.941494 
0.0436475 -0.372937 0.92683 0.0417097 -0.383196 0.922725 -0.0174763 -0.301277 0.953376 
0.016036 -0.272688 0.961969 0.000334883 -0.235513 0.971871 -0.0108585 -0.284655 0.958569 
-0.0701253 -0.324639 0.943235 -0.197694 -0.421721 0.884912 0.0834014 -0.688071 0.720834 
0.134889 0.556754 0.819652 0.0610791 0.600591 0.79722 0.0489946 0.613138 0.788455 
-0.00446361 0.611022 0.791601 -0.0584823 0.594241 0.802158 -0.11543 0.574084 0.810619 
0.224233 0.47748 0.849548 0.380732 0.791338 0.478359 0.135697 0.556548 0.819659 
0.195877 0.485876 0.851796 0.259764 0.685219 0.680439 -0.134313 0.58005 0.803432 
-0.158324 0.566007 0.809054 -0.210532 0.703213 0.679094 -0.22902 0.59024 0.774058 
-0.355285 0.851575 0.385477 -0.378947 0.573611 0.726202 0.262719 0.482269 0.835701 
0.313519 0.484517 0.81667 0.378633 0.586703 0.715833 -0.396367 0.562065 0.725931 
-0.494411 0.449022 0.74427 -0.627641 0.740565 0.240064 0.424285 0.438072 0.792512 
0.434057 0.433219 0.789883 0.447053 0.451042 0.772467 -0.510191 0.421117 0.749911 
-0.790285 0.554235 0.26129 0.529617 0.352054 0.771728 0.585642 0.267128 0.765288 
0.669692 0.39455 0.629161 -0.557991 0.266331 0.785948 -0.563598 0.102171 0.819707 
-0.698169 0.331955 0.634323 0.599264 0.207402 0.773219 -0.559241 0.0890449 0.824209 
0.664804 0.0774271 0.742995 -0.492347 -0.175732 0.852475 -0.495309 -0.180797 0.849695 
0.632251 -0.155999 0.758896 0.616934 -0.332574 0.713293 -0.45433 -0.297657 0.839634 
-0.294891 -0.455218 0.840129 -0.640941 -0.338594 0.688875 0.605614 -0.402266 0.686596 
0.688351 -0.425832 0.587231 0.319725 -0.639871 0.698814 -0.118016 -0.615022 0.779628 
-0.166026 -0.562393 0.810031 -0.14225 -0.38669 0.911173 0.0329702 -0.412041 0.910569 
0.0442907 -0.501727 0.863891 0.0132645 -0.419301 0.90775 0.0490146 -0.397474 0.916304 
0.0012225 -0.380769 0.924669 -0.0201004 -0.375976 0.926412 -0.102205 -0.378104 0.920104 
-0.203036 -0.432146 0.87865 -0.202589 -0.427704 0.880924 -0.341598 -0.587027 0.733968 
0.129793 -0.70527 0.696957 0.350941 -0.784676 0.511004 -0.0429704 -0.657201 0.75249 
0.088627 -0.707571 0.701062 -0.117042 -0.639125 0.760145 -0.162287 -0.723387 0.671099 
-0.130416 -0.777779 0.614859 -0.0289527 -0.791249 0.610808 0.0392374 -0.812908 0.581069 
0.10123 -0.771441 0.628197 0.114202 -0.644103 0.756366 0.0181 -0.547291 0.836747 
-0.0150067 -0.545417 0.838031 -0.153491 -0.512932 0.844596 -0.356886 -0.672563 0.648299 
0.390398 0.834812 0.388173 0.275108 0.880318 0.386466 0.147051 0.918798 0.366314 
0.0612656 0.93636 0.345654 0.0249444 0.998846 -0.0410306 0.0261402 0.952745 0.302643 
-0.017374 0.964482 0.263578 -0.0921195 0.962646 0.25461 -0.166608 0.951381 0.259067 
-0.26048 0.932062 0.251816 -0.365795 0.899481 0.239015 0.413277 0.822829 0.39007 
0.461061 0.788017 0.407985 -0.410496 0.877854 0.246709 -0.490396 0.834126 0.252477 
-0.627394 0.742762 0.23384 0.555838 0.724179 0.408178 0.567354 0.715435 0.407753 
0.581379 0.74791 0.320357 -0.628914 0.741386 0.234125 -0.64602 0.762833 0.0272644 
-0.790309 0.554648 0.260341 0.737352 0.540942 0.404591 0.755325 0.520412 0.398315 
0.79081 0.542907 0.282614 -0.790533 0.554314 0.260372 -0.798617 0.561875 0.215654 
0.858114 0.378401 0.347062 -0.875713 0.388541 0.28664 0.938298 0.189793 0.289095 
-0.950906 0.155836 0.26738 0.968834 0.0598659 0.240366 -0.965122 -0.0684075 0.252704 
0.973064 -0.177056 0.147643 -0.820758 -0.375627 0.43042 -0.679076 -0.603135 0.418429 
0.855547 -0.468743 0.219819 0.682508 -0.695863 0.223511 -0.65912 -0.620625 0.424719 
-0.466045 -0.705403 0.53405 -0.704338 -0.633661 0.319973 0.55946 -0.79364 0.23904 
0.356365 -0.900291 0.249961 0.126382 -0.952913 0.275651 -0.0427377 -0.951723 0.303968 
-0.198582 -0.913618 0.354777 -0.124606 -0.90717 0.40189 -0.0254155 -0.886463 0.462101 
0.0359741 -0.895075 0.444463 0.124695 -0.887052 0.444512 0.194417 -0.859019 0.473591 
0.127271 -0.841012 0.525833 -0.0425594 -0.838865 0.542674 -0.204949 -0.842276 0.498566 
-0.428143 -0.725892 0.538307 -0.352458 -0.765598 0.538176 -0.524427 -0.794455 0.306297 
0.149474 -0.960748 0.233712 -0.0436246 -0.950553 0.307482 -0.194352 -0.972603 0.127553 
0.0238961 0.998379 -0.0516634 0.388674 0.921289 -0.0125841 0.278979 0.959704 -0.033746 
0.0307071 0.998239 -0.0507554 0.137043 0.989913 -0.0359304 0.0122253 0.997961 -0.0626526 
0.0234292 0.998105 -0.0569066 -0.027495 0.994596 -0.100113 -0.0522964 0.986166 -0.157298 
-0.095883 0.97775 -0.186575 -0.169159 0.967681 -0.187025 -0.249987 0.955306 -0.157784 
-0.346584 0.924185 -0.160506 0.601025 0.798547 0.0330329 0.439832 0.898077 0.00218061 
0.461774 0.886951 0.00903367 -0.424058 0.889867 -0.168263 -0.35803 0.871194 -0.335911 
-0.511805 0.841553 -0.172756 0.644718 0.763721 0.0326936 0.810606 0.585048 0.0252331 
-0.633627 0.749475 -0.191845 -0.635265 0.74803 -0.192066 0.849234 0.527524 0.0228022 
0.815355 0.50251 -0.287542 -0.79083 0.574333 -0.211493 -0.79366 0.570336 -0.211708 
0.942684 0.331596 -0.0372958 -0.883771 0.426005 -0.193567 0.988828 0.130315 -0.0723753 
-0.981263 0.161502 -0.10507 0.989507 -0.00248833 -0.144465 -0.994281 -0.0528218 -0.0928212 
0.964605 -0.176628 -0.195806 -0.956141 -0.274426 -0.102393 0.870618 -0.453299 -0.191168 
0.688653 -0.704809 -0.170297 -0.784355 -0.616795 -0.0659604 -0.751016 -0.658487 -0.0486736 
-0.75924 -0.57508 -0.304693 0.572906 -0.802779 -0.165305 0.378658 -0.904281 -0.197218 
0.389771 -0.788161 -0.476319 0.160526 -0.978513 -0.129397 -0.0137812 -0.993844 -0.109929 
-0.121312 -0.990764 -0.0605741 -0.0603198 -0.998179 -0.00031796 0.0172742 -0.997054 0.0747283 
0.0445084 -0.992403 0.114699 0.142679 -0.985245 0.0945209 0.248398 -0.96702 0.0563119 
-0.401594 -0.915407 0.0274385 -0.610904 -0.791682 0.00600908 -0.55037 -0.834657 0.0210057 
-0.567432 -0.747914 -0.34445 0.199454 -0.978386 0.0545899 0.150035 -0.98718 0.0544592 
0.13752 -0.963533 -0.229548 -0.0316622 -0.998842 0.0362294 -0.0454113 -0.951482 -0.304334 
-0.239509 -0.96965 0.0491311 -0.186278 -0.980968 0.0547889 -0.200416 -0.976205 -0.0828149 
0.350841 0.867899 -0.351656 0.251731 0.887484 -0.38601 0.124615 0.91549 -0.382556 
-0.0094158 0.917862 -0.396787 -0.0912006 0.8865 -0.453653 -0.111194 0.836881 -0.535973 
-0.10849 0.798185 -0.592562 -0.110831 0.805782 -0.581749 -0.212716 0.822821 -0.52699 
0.584406 0.751547 -0.306017 0.372778 0.862441 -0.342392 0.430085 0.83936 -0.33242 
0.338367 0.840084 -0.423989 0.219747 0.757538 -0.614693 -0.15748 0.674076 -0.72168 
-0.150518 0.671177 -0.725855 -0.109135 0.673445 -0.731137 -0.0946866 0.734571 -0.671893 
-0.27028 0.809273 -0.52156 -0.199842 0.784519 -0.587021 -0.344576 0.779928 -0.522475 
-0.471232 0.716695 -0.51409 0.589758 0.747294 -0.306166 0.582469 0.746787 -0.320997 
-0.275273 0.564184 -0.778409 -0.522139 0.682588 -0.511316 -0.457898 0.64879 -0.607783 
-0.599855 0.595361 -0.534528 0.803968 0.498619 -0.32406 0.809732 0.488441 -0.325206 
-0.3614 0.3839 -0.849712 -0.656261 0.522574 -0.544277 -0.560755 0.501675 -0.658692 
-0.742863 0.399949 -0.536839 0.887627 0.29656 -0.352379 0.748874 0.276419 -0.602312 
-0.435313 0.288831 -0.852689 -0.744818 0.393292 -0.539043 -0.738581 0.386658 -0.552263 
0.920246 0.0842021 -0.382174 -0.742084 0.236937 -0.627034 -0.651621 0.173878 -0.738347 
0.902193 -0.0772245 -0.424363 0.680673 -0.139924 -0.7191 -0.799806 -0.0636934 -0.59687 
-0.617989 -0.0636913 -0.783602 0.834343 -0.240197 -0.496163 0.691226 -0.282462 -0.665148 
-0.395234 -0.268935 -0.87833 -0.70147 -0.323908 -0.634841 -0.699353 -0.424113 -0.575355 
-0.64694 -0.283629 -0.70783 0.734567 -0.442226 -0.514634 0.725446 -0.457025 -0.514642 
0.72852 -0.442388 -0.523022 0.394285 -0.767947 -0.504774 0.428605 -0.46004 -0.777599 
-0.28739 -0.330637 -0.898936 -0.675495 -0.497096 -0.544611 -0.535426 -0.629199 -0.563407 
-0.420757 -0.45702 -0.783643 0.371305 -0.786484 -0.493534 0.215612 -0.880049 -0.423113 
0.226605 -0.782099 -0.580492 0.0244857 -0.897018 -0.441316 0.00265945 -0.757506 -0.652823 
-0.0794744 -0.907857 -0.411679 -0.0518988 -0.805055 -0.590925 0.0201805 -0.92727 -0.373848 
0.0274044 -0.813919 -0.580332 0.0950908 -0.939431 -0.329282 0.0948605 -0.754974 -0.648858 
0.059509 -0.9575 -0.282226 0.0407168 -0.722034 -0.690658 0.0787037 -0.945053 -0.317301 
-0.00125249 -0.692148 -0.721755 0.169367 -0.902726 -0.395475 0.0751972 -0.593369 -0.80141 
0.123366 -0.903263 -0.410971 0.0340375 -0.423604 -0.905208 -0.046685 -0.908749 -0.414723 
-0.1066 -0.457063 -0.883023 -0.218842 -0.85898 -0.462884 -0.18207 -0.518054 -0.835745 
-0.509096 -0.669823 -0.540517 -0.393884 -0.760336 -0.516474 -0.389631 -0.634484 -0.667546 
0.106792 0.683204 -0.722376 -0.056262 0.673824 -0.736747 0.362136 0.65889 -0.659334 
0.251858 0.670468 -0.697883 0.119292 0.681833 -0.721716 0.184834 0.657714 -0.730239 
0.106149 0.674247 -0.730838 -0.0894788 0.660827 -0.745185 -0.0576084 0.659523 -0.749474 
-0.164727 0.609 -0.775876 -0.184677 0.490136 -0.851857 -0.0930836 0.40989 -0.907373 
-0.0177435 0.454745 -0.890445 -0.115954 0.489481 -0.86427 0.368393 0.654807 -0.659935 
0.527689 0.515446 -0.675174 0.360033 0.651445 -0.667829 0.196855 0.558194 -0.806019 
0.110478 0.441653 -0.890358 0.0448205 0.32426 -0.944905 -0.0478033 0.289177 -0.956081 
-0.162635 0.331122 -0.929467 -0.202052 0.36827 -0.907498 -0.0921441 0.381286 -0.919854 
-0.0116119 0.423868 -0.905649 -0.138772 0.486649 -0.862505 -0.111928 0.474702 -0.873 
-0.243853 0.441599 -0.863439 0.569196 0.459594 -0.681755 0.519259 0.450029 -0.726529 
0.257372 0.374138 -0.890944 0.0718122 0.282324 -0.956627 -0.0131645 0.187204 -0.982233 
-0.0486777 0.0811219 -0.995515 -0.0562527 0.0329532 -0.997873 -0.105742 -0.000296198 -0.994394 
-0.150616 0.181845 -0.971724 -0.0647684 0.236665 -0.96943 0.0261925 0.194219 -0.980609 
-0.0461038 0.242908 -0.968953 -0.342774 0.372873 -0.862248 -0.197002 0.299263 -0.933612 
-0.350457 0.364021 -0.862942 0.658476 0.253533 -0.708612 0.694558 0.0826635 -0.714672 
0.458174 0.18289 -0.869843 0.228927 0.113744 -0.966775 -0.119476 0.0123462 -0.99276 
-0.123149 -0.0365316 -0.991716 -0.133802 0.0102882 -0.990955 -0.0142545 -0.0604425 -0.99807 
0.0365882 0.104931 -0.993806 -0.0918478 0.157786 -0.983193 -0.00514915 0.037869 -0.999269 
0.0116155 0.0542821 -0.998458 -0.126578 0.136244 -0.982556 -0.385583 0.268101 -0.882863 
-0.273964 0.195042 -0.941755 -0.416853 0.213933 -0.88344 0.696855 0.0398949 -0.716101 
0.6813 -0.0234255 -0.73163 0.683691 0.038089 -0.728777 0.380892 0.0349908 -0.923957 
0.137838 -0.0145729 -0.990348 -0.0303927 -0.0375664 -0.998832 -0.127865 -0.0578268 -0.990104 
-0.0476642 -0.0998833 -0.993857 -0.0705522 -0.00502983 -0.997495 -0.019138 0.0853312 -0.996169 
0.0651116 -0.100484 -0.992806 -0.145529 -0.157514 -0.976735 -0.0701158 -0.0788954 -0.994414 
0.0537168 -0.0629571 -0.99657 -0.0598998 -0.00819198 -0.998171 -0.213435 0.0583542 -0.975213 
-0.448906 0.122427 -0.885152 -0.406385 0.122703 -0.905425 0.638162 -0.144838 -0.756156 
0.447375 -0.125658 -0.885475 0.141253 -0.109605 -0.983887 -0.0540323 -0.0975343 -0.993764 
-0.176949 -0.0829947 -0.980714 -0.0774556 -0.0930394 -0.992645 0.0491458 -0.136259 -0.989454 
-0.100285 0.00516597 -0.994945 -0.191832 -0.169401 -0.966697 -0.072513 -0.214874 -0.973946 
0.0855618 -0.0980071 -0.991501 0.0795432 -0.0871806 -0.993012 -0.00604297 -0.105563 -0.994394 
-0.157808 -0.0699158 -0.984992 -0.440924 -0.0637375 -0.895278 -0.390895 -0.24381 -0.887557 
-0.360111 -0.0639971 -0.930712 0.557347 -0.275246 -0.783329 0.42824 -0.456319 -0.779989 
0.412445 -0.27687 -0.867889 0.170053 -0.245469 -0.954373 -0.00640376 -0.210138 -0.977651 
-0.120979 -0.185746 -0.975122 -0.0909936 -0.132103 -0.987051 0.0263292 -0.174561 -0.984294 
-0.0613572 -0.137114 -0.988653 -0.176727 -0.0764801 -0.981284 -0.0546709 -0.0224907 -0.998251 
0.0616265 -0.0570661 -0.996467 0.0439671 -0.106345 -0.993357 -0.0367729 -0.111829 -0.993047 
-0.372548 -0.265546 -0.889209 -0.266786 -0.308277 -0.913121 -0.180271 -0.226171 -0.957261 
0.424669 -0.459278 -0.780205 0.225197 -0.599479 -0.768057 0.229812 -0.442989 -0.866572 
0.0162905 -0.645277 -0.763775 0.0241341 -0.427603 -0.903644 -0.0579703 -0.63945 -0.766644 
-0.087813 -0.398369 -0.913012 -0.0267245 -0.553944 -0.832125 -0.0733631 -0.370227 -0.92604 
0.0774064 -0.52428 -0.84802 0.0479391 -0.322138 -0.945478 0.0342689 -0.595646 -0.802515 
0.00933888 -0.295098 -0.955421 -0.037695 -0.512692 -0.857745 -0.0858941 -0.217899 -0.972184 
0.0131452 -0.398505 -0.917072 -0.052407 -0.153371 -0.986778 0.029333 -0.393775 -0.918739 
0.000816081 -0.131007 -0.991381 -0.0805154 -0.374262 -0.923821 0.0221879 -0.186152 -0.98227 
-0.258619 -0.320231 -0.911355 -0.153454 -0.386032 -0.909633 -0.137934 -0.287911 -0.947672 
-0.00738287 0.0926086 -0.995675 0.0380246 0.0871755 -0.995467 -0.0284257 0.070646 -0.997096 
-0.0154706 0.0552827 -0.998351 
