# vtk DataFile Version 4.2
vtk output
ASCII
DATASET POLYDATA
POINTS 534 float
-15.2644 -48.5114 -13.6922 -7.42714 -48.5114 -15.214 0.410087 -48.5114 -16.3777 
8.24732 -48.5114 -16.3021 16.0846 -48.5114 -14.8503 -23.1016 -40.6742 -15.4284 
-15.2644 -40.6742 -16.6768 -7.42714 -40.6742 -18.5427 0.410087 -40.6742 -17.9488 
8.24732 -40.6742 -17.8306 16.0846 -40.6742 -17.9354 23.9218 -40.6742 -16.2095 
-30.9388 -32.837 -15.1566 -23.1016 -32.837 -17.7544 -15.2644 -32.837 -17.3527 
-7.42714 -32.837 -18.0876 0.410087 -32.837 -18.5072 8.24732 -32.837 -18.3201 
16.0846 -32.837 -17.7479 23.9218 -32.837 -17.2868 31.759 -32.837 -15.7458 
-38.7761 -24.9997 -13.6864 -30.9388 -24.9997 -17.1998 -23.1016 -24.9997 -17.2483 
-15.2644 -24.9997 -17.1051 -7.42714 -24.9997 -17.3145 0.410087 -24.9997 -16.9789 
8.24732 -24.9997 -17.0595 16.0846 -24.9997 -17.301 23.9218 -24.9997 -17.6496 
31.759 -24.9997 -17.4459 39.5962 -24.9997 -14.0619 -38.7761 -17.1625 -14.4444 
-30.9388 -17.1625 -16.3082 -23.1016 -17.1625 -16.5857 -15.2644 -17.1625 -16.0358 
-7.42714 -17.1625 -16.1914 0.410087 -17.1625 -15.9892 8.24732 -17.1625 -15.9416 
16.0846 -17.1625 -16.721 23.9218 -17.1625 -17.2158 31.759 -17.1625 -16.9823 
39.5962 -17.1625 -15.8317 -38.7761 -9.32526 -14.7521 -30.9388 -9.32526 -16.2689 
-23.1016 -9.32526 -16.0239 -15.2644 -9.32526 -14.9199 -7.42714 -9.32526 -18.0979 
0.410087 -9.32526 -19.0488 8.24732 -9.32526 -18.4126 16.0846 -9.32526 -16.2469 
23.9218 -9.32526 -16.9241 31.759 -9.32526 -17.4995 39.5962 -9.32526 -18.0249 
47.4335 -9.32526 -14.8193 -38.7761 -1.48803 -15.5145 -30.9388 -1.48803 -16.4534 
-23.1016 -1.48803 -15.6846 -15.2644 -1.48803 -14.0732 -7.42714 -1.48803 -19.0207 
8.24732 -1.48803 -18.8322 16.0846 -1.48803 -16.3228 23.9218 -1.48803 -16.5939 
31.759 -1.48803 -17.8637 39.5962 -1.48803 -17.5325 47.4335 -1.48803 -15.9512 
-46.6133 6.34921 -12.8825 -38.7761 6.34921 -16.1888 -30.9388 6.34921 -16.5764 
-23.1016 6.34921 -15.4076 -15.2644 6.34921 -13.81 -7.42714 6.34921 -19.1806 
0.410087 6.34921 -17.6628 8.24732 6.34921 -18.9088 16.0846 6.34921 -16.3409 
23.9218 6.34921 -16.7273 31.759 6.34921 -17.7894 39.5962 6.34921 -17.696 
47.4335 6.34921 -16.3143 -38.7761 14.1864 -15.181 -30.9388 14.1864 -15.6303 
-23.1016 14.1864 -15.3107 -15.2644 14.1864 -14.6289 -7.42714 14.1864 -15.541 
0.410087 14.1864 -16.0213 8.24732 14.1864 -16.9656 16.0846 14.1864 -16.5711 
23.9218 14.1864 -16.2565 31.759 14.1864 -16.6353 39.5962 14.1864 -16.1732 
47.4335 14.1864 -14.6522 -38.7761 22.0237 -13.0243 -30.9388 22.0237 -14.898 
-23.1016 22.0237 -15.3033 -15.2644 22.0237 -15.4495 -7.42714 22.0237 -15.3393 
0.410087 22.0237 -15.3491 8.24732 22.0237 -16.4204 16.0846 22.0237 -16.4644 
23.9218 22.0237 -15.3413 31.759 22.0237 -14.5527 39.5962 22.0237 -13.0745 
-30.9388 29.8609 -12.5207 -23.1016 29.8609 -14.487 -15.2644 29.8609 -14.9407 
-7.42714 29.8609 -14.7543 0.410087 29.8609 -14.6716 8.24732 29.8609 -15.7354 
16.0846 29.8609 -15.0213 23.9218 29.8609 -13.0175 -15.2644 37.6981 -12.7718 
-7.42714 37.6981 -12.5529 8.24732 37.6981 -12.2503 -15.2644 -49.847 -12.1865 
-7.42714 -53.7734 -12.1865 0.410087 -55.8717 -12.1865 8.24732 -55.5384 -12.1865 
16.0846 -53.2464 -12.1865 -17.7012 -48.5114 -12.1865 -23.1016 -45.6141 -12.1865 
-23.1016 -48.5114 -5.75087 23.6346 -48.5114 -12.1865 23.9218 -48.3315 -12.1865 
23.9218 -48.5114 -11.6639 -30.8578 -40.6742 -12.1865 -30.9388 -40.571 -12.1865 
-30.9388 -40.6742 -12.1134 31.4599 -40.6742 -12.1865 31.759 -40.3237 -12.1865 
31.759 -40.6742 -11.6578 -37.5175 -32.837 -12.1865 -38.7761 -30.7628 -12.1865 
-38.7761 -32.837 -11.2073 37.3714 -32.837 -12.1865 39.5962 -29.3053 -12.1865 
39.5962 -32.837 -7.35802 -41.0879 -24.9997 -12.1865 42.2753 -24.9997 -12.1865 
-41.7463 -17.1625 -12.1865 -46.6133 -17.1625 -4.65989 46.8387 -17.1625 -12.1865 
47.4335 -16.4491 -12.1865 47.4335 -17.1625 -11.3722 -43.254 -9.32526 -12.1865 
-46.6133 -9.32526 -9.18102 0.410087 -1.51225 -12.1865 51.6406 -9.32526 -12.1865 
-45.4241 -1.48803 -12.1865 -46.6133 2.06933 -12.1865 -46.6133 -1.48803 -11.3272 
0.38098 -1.48803 -12.1865 0.435749 -1.48803 -12.1865 0.410087 -1.45435 -12.1865 
0.410087 -1.48803 -12.1623 53.3742 -1.48803 -12.1865 55.2707 -1.48803 -8.8325 
-47.6137 6.34921 -12.1865 -46.6133 11.9885 -12.1865 54.2815 6.34921 -12.1865 
55.2707 6.34921 -10.7565 -45.9556 14.1864 -12.1865 -46.6133 14.1864 -11.8214 
52.5465 14.1864 -12.1865 47.4335 18.7422 -12.1865 55.2707 14.1864 -8.52627 
-40.6315 22.0237 -12.1865 -46.6133 22.0237 -7.01843 -38.7761 23.6924 -12.1865 
31.759 27.3265 -12.1865 41.9485 22.0237 -12.1865 39.5962 23.4357 -12.1865 
47.4335 22.0237 -9.33273 -31.696 29.8609 -12.1865 -38.7761 29.8609 -6.90514 
-30.9388 30.5915 -12.1865 -23.1016 36.8719 -12.1865 0.410087 37.5661 -12.1865 
16.0846 36.62 -12.1865 27.2344 29.8609 -12.1865 23.9218 31.6278 -12.1865 
31.759 29.8609 -10.8687 39.5962 29.8609 -7.18408 -30.9388 37.6981 -7.27459 
-20.6202 37.6981 -12.1865 -23.1016 37.6981 -11.883 -15.2644 38.9373 -12.1865 
-0.449931 37.6981 -12.1865 -7.42714 38.413 -12.1865 3.67397 37.6981 -12.1865 
0.410087 37.6981 -12.1398 9.15229 37.6981 -12.1865 8.24732 37.8034 -12.1865 
16.0846 37.6981 -11.605 23.9218 37.6981 -8.52932 31.759 37.6981 -4.91388 
-23.1016 45.5354 -5.76921 -15.2644 45.5354 -7.76083 -7.42714 45.5354 -7.87983 
0.410087 45.5354 -6.56007 8.24732 45.5354 -5.54706 -23.1016 -49.0011 -4.34931 
-15.2644 -51.9471 -4.34931 -7.42714 -54.6355 -4.34931 0.410087 -55.546 -4.34931 
8.24732 -55.6265 -4.34931 16.0846 -54.0809 -4.34931 23.9218 -50.2225 -4.34931 
-24.269 -48.5114 -4.34931 -30.9388 -45.399 -4.34931 -23.1016 -48.5114 -3.40084 
-15.2644 -48.5114 1.04141 16.0846 -48.5114 2.68667 26.2757 -48.5114 -4.34931 
23.9218 -48.5114 -1.89638 31.759 -43.9449 -4.34931 -37.6587 -40.6742 -4.34931 
-38.7761 -39.5035 -4.34931 34.8058 -40.6742 -4.34931 31.759 -40.6742 0.038593 
39.5962 -34.3679 -4.34931 -43.04 -32.837 -4.34931 40.67 -32.837 -4.34931 
39.5962 -32.837 -2.44489 -45.5735 -24.9997 -4.34931 -46.6133 -18.1289 -4.34931 
45.5168 -24.9997 -4.34931 47.4335 -21.7903 -4.34931 -46.7579 -17.1625 -4.34931 
50.0716 -17.1625 -4.34931 47.4335 -17.1625 0.496308 -49.4741 -9.32526 -4.34931 
54.0172 -9.32526 -4.34931 55.2707 -5.98655 -4.34931 -51.5427 -1.48803 -4.34931 
56.8079 -1.48803 -4.34931 55.2707 -1.48803 -0.751758 -53.4649 6.34921 -4.34931 
58.1455 6.34921 -4.34931 -52.8237 14.1864 -4.34931 56.7975 14.1864 -4.34931 
55.2707 17.1622 -4.34931 55.2707 14.1864 1.31893 -48.5434 22.0237 -4.34931 
-46.6133 24.1976 -4.34931 51.8125 22.0237 -4.34931 47.4335 26.6452 -4.34931 
-41.0645 29.8609 -4.34931 -38.7761 32.0926 -4.34931 43.3304 29.8609 -4.34931 
39.5962 32.4794 -4.34931 -33.5849 37.6981 -4.34931 -30.9388 40.5169 -4.34931 
16.0846 45.2734 -4.34931 23.9218 41.8844 -4.34931 32.4639 37.6981 -4.34931 
31.759 38.163 -4.34931 -24.8532 45.5354 -4.34931 -23.1016 46.6757 -4.34931 
-15.2644 48.3038 -4.34931 -7.42714 48.6565 -4.34931 0.410087 47.5215 -4.34931 
14.5202 45.5354 -4.34931 8.24732 46.444 -4.34931 16.0846 45.5354 -3.79389 
-7.42714 -49.234 3.48792 0.410087 -49.7622 3.48792 8.24732 -49.4721 3.48792 
-30.9388 -41.6678 3.48792 -23.1016 -43.7709 3.48792 -9.03967 -48.5114 3.48792 
-15.2644 -46.0907 3.48792 -7.42714 -48.5114 3.88819 0.410087 -48.5114 4.54237 
12.8007 -48.5114 3.48792 8.24732 -48.5114 4.28202 16.0846 -47.2244 3.48792 
23.9218 -44.0306 3.48792 -32.5597 -40.6742 3.48792 -38.7761 -35.5985 3.48792 
-30.9388 -40.6742 4.45556 -23.1016 -40.6742 6.25115 -15.2644 -40.6742 7.32394 
-7.42714 -40.6742 7.75296 0.410087 -40.6742 7.79698 8.24732 -40.6742 8.21022 
16.0846 -40.6742 6.96902 28.2814 -40.6742 3.48792 23.9218 -40.6742 5.85701 
31.759 -36.1289 3.48792 -40.8016 -32.837 3.48792 -38.7761 -32.837 5.75207 
-30.9388 -32.837 10.0758 -7.42714 -32.837 11.0815 0.410087 -32.837 10.6449 
8.24732 -32.837 10.1659 16.0846 -32.837 9.97074 23.9218 -32.837 8.62774 
34.2964 -32.837 3.48792 31.759 -32.837 5.28977 39.5962 -26.9493 3.48792 
-44.1542 -24.9997 3.48792 -46.6133 -17.7501 3.48792 -38.7761 -24.9997 10.1375 
31.759 -24.9997 8.75853 40.8164 -24.9997 3.48792 39.5962 -24.9997 4.6347 
-46.7833 -17.1625 3.48792 -46.6133 -17.1625 3.91557 31.759 -17.1625 10.8851 
44.9183 -17.1625 3.48792 39.5962 -17.1625 7.47703 47.4335 -13.673 3.48792 
-49.5032 -9.32526 3.48792 39.5962 -9.32526 9.63029 49.6655 -9.32526 3.48792 
47.4335 -9.32526 5.55412 -52.3687 -1.48803 3.48792 52.6407 -1.48803 3.48792 
47.4335 -1.48803 8.21354 55.2707 4.90967 3.48792 -54.4346 6.34921 3.48792 
47.4335 6.34921 10.4872 55.7071 6.34921 3.48792 55.2707 9.57597 3.48792 
55.2707 6.34921 4.05498 -53.6852 14.1864 3.48792 54.5226 14.1864 3.48792 
47.4335 14.1864 10.7807 -49.4234 22.0237 3.48792 -46.6133 25.2275 3.48792 
-46.6133 22.0237 9.21957 52.0218 22.0237 3.48792 47.4335 28.1138 3.48792 
47.4335 22.0237 10.5748 -42.3017 29.8609 3.48792 -38.7761 33.4833 3.48792 
-38.7761 29.8609 11.2854 45.9047 29.8609 3.48792 39.5962 35.3715 3.48792 
-35.4184 37.6981 3.48792 -30.9388 42.8122 3.48792 23.9218 45.5021 3.48792 
36.4507 37.6981 3.48792 31.759 40.9402 3.48792 -28.0443 45.5354 3.48792 
-23.1016 49.2934 3.48792 -15.2644 51.809 3.48792 -7.42714 51.862 3.48792 
0.410087 51.4618 3.48792 8.24732 49.9013 3.48792 23.834 45.5354 3.48792 
16.0846 48.2015 3.48792 -23.1016 -33.4218 11.3251 -15.2644 -33.0688 11.3251 
-24.9944 -32.837 11.3251 -30.9388 -30.4202 11.3251 -23.1016 -32.837 11.6503 
-12.8532 -32.837 11.3251 -15.2644 -32.837 11.4366 -7.42714 -32.1887 11.3251 
0.410087 -30.9862 11.3251 8.24732 -29.5854 11.3251 16.0846 -29.071 11.3251 
23.9218 -25.5219 11.3251 -36.7012 -24.9997 11.3251 -38.7761 -22.9618 11.3251 
-30.9388 -24.9997 13.7583 -23.1016 -24.9997 14.7217 -15.2644 -24.9997 14.4469 
-7.42714 -24.9997 14.0448 0.410087 -24.9997 13.7138 8.24732 -24.9997 13.11 
16.0846 -24.9997 12.7426 24.4999 -24.9997 11.3251 23.9218 -24.9997 11.5208 
-42.2386 -17.1625 11.3251 -46.6133 -10.545 11.3251 -38.7761 -17.1625 14.1732 
-30.9388 -17.1625 16.6905 -23.1016 -17.1625 16.8202 -15.2644 -17.1625 16.2105 
[...]
POINT_DATA 534
SCALARS ImageScalars float
LOOKUP_TABLE default
0 0 0 0 0 0 0 0 0 
0 0 0 0 0 0 0 0 0 
0 0 0 0 0 0 0 0 0 
0 0 0 0 0 0 0 0 0 
0 0 0 0 0 0 0 0 0 
0 0 0 0 0 0 0 0 0 
0 0 0 0 0 0 0 0 0 
0 0 0 0 0 0 0 0 0 
0 0 0 0 0 0 0 0 0 
0 0 0 0 0 0 0 0 0 
0 0 0 0 0 0 0 0 0 
0 0 0 0 0 0 0 0 0 
0 0 0 0 0 0 0 0 0 
0 0 0 0 0 0 0 0 0 
0 0 0 0 0 0 0 0 0 
0 0 0 0 0 0 0 0 0 
0 0 0 0 0 0 0 0 0 
0 0 0 0 0 0 0 0 0 
0 0 0 0 0 0 0 0 0 
0 0 0 0 0 0 0 0 0 
0 0 0 0 0 0 0 0 0 
0 0 0 0 0 0 0 0 0 
0 0 0 0 0 0 0 0 0 
0 0 0 0 0 0 0 0 0 
0 0 0 0 0 0 0 0 0 
0 0 0 0 0 0 0 0 0 
0 0 0 0 0 0 0 0 0 
0 0 0 0 0 0 0 0 0 
0 0 0 0 0 0 0 0 0 
0 0 0 0 0 0 0 0 0 
0 0 0 0 0 0 0 0 0 
0 0 0 0 0 0 0 0 0 
0 0 0 0 0 0 0 0 0 
0 0 0 0 0 0 0 0 0 
0 0 0 0 0 0 0 0 0 
0 0 0 0 0 0 0 0 0 
0 0 0 0 0 0 0 0 0 
0 0 0 0 0 0 0 0 0 
0 0 0 0 0 0 0 0 0 
0 0 0 0 0 0 0 0 0 
0 0 0 0 0 0 0 0 0 
0 0 0 0 0 0 0 0 0 
0 0 0 0 0 0 0 0 0 
0 0 0 0 0 0 0 0 0 
0 0 0 0 0 0 0 0 0 
0 0 0 0 0 0 0 0 0 
0 0 0 0 0 0 0 0 0 
0 0 0 0 0 0 0 0 0 
0 0 0 0 0 0 0 0 0 
0 0 0 0 0 0 0 0 0 
0 0 0 0 0 0 0 0 0 
0 0 0 0 0 0 0 0 0 
0 0 0 0 0 0 0 0 0 
0 0 0 0 0 0 0 0 0 
0 0 0 0 0 0 0 0 0 
0 0 0 0 0 0 0 0 0 
0 0 0 0 0 0 0 0 0 
0 0 0 0 0 0 0 0 0 
0 0 0 0 0 0 0 0 0 
0 0 0 
NORMALS Normals float
0.356834 0.649482 0.671449 0.157873 0.484715 0.860306 0.0735468 0.385637 0.919715 
-0.106961 0.373333 0.921511 -0.236521 0.468574 0.851174 0.216976 0.405227 0.888095 
0.220384 0.18388 0.957924 0.0596101 0.175967 0.98259 -0.0407424 0.137659 0.989641 
-0.00299689 0.135377 0.99079 -0.128206 0.214918 0.96818 -0.26688 0.251068 0.930451 
0.312121 0.246629 0.917472 0.123012 0.123557 0.984684 0.0235815 0.0221835 0.999476 
0.0732222 -0.0749555 0.994495 0.0149211 -0.0469202 0.998787 -0.0485335 -0.0441052 0.997847 
-0.0687848 -0.0389847 0.99687 -0.129712 0.0960065 0.986893 -0.366646 0.246611 0.897081 
0.512679 0.146814 0.845935 0.215052 0.0613934 0.974671 -0.00638586 -0.0718338 0.997396 
0.00429718 -0.0835323 0.996496 -0.00604779 -0.120835 0.992654 -0.0168516 -0.165474 0.98607 
0.0198572 -0.149692 0.988533 0.0371878 -0.0653105 0.997172 0.0113418 -0.00219619 0.999933 
-0.22503 0.0857387 0.970572 -0.525847 0.290992 0.799255 0.461341 0.0691285 0.884526 
0.124218 -0.0541034 0.990779 -0.017547 -0.0775324 0.996835 -0.0254912 -0.135954 0.990387 
-0.00306333 0.0175627 0.999841 -0.0166022 0.115449 0.993175 0.0485453 0.0608792 0.996964 
0.0808026 -0.0657028 0.994562 0.0168276 -0.0457986 0.998809 -0.0794825 0.00767902 0.996807 
-0.266308 0.264005 0.927028 0.344821 0.065456 0.936383 0.0724592 0.00928314 0.997328 
-0.0806661 -0.057333 0.995091 0.0810831 -0.123896 0.988977 0.270313 0.183722 0.945081 
0.0119282 -0.0942269 0.995479 -0.183392 0.196797 0.96314 -0.0745537 -0.0276929 0.996832 
0.0777236 -0.037668 0.996263 0.0663518 0.0540916 0.996329 -0.168743 0.0903994 0.981506 
-0.481001 0.20497 0.852423 0.252336 0.0843863 0.963953 0.00577126 0.0193762 0.999796 
-0.140353 -0.0398241 0.9893 0.134553 -0.072784 0.98823 -0.00407711 0.0598759 0.998197 
0.168157 0.0328955 0.985211 -0.13235 0.00649687 0.991182 0.0927246 -0.0136393 0.995598 
0.0548887 0.0191357 0.998309 -0.113293 -0.0162177 0.993429 -0.354118 0.100365 0.9298 
0.522949 0.0175627 0.852183 0.236234 -0.0217644 0.971452 -0.0526672 -0.0530955 0.9972 
-0.171463 -0.0235331 0.984909 0.0443907 0.036157 0.99836 0.352639 -0.264263 0.897669 
0.0478044 0.163065 0.985457 -0.103496 -0.123493 0.986934 -0.141581 0.0162304 0.989794 
0.0943533 -0.0227815 0.995278 0.0572421 -0.077032 0.995384 -0.0962065 -0.0766262 0.992408 
-0.325868 -0.0839857 0.941677 0.19313 -0.194597 0.961682 0.00633999 -0.101999 0.994764 
-0.060046 -0.00662577 0.998174 0.0087585 0.108486 0.994059 0.0903661 -0.120789 0.988557 
0.093775 -0.130494 0.987004 0.0307745 -0.153845 0.987616 -0.045683 0.00789733 0.998925 
0.00390778 -0.084953 0.996377 -0.00306157 -0.192961 0.981202 -0.128321 -0.278594 0.951798 
-0.316624 -0.349171 0.881946 0.321872 -0.363015 0.874425 0.146406 -0.198916 0.969019 
0.0332264 -0.0490025 0.998246 0.00221806 0.0159705 0.99987 -0.00643841 -0.0479996 0.998827 
0.0688307 -0.0821365 0.994241 0.0685266 -0.0761033 0.994742 -0.0661093 -0.0967932 0.993107 
-0.116962 -0.193244 0.974154 -0.130827 -0.333627 0.933583 -0.246584 -0.454451 0.855962 
0.327233 -0.358425 0.874328 0.151815 -0.213099 0.965164 0.0150088 -0.159165 0.987138 
-0.0169493 -0.166963 0.985817 0.0593333 -0.190974 0.9798 0.0214948 -0.249056 0.968251 
-0.158904 -0.277632 0.947455 -0.241897 -0.355045 0.903011 0.0394214 -0.359427 0.93234 
-0.037203 -0.372461 0.927302 -0.0256934 -0.487885 0.87253 0.411465 0.730955 0.544428 
0.29697 0.785706 0.542655 0.069974 0.894162 0.442241 -0.109562 0.883811 0.454834 
-0.346435 0.752622 0.559949 0.391409 0.725989 0.565455 0.326945 0.677285 0.659084 
0.381019 0.924236 0.0247432 -0.485756 0.725542 0.487473 -0.488001 0.725604 0.485133 
-0.501774 0.750915 0.429359 0.482621 0.51893 0.705541 0.483077 0.515783 0.707534 
0.486949 0.524196 0.698641 -0.644742 0.549249 0.531633 -0.648449 0.543992 0.532529 
-0.669607 0.570569 0.475477 0.554354 0.321311 0.767757 0.582537 0.28258 0.762102 
0.656773 0.356819 0.664326 -0.684083 0.411332 0.602359 -0.672916 0.394448 0.625775 
-0.833201 0.536915 0.132282 0.622156 0.15819 0.766745 -0.646045 0.37889 0.662622 
0.631427 0.083441 0.770933 0.941124 0.239544 0.238548 -0.653857 0.457591 0.602562 
-0.661062 0.453888 0.597481 -0.710259 0.48691 0.50838 0.567185 0.139021 0.811772 
0.800418 0.232269 0.552614 0.0598032 -0.150764 0.986759 -0.709126 0.298983 0.638552 
0.593825 0.15652 0.789223 0.592879 0.098264 0.799274 0.674136 0.176697 0.71716 
0.0590132 -0.150169 0.986898 0.0606121 -0.149302 0.986932 0.0609489 -0.148217 0.987075 
0.0597697 -0.150216 0.986845 -0.726272 0.120578 0.676749 -0.931614 0.188229 0.310912 
0.567375 0.0262014 0.823043 0.545698 -0.156932 0.823156 -0.731749 -0.020536 0.681265 
-0.83758 -0.0107092 0.546209 0.520329 -0.226205 0.823462 0.561484 -0.235514 0.793265 
-0.588824 -0.358823 0.724245 -0.381499 -0.509179 0.771489 -0.851409 -0.355882 0.385293 
0.38401 -0.391626 0.836161 0.694186 -0.556936 0.455991 0.36073 -0.409026 0.838196 
-0.232076 -0.425082 0.874898 -0.304871 -0.500942 0.810007 -0.272683 -0.486636 0.829957 
-0.506759 -0.618869 0.600164 0.345386 -0.379043 0.858507 0.601269 -0.64527 0.471276 
0.343146 -0.376257 0.860629 0.223223 -0.386853 0.894716 -0.0167019 -0.411107 0.911434 
-0.172177 -0.490988 0.853983 -0.258471 -0.406661 0.876253 -0.260765 -0.407216 0.875315 
-0.290732 -0.490489 0.82152 -0.429536 -0.672772 0.602392 0.58233 -0.59368 0.55537 
0.171126 -0.393619 0.903205 0.237355 -0.413841 0.878862 0.0416362 -0.402615 0.914422 
-0.02005 -0.41032 0.911721 -0.0407622 -0.393611 0.918373 -0.0212381 -0.445741 0.89491 
-0.0182113 -0.415382 0.909465 -0.0426284 -0.492563 0.869232 -0.0265429 -0.490851 0.870839 
-0.177609 -0.531893 0.827976 -0.32807 -0.61658 0.715681 -0.442835 -0.722331 0.531164 
0.354777 -0.754867 0.551642 0.0942081 -0.712327 0.695497 -0.0573734 -0.686862 0.72452 
-0.109612 -0.716735 0.688677 -0.111102 -0.796668 0.594118 0.375979 0.923667 -0.0740242 
0.347431 0.927497 -0.137993 0.236193 0.957968 -0.162821 0.0607181 0.938573 -0.339696 
-0.0903232 0.934296 -0.344865 -0.342372 0.922689 -0.177275 -0.530561 0.827816 -0.182281 
0.392095 0.916765 -0.0761767 0.507315 0.861444 -0.0233594 0.370218 0.919922 -0.129156 
0.28935 0.752623 -0.591469 -0.282147 0.503091 -0.81688 -0.569778 0.805491 -0.162902 
-0.489434 0.803624 -0.338589 -0.693971 0.713197 -0.0987661 0.69328 0.720646 0.00570133 
0.743438 0.668545 0.0186476 -0.757912 0.645071 -0.0972262 -0.666629 0.574424 -0.475019 
-0.82025 0.56541 -0.086611 0.901239 0.425239 0.0833056 -0.82906 0.553145 -0.0817916 
-0.802613 0.551029 -0.228428 0.969771 0.218241 0.10916 0.948216 0.239811 0.208272 
-0.850124 0.517586 -0.0969185 -0.85234 0.514206 -0.0954431 0.944102 0.243336 0.222395 
-0.86593 0.491197 -0.0942867 -0.761955 0.480857 -0.433822 0.923827 0.285142 0.255416 
-0.908104 0.399896 -0.124219 -0.940393 0.326591 -0.0948669 0.905595 0.260846 0.33445 
-0.970528 0.239838 -0.0235345 -0.904943 0.298471 -0.303302 0.945473 0.0780343 0.316213 
-0.999162 -0.000411474 0.0409193 0.913239 -0.243017 0.327013 -0.940428 -0.336594 0.0479604 
-0.895144 -0.432967 0.1061 -0.90854 -0.2522 -0.333092 0.760269 -0.577247 0.297956 
0.726567 -0.620399 0.295304 -0.747439 -0.602867 0.279082 -0.607542 -0.704249 0.367323 
0.660051 -0.679331 0.320691 0.664655 -0.669158 0.332358 -0.523156 -0.726204 0.446022 
-0.486885 -0.729362 0.480599 0.668229 -0.634207 0.388911 0.634499 -0.654001 0.411938 
-0.221636 -0.828007 0.515055 -0.36995 -0.749546 0.548924 -0.455186 -0.734992 0.502586 
-0.449367 -0.73737 0.504336 0.42674 -0.770035 0.474276 0.359961 -0.793936 0.489994 
0.112013 -0.813919 0.570078 -0.04076 -0.827003 0.560718 -0.126041 -0.778169 0.615278 
-0.200334 -0.830379 0.519939 -0.12226 -0.825369 0.551198 -0.226331 -0.846524 0.481842 
0.15622 0.544945 -0.82379 0.00230538 0.616685 -0.787207 -0.0734821 0.590213 -0.803896 
0.336472 0.723881 -0.602315 0.207476 0.705611 -0.677545 0.183098 0.540639 -0.821088 
0.204704 0.60948 -0.765918 0.162162 0.514752 -0.841863 0.0216715 0.563335 -0.825945 
-0.188411 0.505214 -0.842176 -0.0928103 0.556984 -0.825321 -0.236718 0.449247 -0.861476 
-0.308351 0.576861 -0.756407 0.407126 0.688752 -0.599891 0.664776 0.546153 -0.509696 
0.331437 0.680196 -0.653822 0.15292 0.60703 -0.779827 0.0781881 0.536734 -0.840121 
0.025537 0.427578 -0.903618 0.0244783 0.381202 -0.924168 -0.0406869 0.380413 -0.923921 
-0.138275 0.424321 -0.894892 -0.430536 0.467076 -0.772321 -0.297875 0.448236 -0.842826 
-0.516078 0.428221 -0.741816 0.727856 0.491516 -0.478161 0.623508 0.497418 -0.60317 
0.29056 0.507373 -0.811263 -0.0475638 0.372983 -0.926618 -0.0558498 0.349998 -0.935084 
-0.0416188 0.279348 -0.959288 -0.0935882 0.327932 -0.940054 -0.240433 0.347784 -0.906222 
-0.533029 0.434476 -0.726024 -0.475275 0.416798 -0.77485 -0.629082 0.394139 -0.670008 
0.864771 0.336433 -0.372805 0.93636 0.289282 -0.198859 0.558178 0.400189 -0.726833 
-0.388583 0.295166 -0.872858 -0.655538 0.383332 -0.650636 -0.606861 0.376689 -0.699875 
0.938777 0.288404 -0.188469 0.932518 0.295331 -0.207821 -0.335178 0.232195 -0.913094 
-0.631929 0.399956 -0.663854 -0.503538 0.284519 -0.815781 -0.650798 0.386003 -0.653807 
0.92746 0.352903 -0.123603 -0.408327 0.252849 -0.877118 -0.675917 0.34368 -0.651936 
-0.584196 0.323141 -0.74451 0.949189 0.304744 -0.0785524 -0.680782 0.309787 -0.663752 
-0.550299 0.263168 -0.79241 -0.826379 0.125604 -0.548928 0.994731 0.0816941 -0.0619309 
-0.527306 0.126134 -0.840261 -0.851151 0.0722955 -0.519918 -0.860909 -0.0381233 -0.507329 
-0.829302 0.0833034 -0.552557 0.963856 -0.247598 -0.0983746 -0.858827 -0.198798 -0.472119 
-0.673651 0.00943188 -0.738989 0.794828 -0.594931 -0.119608 0.752569 -0.648032 -0.117023 
0.713415 -0.575204 -0.400225 -0.866347 -0.427237 -0.258673 -0.767134 -0.629756 -0.122115 
-0.70401 -0.229251 -0.672171 0.719229 -0.688713 -0.0915639 0.745726 -0.661343 -0.0807379 
0.639624 -0.598825 -0.481966 -0.720159 -0.688457 -0.0860149 -0.613167 -0.789818 0.0146389 
0.77031 -0.635311 -0.0547864 0.720255 -0.693444 -0.0191809 -0.420098 -0.903356 0.0864107 
-0.575643 -0.816762 0.0391809 -0.531627 -0.845348 0.0525327 0.643501 -0.765442 -0.00206556 
0.470212 -0.881781 0.0369194 0.143971 -0.984313 0.101977 -0.0221687 -0.991388 0.129068 
-0.122827 -0.981791 0.144914 -0.202215 -0.969412 0.139106 -0.418378 -0.904149 0.0864504 
-0.273481 -0.955826 0.107723 0.0722369 0.449067 -0.890573 -0.0323727 0.399774 -0.916042 
0.116563 0.459966 -0.880253 0.270618 0.46343 -0.8438 0.0651418 0.443211 -0.894047 
-0.0386369 0.389117 -0.920378 -0.034122 0.396301 -0.917487 -0.0482086 0.367066 -0.928945 
-0.0579609 0.362528 -0.930169 -0.0431267 0.319342 -0.946658 -0.0904566 0.321832 -0.942466 
-0.22922 0.307703 -0.92346 0.451884 0.396732 -0.799003 0.520424 0.395981 -0.756544 
0.239409 0.367054 -0.898863 0.0390916 0.318624 -0.947075 -0.0410414 0.291903 -0.955567 
-0.043021 0.294198 -0.954776 -0.055079 0.402094 -0.91394 -0.0568758 0.386242 -0.920642 
-0.0930984 0.322991 -0.941812 -0.240821 0.302098 -0.922357 -0.229511 0.303766 -0.92469 
0.640195 0.405324 -0.652582 0.768205 0.395118 -0.503729 0.464102 0.381037 -0.799638 
0.135376 0.301563 -0.943786 -0.0315982 0.232622 -0.972054 -0.0600381 0.157034 -0.985767 
0.0622409 0.150702 -0.986618 0.0545526 0.221505 -0.973632 -0.118489 0.245303 -0.962178 
-0.176168 0.22867 -0.957431 -0.319807 0.227164 -0.919848 -0.262611 0.205878 -0.942682 
-0.324504 0.226907 -0.918265 0.778504 0.391288 -0.490739 0.752979 0.388918 -0.530817 
0.341449 0.304731 -0.88913 0.0729318 0.217435 -0.973346 -0.103512 0.162448 -0.981273 
-0.125315 0.0970554 -0.987358 0.026086 0.212036 -0.976914 0.0411809 0.019106 -0.998969 
-0.0647657 0.0962928 -0.993244 -0.13715 0.146277 -0.97969 -0.232822 0.160404 -0.9592 
-0.349415 0.22871 -0.908626 -0.303516 0.2181 -0.927529 -0.366682 0.260563 -0.893113 
0.832687 0.28312 -0.475894 0.657885 0.247454 -0.711304 -0.00924976 0.0923884 -0.99568 
-0.067247 0.168661 -0.983377 0.0132966 0.188117 -0.982057 -0.116094 0.148731 -0.982039 
-0.187834 0.190778 -0.963495 -0.248289 0.25515 -0.934479 -0.395919 0.2696 -0.877818 
-0.347737 0.269003 -0.898174 0.867167 0.0450504 -0.495975 0.574565 -0.00316481 -0.818453 
-0.0348074 0.144341 -0.988916 -0.127522 0.0981295 -0.986969 -0.116619 0.178317 -0.977038 
-0.21486 0.202675 -0.955384 -0.491086 0.140161 -0.859761 -0.36368 0.208343 -0.907926 
0.788401 -0.294763 -0.539943 0.683807 -0.50906 -0.522749 0.602599 -0.292873 -0.742361 
-0.21151 0.0654629 -0.975181 -0.643668 0.0258285 -0.764869 -0.351367 0.0678771 -0.933774 
0.661726 -0.542317 -0.517697 0.63877 -0.597868 -0.48428 0.424086 -0.379981 -0.82205 
-0.241262 -0.0470087 -0.969321 -0.658788 -0.204707 -0.723943 -0.409309 -0.177018 -0.895059 
0.638866 -0.597772 -0.484272 0.436496 -0.329693 -0.837122 -0.169391 -0.130188 -0.976912 
-0.367449 -0.283092 -0.885912 -0.582742 -0.489683 -0.648554 -0.577066 -0.524057 -0.626386 
-0.550921 -0.454975 -0.699631 0.68237 -0.547928 -0.483886 0.666142 -0.574348 -0.475793 
0.643605 -0.515109 -0.56607 0.296155 -0.373145 -0.879236 -0.128453 -0.340749 -0.931338 
-0.414532 -0.817446 -0.399931 -0.332667 -0.403918 -0.852164 -0.554785 -0.647257 -0.522754 
-0.539925 -0.66454 -0.516592 -0.525622 -0.620357 -0.582132 0.539868 -0.679028 -0.497457 
0.489054 -0.708969 -0.508124 0.466874 -0.663878 -0.584204 0.202121 -0.85621 -0.475449 
0.20691 -0.604344 -0.769387 0.0065208 -0.901993 -0.431701 0.0168097 -0.528081 -0.849027 
-0.11853 -0.883963 -0.452283 -0.0868799 -0.567057 -0.819084 -0.197988 -0.880123 -0.43149 
-0.161776 -0.699712 -0.695868 -0.349779 -0.848278 -0.397591 -0.293615 -0.857521 -0.422431 
-0.261921 -0.791734 -0.551864 0.255878 0.183552 -0.949123 0.0546251 0.195877 -0.979106 
-0.144959 0.115045 -0.982727 -0.00173118 0.189758 -0.981829 0.266258 0.176966 -0.947518 
0.249184 0.173828 -0.952728 0.00201514 0.133172 -0.991091 -0.137212 0.0919019 -0.986269 
-0.164627 0.0914418 -0.982108 -0.00378822 0.175012 -0.984559 -0.011122 0.185067 -0.982663 
-0.00199331 0.185815 -0.982583 0.00367114 0.127844 -0.991787 -0.0341723 0.143711 -0.989029 
0.331639 -0.0101273 -0.943352 0.219565 -0.0108966 -0.975537 -0.0204894 0.00173576 -0.999789 
-0.0833604 0.109617 -0.990472 -0.147537 0.0597768 -0.987248 0.0567851 0.0309522 -0.997907 
-0.0519001 0.140633 -0.988701 0.0890095 -0.00904031 -0.99599 0.0402114 0.100682 -0.994106 
-0.111184 0.0985295 -0.988903 -0.0765411 0.0975503 -0.992283 -0.0691536 0.0963104 -0.992946 
-0.0813902 0.0964147 -0.992008 0.263459 -0.171593 -0.949287 0.262999 -0.173808 -0.949011 
0.260529 -0.170968 -0.950208 0.0712217 -0.0722767 -0.994838 -0.020784 0.0510491 -0.99848 
-0.0737012 0.134954 -0.988107 -0.0417899 0.0192436 -0.998941 0.0427307 -0.0249577 -0.998775 
0.00297392 0.0198989 -0.999798 -0.0388002 0.0954544 -0.994677 -0.0912627 0.0853669 -0.992161 
-0.0774177 0.0875731 -0.993145 0.255784 -0.19957 -0.94591 0.273856 -0.201645 -0.940395 
0.218748 -0.158628 -0.962801 0.061287 -0.00913059 -0.998078 -0.0638281 0.0410612 -0.997116 
-0.0749584 0.0822041 -0.993793 0.0416123 0.0676587 -0.99684 0.0415989 0.0630792 -0.997141 
-0.058496 0.0502573 -0.997022 -0.162046 -0.0158496 -0.986656 -0.164244 -0.1063 -0.980675 
-0.145476 -0.010175 -0.989309 0.283475 -0.204326 -0.936959 0.267515 -0.323093 -0.90777 
0.168548 -0.117043 -0.97872 0.0156598 -0.074267 -0.997115 -0.0153835 0.0083955 -0.999846 
0.0233298 0.00113386 -0.999727 -0.0139256 -0.0571239 -0.99827 -0.164977 -0.127934 -0.977965 
-0.11875 -0.245851 -0.962006 -0.108088 -0.0998388 -0.989115 0.183933 -0.319335 -0.92962 
0.0662021 -0.279253 -0.957933 0.0549492 -0.250411 -0.966579 0.00796057 -0.269282 -0.963028 
0.00424383 -0.212638 -0.977122 -0.0324982 -0.26793 -0.96289 -0.0260344 -0.233891 -0.971914 
-0.0776841 -0.306813 -0.948594 -0.0655203 -0.316 -0.946494 -0.0617196 -0.297551 -0.952709 

