# vtk DataFile Version 4.2
vtk output
ASCII
DATASET POLYDATA
POINTS 552 float
-32.8054 -38.732 -16.5963 -24.4269 -38.732 -17.7829 -16.0485 -38.732 -18.5348 
-7.67005 -38.732 -18.2421 0.708396 -38.732 -17.4875 9.08684 -38.732 -16.1656 
-41.1838 -30.3535 -17.3313 -32.8054 -30.3535 -19.6407 -24.4269 -30.3535 -20.5653 
-16.0485 -30.3535 -20.3661 -7.67005 -30.3535 -20.9757 0.708396 -30.3535 -20.4238 
9.08684 -30.3535 -18.3791 17.4653 -30.3535 -17.1753 25.8437 -30.3535 -17.0976 
-49.5623 -21.9751 -16.784 -41.1838 -21.9751 -19.5324 -32.8054 -21.9751 -20.9335 
-24.4269 -21.9751 -20.557 -16.0485 -21.9751 -20.0454 -7.67005 -21.9751 -20.7307 
0.708396 -21.9751 -21.1376 9.08684 -21.9751 -18.9575 17.4653 -21.9751 -17.7816 
25.8437 -21.9751 -18.6658 34.2222 -21.9751 -18.2642 42.6006 -21.9751 -18.1425 
50.9791 -21.9751 -15.8499 -49.5623 -13.5966 -17.8669 -41.1838 -13.5966 -19.9719 
-32.8054 -13.5966 -20.52 -24.4269 -13.5966 -19.7633 -16.0485 -13.5966 -18.7566 
-7.67005 -13.5966 -19.7644 0.708396 -13.5966 -21.4763 9.08684 -13.5966 -18.7518 
17.4653 -13.5966 -17.3367 25.8437 -13.5966 -18.7326 34.2222 -13.5966 -20.2699 
42.6006 -13.5966 -20.274 50.9791 -13.5966 -18.442 -49.5623 -5.21819 -18.3858 
-41.1838 -5.21819 -19.9547 -32.8054 -5.21819 -20.0744 -24.4269 -5.21819 -19.467 
-16.0485 -5.21819 -19.8575 -7.67005 -5.21819 -22.6199 0.708396 -5.21819 -19.0498 
9.08684 -5.21819 -20.3918 17.4653 -5.21819 -16.8127 25.8437 -5.21819 -18.5618 
34.2222 -5.21819 -20.2501 42.6006 -5.21819 -20.8875 50.9791 -5.21819 -20.4487 
59.3575 -5.21819 -17.4248 -49.5623 3.16026 -18.0357 -41.1838 3.16026 -19.5251 
-32.8054 3.16026 -19.6815 -24.4269 3.16026 -19.1258 -16.0485 3.16026 -21.1781 
-7.67005 3.16026 -23.3296 0.708396 3.16026 -17.3287 9.08684 3.16026 -20.0817 
17.4653 3.16026 -16.6517 25.8437 3.16026 -18.7502 34.2222 3.16026 -20.5212 
42.6006 3.16026 -21.2605 50.9791 3.16026 -20.8413 59.3575 3.16026 -17.9182 
-49.5623 11.5387 -17.319 -41.1838 11.5387 -19.1323 -32.8054 11.5387 -19.7264 
-24.4269 11.5387 -19.7147 -16.0485 11.5387 -19.662 -7.67005 11.5387 -19.3234 
0.708396 11.5387 -19.5208 9.08684 11.5387 -17.6751 17.4653 11.5387 -16.854 
25.8437 11.5387 -18.9389 34.2222 11.5387 -20.6622 42.6006 11.5387 -20.6829 
50.9791 11.5387 -19.9964 59.3575 11.5387 -17.1186 -49.5623 19.9171 -16.7593 
-41.1838 19.9171 -19.1051 -32.8054 19.9171 -20.3102 -24.4269 19.9171 -20.5388 
-16.0485 19.9171 -20.0241 -7.67005 19.9171 -19.03 0.708396 19.9171 -18.5275 
9.08684 19.9171 -17.0599 17.4653 19.9171 -16.8591 25.8437 19.9171 -17.9797 
34.2222 19.9171 -19.0325 42.6006 19.9171 -19.8486 50.9791 19.9171 -18.3041 
-41.1838 28.2956 -17.2663 -32.8054 28.2956 -19.2146 -24.4269 28.2956 -20.6916 
-16.0485 28.2956 -19.9411 -7.67005 28.2956 -19.3944 0.708396 28.2956 -18.1912 
9.08684 28.2956 -16.7392 17.4653 28.2956 -15.9733 25.8437 28.2956 -16.1918 
34.2222 28.2956 -16.9311 42.6006 28.2956 -16.7104 -32.8054 36.674 -16.7616 
-24.4269 36.674 -18.2193 -16.0485 36.674 -18.1168 -7.67005 36.674 -17.4597 
0.708396 36.674 -16.0831 -32.8054 -39.7089 -15.7668 -24.4269 -41.4642 -15.7668 
-16.0485 -42.4122 -15.7668 -7.67005 -41.8605 -15.7668 0.708396 -40.9346 -15.7668 
9.08684 -39.2852 -15.7668 -34.5166 -38.732 -15.7668 -41.1838 -32.9928 -15.7668 
-41.1838 -38.732 -9.85572 10.7857 -38.732 -15.7668 17.4653 -34.4122 -15.7668 
17.4653 -38.732 -13.8806 25.8437 -33.5351 -15.7668 25.8437 -38.732 -12.2838 
34.2222 -38.732 -9.04315 -43.842 -30.3535 -15.7668 -49.5623 -24.0511 -15.7668 
-49.5623 -30.3535 -10.3181 33.9401 -30.3535 -15.7668 34.2222 -30.1875 -15.7668 
34.2222 -30.3535 -15.7096 42.6006 -27.5795 -15.7668 42.6006 -30.3535 -14.2749 
50.9791 -22.1245 -15.7668 50.9791 -30.3535 -8.2749 -50.9708 -21.9751 -15.7668 
51.1403 -21.9751 -15.7668 59.3575 -21.9751 -8.21531 -53.4248 -13.5966 -15.7668 
-57.9407 -13.5966 -12.3283 56.9205 -13.5966 -15.7668 59.3575 -10.2234 -15.7668 
59.3575 -13.5966 -14.1933 -55.1305 -5.21819 -15.7668 -57.9407 -5.21819 -14.1949 
61.942 -5.21819 -15.7668 67.7359 -5.21819 -7.52607 -54.775 3.16026 -15.7668 
-57.9407 3.16026 -14.2209 62.934 3.16026 -15.7668 67.7359 3.16026 -8.6878 
-53.1212 11.5387 -15.7668 -57.9407 11.5387 -13.3287 61.1168 11.5387 -15.7668 
59.3575 15.286 -15.7668 -51.2584 19.9171 -15.7668 -57.9407 19.9171 -10.1245 
-49.5623 22.9909 -15.7668 56.6287 19.9171 -15.7668 50.9791 25.3229 -15.7668 
59.3575 19.9171 -13.7716 -44.8405 28.2956 -15.7668 -49.5623 28.2956 -13.4118 
-41.1838 32.2932 -15.7668 9.08684 32.7905 -15.7668 17.4653 28.9801 -15.7668 
25.8437 29.8237 -15.7668 34.2222 30.4384 -15.7668 45.9526 28.2956 -15.7668 
42.6006 29.8114 -15.7668 50.9791 28.2956 -13.5538 -35.8132 36.674 -15.7668 
-41.1838 36.674 -13.5754 -32.8054 38.1034 -15.7668 -24.4269 40.8052 -15.7668 
-16.0485 41.2147 -15.7668 -7.67005 39.6991 -15.7668 2.82067 36.674 -15.7668 
0.708396 37.3429 -15.7668 9.08684 36.674 -14.8111 17.4653 36.674 -13.2471 
25.8437 36.674 -13.1283 34.2222 36.674 -11.767 42.6006 36.674 -8.81218 
-32.8054 45.0525 -8.2583 -24.4269 45.0525 -11.1211 -16.0485 45.0525 -12.2424 
-7.67005 45.0525 -11.5535 0.708396 45.0525 -10.3014 9.08684 45.0525 -8.21847 
-41.1838 -40.2347 -7.38835 -32.8054 -44.6722 -7.38835 -24.4269 -46.6167 -7.38835 
-16.0485 -46.872 -7.38835 -7.67005 -46.7599 -7.38835 0.708396 -46.1276 -7.38835 
9.08684 -45.6572 -7.38835 17.4653 -44.3786 -7.38835 25.8437 -42.4868 -7.38835 
34.2222 -39.9843 -7.38835 -43.1204 -38.732 -7.38835 -49.5623 -32.6748 -7.38835 
37.0093 -38.732 -7.38835 42.6006 -36.232 -7.38835 50.9791 -31.0438 -7.38835 
-51.6272 -30.3535 -7.38835 51.8415 -30.3535 -7.38835 59.3575 -22.7249 -7.38835 
-57.7048 -21.9751 -7.38835 -57.9407 -21.5247 -7.38835 -57.9407 -21.9751 -6.1343 
59.9633 -21.9751 -7.38835 -62.0979 -13.5966 -7.38835 64.6576 -13.5966 -7.38835 
67.7359 -5.3996 -7.38835 -64.4402 -5.21819 -7.38835 67.7941 -5.21819 -7.38835 
67.7359 -5.21819 -5.72865 -64.5118 3.16026 -7.38835 -66.3192 3.16026 -1.47036 
68.2584 3.16026 -7.38835 67.7359 10.1785 -7.38835 -64.2291 11.5387 -7.38835 
67.6207 11.5387 -7.38835 -60.5741 19.9171 -7.38835 -57.9407 24.7563 -7.38835 
64.5406 19.9171 -7.38835 59.3575 26.2487 -7.38835 -55.9262 28.2956 -7.38835 
-57.9407 28.2956 -0.403231 -49.5623 35.9974 -7.38835 57.2973 28.2956 -7.38835 
50.9791 33.2639 -7.38835 -48.8439 36.674 -7.38835 -49.5623 36.674 -4.90191 
-41.1838 42.0134 -7.38835 17.4653 43.9003 -7.38835 25.8437 42.0407 -7.38835 
34.2222 40.5965 -7.38835 44.6473 36.674 -7.38835 42.6006 37.7504 -7.38835 
-34.1803 45.0525 -7.38835 -32.8054 45.5935 -7.38835 -24.4269 47.1675 -7.38835 
-16.0485 47.7122 -7.38835 -7.67005 47.8823 -7.38835 0.708396 46.9464 -7.38835 
12.4349 45.0525 -7.38835 9.08684 45.6606 -7.38835 17.4653 45.0525 -4.37776 
-41.1838 -40.21 0.990096 -32.8054 -44.6415 0.990096 -24.4269 -46.5224 0.990096 
-16.0485 -46.7729 0.990096 -7.67005 -46.8545 0.990096 0.708396 -46.7245 0.990096 
9.08684 -46.8768 0.990096 17.4653 -45.9417 0.990096 25.8437 -43.9211 0.990096 
34.2222 -41.2345 0.990096 -43.1039 -38.732 0.990096 -49.5623 -33.0708 0.990096 
-41.1838 -38.732 5.34804 39.7046 -38.732 0.990096 34.2222 -38.732 8.80492 
42.6006 -37.3621 0.990096 50.9791 -32.1947 0.990096 -51.9639 -30.3535 0.990096 
-57.9407 -23.4606 0.990096 -49.5623 -30.3535 8.14652 53.2284 -30.3535 0.990096 
50.9791 -30.3535 5.95081 59.3575 -23.6873 0.990096 -59.058 -21.9751 0.990096 
-57.9407 -21.9751 4.65791 60.7007 -21.9751 0.990096 59.3575 -21.9751 4.02306 
-63.7319 -13.5966 0.990096 64.8719 -13.5966 0.990096 -66.1508 -5.21819 0.990096 
-66.3192 -3.52082 0.990096 67.495 -5.21819 0.990096 67.7359 -1.35596 0.990096 
-66.9662 3.16026 0.990096 -66.3192 9.78115 0.990096 -66.3192 3.16026 3.26332 
68.0429 3.16026 0.990096 67.7359 6.58177 0.990096 67.7359 3.16026 1.63421 
-66.1412 11.5387 0.990096 67.3094 11.5387 0.990096 -63.021 19.9171 0.990096 
64.7495 19.9171 0.990096 59.3575 27.6401 0.990096 -58.3058 28.2956 0.990096 
-57.9407 28.7703 0.990096 -57.9407 28.2956 1.86567 58.792 28.2956 0.990096 
50.9791 34.8535 0.990096 -50.9471 36.674 0.990096 -49.5623 37.8388 0.990096 
-49.5623 36.674 3.57849 -41.1838 43.0957 0.990096 25.8437 45.0352 0.990096 
34.2222 42.9754 0.990096 47.9509 36.674 0.990096 42.6006 39.5537 0.990096 
42.6006 36.674 8.31377 -35.6709 45.0525 0.990096 -32.8054 46.0322 0.990096 
-32.8054 45.0525 3.13819 -24.4269 47.3366 0.990096 -24.4269 45.0525 5.41716 
-16.0485 47.9123 0.990096 -16.0485 45.0525 6.65283 -7.67005 47.8965 0.990096 
-7.67005 45.0525 6.70786 0.708396 47.8348 0.990096 0.708396 45.0525 7.741 
9.08684 47.5336 0.990096 9.08684 45.0525 8.50312 25.7524 45.0525 0.990096 
17.4653 46.576 0.990096 17.4653 45.0525 5.80615 -32.8054 -42.0326 9.36854 
-24.4269 -44.1369 9.36854 -16.0485 -44.6018 9.36854 -7.67005 -44.8301 9.36854 
0.708396 -45.0258 9.36854 9.08684 -45.1975 9.36854 17.4653 -43.854 9.36854 
25.8437 -41.4092 9.36854 -38.8901 -38.732 9.36854 -41.1838 -37.295 9.36854 
-32.8054 -38.732 14.2006 17.4653 -38.732 16.4194 33.6512 -38.732 9.36854 
25.8437 -38.732 13.0056 34.2222 -38.5076 9.36854 42.6006 -34.6263 9.36854 
-49.0742 -30.3535 9.36854 -49.5623 -29.8187 9.36854 -41.1838 -30.3535 17.2633 
49.0053 -30.3535 9.36854 42.6006 -30.3535 14.5198 50.9791 -28.6603 9.36854 
-56.1335 -21.9751 9.36854 -57.9407 -19.1153 9.36854 -49.5623 -21.9751 17.2745 
56.7435 -21.9751 9.36854 50.9791 -21.9751 14.9299 59.3575 -16.6765 9.36854 
-61.1406 -13.5966 9.36854 -57.9407 -13.5966 13.188 50.9791 -13.5966 17.0842 
60.7075 -13.5966 9.36854 59.3575 -13.5966 10.8495 -63.5857 -5.21819 9.36854 
-57.9407 -5.21819 15.928 63.2726 -5.21819 9.36854 59.3575 -5.21819 13.3348 
-64.0139 3.16026 9.36854 -57.9407 3.16026 15.6651 63.7125 3.16026 9.36854 
59.3575 3.16026 13.6831 -63.0472 11.5387 9.36854 -57.9407 11.5387 14.8014 
50.9791 11.5387 17.5899 62.8986 11.5387 9.36854 59.3575 11.5387 12.8333 
-59.5485 19.9171 9.36854 -57.9407 22.7913 9.36854 -57.9407 19.9171 11.0051 
-49.5623 19.9171 15.8524 -16.0485 19.9171 17.6964 -7.67005 19.9171 17.2103 
50.9791 19.9171 16.7057 60.676 19.9171 9.36854 59.3575 21.6647 9.36854 
[...]
POINT_DATA 552
SCALARS ImageScalars float
LOOKUP_TABLE default
0 0 0 0 0 0 0 0 0 
0 0 0 0 0 0 0 0 0 
0 0 0 0 0 0 0 0 0 
0 0 0 0 0 0 0 0 0 
0 0 0 0 0 0 0 0 0 
0 0 0 0 0 0 0 0 0 
0 0 0 0 0 0 0 0 0 
0 0 0 0 0 0 0 0 0 
0 0 0 0 0 0 0 0 0 
0 0 0 0 0 0 0 0 0 
0 0 0 0 0 0 0 0 0 
0 0 0 0 0 0 0 0 0 
0 0 0 0 0 0 0 0 0 
0 0 0 0 0 0 0 0 0 
0 0 0 0 0 0 0 0 0 
0 0 0 0 0 0 0 0 0 
0 0 0 0 0 0 0 0 0 
0 0 0 0 0 0 0 0 0 
0 0 0 0 0 0 0 0 0 
0 0 0 0 0 0 0 0 0 
0 0 0 0 0 0 0 0 0 
0 0 0 0 0 0 0 0 0 
0 0 0 0 0 0 0 0 0 
0 0 0 0 0 0 0 0 0 
0 0 0 0 0 0 0 0 0 
0 0 0 0 0 0 0 0 0 
0 0 0 0 0 0 0 0 0 
0 0 0 0 0 0 0 0 0 
0 0 0 0 0 0 0 0 0 
0 0 0 0 0 0 0 0 0 
0 0 0 0 0 0 0 0 0 
0 0 0 0 0 0 0 0 0 
0 0 0 0 0 0 0 0 0 
0 0 0 0 0 0 0 0 0 
0 0 0 0 0 0 0 0 0 
0 0 0 0 0 0 0 0 0 
0 0 0 0 0 0 0 0 0 
0 0 0 0 0 0 0 0 0 
0 0 0 0 0 0 0 0 0 
0 0 0 0 0 0 0 0 0 
0 0 0 0 0 0 0 0 0 
0 0 0 0 0 0 0 0 0 
0 0 0 0 0 0 0 0 0 
0 0 0 0 0 0 0 0 0 
0 0 0 0 0 0 0 0 0 
0 0 0 0 0 0 0 0 0 
0 0 0 0 0 0 0 0 0 
0 0 0 0 0 0 0 0 0 
0 0 0 0 0 0 0 0 0 
0 0 0 0 0 0 0 0 0 
0 0 0 0 0 0 0 0 0 
0 0 0 0 0 0 0 0 0 
0 0 0 0 0 0 0 0 0 
0 0 0 0 0 0 0 0 0 
0 0 0 0 0 0 0 0 0 
0 0 0 0 0 0 0 0 0 
0 0 0 0 0 0 0 0 0 
0 0 0 0 0 0 0 0 0 
0 0 0 0 0 0 0 0 0 
0 0 0 0 0 0 0 0 0 
0 0 0 0 0 0 0 0 0 
0 0 0 
NORMALS Normals float
0.290511 0.582019 0.759512 0.10959 0.493006 0.863096 0.0283786 0.450314 0.892419 
-0.0594127 0.505761 0.860625 -0.11756 0.523176 0.844077 -0.181753 0.477604 0.85957 
0.397358 0.40095 0.825437 0.165382 0.231849 0.95859 0.0481655 0.160393 0.985877 
0.0242711 0.0871915 0.995896 0.00270393 0.130826 0.991402 -0.148834 0.190416 0.970356 
-0.193172 0.156306 0.968634 -0.0761577 0.193992 0.978043 -0.0737539 0.296183 0.952279 
0.508623 0.277612 0.815006 0.229312 0.134673 0.963991 0.0654062 0.0577811 0.996184 
-0.0521338 -0.047649 0.997503 0.00800517 -0.0953845 0.995408 0.066207 -0.0681274 0.995477 
-0.10532 0.0636129 0.992402 -0.202529 0.0231821 0.979002 -0.0180123 0.00812182 0.999805 
0.0303837 0.106503 0.993848 -0.0286338 0.238961 0.970607 -0.139773 0.345604 0.927912 
-0.364487 0.406064 0.83801 0.359065 0.091907 0.928776 0.142011 0.0258479 0.989527 
-0.013174 -0.0504572 0.998639 -0.106821 -0.0660343 0.992083 -0.00558859 -0.0211069 0.999762 
0.17004 0.101613 0.980184 -0.0527642 -0.107663 0.992786 -0.264727 0.0721253 0.961622 
0.00744471 -0.0575827 0.998313 0.171822 -0.00620629 0.985109 0.0926199 0.117011 0.988802 
-0.0977619 0.143572 0.984799 -0.29712 0.255697 0.919967 0.286401 0.00828818 0.958074 
0.0921469 -0.0266151 0.99539 -0.0291687 -0.0499612 0.998325 -0.0164633 -0.0381885 0.999135 
0.191192 0.145898 0.970649 -0.0499745 0.204703 0.977548 -0.137182 -0.253274 0.957619 
-0.163759 0.083955 0.982921 -0.071344 -0.0413779 0.996593 0.204616 0.000924369 0.978842 
0.136892 0.0149078 0.990474 0.0133488 0.0632791 0.997907 -0.199019 0.139219 0.970056 
-0.467853 0.166927 0.867899 0.270842 -0.0585686 0.960841 0.0917145 -0.0486502 0.994596 
-0.0239493 -0.0207575 0.999498 0.0660208 0.0147487 0.997709 0.251553 -0.0269234 0.967469 
-0.220957 -0.224304 0.949139 -0.161492 0.0427559 0.985947 -0.0814081 -0.160267 0.983711 
-0.0332974 0.002504 0.999442 0.230317 0.0223205 0.97286 0.14693 0.0233414 0.988871 
0.0203534 -0.012232 0.999718 -0.198718 -0.0258106 0.979717 -0.44765 -0.00893626 0.894164 
0.297725 -0.0746194 0.951731 0.132403 -0.0244307 0.990895 0.0340975 0.0366744 0.998745 
-0.00382955 0.083995 0.996459 -0.0229938 -0.0524757 0.998357 -0.0092485 -0.205192 0.978678 
-0.0804369 0.0497233 0.995519 -0.173669 -0.162166 0.97136 0.0827778 0.0122963 0.996492 
0.217597 -0.0461303 0.974948 0.105626 -0.0835031 0.990894 -0.0369597 -0.0801564 0.996097 
-0.177507 -0.157866 0.971375 -0.498147 -0.199803 0.843758 0.424435 -0.176267 0.888135 
0.20909 -0.0987464 0.972898 0.0908767 -0.0286911 0.995449 -0.0173403 0.0577667 0.998179 
-0.0895673 0.0166874 0.995841 -0.088656 0.00420849 0.996053 -0.115927 -0.0767855 0.990285 
-0.10105 -0.0509084 0.993578 0.0544253 -0.0510522 0.997212 0.124891 -0.160811 0.979052 
0.109603 -0.201584 0.97332 -0.0496268 -0.239987 0.969507 -0.27416 -0.293782 0.915712 
0.283812 -0.28274 0.916247 0.187468 -0.185042 0.964684 0.0408073 -0.135611 0.989921 
-0.0749688 -0.107415 0.991384 -0.103236 -0.0855104 0.990974 -0.16201 -0.138316 0.977047 
-0.126935 -0.126132 0.983859 -0.0347404 -0.19961 0.979259 0.051089 -0.238859 0.969709 
0.0309631 -0.358436 0.933041 -0.139403 -0.470167 0.871498 0.239791 -0.447351 0.861613 
0.0664051 -0.403154 0.912719 -0.0428659 -0.338588 0.939958 -0.114478 -0.361078 0.925482 
-0.148416 -0.345675 0.926543 0.296138 0.629029 0.718766 0.127099 0.627984 0.767777 
0.0178707 0.670896 0.741336 -0.0661683 0.66316 0.745547 -0.110627 0.636782 0.763067 
-0.182015 0.505475 0.843425 0.337803 0.6021 0.72344 0.450875 0.476306 0.75488 
0.556051 0.741043 0.37638 -0.18057 0.489551 0.853073 -0.118295 0.358305 0.92608 
-0.180921 0.581224 0.793377 -0.115321 0.412948 0.903424 -0.207119 0.696759 0.686753 
-0.330933 0.808948 0.485887 0.483414 0.453105 0.749004 0.54784 0.348619 0.760484 
0.691009 0.594092 0.411778 -0.151855 0.410459 0.899146 -0.151874 0.411019 0.898887 
-0.15501 0.416238 0.895945 -0.219615 0.459743 0.860468 -0.289366 0.555766 0.779353 
-0.366645 0.410696 0.834806 -0.564587 0.725807 0.392995 0.560104 0.303449 0.770846 
-0.369648 0.408119 0.834745 -0.745789 0.5611 0.359119 0.501672 0.15257 0.851497 
0.718415 0.284643 0.634711 -0.49521 0.326256 0.805186 -0.528615 0.290084 0.797758 
-0.613234 0.38129 0.691782 0.479701 0.0435595 0.87635 0.610472 0.0796302 0.788025 
-0.577802 0.196719 0.792115 -0.960873 0.189198 0.202304 0.427928 -0.0508647 0.90238 
0.562948 -0.0443443 0.825302 -0.611359 -0.0291965 0.790814 -0.965142 -0.0121264 0.261445 
0.402954 -0.110213 0.90856 0.585804 -0.194655 0.786729 -0.572556 -0.2219 0.789265 
-0.54374 -0.28178 0.790536 0.47651 -0.190776 0.858221 0.706001 -0.331176 0.626007 
0.439722 -0.261867 0.85911 -0.48328 -0.345259 0.80451 -0.334507 -0.470703 0.816421 
-0.621529 -0.4042 0.671062 0.355595 -0.341004 0.870212 0.505954 -0.434905 0.744895 
0.335027 -0.379078 0.862587 -0.139472 -0.25058 0.957996 -0.0375398 -0.218504 0.975114 
0.0324335 -0.286635 0.957491 -0.0143088 -0.437775 0.898971 -0.225723 -0.512321 0.828599 
-0.15418 -0.522033 0.838874 -0.402002 -0.61148 0.681533 0.291429 -0.466708 0.835017 
0.410973 -0.54863 0.728084 0.247437 -0.506619 0.825901 0.109146 -0.569153 0.814955 
-0.0343443 -0.546699 0.836624 -0.109132 -0.483516 0.868506 -0.147558 -0.349195 0.925359 
-0.14732 -0.371435 0.916697 -0.151576 -0.377337 0.913587 -0.0945141 -0.469934 0.877627 
-0.0717698 -0.575073 0.814948 -0.180149 -0.70955 0.681238 -0.348673 -0.800701 0.487139 
0.279239 -0.89264 0.353862 0.136741 -0.864798 0.483142 0.00992335 -0.832099 0.554539 
-0.0744922 -0.817844 0.570598 -0.14461 -0.827212 0.542962 -0.1691 -0.845457 0.506565 
0.554966 0.79778 0.235711 0.344162 0.908412 0.237362 0.119457 0.969615 0.213486 
0.00799158 0.981485 0.19137 -0.0435125 0.977118 0.208199 -0.0643221 0.966304 0.249236 
-0.0989412 0.935126 0.340219 -0.177893 0.893139 0.413107 -0.240714 0.879466 0.410604 
-0.340097 0.853879 0.393986 0.593365 0.768735 0.238672 0.712592 0.649483 0.2653 
-0.365153 0.849044 0.381822 -0.413782 0.838451 0.35466 -0.572281 0.741575 0.350088 
0.737151 0.61903 0.270943 -0.589366 0.729983 0.346083 -0.7516 0.57993 0.31429 
0.811774 0.472586 0.343053 0.814014 0.465895 0.346875 0.824077 0.490676 0.28308 
-0.762664 0.564933 0.314953 0.849873 0.353826 0.390541 -0.879153 0.38832 0.276219 
-0.96174 0.192163 0.195268 0.898122 0.115068 0.424425 -0.962568 0.188469 0.194788 
-0.975376 0.188947 0.113753 0.887199 -0.00976401 0.461285 0.993848 -0.00172008 0.110739 
-0.982002 -0.00915415 0.188648 -0.96453 -0.158389 0.211173 0.863593 -0.185948 0.468648 
-0.957499 -0.188675 0.21817 0.78343 -0.376808 0.49422 0.768579 -0.45158 0.453169 
-0.836374 -0.469143 0.28352 -0.712172 -0.640381 0.287617 0.758271 -0.498331 0.420346 
0.818685 -0.574217 0.00541903 0.621937 -0.670189 0.40502 -0.65934 -0.688718 0.30156 
-0.495972 -0.796414 0.34603 0.606272 -0.688878 0.397342 0.638111 -0.729747 0.245525 
0.447237 -0.824224 0.347325 -0.181682 -0.811934 0.554757 -0.167154 -0.815956 0.553422 
-0.214116 -0.84465 0.490632 -0.403688 -0.821513 0.402682 -0.372268 -0.82638 0.422507 
0.303473 -0.900623 0.311098 0.278383 -0.909299 0.309319 0.117559 -0.956801 0.265919 
0.0422056 -0.964622 0.260236 -0.0459226 -0.950297 0.307939 -0.132911 -0.920511 0.367416 
-0.171216 -0.855787 0.488174 -0.160605 -0.874343 0.457963 -0.175499 -0.928103 0.328367 
0.5564 0.81996 -0.134477 0.325915 0.93511 -0.139103 0.121367 0.982776 -0.13936 
0.0199256 0.991301 -0.130098 -0.00289888 0.994292 -0.106658 0.00135019 0.998164 -0.0605594 
-0.0457037 0.998621 -0.0258387 -0.170545 0.984926 -0.0289062 -0.274976 0.95967 -0.0584881 
-0.359818 0.929933 -0.0758605 0.596837 0.791478 -0.131713 0.723485 0.68166 -0.10913 
0.549897 0.789266 -0.273262 -0.420128 0.905009 -0.0667161 -0.340719 0.83973 -0.422805 
-0.45542 0.887613 -0.0688121 -0.613862 0.783993 -0.0923564 0.742357 0.661702 -0.105155 
0.810114 0.581877 -0.0716589 0.690439 0.630348 -0.354902 -0.651227 0.752509 -0.0981523 
-0.611928 0.729352 -0.305926 -0.793673 0.592894 -0.136236 0.832278 0.550636 -0.0641337 
0.806584 0.549119 -0.218838 -0.824135 0.548774 -0.140173 -0.798382 0.535969 -0.274452 
0.912018 0.407176 -0.0492994 -0.915798 0.353839 -0.190029 0.984383 0.166655 -0.0567144 
0.990155 0.131377 -0.0483038 -0.957404 0.177517 -0.227738 -0.968393 0.0917828 -0.231927 
0.999962 -0.0013531 -0.00857348 0.982848 -0.173603 -0.0622158 0.993214 -0.00703344 -0.116088 
-0.972164 -0.00967803 -0.234103 -0.968604 -0.0788232 -0.235781 -0.965552 -0.0100218 -0.260016 
0.972844 -0.219235 -0.0742354 -0.954755 -0.182284 -0.23498 0.914641 -0.400338 -0.0562314 
-0.885427 -0.430836 -0.174353 -0.75321 -0.641361 -0.14605 0.814834 -0.576521 -0.0605692 
0.808869 -0.58439 -0.0649513 0.806882 -0.58179 -0.102286 -0.736902 -0.661137 -0.14097 
-0.559793 -0.823 -0.0964535 0.651383 -0.751647 -0.103573 0.620512 -0.777902 -0.0991675 
0.62514 -0.751069 -0.212354 0.423527 -0.897203 -0.125108 -0.20752 -0.977776 -0.0298328 
-0.305717 -0.949949 -0.0642949 -0.500022 -0.861956 -0.0837249 -0.416822 -0.90579 -0.0761813 
-0.380662 -0.785257 -0.488332 0.294408 -0.941093 -0.166336 0.233391 -0.955031 -0.182878 
0.220377 -0.928074 -0.300187 0.111916 -0.96915 -0.219595 0.1004 -0.884741 -0.455141 
0.0311419 -0.975206 -0.219096 0.0378868 -0.853979 -0.518927 -0.00467943 -0.974242 -0.225458 
0.0283233 -0.855081 -0.51772 -0.0216247 -0.990529 -0.135592 0.0472831 -0.860923 -0.506534 
-0.073999 -0.996011 -0.0498553 -0.033474 -0.870764 -0.49056 -0.206795 -0.977935 -0.0296634 
-0.145869 -0.989048 -0.0225137 -0.156102 -0.939365 -0.30533 0.330153 0.846143 -0.41838 
0.135614 0.907055 -0.398571 0.0385473 0.92932 -0.367259 0.0242494 0.92739 -0.37331 
0.0206887 0.937089 -0.348477 -0.0633177 0.929488 -0.363376 -0.209767 0.888639 -0.407823 
-0.280853 0.849563 -0.446503 0.478149 0.777082 -0.409289 0.531233 0.742051 -0.408842 
0.345144 0.729887 -0.590035 -0.207254 0.617806 -0.758526 -0.333537 0.82884 -0.449196 
-0.275509 0.757841 -0.591416 -0.337087 0.82618 -0.451441 -0.440342 0.778916 -0.44653 
0.671449 0.623889 -0.399898 0.678667 0.616758 -0.398774 0.447318 0.519659 -0.727916 
-0.552623 0.69146 -0.465286 -0.402286 0.606877 -0.685468 -0.598051 0.642931 -0.478513 
0.746353 0.519561 -0.415948 0.766043 0.477926 -0.429842 0.547675 0.373323 -0.748787 
-0.708483 0.466836 -0.52926 -0.543257 0.374159 -0.751583 -0.73972 0.36234 -0.567031 
0.816476 0.384135 -0.431054 0.686256 0.350338 -0.637429 -0.455271 0.174118 -0.873162 
-0.755897 0.29686 -0.583519 -0.716144 0.288636 -0.635473 0.855587 0.139644 -0.498468 
0.59375 0.095514 -0.79896 -0.784005 0.14314 -0.604026 -0.651919 0.123914 -0.748096 
0.860403 -0.0310697 -0.508666 0.515229 -0.0585072 -0.855053 -0.785465 -0.0169672 -0.618673 
-0.622984 -0.0242826 -0.781857 0.82888 -0.223034 -0.513043 0.562119 -0.236606 -0.79249 
-0.362861 -0.0739137 -0.928907 -0.767576 -0.142307 -0.624961 -0.639388 -0.146203 -0.754856 
0.722315 -0.395602 -0.567239 0.692595 -0.461867 -0.554068 0.657389 -0.391096 -0.644114 
0.37655 -0.260366 -0.889055 -0.0895026 -0.0987179 -0.991082 0.0339271 -0.144955 -0.988856 
-0.408281 -0.271328 -0.871601 -0.691423 -0.389974 -0.608157 -0.670659 -0.434589 -0.601123 
-0.656117 -0.381463 -0.65115 0.627261 -0.537936 -0.563177 0.566254 -0.608461 -0.555996 
0.458171 -0.427349 -0.779392 0.240835 -0.357443 -0.902349 0.0808724 -0.262985 -0.961405 
-0.047095 -0.243718 -0.968702 -0.0500348 -0.209172 -0.976598 0.0415427 -0.166399 -0.985183 
0.0926838 -0.187149 -0.977949 -0.0249943 -0.304352 -0.952232 -0.0357581 -0.349365 -0.936304 
-0.367016 -0.745873 -0.555853 -0.266582 -0.461832 -0.845958 -0.586198 -0.577492 -0.568221 
-0.512809 -0.648778 -0.56224 -0.5035 -0.556694 -0.660742 0.451838 -0.676278 -0.581799 
0.323307 -0.71359 -0.6215 0.302221 -0.627062 -0.717953 0.152823 -0.723456 -0.673243 
0.122326 -0.580059 -0.805337 0.0749802 -0.728218 -0.681232 0.00902309 -0.527443 -0.849542 
0.0279229 -0.719582 -0.693846 0.00140672 -0.460577 -0.887618 0.0425734 -0.72521 -0.68721 
0.050668 -0.438348 -0.897376 0.0650323 -0.782744 -0.618936 0.0957538 -0.443885 -0.890953 
-0.0261144 -0.833317 -0.552178 0.0157163 -0.421573 -0.906658 -0.150164 -0.815021 -0.559636 
-0.119735 -0.458786 -0.880442 -0.215804 -0.766039 -0.605486 -0.163439 -0.582691 -0.79609 
-0.343668 -0.756148 -0.556895 -0.249957 -0.772976 -0.58312 -0.213168 -0.702838 -0.678659 
0.141499 0.65339 -0.743679 0.0206391 0.62462 -0.780656 0.0145725 0.640209 -0.768062 
-0.00921615 0.624044 -0.781335 -0.0843596 0.582596 -0.808372 0.144194 0.652663 -0.743801 
0.30151 0.535016 -0.789208 0.141239 0.651755 -0.745162 0.0200545 0.610099 -0.792072 
0.0135051 0.619978 -0.784503 -0.0110363 0.594848 -0.803762 -0.102218 0.575425 -0.811441 
-0.08424 0.57271 -0.815418 -0.180922 0.494361 -0.850221 -0.175338 0.486357 -0.855987 
-0.213805 0.491427 -0.844267 0.418212 0.496705 -0.760515 0.424874 0.486141 -0.763642 
0.227962 0.355065 -0.906621 0.0770593 0.284092 -0.955695 0.00162494 0.236603 -0.971605 
0.00269757 0.191677 -0.981454 -0.0173612 0.209132 -0.977733 -0.103781 0.200316 -0.974219 
-0.116091 0.255137 -0.95991 -0.132009 0.385721 -0.913123 -0.217225 0.490188 -0.844114 
-0.213048 0.488477 -0.846168 -0.324468 0.364779 -0.87273 0.516348 0.353342 -0.780086 
0.517642 0.322129 -0.792641 0.257616 0.207398 -0.943727 0.146701 0.106189 -0.983465 
0.0274226 0.0304931 -0.999159 -0.0708809 -0.0252263 -0.997166 -0.0163223 -0.0523487 -0.998495 
-0.0158951 -0.0213337 -0.999646 -0.0522841 0.000846755 -0.998632 -0.0245707 0.0509454 -0.998399 
-0.0265117 0.113165 -0.993222 -0.143907 0.197794 -0.969623 -0.367752 0.29068 -0.883325 
-0.293772 0.263622 -0.918804 0.458326 0.180454 -0.870272 0.41333 0.142858 -0.899305 
0.172195 0.0428791 -0.984129 0.0320343 -0.0386138 -0.998741 -0.0527917 -0.141323 -0.988555 
-0.0802156 -0.158997 -0.984015 0.00173303 -0.0929512 -0.995669 0.0361448 -0.145103 -0.988756 
-0.0246549 -0.00324798 -0.999691 -0.00330871 -0.105651 -0.994398 0.0177817 -0.0539407 -0.998386 
-0.0568233 0.0051444 -0.998371 -0.408183 0.153172 -0.899958 -0.232555 0.0936453 -0.968064 
-0.417218 0.120928 -0.900725 0.459035 0.0578049 -0.886536 0.316347 0.00438999 -0.948633 
0.0792896 -0.0691224 -0.994452 -0.0371887 -0.119408 -0.992149 -0.0962653 -0.172008 -0.980381 
-0.0142957 -0.108128 -0.994034 -0.0066714 0.0635897 -0.997954 0.0769106 -0.204017 -0.975941 
-0.0150283 -0.00173797 -0.999886 -0.0736221 -0.137274 -0.987793 0.0858681 -0.0848335 -0.992688 
0.00870475 -0.0433607 -0.999022 -0.138327 -0.00567064 -0.99037 -0.413919 0.0672458 -0.907826 
-0.373992 0.0598209 -0.925501 0.349044 -0.090693 -0.932707 0.256831 -0.118214 -0.959199 
0.0567003 -0.128413 -0.990099 -0.061961 -0.118638 -0.991003 -0.0466317 -0.111449 -0.992675 
0.155378 -0.085474 -0.98415 -0.0882524 -0.0652407 -0.993959 -0.0226986 -0.0509028 -0.998446 
0.0167182 -0.153246 -0.988047 -0.0799593 -0.0437651 -0.995837 0.110312 -0.0417425 -0.99302 
0.0209622 -0.0321599 -0.999263 -0.134343 -0.0422997 -0.990032 -0.368369 -0.0498412 -0.928343 
-0.356954 -0.0671288 -0.931707 -0.341955 -0.0537753 -0.938176 0.24074 -0.189598 -0.951891 
0.23883 -0.190313 -0.95223 0.227499 -0.186674 -0.955718 0.0867234 -0.0982911 -0.991372 
-0.02544 -0.0770344 -0.996704 -0.051998 -0.0389757 -0.997886 -0.0837564 -0.0984337 -0.991613 
0.0164759 -0.102223 -0.994625 0.0292031 -0.186647 -0.981993 0.0152794 -0.292098 -0.956266 
0.00211807 0.0159569 -0.99987 0.000757847 -0.147496 -0.989062 0.0354875 -0.00947036 -0.999325 
0.100275 -0.0335797 -0.994393 0.00772881 -0.0593781 -0.998206 -0.348379 -0.0723441 -0.934558 
-0.160836 -0.0698996 -0.984503 0.248232 -0.215596 -0.944404 0.203004 -0.251961 -0.946206 
0.18359 -0.19774 -0.962909 0.0791013 -0.259252 -0.962565 -0.0018196 -0.0970378 -0.995279 
-0.088852 -0.0982934 -0.991183 -0.057292 -0.193285 -0.979469 -0.0768519 -0.0897768 -0.992992 
0.0669615 -0.111967 -0.991453 0.0950628 -0.157104 -0.982996 0.0997765 -0.0733035 -0.992306 
0.0169363 -0.0673037 -0.997589 0.0297726 -0.0561725 -0.997977 -0.0111296 -0.273874 -0.961701 
0.057765 -0.134831 -0.989183 -0.0303155 -0.3247 -0.945331 -0.0189475 -0.183427 -0.982851 
-0.305961 -0.232858 -0.923128 -0.21462 -0.337393 -0.916572 -0.163803 -0.192057 -0.967617 
0.0628786 -0.175448 -0.982479 0.0203234 -0.192496 -0.981087 0.0193627 -0.160642 -0.986823 
-0.031885 -0.223006 -0.974295 -0.0409392 -0.199611 -0.97902 -0.0351417 -0.184291 -0.982243 

