# vtk DataFile Version 4.2
vtk output
ASCII
DATASET POLYDATA
POINTS 506 float
-5.88638 -18.8954 -16.7567 1.05653 -18.8954 -17.8347 7.99944 -18.8954 -17.594 
14.9424 -18.8954 -17.1661 21.8853 -18.8954 -17.1198 28.8282 -18.8954 -16.6004 
-19.7722 -11.9525 -16.0085 -12.8293 -11.9525 -17.5033 -5.88638 -11.9525 -19.4116 
1.05653 -11.9525 -19.7585 7.99944 -11.9525 -18.7889 14.9424 -11.9525 -18.3602 
21.8853 -11.9525 -18.6267 28.8282 -11.9525 -18.4301 35.7711 -11.9525 -17.207 
-19.7722 -5.0096 -16.9414 -12.8293 -5.0096 -19.0424 -5.88638 -5.0096 -19.5436 
1.05653 -5.0096 -20.0122 7.99944 -5.0096 -20.861 14.9424 -5.0096 -18.9658 
21.8853 -5.0096 -19.1044 28.8282 -5.0096 -19.4297 35.7711 -5.0096 -18.5519 
42.714 -5.0096 -15.795 -26.7151 1.93331 -15.7509 -19.7722 1.93331 -17.2338 
-12.8293 1.93331 -19.6438 -5.88638 1.93331 -19.5495 1.05653 1.93331 -20.5065 
7.99944 1.93331 -22.5487 14.9424 1.93331 -19.7961 21.8853 1.93331 -19.4058 
28.8282 1.93331 -19.8511 35.7711 1.93331 -18.977 42.714 1.93331 -16.2188 
-26.7151 8.87623 -15.8959 -19.7722 8.87623 -17.6466 -12.8293 8.87623 -19.6082 
-5.88638 8.87623 -20.4794 1.05653 8.87623 -20.8571 7.99944 8.87623 -21.477 
14.9424 8.87623 -20.3258 21.8853 8.87623 -20.1493 28.8282 8.87623 -20.0111 
35.7711 8.87623 -18.8772 42.714 8.87623 -15.8191 -26.7151 15.8191 -16.1146 
-19.7722 15.8191 -17.8327 -12.8293 15.8191 -19.3831 -5.88638 15.8191 -20.0962 
1.05653 15.8191 -20.3622 7.99944 15.8191 -20.6844 14.9424 15.8191 -20.5222 
21.8853 15.8191 -20.1617 28.8282 15.8191 -19.5334 35.7711 15.8191 -17.7163 
-19.7722 22.7621 -17.2671 -12.8293 22.7621 -18.8711 -5.88638 22.7621 -19.5328 
1.05653 22.7621 -19.8339 7.99944 22.7621 -20.363 14.9424 22.7621 -19.9532 
21.8853 22.7621 -19.3175 28.8282 22.7621 -17.9897 -12.8293 29.705 -16.499 
-5.88638 29.705 -17.4932 1.05653 29.705 -17.6912 7.99944 29.705 -18.0744 
14.9424 29.705 -17.5926 21.8853 29.705 -16.3741 -12.8293 -32.7813 -9.93879 
-5.88638 -32.7813 -10.7887 1.05653 -32.7813 -11.1688 7.99944 -32.7813 -10.2739 
-26.7151 -25.8383 -10.8823 -19.7722 -25.8383 -12.7005 -12.8293 -25.8383 -13.444 
-5.88638 -21.8278 -15.6627 -5.88638 -25.8383 -14.1927 1.05653 -24.7169 -15.6627 
1.05653 -25.8383 -15.2243 7.99944 -24.4618 -15.6627 7.99944 -25.8383 -15.1201 
14.9424 -23.002 -15.6627 14.9424 -25.8383 -14.4217 21.8853 -22.0123 -15.6627 
21.8853 -25.8383 -13.5177 28.8282 -20.6612 -15.6627 28.8282 -25.8383 -11.5981 
-33.658 -18.8954 -10.7578 -26.7151 -18.8954 -13.5271 -19.7722 -14.5145 -15.6627 
-19.7722 -18.8954 -15.0489 -12.0846 -18.8954 -15.6627 -12.8293 -18.4306 -15.6627 
-12.8293 -18.8954 -15.5356 32.3287 -18.8954 -15.6627 35.7711 -16.375 -15.6627 
35.7711 -18.8954 -14.5586 42.714 -18.8954 -8.79444 -33.658 -11.9525 -12.7448 
-22.6942 -11.9525 -15.6627 -26.7151 -11.9525 -15.1715 38.9865 -11.9525 -15.6627 
42.714 -5.43841 -15.6627 42.714 -11.9525 -13.4052 -40.601 -5.0096 -9.55351 
-33.658 -5.0096 -13.8446 -25.8358 -5.0096 -15.6627 -26.7151 -0.29013 -15.6627 
-26.7151 -5.0096 -15.4844 42.8908 -5.0096 -15.6627 -40.601 1.93331 -10.1046 
-27.0336 1.93331 -15.6627 -33.658 1.93331 -13.7979 43.459 1.93331 -15.6627 
-40.601 8.87623 -9.86573 -27.7384 8.87623 -15.6627 -33.658 8.87623 -14.1596 
42.9135 8.87623 -15.6627 42.714 9.45667 -15.6627 -28.0834 15.8191 -15.6627 
-33.658 15.8191 -13.6715 -26.7151 18.5295 -15.6627 39.7342 15.8191 -15.6627 
35.7711 21.1295 -15.6627 42.714 15.8191 -13.3775 -33.658 22.7621 -10.8955 
-24.4997 22.7621 -15.6627 -26.7151 22.7621 -14.8561 -19.7722 28.1114 -15.6627 
34.2276 22.7621 -15.6627 28.8282 26.3016 -15.6627 35.7711 22.7621 -14.6521 
-26.7151 29.705 -11.0734 -17.2203 29.705 -15.6627 -19.7722 29.705 -15.0202 
-12.8293 30.9561 -15.6627 -5.88638 32.3805 -15.6627 1.05653 32.6155 -15.6627 
7.99944 32.9062 -15.6627 14.9424 32.1123 -15.6627 23.5327 29.705 -15.6627 
21.8853 30.4587 -15.6627 28.8282 29.705 -11.5657 -12.8293 36.6479 -8.81485 
-5.88638 36.6479 -10.58 1.05653 36.6479 -10.8304 7.99944 36.6479 -10.1994 
-12.8293 -34.2489 -8.71974 -5.88638 -35.1934 -8.71974 1.05653 -35.1827 -8.71974 
7.99944 -34.0904 -8.71974 -26.7151 -29.149 -8.71974 -26.7151 -32.7813 -4.35088 
-18.6646 -32.7813 -8.71974 -19.7722 -32.4027 -8.71974 -19.7722 -32.7813 -8.40091 
12.87 -32.7813 -8.71974 14.9424 -32.1495 -8.71974 14.9424 -32.7813 -7.42293 
21.8853 -30.19 -8.71974 28.8282 -27.9117 -8.71974 -31.1901 -25.8383 -8.71974 
-33.658 -23.2292 -8.71974 -33.658 -25.8383 -6.53844 33.8779 -25.8383 -8.71974 
35.7711 -24.9345 -8.71974 35.7711 -25.8383 -5.5855 42.714 -18.9595 -8.71974 
-36.6083 -18.8954 -8.71974 -40.601 -18.8954 -3.5739 42.7697 -18.8954 -8.71974 
-40.2851 -11.9525 -8.71974 -40.601 -10.4914 -8.71974 -40.601 -11.9525 -8.39961 
46.7866 -11.9525 -8.71974 -41.4427 -5.0096 -8.71974 49.4274 -5.0096 -8.71974 
49.6569 -5.0096 -7.49456 -42.0252 1.93331 -8.71974 49.6354 1.93331 -8.71974 
49.6569 1.93331 -8.58453 -41.7343 8.87623 -8.71974 -40.601 15.1037 -8.71974 
48.6759 8.87623 -8.71974 -40.4565 15.8191 -8.71974 -40.601 15.8191 -8.52585 
46.2014 15.8191 -8.71974 42.714 20.7537 -8.71974 -36.267 22.7621 -8.71974 
-33.658 25.7269 -8.71974 40.9307 22.7621 -8.71974 35.7711 27.1219 -8.71974 
-29.5615 29.705 -8.71974 -26.7151 31.5492 -8.71974 -19.7722 34.7644 -8.71974 
14.9424 36.2676 -8.71974 21.8853 34.2706 -8.71974 31.6182 29.705 -8.71974 
28.8282 31.2054 -8.71974 -13.0301 36.6479 -8.71974 -12.8293 36.6985 -8.71974 
-5.88638 37.7102 -8.71974 1.05653 37.7774 -8.71974 12.5439 36.6479 -8.71974 
7.99944 37.3436 -8.71974 -26.7151 -34.2606 -1.77683 -19.7722 -37.2639 -1.77683 
-12.8293 -38.8674 -1.77683 -5.88638 -39.2715 -1.77683 1.05653 -38.738 -1.77683 
7.99944 -37.115 -1.77683 14.9424 -34.9248 -1.77683 -28.9817 -32.7813 -1.77683 
-33.658 -29.1322 -1.77683 21.4323 -32.7813 -1.77683 21.8853 -32.6303 -1.77683 
28.8282 -30.1436 -1.77683 35.7711 -26.8154 -1.77683 -36.7901 -25.8383 -1.77683 
-40.601 -20.4794 -1.77683 36.9998 -25.8383 -1.77683 35.7711 -25.8383 1.38617 
42.714 -20.7518 -1.77683 -41.5584 -18.8954 -1.77683 44.3336 -18.8954 -1.77683 
42.714 -18.8954 2.63907 -44.4456 -11.9525 -1.77683 48.3147 -11.9525 -1.77683 
49.6569 -7.81065 -1.77683 -46.0362 -5.0096 -1.77683 50.5284 -5.0096 -1.77683 
49.6569 -5.0096 1.24097 -46.7726 1.93331 -1.77683 -47.5439 1.93331 2.28388 
50.5822 1.93331 -1.77683 49.6569 7.08839 -1.77683 49.6569 1.93331 1.13697 
-46.261 8.87623 -1.77683 49.3015 8.87623 -1.77683 -44.3061 15.8191 -1.77683 
-40.601 22.6835 -1.77683 46.4211 15.8191 -1.77683 42.714 20.648 -1.77683 
42.714 15.8191 5.1157 -40.5503 22.7621 -1.77683 -40.601 22.7621 -1.06583 
-33.658 29.3549 -1.77683 40.6215 22.7621 -1.77683 35.7711 26.5913 -1.77683 
35.7711 22.7621 3.71163 -33.0884 29.705 -1.77683 -26.7151 33.0915 -1.77683 
-19.7722 35.5072 -1.77683 14.9424 35.9392 -1.77683 21.8853 33.5906 -1.77683 
30.4318 29.705 -1.77683 28.8282 30.5295 -1.77683 28.8282 29.705 -0.127674 
-15.1928 36.6479 -1.77683 -12.8293 37.2207 -1.77683 -12.8293 36.6479 0.384939 
-5.88638 38.3757 -1.77683 -5.88638 36.6479 3.15764 1.05653 38.4409 -1.77683 
1.05653 36.6479 3.19953 12.056 36.6479 -1.77683 7.99944 37.6089 -1.77683 
7.99944 36.6479 0.880823 -26.7151 -34.4735 5.16609 -19.7722 -37.6826 5.16609 
-12.8293 -39.3612 5.16609 -5.88638 -39.7047 5.16609 1.05653 -38.9593 5.16609 
7.99944 -37.2332 5.16609 14.9424 -35.0245 5.16609 -29.0234 -32.7813 5.16609 
-33.658 -29.1557 5.16609 -26.7151 -32.7813 8.50483 20.7065 -32.7813 5.16609 
14.9424 -32.7813 9.92837 21.8853 -32.2885 5.16609 28.8282 -28.9894 5.16609 
-37.0002 -25.8383 5.16609 -40.601 -21.1891 5.16609 -33.658 -25.8383 11.3497 
33.9156 -25.8383 5.16609 28.8282 -25.8383 9.35368 35.7711 -24.5363 5.16609 
-42.1688 -18.8954 5.16609 -40.601 -18.8954 9.28525 41.6173 -18.8954 5.16609 
35.7711 -18.8954 10.5324 42.714 -17.2982 5.16609 -45.4912 -11.9525 5.16609 
45.8531 -11.9525 5.16609 42.714 -11.9525 8.70038 -47.2785 -5.0096 5.16609 
-47.5439 -2.69994 5.16609 48.2283 -5.0096 5.16609 42.714 -5.0096 10.9819 
-48.0726 1.93331 5.16609 -47.5439 7.89384 5.16609 -47.5439 1.93331 7.16397 
48.0404 1.93331 5.16609 42.714 1.93331 10.6323 -47.4581 8.87623 5.16609 
46.0494 8.87623 5.16609 42.714 15.7587 5.16609 42.714 8.87623 8.39276 
-45.3723 15.8191 5.16609 42.6723 15.8191 5.16609 35.7711 21.4996 5.16609 
35.7711 15.8191 9.55079 -41.0373 22.7621 5.16609 -40.601 23.24 5.16609 
-40.601 22.7621 6.30771 -33.658 28.7406 5.16609 21.8853 22.7621 10.6822 
34.0529 22.7621 5.16609 28.8282 26.2813 5.16609 28.8282 22.7621 8.21254 
-31.5805 29.705 5.16609 -26.7151 31.8016 5.16609 -26.7151 29.705 9.60201 
-19.7722 33.699 5.16609 -12.8293 35.1477 5.16609 -5.88638 35.776 5.16609 
1.05653 35.7592 5.16609 1.05653 29.705 11.4839 7.99944 34.6124 5.16609 
7.99944 29.705 10.0241 14.9424 32.4835 5.16609 14.9424 29.705 7.9411 
21.9659 29.705 5.16609 21.8853 29.7397 5.16609 21.8853 29.705 5.20496 
-19.7722 -34.4036 12.109 -12.8293 -36.42 12.109 -5.88638 -37.0934 12.109 
1.05653 -36.1289 12.109 7.99944 -34.1523 12.109 -23.062 -32.7813 12.109 
-26.7151 -30.5616 12.109 -19.7722 -32.7813 13.8967 -12.8293 -32.7813 15.812 
-5.88638 -32.7813 16.5329 1.05653 -32.7813 15.6956 11.7332 -32.7813 12.109 
7.99944 -32.7813 13.5846 14.9424 -31.0205 12.109 21.8853 -26.7449 12.109 
-33.0372 -25.8383 12.109 -33.658 -25.309 12.109 -26.7151 -25.8383 16.0692 
-19.7722 -25.8383 18.2339 1.05653 -25.8383 18.6574 7.99944 -25.8383 17.4084 
14.9424 -25.8383 15.189 23.549 -25.8383 12.109 21.8853 -25.8383 12.7097 
28.8282 -21.8596 12.109 -39.2352 -18.8954 12.109 -40.601 -16.9663 12.109 
-33.658 -18.8954 16.9389 7.99944 -18.8954 18.4641 14.9424 -18.8954 16.9168 
21.8853 -18.8954 15.4163 32.3941 -18.8954 12.109 28.8282 -18.8954 13.4322 
35.7711 -15.0991 12.109 -43.3362 -11.9525 12.109 -40.601 -11.9525 15.7952 
14.9424 -11.9525 18.2598 21.8853 -11.9525 16.9672 28.8282 -11.9525 15.5906 
37.7624 -11.9525 12.109 35.7711 -11.9525 13.2419 -45.324 -5.0096 12.109 
-40.601 -5.0096 17.5795 21.8853 -5.0096 18.1788 28.8282 -5.0096 16.7401 
40.9224 -5.0096 12.109 35.7711 -5.0096 14.6692 -46.0525 1.93331 12.109 
[...]
POINT_DATA 506
SCALARS ImageScalars float
LOOKUP_TABLE default
0 0 0 0 0 0 0 0 0 
0 0 0 0 0 0 0 0 0 
0 0 0 0 0 0 0 0 0 
0 0 0 0 0 0 0 0 0 
0 0 0 0 0 0 0 0 0 
0 0 0 0 0 0 0 0 0 
0 0 0 0 0 0 0 0 0 
0 0 0 0 0 0 0 0 0 
0 0 0 0 0 0 0 0 0 
0 0 0 0 0 0 0 0 0 
0 0 0 0 0 0 0 0 0 
0 0 0 0 0 0 0 0 0 
0 0 0 0 0 0 0 0 0 
0 0 0 0 0 0 0 0 0 
0 0 0 0 0 0 0 0 0 
0 0 0 0 0 0 0 0 0 
0 0 0 0 0 0 0 0 0 
0 0 0 0 0 0 0 0 0 
0 0 0 0 0 0 0 0 0 
0 0 0 0 0 0 0 0 0 
0 0 0 0 0 0 0 0 0 
0 0 0 0 0 0 0 0 0 
0 0 0 0 0 0 0 0 0 
0 0 0 0 0 0 0 0 0 
0 0 0 0 0 0 0 0 0 
0 0 0 0 0 0 0 0 0 
0 0 0 0 0 0 0 0 0 
0 0 0 0 0 0 0 0 0 
0 0 0 0 0 0 0 0 0 
0 0 0 0 0 0 0 0 0 
0 0 0 0 0 0 0 0 0 
0 0 0 0 0 0 0 0 0 
0 0 0 0 0 0 0 0 0 
0 0 0 0 0 0 0 0 0 
0 0 0 0 0 0 0 0 0 
0 0 0 0 0 0 0 0 0 
0 0 0 0 0 0 0 0 0 
0 0 0 0 0 0 0 0 0 
0 0 0 0 0 0 0 0 0 
0 0 0 0 0 0 0 0 0 
0 0 0 0 0 0 0 0 0 
0 0 0 0 0 0 0 0 0 
0 0 0 0 0 0 0 0 0 
0 0 0 0 0 0 0 0 0 
0 0 0 0 0 0 0 0 0 
0 0 0 0 0 0 0 0 0 
0 0 0 0 0 0 0 0 0 
0 0 0 0 0 0 0 0 0 
0 0 0 0 0 0 0 0 0 
0 0 0 0 0 0 0 0 0 
0 0 0 0 0 0 0 0 0 
0 0 0 0 0 0 0 0 0 
0 0 0 0 0 0 0 0 0 
0 0 0 0 0 0 0 0 0 
0 0 0 0 0 0 0 0 0 
0 0 0 0 0 0 0 0 0 
0 0 
NORMALS Normals float
0.159632 0.349342 0.923297 0.0539551 0.308887 0.949567 -0.0462402 0.242768 0.968982 
-0.0336976 0.256459 0.965968 -0.0362656 0.320712 0.946482 -0.159107 0.372922 0.91412 
0.155687 0.131317 0.979039 0.235555 0.244869 0.940507 0.154919 0.190507 0.969385 
-0.0445998 0.14999 0.987681 -0.099655 0.222615 0.9698 -0.0109684 0.126601 0.991893 
0.00538892 0.132674 0.991145 -0.0932588 0.183543 0.978578 -0.29706 0.251839 0.92105 
0.242434 0.0851298 0.966426 0.188182 0.147263 0.971031 0.0664196 0.00942097 0.997747 
0.092834 0.0512815 0.99436 -0.0811091 0.269491 0.959581 -0.11721 0.101294 0.987928 
0.0336797 0.0569268 0.99781 -0.0370825 0.100974 0.994198 -0.227512 0.119375 0.96643 
-0.518008 0.159889 0.840299 0.232205 0.0285806 0.972247 0.268983 0.0494348 0.961875 
0.166015 0.0388738 0.985357 0.0547827 0.069222 0.996096 0.225426 0.0635787 0.972184 
-0.0611009 0.0358215 0.997489 -0.220402 0.0999766 0.970272 0.00519005 0.0712637 0.997444 
-0.0277235 0.0415637 0.998751 -0.230774 0.0219803 0.972759 -0.51864 0.00172859 0.854991 
0.231209 0.0254266 0.972572 0.25563 0.0419127 0.965866 0.205073 -0.0187734 0.978567 
0.0859676 0.0379555 0.995575 0.0727745 -0.0144199 0.997244 -0.0394408 -0.131866 0.990483 
-0.0941527 0.0501875 0.994292 -0.0231174 0.0555115 0.99819 -0.0855826 -0.0221117 0.996086 
-0.262971 -0.0828407 0.961241 -0.553739 -0.1402 0.820803 0.284347 -0.0645383 0.956547 
0.230696 -0.0246307 0.972714 0.160381 -0.0532472 0.985618 0.0695727 -0.0659929 0.995392 
0.0421247 -0.0729816 0.996443 0.0117874 -0.0784964 0.996845 -0.0373433 -0.0256487 0.998973 
-0.0702925 -0.0563986 0.995931 -0.161471 -0.12812 0.978526 -0.345361 -0.253172 0.903676 
0.27426 -0.177413 0.945149 0.151548 -0.190866 0.969847 0.071134 -0.179868 0.981115 
0.0567496 -0.172177 0.98343 0.0100074 -0.166702 0.985957 -0.0717907 -0.196913 0.977789 
-0.129684 -0.243691 0.961143 -0.284592 -0.389202 0.876087 0.156089 -0.480128 0.8632 
0.0802841 -0.448695 0.890072 0.0387784 -0.457887 0.888164 -0.00754231 -0.478927 0.877823 
-0.107785 -0.524202 0.844746 -0.272965 -0.619714 0.735829 0.128903 0.591055 0.796265 
0.0755603 0.58444 0.807911 -0.0233499 0.662256 0.748914 -0.163579 0.743464 0.648462 
0.311176 0.456293 0.833647 0.168807 0.380121 0.909402 0.0964405 0.358548 0.928516 
0.144234 0.355365 0.923532 0.119562 0.373496 0.919895 0.0649505 0.384359 0.920896 
0.0628756 0.402258 0.913365 -0.0445568 0.385145 0.92178 -0.048672 0.42892 0.90203 
-0.0679835 0.388079 0.919115 -0.0969297 0.506433 0.856814 -0.0718589 0.436141 0.897005 
-0.139728 0.624436 0.768477 -0.176323 0.448165 0.876389 -0.283867 0.748427 0.599397 
0.478497 0.32088 0.81736 0.268697 0.274509 0.92328 0.146982 0.158332 0.976385 
0.136621 0.213029 0.967447 0.117622 0.282128 0.952139 0.120541 0.271775 0.954782 
0.112756 0.273733 0.955173 -0.258314 0.411727 0.873931 -0.337962 0.371518 0.864729 
-0.379713 0.470954 0.796254 -0.705743 0.590068 0.392105 0.406489 0.192336 0.893182 
0.175277 0.130982 0.975767 0.210505 0.134358 0.968316 -0.426452 0.27722 0.860981 
-0.522359 0.169264 0.835757 -0.619597 0.33593 0.709401 0.660712 0.0923032 0.744943 
0.357528 0.0668013 0.93151 0.206113 0.0446771 0.977508 0.222516 0.0318046 0.97441 
0.202643 0.0398931 0.97844 -0.525675 0.160465 0.835414 0.632897 0.0178223 0.774031 
0.235791 0.0281943 0.971395 0.344855 0.0196807 0.93845 -0.551829 0.000131144 0.833957 
0.651487 -0.0844681 0.753943 0.244691 0.0215518 0.969361 0.358793 -0.00768131 0.933385 
-0.562671 -0.142468 0.814312 -0.562313 -0.157142 0.811856 0.308109 -0.0856585 0.947487 
0.430437 -0.177774 0.884941 0.320067 -0.138815 0.93717 -0.515671 -0.30009 0.802514 
-0.44318 -0.424556 0.789521 -0.694761 -0.388822 0.605082 0.560497 -0.442111 0.700272 
0.34506 -0.22943 0.910107 0.386141 -0.268169 0.882599 0.284031 -0.420636 0.861621 
-0.427177 -0.466117 0.774761 -0.346197 -0.556657 0.755169 -0.494344 -0.521859 0.695188 
0.481633 -0.657075 0.579898 0.234805 -0.491761 0.838474 0.289664 -0.51822 0.8047 
0.161755 -0.540486 0.825658 0.0768595 -0.583979 0.808122 0.0261155 -0.61166 0.79069 
-0.0307916 -0.654751 0.755217 -0.138365 -0.661494 0.737075 -0.304897 -0.644903 0.700812 
-0.278856 -0.662511 0.695211 -0.431473 -0.813526 0.38988 0.19395 -0.932675 0.304141 
0.0781715 -0.897546 0.433936 -0.0113248 -0.904363 0.426614 -0.0971251 -0.938647 0.330921 
0.141934 0.657737 0.739755 0.0499608 0.70182 0.7106 -0.0691249 0.770513 0.633665 
-0.184409 0.800477 0.57029 0.355411 0.582145 0.731294 0.458564 0.793184 0.400721 
0.222868 0.657042 0.720156 0.237493 0.653893 0.718346 0.245342 0.676913 0.693972 
-0.223589 0.810026 0.542094 -0.235109 0.809676 0.537726 -0.257564 0.851223 0.457252 
-0.242317 0.832336 0.498497 -0.315473 0.836839 0.447413 0.479545 0.518029 0.708295 
0.545341 0.45916 0.701267 0.617662 0.580352 0.53074 -0.436983 0.794194 0.422259 
-0.484944 0.766188 0.421647 -0.527851 0.821715 0.214844 -0.706182 0.592561 0.387529 
0.598864 0.366702 0.711963 0.81889 0.448535 0.358101 -0.707669 0.590667 0.387708 
0.68139 0.224613 0.696604 0.68892 0.197024 0.697546 0.702322 0.230565 0.673487 
-0.822784 0.384897 0.418187 0.693978 0.0941995 0.713808 -0.909006 0.177019 0.377323 
-0.939082 0.175798 0.295331 0.690383 0.0163589 0.723259 -0.931903 -0.0494944 0.359314 
-0.935327 -0.0503868 0.350178 0.697623 -0.0922131 0.710506 0.734047 -0.239239 0.635562 
-0.924457 -0.212349 0.31668 0.735458 -0.255514 0.627546 0.743807 -0.260369 0.615596 
-0.841039 -0.456904 0.289642 -0.748746 -0.619773 0.235077 0.632139 -0.480853 0.607603 
0.594416 -0.569601 0.567649 -0.698974 -0.682135 0.214771 -0.581261 -0.792482 0.184681 
0.539831 -0.705356 0.459408 0.477395 -0.770527 0.422353 0.326129 -0.882688 0.338381 
-0.205446 -0.958336 0.198456 -0.336017 -0.925744 0.173468 -0.491223 -0.85416 0.170617 
-0.442173 -0.880556 0.170601 0.197457 -0.933756 0.298513 0.194003 -0.934607 0.298114 
0.0772893 -0.945177 0.317281 -0.0261136 -0.953691 0.299654 -0.169007 -0.962703 0.21128 
-0.105405 -0.964829 0.240822 0.476219 0.844412 0.245325 0.29764 0.911401 0.284179 
0.135921 0.951923 0.274533 -0.00890451 0.970164 0.242288 -0.150698 0.964446 0.217104 
-0.260502 0.946697 0.189481 -0.304049 0.936815 0.173011 0.534962 0.812353 0.232162 
0.669026 0.707923 0.226385 -0.316854 0.939268 0.131826 -0.317844 0.939409 0.128395 
-0.363653 0.929206 0.0658222 -0.548956 0.835694 -0.0162546 0.741948 0.627406 0.236376 
0.833385 0.490036 0.255607 -0.581897 0.813019 -0.0198846 -0.563438 0.798798 -0.210851 
-0.737101 0.674276 -0.0450879 0.851586 0.452736 0.264257 -0.781739 0.621362 -0.0528475 
-0.751749 0.587904 -0.298734 0.903609 0.296829 0.308842 -0.924168 0.378827 -0.0490217 
-0.967752 0.244807 -0.0593704 0.926289 0.157332 0.342397 -0.985277 0.157397 -0.0667507 
-0.95852 0.149928 -0.242406 0.939453 0.0136147 0.342406 0.993253 0.0121736 0.115324 
-0.992725 -0.0816687 -0.0884669 -0.970138 -0.211178 -0.119312 -0.962338 -0.0958459 -0.254401 
0.929896 -0.1635 0.329487 -0.955645 -0.26249 -0.133572 0.88567 -0.35576 0.298368 
0.791831 -0.567027 0.226899 -0.8388 -0.511857 -0.18552 -0.725889 -0.654706 -0.210818 
-0.644715 -0.491222 -0.585699 0.790179 -0.56975 0.225838 0.790108 -0.582339 0.191339 
0.563854 -0.818162 0.112606 -0.660356 -0.712769 -0.236412 -0.547329 -0.793582 -0.265815 
-0.498539 -0.679104 -0.538773 0.54565 -0.832162 0.0988565 0.384946 -0.92287 0.0113171 
0.283151 -0.956509 -0.0701151 -0.270921 -0.941043 -0.202585 -0.352272 -0.899431 -0.258703 
-0.462212 -0.848182 -0.258741 -0.437713 -0.860542 -0.260526 -0.431422 -0.837111 -0.336332 
0.226432 -0.970303 -0.0850973 0.19886 -0.975871 -0.0901707 0.185277 -0.963957 -0.190942 
0.0861425 -0.989689 -0.114432 0.055176 -0.921507 -0.384423 -0.0544513 -0.991253 -0.120219 
-0.0606514 -0.914723 -0.399503 -0.232199 -0.956128 -0.178614 -0.175785 -0.972222 -0.154542 
-0.179694 -0.937974 -0.296505 0.516441 0.834589 -0.191703 0.310245 0.935963 -0.166501 
0.137609 0.98122 -0.135167 -0.0280859 0.991794 -0.124727 -0.171398 0.973201 -0.153308 
-0.268717 0.947846 -0.171405 -0.329573 0.923724 -0.19523 0.567482 0.800173 -0.19413 
0.658473 0.729097 -0.186632 0.508065 0.780649 -0.363947 -0.372908 0.895504 -0.242925 
-0.353332 0.78828 -0.503757 -0.383306 0.885588 -0.262317 -0.451532 0.81552 -0.362003 
0.732954 0.660116 -0.164396 0.820448 0.556582 -0.130697 0.581654 0.645144 -0.495447 
-0.526564 0.7379 -0.422177 -0.444685 0.647749 -0.618609 -0.549093 0.704471 -0.449687 
0.852521 0.510253 -0.113357 0.781267 0.529233 -0.33096 -0.704788 0.545899 -0.453065 
-0.456163 0.464505 -0.759046 -0.728311 0.501884 -0.466557 0.941741 0.330015 -0.0649141 
-0.787693 0.359839 -0.500056 -0.664323 0.327874 -0.671695 0.983923 0.174844 -0.0364064 
0.992011 0.120668 -0.036775 -0.857347 0.129891 -0.498081 -0.599383 0.0988569 -0.794334 
0.999146 0.0124466 -0.039413 0.987831 -0.15294 -0.0282693 0.988797 0.01487 -0.148524 
-0.844869 -0.116261 -0.522187 -0.596266 -0.139423 -0.790587 0.983351 -0.17968 -0.0271116 
-0.758402 -0.29826 -0.579541 -0.643726 -0.488973 -0.588662 -0.627811 -0.299738 -0.718339 
0.916955 -0.394271 -0.0611841 -0.642123 -0.490806 -0.588886 -0.470237 -0.630692 -0.617337 
-0.400975 -0.453616 -0.795897 0.741965 -0.659222 -0.122122 0.728349 -0.673975 -0.123553 
0.728944 -0.660873 -0.178574 0.509455 -0.832672 -0.217053 -0.266173 -0.498458 -0.82504 
-0.452765 -0.642828 -0.617881 -0.387011 -0.68403 -0.618325 -0.340519 -0.572373 -0.745946 
0.437654 -0.865615 -0.243248 0.293675 -0.911541 -0.287835 0.26689 -0.870725 -0.413048 
0.207273 -0.910178 -0.358628 0.133821 -0.886691 -0.442572 0.0379332 -0.86292 -0.503915 
-0.065168 -0.848659 -0.524911 -0.118126 -0.55566 -0.822976 -0.183965 -0.808275 -0.559328 
-0.192608 -0.607927 -0.770277 -0.275481 -0.751656 -0.59927 -0.256827 -0.653635 -0.711899 
-0.318771 -0.721174 -0.615056 -0.318115 -0.721399 -0.615131 -0.317722 -0.72024 -0.616691 
0.320071 0.745583 -0.584517 0.163261 0.800908 -0.576101 -0.019782 0.834072 -0.551301 
-0.180534 0.804202 -0.566274 -0.281437 0.746216 -0.603287 0.389524 0.7187 -0.57597 
0.448556 0.682974 -0.576493 0.305512 0.678596 -0.66796 0.146707 0.611029 -0.777895 
-0.00608719 0.569221 -0.822162 -0.171029 0.604005 -0.778413 -0.318549 0.708072 -0.630207 
-0.281076 0.671208 -0.685912 -0.342615 0.637548 -0.690034 -0.336624 0.520135 -0.784948 
0.552167 0.632071 -0.543689 0.564296 0.626394 -0.537773 0.353249 0.528 -0.77229 
0.206557 0.389169 -0.897709 -0.125267 0.228625 -0.965422 -0.234555 0.283704 -0.929783 
-0.304322 0.361877 -0.881155 -0.343994 0.506627 -0.790567 -0.32195 0.478887 -0.81671 
-0.355722 0.440595 -0.824219 0.6921 0.522129 -0.498377 0.739349 0.479792 -0.472402 
0.451271 0.471642 -0.757568 -0.185302 0.138135 -0.972924 -0.214829 0.205486 -0.95479 
-0.234108 0.27021 -0.933906 -0.367689 0.389399 -0.844496 -0.306457 0.340629 -0.888851 
-0.415723 0.339707 -0.843667 0.819765 0.351244 -0.452342 0.690585 0.327387 -0.644911 
-0.175903 0.215156 -0.960607 -0.181706 0.195137 -0.963797 -0.238006 0.227125 -0.944334 
-0.466731 0.269309 -0.842398 -0.399144 0.258155 -0.879795 0.873778 0.172921 -0.454544 
0.611929 0.12328 -0.781246 -0.22698 0.0796932 -0.970633 -0.238939 0.068339 -0.968627 
-0.523201 0.0912636 -0.847308 -0.36939 0.0711741 -0.926545 0.8888 0.0186512 -0.457915 
0.562748 0.00619304 -0.826605 -0.225179 -0.126515 -0.966069 -0.249306 -0.114107 -0.961679 
-0.502733 -0.137228 -0.85348 -0.377333 -0.123485 -0.917808 0.869507 -0.179629 -0.460099 
0.588947 -0.139551 -0.796032 -0.200304 -0.268263 -0.942292 -0.209283 -0.273576 -0.938806 
-0.2408 -0.289561 -0.926375 -0.40602 -0.301626 -0.862652 -0.378595 -0.324032 -0.866989 
-0.37506 -0.302053 -0.87641 0.793343 -0.40743 -0.452334 0.702554 -0.535254 -0.468958 
0.663157 -0.388181 -0.639952 -0.179211 -0.282369 -0.942418 -0.0738845 -0.315607 -0.946009 
-0.0958508 -0.347216 -0.932874 -0.210198 -0.351679 -0.912216 -0.244059 -0.43454 -0.866954 
-0.222463 -0.358848 -0.906498 -0.287613 -0.398381 -0.87096 -0.275334 -0.408576 -0.870205 
-0.272827 -0.396335 -0.876632 0.586856 -0.649246 -0.483817 0.425621 -0.753189 -0.501551 
0.421324 -0.633701 -0.648775 0.236338 -0.822568 -0.517229 0.134386 -0.519899 -0.843591 
-0.0479568 -0.493136 -0.868629 -0.160037 -0.452735 -0.877166 -0.1757 -0.392213 -0.902939 
-0.117568 -0.513765 -0.849837 -0.105603 -0.372435 -0.92203 -0.161885 -0.509009 -0.845401 
-0.123632 -0.43363 -0.892569 -0.232615 -0.468594 -0.852238 -0.222218 -0.484372 -0.84617 
-0.217686 -0.460225 -0.860701 0.117362 -0.806864 -0.578962 0.09354 -0.799121 -0.593848 
0.087326 -0.791221 -0.605263 -0.00742389 -0.71171 -0.702434 -0.0143249 -0.702799 -0.711245 
-0.0598224 -0.5954 -0.801199 -0.0515606 -0.604002 -0.795313 -0.0529088 -0.601067 -0.797445 
0.0751388 0.315795 -0.945847 -0.0506825 0.252155 -0.966359 0.231008 0.34802 -0.90858 
0.113131 0.314915 -0.942353 0.152318 0.316453 -0.9363 0.0652534 0.279727 -0.957859 
-0.0793433 0.226087 -0.97087 -0.0547271 0.227258 -0.972296 -0.125151 0.158661 -0.979369 
0.258134 0.351592 -0.899861 0.344661 0.328719 -0.879291 0.211437 0.320155 -0.923469 
0.0582507 0.20433 -0.977167 -0.012395 0.107511 -0.994127 -0.0641112 0.0717091 -0.995363 
-0.154532 0.103077 -0.982596 -0.12734 0.073815 -0.989109 -0.136789 0.169081 -0.976064 
0.413692 0.258357 -0.872989 0.28856 0.228026 -0.929913 0.0789128 0.148078 -0.985822 
-0.0164629 0.0633795 -0.997854 -0.0725012 0.0291784 -0.996941 -0.0869796 0.100504 -0.991127 
-0.0592587 0.111054 -0.992046 -0.127506 0.201841 -0.971083 -0.100338 0.192535 -0.976147 
-0.19558 0.171013 -0.965662 0.447651 0.0866006 -0.890005 0.255679 0.065036 -0.964572 
0.0304905 0.0462564 -0.998464 -0.0680571 -0.0254834 -0.997356 0.0258123 -0.038639 -0.99892 
0.01823 0.0996618 -0.994854 -0.0374957 0.0495403 -0.998068 -0.0744785 0.0615892 -0.995319 
-0.225673 0.0961885 -0.969443 -0.217823 0.112393 -0.969495 0.464045 0.00205187 -0.885809 
0.2285 -0.00839572 -0.973508 -0.0123056 -0.0189626 -0.999744 -0.104432 0.00243289 -0.994529 
0.0523304 -0.0416694 -0.99776 0.00258664 -0.122092 -0.992515 -0.0960218 -0.138269 -0.985729 
-0.0354216 -0.139899 -0.989532 -0.192572 -0.12648 -0.973098 -0.179036 -0.195547 -0.964213 
-0.159628 -0.128314 -0.978802 0.43126 -0.115936 -0.894748 0.234256 -0.0977702 -0.967246 
0.0398951 -0.0484371 -0.998029 -0.0862672 0.00265543 -0.996269 -0.0983736 -0.0340141 -0.994568 
-0.13348 -0.260026 -0.956331 -0.0744807 -0.231316 -0.970023 -0.0545366 -0.217218 -0.974598 
-0.0529798 -0.207029 -0.976899 -0.0912662 -0.217594 -0.971763 -0.0731962 -0.219275 -0.972914 
-0.071135 -0.207937 -0.975552 0.368973 -0.298556 -0.880183 0.324496 -0.347137 -0.879885 
0.308338 -0.281015 -0.908822 0.115084 -0.425804 -0.897467 0.0908586 -0.223946 -0.970357 
-0.0604222 -0.409687 -0.910223 -0.0850553 -0.19951 -0.976197 -0.181081 -0.239337 -0.953901 
-0.179727 -0.27813 -0.943579 -0.183747 -0.185375 -0.965336 
