# vtk DataFile Version 4.2
vtk output
ASCII
DATASET POLYDATA
POINTS 524 float
-18.5021 -43.0642 -20.3484 -35.8162 -34.4072 -21.265 -27.1592 -34.4072 -23.9762 
-18.5021 -34.4072 -24.662 -9.84511 -34.4072 -23.8652 -1.18809 -34.4072 -22.5766 
7.46894 -34.4072 -21.1111 16.126 -34.4072 -20.0606 -35.8162 -25.7502 -25.3026 
-27.1592 -25.7502 -26.5886 -18.5021 -25.7502 -26.675 -9.84511 -25.7502 -25.9498 
-1.18809 -25.7502 -26.0077 7.46894 -25.7502 -25.6121 16.126 -25.7502 -24.4509 
24.783 -25.7502 -21.5665 -44.4732 -17.0931 -24.2319 -35.8162 -17.0931 -28.1864 
-27.1592 -17.0931 -27.2214 -18.5021 -17.0931 -26.5521 -9.84511 -17.0931 -26.5185 
-1.18809 -17.0931 -27.7628 7.46894 -17.0931 -26.8093 16.126 -17.0931 -25.0608 
24.783 -17.0931 -21.2591 -44.4732 -8.4361 -25.1538 -35.8162 -8.4361 -27.8773 
-27.1592 -8.4361 -27.5564 -18.5021 -8.4361 -26.138 -9.84511 -8.4361 -26.8939 
-1.18809 -8.4361 -27.23 7.46894 -8.4361 -24.4272 16.126 -8.4361 -21.7642 
-44.4732 0.22092 -25.7695 -35.8162 0.22092 -27.9898 -27.1592 0.22092 -27.9795 
-18.5021 0.22092 -26.8836 -9.84511 0.22092 -27.3951 -1.18809 0.22092 -25.6313 
7.46894 0.22092 -23.7441 -44.4732 8.87794 -25.5507 -35.8162 8.87794 -27.8976 
-27.1592 8.87794 -28.2378 -18.5021 8.87794 -27.3916 -9.84511 8.87794 -25.7589 
-1.18809 8.87794 -24.6034 7.46894 8.87794 -25.411 -44.4732 17.535 -25.014 
-35.8162 17.535 -27.438 -27.1592 17.535 -28.3282 -18.5021 17.535 -27.7522 
-9.84511 17.535 -26.1408 -1.18809 17.535 -25.0289 7.46894 17.535 -23.3327 
-44.4732 26.192 -20.9325 -35.8162 26.192 -26.4809 -27.1592 26.192 -28.0314 
-18.5021 26.192 -28.0561 -9.84511 26.192 -27.2297 -1.18809 26.192 -26.003 
7.46894 26.192 -23.0605 -35.8162 34.849 -22.6458 -27.1592 34.849 -26.3114 
-18.5021 34.849 -28.177 -9.84511 34.849 -26.8293 -1.18809 34.849 -25.343 
7.46894 34.849 -22.412 -27.1592 43.506 -20.9072 -18.5021 43.506 -24.1507 
-9.84511 43.506 -23.7477 -1.18809 43.506 -21.9183 -18.5021 -43.7724 -19.7195 
-35.8162 -36.0756 -19.7195 -22.3739 -43.0642 -19.7195 -27.1592 -41.8338 -19.7195 
-27.1592 -43.0642 -18.4013 -13.6471 -43.0642 -19.7195 -9.84511 -42.2378 -19.7195 
-9.84511 -43.0642 -19.1503 -1.18809 -39.1976 -19.7195 -1.18809 -43.0642 -16.8765 
7.46894 -36.5343 -19.7195 7.46894 -43.0642 -14.4472 16.126 -34.894 -19.7195 
16.126 -43.0642 -12.47 -37.4889 -34.4072 -19.7195 17.6231 -34.4072 -19.7195 
24.783 -30.4454 -19.7195 24.783 -34.4072 -17.8983 33.44 -34.4072 -13.3594 
-43.5843 -25.7502 -19.7195 -44.4732 -24.2621 -19.7195 -44.4732 -25.7502 -17.0834 
27.9536 -25.7502 -19.7195 33.44 -25.7502 -16.2962 -47.5496 -17.0931 -19.7195 
27.9381 -17.0931 -19.7195 24.783 -13.2978 -19.7195 33.44 -17.0931 -16.6439 
42.097 -17.0931 -11.6386 -49.6941 -8.4361 -19.7195 20.4256 -8.4361 -19.7195 
16.126 -4.81217 -19.7195 24.783 -8.4361 -17.5519 33.44 -8.4361 -14.739 
42.097 -8.4361 -11.91 -51.2457 0.22092 -19.7195 -53.1302 0.22092 -13.1983 
12.6196 0.22092 -19.7195 16.126 0.22092 -16.062 24.783 0.22092 -13.8992 
33.44 0.22092 -14.1642 42.097 0.22092 -12.5276 -51.047 8.87794 -19.7195 
-53.1302 8.87794 -13.7262 11.813 8.87794 -19.7195 16.126 8.87794 -14.0444 
24.783 8.87794 -14.0151 33.44 8.87794 -14.68 42.097 8.87794 -13.41 
-49.3611 17.535 -19.7195 11.7175 17.535 -19.7195 16.126 17.535 -16.5903 
24.783 17.535 -15.5575 33.44 17.535 -15.0929 42.097 17.535 -14.0319 
50.7541 17.535 -11.1737 -45.6262 26.192 -19.7195 -44.4732 27.8017 -19.7195 
13.379 26.192 -19.7195 16.126 26.192 -18.2365 24.783 26.192 -15.6334 
33.44 26.192 -14.3773 42.097 26.192 -12.2868 -38.9322 34.849 -19.7195 
-35.8162 37.8162 -19.7195 12.6882 34.849 -19.7195 7.46894 40.3504 -19.7195 
16.126 34.849 -17.7654 24.783 34.849 -14.5888 33.44 34.849 -11.3985 
-28.5919 43.506 -19.7195 -27.1592 44.4369 -19.7195 -18.5021 47.2631 -19.7195 
-9.84511 48.0961 -19.7195 3.82446 43.506 -19.7195 -1.18809 45.9874 -19.7195 
7.46894 43.506 -17.3251 -27.1592 -47.1153 -11.0625 -18.5021 -49.7098 -11.0625 
-9.84511 -49.8312 -11.0625 -9.84511 -51.7212 -3.95506 -1.18809 -48.1951 -11.0625 
7.46894 -45.9546 -11.0625 16.126 -44.2301 -11.0625 -33.2486 -43.0642 -11.0625 
-35.8162 -40.8435 -11.0625 21.3716 -43.0642 -11.0625 24.783 -42.1501 -11.0625 
24.783 -43.0642 -9.76366 33.44 -37.4781 -11.0625 33.44 -43.0642 -3.57714 
-41.014 -34.4072 -11.0625 -44.4732 -28.4037 -11.0625 36.6253 -34.4072 -11.0625 
42.097 -34.4072 -6.07534 -45.9501 -25.7502 -11.0625 41.3817 -25.7502 -11.0625 
42.097 -21.8571 -11.0625 42.097 -25.7502 -10.5338 -48.8618 -17.0931 -11.0625 
43.0882 -17.0931 -11.0625 50.7541 -17.0931 -6.52015 -51.0948 -8.4361 -11.0625 
-53.1302 -1.67858 -11.0625 44.0755 -8.4361 -11.0625 50.7541 -8.4361 -7.73651 
-53.635 0.22092 -11.0625 -53.1302 0.22092 -7.71656 46.3655 0.22092 -11.0625 
50.7541 0.22092 -9.18911 -53.8954 8.87794 -11.0625 -53.1302 12.5009 -11.0625 
-53.1302 8.87794 -5.98017 50.3855 8.87794 -11.0625 50.7541 13.0851 -11.0625 
50.7541 8.87794 -10.9187 59.4111 8.87794 -2.78323 -52.1081 17.535 -11.0625 
50.9019 17.535 -11.0625 50.7541 17.883 -11.0625 -48.1975 26.192 -11.0625 
-44.4732 31.8972 -11.0625 44.3769 26.192 -11.0625 42.097 29.0506 -11.0625 
50.7541 26.192 -6.96887 -41.818 34.849 -11.0625 -35.8162 40.2758 -11.0625 
16.126 43.3132 -11.0625 24.783 39.2937 -11.0625 34.4224 34.849 -11.0625 
33.44 35.2387 -11.0625 42.097 34.849 -7.27204 -31.2863 43.506 -11.0625 
-27.1592 46.0866 -11.0625 -18.5021 50.2904 -11.0625 -9.84511 51.7496 -11.0625 
-1.18809 50.5427 -11.0625 15.8387 43.506 -11.0625 7.46894 47.4989 -11.0625 
16.126 43.506 -10.2279 -9.84511 -52.0833 -2.40548 -27.1592 -48.2297 -2.40548 
-13.4348 -51.7212 -2.40548 -18.5021 -51.2075 -2.40548 -6.88307 -51.7212 -2.40548 
-9.84511 -51.7212 -0.4401 -1.18809 -51.0253 -2.40548 7.46894 -49.4984 -2.40548 
16.126 -48.1914 -2.40548 24.783 -46.8822 -2.40548 33.44 -43.6052 -2.40548 
-34.6328 -43.0642 -2.40548 -35.8162 -41.84 -2.40548 34.4065 -43.0642 -2.40548 
42.097 -37.5075 -2.40548 -41.2925 -34.4072 -2.40548 -44.4732 -26.4585 -2.40548 
45.1298 -34.4072 -2.40548 -44.7213 -25.7502 -2.40548 50.5744 -25.7502 -2.40548 
50.7541 -25.4332 -2.40548 50.7541 -25.7502 -2.09319 -47.0631 -17.0931 -2.40548 
54.5689 -17.0931 -2.40548 -49.6107 -8.4361 -2.40548 56.746 -8.4361 -2.40548 
59.4111 -8.4361 2.22992 -52.2345 0.22092 -2.40548 58.4422 0.22092 -2.40548 
59.4111 6.48189 -2.40548 59.4111 0.22092 -0.595981 -52.6066 8.87794 -2.40548 
59.7389 8.87794 -2.40548 59.4111 10.4798 -2.40548 -51.5937 17.535 -2.40548 
58.0314 17.535 -2.40548 59.4111 17.535 1.29621 -47.2525 26.192 -2.40548 
-44.4732 29.5445 -2.40548 54.4811 26.192 -2.40548 50.7541 30.7764 -2.40548 
-39.1392 34.849 -2.40548 -35.8162 37.7351 -2.40548 -35.8162 34.849 4.79076 
24.783 42.5189 -2.40548 33.44 40.7641 -2.40548 46.292 34.849 -2.40548 
42.097 37.4774 -2.40548 -27.8747 43.506 -2.40548 -27.1592 43.9936 -2.40548 
-27.1592 43.506 -0.87914 -18.5021 48.8843 -2.40548 -9.84511 50.7253 -2.40548 
-1.18809 50.2516 -2.40548 7.46894 47.7594 -2.40548 20.8808 43.506 -2.40548 
16.126 44.7039 -2.40548 16.126 43.506 4.64314 -27.1592 -46.5549 6.25154 
-18.5021 -49.5453 6.25154 -9.84511 -50.3734 6.25154 -1.18809 -49.745 6.25154 
7.46894 -48.6411 6.25154 16.126 -47.5589 6.25154 24.783 -46.6015 6.25154 
33.44 -43.4682 6.25154 -32.5966 -43.0642 6.25154 -35.8162 -40.3069 6.25154 
-27.1592 -43.0642 12.2203 7.46894 -43.0642 14.5527 16.126 -43.0642 13.4033 
24.783 -43.0642 11.5338 34.3399 -43.0642 6.25154 33.44 -43.0642 7.08835 
42.097 -39.381 6.25154 -40.7802 -34.4072 6.25154 -44.4732 -26.8691 6.25154 
47.9998 -34.4072 6.25154 42.097 -34.4072 14.4494 50.7541 -31.2653 6.25154 
-44.9388 -25.7502 6.25154 -44.4732 -25.7502 8.15467 54.6808 -25.7502 6.25154 
50.7541 -25.7502 14.0024 -47.5393 -17.0931 6.25154 58.9636 -17.0931 6.25154 
59.4111 -15.4188 6.25154 -49.7554 -8.4361 6.25154 61.2276 -8.4361 6.25154 
59.4111 -8.4361 11.6251 -51.711 0.22092 6.25154 62.2534 0.22092 6.25154 
59.4111 0.22092 14.5473 -51.9006 8.87794 6.25154 62.4364 8.87794 6.25154 
-50.0152 17.535 6.25154 61.002 17.535 6.25154 59.4111 20.9114 6.25154 
59.4111 17.535 10.2528 -44.6233 26.192 6.25154 -44.4732 26.3609 6.25154 
-44.4732 26.192 6.62896 -35.8162 34.2099 6.25154 56.4886 26.192 6.25154 
50.7541 32.2901 6.25154 -34.9779 34.849 6.25154 -27.1592 40.8419 6.25154 
16.126 43.2305 6.25154 24.783 41.2 6.25154 33.44 39.8924 6.25154 
47.1034 34.849 6.25154 42.097 37.6449 6.25154 42.097 34.849 13.2314 
-22.6435 43.506 6.25154 -18.5021 45.7469 6.25154 -18.5021 43.506 10.7576 
-9.84511 48.4607 6.25154 -1.18809 48.5287 6.25154 15.3348 43.506 6.25154 
7.46894 46.2453 6.25154 -18.5021 -43.2521 14.9086 -9.84511 -44.2801 14.9086 
-1.18809 -43.9591 14.9086 -35.8162 -34.9094 14.9086 -19.2883 -43.0642 14.9086 
-27.1592 -40.6302 14.9086 -18.5021 -43.0642 15.0885 -9.84511 -43.0642 16.0448 
5.35269 -43.0642 14.9086 -1.18809 -43.0642 15.7622 7.46894 -42.6874 14.9086 
16.126 -41.3965 14.9086 24.783 -39.8072 14.9086 33.44 -37.2083 14.9086 
-36.3133 -34.4072 14.9086 -35.8162 -34.4072 15.4026 -27.1592 -34.4072 18.904 
-18.5021 -34.4072 20.7757 -9.84511 -34.4072 21.3784 -1.18809 -34.4072 21.2878 
7.46894 -34.4072 20.1278 16.126 -34.4072 19.0487 24.783 -34.4072 18.3042 
40.9951 -34.4072 14.9086 33.44 -34.4072 16.9576 42.097 -33.8422 14.9086 
-42.2882 -25.7502 14.9086 -44.4732 -22.1263 14.9086 -35.8162 -25.7502 20.3937 
-27.1592 -25.7502 22.8367 -18.5021 -25.7502 23.4143 7.46894 -25.7502 22.4613 
16.126 -25.7502 21.4625 24.783 -25.7502 21.0746 33.44 -25.7502 20.6828 
49.8309 -25.7502 14.9086 42.097 -25.7502 19.2242 50.7541 -24.8607 14.9086 
-46.6374 -17.0931 14.9086 -44.4732 -17.0931 18.2209 7.46894 -17.0931 23.4924 
16.126 -17.0931 22.6753 24.783 -17.0931 22.3296 33.44 -17.0931 22.0818 
42.097 -17.0931 21.0966 55.1884 -17.0931 14.9086 50.7541 -17.0931 18.8148 
-48.8354 -8.4361 14.9086 -44.4732 -8.4361 21.7216 16.126 -8.4361 23.1001 
24.783 -8.4361 22.4202 33.44 -8.4361 22.9727 42.097 -8.4361 22.6173 
57.8294 -8.4361 14.9086 50.7541 -8.4361 20.4713 -50.1776 0.22092 14.9086 
-44.4732 0.22092 23.3888 16.126 0.22092 22.454 24.783 0.22092 22.6971 
[...]
POINT_DATA 524
SCALARS ImageScalars float
LOOKUP_TABLE default
0 0 0 0 0 0 0 0 0 
0 0 0 0 0 0 0 0 0 
0 0 0 0 0 0 0 0 0 
0 0 0 0 0 0 0 0 0 
0 0 0 0 0 0 0 0 0 
0 0 0 0 0 0 0 0 0 
0 0 0 0 0 0 0 0 0 
0 0 0 0 0 0 0 0 0 
0 0 0 0 0 0 0 0 0 
0 0 0 0 0 0 0 0 0 
0 0 0 0 0 0 0 0 0 
0 0 0 0 0 0 0 0 0 
0 0 0 0 0 0 0 0 0 
0 0 0 0 0 0 0 0 0 
0 0 0 0 0 0 0 0 0 
0 0 0 0 0 0 0 0 0 
0 0 0 0 0 0 0 0 0 
0 0 0 0 0 0 0 0 0 
0 0 0 0 0 0 0 0 0 
0 0 0 0 0 0 0 0 0 
0 0 0 0 0 0 0 0 0 
0 0 0 0 0 0 0 0 0 
0 0 0 0 0 0 0 0 0 
0 0 0 0 0 0 0 0 0 
0 0 0 0 0 0 0 0 0 
0 0 0 0 0 0 0 0 0 
0 0 0 0 0 0 0 0 0 
0 0 0 0 0 0 0 0 0 
0 0 0 0 0 0 0 0 0 
0 0 0 0 0 0 0 0 0 
0 0 0 0 0 0 0 0 0 
0 0 0 0 0 0 0 0 0 
0 0 0 0 0 0 0 0 0 
0 0 0 0 0 0 0 0 0 
0 0 0 0 0 0 0 0 0 
0 0 0 0 0 0 0 0 0 
0 0 0 0 0 0 0 0 0 
0 0 0 0 0 0 0 0 0 
0 0 0 0 0 0 0 0 0 
0 0 0 0 0 0 0 0 0 
0 0 0 0 0 0 0 0 0 
0 0 0 0 0 0 0 0 0 
0 0 0 0 0 0 0 0 0 
0 0 0 0 0 0 0 0 0 
0 0 0 0 0 0 0 0 0 
0 0 0 0 0 0 0 0 0 
0 0 0 0 0 0 0 0 0 
0 0 0 0 0 0 0 0 0 
0 0 0 0 0 0 0 0 0 
0 0 0 0 0 0 0 0 0 
0 0 0 0 0 0 0 0 0 
0 0 0 0 0 0 0 0 0 
0 0 0 0 0 0 0 0 0 
0 0 0 0 0 0 0 0 0 
0 0 0 0 0 0 0 0 0 
0 0 0 0 0 0 0 0 0 
0 0 0 0 0 0 0 0 0 
0 0 0 0 0 0 0 0 0 
0 0 
NORMALS Normals float
-0.0145895 -0.620212 -0.784298 -0.501362 -0.570543 -0.650474 -0.155141 -0.41307 -0.897388 
0.00716741 -0.337175 -0.941415 0.109226 -0.335571 -0.935661 0.143816 -0.439475 -0.886667 
0.128668 -0.52324 -0.842416 0.149758 -0.537642 -0.829767 -0.335598 -0.343572 -0.877116 
-0.0692134 -0.170684 -0.982892 0.0366039 -0.101098 -0.994203 0.0376423 -0.146056 -0.98856 
0.0184378 -0.281205 -0.95947 0.0848909 -0.293385 -0.952218 0.215075 -0.254211 -0.942932 
0.402767 -0.153745 -0.902297 -0.684613 -0.26172 -0.680299 -0.0844881 -0.132166 -0.98762 
0.0898837 -0.061846 -0.99403 0.0417195 0.0306916 -0.998658 -0.0711277 -0.053634 -0.996024 
-0.0153035 -0.0680458 -0.997565 0.154252 0.0604731 -0.986179 0.293088 0.128171 -0.947455 
0.452344 0.191722 -0.870992 -0.566926 -0.0738468 -0.820452 -0.115874 0.0096044 -0.993217 
0.0959778 -0.0421065 -0.994492 0.0421175 -0.0201313 -0.99891 -0.0615502 -0.0513242 -0.996784 
0.134602 0.120575 -0.983536 0.288392 0.174639 -0.941452 0.345329 0.414383 -0.842042 
-0.478816 -0.0205195 -0.877676 -0.115484 -0.00119522 -0.993309 0.0640948 -0.0404297 -0.997124 
0.0304473 -0.0710027 -0.997011 0.0654381 0.062214 -0.995915 0.206498 0.14808 -0.967177 
0.453608 -0.0441369 -0.890108 -0.468272 0.0361461 -0.882845 -0.144221 0.0325482 -0.98901 
0.0293225 -0.0192342 -0.999385 0.138012 -0.0493248 -0.989202 0.162271 0.0757161 -0.983837 
0.02853 0.0313363 -0.999102 0.383856 0.0179444 -0.923219 -0.538165 0.207582 -0.816877 
-0.152228 0.0763263 -0.985394 -0.0191373 0.0114308 -0.999752 0.120674 -0.0382352 -0.991956 
0.16057 -0.0857704 -0.983291 0.13986 -0.0774677 -0.987136 0.45976 0.114203 -0.880669 
-0.690685 0.452579 -0.564027 -0.336646 0.231681 -0.912685 -0.0848782 0.109443 -0.990362 
0.0461689 -0.0236137 -0.998654 0.116289 -0.0365337 -0.992543 0.220957 -0.019843 -0.975082 
0.411021 0.0459862 -0.910465 -0.54005 0.568712 -0.620413 -0.268817 0.332508 -0.903978 
-0.0226234 0.151805 -0.988151 0.151632 0.179002 -0.972094 0.231414 0.204204 -0.951182 
0.404532 0.23451 -0.883945 -0.430553 0.753446 -0.496933 -0.116384 0.64012 -0.759408 
0.111745 0.539512 -0.83453 0.278903 0.562308 -0.778475 -0.0189034 -0.649447 -0.760172 
-0.53514 -0.621679 -0.571962 -0.149477 -0.662102 -0.734355 -0.295125 -0.65628 -0.694404 
-0.333277 -0.712055 -0.617984 0.0808658 -0.621171 -0.779492 0.149372 -0.588655 -0.794464 
0.1506 -0.623586 -0.767112 0.176441 -0.548176 -0.81754 0.198666 -0.666965 -0.718115 
0.140657 -0.558081 -0.817778 0.186804 -0.720582 -0.667732 0.150511 -0.546626 -0.823739 
0.172834 -0.769031 -0.615403 -0.574314 -0.595837 -0.561374 0.177331 -0.530021 -0.829235 
0.36706 -0.333639 -0.868304 0.312335 -0.500141 -0.807654 0.495922 -0.431152 -0.75377 
-0.756858 -0.453701 -0.470448 -0.786067 -0.436919 -0.437264 -0.832622 -0.452144 -0.319854 
0.459142 -0.158001 -0.874199 0.538185 -0.150952 -0.829198 -0.864618 -0.316271 -0.390395 
0.470715 0.167267 -0.866285 0.428846 0.307099 -0.849577 0.474844 0.0865212 -0.875807 
0.47662 -0.0628162 -0.876862 -0.875666 -0.202546 -0.438388 0.371901 0.443787 -0.815318 
0.460427 0.432813 -0.775035 0.356044 0.401217 -0.843953 0.287918 0.120678 -0.950021 
0.350367 -0.0496968 -0.935293 -0.86141 -0.076125 -0.502173 -0.978129 -0.141964 -0.152019 
0.60816 0.250172 -0.753363 0.460817 0.39243 -0.796019 0.069739 0.171298 -0.982748 
0.0799924 0.000836533 -0.996795 0.258574 -0.0847514 -0.962267 -0.837165 0.0915815 -0.539229 
-0.977268 0.0906347 -0.191658 0.704751 0.0478984 -0.707836 0.407468 -0.0830813 -0.909432 
-0.0387689 -0.100295 -0.994202 0.0427504 -0.0533327 -0.997661 0.214261 -0.082094 -0.973321 
-0.807604 0.256224 -0.531155 0.488644 -0.0462373 -0.871257 0.365002 -0.204373 -0.908298 
0.0859419 -0.0829291 -0.992843 0.0823125 0.0163935 -0.996472 0.239646 0.044921 -0.969821 
0.519069 0.146576 -0.842071 -0.738409 0.459777 -0.493312 -0.720124 0.485302 -0.495887 
0.419097 -0.0509711 -0.90651 0.40081 -0.0745001 -0.913127 0.208069 0.0490464 -0.976884 
0.167311 0.171704 -0.970837 0.362517 0.289709 -0.885805 -0.64529 0.611812 -0.457478 
-0.591927 0.667073 -0.452368 0.414664 0.245143 -0.876333 0.434243 0.47442 -0.765741 
0.418169 0.285166 -0.862447 0.322738 0.408465 -0.853813 0.332311 0.550341 -0.765959 
-0.461704 0.775899 -0.429896 -0.430753 0.795378 -0.42641 -0.200264 0.821895 -0.533275 
0.0577179 0.757299 -0.650512 0.376159 0.595419 -0.709916 0.289232 0.667071 -0.686557 
0.439765 0.664768 -0.603896 -0.411359 -0.866365 -0.283187 -0.144116 -0.925766 -0.349553 
0.0737686 -0.896399 -0.437067 0.0203235 -0.995544 -0.0920781 0.193076 -0.846576 -0.496015 
0.195763 -0.815541 -0.544582 0.174628 -0.802777 -0.570135 -0.598289 -0.761197 -0.250258 
-0.681786 -0.698757 -0.216577 0.221164 -0.775992 -0.590697 0.258974 -0.749951 -0.608692 
0.256726 -0.800735 -0.541217 0.479878 -0.558046 -0.676979 0.445173 -0.857175 -0.258984 
-0.805847 -0.572411 -0.151516 -0.886151 -0.457963 -0.0707498 0.543534 -0.446429 -0.710825 
0.653448 -0.528926 -0.541519 -0.912085 -0.408175 -0.0386525 0.602149 -0.202668 -0.772232 
0.549855 -0.145637 -0.822465 0.612114 -0.217018 -0.760408 -0.962319 -0.269926 0.0328814 
0.480311 -0.0820834 -0.873249 0.634361 -0.220109 -0.741038 -0.965343 -0.260596 0.0142501 
-0.981942 -0.186883 -0.0294035 0.368231 -0.0752597 -0.926683 0.514907 -0.132878 -0.846885 
-0.986399 -0.158767 -0.0425422 -0.985787 -0.16721 0.0163002 0.362724 -0.120036 -0.924133 
0.496607 -0.142522 -0.856194 -0.993969 0.0896345 -0.0631714 -0.98244 0.171168 -0.0742551 
-0.997389 0.0607712 0.0390238 0.459532 -0.0920462 -0.883379 0.498279 0.0250074 -0.866656 
0.472712 -0.0922751 -0.876372 0.824854 0.0286152 -0.564621 -0.954312 0.284108 -0.0925816 
0.524121 0.146185 -0.839004 0.5186 0.157862 -0.840318 -0.853729 0.51642 -0.0667638 
-0.787485 0.615392 -0.0340602 0.394472 0.322374 -0.860504 0.38777 0.386391 -0.836861 
0.602404 0.475814 -0.640867 -0.736177 0.676746 -0.00767396 -0.622979 0.782085 0.0155184 
0.405716 0.816856 -0.41005 0.338519 0.698341 -0.630655 0.343585 0.559568 -0.75421 
0.334343 0.572618 -0.748548 0.455258 0.703915 -0.5452 -0.550879 0.834134 0.0274348 
-0.500643 0.865403 0.0208307 -0.291396 0.953522 -0.0767087 -0.00827715 0.994258 -0.106689 
0.227008 0.95656 -0.18292 0.405118 0.822195 -0.399843 0.406799 0.873214 -0.268351 
0.396368 0.843092 -0.36344 0.0106893 -0.999648 -0.024279 -0.45137 -0.891987 0.0250063 
-0.0773399 -0.996923 -0.0127416 -0.201676 -0.979439 0.00509688 0.0574193 -0.997627 -0.0379992 
0.00726598 -0.998185 0.0597884 0.146529 -0.986949 -0.0667933 0.16203 -0.979267 -0.121581 
0.145819 -0.976936 -0.15599 0.253272 -0.946681 -0.199116 0.439314 -0.874095 -0.207269 
-0.691088 -0.722573 0.0169202 -0.734595 -0.678288 0.0171871 0.454601 -0.863579 -0.218104 
0.63149 -0.675585 -0.380532 -0.860923 -0.50865 0.00930702 -0.947318 -0.316614 0.0484101 
0.6919 -0.576677 -0.434417 -0.952682 -0.299235 0.0534309 0.70334 -0.445769 -0.553717 
0.704983 -0.440573 -0.555783 0.712686 -0.453741 -0.534975 -0.960544 -0.268584 0.0722362 
0.781223 -0.242333 -0.575295 -0.960558 -0.270456 0.06466 0.777281 -0.201909 -0.595875 
0.938625 -0.214137 -0.270423 -0.9786 -0.178288 0.102736 0.784032 -0.135334 -0.605788 
0.825614 -0.0158545 -0.564013 0.869591 -0.12701 -0.477157 -0.993039 0.0375169 0.111648 
0.835155 0.0310943 -0.549135 0.836737 0.0740533 -0.542575 -0.957147 0.26599 0.114538 
0.831427 0.249021 -0.496707 0.917841 0.29214 -0.268741 -0.801968 0.573084 0.16859 
-0.738548 0.642621 0.203925 0.786621 0.489287 -0.376596 0.679042 0.638676 -0.361932 
-0.648075 0.722646 0.240379 -0.6102 0.75166 0.250325 -0.595696 0.74192 0.307735 
0.221441 0.973176 -0.0623966 0.28324 0.944875 -0.164278 0.549416 0.786594 -0.281802 
0.447419 0.860957 -0.24201 -0.530947 0.815581 0.230051 -0.525037 0.820088 0.227579 
-0.525689 0.815031 0.243671 -0.360462 0.905143 0.225351 -0.064069 0.981836 0.178586 
0.16177 0.980718 0.109651 0.308738 0.948686 0.0683725 0.251123 0.967702 -0.0221303 
0.290643 0.956788 0.0091121 0.282111 0.946364 0.157505 -0.42203 -0.847314 0.322413 
-0.197268 -0.909465 0.366003 -0.00853608 -0.929827 0.367897 0.0936885 -0.93777 0.33438 
0.120322 -0.940703 0.317175 0.109525 -0.945746 0.305891 0.223472 -0.929197 0.294369 
0.354958 -0.90792 0.222905 -0.575871 -0.757968 0.306361 -0.677239 -0.684995 0.268568 
-0.376466 -0.731567 0.568405 0.092775 -0.69604 0.711984 0.108543 -0.735585 0.66868 
0.18691 -0.79101 0.582553 0.370533 -0.903742 0.214372 0.347901 -0.898862 0.266479 
0.546555 -0.827871 0.126125 -0.806747 -0.553 0.208208 -0.923609 -0.366358 0.112816 
0.706831 -0.701344 0.0922307 0.432062 -0.575503 0.694348 0.781174 -0.622371 0.0492094 
-0.933963 -0.342949 0.100494 -0.912284 -0.373726 0.167531 0.856861 -0.515468 0.00911326 
0.590365 -0.542 0.598085 -0.9656 -0.258995 0.0231903 0.935842 -0.348125 -0.0548493 
0.947062 -0.315983 -0.056823 -0.972573 -0.228289 0.0445747 0.980598 -0.189114 -0.0516064 
0.913331 -0.210122 0.348821 -0.985503 -0.123939 0.115858 0.997446 -0.0671098 -0.0244585 
0.821945 -0.0654152 0.565797 -0.985807 0.0904749 0.141418 0.997203 0.0728955 0.0165058 
-0.908946 0.353121 0.221635 0.951124 0.306743 0.0356648 0.91741 0.394838 0.0496209 
0.901727 0.327871 0.281761 -0.719432 0.635256 0.280835 -0.71623 0.638593 0.281448 
-0.715849 0.636953 0.286096 -0.592259 0.73885 0.321449 0.821647 0.56349 0.0858739 
0.624077 0.770329 0.130851 -0.585279 0.742882 0.324922 -0.529128 0.779513 0.335236 
0.278634 0.940847 0.192795 0.184146 0.957164 0.223444 0.200598 0.958397 0.203064 
0.502368 0.850171 0.157591 0.364853 0.914131 0.176769 0.388859 0.81039 0.438242 
-0.453444 0.818847 0.351963 -0.384956 0.846862 0.366925 -0.37903 0.818128 0.432437 
-0.127333 0.937321 0.324369 0.119509 0.95471 0.272481 0.280133 0.940032 0.19459 
0.28442 0.93242 0.222932 -0.137118 -0.674016 0.725879 -0.0289633 -0.691381 0.721909 
0.0668104 -0.701877 0.709158 -0.548665 -0.610139 0.571574 -0.155962 -0.672831 0.72317 
-0.322679 -0.641383 0.696065 -0.136539 -0.6685 0.731071 -0.0287776 -0.656472 0.753801 
0.0850055 -0.685856 0.722756 0.0660716 -0.675989 0.733943 0.093096 -0.675702 0.731273 
0.101969 -0.64111 0.760644 0.139354 -0.611909 0.778555 0.220045 -0.601405 0.768044 
-0.562559 -0.601034 0.567702 -0.541589 -0.599842 0.588957 -0.239353 -0.491479 0.837352 
-0.12807 -0.405978 0.904865 -0.0251855 -0.401141 0.91567 0.0664763 -0.394329 0.916562 
0.118135 -0.388773 0.913728 0.0993219 -0.388838 0.915937 0.10097 -0.429742 0.897288 
0.391999 -0.556222 0.732771 0.195841 -0.508269 0.838635 0.414674 -0.547709 0.726677 
-0.749272 -0.471217 0.465345 -0.822358 -0.417302 0.386765 -0.417763 -0.397386 0.817043 
-0.145404 -0.328105 0.933383 -0.0626932 -0.244949 0.967507 0.133188 -0.184323 0.9738 
0.076317 -0.189737 0.978864 0.0437738 -0.22295 0.973846 0.0912421 -0.259533 0.961414 
0.530008 -0.515395 0.673394 0.317883 -0.344854 0.883191 0.551863 -0.508325 0.6611 
-0.879717 -0.329077 0.34323 -0.780651 -0.343711 0.521964 0.107409 -0.135857 0.984889 
0.0666614 -0.0949418 0.993248 0.0339174 -0.0750147 0.996605 0.0675507 -0.125653 0.989772 
0.180803 -0.174127 0.967982 0.738082 -0.305313 0.60168 0.479571 -0.310037 0.820908 
-0.928952 -0.203697 0.309121 -0.663888 -0.201307 0.720228 0.145167 0.0129448 0.989322 
0.00718295 -0.021122 0.999751 -0.0123805 -0.0767307 0.996975 0.122815 -0.150277 0.980986 
0.758048 -0.196314 0.621952 0.434879 -0.165601 0.885131 -0.936859 -0.0737432 0.341843 
-0.575594 -0.0486064 0.81629 0.164419 -0.0101654 0.986338 -0.0554251 -0.101521 0.993288 
-0.0607642 -0.0935712 0.993757 0.802557 -0.0647194 0.593054 0.420444 -0.0410008 0.906392 
0.810368 0.0847031 0.579767 -0.918585 0.145434 0.367493 -0.579929 0.158477 0.799104 
0.0410745 -0.157976 0.986588 0.435953 0.0319603 0.899402 0.809726 0.106628 0.577039 
0.809301 0.108677 0.577253 0.808957 0.106536 0.578134 -0.810094 0.415899 0.413251 
-0.724899 0.54818 0.417157 -0.692691 0.413623 0.590842 0.750291 0.310994 0.583391 
0.537984 0.21386 0.815376 -0.640525 0.647683 0.412595 -0.580057 0.702825 0.41179 
-0.53399 0.579533 0.615627 0.392924 0.762789 0.51358 0.373548 0.45134 0.810404 
0.636843 0.532793 0.557281 0.58881 0.581864 0.561014 0.586777 0.541441 0.602108 
-0.505345 0.74712 0.431785 -0.481152 0.752233 0.450154 -0.453129 0.725531 0.517957 
-0.368792 0.777229 0.509812 -0.279164 0.591805 0.756198 0.26725 0.871179 0.411856 
0.167857 0.576729 0.799504 0.206825 0.883601 0.420086 0.18296 0.724286 0.664783 
0.345452 0.798838 0.492464 0.232959 0.852346 0.468227 0.236763 0.78511 0.572316 
-0.254365 0.818485 0.51515 -0.173964 0.836924 0.518936 -0.176571 0.803805 0.568085 
0.0583254 0.868982 0.491394 0.0442236 0.816077 0.576249 0.213337 0.880186 0.423982 
0.211131 0.87985 0.425778 0.209915 0.877223 0.431758 -0.0187998 -0.255081 0.966737 
0.0815181 -0.193382 0.977731 -0.290524 -0.297005 0.909606 -0.127069 -0.292469 0.947795 
-0.0501168 -0.240654 0.969316 -0.0598306 -0.240113 0.968899 -0.0188586 -0.230802 0.972818 
0.0903431 -0.178065 0.979863 0.082748 -0.177287 0.980674 -0.300232 -0.295775 0.90685 
-0.287282 -0.29379 0.911678 -0.0944402 -0.210245 0.973077 -0.0225168 -0.18829 0.981855 
0.0518088 -0.133575 0.989684 0.10858 -0.128629 0.985731 0.124703 -0.0281244 0.991795 
0.105294 -0.135212 0.985206 -0.483643 -0.183321 0.855852 -0.225081 -0.145563 0.963405 
-0.0446721 -0.121637 0.991569 0.0160836 -0.0728504 0.997213 0.142146 -0.0200171 0.989643 
0.0817253 -0.0390714 0.995889 0.125476 -0.0231951 0.991825 0.0627597 -0.125746 0.990075 
0.0684559 -0.0929775 0.993312 -0.5551 -0.0466475 0.830475 -0.214951 -0.0222833 0.976371 
-0.0126848 -0.0555485 0.998375 0.0811138 -0.0274308 0.996327 0.084385 -0.0408303 0.995596 
0.0199173 -0.17138 0.985004 0.17381 -0.00970371 0.984731 0.161247 -0.00806971 0.986881 
-0.0657553 -0.157585 0.985314 -0.00994624 -0.0884552 0.996031 -0.0528096 -0.0988772 0.993697 
0.107342 -0.0746306 0.991417 0.0602266 -0.0806583 0.994921 -0.522154 0.147366 0.840023 
-0.242611 0.059824 0.968277 -0.0471372 0.0102429 0.998836 0.0314358 -0.0526646 0.998117 
0.00139569 -0.107975 0.994153 0.110314 -0.12775 0.985653 0.0705755 -0.138098 0.987901 
0.229731 -0.0194177 0.97306 0.0101572 -0.169306 0.985511 0.0348197 -0.15757 0.986894 
-0.0736246 -0.198106 0.977412 0.0082924 -0.139016 0.990255 0.215497 -0.0287358 0.976082 
0.167185 -0.04208 0.985027 -0.476612 0.318311 0.819462 -0.43744 0.383735 0.813261 
-0.383336 0.276933 0.881114 -0.115164 0.138495 0.983644 -0.0365714 0.0394519 0.998552 
0.00585876 -0.00753974 0.999954 0.107776 0.0141554 0.994074 0.13289 -0.0692779 0.988707 
-0.00920784 -0.155886 0.987732 -0.0317207 -0.0807285 0.996231 0.101329 0.0195317 0.994661 
0.324295 0.142848 0.935108 0.270281 0.229967 0.934914 0.21753 0.107535 0.970112 
-0.363098 0.464929 0.807465 -0.308805 0.491511 0.814283 -0.275924 0.414405 0.867257 
-0.225717 0.496899 0.83794 -0.117843 0.261056 0.958104 -0.0251129 0.199839 0.979507 
0.0502305 0.151388 0.987197 0.0546766 0.0999499 0.993489 0.12161 0.440033 0.889709 
0.037358 0.139272 0.989549 0.137037 0.455734 0.879504 0.0938337 0.238131 0.96669 
0.254757 0.362995 0.896289 0.21838 0.389208 0.89489 0.204345 0.332063 0.920857 
-0.180729 0.501938 0.845811 -0.132589 0.490255 0.861435 -0.123724 0.45427 0.882231 
0.00841257 0.49532 0.86867 0.00611286 0.414042 0.910237 0.134736 0.480131 0.866787 
0.126393 0.473744 0.871545 0.12029 0.433719 0.892983 
