# vtk DataFile Version 4.2
vtk output
ASCII
DATASET POLYDATA
POINTS 528 float
-13.8451 -46.3954 -14.3741 -5.73327 -46.3954 -14.99 2.3786 -46.3954 -14.047 
-21.957 -38.2835 -16.4293 -13.8451 -38.2835 -17.9464 -5.73327 -38.2835 -18.3067 
2.3786 -38.2835 -18.1511 10.4905 -38.2835 -16.5672 18.6023 -38.2835 -14.0648 
-30.0689 -30.1716 -15.4548 -21.957 -30.1716 -18.1374 -13.8451 -30.1716 -18.9617 
-5.73327 -30.1716 -19.2595 2.3786 -30.1716 -19.0782 10.4905 -30.1716 -18.2057 
18.6023 -30.1716 -16.4424 26.7142 -30.1716 -14.1492 -30.0689 -22.0598 -16.9894 
-21.957 -22.0598 -18.8259 -13.8451 -22.0598 -19.0468 -5.73327 -22.0598 -19.03 
2.3786 -22.0598 -18.6431 10.4905 -22.0598 -17.5863 18.6023 -22.0598 -16.5826 
26.7142 -22.0598 -15.6657 34.8261 -22.0598 -14.4513 -38.1808 -13.9479 -14.1033 
-30.0689 -13.9479 -17.7394 -21.957 -13.9479 -18.9912 -13.8451 -13.9479 -18.803 
-5.73327 -13.9479 -18.4311 2.3786 -13.9479 -18.0388 10.4905 -13.9479 -15.8178 
18.6023 -13.9479 -15.8038 26.7142 -13.9479 -16.4777 34.8261 -13.9479 -16.645 
42.938 -13.9479 -15.0137 -38.1808 -5.83601 -15.2585 -30.0689 -5.83601 -18.1907 
-21.957 -5.83601 -19.3601 -13.8451 -5.83601 -19.3757 -5.73327 -5.83601 -18.4253 
2.3786 -5.83601 -18.2704 10.4905 -5.83601 -15.771 18.6023 -5.83601 -16.0513 
26.7142 -5.83601 -17.2385 34.8261 -5.83601 -17.5668 42.938 -5.83601 -16.9333 
51.0498 -5.83601 -14.9339 -38.1808 2.27586 -16.087 -30.0689 2.27586 -18.507 
-21.957 2.27586 -19.6252 -13.8451 2.27586 -20.6931 -5.73327 2.27586 -19.4671 
2.3786 2.27586 -17.3116 10.4905 2.27586 -18.9059 18.6023 2.27586 -17.9919 
26.7142 2.27586 -18.4891 34.8261 2.27586 -18.4343 42.938 2.27586 -17.3833 
51.0498 2.27586 -14.6392 -38.1808 10.3877 -16.5834 -30.0689 10.3877 -18.5048 
-21.957 10.3877 -18.829 -13.8451 10.3877 -18.5891 -5.73327 10.3877 -19.8318 
2.3786 10.3877 -19.3886 10.4905 10.3877 -18.7157 18.6023 10.3877 -19.3647 
26.7142 10.3877 -19.6509 34.8261 10.3877 -18.4513 42.938 10.3877 -16.5391 
51.0498 10.3877 -13.0495 -38.1808 18.4996 -17.2218 -30.0689 18.4996 -19.1359 
-21.957 18.4996 -18.978 -13.8451 18.4996 -18.1698 -5.73327 18.4996 -18.3196 
2.3786 18.4996 -18.6098 10.4905 18.4996 -18.6112 18.6023 18.4996 -19.3059 
26.7142 18.4996 -19.081 34.8261 18.4996 -17.5864 42.938 18.4996 -14.4792 
-38.1808 26.6115 -16.3884 -30.0689 26.6115 -18.5315 -21.957 26.6115 -19.1271 
-13.8451 26.6115 -19.4691 -5.73327 26.6115 -19.2594 2.3786 26.6115 -19.0198 
10.4905 26.6115 -18.5924 18.6023 26.6115 -17.8966 26.7142 26.6115 -16.8505 
34.8261 26.6115 -13.9802 -38.1808 34.7233 -14.8644 -30.0689 34.7233 -18.5433 
-21.957 34.7233 -19.1083 -13.8451 34.7233 -20.0314 -5.73327 34.7233 -19.7054 
2.3786 34.7233 -19.1853 10.4905 34.7233 -16.5711 18.6023 34.7233 -13.7621 
-30.0689 42.8352 -15.6305 -21.957 42.8352 -17.7401 -13.8451 42.8352 -19.3538 
-5.73327 42.8352 -18.7693 2.3786 42.8352 -15.6589 -13.8451 50.9471 -13.3443 
-13.8451 -48.4262 -12.8872 -5.73327 -49.031 -12.8872 2.3786 -47.6893 -12.8872 
-30.0689 -46.3954 -7.53745 -19.1807 -46.3954 -12.8872 -21.957 -44.9057 -12.8872 
-21.957 -46.3954 -11.8775 5.94378 -46.3954 -12.8872 10.4905 -44.2341 -12.8872 
10.4905 -46.3954 -10.1401 18.6023 -39.801 -12.8872 -38.1808 -38.2835 -5.67881 
-29.9738 -38.2835 -12.8872 -30.0689 -38.1522 -12.8872 -30.0689 -38.2835 -12.8378 
20.9835 -38.2835 -12.8872 26.7142 -32.8146 -12.8872 26.7142 -38.2835 -8.65572 
-34.171 -30.1716 -12.8872 -38.1808 -30.1716 -9.69817 30.481 -30.1716 -12.8872 
34.8261 -26.3308 -12.8872 34.8261 -30.1716 -11.0721 42.938 -30.1716 -6.61561 
-37.3608 -22.0598 -12.8872 -38.1808 -19.671 -12.8872 -38.1808 -22.0598 -12.2975 
41.8023 -22.0598 -12.8872 42.938 -21.1801 -12.8872 42.938 -22.0598 -12.592 
51.0498 -22.0598 -8.69262 -39.9203 -13.9479 -12.8872 -46.2926 -13.9479 -7.20263 
49.4495 -13.9479 -12.8872 51.0498 -12.1485 -12.8872 51.0498 -13.9479 -12.3263 
59.1617 -13.9479 -6.34955 -42.0635 -5.83601 -12.8872 -46.2926 -5.83601 -9.59474 
55.097 -5.83601 -12.8872 59.1617 -5.83601 -9.94246 -43.7416 2.27586 -12.8872 
-46.2926 2.27586 -10.9756 54.7505 2.27586 -12.8872 59.1617 2.27586 -9.42601 
-44.736 10.3877 -12.8872 -46.2926 10.3877 -11.6487 51.3038 10.3877 -12.8872 
51.0498 10.9121 -12.8872 59.1617 10.3877 -6.5859 -44.3336 18.4996 -12.8872 
-46.2926 18.4996 -10.8405 46.3911 18.4996 -12.8872 42.938 21.5353 -12.8872 
51.0498 18.4996 -9.61522 -42.9464 26.6115 -12.8872 -46.2926 26.6115 -8.91717 
26.7142 32.1881 -12.8872 37.0225 26.6115 -12.8872 34.8261 27.9852 -12.8872 
42.938 26.6115 -8.8339 -41.3504 34.7233 -12.8872 -38.1808 39.0511 -12.8872 
10.4905 40.7329 -12.8872 21.0531 34.7233 -12.8872 18.6023 35.6707 -12.8872 
26.7142 34.7233 -9.36605 -35.1179 42.8352 -12.8872 -38.1808 42.8352 -9.38968 
-30.0689 47.845 -12.8872 -21.957 50.3625 -12.8872 -5.73327 49.7742 -12.8872 
7.69609 42.8352 -12.8872 2.3786 46.2716 -12.8872 10.4905 42.8352 -9.97845 
-18.0736 50.9471 -12.8872 -21.957 50.9471 -12.0497 -11.2893 50.9471 -12.8872 
-13.8451 51.3792 -12.8872 -5.73327 50.9471 -10.4293 -30.0689 -48.7063 -4.77528 
-21.957 -52.5931 -4.77528 -13.8451 -53.9679 -4.77528 -5.73327 -53.4499 -4.77528 
2.3786 -51.8113 -4.77528 10.4905 -48.9689 -4.77528 -32.7676 -46.3954 -4.77528 
-38.1808 -39.4322 -4.77528 16.2622 -46.3954 -4.77528 18.6023 -45.1935 -4.77528 
26.7142 -40.8072 -4.77528 -38.8976 -38.2835 -4.77528 31.283 -38.2835 -4.77528 
34.8261 -36.1025 -4.77528 42.938 -31.4883 -4.77528 -42.5786 -30.1716 -4.77528 
-46.2926 -30.1716 2.9473 44.7184 -30.1716 -4.77528 51.0498 -25.2161 -4.77528 
-45.9788 -22.0598 -4.77528 -46.2926 -21.0826 -4.77528 -46.2926 -22.0598 -4.28774 
54.4144 -22.0598 -4.77528 59.1617 -15.8755 -4.77528 -48.3296 -13.9479 -4.77528 
60.322 -13.9479 -4.77528 -50.703 -5.83601 -4.77528 62.6497 -5.83601 -4.77528 
-51.8809 2.27586 -4.77528 -54.4045 2.27586 2.68676 62.4045 2.27586 -4.77528 
-51.3928 10.3877 -4.77528 60.5047 10.3877 -4.77528 59.1617 13.4869 -4.77528 
-50.1131 18.4996 -4.77528 55.9019 18.4996 -4.77528 51.0498 23.9498 -4.77528 
-48.6039 26.6115 -4.77528 -46.2926 33.889 -4.77528 34.8261 34.5461 -4.77528 
48.0653 26.6115 -4.77528 42.938 30.0341 -4.77528 51.0498 26.6115 0.886903 
-45.9919 34.7233 -4.77528 18.6023 40.0502 -4.77528 34.3135 34.7233 -4.77528 
26.7142 37.0554 -4.77528 34.8261 34.7233 -4.1738 -40.618 42.8352 -4.77528 
-38.1808 45.4083 -4.77528 -38.1808 42.8352 2.85103 -30.0689 50.9448 -4.77528 
2.3786 50.4963 -4.77528 14.2468 42.8352 -4.77528 10.4905 45.1262 -4.77528 
-30.0633 50.9471 -4.77528 -21.957 53.9771 -4.77528 -13.8451 54.2692 -4.77528 
1.07841 50.9471 -4.77528 -5.73327 52.7905 -4.77528 -30.0689 -51.1536 3.33659 
-21.957 -54.4344 3.33659 -13.8451 -54.4638 3.33659 -5.73327 -53.1299 3.33659 
2.3786 -51.1893 3.33659 10.4905 -48.1689 3.33659 -36.4635 -46.3954 3.33659 
-38.1808 -44.4599 3.33659 2.3786 -46.3954 10.7962 14.6441 -46.3954 3.33659 
10.4905 -46.3954 6.42978 18.6023 -44.5918 3.33659 26.7142 -40.8432 3.33659 
-42.4553 -38.2835 3.33659 -46.2926 -30.5155 3.33659 31.9617 -38.2835 3.33659 
26.7142 -38.2835 7.70909 34.8261 -36.8689 3.33659 42.938 -32.4947 3.33659 
-46.45 -30.1716 3.33659 46.1909 -30.1716 3.33659 42.938 -30.1716 8.05417 
51.0498 -26.5479 3.33659 -49.9669 -22.0598 3.33659 55.8885 -22.0598 3.33659 
59.1617 -17.7862 3.33659 -52.6943 -13.9479 3.33659 61.4808 -13.9479 3.33659 
59.1617 -13.9479 7.66135 -54.3034 -5.83601 3.33659 -54.4045 -2.88925 3.33659 
64.5148 -5.83601 3.33659 -54.5827 2.27586 3.33659 -54.4045 3.43478 3.33659 
-54.4045 2.27586 4.31216 64.3717 2.27586 3.33659 -53.2787 10.3877 3.33659 
62.2776 10.3877 3.33659 59.1617 18.1164 3.33659 59.1617 10.3877 10.8348 
-51.0644 18.4996 3.33659 58.9659 18.4996 3.33659 -48.0133 26.6115 3.33659 
-46.2926 30.4198 3.33659 -46.2926 26.6115 6.71738 42.938 33.2692 3.33659 
51.8316 26.6115 3.33659 51.0498 27.3584 3.33659 51.0498 26.6115 5.73296 
-44.1304 34.7233 3.33659 -38.1808 42.6261 3.33659 -38.1808 34.7233 9.99468 
18.6023 41.1439 3.33659 26.7142 38.8063 3.33659 39.6868 34.7233 3.33659 
34.8261 36.6529 3.33659 -37.9207 42.8352 3.33659 -30.0689 48.3439 3.33659 
-30.0689 42.8352 10.4334 2.3786 49.335 3.33659 14.9183 42.8352 3.33659 
10.4905 45.0686 3.33659 10.4905 42.8352 9.7617 -24.6303 50.9471 3.33659 
-21.957 51.9655 3.33659 -21.957 50.9471 4.88856 -13.8451 52.7463 3.33659 
-13.8451 50.9471 6.58305 -2.51537 50.9471 3.33659 -5.73327 51.8894 3.33659 
-5.73327 50.9471 5.36037 -30.0689 -48.7394 11.4485 -21.957 -51.1297 11.4485 
-13.8451 -50.3297 11.4485 -5.73327 -48.2506 11.4485 -33.8648 -46.3954 11.4485 
-38.1808 -42.6217 11.4485 -30.0689 -46.3954 14.6522 -21.957 -46.3954 15.2681 
-13.8451 -46.3954 14.7274 0.613453 -46.3954 11.4485 -5.73327 -46.3954 13.1568 
2.3786 -45.7073 11.4485 10.4905 -42.1676 11.4485 18.6023 -39.1173 11.4485 
-41.5994 -38.2835 11.4485 -46.2926 -30.5714 11.4485 -38.1808 -38.2835 14.8194 
-30.0689 -38.2835 18.5841 -13.8451 -38.2835 18.5228 -5.73327 -38.2835 17.2327 
2.3786 -38.2835 15.7166 10.4905 -38.2835 14.3032 20.4372 -38.2835 11.4485 
18.6023 -38.2835 12.1183 26.7142 -34.9056 11.4485 34.8261 -31.447 11.4485 
-46.4908 -30.1716 11.4485 -46.2926 -30.1716 11.7798 -38.1808 -30.1716 18.3738 
-13.8451 -30.1716 19.4423 -5.73327 -30.1716 18.4998 2.3786 -30.1716 17.7095 
10.4905 -30.1716 17.1556 18.6023 -30.1716 15.9856 26.7142 -30.1716 14.5333 
37.8466 -30.1716 11.4485 34.8261 -30.1716 12.3919 42.938 -27.4706 11.4485 
51.0498 -22.1418 11.4485 -49.4893 -22.0598 11.4485 -46.2926 -22.0598 14.9879 
-38.1808 -22.0598 18.8585 -13.8451 -22.0598 19.0125 -5.73327 -22.0598 18.5975 
2.3786 -22.0598 18.416 10.4905 -22.0598 17.5689 18.6023 -22.0598 17.0344 
26.7142 -22.0598 16.7983 34.8261 -22.0598 16.2551 42.938 -22.0598 14.3319 
51.1291 -22.0598 11.4485 51.0498 -22.0598 11.5077 -52.1603 -13.9479 11.4485 
-46.2926 -13.9479 16.8817 -38.1808 -13.9479 19.3372 -21.957 -13.9479 18.6618 
-13.8451 -13.9479 17.6515 -5.73327 -13.9479 18.7031 2.3786 -13.9479 19.5188 
10.4905 -13.9479 17.4384 18.6023 -13.9479 17.109 26.7142 -13.9479 17.4973 
34.8261 -13.9479 17.4541 42.938 -13.9479 16.6433 55.4975 -13.9479 11.4485 
[...]
POINT_DATA 528
SCALARS ImageScalars float
LOOKUP_TABLE default
0 0 0 0 0 0 0 0 0 
0 0 0 0 0 0 0 0 0 
0 0 0 0 0 0 0 0 0 
0 0 0 0 0 0 0 0 0 
0 0 0 0 0 0 0 0 0 
0 0 0 0 0 0 0 0 0 
0 0 0 0 0 0 0 0 0 
0 0 0 0 0 0 0 0 0 
0 0 0 0 0 0 0 0 0 
0 0 0 0 0 0 0 0 0 
0 0 0 0 0 0 0 0 0 
0 0 0 0 0 0 0 0 0 
0 0 0 0 0 0 0 0 0 
0 0 0 0 0 0 0 0 0 
0 0 0 0 0 0 0 0 0 
0 0 0 0 0 0 0 0 0 
0 0 0 0 0 0 0 0 0 
0 0 0 0 0 0 0 0 0 
0 0 0 0 0 0 0 0 0 
0 0 0 0 0 0 0 0 0 
0 0 0 0 0 0 0 0 0 
0 0 0 0 0 0 0 0 0 
0 0 0 0 0 0 0 0 0 
0 0 0 0 0 0 0 0 0 
0 0 0 0 0 0 0 0 0 
0 0 0 0 0 0 0 0 0 
0 0 0 0 0 0 0 0 0 
0 0 0 0 0 0 0 0 0 
0 0 0 0 0 0 0 0 0 
0 0 0 0 0 0 0 0 0 
0 0 0 0 0 0 0 0 0 
0 0 0 0 0 0 0 0 0 
0 0 0 0 0 0 0 0 0 
0 0 0 0 0 0 0 0 0 
0 0 0 0 0 0 0 0 0 
0 0 0 0 0 0 0 0 0 
0 0 0 0 0 0 0 0 0 
0 0 0 0 0 0 0 0 0 
0 0 0 0 0 0 0 0 0 
0 0 0 0 0 0 0 0 0 
0 0 0 0 0 0 0 0 0 
0 0 0 0 0 0 0 0 0 
0 0 0 0 0 0 0 0 0 
0 0 0 0 0 0 0 0 0 
0 0 0 0 0 0 0 0 0 
0 0 0 0 0 0 0 0 0 
0 0 0 0 0 0 0 0 0 
0 0 0 0 0 0 0 0 0 
0 0 0 0 0 0 0 0 0 
0 0 0 0 0 0 0 0 0 
0 0 0 0 0 0 0 0 0 
0 0 0 0 0 0 0 0 0 
0 0 0 0 0 0 0 0 0 
0 0 0 0 0 0 0 0 0 
0 0 0 0 0 0 0 0 0 
0 0 0 0 0 0 0 0 0 
0 0 0 0 0 0 0 0 0 
0 0 0 0 0 0 0 0 0 
0 0 0 0 0 0 
NORMALS Normals float
0.145407 0.553914 0.819778 -0.0161518 0.563152 0.826196 -0.192875 0.657398 0.728442 
0.284728 0.300109 0.91042 0.101582 0.257698 0.960871 0.0131826 0.242007 0.970185 
-0.0996858 0.268681 0.958057 -0.232527 0.365727 0.901208 -0.375136 0.480524 0.792697 
0.422997 0.230536 0.876314 0.198177 0.136046 0.970679 0.0659613 0.0688642 0.995443 
0.00724373 0.0415104 0.999112 -0.0680998 0.0326313 0.997145 -0.153014 0.0558866 0.986642 
-0.243252 0.130706 0.961116 -0.295483 0.310766 0.90339 0.351513 0.128931 0.927262 
0.120261 0.0507415 0.991445 0.0122444 -0.00979509 0.999877 -0.0238771 -0.0511087 0.998408 
-0.0883058 -0.0626849 0.994119 -0.124665 -0.143631 0.981748 -0.115545 -0.0372927 0.992602 
-0.124208 0.12908 0.983825 -0.162505 0.311479 0.936255 0.515187 0.155474 0.842858 
0.267185 0.0700591 0.961095 0.062916 0.0329498 0.997475 -0.0345085 0.0191628 0.999221 
-0.0454868 -0.0371953 0.998272 -0.15933 -0.0230441 0.986956 -0.132996 -0.110487 0.984939 
0.0391929 -0.034154 0.998648 0.0511487 0.0973627 0.993934 -0.0794438 0.175872 0.981202 
-0.24682 0.228814 0.94166 0.439592 0.10885 0.891578 0.239463 0.0461768 0.969807 
0.0698288 0.038546 0.996814 -0.0567601 0.117789 0.991415 -0.0674896 0.053822 0.996267 
-0.141047 -0.0409773 0.989154 -0.141625 0.199854 0.969536 0.0895959 0.131968 0.987197 
0.0897409 0.1204 0.988661 -0.0169594 0.114146 0.993319 -0.144064 0.138871 0.979776 
-0.353001 0.119456 0.927966 0.393623 0.0757073 0.916149 0.210105 0.0187688 0.977499 
0.131921 -0.0322901 0.990734 0.00335901 -0.0390467 0.999232 -0.220674 0.0923091 0.97097 
-0.0172189 0.0691911 0.997455 0.0347307 0.14917 0.988201 -0.0236262 0.202001 0.9791 
0.0255375 0.146884 0.988824 -0.0652393 0.0541293 0.9964 -0.229177 -0.0226844 0.97312 
-0.38463 -0.095725 0.918094 0.3574 0.0625544 0.931854 0.134224 0.0372821 0.990249 
0.00618288 -0.0396421 0.999195 0.0497418 -0.165271 0.984993 0.0500219 -0.0843588 0.995179 
-0.0666454 0.0682326 0.995441 0.00175983 -0.017633 0.999843 0.0572069 0.0759894 0.995466 
-0.0552901 0.0372381 0.997776 -0.183194 -0.0515754 0.981723 -0.295694 -0.165549 0.940829 
-0.481473 -0.22869 0.8461 0.395491 -0.00574713 0.918452 0.0952389 0.00204086 0.995452 
-0.0590125 0.0183293 0.998089 -0.0405 0.0565706 0.997577 0.0273387 -0.0170796 0.99948 
0.0179513 -0.0189294 0.99966 0.042729 -0.00755753 0.999058 0.029222 -0.0884127 0.995655 
-0.104947 -0.158079 0.981834 -0.260457 -0.231112 0.937416 -0.393956 -0.338717 0.854441 
0.423467 -0.137557 0.895407 0.149439 -0.0352926 0.988141 0.0566219 0.00803578 0.998363 
0.00811507 0.113059 0.993555 -0.0276083 0.0872786 0.995801 -0.0402964 0.034259 0.9986 
-0.0696229 -0.115323 0.990885 -0.100169 -0.29215 0.951112 -0.216143 -0.426208 0.878424 
-0.355776 -0.537103 0.764816 0.492412 -0.269601 0.827554 0.254394 -0.178284 0.950525 
0.088505 -0.0764944 0.993134 0.0350038 0.000278788 0.999387 -0.0463072 -0.0168659 0.998785 
-0.182736 -0.165609 0.969114 -0.305184 -0.382443 0.872124 -0.310965 -0.643582 0.699358 
0.337047 -0.404901 0.849973 0.220698 -0.313451 0.923602 0.0588053 -0.332364 0.941316 
-0.188884 -0.380674 0.905213 -0.369864 -0.53128 0.762196 -0.0326623 -0.771742 0.635096 
0.148172 0.63702 0.756473 -0.0412448 0.690082 0.722555 -0.205886 0.713063 0.670188 
0.52031 0.629293 0.577294 0.259426 0.577199 0.774299 0.316208 0.533532 0.784447 
0.316473 0.602286 0.732868 -0.260612 0.692093 0.673118 -0.322827 0.635408 0.701455 
-0.356233 0.794303 0.492118 -0.396265 0.56219 0.725891 0.735151 0.422518 0.530125 
0.477563 0.349372 0.806147 0.478976 0.347686 0.806038 0.480203 0.349898 0.804348 
-0.397577 0.528584 0.750021 -0.34316 0.40781 0.846128 -0.464918 0.722144 0.51221 
0.544393 0.254029 0.799441 0.662565 0.278034 0.695489 -0.302908 0.383708 0.872362 
-0.245764 0.391632 0.886693 -0.34575 0.521579 0.780008 -0.512344 0.729425 0.453259 
0.563451 0.196472 0.802447 0.56658 0.189323 0.801962 0.590068 0.205109 0.780865 
-0.262709 0.374342 0.889299 -0.277354 0.367098 0.88787 -0.285362 0.392445 0.874389 
-0.55949 0.568362 0.603271 0.559472 0.169363 0.811361 0.732233 0.217882 0.645261 
-0.378025 0.267344 0.886355 -0.394461 0.242444 0.886353 -0.418497 0.286169 0.861956 
-0.776912 0.398977 0.487057 0.540714 0.135502 0.830222 0.6741 0.161586 0.720749 
-0.499934 0.143578 0.854079 -0.724973 0.134535 0.675511 0.552937 0.0917004 0.828162 
0.653037 0.0911162 0.751824 -0.510502 -0.122915 0.851046 -0.741533 -0.141205 0.655888 
0.580694 0.018798 0.813905 0.666949 0.00117671 0.745102 -0.487872 -0.23262 0.84135 
-0.487164 -0.242869 0.83886 -0.791022 -0.305414 0.5301 0.660334 -0.0701825 0.747685 
0.774728 -0.10139 0.624113 -0.462655 -0.387307 0.797461 -0.435032 -0.443477 0.78363 
-0.584671 -0.474453 0.658069 0.654791 -0.117601 0.746604 0.875201 -0.179746 0.449127 
-0.30545 -0.664624 0.681891 -0.395196 -0.562335 0.72636 -0.368598 -0.585621 0.72193 
-0.487616 -0.643428 0.590111 0.634265 -0.303517 0.711045 0.577955 -0.429375 0.693978 
-0.449282 -0.62304 0.640286 -0.321507 -0.68462 0.654162 -0.333713 -0.679467 0.653422 
-0.312874 -0.81135 0.493783 0.537576 -0.503065 0.676711 0.692335 -0.617025 0.374102 
0.39889 -0.661984 0.634558 0.147234 -0.761428 0.631308 -0.223293 -0.77739 0.588052 
-0.454505 -0.645041 0.614286 -0.402933 -0.675904 0.617089 -0.502548 -0.741202 0.445045 
0.056089 -0.785752 0.615993 0.153518 -0.819679 0.551868 -0.0914734 -0.792714 0.602691 
-0.0325837 -0.789433 0.612972 -0.229376 -0.878848 0.418346 0.525247 0.721838 0.450628 
0.273855 0.872709 0.404206 0.0382157 0.963964 0.263275 -0.124116 0.976117 0.178299 
-0.267116 0.949933 0.162101 -0.36785 0.917249 0.152779 0.586133 0.655573 0.476102 
0.7346 0.455358 0.503002 -0.424509 0.889425 0.169458 -0.452347 0.872576 0.184373 
-0.480612 0.837877 0.258794 0.751394 0.423042 0.506402 -0.478759 0.831056 0.283083 
-0.477926 0.815074 0.327476 -0.533809 0.772612 0.343684 0.764481 0.330434 0.553518 
0.898252 0.394652 0.193373 -0.552174 0.761107 0.340324 -0.616456 0.704328 0.352 
0.772955 0.280935 0.568873 0.774071 0.275007 0.57025 0.787351 0.288647 0.544758 
-0.671588 0.643462 0.367322 -0.796656 0.457175 0.395385 0.770361 0.235648 0.592464 
-0.827713 0.394071 0.399499 0.811243 0.176188 0.557533 -0.895088 0.125708 0.427803 
0.867129 0.0301146 0.497173 0.995523 -0.0544644 0.0772469 -0.882897 -0.129004 0.451499 
0.919627 -0.0994375 0.379998 -0.844165 -0.304839 0.440975 -0.800579 -0.39725 0.448628 
0.933312 -0.164408 0.319216 -0.705153 -0.539871 0.459673 -0.623666 -0.628514 0.46477 
0.946287 -0.248051 0.207391 0.909257 -0.408959 0.0774922 -0.338602 -0.858063 0.386105 
-0.571177 -0.67876 0.461564 -0.490155 -0.742338 0.456818 -0.677917 -0.722991 0.13309 
0.901236 -0.428407 0.0651287 -0.416934 -0.869794 0.263863 -0.33368 -0.8626 0.380235 
-0.298741 -0.900402 0.316276 -0.337079 -0.870849 0.35777 0.76356 -0.641493 0.0739141 
0.689812 -0.721305 0.0622867 0.622093 -0.680568 -0.387075 0.443549 -0.896092 -0.0168369 
-0.450623 -0.885766 0.111162 -0.481834 -0.851024 0.208793 -0.523275 -0.834902 0.170653 
0.443376 -0.896178 -0.0168019 0.201601 -0.978122 0.05132 -0.0705003 -0.995947 0.055859 
-0.413173 -0.904534 0.105386 -0.222977 -0.97054 0.0912901 0.482853 0.875667 -0.00780115 
0.188623 0.980416 -0.056616 -0.0745437 0.984759 -0.15714 -0.1897 0.951889 -0.240668 
-0.292061 0.914996 -0.278357 -0.359834 0.885234 -0.294755 0.697938 0.712969 0.0675116 
0.757195 0.646853 0.090761 -0.262071 0.676975 -0.687767 -0.37997 0.882799 -0.276206 
-0.337457 0.833416 -0.437654 -0.398149 0.880159 -0.258451 -0.418093 0.878101 -0.232676 
0.842938 0.519845 0.138622 0.899283 0.399616 0.177756 -0.431936 0.879817 -0.198375 
-0.378801 0.798904 -0.467186 -0.446303 0.876311 -0.181363 -0.533704 0.832937 -0.146204 
0.901085 0.395303 0.178271 -0.572292 0.810013 -0.127908 -0.474534 0.758902 -0.445964 
-0.636246 0.762704 -0.116077 0.916852 0.359719 0.173161 -0.726538 0.673322 -0.137045 
-0.815111 0.557443 -0.157641 0.94674 0.260464 0.189319 -0.879999 0.445959 -0.163468 
-0.765124 0.455832 -0.454755 0.985206 0.109713 0.131654 0.993687 0.0488793 0.100983 
-0.978274 0.166875 -0.123016 0.997194 -0.0593979 0.0455648 0.995688 -0.0814728 0.0443553 
0.997915 -0.0640877 -0.0076336 -0.983927 -0.133365 -0.118753 0.976234 -0.216222 0.0146429 
-0.943145 -0.323462 -0.0764836 -0.846705 -0.526388 -0.0775032 -0.73684 -0.291705 -0.609897 
0.942591 -0.304209 -0.137763 -0.840108 -0.537062 -0.076049 0.884407 -0.387763 -0.259738 
0.851371 -0.427236 -0.304364 0.813259 -0.403088 -0.419678 -0.484755 -0.873166 0.0509345 
-0.694274 -0.719711 -0.000682962 -0.67824 -0.734832 0.00344366 -0.692509 -0.705189 -0.152118 
0.795708 -0.475531 -0.375126 0.61285 -0.672017 -0.415702 0.563504 -0.451739 -0.691661 
-0.34742 -0.936411 -0.0493264 -0.260922 -0.965334 0.00707841 -0.415222 -0.908774 0.0414876 
-0.324256 -0.94565 0.024589 0.606214 -0.677468 -0.416583 0.446746 -0.790799 -0.418395 
0.387854 -0.593987 -0.704804 -0.383483 -0.889301 -0.249166 -0.393479 -0.914419 -0.0949357 
-0.445152 -0.8826 -0.151187 -0.348353 -0.815813 -0.461627 0.303889 -0.85511 -0.420045 
0.228387 -0.875733 -0.425361 0.231915 -0.842834 -0.485641 -0.00641719 -0.935276 -0.353861 
0.0292911 -0.874492 -0.484155 -0.270774 -0.92438 -0.268706 -0.192823 -0.942152 -0.274169 
-0.175006 -0.918226 -0.355293 0.378853 0.794 -0.475431 0.0924385 0.778751 -0.620486 
-0.132149 0.738354 -0.66134 -0.209565 0.698799 -0.683931 0.515255 0.732249 -0.445336 
0.640202 0.640287 -0.424469 0.315062 0.686003 -0.655848 -0.0063816 0.586305 -0.810065 
-0.108232 0.570911 -0.813847 -0.246512 0.653611 -0.715559 -0.202667 0.6134 -0.763326 
-0.252285 0.635361 -0.729842 -0.255774 0.625914 -0.736758 -0.284698 0.620319 -0.730857 
0.725165 0.560837 -0.399497 0.870669 0.404398 -0.279997 0.569161 0.506069 -0.648036 
0.283032 0.242374 -0.927981 -0.157343 0.256426 -0.953671 -0.165824 0.275123 -0.947 
-0.165952 0.357933 -0.918882 -0.200016 0.464804 -0.862526 -0.290051 0.622931 -0.726517 
-0.272252 0.589004 -0.760889 -0.29135 0.599008 -0.745858 -0.281775 0.59607 -0.751867 
0.874374 0.397568 -0.278227 0.867613 0.394888 -0.302177 0.333599 0.212918 -0.918356 
-0.146843 0.0284891 -0.988749 -0.105422 0.0802258 -0.991186 -0.0807829 0.158552 -0.98404 
-0.105301 0.176199 -0.978706 -0.145283 0.261222 -0.954283 -0.20737 0.391877 -0.896343 
-0.31405 0.606261 -0.730631 -0.259174 0.549827 -0.794052 -0.359588 0.591828 -0.721412 
-0.527899 0.487891 -0.695187 0.864003 0.32693 -0.382904 0.690237 0.240073 -0.682596 
0.308633 0.0554512 -0.949563 -0.0852996 -0.109532 -0.990317 -0.0365647 0.012433 -0.999254 
-0.0625713 0.105868 -0.99241 -0.0851554 0.0164215 -0.996232 -0.0466419 0.0691647 -0.996514 
-0.0445512 0.165647 -0.985178 -0.153581 0.294613 -0.943194 -0.271243 0.372587 -0.887472 
-0.529717 0.486541 -0.69475 -0.525561 0.485374 -0.698712 0.89057 0.232418 -0.390983 
0.506737 0.160997 -0.846934 0.154521 0.0548113 -0.986468 -0.123095 -0.100207 -0.987323 
0.00222684 -0.110071 -0.993921 0.119742 0.177339 -0.976838 -0.0787391 -0.0059328 -0.996878 
-0.140268 0.0208702 -0.989894 0.00411523 -0.036634 -0.99932 0.0212749 0.0338724 -0.9992 
-0.0490755 0.0957134 -0.994198 -0.167454 0.218003 -0.961475 -0.559727 0.363186 -0.74485 
-0.414602 0.270797 -0.868778 -0.646531 0.276357 -0.711073 0.922642 0.0325205 -0.384284 
0.427307 0.0130093 -0.904013 -0.147732 0.00596175 -0.989009 0.172074 0.1068 -0.979277 
-0.221892 -0.120265 -0.967626 -0.10776 0.0509503 -0.992871 -0.0293913 -0.104972 -0.994041 
0.0922373 -0.0234162 -0.995462 0.039999 0.037151 -0.998509 -0.123334 0.0923704 -0.988057 
-0.309092 0.0927838 -0.946495 -0.697277 0.178619 -0.69419 -0.612131 0.179117 -0.770203 
0.86963 -0.118083 -0.479375 0.474286 -0.165848 -0.864608 0.158716 -0.0797519 -0.984098 
-0.0350168 0.0731054 -0.996709 0.0593929 0.0911069 -0.994068 -0.0925746 0.116354 -0.988884 
-0.166908 -0.108187 -0.980019 -0.0174828 -0.0166947 -0.999708 0.157833 0.0113813 -0.9874 
0.0656964 0.00759966 -0.997811 -0.123951 -0.0091493 -0.992246 -0.321317 -0.0243862 -0.946658 
-0.721261 -0.0863878 -0.687256 -0.706233 -0.250887 -0.662036 -0.64394 -0.081202 -0.760754 
0.768986 -0.302523 -0.563152 0.553567 -0.284755 -0.78261 0.248472 -0.140047 -0.958462 
-0.0553611 0.0385939 -0.99772 -0.0760254 -0.0263462 -0.996758 0.063022 -0.0606116 -0.99617 
-0.229881 -0.0512994 -0.971866 0.0789646 0.134598 -0.987749 0.114594 0.0537714 -0.991956 
0.0199265 -0.00725382 -0.999775 -0.151879 -0.0657369 -0.986211 -0.695179 -0.278716 -0.662603 
-0.366527 -0.0929704 -0.925751 0.679238 -0.330434 -0.655324 0.671237 -0.335537 -0.660951 
0.654708 -0.319323 -0.68512 0.358542 -0.244845 -0.900832 0.129259 -0.144778 -0.980985 
-0.0107961 -0.0456901 -0.998897 -0.0542509 0.0188404 -0.99835 -0.0478006 0.0421373 -0.997968 
-0.0959843 -0.0466529 -0.994289 -0.0322588 0.07402 -0.996735 0.0646149 0.103782 -0.992499 
0.0230446 -0.0102224 -0.999682 -0.0521812 -0.0412994 -0.997783 -0.185517 -0.189065 -0.964281 
-0.656413 -0.404109 -0.637038 -0.629933 -0.514153 -0.582092 -0.541347 -0.320297 -0.777402 
0.597599 -0.379772 -0.706151 0.513871 -0.410782 -0.753123 0.441021 -0.342188 -0.829704 
0.24969 -0.249313 -0.935681 0.108973 -0.135769 -0.984729 0.0133867 -0.0658347 -0.997741 
-0.00318656 0.00216485 -0.999993 -0.084707 -0.011276 -0.996342 -0.0630509 -0.0418566 -0.997132 
-0.0115385 -0.101104 -0.994809 -0.034641 -0.20333 -0.978497 -0.166487 -0.338206 -0.926228 
-0.587774 -0.571449 -0.572685 -0.466848 -0.699916 -0.540528 -0.419488 -0.455276 -0.785337 
0.4886 -0.416859 -0.766485 0.375538 -0.539479 -0.753614 0.3424 -0.350775 -0.871619 
0.177489 -0.317925 -0.931355 0.0889321 -0.23511 -0.967892 0.00568247 -0.19764 -0.980258 
-0.137382 -0.257486 -0.956466 -0.307354 -0.759328 -0.573546 -0.132238 -0.344824 -0.929306 
-0.242281 -0.793228 -0.55865 -0.125352 -0.540458 -0.831981 -0.232041 -0.821892 -0.520241 
-0.219729 -0.685965 -0.693665 -0.294582 -0.802584 -0.51873 -0.287162 -0.803965 -0.520748 
-0.285229 -0.798051 -0.53081 0.327791 -0.567962 -0.754965 0.22477 -0.594911 -0.771725 
0.223457 -0.540085 -0.811403 0.103153 -0.680048 -0.725875 0.136534 -0.503353 -0.853226 
-0.0983053 -0.740312 -0.665037 -0.0478403 -0.531332 -0.845812 -0.306134 -0.764874 -0.566789 
-0.273438 -0.737275 -0.617784 -0.236074 -0.635779 -0.734884 -0.0179101 0.326374 -0.945071 
0.0822572 0.277219 -0.957279 0.174274 0.153122 -0.972719 -0.057922 0.286806 -0.956236 
-0.0137855 0.299062 -0.954134 0.172696 0.146217 -0.974062 0.150365 0.137536 -0.979017 
-0.137298 0.0260125 -0.990188 -0.0227143 0.00859078 -0.999705 0.223736 0.0337553 -0.974065 
0.0693523 -0.00894303 -0.997552 -0.103994 -0.124553 -0.986748 -0.12004 -0.124525 -0.984928 
-0.119314 -0.136808 -0.983386 0.021093 -0.0373929 -0.999078 0.129281 0.0309593 -0.991125 
-0.0502766 -0.0833002 -0.995255 -0.0418066 -0.0814838 -0.995797 0.110264 0.157492 -0.981345 
0.134249 0.0112615 -0.990884 0.150112 -0.0636881 -0.986616 0.10891 0.0115201 -0.993985 
-0.0886664 0.0133132 -0.995972 -0.0847856 0.0138854 -0.996302 0.141991 0.093808 -0.985413 
-0.122503 -0.038669 -0.991715 0.0613247 0.0514319 -0.996792 0.137429 -0.0722305 -0.987874 
-0.0428258 0.0176453 -0.998927 -0.0470098 -0.00467527 -0.998883 -0.0251702 -0.082895 -0.99624 
-0.0917751 -0.195189 -0.976462 -0.0766431 -0.203945 -0.975978 -0.0923956 -0.21796 -0.971574 
-0.101393 0.0185565 -0.994673 0.0655762 -0.0504971 -0.996569 0.044731 -0.0354631 -0.998369 
0.06527 -0.0516171 -0.996532 0.0640358 -0.0497902 -0.996705 -0.0787929 -0.00511392 -0.996878 
-0.114958 -0.00150287 -0.993369 -0.10393 -0.000915737 -0.994584 -0.102616 0.00534797 -0.994707 

