# vtk DataFile Version 4.2
vtk output
ASCII
DATASET POLYDATA
POINTS 532 float
-15.0788 -41.5142 -16.0154 -7.0383 -41.5142 -18.2079 1.00221 -41.5142 -19.3131 
9.04273 -41.5142 -18.6791 17.0832 -41.5142 -17.2923 -23.1193 -33.4737 -17.5591 
-15.0788 -33.4737 -19.8935 -7.0383 -33.4737 -20.612 1.00221 -33.4737 -21.0865 
9.04273 -33.4737 -20.45 17.0832 -33.4737 -19.6671 25.1238 -33.4737 -17.845 
33.1643 -33.4737 -15.3067 -39.2004 -25.4332 -16.8461 -31.1598 -25.4332 -18.3854 
-23.1193 -25.4332 -19.6161 -15.0788 -25.4332 -20.3291 -7.0383 -25.4332 -20.833 
1.00221 -25.4332 -20.9347 9.04273 -25.4332 -20.4619 17.0832 -25.4332 -19.8104 
25.1238 -25.4332 -18.2655 33.1643 -25.4332 -15.9619 -47.2409 -17.3927 -16.9036 
-39.2004 -17.3927 -19.3618 -31.1598 -17.3927 -19.8471 -23.1193 -17.3927 -20.0467 
-15.0788 -17.3927 -19.6162 -7.0383 -17.3927 -20.1767 1.00221 -17.3927 -19.6821 
9.04273 -17.3927 -19.8469 17.0832 -17.3927 -18.5845 25.1238 -17.3927 -16.8498 
33.1643 -17.3927 -16.126 -55.2814 -9.35215 -15.2561 -47.2409 -9.35215 -19.4344 
-39.2004 -9.35215 -20.1671 -31.1598 -9.35215 -19.7157 -23.1193 -9.35215 -18.6387 
-15.0788 -9.35215 -18.4592 -7.0383 -9.35215 -21.882 1.00221 -9.35215 -20.1832 
9.04273 -9.35215 -20.3557 17.0832 -9.35215 -16.1704 25.1238 -9.35215 -15.2645 
33.1643 -9.35215 -15.162 -55.2814 -1.31164 -16.8821 -47.2409 -1.31164 -20.4084 
-39.2004 -1.31164 -20.4941 -31.1598 -1.31164 -19.5502 -23.1193 -1.31164 -17.9533 
-15.0788 -1.31164 -16.6797 -7.0383 -1.31164 -21.3822 1.00221 -1.31164 -15.6664 
9.04273 -1.31164 -19.9035 17.0832 -1.31164 -15.98 25.1238 -1.31164 -14.86 
33.1643 -1.31164 -15.0966 41.2048 -1.31164 -14.5471 -55.2814 6.72888 -16.0176 
-47.2409 6.72888 -19.4496 -39.2004 6.72888 -19.959 -31.1598 6.72888 -19.5855 
-23.1193 6.72888 -18.4038 -15.0788 6.72888 -17.3262 -7.0383 6.72888 -19.346 
1.00221 6.72888 -17.9344 9.04273 6.72888 -20.0605 17.0832 6.72888 -16.2794 
25.1238 6.72888 -15.0549 33.1643 6.72888 -15.0102 -47.2409 14.7694 -17.1871 
-39.2004 14.7694 -18.7556 -31.1598 14.7694 -19.4687 -23.1193 14.7694 -18.8394 
-15.0788 14.7694 -17.7962 -7.0383 14.7694 -16.0102 1.00221 14.7694 -18.0572 
9.04273 14.7694 -18.5363 17.0832 14.7694 -15.3638 25.1238 14.7694 -14.6447 
33.1643 14.7694 -14.4811 -39.2004 22.8099 -16.5799 -31.1598 22.8099 -18.0316 
-23.1193 22.8099 -17.6078 -15.0788 22.8099 -16.4982 -7.0383 22.8099 -14.7673 
1.00221 22.8099 -16.0216 9.04273 22.8099 -17.364 17.0832 22.8099 -15.717 
25.1238 22.8099 -14.6205 -23.1193 30.8504 -14.5755 9.04273 30.8504 -15.9345 
17.0832 30.8504 -14.9222 -15.0788 -43.1462 -14.4567 -7.0383 -46.2749 -14.4567 
1.00221 -47.4239 -14.4567 1.00221 -49.5547 -7.37202 9.04273 -47.0111 -14.4567 
9.04273 -49.5547 -6.505 17.0832 -44.4726 -14.4567 -18.5252 -41.5142 -14.4567 
-23.1193 -38.5583 -14.4567 -23.1193 -41.5142 -8.65642 24.9725 -41.5142 -14.4567 
25.1238 -41.4254 -14.4567 25.1238 -41.5142 -14.3687 33.1643 -34.8678 -14.4567 
-39.2004 -28.6119 -14.4567 -31.1573 -33.4737 -14.4567 -31.1598 -33.4717 -14.4567 
-31.1598 -33.4737 -14.4548 34.5176 -33.4737 -14.4567 41.2048 -33.4737 -7.85573 
-43.555 -25.4332 -14.4567 -47.2409 -21.8988 -14.4567 -47.2409 -25.4332 -10.1471 
38.2495 -25.4332 -14.4567 41.2048 -25.4332 -13.4704 -51.0146 -17.3927 -14.4567 
-55.2814 -11.2239 -14.4567 -55.2814 -17.3927 -8.6422 39.0351 -17.3927 -14.4567 
41.2048 -17.3927 -13.8142 49.2453 -17.3927 -10.888 -56.3676 -9.35215 -14.4567 
40.928 -9.35215 -14.4567 41.2048 -7.58183 -14.4567 41.2048 -9.35215 -14.4312 
49.2453 -9.35215 -12.1925 57.2858 -9.35215 -7.52221 -59.3563 -1.31164 -14.4567 
41.6344 -1.31164 -14.4567 41.2048 2.09973 -14.4567 49.2453 -1.31164 -12.7315 
57.2858 -1.31164 -8.62571 -57.7643 6.72888 -14.4567 -55.2814 11.4963 -14.4567 
39.7622 6.72888 -14.4567 41.2048 6.72888 -14.3342 49.2453 6.72888 -12.466 
57.2858 6.72888 -8.44381 -52.8912 14.7694 -14.4567 -55.2814 14.7694 -12.8776 
-47.2409 21.4992 -14.4567 33.5203 14.7694 -14.4567 33.1643 14.8868 -14.4567 
41.2048 14.7694 -13.8831 49.2453 14.7694 -11.1516 -55.2814 22.8099 -6.8814 
-45.5886 22.8099 -14.4567 -47.2409 22.8099 -13.7509 -39.2004 26.4545 -14.4567 
-31.1598 29.8285 -14.4567 -15.0788 30.1724 -14.4567 -7.0383 24.4911 -14.4567 
1.00221 30.0348 -14.4567 25.9122 22.8099 -14.4567 25.1238 23.523 -14.4567 
33.1643 22.8099 -12.8943 41.2048 22.8099 -11.7958 49.2453 22.8099 -8.21435 
-39.2004 30.8504 -10.8409 -24.3628 30.8504 -14.4567 -31.1598 30.8504 -13.7484 
-20.2963 30.8504 -14.4567 -23.1193 31.0268 -14.4567 -15.0788 30.8504 -14.2434 
-7.0383 30.8504 -13.2542 1.83692 30.8504 -14.4567 1.00221 30.8504 -14.2885 
9.04273 34.1524 -14.4567 18.7382 30.8504 -14.4567 17.0832 32.4447 -14.4567 
25.1238 30.8504 -12.579 33.1643 30.8504 -11.151 41.2048 30.8504 -7.91255 
-23.1193 38.8909 -6.97476 -15.0788 38.8909 -8.57343 -7.0383 38.8909 -9.15128 
1.00221 38.8909 -10.6266 9.04273 38.8909 -11.8698 17.0832 38.8909 -11.8826 
25.1238 38.8909 -8.92983 1.00221 -49.7808 -6.41619 9.04273 -49.5757 -6.41619 
-23.1193 -42.2475 -6.41619 -15.0788 -45.8598 -6.41619 -0.469452 -49.5547 -6.41619 
-7.0383 -48.5219 -6.41619 1.00221 -49.5547 -5.81854 9.19315 -49.5547 -6.41619 
9.04273 -49.5547 -6.35573 17.0832 -48.39 -6.41619 25.1238 -45.5513 -6.41619 
-24.59 -41.5142 -6.41619 -31.1598 -38.082 -6.41619 -23.1193 -41.5142 -1.89739 
32.6611 -41.5142 -6.41619 33.1643 -41.1994 -6.41619 41.2048 -34.7213 -6.41619 
-47.2409 -27.4565 -6.41619 -38.9013 -33.4737 -6.41619 -39.2004 -33.282 -6.41619 
42.6521 -33.4737 -6.41619 -49.328 -25.4332 -6.41619 -55.2814 -18.8613 -6.41619 
-47.2409 -25.4332 -0.879723 49.04 -25.4332 -6.41619 49.2453 -25.1475 -6.41619 
49.2453 -25.4332 -5.40653 -56.385 -17.3927 -6.41619 -55.2814 -17.3927 -3.14685 
55.5068 -17.3927 -6.41619 57.2858 -12.4162 -6.41619 57.2858 -17.3927 -0.804996 
-60.6436 -9.35215 -6.41619 58.2737 -9.35215 -6.41619 -63.0942 -1.31164 -6.41619 
59.5034 -1.31164 -6.41619 -63.2449 6.72888 -6.41619 59.5138 6.72888 -6.41619 
57.2858 12.7616 -6.41619 -60.7802 14.7694 -6.41619 56.5393 14.7694 -6.41619 
57.2858 14.7694 -5.6876 -55.6151 22.8099 -6.41619 -55.2814 23.1762 -6.41619 
-47.2409 29.9946 -6.41619 52.3243 22.8099 -6.41619 49.2453 27.2237 -6.41619 
57.2858 22.8099 -1.03343 -45.8078 30.8504 -6.41619 -47.2409 30.8504 -3.20222 
-39.2004 34.2575 -6.41619 -31.1598 37.4024 -6.41619 33.1643 37.6655 -6.41619 
45.1008 30.8504 -6.41619 41.2048 32.8508 -6.41619 49.2453 30.8504 -3.52413 
-24.7733 38.8909 -6.41619 -31.1598 38.8909 0.547765 -23.1193 39.2572 -6.41619 
-15.0788 40.5925 -6.41619 -7.0383 41.358 -6.41619 1.00221 42.5604 -6.41619 
9.04273 43.6943 -6.41619 17.0832 43.4626 -6.41619 30.7625 38.8909 -6.41619 
25.1238 41.4265 -6.41619 33.1643 38.8909 -4.74907 -15.0788 -44.0135 1.62433 
-7.0383 -45.7225 1.62433 1.00221 -46.4428 1.62433 9.04273 -46.4375 1.62433 
17.0832 -45.4595 1.62433 25.1238 -43.5466 1.62433 -31.1598 -36.8343 1.62433 
-21.5479 -41.5142 1.62433 -23.1193 -40.9262 1.62433 -15.0788 -41.5142 5.78342 
-7.0383 -41.5142 7.6853 1.00221 -41.5142 7.71593 9.04273 -41.5142 7.67051 
17.0832 -41.5142 6.72152 28.542 -41.5142 1.62433 25.1238 -41.5142 3.77528 
33.1643 -39.0981 1.62433 41.2048 -33.6093 1.62433 -36.2831 -33.4737 1.62433 
-39.2004 -31.3721 1.62433 -31.1598 -33.4737 8.40056 33.1643 -33.4737 8.01296 
41.345 -33.4737 1.62433 41.2048 -33.4737 1.78481 49.2453 -26.7765 1.62433 
-46.2581 -25.4332 1.62433 -47.2409 -24.5269 1.62433 50.6339 -25.4332 1.62433 
49.2453 -25.4332 3.65202 57.2858 -18.1244 1.62433 -53.6157 -17.3927 1.62433 
-55.2814 -15.1682 1.62433 57.8408 -17.3927 1.62433 57.2858 -17.3927 2.78461 
-59.0464 -9.35215 1.62433 -55.2814 -9.35215 7.41603 61.7466 -9.35215 1.62433 
-61.5671 -1.31164 1.62433 63.7399 -1.31164 1.62433 -62.2734 6.72888 1.62433 
64.2921 6.72888 1.62433 -60.9136 14.7694 1.62433 62.265 14.7694 1.62433 
-57.0729 22.8099 1.62433 -55.2814 24.8717 1.62433 -55.2814 22.8099 5.12732 
58.5425 22.8099 1.62433 57.2858 24.6531 1.62433 57.2858 22.8099 7.48498 
-48.5381 30.8504 1.62433 -47.2409 31.8281 1.62433 -47.2409 30.8504 4.32533 
-39.2004 36.045 1.62433 41.2048 38.2659 1.62433 52.0876 30.8504 1.62433 
49.2453 33.2745 1.62433 -31.744 38.8909 1.62433 -31.1598 39.0997 1.62433 
-31.1598 38.8909 2.43081 -23.1193 41.2111 1.62433 -15.0788 42.7115 1.62433 
-7.0383 44.1896 1.62433 1.00221 45.0335 1.62433 9.04273 45.3611 1.62433 
17.0832 45.1266 1.62433 25.1238 44.1835 1.62433 40.1136 38.8909 1.62433 
33.1643 41.9623 1.62433 -23.1193 -36.497 9.66484 -15.0788 -38.862 9.66484 
-7.0383 -39.5963 9.66484 1.00221 -39.0935 9.66484 9.04273 -38.9309 9.66484 
17.0832 -37.929 9.66484 25.1238 -35.3351 9.66484 -39.2004 -26.0303 9.66484 
-29.6251 -33.4737 9.66484 -31.1598 -32.6087 9.66484 -23.1193 -33.4737 12.8122 
-15.0788 -33.4737 14.3996 -7.0383 -33.4737 14.1584 1.00221 -33.4737 13.2589 
9.04273 -33.4737 13.141 17.0832 -33.4737 12.511 29.1707 -33.4737 9.66484 
25.1238 -33.4737 10.9359 33.1643 -31.2831 9.66484 41.2048 -26.3827 9.66484 
-39.8652 -25.4332 9.66484 -47.2409 -18.0491 9.66484 -39.2004 -25.4332 10.2842 
-31.1598 -25.4332 15.7162 -7.0383 -25.4332 17.2761 1.00221 -25.4332 16.1907 
9.04273 -25.4332 16.1065 17.0832 -25.4332 16.0928 25.1238 -25.4332 14.8207 
33.1643 -25.4332 12.9481 42.5232 -25.4332 9.66484 41.2048 -25.4332 10.3652 
49.2453 -20.2037 9.66484 -47.7996 -17.3927 9.66484 -47.2409 -17.3927 10.2012 
-39.2004 -17.3927 16.0276 25.1238 -17.3927 17.5171 33.1643 -17.3927 16.4388 
41.2048 -17.3927 14.6149 52.1333 -17.3927 9.66484 49.2453 -17.3927 11.673 
57.2858 -10.6623 9.66484 -53.0536 -9.35215 9.66484 -55.2814 -4.68248 9.66484 
-47.2409 -9.35215 14.2857 49.2453 -9.35215 15.2264 58.0276 -9.35215 9.66484 
57.2858 -9.35215 10.4017 -56.5342 -1.31164 9.66484 -55.2814 -1.31164 10.8739 
-47.2409 -1.31164 16.1481 49.2453 -1.31164 17.4406 61.0938 -1.31164 9.66484 
57.2858 -1.31164 13.6309 -57.641 6.72888 9.66484 -55.2814 6.72888 12.0102 
-47.2409 6.72888 16.5877 62.5321 6.72888 9.66484 57.2858 6.72888 15.1845 
-56.7815 14.7694 9.66484 -55.2814 17.6754 9.66484 -55.2814 14.7694 11.1058 
[...]
POINT_DATA 532
SCALARS ImageScalars float
LOOKUP_TABLE default
0 0 0 0 0 0 0 0 0 
0 0 0 0 0 0 0 0 0 
0 0 0 0 0 0 0 0 0 
0 0 0 0 0 0 0 0 0 
0 0 0 0 0 0 0 0 0 
0 0 0 0 0 0 0 0 0 
0 0 0 0 0 0 0 0 0 
0 0 0 0 0 0 0 0 0 
0 0 0 0 0 0 0 0 0 
0 0 0 0 0 0 0 0 0 
0 0 0 0 0 0 0 0 0 
0 0 0 0 0 0 0 0 0 
0 0 0 0 0 0 0 0 0 
0 0 0 0 0 0 0 0 0 
0 0 0 0 0 0 0 0 0 
0 0 0 0 0 0 0 0 0 
0 0 0 0 0 0 0 0 0 
0 0 0 0 0 0 0 0 0 
0 0 0 0 0 0 0 0 0 
0 0 0 0 0 0 0 0 0 
0 0 0 0 0 0 0 0 0 
0 0 0 0 0 0 0 0 0 
0 0 0 0 0 0 0 0 0 
0 0 0 0 0 0 0 0 0 
0 0 0 0 0 0 0 0 0 
0 0 0 0 0 0 0 0 0 
0 0 0 0 0 0 0 0 0 
0 0 0 0 0 0 0 0 0 
0 0 0 0 0 0 0 0 0 
0 0 0 0 0 0 0 0 0 
0 0 0 0 0 0 0 0 0 
0 0 0 0 0 0 0 0 0 
0 0 0 0 0 0 0 0 0 
0 0 0 0 0 0 0 0 0 
0 0 0 0 0 0 0 0 0 
0 0 0 0 0 0 0 0 0 
0 0 0 0 0 0 0 0 0 
0 0 0 0 0 0 0 0 0 
0 0 0 0 0 0 0 0 0 
0 0 0 0 0 0 0 0 0 
0 0 0 0 0 0 0 0 0 
0 0 0 0 0 0 0 0 0 
0 0 0 0 0 0 0 0 0 
0 0 0 0 0 0 0 0 0 
0 0 0 0 0 0 0 0 0 
0 0 0 0 0 0 0 0 0 
0 0 0 0 0 0 0 0 0 
0 0 0 0 0 0 0 0 0 
0 0 0 0 0 0 0 0 0 
0 0 0 0 0 0 0 0 0 
0 0 0 0 0 0 0 0 0 
0 0 0 0 0 0 0 0 0 
0 0 0 0 0 0 0 0 0 
0 0 0 0 0 0 0 0 0 
0 0 0 0 0 0 0 0 0 
0 0 0 0 0 0 0 0 0 
0 0 0 0 0 0 0 0 0 
0 0 0 0 0 0 0 0 0 
0 0 0 0 0 0 0 0 0 
0 
NORMALS Normals float
0.324876 0.63832 0.697856 0.197167 0.490258 0.848983 0.0254589 0.442698 0.896309 
-0.108982 0.440819 0.890956 -0.260791 0.529304 0.807357 0.279279 0.400351 0.872767 
0.184775 0.231058 0.955233 0.0686214 0.147434 0.986689 -0.0105383 0.0966131 0.995266 
-0.0847422 0.106544 0.99069 -0.167544 0.116791 0.978922 -0.260534 0.205455 0.94335 
-0.465423 0.321107 0.824786 0.328361 0.499668 0.801568 0.163955 0.28177 0.94537 
0.113681 0.142069 0.983307 0.0776429 -0.0201887 0.996777 0.0389149 -0.0274023 0.998867 
-0.0230053 -0.0871258 0.995932 -0.0692567 -0.0371562 0.996907 -0.133947 -0.0667888 0.988735 
-0.226734 -0.0596116 0.972131 -0.296095 0.0536995 0.953648 0.42469 0.374728 0.824146 
0.156659 0.168416 0.973188 0.0437946 0.0731583 0.996358 -0.0133234 -0.0580984 0.998222 
0.00834124 -0.115021 0.993328 0.00398847 0.0546369 0.998498 -0.0205705 -0.0473141 0.998668 
-0.0662587 -0.00766403 0.997773 -0.184042 -0.206856 0.960905 -0.153239 -0.182655 0.971162 
-0.179647 -0.0497619 0.982472 0.571733 0.287337 0.768479 0.292142 0.197671 0.935724 
0.0124398 0.0768809 0.996963 -0.0927311 -0.0191239 0.995508 -0.0774145 -0.129394 0.988567 
0.193603 -0.167536 0.966669 0.10152 0.0847734 0.991215 -0.0877426 -0.167853 0.9819 
-0.222001 0.0060251 0.975028 -0.317492 -0.160494 0.93458 -0.0560416 -0.122648 0.990867 
-0.0510162 -0.0665512 0.996478 0.475553 0.039936 0.87878 0.220347 0.000115938 0.975422 
-0.0547029 -0.0132091 0.998415 -0.154676 -0.00801156 0.987933 -0.158922 -0.0138159 0.987194 
0.20008 -0.0772815 0.976727 -0.023213 -0.167968 0.985519 -0.0834623 -0.192737 0.977695 
0.0164767 -0.020907 0.999646 -0.344346 0.00533241 0.938828 -0.0331324 -0.012659 0.999371 
-0.0189745 -0.00943946 0.999775 -0.138077 -0.00597938 0.990403 0.481725 -0.185982 0.856359 
0.250844 -0.188706 0.949457 0.00519838 -0.106419 0.994308 -0.0958553 -0.00548103 0.99538 
-0.134131 0.0532466 0.989532 0.0578963 0.0617369 0.996412 0.0387405 -0.308374 0.950476 
0.0519488 0.123146 0.991028 -0.0737197 -0.0808341 0.993998 -0.331288 -0.0457128 0.942422 
-0.0633056 -0.0130772 0.997909 -0.0442387 -0.0375345 0.998316 0.282888 -0.306486 0.908868 
0.132964 -0.189359 0.972864 0.00582618 -0.0966992 0.995297 -0.103841 -0.0489961 0.993386 
-0.17033 -0.0516359 0.984033 0.00226537 -0.280385 0.959885 0.163131 -0.120868 0.979173 
-0.175788 -0.177247 0.96834 -0.225934 -0.024018 0.973846 -0.0535977 -0.0273744 0.998187 
-0.0442517 -0.136108 0.989705 0.241854 -0.38807 0.88933 0.0514993 -0.310616 0.949139 
-0.0936011 -0.228666 0.968995 -0.174664 -0.215848 0.960678 -0.0318984 -0.164257 0.985902 
0.164961 -0.203055 0.965172 -0.0232565 -0.149377 0.988507 -0.181088 -0.0290233 0.983039 
-0.171472 -0.119339 0.977934 0.0217852 -0.486229 0.87356 0.0238509 -0.289764 0.956801 
-0.199452 -0.192964 0.960721 0.358088 0.71756 0.597395 0.235294 0.783837 0.574661 
0.034128 0.838005 0.544594 0.0623728 0.997995 -0.0107668 -0.143627 0.793682 0.591135 
-0.0848613 0.99509 -0.0509369 -0.286798 0.693132 0.661298 0.387598 0.704509 0.594503 
0.398912 0.654617 0.642141 0.448026 0.871213 0.20065 -0.395197 0.614894 0.68244 
-0.395764 0.611384 0.685259 -0.398251 0.619422 0.676544 -0.488725 0.388559 0.781133 
0.394274 0.626998 0.671879 0.403947 0.626377 0.666693 0.403931 0.62636 0.666718 
0.40401 0.626502 0.666537 -0.496969 0.351468 0.793405 -0.654692 0.661657 0.365498 
0.445295 0.584349 0.678416 0.50877 0.500618 0.700382 0.620712 0.710125 0.332324 
-0.315602 0.164152 0.934585 -0.369181 0.254531 0.893823 0.591518 0.416683 0.690277 
0.609786 0.340723 0.71559 0.808116 0.555362 0.196271 -0.26875 0.0232223 0.96293 
-0.307478 0.0545252 0.949992 -0.515886 0.236712 0.823303 0.61554 0.316036 0.721964 
-0.164581 0.0416074 0.985486 -0.162039 0.0342532 0.98619 -0.168769 0.0454972 0.984605 
-0.34906 0.112243 0.930354 -0.721349 0.199404 0.663245 0.677979 0.0684067 0.731892 
-0.145385 -0.00508612 0.989362 -0.142891 -0.0194445 0.989547 -0.302334 0.0152543 0.95308 
-0.636438 0.0387703 0.770353 0.588041 -0.205411 0.782313 0.513538 -0.317275 0.797255 
-0.130129 -0.0377854 0.990777 -0.149284 -0.0383018 0.988052 -0.3036 -0.0997338 0.947565 
-0.609234 -0.13964 0.780599 0.464293 -0.36765 0.80577 0.584913 -0.413142 0.69799 
0.373321 -0.456524 0.8076 -0.0513462 -0.137386 0.989186 -0.0461621 -0.137054 0.989487 
-0.202673 -0.160645 0.96598 -0.380614 -0.201791 0.902449 0.691215 -0.611388 0.385261 
0.357227 -0.468921 0.807776 0.399278 -0.503481 0.766214 0.280004 -0.494179 0.823034 
0.13647 -0.559384 0.817597 -0.0860568 -0.366279 0.926517 -0.025647 -0.186573 0.982106 
0.16699 -0.274656 0.946931 -0.172151 -0.127069 0.976841 -0.176407 -0.133139 0.975272 
-0.169675 -0.196582 0.965694 -0.232308 -0.279544 0.931605 -0.493206 -0.375017 0.784927 
0.349357 -0.704145 0.618166 0.0426217 -0.504492 0.862364 0.156011 -0.604671 0.781047 
-0.013521 -0.449897 0.892978 0.0248034 -0.492418 0.870005 -0.0763528 -0.384225 0.920077 
0.0100815 -0.289772 0.957043 0.153136 -0.28581 0.945972 0.166667 -0.285024 0.943919 
0.0502899 -0.411573 0.909988 -0.204932 -0.210598 0.955851 -0.190299 -0.256439 0.947642 
-0.219156 -0.292846 0.930705 -0.231414 -0.366759 0.901074 -0.374986 -0.554922 0.742595 
0.175335 -0.875276 0.450721 0.0922484 -0.77923 0.619912 0.102612 -0.68202 0.7241 
0.144265 -0.647815 0.748013 0.0636677 -0.644987 0.761536 -0.152904 -0.595722 0.788502 
-0.31655 -0.632279 0.70712 0.0658737 0.995236 -0.0718774 -0.0842333 0.994837 -0.0566084 
0.435713 0.896999 0.0744806 0.361947 0.931535 0.0351651 0.0970781 0.992562 -0.0734592 
0.228603 0.971593 -0.0612237 0.0649064 0.992448 -0.104088 -0.0870178 0.994648 -0.055708 
-0.0841076 0.99466 -0.0598116 -0.236648 0.971545 0.00986427 -0.407246 0.907104 0.106366 
0.443117 0.89307 0.0779345 0.474597 0.870467 0.130557 0.417939 0.899693 -0.126015 
-0.538179 0.831366 0.138538 -0.55004 0.822359 0.145541 -0.652922 0.71229 0.257558 
0.644615 0.762555 0.054607 0.534639 0.840167 0.0909946 0.537859 0.838275 0.0894601 
-0.672531 0.690795 0.265525 0.677349 0.734061 0.048503 0.803067 0.593432 0.0540537 
0.648981 0.724117 -0.233407 -0.751221 0.563733 0.343325 -0.750034 0.560141 0.351696 
-0.755596 0.59542 0.273038 0.826153 0.559366 0.0676831 0.801388 0.586088 -0.119495 
-0.754103 0.386814 0.530758 -0.771869 0.278206 0.571681 -0.842022 0.534969 0.069335 
0.929877 0.358236 0.0836394 -0.765313 0.211343 0.607972 0.985441 0.161472 0.053234 
-0.716935 0.0621371 0.694366 0.981626 -0.113033 0.153733 -0.680235 -0.139034 0.719687 
-0.668741 -0.206077 0.714365 0.862985 -0.425533 0.272358 -0.653152 -0.230004 0.72145 
-0.704801 -0.240841 0.667271 0.702528 -0.612827 0.361798 0.694538 -0.62086 0.363523 
0.510678 -0.767306 0.387878 -0.568808 -0.401916 0.71758 -0.515889 -0.485849 0.705556 
-0.787005 -0.53314 0.310459 0.486035 -0.782868 0.388443 0.544945 -0.813913 0.201446 
0.393701 -0.836227 0.381738 0.260862 -0.87417 0.409607 -0.328919 -0.693035 0.641494 
-0.446638 -0.574624 0.6858 -0.397192 -0.625664 0.671404 -0.578914 -0.651682 0.490071 
0.196147 -0.887308 0.417386 0.297586 -0.954399 0.0237809 0.180173 -0.887948 0.423185 
0.123184 -0.857781 0.499037 0.117229 -0.811854 0.571971 0.136251 -0.848903 0.510685 
0.0523847 -0.890421 0.452113 -0.121744 -0.879162 0.460709 -0.330361 -0.71846 0.612108 
-0.305476 -0.753458 0.582225 -0.340333 -0.789636 0.510538 0.265342 0.892128 -0.365653 
0.130293 0.883208 -0.450519 0.0412645 0.857748 -0.512412 -0.0551899 0.858199 -0.510341 
-0.140225 0.868465 -0.475506 -0.348192 0.815747 -0.461865 0.480754 0.833459 -0.272435 
0.367894 0.879213 -0.302719 0.389641 0.875186 -0.286756 0.217186 0.840117 -0.497026 
0.061941 0.756037 -0.651591 -0.000837945 0.699057 -0.715065 -0.0425671 0.681626 -0.730461 
-0.164752 0.69964 -0.695241 -0.400005 0.790356 -0.46404 -0.348476 0.741489 -0.573374 
-0.449055 0.786267 -0.424422 -0.604433 0.7176 -0.345993 0.556914 0.775686 -0.296915 
0.587968 0.741993 -0.322086 0.461741 0.72818 -0.506507 -0.37284 0.617238 -0.692826 
-0.606062 0.716846 -0.344704 -0.601865 0.715702 -0.354302 -0.673431 0.715366 -0.186395 
0.624109 0.694777 -0.357455 0.633895 0.68125 -0.366162 -0.689953 0.704539 -0.166103 
-0.643501 0.700103 -0.309455 -0.810269 0.575445 -0.111024 0.718152 0.571565 -0.396952 
0.746911 0.536497 -0.392804 -0.821617 0.560331 -0.104761 -0.804597 0.563562 -0.187141 
0.852934 0.395313 -0.340925 0.678969 0.411726 -0.607851 -0.931927 0.361726 -0.0258059 
0.911748 0.20109 -0.358159 -0.988852 0.14469 0.0351727 0.950418 -0.0361917 -0.308861 
-0.99008 -0.0951219 0.103406 0.921853 -0.323796 -0.212937 -0.941595 -0.311604 0.127675 
0.801213 -0.583278 -0.133583 0.752471 -0.645219 -0.132211 0.737482 -0.579495 -0.346851 
-0.827742 -0.548935 0.116253 -0.802668 -0.58495 0.116438 -0.784026 -0.53553 -0.313864 
0.588728 -0.804802 -0.0754479 0.5609 -0.824973 -0.0693646 0.576558 -0.787942 -0.216166 
0.418286 -0.907495 -0.0386076 -0.492658 -0.866558 0.0797898 -0.688552 -0.716956 0.108953 
-0.623965 -0.774336 0.105219 0.308738 -0.950626 -0.0314736 0.300381 -0.95332 -0.030853 
0.302896 -0.950471 -0.0697113 0.211442 -0.977378 0.00483864 0.180736 -0.983031 0.031375 
0.140543 -0.987634 0.0694766 0.073481 -0.994661 0.0724528 0.0059238 -0.999955 0.00747232 
-0.0713319 -0.99686 -0.0343889 -0.204894 -0.978734 -0.00992952 -0.467957 -0.880229 0.0788194 
-0.324548 -0.942714 0.0771981 0.298093 0.74881 -0.591967 0.143227 0.746687 -0.649573 
0.0158272 0.677192 -0.735636 -0.0263157 0.605457 -0.795443 -0.0408475 0.593933 -0.803477 
-0.134592 0.562804 -0.81556 -0.238934 0.547772 -0.801784 0.546969 0.610766 -0.572529 
0.420451 0.710752 -0.563961 0.450247 0.696904 -0.558214 0.252429 0.658934 -0.70858 
0.0590146 0.550889 -0.832489 -0.0643003 0.476567 -0.876784 -0.0567474 0.436443 -0.897941 
-0.0414261 0.455771 -0.889133 -0.120228 0.473429 -0.872589 -0.286054 0.553272 -0.782344 
-0.220229 0.512616 -0.829894 -0.321298 0.546613 -0.773293 -0.37353 0.56102 -0.738737 
0.550255 0.605097 -0.575392 0.606739 0.487711 -0.627699 0.542044 0.597993 -0.590417 
0.356465 0.513224 -0.780726 -0.109394 0.242928 -0.963856 -0.0688297 0.283087 -0.956621 
-0.00564278 0.304828 -0.952391 -0.0726726 0.33224 -0.940391 -0.178009 0.375509 -0.909563 
-0.2434 0.435799 -0.866508 -0.386112 0.558423 -0.734221 -0.364092 0.545866 -0.754631 
-0.476177 0.532654 -0.699668 0.61213 0.477472 -0.630331 0.603473 0.471817 -0.642814 
0.473257 0.383701 -0.79297 -0.112417 0.258145 -0.959543 -0.168315 0.342501 -0.924318 
-0.252084 0.418032 -0.872756 -0.534391 0.495537 -0.68474 -0.451056 0.485601 -0.748826 
-0.662195 0.420099 -0.620495 0.617274 0.37872 -0.689597 0.661434 0.285688 -0.69346 
0.548255 0.292776 -0.783389 -0.396854 0.322463 -0.859375 -0.686904 0.400057 -0.606727 
-0.653629 0.405765 -0.638846 0.703447 0.19598 -0.683194 0.661756 0.201637 -0.722095 
0.46739 0.115141 -0.876521 -0.319904 0.173911 -0.931352 -0.829262 0.233081 -0.507935 
-0.612547 0.250622 -0.749649 0.743683 0.0117205 -0.66843 0.65482 0.0111055 -0.755703 
0.402807 -0.0206466 -0.915052 -0.90489 -0.051736 -0.422491 -0.519388 -0.0251554 -0.854168 
0.729462 -0.246701 -0.637985 0.67918 -0.353016 -0.643502 0.665595 -0.251378 -0.702704 
0.408519 -0.143782 -0.901354 -0.35682 -0.0971147 -0.929112 -0.833115 -0.303246 -0.462559 
-0.741343 -0.477769 -0.471324 -0.679533 -0.299145 -0.669886 0.612903 -0.501989 -0.610211 
0.563076 -0.618142 -0.548494 0.514998 -0.414954 -0.75006 0.273801 -0.284228 -0.91883 
-0.727369 -0.503873 -0.465883 -0.46173 -0.333575 -0.821908 0.498542 -0.701731 -0.508949 
0.419818 -0.765439 -0.487704 0.395209 -0.651956 -0.647119 0.299685 -0.827925 -0.474056 
0.204019 -0.540604 -0.816164 0.148005 -0.43171 -0.889787 -0.199777 -0.415582 -0.887345 
-0.432181 -0.773918 -0.462893 -0.336411 -0.569767 -0.749795 -0.600582 -0.660448 -0.450677 
-0.586442 -0.672655 -0.451244 -0.578796 -0.660912 -0.477694 0.251089 -0.855835 -0.452217 
0.238162 -0.859163 -0.452899 0.235346 -0.841415 -0.48645 0.205864 -0.881698 -0.424533 
0.209674 -0.773547 -0.598049 0.168563 -0.908065 -0.383413 0.166427 -0.667739 -0.725553 
0.0649087 -0.927622 -0.367838 0.0615406 -0.629599 -0.774479 -0.0665719 -0.915752 -0.39619 
-0.0827553 -0.606466 -0.790791 -0.139984 -0.864918 -0.481998 -0.183911 -0.665022 -0.723825 
-0.158353 -0.826439 -0.5403 -0.136058 -0.734396 -0.664944 -0.329969 -0.833162 -0.443804 
-0.25902 -0.858693 -0.442217 -0.244552 -0.792262 -0.559031 0.120037 0.424254 -0.897552 
-0.0417766 0.329285 -0.943306 0.156882 0.425891 -0.891069 0.301824 0.403458 -0.863785 
0.110332 0.404622 -0.907804 -0.0768626 0.278082 -0.957477 -0.0511643 0.307729 -0.950098 
-0.10945 0.194261 -0.974825 -0.0126045 0.228555 -0.97345 0.00730598 0.257404 -0.966276 
-0.0642006 0.247813 -0.966678 0.381566 0.335415 -0.861339 0.413112 0.262754 -0.871951 
0.253296 0.287226 -0.923765 0.0142113 0.203549 -0.978962 -0.138976 0.146353 -0.979422 
-0.108621 0.106773 -0.988332 0.00562638 0.213445 -0.976939 0.0131317 0.232368 -0.972539 
-0.101049 0.247862 -0.963511 -0.0627265 0.213779 -0.974866 -0.105288 0.247485 -0.963154 
-0.117692 0.283813 -0.95163 -0.203526 0.294188 -0.933826 0.414643 0.206999 -0.886128 
0.370478 0.182287 -0.910779 0.162954 0.0947191 -0.982076 -0.0341248 0.0184555 -0.999247 
-0.158306 0.0463088 -0.986304 -0.0563555 0.0903736 -0.994312 0.0546293 0.00296719 -0.998502 
-0.00274789 0.0750491 -0.997176 -0.0393875 0.0954384 -0.994656 -0.0491856 0.165483 -0.984985 
-0.0735075 0.226896 -0.971141 -0.223994 0.282349 -0.932794 -0.197825 0.277808 -0.940047 
0.3819 0.0679356 -0.921703 0.285591 0.0285063 -0.957927 0.0925324 -0.0566827 -0.994095 
-0.0336643 -0.0847297 -0.995835 -0.0663627 -0.0394394 -0.997016 -0.150303 0.086418 -0.984856 
-0.00809423 -0.00204838 -0.999965 0.106508 0.0681807 -0.991971 0.029487 0.0581845 -0.99787 
0.0206733 0.0936864 -0.995387 -0.0483883 0.121814 -0.991373 -0.299235 0.167337 -0.939391 
-0.168844 0.133118 -0.976612 -0.31309 0.131882 -0.940522 0.327942 -0.0403197 -0.943837 
0.217193 -0.0661625 -0.973884 0.0545051 -0.0867538 -0.994738 -0.0172531 -0.0710087 -0.997326 
0.0107838 -0.0569921 -0.998316 -0.0207025 -0.0598904 -0.99799 0.0384617 0.0562437 -0.997676 
0.0576636 0.0324172 -0.99781 -0.0127566 0.037242 -0.999225 0.0163121 0.0234704 -0.999591 
-0.0344351 0.0231193 -0.999139 -0.136337 0.0170895 -0.990515 -0.326465 0.0028724 -0.945205 
-0.344985 -0.078461 -0.935323 -0.29693 0.00860644 -0.954861 0.269355 -0.118221 -0.955757 
0.247889 -0.204086 -0.947048 0.22411 -0.116194 -0.967612 0.0881524 -0.0810706 -0.992802 
-0.00219761 -0.0501121 -0.998741 -0.053068 -0.0293574 -0.998159 -0.0354264 -0.0338606 -0.998798 
0.0822946 0.021002 -0.996387 0.0854122 -0.0216161 -0.996111 0.0193429 -0.0264129 -0.999464 
0.00670476 -0.0540445 -0.998516 -0.0541073 -0.0713657 -0.995982 -0.342076 -0.0933643 -0.935023 
-0.178525 -0.0853089 -0.98023 0.220696 -0.257298 -0.940793 0.149846 -0.325146 -0.933716 
0.124653 -0.223501 -0.9667 0.113724 -0.347824 -0.930637 0.0382879 -0.168317 -0.984989 
0.0251236 -0.0887384 -0.995738 0.0306189 -0.0025627 -0.999528 0.0519834 0.0508255 -0.997354 
0.00995236 -0.0483208 -0.998782 -0.0454187 -0.106419 -0.993284 -0.0306535 -0.159262 -0.98676 
-0.164441 -0.360479 -0.918158 -0.068295 -0.199399 -0.977536 -0.330521 -0.302735 -0.893928 
-0.200165 -0.360749 -0.91093 -0.170854 -0.285076 -0.943155 0.127075 -0.359866 -0.92431 
0.129436 -0.35543 -0.925698 0.112877 -0.307789 -0.944735 0.123105 -0.373103 -0.919586 
0.103257 -0.223609 -0.969194 0.0517898 -0.460342 -0.88623 0.0339351 -0.18821 -0.981542 
-0.0779172 -0.464713 -0.882026 -0.071799 -0.218381 -0.973219 -0.12842 -0.383143 -0.914719 
-0.0937446 -0.282695 -0.954618 -0.128717 -0.378271 -0.916702 -0.104475 -0.382549 -0.918009 
-0.100117 -0.366273 -0.925106 
