# vtk DataFile Version 4.2
vtk output
ASCII
DATASET POLYDATA
POINTS 532 float
-24.1692 -36.5939 -12.6273 -16.7145 -36.5939 -14.49 -9.2597 -36.5939 -15.5257 
-1.80495 -36.5939 -15.5557 5.64981 -36.5939 -14.349 13.1046 -36.5939 -11.9351 
-39.0787 -29.1392 -11.8742 -31.624 -29.1392 -14.8006 -24.1692 -29.1392 -16.1724 
-16.7145 -29.1392 -17.2421 -9.2597 -29.1392 -17.4251 -1.80495 -29.1392 -17.4447 
5.64981 -29.1392 -16.5749 13.1046 -29.1392 -15.0833 20.5593 -29.1392 -13.8182 
28.0141 -29.1392 -12.0272 -46.5335 -21.6844 -11.9405 -39.0787 -21.6844 -15.4878 
-31.624 -21.6844 -17.1791 -24.1692 -21.6844 -17.893 -16.7145 -21.6844 -17.3055 
-9.2597 -21.6844 -17.1807 -1.80495 -21.6844 -17.5814 5.64981 -21.6844 -16.8873 
13.1046 -21.6844 -16.2488 20.5593 -21.6844 -15.9029 28.0141 -21.6844 -14.8107 
35.4688 -21.6844 -13.5537 -46.5335 -14.2297 -14.5966 -39.0787 -14.2297 -17.3436 
-31.624 -14.2297 -18.0934 -24.1692 -14.2297 -17.7127 -16.7145 -14.2297 -16.9501 
-9.2597 -14.2297 -16.2903 -1.80495 -14.2297 -16.9579 5.64981 -14.2297 -16.8438 
13.1046 -14.2297 -16.4328 20.5593 -14.2297 -16.357 28.0141 -14.2297 -16.1305 
35.4688 -14.2297 -15.7012 42.9236 -14.2297 -14.0574 -46.5335 -6.77492 -15.6749 
-39.0787 -6.77492 -17.0536 -31.624 -6.77492 -18.084 -24.1692 -6.77492 -17.3356 
-16.7145 -6.77492 -16.808 -9.2597 -6.77492 -18.0409 -1.80495 -6.77492 -17.1216 
5.64981 -6.77492 -18.2941 13.1046 -6.77492 -16.3564 20.5593 -6.77492 -15.9687 
28.0141 -6.77492 -16.5402 35.4688 -6.77492 -16.7127 42.9236 -6.77492 -15.9625 
50.3783 -6.77492 -13.9493 -53.9882 0.679838 -12.4149 -46.5335 0.679838 -15.5347 
-39.0787 0.679838 -16.9912 -31.624 0.679838 -17.1332 -24.1692 0.679838 -16.4476 
-16.7145 0.679838 -16.2404 -9.2597 0.679838 -19.0636 -1.80495 0.679838 -14.7608 
5.64981 0.679838 -18.6272 13.1046 0.679838 -16.1023 20.5593 0.679838 -15.9073 
28.0141 0.679838 -17.0939 35.4688 0.679838 -17.6949 42.9236 0.679838 -17.4957 
50.3783 0.679838 -15.6038 57.8331 0.679838 -12.4588 -53.9882 8.13459 -12.179 
-46.5335 8.13459 -15.1745 -39.0787 8.13459 -17.6325 -31.624 8.13459 -16.9467 
-24.1692 8.13459 -16.2652 -16.7145 8.13459 -15.6577 -9.2597 8.13459 -17.7025 
-1.80495 8.13459 -17.324 5.64981 8.13459 -17.805 13.1046 8.13459 -15.9875 
20.5593 8.13459 -16.571 28.0141 8.13459 -17.6209 35.4688 8.13459 -18.187 
42.9236 8.13459 -18.2647 50.3783 8.13459 -16.2308 57.8331 8.13459 -13.344 
-53.9882 15.5893 -12.8286 -46.5335 15.5893 -14.8381 -39.0787 15.5893 -16.3316 
-31.624 15.5893 -16.5993 -24.1692 15.5893 -16.3325 -16.7145 15.5893 -16.2456 
-9.2597 15.5893 -16.8618 -1.80495 15.5893 -16.906 5.64981 15.5893 -16.9849 
13.1046 15.5893 -16.9134 20.5593 15.5893 -17.5468 28.0141 15.5893 -17.8384 
35.4688 15.5893 -17.7187 42.9236 15.5893 -17.2045 50.3783 15.5893 -15.7258 
-46.5335 23.0441 -12.4704 -39.0787 23.0441 -14.3834 -31.624 23.0441 -15.9678 
-24.1692 23.0441 -15.7185 -16.7145 23.0441 -15.8563 -9.2597 23.0441 -16.2734 
-1.80495 23.0441 -16.7373 5.64981 23.0441 -17.1448 13.1046 23.0441 -17.6255 
20.5593 23.0441 -17.2542 28.0141 23.0441 -17.1229 35.4688 23.0441 -16.8399 
42.9236 23.0441 -15.1018 -31.624 30.4989 -12.5502 -24.1692 30.4989 -12.5054 
-16.7145 30.4989 -12.8896 -9.2597 30.4989 -13.822 -1.80495 30.4989 -14.9555 
5.64981 30.4989 -16.1082 13.1046 30.4989 -16.3308 20.5593 30.4989 -15.7842 
28.0141 30.4989 -14.6418 35.4688 30.4989 -12.6633 -24.1692 -37.4893 -11.7781 
-16.7145 -39.5648 -11.7781 -9.2597 -41.3863 -11.7781 -1.80495 -41.4484 -11.7781 
-1.80495 -44.0487 -4.35807 5.64981 -39.3841 -11.7781 13.1046 -36.774 -11.7781 
-39.0787 -29.2347 -11.7781 -26.1063 -36.5939 -11.7781 -31.624 -33.2818 -11.7781 
-31.624 -36.5939 -4.86134 13.5128 -36.5939 -11.7781 20.5593 -32.3 -11.7781 
20.5593 -36.5939 -7.7721 28.0141 -29.5011 -11.7781 -39.2171 -29.1392 -11.7781 
-46.5335 -21.9341 -11.7781 28.6503 -29.1392 -11.7781 35.4688 -24.8029 -11.7781 
35.4688 -29.1392 -8.09042 -46.7206 -21.6844 -11.7781 39.5537 -21.6844 -11.7781 
42.9236 -18.7395 -11.7781 42.9236 -21.6844 -9.74345 -52.1838 -14.2297 -11.7781 
-53.9882 -14.2297 -9.31508 47.7754 -14.2297 -11.7781 50.3783 -11.1625 -11.7781 
50.3783 -14.2297 -10.0852 -53.4093 -6.77492 -11.7781 -53.9882 -3.68351 -11.7781 
-53.9882 -6.77492 -11.2501 54.1691 -6.77492 -11.7781 57.8331 -1.46441 -11.7781 
57.8331 -6.77492 -8.60623 -54.9001 0.679838 -11.7781 58.5903 0.679838 -11.7781 
-54.5532 8.13459 -11.7781 59.531 8.13459 -11.7781 57.8331 13.2311 -11.7781 
-55.3756 15.5893 -11.7781 -53.9882 18.6588 -11.7781 56.5289 15.5893 -11.7781 
50.3783 22.2506 -11.7781 57.8331 15.5893 -10.3286 -48.3967 23.0441 -11.7781 
-53.9882 23.0441 -8.82365 -46.5335 24.6389 -11.7781 -39.0787 28.048 -11.7781 
49.5642 23.0441 -11.7781 42.9236 27.4246 -11.7781 50.3783 23.0441 -11.0293 
-46.5335 30.4989 -7.64643 -34.4282 30.4989 -11.7781 -39.0787 30.4989 -9.8917 
-31.624 31.4858 -11.7781 -24.1692 31.3847 -11.7781 -16.7145 31.9049 -11.7781 
-9.2597 32.9182 -11.7781 -1.80495 34.2312 -11.7781 5.64981 35.8526 -11.7781 
13.1046 36.6476 -11.7781 20.5593 35.9793 -11.7781 28.0141 33.8929 -11.7781 
37.3556 30.4989 -11.7781 35.4688 31.4884 -11.7781 42.9236 30.4989 -6.60278 
5.64981 37.9536 -7.00461 13.1046 37.9536 -9.06279 20.5593 37.9536 -7.53323 
-1.80495 -44.0575 -4.32331 -31.624 -36.7684 -4.32331 -24.1692 -39.9587 -4.32331 
-16.7145 -42.3415 -4.32331 -1.97048 -44.0487 -4.32331 -9.2597 -43.655 -4.32331 
-1.72402 -44.0487 -4.32331 -1.80495 -44.0487 -4.27298 5.64981 -43.2256 -4.32331 
13.1046 -41.077 -4.32331 20.5593 -38.8219 -4.32331 -31.9917 -36.5939 -4.32331 
-39.0787 -32.9696 -4.32331 -31.624 -36.5939 -3.58311 26.7596 -36.5939 -4.32331 
28.0141 -36.0852 -4.32331 28.0141 -36.5939 1.8346 35.4688 -32.2026 -4.32331 
-44.308 -29.1392 -4.32331 -46.5335 -27.1843 -4.32331 40.3609 -29.1392 -4.32331 
42.9236 -27.2536 -4.32331 -51.4796 -21.6844 -4.32331 -53.9882 -17.802 -4.32331 
49.2739 -21.6844 -4.32331 50.3783 -20.6249 -4.32331 -56.067 -14.2297 -4.32331 
55.8153 -14.2297 -4.32331 57.8331 -11.2213 -4.32331 -59.1012 -6.77492 -4.32331 
60.4159 -6.77492 -4.32331 -61.3558 0.679838 -4.32331 62.3733 0.679838 -4.32331 
-61.4249 8.13459 -4.32331 63.0001 8.13459 -4.32331 -60.0267 15.5893 -4.32331 
60.7086 15.5893 -4.32331 57.8331 19.9028 -4.32331 -56.7679 23.0441 -4.32331 
-53.9882 26.2304 -4.32331 55.0385 23.0441 -4.32331 50.3783 27.0899 -4.32331 
-48.9601 30.4989 -4.32331 -46.5335 32.1303 -4.32331 -39.0787 34.6647 -4.32331 
-31.624 36.1202 -4.32331 -24.1692 37.2848 -4.32331 -16.7145 37.1867 -4.32331 
-9.2597 37.1673 -4.32331 -1.80495 37.7539 -4.32331 28.0141 37.1595 -4.32331 
35.4688 34.621 -4.32331 44.7905 30.4989 -4.32331 42.9236 31.5798 -4.32331 
42.9236 30.4989 0.791027 -0.369422 37.9536 -4.32331 5.64981 38.7836 -4.32331 
5.64981 37.9536 1.16613 13.1046 39.4171 -4.32331 24.7542 37.9536 -4.32331 
20.5593 39.0105 -4.32331 20.5593 37.9536 0.95108 -24.1692 -38.0528 3.13144 
-16.7145 -40.1838 3.13144 -9.2597 -41.8682 3.13144 -1.80495 -42.6316 3.13144 
5.64981 -42.2261 3.13144 13.1046 -40.9826 3.13144 20.5593 -39.2434 3.13144 
28.0141 -36.6843 3.13144 -39.0787 -30.7073 3.13144 -27.7517 -36.5939 3.13144 
-31.624 -34.7556 3.13144 -24.1692 -36.5939 5.4494 -16.7145 -36.5939 8.62812 
20.5593 -36.5939 9.04709 28.2394 -36.5939 3.13144 28.0141 -36.5939 3.44913 
35.4688 -33.5151 3.13144 -41.2448 -29.1392 3.13144 -46.5335 -24.5489 3.13144 
-39.0787 -29.1392 5.18625 -31.624 -29.1392 9.59841 42.1471 -29.1392 3.13144 
42.9236 -28.5215 3.13144 -49.2006 -21.6844 3.13144 -53.9882 -14.7255 3.13144 
-46.5335 -21.6844 6.075 49.9587 -21.6844 3.13144 50.3783 -21.1641 3.13144 
-54.2824 -14.2297 3.13144 -53.9882 -14.2297 3.52504 -46.5335 -14.2297 10.0882 
55.4692 -14.2297 3.13144 50.3783 -14.2297 10.1107 57.8331 -10.1754 3.13144 
-57.8573 -6.77492 3.13144 -53.9882 -6.77492 8.25085 59.5819 -6.77492 3.13144 
57.8331 -6.77492 5.90585 -60.3915 0.679838 3.13144 61.3741 0.679838 3.13144 
57.8331 0.679838 7.97733 -60.2393 8.13459 3.13144 61.517 8.13459 3.13144 
57.8331 8.13459 7.95911 -59.4353 15.5893 3.13144 -53.9882 15.5893 10.339 
59.2843 15.5893 3.13144 57.8331 17.6893 3.13144 57.8331 15.5893 5.02012 
-56.1473 23.0441 3.13144 -53.9882 25.6183 3.13144 -53.9882 23.0441 6.26464 
42.9236 29.9773 3.13144 53.0805 23.0441 3.13144 50.3783 25.4104 3.13144 
50.3783 23.0441 6.05194 -48.661 30.4989 3.13144 -46.5335 32.0161 3.13144 
-46.5335 30.4989 5.68282 -39.0787 34.9706 3.13144 -31.624 36.5675 3.13144 
-24.1692 37.8589 3.13144 -16.7145 37.6907 3.13144 -9.2597 37.2993 3.13144 
-1.80495 37.1926 3.13144 5.64981 37.6462 3.13144 20.5593 37.4694 3.13144 
28.0141 35.8571 3.13144 28.0141 30.4989 9.95003 41.8313 30.4989 3.13144 
35.4688 33.2695 3.13144 35.4688 30.4989 7.17983 11.3525 37.9536 3.13144 
14.3927 37.9536 3.13144 13.1046 38.0455 3.13144 13.1046 37.9536 3.31564 
-9.2597 -37.1619 10.5862 -1.80495 -38.1664 10.5862 5.64981 -37.8825 10.5862 
13.1046 -36.8474 10.5862 -24.1692 -31.9351 10.5862 -11.3647 -36.5939 10.5862 
-16.7145 -34.8466 10.5862 -9.2597 -36.5939 11.1765 -1.80495 -36.5939 12.1762 
5.64981 -36.5939 11.8527 14.754 -36.5939 10.5862 13.1046 -36.5939 10.849 
20.5593 -35.5688 10.5862 28.0141 -33.8933 10.5862 35.4688 -29.9474 10.5862 
-39.0787 -22.1453 10.5862 -29.5741 -29.1392 10.5862 -31.624 -27.7956 10.5862 
-24.1692 -29.1392 12.7089 -16.7145 -29.1392 14.7371 -9.2597 -29.1392 16.266 
-1.80495 -29.1392 16.2372 5.64981 -29.1392 15.9258 13.1046 -29.1392 15.9998 
20.5593 -29.1392 15.5998 28.0141 -29.1392 14.702 36.6769 -29.1392 10.5862 
35.4688 -29.1392 11.3605 42.9236 -22.7761 10.5862 -39.5935 -21.6844 10.5862 
-39.0787 -21.6844 10.8641 -31.624 -21.6844 14.0375 -24.1692 -21.6844 15.9369 
-16.7145 -21.6844 17.1584 -9.2597 -21.6844 17.7765 -1.80495 -21.6844 17.9973 
5.64981 -21.6844 17.7456 28.0141 -21.6844 17.7822 35.4688 -21.6844 15.7378 
43.8819 -21.6844 10.5862 42.9236 -21.6844 11.2954 -45.7092 -14.2297 10.5862 
-46.5335 -13.0992 10.5862 -39.0787 -14.2297 13.9511 -31.624 -14.2297 16.3802 
-24.1692 -14.2297 17.683 35.4688 -14.2297 16.8429 49.8768 -14.2297 10.5862 
[...]
POINT_DATA 532
SCALARS ImageScalars float
LOOKUP_TABLE default
0 0 0 0 0 0 0 0 0 
0 0 0 0 0 0 0 0 0 
0 0 0 0 0 0 0 0 0 
0 0 0 0 0 0 0 0 0 
0 0 0 0 0 0 0 0 0 
0 0 0 0 0 0 0 0 0 
0 0 0 0 0 0 0 0 0 
0 0 0 0 0 0 0 0 0 
0 0 0 0 0 0 0 0 0 
0 0 0 0 0 0 0 0 0 
0 0 0 0 0 0 0 0 0 
0 0 0 0 0 0 0 0 0 
0 0 0 0 0 0 0 0 0 
0 0 0 0 0 0 0 0 0 
0 0 0 0 0 0 0 0 0 
0 0 0 0 0 0 0 0 0 
0 0 0 0 0 0 0 0 0 
0 0 0 0 0 0 0 0 0 
0 0 0 0 0 0 0 0 0 
0 0 0 0 0 0 0 0 0 
0 0 0 0 0 0 0 0 0 
0 0 0 0 0 0 0 0 0 
0 0 0 0 0 0 0 0 0 
0 0 0 0 0 0 0 0 0 
0 0 0 0 0 0 0 0 0 
0 0 0 0 0 0 0 0 0 
0 0 0 0 0 0 0 0 0 
0 0 0 0 0 0 0 0 0 
0 0 0 0 0 0 0 0 0 
0 0 0 0 0 0 0 0 0 
0 0 0 0 0 0 0 0 0 
0 0 0 0 0 0 0 0 0 
0 0 0 0 0 0 0 0 0 
0 0 0 0 0 0 0 0 0 
0 0 0 0 0 0 0 0 0 
0 0 0 0 0 0 0 0 0 
0 0 0 0 0 0 0 0 0 
0 0 0 0 0 0 0 0 0 
0 0 0 0 0 0 0 0 0 
0 0 0 0 0 0 0 0 0 
0 0 0 0 0 0 0 0 0 
0 0 0 0 0 0 0 0 0 
0 0 0 0 0 0 0 0 0 
0 0 0 0 0 0 0 0 0 
0 0 0 0 0 0 0 0 0 
0 0 0 0 0 0 0 0 0 
0 0 0 0 0 0 0 0 0 
0 0 0 0 0 0 0 0 0 
0 0 0 0 0 0 0 0 0 
0 0 0 0 0 0 0 0 0 
0 0 0 0 0 0 0 0 0 
0 0 0 0 0 0 0 0 0 
0 0 0 0 0 0 0 0 0 
0 0 0 0 0 0 0 0 0 
0 0 0 0 0 0 0 0 0 
0 0 0 0 0 0 0 0 0 
0 0 0 0 0 0 0 0 0 
0 0 0 0 0 0 0 0 0 
0 0 0 0 0 0 0 0 0 
0 
NORMALS Normals float
0.287006 0.67661 0.678105 0.188638 0.5677 0.801332 0.0610346 0.465061 0.883172 
-0.0634482 0.456595 0.887409 -0.230066 0.529737 0.816363 -0.301891 0.597948 0.742509 
0.45547 0.630444 0.62856 0.234822 0.46078 0.855886 0.143383 0.308752 0.940273 
0.0890737 0.154747 0.983931 0.0127939 0.101381 0.994765 -0.0590936 0.126924 0.990151 
-0.148389 0.130961 0.980219 -0.178192 0.26272 0.948275 -0.195268 0.412333 0.889861 
-0.277897 0.502268 0.81884 0.577322 0.452422 0.679715 0.298147 0.276441 0.913613 
0.140513 0.185232 0.972597 0.0133354 0.108312 0.994027 -0.0464429 -0.0198225 0.998724 
0.0184517 -0.0757989 0.996952 -0.017845 -0.0320358 0.999327 -0.0902756 0.0190614 0.995734 
-0.0637966 0.0860337 0.994248 -0.0968691 0.147587 0.984294 -0.151876 0.254856 0.954977 
-0.267352 0.374952 0.887656 0.391675 0.199623 0.898188 0.244337 0.0950506 0.965021 
0.0205861 0.0679443 0.997477 -0.0757547 -0.0351857 0.996505 -0.0949936 -0.0331806 0.994925 
-0.000276594 0.0463069 0.998927 0.0374629 -0.0316156 0.998798 -0.0356949 0.0930092 0.995025 
-0.0321929 0.00722101 0.999456 -0.0201005 0.00292033 0.999794 -0.0420963 0.117859 0.992138 
-0.136097 0.211023 0.96796 -0.293459 0.32678 0.898385 0.315357 0.0602417 0.947059 
0.15803 -0.0214579 0.987201 0.0280212 -0.0674037 0.997332 -0.0832982 -0.0870974 0.992711 
0.0424966 -0.0455344 0.998058 0.0250092 0.19174 0.981127 0.0229219 -0.123389 0.992094 
-0.0492618 0.116733 0.991941 -0.163252 -0.0212207 0.986356 0.0136284 -0.0301673 0.999452 
0.0497997 0.0637884 0.99672 -0.035888 0.127417 0.9912 -0.156679 0.224471 0.961803 
-0.380368 0.324215 0.866143 0.514617 0.0477049 0.856092 0.270768 -0.0332688 0.96207 
0.0990608 0.0350274 0.994465 -0.0355115 -0.0706099 0.996872 -0.0593778 -0.0687064 0.995868 
0.177196 -0.0823118 0.980727 -0.0675208 -0.0245675 0.997415 -0.0801551 0.0221203 0.996537 
0.0751527 -0.033662 0.996604 -0.165984 -0.0270452 0.985757 0.068021 0.0402105 0.996873 
0.118657 0.071861 0.990331 0.0273305 0.0982676 0.994785 -0.144596 0.14868 0.978257 
-0.325153 0.130865 0.936563 -0.627946 0.202202 0.751531 0.50537 0.0361035 0.862147 
0.308607 -0.0460678 0.950073 0.108007 -0.0348684 0.993538 -0.0892826 -0.0354844 0.995374 
-0.0855213 -0.00768268 0.996307 0.0890369 0.00377035 0.996021 0.116278 -0.149853 0.981847 
0.00651711 0.114368 0.993417 -0.0959782 -0.104116 0.989923 -0.0773237 0.0542813 0.995527 
0.108873 0.109056 0.988055 0.107539 0.0493213 0.992977 0.0427569 0.00192092 0.999084 
-0.146933 -0.0176525 0.988989 -0.302036 0.0156254 0.953168 -0.62566 -0.0881405 0.7751 
0.529291 -0.146064 0.835773 0.236302 -0.141749 0.961285 0.126545 -0.20822 0.969861 
-0.000801412 -0.0613077 0.998119 -0.0235337 -0.0352436 0.999102 0.0353385 0.0122262 0.999301 
0.044305 -0.0903902 0.99492 0.00824142 -0.0387783 0.999214 0.000755787 -0.0404901 0.99918 
0.0384672 0.11174 0.992993 0.0596414 0.0457243 0.997172 0.0117608 -0.0323552 0.999407 
-0.0404667 -0.0826557 0.995756 -0.116606 -0.203172 0.972175 -0.387855 -0.266796 0.882264 
0.308174 -0.391178 0.867184 0.191805 -0.326233 0.925626 0.0843912 -0.259801 0.961968 
-0.005462 -0.220711 0.975324 0.0354711 -0.19895 0.979367 0.059601 -0.184807 0.980966 
0.0571801 -0.11303 0.991945 0.0590502 -0.0481178 0.997095 0.00736818 -0.0323181 0.999451 
-0.0328595 -0.111558 0.993215 -0.0252803 -0.185005 0.982412 -0.137587 -0.315629 0.938855 
-0.301058 -0.422402 0.854951 0.118355 -0.575961 0.808864 0.0209737 -0.563855 0.825608 
0.0789025 -0.557306 0.82655 0.128419 -0.537049 0.833719 0.143454 -0.471203 0.870281 
0.0856588 -0.385566 0.918695 -0.0240079 -0.387865 0.921404 -0.100792 -0.402558 0.909829 
-0.199439 -0.528833 0.824961 -0.312126 -0.644754 0.69776 0.303353 0.729214 0.613371 
0.227427 0.750387 0.620641 0.102395 0.787397 0.607883 -0.103527 0.774111 0.624528 
-0.0280127 0.998762 0.0410953 -0.251542 0.695464 0.673095 -0.301452 0.607775 0.734668 
0.457424 0.635202 0.62232 0.326838 0.725241 0.605972 0.365734 0.689623 0.625027 
0.421109 0.90457 0.0664811 -0.302885 0.602927 0.738064 -0.255227 0.520988 0.814513 
-0.331358 0.776258 0.536307 -0.281891 0.517096 0.808177 0.460165 0.6332 0.622339 
0.581621 0.463107 0.668766 -0.287027 0.515353 0.807482 -0.325868 0.483119 0.812654 
-0.421483 0.697036 0.58008 0.58401 0.458185 0.670074 -0.369335 0.453731 0.810999 
-0.385847 0.444166 0.808603 -0.479472 0.556121 0.678849 0.637296 0.283573 0.716547 
0.802103 0.357143 0.478622 -0.43876 0.40231 0.803515 -0.464553 0.401614 0.789238 
-0.560068 0.470329 0.681993 0.63471 0.0934141 0.767084 0.600594 0.077156 0.795822 
0.676651 0.114449 0.727354 -0.513181 0.385887 0.766639 -0.639073 0.260602 0.723652 
-0.737696 0.43005 0.520443 0.547339 0.0537606 0.835182 -0.675868 0.201071 0.709065 
0.540646 0.033779 0.840572 -0.736429 -0.0912674 0.670331 -0.665062 -0.300973 0.683453 
0.626215 -0.15815 0.763442 0.554523 -0.294772 0.778212 -0.618631 -0.386257 0.684179 
-0.517296 -0.539736 0.664146 -0.707945 -0.412001 0.573645 0.367879 -0.427206 0.82593 
0.621259 -0.54539 0.562661 0.322676 -0.447976 0.833785 0.206572 -0.539405 0.816315 
-0.506425 -0.552143 0.662323 -0.377418 -0.655986 0.653634 -0.544635 -0.583323 0.602584 
0.446435 -0.759194 0.473625 0.152644 -0.60579 0.780845 0.220958 -0.708618 0.670103 
0.122912 -0.629361 0.767332 0.0204343 -0.605325 0.795716 0.0770511 -0.626333 0.775738 
0.119734 -0.676512 0.726633 0.155697 -0.729054 0.666512 0.127897 -0.780053 0.612502 
0.00622819 -0.792115 0.61034 -0.138893 -0.752108 0.644238 -0.235708 -0.717354 0.655625 
-0.347041 -0.685548 0.63999 -0.328087 -0.691799 0.643251 -0.446396 -0.860126 0.246807 
0.124591 -0.963811 0.235682 0.00944326 -0.927977 0.372519 -0.15422 -0.948704 0.276002 
-0.0277118 0.998855 0.0389983 0.418347 0.907501 0.0377876 0.336327 0.941621 0.0153246 
0.257905 0.966147 0.00666298 -0.0247002 0.998966 0.0381606 0.111655 0.993743 0.00285192 
-0.0294342 0.998775 0.0397656 -0.0274103 0.998949 0.036743 -0.192084 0.97421 0.118398 
-0.290077 0.931484 0.219529 -0.320519 0.901429 0.291019 0.423684 0.905063 0.0367799 
0.54008 0.840902 0.0346079 0.421615 0.906775 -0.000696205 -0.369221 0.874084 0.315678 
-0.379817 0.86689 0.322864 -0.36206 0.931665 -0.0302266 -0.45931 0.805459 0.374525 
0.643398 0.765036 0.0275573 0.695723 0.717421 0.0357166 -0.532451 0.764768 0.362802 
-0.572092 0.738598 0.356628 0.800127 0.595023 0.0757945 0.854371 0.515442 0.0661002 
-0.673754 0.668051 0.315854 -0.691468 0.655648 0.303312 0.890083 0.449518 0.0754035 
-0.781181 0.566927 0.261438 -0.828013 0.512314 0.227879 0.930636 0.32138 0.175017 
-0.886108 0.414791 0.206785 0.970581 0.147153 0.190576 -0.973158 0.160797 0.164647 
0.9759 -0.0738375 0.205347 -0.986989 -0.113552 0.113833 0.923392 -0.300759 0.238518 
-0.89769 -0.423491 0.121687 -0.793003 -0.600222 0.104302 0.809609 -0.53919 0.231965 
0.706973 -0.667503 0.233729 -0.696719 -0.709107 0.108396 -0.588995 -0.802145 0.0982235 
0.536874 -0.812115 0.228552 0.462539 -0.8571 0.2268 0.271371 -0.915688 0.296434 
0.159447 -0.950611 0.266298 0.0676425 -0.947057 0.31386 -0.00732389 -0.958041 0.286537 
0.037294 -0.973663 0.224923 0.104356 -0.985328 0.135053 -0.273613 -0.958842 0.0758751 
-0.352555 -0.932992 0.0723213 -0.476621 -0.873456 0.0995333 -0.446621 -0.888326 0.106802 
-0.456843 -0.861991 -0.219698 0.105969 -0.986936 0.121355 0.115155 -0.990584 0.074042 
0.07207 -0.978013 -0.195696 0.0146513 -0.998397 0.0546626 -0.220499 -0.973178 0.0656164 
-0.152033 -0.986781 0.0561233 -0.138415 -0.963919 -0.227378 0.31275 0.856276 -0.411071 
0.235811 0.884039 -0.40357 0.147859 0.91791 -0.368212 0.0211931 0.942666 -0.333066 
-0.104795 0.949653 -0.295257 -0.200645 0.952345 -0.229739 -0.265259 0.950997 -0.158879 
-0.353072 0.930437 -0.0981211 0.510136 0.74345 -0.432484 0.35753 0.841647 -0.404725 
0.406195 0.811331 -0.420413 0.305488 0.808652 -0.502751 0.232662 0.757139 -0.610417 
-0.177481 0.827772 -0.532254 -0.355951 0.929385 -0.0976817 -0.351763 0.929089 -0.114267 
-0.471073 0.876179 -0.101981 0.547276 0.717689 -0.430595 0.639293 0.630141 -0.440711 
0.4982 0.692057 -0.522354 0.350415 0.594457 -0.723761 -0.612291 0.781669 -0.118715 
-0.628725 0.767195 -0.126953 0.691003 0.574899 -0.438184 0.76637 0.486298 -0.419751 
0.606446 0.540654 -0.583024 -0.750084 0.631315 -0.197016 -0.75672 0.621527 -0.202681 
0.770817 0.479346 -0.419604 0.761774 0.47896 -0.436231 0.51704 0.353042 -0.779764 
-0.811224 0.508691 -0.288356 -0.637227 0.327053 -0.697838 -0.842237 0.437753 -0.314657 
0.857808 0.340133 -0.385325 0.673857 0.332214 -0.659963 -0.880163 0.362637 -0.30628 
-0.805042 0.362247 -0.469771 0.91348 0.154044 -0.376597 -0.94133 0.120176 -0.315365 
-0.676774 0.0847179 -0.7313 0.922554 -0.0612898 -0.38097 -0.915032 -0.13682 -0.37947 
-0.712548 -0.160632 -0.682987 0.908612 -0.245976 -0.33752 0.597337 -0.218703 -0.771594 
-0.80721 -0.42297 -0.411715 -0.745202 -0.514543 -0.424169 -0.734083 -0.438706 -0.518324 
0.769777 -0.547365 -0.328383 0.702291 -0.638468 -0.314875 0.671666 -0.539835 -0.507389 
-0.443055 -0.814811 -0.373879 -0.626512 -0.670671 -0.397093 -0.57976 -0.719795 -0.381801 
-0.564054 -0.614369 -0.551719 0.571754 -0.769307 -0.285068 0.508591 -0.816482 -0.273298 
0.5294 -0.727943 -0.4357 0.304884 -0.928634 -0.211386 0.18163 -0.97091 -0.156028 
0.0758345 -0.983146 -0.166354 -0.0367313 -0.988123 -0.149207 -0.032798 -0.984457 -0.172537 
0.0215926 -0.970849 -0.238716 0.0544069 -0.953929 -0.295057 -0.130475 -0.925662 -0.355142 
-0.260488 -0.891844 -0.369812 -0.224887 -0.637791 -0.736647 -0.427769 -0.825154 -0.368964 
-0.33349 -0.86787 -0.368219 -0.308615 -0.760624 -0.571146 0.00609354 -0.945458 -0.325687 
-0.0293408 -0.940534 -0.338431 -0.00893976 -0.941865 -0.335873 -0.00974165 -0.938813 -0.344289 
0.161251 0.722871 -0.671904 0.0393507 0.737622 -0.674067 -0.0731603 0.727719 -0.681962 
-0.117379 0.745806 -0.655741 0.294664 0.607444 -0.737689 0.18147 0.713708 -0.676528 
0.229496 0.669724 -0.706259 0.160219 0.702509 -0.693405 0.0347214 0.668077 -0.743282 
-0.0714691 0.668659 -0.740126 -0.123944 0.748676 -0.651246 -0.115869 0.735728 -0.667292 
-0.144831 0.750728 -0.64454 -0.281379 0.766225 -0.57769 -0.447028 0.657305 -0.606725 
0.418439 0.449482 -0.789224 0.329761 0.563762 -0.757252 0.337935 0.546594 -0.766182 
0.283347 0.509052 -0.812761 0.207875 0.44429 -0.871432 0.0898833 0.359376 -0.928854 
-0.0218285 0.32597 -0.945128 -0.0155624 0.334625 -0.942223 -0.0187742 0.41112 -0.911388 
-0.0756422 0.493391 -0.866512 -0.229965 0.529342 -0.816647 -0.472296 0.63546 -0.610841 
-0.439029 0.624553 -0.6459 -0.55381 0.494105 -0.67019 0.424557 0.441654 -0.790375 
0.414335 0.437024 -0.798333 0.282539 0.383045 -0.879459 0.19006 0.292442 -0.937206 
0.117499 0.23323 -0.965297 0.0542998 0.173208 -0.983387 -0.00209742 0.210121 -0.977673 
0.0143204 0.218781 -0.975669 -0.175719 0.233163 -0.95643 -0.352622 0.301629 -0.88582 
-0.555656 0.478766 -0.679728 -0.539301 0.456683 -0.707528 0.494508 0.341137 -0.799429 
0.498877 0.333118 -0.800096 0.36183 0.29053 -0.885817 0.228003 0.237234 -0.944317 
0.13925 0.175698 -0.974546 -0.270169 0.0873029 -0.958847 -0.611421 0.309135 -0.728422 
-0.406563 0.202687 -0.890856 -0.604394 0.288698 -0.742537 0.540067 0.296601 -0.787626 
0.598011 0.203046 -0.775342 0.440608 0.238979 -0.865305 0.274578 0.180708 -0.944432 
0.161375 0.128274 -0.978521 -0.218723 0.036582 -0.975101 -0.304976 0.0809507 -0.948913 
-0.549552 0.209355 -0.808803 -0.469153 0.169437 -0.86671 0.613985 0.156794 -0.773588 
0.582302 0.15421 -0.798213 0.365058 0.0879454 -0.926822 0.253311 0.0752972 -0.96445 
-0.186178 -0.00797472 -0.982484 -0.276276 0.0150086 -0.960961 -0.493544 0.0503987 -0.868259 
-0.439845 0.0348954 -0.897396 0.649666 -0.0515355 -0.758471 0.595622 -0.18797 -0.780962 
0.611235 -0.0524265 -0.789711 0.386136 0.0071467 -0.922414 0.236413 -0.00457901 -0.971642 
-0.170309 -0.0714145 -0.982799 -0.265568 -0.106162 -0.958229 -0.525887 -0.140955 -0.838794 
-0.407715 -0.123262 -0.904751 0.57854 -0.218743 -0.785775 0.396546 -0.180566 -0.900082 
0.198099 -0.171061 -0.96514 0.0851369 -0.104387 -0.990886 -0.0539825 -0.114566 -0.991948 
0.037246 -0.14156 -0.989229 -0.0917478 -0.379016 -0.920831 -0.0192852 -0.278295 -0.960302 
0.0108397 -0.235724 -0.97176 -0.0612907 -0.238744 -0.969146 -0.191125 -0.244414 -0.950649 
-0.316519 -0.270985 -0.909056 -0.494308 -0.327378 -0.805285 -0.488498 -0.337014 -0.804854 
-0.484174 -0.324623 -0.812524 0.490985 -0.423361 -0.76138 0.477292 -0.44416 -0.758231 
0.467537 -0.418375 -0.778699 0.285196 -0.324332 -0.901927 0.14065 -0.315918 -0.938304 
-0.0108041 -0.267996 -0.963359 -0.0357447 -0.246081 -0.96859 -0.0601668 -0.241843 -0.968448 
-0.046304 -0.320867 -0.945992 -0.0232861 -0.297738 -0.954364 -0.0266997 -0.275791 -0.960847 
-0.0547344 -0.330095 -0.94236 -0.211603 -0.600204 -0.771349 -0.120006 -0.401189 -0.9081 
-0.258062 -0.585871 -0.768218 -0.213243 -0.461721 -0.861012 -0.353981 -0.526376 -0.773063 
-0.351608 -0.528995 -0.772358 -0.351173 -0.525777 -0.774749 0.32922 -0.659348 -0.675925 
0.302158 -0.68193 -0.666087 0.299188 -0.658953 -0.690122 0.171311 -0.708206 -0.684907 
0.154566 -0.601259 -0.783962 0.064594 -0.753029 -0.654809 0.064687 -0.5571 -0.827922 
-0.0187544 -0.740969 -0.671277 -0.0287053 -0.547457 -0.836341 -0.0497588 -0.729272 -0.682412 
-0.0502073 -0.555039 -0.830308 -0.0365472 -0.700442 -0.712773 -0.0451266 -0.558123 -0.82853 
-0.0177657 -0.662655 -0.748714 -0.0296636 -0.538108 -0.842354 -0.0409689 -0.638242 -0.768745 
-0.0410651 -0.533492 -0.844807 -0.19879 -0.607222 -0.769262 -0.13677 -0.625574 -0.768082 
-0.129535 -0.551676 -0.823938 0.0522625 0.2701 -0.961413 -0.0333239 0.314362 -0.948718 
0.0970556 0.185109 -0.977914 0.0573655 0.184345 -0.981186 -0.0015965 0.210868 -0.977513 
0.041904 0.24633 -0.96828 0.0190472 0.220397 -0.975224 0.0574855 0.261004 -0.963625 
-0.130543 0.244752 -0.960758 -0.02547 0.273478 -0.961541 -0.185117 0.180806 -0.96594 
0.116494 0.169453 -0.978629 0.130187 0.144026 -0.980973 0.0889895 0.16218 -0.98274 
0.0773573 0.234037 -0.969145 0.0171599 0.240963 -0.970383 0.0364232 0.22641 -0.973351 
0.0423673 0.236289 -0.970759 -0.0998694 0.117512 -0.988037 -0.230213 0.0648704 -0.970976 
-0.209219 0.0568497 -0.976215 0.156817 0.124687 -0.979725 0.157716 0.110618 -0.981269 
0.11467 0.0870579 -0.989582 0.171622 0.0668392 -0.982893 0.116682 0.082769 -0.989714 
-0.0138855 -0.0103046 -0.999851 0.0272655 0.0557674 -0.998071 -0.0413033 0.106218 -0.993485 
-0.206567 0.00542403 -0.978417 -0.213503 0.0140652 -0.976841 -0.210983 -0.00648733 -0.977468 
0.163803 0.033982 -0.985908 0.140437 0.0251143 -0.989771 0.0733137 -0.00559223 -0.997293 
0.0924696 -0.0940654 -0.991262 0.00825864 -0.183306 -0.983021 -0.0126968 -0.00694256 -0.999895 
0.152986 0.00323165 -0.988223 -0.00842265 -0.126553 -0.991924 -0.22114 -0.106967 -0.969358 
-0.176532 -0.0233963 -0.984017 -0.171095 -0.0357227 -0.984607 0.129534 -0.0211529 -0.991349 
0.084763 -0.0783807 -0.993313 0.0852095 -0.0289801 -0.995942 -0.00435843 -0.0603333 -0.998169 
-0.0268433 -0.115681 -0.992924 -0.00866358 -0.117275 -0.993062 0.142124 -0.180573 -0.973239 
0.199142 -0.20362 -0.958583 0.174247 -0.0534597 -0.98325 -0.0975632 -0.361233 -0.927358 
-0.105131 -0.151051 -0.98292 -0.0792949 -0.304882 -0.949084 -0.1555 -0.330938 -0.930752 
-0.0383228 -0.208189 -0.977337 -0.0962573 -0.185883 -0.977846 -0.1199 -0.0926337 -0.988455 
-0.108438 -0.110389 -0.987955 -0.114319 -0.0955638 -0.988837 0.0153086 -0.110085 -0.993804 
-0.0211363 -0.113285 -0.993338 -0.0155333 -0.121191 -0.992508 -0.0154565 -0.112942 -0.993481 
0.028191 -0.333856 -0.942202 -0.0209356 -0.394436 -0.918685 0.0161675 -0.391668 -0.919965 
0.0263011 -0.399948 -0.91616 
