# vtk DataFile Version 4.2
vtk output
ASCII
DATASET POLYDATA
POINTS 534 float
-28.9531 -37.7569 -15.3717 -20.929 -37.7569 -17.3907 -12.905 -37.7569 -18.674 
-4.88088 -37.7569 -18.8534 3.14318 -37.7569 -17.6464 11.1672 -37.7569 -15.112 
-36.9771 -29.7328 -17.3268 -28.9531 -29.7328 -19.7667 -20.929 -29.7328 -20.4516 
-12.905 -29.7328 -20.9904 -4.88088 -29.7328 -21.0519 3.14318 -29.7328 -20.5121 
11.1672 -29.7328 -19.3873 19.1913 -29.7328 -18.4885 27.2154 -29.7328 -17.2531 
35.2394 -29.7328 -15.8412 -45.0012 -21.7088 -17.6566 -36.9771 -21.7088 -20.0391 
-28.9531 -21.7088 -20.8606 -20.929 -21.7088 -20.9089 -12.905 -21.7088 -21.2075 
-4.88088 -21.7088 -21.1342 3.14318 -21.7088 -21.0966 11.1672 -21.7088 -20.4015 
19.1913 -21.7088 -20.1633 27.2154 -21.7088 -20.8741 35.2394 -21.7088 -20.9792 
43.2635 -21.7088 -19.7347 51.2876 -21.7088 -14.7778 -53.0253 -13.6847 -14.8683 
-45.0012 -13.6847 -20.0957 -36.9771 -13.6847 -20.9601 -28.9531 -13.6847 -20.9704 
-20.929 -13.6847 -20.1061 -12.905 -13.6847 -19.5855 -4.88088 -13.6847 -20.0151 
3.14318 -13.6847 -20.7256 11.1672 -13.6847 -20.2305 19.1913 -13.6847 -20.6482 
27.2154 -13.6847 -21.7176 35.2394 -13.6847 -22.0764 43.2635 -13.6847 -21.3277 
51.2876 -13.6847 -18.832 -53.0253 -5.66063 -16.4726 -45.0012 -5.66063 -19.9746 
-36.9771 -5.66063 -19.5899 -28.9531 -5.66063 -19.0281 -20.929 -5.66063 -17.2409 
-12.905 -5.66063 -16.8781 -4.88088 -5.66063 -18.8368 3.14318 -5.66063 -19.767 
11.1672 -5.66063 -22.2189 19.1913 -5.66063 -20.7885 27.2154 -5.66063 -21.6804 
35.2394 -5.66063 -22.3836 43.2635 -5.66063 -22.4659 51.2876 -5.66063 -21.2712 
59.3116 -5.66063 -15.4772 -53.0253 2.36343 -16.4009 -45.0012 2.36343 -17.9531 
-36.9771 2.36343 -17.6686 -28.9531 2.36343 -16.3838 -20.929 2.36343 -14.7781 
-4.88088 2.36343 -17.4338 3.14318 2.36343 -16.8715 11.1672 2.36343 -22.1515 
19.1913 2.36343 -20.4606 27.2154 2.36343 -21.1464 35.2394 2.36343 -21.8075 
43.2635 2.36343 -21.5809 51.2876 2.36343 -19.7951 59.3116 2.36343 -14.8003 
-53.0253 10.3875 -15.0763 -45.0012 10.3875 -16.0884 -36.9771 10.3875 -17.4439 
-28.9531 10.3875 -15.5621 3.14318 10.3875 -17.0199 11.1672 10.3875 -20.0196 
19.1913 10.3875 -20.0865 27.2154 10.3875 -20.696 35.2394 10.3875 -20.9988 
43.2635 10.3875 -20.1983 51.2876 10.3875 -17.8473 -45.0012 18.4116 -15.4991 
-36.9771 18.4116 -15.0059 -28.9531 18.4116 -14.8851 -20.929 18.4116 -14.6224 
11.1672 18.4116 -18.0432 19.1913 18.4116 -19.7062 27.2154 18.4116 -20.2708 
35.2394 18.4116 -19.9538 43.2635 18.4116 -18.6389 51.2876 18.4116 -14.7648 
-20.929 26.4356 -14.8813 -12.905 26.4356 -14.6144 11.1672 26.4356 -15.0854 
19.1913 26.4356 -17.3849 27.2154 26.4356 -18.1882 35.2394 26.4356 -17.0383 
-28.9531 -38.5621 -14.5691 -20.929 -41.0035 -14.5691 -12.905 -42.4547 -14.5691 
-12.905 -45.781 -6.65701 -4.88088 -42.5776 -14.5691 -4.88088 -45.781 -6.98783 
3.14318 -41.2307 -14.5691 11.1672 -38.3425 -14.5691 -30.4236 -37.7569 -14.5691 
-36.9771 -33.1846 -14.5691 -36.9771 -37.7569 -6.82546 12.5611 -37.7569 -14.5691 
19.1913 -34.6632 -14.5691 19.1913 -37.7569 -8.31967 27.2154 -32.3579 -14.5691 
35.2394 -30.7841 -14.5691 -41.3062 -29.7328 -14.5691 -45.0012 -26.491 -14.5691 
-45.0012 -29.7328 -8.36411 37.9192 -29.7328 -14.5691 43.2635 -27.0794 -14.5691 
51.2876 -21.9507 -14.5691 -49.0428 -21.7088 -14.5691 -53.0253 -14.3875 -14.5691 
51.5411 -21.7088 -14.5691 -53.3376 -13.6847 -14.5691 56.9712 -13.6847 -14.5691 
59.3116 -7.98987 -14.5691 59.3116 -13.6847 -11.2482 -55.4594 -5.66063 -14.5691 
-12.905 -1.99344 -14.5691 60.0795 -5.66063 -14.5691 -55.5905 2.36343 -14.5691 
-61.0493 2.36343 -7.40395 -20.28 2.36343 -14.5691 -20.929 3.77425 -14.5691 
-9.00485 2.36343 -14.5691 -12.905 2.36343 -11.4143 -4.88088 8.35795 -14.5691 
59.5154 2.36343 -14.5691 59.3116 2.96962 -14.5691 -53.7531 10.3875 -14.5691 
-53.0253 11.2309 -14.5691 -24.864 10.3875 -14.5691 -20.929 17.9839 -14.5691 
-20.929 10.3875 -13.6141 -12.905 10.3875 -12.2419 -2.62686 10.3875 -14.5691 
-4.88088 10.3875 -13.6865 3.14318 18.0334 -14.5691 56.2794 10.3875 -14.5691 
59.3116 10.3875 -11.1735 -47.0641 18.4116 -14.5691 -53.0253 18.4116 -10.6006 
-45.0012 20.2991 -14.5691 -36.9771 20.2472 -14.5691 -28.9531 20.338 -14.5691 
-19.7624 18.4116 -14.5691 -12.905 25.4306 -14.5691 -12.905 18.4116 -14.2561 
-4.88088 18.4116 -13.7328 3.38838 18.4116 -14.5691 3.14318 18.4116 -14.4611 
43.2635 26.1751 -14.5691 51.5658 18.4116 -14.5691 51.2876 18.7158 -14.5691 
-45.0012 26.4356 -10.2205 -36.9771 26.4356 -12.8384 -22.9556 26.4356 -14.5691 
-28.9531 26.4356 -13.5136 -20.929 27.4941 -14.5691 -11.8162 26.4356 -14.5691 
-12.905 26.6576 -14.5691 -4.88088 26.4356 -14.2511 9.06024 26.4356 -14.5691 
3.14318 26.4356 -13.2896 11.1672 27.4099 -14.5691 19.1913 31.1853 -14.5691 
27.2154 32.2646 -14.5691 42.8812 26.4356 -14.5691 35.2394 30.0799 -14.5691 
43.2635 26.4356 -14.3576 -28.9531 34.4597 -9.7352 -20.929 34.4597 -12.0199 
-12.905 34.4597 -12.8922 -4.88088 34.4597 -12.3617 3.14318 34.4597 -10.4598 
11.1672 34.4597 -10.5729 19.1913 34.4597 -12.1329 27.2154 34.4597 -12.3358 
35.2394 34.4597 -8.98499 -12.905 42.4838 -6.94446 -12.905 -45.8181 -6.54504 
-4.88088 -45.9301 -6.54504 -36.9771 -37.8707 -6.54504 -28.9531 -42.3577 -6.54504 
-13.2124 -45.781 -6.54504 -20.929 -44.8156 -6.54504 -12.905 -45.781 -6.19127 
-3.3856 -45.781 -6.54504 -4.88088 -45.781 -4.61582 3.14318 -45.1057 -6.54504 
11.1672 -42.6525 -6.54504 19.1913 -38.4404 -6.54504 -37.1189 -37.7569 -6.54504 
-45.0012 -30.4209 -6.54504 -36.9771 -37.7569 -5.75471 20.6266 -37.7569 -6.54504 
27.2154 -35.0035 -6.54504 35.2394 -32.1987 -6.54504 -45.6353 -29.7328 -6.54504 
-45.0012 -29.7328 -4.60631 42.5167 -29.7328 -6.54504 43.2635 -29.469 -6.54504 
51.2876 -25.4297 -6.54504 -52.0071 -21.7088 -6.54504 -53.0253 -20.1263 -6.54504 
55.3917 -21.7088 -6.54504 59.3116 -17.2223 -6.54504 -56.4809 -13.6847 -6.54504 
-53.0253 -13.6847 1.00829 61.3996 -13.6847 -6.54504 59.3116 -13.6847 1.01481 
-59.7159 -5.66063 -6.54504 -61.0493 0.624673 -6.54504 64.2951 -5.66063 -6.54504 
-61.3647 2.36343 -6.54504 -61.0493 5.52228 -6.54504 -61.0493 2.36343 -4.95854 
64.1488 2.36343 -6.54504 -60.454 10.3875 -6.54504 62.0457 10.3875 -6.54504 
59.3116 16.7071 -6.54504 -57.2565 18.4116 -6.54504 -53.0253 24.4199 -6.54504 
58.3431 18.4116 -6.54504 51.2876 26.0238 -6.54504 -50.899 26.4356 -6.54504 
-53.0253 26.4356 -1.22038 -45.0012 30.4164 -6.54504 -36.9771 34.4352 -6.54504 
50.8237 26.4356 -6.54504 43.2635 31.7962 -6.54504 51.2876 26.4356 -2.94061 
-36.9252 34.4597 -6.54504 -36.9771 34.4597 -6.50738 -28.9531 37.6145 -6.54504 
-20.929 40.8185 -6.54504 -4.88088 41.84 -6.54504 3.14318 39.3679 -6.54504 
11.1672 38.3166 -6.54504 19.1913 38.5843 -6.54504 27.2154 37.9029 -6.54504 
38.1584 34.4597 -6.54504 35.2394 35.8069 -6.54504 -14.3909 42.4838 -6.54504 
-20.929 42.4838 -2.03592 -9.7485 42.4838 -6.54504 -12.905 42.8061 -6.54504 
-4.88088 42.4838 -5.06974 3.14318 42.4838 1.09058 -28.9531 -41.8349 1.47902 
-20.929 -44.1944 1.47902 -12.905 -44.9697 1.47902 -4.88088 -45.3063 1.47902 
3.14318 -45.0373 1.47902 11.1672 -42.8805 1.47902 19.1913 -38.2374 1.47902 
-35.3601 -37.7569 1.47902 -36.9771 -36.4872 1.47902 20.0726 -37.7569 1.47902 
19.1913 -37.7569 2.97794 27.2154 -34.214 1.47902 35.2394 -30.5838 1.47902 
-42.9819 -29.7328 1.47902 -45.0012 -26.8314 1.47902 37.3752 -29.7328 1.47902 
35.2394 -29.7328 3.61207 43.2635 -27.3625 1.47902 51.2876 -22.4791 1.47902 
-48.4702 -21.7088 1.47902 -45.0012 -21.7088 8.48746 52.2905 -21.7088 1.47902 
51.2876 -21.7088 2.52978 -52.8024 -13.6847 1.47902 -53.0253 -13.2509 1.47902 
59.1625 -13.6847 1.47902 59.3116 -13.3901 1.47902 -57.6788 -5.66063 1.47902 
-53.0253 -5.66063 7.44911 62.9591 -5.66063 1.47902 59.3116 -5.66063 7.71584 
-59.6345 2.36343 1.47902 63.5442 2.36343 1.47902 59.3116 2.36343 8.75127 
-59.7806 10.3875 1.47902 62.1965 10.3875 1.47902 59.3116 18.3337 1.47902 
59.3116 10.3875 7.48408 -58.5536 18.4116 1.47902 59.2738 18.4116 1.47902 
-53.8783 26.4356 1.47902 -53.0253 27.2553 1.47902 -53.0253 26.4356 4.9815 
-45.0012 33.4843 1.47902 43.2635 32.4404 1.47902 51.6972 26.4356 1.47902 
51.2876 26.8164 1.47902 51.2876 26.4356 2.43541 -43.2947 34.4597 1.47902 
-36.9771 37.8771 1.47902 -28.9531 40.7836 1.47902 11.1672 41.1061 1.47902 
19.1913 40.4315 1.47902 27.2154 39.1926 1.47902 39.5583 34.4597 1.47902 
35.2394 36.5217 1.47902 35.2394 34.4597 9.10004 -23.9948 42.4838 1.47902 
-20.929 43.484 1.47902 -12.905 45.032 1.47902 -4.88088 44.44 1.47902 
-4.88088 42.4838 8.86225 3.75676 42.4838 1.47902 3.14318 42.6082 1.47902 
3.14318 42.4838 1.94151 -28.9531 -38.8142 9.50309 -20.929 -40.8914 9.50309 
-12.905 -41.398 9.50309 -4.88088 -41.7066 9.50309 3.14318 -41.7003 9.50309 
11.1672 -39.71 9.50309 -30.6416 -37.7569 9.50309 -36.9771 -32.9616 9.50309 
-28.9531 -37.7569 10.8964 -20.929 -37.7569 13.5246 -12.905 -37.7569 14.015 
-4.88088 -37.7569 14.1294 3.14318 -37.7569 13.8489 15.0956 -37.7569 9.50309 
11.1672 -37.7569 11.7553 19.1913 -35.5124 9.50309 27.2154 -30.9666 9.50309 
-39.6356 -29.7328 9.50309 -36.9771 -29.7328 13.0191 11.1672 -29.7328 17.2481 
19.1913 -29.7328 14.8244 29.8101 -29.7328 9.50309 27.2154 -29.7328 10.9497 
35.2394 -26.7818 9.50309 43.2635 -22.0362 9.50309 -44.4408 -21.7088 9.50309 
-45.0012 -20.4742 9.50309 27.2154 -21.7088 16.6422 35.2394 -21.7088 13.8674 
43.7485 -21.7088 9.50309 43.2635 -21.7088 9.81351 51.2876 -15.5049 9.50309 
-47.9136 -13.6847 9.50309 -45.0012 -13.6847 13.151 35.2394 -13.6847 16.6886 
43.2635 -13.6847 14.3204 52.8454 -13.6847 9.50309 51.2876 -13.6847 10.7215 
-51.4861 -5.66063 9.50309 -53.0253 -2.80071 9.50309 -45.0012 -5.66063 16.2971 
43.2635 -5.66063 16.8409 57.5587 -5.66063 9.50309 51.2876 -5.66063 13.7595 
-55.3108 2.36343 9.50309 -53.0253 2.36343 12.2833 58.6632 2.36343 9.50309 
51.2876 2.36343 15.2442 -55.9325 10.3875 9.50309 -53.0253 10.3875 13.2616 
58.0449 10.3875 9.50309 51.2876 10.3875 15.5225 -55.498 18.4116 9.50309 
-53.0253 24.4716 9.50309 -53.0253 18.4116 12.9905 54.6635 18.4116 9.50309 
51.2876 22.5729 9.50309 51.2876 18.4116 13.1555 -52.0185 26.4356 9.50309 
[...]
POINT_DATA 534
SCALARS ImageScalars float
LOOKUP_TABLE default
0 0 0 0 0 0 0 0 0 
0 0 0 0 0 0 0 0 0 
0 0 0 0 0 0 0 0 0 
0 0 0 0 0 0 0 0 0 
0 0 0 0 0 0 0 0 0 
0 0 0 0 0 0 0 0 0 
0 0 0 0 0 0 0 0 0 
0 0 0 0 0 0 0 0 0 
0 0 0 0 0 0 0 0 0 
0 0 0 0 0 0 0 0 0 
0 0 0 0 0 0 0 0 0 
0 0 0 0 0 0 0 0 0 
0 0 0 0 0 0 0 0 0 
0 0 0 0 0 0 0 0 0 
0 0 0 0 0 0 0 0 0 
0 0 0 0 0 0 0 0 0 
0 0 0 0 0 0 0 0 0 
0 0 0 0 0 0 0 0 0 
0 0 0 0 0 0 0 0 0 
0 0 0 0 0 0 0 0 0 
0 0 0 0 0 0 0 0 0 
0 0 0 0 0 0 0 0 0 
0 0 0 0 0 0 0 0 0 
0 0 0 0 0 0 0 0 0 
0 0 0 0 0 0 0 0 0 
0 0 0 0 0 0 0 0 0 
0 0 0 0 0 0 0 0 0 
0 0 0 0 0 0 0 0 0 
0 0 0 0 0 0 0 0 0 
0 0 0 0 0 0 0 0 0 
0 0 0 0 0 0 0 0 0 
0 0 0 0 0 0 0 0 0 
0 0 0 0 0 0 0 0 0 
0 0 0 0 0 0 0 0 0 
0 0 0 0 0 0 0 0 0 
0 0 0 0 0 0 0 0 0 
0 0 0 0 0 0 0 0 0 
0 0 0 0 0 0 0 0 0 
0 0 0 0 0 0 0 0 0 
0 0 0 0 0 0 0 0 0 
0 0 0 0 0 0 0 0 0 
0 0 0 0 0 0 0 0 0 
0 0 0 0 0 0 0 0 0 
0 0 0 0 0 0 0 0 0 
0 0 0 0 0 0 0 0 0 
0 0 0 0 0 0 0 0 0 
0 0 0 0 0 0 0 0 0 
0 0 0 0 0 0 0 0 0 
0 0 0 0 0 0 0 0 0 
0 0 0 0 0 0 0 0 0 
0 0 0 0 0 0 0 0 0 
0 0 0 0 0 0 0 0 0 
0 0 0 0 0 0 0 0 0 
0 0 0 0 0 0 0 0 0 
0 0 0 0 0 0 0 0 0 
0 0 0 0 0 0 0 0 0 
0 0 0 0 0 0 0 0 0 
0 0 0 0 0 0 0 0 0 
0 0 0 0 0 0 0 0 0 
0 0 0 
NORMALS Normals float
0.334742 0.67453 0.657994 0.176689 0.56825 0.803662 0.0854305 0.505678 0.858482 
-0.0561025 0.49053 0.869617 -0.203226 0.541234 0.815944 -0.304237 0.65342 0.693168 
0.40796 0.490914 0.769787 0.165617 0.290491 0.942436 0.0707809 0.189692 0.979289 
0.0394435 0.144024 0.988788 -0.0293409 0.122961 0.991978 -0.0995584 0.184736 0.977732 
-0.121059 0.283664 0.951252 -0.1271 0.440116 0.8889 -0.147255 0.654292 0.741766 
-0.26395 0.780629 0.566523 0.490987 0.418401 0.764115 0.187881 0.194356 0.96277 
0.0501208 0.0698137 0.9963 0.0220513 -0.0203526 0.99955 0.0147276 -0.083344 0.996412 
-0.00688543 -0.062389 0.998028 -0.0452556 0.0132233 0.998888 -0.0578449 0.048235 0.99716 
0.0283796 0.116591 0.992774 0.0502456 0.242945 0.968738 -0.0609183 0.358292 0.93162 
-0.307664 0.451776 0.837402 -0.588113 0.566334 0.577398 0.710467 0.295486 0.63869 
0.327601 0.124063 0.936635 0.0466829 -0.0324573 0.998382 -0.0525338 -0.100187 0.993581 
-0.0848274 -0.207647 0.974519 -0.00596638 -0.242188 0.970211 0.0702616 -0.141351 0.987463 
0.0122686 -0.0723844 0.997301 -0.00487996 0.101897 0.994783 0.0922028 0.038424 0.994999 
0.0882371 0.0485366 0.994916 -0.0247209 0.078261 0.996626 -0.172835 0.145616 0.974127 
-0.431378 0.330905 0.839294 0.550472 0.0798648 0.831025 0.216539 -0.135962 0.96676 
-0.0515877 -0.198677 0.978706 -0.134235 -0.279352 0.950759 -0.12092 -0.334212 0.934709 
0.110948 -0.421664 0.899939 0.166684 -0.161586 0.97268 0.222583 -0.208895 0.952271 
0.0398288 0.125427 0.991303 -0.0249136 -0.0114309 0.999624 0.0985866 -0.0350669 0.99451 
0.0486708 -0.0169184 0.998672 -0.0576648 0.0178404 0.998177 -0.318233 0.0461276 0.94689 
-0.741112 0.105365 0.663062 0.420642 -0.0740117 0.904203 0.0556904 -0.221043 0.973673 
-0.0930715 -0.134762 0.986497 -0.178488 -0.199792 0.963444 -0.256408 -0.218268 0.941602 
0.255827 -0.338568 0.905497 0.355079 -0.177077 0.917912 0.12152 -0.133669 0.983547 
-0.059244 -0.0444658 0.997253 0.0833135 -0.061306 0.994636 0.026897 -0.0858985 0.995941 
-0.112434 -0.137815 0.984056 -0.319269 -0.193397 0.92772 -0.71215 -0.166484 0.682001 
0.359114 -0.321589 0.876138 0.1289 -0.153847 0.979651 -0.0425522 -0.159003 0.986361 
-0.228635 -0.087742 0.96955 0.369495 -0.142445 0.91825 0.164407 -0.243585 0.955844 
0.0416524 -0.045556 0.998093 0.0566962 -0.0534306 0.996961 -0.0290803 -0.110759 0.993422 
-0.178911 -0.164385 0.970035 -0.400009 -0.27158 0.87535 0.206407 -0.292539 0.933711 
-0.0437122 -0.261093 0.964324 -0.0235173 -0.121942 0.992259 -0.0389817 0.0793854 0.996082 
0.29271 -0.271696 0.916789 0.132586 -0.15279 0.979324 0.0155731 -0.14465 0.98936 
-0.0875785 -0.232985 0.968529 -0.285804 -0.309404 0.906965 -0.509295 -0.45293 0.73176 
0.0629054 -0.138293 0.988392 -0.038717 -0.0789064 0.99613 0.238074 -0.403413 0.883504 
0.167088 -0.386033 0.907227 -0.0208172 -0.3942 0.918789 -0.193883 -0.456644 0.868266 
0.345685 0.707583 0.616303 0.197803 0.728893 0.655431 0.0798514 0.775066 0.626814 
0.0669141 0.99077 0.117884 -0.0604944 0.791058 0.608742 -0.0431582 0.987917 0.148854 
-0.212961 0.731685 0.647521 -0.310927 0.677872 0.666194 0.378477 0.695048 0.61128 
0.490489 0.622355 0.609995 0.595591 0.792655 0.130271 -0.313053 0.6855 0.657334 
-0.274847 0.705745 0.65298 -0.420793 0.874758 0.240274 -0.205665 0.794513 0.571359 
-0.278549 0.827573 0.487374 0.547421 0.606555 0.576559 0.589247 0.578887 0.563629 
0.723663 0.679577 0.120364 -0.315294 0.815883 0.484691 -0.383524 0.770451 0.509229 
-0.589543 0.57738 0.564864 0.670237 0.478477 0.567312 0.721217 0.319284 0.614739 
-0.595866 0.570282 0.56544 0.723199 0.302935 0.620655 -0.698117 0.355474 0.621507 
-0.762075 0.180578 0.621799 -0.839046 0.410558 0.356994 0.677567 0.113232 0.726692 
0.157341 -0.45837 0.874723 -0.765378 0.112176 0.63373 0.55563 -0.0595773 0.829293 
0.987211 0.0449293 0.15296 -0.236674 -0.228284 0.94439 -0.251811 -0.17811 0.951246 
0.269275 -0.408066 0.872338 0.0761906 -0.278246 0.957483 0.308893 -0.26731 0.91276 
-0.719948 -0.165842 0.673922 -0.716522 -0.178321 0.674387 0.404029 -0.31957 0.857109 
0.379229 -0.333792 0.862999 -0.2128 -0.0457096 0.976026 -0.0477351 0.0748778 0.99605 
-0.20057 0.00200511 0.979677 -0.000989283 0.167398 0.985889 0.331673 -0.19229 0.923589 
0.295672 -0.188765 0.936454 0.271386 -0.208541 0.939606 -0.608599 -0.302591 0.733516 
-0.800356 -0.332828 0.498654 0.288934 -0.324637 0.900627 0.570177 -0.453327 0.685123 
0.233512 -0.357463 0.904263 -0.000954436 -0.288877 0.957366 0.00889293 -0.154125 0.988011 
-0.0413155 0.0890728 0.995168 -0.0411461 -0.0508831 0.997857 -0.0549191 0.144279 0.988012 
0.0110197 0.0315652 0.999441 0.266609 -0.21569 0.93936 0.26384 -0.212106 0.940957 
-0.417068 -0.575727 0.703273 -0.517659 -0.456371 0.723709 -0.51382 -0.461758 0.723027 
0.343918 -0.596453 0.725234 0.178301 -0.418417 0.890582 0.0756364 -0.167504 0.982966 
0.119167 -0.27017 0.95541 0.0727975 -0.176578 0.981591 -0.0448259 -0.0779925 0.995946 
-0.0374253 -0.0865137 0.995547 -0.0845574 -0.0731535 0.99373 0.187453 -0.363049 0.912719 
0.0455576 -0.232363 0.971562 0.223042 -0.425227 0.877174 0.146698 -0.547416 0.823902 
-0.0503143 -0.648846 0.759254 -0.40983 -0.578382 0.705346 -0.243604 -0.604993 0.75805 
-0.424188 -0.588363 0.6884 0.288776 -0.622371 0.727504 0.163216 -0.47882 0.862607 
0.0194547 -0.382213 0.923869 -0.146203 -0.421129 0.89514 -0.102847 -0.487266 0.867176 
0.0802402 -0.652039 0.753928 0.0879521 -0.712991 0.695635 -0.0963562 -0.784745 0.612284 
-0.319659 -0.859794 0.398211 0.0518719 -0.837802 0.543504 0.0667322 0.991427 0.112331 
-0.0423662 0.990841 0.128212 0.59569 0.794837 0.115702 0.400908 0.902744 0.155965 
0.0713865 0.991002 0.113219 0.196781 0.96964 0.145174 0.0669479 0.993001 0.097298 
-0.0684988 0.988298 0.136291 -0.0314259 0.998512 0.0445679 -0.186969 0.965982 0.178663 
-0.371138 0.904137 0.211642 -0.439011 0.885284 0.153433 0.598467 0.792866 0.114895 
0.734803 0.678136 0.0140428 0.602856 0.793441 0.0837592 -0.423483 0.894711 0.141965 
-0.350402 0.931675 0.0959191 -0.315548 0.948909 -0.00137859 0.744826 0.667205 0.00845009 
0.751816 0.655724 -0.0692681 -0.352668 0.935748 -0.00127672 -0.360667 0.932693 0.00197299 
-0.575607 0.817698 0.0068237 0.815408 0.575264 -0.0646673 0.829951 0.553787 -0.0670922 
-0.69391 0.718931 0.040337 -0.832489 0.549649 0.069632 0.892696 0.449896 0.0262241 
0.759045 0.473992 -0.446298 -0.897264 0.432599 0.0881809 -0.805932 0.453491 -0.380551 
0.950237 0.284884 0.126055 0.990606 0.093402 0.0998762 -0.976421 0.172263 0.130108 
0.994742 0.0436752 0.0926313 0.99139 -0.0540302 0.119276 0.998715 0.0502768 0.00631876 
-0.976852 -0.127295 0.17192 0.957465 -0.222177 0.184115 -0.90987 -0.330643 0.250621 
-0.8143 -0.505187 0.285835 0.792476 -0.436907 0.425551 0.618709 -0.625975 0.474716 
-0.777782 -0.55608 0.292969 -0.644591 -0.711969 0.278574 0.553669 -0.662291 0.504797 
0.711756 -0.682263 0.167093 0.410331 -0.727616 0.54973 0.346375 -0.745184 0.569847 
-0.637112 -0.71902 0.277666 -0.517338 -0.813352 0.266122 -0.667691 -0.738187 0.0962689 
0.346467 -0.745313 0.569622 0.347089 -0.746614 0.567536 0.334755 -0.755452 0.563233 
0.258234 -0.803324 0.536644 -0.169993 -0.800268 0.575042 -0.17875 -0.754722 0.631224 
-0.0333368 -0.828128 0.559547 -0.0256363 -0.911824 0.40978 -0.157634 -0.928051 0.33745 
-0.394113 -0.877469 0.273353 -0.328479 -0.902433 0.278777 0.0932308 -0.8482 0.521406 
0.261751 -0.927792 0.265874 -0.0336281 -0.840509 0.540752 0.0545321 -0.850799 0.522655 
-0.169586 -0.873022 0.457244 -0.213385 -0.97589 0.0458809 0.397472 0.899026 -0.183763 
0.177729 0.959901 -0.216799 0.0672069 0.967305 -0.244548 0.00452081 0.973627 -0.2281 
-0.135275 0.975406 -0.174022 -0.36403 0.918958 -0.151651 -0.487067 0.861788 -0.141729 
0.590951 0.779599 -0.20737 0.648326 0.731392 -0.211517 -0.478955 0.865589 -0.146144 
-0.481662 0.853266 -0.199845 -0.414815 0.886242 -0.206162 -0.36733 0.891987 -0.263492 
0.757048 0.588468 -0.283873 0.772057 0.549606 -0.319156 -0.371558 0.883556 -0.285083 
-0.380484 0.863825 -0.33021 -0.408032 0.838365 -0.361461 -0.534803 0.747858 -0.393311 
0.792697 0.484207 -0.370371 0.788474 0.425902 -0.443752 -0.556148 0.733319 -0.391079 
-0.534919 0.728094 -0.42865 0.748126 0.469918 -0.468491 0.747756 0.469203 -0.469797 
-0.792815 0.45213 -0.408684 -0.798382 0.444161 -0.40658 0.856699 0.310805 -0.411663 
0.723221 0.391561 -0.568886 -0.923579 0.219107 -0.314632 -0.715584 0.270207 -0.644149 
0.928478 0.0991181 -0.357917 -0.965439 -0.0443072 -0.256837 -0.747906 -7.79277e-07 -0.663805 
0.960642 -0.0685395 -0.269202 -0.947105 -0.256329 -0.193102 -0.822179 -0.540276 -0.179228 
-0.831849 -0.218556 -0.510157 0.95669 -0.269661 -0.109665 -0.820398 -0.543155 -0.178688 
0.752897 -0.658015 0.0127446 0.729811 -0.683131 0.0266126 0.776255 -0.61527 -0.137368 
0.505241 -0.854292 0.12213 -0.528182 -0.842589 -0.105197 -0.673208 -0.728565 -0.126429 
-0.664912 -0.736241 -0.125862 -0.667443 -0.725629 -0.167281 0.47796 -0.867991 0.134702 
0.395952 -0.904024 0.161131 0.348098 -0.925506 0.149223 -0.133122 -0.990483 0.0349668 
-0.117056 -0.993118 0.00375601 -0.229268 -0.972515 -0.0406362 -0.458429 -0.8838 -0.0934856 
-0.376472 -0.922864 -0.0811841 -0.385385 -0.841965 -0.37759 0.290743 -0.950427 0.110259 
0.248175 -0.96421 0.0933201 0.0568659 -0.998015 0.027044 -0.141329 -0.989888 0.0121963 
-0.177996 -0.895778 -0.407306 -0.206311 -0.978174 0.0247107 -0.21252 -0.976878 0.0233427 
-0.211788 -0.977313 -0.00227977 0.364672 0.80324 -0.470978 0.134694 0.847429 -0.513538 
0.0438078 0.843015 -0.536103 0.0165171 0.832942 -0.553113 -0.108227 0.824414 -0.555544 
-0.310149 0.791246 -0.527008 0.419744 0.779063 -0.465699 0.658196 0.610069 -0.441128 
0.36027 0.774599 -0.519809 0.124031 0.745389 -0.65499 0.0263171 0.730148 -0.682782 
-0.0082588 0.695334 -0.718639 -0.111463 0.64597 -0.755182 -0.378496 0.778512 -0.50066 
-0.294931 0.717373 -0.631182 -0.427608 0.757154 -0.493831 -0.41328 0.753614 -0.511141 
0.724885 0.522666 -0.448734 0.645867 0.510815 -0.567383 -0.180612 0.353071 -0.917998 
-0.307029 0.538831 -0.784471 -0.404577 0.750815 -0.522106 -0.394056 0.71136 -0.581968 
-0.400729 0.707344 -0.582306 -0.43799 0.621226 -0.649803 0.781774 0.412868 -0.4673 
0.782586 0.399979 -0.47705 -0.250488 0.344537 -0.904738 -0.349128 0.484646 -0.802015 
-0.44119 0.615874 -0.652726 -0.436874 0.609716 -0.661352 -0.518182 0.460127 -0.720952 
0.74738 0.347759 -0.566116 0.719541 0.282382 -0.634446 -0.230628 0.237264 -0.943672 
-0.333728 0.348227 -0.875993 -0.55492 0.415766 -0.720557 -0.507119 0.410533 -0.757821 
0.70503 0.366477 -0.607147 0.725987 0.321296 -0.60804 0.626423 0.257988 -0.735552 
-0.252137 0.240312 -0.937378 -0.625117 0.261079 -0.735572 -0.455646 0.247502 -0.855061 
0.776939 0.196339 -0.598178 0.723027 0.214923 -0.656537 -0.708757 0.0113439 -0.705362 
-0.472902 0.0879403 -0.876716 0.840158 0.010788 -0.542234 0.757554 0.0348012 -0.651845 
-0.755241 -0.190933 -0.627021 -0.530678 -0.086908 -0.843106 0.84774 -0.198425 -0.491898 
0.80745 -0.448142 -0.383658 0.781189 -0.164809 -0.602148 -0.723236 -0.443299 -0.529543 
-0.660416 -0.563014 -0.496855 -0.622116 -0.405034 -0.670015 0.772648 -0.531587 -0.347032 
0.579509 -0.780091 -0.235855 0.556231 -0.408798 -0.723527 -0.384329 -0.833989 -0.395922 
-0.587471 -0.670416 -0.453234 -0.524577 -0.733416 -0.432343 -0.500563 -0.612966 -0.611318 
0.52495 -0.825884 -0.205777 0.413062 -0.889669 -0.194599 0.39679 -0.725657 -0.562121 
0.297385 -0.938327 -0.176366 -0.179552 -0.875848 -0.447942 -0.171862 -0.850415 -0.49725 
-0.132141 -0.596047 -0.792002 -0.0916775 -0.88286 -0.460602 -0.0321697 -0.670753 -0.740982 
-0.113469 -0.897948 -0.425222 -0.0641061 -0.69259 -0.718478 -0.378585 -0.8367 -0.395736 
-0.234448 -0.875787 -0.421937 -0.207934 -0.764243 -0.610488 0.186772 -0.950328 -0.248983 
0.163407 -0.950231 -0.265251 0.151988 -0.941373 -0.301193 -0.155416 -0.887068 -0.43469 
-0.0281917 -0.924786 -0.379443 -0.0469686 -0.894487 -0.44462 0.308895 0.509206 -0.803301 
0.105681 0.541781 -0.83385 0.00141698 0.568054 -0.82299 -0.0616361 0.549576 -0.833167 
-0.134832 0.41086 -0.901673 0.355237 0.485559 -0.798774 0.538589 0.321643 -0.77876 
0.302957 0.477177 -0.824936 0.0958564 0.398081 -0.912328 -0.001736 0.436228 -0.899835 
-0.0995514 0.458434 -0.883135 -0.168795 0.354344 -0.919755 -0.144802 0.370924 -0.917305 
-0.174918 0.329407 -0.927844 -0.177527 0.334724 -0.925443 0.543992 0.313297 -0.778407 
0.532791 0.309365 -0.787672 0.207183 0.217239 -0.953878 0.0849137 0.151949 -0.984734 
0.075163 0.143099 -0.98685 -0.0924797 0.222783 -0.970472 -0.227856 0.217637 -0.949061 
-0.150783 0.212885 -0.965373 -0.193231 0.304684 -0.932646 -0.141668 0.2754 -0.950834 
-0.217567 0.229028 -0.948794 0.563989 0.22282 -0.795153 0.441053 0.198841 -0.875177 
0.139528 0.109581 -0.984136 0.0241427 0.0666432 -0.997485 0.0822041 0.0205812 -0.996403 
-0.0299022 -0.0545595 -0.998063 -0.182609 -0.0553246 -0.981628 -0.130574 0.178996 -0.975147 
-0.150225 0.098944 -0.983688 -0.21156 0.182731 -0.960131 -0.193997 0.137033 -0.971384 
-0.18161 0.210554 -0.960565 0.573708 0.23135 -0.785708 0.57478 0.240591 -0.782141 
0.350241 0.14995 -0.924579 0.0878141 0.0885797 -0.992191 -0.00736985 0.0495718 -0.998743 
-0.0461587 0.0517433 -0.997593 -0.176963 -0.0352386 -0.983587 0.010352 -0.106457 -0.994263 
0.00873759 0.0669716 -0.997717 -0.200699 0.032814 -0.979103 -0.101294 0.0940745 -0.990399 
-0.19658 0.219445 -0.955615 -0.128746 0.189774 -0.97335 -0.250003 0.189476 -0.949525 
0.556504 0.224873 -0.799835 0.506855 0.219928 -0.833504 0.266266 0.101739 -0.958515 
0.045603 0.0479587 -0.997808 -0.010702 0.0201638 -0.999739 0.0117216 -0.0509314 -0.998633 
-0.202771 0.105509 -0.973525 -0.0647072 0.183835 -0.980825 -0.00418449 -0.051276 -0.998676 
-0.121598 0.0663021 -0.990363 -0.0379789 0.142777 -0.989026 -0.100192 0.146141 -0.984177 
-0.307971 0.119021 -0.943922 -0.252951 0.124439 -0.959443 0.614924 0.0607218 -0.786245 
0.462528 0.0549389 -0.884901 0.194083 0.0422137 -0.980076 0.00579439 0.0093207 -0.99994 
-0.104482 0.0273559 -0.994151 0.0231901 -0.0560925 -0.998156 0.051616 -0.0731786 -0.995982 
-0.142473 0.067561 -0.98749 -0.0996472 -0.0560592 -0.993442 -0.0024632 0.0562949 -0.998411 
-0.0291549 0.0899763 -0.995517 -0.13897 0.0408039 -0.989456 -0.395951 -0.0447313 -0.917181 
-0.290356 -0.00703788 -0.956893 0.609426 -0.150914 -0.778347 0.555414 -0.404945 -0.726315 
0.503572 -0.15065 -0.850717 0.205724 -0.0566712 -0.976968 0.0379995 -0.0514798 -0.997951 
-0.0834269 0.0280211 -0.99612 -0.0829843 0.00308177 -0.996546 -0.0525248 -0.147585 -0.987654 
-0.0773275 -0.196318 -0.977486 -0.0188765 -0.118373 -0.99279 0.029926 -0.100308 -0.994506 
-0.052676 -0.0962073 -0.993967 -0.186288 -0.176284 -0.966551 -0.399129 -0.264166 -0.878016 
-0.393102 -0.293341 -0.871448 -0.380928 -0.249926 -0.890186 0.554117 -0.407738 -0.725744 
0.384645 -0.669646 -0.635313 0.28644 -0.322043 -0.902353 0.092374 -0.220911 -0.97091 
-0.048689 -0.189834 -0.980608 -0.146045 -0.167886 -0.974928 -0.154158 -0.253861 -0.954877 
-0.114495 -0.457021 -0.882056 -0.102659 -0.329895 -0.938419 -0.00998062 -0.453441 -0.891231 
-0.00499928 -0.307667 -0.951481 -0.0265659 -0.482359 -0.875571 0.00580643 -0.331057 -0.943593 
-0.134502 -0.513159 -0.847689 -0.108569 -0.405542 -0.907606 -0.264028 -0.461415 -0.846986 
-0.255114 -0.465293 -0.847596 -0.25204 -0.455139 -0.854005 0.350907 -0.687157 -0.636144 
0.202218 -0.707849 -0.676799 0.165729 -0.59028 -0.790002 0.0105497 -0.684014 -0.729393 
-0.0116028 -0.541888 -0.84037 -0.135342 -0.60314 -0.78607 -0.144982 -0.485066 -0.862376 
-0.203878 -0.525152 -0.826226 -0.205065 -0.525707 -0.825579 -0.205081 -0.524526 -0.826326 

