# vtk DataFile Version 4.2
vtk output
ASCII
DATASET POLYDATA
POINTS 514 float
34.2962 -0.587091 -23.7333 34.2962 7.43394 -23.6315 26.2751 15.455 -23.6595 
26.2751 23.476 -23.659 2.21202 -40.6923 -17.3248 10.2331 -40.6923 -18.4075 
18.2541 -40.6923 -17.4732 -21.8511 -32.6712 -16.3083 -13.83 -32.6712 -17.6478 
-5.80901 -32.6712 -19.4599 2.21202 -32.6712 -21.1198 10.2331 -32.6712 -21.4345 
18.2541 -32.6712 -20.6435 26.2751 -32.6712 -19.232 -29.8721 -24.6502 -18.0638 
-21.8511 -24.6502 -19.3266 -13.83 -24.6502 -20.1128 -5.80901 -24.6502 -21.3083 
2.21202 -24.6502 -22.3291 10.2331 -24.6502 -22.7266 18.2541 -24.6502 -22.0615 
26.2751 -24.6502 -21.4581 34.2962 -24.6502 -19.6992 -37.8931 -16.6292 -18.6295 
-29.8721 -16.6292 -20.3183 -21.8511 -16.6292 -20.7831 -13.83 -16.6292 -20.684 
-5.80901 -16.6292 -21.4892 2.21202 -16.6292 -22.6715 10.2331 -16.6292 -22.5763 
18.2541 -16.6292 -22.4542 26.2751 -16.6292 -22.5625 34.2962 -16.6292 -22.0344 
42.3172 -16.6292 -18.981 -37.8931 -8.60812 -19.9866 -29.8721 -8.60812 -21.4449 
-21.8511 -8.60812 -20.9973 -13.83 -8.60812 -20.5437 -5.80901 -8.60812 -20.7395 
2.21202 -8.60812 -22.8269 10.2331 -8.60812 -22.7933 18.2541 -8.60812 -22.395 
26.2751 -8.60812 -23.5042 34.2962 -3.45273 -23.5909 34.2962 -8.60812 -23.3313 
42.3172 -8.60812 -21.4715 -45.9142 -0.587091 -16.4985 -37.8931 -0.587091 -20.3555 
-29.8721 -0.587091 -20.9257 -21.8511 -0.587091 -20.7889 -13.83 -0.587091 -20.3695 
-5.80901 -0.587091 -20.6303 2.21202 -0.587091 -22.8186 10.2331 -0.587091 -22.6521 
18.2541 -0.587091 -21.8873 32.9132 -0.587091 -23.5909 26.2751 -0.587091 -22.9169 
35.1395 -0.587091 -23.5909 42.3172 -0.587091 -22.2712 50.3382 -0.587091 -17.212 
-45.9142 7.43394 -15.7954 -37.8931 7.43394 -19.7093 -29.8721 7.43394 -21.2319 
-21.8511 7.43394 -20.694 -13.83 7.43394 -20.6324 -5.80901 7.43394 -21.9537 
2.21202 7.43394 -23.1941 10.2331 7.43394 -22.0463 18.2541 7.43394 -22.0831 
32.5156 7.43394 -23.5909 26.2751 12.8221 -23.5909 26.2751 7.43394 -23.4423 
34.5438 7.43394 -23.5909 34.2962 8.27076 -23.5909 42.3172 7.43394 -22.1793 
50.3382 7.43394 -17.1273 -37.8931 15.455 -18.3919 -29.8721 15.455 -20.2264 
-21.8511 15.455 -20.6979 -13.83 15.455 -21.0073 -5.80901 15.455 -22.0307 
2.21202 15.455 -22.4407 10.2331 15.455 -22.2585 25.4896 15.455 -23.5909 
18.2541 15.455 -22.9583 27.6091 15.455 -23.5909 34.2962 15.455 -23.2361 
42.3172 15.455 -21.294 -29.8721 23.476 -18.3471 -21.8511 23.476 -19.6005 
-13.83 23.476 -20.684 -5.80901 23.476 -21.8588 2.21202 23.476 -22.4581 
10.2331 23.476 -22.5948 24.9808 23.476 -23.5909 18.2541 23.476 -23.246 
27.0469 23.476 -23.5909 26.2751 23.8487 -23.5909 34.2962 23.476 -22.8667 
42.3172 23.476 -18.7875 -21.8511 31.497 -16.6898 -13.83 31.497 -18.7596 
-5.80901 31.497 -20.8768 2.21202 31.497 -21.6658 10.2331 31.497 -22.3005 
18.2541 31.497 -22.0139 26.2751 31.497 -21.9904 34.2962 31.497 -18.9626 
-5.80901 39.5181 -16.8477 2.21202 39.5181 -18.7803 10.2331 39.5181 -19.1824 
18.2541 39.5181 -18.1588 26.2751 39.5181 -15.8618 2.21202 -42.9588 -15.5698 
10.2331 -44.1289 -15.5698 18.2541 -43.041 -15.5698 -21.8511 -33.6888 -15.5698 
-13.83 -36.0773 -15.5698 -13.83 -40.6923 -11.2896 -4.5633 -40.6923 -15.5698 
-5.80901 -40.1589 -15.5698 -5.80901 -40.6923 -15.1083 24.4978 -40.6923 -15.5698 
26.2751 -39.7228 -15.5698 26.2751 -40.6923 -14.5273 -23.8326 -32.6712 -15.5698 
-29.8721 -28.7938 -15.5698 -29.8721 -32.6712 -12.0628 33.2285 -32.6712 -15.5698 
34.2962 -31.6764 -15.5698 34.2962 -32.6712 -14.5139 -35.999 -24.6502 -15.5698 
-37.8931 -23.1543 -15.5698 -37.8931 -24.6502 -14.3235 40.9928 -24.6502 -15.5698 
42.3172 -22.9862 -15.5698 42.3172 -24.6502 -13.3637 -42.992 -16.6292 -15.5698 
-45.9142 -16.6292 -11.9567 46.2619 -16.6292 -15.5698 -45.8996 -8.60812 -15.5698 
-45.9142 -8.52941 -15.5698 -45.9142 -8.60812 -15.5589 50.1068 -8.60812 -15.5698 
50.3382 -7.69878 -15.5698 50.3382 -8.60812 -14.9435 -46.9944 -0.587091 -15.5698 
51.6727 -0.587091 -15.5698 -46.1724 7.43394 -15.5698 -45.9142 8.82609 -15.5698 
51.5907 7.43394 -15.5698 50.3382 14.5117 -15.5698 -43.9394 15.455 -15.5698 
-45.9142 15.455 -14.0866 -37.8931 23.4502 -15.5698 50.1208 15.455 -15.5698 
50.3382 15.455 -15.1041 -37.8654 23.476 -15.5698 -37.8931 23.476 -15.5576 
-29.8721 28.685 -15.5698 45.8826 23.476 -15.5698 42.3172 28.5761 -15.5698 
-25.2785 31.497 -15.5698 -29.8721 31.497 -13.1645 -21.8511 33.0575 -15.5698 
-13.83 37.0907 -15.5698 39.4477 31.497 -15.5698 34.2962 35.5948 -15.5698 
42.3172 31.497 -9.66549 -9.26973 39.5181 -15.5698 -13.83 39.5181 -12.9384 
-5.80901 40.8629 -15.5698 2.21202 42.8776 -15.5698 10.2331 43.2062 -15.5698 
18.2541 42.0704 -15.5698 26.7809 39.5181 -15.5698 26.2751 39.7358 -15.5698 
-13.83 -43.1611 -7.5488 -5.80901 -45.5895 -7.5488 2.21202 -47.3059 -7.5488 
10.2331 -48.5251 -7.5488 18.2541 -47.8697 -7.5488 26.2751 -44.5438 -7.5488 
-29.8721 -35.8855 -7.5488 -20.5059 -40.6923 -7.5488 -21.8511 -40.1534 -7.5488 
-21.8511 -40.6923 -5.27547 31.2713 -40.6923 -7.5488 34.2962 -37.8459 -7.5488 
-34.2451 -32.6712 -7.5488 -37.8931 -29.6699 -7.5488 38.7216 -32.6712 -7.5488 
42.3172 -27.9164 -7.5488 -42.7756 -24.6502 -7.5488 -45.9142 -20.3674 -7.5488 
44.589 -24.6502 -7.5488 -48.3088 -16.6292 -7.5488 49.2973 -16.6292 -7.5488 
50.3382 -13.9775 -7.5488 -51.5861 -8.60812 -7.5488 52.2419 -8.60812 -7.5488 
50.3382 -8.60812 -0.817913 -53.1196 -0.587091 -7.5488 -53.9352 -0.587091 -2.30202 
53.8743 -0.587091 -7.5488 -52.5275 7.43394 -7.5488 54.0819 7.43394 -7.5488 
-50.2335 15.455 -7.5488 -45.9142 23.0284 -7.5488 52.76 15.455 -7.5488 
50.3382 21.0137 -7.5488 -45.6042 23.476 -7.5488 -45.9142 23.476 -6.26093 
-37.8931 30.5107 -7.5488 49.0835 23.476 -7.5488 -36.2732 31.497 -7.5488 
-37.8931 31.497 -3.20479 -29.8721 35.0688 -7.5488 -21.8511 38.8189 -7.5488 
34.2962 38.4932 -7.5488 43.0354 31.497 -7.5488 42.3172 32.228 -7.5488 
42.3172 31.497 -4.47833 -20.3753 39.5181 -7.5488 -21.8511 39.5181 -3.22581 
-13.83 42.279 -7.5488 -5.80901 44.6623 -7.5488 2.21202 45.8084 -7.5488 
10.2331 45.7622 -7.5488 18.2541 44.6571 -7.5488 32.3518 39.5181 -7.5488 
26.2751 42.3526 -7.5488 -21.8511 -41.9404 0.472232 -13.83 -44.6516 0.472232 
-5.80901 -46.4263 0.472232 2.21202 -47.6414 0.472232 10.2331 -48.1813 0.472232 
18.2541 -47.1617 0.472232 26.2751 -44.1787 0.472232 -24.1521 -40.6923 0.472232 
-29.8721 -37.2225 0.472232 -21.8511 -40.6923 6.65585 30.8872 -40.6923 0.472232 
26.2751 -40.6923 5.91584 34.2962 -37.5372 0.472232 -35.292 -32.6712 0.472232 
-37.8931 -30.145 0.472232 38.1581 -32.6712 0.472232 34.2962 -32.6712 6.76349 
42.3172 -26.1357 0.472232 -42.9885 -24.6502 0.472232 -45.9142 -20.9049 0.472232 
43.1788 -24.6502 0.472232 42.3172 -24.6502 2.0619 -48.8217 -16.6292 0.472232 
47.3852 -16.6292 0.472232 42.3172 -16.6292 7.46673 -52.5467 -8.60812 0.472232 
-53.9352 -2.41506 0.472232 49.9329 -8.60812 0.472232 50.3382 -7.06391 0.472232 
-54.3326 -0.587091 0.472232 -53.9352 5.75426 0.472232 -53.9352 -0.587091 3.15866 
51.9439 -0.587091 0.472232 50.3382 -0.587091 3.20154 -53.8321 7.43394 0.472232 
52.6692 7.43394 0.472232 50.3382 7.43394 4.64181 -51.7709 15.455 0.472232 
51.3305 15.455 0.472232 50.3382 18.1013 0.472232 50.3382 15.455 2.43079 
-47.3981 23.476 0.472232 -45.9142 25.2848 0.472232 47.9306 23.476 0.472232 
42.3172 30.1435 0.472232 -39.0259 31.497 0.472232 -37.8931 32.2915 0.472232 
-37.8931 31.497 7.66426 -29.8721 36.7578 0.472232 40.838 31.497 0.472232 
34.2962 36.8621 0.472232 34.2962 31.497 8.46825 -23.1951 39.5181 0.472232 
-21.8511 40.0501 0.472232 -21.8511 39.5181 3.81812 -13.83 42.5909 0.472232 
-5.80901 44.2592 0.472232 2.21202 45.1438 0.472232 10.2331 44.6724 0.472232 
18.2541 43.1163 0.472232 18.2541 39.5181 7.14378 28.5855 39.5181 0.472232 
26.2751 40.4349 0.472232 26.2751 39.5181 2.1533 -13.83 -42.8886 8.49327 
-5.80901 -43.7568 8.49327 2.21202 -44.1086 8.49327 10.2331 -43.8155 8.49327 
18.2541 -42.8154 8.49327 -29.8721 -35.2644 8.49327 -20.6998 -40.6923 8.49327 
-21.8511 -40.2625 8.49327 -13.83 -40.6923 12.1101 -5.80901 -40.6923 12.8333 
2.21202 -40.6923 12.6313 10.2331 -40.6923 11.6982 22.9425 -40.6923 8.49327 
18.2541 -40.6923 10.7572 26.2751 -38.6041 8.49327 -32.8964 -32.6712 8.49327 
-37.8931 -27.7006 8.49327 -29.8721 -32.6712 12.6461 18.2541 -32.6712 15.8717 
32.7804 -32.6712 8.49327 26.2751 -32.6712 12.9098 34.2962 -30.6186 8.49327 
-40.7443 -24.6502 8.49327 -45.9142 -18.2984 8.49327 -37.8931 -24.6502 13.3004 
26.2751 -24.6502 16.2735 37.879 -24.6502 8.49327 34.2962 -24.6502 11.6694 
-47.0917 -16.6292 8.49327 -45.9142 -16.6292 11.0845 41.4508 -16.6292 8.49327 
34.2962 -16.6292 14.2752 42.3172 -14.1956 8.49327 -51.1373 -8.60812 8.49327 
34.2962 -8.60812 15.8375 44.1248 -8.60812 8.49327 42.3172 -8.60812 10.208 
-53.1175 -0.587091 8.49327 46.4595 -0.587091 8.49327 42.3172 -0.587091 12.36 
-52.8567 7.43394 8.49327 47.7078 7.43394 8.49327 42.3172 7.43394 13.5265 
-50.7154 15.455 8.49327 46.6149 15.455 8.49327 42.3172 15.455 12.7247 
-46.2661 23.476 8.49327 -45.9142 23.9037 8.49327 -45.9142 23.476 9.26974 
-37.8931 31.4044 8.49327 34.2962 31.4764 8.49327 34.2962 23.476 14.6287 
43.0209 23.476 8.49327 42.3172 24.3454 8.49327 42.3172 23.476 9.24579 
-37.7432 31.497 8.49327 -29.8721 35.8873 8.49327 -21.8511 38.7773 8.49327 
18.2541 38.6516 8.49327 18.2541 31.497 15.4862 34.2647 31.497 8.49327 
26.2751 35.6107 8.49327 26.2751 31.497 12.7726 -18.6274 39.5181 8.49327 
-13.83 40.6183 8.49327 -13.83 39.5181 10.5189 -5.80901 41.1673 8.49327 
-5.80901 39.5181 11.3393 2.21202 41.1267 8.49327 2.21202 39.5181 10.7836 
14.1997 39.5181 8.49327 10.2331 40.2537 8.49327 10.2331 39.5181 9.49878 
-21.8511 -34.3111 16.5143 -13.83 -36.9349 16.5143 -5.80901 -36.9901 16.5143 
2.21202 -35.5819 16.5143 10.2331 -33.2294 16.5143 -24.7156 -32.6712 16.5143 
-29.8721 -29.3552 16.5143 -21.8511 -32.6712 17.8483 -13.83 -32.6712 19.7095 
-5.80901 -32.6712 19.6119 2.21202 -32.6712 18.2456 13.0028 -32.6712 16.5143 
10.2331 -32.6712 16.8106 18.2541 -30.6986 16.5143 -35.1738 -24.6502 16.5143 
-37.8931 -22.1688 16.5143 -29.8721 -24.6502 19.9988 -21.8511 -24.6502 22.4428 
[...]
POINT_DATA 514
SCALARS ImageScalars float
LOOKUP_TABLE default
0 0 0 0 0 0 0 0 0 
0 0 0 0 0 0 0 0 0 
0 0 0 0 0 0 0 0 0 
0 0 0 0 0 0 0 0 0 
0 0 0 0 0 0 0 0 0 
0 0 0 0 0 0 0 0 0 
0 0 0 0 0 0 0 0 0 
0 0 0 0 0 0 0 0 0 
0 0 0 0 0 0 0 0 0 
0 0 0 0 0 0 0 0 0 
0 0 0 0 0 0 0 0 0 
0 0 0 0 0 0 0 0 0 
0 0 0 0 0 0 0 0 0 
0 0 0 0 0 0 0 0 0 
0 0 0 0 0 0 0 0 0 
0 0 0 0 0 0 0 0 0 
0 0 0 0 0 0 0 0 0 
0 0 0 0 0 0 0 0 0 
0 0 0 0 0 0 0 0 0 
0 0 0 0 0 0 0 0 0 
0 0 0 0 0 0 0 0 0 
0 0 0 0 0 0 0 0 0 
0 0 0 0 0 0 0 0 0 
0 0 0 0 0 0 0 0 0 
0 0 0 0 0 0 0 0 0 
0 0 0 0 0 0 0 0 0 
0 0 0 0 0 0 0 0 0 
0 0 0 0 0 0 0 0 0 
0 0 0 0 0 0 0 0 0 
0 0 0 0 0 0 0 0 0 
0 0 0 0 0 0 0 0 0 
0 0 0 0 0 0 0 0 0 
0 0 0 0 0 0 0 0 0 
0 0 0 0 0 0 0 0 0 
0 0 0 0 0 0 0 0 0 
0 0 0 0 0 0 0 0 0 
0 0 0 0 0 0 0 0 0 
0 0 0 0 0 0 0 0 0 
0 0 0 0 0 0 0 0 0 
0 0 0 0 0 0 0 0 0 
0 0 0 0 0 0 0 0 0 
0 0 0 0 0 0 0 0 0 
0 0 0 0 0 0 0 0 0 
0 0 0 0 0 0 0 0 0 
0 0 0 0 0 0 0 0 0 
0 0 0 0 0 0 0 0 0 
0 0 0 0 0 0 0 0 0 
0 0 0 0 0 0 0 0 0 
0 0 0 0 0 0 0 0 0 
0 0 0 0 0 0 0 0 0 
0 0 0 0 0 0 0 0 0 
0 0 0 0 0 0 0 0 0 
0 0 0 0 0 0 0 0 0 
0 0 0 0 0 0 0 0 0 
0 0 0 0 0 0 0 0 0 
0 0 0 0 0 0 0 0 0 
0 0 0 0 0 0 0 0 0 
0 
NORMALS Normals float
-0.0334858 0.018358 0.999271 -0.070051 -0.0304483 0.997079 0.0180789 0.0130088 0.999752 
-0.0180913 -0.0914948 0.995641 0.178169 0.563919 0.806381 0.00456105 0.539822 0.841767 
-0.181265 0.550123 0.815174 0.238759 0.50836 0.827384 0.182372 0.420644 0.888706 
0.201746 0.331169 0.921752 0.118019 0.270518 0.955454 -0.0314558 0.24769 0.968329 
-0.12821 0.257417 0.957757 -0.290853 0.366775 0.883675 0.243901 0.388037 0.888786 
0.119521 0.261619 0.957742 0.117341 0.17468 0.977608 0.139078 0.119861 0.983001 
0.0858818 0.0897863 0.992251 -0.016297 0.0665481 0.99765 -0.0790841 0.111661 0.990595 
-0.135289 0.197218 0.97098 -0.35528 0.380567 0.853783 0.370269 0.266636 0.889835 
0.12931 0.190707 0.973093 0.0218399 0.100111 0.994737 0.0423226 0.0274982 0.998726 
0.125349 -0.0355989 0.991474 0.0651004 0.0304486 0.997414 -0.0135266 0.00422993 0.9999 
-0.000917817 0.0205548 0.999788 -0.0263031 0.128306 0.991386 -0.187929 0.208041 0.959897 
-0.534973 0.355873 0.766262 0.304529 0.101588 0.94707 0.054176 0.0361385 0.997877 
-0.0551888 0.000183375 0.998476 -0.0162974 -0.0196366 0.999674 0.137435 -0.0522198 0.989133 
0.128465 0.00936132 0.99167 -0.0270074 0.00526035 0.999621 0.0439866 -0.0351715 0.998413 
0.0588751 0.0218007 0.998027 -0.0612546 0.0506155 0.996838 -0.113979 0.107846 0.987612 
-0.39876 0.186871 0.897814 0.581931 0.0115064 0.813157 0.223479 -0.0164271 0.97457 
0.0232035 -0.0127322 0.99965 -0.0346507 -0.0188967 0.999221 -0.0100136 0.0054915 0.999935 
0.14378 0.0740272 0.986837 0.132102 0.0240562 0.990944 -0.0596829 -0.0484688 0.99704 
0.0190863 -0.0195519 0.999627 -0.00720484 0.0147633 0.999865 0.116629 -0.00562212 0.99316 
-0.0615155 0.0205606 0.997894 -0.326262 0.0392484 0.944464 -0.776972 0.0810786 0.624292 
0.591421 -0.103063 0.799749 0.283028 -0.110966 0.952671 0.0541599 -0.0424116 0.997631 
-0.0363412 -0.00567127 0.999323 0.0763389 0.0395286 0.996298 0.160743 0.0873548 0.983123 
0.00408665 -0.0252407 0.999673 -0.0703791 -0.0228132 0.997259 0.0821642 0.0664897 0.994398 
-0.0333207 -0.0134222 0.999355 0.0439716 0.0239626 0.998745 0.0981362 0.0472131 0.994052 
-0.0773225 -0.0314145 0.996511 -0.0774431 -0.0316322 0.996495 -0.335484 -0.0601897 0.940121 
-0.771839 -0.0905204 0.629341 0.317055 -0.213189 0.924136 0.134303 -0.162961 0.977449 
0.0477783 -0.064066 0.996801 0.0821243 0.00374799 0.996615 0.0895774 -0.00596872 0.995962 
0.0137426 -0.0457087 0.99886 0.0321168 0.0341211 0.998902 0.0247524 0.0186641 0.999519 
0.0870708 0.071761 0.993614 -0.00770909 0.00394135 0.999963 -0.1406 -0.044659 0.989059 
-0.404519 -0.188651 0.894861 0.212242 -0.344896 0.91433 0.136747 -0.230412 0.963437 
0.136394 -0.131369 0.981906 0.108393 -0.0667567 0.991864 0.0455023 -0.0492658 0.997749 
0.0482561 0.0037958 0.998828 -0.00373685 -0.0851155 0.996364 0.0657199 -0.0550165 0.99632 
-0.0410848 -0.103351 0.993796 -0.023642 -0.101223 0.994583 -0.256529 -0.217686 0.941704 
-0.56753 -0.382253 0.729241 0.271656 -0.495798 0.824856 0.240458 -0.35812 0.902181 
0.174645 -0.255091 0.951014 0.0810536 -0.193215 0.977803 0.0235064 -0.181279 0.983151 
-0.0184113 -0.274157 0.961509 -0.158413 -0.340884 0.926663 -0.415829 -0.533805 0.7363 
0.263633 -0.640973 0.720868 0.123111 -0.574244 0.809375 -0.0331562 -0.579178 0.814526 
-0.156336 -0.667294 0.728202 -0.318325 -0.797144 0.513061 0.1888 0.668921 0.718957 
-0.00193752 0.706236 0.707974 -0.195556 0.655442 0.729488 0.257357 0.54504 0.797934 
0.225599 0.544349 0.807953 0.291877 0.779857 0.553743 0.251919 0.630056 0.734552 
0.259487 0.619199 0.74112 0.264341 0.65216 0.710501 -0.372856 0.629622 0.681583 
-0.415548 0.612977 0.671996 -0.446367 0.667196 0.596327 0.288276 0.547313 0.785713 
0.344603 0.538376 0.769025 0.467294 0.704637 0.533969 -0.5293 0.540311 0.654145 
-0.539816 0.545043 0.641503 -0.584042 0.573944 0.574007 0.452976 0.524391 0.72099 
0.489928 0.50632 0.709655 0.539395 0.574524 0.615609 -0.63556 0.510861 0.578865 
-0.663381 0.493686 0.562316 -0.730444 0.539081 0.419336 0.598021 0.337035 0.727171 
0.770571 0.417095 0.481925 -0.725961 0.411587 0.550978 0.638708 0.156392 0.753388 
0.63882 0.155126 0.753555 0.639545 0.156703 0.752613 -0.819116 0.275228 0.503288 
-0.826444 0.25505 0.501937 -0.844931 0.278881 0.456418 0.622235 0.0148327 0.78269 
-0.845797 0.0838581 0.526873 0.601472 -0.103682 0.792137 0.600204 -0.134197 0.788509 
-0.835966 -0.0906468 0.541243 -0.802996 -0.262615 0.535005 0.550155 -0.274867 0.788529 
0.662655 -0.309582 0.681944 0.435477 -0.471517 0.766832 -0.794508 -0.282244 0.537676 
-0.813803 -0.286017 0.505884 0.43513 -0.471956 0.766759 0.436054 -0.472599 0.765838 
0.322487 -0.541 0.776737 -0.700332 -0.44934 0.554643 -0.638553 -0.560638 0.527196 
0.315934 -0.563383 0.763403 0.387711 -0.689517 0.611757 0.303361 -0.565748 0.766747 
0.308444 -0.608045 0.731535 -0.585275 -0.615822 0.527462 -0.471453 -0.698638 0.538179 
-0.704578 -0.692958 0.152901 0.295964 -0.6795 0.67133 0.3384 -0.772969 0.53666 
0.273089 -0.702101 0.657629 0.122532 -0.780662 0.612823 -0.0471077 -0.807474 0.58802 
-0.196442 -0.788786 0.582431 -0.33198 -0.802158 0.496318 -0.322316 -0.8053 0.497599 
0.29994 0.879369 0.369792 0.250682 0.920666 0.299221 0.179874 0.961987 0.205492 
0.0333701 0.983279 0.179019 -0.214663 0.960778 0.175574 -0.510419 0.836878 0.197755 
0.508514 0.794428 0.33211 0.367263 0.856884 0.361756 0.381103 0.850489 0.36253 
0.395865 0.881139 0.25862 -0.643752 0.741246 0.190099 -0.704562 0.681895 0.196497 
0.585156 0.756285 0.292617 0.652216 0.713689 0.255464 -0.766305 0.621454 0.163007 
-0.812486 0.574023 0.101808 0.736973 0.630301 0.244114 0.806489 0.538647 0.243794 
-0.836511 0.543048 0.0731301 0.852929 0.454868 0.256139 -0.901091 0.431309 0.0448001 
-0.925958 0.376873 0.0238424 0.910903 0.263342 0.317658 -0.962869 0.269769 -0.0103811 
-0.905847 0.247693 -0.343642 0.937909 0.0565492 0.342242 0.991335 0.0709218 0.110567 
-0.993892 0.109431 0.0142525 0.921462 -0.157322 0.355187 -0.995926 -0.0690329 0.0580243 
0.869126 -0.3456 0.353809 0.748715 -0.561917 0.351675 -0.956733 -0.28461 0.0604887 
-0.895762 -0.436516 0.0840558 0.737896 -0.575079 0.353263 0.757636 -0.580232 0.298863 
0.52492 -0.776133 0.349396 -0.858676 -0.503978 0.0931772 0.498588 -0.796229 0.342679 
0.538975 -0.823564 0.176771 0.422222 -0.838507 0.344432 0.399021 -0.867207 0.297884 
-0.521095 -0.852181 0.0474106 -0.717013 -0.69578 0.0422199 -0.702392 -0.710657 0.0401609 
-0.699867 -0.707942 -0.0948962 0.388195 -0.878293 0.279116 0.367932 -0.9212 0.126555 
0.333322 -0.91308 0.234908 0.222658 -0.962489 0.155041 0.0636397 -0.992298 0.106278 
-0.0700928 -0.995032 0.0706928 -0.200988 -0.978486 0.0465652 -0.475564 -0.878664 0.0422956 
-0.351679 -0.935618 0.0306725 0.408864 0.912575 0.00611506 0.262655 0.964739 -0.0170415 
0.181117 0.978053 -0.103003 0.111351 0.979367 -0.168648 -0.0270237 0.970152 -0.240985 
-0.209939 0.937726 -0.276758 -0.486062 0.838216 -0.24726 0.45444 0.890771 -0.00329452 
0.580351 0.813783 -0.030809 0.410387 0.874261 -0.259328 -0.615042 0.74658 -0.253655 
-0.490409 0.695685 -0.524901 -0.710662 0.659075 -0.246132 0.662353 0.746325 -0.0654874 
0.695759 0.713122 -0.0858809 -0.787136 0.559205 -0.260203 -0.673949 0.51392 -0.530734 
-0.83207 0.466893 -0.299449 0.761243 0.641091 -0.0975216 0.811222 0.578906 -0.0823852 
-0.836978 0.452261 -0.308103 -0.820688 0.439118 -0.365578 0.867123 0.493718 -0.0658867 
-0.845398 0.371515 -0.383769 -0.727687 0.287182 -0.622895 0.949632 0.312461 -0.023825 
0.991438 0.130391 -0.00693892 -0.879533 0.241122 -0.410221 -0.887195 0.222461 -0.404224 
0.997057 0.0766049 -0.00286332 0.994687 -0.102293 0.01153 0.992641 0.0832698 -0.0879231 
-0.910345 0.150994 -0.385323 -0.864378 0.157667 -0.477485 0.98883 -0.148249 0.015382 
-0.939907 -0.0376678 -0.339346 -0.866661 -0.0171956 -0.4986 0.93797 -0.345899 0.0237992 
-0.91368 -0.25015 -0.320333 -0.893485 -0.320196 -0.314896 -0.891343 -0.245622 -0.381022 
0.810024 -0.585814 0.0261512 0.772545 -0.634347 0.0278937 -0.818224 -0.492168 -0.297119 
-0.670808 -0.670202 -0.317563 0.568278 -0.821879 0.039684 0.544567 -0.837673 0.0418535 
0.548805 -0.816002 -0.181533 0.423218 -0.905111 0.04075 -0.637612 -0.699025 -0.323751 
-0.49705 -0.797159 -0.342751 -0.466992 -0.667306 -0.58019 0.34576 -0.938323 -0.000478494 
0.33331 -0.942784 -0.0079892 0.307626 -0.944175 -0.117898 0.250654 -0.962903 -0.0999531 
0.151608 -0.967393 -0.202893 0.027281 -0.962874 -0.268569 -0.118479 -0.940142 -0.319525 
-0.238417 -0.909924 -0.339404 -0.226661 -0.815263 -0.532889 -0.363962 -0.864441 -0.346805 
-0.323055 -0.880903 -0.345899 -0.325836 -0.858983 -0.394942 0.193051 0.907082 -0.374077 
0.0700024 0.882826 -0.464454 0.00542501 0.83388 -0.551919 -0.0683613 0.768275 -0.63646 
-0.215342 0.737029 -0.640637 0.572915 0.746526 -0.338329 0.373275 0.860996 -0.345475 
0.403851 0.84841 -0.342205 0.16151 0.83796 -0.521284 0.0175318 0.788914 -0.614254 
-0.0552886 0.710585 -0.701436 -0.0861478 0.662922 -0.743716 -0.370472 0.666335 -0.647107 
-0.225795 0.663718 -0.713089 -0.456653 0.605551 -0.651748 0.626777 0.704138 -0.333676 
0.683879 0.656814 -0.317654 0.537385 0.688781 -0.486618 -0.205179 0.393489 -0.896141 
-0.606368 0.497162 -0.620603 -0.403251 0.470183 -0.785059 -0.641009 0.456029 -0.61737 
0.702525 0.639054 -0.313159 0.785201 0.548063 -0.288247 0.631906 0.626219 -0.456666 
-0.337288 0.288721 -0.896034 -0.681339 0.365781 -0.63402 -0.589084 0.329768 -0.737722 
0.807641 0.516727 -0.284095 0.775774 0.520156 -0.35723 -0.701908 0.269396 -0.659357 
-0.528491 0.20745 -0.823202 -0.699566 0.257893 -0.666407 0.902788 0.331633 -0.27385 
-0.492511 0.166447 -0.854241 -0.691087 0.227273 -0.686109 -0.651012 0.218142 -0.727047 
0.959583 0.097332 -0.264059 -0.72522 0.16344 -0.668837 -0.621932 0.160034 -0.766544 
0.959497 -0.134366 -0.247612 -0.758363 0.00506188 -0.651813 -0.609679 0.0183013 -0.792437 
0.903521 -0.346617 -0.252006 -0.759564 -0.224568 -0.610435 -0.61599 -0.198927 -0.762224 
0.784138 -0.575534 -0.23214 0.776064 -0.58651 -0.231799 0.776264 -0.575276 -0.25782 
0.548272 -0.810007 -0.208054 -0.466713 -0.666669 -0.581147 -0.414337 -0.425884 -0.804331 
-0.655168 -0.473383 -0.588782 -0.637895 -0.497123 -0.588183 -0.635562 -0.472567 -0.610525 
0.54491 -0.812315 -0.207887 0.397097 -0.887775 -0.232745 0.264987 -0.923339 -0.277897 
-0.223914 -0.784881 -0.577775 -0.227667 -0.579603 -0.78245 -0.466159 -0.667086 -0.581112 
-0.332125 -0.726627 -0.60142 -0.308104 -0.619111 -0.722339 0.213032 -0.926306 -0.310763 
0.136908 -0.922023 -0.362119 0.120816 -0.895421 -0.428515 0.0308142 -0.896052 -0.442879 
0.006053 -0.852989 -0.521893 -0.0494338 -0.848902 -0.526233 -0.0693245 -0.814388 -0.576166 
-0.173707 -0.807531 -0.563667 -0.126151 -0.821079 -0.5567 -0.12968 -0.805822 -0.577784 
0.308724 0.638372 -0.705104 0.111859 0.658149 -0.744531 -0.0441103 0.632257 -0.773502 
-0.132436 0.512075 -0.84867 -0.124433 0.411712 -0.902779 0.368694 0.625742 -0.687395 
0.46077 0.614868 -0.640022 0.28862 0.592458 -0.752125 0.0883274 0.505709 -0.85817 
-0.0799894 0.474759 -0.876474 -0.161491 0.427253 -0.889593 -0.150891 0.394744 -0.906316 
-0.126606 0.39756 -0.9088 -0.197343 0.355815 -0.913483 0.541406 0.596183 -0.592828 
0.589278 0.577215 -0.565309 0.37773 0.528031 -0.760594 0.168152 0.41159 -0.895722 
0.00678799 0.323663 -0.946148 -0.127956 0.289073 -0.948717 -0.18954 0.281724 -0.940588 
-0.163052 0.281442 -0.945624 -0.316989 0.28476 -0.904671 -0.17878 0.264086 -0.947785 
-0.335589 0.277731 -0.900136 0.669034 0.502465 -0.547652 0.742922 0.39135 -0.543059 
0.504599 0.453414 -0.734708 0.219687 0.351604 -0.910007 -0.186045 0.254719 -0.94895 
-0.170459 0.307132 -0.936276 -0.191701 0.26907 -0.94385 -0.418447 0.200951 -0.885732 
-0.335716 0.202107 -0.920026 0.773114 0.319594 -0.547863 0.720842 0.309699 -0.620059 
0.412972 0.230921 -0.880982 -0.285914 0.266072 -0.920575 -0.472857 0.161897 -0.866138 
-0.393721 0.153757 -0.906279 -0.472618 0.153258 -0.867839 0.818158 0.0961696 -0.566894 
0.669072 0.0820749 -0.738651 -0.419938 0.0870625 -0.903367 -0.476979 0.141256 -0.867489 
-0.448524 0.135659 -0.883416 0.813022 -0.131441 -0.567203 0.678329 -0.128922 -0.723359 
-0.283819 -0.151941 -0.946763 -0.337485 -0.0435381 -0.940324 -0.482312 0.0122245 -0.875914 
-0.416879 0.0101788 -0.908905 0.757534 -0.330986 -0.562664 0.737421 -0.382315 -0.556818 
0.724792 -0.326626 -0.606624 0.380217 -0.26779 -0.885282 -0.230437 -0.246041 -0.941468 
-0.240499 -0.238397 -0.940918 -0.26725 -0.203287 -0.94194 -0.449496 -0.193094 -0.872163 
-0.411048 -0.278357 -0.868076 -0.406749 -0.192721 -0.892981 0.619291 -0.54723 -0.563043 
0.517612 -0.644281 -0.56301 0.469037 -0.512076 -0.719571 0.202847 -0.412419 -0.888124 
0.0335144 -0.361888 -0.931619 -0.0110626 -0.3377 -0.941189 -0.014512 -0.379622 -0.925028 
-0.0980287 -0.390452 -0.915389 -0.202518 -0.368636 -0.907245 -0.227819 -0.531712 -0.815709 
-0.232556 -0.36722 -0.900593 -0.334698 -0.398548 -0.853895 -0.287178 -0.449856 -0.845671 
-0.281986 -0.387643 -0.87762 0.359728 -0.747652 -0.558223 0.32532 -0.760629 -0.561793 
0.31623 -0.734275 -0.600699 0.1595 -0.754109 -0.637087 0.12096 -0.634616 -0.763303 
0.0426656 -0.719493 -0.693188 0.0040611 -0.56463 -0.825334 -0.0353044 -0.68657 -0.726206 
-0.049768 -0.556754 -0.829185 -0.104919 -0.662962 -0.741265 -0.101295 -0.579552 -0.808615 
-0.206606 -0.573591 -0.792659 -0.179097 -0.609411 -0.772362 -0.183121 -0.57211 -0.799473 
0.0923246 0.303887 -0.948224 -0.0210001 0.270734 -0.962425 -0.125665 0.251749 -0.959599 
0.175866 0.327713 -0.928265 0.20904 0.324836 -0.92238 0.065958 0.263337 -0.962446 
-0.0367726 0.23786 -0.970603 -0.133741 0.249469 -0.959103 -0.124687 0.248522 -0.960568 
-0.14303 0.207336 -0.967757 -0.138099 0.29981 -0.94395 0.375229 0.217968 -0.90094 
0.385441 0.180939 -0.904818 0.150688 0.14815 -0.977417 0.0448338 0.123391 -0.991345 
-0.0146642 0.150035 -0.988572 -0.117357 0.186558 -0.97541 -0.1172 0.177093 -0.977191 
-0.15767 0.29497 -0.942408 -0.133696 0.297426 -0.945338 -0.322107 0.0991739 -0.941494 
0.381561 0.0582023 -0.922509 0.317133 0.0478411 -0.947174 0.124598 0.0203921 -0.991998 
0.0636003 -0.00661236 -0.997954 0.0246976 0.00985405 -0.999646 -0.101695 0.0719292 -0.992212 
-0.0775261 0.108688 -0.991048 -0.0788304 0.0791257 -0.993743 -0.33706 0.0635293 -0.939337 
-0.311821 -0.0258814 -0.949788 -0.3264 0.0607261 -0.943279 0.374256 -0.10734 -0.921092 
0.346742 -0.162525 -0.923772 0.331548 -0.101669 -0.937944 0.10587 -0.076116 -0.991462 
0.0339332 -0.0821773 -0.99604 0.0647111 -0.112596 -0.991531 -0.0176686 -0.0841504 -0.996296 
-0.111087 -0.00330055 -0.993805 -0.26032 -0.148411 -0.954048 -0.228414 -0.240523 -0.943385 
-0.17755 -0.124311 -0.976229 0.254169 -0.240937 -0.936668 0.162283 -0.288831 -0.943526 
0.144385 -0.215325 -0.96581 0.031814 -0.30531 -0.951721 0.0315214 -0.1781 -0.983507 
0.00020211 -0.293432 -0.95598 0.020199 -0.217567 -0.975836 -0.00706976 -0.339942 -0.94042 
0.00752867 -0.254953 -0.966924 -0.225482 -0.244627 -0.943035 -0.10547 -0.319815 -0.941591 
-0.116595 -0.213843 -0.969885 
