# vtk DataFile Version 4.2
vtk output
ASCII
DATASET POLYDATA
POINTS 542 float
-40.0981 -33.3961 -13.747 -32.3302 -33.3961 -15.8459 -24.5622 -33.3961 -15.9363 
-16.7942 -33.3961 -15.2002 -9.02626 -33.3961 -14.3538 -1.2583 -33.3961 -13.4141 
22.0456 -33.3961 -13.1383 -47.8661 -25.6282 -14.5054 -40.0981 -25.6282 -16.7647 
-32.3302 -25.6282 -17.9643 -24.5622 -25.6282 -18.1538 -16.7942 -25.6282 -17.3888 
-9.02626 -25.6282 -16.6107 -1.2583 -25.6282 -15.7871 6.50967 -25.6282 -15.214 
14.2776 -25.6282 -15.5933 22.0456 -25.6282 -16.2408 29.8136 -25.6282 -16.3984 
37.5815 -25.6282 -15.4369 45.3495 -25.6282 -13.3584 -47.8661 -17.8602 -16.5986 
-40.0981 -17.8602 -18.9322 -32.3302 -17.8602 -18.68 -24.5622 -17.8602 -18.3213 
-16.7942 -17.8602 -17.5226 -9.02626 -17.8602 -16.9713 -1.2583 -17.8602 -16.3894 
6.50967 -17.8602 -16.1762 14.2776 -17.8602 -16.5165 22.0456 -17.8602 -17.3781 
29.8136 -17.8602 -18.2863 37.5815 -17.8602 -17.6609 45.3495 -17.8602 -16.6663 
53.1175 -17.8602 -13.0619 -55.634 -10.0923 -14.0738 -47.8661 -10.0923 -17.1804 
-40.0981 -10.0923 -18.4462 -32.3302 -10.0923 -18.8765 -24.5622 -10.0923 -17.6579 
-16.7942 -10.0923 -16.2053 -9.02626 -10.0923 -17.0368 -1.2583 -10.0923 -17.4631 
6.50967 -10.0923 -18.3082 14.2776 -10.0923 -16.4648 22.0456 -10.0923 -16.7417 
29.8136 -10.0923 -17.9801 37.5815 -10.0923 -18.3147 45.3495 -10.0923 -17.7723 
53.1175 -10.0923 -15.487 -55.634 -2.32429 -14.1126 -47.8661 -2.32429 -17.3039 
-40.0981 -2.32429 -18.2976 -32.3302 -2.32429 -17.8829 -24.5622 -2.32429 -16.448 
-16.7942 -2.32429 -14.0958 -9.02626 -2.32429 -18.4793 -1.2583 -2.32429 -15.0935 
6.50967 -2.32429 -19.5786 14.2776 -2.32429 -16.3821 22.0456 -2.32429 -16.1892 
29.8136 -2.32429 -17.7583 37.5815 -2.32429 -18.6079 45.3495 -2.32429 -18.5859 
53.1175 -2.32429 -16.126 -55.634 5.44367 -12.8879 -47.8661 5.44367 -16.5355 
-40.0981 5.44367 -17.791 -32.3302 5.44367 -17.8614 -24.5622 5.44367 -16.0316 
-16.7942 5.44367 -13.7903 -9.02626 5.44367 -16.2076 -1.2583 5.44367 -15.991 
6.50967 5.44367 -18.5715 14.2776 5.44367 -18.4768 22.0456 5.44367 -17.1592 
29.8136 5.44367 -18.2665 37.5815 5.44367 -19.0656 45.3495 5.44367 -19.0798 
53.1175 5.44367 -16.295 -47.8661 13.2116 -15.3343 -40.0981 13.2116 -17.3491 
-32.3302 13.2116 -16.9741 -24.5622 13.2116 -15.8701 -16.7942 13.2116 -14.5246 
-9.02626 13.2116 -14.5291 -1.2583 13.2116 -16.1893 6.50967 13.2116 -18.8915 
14.2776 13.2116 -19.9622 22.0456 13.2116 -19.1699 29.8136 13.2116 -19.0335 
37.5815 13.2116 -18.8926 45.3495 13.2116 -17.499 53.1175 13.2116 -14.0681 
-40.0981 20.9796 -14.8922 -32.3302 20.9796 -16.4622 -24.5622 20.9796 -16.2219 
-16.7942 20.9796 -15.89 -9.02626 20.9796 -16.1415 -1.2583 20.9796 -17.4653 
6.50967 20.9796 -19.2128 14.2776 20.9796 -20.2861 22.0456 20.9796 -20.0665 
29.8136 20.9796 -19.4374 37.5815 20.9796 -19.1225 45.3495 20.9796 -15.2449 
-32.3302 28.7476 -14.45 -24.5622 28.7476 -16.5197 -16.7942 28.7476 -16.3434 
-9.02626 28.7476 -16.7044 -1.2583 28.7476 -17.8651 6.50967 28.7476 -18.8907 
14.2776 28.7476 -18.9912 22.0456 28.7476 -18.4136 29.8136 28.7476 -16.0647 
37.5815 28.7476 -13.4302 -24.5622 36.5155 -13.8971 -16.7942 36.5155 -14.6701 
-9.02626 36.5155 -15.4759 -1.2583 36.5155 -16.1296 6.50967 36.5155 -15.8377 
14.2776 36.5155 -13.9574 -40.0981 -34.6935 -12.6541 -32.3302 -37.2365 -12.6541 
-24.5622 -37.7507 -12.6541 -24.5622 -41.1641 -5.69767 -16.7942 -36.92 -12.6541 
-9.02626 -35.675 -12.6541 -1.2583 -34.4282 -12.6541 22.0456 -33.9308 -12.6541 
-42.0709 -33.3961 -12.6541 -47.8661 -28.6203 -12.6541 -47.8661 -33.3961 -9.35346 
5.81865 -33.3961 -12.6541 6.50967 -33.1883 -12.6541 6.50967 -33.3961 -12.554 
18.3644 -33.3961 -12.6541 14.2776 -32.311 -12.6541 14.2776 -33.3961 -11.9502 
27.4288 -33.3961 -12.6541 29.8136 -33.0134 -12.6541 29.8136 -33.3961 -12.2936 
37.5815 -30.2647 -12.6541 37.5815 -33.3961 -9.17231 45.3495 -26.6625 -12.6541 
-52.0268 -25.6282 -12.6541 -55.634 -25.6282 -10.2318 46.5863 -25.6282 -12.6541 
53.1175 -18.5404 -12.6541 53.1175 -25.6282 -5.52614 -54.7176 -17.8602 -12.6541 
-55.634 -15.2668 -12.6541 -55.634 -17.8602 -11.8214 53.6072 -17.8602 -12.6541 
-57.359 -10.0923 -12.6541 56.8862 -10.0923 -12.6541 60.8854 -10.0923 -7.99657 
-57.4217 -2.32429 -12.6541 58.8181 -2.32429 -12.6541 60.8854 -2.32429 -10.081 
-55.9101 5.44367 -12.6541 -55.634 8.79055 -12.6541 58.4525 5.44367 -12.6541 
60.8854 5.44367 -9.01786 -55.032 13.2116 -12.6541 -55.634 13.2116 -12.0339 
-47.8661 20.3232 -12.6541 54.6519 13.2116 -12.6541 53.1175 15.9773 -12.6541 
-47.0233 20.9796 -12.6541 -47.8661 20.9796 -12.2506 -40.0981 28.4774 -12.6541 
49.6492 20.9796 -12.6541 45.3495 24.4096 -12.6541 53.1175 20.9796 -4.95084 
-47.8661 28.7476 -5.24204 -39.764 28.7476 -12.6541 -40.0981 28.7476 -12.5431 
-32.3302 33.1998 -12.6541 22.0456 34.6589 -12.6541 29.8136 32.2081 -12.6541 
38.8749 28.7476 -12.6541 37.5815 29.436 -12.6541 -28.4545 36.5155 -12.6541 
-32.3302 36.5155 -10.6966 -24.5622 38.3065 -12.6541 -16.7942 39.6638 -12.6541 
-9.02626 40.8614 -12.6541 -1.2583 40.9634 -12.6541 6.50967 39.7614 -12.6541 
17.2369 36.5155 -12.6541 14.2776 37.5686 -12.6541 -16.7942 44.2835 -7.21285 
-9.02626 44.2835 -7.28192 -1.2583 44.2835 -5.11513 -24.5622 -41.4204 -4.88609 
-47.8661 -36.5845 -4.88609 -40.0981 -39.8345 -4.88609 -31.7638 -41.1641 -4.88609 
-32.3302 -41.1439 -4.88609 -18.9208 -41.1641 -4.88609 -24.5622 -41.1641 -3.91942 
-16.7942 -41.0675 -4.88609 -9.02626 -39.9398 -4.88609 -1.2583 -39.1938 -4.88609 
6.50967 -38.7107 -4.88609 14.2776 -38.3986 -4.88609 22.0456 -38.2274 -4.88609 
29.8136 -37.5068 -4.88609 37.5815 -35.4928 -4.88609 -51.8874 -33.3961 -4.88609 
-55.634 -29.4137 -4.88609 42.3432 -33.3961 -4.88609 45.3495 -31.8431 -4.88609 
53.1175 -26.0447 -4.88609 -58.5842 -25.6282 -4.88609 53.5022 -25.6282 -4.88609 
-61.2199 -17.8602 -4.88609 59.6142 -17.8602 -4.88609 60.8854 -14.7942 -4.88609 
-63.0503 -10.0923 -4.88609 62.5641 -10.0923 -4.88609 -63.1758 -2.32429 -4.88609 
63.4195 -2.32429 -4.88609 -61.3527 5.44367 -4.88609 62.8171 5.44367 -4.88609 
60.8854 9.80754 -4.88609 -58.7564 13.2116 -4.88609 -55.634 18.5717 -4.88609 
59.2896 13.2116 -4.88609 -54.0399 20.9796 -4.88609 45.3495 26.9646 -4.88609 
53.141 20.9796 -4.88609 53.1175 21.0005 -4.88609 53.1175 20.9796 -4.76218 
-48.0408 28.7476 -4.88609 -47.8661 28.9411 -4.88609 -47.8661 28.7476 -3.3853 
-40.0981 36.1868 -4.88609 22.0456 36.3265 -4.88609 29.8136 34.1824 -4.88609 
42.1932 28.7476 -4.88609 37.5815 31.3317 -4.88609 -39.6446 36.5155 -4.88609 
-32.3302 40.7856 -4.88609 -24.5622 43.5443 -4.88609 6.50967 42.0784 -4.88609 
21.5326 36.5155 -4.88609 14.2776 39.0375 -4.88609 -21.5196 44.2835 -4.88609 
-16.7942 45.3199 -4.88609 -9.02626 45.2168 -4.88609 -0.990364 44.2835 -4.88609 
-1.2583 44.3613 -4.88609 -1.2583 44.2835 -4.38508 -47.8661 -35.5234 2.88188 
-40.0981 -39.0601 2.88188 -32.3302 -39.5222 2.88188 -24.5622 -39.1823 2.88188 
-16.7942 -37.9036 2.88188 -9.02626 -36.5351 2.88188 -1.2583 -35.9332 2.88188 
6.50967 -35.6422 2.88188 14.2776 -35.8002 2.88188 22.0456 -36.22 2.88188 
29.8136 -36.568 2.88188 37.5815 -34.8153 2.88188 -50.9606 -33.3961 2.88188 
-55.634 -29.1605 2.88188 -47.8661 -33.3961 7.07116 -40.0981 -33.3961 10.6406 
-24.5622 -33.3961 9.52788 -16.7942 -33.3961 7.6859 -9.02626 -33.3961 6.08775 
-1.2583 -33.3961 5.36841 6.50967 -33.3961 5.0681 14.2776 -33.3961 5.93131 
22.0456 -33.3961 6.6433 29.8136 -33.3961 7.68551 41.3432 -33.3961 2.88188 
37.5815 -33.3961 6.05584 45.3495 -31.7463 2.88188 53.1175 -26.587 2.88188 
-58.3451 -25.6282 2.88188 -55.634 -25.6282 7.22987 -1.2583 -25.6282 9.48956 
6.50967 -25.6282 9.09351 54.0915 -25.6282 2.88188 53.1175 -25.6282 5.40849 
-61.7678 -17.8602 2.88188 60.5907 -17.8602 2.88188 60.8854 -17.1193 2.88188 
-63.2207 -10.0923 2.88188 63.2331 -10.0923 2.88188 -62.9443 -2.32429 2.88188 
63.8698 -2.32429 2.88188 -60.9502 5.44367 2.88188 62.9952 5.44367 2.88188 
60.8854 9.53324 2.88188 60.8854 5.44367 9.9439 -57.8376 13.2116 2.88188 
-55.634 16.9028 2.88188 -55.634 13.2116 6.16112 58.7181 13.2116 2.88188 
53.1175 19.7142 2.88188 -53.154 20.9796 2.88188 -47.8661 27.7963 2.88188 
-47.8661 20.9796 10.1489 51.6586 20.9796 2.88188 45.3495 25.5664 2.88188 
-47.0848 28.7476 2.88188 -40.0981 35.4408 2.88188 -40.0981 28.7476 10.2985 
22.0456 34.2977 2.88188 29.8136 31.9709 2.88188 29.8136 28.7476 10.5995 
39.1296 28.7476 2.88188 37.5815 29.4763 2.88188 37.5815 28.7476 4.65014 
-38.5822 36.5155 2.88188 -32.3302 40.3727 2.88188 -32.3302 36.5155 9.31984 
-24.5622 43.1744 2.88188 -1.2583 43.1872 2.88188 6.50967 40.742 2.88188 
16.429 36.5155 2.88188 14.2776 37.3686 2.88188 14.2776 36.5155 6.15602 
-19.0338 44.2835 2.88188 -16.7942 44.699 2.88188 -16.7942 44.2835 4.14295 
-8.03596 44.2835 2.88188 -9.02626 44.4429 2.88188 -9.02626 44.2835 3.39932 
-32.3302 -33.5057 10.6498 -47.8661 -28.9874 10.6498 -39.5922 -33.3961 10.6498 
-40.0981 -33.3855 10.6498 -31.6408 -33.3961 10.6498 -32.3302 -33.3961 10.7596 
-24.5622 -31.5818 10.6498 -16.7942 -28.629 10.6498 -9.02626 -25.6565 10.6498 
14.2776 -26.3272 10.6498 22.0456 -29.6748 10.6498 29.8136 -30.9425 10.6498 
37.5815 -30.8939 10.6498 45.3495 -28.4976 10.6498 -50.9461 -25.6282 10.6498 
-55.634 -20.8873 10.6498 -47.8661 -25.6282 12.1797 -40.0981 -25.6282 14.7485 
-32.3302 -25.6282 14.6005 -24.5622 -25.6282 13.7797 -16.7942 -25.6282 12.206 
-8.9371 -25.6282 10.6498 -9.02626 -25.6282 10.6637 -1.2583 -20.2362 10.6498 
13.0157 -25.6282 10.6498 6.50967 -18.0912 10.6498 14.2776 -25.6282 10.9816 
22.0456 -25.6282 13.9218 29.8136 -25.6282 15.9589 37.5815 -25.6282 16.0343 
50.1313 -25.6282 10.6498 45.3495 -25.6282 14.5905 53.1175 -23.392 10.6498 
-57.1254 -17.8602 10.6498 -55.634 -17.8602 11.9274 -47.8661 -17.8602 15.9116 
-40.0981 -17.8602 16.8627 -32.3302 -17.8602 16.5993 -24.5622 -17.8602 16.002 
-16.7942 -17.8602 14.2351 -9.02626 -17.8602 12.9244 -1.2583 -17.8602 11.182 
6.50967 -17.8602 10.7054 14.2776 -17.8602 14.5313 58.0567 -17.8602 10.6498 
53.1175 -17.8602 16.6911 60.8854 -11.2635 10.6498 -58.7707 -10.0923 10.6498 
[...]
POINT_DATA 542
SCALARS ImageScalars float
LOOKUP_TABLE default
0 0 0 0 0 0 0 0 0 
0 0 0 0 0 0 0 0 0 
0 0 0 0 0 0 0 0 0 
0 0 0 0 0 0 0 0 0 
0 0 0 0 0 0 0 0 0 
0 0 0 0 0 0 0 0 0 
0 0 0 0 0 0 0 0 0 
0 0 0 0 0 0 0 0 0 
0 0 0 0 0 0 0 0 0 
0 0 0 0 0 0 0 0 0 
0 0 0 0 0 0 0 0 0 
0 0 0 0 0 0 0 0 0 
0 0 0 0 0 0 0 0 0 
0 0 0 0 0 0 0 0 0 
0 0 0 0 0 0 0 0 0 
0 0 0 0 0 0 0 0 0 
0 0 0 0 0 0 0 0 0 
0 0 0 0 0 0 0 0 0 
0 0 0 0 0 0 0 0 0 
0 0 0 0 0 0 0 0 0 
0 0 0 0 0 0 0 0 0 
0 0 0 0 0 0 0 0 0 
0 0 0 0 0 0 0 0 0 
0 0 0 0 0 0 0 0 0 
0 0 0 0 0 0 0 0 0 
0 0 0 0 0 0 0 0 0 
0 0 0 0 0 0 0 0 0 
0 0 0 0 0 0 0 0 0 
0 0 0 0 0 0 0 0 0 
0 0 0 0 0 0 0 0 0 
0 0 0 0 0 0 0 0 0 
0 0 0 0 0 0 0 0 0 
0 0 0 0 0 0 0 0 0 
0 0 0 0 0 0 0 0 0 
0 0 0 0 0 0 0 0 0 
0 0 0 0 0 0 0 0 0 
0 0 0 0 0 0 0 0 0 
0 0 0 0 0 0 0 0 0 
0 0 0 0 0 0 0 0 0 
0 0 0 0 0 0 0 0 0 
0 0 0 0 0 0 0 0 0 
0 0 0 0 0 0 0 0 0 
0 0 0 0 0 0 0 0 0 
0 0 0 0 0 0 0 0 0 
0 0 0 0 0 0 0 0 0 
0 0 0 0 0 0 0 0 0 
0 0 0 0 0 0 0 0 0 
0 0 0 0 0 0 0 0 0 
0 0 0 0 0 0 0 0 0 
0 0 0 0 0 0 0 0 0 
0 0 0 0 0 0 0 0 0 
0 0 0 0 0 0 0 0 0 
0 0 0 0 0 0 0 0 0 
0 0 0 0 0 0 0 0 0 
0 0 0 0 0 0 0 0 0 
0 0 0 0 0 0 0 0 0 
0 0 0 0 0 0 0 0 0 
0 0 0 0 0 0 0 0 0 
0 0 0 0 0 0 0 0 0 
0 0 0 0 0 0 0 0 0 
0 0 
NORMALS Normals float
-0.368045 -0.533331 -0.761644 -0.0986951 -0.480646 -0.871343 0.0412029 -0.468773 -0.882357 
0.0944703 -0.467192 -0.879094 0.114305 -0.494364 -0.861707 0.111952 -0.510353 -0.852647 
-0.0164124 -0.626182 -0.779504 -0.352931 -0.403143 -0.844343 -0.191184 -0.264122 -0.945351 
-0.0818017 -0.177118 -0.980784 0.0363559 -0.131516 -0.990647 0.0961845 -0.139462 -0.985545 
0.101316 -0.157839 -0.982253 0.0873978 -0.180465 -0.979691 0.0106961 -0.215592 -0.976425 
-0.0620945 -0.229672 -0.971285 -0.0541797 -0.261057 -0.963802 0.0439221 -0.335677 -0.940953 
0.185996 -0.399526 -0.897655 0.371555 -0.524723 -0.765906 -0.361688 -0.130418 -0.923132 
-0.138091 -0.0976845 -0.985591 0.0382585 -0.061892 -0.997349 0.0741583 0.0317632 -0.996741 
0.0852352 0.0691424 -0.993959 0.0738853 -0.0266802 -0.99691 0.0498499 -0.106584 -0.993053 
-0.00807815 -0.179206 -0.983778 -0.0776265 -0.0576041 -0.995317 -0.111553 -0.0288001 -0.993341 
-0.0162231 -0.105244 -0.994314 0.100941 -0.162293 -0.981566 0.242902 -0.250176 -0.937236 
0.574718 -0.362605 -0.733633 -0.55771 -0.118796 -0.821491 -0.241053 -0.0473522 -0.969356 
-0.10256 0.0381789 -0.993994 0.0506002 0.0510153 -0.997415 0.16436 0.110663 -0.980173 
0.045409 0.207912 -0.977093 -0.0834885 -0.0391805 -0.995738 -0.0739249 0.0320305 -0.996749 
0.0677167 -0.205053 -0.976406 0.0903963 0.00740783 -0.995878 -0.0989047 0.0775921 -0.992067 
-0.10064 0.0331396 -0.994371 0.0111169 -0.0633273 -0.997931 0.156007 -0.128182 -0.979403 
0.457087 -0.166409 -0.873716 -0.546324 0.0611667 -0.835337 -0.229507 0.0400005 -0.972485 
-0.0327367 0.0420733 -0.998578 0.110795 0.0673752 -0.991557 0.232207 0.108032 -0.966648 
0.0383848 0.157494 -0.986774 -0.174759 -0.0710728 -0.982043 -0.175687 0.162374 -0.970963 
-0.0522573 -0.0262651 -0.998288 0.183321 -0.111641 -0.976693 -0.0912493 -0.0257325 -0.995496 
-0.154202 -0.0182376 -0.987871 -0.0529387 -0.0479476 -0.997446 0.160373 -0.0809142 -0.983734 
0.4114 -0.042675 -0.910455 -0.612328 0.102558 -0.783923 -0.261028 0.127469 -0.956878 
-0.0794859 0.0588108 -0.9951 0.113283 0.0591896 -0.991798 0.251116 0.0331961 -0.967388 
0.106545 -0.0275736 -0.993926 -0.234485 0.250414 -0.939313 -0.160867 -0.0636985 -0.984918 
-0.145337 0.0289739 -0.988958 0.101914 -0.217268 -0.970777 -0.010567 -0.185433 -0.9826 
-0.120036 -0.0812227 -0.989441 -0.0524801 -0.0187662 -0.998446 0.190695 0.067523 -0.979324 
0.452062 0.0901079 -0.887424 -0.299045 0.215457 -0.929597 -0.113497 0.183635 -0.97642 
0.0928334 0.0902286 -0.991585 0.15083 -0.0125824 -0.98848 0.0895374 -0.14045 -0.986031 
-0.110174 -0.0736761 -0.991178 -0.260419 -0.0864643 -0.961616 -0.241765 -0.0374985 -0.96961 
-0.0166204 -0.0912008 -0.995694 0.0582989 -0.18674 -0.980678 0.0169544 -0.0732935 -0.997166 
0.0940102 -0.000344589 -0.995571 0.251725 0.226871 -0.940831 0.565508 0.347362 -0.748025 
-0.231611 0.261766 -0.936928 -0.0753665 0.14737 -0.986206 0.0380288 -0.0398558 -0.998482 
0.0055776 -0.106621 -0.994284 -0.0968763 -0.134941 -0.986106 -0.194861 -0.106589 -0.975022 
-0.176299 0.000944393 -0.984336 -0.0530472 0.0607169 -0.996744 0.0531398 0.0364182 -0.997923 
0.0590854 0.164382 -0.984626 0.240515 0.259328 -0.935362 0.461961 0.433981 -0.773468 
-0.212924 0.305339 -0.928133 -0.113148 0.150979 -0.98204 -0.0129658 0.0663541 -0.997712 
-0.0947972 0.0414116 -0.994635 -0.138582 0.0813753 -0.987002 -0.073558 0.190752 -0.978878 
0.0260802 0.329653 -0.943742 0.172891 0.433788 -0.884272 0.280033 0.608988 -0.742102 
0.377794 0.744767 -0.550085 -0.179973 0.469478 -0.864407 -0.107315 0.384004 -0.917074 
-0.0881731 0.36902 -0.925229 -0.0274553 0.453141 -0.891016 0.117419 0.616417 -0.778616 
0.264837 0.796899 -0.542967 -0.370822 -0.594653 -0.713358 -0.120324 -0.734047 -0.668354 
0.00974585 -0.715005 -0.699051 0.00177601 -0.996678 -0.0814266 0.0967632 -0.663304 -0.742068 
0.11918 -0.62951 -0.767797 0.112791 -0.570648 -0.813412 -0.014946 -0.658165 -0.752726 
-0.409632 -0.549889 -0.72789 -0.399178 -0.489849 -0.775051 -0.515056 -0.657302 -0.550156 
0.0839931 -0.52911 -0.844386 0.0790073 -0.521741 -0.849437 0.0813006 -0.536644 -0.839883 
-0.0273194 -0.626124 -0.779244 -0.03925 -0.563149 -0.825423 -0.0289893 -0.655304 -0.754809 
0.0905388 -0.667886 -0.738736 0.134144 -0.663627 -0.735938 0.14025 -0.694384 -0.705805 
0.245513 -0.622644 -0.742993 0.311723 -0.84104 -0.442132 0.381815 -0.567382 -0.729586 
-0.502085 -0.405137 -0.764052 -0.682834 -0.421942 -0.596408 0.4134 -0.538658 -0.73413 
0.585381 -0.378765 -0.716844 0.691167 -0.663114 -0.287346 -0.6182 -0.157579 -0.770064 
-0.622037 -0.142001 -0.770004 -0.670733 -0.167757 -0.722478 0.593607 -0.365492 -0.716971 
-0.624346 -0.117397 -0.772276 0.616371 -0.220356 -0.755996 0.856631 -0.23373 -0.459949 
-0.626709 0.0638527 -0.776633 0.674494 -0.0584421 -0.735963 0.834692 -0.0374632 -0.549441 
-0.623077 0.104237 -0.775183 -0.639331 0.186232 -0.746039 0.693488 0.176595 -0.69849 
0.863013 0.221143 -0.454208 -0.636319 0.289421 -0.715076 -0.687681 0.305797 -0.65847 
-0.445922 0.403629 -0.798897 0.630566 0.379026 -0.677293 0.619617 0.450084 -0.643039 
-0.438131 0.402139 -0.803944 -0.478948 0.431357 -0.764552 -0.342828 0.399673 -0.850136 
0.583754 0.551745 -0.595659 0.516438 0.65223 -0.554877 0.671418 0.738621 -0.0603074 
-0.732732 0.657644 -0.174951 -0.339589 0.401475 -0.850587 -0.350753 0.410044 -0.841924 
-0.28162 0.458389 -0.842953 0.291542 0.851317 -0.43619 0.305555 0.807157 -0.505108 
0.419286 0.762638 -0.492526 0.393537 0.767969 -0.505324 -0.254061 0.520206 -0.815376 
-0.375883 0.639579 -0.67056 -0.201809 0.562267 -0.801953 -0.120658 0.568629 -0.813697 
-0.0524356 0.64221 -0.764733 0.0657902 0.738949 -0.670542 0.202131 0.802687 -0.561103 
0.290987 0.850699 -0.437764 0.291023 0.840451 -0.457108 -0.11894 0.93944 -0.321412 
0.0448019 0.95469 -0.294212 0.198409 0.974706 -0.102867 0.00456306 -0.999652 -0.0259843 
-0.513378 -0.831776 -0.211167 -0.292579 -0.943765 -0.153966 -0.0824655 -0.991102 -0.104482 
-0.0893563 -0.989827 -0.11072 0.0707747 -0.997331 -0.017945 0.0134493 -0.999549 0.0268356 
0.0955706 -0.995293 -0.0160368 0.122736 -0.992282 -0.0176731 0.0818029 -0.99558 -0.0461279 
0.0537862 -0.995213 -0.0816008 0.0324309 -0.992207 -0.120309 0.0592636 -0.990652 -0.122867 
0.174834 -0.968809 -0.175618 0.327979 -0.92913 -0.170724 -0.649178 -0.721444 -0.241012 
-0.761804 -0.605373 -0.230605 0.419242 -0.890631 -0.176106 0.487525 -0.851061 -0.194973 
0.691129 -0.677938 -0.250479 -0.842946 -0.480995 -0.241011 0.698844 -0.668899 -0.25336 
-0.908768 -0.27218 -0.31632 0.838581 -0.460532 -0.29102 0.884008 -0.368455 -0.287697 
-0.962087 -0.106803 -0.25096 0.929074 -0.229083 -0.290419 -0.968688 0.0991379 -0.22763 
0.967467 -0.0131746 -0.252655 -0.943136 0.259477 -0.207765 0.943458 0.242927 -0.22555 
0.914028 0.3609 -0.185214 -0.895084 0.420424 -0.148551 -0.840345 0.523812 -0.139435 
0.872526 0.461335 -0.160836 -0.805475 0.567191 -0.171772 0.521313 0.852917 -0.0276734 
0.67132 0.73898 -0.0569092 0.670891 0.739383 -0.0567236 0.670722 0.739875 -0.0521266 
-0.736708 0.659396 -0.14986 -0.734344 0.661949 -0.150205 -0.747419 0.66141 -0.0624593 
-0.602417 0.780475 -0.16719 0.293439 0.955364 0.0342483 0.293885 0.955465 0.0267905 
0.468956 0.88321 -0.00440758 0.411355 0.911356 0.0147746 -0.59478 0.786178 -0.167809 
-0.434308 0.869683 -0.234581 -0.266051 0.940821 -0.209935 0.326221 0.944351 -0.0422129 
0.297679 0.954065 0.0338692 0.359321 0.933092 0.0151182 -0.200077 0.960476 -0.193532 
-0.101577 0.979188 -0.175709 0.0587558 0.988526 -0.139152 0.204777 0.974869 -0.0877316 
0.200104 0.975685 -0.089426 0.202313 0.976727 -0.0712359 -0.488109 -0.828983 0.273014 
-0.242335 -0.90509 0.349408 -0.00659807 -0.91603 0.401055 0.0921141 -0.888181 0.450167 
0.151347 -0.812383 0.563141 0.108068 -0.788511 0.605452 0.0492084 -0.776447 0.628259 
0.00713507 -0.778706 0.627348 -0.0351903 -0.844668 0.534133 -0.0465044 -0.887717 0.458035 
0.0911484 -0.931721 0.351551 0.276487 -0.929049 0.245812 -0.586009 -0.759962 0.281159 
-0.731184 -0.623945 0.275795 -0.485292 -0.692664 0.533581 -0.104971 -0.648139 0.754252 
0.154687 -0.602705 0.782827 0.177205 -0.640317 0.747391 0.12038 -0.660567 0.741054 
0.0548954 -0.659257 0.749911 -0.0212702 -0.670829 0.741307 -0.0823124 -0.73393 0.67422 
-0.0747759 -0.800664 0.594429 0.00117904 -0.833099 0.553123 0.351184 -0.909928 0.220684 
0.230586 -0.903723 0.360715 0.440649 -0.879016 0.182099 0.665752 -0.736564 0.119366 
-0.812693 -0.520774 0.261391 -0.687433 -0.559394 0.463157 0.0967463 -0.324146 0.941047 
-0.0815993 -0.326879 0.941537 0.688614 -0.716548 0.111221 0.653469 -0.7249 0.21794 
-0.930258 -0.295874 0.216977 0.876708 -0.475515 0.0725864 0.891086 -0.448028 0.0723667 
-0.971114 -0.0681832 0.228668 0.976111 -0.205164 0.0715149 -0.957259 0.138902 0.253695 
0.995312 0.0168413 0.0952342 -0.915932 0.284314 0.283257 0.945955 0.297602 0.128851 
0.896316 0.413666 0.159679 0.850371 0.337537 0.403656 -0.828161 0.456593 0.325073 
-0.80332 0.501088 0.32185 -0.740882 0.458173 0.491092 0.824193 0.529021 0.202095 
0.645878 0.724186 0.241653 -0.787485 0.532931 0.309601 -0.737136 0.606542 0.297888 
-0.586953 0.402224 0.70264 0.607435 0.75404 0.249893 0.485844 0.828923 0.277203 
-0.726592 0.618427 0.299353 -0.58765 0.759558 0.278815 -0.532997 0.486249 0.692442 
0.317036 0.914849 0.250078 0.295908 0.905562 0.303968 0.314089 0.830322 0.460341 
0.385675 0.875776 0.290296 0.363716 0.883437 0.29538 0.367222 0.866357 0.338488 
-0.559003 0.783915 0.270171 -0.43591 0.862382 0.257448 -0.43786 0.700075 0.564069 
-0.25021 0.943251 0.218338 0.222262 0.955097 0.19593 0.350433 0.91624 0.194167 
0.36086 0.905599 0.222871 0.37858 0.901401 0.210128 0.382837 0.879566 0.282488 
-0.125966 0.969662 0.209495 -0.0770147 0.97515 0.207727 -0.0834292 0.962807 0.256988 
0.112345 0.973007 0.201584 0.095783 0.974679 0.202054 0.0933412 0.971376 0.218441 
0.0558851 -0.634069 0.771254 -0.423849 -0.477721 0.769503 -0.0948466 -0.647347 0.756271 
-0.104852 -0.647525 0.754797 0.065759 -0.62636 0.776756 0.0561629 -0.629521 0.774951 
0.152729 -0.524885 0.837359 0.181323 -0.447808 0.875551 0.161749 -0.364811 0.916924 
-0.269972 -0.412946 0.869822 -0.154961 -0.66187 0.733428 -0.0544518 -0.743981 0.665978 
0.134126 -0.811964 0.568089 0.35734 -0.799338 0.483081 -0.493041 -0.464731 0.735484 
-0.60917 -0.383964 0.69389 -0.3666 -0.420927 0.829714 -0.118501 -0.35959 0.925555 
0.0591879 -0.324061 0.944183 0.14093 -0.354017 0.92456 0.185208 -0.351399 0.917724 
0.161148 -0.363457 0.917568 0.161867 -0.364015 0.91722 0.125638 -0.300692 0.94541 
-0.252769 -0.378724 0.890323 -0.165359 -0.296298 0.940672 -0.283906 -0.39564 0.873422 
-0.265493 -0.55909 0.78545 -0.116837 -0.611176 0.782824 0.0544829 -0.646574 0.760903 
0.503535 -0.735103 0.453956 0.316288 -0.718862 0.619031 0.606856 -0.66467 0.43582 
-0.64236 -0.280659 0.713165 -0.583324 -0.252347 0.772045 -0.29309 -0.216722 0.931198 
-0.035509 -0.223778 0.973993 0.0529774 -0.167675 0.984418 0.147876 -0.141141 0.978883 
0.191668 -0.139199 0.971539 0.182451 -0.24208 0.952947 0.133812 -0.302899 0.943582 
-0.16823 -0.297333 0.939836 -0.423969 -0.402705 0.81122 0.768899 -0.49035 0.410307 
0.547858 -0.483464 0.682725 0.883177 -0.240448 0.402721 -0.709024 -0.0311984 0.704494 
-0.547239 -0.0266878 0.836551 -0.289786 0.00157328 0.95709 -0.0747848 -0.0150247 0.997087 
0.122435 -0.046682 0.991378 0.180213 -0.00632393 0.983607 0.0849822 0.013477 0.996291 
-0.0255732 -0.276202 0.960759 -0.0260886 -0.309701 0.950476 -0.202612 -0.498446 0.842912 
-0.249231 -0.196099 0.948382 0.894053 -0.199417 0.401127 0.879652 -0.198483 0.432224 
-0.673347 0.14116 0.725725 -0.590185 0.134342 0.796011 -0.270124 0.102085 0.957398 
-0.090498 0.0698897 0.993441 0.070267 0.0285312 0.99712 0.201396 -0.00433474 0.9795 
-0.035605 -0.0467928 0.99827 -0.066793 -0.166818 0.983723 -0.12971 -0.0653353 0.989397 
0.90895 0.0408546 0.414899 0.857109 0.281237 0.43159 0.876639 0.0390297 0.479563 
-0.649349 0.238027 0.722281 -0.63459 0.266361 0.725498 -0.62014 0.233685 0.748878 
-0.339102 0.191193 0.921116 -0.149665 0.117423 0.981739 0.0453274 0.0509759 0.997671 
0.106875 -0.0655681 0.992108 -0.147714 -0.241982 0.958971 -0.0287519 -0.173641 0.984389 
0.834262 0.340536 0.433639 -0.54099 0.351202 0.76419 -0.558859 0.37781 0.738198 
-0.445251 0.278923 0.850855 -0.216662 0.195189 0.956535 -0.108387 0.0293625 0.993675 
-0.0843586 -0.108234 0.99054 -0.124113 -0.261864 0.957091 -0.0399513 -0.143499 0.988844 
0.680807 0.558381 0.474038 0.622274 0.61739 0.481253 0.610787 0.555176 0.564552 
-0.556425 0.384027 0.736828 -0.51561 0.464928 0.719714 -0.356839 0.256517 0.898257 
-0.253921 0.11607 0.960235 -0.174734 -0.00603026 0.984597 0.314247 0.829441 0.461818 
0.371108 0.781424 0.501653 0.31404 0.628518 0.711579 0.471919 0.722515 0.505237 
0.456708 0.731138 0.506808 0.453221 0.714392 0.533137 -0.519313 0.471757 0.712572 
-0.426586 0.625352 0.653421 -0.362042 0.332542 0.870828 -0.265463 0.242665 0.933083 
0.38595 0.82286 0.417066 0.232472 0.492313 0.838799 0.314373 0.829587 0.46147 
0.345265 0.832182 0.433894 0.293906 0.711596 0.638162 -0.390456 0.667395 0.634135 
-0.287125 0.728654 0.62179 -0.281456 0.616946 0.734956 -0.134137 0.816729 0.561214 
-0.169884 0.577496 0.798522 0.0269844 0.865616 0.49998 -0.0297747 0.60389 0.796512 
0.171984 0.87674 0.449165 0.12119 0.655468 0.745436 0.366144 0.838193 0.404192 
0.321462 0.853506 0.41011 0.299569 0.771419 0.561401 -0.330642 -0.37631 0.865486 
-0.144666 -0.481132 0.864629 0.0324636 -0.537304 0.842764 0.253859 -0.508934 0.822522 
-0.341873 -0.369179 0.864193 -0.329819 -0.362248 0.871777 -0.154876 -0.350192 0.923785 
0.0298477 -0.382416 0.923508 0.402589 -0.441418 0.801918 0.232715 -0.392905 0.889646 
0.52504 -0.315318 0.790511 -0.117494 -0.338121 0.933739 -0.153089 -0.219409 0.963547 
-0.244867 -0.182389 0.952247 -0.259555 -0.113469 0.959039 -0.157342 -0.11486 0.980842 
-0.0187229 -0.12843 0.991542 0.180628 -0.175612 0.967747 0.57364 -0.172831 0.800666 
0.515676 -0.169478 0.839855 -0.124582 -0.322286 0.938409 -0.111924 -0.321891 0.940138 
-0.121182 -0.33187 0.935509 -0.142183 -0.196443 0.970152 -0.141469 -0.143973 0.979417 
-0.147582 -0.197751 0.969079 -0.142507 -0.0604171 0.987948 -0.112423 -0.0849859 0.990019 
-0.268428 -0.0111066 0.963236 -0.182681 0.00816831 0.983138 -0.0346764 0.0172344 0.99925 
0.191991 0.02937 0.980957 0.600106 0.0303917 0.799343 0.515118 0.0288544 0.856633 
-0.177355 -0.0870001 0.980294 -0.0831411 -0.107257 0.990749 -0.154074 -0.0267338 0.987698 
-0.0567471 -0.126642 0.990324 -0.104107 -0.075552 0.991692 -0.0578307 -0.153494 0.986456 
-0.188048 -0.0365546 0.981479 -0.13722 0.0645034 0.988438 0.00284809 0.148283 0.988941 
0.204857 0.239989 0.948914 0.565948 0.30833 0.764614 0.543889 0.348624 0.763313 
0.530426 0.30634 0.790446 -0.0846879 -0.165983 0.982485 -0.126992 -0.193881 0.972771 
-0.039773 -0.141466 0.989144 -0.0293953 -0.033658 0.999001 -0.0408944 -0.142318 0.988976 
-0.0395693 -0.143091 0.988918 -0.139037 -0.0190589 0.990104 -0.0931206 -0.0717861 0.993064 
-0.0521403 0.0313568 0.998147 0.00684116 0.208681 0.97796 0.249361 0.516155 0.819392 
0.147284 0.348491 0.925668 0.379938 0.495476 0.781121 0.354214 0.509469 0.784203 
0.340958 0.480002 0.808298 -0.157242 -0.0272018 0.987185 -0.129952 -0.0611606 0.989632 
-0.0225706 -0.0603982 0.997919 0.00152083 -0.0954927 0.995429 -0.0356294 0.0220816 0.999121 
0.161538 0.391759 0.905776 -0.00354865 0.167437 0.985876 0.15608 0.441045 0.883809 
0.0966385 0.323345 0.941334 0.192308 0.495801 0.846876 0.173839 0.486149 0.85641 
0.164285 0.465476 0.869679 -0.196798 0.201016 0.959616 -0.171002 0.250459 0.952905 
-0.169848 0.189377 0.967103 -0.0544348 0.380346 0.923241 -0.0641795 0.18026 0.981523 
0.0706099 0.386959 0.91939 0.0395588 0.161 0.986161 0.186095 0.388179 0.902599 
0.169161 0.369298 0.913785 0.138056 0.275694 0.95128 
