# vtk DataFile Version 4.2
vtk output
ASCII
DATASET POLYDATA
POINTS 562 float
-49.2269 -9.82695 -16.7755 62.2026 -9.82695 -16.5976 -49.2269 -1.8677 -17.6293 
-49.2269 6.09155 -16.7483 -17.3899 -41.6639 -9.60665 -9.43066 -41.6639 -13.0253 
-1.47142 -41.6639 -13.3498 6.48783 -41.6639 -12.6909 14.4471 -41.6639 -11.7809 
22.4063 -41.6639 -10.4854 -33.3084 -33.7047 -9.30085 -25.3492 -33.7047 -10.528 
-17.3899 -33.7047 -13.1406 -9.43066 -33.7047 -15.322 -1.47142 -33.7047 -14.9767 
6.48783 -33.7047 -14.8674 14.4471 -33.7047 -14.371 22.4063 -33.7047 -13.6192 
30.3656 -33.7047 -13.0449 38.3248 -33.7047 -10.89 -49.2269 -25.7454 -10.3471 
-41.2677 -25.7454 -12.0639 -33.3084 -25.7454 -14.3696 -25.3492 -25.7454 -13.3534 
-17.3899 -25.7454 -13.8182 -9.43066 -25.7454 -14.8931 -1.47142 -25.7454 -14.9807 
6.48783 -25.7454 -14.6599 14.4471 -25.7454 -14.7368 22.4063 -25.7454 -14.771 
30.3656 -25.7454 -14.3042 38.3248 -25.7454 -15.0245 46.2841 -25.7454 -12.4162 
-57.1861 -17.7862 -11.4001 -49.2269 -10.4213 -16.548 -49.2269 -17.7862 -13.4817 
-41.2677 -17.7862 -14.396 -33.3084 -17.7862 -14.7577 -25.3492 -17.7862 -14.2275 
-17.3899 -17.7862 -13.9638 -9.43066 -17.7862 -14.0972 -1.47142 -17.7862 -13.9515 
6.48783 -17.7862 -13.641 14.4471 -17.7862 -14.4373 22.4063 -17.7862 -14.7142 
30.3656 -17.7862 -16.0492 38.3248 -17.7862 -14.4421 46.2841 -17.7862 -14.9671 
54.2433 -17.7862 -12.4691 62.2026 -9.98468 -16.548 -65.1454 -9.82695 -10.4944 
-49.6338 -9.82695 -16.548 -57.1861 -9.82695 -12.0717 -48.1189 -9.82695 -16.548 
-41.2677 -9.82695 -15.2263 -33.3084 -9.82695 -14.6296 -25.3492 -9.82695 -14.3712 
-17.3899 -9.82695 -13.7449 -9.43066 -9.82695 -15.0773 -1.47142 -9.82695 -14.0485 
6.48783 -9.82695 -14.9088 14.4471 -9.82695 -13.6434 22.4063 -9.82695 -13.3706 
30.3656 -9.82695 -14.5157 38.3248 -9.82695 -15.1536 46.2841 -9.82695 -15.2086 
61.9422 -9.82695 -16.548 54.2433 -9.82695 -13.8765 62.2995 -9.82695 -16.548 
62.2026 -9.69722 -16.548 -65.1454 -1.8677 -12.6933 -51.2569 -1.8677 -16.548 
-57.1861 -1.8677 -13.3899 -45.7474 -1.8677 -16.548 -41.2677 -1.8677 -15.3309 
-33.3084 -1.8677 -14.7039 -25.3492 -1.8677 -13.8904 -17.3899 -1.8677 -12.9024 
-9.43066 -1.8677 -15.2765 -1.47142 -1.8677 -13.2773 6.48783 -1.8677 -15.2292 
14.4471 -1.8677 -13.8461 22.4063 -1.8677 -12.7613 30.3656 -1.8677 -14.3549 
38.3248 -1.8677 -15.365 46.2841 -1.8677 -15.4482 54.2433 -1.8677 -14.979 
62.2026 -1.8677 -12.6042 -65.1454 6.09155 -12.0769 -49.6455 6.09155 -16.548 
-57.1861 6.09155 -12.9398 -48.3062 6.09155 -16.548 -49.2269 6.87382 -16.548 
-41.2677 6.09155 -15.1723 -33.3084 6.09155 -14.5667 -25.3492 6.09155 -14.2821 
-17.3899 6.09155 -13.379 -9.43066 6.09155 -15.3465 -1.47142 6.09155 -15.3986 
6.48783 6.09155 -14.4896 14.4471 6.09155 -15.0502 22.4063 6.09155 -13.1904 
30.3656 6.09155 -14.1523 38.3248 6.09155 -15.1049 46.2841 6.09155 -15.3695 
54.2433 6.09155 -14.6554 62.2026 6.09155 -12.4465 -65.1454 14.0508 -9.95587 
-57.1861 14.0508 -13.2088 -49.2269 14.0508 -14.7185 -41.2677 14.0508 -14.496 
-33.3084 14.0508 -14.592 -25.3492 14.0508 -13.5145 -17.3899 14.0508 -12.4432 
-9.43066 14.0508 -13.7432 -1.47142 14.0508 -13.8438 6.48783 14.0508 -13.4123 
14.4471 14.0508 -14.4745 22.4063 14.0508 -13.3955 30.3656 14.0508 -13.8877 
38.3248 14.0508 -13.7265 46.2841 14.0508 -14.062 54.2433 14.0508 -12.109 
62.2026 14.0508 -11.2043 -57.1861 22.01 -11.9143 -49.2269 22.01 -12.9224 
-41.2677 22.01 -13.1394 -33.3084 22.01 -12.6909 -25.3492 22.01 -11.7537 
-17.3899 22.01 -11.1242 -9.43066 22.01 -11.5871 -1.47142 22.01 -11.9278 
6.48783 22.01 -12.0892 14.4471 22.01 -12.6747 22.4063 22.01 -12.2759 
30.3656 22.01 -11.7823 38.3248 22.01 -11.5889 46.2841 22.01 -10.8499 
54.2433 22.01 -9.60365 -41.2677 29.9693 -8.87869 -33.3084 29.9693 -8.71865 
-17.3899 29.9693 -8.78511 -9.43066 29.9693 -9.88546 -1.47142 29.9693 -9.80804 
6.48783 29.9693 -10.1067 14.4471 29.9693 -10.3558 22.4063 29.9693 -10.0694 
30.3656 29.9693 -10.1833 38.3248 29.9693 -8.67928 -17.3899 -42.8467 -8.58879 
-9.43066 -46.2113 -8.58879 -1.47142 -48.2689 -8.58879 -1.47142 -49.6232 -1.42161 
6.48783 -47.4932 -8.58879 14.4471 -45.013 -8.58879 22.4063 -43.5191 -8.58879 
-33.3084 -34.4062 -8.58879 -19.2789 -41.6639 -8.58879 -25.3492 -36.4925 -8.58879 
26.6949 -41.6639 -8.58879 30.3656 -39.3201 -8.58879 30.3656 -41.6639 -1.72498 
38.3248 -36.2376 -8.58879 -49.2269 -28.2297 -8.58879 -35.0661 -33.7047 -8.58879 
-41.2677 -30.1381 -8.58879 -41.2677 -33.7047 -1.41737 42.6266 -33.7047 -8.58879 
46.2841 -31.225 -8.58879 -53.1876 -25.7454 -8.58879 -57.1861 -22.9099 -8.58879 
-57.1861 -25.7454 -4.24743 53.3686 -25.7454 -8.58879 54.2433 -24.9572 -8.58879 
54.2433 -25.7454 -5.63189 -62.3128 -17.7862 -8.58879 -65.1454 -13.1613 -8.58879 
-65.1454 -17.7862 -4.24865 60.5515 -17.7862 -8.58879 62.2026 -15.4101 -8.58879 
62.2026 -17.7862 -3.52899 -67.689 -9.82695 -8.58879 67.7657 -9.82695 -8.58879 
-71.4317 -1.8677 -8.58879 -73.1046 -1.8677 -5.37059 67.4588 -1.8677 -8.58879 
70.1618 -1.8677 -4.4751 -70.1752 6.09155 -8.58879 -73.1046 6.09155 -4.08654 
68.2591 6.09155 -8.58879 70.1618 6.09155 -5.95796 -67.6672 14.0508 -8.58879 
-73.1046 14.0508 -1.95235 -65.1454 16.1188 -8.58879 65.8737 14.0508 -8.58879 
62.2026 21.3228 -8.58879 -60.8522 22.01 -8.58879 -65.1454 22.01 -4.62213 
-57.1861 28.051 -8.58879 -49.2269 29.2926 -8.58879 -25.3492 29.3102 -8.58879 
46.2841 25.7951 -8.58879 60.962 22.01 -8.58879 54.2433 23.0783 -8.58879 
62.2026 22.01 -8.09975 -57.1861 29.9693 -5.81084 -44.139 29.9693 -8.58879 
-49.2269 29.9693 -7.98823 -41.2677 30.5472 -8.58879 -30.9855 29.9693 -8.58879 
-33.3084 30.1838 -8.58879 -20.4644 29.9693 -8.58879 -25.3492 29.9693 -8.26423 
-17.3899 30.319 -8.58879 -9.43066 32.6427 -8.58879 -1.47142 32.7676 -8.58879 
6.48783 33.215 -8.58879 14.4471 33.6033 -8.58879 22.4063 32.6131 -8.58879 
30.3656 32.3383 -8.58879 38.6274 29.9693 -8.58879 38.3248 30.199 -8.58879 
46.2841 29.9693 -5.39287 54.2433 29.9693 -1.68342 -33.3084 37.9285 -1.4255 
-25.3492 37.9285 -1.69681 -17.3899 37.9285 -3.04583 -9.43066 37.9285 -5.01586 
-1.47142 37.9285 -5.65279 6.48783 37.9285 -5.54086 14.4471 37.9285 -5.68176 
22.4063 37.9285 -4.90098 30.3656 37.9285 -2.62868 -1.47142 -49.7293 -0.629545 
-17.3899 -44.7638 -0.629545 -2.07331 -49.6232 -0.629545 -9.43066 -48.0551 -0.629545 
0.651528 -49.6232 -0.629545 -1.47142 -49.6232 -0.417468 6.48783 -49.2634 -0.629545 
14.4471 -47.1314 -0.629545 22.4063 -44.2608 -0.629545 30.3656 -41.9024 -0.629545 
-41.2677 -33.9794 -0.629545 -33.3084 -36.9173 -0.629545 -23.5101 -41.6639 -0.629545 
-25.3492 -40.6579 -0.629545 -17.3899 -41.6639 3.67963 14.4471 -41.6639 6.06867 
22.4063 -41.6639 2.39637 30.8846 -41.6639 -0.629545 30.3656 -41.6639 -0.254275 
38.3248 -38.0119 -0.629545 -57.1861 -27.4471 -0.629545 -42.5526 -33.7047 -0.629545 
-49.2269 -31.8009 -0.629545 -41.2677 -33.7047 -0.014031 -33.3084 -33.7047 4.06738 
30.3656 -33.7047 5.60244 44.8833 -33.7047 -0.629545 38.3248 -33.7047 5.08455 
46.2841 -32.3319 -0.629545 54.2433 -26.8345 -0.629545 -59.509 -25.7454 -0.629545 
-65.1454 -20.1075 -0.629545 -57.1861 -25.7454 2.95258 -49.2269 -25.7454 5.32976 
46.2841 -25.7454 4.49902 55.5427 -25.7454 -0.629545 54.2433 -25.7454 0.847644 
62.2026 -18.8684 -0.629545 -66.9663 -17.7862 -0.629545 -65.1454 -17.7862 2.82251 
-57.1861 -17.7862 7.19906 54.2433 -17.7862 5.57603 63.2502 -17.7862 -0.629545 
62.2026 -17.7862 0.673782 -71.9976 -9.82695 -0.629545 -73.1046 -6.18733 -0.629545 
-65.1454 -9.82695 5.3482 69.7525 -9.82695 -0.629545 70.1618 -9.04394 -0.629545 
-74.2117 -1.8677 -0.629545 -73.1046 -1.8677 1.65227 62.2026 -1.8677 7.05648 
72.5221 -1.8677 -0.629545 70.1618 -1.8677 3.17321 -74.1775 6.09155 -0.629545 
-73.1046 6.09155 1.76452 73.3101 6.09155 -0.629545 70.1618 14.0213 -0.629545 
70.1618 6.09155 5.66819 -73.5152 14.0508 -0.629545 -73.1046 14.7515 -0.629545 
-73.1046 14.0508 0.210765 70.1466 14.0508 -0.629545 62.2026 14.0508 7.13746 
-68.2634 22.01 -0.629545 -65.1454 25.7839 -0.629545 -65.1454 22.01 7.02545 
65.0951 22.01 -0.629545 62.2026 24.4185 -0.629545 62.2026 22.01 6.93537 
-59.6678 29.9693 -0.629545 -57.1861 31.5853 -0.629545 -49.2269 35.5913 -0.629545 
-41.2677 36.7603 -0.629545 38.3248 36.9515 -0.629545 46.2841 33.9334 -0.629545 
55.2902 29.9693 -0.629545 54.2433 30.7392 -0.629545 54.2433 29.9693 1.83216 
-35.6637 37.9285 -0.629545 -33.3084 38.3868 -0.629545 -33.3084 37.9285 1.25021 
-25.3492 38.7734 -0.629545 -25.3492 37.9285 6.45264 -17.3899 39.8525 -0.629545 
-9.43066 41.6622 -0.629545 -1.47142 42.2327 -0.629545 6.48783 42.1437 -0.629545 
14.4471 42.0491 -0.629545 22.4063 41.7185 -0.629545 35.1644 37.9285 -0.629545 
30.3656 39.7722 -0.629545 -9.43066 -41.7973 7.3297 -1.47142 -43.2167 7.3297 
6.48783 -42.7335 7.3297 -25.3492 -34.4884 7.3297 -9.71101 -41.6639 7.3297 
-17.3899 -38.0139 7.3297 -9.43066 -41.6639 7.42052 -1.47142 -41.6639 8.38787 
9.78276 -41.6639 7.3297 6.48783 -41.6639 8.02052 14.4471 -39.9882 7.3297 
22.4063 -36.3645 7.3297 -41.2677 -28.645 7.3297 -26.6598 -33.7047 7.3297 
-33.3084 -29.807 7.3297 -25.3492 -33.7047 7.82057 -17.3899 -33.7047 10.2541 
-9.43066 -33.7047 11.9035 -1.47142 -33.7047 12.3723 6.48783 -33.7047 12.3772 
14.4471 -33.7047 10.8741 26.6426 -33.7047 7.3297 22.4063 -33.7047 8.98664 
30.3656 -29.925 7.3297 38.3248 -27.0234 7.3297 -45.6629 -25.7454 7.3297 
-49.2269 -23.6352 7.3297 -41.2677 -25.7454 9.03214 -33.3084 -25.7454 9.85143 
-25.3492 -25.7454 11.656 -17.3899 -25.7454 13.5609 -9.43066 -25.7454 14.6169 
-1.47142 -25.7454 14.9799 6.48783 -25.7454 15.1399 14.4471 -25.7454 13.3044 
22.4063 -25.7454 10.937 30.3656 -25.7454 9.03106 39.2583 -25.7454 7.3297 
38.3248 -25.7454 7.71736 46.2841 -21.1601 7.3297 -56.9601 -17.7862 7.3297 
-57.1861 -17.5339 7.3297 -49.2269 -17.7862 10.7117 -41.2677 -17.7862 11.669 
-33.3084 -17.7862 12.3415 -25.3492 -17.7862 13.6882 -17.3899 -17.7862 15.1915 
14.4471 -17.7862 14.6394 22.4063 -17.7862 12.6424 30.3656 -17.7862 11.3321 
38.3248 -17.7862 10.0895 50.4251 -17.7862 7.3297 46.2841 -17.7862 9.35072 
[...]
POINT_DATA 562
SCALARS ImageScalars float
LOOKUP_TABLE default
0 0 0 0 0 0 0 0 0 
0 0 0 0 0 0 0 0 0 
0 0 0 0 0 0 0 0 0 
0 0 0 0 0 0 0 0 0 
0 0 0 0 0 0 0 0 0 
0 0 0 0 0 0 0 0 0 
0 0 0 0 0 0 0 0 0 
0 0 0 0 0 0 0 0 0 
0 0 0 0 0 0 0 0 0 
0 0 0 0 0 0 0 0 0 
0 0 0 0 0 0 0 0 0 
0 0 0 0 0 0 0 0 0 
0 0 0 0 0 0 0 0 0 
0 0 0 0 0 0 0 0 0 
0 0 0 0 0 0 0 0 0 
0 0 0 0 0 0 0 0 0 
0 0 0 0 0 0 0 0 0 
0 0 0 0 0 0 0 0 0 
0 0 0 0 0 0 0 0 0 
0 0 0 0 0 0 0 0 0 
0 0 0 0 0 0 0 0 0 
0 0 0 0 0 0 0 0 0 
0 0 0 0 0 0 0 0 0 
0 0 0 0 0 0 0 0 0 
0 0 0 0 0 0 0 0 0 
0 0 0 0 0 0 0 0 0 
0 0 0 0 0 0 0 0 0 
0 0 0 0 0 0 0 0 0 
0 0 0 0 0 0 0 0 0 
0 0 0 0 0 0 0 0 0 
0 0 0 0 0 0 0 0 0 
0 0 0 0 0 0 0 0 0 
0 0 0 0 0 0 0 0 0 
0 0 0 0 0 0 0 0 0 
0 0 0 0 0 0 0 0 0 
0 0 0 0 0 0 0 0 0 
0 0 0 0 0 0 0 0 0 
0 0 0 0 0 0 0 0 0 
0 0 0 0 0 0 0 0 0 
0 0 0 0 0 0 0 0 0 
0 0 0 0 0 0 0 0 0 
0 0 0 0 0 0 0 0 0 
0 0 0 0 0 0 0 0 0 
0 0 0 0 0 0 0 0 0 
0 0 0 0 0 0 0 0 0 
0 0 0 0 0 0 0 0 0 
0 0 0 0 0 0 0 0 0 
0 0 0 0 0 0 0 0 0 
0 0 0 0 0 0 0 0 0 
0 0 0 0 0 0 0 0 0 
0 0 0 0 0 0 0 0 0 
0 0 0 0 0 0 0 0 0 
0 0 0 0 0 0 0 0 0 
0 0 0 0 0 0 0 0 0 
0 0 0 0 0 0 0 0 0 
0 0 0 0 0 0 0 0 0 
0 0 0 0 0 0 0 0 0 
0 0 0 0 0 0 0 0 0 
0 0 0 0 0 0 0 0 0 
0 0 0 0 0 0 0 0 0 
0 0 0 0 0 0 0 0 0 
0 0 0 0 0 0 0 0 0 
0 0 0 0 
NORMALS Normals float
0.174282 0.239584 0.955105 -0.253295 -0.0556854 0.965785 0.0965197 1.04761e-05 0.995331 
0.12596 -0.177591 0.97601 0.417381 0.649295 0.635775 0.227319 0.529897 0.817028 
-0.0292559 0.41497 0.909364 -0.0915373 0.471025 0.877357 -0.151925 0.585371 0.796404 
-0.285723 0.71007 0.643555 0.239078 0.711802 0.660438 0.284043 0.509701 0.812111 
0.26503 0.242408 0.933273 0.122599 0.0768649 0.989475 -0.0282023 0.104391 0.994136 
-0.0357793 0.121614 0.991932 -0.0945522 0.158162 0.982876 -0.0774656 0.2656 0.960966 
-0.191898 0.445068 0.874694 -0.311351 0.606326 0.73173 0.28734 0.536755 0.793303 
0.245875 0.498404 0.831348 0.059025 0.331255 0.941693 -0.0190771 0.200439 0.97952 
0.0950391 0.0534273 0.994039 0.0748648 -0.0768145 0.994231 -0.0146554 -0.0641362 0.997834 
-0.0157784 -0.0803198 0.996644 0.00709792 0.00251115 0.999972 -0.0274841 0.0784676 0.996538 
0.00716339 0.182869 0.983111 -0.135641 0.217642 0.966558 -0.330274 0.412042 0.8492 
0.352722 0.248378 0.902162 0.178574 0.253125 0.95081 0.230292 0.398908 0.887602 
0.0671696 0.160627 0.984727 -0.00619664 0.0104401 0.999926 -0.0488215 0.0617 0.9969 
-0.00791233 -0.00426505 0.99996 -0.000754374 0.00647531 0.999979 -0.0289582 -0.0596049 0.997802 
0.0311739 0.00458731 0.999503 0.0670779 -0.0682411 0.995411 0.0997818 -0.0887338 0.991045 
-0.016011 0.0106104 0.999816 -0.0754413 0.0169695 0.997006 -0.178707 0.222134 0.958499 
-0.325029 0.257679 0.909922 -0.260333 -0.0416011 0.964622 0.476935 0.363444 0.800276 
0.181365 0.237865 0.954215 0.349226 0.131106 0.927821 0.131197 0.218475 0.966983 
-0.122739 0.0689439 0.990041 -0.0565691 -0.00332504 0.998393 -0.0550018 -0.0189327 0.998307 
0.037095 -0.0673522 0.997039 0.0231087 0.0784387 0.996651 -0.0130835 -0.0399608 0.999116 
-0.0327987 0.106864 0.993733 -0.0901408 -0.0432241 0.994991 0.055473 -0.124594 0.990656 
0.112007 -0.103598 0.988292 0.0450246 0.0584985 0.997272 -0.0660351 0.0269233 0.997454 
-0.24502 -0.0456447 0.968443 -0.04658 0.205443 0.97756 -0.263923 -0.0499036 0.963252 
-0.254998 -0.0583449 0.96518 0.45569 0.0886006 0.885718 0.144403 0.0105695 0.989462 
0.286893 0.0516102 0.956571 -0.0235911 -0.00328443 0.999716 -0.163344 -0.00342782 0.986563 
-0.0860049 -0.00393921 0.996287 -0.117266 -0.00814317 0.993067 0.0926154 -0.0222639 0.995453 
0.037727 0.0164289 0.999153 -0.0266975 0.0752133 0.99681 0.0594635 -0.0282803 0.99783 
-0.170398 0.0901586 0.981242 0.0517918 -0.0112381 0.998595 0.162088 -0.0225803 0.986518 
0.0688906 -0.00298833 0.99762 -0.022061 0.0121169 0.999683 -0.227767 0.0454309 0.972655 
-0.39363 -0.101166 0.913685 0.44982 -0.150701 0.880313 0.131831 -0.172833 0.976089 
0.264809 -0.00402286 0.964293 0.0949206 -0.162023 0.982211 0.128617 -0.187701 0.973769 
-0.125822 -0.0514596 0.990717 -0.0542162 -0.00705012 0.998504 -0.0779532 -0.0262245 0.996612 
0.0710785 -0.0284563 0.997065 0.128432 -0.0877211 0.987831 -0.0517513 0.0374663 0.997957 
-0.0224332 -0.11125 0.993539 -0.0988532 0.0213834 0.994872 -0.0333372 0.0398966 0.998648 
0.119127 -0.0288313 0.99246 0.0792754 -0.101226 0.9917 -0.0223529 -0.0745571 0.996966 
-0.242562 -0.174406 0.95433 -0.306421 -0.0478009 0.950695 0.526011 -0.350703 0.774803 
0.212111 -0.0373068 0.976533 0.11028 -0.256273 0.960293 -0.00677337 -0.116979 0.993111 
-0.0614809 -0.114893 0.991473 -0.131334 -0.149574 0.979989 0.00699334 -0.138721 0.990307 
0.0915132 -0.243992 0.96545 -0.0211826 -0.218703 0.975562 0.0412217 -0.148151 0.988105 
-0.00450467 -0.141805 0.989884 -0.0346361 -0.0550754 0.997881 0.0208631 -0.146713 0.988959 
0.00936876 -0.20803 0.978078 -0.097597 -0.305388 0.947213 -0.146106 -0.256242 0.955507 
-0.455983 -0.359585 0.814112 0.387353 -0.364271 0.846915 0.0537949 -0.306877 0.950228 
-0.012949 -0.345231 0.938429 -0.0807288 -0.332586 0.939611 -0.0942282 -0.300233 0.9492 
-0.0103029 -0.214051 0.976768 0.049624 -0.227211 0.97258 0.0304151 -0.227432 0.973319 
0.0457527 -0.199627 0.978803 0.0130159 -0.245861 0.969218 -0.0551239 -0.193717 0.979508 
-0.0404791 -0.238065 0.970405 -0.0554572 -0.321154 0.945402 -0.0874187 -0.404207 0.910481 
-0.153332 -0.535935 0.830219 0.0334562 -0.483205 0.874868 -0.0331213 -0.50085 0.8649 
0.0974581 -0.393502 0.914143 0.0573444 -0.337778 0.939477 0.0137909 -0.338974 0.940695 
0.0326898 -0.349645 0.936312 -0.0004434 -0.370651 0.928772 -0.00958795 -0.384615 0.923027 
-0.0887518 -0.423628 0.901478 -0.249852 -0.360612 0.898628 0.426234 0.710282 0.560201 
0.293064 0.797091 0.527977 0.0634002 0.856394 0.512415 0.0686551 0.988383 -0.135596 
-0.160276 0.824205 0.543137 -0.235856 0.784235 0.573888 -0.291324 0.835659 0.465623 
0.262636 0.744129 0.614243 0.439178 0.692594 0.572221 0.39065 0.631575 0.669706 
-0.348681 0.781591 0.51724 -0.383018 0.739136 0.554053 -0.394776 0.910625 -0.122119 
-0.387086 0.760169 0.521831 0.326703 0.675246 0.661292 0.265453 0.748312 0.607917 
0.261701 0.752164 0.604783 0.30751 0.951544 0.00151423 -0.480015 0.749709 0.455545 
-0.537669 0.741229 0.40186 0.362914 0.669432 0.648193 0.408029 0.610124 0.679162 
0.490848 0.836174 0.244707 -0.488574 0.764271 0.420933 -0.497853 0.752149 0.431757 
-0.557361 0.813267 0.16717 0.55417 0.363955 0.748621 0.552455 0.377275 0.743275 
0.78121 0.553209 0.289259 -0.763088 0.444893 0.468793 -0.767939 0.497501 0.403438 
-0.785896 0.618122 0.017106 0.592917 0.339654 0.730127 -0.803486 0.33551 0.491776 
0.70621 0.0917435 0.702033 0.922857 0.117078 0.366916 -0.751162 0.0341339 0.659235 
-0.949236 0.11902 0.291179 0.658271 -0.105168 0.745398 0.959349 -0.0675948 0.274007 
-0.737217 -0.00668899 0.675623 -0.911686 -0.00791568 0.41081 0.590338 -0.334187 0.734724 
0.933147 -0.357191 0.04064 0.549808 -0.359009 0.754204 -0.597276 -0.347305 0.722938 
-0.438085 -0.600595 0.668855 0.536731 -0.420338 0.731598 0.709622 -0.534666 0.458878 
0.362652 -0.606901 0.707217 0.067921 -0.648484 0.758192 -0.00449322 -0.473813 0.880614 
-0.198885 -0.47725 0.855965 -0.394262 -0.605426 0.691388 -0.177732 -0.565374 0.805458 
-0.464579 -0.630432 0.621869 0.420636 -0.764572 0.488359 0.047453 -0.554322 0.830948 
0.0856076 -0.697599 0.711356 0.0409908 -0.503118 0.863245 -0.0223974 -0.498168 0.866791 
-0.0345855 -0.508849 0.860161 0.061959 -0.432709 0.899402 0.00482588 -0.500732 0.865589 
0.100793 -0.406365 0.908135 0.0780089 -0.414849 0.90654 0.0171151 -0.405959 0.913731 
0.0233626 -0.433396 0.900901 -0.0199824 -0.464234 0.885487 -0.0429856 -0.45449 0.889714 
-0.0638952 -0.534188 0.842948 -0.254146 -0.366454 0.895054 -0.248791 -0.370435 0.89492 
-0.349483 -0.718064 0.601869 -0.486081 -0.836577 0.252713 0.101745 -0.967608 0.231045 
0.0812291 -0.911563 0.403056 0.168444 -0.844299 0.508709 0.131987 -0.722359 0.678805 
0.0270245 -0.672655 0.739463 0.00124035 -0.695505 0.718521 -0.0329806 -0.712418 0.70098 
-0.149891 -0.725467 0.671737 -0.222046 -0.814662 0.535744 0.0671178 0.978103 -0.197004 
0.42975 0.883992 -0.184049 0.0837296 0.977389 -0.194163 0.285419 0.944008 -0.165487 
0.0108871 0.981926 -0.188952 0.0674764 0.975143 -0.211054 -0.147979 0.974758 -0.167182 
-0.277452 0.94076 -0.19491 -0.337347 0.893361 -0.296823 -0.376557 0.89845 -0.225814 
0.304279 0.951235 -0.0506562 0.363858 0.923207 -0.123678 0.458497 0.882961 -0.100797 
0.46033 0.884914 -0.0708743 0.348734 0.782412 -0.515961 -0.262881 0.64233 -0.719935 
-0.301409 0.791784 -0.531255 -0.383099 0.895457 -0.226696 -0.37566 0.890066 -0.25819 
-0.478703 0.842515 -0.247006 0.529485 0.847953 -0.0249242 0.311581 0.948831 -0.0513486 
0.372002 0.92289 -0.0994439 0.295506 0.950252 -0.0984777 0.296529 0.802979 -0.517006 
-0.246383 0.515554 -0.82067 -0.593007 0.760926 -0.263313 -0.32 0.585537 -0.744813 
-0.588047 0.753453 -0.294126 -0.598343 0.769977 -0.221633 0.59598 0.800297 -0.0658183 
0.76933 0.635012 -0.0699322 0.495615 0.781425 -0.379131 0.29439 0.688804 -0.662483 
-0.329088 0.572501 -0.750962 -0.602779 0.754945 -0.258295 -0.580275 0.729799 -0.361489 
-0.708431 0.676137 -0.202394 0.791827 0.608755 -0.0492619 0.744524 0.548502 -0.380564 
0.391703 0.355696 -0.848557 -0.398717 0.417618 -0.816468 -0.734533 0.65406 -0.180741 
-0.690276 0.663149 -0.289401 0.90273 0.401454 -0.154638 0.951065 0.276177 -0.138567 
0.621822 0.217708 -0.752291 -0.811216 0.510168 -0.285757 -0.834998 0.483299 -0.26306 
0.983589 0.130786 -0.124285 0.955774 0.152972 -0.251187 -0.47869 0.0273798 -0.877557 
-0.978025 0.199529 -0.0604533 -0.908781 0.30177 -0.288189 0.996463 -0.0457278 -0.0704982 
0.948287 -0.0487367 -0.313651 -0.989739 -0.141599 -0.0191382 -0.899844 -0.427936 -0.0845736 
-0.734486 -0.0474644 -0.676962 0.935158 -0.342228 -0.0914314 0.927182 -0.364528 -0.0863251 
0.929149 -0.345629 -0.131235 -0.899268 -0.429042 -0.0850827 -0.541361 -0.0749739 -0.837441 
0.808124 -0.582397 0.0880297 0.708002 -0.696206 0.118452 0.618037 -0.309387 -0.72271 
-0.733604 -0.678405 -0.0398947 -0.67834 -0.734364 0.0237688 -0.655418 -0.384335 -0.650164 
0.568358 -0.820053 0.0669429 0.528125 -0.846521 0.0669759 0.285223 -0.95064 0.122192 
0.185359 -0.978375 0.0917845 -0.320593 -0.930536 0.176983 -0.36497 -0.904743 0.219629 
-0.526644 -0.833263 0.168285 -0.501379 -0.846012 0.181335 -0.545146 -0.837933 -0.02616 
0.142873 -0.979091 0.144807 0.119707 -0.976556 0.178912 0.137641 -0.990254 0.0212686 
0.0974885 -0.942334 0.32016 0.194295 -0.888362 -0.416007 0.174214 -0.928031 0.329254 
0.15427 -0.939253 0.306602 0.0302367 -0.950651 0.308784 -0.0118985 -0.955535 0.294637 
-0.0259419 -0.962467 0.270156 -0.130774 -0.930865 0.341157 -0.315827 -0.907972 0.275392 
-0.293695 -0.862105 0.412939 0.201833 0.582023 -0.787727 0.035818 0.59746 -0.801099 
-0.117805 0.591507 -0.797647 0.315692 0.56227 -0.764324 0.203506 0.581283 -0.787842 
0.254259 0.584 -0.770906 0.200767 0.577914 -0.791017 0.032589 0.541551 -0.840036 
-0.171508 0.5712 -0.802692 -0.114176 0.55649 -0.822972 -0.236951 0.544944 -0.804295 
-0.279509 0.495609 -0.822342 0.216386 0.575514 -0.788645 0.301307 0.562683 -0.769806 
0.202868 0.565486 -0.799418 0.303741 0.53443 -0.788749 0.230671 0.477827 -0.847628 
0.115279 0.402576 -0.908099 0.0278997 0.386444 -0.921891 -0.0844073 0.404527 -0.910623 
-0.205103 0.384555 -0.900028 -0.255603 0.43039 -0.865697 -0.274541 0.40093 -0.874004 
-0.210335 0.388646 -0.897058 -0.280559 0.34823 -0.89444 0.2423 0.538275 -0.807187 
0.247595 0.534054 -0.808383 0.209135 0.438926 -0.873846 0.171185 0.403732 -0.898719 
0.206427 0.327266 -0.922109 0.180548 0.278593 -0.943286 0.084071 0.207798 -0.974552 
0.0315263 0.202776 -0.978718 -0.0978983 0.233597 -0.967393 -0.257264 0.218991 -0.9412 
-0.247517 0.219749 -0.943634 -0.178754 0.317484 -0.931263 -0.283922 0.334374 -0.898656 
-0.278811 0.311096 -0.908562 -0.275275 0.427025 -0.861321 0.382014 0.350549 -0.855091 
0.387849 0.351696 -0.851988 0.207319 0.283015 -0.936441 0.109784 0.315781 -0.94246 
0.121815 0.211792 -0.969693 0.172715 0.138982 -0.975117 0.107749 0.160977 -0.981059 
-0.223362 0.14238 -0.964281 -0.208048 0.245735 -0.946747 -0.147825 0.233548 -0.961043 
-0.122157 0.253339 -0.959634 -0.313071 0.37321 -0.873327 -0.251938 0.347392 -0.903242 
-0.276961 0.403749 -0.87194 -0.455586 0.260681 -0.851168 0.505515 0.214312 -0.835778 
0.511551 0.135388 -0.84852 0.307121 0.340305 -0.888746 0.122896 0.152379 -0.980651 
0.0974064 0.0825816 -0.991813 -0.0138704 0.11202 -0.993609 0.166926 0.00793294 -0.985938 
-0.00655226 0.00814226 -0.999945 -0.0301681 -0.311947 -0.94962 -0.167899 0.271798 -0.947595 
-0.179719 0.171731 -0.968612 -0.133033 0.18282 -0.974104 -0.147829 0.183998 -0.971747 
-0.227617 0.390838 -0.891872 -0.487336 0.232686 -0.841642 -0.465578 0.0812976 -0.881265 
-0.443257 0.218519 -0.869352 0.520241 0.138134 -0.842774 0.509262 0.136331 -0.849745 
0.207136 -0.0915185 -0.974022 -0.0672016 0.098943 -0.992821 0.0661771 -0.0222864 -0.997559 
0.0321753 0.0579698 -0.9978 0.194238 0.0263364 -0.980601 0.0412721 0.0718423 -0.996562 
-0.211664 0.105876 -0.971591 -0.0907469 0.141925 -0.985709 -0.125756 0.20613 -0.97041 
-0.461043 0.0303714 -0.886858 -0.263726 0.140287 -0.954342 -0.465861 0.0153444 -0.884725 
0.546684 0.00349453 -0.837332 0.53242 0.0117661 -0.846399 0.252267 0.0196364 -0.967458 
0.137534 0.024497 -0.990194 0.0658147 0.0440252 -0.99686 0.0357101 0.0403405 -0.998548 
0.152088 0.0755589 -0.985475 -0.0152308 0.246806 -0.968945 -0.100342 0.0842668 -0.991378 
-0.0353275 0.0988059 -0.994479 -0.157057 0.0657456 -0.985399 -0.232124 0.00962103 -0.972639 
-0.532657 -0.00287862 -0.846326 -0.51855 -0.0518036 -0.853476 -0.454695 0.0107876 -0.890582 
0.626268 -0.0482048 -0.778116 0.606001 -0.217925 -0.76503 0.6034 -0.0374273 -0.79656 
-0.0591355 -0.0370394 -0.997563 0.0812744 0.0466758 -0.995598 0.0629731 -0.0236176 -0.997736 
0.0323063 -0.00499906 -0.999466 -0.110974 0.0194852 -0.993632 -0.231059 -0.101924 -0.967586 
-0.524621 -0.0681423 -0.848605 -0.311171 -0.0701655 -0.94776 0.594786 -0.294162 -0.74813 
0.45301 -0.436008 -0.777611 0.187895 -0.158494 -0.969317 0.100755 -0.179927 -0.978506 
-0.0140408 -0.136331 -0.990564 0.0365975 -0.166962 -0.985284 0.086359 -0.108319 -0.990358 
-0.0914303 -0.0802076 -0.992576 0.0349118 -0.0834958 -0.995896 -0.188401 -0.104818 -0.976483 
-0.230548 -0.2349 -0.944282 -0.63549 -0.365873 -0.679919 -0.485069 -0.615937 -0.620749 
-0.350859 -0.324701 -0.878332 0.451033 -0.637122 -0.625017 0.431936 -0.650548 -0.624674 
0.432843 -0.631418 -0.643396 0.253728 -0.777161 -0.575884 0.236154 -0.607877 -0.758101 
0.160469 -0.818365 -0.55184 0.123151 -0.517139 -0.846995 0.147402 -0.796827 -0.585951 
0.0708382 -0.492491 -0.86743 0.198197 -0.846583 -0.493979 0.0678844 -0.41859 -0.905635 
0.151129 -0.302597 -0.94106 0.094716 -0.284705 -0.953924 -0.0077607 -0.298964 -0.954233 
-0.0566929 -0.253745 -0.965608 0.00937012 -0.190061 -0.981727 -0.0231685 -0.266359 -0.963596 
-0.105806 -0.340137 -0.934404 -0.438819 -0.847603 -0.298341 -0.285759 -0.380327 -0.879598 
-0.499724 -0.650047 -0.572464 -0.453525 -0.726265 -0.51658 -0.406525 -0.537323 -0.738933 
0.199225 -0.849892 -0.487845 0.194612 -0.876965 -0.439385 0.186772 -0.792692 -0.580306 
0.145943 -0.878803 -0.454319 0.116317 -0.726252 -0.677516 0.0218907 -0.895678 -0.444164 
0.0138011 -0.691549 -0.722198 -0.0483306 -0.880224 -0.472092 -0.0105705 -0.700635 -0.713442 
0.00840966 -0.891638 -0.452671 0.0367681 -0.69591 -0.717187 -0.0546372 -0.901916 -0.428442 
-0.0677667 -0.680491 -0.729616 -0.404497 -0.870289 -0.281034 -0.235383 -0.90573 -0.352489 
-0.209264 -0.781969 -0.587139 0.0466575 0.0519736 -0.997558 0.0402258 0.157451 -0.986707 
-0.0949908 0.19874 -0.975438 0.0750005 0.0957227 -0.992579 0.104614 0.159675 -0.981611 
0.0256216 0.0226291 -0.999416 0.0411706 0.0293822 -0.99872 0.0572431 0.0868842 -0.994572 
-0.165764 0.0690752 -0.983743 -0.0575443 -0.171717 -0.983464 -0.0731784 -0.0239828 -0.99703 
-0.0549665 0.131423 -0.989801 0.114241 0.0903819 -0.989333 0.00753301 0.0336028 -0.999407 
0.0749707 0.149721 -0.985882 -0.0132239 0.0236312 -0.999633 -0.0162069 0.0295699 -0.999431 
-0.047068 -0.110377 -0.992775 -0.0268089 0.171585 -0.984804 0.0239121 0.01142 -0.999649 
-0.108775 0.232767 -0.96643 0.0398276 0.125219 -0.991329 -0.167791 0.254487 -0.952409 
0.184597 0.0382911 -0.982068 0.115162 0.0553357 -0.991804 -0.0204231 0.0575402 -0.998134 
-0.248675 0.0701874 -0.966041 -0.057428 -0.0300012 -0.997899 0.226004 0.0593448 -0.972317 
0.230874 0.0462341 -0.971885 -0.197883 0.0799287 -0.976961 -0.170437 0.0435191 -0.984407 
0.186406 0.0595066 -0.980669 0.139945 0.00177043 -0.990158 0.114724 -0.146605 -0.98252 
-0.01859 0.0315551 -0.999329 -0.0176535 0.239282 -0.97079 -0.036781 -0.0230327 -0.999058 
-0.0131476 0.229763 -0.973158 -0.0334691 0.2145 -0.976151 0.0280057 -0.0708399 -0.997094 
-0.101482 0.0229888 -0.994572 -0.104017 -0.0558839 -0.993004 -0.0749379 0.0713142 -0.994635 
0.196129 0.0524092 -0.979177 0.158016 0.0490945 -0.986215 0.19933 0.029945 -0.979475 
0.182176 0.0632531 -0.981229 0.0622982 -0.136853 -0.98863 0.0644545 -0.142501 -0.987694 
0.0638693 -0.143594 -0.987574 0.15457 -0.0208405 -0.987762 -0.0179945 -0.0352945 -0.999215 
-0.0921745 -0.0790194 -0.992603 -0.144151 -0.00278952 -0.989552 0.0285163 -0.0813854 -0.996275 
0.0169547 -0.0790865 -0.996724 -0.00934851 -0.00548785 -0.999941 -0.0769311 0.0596635 -0.99525 
-0.0700383 0.0691601 -0.995144 0.107198 -0.0971026 -0.989485 0.110089 -0.150505 -0.98246 
0.119455 -0.0936091 -0.988417 -0.0910884 -0.0806083 -0.992575 -0.00958812 -0.279992 -0.959954 
-0.0236741 -0.159651 -0.98689 0.0375007 -0.0824012 -0.995893 0.0143162 -0.160601 -0.986916 
0.0493326 -0.0770041 -0.99581 -0.130343 -0.0976459 -0.986649 -0.0860218 -0.16343 -0.982798 
-0.0822343 -0.0955516 -0.992022 
