# vtk DataFile Version 4.2
vtk output
ASCII
DATASET POLYDATA
POINTS 540 float
29.4491 -18.0476 -24.6306 -23.3654 -44.4548 -15.9838 -14.563 -44.4548 -16.1384 
-5.76056 -44.4548 -15.9548 -32.1678 -35.6524 -16.0746 -23.3654 -35.6524 -18.035 
-14.563 -35.6524 -18.7152 -5.76056 -35.6524 -19.5008 3.04186 -35.6524 -19.2884 
11.8443 -35.6524 -19.8868 20.6467 -35.6524 -19.909 29.4491 -35.6524 -19.0477 
38.2515 -35.6524 -16.4946 -32.1678 -26.85 -17.076 -23.3654 -26.85 -18.4234 
-14.563 -26.85 -19.1393 -5.76056 -26.85 -19.6003 3.04186 -26.85 -20.2882 
11.8443 -26.85 -21.3215 20.6467 -26.85 -23.1451 29.4491 -21.6816 -23.9893 
29.4491 -26.85 -23.1058 38.2515 -26.85 -22.2308 47.0539 -26.85 -20.2347 
-32.1678 -18.0476 -16.1076 -23.3654 -18.0476 -17.4591 -14.563 -18.0476 -18.4094 
-5.76056 -18.0476 -19.5454 3.04186 -18.0476 -20.1379 11.8443 -18.0476 -21.7134 
23.628 -18.0476 -23.9893 20.6467 -18.0476 -23.6402 34.1222 -18.0476 -23.9893 
29.4491 -12.8076 -23.9893 38.2515 -18.0476 -23.4656 47.0539 -18.0476 -22.2642 
55.8563 -18.0476 -19.4956 -32.1678 -9.24515 -15.4302 -23.3654 -9.24515 -17.0595 
-14.563 -9.24515 -18.7957 -5.76056 -9.24515 -21.0991 3.04186 -9.24515 -21.3063 
11.8443 -9.24515 -21.0365 20.6467 -9.24515 -22.3199 29.4491 -9.24515 -23.5518 
38.2515 -9.24515 -23.8267 47.0539 -9.24515 -23.0591 55.8563 -9.24515 -20.818 
64.6588 -9.24515 -15.6955 -23.3654 -0.442739 -18.258 -14.563 -0.442739 -21.0669 
-5.76056 -0.442739 -19.016 3.04186 -0.442739 -21.0067 11.8443 -0.442739 -20.3134 
20.6467 -0.442739 -21.4711 29.4491 -0.442739 -22.9124 38.2515 -0.442739 -23.4595 
47.0539 -0.442739 -22.8041 55.8563 -0.442739 -20.5269 64.6588 -0.442739 -15.4002 
-23.3654 8.35968 -17.6918 -14.563 8.35968 -20.7685 -5.76056 8.35968 -21.3113 
3.04186 8.35968 -22.5096 11.8443 8.35968 -19.7927 20.6467 8.35968 -21.3086 
29.4491 8.35968 -22.469 38.2515 8.35968 -22.6895 47.0539 8.35968 -21.7122 
55.8563 8.35968 -19.354 -32.1678 17.1621 -15.2492 -23.3654 17.1621 -18.5502 
-14.563 17.1621 -19.8167 -5.76056 17.1621 -19.8233 3.04186 17.1621 -20.3798 
11.8443 17.1621 -20.3764 20.6467 17.1621 -21.396 29.4491 17.1621 -21.9613 
38.2515 17.1621 -21.4125 47.0539 17.1621 -19.4955 55.8563 17.1621 -15.6187 
-32.1678 25.9645 -17.0593 -23.3654 25.9645 -19.8862 -14.563 25.9645 -20.5216 
-5.76056 25.9645 -20.7744 3.04186 25.9645 -21.257 11.8443 25.9645 -21.2617 
20.6467 25.9645 -21.3431 29.4491 25.9645 -21.122 38.2515 25.9645 -18.6138 
47.0539 25.9645 -15.3283 -32.1678 34.7669 -17.4892 -23.3654 34.7669 -19.8149 
-14.563 34.7669 -20.7356 -5.76056 34.7669 -20.765 3.04186 34.7669 -21.1672 
11.8443 34.7669 -21.0271 20.6467 34.7669 -20.1131 29.4491 34.7669 -17.5546 
-23.3654 43.5693 -16.9427 -14.563 43.5693 -17.9056 -5.76056 43.5693 -18.549 
3.04186 43.5693 -18.8139 11.8443 43.5693 -17.835 20.6467 43.5693 -15.7603 
-23.3654 -45.6277 -15.1869 -14.563 -45.6962 -15.1869 -5.76056 -45.2971 -15.1869 
-40.9702 -44.4548 -9.73256 -26.0501 -44.4548 -15.1869 -32.1678 -38.3855 -15.1869 
-32.1678 -44.4548 -12.8883 -2.10891 -44.4548 -15.1869 3.04186 -43.0123 -15.1869 
3.04186 -44.4548 -13.1525 11.8443 -41.0823 -15.1869 20.6467 -39.8607 -15.1869 
29.4491 -38.9514 -15.1869 38.2515 -36.6108 -15.1869 -49.7726 -35.6524 -7.55698 
-34.6534 -35.6524 -15.1869 -40.9702 -35.6524 -12.9356 40.4018 -35.6524 -15.1869 
47.0539 -32.1589 -15.1869 -49.7726 -26.85 -9.80837 -38.9184 -26.85 -15.1869 
-40.9702 -26.85 -14.5536 54.0612 -26.85 -15.1869 55.8563 -24.9697 -15.1869 
55.8563 -26.85 -12.5772 -58.5751 -18.0476 -7.54975 -49.7726 -18.0476 -11.0986 
-36.3935 -18.0476 -15.1869 -40.9702 -18.0476 -14.1914 61.1932 -18.0476 -15.1869 
64.6588 -10.3077 -15.1869 64.6588 -18.0476 -10.5462 -49.7726 -9.24515 -11.3442 
-33.4072 -9.24515 -15.1869 -40.9702 -9.24515 -13.7465 -32.1678 -6.42075 -15.1869 
65.1437 -9.24515 -15.1869 -49.7726 -0.442739 -10.7645 -40.9702 -0.442739 -12.8257 
-30.7295 -0.442739 -15.1869 -32.1678 -0.442739 -14.6638 64.8857 -0.442739 -15.1869 
64.6588 0.445635 -15.1869 -58.5751 8.35968 -7.47238 -49.7726 8.35968 -9.78605 
-40.9702 8.35968 -11.9652 -28.5087 8.35968 -15.1869 -32.1678 16.8041 -15.1869 
-32.1678 8.35968 -13.7649 62.4013 8.35968 -15.1869 64.6588 8.35968 -12.8374 
-49.7726 17.1621 -8.3963 -32.3218 17.1621 -15.1869 -40.9702 17.1621 -11.5601 
56.5964 17.1621 -15.1869 55.8563 17.8211 -15.1869 64.6588 17.1621 -7.3463 
-49.7726 25.9645 -6.8323 -35.4823 25.9645 -15.1869 -40.9702 25.9645 -11.8038 
38.2515 33.0752 -15.1869 47.2825 25.9645 -15.1869 47.0539 26.1619 -15.1869 
55.8563 25.9645 -6.65986 -35.7936 34.7669 -15.1869 -40.9702 34.7669 -11.8724 
-32.1678 41.2209 -15.1869 35.9458 34.7669 -15.1869 29.4491 38.5804 -15.1869 
38.2515 34.7669 -13.7413 -40.9702 43.5693 -8.37543 -29.1773 43.5693 -15.1869 
-32.1678 43.5693 -14.1455 -23.3654 45.8114 -15.1869 -14.563 47.1285 -15.1869 
-5.76056 47.8535 -15.1869 3.04186 48.0711 -15.1869 11.8443 46.5774 -15.1869 
21.7732 43.5693 -15.1869 20.6467 44.0863 -15.1869 29.4491 43.5693 -8.08161 
-40.9702 -46.5221 -6.38449 -32.1678 -51.2938 -6.38449 -23.3654 -53.0027 -6.38449 
-14.563 -52.722 -6.38449 -5.76056 -50.8915 -6.38449 3.04186 -47.7592 -6.38449 
-43.6498 -44.4548 -6.38449 -49.7726 -37.1133 -6.38449 10.1688 -44.4548 -6.38449 
11.8443 -43.7897 -6.38449 20.6467 -41.9525 -6.38449 29.4491 -40.4834 -6.38449 
38.2515 -38.601 -6.38449 -50.7356 -35.6524 -6.38449 46.3041 -35.6524 -6.38449 
47.0539 -35.3466 -6.38449 55.8563 -29.8131 -6.38449 -55.6546 -26.85 -6.38449 
-58.5751 -21.856 -6.38449 -58.5751 -26.85 -2.25629 59.1137 -26.85 -6.38449 
64.6588 -21.0994 -6.38449 -59.8933 -18.0476 -6.38449 -58.5751 -10.3513 -6.38449 
67.0301 -18.0476 -6.38449 -58.2995 -9.24515 -6.38449 -58.5751 -9.24515 -6.16054 
70.7711 -9.24515 -6.38449 -67.3775 -0.442739 1.06293 -58.1322 -0.442739 -6.38449 
-58.5751 0.980765 -6.38449 -58.5751 -0.442739 -6.10992 71.3261 -0.442739 -6.38449 
-60.0195 8.35968 -6.38449 -58.5751 12.3686 -6.38449 69.4495 8.35968 -6.38449 
-54.3534 17.1621 -6.38449 -58.5751 17.1621 -4.42735 65.2124 17.1621 -6.38449 
64.6588 17.8689 -6.38449 -50.5652 25.9645 -6.38449 -58.5751 25.9645 -0.738271 
-49.7726 28.8334 -6.38449 47.0539 33.3701 -6.38449 56.08 25.9645 -6.38449 
55.8563 26.1691 -6.38449 -48.6418 34.7669 -6.38449 -49.7726 34.7669 -5.28807 
45.1553 34.7669 -6.38449 38.2515 39.4954 -6.38449 -42.9626 43.5693 -6.38449 
-40.9702 45.3352 -6.38449 -32.1678 50.3336 -6.38449 -23.3654 51.6032 -6.38449 
-14.563 51.6355 -6.38449 -5.76056 51.4523 -6.38449 3.04186 51.3822 -6.38449 
11.8443 50.0836 -6.38449 20.6467 47.9131 -6.38449 30.9211 43.5693 -6.38449 
29.4491 44.318 -6.38449 29.4491 43.5693 -0.969829 -40.9702 -48.083 2.41792 
-32.1678 -51.7072 2.41792 -23.3654 -53.1841 2.41792 -14.563 -52.4373 2.41792 
-5.76056 -50.2404 2.41792 3.04186 -46.6699 2.41792 -46.2793 -44.4548 2.41792 
-49.7726 -41.4246 2.41792 -40.9702 -44.4548 9.5475 7.32917 -44.4548 2.41792 
3.04186 -44.4548 9.77181 11.8443 -42.4449 2.41792 20.6467 -40.0552 2.41792 
29.4491 -38.709 2.41792 38.2515 -36.1445 2.41792 -54.6121 -35.6524 2.41792 
-58.5751 -29.9104 2.41792 29.4491 -35.6524 9.04926 39.54 -35.6524 2.41792 
38.2515 -35.6524 3.42482 47.0539 -32.5645 2.41792 55.8563 -27.4902 2.41792 
-60.4457 -26.85 2.41792 -58.5751 -26.85 7.47884 56.5821 -26.85 2.41792 
55.8563 -26.85 3.34914 64.6588 -19.5827 2.41792 -64.3043 -18.0476 2.41792 
65.9302 -18.0476 2.41792 64.6588 -18.0476 4.52094 -66.9125 -9.24515 2.41792 
-67.3775 -6.54111 2.41792 70.0995 -9.24515 2.41792 64.6588 -9.24515 11.0303 
-68.195 -0.442739 2.41792 -67.3775 5.89061 2.41792 -67.3775 -0.442739 9.51798 
71.4115 -0.442739 2.41792 -66.9148 8.35968 2.41792 70.1259 8.35968 2.41792 
-64.1637 17.1621 2.41792 65.6282 17.1621 2.41792 64.6588 18.4407 2.41792 
64.6588 17.1621 4.40182 -60.6753 25.9645 2.41792 -58.5751 29.388 2.41792 
47.0539 34.3965 2.41792 57.6443 25.9645 2.41792 55.8563 27.6098 2.41792 
55.8563 25.9645 5.71051 -55.2378 34.7669 2.41792 -49.7726 41.2797 2.41792 
29.4491 43.1366 2.41792 46.448 34.7669 2.41792 38.2515 39.4014 2.41792 
38.2515 34.7669 10.9404 -46.8295 43.5693 2.41792 -40.9702 47.3299 2.41792 
-40.9702 43.5693 10.9625 -32.1678 50.8927 2.41792 -23.3654 50.6408 2.41792 
-14.563 49.8556 2.41792 -5.76056 49.4814 2.41792 3.04186 49.1977 2.41792 
11.8443 48.1592 2.41792 11.8443 43.5693 10.066 28.1312 43.5693 2.41792 
20.6467 46.1007 2.41792 20.6467 43.5693 7.05731 -32.1678 -45.8264 11.2203 
-23.3654 -47.6166 11.2203 -14.563 -47.8534 11.2203 -5.76056 -46.6931 11.2203 
-49.7726 -36.3265 11.2203 -36.8842 -44.4548 11.2203 -40.9702 -42.8776 11.2203 
-32.1678 -44.4548 12.4412 -23.3654 -44.4548 13.8764 -14.563 -44.4548 14.5313 
1.64416 -44.4548 11.2203 -5.76056 -44.4548 13.911 3.04186 -44.0012 11.2203 
11.8443 -40.3198 11.2203 20.6467 -36.7892 11.2203 -50.4029 -35.6524 11.2203 
-49.7726 -35.6524 11.7515 -40.9702 -35.6524 15.9169 -32.1678 -35.6524 17.4102 
-23.3654 -35.6524 18.2418 -14.563 -35.6524 18.635 -5.76056 -35.6524 19.1309 
3.04186 -35.6524 18.9109 11.8443 -35.6524 16.0888 24.812 -35.6524 11.2203 
20.6467 -35.6524 12.6124 29.4491 -34.1848 11.2203 38.2515 -30.8087 11.2203 
47.0539 -27.1361 11.2203 -56.0105 -26.85 11.2203 -58.5751 -23.9802 11.2203 
-49.7726 -26.85 15.5891 -40.9702 -26.85 18.2337 -32.1678 -26.85 19.5413 
-23.3654 -26.85 19.9534 11.8443 -26.85 19.947 20.6467 -26.85 18.526 
29.4491 -26.85 17.1641 38.2515 -26.85 14.8158 47.512 -26.85 11.2203 
47.0539 -26.85 11.5238 55.8563 -20.6751 11.2203 -61.7805 -18.0476 11.2203 
-58.5751 -18.0476 14.2142 -49.7726 -18.0476 17.5325 -40.9702 -18.0476 19.38 
-5.76056 -18.0476 19.697 38.2515 -18.0476 19.5911 47.0539 -18.0476 17.1033 
58.7125 -18.0476 11.2203 55.8563 -18.0476 13.4023 -64.8578 -9.24515 11.2203 
-58.5751 -9.24515 16.7984 -49.7726 -9.24515 19.0567 -40.9702 -9.24515 19.7199 
-32.1678 -9.24515 19.8631 -23.3654 -9.24515 19.8041 -5.76056 -9.24515 19.7714 
64.4694 -9.24515 11.2203 55.8563 -9.24515 17.2951 64.6588 -8.67105 11.2203 
-67.0605 -0.442739 11.2203 -58.5751 -0.442739 18.354 -49.7726 -0.442739 19.7963 
[...]
POINT_DATA 540
SCALARS ImageScalars float
LOOKUP_TABLE default
0 0 0 0 0 0 0 0 0 
0 0 0 0 0 0 0 0 0 
0 0 0 0 0 0 0 0 0 
0 0 0 0 0 0 0 0 0 
0 0 0 0 0 0 0 0 0 
0 0 0 0 0 0 0 0 0 
0 0 0 0 0 0 0 0 0 
0 0 0 0 0 0 0 0 0 
0 0 0 0 0 0 0 0 0 
0 0 0 0 0 0 0 0 0 
0 0 0 0 0 0 0 0 0 
0 0 0 0 0 0 0 0 0 
0 0 0 0 0 0 0 0 0 
0 0 0 0 0 0 0 0 0 
0 0 0 0 0 0 0 0 0 
0 0 0 0 0 0 0 0 0 
0 0 0 0 0 0 0 0 0 
0 0 0 0 0 0 0 0 0 
0 0 0 0 0 0 0 0 0 
0 0 0 0 0 0 0 0 0 
0 0 0 0 0 0 0 0 0 
0 0 0 0 0 0 0 0 0 
0 0 0 0 0 0 0 0 0 
0 0 0 0 0 0 0 0 0 
0 0 0 0 0 0 0 0 0 
0 0 0 0 0 0 0 0 0 
0 0 0 0 0 0 0 0 0 
0 0 0 0 0 0 0 0 0 
0 0 0 0 0 0 0 0 0 
0 0 0 0 0 0 0 0 0 
0 0 0 0 0 0 0 0 0 
0 0 0 0 0 0 0 0 0 
0 0 0 0 0 0 0 0 0 
0 0 0 0 0 0 0 0 0 
0 0 0 0 0 0 0 0 0 
0 0 0 0 0 0 0 0 0 
0 0 0 0 0 0 0 0 0 
0 0 0 0 0 0 0 0 0 
0 0 0 0 0 0 0 0 0 
0 0 0 0 0 0 0 0 0 
0 0 0 0 0 0 0 0 0 
0 0 0 0 0 0 0 0 0 
0 0 0 0 0 0 0 0 0 
0 0 0 0 0 0 0 0 0 
0 0 0 0 0 0 0 0 0 
0 0 0 0 0 0 0 0 0 
0 0 0 0 0 0 0 0 0 
0 0 0 0 0 0 0 0 0 
0 0 0 0 0 0 0 0 0 
0 0 0 0 0 0 0 0 0 
0 0 0 0 0 0 0 0 0 
0 0 0 0 0 0 0 0 0 
0 0 0 0 0 0 0 0 0 
0 0 0 0 0 0 0 0 0 
0 0 0 0 0 0 0 0 0 
0 0 0 0 0 0 0 0 0 
0 0 0 0 0 0 0 0 0 
0 0 0 0 0 0 0 0 0 
0 0 0 0 0 0 0 0 0 
0 0 0 0 0 0 0 0 0 

NORMALS Normals float
-0.0124662 0.0262764 0.999577 0.145018 0.442851 0.88479 0.00105589 0.486342 0.873768 
-0.102048 0.603608 0.790723 0.267847 0.193392 0.943852 0.141243 0.139691 0.98007 
0.0828633 0.146928 0.98567 0.0308102 0.157776 0.986994 0.0162458 0.296652 0.954847 
0.0401116 0.449481 0.892389 -0.0415962 0.586367 0.808977 -0.146493 0.699578 0.699378 
-0.332423 0.788704 0.517148 0.215 -0.000965246 0.976614 0.113687 -0.0320287 0.993 
0.0663851 -0.017802 0.997635 0.0649123 0.00227968 0.997888 0.0970412 0.0495787 0.994045 
0.156706 0.0883644 0.983684 0.0994713 0.176187 0.979318 -0.0292636 0.127046 0.991465 
-0.0490766 0.265544 0.962849 -0.148759 0.303545 0.941133 -0.390661 0.462605 0.795852 
0.176391 -0.0871858 0.980451 0.128706 -0.0763769 0.988737 0.117318 -0.020765 0.992877 
0.0986281 0.0832822 0.991633 0.121253 0.055942 0.991044 0.189505 -0.0162286 0.981746 
0.106583 -0.0239112 0.994016 0.163733 -0.0482307 0.985325 -0.0776325 0.058261 0.995278 
0.0461139 -0.0480335 0.997781 -0.126497 0.0840019 0.988404 -0.210252 0.135094 0.968268 
-0.471441 0.311624 0.825005 0.187529 -0.0799223 0.979002 0.183956 0.0347598 0.98232 
0.226329 0.15051 0.962352 0.137063 -0.0306398 0.990088 -0.00392239 0.0505879 0.998712 
0.0574457 -0.0794314 0.995184 0.140643 -0.115443 0.983307 0.0850909 -0.0950477 0.991829 
-0.0269941 0.0010058 0.999635 -0.158566 0.0314806 0.986846 -0.337672 0.0537226 0.939729 
-0.683237 0.164276 0.711478 0.376617 0.044421 0.925303 0.0185365 0.1065 0.99414 
-0.00648018 0.00746689 0.999951 0.075751 0.0601174 0.995313 0.0255846 -0.0703592 0.997194 
0.148886 -0.0574833 0.987182 0.109468 -0.0603814 0.992155 -0.00540258 -0.064369 0.997912 
-0.156348 -0.0765238 0.984733 -0.34599 -0.0802749 0.934798 -0.654501 -0.104952 0.748741 
0.413978 0.0171431 0.910125 0.166008 -0.0705834 0.983595 0.0953328 0.047775 0.994298 
-0.0988338 -0.0426039 0.994192 -0.0496315 0.00363452 0.998761 0.151986 -0.0040069 0.988375 
0.0777886 -0.0534422 0.995536 -0.0428099 -0.111177 0.992878 -0.182092 -0.163812 0.96954 
-0.384594 -0.246384 0.889597 0.350398 0.178908 0.919355 0.260925 0.117688 0.958158 
0.0635133 -0.0132868 0.997893 0.0326871 -0.0255039 0.99914 0.0318333 -0.0563107 0.997906 
0.0573529 0.0840596 0.994809 0.0896866 0.00196066 0.995968 0.00259534 -0.0729125 0.997335 
-0.123525 -0.224436 0.966628 -0.297042 -0.337318 0.893299 -0.4368 -0.485437 0.757335 
0.397872 0.115433 0.91015 0.192834 0.0632423 0.979191 0.0512764 0.0542717 0.997209 
0.0416893 0.0531867 0.997714 0.0278508 0.0451415 0.998592 0.00481684 0.0359376 0.999342 
-0.0067962 -0.0670318 0.997728 -0.142112 -0.225715 0.963772 -0.292258 -0.349925 0.890021 
-0.438283 -0.50342 0.744632 0.412527 -0.137806 0.900461 0.173151 -0.138284 0.975139 
0.050279 -0.135503 0.9895 0.0240814 -0.118006 0.992721 0.0142351 -0.128907 0.991555 
-0.0535021 -0.168346 0.984275 -0.196073 -0.25811 0.94601 -0.290984 -0.45378 0.842266 
0.198004 -0.501356 0.842281 0.08202 -0.512874 0.854537 0.0525687 -0.483514 0.873756 
-0.0383316 -0.49484 0.868138 -0.145236 -0.586358 0.796926 -0.317762 -0.686277 0.654256 
0.135535 0.496649 0.857304 -0.0141163 0.544319 0.838759 -0.109998 0.640777 0.759806 
0.534702 0.632086 0.560857 0.16374 0.443849 0.881015 0.257761 0.260955 0.930302 
0.259933 0.500876 0.825566 -0.138017 0.667247 0.731938 -0.15793 0.672187 0.723341 
-0.239779 0.793264 0.559676 -0.147293 0.783161 0.604123 -0.106587 0.862976 0.493874 
-0.175219 0.871489 0.458045 -0.332957 0.831891 0.443956 0.716427 0.39139 0.577534 
0.287447 0.178198 0.941074 0.387168 0.176169 0.905022 -0.368856 0.80888 0.457885 
-0.460268 0.713672 0.528038 0.495771 0.151377 0.855158 0.343448 0.050627 0.937806 
0.381709 0.0660534 0.921919 -0.561302 0.597009 0.573167 -0.581491 0.549976 0.599496 
-0.615745 0.659258 0.431552 0.619965 0.0820269 0.78033 0.382406 0.082371 0.920316 
0.22454 -0.069189 0.972006 0.279969 -0.0427838 0.959055 -0.663353 0.36974 0.650581 
-0.699025 0.195352 0.687897 -0.786568 0.473183 0.396747 0.363574 -0.0196511 0.931358 
0.195068 -0.079197 0.977587 0.233348 -0.0746272 0.969525 0.216095 -0.0843028 0.972726 
-0.699349 0.168617 0.694608 0.323584 -0.0917344 0.941742 0.221115 -0.0981469 0.970297 
0.291816 -0.0773945 0.953338 0.272765 -0.0924607 0.957627 -0.660625 -0.10276 0.743649 
-0.657642 -0.120362 0.743653 0.527801 -0.0858126 0.845022 0.265348 -0.120659 0.956573 
0.23404 -0.0701996 0.969689 0.336974 0.0286467 0.941078 0.34754 0.173176 0.921535 
0.277741 0.0289272 0.96022 -0.599225 -0.26567 0.755214 -0.710553 -0.291331 0.6405 
0.376176 -0.152331 0.913941 0.349749 0.176002 0.920162 0.336349 -0.00889737 0.941696 
-0.455582 -0.489519 0.743517 -0.446757 -0.499128 0.742482 -0.768799 -0.547014 0.331246 
0.514843 -0.139001 0.84594 0.441709 0.0786603 0.893704 0.500343 0.0164219 0.865672 
-0.413623 -0.554211 0.722334 -0.443102 -0.506386 0.739753 -0.441758 -0.507849 0.739554 
-0.641081 -0.686562 0.342998 0.463315 -0.125251 0.877298 0.527029 -0.1322 0.839502 
0.378322 -0.3644 0.850932 -0.404866 -0.565016 0.718916 -0.367324 -0.584059 0.723842 
-0.459212 -0.632072 0.624187 0.610978 -0.570364 0.548991 0.30328 -0.46867 0.829681 
0.363542 -0.470827 0.80384 0.18199 -0.592423 0.784802 0.0851545 -0.675617 0.732318 
0.0448363 -0.710277 0.702493 -0.0658949 -0.73353 0.676455 -0.191232 -0.733255 0.652509 
-0.339267 -0.699904 0.628516 -0.324338 -0.709511 0.625619 -0.44416 -0.866754 0.226845 
0.545751 0.760189 0.352518 0.308616 0.894771 0.322708 0.0619541 0.947862 0.312602 
-0.112282 0.963661 0.242385 -0.260886 0.94488 0.197839 -0.38239 0.912781 0.143557 
0.607983 0.690864 0.391232 0.730651 0.446853 0.516209 -0.324282 0.944549 0.0516593 
-0.306381 0.951184 0.0371385 -0.180848 0.983509 0.00221744 -0.185243 0.98248 -0.0204317 
-0.267611 0.963144 -0.0271626 0.741273 0.418134 0.525051 -0.439163 0.898407 -0.000877295 
-0.454983 0.890495 0.0029672 -0.62316 0.779036 0.0690957 0.657752 0.336919 0.673682 
0.691424 0.214284 0.689939 0.828528 0.44788 0.336072 -0.66226 0.745625 0.0738577 
-0.7769 0.610931 0.152286 0.701531 0.105159 0.704837 0.618478 -0.0614129 0.783399 
-0.843987 0.504774 0.181353 0.606457 -0.0791012 0.791172 0.620806 -0.0769264 0.780181 
-0.947725 0.244896 0.204555 0.946479 -0.00638265 0.322702 0.51362 0.0724239 0.854956 
0.527861 0.0565822 0.847444 0.530494 0.0785184 0.844044 -0.95919 -0.0610782 0.276087 
0.582154 -0.0991824 0.807007 0.544485 -0.153244 0.824653 -0.88591 -0.35438 0.299296 
0.455172 -0.218078 0.863285 0.607576 -0.252261 0.753137 -0.785812 -0.54972 0.283384 
-0.771624 -0.568986 0.284344 0.512417 -0.164104 0.842911 0.724711 -0.470831 0.503103 
0.586781 -0.191292 0.786826 -0.56872 -0.766539 0.298289 -0.643638 -0.689792 0.331536 
-0.64247 -0.691113 0.331051 0.690501 -0.268756 0.671549 0.727986 -0.312715 0.610119 
-0.559415 -0.779733 0.281197 -0.520888 -0.82206 0.229985 0.631839 -0.599023 0.491885 
0.599537 -0.658779 0.454495 0.326386 -0.890731 0.316339 0.0632991 -0.98433 0.164586 
-0.00885271 -0.995798 0.0911429 -0.0143717 -0.998913 0.0443325 -0.0786578 -0.996641 0.0228089 
-0.191251 -0.980204 0.0512192 -0.306466 -0.948828 0.0761784 -0.449384 -0.881209 0.146714 
-0.434207 -0.890958 0.132884 -0.376424 -0.918944 -0.117675 0.483385 0.862719 -0.148506 
0.253524 0.948586 -0.189498 0.0445839 0.974223 -0.221135 -0.154235 0.964231 -0.215569 
-0.29554 0.932338 -0.20833 -0.417767 0.889822 -0.183542 0.632926 0.764327 -0.123325 
0.713872 0.695451 -0.0820699 0.418292 0.719226 -0.554748 -0.394734 0.903068 -0.169273 
-0.329383 0.856715 -0.396921 -0.347232 0.92142 -0.174397 -0.202831 0.944778 -0.257397 
-0.20411 0.930775 -0.30331 -0.315176 0.884189 -0.34478 0.793382 0.608536 -0.0151519 
0.85697 0.515355 0.0035245 -0.241742 0.823858 -0.512658 -0.327208 0.87808 -0.349158 
-0.319769 0.872327 -0.369855 -0.400715 0.835644 -0.375668 -0.570441 0.736757 -0.363024 
0.881885 0.470597 0.0286082 0.787737 0.51369 -0.339991 -0.584091 0.728481 -0.357985 
-0.56753 0.723147 -0.39366 -0.740357 0.595633 -0.311598 0.933041 0.342059 0.111489 
-0.776415 0.551006 -0.305896 -0.731949 0.549534 -0.402819 0.947911 0.217827 0.232414 
0.957725 0.155829 0.241828 -0.91032 0.298939 -0.286274 -0.675664 0.298762 -0.673957 
0.964365 0.0028169 0.26456 0.929761 -0.168589 0.327294 0.933892 0.0549468 -0.353309 
-0.97135 0.00102778 -0.237649 0.909375 -0.230786 0.346086 -0.930149 -0.317259 -0.184848 
0.898659 -0.301964 0.318165 -0.816251 -0.546456 -0.187403 -0.794756 -0.578484 -0.18363 
-0.79019 -0.543855 -0.282526 0.844008 -0.480798 0.237663 0.823806 -0.506553 0.254454 
-0.560541 -0.815637 -0.143288 -0.674502 -0.727134 -0.127763 -0.656006 -0.744012 -0.126896 
-0.643506 -0.706327 -0.294962 0.825121 -0.525067 0.208519 0.685296 -0.723727 0.081164 
-0.329081 -0.905655 -0.267384 -0.552528 -0.820455 -0.146856 -0.43552 -0.874809 -0.212205 
-0.368481 -0.711783 -0.597986 0.589448 -0.807804 -0.00209425 0.451274 -0.886436 -0.102874 
0.320172 -0.777691 -0.541005 0.181997 -0.963784 -0.19493 -0.055988 -0.9577 -0.282269 
-0.0635558 -0.943843 -0.324223 -0.035552 -0.941335 -0.335597 -0.0712418 -0.930872 -0.358332 
-0.164377 -0.920487 -0.354518 -0.149639 -0.758197 -0.634622 -0.319434 -0.905844 -0.278225 
-0.26336 -0.904205 -0.336235 -0.235767 -0.834111 -0.498671 0.189558 0.642624 -0.742363 
0.0771009 0.701554 -0.708433 -0.0478321 0.751615 -0.657865 -0.193196 0.808144 -0.556397 
0.552114 0.528969 -0.644485 0.286827 0.650462 -0.703299 0.368846 0.63967 -0.67437 
0.173992 0.60099 -0.780088 0.0899536 0.592535 -0.800506 0.00729603 0.619175 -0.785219 
-0.289447 0.837937 -0.46269 -0.151131 0.721659 -0.67555 -0.305381 0.838113 -0.452005 
-0.345056 0.817087 -0.46185 -0.292015 0.794932 -0.531799 0.572325 0.511416 -0.641013 
0.545389 0.505265 -0.668774 0.294434 0.393478 -0.87091 0.11434 0.336114 -0.934855 
0.0624962 0.305196 -0.950237 0.0486281 0.27535 -0.960113 0.0163195 0.262108 -0.9649 
-0.141074 0.373021 -0.917035 -0.290754 0.593256 -0.750673 -0.267984 0.780584 -0.564688 
-0.282165 0.747135 -0.601808 -0.244887 0.756896 -0.60592 -0.298405 0.709185 -0.638757 
-0.391936 0.671867 -0.628474 0.611423 0.471246 -0.635679 0.668652 0.442093 -0.597878 
0.43155 0.322483 -0.842478 0.18979 0.173183 -0.96643 0.0924142 0.173999 -0.9804 
0.0321587 0.126602 -0.991432 -0.0928365 0.193694 -0.97666 -0.144643 0.348089 -0.926236 
-0.180406 0.492416 -0.851458 -0.254547 0.588994 -0.767002 -0.396924 0.667576 -0.629916 
-0.391092 0.663791 -0.637518 -0.494042 0.558086 -0.66668 0.773061 0.353983 -0.526376 
0.589054 0.345949 -0.730298 0.282754 0.161109 -0.945566 0.181269 0.0760792 -0.980486 
0.00792993 -0.0178809 -0.999809 -0.178051 0.340558 -0.923211 -0.304524 0.40838 -0.860518 
-0.544267 0.496498 -0.676212 -0.47854 0.494159 -0.725814 0.810646 0.252221 -0.528429 
0.488842 0.211788 -0.846274 0.143108 0.143563 -0.979239 0.0430571 0.0281926 -0.998675 
0.00469918 -0.0827734 -0.996557 0.0608376 -0.121291 -0.990751 0.0618477 0.0544711 -0.996598 
-0.667128 0.297263 -0.683063 -0.437512 0.214114 -0.873349 -0.673512 0.2809 -0.683723 
0.866789 0.065402 -0.494367 0.404985 0.0785536 -0.910943 0.0691398 0.0484078 -0.996432 
-0.0324043 0.0123023 -0.999399 -0.0790753 -0.0294543 -0.996433 0.0910705 -0.0720825 -0.993232 
-0.393125 -0.00473466 -0.919473 -0.734386 0.0387251 -0.677626 -0.663657 0.037734 -0.747085 
0.878896 -0.165937 -0.447221 0.438503 -0.0903727 -0.894175 0.05779 -0.0546389 -0.996832 
-0.0323152 0.00264651 -0.999474 -0.0786563 0.0427763 -0.995984 0.0743505 0.106423 -0.991537 
-0.415228 -0.156968 -0.896073 -0.705929 -0.264264 -0.657137 -0.691918 -0.303615 -0.655032 
-0.676615 -0.261502 -0.688338 0.83377 -0.317372 -0.451776 0.610342 -0.301506 -0.732513 
0.184866 -0.172422 -0.96752 0.0605329 0.0160262 -0.998038 0.0253971 0.059611 -0.997899 
-0.116018 -0.223717 -0.967724 -0.236271 -0.318333 -0.918063 -0.629242 -0.45625 -0.629198 
-0.572561 -0.541647 -0.615461 -0.517344 -0.40469 -0.754043 0.791246 -0.456524 -0.406835 
0.753761 -0.485706 -0.442644 0.691718 -0.461958 -0.555087 0.380213 -0.211568 -0.900376 
-0.06859 -0.223547 -0.972277 -0.056556 -0.243475 -0.968257 -0.100206 -0.296609 -0.949727 
-0.36253 -0.699535 -0.615811 -0.245897 -0.398726 -0.883489 -0.494592 -0.609874 -0.619219 
-0.439808 -0.644128 -0.625834 -0.394693 -0.548869 -0.736858 0.652918 -0.590854 -0.473908 
0.539019 -0.665274 -0.516593 0.510348 -0.539596 -0.669613 0.312472 -0.768207 -0.558767 
0.19214 -0.401677 -0.895398 0.108097 -0.314915 -0.942944 0.00918535 -0.357726 -0.933782 
-0.000506093 -0.37775 -0.925908 -0.040266 -0.395214 -0.917706 -0.101807 -0.39617 -0.912516 
-0.144634 -0.711146 -0.688006 -0.126207 -0.434965 -0.891559 -0.181446 -0.700593 -0.690106 
-0.12794 -0.507283 -0.85223 -0.357033 -0.702186 -0.616005 -0.239957 -0.710152 -0.661895 
-0.194361 -0.598839 -0.776927 0.300356 -0.768565 -0.564885 0.108514 -0.715918 -0.6897 
0.0829741 -0.662211 -0.74471 -0.0264967 -0.741913 -0.669973 -0.0174845 -0.688398 -0.725122 
-0.0361054 -0.774695 -0.631304 -0.0280662 -0.729874 -0.683005 -0.0453002 -0.775327 -0.629934 
-0.0455989 -0.739717 -0.671372 -0.114151 -0.739573 -0.663326 -0.0926029 -0.750043 -0.654874 
-0.0940254 -0.735179 -0.671321 0.0109471 0.0900164 -0.99588 0.00970664 0.0427728 -0.999038 
-0.034358 0.124171 -0.991666 0.0805423 0.107834 -0.990901 0.0225495 0.106876 -0.994017 
0.0241303 0.111173 -0.993508 0.00737114 0.0755726 -0.997113 0.00874115 0.0216435 -0.999728 
0.0088696 0.0287698 -0.999547 -0.0749615 0.165858 -0.983297 -0.00793077 0.0621166 -0.998037 
-0.0736395 0.188441 -0.97932 -0.0372416 0.246083 -0.968533 -0.0792523 0.297823 -0.951326 
0.126497 0.0453993 -0.990928 0.0169126 -0.06363 -0.99783 0.0672471 0.0163553 -0.997602 
0.0323896 -0.0881886 -0.995577 -0.0353576 -0.00647966 -0.999354 -0.0474232 0.0429327 -0.997952 
-0.0492926 0.0449881 -0.997771 0.0296365 0.0604936 -0.997729 0.0397878 0.0974137 -0.994448 
0.0310417 0.166473 -0.985557 0.0131455 0.207918 -0.978058 -0.129057 0.307197 -0.942854 
-0.0604133 0.25983 -0.963763 -0.163855 0.299332 -0.939974 -0.233331 0.198734 -0.951873 
0.0489087 -0.083546 -0.995303 0.0487611 0.0592364 -0.997052 -0.00228792 0.0729696 -0.997332 
0.0766728 0.0523406 -0.995682 0.0348036 0.0884005 -0.995477 0.18779 0.0460143 -0.981131 
0.00315978 0.167284 -0.985904 -0.0421995 0.046312 -0.998035 -0.0240739 0.063905 -0.997666 
-0.108778 0.115623 -0.987319 -0.248559 0.180344 -0.95168 -0.22716 0.177185 -0.957603 
0.132897 -0.0363158 -0.990464 0.163138 0.00863344 -0.986565 -0.044281 0.184875 -0.981764 
0.161984 -0.0318235 -0.98628 0.027995 -0.0598616 -0.997814 -0.0751888 -0.0950768 -0.992626 
0.0101472 -0.0748368 -0.997144 -0.0655314 -0.0184388 -0.99768 -0.249166 0.00244631 -0.968458 
-0.204602 0.00726007 -0.978818 0.191399 0.0631955 -0.979476 0.0996433 0.122652 -0.987435 
0.257157 0.0279853 -0.965964 0.0225215 0.077883 -0.996708 -0.0384123 0.0464804 -0.99818 
-0.059018 -0.118521 -0.991196 -0.0587749 -0.0673432 -0.995997 0.0505153 -0.0870532 -0.994922 
-0.0971327 -0.201055 -0.974752 -0.0298358 -0.121857 -0.992099 -0.243506 -0.134012 -0.960597 
-0.217464 -0.168214 -0.961464 -0.21589 -0.132211 -0.967425 0.110705 -0.0505789 -0.992565 
0.0331584 0.0662893 -0.997249 0.0258583 0.0493252 -0.998448 0.102086 0.124982 -0.986893 
0.116601 -0.00110981 -0.993178 -0.00964516 -0.0838795 -0.996429 -0.0690091 -0.0646461 -0.995519 
-0.0678469 -0.198741 -0.977701 -0.0657417 -0.130237 -0.989301 -0.051537 -0.131742 -0.989943 
-0.0491105 -0.077927 -0.995749 -0.0732411 -0.164841 -0.983597 -0.0525676 -0.15332 -0.986777 
-0.0452303 -0.127984 -0.990744 0.210275 -0.172125 -0.962371 0.199829 -0.184657 -0.962273 
0.200755 -0.171067 -0.96459 0.051001 -0.121404 -0.991292 0.0274828 -0.058279 -0.997922 
0.0255305 -0.18738 -0.981956 0.0390675 -0.0779894 -0.996188 0.0126529 -0.262042 -0.964974 
0.0247079 -0.149692 -0.988424 -0.037374 -0.289749 -0.956373 -0.0367182 -0.19017 -0.981064 
-0.0773312 -0.201874 -0.976354 -0.0901552 -0.218695 -0.97162 -0.0868355 -0.180028 -0.979821 

