# vtk DataFile Version 4.2
vtk output
ASCII
DATASET POLYDATA
POINTS 530 float
-30.0972 -39.4879 -12.9639 -22.1621 -39.4879 -15.2585 -14.2271 -39.4879 -15.4043 
-6.29203 -39.4879 -14.4647 1.64302 -39.4879 -12.802 -38.0322 -31.5528 -13.7781 
-30.0972 -31.5528 -16.6422 -22.1621 -31.5528 -17.4212 -14.2271 -31.5528 -17.9335 
-6.29203 -31.5528 -17.1516 1.64302 -31.5528 -15.1683 9.57808 -31.5528 -13.3094 
17.5131 -31.5528 -11.1858 -45.9673 -23.6178 -13.413 -38.0322 -23.6178 -16.2929 
-30.0972 -23.6178 -17.6491 -22.1621 -23.6178 -18.214 -14.2271 -23.6178 -18.2164 
-6.29203 -23.6178 -17.1072 1.64302 -23.6178 -16.005 9.57808 -23.6178 -14.463 
17.5131 -23.6178 -13.4134 25.4482 -23.6178 -12.9806 33.3832 -23.6178 -12.842 
-53.9024 -15.6827 -12.012 -45.9673 -15.6827 -15.2086 -38.0322 -15.6827 -17.898 
-30.0972 -15.6827 -18.29 -22.1621 -15.6827 -17.967 -14.2271 -15.6827 -17.3643 
-6.29203 -15.6827 -16.7199 1.64302 -15.6827 -16.5068 9.57808 -15.6827 -16.1438 
17.5131 -15.6827 -16.3006 25.4482 -15.6827 -16.3602 33.3832 -15.6827 -16.3225 
41.3183 -15.6827 -14.9921 49.2533 -15.6827 -12.8903 -53.9024 -7.74766 -12.0273 
-45.9673 -7.74766 -15.562 -38.0322 -7.74766 -17.2355 -30.0972 -7.74766 -17.4772 
-22.1621 -7.74766 -16.9485 -14.2271 -7.74766 -16.442 -6.29203 -7.74766 -17.7581 
1.64302 -7.74766 -18.3939 9.57808 -7.74766 -18.1513 17.5131 -7.74766 -17.9011 
25.4482 -7.74766 -18.0276 33.3832 -7.74766 -17.8213 41.3183 -7.74766 -16.9863 
49.2533 -7.74766 -15.1949 57.1884 -7.74766 -11.9635 -53.9024 0.187396 -11.8993 
-45.9673 0.187396 -15.3245 -38.0322 0.187396 -16.7339 -30.0972 0.187396 -16.6192 
-22.1621 0.187396 -15.7507 -14.2271 0.187396 -17.052 -6.29203 0.187396 -18.3499 
1.64302 0.187396 -14.9694 9.57808 0.187396 -15.713 17.5131 0.187396 -15.677 
25.4482 0.187396 -16.9933 33.3832 0.187396 -17.295 41.3183 0.187396 -16.7226 
49.2533 0.187396 -15.0521 57.1884 0.187396 -11.7872 -45.9673 8.12245 -15.018 
-38.0322 8.12245 -16.0114 -30.0972 8.12245 -15.6958 -22.1621 8.12245 -14.8052 
-14.2271 8.12245 -14.2544 -6.29203 8.12245 -16.43 1.64302 8.12245 -16.5868 
9.57808 8.12245 -14.5394 17.5131 8.12245 -13.905 25.4482 8.12245 -15.2373 
33.3832 8.12245 -15.805 41.3183 8.12245 -15.229 49.2533 8.12245 -13.4192 
-45.9673 16.0575 -14.015 -38.0322 16.0575 -14.941 -30.0972 16.0575 -15.108 
-22.1621 16.0575 -14.8218 -14.2271 16.0575 -13.5746 -6.29203 16.0575 -12.2101 
1.64302 16.0575 -13.1694 9.57808 16.0575 -14.0475 17.5131 16.0575 -14.2964 
25.4482 16.0575 -14.6879 33.3832 16.0575 -14.7898 41.3183 16.0575 -13.8742 
49.2533 16.0575 -12.5376 -38.0322 23.9926 -14.5003 -30.0972 23.9926 -14.9792 
-22.1621 23.9926 -14.6245 -14.2271 23.9926 -14.1308 -6.29203 23.9926 -13.327 
1.64302 23.9926 -12.8328 9.57808 23.9926 -13.2336 17.5131 23.9926 -13.6659 
25.4482 23.9926 -13.8516 33.3832 23.9926 -13.4307 -38.0322 31.9276 -11.9359 
-30.0972 31.9276 -14.5015 -22.1621 31.9276 -14.308 -14.2271 31.9276 -14.3552 
-6.29203 31.9276 -13.7027 1.64302 31.9276 -12.5705 9.57808 31.9276 -12.2665 
17.5131 31.9276 -12.0783 25.4482 31.9276 -11.8402 -22.1621 39.8627 -13.3057 
-14.2271 39.8627 -13.1912 -6.29203 39.8627 -12.4253 1.64302 39.8627 -11.8057 
-30.0972 -41.1114 -11.1772 -22.1621 -44.5105 -11.1772 -14.2271 -44.3563 -11.1772 
-6.29203 -43.8464 -11.1772 -6.29203 -47.4229 -3.31235 1.64302 -41.6795 -11.1772 
-33.2228 -39.4879 -11.1772 -38.0322 -36.0525 -11.1772 -38.0322 -39.4879 -5.66551 
8.58281 -39.4879 -11.1772 9.57808 -38.7616 -11.1772 9.57808 -39.4879 -10.9179 
17.5131 -31.5759 -11.1772 17.5131 -39.4879 -7.72179 25.4482 -39.4879 -5.10052 
-43.4722 -31.5528 -11.1772 -45.9673 -28.4946 -11.1772 -45.9673 -31.5528 -8.66229 
17.5575 -31.5528 -11.1772 25.4482 -27.7724 -11.1772 25.4482 -31.5528 -9.72072 
33.3832 -27.2815 -11.1772 33.3832 -31.5528 -8.29602 41.3183 -31.5528 -5.50728 
-49.5282 -23.6178 -11.1772 -53.9024 -17.8879 -11.1772 -53.9024 -23.6178 -6.64798 
40.8232 -23.6178 -11.1772 41.3183 -23.3877 -11.1772 41.3183 -23.6178 -11.0488 
49.2533 -19.7788 -11.1772 49.2533 -23.6178 -9.04216 -54.8724 -15.6827 -11.1772 
52.9515 -15.6827 -11.1772 57.1884 -10.2947 -11.1772 57.1884 -15.6827 -9.09752 
-55.0047 -7.74766 -11.1772 58.2675 -7.74766 -11.1772 -54.961 0.187396 -11.1772 
-61.8374 0.187396 -4.41789 -53.9024 4.50831 -11.1772 57.976 0.187396 -11.1772 
57.1884 3.27638 -11.1772 -53.1062 8.12245 -11.1772 -53.9024 8.12245 -10.5569 
54.6227 8.12245 -11.1772 57.1884 8.12245 -9.89887 -52.8492 16.0575 -11.1772 
-53.9024 16.0575 -10.5616 -45.9673 23.5562 -11.1772 41.3183 22.8164 -11.1772 
51.4325 16.0575 -11.1772 49.2533 18.7292 -11.1772 57.1884 16.0575 -5.65849 
-53.9024 23.9926 -5.07887 -45.7032 23.9926 -11.1772 -45.9673 23.9926 -11.0215 
39.9875 23.9926 -11.1772 33.3832 28.7138 -11.1772 41.3183 23.9926 -10.5944 
49.2533 23.9926 -6.97381 -40.336 31.9276 -11.1772 -45.9673 31.9276 -8.40668 
-38.0322 34.2955 -11.1772 -30.0972 39.6197 -11.1772 9.57808 36.1042 -11.1772 
17.5131 34.1834 -11.1772 27.7272 31.9276 -11.1772 25.4482 33.6794 -11.1772 
33.3832 31.9276 -9.05066 41.3183 31.9276 -5.61737 -38.0322 39.8627 -8.18642 
-29.5569 39.8627 -11.1772 -30.0972 39.8627 -11.0308 -22.1621 44.5618 -11.1772 
-14.2271 46.1167 -11.1772 -6.29203 44.2613 -11.1772 4.47919 39.8627 -11.1772 
1.64302 41.6331 -11.1772 9.57808 39.8627 -10.0721 17.5131 39.8627 -8.6444 
25.4482 39.8627 -7.52876 -30.0972 47.7977 -3.46761 -22.1621 47.7977 -8.74157 
-14.2271 47.7977 -10.2363 -6.29203 47.7977 -9.67538 1.64302 47.7977 -7.87773 
9.57808 47.7977 -5.70808 -6.29203 -47.4413 -3.24215 -38.0322 -40.3391 -3.24215 
-30.0972 -44.0715 -3.24215 -22.1621 -46.3184 -3.24215 -7.53344 -47.4229 -3.24215 
-14.2271 -47.3237 -3.24215 -3.04402 -47.4229 -3.24215 -6.29203 -47.4229 -3.15737 
1.64302 -47.394 -3.24215 9.57808 -46.471 -3.24215 17.5131 -44.0045 -3.24215 
25.4482 -41.0359 -3.24215 -39.3082 -39.4879 -3.24215 -45.9673 -34.4151 -3.24215 
-38.0322 -39.4879 0.843824 28.5183 -39.4879 -3.24215 33.3832 -36.3473 -3.24215 
41.3183 -33.4297 -3.24215 -49.1189 -31.5528 -3.24215 -53.9024 -26.0816 -3.24215 
44.7575 -31.5528 -3.24215 49.2533 -28.5782 -3.24215 -55.7365 -23.6178 -3.24215 
55.8953 -23.6178 -3.24215 57.1884 -22.5608 -3.24215 57.1884 -23.6178 1.74178 
-59.6909 -15.6827 -3.24215 62.2114 -15.6827 -3.24215 -61.5063 -7.74766 -3.24215 
-61.8374 -5.31344 -3.24215 64.8947 -7.74766 -3.24215 65.1235 -7.74766 -1.87619 
-62.4882 0.187396 -3.24215 -61.8374 3.09909 -3.24215 64.49 0.187396 -3.24215 
65.1235 0.187396 0.726117 -60.528 8.12245 -3.24215 62.9364 8.12245 -3.24215 
-58.4695 16.0575 -3.24215 59.197 16.0575 -3.24215 57.1884 18.8687 -3.24215 
-54.8931 23.9926 -3.24215 -53.9024 25.5175 -3.24215 -53.9024 23.9926 0.219454 
52.8516 23.9926 -3.24215 49.2533 27.5591 -3.24215 -49.1721 31.9276 -3.24215 
-45.9673 35.5751 -3.24215 -45.9673 31.9276 3.96142 33.3832 38.3675 -3.24215 
43.7973 31.9276 -3.24215 41.3183 33.7386 -3.24215 -41.3691 39.8627 -3.24215 
-38.0322 42.5973 -3.24215 -38.0322 39.8627 3.37584 17.5131 46.6018 -3.24215 
31.2002 39.8627 -3.24215 25.4482 43.1229 -3.24215 -30.2659 47.7977 -3.24215 
-30.0972 47.8987 -3.24215 -30.0972 47.7977 -2.99643 -22.1621 50.6123 -3.24215 
-22.1621 47.7977 4.27511 -14.2271 52.0668 -3.24215 -6.29203 52.3258 -3.24215 
1.64302 50.8867 -3.24215 14.9552 47.7977 -3.24215 9.57808 49.6474 -3.24215 
-30.0972 -40.5512 4.6929 -22.1621 -42.4401 4.6929 -14.2271 -43.745 4.6929 
-6.29203 -44.8845 4.6929 1.64302 -44.8161 4.6929 9.57808 -45.4184 4.6929 
17.5131 -44.5258 4.6929 25.4482 -41.8777 4.6929 -45.9673 -33.1822 4.6929 
-34.2976 -39.4879 4.6929 -38.0322 -38.3939 4.6929 -30.0972 -39.4879 6.07419 
-22.1621 -39.4879 7.75679 -14.2271 -39.4879 8.83369 -6.29203 -39.4879 9.33127 
1.64302 -39.4879 10.006 9.57808 -39.4879 10.5927 17.5131 -39.4879 10.0076 
31.3633 -39.4879 4.6929 25.4482 -39.4879 7.58796 33.3832 -38.669 4.6929 
41.3183 -34.9811 4.6929 -48.0104 -31.5528 4.6929 -53.9024 -25.6241 4.6929 
-45.9673 -31.5528 7.52732 -38.0322 -31.5528 11.0546 33.3832 -31.5528 12.4142 
47.5697 -31.5528 4.6929 41.3183 -31.5528 9.15215 49.2533 -30.5534 4.6929 
57.1884 -24.2138 4.6929 -55.5091 -23.6178 4.6929 -53.9024 -23.6178 7.28724 
49.2533 -23.6178 11.5967 57.7601 -23.6178 4.6929 57.1884 -23.6178 5.51149 
-59.388 -15.6827 4.6929 -53.9024 -15.6827 11.3547 62.9402 -15.6827 4.6929 
57.1884 -15.6827 10.9862 65.1235 -10.2277 4.6929 -61.3677 -7.74766 4.6929 
-61.8374 -0.174198 4.6929 66.0322 -7.74766 4.6929 65.1235 -7.74766 6.26535 
-61.8574 0.187396 4.6929 -61.8374 0.272282 4.6929 -61.8374 0.187396 4.72811 
65.6225 0.187396 4.6929 65.1235 3.1958 4.6929 65.1235 0.187396 5.67046 
-59.5002 8.12245 4.6929 -53.9024 8.12245 10.1491 64.1755 8.12245 4.6929 
-56.926 16.0575 4.6929 -53.9024 21.4913 4.6929 -53.9024 16.0575 8.28009 
-45.9673 16.0575 12.0219 60.4193 16.0575 4.6929 57.1884 20.6007 4.6929 
57.1884 16.0575 10.017 -51.4314 23.9926 4.6929 -45.9673 31.1984 4.6929 
-45.9673 23.9926 9.09314 -38.0322 23.9926 11.6548 53.5846 23.9926 4.6929 
49.2533 27.9025 4.6929 49.2533 23.9926 8.97671 -45.1347 31.9276 4.6929 
-38.0322 38.5623 4.6929 -38.0322 31.9276 8.36932 -30.0972 31.9276 10.4625 
-22.1621 31.9276 11.7519 -14.2271 31.9276 12.2398 33.3832 38.3657 4.6929 
33.3832 31.9276 9.85019 42.9594 31.9276 4.6929 41.3183 32.8995 4.6929 
41.3183 31.9276 6.58277 -35.3213 39.8627 4.6929 -30.0972 41.6783 4.6929 
-30.0972 39.8627 5.94365 -22.1621 47.4841 4.6929 -22.1621 39.8627 8.48741 
-14.2271 39.8627 10.0731 -6.29203 39.8627 11.3556 17.5131 47.1441 4.6929 
17.5131 39.8627 10.6267 30.3571 39.8627 4.6929 25.4482 42.2055 4.6929 
25.4482 39.8627 6.75419 -18.1123 47.7977 4.6929 -14.2271 48.003 4.6929 
-14.2271 47.7977 4.92245 -6.29203 50.1707 4.6929 -6.29203 47.7977 7.95974 
1.64302 49.9793 4.6929 1.64302 47.7977 7.69156 15.1619 47.7977 4.6929 
9.57808 49.1431 4.6929 9.57808 47.7977 6.74842 -30.0972 -32.4412 12.628 
-22.1621 -33.4043 12.628 -14.2271 -34.032 12.628 -6.29203 -34.6191 12.628 
1.64302 -35.0286 12.628 9.57808 -35.6846 12.628 17.5131 -34.5246 12.628 
25.4482 -32.5961 12.628 -45.9673 -25.2115 12.628 -32.5026 -31.5528 12.628 
[...]
POINT_DATA 530
SCALARS ImageScalars float
LOOKUP_TABLE default
0 0 0 0 0 0 0 0 0 
0 0 0 0 0 0 0 0 0 
0 0 0 0 0 0 0 0 0 
0 0 0 0 0 0 0 0 0 
0 0 0 0 0 0 0 0 0 
0 0 0 0 0 0 0 0 0 
0 0 0 0 0 0 0 0 0 
0 0 0 0 0 0 0 0 0 
0 0 0 0 0 0 0 0 0 
0 0 0 0 0 0 0 0 0 
0 0 0 0 0 0 0 0 0 
0 0 0 0 0 0 0 0 0 
0 0 0 0 0 0 0 0 0 
0 0 0 0 0 0 0 0 0 
0 0 0 0 0 0 0 0 0 
0 0 0 0 0 0 0 0 0 
0 0 0 0 0 0 0 0 0 
0 0 0 0 0 0 0 0 0 
0 0 0 0 0 0 0 0 0 
0 0 0 0 0 0 0 0 0 
0 0 0 0 0 0 0 0 0 
0 0 0 0 0 0 0 0 0 
0 0 0 0 0 0 0 0 0 
0 0 0 0 0 0 0 0 0 
0 0 0 0 0 0 0 0 0 
0 0 0 0 0 0 0 0 0 
0 0 0 0 0 0 0 0 0 
0 0 0 0 0 0 0 0 0 
0 0 0 0 0 0 0 0 0 
0 0 0 0 0 0 0 0 0 
0 0 0 0 0 0 0 0 0 
0 0 0 0 0 0 0 0 0 
0 0 0 0 0 0 0 0 0 
0 0 0 0 0 0 0 0 0 
0 0 0 0 0 0 0 0 0 
0 0 0 0 0 0 0 0 0 
0 0 0 0 0 0 0 0 0 
0 0 0 0 0 0 0 0 0 
0 0 0 0 0 0 0 0 0 
0 0 0 0 0 0 0 0 0 
0 0 0 0 0 0 0 0 0 
0 0 0 0 0 0 0 0 0 
0 0 0 0 0 0 0 0 0 
0 0 0 0 0 0 0 0 0 
0 0 0 0 0 0 0 0 0 
0 0 0 0 0 0 0 0 0 
0 0 0 0 0 0 0 0 0 
0 0 0 0 0 0 0 0 0 
0 0 0 0 0 0 0 0 0 
0 0 0 0 0 0 0 0 0 
0 0 0 0 0 0 0 0 0 
0 0 0 0 0 0 0 0 0 
0 0 0 0 0 0 0 0 0 
0 0 0 0 0 0 0 0 0 
0 0 0 0 0 0 0 0 0 
0 0 0 0 0 0 0 0 0 
0 0 0 0 0 0 0 0 0 
0 0 0 0 0 0 0 0 0 
0 0 0 0 0 0 0 0 
NORMALS Normals float
0.370917 0.646117 0.667048 0.113405 0.489958 0.864338 -0.0403347 0.470012 0.881738 
-0.155038 0.445633 0.881689 -0.200444 0.461893 0.863989 0.38731 0.395241 0.832932 
0.21873 0.222033 0.950189 0.0778507 0.17566 0.981368 -0.0161144 0.154307 0.987892 
-0.16545 0.130288 0.977574 -0.235676 0.185966 0.953873 -0.233361 0.212935 0.948789 
-0.216454 0.306469 0.926943 0.446042 0.318943 0.836255 0.228736 0.243182 0.942625 
0.113377 0.0992458 0.988583 0.0350542 0.0330002 0.99884 -0.0693245 -0.0364005 0.99693 
-0.136905 -0.0269434 0.990218 -0.163585 0.0785369 0.983398 -0.156659 0.167734 0.973305 
-0.086828 0.287701 0.953776 -0.0347096 0.388529 0.920783 -0.0888046 0.424673 0.900981 
0.598235 0.177871 0.78133 0.348924 0.106094 0.931126 0.192641 0.0499036 0.979999 
0.00282297 -0.0115974 0.999929 -0.0580864 -0.0796085 0.995132 -0.0782709 -0.111585 0.990668 
-0.053568 0.035676 0.997927 -0.0357083 0.151097 0.987874 -0.0139314 0.234872 0.971926 
0.0133496 0.284974 0.958442 0.00104815 0.298508 0.954406 -0.0801901 0.303939 0.949311 
-0.191447 0.301102 0.934177 -0.332681 0.323453 0.885834 0.548941 -0.00578684 0.835841 
0.288624 0.00828846 0.957407 0.115725 -0.0714783 0.990706 -0.018064 -0.105067 0.994301 
-0.0646828 -0.134871 0.98875 0.0442485 -0.0279552 0.998629 0.129175 0.101376 0.986426 
0.0217075 -0.0723718 0.997141 -0.0310357 -0.0118218 0.999448 -0.00758946 -0.0449246 0.998962 
-0.00488994 0.033449 0.999428 -0.0638511 0.0586439 0.996235 -0.155217 0.102848 0.982512 
-0.313394 0.11392 0.942765 -0.527426 0.136795 0.838516 0.498309 -0.0787049 0.86342 
0.265072 -0.0361431 0.963551 0.0750291 -0.0740926 0.994425 -0.0595067 -0.111451 0.991987 
0.00865153 -0.13683 0.990557 0.167436 -0.126545 0.977728 -0.138854 -0.0602946 0.988476 
-0.148951 -0.128903 0.980407 0.042129 -0.236565 0.970702 0.0830627 -0.259369 0.9622 
0.0978504 -0.174939 0.979705 -0.0160356 -0.125484 0.991966 -0.131642 -0.108556 0.985335 
-0.3108 -0.100548 0.945142 -0.554255 -0.105162 0.825677 0.273054 -0.0658939 0.959739 
0.0505837 -0.11521 0.992052 -0.0747923 -0.0956283 0.992603 -0.0856309 -0.0561234 0.994745 
0.0727179 -0.204669 0.976126 0.144862 -0.423353 0.894308 -0.110858 -0.105107 0.988263 
-0.175593 -0.102457 0.979117 0.0486013 -0.0827326 0.995386 0.118318 -0.143845 0.982502 
0.000187394 -0.154529 0.987988 -0.137875 -0.182123 0.973561 -0.307364 -0.157972 0.938388 
0.282952 -0.239008 0.928878 0.0577913 -0.0993057 0.993377 -0.00778004 -0.0448787 0.998962 
-0.0979447 -0.0118214 0.995122 -0.162631 -0.00116709 0.986686 -0.033755 -0.123185 0.991809 
0.123706 -0.240741 0.962674 0.0644595 -0.0784441 0.994832 0.0401463 -0.0149376 0.999082 
0.0308116 -0.0842434 0.995969 -0.0556361 -0.160533 0.985461 -0.148007 -0.248341 0.957299 
-0.388964 -0.310505 0.867349 0.196952 -0.145778 0.969515 0.0119554 -0.045156 0.998908 
-0.0522784 -0.0316181 0.998132 -0.0820878 0.048705 0.995434 -0.0811297 0.092848 0.992369 
-0.00601446 -0.0341305 0.999399 0.0521962 -0.109976 0.992563 0.0381669 -0.13584 0.989995 
-0.0176661 -0.186455 0.982305 -0.165246 -0.293284 0.941636 0.350012 -0.336634 0.874168 
0.106004 -0.193318 0.975393 -0.0118899 -0.072637 0.997288 -0.0379235 -0.0643814 0.997205 
-0.111297 -0.0616747 0.991872 -0.0914045 -0.0589864 0.994065 -0.0299318 -0.181876 0.982866 
-0.0262878 -0.281156 0.959302 -0.157041 -0.321055 0.933949 0.125485 -0.317385 0.939958 
-0.056526 -0.245151 0.967836 -0.0856108 -0.227397 0.970032 -0.153614 -0.233449 0.960159 
0.395655 0.730984 0.555985 0.163394 0.821679 0.546027 -0.0298087 0.809441 0.586444 
-0.131444 0.746342 0.652453 0.00365376 0.999665 0.0256302 -0.182665 0.577407 0.79576 
0.44023 0.687289 0.577782 0.468631 0.576867 0.669037 0.526397 0.822321 0.216088 
-0.252744 0.431336 0.866066 -0.259985 0.405406 0.876387 -0.264814 0.43581 0.860199 
-0.216681 0.30701 0.926711 -0.318329 0.604768 0.730016 -0.369676 0.755657 0.540669 
0.527553 0.497173 0.688845 0.538897 0.465034 0.702377 0.624471 0.603189 0.496184 
-0.215965 0.306949 0.926899 -0.0783914 0.386757 0.918844 -0.151093 0.419665 0.895015 
-0.13653 0.502292 0.853852 -0.231724 0.646845 0.726565 -0.360463 0.727414 0.583897 
0.55212 0.406827 0.727774 0.630268 0.256534 0.73277 0.7441 0.526899 0.410722 
-0.191747 0.515105 0.835404 -0.198735 0.515664 0.833424 -0.200058 0.523221 0.828382 
-0.348575 0.434014 0.830739 -0.392465 0.584878 0.709851 0.644697 0.190079 0.74043 
-0.42714 0.351364 0.833124 -0.533175 0.224189 0.81576 -0.574827 0.403252 0.712013 
0.598826 0.00574055 0.800858 -0.566675 0.140186 0.811928 0.543918 -0.0769842 0.8356 
0.948672 -0.0566732 0.311144 0.562806 -0.0681154 0.823778 -0.580569 -0.10716 0.807128 
-0.546698 -0.177546 0.81829 0.574259 -0.0637832 0.816185 0.626405 -0.0703011 0.776321 
-0.454335 -0.236052 0.858987 -0.562789 -0.286823 0.775242 0.542051 -0.186813 0.819318 
0.602581 -0.183265 0.77673 0.447154 -0.246319 0.859872 -0.318453 -0.38911 0.864396 
-0.472466 -0.342095 0.812248 -0.422821 -0.387703 0.81909 -0.694385 -0.494845 0.522454 
0.824908 -0.519114 0.223711 0.447969 -0.240775 0.861018 0.462438 -0.247473 0.851416 
-0.323396 -0.391714 0.86138 -0.236126 -0.434427 0.869205 -0.360385 -0.420724 0.832535 
-0.539777 -0.603831 0.58654 0.39905 -0.355865 0.845056 0.637158 -0.512296 0.575831 
0.370633 -0.391725 0.84213 0.200431 -0.461726 0.864081 -0.108604 -0.264724 0.958189 
-0.0428334 -0.333041 0.941939 -0.195734 -0.377949 0.904899 -0.173745 -0.378281 0.909239 
-0.311433 -0.584073 0.749579 -0.50573 -0.729995 0.459723 0.52958 -0.660218 0.532595 
0.199794 -0.459711 0.865302 0.207339 -0.477533 0.853799 0.17049 -0.506753 0.845065 
0.00149398 -0.515152 0.857097 -0.0910269 -0.417116 0.904283 -0.171847 -0.269754 0.947471 
-0.169276 -0.317478 0.933035 -0.188824 -0.370277 0.909528 -0.138698 -0.547311 0.825357 
-0.310955 -0.707971 0.634101 0.448822 -0.89287 0.0366399 0.221981 -0.757407 0.614051 
0.0222502 -0.636651 0.770831 -0.0908285 -0.631463 0.770068 -0.203851 -0.719668 0.663719 
-0.276459 -0.768234 0.577397 0.00451357 0.999743 0.0222012 0.511054 0.857786 0.0550205 
0.354786 0.934097 -0.0398835 0.193565 0.975955 -0.10022 0.0144734 0.999799 0.0138753 
0.069154 0.997103 -0.0316775 -0.0191285 0.998163 0.0574933 0.00493894 0.999838 0.0172999 
-0.0551676 0.992293 0.110957 -0.187711 0.956626 0.222782 -0.332456 0.855075 0.397893 
-0.387154 0.821408 0.418809 0.529612 0.845588 0.0670255 0.646408 0.752557 0.12576 
0.464591 0.867406 -0.178216 -0.406561 0.80128 0.438929 -0.400195 0.775274 0.488665 
-0.388019 0.810381 0.439004 0.707643 0.688192 0.160103 0.784601 0.585931 0.202697 
-0.424061 0.79145 0.440204 -0.494802 0.760113 0.421188 0.813636 0.539851 0.215772 
-0.597185 0.693054 0.403791 -0.6342 0.661757 0.399835 -0.710357 0.703222 0.0295049 
0.913008 0.326022 0.245205 -0.841276 0.391543 0.372759 0.949489 0.167379 0.265434 
0.960444 0.102154 0.25906 -0.908128 0.145048 0.392764 -0.943705 0.153579 0.292974 
0.969192 -0.0558583 0.23989 0.962373 -0.125861 0.240827 -0.909464 -0.109341 0.401147 
-0.987923 -0.116016 0.102702 0.94155 -0.238111 0.238298 -0.872513 -0.294981 0.389495 
0.914666 -0.358241 0.187216 -0.771934 -0.505148 0.385933 -0.726523 -0.558001 0.400997 
0.852288 -0.50834 0.123267 0.837991 -0.533455 0.114876 0.814395 -0.561092 -0.148108 
-0.67988 -0.639839 0.358286 -0.627177 -0.699792 0.341965 0.78138 -0.619005 0.0792373 
0.728401 -0.682834 0.0563029 0.584742 -0.585492 -0.561494 -0.497996 -0.806186 0.319474 
-0.565571 -0.771488 0.291437 -0.541048 -0.793309 0.279155 0.654346 -0.754648 0.0483523 
0.609387 -0.791844 0.0403935 0.486647 -0.67416 -0.555593 -0.368405 -0.838594 0.401294 
-0.493144 -0.818603 0.294446 -0.43476 -0.850438 0.29621 0.450313 -0.892706 0.0171618 
0.446814 -0.89446 0.0172869 0.450053 -0.892999 -0.00240411 0.277083 -0.958678 0.0645131 
0.214697 -0.740298 -0.637075 0.114426 -0.989103 0.0926341 -0.0669117 -0.97244 0.223348 
-0.20267 -0.934767 0.291778 -0.348696 -0.859373 0.374017 -0.259271 -0.911048 0.320578 
0.21326 0.817883 -0.534404 0.155702 0.78678 -0.597272 0.113398 0.794593 -0.596459 
0.0539625 0.823207 -0.565171 0.0290124 0.856093 -0.516007 -0.0176337 0.911554 -0.410802 
-0.209576 0.923962 -0.319956 -0.339483 0.894409 -0.291177 0.550964 0.773837 -0.312433 
0.300551 0.829949 -0.46995 0.386937 0.817507 -0.42657 0.185065 0.795018 -0.577665 
0.116842 0.704996 -0.69952 0.0752309 0.648955 -0.757098 0.0595286 0.613306 -0.787599 
0.0662348 0.617699 -0.78362 0.000574954 0.580373 -0.81435 -0.160086 0.654669 -0.73877 
-0.387816 0.903266 -0.1836 -0.277844 0.805306 -0.523722 -0.399273 0.905546 -0.143415 
-0.439032 0.87736 -0.193623 0.60474 0.738261 -0.298764 0.755527 0.593258 -0.277893 
0.515434 0.725996 -0.455256 0.235736 0.616557 -0.75119 -0.21019 0.490376 -0.845785 
-0.506023 0.848371 -0.155587 -0.356229 0.751336 -0.555514 -0.535656 0.831032 -0.14986 
-0.7142 0.674137 -0.188302 0.78828 0.553 -0.269824 0.730575 0.5369 -0.421899 
-0.412361 0.491364 -0.76715 -0.727113 0.659279 -0.191463 -0.712033 0.655588 -0.251423 
0.898604 0.321597 -0.298472 0.677434 0.212951 -0.704085 -0.872637 0.417083 -0.25406 
-0.593487 0.31203 -0.741897 -0.945574 0.241227 -0.2184 0.946893 0.134555 -0.292043 
0.938185 -0.0827009 -0.336108 -0.962593 0.159583 -0.218969 -0.936248 0.166408 -0.309432 
0.936424 -0.0935806 -0.338161 0.93604 -0.0958077 -0.338601 0.93567 -0.0937806 -0.340188 
-0.974587 -0.108562 -0.195945 -0.963283 -0.188271 -0.191415 -0.957305 -0.106379 -0.268796 
0.868077 -0.278681 -0.410828 0.640908 -0.240322 -0.729029 -0.927742 -0.3182 -0.195047 
0.812211 -0.36931 -0.451578 0.710788 -0.499196 -0.495564 0.66291 -0.333408 -0.670365 
0.315946 -0.327844 -0.890335 -0.847279 -0.499483 -0.180653 -0.748504 -0.638887 -0.177668 
-0.679109 -0.431498 -0.593819 0.639309 -0.550625 -0.536746 0.549434 -0.562905 -0.617462 
0.44029 -0.445528 -0.779519 0.180865 -0.314776 -0.931775 -0.659246 -0.715374 -0.231592 
-0.591578 -0.759216 -0.271342 -0.511843 -0.649319 -0.562496 0.541598 -0.556653 -0.629927 
0.43542 -0.598416 -0.672538 0.357479 -0.450026 -0.818343 0.158972 -0.345201 -0.924967 
0.113473 -0.305329 -0.945462 0.103977 -0.22795 -0.968105 -0.449429 -0.824237 -0.344451 
-0.253809 -0.591589 -0.765248 -0.501765 -0.828049 -0.250133 -0.489144 -0.832419 -0.260417 
-0.444446 -0.808777 -0.38516 0.378936 -0.611871 -0.694277 0.310741 -0.610886 -0.728188 
0.264831 -0.570211 -0.77764 0.209714 -0.709912 -0.672343 0.208941 -0.426012 -0.88026 
0.185629 -0.372836 -0.90914 0.163461 -0.270306 -0.948797 -0.339757 -0.883159 -0.323412 
-0.332488 -0.443894 -0.832112 -0.455762 -0.799553 -0.391146 -0.466243 -0.75742 -0.457091 
-0.396916 -0.687343 -0.60829 0.174779 -0.727863 -0.663074 0.142924 -0.739 -0.658371 
0.146139 -0.73068 -0.666896 0.108555 -0.840892 -0.530204 0.130374 -0.689552 -0.712405 
-0.0673141 -0.902561 -0.425266 -0.0499381 -0.791892 -0.608615 -0.287271 -0.9004 -0.326735 
-0.177371 -0.915036 -0.362282 -0.166696 -0.84518 -0.507822 0.13884 0.5339 -0.834071 
0.0549381 0.520836 -0.851887 0.0427258 0.496982 -0.866708 0.0317408 0.499328 -0.865831 
0.0320263 0.464366 -0.885064 -0.0107847 0.412878 -0.910722 -0.0986178 0.408991 -0.907194 
-0.0944963 0.416896 -0.904029 0.40236 0.485479 -0.776155 0.156805 0.536609 -0.829134 
0.205733 0.546212 -0.811989 0.135339 0.510278 -0.849293 0.0483089 0.47209 -0.880225 
0.0319974 0.443583 -0.895662 0.0181104 0.445853 -0.894923 -0.00114175 0.385701 -0.922623 
-0.0248768 0.300602 -0.953425 -0.0737755 0.311678 -0.947319 -0.174461 0.455646 -0.872897 
-0.0808613 0.379763 -0.921543 -0.193431 0.465653 -0.863569 -0.233576 0.480917 -0.84508 
0.440606 0.447054 -0.778465 0.389623 0.434148 -0.812225 0.176109 0.374222 -0.910464 
0.0560708 0.316737 -0.946855 0.0213399 0.256561 -0.966293 0.0271934 0.228931 -0.973063 
-0.00767637 0.237068 -0.971463 -0.0945177 0.196122 -0.976014 -0.0703464 0.17984 -0.981177 
-0.0424065 0.148361 -0.988024 -0.026705 0.215237 -0.976197 -0.0372246 0.224606 -0.973738 
-0.326969 0.425986 -0.84358 -0.185903 0.331525 -0.924949 -0.366968 0.436112 -0.821669 
0.601424 0.189225 -0.776198 0.573797 0.106478 -0.812047 0.334472 0.152464 -0.929991 
0.148802 0.133069 -0.979873 0.0179513 0.108638 -0.993919 -0.0591437 0.0390393 -0.997486 
0.00707859 0.0184982 -0.999804 -0.0153123 0.123911 -0.992175 -0.0744657 -0.0383074 -0.996488 
-0.0787819 0.145891 -0.986159 -0.0243366 0.00246556 -0.999701 0.0113249 0.0657844 -0.99777 
-0.0270917 0.109876 -0.993576 -0.0200065 0.195622 -0.980475 -0.483592 0.299653 -0.822403 
-0.288266 0.270392 -0.918581 -0.525738 0.174047 -0.83265 0.56678 0.0901487 -0.818922 
0.556455 0.0893233 -0.826063 0.299639 -0.0198786 -0.953846 0.108057 -0.0241448 -0.993851 
-0.0416533 -0.0709233 -0.996612 -0.0635328 -0.0861763 -0.994252 0.111696 -0.0876284 -0.989871 
-0.0676194 0.113429 -0.991242 -0.0690822 -0.0922429 -0.993337 -0.0374828 0.0313371 -0.998806 
-0.123504 -0.0788673 -0.989205 0.0846158 -0.0135462 -0.996322 0.0867501 0.0675074 -0.99394 
-0.042509 0.116269 -0.992308 -0.228048 0.0019405 -0.973648 -0.5562 0.131044 -0.820652 
-0.495202 0.127884 -0.859314 0.547993 -0.144823 -0.823851 0.536239 -0.166443 -0.827493 
0.514478 -0.146756 -0.844852 0.248146 -0.101075 -0.963435 0.0885699 -0.13433 -0.98697 
-0.0457306 -0.106955 -0.993212 -0.0704268 -0.0879427 -0.993633 0.160151 -0.0999781 -0.982016 
-0.0216988 -0.304075 -0.952401 -0.110082 -0.106852 -0.988162 -0.0747393 -0.161972 -0.983961 
-0.0530545 -0.00175628 -0.99859 0.155687 0.042197 -0.986905 0.10214 0.0271416 -0.9944 
-0.0766051 0.01035 -0.997008 -0.259646 -0.00232858 -0.965701 -0.523008 -0.0398365 -0.851396 
-0.478919 -0.030609 -0.877325 0.488828 -0.233883 -0.840444 0.30993 -0.302945 -0.901204 
0.307418 -0.217108 -0.926476 0.104892 -0.204677 -0.973193 0.00640251 -0.167007 -0.985935 
-0.0476853 -0.0980991 -0.994034 -0.0530032 -0.0548458 -0.997087 -0.0788379 -0.208745 -0.974787 
0.0150353 -0.0627645 -0.997915 0.0673048 -0.204962 -0.976453 0.0802146 -0.00595341 -0.99676 
0.112271 -0.0195311 -0.993486 0.0563029 -0.05747 -0.996758 -0.070324 -0.126631 -0.989454 
-0.260398 -0.0627403 -0.963461 -0.600083 -0.14303 -0.787047 -0.592754 -0.161471 -0.789031 
-0.588203 -0.140702 -0.796379 0.270335 -0.306405 -0.912708 0.165198 -0.285151 -0.944139 
0.169217 -0.26525 -0.949214 0.0669861 -0.244989 -0.967209 0.0379757 -0.17241 -0.984293 
0.0219655 -0.131123 -0.991123 -0.0263814 -0.0489347 -0.998453 -0.0831115 0.0171705 -0.996392 
-0.0111213 -0.0712163 -0.997399 0.121169 -0.107668 -0.986775 0.102018 -0.151603 -0.983163 
-0.00398456 -0.203253 -0.979118 -0.0944788 -0.275368 -0.956685 -0.473832 -0.400853 -0.784092 
-0.359693 -0.498538 -0.788721 -0.31531 -0.388721 -0.865723 0.105542 -0.282255 -0.953516 
0.103357 -0.282115 -0.953797 0.102686 -0.281532 -0.954042 0.0966796 -0.26125 -0.960417 
0.0760568 -0.223116 -0.97182 0.0954644 -0.220066 -0.970803 0.0735466 -0.208789 -0.975191 
0.072686 -0.14323 -0.987017 -0.0101307 -0.0593026 -0.998189 -0.0575691 -0.0174788 -0.998188 
0.000250489 -0.135977 -0.990712 0.00618273 -0.235688 -0.971809 -0.115461 -0.426032 -0.89731 
-0.0787564 -0.370913 -0.925322 -0.275286 -0.405768 -0.871533 -0.256343 -0.41918 -0.870963 
-0.244098 -0.376473 -0.893691 0.109036 -0.214731 -0.970568 0.139928 -0.20786 -0.968098 
0.124316 -0.195633 -0.972766 0.0435441 -0.145743 -0.988364 -0.0876807 -0.120644 -0.988816 
-0.110621 -0.227044 -0.967581 -0.0929317 -0.211335 -0.972986 -0.150657 -0.397101 -0.905325 
-0.152496 -0.397202 -0.904973 -0.148675 -0.391298 -0.908175 0.0886678 -0.275857 -0.9571 
0.0691936 -0.307149 -0.949143 0.0754094 -0.284462 -0.955717 -0.130613 -0.307175 -0.942647 
-0.126308 -0.31098 -0.941986 -0.124729 -0.305114 -0.944112 
