# vtk DataFile Version 4.2
vtk output
ASCII
DATASET POLYDATA
POINTS 554 float
-44.0757 -12.2467 -19.8876 -44.0757 -4.93226 -20.2597 -44.0757 2.38219 -20.8194 
-44.0757 9.69664 -19.8092 -51.3901 -26.8756 -12.8951 -44.0757 -26.8756 -15.144 
-36.7612 -26.8756 -14.5307 -29.4468 -26.8756 -13.5311 -22.1323 -26.8756 -11.7366 
-58.7046 -19.5612 -13.7179 -51.3901 -19.5612 -18.7908 -44.0757 -15.3994 -18.8184 
-44.0757 -19.5612 -17.3466 -36.7612 -19.5612 -18.4242 -29.4468 -19.5612 -16.2795 
-22.1323 -19.5612 -14.7662 -14.8179 -19.5612 -12.7866 -58.7046 -12.2467 -16.3072 
-47.4287 -12.2467 -18.8184 -51.3901 -12.2467 -17.8763 -39.2698 -12.2467 -18.8184 
-36.7612 -12.2467 -18.3032 -29.4468 -12.2467 -18.0078 -22.1323 -12.2467 -15.6512 
-14.8179 -12.2467 -13.1561 -0.188979 -12.2467 -12.0436 7.12547 -12.2467 -12.2024 
14.4399 -12.2467 -12.3738 21.7544 -12.2467 -13.0913 29.0688 -12.2467 -13.5903 
36.3833 -12.2467 -13.0304 43.6977 -12.2467 -12.0381 -58.7046 -4.93226 -17.0842 
-49.4713 -4.93226 -18.8184 -51.3901 -4.93226 -18.1617 -37.0762 -4.93226 -18.8184 
-36.7612 -4.93226 -18.7399 -29.4468 -4.93226 -17.4259 -22.1323 -4.93226 -15.9512 
-14.8179 -4.93226 -13.5707 -7.50343 -4.93226 -13.5823 -0.188979 -4.93226 -12.854 
7.12547 -4.93226 -15.2667 14.4399 -4.93226 -14.7577 21.7544 -4.93226 -14.1626 
29.0688 -4.93226 -14.523 36.3833 -4.93226 -14.5942 43.6977 -4.93226 -14.1014 
51.0122 -4.93226 -12.2957 -58.7046 2.38219 -16.7621 -48.8944 2.38219 -18.8184 
-51.3901 2.38219 -17.782 -37.3877 2.38219 -18.8184 -36.7612 2.38219 -18.6463 
-29.4468 2.38219 -17.3796 -22.1323 2.38219 -15.5085 -14.8179 2.38219 -13.8154 
-7.50343 2.38219 -15.5088 -0.188979 2.38219 -13.4318 7.12547 2.38219 -16.4453 
14.4399 2.38219 -15.2078 21.7544 2.38219 -15.1034 29.0688 2.38219 -15.5956 
36.3833 2.38219 -15.6908 43.6977 2.38219 -14.6451 51.0122 2.38219 -12.8978 
-58.7046 9.69664 -14.7536 -46.523 9.69664 -18.8184 -51.3901 9.69664 -16.887 
-39.093 9.69664 -18.8184 -44.0757 13.0945 -18.8184 -36.7612 9.69664 -18.4007 
-29.4468 9.69664 -17.624 -22.1323 9.69664 -16.6496 -14.8179 9.69664 -15.6965 
-7.50343 9.69664 -15.8378 -0.188979 9.69664 -16.1617 7.12547 9.69664 -15.5998 
14.4399 9.69664 -14.5563 21.7544 9.69664 -15.2722 29.0688 9.69664 -15.9144 
36.3833 9.69664 -16.0527 43.6977 9.69664 -14.7055 51.0122 9.69664 -13.1043 
-58.7046 17.0111 -12.7831 -51.3901 17.0111 -17.091 -44.0757 17.0111 -17.6763 
-36.7612 17.0111 -17.9657 -29.4468 17.0111 -18.5085 -22.1323 17.0111 -17.9705 
-14.8179 17.0111 -17.512 -7.50343 17.0111 -16.6269 -0.188979 17.0111 -15.3598 
7.12547 17.0111 -15.1363 14.4399 17.0111 -14.7824 21.7544 17.0111 -15.2449 
29.0688 17.0111 -14.9527 36.3833 17.0111 -14.8523 43.6977 17.0111 -14.4575 
51.0122 17.0111 -12.8283 -51.3901 24.3255 -13.7462 -44.0757 24.3255 -15.3888 
-36.7612 24.3255 -17.5079 -29.4468 24.3255 -17.6654 -22.1323 24.3255 -18.7928 
-14.8179 24.3255 -17.5765 -7.50343 24.3255 -16.2759 -0.188979 24.3255 -14.844 
7.12547 24.3255 -14.5367 14.4399 24.3255 -14.3587 21.7544 24.3255 -13.6894 
29.0688 24.3255 -12.8419 36.3833 24.3255 -12.1362 -44.0757 31.64 -11.7911 
-36.7612 31.64 -13.5119 -29.4468 31.64 -16.0055 -22.1323 31.64 -15.8978 
-14.8179 31.64 -15.6019 -7.50343 31.64 -14.1814 -0.188979 31.64 -12.5565 
7.12547 31.64 -11.6662 -51.3901 -28.3432 -11.5039 -44.0757 -30.2974 -11.5039 
-36.7612 -31.3641 -11.5039 -36.7612 -34.1901 -5.1745 -29.4468 -29.7289 -11.5039 
-22.1323 -27.1858 -11.5039 -53.7069 -26.8756 -11.5039 -58.7046 -22.7842 -11.5039 
-21.3831 -26.8756 -11.5039 -14.8179 -22.5567 -11.5039 -14.8179 -26.8756 -9.26017 
-7.50343 -26.8756 -7.24857 -0.188979 -26.8756 -6.59825 7.12547 -26.8756 -6.23362 
14.4399 -26.8756 -5.99101 21.7544 -26.8756 -6.38262 29.0688 -26.8756 -6.90908 
36.3833 -26.8756 -6.40385 43.6977 -26.8756 -4.70775 -61.1013 -19.5612 -11.5039 
-8.61532 -19.5612 -11.5039 -7.50343 -19.5612 -11.2775 -0.188979 -15.9526 -11.5039 
-0.188979 -19.5612 -10.9573 7.12547 -15.3215 -11.5039 7.12547 -19.5612 -10.5317 
14.4399 -16.1475 -11.5039 14.4399 -19.5612 -10.6509 21.7544 -17.963 -11.5039 
21.7544 -19.5612 -11.0173 29.0688 -18.553 -11.5039 29.0688 -19.5612 -11.1696 
36.3833 -17.7065 -11.5039 36.3833 -19.5612 -10.9816 43.6977 -13.6297 -11.5039 
43.6977 -19.5612 -9.16252 51.0122 -19.5612 -7.28845 -64.0425 -12.2467 -11.5039 
-8.07892 -12.2467 -11.5039 -6.13002 -12.2467 -11.5039 -7.50343 -11.5954 -11.5039 
-7.50343 -12.2467 -11.3801 47.8655 -12.2467 -11.5039 51.0122 -9.81435 -11.5039 
51.0122 -12.2467 -11.001 58.3266 -12.2467 -6.39502 -65.6301 -4.93226 -11.5039 
-66.019 -4.93226 -7.78046 53.2422 -4.93226 -11.5039 58.3266 -4.93226 -9.14321 
-65.4597 2.38219 -11.5039 -66.019 2.38219 -5.98139 55.6111 2.38219 -11.5039 
58.3266 2.38219 -10.4298 -62.5117 9.69664 -11.5039 56.6601 9.69664 -11.5039 
58.3266 9.69664 -10.8442 -60.0859 17.0111 -11.5039 -58.7046 19.0533 -11.5039 
43.6977 22.5718 -11.5039 53.257 17.0111 -11.5039 51.0122 19.3221 -11.5039 
58.3266 17.0111 -7.50902 -54.3378 24.3255 -11.5039 -51.3901 26.8288 -11.5039 
14.4399 30.6162 -11.5039 21.7544 28.9153 -11.5039 29.0688 26.2942 -11.5039 
39.0935 24.3255 -11.5039 36.3833 25.0075 -11.5039 43.6977 24.3255 -10.2883 
51.0122 24.3255 -5.86732 -44.4573 31.64 -11.5039 -44.0757 31.8688 -11.5039 
-36.7612 33.9083 -11.5039 -29.4468 36.0433 -11.5039 -22.1323 36.935 -11.5039 
-14.8179 36.7728 -11.5039 -7.50343 34.9804 -11.5039 -0.188979 32.9622 -11.5039 
8.98011 31.64 -11.5039 7.12547 31.8451 -11.5039 14.4399 31.64 -10.6163 
21.7544 31.64 -8.44496 -36.7612 -34.4551 -4.1895 -51.3901 -30.1458 -4.1895 
-38.233 -34.1901 -4.1895 -44.0757 -33.138 -4.1895 -31.0406 -34.1901 -4.1895 
-36.7612 -34.1901 -2.98897 -29.4468 -34.1126 -4.1895 -22.1323 -33.5924 -4.1895 
-14.8179 -31.27 -4.1895 -7.50343 -29.421 -4.1895 -0.188979 -28.8955 -4.1895 
7.12547 -28.7453 -4.1895 14.4399 -28.493 -4.1895 21.7544 -28.7395 -4.1895 
29.0688 -29.3391 -4.1895 36.3833 -28.9516 -4.1895 43.6977 -27.3269 -4.1895 
-55.8265 -26.8756 -4.1895 -58.7046 -24.0721 -4.1895 -51.3901 -26.8756 1.09886 
44.6938 -26.8756 -4.1895 51.0122 -23.3564 -4.1895 51.0122 -26.8756 2.56906 
-61.9479 -19.5612 -4.1895 -58.7046 -19.5612 0.15573 55.6481 -19.5612 -4.1895 
58.3266 -16.284 -4.1895 58.3266 -19.5612 -0.327354 -65.4605 -12.2467 -4.1895 
-66.019 -7.06273 -4.1895 60.8914 -12.2467 -4.1895 -66.2439 -4.93226 -4.1895 
-66.019 -4.93226 -3.80705 64.7535 -4.93226 -4.1895 65.6411 -4.93226 -2.93384 
-66.1234 2.38219 -4.1895 -66.019 2.78285 -4.1895 -66.019 2.38219 -4.0155 
65.6225 2.38219 -4.1895 65.6411 2.38219 -4.16002 -64.2187 9.69664 -4.1895 
65.2994 9.69664 -4.1895 65.6411 9.69664 -3.35995 -60.4899 17.0111 -4.1895 
-58.7046 19.5539 -4.1895 -58.7046 17.0111 -1.61923 61.6675 17.0111 -4.1895 
58.3266 20.7124 -4.1895 -54.6323 24.3255 -4.1895 -51.3901 27.07 -4.1895 
-51.3901 24.3255 -0.362886 29.0688 31.5779 -4.1895 36.3833 30.4576 -4.1895 
43.6977 28.3206 -4.1895 52.9157 24.3255 -4.1895 51.0122 25.4729 -4.1895 
-44.5077 31.64 -4.1895 -44.0757 31.897 -4.1895 -44.0757 31.64 -3.69452 
-36.7612 35.0263 -4.1895 -36.7612 31.64 1.09742 -29.4468 36.8688 -4.1895 
-22.1323 38.6504 -4.1895 -14.8179 38.1245 -4.1895 -7.50343 37.1586 -4.1895 
-7.50343 31.64 3.03619 -0.188979 35.676 -4.1895 -0.188979 31.64 1.97877 
7.12547 35.0315 -4.1895 7.12547 31.64 1.9365 14.4399 34.8238 -4.1895 
14.4399 31.64 2.95238 28.838 31.64 -4.1895 21.7544 33.5788 -4.1895 
21.7544 31.64 1.20542 -44.0757 -30.3826 3.12495 -36.7612 -32.3294 3.12495 
-29.4468 -33.4036 3.12495 -22.1323 -33.6608 3.12495 -14.8179 -32.5558 3.12495 
-7.50343 -32.0426 3.12495 -0.188979 -31.9068 3.12495 7.12547 -31.9005 3.12495 
14.4399 -31.7842 3.12495 21.7544 -32.1487 3.12495 29.0688 -32.634 3.12495 
36.3833 -32.0048 3.12495 43.6977 -30.179 3.12495 51.0122 -27.1065 3.12495 
-49.553 -26.8756 3.12495 -51.3901 -25.2982 3.12495 -44.0757 -26.8756 6.33243 
-36.7612 -26.8756 9.49369 51.345 -26.8756 3.12495 51.0122 -26.8756 4.46186 
58.3266 -21.3462 3.12495 -56.2282 -19.5612 3.12495 -58.7046 -15.4631 3.12495 
-51.3901 -19.5612 6.52337 60.0912 -19.5612 3.12495 -60.4066 -12.2467 3.12495 
-58.7046 -12.2467 6.19363 -51.3901 -12.2467 7.85275 -44.0757 -12.2467 10.0344 
64.6469 -12.2467 3.12495 65.6411 -10.2754 3.12495 -60.9482 -4.93226 3.12495 
-58.7046 -4.93226 4.93029 -51.3901 -4.93226 8.5108 68.011 -4.93226 3.12495 
-60.9471 2.38219 3.12495 -58.7046 2.38219 4.93682 -51.3901 2.38219 8.41891 
68.4686 2.38219 3.12495 -58.8209 9.69664 3.12495 -58.7046 9.94521 3.12495 
-58.7046 9.69664 3.30471 -51.3901 9.69664 7.16605 -44.0757 9.69664 9.78087 
67.4927 9.69664 3.12495 65.6411 13.2423 3.12495 65.6411 9.69664 7.89823 
-54.7847 17.0111 3.12495 -51.3901 20.9607 3.12495 -51.3901 17.0111 5.44248 
-44.0757 17.0111 8.47233 -36.7612 17.0111 9.65269 63.4255 17.0111 3.12495 
58.3266 21.7089 3.12495 -47.5202 24.3255 3.12495 -44.0757 26.9615 3.12495 
-44.0757 24.3255 4.982 -36.7612 29.7231 3.12495 -36.7612 24.3255 7.22968 
-29.4468 24.3255 7.95696 -22.1323 24.3255 8.79937 -14.8179 24.3255 8.83892 
-7.50343 31.5328 3.12495 -7.50343 24.3255 7.77148 -0.188979 30.4196 3.12495 
-0.188979 24.3255 7.07593 7.12547 30.7127 3.12495 7.12547 24.3255 9.29107 
14.4399 31.5375 3.12495 14.4399 24.3255 10.2935 21.7544 30.8326 3.12495 
21.7544 24.3255 10.2058 29.0688 30.005 3.12495 36.3833 29.6392 3.12495 
36.3833 24.3255 10.1464 43.6977 27.8345 3.12495 43.6977 24.3255 10.4062 
53.9532 24.3255 3.12495 51.0122 26.0852 3.12495 51.0122 24.3255 6.52479 
-31.9551 31.64 3.12495 -29.4468 32.5764 3.12495 -29.4468 31.64 3.84764 
-22.1323 32.963 3.12495 -22.1323 31.64 4.31357 -7.98681 31.64 3.12495 
-14.8179 32.8404 3.12495 -14.8179 31.64 4.25286 -29.4468 -27.0538 10.4394 
-22.1323 -29.427 10.4394 -14.8179 -30.9231 10.4394 -7.50343 -31.4883 10.4394 
-0.188979 -31.7983 10.4394 7.12547 -32.0519 10.4394 14.4399 -31.9625 10.4394 
21.7544 -31.9619 10.4394 29.0688 -31.8345 10.4394 36.3833 -30.9922 10.4394 
43.6977 -29.3739 10.4394 -44.0757 -19.8032 10.4394 -30.5136 -26.8756 10.4394 
-36.7612 -23.5965 10.4394 -29.4468 -26.8756 10.5517 -22.1323 -26.8756 12.9546 
[...]
POINT_DATA 554
SCALARS ImageScalars float
LOOKUP_TABLE default
0 0 0 0 0 0 0 0 0 
0 0 0 0 0 0 0 0 0 
0 0 0 0 0 0 0 0 0 
0 0 0 0 0 0 0 0 0 
0 0 0 0 0 0 0 0 0 
0 0 0 0 0 0 0 0 0 
0 0 0 0 0 0 0 0 0 
0 0 0 0 0 0 0 0 0 
0 0 0 0 0 0 0 0 0 
0 0 0 0 0 0 0 0 0 
0 0 0 0 0 0 0 0 0 
0 0 0 0 0 0 0 0 0 
0 0 0 0 0 0 0 0 0 
0 0 0 0 0 0 0 0 0 
0 0 0 0 0 0 0 0 0 
0 0 0 0 0 0 0 0 0 
0 0 0 0 0 0 0 0 0 
0 0 0 0 0 0 0 0 0 
0 0 0 0 0 0 0 0 0 
0 0 0 0 0 0 0 0 0 
0 0 0 0 0 0 0 0 0 
0 0 0 0 0 0 0 0 0 
0 0 0 0 0 0 0 0 0 
0 0 0 0 0 0 0 0 0 
0 0 0 0 0 0 0 0 0 
0 0 0 0 0 0 0 0 0 
0 0 0 0 0 0 0 0 0 
0 0 0 0 0 0 0 0 0 
0 0 0 0 0 0 0 0 0 
0 0 0 0 0 0 0 0 0 
0 0 0 0 0 0 0 0 0 
0 0 0 0 0 0 0 0 0 
0 0 0 0 0 0 0 0 0 
0 0 0 0 0 0 0 0 0 
0 0 0 0 0 0 0 0 0 
0 0 0 0 0 0 0 0 0 
0 0 0 0 0 0 0 0 0 
0 0 0 0 0 0 0 0 0 
0 0 0 0 0 0 0 0 0 
0 0 0 0 0 0 0 0 0 
0 0 0 0 0 0 0 0 0 
0 0 0 0 0 0 0 0 0 
0 0 0 0 0 0 0 0 0 
0 0 0 0 0 0 0 0 0 
0 0 0 0 0 0 0 0 0 
0 0 0 0 0 0 0 0 0 
0 0 0 0 0 0 0 0 0 
0 0 0 0 0 0 0 0 0 
0 0 0 0 0 0 0 0 0 
0 0 0 0 0 0 0 0 0 
0 0 0 0 0 0 0 0 0 
0 0 0 0 0 0 0 0 0 
0 0 0 0 0 0 0 0 0 
0 0 0 0 0 0 0 0 0 
0 0 0 0 0 0 0 0 0 
0 0 0 0 0 0 0 0 0 
0 0 0 0 0 0 0 0 0 
0 0 0 0 0 0 0 0 0 
0 0 0 0 0 0 0 0 0 
0 0 0 0 0 0 0 0 0 
0 0 0 0 0 0 0 0 0 
0 0 0 0 0 
NORMALS Normals float
0.0412452 0.197694 0.979396 0.0291497 0.0537698 0.998128 0.0430667 -0.0162216 0.998941 
0.094312 -0.210422 0.973051 0.368505 0.701967 0.609464 0.104523 0.527031 0.843394 
-0.0898683 0.534729 0.840231 -0.175447 0.481832 0.85852 -0.238879 0.514814 0.823349 
0.612809 0.441296 0.655532 0.214405 0.249784 0.944266 0.0166111 0.236977 0.971373 
-0.000925618 0.282617 0.959233 -0.08515 0.249232 0.964693 -0.218095 0.266652 0.938792 
-0.225598 0.232691 0.946023 -0.232185 0.206294 0.950543 0.556766 0.237655 0.795947 
0.107098 0.0939805 0.989797 0.186793 -0.0217949 0.982157 -0.0660303 0.0858081 0.994121 
-0.118848 0.0227088 0.992653 -0.176879 0.075377 0.981342 -0.300764 0.0735205 0.950861 
-0.296786 0.0509035 0.953586 0.0554612 0.121884 0.990994 0.0225644 0.297042 0.954598 
0.0591023 0.254774 0.965193 0.0812395 0.207709 0.974811 -0.00399576 0.218311 0.975871 
-0.0957758 0.223748 0.96993 -0.133945 0.326824 0.935545 0.487095 0.023973 0.87302 
0.163475 0.0257481 0.986211 0.224726 2.66034e-05 0.974422 -0.197465 0.0240169 0.980016 
-0.208015 0.0225952 0.977865 -0.178539 -0.0415335 0.983056 -0.257212 -0.0102352 0.966301 
-0.149617 0.0430354 0.987807 -0.0547858 0.322846 0.944864 0.125568 0.0936066 0.987659 
0.12601 0.287652 0.949409 -0.0760941 0.204027 0.976003 -0.0122724 0.133913 0.990917 
0.0292507 0.134787 0.990443 -0.030022 0.1811 0.983006 -0.147302 0.164671 0.975287 
-0.280677 0.121847 0.952037 0.486977 -0.144935 0.861305 0.178446 -0.0767214 0.980954 
0.254426 -0.0853988 0.963314 -0.196401 -0.0258291 0.980183 -0.216476 -0.0226106 0.976026 
-0.210296 0.0133092 0.977547 -0.241522 0.0487911 0.969168 -0.0145262 0.136287 0.990563 
-0.00205975 0.114862 0.993379 0.0838818 0.258315 0.962412 0.094422 0.0205362 0.99532 
-0.0909659 -0.0178046 0.995695 0.0273268 0.0768721 0.996666 0.0384473 0.0938647 0.994842 
-0.0639633 0.0970041 0.993227 -0.179155 0.041347 0.982952 -0.246792 0.0529555 0.967621 
0.5619 -0.270283 0.781803 0.159904 -0.147901 0.97599 0.304984 -0.0494546 0.951073 
-0.0688124 -0.0961073 0.99299 0.0672309 -0.259766 0.963328 -0.137887 -0.0457115 0.989393 
-0.117048 0.0761856 0.9902 -0.129511 0.1715 0.976634 -0.0538578 0.25279 0.966021 
0.0313196 0.0735836 0.996797 -0.0133417 0.0967156 0.995223 -0.115459 -0.0905557 0.989176 
-0.0163282 -0.0269098 0.999505 0.0922842 0.00912897 0.995691 0.0532388 -0.0388136 0.997827 
-0.082067 -0.0549261 0.995112 -0.185464 -0.00955901 0.982605 -0.266374 -0.00835771 0.963834 
0.658429 -0.425217 0.621017 0.318737 -0.202598 0.925938 0.0522684 -0.309931 0.949321 
0.0553907 -0.0574429 0.996811 -0.000144461 0.00413815 0.999991 -0.0667295 0.137434 0.988261 
-0.0911825 0.118401 0.98877 -0.146414 0.0302448 0.988761 -0.100868 -0.0884901 0.990957 
-0.0393647 -0.0692651 0.996821 0.00676021 -0.0114778 0.999911 0.0134359 -0.112056 0.993611 
-0.0262813 -0.196275 0.980197 -0.0288767 -0.215886 0.975991 -0.161692 -0.25109 0.954363 
-0.371627 -0.309905 0.87513 0.485656 -0.603846 0.632067 0.247504 -0.355324 0.90138 
0.178803 -0.294553 0.938759 0.0848419 -0.161994 0.983138 -0.00608708 -0.123002 0.992388 
-0.165941 -0.124172 0.978287 -0.191839 -0.163935 0.967638 -0.120033 -0.18581 0.975227 
-0.0321711 -0.22199 0.974518 -0.0610495 -0.210684 0.975646 -0.0924143 -0.310247 0.946153 
-0.0980055 -0.428583 0.898171 -0.146888 -0.56944 0.808802 0.419917 -0.795004 0.437766 
0.27349 -0.662482 0.697367 0.158799 -0.496179 0.853574 -0.0272048 -0.517174 0.855448 
-0.119405 -0.477411 0.870529 -0.218999 -0.521939 0.82439 -0.183909 -0.582889 0.791466 
-0.107644 -0.633788 0.76598 0.381391 0.741477 0.552045 0.175299 0.784294 0.595108 
-0.0169872 0.7336 0.679369 0.0602601 0.993428 0.0973143 -0.193109 0.665831 0.720679 
-0.241811 0.52988 0.812868 0.456115 0.721301 0.521233 0.653101 0.574073 0.493861 
-0.240126 0.522295 0.818259 -0.233903 0.353566 0.905693 -0.250022 0.630263 0.735022 
-0.147104 0.699444 0.699384 -0.0551413 0.725349 0.686169 -0.0324165 0.703736 0.709722 
0.00642426 0.718359 0.695643 0.0500461 0.719419 0.692771 0.00254057 0.69573 0.718299 
-0.119207 0.693916 0.71012 -0.289709 0.734868 0.613219 0.76991 0.457954 0.444428 
-0.131693 0.204612 0.969944 -0.115793 0.206993 0.971466 0.0023422 0.20142 0.979502 
-0.0477221 0.290559 0.955666 0.00627808 0.305697 0.952108 -0.0205343 0.338169 0.940861 
0.0460441 0.301331 0.952407 0.030459 0.360909 0.932104 0.0402421 0.32389 0.945239 
0.0321307 0.364145 0.930788 -0.00482854 0.344941 0.938612 -0.00314789 0.368124 0.929771 
-0.116319 0.310072 0.943571 -0.124451 0.350839 0.928129 -0.147273 0.34315 0.927663 
-0.236298 0.417706 0.877317 -0.402718 0.532382 0.744572 0.812786 0.25929 0.521678 
-0.079777 0.0967629 0.992105 -0.0405548 0.104152 0.993734 -0.0616528 0.115234 0.991423 
-0.0618596 0.100363 0.993026 -0.249418 0.314275 0.915981 -0.322794 0.238362 0.915963 
-0.337962 0.303992 0.890714 -0.561808 0.369677 0.740074 0.860891 0.0659234 0.504501 
0.994194 0.0576866 0.0908342 -0.374885 0.161866 0.912831 -0.572774 0.245607 0.782053 
0.839818 -0.148869 0.522057 0.98504 -0.143375 -0.0956025 -0.449932 0.0803145 0.889444 
-0.567433 0.0927271 0.818182 0.761005 -0.295199 0.577693 -0.426868 -0.139196 0.893537 
-0.487739 -0.178362 0.854575 0.76647 -0.445569 0.462593 0.722647 -0.486364 0.491154 
-0.236477 -0.54208 0.806367 -0.467362 -0.346236 0.813445 -0.396295 -0.419029 0.816924 
-0.644759 -0.45676 0.612908 0.629079 -0.627087 0.459371 0.557352 -0.690429 0.461159 
-0.109217 -0.631724 0.767461 -0.169143 -0.572393 0.802344 -0.157267 -0.552752 0.818372 
-0.195148 -0.59345 0.780855 -0.156973 -0.607764 0.778449 -0.280546 -0.657835 0.698962 
-0.461778 -0.771605 0.437478 0.431934 -0.803263 0.410124 0.422487 -0.808269 0.410129 
0.31201 -0.784123 0.536471 0.179824 -0.891184 0.416478 0.0535745 -0.84071 0.538828 
-0.119085 -0.820497 0.559109 -0.229435 -0.734963 0.638113 -0.1872 -0.667082 0.721081 
-0.112014 -0.651574 0.750269 -0.110773 -0.645333 0.755827 -0.118516 -0.753769 0.646363 
-0.228814 -0.872421 0.431886 0.0668152 0.997444 0.0253214 0.546762 0.825761 -0.138453 
0.102077 0.994692 0.0129575 0.25183 0.967539 -0.021237 -0.0279118 0.99307 0.114159 
0.0872253 0.994806 -0.0524709 -0.0550772 0.988493 0.14088 -0.179359 0.94004 0.290096 
-0.256676 0.87579 0.408789 -0.149364 0.839146 0.522996 -0.0422629 0.829048 0.557578 
-0.0247346 0.801443 0.59756 -0.000630901 0.796634 0.604462 0.0502322 0.807996 0.587042 
0.0160481 0.804761 0.593383 -0.125739 0.7916 0.597963 -0.285222 0.763835 0.578968 
0.651177 0.738193 -0.176181 0.712095 0.667226 -0.218474 0.577633 0.709104 -0.404365 
-0.316332 0.744539 0.587874 -0.469127 0.624775 0.624161 -0.515262 0.844641 0.145214 
0.819635 0.549113 -0.163318 0.681557 0.551644 -0.480799 -0.562637 0.558107 0.609882 
-0.617594 0.47733 0.625086 -0.685785 0.638535 0.349245 0.94026 0.248349 -0.232884 
0.96287 0.100919 -0.250394 -0.653459 0.410416 0.636043 0.968095 0.0433377 -0.246809 
0.960674 0.0435844 -0.274235 -0.725138 0.238595 0.645947 -0.799085 0.25335 0.545231 
0.957628 -0.132794 -0.255568 0.955488 -0.14255 -0.258306 0.954305 -0.133405 -0.267403 
-0.790305 0.0199203 0.61239 -0.79207 0.0195606 0.610117 0.915444 -0.33164 -0.227985 
-0.807271 -0.247848 0.535616 -0.843037 -0.266737 0.467054 0.801741 -0.561996 -0.203402 
0.760105 -0.597504 -0.255401 0.717632 -0.566222 -0.405458 -0.740946 -0.464231 0.485272 
-0.600296 -0.676103 0.427235 0.693279 -0.673958 -0.255233 0.627931 -0.751981 -0.200567 
0.636296 -0.624194 -0.453332 -0.198454 -0.971394 0.13042 -0.217444 -0.954836 0.202501 
-0.307854 -0.92417 0.22613 -0.485804 -0.807391 0.334836 -0.462386 -0.82562 0.323342 
0.457501 -0.862058 -0.218054 0.448818 -0.865246 -0.22341 0.441585 -0.862156 -0.248375 
0.331601 -0.917092 -0.221322 0.303846 -0.810656 -0.500513 0.229181 -0.962119 -0.147661 
0.0911467 -0.973344 -0.210462 -0.0937012 -0.975841 -0.197369 -0.17009 -0.96758 -0.186706 
-0.108421 -0.666093 -0.737946 -0.148452 -0.982474 -0.112726 -0.0571665 -0.731787 -0.679131 
-0.0583084 -0.996742 -0.0557323 0.0326194 -0.818505 -0.573572 -0.0978068 -0.994959 0.0221408 
-0.00540771 -0.812042 -0.583574 -0.198709 -0.97183 0.126734 -0.223708 -0.974107 0.0327119 
-0.127897 -0.930655 -0.342816 0.363925 0.734403 -0.572896 0.202791 0.834644 -0.512099 
0.0709541 0.953029 -0.29445 -0.060601 0.973273 -0.221512 -0.103794 0.994303 -0.0242727 
-0.0447127 0.991355 0.123352 -0.00937953 0.984906 0.172838 -0.00806171 0.980734 0.195181 
0.0167253 0.978554 0.20531 0.0571668 0.981069 0.185029 -0.0156002 0.990982 0.133084 
-0.152114 0.984757 0.0843495 -0.328831 0.93659 0.121112 -0.510636 0.853085 0.10722 
0.514974 0.663654 -0.542553 0.561229 0.611217 -0.558065 0.315904 0.541568 -0.779044 
0.272246 0.495838 -0.824637 -0.518229 0.848167 0.109776 -0.527371 0.849401 0.0199401 
-0.693074 0.710192 0.123595 0.576376 0.447689 -0.683641 0.649568 0.388362 -0.653633 
0.444996 0.251342 -0.859538 -0.747123 0.653149 0.123304 0.696783 0.227355 -0.680296 
0.590259 0.153701 -0.792446 0.256528 0.158623 -0.953432 0.272829 0.00703533 -0.962037 
-0.874747 0.473947 0.100954 -0.908041 0.409303 0.089067 0.602953 0.0318494 -0.79714 
0.528874 -0.0385778 -0.847823 0.398252 0.0320103 -0.916717 -0.97059 0.233174 0.0598731 
0.608185 -0.120421 -0.784608 0.526059 -0.0561657 -0.848591 0.400484 -0.0819447 -0.912632 
-0.998592 -0.0285824 0.0446804 0.675078 -0.325436 -0.662088 0.670335 -0.335182 -0.662046 
0.669572 -0.323363 -0.668663 0.349573 -0.205511 -0.914092 0.257724 -0.116139 -0.959213 
-0.947127 -0.318348 -0.0400673 -0.900325 -0.431294 -0.0583142 -0.866262 -0.386542 -0.316506 
0.521363 -0.434058 -0.734694 0.551059 -0.457523 -0.697859 0.446843 -0.325282 -0.83338 
0.292881 -0.319454 -0.901205 0.122208 -0.251906 -0.960005 -0.801233 -0.593181 -0.0784961 
-0.567411 -0.811833 -0.137739 0.467691 -0.520628 -0.714291 0.332965 -0.601782 -0.725942 
0.325031 -0.476031 -0.817159 0.258586 -0.711456 -0.653425 0.202763 -0.420782 -0.884211 
0.0905188 -0.412839 -0.906295 0.0569375 -0.410307 -0.910168 -0.0624079 -0.444469 -0.893618 
-0.107278 -0.659593 -0.743928 -0.105179 -0.506334 -0.855899 -0.0318072 -0.643342 -0.764918 
0.0628643 -0.550222 -0.832649 0.0576915 -0.744047 -0.665632 0.185034 -0.624421 -0.758855 
-0.00206913 -0.802434 -0.596737 0.0435513 -0.596289 -0.801588 -0.0843945 -0.869564 -0.486556 
0.0237946 -0.621138 -0.78334 -0.0695844 -0.916446 -0.394063 -0.14997 -0.92675 -0.344446 
-0.0230396 -0.761988 -0.647181 -0.205196 -0.946133 -0.250455 -0.109403 -0.797507 -0.593307 
-0.444501 -0.877999 -0.177584 -0.380045 -0.906008 -0.186317 -0.368339 -0.847851 -0.381411 
0.196467 -0.677973 -0.708346 0.160735 -0.648777 -0.743809 0.139265 -0.62202 -0.770517 
0.0114645 -0.666749 -0.745194 0.0240743 -0.630142 -0.776106 -0.104623 -0.66107 -0.742994 
-0.0719225 -0.676196 -0.733202 -0.0677749 -0.632699 -0.771426 0.178496 0.460182 -0.869696 
0.196752 0.709379 -0.676809 0.123769 0.899613 -0.418782 0.0581513 0.951157 -0.303183 
0.0391794 0.962823 -0.267276 0.0109101 0.974303 -0.224978 -0.00603712 0.980804 -0.194901 
-0.00845825 0.971648 -0.236279 -0.0624825 0.943047 -0.326739 -0.163398 0.915802 -0.366889 
-0.330248 0.881709 -0.336936 0.330124 0.235041 -0.914207 0.192685 0.454282 -0.86977 
0.231409 0.354618 -0.905923 0.180544 0.450479 -0.874341 0.299551 0.562517 -0.770613 
0.223681 0.60852 -0.761361 0.0725247 0.583845 -0.808619 0.0638224 0.551557 -0.831692 
-0.139941 0.645055 -0.751212 -0.1231 0.672168 -0.730093 -0.489555 0.78152 -0.386732 
-0.321497 0.722682 -0.611858 -0.529094 0.73874 -0.41752 -0.635697 0.644197 -0.425324 
0.332949 0.225916 -0.915482 0.318785 0.176023 -0.931339 0.330684 0.226214 -0.916229 
0.179731 0.193892 -0.964418 0.278983 0.197069 -0.939857 0.368736 0.17594 -0.912731 
-0.414741 0.475477 -0.775829 -0.649516 0.631702 -0.423181 -0.63293 0.630208 -0.449709 
0.265016 0.0110931 -0.96418 0.237884 0.0265216 -0.970931 0.239285 0.0497692 -0.969673 
0.258333 0.0325509 -0.965507 0.35018 0.0106305 -0.936622 -0.794198 0.406818 -0.451386 
-0.567633 0.357129 -0.74179 -0.84122 0.245309 -0.481843 0.241594 0.0346646 -0.969758 
0.226068 0.034942 -0.973485 0.190992 -0.0333024 -0.981026 0.244931 -0.0460688 -0.968445 
0.327323 -0.0719382 -0.94217 0.0255466 -0.271282 -0.962161 -0.85254 0.199328 -0.483161 
-0.826935 0.197335 -0.526533 0.223635 -0.058032 -0.972944 0.220206 -0.0615277 -0.973511 
0.216789 -0.0572592 -0.974538 0.168035 -0.0342456 -0.985186 0.198827 -0.0765165 -0.977043 
0.260077 -0.191691 -0.946369 0.00898725 -0.255941 -0.966651 -0.00559533 -0.216385 -0.976292 
0.217835 -0.306821 -0.926504 -0.848737 -0.0870015 -0.521609 -0.821713 -0.235408 -0.51901 
-0.805668 -0.0789005 -0.587089 0.225418 -0.127822 -0.965841 0.141091 -0.207571 -0.967991 
0.178071 -0.152418 -0.972142 0.103627 -0.170341 -0.979921 0.134375 -0.241171 -0.961135 
0.0897755 -0.316357 -0.944383 0.00185598 -0.190514 -0.981683 0.0761749 -0.294106 -0.952732 
0.145328 -0.27833 -0.949427 0.165129 -0.329078 -0.929753 -0.757025 -0.385415 -0.527607 
-0.451001 -0.383677 -0.805847 0.114429 -0.278002 -0.95374 0.113608 -0.283609 -0.952187 
0.114348 -0.280528 -0.95301 0.0834002 -0.320916 -0.943429 0.0970165 -0.275387 -0.956426 
-0.00976902 -0.392919 -0.919521 0.0534157 -0.3505 -0.935038 -0.0521183 -0.470334 -0.880948 
-0.00772543 -0.426823 -0.904302 0.117748 -0.501326 -0.85721 0.119582 -0.458315 -0.880709 
0.187914 -0.5847 -0.789186 0.138134 -0.371045 -0.918284 0.0429363 -0.58793 -0.807771 
0.049793 -0.378585 -0.924226 0.0286432 -0.610801 -0.791266 0.0881065 -0.459013 -0.88405 
0.115055 -0.499331 -0.858738 -0.0188464 -0.751772 -0.659153 0.0176275 -0.497143 -0.867489 
-0.108879 -0.796059 -0.595345 -0.0998061 -0.501023 -0.85966 -0.302268 -0.733894 -0.608304 
-0.231481 -0.540974 -0.808556 -0.603765 -0.552687 -0.574461 -0.537682 -0.623452 -0.567631 
-0.529286 -0.537465 -0.656497 0.0153986 -0.646948 -0.762379 -0.0117942 -0.730033 -0.68331 
-0.00181618 -0.697035 -0.717035 0.00303217 -0.687037 -0.726616 0.0765402 0.60698 -0.791023 
0.0197004 0.67102 -0.741177 -0.0775586 0.660493 -0.746816 0.24529 0.339068 -0.908221 
0.0731325 0.457468 -0.886214 0.0684471 0.553186 -0.830241 0.0657365 0.513246 -0.855721 
0.0798801 0.578055 -0.812079 0.0227218 0.596983 -0.801932 -0.127994 0.632337 -0.764047 
-0.07264 0.609677 -0.789314 -0.139351 0.615497 -0.775722 -0.122218 0.528408 -0.840147 
-0.256287 0.451209 -0.854826 0.294243 0.162105 -0.941883 0.247081 0.161183 -0.955495 
0.0741705 0.136118 -0.987912 0.0837029 0.12123 -0.989089 0.111227 0.136375 -0.984393 
0.0455845 0.159524 -0.986141 -0.040192 0.208062 -0.97729 -0.0936839 0.244683 -0.965066 
-0.124108 0.351808 -0.927808 -0.329117 0.402697 -0.854118 -0.239243 0.350721 -0.905405 
-0.366815 0.332976 -0.868662 0.280882 -0.0105949 -0.959684 0.206357 -0.0326687 -0.977931 
0.025804 -0.267748 -0.963143 0.0310987 -0.130623 -0.990944 0.079313 -0.0827421 -0.99341 
0.132336 -0.109073 -0.985185 0.0968621 -0.0748823 -0.992477 0.0271463 -0.0032703 -0.999626 
-0.00792553 0.0756034 -0.997106 -0.0769646 0.118821 -0.989928 -0.206973 0.169511 -0.96355 
-0.377536 0.250922 -0.89135 -0.324391 0.215373 -0.921078 -0.487918 0.176301 -0.8549 
0.161794 -0.123828 -0.979025 0.030864 -0.262621 -0.964405 0.0652034 -0.187903 -0.980021 
0.101807 -0.142297 -0.984574 0.0290377 -0.266403 -0.963424 0.17865 -0.253638 -0.950659 
0.107508 -0.149172 -0.98295 0.119411 -0.144016 -0.982344 0.151955 -0.141633 -0.978187 
0.111248 -0.0911259 -0.989606 0.0394765 -0.0326545 -0.998687 -0.0235798 -0.0111057 -0.99966 
-0.121359 0.0369618 -0.99192 -0.261938 0.0854524 -0.961294 -0.497799 0.143413 -0.855353 
-0.480307 0.141141 -0.86567 0.180632 -0.279623 -0.942965 0.141202 -0.253495 -0.956976 
0.135395 -0.243652 -0.960366 0.161173 -0.298237 -0.940786 0.146398 -0.242954 -0.958927 
0.138538 -0.218457 -0.965963 0.0708636 -0.177761 -0.981519 -0.0127005 -0.127594 -0.991745 
-0.105477 -0.157 -0.98195 -0.236402 -0.148001 -0.960317 -0.481559 -0.139762 -0.865198 
-0.465539 -0.174294 -0.867695 -0.471216 -0.14268 -0.870401 0.163195 -0.354425 -0.920734 
0.149952 -0.376174 -0.914335 0.160491 -0.364025 -0.917458 0.127561 -0.42528 -0.896027 
0.129948 -0.365759 -0.921593 0.0167777 -0.443142 -0.896295 0.000667647 -0.329671 -0.944096 
-0.124043 -0.395925 -0.909867 -0.134877 -0.322391 -0.936948 -0.23799 -0.315833 -0.918483 
-0.225319 -0.320343 -0.920115 -0.221532 -0.303204 -0.926817 
