# vtk DataFile Version 4.2
vtk output
ASCII
DATASET POLYDATA
POINTS 540 float
-49.5939 -5.56015 -22.1897 -41.071 -5.56015 -21.4918 -49.5939 2.96272 -22.0979 
-15.5024 -39.6516 -13.7269 -6.97957 -39.6516 -15.6414 1.54329 -39.6516 -16.5724 
10.0662 -39.6516 -16.6557 18.589 -39.6516 -15.6995 -24.0253 -31.1287 -14.6869 
-15.5024 -31.1287 -16.9679 -6.97957 -31.1287 -18.5222 1.54329 -31.1287 -19.3688 
10.0662 -31.1287 -19.2293 18.589 -31.1287 -18.5291 27.1119 -31.1287 -17.0713 
35.6348 -31.1287 -15.3197 -49.5939 -22.6059 -15.0796 -41.071 -22.6059 -16.6748 
-32.5482 -22.6059 -17.0049 -24.0253 -22.6059 -17.3757 -15.5024 -22.6059 -17.9955 
-6.97957 -22.6059 -19.1168 1.54329 -22.6059 -19.4655 10.0662 -22.6059 -19.388 
18.589 -22.6059 -18.5588 27.1119 -22.6059 -18.099 35.6348 -22.6059 -17.9216 
44.1576 -22.6059 -15.9698 52.6805 -22.6059 -13.4933 -66.6396 -14.083 -14.8393 
-58.1168 -14.083 -19.0738 -49.5939 -8.79464 -21.4494 -49.5939 -14.083 -19.9193 
-41.071 -5.83418 -21.4494 -41.071 -14.083 -20.1377 -32.5482 -14.083 -19.9231 
-24.0253 -14.083 -19.2891 -15.5024 -14.083 -18.6813 -6.97957 -14.083 -18.9803 
1.54329 -14.083 -18.8131 10.0662 -14.083 -18.1475 18.589 -14.083 -18.247 
27.1119 -14.083 -18.6038 35.6348 -14.083 -18.3064 44.1576 -14.083 -17.7559 
52.6805 -14.083 -16.3442 -66.6396 -5.56015 -16.4673 -52.3169 -5.56015 -21.4494 
-58.1168 -5.56015 -19.544 -40.7146 -5.56015 -21.4494 -41.071 -4.53655 -21.4494 
-32.5482 -5.56015 -20.4816 -24.0253 -5.56015 -19.4467 -15.5024 -5.56015 -18.6768 
-6.97957 -5.56015 -19.3397 1.54329 -5.56015 -17.1606 10.0662 -5.56015 -18.9459 
18.589 -5.56015 -19.72 27.1119 -5.56015 -18.9468 35.6348 -5.56015 -18.5806 
44.1576 -5.56015 -18.2678 52.6805 -5.56015 -16.5296 61.2034 -5.56015 -13.5065 
-66.6396 2.96272 -16.1068 -51.4531 2.96272 -21.4494 -58.1168 2.96272 -19.5767 
-43.937 2.96272 -21.4494 -49.5939 6.23557 -21.4494 -41.071 2.96272 -21.1402 
-32.5482 2.96272 -20.0474 -24.0253 2.96272 -18.3541 -15.5024 2.96272 -17.0286 
-6.97957 2.96272 -20.6426 1.54329 2.96272 -15.4867 10.0662 2.96272 -17.8921 
18.589 2.96272 -19.6761 27.1119 2.96272 -18.1809 35.6348 2.96272 -17.6143 
44.1576 2.96272 -16.9633 52.6805 2.96272 -16.1392 -66.6396 11.4856 -13.941 
-58.1168 11.4856 -18.2112 -49.5939 11.4856 -20.3877 -41.071 11.4856 -20.3165 
-32.5482 11.4856 -19.8047 -24.0253 11.4856 -18.802 -15.5024 11.4856 -17.2242 
-6.97957 11.4856 -15.4028 1.54329 11.4856 -16.3192 10.0662 11.4856 -17.6273 
18.589 11.4856 -17.9613 27.1119 11.4856 -16.8025 35.6348 11.4856 -16.3258 
44.1576 11.4856 -15.2576 52.6805 11.4856 -13.8034 -58.1168 20.0085 -14.7781 
-49.5939 20.0085 -17.7917 -41.071 20.0085 -20.9337 -32.5482 20.0085 -20.1211 
-24.0253 20.0085 -19.415 -15.5024 20.0085 -17.5119 -6.97957 20.0085 -14.432 
1.54329 20.0085 -15.4453 10.0662 20.0085 -17.5304 18.589 20.0085 -17.2311 
27.1119 20.0085 -15.9878 35.6348 20.0085 -14.916 44.1576 20.0085 -13.772 
52.6805 20.0085 -13.4187 -49.5939 28.5313 -14.1181 -41.071 28.5313 -17.669 
-32.5482 28.5313 -18.6635 -24.0253 28.5313 -18.2346 -15.5024 28.5313 -16.4078 
-6.97957 28.5313 -14.8957 1.54329 28.5313 -15.1209 10.0662 28.5313 -15.9638 
18.589 28.5313 -15.3369 27.1119 28.5313 -14.023 -32.5482 37.0542 -13.6818 
-24.0253 37.0542 -14.4439 -15.5024 -40.717 -12.9266 -6.97957 -43.1534 -12.9266 
1.54329 -44.0473 -12.9266 1.54329 -48.1745 -4.44173 10.0662 -43.8921 -12.9266 
18.589 -42.4147 -12.9266 -18.0094 -39.6516 -12.9266 -24.0253 -35.1911 -12.9266 
-24.0253 -39.6516 -10.2376 26.7316 -39.6516 -12.9266 27.1119 -39.4219 -12.9266 
27.1119 -39.6516 -12.7061 35.6348 -34.8208 -12.9266 35.6348 -39.6516 -6.70072 
-49.5939 -25.2811 -12.9266 -49.5939 -31.1287 -5.90495 -41.071 -27.3678 -12.9266 
-41.071 -31.1287 -9.30547 -31.5065 -31.1287 -12.9266 -32.5482 -30.6468 -12.9266 
-32.5482 -31.1287 -12.6355 42.0075 -31.1287 -12.9266 44.1576 -29.2437 -12.9266 
44.1576 -31.1287 -11.7398 52.6805 -24.1389 -12.9266 52.6805 -31.1287 -8.78032 
-66.6396 -16.4717 -12.9266 -57.6162 -22.6059 -12.9266 -58.1168 -22.4204 -12.9266 
-58.1168 -22.6059 -12.6929 54.7308 -22.6059 -12.9266 61.2034 -22.6059 -10.6733 
-69.0954 -14.083 -12.9266 60.5767 -14.083 -12.9266 61.2034 -11.4267 -12.9266 
61.2034 -14.083 -12.6339 69.7262 -14.083 -7.19331 -70.9042 -5.56015 -12.9266 
-75.1625 -5.56015 -5.72996 62.7084 -5.56015 -12.9266 61.2034 2.89519 -12.9266 
69.7262 -5.56015 -9.95635 -70.6522 2.96272 -12.9266 -75.1625 2.96272 -5.84006 
61.1911 2.96272 -12.9266 61.2034 2.96272 -12.9222 69.7262 2.96272 -9.20619 
-67.8201 11.4856 -12.9266 -66.6396 13.2979 -12.9266 57.5303 11.4856 -12.9266 
61.2034 11.4856 -12.085 69.7262 11.4856 -6.18825 -60.9236 20.0085 -12.9266 
-58.1168 22.9248 -12.9266 35.6348 27.4868 -12.9266 44.1576 22.0124 -12.9266 
53.7998 20.0085 -12.9266 52.6805 21.011 -12.9266 61.2034 20.0085 -8.73307 
-51.616 28.5313 -12.9266 -49.5939 29.8583 -12.9266 -41.071 35.1803 -12.9266 
-15.5024 36.9615 -12.9266 -6.97957 34.3703 -12.9266 1.54329 35.0371 -12.9266 
10.0662 35.8435 -12.9266 18.589 34.0496 -12.9266 33.7906 28.5313 -12.9266 
27.1119 30.8087 -12.9266 35.6348 28.5313 -12.604 44.1576 28.5313 -10.0741 
52.6805 28.5313 -7.9205 -35.0522 37.0542 -12.9266 -41.071 37.0542 -8.62161 
-32.5482 37.7412 -12.9266 -15.7422 37.0542 -12.9266 -24.0253 38.4971 -12.9266 
-15.5024 37.0542 -12.8664 -6.97957 37.0542 -11.8222 1.54329 37.0542 -12.1684 
10.0662 37.0542 -12.366 18.589 37.0542 -11.4084 27.1119 37.0542 -9.4035 
35.6348 37.0542 -7.2881 44.1576 37.0542 -4.8833 10.0662 45.5771 -4.60086 
1.54329 -48.1881 -4.40371 -24.0253 -43.9158 -4.40371 -15.5024 -47.033 -4.40371 
1.00017 -48.1745 -4.40371 -6.97957 -47.9696 -4.40371 1.67036 -48.1745 -4.40371 
1.54329 -48.1745 -4.29808 10.0662 -47.2785 -4.40371 18.589 -45.7882 -4.40371 
27.1119 -43.6179 -4.40371 35.6348 -40.9444 -4.40371 -49.5939 -31.852 -4.40371 
-41.071 -35.1689 -4.40371 -32.5446 -39.6516 -4.40371 -32.5482 -39.6495 -4.40371 
-32.5482 -39.6516 -4.39282 38.6138 -39.6516 -4.40371 44.1576 -37.0856 -4.40371 
52.6805 -33.6379 -4.40371 -50.956 -31.1287 -4.40371 -58.1168 -26.6458 -4.40371 
56.7724 -31.1287 -4.40371 61.2034 -27.955 -4.40371 -64.534 -22.6059 -4.40371 
-66.6396 -21.0074 -4.40371 67.6158 -22.6059 -4.40371 69.7262 -19.2097 -4.40371 
-73.0418 -14.083 -4.40371 -75.1625 -7.59223 -4.40371 72.0902 -14.083 -4.40371 
-75.6791 -5.56015 -4.40371 -75.1625 -5.56015 -2.64056 74.6312 -5.56015 -4.40371 
-75.7338 2.96272 -4.40371 -75.1625 4.82815 -4.40371 -75.1625 2.96272 -2.41538 
74.562 2.96272 -4.40371 -73.1235 11.4856 -4.40371 -66.6396 19.9435 -4.40371 
71.549 11.4856 -4.40371 69.7262 14.9609 -4.40371 -66.5779 20.0085 -4.40371 
-58.1168 27.8501 -4.40371 66.7179 20.0085 -4.40371 61.2034 25.7501 -4.40371 
69.7262 20.0085 3.92122 -57.2248 28.5313 -4.40371 -49.5939 34.0488 -4.40371 
57.9165 28.5313 -4.40371 52.6805 32.2928 -4.40371 61.2034 28.5313 2.64107 
-43.9284 37.0542 -4.40371 -41.071 38.5639 -4.40371 -32.5482 40.8796 -4.40371 
-24.0253 41.9803 -4.40371 -15.5024 42.3225 -4.40371 -6.97957 43.4612 -4.40371 
1.54329 45.0549 -4.40371 18.589 44.5846 -4.40371 27.1119 42.2905 -4.40371 
35.6348 39.565 -4.40371 44.9086 37.0542 -4.40371 44.1576 37.4565 -4.40371 
8.1349 45.5771 -4.40371 1.54329 45.5771 -1.74075 11.3184 45.5771 -4.40371 
10.0662 45.7136 -4.40371 18.589 45.5771 -1.797 -32.5482 -41.0077 4.11916 
-24.0253 -44.5658 4.11916 -15.5024 -46.4725 4.11916 -6.97957 -46.9545 4.11916 
1.54329 -46.9212 4.11916 10.0662 -45.5647 4.11916 18.589 -43.8593 4.11916 
27.1119 -42.2205 4.11916 35.6348 -40.0524 4.11916 -49.5939 -31.927 4.11916 
-35.1154 -39.6516 4.11916 -41.071 -36.4657 4.11916 -32.5482 -39.6516 6.98351 
-24.0253 -39.6516 12.0057 1.54329 -39.6516 12.1493 10.0662 -39.6516 11.2325 
18.589 -39.6516 9.41818 27.1119 -39.6516 7.66018 36.6912 -39.6516 4.11916 
35.6348 -39.6516 4.7687 44.1576 -36.5409 4.11916 52.6805 -33.0921 4.11916 
-50.9355 -31.1287 4.11916 -58.1168 -26.0999 4.11916 -49.5939 -31.1287 5.8018 
44.1576 -31.1287 10.2012 56.0865 -31.1287 4.11916 52.6805 -31.1287 7.02506 
61.2034 -27.7759 4.11916 -62.5328 -22.6059 4.11916 -66.6396 -18.5975 4.11916 
-58.1168 -22.6059 9.31213 52.6805 -22.6059 12.3247 68.0119 -22.6059 4.11916 
61.2034 -22.6059 9.79663 69.7262 -20.1918 4.11916 -70.4564 -14.083 4.11916 
-66.6396 -14.083 8.45177 72.5588 -14.083 4.11916 69.7262 -14.083 7.65213 
-72.504 -5.56015 4.11916 -66.6396 -5.56015 10.8292 76.0004 -5.56015 4.11916 
69.7262 -5.56015 11.9361 -73.2156 2.96272 4.11916 -66.6396 2.96272 11.6449 
75.7745 2.96272 4.11916 69.7262 2.96272 12.1931 -71.1325 11.4856 4.11916 
-66.6396 17.627 4.11916 -66.6396 11.4856 9.43415 74.0046 11.4856 4.11916 
69.7262 11.4856 10.6099 -64.3244 20.0085 4.11916 -58.1168 26.1302 4.11916 
-58.1168 20.0085 11.4333 69.7842 20.0085 4.11916 69.7262 20.0858 4.11916 
69.7262 20.0085 4.21932 -55.3877 28.5313 4.11916 -49.5939 32.8878 4.11916 
-49.5939 28.5313 10.2825 52.6805 35.0465 4.11916 52.6805 28.5313 12.3116 
61.7738 28.5313 4.11916 61.2034 29.0694 4.11916 61.2034 28.5313 5.0153 
-41.5387 37.0542 4.11916 -41.071 37.2811 4.11916 -41.071 37.0542 4.63872 
-32.5482 40.0992 4.11916 -32.5482 37.0542 11.4094 -24.0253 41.7329 4.11916 
-15.5024 42.8782 4.11916 -6.97957 44.8698 4.11916 27.1119 45.5019 4.11916 
35.6348 42.9819 4.11916 48.9049 37.0542 4.11916 44.1576 39.4336 4.11916 
44.1576 37.0542 8.2787 -3.58128 45.5771 4.11916 1.54329 46.6749 4.11916 
1.54329 45.5771 7.28432 10.0662 47.7795 4.11916 10.0662 45.5771 11.5275 
26.7681 45.5771 4.11916 18.589 47.3086 4.11916 18.589 45.5771 9.65789 
-15.5024 -40.0633 12.642 -6.97957 -39.8087 12.642 -41.071 -31.7346 12.642 
-32.5482 -35.8625 12.642 -19.1274 -39.6516 12.642 -24.0253 -39.0035 12.642 
-15.5024 -39.6516 12.961 -5.19446 -39.6516 12.642 -6.97957 -39.6516 12.762 
1.54329 -38.6733 12.642 10.0662 -37.0315 12.642 18.589 -35.3545 12.642 
27.1119 -33.8378 12.642 35.6348 -31.9905 12.642 -42.1197 -31.1287 12.642 
-49.5939 -25.2446 12.642 -41.071 -31.1287 13.152 -32.5482 -31.1287 16.0995 
-24.0253 -31.1287 17.12 -15.5024 -31.1287 16.8159 -6.97957 -31.1287 16.433 
[...]
POINT_DATA 540
SCALARS ImageScalars float
LOOKUP_TABLE default
0 0 0 0 0 0 0 0 0 
0 0 0 0 0 0 0 0 0 
0 0 0 0 0 0 0 0 0 
0 0 0 0 0 0 0 0 0 
0 0 0 0 0 0 0 0 0 
0 0 0 0 0 0 0 0 0 
0 0 0 0 0 0 0 0 0 
0 0 0 0 0 0 0 0 0 
0 0 0 0 0 0 0 0 0 
0 0 0 0 0 0 0 0 0 
0 0 0 0 0 0 0 0 0 
0 0 0 0 0 0 0 0 0 
0 0 0 0 0 0 0 0 0 
0 0 0 0 0 0 0 0 0 
0 0 0 0 0 0 0 0 0 
0 0 0 0 0 0 0 0 0 
0 0 0 0 0 0 0 0 0 
0 0 0 0 0 0 0 0 0 
0 0 0 0 0 0 0 0 0 
0 0 0 0 0 0 0 0 0 
0 0 0 0 0 0 0 0 0 
0 0 0 0 0 0 0 0 0 
0 0 0 0 0 0 0 0 0 
0 0 0 0 0 0 0 0 0 
0 0 0 0 0 0 0 0 0 
0 0 0 0 0 0 0 0 0 
0 0 0 0 0 0 0 0 0 
0 0 0 0 0 0 0 0 0 
0 0 0 0 0 0 0 0 0 
0 0 0 0 0 0 0 0 0 
0 0 0 0 0 0 0 0 0 
0 0 0 0 0 0 0 0 0 
0 0 0 0 0 0 0 0 0 
0 0 0 0 0 0 0 0 0 
0 0 0 0 0 0 0 0 0 
0 0 0 0 0 0 0 0 0 
0 0 0 0 0 0 0 0 0 
0 0 0 0 0 0 0 0 0 
0 0 0 0 0 0 0 0 0 
0 0 0 0 0 0 0 0 0 
0 0 0 0 0 0 0 0 0 
0 0 0 0 0 0 0 0 0 
0 0 0 0 0 0 0 0 0 
0 0 0 0 0 0 0 0 0 
0 0 0 0 0 0 0 0 0 
0 0 0 0 0 0 0 0 0 
0 0 0 0 0 0 0 0 0 
0 0 0 0 0 0 0 0 0 
0 0 0 0 0 0 0 0 0 
0 0 0 0 0 0 0 0 0 
0 0 0 0 0 0 0 0 0 
0 0 0 0 0 0 0 0 0 
0 0 0 0 0 0 0 0 0 
0 0 0 0 0 0 0 0 0 
0 0 0 0 0 0 0 0 0 
0 0 0 0 0 0 0 0 0 
0 0 0 0 0 0 0 0 0 
0 0 0 0 0 0 0 0 0 
0 0 0 0 0 0 0 0 0 
0 0 0 0 0 0 0 0 0 

NORMALS Normals float
0.100195 0.109012 0.988978 -0.105603 0.0560607 0.992827 0.112184 -0.102535 0.988383 
0.248454 0.518506 0.818182 0.153466 0.506443 0.848507 0.055617 0.511416 0.857531 
-0.0420159 0.525624 0.849679 -0.209612 0.582414 0.785402 0.23754 0.348828 0.906584 
0.21361 0.230269 0.949393 0.130961 0.180263 0.974861 0.0432841 0.153735 0.987164 
-0.0467506 0.14098 0.988908 -0.119036 0.13421 0.983778 -0.190941 0.270235 0.943671 
-0.23476 0.416133 0.878477 0.19069 0.595866 0.780116 0.0844638 0.496056 0.864173 
0.0381049 0.399338 0.916012 0.0549209 0.24865 0.967035 0.0998286 0.0963911 0.990325 
0.0854212 0.0276795 0.99596 0.0159486 -0.03301 0.999328 -0.0531616 -0.0624853 0.996629 
-0.0769711 -0.0170384 0.996888 -0.0367313 0.0824485 0.995918 -0.120438 0.179737 0.976314 
-0.223791 0.278525 0.933992 -0.278006 0.328975 0.90249 0.511949 0.446189 0.734046 
0.273718 0.311792 0.90987 0.0749834 0.190038 0.978909 0.0487739 0.348697 0.935966 
-0.102879 0.0623065 0.992741 -0.00086487 0.257632 0.966243 -0.0484295 0.18129 0.982236 
-0.0734421 0.116917 0.990422 -0.0174617 0.0392454 0.999077 0.0077396 0.0128146 0.999888 
-0.047885 -0.122175 0.991353 -0.0333405 -0.0278604 0.999056 0.0265847 0.0626739 0.99768 
0.0035872 0.0492612 0.998779 -0.0483426 0.0365875 0.99816 -0.109199 0.131672 0.98526 
-0.277243 0.147834 0.949358 0.540615 0.0700434 0.838349 0.156834 0.0678852 0.985289 
0.296196 0.0217048 0.95488 -0.10651 0.0540646 0.992841 -0.107348 0.0411932 0.993368 
-0.118948 0.00700433 0.992876 -0.10567 -0.0545123 0.992906 -0.00683068 -0.0987431 0.99509 
-0.0748485 0.0938301 0.992771 -0.0278879 -0.18611 0.982133 0.139922 -0.00915787 0.99012 
-0.00159777 0.0874156 0.996171 -0.0638237 -0.0218738 0.997721 -0.0394861 -0.0403261 0.998406 
-0.122762 -0.0476631 0.991291 -0.262687 -0.011428 0.964813 -0.332868 0.0125802 0.942889 
0.528162 -0.125594 0.839804 0.148265 -0.101218 0.983754 0.27185 -0.0677644 0.959951 
-0.0417925 -0.0829236 0.995679 0.116019 -0.163385 0.979717 -0.115763 -0.0681021 0.990939 
-0.160886 -0.0391993 0.986194 -0.175596 -0.0375997 0.983744 0.122191 -0.0877967 0.988616 
-0.00635066 -0.143628 0.989611 -0.192062 -0.0554828 0.979813 0.224752 -0.0832737 0.970851 
0.0112105 -0.106012 0.994302 -0.119998 -0.127604 0.984539 -0.0691381 -0.13624 0.98826 
-0.0829962 -0.172359 0.981532 -0.22381 -0.149017 0.963173 0.57336 -0.328657 0.750495 
0.313424 -0.250278 0.916038 0.120079 -0.245033 0.96205 -0.0338491 -0.0164035 0.999292 
-0.0882894 0.00396202 0.996087 -0.152109 0.0626756 0.986374 -0.167775 0.0272159 0.985449 
-0.0683407 -0.387614 0.919285 0.130669 -0.0131193 0.991339 0.0849963 -0.0194839 0.996191 
-0.0474547 -0.138212 0.989265 -0.0962319 -0.121865 0.987871 -0.0866365 -0.15318 0.984393 
-0.143488 -0.175475 0.973971 -0.1821 -0.162551 0.969751 0.452741 -0.465505 0.760481 
0.299342 -0.294676 0.907502 0.120062 -0.154849 0.980615 -0.0844871 -0.0679051 0.994108 
-0.139528 -0.0292866 0.989785 -0.291638 -0.0453577 0.955453 -0.109014 -0.0123289 0.993964 
0.183933 -0.0641545 0.980843 0.0940938 -0.0949128 0.991029 -0.0892306 -0.148189 0.984925 
-0.133886 -0.152221 0.979236 -0.121478 -0.216535 0.968688 -0.0961285 -0.287211 0.953032 
-0.261567 -0.291894 0.919989 0.464026 -0.560475 0.685965 0.208788 -0.423958 0.881287 
0.0361722 -0.305801 0.951408 -0.127854 -0.254947 0.958465 -0.188177 -0.228878 0.955094 
-0.072456 -0.127327 0.989211 0.0615733 -0.164585 0.984439 0.0133537 -0.274233 0.961571 
-0.107014 -0.311029 0.944357 -0.152795 -0.327532 0.932404 0.1557 -0.758456 0.632853 
-0.0453038 -0.676925 0.734657 0.250516 0.569328 0.783012 0.142349 0.670475 0.728148 
0.0311034 0.736176 0.676076 -0.0411603 0.992238 0.117346 -0.0810253 0.763264 0.640985 
-0.218038 0.745503 0.62983 0.275661 0.536881 0.797352 0.290416 0.450977 0.843966 
0.368442 0.63682 0.677282 -0.336716 0.639645 0.690997 -0.337653 0.631237 0.698234 
-0.341777 0.649801 0.678931 -0.281027 0.573297 0.769646 -0.35129 0.875772 0.331088 
0.232303 0.653061 0.720796 0.404079 0.859957 0.311759 0.157282 0.629083 0.76126 
0.247981 0.764337 0.595226 0.248244 0.484891 0.838603 0.237534 0.496994 0.834611 
0.251545 0.509166 0.823089 -0.288723 0.505919 0.812825 -0.28753 0.479363 0.829179 
-0.322089 0.579629 0.748524 -0.294805 0.376488 0.878264 -0.439616 0.729976 0.523329 
0.556697 0.521083 0.646963 0.348197 0.709354 0.612843 0.355806 0.70926 0.608566 
0.361265 0.720044 0.592473 -0.32417 0.342687 0.881748 -0.513272 0.45201 0.729547 
0.647217 0.458883 0.608717 -0.423821 0.125023 0.897076 -0.404186 0.0850868 0.910711 
-0.441798 0.128264 0.887898 -0.734692 0.389718 0.55529 0.703938 0.0645752 0.70732 
0.983482 0.122974 0.132815 -0.355892 0.0166823 0.934378 -0.374099 -0.0646958 0.925129 
-0.600339 0.0871833 0.794979 0.750991 -0.130668 0.647255 0.98181 -0.149125 0.117518 
-0.37418 -0.0654681 0.925042 -0.374417 -0.0654198 0.92495 -0.566294 -0.207719 0.797599 
0.635431 -0.338739 0.693891 0.611414 -0.368254 0.700401 -0.296466 -0.195151 0.934893 
-0.392406 -0.234773 0.889325 -0.655967 -0.405379 0.63669 0.530767 -0.501718 0.683056 
0.498851 -0.551092 0.668914 -0.194965 -0.318715 0.927583 -0.125655 -0.326951 0.93665 
-0.302197 -0.319281 0.898185 -0.277603 -0.335595 0.900173 -0.525855 -0.454356 0.719053 
0.502597 -0.603953 0.618577 0.488102 -0.616588 0.617719 0.322205 -0.759503 0.565102 
-0.139448 -0.592192 0.793639 -0.0488719 -0.393924 0.917843 0.0331359 -0.402165 0.914967 
-0.0277952 -0.465282 0.884726 -0.127064 -0.437834 0.890032 -0.192192 -0.333234 0.923048 
-0.150579 -0.394293 0.906564 -0.206089 -0.338852 0.917991 -0.251023 -0.456435 0.853613 
-0.392448 -0.615039 0.683894 0.212671 -0.790348 0.574561 0.362183 -0.884943 0.292744 
0.162355 -0.789525 0.591854 -0.135989 -0.599575 0.78868 -0.0249692 -0.757215 0.652688 
-0.137584 -0.598974 0.788861 -0.0203282 -0.548416 0.835958 0.0274965 -0.49239 0.86994 
-0.0358073 -0.505546 0.862056 -0.142934 -0.529953 0.835894 -0.185988 -0.614531 0.766655 
-0.225992 -0.695112 0.682457 -0.358868 -0.760988 0.540473 -0.0189475 -0.885155 0.46491 
-0.0413526 0.992457 0.115404 0.398789 0.86097 0.315748 0.221765 0.948529 0.226081 
-0.0349798 0.992531 0.116869 0.0598128 0.988407 0.13955 -0.0427811 0.992487 0.114624 
-0.0417712 0.993021 0.110294 -0.136065 0.988621 0.0641441 -0.212024 0.975833 0.0528724 
-0.277077 0.955137 0.1046 -0.353844 0.913957 0.198689 0.422927 0.875697 0.232994 
0.381305 0.845201 0.374488 0.455652 0.814373 0.359412 0.455642 0.814362 0.359451 
0.455707 0.814613 0.358799 -0.370517 0.908722 0.192199 -0.39993 0.892661 0.207873 
-0.461878 0.857086 0.228194 0.431951 0.872168 0.229656 0.486128 0.856179 0.175035 
-0.530737 0.810304 0.248446 -0.603526 0.740453 0.29578 0.62456 0.772278 0.116237 
0.683183 0.72403 0.0950821 -0.714312 0.585629 0.383141 -0.760784 0.506922 0.405263 
0.860584 0.507724 0.0401519 0.976515 0.210971 0.0437007 -0.843947 0.381998 0.376604 
0.990545 0.129043 0.0465646 0.989959 0.125938 -0.0641878 -0.925181 0.129358 0.356801 
0.987556 -0.148016 0.0531384 0.976396 -0.208667 0.0557534 0.987692 -0.140414 -0.0689125 
-0.91051 -0.157338 0.382381 0.895555 -0.435274 0.0922872 0.746679 -0.661437 0.0705092 
-0.735925 -0.413734 0.535947 -0.702253 -0.46138 0.542189 0.745753 -0.662509 0.0702519 
0.609383 -0.790068 0.0666683 -0.667676 -0.503201 0.548632 -0.582177 -0.603056 0.545338 
-0.825075 -0.55378 -0.11216 0.597462 -0.798983 0.0682954 0.512506 -0.85315 0.0973292 
-0.536588 -0.645869 0.543071 -0.445751 -0.708139 0.547581 -0.672803 -0.739602 0.0180319 
0.422662 -0.902394 0.0839156 0.375459 -0.922898 0.085382 0.187557 -0.976209 0.108805 
0.0804349 -0.983986 0.159066 0.0856255 -0.963238 0.254639 0.14989 -0.911895 0.382075 
0.12249 -0.902441 0.413034 -0.159441 -0.849427 0.503044 -0.231883 -0.80056 0.552571 
-0.261985 -0.780745 0.567276 -0.366188 -0.772821 0.518318 -0.357202 -0.779348 0.514804 
0.0136234 -0.895246 0.445363 0.144061 -0.955684 0.256738 -0.0384028 -0.886467 0.461196 
-0.01865 -0.889615 0.456331 -0.152444 -0.930581 0.332837 0.426191 0.895279 -0.129756 
0.293988 0.934534 -0.200545 0.132884 0.949262 -0.285033 0.0247384 0.938638 -0.344016 
-0.07424 0.930848 -0.357786 -0.16435 0.898779 -0.40643 -0.18309 0.886106 -0.425785 
-0.207046 0.895028 -0.395042 -0.304194 0.889677 -0.340502 0.503728 0.839464 -0.203858 
0.442164 0.888546 -0.122383 0.481349 0.868038 -0.12171 0.403004 0.870137 -0.283636 
0.175547 0.697977 -0.69427 -0.0703153 0.528859 -0.845792 -0.123746 0.592306 -0.796154 
-0.153835 0.710627 -0.686545 -0.177119 0.806285 -0.564388 -0.313242 0.889649 -0.332272 
-0.297053 0.878277 -0.374686 -0.364052 0.875051 -0.318985 -0.44091 0.83493 -0.329378 
0.50731 0.833911 -0.217321 0.574888 0.76661 -0.28603 0.507806 0.808301 -0.297965 
-0.273059 0.642621 -0.715875 -0.49375 0.806228 -0.325895 -0.420348 0.751914 -0.507871 
-0.564474 0.752695 -0.33885 0.652319 0.669258 -0.35577 0.705763 0.556028 -0.439012 
0.569894 0.573428 -0.588559 -0.29548 0.381744 -0.875764 -0.698113 0.619041 -0.359759 
-0.523637 0.582895 -0.621319 -0.744847 0.567425 -0.351044 0.770945 0.425487 -0.473925 
0.636728 0.409684 -0.653251 -0.853746 0.440328 -0.2779 -0.695033 0.475133 -0.539609 
0.836992 0.131719 -0.531126 0.629965 0.130895 -0.765513 -0.951057 0.171588 -0.256999 
-0.626679 0.214104 -0.749289 0.875515 -0.0819015 -0.476198 0.5802 -0.0681442 -0.811619 
-0.960595 -0.113122 -0.253892 -0.645902 -0.0496339 -0.761805 0.799881 -0.401517 -0.446066 
0.720197 -0.564895 -0.402754 0.638345 -0.358239 -0.681308 -0.919985 -0.350869 -0.174695 
-0.780292 -0.321587 -0.536401 0.699999 -0.604915 -0.379577 0.614806 -0.709328 -0.34477 
0.5666 -0.462777 -0.681764 -0.824452 -0.551691 -0.12616 -0.822958 -0.553873 -0.126355 
-0.823376 -0.552087 -0.131342 0.580384 -0.745529 -0.327628 0.514053 -0.803517 -0.300182 
0.515742 -0.632643 -0.57773 -0.50295 -0.85954 -0.0907295 -0.375789 -0.508048 -0.775029 
-0.671773 -0.735607 -0.0872016 -0.664389 -0.742366 -0.0864842 -0.66308 -0.736775 -0.132242 
0.389181 -0.882425 -0.264317 0.382023 -0.885241 -0.265343 0.383156 -0.879265 -0.282993 
0.239875 -0.944209 -0.225675 0.268771 -0.818257 -0.508152 0.155322 -0.972403 -0.174088 
0.173337 -0.976599 -0.127316 0.21778 -0.972922 -0.0774237 -0.245109 -0.968803 -0.0366287 
-0.341851 -0.938651 -0.0455208 -0.457273 -0.88348 -0.101801 -0.420058 -0.899067 -0.123406 
-0.3927 -0.817913 -0.420482 0.199646 -0.977349 -0.0702179 0.175247 -0.982526 -0.0626924 
0.182777 -0.95221 -0.244721 0.0301614 -0.999443 -0.0142962 0.0469037 -0.859738 -0.508578 
-0.240024 -0.970118 -0.0354949 -0.129588 -0.991567 0.00123805 -0.170678 -0.899229 -0.40281 
0.030745 0.588843 -0.807662 -0.0393646 0.553981 -0.831598 0.378979 0.613855 -0.692501 
0.290879 0.657749 -0.694806 0.0867868 0.620088 -0.779717 0.155378 0.652304 -0.741861 
0.0280363 0.572135 -0.81968 -0.046047 0.541601 -0.839374 -0.0400796 0.547631 -0.835759 
-0.0697801 0.484665 -0.871912 -0.093149 0.475478 -0.874782 -0.0909573 0.511931 -0.854197 
-0.112714 0.523737 -0.844391 -0.199438 0.498939 -0.843377 0.387867 0.605585 -0.694857 
0.410511 0.547052 -0.72953 0.370687 0.59099 -0.716465 0.207257 0.440096 -0.873705 
0.0343874 0.331869 -0.942698 -0.0390758 0.291235 -0.955853 -0.0542034 0.247735 -0.96731 
-0.0745866 0.254858 -0.964098 -0.0490364 0.294925 -0.954261 -0.0367374 0.381554 -0.923616 
-0.097564 0.423241 -0.900749 -0.209016 0.493915 -0.844014 -0.196915 0.469854 -0.860501 
-0.230321 0.469286 -0.85248 0.442453 0.485548 -0.753975 0.480149 0.295934 -0.82576 
0.370233 0.457633 -0.808393 0.217257 0.303583 -0.927705 0.0850136 0.221995 -0.971335 
-0.0124834 0.130296 -0.991397 -0.0788648 0.0759071 -0.993991 -0.0825113 0.138692 -0.986892 
-0.038724 0.214745 -0.975902 0.0198087 0.190551 -0.981477 0.00692263 0.204097 -0.978926 
-0.0566499 0.152091 -0.986742 -0.105694 0.212504 -0.971427 -0.284054 0.367177 -0.885717 
-0.201085 0.284705 -0.937288 -0.284668 0.366264 -0.885898 -0.382633 0.222383 -0.896737 
0.479521 0.269083 -0.835257 0.46482 0.256731 -0.847367 0.281351 0.163012 -0.945658 
0.181422 0.117583 -0.97635 0.0370807 0.0565807 -0.997709 -0.122813 0.00542938 -0.992415 
-0.0253033 -0.0685956 -0.997324 0.0989065 0.203863 -0.97399 -0.0343551 0.135506 -0.990181 
-0.0711683 0.162606 -0.984121 -0.0755243 0.0976847 -0.992348 -0.0949135 -0.00404084 -0.995477 
-0.0448998 0.0455856 -0.997951 -0.0643359 0.136513 -0.988547 -0.213528 0.262475 -0.941017 
-0.382286 0.22147 -0.897111 -0.381749 0.220457 -0.897589 0.519039 0.12115 -0.846121 
0.376379 0.129648 -0.917349 0.21662 0.082981 -0.972723 0.0947983 0.0674357 -0.99321 
-0.0300955 -0.00224414 -0.999545 -0.135224 0.00884028 -0.990776 0.0735171 0.00122714 -0.997293 
-0.0845409 -0.174714 -0.980983 0.0120961 0.075308 -0.997087 -0.178344 0.0749052 -0.981113 
-0.087279 0.00264574 -0.99618 0.0366797 0.0422243 -0.998435 -0.00944605 0.0918292 -0.99573 
-0.145653 0.066895 -0.987072 -0.524283 0.186997 -0.830758 -0.262276 0.12451 -0.956927 
0.516165 -0.0657828 -0.853959 0.380822 -0.0290856 -0.924191 0.224434 0.00616481 -0.97447 
0.0934078 0.0346498 -0.995025 -0.0257731 0.0662425 -0.997471 -0.123389 0.0970046 -0.987606 
0.122433 0.104532 -0.986957 -0.154373 0.0147245 -0.987903 0.138141 -0.0395508 -0.989622 
-0.147806 -0.0402019 -0.988199 -0.104345 0.0709188 -0.992009 0.0430121 0.0632723 -0.997069 
-0.032668 0.0404492 -0.998647 -0.155729 0.0237808 -0.987513 -0.588131 -0.037995 -0.807872 
-0.25245 -0.00171855 -0.967608 0.522573 -0.253423 -0.81406 0.53138 -0.379577 -0.757335 
0.459484 -0.21472 -0.861841 0.285135 -0.139146 -0.948333 0.152936 -0.00326499 -0.988231 
0.0309928 0.0480937 -0.998362 -0.092234 0.100427 -0.99066 -0.134575 0.102585 -0.985579 
-0.0340868 -0.205402 -0.978084 0.0385822 0.0581433 -0.997562 0.00825899 -0.0604855 -0.998135 
-0.0560457 -0.0675993 -0.996137 -0.0232442 0.0625992 -0.997768 0.00769306 0.0390375 -0.999208 
-0.0556081 -0.0473259 -0.99733 -0.177072 -0.0178253 -0.984036 -0.587144 -0.166668 -0.792139 
-0.335437 -0.0476893 -0.940855 0.526278 -0.42732 -0.735139 0.477154 -0.52432 -0.705274 
0.408131 -0.331139 -0.850751 0.271608 -0.202268 -0.940913 0.0686174 -0.113473 -0.991169 
-0.173402 -0.00383231 -0.984844 -0.0969186 0.0170651 -0.995146 0.0192781 0.0230674 -0.999548 
0.0149171 -0.00528706 -0.999875 -0.0121273 0.00571288 -0.99991 -0.0113039 -0.042681 -0.999025 
-0.0641819 -0.0928459 -0.99361 -0.103404 -0.104801 -0.989103 -0.353389 -0.487074 -0.798671 
-0.216369 -0.296818 -0.930099 -0.530334 -0.355933 -0.769453 -0.491576 -0.429636 -0.757474 
-0.412106 -0.264699 -0.871839 0.469628 -0.575365 -0.66963 0.393039 -0.668255 -0.63163 
0.367832 -0.521827 -0.769672 0.267104 -0.773761 -0.574412 0.207664 -0.413887 -0.886326 
0.0223499 -0.297745 -0.954384 -0.0736949 -0.223901 -0.971822 -0.0147004 -0.12078 -0.99257 
0.0153622 -0.0476005 -0.998748 -0.00911908 -0.0515628 -0.998628 -0.0893451 -0.105863 -0.990359 
-0.129128 -0.140561 -0.981615 -0.0635465 -0.271084 -0.960456 -0.356371 -0.489896 -0.795614 
-0.290321 -0.570361 -0.768376 -0.21387 -0.368876 -0.904538 0.24271 -0.793329 -0.55832 
0.166777 -0.819979 -0.547558 0.147363 -0.75035 -0.644406 0.12254 -0.796102 -0.592625 
0.0645721 -0.668749 -0.740679 0.18043 -0.730857 -0.65825 0.120234 -0.514817 -0.848827 
0.177952 -0.748375 -0.638959 0.106184 -0.393237 -0.913285 0.0420409 -0.798905 -0.599985 
-0.0435512 -0.322013 -0.945733 -0.170162 -0.714321 -0.678816 -0.107583 -0.366163 -0.924311 
-0.24372 -0.681453 -0.690089 -0.171398 -0.408501 -0.896521 -0.363925 -0.568837 -0.737552 
-0.366801 -0.569761 -0.735411 -0.361408 -0.549612 -0.7532 0.140308 0.217853 -0.965843 
0.14701 0.195638 -0.969595 0.108664 0.165121 -0.980269 0.146761 0.209267 -0.966782 
0.0414655 -0.114985 -0.992501 -0.042966 -0.170723 -0.984382 -0.0149426 -0.211008 -0.97737 
0.00519289 -0.186798 -0.982385 -0.0763951 -0.00494619 -0.997065 0.0273434 -0.0884344 -0.995707 
-0.0819386 -0.0255766 -0.996309 -0.0649816 -0.0522446 -0.996518 -0.0731143 -0.0270701 -0.996956 

