# vtk DataFile Version 4.2
vtk output
ASCII
DATASET POLYDATA
POINTS 540 float
-11.8183 -47.259 -15.0422 -3.50508 -47.259 -16.0299 4.80811 -47.259 -15.3363 
13.1213 -47.259 -14.0298 -28.4447 -38.9458 -13.0711 -20.1315 -38.9458 -16.2077 
-11.8183 -38.9458 -18.2548 -3.50508 -38.9458 -18.3863 4.80811 -38.9458 -17.6778 
13.1213 -38.9458 -17.7739 21.4345 -38.9458 -16.4243 29.7477 -38.9458 -15.51 
-36.7579 -30.6326 -14.1805 -28.4447 -30.6326 -16.0528 -20.1315 -30.6326 -17.5777 
-11.8183 -30.6326 -19.1735 -3.50508 -30.6326 -19.2977 4.80811 -30.6326 -18.4112 
13.1213 -30.6326 -18.5219 21.4345 -30.6326 -17.9946 29.7477 -30.6326 -18.3594 
38.0609 -30.6326 -16.3372 46.3741 -30.6326 -13.2541 -45.0711 -22.3194 -14.6347 
-36.7579 -22.3194 -16.8563 -28.4447 -22.3194 -17.2856 -20.1315 -22.3194 -18.1905 
-11.8183 -22.3194 -19.4941 -3.50508 -22.3194 -19.2646 4.80811 -22.3194 -17.9272 
13.1213 -22.3194 -17.8277 21.4345 -22.3194 -18.5716 29.7477 -22.3194 -18.9479 
38.0609 -22.3194 -18.9297 46.3741 -22.3194 -16.5701 -45.0711 -14.0062 -16.2923 
-36.7579 -14.0062 -17.7372 -28.4447 -14.0062 -17.6874 -20.1315 -14.0062 -17.4235 
-11.8183 -14.0062 -19.2129 -3.50508 -14.0062 -19.9717 4.80811 -14.0062 -17.8641 
13.1213 -14.0062 -17.8337 21.4345 -14.0062 -18.2856 29.7477 -14.0062 -18.9017 
38.0609 -14.0062 -18.8571 46.3741 -14.0062 -17.4991 54.6873 -14.0062 -13.8159 
-53.3843 -5.69305 -13.6457 -45.0711 -5.69305 -17.2975 -36.7579 -5.69305 -18.4161 
-28.4447 -5.69305 -18.0012 -20.1315 -5.69305 -16.8443 -11.8183 -5.69305 -18.6153 
-3.50508 -5.69305 -20.0069 4.80811 -5.69305 -19.0297 13.1213 -5.69305 -17.8534 
21.4345 -5.69305 -17.5671 29.7477 -5.69305 -18.7548 38.0609 -5.69305 -19.1823 
46.3741 -5.69305 -18.4822 54.6873 -5.69305 -15.5791 -53.3843 2.62015 -13.883 
-45.0711 2.62015 -17.8645 -36.7579 2.62015 -19.0823 -28.4447 2.62015 -18.8672 
-20.1315 2.62015 -17.5314 -11.8183 2.62015 -19.8368 -3.50508 2.62015 -19.2621 
4.80811 2.62015 -19.2734 13.1213 2.62015 -18.3804 21.4345 2.62015 -17.9717 
29.7477 2.62015 -18.9906 38.0609 2.62015 -19.4043 46.3741 2.62015 -18.5185 
54.6873 2.62015 -15.4244 -53.3843 10.9333 -12.8958 -45.0711 10.9333 -17.4447 
-36.7579 10.9333 -19.2065 -28.4447 10.9333 -19.5993 -20.1315 10.9333 -19.5096 
-11.8183 10.9333 -19.6388 -3.50508 10.9333 -19.3371 4.80811 10.9333 -20.2597 
13.1213 10.9333 -19.2695 21.4345 10.9333 -18.9292 29.7477 10.9333 -19.6058 
38.0609 10.9333 -19.4862 46.3741 10.9333 -18.286 54.6873 10.9333 -14.7 
-45.0711 19.2465 -16.0269 -36.7579 19.2465 -18.1917 -28.4447 19.2465 -19.2447 
-20.1315 19.2465 -19.291 -11.8183 19.2465 -19.2058 -3.50508 19.2465 -19.4366 
4.80811 19.2465 -19.0339 13.1213 19.2465 -18.2892 21.4345 19.2465 -18.644 
29.7477 19.2465 -19.5036 38.0609 19.2465 -18.8046 46.3741 19.2465 -17.3915 
-36.7579 27.5597 -15.5576 -28.4447 27.5597 -17.571 -20.1315 27.5597 -18.6012 
-11.8183 27.5597 -19.231 -3.50508 27.5597 -19.6679 4.80811 27.5597 -19.4005 
13.1213 27.5597 -18.2371 21.4345 27.5597 -17.9954 29.7477 27.5597 -17.5665 
38.0609 27.5597 -16.6314 46.3741 27.5597 -14.0579 -28.4447 35.8729 -14.9571 
-20.1315 35.8729 -16.6538 -11.8183 35.8729 -18.0946 -3.50508 35.8729 -18.7387 
4.80811 35.8729 -18.2295 13.1213 35.8729 -17.0875 21.4345 35.8729 -16.3065 
29.7477 35.8729 -15.3229 -20.1315 44.1861 -12.7743 -11.8183 44.1861 -14.6036 
-3.50508 44.1861 -15.1014 4.80811 44.1861 -15.0107 13.1213 44.1861 -14.5881 
21.4345 44.1861 -12.8198 -11.8183 -50.3821 -12.7491 -3.50508 -51.9039 -12.7491 
4.80811 -50.9393 -12.7491 13.1213 -49.1386 -12.7491 -28.4447 -39.7791 -12.7491 
-28.4447 -47.259 -7.75104 -17.6664 -47.259 -12.7491 -20.1315 -45.3856 -12.7491 
-20.1315 -47.259 -11.3706 18.8318 -47.259 -12.7491 21.4345 -46.0917 -12.7491 
21.4345 -47.259 -11.8347 29.7477 -44.4573 -12.7491 29.7477 -47.259 -9.23085 
-29.2718 -38.9458 -12.7491 -36.7579 -33.5277 -12.7491 -36.7579 -38.9458 -8.99312 
37.3201 -38.9458 -12.7491 38.0609 -38.3244 -12.7491 38.0609 -38.9458 -12.3328 
46.3741 -31.6066 -12.7491 46.3741 -38.9458 -6.75065 -41.1727 -30.6326 -12.7491 
-45.0711 -27.2995 -12.7491 -45.0711 -30.6326 -10.9128 47.2401 -30.6326 -12.7491 
54.6873 -30.6326 -5.02338 -51.0044 -22.3194 -12.7491 -53.3843 -22.3194 -11.3551 
52.8556 -22.3194 -12.7491 54.6873 -17.5014 -12.7491 54.6873 -22.3194 -10.9362 
-53.1331 -14.0062 -12.7491 -53.3843 -12.9375 -12.7491 -53.3843 -14.0062 -12.6079 
55.8807 -14.0062 -12.7491 -54.4591 -5.69305 -12.7491 57.7889 -5.69305 -12.7491 
-54.6725 2.62015 -12.7491 57.8214 2.62015 -12.7491 -53.5431 10.9333 -12.7491 
-53.3843 11.4181 -12.7491 56.8694 10.9333 -12.7491 54.6873 18.2139 -12.7491 
-50.3094 19.2465 -12.7491 -53.3843 19.2465 -9.99551 -45.0711 26.6139 -12.7491 
54.3379 19.2465 -12.7491 54.6873 19.2465 -12.4109 -43.9586 27.5597 -12.7491 
-45.0711 27.5597 -12.1946 -36.7579 33.7967 -12.7491 38.0609 35.0273 -12.7491 
48.4511 27.5597 -12.7491 46.3741 29.7153 -12.7491 54.6873 27.5597 -6.65959 
-45.0711 35.8729 -6.10031 -34.3923 35.8729 -12.7491 -36.7579 35.8729 -11.6317 
-28.4447 39.829 -12.7491 36.9579 35.8729 -12.7491 29.7477 39.9567 -12.7491 
38.0609 35.8729 -12.1632 46.3741 35.8729 -7.08204 -36.7579 44.1861 -5.11728 
-20.2082 44.1861 -12.7491 -28.4447 44.1861 -9.48594 -20.1315 44.2242 -12.7491 
-11.8183 46.8323 -12.7491 -3.50508 47.2175 -12.7491 4.80811 47.3157 -12.7491 
13.1213 47.1177 -12.7491 21.6279 44.1861 -12.7491 21.4345 44.2923 -12.7491 
29.7477 44.1861 -8.98308 -20.1315 52.4993 -4.71817 -11.8183 52.4993 -6.43259 
-3.50508 52.4993 -6.82613 4.80811 52.4993 -7.23234 13.1213 52.4993 -6.38139 
-28.4447 -49.1378 -4.43586 -20.1315 -53.0303 -4.43586 -11.8183 -55.0855 -4.43586 
-3.50508 -55.4775 -4.43586 4.80811 -54.9094 -4.43586 13.1213 -53.8442 -4.43586 
21.4345 -51.7834 -4.43586 29.7477 -49.2978 -4.43586 -31.4863 -47.259 -4.43586 
-36.7579 -43.2316 -4.43586 34.4412 -47.259 -4.43586 38.0609 -45.4008 -4.43586 
46.3741 -40.1805 -4.43586 -43.4904 -38.9458 -4.43586 -45.0711 -37.7308 -4.43586 
-45.0711 -38.9458 -0.272414 47.7648 -38.9458 -4.43586 54.6873 -30.992 -4.43586 
-53.0392 -30.6326 -4.43586 -53.3843 -30.2266 -4.43586 -53.3843 -30.6326 -3.30678 
54.9592 -30.6326 -4.43586 54.6873 -30.6326 -2.83173 -57.8155 -22.3194 -4.43586 
59.0125 -22.3194 -4.43586 -60.687 -14.0062 -4.43586 -61.6975 -14.0062 2.09604 
61.2515 -14.0062 -4.43586 -61.0319 -5.69305 -4.43586 62.4983 -5.69305 -4.43586 
-60.9147 2.62015 -4.43586 62.6043 2.62015 -4.43586 -59.4703 10.9333 -4.43586 
61.8999 10.9333 -4.43586 -57.2476 19.2465 -4.43586 -53.3843 26.9029 -4.43586 
60.1056 19.2465 -4.43586 -52.9389 27.5597 -4.43586 -53.3843 27.5597 -1.36945 
55.8604 27.5597 -4.43586 54.6873 29.0639 -4.43586 -46.58 35.8729 -4.43586 
-45.0711 37.4109 -4.43586 38.0609 43.0082 -4.43586 48.1349 35.8729 -4.43586 
46.3741 37.3818 -4.43586 -37.4786 44.1861 -4.43586 -36.7579 44.7316 -4.43586 
-28.4447 49.2285 -4.43586 21.4345 51.4528 -4.43586 36.3123 44.1861 -4.43586 
29.7477 47.966 -4.43586 -20.6822 52.4993 -4.43586 -20.1315 52.6729 -4.43586 
-11.8183 53.6418 -4.43586 -3.50508 53.9121 -4.43586 4.80811 54.1589 -4.43586 
17.5559 52.4993 -4.43586 13.1213 53.5072 -4.43586 -28.4447 -49.2492 3.87733 
-20.1315 -52.0991 3.87733 -11.8183 -53.8086 3.87733 -3.50508 -53.5615 3.87733 
4.80811 -52.5809 3.87733 13.1213 -51.4616 3.87733 21.4345 -50.1752 3.87733 
29.7477 -47.8978 3.87733 -45.0711 -39.8723 3.87733 -32.3918 -47.259 3.87733 
-36.7579 -44.8965 3.87733 -28.4447 -47.259 7.72674 -20.1315 -47.259 10.2884 
-11.8183 -47.259 11.5039 -3.50508 -47.259 11.0403 4.80811 -47.259 9.98246 
13.1213 -47.259 8.93211 21.4345 -47.259 8.05166 31.4061 -47.259 3.87733 
29.7477 -47.259 4.82151 38.0609 -44.3523 3.87733 46.3741 -39.0598 3.87733 
-46.288 -38.9458 3.87733 -53.3843 -32.4356 3.87733 -45.0711 -38.9458 5.96939 
38.0609 -38.9458 10.3977 46.503 -38.9458 3.87733 46.3741 -38.9458 4.03388 
-54.8554 -30.6326 3.87733 -53.3843 -30.6326 7.37071 53.168 -30.6326 3.87733 
46.3741 -30.6326 11.5266 54.6873 -28.3488 3.87733 -59.2079 -22.3194 3.87733 
-61.6975 -14.7276 3.87733 57.6895 -22.3194 3.87733 54.6873 -22.3194 7.94361 
-61.934 -14.0062 3.87733 -61.6975 -7.28484 3.87733 -61.6975 -14.0062 4.49497 
59.4525 -14.0062 3.87733 54.6873 -14.0062 10.3762 -61.6419 -5.69305 3.87733 
61.0242 -5.69305 3.87733 54.6873 -5.69305 11.4438 -61.1378 2.62015 3.87733 
61.1863 2.62015 3.87733 54.6873 2.62015 11.8011 -60.1211 10.9333 3.87733 
60.8693 10.9333 3.87733 54.6873 10.9333 11.9291 -57.7337 19.2465 3.87733 
-53.3843 19.2465 11.0136 59.2108 19.2465 3.87733 54.6873 19.2465 11.7573 
-54.0052 27.5597 3.87733 -53.3843 28.5841 3.87733 -53.3843 27.5597 5.37428 
55.2339 27.5597 3.87733 54.6873 28.2778 3.87733 54.6873 27.5597 4.77546 
-48.3885 35.8729 3.87733 -45.0711 39.5728 3.87733 -45.0711 35.8729 11.0476 
38.0609 42.8492 3.87733 38.0609 35.8729 11.5294 47.6459 35.8729 3.87733 
46.3741 36.9913 3.87733 46.3741 35.8729 5.65981 -40.2669 44.1861 3.87733 
-36.7579 46.9833 3.87733 -36.7579 44.1861 11.1177 -28.4447 51.6475 3.87733 
21.4345 51.9065 3.87733 36.171 44.1861 3.87733 29.7477 48.0942 3.87733 
29.7477 44.1861 9.03808 -26.0899 52.4993 3.87733 -20.1315 54.418 3.87733 
-20.1315 52.4993 8.39363 -11.8183 54.9374 3.87733 -11.8183 52.4993 8.99154 
-3.50508 54.7478 3.87733 -3.50508 52.4993 8.49712 4.80811 54.7841 3.87733 
4.80811 52.4993 8.2893 19.2924 52.4993 3.87733 13.1213 53.9763 3.87733 
13.1213 52.4993 7.48803 -36.7579 -39.4367 12.1905 -28.4447 -43.5996 12.1905 
-20.1315 -44.8739 12.1905 -11.8183 -46.297 12.1905 -3.50508 -45.6495 12.1905 
4.80811 -44.2125 12.1905 13.1213 -42.8601 12.1905 21.4345 -42.4125 12.1905 
29.7477 -39.1491 12.1905 -37.8167 -38.9458 12.1905 -45.0711 -35.1967 12.1905 
-36.7579 -38.9458 12.717 -28.4447 -38.9458 15.0072 -20.1315 -38.9458 15.7233 
-11.8183 -38.9458 16.3581 -3.50508 -38.9458 15.8809 4.80811 -38.9458 15.2086 
13.1213 -38.9458 14.4254 21.4345 -38.9458 14.1563 30.4711 -38.9458 12.1905 
29.7477 -38.9458 12.3201 38.0609 -36.1017 12.1905 -50.2169 -30.6326 12.1905 
-53.3843 -25.5408 12.1905 -45.0711 -30.6326 15.2006 -36.7579 -30.6326 17.2741 
[...]
POINT_DATA 540
SCALARS ImageScalars float
LOOKUP_TABLE default
0 0 0 0 0 0 0 0 0 
0 0 0 0 0 0 0 0 0 
0 0 0 0 0 0 0 0 0 
0 0 0 0 0 0 0 0 0 
0 0 0 0 0 0 0 0 0 
0 0 0 0 0 0 0 0 0 
0 0 0 0 0 0 0 0 0 
0 0 0 0 0 0 0 0 0 
0 0 0 0 0 0 0 0 0 
0 0 0 0 0 0 0 0 0 
0 0 0 0 0 0 0 0 0 
0 0 0 0 0 0 0 0 0 
0 0 0 0 0 0 0 0 0 
0 0 0 0 0 0 0 0 0 
0 0 0 0 0 0 0 0 0 
0 0 0 0 0 0 0 0 0 
0 0 0 0 0 0 0 0 0 
0 0 0 0 0 0 0 0 0 
0 0 0 0 0 0 0 0 0 
0 0 0 0 0 0 0 0 0 
0 0 0 0 0 0 0 0 0 
0 0 0 0 0 0 0 0 0 
0 0 0 0 0 0 0 0 0 
0 0 0 0 0 0 0 0 0 
0 0 0 0 0 0 0 0 0 
0 0 0 0 0 0 0 0 0 
0 0 0 0 0 0 0 0 0 
0 0 0 0 0 0 0 0 0 
0 0 0 0 0 0 0 0 0 
0 0 0 0 0 0 0 0 0 
0 0 0 0 0 0 0 0 0 
0 0 0 0 0 0 0 0 0 
0 0 0 0 0 0 0 0 0 
0 0 0 0 0 0 0 0 0 
0 0 0 0 0 0 0 0 0 
0 0 0 0 0 0 0 0 0 
0 0 0 0 0 0 0 0 0 
0 0 0 0 0 0 0 0 0 
0 0 0 0 0 0 0 0 0 
0 0 0 0 0 0 0 0 0 
0 0 0 0 0 0 0 0 0 
0 0 0 0 0 0 0 0 0 
0 0 0 0 0 0 0 0 0 
0 0 0 0 0 0 0 0 0 
0 0 0 0 0 0 0 0 0 
0 0 0 0 0 0 0 0 0 
0 0 0 0 0 0 0 0 0 
0 0 0 0 0 0 0 0 0 
0 0 0 0 0 0 0 0 0 
0 0 0 0 0 0 0 0 0 
0 0 0 0 0 0 0 0 0 
0 0 0 0 0 0 0 0 0 
0 0 0 0 0 0 0 0 0 
0 0 0 0 0 0 0 0 0 
0 0 0 0 0 0 0 0 0 
0 0 0 0 0 0 0 0 0 
0 0 0 0 0 0 0 0 0 
0 0 0 0 0 0 0 0 0 
0 0 0 0 0 0 0 0 0 
0 0 0 0 0 0 0 0 0 

NORMALS Normals float
-0.214643 -0.522523 -0.825166 -0.0149263 -0.457534 -0.889067 0.119737 -0.466632 -0.876309 
0.168497 -0.528561 -0.832005 -0.350292 -0.349638 -0.868936 -0.299637 -0.285322 -0.910389 
-0.11386 -0.227689 -0.967054 0.0338316 -0.193927 -0.980432 0.0358769 -0.180733 -0.982878 
0.0673063 -0.252459 -0.965264 0.133502 -0.288727 -0.948058 0.188187 -0.386012 -0.903095 
-0.239827 -0.362331 -0.900666 -0.199405 -0.233642 -0.951656 -0.184548 -0.111862 -0.976437 
-0.101623 -0.0772898 -0.991816 0.0458622 -0.050541 -0.997668 0.0466701 -0.0139357 -0.998813 
0.025029 0.00149017 -0.999686 0.0113436 -0.120394 -0.992661 0.0905218 -0.204556 -0.97466 
0.244147 -0.318878 -0.915811 0.427121 -0.439051 -0.790444 -0.273783 -0.25619 -0.927043 
-0.16093 -0.21668 -0.962887 -0.0789161 -0.093723 -0.992466 -0.131905 0.00974933 -0.991214 
-0.0642024 -0.00402475 -0.997929 0.0947947 -0.0368081 -0.994816 0.0852093 0.0327462 -0.995825 
-0.039295 0.0410951 -0.998382 -0.0669182 -0.0168773 -0.997616 -0.0218981 -0.0296098 -0.999322 
0.145227 -0.138018 -0.979724 0.355941 -0.189639 -0.915064 -0.267008 -0.15508 -0.951134 
-0.0778913 -0.0894276 -0.992943 0.0185886 -0.0422447 -0.998934 -0.0801779 0.0807112 -0.993508 
-0.1583 0.0456425 -0.986336 0.0869003 -0.0471945 -0.995098 0.118779 -0.0621684 -0.990973 
-0.0254108 -0.00145632 -0.999676 -0.0640033 0.0599719 -0.996146 -0.0343822 0.011564 -0.999342 
0.079696 -0.0156053 -0.996697 0.252904 -0.115057 -0.960625 0.579782 -0.20693 -0.788056 
-0.563901 -0.0643558 -0.823331 -0.244038 -0.0893892 -0.965637 -0.0378091 -0.0806246 -0.996027 
0.0940057 -0.0707273 -0.993056 -0.00715207 -0.00651232 -0.999953 -0.212659 -0.0272164 -0.976747 
-0.00615215 0.0390339 -0.999219 0.120903 -0.0821534 -0.989259 0.0879297 -0.0301207 -0.995671 
-0.0560386 0.0201636 -0.998225 -0.0963816 -0.00531794 -0.99533 0.0137702 -0.0326849 -0.999371 
0.181737 -0.060186 -0.981504 0.537943 -0.0772486 -0.839434 -0.589745 0.0363539 -0.806771 
-0.267736 -0.00977816 -0.963443 -0.053468 -0.0475341 -0.997438 0.0911304 -0.0950036 -0.991297 
-0.0239071 -0.161923 -0.986514 -0.127483 -0.0475986 -0.990698 0.0290097 0.0387771 -0.998827 
0.053583 -0.0837303 -0.995047 0.0757082 -0.0929549 -0.992788 -0.041433 -0.0842064 -0.995587 
-0.0839534 -0.0515442 -0.995136 0.0253438 -0.0183298 -0.999511 0.202619 0.0112548 -0.979193 
0.540723 0.04303 -0.8401 -0.626405 0.168574 -0.761052 -0.327507 0.107659 -0.938695 
-0.119153 0.054974 -0.991353 -0.0178357 -0.023109 -0.999574 -0.00239066 -0.104662 -0.994505 
0.0107553 0.035352 -0.999317 -0.0356046 -0.00969976 -0.999319 0.00349391 0.0241674 -0.999702 
0.0806987 0.0136751 -0.996645 -0.0204761 -0.037984 -0.999069 -0.0334705 -0.0309031 -0.998962 
0.0736162 0.0354867 -0.996655 0.244896 0.0712593 -0.966927 0.574297 0.140139 -0.806563 
-0.391425 0.243377 -0.887443 -0.180679 0.199889 -0.963016 -0.0671231 0.122219 -0.990231 
0.00237114 0.0517743 -0.998656 -0.00874452 0.024894 -0.999652 0.00952577 -0.0198672 -0.999757 
0.0699082 0.0500365 -0.996298 0.0220493 0.0613733 -0.997871 -0.0728038 0.0552131 -0.995817 
-0.010287 0.129886 -0.991476 0.127769 0.158352 -0.979081 0.298414 0.196006 -0.934094 
-0.270102 0.346828 -0.898196 -0.166575 0.246276 -0.954778 -0.0989064 0.153828 -0.983135 
-0.063116 0.063573 -0.995979 -0.010055 0.0384704 -0.999209 0.0845383 0.0454415 -0.995384 
0.0834515 0.0701873 -0.994037 0.0425136 0.132679 -0.990247 0.0747854 0.247748 -0.965934 
0.17688 0.333026 -0.926179 0.404323 0.470032 -0.784597 -0.249236 0.398857 -0.882493 
-0.177918 0.310015 -0.933936 -0.120912 0.258909 -0.958304 -0.00735529 0.240173 -0.970702 
0.0958714 0.238133 -0.966489 0.108209 0.214666 -0.970675 0.105858 0.289414 -0.951333 
0.188726 0.411664 -0.89158 -0.243006 0.51502 -0.822011 -0.122889 0.510853 -0.850839 
-0.0224749 0.52557 -0.850453 0.0300511 0.494365 -0.868735 0.120176 0.438159 -0.890828 
0.271204 0.495599 -0.825124 -0.216252 -0.667475 -0.712539 -0.0240891 -0.723207 -0.690211 
0.117284 -0.679447 -0.72429 0.193806 -0.615941 -0.763582 -0.359511 -0.377607 -0.853326 
-0.465437 -0.749845 -0.470214 -0.297234 -0.554034 -0.777624 -0.324262 -0.499264 -0.803486 
-0.337897 -0.608892 -0.717688 0.184396 -0.618732 -0.763655 0.170013 -0.611658 -0.772639 
0.195582 -0.700715 -0.686109 0.253298 -0.61185 -0.749319 0.320034 -0.833877 -0.449697 
-0.355533 -0.371893 -0.857492 -0.292278 -0.433748 -0.852312 -0.422901 -0.637576 -0.643934 
0.351029 -0.52559 -0.774941 0.357843 -0.523485 -0.773248 0.374664 -0.554855 -0.742808 
0.441535 -0.465138 -0.767264 0.617246 -0.719692 -0.317884 -0.334966 -0.430668 -0.838047 
-0.358408 -0.397098 -0.844901 -0.448891 -0.51646 -0.729223 0.45739 -0.449421 -0.767343 
0.804475 -0.569542 -0.168644 -0.491001 -0.303478 -0.81659 -0.619536 -0.330564 -0.711971 
0.601078 -0.248994 -0.759412 0.624754 -0.226955 -0.747111 0.727446 -0.287591 -0.622987 
-0.542885 -0.0952216 -0.834391 -0.554008 -0.0894524 -0.827691 -0.555238 -0.0955012 -0.82619 
0.6244 -0.208206 -0.752844 -0.606697 -0.0578907 -0.792822 0.663847 -0.0877649 -0.742701 
-0.63965 0.042362 -0.767498 0.65779 0.0425925 -0.751996 -0.632435 0.169304 -0.755885 
-0.630497 0.176365 -0.75589 0.656078 0.155385 -0.738524 0.660709 0.256554 -0.705439 
-0.576845 0.286253 -0.765055 -0.729008 0.323157 -0.60342 -0.461086 0.438256 -0.771577 
0.655455 0.270585 -0.705097 0.677081 0.276119 -0.682143 -0.442712 0.449521 -0.775846 
-0.476957 0.468046 -0.743939 -0.371943 0.442147 -0.816189 0.337071 0.529092 -0.778746 
0.474409 0.488202 -0.732526 0.429581 0.523848 -0.735557 0.756027 0.568311 -0.324723 
-0.614061 0.620006 -0.488387 -0.357506 0.452898 -0.816745 -0.407532 0.482727 -0.775172 
-0.28603 0.497503 -0.818949 0.328618 0.534659 -0.778557 0.256214 0.549049 -0.79555 
0.359945 0.565903 -0.74175 0.579187 0.72511 -0.372501 -0.50655 0.720225 -0.474008 
-0.243705 0.515823 -0.8213 -0.330993 0.624934 -0.707037 -0.243098 0.516165 -0.821265 
-0.107484 0.603534 -0.79006 -0.0187339 0.63456 -0.772647 0.00346542 0.608736 -0.793366 
0.113179 0.568161 -0.815097 0.273052 0.499432 -0.822199 0.272496 0.49933 -0.822445 
0.369735 0.722745 -0.583897 -0.216162 0.875045 -0.433094 -0.0773874 0.889553 -0.450229 
-0.0285988 0.894535 -0.446083 0.0125008 0.887406 -0.460819 0.144847 0.910987 -0.386164 
-0.480099 -0.835845 -0.266211 -0.360236 -0.9131 -0.190991 -0.122617 -0.983865 -0.130284 
0.0115336 -0.998631 -0.051021 0.0973846 -0.994085 -0.0480835 0.189343 -0.980141 -0.058936 
0.266247 -0.955469 -0.127244 0.353472 -0.928121 -0.116826 -0.498491 -0.812405 -0.302496 
-0.498515 -0.767967 -0.402131 0.43455 -0.889904 -0.138696 0.494798 -0.849662 -0.182345 
0.626758 -0.761223 -0.166477 -0.551504 -0.717396 -0.42566 -0.568502 -0.700968 -0.430638 
-0.59236 -0.789295 -0.161627 0.660323 -0.732143 -0.167156 0.806203 -0.576784 -0.131746 
-0.689235 -0.600096 -0.406004 -0.700871 -0.590008 -0.400838 -0.718736 -0.608284 -0.336764 
0.811132 -0.569949 -0.131234 0.816155 -0.576832 -0.0340099 -0.854977 -0.377875 -0.355282 
0.919081 -0.356188 -0.168583 -0.914185 -0.171765 -0.367099 -0.988158 -0.151257 0.0258018 
0.97048 -0.203851 -0.128894 -0.953239 -0.0110999 -0.302013 0.990422 -0.07831 -0.113722 
-0.957171 0.0921054 -0.274483 0.992169 0.0352614 -0.119819 -0.934487 0.20428 -0.291555 
0.977099 0.144279 -0.156399 -0.888053 0.343471 -0.305596 -0.798713 0.504058 -0.328606 
0.917965 0.346196 -0.193621 -0.787411 0.517927 -0.334268 -0.838606 0.520337 -0.161212 
0.798318 0.569973 -0.194472 0.767985 0.609529 -0.196657 -0.664268 0.632339 -0.398618 
-0.641852 0.649658 -0.407395 0.539237 0.803502 -0.252206 0.633777 0.743921 -0.211916 
0.607244 0.764778 -0.215335 -0.526621 0.727529 -0.43974 -0.514125 0.734302 -0.443257 
-0.386116 0.789541 -0.477011 0.306206 0.904991 -0.295347 0.52636 0.807664 -0.265753 
0.44034 0.838151 -0.321877 -0.227394 0.877973 -0.421254 -0.214937 0.881702 -0.420005 
-0.0738255 0.930429 -0.358959 -0.0311136 0.942549 -0.332616 0.0245438 0.94747 -0.318902 
0.233759 0.930191 -0.283023 0.151412 0.947188 -0.282682 -0.381307 -0.896738 0.224645 
-0.253354 -0.912887 0.320076 -0.0833208 -0.919963 0.383047 0.0630145 -0.897489 0.436512 
0.110459 -0.875403 0.470604 0.132815 -0.871001 0.472988 0.197445 -0.88792 0.415468 
0.315876 -0.862326 0.395748 -0.571009 -0.816211 0.0880317 -0.428849 -0.883937 0.186398 
-0.480332 -0.865115 0.144424 -0.327053 -0.838047 0.436707 -0.140056 -0.713347 0.686673 
-0.0305739 -0.641934 0.76615 0.0671464 -0.635158 0.769458 0.0950601 -0.670004 0.736246 
0.0843984 -0.714326 0.694705 0.161188 -0.769359 0.618146 0.344309 -0.855202 0.387402 
0.312363 -0.840357 0.442978 0.447054 -0.818866 0.360002 0.627351 -0.687687 0.365401 
-0.591717 -0.801746 0.0841095 -0.768928 -0.634064 0.0819277 -0.557631 -0.801872 0.214589 
0.339406 -0.603128 0.721832 0.630494 -0.684799 0.365414 0.626608 -0.684367 0.372832 
-0.803784 -0.588667 0.0860354 -0.761378 -0.575314 0.29886 0.750437 -0.537776 0.38424 
0.517613 -0.404058 0.754198 0.784849 -0.480802 0.390949 -0.922749 -0.365118 0.123382 
-0.979264 -0.161926 0.121748 0.861282 -0.32314 0.392139 0.729648 -0.311226 0.608894 
-0.982222 -0.142731 0.121935 -0.98823 0.0102609 0.15263 -0.977282 -0.142736 0.15667 
0.882563 -0.192769 0.428862 0.679713 -0.147504 0.718493 -0.986111 0.0458825 0.159626 
0.909829 -0.0927417 0.404488 0.616207 -0.0558355 0.785603 -0.977081 0.0913409 0.192275 
0.911325 0.00855959 0.4116 0.630295 -0.0219563 0.776045 -0.96426 0.193215 0.181301 
0.925099 0.118972 0.360608 0.643051 0.000199898 0.765823 -0.921275 0.332448 0.201821 
-0.738595 0.255034 0.624047 0.902292 0.300025 0.309604 0.688182 0.230893 0.687819 
-0.862042 0.489881 0.130003 -0.852272 0.506668 0.130074 -0.847666 0.482929 0.219641 
0.779559 0.551934 0.29607 0.765933 0.571513 0.294482 0.759334 0.555332 0.339143 
-0.777946 0.620211 0.100684 -0.732155 0.676334 0.08075 -0.6449 0.523334 0.556978 
0.55574 0.786114 0.270514 0.402728 0.564404 0.720596 0.636845 0.720784 0.273677 
0.619502 0.736615 0.271323 0.604894 0.706017 0.368297 -0.654628 0.75383 0.0565834 
-0.593728 0.803387 0.045337 -0.520619 0.66173 0.539508 -0.392344 0.918217 0.0542625 
0.326613 0.923817 0.199717 0.539691 0.797421 0.269913 0.465321 0.841383 0.274864 
0.419329 0.705638 0.571173 -0.33103 0.941227 0.0671627 -0.18256 0.978023 0.10071 
-0.149218 0.916032 0.372316 -0.0223925 0.990804 0.133439 -0.00215448 0.891406 0.4532 
0.00921015 0.985708 0.168209 0.0222432 0.899637 0.436073 0.0468687 0.978967 0.198562 
0.0276773 0.890759 0.453632 0.284233 0.940263 0.187398 0.166977 0.971101 0.170537 
0.15471 0.910615 0.383203 -0.338246 -0.664389 0.666466 -0.212025 -0.629152 0.747805 
-0.0949327 -0.582543 0.807237 -0.0268979 -0.595864 0.802635 0.0656072 -0.566806 0.821235 
0.0898333 -0.54915 0.830881 0.058864 -0.52538 0.848829 0.122561 -0.544695 0.82963 
0.193062 -0.498751 0.84497 -0.350563 -0.663237 0.661228 -0.42887 -0.599741 0.67556 
-0.32584 -0.648409 0.688036 -0.124859 -0.450854 0.883822 -0.0785562 -0.380395 0.921482 
-0.00712596 -0.325762 0.945425 0.0619825 -0.365747 0.928648 0.0818874 -0.387755 0.918118 
0.0594558 -0.399633 0.914745 0.111179 -0.429714 0.896094 0.201729 -0.499858 0.842287 
0.190685 -0.493406 0.84864 0.286884 -0.483547 0.82697 -0.568779 -0.490542 0.660196 
-0.672874 -0.374334 0.638055 -0.362955 -0.43689 0.823037 -0.166982 -0.315863 0.933996 
-0.0402308 -0.287741 0.956863 0.00353932 -0.166217 0.986083 -0.00400726 -0.102915 0.994682 
0.0240346 -0.167284 0.985616 0.0647386 -0.171128 0.98312 0.0537656 -0.189441 0.980419 
0.0508846 -0.214537 0.975389 0.133564 -0.303722 0.943353 0.466487 -0.383775 0.796936 
0.241306 -0.329838 0.912676 0.491132 -0.35054 0.79744 -0.70483 -0.296058 0.644642 
-0.644353 -0.27933 0.711887 -0.275512 -0.265306 0.923962 -0.110528 -0.212 0.970999 
0.0472035 -0.14847 0.98779 0.105536 -0.0692015 0.992005 -0.00349298 0.00385435 0.999986 
-0.00303409 -0.0627034 0.998028 0.062431 -0.0232502 0.997778 0.0288841 -0.0247109 0.999277 
-0.00295902 -0.0876346 0.996148 0.0568561 -0.129828 0.989905 0.21085 -0.192343 0.958408 
0.500963 -0.235496 0.832813 0.434498 -0.200515 0.878069 -0.719088 -0.113923 0.685517 
-0.565897 -0.073526 0.821191 -0.293494 -0.0604932 0.954045 0.109178 -0.0299265 0.993572 
0.154968 -0.0517827 0.986561 0.0021745 -0.0474213 0.998873 -0.00363638 -0.0218483 0.999755 
0.104351 -0.0711902 0.991989 -0.010533 -0.0479555 0.998794 -0.0556221 -0.0176964 0.998295 
0.0302454 -0.037191 0.99885 0.187373 -0.0575404 0.980602 0.572355 -0.13342 0.809079 
0.382918 -0.110357 0.917167 -0.739172 0.0432694 0.672125 -0.579112 0.0281988 0.81476 
-0.284788 0.012773 0.958505 0.0896878 -0.057031 0.994336 0.0271232 -0.218059 0.975559 
-0.0277823 -0.00475324 0.999603 0.030894 -0.0754278 0.996673 0.086571 -0.0547079 0.994742 
0.00927634 -0.00881713 0.999918 0.015326 -0.0224844 0.99963 0.142187 -0.0374891 0.98913 
0.566123 -0.0528425 0.822625 0.341217 -0.0673451 0.937569 -0.722812 0.101265 0.683585 
-0.604576 0.0748533 0.793022 -0.290678 0.0338141 0.956223 -0.0422421 0.0359961 0.998459 
0.0179835 0.0110129 0.999778 -0.0616883 -0.00280086 0.998092 0.15844 -0.0796714 0.984149 
0.0583416 0.0250762 0.997982 0.0502856 0.0483865 0.997562 -0.0277534 -0.0348579 0.999007 
0.0012052 -0.0539423 0.998543 0.14139 -0.0511688 0.988631 0.603813 -0.0243969 0.796753 
0.342882 -0.0345811 0.938742 -0.696829 0.189147 0.691848 -0.684769 0.21526 0.696243 
-0.638018 0.171305 0.750725 -0.290572 0.154207 0.944345 -0.0997831 0.0949674 0.990467 
0.0316351 0.0556136 0.997951 0.0290166 0.0654959 0.997431 -0.0451877 0.172287 0.98401 
0.04684 0.069815 0.99646 0.149348 0.039342 0.988002 0.0223212 -0.00705911 0.999726 
-0.0881491 -0.0226801 0.995849 -0.0022797 -0.0342431 0.999411 0.156164 -0.00265466 0.987728 
0.625306 -0.00173692 0.780378 0.358662 0.0178151 0.933298 -0.661175 0.229531 0.714257 
-0.364772 0.223606 0.903848 -0.153498 0.117544 0.981133 -0.00957962 0.0869817 0.996164 
0.0496442 0.0359941 0.998118 0.0462208 0.0536717 0.997488 0.0161862 0.0789573 0.996747 
-0.00273757 0.00968725 0.999949 -0.0106615 -0.0469972 0.998838 -0.0548627 0.0222738 0.998245 
0.0223222 0.117914 0.992773 0.18908 0.143996 0.971346 0.660311 0.226152 0.716132 
0.360918 0.180095 0.915043 -0.601452 0.334377 0.725567 -0.597169 0.462293 0.655496 
-0.473231 0.27494 0.836935 -0.255133 0.216949 0.942253 -0.0535102 0.0969034 0.993854 
-0.00371664 0.0395237 0.999212 0.00655243 0.0144878 0.999874 0.00287601 -0.0131381 0.99991 
0.0187465 0.0108072 0.999766 0.0366976 0.0423255 0.99843 0.0737525 0.105652 0.991664 
0.124093 0.243228 0.961998 0.377737 0.528534 0.760241 0.239169 0.344163 0.907937 
0.491986 0.450864 0.744763 0.479941 0.461569 0.746064 0.472206 0.439974 0.763835 
-0.586078 0.48049 0.652412 -0.482031 0.60521 0.633535 -0.329861 0.336926 0.881858 
-0.194901 0.268379 0.943391 -0.0329198 0.159547 0.986641 -0.00230872 0.151681 0.988427 
0.0128077 0.156672 0.987568 0.0524565 0.172344 0.983639 0.084955 0.198086 0.976496 
0.152428 0.274872 0.949322 0.37078 0.529824 0.762764 0.329316 0.54402 0.771747 
0.244521 0.392235 0.88677 -0.464396 0.615608 0.636681 -0.300434 0.634983 0.711714 
-0.252827 0.493863 0.831972 -0.101595 0.736753 0.668486 -0.103712 0.420659 0.901271 
0.0174038 0.694295 0.71948 0.0123007 0.408456 0.912695 0.030053 0.688703 0.72442 
0.0242465 0.425934 0.904429 0.0165326 0.668472 0.743554 0.0494054 0.437277 0.897969 
0.127867 0.660093 0.740222 0.132822 0.415641 0.899778 0.331415 0.543316 0.771344 
0.315408 0.557927 0.767617 0.290518 0.4912 0.821171 -0.0581005 -0.1274 0.990148 
-0.172563 -0.0665403 0.982748 0.100734 -0.0328019 0.994372 -0.0317209 -0.0766865 0.996551 
0.0940725 -0.0190369 0.995383 -0.11041 0.0315489 0.993385 -0.0445326 0.035874 0.998364 
-0.0748484 0.0361379 0.99654 0.0718633 -0.00566351 0.997398 0.0181393 0.0109732 0.999775 
0.0707156 -0.00235498 0.997494 0.0362222 -0.126284 0.991333 -0.0383343 -0.0138526 0.999169 
0.0984483 -0.065413 0.99299 -0.0141311 0.0944857 0.995426 0.0382584 -0.0521929 0.997904 

