# vtk DataFile Version 4.2
vtk output
ASCII
DATASET POLYDATA
POINTS 534 float
-22.7633 -34.8397 -17.2109 -30.8327 -26.7703 -19.1645 -22.7633 -26.7703 -20.1758 
-14.6938 -26.7703 -20.3098 -6.62439 -26.7703 -19.2734 1.44504 -26.7703 -17.8931 
-38.9021 -18.7008 -19.5459 -30.8327 -18.7008 -20.5365 -22.7633 -18.7008 -21.0148 
-14.6938 -18.7008 -20.7406 -6.62439 -18.7008 -19.8635 1.44504 -18.7008 -18.9364 
9.51446 -18.7008 -17.575 -46.9715 -10.6314 -19.7721 -38.9021 -10.6314 -21.0106 
-30.8327 -10.6314 -21.094 -22.7633 -10.6314 -20.9459 -14.6938 -10.6314 -21.0916 
-6.62439 -10.6314 -20.4931 1.44504 -10.6314 -19.1711 9.51446 -10.6314 -20.9964 
33.7228 -10.6314 -17.7955 41.7922 -10.6314 -18.1928 -55.041 -2.56199 -17.2512 
-46.9715 -2.56199 -20.1823 -38.9021 -2.56199 -21.8497 -30.8327 -2.56199 -21.2144 
-22.7633 -2.56199 -19.6601 -14.6938 -2.56199 -22.368 -6.62439 -2.56199 -24.0353 
1.44504 -2.56199 -18.7086 9.51446 -2.56199 -23.2328 17.5839 -2.56199 -17.5379 
25.6533 -2.56199 -18.0062 33.7228 -2.56199 -19.1897 41.7922 -2.56199 -19.4899 
49.8616 -2.56199 -18.5755 -46.9715 5.50744 -20.2318 -38.9021 5.50744 -22.2788 
-30.8327 5.50744 -21.6868 -22.7633 5.50744 -20.2428 -14.6938 5.50744 -20.9518 
-6.62439 5.50744 -23.4626 1.44504 5.50744 -21.098 9.51446 5.50744 -21.8938 
17.5839 5.50744 -18.8342 25.6533 5.50744 -19.523 33.7228 5.50744 -20.4457 
41.7922 5.50744 -20.7379 49.8616 5.50744 -20.0863 -46.9715 13.5769 -19.5208 
-38.9021 13.5769 -21.9143 -30.8327 13.5769 -22.6828 -22.7633 13.5769 -21.8615 
-14.6938 13.5769 -20.668 -6.62439 13.5769 -20.807 1.44504 13.5769 -22.2654 
9.51446 13.5769 -21.4036 17.5839 13.5769 -20.1683 25.6533 13.5769 -20.5451 
33.7228 13.5769 -20.9915 41.7922 13.5769 -20.5395 49.8616 13.5769 -17.9793 
-38.9021 21.6463 -20.2563 -30.8327 21.6463 -22.2675 -22.7633 21.6463 -22.0626 
-14.6938 21.6463 -22.1748 -6.62439 21.6463 -21.9454 1.44504 21.6463 -22.691 
9.51446 21.6463 -22.132 17.5839 21.6463 -20.9259 25.6533 21.6463 -20.8103 
33.7228 21.6463 -20.7701 41.7922 21.6463 -19.0814 -30.8327 29.7157 -18.7185 
-22.7633 29.7157 -20.6144 -14.6938 29.7157 -21.3935 -6.62439 29.7157 -21.6815 
1.44504 29.7157 -21.9261 9.51446 29.7157 -21.2168 17.5839 29.7157 -20.1439 
25.6533 29.7157 -18.7335 -6.62439 37.7852 -17.6356 1.44504 37.7852 -17.9941 
-22.7633 -34.8675 -17.1891 -22.8431 -34.8397 -17.1891 -30.8327 -30.5971 -17.1891 
-30.8327 -34.8397 -13.6978 -21.1461 -34.8397 -17.1891 -14.6938 -34.6303 -17.1891 
-14.6938 -34.8397 -17.0813 -6.62439 -32.4708 -17.1891 -6.62439 -34.8397 -16.0839 
1.44504 -28.6873 -17.1891 1.44504 -34.8397 -14.463 9.51446 -34.8397 -12.5591 
-46.9715 -26.7703 -10.3237 -37.6126 -26.7703 -17.1891 -38.9021 -25.6941 -17.1891 
-38.9021 -26.7703 -16.7058 4.55523 -26.7703 -17.1891 9.51446 -20.6087 -17.1891 
9.51446 -26.7703 -16.0043 17.5839 -26.7703 -13.7249 25.6533 -26.7703 -11.8937 
33.7228 -26.7703 -10.824 -55.041 -18.7008 -9.82363 -45.6717 -18.7008 -17.1891 
-46.9715 -17.371 -17.1891 -46.9715 -18.7008 -16.6652 10.8126 -18.7008 -17.1891 
17.5839 -18.7008 -15.3124 25.6533 -18.7008 -15.0631 33.7228 -12.7178 -17.1891 
33.7228 -18.7008 -15.2998 41.7922 -13.1621 -17.1891 41.7922 -18.7008 -14.7179 
49.8616 -18.7008 -12.9057 -52.3867 -10.6314 -17.1891 -55.041 -3.00463 -17.1891 
-55.041 -10.6314 -15.6134 16.055 -10.6314 -17.1891 17.5839 -4.60036 -17.1891 
17.5839 -10.6314 -16.413 28.9243 -10.6314 -17.1891 25.6533 -8.00427 -17.1891 
25.6533 -10.6314 -16.7928 46.7512 -10.6314 -17.1891 49.8616 -7.93148 -17.1891 
49.8616 -10.6314 -16.4922 57.931 -10.6314 -12.724 -55.122 -2.56199 -17.1891 
-55.041 -1.59282 -17.1891 53.8087 -2.56199 -17.1891 57.931 -2.56199 -15.5375 
-54.0606 5.50744 -17.1891 -55.041 5.50744 -16.5044 55.2996 5.50744 -17.1891 
57.931 5.50744 -15.5077 -50.2564 13.5769 -17.1891 -55.041 13.5769 -11.783 
-46.9715 17.9906 -17.1891 51.3045 13.5769 -17.1891 49.8616 16.4679 -17.1891 
57.931 13.5769 -11.6174 -44.167 21.6463 -17.1891 -46.9715 21.6463 -12.4229 
-38.9021 26.0321 -17.1891 33.7228 29.4731 -17.1891 46.6046 21.6463 -17.1891 
41.7922 25.4235 -17.1891 49.8616 21.6463 -14.486 -33.5498 29.7157 -17.1891 
-30.8327 31.1492 -17.1891 -22.7633 34.0436 -17.1891 -14.6938 36.902 -17.1891 
9.51446 37.7318 -17.1891 17.5839 35.0192 -17.1891 33.1481 29.7157 -17.1891 
25.6533 31.7939 -17.1891 33.7228 29.7157 -16.9831 41.7922 29.7157 -10.8187 
-10.204 37.7852 -17.1891 -14.6938 37.7852 -15.444 -6.62439 38.2346 -17.1891 
9.20662 37.7852 -17.1891 1.44504 38.579 -17.1891 9.51446 37.7852 -17.1257 
17.5839 37.7852 -13.1653 -30.8327 -37.704 -9.1197 -22.7633 -40.3134 -9.1197 
-14.6938 -41.3485 -9.1197 -6.62439 -41.5499 -9.1197 -6.62439 -42.9091 -1.59043 
1.44504 -40.6431 -9.1197 1.44504 -42.9091 -1.43404 9.51446 -38.6526 -9.1197 
-46.9715 -27.6428 -9.1197 -36.2419 -34.8397 -9.1197 -38.9021 -33.2803 -9.1197 
17.005 -34.8397 -9.1197 17.5839 -34.4596 -9.1197 17.5839 -34.8397 -8.71994 
25.6533 -30.9189 -9.1197 25.6533 -34.8397 -3.71991 33.7228 -28.3367 -9.1197 
-47.9527 -26.7703 -9.1197 -55.041 -19.3787 -9.1197 39.1462 -26.7703 -9.1197 
41.7922 -25.9221 -9.1197 41.7922 -26.7703 -7.7511 49.8616 -22.992 -9.1197 
49.8616 -26.7703 -2.30114 -55.5733 -18.7008 -9.1197 56.8582 -18.7008 -9.1197 
57.931 -17.5529 -9.1197 57.931 -18.7008 -7.35036 -60.1553 -10.6314 -9.1197 
61.6305 -10.6314 -9.1197 -61.5111 -2.56199 -9.1197 -63.1104 -2.56199 -4.05719 
63.7791 -2.56199 -9.1197 -60.4895 5.50744 -9.1197 63.2043 5.50744 -9.1197 
-56.8193 13.5769 -9.1197 -55.041 15.643 -9.1197 59.6572 13.5769 -9.1197 
57.931 16.1532 -9.1197 -48.7136 21.6463 -9.1197 -46.9715 22.9135 -9.1197 
-38.9021 27.7988 -9.1197 53.473 21.6463 -9.1197 49.8616 24.9242 -9.1197 
-35.1636 29.7157 -9.1197 -30.8327 32.3413 -9.1197 -22.7633 36.3718 -9.1197 
25.6533 36.7073 -9.1197 33.7228 33.9039 -9.1197 42.8709 29.7157 -9.1197 
41.7922 30.3736 -9.1197 -19.5265 37.7852 -9.1197 -14.6938 39.531 -9.1197 
-14.6938 37.7852 -1.66681 -6.62439 41.4147 -9.1197 1.44504 41.8714 -9.1197 
9.51446 41.1938 -9.1197 22.3817 37.7852 -9.1197 17.5839 39.4569 -9.1197 
-6.62439 -42.9902 -1.05027 1.44504 -42.9953 -1.05027 -30.8327 -37.9847 -1.05027 
-22.7633 -40.8512 -1.05027 -7.82561 -42.9091 -1.05027 -14.6938 -42.4363 -1.05027 
-6.62439 -42.9091 -0.736715 2.26033 -42.9091 -1.05027 1.44504 -42.9091 -0.6124 
9.51446 -42.1065 -1.05027 17.5839 -39.5731 -1.05027 25.6533 -36.1423 -1.05027 
-46.9715 -28.9676 -1.05027 -37.3261 -34.8397 -1.05027 -38.9021 -34.0177 -1.05027 
-30.8327 -34.8397 5.97987 28.8656 -34.8397 -1.05027 33.7228 -32.8306 -1.05027 
41.7922 -30.2138 -1.05027 49.8616 -27.2746 -1.05027 -49.7739 -26.7703 -1.05027 
-55.041 -21.8515 -1.05027 -46.9715 -26.7703 5.15906 50.6718 -26.7703 -1.05027 
49.8616 -26.7703 4.42214 57.931 -20.9113 -1.05027 -57.7442 -18.7008 -1.05027 
60.0753 -18.7008 -1.05027 -62.6511 -10.6314 -1.05027 -63.1104 -7.86727 -1.05027 
64.5061 -10.6314 -1.05027 -63.8984 -2.56199 -1.05027 -63.1104 2.04974 -1.05027 
-63.1104 -2.56199 5.69418 65.7398 -2.56199 -1.05027 -62.5037 5.50744 -1.05027 
65.1244 5.50744 -1.05027 -58.7715 13.5769 -1.05027 -55.041 17.2481 -1.05027 
60.5886 13.5769 -1.05027 57.931 17.0932 -1.05027 57.931 13.5769 5.66308 
-49.0483 21.6463 -1.05027 -46.9715 22.8392 -1.05027 -38.9021 27.086 -1.05027 
53.5678 21.6463 -1.05027 49.8616 24.7405 -1.05027 49.8616 21.6463 5.93104 
-32.8239 29.7157 -1.05027 -30.8327 30.6503 -1.05027 -30.8327 29.7157 6.7753 
-22.7633 34.3311 -1.05027 -14.6938 37.6334 -1.05027 25.6533 35.9955 -1.05027 
33.7228 33.2636 -1.05027 42.0388 29.7157 -1.05027 41.7922 29.8696 -1.05027 
41.7922 29.7157 -0.689397 -14.1965 37.7852 -1.05027 -6.62439 40.0285 -1.05027 
1.44504 40.6629 -1.05027 9.51446 40.0428 -1.05027 9.51446 37.7852 6.26722 
19.6128 37.7852 -1.05027 17.5839 38.3575 -1.05027 17.5839 37.7852 0.783096 
-22.7633 -37.1968 7.01915 -14.6938 -39.1852 7.01915 -6.62439 -40.4781 7.01915 
1.44504 -41.2058 7.01915 9.51446 -41.112 7.01915 17.5839 -39.5966 7.01915 
25.6533 -36.6598 7.01915 -38.9021 -30.4548 7.01915 -29.3536 -34.8397 7.01915 
-30.8327 -34.2594 7.01915 -22.7633 -34.8397 9.72283 -14.6938 -34.8397 11.5121 
-6.62439 -34.8397 13.2492 1.44504 -34.8397 15.0619 30.1189 -34.8397 7.01915 
25.6533 -34.8397 11.9703 33.7228 -33.351 7.01915 41.7922 -30.1507 7.01915 
-55.041 -19.4386 7.01915 -45.6658 -26.7703 7.01915 -46.9715 -25.9963 7.01915 
-38.9021 -26.7703 11.8324 -30.8327 -26.7703 14.1982 49.2639 -26.7703 7.01915 
41.7922 -26.7703 14.1404 49.8616 -26.4375 7.01915 57.931 -19.3562 7.01915 
-55.731 -18.7008 7.01915 -55.041 -18.7008 7.98365 58.5151 -18.7008 7.01915 
57.931 -18.7008 7.93466 -61.1564 -10.6314 7.01915 62.816 -10.6314 7.01915 
57.931 -10.6314 13.4237 -62.9418 -2.56199 7.01915 63.8211 -2.56199 7.01915 
57.931 -2.56199 14.9529 -61.5909 5.50744 7.01915 62.4881 5.50744 7.01915 
57.931 12.5843 7.01915 57.931 5.50744 13.6502 -57.5181 13.5769 7.01915 
-55.041 15.9181 7.01915 -55.041 13.5769 10.7673 57.2659 13.5769 7.01915 
49.8616 21.0747 7.01915 -47.3207 21.6463 7.01915 -46.9715 21.8516 7.01915 
-46.9715 21.6463 7.66954 -38.9021 26.1512 7.01915 -30.8327 29.685 7.01915 
49.0739 21.6463 7.01915 41.7922 26.2533 7.01915 -30.7593 29.7157 7.01915 
-22.7633 33.1475 7.01915 -14.6938 36.1614 7.01915 9.51446 37.5325 7.01915 
17.5839 35.6805 7.01915 25.6533 33.0796 7.01915 25.6533 29.7157 13.1191 
34.4586 29.7157 7.01915 33.7228 30.0429 7.01915 33.7228 29.7157 7.73491 
-7.49059 37.7852 7.01915 -6.62439 37.9754 7.01915 -6.62439 37.7852 7.46292 
7.03447 37.7852 7.01915 1.44504 38.3303 7.01915 1.44504 37.7852 8.17348 
9.51446 -36.238 15.0886 17.5839 -35.7672 15.0886 -22.7633 -27.7409 15.0886 
-14.6938 -28.839 15.0886 -6.62439 -31.3223 15.0886 1.58241 -34.8397 15.0886 
1.44504 -34.7958 15.0886 9.51446 -34.8397 16.445 20.9631 -34.8397 15.0886 
17.5839 -34.8397 16.0745 25.6533 -33.2361 15.0886 33.7228 -29.8117 15.0886 
-46.9715 -19.1088 15.0886 -38.9021 -23.1548 15.0886 -26.2357 -26.7703 15.0886 
-30.8327 -25.4559 15.0886 -22.7633 -26.7703 15.6276 -14.6938 -26.7703 16.0467 
-6.62439 -26.7703 17.0249 1.44504 -26.7703 18.7584 9.51446 -26.7703 20.2803 
[...]
POINT_DATA 534
SCALARS ImageScalars float
LOOKUP_TABLE default
0 0 0 0 0 0 0 0 0 
0 0 0 0 0 0 0 0 0 
0 0 0 0 0 0 0 0 0 
0 0 0 0 0 0 0 0 0 
0 0 0 0 0 0 0 0 0 
0 0 0 0 0 0 0 0 0 
0 0 0 0 0 0 0 0 0 
0 0 0 0 0 0 0 0 0 
0 0 0 0 0 0 0 0 0 
0 0 0 0 0 0 0 0 0 
0 0 0 0 0 0 0 0 0 
0 0 0 0 0 0 0 0 0 
0 0 0 0 0 0 0 0 0 
0 0 0 0 0 0 0 0 0 
0 0 0 0 0 0 0 0 0 
0 0 0 0 0 0 0 0 0 
0 0 0 0 0 0 0 0 0 
0 0 0 0 0 0 0 0 0 
0 0 0 0 0 0 0 0 0 
0 0 0 0 0 0 0 0 0 
0 0 0 0 0 0 0 0 0 
0 0 0 0 0 0 0 0 0 
0 0 0 0 0 0 0 0 0 
0 0 0 0 0 0 0 0 0 
0 0 0 0 0 0 0 0 0 
0 0 0 0 0 0 0 0 0 
0 0 0 0 0 0 0 0 0 
0 0 0 0 0 0 0 0 0 
0 0 0 0 0 0 0 0 0 
0 0 0 0 0 0 0 0 0 
0 0 0 0 0 0 0 0 0 
0 0 0 0 0 0 0 0 0 
0 0 0 0 0 0 0 0 0 
0 0 0 0 0 0 0 0 0 
0 0 0 0 0 0 0 0 0 
0 0 0 0 0 0 0 0 0 
0 0 0 0 0 0 0 0 0 
0 0 0 0 0 0 0 0 0 
0 0 0 0 0 0 0 0 0 
0 0 0 0 0 0 0 0 0 
0 0 0 0 0 0 0 0 0 
0 0 0 0 0 0 0 0 0 
0 0 0 0 0 0 0 0 0 
0 0 0 0 0 0 0 0 0 
0 0 0 0 0 0 0 0 0 
0 0 0 0 0 0 0 0 0 
0 0 0 0 0 0 0 0 0 
0 0 0 0 0 0 0 0 0 
0 0 0 0 0 0 0 0 0 
0 0 0 0 0 0 0 0 0 
0 0 0 0 0 0 0 0 0 
0 0 0 0 0 0 0 0 0 
0 0 0 0 0 0 0 0 0 
0 0 0 0 0 0 0 0 0 
0 0 0 0 0 0 0 0 0 
0 0 0 0 0 0 0 0 0 
0 0 0 0 0 0 0 0 0 
0 0 0 0 0 0 0 0 0 
0 0 0 0 0 0 0 0 0 
0 0 0 
NORMALS Normals float
-0.12518 -0.566566 -0.814452 -0.186986 -0.307739 -0.932917 -0.0654801 -0.222487 -0.972734 
0.0582193 -0.198352 -0.9784 0.144167 -0.197306 -0.969684 0.194544 -0.236647 -0.95192 
-0.212137 -0.226916 -0.95053 -0.0858538 -0.109666 -0.990254 -0.0123039 -0.0456867 -0.99888 
0.0702312 -0.0470018 -0.996423 0.111229 -0.0728698 -0.99112 0.13217 -0.0781908 -0.988138 
0.221422 -0.27515 -0.935556 -0.298669 -0.192479 -0.934745 -0.0713318 -0.139698 -0.987622 
0.00427564 -0.0416504 -0.999123 0.000148841 0.0843746 -0.996434 0.0250225 -0.0766502 -0.996744 
0.123574 -0.21915 -0.967834 -0.0232285 0.00952938 -0.999685 0.114152 -0.35478 -0.927955 
-0.0883198 -0.227545 -0.969754 0.073331 -0.271338 -0.959686 -0.572295 -0.0376876 -0.819182 
-0.272686 -0.0239061 -0.961806 -0.0734848 -0.0774184 -0.994287 0.135609 -0.0371244 -0.990067 
-0.0154897 0.0442039 -0.998902 -0.296994 -0.0104337 -0.954822 0.228663 -0.191226 -0.95454 
-0.0201313 -0.127909 -0.991582 0.0319548 -0.0415248 -0.998626 0.332754 -0.15399 -0.930356 
-0.0957086 -0.17063 -0.980676 -0.0907613 -0.15908 -0.983085 0.0348752 -0.159624 -0.986562 
0.224388 -0.20405 -0.952898 -0.316802 0.0297621 -0.948025 -0.0968113 -0.00471979 -0.995292 
0.12539 -0.0860965 -0.988365 0.0555365 -0.13936 -0.988683 -0.206108 0.0855636 -0.974781 
0.0162893 0.20883 -0.977816 0.0833188 -0.197725 -0.97671 0.14472 0.110434 -0.983291 
0.138351 -0.142024 -0.980147 -0.0983445 -0.155845 -0.982874 -0.0739059 -0.110019 -0.991178 
0.0173832 -0.0654737 -0.997703 0.284346 0.0274796 -0.958328 -0.443584 0.254186 -0.859432 
-0.166267 0.121318 -0.978589 0.00742824 -0.0357865 -0.999332 0.114628 -0.113403 -0.986914 
0.0678257 -0.0817368 -0.994343 -0.0986386 0.073244 -0.992424 -0.0400179 -0.0953796 -0.994636 
0.133239 -0.016622 -0.990945 0.0480829 -0.127981 -0.99061 -0.050385 -0.0781081 -0.995671 
-0.00115332 -0.0213946 -0.99977 0.166031 0.0989551 -0.981143 0.390649 0.238188 -0.889191 
-0.398901 0.416282 -0.81706 -0.103248 0.199899 -0.974362 0.00681875 0.0734831 -0.997273 
0.00736206 -0.042879 -0.999053 -0.0321244 -0.053398 -0.998056 -0.0118442 0.0195229 -0.999739 
0.109919 0.0128746 -0.993857 0.0819273 0.00213474 -0.996636 0.00954603 0.093456 -0.995578 
0.109301 0.225117 -0.968182 0.285883 0.326278 -0.901007 -0.369299 0.725257 -0.581051 
-0.156853 0.461193 -0.873326 -0.0747031 0.301064 -0.950673 -0.0307108 0.224471 -0.973997 
0.0275443 0.250516 -0.967721 0.110688 0.264808 -0.957927 0.142897 0.292492 -0.945531 
0.191079 0.464374 -0.864781 -0.0729417 0.729053 -0.68056 0.0265235 0.70643 -0.707286 
-0.125574 -0.567934 -0.813438 -0.127386 -0.567857 -0.81321 -0.267788 -0.490086 -0.829521 
-0.369951 -0.759084 -0.535656 -0.0885793 -0.5616 -0.822654 0.05953 -0.524608 -0.84926 
0.0586103 -0.536658 -0.841762 0.140168 -0.424673 -0.894431 0.134671 -0.544229 -0.828057 
0.194637 -0.300082 -0.933845 0.183741 -0.550607 -0.814291 0.275689 -0.552994 -0.786253 
-0.607055 -0.688286 -0.397174 -0.335815 -0.450738 -0.827082 -0.343593 -0.441462 -0.828888 
-0.373007 -0.489375 -0.788275 0.21538 -0.245115 -0.945267 0.226887 -0.267402 -0.936493 
0.243305 -0.260923 -0.934196 0.239963 -0.312698 -0.919042 0.161854 -0.475789 -0.864539 
0.187443 -0.674937 -0.71367 -0.722982 -0.53796 -0.433469 -0.38644 -0.344856 -0.855417 
-0.398724 -0.343144 -0.850453 -0.428705 -0.377017 -0.821018 0.210185 -0.254339 -0.943999 
0.147195 -0.159131 -0.976223 0.00220414 -0.286007 -0.958225 -0.0628687 -0.255759 -0.964694 
0.0201122 -0.361345 -0.932215 0.0864072 -0.336119 -0.937847 0.121888 -0.495924 -0.859769 
0.323164 -0.558114 -0.764247 -0.487043 -0.26057 -0.833602 -0.573817 -0.0506136 -0.817418 
-0.607811 -0.279773 -0.743164 0.243101 -0.191074 -0.950996 0.312483 -0.157065 -0.936848 
0.244076 -0.146267 -0.958662 -0.0853795 -0.195977 -0.976885 -0.0905178 -0.173051 -0.980745 
-0.0816888 -0.174075 -0.981338 0.20067 -0.287433 -0.936544 0.262038 -0.261554 -0.928938 
0.284497 -0.298079 -0.911159 0.583034 -0.370304 -0.72315 -0.575871 -0.0375864 -0.816676 
-0.578654 -0.0132752 -0.815465 0.325089 -0.173412 -0.929648 0.49317 -0.142633 -0.85816 
-0.573263 0.154551 -0.804663 -0.622836 0.17173 -0.763272 0.472919 0.0928392 -0.876201 
0.620035 0.148738 -0.770346 -0.554307 0.35813 -0.751323 -0.740939 0.509412 -0.437618 
-0.570148 0.482289 -0.665078 0.444792 0.257709 -0.857757 0.456225 0.309521 -0.834299 
0.769944 0.450072 -0.452351 -0.583522 0.55591 -0.592001 -0.607936 0.733398 -0.304206 
-0.534938 0.640742 -0.550719 0.230291 0.601595 -0.764885 0.449578 0.408562 -0.794328 
0.346745 0.52207 -0.779237 0.605705 0.553887 -0.571254 -0.448234 0.764268 -0.46366 
-0.38868 0.790705 -0.472984 -0.280269 0.764109 -0.581022 -0.215047 0.775604 -0.593459 
0.150329 0.720727 -0.676723 0.227096 0.628884 -0.743594 0.231915 0.603645 -0.762777 
0.227567 0.579051 -0.782888 0.239429 0.623096 -0.744597 0.465897 0.850961 -0.242496 
-0.141658 0.773727 -0.617478 -0.248511 0.862769 -0.440309 -0.0785559 0.752214 -0.65422 
0.145936 0.723429 -0.674799 0.0275089 0.747881 -0.663262 0.150808 0.726199 -0.67074 
0.270461 0.884637 -0.379826 -0.385334 -0.881727 -0.272167 -0.213219 -0.934751 -0.284216 
-0.0722984 -0.939029 -0.336152 0.0336193 -0.904057 -0.426089 -0.0304851 -0.999196 0.026053 
0.143578 -0.838772 -0.525211 0.0559843 -0.997847 -0.0341763 0.283872 -0.7517 -0.595284 
-0.613717 -0.717263 -0.329977 -0.460125 -0.844083 -0.275335 -0.497616 -0.817297 -0.290524 
0.339413 -0.663067 -0.667189 0.338493 -0.653362 -0.677156 0.344823 -0.678967 -0.648152 
0.266113 -0.637417 -0.723107 0.360542 -0.854342 -0.374313 0.224099 -0.730248 -0.645381 
-0.624898 -0.704809 -0.335777 -0.730703 -0.555936 -0.396241 0.236471 -0.744922 -0.623838 
0.239462 -0.744187 -0.623573 0.262695 -0.794515 -0.547483 0.377554 -0.712692 -0.591205 
0.452612 -0.865526 -0.214493 -0.740486 -0.54059 -0.399304 0.581069 -0.612 -0.536484 
0.620141 -0.576912 -0.531599 0.646947 -0.632254 -0.42628 -0.837602 -0.301105 -0.455806 
0.765472 -0.357477 -0.535035 -0.876738 -0.0164263 -0.480687 -0.977192 0.00276879 -0.21234 
0.905759 -0.0762612 -0.416875 -0.876407 0.225819 -0.425342 0.894619 0.224372 -0.386411 
-0.780294 0.533393 -0.326547 -0.745211 0.596073 -0.298926 0.823329 0.464543 -0.326082 
0.784121 0.539654 -0.306476 -0.598578 0.782827 -0.16996 -0.572649 0.807204 -0.143161 
-0.507959 0.860986 -0.026086 0.685044 0.691302 -0.229818 0.627817 0.755459 -0.187424 
-0.487211 0.873015 0.0216901 -0.448961 0.892662 0.0398598 -0.39555 0.918444 -0.00133407 
0.315793 0.93701 -0.149289 0.361931 0.920093 -0.149783 0.488339 0.861889 -0.136649 
0.469417 0.872107 -0.138119 -0.353456 0.935443 -0.00397858 -0.293058 0.955862 -0.0210947 
-0.319448 0.929361 0.185042 -0.14432 0.986001 -0.0835065 0.0137714 0.995259 -0.0962831 
0.145206 0.98344 -0.108452 0.294391 0.94691 -0.129212 0.273787 0.954265 -0.120076 
-0.0338216 -0.997997 0.0534646 0.0523577 -0.99853 -0.0140356 -0.383583 -0.908 0.168521 
-0.259812 -0.953606 0.152095 -0.0477188 -0.997071 0.0597766 -0.129029 -0.986876 0.0970962 
-0.0360706 -0.997081 0.0672981 0.0657708 -0.997609 -0.02122 0.0487493 -0.998792 0.00610159 
0.193094 -0.976235 -0.0983887 0.350324 -0.910946 -0.21783 0.372948 -0.895083 -0.24441 
-0.583069 -0.809594 0.0677411 -0.476777 -0.866642 0.14702 -0.49433 -0.858208 0.138263 
-0.348161 -0.799797 0.488987 0.353137 -0.901401 -0.25054 0.325949 -0.909697 -0.25731 
0.329894 -0.921291 -0.205897 0.457243 -0.876297 -0.151766 -0.626013 -0.777584 0.058907 
-0.735195 -0.677802 0.00854083 -0.542208 -0.75962 0.359149 0.478306 -0.865253 -0.150203 
0.497698 -0.854742 0.147353 0.704711 -0.705403 -0.076079 -0.796881 -0.603977 -0.0138696 
0.764331 -0.641842 -0.0619484 -0.940667 -0.334351 -0.0579165 -0.974334 -0.215648 -0.0645634 
0.949766 -0.307421 -0.0586299 -0.99764 0.0098683 -0.0679448 -0.988869 0.133294 -0.0661054 
-0.967294 -0.00915946 0.253491 0.999254 -0.036793 -0.011758 -0.969507 0.237321 -0.0611117 
0.948207 0.317153 0.0178065 -0.791625 0.609572 -0.0418537 -0.689659 0.724084 -0.00849979 
0.829734 0.547579 0.108161 0.762059 0.63539 0.124685 0.755869 0.540637 0.369288 
-0.536369 0.843096 0.0386991 -0.504769 0.861626 0.0529987 -0.401487 0.911168 0.0926364 
0.650531 0.742758 0.158495 0.58235 0.794995 0.169861 0.566241 0.727248 0.38792 
-0.404748 0.906537 0.119876 -0.413224 0.900442 0.13583 -0.399059 0.908912 0.120958 
-0.406711 0.898239 0.166594 -0.321172 0.925579 0.20038 0.293243 0.93427 0.202848 
0.338579 0.917395 0.209167 0.480811 0.85036 0.213796 0.477252 0.852006 0.215212 
0.47554 0.85058 0.224444 -0.312382 0.928304 0.201668 -0.175676 0.962529 0.206583 
0.000925677 0.977737 0.209833 0.13931 0.96676 0.214401 0.148012 0.924308 0.351776 
0.254281 0.944443 0.20825 0.239643 0.947101 0.213471 0.241743 0.93902 0.244543 
-0.248357 -0.784669 0.567991 -0.173898 -0.813308 0.555238 -0.110433 -0.864789 0.489842 
-0.0332549 -0.914208 0.403879 0.0965719 -0.949531 0.298438 0.257261 -0.946439 0.195117 
0.358651 -0.924006 0.132596 -0.371735 -0.790999 0.485936 -0.3208 -0.774411 0.545321 
-0.33203 -0.773339 0.540096 -0.223613 -0.703366 0.674739 -0.163884 -0.626468 0.762024 
-0.167419 -0.571233 0.803532 -0.15914 -0.588542 0.792649 0.362559 -0.922566 0.132 
0.328245 -0.859211 0.392442 0.368383 -0.919184 0.139269 0.389752 -0.900353 0.193543 
-0.67308 -0.640969 0.368947 -0.493263 -0.741751 0.454419 -0.516871 -0.730061 0.447052 
-0.317098 -0.701882 0.637817 -0.169426 -0.587231 0.791489 0.491595 -0.823874 0.282073 
0.411747 -0.735365 0.53824 0.504737 -0.812934 0.29048 0.730919 -0.59699 0.330697 
-0.689902 -0.621773 0.370721 -0.669378 -0.619792 0.409623 0.743123 -0.577843 0.33744 
0.733643 -0.569851 0.370186 -0.87664 -0.366626 0.311589 0.871295 -0.284333 0.399999 
0.701686 -0.238822 0.671268 -0.947972 -0.0141032 0.318041 0.90428 0.0138772 0.426713 
0.707439 -0.0158043 0.706598 -0.926865 0.23605 0.291893 0.826807 0.347414 0.442372 
0.749363 0.50996 0.422369 0.726732 0.291266 0.622113 -0.742428 0.614777 0.266178 
-0.685735 0.68047 0.258316 -0.688419 0.590802 0.420752 0.732955 0.536347 0.418459 
0.564744 0.710408 0.419982 -0.508671 0.841283 0.183019 -0.50232 0.845447 0.181367 
-0.50678 0.837952 0.202511 -0.407039 0.898469 0.164536 -0.398656 0.909085 0.120987 
0.550052 0.724147 0.415997 0.435161 0.807673 0.397868 -0.398589 0.909098 0.121108 
-0.379818 0.912074 0.154466 -0.270516 0.933608 0.234941 0.148911 0.917925 0.367748 
0.245502 0.897419 0.366562 0.304095 0.869327 0.389612 0.267378 0.779971 0.565822 
0.358018 0.852689 0.380453 0.352277 0.856396 0.377475 0.351552 0.849785 0.392781 
-0.138985 0.940137 0.311169 -0.123661 0.93934 0.319919 -0.11974 0.935107 0.333522 
0.110598 0.924117 0.365753 0.0249101 0.931855 0.361975 0.0269094 0.917843 0.39603 
-0.0398334 -0.710223 0.702849 0.146135 -0.752703 0.641937 -0.110504 -0.459724 0.88116 
-0.0956395 -0.398722 0.912071 -0.164426 -0.434109 0.885728 -0.157579 -0.589226 0.792453 
-0.159664 -0.586318 0.794191 -0.0550075 -0.63931 0.766979 0.207429 -0.759698 0.616305 
0.135612 -0.711285 0.689698 0.276817 -0.747585 0.60373 0.327467 -0.732762 0.596511 
-0.390229 -0.558964 0.731629 -0.243358 -0.577596 0.779204 -0.125544 -0.49802 0.85803 
-0.140464 -0.551229 0.822445 -0.0953385 -0.435171 0.895286 -0.0790285 -0.347429 0.93437 
-0.158631 -0.322707 0.933111 -0.19237 -0.297703 0.935076 -0.122157 -0.279328 0.952394 
0.0241464 -0.306104 0.951692 0.165215 -0.437455 0.883933 0.395462 -0.702566 0.591617 
0.269222 -0.603977 0.750154 0.405535 -0.689212 0.60044 0.496669 -0.548814 0.6724 
-0.404055 -0.551739 0.729605 -0.562798 -0.400135 0.723291 -0.387793 -0.549278 0.74021 
-0.188654 -0.459684 0.867814 -0.0300722 -0.384484 0.922642 0.0360258 -0.313669 0.948849 
-0.0426287 -0.294422 0.954724 -0.135749 -0.323398 0.936475 -0.147055 -0.195229 0.96967 
-0.0846825 -0.105725 0.990783 -0.0178116 -0.0692239 0.997442 0.0218645 -0.184663 0.982559 
0.124949 -0.297629 0.94647 0.27854 -0.391328 0.877085 0.547898 -0.493855 0.675215 
0.480779 -0.493279 0.724933 -0.594515 -0.360841 0.718572 -0.54893 -0.359014 0.754841 
-0.302845 -0.304743 0.903004 -0.0924611 -0.240895 0.966137 0.0165746 -0.197121 0.980239 
0.0206953 -0.194702 0.980644 -0.107222 -0.268388 0.957325 -0.0560142 -0.253939 0.965597 
0.0402103 -0.0934445 0.994812 -0.00540518 -0.114113 0.993453 -0.0667613 -0.0357996 0.997127 
-0.0837283 -0.0859191 0.992778 0.210991 -0.203779 0.956011 0.630763 -0.227468 0.741887 
0.448989 -0.214281 0.867463 -0.697194 -0.0229869 0.716514 -0.591887 -0.0457048 0.804724 
-0.268767 -0.0618639 0.961216 -0.0881278 -0.0790908 0.992964 0.0195369 -0.0945309 0.99533 
-0.0223247 -0.113633 0.993272 -0.103212 -0.11101 0.988445 -0.00973515 -0.0902802 0.995869 
0.0150414 -0.0457913 0.998838 0.701687 -0.0166423 0.712291 0.430112 -0.0402284 0.901879 
-0.707881 0.21519 0.672753 -0.667601 0.351471 0.656336 -0.641819 0.212304 0.736882 
-0.312384 0.0780462 0.946744 -0.126137 -0.0122909 0.991937 -0.0156897 -0.099766 0.994887 
0.0019041 -0.0755986 0.997137 -0.0376753 -0.0269738 0.998926 0.0521025 0.0151924 0.998526 
0.686485 0.275519 0.672925 0.481957 0.207975 0.851154 -0.606779 0.512712 0.60741 
-0.540736 0.652875 0.530433 -0.471018 0.397325 0.787576 -0.239392 0.210595 0.947809 
0.0516003 0.0367424 0.997992 -0.0169151 0.0531388 0.998444 0.0352236 0.131326 0.990713 
-0.0109883 0.187917 0.982123 0.105929 0.277129 0.954976 0.310825 0.412136 0.856465 
0.59422 0.502398 0.628091 0.566226 0.537008 0.625308 0.55179 0.493142 0.672562 
-0.495743 0.722213 0.482335 -0.455113 0.762321 0.46015 -0.413385 0.653076 0.634511 
-0.401174 0.812618 0.422743 -0.221991 0.476427 0.850727 -0.0582464 0.285426 0.956629 
0.0172396 0.246534 0.968981 -0.0199414 0.260357 0.965307 0.00263404 0.313774 0.949494 
0.0971681 0.273974 0.956816 0.0959783 0.309129 0.946165 0.242619 0.717987 0.652404 
0.119327 0.452722 0.883631 0.306008 0.714936 0.62867 0.246766 0.577698 0.778056 
0.424097 0.686934 0.590139 0.420439 0.689376 0.589908 0.41917 0.685323 0.595507 
-0.347795 0.835417 0.425578 -0.255838 0.850994 0.458645 -0.229648 0.773529 0.59069 
-0.121846 0.8042 0.581735 -0.0732962 0.619135 0.781857 -0.0241711 0.742855 0.669015 
-0.00165285 0.552628 0.833426 0.0349597 0.733446 0.678848 0.0267566 0.576392 0.816735 
0.121509 0.741263 0.660124 0.110346 0.596992 0.794622 0.236854 0.720978 0.651223 
0.222963 0.714092 0.663596 0.212618 0.658255 0.722145 0.0465541 -0.171435 0.984095 
-0.00838993 -0.141452 0.98991 -0.0193338 -0.136114 0.990504 -0.0660053 -0.0954142 0.993247 
-0.0841971 -0.0729845 0.993773 0.0974538 -0.166678 0.981183 0.0294554 -0.143967 0.989144 
0.191097 -0.0818961 0.978149 -0.0261234 -0.0687055 0.997295 0.0219501 -0.0527771 0.998365 
0.033526 -0.0375738 0.998731 -0.0205559 -0.127574 0.991616 -0.046726 -0.120693 0.99159 
-0.0062333 -0.0986312 0.995105 -0.0247014 -0.144213 0.989238 -0.0550803 -0.0288469 0.998065 
-0.0850013 -0.0215477 0.996148 0.00644471 -0.0153198 0.999862 0.199179 -0.052867 0.978536 
0.186648 -0.0522238 0.981038 -0.0200525 -0.0598975 0.998003 -0.0375402 -0.00742954 0.999268 
-0.037512 0.00948992 0.999251 -0.0604316 -0.129627 0.98972 0.0505524 0.0164852 0.998585 
0.0444946 0.0213537 0.998781 -0.00051407 0.0271354 0.999632 -0.0371136 0.100155 0.994279 
-0.0547265 0.0390678 0.997737 0.0474322 0.171087 0.984113 -0.000628346 0.0833371 0.996521 
0.204496 0.139936 0.968813 0.184138 0.167289 0.96856 0.16759 0.131674 0.977024 
-0.1386 0.152726 0.978501 0.0451404 0.0417864 0.998106 -0.0783186 0.192626 0.978142 
-0.0400393 0.0996194 0.99422 -0.0274923 0.0606196 0.997782 -0.0606666 0.112286 0.991822 
-0.0671088 0.0889324 0.993774 0.00361292 0.209489 0.977804 0.00199745 0.0690217 0.997613 
0.104127 0.149396 0.983279 0.115289 0.164065 0.979689 0.116722 0.15242 0.981399 

