# vtk DataFile Version 4.2
vtk output
ASCII
DATASET POLYDATA
POINTS 552 float
-34.5335 8.83669 -20.0907 -27.062 -35.9925 -12.9428 -19.5905 -35.9925 -13.8118 
-12.1189 -35.9925 -14.3491 -4.6474 -35.9925 -13.6179 2.82413 -35.9925 -12.6675 
-34.5335 -28.521 -14.0799 -27.062 -28.521 -15.4994 -19.5905 -28.521 -15.6025 
-12.1189 -28.521 -16.4896 -4.6474 -28.521 -16.3259 2.82413 -28.521 -15.826 
10.2957 -28.521 -14.6286 17.7672 -28.521 -13.7894 -42.0051 -21.0494 -13.6702 
-34.5335 -21.0494 -14.5092 -27.062 -21.0494 -15.2147 -19.5905 -21.0494 -15.5776 
-12.1189 -21.0494 -16.2627 -4.6474 -21.0494 -16.4549 2.82413 -21.0494 -15.6088 
10.2957 -21.0494 -14.8964 17.7672 -21.0494 -13.8303 25.2387 -21.0494 -12.7066 
-42.0051 -13.5779 -14.1105 -34.5335 -13.5779 -16.3342 -27.062 -13.5779 -15.2456 
-19.5905 -13.5779 -14.329 -12.1189 -13.5779 -14.512 -4.6474 -13.5779 -16.8601 
2.82413 -13.5779 -14.7781 10.2957 -13.5779 -13.8328 17.7672 -13.5779 -12.8616 
25.2387 -13.5779 -12.7679 32.7103 -13.5779 -12.6423 -49.4766 -6.10638 -14.0163 
-42.0051 -6.10638 -16.6221 -34.5335 -6.10638 -16.9943 -27.062 -6.10638 -15.9917 
-19.5905 -6.10638 -14.2293 -12.1189 -6.10638 -13.9962 -4.6474 -6.10638 -18.9305 
2.82413 -6.10638 -15.438 10.2957 -6.10638 -15.4581 17.7672 -6.10638 -12.8437 
25.2387 -6.10638 -13.6261 32.7103 -6.10638 -14.0756 40.1818 -6.10638 -13.2981 
-49.4766 1.36516 -15.9432 -42.0051 1.36516 -18.0998 -34.5335 8.2197 -20.0001 
-34.5335 1.36516 -18.9093 -27.062 1.36516 -18.5586 -19.5905 1.36516 -16.9929 
-12.1189 1.36516 -16.4122 -4.6474 1.36516 -16.2664 2.82413 1.36516 -13.6116 
10.2957 1.36516 -17.9527 17.7672 1.36516 -13.7708 25.2387 1.36516 -14.3647 
32.7103 1.36516 -14.9145 40.1818 1.36516 -14.5956 47.6533 1.36516 -13.1237 
-49.4766 8.83669 -15.9434 -35.4529 8.83669 -20.0001 -42.0051 8.83669 -19.3359 
-31.489 8.83669 -20.0001 -34.5335 10.6504 -20.0001 -27.062 8.83669 -19.8581 
-19.5905 8.83669 -17.7794 -12.1189 8.83669 -15.4628 -4.6474 8.83669 -15.0192 
2.82413 8.83669 -15.2161 10.2957 8.83669 -15.2028 17.7672 8.83669 -14.9559 
25.2387 8.83669 -15.6086 32.7103 8.83669 -15.8004 40.1818 8.83669 -15.3416 
47.6533 8.83669 -14.0747 -49.4766 16.3082 -14.8441 -42.0051 16.3082 -19.7677 
-34.5335 16.3082 -19.7076 -27.062 16.3082 -19.1454 -19.5905 16.3082 -17.4262 
-12.1189 16.3082 -15.2672 -4.6474 16.3082 -14.1103 2.82413 16.3082 -14.0208 
10.2957 16.3082 -15.1033 17.7672 16.3082 -16.0995 25.2387 16.3082 -16.7763 
32.7103 16.3082 -16.0874 40.1818 16.3082 -15.0347 47.6533 16.3082 -13.5581 
-42.0051 23.7798 -16.617 -34.5335 23.7798 -18.0898 -27.062 23.7798 -17.9091 
-19.5905 23.7798 -17.5757 -12.1189 23.7798 -16.1064 -4.6474 23.7798 -15.6078 
2.82413 23.7798 -15.0526 10.2957 23.7798 -15.1073 17.7672 23.7798 -15.8761 
25.2387 23.7798 -15.4854 32.7103 23.7798 -15.0083 40.1818 23.7798 -13.8428 
-34.5335 31.2513 -15.7106 -27.062 31.2513 -16.8357 -19.5905 31.2513 -16.1534 
-12.1189 31.2513 -16.1727 -4.6474 31.2513 -15.8943 2.82413 31.2513 -14.8345 
10.2957 31.2513 -14.5753 17.7672 31.2513 -13.7637 25.2387 31.2513 -12.781 
-27.062 38.7228 -13.6541 -19.5905 38.7228 -14.399 -12.1189 38.7228 -15.0577 
-4.6474 38.7228 -14.2208 -27.062 -36.6435 -12.5286 -19.5905 -37.8049 -12.5286 
-12.1189 -38.1669 -12.5286 -4.6474 -37.3301 -12.5286 2.82413 -36.1528 -12.5286 
-42.0051 -35.9925 -5.33524 -28.3863 -35.9925 -12.5286 -34.5335 -32.0788 -12.5286 
-34.5335 -35.9925 -9.97853 3.9823 -35.9925 -12.5286 10.2957 -34.2649 -12.5286 
10.2957 -35.9925 -11.6531 17.7672 -31.6984 -12.5286 17.7672 -35.9925 -10.2332 
25.2387 -35.9925 -7.3728 -38.1095 -28.521 -12.5286 -42.0051 -23.5319 -12.5286 
-42.0051 -28.521 -10.3654 24.249 -28.521 -12.5286 25.2387 -24.7707 -12.5286 
25.2387 -28.521 -12.3158 32.7103 -28.521 -9.66439 40.1818 -28.521 -5.42361 
-46.4956 -21.0494 -12.5286 -49.4766 -21.0494 -10.9983 27.9925 -21.0494 -12.5286 
32.7103 -15.6253 -12.5286 32.7103 -21.0494 -12.1863 40.1818 -21.0494 -9.4924 
47.6533 -21.0494 -5.52111 -46.4146 -13.5779 -12.5286 -49.4766 -9.88784 -12.5286 
-49.4766 -13.5779 -11.1613 33.9007 -13.5779 -12.5286 40.1818 -10.2965 -12.5286 
40.1818 -13.5779 -11.87 47.6533 -13.5779 -9.40229 55.1249 -13.5779 -5.22269 
-51.2172 -6.10638 -12.5286 43.6387 -6.10638 -12.5286 47.6533 -1.49037 -12.5286 
47.6533 -6.10638 -11.6404 55.1249 -6.10638 -8.57521 -54.2453 1.36516 -12.5286 
-56.9481 1.36516 -6.90528 49.3284 1.36516 -12.5286 55.1249 1.36516 -9.79889 
-53.6175 8.83669 -12.5286 52.9542 8.83669 -12.5286 55.1249 8.83669 -11.591 
-51.9733 16.3082 -12.5286 -49.4766 20.8924 -12.5286 49.477 16.3082 -12.5286 
47.6533 18.4238 -12.5286 55.1249 16.3082 -8.29371 -47.7394 23.7798 -12.5286 
-49.4766 23.7798 -9.15222 -42.0051 30.3642 -12.5286 32.7103 28.8808 -12.5286 
43.0581 23.7798 -12.5286 40.1818 26.0165 -12.5286 47.6533 23.7798 -9.80248 
-40.9771 31.2513 -12.5286 -42.0051 31.2513 -11.5259 -34.5335 36.4789 -12.5286 
2.82413 37.9832 -12.5286 10.2957 35.8357 -12.5286 17.7672 33.0197 -12.5286 
26.5246 31.2513 -12.5286 25.2387 31.5636 -12.5286 32.7103 31.2513 -10.7669 
40.1818 31.2513 -7.33474 -30.3832 38.7228 -12.5286 -34.5335 38.7228 -10.0068 
-27.062 41.3327 -12.5286 -19.5905 41.6737 -12.5286 -12.1189 42.4837 -12.5286 
1.70728 38.7228 -12.5286 -4.6474 41.0975 -12.5286 2.82413 38.7228 -12.1489 
10.2957 38.7228 -9.38349 17.7672 38.7228 -5.10374 -19.5905 46.1944 -5.67928 
-12.1189 46.1944 -6.91254 -42.0051 -36.1801 -5.05705 -34.5335 -40.2203 -5.05705 
-27.062 -43.2709 -5.05705 -19.5905 -43.4499 -5.05705 -12.1189 -43.0938 -5.05705 
-4.6474 -42.1664 -5.05705 2.82413 -41.313 -5.05705 10.2957 -40.8185 -5.05705 
17.7672 -39.8932 -5.05705 25.2387 -37.8878 -5.05705 -42.2393 -35.9925 -5.05705 
30.584 -35.9925 -5.05705 32.7103 -34.9717 -5.05705 32.7103 -35.9925 -2.2497 
40.1818 -28.9817 -5.05705 -49.1193 -28.521 -5.05705 -49.4766 -27.8658 -5.05705 
40.8181 -28.521 -5.05705 47.6533 -21.874 -5.05705 -52.5494 -21.0494 -5.05705 
48.298 -21.0494 -5.05705 55.1249 -13.8595 -5.05705 -55.3234 -13.5779 -5.05705 
55.2856 -13.5779 -5.05705 -56.7868 -6.10638 -5.05705 -56.9481 -4.65597 -5.05705 
58.8805 -6.10638 -5.05705 -57.5524 1.36516 -5.05705 -56.9481 5.00788 -5.05705 
-56.9481 1.36516 -2.38683 59.5268 1.36516 -5.05705 -56.3314 8.83669 -5.05705 
60.1194 8.83669 -5.05705 -54.2547 16.3082 -5.05705 57.7163 16.3082 -5.05705 
55.1249 21.5588 -5.05705 -51.1681 23.7798 -5.05705 -49.4766 26.4076 -5.05705 
-49.4766 23.7798 1.34556 53.7416 23.7798 -5.05705 47.6533 28.9045 -5.05705 
-46.2045 31.2513 -5.05705 -42.0051 35.8044 -5.05705 25.2387 36.8212 -5.05705 
32.7103 34.9046 -5.05705 43.516 31.2513 -5.05705 40.1818 32.6598 -5.05705 
-38.7239 38.7228 -5.05705 -34.5335 41.7384 -5.05705 -27.062 44.9234 -5.05705 
-4.6474 45.8722 -5.05705 2.82413 43.9416 -5.05705 10.2957 40.9282 -5.05705 
17.8582 38.7228 -5.05705 17.7672 38.745 -5.05705 17.7672 38.7228 -4.94773 
-20.8002 46.1944 -5.05705 -19.5905 46.4253 -5.05705 -19.5905 46.1944 -4.40078 
-6.80427 46.1944 -5.05705 -12.1189 46.9097 -5.05705 -12.1189 46.1944 -3.55387 
-42.0051 -36.3752 2.41449 -34.5335 -40.2973 2.41449 -27.062 -43.0345 2.41449 
-19.5905 -43.0632 2.41449 -12.1189 -42.6595 2.41449 -4.6474 -42.0756 2.41449 
2.82413 -41.6028 2.41449 10.2957 -41.0276 2.41449 17.7672 -40.3189 2.41449 
25.2387 -39.161 2.41449 32.7103 -37.1736 2.41449 -42.4618 -35.9925 2.41449 
-42.0051 -35.9925 3.05158 -34.5335 -35.9925 9.87995 25.2387 -35.9925 9.17568 
35.124 -35.9925 2.41449 32.7103 -35.9925 6.35801 40.1818 -33.4567 2.41449 
-49.4524 -28.521 2.41449 -49.4766 -28.4806 2.41449 47.5431 -28.521 2.41449 
47.6533 -28.4266 2.41449 -53.2863 -21.0494 2.41449 -49.4766 -21.0494 9.005 
54.0825 -21.0494 2.41449 55.1249 -19.4006 2.41449 -55.5947 -13.5779 2.41449 
58.2433 -13.5779 2.41449 -56.0802 -6.10638 2.41449 61.1156 -6.10638 2.41449 
-55.7545 1.36516 2.41449 61.8925 1.36516 2.41449 -54.9919 8.83669 2.41449 
61.8355 8.83669 2.41449 -52.4171 16.3082 2.41449 -49.4766 23.154 2.41449 
-49.4766 16.3082 6.49116 59.8996 16.3082 2.41449 55.1249 23.5884 2.41449 
-49.1299 23.7798 2.41449 54.9672 23.7798 2.41449 47.6533 29.778 2.41449 
-44.2795 31.2513 2.41449 -42.0051 33.7146 2.41449 -42.0051 31.2513 5.06023 
-34.5335 31.2513 9.23572 17.7672 37.1573 2.41449 25.2387 35.8523 2.41449 
32.7103 34.8632 2.41449 44.7755 31.2513 2.41449 40.1818 33.3507 2.41449 
40.1818 31.2513 7.83262 -35.8108 38.7228 2.41449 -34.5335 39.5771 2.41449 
-34.5335 38.7228 3.51754 -27.062 42.5614 2.41449 -27.062 38.7228 6.92079 
-19.5905 43.0038 2.41449 -19.5905 38.7228 6.9194 -12.1189 42.3331 2.41449 
-12.1189 38.7228 6.09976 -4.6474 41.9692 2.41449 -4.6474 38.7228 5.84184 
2.82413 40.7698 2.41449 2.82413 38.7228 5.02221 11.5525 38.7228 2.41449 
10.2957 39.0928 2.41449 10.2957 38.7228 2.91207 -27.062 -38.4139 9.88602 
-19.5905 -39.2169 9.88602 -12.1189 -39.3428 9.88602 -4.6474 -39.1544 9.88602 
2.82413 -38.4842 9.88602 10.2957 -37.5597 9.88602 17.7672 -36.8346 9.88602 
-42.0051 -29.9129 9.88602 -34.5193 -35.9925 9.88602 -34.5335 -35.9866 9.88602 
-27.062 -35.9925 12.0249 -19.5905 -35.9925 13.0674 -12.1189 -35.9925 13.4255 
-4.6474 -35.9925 13.3144 2.82413 -35.9925 12.5465 10.2957 -35.9925 11.4571 
22.8533 -35.9925 9.88602 17.7672 -35.9925 10.7424 25.2387 -35.5501 9.88602 
32.7103 -34.6097 9.88602 40.1818 -31.6726 9.88602 -43.2561 -28.521 9.88602 
-42.0051 -28.521 10.8436 -34.5335 -28.521 14.3225 -27.062 -28.521 16.6248 
-19.5905 -28.521 16.992 -12.1189 -28.521 16.857 -4.6474 -28.521 16.5621 
2.82413 -28.521 16.0902 10.2957 -28.521 15.7773 17.7672 -28.521 15.4694 
25.2387 -28.521 15.6593 32.7103 -28.521 15.602 44.699 -28.521 9.88602 
40.1818 -28.521 13.3732 47.6533 -26.1231 9.88602 -48.5428 -21.0494 9.88602 
-49.4766 -18.8997 9.88602 -42.0051 -21.0494 13.5217 -34.5335 -21.0494 16.5018 
2.82413 -21.0494 17.3573 10.2957 -21.0494 17.1861 52.0539 -21.0494 9.88602 
47.6533 -21.0494 14.4844 55.1249 -15.7277 9.88602 -50.9387 -13.5779 9.88602 
-49.4766 -13.5779 11.2027 -42.0051 -13.5779 14.7364 -34.5335 -13.5779 16.6722 
-4.6474 -13.5779 16.9228 47.6533 -13.5779 16.1563 56.0806 -13.5779 9.88602 
[...]
POINT_DATA 552
SCALARS ImageScalars float
LOOKUP_TABLE default
0 0 0 0 0 0 0 0 0 
0 0 0 0 0 0 0 0 0 
0 0 0 0 0 0 0 0 0 
0 0 0 0 0 0 0 0 0 
0 0 0 0 0 0 0 0 0 
0 0 0 0 0 0 0 0 0 
0 0 0 0 0 0 0 0 0 
0 0 0 0 0 0 0 0 0 
0 0 0 0 0 0 0 0 0 
0 0 0 0 0 0 0 0 0 
0 0 0 0 0 0 0 0 0 
0 0 0 0 0 0 0 0 0 
0 0 0 0 0 0 0 0 0 
0 0 0 0 0 0 0 0 0 
0 0 0 0 0 0 0 0 0 
0 0 0 0 0 0 0 0 0 
0 0 0 0 0 0 0 0 0 
0 0 0 0 0 0 0 0 0 
0 0 0 0 0 0 0 0 0 
0 0 0 0 0 0 0 0 0 
0 0 0 0 0 0 0 0 0 
0 0 0 0 0 0 0 0 0 
0 0 0 0 0 0 0 0 0 
0 0 0 0 0 0 0 0 0 
0 0 0 0 0 0 0 0 0 
0 0 0 0 0 0 0 0 0 
0 0 0 0 0 0 0 0 0 
0 0 0 0 0 0 0 0 0 
0 0 0 0 0 0 0 0 0 
0 0 0 0 0 0 0 0 0 
0 0 0 0 0 0 0 0 0 
0 0 0 0 0 0 0 0 0 
0 0 0 0 0 0 0 0 0 
0 0 0 0 0 0 0 0 0 
0 0 0 0 0 0 0 0 0 
0 0 0 0 0 0 0 0 0 
0 0 0 0 0 0 0 0 0 
0 0 0 0 0 0 0 0 0 
0 0 0 0 0 0 0 0 0 
0 0 0 0 0 0 0 0 0 
0 0 0 0 0 0 0 0 0 
0 0 0 0 0 0 0 0 0 
0 0 0 0 0 0 0 0 0 
0 0 0 0 0 0 0 0 0 
0 0 0 0 0 0 0 0 0 
0 0 0 0 0 0 0 0 0 
0 0 0 0 0 0 0 0 0 
0 0 0 0 0 0 0 0 0 
0 0 0 0 0 0 0 0 0 
0 0 0 0 0 0 0 0 0 
0 0 0 0 0 0 0 0 0 
0 0 0 0 0 0 0 0 0 
0 0 0 0 0 0 0 0 0 
0 0 0 0 0 0 0 0 0 
0 0 0 0 0 0 0 0 0 
0 0 0 0 0 0 0 0 0 
0 0 0 0 0 0 0 0 0 
0 0 0 0 0 0 0 0 0 
0 0 0 0 0 0 0 0 0 
0 0 0 0 0 0 0 0 0 
0 0 0 0 0 0 0 0 0 
0 0 0 
NORMALS Normals float
-0.0341719 -0.0485041 -0.998238 -0.197254 -0.460143 -0.865655 -0.0913159 -0.440535 -0.893079 
0.0121436 -0.507009 -0.861855 0.0958977 -0.55909 -0.823542 0.113535 -0.59434 -0.796159 
-0.286204 -0.22767 -0.930728 -0.116886 -0.154985 -0.980978 -0.0643246 -0.102972 -0.992602 
-0.0483432 -0.103837 -0.993419 0.0412303 -0.163795 -0.985632 0.11459 -0.159033 -0.980601 
0.125802 -0.178779 -0.975814 0.161641 -0.190628 -0.968263 -0.205 -0.241707 -0.948448 
-0.0947151 -0.149644 -0.984193 -0.0695376 0.0154823 -0.997459 -0.0685148 0.0829398 -0.994197 
-0.0604675 0.12292 -0.990573 0.0440783 -0.0333852 -0.99847 0.102927 0.0678828 -0.99237 
0.119144 0.050873 -0.991573 0.143418 0.0590465 -0.987899 0.109547 -0.0287956 -0.993564 
-0.285262 -0.171596 -0.942964 -0.0659553 -0.158732 -0.985116 0.125713 -0.0467933 -0.990962 
0.051201 0.0917823 -0.994462 -0.164542 0.135543 -0.977013 -0.00529985 -0.144035 -0.989558 
0.18933 0.0139645 -0.981814 0.127019 0.0109367 -0.99184 0.0697967 0.0669042 -0.995315 
0.0142112 -0.0609927 -0.998037 0.0550784 -0.122908 -0.990888 -0.502691 -0.288072 -0.815056 
-0.15576 -0.261056 -0.952674 0.0390297 -0.163318 -0.985801 0.172902 -0.203 -0.963793 
0.120069 -0.168014 -0.978445 -0.321923 -0.140658 -0.936259 0.0741129 0.0156876 -0.997126 
0.201918 0.0470185 -0.978273 0.183623 -0.280169 -0.942225 0.0464307 -0.0647817 -0.996819 
-0.0729068 -0.104549 -0.991844 0.0213681 -0.151299 -0.988257 0.153729 -0.167568 -0.973801 
-0.452205 -0.0981449 -0.886498 -0.191324 -0.175347 -0.965737 -0.0343181 -0.0612113 -0.997535 
-0.0299346 -0.208755 -0.97751 0.120344 -0.245448 -0.961911 0.130145 -0.221778 -0.966373 
0.0491487 -0.0225672 -0.998536 0.171903 0.275502 -0.945805 -0.0894958 0.0214395 -0.995756 
0.0855022 0.103544 -0.990943 0.1597 -0.13327 -0.978128 -0.0761615 -0.133943 -0.988058 
-0.0143876 -0.114912 -0.993271 0.111531 -0.134884 -0.984564 0.272057 -0.157369 -0.949326 
-0.562738 0.0614273 -0.82435 -0.0610064 -0.0551855 -0.996611 -0.253712 -0.0991955 -0.96218 
0.0380272 -0.0399847 -0.998476 -0.0155226 -0.0059898 -0.999862 0.146628 -0.0283478 -0.988785 
0.277862 -0.0259523 -0.960271 0.176584 0.070092 -0.981787 0.0161759 0.133466 -0.990921 
-0.0115695 0.00132711 -0.999932 0.017942 0.13962 -0.990043 -0.02792 -0.15315 -0.987809 
-0.0559854 -0.155835 -0.986195 0.0173229 -0.0780206 -0.996801 0.106666 -0.0296216 -0.993854 
0.249643 -0.0329064 -0.967779 -0.663933 0.251425 -0.704257 -0.2555 0.167695 -0.952154 
0.0417822 0.130972 -0.990505 0.142555 0.124226 -0.98196 0.258401 0.0118943 -0.965964 
0.20731 -0.0440935 -0.977281 0.0843176 -0.0477316 -0.995295 -0.0681601 0.00521232 -0.997661 
-0.134677 0.00597194 -0.990872 -0.110331 -0.0614527 -0.991993 0.000835957 0.00528921 -0.999986 
0.112073 0.0466594 -0.992604 0.147576 0.0977769 -0.984206 0.349634 0.23782 -0.9062 
-0.340709 0.392838 -0.854164 -0.0821257 0.271442 -0.958944 0.0336907 0.145584 -0.988772 
0.121826 0.0857764 -0.988838 0.129278 -0.0591964 -0.98984 0.0699682 -0.111261 -0.991325 
0.0333021 -0.0513893 -0.998123 -0.0529288 0.0373845 -0.997898 -0.0272765 0.138008 -0.990056 
0.0541172 0.241985 -0.96877 0.111133 0.294873 -0.949052 0.277664 0.342051 -0.897721 
-0.232834 0.383588 -0.893671 -0.0351417 0.310166 -0.950033 0.0368079 0.189497 -0.981191 
0.0168555 0.0597692 -0.99807 0.0895768 0.0757331 -0.993096 0.0861362 0.146403 -0.985468 
0.0629457 0.246318 -0.967143 0.121601 0.451368 -0.884014 0.15064 0.560988 -0.814002 
-0.199063 0.418088 -0.886327 -0.0945503 0.39345 -0.914471 0.00942987 0.361161 -0.932456 
0.173768 0.427281 -0.887263 -0.19847 -0.491425 -0.848004 -0.0697933 -0.549953 -0.832275 
0.0272062 -0.635616 -0.771526 0.0987918 -0.633073 -0.767762 0.114033 -0.603016 -0.789536 
-0.590844 -0.741851 -0.317114 -0.215227 -0.479042 -0.850997 -0.29882 -0.386566 -0.87251 
-0.346291 -0.631848 -0.693434 0.114284 -0.59275 -0.797237 0.121266 -0.484302 -0.866456 
0.117475 -0.611738 -0.782289 0.181923 -0.34703 -0.92004 0.221013 -0.640261 -0.735676 
0.30889 -0.742813 -0.593983 -0.360477 -0.281258 -0.889354 -0.282836 -0.284906 -0.915878 
-0.479444 -0.377757 -0.792107 0.23438 -0.245687 -0.940587 0.178813 -0.141778 -0.973614 
0.247247 -0.257257 -0.934178 0.356327 -0.418782 -0.835256 0.478233 -0.572048 -0.666374 
-0.434831 -0.255341 -0.863553 -0.627417 -0.277945 -0.727389 0.145467 -0.0830175 -0.985874 
0.0976552 -0.136551 -0.985808 0.206084 -0.175835 -0.962607 0.339699 -0.321409 -0.883912 
0.538845 -0.457529 -0.707329 -0.398987 -0.150492 -0.904523 -0.505722 -0.219366 -0.83434 
-0.545419 -0.163367 -0.822088 0.0791434 -0.143654 -0.986458 0.183691 -0.219464 -0.958172 
0.209439 -0.261087 -0.942321 0.3805 -0.333674 -0.862486 0.671571 -0.434414 -0.60023 
-0.588309 -0.287631 -0.755752 0.211126 -0.194701 -0.957871 0.273003 -0.18212 -0.944617 
0.284737 -0.2236 -0.932163 0.594396 -0.249266 -0.764565 -0.74017 -0.0991224 -0.665074 
-0.983889 0.00836868 -0.178582 0.332044 -0.16505 -0.928712 0.601402 -0.150433 -0.784656 
-0.787097 0.116742 -0.605681 0.446504 0.026465 -0.89439 0.553054 0.0511249 -0.831575 
-0.771259 0.302376 -0.560115 -0.734782 0.392418 -0.553266 0.414041 0.258277 -0.872847 
0.376354 0.290824 -0.879647 0.715932 0.320283 -0.620371 -0.684602 0.452696 -0.571302 
-0.823316 0.47861 -0.305095 -0.528351 0.571584 -0.627803 0.19184 0.517262 -0.834049 
0.347282 0.379818 -0.857399 0.291438 0.44829 -0.845045 0.491837 0.502867 -0.71079 
-0.505613 0.570544 -0.647175 -0.573051 0.606326 -0.551344 -0.361808 0.59999 -0.713517 
0.201638 0.488614 -0.848881 0.173812 0.525784 -0.832671 0.170646 0.529677 -0.830857 
0.164057 0.573562 -0.802566 0.15304 0.578776 -0.800997 0.242399 0.691787 -0.680201 
0.331004 0.822634 -0.462288 -0.302448 0.538584 -0.786417 -0.45786 0.745225 -0.484772 
-0.239618 0.563759 -0.790417 -0.0473232 0.582784 -0.811248 0.0304001 0.640726 -0.767167 
0.212012 0.517991 -0.828695 0.190143 0.601412 -0.775983 0.226918 0.553252 -0.801512 
0.287983 0.825675 -0.485105 0.247175 0.959361 -0.136131 -0.119374 0.991469 -0.0523438 
0.0389641 0.994571 -0.0964878 -0.591604 -0.750019 -0.295763 -0.403769 -0.861372 -0.308236 
-0.182647 -0.949149 -0.25643 0.012568 -0.977266 -0.211644 0.0809581 -0.977185 -0.196354 
0.113543 -0.96705 -0.227863 0.0886655 -0.958492 -0.270983 0.0895329 -0.949581 -0.300466 
0.188863 -0.925784 -0.327497 0.301026 -0.843916 -0.44406 -0.598133 -0.745045 -0.295205 
0.362862 -0.79654 -0.483585 0.390523 -0.760183 -0.519243 0.387597 -0.873087 -0.295782 
0.485673 -0.589891 -0.645097 -0.795914 -0.499882 -0.341524 -0.806936 -0.490039 -0.329721 
0.490054 -0.581667 -0.649238 0.547837 -0.475466 -0.688336 -0.871705 -0.383146 -0.305499 
0.553033 -0.468597 -0.688891 0.674464 -0.439286 -0.593403 -0.914463 -0.252815 -0.315978 
0.680303 -0.434761 -0.590061 -0.973521 -0.131726 -0.186831 -0.982657 -0.0982093 -0.157287 
0.776588 -0.253091 -0.576937 -0.998131 0.0330228 -0.0514109 -0.99156 0.121038 -0.0464593 
-0.993825 0.047026 0.100497 0.814434 -0.0763715 -0.575208 -0.976932 0.207718 -0.0495674 
0.873765 0.106508 -0.474542 -0.950046 0.312068 -0.00515184 0.812772 0.337818 -0.474637 
0.775649 0.477416 -0.412848 -0.876053 0.47954 -0.0507161 -0.850139 0.524558 -0.0458616 
-0.804784 0.473435 0.358026 0.721857 0.562566 -0.40304 0.507066 0.786061 -0.353542 
-0.781305 0.619626 -0.0750098 -0.703372 0.705009 -0.0907185 0.245948 0.950114 -0.191815 
0.266111 0.931433 -0.248228 0.399471 0.861093 -0.31455 0.334842 0.888867 -0.312724 
-0.623613 0.776301 -0.091996 -0.48673 0.868779 -0.0911992 -0.302292 0.952217 0.0436112 
0.194402 0.980319 0.0343874 0.307367 0.951203 -0.0271634 0.34127 0.932737 -0.116347 
0.246738 0.959915 -0.132983 0.247073 0.959884 -0.132582 0.246789 0.960839 -0.126033 
-0.153311 0.988162 0.00568819 -0.126954 0.991853 -0.0105149 -0.121869 0.991838 0.037489 
0.14692 0.988256 0.0420162 0.0347261 0.998366 0.0453855 0.047861 0.98797 0.147054 
-0.577055 -0.785707 0.222874 -0.365557 -0.903657 0.223097 -0.168559 -0.959411 0.226094 
0.0251514 -0.973531 0.227166 0.0640573 -0.97649 0.205823 0.0698179 -0.983127 0.169075 
0.0694942 -0.985757 0.153149 0.0851761 -0.981938 0.168947 0.122541 -0.978704 0.164686 
0.200703 -0.971746 0.124214 0.356553 -0.933978 0.0235394 -0.590462 -0.776045 0.221604 
-0.577532 -0.773962 0.259693 -0.333885 -0.687886 0.644464 0.127003 -0.835287 0.534945 
0.402241 -0.91551 -0.00658774 0.277051 -0.917378 0.285763 0.499693 -0.862187 -0.0833083 
-0.809929 -0.541981 0.224213 -0.810681 -0.54097 0.223936 0.653234 -0.751988 -0.0883151 
0.655834 -0.749657 -0.0888603 -0.910618 -0.359227 0.204283 -0.699439 -0.333242 0.632246 
0.805905 -0.581124 -0.113188 0.833516 -0.54503 -0.0905178 -0.951124 -0.183928 0.24806 
0.910278 -0.411216 -0.0479089 -0.951969 -0.0109072 0.306001 0.9695 -0.238788 0.0552203 
-0.922562 0.0708221 0.379294 0.996807 -0.0460118 0.0652608 -0.903789 0.19815 0.379344 
0.984966 0.132866 0.110407 -0.84583 0.354375 0.398735 -0.782684 0.453819 0.425973 
-0.698145 0.350732 0.624164 0.918551 0.380849 0.105912 0.763647 0.628748 0.146691 
-0.7766 0.461451 0.428901 0.757675 0.635385 0.149046 0.487357 0.858865 0.157589 
-0.702432 0.573978 0.420879 -0.640669 0.625229 0.445682 -0.593282 0.588318 0.549453 
-0.310036 0.492833 0.813015 0.197801 0.907328 0.370986 0.142109 0.951736 0.272037 
0.173609 0.965297 0.195093 0.408694 0.900468 0.14875 0.307601 0.943528 0.123032 
0.3217 0.822851 0.468429 -0.497287 0.734552 0.46167 -0.462117 0.760031 0.456948 
-0.467625 0.72192 0.510057 -0.205748 0.83802 0.505361 -0.156074 0.660355 0.734556 
0.00605666 0.776048 0.630645 0.0402742 0.639314 0.76789 0.058614 0.760619 0.646547 
0.0559578 0.623214 0.780047 0.0942249 0.789846 0.606025 0.0526232 0.636389 0.769571 
0.162393 0.829213 0.534822 0.130952 0.754165 0.643496 0.234622 0.876116 0.421157 
0.235835 0.870762 0.431457 0.229983 0.86073 0.454149 -0.175087 -0.715657 0.676151 
-0.0463922 -0.774451 0.630931 0.0041782 -0.803731 0.594978 0.0500987 -0.819588 0.570758 
0.0917011 -0.796092 0.598188 0.0964974 -0.75976 0.643003 0.109848 -0.757345 0.64371 
-0.514404 -0.47459 0.71425 -0.333512 -0.687641 0.644918 -0.33382 -0.687485 0.644925 
-0.163646 -0.622847 0.765037 -0.0777795 -0.637792 0.766271 -0.0139973 -0.626725 0.779115 
0.0484719 -0.630962 0.774298 0.10326 -0.65385 0.749545 0.100207 -0.676727 0.729383 
0.11333 -0.789484 0.603217 0.0993783 -0.720561 0.686233 0.113224 -0.801247 0.587523 
0.186087 -0.82023 0.54092 0.419045 -0.794438 0.439624 -0.530817 -0.443688 0.722063 
-0.512231 -0.430087 0.743401 -0.308911 -0.346867 0.885583 -0.165131 -0.320406 0.932776 
-0.0124003 -0.29182 0.956393 0.0280611 -0.234011 0.971829 0.0503154 -0.226235 0.972772 
0.0505827 -0.26571 0.962725 0.0400375 -0.320575 0.946376 0.0076639 -0.412802 0.910789 
-0.00920185 -0.46179 0.886942 0.0958598 -0.551269 0.828803 0.527696 -0.728854 0.436244 
0.363513 -0.662879 0.654561 0.624619 -0.651055 0.431253 -0.637901 -0.315191 0.702664 
-0.664516 -0.251277 0.70376 -0.410428 -0.216524 0.885814 -0.265356 -0.145228 0.95315 
0.0180664 -0.119663 0.99265 -0.0435986 -0.167045 0.984985 0.728174 -0.516095 0.451009 
0.561572 -0.394021 0.727588 0.76942 -0.397458 0.500019 -0.684036 -0.0925626 0.723552 
-0.621463 -0.0822047 0.779119 -0.34873 -0.0782754 0.933949 -0.184 -0.00217425 0.982924 
-0.0342973 0.0382189 0.998681 0.450443 -0.156747 0.878938 0.789219 -0.338494 0.512401 
0.747523 -0.340275 0.570457 -0.641189 0.00320948 0.767376 -0.601338 0.00464627 0.798981 
-0.336702 0.00653643 0.941589 -0.138759 0.043113 0.989387 -0.00512106 0.0899235 0.995935 
0.0453483 0.161362 0.985853 -0.0170553 0.176341 0.984181 -0.144666 -0.0179797 0.989317 
0.858271 -0.16249 0.486793 0.646072 -0.135733 0.75111 -0.681576 0.0535802 0.729783 
-0.618788 0.0528345 0.783779 -0.302956 0.0787583 0.949745 -0.106391 0.0790246 0.991179 
0.0465562 0.0757371 0.99604 0.103314 0.131091 0.985972 -0.123464 0.209449 0.969994 
-0.164909 -0.0457362 0.985248 -0.194436 0.036532 0.980235 0.312916 0.0609356 0.947824 
0.835148 -0.00479545 0.550004 0.592245 0.0531406 0.804004 -0.612181 0.211326 0.761955 
-0.609899 0.21453 0.762889 -0.609355 0.211731 0.764105 -0.34004 0.15634 0.927324 
-0.146099 0.111637 0.982951 0.043896 0.095227 0.994487 0.176734 0.0691253 0.981828 
-0.144913 0.0399493 0.988638 0.343442 0.0250504 0.93884 0.777249 0.166947 0.60664 
0.596653 0.169632 0.784366 -0.510772 0.276294 0.814109 -0.417031 0.225164 0.88056 
-0.15873 0.185724 0.969697 -0.00183376 0.138421 0.990372 0.0510446 0.0689239 0.996315 
-0.0852218 0.00263994 0.996359 -0.150934 0.253976 0.955361 -0.0594275 0.238482 0.969327 
-0.114211 0.279469 0.953338 0.419211 0.24593 0.873946 0.686767 0.355727 0.633884 
0.638878 0.421154 0.643789 0.644415 0.361699 0.673724 -0.516828 0.341347 0.785093 
-0.504745 0.357569 0.785734 -0.500711 0.337683 0.797031 -0.286381 0.454986 0.843192 
-0.221899 0.289134 0.931215 -0.0595115 0.220272 0.973621 0.0327793 0.186194 0.981966 
0.0147214 0.205832 0.978477 -0.0746156 0.338164 0.938125 -0.085773 0.333513 0.938835 
-0.0718229 0.334503 0.939654 -0.096466 0.419237 0.902737 -0.0563572 0.456015 0.888186 
0.0745091 0.458416 0.885609 0.314761 0.724977 0.612644 0.269752 0.499454 0.823274 
0.489509 0.588453 0.643509 0.471301 0.616824 0.6304 0.45682 0.569196 0.683616 
-0.245119 0.460573 0.853106 -0.131414 0.463303 0.876402 -0.118396 0.402943 0.907535 
0.0246655 0.471248 0.881656 0.0295763 0.384864 0.922499 0.0733809 0.43723 0.896351 
0.0697527 0.399315 0.914156 0.00726558 0.447723 0.894143 0.00257201 0.439596 0.898192 
-0.0182555 0.54354 0.839185 -0.0388947 0.514836 0.856406 0.0193378 0.619319 0.784901 
-0.00382561 0.582093 0.813113 0.00783063 0.703268 0.710882 -0.0114491 0.671647 0.740783 
0.026787 0.794668 0.606453 0.0115998 0.75122 0.659949 0.190145 0.791028 0.58148 
0.116348 0.814352 0.56859 0.117036 0.795755 0.594202 -0.134883 -0.167649 0.976576 
-0.00545049 -0.219607 0.975573 0.0409208 -0.12017 0.99191 0.0291978 -0.0452876 0.998547 
-0.0667872 -0.270309 0.960454 -0.031945 -0.346601 0.937469 0.0559725 -0.366358 0.928789 
0.222744 -0.321231 0.920432 -0.169532 -0.0885112 0.981542 -0.113115 -0.0590757 0.991824 
0.0062407 -0.0487697 0.998791 0.0499281 -0.0337028 0.998184 0.01809 -0.119398 0.992682 
0.0151268 -0.0123318 0.99981 0.0264146 -0.0237021 0.99937 0.0180059 -0.119645 0.992653 
-0.0542302 -0.177155 0.982688 -0.0466354 -0.162004 0.985687 -0.0940188 -0.218587 0.971278 
-0.0334926 -0.279539 0.95955 0.0421444 -0.24346 0.968995 0.258964 -0.287894 0.921984 
0.210655 -0.280552 0.936437 -0.101232 0.0418086 0.993984 -0.0498317 0.0672872 0.996488 
-0.0760752 0.0543878 0.995618 0.024488 0.126216 0.9917 0.0126848 0.10539 0.99435 
0.052881 0.0918134 0.994371 0.0555849 0.0959055 0.993837 0.0570465 0.0943407 0.993904 
-0.0643128 -0.0149382 0.997818 -0.102163 -0.084558 0.991167 -0.0595962 -0.135911 0.988927 
-0.11792 -0.0635959 0.990985 -0.0568673 -0.055606 0.996832 0.0726212 -0.0720664 0.994753 
0.343398 -0.11 0.932726 0.221296 -0.0755866 0.972273 0.303571 -0.0446204 0.951764 
-0.152165 -0.00191622 0.988353 -0.1916 0.038102 0.980733 -0.16889 0.0406191 0.984798 
-0.0229334 -0.0975283 0.994968 -0.0134275 -0.0193118 0.999723 -0.0480849 0.0542595 0.997368 
0.0186155 0.0238363 0.999543 0.145944 0.0162695 0.989159 0.300725 -0.0409698 0.95283 
0.298074 -0.0272723 0.954153 0.296199 -0.0397471 0.954299 -0.231886 0.00711491 0.972717 
-0.190664 0.0360056 0.980995 -0.179304 0.0407442 0.98295 -0.110275 0.00933789 0.993857 
0.0357956 -0.0445538 0.998365 -0.0169781 -0.0288803 0.999439 0.0374874 0.0236615 0.999017 
0.275331 0.0554429 0.959749 0.163007 0.0425227 0.985708 -0.344159 0.106561 0.932845 
-0.325573 0.133138 0.936097 -0.347943 0.108436 0.931223 -0.0804986 0.134898 0.987584 
-0.0955891 0.0647926 0.99331 -0.114416 0.265497 0.957298 -0.109908 0.216261 0.97013 
-0.0504776 0.0613519 0.996839 0.018918 0.0102805 0.999768 0.0906753 0.0258397 0.995545 
0.272599 0.0262205 0.96177 0.184068 0.0553252 0.981355 -0.142669 0.27391 0.951114 
-0.148818 0.307621 0.939799 -0.166406 0.262073 0.950593 -0.060628 0.368394 0.927691 
-0.0549364 0.226803 0.97239 0.0717746 0.36797 0.927063 0.084068 0.18146 0.979798 
0.284111 0.2236 0.932354 0.16792 0.269673 0.948198 0.148745 0.209654 0.966395 

