# vtk DataFile Version 4.2
vtk output
ASCII
DATASET POLYDATA
POINTS 550 float
-5.76108 -41.9014 -13.4691 2.76861 -41.9014 -14.8804 11.2983 -41.9014 -16.4346 
19.828 -41.9014 -16.1968 28.3577 -41.9014 -13.0813 -56.9392 -33.3717 -12.8479 
-48.4095 -33.3717 -15.7755 -39.8799 -33.3717 -16.4067 -31.3502 -33.3717 -16.2121 
-22.8205 -33.3717 -16.1823 -14.2908 -33.3717 -15.3731 -5.76108 -33.3717 -15.001 
2.76861 -33.3717 -16.9033 11.2983 -33.3717 -18.6908 19.828 -33.3717 -17.895 
28.3577 -33.3717 -16.712 36.8874 -33.3717 -15.3796 45.4171 -33.3717 -13.2719 
-56.9392 -24.842 -16.2068 -48.4095 -24.842 -17.9264 -39.8799 -24.842 -18.4034 
-31.3502 -24.842 -17.7202 -22.8205 -24.842 -16.9018 -14.2908 -24.842 -16.0339 
-5.76108 -24.842 -15.2557 2.76861 -24.842 -17.1513 11.2983 -24.842 -18.8499 
19.828 -24.842 -18.3742 28.3577 -24.842 -17.8102 36.8874 -24.842 -18.1258 
45.4171 -24.842 -17.564 53.9468 -24.842 -15.8324 62.4765 -24.842 -12.4911 
-65.4689 -16.3123 -14.3003 -56.9392 -16.3123 -17.5412 -48.4095 -16.3123 -17.5541 
-39.8799 -16.3123 -19.2077 -31.3502 -16.3123 -17.9456 -22.8205 -16.3123 -16.522 
-14.2908 -16.3123 -15.1525 -5.76108 -16.3123 -15.1869 2.76861 -16.3123 -16.2794 
11.2983 -16.3123 -17.1888 19.828 -16.3123 -17.2494 28.3577 -16.3123 -17.9968 
36.8874 -16.3123 -18.3844 45.4171 -16.3123 -18.7894 53.9468 -16.3123 -17.8032 
62.4765 -16.3123 -14.4498 -65.4689 -7.7826 -13.4568 -56.9392 -7.7826 -15.7669 
-48.4095 -7.7826 -16.7715 -39.8799 -7.7826 -17.6201 -31.3502 -7.7826 -17.1498 
-22.8205 -7.7826 -15.9535 -14.2908 -7.7826 -16.2994 -5.76108 -7.7826 -19.8774 
2.76861 -7.7826 -16.9122 11.2983 -7.7826 -17.3786 19.828 -7.7826 -15.5026 
28.3577 -7.7826 -16.8184 36.8874 -7.7826 -18.1224 45.4171 -7.7826 -19.1754 
53.9468 -7.7826 -17.9303 62.4765 -7.7826 -16.9862 71.0062 -7.7826 -13.6782 
-56.9392 0.747091 -13.7615 -48.4095 0.747091 -15.8442 -39.8799 0.747091 -16.5372 
-31.3502 0.747091 -16.3388 -22.8205 0.747091 -16.3215 -14.2908 0.747091 -20.7824 
-5.76108 0.747091 -16.8294 2.76861 0.747091 -14.9406 11.2983 0.747091 -19.1729 
19.828 0.747091 -14.1874 28.3577 0.747091 -15.8494 36.8874 0.747091 -17.4323 
45.4171 0.747091 -18.1076 53.9468 0.747091 -17.5347 62.4765 0.747091 -15.7244 
71.0062 0.747091 -13.123 -56.9392 9.27678 -12.574 -48.4095 9.27678 -15.6813 
-39.8799 9.27678 -16.4882 -31.3502 9.27678 -16.8473 -22.8205 9.27678 -17.4057 
-14.2908 9.27678 -17.2436 -5.76108 9.27678 -15.4032 2.76861 9.27678 -18.8845 
11.2983 9.27678 -16.0374 19.828 9.27678 -15.1994 28.3577 9.27678 -16.3963 
36.8874 9.27678 -16.9414 45.4171 9.27678 -17.2725 53.9468 9.27678 -18.0394 
62.4765 9.27678 -14.4584 -56.9392 17.8065 -13.2075 -48.4095 17.8065 -14.6709 
-39.8799 17.8065 -16.7177 -31.3502 17.8065 -17.259 -22.8205 17.8065 -16.8385 
-14.2908 17.8065 -15.5838 -5.76108 17.8065 -15.3026 2.76861 17.8065 -17.7108 
11.2983 17.8065 -14.763 19.828 17.8065 -15.2225 28.3577 17.8065 -16.1895 
36.8874 17.8065 -16.7399 45.4171 17.8065 -16.1827 53.9468 17.8065 -15.661 
-48.4095 26.3362 -13.3305 -39.8799 26.3362 -15.4385 -31.3502 26.3362 -16.9642 
-22.8205 26.3362 -16.0464 -14.2908 26.3362 -15.7303 -5.76108 26.3362 -15.996 
2.76861 26.3362 -16.4363 11.2983 26.3362 -14.6423 19.828 26.3362 -14.1663 
28.3577 26.3362 -14.3578 36.8874 26.3362 -14.3817 45.4171 26.3362 -14.3169 
-39.8799 34.8659 -13.2357 -31.3502 34.8659 -15.0155 -22.8205 34.8659 -14.6687 
-14.2908 34.8659 -14.5897 -5.76108 34.8659 -14.6626 2.76861 34.8659 -14.0486 
-5.76108 -43.6153 -12.4247 2.76861 -45.1548 -12.4247 2.76861 -50.4311 -4.1219 
11.2983 -46.4249 -12.4247 19.828 -46.2739 -12.4247 28.3577 -42.7104 -12.4247 
-56.9392 -34.0104 -12.4247 -48.4095 -37.3887 -12.4247 -39.8799 -40.1835 -12.4247 
-39.8799 -41.9014 -9.50587 -31.3502 -40.8148 -12.4247 -31.3502 -41.9014 -11.5723 
-22.8205 -41.6231 -12.4247 -22.8205 -41.9014 -12.2483 -13.5 -41.9014 -12.4247 
-14.2908 -41.6176 -12.4247 -14.2908 -41.9014 -12.2859 30.7391 -41.9014 -12.4247 
36.8874 -39.1228 -12.4247 36.8874 -41.9014 -7.89875 45.4171 -34.3343 -12.4247 
-57.5814 -33.3717 -12.4247 48.4019 -33.3717 -12.4247 53.9468 -30.8366 -12.4247 
53.9468 -33.3717 -8.85389 62.4765 -24.9454 -12.4247 -63.904 -24.842 -12.4247 
-65.4689 -22.9099 -12.4247 -65.4689 -24.842 -11.1025 62.5735 -24.842 -12.4247 
-68.213 -16.3123 -12.4247 66.6101 -16.3123 -12.4247 71.0062 -11.3628 -12.4247 
71.0062 -16.3123 -8.43061 -66.9687 -7.7826 -12.4247 -65.4689 -2.71509 -12.4247 
72.4615 -7.7826 -12.4247 -62.038 0.747091 -12.4247 -65.4689 0.747091 -11.2092 
71.521 0.747091 -12.4247 71.0062 3.95428 -12.4247 -57.4086 9.27678 -12.4247 
-65.4689 9.27678 -8.96053 68.6701 9.27678 -12.4247 62.4765 17.0598 -12.4247 
71.0062 9.27678 -11.5146 -58.3319 17.8065 -12.4247 -65.4689 17.8065 -7.20826 
-56.9392 21.4876 -12.4247 61.9922 17.8065 -12.4247 53.9468 25.7831 -12.4247 
62.4765 17.8065 -12.2381 71.0062 17.8065 -8.06389 -51.8557 26.3362 -12.4247 
-56.9392 26.3362 -10.6105 -48.4095 32.2767 -12.4247 11.2983 33.6111 -12.4247 
19.828 31.4904 -12.4247 28.3577 31.1055 -12.4247 36.8874 33.7405 -12.4247 
52.9655 26.3362 -12.4247 45.4171 30.4975 -12.4247 53.9468 26.3362 -12.2051 
62.4765 26.3362 -9.45907 -56.9392 34.8659 -4.82949 -45.4673 34.8659 -12.4247 
-48.4095 34.8659 -11.9535 -39.8799 36.4998 -12.4247 -31.3502 39.1946 -12.4247 
-22.8205 39.4063 -12.4247 -14.2908 39.615 -12.4247 -5.76108 39.4493 -12.4247 
9.62356 34.8659 -12.4247 2.76861 37.5766 -12.4247 11.2983 34.8659 -11.9945 
19.828 34.8659 -11.0278 28.3577 34.8659 -10.5582 36.8874 34.8659 -11.8991 
45.4171 34.8659 -9.64897 53.9468 34.8659 -6.08909 -39.8799 43.3956 -7.29265 
-31.3502 43.3956 -8.7085 -22.8205 43.3956 -9.678 -14.2908 43.3956 -10.0342 
-5.76108 43.3956 -9.36812 2.76861 43.3956 -7.25231 11.2983 43.3956 -5.82188 
2.76861 -50.5232 -3.89506 -39.8799 -44.0654 -3.89506 -31.3502 -46.4949 -3.89506 
-22.8205 -48.0764 -3.89506 -14.2908 -48.9682 -3.89506 1.94874 -50.4311 -3.89506 
-5.76108 -49.5059 -3.89506 7.67689 -50.4311 -3.89506 2.76861 -50.4311 -3.45928 
11.2983 -50.3631 -3.89506 19.828 -49.5668 -3.89506 28.3577 -46.8174 -3.89506 
36.8874 -43.3211 -3.89506 -56.9392 -37.2083 -3.89506 -45.5277 -41.9014 -3.89506 
-48.4095 -40.7194 -3.89506 -39.8799 -41.9014 1.51593 39.9532 -41.9014 -3.89506 
36.8874 -41.9014 1.27746 45.4171 -39.5947 -3.89506 53.9468 -35.2654 -3.89506 
-61.375 -33.3717 -3.89506 -65.4689 -29.5886 -3.89506 -56.9392 -33.3717 1.91094 
57.3101 -33.3717 -3.89506 53.9468 -33.3717 1.7 62.4765 -29.9116 -3.89506 
-69.2555 -24.842 -3.89506 -65.4689 -24.842 3.79081 67.7103 -24.842 -3.89506 
71.0062 -20.3267 -3.89506 -73.7159 -16.3123 -3.89506 73.2973 -16.3123 -3.89506 
71.0062 -16.3123 1.97475 -73.9486 -7.7826 -3.89506 77.038 -7.7826 -3.89506 
-73.2334 0.747091 -3.89506 77.6185 0.747091 -3.89506 -70.6259 9.27678 -3.89506 
77.2508 9.27678 -3.89506 -68.8627 17.8065 -3.89506 -65.4689 24.9382 -3.89506 
74.5831 17.8065 -3.89506 71.0062 23.5582 -3.89506 -64.4819 26.3362 -3.89506 
-65.4689 26.3362 -1.69721 68.7702 26.3362 -3.89506 62.4765 33.1868 -3.89506 
-57.904 34.8659 -3.89506 -56.9392 35.8109 -3.89506 -48.4095 41.7902 -3.89506 
19.828 43.3738 -3.89506 28.3577 41.566 -3.89506 36.8874 40.4843 -3.89506 
45.4171 38.8345 -3.89506 58.8504 34.8659 -3.89506 53.9468 36.5741 -3.89506 
62.4765 34.8659 2.2246 -44.7616 43.3956 -3.89506 -39.8799 45.3422 -3.89506 
-31.3502 47.1568 -3.89506 -22.8205 47.8003 -3.89506 -14.2908 47.8092 -3.89506 
-5.76108 47.024 -3.89506 2.76861 45.7221 -3.89506 19.7342 43.3956 -3.89506 
11.2983 44.7409 -3.89506 19.828 43.3956 -3.80288 28.3577 43.3956 2.5678 
-31.3502 -43.6595 4.63464 -22.8205 -45.9379 4.63464 -14.2908 -47.7824 4.63464 
-5.76108 -47.9934 4.63464 2.76861 -48.3274 4.63464 11.2983 -48.0577 4.63464 
19.828 -46.6145 4.63464 28.3577 -43.8237 4.63464 -48.4095 -36.1257 4.63464 
-36.1288 -41.9014 4.63464 -39.8799 -39.5849 4.63464 -31.3502 -41.9014 6.57571 
-22.8205 -41.9014 8.67585 -14.2908 -41.9014 10.9249 -5.76108 -41.9014 11.5082 
2.76861 -41.9014 11.3838 11.2983 -41.9014 10.8389 19.828 -41.9014 9.48563 
33.9127 -41.9014 4.63464 28.3577 -41.9014 7.11075 36.8874 -40.6847 4.63464 
45.4171 -35.8508 4.63464 -53.686 -33.3717 4.63464 -56.9392 -31.4251 4.63464 
-48.4095 -33.3717 7.20132 -39.8799 -33.3717 9.27734 -31.3502 -33.3717 11.4408 
-22.8205 -33.3717 12.9825 28.3577 -33.3717 13.1227 36.8874 -33.3717 10.6782 
51.1023 -33.3717 4.63464 45.4171 -33.3717 7.47061 53.9468 -31.766 4.63464 
62.4765 -25.6147 4.63464 -64.8361 -24.842 4.63464 -65.4689 -24.1212 4.63464 
-56.9392 -24.842 9.85068 -48.4095 -24.842 12.6877 -39.8799 -24.842 12.8212 
45.4171 -24.842 12.6046 53.9468 -24.842 9.91426 63.2733 -24.842 4.63464 
62.4765 -24.842 5.27895 -70.6053 -16.3123 4.63464 -65.4689 -16.3123 8.70893 
53.9468 -16.3123 12.7959 69.1878 -16.3123 4.63464 62.4765 -16.3123 9.43816 
71.0062 -14.0863 4.63464 -72.4929 -7.7826 4.63464 -65.4689 -7.7826 11.6834 
74.3221 -7.7826 4.63464 71.0062 -7.7826 8.06598 -73.9678 0.747091 4.63464 
75.9029 0.747091 4.63464 71.0062 0.747091 9.75648 -73.0044 9.27678 4.63464 
77.0868 9.27678 4.63464 71.0062 9.27678 12.1276 -71.4934 17.8065 4.63464 
74.3712 17.8065 4.63464 71.0062 24.1855 4.63464 71.0062 17.8065 8.65607 
-67.3051 26.3362 4.63464 -65.4689 28.8704 4.63464 -65.4689 26.3362 8.11346 
69.7017 26.3362 4.63464 -59.9608 34.8659 4.63464 -56.9392 37.4338 4.63464 
-56.9392 34.8659 8.95445 -48.4095 42.0278 4.63464 36.8874 42.6677 4.63464 
45.4171 40.9075 4.63464 53.9468 38.157 4.63464 53.9468 34.8659 11.4323 
63.0355 34.8659 4.63464 62.4765 35.2979 4.63464 62.4765 34.8659 5.37698 
-45.2828 43.3956 4.63464 -39.8799 45.1847 4.63464 -39.8799 43.3956 7.86419 
-31.3502 46.7022 4.63464 -31.3502 43.3956 8.79184 -22.8205 47.5784 4.63464 
-22.8205 43.3956 10.213 -14.2908 47.6214 4.63464 -14.2908 43.3956 10.6019 
-5.76108 46.883 4.63464 -5.76108 43.3956 9.79541 2.76861 46.2043 4.63464 
2.76861 43.3956 9.10938 11.2983 45.2083 4.63464 11.2983 43.3956 8.14948 
19.828 44.7409 4.63464 19.828 43.3956 7.38885 31.7098 43.3956 4.63464 
28.3577 43.8445 4.63464 28.3577 43.3956 5.60518 -14.2908 -37.3191 13.1643 
[...]
POINT_DATA 550
SCALARS ImageScalars float
LOOKUP_TABLE default
0 0 0 0 0 0 0 0 0 
0 0 0 0 0 0 0 0 0 
0 0 0 0 0 0 0 0 0 
0 0 0 0 0 0 0 0 0 
0 0 0 0 0 0 0 0 0 
0 0 0 0 0 0 0 0 0 
0 0 0 0 0 0 0 0 0 
0 0 0 0 0 0 0 0 0 
0 0 0 0 0 0 0 0 0 
0 0 0 0 0 0 0 0 0 
0 0 0 0 0 0 0 0 0 
0 0 0 0 0 0 0 0 0 
0 0 0 0 0 0 0 0 0 
0 0 0 0 0 0 0 0 0 
0 0 0 0 0 0 0 0 0 
0 0 0 0 0 0 0 0 0 
0 0 0 0 0 0 0 0 0 
0 0 0 0 0 0 0 0 0 
0 0 0 0 0 0 0 0 0 
0 0 0 0 0 0 0 0 0 
0 0 0 0 0 0 0 0 0 
0 0 0 0 0 0 0 0 0 
0 0 0 0 0 0 0 0 0 
0 0 0 0 0 0 0 0 0 
0 0 0 0 0 0 0 0 0 
0 0 0 0 0 0 0 0 0 
0 0 0 0 0 0 0 0 0 
0 0 0 0 0 0 0 0 0 
0 0 0 0 0 0 0 0 0 
0 0 0 0 0 0 0 0 0 
0 0 0 0 0 0 0 0 0 
0 0 0 0 0 0 0 0 0 
0 0 0 0 0 0 0 0 0 
0 0 0 0 0 0 0 0 0 
0 0 0 0 0 0 0 0 0 
0 0 0 0 0 0 0 0 0 
0 0 0 0 0 0 0 0 0 
0 0 0 0 0 0 0 0 0 
0 0 0 0 0 0 0 0 0 
0 0 0 0 0 0 0 0 0 
0 0 0 0 0 0 0 0 0 
0 0 0 0 0 0 0 0 0 
0 0 0 0 0 0 0 0 0 
0 0 0 0 0 0 0 0 0 
0 0 0 0 0 0 0 0 0 
0 0 0 0 0 0 0 0 0 
0 0 0 0 0 0 0 0 0 
0 0 0 0 0 0 0 0 0 
0 0 0 0 0 0 0 0 0 
0 0 0 0 0 0 0 0 0 
0 0 0 0 0 0 0 0 0 
0 0 0 0 0 0 0 0 0 
0 0 0 0 0 0 0 0 0 
0 0 0 0 0 0 0 0 0 
0 0 0 0 0 0 0 0 0 
0 0 0 0 0 0 0 0 0 
0 0 0 0 0 0 0 0 0 
0 0 0 0 0 0 0 0 0 
0 0 0 0 0 0 0 0 0 
0 0 0 0 0 0 0 0 0 
0 0 0 0 0 0 0 0 0 
0 
NORMALS Normals float
0.140026 0.395345 0.907797 0.177371 0.428403 0.886008 0.0685944 0.473277 0.878239 
-0.183242 0.466487 0.865339 -0.315195 0.583992 0.748068 0.481698 0.504311 0.716685 
0.245322 0.568446 0.785294 0.0170026 0.353212 0.935389 -0.0145597 0.288094 0.957492 
-0.0529881 0.21244 0.975736 -0.0635939 0.202591 0.977196 0.0744109 0.10583 0.991596 
0.219731 0.119954 0.968158 0.046296 0.124419 0.991149 -0.108602 0.119593 0.986865 
-0.15372 0.256235 0.954313 -0.166343 0.389678 0.905804 -0.249195 0.630134 0.735413 
0.444183 0.288561 0.848195 0.0966697 0.0675573 0.993021 -0.00569613 0.175474 0.984468 
-0.0859891 0.091322 0.992102 -0.0989337 0.0170843 0.994947 -0.0980574 -0.0111238 0.995119 
0.0550544 0.0108749 0.998424 0.217075 -0.039137 0.97537 0.0635278 -0.0886061 0.994039 
-0.0619994 -0.0393077 0.997302 -0.0140485 0.0683327 0.997564 -0.0181714 0.184262 0.982709 
-0.110759 0.25087 0.961664 -0.30465 0.401653 0.863634 -0.519387 0.428524 0.739327 
0.469341 0.0906335 0.878354 0.256763 -0.0411899 0.965596 0.0968326 -0.0730372 0.992617 
0.0215635 -0.0509146 0.99847 -0.15396 -0.0304944 0.987606 -0.161637 -0.0547585 0.98533 
-0.0791755 -0.00878143 0.996822 0.0704506 0.203763 0.976482 0.111138 -0.0102641 0.993752 
0.0572028 -0.0889871 0.994389 0.0433045 -0.165528 0.985254 0.0697635 -0.0597142 0.995775 
0.0433618 -0.0010738 0.999059 -0.0454918 0.102621 0.99368 -0.204116 0.0935063 0.974471 
-0.408376 0.2379 0.881268 0.468286 -0.156303 0.869642 0.233459 -0.206551 0.950176 
0.102561 -0.0952566 0.990155 0.022744 -0.150779 0.988306 -0.100399 -0.0959874 0.990306 
-0.0553041 -0.0122945 0.998394 0.206358 0.279654 0.937662 -0.0454331 0.149364 0.987738 
-0.108909 -0.0396772 0.99326 -0.0951206 0.0604284 0.99363 -0.0199565 -0.182267 0.983047 
0.15189 -0.117872 0.981344 0.134864 -0.0551959 0.989326 -0.0106551 -0.040958 0.999104 
-0.115764 -0.0140449 0.993177 -0.282021 0.0643758 0.957246 -0.579828 0.120632 0.805759 
0.252458 -0.177601 0.951169 0.151135 -0.0644352 0.986411 0.026082 -0.0683679 0.997319 
-0.0125556 -0.0151035 0.999807 0.168098 0.0887822 0.981764 0.131336 -0.00473461 0.991327 
-0.269085 -0.243475 0.931833 0.0362597 0.15987 0.986472 -0.209492 -0.101832 0.972493 
-0.0185687 -0.0207254 0.999613 0.190387 -0.0262195 0.981359 0.130925 -0.0686057 0.989016 
0.00586639 -0.110001 0.993914 -0.124557 0.0035722 0.992206 -0.214001 -0.139763 0.966783 
-0.622738 -0.111951 0.77438 0.323162 -0.0193746 0.946145 0.202003 -0.0598321 0.977556 
0.0739577 0.0103561 0.997208 0.052538 0.0538268 0.997167 0.025668 0.0308053 0.999196 
-0.107405 -0.257622 0.960258 0.116988 -0.0701943 0.99065 0.0165847 0.0835933 0.996362 
-0.22143 -0.160002 0.96196 0.0230482 0.062032 0.997808 0.102155 0.0205495 0.994556 
0.048783 -0.0401919 0.998 0.0596749 -0.111063 0.99202 -0.143747 -0.095788 0.984968 
-0.292257 -0.181531 0.938953 0.375474 -0.0812724 0.923263 0.227713 -0.142666 0.96322 
0.142952 -0.0606079 0.987872 0.0063388 0.00753457 0.999952 -0.0986801 -0.0790012 0.991978 
-0.0899832 -0.0731495 0.993253 0.132701 0.0388919 0.990393 -0.0481654 -0.141475 0.988769 
-0.14273 -0.0701994 0.987269 0.0840825 -0.0598964 0.994657 0.085935 -0.11157 0.990034 
0.000147625 -0.143555 0.989642 -0.0586488 -0.151322 0.986743 -0.216168 -0.316001 0.923805 
0.249997 -0.14951 0.956634 0.191944 -0.175691 0.965552 0.0347765 -0.137327 0.989915 
-0.0706853 -0.123832 0.989782 -0.00289026 -0.0540427 0.998534 0.041734 -0.043445 0.998184 
-0.0752973 -0.203334 0.97621 -0.13108 -0.14934 0.980059 -0.0164955 -0.225887 0.974014 
0.0125949 -0.290086 0.956918 -0.00182154 -0.264936 0.964264 -0.119182 -0.323092 0.938833 
0.187188 -0.357057 0.915134 0.0661276 -0.377266 0.923741 -0.0252338 -0.294234 0.9554 
-0.000109853 -0.256076 0.966657 -0.0292774 -0.298077 0.954093 -0.146298 -0.402535 0.903638 
0.126953 0.495359 0.859362 0.129347 0.635541 0.761155 0.0503353 0.992097 0.114934 
0.045423 0.751837 0.657782 -0.167474 0.754543 0.634522 -0.3207 0.624048 0.712541 
0.491738 0.544429 0.679552 0.260959 0.726736 0.635417 0.12759 0.730918 0.670433 
0.220206 0.888223 0.403198 0.0510105 0.597933 0.799922 0.0865301 0.69017 0.718455 
0.0249809 0.570346 0.821025 0.0290169 0.59204 0.805386 0.076 0.467329 0.880811 
0.0656918 0.464749 0.883002 0.0708868 0.480292 0.874239 -0.329064 0.62953 0.703853 
-0.303683 0.621348 0.72229 -0.402172 0.85845 0.318312 -0.270458 0.661146 0.699813 
0.50587 0.5243 0.684986 -0.286427 0.657435 0.696949 -0.345789 0.612706 0.710649 
-0.433511 0.813211 0.388274 -0.521548 0.434444 0.734333 0.551304 0.377563 0.743983 
0.55343 0.339505 0.76056 0.622649 0.448003 0.641562 -0.523525 0.431225 0.734824 
0.601802 0.106083 0.791568 -0.599835 0.330811 0.728534 -0.659943 0.259404 0.705113 
-0.823538 0.480392 0.301676 0.52514 -0.149039 0.837863 0.442223 -0.199485 0.87444 
-0.653773 0.13206 0.745078 0.342564 -0.203573 0.917174 0.453159 -0.228062 0.861763 
-0.658719 -0.11927 0.742876 -0.583647 -0.192522 0.788855 0.328451 -0.0283542 0.944095 
0.584168 -0.231542 0.777905 -0.417412 -0.253141 0.872747 -0.361716 -0.23629 0.901847 
-0.518676 -0.286035 0.805704 0.403908 -0.11192 0.907927 0.634898 -0.274604 0.722148 
0.422695 -0.204225 0.882962 -0.358138 -0.24622 0.900618 -0.225266 -0.404941 0.886159 
-0.369112 -0.246298 0.896155 -0.678898 -0.373582 0.632087 0.33884 -0.238086 0.910221 
0.502583 -0.379153 0.776952 0.321223 -0.32707 0.88873 -0.153716 -0.36283 0.91909 
-0.0463187 -0.350623 0.935371 0.0327359 -0.435561 0.899564 -0.0132536 -0.54321 0.839492 
-0.214464 -0.402036 0.890153 -0.183211 -0.449337 0.874374 -0.228164 -0.415997 0.880277 
-0.390381 -0.540537 0.745266 0.660226 -0.568898 0.490364 0.296764 -0.387267 0.8729 
0.359216 -0.417772 0.834524 0.194763 -0.41857 0.887055 0.0724434 -0.53409 0.842318 
0.013543 -0.474427 0.880191 0.00105687 -0.470024 0.882653 -0.067533 -0.492345 0.867777 
-0.156335 -0.40124 0.902533 -0.156769 -0.499063 0.852267 -0.159883 -0.407919 0.89891 
-0.0733472 -0.466294 0.881584 0.0218769 -0.583359 0.811919 -0.0189044 -0.601392 0.79873 
-0.222286 -0.669732 0.708553 -0.305902 -0.790947 0.529931 0.273139 -0.83009 0.486154 
0.0942004 -0.781273 0.61704 0.0605722 -0.729169 0.681647 -0.0120421 -0.729798 0.683557 
-0.113838 -0.767584 0.630759 -0.149351 -0.833186 0.532443 -0.139229 -0.858642 0.493304 
0.0495031 0.993518 0.102333 0.320851 0.94705 -0.0122848 0.232142 0.971268 0.0524175 
0.147265 0.981586 0.121662 0.0823576 0.978964 0.186672 0.0531168 0.993042 0.105098 
0.0858779 0.986293 0.140896 -0.0121661 0.996589 0.0816233 0.0479854 0.995893 0.0767778 
-0.0546373 0.996273 0.0667385 -0.19995 0.979647 0.0176382 -0.348661 0.936905 0.0253823 
-0.408922 0.912041 0.0310512 0.524903 0.842506 -0.121083 0.339414 0.937324 -0.0788762 
0.35673 0.92848 -0.103292 0.372659 0.83171 -0.411562 -0.40606 0.912984 0.0396828 
-0.388349 0.877309 -0.281983 -0.410131 0.910618 0.0506771 -0.480993 0.876549 0.0175544 
0.624212 0.775483 -0.0947875 0.729891 0.682477 -0.038519 0.506803 0.706907 -0.49339 
-0.524695 0.851278 0.00466879 -0.471839 0.810596 -0.346846 -0.646324 0.763062 0.00112019 
0.843673 0.536719 0.0121731 0.62966 0.549101 -0.54956 -0.756386 0.653859 0.018667 
-0.832489 0.552992 0.0340776 0.963563 0.245211 0.10685 -0.885625 0.461396 0.0527484 
-0.772783 0.487294 -0.406635 0.953383 -0.0158425 0.301348 -0.963653 0.238956 0.119468 
0.90546 -0.164156 0.391402 -0.97791 0.0133223 0.208602 0.890347 -0.219058 0.399118 
-0.961572 -0.181165 0.206299 0.810317 -0.296682 0.505337 0.718305 -0.444107 0.535544 
-0.868763 -0.398926 0.293442 -0.754814 -0.605156 0.253065 0.711258 -0.47181 0.521064 
0.767687 -0.520146 0.374305 -0.708109 -0.653415 0.26764 -0.510023 -0.735738 0.445607 
0.680727 -0.590843 0.433032 0.666644 -0.614333 0.422114 0.440364 -0.839524 0.318244 
-0.172026 -0.886037 0.430517 -0.127865 -0.861895 0.490701 -0.143331 -0.881054 0.450777 
-0.199935 -0.889739 0.410354 -0.406025 -0.800332 0.441149 -0.288556 -0.862916 0.414862 
-0.552187 -0.833483 -0.0198755 0.369925 -0.880658 0.295968 0.287021 -0.920583 0.26485 
0.153119 -0.940168 0.304365 0.0376612 -0.95443 0.29605 -0.0467522 -0.958666 0.280667 
-0.118128 -0.954536 0.273692 -0.139844 -0.930908 0.337424 -0.171734 -0.886604 0.429465 
-0.140118 -0.915001 0.378339 -0.171358 -0.889417 0.423761 -0.127556 -0.991775 0.0105843 
0.275001 0.781596 -0.559895 0.228699 0.829626 -0.50933 0.104085 0.906732 -0.408661 
0.0279344 0.913297 -0.406336 0.0046304 0.890232 -0.455484 -0.0843554 0.866238 -0.492458 
-0.206603 0.820998 -0.532238 -0.295891 0.809479 -0.507141 0.326077 0.674029 -0.662841 
0.324907 0.728473 -0.603127 0.344341 0.669476 -0.658203 0.268513 0.709886 -0.651124 
0.223938 0.647539 -0.728385 0.138167 0.577878 -0.804343 0.0221198 0.566759 -0.823587 
-0.0324642 0.568478 -0.822058 -0.0889076 0.580039 -0.809723 -0.158331 0.63424 -0.75675 
-0.330496 0.801037 -0.499111 -0.271905 0.739622 -0.615652 -0.350229 0.785368 -0.510427 
-0.377613 0.750531 -0.542321 0.395963 0.637658 -0.660761 0.442267 0.610152 -0.657354 
0.308116 0.589525 -0.746676 0.234563 0.500737 -0.833212 0.172865 0.374662 -0.910904 
0.183401 0.345173 -0.920445 -0.165791 0.386262 -0.907367 -0.246208 0.520338 -0.817698 
-0.409571 0.723333 -0.555914 -0.339539 0.665794 -0.664403 -0.435166 0.689869 -0.578542 
-0.556372 0.566835 -0.607576 0.589407 0.533789 -0.606357 0.601974 0.519821 -0.606147 
0.377467 0.474848 -0.795008 0.154972 0.357574 -0.920937 0.0764124 0.296278 -0.95204 
-0.209697 0.362636 -0.908032 -0.376361 0.451027 -0.809275 -0.569619 0.552843 -0.608193 
-0.540348 0.534739 -0.649675 0.736802 0.327666 -0.591403 0.557875 0.3451 -0.754773 
-0.300059 0.246747 -0.921456 -0.652562 0.441283 -0.61598 -0.51516 0.411739 -0.751719 
-0.677523 0.433259 -0.594348 0.850067 0.175506 -0.496571 0.509266 0.335013 -0.792726 
-0.791105 0.342955 -0.506493 -0.621124 0.346895 -0.702758 0.955316 0.00650827 -0.295514 
-0.905688 0.143078 -0.39907 -0.592276 0.200329 -0.780434 0.967393 -0.137696 -0.212581 
-0.9343 -0.0831342 -0.346659 -0.654186 -0.0303933 -0.755723 0.937192 -0.322618 -0.132621 
-0.867945 -0.368212 -0.333303 -0.79569 -0.534146 -0.285597 -0.709064 -0.374024 -0.597774 
0.830886 -0.546452 -0.104969 0.784217 -0.608883 -0.119434 0.746662 -0.554044 -0.368145 
-0.783084 -0.569593 -0.249687 0.63999 -0.750896 -0.162996 0.567582 -0.808644 -0.154741 
0.595695 -0.644055 -0.479939 0.431092 -0.86723 -0.249142 -0.172751 -0.980706 -0.091505 
-0.254691 -0.959507 -0.120324 -0.346133 -0.928576 -0.133937 -0.308847 -0.707748 -0.635379 
-0.562925 -0.80145 -0.201974 -0.53698 -0.819445 -0.200404 -0.547136 -0.802746 -0.237151 
0.35411 -0.898425 -0.25969 0.232099 -0.933448 -0.273504 0.198965 -0.868807 -0.453417 
0.149275 -0.918513 -0.36613 0.0935504 -0.811801 -0.576392 0.0501238 -0.943482 -0.327613 
0.079397 -0.76983 -0.633292 -0.0410141 -0.951367 -0.305316 -0.0154493 -0.736081 -0.676717 
-0.082544 -0.952021 -0.29469 -0.0596788 -0.778268 -0.625089 -0.0985728 -0.962135 -0.254126 
-0.0578499 -0.833957 -0.54879 -0.085023 -0.974012 -0.209934 -0.0589199 -0.90267 -0.426281 
-0.0792031 -0.985497 -0.150076 -0.0743607 -0.940296 -0.332137 -0.140182 -0.984167 -0.108463 
-0.119667 -0.985543 -0.11994 -0.114579 -0.978136 -0.173558 0.121316 0.383898 -0.915371 
0.0186566 0.388773 -0.921145 -0.0180771 0.403462 -0.914818 -0.0716705 0.402455 -0.91263 
-0.108906 0.388989 -0.914782 0.151262 0.29296 -0.944084 0.175706 0.336093 -0.925294 
0.179859 0.335779 -0.92461 0.105165 0.271118 -0.956784 0.0196661 0.220778 -0.975126 
-0.00197365 0.258653 -0.965968 -0.0522369 0.272254 -0.960807 -0.162802 0.383601 -0.909035 
-0.104046 0.339011 -0.935011 -0.164704 0.383876 -0.908577 -0.196845 0.379323 -0.904083 
0.326715 0.284784 -0.901196 0.132624 0.31399 -0.940118 0.0948942 0.282662 -0.954514 
0.0773847 0.281982 -0.956294 0.149582 0.26327 -0.953055 0.120871 0.244928 -0.961977 
0.0142459 0.129012 -0.991541 0.0115856 -0.00202757 -0.999931 0.0222854 0.0972893 -0.995007 
-0.00538212 0.105069 -0.99445 -0.0148504 0.20247 -0.979176 -0.101303 0.263982 -0.959193 
-0.1973 0.344154 -0.917949 -0.183759 0.319196 -0.929702 -0.205803 0.33195 -0.920573 
0.347206 0.251664 -0.90339 0.29322 0.225922 -0.928968 0.0856425 0.207678 -0.974441 
0.107806 0.225908 -0.968165 0.130078 0.199683 -0.971188 0.0496824 0.180137 -0.982386 
-0.149531 0.158593 -0.975955 -0.0096308 0.00979119 -0.999906 0.100784 0.20967 -0.972564 
0.0541746 0.0991473 -0.993597 0.0654301 0.18478 -0.980599 -0.0478711 0.179176 -0.982652 
-0.126655 0.199762 -0.971624 -0.287406 0.240975 -0.927 -0.215483 0.221477 -0.95106 
-0.279761 0.243461 -0.928688 -0.380574 0.236289 -0.894053 0.362464 0.278741 -0.889339 
0.485578 0.280141 -0.828091 0.240262 0.215957 -0.946381 0.148324 0.209778 -0.966433 
0.0885931 0.187529 -0.978256 0.100335 0.132508 -0.98609 0.0738009 0.0639499 -0.99522 
-0.118316 0.180165 -0.976495 0.0831275 0.297732 -0.951023 0.0515453 0.0252044 -0.998353 
-0.0341865 0.0778573 -0.996378 0.0655566 0.116251 -0.991054 -0.0829711 0.0951526 -0.991999 
-0.122141 0.12593 -0.984491 -0.147216 0.155808 -0.976755 -0.19779 0.238135 -0.950879 
-0.375789 0.208437 -0.90296 -0.349681 0.186466 -0.918125 0.583014 0.128259 -0.802274 
0.474673 0.124649 -0.871291 0.25979 0.217322 -0.940893 0.0363913 0.157646 -0.986825 
0.023127 0.156842 -0.987353 0.00342632 0.100952 -0.994885 0.0888091 0.0142418 -0.995947 
0.0577606 0.0252456 -0.998011 -0.167284 0.224509 -0.960006 -0.0946823 0.0409562 -0.994665 
0.16615 0.139527 -0.976179 0.077686 -0.0154554 -0.996858 -0.039069 0.0358629 -0.998593 
-0.0683097 0.0942544 -0.993202 -0.130792 0.136255 -0.982002 -0.240232 0.119473 -0.963335 
-0.396073 0.085774 -0.914204 -0.379023 0.0732491 -0.922484 0.594743 -0.0785151 -0.800072 
0.518173 -0.0657514 -0.852744 0.316084 -0.0329059 -0.94816 0.101053 0.036779 -0.994201 
0.0351643 0.058858 -0.997647 -0.040913 0.0833861 -0.995677 0.00424134 0.0370193 -0.999306 
0.111251 -0.0579582 -0.992101 0.0921502 -0.0122378 -0.99567 -0.0307588 0.189614 -0.981377 
-0.104194 0.134719 -0.985391 -0.036171 -0.00789765 -0.999314 0.0261618 -0.00447748 -0.999648 
-0.0215776 0.0297208 -0.999325 -0.11693 0.0571605 -0.991494 -0.217666 0.0708711 -0.973447 
-0.513481 -0.0104594 -0.858037 -0.26402 0.00947507 -0.964471 0.582676 -0.223675 -0.781319 
0.574083 -0.267189 -0.773976 0.557491 -0.212969 -0.802401 0.327175 -0.186319 -0.926413 
0.119349 -0.0842647 -0.98927 0.0684021 -0.058346 -0.99595 -0.0185432 -0.0598004 -0.998038 
-0.0512679 -0.0262804 -0.998339 0.00517932 -0.0751351 -0.99716 0.0662581 -0.164037 -0.984227 
0.0651959 -0.191001 -0.979422 -0.0377695 -0.100204 -0.99425 -0.0576805 -0.0280305 -0.997941 
-0.00151381 -0.0584139 -0.998291 -0.00600441 -0.0450234 -0.998968 -0.104649 -0.0749049 -0.991684 
-0.255025 -0.0779599 -0.963786 -0.517006 -0.128617 -0.846264 -0.491781 -0.104579 -0.864416 
0.473903 -0.380108 -0.794313 0.468728 -0.381243 -0.796836 0.427948 -0.354924 -0.831197 
0.20705 -0.192252 -0.959255 0.0592485 -0.196663 -0.978679 -0.00666717 -0.21095 -0.977474 
-0.0105514 -0.181697 -0.983298 -0.0243809 -0.172455 -0.984716 -0.0198825 -0.206581 -0.978227 
0.0284977 -0.255689 -0.966339 0.0590077 -0.255338 -0.96505 0.00367002 -0.197184 -0.98036 
0.00325535 -0.195728 -0.980653 -0.0331196 -0.262076 -0.964479 -0.140061 -0.244435 -0.959497 
-0.301704 -0.560422 -0.771299 -0.326663 -0.355894 -0.875574 -0.446433 -0.308562 -0.839933 
-0.446336 -0.309018 -0.839817 -0.446006 -0.308229 -0.840282 0.400598 -0.552991 -0.730563 
0.244488 -0.668612 -0.70227 0.258012 -0.574587 -0.776711 0.101698 -0.592776 -0.798921 
0.0712269 -0.499729 -0.863248 0.0505634 -0.599522 -0.798759 0.0180494 -0.418427 -0.908071 
0.0369283 -0.558732 -0.828525 -0.0138087 -0.376316 -0.926389 -0.00976537 -0.539066 -0.842207 
-0.0173481 -0.352694 -0.935578 -0.0371386 -0.526173 -0.849566 -0.0269394 -0.377348 -0.92568 
0.000878402 -0.540839 -0.841126 0.0177296 -0.381904 -0.924032 -0.00531546 -0.603584 -0.797282 
0.0211685 -0.417115 -0.908607 -0.0465565 -0.620069 -0.783165 -0.0130738 -0.45716 -0.889289 
-0.0491571 -0.645605 -0.762088 -0.047366 -0.484377 -0.873576 -0.126008 -0.64106 -0.757076 
-0.108 -0.508938 -0.854001 -0.162878 -0.671403 -0.722972 -0.161622 -0.672139 -0.72257 
-0.161455 -0.671715 -0.723001 
