# vtk DataFile Version 4.2
vtk output
ASCII
DATASET POLYDATA
POINTS 558 float
-39.0503 -1.49741 -19.9027 37.497 -1.49741 -19.6818 -16.0861 -39.7711 -14.3689 
-8.43134 -39.7711 -15.9288 -0.776614 -39.7711 -16.66 6.87812 -39.7711 -16.9164 
14.5328 -39.7711 -16.4264 -31.3955 -32.1163 -14.5683 -23.7408 -32.1163 -16.5899 
-16.0861 -32.1163 -18.4141 -8.43134 -32.1163 -18.6615 -0.776614 -32.1163 -18.8386 
6.87812 -32.1163 -19.1161 14.5328 -32.1163 -19.2807 22.1876 -32.1163 -15.2036 
-39.0503 -24.4616 -16.0617 -31.3955 -24.4616 -17.8159 -23.7408 -24.4616 -18.6712 
-16.0861 -24.4616 -19.3114 -8.43134 -24.4616 -18.986 -0.776614 -24.4616 -18.8483 
6.87812 -24.4616 -19.4446 14.5328 -24.4616 -18.7147 22.1876 -24.4616 -15.3956 
-46.705 -16.8069 -16.1093 -39.0503 -16.8069 -18.248 -31.3955 -16.8069 -19.5345 
-23.7408 -16.8069 -19.3154 -16.0861 -16.8069 -18.7917 -8.43134 -16.8069 -18.4477 
-0.776614 -16.8069 -17.6641 6.87812 -16.8069 -17.9579 14.5328 -16.8069 -16.7971 
22.1876 -16.8069 -15.3026 29.8423 -16.8069 -14.145 37.497 -16.8069 -13.5121 
-54.3597 -9.15214 -14.0054 -46.705 -9.15214 -18.2154 -39.0503 -4.28605 -19.6722 
-39.0503 -9.15214 -19.2663 -31.3955 -9.15214 -19.3127 -23.7408 -9.15214 -18.5056 
-16.0861 -9.15214 -17.8131 -8.43134 -9.15214 -18.3828 -0.776614 -9.15214 -17.0564 
6.87812 -9.15214 -16.7945 14.5328 -9.15214 -15.6197 22.1876 -9.15214 -16.8373 
29.8423 -9.15214 -17.847 37.497 -1.5446 -19.6722 37.497 -9.15214 -18.0741 
45.1518 -9.15214 -16.8967 52.8065 -9.15214 -14.0263 -54.3597 -1.49741 -16.0873 
-41.7261 -1.49741 -19.6722 -46.705 -1.49741 -19.1966 -35.3833 -1.49741 -19.6722 
-39.0503 5.67655 -19.6722 -31.3955 -1.49741 -19.4259 -23.7408 -1.49741 -18.2444 
-16.0861 -1.49741 -17.0367 -8.43134 -1.49741 -19.3706 -0.776614 -1.49741 -14.8472 
6.87812 -1.49741 -17.829 14.5328 -1.49741 -17.0411 22.1876 -1.49741 -18.1403 
37.3088 -1.49741 -19.6722 29.8423 -1.49741 -19.2946 37.638 -1.49741 -19.6722 
37.497 -1.41605 -19.6722 45.1518 -1.49741 -19.135 52.8065 -1.49741 -16.3742 
-54.3597 6.15732 -16.6502 -46.705 6.15732 -19.1586 -39.0503 6.15732 -19.6568 
-31.3955 6.15732 -19.1123 -23.7408 6.15732 -17.6524 -16.0861 6.15732 -16.1042 
-8.43134 6.15732 -17.661 -0.776614 6.15732 -15.6014 6.87812 6.15732 -17.7357 
14.5328 6.15732 -16.2788 22.1876 6.15732 -17.228 29.8423 6.15732 -18.4431 
37.497 6.15732 -18.7737 45.1518 6.15732 -18.1773 52.8065 6.15732 -16.426 
-54.3597 13.8121 -14.5537 -46.705 13.8121 -17.4086 -39.0503 13.8121 -18.2905 
-31.3955 13.8121 -18.2978 -23.7408 13.8121 -16.8689 -16.0861 13.8121 -15.0934 
-8.43134 13.8121 -14.4749 -0.776614 13.8121 -14.6691 6.87812 13.8121 -16.4497 
14.5328 13.8121 -16.4396 22.1876 13.8121 -16.4804 29.8423 13.8121 -17.1442 
37.497 13.8121 -17.4438 45.1518 13.8121 -16.2664 52.8065 13.8121 -13.0718 
-46.705 21.4668 -15.3021 -39.0503 21.4668 -16.0395 -31.3955 21.4668 -16.0844 
-23.7408 21.4668 -15.2481 -16.0861 21.4668 -14.7108 -8.43134 21.4668 -14.1516 
-0.776614 21.4668 -15.0399 6.87812 21.4668 -15.7434 14.5328 21.4668 -16.2915 
22.1876 21.4668 -16.1471 29.8423 21.4668 -15.4241 37.497 21.4668 -15.1034 
45.1518 21.4668 -12.3417 -31.3955 29.1215 -12.6163 -16.0861 29.1215 -12.1296 
-8.43134 29.1215 -13.1069 -0.776614 29.1215 -13.7235 6.87812 29.1215 -14.5729 
14.5328 29.1215 -14.838 22.1876 29.1215 -14.0129 29.8423 29.1215 -12.7824 
-16.0861 -41.829 -12.0174 -8.43134 -44.1718 -12.0174 -0.776614 -45.2386 -12.0174 
-0.776614 -47.4258 -5.32913 6.87812 -45.4 -12.0174 6.87812 -47.4258 -5.07188 
14.5328 -44.0355 -12.0174 -31.3955 -34.5902 -12.0174 -20.6123 -39.7711 -12.0174 
-23.7408 -38.0611 -12.0174 20.5641 -39.7711 -12.0174 22.1876 -37.9431 -12.0174 
22.1876 -39.7711 -9.26101 -36.0586 -32.1163 -12.0174 -39.0503 -29.9535 -12.0174 
-39.0503 -32.1163 -7.24834 25.3486 -32.1163 -12.0174 -46.3582 -24.4616 -12.0174 
-46.705 -24.1564 -12.0174 -46.705 -24.4616 -11.6249 27.8825 -24.4616 -12.0174 
29.8423 -21.3981 -12.0174 29.8423 -24.4616 -10.0921 37.497 -18.4112 -12.0174 
-53.1128 -16.8069 -12.0174 -54.3597 -14.0511 -12.0174 -54.3597 -16.8069 -9.13379 
41.7174 -16.8069 -12.0174 45.1518 -15.3565 -12.0174 45.1518 -16.8069 -10.279 
52.8065 -11.7245 -12.0174 -56.0873 -9.15214 -12.0174 55.4844 -9.15214 -12.0174 
60.4612 -9.15214 -6.1955 -58.1954 -1.49741 -12.0174 60.3504 -1.49741 -12.0174 
60.4612 -1.49741 -11.9065 -58.814 6.15732 -12.0174 59.7949 6.15732 -12.0174 
60.4612 6.15732 -11.4545 -57.4081 13.8121 -12.0174 -54.3597 19.4905 -12.0174 
54.3243 13.8121 -12.0174 52.8065 15.972 -12.0174 60.4612 13.8121 -6.12024 
-52.7117 21.4668 -12.0174 -54.3597 21.4668 -10.937 -46.705 27.0455 -12.0174 
-39.0503 28.1206 -12.0174 -23.7408 29.0362 -12.0174 37.497 26.6724 -12.0174 
45.9805 21.4668 -12.0174 45.1518 22.0422 -12.0174 52.8065 21.4668 -8.17759 
-46.705 29.1215 -10.2841 -35.2653 29.1215 -12.0174 -39.0503 29.1215 -11.2008 
-24.1918 29.1215 -12.0174 -31.3955 29.8806 -12.0174 -21.6857 29.1215 -12.0174 
-23.7408 29.1215 -11.9746 -16.0861 29.2819 -12.0174 -8.43134 31.003 -12.0174 
-0.776614 32.7214 -12.0174 6.87812 34.4466 -12.0174 14.5328 34.0996 -12.0174 
22.1876 32.0364 -12.0174 32.2788 29.1215 -12.0174 29.8423 30.1988 -12.0174 
37.497 29.1215 -9.75122 45.1518 29.1215 -5.89267 -23.7408 36.7762 -4.48534 
-16.0861 36.7762 -4.4576 -8.43134 36.7762 -6.04034 -0.776614 36.7762 -8.91027 
6.87812 36.7762 -10.2847 14.5328 36.7762 -9.35307 22.1876 36.7762 -6.84753 
-0.776614 -47.6664 -4.3627 6.87812 -47.5872 -4.3627 -16.0861 -43.4998 -4.3627 
-2.32268 -47.4258 -4.3627 -8.43134 -46.43 -4.3627 -0.776614 -47.4258 -3.20255 
7.8842 -47.4258 -4.3627 6.87812 -47.4258 -3.6467 14.5328 -46.2627 -4.3627 
22.1876 -41.7536 -4.3627 -39.0503 -33.0416 -4.3627 -31.3955 -36.0328 -4.3627 
-23.6027 -39.7711 -4.3627 -23.7408 -39.707 -4.3627 24.3588 -39.7711 -4.3627 
-40.8234 -32.1163 -4.3627 -46.705 -28.4898 -4.3627 -39.0503 -32.1163 -1.14751 
29.5056 -32.1163 -4.3627 29.8423 -31.6308 -4.3627 -51.0026 -24.4616 -4.3627 
-54.3597 -19.4797 -4.3627 37.0682 -24.4616 -4.3627 37.497 -24.1962 -4.3627 
37.497 -24.4616 -2.15791 45.1518 -21.113 -4.3627 -55.7696 -16.8069 -4.3627 
-54.3597 -16.8069 0.836285 52.5416 -16.8069 -4.3627 52.8065 -16.6546 -4.3627 
52.8065 -16.8069 -2.56913 60.4612 -10.459 -4.3627 -58.9372 -9.15214 -4.3627 
61.5384 -9.15214 -4.3627 -61.0767 -1.49741 -4.3627 64.5935 -1.49741 -4.3627 
-61.9104 6.15732 -4.3627 65.0317 6.15732 -4.3627 -61.9156 13.8121 -4.3627 
61.5487 13.8121 -4.3627 60.4612 15.6417 -4.3627 -58.6293 21.4668 -4.3627 
-54.3597 26.5611 -4.3627 55.8465 21.4668 -4.3627 52.8065 24.3732 -4.3627 
-51.3163 29.1215 -4.3627 -46.705 32.1497 -4.3627 -39.0503 34.5468 -4.3627 
-31.3955 35.6218 -4.3627 29.8423 36.5016 -4.3627 37.497 33.2994 -4.3627 
46.5826 29.1215 -4.3627 45.1518 30.0271 -4.3627 -24.2927 36.7762 -4.3627 
-31.3955 36.7762 1.09188 -23.7408 36.8578 -4.3627 -16.0861 36.8341 -4.3627 
-8.43134 37.7588 -4.3627 -0.776614 39.544 -4.3627 6.87812 40.5414 -4.3627 
14.5328 39.8477 -4.3627 28.7513 36.7762 -4.3627 22.1876 38.2539 -4.3627 
29.8423 36.7762 -0.54799 -16.0861 -40.9202 3.29203 -8.43134 -44.3843 3.29203 
-0.776614 -45.8732 3.29203 6.87812 -45.6116 3.29203 14.5328 -44.101 3.29203 
22.1876 -40.1692 3.29203 -31.3955 -33.6649 3.29203 -18.262 -39.7711 3.29203 
-23.7408 -36.8716 3.29203 -16.0861 -39.7711 4.74999 -8.43134 -39.7711 9.13566 
-0.776614 -39.7711 10.6926 6.87812 -39.7711 10.2545 14.5328 -39.7711 8.52421 
22.6537 -39.7711 3.29203 22.1876 -39.7711 3.91559 -46.705 -25.999 3.29203 
-35.5711 -32.1163 3.29203 -39.0503 -30.7496 3.29203 -31.3955 -32.1163 5.66409 
-23.7408 -32.1163 8.7412 29.3102 -32.1163 3.29203 29.8423 -31.5021 3.29203 
37.497 -25.0349 3.29203 -48.3067 -24.4616 3.29203 -46.705 -24.4616 5.01283 
-39.0503 -24.4616 10.187 38.8602 -24.4616 3.29203 37.497 -24.4616 4.54495 
45.1518 -21.8419 3.29203 52.8065 -17.28 3.29203 -53.5361 -16.8069 3.29203 
-54.3597 -15.3319 3.29203 -46.705 -16.8069 9.96949 53.5462 -16.8069 3.29203 
52.8065 -16.8069 4.64627 60.4612 -10.8387 3.29203 -57.0275 -9.15214 3.29203 
-54.3597 -9.15214 6.97282 61.8491 -9.15214 3.29203 60.4612 -9.15214 6.03368 
-59.2053 -1.49741 3.29203 -54.3597 -1.49741 9.84982 64.9173 -1.49741 3.29203 
-60.1972 6.15732 3.29203 65.7034 6.15732 3.29203 -60.9238 13.8121 3.29203 
62.3219 13.8121 3.29203 60.4612 17.0932 3.29203 60.4612 13.8121 7.61099 
-57.6961 21.4668 3.29203 -54.3597 26.1075 3.29203 -54.3597 21.4668 8.8535 
57.1763 21.4668 3.29203 52.8065 25.6131 3.29203 -51.4538 29.1215 3.29203 
-46.705 32.6267 3.29203 -46.705 29.1215 10.5342 -39.0503 35.7447 3.29203 
37.497 34.2509 3.29203 47.922 29.1215 3.29203 45.1518 30.7954 3.29203 
45.1518 29.1215 7.21749 -33.6277 36.7762 3.29203 -31.3955 37.1764 3.29203 
-31.3955 36.7762 5.05657 -23.7408 37.7257 3.29203 -23.7408 36.7762 10.4483 
-16.0861 38.3685 3.29203 -16.0861 36.7762 10.8547 -8.43134 38.9549 3.29203 
-0.776614 40.553 3.29203 6.87812 41.4489 3.29203 14.5328 40.6398 3.29203 
22.1876 38.7078 3.29203 22.1876 36.7762 7.7122 30.4756 36.7762 3.29203 
29.8423 36.9999 3.29203 29.8423 36.7762 3.82653 -16.0861 -33.5534 10.9468 
-8.43134 -37.419 10.9468 -0.776614 -39.3926 10.9468 6.87812 -38.7281 10.9468 
14.5328 -36.654 10.9468 22.1876 -32.9638 10.9468 -31.3955 -27.1879 10.9468 
-18.9197 -32.1163 10.9468 -23.7408 -29.4521 10.9468 -16.0861 -32.1163 11.9515 
-8.43134 -32.1163 13.8151 -0.776614 -32.1163 14.3316 6.87812 -32.1163 14.0604 
14.5328 -32.1163 13.6323 22.9984 -32.1163 10.9468 22.1876 -32.1163 11.4668 
29.8423 -25.4732 10.9468 -37.0957 -24.4616 10.9468 -39.0503 -23.3235 10.9468 
-31.3955 -24.4616 12.7689 -23.7408 -24.4616 14.0529 -16.0861 -24.4616 15.3057 
-8.43134 -24.4616 15.8213 -0.776614 -24.4616 15.4103 6.87812 -24.4616 15.6548 
14.5328 -24.4616 15.9061 22.1876 -24.4616 14.5294 31.2721 -24.4616 10.9468 
29.8423 -24.4616 11.6346 37.497 -20.9607 10.9468 45.1518 -17.8684 10.9468 
-45.3202 -16.8069 10.9468 -46.705 -14.491 10.9468 -39.0503 -16.8069 14.2018 
-31.3955 -16.8069 15.7997 -23.7408 -16.8069 16.649 -16.0861 -16.8069 17.478 
[...]
POINT_DATA 558
SCALARS ImageScalars float
LOOKUP_TABLE default
0 0 0 0 0 0 0 0 0 
0 0 0 0 0 0 0 0 0 
0 0 0 0 0 0 0 0 0 
0 0 0 0 0 0 0 0 0 
0 0 0 0 0 0 0 0 0 
0 0 0 0 0 0 0 0 0 
0 0 0 0 0 0 0 0 0 
0 0 0 0 0 0 0 0 0 
0 0 0 0 0 0 0 0 0 
0 0 0 0 0 0 0 0 0 
0 0 0 0 0 0 0 0 0 
0 0 0 0 0 0 0 0 0 
0 0 0 0 0 0 0 0 0 
0 0 0 0 0 0 0 0 0 
0 0 0 0 0 0 0 0 0 
0 0 0 0 0 0 0 0 0 
0 0 0 0 0 0 0 0 0 
0 0 0 0 0 0 0 0 0 
0 0 0 0 0 0 0 0 0 
0 0 0 0 0 0 0 0 0 
0 0 0 0 0 0 0 0 0 
0 0 0 0 0 0 0 0 0 
0 0 0 0 0 0 0 0 0 
0 0 0 0 0 0 0 0 0 
0 0 0 0 0 0 0 0 0 
0 0 0 0 0 0 0 0 0 
0 0 0 0 0 0 0 0 0 
0 0 0 0 0 0 0 0 0 
0 0 0 0 0 0 0 0 0 
0 0 0 0 0 0 0 0 0 
0 0 0 0 0 0 0 0 0 
0 0 0 0 0 0 0 0 0 
0 0 0 0 0 0 0 0 0 
0 0 0 0 0 0 0 0 0 
0 0 0 0 0 0 0 0 0 
0 0 0 0 0 0 0 0 0 
0 0 0 0 0 0 0 0 0 
0 0 0 0 0 0 0 0 0 
0 0 0 0 0 0 0 0 0 
0 0 0 0 0 0 0 0 0 
0 0 0 0 0 0 0 0 0 
0 0 0 0 0 0 0 0 0 
0 0 0 0 0 0 0 0 0 
0 0 0 0 0 0 0 0 0 
0 0 0 0 0 0 0 0 0 
0 0 0 0 0 0 0 0 0 
0 0 0 0 0 0 0 0 0 
0 0 0 0 0 0 0 0 0 
0 0 0 0 0 0 0 0 0 
0 0 0 0 0 0 0 0 0 
0 0 0 0 0 0 0 0 0 
0 0 0 0 0 0 0 0 0 
0 0 0 0 0 0 0 0 0 
0 0 0 0 0 0 0 0 0 
0 0 0 0 0 0 0 0 0 
0 0 0 0 0 0 0 0 0 
0 0 0 0 0 0 0 0 0 
0 0 0 0 0 0 0 0 0 
0 0 0 0 0 0 0 0 0 
0 0 0 0 0 0 0 0 0 
0 0 0 0 0 0 0 0 0 
0 0 0 0 0 0 0 0 0 

NORMALS Normals float
0.00989278 0.0250285 0.999638 -0.00856778 0.0426599 0.999053 0.293441 0.706122 0.644425 
0.126453 0.554706 0.822381 0.0588717 0.478553 0.876083 -0.00845016 0.48312 0.875514 
-0.299766 0.5415 0.785441 0.333276 0.652228 0.680828 0.234418 0.448129 0.862687 
0.13259 0.268321 0.954161 0.0256082 0.167998 0.985455 0.0298742 0.127903 0.991337 
0.0271298 0.148837 0.988489 -0.217291 0.0983389 0.971141 -0.651446 0.216068 0.727277 
0.309682 0.423723 0.851208 0.153948 0.279446 0.947739 0.0949296 0.156854 0.983049 
0.0230544 0.0193477 0.999547 -0.0299497 -0.0131839 0.999464 0.0296278 -0.0732575 0.996873 
-0.00709828 -0.0706873 0.997473 -0.254051 -0.154019 0.954849 -0.468863 0.00442367 0.88326 
0.402962 0.297638 0.865467 0.204446 0.176866 0.962767 0.0753197 0.102391 0.991889 
-0.0481861 -0.00849947 0.998802 -0.0568398 -0.0980572 0.993556 -0.0715984 -0.0394621 0.996653 
-0.0335215 -0.118762 0.992357 -0.0569379 -0.175592 0.982815 -0.173257 -0.200461 0.96426 
-0.155661 0.0878082 0.9839 -0.118424 0.436092 0.892076 -0.159079 0.663413 0.731148 
0.687703 0.255962 0.679373 0.268577 0.199269 0.942422 0.0299912 0.0574683 0.997897 
0.0650361 0.111991 0.991579 -0.0495509 -0.00653329 0.99875 -0.0974649 -0.0692541 0.992827 
-0.00788357 -0.113819 0.99347 -0.0500646 0.0571975 0.997107 -0.104612 -0.149814 0.983164 
-0.0948039 -0.0118699 0.995425 -0.00293755 0.0168485 0.999854 0.142542 0.191158 0.971154 
0.0767329 0.288237 0.95448 -0.008811 0.0445062 0.99897 -0.0544282 0.349714 0.935274 
-0.21501 0.406749 0.887877 -0.459224 0.453589 0.763786 0.585798 0.125547 0.800674 
0.0705578 0.0367918 0.996829 0.199178 0.0601454 0.978116 -0.0459662 0.00694067 0.998919 
-0.00473914 -0.0956481 0.995404 -0.106769 -0.0127545 0.994202 -0.154387 -0.054531 0.986504 
0.0658097 -0.113902 0.99131 -0.0774694 -0.0217393 0.996758 -0.128223 -0.121986 0.984215 
0.106512 0.0670568 0.992048 0.0263453 0.0443263 0.99867 0.146205 0.023564 0.988974 
-0.00583288 0.042337 0.999086 0.0998095 0.0307844 0.99453 -0.0120814 0.0431772 0.998994 
-0.00857314 0.0407979 0.999131 -0.198647 0.0702192 0.977552 -0.419327 0.109657 0.901188 
0.540615 -0.0796568 0.83749 0.154245 -0.113196 0.981527 -0.00573751 -0.103613 0.994601 
-0.128502 -0.071461 0.989131 -0.191769 -0.0881262 0.977476 -0.0218736 -0.127235 0.991631 
-0.0289585 -0.342955 0.938905 0.0355099 -0.0252046 0.999051 0.0380887 -0.0903822 0.995179 
-0.0350297 -0.03999 0.998586 0.142843 -0.110749 0.98353 0.0946953 -0.137706 0.985936 
-0.0151389 -0.138694 0.99022 -0.131099 -0.186656 0.973639 -0.375491 -0.177786 0.909614 
0.511418 -0.277273 0.813371 0.203275 -0.213259 0.955615 0.0518261 -0.218767 0.9744 
-0.094058 -0.197963 0.975686 -0.203109 -0.150306 0.967551 -0.154591 -0.0885407 0.984003 
-0.0273987 -0.181265 0.983053 0.126145 -0.0333177 0.991452 0.114986 -0.127576 0.985141 
0.00201708 0.000818042 0.999998 0.0450049 -0.0662748 0.996786 0.0611846 -0.200891 0.977701 
-0.0565182 -0.250053 0.966581 -0.231741 -0.31638 0.919891 -0.480565 -0.370856 0.794684 
0.268535 -0.413371 0.870065 0.0379302 -0.392474 0.918981 -0.0491112 -0.347027 0.936568 
-0.0857696 -0.288056 0.953765 -0.0702482 -0.168084 0.983266 0.0220815 -0.0900275 0.995694 
0.103102 -0.0562228 0.993081 0.0796616 -0.114792 0.99019 0.0268261 -0.106365 0.993965 
-0.0601819 -0.148921 0.987016 -0.065638 -0.263454 0.962436 -0.15972 -0.380461 0.9109 
-0.355921 -0.488771 0.796507 0.0304763 -0.583806 0.811321 0.0761178 -0.476712 0.875758 
0.0923264 -0.347889 0.932978 0.093806 -0.300708 0.949092 0.0701153 -0.286997 0.955362 
-0.0312014 -0.342531 0.938988 -0.131704 -0.432698 0.891867 -0.209055 -0.505362 0.837201 
0.334821 0.810934 0.479877 0.198587 0.803245 0.561569 0.0662077 0.818631 0.570491 
0.0717797 0.994487 0.0764355 -0.0638065 0.835044 0.546471 -0.0836552 0.995609 0.0420084 
-0.326848 0.788099 0.521604 0.394055 0.788777 0.471754 0.38856 0.796981 0.462431 
0.397318 0.774762 0.491815 -0.588436 0.592174 0.550521 -0.658507 0.508853 0.554471 
-0.680087 0.624913 0.383361 0.429813 0.753807 0.497027 0.451505 0.706969 0.544369 
0.446057 0.876713 0.180021 -0.746936 0.294521 0.596108 0.561908 0.600154 0.569276 
0.566437 0.59419 0.571041 0.578124 0.613724 0.537695 -0.537114 0.291596 0.791505 
-0.394818 0.413929 0.820233 -0.588918 0.443463 0.67566 -0.209677 0.703983 0.67856 
0.728084 0.388413 0.564827 0.761668 0.341338 0.550772 0.843191 0.422809 0.332056 
-0.234079 0.713787 0.660087 -0.287258 0.691938 0.662348 -0.309579 0.760759 0.570444 
-0.472517 0.57709 0.666104 0.778915 0.268169 0.566901 -0.549869 0.491875 0.675058 
-0.758372 0.555095 0.341674 0.795053 0.151452 0.587326 -0.698276 0.149087 0.700131 
-0.705528 0.150441 0.69253 0.790059 -0.0301182 0.612291 -0.638416 -0.227291 0.735366 
-0.676575 -0.227361 0.700395 0.668305 -0.26505 0.695066 0.554777 -0.430877 0.711735 
-0.526855 -0.376 0.762265 -0.487697 -0.415279 0.767916 -0.787052 -0.461776 0.409038 
0.507382 -0.47155 0.721252 0.585977 -0.501459 0.636529 0.322044 -0.558262 0.764612 
0.0989811 -0.61236 0.784359 -0.0312827 -0.514609 0.856854 -0.245057 -0.578074 0.778317 
-0.371639 -0.49726 0.783975 -0.362185 -0.503052 0.784705 -0.554121 -0.625526 0.549243 
0.357629 -0.671604 0.648883 0.0659364 -0.617707 0.783639 0.107281 -0.667871 0.736504 
-0.0268477 -0.521674 0.852723 0.0371169 -0.617217 0.785917 -0.00223472 -0.507374 0.861723 
-0.0301449 -0.51815 0.854759 0.0775399 -0.483668 0.87181 0.119391 -0.451938 0.884024 
0.12242 -0.469335 0.874493 0.0396668 -0.541896 0.839509 -0.0950242 -0.582104 0.807543 
-0.163386 -0.562053 0.810803 -0.229668 -0.561057 0.795278 -0.219245 -0.554174 0.803009 
-0.292828 -0.700819 0.650465 -0.469929 -0.787036 0.399676 0.0714014 -0.915686 0.395502 
0.0582002 -0.912582 0.404731 0.173343 -0.879342 0.44352 0.17333 -0.767355 0.617352 
0.0185992 -0.71286 0.70106 -0.134546 -0.781954 0.608642 -0.206994 -0.869105 0.449232 
0.0715557 0.997238 0.01989 -0.0842672 0.996443 0.000434357 0.40224 0.914693 -0.0392399 
0.105392 0.994324 0.0145608 0.247749 0.968817 -0.00367631 0.0727312 0.996646 -0.0375193 
-0.113525 0.993535 -0.000459864 -0.0860502 0.995678 -0.0349408 -0.32411 0.946 -0.00603537 
-0.677312 0.733637 0.0550015 0.423597 0.905803 0.0092656 0.391895 0.918374 -0.054841 
0.437954 0.896374 -0.0686309 0.43807 0.896323 -0.0685583 -0.751219 0.655411 0.0781491 
0.45859 0.888583 0.0107046 0.618242 0.785104 0.0372629 0.408054 0.896497 -0.172582 
-0.823627 0.511976 0.243966 -0.815206 0.518657 0.257748 0.749403 0.660679 0.0435589 
0.863779 0.503734 0.0117215 -0.43175 0.82555 0.363399 -0.413551 0.835651 0.361474 
-0.440381 0.871647 0.215167 -0.399071 0.86826 0.294733 0.89627 0.443355 0.0116535 
0.845218 0.448434 -0.290713 -0.491706 0.843277 0.217048 -0.497 0.84068 0.215051 
-0.50627 0.85171 0.135209 -0.768843 0.586231 0.255371 0.949428 0.312698 0.0283807 
-0.794215 0.552706 0.252465 0.980933 0.193129 0.0217369 -0.947384 0.18033 0.264472 
0.99753 0.0528748 0.046249 -0.932804 -0.192235 0.304832 0.971986 -0.200488 0.122673 
-0.829896 -0.460975 0.314286 -0.800064 -0.5086 0.318157 0.842662 -0.508904 0.175892 
0.676607 -0.701951 0.222415 -0.669897 -0.666296 0.327549 -0.6156 -0.714694 0.332039 
0.566155 -0.789848 0.235814 0.414818 -0.880359 0.229987 0.225295 -0.903625 0.364286 
0.128447 -0.912538 0.388299 -0.28249 -0.911824 0.297954 -0.369276 -0.862501 0.346016 
-0.507916 -0.802256 0.313699 -0.47903 -0.821149 0.310232 0.0761421 -0.91848 0.388068 
0.128476 -0.987769 0.0883544 0.0717597 -0.918617 0.388578 0.057671 -0.91478 0.399814 
0.170456 -0.920366 0.351954 0.17897 -0.928059 0.326614 0.0206537 -0.945929 0.323717 
-0.144878 -0.939115 0.311566 -0.271451 -0.915813 0.295975 -0.218645 -0.928786 0.299251 
-0.290512 -0.955164 0.0571339 0.416459 0.789551 -0.450745 0.266587 0.864033 -0.427057 
0.0712213 0.908846 -0.411006 -0.0974741 0.8964 -0.432396 -0.303987 0.844359 -0.441192 
-0.562655 0.752112 -0.343143 0.322339 0.847275 -0.422164 0.414829 0.788511 -0.454056 
0.38472 0.791837 -0.474326 0.406706 0.75507 -0.514257 0.250595 0.656864 -0.711149 
0.0487975 0.589016 -0.806647 -0.0976983 0.604024 -0.790955 -0.250787 0.685786 -0.683231 
-0.577271 0.742605 -0.339553 -0.556563 0.74368 -0.370374 0.613626 0.655232 -0.440605 
0.34162 0.840041 -0.421458 0.380713 0.81409 -0.438537 0.299271 0.808677 -0.506436 
0.284406 0.657327 -0.697879 -0.742977 0.625259 -0.238825 -0.738635 0.633629 -0.230071 
-0.471437 0.868901 -0.150858 0.655551 0.613034 -0.440956 0.606238 0.602131 -0.519532 
0.35326 0.577545 -0.735968 -0.449836 0.880517 -0.149457 -0.446902 0.867177 -0.219734 
-0.426596 0.892593 -0.145925 -0.516954 0.848589 -0.112494 0.781498 0.438638 -0.443687 
0.800666 0.413723 -0.433321 0.559015 0.362025 -0.745949 -0.540045 0.833262 -0.118428 
-0.522898 0.832454 -0.183299 -0.788447 0.587123 -0.183405 0.851145 0.31215 -0.422037 
0.742645 0.307667 -0.594828 -0.818523 0.54602 -0.178556 -0.766673 0.554369 -0.323863 
0.886617 0.193574 -0.420046 0.668555 0.2083 -0.713894 -0.962687 0.201325 -0.180839 
0.911587 0.105481 -0.397344 -0.972597 -0.162892 -0.165895 0.923305 -0.155642 -0.351117 
-0.888105 -0.438803 -0.136823 -0.836583 -0.531984 -0.130847 -0.812247 -0.436356 -0.387103 
0.832627 -0.462926 -0.304026 0.732241 -0.632357 -0.25288 0.696879 -0.419456 -0.581736 
-0.726753 -0.676558 -0.118738 -0.639414 -0.759852 -0.117366 0.637729 -0.74254 -0.204782 
0.491517 -0.85717 -0.153852 0.503792 -0.613779 -0.60784 0.287058 -0.953707 -0.0896753 
-0.346512 -0.926671 -0.145635 -0.539097 -0.832723 -0.126278 -0.486964 -0.862978 -0.134666 
-0.453746 -0.8192 -0.350751 0.170041 -0.984658 -0.0391822 0.123386 -0.992126 -0.0214729 
0.145499 -0.982996 -0.112025 0.0742668 -0.997153 -0.0130594 0.0881246 -0.915813 -0.391817 
0.0798552 -0.996799 0.00387865 0.0233491 -0.881798 -0.471049 0.140769 -0.989431 -0.0347924 
0.161666 -0.985013 -0.0601191 0.00646408 -0.996961 -0.077634 -0.175025 -0.978816 -0.106234 
-0.240017 -0.956228 -0.167389 -0.254822 -0.871319 -0.419367 -0.28816 -0.940911 -0.177906 
-0.282665 -0.942188 -0.179951 -0.281935 -0.936538 -0.208348 0.292909 0.541502 -0.788023 
0.215409 0.540313 -0.813425 0.0468904 0.568091 -0.821629 -0.0921376 0.549738 -0.83024 
-0.200841 0.55052 -0.810303 -0.417141 0.493555 -0.763149 0.233556 0.583162 -0.778057 
0.271786 0.554242 -0.786733 0.224826 0.569391 -0.790725 0.268493 0.50594 -0.819717 
0.137949 0.361782 -0.922 0.0143471 0.276315 -0.96096 -0.0420346 0.307887 -0.950494 
-0.151474 0.392094 -0.907369 -0.435027 0.486729 -0.757526 -0.408074 0.467271 -0.784305 
-0.431178 0.572934 -0.697017 0.31072 0.550357 -0.774958 0.346413 0.530837 -0.77344 
0.203969 0.484018 -0.850954 0.155214 0.436105 -0.886409 0.105174 0.330834 -0.93781 
0.00504631 0.233569 -0.972327 -0.0105609 0.0918038 -0.995721 0.0326641 0.169061 -0.985064 
-0.0679627 0.221591 -0.972769 -0.254686 0.291737 -0.921968 -0.399631 0.608757 -0.685354 
-0.391564 0.557379 -0.732125 -0.3175 0.714762 -0.623145 -0.344269 0.724302 -0.597382 
0.510685 0.345296 -0.787383 0.521479 0.320463 -0.790799 0.317065 0.312937 -0.895288 
0.156688 0.277986 -0.94772 0.108192 0.207174 -0.972303 0.0599336 0.195309 -0.978909 
-0.116345 0.265459 -0.957076 -0.0597945 0.138775 -0.988517 0.112384 0.253137 -0.960881 
-0.0202486 0.198667 -0.979858 -0.0962847 0.198145 -0.975432 -0.0980187 0.392523 -0.914504 
-0.20265 0.578511 -0.7901 -0.385339 0.709642 -0.58985 -0.329622 0.686163 -0.648483 
-0.501761 0.620466 -0.602709 0.537777 0.269009 -0.799018 0.459817 0.248029 -0.852672 
0.275036 0.188353 -0.942804 0.0845424 0.15657 -0.984042 0.0622037 0.105244 -0.992499 
0.160178 0.0753764 -0.984206 -0.0251953 0.0246918 -0.999378 -0.0452136 0.146027 -0.988247 
0.0322785 0.241344 -0.969903 -0.0686558 0.317954 -0.945617 -0.201718 0.404192 -0.892154 
-0.585997 0.513296 -0.627004 -0.452032 0.450353 -0.769967 -0.716754 0.312058 -0.623605 
0.60462 0.210128 -0.768298 0.659035 0.159523 -0.735 0.415762 0.183188 -0.890833 
0.214349 0.124997 -0.968726 0.0767071 0.104364 -0.991577 0.0310631 0.0946185 -0.995029 
-0.0746275 0.12434 -0.989429 -0.432744 0.138452 -0.890822 -0.759634 0.211058 -0.615151 
-0.710526 0.214059 -0.670321 0.691342 0.111347 -0.713897 0.662772 0.11228 -0.740355 
0.399459 0.0862188 -0.912688 0.202324 0.0802212 -0.976027 -0.0178586 -0.0397715 -0.999049 
-0.407936 -0.0443037 -0.911935 -0.785838 -0.142604 -0.601766 -0.740128 -0.292749 -0.605399 
-0.698724 -0.140765 -0.701405 0.674315 -0.115729 -0.729319 0.658373 -0.240463 -0.713248 
0.631478 -0.112174 -0.767237 0.379205 -0.0203571 -0.925089 0.208496 -0.0281334 -0.977619 
-0.144371 0.0398825 -0.98872 -0.000142615 -0.0654717 -0.997854 0.177343 -0.106304 -0.978391 
-0.0541565 -0.0600159 -0.996727 0.0482541 -0.117654 -0.991882 -0.185349 -0.315528 -0.930638 
-0.679862 -0.407552 -0.609663 -0.477475 -0.323286 -0.817009 0.619507 -0.376937 -0.68857 
0.500201 -0.588499 -0.635191 0.468102 -0.29239 -0.8339 0.19106 -0.257114 -0.947306 
-0.0516592 -0.0169579 -0.998521 0.0646965 -0.0687222 -0.995536 -0.0722429 -0.127105 -0.989255 
-0.0334822 -0.206563 -0.97786 -0.0196447 -0.319565 -0.947361 -0.14974 -0.406122 -0.901467 
-0.378529 -0.692109 -0.614574 -0.314455 -0.478733 -0.819715 -0.561036 -0.580154 -0.590475 
-0.560397 -0.58075 -0.590495 -0.56003 -0.580088 -0.591493 0.487311 -0.602425 -0.632149 
0.324391 -0.730856 -0.600516 0.314556 -0.571149 -0.758184 0.214515 -0.844772 -0.490249 
0.167228 -0.462492 -0.87071 0.0885312 -0.901661 -0.423284 0.0449318 -0.403448 -0.913899 
0.0224714 -0.878138 -0.477879 -0.0267197 -0.404036 -0.914353 -0.00624367 -0.298398 -0.954421 
0.0518724 -0.279316 -0.958797 -0.0321768 -0.28639 -0.957573 -0.143492 -0.322013 -0.935798 
-0.237793 -0.723171 -0.648443 -0.145908 -0.450136 -0.880959 -0.227318 -0.716116 -0.659927 
-0.187152 -0.572982 -0.797913 -0.304593 -0.699869 -0.64607 -0.265532 -0.695656 -0.667499 
-0.24939 -0.657261 -0.711205 0.0285577 -0.878053 -0.477711 0.103564 -0.868739 -0.484321 
0.100262 -0.85465 -0.509432 0.127436 -0.829895 -0.543171 0.104756 -0.746451 -0.657143 
-0.0333315 -0.82764 -0.560268 -0.0319981 -0.702219 -0.711242 -0.250991 -0.760471 -0.598906 
-0.241564 -0.771558 -0.588511 -0.235772 -0.720774 -0.651841 -0.0933916 0.232703 -0.968053 
0.106137 0.215593 -0.970698 -0.106574 0.139569 -0.98446 0.141509 0.0853315 -0.986252 
0.14071 -0.0133745 -0.989961 -0.0405995 0.100135 -0.994145 -0.0603474 0.176486 -0.982451 
0.0411301 0.111225 -0.992944 0.100387 0.182764 -0.978018 -0.10994 0.124908 -0.986058 
-0.136936 0.116323 -0.983726 0.0482006 0.108392 -0.992939 0.0483744 0.214029 -0.975629 
-0.0533173 0.279848 -0.958563 -0.192132 0.2626 -0.945583 0.0667412 0.0927077 -0.993454 
0.134902 -0.0169851 -0.990713 -0.0107349 0.0747979 -0.997141 0.134889 -0.021785 -0.990621 
0.138841 -0.0213384 -0.990085 -0.129898 0.0112888 -0.991463 -0.146599 -0.0754418 -0.986315 
0.142985 0.110335 -0.983556 0.0944511 0.140299 -0.985594 0.198171 0.0915513 -0.975882 
-0.0573672 -0.00679898 -0.99833 0.0491052 0.10805 -0.992932 0.0979726 0.122782 -0.987586 
-0.0172822 0.154015 -0.987917 -0.288288 0.15033 -0.945669 -0.199585 0.161727 -0.966442 
0.13344 0.0805102 -0.987781 0.0542886 0.0809074 -0.995242 -0.0405584 0.00840538 -0.999142 
-0.0625298 0.0510636 -0.996736 0.0664537 -0.187721 -0.979972 0.0877058 -0.225302 -0.970333 
0.0949288 -0.23772 -0.966684 0.170275 -0.0275088 -0.985013 0.145757 0.126842 -0.981155 
-0.0383772 -0.00379427 -0.999256 -0.0582808 -0.058286 -0.996597 -0.110384 -0.0359601 -0.993238 
0.0488554 -0.115738 -0.992078 0.0808591 -0.00336794 -0.99672 0.0862917 -0.0340433 -0.995688 
-0.0176649 -0.0604982 -0.998012 -0.306038 -0.0497809 -0.950717 -0.185557 -0.303966 -0.934438 
-0.200885 -0.0610386 -0.977711 0.170228 -0.0246956 -0.985095 0.0470984 -0.0202419 -0.998685 
-0.114718 0.00795885 -0.993366 -0.0901872 -0.0163983 -0.99579 -0.0890091 -0.0229745 -0.995766 
0.122355 -0.128151 -0.984178 -0.0518136 -0.0627586 -0.996683 0.0241417 -0.154901 -0.987635 
0.0480985 -0.118539 -0.991784 0.0213418 -0.225168 -0.974086 0.0408031 -0.164859 -0.985473 
-0.170382 -0.304723 -0.937077 -0.0821435 -0.270733 -0.959144 -0.0491803 -0.211869 -0.97606 
0.0844078 -0.182037 -0.979662 0.073848 -0.190716 -0.978863 0.0651016 -0.169559 -0.983368 
0.00167462 -0.146661 -0.989185 -0.00169652 -0.127727 -0.991808 -0.0710302 -0.0363637 -0.996811 
-0.0697427 -0.0762247 -0.994649 -0.0742314 -0.0390484 -0.996476 0.00305718 -0.130808 -0.991403 
0.000241813 -0.131807 -0.991275 0.00153582 -0.133473 -0.991051 0.00181777 -0.131986 -0.99125 

