# vtk DataFile Version 4.2
vtk output
ASCII
DATASET POLYDATA
POINTS 534 float
-32.3977 -33.4457 -12.7936 -24.9309 -33.4457 -14.3556 -17.464 -33.4457 -15.6011 
-9.99716 -33.4457 -14.7256 -2.53031 -33.4457 -13.5372 -39.8646 -25.9789 -14.9819 
-32.3977 -25.9789 -16.8249 -24.9309 -25.9789 -16.8814 -17.464 -25.9789 -17.3855 
-9.99716 -25.9789 -16.1465 -2.53031 -25.9789 -14.9511 4.93655 -25.9789 -14.3597 
12.4034 -25.9789 -13.4649 19.8702 -25.9789 -13.7006 27.3371 -25.9789 -13.6371 
34.804 -25.9789 -13.6441 -47.3314 -18.512 -14.8671 -39.8646 -18.512 -17.4299 
-32.3977 -18.512 -17.6783 -24.9309 -18.512 -17.5653 -17.464 -18.512 -17.2635 
-9.99716 -18.512 -16.0166 -2.53031 -18.512 -14.9848 4.93655 -18.512 -14.2212 
12.4034 -18.512 -14.6823 19.8702 -18.512 -15.4584 27.3371 -18.512 -16.336 
34.804 -18.512 -16.4409 42.2708 -18.512 -15.4435 49.7377 -18.512 -13.2424 
-54.7983 -11.0452 -12.2541 -47.3314 -11.0452 -16.7271 -39.8646 -11.0452 -17.6621 
-32.3977 -11.0452 -18.3573 -24.9309 -11.0452 -17.7395 -17.464 -11.0452 -16.8475 
-9.99716 -11.0452 -15.773 -2.53031 -11.0452 -14.7029 4.93655 -11.0452 -15.4324 
12.4034 -11.0452 -14.8209 19.8702 -11.0452 -15.9679 27.3371 -11.0452 -16.958 
34.804 -11.0452 -17.5985 42.2708 -11.0452 -17.3692 49.7377 -11.0452 -15.718 
57.2045 -11.0452 -12.3225 -54.7983 -3.57832 -13.3793 -47.3314 -3.57832 -16.1098 
-39.8646 -3.57832 -17.4303 -32.3977 -3.57832 -18.022 -24.9309 -3.57832 -17.1215 
-17.464 -3.57832 -16.733 -9.99716 -3.57832 -19.2003 -2.53031 -3.57832 -14.7199 
4.93655 -3.57832 -17.4919 12.4034 -3.57832 -15.8779 19.8702 -3.57832 -15.5857 
27.3371 -3.57832 -17.1147 34.804 -3.57832 -18.1205 42.2708 -3.57832 -18.4595 
49.7377 -3.57832 -16.8014 57.2045 -3.57832 -12.714 -54.7983 3.88854 -12.5826 
-47.3314 3.88854 -15.5476 -39.8646 3.88854 -17.288 -32.3977 3.88854 -17.6313 
-24.9309 3.88854 -17.0311 -17.464 3.88854 -16.5926 -9.99716 3.88854 -18.1737 
-2.53031 3.88854 -15.2505 4.93655 3.88854 -18.2633 12.4034 3.88854 -16.1012 
19.8702 3.88854 -15.6422 27.3371 3.88854 -17.0564 34.804 3.88854 -17.9268 
42.2708 3.88854 -18.4531 49.7377 3.88854 -16.7838 57.2045 3.88854 -12.6725 
-47.3314 11.3554 -15.5909 -39.8646 11.3554 -17.3276 -32.3977 11.3554 -17.4315 
-24.9309 11.3554 -17.5606 -17.464 11.3554 -17.0145 -9.99716 11.3554 -16.2214 
-2.53031 11.3554 -16.1554 4.93655 11.3554 -16.3204 12.4034 11.3554 -15.4002 
19.8702 11.3554 -16.0179 27.3371 11.3554 -17.0742 34.804 11.3554 -17.5398 
42.2708 11.3554 -17.1657 49.7377 11.3554 -15.4031 57.2045 11.3554 -12.2161 
-47.3314 18.8222 -13.6111 -39.8646 18.8222 -15.8579 -32.3977 18.8222 -16.6131 
-24.9309 18.8222 -17.8735 -17.464 18.8222 -17.2343 -9.99716 18.8222 -16.7262 
-2.53031 18.8222 -16.459 4.93655 18.8222 -16.388 12.4034 18.8222 -16.4854 
19.8702 18.8222 -16.9938 27.3371 18.8222 -17.3839 34.804 18.8222 -17.0918 
42.2708 18.8222 -15.4888 49.7377 18.8222 -12.8208 -39.8646 26.2891 -12.7453 
-32.3977 26.2891 -14.4632 -24.9309 26.2891 -14.9501 -17.464 26.2891 -15.7135 
-9.99716 26.2891 -16.1538 -2.53031 26.2891 -16.6497 4.93655 26.2891 -16.6864 
12.4034 26.2891 -16.6358 19.8702 26.2891 -17.2211 27.3371 26.2891 -16.4812 
34.804 26.2891 -14.876 42.2708 26.2891 -12.8072 -9.99716 33.7559 -13.2508 
-2.53031 33.7559 -14.5356 4.93655 33.7559 -14.7568 12.4034 33.7559 -14.7472 
19.8702 33.7559 -14.7124 27.3371 33.7559 -13.5857 -32.3977 -34.3182 -12.0147 
-24.9309 -36.2117 -12.0147 -17.464 -37.7533 -12.0147 -9.99716 -37.5271 -12.0147 
-9.99716 -40.9126 -5.87108 -2.53031 -35.809 -12.0147 -33.9222 -33.4457 -12.0147 
-39.8646 -29.8934 -12.0147 4.71978 -33.4457 -12.0147 4.93655 -33.3025 -12.0147 
4.93655 -33.4457 -11.96 12.4034 -30.836 -12.0147 12.4034 -33.4457 -10.836 
19.8702 -28.9878 -12.0147 19.8702 -33.4457 -7.92372 27.3371 -28.2301 -12.0147 
27.3371 -33.4457 -5.947 34.804 -27.9728 -12.0147 -45.2861 -25.9789 -12.0147 
-47.3314 -23.8484 -12.0147 -47.3314 -25.9789 -8.64087 39.9487 -25.9789 -12.0147 
42.2708 -24.6328 -12.0147 42.2708 -25.9789 -10.7416 49.7377 -20.433 -12.0147 
49.7377 -25.9789 -5.50617 -53.0142 -18.512 -12.0147 -54.7983 -12.3714 -12.0147 
-54.7983 -18.512 -9.09655 51.8861 -18.512 -12.0147 57.2045 -11.8542 -12.0147 
57.2045 -18.512 -5.84161 -55.0998 -11.0452 -12.0147 57.5458 -11.0452 -12.0147 
-56.6306 -3.57832 -12.0147 58.0368 -3.57832 -12.0147 -55.6158 3.88854 -12.0147 
-62.2651 3.88854 -4.56512 -54.7983 8.74309 -12.0147 58.0094 3.88854 -12.0147 
-54.3491 11.3554 -12.0147 -54.7983 11.3554 -11.6679 57.437 11.3554 -12.0147 
57.2045 11.9409 -12.0147 -50.9411 18.8222 -12.0147 -54.7983 18.8222 -9.65689 
-47.3314 22.5385 -12.0147 51.2879 18.8222 -12.0147 49.7377 20.606 -12.0147 
57.2045 18.8222 -6.32925 -42.4089 26.2891 -12.0147 -47.3314 26.2891 -9.67715 
-39.8646 27.2028 -12.0147 -32.3977 29.4258 -12.0147 -24.9309 30.1608 -12.0147 
-17.464 32.3927 -12.0147 34.804 31.4751 -12.0147 43.9796 26.2891 -12.0147 
42.2708 27.2825 -12.0147 49.7377 26.2891 -7.42975 -32.3977 33.7559 -5.72349 
-24.9309 33.7559 -6.57474 -14.3592 33.7559 -12.0147 -17.464 33.7559 -10.163 
-9.99716 35.131 -12.0147 -2.53031 36.8016 -12.0147 4.93655 37.0957 -12.0147 
12.4034 37.1008 -12.0147 19.8702 36.6853 -12.0147 31.5059 33.7559 -12.0147 
27.3371 35.4838 -12.0147 34.804 33.7559 -9.12109 -9.99716 -41.3999 -4.54784 
-32.3977 -36.5633 -4.54784 -24.9309 -39.6648 -4.54784 -14.5486 -40.9126 -4.54784 
-17.464 -40.6018 -4.54784 -3.20612 -40.9126 -4.54784 -9.99716 -40.9126 -2.77525 
-2.53031 -40.8634 -4.54784 4.93655 -39.8651 -4.54784 12.4034 -37.8317 -4.54784 
19.8702 -35.5173 -4.54784 27.3371 -34.1487 -4.54784 -47.3314 -27.6894 -4.54784 
-37.8744 -33.4457 -4.54784 -39.8646 -32.3896 -4.54784 29.7446 -33.4457 -4.54784 
34.804 -31.8288 -4.54784 42.2708 -29.776 -4.54784 49.7377 -26.3889 -4.54784 
-49.419 -25.9789 -4.54784 -54.7983 -20.6151 -4.54784 -47.3314 -25.9789 -0.575424 
50.2865 -25.9789 -4.54784 49.7377 -25.9789 -0.874244 57.2045 -19.1712 -4.54784 
-56.3971 -18.512 -4.54784 -54.7983 -18.512 0.0692636 57.7519 -18.512 -4.54784 
57.2045 -18.512 -1.14798 -60.5324 -11.0452 -4.54784 61.3352 -11.0452 -4.54784 
-62.1623 -3.57832 -4.54784 -62.2651 3.25983 -4.54784 63.3404 -3.57832 -4.54784 
-62.2737 3.88854 -4.54784 -62.2651 4.02894 -4.54784 -62.2651 3.88854 -4.42597 
63.2555 3.88854 -4.54784 -61.6542 11.3554 -4.54784 61.4832 11.3554 -4.54784 
-58.1128 18.8222 -4.54784 -54.7983 23.5029 -4.54784 58.0031 18.8222 -4.54784 
57.2045 19.8313 -4.54784 57.2045 18.8222 0.215026 -51.9339 26.2891 -4.54784 
-47.3314 29.83 -4.54784 -39.8646 31.9049 -4.54784 42.2708 32.2867 -4.54784 
51.2863 26.2891 -4.54784 49.7377 27.6226 -4.54784 -34.352 33.7559 -4.54784 
-32.3977 34.2671 -4.54784 -32.3977 33.7559 2.25782 -24.9309 34.6636 -4.54784 
-17.464 36.0455 -4.54784 -9.99716 38.5935 -4.54784 -2.53031 39.8617 -4.54784 
4.93655 39.7939 -4.54784 12.4034 39.7304 -4.54784 19.8702 39.295 -4.54784 
27.3371 38.2935 -4.54784 39.2352 33.7559 -4.54784 34.804 35.6409 -4.54784 
-32.3977 -33.5757 2.91901 -24.9309 -36.554 2.91901 -17.464 -38.3046 2.91901 
-9.99716 -39.2293 2.91901 -2.53031 -39.6951 2.91901 4.93655 -39.6603 2.91901 
12.4034 -38.3032 2.91901 19.8702 -35.9838 2.91901 27.3371 -34.2022 2.91901 
-32.6469 -33.4457 2.91901 -39.8646 -29.2151 2.91901 -32.3977 -33.4457 3.09569 
-24.9309 -33.4457 7.02088 29.9292 -33.4457 2.91901 27.3371 -33.4457 5.66869 
34.804 -32.083 2.91901 42.2708 -29.4531 2.91901 -44.9433 -25.9789 2.91901 
-47.3314 -24.1453 2.91901 -39.8646 -25.9789 6.76441 -32.3977 -25.9789 9.88283 
48.8765 -25.9789 2.91901 49.7377 -25.3905 2.91901 -53.3984 -18.512 2.91901 
-54.7983 -16.9192 2.91901 -47.3314 -18.512 8.49936 56.3989 -18.512 2.91901 
57.2045 -17.0785 2.91901 -58.5273 -11.0452 2.91901 -54.7983 -11.0452 7.42094 
59.9038 -11.0452 2.91901 57.2045 -11.0452 6.59442 -60.7371 -3.57832 2.91901 
-54.7983 -3.57832 10.0621 61.9874 -3.57832 2.91901 57.2045 -3.57832 8.95439 
-61.6211 3.88854 2.91901 62.0635 3.88854 2.91901 57.2045 3.88854 9.1362 
-61.1201 11.3554 2.91901 60.2704 11.3554 2.91901 57.2045 17.8802 2.91901 
57.2045 11.3554 6.92196 -58.2879 18.8222 2.91901 -54.7983 24.0822 2.91901 
-54.7983 18.8222 8.70937 56.6567 18.8222 2.91901 -52.7473 26.2891 2.91901 
-47.3314 30.5177 2.91901 -39.8646 32.6857 2.91901 -32.3977 33.7066 2.91901 
42.2708 30.953 2.91901 42.2708 26.2891 9.19068 49.9589 26.2891 2.91901 
49.7377 26.472 2.91901 49.7377 26.2891 3.18541 -32.0007 33.7559 2.91901 
-24.9309 34.7671 2.91901 -24.9309 33.7559 6.29641 -17.464 35.5934 2.91901 
-17.464 33.7559 7.52751 -9.99716 37.1665 2.91901 -9.99716 33.7559 9.00918 
-2.53031 37.6828 2.91901 -2.53031 33.7559 8.82818 4.93655 37.0888 2.91901 
4.93655 33.7559 7.72267 12.4034 36.6747 2.91901 12.4034 33.7559 7.16696 
19.8702 36.6303 2.91901 19.8702 33.7559 7.08974 27.3371 35.9191 2.91901 
27.3371 33.7559 6.30591 35.2839 33.7559 2.91901 34.804 33.9274 2.91901 
34.804 33.7559 3.2172 -17.464 -33.4847 10.3859 -9.99716 -35.3129 10.3859 
-2.53031 -36.3236 10.3859 4.93655 -36.5112 10.3859 12.4034 -35.5057 10.3859 
19.8702 -33.612 10.3859 -17.5657 -33.4457 10.3859 -24.9309 -29.7455 10.3859 
-17.464 -33.4457 10.4301 -9.99716 -33.4457 12.6965 -2.53031 -33.4457 14.002 
4.93655 -33.4457 14.1072 12.4034 -33.4457 13.0347 20.6132 -33.4457 10.3859 
19.8702 -33.4457 10.6418 27.3371 -31.9025 10.3859 34.804 -29.3092 10.3859 
42.2708 -26.0005 10.3859 -39.8646 -20.4948 10.3859 -31.353 -25.9789 10.3859 
-32.3977 -25.2137 10.3859 -24.9309 -25.9789 13.0352 -17.464 -25.9789 15.889 
27.3371 -25.9789 17.2531 34.804 -25.9789 14.3479 42.3023 -25.9789 10.3859 
42.2708 -25.9789 10.4137 49.7377 -19.1108 10.3859 -42.932 -18.512 10.3859 
-47.3314 -14.4331 10.3859 -39.8646 -18.512 11.4342 -32.3977 -18.512 14.0308 
-24.9309 -18.512 16.2393 -17.464 -18.512 17.6744 42.2708 -18.512 14.8547 
50.251 -18.512 10.3859 49.7377 -18.512 10.8421 -49.8238 -11.0452 10.3859 
-47.3314 -11.0452 11.588 -39.8646 -11.0452 14.3732 -32.3977 -11.0452 16.35 
-24.9309 -11.0452 17.7923 42.2708 -11.0452 16.0899 52.8684 -11.0452 10.3859 
49.7377 -11.0452 12.5274 -54.224 -3.57832 10.3859 -54.7983 -2.3795 10.3859 
[...]
POINT_DATA 534
SCALARS ImageScalars float
LOOKUP_TABLE default
0 0 0 0 0 0 0 0 0 
0 0 0 0 0 0 0 0 0 
0 0 0 0 0 0 0 0 0 
0 0 0 0 0 0 0 0 0 
0 0 0 0 0 0 0 0 0 
0 0 0 0 0 0 0 0 0 
0 0 0 0 0 0 0 0 0 
0 0 0 0 0 0 0 0 0 
0 0 0 0 0 0 0 0 0 
0 0 0 0 0 0 0 0 0 
0 0 0 0 0 0 0 0 0 
0 0 0 0 0 0 0 0 0 
0 0 0 0 0 0 0 0 0 
0 0 0 0 0 0 0 0 0 
0 0 0 0 0 0 0 0 0 
0 0 0 0 0 0 0 0 0 
0 0 0 0 0 0 0 0 0 
0 0 0 0 0 0 0 0 0 
0 0 0 0 0 0 0 0 0 
0 0 0 0 0 0 0 0 0 
0 0 0 0 0 0 0 0 0 
0 0 0 0 0 0 0 0 0 
0 0 0 0 0 0 0 0 0 
0 0 0 0 0 0 0 0 0 
0 0 0 0 0 0 0 0 0 
0 0 0 0 0 0 0 0 0 
0 0 0 0 0 0 0 0 0 
0 0 0 0 0 0 0 0 0 
0 0 0 0 0 0 0 0 0 
0 0 0 0 0 0 0 0 0 
0 0 0 0 0 0 0 0 0 
0 0 0 0 0 0 0 0 0 
0 0 0 0 0 0 0 0 0 
0 0 0 0 0 0 0 0 0 
0 0 0 0 0 0 0 0 0 
0 0 0 0 0 0 0 0 0 
0 0 0 0 0 0 0 0 0 
0 0 0 0 0 0 0 0 0 
0 0 0 0 0 0 0 0 0 
0 0 0 0 0 0 0 0 0 
0 0 0 0 0 0 0 0 0 
0 0 0 0 0 0 0 0 0 
0 0 0 0 0 0 0 0 0 
0 0 0 0 0 0 0 0 0 
0 0 0 0 0 0 0 0 0 
0 0 0 0 0 0 0 0 0 
0 0 0 0 0 0 0 0 0 
0 0 0 0 0 0 0 0 0 
0 0 0 0 0 0 0 0 0 
0 0 0 0 0 0 0 0 0 
0 0 0 0 0 0 0 0 0 
0 0 0 0 0 0 0 0 0 
0 0 0 0 0 0 0 0 0 
0 0 0 0 0 0 0 0 0 
0 0 0 0 0 0 0 0 0 
0 0 0 0 0 0 0 0 0 
0 0 0 0 0 0 0 0 0 
0 0 0 0 0 0 0 0 0 
0 0 0 0 0 0 0 0 0 
0 0 0 
NORMALS Normals float
0.329016 0.673058 0.662376 0.186349 0.537927 0.822137 0.011379 0.471881 0.881589 
-0.128154 0.393682 0.91027 -0.171352 0.393234 0.90333 0.332058 0.465205 0.820561 
0.141751 0.331074 0.932897 0.0357257 0.184835 0.98212 -0.0513511 0.0906285 0.99456 
-0.155255 0.0828494 0.984394 -0.116382 0.092555 0.988883 -0.0981041 0.127764 0.986941 
-0.042482 0.224136 0.973632 0.0117392 0.372058 0.928135 -0.00377666 0.490394 0.871493 
-0.127296 0.568878 0.812511 0.378267 0.352146 0.8561 0.196616 0.192636 0.961371 
0.00720019 0.0942367 0.995524 -0.0275553 0.0563284 0.998032 -0.103317 -0.0357326 0.994006 
-0.150398 -0.0242347 0.988329 -0.119825 -0.016169 0.992663 -0.0197181 0.0647241 0.997708 
0.0810305 0.0878754 0.99283 0.107245 0.142372 0.983986 0.0653541 0.196772 0.978269 
-0.0532051 0.248127 0.967265 -0.182871 0.335773 0.924021 -0.407721 0.463165 0.786919 
0.653429 0.130187 0.745709 0.290274 0.0774919 0.953801 0.111638 -0.00168217 0.993747 
0.0106579 0.0225082 0.99969 -0.100161 -0.0263342 0.994623 -0.129152 -0.0353031 0.990996 
-0.145965 0.195239 0.969833 -0.025561 -0.0182074 0.999507 0.00719805 0.19422 0.980932 
0.0335276 0.0649996 0.997322 0.147075 0.00776391 0.989095 0.103264 0.0502988 0.993381 
0.0277738 0.115127 0.992962 -0.126088 0.191706 0.973319 -0.308785 0.205322 0.928706 
-0.653885 0.199577 0.729797 0.519734 0.0178536 0.854141 0.232423 -0.0834238 0.96903 
0.12049 -0.0274179 0.992336 -0.0161762 -0.048768 0.998679 -0.0886842 -0.049119 0.994848 
0.130597 -0.0179714 0.991273 -0.071267 0.167599 0.983276 -0.160198 0.0402586 0.986264 
0.0718685 0.202391 0.976664 -0.11798 0.0963534 0.98833 0.0871643 -0.0195732 0.996002 
0.167383 0.0064874 0.985871 0.0880286 0.0219535 0.995876 -0.0998948 0.0675844 0.9927 
-0.297302 0.0659033 0.952506 -0.639175 0.0219347 0.768748 0.490205 -0.0954824 0.866361 
0.286335 -0.0322144 0.957588 0.125855 -0.00667646 0.992026 -0.014812 -0.0394634 0.999111 
-0.0699728 0.0301093 0.997094 0.0677948 0.0197423 0.997504 -0.0734663 -0.206138 0.975761 
-0.011549 0.104068 0.994503 0.0833102 -0.101366 0.991355 -0.177637 -0.0422146 0.98319 
0.0712147 0.0289879 0.99704 0.151171 -0.00266984 0.988504 0.0917622 -0.0385967 0.995033 
-0.0880435 -0.0805676 0.992853 -0.299548 -0.0864817 0.950153 -0.636738 -0.0318315 0.770423 
0.310895 -0.0998143 0.945188 0.137078 -0.0901414 0.98645 0.0152363 -0.0667291 0.997655 
-0.0279623 0.0549382 0.998098 -0.0898935 0.0427849 0.995032 -0.0574239 -0.0830651 0.994888 
0.00607271 0.0749359 0.99717 -0.0533944 -0.108172 0.992697 -0.0173256 0.0376963 0.999139 
0.113706 0.0918215 0.989262 0.101337 0.0214677 0.994621 0.00714337 -0.0586074 0.998256 
-0.142494 -0.191363 0.971121 -0.31048 -0.227373 0.922986 -0.630983 -0.18994 0.752186 
0.345397 -0.336527 0.876043 0.174341 -0.290851 0.94075 0.124264 -0.185298 0.974794 
0.0389999 -0.152148 0.987588 -0.0748054 -0.0787991 0.99408 -0.0512021 -0.00381044 0.998681 
-0.0226655 0.0331221 0.999194 0.00181764 0.0245468 0.999697 0.0401384 0.0822857 0.9958 
0.0593087 0.0790919 0.995101 0.00493434 -0.0440973 0.999015 -0.114413 -0.153869 0.981445 
-0.249548 -0.235478 0.939295 -0.428528 -0.401416 0.809462 0.2446 -0.564274 0.788521 
0.141331 -0.483964 0.8636 0.0785637 -0.501477 0.861596 0.0775706 -0.344603 0.935538 
0.0595855 -0.205846 0.976769 0.0356329 -0.119024 0.992252 -0.000965896 -0.101949 0.994789 
0.0336038 -0.106681 0.993725 -0.0144406 -0.121687 0.992463 -0.138321 -0.227028 0.964015 
-0.217478 -0.358856 0.907704 -0.343457 -0.524065 0.779354 0.208154 -0.608211 0.765997 
0.0959372 -0.519413 0.849121 0.0145864 -0.514286 0.857495 -0.00272994 -0.512299 0.858803 
-0.0788293 -0.566432 0.820329 -0.212846 -0.633941 0.743515 0.345089 0.720344 0.60168 
0.197302 0.743317 0.63918 0.0713262 0.746072 0.662035 -0.0891241 0.660604 0.745425 
0.00160283 0.989572 0.144029 -0.183731 0.537759 0.822836 0.365537 0.71879 0.591374 
0.418666 0.692481 0.587528 -0.156965 0.475273 0.865724 -0.155207 0.471154 0.868288 
-0.156815 0.47968 0.863317 -0.122123 0.433464 0.892858 -0.187388 0.597777 0.779454 
-0.0688812 0.499663 0.863477 -0.20616 0.819619 0.534531 -0.0426442 0.591332 0.8053 
-0.214984 0.916479 0.337414 -0.156625 0.691311 0.705378 0.521103 0.595659 0.611263 
0.521788 0.566176 0.638108 0.616376 0.726138 0.304638 -0.255697 0.651493 0.714266 
-0.298831 0.614848 0.729837 -0.322316 0.717402 0.617614 -0.424065 0.53235 0.732647 
-0.548889 0.808692 0.211516 0.631177 0.385814 0.672877 0.667484 0.167635 0.725509 
0.786283 0.481811 0.386804 -0.480436 0.490088 0.727321 -0.661281 0.232993 0.713037 
-0.775949 0.595422 0.208268 0.662395 0.13353 0.737159 -0.673282 0.201692 0.711345 
0.59495 0.0281854 0.803269 -0.675836 0.0263002 0.736583 0.541564 -0.0958992 0.835172 
0.974461 -0.0249513 0.223167 0.566113 -0.115672 0.816171 -0.675571 -0.0337688 0.736521 
0.583165 -0.128039 0.8022 0.607266 -0.133624 0.783181 -0.644763 -0.191875 0.739909 
-0.63681 -0.212717 0.741097 0.461 -0.353433 0.813981 0.656186 -0.393953 0.6436 
0.383581 -0.456776 0.802634 -0.474683 -0.427748 0.769225 -0.457157 -0.447429 0.768645 
-0.768196 -0.5838 0.262778 0.306961 -0.567106 0.764307 0.451137 -0.628213 0.633896 
0.247569 -0.609314 0.75329 0.147144 -0.672654 0.725179 0.123655 -0.689385 0.713763 
0.229485 -0.695179 0.681222 -0.359919 -0.642361 0.676632 -0.395511 -0.548267 0.736868 
-0.365779 -0.570895 0.735041 -0.623828 -0.697337 0.35293 0.163974 -0.952576 0.256343 
0.129634 -0.932747 0.336421 0.242773 -0.704313 0.667086 0.258551 -0.819391 0.511616 
0.232799 -0.682562 0.692758 0.115542 -0.711158 0.693473 0.0178921 -0.737261 0.675372 
-0.0234369 -0.739642 0.672592 -0.104826 -0.746909 0.656612 -0.322037 -0.715242 0.620259 
-0.240084 -0.74017 0.628099 -0.385357 -0.845764 0.36903 0.0126645 0.999001 0.0428668 
0.438917 0.896615 -0.0585943 0.244516 0.969382 -0.0225954 0.0736959 0.997205 0.0123284 
0.11381 0.993483 -0.00622195 -0.0859054 0.988179 0.126971 0.0318547 0.998307 -0.0486663 
-0.096094 0.986062 0.135821 -0.193298 0.947522 0.254634 -0.285949 0.905819 0.312609 
-0.243789 0.922708 0.298625 -0.230412 0.940286 0.250545 0.598602 0.800795 -0.0200921 
0.465975 0.883838 -0.0411991 0.484691 0.873774 -0.0399134 -0.242335 0.94119 0.235447 
-0.268272 0.938051 0.219296 -0.357295 0.910169 0.209601 -0.549794 0.822128 0.147753 
0.637708 0.770127 0.0152635 0.777556 0.628485 0.0203188 0.548061 0.785664 -0.286987 
-0.56679 0.810718 0.14658 -0.577922 0.812745 -0.0738381 -0.783041 0.611194 0.115275 
0.817304 0.576184 0.00516562 0.779522 0.542475 -0.313156 -0.797666 0.592046 0.114932 
-0.803096 0.586457 -0.105376 0.936118 0.332425 0.114793 -0.928185 0.350712 0.124394 
0.984506 0.115964 0.131532 0.976584 -0.0128838 0.214752 -0.981246 0.124721 0.14697 
0.974652 -0.0247855 0.222348 0.974378 -0.0291654 0.223017 0.976593 -0.0241825 0.213733 
-0.980958 -0.122909 0.150384 0.9249 -0.265937 0.271731 -0.931303 -0.330172 0.153822 
0.835953 -0.465405 0.290828 0.715515 -0.634389 0.292555 -0.802733 -0.582189 0.129133 
-0.784837 -0.606452 0.127463 -0.799047 -0.568777 -0.194979 0.603884 -0.737744 0.301758 
0.444633 -0.842641 0.30374 0.266428 -0.919867 0.287857 -0.493061 -0.862525 0.113762 
-0.668031 -0.731685 0.135545 -0.630598 -0.765687 0.12677 0.187058 -0.959401 0.211091 
0.161491 -0.967643 0.193873 0.129473 -0.989149 -0.0694266 0.123007 -0.966578 0.224937 
0.252707 -0.956593 0.145151 0.259207 -0.961619 0.0900022 0.0796333 -0.996529 0.0242497 
-0.00903218 -0.999648 -0.0249507 -0.0349433 -0.998154 -0.0496672 -0.0887898 -0.995536 -0.0320193 
-0.250677 -0.968054 0.00568248 -0.424166 -0.901537 0.0855241 -0.350618 -0.934333 0.0639414 
0.402267 0.776338 -0.485263 0.280166 0.825518 -0.489925 0.161262 0.89675 -0.41211 
0.082591 0.929081 -0.360537 0.0262363 0.961311 -0.274213 -0.0916114 0.976049 -0.197324 
-0.236466 0.962422 -0.133524 -0.270483 0.956737 -0.107205 -0.255397 0.958218 -0.128803 
0.406161 0.774229 -0.48539 0.449858 0.7256 -0.520704 0.403242 0.772485 -0.490574 
0.299493 0.729677 -0.614716 -0.262361 0.956482 -0.127708 -0.249947 0.939199 -0.235439 
-0.281676 0.950666 -0.129972 -0.427658 0.878824 -0.211606 0.444344 0.718495 -0.535093 
0.474759 0.691168 -0.544876 0.405888 0.636798 -0.655547 0.318658 0.544362 -0.775969 
-0.559895 0.77668 -0.288593 -0.581426 0.755452 -0.302054 0.691129 0.501646 -0.52028 
0.720275 0.47317 -0.507261 0.468733 0.497994 -0.729583 -0.761825 0.539934 -0.357902 
-0.779964 0.503597 -0.371546 0.795233 0.395774 -0.459312 0.620886 0.393774 -0.677822 
-0.862657 0.341207 -0.373363 -0.7262 0.321192 -0.60784 0.897724 0.170841 -0.406084 
0.570458 0.209894 -0.794054 -0.905775 0.126992 -0.404283 -0.665357 0.109866 -0.738397 
0.933463 0.021581 -0.358024 -0.915478 -0.1008 -0.389538 -0.65034 -0.0895614 -0.754345 
0.938456 -0.18266 -0.293148 -0.870588 -0.328123 -0.366622 -0.775511 -0.51022 -0.371832 
-0.722756 -0.325862 -0.609457 0.855397 -0.463843 -0.230534 0.745261 -0.640203 -0.186347 
0.69089 -0.419694 -0.588667 -0.763618 -0.533514 -0.363663 0.659742 -0.73371 -0.162511 
0.45427 -0.879533 -0.141636 0.198229 -0.975102 -0.0994048 0.125879 -0.987545 -0.0943912 
-0.44924 -0.816395 -0.362882 -0.387373 -0.629383 -0.673661 -0.587725 -0.729684 -0.349486 
-0.581851 -0.73426 -0.34973 -0.580373 -0.727678 -0.365584 0.125491 -0.987407 -0.0963328 
0.123003 -0.983192 -0.134921 0.0635348 -0.954801 -0.290375 0.15386 -0.964861 -0.213004 
0.0790709 -0.903801 -0.420585 0.134842 -0.934725 -0.328795 0.0327108 -0.789707 -0.612611 
-0.00275027 -0.907811 -0.419371 -0.0543767 -0.739348 -0.671124 -0.0617892 -0.884223 -0.46296 
-0.0690273 -0.76849 -0.636128 -0.0277829 -0.875371 -0.482654 -0.0265279 -0.793349 -0.608189 
-0.0481334 -0.881448 -0.469822 -0.0350031 -0.795237 -0.605288 -0.162887 -0.891534 -0.422651 
-0.1413 -0.83123 -0.537671 -0.296744 -0.881649 -0.36693 -0.285441 -0.885139 -0.367494 
-0.285708 -0.880433 -0.37843 0.258738 0.723271 -0.64026 0.157317 0.80823 -0.567465 
0.0683836 0.840672 -0.537209 -0.0489017 0.841061 -0.538725 -0.170871 0.84348 -0.509259 
-0.213028 0.870077 -0.444504 0.259813 0.721859 -0.641418 0.325106 0.581677 -0.745626 
0.259185 0.721954 -0.641565 0.17048 0.736342 -0.654781 0.0664481 0.716591 -0.694322 
-0.0455535 0.702124 -0.710596 -0.146325 0.765547 -0.626519 -0.21433 0.870736 -0.442584 
-0.210123 0.865057 -0.455549 -0.238197 0.865159 -0.441318 -0.330005 0.797686 -0.504771 
-0.479649 0.689066 -0.543254 0.329989 0.460674 -0.823946 0.317183 0.530668 -0.785994 
0.31283 0.52236 -0.79327 0.327282 0.464383 -0.822943 0.289714 0.371977 -0.881872 
-0.218345 0.578443 -0.785957 -0.319004 0.634697 -0.703844 -0.48021 0.688364 -0.543648 
-0.479845 0.688049 -0.544369 -0.589879 0.42289 -0.687901 0.367374 0.440504 -0.819141 
0.41805 0.377789 -0.826141 0.311708 0.412785 -0.855831 0.273915 0.366499 -0.889184 
0.223204 0.282419 -0.932963 0.166651 0.149475 -0.97462 -0.446692 0.273572 -0.851836 
-0.597439 0.404708 -0.692299 -0.584186 0.398133 -0.70726 0.452572 0.318508 -0.832905 
0.389958 0.300171 -0.870535 0.284252 0.285683 -0.915197 0.213306 0.236684 -0.947882 
0.1299 0.152336 -0.979755 -0.359539 0.0852781 -0.929225 -0.559882 0.207392 -0.802198 
-0.509532 0.152766 -0.846782 0.550097 0.212768 -0.807541 0.57026 0.198206 -0.797194 
0.397011 0.193208 -0.897247 0.225678 0.169595 -0.959326 -0.275238 -0.0103549 -0.96132 
-0.573209 0.086999 -0.814778 -0.430683 0.0514722 -0.901034 0.661945 0.113744 -0.740872 
0.5892 0.13462 -0.796694 0.356021 0.084943 -0.930609 0.239357 0.0724007 -0.968228 
-0.156483 -0.0709725 -0.985127 -0.250158 -0.0849221 -0.964473 -0.557564 -0.0811589 -0.826157 
-0.401876 -0.0800939 -0.912185 0.704807 -0.135072 -0.696421 0.648195 -0.299609 -0.700056 
0.626367 -0.125965 -0.769283 0.327236 -0.00806911 -0.944908 0.254701 0.0310116 -0.966523 
-0.00726346 -0.150496 -0.988584 -0.190482 -0.116923 -0.974703 -0.28584 -0.170277 -0.943028 
-0.516947 -0.214446 -0.828721 -0.427363 -0.181017 -0.885773 0.602756 -0.370714 -0.706581 
0.471191 -0.259069 -0.843126 0.245949 -0.210397 -0.946172 -0.168121 -0.238608 -0.956453 
-0.0523074 -0.193038 -0.979796 0.113727 -0.309322 -0.944132 0.0770596 -0.36417 -0.928139 
-0.0564907 -0.298854 -0.952625 -0.124597 -0.256891 -0.958375 -0.223826 -0.296343 -0.928484 
-0.360153 -0.543696 -0.75808 -0.31202 -0.313534 -0.89685 -0.496824 -0.387452 -0.776561 
-0.489554 -0.395183 -0.777282 -0.487061 -0.386958 -0.782966 0.545756 -0.56746 -0.616555 
0.522172 -0.582974 -0.622477 0.515105 -0.560326 -0.648615 0.288296 -0.785763 -0.54723 
0.286603 -0.570713 -0.76951 0.122398 -0.883382 -0.452387 0.135205 -0.499149 -0.855903 
-0.0105138 -0.856585 -0.515899 0.00280583 -0.532579 -0.846376 0.0151178 -0.81656 -0.577063 
-0.0999542 -0.501001 -0.859655 -0.00416685 -0.715017 -0.699094 -0.128672 -0.435416 -0.890986 
-0.0642292 -0.640321 -0.765417 -0.0700698 -0.382501 -0.921294 -0.0487044 -0.638744 -0.767876 
0.0127431 -0.458534 -0.888586 -0.0116313 -0.689672 -0.724028 0.0316467 -0.549446 -0.83493 
-0.0315634 -0.687676 -0.725331 -0.0345117 -0.549418 -0.834835 -0.123067 -0.675452 -0.727062 
-0.134361 -0.525676 -0.840007 -0.31857 -0.586987 -0.744285 -0.237123 -0.619916 -0.747982 
-0.227351 -0.551523 -0.80258 0.162788 0.308325 -0.937249 0.0441837 0.378291 -0.924632 
-0.0131511 0.381814 -0.924146 -0.0174917 0.429363 -0.902963 -0.0850928 0.534129 -0.84111 
0.167781 0.302801 -0.938169 0.162397 0.300395 -0.939888 0.0414162 0.306067 -0.951109 
-0.00652943 0.31954 -0.94755 0.000257522 0.376092 -0.926582 -0.158244 0.537421 -0.828334 
-0.0672912 0.491754 -0.86813 -0.210928 0.51239 -0.832446 -0.334706 0.25503 -0.907156 
0.162444 0.133714 -0.977616 0.13971 0.142232 -0.979924 0.141256 0.0485025 -0.988784 
0.0751631 0.111989 -0.990863 0.0344357 0.161903 -0.986206 0.0707157 0.185735 -0.980052 
0.0142631 0.186205 -0.982407 -0.174334 0.183128 -0.967508 -0.349843 0.203029 -0.914543 
-0.335577 0.199167 -0.920717 0.143682 0.133939 -0.980518 0.122826 0.149283 -0.981136 
0.128422 0.148265 -0.980574 0.0605335 0.124204 -0.990409 0.129372 0.0787251 -0.988466 
0.169066 0.0324845 -0.985069 0.0650386 0.126457 -0.989838 0.0316228 0.119833 -0.99229 
-0.0488652 -0.0326193 -0.998273 -0.185759 -0.0770782 -0.979568 -0.314579 0.00636603 -0.94921 
-0.299482 -0.0223623 -0.95384 0.143842 0.132195 -0.980731 0.142058 0.131337 -0.981107 
0.112794 0.0962749 -0.988943 0.0930049 0.111997 -0.989347 0.048192 0.113292 -0.992392 
0.120742 -0.135975 -0.983327 0.12777 -0.0188433 -0.991625 -0.0859058 0.0497223 -0.995062 
-0.188 -0.139563 -0.972203 -0.167511 -0.153679 -0.973819 -0.205191 -0.058506 -0.976972 
-0.183515 -0.0659533 -0.980802 -0.198286 -0.0643025 -0.978033 0.182395 0.0831588 -0.979702 
0.140179 0.0940885 -0.985646 0.108064 0.0721804 -0.99152 0.0744767 0.00692803 -0.997199 
-0.112146 -0.0838082 -0.990151 0.00553984 -0.201511 -0.979471 0.0123848 -0.223523 -0.97462 
0.262095 -0.204898 -0.943039 -0.0866851 -0.116821 -0.989363 -0.250895 -0.0863351 -0.964157 
-0.142693 -0.0800931 -0.986521 -0.122399 -0.0960202 -0.987825 0.236178 0.0301703 -0.971241 
0.141718 0.015274 -0.989789 0.0298639 -0.00272843 -0.99955 -0.0632237 -0.0957363 -0.993397 
-0.0966367 -0.177611 -0.979345 -0.173895 -0.224088 -0.958929 -0.182637 -0.201489 -0.962313 
0.119273 -0.215862 -0.969112 0.186257 -0.288365 -0.93923 0.232901 -0.27536 -0.932702 
0.0757898 -0.36064 -0.929621 0.0245387 -0.281157 -0.959348 -0.064026 -0.28414 -0.956643 
-0.162435 -0.112617 -0.980272 -0.155168 -0.0964681 -0.983167 -0.151456 -0.104158 -0.982961 
-0.153035 -0.0955276 -0.983593 0.205963 -0.206394 -0.956546 0.117345 -0.288599 -0.950232 
0.0982664 -0.196123 -0.975643 3.35882e-06 -0.36455 -0.931184 -0.00495545 -0.191758 -0.98143 
-0.146434 -0.22793 -0.962603 -0.116849 -0.293774 -0.948706 -0.119343 -0.214644 -0.969374 

