# vtk DataFile Version 4.2
vtk output
ASCII
DATASET POLYDATA
POINTS 522 float
-32.5044 -0.0638367 -21.8275 -24.7482 -38.8448 -14.0786 -16.992 -38.8448 -15.0613 
-9.23582 -38.8448 -15.209 -1.47963 -38.8448 -14.5564 6.27657 -38.8448 -13.8727 
-32.5044 -31.0886 -16.3013 -24.7482 -31.0886 -18.0157 -16.992 -31.0886 -18.6561 
-9.23582 -31.0886 -18.2802 -1.47963 -31.0886 -18.0775 6.27657 -31.0886 -18.2892 
14.0328 -31.0886 -18.8755 21.789 -31.0886 -19.0795 29.5452 -31.0886 -16.9117 
-40.2606 -23.3324 -17.0809 -32.5044 -23.3324 -19.1759 -24.7482 -23.3324 -19.5379 
-16.992 -23.3324 -19.7294 -9.23582 -23.3324 -19.1368 -1.47963 -23.3324 -19.3528 
6.27657 -23.3324 -20.4334 14.0328 -23.3324 -21.2013 21.789 -23.3324 -21.1379 
29.5452 -23.3324 -20.0402 37.3014 -23.3324 -18.1799 -48.0168 -15.5762 -15.1612 
-40.2606 -15.5762 -19.3852 -32.5044 -15.5762 -20.4813 -24.7482 -15.5762 -20.2201 
-16.992 -15.5762 -19.5433 -9.23582 -15.5762 -18.9412 -1.47963 -15.5762 -19.5997 
6.27657 -15.5762 -20.8812 14.0328 -15.5762 -20.8983 21.789 -15.5762 -20.4289 
29.5452 -15.5762 -19.9165 37.3014 -15.5762 -18.9568 45.0576 -15.5762 -16.8495 
-48.0168 -7.82003 -17.5642 -40.2606 -7.82003 -20.8621 -32.5044 -5.33329 -21.506 
-32.5044 -7.82003 -21.3543 -24.7482 -7.82003 -20.7941 -16.992 -7.82003 -19.5991 
-9.23582 -7.82003 -19.474 -1.47963 -7.82003 -18.7724 6.27657 -7.82003 -20.4654 
14.0328 -7.82003 -19.058 21.789 -7.82003 -19.0718 29.5452 -7.82003 -19.8069 
37.3014 -7.82003 -19.7551 45.0576 -7.82003 -17.9735 -48.0168 -0.0638367 -18.1223 
-37.4516 -0.0638367 -21.506 -40.2606 -0.0638367 -21.3121 -28.5445 -0.0638367 -21.506 
-32.5044 3.30274 -21.506 -24.7482 -0.0638367 -21.1836 -16.992 -0.0638367 -20.4175 
-9.23582 -0.0638367 -21.3237 -1.47963 -0.0638367 -17.2187 6.27657 -0.0638367 -20.5926 
14.0328 -0.0638367 -18.2855 21.789 -0.0638367 -18.5365 29.5452 -0.0638367 -19.8355 
37.3014 -0.0638367 -20.0252 45.0576 -0.0638367 -18.4811 -48.0168 7.69236 -17.5705 
-40.2606 7.69236 -20.5089 -32.5044 7.69236 -21.0813 -24.7482 7.69236 -20.6364 
-16.992 7.69236 -19.9806 -9.23582 7.69236 -20.4675 -1.47963 7.69236 -18.58 
6.27657 7.69236 -19.8661 14.0328 7.69236 -18.6679 21.789 7.69236 -19.1057 
29.5452 7.69236 -19.8187 37.3014 7.69236 -19.7844 45.0576 7.69236 -18.0751 
-48.0168 15.4486 -14.4863 -40.2606 15.4486 -18.4916 -32.5044 15.4486 -19.9784 
-24.7482 15.4486 -19.8444 -16.992 15.4486 -19.0054 -9.23582 15.4486 -18.9196 
-1.47963 15.4486 -18.8163 6.27657 15.4486 -18.993 14.0328 15.4486 -19.0074 
21.789 15.4486 -19.1208 29.5452 15.4486 -19.2408 37.3014 15.4486 -18.42 
45.0576 15.4486 -16.3893 -40.2606 23.2048 -15.0212 -32.5044 23.2048 -17.2966 
-24.7482 23.2048 -18.5557 -16.992 23.2048 -18.9006 -9.23582 23.2048 -19.3526 
-1.47963 23.2048 -19.8205 6.27657 23.2048 -19.6515 14.0328 23.2048 -19.1989 
21.789 23.2048 -18.6322 29.5452 23.2048 -17.8121 37.3014 23.2048 -15.8488 
-24.7482 30.961 -15.9633 -16.992 30.961 -18.2507 -9.23582 30.961 -18.8285 
-1.47963 30.961 -19.086 6.27657 30.961 -18.692 14.0328 30.961 -17.9345 
21.789 30.961 -16.6821 29.5452 30.961 -14.0139 -16.992 38.7171 -14.1723 
-9.23582 38.7171 -15.7437 -1.47963 38.7171 -15.7717 6.27657 38.7171 -14.9245 
-24.7482 -39.1854 -13.7498 -16.992 -40.3471 -13.7498 -9.23582 -40.7984 -13.7498 
-1.47963 -39.8678 -13.7498 6.27657 -38.9837 -13.7498 -25.4462 -38.8448 -13.7498 
-32.5044 -34.2879 -13.7498 -32.5044 -38.8448 -6.68236 9.91018 -38.8448 -13.7498 
14.0328 -38.6582 -13.7498 14.0328 -38.8448 -13.5326 21.789 -37.7001 -13.7498 
21.789 -38.8448 -11.7924 29.5452 -34.9349 -13.7498 -37.2593 -31.0886 -13.7498 
-40.2606 -28.5649 -13.7498 -40.2606 -31.0886 -10.6706 35.9023 -31.0886 -13.7498 
37.3014 -29.9517 -13.7498 37.3014 -31.0886 -12.4724 -44.7485 -23.3324 -13.7498 
-48.0168 -18.4361 -13.7498 -48.0168 -23.3324 -8.69171 43.8251 -23.3324 -13.7498 
45.0576 -21.9295 -13.7498 45.0576 -23.3324 -12.5205 -49.4061 -15.5762 -13.7498 
49.1404 -15.5762 -13.7498 52.8138 -15.5762 -8.61559 -51.7273 -7.82003 -13.7498 
51.6831 -7.82003 -13.7498 52.8138 -7.82003 -12.6003 -52.5645 -0.0638367 -13.7498 
-55.773 -0.0638367 -6.68586 52.7074 -0.0638367 -13.7498 52.8138 -0.0638367 -13.648 
-51.8518 7.69236 -13.7498 51.8345 7.69236 -13.7498 52.8138 7.69236 -12.7669 
-48.8319 15.4486 -13.7498 -48.0168 16.6531 -13.7498 48.7177 15.4486 -13.7498 
45.0576 20.2028 -13.7498 52.8138 15.4486 -8.62504 -42.2247 23.2048 -13.7498 
-48.0168 23.2048 -6.80196 -40.2606 24.9068 -13.7498 -32.5044 30.3167 -13.7498 
41.3958 23.2048 -13.7498 37.3014 26.3391 -13.7498 45.0576 23.2048 -11.0936 
-40.2606 30.961 -6.29013 -31.5313 30.961 -13.7498 -32.5044 30.961 -13.2464 
-24.7482 34.7603 -13.7498 14.0328 38.3618 -13.7498 21.789 35.3149 -13.7498 
30.1359 30.961 -13.7498 29.5452 31.2835 -13.7498 37.3014 30.961 -9.0622 
-17.9736 38.7171 -13.7498 -24.7482 38.7171 -9.70324 -16.992 39.1653 -13.7498 
-9.23582 41.005 -13.7498 -1.47963 40.9393 -13.7498 12.7434 38.7171 -13.7498 
6.27657 39.9834 -13.7498 14.0328 38.7171 -13.4091 21.789 38.7171 -9.67011 
-32.5044 -39.1718 -5.99365 -24.7482 -43.095 -5.99365 -16.992 -45.4617 -5.99365 
-9.23582 -46.4084 -5.99365 -9.23582 -46.601 1.70039 -1.47963 -45.6761 -5.99365 
6.27657 -44.4845 -5.99365 14.0328 -43.1613 -5.99365 21.789 -41.5326 -5.99365 
-33.0295 -38.8448 -5.99365 -40.2606 -33.6796 -5.99365 -32.5044 -38.8448 -2.43158 
29.3545 -38.8448 -5.99365 29.5452 -38.7728 -5.99365 29.5452 -38.8448 -0.253495 
37.3014 -34.5615 -5.99365 -43.0793 -31.0886 -5.99365 -48.0168 -25.1347 -5.99365 
41.9635 -31.0886 -5.99365 45.0576 -28.2526 -5.99365 -49.1647 -23.3324 -5.99365 
49.3744 -23.3324 -5.99365 52.8138 -18.1336 -5.99365 -52.8482 -15.5762 -5.99365 
54.2543 -15.5762 -5.99365 -54.9912 -7.82003 -5.99365 -55.773 -1.93913 -5.99365 
56.7525 -7.82003 -5.99365 -56.0122 -0.0638367 -5.99365 -55.773 3.22575 -5.99365 
57.4738 -0.0638367 -5.99365 -55.4359 7.69236 -5.99365 56.9018 7.69236 -5.99365 
-53.2363 15.4486 -5.99365 54.2971 15.4486 -5.99365 52.8138 17.8837 -5.99365 
-48.5305 23.2048 -5.99365 -48.0168 23.8104 -5.99365 48.8677 23.2048 -5.99365 
45.0576 26.9472 -5.99365 -40.5222 30.961 -5.99365 -40.2606 31.1579 -5.99365 
-32.5044 36.6628 -5.99365 29.5452 37.2583 -5.99365 39.9687 30.961 -5.99365 
37.3014 32.8141 -5.99365 -29.1059 38.7171 -5.99365 -24.7482 41.1078 -5.99365 
-16.992 44.2605 -5.99365 -9.23582 45.375 -5.99365 -1.47963 45.2797 -5.99365 
6.27657 44.6851 -5.99365 14.0328 43.475 -5.99365 26.6139 38.7171 -5.99365 
21.789 40.9721 -5.99365 -9.23582 -46.6025 1.76254 -24.7482 -42.5923 1.76254 
-9.24774 -46.601 1.76254 -16.992 -45.566 1.76254 -9.07999 -46.601 1.76254 
-9.23582 -46.601 1.76666 -1.47963 -46.5303 1.76254 6.27657 -45.6482 1.76254 
14.0328 -44.16 1.76254 21.789 -42.0252 1.76254 29.5452 -38.8682 1.76254 
-40.2606 -32.7389 1.76254 -31.8189 -38.8448 1.76254 -32.5044 -38.4499 1.76254 
-24.7482 -38.8448 9.26985 29.5882 -38.8448 1.76254 29.5452 -38.8448 1.83448 
37.3014 -34.259 1.76254 -42.0638 -31.0886 1.76254 -48.0168 -24.0185 1.76254 
-40.2606 -31.0886 4.94562 41.5989 -31.0886 1.76254 45.0576 -28.357 1.76254 
-48.4981 -23.3324 1.76254 -48.0168 -23.3324 2.92114 49.88 -23.3324 1.76254 
52.8138 -18.9877 1.76254 -52.3024 -15.5762 1.76254 54.8149 -15.5762 1.76254 
52.8138 -15.5762 7.60135 -54.6375 -7.82003 1.76254 -55.773 -0.235424 1.76254 
57.4668 -7.82003 1.76254 -55.8001 -0.0638367 1.76254 -55.773 0.427039 1.76254 
-55.773 -0.0638367 1.89619 58.1339 -0.0638367 1.76254 -55.3959 7.69236 1.76254 
57.5729 7.69236 1.76254 -53.6706 15.4486 1.76254 55.0828 15.4486 1.76254 
52.8138 19.1327 1.76254 52.8138 15.4486 8.63734 -49.722 23.2048 1.76254 
-48.0168 25.2753 1.76254 -48.0168 23.2048 7.58231 49.8555 23.2048 1.76254 
45.0576 27.9533 1.76254 -42.2647 30.961 1.76254 -40.2606 32.6035 1.76254 
-40.2606 30.961 8.31817 -32.5044 37.9198 1.76254 29.5452 38.4589 1.76254 
41.3518 30.961 1.76254 37.3014 33.9078 1.76254 -31.0616 38.7171 1.76254 
-24.7482 41.9514 1.76254 -16.992 44.6402 1.76254 -9.23582 45.8139 1.76254 
-1.47963 46.1478 1.76254 6.27657 46.0394 1.76254 14.0328 44.9519 1.76254 
29.0534 38.7171 1.76254 21.789 42.3079 1.76254 -16.992 -41.6352 9.51874 
-9.23582 -43.2402 9.51874 -1.47963 -43.5194 9.51874 6.27657 -42.8946 9.51874 
14.0328 -41.474 9.51874 21.789 -39.2661 9.51874 -32.5044 -34.0558 9.51874 
-24.3793 -38.8448 9.51874 -24.7482 -38.684 9.51874 -16.992 -38.8448 12.579 
-9.23582 -38.8448 14.1875 -1.47963 -38.8448 14.3683 6.27657 -38.8448 13.7601 
14.0328 -38.8448 12.4538 22.8118 -38.8448 9.51874 21.789 -38.8448 10.0213 
29.5452 -35.6125 9.51874 37.3014 -31.6188 9.51874 -36.6199 -31.0886 9.51874 
-40.2606 -28.0261 9.51874 -32.5044 -31.0886 12.307 -24.7482 -31.0886 15.9015 
14.0328 -31.0886 17.1571 21.789 -31.0886 15.8905 29.5452 -31.0886 13.7373 
38.0143 -31.0886 9.51874 37.3014 -31.0886 10.1769 45.0576 -25.0352 9.51874 
-44.5022 -23.3324 9.51874 -48.0168 -18.4333 9.51874 -40.2606 -23.3324 13.2237 
-32.5044 -23.3324 17.1874 37.3014 -23.3324 15.5974 46.7088 -23.3324 9.51874 
45.0576 -23.3324 11.2715 -49.5935 -15.5762 9.51874 -48.0168 -15.5762 11.6605 
51.9184 -15.5762 9.51874 45.0576 -15.5762 15.3268 52.8138 -13.5377 9.51874 
-52.3047 -7.82003 9.51874 -48.0168 -7.82003 14.8397 54.8669 -7.82003 9.51874 
52.8138 -7.82003 12.0852 -54.0611 -0.0638367 9.51874 -48.0168 -0.0638367 16.638 
55.5688 -0.0638367 9.51874 52.8138 -0.0638367 12.9626 -53.3791 7.69236 9.51874 
-48.0168 7.69236 16.2715 55.16 7.69236 9.51874 52.8138 14.5123 9.51874 
52.8138 7.69236 12.5384 -51.5498 15.4486 9.51874 -48.0168 22.195 9.51874 
-48.0168 15.4486 14.0875 52.4241 15.4486 9.51874 45.0576 15.4486 16.0934 
-47.3601 23.2048 9.51874 -40.2606 30.6007 9.51874 -40.2606 23.2048 16.3142 
37.3014 23.2048 16.3623 47.0911 23.2048 9.51874 45.0576 25.2533 9.51874 
45.0576 23.2048 11.8318 -39.8346 30.961 9.51874 -32.5044 36.0115 9.51874 
-32.5044 30.961 15.4574 21.789 30.961 17.0695 29.5452 35.8782 9.51874 
29.5452 30.961 14.3153 38.1257 30.961 9.51874 37.3014 31.5535 9.51874 
37.3014 30.961 10.3259 -27.7518 38.7171 9.51874 -24.7482 40.2195 9.51874 
[...]
POINT_DATA 522
SCALARS ImageScalars float
LOOKUP_TABLE default
0 0 0 0 0 0 0 0 0 
0 0 0 0 0 0 0 0 0 
0 0 0 0 0 0 0 0 0 
0 0 0 0 0 0 0 0 0 
0 0 0 0 0 0 0 0 0 
0 0 0 0 0 0 0 0 0 
0 0 0 0 0 0 0 0 0 
0 0 0 0 0 0 0 0 0 
0 0 0 0 0 0 0 0 0 
0 0 0 0 0 0 0 0 0 
0 0 0 0 0 0 0 0 0 
0 0 0 0 0 0 0 0 0 
0 0 0 0 0 0 0 0 0 
0 0 0 0 0 0 0 0 0 
0 0 0 0 0 0 0 0 0 
0 0 0 0 0 0 0 0 0 
0 0 0 0 0 0 0 0 0 
0 0 0 0 0 0 0 0 0 
0 0 0 0 0 0 0 0 0 
0 0 0 0 0 0 0 0 0 
0 0 0 0 0 0 0 0 0 
0 0 0 0 0 0 0 0 0 
0 0 0 0 0 0 0 0 0 
0 0 0 0 0 0 0 0 0 
0 0 0 0 0 0 0 0 0 
0 0 0 0 0 0 0 0 0 
0 0 0 0 0 0 0 0 0 
0 0 0 0 0 0 0 0 0 
0 0 0 0 0 0 0 0 0 
0 0 0 0 0 0 0 0 0 
0 0 0 0 0 0 0 0 0 
0 0 0 0 0 0 0 0 0 
0 0 0 0 0 0 0 0 0 
0 0 0 0 0 0 0 0 0 
0 0 0 0 0 0 0 0 0 
0 0 0 0 0 0 0 0 0 
0 0 0 0 0 0 0 0 0 
0 0 0 0 0 0 0 0 0 
0 0 0 0 0 0 0 0 0 
0 0 0 0 0 0 0 0 0 
0 0 0 0 0 0 0 0 0 
0 0 0 0 0 0 0 0 0 
0 0 0 0 0 0 0 0 0 
0 0 0 0 0 0 0 0 0 
0 0 0 0 0 0 0 0 0 
0 0 0 0 0 0 0 0 0 
0 0 0 0 0 0 0 0 0 
0 0 0 0 0 0 0 0 0 
0 0 0 0 0 0 0 0 0 
0 0 0 0 0 0 0 0 0 
0 0 0 0 0 0 0 0 0 
0 0 0 0 0 0 0 0 0 
0 0 0 0 0 0 0 0 0 
0 0 0 0 0 0 0 0 0 
0 0 0 0 0 0 0 0 0 
0 0 0 0 0 0 0 0 0 
0 0 0 0 0 0 0 0 0 
0 0 0 0 0 0 0 0 0 

NORMALS Normals float
-0.00977294 -0.0169035 0.999809 0.254235 0.682028 0.685713 0.0661834 0.583287 0.809565 
-0.0301195 0.533029 0.845561 -0.0753779 0.574395 0.8151 -0.0530043 0.64904 0.758905 
0.327966 0.494703 0.804803 0.124474 0.314317 0.941122 0.0163914 0.245372 0.96929 
-0.0348812 0.228873 0.972831 -0.000372707 0.277933 0.9606 0.0481742 0.366534 0.929157 
0.0492162 0.421484 0.905499 -0.107081 0.424251 0.899191 -0.330789 0.517761 0.788988 
0.415749 0.407674 0.812991 0.132307 0.242976 0.960967 0.0336898 0.141379 0.989382 
-0.0263349 0.0527939 0.998258 -0.0238795 0.0439882 0.998747 0.0797681 0.097986 0.991986 
0.118811 0.16233 0.979558 0.0432541 0.118082 0.992061 -0.0707493 0.0740665 0.99474 
-0.159685 0.159731 0.97416 -0.390833 0.311061 0.866308 0.676835 0.326105 0.659962 
0.28701 0.20205 0.936377 0.0516647 0.128591 0.990351 -0.0618796 0.0835684 0.994579 
-0.0843696 -0.0085253 0.996398 0.00544949 0.0202638 0.99978 0.124751 -0.0354814 0.991553 
0.0832989 0.00155077 0.996523 -0.0289711 -0.129333 0.991178 -0.0626238 -0.123625 0.990351 
-0.0941909 -0.0147716 0.995445 -0.193561 0.0903412 0.97692 -0.453344 0.271635 0.848937 
0.574463 0.155635 0.803598 0.216008 0.128804 0.967859 -0.00784463 0.0572373 0.99833 
-0.0069407 0.0914861 0.995782 -0.110096 0.0603294 0.992088 -0.086108 0.057091 0.994649 
-0.0523098 0.149299 0.987408 0.0640445 -0.142925 0.987659 0.0208694 -0.0203079 0.999576 
-0.0890422 -0.168613 0.981652 0.0500253 -0.123981 0.991023 0.0402396 -0.00517537 0.999177 
-0.106344 0.0677764 0.992017 -0.370458 0.0985484 0.923607 0.558628 -3.21561e-05 0.829418 
0.123958 -0.0207121 0.992071 0.204664 -0.0225379 0.978573 -0.0508991 -0.013615 0.998611 
-0.00291476 -0.0584795 0.998284 -0.0926622 -0.0102155 0.995645 0.0082198 0.0247405 0.99966 
-0.171305 0.0636836 0.983158 -0.0763608 -0.0117003 0.997012 0.0534324 -0.0397182 0.997781 
-0.1195 -0.0239509 0.992545 0.101553 0.00516195 0.994817 0.090707 0.000761269 0.995877 
-0.0782699 0.00178373 0.996931 -0.345693 0.00576332 0.93833 0.542238 -0.193107 0.817734 
0.200393 -0.180506 0.962943 0.005762 -0.115017 0.993347 -0.0689138 -0.0831986 0.994147 
-0.0128528 -0.0921996 0.995658 -0.0927815 -0.157736 0.983113 -0.0371395 0.0925427 0.995016 
0.00575208 -0.100565 0.994914 -0.0460042 0.046468 0.99786 0.0742259 0.035646 0.996604 
0.043735 -0.0380285 0.998319 -0.100308 -0.100994 0.989817 -0.365285 -0.123557 0.92266 
0.610586 -0.40878 0.678295 0.29208 -0.309162 0.905046 0.0841223 -0.231149 0.969275 
-0.0630648 -0.129741 0.98954 -0.0582042 -0.0673286 0.996032 -0.0122021 -0.065662 0.997767 
0.00473687 0.0796418 0.996812 0.0123036 -0.0104652 0.99987 0.00823652 0.033789 0.999395 
0.0149831 -0.0297349 0.999445 -0.0421999 -0.121693 0.99167 -0.172537 -0.220355 0.960039 
-0.428888 -0.342006 0.836114 0.399744 -0.522846 0.752886 0.201818 -0.375935 0.904402 
0.0970371 -0.237511 0.966526 0.0503691 -0.0446202 0.997733 0.0586202 -0.00449796 0.99827 
0.0194253 0.0197192 0.999617 -0.0400852 -0.0168011 0.999055 -0.0644 -0.065717 0.995758 
-0.0859957 -0.147705 0.985286 -0.156925 -0.288258 0.944607 -0.335507 -0.441074 0.832399 
0.271431 -0.404857 0.873165 0.177352 -0.240586 0.954287 0.0497493 -0.208507 0.976755 
-0.00856866 -0.233285 0.972371 -0.0719576 -0.265014 0.961556 -0.122049 -0.296166 0.947307 
-0.218494 -0.414429 0.883464 -0.349775 -0.573841 0.740516 0.268645 -0.630658 0.728079 
0.0824494 -0.579048 0.811114 -0.0464793 -0.600586 0.798208 -0.120465 -0.632398 0.76522 
0.255743 0.697838 0.669043 0.0869653 0.65063 0.754399 -0.0227836 0.615408 0.787879 
-0.083709 0.61435 0.78458 -0.0548978 0.654063 0.754445 0.271808 0.69117 0.66963 
0.40779 0.606208 0.682803 0.49584 0.845235 0.199299 -0.0574855 0.691827 0.719771 
-0.0594261 0.731283 0.679481 -0.0650891 0.743143 0.66596 -0.170193 0.772779 0.61143 
-0.200579 0.845324 0.495172 -0.361194 0.697537 0.618855 0.472495 0.581544 0.662235 
0.5132 0.564156 0.646803 0.601533 0.668617 0.437162 -0.472831 0.61496 0.631075 
-0.491723 0.592622 0.637972 -0.511772 0.657026 0.553539 0.606672 0.474875 0.637529 
0.704557 0.38251 0.597733 0.813123 0.501332 0.295799 -0.559121 0.487161 0.670863 
-0.566058 0.466926 0.679381 -0.603525 0.524284 0.600736 0.741458 0.3247 0.587206 
-0.646166 0.308218 0.698191 -0.833674 0.382247 0.398592 0.800484 0.168295 0.575242 
-0.654746 0.163037 0.738056 -0.730188 0.181562 0.658681 0.793309 0.00804284 0.608766 
0.980942 0.026323 0.192509 -0.692965 0.00565449 0.720949 -0.70031 0.00570582 0.713816 
0.776382 -0.185098 0.602469 -0.65724 -0.172283 0.733726 -0.722074 -0.183592 0.667011 
0.646506 -0.405589 0.646163 0.623182 -0.434388 0.650348 -0.604579 -0.364247 0.708384 
-0.494199 -0.485023 0.721471 -0.809485 -0.417563 0.412765 0.466085 -0.544285 0.697509 
0.730546 -0.594751 0.335521 0.429018 -0.568263 0.702155 0.376752 -0.546642 0.747824 
-0.437413 -0.521945 0.732286 -0.390268 -0.543898 0.742877 -0.559687 -0.60239 0.569102 
0.560512 -0.753532 0.343535 0.37652 -0.543155 0.750477 0.399688 -0.572115 0.716194 
0.325672 -0.536683 0.778402 -0.206843 -0.677559 0.705783 -0.284012 -0.601942 0.746326 
-0.358882 -0.583094 0.728838 -0.354752 -0.585035 0.729304 -0.488885 -0.738861 0.463763 
0.285071 -0.639905 0.713622 0.40569 -0.754758 0.515516 0.270708 -0.647653 0.712224 
0.0871157 -0.686531 0.721863 -0.0543343 -0.70217 0.709933 -0.196328 -0.685355 0.701245 
-0.128652 -0.684839 0.717248 -0.211703 -0.70094 0.681077 -0.335847 -0.796906 0.502144 
0.496196 0.853641 0.158386 0.363439 0.91426 0.179001 0.19581 0.95386 0.227615 
0.0163183 0.964188 0.264718 0.055773 0.985408 -0.160811 -0.11901 0.938212 0.324955 
-0.152721 0.927074 0.34236 -0.177242 0.937738 0.298719 -0.27068 0.935514 0.227036 
0.504562 0.848863 0.157635 0.649932 0.746245 0.143901 0.512523 0.858451 -0.0195401 
-0.389937 0.903722 0.176735 -0.393149 0.902506 0.175832 -0.428878 0.901204 -0.0624101 
-0.533658 0.826443 0.179448 0.70413 0.695774 0.141775 0.83033 0.539694 0.138864 
-0.618882 0.761643 0.192053 -0.681943 0.696724 0.222552 0.855931 0.497478 0.141058 
-0.778099 0.578278 0.245268 -0.850623 0.455785 0.262107 0.929716 0.339415 0.14292 
-0.873484 0.401474 0.2754 0.971014 0.184296 0.152208 0.985468 0.0658411 0.15658 
-0.93763 0.201438 0.283325 0.9868 0.0281902 0.159472 0.983936 -0.0515401 0.170919 
-0.957819 0.00903939 0.28723 0.969362 -0.158437 0.187709 -0.938823 -0.198191 0.28166 
0.898568 -0.368035 0.23901 -0.855026 -0.426557 0.294923 -0.824981 -0.484888 0.290328 
0.747515 -0.593775 0.297747 0.736501 -0.606558 0.299424 -0.721984 -0.625699 0.295364 
-0.630271 -0.715412 0.301571 0.567506 -0.754435 0.329796 0.563488 -0.756858 0.33113 
0.511658 -0.795164 0.325453 -0.455287 -0.833941 0.311858 -0.545682 -0.78132 0.302935 
-0.512136 -0.802364 0.306478 0.472712 -0.822701 0.315762 0.428631 -0.848552 0.310218 
0.255753 -0.926845 0.27486 0.0593002 -0.966069 0.251384 -0.0425254 -0.959156 0.279664 
-0.107753 -0.938919 0.326834 -0.216415 -0.911386 0.350058 -0.42083 -0.85099 0.314196 
-0.360949 -0.871184 0.332796 0.056037 0.984868 -0.163994 0.403246 0.886638 -0.226421 
0.0563077 0.984847 -0.164032 0.239318 0.950762 -0.196922 0.0536856 0.98519 -0.162845 
0.0560599 0.984838 -0.164169 -0.0608703 0.992485 -0.106149 -0.149336 0.985972 -0.0745486 
-0.219389 0.971978 -0.0844201 -0.326257 0.937548 -0.120667 -0.435599 0.888436 -0.144691 
0.638348 0.732533 -0.236446 0.501927 0.833472 -0.231072 0.5118 0.827015 -0.23261 
0.363187 0.750921 -0.551555 -0.43612 0.888149 -0.144885 -0.4357 0.887871 -0.147819 
-0.541372 0.825879 -0.157608 0.677509 0.697847 -0.23236 0.817493 0.534574 -0.214327 
0.621551 0.699461 -0.352745 -0.59312 0.789384 -0.158373 -0.656039 0.739481 -0.150933 
0.82644 0.522341 -0.210135 0.810521 0.528246 -0.253006 -0.786437 0.604642 -0.126195 
-0.861277 0.493179 -0.122376 0.918255 0.353005 -0.179431 -0.899315 0.421689 -0.11581 
-0.813784 0.419552 -0.402158 0.966252 0.208607 -0.151132 0.992181 0.0532199 -0.112894 
-0.972262 0.210184 -0.102614 0.992473 0.0496077 -0.111966 0.992916 0.0380501 -0.112558 
0.991921 0.049817 -0.116669 -0.994412 0.00621438 -0.105389 0.984629 -0.127942 -0.118896 
-0.976354 -0.193587 -0.0962119 0.943344 -0.318243 -0.0939328 -0.900614 -0.42369 -0.0968534 
-0.850941 -0.51667 -0.0946117 -0.802666 -0.411429 -0.431803 0.816153 -0.574884 -0.0583365 
0.775792 -0.628921 -0.051041 0.770407 -0.558192 -0.308049 -0.76867 -0.634091 -0.0841111 
-0.653718 -0.752694 -0.0781358 0.650059 -0.759321 -0.0292413 0.619761 -0.784454 -0.0229844 
0.604851 -0.731725 -0.314219 0.506464 -0.861434 -0.0377495 -0.488631 -0.870646 -0.0567042 
-0.592567 -0.80234 -0.0715183 -0.54182 -0.837937 -0.0655163 0.484255 -0.874003 -0.0402039 
0.390309 -0.918905 -0.0572054 0.242325 -0.964723 -0.102896 0.0937436 -0.991235 -0.0930895 
0.0142055 -0.998897 -0.0447497 -0.0743386 -0.997212 -0.00649763 -0.2255 -0.974133 -0.0146407 
-0.483398 -0.873674 -0.054964 -0.395354 -0.917671 -0.0396844 0.23685 0.779032 -0.580527 
0.099557 0.817662 -0.567026 -0.0191791 0.83106 -0.555851 -0.115907 0.828032 -0.54857 
-0.201728 0.820861 -0.534315 -0.303765 0.793538 -0.527279 0.459979 0.674353 -0.577639 
0.355231 0.745802 -0.563551 0.360846 0.742667 -0.564124 0.22162 0.681594 -0.697362 
0.0857556 0.630051 -0.771804 -0.0226061 0.593666 -0.804394 -0.0975865 0.625172 -0.774363 
-0.182371 0.698556 -0.691925 -0.318728 0.788998 -0.525257 -0.299823 0.778125 -0.551931 
-0.389608 0.750018 -0.534489 -0.495386 0.723726 -0.48043 0.513769 0.642702 -0.568309 
0.560688 0.614423 -0.55508 0.422631 0.58867 -0.689094 0.273429 0.441106 -0.854787 
-0.120704 0.353695 -0.92754 -0.187772 0.430226 -0.882976 -0.294107 0.589694 -0.752171 
-0.505408 0.716643 -0.48061 -0.488551 0.705982 -0.512744 -0.606409 0.615494 -0.503423 
0.645252 0.540443 -0.539973 0.759246 0.440763 -0.478826 0.500381 0.502629 -0.70497 
0.271451 0.339938 -0.90042 -0.342301 0.415566 -0.842695 -0.643314 0.576317 -0.503989 
-0.583259 0.560692 -0.587735 0.800222 0.3805 -0.463534 0.737493 0.37722 -0.560187 
-0.758894 0.40674 -0.508569 -0.470042 0.31985 -0.822652 -0.788291 0.356791 -0.501296 
0.854787 0.248009 -0.455884 0.650938 0.221708 -0.726034 -0.839469 0.20358 -0.503832 
-0.749866 0.197341 -0.631472 0.905589 0.0630365 -0.419446 0.591118 0.0706187 -0.803488 
-0.8607 0.0165271 -0.508844 -0.733381 0.0210903 -0.679491 0.896125 -0.14035 -0.421025 
0.624572 -0.116396 -0.772245 -0.855545 -0.181047 -0.485041 -0.792703 -0.37921 -0.477307 
-0.753341 -0.168009 -0.635807 0.845785 -0.317521 -0.428752 0.757878 -0.51361 -0.402275 
0.692996 -0.297279 -0.656797 -0.779291 -0.404406 -0.478709 -0.485592 -0.304466 -0.819452 
0.738647 -0.541918 -0.400907 0.595791 -0.711374 -0.372801 0.46291 -0.432105 -0.773951 
-0.334075 -0.412527 -0.847476 -0.656426 -0.598842 -0.458795 -0.612029 -0.646985 -0.454787 
-0.585513 -0.577478 -0.568941 0.588757 -0.71768 -0.371889 0.479623 -0.787174 -0.38771 
0.362082 -0.569791 -0.737723 -0.269803 -0.419606 -0.866682 -0.446843 -0.759122 -0.473355 
-0.324385 -0.589334 -0.739905 -0.510189 -0.73556 -0.445711 -0.500776 -0.741827 -0.446 
-0.491568 -0.723382 -0.484849 0.402993 -0.826379 -0.393312 0.348842 -0.844573 -0.406209 
0.33467 -0.791116 -0.511988 0.214363 -0.870266 -0.443493 0.188304 -0.699967 -0.688904 
0.119516 -0.890238 -0.439535 0.0772487 -0.602921 -0.794052 0.0471466 -0.902898 -0.427261 
0.0391632 -0.584103 -0.810734 -0.0756183 -0.907779 -0.412576 -0.0500792 -0.555503 -0.830005 
-0.250536 -0.868548 -0.427616 -0.253719 -0.627423 -0.736184 -0.421659 -0.780624 -0.461335 
-0.394882 -0.792383 -0.46497 -0.384285 -0.742157 -0.549116 0.161966 0.378248 -0.911425 
0.0362241 0.408722 -0.91194 -0.0380127 0.345424 -0.937677 -0.0531974 0.33886 -0.939332 
0.182179 0.370316 -0.910866 0.197557 0.309875 -0.930026 0.157531 0.353991 -0.921886 
0.011677 0.311467 -0.950185 -0.0420074 0.298581 -0.953459 -0.109279 0.343058 -0.932936 
-0.0428395 0.28843 -0.956542 -0.116498 0.339733 -0.933279 -0.13017 0.28537 -0.949537 
-0.161878 0.30097 -0.939794 0.328282 0.292933 -0.89801 0.262665 0.330706 -0.906444 
0.264631 0.332201 -0.905325 0.132368 0.189971 -0.972826 0.100601 0.0852934 -0.991264 
0.0213552 0.105824 -0.994156 -0.0508505 0.182748 -0.981844 -0.0442376 0.162502 -0.985716 
-0.0488942 0.129836 -0.990329 -0.0898285 0.185675 -0.978497 -0.17879 0.296826 -0.938045 
-0.151097 0.278215 -0.94856 -0.240131 0.267579 -0.933134 0.33304 0.28888 -0.897571 
0.323504 0.286394 -0.901845 0.122004 0.170904 -0.977705 0.00475951 0.0630841 -0.997997 
0.0608761 -0.0511347 -0.996835 0.114869 0.0306355 -0.992908 0.0182596 0.112931 -0.993435 
-0.0975365 0.166465 -0.981212 -0.0849924 0.0319198 -0.99587 -0.0305755 0.0587557 -0.997804 
-0.0651987 0.125193 -0.989988 -0.269915 0.238355 -0.932916 -0.200715 0.209679 -0.956947 
-0.373389 0.168971 -0.912157 0.419026 0.183536 -0.889231 0.254564 0.168228 -0.952311 
0.0257802 0.110107 -0.993585 -0.0787054 0.0662975 -0.994691 0.0548558 0.0198073 -0.998298 
0.199691 0.145519 -0.968993 0.0760974 -0.101759 -0.991894 -0.111599 0.0410304 -0.992906 
-0.164249 0.0808774 -0.983098 0.012798 0.00716593 -0.999892 0.00794114 0.0804424 -0.996728 
-0.129739 0.125651 -0.983555 -0.377999 0.15911 -0.912031 -0.36829 0.157305 -0.916306 
0.522677 0.0702769 -0.849629 0.229138 0.073636 -0.970605 0.0091376 0.0876433 -0.99611 
-0.0800343 0.0978949 -0.991973 0.130574 0.1303 -0.982839 -0.0116528 0.0608321 -0.99808 
-0.0953739 -0.0602057 -0.993619 0.103904 0.0777479 -0.991544 -0.130206 0.21165 -0.968633 
-0.0245295 0.0872984 -0.99588 0.0512628 0.0586405 -0.996962 -0.133685 0.044474 -0.990025 
-0.4167 0.0294095 -0.908568 -0.359689 0.031139 -0.932553 0.527075 -0.103108 -0.843541 
0.262015 -0.0707388 -0.962468 0.0457544 -0.0206272 -0.99874 -0.0409495 0.037683 -0.99845 
0.0405801 0.0675812 -0.996888 0.00646663 -0.12277 -0.992414 0.0797765 0.103985 -0.991374 
0.15966 0.0885074 -0.983196 -0.162033 0.0988666 -0.98182 -0.130042 0.116069 -0.984691 
-0.034476 0.00568747 -0.999389 -0.151835 -0.0638089 -0.986344 -0.430206 -0.1198 -0.894746 
-0.418939 -0.182099 -0.889567 -0.389406 -0.108235 -0.914685 0.451756 -0.231684 -0.861533 
0.408339 -0.344793 -0.845208 0.324099 -0.197977 -0.925076 0.117 -0.1063 -0.987427 
0.00820527 -0.0398444 -0.999172 -0.0289312 -0.000721581 -0.999581 0.0101981 -0.0600737 -0.998142 
0.130661 -0.00866183 -0.991389 0.101645 -0.125941 -0.986817 -0.0982163 -0.136477 -0.985762 
-0.130447 -0.0549416 -0.989932 -0.126179 -0.116979 -0.985086 -0.377899 -0.259392 -0.888768 
-0.294945 -0.335111 -0.894823 -0.232171 -0.215838 -0.948425 0.383361 -0.377238 -0.843046 
0.289105 -0.427976 -0.856303 0.213398 -0.284795 -0.934534 0.067103 -0.170681 -0.983039 
0.0207591 -0.0912572 -0.995611 -0.00269858 -0.0701488 -0.997533 0.0236523 -0.0763795 -0.996798 
0.0187112 -0.179217 -0.983632 -0.0759643 -0.199825 -0.976883 -0.258429 -0.40319 -0.877868 
-0.126717 -0.230005 -0.964904 -0.271367 -0.367702 -0.889469 -0.223926 -0.398104 -0.88959 
-0.195338 -0.325262 -0.925228 0.245982 -0.455973 -0.855325 0.221348 -0.461838 -0.858901 
0.20821 -0.42086 -0.882908 0.13215 -0.470724 -0.872328 0.07594 -0.306803 -0.948739 
0.0500418 -0.465266 -0.883755 0.0222932 -0.259909 -0.965376 0.0310822 -0.456432 -0.889215 
0.0189523 -0.241226 -0.970284 -0.0431523 -0.500501 -0.86466 -0.0248138 -0.250323 -0.967844 
-0.25807 -0.407051 -0.87619 -0.200328 -0.446753 -0.871941 -0.140183 -0.308048 -0.940986 

