# vtk DataFile Version 4.2
vtk output
ASCII
DATASET POLYDATA
POINTS 552 float
-18.2843 -48.9708 -15.9491 -9.84981 -48.9708 -17.2493 -1.4153 -48.9708 -16.8713 
7.01921 -48.9708 -15.21 -26.7188 -40.5363 -16.3164 -18.2843 -40.5363 -19.4377 
-9.84981 -40.5363 -19.133 -1.4153 -40.5363 -19.2401 7.01921 -40.5363 -18.8816 
15.4537 -40.5363 -17.5728 23.8882 -40.5363 -14.6214 -26.7188 -32.1018 -17.4429 
-18.2843 -32.1018 -19.7173 -9.84981 -32.1018 -19.6941 -1.4153 -32.1018 -20.0188 
7.01921 -32.1018 -20.3958 15.4537 -32.1018 -20.1382 23.8882 -32.1018 -18.9861 
32.3227 -32.1018 -16.3009 -35.1533 -23.6673 -13.8036 -26.7188 -23.6673 -16.9117 
-18.2843 -23.6673 -18.8719 -9.84981 -23.6673 -19.053 -1.4153 -23.6673 -19.6101 
7.01921 -23.6673 -20.8844 15.4537 -23.6673 -20.9305 23.8882 -23.6673 -20.4751 
32.3227 -23.6673 -19.7615 40.7572 -23.6673 -18.0087 -35.1533 -15.2328 -13.9577 
-26.7188 -15.2328 -16.3641 -18.2843 -15.2328 -17.9097 -9.84981 -15.2328 -18.4884 
-1.4153 -15.2328 -19.652 7.01921 -15.2328 -21.0321 15.4537 -15.2328 -20.6917 
23.8882 -15.2328 -20.7498 32.3227 -15.2328 -20.8513 40.7572 -15.2328 -20.0646 
49.1918 -15.2328 -17.9529 -35.1533 -6.79828 -14.9508 -26.7188 -6.79828 -16.2438 
-18.2843 -6.79828 -18.9587 -9.84981 -6.79828 -20.3747 -1.4153 -6.79828 -20.1555 
7.01921 -6.79828 -21.5989 15.4537 -6.79828 -19.4594 23.8882 -6.79828 -20.2288 
32.3227 -6.79828 -21.1596 40.7572 -6.79828 -21.1868 49.1918 -6.79828 -19.4446 
57.6263 -6.79828 -14.2007 -35.1533 1.63623 -15.7976 -26.7188 1.63623 -17.4793 
-18.2843 1.63623 -20.1988 -9.84981 1.63623 -19.784 -1.4153 1.63623 -17.148 
7.01921 1.63623 -22.0697 15.4537 1.63623 -17.8826 23.8882 1.63623 -19.5313 
32.3227 1.63623 -21.0529 40.7572 1.63623 -21.321 49.1918 1.63623 -19.7006 
57.6263 1.63623 -14.7259 -43.5878 10.0707 -14.3018 -35.1533 10.0707 -16.25 
-26.7188 10.0707 -17.573 -18.2843 10.0707 -18.9596 -9.84981 10.0707 -20.0071 
-1.4153 10.0707 -20.1222 7.01921 10.0707 -19.3743 15.4537 10.0707 -18.3575 
23.8882 10.0707 -19.9053 32.3227 10.0707 -21.0519 40.7572 10.0707 -21.0742 
49.1918 10.0707 -19.4091 57.6263 10.0707 -13.7866 -43.5878 18.5052 -14.5367 
-35.1533 18.5052 -15.9894 -26.7188 18.5052 -16.7481 -18.2843 18.5052 -17.3652 
-9.84981 18.5052 -18.3461 -1.4153 18.5052 -18.4384 7.01921 18.5052 -18.7051 
15.4537 18.5052 -19.803 23.8882 18.5052 -21.3208 32.3227 18.5052 -21.1474 
40.7572 18.5052 -20.337 49.1918 18.5052 -17.8628 -35.1533 26.9398 -14.6968 
-26.7188 26.9398 -15.409 -18.2843 26.9398 -16.1786 -9.84981 26.9398 -17.4075 
-1.4153 26.9398 -18.7969 7.01921 26.9398 -19.5085 15.4537 26.9398 -21.0964 
23.8882 26.9398 -21.0538 32.3227 26.9398 -20.6963 40.7572 26.9398 -18.7709 
-18.2843 35.3743 -14.3972 -9.84981 35.3743 -16.3274 -1.4153 35.3743 -17.6605 
7.01921 35.3743 -19.2462 15.4537 35.3743 -20.1911 23.8882 35.3743 -19.8567 
32.3227 35.3743 -17.9472 -1.4153 43.8088 -14.267 7.01921 43.8088 -15.5368 
15.4537 43.8088 -16.3457 23.8882 43.8088 -14.1519 -18.2843 -52.3661 -13.721 
-9.84981 -53.5455 -13.721 -9.84981 -57.4053 -6.78983 -1.4153 -52.7239 -13.721 
7.01921 -50.7774 -13.721 -23.5394 -48.9708 -13.721 -26.7188 -46.0841 -13.721 
-26.7188 -48.9708 -11.4381 10.8303 -48.9708 -13.721 15.4537 -46.4001 -13.721 
15.4537 -48.9708 -9.7734 23.8882 -41.6015 -13.721 -31.0191 -40.5363 -13.721 
-35.1533 -40.5363 -10.0429 25.4775 -40.5363 -13.721 32.3227 -35.3717 -13.721 
32.3227 -40.5363 -5.58418 -33.6663 -32.1018 -13.721 -35.1533 -24.3767 -13.721 
-35.1533 -32.1018 -12.7082 38.1749 -32.1018 -13.721 40.7572 -30.3817 -13.721 
40.7572 -32.1018 -11.848 -35.2929 -23.6673 -13.721 -43.5878 -23.6673 -8.26773 
48.8608 -23.6673 -13.721 49.1918 -23.395 -13.721 49.1918 -23.6673 -13.4466 
-52.0224 -15.2328 -5.74763 -35.7519 -15.2328 -13.721 -43.5878 -15.2328 -10.5783 
54.801 -15.2328 -13.721 57.6263 -7.88652 -13.721 57.6263 -15.2328 -8.80843 
-52.0224 -6.79828 -7.41813 -39.6005 -6.79828 -13.721 -43.5878 -6.79828 -12.4222 
58.0174 -6.79828 -13.721 -52.0224 1.63623 -9.50865 -42.8819 1.63623 -13.721 
-43.5878 3.74923 -13.721 -43.5878 1.63623 -13.5301 58.4471 1.63623 -13.721 
-45.1058 10.0707 -13.721 -52.0224 10.0707 -10.5468 57.6776 10.0707 -13.721 
57.6263 10.2273 -13.721 -46.6216 18.5052 -13.721 -52.0224 18.5052 -11.2926 
-43.5878 21.3388 -13.721 54.4454 18.5052 -13.721 49.1918 26.4472 -13.721 
57.6263 18.5052 -6.39951 -52.0224 26.9398 -6.89678 -38.3991 26.9398 -13.721 
-43.5878 26.9398 -11.9884 -35.1533 29.3341 -13.721 -26.7188 33.1184 -13.721 
48.7439 26.9398 -13.721 40.7572 33.6092 -13.721 49.1918 26.9398 -12.2945 
-43.5878 35.3743 -6.95286 -35.1533 35.3743 -10.8885 -22.4966 35.3743 -13.721 
-26.7188 35.3743 -12.9791 -18.2843 36.9753 -13.721 -9.84981 41.9934 -13.721 
38.696 35.3743 -13.721 32.3227 39.7931 -13.721 40.7572 35.3743 -6.52316 
-26.7188 43.8088 -7.73332 -18.2843 43.8088 -10.4444 -4.75478 43.8088 -13.721 
-9.84981 43.8088 -12.8271 -1.4153 44.5206 -13.721 7.01921 45.878 -13.721 
15.4537 46.3243 -13.721 24.6615 43.8088 -13.721 23.8882 44.1727 -13.721 
-9.84981 -58.0471 -5.28651 -26.7188 -53.0515 -5.28651 -13.8801 -57.4053 -5.28651 
-18.2843 -56.6962 -5.28651 -5.24683 -57.4053 -5.28651 -9.84981 -57.4053 -1.29812 
-1.4153 -56.8741 -5.28651 7.01921 -54.5947 -5.28651 15.4537 -51.0025 -5.28651 
-31.9151 -48.9708 -5.28651 -35.1533 -45.4897 -5.28651 19.1226 -48.9708 -5.28651 
15.4537 -48.9708 2.42449 23.8882 -46.0848 -5.28651 32.3227 -40.6641 -5.28651 
-38.9292 -40.5363 -5.28651 32.5241 -40.5363 -5.28651 32.3227 -40.5363 -4.5912 
40.7572 -35.4375 -5.28651 -43.3519 -32.1018 -5.28651 -43.5878 -31.5453 -5.28651 
-43.5878 -32.1018 -4.82912 45.3901 -32.1018 -5.28651 49.1918 -28.9181 -5.28651 
-47.4264 -23.6673 -5.28651 -52.0224 -16.2267 -5.28651 -52.0224 -23.6673 3.04298 
54.1453 -23.6673 -5.28651 57.6263 -18.1104 -5.28651 -52.458 -15.2328 -5.28651 
59.1934 -15.2328 -5.28651 57.6263 -15.2328 2.37721 -53.9558 -6.79828 -5.28651 
62.0189 -6.79828 -5.28651 -57.2655 1.63623 -5.28651 62.4848 1.63623 -5.28651 
-58.1089 10.0707 -5.28651 -60.4569 10.0707 1.77331 61.3718 10.0707 -5.28651 
-57.4803 18.5052 -5.28651 58.0084 18.5052 -5.28651 57.6263 19.0756 -5.28651 
57.6263 18.5052 -2.60026 -53.733 26.9398 -5.28651 -52.0224 29.7791 -5.28651 
50.8247 26.9398 -5.28651 49.1918 28.453 -5.28651 -46.5286 35.3743 -5.28651 
-52.0224 35.3743 1.24923 -43.5878 37.2984 -5.28651 -35.1533 43.7484 -5.28651 
32.3227 41.6189 -5.28651 41.051 35.3743 -5.28651 40.7572 35.6255 -5.28651 
40.7572 35.3743 -3.98349 -34.9907 43.8088 -5.28651 -35.1533 43.8088 -5.16537 
-26.7188 46.4623 -5.28651 -18.2843 50.0849 -5.28651 -9.84981 51.839 -5.28651 
-1.4153 52.1236 -5.28651 7.01921 51.4276 -5.28651 15.4537 49.8422 -5.28651 
28.5785 43.8088 -5.28651 23.8882 46.2997 -5.28651 -18.2843 52.2433 -0.0132375 
-9.84981 52.2433 -4.0275 -1.4153 52.2433 -4.67065 -26.7188 -52.3743 3.148 
-18.2843 -55.3447 3.148 -9.84981 -56.5686 3.148 -1.4153 -55.0305 3.148 
7.01921 -52.7007 3.148 -31.9335 -48.9708 3.148 -35.1533 -46.3934 3.148 
-26.7188 -48.9708 8.84324 -1.4153 -48.9708 10.6599 15.0581 -48.9708 3.148 
7.01921 -48.9708 8.44244 15.4537 -48.7475 3.148 23.8882 -44.0039 3.148 
-40.6277 -40.5363 3.148 -43.5878 -36.8939 3.148 15.4537 -40.5363 11.41 
29.6573 -40.5363 3.148 23.8882 -40.5363 7.28919 32.3227 -38.8655 3.148 
40.7572 -34.0256 3.148 -47.1082 -32.1018 3.148 -52.0224 -23.7407 3.148 
-43.5878 -32.1018 11.4001 32.3227 -32.1018 10.9005 43.4606 -32.1018 3.148 
40.7572 -32.1018 6.18947 49.1918 -27.1066 3.148 -52.0636 -23.6673 3.148 
-52.0224 -23.6673 3.35087 52.3644 -23.6673 3.148 49.1918 -23.6673 7.31226 
-55.5252 -15.2328 3.148 -52.0224 -15.2328 11.2893 57.4443 -15.2328 3.148 
57.6263 -14.7906 3.148 -58.137 -6.79828 3.148 60.5458 -6.79828 3.148 
57.6263 -6.79828 7.78555 -60.0627 1.63623 3.148 -60.4569 6.21183 3.148 
61.0582 1.63623 3.148 57.6263 1.63623 8.68531 -60.772 10.0707 3.148 
-60.4569 15.1715 3.148 -60.4569 10.0707 3.93478 60.1218 10.0707 3.148 
57.6263 16.5091 3.148 57.6263 10.0707 7.45705 -60.2477 18.5052 3.148 
56.7218 18.5052 3.148 -57.721 26.9398 3.148 40.7572 34.1173 3.148 
50.5606 26.9398 3.148 49.1918 28.2281 3.148 49.1918 26.9398 5.44275 
-52.6964 35.3743 3.148 -52.0224 36.0618 3.148 -52.0224 35.3743 4.6493 
-43.5878 42.2973 3.148 39.0205 35.3743 3.148 32.3227 40.3575 3.148 
-40.9567 43.8088 3.148 -35.1533 46.7488 3.148 -26.7188 50.3994 3.148 
7.01921 51.8359 3.148 15.4537 49.3286 3.148 26.8234 43.8088 3.148 
23.8882 45.5383 3.148 23.8882 43.8088 7.89639 -21.0811 52.2433 3.148 
-18.2843 53.1057 3.148 -18.2843 52.2433 7.36462 -9.84981 53.9844 3.148 
-9.84981 52.2433 9.45038 5.00755 52.2433 3.148 -1.4153 53.5193 3.148 
-1.4153 52.2433 7.21006 -18.2843 -49.4819 11.5825 -9.84981 -49.5884 11.5825 
-35.1533 -40.6744 11.5825 -20.0954 -48.9708 11.5825 -26.7188 -46.659 11.5825 
-18.2843 -48.9708 12.1159 -6.51371 -48.9708 11.5825 -9.84981 -48.9708 12.1317 
-1.4153 -47.7445 11.5825 7.01921 -44.7809 11.5825 -35.3176 -40.5363 11.5825 
-35.1533 -40.5363 11.7021 -26.7188 -40.5363 15.6803 -18.2843 -40.5363 16.8639 
-9.84981 -40.5363 16.9923 -1.4153 -40.5363 15.8356 14.9548 -40.5363 11.5825 
7.01921 -40.5363 13.8578 15.4537 -40.2484 11.5825 23.8882 -35.2983 11.5825 
-43.479 -32.1018 11.5825 -43.5878 -31.9558 11.5825 -35.1533 -32.1018 16.912 
-26.7188 -32.1018 18.4835 -18.2843 -32.1018 19.382 -9.84981 -32.1018 18.7501 
-1.4153 -32.1018 17.856 7.01921 -32.1018 16.7362 15.4537 -32.1018 15.258 
30.582 -32.1018 11.5825 23.8882 -32.1018 13.5359 32.3227 -31.2685 11.5825 
40.7572 -26.5197 11.5825 -49.629 -23.6673 11.5825 -43.5878 -23.6673 15.7169 
-35.1533 -23.6673 18.5972 -26.7188 -23.6673 19.731 -18.2843 -23.6673 19.9712 
-9.84981 -23.6673 19.3279 -1.4153 -23.6673 18.6255 7.01921 -23.6673 17.6854 
15.4537 -23.6673 17.4459 23.8882 -23.6673 17.3127 32.3227 -23.6673 16.0678 
43.9376 -23.6673 11.5825 40.7572 -23.6673 13.4007 49.1918 -17.068 11.5825 
-51.8057 -15.2328 11.5825 -52.0224 -14.2474 11.5825 -43.5878 -15.2328 16.9697 
-35.1533 -15.2328 19.6016 -18.2843 -15.2328 19.8497 -9.84981 -15.2328 19.3078 
[...]
POINT_DATA 552
SCALARS ImageScalars float
LOOKUP_TABLE default
0 0 0 0 0 0 0 0 0 
0 0 0 0 0 0 0 0 0 
0 0 0 0 0 0 0 0 0 
0 0 0 0 0 0 0 0 0 
0 0 0 0 0 0 0 0 0 
0 0 0 0 0 0 0 0 0 
0 0 0 0 0 0 0 0 0 
0 0 0 0 0 0 0 0 0 
0 0 0 0 0 0 0 0 0 
0 0 0 0 0 0 0 0 0 
0 0 0 0 0 0 0 0 0 
0 0 0 0 0 0 0 0 0 
0 0 0 0 0 0 0 0 0 
0 0 0 0 0 0 0 0 0 
0 0 0 0 0 0 0 0 0 
0 0 0 0 0 0 0 0 0 
0 0 0 0 0 0 0 0 0 
0 0 0 0 0 0 0 0 0 
0 0 0 0 0 0 0 0 0 
0 0 0 0 0 0 0 0 0 
0 0 0 0 0 0 0 0 0 
0 0 0 0 0 0 0 0 0 
0 0 0 0 0 0 0 0 0 
0 0 0 0 0 0 0 0 0 
0 0 0 0 0 0 0 0 0 
0 0 0 0 0 0 0 0 0 
0 0 0 0 0 0 0 0 0 
0 0 0 0 0 0 0 0 0 
0 0 0 0 0 0 0 0 0 
0 0 0 0 0 0 0 0 0 
0 0 0 0 0 0 0 0 0 
0 0 0 0 0 0 0 0 0 
0 0 0 0 0 0 0 0 0 
0 0 0 0 0 0 0 0 0 
0 0 0 0 0 0 0 0 0 
0 0 0 0 0 0 0 0 0 
0 0 0 0 0 0 0 0 0 
0 0 0 0 0 0 0 0 0 
0 0 0 0 0 0 0 0 0 
0 0 0 0 0 0 0 0 0 
0 0 0 0 0 0 0 0 0 
0 0 0 0 0 0 0 0 0 
0 0 0 0 0 0 0 0 0 
0 0 0 0 0 0 0 0 0 
0 0 0 0 0 0 0 0 0 
0 0 0 0 0 0 0 0 0 
0 0 0 0 0 0 0 0 0 
0 0 0 0 0 0 0 0 0 
0 0 0 0 0 0 0 0 0 
0 0 0 0 0 0 0 0 0 
0 0 0 0 0 0 0 0 0 
0 0 0 0 0 0 0 0 0 
0 0 0 0 0 0 0 0 0 
0 0 0 0 0 0 0 0 0 
0 0 0 0 0 0 0 0 0 
0 0 0 0 0 0 0 0 0 
0 0 0 0 0 0 0 0 0 
0 0 0 0 0 0 0 0 0 
0 0 0 0 0 0 0 0 0 
0 0 0 0 0 0 0 0 0 
0 0 0 0 0 0 0 0 0 
0 0 0 
NORMALS Normals float
-0.244113 -0.476779 -0.844447 -0.0546819 -0.43647 -0.898055 0.112105 -0.495503 -0.861341 
0.274964 -0.588788 -0.760081 -0.419588 -0.251728 -0.872112 -0.159538 -0.214551 -0.963595 
0.00976065 -0.144203 -0.9895 0.0140738 -0.18329 -0.982958 0.0935528 -0.281907 -0.95487 
0.22023 -0.430544 -0.875289 0.405211 -0.608017 -0.682729 -0.36685 -0.0330114 -0.929694 
-0.137659 0.0360074 -0.989825 -0.0178948 0.00567294 -0.999824 -0.0414036 -0.0200772 -0.998941 
-0.00696386 -0.112549 -0.993622 0.0802549 -0.184342 -0.97958 0.194712 -0.30105 -0.933518 
0.342977 -0.513379 -0.786644 -0.452596 -0.0621726 -0.889546 -0.277977 0.0625795 -0.958547 
-0.121114 0.104598 -0.987112 -0.0435007 0.0712889 -0.996507 -0.106352 0.022071 -0.994084 
-0.0792375 -0.038003 -0.996131 0.0239607 -0.0331765 -0.999162 0.0667275 -0.101803 -0.992564 
0.128164 -0.228564 -0.965056 0.321849 -0.382975 -0.865877 -0.325084 -0.0691157 -0.943156 
-0.225297 0.0382604 -0.973539 -0.122941 0.00206376 -0.992412 -0.0969918 -0.0774178 -0.99227 
-0.160436 -0.0304775 -0.986576 -0.0545314 -0.0414609 -0.997651 0.0165948 0.0857979 -0.996174 
-0.00942429 0.0146776 -0.999848 0.038435 -0.0784005 -0.996181 0.171895 -0.163609 -0.971434 
0.411824 -0.289178 -0.864163 -0.215115 -0.104629 -0.970968 -0.218496 -0.0642777 -0.973719 
-0.249047 -0.135859 -0.958915 -0.06296 -0.0818262 -0.994656 -0.0787163 0.123436 -0.989226 
0.0510581 -0.0550501 -0.997177 0.0780741 0.164952 -0.983207 -0.100387 0.0696112 -0.99251 
-0.0562912 -0.0118363 -0.998344 0.0913261 -0.0729459 -0.993146 0.324393 -0.108172 -0.939717 
0.749019 -0.181699 -0.637147 -0.224243 -0.077425 -0.971453 -0.24655 -0.0758898 -0.966154 
-0.140265 0.00594191 -0.990096 0.155542 0.023268 -0.987555 -0.0934115 -0.0232598 -0.995356 
0.019865 0.128389 -0.991525 0.098519 0.0680504 -0.992806 -0.189574 0.0195932 -0.981671 
-0.0991528 0.0063574 -0.995052 0.0722987 0.00668875 -0.997361 0.292691 0.00154743 -0.956206 
0.738283 0.0166097 -0.674286 -0.293474 -0.058137 -0.954198 -0.184163 -0.0112554 -0.982831 
-0.155882 0.0410239 -0.986923 -0.145277 0.165784 -0.975403 -0.0660585 0.0855643 -0.99414 
0.0332685 -0.0373203 -0.998749 0.116119 0.176701 -0.977391 -0.0388755 -0.10751 -0.993444 
-0.157944 -0.0961406 -0.982757 -0.0687438 -0.00561169 -0.997619 0.0850077 0.0575601 -0.994716 
0.33699 0.104983 -0.935637 0.779717 0.190101 -0.596576 -0.227454 0.129104 -0.965192 
-0.134709 0.0994008 -0.985887 -0.0804296 0.13033 -0.988203 -0.091632 0.157634 -0.983237 
-0.0631424 0.15135 -0.986461 -0.0211363 0.0782074 -0.996713 -0.0749631 -0.0113733 -0.997121 
-0.150116 -0.165054 -0.974793 -0.0747623 -0.0702012 -0.994727 0.0556164 0.0195454 -0.998261 
0.180613 0.119314 -0.97629 0.471998 0.303881 -0.827572 -0.187226 0.272575 -0.943742 
-0.0888549 0.209411 -0.973782 -0.116691 0.167378 -0.978963 -0.151566 0.119206 -0.981233 
-0.12137 0.0420944 -0.991714 -0.136088 -0.033414 -0.990133 -0.0890623 -0.0206627 -0.995812 
0.022478 0.0825849 -0.99633 0.118342 0.16224 -0.979629 0.376862 0.376425 -0.846333 
-0.191279 0.292412 -0.936967 -0.178012 0.243073 -0.953534 -0.168611 0.242339 -0.955428 
-0.14016 0.195077 -0.970721 -0.0348235 0.247652 -0.968223 0.112379 0.325464 -0.938853 
0.369242 0.531821 -0.76212 -0.136288 0.525068 -0.840077 -0.108899 0.574408 -0.811293 
0.0554623 0.650958 -0.757085 0.319371 0.796846 -0.512873 -0.264707 -0.635375 -0.725417 
-0.00510054 -0.701832 -0.712324 -0.00176908 -0.977636 -0.210297 0.126951 -0.711915 -0.690696 
0.280754 -0.677856 -0.679477 -0.427912 -0.540557 -0.724355 -0.490456 -0.474239 -0.731129 
-0.544306 -0.627687 -0.556543 0.342923 -0.649722 -0.678428 0.358424 -0.633668 -0.685563 
0.446558 -0.813246 -0.373116 0.423586 -0.65104 -0.629858 -0.556712 -0.308328 -0.771366 
-0.717567 -0.397018 -0.572254 0.423986 -0.641509 -0.639298 0.413046 -0.611177 -0.675171 
0.528601 -0.839832 -0.123546 -0.498205 -0.12659 -0.857769 -0.459114 -0.0696327 -0.885644 
-0.54101 -0.159369 -0.825778 0.406797 -0.608263 -0.681566 0.410415 -0.594922 -0.691106 
0.463334 -0.691758 -0.553889 -0.454654 -0.063471 -0.888404 -0.590052 -0.244702 -0.769389 
0.517552 -0.531914 -0.670229 0.522502 -0.528301 -0.669245 0.531926 -0.542037 -0.650577 
-0.723725 -0.265235 -0.637081 -0.332627 -0.0798107 -0.939675 -0.434122 -0.209601 -0.876131 
0.6969 -0.332299 -0.635537 0.764021 -0.203975 -0.6121 0.871546 -0.390489 -0.296523 
-0.670812 -0.209421 -0.711445 -0.267493 -0.136537 -0.953837 -0.336801 -0.166435 -0.926749 
0.765661 -0.182413 -0.616838 -0.572643 -0.135067 -0.808602 -0.324319 -0.0954167 -0.941123 
-0.324151 -0.0885053 -0.941856 -0.334767 -0.0986055 -0.937128 0.775551 0.0185234 -0.631013 
-0.335556 -0.0744481 -0.939074 -0.568763 -0.0871162 -0.817875 0.782065 0.190256 -0.593445 
0.781774 0.194396 -0.592486 -0.335552 0.124997 -0.933692 -0.572112 0.134818 -0.809019 
-0.254445 0.19378 -0.947474 0.71645 0.379607 -0.585319 0.644108 0.583485 -0.494642 
0.861609 0.487208 -0.142334 -0.652326 0.382604 -0.654282 -0.241649 0.289421 -0.926197 
-0.338205 0.329058 -0.881668 -0.202739 0.326978 -0.923029 -0.162512 0.33217 -0.929114 
0.639218 0.593241 -0.489351 0.561996 0.678841 -0.472584 0.66102 0.62679 -0.412538 
-0.434128 0.60932 -0.663522 -0.255249 0.466325 -0.846988 -0.192021 0.337384 -0.921575 
-0.193683 0.384838 -0.902434 -0.202204 0.329359 -0.922299 -0.185126 0.438887 -0.879265 
0.554443 0.697809 -0.453492 0.47587 0.743518 -0.469819 0.615459 0.785583 -0.0637865 
-0.257959 0.633945 -0.729089 -0.251312 0.529937 -0.809944 -0.153894 0.514295 -0.843693 
-0.185229 0.506922 -0.841855 -0.127618 0.552492 -0.823691 -0.0806045 0.671529 -0.736581 
0.0942867 0.774328 -0.62572 0.337289 0.805826 -0.486704 0.321985 0.809833 -0.490404 
-0.00972411 -0.991779 -0.127592 -0.514426 -0.834706 -0.19655 -0.128602 -0.985934 -0.10675 
-0.260584 -0.961333 -0.0890804 0.102512 -0.987988 -0.115631 0.000483022 -0.994803 0.101821 
0.194401 -0.975518 -0.102829 0.323784 -0.944246 -0.0597034 0.452663 -0.889198 -0.066509 
-0.671041 -0.695397 -0.257153 -0.74039 -0.59253 -0.317381 0.495627 -0.865339 -0.0744439 
0.449569 -0.812555 0.371 0.539618 -0.837849 -0.0825906 0.529082 -0.841879 -0.106358 
-0.785382 -0.48367 -0.386314 0.528773 -0.842082 -0.106292 0.530147 -0.84486 -0.0717992 
0.544581 -0.831361 -0.110771 -0.778635 -0.382165 -0.497673 -0.771406 -0.381254 -0.509489 
-0.78827 -0.398959 -0.468467 0.605991 -0.788797 -0.10283 0.674175 -0.732044 -0.0979759 
-0.679161 -0.362447 -0.638258 -0.740915 -0.282253 -0.609408 -0.888744 -0.449462 -0.0901002 
0.785562 -0.609962 -0.104107 0.879137 -0.466256 -0.0986077 -0.74977 -0.267431 -0.605249 
0.909496 -0.402499 -0.10398 0.858705 -0.399357 0.321153 -0.744173 -0.239304 -0.62365 
0.975112 -0.193005 -0.109109 -0.795294 -0.183241 -0.577868 0.993105 0.0371828 -0.111173 
-0.820191 -0.0106837 -0.57199 -0.999922 -0.0107829 -0.00623634 0.964262 0.241447 -0.109099 
-0.813687 0.174234 -0.554577 0.865593 0.492941 -0.0880776 0.859416 0.503916 -0.0864489 
0.867998 0.495761 0.0283029 -0.71636 0.386197 -0.581103 -0.665154 0.459402 -0.588659 
0.703917 0.706718 -0.071068 0.673204 0.736787 -0.0627732 -0.508642 0.627181 -0.589854 
-0.719059 0.689405 -0.087609 -0.470601 0.659235 -0.586467 -0.336409 0.757815 -0.559058 
0.513981 0.857493 -0.0230071 0.614753 0.788712 -0.00349477 0.613984 0.789314 -0.00288606 
0.610572 0.791283 0.0327713 -0.335073 0.757848 -0.559815 -0.338566 0.762835 -0.550868 
-0.295545 0.725013 -0.6221 -0.246816 0.797989 -0.549814 -0.0871933 0.88066 -0.465657 
0.0253341 0.921873 -0.386664 0.125801 0.956031 -0.264913 0.270319 0.951989 -0.143685 
0.471648 0.880857 -0.0404747 0.434866 0.897999 -0.0670057 -0.222371 0.954167 -0.20029 
-0.0746293 0.919286 -0.386451 0.0340804 0.935389 -0.351974 -0.428566 -0.858879 0.280462 
-0.21758 -0.911878 0.348049 0.0140677 -0.925178 0.379272 0.205957 -0.890466 0.405773 
0.322838 -0.851968 0.412221 -0.574542 -0.789253 0.216752 -0.662098 -0.729853 0.170119 
-0.365529 -0.755085 0.544276 0.153543 -0.655244 0.739649 0.438685 -0.798441 0.412368 
0.290245 -0.705441 0.646615 0.442565 -0.795093 0.414685 0.467721 -0.785011 0.406194 
-0.752644 -0.654072 0.075609 -0.793332 -0.608729 0.00858698 0.292404 -0.515585 0.805401 
0.483568 -0.792594 0.371426 0.398533 -0.696724 0.596445 0.483349 -0.797007 0.362152 
0.51535 -0.786961 0.339273 -0.831629 -0.554482 -0.0307084 -0.889075 -0.449944 -0.0842369 
-0.683476 -0.506768 0.525401 0.298296 -0.607426 0.736243 0.555284 -0.760156 0.337375 
0.485658 -0.734352 0.474198 0.657529 -0.665891 0.352483 -0.889535 -0.44902 -0.0843132 
-0.89085 -0.448548 -0.0720402 0.720733 -0.591063 0.3622 0.625941 -0.558878 0.543923 
-0.939806 -0.341705 -0.00179214 -0.777369 -0.177207 0.603568 0.84365 -0.394289 0.364406 
0.848335 -0.384989 0.363471 -0.96578 -0.258662 0.0190706 0.910153 -0.200366 0.362594 
0.79684 -0.198524 0.570644 -0.984021 -0.15681 0.0843429 -0.993564 -0.0759954 0.0839994 
0.934418 0.0231385 0.355425 0.799946 0.00769881 0.600023 -0.996367 -0.0101906 0.0845537 
-0.991565 0.092061 0.0912306 -0.990579 -0.0090878 0.136642 0.916153 0.229656 0.328516 
0.856784 0.421549 0.297014 0.833817 0.201788 0.513839 -0.982362 0.160621 0.0957398 
0.830419 0.47696 0.287947 -0.906855 0.419679 0.0385168 0.575531 0.782767 0.236728 
0.68775 0.686133 0.237111 0.652454 0.720979 0.233438 0.659506 0.677414 0.325826 
-0.736871 0.674765 0.0413951 -0.714066 0.699039 0.0381328 -0.715878 0.683852 0.140944 
-0.548922 0.835827 -0.00882483 0.576156 0.784907 0.227957 0.557297 0.801618 0.216398 
-0.510299 0.859763 -0.0200783 -0.438222 0.897961 -0.0403463 -0.350822 0.934285 -0.0635187 
0.23527 0.964552 0.119527 0.333993 0.921958 0.196068 0.495386 0.845716 0.198388 
0.461601 0.866748 0.188869 0.445551 0.817546 0.364832 -0.248241 0.967757 -0.0426992 
-0.200778 0.979068 -0.0333869 -0.187761 0.961933 0.198574 -0.0243766 0.99968 0.0067567 
0.0184561 0.933509 0.358079 0.207787 0.97237 0.106401 0.124085 0.989981 0.0673854 
0.133995 0.954576 0.266138 -0.119791 -0.685291 0.71835 0.0616053 -0.636423 0.768876 
-0.492331 -0.618695 0.612231 -0.162093 -0.685318 0.709975 -0.306505 -0.648104 0.697149 
-0.11669 -0.669068 0.733984 0.097601 -0.630616 0.769934 0.0653034 -0.621796 0.780452 
0.151538 -0.602836 0.783342 0.249198 -0.525055 0.813767 -0.495227 -0.617959 0.610637 
-0.489845 -0.615914 0.61701 -0.228788 -0.450591 0.862916 -0.0725177 -0.354148 0.932374 
0.05436 -0.330852 0.942116 0.165905 -0.358149 0.918806 0.287039 -0.506009 0.813365 
0.233795 -0.40145 0.885538 0.286673 -0.505834 0.813603 0.273979 -0.530159 0.802413 
-0.675054 -0.502915 0.539795 -0.676663 -0.500386 0.540131 -0.314974 -0.333947 0.888409 
-0.136198 -0.227274 0.96426 -0.0155095 -0.172201 0.98494 0.0881897 -0.124271 0.988321 
0.115734 -0.148584 0.982104 0.152766 -0.208273 0.966067 0.17131 -0.319182 0.932082 
0.276237 -0.56861 0.774839 0.220481 -0.46618 0.856776 0.28014 -0.575984 0.767961 
0.409925 -0.526444 0.744861 -0.758369 -0.340787 0.555645 -0.477099 -0.24281 0.844642 
-0.220299 -0.146077 0.964433 -0.0812752 -0.090345 0.992589 0.0231882 -0.0261646 0.999389 
0.0791573 -0.034063 0.99628 0.0984983 -0.110589 0.988973 0.0679659 -0.132744 0.988817 
0.021914 -0.23407 0.971973 0.0742814 -0.333424 0.939846 0.199455 -0.403493 0.892979 
0.466895 -0.471408 0.748187 0.389069 -0.449384 0.804164 0.561376 -0.359309 0.745489 
-0.75852 -0.165996 0.630153 -0.753093 -0.162908 0.637426 -0.393648 -0.0920939 0.914637 
-0.166267 -0.027902 0.985686 0.0435136 -0.0113361 0.998989 0.00621114 -0.110231 0.993887 
0.0104681 -0.124017 0.992225 0.0284012 -0.219806 0.97513 -0.0352423 -0.165059 0.985654 
0.014009 -0.153352 0.988072 0.153737 -0.203158 0.967001 0.321814 -0.257339 0.91116 
0.576005 -0.32696 0.74921 0.551127 -0.316983 0.771868 -0.693724 -0.13163 0.70811 
-0.635943 -0.112918 0.76343 -0.302584 -0.023654 0.952829 -0.122816 0.0310557 0.991943 
-0.0683732 0.021947 0.997418 0.104969 -0.0615646 0.992568 0.266458 -0.115965 0.956845 
0.629388 -0.181871 0.755509 0.490353 -0.15483 0.857661 -0.666631 -0.0838572 0.740656 
-0.552225 -0.0618766 0.831396 -0.249174 -0.0414199 0.967573 -0.124755 -0.0289202 0.991766 
-0.140411 -0.0328878 0.989547 -0.0536421 -0.03034 0.998099 0.114927 0.0757115 0.990485 
-0.0612548 0.00563648 0.998106 0.236641 -0.035533 0.970947 0.671462 -0.0109798 0.740958 
0.487537 -0.0308285 0.872558 -0.657219 0.0049776 0.753683 -0.538303 0.00924588 0.842701 
-0.24864 -0.00570544 0.968579 -0.117005 -0.0304213 0.992665 0.115375 -0.0734223 0.990605 
-0.0659644 -0.0533164 0.996397 0.252597 0.0335919 0.966988 0.680968 0.154606 0.715807 
0.515031 0.125065 0.847999 -0.645646 0.0636707 0.760978 -0.546649 0.0561599 0.835476 
-0.302828 0.0901479 0.948772 -0.170098 0.0439659 0.984446 -0.014339 0.128312 0.99163 
0.375271 0.220394 0.900332 0.636061 0.384233 0.669172 0.612101 0.442177 0.6556 
0.592087 0.36039 0.7208 -0.685891 0.301088 0.662495 -0.631848 0.393801 0.667599 
-0.593682 0.281168 0.75398 -0.318376 0.194774 0.927739 -0.224816 0.143584 0.963764 
-0.0108992 0.0162076 0.999809 0.116775 0.151348 0.981559 0.277737 0.358309 0.891334 
0.571866 0.570752 0.589246 0.554022 0.61753 0.558315 0.509082 0.531567 0.676958 
-0.532967 0.558071 0.636005 -0.521865 0.579222 0.626226 -0.489769 0.51745 0.701692 
-0.26892 0.330085 0.904835 -0.184341 0.266745 0.945973 0.0771034 0.126371 0.988982 
0.0554497 0.185267 0.981123 0.091576 0.319154 0.943268 0.414851 0.741457 0.527391 
0.262437 0.444653 0.856394 0.522053 0.682926 0.510953 0.512973 0.69046 0.510023 
0.499635 0.653821 0.568227 -0.437584 0.729541 0.525633 -0.416407 0.747602 0.517394 
-0.409021 0.717658 0.563621 -0.333872 0.773593 0.538594 -0.274527 0.570718 0.773897 
-0.161322 0.860903 0.482516 -0.147837 0.436034 0.887704 0.034908 0.860807 0.507733 
-0.00811977 0.428555 0.903479 0.1327 0.825213 0.549012 0.112484 0.434966 0.893394 
0.218936 0.795014 0.565702 0.175762 0.530394 0.829331 0.37317 0.75898 0.533567 
0.305482 0.772051 0.557332 0.281013 0.693065 0.663846 -0.0189912 0.000462617 0.99982 
-0.0228092 0.00689556 0.999716 -0.00441447 0.00643624 0.99997 -0.015979 0.0102469 0.99982 
-0.0126364 0.00951833 0.999875 -0.0329329 -0.0562306 0.997874 -0.00819358 -0.11156 0.993724 
0.00671351 -0.0691663 0.997583 0.0267468 -0.196266 0.980186 0.0405935 -0.0356116 0.998541 
0.0266643 -0.0416412 0.998777 -0.092583 -0.0671393 0.993439 -0.100563 -0.095731 0.990314 
-0.0310549 -0.114375 0.992952 -0.0161345 0.0546621 0.998375 -0.00166725 0.0796781 0.996819 
0.0245979 -0.157296 0.987245 0.0807031 0.0272846 0.996365 0.0694269 0.0126248 0.997507 
0.049073 -0.0226295 0.998539 -0.00902755 -0.00321708 0.999954 0.0305064 -0.0100219 0.999484 
0.0665328 -0.0310856 0.9973 -0.131033 -0.0350374 0.990759 -0.0945424 -0.0463545 0.994441 
-0.0922887 -0.0422486 0.994836 0.0968039 0.0183472 0.995134 0.177828 0.049385 0.982822 
-0.0457873 -0.0377814 0.998236 -0.0810973 -0.0748582 0.993891 0.0670395 0.0339395 0.997173 
-0.0238796 -0.0543806 0.998235 0.0138027 -0.0129413 0.999821 0.0660393 -0.0241435 0.997525 
0.0567797 -0.0236018 0.998108 -0.0869338 -0.0470954 0.9951 -0.0822016 -0.049948 0.995363 
-0.0213129 0.0357975 0.999132 -0.0120483 0.0374271 0.999227 -0.10298 -0.0893166 0.990665 
0.125548 -0.0135797 0.991995 -0.00560932 0.129468 0.991568 0.13201 0.131625 0.98247 
-0.0145657 -0.0799285 0.996694 -0.0530028 -0.0515865 0.997261 -0.0649622 -0.051784 0.996543 
0.0887871 -0.0277341 0.995664 0.0645843 -0.0344508 0.997317 -0.12475 0.0133457 0.992098 
-0.0755138 -0.0228391 0.996883 0.000965798 0.000964618 0.999999 0.0463171 -0.0189697 0.998747 
0.026238 0.0700885 0.997196 0.0386943 0.0522445 0.997884 -0.0292404 0.0607082 0.997727 
-0.0582132 -0.0797684 0.995112 0.0798062 0.113456 0.990333 -0.0169874 0.0154554 0.999736 
0.201861 0.13104 0.970608 0.163884 0.167699 0.972121 0.131311 0.100238 0.986261 
-0.155341 0.119804 0.980569 -0.142931 0.148475 0.978533 -0.127775 0.110448 0.985634 
-0.0170861 0.0326476 0.999321 0.0413586 -0.0202912 0.998938 0.0229047 0.0201532 0.999534 
0.0632835 0.0570787 0.996362 0.0566339 0.02487 0.998085 -0.00531754 0.0418187 0.999111 
0.0681844 0.125122 0.989796 0.0226919 0.141409 0.989691 0.00602654 0.0935066 0.9956 
-0.144816 0.199432 0.969152 -0.13867 0.207686 0.968317 -0.136222 0.190026 0.972283 
0.0644006 0.123032 0.990311 0.0143546 0.226316 0.973948 0.0373532 0.126534 0.991259 

