# vtk DataFile Version 4.2
vtk output
ASCII
DATASET POLYDATA
POINTS 518 float
-10.1313 -37.8773 -15.7793 -2.50323 -37.8773 -18.4654 5.12481 -37.8773 -19.2658 
12.7529 -37.8773 -18.7871 20.3809 -37.8773 -17.8688 -17.7593 -30.2493 -15.8579 
-10.1313 -30.2493 -19.1172 -2.50323 -30.2493 -20.7257 5.12481 -30.2493 -21.3775 
12.7529 -30.2493 -20.9223 20.3809 -30.2493 -20.6377 28.0089 -30.2493 -19.7004 
35.637 -30.2493 -16.2954 -40.6434 -22.6212 -15.3868 -33.0154 -22.6212 -15.9277 
-25.3874 -22.6212 -16.3443 -17.7593 -22.6212 -16.9159 -10.1313 -22.6212 -19.5463 
-2.50323 -22.6212 -21.0862 5.12481 -22.6212 -20.434 12.7529 -22.6212 -20.8504 
20.3809 -22.6212 -21.2288 28.0089 -22.6212 -20.7662 35.637 -22.6212 -19.3902 
43.265 -22.6212 -15.3043 -40.6434 -14.9932 -17.6566 -33.0154 -14.9932 -17.9303 
-25.3874 -14.9932 -17.6793 -17.7593 -14.9932 -17.0447 -10.1313 -14.9932 -19.6986 
-2.50323 -14.9932 -21.1704 5.12481 -14.9932 -19.0892 12.7529 -14.9932 -19.9902 
20.3809 -14.9932 -20.9904 28.0089 -14.9932 -20.5968 35.637 -14.9932 -19.5867 
43.265 -14.9932 -17.0619 -48.2715 -7.36516 -16.1662 -40.6434 -7.36516 -18.0236 
-33.0154 -7.36516 -18.8506 -25.3874 -7.36516 -18.3815 -17.7593 -7.36516 -17.4377 
-10.1313 -7.36516 -20.0529 -2.50323 -7.36516 -21.0578 5.12481 -7.36516 -20.1737 
12.7529 -7.36516 -20.8383 20.3809 -7.36516 -19.9094 28.0089 -7.36516 -20.034 
35.637 -7.36516 -19.5529 43.265 -7.36516 -17.8325 -48.2715 0.262882 -16.1667 
-40.6434 0.262882 -18.0793 -33.0154 0.262882 -18.9044 -25.3874 0.262882 -18.3008 
-17.7593 0.262882 -17.9877 -10.1313 0.262882 -21.289 -2.50323 0.262882 -19.134 
5.12481 0.262882 -21.6141 12.7529 0.262882 -21.8554 20.3809 0.262882 -19.1734 
28.0089 0.262882 -19.4106 35.637 0.262882 -19.819 43.265 0.262882 -17.9673 
-40.6434 7.89093 -17.4494 -33.0154 7.89093 -18.5773 -25.3874 7.89093 -18.2864 
-17.7593 7.89093 -17.743 -10.1313 7.89093 -20.5696 -2.50323 7.89093 -20.4512 
5.12481 7.89093 -20.1866 12.7529 7.89093 -19.1305 20.3809 7.89093 -18.8864 
28.0089 7.89093 -20.0012 35.637 7.89093 -19.9611 43.265 7.89093 -18.027 
-40.6434 15.519 -15.3505 -33.0154 15.519 -17.023 -25.3874 15.519 -17.403 
-17.7593 15.519 -17.3563 -10.1313 15.519 -18.2112 -2.50323 15.519 -19.6795 
5.12481 15.519 -19.4252 12.7529 15.519 -18.2203 20.3809 15.519 -18.6708 
28.0089 15.519 -19.2354 35.637 15.519 -18.9087 43.265 15.519 -16.8369 
-33.0154 23.147 -15.4966 -25.3874 23.147 -16.3041 -17.7593 23.147 -16.4869 
-10.1313 23.147 -16.7848 -2.50323 23.147 -17.6481 5.12481 23.147 -18.2484 
12.7529 23.147 -17.6215 20.3809 23.147 -17.336 28.0089 23.147 -17.6318 
35.637 23.147 -16.6244 5.12481 30.7751 -15.6224 12.7529 30.7751 -15.291 
-10.1313 -38.555 -15.2146 -2.50323 -41.6795 -15.2146 5.12481 -42.7531 -15.2146 
5.12481 -45.5054 -7.82347 12.7529 -42.5784 -15.2146 20.3809 -40.7357 -15.2146 
-11.224 -37.8773 -15.2146 -17.7593 -31.5402 -15.2146 -17.7593 -37.8773 -11.2068 
27.2249 -37.8773 -15.2146 28.0089 -37.402 -15.2146 28.0089 -37.8773 -14.2369 
35.637 -31.5846 -15.2146 -40.6434 -22.8886 -15.2146 -40.6434 -30.2493 -7.76458 
-33.0154 -24.6817 -15.2146 -33.0154 -30.2493 -12.3831 -20.0415 -30.2493 -15.2146 
-25.3874 -26.0175 -15.2146 -25.3874 -30.2493 -13.6602 37.0562 -30.2493 -15.2146 
43.265 -22.7932 -15.2146 -40.9609 -22.6212 -15.2146 -48.2715 -22.6212 -8.5296 
43.3742 -22.6212 -15.2146 -46.1951 -14.9932 -15.2146 -48.2715 -11.5236 -15.2146 
-48.2715 -14.9932 -13.9864 45.7526 -14.9932 -15.2146 50.8931 -14.9932 -10.072 
-49.5072 -7.36516 -15.2146 47.9975 -7.36516 -15.2146 50.8931 -7.36516 -13.0554 
-49.571 0.262882 -15.2146 -48.2715 6.24193 -15.2146 48.6805 0.262882 -15.2146 
50.8931 0.262882 -13.5158 -47.5307 7.89093 -15.2146 -48.2715 7.89093 -14.8573 
48.7075 7.89093 -15.2146 50.8931 7.89093 -13.2614 -40.9251 15.519 -15.2146 
-48.2715 15.519 -10.6122 -40.6434 15.9474 -15.2146 45.7534 15.519 -15.2146 
43.265 19.8258 -15.2146 50.8931 15.519 -10.1178 -33.8602 23.147 -15.2146 
-40.6434 23.147 -12.5468 -33.0154 23.7691 -15.2146 -25.3874 26.3086 -15.2146 
-17.7593 28.4917 -15.2146 -10.1313 28.3741 -15.2146 -2.50323 30.4258 -15.2146 
20.3809 29.4437 -15.2146 28.0089 27.7551 -15.2146 39.5914 23.147 -15.2146 
35.637 25.7449 -15.2146 43.265 23.147 -13.54 -33.0154 30.7751 -11.5106 
-25.3874 30.7751 -13.4879 -17.7593 30.7751 -14.5788 -10.1313 30.7751 -14.4095 
-0.768608 30.7751 -15.2146 -2.50323 30.7751 -15.0883 5.12481 31.4726 -15.2146 
13.7798 30.7751 -15.2146 12.7529 30.8986 -15.2146 20.3809 30.7751 -14.6831 
28.0089 30.7751 -13.2986 35.637 30.7751 -11.1021 -17.7593 38.4031 -8.90909 
-10.1313 38.4031 -9.3967 -2.50323 38.4031 -9.68126 5.12481 38.4031 -9.91012 
12.7529 38.4031 -9.44993 20.3809 38.4031 -7.9044 5.12481 -45.5662 -7.58651 
-17.7593 -40.7044 -7.58651 -10.1313 -43.3702 -7.58651 3.8564 -45.5054 -7.58651 
-2.50323 -45.1972 -7.58651 5.81138 -45.5054 -7.58651 5.12481 -45.5054 -7.2048 
12.7529 -44.8721 -7.58651 20.3809 -42.9037 -7.58651 28.0089 -39.8414 -7.58651 
-40.6434 -30.3983 -7.58651 -33.0154 -34.2722 -7.58651 -25.1347 -37.8773 -7.58651 
-25.3874 -37.7528 -7.58651 -25.3874 -37.8773 -7.25073 31.7246 -37.8773 -7.58651 
35.637 -35.5765 -7.58651 -40.8506 -30.2493 -7.58651 -48.2715 -23.5452 -7.58651 
42.2898 -30.2493 -7.58651 43.265 -29.2704 -7.58651 -49.0285 -22.6212 -7.58651 
48.6216 -22.6212 -7.58651 50.8931 -18.4005 -7.58651 -53.1075 -14.9932 -7.58651 
52.551 -14.9932 -7.58651 -54.84 -7.36516 -7.58651 -55.8995 -7.36516 0.0321217 
54.769 -7.36516 -7.58651 -55.1548 0.262882 -7.58651 -55.8995 0.262882 -3.16158 
55.1332 0.262882 -7.58651 -53.8674 7.89093 -7.58651 54.492 7.89093 -7.58651 
-50.7562 15.519 -7.58651 -48.2715 19.811 -7.58651 52.4654 15.519 -7.58651 
50.8931 18.3574 -7.58651 -45.9905 23.147 -7.58651 -48.2715 23.147 -1.42638 
-40.6434 28.8929 -7.58651 47.9408 23.147 -7.58651 43.265 28.1062 -7.58651 
-38.4259 30.7751 -7.58651 -40.6434 30.7751 -3.39337 -33.0154 34.4773 -7.58651 
-25.3874 37.9318 -7.58651 28.0089 36.2996 -7.58651 39.3153 30.7751 -7.58651 
35.637 33.0761 -7.58651 -23.3819 38.4031 -7.58651 -25.3874 38.4031 -6.59494 
-17.7593 39.4731 -7.58651 -10.1313 40.0115 -7.58651 -2.50323 40.2087 -7.58651 
5.12481 40.3129 -7.58651 12.7529 39.9256 -7.58651 21.2376 38.4031 -7.58651 
20.3809 38.6477 -7.58651 28.0089 38.4031 -2.88376 -25.3874 -39.8029 0.0415361 
-17.7593 -42.3263 0.0415361 -10.1313 -43.8782 0.0415361 -2.50323 -44.5606 0.0415361 
5.12481 -44.1933 0.0415361 12.7529 -42.8143 0.0415361 20.3809 -40.6683 0.0415361 
28.0089 -38.1593 0.0415361 -40.6434 -32.2105 0.0415361 -30.1811 -37.8773 0.0415361 
-33.0154 -36.6426 0.0415361 -25.3874 -37.8773 5.87009 20.3809 -37.8773 4.43216 
28.6033 -37.8773 0.0415361 28.0089 -37.8773 0.516223 35.637 -33.957 0.0415361 
-43.1678 -30.2493 0.0415361 -48.2715 -24.9316 0.0415361 -40.6434 -30.2493 4.69862 
41.251 -30.2493 0.0415361 35.637 -30.2493 6.20971 43.265 -28.8535 0.0415361 
-50.031 -22.6212 0.0415361 -48.2715 -22.6212 4.0432 49.2995 -22.6212 0.0415361 
50.8931 -20.0972 0.0415361 -53.9868 -14.9932 0.0415361 -55.8995 -7.37102 0.0415361 
53.5767 -14.9932 0.0415361 50.8931 -14.9932 5.77488 -55.9008 -7.36516 0.0415361 
-55.8995 -7.36516 0.0452123 55.7999 -7.36516 0.0415361 -56.3881 0.262882 0.0415361 
-55.8995 2.83575 0.0415361 -55.8995 0.262882 1.94239 56.0226 0.262882 0.0415361 
-54.9901 7.89093 0.0415361 55.0139 7.89093 0.0415361 -52.8336 15.519 0.0415361 
52.7808 15.519 0.0415361 50.8931 19.4479 0.0415361 50.8931 15.519 4.98515 
-48.7454 23.147 0.0415361 -48.2715 23.7728 0.0415361 -48.2715 23.147 2.33944 
48.8696 23.147 0.0415361 43.265 29.8457 0.0415361 -42.0994 30.7751 0.0415361 
-40.6434 32.0579 0.0415361 -40.6434 30.7751 6.58231 -33.0154 37.2099 0.0415361 
42.2967 30.7751 0.0415361 35.637 35.8474 0.0415361 -30.5325 38.4031 0.0415361 
-25.3874 40.601 0.0415361 -17.7593 42.3578 0.0415361 -10.1313 43.0949 0.0415361 
-2.50323 43.4243 0.0415361 5.12481 43.5438 0.0415361 12.7529 43.1566 0.0415361 
20.3809 41.713 0.0415361 30.5132 38.4031 0.0415361 28.0089 39.5085 0.0415361 
-17.7593 -39.3893 7.66958 -10.1313 -40.3662 7.66958 -2.50323 -40.4214 7.66958 
5.12481 -39.5522 7.66958 12.7529 -37.9103 7.66958 -33.0154 -33.7437 7.66958 
-23.0283 -37.8773 7.66958 -25.3874 -37.0495 7.66958 -17.7593 -37.8773 9.55513 
-10.1313 -37.8773 10.4361 -2.50323 -37.8773 10.4451 5.12481 -37.8773 9.51274 
12.865 -37.8773 7.66958 12.7529 -37.8773 7.70641 20.3809 -35.4329 7.66958 
28.0089 -32.5025 7.66958 -38.6439 -30.2493 7.66958 -40.6434 -28.7029 7.66958 
-33.0154 -30.2493 11.575 -25.3874 -30.2493 13.65 5.12481 -30.2493 14.9161 
12.7529 -30.2493 13.8538 20.3809 -30.2493 12.1802 33.3833 -30.2493 7.66958 
28.0089 -30.2493 9.82508 35.637 -29.0204 7.66958 43.265 -23.4959 7.66958 
-46.4342 -22.6212 7.66958 -48.2715 -19.6794 7.66958 -40.6434 -22.6212 13.169 
28.0089 -22.6212 14.1846 35.637 -22.6212 12.2287 44.1462 -22.6212 7.66958 
43.265 -22.6212 8.41224 -50.6564 -14.9932 7.66958 -48.2715 -14.9932 10.8177 
35.637 -14.9932 15.059 49.5373 -14.9932 7.66958 43.265 -14.9932 12.5561 
50.8931 -11.8335 7.66958 -53.1153 -7.36516 7.66958 -48.2715 -7.36516 14.5408 
43.265 -7.36516 14.3057 52.4524 -7.36516 7.66958 50.8931 -7.36516 9.24152 
-54.4038 0.262882 7.66958 52.7307 0.262882 7.66958 50.8931 0.262882 9.7767 
-53.2199 7.89093 7.66958 51.8827 7.89093 7.66958 50.8931 11.3663 7.66958 
50.8931 7.89093 8.85706 -51.1065 15.519 7.66958 -48.2715 21.1617 7.66958 
-48.2715 15.519 12.2219 49.7378 15.519 7.66958 43.265 15.519 14.6267 
-47.1221 23.147 7.66958 -40.6434 30.5274 7.66958 45.7808 23.147 7.66958 
43.265 26.6595 7.66958 43.265 23.147 10.7789 -40.3647 30.7751 7.66958 
-33.0154 36.009 7.66958 -33.0154 30.7751 14.7377 39.9101 30.7751 7.66958 
35.637 34.3461 7.66958 35.637 30.7751 12.81 -27.5468 38.4031 7.66958 
-25.3874 39.2653 7.66958 -25.3874 38.4031 9.30076 -17.7593 41.146 7.66958 
-17.7593 38.4031 12.1232 -10.1313 42.0712 7.66958 -10.1313 38.4031 13.3929 
-2.50323 42.559 7.66958 -2.50323 38.4031 13.9932 5.12481 42.6551 7.66958 
5.12481 38.4031 14.0724 12.7529 42.2869 7.66958 12.7529 38.4031 13.434 
[...]
POINT_DATA 518
SCALARS ImageScalars float
LOOKUP_TABLE default
0 0 0 0 0 0 0 0 0 
0 0 0 0 0 0 0 0 0 
0 0 0 0 0 0 0 0 0 
0 0 0 0 0 0 0 0 0 
0 0 0 0 0 0 0 0 0 
0 0 0 0 0 0 0 0 0 
0 0 0 0 0 0 0 0 0 
0 0 0 0 0 0 0 0 0 
0 0 0 0 0 0 0 0 0 
0 0 0 0 0 0 0 0 0 
0 0 0 0 0 0 0 0 0 
0 0 0 0 0 0 0 0 0 
0 0 0 0 0 0 0 0 0 
0 0 0 0 0 0 0 0 0 
0 0 0 0 0 0 0 0 0 
0 0 0 0 0 0 0 0 0 
0 0 0 0 0 0 0 0 0 
0 0 0 0 0 0 0 0 0 
0 0 0 0 0 0 0 0 0 
0 0 0 0 0 0 0 0 0 
0 0 0 0 0 0 0 0 0 
0 0 0 0 0 0 0 0 0 
0 0 0 0 0 0 0 0 0 
0 0 0 0 0 0 0 0 0 
0 0 0 0 0 0 0 0 0 
0 0 0 0 0 0 0 0 0 
0 0 0 0 0 0 0 0 0 
0 0 0 0 0 0 0 0 0 
0 0 0 0 0 0 0 0 0 
0 0 0 0 0 0 0 0 0 
0 0 0 0 0 0 0 0 0 
0 0 0 0 0 0 0 0 0 
0 0 0 0 0 0 0 0 0 
0 0 0 0 0 0 0 0 0 
0 0 0 0 0 0 0 0 0 
0 0 0 0 0 0 0 0 0 
0 0 0 0 0 0 0 0 0 
0 0 0 0 0 0 0 0 0 
0 0 0 0 0 0 0 0 0 
0 0 0 0 0 0 0 0 0 
0 0 0 0 0 0 0 0 0 
0 0 0 0 0 0 0 0 0 
0 0 0 0 0 0 0 0 0 
0 0 0 0 0 0 0 0 0 
0 0 0 0 0 0 0 0 0 
0 0 0 0 0 0 0 0 0 
0 0 0 0 0 0 0 0 0 
0 0 0 0 0 0 0 0 0 
0 0 0 0 0 0 0 0 0 
0 0 0 0 0 0 0 0 0 
0 0 0 0 0 0 0 0 0 
0 0 0 0 0 0 0 0 0 
0 0 0 0 0 0 0 0 0 
0 0 0 0 0 0 0 0 0 
0 0 0 0 0 0 0 0 0 
0 0 0 0 0 0 0 0 0 
0 0 0 0 0 0 0 0 0 
0 0 0 0 0 
NORMALS Normals float
0.368834 0.558078 0.743311 0.203021 0.488255 0.848757 0.0187268 0.452894 0.891368 
-0.0911147 0.476756 0.874301 -0.195146 0.605691 0.771399 0.324924 0.286595 0.90127 
0.306276 0.215693 0.927185 0.137587 0.145456 0.979751 0.014958 0.0549971 0.998374 
-0.0497713 0.116071 0.991993 -0.0712351 0.192973 0.978615 -0.250623 0.297771 0.921152 
-0.507847 0.530486 0.678732 0.307234 0.455329 0.835633 0.0654358 0.307279 0.949367 
0.0632234 0.240706 0.968537 0.199981 0.069891 0.977304 0.272229 0.0350877 0.961593 
0.0539808 0.0290499 0.998119 -0.0154213 -0.146772 0.98905 0.0522972 -0.0571985 0.996992 
-0.00507035 0.0258761 0.999652 -0.122861 0.0510633 0.991109 -0.326077 0.159442 0.9318 
-0.625483 0.317384 0.712768 0.230458 0.184964 0.955342 -0.000916791 0.190959 0.981598 
-0.0568845 0.12484 0.990545 0.104558 0.0340292 0.993936 0.288148 0.029142 0.957142 
-0.0575433 -0.00128647 0.998342 -0.0743218 -0.0252364 0.996915 0.128756 -0.00394154 0.991668 
0.0354324 -0.0865826 0.995614 -0.0912204 -0.0493469 0.994607 -0.2044 0.0112741 0.978823 
-0.47252 0.149527 0.868543 0.487977 0.11221 0.865614 0.175641 0.0242705 0.984155 
0.0240982 0.0604155 0.997882 -0.0962582 0.0422315 0.99446 0.0724512 0.0641294 0.995308 
0.264203 0.100327 0.959235 -0.00296914 -0.123616 0.992326 -0.0129965 0.158559 0.987264 
-0.0234118 0.1155 0.993032 -0.0494615 -0.118973 0.991665 -0.022446 -0.0774649 0.996742 
-0.131226 0.0151996 0.991236 -0.358971 0.0506815 0.931972 0.480464 -0.0838724 0.872995 
0.174155 -0.0397474 0.983916 0.0112156 -0.0174027 0.999786 -0.0591052 -0.00575584 0.998235 
0.164925 0.0204194 0.986095 0.102739 0.0232036 0.994438 0.00929828 -0.0371492 0.999266 
0.178074 -0.0111126 0.983954 -0.177668 -0.114106 0.977453 -0.135622 -0.0661743 0.988548 
0.0423095 -0.00207017 0.999102 -0.0914914 0.0257235 0.995474 -0.341776 0.0112974 0.939713 
0.23112 -0.157448 0.960101 0.0574498 -0.119454 0.991176 -0.0536096 -0.0585159 0.996846 
0.11879 -0.0421589 0.992024 0.190645 -0.200026 0.961064 -0.0246378 0.0295583 0.999259 
-0.0824819 -0.12391 0.988859 -0.0882898 -0.222702 0.97088 0.058912 -0.0334426 0.997703 
0.0711967 -0.00932486 0.997419 -0.129084 -0.0580652 0.989932 -0.34845 -0.0611757 0.935329 
0.319101 -0.283942 0.904186 0.118497 -0.183954 0.975766 0.0207918 -0.125878 0.991828 
0.049578 -0.0809978 0.99548 0.150255 -0.226319 0.962394 0.0756973 -0.180943 0.980576 
-0.0948995 -0.124526 0.987668 -0.0485865 -0.0952941 0.994263 0.0645697 -0.0983259 0.993057 
0.0168273 -0.150195 0.988513 -0.135537 -0.188184 0.972737 -0.417075 -0.247601 0.874495 
0.204674 -0.305757 0.92985 0.059086 -0.232441 0.970814 0.0307379 -0.169495 0.985052 
0.0722939 -0.224948 0.971685 0.0940746 -0.280974 0.955094 -0.00350565 -0.236824 0.971546 
-0.0574944 -0.173743 0.983111 -0.000792083 -0.243123 0.969995 -0.0351558 -0.33717 0.940787 
-0.225228 -0.396521 0.889968 0.0132888 -0.433957 0.900836 -0.0549419 -0.438656 0.896974 
0.369817 0.589566 0.718086 0.20893 0.736761 0.643064 0.0493909 0.792735 0.607562 
-0.0180381 0.99798 0.0609077 -0.124727 0.790803 0.599227 -0.26528 0.783339 0.562144 
0.369976 0.567065 0.735904 0.336773 0.341703 0.877396 0.365458 0.699007 0.614679 
-0.415894 0.749543 0.514994 -0.433424 0.736184 0.519786 -0.441877 0.784012 0.435969 
-0.525372 0.591061 0.612072 0.312637 0.46219 0.829842 0.49567 0.744795 0.446757 
0.110579 0.373028 0.921207 0.28584 0.606716 0.741748 0.282285 0.332569 0.899841 
0.109019 0.327103 0.938679 0.194496 0.460255 0.86622 -0.543226 0.558302 0.62706 
-0.628174 0.322825 0.707942 0.322137 0.457436 0.828843 0.708386 0.567792 0.419288 
-0.629219 0.318638 0.70891 0.469649 0.292445 0.83301 0.527481 0.230907 0.817585 
0.585019 0.341089 0.735807 -0.552526 0.19185 0.811116 -0.805944 0.333717 0.488965 
0.559612 0.115409 0.82068 -0.506239 0.117406 0.854364 -0.681698 0.149872 0.716119 
0.554017 -0.0848348 0.828171 0.523553 -0.219405 0.823258 -0.551902 0.0229831 0.833592 
-0.694711 0.0105769 0.719211 0.5021 -0.245422 0.829255 0.54015 -0.253983 0.802328 
-0.582637 -0.110107 0.805239 -0.742753 -0.134764 0.655863 0.327084 -0.288274 0.899953 
0.668159 -0.422758 0.612242 0.324633 -0.290014 0.900281 -0.518228 -0.284496 0.806537 
-0.45566 -0.392151 0.799119 -0.816617 -0.367939 0.444699 0.229031 -0.31649 0.920532 
0.476643 -0.448033 0.756358 0.211813 -0.324295 0.921937 0.102635 -0.327859 0.939135 
0.0454521 -0.317633 0.947124 0.0416471 -0.348797 0.936273 0.072721 -0.411686 0.90842 
-0.0860662 -0.422688 0.902179 -0.0971589 -0.480473 0.871611 -0.361177 -0.452913 0.81512 
-0.260801 -0.491855 0.830699 -0.51282 -0.524579 0.679583 0.349199 -0.602428 0.717733 
0.166262 -0.486062 0.857963 0.0523242 -0.396843 0.916394 0.0306541 -0.414972 0.909318 
0.0584193 -0.422584 0.904439 0.0717718 -0.419969 0.904696 0.0106913 -0.457912 0.888933 
-0.0613795 -0.442319 0.894755 -0.0552573 -0.443328 0.894655 -0.105552 -0.471639 0.875451 
-0.157224 -0.601263 0.783431 -0.376699 -0.723834 0.578068 0.111722 -0.779119 0.61684 
0.0378705 -0.741517 0.669864 0.0261393 -0.748581 0.662528 -0.0107688 -0.763442 0.645786 
-0.0920745 -0.773184 0.627462 -0.197604 -0.81009 0.552002 -0.0202123 0.99863 0.0482572 
0.341377 0.841689 0.418356 0.285616 0.922561 0.259431 0.00520981 0.998123 0.0610267 
0.134601 0.982761 0.126741 -0.0338929 0.998544 0.0419588 -0.024061 0.99925 0.0303421 
-0.175311 0.98434 -0.0184772 -0.30544 0.952187 -0.00678498 -0.423803 0.905538 0.0198145 
0.498014 0.748829 0.437308 0.388363 0.779808 0.490992 0.357358 0.809714 0.465466 
0.356993 0.80743 0.469695 0.358537 0.820445 0.445333 -0.484372 0.87404 0.0379185 
-0.559057 0.82601 0.071849 0.503212 0.746328 0.435628 0.714367 0.594566 0.369014 
-0.681981 0.714346 0.156882 -0.704298 0.687126 0.178389 0.735527 0.569759 0.366573 
-0.812979 0.507792 0.284977 -0.84794 0.416056 0.328472 0.877255 0.331059 0.347597 
-0.874237 0.346355 0.340219 0.932931 0.116912 0.340546 0.985007 0.137865 -0.103702 
-0.92823 0.164448 0.333686 0.92969 -0.0621942 0.363055 0.991658 -0.0617557 0.113142 
-0.936899 -0.0169412 0.349188 0.890297 -0.247695 0.382123 -0.937766 -0.168567 0.303611 
0.799222 -0.411908 0.437693 0.737182 -0.496828 0.457956 -0.881515 -0.370831 0.292261 
-0.846081 -0.441185 0.29917 0.68644 -0.549089 0.476762 0.811398 -0.571482 0.122646 
0.590252 -0.651662 0.476381 -0.751778 -0.577605 0.318124 -0.606598 -0.706856 0.363858 
0.541359 -0.68715 0.484515 0.637592 -0.731483 0.241678 0.416104 -0.758736 0.501175 
0.270496 -0.800203 0.535264 -0.295824 -0.801745 0.51932 -0.504601 -0.766199 0.39789 
-0.420203 -0.798641 0.430815 0.235293 -0.811186 0.535363 0.282799 -0.838155 0.466392 
0.1209 -0.822705 0.555464 0.0435182 -0.809035 0.586147 0.0178518 -0.817731 0.575323 
-0.0168054 -0.831444 0.555355 -0.0973933 -0.826406 0.554587 -0.21261 -0.817694 0.534953 
-0.199994 -0.818253 0.538948 -0.339877 -0.905776 0.253089 0.33512 0.941657 -0.0312609 
0.259854 0.963005 -0.071394 0.137635 0.976209 -0.167547 0.0206292 0.962574 -0.270232 
-0.100499 0.93453 -0.3414 -0.202849 0.897218 -0.392239 -0.275376 0.872936 -0.402679 
-0.354547 0.857623 -0.37253 0.58824 0.806507 -0.0593372 0.38859 0.920804 -0.0334403 
0.42968 0.902417 -0.0319217 0.322619 0.859135 -0.397245 -0.2641 0.794507 -0.546817 
-0.362817 0.855159 -0.370224 -0.352377 0.851242 -0.388866 -0.474725 0.817974 -0.324891 
0.646149 0.758131 -0.0879171 0.790708 0.599662 -0.123233 0.60037 0.725793 -0.335828 
-0.585749 0.760567 -0.280064 -0.428489 0.699745 -0.571624 -0.631818 0.73092 -0.257994 
0.832426 0.541622 -0.117104 0.770449 0.55045 -0.32158 -0.783515 0.5926 -0.186893 
-0.839338 0.517874 -0.165281 0.930696 0.337895 -0.140115 0.984928 0.138014 -0.104254 
-0.915497 0.380581 -0.130476 -0.771426 0.393142 -0.50034 0.984951 0.137876 -0.104221 
0.984929 0.13791 -0.104386 -0.982142 0.155539 -0.105856 0.99702 -0.0592008 -0.0494572 
0.992137 -0.115686 -0.0477578 0.989154 -0.0450003 -0.139818 -0.99075 -0.0480078 -0.126921 
0.974229 -0.221879 -0.0405969 -0.968949 -0.206027 -0.136712 0.935053 -0.354294 0.012327 
-0.921832 -0.357729 -0.149181 -0.887717 -0.441536 -0.130397 -0.866633 -0.332939 -0.371616 
0.823432 -0.565676 0.0443839 0.814146 -0.57878 0.0466826 0.823513 -0.563683 -0.063932 
-0.836073 -0.537651 -0.109148 -0.711231 -0.702314 -0.0301048 0.674782 -0.735342 0.0627773 
0.647586 -0.75934 0.0635188 0.641661 -0.724548 -0.251597 0.470419 -0.879116 0.0765523 
-0.684121 -0.729343 -0.00611542 -0.511112 -0.856606 0.0706475 0.413756 -0.907409 0.0735864 
0.304463 -0.950215 0.0662908 0.167771 -0.981534 0.0918888 0.0686585 -0.990938 0.115446 
0.0290413 -0.990975 0.130861 -0.016597 -0.990835 0.134051 -0.123412 -0.982718 0.137967 
-0.223397 -0.965139 0.136386 -0.392492 -0.914066 0.102141 -0.34346 -0.932726 0.109804 
0.18774 0.824605 -0.533649 0.0606647 0.809948 -0.583356 -0.0438352 0.791134 -0.61007 
-0.131993 0.767156 -0.627734 -0.205092 0.746368 -0.633145 0.383282 0.764795 -0.517865 
0.272778 0.809411 -0.520044 0.302487 0.796244 -0.523925 0.172034 0.764978 -0.620655 
0.0423786 0.714017 -0.698844 -0.0458361 0.701032 -0.711655 -0.130953 0.715236 -0.686504 
-0.206021 0.746015 -0.633259 -0.20508 0.74548 -0.634194 -0.25721 0.70302 -0.663027 
-0.296994 0.684496 -0.665778 0.528987 0.677223 -0.511412 0.574809 0.642283 -0.507019 
0.340816 0.637477 -0.690991 0.193963 0.551971 -0.810991 -0.0878062 0.405829 -0.909721 
-0.153747 0.465149 -0.871779 -0.214723 0.522745 -0.825004 -0.375634 0.665341 -0.645151 
-0.28169 0.611792 -0.739163 -0.403662 0.64601 -0.647864 -0.522512 0.557265 -0.64532 
0.673449 0.53787 -0.507112 0.733377 0.469881 -0.491294 0.471766 0.495629 -0.729239 
-0.173781 0.329436 -0.928047 -0.317424 0.444879 -0.837452 -0.547243 0.536946 -0.642039 
-0.515647 0.534631 -0.669535 0.80566 0.346532 -0.480445 0.712883 0.369646 -0.595953 
-0.197799 0.250372 -0.947729 -0.676603 0.382263 -0.629352 -0.444863 0.3251 -0.83451 
-0.726507 0.29546 -0.620396 0.867983 0.212441 -0.44886 0.664676 0.201485 -0.71945 
-0.393618 0.157729 -0.905641 -0.769727 0.161105 -0.61771 -0.714621 0.16637 -0.679439 
0.903492 0.00626434 -0.428559 -0.815116 -0.0315222 -0.578439 -0.753876 -0.0142283 -0.656862 
0.904439 -0.196878 -0.378457 -0.822067 -0.170878 -0.543144 -0.820696 -0.236183 -0.520264 
-0.794686 -0.159871 -0.585589 0.868038 -0.338339 -0.363368 0.8092 -0.480677 -0.337852 
0.760889 -0.326545 -0.560728 -0.809241 -0.311331 -0.498198 -0.587508 -0.21846 -0.779173 
0.778163 -0.531865 -0.334038 0.634951 -0.70933 -0.306085 -0.752897 -0.470839 -0.459845 
-0.713248 -0.55261 -0.431161 -0.687273 -0.446177 -0.573221 0.627986 -0.715556 -0.305963 
0.457112 -0.829795 -0.320139 0.389886 -0.637753 -0.664274 -0.643327 -0.665331 -0.378767 
-0.541259 -0.765099 -0.348802 -0.506211 -0.605602 -0.614 0.344248 -0.881468 -0.323276 
0.301756 -0.894757 -0.32917 0.292498 -0.867608 -0.402121 0.173042 -0.9234 -0.342622 
0.145412 -0.807924 -0.571065 0.0896581 -0.938369 -0.333804 0.0753472 -0.759187 -0.646497 
0.0375939 -0.945532 -0.32335 0.0286337 -0.717187 -0.696292 -0.0175307 -0.945742 -0.324445 
-0.0248404 -0.703995 -0.70977 -0.0994807 -0.938563 -0.330459 -0.0988041 -0.730539 -0.675686 
-0.233406 -0.917162 -0.323011 -0.209495 -0.796658 -0.566964 -0.391524 -0.865739 -0.311776 
-0.387536 -0.867879 -0.310807 -0.387162 -0.864433 -0.320719 0.0922762 0.408934 -0.907887 
0.0060539 0.376981 -0.926201 -0.0261392 0.3699 -0.928704 0.24889 0.460369 -0.852123 
0.0925995 0.409077 -0.907789 0.142534 0.471566 -0.870235 0.0921875 0.408558 -0.908065 
0.00578128 0.372514 -0.928009 -0.0386595 0.371682 -0.927555 -0.0261196 0.363143 -0.931367 
-0.0796329 0.380917 -0.921174 -0.133023 0.331444 -0.93405 -0.154294 0.247481 -0.956528 
0.308676 0.443894 -0.841235 0.434321 0.394511 -0.80977 0.232541 0.423766 -0.875412 
0.0777401 0.379747 -0.921818 -0.0182334 0.294974 -0.955331 -0.0162471 0.246383 -0.969036 
-0.00224722 0.250601 -0.968088 -0.0420841 0.287279 -0.956922 -0.11575 0.212431 -0.970296 
-0.153452 0.245597 -0.957149 -0.153016 0.238023 -0.95913 -0.117073 0.243427 -0.962828 
0.495589 0.335711 -0.801055 0.420654 0.319794 -0.848989 0.193471 0.298676 -0.934538 
0.0311285 0.253426 -0.966854 -0.0376264 0.256879 -0.965711 -0.0259979 0.32801 -0.944317 
0.0134137 0.302558 -0.953036 -0.125149 0.343392 -0.930817 -0.210009 0.165782 -0.963542 
-0.0876984 0.102178 -0.990893 -0.168836 0.233772 -0.95752 -0.0798245 0.192579 -0.978029 
-0.191923 0.236069 -0.952595 0.616483 0.195195 -0.76279 0.644464 0.081379 -0.760292 
0.375956 0.178637 -0.909256 0.167759 0.149671 -0.9744 0.0301825 0.0943421 -0.995082 
0.0406138 0.0917833 -0.99495 0.0133597 0.162387 -0.986637 0.00667402 0.0485223 -0.9988 
-0.107496 0.10133 -0.989028 -0.381861 0.291603 -0.877012 -0.123197 0.206533 -0.970653 
-0.0323667 0.199701 -0.979322 -0.287039 0.165224 -0.943562 -0.170297 0.178713 -0.969051 
-0.427401 0.0899384 -0.899577 0.647762 0.0421173 -0.760677 0.639908 0.042766 -0.76726 
0.358169 0.0397939 -0.932808 0.0946236 0.0205788 -0.9953 -0.0279102 -0.0030064 -0.999606 
0.0379801 -0.032597 -0.998747 -0.056844 -0.0411823 -0.997533 -0.0581502 -0.00395705 -0.9983 
0.121494 -0.0550606 -0.991064 -0.137018 0.148145 -0.979428 -0.169311 0.278447 -0.94541 
-0.0995698 0.209177 -0.972795 -0.224732 0.152829 -0.962361 -0.442572 0.0785653 -0.893285 
-0.433904 0.0809089 -0.897319 0.680982 -0.1243 -0.721674 0.678411 -0.138651 -0.72148 
0.673091 -0.123876 -0.729112 0.359806 -0.0954614 -0.928131 0.124214 -0.0634409 -0.990225 
-0.0227163 -0.00685584 -0.999718 0.00401516 0.0170307 -0.999847 0.0474384 -0.0126971 -0.998793 
-0.00260163 0.138621 -0.990342 0.010792 0.0276642 -0.999559 -0.0254907 -0.0675618 -0.997389 
-0.104766 0.101495 -0.989304 -0.149281 0.0956959 -0.984153 -0.290163 0.035916 -0.956303 
-0.52147 -0.047287 -0.851958 -0.536405 -0.108288 -0.836985 -0.505954 -0.0406471 -0.861602 
0.618771 -0.283138 -0.732773 0.431845 -0.221931 -0.874218 0.178311 -0.124699 -0.976041 
0.0509488 -0.0737047 -0.995978 0.0323775 -0.00679423 -0.999453 0.0571669 -0.028581 -0.997955 
-0.00410232 -0.0443335 -0.999008 -0.0843506 -0.0578583 -0.994755 -0.0370684 -0.115645 -0.992599 
-0.0324904 -0.0754535 -0.99662 -0.167486 -0.0800006 -0.982623 -0.546628 -0.199732 -0.813207 
-0.347512 -0.131826 -0.928363 0.558605 -0.437242 -0.704826 0.556366 -0.440665 -0.704465 
0.555274 -0.435686 -0.708413 0.377161 -0.608888 -0.697858 0.270506 -0.315995 -0.909381 
0.106752 -0.228245 -0.967734 0.0466094 -0.185837 -0.981474 0.0112333 -0.191065 -0.981513 
-0.0294745 -0.216868 -0.975756 -0.063524 -0.189479 -0.979828 -0.0465347 -0.182285 -0.982144 
-0.0662804 -0.220587 -0.973113 -0.197564 -0.26558 -0.943629 -0.50059 -0.321454 -0.803789 
-0.455309 -0.418656 -0.785761 -0.423195 -0.285893 -0.85975 0.358959 -0.614984 -0.702099 
0.229612 -0.636491 -0.736313 0.188715 -0.504023 -0.842821 0.105822 -0.638862 -0.762008 
0.075685 -0.46191 -0.883692 0.0580435 -0.639187 -0.766858 0.0281687 -0.418301 -0.907872 
0.0170227 -0.622592 -0.782361 -0.0122167 -0.405586 -0.913975 -0.024224 -0.60743 -0.794003 
-0.0320847 -0.382687 -0.923321 -0.0897558 -0.586545 -0.804928 -0.0617418 -0.361667 -0.930261 
-0.162335 -0.572018 -0.804017 -0.141024 -0.429972 -0.89176 -0.312686 -0.52301 -0.792898 
-0.24532 -0.543818 -0.802546 -0.228831 -0.494283 -0.838642 
