# vtk DataFile Version 4.2
vtk output
ASCII
DATASET POLYDATA
POINTS 564 float
56.4945 1.10819 -25.222 47.931 9.6717 -25.1117 56.4945 9.6717 -25.2144 
-54.8312 -24.5824 -17.4252 -46.2676 -24.5824 -20.7214 -37.7041 -24.5824 -21.8406 
-29.1406 -24.5824 -21.7899 -20.5771 -24.5824 -20.1087 -12.0136 -24.5824 -16.3973 
-54.8312 -16.0188 -21.0647 -46.2676 -16.0188 -22.8937 -37.7041 -16.0188 -23.4683 
-29.1406 -16.0188 -23.9644 -20.5771 -16.0188 -23.4747 -12.0136 -16.0188 -19.8958 
39.3675 -16.0188 -18.7236 47.931 -16.0188 -19.9019 56.4945 -16.0188 -19.9732 
65.058 -16.0188 -19.606 -63.3947 -7.45533 -18.0589 -54.8312 -7.45533 -22.6512 
-46.2676 -7.45533 -23.8933 -37.7041 -7.45533 -23.8785 -29.1406 -7.45533 -23.7563 
-20.5771 -7.45533 -23.4008 -12.0136 -7.45533 -22.1159 5.11344 -7.45533 -18.1751 
30.804 -7.45533 -18.269 39.3675 -7.45533 -21.2349 47.931 -7.45533 -22.4342 
56.4945 -0.320972 -24.8456 56.4945 -7.45533 -22.9771 65.058 -7.45533 -21.9113 
73.6216 -7.45533 -17.2365 -63.3947 1.10819 -18.4484 -54.8312 1.10819 -23.2436 
-46.2676 1.10819 -24.4574 -37.7041 1.10819 -24.1219 -29.1406 1.10819 -23.2145 
-20.5771 1.10819 -22.3631 -12.0136 1.10819 -23.6272 -3.45007 1.10819 -17.9273 
5.11344 1.10819 -18.8319 22.2405 1.10819 -18.6049 30.804 1.10819 -21.275 
39.3675 1.10819 -23.2526 53.1658 1.10819 -24.8456 47.931 6.89363 -24.8456 
47.931 1.10819 -24.295 57.3935 1.10819 -24.8456 65.058 1.10819 -22.0946 
73.6216 1.10819 -16.6384 -63.3947 9.6717 -16.6023 -54.8312 9.6717 -22.0276 
-46.2676 9.6717 -24.4904 -37.7041 9.6717 -24.4377 -29.1406 9.6717 -23.6089 
-20.5771 9.6717 -22.8855 -12.0136 9.6717 -22.7996 -3.45007 9.6717 -21.7939 
5.11344 9.6717 -20.4174 13.677 9.6717 -20.7857 22.2405 9.6717 -22.0928 
30.804 9.6717 -23.8045 43.0739 9.6717 -24.8456 39.3675 9.6717 -24.6447 
47.931 11.3205 -24.8456 57.4583 9.6717 -24.8456 56.4945 10.6957 -24.8456 
65.058 9.6717 -20.7875 -54.8312 18.2352 -19.6957 -46.2676 18.2352 -22.5974 
-37.7041 18.2352 -23.5522 -29.1406 18.2352 -23.6814 -20.5771 18.2352 -22.2042 
-12.0136 18.2352 -20.7991 -3.45007 18.2352 -20.4262 5.11344 18.2352 -19.8465 
13.677 18.2352 -21.037 22.2405 18.2352 -23.0099 30.804 18.2352 -24.6151 
39.3675 18.2352 -24.153 47.931 18.2352 -23.652 56.4945 18.2352 -21.2311 
-46.2676 26.7987 -18.2701 -37.7041 26.7987 -20.2009 -29.1406 26.7987 -20.5704 
-20.5771 26.7987 -19.4084 -12.0136 26.7987 -18.1929 -3.45007 26.7987 -17.4497 
5.11344 26.7987 -16.7284 13.677 26.7987 -17.607 22.2405 26.7987 -18.6665 
30.804 26.7987 -19.93 39.3675 26.7987 -19.4476 47.931 26.7987 -17.0948 
-54.8312 -26.0149 -16.2821 -46.2676 -31.3246 -16.2821 -46.2676 -33.1459 -13.0456 
-37.7041 -32.079 -16.2821 -37.7041 -33.1459 -14.937 -29.1406 -31.7951 -16.2821 
-29.1406 -33.1459 -14.6995 -20.5771 -30.1742 -16.2821 -20.5771 -33.1459 -13.6447 
-12.0136 -24.7758 -16.2821 -12.0136 -33.1459 -11.1008 56.4945 -33.1459 -7.80881 
-56.7098 -24.5824 -16.2821 -63.3947 -24.5824 -10.0383 -11.8212 -24.5824 -16.2821 
-3.45007 -24.5824 -11.5601 30.804 -24.5824 -10.998 39.3675 -20.9775 -16.2821 
39.3675 -24.5824 -13.7651 47.931 -21.5523 -16.2821 47.931 -24.5824 -14.5574 
56.4945 -22.7748 -16.2821 56.4945 -24.5824 -15.0263 65.058 -23.0829 -16.2821 
65.058 -24.5824 -15.0432 -63.2786 -16.0188 -16.2821 -63.3947 -15.7326 -16.2821 
-63.3947 -16.0188 -16.191 -6.70223 -16.0188 -16.2821 -3.45007 -16.0188 -14.1446 
5.11344 -9.58344 -16.2821 22.2405 -16.0188 -11.4773 33.3669 -16.0188 -16.2821 
30.804 -12.8974 -16.2821 30.804 -16.0188 -15.1078 72.8617 -16.0188 -16.2821 
73.6216 -13.8204 -16.2821 73.6216 -16.0188 -15.7228 -65.9304 -7.45533 -16.2821 
-5.29586 -7.45533 -16.2821 0.458997 -7.45533 -16.2821 -3.45007 -2.7434 -16.2821 
-3.45007 -7.45533 -14.7216 7.29593 -7.45533 -16.2821 13.677 -7.45533 -10.0128 
26.1861 -7.45533 -16.2821 22.2405 -3.81396 -16.2821 22.2405 -7.45533 -14.488 
74.7089 -7.45533 -16.2821 -66.26 1.10819 -16.2821 13.6527 1.10819 -16.2821 
5.11344 1.10819 -12.9457 13.704 1.10819 -16.2821 13.677 1.12127 -16.2821 
13.677 1.10819 -16.2716 73.9529 1.10819 -16.2821 73.6216 2.5805 -16.2821 
-63.763 9.6717 -16.2821 -63.3947 10.4186 -16.2821 71.4566 9.6717 -16.2821 
65.058 17.356 -16.2821 73.6216 9.6717 -11.4787 -59.2811 18.2352 -16.2821 
-63.3947 18.2352 -9.88521 -54.8312 23.0585 -16.2821 64.284 18.2352 -16.2821 
56.4945 23.3538 -16.2821 65.058 18.2352 -15.0271 -49.6503 26.7987 -16.2821 
-54.8312 26.7987 -10.4029 -46.2676 28.7051 -16.2821 -37.7041 31.0846 -16.2821 
-29.1406 31.788 -16.2821 -20.5771 31.4806 -16.2821 -12.0136 30.2109 -16.2821 
-3.45007 28.8827 -16.2821 5.11344 27.4954 -16.2821 13.677 28.3092 -16.2821 
22.2405 29.0129 -16.2821 30.804 29.7546 -16.2821 39.3675 29.3186 -16.2821 
49.1114 26.7987 -16.2821 47.931 27.2904 -16.2821 -37.7041 35.3622 -8.62202 
-29.1406 35.3622 -11.2553 -20.5771 35.3622 -12.3505 -12.0136 35.3622 -12.2465 
-3.45007 35.3622 -10.8847 5.11344 35.3622 -8.72064 -46.2676 -34.9112 -7.71857 
-37.7041 -37.2778 -7.71857 -29.1406 -37.6639 -7.71857 -20.5771 -37.8259 -7.71857 
-12.0136 -36.4944 -7.71857 56.4945 -33.2157 -7.71857 -63.3947 -26.1134 -7.71857 
-51.7082 -33.1459 -7.71857 -54.8312 -31.9722 -7.71857 -5.13859 -33.1459 -7.71857 
-3.45007 -31.7429 -7.71857 -3.45007 -33.1459 -6.53412 30.804 -29.2003 -7.71857 
30.804 -33.1459 -0.815683 39.3675 -31.088 -7.71857 39.3675 -33.1459 -3.62151 
56.0756 -33.1459 -7.71857 47.931 -31.6833 -7.71857 47.931 -33.1459 -2.47044 
56.6791 -33.1459 -7.71857 56.4945 -33.1459 -2.91524 65.058 -28.7739 -7.71857 
-64.8756 -24.5824 -7.71857 2.11985 -24.5824 -7.71857 5.11344 -24.5824 -5.4771 
13.677 -24.5824 -4.18745 23.7757 -24.5824 -7.71857 22.2405 -22.9257 -7.71857 
22.2405 -24.5824 -6.86652 72.5115 -24.5824 -7.71857 73.6216 -23.5696 -7.71857 
73.6216 -24.5824 -3.95725 -70.0617 -16.0188 -7.71857 3.42973 -16.0188 -7.71857 
5.11344 -10.2991 -7.71857 5.11344 -16.0188 -6.37588 14.0435 -16.0188 -7.71857 
13.677 -15.4679 -7.71857 13.677 -16.0188 -7.58897 77.5192 -16.0188 -7.71857 
-71.1935 -7.45533 -7.71857 -12.0136 -7.45533 -2.45398 -3.45007 -7.45533 -1.79028 
5.11344 -6.15213 -7.71857 79.2514 -7.45533 -7.71857 -71.3379 1.10819 -7.71857 
1.86567 1.10819 -7.71857 -3.45007 1.10819 -0.742578 8.558 1.10819 -7.71857 
5.11344 3.04347 -7.71857 5.11344 1.10819 -3.84764 77.9884 1.10819 -7.71857 
-69.1448 9.6717 -7.71857 -3.45007 9.6717 -0.294507 74.8093 9.6717 -7.71857 
73.6216 11.2819 -7.71857 -64.5599 18.2352 -7.71857 -63.3947 20.0157 -7.71857 
56.4945 25.9515 -7.71857 68.2105 18.2352 -7.71857 65.058 20.969 -7.71857 
-56.7913 26.7987 -7.71857 -54.8312 28.1315 -7.71857 -46.2676 32.9694 -7.71857 
13.677 34.6253 -7.71857 22.2405 33.2927 -7.71857 30.804 32.344 -7.71857 
39.3675 31.6336 -7.71857 54.3853 26.7987 -7.71857 47.931 29.1041 -7.71857 
-38.9303 35.3622 -7.71857 -37.7041 35.7733 -7.71857 -29.1406 37.3438 -7.71857 
-20.5771 38.4929 -7.71857 -12.0136 38.5791 -7.71857 -3.45007 37.5505 -7.71857 
9.24522 35.3622 -7.71857 5.11344 36.0276 -7.71857 13.677 35.3622 -5.20819 
-46.2676 -36.2955 0.844947 -37.7041 -38.9247 0.844947 -29.1406 -40.552 0.844947 
-20.5771 -41.6491 0.844947 -12.0136 -40.9479 0.844947 -3.45007 -37.49 0.844947 
30.804 -33.7339 0.844947 39.3675 -34.6086 0.844947 47.931 -34.0045 0.844947 
-63.3947 -26.5442 0.844947 -54.2935 -33.1459 0.844947 -54.8312 -32.8972 0.844947 
4.09496 -33.1459 0.844947 5.11344 -32.3063 0.844947 13.677 -29.7922 0.844947 
28.4797 -33.1459 0.844947 22.2405 -31.2774 0.844947 30.804 -33.1459 3.80858 
39.3675 -33.1459 5.30229 55.9814 -33.1459 0.844947 47.931 -33.1459 3.37346 
56.4945 -33.0804 0.844947 65.058 -29.2575 0.844947 73.6216 -25.2655 0.844947 
-65.2084 -24.5824 0.844947 -63.3947 -24.5824 5.43781 65.058 -24.5824 6.96829 
74.2137 -24.5824 0.844947 73.6216 -24.5824 1.87615 -70.2043 -16.0188 0.844947 
-12.0136 -9.86278 0.844947 -3.45007 -9.09018 0.844947 76.3683 -16.0188 0.844947 
73.6216 -16.0188 5.78688 -71.6679 -7.45533 0.844947 -13.9636 -7.45533 0.844947 
-12.0136 -5.05779 0.844947 -12.0136 -7.45533 3.61443 -0.157613 -7.45533 0.844947 
-3.45007 -7.45533 2.40747 78.5263 -7.45533 0.844947 73.6216 -7.45533 8.05396 
-71.7682 1.10819 0.844947 -4.08051 1.10819 0.844947 -1.43733 1.10819 0.844947 
-3.45007 1.10819 1.54516 76.7062 1.10819 0.844947 73.6216 1.10819 5.10079 
-69.5319 9.6717 0.844947 -4.13792 9.6717 0.844947 -1.14543 9.6717 0.844947 
-3.45007 10.3874 0.844947 -3.45007 9.6717 1.77428 73.8896 9.6717 0.844947 
73.6216 9.9706 0.844947 73.6216 9.6717 1.26403 -64.9989 18.2352 0.844947 
-63.3947 20.5106 0.844947 -63.3947 18.2352 6.35209 56.4945 24.4115 0.844947 
66.0443 18.2352 0.844947 65.058 19.089 0.844947 65.058 18.2352 2.27659 
-57.2663 26.7987 0.844947 -54.8312 28.5617 0.844947 -54.8312 26.7987 7.4973 
-46.2676 33.4471 0.844947 22.2405 34.6062 0.844947 30.804 32.4512 0.844947 
39.3675 30.9786 0.844947 51.0374 26.7987 0.844947 47.931 28.0545 0.844947 
47.931 26.7987 5.07757 -41.5157 35.3622 0.844947 -37.7041 36.8798 0.844947 
-37.7041 35.3622 9.1868 -29.1406 39.2222 0.844947 -20.5771 40.8195 0.844947 
-12.0136 40.9432 0.844947 -3.45007 39.738 0.844947 5.11344 38.4386 0.844947 
19.5154 35.3622 0.844947 13.677 36.9575 0.844947 -46.2676 -34.7746 9.40846 
-37.7041 -38.0344 9.40846 -29.1406 -39.8694 9.40846 -20.5771 -41.0058 9.40846 
-12.0136 -39.6635 9.40846 -3.45007 -36.2372 9.40846 -49.5243 -33.1459 9.40846 
-54.8312 -30.0119 9.40846 -46.2676 -33.1459 12.6487 -37.7041 -33.1459 17.4778 
-12.0136 -33.1459 16.6249 4.07376 -33.1459 9.40846 -3.45007 -33.1459 13.0646 
5.11344 -32.7469 9.40846 13.677 -31.2894 9.40846 22.2405 -30.4504 9.40846 
30.804 -31.716 9.40846 39.3675 -31.2399 9.40846 47.931 -30.2684 9.40846 
56.4945 -27.7751 9.40846 -61.288 -24.5824 9.40846 -63.3947 -21.7357 9.40846 
-54.8312 -24.5824 16.3091 13.677 -24.5824 16.8083 22.2405 -24.5824 14.8149 
30.804 -24.5824 15.4049 39.3675 -24.5824 14.5386 47.931 -24.5824 14.4991 
61.7648 -24.5824 9.40846 56.4945 -24.5824 11.9358 65.058 -21.4873 9.40846 
-66.8592 -16.0188 9.40846 -63.3947 -16.0188 13.6193 22.2405 -16.0188 17.7753 
[...]
POINT_DATA 564
SCALARS ImageScalars float
LOOKUP_TABLE default
0 0 0 0 0 0 0 0 0 
0 0 0 0 0 0 0 0 0 
0 0 0 0 0 0 0 0 0 
0 0 0 0 0 0 0 0 0 
0 0 0 0 0 0 0 0 0 
0 0 0 0 0 0 0 0 0 
0 0 0 0 0 0 0 0 0 
0 0 0 0 0 0 0 0 0 
0 0 0 0 0 0 0 0 0 
0 0 0 0 0 0 0 0 0 
0 0 0 0 0 0 0 0 0 
0 0 0 0 0 0 0 0 0 
0 0 0 0 0 0 0 0 0 
0 0 0 0 0 0 0 0 0 
0 0 0 0 0 0 0 0 0 
0 0 0 0 0 0 0 0 0 
0 0 0 0 0 0 0 0 0 
0 0 0 0 0 0 0 0 0 
0 0 0 0 0 0 0 0 0 
0 0 0 0 0 0 0 0 0 
0 0 0 0 0 0 0 0 0 
0 0 0 0 0 0 0 0 0 
0 0 0 0 0 0 0 0 0 
0 0 0 0 0 0 0 0 0 
0 0 0 0 0 0 0 0 0 
0 0 0 0 0 0 0 0 0 
0 0 0 0 0 0 0 0 0 
0 0 0 0 0 0 0 0 0 
0 0 0 0 0 0 0 0 0 
0 0 0 0 0 0 0 0 0 
0 0 0 0 0 0 0 0 0 
0 0 0 0 0 0 0 0 0 
0 0 0 0 0 0 0 0 0 
0 0 0 0 0 0 0 0 0 
0 0 0 0 0 0 0 0 0 
0 0 0 0 0 0 0 0 0 
0 0 0 0 0 0 0 0 0 
0 0 0 0 0 0 0 0 0 
0 0 0 0 0 0 0 0 0 
0 0 0 0 0 0 0 0 0 
0 0 0 0 0 0 0 0 0 
0 0 0 0 0 0 0 0 0 
0 0 0 0 0 0 0 0 0 
0 0 0 0 0 0 0 0 0 
0 0 0 0 0 0 0 0 0 
0 0 0 0 0 0 0 0 0 
0 0 0 0 0 0 0 0 0 
0 0 0 0 0 0 0 0 0 
0 0 0 0 0 0 0 0 0 
0 0 0 0 0 0 0 0 0 
0 0 0 0 0 0 0 0 0 
0 0 0 0 0 0 0 0 0 
0 0 0 0 0 0 0 0 0 
0 0 0 0 0 0 0 0 0 
0 0 0 0 0 0 0 0 0 
0 0 0 0 0 0 0 0 0 
0 0 0 0 0 0 0 0 0 
0 0 0 0 0 0 0 0 0 
0 0 0 0 0 0 0 0 0 
0 0 0 0 0 0 0 0 0 
0 0 0 0 0 0 0 0 0 
0 0 0 0 0 0 0 0 0 
0 0 0 0 0 0 
NORMALS Normals float
-0.147133 0.12778 0.980828 0.0343286 -0.0313081 0.99892 -0.199936 -0.193702 0.960471 
0.412816 0.520473 0.747456 0.224273 0.405103 0.886337 0.0532225 0.401477 0.914321 
-0.0891338 0.415412 0.905256 -0.258713 0.464334 0.847031 -0.424681 0.402681 0.81086 
0.304635 0.270968 0.913112 0.126344 0.161828 0.978698 0.0602441 0.107171 0.992414 
0.00181663 0.103763 0.9946 -0.196382 0.163252 0.966842 -0.472121 0.268384 0.839685 
0.229743 0.349469 0.908344 0.0739156 0.424321 0.90249 -0.0122292 0.378327 0.925591 
-0.240995 0.3665 0.898665 0.551946 0.0919499 0.828795 0.305381 0.105523 0.946365 
0.0639193 0.0904114 0.993851 -0.00795511 0.0379051 0.99925 -0.0279374 -0.0436737 0.998655 
-0.082205 -0.0643561 0.994535 -0.396394 0.198946 0.896266 -0.238393 0.604803 0.759857 
0.334216 0.307201 0.891026 0.224546 0.259601 0.939248 0.099525 0.241268 0.965342 
-0.133657 0.160785 0.977898 -0.0385159 0.292151 0.955596 -0.25059 0.108483 0.961996 
-0.669755 0.0460747 0.741151 0.577296 -0.0703957 0.813495 0.313233 -0.0304149 0.949189 
0.0425415 0.0347087 0.998492 -0.0715913 0.032382 0.996908 -0.102208 -0.00860543 0.994726 
0.0204637 -0.0301536 0.999336 -0.151126 0.0261499 0.988169 -0.347776 0.461955 0.815873 
-0.216833 0.320092 0.922239 0.253618 0.40422 0.878797 0.251469 0.299366 0.920404 
0.167339 0.198384 0.965734 -0.0456187 0.139718 0.98914 0.060164 0.0264389 0.997838 
0.107064 0.148048 0.983168 -0.172489 0.117334 0.977998 -0.378482 -0.047506 0.924389 
-0.761473 -0.116057 0.637723 0.640598 -0.274651 0.717078 0.386912 -0.175252 0.90531 
0.124928 -0.115334 0.985439 -0.0516213 -0.0351417 0.998048 -0.0897166 0.0268889 0.995604 
-0.0472833 -0.00784837 0.998851 -0.0626238 -0.162045 0.984794 -0.146231 0.075707 0.986349 
-0.0571371 0.0521476 0.997003 0.097455 0.229931 0.968315 0.172324 0.24059 0.955207 
0.146079 0.175886 0.973512 0.0568354 0.0139864 0.998286 0.0728039 0.049458 0.996119 
0.00242474 -0.0790889 0.996865 -0.232572 -0.20111 0.951559 -0.219968 -0.230183 0.947961 
-0.512902 -0.329225 0.792807 0.472282 -0.391286 0.789838 0.201603 -0.290937 0.93526 
0.0628665 -0.204153 0.976918 -0.0783568 -0.15466 0.984856 -0.161642 -0.195394 0.967312 
-0.0993162 -0.249788 0.963194 -0.054465 -0.239678 0.969324 0.0325812 -0.198677 0.979523 
0.179557 -0.154748 0.9715 0.198343 -0.139003 0.970226 0.0657953 -0.149389 0.986587 
-0.0526249 -0.223968 0.973175 -0.156721 -0.313363 0.936612 -0.383834 -0.545357 0.745156 
0.307587 -0.648682 0.696134 0.110371 -0.575121 0.810589 -0.0480225 -0.499842 0.864784 
-0.122132 -0.445571 0.886877 -0.10747 -0.391913 0.913704 -0.0776718 -0.422941 0.902822 
0.00361516 -0.471376 0.881925 0.0974965 -0.568509 0.816879 0.110202 -0.663225 0.740262 
0.0384725 -0.712807 0.700305 -0.105601 -0.748864 0.654256 -0.303108 -0.848164 0.434447 
0.431537 0.5659 0.702519 0.245049 0.726289 0.642227 0.255078 0.857288 0.447205 
0.0124882 0.731608 0.681612 0.0258284 0.787531 0.615733 -0.067585 0.726442 0.683896 
-0.0484654 0.784112 0.618724 -0.213652 0.611237 0.762064 -0.150308 0.708334 0.689688 
-0.422616 0.406264 0.810151 -0.29076 0.625222 0.724263 -0.118325 0.896568 0.426807 
0.468736 0.5321 0.705093 0.684986 0.621045 0.380915 -0.426623 0.400637 0.810853 
-0.511055 0.337091 0.790692 0.303809 0.504142 0.808419 0.194943 0.49483 0.846842 
0.18423 0.620587 0.762188 0.0534566 0.450602 0.891123 0.0532463 0.502095 0.863172 
0.0479104 0.579925 0.81326 0.0293761 0.648505 0.760644 -0.195039 0.634393 0.748001 
-0.218309 0.706326 0.673383 0.609425 0.328313 0.721672 0.611358 0.321484 0.723111 
0.615364 0.329886 0.715892 -0.490148 0.206656 0.846787 -0.5248 0.160233 0.836008 
-0.352779 0.703263 0.617226 0.396019 0.371047 0.839937 0.299046 0.365897 0.881301 
0.33767 0.345205 0.875678 0.345401 0.372744 0.861255 -0.58579 0.285414 0.758544 
-0.633271 0.208733 0.745251 -0.635437 0.283034 0.718409 0.646656 0.107433 0.755178 
-0.313099 0.224389 0.922832 -0.285756 0.419857 0.861431 -0.3053 0.373534 0.875936 
-0.388378 0.213448 0.896439 -0.310574 0.689311 0.654518 0.213113 0.438943 0.872876 
0.370629 0.317428 0.872854 0.338289 0.372805 0.864047 0.405864 0.332838 0.851172 
-0.695187 0.0354306 0.717955 0.678748 -0.0977341 0.727839 -0.0160509 0.589877 0.807334 
-0.135067 0.945116 0.297511 -0.0148816 0.589278 0.807793 -0.0156833 0.589281 0.807776 
-0.0148338 0.58986 0.807369 -0.771035 -0.119777 0.625426 -0.76951 -0.167948 0.616155 
0.651945 -0.280697 0.704398 0.652327 -0.292281 0.699315 -0.703012 -0.429174 0.567084 
-0.603614 -0.58178 0.545144 -0.819131 -0.500635 0.279981 0.64185 -0.426077 0.637563 
0.802046 -0.50217 0.323339 0.521451 -0.579966 0.625883 -0.594889 -0.599947 0.53495 
-0.436366 -0.757096 0.4862 -0.62071 -0.628081 0.469289 0.390644 -0.697492 0.600752 
0.54135 -0.775568 0.324708 0.321925 -0.731734 0.600775 0.147785 -0.744495 0.651066 
0.0197253 -0.71809 0.69567 -0.0514206 -0.610232 0.790552 -0.0892994 -0.504418 0.85883 
-0.0878459 -0.48899 0.867855 -0.00760469 -0.495082 0.868813 0.0641642 -0.634987 0.769853 
0.0713103 -0.771259 0.632514 0.013212 -0.861354 0.507833 -0.139145 -0.864181 0.483559 
-0.323457 -0.859078 0.396687 -0.304924 -0.869035 0.389615 0.236212 -0.921372 0.308671 
0.10559 -0.874564 0.473275 0.029998 -0.794436 0.606607 -0.0562267 -0.76089 0.64644 
-0.135184 -0.800606 0.583742 -0.151829 -0.859667 0.487771 0.25869 0.938093 0.230348 
0.148103 0.928378 0.340851 0.0286194 0.901411 0.432018 -0.0516338 0.843726 0.534285 
-0.241844 0.7388 0.629036 -0.118043 0.900105 0.419376 0.675836 0.684532 0.273242 
0.384843 0.885841 0.259192 0.46804 0.835335 0.288363 -0.449464 0.591953 0.66901 
-0.497596 0.536348 0.681711 -0.500405 0.611972 0.612442 0.270148 0.687753 0.673807 
0.19753 0.964229 0.17676 0.10426 0.792799 0.600499 0.0433483 0.951843 0.303507 
-0.107532 0.901372 0.419483 0.0888377 0.90226 0.421941 -0.0237543 0.994068 0.106138 
-0.126043 0.898977 0.419467 -0.193448 0.980112 0.0442528 -0.453017 0.845223 0.283504 
0.728224 0.628061 0.274279 -0.445701 0.313949 0.838324 -0.398486 0.361066 0.843114 
0.0679081 0.608765 0.790439 0.332589 0.503623 0.797338 0.351593 0.472662 0.808067 
0.34417 0.535736 0.77106 -0.640789 0.719702 0.267243 -0.692988 0.675431 0.252111 
-0.735306 0.676198 0.0456253 0.9069 0.334829 0.255777 -0.472949 0.174453 0.863647 
-0.629728 -0.104231 0.769791 -0.394528 0.143882 0.907549 0.248516 0.27547 0.928631 
0.247627 0.276057 0.928695 0.242756 0.272111 0.931142 -0.912363 0.370833 0.173424 
0.970836 0.0613944 0.231748 -0.99135 0.0450012 -0.123291 0.43378 -0.827158 0.357273 
-0.820466 -0.0386474 0.570387 -0.991709 0.01138 0.128003 0.965755 -0.111298 0.23437 
-0.545008 0.837808 0.0323036 -0.874651 0.117782 0.470226 0.354248 0.837694 0.415665 
-0.0397586 0.989018 0.142346 0.443704 0.596211 0.669073 -0.967399 -0.222363 0.121215 
0.911078 -0.330205 0.246783 -0.58803 0.805556 0.0728075 -0.845401 -0.525549 0.0953662 
-0.83192 -0.548426 0.0844892 0.819852 -0.521318 0.23679 0.794405 -0.56251 0.229136 
-0.456124 -0.888476 0.0506128 -0.707032 -0.703934 0.0676922 -0.597975 -0.799491 0.0569091 
0.589785 -0.779222 0.212053 0.551898 -0.805593 0.215473 0.372528 -0.900453 0.224513 
-0.146513 -0.902817 0.404296 -0.122193 -0.954188 0.27312 -0.0938199 -0.986622 0.133324 
-0.186253 -0.978654 0.0868709 -0.412856 -0.909581 0.0470321 -0.289628 -0.956292 0.0402744 
0.260597 -0.927976 0.266363 0.243472 -0.930284 0.274395 0.146256 -0.922379 0.357528 
0.0678879 -0.901479 0.427465 -0.051436 -0.894654 0.44379 -0.141739 -0.887554 0.438359 
-0.154909 -0.892246 0.424147 -0.158106 -0.881077 0.445763 -0.17378 -0.933085 0.314887 
0.307463 0.951542 -0.005809 0.231904 0.971962 0.038871 0.158565 0.980276 0.117969 
0.0225253 0.987857 0.153722 -0.222512 0.964931 0.139273 -0.460982 0.873957 0.153935 
0.179684 0.980582 0.0785608 0.0157531 0.999869 0.00367875 -0.0881544 0.995479 -0.0353609 
0.703351 0.697609 -0.136526 0.498728 0.862605 -0.0847548 0.512999 0.853591 -0.0906284 
-0.440173 0.833032 0.335121 -0.429043 0.817412 0.384396 -0.0212531 0.865465 0.500518 
0.183547 0.976542 0.112584 0.216592 0.946782 0.238099 0.140403 0.985982 -0.0901446 
-0.0224762 0.95678 -0.289943 -0.221449 0.94945 -0.222498 -0.114011 0.981361 -0.154702 
-0.230976 0.944414 -0.233951 -0.446454 0.861595 -0.241522 -0.746803 0.616439 -0.249577 
0.76849 0.624584 -0.13899 0.7152 0.62008 -0.322474 -0.456564 0.673139 -0.58175 
-0.780872 0.571364 -0.252552 -0.746474 0.583711 -0.319464 0.920064 0.359232 -0.156319 
-0.955334 -0.261834 0.137038 0.451905 -0.809527 0.374764 -0.907524 0.260824 -0.329198 
-0.803779 0.223495 -0.551352 0.988522 0.0819129 -0.126945 -0.995819 0.0212915 0.0888316 
-0.945754 0.296732 0.132284 -0.941013 0.0694844 0.331158 0.67656 -0.536504 0.504411 
0.613511 -0.665204 0.425568 -0.938387 0.0164 -0.345196 -0.780768 -0.041853 -0.623417 
0.986604 -0.122885 -0.107291 -0.823896 0.169556 0.540783 -0.547679 0.0632541 0.834294 
-0.792411 0.066107 0.606395 -0.895866 -0.22255 -0.384571 -0.8221 -0.203838 -0.531603 
0.935691 -0.336899 -0.104796 -0.637211 0.762213 0.113992 -0.348621 0.925872 0.145688 
-0.573412 0.810272 0.121069 -0.592925 0.790476 0.153585 -0.795202 -0.517014 -0.316781 
-0.792936 -0.521224 -0.31556 -0.792221 -0.510826 -0.333829 0.82898 -0.551293 -0.0941771 
0.79464 -0.598458 -0.101957 0.79685 -0.540005 -0.270971 -0.468605 -0.841552 -0.2687 
-0.634875 -0.695668 -0.336125 -0.610657 -0.719314 -0.331187 -0.62165 -0.685253 -0.379447 
0.620311 -0.778734 -0.0937423 0.570636 -0.816791 -0.0850121 0.569441 -0.768254 -0.292443 
0.412784 -0.908319 -0.0675724 -0.254466 -0.965431 0.0564868 -0.204364 -0.974569 -0.0919273 
-0.237278 -0.954561 -0.180311 -0.375872 -0.901042 -0.216435 -0.326877 -0.925345 -0.192062 
-0.349497 -0.881755 -0.316797 0.358899 -0.9325 -0.0404459 0.321053 -0.946807 -0.0219405 
0.36021 -0.881354 -0.30572 0.225324 -0.97292 0.0515397 0.0972958 -0.991243 0.0892823 
-0.0623303 -0.993744 0.0926711 -0.144599 -0.986645 0.074985 -0.159041 -0.982065 0.101263 
-0.243127 -0.966709 0.0797705 -0.216872 -0.968642 0.121244 0.393132 0.866641 -0.307212 
0.276906 0.918203 -0.283241 0.160678 0.953673 -0.254343 0.00203519 0.951826 -0.306632 
-0.250122 0.883542 -0.395971 -0.370762 0.837514 -0.401379 0.444859 0.827101 -0.343518 
0.533826 0.736655 -0.415173 0.402089 0.802985 -0.439931 0.238848 0.6893 -0.683971 
-0.267741 0.585916 -0.764864 -0.260463 0.922103 -0.286156 -0.307785 0.721561 -0.620176 
-0.246497 0.932103 -0.265375 -0.127776 0.963103 -0.236868 0.0181886 0.899758 -0.43601 
0.042527 0.882736 -0.467941 -0.0653868 0.792554 -0.606286 -0.171735 0.787068 -0.592479 
-0.308528 0.646737 -0.697525 0.655549 0.595129 -0.46484 0.70663 0.513982 -0.48631 
0.512829 0.527924 -0.67698 -0.197865 0.481921 -0.853582 -0.0681313 0.543306 -0.836766 
-0.0170534 0.453838 -0.890921 -0.0499362 0.52873 -0.84732 -0.143974 0.469515 -0.871107 
-0.39624 0.588094 -0.705081 -0.291496 0.549696 -0.782856 -0.444817 0.50145 -0.742082 
0.807231 0.346348 -0.477935 0.690765 0.364872 -0.624269 -0.0259756 0.247592 -0.968516 
-0.0962422 0.294399 -0.950824 -0.290288 0.345896 -0.892238 -0.602103 0.279188 -0.748015 
-0.44041 0.310887 -0.842252 0.887215 0.118727 -0.445817 0.652507 0.158316 -0.741061 
-0.731483 -0.0352052 -0.68095 -0.462206 0.092453 -0.88194 0.902038 -0.0954786 -0.420965 
0.651649 -0.0604763 -0.756106 -0.695864 -0.192081 -0.69201 -0.54702 -0.15874 -0.821931 
0.857892 -0.320195 -0.401865 0.784321 -0.488735 -0.382072 0.727485 -0.304653 -0.614778 
-0.39971 -0.297355 -0.867071 -0.625567 -0.435395 -0.647378 -0.60249 -0.488737 -0.630985 
-0.585032 -0.422108 -0.692504 0.75823 -0.53163 -0.377436 0.567097 -0.741758 -0.358044 
-0.363835 -0.794028 -0.486974 -0.315562 -0.521203 -0.792949 -0.538768 -0.622579 -0.567559 
-0.485846 -0.683408 -0.544892 -0.472659 -0.608189 -0.63773 0.551721 -0.754498 -0.355439 
0.429141 -0.835172 -0.343986 0.401196 -0.663375 -0.631645 0.360827 -0.878321 -0.313617 
-0.339398 -0.91515 -0.217508 -0.326753 -0.879544 -0.345882 -0.334112 -0.665528 -0.667415 
-0.315072 -0.831657 -0.457249 -0.272307 -0.848205 -0.45431 -0.283698 -0.802937 -0.524221 
0.359578 -0.879123 -0.312804 0.259189 -0.926243 -0.273669 0.266094 -0.802966 -0.533328 
0.11543 -0.962122 -0.246976 -0.0664899 -0.968497 -0.239983 -0.135904 -0.961754 -0.237822 
-0.102201 -0.800262 -0.590878 -0.118998 -0.969839 -0.212723 -0.0958064 -0.869886 -0.48386 
-0.282756 -0.940228 -0.189792 -0.20899 -0.961831 -0.176648 -0.204113 -0.911422 -0.35728 
0.0795811 0.702817 -0.706905 -0.134531 0.628005 -0.766493 0.358285 0.569425 -0.739856 
0.209599 0.671868 -0.710395 0.232704 0.660963 -0.713426 0.0677297 0.615694 -0.785069 
-0.199282 0.573842 -0.794351 -0.143158 0.575908 -0.804882 -0.264373 0.484128 -0.834102 
-0.146405 0.348573 -0.925777 -0.088492 0.500808 -0.861023 0.443356 0.481554 -0.756004 
0.488358 0.422158 -0.763733 0.321147 0.424819 -0.8464 0.173166 0.353631 -0.919216 
-0.00147321 0.269899 -0.962887 -0.156039 0.265105 -0.95151 -0.262149 0.282229 -0.922835 
-0.13165 0.312048 -0.940901 -0.115123 0.465294 -0.877638 -0.0828734 0.475444 -0.875834 
-0.198215 0.313903 -0.928534 0.0208528 0.300865 -0.953439 -0.0426163 0.346411 -0.937114 
0.525448 0.308829 -0.792798 0.437436 0.286516 -0.852384 0.239606 0.246817 -0.938973 
0.0875521 0.145808 -0.985431 -0.0229874 0.0896761 -0.995706 -0.149472 0.0716999 -0.986163 
-0.247439 0.196305 -0.948809 -0.0692356 0.205315 -0.976244 -0.0382709 0.220627 -0.974607 
-0.0514368 0.236413 -0.97029 -0.197035 0.193731 -0.961065 -0.0114785 0.25277 -0.967458 
-0.0203687 0.23627 -0.971474 0.0327802 0.278761 -0.959801 -0.0784413 0.305994 -0.948797 
-0.0417333 0.329727 -0.943153 -0.096737 0.285586 -0.953458 -0.302189 0.191127 -0.933891 
0.583766 0.159542 -0.796093 0.41955 0.117898 -0.900043 0.170301 0.133959 -0.976244 
0.0107922 0.0785365 -0.996853 -0.0841593 0.00915748 -0.99641 -0.054523 -0.00432724 -0.998503 
-0.0910565 0.255666 -0.962468 -0.102271 0.335347 -0.936527 -0.0838878 0.277278 -0.95712 
-0.190934 0.289633 -0.9379 -0.00220392 0.170495 -0.985356 0.07664 0.158049 -0.984453 
-0.000499146 0.191706 -0.981452 -0.126595 0.163438 -0.978397 -0.335759 0.0915893 -0.937485 
-0.310663 0.092221 -0.946036 0.641288 -0.0588877 -0.765038 0.402281 -0.0239706 -0.915203 
0.192156 -0.019115 -0.981178 -0.0323413 -0.0216727 -0.999242 -0.10887 -0.0228723 -0.993793 
0.0932106 0.0168315 -0.995504 -0.0620041 0.13178 -0.989338 -0.0368517 0.171289 -0.984531 
-0.311501 0.242598 -0.918756 -0.154545 0.119149 -0.980775 0.0597752 0.0574766 -0.996556 
-0.030351 0.0151574 -0.999424 -0.192691 -0.0330511 -0.980703 -0.372772 -0.0889996 -0.923645 
-0.370236 -0.138666 -0.91853 -0.360606 -0.0867231 -0.928678 0.597623 -0.270231 -0.754866 
0.447587 -0.207979 -0.869719 0.170971 -0.19556 -0.965673 0.0103967 -0.146963 -0.989087 
-0.0439315 -0.0701092 -0.996571 0.0696014 0.0145886 -0.997468 0.0335284 -0.0728841 -0.996777 
-0.0301053 -0.0306229 -0.999078 0.0231314 -0.0228285 -0.999472 -0.251051 0.0235577 -0.967687 
-0.204927 0.0588639 -0.977006 -0.0272629 -0.060511 -0.997795 -0.0896179 -0.18641 -0.978376 
-0.335551 -0.283336 -0.898402 -0.256785 -0.376422 -0.890151 -0.221762 -0.259403 -0.939964 
0.518506 -0.457411 -0.722444 0.513781 -0.463795 -0.72175 0.510652 -0.455878 -0.728979 
0.382304 -0.602317 -0.700755 0.274392 -0.366566 -0.88901 0.088981 -0.258475 -0.961911 
0.0509724 -0.170255 -0.984081 0.094701 -0.0748276 -0.99269 0.0276525 -0.0992178 -0.994681 
-0.0120374 -0.0833214 -0.99645 0.0147605 -0.122945 -0.992304 -0.200445 -0.120356 -0.972284 
-0.285606 -0.103699 -0.95272 -0.285051 -0.493037 -0.821986 -0.185534 -0.254811 -0.949025 
-0.244517 -0.420999 -0.873482 -0.242708 -0.428953 -0.87011 -0.232242 -0.405144 -0.884264 
0.356418 -0.622992 -0.69631 0.285772 -0.648432 -0.705599 0.240549 -0.539363 -0.806984 
0.235305 -0.649077 -0.723416 0.155913 -0.378204 -0.912498 0.136882 -0.298441 -0.944561 
0.0213764 -0.304397 -0.952305 -0.0985538 -0.778074 -0.620393 -0.0523927 -0.343132 -0.937825 
-0.0809208 -0.781649 -0.618447 -0.0248404 -0.393816 -0.918853 -0.209074 -0.763279 -0.611304 
-0.202984 -0.429891 -0.879768 -0.342651 -0.540103 -0.768686 -0.366753 -0.554592 -0.74694 
-0.362175 -0.456411 -0.812723 0.159884 -0.718289 -0.677125 0.136599 -0.724186 -0.67594 
0.137444 -0.706576 -0.694161 -0.0858345 -0.782939 -0.616149 -0.0363064 -0.776548 -0.629011 
-0.0301632 -0.741256 -0.670545 0.0621616 0.117323 -0.991146 0.0786724 0.0928622 -0.992566 
0.0508394 0.105472 -0.993122 0.0606402 0.0323606 -0.997635 0.0778038 0.0996504 -0.991976 

