# vtk DataFile Version 4.2
vtk output
ASCII
DATASET POLYDATA
POINTS 558 float
-31.6833 -15.2178 -18.7533 30.4855 -15.2178 -19.095 -31.6833 -38.5311 -10.9819 
-23.9122 -38.5311 -13.7388 -16.1411 -38.5311 -14.8077 -8.37001 -38.5311 -15.3909 
-0.598906 -38.5311 -15.1515 7.1722 -38.5311 -14.3801 14.9433 -38.5311 -13.7087 
22.7144 -38.5311 -11.8569 -39.4544 -30.76 -14.0063 -31.6833 -30.76 -16.074 
-23.9122 -30.76 -16.9068 -16.1411 -30.76 -17.2733 -8.37001 -30.76 -17.5198 
-0.598906 -30.76 -17.4795 7.1722 -30.76 -16.9671 14.9433 -30.76 -16.3257 
22.7144 -30.76 -16.7547 30.4855 -30.76 -15.1712 38.2566 -30.76 -13.8145 
46.0277 -30.76 -11.1954 -47.2255 -22.9889 -13.958 -39.4544 -22.9889 -16.6996 
-31.6833 -15.2259 -18.7523 -31.6833 -22.9889 -17.7707 -23.9122 -22.9889 -18.5312 
-16.1411 -22.9889 -17.4641 -8.37001 -22.9889 -17.1958 -0.598906 -22.9889 -16.7126 
7.1722 -22.9889 -16.8608 14.9433 -22.9889 -16.9141 22.7144 -22.9889 -17.8089 
30.4855 -17.1267 -18.7523 30.4855 -22.9889 -17.6821 38.2566 -22.9889 -17.702 
46.0277 -22.9889 -15.816 53.7988 -22.9889 -12.8434 -54.9966 -15.2178 -12.2095 
-47.2255 -15.2178 -15.9621 -31.7962 -15.2178 -18.7523 -39.4544 -15.2178 -18.6789 
-31.6729 -15.2178 -18.7523 -31.6833 -15.2036 -18.7523 -23.9122 -15.2178 -18.0027 
-16.1411 -15.2178 -16.7363 -8.37001 -15.2178 -15.4664 -0.598906 -15.2178 -15.836 
7.1722 -15.2178 -15.817 14.9433 -15.2178 -16.4467 28.5164 -15.2178 -18.7523 
22.7144 -15.2178 -17.7444 35.0052 -15.2178 -18.7523 30.4855 -12.9895 -18.7523 
38.2566 -15.2178 -18.5058 46.0277 -15.2178 -18.1373 53.7988 -15.2178 -15.679 
-54.9966 -7.44666 -13.4124 -47.2255 -7.44666 -16.7869 -39.4544 -7.44666 -18.1776 
-31.6833 -7.44666 -18.2017 -23.9122 -7.44666 -17.5 -16.1411 -7.44666 -15.7403 
-8.37001 -7.44666 -15.8039 -0.598906 -7.44666 -16.5764 7.1722 -7.44666 -16.2431 
14.9433 -7.44666 -15.6836 22.7144 -7.44666 -16.861 30.4855 -7.44666 -17.8952 
38.2566 -7.44666 -18.4259 46.0277 -7.44666 -18.406 53.7988 -7.44666 -18.5253 
61.5699 -7.44666 -13.4217 -54.9966 0.324446 -14.4496 -47.2255 0.324446 -17.0434 
-39.4544 0.324446 -17.905 -31.6833 0.324446 -17.4782 -23.9122 0.324446 -16.3392 
-16.1411 0.324446 -13.9859 -8.37001 0.324446 -16.1339 7.1722 0.324446 -17.111 
14.9433 0.324446 -15.7357 22.7144 0.324446 -15.5442 30.4855 0.324446 -17.0836 
38.2566 0.324446 -17.2676 46.0277 0.324446 -17.039 53.7988 0.324446 -16.2371 
61.5699 0.324446 -12.1765 -54.9966 8.09555 -13.4558 -47.2255 8.09555 -16.2699 
-39.4544 8.09555 -17.4291 -31.6833 8.09555 -17.0365 -23.9122 8.09555 -15.4255 
-16.1411 8.09555 -13.1446 -8.37001 8.09555 -14.691 -0.598906 8.09555 -15.3423 
7.1722 8.09555 -15.5022 14.9433 8.09555 -15.0619 22.7144 8.09555 -15.2571 
30.4855 8.09555 -15.9923 38.2566 8.09555 -16.8322 46.0277 8.09555 -15.6113 
53.7988 8.09555 -13.9606 -54.9966 15.8667 -12.7808 -47.2255 15.8667 -15.2415 
-39.4544 15.8667 -16.8211 -31.6833 15.8667 -16.1832 -23.9122 15.8667 -15.4643 
-16.1411 15.8667 -13.8822 -8.37001 15.8667 -13.7982 -0.598906 15.8667 -14.1724 
7.1722 15.8667 -14.0335 14.9433 15.8667 -15.1753 22.7144 15.8667 -15.4726 
30.4855 15.8667 -15.5205 38.2566 15.8667 -15.476 46.0277 15.8667 -15.5763 
53.7988 15.8667 -11.3644 -47.2255 23.6378 -12.6254 -39.4544 23.6378 -15.147 
-31.6833 23.6378 -15.2829 -23.9122 23.6378 -14.7506 -16.1411 23.6378 -14.2332 
-8.37001 23.6378 -14.1167 -0.598906 23.6378 -14.3733 7.1722 23.6378 -14.2752 
14.9433 23.6378 -14.9789 22.7144 23.6378 -14.9562 30.4855 23.6378 -14.9592 
38.2566 23.6378 -14.2001 46.0277 23.6378 -11.4329 -39.4544 31.4089 -11.3769 
-31.6833 31.4089 -13.4005 -23.9122 31.4089 -13.2077 -16.1411 31.4089 -13.4397 
-8.37001 31.4089 -13.6961 -0.598906 31.4089 -14.0283 7.1722 31.4089 -13.7896 
14.9433 31.4089 -13.2412 22.7144 31.4089 -12.9732 30.4855 31.4089 -12.0316 
-8.37001 39.18 -11.1202 -0.598906 39.18 -11.2848 -31.6833 -38.5316 -10.9812 
-23.9122 -41.5576 -10.9812 -16.1411 -43.1727 -10.9812 -8.37001 -43.5598 -10.9812 
-8.37001 -46.3022 -4.25559 -0.598906 -43.3062 -10.9812 -0.598906 -46.3022 -3.24089 
7.1722 -42.4258 -10.9812 14.9433 -41.8408 -10.9812 22.7144 -39.5139 -10.9812 
-31.6846 -38.5311 -10.9812 -39.4544 -34.1689 -10.9812 25.6394 -38.5311 -10.9812 
30.4855 -36.5595 -10.9812 30.4855 -38.5311 -7.61027 38.2566 -34.0201 -10.9812 
46.0277 -30.9491 -10.9812 -44.3874 -30.76 -10.9812 -47.2255 -28.013 -10.9812 
-47.2255 -30.76 -8.02617 46.3473 -30.76 -10.9812 53.7988 -25.2601 -10.9812 
-51.3509 -22.9889 -10.9812 -54.9966 -17.951 -10.9812 -54.9966 -22.9889 -6.5968 
56.09 -22.9889 -10.9812 -56.3218 -15.2178 -10.9812 60.8509 -15.2178 -10.9812 
61.5699 -14.0873 -10.9812 61.5699 -15.2178 -9.89226 -57.7546 -7.44666 -10.9812 
-0.598906 -0.226161 -10.9812 64.1819 -7.44666 -10.9812 -59.4604 0.324446 -10.9812 
-62.7677 0.324446 -5.60672 -1.53641 0.324446 -10.9812 0.0510472 0.324446 -10.9812 
-0.598906 1.1347 -10.9812 -0.598906 0.324446 -10.4275 62.93 0.324446 -10.9812 
61.5699 5.42924 -10.9812 -57.9172 8.09555 -10.9812 60.0683 8.09555 -10.9812 
61.5699 8.09555 -9.88684 -57.1283 15.8667 -10.9812 -54.9966 19.8787 -10.9812 
54.4654 15.8667 -10.9812 53.7988 16.9662 -10.9812 61.5699 15.8667 -4.57546 
-50.6554 23.6378 -10.9812 -54.9966 23.6378 -6.28198 -47.2255 27.4097 -10.9812 
38.2566 29.9423 -10.9812 47.2313 23.6378 -10.9812 46.0277 24.5776 -10.9812 
53.7988 23.6378 -7.50334 -40.9169 31.4089 -10.9812 -47.2255 31.4089 -7.4083 
-39.4544 32.0599 -10.9812 -31.6833 36.9553 -10.9812 -23.9122 37.0155 -10.9812 
-16.1411 38.0979 -10.9812 7.1722 38.3425 -10.9812 14.9433 35.6226 -10.9812 
22.7144 34.4462 -10.9812 34.4351 31.4089 -10.9812 30.4855 32.7977 -10.9812 
38.2566 31.4089 -9.77553 46.0277 31.4089 -5.75566 -31.6833 39.18 -9.12619 
-23.9122 39.18 -9.83461 -10.4042 39.18 -10.9812 -16.1411 39.18 -10.5312 
-8.37001 39.419 -10.9812 2.90967 39.18 -10.9812 -0.598906 39.6599 -10.9812 
7.1722 39.18 -10.4931 14.9433 39.18 -8.3466 22.7144 39.18 -5.6919 
30.4855 39.18 -3.50341 -8.37001 46.9511 -3.48754 -8.37001 -46.607 -3.2101 
-0.598906 -46.3106 -3.2101 -31.6833 -41.464 -3.2101 -23.9122 -43.932 -3.2101 
-10.694 -46.3022 -3.2101 -16.1411 -45.6129 -3.2101 -8.37001 -46.3022 -1.86717 
-0.517311 -46.3022 -3.2101 -0.598906 -46.3022 -3.17255 7.1722 -45.5032 -3.2101 
14.9433 -44.5256 -3.2101 22.7144 -42.7789 -3.2101 30.4855 -40.1469 -3.2101 
-47.2255 -33.0787 -3.2101 -38.6537 -38.5311 -3.2101 -39.4544 -38.1578 -3.2101 
34.0986 -38.5311 -3.2101 30.4855 -38.5311 1.91831 38.2566 -36.5337 -3.2101 
46.0277 -32.5665 -3.2101 -49.8253 -30.76 -3.2101 -54.9966 -25.1496 -3.2101 
49.2837 -30.76 -3.2101 46.0277 -30.76 1.35089 53.7988 -27.7517 -3.2101 
-56.6484 -22.9889 -3.2101 58.5675 -22.9889 -3.2101 61.5699 -19.2139 -3.2101 
-60.123 -15.2178 -3.2101 63.9731 -15.2178 -3.2101 61.5699 -15.2178 2.78328 
-62.3869 -7.44666 -3.2101 -62.7677 -5.1173 -3.2101 66.9216 -7.44666 -3.2101 
-63.6501 0.324446 -3.2101 -62.7677 6.37709 -3.2101 -62.7677 0.324446 1.95534 
66.7654 0.324446 -3.2101 -62.5172 8.09555 -3.2101 65.7141 8.09555 -3.2101 
-60.2999 15.8667 -3.2101 62.3986 15.8667 -3.2101 61.5699 17.3388 -3.2101 
61.5699 15.8667 1.90186 -56.2269 23.6378 -3.2101 -54.9966 25.2489 -3.2101 
-54.9966 23.6378 2.43345 57.181 23.6378 -3.2101 53.7988 27.2177 -3.2101 
-49.4213 31.4089 -3.2101 -47.2255 33.4564 -3.2101 -39.4544 39.0602 -3.2101 
38.2566 36.1356 -3.2101 48.4356 31.4089 -3.2101 46.0277 32.9802 -3.2101 
-39.2262 39.18 -3.2101 -31.6833 42.7853 -3.2101 -23.9122 44.8116 -3.2101 
-16.1411 46.1698 -3.2101 -0.598906 46.5229 -3.2101 7.1722 45.0718 -3.2101 
14.9433 42.8748 -3.2101 22.7144 40.7472 -3.2101 30.8775 39.18 -3.2101 
30.4855 39.3188 -3.2101 30.4855 39.18 -1.41199 -9.80991 46.9511 -3.2101 
-16.1411 46.9511 4.15966 -6.07535 46.9511 -3.2101 -8.37001 47.1135 -3.2101 
-0.598906 46.9511 0.523234 -31.6833 -40.1074 4.561 -23.9122 -42.123 4.561 
-16.1411 -43.78 4.561 -8.37001 -44.5597 4.561 -0.598906 -44.1897 4.561 
7.1722 -43.2051 4.561 14.9433 -41.8072 4.561 22.7144 -39.791 4.561 
-47.2255 -32.4871 4.561 -36.0968 -38.5311 4.561 -39.4544 -37.1017 4.561 
-31.6833 -38.5311 7.03747 -23.9122 -38.5311 9.83479 -16.1411 -38.5311 11.0279 
-8.37001 -38.5311 11.6591 -0.598906 -38.5311 11.0605 7.1722 -38.5311 9.694 
14.9433 -38.5311 8.11434 27.0122 -38.5311 4.561 22.7144 -38.5311 5.98303 
30.4855 -37.3192 4.561 38.2566 -32.9812 4.561 -49.2397 -30.76 4.561 
-54.9966 -24.6889 4.561 -47.2255 -30.76 7.57474 30.4855 -30.76 10.0091 
42.8423 -30.76 4.561 38.2566 -30.76 7.14317 46.0277 -29.0024 4.561 
53.7988 -23.7308 4.561 -56.3093 -22.9889 4.561 -54.9966 -22.9889 6.73909 
38.2566 -22.9889 12.141 46.0277 -22.9889 9.09348 54.5365 -22.9889 4.561 
53.7988 -22.9889 5.19058 -59.5021 -15.2178 4.561 -54.9966 -15.2178 12.0169 
60.37 -15.2178 4.561 53.7988 -15.2178 9.89704 61.5699 -13.2389 4.561 
-61.3325 -7.44666 4.561 -54.9966 -7.44666 11.8364 53.7988 -7.44666 11.6815 
64.1272 -7.44666 4.561 61.5699 -7.44666 7.01962 -62.204 0.324446 4.561 
-54.9966 0.324446 11.875 53.7988 0.324446 12.3185 64.7887 0.324446 4.561 
61.5699 0.324446 8.15155 -60.5913 8.09555 4.561 -54.9966 8.09555 10.382 
64.1221 8.09555 4.561 61.5699 14.7042 4.561 61.5699 8.09555 7.67317 
-58.1588 15.8667 4.561 -54.9966 22.6402 4.561 -54.9966 15.8667 8.44581 
60.9898 15.8667 4.561 53.7988 15.8667 10.6923 -54.1936 23.6378 4.561 
-47.2255 23.6378 9.39396 46.0277 23.6378 12.0662 56.4868 23.6378 4.561 
53.7988 26.7196 4.561 53.7988 23.6378 7.83173 -47.4919 31.4089 4.561 
-47.2255 31.6773 4.561 -47.2255 31.4089 4.86712 -39.4544 37.8754 4.561 
-39.4544 31.4089 10.1648 30.4855 38.6701 4.561 38.2566 36.1031 4.561 
38.2566 31.4089 11.0296 48.3291 31.4089 4.561 46.0277 32.9524 4.561 
46.0277 31.4089 6.92995 -37.5392 39.18 4.561 -31.6833 42.2295 4.561 
-31.6833 39.18 8.59135 -23.9122 45.3949 4.561 7.1722 46.015 4.561 
14.9433 43.8396 4.561 29.0391 39.18 4.561 22.7144 41.4567 4.561 
22.7144 39.18 9.34399 -16.3473 46.9511 4.561 -16.1411 46.9885 4.561 
-16.1411 46.9511 4.63921 -8.37001 47.8481 4.561 -8.37001 46.9511 6.28908 
1.85898 46.9511 4.561 -0.598906 47.3514 4.561 -0.598906 46.9511 5.41517 
[...]
POINT_DATA 558
SCALARS ImageScalars float
LOOKUP_TABLE default
0 0 0 0 0 0 0 0 0 
0 0 0 0 0 0 0 0 0 
0 0 0 0 0 0 0 0 0 
0 0 0 0 0 0 0 0 0 
0 0 0 0 0 0 0 0 0 
0 0 0 0 0 0 0 0 0 
0 0 0 0 0 0 0 0 0 
0 0 0 0 0 0 0 0 0 
0 0 0 0 0 0 0 0 0 
0 0 0 0 0 0 0 0 0 
0 0 0 0 0 0 0 0 0 
0 0 0 0 0 0 0 0 0 
0 0 0 0 0 0 0 0 0 
0 0 0 0 0 0 0 0 0 
0 0 0 0 0 0 0 0 0 
0 0 0 0 0 0 0 0 0 
0 0 0 0 0 0 0 0 0 
0 0 0 0 0 0 0 0 0 
0 0 0 0 0 0 0 0 0 
0 0 0 0 0 0 0 0 0 
0 0 0 0 0 0 0 0 0 
0 0 0 0 0 0 0 0 0 
0 0 0 0 0 0 0 0 0 
0 0 0 0 0 0 0 0 0 
0 0 0 0 0 0 0 0 0 
0 0 0 0 0 0 0 0 0 
0 0 0 0 0 0 0 0 0 
0 0 0 0 0 0 0 0 0 
0 0 0 0 0 0 0 0 0 
0 0 0 0 0 0 0 0 0 
0 0 0 0 0 0 0 0 0 
0 0 0 0 0 0 0 0 0 
0 0 0 0 0 0 0 0 0 
0 0 0 0 0 0 0 0 0 
0 0 0 0 0 0 0 0 0 
0 0 0 0 0 0 0 0 0 
0 0 0 0 0 0 0 0 0 
0 0 0 0 0 0 0 0 0 
0 0 0 0 0 0 0 0 0 
0 0 0 0 0 0 0 0 0 
0 0 0 0 0 0 0 0 0 
0 0 0 0 0 0 0 0 0 
0 0 0 0 0 0 0 0 0 
0 0 0 0 0 0 0 0 0 
0 0 0 0 0 0 0 0 0 
0 0 0 0 0 0 0 0 0 
0 0 0 0 0 0 0 0 0 
0 0 0 0 0 0 0 0 0 
0 0 0 0 0 0 0 0 0 
0 0 0 0 0 0 0 0 0 
0 0 0 0 0 0 0 0 0 
0 0 0 0 0 0 0 0 0 
0 0 0 0 0 0 0 0 0 
0 0 0 0 0 0 0 0 0 
0 0 0 0 0 0 0 0 0 
0 0 0 0 0 0 0 0 0 
0 0 0 0 0 0 0 0 0 
0 0 0 0 0 0 0 0 0 
0 0 0 0 0 0 0 0 0 
0 0 0 0 0 0 0 0 0 
0 0 0 0 0 0 0 0 0 
0 0 0 0 0 0 0 0 0 

NORMALS Normals float
-0.0441645 0.0267552 0.998666 0.0507569 0.0130244 0.998626 0.36093 0.758853 0.5421 
0.185293 0.607468 0.772431 0.103369 0.496628 0.861786 0.0201809 0.444227 0.895687 
-0.0574093 0.465325 0.883276 -0.0862359 0.508312 0.856844 -0.151144 0.546785 0.823518 
-0.234777 0.673269 0.701134 0.376449 0.507818 0.774859 0.158686 0.339657 0.927066 
0.0686543 0.272343 0.959748 0.0401874 0.146553 0.988386 0.0133533 0.0951067 0.995378 
-0.0334432 0.0711195 0.996907 -0.0736422 0.13497 0.988109 -0.01631 0.190692 0.981514 
-0.0595181 0.328517 0.942621 -0.176186 0.437541 0.881769 -0.215528 0.604743 0.766703 
-0.418839 0.758398 0.499406 0.459587 0.372835 0.806085 0.20681 0.248992 0.946167 
-0.0440141 0.0268909 0.998669 0.110603 0.159996 0.980902 -0.0211606 0.0747108 0.996981 
-0.0827932 -0.0344311 0.995972 -0.0497852 -0.134718 0.989632 -0.0194226 -0.101811 0.994614 
0.0131687 -0.0731611 0.997233 0.0592432 0.00654673 0.998222 0.0507843 0.0542044 0.997238 
0.0380277 0.064743 0.997177 -0.00680277 0.22123 0.975198 -0.126209 0.28654 0.949719 
-0.273604 0.368002 0.888659 -0.53025 0.517637 0.671481 0.64106 0.257104 0.723146 
0.365198 0.14347 0.919808 -0.0409238 0.0275789 0.998782 0.171144 0.0807956 0.981928 
-0.0442857 0.0266375 0.998664 -0.0441607 0.0265596 0.998671 -0.127476 -0.062877 0.989847 
-0.160971 -0.109298 0.980889 -0.0585744 -0.0858152 0.994588 0.0226431 -0.0114379 0.999678 
0.0396068 -0.0393035 0.998442 0.12201 -0.0785198 0.989418 0.0816374 -0.00623348 0.996643 
0.163081 -0.0596848 0.984806 -0.013245 0.0281683 0.999515 0.0653156 -0.025586 0.997537 
-0.058077 0.0403448 0.997497 -0.156306 0.173616 0.97233 -0.429088 0.293753 0.854162 
0.58352 0.127513 0.802026 0.259685 0.0695756 0.963184 0.0854147 -0.0471419 0.99523 
-0.0404962 -0.0805357 0.995929 -0.160344 -0.108035 0.981131 -0.102911 -0.169561 0.980132 
0.0555827 0.0367446 0.997778 0.0250933 -0.187202 0.982001 -0.0590989 0.0704723 0.995762 
0.0414246 -0.0463211 0.998067 0.144809 -0.136712 0.979969 0.0999369 -0.119757 0.98776 
0.0324631 -0.0789109 0.996353 0.00473923 -0.0724862 0.997358 -0.273593 0.0185228 0.961667 
-0.654326 0.0838942 0.751545 0.522662 0.00210885 0.852538 0.186582 -0.0326588 0.981896 
0.0260271 -0.0515616 0.998331 -0.102372 -0.0766712 0.991787 -0.213667 -0.128468 0.968423 
-0.0739577 -0.172042 0.982309 -0.0893066 -0.0437212 0.995044 0.21462 -0.0452564 0.975649 
-0.087269 -0.043333 0.995242 0.0830515 -0.107133 0.99077 0.105804 -0.126657 0.986288 
-0.00367771 -0.101743 0.994804 -0.0574804 -0.175406 0.982817 -0.306125 -0.238081 0.92174 
-0.612534 -0.158252 0.774441 0.550435 -0.101401 0.828697 0.222175 -0.1189 0.96773 
0.0436343 -0.0641717 0.996984 -0.129066 -0.0817467 0.988261 -0.241892 -0.0548299 0.968753 
-0.0910728 -0.00289642 0.99584 0.168729 -0.143461 0.975166 0.0389879 0.116779 0.992392 
-0.0213138 -0.196627 0.980247 -0.011857 -0.0292381 0.999502 0.0587453 -0.00287108 0.998269 
0.0992111 -0.0930806 0.990703 -0.0229108 -0.114212 0.993192 -0.166825 -0.0912059 0.981759 
-0.274411 -0.278214 0.920487 0.556815 -0.257887 0.78959 0.24672 -0.192866 0.949701 
0.0700477 -0.168345 0.983236 -0.0840597 -0.109843 0.990388 -0.1476 -0.0432775 0.9881 
-0.104652 0.0682455 0.992165 0.0195417 -0.0117224 0.99974 0.0156562 -0.0484967 0.998701 
0.0610383 -0.0629735 0.996147 0.0945522 -0.00561305 0.995504 0.0212515 -0.0186322 0.999601 
0.000337208 -0.0639013 0.997956 0.00242062 -0.174627 0.984632 -0.229545 -0.221093 0.947854 
-0.440557 -0.281719 0.852375 0.406006 -0.393102 0.825003 0.130798 -0.285066 0.949542 
-0.0250006 -0.18686 0.982068 -0.0648052 -0.13722 0.988418 -0.0406539 -0.0256999 0.998843 
0.00909392 -0.00734825 0.999932 0.0101992 -0.0105986 0.999892 0.0377939 -0.0167697 0.999145 
0.0446322 -0.114678 0.9924 -0.00123898 -0.158594 0.987343 -0.0523704 -0.186645 0.981031 
-0.188164 -0.290591 0.938164 -0.347985 -0.421166 0.837571 0.253784 -0.53182 0.807937 
0.0922371 -0.326272 0.940765 0.00129904 -0.266235 0.963907 0.0322973 -0.210169 0.977132 
0.037909 -0.184401 0.98212 0.00595228 -0.187144 0.982314 -0.0475593 -0.215688 0.975303 
-0.0544324 -0.336011 0.940284 -0.0629378 -0.424241 0.903359 -0.1778 -0.508385 0.842574 
0.0415674 -0.448637 0.892747 -0.0303116 -0.487264 0.872728 0.360939 0.758877 0.54206 
0.243721 0.783494 0.57161 0.115371 0.807776 0.578089 0.00632819 0.805345 0.592772 
0.0413788 0.995422 0.0861557 -0.0597013 0.796926 0.601119 -0.0703051 0.997182 0.0261635 
-0.0776989 0.774745 0.627482 -0.15607 0.756441 0.635169 -0.257069 0.716336 0.648674 
0.360954 0.758866 0.542065 0.437643 0.658368 0.612389 -0.269372 0.729234 0.629012 
-0.266361 0.73833 0.619614 -0.341734 0.887162 0.310097 -0.291382 0.757142 0.584665 
-0.421457 0.764273 0.488119 0.513543 0.585326 0.627429 0.542863 0.536775 0.645889 
0.605901 0.662911 0.43981 -0.427378 0.761266 0.48767 -0.59307 0.600225 0.536654 
0.59238 0.458415 0.662527 0.673016 0.337214 0.658282 0.758667 0.528633 0.380752 
-0.657297 0.55215 0.512924 0.710017 0.267872 0.651245 -0.678115 0.378623 0.629924 
-0.699324 0.347648 0.624569 -0.742213 0.405553 0.533524 0.687777 0.146989 0.710885 
0.144947 -0.208285 0.967268 -0.791588 0.104112 0.602121 0.692458 0.0100763 0.721388 
0.964547 0.010526 0.263701 0.0912304 -0.18426 0.978634 0.170259 -0.177299 0.969318 
0.148913 -0.124837 0.980939 0.131768 -0.149402 0.979957 -0.686444 -0.173122 0.706275 
-0.650047 -0.284243 0.70473 0.670768 -0.109709 0.733508 -0.594748 -0.332426 0.731962 
-0.706033 -0.347579 0.617014 0.717744 -0.27582 0.639349 0.626319 -0.406747 0.665043 
-0.456818 -0.292969 0.839933 -0.448061 -0.304288 0.840625 -0.849142 -0.450632 0.275478 
0.514782 -0.472577 0.715311 0.758898 -0.580152 0.2958 0.451094 -0.497209 0.741146 
-0.229555 -0.576179 0.784425 -0.369965 -0.425858 0.825695 -0.357003 -0.441167 0.823359 
-0.580899 -0.587876 0.56299 0.297035 -0.548235 0.781798 0.589132 -0.688805 0.422458 
0.270397 -0.548796 0.791017 0.158732 -0.554334 0.817018 0.0276752 -0.479137 0.877304 
0.0625176 -0.447477 0.892107 -0.12638 -0.51128 0.850071 -0.129686 -0.516375 0.846486 
-0.10132 -0.565143 0.818748 -0.213664 -0.580742 0.785548 -0.196103 -0.569365 0.798353 
-0.25462 -0.673372 0.694074 -0.472314 -0.769038 0.430697 0.217754 -0.716991 0.662199 
0.0691698 -0.606756 0.791873 0.0484962 -0.457844 0.887709 0.069383 -0.498826 0.863921 
0.0421938 -0.458792 0.887541 -0.0763852 -0.515451 0.853508 -0.0341111 -0.508379 0.860458 
-0.137506 -0.562884 0.815018 -0.21497 -0.72854 0.650398 -0.19128 -0.865586 0.462788 
-0.268345 -0.936471 0.225861 0.0212283 -0.932457 0.360656 0.0462728 0.998468 0.0303279 
-0.0703206 0.997223 0.0245364 0.350884 0.933777 0.070292 0.257767 0.966008 0.0196195 
0.0819907 0.996378 0.0225303 0.16467 0.986321 0.00741218 0.0435647 0.998219 -0.0407425 
-0.0707489 0.997193 0.0244973 -0.0703485 0.997267 0.0225752 -0.11403 0.993227 0.0223148 
-0.172961 0.984844 -0.0129234 -0.273395 0.961899 0.00242712 -0.36559 0.930643 0.0157405 
0.617829 0.771935 0.149678 0.458847 0.882772 0.100859 0.473173 0.87462 0.10558 
-0.397232 0.91771 -0.00385 -0.353443 0.875188 -0.33034 -0.435753 0.899097 -0.0417604 
-0.481117 0.873312 -0.0765055 0.677933 0.717461 0.160178 0.791661 0.582752 0.183503 
-0.529396 0.844903 -0.0766741 -0.460885 0.813326 -0.355086 -0.624569 0.777952 -0.0685852 
0.826156 0.530974 0.188502 -0.721651 0.688359 -0.0733666 -0.824363 0.563933 -0.049041 
0.91916 0.358373 0.163446 -0.904645 0.42555 -0.0229035 -0.764756 0.448529 -0.462569 
0.967245 0.210905 0.141267 0.980762 0.149382 0.125659 -0.983957 0.178203 0.00852653 
0.995565 0.00768092 0.0937569 0.984097 -0.150585 0.0942227 0.973996 -0.0185199 -0.225809 
-0.992815 -0.0738836 0.0941204 0.975867 -0.196603 0.0950299 -0.945864 -0.282874 0.159133 
0.917609 -0.39415 0.0513667 -0.881107 -0.436011 0.183152 -0.8598 -0.470408 0.198647 
-0.871905 -0.437889 -0.21917 0.825338 -0.559389 0.0768195 0.801136 -0.593479 0.077227 
0.758171 -0.574659 -0.308131 -0.718047 -0.654172 0.237629 -0.642986 -0.723547 0.251095 
0.688952 -0.718999 0.0915712 0.648207 -0.754064 0.105903 0.50067 -0.84739 0.176803 
-0.354087 -0.895625 0.269218 -0.53404 -0.804367 0.260375 -0.477588 -0.838908 0.261042 
0.496107 -0.849929 0.177476 0.342628 -0.907972 0.241231 0.206835 -0.916857 0.341455 
0.130677 -0.931875 0.338428 -0.120187 -0.936542 0.329307 -0.217989 -0.916022 0.336727 
-0.260673 -0.900392 0.348346 -0.227824 -0.917304 0.326572 -0.273647 -0.938803 0.209204 
-0.269595 -0.940298 0.207743 -0.282327 -0.953262 0.107622 0.0417911 -0.939516 0.339946 
0.146123 -0.974895 -0.168013 -0.0215952 -0.940857 0.338114 0.0211576 -0.938749 0.343951 
-0.12247 -0.989583 0.0756776 0.286084 0.886295 -0.364195 0.213625 0.893653 -0.39465 
0.140496 0.895857 -0.421546 0.0238309 0.898414 -0.438502 -0.0743143 0.885702 -0.458269 
-0.130441 0.860417 -0.492614 -0.185276 0.824851 -0.53413 -0.240032 0.798585 -0.551949 
0.584051 0.764054 -0.274056 0.369082 0.869799 -0.327456 0.431452 0.847763 -0.30846 
0.260613 0.841398 -0.473425 0.163411 0.748199 -0.643036 0.0770528 0.656725 -0.750184 
0.000313663 0.591973 -0.805958 -0.096544 0.603084 -0.791813 -0.144874 0.633086 -0.760404 
-0.179611 0.685597 -0.705476 -0.286043 0.792706 -0.538327 -0.226693 0.755241 -0.614997 
-0.325633 0.777655 -0.537787 -0.386777 0.751645 -0.534259 0.637324 0.72244 -0.268138 
0.767459 0.575955 -0.28157 0.567453 0.70082 -0.432259 -0.250637 0.534097 -0.807417 
-0.402029 0.732812 -0.548963 -0.349856 0.676623 -0.647906 -0.422417 0.699155 -0.576841 
-0.564576 0.576774 -0.590412 0.797102 0.531142 -0.287257 0.746917 0.52827 -0.40379 
-0.252023 0.334304 -0.908144 -0.378269 0.492106 -0.784057 -0.580886 0.569243 -0.581836 
-0.547302 0.561267 -0.620838 0.907949 0.301669 -0.290901 0.667511 0.184726 -0.721322 
-0.680452 0.423505 -0.598021 -0.486788 0.342732 -0.803475 -0.703072 0.390639 -0.594214 
0.915308 0.157747 -0.370577 0.633839 -0.00480084 -0.77345 -0.435302 0.120153 -0.89223 
-0.794804 0.257396 -0.549576 -0.634291 0.261455 -0.727542 0.9133 -0.0347213 -0.405805 
0.594761 -0.0757933 -0.800322 -0.398469 0.0428217 -0.916182 -0.889594 -0.0048309 -0.456727 
-0.670872 0.0404249 -0.740471 0.856373 -0.226798 -0.463884 0.660024 -0.166546 -0.732551 
-0.871194 -0.230099 -0.433677 -0.810431 -0.382447 -0.443776 -0.747633 -0.217214 -0.627585 
0.81547 -0.338949 -0.469172 0.718443 -0.526396 -0.454693 0.68817 -0.297737 -0.661646 
-0.797667 -0.402936 -0.448742 -0.569442 -0.219469 -0.792193 0.695018 -0.54938 -0.463823 
0.540072 -0.429079 -0.724026 -0.356731 -0.408107 -0.840352 -0.740383 -0.568949 -0.357953 
-0.683004 -0.645238 -0.342306 -0.63545 -0.508857 -0.580747 0.651379 -0.619311 -0.43836 
0.647568 -0.624318 -0.436901 0.645324 -0.614222 -0.454189 0.545171 -0.743732 -0.386849 
0.496695 -0.527542 -0.689198 -0.305627 -0.923016 -0.23374 -0.349662 -0.900509 -0.258494 
-0.362044 -0.626057 -0.690635 -0.551682 -0.778993 -0.298021 -0.4937 -0.821239 -0.286053 
-0.498991 -0.741685 -0.448232 0.519854 -0.774302 -0.360843 0.42939 -0.841552 -0.327741 
0.43054 -0.726239 -0.535922 0.271438 -0.942245 -0.196206 -0.214561 -0.96456 -0.153584 
-0.276381 -0.95238 -0.128786 -0.304456 -0.927056 -0.218803 -0.314511 -0.935398 -0.161599 
-0.311825 -0.837151 -0.449381 0.148797 -0.970032 -0.192085 0.145967 -0.970442 -0.192189 
0.145629 -0.969649 -0.196399 0.0237124 -0.977861 -0.207906 0.0253754 -0.948507 -0.315738 
-0.147453 -0.973406 -0.175322 -0.115272 -0.975921 -0.185179 -0.109867 -0.965526 -0.235985 
0.323532 0.614966 -0.719127 0.19472 0.650449 -0.734166 0.121199 0.616501 -0.77797 
0.0522317 0.57381 -0.817321 -0.0102452 0.537202 -0.843391 -0.097119 0.494126 -0.863948 
-0.123668 0.433107 -0.892818 -0.0968206 0.433075 -0.896143 -0.168299 0.449322 -0.877374 
0.329525 0.612736 -0.718309 0.498455 0.480114 -0.721826 0.321797 0.610704 -0.723525 
0.161136 0.539021 -0.826735 0.0447712 0.429235 -0.902083 -0.0224206 0.350571 -0.936268 
-0.0530403 0.297931 -0.953113 -0.0919541 0.284738 -0.954185 -0.10923 0.329283 -0.937892 
-0.0829716 0.391447 -0.916452 -0.171405 0.446155 -0.878388 -0.165967 0.440905 -0.882076 
-0.186096 0.40259 -0.896264 0.536041 0.432071 -0.725241 0.484821 0.401553 -0.776984 
0.24121 0.311391 -0.919159 0.0642907 0.280605 -0.957668 -0.0403831 0.196578 -0.979656 
-0.0841499 0.158798 -0.983719 -0.0835656 0.102798 -0.991186 -0.0653986 0.119708 -0.990653 
-0.0404467 0.172479 -0.984182 -0.0549557 0.236682 -0.970032 -0.107165 0.259885 -0.959675 
-0.2399 0.331038 -0.912613 -0.160504 0.328847 -0.930644 -0.246248 0.322939 -0.913823 
-0.252445 0.337345 -0.906901 0.645466 0.179944 -0.74229 0.374995 0.12844 -0.918086 
0.230983 0.0912626 -0.968668 0.0628282 0.0798698 -0.994823 -0.106635 0.0449551 -0.993281 
-0.132975 0.0363502 -0.990453 -0.0854671 0.153377 -0.984465 -0.0252394 0.152995 -0.987905 
0.00811671 0.16383 -0.986455 -0.00458987 0.222232 -0.974983 -0.0683105 0.190024 -0.9794 
-0.128577 0.197904 -0.971752 -0.184703 0.247321 -0.951166 -0.27641 0.325218 -0.90434 
-0.241334 0.320535 -0.915978 0.600179 -0.0120648 -0.799775 0.361504 0.0141115 -0.932264 
0.174023 -0.0153675 -0.984622 0.0133042 -0.0741198 -0.997161 -0.0777888 -0.0533008 -0.995544 
0.0323921 -0.0400887 -0.998671 0.0374526 0.126904 -0.991208 -0.0627773 0.0252798 -0.997707 
0.0281716 0.172764 -0.98456 -0.0273802 0.210881 -0.977128 -0.125486 0.099393 -0.987104 
-0.102581 0.0959336 -0.990088 -0.152172 0.139294 -0.978489 -0.400288 0.116424 -0.908964 
-0.265046 0.131305 -0.955254 0.565296 -0.071077 -0.82182 0.331989 -0.054642 -0.941699 
0.144189 -0.0563714 -0.987943 0.0189358 -0.0443548 -0.998836 -0.0728407 0.0158947 -0.997217 
0.0356866 0.0531217 -0.99795 -0.0207266 -0.0296746 -0.999345 0.0225342 0.0679931 -0.997431 
0.205581 0.174179 -0.963015 -0.179119 0.0131761 -0.983739 -0.0952566 0.0341148 -0.994868 
-0.143786 0.0442496 -0.988619 -0.397716 0.0426605 -0.916516 -0.270396 0.0285559 -0.962326 
-0.397898 0.0294978 -0.916955 0.567024 -0.160117 -0.807989 0.383298 -0.145644 -0.912069 
0.194209 -0.0912988 -0.976702 0.0868782 -0.0154361 -0.996099 0.0195564 0.0783325 -0.996735 
-0.00717181 0.151453 -0.988438 0.0422492 0.023628 -0.998828 0.132791 0.141347 -0.981014 
-0.183569 -0.0773105 -0.979962 -0.118132 0.0122827 -0.992922 -0.0753701 0.0181233 -0.996991 
-0.146447 0.00429358 -0.989209 -0.272247 -0.00539625 -0.962212 -0.397511 -0.0858835 -0.913569 
-0.404556 -0.0916702 -0.909907 -0.390212 -0.0838094 -0.916903 0.465711 -0.335486 -0.818879 
0.452765 -0.362924 -0.814426 0.427201 -0.336431 -0.839234 0.277545 -0.195685 -0.940572 
0.185916 -0.0781463 -0.979453 0.0903323 0.00666657 -0.995889 -0.0166465 0.0766023 -0.996923 
-0.0284285 0.031826 -0.999089 0.045833 -0.00622952 -0.99893 -0.0221123 -0.0623268 -0.997811 
-0.10429 0.0054825 -0.994532 -0.0890412 -0.00355439 -0.996022 -0.0992376 -0.0438196 -0.994098 
-0.183934 -0.11737 -0.975906 -0.484227 -0.182573 -0.855682 -0.350057 -0.385453 -0.853748 
-0.33552 -0.149398 -0.930111 0.472839 -0.357622 -0.805314 0.460716 -0.422941 -0.780296 
0.410857 -0.310367 -0.857245 0.278075 -0.21952 -0.935139 0.170684 -0.154906 -0.973073 
0.0174655 -0.0959065 -0.995237 -0.0396032 -0.0737721 -0.996488 0.036397 -0.0683485 -0.996997 
0.00473137 -0.0980988 -0.995165 -0.118667 -0.0398315 -0.992135 -0.166126 -0.124579 -0.978204 
-0.186181 -0.192565 -0.96346 -0.346382 -0.394383 -0.851165 -0.340902 -0.504792 -0.793077 
-0.279883 -0.292531 -0.91438 0.437039 -0.472787 -0.76516 0.396369 -0.543029 -0.740278 
0.346548 -0.4052 -0.846001 0.207314 -0.335547 -0.918928 0.0696874 -0.304981 -0.949805 
0.00979932 -0.223953 -0.974551 0.0206233 -0.243944 -0.96957 -0.00288643 -0.28176 -0.959481 
-0.134255 -0.310059 -0.94119 -0.280407 -0.68183 -0.675633 -0.229403 -0.395608 -0.889308 
-0.329828 -0.558732 -0.760941 -0.295725 -0.629121 -0.718855 -0.266055 -0.490309 -0.829947 
0.309058 -0.603647 -0.73491 0.269111 -0.624589 -0.733122 0.263959 -0.576807 -0.773058 
0.0980523 -0.680766 -0.725908 0.108717 -0.56095 -0.82068 0.0330105 -0.682178 -0.73044 
0.0292207 -0.544246 -0.838417 -0.0309372 -0.703248 -0.710271 -0.0210558 -0.561444 -0.827247 
-0.111755 -0.739671 -0.663624 -0.0785873 -0.620684 -0.780112 -0.260518 -0.736958 -0.623718 
-0.234371 -0.754763 -0.612702 -0.221435 -0.700358 -0.678576 -0.0856295 0.0537172 -0.994878 
-0.00845383 0.0698094 -0.997524 0.126944 0.118007 -0.984865 -0.10319 0.0251577 -0.994343 
-0.114487 0.00381464 -0.993417 -0.0955018 0.0268991 -0.995066 0.0740617 0.0901937 -0.993167 
-0.100718 -0.0312492 -0.994424 -0.0208739 -0.0557559 -0.998226 -0.00483924 0.0207168 -0.999774 

