# vtk DataFile Version 4.2
vtk output
ASCII
DATASET POLYDATA
POINTS 536 float
30.6965 -17.5556 -20.6088 30.6965 -10.4567 -20.6228 30.6965 -3.35783 -20.7217 
37.7954 3.74104 -20.6163 -4.79777 -31.7533 -14.4034 2.3011 -31.7533 -13.8249 
-26.0944 -24.6544 -14.2345 -18.9955 -24.6544 -14.5986 -11.8966 -24.6544 -15.6749 
-4.79777 -24.6544 -16.8404 2.3011 -24.6544 -17.2416 9.39996 -24.6544 -17.074 
16.4988 -24.6544 -17.3225 23.5977 -24.6544 -17.8591 30.6965 -17.7163 -20.5459 
30.6965 -24.6544 -17.0411 37.7954 -24.6544 -15.4937 -33.1932 -17.5556 -15.4576 
-26.0944 -17.5556 -16.7045 -18.9955 -17.5556 -16.79 -11.8966 -17.5556 -16.6085 
-4.79777 -17.5556 -17.8187 2.3011 -17.5556 -18.1452 9.39996 -17.5556 -17.7254 
16.4988 -17.5556 -18.7128 30.0583 -17.5556 -20.5459 23.5977 -17.5556 -19.7974 
30.9584 -17.5556 -20.5459 37.7954 -17.5556 -18.652 44.8943 -17.5556 -16.4728 
-40.2921 -10.4567 -13.7187 -33.1932 -10.4567 -16.0862 -26.0944 -10.4567 -17.3543 
-18.9955 -10.4567 -17.8135 -11.8966 -10.4567 -17.5946 -4.79777 -10.4567 -18.1899 
2.3011 -10.4567 -18.0604 9.39996 -10.4567 -17.6589 16.4988 -10.4567 -18.9249 
29.78 -10.4567 -20.5459 23.5977 -10.4567 -20.0338 31.4778 -10.4567 -20.5459 
37.7954 -10.4567 -19.9114 44.8943 -10.4567 -18.4074 51.9931 -10.4567 -14.014 
-33.1932 -3.35783 -15.5839 -26.0944 -3.35783 -16.8845 -18.9955 -3.35783 -17.7619 
-11.8966 -3.35783 -18.5116 -4.79777 -3.35783 -18.0502 2.3011 -3.35783 -19.5992 
9.39996 -3.35783 -19.155 16.4988 -3.35783 -18.8936 28.8298 -3.35783 -20.5459 
23.5977 -3.35783 -20.0319 37.7063 -3.35783 -20.5459 30.6965 0.0440665 -20.5459 
37.7954 -3.14143 -20.5459 37.7954 -3.35783 -20.5436 44.8943 -3.35783 -19.5861 
51.9931 -3.35783 -15.5556 -33.1932 3.74104 -14.5598 -26.0944 3.74104 -15.9073 
-18.9955 3.74104 -17.1021 -11.8966 3.74104 -18.1305 -4.79777 3.74104 -16.7876 
2.3011 3.74104 -18.6538 9.39996 3.74104 -18.3753 16.4988 3.74104 -18.153 
23.5977 3.74104 -19.5308 35.8707 3.74104 -20.5459 30.6965 3.74104 -20.3539 
38.2836 3.74104 -20.5459 37.7954 4.13762 -20.5459 44.8943 3.74104 -19.4337 
51.9931 3.74104 -15.4949 -33.1932 10.8399 -13.4881 -26.0944 10.8399 -14.9068 
-18.9955 10.8399 -16.0808 -11.8966 10.8399 -16.9579 -4.79777 10.8399 -16.5513 
2.3011 10.8399 -17.1696 9.39996 10.8399 -16.4604 16.4988 10.8399 -17.2601 
23.5977 10.8399 -18.7399 30.6965 10.8399 -19.5803 37.7954 10.8399 -19.3032 
44.8943 10.8399 -17.9809 51.9931 10.8399 -13.7489 -26.0944 17.9388 -13.4628 
-18.9955 17.9388 -14.5616 -11.8966 17.9388 -14.9939 -4.79777 17.9388 -14.8968 
2.3011 17.9388 -15.9994 9.39996 17.9388 -16.4798 16.4988 17.9388 -16.8693 
23.5977 17.9388 -17.7492 30.6965 17.9388 -18.478 37.7954 17.9388 -17.6904 
44.8943 17.9388 -15.9097 -4.79777 25.0376 -13.449 2.3011 25.0376 -14.2792 
9.39996 25.0376 -15.2274 16.4988 25.0376 -15.4338 23.5977 25.0376 -15.3632 
30.6965 25.0376 -15.423 37.7954 25.0376 -14.325 -4.79777 -32.8946 -13.447 
2.3011 -32.1733 -13.447 -26.0944 -25.9791 -13.447 -26.0944 -31.7533 -8.56707 
-18.9955 -27.0268 -13.447 -18.9955 -31.7533 -10.693 -8.30653 -31.7533 -13.447 
-11.8966 -29.7903 -13.447 -11.8966 -31.7533 -12.3658 5.28009 -31.7533 -13.447 
9.39996 -30.9582 -13.447 9.39996 -31.7533 -12.7112 16.4988 -30.9972 -13.447 
16.4988 -31.7533 -12.4404 23.5977 -30.1944 -13.447 23.5977 -31.7533 -11.0114 
30.6965 -29.0665 -13.447 30.6965 -31.7533 -7.77825 37.7954 -26.7768 -13.447 
-40.2921 -24.6544 -8.79281 -30.7899 -24.6544 -13.447 -33.1932 -23.5028 -13.447 
-33.1932 -24.6544 -12.9052 41.3876 -24.6544 -13.447 44.8943 -21.9994 -13.447 
44.8943 -24.6544 -8.73727 -47.3909 -17.5556 -6.74331 -40.2157 -17.5556 -13.447 
-40.2921 -16.9809 -13.447 -40.2921 -17.5556 -13.4177 49.2109 -17.5556 -13.447 
51.9931 -11.9719 -13.447 51.9931 -17.5556 -8.73395 -40.8176 -10.4567 -13.447 
-47.3909 -10.4567 -9.52933 -40.2921 -5.47923 -13.447 52.6626 -10.4567 -13.447 
-47.3909 -3.35783 -9.44803 -39.949 -3.35783 -13.447 -40.2921 -3.35783 -13.3364 
54.6129 -3.35783 -13.447 -47.3909 3.74104 -8.66053 -36.9178 3.74104 -13.447 
-40.2921 3.74104 -12.4145 54.5948 3.74104 -13.447 -47.3909 10.8399 -6.8696 
-33.3265 10.8399 -13.447 -40.2921 10.8399 -11.1244 -33.1932 10.9656 -13.447 
52.3531 10.8399 -13.447 51.9931 11.5874 -13.447 -40.2921 17.9388 -8.50093 
-26.1471 17.9388 -13.447 -33.1932 17.9388 -11.1674 -26.0944 17.9828 -13.447 
-18.9955 22.2481 -13.447 -11.8966 23.9376 -13.447 48.5625 17.9388 -13.447 
44.8943 22.1908 -13.447 51.9931 17.9388 -8.99233 -33.1932 25.0376 -8.34535 
-26.0944 25.0376 -10.6699 -18.9955 25.0376 -12.6619 -4.848 25.0376 -13.447 
-11.8966 25.0376 -13.1707 -4.79777 25.043 -13.447 2.3011 26.9593 -13.447 
9.39996 28.4194 -13.447 16.4988 28.2009 -13.447 23.5977 27.95 -13.447 
30.6965 27.6042 -13.447 40.1485 25.0376 -13.447 37.7954 26.0781 -13.447 
44.8943 25.0376 -9.72602 -26.0944 32.1365 -7.29393 -18.9955 32.1365 -9.68293 
-11.8966 32.1365 -10.3735 -4.79777 32.1365 -10.4386 2.3011 32.1365 -10.759 
9.39996 32.1365 -10.6942 16.4988 32.1365 -9.87803 23.5977 32.1365 -8.50734 
30.6965 32.1365 -6.52308 -26.0944 -33.5646 -6.34816 -18.9955 -35.6137 -6.34816 
-11.8966 -37.1515 -6.34816 -4.79777 -37.506 -6.34816 2.3011 -36.5152 -6.34816 
9.39996 -35.5192 -6.34816 16.4988 -34.6588 -6.34816 23.5977 -33.8546 -6.34816 
30.6965 -32.2833 -6.34816 -40.2921 -27.1956 -6.34816 -32.1244 -31.7533 -6.34816 
-33.1932 -31.3723 -6.34816 -33.1932 -31.7533 -5.62485 32.3985 -31.7533 -6.34816 
30.6965 -31.7533 -1.15031 37.7954 -29.9214 -6.34816 44.8943 -25.5944 -6.34816 
-43.231 -24.6544 -6.34816 -47.3909 -18.2669 -6.34816 46.1095 -24.6544 -6.34816 
44.8943 -24.6544 -2.1791 51.9931 -18.8469 -6.34816 -47.7524 -17.5556 -6.34816 
53.0914 -17.5556 -6.34816 51.9931 -17.5556 0.235702 -50.54 -10.4567 -6.34816 
56.4874 -10.4567 -6.34816 -51.164 -3.35783 -6.34816 -54.4898 -3.35783 0.216088 
58.0955 -3.35783 -6.34816 -50.2895 3.74104 -6.34816 -54.4898 3.74104 0.522071 
58.0983 3.74104 -6.34816 -47.9943 10.8399 -6.34816 -47.3909 11.8177 -6.34816 
56.4593 10.8399 -6.34816 -43.463 17.9388 -6.34816 -47.3909 17.9388 -2.61948 
-40.2921 21.44 -6.34816 53.5373 17.9388 -6.34816 51.9931 19.95 -6.34816 
51.9931 17.9388 0.088239 -36.6493 25.0376 -6.34816 -40.2921 25.0376 -3.43059 
-33.1932 27.9346 -6.34816 37.7954 30.7305 -6.34816 47.0387 25.0376 -6.34816 
44.8943 26.6696 -6.34816 -27.78 32.1365 -6.34816 -33.1932 32.1365 -2.14204 
-26.0944 33.4413 -6.34816 -18.9955 36.0983 -6.34816 -11.8966 37.1825 -6.34816 
-4.79777 36.9831 -6.34816 2.3011 36.4699 -6.34816 9.39996 35.5064 -6.34816 
16.4988 34.4654 -6.34816 23.5977 33.2915 -6.34816 31.1591 32.1365 -6.34816 
30.6965 32.226 -6.34816 -18.9955 39.2353 -2.03961 -11.8966 39.2353 -2.86803 
-4.79777 39.2353 -0.884602 -33.1932 -34.051 0.750703 -26.0944 -36.3741 0.750703 
-18.9955 -37.9186 0.750703 -11.8966 -38.8307 0.750703 -4.79777 -38.5865 0.750703 
2.3011 -37.4448 0.750703 9.39996 -36.5226 0.750703 16.4988 -35.5012 0.750703 
23.5977 -34.0067 0.750703 -37.4817 -31.7533 0.750703 -40.2921 -29.9992 0.750703 
30.1447 -31.7533 0.750703 23.5977 -31.7533 6.47699 30.6965 -31.5474 0.750703 
37.7954 -28.3695 0.750703 -46.4408 -24.6544 0.750703 -47.3909 -23.3661 0.750703 
43.7339 -24.6544 0.750703 37.7954 -24.6544 5.44708 44.8943 -23.7558 0.750703 
-50.9494 -17.5556 0.750703 51.872 -17.5556 0.750703 44.8943 -17.5556 6.00579 
51.9931 -17.2828 0.750703 -53.5345 -10.4567 0.750703 -54.4898 -4.55998 0.750703 
54.2386 -10.4567 0.750703 51.9931 -10.4567 3.16053 -54.6779 -3.35783 0.750703 
-54.4898 -3.35783 1.96937 55.8858 -3.35783 0.750703 51.9931 -3.35783 4.77367 
-54.5838 3.74104 0.750703 -54.4898 4.52964 0.750703 -54.4898 3.74104 2.06153 
56.1941 3.74104 0.750703 51.9931 3.74104 4.87501 -53.5346 10.8399 0.750703 
54.3103 10.8399 0.750703 51.9931 17.4529 0.750703 51.9931 10.8399 3.33969 
-49.8382 17.9388 0.750703 -47.3909 21.5433 0.750703 51.8148 17.9388 0.750703 
44.8943 17.9388 7.79809 -44.3788 25.0376 0.750703 -40.2921 29.0769 0.750703 
37.7954 30.7157 0.750703 46.2484 25.0376 0.750703 44.8943 26.1804 0.750703 
44.8943 25.0376 2.25467 -36.4997 32.1365 0.750703 -33.1932 34.4969 0.750703 
-26.0944 38.724 0.750703 2.3011 38.4349 0.750703 9.39996 37.0462 0.750703 
16.4988 35.413 0.750703 23.5977 33.8526 0.750703 23.5977 32.1365 5.11313 
32.3708 32.1365 0.750703 30.6965 32.5188 0.750703 30.6965 32.1365 1.60194 
-24.4559 39.2353 0.750703 -18.9955 40.606 0.750703 -11.8966 40.7219 0.750703 
-2.0642 39.2353 0.750703 -4.79777 39.7313 0.750703 -4.79777 39.2353 3.0227 
-33.1932 -33.1266 7.84957 -26.0944 -35.5642 7.84957 -18.9955 -37.1999 7.84957 
-11.8966 -37.7654 7.84957 -4.79777 -37.045 7.84957 2.3011 -35.6991 7.84957 
9.39996 -34.5987 7.84957 16.4988 -33.2758 7.84957 -35.6302 -31.7533 7.84957 
-40.2921 -28.7473 7.84957 -33.1932 -31.7533 10.26 -26.0944 -31.7533 14.0387 
2.3011 -31.7533 12.8962 9.39996 -31.7533 11.6875 21.6282 -31.7533 7.84957 
16.4988 -31.7533 9.78932 23.5977 -30.9232 7.84957 30.6965 -26.5192 7.84957 
-44.7272 -24.6544 7.84957 -47.3909 -21.1088 7.84957 -40.2921 -24.6544 13.2812 
16.4988 -24.6544 14.8272 23.5977 -24.6544 12.3941 33.8929 -24.6544 7.84957 
30.6965 -24.6544 9.34805 37.7954 -21.2352 7.84957 -49.6011 -17.5556 7.84957 
-47.3909 -17.5556 11.0706 23.5977 -17.5556 14.1727 30.6965 -17.5556 12.3686 
41.6137 -17.5556 7.84957 37.7954 -17.5556 9.65727 44.8943 -13.0994 7.84957 
-52.573 -10.4567 7.84957 23.5977 -10.4567 14.064 30.6965 -10.4567 13.2464 
37.7954 -10.4567 11.2291 46.2957 -10.4567 7.84957 44.8943 -10.4567 8.68466 
-53.4605 -3.35783 7.84957 23.5977 -3.35783 13.3531 30.6965 -3.35783 13.2305 
37.7954 -3.35783 11.4614 47.9395 -3.35783 7.84957 44.8943 -3.35783 9.5593 
-54.0151 3.74104 7.84957 23.5977 3.74104 14.0799 30.6965 3.74104 13.1393 
37.7954 3.74104 11.8646 48.0728 3.74104 7.84957 44.8943 3.74104 9.68982 
-53.1095 10.8399 7.84957 30.6965 10.8399 14.169 37.7954 10.8399 11.9491 
46.8978 10.8399 7.84957 44.8943 17.7293 7.84957 44.8943 10.8399 9.10789 
-50.3999 17.9388 7.84957 -47.3909 22.5085 7.84957 -47.3909 17.9388 12.8811 
30.6965 17.9388 14.2517 44.8085 17.9388 7.84957 37.7954 17.9388 11.3575 
[...]
POINT_DATA 536
SCALARS ImageScalars float
LOOKUP_TABLE default
0 0 0 0 0 0 0 0 0 
0 0 0 0 0 0 0 0 0 
0 0 0 0 0 0 0 0 0 
0 0 0 0 0 0 0 0 0 
0 0 0 0 0 0 0 0 0 
0 0 0 0 0 0 0 0 0 
0 0 0 0 0 0 0 0 0 
0 0 0 0 0 0 0 0 0 
0 0 0 0 0 0 0 0 0 
0 0 0 0 0 0 0 0 0 
0 0 0 0 0 0 0 0 0 
0 0 0 0 0 0 0 0 0 
0 0 0 0 0 0 0 0 0 
0 0 0 0 0 0 0 0 0 
0 0 0 0 0 0 0 0 0 
0 0 0 0 0 0 0 0 0 
0 0 0 0 0 0 0 0 0 
0 0 0 0 0 0 0 0 0 
0 0 0 0 0 0 0 0 0 
0 0 0 0 0 0 0 0 0 
0 0 0 0 0 0 0 0 0 
0 0 0 0 0 0 0 0 0 
0 0 0 0 0 0 0 0 0 
0 0 0 0 0 0 0 0 0 
0 0 0 0 0 0 0 0 0 
0 0 0 0 0 0 0 0 0 
0 0 0 0 0 0 0 0 0 
0 0 0 0 0 0 0 0 0 
0 0 0 0 0 0 0 0 0 
0 0 0 0 0 0 0 0 0 
0 0 0 0 0 0 0 0 0 
0 0 0 0 0 0 0 0 0 
0 0 0 0 0 0 0 0 0 
0 0 0 0 0 0 0 0 0 
0 0 0 0 0 0 0 0 0 
0 0 0 0 0 0 0 0 0 
0 0 0 0 0 0 0 0 0 
0 0 0 0 0 0 0 0 0 
0 0 0 0 0 0 0 0 0 
0 0 0 0 0 0 0 0 0 
0 0 0 0 0 0 0 0 0 
0 0 0 0 0 0 0 0 0 
0 0 0 0 0 0 0 0 0 
0 0 0 0 0 0 0 0 0 
0 0 0 0 0 0 0 0 0 
0 0 0 0 0 0 0 0 0 
0 0 0 0 0 0 0 0 0 
0 0 0 0 0 0 0 0 0 
0 0 0 0 0 0 0 0 0 
0 0 0 0 0 0 0 0 0 
0 0 0 0 0 0 0 0 0 
0 0 0 0 0 0 0 0 0 
0 0 0 0 0 0 0 0 0 
0 0 0 0 0 0 0 0 0 
0 0 0 0 0 0 0 0 0 
0 0 0 0 0 0 0 0 0 
0 0 0 0 0 0 0 0 0 
0 0 0 0 0 0 0 0 0 
0 0 0 0 0 0 0 0 0 
0 0 0 0 0 
NORMALS Normals float
-0.0776601 0.214834 0.973558 -0.00708257 0.00821415 0.999941 0.0348046 -0.0189027 0.999215 
-0.0551411 -0.084984 0.994855 0.0865782 0.556599 0.826258 -0.0926607 0.64296 0.760274 
0.0988496 0.436823 0.8941 0.100549 0.367559 0.924549 0.151176 0.250702 0.956187 
0.110928 0.219087 0.969379 0.0169873 0.257919 0.966017 0.00574092 0.282023 0.95939 
0.048112 0.346639 0.936764 -0.0139202 0.437668 0.899029 -0.0787866 0.221203 0.97204 
-0.138442 0.546569 0.825891 -0.334088 0.616264 0.713165 0.220714 0.194517 0.955745 
0.0948232 0.216341 0.971702 -0.00716517 0.216195 0.976324 0.071957 0.135163 0.988207 
0.108222 0.09476 0.9896 -0.00685737 0.0574403 0.998325 0.0390227 0.0376439 0.998529 
0.143405 0.111486 0.983365 -0.0597666 0.20801 0.976299 0.128429 0.133271 0.982723 
-0.0840483 0.216009 0.972767 -0.253731 0.258294 0.932151 -0.422384 0.419708 0.803391 
0.397431 -0.00500873 0.917618 0.237497 0.00959713 0.971341 0.119068 0.00917199 0.992844 
0.0166614 0.066454 0.99765 0.0257227 0.132623 0.990833 0.0333705 0.0163463 0.999309 
-0.0381255 0.0998518 0.994272 0.0618534 0.100024 0.993061 0.166776 0.0125189 0.985915 
0.0091942 0.00861903 0.999921 0.117737 0.0159511 0.992917 -0.0212625 0.0213783 0.999545 
-0.140808 0.133388 0.98101 -0.358589 0.193191 0.913286 -0.642624 0.254534 0.722667 
0.231909 -0.102022 0.967373 0.149374 -0.10005 0.983706 0.114117 -0.0495339 0.992232 
0.0204733 0.0374432 0.999089 0.0724062 -0.0968977 0.992657 0.0790752 0.0457273 0.995819 
-0.0505346 0.0590785 0.996973 0.0586159 -0.0536794 0.996836 0.0594631 -0.0231532 0.997962 
0.130117 -0.0356338 0.990858 -0.0708887 0.0482174 0.996318 0.0544303 -0.047732 0.997376 
-0.0717269 0.0449569 0.996411 -0.0722698 0.049081 0.996177 -0.312633 0.059893 0.947984 
-0.595641 0.0876206 0.798458 0.229972 -0.136566 0.963568 0.173189 -0.137717 0.975213 
0.154299 -0.115815 0.981213 -0.020009 -0.107118 0.994045 0.0230365 -0.105481 0.994154 
0.118075 -0.179843 0.976583 -0.0359651 -0.206064 0.977877 0.0837301 -0.11582 0.989735 
0.15266 -0.0882967 0.984326 -0.0191083 -0.0835668 0.996319 0.0756008 -0.0793437 0.993976 
-0.0734136 -0.0857136 0.993611 -0.0565333 -0.0919171 0.994161 -0.323495 -0.0940326 0.941546 
-0.585035 -0.10929 0.803611 0.248405 -0.228551 0.941307 0.170753 -0.168875 0.970734 
0.143855 -0.176658 0.973703 0.0319442 -0.217446 0.975549 0.0152791 -0.130843 0.991285 
-0.00674865 -0.173192 0.984865 0.00638595 -0.118907 0.992885 0.158896 -0.0893973 0.98324 
0.16 -0.122098 0.979537 0.0399155 -0.126002 0.991227 -0.0979977 -0.203054 0.974251 
-0.358925 -0.237885 0.902543 -0.628163 -0.287342 0.723081 0.220924 -0.275702 0.935511 
0.106486 -0.231595 0.966967 0.023164 -0.256672 0.966221 0.0693465 -0.215866 0.973957 
0.109955 -0.197466 0.974124 0.0605167 -0.0850181 0.99454 0.08698 -0.116363 0.989391 
0.107465 -0.21748 0.970131 -0.00584848 -0.289193 0.957253 -0.163731 -0.308885 0.9369 
-0.394652 -0.395906 0.829161 0.0742902 -0.281739 0.956611 0.123214 -0.319858 0.93942 
0.0764554 -0.330026 0.940871 0.0101233 -0.369044 0.929357 -0.00045873 -0.446659 0.894704 
-0.0628003 -0.533544 0.843437 -0.241583 -0.607063 0.757042 0.076993 0.626482 0.775624 
-0.0964378 0.66597 0.739719 0.120088 0.476642 0.870857 0.242614 0.74234 0.624556 
0.127516 0.43849 0.889644 0.200568 0.641747 0.740225 0.151894 0.559058 0.815097 
0.200835 0.466106 0.861632 0.206777 0.572674 0.793277 -0.0790959 0.668873 0.739157 
-0.0503381 0.655508 0.753509 -0.0645947 0.720252 0.690699 -0.0381777 0.727967 0.684549 
-0.0565336 0.796055 0.602577 -0.0975245 0.748835 0.655542 -0.130448 0.8698 0.475847 
-0.187121 0.758067 0.624756 -0.251457 0.944342 0.212103 -0.358614 0.7233 0.590113 
0.496451 0.581912 0.644138 0.227846 0.481939 0.846062 0.281606 0.455289 0.844636 
0.298696 0.511438 0.805737 -0.426052 0.683441 0.592781 -0.503209 0.602868 0.619137 
-0.572138 0.784985 0.237606 0.737938 0.349876 0.577092 0.45989 0.246304 0.853133 
0.45857 0.226905 0.859202 0.462934 0.247128 0.851246 -0.661957 0.447046 0.601633 
-0.674836 0.307575 0.670816 -0.795373 0.552591 0.249046 0.414286 0.000902475 0.910146 
0.665833 0.135246 0.73374 0.384662 -0.0615992 0.921 -0.665546 0.271953 0.695047 
0.603996 -0.053517 0.795189 0.3711 -0.0856767 0.924632 0.37909 -0.0845725 0.921487 
-0.7049 0.10265 0.70184 0.586955 -0.136895 0.797963 0.298628 -0.135248 0.944737 
0.36791 -0.137508 0.919638 -0.695296 -0.120988 0.708467 0.604323 -0.315264 0.731712 
0.249974 -0.228682 0.94086 0.362863 -0.243636 0.899429 0.249316 -0.23033 0.940633 
-0.640674 -0.29457 0.70906 -0.640665 -0.307811 0.703421 0.439934 -0.396586 0.805715 
0.221497 -0.276089 0.935261 0.300373 -0.320866 0.898232 0.221254 -0.276324 0.93525 
0.136892 -0.265999 0.954204 0.0452634 -0.286559 0.956993 -0.592614 -0.412689 0.691735 
-0.4512 -0.5409 0.709821 -0.79992 -0.510357 0.315695 0.373227 -0.454969 0.80852 
0.269153 -0.375585 0.886844 0.162745 -0.296901 0.940938 0.0741132 -0.281823 0.9566 
0.049912 -0.292986 0.954813 0.0742674 -0.281894 0.956567 0.103262 -0.378955 0.919636 
0.0344574 -0.48149 0.875774 -0.0196419 -0.543318 0.839297 -0.0289334 -0.596672 0.801963 
-0.0946377 -0.647675 0.756016 -0.309143 -0.631586 0.711007 -0.243952 -0.658491 0.711953 
-0.526698 -0.744364 0.410501 0.367554 -0.525854 0.76706 0.188917 -0.499588 0.845412 
0.0434729 -0.51207 0.857843 0.0228753 -0.536142 0.843818 0.0174296 -0.612176 0.79053 
-0.0412513 -0.722202 0.690451 -0.0952255 -0.819069 0.565736 -0.131805 -0.903875 0.406986 
-0.163724 -0.948263 0.272013 0.261472 0.816059 0.515442 0.219871 0.839074 0.497605 
0.122821 0.895556 0.427662 -0.0451389 0.945115 0.323605 -0.138095 0.944435 0.298281 
-0.124743 0.94345 0.30715 -0.1131 0.957227 0.266316 -0.158066 0.964553 0.211311 
-0.260674 0.956991 0.127344 0.512988 0.679397 0.524655 0.317485 0.792134 0.521275 
0.329706 0.785814 0.523249 0.338552 0.811077 0.477009 -0.295235 0.948201 0.117269 
-0.324794 0.929827 -0.173004 -0.415782 0.905543 0.0843659 -0.581026 0.810658 0.0723979 
0.610053 0.590782 0.528027 0.742143 0.37538 0.55526 -0.61543 0.785492 0.065173 
-0.592834 0.779115 -0.203783 -0.786103 0.60918 0.104603 0.748026 0.35556 0.560388 
-0.807814 0.578678 0.11211 -0.785926 0.518051 -0.337556 0.793495 0.18163 0.58084 
-0.946751 0.314066 0.0708876 0.764674 -0.00677286 0.644382 0.988086 0.0705789 0.136766 
-0.992632 0.107671 0.0555801 0.705275 -0.142285 0.694509 0.979404 -0.069972 0.189397 
-0.990921 -0.108883 0.078866 0.625358 -0.320617 0.71143 0.614356 -0.337893 0.713018 
-0.950036 -0.298385 0.0916393 0.544299 -0.421588 0.72526 0.719846 -0.468736 0.511965 
0.497741 -0.47275 0.72716 -0.838423 -0.52797 0.135258 -0.804 -0.577309 0.142471 
-0.857844 -0.436764 -0.270816 0.459435 -0.505754 0.730159 0.573923 -0.580328 0.577782 
0.424504 -0.530777 0.733534 -0.342199 -0.908843 0.238546 -0.628628 -0.761712 0.156912 
-0.552872 -0.816703 0.165314 0.396432 -0.552836 0.732949 0.508393 -0.696242 0.506738 
0.367119 -0.575849 0.730493 0.178211 -0.699881 0.69167 0.0429762 -0.747413 0.662968 
-0.0421223 -0.789599 0.612176 -0.0944402 -0.853224 0.512923 -0.130572 -0.89484 0.426863 
-0.148662 -0.923304 0.354131 -0.149273 -0.94719 0.28381 -0.175303 -0.949445 0.260429 
-0.164592 -0.950946 0.261937 0.147727 -0.925837 0.347854 -0.0147763 -0.931109 0.364443 
-0.140475 -0.978544 0.150728 0.389688 0.915893 0.0963461 0.278644 0.953765 0.112648 
0.166656 0.981568 0.0935434 0.0457359 0.998379 0.0338823 -0.097008 0.99491 -0.0272855 
-0.146878 0.987984 -0.0481076 -0.133544 0.989586 -0.0537084 -0.172015 0.981842 -0.0799776 
-0.260797 0.95131 -0.1643 0.486827 0.8707 0.0698608 0.56052 0.825813 0.0620454 
-0.335904 0.902267 -0.270339 -0.339041 0.819671 -0.461726 -0.343378 0.89572 -0.282447 
-0.446315 0.810011 -0.380374 0.761609 0.646549 0.0438945 0.79904 0.599243 0.0494175 
-0.551841 0.729854 -0.403466 -0.442859 0.628337 -0.639585 -0.570734 0.705629 -0.419941 
0.903036 0.421163 0.0845412 -0.774717 0.508165 -0.376274 -0.473687 0.454953 -0.754081 
-0.779114 0.49784 -0.380967 0.964701 0.240282 0.107783 0.989425 0.103066 0.102052 
-0.809746 0.254806 -0.528569 -0.733394 0.198463 -0.650189 0.992081 0.0738057 0.101625 
0.996647 0.0779384 0.0248936 -0.83707 0.114751 -0.534926 -0.676219 0.0887952 -0.73133 
0.982163 -0.068443 0.175132 0.979811 -0.0928189 0.177072 0.994205 -0.0623391 0.0875821 
-0.835888 -0.0970597 -0.54025 -0.670961 -0.0721519 -0.737974 0.930253 -0.298325 0.213613 
-0.82257 -0.262467 -0.50447 -0.850317 -0.409569 -0.330476 -0.751903 -0.171118 -0.63668 
0.812316 -0.490427 0.315633 0.761198 -0.560242 0.326659 -0.848881 -0.421883 -0.318459 
-0.429894 -0.325251 -0.842261 0.695625 -0.629066 0.346961 0.617211 -0.704312 0.350707 
-0.367207 -0.896821 -0.246721 -0.641139 -0.692421 -0.330897 -0.596908 -0.736832 -0.317457 
-0.60524 -0.68125 -0.411805 0.564855 -0.749408 0.345437 0.527189 -0.782224 0.331959 
0.37073 -0.900642 0.226724 -0.185978 -0.98224 -0.0248176 -0.213454 -0.974629 -0.0673536 
-0.214455 -0.968708 -0.124954 -0.195638 -0.97 -0.144308 -0.197466 -0.903593 -0.380168 
-0.236189 -0.950548 -0.201676 -0.204097 -0.96017 -0.190834 -0.208604 -0.948513 -0.238344 
0.310257 -0.927164 0.210016 0.127323 -0.978062 0.164875 -0.0616189 -0.99378 0.0927575 
-0.167898 -0.985666 0.0165227 -0.156632 -0.986773 0.041774 -0.175738 -0.978321 -0.109561 
0.410226 0.856177 -0.314126 0.269615 0.916868 -0.294383 0.145898 0.950881 -0.273018 
-0.00827778 0.948126 -0.317786 -0.135271 0.921907 -0.363028 -0.162008 0.888944 -0.428405 
-0.156113 0.879239 -0.450074 -0.222306 0.838673 -0.4972 0.459325 0.828753 -0.319672 
0.568375 0.751197 -0.335639 0.406328 0.795863 -0.448888 0.259665 0.70448 -0.660517 
-0.163571 0.684955 -0.709987 -0.160199 0.717368 -0.678026 -0.316343 0.788348 -0.527669 
-0.222785 0.762505 -0.607415 -0.354402 0.748154 -0.56095 -0.384771 0.60203 -0.699651 
0.689695 0.624645 -0.36625 0.76497 0.527607 -0.369393 0.526405 0.540738 -0.656125 
-0.219264 0.356267 -0.908294 -0.334683 0.365775 -0.868444 -0.391775 0.554809 -0.733961 
-0.372386 0.521838 -0.767473 -0.414974 0.442672 -0.794883 0.819656 0.434433 -0.373406 
0.726386 0.425681 -0.539592 -0.28925 0.0996436 -0.952053 -0.285703 0.228384 -0.930707 
-0.417741 0.369908 -0.829856 -0.381013 0.311307 -0.870584 -0.439657 0.287337 -0.850963 
0.899354 0.248584 -0.359679 -0.216998 -0.0552103 -0.974609 -0.188051 0.0601536 -0.980315 
-0.306199 0.113541 -0.945172 -0.479907 0.19753 -0.854793 -0.437665 0.198928 -0.876856 
0.926474 0.0915518 -0.365053 -0.146629 -0.00110357 -0.989191 -0.133209 -0.00734784 -0.991061 
-0.252311 0.0426553 -0.966706 -0.496141 0.0716964 -0.865277 -0.392332 0.0669885 -0.917381 
0.947281 -0.0271181 -0.319253 -0.188377 0.14607 -0.971173 -0.154051 0.0678972 -0.985727 
-0.239688 0.0341735 -0.970248 -0.511898 -0.0445893 -0.857888 -0.414357 -0.0295051 -0.909636 
0.93273 -0.232446 -0.275651 -0.226897 0.0760464 -0.970945 -0.360662 -0.0302841 -0.932205 
-0.525508 -0.104601 -0.844334 -0.429391 -0.318136 -0.845229 -0.465188 -0.119809 -0.877067 
0.865874 -0.453126 -0.21199 0.798367 -0.57255 -0.186538 0.706498 -0.429572 -0.562431 
-0.26306 -0.162904 -0.950927 -0.427485 -0.322923 -0.84438 -0.405356 -0.203141 -0.891302 
0.75103 -0.63471 -0.181925 0.63386 -0.752738 -0.177784 0.52012 -0.521941 -0.676057 
-0.138728 -0.366924 -0.919849 -0.112637 -0.463522 -0.878897 -0.183774 -0.805342 -0.563606 
-0.134995 -0.486164 -0.863378 -0.259818 -0.727444 -0.635074 -0.265049 -0.537811 -0.800318 
-0.458789 -0.537494 -0.707539 -0.435089 -0.56508 -0.700987 -0.438336 -0.527745 -0.727562 
0.576337 -0.799461 -0.169407 0.475328 -0.85875 -0.191342 0.36658 -0.70468 -0.607491 
0.282795 -0.915129 -0.287342 -0.130642 -0.477487 -0.868872 -0.197494 -0.850327 -0.487791 
-0.157702 -0.546716 -0.822333 -0.224882 -0.825574 -0.517548 -0.200844 -0.616143 -0.761597 
-0.236424 -0.785126 -0.572435 -0.224603 -0.704182 -0.673558 -0.180507 -0.791242 -0.584255 
-0.180649 -0.789566 -0.586473 -0.179669 -0.787247 -0.589882 0.150522 -0.931777 -0.330355 
0.0492587 -0.930796 -0.362204 0.0437913 -0.912452 -0.406834 -0.114441 -0.900953 -0.418554 
-0.106834 -0.903556 -0.414938 -0.108167 -0.899947 -0.422368 0.119171 0.691506 -0.712472 
-0.0645048 0.694898 -0.716209 -0.183305 0.629755 -0.754856 0.337843 0.549352 -0.764247 
0.210271 0.663148 -0.718346 0.247528 0.636748 -0.730262 0.116031 0.621534 -0.774747 
-0.0700425 0.626928 -0.775922 -0.183157 0.629077 -0.755457 -0.183372 0.628955 -0.755507 
-0.180162 0.520848 -0.834421 -0.158994 0.436186 -0.885699 0.427249 0.482102 -0.764876 
0.483843 0.429043 -0.76277 0.310913 0.432312 -0.846428 0.189693 0.360964 -0.913083 
0.0659717 0.270628 -0.960421 -0.0317504 0.252736 -0.967014 -0.175679 0.317746 -0.931759 
-0.197991 0.35037 -0.915446 -0.212653 0.354597 -0.910516 -0.160408 0.355525 -0.920799 
-0.221252 0.3389 -0.914437 0.534381 0.343877 -0.77213 0.617261 0.181382 -0.765565 
0.456828 0.303111 -0.83632 0.20528 0.224058 -0.952711 0.0885601 0.110914 -0.989876 
0.0245543 0.0498968 -0.998452 -0.00837764 0.0243464 -0.999668 -0.102643 0.0980992 -0.989869 
-0.1666 0.190477 -0.967452 -0.174658 0.206355 -0.962763 -0.280539 0.0998012 -0.95464 
-0.251392 0.121165 -0.960271 0.618125 0.178308 -0.765589 0.615761 0.177962 -0.767573 
0.335492 0.105998 -0.936061 0.149024 0.0696997 -0.986374 0.0260105 0.0284785 -0.999256 
-0.0259516 -0.0202821 -0.999457 0.0152947 -0.0401205 -0.999078 -0.00714426 0.00724781 -0.999948 
-0.0931789 0.00580884 -0.995632 -0.226573 0.117184 -0.966919 -0.270351 -0.062639 -0.960722 
-0.35851 -0.0439085 -0.932493 0.601126 0.0390875 -0.798198 0.590523 0.0381408 -0.806119 
0.317468 0.0489032 -0.947007 0.127209 0.0295608 -0.991435 -0.0052681 0.00510048 -0.999973 
-0.0451062 -0.0261088 -0.998641 0.019705 -0.0591979 -0.998052 -0.0576284 -0.054456 -0.996852 
-0.0584634 -0.16035 -0.985327 -0.186879 -0.0642957 -0.980277 -0.385257 -0.0353763 -0.922131 
-0.465636 -0.047358 -0.883708 0.603224 0.0780075 -0.793748 0.566954 0.0819614 -0.819662 
0.295477 0.0216149 -0.955105 0.107402 -0.0126318 -0.994135 -0.0289873 -0.020107 -0.999378 
-0.091784 -0.0482671 -0.994608 -0.013246 -0.107149 -0.994155 -0.108709 -0.147513 -0.983068 
-0.0967322 -0.0876271 -0.991446 -0.107186 -0.166344 -0.980225 -0.245563 0.126876 -0.961042 
-0.305872 0.084911 -0.948279 -0.193258 0.11793 -0.974035 0.681062 -0.132266 -0.720181 
0.637585 -0.270081 -0.721486 0.586374 -0.120542 -0.801021 0.245537 -0.0366941 -0.968692 
0.0953805 -0.0484451 -0.994261 -0.0401287 -0.0448782 -0.998186 -0.132076 -0.0476505 -0.990094 
-0.0797912 -0.0756745 -0.993935 -0.0398308 -0.125769 -0.99126 -0.0802566 -0.021435 -0.996544 
-0.0683851 -0.126225 -0.989642 -0.121113 0.00557476 -0.992623 -0.204787 0.0927254 -0.974405 
-0.192025 0.099582 -0.976325 0.57251 -0.383069 -0.724907 0.482402 -0.475033 -0.735957 
0.410443 -0.300911 -0.860808 0.0998305 -0.181126 -0.97838 -0.0302371 -0.110633 -0.993401 
-0.118141 -0.0978677 -0.988162 -0.0917346 -0.0657239 -0.993612 -0.0533427 -0.123254 -0.99094 
-0.099847 -0.142286 -0.984777 -0.133378 -0.346283 -0.9286 -0.089436 -0.168787 -0.981587 
-0.0866145 -0.328924 -0.940376 -0.0645512 -0.207609 -0.97608 -0.193093 -0.154398 -0.968956 
-0.131811 -0.227558 -0.964802 -0.131798 -0.153616 -0.979302 0.461239 -0.477395 -0.747899 
0.311036 -0.582978 -0.750595 0.246515 -0.351179 -0.903274 0.0367349 -0.287243 -0.957153 
-0.0789663 -0.236283 -0.96847 -0.129792 -0.467216 -0.874565 -0.10407 -0.222747 -0.969306 
-0.13439 -0.411889 -0.901269 -0.112285 -0.275191 -0.95481 -0.135675 -0.357516 -0.923999 
-0.137817 -0.380776 -0.914339 -0.123225 -0.323063 -0.938321 0.134141 -0.593027 -0.793931 
0.110913 -0.588172 -0.801094 0.108217 -0.583581 -0.804812 -0.117933 -0.47571 -0.871661 
-0.0115494 -0.524101 -0.851578 -0.0207325 -0.476796 -0.878769 
