# vtk DataFile Version 4.2
vtk output
ASCII
DATASET POLYDATA
POINTS 556 float
-20.2583 -34.7279 -13.6332 -12.57 -34.7279 -13.2696 -4.8817 -34.7279 -14.0231 
2.8066 -34.7279 -14.3897 10.4949 -34.7279 -14.6781 18.1832 -34.7279 -13.9983 
25.8715 -34.7279 -12.9041 -35.6349 -27.0396 -14.5035 -27.9466 -27.0396 -15.5599 
-20.2583 -27.0396 -14.4506 -12.57 -27.0396 -13.8837 -4.8817 -27.0396 -14.1653 
2.8066 -27.0396 -14.7787 10.4949 -27.0396 -15.9584 18.1832 -27.0396 -16.0754 
25.8715 -27.0396 -15.6716 33.5598 -27.0396 -14.0622 -43.3232 -19.3513 -15.498 
-35.6349 -19.3513 -17.2551 -27.9466 -19.3513 -17.2881 -20.2583 -19.3513 -15.6856 
-12.57 -19.3513 -13.7686 -4.8817 -19.3513 -13.4922 2.8066 -19.3513 -14.5831 
10.4949 -19.3513 -15.8969 18.1832 -19.3513 -16.9841 25.8715 -19.3513 -17.0255 
33.5598 -19.3513 -16.3115 41.2481 -19.3513 -13.4715 -51.0115 -11.663 -13.9177 
-43.3232 -11.663 -18.1329 -35.6349 -11.663 -18.8544 -27.9466 -11.663 -18.1937 
-20.2583 -11.663 -16.2933 -12.57 -11.663 -13.9769 2.8066 -11.663 -16.8541 
10.4949 -11.663 -17.0645 18.1832 -11.663 -17.3736 25.8715 -11.663 -17.0265 
33.5598 -11.663 -16.358 41.2481 -11.663 -14.8068 -51.0115 -3.9747 -15.7975 
-43.3232 -3.9747 -18.5615 -35.6349 -3.9747 -19.7057 -27.9466 -3.9747 -18.4887 
-20.2583 -3.9747 -16.7342 -12.57 -3.9747 -15.0007 -4.8817 -3.9747 -17.8291 
2.8066 -3.9747 -14.9153 10.4949 -3.9747 -18.4269 18.1832 -3.9747 -17.074 
25.8715 -3.9747 -16.8913 33.5598 -3.9747 -16.7374 41.2481 -3.9747 -16.0452 
48.9364 -3.9747 -13.9438 -51.0115 3.71361 -16.4549 -43.3232 3.71361 -18.734 
-35.6349 3.71361 -19.7689 -27.9466 3.71361 -18.5464 -20.2583 3.71361 -16.8552 
-12.57 3.71361 -16.8593 -4.8817 3.71361 -18.944 2.8066 3.71361 -15.5722 
10.4949 3.71361 -18.7493 18.1832 3.71361 -16.956 25.8715 3.71361 -17.1244 
33.5598 3.71361 -17.1755 41.2481 3.71361 -16.2918 48.9364 3.71361 -14.3839 
-51.0115 11.4019 -15.8291 -43.3232 11.4019 -19.5055 -35.6349 11.4019 -19.6176 
-27.9466 11.4019 -18.9364 -20.2583 11.4019 -18.2505 -12.57 11.4019 -18.128 
-4.8817 11.4019 -19.3695 2.8066 11.4019 -18.224 10.4949 11.4019 -18.3765 
18.1832 11.4019 -17.9745 25.8715 11.4019 -17.5731 33.5598 11.4019 -17.2449 
41.2481 11.4019 -15.7971 48.9364 11.4019 -13.421 -51.0115 19.0902 -13.6495 
-43.3232 19.0902 -17.8197 -35.6349 19.0902 -19.0065 -27.9466 19.0902 -19.4411 
-20.2583 19.0902 -19.3029 -12.57 19.0902 -18.9971 -4.8817 19.0902 -17.0975 
2.8066 19.0902 -16.1212 10.4949 19.0902 -17.0393 18.1832 19.0902 -17.9432 
25.8715 19.0902 -17.8022 33.5598 19.0902 -16.631 41.2481 19.0902 -14.7297 
-43.3232 26.7785 -14.595 -35.6349 26.7785 -18.1977 -27.9466 26.7785 -19.0021 
-20.2583 26.7785 -19.1436 -12.57 26.7785 -18.6752 -4.8817 26.7785 -17.1724 
2.8066 26.7785 -15.8192 10.4949 26.7785 -16.1307 18.1832 26.7785 -16.4156 
25.8715 26.7785 -15.7372 33.5598 26.7785 -13.8088 -35.6349 34.4668 -13.4066 
-27.9466 34.4668 -16.3062 -20.2583 34.4668 -17.1532 -12.57 34.4668 -17.0012 
-4.8817 34.4668 -15.783 2.8066 34.4668 -14.4093 10.4949 34.4668 -13.6556 
18.1832 34.4668 -12.8818 -27.9466 -42.4162 -6.82947 -20.2583 -37.1632 -12.4706 
-20.2583 -42.4162 -9.03715 -12.57 -37.1398 -12.4706 -12.57 -42.4162 -10.5216 
-4.8817 -39.6298 -12.4706 -4.8817 -42.4162 -11.4808 2.8066 -40.7052 -12.4706 
2.8066 -42.4162 -11.7193 10.4949 -39.1315 -12.4706 10.4949 -42.4162 -10.3541 
18.1832 -37.1967 -12.4706 18.1832 -42.4162 -7.714 25.8715 -35.3127 -12.4706 
-35.6349 -30.6631 -12.4706 -35.6349 -34.7279 -9.25387 -27.2413 -34.7279 -12.4706 
-27.9466 -34.388 -12.4706 -27.9466 -34.7279 -12.3253 26.8864 -34.7279 -12.4706 
33.5598 -29.8926 -12.4706 33.5598 -34.7279 -7.88545 -40.3307 -27.0396 -12.4706 
-43.3232 -24.4657 -12.4706 -43.3232 -27.0396 -10.0474 36.7783 -27.0396 -12.4706 
41.2481 -21.7353 -12.4706 41.2481 -27.0396 -9.08774 -47.5552 -19.3513 -12.4706 
-51.0115 -13.9647 -12.4706 -51.0115 -19.3513 -5.94768 -4.8817 -13.6051 -12.4706 
43.9235 -19.3513 -12.4706 48.9364 -19.3513 -9.14112 -52.3347 -11.663 -12.4706 
-6.35218 -11.663 -12.4706 -4.18831 -11.663 -12.4706 -4.8817 -11.1129 -12.4706 
-4.8817 -11.663 -12.1167 47.4752 -11.663 -12.4706 48.9364 -9.45485 -12.4706 
48.9364 -11.663 -11.8514 56.6247 -11.663 -6.14408 -55.293 -3.9747 -12.4706 
52.1452 -3.9747 -12.4706 56.6247 -3.9747 -9.4454 -56.6025 3.71361 -12.4706 
-58.6998 3.71361 -5.87409 53.4079 3.71361 -12.4706 56.6247 3.71361 -10.4459 
-55.9727 11.4019 -12.4706 50.7487 11.4019 -12.4706 48.9364 14.1516 -12.4706 
56.6247 11.4019 -8.7403 -52.0769 19.0902 -12.4706 -51.0115 20.7438 -12.4706 
45.9057 19.0902 -12.4706 41.2481 23.6051 -12.4706 48.9364 19.0902 -10.4404 
-46.4041 26.7785 -12.4706 -43.3232 29.7072 -12.4706 25.8715 32.5338 -12.4706 
36.8345 26.7785 -12.4706 33.5598 28.7208 -12.4706 41.2481 26.7785 -9.92369 
-37.1661 34.4668 -12.4706 -35.6349 35.4413 -12.4706 -27.9466 38.8791 -12.4706 
-20.2583 40.7221 -12.4706 -12.57 40.8658 -12.4706 -4.8817 39.4911 -12.4706 
2.8066 37.6553 -12.4706 10.4949 36.223 -12.4706 20.0183 34.4668 -12.4706 
18.1832 34.9435 -12.4706 25.8715 34.4668 -10.6076 33.5598 34.4668 -5.36333 
-27.9466 42.1551 -6.92418 -20.2583 42.1551 -10.2574 -12.57 42.1551 -10.666 
-4.8817 42.1551 -9.24719 2.8066 42.1551 -7.35172 10.4949 42.1551 -4.93852 
-27.9466 -43.7317 -4.78226 -20.2583 -47.1121 -4.78226 -12.57 -48.7045 -4.78226 
-12.57 -50.1045 2.68076 -4.8817 -49.3097 -4.78226 -4.8817 -50.1045 2.55406 
2.8066 -48.7061 -4.78226 10.4949 -46.7621 -4.78226 18.1832 -44.3494 -4.78226 
-30.5192 -42.4162 -4.78226 -35.6349 -39.4362 -4.78226 22.8927 -42.4162 -4.78226 
25.8715 -41.1081 -4.78226 33.5598 -36.8915 -4.78226 -40.3869 -34.7279 -4.78226 
-43.3232 -31.5732 -4.78226 36.8021 -34.7279 -4.78226 41.2481 -31.1078 -4.78226 
-46.5408 -27.0396 -4.78226 -51.0115 -20.0249 -4.78226 45.9565 -27.0396 -4.78226 
48.9364 -23.7939 -4.78226 -51.4105 -19.3513 -4.78226 -51.0115 -19.3513 -3.06432 
52.4671 -19.3513 -4.78226 56.6247 -13.5119 -4.78226 -55.0645 -11.663 -4.78226 
57.6432 -11.663 -4.78226 -57.5462 -3.9747 -4.78226 -58.6998 2.36188 -4.78226 
60.0973 -3.9747 -4.78226 -58.9393 3.71361 -4.78226 -58.6998 6.98742 -4.78226 
-58.6998 3.71361 -3.90408 60.7927 3.71361 -4.78226 -58.3642 11.4019 -4.78226 
59.7057 11.4019 -4.78226 56.6247 17.4971 -4.78226 -55.2216 19.0902 -4.78226 
-51.0115 25.298 -4.78226 55.4539 19.0902 -4.78226 48.9364 26.6919 -4.78226 
56.6247 19.0902 -1.20562 -49.8135 26.7785 -4.78226 -43.3232 33.0987 -4.78226 
48.8261 26.7785 -4.78226 41.2481 30.985 -4.78226 48.9364 26.7785 -4.11003 
-41.7234 34.4668 -4.78226 -35.6349 38.9598 -4.78226 18.1832 40.4467 -4.78226 
25.8715 38.0096 -4.78226 34.3054 34.4668 -4.78226 33.5598 34.7855 -4.78226 
-29.7417 42.1551 -4.78226 -27.9466 43.0336 -4.78226 -20.2583 44.6979 -4.78226 
-12.57 44.9539 -4.78226 -4.8817 44.452 -4.78226 2.8066 43.5263 -4.78226 
10.8671 42.1551 -4.78226 10.4949 42.2357 -4.78226 -12.57 -50.1379 2.90605 
-4.8817 -50.1357 2.90605 -27.9466 -46.4149 2.90605 -12.8817 -50.1045 2.90605 
-20.2583 -49.2675 2.90605 -12.57 -50.1045 3.00266 -4.63269 -50.1045 2.90605 
-4.8817 -50.1045 2.99607 2.8066 -49.12 2.90605 10.4949 -47.4229 2.90605 
18.1832 -44.2917 2.90605 -34.2707 -42.4162 2.90605 -35.6349 -41.2346 2.90605 
22.1846 -42.4162 2.90605 18.1832 -42.4162 6.38007 25.8715 -40.5824 2.90605 
33.5598 -36.5344 2.90605 -41.6081 -34.7279 2.90605 -43.3232 -31.8326 2.90605 
36.6952 -34.7279 2.90605 33.5598 -34.7279 6.25814 41.2481 -31.8162 2.90605 
-45.8805 -27.0396 2.90605 -43.3232 -27.0396 7.66618 47.3486 -27.0396 2.90605 
41.2481 -27.0396 10.0118 48.9364 -25.5881 2.90605 -49.6708 -19.3513 2.90605 
-51.0115 -16.1416 2.90605 54.2595 -19.3513 2.90605 56.6247 -15.9124 2.90605 
-53.1452 -11.663 2.90605 -51.0115 -11.663 5.94459 59.0879 -11.663 2.90605 
56.6247 -11.663 8.67273 -55.367 -3.9747 2.90605 -51.0115 -3.9747 8.7935 
62.2062 -3.9747 2.90605 -56.4148 3.71361 2.90605 -51.0115 3.71361 10.0023 
62.964 3.71361 2.90605 -56.1334 11.4019 2.90605 -51.0115 11.4019 9.44147 
61.3987 11.4019 2.90605 -53.0722 19.0902 2.90605 -51.0115 22.4003 2.90605 
-51.0115 19.0902 5.75944 57.6894 19.0902 2.90605 56.6247 20.3478 2.90605 
56.6247 19.0902 6.03109 -47.8711 26.7785 2.90605 -43.3232 31.8796 2.90605 
-43.3232 26.7785 8.88185 41.2481 32.7981 2.90605 49.7147 26.7785 2.90605 
48.9364 27.3666 2.90605 48.9364 26.7785 6.27941 -40.5902 34.4668 2.90605 
-35.6349 38.474 2.90605 -35.6349 34.4668 10.0219 18.1832 41.531 2.90605 
25.8715 39.0249 2.90605 37.4189 34.4668 2.90605 33.5598 36.0095 2.90605 
33.5598 34.4668 9.47787 -29.5719 42.1551 2.90605 -27.9466 42.9891 2.90605 
-27.9466 42.1551 5.49857 -20.2583 45.1603 2.90605 -12.57 45.6032 2.90605 
-4.8817 45.1538 2.90605 2.8066 44.3439 2.90605 15.0768 42.1551 2.90605 
10.4949 43.0649 2.90605 10.4949 42.1551 8.41005 -27.9466 -42.5106 10.5944 
-20.2583 -45.255 10.5944 -12.57 -46.4381 10.5944 -4.8817 -46.569 10.5944 
2.8066 -45.5665 10.5944 10.4949 -42.8806 10.5944 -28.1183 -42.4162 10.5944 
-35.6349 -36.4372 10.5944 -27.9466 -42.4162 10.7015 -20.2583 -42.4162 12.8605 
-12.57 -42.4162 13.8307 -4.8817 -42.4162 14.1385 2.8066 -42.4162 13.2587 
11.5609 -42.4162 10.5944 10.4949 -42.4162 11.046 18.1832 -38.9968 10.5944 
25.8715 -34.9919 10.5944 -37.029 -34.7279 10.5944 -35.6349 -34.7279 11.8319 
-27.9466 -34.7279 15.469 -20.2583 -34.7279 17.0245 -12.57 -34.7279 16.9167 
-4.8817 -34.7279 17.314 2.8066 -34.7279 16.943 10.4949 -34.7279 15.4443 
18.1832 -34.7279 13.5983 26.5083 -34.7279 10.5944 25.8715 -34.7279 10.8232 
33.5598 -31.6603 10.5944 -41.4655 -27.0396 10.5944 -43.3232 -22.4661 10.5944 
-35.6349 -27.0396 14.9355 -27.9466 -27.0396 16.8649 -20.2583 -27.0396 17.7809 
-12.57 -27.0396 17.4664 -4.8817 -27.0396 17.8497 2.8066 -27.0396 18.2376 
10.4949 -27.0396 17.187 18.1832 -27.0396 16.3416 25.8715 -27.0396 15.299 
40.5477 -27.0396 10.5944 33.5598 -27.0396 13.9892 41.2481 -26.545 10.5944 
48.9364 -20.7868 10.5944 -44.4891 -19.3513 10.5944 -43.3232 -19.3513 11.8307 
-35.6349 -19.3513 15.7844 -27.9466 -19.3513 17.2194 -20.2583 -19.3513 17.21 
-12.57 -19.3513 16.5966 -4.8817 -19.3513 17.1248 2.8066 -19.3513 17.6228 
[...]
POINT_DATA 556
SCALARS ImageScalars float
LOOKUP_TABLE default
0 0 0 0 0 0 0 0 0 
0 0 0 0 0 0 0 0 0 
0 0 0 0 0 0 0 0 0 
0 0 0 0 0 0 0 0 0 
0 0 0 0 0 0 0 0 0 
0 0 0 0 0 0 0 0 0 
0 0 0 0 0 0 0 0 0 
0 0 0 0 0 0 0 0 0 
0 0 0 0 0 0 0 0 0 
0 0 0 0 0 0 0 0 0 
0 0 0 0 0 0 0 0 0 
0 0 0 0 0 0 0 0 0 
0 0 0 0 0 0 0 0 0 
0 0 0 0 0 0 0 0 0 
0 0 0 0 0 0 0 0 0 
0 0 0 0 0 0 0 0 0 
0 0 0 0 0 0 0 0 0 
0 0 0 0 0 0 0 0 0 
0 0 0 0 0 0 0 0 0 
0 0 0 0 0 0 0 0 0 
0 0 0 0 0 0 0 0 0 
0 0 0 0 0 0 0 0 0 
0 0 0 0 0 0 0 0 0 
0 0 0 0 0 0 0 0 0 
0 0 0 0 0 0 0 0 0 
0 0 0 0 0 0 0 0 0 
0 0 0 0 0 0 0 0 0 
0 0 0 0 0 0 0 0 0 
0 0 0 0 0 0 0 0 0 
0 0 0 0 0 0 0 0 0 
0 0 0 0 0 0 0 0 0 
0 0 0 0 0 0 0 0 0 
0 0 0 0 0 0 0 0 0 
0 0 0 0 0 0 0 0 0 
0 0 0 0 0 0 0 0 0 
0 0 0 0 0 0 0 0 0 
0 0 0 0 0 0 0 0 0 
0 0 0 0 0 0 0 0 0 
0 0 0 0 0 0 0 0 0 
0 0 0 0 0 0 0 0 0 
0 0 0 0 0 0 0 0 0 
0 0 0 0 0 0 0 0 0 
0 0 0 0 0 0 0 0 0 
0 0 0 0 0 0 0 0 0 
0 0 0 0 0 0 0 0 0 
0 0 0 0 0 0 0 0 0 
0 0 0 0 0 0 0 0 0 
0 0 0 0 0 0 0 0 0 
0 0 0 0 0 0 0 0 0 
0 0 0 0 0 0 0 0 0 
0 0 0 0 0 0 0 0 0 
0 0 0 0 0 0 0 0 0 
0 0 0 0 0 0 0 0 0 
0 0 0 0 0 0 0 0 0 
0 0 0 0 0 0 0 0 0 
0 0 0 0 0 0 0 0 0 
0 0 0 0 0 0 0 0 0 
0 0 0 0 0 0 0 0 0 
0 0 0 0 0 0 0 0 0 
0 0 0 0 0 0 0 0 0 
0 0 0 0 0 0 0 0 0 
0 0 0 0 0 0 0 
NORMALS Normals float
-0.0450251 -0.289363 -0.95616 -0.0205386 -0.19567 -0.980455 -0.0751482 -0.169455 -0.982669 
-0.0388531 -0.185328 -0.981908 0.0196864 -0.315619 -0.948682 0.109754 -0.399548 -0.910118 
0.258197 -0.527853 -0.809139 -0.230668 -0.423765 -0.875908 0.00397573 -0.284704 -0.958607 
0.0996046 -0.133517 -0.986028 0.0181195 -0.0309206 -0.999358 -0.0581666 0.0351489 -0.997688 
-0.11468 -0.0139521 -0.993305 -0.0851097 -0.0712291 -0.993822 0.0194328 -0.180173 -0.983443 
0.127139 -0.250791 -0.959656 0.322196 -0.37371 -0.869788 -0.405315 -0.389029 -0.82727 
-0.0958056 -0.27308 -0.957209 0.104575 -0.168252 -0.980181 0.214553 -0.117273 -0.969646 
0.141076 -0.00570049 -0.989982 -0.0543058 0.101181 -0.993385 -0.156217 -0.105088 -0.982116 
-0.154814 -0.0666794 -0.985691 -0.0724574 -0.0822877 -0.993971 0.0397073 -0.0914444 -0.995018 
0.228734 -0.148811 -0.962048 0.348551 -0.274516 -0.896188 -0.682339 -0.361896 -0.635173 
-0.242268 -0.196279 -0.950148 0.0025794 -0.160908 -0.986966 0.161652 -0.0711854 -0.984277 
0.273157 -0.0687983 -0.959506 0.224187 -0.0708028 -0.971971 -0.19501 -0.0650065 -0.978645 
-0.0323285 -0.170482 -0.98483 0.00387324 -0.00584417 -0.999975 0.0650178 0.00872468 -0.997846 
0.138187 -0.0269685 -0.990039 0.255818 -0.159461 -0.953483 -0.539222 -0.126806 -0.832562 
-0.227152 -0.0347413 -0.973239 0.000161772 -0.0590663 -0.998254 0.192122 -0.0225866 -0.981111 
0.206499 -0.0357623 -0.977793 -0.0443147 -0.174227 -0.983708 -0.0220921 -0.310349 -0.950366 
-0.0911824 0.0921779 -0.991559 -0.0771398 -0.106854 -0.991278 0.100468 0.0274129 -0.994563 
0.0217372 -0.00636935 -0.999743 0.0536424 -0.0527068 -0.997168 0.168232 -0.094015 -0.981254 
0.352569 -0.143779 -0.924674 -0.466092 -0.000726733 -0.884736 -0.199181 -0.0529384 -0.978532 
0.00589702 0.00568659 -0.999966 0.186175 -0.0289007 -0.982091 0.112021 -0.100396 -0.988621 
-0.113769 -0.211284 -0.970781 0.0719677 -0.108201 -0.991521 -0.0580408 -0.229094 -0.971672 
-0.0341233 0.00336068 -0.999412 0.103537 -0.0591062 -0.992868 -0.0141695 -0.0442794 -0.998919 
0.0525107 -0.0329462 -0.998077 0.169679 0.0155618 -0.985377 0.335155 0.0293385 -0.941706 
-0.509587 0.135735 -0.849646 -0.223121 0.0367104 -0.974099 0.0384727 0.0492073 -0.998047 
0.0874485 -0.0578799 -0.994486 0.0526478 -0.158525 -0.98595 -0.0614946 -0.122066 -0.990615 
-0.0198171 0.137046 -0.990366 0.0577619 0.0137232 -0.998236 0.0183566 0.112428 -0.99349 
0.0521167 -0.0639288 -0.996593 0.0468456 -0.0434232 -0.997958 0.113161 0.0368328 -0.992894 
0.226528 0.101018 -0.968752 0.380689 0.2014 -0.902504 -0.654341 0.403493 -0.639556 
-0.271375 0.303226 -0.91346 -0.0948872 0.083103 -0.992013 -0.0187031 -0.00544261 -0.99981 
0.0295047 -0.0595574 -0.997789 0.140652 -0.0354442 -0.989424 0.188858 0.121012 -0.97452 
0.00320948 0.132124 -0.991228 -0.117477 0.149128 -0.981815 -0.0500248 0.0955324 -0.994169 
0.0860187 0.112338 -0.98994 0.193619 0.196812 -0.961133 0.334069 0.274526 -0.901684 
-0.482651 0.480858 -0.732 -0.25796 0.304293 -0.916986 -0.0529225 0.173447 -0.98342 
0.0209473 0.129025 -0.99142 0.121767 0.12366 -0.984825 0.188212 0.0825109 -0.978656 
0.0600544 0.111002 -0.992004 -0.0362017 0.205092 -0.978073 0.023044 0.288453 -0.957217 
0.15128 0.370871 -0.91628 0.293941 0.484773 -0.823768 -0.396018 0.640922 -0.657563 
-0.209573 0.515192 -0.831057 -0.036266 0.426441 -0.903788 0.0856765 0.391165 -0.916324 
0.167941 0.358782 -0.918189 0.132366 0.368992 -0.919959 0.0890389 0.476356 -0.874733 
0.147013 0.593384 -0.79138 -0.34431 -0.759553 -0.551842 -0.0614224 -0.379162 -0.92329 
-0.161736 -0.621819 -0.766278 -0.0494202 -0.280457 -0.958594 -0.141715 -0.507333 -0.850017 
-0.0767106 -0.324677 -0.942709 -0.0678374 -0.445715 -0.892601 0.0251985 -0.39451 -0.918546 
0.050387 -0.485546 -0.872758 0.107979 -0.465753 -0.878302 0.183092 -0.644888 -0.742022 
0.149276 -0.509511 -0.847417 0.308047 -0.830752 -0.463636 0.267604 -0.553825 -0.788458 
-0.309465 -0.504889 -0.805803 -0.466613 -0.616451 -0.634241 -0.224468 -0.373173 -0.900198 
-0.23171 -0.377417 -0.896586 -0.244095 -0.385098 -0.89001 0.285726 -0.548588 -0.785756 
0.383894 -0.477793 -0.790151 0.504654 -0.739188 -0.446011 -0.444034 -0.522508 -0.727886 
-0.536429 -0.51636 -0.667545 -0.642379 -0.57726 -0.504104 0.420226 -0.427731 -0.800285 
0.402824 -0.348881 -0.846177 0.573303 -0.564079 -0.594255 -0.633922 -0.464665 -0.618247 
-0.724505 -0.427495 -0.540684 -0.872866 -0.473969 -0.116015 -0.139384 -0.1681 -0.975866 
0.412318 -0.319895 -0.853031 0.616976 -0.459411 -0.63897 -0.743489 -0.399542 -0.536274 
-0.0704946 -0.242934 -0.967478 -0.189768 -0.261886 -0.946258 -0.157856 -0.30395 -0.939519 
-0.168829 -0.277987 -0.945632 0.400756 -0.201123 -0.893837 0.410908 -0.194214 -0.89075 
0.449383 -0.227355 -0.863924 0.779311 -0.37784 -0.499912 -0.784137 -0.20589 -0.585439 
0.467672 -0.168577 -0.867678 0.693909 -0.188403 -0.694978 -0.806915 -0.0366439 -0.589529 
-0.997639 -0.0519848 -0.0448849 0.497977 0.0460157 -0.865968 0.66115 0.0411306 -0.749126 
-0.764308 0.223815 -0.604765 0.435561 0.215867 -0.873893 0.424726 0.267164 -0.865003 
0.705437 0.261774 -0.65866 -0.699565 0.437258 -0.565167 -0.688192 0.459662 -0.56134 
0.441443 0.346066 -0.827869 0.388692 0.472188 -0.791174 0.52995 0.420804 -0.736259 
-0.600289 0.534451 -0.594992 -0.530756 0.601151 -0.597423 0.233362 0.605344 -0.760987 
0.347355 0.543157 -0.764412 0.325094 0.564497 -0.75872 0.421564 0.649359 -0.632944 
-0.435837 0.670507 -0.600388 -0.410188 0.679219 -0.608611 -0.264216 0.724708 -0.636387 
-0.0951198 0.746059 -0.659051 0.051512 0.730402 -0.681072 0.140236 0.644332 -0.751778 
0.139598 0.545907 -0.826135 0.115281 0.560392 -0.820165 0.17677 0.618726 -0.765461 
0.15509 0.616369 -0.772034 0.278887 0.725864 -0.628763 0.389251 0.855462 -0.341566 
-0.328111 0.896078 -0.298978 -0.107556 0.850647 -0.514618 0.0370102 0.830952 -0.555112 
0.114556 0.851929 -0.510974 0.147004 0.883753 -0.444264 0.187038 0.932356 -0.309402 
-0.381365 -0.812912 -0.440154 -0.268263 -0.810814 -0.520208 -0.11593 -0.886964 -0.447051 
-0.0547073 -0.994906 0.084675 0.00250065 -0.932754 -0.360506 0.0609064 -0.992052 0.110108 
0.155542 -0.937248 -0.312047 0.263513 -0.905115 -0.333657 0.33317 -0.901147 -0.277366 
-0.430361 -0.79441 -0.428605 -0.552684 -0.727769 -0.40607 0.387282 -0.886734 -0.252418 
0.425099 -0.873477 -0.237338 0.524577 -0.814721 -0.24708 -0.675196 -0.649799 -0.3491 
-0.745094 -0.614688 -0.258832 0.566604 -0.780011 -0.265598 0.618457 -0.718405 -0.318444 
-0.809687 -0.558705 -0.179602 -0.880314 -0.471001 -0.0566073 0.660915 -0.657923 -0.361011 
0.693385 -0.617842 -0.370794 -0.883436 -0.466 -0.0488301 -0.891559 -0.451242 0.0387715 
0.733404 -0.562007 -0.382449 0.802046 -0.430906 -0.413574 -0.91983 -0.392056 -0.0143 
0.821544 -0.383137 -0.422223 -0.974049 -0.224725 0.0269785 -0.996378 -0.079744 0.02953 
0.854131 -0.194859 -0.482173 -0.998393 -0.0515033 0.0236455 -0.997363 0.0648416 0.0326013 
-0.995829 -0.0523764 0.0747062 0.871458 0.0308609 -0.489497 -0.974188 0.223164 0.0339962 
0.857789 0.265652 -0.44003 0.748856 0.515953 -0.415941 -0.885154 0.464859 -0.0202321 
-0.786627 0.616676 -0.0304919 0.708928 0.568151 -0.417882 0.587808 0.732327 -0.343773 
0.777024 0.597481 -0.198117 -0.757756 0.65162 -0.0345887 -0.654495 0.751627 -0.0818043 
0.585536 0.734562 -0.342879 0.463649 0.800955 -0.378816 0.591497 0.744767 -0.308955 
-0.626246 0.773991 -0.0935578 -0.510514 0.847831 -0.143376 0.255696 0.912613 -0.318995 
0.331877 0.892775 -0.304647 0.397591 0.860306 -0.319052 0.389884 0.864923 -0.316067 
-0.379051 0.907068 -0.183163 -0.337745 0.921323 -0.192593 -0.128028 0.963892 -0.233499 
0.0164402 0.969053 -0.246305 0.0922381 0.957343 -0.273838 0.142135 0.942351 -0.302939 
0.190689 0.934262 -0.301317 0.187263 0.934939 -0.301366 -0.0529561 -0.993781 0.0979513 
0.0630249 -0.989562 0.129598 -0.431611 -0.90052 0.0526864 -0.0603552 -0.993425 0.0972847 
-0.241362 -0.967139 0.0799166 -0.0530814 -0.993206 0.103558 0.0667998 -0.989276 0.12989 
0.0629195 -0.988942 0.134292 0.178875 -0.973155 0.144819 0.295967 -0.937998 0.180454 
0.412663 -0.879241 0.238002 -0.629705 -0.77398 0.066538 -0.672007 -0.736204 0.0800636 
0.428316 -0.867936 0.251461 0.401023 -0.813409 0.421363 0.428659 -0.861169 0.273201 
0.490007 -0.837418 0.242126 -0.808479 -0.573532 0.131995 -0.837406 -0.517011 0.177345 
0.523028 -0.823664 0.219133 0.440943 -0.796201 0.414285 0.56384 -0.804741 0.185681 
-0.851212 -0.464023 0.245193 -0.796052 -0.379064 0.471817 0.65376 -0.742031 0.148283 
0.469741 -0.656681 0.590012 0.688111 -0.714319 0.127481 -0.861716 -0.373921 0.342972 
-0.854778 -0.369419 0.364532 0.785531 -0.611695 0.0936548 0.835018 -0.541542 0.0973535 
-0.843873 -0.352905 0.40415 -0.783332 -0.318783 0.533637 0.887724 -0.450461 0.0950286 
0.756116 -0.456042 0.469376 -0.869152 -0.185503 0.458437 -0.693998 -0.157966 0.702434 
0.970739 -0.231313 0.0644987 -0.857364 -0.0502473 0.512253 -0.66115 -0.0274129 0.749753 
0.996671 0.0484316 0.065579 -0.861979 0.19697 0.467113 -0.638255 0.170386 0.750732 
0.954008 0.294316 0.0569826 -0.796647 0.444662 0.409426 -0.766201 0.503436 0.39936 
-0.718925 0.424256 0.550594 0.808632 0.587218 0.0359033 0.788023 0.614835 0.0315813 
0.786265 0.577924 0.218609 -0.735752 0.573466 0.360285 -0.67897 0.671973 0.295724 
-0.655664 0.447683 0.608017 0.472455 0.880968 0.0261033 0.607892 0.79323 0.0354116 
0.591297 0.805689 0.0351078 0.597359 0.776092 0.202097 -0.638787 0.724172 0.259859 
-0.572668 0.792351 0.210313 -0.588978 0.592349 0.549753 0.250765 0.967696 0.0261221 
0.332396 0.941978 0.0467988 0.421344 0.906469 0.0279798 0.383066 0.923116 0.0334256 
0.355387 0.851007 0.386636 -0.41711 0.89548 0.155352 -0.376933 0.914399 0.147635 
-0.394938 0.881365 0.259267 -0.162849 0.982525 0.0901328 0.00125044 0.998235 0.0593776 
0.0825617 0.995349 0.0496464 0.132805 0.990265 0.0416939 0.220894 0.974992 0.0244169 
0.179147 0.98345 0.027053 0.172775 0.943523 0.282691 -0.344859 -0.722038 0.599778 
-0.196552 -0.701559 0.684969 -0.0619816 -0.745404 0.663726 0.0421467 -0.765589 0.641948 
0.190864 -0.735019 0.650629 0.292835 -0.668415 0.683717 -0.34961 -0.719727 0.599805 
-0.595843 -0.534398 0.599491 -0.343322 -0.718118 0.605339 -0.152503 -0.580488 0.79986 
-0.074311 -0.546342 0.834259 0.0315096 -0.551499 0.83358 0.170568 -0.591479 0.788073 
0.29918 -0.665999 0.683327 0.286699 -0.650008 0.703771 0.328904 -0.632504 0.701256 
0.308012 -0.624371 0.717837 -0.624416 -0.491789 0.606835 -0.576167 -0.473219 0.666405 
-0.258972 -0.301635 0.917578 -0.0919547 -0.277874 0.956206 -0.0180197 -0.209565 0.977629 
-0.00454211 -0.221324 0.97519 0.115129 -0.286727 0.951069 0.201221 -0.335102 0.920444 
0.258111 -0.455342 0.852081 0.309503 -0.628392 0.713675 0.303282 -0.616401 0.726685 
0.34164 -0.660037 0.669054 -0.693842 -0.300534 0.654418 -0.69096 -0.256499 0.675857 
-0.430512 -0.192172 0.88189 -0.17293 -0.109388 0.978841 -0.042858 -0.00595367 0.999063 
-0.00478268 0.0188941 0.99981 -0.0497715 0.013756 0.998666 0.0428308 -0.0393912 0.998305 
0.119305 -0.0987713 0.987933 0.119707 -0.24374 0.962424 0.138822 -0.383401 0.913089 
0.446301 -0.634608 0.630942 0.259655 -0.505338 0.822929 0.452762 -0.630019 0.630938 
0.579451 -0.542875 0.607885 -0.667953 -0.227307 0.708639 -0.629805 -0.200138 0.750527 
-0.298442 -0.0523086 0.952993 -0.0849156 -0.025782 0.996055 0.040133 0.078504 0.996106 
0.00578099 0.168814 0.985631 -0.0675547 0.0869282 0.993921 0.00204114 0.0782285 0.996933 
0.000640148 0.033124 0.999451 -0.0375572 -0.112423 0.99295 0.0362213 -0.21791 0.975296 
0.143385 -0.297063 0.944031 0.29856 -0.380014 0.875472 0.608665 -0.514495 0.604005 
0.562161 -0.493542 0.66362 -0.592952 -0.182846 0.784204 -0.496388 -0.104137 0.861832 
-0.267304 -0.018831 0.963428 -0.0541339 0.038315 0.997798 0.158172 0.0749981 0.984559 
0.00630574 0.0789909 0.996855 -0.149392 -0.0281924 0.988376 -0.0103833 0.0631667 0.997949 
-0.0716963 -0.0932589 0.993057 -0.145525 -0.0533933 0.987913 0.242771 -0.207498 0.947632 
0.662115 -0.426233 0.616385 0.437514 -0.300579 0.847487 0.699798 -0.392567 0.596803 
-0.589226 -0.13897 0.795927 -0.409253 -0.0889332 0.908076 -0.180038 -0.0393904 0.982871 
-0.00332672 -0.00538129 0.99998 0.0722521 -0.0582538 0.995684 -0.0867812 -0.23624 0.967812 
-0.0759965 -0.0882028 0.993199 -0.0654573 -0.0565385 0.996252 0.325984 -0.148282 0.933674 
0.796312 -0.231026 0.55903 0.630161 -0.231102 0.741275 -0.627484 -0.0236602 0.77827 
-0.375403 -0.00510929 0.926848 -0.200334 -0.0329698 0.979173 -0.0644509 -0.0897855 0.993874 
-0.0638327 -0.158499 0.985294 0.0218051 0.0655821 0.997609 -0.127825 -0.161113 0.978623 
0.308811 -0.00226283 0.951121 0.832361 0.0371094 0.55299 0.617786 0.0305559 0.785752 
-0.570821 0.161182 0.805098 -0.417869 0.110086 0.901813 -0.261118 -0.00430177 0.965297 
-0.130198 -0.0803123 0.98823 0.106025 -0.0386632 0.993612 -0.070043 -0.0476258 0.996406 
0.359762 0.0923001 0.928468 0.785785 0.275834 0.553587 0.732094 0.421169 0.535402 
0.689137 0.261995 0.67561 -0.552963 0.290291 0.781001 -0.595011 0.347581 0.724672 
-0.52003 0.23943 0.819904 -0.366013 0.0970872 0.925531 0.686747 0.512164 0.515816 
0.578988 0.680554 0.44902 0.486577 0.368652 0.792047 -0.612077 0.395678 0.684691 
-0.583447 0.565067 0.583343 -0.470253 0.301877 0.829296 -0.251803 0.163396 0.953885 
0.0728913 0.281987 0.956645 0.347751 0.822775 0.449568 0.214853 0.436734 0.873557 
0.54995 0.704922 0.447929 0.444618 0.751869 0.486835 0.396864 0.607486 0.688084 
-0.578997 0.578201 0.574844 -0.427371 0.742261 0.516142 -0.388805 0.455513 0.800836 
-0.167747 0.348922 0.922017 0.16836 0.900845 0.400166 0.154361 0.449135 0.880028 
0.264361 0.851295 0.453223 0.193624 0.545017 0.815761 0.343513 0.826157 0.446614 
0.31912 0.83633 0.445775 0.27795 0.70402 0.653528 -0.290631 0.832186 0.47223 
-0.207432 0.863268 0.460153 -0.212631 0.81705 0.535927 -0.0254013 0.904476 0.425768 
-0.0389067 0.811943 0.582439 0.0726384 0.913292 0.400775 0.0623547 0.842173 0.53559 
0.147125 0.908641 0.390801 0.115909 0.91172 0.394123 0.114214 0.884386 0.452566 
-0.0111438 -0.152558 0.988232 0.0993202 -0.205197 0.973668 -0.107514 -0.177969 0.978145 
-0.1297 -0.0597617 0.989751 -0.0893211 -0.0390703 0.995236 -0.0599785 -0.0882858 0.994288 
0.17525 -0.182002 0.967555 0.0766249 -0.146359 0.986259 0.188441 -0.140597 0.971968 
-0.0342648 -0.143216 0.989098 -0.103143 -0.172568 0.979582 -0.114016 -0.195673 0.974019 
-0.0225216 -0.022211 0.9995 -0.0551482 -0.0216842 0.998243 0.0193369 -0.0429123 0.998892 
0.186819 -0.100405 0.97725 0.144874 -0.0903552 0.985316 -0.0344123 -0.141508 0.989339 
-0.00486085 -0.140004 0.990139 -0.0246984 -0.110764 0.99354 -0.0121817 -0.126013 0.991954 
-0.0318631 -0.139276 0.989741 -0.1145 -0.140064 0.9835 -0.124191 -0.143068 0.98189 
-0.0194063 0.00557618 0.999796 0.022916 -0.0159708 0.99961 -0.0816436 -0.0348088 0.996054 
0.00152059 -0.0375496 0.999294 0.230214 -0.0113668 0.973074 0.147809 -0.0190439 0.988833 
-0.0565488 -0.109297 0.992399 -0.157621 -0.0304919 0.987029 0.0455052 -0.10142 0.993802 
0.0127515 -0.134641 0.990812 0.0897714 -0.0731258 0.993274 -0.100319 -0.0697143 0.99251 
-0.0328321 -0.141646 0.989373 -0.111923 -0.0804559 0.990454 0.0156418 0.026887 0.999516 
-0.0593441 -0.0476818 0.997098 -0.0755742 -0.0163047 0.997007 0.0374735 0.00854647 0.999261 
0.237397 0.0528723 0.969973 0.177239 0.0502277 0.982885 -0.208517 0.0285003 0.977603 
-0.203468 0.0638466 0.976998 -0.184303 0.0194306 0.982677 -0.0258707 -0.0338251 0.999093 
0.0664711 -0.120666 0.990465 -0.0275426 -0.154207 0.987655 -0.0457606 -0.0391632 0.998184 
0.0106676 -0.0674292 0.997667 -0.0194045 -0.00220163 0.999809 0.0682344 0.272586 0.959709 
-0.0255129 0.0808149 0.996403 0.159858 0.33352 0.929091 0.0740678 0.153131 0.985426 
0.216489 0.259678 0.941116 0.205464 0.267439 0.941414 0.199193 0.254079 0.946449 
-0.189539 0.138107 0.972112 -0.142024 0.227947 0.96326 -0.119015 0.109878 0.986794 
-0.0169152 0.014485 0.999752 0.00657165 -0.0167245 0.999839 -0.0240708 0.0566531 0.998104 
0.119861 0.323166 0.938721 0.051999 0.0887913 0.994692 0.0740173 0.270795 0.959787 
0.104239 0.234997 0.96639 0.0889054 0.180505 0.979548 -0.101042 0.319589 0.942153 
-0.0745414 0.340379 0.937329 -0.0731702 0.31459 0.946403 0.00673493 0.326569 0.945149 
0.00684372 0.275325 0.961327 0.0922859 0.355035 0.930287 0.0747138 0.351439 0.933225 
0.0701955 0.328758 0.941802 
