# vtk DataFile Version 4.2
vtk output
ASCII
DATASET POLYDATA
POINTS 518 float
-13.5024 -42.9338 -16.8391 -5.52571 -42.9338 -19.1166 2.45097 -42.9338 -19.5554 
10.4276 -42.9338 -18.3084 -21.4791 -34.9571 -18.6504 -13.5024 -34.9571 -21.0961 
-5.52571 -34.9571 -22.0501 2.45097 -34.9571 -21.9372 10.4276 -34.9571 -21.5601 
18.4043 -34.9571 -20.7881 26.381 -34.9571 -18.1141 -29.4557 -26.9804 -17.8103 
-21.4791 -26.9804 -20.9676 -13.5024 -26.9804 -22.3804 -5.52571 -26.9804 -22.8923 
2.45097 -26.9804 -22.5951 10.4276 -26.9804 -22.3954 18.4043 -26.9804 -22.8746 
26.381 -26.9804 -21.7588 34.3577 -26.9804 -20.349 -37.4324 -19.0037 -16.1617 
-29.4557 -19.0037 -19.4865 -21.4791 -19.0037 -21.3039 -13.5024 -19.0037 -22.3849 
-5.52571 -19.0037 -22.2461 2.45097 -19.0037 -21.8552 10.4276 -19.0037 -22.2127 
18.4043 -19.0037 -22.9633 26.381 -19.0037 -22.7762 34.3577 -19.0037 -22.4489 
42.3343 -19.0037 -20.1036 -37.4324 -11.0271 -18.1491 -29.4557 -11.0271 -20.1309 
-21.4791 -11.0271 -20.7248 -13.5024 -11.0271 -21.5079 -5.52571 -11.0271 -22.0097 
2.45097 -11.0271 -22.663 10.4276 -11.0271 -21.8722 18.4043 -11.0271 -22.0343 
26.381 -11.0271 -23.0159 34.3577 -11.0271 -23.523 42.3343 -11.0271 -21.9584 
50.311 -11.0271 -17.1742 -37.4324 -3.0504 -19.1306 -29.4557 -3.0504 -20.544 
-21.4791 -3.0504 -20.4557 -13.5024 -3.0504 -20.9607 -5.52571 -3.0504 -21.0363 
2.45097 -3.0504 -23.1608 10.4276 -3.0504 -22.915 18.4043 -3.0504 -21.249 
26.381 -3.0504 -22.85 34.3577 -3.0504 -23.601 42.3343 -3.0504 -22.4527 
50.311 -3.0504 -17.9975 -37.4324 4.92628 -18.751 -29.4557 4.92628 -20.1993 
-21.4791 4.92628 -20.6309 -13.5024 4.92628 -21.7484 -5.52571 4.92628 -20.3285 
2.45097 4.92628 -21.042 10.4276 4.92628 -23.101 18.4043 4.92628 -21.892 
26.381 4.92628 -22.8289 34.3577 4.92628 -23.2384 42.3343 4.92628 -21.9392 
50.311 4.92628 -17.4213 -37.4324 12.903 -17.1105 -29.4557 12.903 -18.8415 
-21.4791 12.903 -19.6879 -13.5024 12.903 -20.4408 -5.52571 12.903 -20.1071 
2.45097 12.903 -20.4234 10.4276 12.903 -21.6361 18.4043 12.903 -21.791 
26.381 12.903 -22.0838 34.3577 12.903 -21.7087 42.3343 12.903 -19.8188 
-29.4557 20.8796 -16.9503 -21.4791 20.8796 -17.8732 -13.5024 20.8796 -18.1871 
-5.52571 20.8796 -18.4567 2.45097 20.8796 -18.6671 10.4276 20.8796 -19.1328 
18.4043 20.8796 -19.7357 26.381 20.8796 -20.072 34.3577 20.8796 -19.0761 
-13.5024 28.8563 -16.3324 -5.52571 28.8563 -16.5635 2.45097 28.8563 -16.6054 
10.4276 28.8563 -16.6934 18.4043 28.8563 -16.639 26.381 28.8563 -16.5604 
-13.5024 -43.9156 -15.9276 -5.52571 -46.8664 -15.9276 2.45097 -47.6383 -15.9276 
2.45097 -50.9104 -9.20998 10.4276 -45.7844 -15.9276 -15.2916 -42.9338 -15.9276 
-21.4791 -38.6687 -15.9276 -21.4791 -42.9338 -9.71865 16.6734 -42.9338 -15.9276 
18.4043 -41.9328 -15.9276 18.4043 -42.9338 -14.4867 26.381 -37.5552 -15.9276 
-25.8722 -34.9571 -15.9276 -29.4557 -30.7982 -15.9276 -29.4557 -34.9571 -12.2935 
30.6633 -34.9571 -15.9276 34.3577 -32.6913 -15.9276 34.3577 -34.9571 -10.5063 
-32.4776 -26.9804 -15.9276 -37.4324 -19.5732 -15.9276 -37.4324 -26.9804 -11.1002 
42.2227 -26.9804 -15.9276 42.3343 -26.8616 -15.9276 42.3343 -26.9804 -15.7158 
-37.8192 -19.0037 -15.9276 -45.4091 -19.0037 -8.78846 47.8679 -19.0037 -15.9276 
50.311 -13.904 -15.9276 50.311 -19.0037 -9.72977 -41.8287 -11.0271 -15.9276 
-45.4091 -11.0271 -13.4539 51.3532 -11.0271 -15.9276 -44.3901 -3.0504 -15.9276 
-45.4091 -3.0504 -15.3559 52.0828 -3.0504 -15.9276 -43.7954 4.92628 -15.9276 
-45.4091 4.92628 -15.0628 51.5784 4.92628 -15.9276 50.311 8.36393 -15.9276 
-40.7036 12.903 -15.9276 -45.4091 12.903 -13.5613 -37.4324 16.7429 -15.9276 
47.9965 12.903 -15.9276 42.3343 20.6324 -15.9276 50.311 12.903 -12.2861 
-45.4091 20.8796 -8.4884 -32.9717 20.8796 -15.9276 -37.4324 20.8796 -14.4927 
-29.4557 23.5863 -15.9276 -21.4791 27.0912 -15.9276 42.0223 20.8796 -15.9276 
34.3577 26.6162 -15.9276 42.3343 20.8796 -15.7437 -37.4324 28.8563 -9.95212 
-29.4557 28.8563 -13.8026 -16.9411 28.8563 -15.9276 -21.4791 28.8563 -15.3574 
-13.5024 29.8911 -15.9276 -5.52571 30.6455 -15.9276 2.45097 30.5542 -15.9276 
10.4276 30.4788 -15.9276 18.4043 30.1248 -15.9276 29.1776 28.8563 -15.9276 
26.381 29.8587 -15.9276 34.3577 28.8563 -14.3433 -29.4557 36.833 -7.98485 
-21.4791 36.833 -11.3866 -13.5024 36.833 -12.7215 -5.52571 36.833 -13.3823 
2.45097 36.833 -13.0047 10.4276 36.833 -12.3047 18.4043 36.833 -11.5374 
26.381 36.833 -10.0386 2.45097 -51.3593 -7.95092 -21.4791 -43.7801 -7.95092 
-13.5024 -48.0566 -7.95092 -2.27697 -50.9104 -7.95092 -5.52571 -50.602 -7.95092 
4.44499 -50.9104 -7.95092 10.4276 -49.4459 -7.95092 18.4043 -45.7805 -7.95092 
-22.7493 -42.9338 -7.95092 -29.4557 -37.8346 -7.95092 23.1538 -42.9338 -7.95092 
26.381 -40.8168 -7.95092 34.3577 -35.8539 -7.95092 -32.5593 -34.9571 -7.95092 
-37.4324 -29.7207 -7.95092 35.704 -34.9571 -7.95092 34.3577 -34.9571 -2.1377 
42.3343 -29.8603 -7.95092 -39.8103 -26.9804 -7.95092 -45.4091 -19.8279 -7.95092 
45.2292 -26.9804 -7.95092 50.311 -19.923 -7.95092 -45.9932 -19.0037 -7.95092 
50.8524 -19.0037 -7.95092 50.311 -19.0037 -4.28265 -50.2971 -11.0271 -7.95092 
53.7906 -11.0271 -7.95092 -51.8663 -3.0504 -7.95092 -53.3857 -3.0504 -1.46626 
54.9787 -3.0504 -7.95092 -51.8608 4.92628 -7.95092 -53.3857 4.92628 -0.703892 
54.5846 4.92628 -7.95092 -49.8208 12.903 -7.95092 52.1228 12.903 -7.95092 
50.311 16.7045 -7.95092 -45.8489 20.8796 -7.95092 -45.4091 21.5503 -7.95092 
48.0549 20.8796 -7.95092 42.3343 28.3139 -7.95092 -39.6519 28.8563 -7.95092 
-37.4324 31.0882 -7.95092 41.7444 28.8563 -7.95092 34.3577 34.8226 -7.95092 
42.3343 28.8563 -6.33749 -29.509 36.833 -7.95092 -29.4557 36.8654 -7.95092 
-21.4791 40.1561 -7.95092 -13.5024 42.182 -7.95092 -5.52571 42.8086 -7.95092 
2.45097 42.2058 -7.95092 10.4276 41.4737 -7.95092 18.4043 40.3016 -7.95092 
30.3279 36.833 -7.95092 26.381 38.566 -7.95092 34.3577 36.833 -3.5126 
-13.5024 44.8096 -3.31285 -5.52571 44.8096 -4.53702 2.45097 44.8096 -3.66941 
10.4276 44.8096 -2.35757 18.4043 44.8096 -0.133963 2.45097 -50.9512 0.025749 
-21.4791 -44.1439 0.025749 -13.5024 -47.9406 0.025749 1.86896 -50.9104 0.025749 
-5.52571 -50.3329 0.025749 2.60899 -50.9104 0.025749 2.45097 -50.9104 0.102458 
10.4276 -48.4969 0.025749 18.4043 -43.9962 0.025749 -23.5281 -42.9338 0.025749 
-29.4557 -39.1683 0.025749 -21.4791 -42.9338 3.77505 10.4276 -42.9338 7.95217 
20.2324 -42.9338 0.025749 18.4043 -42.9338 1.64668 26.381 -39.2352 0.025749 
-34.5955 -34.9571 0.025749 -37.4324 -32.2562 0.025749 33.7546 -34.9571 0.025749 
26.381 -34.9571 5.74654 34.3577 -34.589 0.025749 42.3343 -28.0639 0.025749 
-42.2108 -26.9804 0.025749 -45.4091 -23.0924 0.025749 43.3971 -26.9804 0.025749 
42.3343 -26.9804 1.52949 -48.2257 -19.0037 0.025749 49.5735 -19.0037 0.025749 
50.311 -17.2173 0.025749 -52.5624 -11.0271 0.025749 -53.3857 -5.50019 0.025749 
52.4293 -11.0271 0.025749 50.311 -11.0271 3.97783 -53.6925 -3.0504 0.025749 
-53.3857 -3.0504 1.84818 54.0702 -3.0504 0.025749 50.311 -3.0504 7.5405 
-53.522 4.92628 0.025749 -53.3857 5.57289 0.025749 -53.3857 4.92628 0.70372 
54.1747 4.92628 0.025749 -51.8172 12.903 0.025749 52.1827 12.903 0.025749 
50.311 17.5755 0.025749 50.311 12.903 4.88308 -48.623 20.8796 0.025749 
-45.4091 26.22 0.025749 48.8625 20.8796 0.025749 -43.5475 28.8563 0.025749 
-37.4324 35.6795 0.025749 44.0879 28.8563 0.025749 42.3343 31.0076 0.025749 
42.3343 28.8563 5.78713 -35.9707 36.833 0.025749 -29.4557 41.186 0.025749 
-21.4791 44.576 0.025749 26.381 42.7729 0.025749 36.2682 36.833 0.025749 
34.3577 38.4675 0.025749 -20.4786 44.8096 0.025749 -13.5024 46.2564 0.025749 
-5.52571 46.8626 0.025749 2.45097 46.6016 0.025749 10.4276 45.9163 0.025749 
18.7303 44.8096 0.025749 18.4043 44.8849 0.025749 -13.5024 -44.5401 8.00242 
-5.52571 -46.155 8.00242 2.45097 -45.7218 8.00242 -29.4557 -37.1722 8.00242 
-17.8391 -42.9338 8.00242 -21.4791 -41.5039 8.00242 -13.5024 -42.9338 10.3578 
-5.52571 -42.9338 11.873 10.3248 -42.9338 8.00242 2.45097 -42.9338 10.9967 
10.4276 -42.8798 8.00242 18.4043 -37.4667 8.00242 -32.4177 -34.9571 8.00242 
-37.4324 -30.827 8.00242 -29.4557 -34.9571 11.4235 10.4276 -34.9571 13.1098 
22.7106 -34.9571 8.00242 18.4043 -34.9571 9.88874 26.381 -32.8391 8.00242 
34.3577 -28.5247 8.00242 -41.0799 -26.9804 8.00242 -45.4091 -21.5961 8.00242 
-37.4324 -26.9804 13.6307 18.4043 -26.9804 13.877 26.381 -26.9804 12.1951 
36.3405 -26.9804 8.00242 34.3577 -26.9804 9.34437 42.3343 -20.7144 8.00242 
-47.1739 -19.0037 8.00242 -45.4091 -19.0037 11.5479 26.381 -19.0037 15.5196 
34.3577 -19.0037 13.6509 43.6496 -19.0037 8.00242 42.3343 -19.0037 9.12869 
-50.933 -11.0271 8.00242 34.3577 -11.0271 15.715 47.5434 -11.0271 8.00242 
42.3343 -11.0271 12.3669 -52.2694 -3.0504 8.00242 50.0078 -3.0504 8.00242 
42.3343 -3.0504 14.2909 50.311 1.99707 8.00242 -51.8239 4.92628 8.00242 
42.3343 4.92628 14.9379 50.459 4.92628 8.00242 50.311 5.71696 8.00242 
50.311 4.92628 8.19939 -50.0402 12.903 8.00242 -45.4091 12.903 14.2445 
48.8033 12.903 8.00242 42.3343 12.903 14.0419 -46.8195 20.8796 8.00242 
-45.4091 23.3229 8.00242 -45.4091 20.8796 10.3617 45.934 20.8796 8.00242 
42.3343 27.6195 8.00242 42.3343 20.8796 12.2432 -41.9486 28.8563 8.00242 
-37.4324 34.3507 8.00242 -37.4324 28.8563 14.6722 41.5824 28.8563 8.00242 
34.3577 28.8563 14.9365 -34.8008 36.833 8.00242 -29.4557 40.9614 8.00242 
-29.4557 36.833 15.6963 -21.4791 44.7709 8.00242 26.381 42.809 8.00242 
35.0568 36.833 8.00242 34.3577 37.4187 8.00242 34.3577 36.833 8.86983 
-21.3358 44.8096 8.00242 -13.5024 46.7855 8.00242 -13.5024 44.8096 15.1774 
-5.52571 47.6739 8.00242 2.45097 47.8876 8.00242 10.4276 46.8889 8.00242 
20.6215 44.8096 8.00242 18.4043 45.5248 8.00242 18.4043 44.8096 10.4406 
-21.4791 -35.541 15.9791 -13.5024 -37.8613 15.9791 -5.52571 -38.1096 15.9791 
2.45097 -35.2446 15.9791 -22.6912 -34.9571 15.9791 -29.4557 -31.05 15.9791 
-21.4791 -34.9571 16.4939 -13.5024 -34.9571 18.1837 -5.52571 -34.9571 18.2311 
2.88656 -34.9571 15.9791 2.45097 -34.9571 16.1511 10.4276 -27.61 15.9791 
[...]
POINT_DATA 518
SCALARS ImageScalars float
LOOKUP_TABLE default
0 0 0 0 0 0 0 0 0 
0 0 0 0 0 0 0 0 0 
0 0 0 0 0 0 0 0 0 
0 0 0 0 0 0 0 0 0 
0 0 0 0 0 0 0 0 0 
0 0 0 0 0 0 0 0 0 
0 0 0 0 0 0 0 0 0 
0 0 0 0 0 0 0 0 0 
0 0 0 0 0 0 0 0 0 
0 0 0 0 0 0 0 0 0 
0 0 0 0 0 0 0 0 0 
0 0 0 0 0 0 0 0 0 
0 0 0 0 0 0 0 0 0 
0 0 0 0 0 0 0 0 0 
0 0 0 0 0 0 0 0 0 
0 0 0 0 0 0 0 0 0 
0 0 0 0 0 0 0 0 0 
0 0 0 0 0 0 0 0 0 
0 0 0 0 0 0 0 0 0 
0 0 0 0 0 0 0 0 0 
0 0 0 0 0 0 0 0 0 
0 0 0 0 0 0 0 0 0 
0 0 0 0 0 0 0 0 0 
0 0 0 0 0 0 0 0 0 
0 0 0 0 0 0 0 0 0 
0 0 0 0 0 0 0 0 0 
0 0 0 0 0 0 0 0 0 
0 0 0 0 0 0 0 0 0 
0 0 0 0 0 0 0 0 0 
0 0 0 0 0 0 0 0 0 
0 0 0 0 0 0 0 0 0 
0 0 0 0 0 0 0 0 0 
0 0 0 0 0 0 0 0 0 
0 0 0 0 0 0 0 0 0 
0 0 0 0 0 0 0 0 0 
0 0 0 0 0 0 0 0 0 
0 0 0 0 0 0 0 0 0 
0 0 0 0 0 0 0 0 0 
0 0 0 0 0 0 0 0 0 
0 0 0 0 0 0 0 0 0 
0 0 0 0 0 0 0 0 0 
0 0 0 0 0 0 0 0 0 
0 0 0 0 0 0 0 0 0 
0 0 0 0 0 0 0 0 0 
0 0 0 0 0 0 0 0 0 
0 0 0 0 0 0 0 0 0 
0 0 0 0 0 0 0 0 0 
0 0 0 0 0 0 0 0 0 
0 0 0 0 0 0 0 0 0 
0 0 0 0 0 0 0 0 0 
0 0 0 0 0 0 0 0 0 
0 0 0 0 0 0 0 0 0 
0 0 0 0 0 0 0 0 0 
0 0 0 0 0 0 0 0 0 
0 0 0 0 0 0 0 0 0 
0 0 0 0 0 0 0 0 0 
0 0 0 0 0 0 0 0 0 
0 0 0 0 0 
NORMALS Normals float
0.332899 0.634306 0.697735 0.149005 0.524462 0.838294 -0.0461842 0.480683 0.875677 
-0.237827 0.582494 0.777264 0.406615 0.426953 0.807697 0.185198 0.301354 0.935354 
0.0511882 0.223626 0.97333 -0.0315943 0.182536 0.982691 -0.0617106 0.225994 0.972172 
-0.194282 0.405261 0.893319 -0.34854 0.598877 0.721018 0.456326 0.315399 0.83204 
0.266524 0.141493 0.953386 0.115645 0.0764999 0.99034 0.0130765 0.0092609 0.999872 
-0.0310729 -0.00669731 0.999495 0.0158168 0.0431075 0.998945 -0.039982 0.110995 0.993016 
-0.144651 0.252538 0.956713 -0.299646 0.438378 0.847371 0.484888 0.300941 0.821169 
0.293919 0.129693 0.946991 0.179872 -0.0162271 0.983556 0.0580587 -0.0544415 0.996828 
-0.033112 -0.0549224 0.997941 -0.00289127 0.001992 0.999994 0.0674476 -0.0332308 0.997169 
0.0347651 -0.0507442 0.998106 -0.0321148 0.0789451 0.996362 -0.146468 0.178218 0.973029 
-0.451135 0.304531 0.838891 0.342701 0.171273 0.9237 0.153405 0.0666803 0.985911 
0.0843039 -0.0522365 0.99507 0.0804734 -0.0891959 0.992758 0.0699428 -0.0735278 0.994838 
-0.00888628 0.0793751 0.996805 -0.0382671 0.0391934 0.998499 0.0737047 -0.106478 0.99158 
0.0879913 0.00534918 0.996107 -0.0581532 0.0761072 0.995402 -0.33315 0.13795 0.932728 
-0.757672 0.204836 0.619657 0.27246 0.0341408 0.961561 0.0757299 0.00390464 0.997121 
0.0262361 -0.00590734 0.999638 0.0365627 0.0152568 0.999215 0.119726 -0.103975 0.987347 
0.125351 -0.093987 0.987651 -0.124977 0.0819726 0.988768 -0.00168692 -0.00568135 0.999982 
0.150628 -0.0119797 0.988518 -0.0228234 -0.0175894 0.999585 -0.277058 -0.000599209 0.960853 
-0.723481 0.0126593 0.690228 0.277086 -0.118595 0.953498 0.110052 -0.101671 0.988712 
0.0965169 -0.0469461 0.994224 -0.0122937 -0.0289221 0.999506 -0.052392 -0.059692 0.996841 
0.185045 -0.163602 0.969016 0.0373241 -0.0770965 0.996325 -0.0192306 0.0340187 0.999236 
0.0853241 -0.0481527 0.995189 -0.0487663 -0.115783 0.992077 -0.292282 -0.152996 0.944014 
-0.723586 -0.198657 0.661028 0.273917 -0.234656 0.932688 0.152529 -0.191268 0.969614 
0.095906 -0.167753 0.981153 0.0259426 -0.221495 0.974816 -0.000758583 -0.117796 0.993038 
0.0928271 -0.142861 0.98538 0.083898 -0.243196 0.966342 0.0275892 -0.13076 0.99103 
-0.0043854 -0.162496 0.986699 -0.130892 -0.239941 0.961923 -0.391064 -0.316257 0.864321 
0.18478 -0.283519 0.940996 0.0714084 -0.255883 0.964067 0.0352678 -0.247495 0.968247 
0.0288919 -0.213215 0.976578 0.040895 -0.227362 0.972951 0.0642364 -0.294768 0.953407 
0.0561674 -0.300374 0.952166 -0.0347885 -0.330508 0.943162 -0.21422 -0.397272 0.892348 
0.0700155 -0.301133 0.951008 0.0167635 -0.285629 0.958194 0.00783427 -0.31236 0.949932 
0.00213978 -0.368931 0.929454 -0.00785022 -0.434198 0.900783 -0.10367 -0.485273 0.868195 
0.34853 0.673003 0.652375 0.184068 0.723562 0.665264 -0.0527823 0.743182 0.667004 
-0.0632848 0.974623 0.21472 -0.26894 0.717021 0.64308 0.378963 0.661999 0.646641 
0.47052 0.59113 0.655116 0.532404 0.793838 0.293883 -0.357021 0.685409 0.634627 
-0.370749 0.674685 0.638237 -0.409003 0.747073 0.524021 -0.402934 0.699911 0.589718 
0.51926 0.515518 0.681623 0.531251 0.441272 0.723223 0.616494 0.611077 0.496507 
-0.430068 0.708435 0.559609 -0.454446 0.700848 0.54981 -0.521525 0.828187 0.205227 
0.534716 0.388378 0.750494 0.497723 0.314656 0.808247 0.674516 0.538336 0.505195 
-0.619286 0.605671 0.499648 -0.621736 0.603014 0.499818 -0.626495 0.610182 0.484955 
0.495324 0.308393 0.812125 0.747917 0.489032 0.448851 -0.722654 0.410205 0.55633 
-0.791468 0.290552 0.537734 -0.878279 0.450496 0.160248 0.481755 0.213944 0.849788 
0.645282 0.279941 0.710805 -0.811 0.209216 0.546358 0.532416 0.0623312 0.844185 
0.58353 0.0700217 0.809067 -0.814547 0.0143522 0.57992 0.49948 -0.0847331 0.862172 
0.57821 -0.0815751 0.811799 -0.788526 -0.198256 0.58217 -0.753077 -0.288433 0.591338 
0.384455 -0.247509 0.889345 0.61163 -0.283845 0.738472 0.317224 -0.290071 0.902899 
-0.661815 -0.387457 0.641777 -0.502893 -0.511416 0.696815 -0.82646 -0.391789 0.404309 
0.718005 -0.481213 0.502895 0.266225 -0.314853 0.911039 0.394378 -0.366112 0.842869 
0.206868 -0.336215 0.918785 0.126224 -0.313662 0.941108 -0.495115 -0.513083 0.701146 
-0.302101 -0.526465 0.794714 -0.50998 -0.518159 0.686609 0.530815 -0.564441 0.632173 
0.266444 -0.45719 0.848519 0.100491 -0.314679 0.943864 0.142472 -0.337609 0.930442 
0.072013 -0.328467 0.941766 0.0162066 -0.329378 0.944059 -0.00412612 -0.351196 0.936293 
-0.0128487 -0.405233 0.914123 -0.0199575 -0.464973 0.8851 -0.180525 -0.519578 0.835134 
-0.115002 -0.511275 0.851688 -0.353422 -0.593332 0.723222 0.395879 -0.70574 0.587547 
0.232468 -0.618915 0.750269 0.099291 -0.553106 0.827173 0.0161146 -0.527868 0.849174 
-0.0561991 -0.551293 0.832417 -0.0734158 -0.595993 0.799627 -0.105598 -0.668003 0.736628 
-0.242987 -0.750072 0.615101 -0.0645122 0.986635 0.149629 0.532031 0.817984 0.218737 
0.382444 0.904991 0.186356 0.0908509 0.984183 0.152088 0.194852 0.96869 0.153856 
-0.130684 0.981247 0.141687 -0.329561 0.936729 0.118016 -0.463121 0.882724 0.0794806 
0.548332 0.805098 0.226164 0.633361 0.714958 0.296123 -0.509754 0.85761 0.0682414 
-0.531066 0.844855 0.0647182 -0.532054 0.843332 0.075561 0.666981 0.672642 0.32045 
0.701154 0.609833 0.369441 -0.547634 0.833426 0.074143 -0.52507 0.823276 -0.215681 
-0.684989 0.72697 0.0480119 0.71608 0.584871 0.380992 0.757233 0.506756 0.412062 
-0.743953 0.666661 0.0457912 -0.879496 0.471278 0.0662189 0.764441 0.496234 0.41156 
-0.89154 0.447892 0.067443 -0.885054 0.452784 -0.108013 0.838008 0.326582 0.437136 
-0.970889 0.232446 0.0578162 0.905438 0.0772094 0.417397 0.994863 0.0548606 0.0850757 
-0.99383 0.0481946 0.0998921 0.898731 -0.115247 0.423085 0.99306 -0.114225 0.0280082 
-0.975113 -0.172764 0.138953 0.836545 -0.31973 0.444934 -0.913725 -0.361203 0.186117 
-0.877328 -0.42615 0.220664 0.734858 -0.480371 0.478777 0.726201 -0.490434 0.481775 
-0.813653 -0.50969 0.279615 -0.659875 -0.650212 0.37655 0.607475 -0.584508 0.537889 
0.557951 -0.620381 0.551196 -0.643272 -0.659164 0.389492 -0.45196 -0.744435 0.491477 
-0.692402 -0.65512 0.302318 0.397031 -0.706364 0.586018 0.396018 -0.706895 0.586063 
0.260227 -0.743037 0.616586 0.130444 -0.77028 0.624223 0.000823077 -0.78579 0.618493 
-0.0656249 -0.776586 0.626584 -0.0957682 -0.764434 0.63755 -0.147164 -0.771283 0.619245 
-0.352146 -0.775533 0.523967 -0.26139 -0.789657 0.555083 -0.527462 -0.798514 0.290102 
0.137263 -0.914769 0.379944 0.00771919 -0.894523 0.446955 -0.0625507 -0.898028 0.435469 
-0.103479 -0.922198 0.372617 -0.176463 -0.944793 0.276092 -0.0978158 0.948134 -0.302447 
0.468257 0.875672 -0.118045 0.3421 0.919482 -0.1937 -0.0780395 0.951032 -0.29908 
0.167193 0.954772 -0.245881 -0.103165 0.947341 -0.303153 -0.0983019 0.946968 -0.305923 
-0.358161 0.873081 -0.330833 -0.478097 0.800261 -0.361947 0.495121 0.863121 -0.0993848 
0.591491 0.805585 -0.0342251 0.430031 0.86703 -0.251657 -0.352185 0.664004 -0.659594 
-0.47959 0.800909 -0.358524 -0.466618 0.772294 -0.43108 -0.476538 0.809184 -0.343705 
0.66996 0.742327 0.0101487 0.711573 0.701439 0.0405884 -0.507443 0.796145 -0.329628 
-0.407676 0.695963 -0.591131 -0.512818 0.79304 -0.328794 -0.668648 0.666886 -0.328896 
0.763918 0.642533 0.0598313 0.808615 0.584849 0.0639762 -0.688843 0.646011 -0.328883 
-0.661868 0.640931 -0.388765 0.852256 0.519953 0.0575266 -0.833531 0.446199 -0.32578 
-0.859508 0.397301 -0.321555 0.944116 0.328972 0.0205719 0.990822 0.134013 0.0176663 
-0.914256 0.252527 -0.316807 -0.843204 0.265227 -0.467612 0.998475 0.052113 0.0182158 
0.997063 0.0503977 -0.057675 -0.957457 0.0995095 -0.270876 -0.805463 0.130601 -0.578077 
0.993628 -0.112476 -0.00723559 0.991867 -0.127147 -0.0057247 0.992768 -0.114628 -0.0356658 
-0.966786 -0.115414 -0.228045 0.955378 -0.295206 0.0102849 -0.940122 -0.297727 -0.16592 
-0.917527 -0.374561 -0.1336 -0.885033 -0.264503 -0.383085 0.887996 -0.458693 0.0326154 
0.827613 -0.558767 0.0532635 -0.892405 -0.438776 -0.105307 0.788548 -0.610695 0.0724184 
0.656054 -0.744207 0.125498 -0.80489 -0.593143 -0.0182676 -0.769876 -0.638151 0.00733942 
-0.784936 -0.531521 -0.318372 0.615915 -0.77539 0.139355 0.469938 -0.861443 0.192544 
0.278444 -0.932608 0.229587 -0.32801 -0.915859 0.231541 -0.613783 -0.781734 0.110283 
-0.566059 -0.814445 0.127499 0.259023 -0.938089 0.22999 0.135326 -0.962236 0.236195 
0.0217931 -0.966037 0.257485 -0.0579084 -0.951772 0.301292 -0.104061 -0.95469 0.278815 
-0.181654 -0.94595 0.268664 -0.176178 -0.946664 0.269794 0.244205 0.844921 -0.475891 
0.0664553 0.822107 -0.565442 -0.164544 0.749905 -0.640755 0.513633 0.786265 -0.343465 
0.315892 0.841244 -0.438772 0.376362 0.830043 -0.411557 0.217424 0.810865 -0.543346 
0.0150585 0.731108 -0.682096 -0.349833 0.663649 -0.661201 -0.183634 0.671728 -0.717677 
-0.351837 0.661777 -0.662014 -0.373308 0.590514 -0.715495 0.562443 0.760895 -0.323569 
0.659546 0.696598 -0.2824 0.481952 0.732657 -0.480559 -0.33354 0.426589 -0.840698 
-0.369416 0.60689 -0.703717 -0.339411 0.530874 -0.776513 -0.352437 0.624281 -0.697181 
-0.42824 0.611274 -0.665548 0.72138 0.638715 -0.267682 0.801731 0.535581 -0.265295 
0.597306 0.606539 -0.524724 -0.225476 0.354436 -0.907489 -0.240021 0.477766 -0.845062 
-0.466969 0.586433 -0.661843 -0.412827 0.572343 -0.708517 -0.592691 0.462725 -0.659244 
0.830942 0.48788 -0.26741 0.78035 0.468815 -0.413844 -0.153975 0.264969 -0.951884 
-0.337327 0.340332 -0.877716 -0.61938 0.426828 -0.658928 -0.577321 0.422037 -0.698988 
0.900543 0.289811 -0.324085 -0.24575 0.186307 -0.951261 -0.705407 0.276306 -0.65273 
-0.512511 0.262796 -0.817478 0.940324 0.0478478 -0.3369 -0.787221 0.132607 -0.602244 
-0.452116 0.138054 -0.881211 -0.818079 0.0103376 -0.575014 0.919917 -0.125304 -0.371554 
-0.432206 -0.010716 -0.901711 -0.827296 -0.0602612 -0.558525 -0.827371 -0.0770662 -0.556343 
-0.822477 -0.0594115 -0.565687 0.873752 -0.28748 -0.392317 0.69331 -0.243123 -0.67839 
-0.801246 -0.22828 -0.553075 -0.520026 -0.130566 -0.844112 0.83157 -0.426521 -0.355769 
0.815898 -0.4628 -0.346594 0.793357 -0.407101 -0.452607 -0.786836 -0.358333 -0.502481 
-0.759977 -0.469138 -0.449827 -0.664631 -0.291215 -0.688084 0.775916 -0.544314 -0.318866 
0.694643 -0.663258 -0.278496 0.660173 -0.45268 -0.599376 -0.753985 -0.486584 -0.441297 
-0.564559 -0.353751 -0.745744 0.639318 -0.728876 -0.244975 0.524664 -0.8271 -0.201576 
0.548164 -0.591782 -0.591024 0.324098 -0.93551 -0.14065 -0.428381 -0.879685 -0.206503 
-0.655695 -0.688609 -0.309647 -0.642117 -0.703266 -0.305128 -0.647223 -0.675714 -0.352865 
0.32109 -0.93669 -0.139687 0.171383 -0.9807 -0.0941036 0.203443 -0.871047 -0.447089 
0.0677993 -0.995567 -0.0651865 -0.048212 -0.997825 -0.0449465 -0.144887 -0.988361 -0.0463648 
-0.284461 -0.950638 -0.123971 -0.238254 -0.966117 -0.0992602 -0.269455 -0.938297 -0.216777 
0.269809 0.645604 -0.714422 0.112891 0.63239 -0.76638 -0.0786698 0.589203 -0.804146 
-0.277054 0.456918 -0.845262 0.290667 0.640879 -0.710484 0.399552 0.588902 -0.702533 
0.263889 0.628146 -0.73198 0.0874029 0.541471 -0.836164 -0.105113 0.515355 -0.850506 
-0.283241 0.44831 -0.847816 -0.279965 0.450868 -0.847548 -0.325308 0.27746 -0.903986 
0.496626 0.556195 -0.66634 0.536946 0.525783 -0.659728 0.334549 0.474169 -0.814396 
0.161044 0.352414 -0.921883 0.052515 0.312164 -0.948576 -0.11316 0.29835 -0.947725 
-0.333582 0.289732 -0.897094 -0.31468 0.274442 -0.908657 -0.325684 0.266574 -0.907121 
-0.158408 0.24224 -0.957197 0.63101 0.413703 -0.656259 0.689124 0.247653 -0.681011 
0.441183 0.340789 -0.830193 0.221094 0.234699 -0.946591 0.0954664 0.182142 -0.978627 
0.0225173 0.156662 -0.987396 -0.131172 0.114617 -0.984712 -0.326157 0.122235 -0.937379 
-0.306077 0.200538 -0.930646 -0.148818 0.240954 -0.959059 -0.146824 0.220171 -0.964348 
-0.140045 0.218419 -0.965754 0.691617 0.209788 -0.691126 0.671646 0.202843 -0.712563 
0.360143 0.127743 -0.92411 0.172066 0.0602974 -0.983238 -0.157541 0.00638276 -0.987492 
-0.24374 -0.0105284 -0.969783 -0.285811 0.13686 -0.948463 -0.159604 0.0556143 -0.985613 
-0.215782 0.173077 -0.96098 -0.112077 0.125784 -0.985706 -0.233124 0.166182 -0.958142 
0.692059 0.00777989 -0.721799 0.627314 0.00113567 -0.778766 0.311822 -0.0252152 -0.949806 
0.123213 -0.057531 -0.990711 0.0827847 -0.107715 -0.990729 -0.200432 -0.175415 -0.963876 
-0.175893 -0.141836 -0.974138 -0.275058 -0.0748283 -0.958511 -0.148596 -0.0361184 -0.988238 
-0.0243435 0.0584658 -0.997993 -0.283083 0.11053 -0.952705 -0.189935 0.0958831 -0.977103 
0.645514 -0.149002 -0.749073 0.636274 -0.173277 -0.751752 0.621289 -0.146926 -0.769684 
0.310059 -0.112416 -0.944048 0.0951001 -0.0674059 -0.993183 -0.0208879 -0.0924503 -0.995498 
-0.0933573 -0.180707 -0.979096 -0.151392 -0.206093 -0.96675 -0.130524 -0.0902699 -0.987327 
-0.176389 -0.0317978 -0.983807 -0.0171385 0.0885866 -0.995921 0.0211442 0.0408638 -0.998941 
-0.311257 -0.000873793 -0.950325 -0.167029 0.00852531 -0.985915 0.596314 -0.217829 -0.772632 
0.392525 -0.163925 -0.905015 0.134154 -0.0413702 -0.990097 -0.0253101 0.0334627 -0.999119 
-0.105224 0.0780703 -0.991379 -0.106311 0.14008 -0.984416 -0.0382526 0.190492 -0.980943 
-0.0758342 0.234735 -0.969097 -0.0906671 0.231968 -0.968489 -0.104416 0.0954707 -0.989941 
-0.328982 -0.0404112 -0.943471 -0.231826 -0.00474753 -0.972746 0.598757 -0.282065 -0.749619 
0.610507 -0.375984 -0.697078 0.512195 -0.228716 -0.827856 0.281016 -0.108392 -0.953562 
0.0958732 0.0488846 -0.994192 0.010089 0.129187 -0.991569 -0.0338572 0.241768 -0.969743 
-0.042815 0.261072 -0.964369 -0.11616 0.21122 -0.970512 -0.182061 0.183692 -0.965977 
-0.218822 0.0490916 -0.974529 -0.447134 -0.150657 -0.881688 -0.481265 -0.247716 -0.840845 
-0.36338 -0.0910188 -0.927184 0.609545 -0.41591 -0.674888 0.543667 -0.576375 -0.610097 
0.405927 -0.300318 -0.863152 0.206502 -0.125174 -0.970406 0.0850872 -0.0502696 -0.995105 
-0.153278 -0.00414421 -0.988174 -0.252805 -0.0171232 -0.967366 -0.512086 -0.296958 -0.805968 
-0.354013 -0.147235 -0.923578 0.540898 -0.583925 -0.605361 0.369552 -0.751213 -0.546909 
0.327543 -0.475837 -0.816269 0.205413 -0.843816 -0.495762 0.15187 -0.386403 -0.909741 
0.0623423 -0.332144 -0.941166 -0.0586863 -0.31379 -0.947677 -0.175412 -0.338314 -0.92454 
-0.336138 -0.736951 -0.586441 -0.31995 -0.377443 -0.869004 -0.483972 -0.473515 -0.735904 
-0.463578 -0.51049 -0.72422 -0.460378 -0.458448 -0.760182 0.175738 -0.856877 -0.484642 
0.073189 -0.879378 -0.470465 0.0760308 -0.84564 -0.52831 -0.0346776 -0.885774 -0.46282 
-0.037122 -0.842985 -0.536654 -0.18456 -0.853112 -0.487994 -0.163101 -0.860359 -0.482888 
-0.163721 -0.848987 -0.502411 0.0843926 0.0369154 -0.995749 0.0120136 0.122514 -0.992394 
0.0910018 0.0262306 -0.995505 0.0835477 0.00247505 -0.996501 0.0834286 0.0231552 -0.996245 
-0.136558 0.0128388 -0.990549 -0.00949555 0.04935 -0.998736 0.0503787 -0.1292 -0.990338 
-0.125948 -0.168319 -0.977653 -0.0108962 -0.163669 -0.986455 0.00634983 -0.155245 -0.987856 
0.0173363 0.0708445 -0.997337 -0.0569827 0.0839003 -0.994844 0.0641869 -0.0253187 -0.997617 
0.0428581 -0.0874045 -0.995251 0.035305 0.0103107 -0.999323 -0.0917694 0.0257401 -0.995448 
-0.0596757 -0.0675825 -0.995927 -0.0596327 0.0415784 -0.997354 
