# vtk DataFile Version 4.2
vtk output
ASCII
DATASET POLYDATA
POINTS 560 float
-44.086 11.9732 -20.6467 -44.086 20.2741 -20.2476 -27.4843 -37.8317 -11.7978 
-19.1835 -37.8317 -13.3688 -10.8827 -37.8317 -14.4047 -2.58186 -37.8317 -15.0793 
5.71897 -37.8317 -15.1416 14.0198 -37.8317 -15.0432 22.3206 -37.8317 -14.3339 
30.6214 -37.8317 -12.7823 -44.086 -29.5309 -13.3138 -35.7852 -29.5309 -14.9251 
-27.4843 -29.5309 -15.7075 -19.1835 -29.5309 -15.9204 -10.8827 -29.5309 -17.2088 
-2.58186 -29.5309 -17.975 5.71897 -29.5309 -17.8706 14.0198 -29.5309 -18.3553 
22.3206 -29.5309 -17.5136 30.6214 -29.5309 -17.676 38.9223 -29.5309 -15.1239 
47.2231 -29.5309 -12.9613 -60.6876 -21.2301 -12.4802 -52.3868 -21.2301 -15.359 
-44.086 -21.2301 -16.5625 -35.7852 -21.2301 -17.0662 -27.4843 -21.2301 -16.5525 
-19.1835 -21.2301 -16.6564 -10.8827 -21.2301 -17.7407 -2.58186 -21.2301 -18.7924 
5.71897 -21.2301 -18.0582 14.0198 -21.2301 -17.5162 22.3206 -21.2301 -18.1689 
30.6214 -21.2301 -18.1655 38.9223 -21.2301 -16.4869 47.2231 -21.2301 -14.1813 
-60.6876 -12.9292 -14.7005 -52.3868 -12.9292 -17.2098 -44.086 -12.9292 -18.2285 
-35.7852 -12.9292 -17.8544 -27.4843 -12.9292 -16.8109 -19.1835 -12.9292 -16.1254 
-10.8827 -12.9292 -16.929 -2.58186 -12.9292 -18.8513 5.71897 -12.9292 -18.1905 
14.0198 -12.9292 -16.7543 22.3206 -12.9292 -17.796 30.6214 -12.9292 -18.0354 
38.9223 -12.9292 -17.1028 47.2231 -12.9292 -14.5566 -68.9885 -4.6284 -13.5049 
-60.6876 -4.6284 -17.1531 -52.3868 -4.6284 -18.2291 -44.086 -4.6284 -19.9064 
-35.7852 -4.6284 -18.6168 -27.4843 -4.6284 -17.4633 -19.1835 -4.6284 -16.4688 
-10.8827 -4.6284 -18.7568 -2.58186 -4.6284 -16.4415 5.71897 -4.6284 -17.9554 
14.0198 -4.6284 -17.6314 22.3206 -4.6284 -17.7642 30.6214 -4.6284 -17.1119 
38.9223 -4.6284 -16.3463 47.2231 -4.6284 -14.6669 55.5239 -4.6284 -12.2878 
-68.9885 3.67242 -14.9046 -60.6876 3.67242 -19.1881 -52.3868 3.67242 -18.9504 
-44.086 8.01369 -19.984 -44.086 3.67242 -19.2735 -35.7852 3.67242 -18.9318 
-27.4843 3.67242 -17.4939 -19.1835 3.67242 -15.8654 -10.8827 3.67242 -19.078 
-2.58186 3.67242 -16.7751 5.71897 3.67242 -15.947 14.0198 3.67242 -18.3855 
22.3206 3.67242 -18.1278 30.6214 3.67242 -17.0844 38.9223 3.67242 -16.0077 
47.2231 3.67242 -14.7499 55.5239 3.67242 -12.6366 -68.9885 11.9732 -14.5159 
-60.6876 11.9732 -18.9042 -47.7521 11.9732 -19.984 -52.3868 11.9732 -19.1462 
-40.8165 11.9732 -19.984 -35.7852 11.9732 -18.9868 -27.4843 11.9732 -17.6208 
-19.1835 11.9732 -16.0192 -10.8827 11.9732 -16.217 -2.58186 11.9732 -18.0014 
5.71897 11.9732 -17.534 14.0198 11.9732 -17.3829 22.3206 11.9732 -17.7086 
30.6214 11.9732 -17.3567 38.9223 11.9732 -16.2752 47.2231 11.9732 -15.0157 
55.5239 11.9732 -12.7416 -68.9885 20.2741 -12.9372 -60.6876 20.2741 -16.8126 
-45.0646 20.2741 -19.984 -52.3868 20.2741 -18.0973 -42.5666 20.2741 -19.984 
-44.086 21.0474 -19.984 -35.7852 20.2741 -18.8821 -27.4843 20.2741 -19.1567 
-19.1835 20.2741 -17.6647 -10.8827 20.2741 -18.0904 -2.58186 20.2741 -19.2949 
5.71897 20.2741 -18.3327 14.0198 20.2741 -16.0141 22.3206 20.2741 -16.2007 
30.6214 20.2741 -16.3649 38.9223 20.2741 -15.9238 47.2231 20.2741 -15.242 
55.5239 20.2741 -12.034 -60.6876 28.5749 -15.1651 -52.3868 28.5749 -18.008 
-44.086 28.5749 -17.4177 -35.7852 28.5749 -18.7655 -27.4843 28.5749 -17.7928 
-19.1835 28.5749 -17.5708 -10.8827 28.5749 -18.5319 -2.58186 28.5749 -19.6875 
5.71897 28.5749 -17.8317 14.0198 28.5749 -14.6871 22.3206 28.5749 -13.7677 
30.6214 28.5749 -13.7924 38.9223 28.5749 -14.739 47.2231 28.5749 -12.4899 
-52.3868 36.8757 -13.0702 -44.086 36.8757 -14.1781 -35.7852 36.8757 -14.192 
-27.4843 36.8757 -14.5046 -19.1835 36.8757 -14.0672 -10.8827 36.8757 -15.1456 
-2.58186 36.8757 -16.4734 5.71897 36.8757 -14.6516 -27.4843 -37.9664 -11.6832 
-19.1835 -40.1484 -11.6832 -10.8827 -41.1212 -11.6832 -2.58186 -41.9718 -11.6832 
5.71897 -41.9173 -11.6832 14.0198 -41.182 -11.6832 22.3206 -40.6257 -11.6832 
30.6214 -38.8495 -11.6832 -44.086 -32.0363 -11.6832 -44.086 -37.8317 -5.73043 
-27.8902 -37.8317 -11.6832 -35.7852 -35.1547 -11.6832 -35.7852 -37.8317 -9.1953 
34.0102 -37.8317 -11.6832 38.9223 -35.4636 -11.6832 38.9223 -37.8317 -6.12044 
47.2231 -31.0846 -11.6832 -60.6876 -22.4773 -11.6832 -51.4963 -29.5309 -11.6832 
-52.3868 -29.1211 -11.6832 -52.3868 -29.5309 -11.4211 48.9618 -29.5309 -11.6832 
55.5239 -29.5309 -3.92939 -61.8711 -21.2301 -11.6832 53.6232 -21.2301 -11.6832 
55.5239 -21.2301 -10.7925 63.8247 -21.2301 -4.60284 -67.3613 -12.9292 -11.6832 
-68.9885 -11.0038 -11.6832 -68.9885 -12.9292 -10.7084 54.7276 -12.9292 -11.6832 
55.5239 -10.2044 -11.6832 55.5239 -12.9292 -11.3754 63.8247 -12.9292 -8.02953 
-71.2665 -4.6284 -11.6832 57.3782 -4.6284 -11.6832 63.8247 -4.6284 -9.30876 
72.1256 -4.6284 -5.56558 -73.2199 3.67242 -11.6832 -77.2893 3.67242 -3.93372 
58.6848 3.67242 -11.6832 63.8247 3.67242 -9.92433 72.1256 3.67242 -6.73146 
-72.5818 11.9732 -11.6832 59.4726 11.9732 -11.6832 63.8247 11.9732 -10.2729 
72.1256 11.9732 -8.01141 -70.6311 20.2741 -11.6832 -68.9885 23.4377 -11.6832 
57.6601 20.2741 -11.6832 55.5239 22.3038 -11.6832 63.8247 20.2741 -10.632 
-65.8587 28.5749 -11.6832 -68.9885 28.5749 -6.2857 -60.6876 33.5165 -11.6832 
14.0198 36.1544 -11.6832 22.3206 32.3984 -11.6832 30.6214 32.7076 -11.6832 
38.9223 34.5495 -11.6832 50.5887 28.5749 -11.6832 47.2231 30.1691 -11.6832 
55.5239 28.5749 -10.2504 63.8247 28.5749 -5.50239 -55.1883 36.8757 -11.6832 
-60.6876 36.8757 -4.13984 -52.3868 38.2011 -11.6832 -44.086 39.3272 -11.6832 
-35.7852 39.5598 -11.6832 -27.4843 39.7934 -11.6832 -19.1835 39.129 -11.6832 
-10.8827 40.0588 -11.6832 -2.58186 41.4061 -11.6832 13.2521 36.8757 -11.6832 
5.71897 39.8974 -11.6832 14.0198 36.8757 -11.1953 22.3206 36.8757 -8.63359 
30.6214 36.8757 -8.90957 38.9223 36.8757 -9.97002 47.2231 36.8757 -7.61652 
-44.086 -39.1036 -3.38235 -35.7852 -41.8654 -3.38235 -27.4843 -43.6358 -3.38235 
-19.1835 -45.4372 -3.38235 -10.8827 -46.1247 -3.38235 -2.58186 -46.0275 -3.38235 
5.71897 -45.0792 -3.38235 14.0198 -43.6019 -3.38235 22.3206 -42.5347 -3.38235 
30.6214 -40.4252 -3.38235 38.9223 -38.5169 -3.38235 -47.0266 -37.8317 -3.38235 
-52.3868 -35.2507 -3.38235 40.7805 -37.8317 -3.38235 38.9223 -37.8317 -0.362994 
47.2231 -35.2682 -3.38235 55.5239 -29.9322 -3.38235 -60.3279 -29.5309 -3.38235 
-60.6876 -29.236 -3.38235 56.0191 -29.5309 -3.38235 63.8247 -22.5003 -3.38235 
-68.1215 -21.2301 -3.38235 -68.9885 -20.0824 -3.38235 64.9621 -21.2301 -3.38235 
-73.4237 -12.9292 -3.38235 69.6018 -12.9292 -3.38235 72.1256 -7.51817 -3.38235 
72.1256 -12.9292 0.781897 -76.2692 -4.6284 -3.38235 -77.2893 1.9777 -3.38235 
73.3117 -4.6284 -3.38235 -77.5368 3.67242 -3.38235 -77.2893 8.71512 -3.38235 
-77.2893 3.67242 -2.15262 73.9841 3.67242 -3.38235 -77.1294 11.9732 -3.38235 
74.278 11.9732 -3.38235 72.1256 18.7761 -3.38235 -74.9012 20.2741 -3.38235 
71.6152 20.2741 -3.38235 72.1256 20.2741 -2.43992 -70.2613 28.5749 -3.38235 
-68.9885 30.0779 -3.38235 -68.9885 28.5749 0.157014 55.5239 36.4772 -3.38235 
66.2953 28.5749 -3.38235 63.8247 31.8768 -3.38235 -61.0554 36.8757 -3.38235 
-60.6876 37.1769 -3.38235 -60.6876 36.8757 -2.81873 -52.3868 40.5573 -3.38235 
-44.086 42.6568 -3.38235 -35.7852 42.4738 -3.38235 -27.4843 42.5267 -3.38235 
-19.1835 41.4265 -3.38235 -10.8827 41.6014 -3.38235 -2.58186 42.5248 -3.38235 
5.71897 42.1455 -3.38235 14.0198 40.8201 -3.38235 22.3206 40.4852 -3.38235 
30.6214 40.781 -3.38235 38.9223 40.7172 -3.38235 54.9025 36.8757 -3.38235 
47.2231 39.85 -3.38235 55.5239 36.8757 2.01062 -44.086 -38.351 4.91848 
-35.7852 -40.9941 4.91848 -27.4843 -42.6806 4.91848 -19.1835 -44.6453 4.91848 
-10.8827 -45.574 4.91848 -2.58186 -45.4665 4.91848 5.71897 -44.0665 4.91848 
14.0198 -41.9495 4.91848 22.3206 -40.1248 4.91848 30.6214 -38.4824 4.91848 
-45.2321 -37.8317 4.91848 -52.3868 -33.5724 4.91848 -44.086 -37.8317 5.71786 
-35.7852 -37.8317 8.96362 -27.4843 -37.8317 10.8788 22.3206 -37.8317 9.13769 
33.5573 -37.8317 4.91848 30.6214 -37.8317 6.03562 38.9223 -36.4379 4.91848 
47.2231 -33.9646 4.91848 55.5239 -30.9497 4.91848 -58.8246 -29.5309 4.91848 
-60.6876 -28.1238 4.91848 -52.3868 -29.5309 10.7954 47.2231 -29.5309 12.0083 
57.7732 -29.5309 4.91848 55.5239 -29.5309 8.08367 63.8247 -24.5989 4.91848 
-66.7528 -21.2301 4.91848 -68.9885 -18.7052 4.91848 -60.6876 -21.2301 12.0547 
68.0305 -21.2301 4.91848 63.8247 -21.2301 12.3788 72.1256 -16.5168 4.91848 
-72.4873 -12.9292 4.91848 -68.9885 -12.9292 9.35586 74.4514 -12.9292 4.91848 
72.1256 -12.9292 11.8554 -74.1671 -4.6284 4.91848 -68.9885 -4.6284 11.171 
78.6438 -4.6284 4.91848 -75.1087 3.67242 4.91848 -68.9885 3.67242 11.437 
79.7497 3.67242 4.91848 -73.5775 11.9732 4.91848 -68.9885 11.9732 9.76642 
79.3163 11.9732 4.91848 -71.4515 20.2741 4.91848 -68.9885 25.0861 4.91848 
-68.9885 20.2741 7.18359 -60.6876 20.2741 12.8696 -2.58186 20.2741 11.9896 
5.71897 20.2741 12.2168 75.6546 20.2741 4.91848 72.1256 25.2727 4.91848 
72.1256 20.2741 12.2691 -66.3231 28.5749 4.91848 -60.6876 32.7006 4.91848 
-60.6876 28.5749 8.26216 -52.3868 28.5749 11.0698 -44.086 28.5749 11.42 
-35.7852 28.5749 11.8845 -27.4843 28.5749 12.3001 -19.1835 28.5749 11.4794 
-10.8827 28.5749 11.5662 -2.58186 28.5749 10.5392 5.71897 28.5749 9.98141 
14.0198 28.5749 10.8252 22.3206 28.5749 11.7415 55.5239 28.5749 12.3379 
69.003 28.5749 4.91848 63.8247 33.4455 4.91848 63.8247 28.5749 10.8687 
-52.4008 36.8757 4.91848 -52.3868 36.8819 4.91848 -52.3868 36.8757 4.92519 
-44.086 39.1407 4.91848 -44.086 36.8757 7.23597 -35.7852 39.349 4.91848 
-35.7852 36.8757 8.02766 -27.4843 38.6199 4.91848 -27.4843 36.8757 7.02901 
-19.1835 38.0066 4.91848 -19.1835 36.8757 6.17679 -10.8827 37.951 4.91848 
-10.8827 36.8757 6.11014 -2.58186 37.8968 4.91848 -2.58186 36.8757 5.89224 
5.71897 37.3178 4.91848 5.71897 36.8757 5.32782 14.0198 37.2177 4.91848 
14.0198 36.8757 5.27059 22.3206 38.3574 4.91848 22.3206 36.8757 6.50592 
30.6214 39.3652 4.91848 30.6214 36.8757 7.7488 38.9223 40.1718 4.91848 
38.9223 36.8757 9.34193 47.2231 38.559 4.91848 47.2231 36.8757 7.42808 
[...]
POINT_DATA 560
SCALARS ImageScalars float
LOOKUP_TABLE default
0 0 0 0 0 0 0 0 0 
0 0 0 0 0 0 0 0 0 
0 0 0 0 0 0 0 0 0 
0 0 0 0 0 0 0 0 0 
0 0 0 0 0 0 0 0 0 
0 0 0 0 0 0 0 0 0 
0 0 0 0 0 0 0 0 0 
0 0 0 0 0 0 0 0 0 
0 0 0 0 0 0 0 0 0 
0 0 0 0 0 0 0 0 0 
0 0 0 0 0 0 0 0 0 
0 0 0 0 0 0 0 0 0 
0 0 0 0 0 0 0 0 0 
0 0 0 0 0 0 0 0 0 
0 0 0 0 0 0 0 0 0 
0 0 0 0 0 0 0 0 0 
0 0 0 0 0 0 0 0 0 
0 0 0 0 0 0 0 0 0 
0 0 0 0 0 0 0 0 0 
0 0 0 0 0 0 0 0 0 
0 0 0 0 0 0 0 0 0 
0 0 0 0 0 0 0 0 0 
0 0 0 0 0 0 0 0 0 
0 0 0 0 0 0 0 0 0 
0 0 0 0 0 0 0 0 0 
0 0 0 0 0 0 0 0 0 
0 0 0 0 0 0 0 0 0 
0 0 0 0 0 0 0 0 0 
0 0 0 0 0 0 0 0 0 
0 0 0 0 0 0 0 0 0 
0 0 0 0 0 0 0 0 0 
0 0 0 0 0 0 0 0 0 
0 0 0 0 0 0 0 0 0 
0 0 0 0 0 0 0 0 0 
0 0 0 0 0 0 0 0 0 
0 0 0 0 0 0 0 0 0 
0 0 0 0 0 0 0 0 0 
0 0 0 0 0 0 0 0 0 
0 0 0 0 0 0 0 0 0 
0 0 0 0 0 0 0 0 0 
0 0 0 0 0 0 0 0 0 
0 0 0 0 0 0 0 0 0 
0 0 0 0 0 0 0 0 0 
0 0 0 0 0 0 0 0 0 
0 0 0 0 0 0 0 0 0 
0 0 0 0 0 0 0 0 0 
0 0 0 0 0 0 0 0 0 
0 0 0 0 0 0 0 0 0 
0 0 0 0 0 0 0 0 0 
0 0 0 0 0 0 0 0 0 
0 0 0 0 0 0 0 0 0 
0 0 0 0 0 0 0 0 0 
0 0 0 0 0 0 0 0 0 
0 0 0 0 0 0 0 0 0 
0 0 0 0 0 0 0 0 0 
0 0 0 0 0 0 0 0 0 
0 0 0 0 0 0 0 0 0 
0 0 0 0 0 0 0 0 0 
0 0 0 0 0 0 0 0 0 
0 0 0 0 0 0 0 0 0 
0 0 0 0 0 0 0 0 0 
0 0 0 0 0 0 0 0 0 
0 0 
NORMALS Normals float
-0.0118462 0.061474 0.998038 0.0466504 -0.191748 0.980335 0.209439 0.57829 0.78849 
0.129619 0.494568 0.859419 0.0988865 0.509019 0.855056 0.0388442 0.515718 0.855877 
-0.00134961 0.531462 0.847081 -0.046 0.609854 0.791178 -0.129496 0.636059 0.760697 
-0.225664 0.755338 0.615257 0.221925 0.520106 0.824766 0.11596 0.360201 0.925639 
0.0653457 0.23342 0.970178 0.0864801 0.183847 0.979143 0.121424 0.172456 0.977504 
0.0388308 0.205211 0.977947 0.0210616 0.159024 0.98705 -0.0193046 0.102101 0.994587 
-0.0401614 0.208043 0.977295 -0.139442 0.275654 0.951089 -0.271841 0.320361 0.907453 
-0.473144 0.44774 0.758725 0.448392 0.395323 0.801664 0.281601 0.378454 0.881745 
0.0836301 0.239341 0.967327 0.00416532 0.190707 0.981638 -0.023385 0.0615289 0.997831 
0.0713662 0.0113054 0.997386 0.128966 -0.0153416 0.99153 0.0187075 0.0510981 0.998518 
-0.0782956 0.0184738 0.996759 0.00695469 -0.0955789 0.995398 0.0390523 0.0148631 0.999127 
-0.0975698 0.017797 0.99507 -0.230017 0.116548 0.966182 -0.332067 0.0934577 0.938615 
0.398113 0.280753 0.873318 0.167984 0.144258 0.975177 0.0464469 0.216676 0.975138 
-0.0840727 0.0906969 0.992323 -0.104238 0.0547964 0.993042 0.00456753 -0.0113434 0.999925 
0.167946 0.0454604 0.984747 0.0747297 -0.125612 0.989261 -0.133373 -0.00517991 0.991052 
-0.0144793 0.00504187 0.999882 0.0784983 -0.0248476 0.996605 -0.0321497 -0.0642059 0.997419 
-0.207163 -0.00977139 0.978258 -0.311471 0.0260443 0.949899 0.526272 0.224457 0.820156 
0.311405 0.228335 0.922437 0.154528 0.112133 0.981604 0.0196695 0.0563085 0.99822 
-0.143167 0.0640356 0.987625 -0.128374 0.0408385 0.990885 0.0583139 -0.0149243 0.998187 
0.0166773 0.133184 0.990951 -0.0384542 -0.141534 0.989186 0.066124 -0.135616 0.988552 
-0.00986741 0.09863 0.995075 -0.0319286 0.0199004 0.999292 -0.083777 -0.056424 0.994886 
-0.1477 -0.057242 0.987374 -0.232445 0.0112833 0.972544 -0.27112 0.0648398 0.960359 
0.497838 0.0579612 0.865331 0.32506 0.106432 0.939685 0.00820727 0.0545011 0.99848 
-0.00667532 0.0514629 0.998653 -0.00142073 0.0438251 0.999038 -0.106271 0.0221342 0.994091 
-0.179056 0.00933215 0.983795 0.0315847 -0.0284758 0.999095 0.0939225 -0.179909 0.979189 
-0.167859 0.110481 0.979601 0.108307 -0.0165495 0.99398 0.124011 -0.0138246 0.992184 
-0.0780867 -0.00283049 0.996943 -0.126474 0.0146563 0.991862 -0.145841 -0.00410928 0.9893 
-0.190409 0.021154 0.981477 -0.259327 0.0247858 0.965472 0.521148 -0.118373 0.845218 
0.350432 -0.128823 0.927686 0.0348233 0.0103947 0.999339 0.101564 -0.0509754 0.993522 
-0.078489 0.0341273 0.996331 -0.176887 -0.00293924 0.984227 -0.17548 0.0968946 0.979703 
-0.0867353 0.108232 0.990335 0.124772 -0.00154329 0.992184 0.0719978 0.134295 0.988322 
-0.0369392 0.136202 0.989992 0.0104589 -0.142135 0.989792 -0.00242815 -0.113782 0.993503 
-0.0849137 -0.042433 0.995484 -0.145307 -0.00486473 0.989375 -0.199266 0.0285017 0.979531 
-0.248385 -0.0309433 0.968167 0.545773 -0.27369 0.791976 0.354354 -0.223735 0.907951 
0.061244 -0.174259 0.982793 0.17982 -0.0655674 0.981512 0.0260103 -0.157486 0.987179 
0.0448907 -0.19882 0.979007 -0.0606377 -0.0126042 0.99808 -0.0726028 0.00167536 0.99736 
-0.062986 0.0936309 0.993613 0.0954638 0.129505 0.986973 0.0180556 0.10118 0.994704 
-0.19665 0.0226868 0.980211 -0.119991 -0.146931 0.981842 0.0208776 -0.213731 0.976669 
-0.0160906 -0.198904 0.979887 -0.064518 -0.0814918 0.994584 -0.219028 -0.125484 0.967616 
-0.241718 -0.119342 0.96298 0.397616 -0.343841 0.850691 0.168147 -0.323072 0.931317 
0.0472247 -0.299063 0.953064 0.0123372 -0.251617 0.967748 -0.0625494 -0.245312 0.967424 
0.0402743 -0.180041 0.982834 0.12976 -0.146641 0.980642 -0.0286215 -0.134899 0.990446 
-0.28863 -0.196804 0.936996 -0.213384 -0.258215 0.942227 -0.0474938 -0.361209 0.931275 
0.0490263 -0.369721 0.927848 -0.0637062 -0.318271 0.945857 -0.226755 -0.37571 0.898568 
0.245237 -0.696904 0.673931 0.0713759 -0.65789 0.749724 0.0189074 -0.652609 0.757459 
-0.0060509 -0.637047 0.770801 0.0332097 -0.671412 0.74034 0.133963 -0.654236 0.744332 
-0.0279114 -0.613757 0.789002 -0.290685 -0.586515 0.755977 0.211173 0.584426 0.783488 
0.132194 0.611863 0.779839 0.082878 0.682335 0.726327 0.0351441 0.728443 0.684204 
-0.0407172 0.767282 0.640016 -0.0694242 0.811928 0.579615 -0.139215 0.814933 0.562587 
-0.241345 0.806906 0.539125 0.23613 0.580625 0.779177 0.355767 0.85805 0.370378 
0.209874 0.58484 0.783527 0.174151 0.588635 0.789417 0.227653 0.753382 0.61692 
-0.305696 0.782147 0.542951 -0.372048 0.686734 0.624481 -0.335579 0.926343 0.171103 
-0.492266 0.52303 0.695783 0.47756 0.445383 0.757345 0.339682 0.523458 0.781414 
0.350112 0.515768 0.781924 0.359456 0.532693 0.766178 -0.505714 0.475618 0.71975 
-0.612203 0.690671 0.384942 0.48507 0.428335 0.762388 -0.424919 0.22334 0.877247 
-0.470383 0.28414 0.835467 -0.656347 0.540009 0.526875 0.541388 0.367687 0.756112 
0.563512 0.359443 0.743811 0.602456 0.408945 0.685427 -0.365221 0.0708034 0.928225 
-0.338393 0.0698039 0.938412 -0.37284 0.0810192 0.924352 -0.454641 0.230657 0.86029 
0.620788 0.251831 0.74243 -0.267799 0.0789391 0.960236 -0.340132 0.116172 0.933174 
-0.682343 0.228923 0.694264 0.69929 0.0666367 0.711726 0.987688 0.0489462 0.148579 
-0.255341 0.0369941 0.966143 -0.295566 0.0536678 0.953814 -0.646152 0.0696393 0.760025 
0.678099 -0.129392 0.723491 -0.231558 -0.00263157 0.972818 -0.260923 0.0456395 0.96428 
-0.61291 -0.113507 0.781958 0.605632 -0.322277 0.727563 0.640991 -0.40123 0.654328 
-0.256095 -0.157559 0.953724 -0.275701 -0.173628 0.945432 -0.343895 -0.292799 0.892191 
0.652445 -0.494454 0.574308 0.78092 -0.597673 0.181524 0.524116 -0.637496 0.564714 
-0.291797 -0.564885 0.771854 -0.0735088 -0.509802 0.857145 0.0580984 -0.497906 0.865283 
-0.0615315 -0.582141 0.810756 -0.278486 -0.364436 0.888612 -0.22583 -0.41435 0.881655 
-0.382584 -0.39784 0.833878 -0.551174 -0.531394 0.643294 0.364308 -0.74518 0.558558 
0.558535 -0.829342 -0.0152153 0.266522 -0.770468 0.57909 0.0879939 -0.743395 0.663039 
0.0248355 -0.77771 0.628133 -0.0248213 -0.80843 0.588069 0.0172327 -0.813525 0.581274 
0.134684 -0.850025 0.509233 -0.00135407 -0.886899 0.46196 -0.29812 -0.596833 0.744926 
-0.265523 -0.764648 0.587207 -0.292886 -0.625192 0.723431 -0.077822 -0.801542 0.592853 
0.0551231 -0.752186 0.656641 -0.0560417 -0.727076 0.684266 -0.275366 -0.76331 0.584407 
0.376881 0.902611 0.207977 0.272338 0.935093 0.226787 0.206538 0.963723 0.169056 
0.154727 0.971624 0.178905 0.0328271 0.983417 0.178363 -0.0616439 0.987484 0.145171 
-0.145243 0.985517 0.0875214 -0.150844 0.988339 0.0207876 -0.184386 0.982117 -0.0380532 
-0.224701 0.974085 -0.0258639 -0.287867 0.957627 0.00911359 0.419112 0.8858 0.199255 
0.495438 0.85073 0.175497 -0.322997 0.945583 0.0393261 -0.272787 0.95339 -0.128973 
-0.464725 0.874086 0.141438 -0.61165 0.707752 0.353512 0.616543 0.755051 0.223097 
0.622753 0.749772 0.223655 -0.617283 0.701475 0.356223 -0.662682 0.603618 0.44328 
0.771553 0.602043 0.205551 0.785958 0.581361 0.210448 -0.669873 0.571417 0.474082 
0.886962 0.416177 0.200237 -0.686946 0.397621 0.608279 -0.745924 0.315233 0.586707 
-0.803819 0.512524 0.301984 0.95615 0.247019 0.157348 0.987687 0.0864696 0.130377 
-0.771797 0.206962 0.601245 0.991881 0.0472779 0.118058 0.992055 -0.0660857 0.107051 
0.998483 0.0413838 0.036323 -0.776802 0.055061 0.627333 0.985502 -0.140771 0.0947076 
-0.818726 -0.14189 0.556376 -0.830292 -0.333632 0.446436 0.915559 -0.401287 0.0268362 
-0.827529 -0.360504 0.430388 -0.839102 -0.390645 0.378557 0.796853 -0.603428 0.0299897 
0.758864 -0.650891 0.0216006 0.75205 -0.613504 -0.2409 -0.395115 -0.831982 0.389475 
-0.602769 -0.596907 0.529501 -0.578184 -0.68323 0.445983 0.559395 -0.827012 -0.0559242 
0.55252 -0.831456 -0.0583343 0.551965 -0.829985 -0.0803628 0.287084 -0.95548 -0.0681266 
0.116099 -0.992048 -0.0485937 -0.00758639 -0.999335 -0.0356516 -0.0635996 -0.997142 -0.0407788 
-0.0563826 -0.996809 -0.0565035 0.0663155 -0.992382 -0.103826 0.0331054 -0.986338 -0.161374 
-0.105831 -0.987584 -0.116097 -0.104151 -0.99446 0.0141971 -0.0024931 -0.983284 0.182063 
0.0145428 -0.979318 0.201802 -0.0591791 -0.967614 0.245402 -0.382665 -0.846657 0.369782 
-0.235872 -0.936824 0.258313 -0.292743 -0.9523 -0.0861751 0.372731 0.860096 -0.34829 
0.243342 0.88746 -0.391407 0.205425 0.908566 -0.363741 0.161226 0.920444 -0.356074 
0.0416092 0.955515 -0.291992 -0.0855788 0.962495 -0.257447 -0.196133 0.946781 -0.255219 
-0.217425 0.935724 -0.277752 -0.196011 0.908768 -0.368404 -0.191815 0.903532 -0.383192 
0.391627 0.852303 -0.346711 0.489121 0.799215 -0.349308 0.363339 0.844743 -0.392931 
0.206919 0.770317 -0.603155 0.19848 0.660008 -0.724566 -0.239752 0.83872 -0.488945 
-0.202693 0.90072 -0.384212 -0.193484 0.884614 -0.42429 -0.233884 0.887295 -0.397499 
-0.330462 0.877596 -0.347303 -0.445644 0.87765 -0.176443 0.564299 0.742665 -0.360576 
0.602689 0.709151 -0.365884 0.409316 0.630376 -0.659611 -0.187736 0.719107 -0.669059 
-0.504206 0.850856 -0.147718 -0.427779 0.828739 -0.360827 -0.613921 0.784627 -0.0863809 
0.719656 0.583235 -0.376737 0.759581 0.519287 -0.391634 0.538692 0.412549 -0.734584 
-0.676387 0.736442 -0.0123981 -0.454589 0.678881 -0.576602 -0.797534 0.59862 0.0747902 
0.850456 0.338523 -0.40265 0.720796 0.341186 -0.603362 -0.848198 0.52542 0.0670352 
-0.722379 0.482472 -0.495368 0.869947 0.142873 -0.471996 0.65452 0.0949725 -0.750055 
-0.95169 0.277939 0.130519 0.840393 -0.0197006 -0.541619 0.697474 -0.0612323 -0.71399 
-0.980301 0.041733 0.193048 0.784628 -0.178372 -0.593753 0.681632 -0.23024 -0.694527 
-0.962978 -0.246516 0.109099 0.733611 -0.321826 -0.598534 0.652389 -0.448849 -0.610674 
0.604078 -0.327249 -0.726635 0.353707 -0.32026 -0.87882 -0.0823871 -0.162235 -0.983307 
0.0823997 -0.27578 -0.957682 -0.862895 -0.504632 0.0275277 -0.74753 -0.659599 -0.0782839 
-0.618804 -0.497219 -0.608158 0.568652 -0.549294 -0.6123 0.436854 -0.690721 -0.57625 
0.407944 -0.472116 -0.781465 0.217114 -0.527238 -0.821512 0.0378308 -0.412097 -0.910354 
0.0528298 -0.335398 -0.940594 -0.0262596 -0.316526 -0.94822 -0.036888 -0.358774 -0.932695 
-0.0520432 -0.365095 -0.929514 -0.0922609 -0.319528 -0.943074 0.0145978 -0.356439 -0.934204 
0.10506 -0.425622 -0.898782 0.159456 -0.372152 -0.914372 -0.107477 -0.518382 -0.848368 
-0.694665 -0.701889 -0.157454 -0.579674 -0.775985 -0.248647 -0.453862 -0.753481 -0.475685 
0.320687 -0.703868 -0.633821 0.320362 -0.703834 -0.634024 0.320204 -0.703624 -0.634337 
0.132728 -0.766932 -0.627852 0.152203 -0.696575 -0.701155 -0.0251636 -0.818318 -0.574215 
0.00248939 -0.674948 -0.737861 -0.0786564 -0.78171 -0.618662 -0.0889211 -0.712348 -0.696171 
-0.0331002 -0.798721 -0.60079 -0.0378435 -0.754558 -0.655141 -0.0055996 -0.790856 -0.611976 
-0.014357 -0.750298 -0.660944 -0.0308112 -0.705896 -0.707645 -0.0395818 -0.667815 -0.743274 
-0.0333072 -0.690066 -0.72298 -0.0315677 -0.673727 -0.738306 0.0559282 -0.760882 -0.646475 
0.0583341 -0.747577 -0.661609 0.124789 -0.826355 -0.549149 0.132224 -0.76099 -0.635147 
0.104864 -0.87354 -0.475323 0.136051 -0.747046 -0.650702 -0.0336475 -0.916026 -0.399704 
0.0198314 -0.731459 -0.681597 -0.207485 -0.898518 -0.386802 -0.192682 -0.820325 -0.538461 
-0.238566 -0.926467 -0.291111 -0.225524 -0.929709 -0.291171 -0.226048 -0.926893 -0.299617 
0.180322 0.586098 -0.78992 0.121432 0.638525 -0.759961 0.0189652 0.710931 -0.703006 
-0.113396 0.771024 -0.626629 -0.23673 0.80147 -0.549185 0.223912 0.520564 -0.823939 
0.143074 0.56521 -0.812445 0.182812 0.580336 -0.793593 0.148415 0.50115 -0.852538 
0.181031 0.577532 -0.796043 0.125667 0.56774 -0.813559 0.0505196 0.587921 -0.807339 
-0.0758968 0.671606 -0.737011 -0.249797 0.787885 -0.562885 -0.232489 0.774677 -0.588069 
-0.291574 0.702561 -0.649148 -0.232692 0.598768 -0.766375 -0.13639 0.599693 -0.788522 
0.256714 0.520575 -0.814309 0.331225 0.502401 -0.798676 0.220459 0.502977 -0.835711 
0.102761 0.444025 -0.890102 0.0808939 0.365856 -0.927149 0.151274 0.283611 -0.946932 
0.14389 0.277333 -0.949938 0.0838956 0.216679 -0.972631 0.0252269 0.219637 -0.975255 
-0.09169 0.310153 -0.946255 -0.248636 0.404316 -0.880176 -0.246155 0.500775 -0.829839 
-0.146238 0.62359 -0.767952 -0.132638 0.580236 -0.803576 -0.168308 0.651731 -0.73954 
-0.300108 0.614514 -0.729594 0.455914 0.387874 -0.80106 0.500828 0.28672 -0.816678 
0.258164 0.363423 -0.89514 0.13461 0.299279 -0.944623 0.0756566 0.237174 -0.968517 
0.0327791 0.167603 -0.985309 0.0980763 0.0604434 -0.993342 0.0741552 0.0565875 -0.99564 
0.00992454 0.0940822 -0.995515 0.056602 -0.081823 -0.995038 -0.0307759 -0.0355764 -0.998893 
-0.161329 0.0111966 -0.986837 -0.109777 0.197654 -0.974106 -0.0593017 0.333846 -0.94076 
-0.113567 0.427029 -0.897078 -0.403577 0.639149 -0.654686 -0.228508 0.518958 -0.823691 
-0.426728 0.641358 -0.637623 0.514423 0.201407 -0.833549 0.459823 0.176748 -0.870243 
0.263506 0.119008 -0.957289 0.109321 0.151687 -0.982364 -0.0451024 0.106841 -0.993253 
-0.0901074 0.0324262 -0.995404 0.0347117 -0.121665 -0.991964 0.193442 -0.170597 -0.966166 
-0.0639532 0.0844667 -0.994372 -0.102127 -0.199393 -0.974583 0.00325442 -0.224225 -0.974532 
-0.00797284 -0.117361 -0.993057 0.060093 0.0721736 -0.99558 0.0961998 0.200099 -0.975041 
-0.0152337 0.259837 -0.965532 -0.140462 0.30463 -0.942057 -0.635365 0.454986 -0.623938 
-0.346894 0.528267 -0.774983 -0.677762 0.384818 -0.626541 0.508003 0.0885333 -0.856793 
0.370716 0.0452765 -0.927642 0.205905 -0.00953508 -0.978526 0.0974853 -0.0288891 -0.994818 
-0.0417104 -0.0468223 -0.998032 -0.188104 -0.0631465 -0.980117 -0.165521 -0.144966 -0.975493 
0.231086 -0.231067 -0.945096 -0.0854177 -0.24051 -0.966881 -0.17396 -0.146376 -0.973813 
0.0558566 -0.148695 -0.987304 0.131447 -0.137207 -0.981782 0.210873 -0.0258788 -0.977171 
0.126458 0.0318845 -0.991459 0.015657 0.0324395 -0.999351 0.0995108 0.119185 -0.987873 
-0.755209 0.187764 -0.628016 -0.678048 0.148955 -0.719767 0.519855 -0.0727872 -0.851148 
0.281365 -0.0866436 -0.955681 0.204289 -0.0847629 -0.975234 0.0631919 -0.155506 -0.985812 
-0.0776608 -0.184124 -0.97983 -0.180309 -0.176512 -0.967643 -0.110928 -0.125531 -0.985869 
0.0110754 -0.0116053 -0.999871 0.0140914 -0.419189 -0.907789 0.0331451 -0.0917281 -0.995232 
0.0026347 -0.152461 -0.988306 0.12778 -0.166134 -0.977789 0.227523 -0.136924 -0.964098 
0.163497 -0.143761 -0.976013 0.073794 -0.0749648 -0.994452 0.132914 -0.118795 -0.983983 
-0.726287 0.0535369 -0.685304 -0.624802 0.0179687 -0.780577 0.390972 -0.158236 -0.906699 
0.343631 -0.26708 -0.900326 0.302902 -0.126562 -0.944581 0.156664 -0.224256 -0.961855 
0.00395977 -0.232798 -0.972517 -0.0636973 -0.242144 -0.968147 -0.147335 -0.208326 -0.966898 
-0.00377924 -0.119192 -0.992864 -0.0127758 -0.154003 -0.987988 -0.0410157 -0.185664 -0.981757 
-0.0336796 -0.194616 -0.980301 0.069102 -0.261984 -0.962595 0.0477261 -0.246575 -0.967948 
-0.0178589 -0.160881 -0.986812 0.149601 -0.138081 -0.979057 0.229761 -0.150117 -0.9616 
0.181777 -0.191054 -0.964601 0.0382186 -0.264586 -0.963604 -0.0119403 -0.200119 -0.979699 
-0.281575 -0.407521 -0.868701 -0.685965 -0.210353 -0.696565 -0.584028 -0.441719 -0.681026 
-0.506697 -0.191195 -0.840656 0.274905 -0.306634 -0.911264 0.145796 -0.328681 -0.93312 
0.131486 -0.27391 -0.952725 0.0298615 -0.360442 -0.932304 0.0384518 -0.304471 -0.951745 
0.00424485 -0.293734 -0.955878 -0.0521479 -0.26454 -0.962964 -0.0406053 -0.243764 -0.968984 
-0.0554809 -0.185482 -0.98108 -0.0394962 -0.179068 -0.983044 -0.0376765 -0.154284 -0.987308 
-0.0856069 -0.203573 -0.97531 -0.0808124 -0.233093 -0.969091 -0.0851699 -0.21519 -0.972851 
0.0883168 -0.1925 -0.977315 0.0904275 -0.191601 -0.977298 0.0888644 -0.178411 -0.979935 
0.138883 -0.219525 -0.965671 0.130912 -0.172793 -0.97622 0.178307 -0.200574 -0.963316 
0.0563833 -0.247675 -0.967201 0.0426135 -0.351098 -0.935369 -0.0567877 -0.483139 -0.8737 
0.0486998 -0.383844 -0.922113 -0.565776 -0.476737 -0.672769 -0.340092 -0.690822 -0.638046 
-0.336474 -0.337946 -0.878964 0.137832 -0.382996 -0.913409 0.129181 -0.420974 -0.897827 
0.131169 -0.394659 -0.909417 -0.00144345 -0.467616 -0.883931 -0.0110373 -0.41427 -0.910087 
-0.10656 -0.40719 -0.907106 -0.111128 -0.404097 -0.907941 -0.109456 -0.395509 -0.911917 
-0.253308 0.351192 -0.901387 0.0680647 0.134149 -0.988621 -0.304424 0.245136 -0.920453 
-0.205996 0.210168 -0.955717 0.102745 -0.121339 -0.987279 -0.301128 -0.1383 -0.943502 
-0.258137 -0.315764 -0.913049 -0.181052 -0.0869945 -0.979618 
