# vtk DataFile Version 4.2
vtk output
ASCII
DATASET POLYDATA
POINTS 584 float
-27.732 -43.1807 -11.8465 -19.9995 -43.1807 -13.838 -12.267 -43.1807 -13.987 
-4.53445 -43.1807 -14.2497 3.19808 -43.1807 -13.4741 10.9306 -43.1807 -12.0287 
-43.1971 -35.4482 -11.1514 -35.4646 -35.4482 -14.438 -27.732 -35.4482 -15.2208 
-19.9995 -35.4482 -16.5109 -12.267 -35.4482 -16.3628 -4.53445 -35.4482 -16.3287 
3.19808 -35.4482 -16.135 10.9306 -35.4482 -15.612 18.6631 -35.4482 -15.0633 
26.3957 -35.4482 -14.1881 34.1282 -35.4482 -13.4597 41.8607 -35.4482 -10.8993 
-43.1971 -27.7156 -14.107 -35.4646 -27.7156 -15.7455 -27.732 -27.7156 -16.7809 
-19.9995 -27.7156 -16.9206 -12.267 -27.7156 -17.141 -4.53445 -27.7156 -16.5942 
3.19808 -27.7156 -16.7721 10.9306 -27.7156 -16.576 18.6631 -27.7156 -16.4815 
26.3957 -27.7156 -16.4434 34.1282 -27.7156 -16.1635 41.8607 -27.7156 -15.8133 
49.5933 -27.7156 -12.7698 -50.9296 -19.9831 -12.0181 -43.1971 -19.9831 -15.591 
-35.4646 -19.9831 -16.9732 -27.732 -19.9831 -16.931 -19.9995 -19.9831 -16.3739 
-12.267 -19.9831 -16.0329 -4.53445 -19.9831 -15.7182 3.19808 -19.9831 -16.1617 
10.9306 -19.9831 -15.8519 18.6631 -19.9831 -16.3894 26.3957 -19.9831 -17.1181 
34.1282 -19.9831 -17.106 41.8607 -19.9831 -16.0062 49.5933 -19.9831 -14.6575 
57.3258 -19.9831 -10.7799 -50.9296 -12.2506 -14.5424 -43.1971 -12.2506 -15.7403 
-35.4646 -12.2506 -16.5125 -27.732 -12.2506 -16.6545 -19.9995 -12.2506 -15.9394 
-12.267 -12.2506 -14.877 -4.53445 -12.2506 -15.5327 3.19808 -12.2506 -16.0696 
10.9306 -12.2506 -14.7887 18.6631 -12.2506 -15.4202 26.3957 -12.2506 -16.3946 
34.1282 -12.2506 -16.9758 41.8607 -12.2506 -16.4392 49.5933 -12.2506 -15.8013 
57.3258 -12.2506 -12.4399 -58.6622 -4.51806 -12.1233 -50.9296 -4.51806 -15.3723 
-43.1971 -4.51806 -15.9959 -35.4646 -4.51806 -16.3512 -27.732 -4.51806 -15.9028 
-19.9995 -4.51806 -15.2565 -12.267 -4.51806 -17.0527 -4.53445 -4.51806 -17.3211 
3.19808 -4.51806 -16.3591 10.9306 -4.51806 -16.6189 18.6631 -4.51806 -14.9582 
26.3957 -4.51806 -15.8523 34.1282 -4.51806 -16.5884 41.8607 -4.51806 -16.6398 
49.5933 -4.51806 -16.31 57.3258 -4.51806 -12.2336 -58.6622 3.21447 -12.2163 
-50.9296 3.21447 -14.8322 -43.1971 3.21447 -15.6711 -35.4646 3.21447 -15.9546 
-27.732 3.21447 -15.3683 -19.9995 3.21447 -14.7751 -12.267 3.21447 -16.6567 
-4.53445 3.21447 -16.1153 3.19808 3.21447 -15.2527 10.9306 3.21447 -17.8573 
18.6631 3.21447 -14.975 26.3957 3.21447 -15.6107 34.1282 3.21447 -16.2303 
41.8607 3.21447 -16.2324 49.5933 3.21447 -16.5914 57.3258 3.21447 -12.0807 
-58.6622 10.947 -11.6256 -50.9296 10.947 -13.6528 -43.1971 10.947 -14.8862 
-35.4646 10.947 -15.8419 -27.732 10.947 -15.2491 -19.9995 10.947 -14.4144 
-12.267 10.947 -14.2817 -4.53445 10.947 -17.0257 3.19808 10.947 -16.2335 
10.9306 10.947 -15.2655 18.6631 10.947 -15.6235 26.3957 10.947 -16.0408 
34.1282 10.947 -16.5094 41.8607 10.947 -15.9857 49.5933 10.947 -15.5735 
57.3258 10.947 -13.0831 -50.9296 18.6795 -11.7075 -43.1971 18.6795 -14.9411 
-35.4646 18.6795 -14.7154 -27.732 18.6795 -14.6477 -19.9995 18.6795 -14.6609 
-12.267 18.6795 -14.1847 -4.53445 18.6795 -14.1572 3.19808 18.6795 -14.5295 
10.9306 18.6795 -15.1047 18.6631 18.6795 -16.1561 26.3957 18.6795 -16.6711 
34.1282 18.6795 -17.1167 41.8607 18.6795 -15.3343 49.5933 18.6795 -14.1659 
57.3258 18.6795 -11.9699 -43.1971 26.4121 -11.9162 -35.4646 26.4121 -14.5013 
-27.732 26.4121 -13.8166 -19.9995 26.4121 -14.0518 -12.267 26.4121 -12.8583 
-4.53445 26.4121 -12.3803 3.19808 26.4121 -13.4266 10.9306 26.4121 -14.8221 
18.6631 26.4121 -15.6668 26.3957 26.4121 -16.0919 34.1282 26.4121 -15.4454 
41.8607 26.4121 -15.3651 49.5933 26.4121 -11.2637 -27.732 34.1446 -11.2948 
-19.9995 34.1446 -10.8673 10.9306 34.1446 -12.2233 18.6631 34.1446 -13.3455 
26.3957 34.1446 -13.766 34.1282 34.1446 -13.0913 -27.732 -44.2874 -10.6838 
-19.9995 -46.4872 -10.6838 -12.267 -47.9035 -10.6838 -12.267 -50.9132 -3.25711 
-4.53445 -48.1796 -10.6838 -4.53445 -50.9132 -3.52672 3.19808 -46.5771 -10.6838 
10.9306 -44.6283 -10.6838 -43.1971 -36.0463 -10.6838 -30.7283 -43.1807 -10.6838 
-35.4646 -40.7304 -10.6838 -35.4646 -43.1807 -5.2204 15.3551 -43.1807 -10.6838 
18.6631 -41.8016 -10.6838 18.6631 -43.1807 -8.27352 26.3957 -40.796 -10.6838 
26.3957 -43.1807 -4.30862 34.1282 -38.5969 -10.6838 41.8607 -35.6676 -10.6838 
-43.8604 -35.4482 -10.6838 42.2447 -35.4482 -10.6838 49.5933 -30.8146 -10.6838 
-50.0042 -27.7156 -10.6838 -50.9296 -25.764 -10.6838 -50.9296 -27.7156 -9.7375 
52.4624 -27.7156 -10.6838 57.3258 -20.1602 -10.6838 -53.1323 -19.9831 -10.6838 
-58.6622 -19.9831 -4.28799 57.4254 -19.9831 -10.6838 -58.5647 -12.2506 -10.6838 
-58.6622 -12.0611 -10.6838 -58.6622 -12.2506 -10.6156 59.7498 -12.2506 -10.6838 
-60.5813 -4.51806 -10.6838 59.7956 -4.51806 -10.6838 65.0583 -4.51806 -5.81335 
-60.7899 3.21447 -10.6838 -66.3947 3.21447 -3.40588 59.8501 3.21447 -10.6838 
65.0583 3.21447 -6.68729 -59.9763 10.947 -10.6838 -58.6622 13.8256 -10.6838 
60.9398 10.947 -10.6838 65.0583 10.947 -5.5327 -53.5988 18.6795 -10.6838 
-58.6622 18.6795 -8.5012 -50.9296 24.556 -10.6838 58.927 18.6795 -10.6838 
57.3258 21.2383 -10.6838 -58.6622 26.4121 -3.7601 -49.3221 26.4121 -10.6838 
-50.9296 26.4121 -10.3399 -43.1971 30.0593 -10.6838 -35.4646 33.3745 -10.6838 
-12.267 31.9023 -10.6838 -4.53445 31.0743 -10.6838 3.19808 33.9566 -10.6838 
41.8607 33.6623 -10.6838 50.7216 26.4121 -10.6838 49.5933 27.656 -10.6838 
57.3258 26.4121 -5.76177 -50.9296 34.1446 -4.3163 -43.1971 34.1446 -9.07916 
-32.2669 34.1446 -10.6838 -35.4646 34.1446 -10.2827 -27.732 35.2045 -10.6838 
-18.7673 34.1446 -10.6838 -19.9995 34.4624 -10.6838 -12.267 34.1446 -9.74099 
-4.53445 34.1446 -9.48538 3.54885 34.1446 -10.6838 3.19808 34.1446 -10.6062 
10.9306 36.4851 -10.6838 18.6631 38.1954 -10.6838 26.3957 39.0514 -10.6838 
40.9772 34.1446 -10.6838 34.1282 37.5446 -10.6838 41.8607 34.1446 -10.3399 
49.5933 34.1446 -5.41772 -35.4646 41.8771 -3.5919 -27.732 41.8771 -6.17992 
-19.9995 41.8771 -5.54847 -12.267 41.8771 -4.42337 -4.53445 41.8771 -3.93693 
3.19808 41.8771 -4.6023 10.9306 41.8771 -5.11534 18.6631 41.8771 -6.57345 
26.3957 41.8771 -7.02142 34.1282 41.8771 -5.16384 -12.267 -50.9965 -2.95126 
-4.53445 -51.0624 -2.95126 -35.4646 -43.8046 -2.95126 -27.732 -47.2149 -2.95126 
-12.8578 -50.9132 -2.95126 -19.9995 -49.8609 -2.95126 -12.267 -50.9132 -2.60319 
-3.69222 -50.9132 -2.95126 -4.53445 -50.9132 -2.1981 3.19808 -49.6547 -2.95126 
10.9306 -47.6744 -2.95126 18.6631 -45.0844 -2.95126 26.3957 -43.5203 -2.95126 
-36.5748 -43.1807 -2.95126 -43.1971 -38.9449 -2.95126 -35.4646 -43.1807 -1.40969 
28.4906 -43.1807 -2.95126 26.3957 -43.1807 -1.70115 34.1282 -42.2215 -2.95126 
41.8607 -38.831 -2.95126 -47.362 -35.4482 -2.95126 -50.9296 -31.7838 -2.95126 
-43.1971 -35.4482 4.06896 47.6532 -35.4482 -2.95126 49.5933 -34.1441 -2.95126 
-54.2869 -27.7156 -2.95126 -58.6622 -21.0857 -2.95126 -50.9296 -27.7156 4.32955 
55.9195 -27.7156 -2.95126 57.3258 -25.8481 -2.95126 -59.3073 -19.9831 -2.95126 
-58.6622 -19.9831 -0.865853 61.411 -19.9831 -2.95126 -63.3712 -12.2506 -2.95126 
64.5117 -12.2506 -2.95126 65.0583 -10.5151 -2.95126 -65.6595 -4.51806 -2.95126 
-66.3947 1.06594 -2.95126 66.8769 -4.51806 -2.95126 -66.6681 3.21447 -2.95126 
-66.3947 7.46452 -2.95126 67.5237 3.21447 -2.95126 -66.1123 10.947 -2.95126 
66.7785 10.947 -2.95126 65.0583 17.2372 -2.95126 -63.4996 18.6795 -2.95126 
64.6516 18.6795 -2.95126 -59.3112 26.4121 -2.95126 -58.6622 27.1939 -2.95126 
59.4304 26.4121 -2.95126 57.3258 29.0704 -2.95126 -52.2696 34.1446 -2.95126 
-50.9296 35.3118 -2.95126 -43.1971 39.7125 -2.95126 41.8607 39.8155 -2.95126 
51.7346 34.1446 -2.95126 49.5933 35.5972 -2.95126 -36.8808 41.8771 -2.95126 
-35.4646 42.3311 -2.95126 -27.732 44.1554 -2.95126 -19.9995 43.9737 -2.95126 
-12.267 43.1502 -2.95126 -4.53445 42.7136 -2.95126 3.19808 43.0618 -2.95126 
10.9306 43.183 -2.95126 18.6631 43.8643 -2.95126 26.3957 43.824 -2.95126 
36.7296 41.8771 -2.95126 34.1282 42.8175 -2.95126 -27.732 -43.3098 4.78127 
-19.9995 -46.2136 4.78127 -12.267 -48.6379 4.78127 -4.53445 -49.2232 4.78127 
3.19808 -47.6632 4.78127 10.9306 -45.5814 4.78127 18.6631 -43.3076 4.78127 
-28.0501 -43.1807 4.78127 -35.4646 -39.4006 4.78127 -27.732 -43.1807 4.92237 
-19.9995 -43.1807 7.73551 -12.267 -43.1807 10.2161 -4.53445 -43.1807 11.362 
3.19808 -43.1807 10.1399 10.9306 -43.1807 7.96002 19.1706 -43.1807 4.78127 
18.6631 -43.1807 4.96035 26.3957 -40.8825 4.78127 34.1282 -38.5888 4.78127 
41.8607 -36.1032 4.78127 -42.3749 -35.4482 4.78127 -43.1971 -34.7929 4.78127 
-35.4646 -35.4482 8.17995 -27.732 -35.4482 10.5118 18.6631 -35.4482 12.0531 
26.3957 -35.4482 9.74434 34.1282 -35.4482 8.14729 42.9142 -35.4482 4.78127 
41.8607 -35.4482 5.49462 49.5933 -30.5399 4.78127 -50.5346 -27.7156 4.78127 
-50.9296 -27.2483 4.78127 -43.1971 -27.7156 9.27705 -35.4646 -27.7156 11.4931 
34.1282 -27.7156 12.0999 41.8607 -27.7156 9.59216 52.4327 -27.7156 4.78127 
49.5933 -27.7156 7.11811 57.3258 -21.4337 4.78127 -55.737 -19.9831 4.78127 
-58.6622 -16.7036 4.78127 -50.9296 -19.9831 8.646 -43.1971 -19.9831 11.5107 
49.5933 -19.9831 11.2156 58.4091 -19.9831 4.78127 57.3258 -19.9831 5.80579 
-61.2662 -12.2506 4.78127 -58.6622 -12.2506 7.49206 -50.9296 -12.2506 10.5383 
49.5933 -12.2506 12.394 61.5513 -12.2506 4.78127 57.3258 -12.2506 8.8233 
65.0583 -6.9512 4.78127 -63.3906 -4.51806 4.78127 -66.3947 3.2143 4.78127 
-58.6622 -4.51806 9.59594 57.3258 -4.51806 11.4512 66.1029 -4.51806 4.78127 
65.0583 -4.51806 6.05659 -66.3947 3.21447 4.78127 -66.3947 3.21521 4.78127 
-66.3947 3.21447 4.78133 57.3258 3.21447 12.2113 66.5588 3.21447 4.78127 
65.0583 3.21447 6.77906 -65.7675 10.947 4.78127 57.3258 10.947 11.8061 
65.9916 10.947 4.78127 65.0583 14.4676 4.78127 65.0583 10.947 6.02611 
-63.1802 18.6795 4.78127 -58.6622 18.6795 10.3155 63.3925 18.6795 4.78127 
57.3258 18.6795 11.9218 -60.2243 26.4121 4.78127 -58.6622 28.4116 4.78127 
-58.6622 26.4121 6.78661 49.5933 26.4121 10.4352 58.5722 26.4121 4.78127 
[...]
POINT_DATA 584
SCALARS ImageScalars float
LOOKUP_TABLE default
0 0 0 0 0 0 0 0 0 
0 0 0 0 0 0 0 0 0 
0 0 0 0 0 0 0 0 0 
0 0 0 0 0 0 0 0 0 
0 0 0 0 0 0 0 0 0 
0 0 0 0 0 0 0 0 0 
0 0 0 0 0 0 0 0 0 
0 0 0 0 0 0 0 0 0 
0 0 0 0 0 0 0 0 0 
0 0 0 0 0 0 0 0 0 
0 0 0 0 0 0 0 0 0 
0 0 0 0 0 0 0 0 0 
0 0 0 0 0 0 0 0 0 
0 0 0 0 0 0 0 0 0 
0 0 0 0 0 0 0 0 0 
0 0 0 0 0 0 0 0 0 
0 0 0 0 0 0 0 0 0 
0 0 0 0 0 0 0 0 0 
0 0 0 0 0 0 0 0 0 
0 0 0 0 0 0 0 0 0 
0 0 0 0 0 0 0 0 0 
0 0 0 0 0 0 0 0 0 
0 0 0 0 0 0 0 0 0 
0 0 0 0 0 0 0 0 0 
0 0 0 0 0 0 0 0 0 
0 0 0 0 0 0 0 0 0 
0 0 0 0 0 0 0 0 0 
0 0 0 0 0 0 0 0 0 
0 0 0 0 0 0 0 0 0 
0 0 0 0 0 0 0 0 0 
0 0 0 0 0 0 0 0 0 
0 0 0 0 0 0 0 0 0 
0 0 0 0 0 0 0 0 0 
0 0 0 0 0 0 0 0 0 
0 0 0 0 0 0 0 0 0 
0 0 0 0 0 0 0 0 0 
0 0 0 0 0 0 0 0 0 
0 0 0 0 0 0 0 0 0 
0 0 0 0 0 0 0 0 0 
0 0 0 0 0 0 0 0 0 
0 0 0 0 0 0 0 0 0 
0 0 0 0 0 0 0 0 0 
0 0 0 0 0 0 0 0 0 
0 0 0 0 0 0 0 0 0 
0 0 0 0 0 0 0 0 0 
0 0 0 0 0 0 0 0 0 
0 0 0 0 0 0 0 0 0 
0 0 0 0 0 0 0 0 0 
0 0 0 0 0 0 0 0 0 
0 0 0 0 0 0 0 0 0 
0 0 0 0 0 0 0 0 0 
0 0 0 0 0 0 0 0 0 
0 0 0 0 0 0 0 0 0 
0 0 0 0 0 0 0 0 0 
0 0 0 0 0 0 0 0 0 
0 0 0 0 0 0 0 0 0 
0 0 0 0 0 0 0 0 0 
0 0 0 0 0 0 0 0 0 
0 0 0 0 0 0 0 0 0 
0 0 0 0 0 0 0 0 0 
0 0 0 0 0 0 0 0 0 
0 0 0 0 0 0 0 0 0 
0 0 0 0 0 0 0 0 0 
0 0 0 0 0 0 0 0 0 
0 0 0 0 0 0 0 0 
NORMALS Normals float
0.271694 0.665995 0.694718 0.114244 0.553211 0.82517 0.0240185 0.476806 0.878681 
-0.0306585 0.449201 0.892904 -0.136834 0.533101 0.834913 -0.210671 0.653503 0.727015 
0.512799 0.532158 0.67368 0.258866 0.391067 0.883207 0.121231 0.282053 0.951709 
0.0717151 0.15879 0.984704 -0.0104358 0.184803 0.98272 -0.0146735 0.146043 0.989169 
-0.0460694 0.196559 0.979409 -0.0642215 0.255102 0.964779 -0.100508 0.357588 0.928455 
-0.0878151 0.453772 0.886781 -0.196855 0.540739 0.817833 -0.365001 0.679806 0.636112 
0.341038 0.294653 0.892677 0.159622 0.145727 0.976363 0.0693614 0.0990654 0.992661 
0.0229141 -0.011322 0.999673 -0.022162 -0.0123999 0.999677 -0.0210369 -0.0399462 0.99898 
-0.00118232 0.000560197 0.999999 -0.018619 0.0148429 0.999716 -0.00890525 0.0748337 0.997156 
-0.0185016 0.177697 0.983911 -0.038953 0.200825 0.978852 -0.233962 0.27111 0.933682 
-0.466074 0.413936 0.781941 0.495973 0.237607 0.835197 0.257038 0.079406 0.963134 
0.102032 0.0466645 0.993686 -0.0385842 -0.00611208 0.999237 -0.0562273 -0.0630843 0.996423 
-0.0436281 -0.140874 0.989066 0.00987239 -0.0674783 0.997672 0.00868748 -0.0453699 0.998932 
0.0148957 -0.117 0.99302 0.0813436 -0.0680909 0.994358 0.0462081 0.000846763 0.998931 
-0.0651206 0.0457754 0.996827 -0.151675 0.0379814 0.9877 -0.350538 0.215463 0.911427 
-0.637169 0.354422 0.684398 0.354123 0.193243 0.915016 0.114747 0.027827 0.993005 
0.0566144 -0.0388805 0.997639 -0.0383192 -0.0687634 0.996897 -0.108555 -0.0726229 0.991434 
-0.0313063 0.051218 0.998197 0.078518 0.0837364 0.99339 -0.0546632 0.00996058 0.998455 
-0.0363884 0.0320073 0.998825 0.105596 -0.0941463 0.989942 0.0998393 -0.08116 0.991688 
0.0032064 -0.0345441 0.999398 -0.0703045 0.0395553 0.996741 -0.268513 0.0899048 0.959071 
-0.511739 0.0848135 0.854945 0.509387 0.0953583 0.855238 0.308603 0.0135227 0.951095 
0.057402 -0.00485782 0.998339 -0.00649082 -0.0360208 0.99933 -0.0704779 -0.0791291 0.99437 
0.0559033 -0.0747765 0.995632 0.143747 0.126214 0.981533 -0.0421421 0.0532418 0.997692 
-0.0401729 -0.0446187 0.998196 -0.105145 0.206549 0.97277 -0.0333441 -0.0287364 0.999031 
0.104972 -0.050402 0.993197 0.050459 -0.048085 0.997568 -0.0160542 -0.0137132 0.999777 
-0.252871 0.0435414 0.96652 -0.484579 -0.0223308 0.874463 0.489787 -0.0345221 0.871158 
0.254854 -0.104122 0.961357 0.067051 -0.0711391 0.99521 -0.0197453 -0.0328486 0.999265 
-0.0775901 -0.043069 0.996055 0.0556303 -0.0548197 0.996945 0.10855 -0.199215 0.973925 
-0.0833507 -0.00818475 0.996487 0.120195 -0.000162707 0.99275 -0.0639032 -0.110569 0.991812 
-0.114063 0.0441549 0.992492 0.0810219 0.0122086 0.996638 0.0400893 -0.00510991 0.999183 
0.0203587 -0.0411201 0.998947 -0.224566 -0.0402984 0.973625 -0.464284 0.0649788 0.883299 
0.471083 -0.189387 0.861518 0.237243 -0.192723 0.952142 0.128725 -0.0459837 0.990614 
0.0229065 -0.0796923 0.996556 -0.0913987 -0.0463298 0.994736 -0.0623773 -0.00740217 0.998025 
0.15507 -0.126771 0.979736 0.136338 -0.142806 0.980315 -0.115519 -0.0629862 0.991306 
-0.0351343 -0.149834 0.988087 0.0500309 0.0762455 0.995833 0.057091 0.0681792 0.996038 
-0.00331034 0.058536 0.99828 -0.0573078 -0.0567099 0.996745 -0.215088 -0.136437 0.967017 
-0.43038 -0.0224697 0.902368 0.336779 -0.170955 0.925934 0.172523 -0.171353 0.969986 
-0.0175091 -0.0848369 0.996241 -0.00344813 -0.090389 0.995901 -0.0299911 -0.0214496 0.99932 
-0.0324603 -0.0890878 0.995495 0.0218279 -0.27812 0.960298 0.0602604 -0.168732 0.983818 
0.10611 -0.0282158 0.993954 0.100672 0.00385138 0.994912 0.0628818 0.00181831 0.998019 
-0.0790737 -0.0608789 0.995008 -0.180755 -0.0399951 0.982715 -0.24373 -0.252456 0.936409 
-0.481064 -0.28783 0.828089 0.211559 -0.30102 0.929855 0.107925 -0.254612 0.961002 
-0.0239707 -0.194069 0.980695 -0.0596653 -0.221131 0.973417 -0.101138 -0.256718 0.96118 
0.0342024 -0.280214 0.959328 0.153305 -0.238649 0.958929 0.141808 -0.171015 0.97501 
0.0817251 -0.168178 0.982363 -0.0129025 -0.176936 0.984138 -0.0477864 -0.232006 0.97154 
-0.231607 -0.256077 0.9385 -0.402999 -0.331381 0.8531 0.0342724 -0.41892 0.907376 
-0.0881512 -0.447408 0.889975 0.16659 -0.45701 0.873722 0.0940166 -0.422859 0.901305 
-0.0101415 -0.435189 0.900282 -0.194842 -0.464611 0.863813 0.278481 0.73149 0.622391 
0.193858 0.740497 0.643494 0.0792629 0.748473 0.658411 0.0750036 0.996523 0.03628 
-0.0703272 0.75894 0.647352 -0.0843643 0.99426 0.0658056 -0.18654 0.737294 0.649308 
-0.242621 0.729857 0.639096 0.528983 0.566576 0.631798 0.326188 0.718296 0.614534 
0.378209 0.669105 0.639731 0.463576 0.878234 0.117487 -0.214237 0.758749 0.615144 
-0.181844 0.758389 0.625922 -0.224763 0.888346 0.400404 -0.14012 0.760614 0.633903 
-0.177053 0.980723 0.0826685 -0.265639 0.716185 0.645379 -0.366037 0.692373 0.621801 
0.540025 0.554241 0.633396 -0.373355 0.686814 0.623613 -0.526716 0.545647 0.651798 
0.579531 0.386158 0.717653 0.588208 0.344029 0.731885 0.647492 0.433448 0.626799 
-0.618079 0.475572 0.625947 -0.641503 0.361925 0.676376 0.587552 0.281695 0.758571 
0.856871 0.493441 0.149294 -0.640223 0.357644 0.679857 0.587716 0.268668 0.763156 
0.589091 0.265362 0.763253 0.593926 0.271194 0.757433 -0.628394 0.13846 0.765473 
0.588594 0.113136 0.800473 -0.575177 0.00409636 0.818019 -0.885416 0.170749 0.432299 
0.574574 -0.0310146 0.817865 0.946349 0.0304982 0.321704 -0.542937 0.058333 0.837745 
-0.861372 -0.0135155 0.507794 0.525678 -0.178949 0.831649 0.447148 -0.284253 0.848092 
-0.616477 -0.0853497 0.782734 -0.885455 -0.20161 0.418716 0.353495 -0.257007 0.899438 
0.520025 -0.431574 0.737101 0.391463 -0.341758 0.854376 -0.549863 -0.300896 0.779175 
-0.488246 -0.412078 0.76929 0.73023 -0.549304 0.406237 0.364396 -0.379033 0.850617 
0.41702 -0.406685 0.812836 0.261992 -0.421465 0.868175 0.112691 -0.47739 0.871435 
-0.0862599 -0.399713 0.912573 0.0436469 -0.376381 0.925436 0.159946 -0.434842 0.886188 
-0.294326 -0.555191 0.777904 -0.416541 -0.376397 0.827538 -0.423183 -0.391172 0.817252 
-0.67836 -0.626053 0.384559 0.551866 -0.70652 0.443027 0.333557 -0.609112 0.719529 
0.0803026 -0.464755 0.88179 0.115317 -0.505913 0.854841 0.0368484 -0.449468 0.892536 
-0.0868383 -0.448765 0.889421 -0.088685 -0.453114 0.88703 -0.0814296 -0.465708 0.881184 
0.045589 -0.454492 0.889583 0.160257 -0.440801 0.883183 0.159504 -0.440661 0.883389 
0.156842 -0.552883 0.818365 0.104034 -0.62594 0.772901 -0.022596 -0.666777 0.744915 
-0.2879 -0.561733 0.775609 -0.224594 -0.615621 0.75536 -0.302812 -0.586337 0.751341 
-0.535187 -0.794982 0.28562 0.270756 -0.854244 0.443801 0.0789892 -0.781211 0.61925 
-0.0892302 -0.74737 0.658389 -0.0806018 -0.755802 0.64982 0.00486368 -0.775055 0.631875 
0.0540372 -0.813943 0.578426 0.0764263 -0.853578 0.515329 0.0714725 -0.877695 0.47386 
-0.0400862 -0.889495 0.455184 -0.247937 -0.915939 0.315567 0.0745593 0.997082 0.0163596 
-0.0830616 0.996084 0.0302903 0.458151 0.886982 -0.0579762 0.360656 0.931725 -0.0426098 
0.0867094 0.99615 0.0128758 0.236653 0.971238 -0.026287 0.0776667 0.996973 -0.00356481 
-0.0983905 0.994664 0.031044 -0.0823259 0.996562 -0.00928328 -0.224776 0.973464 0.0429252 
-0.286083 0.957551 0.0353901 -0.259804 0.964574 0.0458036 -0.182406 0.983167 -0.0105526 
0.47677 0.877093 -0.0582946 0.604581 0.794762 -0.05325 0.459209 0.87391 -0.1594 
-0.204633 0.978775 -0.0111545 -0.187961 0.978549 -0.0843371 -0.274092 0.961649 -0.0102117 
-0.445947 0.895048 0.00444934 0.678016 0.734026 -0.0387327 0.741426 0.670939 -0.011306 
0.513945 0.629992 -0.582212 -0.557416 0.830152 -0.0116254 -0.604972 0.795962 -0.021288 
0.792006 0.610273 0.0171283 0.86015 0.505673 0.0666046 0.609364 0.525856 -0.593423 
-0.784332 0.620329 0.00387062 -0.813195 0.581766 0.0161661 0.867466 0.492364 0.0712822 
0.851497 0.51665 -0.0895834 -0.876223 0.475929 0.0756598 0.916838 0.37403 0.139676 
-0.938311 0.327936 0.109686 -0.9424 0.29995 0.14803 0.963227 0.200298 0.179095 
0.960488 0.0821713 0.265916 -0.952841 0.192183 0.234859 0.956886 0.0324918 0.288642 
0.947742 -0.0937849 0.304942 -0.97478 -0.00461169 0.223121 0.930911 -0.195362 0.308606 
-0.947868 -0.190964 0.255105 -0.894225 -0.348104 0.281398 0.903647 -0.379871 0.19779 
-0.883069 -0.380446 0.274683 0.752741 -0.559992 0.346106 0.74177 -0.575651 0.344098 
-0.771667 -0.607749 0.187539 -0.730741 -0.64874 0.212496 0.60847 -0.719408 0.334987 
0.572716 -0.742997 0.346339 0.396528 -0.838613 0.373489 -0.399443 -0.903588 0.154838 
-0.581277 -0.796509 0.166405 -0.533472 -0.829365 0.166014 0.293618 -0.864023 0.408965 
0.267666 -0.871146 0.411655 0.0959506 -0.903527 0.417652 -0.0615988 -0.861399 0.504179 
-0.0759848 -0.810715 0.580489 -0.00414223 -0.813335 0.581781 0.0287225 -0.864793 0.501306 
0.0518378 -0.908359 0.414966 0.0400574 -0.958509 0.282232 -0.0726482 -0.979656 0.187073 
-0.300332 -0.94057 0.158523 -0.247149 -0.955441 0.1614 0.303588 0.734034 -0.607476 
0.27082 0.750153 -0.603264 0.152222 0.850854 -0.502868 -0.056083 0.895796 -0.440913 
-0.213359 0.875846 -0.432864 -0.261429 0.850929 -0.455604 -0.24763 0.858109 -0.449809 
0.307008 0.732043 -0.608161 0.393505 0.655346 -0.644729 0.302595 0.729188 -0.613776 
0.253383 0.649846 -0.716587 0.186209 0.616829 -0.764754 0.00335718 0.594808 -0.803861 
-0.160762 0.661938 -0.732116 -0.241306 0.7472 -0.619244 -0.245189 0.857281 -0.452717 
-0.247221 0.853574 -0.458577 -0.228537 0.815052 -0.53241 -0.27025 0.766107 -0.583134 
-0.391545 0.723072 -0.569087 0.48093 0.600268 -0.639049 0.486608 0.595824 -0.63891 
0.348542 0.516313 -0.782265 0.249597 0.430648 -0.86732 -0.201296 0.482853 -0.852252 
-0.195218 0.579921 -0.790937 -0.242019 0.625017 -0.742146 -0.41095 0.704738 -0.578328 
-0.395656 0.683464 -0.61346 -0.532852 0.591203 -0.605432 0.582383 0.511219 -0.632048 
0.590222 0.504909 -0.629845 0.388564 0.417246 -0.821537 0.228085 0.286312 -0.930593 
-0.234933 0.285142 -0.929247 -0.294689 0.395493 -0.86991 -0.592194 0.531725 -0.605454 
-0.496421 0.521275 -0.694146 -0.651035 0.462023 -0.602236 0.651168 0.468396 -0.597147 
0.698018 0.438566 -0.566065 0.506018 0.35041 -0.788136 0.240483 0.244987 -0.939228 
-0.372814 0.315759 -0.872529 -0.665898 0.440119 -0.602391 -0.633429 0.43764 -0.638153 
0.763911 0.352511 -0.540533 0.652263 0.362461 -0.665714 0.360805 0.213808 -0.907803 
-0.298353 0.187062 -0.935945 -0.737373 0.38341 -0.556127 -0.574183 0.321853 -0.752811 
-0.824235 0.304798 -0.477215 0.796093 0.262072 -0.545485 0.893643 0.104112 -0.436535 
0.569094 0.246575 -0.784432 -0.483415 0.162326 -0.860209 -0.8656 0.247853 -0.435093 
-0.803719 0.258185 -0.536076 0.893645 0.104108 -0.436533 0.893648 0.104083 -0.436532 
0.893642 0.104108 -0.436537 -0.467472 0.0181707 -0.883821 -0.915466 -0.00512973 -0.402363 
-0.829977 0.00450901 -0.557779 0.903802 -0.155958 -0.398522 -0.49268 -0.0199356 -0.869982 
-0.897862 -0.173327 -0.404724 -0.860367 -0.284139 -0.423123 -0.853696 -0.176734 -0.489865 
0.859596 -0.34122 -0.380347 0.604152 -0.282668 -0.74505 -0.807294 -0.40282 -0.431292 
-0.505688 -0.274643 -0.817833 0.80299 -0.509098 -0.309881 0.761874 -0.573514 -0.301049 
0.756425 -0.505011 -0.415676 -0.394816 -0.447537 -0.802391 -0.70555 -0.566647 -0.42557 
-0.678512 -0.598294 -0.426223 -0.665509 -0.569801 -0.482104 0.633053 -0.721916 -0.279431 
0.587013 -0.759897 -0.279236 0.544542 -0.698357 -0.464512 0.480493 -0.83575 -0.265798 
0.349166 -0.554804 -0.755166 -0.34727 -0.477177 -0.807283 -0.392419 -0.796737 -0.459584 
-0.328839 -0.648578 -0.686448 -0.496036 -0.753119 -0.432156 -0.492538 -0.755269 -0.432406 
-0.491447 -0.75249 -0.43845 0.435569 -0.878766 -0.195065 0.315495 -0.937954 -0.143895 
0.308782 -0.82035 -0.481332 0.172853 -0.976435 -0.129213 0.182855 -0.72245 -0.666806 
0.0670435 -0.997572 -0.0188567 -0.0141839 -0.998794 0.0470038 -0.0702506 -0.995755 0.0594705 
-0.0648913 -0.997518 -0.0273473 -0.0827587 -0.991245 -0.102883 -0.144024 -0.774509 -0.615948 
-0.132076 -0.96478 -0.227499 -0.178379 -0.827052 -0.533072 -0.14746 -0.925037 -0.350089 
-0.154454 -0.880657 -0.44787 -0.273274 -0.884768 -0.377501 -0.264849 -0.888028 -0.375847 
-0.264769 -0.88117 -0.391709 0.227927 0.414296 -0.88114 0.170195 0.452514 -0.875365 
0.0169582 0.507135 -0.8617 -0.138248 0.492669 -0.859165 -0.195563 0.475206 -0.857866 
0.229502 0.389707 -0.891884 0.219932 0.311212 -0.924541 0.2266 0.381803 -0.896035 
0.151617 0.317845 -0.935942 0.0238663 0.286116 -0.957898 -0.108774 0.332837 -0.93669 
-0.195027 0.45891 -0.866814 -0.181867 0.419962 -0.889132 -0.194207 0.441189 -0.876148 
-0.16707 0.369735 -0.913993 0.211539 0.270152 -0.939292 0.216312 0.229971 -0.948853 
0.208306 0.268011 -0.940627 0.162453 0.204697 -0.96525 0.0930765 0.139501 -0.985838 
0.0276908 0.0841899 -0.996065 -0.0298026 0.110628 -0.993415 -0.099292 0.177552 -0.97909 
-0.148161 0.238749 -0.959712 -0.215605 0.282215 -0.93481 -0.171383 0.2946 -0.940127 
-0.216468 0.262657 -0.940294 -0.160195 0.31167 -0.936589 0.219568 0.213344 -0.951985 
0.236377 0.216057 -0.947336 0.21811 0.196164 -0.956006 0.181454 0.148259 -0.972159 
0.109457 0.108455 -0.988057 0.0230711 0.102322 -0.994484 -0.00593467 0.0175075 -0.999829 
-0.00488883 0.0125429 -0.999909 -0.0436883 0.0570153 -0.997417 -0.0970578 0.0897066 -0.991228 
-0.121895 0.140336 -0.982572 -0.145124 0.214919 -0.965789 -0.170094 0.310451 -0.935248 
-0.15806 0.309969 -0.937516 0.295568 0.190197 -0.936197 0.279654 0.253098 -0.92614 
0.253007 0.186542 -0.94931 0.137015 0.138375 -0.980856 0.114196 0.0436511 -0.992499 
0.117132 -0.00698253 -0.993092 0.00245025 0.0146705 -0.999889 -0.0631253 0.0148715 -0.997895 
0.00976093 0.0496177 -0.998721 -0.0230683 0.042291 -0.998839 -0.0618112 0.0495965 -0.996855 
-0.0530008 0.103476 -0.993219 -0.0857981 0.148416 -0.985196 -0.290495 0.185637 -0.938697 
-0.189425 0.192205 -0.9629 -0.294091 0.185514 -0.937601 0.302257 0.263011 -0.916224 
0.497053 0.137746 -0.856718 0.272365 0.263216 -0.925492 0.161117 0.133651 -0.977844 
0.0681528 0.0927755 -0.993352 0.0420955 0.0273604 -0.998739 0.0840647 -0.0485003 -0.995279 
0.0452754 -0.0543054 -0.997497 0.0271842 0.0333089 -0.999075 0.0220911 0.00274824 -0.999752 
-0.0437724 -0.0070507 -0.999017 -0.0353866 0.0179092 -0.999213 -0.0183351 0.0801184 -0.996617 
-0.0530527 0.12016 -0.991336 -0.123833 0.148665 -0.981104 -0.403895 0.161351 -0.900464 
-0.262871 0.185921 -0.946748 0.499556 0.127633 -0.856828 0.493147 0.12697 -0.86063 
0.242042 0.170712 -0.95513 0.0982544 0.0966732 -0.990455 0.0255559 0.0801601 -0.996454 
-0.0269975 0.0598837 -0.99784 0.0332007 0.0115261 -0.999382 0.0842238 -0.0219503 -0.996205 
-0.00401693 -0.0029104 -0.999988 -0.0307795 -0.0416648 -0.998657 -0.00719598 -0.00799517 -0.999942 
0.0250361 -0.0155857 -0.999565 0.0467152 0.00420738 -0.998899 -0.017679 0.0345457 -0.999247 
-0.127592 0.0483972 -0.990645 -0.445776 0.0205563 -0.894909 -0.270836 0.0680205 -0.960219 
0.536307 -0.0890722 -0.83931 0.532693 -0.112528 -0.838794 0.528878 -0.087909 -0.844133 
0.284092 -0.0586565 -0.957001 0.0707298 -0.0109768 -0.997435 0.0304138 0.061424 -0.997648 
-0.0266907 0.053958 -0.998186 0.00144916 0.0635637 -0.997977 0.0307263 0.00657735 -0.999506 
0.0075349 -0.0464238 -0.998893 0.0181924 -0.0216459 -0.9996 -0.0190365 0.0395627 -0.999036 
-0.0231094 0.0258686 -0.999398 0.0304748 -0.0361758 -0.998881 -0.00913901 -0.0615981 -0.998059 
-0.0792951 -0.107587 -0.991028 -0.446456 -0.0268627 -0.894402 -0.30062 -0.104447 -0.948008 
0.416367 -0.194312 -0.88819 0.316419 -0.144407 -0.937564 0.206053 -0.0610283 -0.976636 
0.0899164 -0.0627293 -0.993972 -0.0257461 0.0046394 -0.999658 -0.0122703 0.059836 -0.998133 
-0.0262446 0.0434093 -0.998713 -0.032321 0.0368428 -0.998798 0.0555229 0.0187532 -0.998281 
0.0392093 -0.00242851 -0.999228 -0.0504372 0.0242124 -0.998434 -0.0377079 -0.05985 -0.997495 
-0.0870732 -0.152142 -0.984516 -0.169358 -0.17369 -0.970129 -0.407464 -0.274406 -0.871019 
-0.240313 -0.326644 -0.914086 -0.192581 -0.293649 -0.936313 0.468549 -0.320912 -0.82309 
0.412448 -0.362409 -0.835791 0.389305 -0.286998 -0.875256 0.250512 -0.427672 -0.868528 
0.191155 -0.302137 -0.933902 0.102757 -0.178248 -0.978606 0.0913175 -0.113903 -0.989286 
0.0429861 0.0244118 -0.998777 0.00405325 0.000407344 -0.999992 -0.0184063 0.0138402 -0.999735 
-0.0193269 -0.0101973 -0.999761 -0.0118457 -0.0948251 -0.995423 -0.0832119 -0.123487 -0.988851 
-0.147256 -0.155218 -0.976843 -0.288386 -0.401561 -0.869242 -0.140661 -0.271633 -0.952066 
-0.269623 -0.381107 -0.884342 -0.242253 -0.406548 -0.880927 -0.231071 -0.372294 -0.89889 
0.299454 -0.41702 -0.85815 0.276384 -0.498194 -0.821836 0.273398 -0.351844 -0.895242 
0.17776 -0.521361 -0.834616 0.174771 -0.31834 -0.931727 0.11374 -0.263155 -0.958025 
-0.0332883 -0.18897 -0.981418 -0.0427067 -0.200486 -0.978765 -0.0541911 -0.252327 -0.966123 
-0.142408 -0.626513 -0.76629 -0.0746609 -0.307864 -0.948496 -0.151468 -0.549717 -0.821504 
-0.117432 -0.399417 -0.909217 -0.288278 -0.444871 -0.84793 -0.178181 -0.535498 -0.825526 
-0.161132 -0.40299 -0.900908 0.18922 -0.612639 -0.767378 0.184821 -0.639338 -0.746383 
0.186908 -0.605061 -0.773929 0.0375389 -0.750995 -0.659241 0.0626543 -0.612579 -0.787922 
-0.0969184 -0.754019 -0.649663 -0.0945576 -0.637057 -0.764995 -0.15943 -0.6849 -0.710981 
-0.160255 -0.69599 -0.69994 -0.160214 -0.672695 -0.722366 
