# vtk DataFile Version 4.2
vtk output
ASCII
DATASET POLYDATA
POINTS 544 float
-48.6238 -31.6244 -18.7267 -40.0196 -31.6244 -19.9146 -31.4153 -31.6244 -19.7392 
-22.8111 -31.6244 -18.518 11.6059 -31.6244 -17.6681 20.2102 -31.6244 -18.5398 
28.8144 -31.6244 -18.4146 37.4186 -31.6244 -18.2905 46.0229 -31.6244 -17.4186 
-57.2281 -23.0201 -17.9403 -48.6238 -23.0201 -20.8423 -40.0196 -23.0201 -20.8621 
-31.4153 -23.0201 -22.5876 -22.8111 -23.0201 -20.3759 -14.2068 -23.0201 -19.3264 
-5.60259 -23.0201 -19.5393 3.00166 -23.0201 -20.4352 11.6059 -23.0201 -20.2923 
20.2102 -23.0201 -20.451 28.8144 -23.0201 -20.2727 37.4186 -23.0201 -20.4204 
46.0229 -23.0201 -19.9895 54.6271 -23.0201 -18.8129 -57.2281 -14.4159 -19.3951 
-48.6238 -14.4159 -20.9544 -40.0196 -14.4159 -20.7639 -31.4153 -14.4159 -20.5503 
-22.8111 -14.4159 -19.0832 -14.2068 -14.4159 -18.2217 -5.60259 -14.4159 -19.4728 
3.00166 -14.4159 -20.5066 11.6059 -14.4159 -20.5954 20.2102 -14.4159 -19.6658 
28.8144 -14.4159 -20.1392 37.4186 -14.4159 -21.4413 46.0229 -14.4159 -21.0637 
54.6271 -14.4159 -20.072 63.2314 -14.4159 -18.4455 -57.2281 -5.81164 -18.9088 
-48.6238 -5.81164 -20.3071 -40.0196 -5.81164 -20.0997 -31.4153 -5.81164 -19.1719 
-22.8111 -5.81164 -17.6599 -14.2068 -5.81164 -17.9151 -5.60259 -5.81164 -21.5369 
3.00166 -5.81164 -18.6467 11.6059 -5.81164 -22.83 20.2102 -5.81164 -18.4052 
28.8144 -5.81164 -19.8279 37.4186 -5.81164 -21.1623 46.0229 -5.81164 -21.571 
54.6271 -5.81164 -21.8509 63.2314 -5.81164 -20.2878 -57.2281 2.79261 -18.6864 
-48.6238 2.79261 -20.1045 -40.0196 2.79261 -20.0096 -31.4153 2.79261 -19.1876 
-22.8111 2.79261 -17.9313 -14.2068 2.79261 -22.6865 -5.60259 2.79261 -21.7232 
3.00166 2.79261 -18.5528 11.6059 2.79261 -24.3111 20.2102 2.79261 -18.3695 
28.8144 2.79261 -19.3012 37.4186 2.79261 -20.8899 46.0229 2.79261 -21.7203 
54.6271 2.79261 -21.764 63.2314 2.79261 -20.295 -57.2281 11.3969 -18.1314 
-48.6238 11.3969 -20.4351 -40.0196 11.3969 -20.4781 -31.4153 11.3969 -19.961 
-22.8111 11.3969 -19.1542 -14.2068 11.3969 -18.8468 -5.60259 11.3969 -19.9336 
3.00166 11.3969 -21.0782 11.6059 11.3969 -19.5563 20.2102 11.3969 -18.6007 
28.8144 11.3969 -20.1135 37.4186 11.3969 -22.0933 46.0229 11.3969 -21.5198 
54.6271 11.3969 -20.9435 63.2314 11.3969 -19.9628 -57.2281 20.0011 -16.9594 
-48.6238 20.0011 -19.1559 -40.0196 20.0011 -20.4197 -31.4153 20.0011 -20.7987 
-22.8111 20.0011 -19.954 -14.2068 20.0011 -19.0909 -5.60259 20.0011 -20.4568 
3.00166 20.0011 -20.8991 11.6059 20.0011 -18.865 20.2102 20.0011 -19.2194 
28.8144 20.0011 -19.7345 37.4186 20.0011 -20.5477 46.0229 20.0011 -21.0956 
54.6271 20.0011 -19.8497 -48.6238 28.6053 -18.351 -40.0196 28.6053 -19.8463 
-31.4153 28.6053 -19.2666 -22.8111 28.6053 -19.2947 -14.2068 28.6053 -18.5655 
-5.60259 28.6053 -19.3241 3.00166 28.6053 -19.2489 11.6059 28.6053 -18.2364 
20.2102 28.6053 -18.8833 28.8144 28.6053 -18.5298 37.4186 28.6053 -19.1481 
46.0229 28.6053 -18.4805 -48.6238 -34.35 -16.77 -40.0196 -36.2594 -16.77 
-40.0196 -40.2286 -11.6616 -31.4153 -35.7286 -16.77 -22.8111 -34.0137 -16.77 
11.6059 -32.7403 -16.77 20.2102 -34.0374 -16.77 28.8144 -34.4595 -16.77 
37.4186 -33.7609 -16.77 46.0229 -32.4683 -16.77 -52.7806 -31.6244 -16.77 
-57.2281 -25.5084 -16.77 -57.2281 -31.6244 -13.2372 -16.5618 -31.6244 -16.77 
-14.2068 -30.0583 -16.77 -14.2068 -31.6244 -15.5656 -5.60259 -27.947 -16.77 
-5.60259 -31.6244 -10.4078 7.04548 -31.6244 -16.77 3.00166 -30.2363 -16.77 
3.00166 -31.6244 -15.1824 47.886 -31.6244 -16.77 54.6271 -27.1808 -16.77 
54.6271 -31.6244 -12.5816 -59.7454 -23.0201 -16.77 -65.8323 -23.0201 -11.7205 
59.4087 -23.0201 -16.77 63.2314 -18.0531 -16.77 63.2314 -23.0201 -14.2233 
-62.2656 -14.4159 -16.77 -65.8323 -14.4159 -14.2065 66.5751 -14.4159 -16.77 
71.8356 -14.4159 -13.1631 -61.4487 -5.81164 -16.77 -65.8323 -5.81164 -13.8688 
69.9184 -5.81164 -16.77 71.8356 -5.81164 -15.3918 -61.0178 2.79261 -16.77 
-65.8323 2.79261 -13.623 69.5432 2.79261 -16.77 71.8356 2.79261 -14.9937 
-59.6136 11.3969 -16.77 -65.8323 11.3969 -12.4301 68.822 11.3969 -16.77 
63.2314 17.0256 -16.77 71.8356 11.3969 -14.3366 -57.6903 20.0011 -16.77 
-65.8323 20.0011 -11.078 -57.2281 20.5355 -16.77 60.9203 20.0011 -16.77 
54.6271 25.6113 -16.77 63.2314 20.0011 -15.06 -52.3238 28.6053 -16.77 
-57.2281 28.6053 -13.7213 -48.6238 31.4602 -16.77 -40.0196 34.759 -16.77 
-31.4153 36.0297 -16.77 -22.8111 34.2256 -16.77 -14.2068 32.7177 -16.77 
-5.60259 34.1297 -16.77 3.00166 33.9248 -16.77 11.6059 32.5282 -16.77 
20.2102 33.2987 -16.77 28.8144 32.6877 -16.77 37.4186 32.9586 -16.77 
50.272 28.6053 -16.77 46.0229 30.9961 -16.77 54.6271 28.6053 -13.5634 
-48.6238 37.2096 -10.9332 -40.0196 37.2096 -15.026 -31.4153 37.2096 -15.9943 
-22.8111 37.2096 -14.2905 -14.2068 37.2096 -13.5062 -5.60259 37.2096 -14.2504 
3.00166 37.2096 -14.1501 11.6059 37.2096 -14.071 20.2102 37.2096 -14.462 
28.8144 37.2096 -13.695 37.4186 37.2096 -12.4031 -40.0196 -41.8912 -8.16572 
-57.2281 -36.0541 -8.16572 -46.1123 -40.2286 -8.16572 -48.6238 -39.5433 -8.16572 
-32.67 -40.2286 -8.16572 -31.4153 -39.966 -8.16572 -22.8111 -37.2167 -8.16572 
-14.2068 -35.0688 -8.16572 -5.60259 -32.3947 -8.16572 3.00166 -35.0287 -8.16572 
11.6059 -37.9172 -8.16572 20.2102 -39.8199 -8.16572 28.8144 -39.9473 -8.16572 
37.4186 -39.4514 -8.16572 46.0229 -37.6383 -8.16572 54.6271 -34.3338 -8.16572 
-62.4806 -31.6244 -8.16572 -65.8323 -26.7247 -8.16572 58.8964 -31.6244 -8.16572 
63.2314 -28.3936 -8.16572 -67.9762 -23.0201 -8.16572 70.947 -23.0201 -8.16572 
71.8356 -21.7598 -8.16572 71.8356 -23.0201 -1.72055 -71.6558 -14.4159 -8.16572 
75.3445 -14.4159 -8.16572 -72.6399 -5.81164 -8.16572 -74.4366 -5.81164 -1.96337 
78.9824 -5.81164 -8.16572 -72.9067 2.79261 -8.16572 -74.4366 2.79261 -3.1619 
78.4367 2.79261 -8.16572 -70.8361 11.3969 -8.16572 75.9915 11.3969 -8.16572 
71.8356 18.6102 -8.16572 -67.84 20.0011 -8.16572 -65.8323 23.1999 -8.16572 
70.8886 20.0011 -8.16572 63.2314 26.3333 -8.16572 -62.7668 28.6053 -8.16572 
-57.2281 34.3853 -8.16572 46.0229 36.4971 -8.16572 60.034 28.6053 -8.16572 
54.6271 32.2565 -8.16572 -52.4718 37.2096 -8.16572 -48.6238 38.9895 -8.16572 
-40.0196 41.8006 -8.16572 -31.4153 41.1695 -8.16572 -22.8111 40.3371 -8.16572 
-14.2068 40.2373 -8.16572 -5.60259 40.636 -8.16572 3.00166 40.7041 -8.16572 
11.6059 40.917 -8.16572 20.2102 41.213 -8.16572 28.8144 40.5881 -8.16572 
43.902 37.2096 -8.16572 37.4186 39.2058 -8.16572 -40.0196 -41.3368 0.438526 
-57.2281 -36.0696 0.438526 -47.0213 -40.2286 0.438526 -48.6238 -39.9479 0.438526 
-33.4761 -40.2286 0.438526 -40.0196 -40.2286 3.28837 -31.4153 -39.8934 0.438526 
-22.8111 -37.7247 0.438526 -14.2068 -35.2043 0.438526 -5.60259 -33.1224 0.438526 
3.00166 -35.5867 0.438526 11.6059 -37.3275 0.438526 20.2102 -38.041 0.438526 
28.8144 -38.5214 0.438526 37.4186 -38.2165 0.438526 46.0229 -36.0523 0.438526 
54.6271 -34.2055 0.438526 -64.3015 -31.6244 0.438526 -65.8323 -30.1806 0.438526 
46.0229 -31.6244 8.08049 58.8551 -31.6244 0.438526 54.6271 -31.6244 5.2821 
63.2314 -28.4349 0.438526 71.8356 -23.2234 0.438526 -70.1633 -23.0201 0.438526 
72.0396 -23.0201 0.438526 71.8356 -23.0201 0.847024 -74.1984 -14.4159 0.438526 
-74.4366 -11.7894 0.438526 77.0349 -14.4159 0.438526 -74.94 -5.81164 0.438526 
-74.4366 -5.81164 2.53771 79.4501 -5.81164 0.438526 -75.1845 2.79261 0.438526 
-74.4366 7.13104 0.438526 -74.4366 2.79261 3.52844 79.3444 2.79261 0.438526 
-73.6714 11.3969 0.438526 76.7658 11.3969 0.438526 71.8356 18.282 0.438526 
-70.6115 20.0011 0.438526 -65.8323 28.5562 0.438526 70.3272 20.0011 0.438526 
63.2314 26.9813 0.438526 -65.794 28.6053 0.438526 -57.2281 35.5188 0.438526 
46.0229 35.2124 0.438526 61.0148 28.6053 0.438526 54.6271 31.9746 0.438526 
54.6271 28.6053 6.08243 -53.42 37.2096 0.438526 -48.6238 39.1384 0.438526 
-48.6238 37.2096 4.31245 -40.0196 41.518 0.438526 -40.0196 37.2096 8.71574 
-31.4153 41 0.438526 -31.4153 37.2096 8.32888 -22.8111 40.1106 0.438526 
-22.8111 37.2096 7.60433 -14.2068 40.2001 0.438526 -14.2068 37.2096 8.20843 
-5.60259 40.9993 0.438526 3.00166 40.6749 0.438526 3.00166 37.2096 8.65519 
11.6059 40.1873 0.438526 11.6059 37.2096 6.30346 20.2102 40.0919 0.438526 
20.2102 37.2096 6.24419 28.8144 39.4722 0.438526 28.8144 37.2096 5.40068 
39.7214 37.2096 0.438526 37.4186 37.9475 0.438526 37.4186 37.2096 1.83637 
-57.2281 -31.7022 9.04277 -48.6238 -36.0854 9.04277 -40.0196 -37.7339 9.04277 
-31.4153 -37.6886 9.04277 -22.8111 -36.5129 9.04277 -14.2068 -35.1381 9.04277 
-5.60259 -33.4558 9.04277 3.00166 -33.3922 9.04277 11.6059 -33.0217 9.04277 
20.2102 -32.3298 9.04277 28.8144 -32.2057 9.04277 37.4186 -32.3679 9.04277 
-57.3733 -31.6244 9.04277 -65.8323 -23.98 9.04277 -57.2281 -31.6244 9.13027 
-48.6238 -31.6244 14.9111 -40.0196 -31.6244 16.4682 -31.4153 -31.6244 17.5351 
-22.8111 -31.6244 16.5724 -14.2068 -31.6244 14.5009 -5.60259 -31.6244 12.0244 
3.00166 -31.6244 11.4914 11.6059 -31.6244 10.7443 20.2102 -31.6244 9.85052 
28.8144 -31.6244 9.69925 41.8403 -31.6244 9.04277 37.4186 -31.6244 9.84431 
46.0229 -30.9652 9.04277 54.6271 -29.1696 9.04277 63.2314 -24.3385 9.04277 
-66.4347 -23.0201 9.04277 -65.8323 -23.0201 9.66688 54.6271 -23.0201 15.5484 
64.9103 -23.0201 9.04277 63.2314 -23.0201 10.6764 71.8356 -15.7305 9.04277 
-71.102 -14.4159 9.04277 -65.8323 -14.4159 14.9636 72.6973 -14.4159 9.04277 
71.8356 -14.4159 10.1765 -72.68 -5.81164 9.04277 -65.8323 -5.81164 16.8791 
77.3024 -5.81164 9.04277 71.8356 -5.81164 14.7748 -72.9305 2.79261 9.04277 
-65.8323 2.79261 16.8317 76.7477 2.79261 9.04277 71.8356 2.79261 13.9799 
-70.9048 11.3969 9.04277 -65.8323 11.3969 14.972 63.2314 11.3969 16.9932 
71.9332 11.3969 9.04277 71.8356 11.5193 9.04277 71.8356 11.3969 9.16557 
-67.0819 20.0011 9.04277 -65.8323 21.6939 9.04277 -65.8323 20.0011 10.2178 
-57.2281 20.0011 17.2603 54.6271 26.6057 9.04277 54.6271 20.0011 15.9003 
64.5482 20.0011 9.04277 63.2314 21.2849 9.04277 63.2314 20.0011 10.3002 
-59.7521 28.6053 9.04277 -57.2281 30.6046 9.04277 -57.2281 28.6053 10.949 
[...]
POINT_DATA 544
SCALARS ImageScalars float
LOOKUP_TABLE default
0 0 0 0 0 0 0 0 0 
0 0 0 0 0 0 0 0 0 
0 0 0 0 0 0 0 0 0 
0 0 0 0 0 0 0 0 0 
0 0 0 0 0 0 0 0 0 
0 0 0 0 0 0 0 0 0 
0 0 0 0 0 0 0 0 0 
0 0 0 0 0 0 0 0 0 
0 0 0 0 0 0 0 0 0 
0 0 0 0 0 0 0 0 0 
0 0 0 0 0 0 0 0 0 
0 0 0 0 0 0 0 0 0 
0 0 0 0 0 0 0 0 0 
0 0 0 0 0 0 0 0 0 
0 0 0 0 0 0 0 0 0 
0 0 0 0 0 0 0 0 0 
0 0 0 0 0 0 0 0 0 
0 0 0 0 0 0 0 0 0 
0 0 0 0 0 0 0 0 0 
0 0 0 0 0 0 0 0 0 
0 0 0 0 0 0 0 0 0 
0 0 0 0 0 0 0 0 0 
0 0 0 0 0 0 0 0 0 
0 0 0 0 0 0 0 0 0 
0 0 0 0 0 0 0 0 0 
0 0 0 0 0 0 0 0 0 
0 0 0 0 0 0 0 0 0 
0 0 0 0 0 0 0 0 0 
0 0 0 0 0 0 0 0 0 
0 0 0 0 0 0 0 0 0 
0 0 0 0 0 0 0 0 0 
0 0 0 0 0 0 0 0 0 
0 0 0 0 0 0 0 0 0 
0 0 0 0 0 0 0 0 0 
0 0 0 0 0 0 0 0 0 
0 0 0 0 0 0 0 0 0 
0 0 0 0 0 0 0 0 0 
0 0 0 0 0 0 0 0 0 
0 0 0 0 0 0 0 0 0 
0 0 0 0 0 0 0 0 0 
0 0 0 0 0 0 0 0 0 
0 0 0 0 0 0 0 0 0 
0 0 0 0 0 0 0 0 0 
0 0 0 0 0 0 0 0 0 
0 0 0 0 0 0 0 0 0 
0 0 0 0 0 0 0 0 0 
0 0 0 0 0 0 0 0 0 
0 0 0 0 0 0 0 0 0 
0 0 0 0 0 0 0 0 0 
0 0 0 0 0 0 0 0 0 
0 0 0 0 0 0 0 0 0 
0 0 0 0 0 0 0 0 0 
0 0 0 0 0 0 0 0 0 
0 0 0 0 0 0 0 0 0 
0 0 0 0 0 0 0 0 0 
0 0 0 0 0 0 0 0 0 
0 0 0 0 0 0 0 0 0 
0 0 0 0 0 0 0 0 0 
0 0 0 0 0 0 0 0 0 
0 0 0 0 0 0 0 0 0 
0 0 0 0 
NORMALS Normals float
-0.263639 -0.42987 -0.863543 -0.0707288 -0.376999 -0.923509 0.0705715 -0.471812 -0.87887 
0.228707 -0.488453 -0.842085 -0.135074 -0.54046 -0.830456 -0.0426854 -0.443456 -0.895279 
0.0130096 -0.38385 -0.923304 0.061365 -0.450156 -0.890839 0.216176 -0.525872 -0.822634 
-0.380761 -0.299351 -0.874877 -0.142092 -0.147811 -0.978755 -0.0960883 -0.0404156 -0.994552 
0.0305737 -0.0486746 -0.998347 0.178484 -0.0210863 -0.983717 0.050146 -0.102993 -0.993417 
-0.0692715 -0.255125 -0.964423 -0.0460348 -0.223554 -0.973604 -0.000718555 -0.151337 -0.988482 
0.00127984 -0.0476122 -0.998865 0.00190214 -0.0886506 -0.996061 0.0146519 -0.167754 -0.98572 
0.0980626 -0.212984 -0.972122 0.250354 -0.298295 -0.921055 -0.314699 -0.0318558 -0.948657 
-0.0976469 0.0319632 -0.994708 0.0228239 0.0441793 -0.998763 0.0926262 0.188005 -0.977791 
0.134578 0.159802 -0.977933 -0.0225232 0.0747278 -0.99695 -0.129865 -0.0809471 -0.988222 
-0.062794 0.0773299 -0.995026 0.0495834 -0.10597 -0.993132 0.0250344 0.106565 -0.993991 
-0.101675 0.0256342 -0.994487 -0.0542756 -0.0426403 -0.997615 0.0745276 -0.0839983 -0.993675 
0.131607 -0.179764 -0.974866 0.330558 -0.319587 -0.888029 -0.312035 0.0448858 -0.94901 
-0.0815425 0.0484737 -0.99549 0.0634886 0.0436917 -0.997026 0.142158 0.0794522 -0.98665 
0.0781802 0.0630267 -0.994945 -0.220653 -0.16272 -0.961683 0.0258608 -0.162867 -0.986309 
-0.0585625 0.140651 -0.988326 0.0442212 -0.215663 -0.975466 0.0993222 0.082437 -0.991635 
-0.144518 0.0464896 -0.988409 -0.105022 0.033053 -0.993921 -0.0371717 -0.0381178 -0.998582 
0.0866068 -0.0965488 -0.991553 0.304313 -0.0777745 -0.949392 -0.316412 0.0445702 -0.947574 
-0.0892029 -0.00714851 -0.995988 0.0528952 -0.0219231 -0.998359 0.119767 -0.0454766 -0.99176 
-0.0635918 -0.0883643 -0.994056 -0.326792 0.0787723 -0.941808 0.21628 0.138878 -0.966404 
-0.114909 -0.196756 -0.973695 0.0735597 0.215125 -0.973812 0.185847 -0.0130961 -0.982491 
-0.14241 -0.0173722 -0.989655 -0.132716 -0.0551973 -0.989616 -0.050355 0.00296333 -0.998727 
0.0944095 0.0509202 -0.99423 0.314452 0.0130716 -0.949183 -0.395437 0.0883279 -0.914236 
-0.139966 0.0542543 -0.988669 0.0276535 -0.0238943 -0.999332 0.0764388 -0.0879026 -0.993192 
0.0620875 -0.11626 -0.991276 -0.0492616 0.104815 -0.993271 -0.126096 0.0430986 -0.991081 
0.00911349 -0.0892049 -0.995972 0.156337 0.233093 -0.959805 -0.0411425 -0.0472543 -0.998035 
-0.197993 -0.0198029 -0.980003 -0.0799483 0.0184264 -0.996629 0.0641744 0.0337662 -0.997367 
0.0787503 0.12116 -0.989504 0.319795 0.25408 -0.912784 -0.332053 0.239577 -0.912329 
-0.175607 0.123194 -0.976722 -0.0903278 0.0320157 -0.995397 0.0288806 0.0384447 -0.998843 
0.0938694 -0.0113649 -0.99552 -0.0287157 0.0168337 -0.999446 -0.10704 0.0345853 -0.993653 
0.0934221 0.104173 -0.990162 0.0969541 0.0690139 -0.992893 -0.0504829 -0.018519 -0.998553 
-0.0760047 0.0873943 -0.99327 -0.0759794 0.157469 -0.984597 0.051475 0.195248 -0.979402 
0.267435 0.283863 -0.920815 -0.2709 0.293983 -0.916617 -0.061162 0.268538 -0.961325 
0.0277477 0.241868 -0.969912 0.0413827 0.256312 -0.965708 -0.00414465 0.233228 -0.972413 
-0.0385604 0.274385 -0.960846 0.0606806 0.303782 -0.950807 0.023307 0.212999 -0.976774 
-0.0173851 0.236966 -0.971362 -0.0119328 0.258258 -0.966002 0.00603337 0.336469 -0.941675 
0.207792 0.46922 -0.858286 -0.275202 -0.591215 -0.758109 -0.0691441 -0.602162 -0.795374 
-0.0459139 -0.911645 -0.408406 0.0853699 -0.692312 -0.71653 0.258127 -0.64373 -0.720404 
-0.151857 -0.598256 -0.786784 -0.0767011 -0.587366 -0.805679 0.0105636 -0.551478 -0.834123 
0.0874806 -0.56709 -0.818997 0.223977 -0.570674 -0.790041 -0.372105 -0.471391 -0.79958 
-0.409379 -0.377324 -0.830683 -0.548269 -0.571939 -0.610153 0.236956 -0.607654 -0.75803 
0.202962 -0.549657 -0.81036 0.245791 -0.692304 -0.678456 -0.0277011 -0.619072 -0.784845 
0.0174639 -0.950474 -0.310312 -0.162095 -0.646511 -0.745485 -0.162834 -0.659577 -0.733787 
-0.212364 -0.765814 -0.606985 0.255446 -0.558348 -0.7893 0.33236 -0.471447 -0.816869 
0.442938 -0.737928 -0.509184 -0.456991 -0.296489 -0.838602 -0.742416 -0.355869 -0.567606 
0.389978 -0.388004 -0.835087 0.401903 -0.400609 -0.8234 0.52067 -0.520961 -0.676389 
-0.507945 -0.0250745 -0.861024 -0.659634 -0.0462996 -0.75016 0.446923 -0.32556 -0.833229 
0.689397 -0.328928 -0.645397 -0.43731 0.0420237 -0.898328 -0.589234 0.0294535 -0.807425 
0.519665 -0.0605116 -0.852224 0.608495 -0.0550131 -0.791649 -0.422036 0.0595894 -0.904618 
-0.577689 0.0711008 -0.813155 0.534563 0.0304613 -0.844579 0.640723 0.0400161 -0.766729 
-0.451944 0.0819905 -0.88827 -0.632992 0.101127 -0.767525 0.543012 0.272723 -0.794204 
0.464449 0.388727 -0.795725 0.698429 0.286655 -0.655763 -0.348512 0.23936 -0.906226 
-0.729741 0.319461 -0.604502 -0.343488 0.251023 -0.904988 0.457113 0.387086 -0.800757 
0.36046 0.531823 -0.766311 0.546163 0.463755 -0.697594 -0.368726 0.33736 -0.866158 
-0.563701 0.431841 -0.704098 -0.286758 0.451051 -0.845176 -0.142048 0.523728 -0.839959 
0.0127811 0.591759 -0.806014 0.0765196 0.533014 -0.842639 -0.000918408 0.43643 -0.899738 
-0.0312644 0.535272 -0.844101 0.0365059 0.534465 -0.844402 0.0194193 0.388728 -0.921148 
-0.00170603 0.42601 -0.904717 0.00762814 0.449268 -0.893364 0.0840056 0.54455 -0.834511 
0.304886 0.569089 -0.763663 0.246044 0.587802 -0.770683 0.450924 0.713863 -0.535786 
-0.350755 0.835765 -0.422454 -0.174604 0.679584 -0.712516 0.0169821 0.681062 -0.732029 
0.0828567 0.77388 -0.627889 -0.00135457 0.789338 -0.613957 -0.0239614 0.767028 -0.641166 
0.00671369 0.770855 -0.636975 -0.0147566 0.729444 -0.683881 0.0137442 0.685724 -0.727732 
0.0742458 0.793197 -0.604422 0.212083 0.867595 -0.449778 -0.0179652 -0.981616 -0.190018 
-0.550628 -0.788911 -0.272815 -0.19842 -0.951217 -0.236252 -0.276513 -0.926827 -0.254031 
0.2162 -0.961525 -0.169493 0.252196 -0.952993 -0.167933 0.304292 -0.939861 -0.155137 
0.273484 -0.941514 -0.19687 0.0157848 -0.978397 -0.206131 -0.31231 -0.920201 -0.235992 
-0.258325 -0.948193 -0.184929 -0.118973 -0.985708 -0.119268 0.0211768 -0.9944 -0.103543 
0.128165 -0.980771 -0.14718 0.290072 -0.944755 -0.152632 0.457068 -0.857319 -0.236839 
-0.692574 -0.649459 -0.313917 -0.772372 -0.536224 -0.340449 0.537051 -0.810301 -0.234496 
0.59012 -0.764641 -0.259003 -0.812004 -0.445159 -0.37747 0.714777 -0.614923 -0.333112 
0.738636 -0.58382 -0.337004 0.72731 -0.684859 0.0445864 -0.853396 -0.195498 -0.483214 
0.818179 -0.425015 -0.387227 -0.852157 -0.0638743 -0.519373 -0.991241 -0.0647652 -0.11509 
0.916887 -0.160632 -0.365397 -0.844787 0.0776447 -0.52944 -0.978178 0.0760383 -0.193355 
0.906699 0.152152 -0.393379 -0.803648 0.208536 -0.557372 0.846873 0.417421 -0.329493 
0.771428 0.581921 -0.257424 -0.798095 0.397726 -0.452612 -0.783128 0.444614 -0.434774 
0.747109 0.613756 -0.25521 0.60438 0.762024 -0.232475 -0.740865 0.52851 -0.414483 
-0.587548 0.736379 -0.335459 0.366866 0.913348 -0.176648 0.56879 0.7914 -0.223976 
0.505628 0.835397 -0.215527 -0.447064 0.847496 -0.286156 -0.360127 0.887834 -0.286461 
-0.122238 0.954015 -0.273704 0.0846554 0.970442 -0.225998 0.055379 0.974174 -0.218903 
-0.0173947 0.969037 -0.246303 -0.0285495 0.963555 -0.265983 -0.0169487 0.966767 -0.255097 
-0.0326311 0.972179 -0.231954 0.0189275 0.981298 -0.191561 0.121989 0.971007 -0.205583 
0.331376 0.92871 -0.166397 0.227625 0.960928 -0.157494 0.00504727 -0.975801 0.218603 
-0.46763 -0.862507 0.193398 -0.212086 -0.957259 0.196662 -0.263624 -0.945627 0.190506 
0.156374 -0.977315 0.14284 -0.02565 -0.952823 0.302439 0.200978 -0.972155 0.120509 
0.264963 -0.963382 0.0411016 0.269703 -0.962932 -0.00464816 -0.0341948 -0.997603 -0.0601583 
-0.234117 -0.96811 0.0891795 -0.136492 -0.959212 0.247551 -0.0643885 -0.925974 0.372056 
-0.0107727 -0.92415 0.381878 0.136078 -0.933191 0.332622 0.210057 -0.913957 0.347215 
0.348748 -0.904346 0.246037 -0.669736 -0.735973 0.0989838 -0.732455 -0.676534 0.076231 
0.143398 -0.818661 0.556085 0.479546 -0.856432 0.191208 0.295272 -0.852658 0.431033 
0.562913 -0.813277 0.147341 0.698752 -0.693418 0.175833 -0.87415 -0.482098 0.0586702 
0.705565 -0.686873 0.17431 0.699442 -0.688259 0.192561 -0.968139 -0.249587 0.0203314 
-0.98178 -0.189136 0.0183424 0.903116 -0.416719 0.103565 -0.99837 -0.0558002 0.0120225 
-0.99308 -0.063786 0.0986092 0.992458 -0.102561 0.0671401 -0.997256 0.0728288 0.0133177 
-0.987145 0.157663 0.0262229 -0.986164 0.0816981 0.144242 0.991281 0.115741 0.0629689 
-0.970266 0.240599 0.0263867 0.864307 0.474766 0.166043 0.759233 0.609244 0.228881 
-0.903551 0.427528 0.02855 -0.785185 0.615704 0.0662793 0.720714 0.649754 0.241644 
0.601996 0.775453 0.190456 -0.783721 0.617497 0.066921 -0.504949 0.847379 0.164242 
0.315023 0.898586 0.305456 0.549038 0.810785 0.20294 0.398458 0.879901 0.258852 
0.375716 0.791356 0.482279 -0.409469 0.892551 0.188911 -0.309739 0.92841 0.205223 
-0.302129 0.882785 0.359734 -0.0952613 0.962103 0.255506 -0.0996774 0.800633 0.590805 
0.0817188 0.967392 0.239739 0.0270122 0.854155 0.519316 0.0431091 0.978196 0.203161 
0.00535117 0.884895 0.465759 -0.0512856 0.983819 0.171671 -0.0867931 0.875391 0.475561 
-0.027806 0.991296 0.12868 0.0459163 0.979963 0.193814 0.127986 0.855316 0.50205 
0.0338426 0.959742 0.278837 0.0579018 0.881142 0.469293 0.0380524 0.953589 0.298698 
0.0219049 0.877914 0.478316 0.116383 0.953481 0.278081 0.1223 0.893737 0.431599 
0.247866 0.918238 0.308873 0.225411 0.924916 0.306138 0.229615 0.908891 0.348128 
-0.433425 -0.730463 0.527795 -0.270584 -0.841052 0.468419 -0.086269 -0.861799 0.499861 
0.0699359 -0.917181 0.392286 0.14078 -0.936905 0.319985 0.177718 -0.944966 0.274693 
0.101345 -0.957158 0.271252 0.02284 -0.887244 0.460735 0.0523502 -0.811225 0.582386 
0.039916 -0.768604 0.638479 -0.00108086 -0.764851 0.644207 0.061082 -0.775901 0.627891 
-0.436365 -0.728524 0.528051 -0.693177 -0.48028 0.537435 -0.433471 -0.728516 0.530441 
-0.288248 -0.619474 0.730181 -0.107993 -0.649113 0.752988 -0.00850775 -0.619806 0.784709 
0.115745 -0.671393 0.732007 0.176269 -0.756263 0.630076 0.119158 -0.869159 0.479963 
0.0511589 -0.81192 0.581523 0.0656272 -0.773789 0.630035 0.0423744 -0.758782 0.649965 
0.000447686 -0.760954 0.648806 0.0999921 -0.790459 0.604298 0.0550228 -0.767188 0.639058 
0.139288 -0.803689 0.578517 0.246806 -0.775598 0.580978 0.498084 -0.723609 0.477811 
-0.713071 -0.455478 0.532983 -0.697402 -0.453614 0.554855 0.252457 -0.648301 0.718311 
0.524686 -0.702126 0.481377 0.482387 -0.708343 0.515318 0.736884 -0.470171 0.485739 
-0.828853 -0.284936 0.481471 -0.614713 -0.312201 0.724333 0.755247 -0.440613 0.485244 
0.742031 -0.428593 0.51546 -0.904165 -0.0936243 0.416796 -0.587967 -0.0872051 0.80417 
0.827229 -0.181993 0.531573 0.697812 -0.108214 0.708059 -0.907397 0.0951434 0.409364 
-0.570207 0.0920017 0.816333 0.7997 0.227867 0.555479 0.69154 0.178736 0.699875 
-0.847977 0.259086 0.462395 -0.629839 0.296235 0.718017 0.434366 0.432204 0.790269 
0.722804 0.48527 0.492003 0.721898 0.486978 0.491645 0.721586 0.484006 0.495027 
-0.689256 0.467442 0.553556 -0.664033 0.501895 0.554222 -0.652687 0.459549 0.602341 
-0.407186 0.395358 0.823341 0.358788 0.72796 0.584248 0.333771 0.602846 0.724688 
0.571083 0.633999 0.52145 0.545623 0.650179 0.528737 0.541559 0.630523 0.556017 
-0.529412 0.623906 0.574861 -0.461628 0.655817 0.59733 -0.442712 0.61591 0.65166 
-0.270522 0.771535 0.575806 -0.251441 0.562711 0.787486 -0.0997204 0.790177 0.604712 
-0.0796245 0.540127 0.837809 0.0207877 0.836003 0.548331 0.00629061 0.502513 0.864547 
-0.000580365 0.847833 0.530262 -0.0280277 0.524077 0.851209 -0.0899097 0.854248 0.512033 
0.130946 0.844423 0.519426 0.0809338 0.499016 0.862805 0.0676069 0.821788 0.565768 
0.0125025 0.593652 0.804625 0.0159856 0.826285 0.563026 0.0143549 0.618987 0.78527 
0.117047 0.822222 0.557002 0.111904 0.627126 0.770838 0.22475 0.782702 0.580401 
0.196277 0.68364 0.702931 0.322711 0.753039 0.573403 0.293018 0.772642 0.563174 
0.289298 0.734072 0.614366 -0.069565 0.864106 0.498479 0.111448 0.852547 0.51063 
-0.00771941 0.883107 0.469108 -0.00824623 0.848867 0.528542 -0.407652 -0.424739 0.808342 
-0.239343 -0.486551 0.840228 -0.113093 -0.578619 0.807719 -0.00876819 -0.611752 0.791001 
0.11436 -0.580694 0.80605 0.160625 -0.491996 0.855651 0.0968621 -0.444241 0.890656 
0.0109958 -0.507161 0.861781 -0.00802349 -0.596094 0.802875 -0.0299588 -0.649824 0.759494 
-0.0178881 -0.690436 0.723172 0.0257048 -0.698849 0.714807 0.140497 -0.685183 0.714692 
-0.410597 -0.421814 0.808383 -0.407024 -0.421241 0.810486 -0.201072 -0.405372 0.891764 
-0.0874144 -0.345676 0.934273 0.00196606 -0.32057 0.947223 0.108654 -0.293551 0.949749 
0.161235 -0.347086 0.923869 0.0880937 -0.410407 0.907637 0.00284804 -0.49747 0.867477 
-0.0196255 -0.583807 0.811655 -0.0379956 -0.63653 0.770315 -0.0297842 -0.65889 0.75165 
0.024648 -0.677226 0.735362 0.173277 -0.661383 0.729758 0.148113 -0.660808 0.735796 
0.256561 -0.594098 0.762381 0.440668 -0.395097 0.806046 -0.490665 -0.243421 0.836657 
-0.385192 -0.201242 0.900627 -0.183858 -0.16571 0.968884 -0.062758 -0.142723 0.987771 
0.0399192 -0.099414 0.994245 0.0945483 -0.0716554 0.992938 0.0250092 -0.188784 0.9817 
-0.0416186 -0.375836 0.925751 -0.0625025 -0.348358 0.935275 -0.0598268 -0.340243 0.938432 
-0.0620679 -0.342569 0.93744 -0.0361093 -0.348087 0.936766 0.0127496 -0.342447 0.939451 
0.135061 -0.391356 0.910274 0.314945 -0.416255 0.85296 0.450862 -0.38033 0.80751 
0.442104 -0.378899 0.813006 -0.532047 -0.0811086 0.842821 -0.313401 -0.0626184 0.947554 
-0.14182 -0.0260406 0.98955 -0.00204253 -0.00706191 0.999973 0.0796191 0.0496073 0.99559 
0.0127659 0.0578503 0.998244 -0.129621 -0.00806928 0.991531 -0.0568612 -0.0726141 0.995738 
-0.0119213 -0.0637965 0.997892 -0.049146 -0.0234997 0.998515 -0.0632287 0.0237106 0.997717 
-0.0806144 -0.0166543 0.996606 0.12648 -0.0535999 0.99052 0.282786 -0.0924443 0.954718 
0.599496 -0.100515 0.794041 0.452503 -0.130356 0.882184 -0.507248 0.0888121 0.857212 
-0.300715 0.0815339 0.950222 -0.129428 0.0772524 0.988575 0.0114025 0.0552911 0.998405 
0.103408 0.0636424 0.992601 0.0428108 0.0700441 0.996625 -0.13305 0.0966933 0.986381 
-0.106399 0.0702256 0.99184 -0.00319839 0.0191608 0.999811 0.0260664 0.110024 0.993587 
-0.0586704 0.156346 0.985958 -0.129284 0.164604 0.97785 -0.0310615 0.152195 0.987862 
0.108059 0.160683 0.981073 0.265352 0.169182 0.949192 0.579088 0.176494 0.795932 
0.436821 0.392994 0.809162 0.475201 0.191534 0.858777 -0.474751 0.239143 0.847008 
-0.400976 0.368391 0.838753 -0.350811 0.209118 0.912798 -0.164578 0.177433 0.970274 
-0.0158299 0.183841 0.982828 0.0915419 0.146104 0.985025 0.042878 0.082918 0.995633 
-0.12281 0.0898776 0.988352 -0.138262 0.145457 0.979656 0.0264309 0.186547 0.98209 
0.0826295 0.164401 0.982927 -0.00558094 0.127445 0.99183 -0.0667101 0.218517 0.97355 
0.000644538 0.296024 0.95518 0.142897 0.356624 0.923255 0.40589 0.427059 0.808006 
0.318346 0.537804 0.780656 0.298727 0.39279 0.869757 -0.37179 0.390087 0.84238 
-0.204166 0.445939 0.871467 -0.160575 0.35551 0.920776 -0.0671547 0.4838 0.872599 
-0.0313636 0.321729 0.946312 0.00660769 0.459437 0.888186 0.00024507 0.285441 0.958396 
-0.0271201 0.446452 0.894397 -0.0152369 0.243202 0.969856 -0.0627323 0.208638 0.975979 
-0.0119151 0.283236 0.958976 0.0695092 0.470146 0.879847 0.0182165 0.367847 0.929708 
-0.00118141 0.536484 0.84391 -0.0332529 0.33005 0.943378 0.0109287 0.564431 0.825408 
-0.00172869 0.285765 0.958298 0.0972163 0.552724 0.827675 0.043274 0.340481 0.939255 
0.16541 0.561552 0.81074 0.11772 0.439607 0.890442 0.263257 0.558678 0.786495 
0.233185 0.560513 0.794639 0.217682 0.531574 0.818562 -0.0826676 0.499415 0.86241 
-0.0844622 0.500328 0.861706 -0.0843002 0.498877 0.862563 0.0565333 0.477898 0.876594 
0.0261448 0.496382 0.86771 0.0302655 0.46022 0.887289 -0.00217592 -0.10755 0.994197 
-0.0474357 -0.0373641 0.998175 0.0797341 -0.056891 0.995191 -0.0159214 0.0324963 0.999345 
-0.00410246 -0.064335 0.99792 
