# vtk DataFile Version 4.2
vtk output
ASCII
DATASET POLYDATA
POINTS 520 float
-17.8635 -44.4242 -17.4954 -9.28449 -44.4242 -19.8901 -0.705444 -44.4242 -20.857 
7.8736 -44.4242 -20.6996 16.4526 -44.4242 -19.7336 25.0317 -44.4242 -17.7844 
-26.4426 -35.8451 -20.8087 -17.8635 -35.8451 -22.1975 -9.28449 -35.8451 -23.0675 
-0.705444 -35.8451 -23.4704 7.8736 -35.8451 -23.5068 16.4526 -35.8451 -23.2912 
25.0317 -35.8451 -22.4988 33.6107 -35.8451 -18.7279 -43.6007 -27.2661 -17.7418 
-35.0216 -27.2661 -22.1826 -26.4426 -27.2661 -23.7513 -17.8635 -27.2661 -23.6774 
-9.28449 -27.2661 -23.8957 -0.705444 -27.2661 -23.6563 7.8736 -27.2661 -24.1734 
16.4526 -27.2661 -24.3485 25.0317 -27.2661 -24.2221 33.6107 -27.2661 -20.8167 
-43.6007 -18.687 -21.9267 -35.0216 -18.687 -24.155 -26.4426 -18.687 -24.5419 
-17.8635 -18.687 -23.8833 -9.28449 -18.687 -23.2141 -0.705444 -18.687 -23.5361 
7.8736 -18.687 -23.4229 16.4526 -18.687 -24.4224 25.0317 -18.687 -24.245 
33.6107 -18.687 -20.553 -52.1797 -10.108 -18.6544 -43.6007 -10.108 -23.4974 
-35.0216 -10.108 -25.2243 -26.4426 -10.108 -24.6404 -17.8635 -10.108 -24.0042 
-9.28449 -10.108 -24.1798 -0.705444 -10.108 -24.5075 7.8736 -10.108 -22.9773 
16.4526 -10.108 -24.0924 25.0317 -10.108 -22.9713 33.6107 -10.108 -18.292 
-52.1797 -1.52895 -19.2459 -43.6007 -1.52895 -23.6141 -35.0216 -1.52895 -24.3238 
-26.4426 -1.52895 -24.2308 -17.8635 -1.52895 -24.4157 -9.28449 -1.52895 -25.4171 
-0.705444 -1.52895 -22.0415 7.8736 -1.52895 -23.1925 16.4526 -1.52895 -24.2486 
25.0317 -1.52895 -19.8301 -52.1797 7.0501 -18.0828 -43.6007 7.0501 -22.5245 
-35.0216 7.0501 -23.9372 -26.4426 7.0501 -23.4027 -17.8635 7.0501 -22.5852 
-9.28449 7.0501 -22.1967 -0.705444 7.0501 -20.7895 7.8736 7.0501 -23.4648 
16.4526 7.0501 -17.3393 -43.6007 15.6291 -21.2244 -35.0216 15.6291 -22.5066 
-26.4426 15.6291 -22.5238 -17.8635 15.6291 -21.5238 -9.28449 15.6291 -20.5801 
-0.705444 15.6291 -20.565 7.8736 15.6291 -18.3934 -43.6007 24.2082 -18.302 
-35.0216 24.2082 -21.42 -26.4426 24.2082 -22.068 -17.8635 24.2082 -22.0013 
-9.28449 24.2082 -21.8036 -0.705444 24.2082 -20.8515 7.8736 24.2082 -18.4149 
-35.0216 32.7872 -18.1086 -26.4426 32.7872 -20.9663 -17.8635 32.7872 -21.9026 
-9.28449 32.7872 -22.2614 -0.705444 32.7872 -20.9382 7.8736 32.7872 -18.3749 
-17.8635 41.3663 -19.6536 -9.28449 41.3663 -19.8736 -0.705444 41.3663 -18.382 
-17.8635 -45.1015 -16.8558 -9.28449 -48.0103 -16.8558 -0.705444 -49.26 -16.8558 
7.8736 -49.1825 -16.8558 7.8736 -53.0032 -8.2859 16.4526 -47.899 -16.8558 
25.0317 -45.3822 -16.8558 -19.6081 -44.4242 -16.8558 -26.4426 -41.2676 -16.8558 
-26.4426 -44.4242 -11.3061 27.1531 -44.4242 -16.8558 33.6107 -39.5677 -16.8558 
33.6107 -44.4242 -12.5419 -43.6007 -28.3488 -16.8558 -34.7065 -35.8451 -16.8558 
-35.0216 -35.6037 -16.8558 -35.0216 -35.8451 -16.5412 36.7608 -35.8451 -16.8558 
42.1898 -35.8451 -10.6437 -44.6587 -27.2661 -16.8558 39.0843 -27.2661 -16.8558 
42.1898 -27.2661 -14.0235 -50.9827 -18.687 -16.8558 -52.1797 -15.6572 -16.8558 
-52.1797 -18.687 -15.3035 38.3216 -18.687 -16.8558 42.1898 -18.687 -13.7736 
-53.9602 -10.108 -16.8558 35.8832 -10.108 -16.8558 33.6107 -3.91405 -16.8558 
42.1898 -10.108 -13.373 -54.7386 -1.52895 -16.8558 32.2674 -1.52895 -16.8558 
25.0317 4.91371 -16.8558 33.6107 -1.52895 -16.4181 42.1898 -1.52895 -13.8364 
50.7688 -1.52895 -10.2374 -53.4346 7.0501 -16.8558 -52.1797 12.3473 -16.8558 
18.4608 7.0501 -16.8558 16.4526 8.44846 -16.8558 25.0317 7.0501 -16.0785 
33.6107 7.0501 -15.541 42.1898 7.0501 -14.3225 50.7688 7.0501 -11.4094 
-51.2047 15.6291 -16.8558 -52.1797 15.6291 -15.6365 12.0368 15.6291 -16.8558 
16.4526 15.6291 -15.4882 25.0317 15.6291 -15.7662 33.6107 15.6291 -16.0094 
42.1898 15.6291 -14.4836 50.7688 15.6291 -11.9932 -45.3924 24.2082 -16.8558 
-43.6007 26.4043 -16.8558 13.8854 24.2082 -16.8558 16.4526 24.2082 -16.2464 
25.0317 24.2082 -15.5381 33.6107 24.2082 -14.9956 42.1898 24.2082 -14.1 
50.7688 24.2082 -10.26 -37.3132 32.7872 -16.8558 -43.6007 32.7872 -9.14684 
-35.0216 34.7682 -16.8558 -26.4426 41.0254 -16.8558 13.8105 32.7872 -16.8558 
7.8736 38.3987 -16.8558 16.4526 32.7872 -16.2232 25.0317 32.7872 -15.1582 
33.6107 32.7872 -14.33 42.1898 32.7872 -11.3679 -25.9781 41.3663 -16.8558 
-26.4426 41.3663 -16.5578 -17.8635 45.1617 -16.8558 -9.28449 45.5015 -16.8558 
4.76196 41.3663 -16.8558 -0.705444 43.5662 -16.8558 7.8736 41.3663 -15.8368 
16.4526 41.3663 -13.1972 25.0317 41.3663 -11.9275 33.6107 41.3663 -9.35868 
-9.28449 49.9453 -10.1761 7.8736 -53.0063 -8.27674 -26.4426 -45.5904 -8.27674 
-17.8635 -49.0593 -8.27674 -9.28449 -51.5941 -8.27674 7.78222 -53.0032 -8.27674 
-0.705444 -52.7224 -8.27674 7.92033 -53.0032 -8.27674 7.8736 -53.0032 -8.25157 
16.4526 -52.4277 -8.27674 25.0317 -50.3757 -8.27674 33.6107 -46.7476 -8.27674 
-28.4369 -44.4242 -8.27674 -35.0216 -40.0357 -8.27674 36.6819 -44.4242 -8.27674 
42.1898 -37.742 -8.27674 -40.7884 -35.8451 -8.27674 -43.6007 -33.6177 -8.27674 
43.7435 -35.8451 -8.27674 -50.1536 -27.2661 -8.27674 -52.1797 -24.6686 -8.27674 
46.8893 -27.2661 -8.27674 50.7688 -27.2661 -1.88552 -56.1036 -18.687 -8.27674 
48.5688 -18.687 -8.27674 50.7688 -18.687 -6.03102 -59.2273 -10.108 -8.27674 
50.482 -10.108 -8.27674 50.7688 -9.44713 -8.27674 50.7688 -10.108 -8.07615 
59.3479 -10.108 -0.0667428 -60.3177 -1.52895 -8.27674 -60.7588 -1.52895 -4.52849 
54.502 -1.52895 -8.27674 59.3479 -1.52895 -3.20155 -58.9144 7.0501 -8.27674 
56.0931 7.0501 -8.27674 59.3479 7.0501 -5.72082 -56.0359 15.6291 -8.27674 
-52.1797 22.9622 -8.27674 55.8494 15.6291 -8.27674 59.3479 15.6291 -4.4413 
-51.4162 24.2082 -8.27674 54.8252 24.2082 -8.27674 50.7688 28.4806 -8.27674 
59.3479 24.2082 -3.12374 -44.0975 32.7872 -8.27674 -43.6007 33.2781 -8.27674 
-35.0216 40.724 -8.27674 47.4692 32.7872 -8.27674 42.1898 37.2388 -8.27674 
50.7688 32.7872 -4.71502 -34.142 41.3663 -8.27674 -26.4426 46.3038 -8.27674 
-17.8635 49.6716 -8.27674 -0.705444 49.5548 -8.27674 7.8736 47.7099 -8.27674 
16.4526 46.2092 -8.27674 25.0317 45.0784 -8.27674 35.7572 41.3663 -8.27674 
33.6107 42.552 -8.27674 42.1898 41.3663 -1.24217 -15.8111 49.9453 -8.27674 
-17.8635 49.9453 -0.505257 -3.4138 49.9453 -8.27674 -9.28449 50.7774 -8.27674 
-0.705444 49.9453 -3.15146 -26.4426 -45.454 0.302301 -17.8635 -48.518 0.302301 
-9.28449 -50.7175 0.302301 -0.705444 -51.8466 0.302301 7.8736 -51.9263 0.302301 
16.4526 -51.8367 0.302301 25.0317 -50.55 0.302301 33.6107 -47.5304 0.302301 
-28.5827 -44.4242 0.302301 -35.0216 -41.1578 0.302301 -26.4426 -44.4242 3.07573 
39.0039 -44.4242 0.302301 33.6107 -44.4242 7.78785 42.1898 -42.059 0.302301 
-43.1713 -35.8451 0.302301 -43.6007 -35.5451 0.302301 47.9709 -35.8451 0.302301 
50.7688 -30.2061 0.302301 -52.1574 -27.2661 0.302301 -52.1797 -27.2373 0.302301 
52.199 -27.2661 0.302301 -57.7954 -18.687 0.302301 56.1126 -18.687 0.302301 
59.3479 -10.8194 0.302301 -60.6634 -10.108 0.302301 -60.7588 -8.81044 0.302301 
59.5845 -10.108 0.302301 -61.2939 -1.52895 0.302301 -60.7588 1.34348 0.302301 
-60.7588 -1.52895 3.06599 61.2686 -1.52895 0.302301 -59.6696 7.0501 0.302301 
63.9056 7.0501 0.302301 -56.6679 15.6291 0.302301 -52.1797 23.046 0.302301 
62.6807 15.6291 0.302301 -51.4257 24.2082 0.302301 60.9319 24.2082 0.302301 
59.3479 26.8741 0.302301 59.3479 24.2082 7.10147 -44.3214 32.7872 0.302301 
-43.6007 33.497 0.302301 -43.6007 32.7872 3.62472 -35.0216 40.981 0.302301 
54.7443 32.7872 0.302301 50.7688 36.4217 0.302301 -34.4855 41.3663 0.302301 
-26.4426 46.435 0.302301 7.8736 49.0617 0.302301 16.4526 48.4397 0.302301 
25.0317 47.9878 0.302301 33.6107 45.2345 0.302301 43.436 41.3663 0.302301 
42.1898 42.0458 0.302301 42.1898 41.3663 3.07531 -17.9364 49.9453 0.302301 
-17.8635 49.9729 0.302301 -17.8635 49.9453 0.473325 -9.28449 51.0213 0.302301 
-9.28449 49.9453 6.57345 1.20199 49.9453 0.302301 -0.705444 50.2049 0.302301 
-0.705444 49.9453 2.12063 -17.8635 -44.6295 8.88135 -9.28449 -45.3962 8.88135 
-0.705444 -45.8382 8.88135 7.8736 -46.8414 8.88135 16.4526 -47.2165 8.88135 
25.0317 -46.9995 8.88135 -35.0216 -38.8233 8.88135 -18.5731 -44.4242 8.88135 
-26.4426 -42.1074 8.88135 -17.8635 -44.4242 9.13492 -9.28449 -44.4242 9.87458 
-0.705444 -44.4242 10.2473 7.8736 -44.4242 11.3607 16.4526 -44.4242 11.9206 
32.2112 -44.4242 8.88135 25.0317 -44.4242 11.6221 33.6107 -43.8425 8.88135 
42.1898 -39.2349 8.88135 -39.9964 -35.8451 8.88135 -43.6007 -33.5334 8.88135 
-35.0216 -35.8451 12.9756 -26.4426 -35.8451 15.827 -17.8635 -35.8451 15.9893 
-9.28449 -35.8451 15.3972 -0.705444 -35.8451 15.183 7.8736 -35.8451 16.2112 
16.4526 -35.8451 17.3812 25.0317 -35.8451 16.9276 33.6107 -35.8451 15.3183 
46.0742 -35.8451 8.88135 42.1898 -35.8451 12.8903 50.7688 -30.6752 8.88135 
-50.2749 -27.2661 8.88135 -52.1797 -24.7735 8.88135 -43.6007 -27.2661 15.8071 
42.1898 -27.2661 16.6939 53.0761 -27.2661 8.88135 50.7688 -27.2661 12.0958 
-56.0751 -18.687 8.88135 -52.1797 -18.687 14.6294 57.2691 -18.687 8.88135 
50.7688 -18.687 17.4306 59.3479 -12.8404 8.88135 -59.0591 -10.108 8.88135 
60.3026 -10.108 8.88135 59.3479 -10.108 10.4481 -59.5617 -1.52895 8.88135 
62.4416 -1.52895 8.88135 59.3479 -1.52895 13.3493 -57.8944 7.0501 8.88135 
63.8395 7.0501 8.88135 59.3479 7.0501 14.7898 -54.6236 15.6291 8.88135 
-52.1797 20.1 8.88135 -52.1797 15.6291 13.7147 62.4683 15.6291 8.88135 
59.3479 23.2387 8.88135 59.3479 15.6291 12.889 -49.6672 24.2082 8.88135 
-43.6007 31.5766 8.88135 58.8221 24.2082 8.88135 50.7688 24.2082 17.3587 
-42.4378 32.7872 8.88135 -35.0216 39.2906 8.88135 42.1898 39.7244 8.88135 
42.1898 32.7872 16.1312 52.0676 32.7872 8.88135 50.7688 33.9697 8.88135 
50.7688 32.7872 10.208 -32.1037 41.3663 8.88135 -26.4426 44.9014 8.88135 
-26.4426 41.3663 16.3533 -17.8635 48.5502 8.88135 -9.28449 49.5589 8.88135 
-0.705444 49.0002 8.88135 7.8736 47.9196 8.88135 16.4526 47.0049 8.88135 
25.0317 45.9371 8.88135 25.0317 41.3663 15.6447 39.3718 41.3663 8.88135 
33.6107 44.0506 8.88135 33.6107 41.3663 13.0182 -35.0216 -30.9716 17.4604 
[...]
POINT_DATA 520
SCALARS ImageScalars float
LOOKUP_TABLE default
0 0 0 0 0 0 0 0 0 
0 0 0 0 0 0 0 0 0 
0 0 0 0 0 0 0 0 0 
0 0 0 0 0 0 0 0 0 
0 0 0 0 0 0 0 0 0 
0 0 0 0 0 0 0 0 0 
0 0 0 0 0 0 0 0 0 
0 0 0 0 0 0 0 0 0 
0 0 0 0 0 0 0 0 0 
0 0 0 0 0 0 0 0 0 
0 0 0 0 0 0 0 0 0 
0 0 0 0 0 0 0 0 0 
0 0 0 0 0 0 0 0 0 
0 0 0 0 0 0 0 0 0 
0 0 0 0 0 0 0 0 0 
0 0 0 0 0 0 0 0 0 
0 0 0 0 0 0 0 0 0 
0 0 0 0 0 0 0 0 0 
0 0 0 0 0 0 0 0 0 
0 0 0 0 0 0 0 0 0 
0 0 0 0 0 0 0 0 0 
0 0 0 0 0 0 0 0 0 
0 0 0 0 0 0 0 0 0 
0 0 0 0 0 0 0 0 0 
0 0 0 0 0 0 0 0 0 
0 0 0 0 0 0 0 0 0 
0 0 0 0 0 0 0 0 0 
0 0 0 0 0 0 0 0 0 
0 0 0 0 0 0 0 0 0 
0 0 0 0 0 0 0 0 0 
0 0 0 0 0 0 0 0 0 
0 0 0 0 0 0 0 0 0 
0 0 0 0 0 0 0 0 0 
0 0 0 0 0 0 0 0 0 
0 0 0 0 0 0 0 0 0 
0 0 0 0 0 0 0 0 0 
0 0 0 0 0 0 0 0 0 
0 0 0 0 0 0 0 0 0 
0 0 0 0 0 0 0 0 0 
0 0 0 0 0 0 0 0 0 
0 0 0 0 0 0 0 0 0 
0 0 0 0 0 0 0 0 0 
0 0 0 0 0 0 0 0 0 
0 0 0 0 0 0 0 0 0 
0 0 0 0 0 0 0 0 0 
0 0 0 0 0 0 0 0 0 
0 0 0 0 0 0 0 0 0 
0 0 0 0 0 0 0 0 0 
0 0 0 0 0 0 0 0 0 
0 0 0 0 0 0 0 0 0 
0 0 0 0 0 0 0 0 0 
0 0 0 0 0 0 0 0 0 
0 0 0 0 0 0 0 0 0 
0 0 0 0 0 0 0 0 0 
0 0 0 0 0 0 0 0 0 
0 0 0 0 0 0 0 0 0 
0 0 0 0 0 0 0 0 0 
0 0 0 0 0 0 0 
NORMALS Normals float
0.280703 0.687388 0.669853 0.176595 0.556596 0.811798 0.0441319 0.505261 0.861837 
-0.0615489 0.506334 0.860138 -0.138813 0.567438 0.811632 -0.281001 0.635787 0.718897 
0.281768 0.46522 0.839153 0.11952 0.304668 0.94493 0.0740819 0.211444 0.974578 
0.0251938 0.152292 0.988014 -0.0112207 0.189426 0.981831 -0.0512541 0.238785 0.969719 
-0.232609 0.294763 0.926827 -0.461551 0.323232 0.82613 0.539744 0.534759 0.650161 
0.29223 0.355119 0.887971 0.0756029 0.201925 0.976479 0.00874177 0.0974982 0.995197 
-0.00131634 0.00677791 0.999976 0.0147668 0.00342346 0.999885 0.0413817 -0.00669465 0.999121 
0.00275343 0.0683306 0.997659 -0.181852 0.0911696 0.97909 -0.490945 0.0919408 0.866325 
0.400931 0.277275 0.87314 0.142937 0.159869 0.976735 -0.0165538 0.0482949 0.998696 
-0.0775428 0.0190653 0.996807 -0.0196442 0.0130539 0.999722 0.0121919 0.0481517 0.998766 
0.0515015 -0.0672534 0.996406 0.0482038 -0.0145184 0.998732 -0.180623 -0.0649149 0.981408 
-0.535341 -0.115792 0.836661 0.64273 0.152737 0.750712 0.310749 0.0888097 0.946334 
0.0558826 0.00436864 0.998428 -0.0695267 -0.018069 0.997416 -0.0275218 0.0308332 0.999146 
0.0304075 0.131172 0.990893 -0.0726143 -0.0668778 0.995115 -0.0232109 -0.0141831 0.99963 
0.00807092 -0.0115349 0.999901 -0.279699 -0.217697 0.935081 -0.496551 -0.207679 0.842797 
0.600635 -0.0250337 0.799131 0.235876 -0.0514126 0.970422 0.0304788 -0.0703038 0.99706 
0.00504674 -0.0699548 0.997537 0.0657826 -0.0776221 0.99481 -0.111275 -0.10137 0.988606 
-0.134395 -0.230527 0.96374 0.117255 0.0248934 0.99279 -0.145915 -0.193425 0.970204 
-0.406411 -0.358748 0.840315 0.632308 -0.149116 0.760231 0.283219 -0.138574 0.948991 
0.0455738 -0.107895 0.993117 -0.0767035 -0.100967 0.991929 -0.0666331 -0.17051 0.9831 
-0.10549 -0.285462 0.952567 0.0348732 -0.0778976 0.996351 -0.022133 -0.239884 0.970549 
-0.364218 -0.513497 0.77696 0.309036 -0.196347 0.930562 0.0757707 -0.137081 0.987658 
-0.0569336 -0.0748338 0.995569 -0.112789 -0.0310406 0.993134 -0.0562042 -0.0165746 0.998282 
-0.0915014 0.00398678 0.995797 -0.30838 -0.226858 0.923817 0.492465 -0.444536 0.748242 
0.179774 -0.24826 0.951866 0.030152 -0.0849438 0.995929 -0.014665 0.0220477 0.999649 
-0.0678964 0.0991629 0.992752 -0.182039 0.0217949 0.98305 -0.27359 -0.00136587 0.961845 
0.39857 -0.462167 0.792177 0.215425 -0.257313 0.94201 0.0691697 -0.13017 0.989076 
-0.0551314 -0.0983081 0.993628 -0.219354 -0.127561 0.96727 -0.266333 -0.128219 0.955315 
0.145025 -0.463518 0.874139 -0.0690132 -0.445185 0.892775 -0.211195 -0.455228 0.864965 
0.292307 0.714268 0.635907 0.199107 0.733872 0.649453 0.0546604 0.770047 0.635641 
-0.0620943 0.748926 0.659738 -0.0158339 0.994299 0.105446 -0.164854 0.715974 0.678384 
-0.292254 0.67292 0.679534 0.3146 0.714099 0.625372 0.39356 0.685088 0.612997 
0.446627 0.84359 0.298128 -0.344942 0.644287 0.682575 -0.490393 0.46638 0.73621 
-0.53244 0.706151 0.466753 0.552033 0.566586 0.611752 0.482855 0.643861 0.593544 
0.48422 0.64274 0.593647 0.490521 0.653794 0.576145 -0.561332 0.345093 0.752208 
-0.743647 0.441035 0.502471 0.565559 0.547756 0.616528 -0.624773 0.0413738 0.779709 
-0.70553 0.0754255 0.704655 0.676176 0.358579 0.643589 0.697422 0.293679 0.653724 
0.727866 0.384585 0.56772 -0.60046 -0.0960981 0.79386 -0.635578 -0.0299942 0.771454 
0.707566 0.163454 0.687483 -0.508096 -0.155247 0.847194 -0.364238 -0.157962 0.917812 
-0.511979 0.00860505 0.858955 0.691982 -0.0214522 0.721596 -0.324856 -0.176914 0.929069 
-0.176563 -0.250463 0.95189 -0.306245 -0.138488 0.941826 -0.336066 0.050465 0.940485 
-0.45411 0.170857 0.874409 0.68139 -0.153706 0.715599 0.688208 -0.243564 0.683408 
-0.298106 -0.445284 0.844307 -0.330066 -0.446554 0.831653 -0.0885738 -0.201899 0.975393 
-0.100163 -0.0221855 0.994724 -0.224373 0.0376021 0.973778 -0.404415 0.0962349 0.909498 
0.670436 -0.294929 0.680832 0.73755 -0.31793 0.595769 -0.237623 -0.133227 0.962178 
-0.137277 -0.0433499 0.989584 0.0277208 -0.0306543 0.999146 -0.0826865 -0.0311122 0.99609 
-0.213761 -0.00977751 0.976837 -0.46231 -0.0639973 0.884406 0.554122 -0.477695 0.68173 
0.534843 -0.504336 0.677929 -0.192869 0.0277532 0.980832 -0.157703 0.036462 0.986813 
-0.0714308 -0.0336666 0.996877 -0.0781465 -0.0915942 0.992725 -0.27826 -0.190503 0.941424 
-0.427699 -0.281007 0.859133 0.462863 -0.51023 0.724861 0.684568 -0.684807 0.249811 
0.438951 -0.527624 0.727279 0.402629 -0.610851 0.681727 -0.202395 -0.136298 0.969773 
-0.266766 -0.342488 0.900854 -0.17506 -0.146252 0.973635 -0.108709 -0.18776 0.976181 
-0.212621 -0.286928 0.934058 -0.362404 -0.407943 0.838001 0.396645 -0.617253 0.679464 
0.412746 -0.631532 0.65636 0.188403 -0.673483 0.71479 -0.0606683 -0.656774 0.751643 
-0.241774 -0.461346 0.853642 -0.209168 -0.562314 0.800032 -0.262113 -0.491713 0.830371 
-0.192638 -0.570499 0.798387 -0.204484 -0.57496 0.792217 -0.347977 -0.657913 0.667879 
-0.0132451 -0.951935 0.306015 -0.0157865 0.994347 0.104996 0.451444 0.876673 0.166262 
0.333975 0.931434 0.144538 0.203509 0.972545 0.11287 -0.0147749 0.994361 0.105011 
0.0798462 0.990968 0.107735 -0.0164806 0.994307 0.105274 -0.0157685 0.994463 0.103902 
-0.147455 0.975448 0.163578 -0.302933 0.927883 0.217404 -0.514734 0.811746 0.275894 
0.475952 0.861068 0.178974 0.544434 0.804559 0.237226 -0.589993 0.738772 0.325768 
-0.738375 0.516808 0.433257 0.583235 0.767828 0.265098 0.615102 0.73588 0.283074 
-0.770072 0.447588 0.454593 0.714103 0.630505 0.304173 0.759688 0.572471 0.308465 
-0.790543 0.188776 0.582586 -0.86409 0.331771 0.37852 0.850633 0.419748 0.3166 
-0.657259 0.14575 0.739437 -0.705673 0.226839 0.671245 0.923397 0.215436 0.317686 
-0.550323 0.188509 0.813394 -0.545324 0.191701 0.81601 -0.557212 0.194805 0.807196 
-0.886938 0.257819 0.383236 0.955906 -0.0173836 0.293159 0.989171 -0.0349876 0.142535 
-0.569213 0.186197 0.800829 -0.831864 0.2305 0.504849 0.933617 -0.227217 0.277004 
-0.565805 0.0376672 0.823678 -0.740443 0.0248326 0.67166 0.889681 -0.384878 0.245637 
0.822578 -0.526761 0.214215 -0.645009 -0.0357383 0.763339 -0.826665 -0.088676 0.555664 
0.804463 -0.553626 0.215262 -0.558342 -0.279368 0.781158 -0.508568 -0.419036 0.752175 
-0.864837 -0.340623 0.368827 0.693982 -0.688672 0.210046 0.688484 -0.694241 0.209806 
0.590217 -0.779327 0.210461 -0.510938 -0.493415 0.703907 -0.426316 -0.602854 0.674405 
-0.65123 -0.613117 0.4472 0.57654 -0.789639 0.209935 0.44579 -0.868653 0.216131 
0.23218 -0.95151 0.201794 -0.166739 -0.953008 0.25293 -0.186914 -0.907401 0.376413 
-0.14386 -0.848505 0.509257 -0.188922 -0.789305 0.584214 -0.38443 -0.690951 0.612209 
-0.355602 -0.713006 0.604293 -0.436024 -0.884447 0.166242 0.173694 -0.963195 0.205147 
0.243572 -0.969162 -0.0373849 -0.114667 -0.964568 0.237615 -0.00671992 -0.975448 0.220127 
-0.134376 -0.987736 0.0795067 0.38229 0.907842 -0.17227 0.274673 0.934707 -0.225562 
0.181997 0.93344 -0.309139 0.062685 0.945355 -0.31996 -0.000935515 0.954945 -0.29678 
-0.0804732 0.963831 -0.254073 -0.229915 0.960077 -0.159349 -0.412156 0.902477 -0.12515 
0.405449 0.9018 -0.149558 0.488647 0.870376 -0.0605801 0.355617 0.897628 -0.260386 
-0.546661 0.83491 -0.0639259 -0.378632 0.798757 -0.467573 -0.65356 0.756719 0.0153516 
0.58326 0.812218 -0.0105127 0.590181 0.807235 -0.0076302 -0.828464 0.551399 0.0980159 
-0.873296 0.420656 0.245768 0.769112 0.639099 0.00433568 0.769674 0.638422 0.00431554 
-0.872333 0.382181 0.304914 0.915807 0.401609 -0.00284975 -0.870022 0.345132 0.35206 
-0.894472 0.265697 0.359619 0.982052 0.188423 -0.00843202 0.988274 0.152103 -0.0133588 
-0.894876 0.258432 0.363881 0.997658 -0.0546577 -0.0411133 0.992129 -0.116753 -0.0452683 
0.989144 -0.0583268 -0.13488 -0.908937 0.255262 0.329658 0.967761 -0.246009 -0.0540229 
-0.95168 0.0746072 0.297892 0.904323 -0.42053 -0.0731764 0.83176 -0.548949 -0.0826452 
-0.941999 -0.167123 0.291047 0.817416 -0.570094 -0.0826084 -0.914578 -0.387981 0.114094 
-0.871676 -0.479259 0.102425 -0.827133 -0.452081 -0.333877 0.70967 -0.701201 -0.0684558 
0.701382 -0.709549 -0.0678418 0.703174 -0.697779 -0.13657 0.594892 -0.801173 -0.0650036 
-0.731146 -0.670608 0.125339 -0.652623 -0.748548 0.117297 0.586122 -0.807573 -0.0654783 
0.452294 -0.888985 -0.0716671 -0.102212 -0.994749 0.00530234 -0.0615004 -0.997663 0.0297676 
-0.184493 -0.98242 0.0285048 -0.315207 -0.947482 0.0540541 -0.452198 -0.888045 0.0830194 
-0.424692 -0.901671 0.0813956 -0.446103 -0.892609 -0.0651219 0.245807 -0.967324 -0.0621475 
0.244153 -0.96775 -0.0620395 0.244033 -0.967504 -0.0662158 0.0128204 -0.997426 -0.0705519 
0.0191025 -0.976195 -0.21605 -0.109868 -0.993621 -0.0254311 -0.112793 -0.993066 -0.0331302 
-0.108433 -0.991129 -0.0768508 0.166853 0.798149 -0.578894 0.0602916 0.731771 -0.678879 
0.0682134 0.7037 -0.707215 0.0631539 0.741809 -0.667631 0.00686419 0.772983 -0.634389 
-0.154911 0.797472 -0.58313 0.405814 0.819027 -0.405597 0.176947 0.802383 -0.569974 
0.266162 0.836918 -0.478253 0.162343 0.791969 -0.588582 0.0489534 0.699976 -0.712487 
0.0683655 0.657841 -0.750048 0.0762199 0.656559 -0.750414 0.011611 0.680152 -0.732979 
-0.33246 0.77662 -0.5351 -0.136841 0.697642 -0.703256 -0.36162 0.767165 -0.529801 
-0.524748 0.718383 -0.45669 0.487233 0.788081 -0.376207 0.553425 0.746573 -0.369256 
0.357889 0.737444 -0.572793 0.112225 0.578667 -0.807806 -0.0228739 0.477743 -0.878202 
-0.0409974 0.391748 -0.919159 0.0454188 0.361244 -0.931364 0.115735 0.354759 -0.927767 
0.0393324 0.31972 -0.946695 -0.108313 0.374015 -0.921076 -0.184785 0.451306 -0.873028 
-0.627574 0.661961 -0.409827 -0.464391 0.605087 -0.646692 -0.752936 0.581849 -0.307472 
0.699526 0.616057 -0.362128 0.748295 0.560885 -0.354207 0.476607 0.533907 -0.698419 
-0.284255 0.315951 -0.905193 -0.811753 0.520723 -0.264396 -0.692957 0.53144 -0.48722 
0.841267 0.402428 -0.361 0.68474 0.37412 -0.625433 -0.891387 0.381686 -0.244429 
-0.488555 0.205661 -0.847949 -0.914823 0.3191 -0.247535 0.910324 0.180335 -0.372544 
-0.925841 0.292577 -0.239201 -0.894401 0.293095 -0.337849 0.933361 -0.0626387 -0.35343 
-0.950467 0.203646 -0.234822 -0.792066 0.171333 -0.585898 0.904387 -0.255937 -0.341439 
-0.951267 0.00291485 -0.308354 -0.683964 -0.0270892 -0.729013 0.862366 -0.401575 -0.308324 
0.831134 -0.478093 -0.283979 0.812276 -0.357707 -0.460709 -0.905952 -0.258498 -0.335306 
-0.792831 -0.433892 -0.427969 -0.772634 -0.271243 -0.57399 0.787487 -0.556612 -0.264663 
0.702989 -0.666667 -0.247712 -0.775713 -0.456152 -0.436113 -0.48471 -0.319783 -0.814122 
0.684705 -0.686047 -0.246004 0.588179 -0.768451 -0.252049 -0.454388 -0.790102 -0.411426 
-0.390649 -0.528124 -0.753975 -0.636552 -0.648951 -0.41673 -0.603683 -0.671406 -0.429861 
-0.588399 -0.651944 -0.478284 0.542578 -0.799677 -0.257148 0.451478 -0.851956 -0.265214 
0.403701 -0.726215 -0.55645 0.238566 -0.930236 -0.278832 0.0224074 -0.961535 -0.273766 
-0.0934681 -0.963372 -0.251352 -0.113372 -0.9589 -0.260111 -0.110598 -0.941428 -0.318561 
-0.169606 -0.906508 -0.386622 -0.189697 -0.709052 -0.679162 -0.412723 -0.826685 -0.382428 
-0.314127 -0.879398 -0.357746 -0.307722 -0.773862 -0.553574 0.244326 0.517305 -0.820183 
0.0555076 0.464023 -0.884082 -0.0705099 0.390514 -0.917893 -0.0980386 0.264886 -0.959283 
0.0554625 0.225005 -0.972778 0.0984626 0.272484 -0.957109 0.0385805 0.308967 -0.95029 
-0.0890808 0.320672 -0.942992 -0.136003 0.299857 -0.94424 0.363144 0.471183 -0.803812 
0.415687 0.436772 -0.797768 0.189022 0.390462 -0.901005 -0.00675217 0.321093 -0.947024 
-0.121716 0.286561 -0.950299 -0.105512 0.248961 -0.962749 0.0561491 0.217388 -0.974469 
0.0727327 0.192765 -0.978546 0.0237477 0.113942 -0.993204 -0.0237993 0.149129 -0.988531 
-0.206421 0.278965 -0.937853 -0.12706 0.246621 -0.960747 -0.233569 0.268823 -0.934441 
0.517027 0.313253 -0.79659 0.590479 0.158322 -0.791372 0.328072 0.260274 -0.908089 
0.132747 0.180762 -0.974527 -0.0509378 0.13523 -0.989504 -0.132035 0.134385 -0.982093 
-0.122434 0.268496 -0.955468 -0.0140151 0.191886 -0.981317 0.0115982 0.1351 -0.990764 
0.0031007 0.0400901 -0.999191 0.0438673 0.0263392 -0.99869 -0.0208692 0.10219 -0.994546 
-0.484314 0.20483 -0.850579 -0.154345 0.165601 -0.97404 -0.47902 0.194516 -0.855981 
0.590905 0.154511 -0.791807 0.589191 0.154628 -0.79306 0.25039 0.147851 -0.956789 
0.0407429 0.0848265 -0.995562 -0.0448262 0.0282809 -0.998594 0.0196549 0.0109249 -0.999747 
-0.0494649 0.16113 -0.985693 -0.0893426 0.0385751 -0.995254 -0.0789653 0.0900609 -0.992801 
-0.0858444 0.0696558 -0.993871 0.0376406 0.0383769 -0.998554 0.0173581 0.0461874 -0.998782 
-0.131902 0.0748414 -0.988433 -0.397323 0.0876975 -0.913479 -0.378729 0.0813449 -0.921926 
0.639825 0.00737556 -0.768485 0.597614 0.0161428 -0.801621 0.253626 0.0813911 -0.963872 
0.00343405 0.108418 -0.994099 -0.130083 0.0758705 -0.988596 5.08413e-05 0.0161941 -0.999869 
-0.0815935 -0.021212 -0.99644 -0.100962 0.0961076 -0.990237 0.0457426 -0.0746386 -0.996161 
-0.047963 0.0679363 -0.996536 0.019792 0.101438 -0.994645 0.0171987 0.0837993 -0.996334 
-0.10713 0.0723768 -0.991607 -0.423743 0.103346 -0.899867 -0.33302 0.0907222 -0.938545 
0.702886 -0.156852 -0.693793 0.707813 -0.175855 -0.684161 0.693964 -0.153424 -0.703473 
0.325566 -0.0198447 -0.945311 0.0257855 0.0669797 -0.997421 -0.134996 0.109312 -0.984798 
-0.0744689 0.115687 -0.99049 0.0282181 -0.00230903 -0.999599 -0.146789 0.144971 -0.978487 
-0.098531 0.00725703 -0.995108 0.0838959 0.072817 -0.99381 0.0543394 0.118837 -0.991426 
-0.0111429 0.0728369 -0.997282 -0.122146 0.0209163 -0.992292 -0.436473 -0.0272589 -0.899304 
-0.3163 -0.0191808 -0.948465 0.709043 -0.29046 -0.642566 0.443986 -0.192081 -0.875203 
0.127581 -0.0632766 -0.989808 -0.0757843 0.084207 -0.993562 -0.118628 0.117109 -0.986009 
-0.0594281 0.0641693 -0.996168 -0.0784348 0.0366027 -0.996247 -0.0360514 0.160789 -0.98633 
0.0655999 0.119002 -0.990725 0.0178411 0.0846401 -0.996252 -0.0788633 0.0190068 -0.996704 
-0.195768 -0.0634693 -0.978594 -0.437379 -0.138251 -0.888587 -0.476771 -0.304517 -0.824596 
-0.369956 -0.112509 -0.922212 0.656348 -0.478144 -0.583597 0.636468 -0.516963 -0.572414 
0.604929 -0.454783 -0.653632 0.293977 -0.266145 -0.918011 0.0423416 -0.143355 -0.988765 
-0.0924086 -0.00575756 -0.995705 -0.0539857 0.0785188 -0.99545 -0.0452538 0.0412997 -0.998121 
-0.0258478 0.104406 -0.994199 0.01181 0.0104907 -0.999875 -0.0429658 -0.0472513 -0.997959 
-0.164657 -0.149536 -0.97495 -0.47653 -0.315924 -0.820434 -0.342733 -0.430278 -0.835102 
-0.253395 -0.229606 -0.939719 0.540412 -0.618306 -0.57066 0.502221 -0.643637 -0.577499 
0.459289 -0.581966 -0.671095 0.379133 -0.686777 -0.620158 0.193235 -0.396301 -0.897555 
0.105189 -0.223608 -0.968986 -0.0160101 -0.129563 -0.991442 -0.0463438 -0.120393 -0.991644 
-0.069459 -0.157194 -0.985122 -0.0919239 -0.240165 -0.96637 -0.183704 -0.597662 -0.780418 
-0.145353 -0.35375 -0.923977 -0.33821 -0.46927 -0.81572 -0.270261 -0.52207 -0.808951 
-0.255052 -0.394761 -0.882673 0.35694 -0.694783 -0.624396 0.203642 -0.707127 -0.677127 
0.184155 -0.581135 -0.792697 0.0351148 -0.729583 -0.68299 0.036098 -0.558173 -0.828939 
-0.0736679 -0.731887 -0.677433 -0.0711877 -0.566793 -0.820779 -0.13489 -0.703878 -0.697395 
-0.131447 -0.609029 -0.782179 -0.170683 -0.654034 -0.736958 -0.162362 -0.667316 -0.726861 
-0.162222 -0.643003 -0.748486 
