# vtk DataFile Version 4.2
vtk output
ASCII
DATASET POLYDATA
POINTS 554 float
39.202 -0.600956 -25.3493 17.7001 -22.1028 -19.9434 24.8674 -22.1028 -20.9357 
32.0347 -22.1028 -21.0439 39.202 -22.1028 -20.1987 -3.80175 -14.9355 -18.1974 
3.36554 -14.9355 -19.3941 10.5328 -14.9355 -20.9739 17.7001 -14.9355 -22.4465 
24.8674 -14.9355 -23.8313 32.0347 -14.9355 -24.5397 39.202 -14.9355 -23.728 
46.3693 -14.9355 -22.1524 -3.80175 -7.76825 -18.6142 3.36554 -7.76825 -20.7117 
10.5328 -7.76825 -22.1524 17.7001 -7.76825 -22.8953 24.8674 -7.76825 -24.0491 
32.0347 -7.76825 -24.9564 39.202 -5.79781 -25.1969 39.202 -7.76825 -25.1383 
46.3693 -7.76825 -24.4211 53.5366 -7.76825 -22.1761 -10.969 -0.600956 -18.0339 
-3.80175 -0.600956 -18.3232 3.36554 -0.600956 -21.0967 10.5328 -0.600956 -22.6552 
17.7001 -0.600956 -22.7492 24.8674 -0.600956 -23.9733 36.152 -0.600956 -25.1969 
32.0347 -0.600956 -24.9923 41.0614 -0.600956 -25.1969 39.202 1.24559 -25.1969 
46.3693 -0.600956 -24.7393 53.5366 -0.600956 -22.0605 -32.4709 6.56634 -18.5678 
-25.3036 6.56634 -18.1925 -3.80175 6.56634 -18.4279 3.36554 6.56634 -19.642 
10.5328 6.56634 -20.9842 17.7001 6.56634 -21.951 24.8674 6.56634 -23.3105 
32.0347 6.56634 -24.3448 39.202 6.56634 -24.7494 46.3693 6.56634 -24.149 
53.5366 6.56634 -22.5148 -32.4709 13.7336 -18.75 -25.3036 13.7336 -19.292 
-18.1363 13.7336 -19.3507 -10.969 13.7336 -18.4709 3.36554 13.7336 -18.0432 
10.5328 13.7336 -18.8526 17.7001 13.7336 -20.5209 24.8674 13.7336 -22.143 
32.0347 13.7336 -23.3917 39.202 13.7336 -24.3602 46.3693 13.7336 -22.6334 
53.5366 13.7336 -18.8304 -25.3036 20.9009 -18.5895 -18.1363 20.9009 -18.1195 
17.7001 20.9009 -18.4469 24.8674 20.9009 -19.8441 32.0347 20.9009 -21.028 
39.202 20.9009 -20.185 46.3693 20.9009 -18.4111 17.7001 -24.3758 -18.0296 
24.8674 -25.5136 -18.0296 32.0347 -25.3994 -18.0296 39.202 -24.0784 -18.0296 
-10.969 -22.1028 -11.7469 -3.80175 -15.3613 -18.0296 -3.80175 -22.1028 -14.3531 
3.36554 -17.7267 -18.0296 3.36554 -22.1028 -14.9005 11.8004 -22.1028 -18.0296 
10.5328 -21.2917 -18.0296 10.5328 -22.1028 -17.4856 43.7275 -22.1028 -18.0296 
46.3693 -20.5438 -18.0296 46.3693 -22.1028 -15.2288 -39.6382 -14.9355 -11.6016 
-32.4709 -14.9355 -12.7007 -25.3036 -14.9355 -12.6103 -18.1363 -14.9355 -12.6855 
-4.39046 -14.9355 -18.0296 -10.969 -14.9355 -15.7752 53.138 -14.9355 -18.0296 
53.5366 -14.4186 -18.0296 53.5366 -14.9355 -17.6197 -46.8055 -7.76825 -12.9442 
-39.6382 -7.76825 -14.8813 -32.4709 -7.76825 -15.5204 -25.3036 -7.76825 -15.121 
-18.1363 -7.76825 -15.2102 -8.83635 -7.76825 -18.0296 -10.969 -0.719593 -18.0296 
-10.969 -7.76825 -17.7417 58.1023 -7.76825 -18.0296 60.7039 -7.76825 -13.4369 
-53.9728 -0.600956 -11.3714 -46.8055 -0.600956 -14.8112 -39.6382 -0.600956 -16.8211 
-32.4709 3.05251 -18.0296 -32.4709 -0.600956 -17.4221 -25.3036 5.26543 -18.0296 
-25.3036 -0.600956 -17.2789 -10.991 -0.600956 -18.0296 -18.1363 -0.600956 -16.6609 
-10.969 -0.269353 -18.0296 59.0848 -0.600956 -18.0296 60.7039 -0.600956 -15.6589 
-53.9728 6.56634 -11.7777 -46.8055 6.56634 -15.2416 -36.0411 6.56634 -18.0296 
-39.6382 6.56634 -17.4685 -22.2621 6.56634 -18.0296 -18.1363 7.5975 -18.0296 
-18.1363 6.56634 -17.8081 -9.70146 6.56634 -18.0296 -10.969 7.73428 -18.0296 
-10.969 6.56634 -17.9437 -3.80175 12.2908 -18.0296 59.1379 6.56634 -18.0296 
60.7039 6.56634 -15.8558 -46.8055 13.7336 -14.3378 -37.4236 13.7336 -18.0296 
-39.6382 13.7336 -17.6744 -32.4709 16.9524 -18.0296 -5.1343 13.7336 -18.0296 
-10.969 15.5304 -18.0296 2.52269 13.7336 -18.0296 -3.80175 13.7336 -17.9251 
3.36554 13.7753 -18.0296 10.5328 16.5571 -18.0296 54.5014 13.7336 -18.0296 
53.5366 15.2571 -18.0296 -46.8055 20.9009 -11.4832 -39.6382 20.9009 -14.9651 
-28.1753 20.9009 -18.0296 -32.4709 20.9009 -17.0927 -25.3036 22.0089 -18.0296 
-17.6892 20.9009 -18.0296 -18.1363 21.0684 -18.0296 -10.969 20.9009 -16.4852 
-3.80175 20.9009 -14.8076 3.36554 20.9009 -15.3354 15.9242 20.9009 -18.0296 
10.5328 20.9009 -16.6454 17.7001 21.6099 -18.0296 24.8674 23.5813 -18.0296 
32.0347 24.7585 -18.0296 39.202 23.7314 -18.0296 47.0858 20.9009 -18.0296 
46.3693 21.2613 -18.0296 53.5366 20.9009 -12.2916 -32.4709 28.0682 -10.9764 
-25.3036 28.0682 -12.4128 -18.1363 28.0682 -12.5302 17.7001 28.0682 -12.2567 
24.8674 28.0682 -13.6348 32.0347 28.0682 -14.1671 39.202 28.0682 -12.4239 
-10.969 -22.8644 -10.8624 -3.80175 -24.7997 -10.8624 3.36554 -25.0511 -10.8624 
10.5328 -26.8991 -10.8624 17.7001 -28.6005 -10.8624 24.8674 -28.7081 -10.8624 
32.0347 -28.0547 -10.8624 39.202 -26.3415 -10.8624 46.3693 -23.8685 -10.8624 
-39.6382 -16.17 -10.8624 -39.6382 -22.1028 -6.03582 -32.4709 -17.7837 -10.8624 
-32.4709 -22.1028 -7.59407 -25.3036 -17.9363 -10.8624 -25.3036 -22.1028 -7.75149 
-12.7481 -22.1028 -10.8624 -18.1363 -18.2756 -10.8624 -18.1363 -22.1028 -8.1316 
48.984 -22.1028 -10.8624 53.5366 -18.9681 -10.8624 -53.9728 -14.9355 -4.40573 
-42.9556 -14.9355 -10.8624 -46.8055 -12.6763 -10.8624 -46.8055 -14.9355 -9.68608 
57.6403 -14.9355 -10.8624 60.7039 -9.56247 -10.8624 -51.3613 -7.76825 -10.8624 
-53.9728 -2.69413 -10.8624 -53.9728 -7.76825 -9.24791 61.7542 -7.76825 -10.8624 
-54.5986 -0.600956 -10.8624 62.8394 -0.600956 -10.8624 -54.9849 6.56634 -10.8624 
-53.9728 10.2816 -10.8624 62.7886 6.56634 -10.8624 60.7039 11.3289 -10.8624 
-52.5445 13.7336 -10.8624 -53.9728 13.7336 -9.29857 59.5226 13.7336 -10.8624 
-47.4876 20.9009 -10.8624 -46.8055 21.4616 -10.8624 -39.6382 26.3937 -10.8624 
-10.969 27.1309 -10.8624 -3.80175 25.0081 -10.8624 3.36554 25.9021 -10.8624 
10.5328 27.67 -10.8624 46.3693 26.6116 -10.8624 54.3979 20.9009 -10.8624 
53.5366 21.5688 -10.8624 53.5366 20.9009 -6.62918 -32.9327 28.0682 -10.8624 
-39.6382 28.0682 -4.59248 -32.4709 28.1532 -10.8624 -25.3036 29.0099 -10.8624 
-13.7912 28.0682 -10.8624 -18.1363 29.2434 -10.8624 -10.969 28.0682 -7.37899 
3.36554 28.0682 -3.86284 12.348 28.0682 -10.8624 10.5328 28.0682 -9.33126 
17.7001 29.0059 -10.8624 24.8674 29.9664 -10.8624 32.0347 29.8787 -10.8624 
42.0425 28.0682 -10.8624 39.202 28.9472 -10.8624 -39.6382 -24.3121 -3.69506 
-32.4709 -25.5376 -3.69506 -25.3036 -25.5386 -3.69506 -18.1363 -25.7156 -3.69506 
-10.969 -26.588 -3.69506 -3.80175 -27.3167 -3.69506 3.36554 -27.304 -3.69506 
10.5328 -28.1007 -3.69506 17.7001 -28.6735 -3.69506 24.8674 -28.198 -3.69506 
32.0347 -27.6019 -3.69506 39.202 -25.3289 -3.69506 46.3693 -23.0942 -3.69506 
-53.9728 -15.7905 -3.69506 -45.9068 -22.1028 -3.69506 -46.8055 -21.7193 -3.69506 
-46.8055 -22.1028 -3.14906 47.7565 -22.1028 -3.69506 46.3693 -22.1028 -1.36538 
53.5366 -18.3013 -3.69506 -54.6947 -14.9355 -3.69506 56.975 -14.9355 -3.69506 
53.5366 -14.9355 2.82711 60.7039 -8.27942 -3.69506 -58.3714 -7.76825 -3.69506 
60.9926 -7.76825 -3.69506 60.7039 -7.76825 -3.08041 -60.2283 -0.600956 -3.69506 
-61.1401 -0.600956 -0.83811 62.0808 -0.600956 -3.69506 60.7039 -0.600956 -0.92203 
-59.5339 6.56634 -3.69506 61.7618 6.56634 -3.69506 60.7039 9.04088 -3.69506 
60.7039 6.56634 -1.38056 -57.3759 13.7336 -3.69506 -53.9728 18.8733 -3.69506 
58.5569 13.7336 -3.69506 53.5366 20.355 -3.69506 -52.1226 20.9009 -3.69506 
-46.8055 24.708 -3.69506 -3.80175 27.738 -3.69506 52.9457 20.9009 -3.69506 
46.3693 25.7872 -3.69506 46.3693 20.9009 3.37703 -39.9926 28.0682 -3.69506 
-39.6382 28.2174 -3.69506 -32.4709 29.9435 -3.69506 -25.3036 30.3747 -3.69506 
-18.1363 30.2588 -3.69506 -5.96563 28.0682 -3.69506 -10.969 28.8825 -3.69506 
-10.969 28.0682 3.40168 2.59884 28.0682 -3.69506 3.36554 28.108 -3.69506 
3.36554 28.0682 -3.52975 10.5328 29.1672 -3.69506 10.5328 28.0682 0.179369 
17.7001 30.104 -3.69506 17.7001 28.0682 2.49311 24.8674 30.7567 -3.69506 
24.8674 28.0682 3.40839 32.0347 30.2143 -3.69506 32.0347 28.0682 1.19708 
40.9443 28.0682 -3.69506 39.202 28.7381 -3.69506 39.202 28.0682 -2.35362 
-46.8055 -25.3422 3.47223 -39.6382 -28.1575 3.47223 -32.4709 -28.8192 3.47223 
-32.4709 -29.2701 8.25872 -25.3036 -28.6539 3.47223 -18.1363 -28.6257 3.47223 
-10.969 -28.1085 3.47223 -3.80175 -28.0408 3.47223 3.36554 -27.3434 3.47223 
10.5328 -27.2866 3.47223 17.7001 -27.297 3.47223 24.8674 -26.5898 3.47223 
32.0347 -25.6576 3.47223 39.202 -23.1904 3.47223 -52.5226 -22.1028 3.47223 
-53.9728 -20.8792 3.47223 41.8829 -22.1028 3.47223 39.202 -22.1028 6.31068 
46.3693 -19.9602 3.47223 -58.2352 -14.9355 3.47223 53.0369 -14.9355 3.47223 
46.3693 -14.9355 10.183 53.5366 -14.2803 3.47223 -60.8711 -7.76825 3.47223 
-61.1401 -6.3436 3.47223 57.3025 -7.76825 3.47223 53.5366 -7.76825 7.61472 
-62.2242 -0.600956 3.47223 -61.1401 4.68274 3.47223 -61.1401 -0.600956 9.28742 
57.9025 -0.600956 3.47223 53.5366 -0.600956 7.97643 -60.7492 6.56634 3.47223 
57.7008 6.56634 3.47223 53.5366 6.56634 7.07232 -58.1329 13.7336 3.47223 
-53.9728 20.0222 3.47223 46.3693 20.7981 3.47223 46.3693 13.7336 7.99514 
53.5985 13.7336 3.47223 53.5366 13.8211 3.47223 53.5366 13.7336 3.53191 
-53.1056 20.9009 3.47223 -46.8055 25.0883 3.47223 -10.969 28.0598 3.47223 
-3.80175 26.2334 3.47223 3.36554 26.2777 3.47223 10.5328 27.0565 3.47223 
17.7001 27.7038 3.47223 24.8674 28.0366 3.47223 24.8674 20.9009 10.1591 
32.0347 26.7718 3.47223 32.0347 20.9009 8.80229 46.2591 20.9009 3.47223 
39.202 24.9844 3.47223 39.202 20.9009 7.18944 -40.0526 28.0682 3.47223 
-39.6382 28.2265 3.47223 -39.6382 28.0682 4.72868 -32.4709 29.8174 3.47223 
-25.3036 29.9624 3.47223 -11.0112 28.0682 3.47223 -18.1363 29.439 3.47223 
-18.1363 28.0682 9.28827 -32.4709 -29.4935 10.6395 -46.8055 -25.8342 10.6395 
-33.8498 -29.2701 10.6395 -39.6382 -28.39 10.6395 -29.0259 -29.2701 10.6395 
-32.4709 -29.2701 11.3136 -25.3036 -29.0366 10.6395 -18.1363 -28.6475 10.6395 
-10.969 -28.3635 10.6395 -3.80175 -27.5512 10.6395 3.36554 -26.0737 10.6395 
10.5328 -25.4492 10.6395 17.7001 -25.4131 10.6395 24.8674 -24.5658 10.6395 
32.0347 -22.4925 10.6395 -52.4963 -22.1028 10.6395 -53.9728 -20.6008 10.6395 
-46.8055 -22.1028 17.297 17.7001 -22.1028 17.2613 24.8674 -22.1028 15.1924 
33.299 -22.1028 10.6395 32.0347 -22.1028 11.2479 39.202 -19.5975 10.6395 
[...]
POINT_DATA 554
SCALARS ImageScalars float
LOOKUP_TABLE default
0 0 0 0 0 0 0 0 0 
0 0 0 0 0 0 0 0 0 
0 0 0 0 0 0 0 0 0 
0 0 0 0 0 0 0 0 0 
0 0 0 0 0 0 0 0 0 
0 0 0 0 0 0 0 0 0 
0 0 0 0 0 0 0 0 0 
0 0 0 0 0 0 0 0 0 
0 0 0 0 0 0 0 0 0 
0 0 0 0 0 0 0 0 0 
0 0 0 0 0 0 0 0 0 
0 0 0 0 0 0 0 0 0 
0 0 0 0 0 0 0 0 0 
0 0 0 0 0 0 0 0 0 
0 0 0 0 0 0 0 0 0 
0 0 0 0 0 0 0 0 0 
0 0 0 0 0 0 0 0 0 
0 0 0 0 0 0 0 0 0 
0 0 0 0 0 0 0 0 0 
0 0 0 0 0 0 0 0 0 
0 0 0 0 0 0 0 0 0 
0 0 0 0 0 0 0 0 0 
0 0 0 0 0 0 0 0 0 
0 0 0 0 0 0 0 0 0 
0 0 0 0 0 0 0 0 0 
0 0 0 0 0 0 0 0 0 
0 0 0 0 0 0 0 0 0 
0 0 0 0 0 0 0 0 0 
0 0 0 0 0 0 0 0 0 
0 0 0 0 0 0 0 0 0 
0 0 0 0 0 0 0 0 0 
0 0 0 0 0 0 0 0 0 
0 0 0 0 0 0 0 0 0 
0 0 0 0 0 0 0 0 0 
0 0 0 0 0 0 0 0 0 
0 0 0 0 0 0 0 0 0 
0 0 0 0 0 0 0 0 0 
0 0 0 0 0 0 0 0 0 
0 0 0 0 0 0 0 0 0 
0 0 0 0 0 0 0 0 0 
0 0 0 0 0 0 0 0 0 
0 0 0 0 0 0 0 0 0 
0 0 0 0 0 0 0 0 0 
0 0 0 0 0 0 0 0 0 
0 0 0 0 0 0 0 0 0 
0 0 0 0 0 0 0 0 0 
0 0 0 0 0 0 0 0 0 
0 0 0 0 0 0 0 0 0 
0 0 0 0 0 0 0 0 0 
0 0 0 0 0 0 0 0 0 
0 0 0 0 0 0 0 0 0 
0 0 0 0 0 0 0 0 0 
0 0 0 0 0 0 0 0 0 
0 0 0 0 0 0 0 0 0 
0 0 0 0 0 0 0 0 0 
0 0 0 0 0 0 0 0 0 
0 0 0 0 0 0 0 0 0 
0 0 0 0 0 0 0 0 0 
0 0 0 0 0 0 0 0 0 
0 0 0 0 0 0 0 0 0 
0 0 0 0 0 0 0 0 0 
0 0 0 0 0 
NORMALS Normals float
-0.0153999 -0.0265348 0.999529 0.203245 0.531668 0.822205 0.0704451 0.538423 0.839725 
-0.0438134 0.608421 0.792404 -0.232518 0.695163 0.680208 0.215576 0.21886 0.951644 
0.18744 0.306174 0.93334 0.204221 0.271921 0.9404 0.18862 0.182561 0.964932 
0.141473 0.189689 0.971598 -0.00829442 0.227516 0.973739 -0.152551 0.297632 0.942414 
-0.329985 0.411478 0.849585 0.190829 0.00818625 0.981589 0.251889 0.114621 0.960944 
0.144856 0.112617 0.983023 0.132628 0.0203281 0.990957 0.141229 0.00897584 0.989936 
0.0762341 0.02975 0.996646 -0.0277755 0.0737565 0.996889 -0.0326377 0.112029 0.993169 
-0.166827 0.175304 0.970277 -0.491874 0.222139 0.841852 0.117211 0.0114607 0.993041 
0.19145 -0.0126987 0.98142 0.317091 -0.0710454 0.945731 0.104341 -0.0756093 0.991663 
0.0915854 -0.0644336 0.99371 0.15473 -0.0504914 0.986666 0.0314765 -0.0331257 0.998955 
0.0948485 -0.0419233 0.994609 -0.0663664 -0.0247492 0.997488 -0.0140535 -0.0354743 0.999272 
-0.216484 -0.0183863 0.976113 -0.470013 0.0173824 0.882489 0.0493531 0.0900155 0.994717 
-0.053193 0.137041 0.989136 0.109794 -0.0271255 0.993584 0.17907 -0.208514 0.961486 
0.152438 -0.260018 0.953495 0.157852 -0.150787 0.975882 0.163045 -0.122201 0.979022 
0.098546 -0.108121 0.989241 -0.0107021 -0.0661664 0.997751 -0.129934 -0.161283 0.978317 
-0.440444 -0.166955 0.88212 0.111717 -0.0927149 0.989406 0.0412449 0.0263707 0.998801 
-0.0576158 0.0196936 0.998145 -0.0978836 -0.0822486 0.991793 0.0612729 -0.260535 0.963518 
0.164417 -0.27316 0.947814 0.218105 -0.23557 0.947068 0.19162 -0.225946 0.955108 
0.143326 -0.201268 0.968994 -0.0632457 -0.268115 0.961309 -0.281812 -0.268935 0.921008 
-0.589217 -0.378206 0.713992 0.0650176 -0.303872 0.950492 -0.130405 -0.344257 0.929775 
0.196201 -0.40975 0.890848 0.161386 -0.441704 0.882526 0.0251952 -0.480305 0.876739 
-0.124976 -0.534246 0.83604 -0.290317 -0.682764 0.670485 0.202378 0.670547 0.713729 
0.0567739 0.754806 0.653486 -0.0942919 0.78925 0.606789 -0.24595 0.801498 0.545078 
0.332407 0.672894 0.660847 0.214395 0.241127 0.946516 0.161243 0.698584 0.697124 
0.179665 0.437247 0.881213 0.154809 0.725232 0.670875 0.259214 0.583469 0.769657 
0.263767 0.554128 0.789537 0.269787 0.606639 0.747799 -0.388493 0.731049 0.560929 
-0.455483 0.669242 0.587069 -0.477495 0.79212 0.380189 0.169517 0.476717 0.862558 
0.0657667 0.472299 0.878982 -0.000874596 0.43174 0.901998 0.181626 0.399604 0.898515 
0.227997 0.226883 0.946859 0.369021 0.328603 0.869393 -0.601879 0.504959 0.618674 
-0.610857 0.49296 0.619551 -0.618955 0.517374 0.590947 0.337085 0.317443 0.886343 
0.158653 0.343275 0.925738 0.0145268 0.303063 0.95286 -0.0215745 0.319732 0.947263 
0.157639 0.261835 0.952151 0.2244 0.0971126 0.969646 0.119185 0.0134677 0.992781 
0.240592 0.140206 0.960447 -0.715034 0.305012 0.629041 -0.889145 0.348136 0.297024 
0.595777 0.141435 0.790598 0.333856 0.143393 0.931654 0.17053 0.171132 0.970378 
0.0384957 0.146464 0.988467 0.0286337 0.20752 0.977812 -0.0541577 0.149639 0.987256 
-0.0525386 0.208378 0.976636 0.117011 0.0119604 0.993059 0.0499081 0.173187 0.983624 
0.113806 0.0123694 0.993426 -0.727906 0.0459922 0.684133 -0.870144 0.0627576 0.488785 
0.641907 -0.0829721 0.76228 0.373639 -0.0284463 0.927138 0.139815 0.0717151 0.987577 
0.228564 0.053303 0.972068 -0.0387285 0.158368 0.98662 -0.0231465 0.163837 0.986216 
-0.0174056 0.187331 0.982143 0.0553255 0.020354 0.998261 0.0203452 0.011611 0.999726 
0.0437523 0.0309995 0.998561 -0.00182899 -0.175242 0.984524 -0.715354 -0.205408 0.667889 
-0.843725 -0.211621 0.493299 0.463066 -0.203793 0.862577 0.223907 -0.121044 0.967065 
0.2777 -0.135681 0.951038 0.15562 -0.211466 0.964917 -0.042472 -0.188501 0.981154 
-0.123294 -0.162769 0.978931 0.050635 -0.254978 0.96562 -0.0300483 -0.213205 0.976545 
0.0614695 -0.261466 0.963253 0.173423 -0.318877 0.931795 -0.626638 -0.381388 0.679609 
-0.593811 -0.426921 0.682002 0.542972 -0.590936 0.596637 0.329974 -0.467033 0.820364 
0.125555 -0.325274 0.937248 0.216942 -0.378752 0.899713 0.064555 -0.371285 0.926272 
-0.135369 -0.348466 0.927495 -0.131602 -0.352419 0.926543 -0.210658 -0.452425 0.866565 
-0.0721887 -0.575282 0.814764 0.116616 -0.511521 0.851321 0.194778 -0.407411 0.892232 
0.195464 -0.434276 0.879317 0.191308 -0.439818 0.877475 0.132637 -0.562511 0.816082 
0.00387642 -0.633063 0.774091 -0.166395 -0.653257 0.738626 -0.315236 -0.687969 0.653701 
-0.29559 -0.697484 0.652796 -0.61938 -0.751908 0.225839 0.143512 -0.871306 0.469286 
0.0709935 -0.874309 0.480149 -0.123447 -0.847052 0.516976 0.14824 -0.864168 0.480873 
0.0862213 -0.845017 0.527743 -0.0410388 -0.869718 0.49184 -0.212314 -0.921933 0.323978 
0.315586 0.71619 0.622477 0.131125 0.851567 0.507582 0.137589 0.877989 0.45848 
0.230437 0.910935 0.342194 0.116025 0.968103 0.222071 -0.0397139 0.990977 0.128016 
-0.155134 0.981723 0.110238 -0.285067 0.9555 0.0758724 -0.461917 0.88004 0.110282 
0.164339 0.507189 0.846021 0.204078 0.702096 0.682212 0.0692095 0.557734 0.827129 
0.0832605 0.69509 0.714085 0.0178454 0.509079 0.860535 0.0273169 0.685575 0.727489 
0.298915 0.676831 0.672718 0.186116 0.511257 0.839034 0.161948 0.691628 0.703863 
-0.500955 0.858836 0.106979 -0.612261 0.77892 0.135721 0.61084 0.520681 0.596461 
0.26028 0.46747 0.844823 0.360762 0.408681 0.83835 0.380008 0.468736 0.797421 
-0.799373 0.577937 0.164292 -0.907475 0.398163 0.133994 0.487332 0.333408 0.80706 
0.595076 0.202372 0.777772 0.601525 0.334254 0.725563 -0.925413 0.354306 0.134451 
0.626112 0.137672 0.767483 -0.987067 0.0611157 0.148199 0.687159 -0.0909957 0.720786 
0.671444 -0.221065 0.707314 -0.968627 -0.215013 0.124622 -0.924127 -0.35906 0.130637 
0.633163 -0.336935 0.696835 0.710298 -0.37299 0.596955 -0.885712 -0.439082 0.150738 
0.563564 -0.600783 0.56697 0.549221 -0.620352 0.559929 0.379874 -0.776193 0.50321 
-0.255657 -0.851227 0.458315 -0.0712783 -0.812198 0.579011 0.154075 -0.830258 0.535662 
0.188827 -0.875711 0.444382 -0.434125 -0.878402 0.199863 -0.650958 -0.748216 0.128165 
-0.625271 -0.769717 0.12873 -0.643868 -0.753125 -0.135041 0.157744 -0.872312 0.462805 
0.321112 -0.939249 0.121238 0.143059 -0.87455 0.463354 0.0678565 -0.919327 0.387599 
-0.201288 -0.883108 0.423795 -0.116288 -0.906872 0.405042 -0.22065 -0.944325 0.244058 
0.100995 -0.994854 0.00810916 0.177079 -0.888844 0.422611 0.179241 -0.927415 0.328291 
0.148686 -0.907289 0.393343 0.0607399 -0.928138 0.367246 -0.0657111 -0.962494 0.263226 
-0.298047 -0.928228 0.222622 -0.214091 -0.947337 0.238155 0.22616 0.767383 0.59998 
0.0639166 0.809852 0.583141 0.0109133 0.845164 0.534395 0.0684777 0.85068 0.521204 
0.106308 0.936687 0.333642 0.0453686 0.976455 0.210898 0.0544902 0.988284 0.142571 
0.0936905 0.995398 0.0201059 0.00741124 0.99592 -0.0899338 -0.0740991 0.986144 -0.148421 
-0.187943 0.970063 -0.153804 -0.278822 0.938984 -0.201413 -0.455347 0.860372 -0.228953 
0.61965 0.532276 0.576815 0.366939 0.7496 0.550868 0.388864 0.742071 0.545999 
0.391295 0.761379 0.516905 -0.477867 0.848279 -0.228179 -0.464445 0.832426 -0.302253 
-0.608922 0.759069 -0.23028 0.642313 0.517294 0.565545 -0.770979 0.58698 -0.247073 
-0.653878 0.567432 -0.500463 -0.901635 0.348163 -0.256586 0.820129 0.287602 0.494644 
-0.906834 0.335186 -0.255545 -0.899813 0.334713 -0.279829 0.900392 0.06405 0.430339 
0.96617 0.0307995 0.256061 -0.961466 0.0436909 -0.271432 -0.903771 0.0485191 -0.425257 
0.918844 -0.166774 0.357647 -0.936056 -0.223516 -0.271736 -0.910017 -0.290154 -0.296107 
-0.885291 -0.238166 -0.39942 0.859136 -0.421409 0.290343 0.747791 -0.607228 0.268482 
-0.836294 -0.444471 -0.321026 -0.638334 -0.703854 -0.31164 0.679262 -0.692918 0.241802 
0.536547 -0.820078 0.198973 -0.0505689 -0.997349 0.0523184 -0.622582 -0.718817 -0.309343 
-0.484025 -0.820129 -0.305135 -0.489157 -0.597914 -0.635 0.321283 -0.943262 0.0838758 
0.31136 -0.946965 0.0794467 0.147511 -0.984576 0.0940753 0.0211386 -0.998045 0.0588086 
-0.099385 -0.994956 0.0136245 -0.0885256 -0.994841 0.0495434 -0.177882 -0.982851 0.0485958 
-0.213499 -0.952812 -0.215795 0.0835774 -0.996495 0.00363786 0.0994765 -0.995038 -0.00186519 
0.0986042 -0.995086 -0.0090318 0.137364 -0.989481 -0.0453681 0.115336 -0.969414 -0.216641 
0.111254 -0.990293 -0.0833184 0.070003 -0.915375 -0.396469 0.00974415 -0.991759 -0.127744 
-0.0428536 -0.856312 -0.514678 -0.138234 -0.976291 -0.166574 -0.184154 -0.867873 -0.461393 
-0.319202 -0.912704 -0.255109 -0.270445 -0.931462 -0.243388 -0.277873 -0.911918 -0.301981 
0.425451 0.872736 0.239424 0.218583 0.951479 0.216587 0.0318604 0.966639 0.254155 
0.0430453 0.999065 0.00403295 -0.0131195 0.974606 0.223541 -0.0379985 0.983391 0.17748 
-0.0394645 0.992663 0.114291 -0.0531101 0.998458 0.0161704 -0.05258 0.995067 -0.0841192 
-0.0032349 0.983746 -0.179537 -0.046915 0.975109 -0.216706 -0.106846 0.964071 -0.24321 
-0.219402 0.923703 -0.314062 -0.330213 0.889969 -0.314506 0.622881 0.753078 0.211877 
0.690195 0.695105 0.201147 -0.382964 0.851919 -0.357173 -0.362044 0.846199 -0.390987 
-0.481881 0.753074 -0.447962 0.854378 0.496045 0.154845 -0.643047 0.562332 -0.519877 
-0.540026 0.502944 -0.674847 -0.658484 0.532995 -0.531333 0.969736 0.239065 0.0495957 
0.98092 0.189002 0.0455374 -0.77406 0.282305 -0.566688 -0.645977 0.235622 -0.726082 
0.999555 -0.00734053 0.0289108 0.981832 -0.187538 -0.0288959 0.947159 -0.0412849 -0.318096 
-0.762285 0.0234574 -0.646817 -0.652803 -0.0336663 -0.756779 0.966217 -0.252437 -0.051956 
-0.696894 -0.243845 -0.674446 -0.57749 -0.246839 -0.778187 0.881639 -0.465593 -0.0770396 
0.72964 -0.677632 -0.0918742 -0.487863 -0.593811 -0.639827 -0.429903 -0.426556 -0.79576 
-0.605416 -0.442988 -0.661236 -0.604675 -0.444524 -0.660883 -0.603742 -0.442058 -0.663386 
0.691012 -0.716984 -0.0918475 0.505754 -0.857921 -0.0904678 -0.213794 -0.952142 -0.218443 
-0.114095 -0.946865 -0.300713 0.0531748 -0.941211 -0.333607 0.0897974 -0.925634 -0.367611 
0.0591088 -0.891534 -0.449081 -0.0435486 -0.8539 -0.518612 -0.158948 -0.580631 -0.7985 
-0.184912 -0.773908 -0.605701 -0.184405 -0.577446 -0.795331 -0.485255 -0.596334 -0.639464 
-0.284173 -0.742128 -0.607035 -0.276977 -0.569764 -0.773726 0.294185 -0.953837 -0.0604198 
0.282421 -0.957467 -0.0591137 0.285888 -0.952776 -0.1024 0.119123 -0.986155 -0.115357 
-0.0241988 -0.98938 -0.14332 -0.213337 -0.952318 -0.218125 -0.133509 -0.975821 -0.173058 
-0.164292 -0.924932 -0.342797 0.0476574 0.991875 -0.117954 0.466391 0.867768 -0.171631 
0.0820329 0.990297 -0.112167 0.224365 0.969225 -0.101304 -0.00343144 0.993378 -0.114837 
0.0447344 0.987232 -0.15288 -0.057099 0.992026 -0.112353 -0.0473579 0.990989 -0.125293 
-0.0754585 0.992558 -0.0955763 -0.158078 0.977469 -0.139879 -0.141733 0.961966 -0.233522 
-0.0447712 0.945681 -0.321999 -0.0576522 0.938332 -0.340896 -0.177284 0.910332 -0.373986 
-0.272725 0.837187 -0.474066 0.669326 0.707913 -0.225525 0.735595 0.632362 -0.242936 
0.512667 0.647419 -0.563934 -0.0990332 0.778726 -0.619498 -0.222523 0.788357 -0.573564 
-0.294969 0.824563 -0.482792 -0.280241 0.82307 -0.493985 -0.42343 0.692391 -0.58421 
0.87856 0.392112 -0.272727 0.693764 0.285743 -0.661092 -0.532788 0.493081 -0.687756 
-0.450695 0.440065 -0.776671 -0.541931 0.452309 -0.708327 0.900289 0.174198 -0.398918 
0.66635 0.0584596 -0.743344 -0.420892 0.102278 -0.901326 -0.553373 0.179452 -0.813373 
-0.524734 0.144968 -0.838832 0.912885 -0.0494229 -0.405215 -0.369059 -0.168926 -0.913925 
-0.553833 -0.0746904 -0.829271 -0.490326 -0.0912818 -0.866746 0.840393 -0.272799 -0.468317 
0.680596 -0.221605 -0.698342 -0.301824 -0.357148 -0.883939 -0.334466 -0.332117 -0.881947 
-0.437035 -0.288617 -0.85188 -0.419363 -0.314585 -0.85157 -0.418267 -0.293817 -0.859491 
0.785485 -0.443706 -0.431438 0.728335 -0.529502 -0.43492 0.711404 -0.422379 -0.561693 
-0.0871901 -0.321635 -0.942841 -0.171798 -0.518637 -0.837556 -0.168079 -0.567485 -0.806046 
-0.228703 -0.51728 -0.824692 -0.210518 -0.512191 -0.832672 -0.227035 -0.461936 -0.857363 
-0.311252 -0.42851 -0.848234 -0.290089 -0.440611 -0.849535 -0.29365 -0.430623 -0.853425 
0.594692 -0.688654 -0.414846 0.510098 -0.7644 -0.394326 0.502943 -0.667639 -0.548914 
0.296205 -0.891193 -0.343567 -0.172317 -0.905703 -0.387311 -0.282945 -0.844732 -0.454279 
-0.259219 -0.637089 -0.725895 -0.150751 -0.8431 -0.516193 -0.152305 -0.765752 -0.624841 
0.0134391 -0.829655 -0.558115 -0.00884144 -0.73644 -0.676445 -0.0379578 -0.798247 -0.601133 
-0.0732036 -0.700414 -0.709973 -0.16184 -0.604757 -0.779793 -0.142681 -0.696106 -0.703619 
-0.168815 -0.661298 -0.73088 0.0761847 -0.925947 -0.369888 0.0611457 -0.926033 -0.372456 
0.0615889 -0.924277 -0.376722 -0.0666529 -0.936884 -0.343229 -0.0251694 -0.944742 -0.326846 
-0.0256832 -0.940251 -0.339512 0.251252 0.769902 -0.586621 0.0434393 0.823182 -0.566113 
-0.00656791 0.864601 -0.502415 -0.0219689 0.856051 -0.516424 -0.0460055 0.86617 -0.497627 
-0.179645 0.86841 -0.46216 -0.225946 0.848525 -0.478491 -0.125662 0.811853 -0.570179 
0.49022 0.630556 -0.601735 0.507623 0.606355 -0.612089 0.237251 0.545802 -0.803624 
0.0910031 0.589768 -0.802429 0.0140957 0.537929 -0.842872 -0.00881658 0.554644 -0.832041 
-0.0227981 0.552414 -0.833258 -0.120935 0.620106 -0.775141 -0.219389 0.763637 -0.607229 
-0.120462 0.799922 -0.587889 -0.127083 0.807725 -0.5757 -0.106727 0.746088 -0.657238 
-0.253495 0.609261 -0.75136 -0.3664 0.382901 -0.84802 0.635929 0.265206 -0.724748 
0.41884 0.204292 -0.884781 0.290945 0.174538 -0.940685 -0.0297451 0.127642 -0.991374 
0.00591322 0.117487 -0.993057 -0.00725498 0.115792 -0.993247 -0.106955 0.182828 -0.97731 
-0.163341 0.304138 -0.93852 -0.167284 0.325668 -0.930568 -0.268617 0.339529 -0.901424 
-0.372761 0.360323 -0.855112 -0.365216 0.354171 -0.860918 0.635136 0.0490618 -0.770841 
0.620555 -0.029921 -0.783592 0.402652 0.0507115 -0.913947 0.245083 0.0156751 -0.969375 
-0.0534097 -0.0833502 -0.995088 -0.0233468 -0.0516948 -0.99839 -0.0245954 -0.0497696 -0.998458 
-0.0442565 -0.157918 -0.98646 -0.0642588 -0.0393711 -0.997156 -0.139908 0.0561608 -0.988571 
-0.248406 0.0483486 -0.967449 -0.387345 0.0822286 -0.918261 -0.324378 0.0527466 -0.944456 
0.607262 -0.0749514 -0.790959 0.607029 -0.0918989 -0.789348 0.596629 -0.0755812 -0.79895 
0.352306 -0.0720551 -0.933107 0.168296 -0.0946617 -0.981181 0.0294221 -0.142172 -0.989405 
-0.0690971 -0.151124 -0.986097 -0.0325203 -0.177935 -0.983505 0.039831 -0.152422 -0.987513 
-0.113666 -0.127846 -0.985259 -0.0975367 -0.314027 -0.944391 0.058958 -0.236112 -0.969936 
-0.0829287 -0.14649 -0.98573 -0.268552 -0.174453 -0.947336 -0.339238 -0.17726 -0.923849 
-0.314251 -0.268462 -0.91059 -0.322921 -0.180169 -0.929119 0.587707 -0.200396 -0.783864 
0.398684 -0.196093 -0.895879 0.171429 -0.14928 -0.973821 0.0251516 -0.135871 -0.990407 
-0.0763033 -0.135731 -0.987803 -0.0533057 -0.143309 -0.988241 0.0154028 -0.23336 -0.972268 
-0.187156 -0.313318 -0.931023 -0.089553 -0.319017 -0.943509 -0.141257 -0.300141 -0.943378 
0.100969 -0.328676 -0.93903 -0.152719 -0.496327 -0.854597 -0.078432 -0.381614 -0.920988 
-0.291719 -0.375737 -0.879615 -0.260514 -0.443405 -0.857627 -0.274954 -0.395287 -0.876441 
0.464656 -0.379205 -0.800186 0.433251 -0.431065 -0.791502 0.414265 -0.368475 -0.832232 
0.238528 -0.29214 -0.926153 0.0489323 -0.243794 -0.968592 -0.0752991 -0.213729 -0.973987 
-0.129528 -0.227811 -0.965052 -0.216349 -0.527739 -0.821392 -0.133271 -0.357881 -0.924208 
-0.0911826 -0.327769 -0.940348 -0.165536 -0.546504 -0.820934 -0.173512 -0.474565 -0.862949 
-0.0600142 -0.361357 -0.930494 -0.0484833 -0.39841 -0.915925 -0.0410017 -0.392751 -0.918731 
-0.0399729 -0.389965 -0.919962 0.316444 -0.561021 -0.76493 0.300491 -0.569917 -0.764787 
0.298832 -0.556377 -0.775335 0.106495 -0.65279 -0.750016 0.0951376 -0.536484 -0.838531 
-0.0642593 -0.640506 -0.76526 -0.0653865 -0.493425 -0.867327 -0.215935 -0.561446 -0.798843 
-0.198824 -0.57812 -0.791357 -0.191462 -0.526759 -0.828171 0.0926654 0.27782 -0.956153 
-0.0694409 0.174238 -0.982252 0.175083 0.172097 -0.969396 0.0920991 0.170848 -0.980984 
-0.0604844 0.152903 -0.986389 -0.0721086 0.163169 -0.983959 0.137285 -0.051179 -0.989209 
0.0539847 -0.116934 -0.991671 0.0774674 -0.0845297 -0.993405 -0.0501762 -0.0756528 -0.995871 
-0.0494949 -0.0855393 -0.995105 -0.0379268 -0.0492478 -0.998066 
