# vtk DataFile Version 4.2
vtk output
ASCII
DATASET POLYDATA
POINTS 510 float
-15.2188 -31.2662 -19.7212 -8.06598 -31.2662 -22.1655 -0.913129 -31.2662 -23.1634 
6.23972 -31.2662 -22.6372 13.3926 -31.2662 -20.8918 -22.3717 -24.1133 -21.921 
-15.2188 -24.1133 -24.7453 -8.06598 -24.1133 -26.3815 -0.913129 -24.1133 -25.9556 
6.23972 -24.1133 -25.6924 13.3926 -24.1133 -24.7736 20.5454 -24.1133 -23.7338 
27.6983 -24.1133 -20.5032 -29.5245 -16.9605 -20.19 -22.3717 -16.9605 -24.2575 
-15.2188 -16.9605 -26.1662 -8.06598 -16.9605 -26.771 -0.913129 -16.9605 -26.4575 
6.23972 -16.9605 -25.6154 13.3926 -16.9605 -25.6585 20.5454 -16.9605 -25.6107 
27.6983 -16.9605 -24.0831 -29.5245 -9.80761 -21.7502 -22.3717 -9.80761 -24.9453 
-15.2188 -9.80761 -25.8761 -8.06598 -9.80761 -26.3079 -0.913129 -9.80761 -25.8657 
6.23972 -9.80761 -24.8901 13.3926 -9.80761 -25.2186 20.5454 -9.80761 -25.4755 
27.6983 -9.80761 -24.6428 34.8511 -9.80761 -21.4205 -29.5245 -2.65476 -22.266 
-22.3717 -2.65476 -24.6835 -15.2188 -2.65476 -25.3069 -8.06598 -2.65476 -25.4906 
-0.913129 -2.65476 -25.6339 6.23972 -2.65476 -24.6566 13.3926 -2.65476 -24.1306 
20.5454 -2.65476 -24.2145 27.6983 -2.65476 -23.5487 34.8511 -2.65476 -20.8768 
-29.5245 4.49809 -21.95 -22.3717 4.49809 -24.1096 -15.2188 4.49809 -24.7418 
-8.06598 4.49809 -24.3677 -0.913129 4.49809 -24.9193 6.23972 4.49809 -24.7302 
13.3926 4.49809 -22.9476 20.5454 4.49809 -22.2777 27.6983 4.49809 -21.4029 
-29.5245 11.6509 -19.8285 -22.3717 11.6509 -22.4083 -15.2188 11.6509 -23.3196 
-8.06598 11.6509 -23.2944 -0.913129 11.6509 -24.0524 6.23972 11.6509 -24.4503 
13.3926 11.6509 -22.5668 20.5454 11.6509 -20.8985 27.6983 11.6509 -19.7777 
-22.3717 18.8038 -19.633 -15.2188 18.8038 -21.2793 -8.06598 18.8038 -21.8367 
-0.913129 18.8038 -22.6393 6.23972 18.8038 -23.22 13.3926 18.8038 -22.0612 
20.5454 18.8038 -19.8969 -0.913129 25.9566 -19.8824 6.23972 25.9566 -20.3836 
13.3926 25.9566 -19.6297 -15.2188 -31.3524 -19.6193 -8.06598 -33.5023 -19.6193 
-0.913129 -34.5947 -19.6193 6.23972 -34.2202 -19.6193 13.3926 -32.5005 -19.6193 
-15.3932 -31.2662 -19.6193 -22.3717 -26.9001 -19.6193 -22.3717 -31.2662 -12.7199 
16.5528 -31.2662 -19.6193 20.5454 -29.4319 -19.6193 20.5454 -31.2662 -16.4307 
27.6983 -25.0195 -19.6193 -25.6503 -24.1133 -19.6193 -29.5245 -18.2134 -19.6193 
-29.5245 -24.1133 -15.3079 28.755 -24.1133 -19.6193 -30.2189 -16.9605 -19.6193 
34.5547 -16.9605 -19.6193 34.8511 -16.2179 -19.6193 34.8511 -16.9605 -19.2611 
-32.3614 -9.80761 -19.6193 -36.6774 -9.80761 -14.8791 37.0238 -9.80761 -19.6193 
-33.4059 -2.65476 -19.6193 -36.6774 -2.65476 -16.569 36.7074 -2.65476 -19.6193 
34.8511 3.83727 -19.6193 42.004 -2.65476 -13.8283 -33.0685 4.49809 -19.6193 
-36.6774 4.49809 -16.3964 34.3997 4.49809 -19.6193 34.8511 4.49809 -19.4747 
42.004 4.49809 -12.8279 -29.8494 11.6509 -19.6193 -36.6774 11.6509 -13.9529 
-29.5245 12.1181 -19.6193 28.1773 11.6509 -19.6193 27.6983 12.3889 -19.6193 
34.8511 11.6509 -16.9207 -22.4055 18.8038 -19.6193 -29.5245 18.8038 -16.164 
-22.3717 18.8345 -19.6193 -15.2188 22.7829 -19.6193 -8.06598 24.5923 -19.6193 
21.6709 18.8038 -19.6193 20.5454 19.6084 -19.6193 27.6983 18.8038 -17.9228 
34.8511 18.8038 -13.7769 -22.3717 25.9566 -16.0059 -15.2188 25.9566 -18.1346 
-3.1945 25.9566 -19.6193 -8.06598 25.9566 -19.0387 -0.913129 26.4532 -19.6193 
6.23972 27.2817 -19.6193 13.4262 25.9566 -19.6193 13.3926 25.9746 -19.6193 
20.5454 25.9566 -17.1611 27.6983 25.9566 -13.6645 -15.2188 33.1095 -12.9484 
-8.06598 33.1095 -14.4407 -0.913129 33.1095 -15.4403 6.23972 33.1095 -15.7268 
13.3926 33.1095 -14.3738 -22.3717 -31.3837 -12.4664 -15.2188 -34.2099 -12.4664 
-8.06598 -36.5074 -12.4664 -0.913129 -37.6111 -12.4664 6.23972 -37.4048 -12.4664 
13.3926 -35.8746 -12.4664 20.5454 -32.9666 -12.4664 -22.586 -31.2662 -12.4664 
-29.5245 -26.2216 -12.4664 23.436 -31.2662 -12.4664 27.6983 -28.4897 -12.4664 
-31.4866 -24.1133 -12.4664 32.7157 -24.1133 -12.4664 34.8511 -21.8648 -12.4664 
-36.0849 -16.9605 -12.4664 -36.6774 -15.2468 -12.4664 -36.6774 -16.9605 -11.1303 
38.628 -16.9605 -12.4664 -38.3539 -9.80761 -12.4664 41.6955 -9.80761 -12.4664 
42.004 -7.84144 -12.4664 42.004 -9.80761 -10.5577 -39.7406 -2.65476 -12.4664 
42.7998 -2.65476 -12.4664 -39.8431 4.49809 -12.4664 42.2424 4.49809 -12.4664 
42.004 5.4116 -12.4664 -37.9598 11.6509 -12.4664 -36.6774 14.3002 -12.4664 
39.9228 11.6509 -12.4664 42.004 11.6509 -7.39385 -33.9617 18.8038 -12.4664 
-36.6774 18.8038 -8.892 -29.5245 24.844 -12.4664 36.2545 18.8038 -12.4664 
34.8511 20.7364 -12.4664 -28.4205 25.9566 -12.4664 -29.5245 25.9566 -11.5008 
-22.3717 30.6239 -12.4664 20.5454 31.9918 -12.4664 29.4628 25.9566 -12.4664 
27.6983 27.3519 -12.4664 34.8511 25.9566 -5.90619 -16.603 33.1095 -12.4664 
-22.3717 33.1095 -9.56849 -15.2188 33.5796 -12.4664 -8.06598 35.0781 -12.4664 
-0.913129 36.1448 -12.4664 6.23972 36.3455 -12.4664 18.109 33.1095 -12.4664 
13.3926 34.9002 -12.4664 20.5454 33.1095 -10.872 -0.913129 40.2623 -5.66325 
6.23972 40.2623 -5.91783 -22.3717 -33.0156 -5.31357 -15.2188 -35.6798 -5.31357 
-8.06598 -37.4922 -5.31357 -0.913129 -38.3402 -5.31357 6.23972 -37.9487 -5.31357 
13.3926 -36.4415 -5.31357 20.5454 -33.6936 -5.31357 -26.0986 -31.2662 -5.31357 
-29.5245 -29.1578 -5.31357 24.6714 -31.2662 -5.31357 27.6983 -29.2545 -5.31357 
-34.5206 -24.1133 -5.31357 -36.6774 -20.9863 -5.31357 33.4877 -24.1133 -5.31357 
34.8511 -22.7071 -5.31357 -38.9698 -16.9605 -5.31357 39.3671 -16.9605 -5.31357 
42.004 -11.6277 -5.31357 -41.3017 -9.80761 -5.31357 42.8049 -9.80761 -5.31357 
42.004 -9.80761 -0.218667 -42.783 -2.65476 -5.31357 44.2525 -2.65476 -5.31357 
-43.1725 4.49809 -5.31357 -43.8302 4.49809 1.55808 44.151 4.49809 -5.31357 
-41.906 11.6509 -5.31357 42.6333 11.6509 -5.31357 42.004 13.5163 -5.31357 
42.004 11.6509 -0.622206 -38.8067 18.8038 -5.31357 -36.6774 22.52 -5.31357 
40.0463 18.8038 -5.31357 -34.3573 25.9566 -5.31357 -29.5245 31.0156 -5.31357 
27.6983 32.1386 -5.31357 35.1655 25.9566 -5.31357 34.8511 26.295 -5.31357 
-26.7897 33.1095 -5.31357 -22.3717 35.6221 -5.31357 -15.2188 38.1432 -5.31357 
-8.06598 39.3885 -5.31357 13.3926 39.0724 -5.31357 26.0753 33.1095 -5.31357 
20.5454 36.0948 -5.31357 27.6983 33.1095 0.814327 -2.09606 40.2623 -5.31357 
-8.06598 40.2623 0.123232 -0.913129 40.432 -5.31357 7.71522 40.2623 -5.31357 
6.23972 40.5552 -5.31357 13.3926 40.2623 1.72348 -22.3717 -34.1974 1.83928 
-15.2188 -36.6916 1.83928 -8.06598 -38.0573 1.83928 -0.913129 -38.3456 1.83928 
6.23972 -37.7226 1.83928 13.3926 -36.3812 1.83928 20.5454 -33.8576 1.83928 
-27.9248 -31.2662 1.83928 -29.5245 -30.2569 1.83928 24.8152 -31.2662 1.83928 
27.6983 -29.2367 1.83928 -36.2089 -24.1133 1.83928 -36.6774 -23.4569 1.83928 
32.9735 -24.1133 1.83928 34.8511 -21.8514 1.83928 -40.2873 -16.9605 1.83928 
38.3707 -16.9605 1.83928 -42.6626 -9.80761 1.83928 41.6719 -9.80761 1.83928 
42.004 -8.00061 1.83928 -43.7909 -2.65476 1.83928 -43.8302 1.67747 1.83928 
42.9655 -2.65476 1.83928 42.004 -2.65476 4.35822 -43.8559 4.49809 1.83928 
-43.8302 4.65629 1.83928 -43.8302 4.49809 1.9635 42.9837 4.49809 1.83928 
42.004 9.84111 1.83928 42.004 4.49809 4.36469 -42.6308 11.6509 1.83928 
41.6874 11.6509 1.83928 -39.9061 18.8038 1.83928 -36.6774 25.1114 1.83928 
39.5476 18.8038 1.83928 -36.1487 25.9566 1.83928 -29.5245 32.6258 1.83928 
35.5253 25.9566 1.83928 34.8511 26.7341 1.83928 34.8511 25.9566 4.2019 
-28.9092 33.1095 1.83928 -22.3717 36.9249 1.83928 -15.2188 39.3395 1.83928 
20.5454 37.2888 1.83928 27.8884 33.1095 1.83928 27.6983 33.2495 1.83928 
27.6983 33.1095 2.66715 -9.68393 40.2623 1.83928 -8.06598 40.5211 1.83928 
-8.06598 40.2623 3.79334 -0.913129 41.6488 1.83928 6.23972 41.7876 1.83928 
13.4404 40.2623 1.83928 13.3926 40.2808 1.83928 13.3926 40.2623 1.9665 
-22.3717 -33.7887 8.99213 -15.2188 -36.289 8.99213 -8.06598 -37.108 8.99213 
-0.913129 -36.8228 8.99213 6.23972 -36.1861 8.99213 13.3926 -35.3066 8.99213 
20.5454 -33.2363 8.99213 -27.5694 -31.2662 8.99213 -29.5245 -29.9927 8.99213 
-22.3717 -31.2662 14.0167 23.8805 -31.2662 8.99213 20.5454 -31.2662 13.9786 
27.6983 -28.5914 8.99213 -35.1146 -24.1133 8.99213 -36.6774 -21.9839 8.99213 
31.9266 -24.1133 8.99213 34.8511 -19.5361 8.99213 -39.5047 -16.9605 8.99213 
-36.6774 -16.9605 14.0394 36.3642 -16.9605 8.99213 34.8511 -16.9605 11.874 
-41.8369 -9.80761 8.99213 39.0671 -9.80761 8.99213 34.8511 -9.80761 15.5871 
-42.6693 -2.65476 8.99213 40.0163 -2.65476 8.99213 -42.2021 4.49809 8.99213 
39.9261 4.49809 8.99213 34.8511 4.49809 15.8901 -40.5203 11.6509 8.99213 
-36.6774 11.6509 14.4399 38.919 11.6509 8.99213 34.8511 11.6509 15.4539 
-37.7414 18.8038 8.99213 -36.6774 21.0623 8.99213 -36.6774 18.8038 10.5075 
37.0037 18.8038 8.99213 34.8511 23.2947 8.99213 34.8511 18.8038 12.542 
-33.9102 25.9566 8.99213 -29.5245 30.7018 8.99213 -29.5245 25.9566 14.0634 
33.3223 25.9566 8.99213 27.6983 31.775 8.99213 -26.5105 33.1095 8.99213 
-22.3717 35.4067 8.99213 -22.3717 33.1095 12.8997 -15.2188 38.0998 8.99213 
-8.06598 39.5266 8.99213 13.3926 39.1638 8.99213 25.7402 33.1095 8.99213 
20.5454 36.0578 8.99213 20.5454 33.1095 14.2788 -3.47844 40.2623 8.99213 
-0.913129 40.6556 8.99213 -0.913129 40.2623 9.8813 8.43149 40.2623 8.99213 
6.23972 40.7072 8.99213 6.23972 40.2623 9.93907 -15.2188 -32.3065 16.145 
-8.06598 -33.0871 16.145 -0.913129 -32.6819 16.145 6.23972 -32.2559 16.145 
13.3926 -31.9427 16.145 -29.5245 -24.5602 16.145 -18.4567 -31.2662 16.145 
-22.3717 -29.6698 16.145 -15.2188 -31.2662 17.199 -8.06598 -31.2662 18.0722 
-0.913129 -31.2662 17.7059 6.23972 -31.2662 17.3452 16.4859 -31.2662 16.145 
13.3926 -31.2662 17.0209 20.5454 -30.2206 16.145 27.6983 -25.1604 16.145 
-29.9575 -24.1133 16.145 -29.5245 -24.1133 16.4873 -22.3717 -24.1133 20.0581 
-15.2188 -24.1133 21.8078 -8.06598 -24.1133 22.896 20.5454 -24.1133 21.7212 
28.6342 -24.1133 16.145 27.6983 -24.1133 17.2028 -34.7516 -16.9605 16.145 
-36.6774 -12.066 16.145 -29.5245 -16.9605 19.5172 -22.3717 -16.9605 22.0233 
[...]
POINT_DATA 510
SCALARS ImageScalars float
LOOKUP_TABLE default
0 0 0 0 0 0 0 0 0 
0 0 0 0 0 0 0 0 0 
0 0 0 0 0 0 0 0 0 
0 0 0 0 0 0 0 0 0 
0 0 0 0 0 0 0 0 0 
0 0 0 0 0 0 0 0 0 
0 0 0 0 0 0 0 0 0 
0 0 0 0 0 0 0 0 0 
0 0 0 0 0 0 0 0 0 
0 0 0 0 0 0 0 0 0 
0 0 0 0 0 0 0 0 0 
0 0 0 0 0 0 0 0 0 
0 0 0 0 0 0 0 0 0 
0 0 0 0 0 0 0 0 0 
0 0 0 0 0 0 0 0 0 
0 0 0 0 0 0 0 0 0 
0 0 0 0 0 0 0 0 0 
0 0 0 0 0 0 0 0 0 
0 0 0 0 0 0 0 0 0 
0 0 0 0 0 0 0 0 0 
0 0 0 0 0 0 0 0 0 
0 0 0 0 0 0 0 0 0 
0 0 0 0 0 0 0 0 0 
0 0 0 0 0 0 0 0 0 
0 0 0 0 0 0 0 0 0 
0 0 0 0 0 0 0 0 0 
0 0 0 0 0 0 0 0 0 
0 0 0 0 0 0 0 0 0 
0 0 0 0 0 0 0 0 0 
0 0 0 0 0 0 0 0 0 
0 0 0 0 0 0 0 0 0 
0 0 0 0 0 0 0 0 0 
0 0 0 0 0 0 0 0 0 
0 0 0 0 0 0 0 0 0 
0 0 0 0 0 0 0 0 0 
0 0 0 0 0 0 0 0 0 
0 0 0 0 0 0 0 0 0 
0 0 0 0 0 0 0 0 0 
0 0 0 0 0 0 0 0 0 
0 0 0 0 0 0 0 0 0 
0 0 0 0 0 0 0 0 0 
0 0 0 0 0 0 0 0 0 
0 0 0 0 0 0 0 0 0 
0 0 0 0 0 0 0 0 0 
0 0 0 0 0 0 0 0 0 
0 0 0 0 0 0 0 0 0 
0 0 0 0 0 0 0 0 0 
0 0 0 0 0 0 0 0 0 
0 0 0 0 0 0 0 0 0 
0 0 0 0 0 0 0 0 0 
0 0 0 0 0 0 0 0 0 
0 0 0 0 0 0 0 0 0 
0 0 0 0 0 0 0 0 0 
0 0 0 0 0 0 0 0 0 
0 0 0 0 0 0 0 0 0 
0 0 0 0 0 0 0 0 0 
0 0 0 0 0 0 
NORMALS Normals float
0.342294 0.755074 0.559194 0.185216 0.68736 0.702304 0.0236842 0.605076 0.795815 
-0.131906 0.603223 0.786589 -0.257025 0.686562 0.680126 0.456804 0.469312 0.755696 
0.271218 0.359462 0.892876 0.0733476 0.246488 0.966366 -0.0435455 0.186031 0.981579 
-0.082357 0.166464 0.982602 -0.12536 0.275214 0.953175 -0.247576 0.43396 0.866248 
-0.512361 0.593661 0.620526 0.606194 0.279684 0.744517 0.36046 0.175101 0.916192 
0.169992 0.07028 0.982936 0.0191487 -0.00795383 0.999785 -0.0806452 -0.00551668 0.996728 
-0.0556523 -0.0554666 0.996908 -0.000227957 0.0304757 0.999536 -0.103437 0.108609 0.988689 
-0.36698 0.229249 0.901538 0.520247 0.12185 0.845279 0.259798 0.0269538 0.965287 
0.0905674 -0.0597968 0.994093 -0.000756896 -0.0893783 0.995997 -0.0993024 -0.0577793 0.993378 
-0.0448199 -0.0668856 0.996753 0.0407223 -0.105883 0.993544 -0.0408389 -0.092328 0.994891 
-0.245953 -0.0348909 0.968654 -0.578682 0.0736112 0.812225 0.458417 0.0113298 0.888665 
0.19068 -0.0561892 0.980043 0.0564349 -0.0782885 0.995332 0.0227736 -0.134847 0.990605 
-0.0578008 -0.0651942 0.996197 -0.105373 -0.0112789 0.994369 -0.0310566 -0.15634 0.987215 
-0.0379199 -0.226089 0.973368 -0.210703 -0.220214 0.952423 -0.474792 -0.120314 0.871835 
0.432435 -0.149169 0.88924 0.180643 -0.151342 0.971835 0.0178842 -0.135501 0.990616 
0.0122264 -0.152828 0.988177 0.0254794 -0.11075 0.993522 -0.135585 -0.014271 0.990663 
-0.170937 -0.107293 0.979423 -0.102341 -0.218736 0.970402 -0.177961 -0.25119 0.951438 
0.447655 -0.329371 0.831336 0.21968 -0.29428 0.930129 0.0581138 -0.234818 0.970301 
0.0504684 -0.173275 0.98358 0.0804858 -0.153771 0.984823 -0.0943532 -0.101676 0.990333 
-0.246755 -0.0602283 0.967204 -0.183813 -0.159402 0.96995 -0.238856 -0.213472 0.9473 
0.293739 -0.384639 0.875083 0.141462 -0.331211 0.932892 0.0903267 -0.274887 0.957224 
0.0940965 -0.274194 0.95706 -0.0375733 -0.259182 0.965097 -0.218952 -0.189564 0.957144 
-0.25951 -0.228008 0.938439 0.0834579 -0.426027 0.900853 -0.0164075 -0.450083 0.892836 
-0.188771 -0.427693 0.883994 0.342442 0.758727 0.554137 0.200068 0.800081 0.565546 
0.0458604 0.811261 0.582883 -0.127401 0.780621 0.611882 -0.263463 0.746452 0.611061 
0.345489 0.756556 0.555212 0.477266 0.605972 0.636408 0.43216 0.842326 0.322062 
-0.319079 0.735117 0.598156 -0.373185 0.702851 0.605585 -0.415557 0.813375 0.407103 
-0.524606 0.632395 0.569969 0.55829 0.501711 0.660756 0.620711 0.319749 0.715876 
0.668266 0.555669 0.494624 -0.549689 0.60957 0.571198 0.627933 0.287317 0.72329 
-0.674949 0.366957 0.640146 -0.679355 0.340695 0.649925 -0.691255 0.378099 0.615798 
0.620037 0.1476 0.770564 0.800066 0.202675 0.564638 -0.677553 0.114335 0.726532 
0.605787 0.0344929 0.794879 0.751621 0.0638554 0.656497 -0.55598 -0.0991776 0.825258 
-0.430023 -0.231089 0.872742 -0.893132 0.0213802 0.449287 0.569615 -0.142414 0.809479 
0.727533 -0.124954 0.674598 -0.408784 -0.243133 0.879649 -0.428183 -0.243039 0.870397 
-0.86451 -0.167092 0.474028 0.457955 -0.32913 0.825803 0.716585 -0.306344 0.626625 
0.449878 -0.335548 0.827657 -0.252272 -0.219818 0.942358 -0.249488 -0.224695 0.941949 
-0.491312 -0.318422 0.810691 0.294607 -0.384846 0.8747 0.499551 -0.430248 0.751888 
0.293919 -0.385028 0.874851 0.1583 -0.404066 0.900928 0.103376 -0.405538 0.908214 
-0.271109 -0.24479 0.930902 -0.265883 -0.251794 0.930541 -0.356088 -0.34387 0.868881 
-0.589881 -0.438209 0.678242 0.346625 -0.50267 0.791943 0.173236 -0.472927 0.863903 
0.0906924 -0.42911 0.898688 0.107602 -0.439138 0.891953 0.082379 -0.43772 0.895329 
-0.0209854 -0.481134 0.876396 -0.189371 -0.427756 0.883834 -0.188795 -0.428234 0.883726 
-0.334737 -0.464481 0.819883 -0.461907 -0.569603 0.679849 0.211935 -0.702017 0.679894 
0.135039 -0.665143 0.734404 0.0703467 -0.643815 0.761941 -0.0542462 -0.654677 0.75396 
-0.218188 -0.693966 0.686153 0.43049 0.846671 0.312773 0.32641 0.908279 0.261699 
0.221092 0.944766 0.24194 0.0574772 0.972722 0.224742 -0.110145 0.969475 0.21906 
-0.285754 0.931204 0.226283 -0.435394 0.872641 0.221201 0.435584 0.843374 0.314623 
0.652319 0.652953 0.384881 -0.491199 0.844004 0.215363 -0.585828 0.783851 0.20587 
0.705315 0.584346 0.401336 -0.681284 0.704327 0.199438 -0.733529 0.644654 0.215305 
0.814925 0.369443 0.446553 0.826125 0.332316 0.455064 0.831148 0.376326 0.409355 
-0.836303 0.487714 0.250464 0.846894 0.221747 0.483321 -0.917125 0.25928 0.302746 
-0.924885 0.200731 0.322946 -0.936344 0.27531 0.217864 0.857335 0.0905738 0.506728 
-0.925031 0.0374492 0.378041 0.83437 -0.0988602 0.542267 -0.874802 -0.163975 0.455888 
-0.86731 -0.184771 0.462204 0.756944 -0.297852 0.581653 0.723233 -0.351725 0.594327 
-0.771795 -0.324223 0.547003 -0.937398 -0.288099 0.195661 0.640039 -0.437315 0.631748 
0.765036 -0.443551 0.466886 0.551625 -0.52261 0.650068 -0.645929 -0.448841 0.617509 
-0.60649 -0.494323 0.622748 0.526691 -0.538177 0.657998 0.568727 -0.550744 0.610926 
0.370507 -0.645076 0.668283 -0.365915 -0.700756 0.612411 -0.505286 -0.589425 0.63029 
-0.476395 -0.610905 0.632331 -0.697725 -0.668546 0.257344 0.242566 -0.708483 0.662732 
0.386155 -0.755578 0.529137 0.213686 -0.718019 0.66241 0.14063 -0.736772 0.661355 
0.0699281 -0.753476 0.653746 -0.0690186 -0.766141 0.638956 -0.317304 -0.727415 0.608429 
-0.229479 -0.748992 0.621571 -0.38178 -0.758436 0.528222 0.0769591 -0.9398 0.332947 
-0.0859503 -0.935734 0.342073 0.390169 0.902648 0.181646 0.297649 0.940434 0.164286 
0.177328 0.978715 0.103304 0.0305997 0.99833 0.0489997 -0.128251 0.991535 0.0202327 
-0.276393 0.960514 0.0319442 -0.437081 0.897608 0.0571014 0.48143 0.856205 0.18745 
0.592983 0.778737 0.204789 -0.528064 0.847582 0.0524798 -0.601054 0.798014 0.0436711 
0.749593 0.614706 0.245453 0.820314 0.511021 0.256793 -0.699122 0.7149 0.0121116 
-0.727172 0.686448 0.00307399 0.880333 0.396376 0.260575 -0.851571 0.524036 -0.0145827 
-0.936385 0.350949 -0.00417774 0.92938 0.245825 0.275362 -0.953055 0.302786 -0.00258375 
-0.942412 0.290348 -0.166007 0.959252 0.121708 0.254995 -0.995804 0.0911304 0.00831022 
0.968001 -0.0528691 0.245315 0.99611 -0.0752066 -0.0459192 -0.992937 -0.110419 0.043392 
0.924608 -0.2663 0.272367 -0.960862 -0.26573 0.0783052 -0.945571 -0.311117 0.0954 
-0.963367 -0.236496 -0.126466 0.844436 -0.440583 0.304654 0.797013 -0.506488 0.328999 
-0.877819 -0.450502 0.162733 0.737918 -0.579893 0.345254 0.613929 -0.714351 0.335849 
-0.533239 -0.798908 0.278213 -0.709196 -0.667382 0.22725 -0.700489 -0.675819 0.229312 
0.526104 -0.780585 0.337495 0.397309 -0.855405 0.332307 0.236438 -0.915546 0.325379 
0.145748 -0.938415 0.313265 -0.273017 -0.91071 0.309949 -0.505176 -0.816753 0.27877 
-0.422565 -0.858363 0.29095 -0.565956 -0.824016 0.0262898 0.0882898 -0.944372 0.316808 
0.155877 -0.984634 0.0787359 0.0772179 -0.944698 0.318721 -0.124266 -0.940442 0.316427 
-0.0863521 -0.944045 0.318311 -0.29089 -0.956688 0.0115008 0.398867 0.915645 0.0499995 
0.258269 0.965233 0.0402764 0.111389 0.993483 -0.0241773 -0.0231278 0.994932 -0.0978533 
-0.133168 0.984286 -0.115962 -0.25047 0.965274 -0.0742397 -0.430026 0.902371 -0.028358 
0.532909 0.84501 0.0443323 0.5795 0.813909 0.0416204 -0.544784 0.838068 -0.029206 
-0.628783 0.776791 -0.0350231 0.785512 0.618147 0.0294245 0.803968 0.59387 0.0308748 
-0.736175 0.671517 -0.0843232 -0.773395 0.621688 -0.123955 0.915783 0.400671 0.0283604 
-0.849117 0.496106 -0.181323 0.971232 0.235411 0.0359287 -0.930405 0.28245 -0.233601 
-0.941452 0.233223 -0.243464 0.996781 0.0800574 -0.00430067 0.999227 -0.0146371 -0.036498 
-0.958511 0.0868721 -0.271497 -0.937317 0.0782995 -0.339569 0.995458 -0.0760168 -0.0573143 
0.995118 -0.0800353 -0.0577386 0.995074 -0.0769149 -0.0625477 -0.958815 -0.0884513 -0.269909 
-0.952718 -0.184983 -0.24106 -0.934113 -0.0849084 -0.346732 0.961355 -0.26354 -0.079646 
-0.948826 -0.215623 -0.230729 0.908961 -0.412654 -0.0592071 0.832579 -0.55343 -0.0229535 
-0.907322 -0.377791 -0.1845 0.815751 -0.578106 -0.0185736 0.635574 -0.771985 -0.00923211 
-0.782048 -0.615659 -0.0967752 -0.763648 -0.639304 -0.0901776 -0.780157 -0.598373 -0.182496 
0.613293 -0.789812 -0.0083106 0.394174 -0.918936 -0.013566 0.246194 -0.969219 -0.00143352 
-0.448205 -0.893927 -0.00271432 -0.572203 -0.819977 -0.0148644 -0.568177 -0.822785 -0.0140954 
-0.570882 -0.819703 -0.0466924 0.178297 -0.983953 0.00687278 0.158608 -0.987303 0.00875791 
0.159714 -0.984839 -0.0676962 0.0870876 -0.996113 0.0132191 -0.0899172 -0.99591 0.00882059 
-0.292063 -0.956375 0.00678178 -0.290994 -0.9567 0.00683558 -0.291128 -0.956683 0.00157701 
0.382103 0.894745 -0.231145 0.215721 0.945228 -0.244967 0.0339019 0.95609 -0.291106 
-0.0613631 0.93772 -0.34193 -0.0990411 0.937737 -0.332927 -0.185658 0.944001 -0.272753 
-0.394091 0.894323 -0.211846 0.521582 0.820157 -0.235148 0.58907 0.77089 -0.242333 
0.365185 0.776989 -0.512766 -0.502467 0.839805 -0.205558 -0.366518 0.830273 -0.419894 
-0.642398 0.738871 -0.203457 0.748517 0.602448 -0.277091 0.795888 0.537649 -0.27838 
-0.76293 0.602102 -0.235394 -0.825898 0.472072 -0.308286 0.878274 0.389072 -0.277952 
0.747443 0.360329 -0.558114 -0.845928 0.411339 -0.33942 -0.820633 0.379655 -0.42711 
0.934653 0.207474 -0.288754 -0.878553 0.216652 -0.425683 -0.764106 0.142727 -0.629103 
0.943634 0.0240942 -0.330111 -0.877424 0.0532705 -0.476748 0.913992 -0.128876 -0.384721 
-0.867588 -0.0699796 -0.492335 -0.740869 -0.0310289 -0.670932 0.869599 -0.268074 -0.414648 
0.726479 -0.267128 -0.633143 -0.872734 -0.171434 -0.457106 -0.766921 -0.124791 -0.629492 
0.82556 -0.370676 -0.4255 0.805784 -0.416601 -0.420899 0.791163 -0.362835 -0.492353 
-0.853924 -0.316536 -0.413061 -0.803011 -0.455787 -0.383968 -0.806501 -0.309313 -0.503866 
0.741898 -0.538097 -0.400049 0.629323 -0.681268 -0.373935 0.611161 -0.498158 -0.615078 
-0.754837 -0.550463 -0.356667 -0.585384 -0.74978 -0.308473 0.525244 -0.771806 -0.358377 
0.401611 -0.847474 -0.347127 0.410655 -0.750043 -0.518457 0.260767 -0.914282 -0.309983 
0.162958 -0.945692 -0.281268 -0.287127 -0.907793 -0.305729 -0.530756 -0.791973 -0.301788 
-0.434415 -0.851816 -0.292733 -0.401287 -0.755764 -0.517484 0.106956 -0.95395 -0.28025 
0.0777118 -0.95649 -0.281224 0.0754087 -0.94508 -0.318022 -0.151673 -0.94157 -0.300735 
-0.093469 -0.94965 -0.299044 -0.0958557 -0.935953 -0.338828 0.173369 0.741357 -0.648331 
0.0201424 0.76523 -0.643442 -0.0476996 0.775033 -0.630118 -0.0431219 0.798838 -0.599999 
-0.110124 0.833747 -0.541053 0.541187 0.515594 -0.664289 0.254152 0.721549 -0.644029 
0.354486 0.664506 -0.657854 0.172524 0.698979 -0.69402 0.0288711 0.695295 -0.718144 
-0.0368955 0.73087 -0.681519 -0.0337909 0.769512 -0.637737 -0.209268 0.820478 -0.531998 
-0.106872 0.81517 -0.569277 -0.354468 0.772818 -0.526408 -0.636997 0.572461 -0.51626 
0.552213 0.503803 -0.664261 0.538142 0.498208 -0.679847 0.313179 0.397509 -0.8625 
0.172203 0.378022 -0.90964 0.101148 0.406989 -0.907815 -0.350167 0.465558 -0.812797 
-0.665638 0.535406 -0.519872 -0.632987 0.531214 -0.563151 0.631703 0.328232 -0.702293 
0.690474 0.216014 -0.69035 0.419605 0.26947 -0.866786 0.272157 0.193632 -0.94257 
-0.74803 0.31138 -0.586083 -0.566138 0.236002 -0.789805 0.70531 0.159295 -0.69077 
0.675225 0.157399 -0.720622 0.366237 0.160344 -0.916602 0.219529 0.152793 -0.963567 
-0.745993 0.133652 -0.652405 -0.480724 0.0414978 -0.875889 -0.732308 0.0234477 -0.68057 
0.724145 -0.00834086 -0.689597 0.675034 -0.00667638 -0.737756 0.408214 0.0487996 -0.911581 
-0.461432 -0.00234438 -0.887173 -0.729745 0.0111673 -0.683628 -0.730719 0.003738 -0.682668 
-0.728533 0.0111062 -0.684921 0.711248 -0.142435 -0.688359 0.699246 -0.178167 -0.692324 
0.694033 -0.14239 -0.705722 0.459384 -0.0992989 -0.88267 -0.732843 -0.0300979 -0.679732 
-0.487809 -0.0136535 -0.872844 0.6615 -0.256465 -0.70473 0.501805 -0.227418 -0.834549 
-0.746331 -0.119504 -0.654759 -0.521744 -0.0799635 -0.849346 0.614375 -0.331093 -0.716185 
0.582685 -0.401592 -0.706543 0.560906 -0.318545 -0.764142 0.358725 -0.262085 -0.895895 
-0.717104 -0.283562 -0.636674 -0.53861 -0.253746 -0.803437 0.534941 -0.471108 -0.701353 
0.42017 -0.604063 -0.677174 0.408097 -0.441912 -0.798856 0.247285 -0.401041 -0.882052 
-0.0504145 -0.329658 -0.942753 -0.123377 -0.389874 -0.912566 -0.38304 -0.692261 -0.611601 
-0.318161 -0.467948 -0.824499 -0.60168 -0.50714 -0.617082 -0.578956 -0.535687 -0.614695 
-0.577308 -0.50585 -0.640962 0.308506 -0.703401 -0.640352 0.269921 -0.726102 -0.632391 
0.269824 -0.695544 -0.665893 0.163373 -0.772574 -0.613546 0.155582 -0.661725 -0.733426 
0.0493834 -0.77625 -0.628489 0.0300175 -0.605858 -0.795006 -0.108583 -0.752216 -0.649908 
-0.109446 -0.600575 -0.792042 -0.330584 -0.712183 -0.619282 -0.24891 -0.725111 -0.642073 
-0.237804 -0.668383 -0.704779 0.0393925 0.483128 -0.874663 0.0219113 0.49605 -0.868018 
-0.101491 0.46799 -0.877887 0.19405 0.21817 -0.956424 0.0527148 0.464715 -0.88389 
0.112744 0.365338 -0.924022 0.0406208 0.478611 -0.877087 0.0225425 0.482519 -0.875596 
-0.157413 0.440979 -0.883606 -0.101498 0.435837 -0.894284 -0.30283 0.25146 -0.919272 
0.221089 0.172358 -0.959902 0.201945 0.164644 -0.965459 0.158416 0.179033 -0.971005 
0.0672174 0.187971 -0.979872 -0.0346059 0.150707 -0.987973 -0.136107 0.120145 -0.983382 
-0.346532 0.169547 -0.922589 -0.283026 0.151084 -0.947138 0.213359 0.147043 -0.965845 
0.2195 0.144977 -0.964781 0.167586 0.110162 -0.979683 0.137181 0.0580859 -0.988841 
0.0228814 -0.00513556 -0.999725 -0.0544355 -0.0369491 -0.997833 -0.116971 -0.0347738 -0.992526 
-0.333233 0.020614 -0.942619 -0.243768 0.0122961 -0.969756 0.299784 0.0768171 -0.950909 
0.217218 0.0931602 -0.971667 0.112998 0.107093 -0.987807 0.044553 0.0338442 -0.998434 
-0.0275986 0.000192436 -0.999619 -0.0659319 0.0173608 -0.997673 -0.0906619 0.0133045 -0.995793 
-0.304995 0.00800147 -0.95232 -0.217316 0.0140591 -0.976 0.356148 -0.068911 -0.931885 
0.264692 -0.0434397 -0.963354 0.104743 -0.0137733 -0.994404 0.0314218 -0.0250454 -0.999192 
0.00627449 -0.0166217 -0.999842 -0.0412624 0.0356794 -0.998511 -0.119576 0.0505026 -0.99154 
-0.353913 0.0189847 -0.935085 -0.256784 0.0408897 -0.965603 0.322786 -0.178212 -0.929543 
0.313594 -0.188749 -0.930609 0.303921 -0.173632 -0.936741 0.12824 -0.130507 -0.983119 
0.0415493 -0.0946358 -0.994645 0.0331666 -0.101975 -0.994234 0.00167177 -0.0895432 -0.995982 
-0.0872556 -0.0761735 -0.993269 -0.389709 -0.0615675 -0.918878 -0.271032 -0.0519363 -0.961168 
0.243013 -0.232677 -0.941704 0.204305 -0.276677 -0.938994 0.182775 -0.2156 -0.959224 
0.0599934 -0.155172 -0.986064 0.0124267 -0.162682 -0.9866 -0.0462816 -0.314244 -0.948214 
-0.0160386 -0.196314 -0.98041 -0.106298 -0.325284 -0.939623 -0.0843424 -0.21672 -0.972583 
-0.290457 -0.236622 -0.927171 -0.263543 -0.27233 -0.925409 -0.253992 -0.233437 -0.938614 
0.0976182 -0.333558 -0.937662 0.0936256 -0.334927 -0.937581 0.0928544 -0.331614 -0.938835 
-0.0227191 -0.303994 -0.952403 -0.0159756 -0.302241 -0.953098 -0.0163955 -0.298405 -0.954298 

