# vtk DataFile Version 4.2
vtk output
ASCII
DATASET POLYDATA
POINTS 560 float
-23.6752 -27.2843 -20.7442 -23.6752 -19.6829 -20.9318 -31.2766 -34.8858 -15.7195 
-23.6752 -27.4425 -20.6815 -23.6752 -34.8858 -16.8954 -16.0737 -34.8858 -16.9407 
-8.47227 -34.8858 -17.1113 -0.870821 -34.8858 -16.9764 6.73063 -34.8858 -17.1145 
14.3321 -34.8858 -16.0086 21.9335 -34.8858 -14.7571 -46.4795 -27.2843 -13.155 
-38.8781 -27.2843 -18.7193 -24.2224 -27.2843 -20.6815 -31.2766 -27.2843 -19.726 
-23.3519 -27.2843 -20.6815 -16.0737 -27.2843 -19.0843 -8.47227 -27.2843 -18.5715 
-0.870821 -27.2843 -18.4792 6.73063 -27.2843 -18.4303 14.3321 -27.2843 -18.0704 
21.9335 -27.2843 -18.3362 29.535 -27.2843 -17.2316 37.1364 -27.2843 -15.1086 
-46.4795 -19.6829 -17.4712 -38.8781 -19.6829 -19.8188 -30.5009 -19.6829 -20.6815 
-31.2766 -19.6829 -20.6533 -22.3434 -19.6829 -20.6815 -23.6752 -18.2203 -20.6815 
-16.0737 -19.6829 -19.502 -8.47227 -19.6829 -18.2495 -0.870821 -19.6829 -17.416 
6.73063 -19.6829 -17.5148 14.3321 -19.6829 -17.97 21.9335 -19.6829 -18.8697 
29.535 -19.6829 -19.0005 37.1364 -19.6829 -17.6728 44.7379 -19.6829 -14.6499 
-54.081 -12.0814 -14.7909 -46.4795 -12.0814 -18.9678 -38.8781 -12.0814 -20.0615 
-31.2766 -12.0814 -20.1235 -23.6752 -12.0814 -19.6261 -16.0737 -12.0814 -18.4528 
-8.47227 -12.0814 -17.1251 -0.870821 -12.0814 -16.4743 6.73063 -12.0814 -15.591 
14.3321 -12.0814 -16.886 21.9335 -12.0814 -18.2234 29.535 -12.0814 -18.6413 
37.1364 -12.0814 -18.0015 44.7379 -12.0814 -15.8717 -54.081 -4.47995 -15.4798 
-46.4795 -4.47995 -19.1669 -38.8781 -4.47995 -19.6981 -31.2766 -4.47995 -19.2771 
-23.6752 -4.47995 -18.2198 -16.0737 -4.47995 -16.8811 -8.47227 -4.47995 -18.1009 
-0.870821 -4.47995 -17.5893 6.73063 -4.47995 -16.7218 14.3321 -4.47995 -16.136 
21.9335 -4.47995 -17.0333 29.535 -4.47995 -17.6937 37.1364 -4.47995 -17.5546 
44.7379 -4.47995 -16.4299 52.3394 -4.47995 -13.7514 -54.081 3.12151 -16.0646 
-46.4795 3.12151 -18.5624 -38.8781 3.12151 -19.0332 -31.2766 3.12151 -18.5843 
-23.6752 3.12151 -17.2735 -16.0737 3.12151 -16.4068 -8.47227 3.12151 -19.6282 
-0.870821 3.12151 -14.5903 6.73063 3.12151 -18.5659 14.3321 3.12151 -15.5718 
21.9335 3.12151 -15.1988 29.535 3.12151 -16.53 37.1364 3.12151 -16.5216 
44.7379 3.12151 -15.6985 52.3394 3.12151 -13.4535 -54.081 10.723 -14.73 
-46.4795 10.723 -17.2789 -38.8781 10.723 -18.1742 -31.2766 10.723 -18.1666 
-23.6752 10.723 -17.6863 -16.0737 10.723 -16.324 -8.47227 10.723 -15.9635 
-0.870821 10.723 -15.5382 6.73063 10.723 -18.0697 14.3321 10.723 -15.6396 
21.9335 10.723 -15.0572 29.535 10.723 -15.6918 37.1364 10.723 -15.9309 
44.7379 10.723 -14.3685 -46.4795 18.3244 -15.8795 -38.8781 18.3244 -17.8042 
-31.2766 18.3244 -17.7447 -23.6752 18.3244 -17.3824 -16.0737 18.3244 -16.8844 
-8.47227 18.3244 -15.6115 -0.870821 18.3244 -15.3414 6.73063 18.3244 -15.4566 
14.3321 18.3244 -15.122 21.9335 18.3244 -15.1855 29.535 18.3244 -15.163 
37.1364 18.3244 -14.0271 -38.8781 25.9259 -14.8601 -31.2766 25.9259 -16.967 
-23.6752 25.9259 -16.6793 -16.0737 25.9259 -16.5611 -8.47227 25.9259 -15.5757 
-0.870821 25.9259 -14.7131 6.73063 25.9259 -13.7891 14.3321 25.9259 -13.4991 
21.9335 25.9259 -13.5933 -31.2766 33.5273 -13.3274 -23.6752 33.5273 -13.8416 
-16.0737 33.5273 -13.8561 -31.2766 -37.1626 -13.0801 -23.6752 -38.7662 -13.0801 
-16.0737 -39.478 -13.0801 -8.47227 -40.0815 -13.0801 -8.47227 -42.4872 -5.99794 
-0.870821 -40.1866 -13.0801 -0.870821 -42.4872 -6.21822 6.73063 -39.7952 -13.0801 
14.3321 -38.1417 -13.0801 21.9335 -36.4433 -13.0801 -46.4795 -27.3744 -13.0801 
-36.5613 -34.8858 -13.0801 -38.8781 -33.7657 -13.0801 -38.8781 -34.8858 -10.2049 
27.6355 -34.8858 -13.0801 29.535 -34.1772 -13.0801 29.535 -34.8858 -12.1641 
37.1364 -30.1234 -13.0801 37.1364 -34.8858 -5.54839 -46.5627 -27.2843 -13.0801 
40.9164 -27.2843 -13.0801 44.7379 -23.0408 -13.0801 44.7379 -27.2843 -9.70929 
-52.1344 -19.6829 -13.0801 -54.081 -15.2396 -13.0801 -54.081 -19.6829 -8.20365 
48.2547 -19.6829 -13.0801 52.3394 -19.6829 -9.56605 -55.5811 -12.0814 -13.0801 
50.9855 -12.0814 -13.0801 52.3394 -8.34548 -13.0801 52.3394 -12.0814 -12.3354 
59.9408 -12.0814 -5.63938 -57.4548 -4.47995 -13.0801 53.6653 -4.47995 -13.0801 
59.9408 -4.47995 -8.56757 -57.5201 3.12151 -13.0801 -61.6825 3.12151 -5.82313 
53.1931 3.12151 -13.0801 52.3394 5.0841 -13.0801 59.9408 3.12151 -8.89084 
-55.9268 10.723 -13.0801 -54.081 13.7102 -13.0801 49.0459 10.723 -13.0801 
44.7379 16.9583 -13.0801 52.3394 10.723 -12.0596 59.9408 10.723 -7.91275 
-51.1849 18.3244 -13.0801 -54.081 18.3244 -10.0322 -46.4795 23.8441 -13.0801 
29.535 25.2298 -13.0801 42.9736 18.3244 -13.0801 37.1364 21.5286 -13.0801 
44.7379 18.3244 -12.7554 52.3394 18.3244 -10.4125 -43.3973 25.9259 -13.0801 
-46.4795 25.9259 -11.2703 -38.8781 29.1165 -13.0801 -8.47227 33.2215 -13.0801 
-0.870821 30.4255 -13.0801 6.73063 27.8568 -13.0801 14.3321 27.1607 -13.0801 
27.2341 25.9259 -13.0801 21.9335 27.1462 -13.0801 29.535 25.9259 -12.8309 
37.1364 25.9259 -11.6664 44.7379 25.9259 -9.8421 -31.9814 33.5273 -13.0801 
-38.8781 33.5273 -9.08133 -31.2766 33.8307 -13.0801 -23.6752 34.5882 -13.0801 
-9.59575 33.5273 -13.0801 -16.0737 34.5256 -13.0801 -8.47227 33.5273 -12.9368 
-0.870821 33.5273 -11.6466 6.73063 33.5273 -10.6282 14.3321 33.5273 -10.3652 
21.9335 33.5273 -9.59524 29.535 33.5273 -7.91127 37.1364 33.5273 -5.58491 
-8.47227 -42.6203 -5.47863 -0.870821 -42.6471 -5.47863 -38.8781 -36.5825 -5.47863 
-31.2766 -39.4426 -5.47863 -23.6752 -41.1007 -5.47863 -11.1972 -42.4872 -5.47863 
-16.0737 -42.2458 -5.47863 -8.47227 -42.4872 -5.07316 0.48131 -42.4872 -5.47863 
-0.870821 -42.4872 -4.99032 6.73063 -41.7455 -5.47863 14.3321 -40.5291 -5.47863 
21.9335 -39.4324 -5.47863 29.535 -37.9785 -5.47863 37.1364 -34.9167 -5.47863 
-41.4015 -34.8858 -5.47863 -46.4795 -30.6233 -5.47863 -38.8781 -34.8858 0.401052 
37.1991 -34.8858 -5.47863 37.1364 -34.8858 -2.35745 44.7379 -30.3573 -5.47863 
-49.2753 -27.2843 -5.47863 -54.081 -21.028 -5.47863 48.5711 -27.2843 -5.47863 
52.3394 -23.2116 -5.47863 -54.9838 -19.6829 -5.47863 -54.081 -19.6829 -1.93306 
55.3018 -19.6829 -5.47863 59.9408 -12.3232 -5.47863 -59.0148 -12.0814 -5.47863 
60.0563 -12.0814 -5.47863 -60.964 -4.47995 -5.47863 -61.6825 2.0176 -5.47863 
62.4122 -4.47995 -5.47863 -61.8028 3.12151 -5.47863 -61.6825 4.71278 -5.47863 
-61.6825 3.12151 -4.28303 62.7904 3.12151 -5.47863 -61.1509 10.723 -5.47863 
62.0908 10.723 -5.47863 59.9408 16.1988 -5.47863 -57.2751 18.3244 -5.47863 
-54.081 23.1998 -5.47863 58.4111 18.3244 -5.47863 52.3394 23.9611 -5.47863 
59.9408 18.3244 -2.69693 -51.8101 25.9259 -5.47863 -46.4795 31.0404 -5.47863 
49.9349 25.9259 -5.47863 44.7379 29.1264 -5.47863 52.3394 25.9259 -1.09759 
-42.9824 33.5273 -5.47863 -38.8781 35.8465 -5.47863 -31.2766 38.4712 -5.47863 
-23.6752 39.8684 -5.47863 -16.0737 40.5923 -5.47863 -8.47227 39.9735 -5.47863 
-0.870821 39.4947 -5.47863 6.73063 39.1493 -5.47863 14.3321 38.4657 -5.47863 
21.9335 37.7954 -5.47863 29.535 35.6889 -5.47863 37.2933 33.5273 -5.47863 
37.1364 33.5985 -5.47863 -0.870821 41.1288 -0.270511 6.73063 41.1288 -0.810535 
14.3321 41.1288 0.72688 -31.2766 -37.6667 2.12282 -23.6752 -39.2053 2.12282 
-16.0737 -39.7441 2.12282 -8.47227 -39.8064 2.12282 -0.870821 -39.8636 2.12282 
6.73063 -39.3512 2.12282 14.3321 -38.5972 2.12282 21.9335 -38.2153 2.12282 
29.535 -37.4537 2.12282 -46.4795 -28.0731 2.12282 -37.8317 -34.8858 2.12282 
-38.8781 -34.3754 2.12282 -31.2766 -34.8858 7.21034 -23.6752 -34.8858 9.51244 
-16.0737 -34.8858 8.95304 -8.47227 -34.8858 8.55529 -0.870821 -34.8858 8.92473 
6.73063 -34.8858 9.07526 14.3321 -34.8858 8.65096 21.9335 -34.8858 8.18938 
37.0218 -34.8858 2.12282 29.535 -34.8858 7.20432 37.1364 -34.8416 2.12282 
44.7379 -31.004 2.12282 -47.1723 -27.2843 2.12282 -46.4795 -27.2843 3.10045 
49.79 -27.2843 2.12282 44.7379 -27.2843 9.72226 52.3394 -25.0028 2.12282 
-52.9208 -19.6829 2.12282 -54.081 -17.5619 2.12282 57.1552 -19.6829 2.12282 
59.9408 -15.6046 2.12282 -57.0699 -12.0814 2.12282 -54.081 -12.0814 6.36186 
61.9227 -12.0814 2.12282 59.9408 -12.0814 6.91344 -59.5827 -4.47995 2.12282 
65.2495 -4.47995 2.12282 -61.0206 3.12151 2.12282 65.8031 3.12151 2.12282 
-60.1897 10.723 2.12282 64.4049 10.723 2.12282 -57.2413 18.3244 2.12282 
-54.081 23.1275 2.12282 -54.081 18.3244 8.49795 61.3256 18.3244 2.12282 
59.9408 19.9952 2.12282 59.9408 18.3244 5.93773 -51.7649 25.9259 2.12282 
-46.4795 30.8264 2.12282 44.7379 31.5305 2.12282 53.418 25.9259 2.12282 
52.3394 26.8313 2.12282 52.3394 25.9259 4.58035 -42.3261 33.5273 2.12282 
-38.8781 35.546 2.12282 -38.8781 33.5273 6.54881 -31.2766 38.1626 2.12282 
-23.6752 39.6281 2.12282 -16.0737 40.6242 2.12282 -8.47227 41.0163 2.12282 
21.9335 40.1957 2.12282 29.535 37.8909 2.12282 40.4846 33.5273 2.12282 
37.1364 35.0059 2.12282 37.1364 33.5273 6.86679 -7.31826 41.1288 2.12282 
-0.870821 41.7549 2.12282 -0.870821 41.1288 6.18422 6.73063 42.0816 2.12282 
6.73063 41.1288 7.76068 16.8787 41.1288 2.12282 14.3321 41.5866 2.12282 
14.3321 41.1288 4.09084 -38.8781 -29.0713 9.72427 -31.2766 -33.0043 9.72427 
-23.6752 -34.7015 9.72427 -16.0737 -34.0655 9.72427 -8.47227 -33.5309 9.72427 
-0.870821 -33.9611 9.72427 6.73063 -34.2456 9.72427 14.3321 -33.9794 9.72427 
21.9335 -33.5842 9.72427 29.535 -32.9516 9.72427 37.1364 -30.3118 9.72427 
-40.861 -27.2843 9.72427 -46.4795 -21.0317 9.72427 -38.8781 -27.2843 11.2102 
-31.2766 -27.2843 14.1422 -23.6752 -27.2843 15.2844 -16.0737 -27.2843 14.6116 
-8.47227 -27.2843 13.5218 -0.870821 -27.2843 13.9175 6.73063 -27.2843 14.4363 
14.3321 -27.2843 14.0321 21.9335 -27.2843 14.2728 29.535 -27.2843 13.761 
44.735 -27.2843 9.72427 37.1364 -27.2843 12.514 44.7379 -27.2826 9.72427 
52.3394 -20.638 9.72427 -47.4689 -19.6829 9.72427 -46.4795 -19.6829 10.5715 
-38.8781 -19.6829 14.517 -31.2766 -19.6829 16.606 -16.0737 -19.6829 17.0718 
-8.47227 -19.6829 15.5313 -0.870821 -19.6829 15.9526 6.73063 -19.6829 15.905 
14.3321 -19.6829 15.4949 21.9335 -19.6829 16.0679 29.535 -19.6829 15.6356 
[...]
POINT_DATA 560
SCALARS ImageScalars float
LOOKUP_TABLE default
0 0 0 0 0 0 0 0 0 
0 0 0 0 0 0 0 0 0 
0 0 0 0 0 0 0 0 0 
0 0 0 0 0 0 0 0 0 
0 0 0 0 0 0 0 0 0 
0 0 0 0 0 0 0 0 0 
0 0 0 0 0 0 0 0 0 
0 0 0 0 0 0 0 0 0 
0 0 0 0 0 0 0 0 0 
0 0 0 0 0 0 0 0 0 
0 0 0 0 0 0 0 0 0 
0 0 0 0 0 0 0 0 0 
0 0 0 0 0 0 0 0 0 
0 0 0 0 0 0 0 0 0 
0 0 0 0 0 0 0 0 0 
0 0 0 0 0 0 0 0 0 
0 0 0 0 0 0 0 0 0 
0 0 0 0 0 0 0 0 0 
0 0 0 0 0 0 0 0 0 
0 0 0 0 0 0 0 0 0 
0 0 0 0 0 0 0 0 0 
0 0 0 0 0 0 0 0 0 
0 0 0 0 0 0 0 0 0 
0 0 0 0 0 0 0 0 0 
0 0 0 0 0 0 0 0 0 
0 0 0 0 0 0 0 0 0 
0 0 0 0 0 0 0 0 0 
0 0 0 0 0 0 0 0 0 
0 0 0 0 0 0 0 0 0 
0 0 0 0 0 0 0 0 0 
0 0 0 0 0 0 0 0 0 
0 0 0 0 0 0 0 0 0 
0 0 0 0 0 0 0 0 0 
0 0 0 0 0 0 0 0 0 
0 0 0 0 0 0 0 0 0 
0 0 0 0 0 0 0 0 0 
0 0 0 0 0 0 0 0 0 
0 0 0 0 0 0 0 0 0 
0 0 0 0 0 0 0 0 0 
0 0 0 0 0 0 0 0 0 
0 0 0 0 0 0 0 0 0 
0 0 0 0 0 0 0 0 0 
0 0 0 0 0 0 0 0 0 
0 0 0 0 0 0 0 0 0 
0 0 0 0 0 0 0 0 0 
0 0 0 0 0 0 0 0 0 
0 0 0 0 0 0 0 0 0 
0 0 0 0 0 0 0 0 0 
0 0 0 0 0 0 0 0 0 
0 0 0 0 0 0 0 0 0 
0 0 0 0 0 0 0 0 0 
0 0 0 0 0 0 0 0 0 
0 0 0 0 0 0 0 0 0 
0 0 0 0 0 0 0 0 0 
0 0 0 0 0 0 0 0 0 
0 0 0 0 0 0 0 0 0 
0 0 0 0 0 0 0 0 0 
0 0 0 0 0 0 0 0 0 
0 0 0 0 0 0 0 0 0 
0 0 0 0 0 0 0 0 0 
0 0 0 0 0 0 0 0 0 
0 0 0 0 0 0 0 0 0 
0 0 
NORMALS Normals float
-0.0426785 0.224271 0.973592 -0.0750948 -0.071311 0.994623 0.254786 0.694171 0.673209 
-0.0415988 0.23077 0.972119 0.0617289 0.618317 0.783501 0.0145235 0.493327 0.869723 
0.00271621 0.426023 0.904708 0.000145797 0.418942 0.908013 -0.0638269 0.43593 0.897715 
-0.146696 0.54028 0.8286 -0.205542 0.671507 0.71192 0.644747 0.57341 0.505472 
0.32619 0.376138 0.867249 -0.0316897 0.226033 0.973604 0.122208 0.261338 0.95748 
-0.0468052 0.221756 0.973978 -0.133582 0.157639 0.97842 -0.0396873 0.0732991 0.99652 
-0.00924664 0.017015 0.999812 -0.0269471 0.026031 0.999298 -0.00690304 0.11351 0.993513 
-0.0554354 0.21865 0.974227 -0.193855 0.349918 0.916503 -0.356576 0.449308 0.819131 
0.452845 0.300425 0.83945 0.19819 0.0764641 0.977176 0.0607221 0.0125705 0.998076 
0.0758771 0.0223708 0.996866 -0.0913322 -0.0677104 0.993516 -0.0814559 -0.0918292 0.992438 
-0.169883 -0.0408272 0.984618 -0.138596 -0.095899 0.985695 -0.0461828 -0.132073 0.990164 
0.0367724 -0.187918 0.981496 0.0868448 -0.0769213 0.993248 0.067396 -0.00923856 0.997684 
-0.0729396 0.0918539 0.993098 -0.265206 0.17005 0.949078 -0.396176 0.272293 0.87687 
0.687233 0.239741 0.685737 0.265906 0.119495 0.956564 0.0665132 -0.00687393 0.997762 
-0.0283013 -0.0900607 0.995534 -0.108105 -0.171976 0.979151 -0.161435 -0.169014 0.972303 
-0.130336 -0.0181554 0.991304 -0.102053 0.00420858 0.99477 0.0267578 -0.0532925 0.99822 
0.173716 -0.120063 0.97745 0.113704 -0.118819 0.986384 -0.0138291 -0.0845107 0.996327 
-0.174172 -0.00953841 0.984669 -0.332026 0.107086 0.937172 0.537559 0.0562702 0.841346 
0.278892 -0.0267619 0.95995 0.00360484 -0.0673745 0.997721 -0.0928674 -0.100484 0.990595 
-0.157441 -0.154458 0.975374 -0.018891 -0.133011 0.990935 0.0549055 0.173834 0.983243 
-0.0880185 -0.082436 0.992702 -0.0958087 0.193364 0.976438 0.0242749 -0.0795635 0.996534 
0.100664 -0.19057 0.976499 0.0339343 -0.141934 0.989294 -0.0763452 -0.0967569 0.992376 
-0.238944 -0.0123747 0.970954 -0.396493 0.0599418 0.916079 0.514831 -0.0281952 0.856828 
0.157746 -0.122565 0.979844 -0.00141934 -0.0995512 0.995031 -0.114284 -0.072363 0.990809 
-0.138805 -0.0318322 0.989808 0.147212 -0.0385031 0.988355 -0.0496722 -0.139916 0.988917 
-0.0925226 -0.139056 0.985953 0.0418308 0.0865092 0.995372 -0.216945 -0.0360891 0.975516 
0.0728606 -0.131625 0.988618 0.080654 -0.130013 0.988226 -0.0519912 -0.102659 0.993357 
-0.18498 -0.128177 0.974347 -0.355857 -0.106331 0.928472 0.526325 -0.283261 0.801714 
0.18408 -0.179966 0.966295 0.0532758 -0.0772338 0.995589 -0.0332458 -0.0566684 0.997839 
-0.117438 0.00712069 0.993055 -0.112362 0.0320834 0.993149 -0.0524348 -0.261632 0.963742 
0.138438 0.0347796 0.98976 0.0164377 -0.200091 0.979639 -0.202331 -0.0323733 0.978782 
0.00750255 -9.83097e-05 0.999972 0.0568237 -0.094526 0.993899 -0.0848705 -0.160449 0.983389 
-0.230452 -0.169981 0.958122 0.35167 -0.277944 0.89391 0.13671 -0.213212 0.967394 
-0.0277356 -0.0732513 0.996928 -0.0558923 -0.0643316 0.996362 -0.117826 0.0150319 0.992921 
-0.100752 -0.0229383 0.994647 -0.0104519 -0.0548345 0.998441 -0.0144178 -0.271804 0.962245 
-0.0169866 -0.132197 0.991078 0.00256089 -0.0977449 0.995208 -0.0702104 -0.17234 0.982532 
-0.145315 -0.241833 0.959375 0.274515 -0.398452 0.875144 0.109389 -0.276444 0.954784 
-0.0237666 -0.202085 0.979079 -0.0764985 -0.168492 0.98273 -0.117068 -0.157825 0.980503 
-0.11797 -0.212158 0.970089 -0.0795812 -0.277274 0.957489 -0.0124703 -0.267435 0.963495 
-0.0398722 -0.311346 0.94946 0.191786 -0.597635 0.778493 0.0349882 -0.525307 0.850193 
-0.0567562 -0.512328 0.856912 0.276955 0.810226 0.516556 0.133208 0.8224 0.553094 
0.0761889 0.791835 0.605964 0.0386723 0.795806 0.604316 0.0285524 0.999591 -0.00172531 
-0.0174822 0.800141 0.599557 -0.0560813 0.998394 -0.00796895 -0.117068 0.820258 0.559886 
-0.196745 0.769533 0.607544 -0.223718 0.760867 0.609124 0.645195 0.577065 0.500719 
0.390371 0.76868 0.506697 0.432627 0.743912 0.509342 0.464711 0.82449 0.322892 
-0.275677 0.721938 0.634671 -0.285823 0.696501 0.658173 -0.294269 0.756176 0.584469 
-0.410167 0.593124 0.692796 -0.423948 0.883154 0.200765 0.646828 0.575118 0.500851 
-0.476794 0.520355 0.708448 -0.476016 0.418682 0.773378 -0.5855 0.633822 0.505429 
0.749696 0.392832 0.532578 0.759328 0.342921 0.553015 0.848278 0.494507 0.189439 
-0.502038 0.342079 0.794317 -0.678648 0.463098 0.570068 0.752501 0.294689 0.588982 
-0.475931 0.147013 0.867108 -0.45171 0.109744 0.885389 -0.520527 0.178528 0.834973 
-0.820475 0.347216 0.454161 0.705941 0.0938706 0.702022 -0.439936 0.0749449 0.894896 
-0.734116 0.141289 0.664162 0.689921 -0.0705444 0.720439 0.988899 0.0137918 0.147945 
-0.384702 -0.104009 0.917162 -0.355943 -0.11249 0.927713 -0.698239 -0.0399556 0.714749 
0.623072 -0.285965 0.728015 0.597734 -0.328622 0.731247 -0.30312 -0.152121 0.940733 
-0.197142 -0.209277 0.957778 -0.373179 -0.14987 0.915574 -0.725342 -0.231329 0.648356 
0.546492 -0.357454 0.757346 0.724845 -0.435495 0.533801 0.422203 -0.478764 0.76976 
-0.111231 -0.374917 0.920361 -0.179352 -0.225693 0.957547 -0.137051 -0.306365 0.941997 
-0.197838 -0.22856 0.953216 -0.466155 -0.419347 0.779004 0.373866 -0.493149 0.785512 
0.495001 -0.592496 0.635549 0.317846 -0.513099 0.79731 -0.118664 -0.492698 0.862072 
-0.128233 -0.384447 0.914197 -0.0778919 -0.332237 0.939974 -0.0170494 -0.299632 0.953902 
-0.0918459 -0.370352 0.92434 -0.0524461 -0.347279 0.936294 -0.115294 -0.398635 0.909834 
-0.145044 -0.442771 0.884826 -0.403811 -0.582868 0.705125 0.208725 -0.606474 0.767218 
0.407481 -0.781957 0.471702 0.196252 -0.611961 0.766152 0.0381616 -0.579187 0.814301 
-0.109603 -0.508391 0.854123 -0.0553993 -0.559815 0.826763 -0.119047 -0.511075 0.851252 
-0.124413 -0.53711 0.834287 -0.0702428 -0.541474 0.837778 -0.0572469 -0.550484 0.832881 
-0.127234 -0.613674 0.77924 -0.193748 -0.726947 0.658794 -0.335593 -0.845754 0.414821 
0.0265863 0.999017 -0.0354731 -0.0586302 0.996689 -0.0563299 0.476169 0.878991 0.0252558 
0.263058 0.96457 0.0201119 0.177362 0.984023 0.0155695 0.0518563 0.998302 -0.026531 
0.0971611 0.995237 -0.00793804 0.0254887 0.998027 -0.0573842 -0.0728515 0.995769 -0.0560029 
-0.0575208 0.995026 -0.0813327 -0.136136 0.989648 -0.0454215 -0.149714 0.9887 0.0076289 
-0.168687 0.982096 0.0838562 -0.275791 0.948363 0.156673 -0.423472 0.884094 0.197611 
0.556314 0.83067 0.0224247 0.718279 0.695473 0.0198134 0.477035 0.834596 -0.275477 
-0.424808 0.883352 0.198061 -0.413177 0.910096 0.0317932 -0.583094 0.758981 0.28974 
0.766114 0.642547 0.0142013 0.838596 0.544135 0.0259442 -0.647887 0.690832 0.320925 
-0.715221 0.607 0.346424 0.854043 0.518785 0.0383673 0.833198 0.528171 -0.16376 
-0.749267 0.546435 0.374176 -0.822351 0.354289 0.445217 0.927366 0.370316 0.0534591 
-0.824527 0.34802 0.446136 0.983738 0.166101 0.0683399 0.992538 0.0380143 0.115861 
-0.823377 0.166754 0.542443 0.99193 0.0167833 0.125672 0.990551 -0.0401884 0.131128 
0.997942 0.0197498 0.0610063 -0.811107 -0.0242086 0.584396 0.951007 -0.264544 0.160004 
-0.815025 -0.221233 0.535528 -0.716183 -0.44224 0.539912 0.842899 -0.476518 0.249903 
0.76434 -0.601048 0.233507 -0.658753 -0.528947 0.535033 -0.56396 -0.65069 0.508481 
-0.756153 -0.564882 0.330365 0.705655 -0.669388 0.232315 0.607993 -0.762347 0.221747 
-0.548088 -0.683835 0.481631 -0.487682 -0.746609 0.452483 -0.621201 -0.762649 0.18021 
0.520794 -0.825882 0.216086 0.417739 -0.877375 0.236022 0.245683 -0.944303 0.218934 
0.132599 -0.971257 0.197678 0.00835677 -0.964277 0.264766 -0.0664884 -0.929607 0.362506 
-0.0478207 -0.871633 0.48782 -0.0556389 -0.819172 0.570842 -0.0735081 -0.819813 0.567894 
-0.160745 -0.825865 0.540471 -0.242472 -0.825872 0.509061 -0.339567 -0.847065 0.40887 
-0.336423 -0.848565 0.40836 0.0388606 -0.984002 0.173866 -0.0241038 -0.969528 0.243792 
-0.115238 -0.985354 0.125686 0.269188 0.897937 -0.348207 0.126847 0.928094 -0.350073 
0.0369959 0.897623 -0.439209 0.00722071 0.873603 -0.486585 -0.0284956 0.885277 -0.464191 
-0.0766843 0.904675 -0.419146 -0.0702049 0.927623 -0.36686 -0.0763512 0.946878 -0.312399 
-0.199471 0.948759 -0.245088 0.686379 0.631212 -0.361185 0.440047 0.823119 -0.358933 
0.47163 0.803941 -0.362276 0.269988 0.809857 -0.520805 0.0548448 0.72917 -0.682132 
-0.0381868 0.706166 -0.707016 -0.000983927 0.690514 -0.723318 0.0227205 0.694132 -0.719489 
-0.00861065 0.734056 -0.679034 -0.0331681 0.772513 -0.634132 -0.0532191 0.804585 -0.591448 
-0.37539 0.903527 -0.206692 -0.17863 0.827886 -0.531691 -0.378165 0.90252 -0.206031 
-0.543468 0.823191 -0.164313 0.70119 0.616184 -0.358678 0.684466 0.610847 -0.397959 
-0.640165 0.754274 -0.145803 -0.441576 0.647743 -0.620837 -0.686244 0.716478 -0.125412 
0.766541 0.505692 -0.395841 0.780657 0.480514 -0.399602 -0.77192 0.630091 -0.0844024 
-0.843849 0.530999 -0.0771894 0.831344 0.380361 -0.405207 0.733094 0.388929 -0.55795 
-0.887465 0.456931 -0.0601705 -0.791148 0.46876 -0.392873 0.898416 0.23696 -0.369728 
-0.972681 0.231183 -0.0211343 0.956856 0.0348497 -0.288465 -0.998539 -0.0495775 -0.0214913 
0.937118 -0.221815 -0.269459 -0.957247 -0.288332 -0.023291 0.871536 -0.445998 -0.203743 
0.777522 -0.598357 -0.193466 0.757022 -0.412877 -0.506409 -0.828184 -0.559667 -0.0297289 
-0.783495 -0.620569 -0.0320953 -0.778968 -0.551297 -0.298799 0.708038 -0.681485 -0.185094 
0.596867 -0.782993 -0.175132 -0.478743 -0.877084 -0.0390924 -0.631775 -0.77441 -0.0339045 
-0.613175 -0.789086 -0.0368724 -0.609688 -0.770183 -0.187346 0.496477 -0.845863 -0.195006 
0.419301 -0.883752 -0.207772 0.390648 -0.826852 -0.40461 0.242904 -0.946752 -0.211325 
0.154711 -0.971516 -0.179503 0.0904596 -0.984598 -0.149613 0.0739071 -0.996468 -0.0398594 
-0.244261 -0.969545 -0.0178722 -0.314962 -0.948604 -0.0308124 -0.42204 -0.904892 -0.0552577 
-0.380633 -0.923118 -0.0545084 -0.365357 -0.873109 -0.322791 0.0731991 -0.996992 -0.0254685 
0.0696262 -0.996238 0.0515898 0.0807286 -0.982684 -0.166779 -0.0103956 -0.997138 0.0748826 
-0.0411701 -0.960164 -0.276386 -0.163866 -0.986163 0.0250965 -0.121288 -0.991542 0.046193 
-0.137769 -0.987319 -0.0788734 0.46242 0.579086 -0.671437 0.253027 0.716386 -0.650206 
0.0519423 0.718901 -0.693169 -0.0473053 0.669444 -0.741355 -0.00536209 0.624308 -0.78116 
0.0283583 0.647698 -0.761369 -0.000525225 0.698427 -0.715682 -0.0272615 0.711355 -0.702304 
-0.0479586 0.718006 -0.694382 -0.151079 0.688849 -0.708987 -0.291349 0.681606 -0.671215 
0.504376 0.537121 -0.676096 0.589976 0.412663 -0.694001 0.457547 0.512335 -0.726749 
0.229091 0.453731 -0.861188 0.0288778 0.448418 -0.893357 -0.107796 0.453563 -0.884681 
-0.0365029 0.382313 -0.923312 0.0555637 0.386517 -0.920607 0.00460574 0.365298 -0.930879 
-0.0104578 0.354437 -0.935021 -0.0167597 0.381954 -0.924029 -0.0916963 0.410815 -0.907096 
-0.441467 0.647671 -0.620991 -0.236836 0.541614 -0.806575 -0.441512 0.647648 -0.620983 
-0.561583 0.56002 -0.609099 0.606788 0.385911 -0.694897 0.573969 0.380373 -0.725173 
0.373338 0.299241 -0.878108 0.176594 0.232657 -0.956392 -0.126143 0.197945 -0.972063 
-0.0698581 0.241661 -0.967843 0.0235388 0.240866 -0.970273 -0.0294757 0.162309 -0.9863 
0.0097543 0.0791654 -0.996814 0.00959107 0.105126 -0.994413 -0.0334658 0.215176 -0.976002 
-0.0666122 0.270074 -0.960533 -0.291994 0.382105 -0.876776 -0.570007 0.54993 -0.610467 
-0.53641 0.525869 -0.660095 0.619513 0.3295 -0.712484 0.668538 0.279325 -0.689228 
0.496931 0.271266 -0.824302 0.28048 0.197911 -0.939235 -0.185643 0.282127 -0.941245 
-0.0620462 0.0510708 -0.996766 0.124152 0.0245424 -0.99196 0.0713693 0.131272 -0.988774 
-0.051998 0.166911 -0.9846 -0.180067 0.218347 -0.959114 -0.656239 0.428273 -0.621234 
-0.45025 0.344029 -0.823966 -0.7027 0.379828 -0.601618 0.677693 0.259797 -0.687923 
0.660894 0.260169 -0.70394 0.431411 0.218169 -0.875378 -0.241841 0.192619 -0.951005 
0.0872573 0.118847 -0.989071 -0.357394 0.139968 -0.923406 -0.782953 0.228207 -0.578711 
-0.641897 0.228253 -0.732031 0.754203 0.0842878 -0.651209 0.647079 0.0954844 -0.75642 
0.406439 0.135153 -0.903627 -0.350542 0.046104 -0.935412 -0.821719 -0.0492493 -0.567761 
-0.651949 -0.0424868 -0.757071 0.772141 -0.173534 -0.611296 0.737058 -0.343421 -0.582072 
0.69751 -0.15769 -0.699009 -0.38193 -0.145389 -0.912684 -0.769669 -0.269801 -0.578634 
-0.721266 -0.387361 -0.574218 -0.701243 -0.261503 -0.66323 0.717032 -0.396148 -0.573525 
0.510993 -0.326456 -0.795181 -0.239481 -0.295389 -0.924875 -0.666038 -0.493016 -0.559758 
-0.546714 -0.646926 -0.531593 -0.476267 -0.476759 -0.738831 0.575494 -0.60181 -0.553743 
0.55877 -0.623118 -0.547266 0.5533 -0.588264 -0.58975 0.35919 -0.744566 -0.562675 
0.33871 -0.553835 -0.760619 -0.154265 -0.408219 -0.899755 -0.324846 -0.78562 -0.52657 
-0.224009 -0.496279 -0.838765 -0.493413 -0.702688 -0.512614 -0.423493 -0.742732 -0.518655 
-0.375359 -0.630795 -0.679119 0.293086 -0.779512 -0.55359 0.250204 -0.794846 -0.552826 
0.243201 -0.761874 -0.600334 0.179608 -0.81877 -0.545304 0.155933 -0.681426 -0.715083 
0.152976 -0.837175 -0.525106 0.158074 -0.620194 -0.768357 0.152212 -0.890125 -0.429546 
0.157019 -0.557262 -0.815355 0.0865196 -0.922314 -0.376632 -0.0534312 -0.910007 -0.411135 
-0.113604 -0.453509 -0.883982 -0.177947 -0.848344 -0.498645 -0.177116 -0.527497 -0.830889 
-0.248153 -0.804392 -0.539791 -0.220214 -0.606071 -0.764319 -0.308982 -0.782554 -0.540499 
-0.280923 -0.767178 -0.576646 -0.257699 -0.717992 -0.64659 0.0303795 0.212784 -0.976627 
0.0519071 0.202812 -0.977841 0.154422 0.191328 -0.969303 -0.0233085 0.197421 -0.980042 
0.0300601 0.196913 -0.97996 -0.114192 0.175201 -0.977888 -0.00850181 0.299013 -0.954211 
-0.00355385 0.144471 -0.989503 0.203978 0.171154 -0.963898 0.247788 0.184387 -0.951106 
0.134873 0.148422 -0.979684 -0.00345615 0.101923 -0.994786 -0.0800705 0.11971 -0.989575 
-0.00552552 0.301529 -0.953441 -0.151399 0.248334 -0.95677 -0.0110373 0.105598 -0.994348 
-0.181261 0.277676 -0.943419 0.0864781 0.119797 -0.989025 -0.0405538 0.161089 -0.986106 
-0.150019 0.18474 -0.97127 0.264568 0.183794 -0.946691 0.23307 0.18265 -0.955153 
0.0827265 0.158829 -0.983834 -0.00119449 0.112536 -0.993647 0.0719584 0.12078 -0.990068 
-0.0830185 0.233766 -0.968742 -0.0112321 0.0266258 -0.999582 -0.217323 0.181287 -0.959117 
-0.0434019 0.103645 -0.993667 -0.138787 0.176031 -0.974552 0.109418 0.102904 -0.988655 
0.0638025 0.144731 -0.987412 0.120083 0.0958711 -0.988124 0.0364743 0.126008 -0.991358 
-0.234919 0.148114 -0.960664 -0.138873 0.165371 -0.976405 0.377433 0.136269 -0.915956 
0.444835 -0.057057 -0.893793 0.214489 0.142362 -0.966296 0.0518995 0.127469 -0.990484 
-0.0424702 0.0965487 -0.994422 0.0496941 0.0272385 -0.998393 -0.0576195 -0.0310006 -0.997857 
-0.154578 0.268381 -0.95083 -0.0395531 -0.0129388 -0.999134 -0.0719312 0.154047 -0.985442 
0.0478648 0.161028 -0.985789 0.0745974 0.0998631 -0.992201 0.0125134 0.0497034 -0.998686 
-0.291958 0.0418589 -0.955515 -0.158388 0.0144637 -0.987271 0.44646 -0.0639831 -0.892513 
0.446577 -0.0661563 -0.892296 0.445911 -0.0638263 -0.892799 0.216833 -0.0304479 -0.975734 
0.0321786 -0.0253506 -0.999161 -0.100013 -0.0278065 -0.994598 -0.0586758 -0.056879 -0.996655 
0.122216 -0.120503 -0.985161 0.00125476 0.115922 -0.993257 -0.151842 0.0621784 -0.986447 
-0.0592482 0.0827759 -0.994805 0.0230904 0.0751232 -0.996907 0.0127614 0.0268792 -0.999557 
-0.0457471 -0.0724445 -0.996323 -0.333552 -0.145601 -0.93142 -0.188109 -0.227138 -0.955522 
-0.144762 -0.156071 -0.97708 0.402833 -0.285667 -0.869552 0.306332 -0.409499 -0.859343 
0.258265 -0.248625 -0.933533 0.0522601 -0.207939 -0.976745 -0.0767995 -0.177829 -0.98106 
-0.0349879 -0.0835622 -0.995888 0.115502 -0.0248865 -0.992995 0.0445819 -0.0863733 -0.995265 
-0.097511 -0.0367622 -0.994555 -0.0588369 -0.0381254 -0.997539 -0.0106993 -0.0864227 -0.996201 
-0.147828 -0.385779 -0.910671 -0.0771094 -0.137581 -0.987484 -0.187273 -0.257891 -0.947851 
-0.171111 -0.284167 -0.943382 -0.159283 -0.237444 -0.958253 0.152716 -0.469038 -0.869874 
0.126388 -0.470436 -0.873336 0.119176 -0.4524 -0.883816 0.0406869 -0.386886 -0.921229 
0.0298318 -0.359727 -0.932581 0.116242 -0.319462 -0.940442 0.100763 -0.244532 -0.964391 
0.140579 -0.420554 -0.89631 0.110079 -0.175417 -0.978321 -0.00272469 -0.209164 -0.977877 
-0.112528 -0.405147 -0.9073 -0.102563 -0.193176 -0.975789 -0.122771 -0.313418 -0.941646 
-0.102956 -0.226531 -0.968547 -0.12126 -0.366025 -0.922671 -0.074952 -0.313251 -0.946708 
-0.0655887 -0.294116 -0.953517 0.0445694 -0.477966 -0.877247 0.020376 -0.472061 -0.88133 
0.0394599 -0.478489 -0.877207 0.0391265 -0.47525 -0.878981 
