# vtk DataFile Version 4.2
vtk output
ASCII
DATASET POLYDATA
POINTS 544 float
-23.3681 -43.9464 -13.4306 -15.6117 -43.9464 -15.8509 -7.85523 -43.9464 -16.3079 
-0.0987893 -43.9464 -16.191 7.65765 -43.9464 -15.1161 15.4141 -43.9464 -12.7122 
-31.1245 -36.1899 -14.5528 -23.3681 -36.1899 -16.7982 -15.6117 -36.1899 -17.7555 
-7.85523 -36.1899 -18.6026 -0.0987893 -36.1899 -18.757 7.65765 -36.1899 -17.908 
15.4141 -36.1899 -16.4932 23.1705 -36.1899 -14.7631 -38.881 -28.4335 -13.2904 
-31.1245 -28.4335 -15.9275 -23.3681 -28.4335 -17.1948 -15.6117 -28.4335 -18.0401 
-7.85523 -28.4335 -18.596 -0.0987893 -28.4335 -18.8752 7.65765 -28.4335 -18.2873 
15.4141 -28.4335 -17.3772 23.1705 -28.4335 -16.0429 30.927 -28.4335 -14.0315 
-38.881 -20.6771 -14.3644 -31.1245 -20.6771 -16.1772 -23.3681 -20.6771 -17.0702 
-15.6117 -20.6771 -17.1419 -7.85523 -20.6771 -17.325 -0.0987893 -20.6771 -17.5729 
7.65765 -20.6771 -17.4533 15.4141 -20.6771 -16.5461 23.1705 -20.6771 -16.2222 
30.927 -20.6771 -16.3383 38.6834 -20.6771 -14.4713 -38.881 -12.9206 -13.2672 
-31.1245 -12.9206 -15.2662 -23.3681 -12.9206 -15.6503 -15.6117 -12.9206 -15.3412 
-7.85523 -12.9206 -15.586 -0.0987893 -12.9206 -16.3816 7.65765 -12.9206 -16.3372 
15.4141 -12.9206 -14.8942 23.1705 -12.9206 -15.4854 30.927 -12.9206 -16.3863 
38.6834 -12.9206 -16.6343 46.4398 -12.9206 -15.0271 -38.881 -5.1642 -12.6423 
-31.1245 -5.1642 -14.0864 -23.3681 -5.1642 -14.8096 -15.6117 -5.1642 -14.7735 
-7.85523 -5.1642 -18.4266 -0.0987893 -5.1642 -16.0514 7.65765 -5.1642 -17.7436 
15.4141 -5.1642 -14.5124 23.1705 -5.1642 -15.9977 30.927 -5.1642 -17.542 
38.6834 -5.1642 -17.4233 46.4398 -5.1642 -16.4461 54.1963 -5.1642 -12.7513 
-31.1245 2.59224 -13.4897 -23.3681 2.59224 -14.3405 -15.6117 2.59224 -15.6828 
-7.85523 2.59224 -17.4796 -0.0987893 2.59224 -13.8442 7.65765 2.59224 -19.0244 
15.4141 2.59224 -16.6796 23.1705 2.59224 -17.1621 30.927 2.59224 -18.1359 
38.6834 2.59224 -18.0982 46.4398 2.59224 -16.9181 54.1963 2.59224 -13.3373 
-31.1245 10.3487 -12.892 -23.3681 10.3487 -14.5644 -15.6117 10.3487 -15.7371 
-7.85523 10.3487 -16.0739 -0.0987893 10.3487 -18.1064 7.65765 10.3487 -18.8839 
15.4141 10.3487 -16.8951 23.1705 10.3487 -17.6428 30.927 10.3487 -18.3704 
38.6834 10.3487 -18.2104 46.4398 10.3487 -16.5181 54.1963 10.3487 -12.2083 
-31.1245 18.1051 -12.4306 -23.3681 18.1051 -14.559 -15.6117 18.1051 -15.5576 
-7.85523 18.1051 -15.4125 -0.0987893 18.1051 -15.4613 7.65765 18.1051 -16.5634 
15.4141 18.1051 -16.7498 23.1705 18.1051 -17.6684 30.927 18.1051 -17.9567 
38.6834 18.1051 -17.7415 46.4398 18.1051 -14.7497 -23.3681 25.8615 -14.2635 
-15.6117 25.8615 -15.5627 -7.85523 25.8615 -15.7361 -0.0987893 25.8615 -16.185 
7.65765 25.8615 -16.7704 15.4141 25.8615 -16.914 23.1705 25.8615 -17.0415 
30.927 25.8615 -16.3932 38.6834 25.8615 -14.6927 -23.3681 33.618 -13.1429 
-15.6117 33.618 -14.9187 -7.85523 33.618 -15.4919 -0.0987893 33.618 -15.9715 
7.65765 33.618 -16.3076 15.4141 33.618 -16.5054 23.1705 33.618 -15.6256 
30.927 33.618 -13.3584 -15.6117 41.3744 -12.7916 -7.85523 41.3744 -13.688 
-0.0987893 41.3744 -14.161 7.65765 41.3744 -14.1884 15.4141 41.3744 -13.8748 
-23.3681 -45.5969 -12.1184 -15.6117 -48.7138 -12.1184 -7.85523 -49.1155 -12.1184 
-0.0987893 -48.4693 -12.1184 7.65765 -47.2084 -12.1184 15.4141 -44.6131 -12.1184 
-26.219 -43.9464 -12.1184 -31.1245 -40.4812 -12.1184 -31.1245 -43.9464 -8.3966 
16.7879 -43.9464 -12.1184 23.1705 -40.3687 -12.1184 23.1705 -43.9464 -7.44391 
-35.6046 -36.1899 -12.1184 -38.881 -31.4755 -12.1184 -38.881 -36.1899 -9.43316 
28.9126 -36.1899 -12.1184 30.927 -33.5035 -12.1184 30.927 -36.1899 -10.6586 
-41.0866 -28.4335 -12.1184 -46.6374 -28.4335 -6.28435 37.537 -28.4335 -12.1184 
38.6834 -27.4977 -12.1184 38.6834 -28.4335 -11.6734 -42.5954 -20.6771 -12.1184 
-46.6374 -20.6771 -8.36337 45.5343 -20.6771 -12.1184 46.4398 -19.9785 -12.1184 
46.4398 -20.6771 -11.6962 -41.1058 -12.9206 -12.1184 -46.6374 -12.9206 -8.40168 
52.88 -12.9206 -12.1184 54.1963 -8.53 -12.1184 54.1963 -12.9206 -10.5394 
-40.1187 -5.1642 -12.1184 -46.6374 -5.1642 -7.94381 -38.881 -2.03675 -12.1184 
54.8772 -5.1642 -12.1184 -46.6374 2.59224 -6.88338 -36.0935 2.59224 -12.1184 
-38.881 2.59224 -11.2389 55.4808 2.59224 -12.1184 -46.6374 10.3487 -6.3315 
-33.6856 10.3487 -12.1184 -38.881 10.3487 -10.4391 54.2834 10.3487 -12.1184 
54.1963 10.681 -12.1184 -46.6374 18.1051 -6.36821 -31.9984 18.1051 -12.1184 
-38.881 18.1051 -9.70085 -31.1245 21.511 -12.1184 51.2764 18.1051 -12.1184 
46.4398 23.325 -12.1184 54.1963 18.1051 -6.96588 -38.881 25.8615 -8.40539 
-29.9635 25.8615 -12.1184 -31.1245 25.8615 -11.6871 43.9065 25.8615 -12.1184 
38.6834 29.9564 -12.1184 46.4398 25.8615 -8.57796 -38.881 33.618 -5.66462 
-25.9182 33.618 -12.1184 -31.1245 33.618 -9.79952 -23.3681 36.4893 -12.1184 
23.1705 39.7898 -12.1184 33.5866 33.618 -12.1184 30.927 35.5587 -12.1184 
38.6834 33.618 -4.71429 -31.1245 41.3744 -6.28646 -17.7321 41.3744 -12.1184 
-23.3681 41.3744 -10.0233 -15.6117 42.9543 -12.1184 -7.85523 44.267 -12.1184 
-0.0987893 44.8133 -12.1184 7.65765 44.5215 -12.1184 20.6931 41.3744 -12.1184 
15.4141 44.0632 -12.1184 23.1705 41.3744 -10.4902 -15.6117 49.1309 -8.08507 
-7.85523 49.1309 -8.55134 -0.0987893 49.1309 -8.4072 7.65765 49.1309 -6.89102 
-31.1245 -46.5248 -4.36198 -23.3681 -49.7352 -4.36198 -15.6117 -51.3493 -4.36198 
-7.85523 -51.6396 -4.36198 -0.0987893 -51.4754 -4.36198 7.65765 -50.0636 -4.36198 
15.4141 -48.3587 -4.36198 23.1705 -45.5733 -4.36198 -35.0251 -43.9464 -4.36198 
-38.881 -40.9586 -4.36198 26.3432 -43.9464 -4.36198 30.927 -41.23 -4.36198 
-43.2652 -36.1899 -4.36198 -46.6374 -30.5216 -4.36198 38.0434 -36.1899 -4.36198 
38.6834 -35.668 -4.36198 -47.6737 -28.4335 -4.36198 46.2119 -28.4335 -4.36198 
46.4398 -28.2096 -4.36198 -49.5844 -20.6771 -4.36198 52.5896 -20.6771 -4.36198 
54.1963 -17.887 -4.36198 -50.2255 -12.9206 -4.36198 56.7226 -12.9206 -4.36198 
-49.7139 -5.1642 -4.36198 59.4159 -5.1642 -4.36198 -49.1758 2.59224 -4.36198 
59.8666 2.59224 -4.36198 -48.8938 10.3487 -4.36198 -54.3938 10.3487 3.05734 
58.4746 10.3487 -4.36198 -48.8888 18.1051 -4.36198 -46.6374 23.7273 -4.36198 
55.0708 18.1051 -4.36198 54.1963 19.2785 -4.36198 54.1963 18.1051 -0.210264 
-45.1132 25.8615 -4.36198 -46.6374 25.8615 -3.09698 48.3995 25.8615 -4.36198 
46.4398 27.6913 -4.36198 46.4398 25.8615 2.32019 -40.5274 33.618 -4.36198 
-38.881 35.7009 -4.36198 30.927 39.6985 -4.36198 38.8559 33.618 -4.36198 
38.6834 33.7476 -4.36198 38.6834 33.618 -3.78105 -33.7193 41.3744 -4.36198 
-31.1245 43.5009 -4.36198 -23.3681 48.5732 -4.36198 15.4141 48.3759 -4.36198 
28.4759 41.3744 -4.36198 23.1705 44.7296 -4.36198 -22.332 49.1309 -4.36198 
-23.3681 49.1309 -2.92799 -15.6117 51.6004 -4.36198 -7.85523 52.2946 -4.36198 
-0.0987893 51.761 -4.36198 12.7564 49.1309 -4.36198 7.65765 50.4911 -4.36198 
-31.1245 -45.6318 3.39446 -23.3681 -48.6502 3.39446 -15.6117 -50.0707 3.39446 
-7.85523 -51.0194 3.39446 -0.0987893 -50.0085 3.39446 7.65765 -48.7182 3.39446 
15.4141 -47.2944 3.39446 23.1705 -44.5812 3.39446 -33.7662 -43.9464 3.39446 
-38.881 -40.1323 3.39446 -31.1245 -43.9464 6.16069 -23.3681 -43.9464 9.69235 
7.65765 -43.9464 10.3358 15.4141 -43.9464 8.4055 24.4572 -43.9464 3.39446 
23.1705 -43.9464 4.57224 30.927 -40.2184 3.39446 -42.8547 -36.1899 3.39446 
-46.6374 -30.6559 3.39446 -38.881 -36.1899 9.01283 36.3704 -36.1899 3.39446 
30.927 -36.1899 8.08696 38.6834 -33.8298 3.39446 -47.9108 -28.4335 3.39446 
-46.6374 -28.4335 6.03807 44.0574 -28.4335 3.39446 38.6834 -28.4335 8.68525 
46.4398 -25.9322 3.39446 -50.7798 -20.6771 3.39446 -46.6374 -20.6771 10.1192 
50.2136 -20.6771 3.39446 46.4398 -20.6771 7.43092 54.1963 -13.7602 3.39446 
-52.2405 -12.9206 3.39446 46.4398 -12.9206 10.3566 54.6249 -12.9206 3.39446 
54.1963 -12.9206 3.95365 -53.0437 -5.1642 3.39446 57.5462 -5.1642 3.39446 
54.1963 -5.1642 7.9681 -54.0937 2.59224 3.39446 -54.3938 7.44532 3.39446 
58.0944 2.59224 3.39446 54.1963 2.59224 8.658 -54.5575 10.3487 3.39446 
-54.3938 11.9645 3.39446 -54.3938 10.3487 5.4186 56.8802 10.3487 3.39446 
54.1963 16.4909 3.39446 54.1963 10.3487 7.17352 -53.7565 18.1051 3.39446 
53.2629 18.1051 3.39446 46.4398 25.506 3.39446 46.4398 18.1051 10.0427 
-51.0096 25.8615 3.39446 -46.6374 32.9577 3.39446 46.0354 25.8615 3.39446 
38.6834 31.7765 3.39446 38.6834 25.8615 9.59622 -46.1385 33.618 3.39446 
-38.881 41.3247 3.39446 36.403 33.618 3.39446 30.927 37.785 3.39446 
30.927 33.618 8.09525 -38.8238 41.3744 3.39446 -31.1245 46.8929 3.39446 
15.4141 46.9523 3.39446 25.8259 41.3744 3.39446 23.1705 43.0863 3.39446 
23.1705 41.3744 5.91162 -27.0099 49.1309 3.39446 -23.3681 50.854 3.39446 
-23.3681 49.1309 9.70757 -15.6117 52.7809 3.39446 -15.6117 49.1309 10.9832 
-7.85523 52.8027 3.39446 -0.0987893 52.2052 3.39446 -0.0987893 49.1309 8.99261 
10.0557 49.1309 3.39446 7.65765 49.9694 3.39446 7.65765 49.1309 5.18591 
-15.6117 -44.5359 11.1509 -7.85523 -45.233 11.1509 -0.0987893 -44.4705 11.1509 
-31.1245 -38.771 11.1509 -17.9312 -43.9464 11.1509 -23.3681 -42.1539 11.1509 
-15.6117 -43.9464 11.6655 -7.85523 -43.9464 12.1793 3.19807 -43.9464 11.1509 
-0.0987893 -43.9464 11.5974 7.65765 -43.0026 11.1509 15.4141 -40.887 11.1509 
23.1705 -37.9927 11.1509 -35.325 -36.1899 11.1509 -38.881 -33.0043 11.1509 
-31.1245 -36.1899 12.9757 -23.3681 -36.1899 14.8684 -15.6117 -36.1899 16.0688 
-7.85523 -36.1899 15.9231 -0.0987893 -36.1899 15.6034 7.65765 -36.1899 14.9915 
15.4141 -36.1899 14.1096 25.6746 -36.1899 11.1509 23.1705 -36.1899 12.2819 
30.927 -31.9075 11.1509 -42.1759 -28.4335 11.1509 -38.881 -28.4335 13.0128 
-31.1245 -28.4335 16.0512 -23.3681 -28.4335 17.0809 -15.6117 -28.4335 17.8873 
-7.85523 -28.4335 17.2537 -0.0987893 -28.4335 16.8265 7.65765 -28.4335 16.5728 
15.4141 -28.4335 16.4935 23.1705 -28.4335 15.1651 35.1088 -28.4335 11.1509 
30.927 -28.4335 12.9695 38.6834 -23.0341 11.1509 -45.3818 -20.6771 11.1509 
-46.6374 -17.1477 11.1509 -38.881 -20.6771 15.0813 -31.1245 -20.6771 17.3175 
[...]
POINT_DATA 544
SCALARS ImageScalars float
LOOKUP_TABLE default
0 0 0 0 0 0 0 0 0 
0 0 0 0 0 0 0 0 0 
0 0 0 0 0 0 0 0 0 
0 0 0 0 0 0 0 0 0 
0 0 0 0 0 0 0 0 0 
0 0 0 0 0 0 0 0 0 
0 0 0 0 0 0 0 0 0 
0 0 0 0 0 0 0 0 0 
0 0 0 0 0 0 0 0 0 
0 0 0 0 0 0 0 0 0 
0 0 0 0 0 0 0 0 0 
0 0 0 0 0 0 0 0 0 
0 0 0 0 0 0 0 0 0 
0 0 0 0 0 0 0 0 0 
0 0 0 0 0 0 0 0 0 
0 0 0 0 0 0 0 0 0 
0 0 0 0 0 0 0 0 0 
0 0 0 0 0 0 0 0 0 
0 0 0 0 0 0 0 0 0 
0 0 0 0 0 0 0 0 0 
0 0 0 0 0 0 0 0 0 
0 0 0 0 0 0 0 0 0 
0 0 0 0 0 0 0 0 0 
0 0 0 0 0 0 0 0 0 
0 0 0 0 0 0 0 0 0 
0 0 0 0 0 0 0 0 0 
0 0 0 0 0 0 0 0 0 
0 0 0 0 0 0 0 0 0 
0 0 0 0 0 0 0 0 0 
0 0 0 0 0 0 0 0 0 
0 0 0 0 0 0 0 0 0 
0 0 0 0 0 0 0 0 0 
0 0 0 0 0 0 0 0 0 
0 0 0 0 0 0 0 0 0 
0 0 0 0 0 0 0 0 0 
0 0 0 0 0 0 0 0 0 
0 0 0 0 0 0 0 0 0 
0 0 0 0 0 0 0 0 0 
0 0 0 0 0 0 0 0 0 
0 0 0 0 0 0 0 0 0 
0 0 0 0 0 0 0 0 0 
0 0 0 0 0 0 0 0 0 
0 0 0 0 0 0 0 0 0 
0 0 0 0 0 0 0 0 0 
0 0 0 0 0 0 0 0 0 
0 0 0 0 0 0 0 0 0 
0 0 0 0 0 0 0 0 0 
0 0 0 0 0 0 0 0 0 
0 0 0 0 0 0 0 0 0 
0 0 0 0 0 0 0 0 0 
0 0 0 0 0 0 0 0 0 
0 0 0 0 0 0 0 0 0 
0 0 0 0 0 0 0 0 0 
0 0 0 0 0 0 0 0 0 
0 0 0 0 0 0 0 0 0 
0 0 0 0 0 0 0 0 0 
0 0 0 0 0 0 0 0 0 
0 0 0 0 0 0 0 0 0 
0 0 0 0 0 0 0 0 0 
0 0 0 0 0 0 0 0 0 
0 0 0 0 
NORMALS Normals float
0.33779 0.543106 0.768722 0.175789 0.465449 0.867442 0.0234139 0.477557 0.878289 
-0.070796 0.500568 0.862797 -0.202478 0.565958 0.799183 -0.322469 0.634465 0.702473 
0.359949 0.315302 0.878078 0.213554 0.222351 0.951291 0.109221 0.129724 0.985516 
0.0647369 0.125839 0.989936 -0.0442696 0.148565 0.987911 -0.145148 0.181821 0.97256 
-0.198179 0.254533 0.94654 -0.298019 0.350022 0.88807 0.40889 0.242919 0.879658 
0.25028 0.106798 0.962265 0.130826 0.0153585 0.991286 0.0894295 -0.0394855 0.99521 
0.0534581 -0.0792423 0.995421 -0.0196578 -0.0708363 0.997294 -0.0956004 -0.0301008 0.994965 
-0.147899 0.00656543 0.988981 -0.200034 0.0927069 0.975393 -0.246022 0.289708 0.924955 
0.394517 0.00122255 0.918888 0.175385 -0.0408964 0.98365 0.0657311 -0.0992033 0.992894 
0.0160341 -0.173618 0.984683 0.0266958 -0.191429 0.981143 0.00799071 -0.162722 0.98664 
-0.0621376 -0.125162 0.990189 -0.0802276 -0.157047 0.984327 -0.0127194 -0.0354008 0.999292 
-0.105073 0.138226 0.984811 -0.246149 0.263595 0.9327 0.356761 -0.115215 0.927064 
0.143075 -0.135007 0.98046 0.00419035 -0.143882 0.989586 -0.0044345 -0.14601 0.989273 
0.0687105 0.0197483 0.997441 0.0480353 -0.0906361 0.994725 -0.09477 -0.00554551 0.995484 
-0.0552308 -0.124926 0.990628 0.0944983 -0.0169634 0.99538 0.0722465 0.076841 0.994422 
-0.0928381 0.188943 0.97759 -0.299091 0.242542 0.922886 0.307038 -0.122642 0.943762 
0.139345 -0.112093 0.983879 0.0438405 -0.0841646 0.995487 0.178945 0.0195968 0.983664 
0.0901051 0.143491 0.985541 -0.0337905 -0.140876 0.98945 -0.128738 0.182532 0.974735 
-0.0685138 0.112794 0.991253 0.1955 0.107295 0.974817 0.0832819 0.112181 0.990192 
-0.0664568 0.0907495 0.993654 -0.243847 0.125401 0.961672 -0.630684 0.114925 0.767483 
0.189401 -0.0740349 0.979105 0.135719 -0.0159067 0.99062 0.200849 0.0561073 0.978014 
-0.0486782 -0.142362 0.988617 0.0842049 0.148375 0.98534 0.0844402 0.059729 0.994637 
-0.0995619 0.15761 0.98247 0.0915772 0.100605 0.990703 0.0582444 0.0536945 0.996857 
-0.074602 0.0504568 0.995936 -0.250258 0.00481947 0.968167 -0.625355 -0.0271793 0.779867 
0.249235 -0.0680662 0.966048 0.179657 0.0139957 0.98363 0.0953602 -0.00831129 0.995408 
0.125891 -0.126784 0.983909 0.193453 0.00988295 0.98106 -0.0987487 -0.174933 0.979616 
-0.0614266 0.00369428 0.998105 0.0967576 0.0318835 0.994797 0.0365742 -0.0112239 0.999268 
-0.110533 -0.019613 0.993679 -0.31869 -0.132306 0.93858 -0.700634 -0.16855 0.693327 
0.298907 -0.0714384 0.951604 0.196859 -0.0197322 0.980233 0.053388 -0.0112842 0.99851 
-0.00620243 -0.0200321 0.99978 0.0766053 -0.0901475 0.992978 0.0830078 -0.113567 0.990057 
0.0710393 0.00124081 0.997473 0.0770517 -0.0374926 0.996322 0.00634172 -0.127234 0.991852 
-0.187792 -0.211939 0.95907 -0.422641 -0.314586 0.849947 0.240204 -0.0906981 0.966476 
0.0967213 -0.0390007 0.994547 0.0399345 0.00528917 0.999188 0.0665207 0.0324847 0.997256 
0.0469262 -0.0158866 0.998772 0.0172417 -0.0177502 0.999694 -0.0332238 -0.122098 0.991962 
-0.142272 -0.273944 0.951164 -0.31408 -0.446114 0.838055 0.296671 -0.238397 0.924745 
0.153427 -0.177352 0.972114 0.0643651 -0.122179 0.990419 0.0522069 -0.120589 0.991329 
0.0353157 -0.153077 0.987583 -0.0358965 -0.182853 0.982485 -0.206105 -0.349868 0.913845 
-0.344009 -0.503279 0.792696 0.20504 -0.339455 0.918003 0.0856963 -0.358963 0.929409 
0.0308699 -0.374069 0.926887 -0.0183004 -0.417816 0.908347 -0.171427 -0.495283 0.85165 
0.347547 0.62545 0.698586 0.171487 0.77356 0.61008 -0.0144573 0.816262 0.577501 
-0.102996 0.795419 0.597244 -0.200834 0.767188 0.609171 -0.326297 0.668583 0.668227 
0.384791 0.586353 0.712829 0.417135 0.502409 0.757353 0.48611 0.740643 0.463837 
-0.336075 0.658943 0.672939 -0.361218 0.574687 0.734341 -0.408274 0.838479 0.360924 
0.485704 0.390412 0.782093 0.47202 0.326548 0.818879 0.625301 0.497589 0.601169 
-0.416305 0.459263 0.784709 -0.384901 0.418647 0.822548 -0.480926 0.547287 0.684972 
0.498006 0.256481 0.828376 0.860328 0.331004 0.387649 -0.341895 0.411007 0.845093 
-0.343403 0.412145 0.843926 -0.377735 0.45303 0.807515 0.566531 0.00396375 0.824031 
0.786518 0.0705958 0.613519 -0.420535 0.403657 0.812534 -0.42923 0.40593 0.806835 
-0.462594 0.436163 0.77186 0.433529 -0.0901378 0.89662 0.708765 -0.0195783 0.705173 
-0.628162 0.301998 0.717084 -0.666984 0.196949 0.71857 -0.757875 0.338499 0.557714 
0.35634 -0.113274 0.927465 0.680154 -0.0732346 0.729402 0.316941 -0.12564 0.940087 
-0.658721 0.11687 0.743255 0.635769 -0.0763505 0.768094 0.279699 -0.111785 0.953558 
0.343253 -0.128933 0.930351 -0.680443 -0.0346762 0.73198 0.599511 -0.0239277 0.800009 
0.282133 -0.0823406 0.955835 0.362259 -0.0956096 0.927161 -0.704648 -0.169273 0.689071 
-0.704551 -0.180085 0.686424 0.568302 -0.155482 0.807997 0.308909 -0.0725193 0.948323 
0.383238 -0.106069 0.917539 0.310405 -0.107974 0.944452 -0.62373 -0.409407 0.665842 
-0.553247 -0.536173 0.637524 -0.822005 -0.521915 0.227843 0.475292 -0.241438 0.846053 
0.311724 -0.145703 0.938935 0.327571 -0.157943 0.931532 -0.522838 -0.576037 0.628348 
-0.455453 -0.615032 0.643659 -0.653483 -0.685087 0.321894 0.559802 -0.397368 0.727131 
0.342445 -0.258829 0.903183 0.428306 -0.292576 0.854958 0.320608 -0.315248 0.893213 
-0.327156 -0.581438 0.744915 -0.42422 -0.598232 0.679821 -0.397933 -0.589497 0.702952 
-0.599831 -0.796622 0.074815 0.497763 -0.551302 0.66955 0.248814 -0.364874 0.897195 
0.357538 -0.458004 0.813879 0.20797 -0.401577 0.891899 0.0564459 -0.475339 0.87799 
0.00707021 -0.532401 0.846463 -0.0306246 -0.575426 0.81728 -0.293405 -0.601801 0.742798 
-0.201146 -0.633677 0.74699 -0.39164 -0.701248 0.59571 0.215731 -0.753612 0.62091 
0.0147378 -0.768065 0.640202 -0.0622167 -0.820166 0.568733 -0.168516 -0.911219 0.375876 
0.49011 0.853005 0.179371 0.279897 0.952238 0.122067 0.118713 0.991836 0.0465746 
0.0079293 0.997185 0.0745606 -0.0996358 0.993334 0.0579761 -0.196437 0.978236 0.0668285 
-0.279402 0.953066 0.116617 -0.409321 0.898025 0.161266 0.571549 0.798978 0.186991 
0.661727 0.71925 0.211653 -0.463307 0.871567 0.160364 -0.54302 0.820796 0.177267 
0.768757 0.586208 0.255683 0.873113 0.415887 0.254387 -0.624105 0.766539 0.151361 
-0.630306 0.762409 0.146449 0.897757 0.349989 0.267471 -0.706901 0.69931 0.106094 
-0.708714 0.697574 0.105426 0.90222 0.151575 0.403762 -0.824779 0.557763 0.0929471 
-0.867285 0.494005 0.0614525 0.874362 0.0139348 0.485075 -0.917131 0.394148 0.0593095 
0.811265 -0.0548262 0.582103 -0.976315 0.195907 0.0918132 0.708697 -0.0426058 0.704225 
-0.994219 -0.0578902 0.0904279 0.647568 -0.0141069 0.761877 0.972268 -0.0259183 0.232428 
-0.953605 -0.279907 0.110857 0.67316 -0.163309 0.72124 0.616779 -0.314204 0.721706 
-0.842391 -0.536185 0.0536954 -0.824081 -0.564017 0.0526719 -0.823286 -0.540456 -0.173515 
0.59309 -0.362373 0.718978 0.656031 -0.405094 0.636807 -0.698885 -0.712984 0.0566889 
-0.672305 -0.738416 0.0524095 -0.635277 -0.707397 -0.309859 0.604864 -0.433803 0.667798 
0.60536 -0.457609 0.651255 -0.578174 -0.813411 0.0638581 -0.601681 -0.796797 0.0556358 
-0.600747 -0.797492 0.0557689 -0.602761 -0.797467 0.0269213 0.556375 -0.599327 0.575546 
0.525179 -0.641743 0.558885 0.423759 -0.764244 0.486169 -0.347549 -0.932302 0.100118 
-0.550137 -0.831587 0.0762368 -0.480165 -0.869734 0.114039 0.401953 -0.789438 0.46392 
0.419156 -0.822022 0.38547 0.215081 -0.892022 0.397538 0.0106445 -0.931722 0.363017 
-0.114448 -0.942128 0.315114 -0.29868 -0.944283 0.138273 -0.206676 -0.955039 0.21257 
0.461553 0.832231 -0.307181 0.260299 0.899893 -0.34991 0.140637 0.927267 -0.346982 
-0.00410775 0.950165 -0.31172 -0.134945 0.924354 -0.356875 -0.162889 0.920747 -0.354531 
-0.254986 0.903542 -0.344374 -0.393123 0.865366 -0.310798 0.516748 0.801095 -0.302025 
0.621959 0.72933 -0.285036 0.442343 0.770479 -0.459016 0.222455 0.699164 -0.679473 
-0.139554 0.685382 -0.714686 -0.215269 0.762505 -0.61012 -0.415316 0.855032 -0.310536 
-0.388729 0.844176 -0.369129 -0.518366 0.782455 -0.345051 0.728461 0.629139 -0.271161 
0.835802 0.503937 -0.217903 0.553044 0.575741 -0.602216 -0.615708 0.700093 -0.361627 
-0.474819 0.62657 -0.618027 -0.648942 0.663724 -0.371947 0.867778 0.453283 -0.203708 
0.817022 0.447647 -0.363437 -0.665112 0.626011 -0.407106 -0.562253 0.4774 -0.675248 
-0.686066 0.584306 -0.433475 0.95209 0.261276 -0.158933 0.71115 0.226049 -0.665709 
-0.743041 0.481843 -0.464454 -0.613329 0.410801 -0.674589 -0.786498 0.409717 -0.462119 
0.981469 0.154968 -0.112707 -0.488843 0.282005 -0.825533 -0.794308 0.397048 -0.459813 
-0.776685 0.39972 -0.486809 0.992844 0.113937 0.035753 -0.870911 0.206835 -0.445794 
-0.711439 0.211572 -0.670143 0.979647 0.0976145 0.175394 0.980133 0.0230758 0.196997 
-0.901185 -0.038776 -0.431697 -0.722161 -0.0319332 -0.690988 0.978191 -0.0230836 0.206422 
0.972625 -0.0613978 0.224123 0.997071 -0.00801062 0.0760603 -0.873509 -0.26859 -0.406007 
-0.795028 -0.470947 -0.382281 -0.763779 -0.247255 -0.596244 0.942693 -0.198624 0.2681 
-0.763869 -0.520258 -0.381885 -0.621203 -0.688817 -0.373683 -0.55048 -0.42026 -0.721355 
0.863093 -0.442205 0.243977 0.764933 -0.609642 0.207881 -0.615251 -0.694134 -0.373689 
-0.572302 -0.72576 -0.381764 -0.448941 -0.584566 -0.675821 0.757871 -0.620262 0.202254 
0.660119 -0.741621 0.119337 -0.569289 -0.729391 -0.379341 -0.547762 -0.743101 -0.384393 
-0.488977 -0.624389 -0.609131 0.65926 -0.742526 0.118458 0.546515 -0.836514 0.0395818 
-0.382683 -0.859799 -0.338081 -0.509849 -0.779213 -0.36453 -0.48157 -0.798048 -0.362228 
-0.46978 -0.743589 -0.475796 0.43339 -0.900827 0.0261378 0.337851 -0.941193 -0.00350531 
0.251604 -0.856474 -0.450719 0.118063 -0.985547 -0.121482 0.0517266 -0.792938 -0.607102 
-0.0375321 -0.99078 -0.130178 -0.17724 -0.962141 -0.207053 -0.20128 -0.823163 -0.530933 
-0.332341 -0.902708 -0.273253 -0.306941 -0.917528 -0.252843 -0.306577 -0.890919 -0.335073 
0.125856 0.64763 -0.751489 -0.00297192 0.641035 -0.767506 -0.0938286 0.64762 -0.756164 
0.330998 0.552964 -0.764638 0.150587 0.640014 -0.753462 0.207057 0.602998 -0.770403 
0.120295 0.626464 -0.770112 -0.00435825 0.591656 -0.806179 -0.110583 0.645048 -0.756098 
-0.0907183 0.627092 -0.773645 -0.134856 0.627243 -0.76706 -0.186031 0.589916 -0.785743 
-0.315673 0.534343 -0.78411 0.421429 0.5146 -0.746716 0.48004 0.440172 -0.758822 
0.303502 0.477746 -0.824406 0.162536 0.382728 -0.909451 0.0595527 0.346677 -0.936092 
-0.0287192 0.291641 -0.956097 -0.0579073 0.293656 -0.954156 -0.0889088 0.33702 -0.93729 
-0.161866 0.405306 -0.899737 -0.349454 0.5005 -0.792074 -0.3024 0.463849 -0.832706 
-0.384973 0.437417 -0.812688 0.555072 0.339036 -0.759572 0.430713 0.302389 -0.850322 
0.252454 0.240925 -0.937135 0.10905 0.196898 -0.97434 0.00942379 0.105508 -0.994374 
-0.0663787 0.101459 -0.992623 -0.0437836 0.0836521 -0.995533 -0.0210256 0.10541 -0.994206 
-0.0902622 0.170048 -0.981293 -0.212429 0.247801 -0.945235 -0.43735 0.381725 -0.814255 
-0.337905 0.329021 -0.881796 -0.423223 0.294685 -0.856763 0.628997 0.211036 -0.748216 
0.674233 0.217286 -0.70583 0.375117 0.214258 -0.901876 0.179998 0.119524 -0.976379 
0.0372014 0.0949661 -0.994785 -0.0407821 0.0256293 -0.998839 -0.0659243 0.048068 -0.996666 
-0.0511919 0.0583835 -0.996981 0.00636419 0.019624 -0.999787 -0.00971015 0.00883084 -0.999914 
-0.139487 0.0775585 -0.987182 -0.284241 0.155066 -0.94613 -0.408868 0.264397 -0.873454 
-0.379422 0.2429 -0.89277 0.710267 0.223568 -0.667487 0.661315 0.205066 -0.721533 
0.273644 0.116134 -0.954794 0.118259 0.0461963 -0.991908 0.0127637 0.00321759 -0.999913 
-0.038121 0.0398958 -0.998476 -0.0305128 0.113192 -0.993105 -0.0773115 0.117999 -0.99 
-0.0723638 0.176959 -0.981554 -0.0301532 -0.0453213 -0.998517 -0.0727357 -0.00565253 -0.997335 
-0.163206 0.121228 -0.979116 -0.439302 0.263001 -0.858979 -0.294946 0.223972 -0.928894 
-0.454495 0.250317 -0.854854 0.739151 0.265916 -0.618825 0.554777 0.204739 -0.806414 
0.238447 0.0761982 -0.968162 0.0783178 0.0260348 -0.996588 0.0321974 -0.0382556 -0.998749 
0.0675408 -0.0129438 -0.997633 0.0300743 -0.0661236 -0.997358 -0.185032 0.0152527 -0.982614 
0.0233532 0.0496677 -0.998493 -0.0539523 0.118078 -0.991538 -0.227179 0.177516 -0.957537 
-0.502343 0.198103 -0.841669 -0.404852 0.187639 -0.894923 0.867052 0.182523 -0.463579 
0.432288 0.189316 -0.881638 0.160677 0.103024 -0.981615 0.00551869 0.0561585 -0.998407 
-0.0251999 -8.47972e-05 -0.999682 0.0934845 -0.050362 -0.994346 0.0515397 0.00890377 -0.998631 
-0.183984 0.100375 -0.977791 0.0285567 0.0712553 -0.997049 -0.0322781 0.0709698 -0.996956 
-0.220078 0.0489493 -0.974253 -0.564167 -0.00690739 -0.825632 -0.428309 0.0170351 -0.903472 
0.928721 0.038847 -0.368739 0.383598 0.0325093 -0.922928 0.123048 0.031558 -0.991899 
-0.0724764 0.0520587 -0.996011 0.0572415 0.0173459 -0.99821 -0.0138192 0.0655328 -0.997755 
-0.0891727 0.0834044 -0.992518 -0.000855963 0.0120495 -0.999927 -0.0725108 -0.0706705 -0.994861 
-0.272907 -0.127129 -0.953604 -0.554481 -0.199605 -0.807904 -0.516517 -0.337227 -0.787076 
-0.462268 -0.180796 -0.868114 0.906067 -0.17507 -0.385218 0.442589 -0.0807838 -0.893078 
0.190953 -0.0254703 -0.981269 -0.0794235 0.0742985 -0.994068 -0.0439981 0.0744045 -0.996257 
-0.0255764 -0.00979602 -0.999625 0.0180233 -0.0142688 -0.999736 0.0167361 -0.00336234 -0.999854 
-0.0670064 0.00449269 -0.997742 -0.125935 -0.0878921 -0.988137 -0.175224 -0.239439 -0.954969 
-0.499702 -0.392073 -0.772384 -0.412421 -0.513801 -0.752275 -0.324371 -0.336743 -0.883961 
0.779322 -0.467358 -0.417412 0.684528 -0.581199 -0.440034 0.585414 -0.365596 -0.723623 
0.144295 -0.271841 -0.951463 0.0783181 -0.14448 -0.986404 -0.00578229 0.0227582 -0.999724 
-0.0291443 -0.0590103 -0.997832 -0.169264 -0.133278 -0.976518 -0.255056 -0.241908 -0.936177 
-0.406505 -0.524737 -0.747934 -0.413013 -0.513175 -0.752377 -0.337894 -0.41179 -0.846319 
0.62495 -0.602667 -0.496215 0.524278 -0.676524 -0.517154 0.398219 -0.468601 -0.788565 
0.245261 -0.258048 -0.934483 0.0785024 -0.211871 -0.97414 0.063027 -0.123436 -0.990349 
-0.0171587 -0.119798 -0.99265 -0.0880022 -0.143717 -0.985698 -0.143558 -0.283911 -0.948043 
-0.237158 -0.363024 -0.901093 -0.431001 -0.526075 -0.733133 -0.419716 -0.551214 -0.721111 
-0.391173 -0.464146 -0.794702 0.501182 -0.694467 -0.516267 0.45142 -0.695345 -0.559209 
0.367576 -0.594639 -0.715047 0.220605 -0.790816 -0.570915 0.155873 -0.42046 -0.893821 
0.0495186 -0.782098 -0.621185 0.0755175 -0.380637 -0.921636 -0.062673 -0.343774 -0.936959 
-0.193349 -0.703075 -0.684325 -0.159102 -0.435683 -0.885927 -0.262679 -0.67762 -0.686899 
-0.234384 -0.513906 -0.825206 -0.352799 -0.633112 -0.688986 -0.351246 -0.634383 -0.688611 
-0.350378 -0.631537 -0.691662 0.0250515 -0.786185 -0.617483 -0.110685 -0.774687 -0.622583 
-0.0819053 -0.786605 -0.612001 -0.082308 -0.767221 -0.636079 0.00515553 0.104387 -0.994523 
-0.146983 0.218078 -0.9648 0.0425836 0.0443431 -0.998108 0.0278003 -0.0241638 -0.999321 
0.0180472 0.0988334 -0.99494 0.00583082 -0.029462 -0.999549 -0.182828 0.176455 -0.96718 
-0.166252 0.216212 -0.962088 -0.0235223 0.0715973 -0.997156 0.00189084 -0.0255965 -0.999671 
-0.0476913 -0.00806824 -0.99883 -0.0715931 -0.00476355 -0.997423 0.0155891 -0.0381956 -0.999149 
-0.0817162 0.00883505 -0.996616 -0.00786044 -0.0492803 -0.998754 -0.02122 0.0710274 -0.997249 
-0.0244209 0.0716535 -0.997131 -0.0239738 0.0718458 -0.997128 0.0570751 -0.0731985 -0.995683 
0.0224078 -0.0214417 -0.999519 0.0341854 -0.0732559 -0.996727 0.0555697 -0.0956167 -0.993866 
-0.0484265 -0.100951 -0.993712 -0.0522691 -0.110424 -0.992509 -0.0476692 -0.109379 -0.992856 
-0.0512846 -0.115385 -0.991996 0.120377 -0.0267435 -0.992368 -0.0667699 0.0617535 -0.995856 
0.0550584 -0.0944114 -0.99401 0.0285308 -0.0329772 -0.999049 -0.0601169 0.0511859 -0.996878 
-0.0239713 0.0194012 -0.999524 -0.0385928 0.0404743 -0.998435 0.0539044 -0.0992023 -0.993606 
0.0467968 -0.108895 -0.992951 0.0354923 -0.0629868 -0.997383 -0.0134812 0.00158326 -0.999908 
-0.0226702 0.0157796 -0.999618 -0.035331 0.0436973 -0.99842 -0.0271327 -0.0478692 -0.998485 
-0.0402279 0.0472414 -0.998073 
