# vtk DataFile Version 4.2
vtk output
ASCII
DATASET POLYDATA
POINTS 502 float
-5.81081 -33.0193 -17.368 2.49738 -33.0193 -18.4551 10.8056 -33.0193 -19.3699 
19.1137 -33.0193 -19.5958 27.4219 -33.0193 -18.1225 -30.7354 -24.7111 -17.2095 
-22.4272 -24.7111 -19.0997 -14.119 -24.7111 -20.8076 -5.81081 -24.7111 -21.458 
2.49738 -24.7111 -21.1932 10.8056 -24.7111 -21.7161 19.1137 -24.7111 -21.7929 
27.4219 -24.7111 -21.2962 35.7301 -24.7111 -19.0656 -39.0435 -16.4029 -18.3008 
-30.7354 -16.4029 -20.2887 -22.4272 -16.4029 -21.3903 -14.119 -16.4029 -23.0047 
-5.81081 -16.4029 -23.5861 2.49738 -16.4029 -22.6661 10.8056 -16.4029 -22.4998 
19.1137 -16.4029 -22.3586 27.4219 -16.4029 -22.2927 35.7301 -16.4029 -21.3061 
44.0383 -16.4029 -18.794 -47.3517 -8.09471 -16.7275 -39.0435 -8.09471 -20.9439 
-30.7354 -8.09471 -22.2465 -22.4272 -8.09471 -22.1907 -14.119 -8.09471 -23.3073 
-5.81081 -8.09471 -23.9497 2.49738 -8.09471 -23.4186 10.8056 -8.09471 -23.7428 
19.1137 -8.09471 -22.8259 27.4219 -8.09471 -23.224 35.7301 -8.09471 -22.9941 
44.0383 -8.09471 -21.3505 52.3465 -8.09471 -17.2004 -47.3517 0.213471 -18.7463 
-39.0435 0.213471 -22.0739 -30.7354 0.213471 -23.0627 -22.4272 0.213471 -23.042 
-14.119 0.213471 -23.3689 -5.81081 0.213471 -23.6639 2.49738 0.213471 -23.7062 
10.8056 0.213471 -24.7737 19.1137 0.213471 -23.5343 27.4219 0.213471 -23.8198 
35.7301 0.213471 -24.2545 44.0383 0.213471 -22.8877 52.3465 0.213471 -18.7108 
-47.3517 8.52165 -18.6444 -39.0435 8.52165 -22.429 -30.7354 8.52165 -23.3303 
-22.4272 8.52165 -23.1364 -14.119 8.52165 -22.6182 -5.81081 8.52165 -23.3473 
2.49738 8.52165 -23.4528 10.8056 8.52165 -22.6904 19.1137 8.52165 -22.9667 
27.4219 8.52165 -24.0993 35.7301 8.52165 -24.405 44.0383 8.52165 -23.028 
52.3465 8.52165 -18.704 -47.3517 16.8298 -17.0562 -39.0435 16.8298 -21.8015 
-30.7354 16.8298 -22.9203 -22.4272 16.8298 -22.6547 -14.119 16.8298 -22.2509 
-5.81081 16.8298 -22.7544 2.49738 16.8298 -22.8937 10.8056 16.8298 -22.1742 
19.1137 16.8298 -22.491 27.4219 16.8298 -23.303 35.7301 16.8298 -23.2706 
44.0383 16.8298 -21.5971 -39.0435 25.138 -18.4452 -30.7354 25.138 -21.0551 
-22.4272 25.138 -21.7142 -14.119 25.138 -22.2745 -5.81081 25.138 -23.0886 
2.49738 25.138 -23.6548 10.8056 25.138 -23.7051 19.1137 25.138 -22.8752 
27.4219 25.138 -22.6305 35.7301 25.138 -21.7886 44.0383 25.138 -18.5282 
-22.4272 33.4462 -18.8679 -14.119 33.4462 -20.8479 -5.81081 33.4462 -22.8184 
2.49738 33.4462 -23.2811 10.8056 33.4462 -23.4857 19.1137 33.4462 -22.4545 
27.4219 33.4462 -21.1207 35.7301 33.4462 -18.114 -5.81081 41.7544 -19.214 
2.49738 41.7544 -20.7659 10.8056 41.7544 -20.9343 19.1137 41.7544 -19.479 
-5.81081 -34.1721 -16.5139 -5.81081 -41.3274 -9.71741 2.49738 -36.0553 -16.5139 
2.49738 -41.3274 -11.9635 10.8056 -37.8817 -16.5139 10.8056 -41.3274 -13.4902 
19.1137 -37.6454 -16.5139 19.1137 -41.3274 -13.168 27.4219 -35.3641 -16.5139 
27.4219 -41.3274 -9.38847 -30.7354 -25.8954 -16.5139 -30.7354 -33.0193 -10.9673 
-22.4272 -29.176 -16.5139 -22.4272 -33.0193 -13.7505 -11.1259 -33.0193 -16.5139 
-14.119 -32.236 -16.5139 -14.119 -33.0193 -15.9607 31.2037 -33.0193 -16.5139 
35.7301 -29.4933 -16.5139 35.7301 -33.0193 -13.2155 -32.725 -24.7111 -16.5139 
-39.0435 -20.1447 -16.5139 -39.0435 -24.7111 -13.7744 40.6577 -24.7111 -16.5139 
44.0383 -21.0811 -16.5139 44.0383 -24.7111 -13.4722 -42.8277 -16.4029 -16.5139 
-47.3517 -8.72892 -16.5139 -47.3517 -16.4029 -13.3101 48.1845 -16.4029 -16.5139 
52.3465 -9.81274 -16.5139 52.3465 -16.4029 -11.5022 -47.583 -8.09471 -16.5139 
53.0595 -8.09471 -16.5139 -50.0621 0.213471 -16.5139 54.5371 0.213471 -16.5139 
-49.8042 8.52165 -16.5139 54.4145 8.52165 -16.5139 52.3465 16.4016 -16.5139 
-47.9002 16.8298 -16.5139 -47.3517 17.893 -16.5139 52.1965 16.8298 -16.5139 
52.3465 16.8298 -16.2235 -42.2197 25.138 -16.5139 -47.3517 25.138 -10.5765 
-39.0435 27.8737 -16.5139 -30.7354 32.5926 -16.5139 46.1023 25.138 -16.5139 
44.0383 27.8354 -16.5139 -39.0435 33.4462 -8.41372 -29.221 33.4462 -16.5139 
-30.7354 33.4462 -15.6004 -22.4272 36.465 -16.5139 -14.119 40.7621 -16.5139 
27.4219 41.504 -16.5139 38.5163 33.4462 -16.5139 35.7301 35.8716 -16.5139 
-12.3806 41.7544 -16.5139 -14.119 41.7544 -14.8868 -5.81081 44.2866 -16.5139 
2.49738 46.2765 -16.5139 10.8056 46.5669 -16.5139 27.0332 41.7544 -16.5139 
19.1137 45.094 -16.5139 27.4219 41.7544 -16.1979 -5.81081 -42.5301 -8.20568 
2.49738 -44.403 -8.20568 10.8056 -45.2254 -8.20568 19.1137 -44.8837 -8.20568 
27.4219 -42.0631 -8.20568 -30.7354 -35.405 -8.20568 -22.4272 -38.2611 -8.20568 
-22.4272 -41.3274 -3.11642 -11.3257 -41.3274 -8.20568 -14.119 -40.6514 -8.20568 
-14.119 -41.3274 -7.16837 28.6618 -41.3274 -8.20568 35.7301 -36.5944 -8.20568 
-35.3271 -33.0193 -8.20568 -39.0435 -30.7512 -8.20568 -39.0435 -33.0193 -4.56086 
39.8109 -33.0193 -8.20568 44.0383 -28.9144 -8.20568 -45.6748 -24.7111 -8.20568 
-47.3517 -22.6527 -8.20568 -47.3517 -24.7111 -5.27761 47.9219 -24.7111 -8.20568 
52.3465 -18.9067 -8.20568 -50.9686 -16.4029 -8.20568 53.992 -16.4029 -8.20568 
-53.6535 -8.09471 -8.20568 57.5949 -8.09471 -8.20568 -55.1061 0.213471 -8.20568 
-55.6599 0.213471 -2.82777 58.7419 0.213471 -8.20568 -54.701 8.52165 -8.20568 
57.9159 8.52165 -8.20568 -53.1186 16.8298 -8.20568 55.095 16.8298 -8.20568 
52.3465 21.6265 -8.20568 -48.8027 25.138 -8.20568 -47.3517 26.9823 -8.20568 
50.1096 25.138 -8.20568 44.0383 32.584 -8.20568 -39.2314 33.4462 -8.20568 
-39.0435 33.5548 -8.20568 -30.7354 37.4692 -8.20568 -22.4272 40.8854 -8.20568 
43.2151 33.4462 -8.20568 35.7301 40.1742 -8.20568 -20.2451 41.7544 -8.20568 
-14.119 44.2303 -8.20568 -5.81081 47.1997 -8.20568 2.49738 49.5962 -8.20568 
10.8056 49.3806 -8.20568 19.1137 48.2757 -8.20568 33.412 41.7544 -8.20568 
27.4219 45.2583 -8.20568 -22.4272 -43.0253 0.102501 -14.119 -45.3532 0.102501 
-5.81081 -47.2133 0.102501 2.49738 -49.2454 0.102501 10.8056 -49.0222 0.102501 
19.1137 -47.9357 0.102501 27.4219 -44.4273 0.102501 -39.0435 -35.7929 0.102501 
-28.0645 -41.3274 0.102501 -30.7354 -40.4423 0.102501 31.848 -41.3274 0.102501 
35.7301 -38.3026 0.102501 -42.8276 -33.0193 0.102501 -47.3517 -28.4265 0.102501 
41.5188 -33.0193 0.102501 44.0383 -30.3718 0.102501 -49.67 -24.7111 0.102501 
49.0398 -24.7111 0.102501 52.3465 -20.3485 0.102501 -53.3189 -16.4029 0.102501 
54.8272 -16.4029 0.102501 52.3465 -16.4029 7.30161 -54.9164 -8.09471 0.102501 
-55.6599 -2.03953 0.102501 57.7608 -8.09471 0.102501 -55.9447 0.213471 0.102501 
-55.6599 7.28661 0.102501 -55.6599 0.213471 1.81283 58.3885 0.213471 0.102501 
-55.6119 8.52165 0.102501 56.6874 8.52165 0.102501 52.3465 8.52165 7.16916 
-54.2548 16.8298 0.102501 53.7069 16.8298 0.102501 52.3465 19.0656 0.102501 
52.3465 16.8298 2.22926 -50.6091 25.138 0.102501 -47.3517 29.07 0.102501 
47.5695 25.138 0.102501 44.0383 29.6515 0.102501 44.0383 25.138 4.29926 
-41.598 33.4462 0.102501 -39.0435 34.9063 0.102501 -39.0435 33.4462 7.58883 
-30.7354 38.2388 0.102501 -22.4272 40.9955 0.102501 40.3852 33.4462 0.102501 
35.7301 37.5236 0.102501 35.7301 33.4462 4.48082 -20.4869 41.7544 0.102501 
-14.119 44.2265 0.102501 -5.81081 47.0806 0.102501 2.49738 49.0421 0.102501 
10.8056 48.9092 0.102501 19.1137 47.0463 0.102501 29.6266 41.7544 0.102501 
27.4219 43.0071 0.102501 27.4219 41.7544 1.94026 -22.4272 -44.5419 8.41068 
-14.119 -46.8617 8.41068 -5.81081 -48.5493 8.41068 2.49738 -49.478 8.41068 
10.8056 -49.3227 8.41068 19.1137 -47.6646 8.41068 27.4219 -43.3497 8.41068 
-39.0435 -36.5026 8.41068 -30.6171 -41.3274 8.41068 -30.7354 -41.2778 8.41068 
-22.4272 -41.3274 16.6499 30.004 -41.3274 8.41068 27.4219 -41.3274 11.9273 
35.7301 -36.0514 8.41068 -43.0694 -33.0193 8.41068 -47.3517 -27.951 8.41068 
-39.0435 -33.0193 14.8873 38.7386 -33.0193 8.41068 35.7301 -33.0193 12.0205 
44.0383 -27.0103 8.41068 -49.5278 -24.7111 8.41068 -47.3517 -24.7111 13.1399 
46.0235 -24.7111 8.41068 44.0383 -24.7111 10.9349 -52.4796 -16.4029 8.41068 
51.8556 -16.4029 8.41068 44.0383 -16.4029 15.7641 52.3465 -14.9467 8.41068 
-53.7625 -8.09471 8.41068 54.2937 -8.09471 8.41068 52.3465 -8.09471 10.8799 
-54.557 0.213471 8.41068 54.0739 0.213471 8.41068 52.3465 5.92284 8.41068 
52.3465 0.213471 10.4201 -54.1591 8.52165 8.41068 51.3696 8.52165 8.41068 
44.0383 8.52165 14.3518 -52.7444 16.8298 8.41068 35.7301 16.8298 15.2103 
46.638 16.8298 8.41068 44.0383 20.1718 8.41068 44.0383 16.8298 10.5046 
-48.8467 25.138 8.41068 -47.3517 26.9224 8.41068 -47.3517 25.138 10.8374 
-39.0435 33.2818 8.41068 27.4219 25.138 15.104 39.4391 25.138 8.41068 
35.7301 28.8852 8.41068 35.7301 25.138 10.8435 -38.6534 33.4462 8.41068 
-30.7354 36.532 8.41068 -30.7354 33.4462 14.3523 -22.4272 39.3559 8.41068 
19.1137 33.4462 14.5933 30.7909 33.4462 8.41068 27.4219 36.0791 8.41068 
27.4219 33.4462 10.457 -15.6021 41.7544 8.41068 -14.119 42.3019 8.41068 
-14.119 41.7544 9.52389 -5.81081 45.197 8.41068 -5.81081 41.7544 13.9536 
2.49738 46.1841 8.41068 2.49738 41.7544 14.3297 10.8056 44.9934 8.41068 
10.8056 41.7544 12.5209 19.8073 41.7544 8.41068 19.1137 42.1404 8.41068 
19.1137 41.7544 8.86153 -14.119 -43.9525 16.7189 -5.81081 -45.0779 16.7189 
2.49738 -45.832 16.7189 10.8056 -45.5597 16.7189 19.1137 -42.5658 16.7189 
-30.7354 -37.6972 16.7189 -22.3257 -41.3274 16.7189 -22.4272 -41.2881 16.7189 
-14.119 -41.3274 19.2936 -5.81081 -41.3274 20.3145 2.49738 -41.3274 20.5501 
10.8056 -41.3274 19.943 21.4041 -41.3274 16.7189 19.1137 -41.3274 17.6943 
27.4219 -35.8226 16.7189 -37.483 -33.0193 16.7189 -39.0435 -31.6765 16.7189 
-30.7354 -33.0193 20.6703 -22.4272 -33.0193 22.5814 -14.119 -33.0193 23.6595 
-5.81081 -33.0193 23.4278 2.49738 -33.0193 23.1053 10.8056 -33.0193 22.3376 
19.1137 -33.0193 20.6745 29.8723 -33.0193 16.7189 27.4219 -33.0193 17.9924 
35.7301 -26.162 16.7189 -45.1941 -24.7111 16.7189 -47.3517 -19.4415 16.7189 
-39.0435 -24.7111 21.432 -30.7354 -24.7111 24.261 -5.81081 -24.7111 24.8546 
2.49738 -24.7111 23.7294 10.8056 -24.7111 22.887 19.1137 -24.7111 21.5371 
27.4219 -24.7111 20.1609 36.9874 -24.7111 16.7189 35.7301 -24.7111 17.3555 
[...]
POINT_DATA 502
SCALARS ImageScalars float
LOOKUP_TABLE default
0 0 0 0 0 0 0 0 0 
0 0 0 0 0 0 0 0 0 
0 0 0 0 0 0 0 0 0 
0 0 0 0 0 0 0 0 0 
0 0 0 0 0 0 0 0 0 
0 0 0 0 0 0 0 0 0 
0 0 0 0 0 0 0 0 0 
0 0 0 0 0 0 0 0 0 
0 0 0 0 0 0 0 0 0 
0 0 0 0 0 0 0 0 0 
0 0 0 0 0 0 0 0 0 
0 0 0 0 0 0 0 0 0 
0 0 0 0 0 0 0 0 0 
0 0 0 0 0 0 0 0 0 
0 0 0 0 0 0 0 0 0 
0 0 0 0 0 0 0 0 0 
0 0 0 0 0 0 0 0 0 
0 0 0 0 0 0 0 0 0 
0 0 0 0 0 0 0 0 0 
0 0 0 0 0 0 0 0 0 
0 0 0 0 0 0 0 0 0 
0 0 0 0 0 0 0 0 0 
0 0 0 0 0 0 0 0 0 
0 0 0 0 0 0 0 0 0 
0 0 0 0 0 0 0 0 0 
0 0 0 0 0 0 0 0 0 
0 0 0 0 0 0 0 0 0 
0 0 0 0 0 0 0 0 0 
0 0 0 0 0 0 0 0 0 
0 0 0 0 0 0 0 0 0 
0 0 0 0 0 0 0 0 0 
0 0 0 0 0 0 0 0 0 
0 0 0 0 0 0 0 0 0 
0 0 0 0 0 0 0 0 0 
0 0 0 0 0 0 0 0 0 
0 0 0 0 0 0 0 0 0 
0 0 0 0 0 0 0 0 0 
0 0 0 0 0 0 0 0 0 
0 0 0 0 0 0 0 0 0 
0 0 0 0 0 0 0 0 0 
0 0 0 0 0 0 0 0 0 
0 0 0 0 0 0 0 0 0 
0 0 0 0 0 0 0 0 0 
0 0 0 0 0 0 0 0 0 
0 0 0 0 0 0 0 0 0 
0 0 0 0 0 0 0 0 0 
0 0 0 0 0 0 0 0 0 
0 0 0 0 0 0 0 0 0 
0 0 0 0 0 0 0 0 0 
0 0 0 0 0 0 0 0 0 
0 0 0 0 0 0 0 0 0 
0 0 0 0 0 0 0 0 0 
0 0 0 0 0 0 0 0 0 
0 0 0 0 0 0 0 0 0 
0 0 0 0 0 0 0 0 0 
0 0 0 0 0 0 0 
NORMALS Normals float
0.128887 0.549487 0.825501 0.109778 0.449463 0.886528 0.063552 0.399706 0.914438 
-0.0678349 0.418414 0.90572 -0.255953 0.493329 0.831333 0.255823 0.444096 0.858681 
0.199759 0.384717 0.90116 0.131795 0.371585 0.918997 0.0201662 0.338257 0.940838 
0.0152249 0.238742 0.970964 0.0365921 0.184898 0.982076 -0.0251281 0.146662 0.988867 
-0.153338 0.23255 0.960421 -0.35582 0.36262 0.861335 0.327472 0.34394 0.880038 
0.171062 0.27731 0.945429 0.161303 0.172964 0.97163 0.128007 0.139713 0.981883 
-0.0207886 0.143425 0.989443 -0.0649383 0.132168 0.989098 -0.0185345 0.116796 0.992983 
-0.0124984 0.0630877 0.99793 -0.0625778 0.11236 0.991695 -0.196873 0.219259 0.955597 
-0.397543 0.348124 0.848981 0.59631 0.248314 0.763384 0.272741 0.218011 0.937061 
0.0636366 0.164114 0.984387 0.0633598 0.096282 0.993335 0.105936 0.0214788 0.994141 
0.00659882 0.00466608 0.999967 -0.0133471 0.0620193 0.997986 -0.0362194 0.137731 0.989807 
-0.0294297 0.0714055 0.997013 0.0105154 0.0957134 0.995353 -0.103231 0.178801 0.978455 
-0.302806 0.232855 0.924168 -0.646388 0.246232 0.722186 0.563078 0.0911638 0.82136 
0.235788 0.0806549 0.968452 0.0588449 0.0638713 0.996222 0.0179977 0.056905 0.998217 
0.0375957 -0.0420028 0.99841 0.0199769 -0.0360838 0.999149 0.067476 0.00224041 0.997718 
-0.0122066 -0.0569716 0.998301 -0.0559071 0.00839842 0.998401 0.0428661 0.05177 0.997739 
-0.0505982 0.0834717 0.995225 -0.282765 0.0939273 0.954579 -0.643496 0.0764125 0.761626 
0.600936 -0.0783682 0.795446 0.245029 -0.0105487 0.969458 0.0439859 -0.00807618 0.999 
-0.0427448 -0.0231377 0.998818 0.0112691 -0.0661047 0.997749 0.0509017 -0.0546567 0.997207 
-0.0366878 -0.0490995 0.99812 -0.0299763 -0.16161 0.986399 0.0836122 -0.0629407 0.994509 
0.0868008 -0.0313464 0.995732 -0.0578403 -0.0583484 0.996619 -0.291449 -0.0784028 0.953368 
-0.675495 -0.115118 0.728323 0.641009 -0.285994 0.712261 0.280803 -0.219522 0.934323 
0.0425685 -0.12346 0.991436 -0.0397606 -0.0825766 0.995791 0.00543489 -0.0206686 0.999772 
0.0391508 -0.0146574 0.999126 -0.0351126 0.0127143 0.999303 -0.0241788 0.0571457 0.998073 
0.0679849 -0.00544778 0.997671 0.0468009 -0.0870473 0.995104 -0.0989156 -0.145951 0.984334 
-0.35323 -0.21031 0.911591 0.383216 -0.461364 0.800181 0.178077 -0.356211 0.91728 
0.0689057 -0.205967 0.97613 0.0811694 -0.0812287 0.993385 0.0823925 0.00487619 0.996588 
0.0367237 0.0224674 0.999073 -0.0483479 0.082195 0.995443 -0.0610077 -0.00358694 0.998131 
-0.0592618 -0.119854 0.991021 -0.19284 -0.3015 0.933761 -0.547198 -0.476083 0.688418 
0.267567 -0.494977 0.826683 0.216683 -0.323776 0.920987 0.145768 -0.19149 0.97061 
0.0362323 -0.142057 0.989195 -0.0549527 -0.153785 0.986575 -0.125559 -0.173882 0.976729 
-0.260121 -0.300747 0.917544 -0.420392 -0.499716 0.757334 0.250482 -0.632382 0.733043 
0.0907813 -0.527968 0.844398 -0.0704665 -0.502339 0.861794 -0.219792 -0.576479 0.786996 
0.138855 0.577238 0.804684 0.182878 0.769318 0.612132 0.135541 0.545107 0.827337 
0.151603 0.730146 0.666261 0.0587112 0.565291 0.8228 0.0523865 0.721065 0.690884 
-0.0953342 0.595984 0.797317 -0.133179 0.759125 0.637175 -0.278885 0.572599 0.770943 
-0.392005 0.817252 0.422412 0.263722 0.477015 0.838396 0.320843 0.69553 0.642883 
0.204673 0.513412 0.833377 0.214717 0.636173 0.741067 0.15472 0.581871 0.798428 
0.164317 0.578539 0.798932 0.167685 0.602084 0.780625 -0.36526 0.55294 0.748894 
-0.444958 0.511821 0.734882 -0.540058 0.64682 0.538481 0.292083 0.465947 0.835213 
0.367637 0.420763 0.829338 0.429738 0.537347 0.725661 -0.491381 0.470847 0.732699 
-0.503975 0.453843 0.734871 -0.617002 0.568769 0.543885 0.458103 0.359496 0.81296 
0.598587 0.258601 0.758168 0.66492 0.39227 0.635614 -0.547528 0.411287 0.728736 
-0.663393 0.28981 0.68987 -0.771553 0.482477 0.414635 0.605084 0.249378 0.756098 
-0.679304 0.246782 0.691118 0.681938 0.098349 0.724767 -0.737409 0.0675242 0.672063 
0.701316 -0.0985311 0.706009 -0.773642 -0.126108 0.620947 -0.748273 -0.34568 0.56621 
0.661752 -0.288963 0.691798 0.648836 -0.316269 0.692088 -0.74352 -0.356387 0.565832 
-0.75642 -0.361205 0.545307 0.489929 -0.484275 0.724877 0.734122 -0.541069 0.410255 
0.410144 -0.558915 0.720692 0.331225 -0.638584 0.694622 -0.625995 -0.523609 0.577896 
-0.602025 -0.552453 0.576508 0.449597 -0.843995 0.292464 0.336199 -0.640094 0.690833 
0.35546 -0.689756 0.630782 0.331075 -0.639287 0.694047 0.346422 -0.707748 0.615699 
-0.398811 -0.68904 0.605122 -0.512578 -0.560249 0.65068 -0.472175 -0.58366 0.6606 
0.339348 -0.735527 0.586382 0.360916 -0.788785 0.497552 0.277273 -0.770927 0.573403 
0.131813 -0.786888 0.602854 -0.0607598 -0.802173 0.593992 -0.394135 -0.695629 0.600631 
-0.250581 -0.736956 0.627777 -0.405504 -0.710076 0.575638 0.182825 0.7962 0.576751 
0.13924 0.809354 0.570577 0.0236726 0.859432 0.510701 -0.160262 0.870657 0.465051 
-0.400761 0.833217 0.380972 0.330069 0.747891 0.575945 0.247566 0.765611 0.59376 
0.26136 0.869119 0.419908 0.199947 0.787606 0.582837 0.205575 0.78172 0.588772 
0.210748 0.804365 0.555502 -0.429263 0.823716 0.37044 -0.592472 0.737437 0.32429 
0.406691 0.721636 0.560217 0.472741 0.680692 0.559619 0.497723 0.757083 0.423199 
-0.640694 0.702249 0.310416 -0.683605 0.666209 0.298076 0.644534 0.561672 0.518749 
0.704867 0.519233 0.483279 0.748814 0.540434 0.383677 -0.729261 0.619096 0.291372 
-0.80902 0.525463 0.263392 0.82773 0.371374 0.420648 -0.837211 0.483695 0.25518 
0.91446 0.223128 0.337605 -0.938376 0.260089 0.227604 0.957156 0.0608724 0.283101 
0.996112 0.0488031 0.0733414 -0.983689 0.0160469 0.179162 0.954036 -0.110105 0.278733 
-0.972308 -0.206852 0.108759 0.907493 -0.292585 0.301413 -0.904731 -0.420495 0.0681617 
-0.859238 -0.508349 0.0573729 0.776185 -0.546158 0.315037 0.736126 -0.600577 0.312131 
-0.818279 -0.572798 0.0481927 -0.729426 -0.682633 0.0441457 0.453887 -0.844352 0.284704 
0.449501 -0.846869 0.284188 0.390722 -0.88615 0.249148 0.365052 -0.913765 0.17824 
-0.716956 -0.695689 0.0446222 -0.606635 -0.793658 0.0458439 0.35886 -0.918631 0.165337 
0.351563 -0.922972 0.15661 0.301538 -0.942763 0.142381 0.130869 -0.982731 0.130814 
-0.0762381 -0.99086 0.111287 -0.232102 -0.969146 0.0829674 -0.554323 -0.83098 0.046888 
-0.425372 -0.903202 0.0573093 0.263 0.911374 0.316588 0.228262 0.919943 0.318749 
0.202322 0.925887 0.31906 0.100966 0.957295 0.270908 -0.0716748 0.973434 0.217461 
-0.244022 0.957934 0.151051 -0.487893 0.870356 0.0666397 0.528077 0.810033 0.254916 
0.31662 0.897432 0.307193 0.35286 0.88647 0.299434 -0.579969 0.8143 0.0234647 
-0.649134 0.76042 -0.0196435 0.616041 0.754711 0.22562 0.785845 0.59239 0.177546 
-0.707908 0.704355 -0.0524429 -0.730427 0.679525 -0.0687233 0.859793 0.485758 0.157466 
-0.776992 0.623977 -0.0832777 -0.83972 0.53454 -0.0955916 0.95731 0.278701 0.0767067 
-0.887263 0.44842 -0.108091 -0.812723 0.395965 -0.427426 0.988428 0.151623 0.00442212 
0.99717 0.0713709 -0.0236374 -0.964154 0.202159 -0.17187 0.998525 0.0424136 -0.0338897 
0.996518 -0.0769306 -0.0321353 0.995417 0.0383143 -0.0876161 -0.967626 -0.0541417 -0.246513 
0.994702 -0.0977635 -0.0317807 -0.904622 -0.274417 -0.326119 -0.747198 -0.303856 -0.591072 
0.965565 -0.25936 -0.0203993 -0.827262 -0.43149 -0.359796 -0.801016 -0.473469 -0.366334 
-0.78517 -0.431962 -0.443752 0.829861 -0.55795 0.00484292 0.720656 -0.693277 -0.00470668 
-0.723109 -0.559665 -0.404832 -0.684269 -0.60393 -0.40871 -0.637653 -0.52784 -0.561056 
0.512169 -0.85879 -0.0127262 0.444903 -0.895451 -0.0151486 0.42464 -0.86316 -0.273197 
0.329141 -0.942881 -0.0513863 0.334053 -0.938404 -0.0883509 -0.634806 -0.652723 -0.413489 
-0.57366 -0.704152 -0.41843 -0.541994 -0.605256 -0.583016 0.336755 -0.936905 -0.0938393 
0.341156 -0.934012 -0.10599 0.278951 -0.953096 -0.117448 0.106892 -0.975545 -0.192056 
-0.107939 -0.965934 -0.235204 -0.312099 -0.890551 -0.330927 -0.479325 -0.78257 -0.397282 
-0.447982 -0.801633 -0.395849 -0.450711 -0.766815 -0.457005 0.31085 0.947357 -0.076727 
0.231418 0.971232 -0.0561681 0.154387 0.984041 -0.0884782 0.0473035 0.988465 -0.143869 
-0.10314 0.984909 -0.138983 -0.31742 0.919353 -0.232455 -0.563898 0.773807 -0.288516 
0.590979 0.791522 -0.155681 0.409573 0.905775 -0.108722 0.411385 0.904879 -0.109349 
0.287798 0.766297 -0.574422 -0.608001 0.733566 -0.30367 -0.56493 0.690268 -0.452088 
-0.651557 0.658758 -0.376179 0.683008 0.707287 -0.182335 0.810549 0.54969 -0.202117 
0.579036 0.671299 -0.462683 -0.669233 0.630183 -0.393696 -0.614279 0.578571 -0.536579 
-0.696844 0.58596 -0.413594 0.868585 0.456306 -0.193247 0.79676 0.444496 -0.409385 
-0.710504 0.564382 -0.420305 -0.667338 0.534427 -0.518698 0.940912 0.224013 -0.253972 
-0.788898 0.383055 -0.48053 -0.538098 0.277869 -0.795763 -0.80427 0.336691 -0.489682 
0.954393 0.117855 -0.274307 -0.839503 0.115093 -0.531026 -0.775521 0.096769 -0.623862 
0.952238 0.0230516 -0.304484 -0.795999 -0.129367 -0.591313 -0.741143 -0.254488 -0.621243 
-0.746467 -0.142937 -0.649889 0.946532 -0.0995241 -0.306875 -0.703456 -0.311783 -0.638702 
-0.492856 -0.315075 -0.811062 0.909434 -0.258651 -0.325621 -0.361075 -0.355137 -0.862266 
-0.602559 -0.427228 -0.674091 -0.569789 -0.459813 -0.681111 -0.54234 -0.421651 -0.726689 
0.772153 -0.5485 -0.320823 0.724703 -0.611181 -0.31822 0.729296 -0.543107 -0.416127 
0.423215 -0.854204 -0.302036 -0.349689 -0.373702 -0.859106 -0.515494 -0.490839 -0.702384 
-0.482082 -0.513147 -0.710125 -0.453048 -0.466899 -0.759442 0.415972 -0.858087 -0.301087 
0.321359 -0.896898 -0.303813 0.302961 -0.793253 -0.528171 0.302293 -0.905724 -0.297125 
-0.357321 -0.418681 -0.834882 -0.462012 -0.540089 -0.703455 -0.441618 -0.573585 -0.689908 
-0.427916 -0.516663 -0.741584 0.327951 -0.888502 -0.320956 0.331726 -0.884271 -0.328667 
0.32084 -0.87226 -0.369086 0.21074 -0.90632 -0.366295 0.140652 -0.774748 -0.616427 
-0.00346778 -0.883866 -0.467727 -0.0604719 -0.718753 -0.692631 -0.212026 -0.809757 -0.547118 
-0.235676 -0.684265 -0.6901 -0.380662 -0.695558 -0.60934 -0.371138 -0.704613 -0.604795 
-0.375038 -0.691979 -0.616857 0.198118 0.782318 -0.590532 0.09262 0.784149 -0.613622 
0.0261556 0.761506 -0.64763 -0.149808 0.714247 -0.683673 -0.326031 0.588801 -0.739606 
0.389884 0.719169 -0.57514 0.286068 0.763393 -0.579134 0.286732 0.762989 -0.579337 
0.177712 0.648167 -0.740471 0.0655002 0.568941 -0.819766 -0.0232866 0.50022 -0.865585 
-0.157307 0.465433 -0.870992 -0.374164 0.5615 -0.738051 -0.314542 0.531238 -0.78667 
-0.451698 0.440915 -0.775605 0.525114 0.633312 -0.568481 0.554365 0.605806 -0.570683 
0.312305 0.531363 -0.787477 0.154406 0.429611 -0.889715 0.0451765 0.310867 -0.949379 
-0.0318159 0.231968 -0.972203 -0.0628311 0.161238 -0.984913 -0.148894 0.165678 -0.974875 
-0.23879 0.209987 -0.948095 -0.45716 0.401229 -0.793738 -0.399044 0.342671 -0.850494 
-0.441528 0.363233 -0.820436 0.6822 0.417134 -0.600502 0.749012 0.274587 -0.602978 
0.448221 0.353743 -0.820953 0.20149 0.278477 -0.93907 -0.0942103 0.131987 -0.986764 
-0.116935 0.0459147 -0.992078 -0.135204 -0.032756 -0.990276 -0.161291 0.048262 -0.985726 
-0.23416 0.165493 -0.958009 -0.442813 0.350463 -0.825283 -0.408619 0.328261 -0.851631 
0.767402 0.194611 -0.610918 0.735609 0.19207 -0.649606 0.40015 0.15806 -0.902716 
-0.227416 0.0524529 -0.972384 -0.139658 -0.0660482 -0.987994 -0.0458351 -0.0430951 -0.998019 
-0.106876 0.0511645 -0.992955 -0.472345 0.246857 -0.84614 -0.266405 0.172849 -0.948236 
-0.49033 0.161089 -0.85652 0.780689 0.086311 -0.61893 0.702314 0.0774482 -0.707642 
0.375163 0.0105339 -0.926899 -0.246642 0.0761787 -0.966108 -0.229272 0.0786485 -0.97018 
-0.0443765 -0.0601094 -0.997205 -0.0281857 -0.0347642 -0.998998 -0.192649 0.00334976 -0.981262 
-0.489241 0.056045 -0.870346 -0.445938 0.0481267 -0.893769 0.76353 -0.00670914 -0.645737 
0.660629 -0.0224247 -0.750378 0.312497 -0.0745723 -0.946987 -0.292148 0.0965033 -0.951492 
-0.148111 -0.01897 -0.988789 -0.0441312 -0.0849859 -0.995404 -0.195982 -0.136245 -0.971096 
-0.454214 -0.161497 -0.876132 -0.447576 -0.174464 -0.877062 -0.443796 -0.160513 -0.881635 
0.730465 -0.11432 -0.673314 0.65369 -0.111071 -0.748567 0.297374 -0.0805463 -0.951357 
0.0857452 -0.0880369 -0.99242 0.014532 -0.0718381 -0.99731 0.0860626 -0.105671 -0.99067 
-0.311815 -0.106704 -0.944132 -0.21684 -0.0458742 -0.975129 -0.144734 -0.150377 -0.977977 
-0.349822 -0.277569 -0.894751 -0.314603 -0.298962 -0.900914 -0.272669 -0.254863 -0.927737 
0.695234 -0.268631 -0.666699 0.688304 -0.285314 -0.666958 0.68538 -0.267681 -0.677201 
0.321457 -0.228531 -0.918934 0.0962307 -0.183037 -0.978385 -0.00081775 -0.121885 -0.992544 
-0.00459649 -0.127227 -0.991863 -0.0504214 -0.226186 -0.972778 -0.163591 -0.259552 -0.951773 
-0.197287 -0.20265 -0.959172 -0.205984 -0.154778 -0.966237 -0.29591 -0.294612 -0.908648 
-0.290327 -0.303299 -0.90759 -0.245969 -0.245804 -0.937592 0.519584 -0.501993 -0.691401 
0.409331 -0.602383 -0.685261 0.389642 -0.494826 -0.776741 0.267515 -0.693996 -0.668435 
0.18246 -0.41665 -0.890568 0.0763381 -0.324889 -0.942666 -0.00213265 -0.268128 -0.963381 
-0.0696359 -0.231851 -0.970256 -0.147999 -0.193462 -0.969881 -0.206436 -0.216207 -0.954274 
-0.295354 -0.313492 -0.90249 -0.293431 -0.318679 -0.9013 -0.25923 -0.271915 -0.926748 
0.24556 -0.701773 -0.668742 0.222354 -0.692199 -0.6866 0.197342 -0.640698 -0.741999 
0.170688 -0.65467 -0.736391 0.108568 -0.519572 -0.847501 0.0820332 -0.614644 -0.784527 
0.0253709 -0.403312 -0.914711 -0.0908567 -0.564579 -0.820363 -0.131533 -0.338067 -0.931885 
-0.301386 -0.359344 -0.883198 -0.272863 -0.401897 -0.874085 -0.27581 -0.339146 -0.899394 
0.0669106 0.242908 -0.967739 -0.0127548 0.182302 -0.98316 0.0907596 0.238197 -0.966967 
0.181836 0.205282 -0.961663 0.0585706 0.227398 -0.972039 -0.0669824 0.14215 -0.987576 
-0.0241464 0.158181 -0.987115 -0.107493 0.11916 -0.987039 0.254431 0.138808 -0.957078 
0.165455 0.127598 -0.977928 0.0304379 0.0862152 -0.995811 -0.0615772 0.0840483 -0.994557 
-0.179087 0.067229 -0.981533 -0.152762 0.0735167 -0.985525 0.313952 -7.15651e-05 -0.949439 
0.126424 -0.0287086 -0.991561 0.0100128 -0.0659974 -0.99777 -0.0393207 -0.0413264 -0.998372 
-0.213759 0.0578328 -0.975173 -0.124171 0.00736182 -0.992233 -0.166876 0.0661328 -0.983758 
0.155729 -0.106973 -0.98199 0.0902446 -0.102485 -0.990632 0.0925465 -0.117785 -0.988717 
0.014803 -0.0953833 -0.995331 0.0160571 -0.12705 -0.991766 0.0677668 -0.108918 -0.991738 
0.0134486 -0.116166 -0.993139 -0.0358764 5.4942e-07 -0.999356 -0.151078 0.065457 -0.986352 
-0.139413 0.0627311 -0.988245 0.0801405 -0.102928 -0.991455 -0.00364982 -0.169476 -0.985528 
0.0539433 -0.0874751 -0.994705 -0.201874 -0.115682 -0.972556 -0.155695 -0.156083 -0.975396 
-0.149561 -0.113524 -0.982214 
