# vtk DataFile Version 4.2
vtk output
ASCII
DATASET POLYDATA
POINTS 530 float
44.2496 -3.23629 -23.4264 44.2496 5.13669 -23.8517 35.8766 21.8827 -23.7223 
27.5036 30.2556 -23.3106 10.7576 -36.7282 -15.1057 19.1306 -36.7282 -15.2758 
27.5036 -36.7282 -15.4974 -31.1073 -28.3552 -15.5793 -22.7343 -28.3552 -16.7306 
-14.3613 -28.3552 -17.5428 -5.98832 -28.3552 -18.1766 2.38466 -28.3552 -18.8082 
10.7576 -28.3552 -19.1171 19.1306 -28.3552 -19.4566 27.5036 -28.3552 -20.0342 
35.8766 -28.3552 -19.749 44.2496 -28.3552 -18.6695 -39.4803 -19.9823 -16.8885 
-31.1073 -19.9823 -18.249 -22.7343 -19.9823 -18.921 -14.3613 -19.9823 -19.7869 
-5.98832 -19.9823 -20.6844 2.38466 -19.9823 -20.8659 10.7576 -19.9823 -20.2601 
19.1306 -19.9823 -20.5644 27.5036 -19.9823 -21.5419 35.8766 -19.9823 -22.6982 
44.2496 -19.9823 -21.1168 52.6226 -19.9823 -18.9519 -47.8532 -11.6093 -16.9807 
-39.4803 -11.6093 -19.0825 -31.1073 -11.6093 -19.8813 -22.7343 -11.6093 -20.0868 
-14.3613 -11.6093 -21.3745 -5.98832 -11.6093 -21.7864 2.38466 -11.6093 -21.5015 
10.7576 -11.6093 -20.9802 19.1306 -11.6093 -20.4237 27.5036 -11.6093 -21.5862 
35.8766 -11.6093 -22.6515 44.2496 -5.48241 -23.1701 44.2496 -11.6093 -22.4651 
52.6226 -11.6093 -21.124 60.9955 -11.6093 -16.1606 -56.2262 -3.23629 -14.9148 
-47.8532 -3.23629 -19.2803 -39.4803 -3.23629 -20.8712 -31.1073 -3.23629 -20.9819 
-22.7343 -3.23629 -20.2778 -14.3613 -3.23629 -21.7654 -5.98832 -3.23629 -20.7254 
2.38466 -3.23629 -19.7305 10.7576 -3.23629 -22.4781 19.1306 -3.23629 -20.158 
27.5036 -3.23629 -21.6845 40.0888 -3.23629 -23.1701 35.8766 -3.23629 -22.9144 
48.4349 -3.23629 -23.1701 52.6226 -3.23629 -22.8731 60.9955 -3.23629 -17.8003 
-56.2262 5.13669 -15.7494 -47.8532 5.13669 -20.04 -39.4803 5.13669 -21.2531 
-31.1073 5.13669 -21.0953 -22.7343 5.13669 -19.8946 -14.3613 5.13669 -20.5268 
-5.98832 5.13669 -22.345 2.38466 5.13669 -20.9739 10.7576 5.13669 -21.9719 
19.1306 5.13669 -20.6193 27.5036 5.13669 -21.9926 36.0361 5.13669 -23.1701 
35.8766 5.13669 -23.1572 51.7917 5.13669 -23.1701 44.2496 11.0083 -23.1701 
52.6226 5.13669 -23.0841 60.9955 5.13669 -18.0471 -56.2262 13.5097 -14.8508 
-47.8532 13.5097 -18.9863 -39.4803 13.5097 -20.4249 -31.1073 13.5097 -20.5172 
-22.7343 13.5097 -19.7939 -14.3613 13.5097 -19.9272 -5.98832 13.5097 -21.598 
2.38466 13.5097 -20.132 10.7576 13.5097 -20.7446 19.1306 13.5097 -21.5777 
27.5036 13.5097 -22.464 35.8766 13.9164 -23.1701 35.8766 13.5097 -23.1384 
44.2496 13.5097 -22.8797 52.6226 13.5097 -21.5042 60.9955 13.5097 -16.0628 
-47.8532 21.8827 -17.5043 -39.4803 21.8827 -19.068 -31.1073 21.8827 -20.0386 
-22.7343 21.8827 -19.6465 -14.3613 21.8827 -19.7948 -5.98832 21.8827 -20.2422 
2.38466 21.8827 -20.4556 10.7576 21.8827 -21.3379 19.1306 21.8827 -22.4767 
28.1984 21.8827 -23.1701 27.5036 24.0906 -23.1701 27.5036 21.8827 -23.1136 
38.3562 21.8827 -23.1701 35.8766 24.0961 -23.1701 44.2496 21.8827 -21.7228 
52.6226 21.8827 -19.1641 -39.4803 30.2556 -16.4107 -31.1073 30.2556 -17.3325 
-22.7343 30.2556 -17.7536 -14.3613 30.2556 -18.3591 -5.98832 30.2556 -19.4264 
2.38466 30.2556 -20.9717 10.7576 30.2556 -22.1111 25.8746 30.2556 -23.1701 
19.1306 30.2556 -22.5069 28.2006 30.2556 -23.1701 27.5036 30.6681 -23.1701 
35.8766 30.2556 -21.5255 44.2496 30.2556 -19.6594 -5.98832 38.6286 -15.577 
2.38466 38.6286 -18.5609 10.7576 38.6286 -20.3319 19.1306 38.6286 -20.6365 
27.5036 38.6286 -19.6322 35.8766 38.6286 -17.7316 10.7576 -37.0758 -14.7971 
19.1306 -37.2509 -14.7971 27.5036 -37.3592 -14.7971 -31.1073 -29.8268 -14.7971 
-31.1073 -36.7282 -10.1833 -22.7343 -32.4019 -14.7971 -22.7343 -36.7282 -12.1011 
-14.3613 -33.7676 -14.7971 -14.3613 -36.7282 -12.7459 -5.98832 -34.5918 -14.7971 
-5.98832 -36.7282 -13.2447 5.08766 -36.7282 -14.7971 2.38466 -36.4647 -14.7971 
2.38466 -36.7282 -14.5969 32.1219 -36.7282 -14.7971 35.8766 -36.0694 -14.7971 
35.8766 -36.7282 -13.8744 44.2496 -33.3519 -14.7971 44.2496 -36.7282 -9.39661 
-47.8532 -28.3552 -8.1645 -34.9164 -28.3552 -14.7971 -39.4803 -25.7927 -14.7971 
-39.4803 -28.3552 -13.7628 51.499 -28.3552 -14.7971 52.6226 -27.3041 -14.7971 
52.6226 -28.3552 -13.6271 -56.2262 -19.9823 -6.97113 -46.4496 -19.9823 -14.7971 
-47.8532 -18.6323 -14.7971 -47.8532 -19.9823 -14.3061 58.4305 -19.9823 -14.7971 
60.9955 -14.3759 -14.7971 60.9955 -19.9823 -9.6262 -52.6653 -11.6093 -14.7971 
-56.2262 -3.79329 -14.7971 -56.2262 -11.6093 -12.4405 62.055 -11.6093 -14.7971 
-56.3898 -3.23629 -14.7971 64.333 -3.23629 -14.7971 -57.5555 5.13669 -14.7971 
64.5912 5.13669 -14.7971 -56.2932 13.5097 -14.7971 -56.2262 13.6492 -14.7971 
62.2923 13.5097 -14.7971 60.9955 16.2274 -14.7971 -52.3798 21.8827 -14.7971 
-56.2262 21.8827 -11.0198 -47.8532 26.968 -14.7971 58.0771 21.8827 -14.7971 
52.6226 29.0787 -14.7971 60.9955 21.8827 -7.95583 -43.3776 30.2556 -14.7971 
-47.8532 30.2556 -12.1888 -39.4803 32.4475 -14.7971 -31.1073 34.1071 -14.7971 
-22.7343 35.4544 -14.7971 -14.3613 36.6972 -14.7971 51.52 30.2556 -14.7971 
44.2496 36.5661 -14.7971 52.6226 30.2556 -12.4599 -39.4803 38.6286 -7.40678 
-31.1073 38.6286 -9.58054 -22.7343 38.6286 -11.4108 -9.03152 38.6286 -14.7971 
-14.3613 38.6286 -12.9125 -5.98832 39.533 -14.7971 2.38466 43.3073 -14.7971 
10.7576 44.9629 -14.7971 19.1306 45.451 -14.7971 27.5036 43.9855 -14.7971 
41.0791 38.6286 -14.7971 35.8766 41.3491 -14.7971 44.2496 38.6286 -8.40737 
-31.1073 -40.0507 -6.42414 -22.7343 -41.3974 -6.42414 -14.3613 -41.73 -6.42414 
-5.98832 -42.1126 -6.42414 2.38466 -42.5378 -6.42414 10.7576 -42.5459 -6.42414 
19.1306 -42.0871 -6.42414 27.5036 -41.5877 -6.42414 35.8766 -40.546 -6.42414 
44.2496 -38.01 -6.42414 -47.8532 -30.3718 -6.42414 -39.0328 -36.7282 -6.42414 
-39.4803 -36.521 -6.42414 -39.4803 -36.7282 -6.06175 46.4217 -36.7282 -6.42414 
52.6226 -32.3182 -6.42414 -49.8622 -28.3552 -6.42414 -56.2262 -20.5836 -6.42414 
56.5693 -28.3552 -6.42414 60.9955 -21.793 -6.42414 -56.6003 -19.9823 -6.42414 
62.1497 -19.9823 -6.42414 60.9955 -19.9823 -1.50544 -61.0454 -11.6093 -6.42414 
65.2439 -11.6093 -6.42414 -63.2642 -3.23629 -6.42414 67.0365 -3.23629 -6.42414 
-63.992 5.13669 -6.42414 -64.5992 5.13669 -0.385222 67.0452 5.13669 -6.42414 
-63.1363 13.5097 -6.42414 64.9075 13.5097 -6.42414 -59.5554 21.8827 -6.42414 
-56.2262 27.3694 -6.42414 61.5237 21.8827 -6.42414 60.9955 22.6643 -6.42414 
60.9955 21.8827 -5.25098 -53.9179 30.2556 -6.42414 -47.8532 35.1825 -6.42414 
54.8527 30.2556 -6.42414 52.6226 32.4195 -6.42414 52.6226 30.2556 -2.57262 
-40.9403 38.6286 -6.42414 -39.4803 39.1996 -6.42414 -31.1073 40.51 -6.42414 
-22.7343 41.2354 -6.42414 -14.3613 42.349 -6.42414 -5.98832 43.966 -6.42414 
2.38466 46.0144 -6.42414 10.7576 46.7948 -6.42414 19.1306 46.9115 -6.42414 
27.5036 45.6759 -6.42414 35.8766 42.9484 -6.42414 35.8766 38.6286 1.82256 
44.9428 38.6286 -6.42414 44.2496 39.1049 -6.42414 44.2496 38.6286 -5.46044 
-39.4803 -40.1676 1.94885 -31.1073 -43.1021 1.94885 -22.7343 -44.053 1.94885 
-14.3613 -44.3966 1.94885 -5.98832 -44.812 1.94885 2.38466 -44.7715 1.94885 
10.7576 -43.9278 1.94885 19.1306 -42.5571 1.94885 27.5036 -41.3853 1.94885 
35.8766 -39.8629 1.94885 44.2496 -37.045 1.94885 -45.1085 -36.7282 1.94885 
-47.8532 -34.648 1.94885 35.8766 -36.7282 9.14132 44.7444 -36.7282 1.94885 
44.2496 -36.7282 2.59157 52.6226 -30.2392 1.94885 -53.9599 -28.3552 1.94885 
-56.2262 -25.1991 1.94885 54.3952 -28.3552 1.94885 52.6226 -28.3552 4.421 
-59.4479 -19.9823 1.94885 60.0677 -19.9823 1.94885 60.9955 -17.3079 1.94885 
-63.1668 -11.6093 1.94885 62.999 -11.6093 1.94885 60.9955 -11.6093 4.51349 
-64.5399 -3.23629 1.94885 -64.5992 -1.35858 1.94885 64.1886 -3.23629 1.94885 
60.9955 -3.23629 6.39575 -64.8026 5.13669 1.94885 -64.5992 7.58022 1.94885 
-64.5992 5.13669 2.75492 64.2627 5.13669 1.94885 60.9955 5.13669 6.25195 
-64.0715 13.5097 1.94885 61.7659 13.5097 1.94885 60.9955 14.8356 1.94885 
60.9955 13.5097 2.77771 -60.8602 21.8827 1.94885 -56.2262 28.9828 1.94885 
56.9004 21.8827 1.94885 52.6226 26.9706 1.94885 52.6226 21.8827 6.1947 
-55.1633 30.2556 1.94885 -47.8532 36.2141 1.94885 35.8766 38.5535 1.94885 
35.8766 30.2556 10.0174 49.0547 30.2556 1.94885 44.2496 33.9612 1.94885 
44.2496 30.2556 5.66694 -42.8753 38.6286 1.94885 -39.4803 40.0483 1.94885 
-39.4803 38.6286 6.45147 -31.1073 41.2759 1.94885 -31.1073 38.6286 9.69941 
-22.7343 41.719 1.94885 -22.7343 38.6286 10.0984 -14.3613 42.1375 1.94885 
-5.98832 42.9221 1.94885 2.38466 43.3404 1.94885 2.38466 38.6286 9.92018 
10.7576 43.3235 1.94885 10.7576 38.6286 8.42154 19.1306 43.5107 1.94885 
19.1306 38.6286 7.39547 35.6929 38.6286 1.94885 27.5036 41.8986 1.94885 
27.5036 38.6286 5.48834 -39.4803 -39.2831 10.3218 -31.1073 -42.1206 10.3218 
-22.7343 -43.5239 10.3218 -14.3613 -44.4325 10.3218 -5.98832 -45.0231 10.3218 
2.38466 -44.5965 10.3218 10.7576 -43.169 10.3218 19.1306 -40.7006 10.3218 
27.5036 -38.4867 10.3218 -43.6809 -36.7282 10.3218 -47.8532 -33.4822 10.3218 
-39.4803 -36.7282 14.2667 -31.1073 -36.7282 18.4676 19.1306 -36.7282 16.0745 
33.9078 -36.7282 10.3218 27.5036 -36.7282 12.8437 35.8766 -36.0548 10.3218 
44.2496 -30.9289 10.3218 -52.6765 -28.3552 10.3218 -56.2262 -22.992 10.3218 
-47.8532 -28.3552 16.1096 35.8766 -28.3552 16.8622 46.9798 -28.3552 10.3218 
44.2496 -28.3552 12.6276 52.6226 -21.5477 10.3218 -57.9402 -19.9823 10.3218 
-56.2262 -19.9823 13.1371 44.2496 -19.9823 16.1585 53.7855 -19.9823 10.3218 
52.6226 -19.9823 11.262 -61.1317 -11.6093 10.3218 -56.2262 -11.6093 17.2183 
44.2496 -11.6093 17.5939 55.6651 -11.6093 10.3218 52.6226 -11.6093 12.8407 
-62.5839 -3.23629 10.3218 -56.2262 -3.23629 18.1119 44.2496 -3.23629 18.1073 
56.9168 -3.23629 10.3218 52.6226 -3.23629 13.5919 -62.3817 5.13669 10.3218 
-56.2262 5.13669 17.8275 44.2496 5.13669 17.4254 56.5219 5.13669 10.3218 
52.6226 5.13669 13.2621 -61.4421 13.5097 10.3218 -56.2262 13.5097 17.1655 
35.8766 13.5097 18.3394 44.2496 13.5097 15.1613 53.7086 13.5097 10.3218 
52.6226 15.1915 10.3218 52.6226 13.5097 11.1442 -58.087 21.8827 10.3218 
-56.2262 24.7089 10.3218 -56.2262 21.8827 12.7394 27.5036 21.8827 17.9949 
[...]
POINT_DATA 530
SCALARS ImageScalars float
LOOKUP_TABLE default
0 0 0 0 0 0 0 0 0 
0 0 0 0 0 0 0 0 0 
0 0 0 0 0 0 0 0 0 
0 0 0 0 0 0 0 0 0 
0 0 0 0 0 0 0 0 0 
0 0 0 0 0 0 0 0 0 
0 0 0 0 0 0 0 0 0 
0 0 0 0 0 0 0 0 0 
0 0 0 0 0 0 0 0 0 
0 0 0 0 0 0 0 0 0 
0 0 0 0 0 0 0 0 0 
0 0 0 0 0 0 0 0 0 
0 0 0 0 0 0 0 0 0 
0 0 0 0 0 0 0 0 0 
0 0 0 0 0 0 0 0 0 
0 0 0 0 0 0 0 0 0 
0 0 0 0 0 0 0 0 0 
0 0 0 0 0 0 0 0 0 
0 0 0 0 0 0 0 0 0 
0 0 0 0 0 0 0 0 0 
0 0 0 0 0 0 0 0 0 
0 0 0 0 0 0 0 0 0 
0 0 0 0 0 0 0 0 0 
0 0 0 0 0 0 0 0 0 
0 0 0 0 0 0 0 0 0 
0 0 0 0 0 0 0 0 0 
0 0 0 0 0 0 0 0 0 
0 0 0 0 0 0 0 0 0 
0 0 0 0 0 0 0 0 0 
0 0 0 0 0 0 0 0 0 
0 0 0 0 0 0 0 0 0 
0 0 0 0 0 0 0 0 0 
0 0 0 0 0 0 0 0 0 
0 0 0 0 0 0 0 0 0 
0 0 0 0 0 0 0 0 0 
0 0 0 0 0 0 0 0 0 
0 0 0 0 0 0 0 0 0 
0 0 0 0 0 0 0 0 0 
0 0 0 0 0 0 0 0 0 
0 0 0 0 0 0 0 0 0 
0 0 0 0 0 0 0 0 0 
0 0 0 0 0 0 0 0 0 
0 0 0 0 0 0 0 0 0 
0 0 0 0 0 0 0 0 0 
0 0 0 0 0 0 0 0 0 
0 0 0 0 0 0 0 0 0 
0 0 0 0 0 0 0 0 0 
0 0 0 0 0 0 0 0 0 
0 0 0 0 0 0 0 0 0 
0 0 0 0 0 0 0 0 0 
0 0 0 0 0 0 0 0 0 
0 0 0 0 0 0 0 0 0 
0 0 0 0 0 0 0 0 0 
0 0 0 0 0 0 0 0 0 
0 0 0 0 0 0 0 0 0 
0 0 0 0 0 0 0 0 0 
0 0 0 0 0 0 0 0 0 
0 0 0 0 0 0 0 0 0 
0 0 0 0 0 0 0 0 
NORMALS Normals float
-0.00136335 0.0817951 0.996648 -0.00806451 -0.0323648 0.999444 -0.0805067 -0.0954071 0.992177 
-0.0621728 -0.171388 0.98324 0.0332267 0.631362 0.774776 0.0195538 0.66716 0.744658 
-0.0509635 0.716483 0.695741 0.158871 0.389225 0.907339 0.108281 0.343522 0.932881 
0.0786651 0.354154 0.931873 0.0726167 0.379333 0.922406 0.0520206 0.330123 0.942503 
0.0384616 0.273414 0.961127 0.0497246 0.275088 0.960132 0.0187339 0.309697 0.950651 
-0.0719264 0.409213 0.9096 -0.295131 0.489528 0.820524 0.216569 0.297578 0.929809 
0.111089 0.236186 0.965337 0.089165 0.191323 0.977469 0.101979 0.219429 0.970284 
0.0627542 0.203735 0.977013 -0.0256131 0.156016 0.987422 -0.01739 0.104643 0.994358 
0.0753937 0.0584072 0.995442 0.122997 0.0841336 0.988834 -0.0297833 0.17899 0.9834 
-0.200366 0.205786 0.957865 -0.407794 0.360219 0.839015 0.310446 0.271211 0.911081 
0.158487 0.218763 0.962821 0.0573394 0.156509 0.986011 0.0861436 0.0787954 0.993162 
0.103199 0.115741 0.987904 0.00659261 0.00895547 0.999938 -0.0468126 -0.0514384 0.997578 
-0.0665916 0.124838 0.98994 0.0373922 -0.0239529 0.999014 0.132254 0.00839381 0.99118 
0.0521879 0.0130477 0.998552 -0.019935 0.0981398 0.994973 -0.0805186 0.140608 0.986786 
-0.281466 0.226459 0.932466 -0.733009 0.267832 0.625271 0.560736 0.140716 0.81595 
0.316448 0.16119 0.934815 0.0924632 0.127472 0.987523 -0.0356377 0.0715473 0.9968 
0.0384084 -0.00990531 0.999213 0.0371721 -0.0479434 0.998158 -0.119243 0.0282994 0.992462 
0.104325 -0.0408434 0.993704 0.000994278 0.061874 0.998083 -0.0303055 0.0114744 0.999475 
0.162058 0.0239914 0.986489 0.0515891 0.0558611 0.997105 0.102465 0.0299637 0.994285 
-0.146929 0.091035 0.984949 -0.288995 0.0982922 0.952271 -0.642585 0.0762962 0.762406 
0.555627 0.00530294 0.831415 0.304165 -0.0156592 0.952491 0.0557019 -0.0266052 0.998093 
-0.0752307 -0.0271118 0.996798 -0.0390868 -0.0301853 0.99878 0.14333 -0.109768 0.983569 
0.0235956 0.0448959 0.998713 -0.0215007 0.012713 0.999688 -0.0251038 -0.104647 0.994193 
0.00769882 0.0845388 0.99639 0.150142 0.0461608 0.987586 0.106875 0.0124389 0.994195 
0.108927 0.0132891 0.993961 -0.271623 -0.0633913 0.960314 -0.0591922 -0.101098 0.993114 
-0.299301 -0.0664595 0.951841 -0.637105 -0.0856489 0.766004 0.56871 -0.209637 0.795375 
0.275637 -0.151348 0.949272 0.0825756 -0.134218 0.987505 -0.0380783 -0.0619337 0.997354 
-0.0345246 -0.0141959 0.999303 0.106946 -0.0417386 0.993388 0.0123533 -0.125059 0.992072 
-0.0485589 -0.0285623 0.998412 0.0864109 -0.032347 0.995734 0.10108 0.109343 0.988851 
0.0927329 0.0664208 0.993473 0.019716 0.0310521 0.999323 0.0250324 0.0377179 0.998975 
-0.0852828 -0.128796 0.987997 -0.367302 -0.223572 0.902832 -0.701641 -0.291779 0.65005 
0.348442 -0.294498 0.889865 0.144584 -0.222833 0.964075 0.0378552 -0.188071 0.981426 
-0.0135063 -0.114049 0.993383 0.0353685 -0.0916033 0.995167 0.0391421 -0.123515 0.99157 
0.0643283 0.0479696 0.996775 0.123587 0.0817216 0.988963 0.104203 0.0549844 0.993035 
0.0648035 0.038662 0.997149 0.0407135 -0.00899951 0.99913 0.0782216 0.0510916 0.995626 
-0.129063 -0.115676 0.984866 -0.108411 -0.14447 0.983552 -0.250108 -0.170986 0.953001 
-0.454706 -0.373421 0.808579 0.227047 -0.490544 0.841318 0.0745994 -0.443997 0.892917 
0.0610641 -0.361082 0.930532 0.0941896 -0.320347 0.942606 0.15128 -0.227998 0.961837 
0.152927 -0.0893821 0.984187 0.0890364 -0.0513639 0.994703 -0.0374367 -0.158949 0.986577 
0.069308 -0.102619 0.992303 -0.072605 -0.180976 0.980804 -0.0649581 -0.186404 0.980323 
-0.192183 -0.298498 0.934861 -0.405325 -0.465024 0.787061 0.283712 -0.615703 0.735131 
0.254879 -0.47086 0.844587 0.112346 -0.400114 0.909553 -0.0390388 -0.440517 0.896895 
-0.156352 -0.569194 0.8072 -0.343986 -0.698414 0.627608 0.0325673 0.646071 0.762582 
0.0139798 0.690931 0.722785 -0.0548783 0.746225 0.663428 0.172271 0.427368 0.887513 
0.251726 0.684372 0.684302 0.114016 0.472716 0.873808 0.111692 0.665596 0.737907 
0.0610123 0.529491 0.846119 0.0488121 0.667855 0.742689 0.0794185 0.561468 0.823679 
0.0743296 0.654704 0.752222 0.0669893 0.636286 0.768539 0.0822018 0.627958 0.773894 
0.0821174 0.641818 0.762448 -0.125107 0.742264 0.658326 -0.171267 0.727629 0.664247 
-0.183607 0.777531 0.601444 -0.328255 0.68231 0.653224 -0.393535 0.863132 0.316439 
0.558124 0.570914 0.602125 0.227931 0.418322 0.879235 0.28221 0.401636 0.871232 
0.321931 0.462328 0.826204 -0.52035 0.564374 0.640873 -0.542652 0.543516 0.640405 
-0.575375 0.593866 0.562376 0.755535 0.463549 0.462914 0.343235 0.379211 0.859295 
0.362676 0.373864 0.853634 0.379158 0.400285 0.834273 -0.701203 0.408145 0.584578 
-0.767898 0.336013 0.545369 -0.858383 0.4608 0.225484 0.490138 0.282313 0.82466 
0.564599 0.151331 0.811373 0.65619 0.316386 0.685066 -0.779874 0.293873 0.552662 
0.566025 0.142361 0.812003 -0.781662 0.131288 0.609728 0.60275 0.000611109 0.79793 
-0.799855 -0.105309 0.590883 0.571304 -0.210447 0.793299 0.571088 -0.212885 0.792804 
-0.750082 -0.317894 0.579931 -0.745792 -0.362691 0.558792 0.537121 -0.33498 0.774138 
0.728712 -0.392976 0.560847 0.420366 -0.474164 0.773602 -0.72599 -0.43662 0.53132 
-0.607018 -0.59673 0.524826 -0.856716 -0.514238 0.0399662 0.334336 -0.545711 0.768387 
0.469737 -0.622774 0.625699 0.247309 -0.572638 0.781617 0.113876 -0.591651 0.798111 
0.0970652 -0.605547 0.789868 0.134412 -0.611743 0.779554 -0.595019 -0.616009 0.516222 
-0.511057 -0.70089 0.497567 -0.64998 -0.671795 0.355272 0.262428 -0.886639 0.380793 
0.13646 -0.865012 0.482839 0.117873 -0.836477 0.535174 0.231775 -0.652772 0.721227 
0.1468 -0.758822 0.634539 0.292051 -0.650512 0.7011 0.276732 -0.728457 0.626713 
0.106789 -0.858893 0.500898 -0.0528203 -0.871011 0.488415 -0.231045 -0.829431 0.508588 
-0.457274 -0.751787 0.475096 -0.366945 -0.806216 0.464077 -0.532301 -0.84618 0.0251945 
0.242379 0.818549 0.520797 0.0840084 0.868269 0.488928 0.037562 0.882224 0.469328 
0.0439304 0.887058 0.459563 0.0233562 0.910588 0.412655 -0.0257186 0.942179 0.334122 
-0.0542778 0.964991 0.256605 -0.0861368 0.97529 0.203444 -0.221686 0.959147 0.175764 
-0.41397 0.898296 0.147287 0.574389 0.620978 0.533351 0.379636 0.747491 0.545099 
0.387159 0.742948 0.546019 0.390378 0.754493 0.527584 -0.470698 0.872533 0.130881 
-0.649621 0.755357 0.0861896 0.6069 0.589769 0.532772 0.760269 0.474182 0.444008 
-0.75887 0.647023 0.0740123 -0.866918 0.495869 0.0506603 0.768398 0.463903 0.440861 
-0.88421 0.463717 0.0560295 -0.871566 0.452393 -0.188978 0.843045 0.34036 0.41645 
-0.960644 0.274145 0.0448117 0.92631 0.144891 0.347788 -0.994379 0.101941 -0.0286164 
0.950498 -0.00648134 0.310664 0.999573 -0.0208255 0.0205213 -0.992276 -0.119347 -0.0338451 
0.927397 -0.228774 0.295969 -0.951322 -0.308014 -0.0106548 0.837823 -0.420801 0.347821 
0.753289 -0.565259 0.336211 -0.857509 -0.512419 -0.0458783 -0.846637 -0.529935 -0.0487248 
-0.848388 -0.518076 -0.108785 0.674318 -0.656276 0.338521 0.497793 -0.799338 0.336541 
-0.712755 -0.697711 -0.0719677 -0.675574 -0.733979 -0.0698193 -0.651814 -0.69371 -0.30644 
0.299647 -0.894969 0.330517 0.263126 -0.906668 0.329723 0.124278 -0.940387 0.316588 
0.107353 -0.958063 0.265687 0.153857 -0.962662 0.222732 0.222695 -0.966965 0.12404 
0.168114 -0.984972 -0.0396019 0.0492423 -0.994208 -0.0955279 -0.0620856 -0.993649 -0.0938428 
-0.220219 -0.970911 -0.0939974 -0.387939 -0.91548 -0.106767 -0.362092 -0.739719 -0.56719 
-0.529085 -0.840989 -0.113162 -0.514892 -0.849232 -0.117012 -0.511835 -0.841847 -0.171226 
0.426181 0.897029 0.117089 0.228706 0.968957 0.0938942 0.0742904 0.991562 0.106234 
0.0448734 0.988761 0.142614 0.0220477 0.988397 0.150284 -0.051864 0.992924 0.106828 
-0.130952 0.990665 0.0378792 -0.147842 0.986422 -0.0715184 -0.153336 0.974591 -0.163277 
-0.253215 0.940775 -0.225443 -0.449273 0.846076 -0.286895 0.562295 0.819889 0.107732 
0.633731 0.76676 0.102293 -0.30921 0.812972 -0.493423 -0.461045 0.838799 -0.289576 
-0.453762 0.835028 -0.311171 -0.668057 0.648992 -0.364019 0.768858 0.633078 0.0898373 
0.824698 0.561273 0.0696163 -0.709997 0.601214 -0.366669 -0.661075 0.595149 -0.456923 
0.888763 0.455156 0.0541541 -0.826125 0.42247 -0.372876 -0.839619 0.364623 -0.402605 
0.957646 0.287315 -0.019068 -0.856852 0.225471 -0.463646 -0.810349 0.206295 -0.548431 
0.995189 0.0917224 -0.0344388 0.996852 0.0650725 -0.0452907 -0.884698 0.0599581 -0.462292 
-0.766318 0.0638639 -0.63928 0.996319 -0.0257553 -0.0817664 0.993155 -0.0833234 -0.0818578 
0.993194 -0.0283852 -0.112959 -0.872912 -0.103299 -0.476817 -0.744558 -0.144538 -0.651722 
0.97067 -0.226369 -0.0809761 -0.762347 -0.359826 -0.537915 -0.750774 -0.384804 -0.536903 
-0.746571 -0.357359 -0.561183 0.901434 -0.425937 -0.0774202 0.766852 -0.634319 -0.0978674 
-0.68103 -0.496844 -0.537907 -0.591211 -0.579585 -0.560848 -0.548692 -0.496815 -0.672392 
0.727209 -0.678925 -0.101137 0.502445 -0.85829 -0.104342 -0.361313 -0.735193 -0.573537 
-0.316741 -0.579175 -0.751154 -0.529566 -0.633822 -0.563764 -0.453478 -0.689578 -0.56466 
-0.447909 -0.608939 -0.654653 0.357118 -0.927635 -0.109363 0.270441 -0.95801 -0.0952846 
0.281908 -0.902323 -0.3261 0.10356 -0.987784 -0.116442 0.0751014 -0.876476 -0.475552 
0.0504426 -0.988619 -0.141732 0.0355328 -0.853234 -0.520316 0.0698704 -0.98126 -0.179576 
0.0693846 -0.963857 -0.257228 0.0235426 -0.923102 -0.383834 -0.100729 -0.801609 -0.589302 
0.00778731 -0.867379 -0.497586 -0.0912632 -0.757135 -0.646852 -0.0645138 -0.815154 -0.575641 
-0.116321 -0.732113 -0.671178 -0.358706 -0.736756 -0.573168 -0.225626 -0.790865 -0.568881 
-0.228039 -0.724729 -0.650205 0.417523 0.855035 -0.307555 0.241179 0.921186 -0.305367 
0.127553 0.955676 -0.265357 0.0844995 0.973945 -0.210455 0.00941185 0.982699 -0.184971 
-0.10087 0.970455 -0.219187 -0.220611 0.932213 -0.286895 -0.247889 0.889998 -0.382694 
-0.239028 0.848862 -0.471486 0.520702 0.795571 -0.309735 0.629579 0.71146 -0.312177 
0.406456 0.758589 -0.509251 0.231483 0.661248 -0.71356 -0.252808 0.695598 -0.672481 
-0.299377 0.797334 -0.524053 -0.252032 0.77968 -0.573218 -0.321037 0.771166 -0.549762 
-0.506799 0.58982 -0.628703 0.731215 0.595465 -0.332785 0.809198 0.48562 -0.330714 
0.592786 0.527617 -0.608462 -0.304101 0.437114 -0.846436 -0.549006 0.529336 -0.646835 
-0.509103 0.498209 -0.701856 -0.601824 0.365823 -0.709916 0.840683 0.420607 -0.341088 
0.787 0.407155 -0.463525 -0.4437 0.227112 -0.86692 -0.629223 0.322018 -0.707378 
-0.587326 0.319108 -0.743786 0.888167 0.24066 -0.391461 0.709695 0.169016 -0.683934 
-0.407724 0.102069 -0.907383 -0.653069 0.126294 -0.746693 -0.57424 0.116595 -0.810342 
0.904386 0.0753972 -0.420002 0.643898 0.0255227 -0.764685 -0.356815 -0.00874647 -0.934134 
-0.629436 0.0351124 -0.776258 -0.550192 0.0193673 -0.834813 0.892456 -0.0572592 -0.447487 
0.643903 -0.0379216 -0.764167 -0.365979 -0.158197 -0.917078 -0.602911 -0.13091 -0.786995 
-0.5276 -0.129798 -0.839518 0.857088 -0.230531 -0.460712 0.647909 -0.210853 -0.731953 
-0.320898 -0.269046 -0.908096 -0.382523 -0.292019 -0.876585 -0.560169 -0.306252 -0.769688 
-0.528964 -0.345566 -0.775101 -0.532122 -0.311708 -0.7872 0.765464 -0.430769 -0.47802 
0.718274 -0.505984 -0.477559 0.697963 -0.435133 -0.568776 -0.265959 -0.420947 -0.867219 
-0.316501 -0.570339 -0.757984 -0.322363 -0.412985 -0.851778 -0.434127 -0.456499 -0.776623 
-0.419218 -0.475467 -0.773426 -0.416565 -0.442907 -0.793918 0.561483 -0.661314 -0.497393 
0.462612 -0.733901 -0.497373 0.433888 -0.631923 -0.642195 0.265645 -0.793099 -0.548112 
0.191354 -0.591844 -0.78301 0.0740834 -0.857056 -0.509869 0.0505659 -0.528448 -0.847458 
0.0347348 -0.845415 -0.53298 0.00698828 -0.507182 -0.861811 0.0353817 -0.4665 -0.883813 
0.00698773 -0.481266 -0.876547 -0.106486 -0.791178 -0.602245 -0.0830958 -0.51831 -0.851146 
-0.117849 -0.719895 -0.684005 -0.150602 -0.591578 -0.792057 -0.134063 -0.679027 -0.721768 
-0.171719 -0.599162 -0.781996 -0.3059 -0.577324 -0.757048 -0.216573 -0.614669 -0.758471 
-0.220778 -0.568032 -0.792841 0.0350852 -0.844823 -0.533894 0.035218 -0.837148 -0.545842 
0.0355071 -0.822223 -0.568057 -0.0837264 -0.807854 -0.583405 -0.0310188 -0.838002 -0.544785 
-0.0309592 -0.81993 -0.571627 0.133183 0.684316 -0.71692 0.0946401 0.680977 -0.726164 
0.0200362 0.693201 -0.720465 -0.128502 0.681271 -0.720664 -0.247393 0.590482 -0.768198 
0.367904 0.55875 -0.743267 0.220462 0.653335 -0.724258 0.22855 0.64659 -0.727796 
0.128323 0.629687 -0.766178 0.0744991 0.554653 -0.82874 0.0162628 0.518888 -0.854688 
-0.130853 0.522476 -0.842553 -0.24806 0.58045 -0.775593 -0.24528 0.565087 -0.787727 
-0.232714 0.49341 -0.838088 -0.233706 0.411124 -0.881112 0.480076 0.469913 -0.740749 
0.513999 0.4101 -0.753408 0.326462 0.425556 -0.843993 0.152496 0.346666 -0.925509 
0.0613754 0.283061 -0.957136 0.0145592 0.23323 -0.972313 -0.0205706 0.19288 -0.981007 
-0.102587 0.196575 -0.975107 -0.165547 0.247674 -0.954595 -0.193444 0.30526 -0.932414 
-0.243401 0.381359 -0.891808 -0.229268 0.369803 -0.900379 -0.279479 0.277257 -0.91925 
0.553938 0.336113 -0.761696 0.460276 0.306178 -0.833308 0.275754 0.183719 -0.943508 
0.0692134 0.123087 -0.989979 -0.0108416 0.0439408 -0.998975 -0.0355002 0.0206324 -0.999157 
-0.0201077 0.0223757 -0.999547 -0.0724631 0.091696 -0.993147 -0.140634 0.0808845 -0.986752 
-0.149142 0.0761821 -0.985877 -0.170404 0.120103 -0.978027 -0.314806 0.206043 -0.926522 
-0.27087 0.202689 -0.941035 0.628941 0.147417 -0.763349 0.356869 0.11675 -0.92683 
0.152769 0.0303096 -0.987797 0.0306304 -0.012563 -0.999452 -0.0396818 -0.0727496 -0.996561 
-0.0108785 -0.0406996 -0.999112 0.0495694 0.00974268 -0.998723 -0.0471085 -0.0477124 -0.99775 
-0.18119 0.0122449 -0.983372 -0.155415 0.00485598 -0.987837 -0.108595 0.0272025 -0.993714 
-0.342881 0.0832551 -0.935682 -0.215844 0.0443451 -0.97542 0.606499 0.0190805 -0.794856 
0.350313 -0.0133175 -0.936538 0.128742 -0.0115251 -0.991611 -0.0310324 -0.0334919 -0.998957 
-0.0383096 -0.041041 -0.998423 0.0473672 0.0406472 -0.99805 -0.0285767 0.0604146 -0.997764 
-0.073848 -0.198685 -0.977277 -0.0844253 -0.0556359 -0.994875 -0.132417 0.0609966 -0.989315 
-0.129081 0.0312885 -0.99114 -0.317876 -0.0147837 -0.948017 -0.210468 -0.0282313 -0.977193 
0.5879 -0.0386116 -0.808012 0.337907 -0.0803583 -0.937743 0.125435 -0.0898872 -0.988021 
0.00199593 -0.0875311 -0.99616 0.0340497 -0.0713574 -0.996869 0.0957411 -0.0300816 -0.994952 
-0.188926 -0.000445715 -0.981991 -0.159751 -0.0517191 -0.985802 0.0746861 -0.0623589 -0.995255 
-0.0671721 0.0327192 -0.997205 -0.197337 -0.0362504 -0.979665 -0.317542 -0.140896 -0.937718 
-0.310544 -0.241664 -0.919326 -0.261046 -0.114191 -0.958548 0.54964 -0.2067 -0.809427 
0.327582 -0.191905 -0.925128 0.127 -0.188066 -0.973911 -0.01408 -0.172437 -0.98492 
0.00533445 -0.195261 -0.980737 0.117911 -0.274388 -0.954363 -0.0598119 -0.238913 -0.969197 
-0.123645 -0.0281728 -0.991927 0.00430902 -0.112118 -0.993686 -0.106912 -0.17995 -0.977849 
-0.314375 -0.263137 -0.9121 -0.268909 -0.377941 -0.885917 -0.270084 -0.218825 -0.937641 
0.379151 -0.392845 -0.837805 0.37479 -0.395654 -0.838445 0.374588 -0.392049 -0.840227 
0.172417 -0.476873 -0.861896 0.151663 -0.364076 -0.918938 0.0409728 -0.478341 -0.877218 
0.012731 -0.335422 -0.941982 -0.0117434 -0.443078 -0.896406 -0.0553332 -0.300159 -0.952283 
0.0328199 -0.415453 -0.909022 0.0333955 -0.32621 -0.944707 0.0137246 -0.462299 -0.886618 
0.0562975 -0.377588 -0.924261 -0.0721009 -0.470625 -0.879382 -0.0354132 -0.27413 -0.96104 
-0.127428 -0.483933 -0.865778 -0.0844327 -0.336284 -0.937968 -0.240605 -0.423021 -0.873592 
-0.1805 -0.482231 -0.857247 -0.174377 -0.427359 -0.887106 
