# vtk DataFile Version 4.2
vtk output
ASCII
DATASET POLYDATA
POINTS 524 float
-17.2793 -30.7292 -24.1437 -25.6429 -39.0928 -19.266 -17.2793 -32.1368 -23.7698 
-17.2793 -39.0928 -21.7046 -8.91556 -39.0928 -21.4625 -0.551867 -39.0928 -20.2886 
7.81182 -39.0928 -17.7692 -42.3703 -30.7292 -16.1225 -34.0066 -30.7292 -20.2797 
-19.1343 -30.7292 -23.7698 -25.6429 -30.7292 -22.53 -13.0678 -30.7292 -23.7698 
-17.2793 -23.6169 -23.7698 -8.91556 -30.7292 -23.417 -0.551867 -30.7292 -22.6661 
7.81182 -30.7292 -21.536 16.1755 -30.7292 -20.6607 24.5392 -30.7292 -19.7838 
32.9029 -30.7292 -16.8511 -42.3703 -22.3655 -19.2573 -34.0066 -22.3655 -22.585 
-25.6429 -22.3655 -23.5161 -17.2793 -22.3655 -23.7074 -8.91556 -22.3655 -23.1145 
-0.551867 -22.3655 -22.6272 7.81182 -22.3655 -22.3205 16.1755 -22.3655 -22.5941 
24.5392 -22.3655 -23.1746 32.9029 -22.3655 -21.7252 41.2666 -22.3655 -19.4869 
-50.734 -14.0018 -17.1111 -42.3703 -14.0018 -20.4029 -34.0066 -14.0018 -21.9152 
-25.6429 -14.0018 -22.2961 -17.2793 -14.0018 -22.117 -8.91556 -14.0018 -21.6366 
-0.551867 -14.0018 -21.5578 7.81182 -14.0018 -22.2411 16.1755 -14.0018 -22.3942 
24.5392 -14.0018 -23.5446 32.9029 -14.0018 -23.499 41.2666 -14.0018 -22.283 
49.6303 -14.0018 -17.6646 -50.734 -5.63808 -17.2875 -42.3703 -5.63808 -20.3479 
-34.0066 -5.63808 -21.0894 -25.6429 -5.63808 -20.8226 -17.2793 -5.63808 -19.9707 
-8.91556 -5.63808 -21.5375 -0.551867 -5.63808 -22.3404 7.81182 -5.63808 -22.7107 
16.1755 -5.63808 -21.9923 24.5392 -5.63808 -22.987 32.9029 -5.63808 -23.5727 
41.2666 -5.63808 -23.5326 49.6303 -5.63808 -20.075 -50.734 2.72561 -16.784 
-42.3703 2.72561 -19.6502 -34.0066 2.72561 -20.2927 -25.6429 2.72561 -19.5864 
-17.2793 2.72561 -18.4841 -8.91556 2.72561 -22.0122 -0.551867 2.72561 -21.8108 
7.81182 2.72561 -22.6251 16.1755 2.72561 -22.462 24.5392 2.72561 -23.3179 
32.9029 2.72561 -23.7606 41.2666 2.72561 -22.9918 49.6303 2.72561 -19.7685 
-50.734 11.0893 -16.9107 -42.3703 11.0893 -19.6497 -34.0066 11.0893 -20.2916 
-25.6429 11.0893 -20.3193 -17.2793 11.0893 -20.1679 -8.91556 11.0893 -20.943 
-0.551867 11.0893 -21.1045 7.81182 11.0893 -22.3573 16.1755 11.0893 -22.5804 
24.5392 11.0893 -23.107 32.9029 11.0893 -23.7191 41.2666 11.0893 -22.5598 
49.6303 11.0893 -18.7974 -42.3703 19.453 -19.0069 -34.0066 19.453 -21.3454 
-25.6429 19.453 -22.2515 -17.2793 19.453 -21.9941 -8.91556 19.453 -21.2921 
-0.551867 19.453 -21.1041 7.81182 19.453 -22.1391 16.1755 19.453 -22.2584 
24.5392 19.453 -22.294 32.9029 19.453 -21.9776 41.2666 19.453 -20.4854 
49.6303 19.453 -16.3356 -42.3703 27.8167 -16.9314 -34.0066 27.8167 -20.1847 
-25.6429 27.8167 -21.6654 -17.2793 27.8167 -21.8158 -8.91556 27.8167 -20.9147 
-0.551867 27.8167 -21.0824 7.81182 27.8167 -21.7036 16.1755 27.8167 -21.7799 
24.5392 27.8167 -20.7776 32.9029 27.8167 -19.8758 41.2666 27.8167 -16.611 
-34.0066 36.1804 -17.4541 -25.6429 36.1804 -18.9415 -17.2793 36.1804 -19.3265 
-8.91556 36.1804 -19.3378 -0.551867 36.1804 -19.1503 7.81182 36.1804 -19.251 
16.1755 36.1804 -19.0573 24.5392 36.1804 -16.9958 -25.6429 -43.0234 -15.4061 
-17.2793 -45.9079 -15.4061 -8.91556 -46.1053 -15.4061 -8.91556 -47.4565 -7.87071 
-0.551867 -44.4285 -15.4061 7.81182 -41.1404 -15.4061 -42.3703 -31.5485 -15.4061 
-33.6778 -39.0928 -15.4061 -34.0066 -38.8562 -15.4061 -34.0066 -39.0928 -14.9613 
12.309 -39.0928 -15.4061 16.1755 -37.1349 -15.4061 24.5392 -34.6711 -15.4061 
32.9029 -31.9407 -15.4061 -43.1516 -30.7292 -15.4061 35.6954 -30.7292 -15.4061 
41.2666 -27.6441 -15.4061 41.2666 -30.7292 -8.88344 -48.629 -22.3655 -15.4061 
-50.734 -18.651 -15.4061 -50.734 -22.3655 -12.5291 47.1369 -22.3655 -15.4061 
49.6303 -18.4648 -15.4061 49.6303 -22.3655 -11.6719 -52.629 -14.0018 -15.4061 
52.001 -14.0018 -15.4061 -53.0847 -5.63808 -15.4061 54.5302 -5.63808 -15.4061 
57.994 -5.63808 -9.77079 -52.5998 2.72561 -15.4061 -59.0977 2.72561 -7.07363 
54.7467 2.72561 -15.4061 57.994 2.72561 -10.2603 -52.6739 11.0893 -15.4061 
-50.734 17.0083 -15.4061 53.4324 11.0893 -15.4061 57.994 11.0893 -8.20882 
-49.5254 19.453 -15.4061 -50.734 19.453 -14.3655 50.7357 19.453 -15.4061 
49.6303 21.1334 -15.4061 -44.6153 27.8167 -15.4061 -50.734 27.8167 -8.48305 
-42.3703 30.6584 -15.4061 32.9029 35.3337 -15.4061 43.2295 27.8167 -15.4061 
41.2666 29.4599 -15.4061 49.6303 27.8167 -9.21889 -37.4215 36.1804 -15.4061 
-42.3703 36.1804 -10.0964 -34.0066 38.3246 -15.4061 -25.6429 40.605 -15.4061 
-17.2793 41.6727 -15.4061 -8.91556 41.5878 -15.4061 -0.551867 41.6421 -15.4061 
7.81182 41.2642 -15.4061 16.1755 40.3767 -15.4061 30.6421 36.1804 -15.4061 
24.5392 37.9283 -15.4061 32.9029 36.1804 -14.3261 -25.6429 44.5441 -8.69209 
-17.2793 44.5441 -11.3599 -8.91556 44.5441 -11.3912 -0.551867 44.5441 -10.5414 
7.81182 44.5441 -7.27037 -8.91556 -47.5721 -7.04246 -34.0066 -41.7786 -7.04246 
-25.6429 -45.4951 -7.04246 -13.8079 -47.4565 -7.04246 -17.2793 -47.3754 -7.04246 
-8.38443 -47.4565 -7.04246 -8.91556 -47.4565 -6.58936 -0.551867 -45.7179 -7.04246 
7.81182 -42.2765 -7.04246 -38.0124 -39.0928 -7.04246 -42.3703 -35.7203 -7.04246 
14.6927 -39.0928 -7.04246 16.1755 -38.4131 -7.04246 24.5392 -36.0027 -7.04246 
32.9029 -34.2681 -7.04246 41.2666 -31.447 -7.04246 -47.3382 -30.7292 -7.04246 
-50.734 -26.3253 -7.04246 42.4086 -30.7292 -7.04246 49.6303 -25.1711 -7.04246 
-53.3982 -22.3655 -7.04246 52.1986 -22.3655 -7.04246 -57.1051 -14.0018 -7.04246 
56.7919 -14.0018 -7.04246 57.994 -10.1057 -7.04246 -58.8607 -5.63808 -7.04246 
-59.0977 2.1866 -7.04246 59.2723 -5.63808 -7.04246 -59.1133 2.72561 -7.04246 
-59.0977 2.89583 -7.04246 -59.0977 2.72561 -6.81323 59.5246 2.72561 -7.04246 
-58.2836 11.0893 -7.04246 58.5513 11.0893 -7.04246 57.994 13.3405 -7.04246 
-55.5863 19.453 -7.04246 56.2281 19.453 -7.04246 -51.6427 27.8167 -7.04246 
-50.734 29.1131 -7.04246 41.2666 36.0057 -7.04246 50.9253 27.8167 -7.04246 
49.6303 29.2571 -7.04246 -44.591 36.1804 -7.04246 -42.3703 38.1697 -7.04246 
-34.0066 42.6374 -7.04246 16.1755 43.19 -7.04246 24.5392 41.8507 -7.04246 
40.9393 36.1804 -7.04246 32.9029 39.9792 -7.04246 -28.1152 44.5441 -7.04246 
-25.6429 45.284 -7.04246 -17.2793 46.5503 -7.04246 -8.91556 46.6013 -7.04246 
-0.551867 45.9132 -7.04246 8.19454 44.5441 -7.04246 7.81182 44.6086 -7.04246 
7.81182 44.5441 -6.78372 -34.0066 -40.7237 1.32124 -25.6429 -44.2406 1.32124 
-17.2793 -46.0212 1.32124 -8.91556 -45.3695 1.32124 -0.551867 -43.2298 1.32124 
7.81182 -39.9312 1.32124 -36.4973 -39.0928 1.32124 -42.3703 -34.485 1.32124 
-34.0066 -39.0928 5.20018 9.82195 -39.0928 1.32124 7.81182 -39.0928 4.38789 
16.1755 -36.7108 1.32124 24.5392 -35.1156 1.32124 32.9029 -33.9656 1.32124 
41.2666 -31.6053 1.32124 -45.97 -30.7292 1.32124 -50.734 -24.3597 1.32124 
-42.3703 -30.7292 7.67325 42.6436 -30.7292 1.32124 41.2666 -30.7292 5.6612 
49.6303 -25.676 1.32124 -52.2094 -22.3655 1.32124 -50.734 -22.3655 3.77185 
52.8062 -22.3655 1.32124 -55.5635 -14.0018 1.32124 57.5928 -14.0018 1.32124 
57.994 -12.835 1.32124 -57.6905 -5.63808 1.32124 60.3435 -5.63808 1.32124 
-58.5368 2.72561 1.32124 60.5427 2.72561 1.32124 -57.8535 11.0893 1.32124 
59.423 11.0893 1.32124 57.994 16.1414 1.32124 57.994 11.0893 6.84321 
-55.6232 19.453 1.32124 56.9059 19.453 1.32124 -51.7781 27.8167 1.32124 
-50.734 29.3902 1.32124 -50.734 27.8167 3.92131 41.2666 35.4801 1.32124 
51.2523 27.8167 1.32124 49.6303 29.5293 1.32124 49.6303 27.8167 5.06809 
-44.7895 36.1804 1.32124 -42.3703 38.2303 1.32124 -42.3703 36.1804 6.20207 
-34.0066 42.8488 1.32124 7.81182 42.3772 1.32124 16.1755 40.8722 1.32124 
16.1755 36.1804 8.7889 24.5392 40.2068 1.32124 24.5392 36.1804 8.25827 
39.7089 36.1804 1.32124 32.9029 39.0852 1.32124 32.9029 36.1804 6.79977 
-28.7388 44.5441 1.32124 -25.6429 45.482 1.32124 -25.6429 44.5441 4.4313 
-17.2793 46.775 1.32124 -17.2793 44.5441 8.13906 -8.91556 46.3604 1.32124 
-8.91556 44.5441 6.12785 -0.0368111 44.5441 1.32124 -0.551867 44.691 1.32124 
-0.551867 44.5441 1.64089 -25.6429 -41.1949 9.68493 -17.2793 -42.8497 9.68493 
-8.91556 -42.3472 9.68493 -0.551867 -40.3527 9.68493 -30.1297 -39.0928 9.68493 
-34.0066 -36.5152 9.68493 -25.6429 -39.0928 12.7422 -17.2793 -39.0928 15.8503 
-8.91556 -39.0928 16.221 3.49945 -39.0928 9.68493 -0.551867 -39.0928 12.7971 
7.81182 -37.7433 9.68493 16.1755 -35.8719 9.68493 24.5392 -34.8677 9.68493 
32.9029 -33.1988 9.68493 -40.7813 -30.7292 9.68493 -42.3703 -28.6943 9.68493 
-34.0066 -30.7292 14.8295 39.4329 -30.7292 9.68493 32.9029 -30.7292 16.4039 
41.2666 -29.8924 9.68493 49.6303 -23.3473 9.68493 -46.5209 -22.3655 9.68493 
-50.734 -14.3946 9.68493 -42.3703 -22.3655 13.2891 50.5403 -22.3655 9.68493 
49.6303 -22.3655 11.1094 -50.9033 -14.0018 9.68493 -50.734 -14.0018 9.87309 
-42.3703 -14.0018 16.6487 55.8628 -14.0018 9.68493 57.994 -7.62189 9.68493 
-53.0145 -5.63808 9.68493 -50.734 -5.63808 12.2933 58.628 -5.63808 9.68493 
57.994 -5.63808 10.8594 -54.1415 2.72561 9.68493 -50.734 2.72561 13.4136 
58.7219 2.72561 9.68493 57.994 6.83371 9.68493 57.994 2.72561 10.9863 
-53.9444 11.0893 9.68493 -50.734 11.0893 13.5423 57.1328 11.0893 9.68493 
-52.1009 19.453 9.68493 -50.734 22.5977 9.68493 -50.734 19.453 11.4522 
53.6178 19.453 9.68493 49.6303 24.8518 9.68493 49.6303 19.453 14.1185 
-47.9356 27.8167 9.68493 -42.3703 34.3291 9.68493 -42.3703 27.8167 15.1824 
7.81182 27.8167 17.5722 16.1755 35.501 9.68493 16.1755 27.8167 16.7273 
24.5392 35.1654 9.68493 24.5392 27.8167 16.288 32.9029 34.2726 9.68493 
32.9029 27.8167 15.6941 45.9628 27.8167 9.68493 41.2666 31.0057 9.68493 
41.2666 27.8167 12.8358 -40.1589 36.1804 9.68493 -34.0066 39.883 9.68493 
-34.0066 36.1804 14.4661 -25.6429 42.7372 9.68493 -25.6429 36.1804 17.3439 
-17.2793 43.9269 9.68493 -17.2793 36.1804 17.7111 -8.91556 42.9026 9.68493 
-8.91556 36.1804 16.7402 -0.551867 40.3232 9.68493 -0.551867 36.1804 14.1782 
12.8348 36.1804 9.68493 7.81182 37.1671 9.68493 7.81182 36.1804 10.8319 
-25.6429 -33.2923 18.0486 -17.2793 -37.2027 18.0486 -8.91556 -37.9322 18.0486 
-0.551867 -36.6398 18.0486 7.81182 -35.0742 18.0486 16.1755 -34.1318 18.0486 
[...]
POINT_DATA 524
SCALARS ImageScalars float
LOOKUP_TABLE default
0 0 0 0 0 0 0 0 0 
0 0 0 0 0 0 0 0 0 
0 0 0 0 0 0 0 0 0 
0 0 0 0 0 0 0 0 0 
0 0 0 0 0 0 0 0 0 
0 0 0 0 0 0 0 0 0 
0 0 0 0 0 0 0 0 0 
0 0 0 0 0 0 0 0 0 
0 0 0 0 0 0 0 0 0 
0 0 0 0 0 0 0 0 0 
0 0 0 0 0 0 0 0 0 
0 0 0 0 0 0 0 0 0 
0 0 0 0 0 0 0 0 0 
0 0 0 0 0 0 0 0 0 
0 0 0 0 0 0 0 0 0 
0 0 0 0 0 0 0 0 0 
0 0 0 0 0 0 0 0 0 
0 0 0 0 0 0 0 0 0 
0 0 0 0 0 0 0 0 0 
0 0 0 0 0 0 0 0 0 
0 0 0 0 0 0 0 0 0 
0 0 0 0 0 0 0 0 0 
0 0 0 0 0 0 0 0 0 
0 0 0 0 0 0 0 0 0 
0 0 0 0 0 0 0 0 0 
0 0 0 0 0 0 0 0 0 
0 0 0 0 0 0 0 0 0 
0 0 0 0 0 0 0 0 0 
0 0 0 0 0 0 0 0 0 
0 0 0 0 0 0 0 0 0 
0 0 0 0 0 0 0 0 0 
0 0 0 0 0 0 0 0 0 
0 0 0 0 0 0 0 0 0 
0 0 0 0 0 0 0 0 0 
0 0 0 0 0 0 0 0 0 
0 0 0 0 0 0 0 0 0 
0 0 0 0 0 0 0 0 0 
0 0 0 0 0 0 0 0 0 
0 0 0 0 0 0 0 0 0 
0 0 0 0 0 0 0 0 0 
0 0 0 0 0 0 0 0 0 
0 0 0 0 0 0 0 0 0 
0 0 0 0 0 0 0 0 0 
0 0 0 0 0 0 0 0 0 
0 0 0 0 0 0 0 0 0 
0 0 0 0 0 0 0 0 0 
0 0 0 0 0 0 0 0 0 
0 0 0 0 0 0 0 0 0 
0 0 0 0 0 0 0 0 0 
0 0 0 0 0 0 0 0 0 
0 0 0 0 0 0 0 0 0 
0 0 0 0 0 0 0 0 0 
0 0 0 0 0 0 0 0 0 
0 0 0 0 0 0 0 0 0 
0 0 0 0 0 0 0 0 0 
0 0 0 0 0 0 0 0 0 
0 0 0 0 0 0 0 0 0 
0 0 0 0 0 0 0 0 0 
0 0 
NORMALS Normals float
0.0550455 0.105423 0.992903 0.313138 0.575246 0.75567 0.0628493 0.155425 0.985846 
0.109712 0.45062 0.885949 -0.0782843 0.436189 0.896444 -0.189344 0.510025 0.839061 
-0.355878 0.687604 0.632892 0.588638 0.519984 0.618969 0.337235 0.352483 0.872942 
0.0909033 0.12771 0.987637 0.209697 0.212691 0.954353 -0.0172401 0.0954456 0.995285 
-0.0125826 -0.086459 0.996176 -0.0855303 0.0873208 0.992502 -0.11195 0.123314 0.986033 
-0.121016 0.221008 0.967735 -0.101978 0.452718 0.885803 -0.19239 0.620208 0.760479 
-0.33336 0.740888 0.583057 0.439591 0.210783 0.873115 0.23227 0.0830648 0.969098 
0.0637879 -0.013632 0.99787 -0.0239232 -0.118058 0.992718 -0.0644345 -0.103073 0.992585 
-0.0473153 -0.0661058 0.99669 -0.002198 0.0405321 0.999176 0.0484685 0.0932872 0.994459 
-0.0485563 0.17491 0.983386 -0.199745 0.319151 0.926415 -0.4013 0.438795 0.804001 
0.597049 0.169646 0.784062 0.268457 0.0611254 0.96135 0.108364 -0.0868634 0.990309 
0.0119129 -0.154163 0.987974 -0.038032 -0.219532 0.974864 -0.0336989 -0.0952205 0.994886 
0.0363593 -0.0175444 0.999185 0.0497012 0.0232292 0.998494 0.0780865 -0.0359362 0.996299 
0.0656898 -0.013165 0.997753 -0.068485 0.108556 0.991728 -0.299331 0.226912 0.926775 
-0.609114 0.302323 0.7332 0.516944 -0.0179278 0.855832 0.199257 -0.0439942 0.978959 
0.0272738 -0.0963432 0.994974 -0.0670675 -0.163659 0.984235 0.0410138 -0.217431 0.975214 
0.145172 0.0203705 0.989197 0.0682298 0.0153725 0.997551 -0.020642 0.023056 0.999521 
0.0165502 0.00440836 0.999853 0.0936697 -0.0132175 0.995516 0.032722 0.0154856 0.999345 
-0.161483 0.0338743 0.986294 -0.549333 0.0996124 0.829645 0.485245 -0.0186054 0.87418 
0.184952 -0.0399989 0.981933 -0.00492286 -0.04751 0.998859 -0.107459 -0.0285453 0.9938 
0.124483 0.0122309 0.992146 0.210044 -0.0390505 0.976912 0.0380368 -0.0738747 0.996542 
0.0386865 -0.0210836 0.999029 0.0413682 0.0348595 0.998536 0.0775257 0.00712985 0.996965 
-0.0190138 0.00882466 0.99978 -0.207642 -0.0524742 0.976797 -0.522929 -0.0617712 0.850135 
0.52975 -0.110011 0.840989 0.196775 -0.0381606 0.979706 0.0429186 0.0592844 0.997318 
-0.00743445 0.160874 0.986947 0.037869 0.205023 0.978024 0.055677 -0.0363305 0.997788 
0.0844312 -0.042077 0.99554 0.0881267 -0.0290163 0.995687 0.0446858 -0.0121264 0.998927 
0.0678501 -0.0616357 0.99579 -0.0274954 -0.112613 0.993258 -0.244304 -0.143698 0.958992 
-0.555972 -0.174317 0.812717 0.347961 -0.140066 0.926987 0.201943 -0.00156611 0.979396 
0.0369303 0.0733974 0.996619 -0.0582897 0.0996475 0.993314 -0.0510844 -0.00153756 0.998693 
0.0508539 -0.00131987 0.998705 0.0689179 -0.0385464 0.996877 0.00922741 -0.0463592 0.998882 
-0.0173186 -0.137818 0.990306 -0.102644 -0.22094 0.969871 -0.29281 -0.290061 0.911113 
-0.594013 -0.352998 0.72287 0.458734 -0.352114 0.81583 0.258584 -0.204202 0.944159 
0.0888565 -0.178055 0.980001 -0.0454375 -0.144994 0.988389 -0.0419147 -0.10306 0.993792 
0.0464951 -0.10982 0.992863 0.0412176 -0.160446 0.986184 -0.0550269 -0.169917 0.983921 
-0.108787 -0.277126 0.954655 -0.203651 -0.37018 0.906362 -0.432557 -0.508918 0.744243 
0.339248 -0.557996 0.757331 0.0963997 -0.49168 0.865423 0.0227016 -0.442902 0.896282 
-0.010422 -0.380308 0.924801 -0.00425279 -0.405828 0.913939 -0.00467046 -0.471191 0.882019 
-0.123888 -0.526218 0.841277 -0.224528 -0.625656 0.747089 0.351047 0.783215 0.513166 
0.158408 0.884387 0.439051 -0.0761167 0.884347 0.460582 -0.0952222 0.995359 -0.0139086 
-0.263867 0.843589 0.467689 -0.391663 0.80885 0.43859 0.6047 0.547683 0.578257 
0.496244 0.700314 0.51313 0.500534 0.694399 0.516987 0.505232 0.711916 0.487767 
-0.367453 0.818456 0.441711 -0.318944 0.821089 0.473379 -0.274792 0.845571 0.457711 
-0.335355 0.796564 0.503013 0.616948 0.534822 0.577356 -0.3779 0.768728 0.515993 
-0.463071 0.67274 0.57705 -0.452082 0.855881 0.251175 0.639695 0.382792 0.666529 
0.667002 0.317158 0.674181 0.760216 0.462095 0.456661 -0.616847 0.495533 0.611511 
-0.663924 0.408196 0.626563 -0.708653 0.558471 0.431185 0.690197 0.187554 0.698893 
-0.69848 0.309478 0.645251 0.637185 0.00318869 0.770704 -0.750871 0.126963 0.64813 
-0.909553 0.146171 0.389035 0.577202 -0.0171027 0.816422 0.97557 -0.0314394 0.217428 
-0.742639 -0.0478932 0.667977 -0.911143 -0.0428188 0.40986 0.62876 -0.110987 0.769638 
0.585824 -0.244239 0.772759 -0.704641 -0.176304 0.687312 -0.929351 -0.175706 0.324706 
0.558513 -0.286124 0.778586 0.632467 -0.315006 0.707642 -0.638792 -0.351128 0.684583 
-0.605457 -0.39364 0.691715 0.531298 -0.385802 0.754241 0.802392 -0.499042 0.327298 
0.504401 -0.435603 0.74554 -0.310659 -0.680421 0.663716 -0.479186 -0.530347 0.699366 
-0.45386 -0.555882 0.696424 -0.702026 -0.614532 0.359876 0.441507 -0.587653 0.678038 
0.595205 -0.695887 0.401835 0.348594 -0.663775 0.661729 0.154209 -0.711585 0.685468 
0.0466024 -0.696848 0.715703 -0.00119992 -0.688326 0.7254 -0.0147973 -0.700793 0.713212 
-0.0605145 -0.753239 0.654958 -0.165562 -0.777725 0.60641 -0.293101 -0.694105 0.657503 
-0.236765 -0.708118 0.665216 -0.32325 -0.740321 0.589435 0.210479 -0.934237 0.287922 
0.0733128 -0.893905 0.442221 -0.0201103 -0.903084 0.428992 -0.0828924 -0.942363 0.324161 
-0.158278 -0.986948 0.0297016 -0.0962682 0.993714 -0.0571441 0.499637 0.862171 0.0838086 
0.302314 0.952082 0.0463276 0.0294708 0.999144 -0.0290276 0.118167 0.992962 -0.00792616 
-0.108938 0.992256 -0.0596708 -0.0997526 0.992537 -0.0701373 -0.299151 0.951045 -0.0775989 
-0.418019 0.906178 -0.0640437 0.572954 0.814066 0.094977 0.661005 0.742106 0.111133 
-0.367314 0.928731 -0.0503851 -0.34947 0.936088 -0.0401263 -0.233483 0.97224 0.0153556 
-0.246063 0.963425 0.106136 -0.440891 0.880328 0.175036 0.751317 0.650553 0.110918 
0.817291 0.563444 0.12069 -0.476102 0.861812 0.174949 -0.70191 0.67985 0.21243 
0.861338 0.489156 0.137196 -0.761825 0.604461 0.232915 0.942805 0.305108 0.13427 
-0.90515 0.339731 0.255512 -0.931285 0.248242 0.266616 0.978756 0.112974 0.171095 
0.97679 -0.0223283 0.213031 -0.946472 0.152389 0.284549 0.975899 -0.0313923 0.215953 
0.975746 -0.0345712 0.216159 0.978432 -0.030408 0.204321 -0.958484 -0.0402978 0.282283 
0.952514 -0.193288 0.235281 -0.944889 -0.17634 0.275844 -0.933659 -0.232766 0.272216 
0.909393 -0.343782 0.234134 -0.87938 -0.396095 0.264198 0.825698 -0.502815 0.255734 
0.806558 -0.532913 0.255867 -0.510045 -0.837893 0.194396 -0.749182 -0.614432 0.247385 
-0.717902 -0.650574 0.247728 0.641443 -0.729496 0.237459 0.581534 -0.779354 0.233292 
0.358976 -0.905798 0.225093 -0.163117 -0.986606 -0.00100992 -0.182959 -0.978932 0.090648 
-0.502715 -0.843003 0.191372 -0.324097 -0.931836 0.163224 0.245226 -0.944306 0.21943 
0.209405 -0.953304 0.217627 0.0762386 -0.971269 0.225443 -0.0380376 -0.978843 0.201048 
-0.117199 -0.986201 0.11693 -0.159681 -0.987052 0.0152081 -0.159705 -0.987024 0.0166378 
-0.161664 -0.986832 0.00522599 0.479028 0.846221 -0.233328 0.282195 0.930201 -0.234718 
0.0639274 0.965122 -0.253876 -0.157238 0.940845 -0.300143 -0.294099 0.90531 -0.306463 
-0.376811 0.889097 -0.259847 0.529685 0.814492 -0.236722 0.663074 0.702613 -0.2582 
0.501125 0.793762 -0.344697 -0.3566 0.904695 -0.233158 -0.332955 0.907384 -0.256506 
-0.262044 0.954089 -0.145078 -0.159392 0.984947 -0.0668837 -0.190821 0.979549 -0.0638074 
-0.424767 0.90172 -0.0804647 0.7286 0.628646 -0.27193 0.79778 0.521615 -0.30243 
0.661756 0.578446 -0.476948 -0.464987 0.881659 -0.0804028 -0.448537 0.872972 -0.191661 
-0.674724 0.734226 -0.0752284 0.823082 0.48404 -0.297056 0.780187 0.486019 -0.39382 
-0.765532 0.639085 -0.0743698 0.899285 0.294437 -0.323409 -0.925178 0.376398 -0.04869 
-0.937015 0.346062 -0.0473713 0.9389 0.169605 -0.299501 -0.985077 0.168668 -0.0342776 
0.966311 0.0084751 -0.257237 -0.997702 -0.0522989 -0.0430835 0.958556 -0.169094 -0.2293 
-0.975927 -0.206484 -0.0702265 -0.937946 -0.333279 -0.0958207 -0.926541 -0.233303 -0.295113 
0.925539 -0.331926 -0.182214 -0.898404 -0.424114 -0.114006 0.852351 -0.497631 -0.160814 
0.829813 -0.536742 -0.152703 0.833077 -0.487778 -0.260876 -0.472601 -0.857737 -0.202326 
-0.743703 -0.650439 -0.154386 -0.700117 -0.694473 -0.165965 -0.670355 -0.670405 -0.31809 
0.644962 -0.750589 -0.143664 0.585909 -0.795443 -0.154856 0.585298 -0.736332 -0.339472 
0.366711 -0.920001 -0.138277 -0.210873 -0.899484 -0.382702 -0.121234 -0.909685 -0.397209 
-0.0943634 -0.786301 -0.610595 -0.0991916 -0.932117 -0.348309 -0.0597066 -0.811479 -0.581323 
-0.434395 -0.87462 -0.215269 -0.250825 -0.926032 -0.282049 -0.199115 -0.845349 -0.495721 
0.268231 -0.954022 -0.133767 0.219078 -0.966821 -0.131382 0.21778 -0.946309 -0.238895 
0.0513483 -0.988691 -0.140899 0.0211299 -0.907996 -0.418445 -0.113981 -0.97484 -0.191562 
-0.151104 -0.915865 -0.371967 -0.231203 -0.928349 -0.291055 -0.231823 -0.929809 -0.285854 
-0.234188 -0.92618 -0.295546 0.291086 0.83563 -0.465824 0.0613697 0.898889 -0.433856 
-0.135323 0.912037 -0.387139 -0.250795 0.90697 -0.33839 0.411512 0.77292 -0.482963 
0.512369 0.682001 -0.521874 0.307781 0.761315 -0.570675 0.129569 0.779301 -0.613108 
-0.0655154 0.834891 -0.546502 -0.25122 0.920949 -0.297896 -0.216553 0.89094 -0.399163 
-0.25105 0.935197 -0.249761 -0.162411 0.976526 -0.141491 -0.156098 0.97823 -0.136748 
-0.253722 0.946605 -0.19891 0.622016 0.550283 -0.557032 0.639304 0.511855 -0.573843 
0.492191 0.473985 -0.730127 -0.415254 0.86794 -0.272476 -0.344985 0.819312 -0.457944 
-0.469591 0.830694 -0.299051 -0.684545 0.649456 -0.331067 0.655855 0.416491 -0.629595 
0.733034 0.284202 -0.617973 0.586383 0.35871 -0.72628 -0.705178 0.624034 -0.336607 
-0.687663 0.614994 -0.385879 0.736716 0.275734 -0.617431 0.731713 0.276046 -0.623213 
0.52479 0.242094 -0.81608 -0.859218 0.373884 -0.349222 -0.911733 0.20713 -0.354739 
0.768947 0.156667 -0.61982 0.708286 0.153532 -0.689027 -0.920409 0.15691 -0.358088 
-0.901433 0.154817 -0.404291 0.785624 0.0450011 -0.617065 0.696696 0.0530167 -0.715404 
-0.925826 -0.0766177 -0.370103 -0.906079 -0.158239 -0.392404 -0.903282 -0.0815832 -0.421219 
0.811426 -0.106803 -0.574613 0.715649 -0.0795397 -0.693916 -0.870511 -0.250267 -0.423766 
0.808484 -0.275495 -0.520053 0.788123 -0.336332 -0.515503 0.770672 -0.26766 -0.578293 
-0.74716 -0.461058 -0.478725 -0.618611 -0.593753 -0.514565 -0.587106 -0.464839 -0.662745 
0.716908 -0.460904 -0.523078 0.572482 -0.650264 -0.49942 0.543811 -0.440136 -0.714528 
-0.16467 -0.498252 -0.851251 -0.0888673 -0.763518 -0.639642 -0.0637919 -0.526496 -0.847781 
-0.0532355 -0.770391 -0.635346 -0.0490313 -0.562229 -0.825527 -0.1712 -0.768575 -0.616427 
-0.143518 -0.581212 -0.800997 -0.50482 -0.663557 -0.552132 -0.393867 -0.712964 -0.580131 
-0.362023 -0.64481 -0.673171 0.519251 -0.706005 -0.481596 0.379603 -0.798732 -0.466828 
0.371381 -0.661871 -0.651156 0.203687 -0.867152 -0.454488 0.130551 -0.583672 -0.801426 
0.0119066 -0.871477 -0.490292 -0.0289453 -0.566943 -0.823249 -0.172029 -0.831831 -0.527695 
-0.156214 -0.589827 -0.792276 -0.276216 -0.769721 -0.57553 -0.256308 -0.648924 -0.716382 
-0.144281 -0.76109 -0.632396 -0.226295 -0.748461 -0.623375 -0.223425 -0.725183 -0.6513 
0.364785 0.506955 -0.780979 0.171006 0.689704 -0.703608 -0.0352054 0.788834 -0.613598 
-0.142005 0.818769 -0.556283 -0.132409 0.859613 -0.49349 -0.138434 0.881134 -0.45215 
-0.221069 0.846853 -0.483703 0.41614 0.429162 -0.801653 0.452486 0.326411 -0.829887 
0.381315 0.41814 -0.824474 0.238361 0.441346 -0.8651 0.0692497 0.493941 -0.866733 
-0.056015 0.547201 -0.835124 -0.0979739 0.632824 -0.768072 -0.127658 0.707662 -0.694923 
-0.32703 0.789063 -0.520029 -0.21116 0.752825 -0.62343 -0.362274 0.748622 -0.555268 
-0.478517 0.56866 -0.669065 0.460836 0.305537 -0.833233 0.443698 0.300042 -0.844457 
0.364705 0.220308 -0.904685 0.278075 0.227247 -0.933292 -0.18087 0.314008 -0.932033 
-0.310873 0.36076 -0.879324 -0.52706 0.512787 -0.677685 -0.460931 0.49616 -0.735778 
-0.609177 0.327588 -0.722211 0.476304 0.224519 -0.850132 0.490141 0.167359 -0.855425 
0.379221 0.191146 -0.905348 0.339429 0.152095 -0.928254 -0.188549 0.165151 -0.968078 
-0.370275 0.238277 -0.897842 -0.612001 0.319172 -0.723591 -0.605966 0.317229 -0.7295 
0.495961 0.143763 -0.856361 0.479708 0.143023 -0.865693 0.35369 0.0917863 -0.930848 
0.328447 0.0548127 -0.942931 -0.0480136 -0.045765 -0.997798 -0.205728 0.0423811 -0.977691 
-0.308724 0.0287514 -0.950717 -0.670068 0.121028 -0.732367 -0.566012 0.106064 -0.817546 
0.521503 0.0492167 -0.851829 0.462621 0.0476138 -0.885277 0.293779 0.00811094 -0.955839 
0.28125 -0.071056 -0.957 -0.18362 -0.147344 -0.971892 -0.300245 -0.12707 -0.94536 
-0.649389 -0.110845 -0.752334 -0.545645 -0.117933 -0.829677 0.506542 -0.0471591 -0.860924 
0.442722 -0.0441026 -0.895574 0.247772 -0.0588461 -0.96703 0.142914 -0.106219 -0.984019 
0.173098 -0.244464 -0.954083 -0.121732 -0.37811 -0.917722 -0.0937522 -0.489013 -0.867224 
-0.0524396 -0.391252 -0.918788 -0.109285 -0.31893 -0.941457 -0.281885 -0.296833 -0.912377 
-0.550138 -0.279436 -0.786933 -0.542696 -0.28906 -0.788623 -0.542436 -0.279671 -0.792179 
0.498654 -0.195476 -0.844472 0.484508 -0.237509 -0.841927 0.470834 -0.188857 -0.861771 
0.251826 -0.165457 -0.953524 0.0963814 -0.144551 -0.984792 0.030514 -0.204102 -0.978474 
0.00413224 -0.318253 -0.947997 -0.112583 -0.394794 -0.911846 -0.164593 -0.482933 -0.86005 
-0.165236 -0.420376 -0.892178 -0.0584728 -0.467573 -0.882018 -0.0549906 -0.403929 -0.913136 
-0.0284408 -0.487572 -0.872619 -0.00406602 -0.398637 -0.9171 -0.109702 -0.485225 -0.86748 
-0.0965429 -0.415473 -0.904468 -0.320359 -0.434619 -0.84171 -0.281648 -0.456643 -0.843891 
-0.271211 -0.427716 -0.862266 0.394357 -0.376343 -0.838361 0.331299 -0.441472 -0.833872 
0.311015 -0.343644 -0.886103 0.125498 -0.537714 -0.833735 0.113216 -0.313022 -0.942974 
-0.0288797 -0.54252 -0.839546 -0.0131105 -0.289544 -0.957075 -0.141395 -0.521267 -0.841599 
-0.09639 -0.361794 -0.927261 -0.173891 -0.484884 -0.857117 -0.218202 -0.510766 -0.831568 
-0.195442 -0.448316 -0.872247 0.0913652 0.298613 -0.949991 -0.0379735 0.273236 -0.961197 
-0.0485809 0.242312 -0.968981 -0.0693392 0.28685 -0.955463 0.193438 0.222496 -0.955551 
0.264074 0.186646 -0.946271 0.0953248 0.21522 -0.971902 -0.0364066 0.16763 -0.985178 
-0.0432231 0.206051 -0.977586 -0.0798124 0.280473 -0.956538 -0.0673117 0.277208 -0.958449 
-0.163511 0.203762 -0.965269 0.273148 0.154082 -0.949552 0.251575 0.15501 -0.955344 
0.0156076 0.0711543 -0.997343 -0.0487278 -0.0563764 -0.99722 -0.0507814 -0.0778048 -0.995674 
0.0263699 0.0625093 -0.997696 -0.0246445 0.151963 -0.988079 -0.162819 0.14321 -0.976207 
-0.152883 0.131078 -0.979513 0.279193 0.0444655 -0.959205 0.202515 0.0342445 -0.97868 
-0.0642119 -0.0332404 -0.997383 -0.137707 0.0243766 -0.990173 0.0165989 -0.0227179 -0.999604 
-0.037994 0.0194542 -0.999089 0.197998 0.0456546 -0.979139 -0.00520512 0.0622376 -0.998048 
-0.203657 0.0408852 -0.978188 -0.167647 0.0132484 -0.985758 0.258697 -0.138675 -0.955953 
0.207864 -0.220255 -0.953038 0.228058 -0.187896 -0.955345 -0.0573903 -0.0934327 -0.99397 
-0.032337 0.0554311 -0.997939 -0.0583487 -0.316022 -0.946956 0.128033 -0.11298 -0.985314 
-0.0844532 -0.408242 -0.908959 -0.0554103 -0.236225 -0.970117 -0.179406 -0.169686 -0.969031 
-0.141047 -0.264702 -0.95396 -0.169157 -0.210198 -0.962914 0.126546 -0.289403 -0.948805 
0.0911417 -0.307655 -0.947123 0.103214 -0.301589 -0.947835 -0.0876763 -0.268084 -0.959398 
-0.0688902 -0.211695 -0.974905 -0.0627475 -0.180845 -0.981508 
