# vtk DataFile Version 4.2
vtk output
ASCII
DATASET POLYDATA
POINTS 507 float
8.33406 -30.6949 -19.0361 15.9577 -30.6949 -19.9712 23.5814 -30.6949 -19.43 
31.2051 -30.6949 -17.4715 -37.408 -23.0712 -18.9818 -29.7844 -23.0712 -19.8465 
-22.1607 -23.0712 -19.3666 -14.537 -23.0712 -17.8436 -6.91331 -23.0712 -18.5124 
0.710372 -23.0712 -20.5889 8.33406 -23.0712 -21.6555 15.9577 -23.0712 -22.3896 
23.5814 -23.0712 -22.4025 31.2051 -23.0712 -20.5728 38.8288 -23.0712 -18.0377 
-45.0317 -15.4475 -17.6984 -37.408 -15.4475 -21.2491 -29.7844 -15.4475 -22.0948 
-22.1607 -15.4475 -21.6625 -14.537 -15.4475 -20.8022 -6.91331 -15.4475 -21.6935 
0.710372 -15.4475 -22.5886 8.33406 -15.4475 -22.1817 15.9577 -15.4475 -22.6065 
23.5814 -15.4475 -22.7055 31.2051 -15.4475 -21.8508 38.8288 -15.4475 -19.7616 
-45.0317 -7.82383 -17.7315 -37.408 -7.82383 -21.2173 -29.7844 -7.82383 -22.1191 
-22.1607 -7.82383 -21.7988 -14.537 -7.82383 -21.3212 -6.91331 -7.82383 -22.3646 
0.710372 -7.82383 -22.7351 8.33406 -7.82383 -22.4868 15.9577 -7.82383 -22.585 
23.5814 -7.82383 -22.5962 31.2051 -7.82383 -22.2575 38.8288 -7.82383 -20.934 
46.4525 -7.82383 -16.8318 -45.0317 -0.200145 -16.745 -37.408 -0.200145 -20.2142 
-29.7844 -0.200145 -21.4716 -22.1607 -0.200145 -21.5533 -14.537 -0.200145 -21.34 
-6.91331 -0.200145 -21.7988 0.710372 -0.200145 -22.5932 8.33406 -0.200145 -23.9968 
15.9577 -0.200145 -22.9416 23.5814 -0.200145 -22.5957 31.2051 -0.200145 -22.2766 
38.8288 -0.200145 -20.8769 46.4525 -0.200145 -16.9847 -37.408 7.42354 -19.0032 
-29.7844 7.42354 -20.976 -22.1607 7.42354 -21.8691 -14.537 7.42354 -22.78 
-6.91331 7.42354 -23.1629 0.710372 7.42354 -22.9305 8.33406 7.42354 -23.0463 
15.9577 7.42354 -22.2308 23.5814 7.42354 -22.216 31.2051 7.42354 -22.301 
38.8288 7.42354 -20.4285 -37.408 15.0472 -17.3465 -29.7844 15.0472 -20.4374 
-22.1607 15.0472 -22.2744 -14.537 15.0472 -23.3037 -6.91331 15.0472 -23.1434 
0.710372 15.0472 -22.3053 8.33406 15.0472 -22.0358 15.9577 15.0472 -22.1831 
23.5814 15.0472 -21.9208 31.2051 15.0472 -20.871 38.8288 15.0472 -18.2862 
-29.7844 22.6709 -18.5909 -22.1607 22.6709 -21.3683 -14.537 22.6709 -22.9853 
-6.91331 22.6709 -22.5246 0.710372 22.6709 -22.011 8.33406 22.6709 -21.8459 
15.9577 22.6709 -21.9438 23.5814 22.6709 -21.2317 31.2051 22.6709 -18.7556 
-22.1607 30.2946 -18.8816 -14.537 30.2946 -21.0195 -6.91331 30.2946 -21.1631 
0.710372 30.2946 -20.7008 8.33406 30.2946 -20.7688 15.9577 30.2946 -20.1377 
23.5814 30.2946 -18.2157 -14.537 37.9183 -17.4168 -6.91331 37.9183 -17.7334 
0.710372 37.9183 -16.9277 8.33406 -33.4734 -16.3994 15.9577 -34.8022 -16.3994 
23.5814 -34.3521 -16.3994 31.2051 -31.9574 -16.3994 -37.408 -27.0613 -16.3994 
-37.408 -30.6949 -12.3545 -29.7844 -28.7857 -16.3994 -29.7844 -30.6949 -14.7284 
-22.1607 -27.9401 -16.3994 -22.1607 -30.6949 -14.3117 -14.537 -25.536 -16.3994 
-14.537 -30.6949 -12.9351 -6.91331 -26.5322 -16.3994 -6.91331 -30.6949 -13.2351 
1.20044 -30.6949 -16.3994 0.710372 -30.4111 -16.3994 0.710372 -30.6949 -16.1534 
33.5996 -30.6949 -16.3994 38.8288 -26.3493 -16.3994 38.8288 -30.6949 -12.5983 
-43.2109 -23.0712 -16.3994 -45.0317 -19.6739 -16.3994 -45.0317 -23.0712 -14.9644 
41.393 -23.0712 -16.3994 46.4525 -23.0712 -11.1655 -46.4493 -15.4475 -16.3994 
45.0231 -15.4475 -16.3994 46.4525 -10.2829 -16.3994 46.4525 -15.4475 -15.4018 
-46.7204 -7.82383 -16.3994 46.9234 -7.82383 -16.3994 -45.4637 -0.200145 -16.3994 
-45.0317 0.860121 -16.3994 47.1138 -0.200145 -16.3994 46.4525 3.193 -16.3994 
-41.6262 7.42354 -16.3994 -45.0317 7.42354 -13.4141 45.3168 7.42354 -16.3994 
46.4525 7.42354 -15.168 -38.7656 15.0472 -16.3994 -37.408 17.1463 -16.3994 
41.5564 15.0472 -16.3994 38.8288 18.4287 -16.3994 -33.3282 22.6709 -16.3994 
-37.408 22.6709 -12.4452 -29.7844 26.9869 -16.3994 34.8827 22.6709 -16.3994 
31.2051 26.4381 -16.3994 38.8288 22.6709 -11.3572 -26.695 30.2946 -16.3994 
-29.7844 30.2946 -13.6016 -22.1607 34.2976 -16.3994 8.33406 36.9016 -16.3994 
15.9577 35.4438 -16.3994 26.8124 30.2946 -16.3994 23.5814 32.4162 -16.3994 
31.2051 30.2946 -11.6091 -16.8544 37.9183 -16.3994 -22.1607 37.9183 -12.3571 
-14.537 39.0291 -16.3994 -6.91331 39.4228 -16.3994 3.85961 37.9183 -16.3994 
0.710372 38.4805 -16.3994 8.33406 37.9183 -15.3229 15.9577 37.9183 -12.8308 
-37.408 -33.0639 -8.77572 -29.7844 -34.6861 -8.77572 -22.1607 -35.159 -8.77572 
-14.537 -34.7171 -8.77572 -6.91331 -34.3925 -8.77572 0.710372 -35.5105 -8.77572 
8.33406 -37.1618 -8.77572 15.9577 -38.3185 -8.77572 23.5814 -37.9768 -8.77572 
31.2051 -36.5968 -8.77572 38.8288 -32.9949 -8.77572 -42.4457 -30.6949 -8.77572 
-45.0317 -28.9103 -8.77572 -45.0317 -30.6949 -3.22922 41.6601 -30.6949 -8.77572 
46.4525 -25.2465 -8.77572 -49.4594 -23.0712 -8.77572 47.9697 -23.0712 -8.77572 
-51.8271 -15.4475 -8.77572 -52.6554 -15.4475 -3.39993 51.3779 -15.4475 -8.77572 
-51.8652 -7.82383 -8.77572 -52.6554 -7.82383 -3.41512 52.5533 -7.82383 -8.77572 
-50.844 -0.200145 -8.77572 52.0899 -0.200145 -8.77572 -48.1175 7.42354 -8.77572 
-45.0317 14.1779 -8.77572 49.9833 7.42354 -8.77572 46.4525 14.339 -8.77572 
-44.585 15.0472 -8.77572 -45.0317 15.0472 -5.94083 46.0553 15.0472 -8.77572 
46.4525 15.0472 -3.67239 -39.9251 22.6709 -8.77572 -37.408 25.7666 -8.77572 
40.2069 22.6709 -8.77572 38.8288 24.224 -8.77572 -33.2781 30.2946 -8.77572 
-29.7844 33.7376 -8.77572 23.5814 36.9087 -8.77572 32.8819 30.2946 -8.77572 
31.2051 31.7809 -8.77572 -24.9022 37.9183 -8.77572 -22.1607 39.9506 -8.77572 
-14.537 43.5688 -8.77572 -6.91331 44.7154 -8.77572 0.710372 43.6742 -8.77572 
8.33406 41.7983 -8.77572 21.1696 37.9183 -8.77572 15.9577 39.9563 -8.77572 
-6.91331 45.542 -3.34599 -45.0317 -31.1208 -1.15203 -37.408 -35.1845 -1.15203 
-29.7844 -37.1478 -1.15203 -22.1607 -37.986 -1.15203 -14.537 -38.0283 -1.15203 
-6.91331 -37.2411 -1.15203 0.710372 -36.6948 -1.15203 8.33406 -37.1129 -1.15203 
15.9577 -37.8988 -1.15203 23.5814 -38.1305 -1.15203 31.2051 -37.3967 -1.15203 
38.8288 -34.0086 -1.15203 -45.5022 -30.6949 -1.15203 -45.0317 -30.6949 1.25264 
43.267 -30.6949 -1.15203 46.4525 -27.3384 -1.15203 -50.9946 -23.0712 -1.15203 
-52.6554 -16.8796 -1.15203 49.5918 -23.0712 -1.15203 -52.9746 -15.4475 -1.15203 
-52.6554 -15.4475 0.512505 52.7321 -15.4475 -1.15203 -52.9654 -7.82383 -1.15203 
-52.6554 -5.49953 -1.15203 -52.6554 -7.82383 0.394452 53.684 -7.82383 -1.15203 
-51.8857 -0.200145 -1.15203 52.8765 -0.200145 -1.15203 -49.0983 7.42354 -1.15203 
50.5187 7.42354 -1.15203 -45.7179 15.0472 -1.15203 -45.0317 16.2553 -1.15203 
-45.0317 15.0472 1.51795 46.6396 15.0472 -1.15203 46.4525 15.3188 -1.15203 
46.4525 15.0472 -0.159888 -41.0682 22.6709 -1.15203 -37.408 27.2137 -1.15203 
40.8678 22.6709 -1.15203 38.8288 24.962 -1.15203 -34.5888 30.2946 -1.15203 
-29.7844 34.9931 -1.15203 23.5814 37.3707 -1.15203 33.512 30.2946 -1.15203 
31.2051 32.2957 -1.15203 -26.5286 37.9183 -1.15203 -22.1607 41.2148 -1.15203 
-14.537 44.8223 -1.15203 0.710372 45.159 -1.15203 8.33406 43.0466 -1.15203 
22.3729 37.9183 -1.15203 15.9577 40.6326 -1.15203 -9.30102 45.542 -1.15203 
-3.53351 45.542 -1.15203 -6.91331 45.542 1.3176 -37.408 -34.3206 6.47165 
-29.7844 -36.8705 6.47165 -22.1607 -37.933 6.47165 -14.537 -37.9937 6.47165 
-6.91331 -36.9001 6.47165 0.710372 -35.7573 6.47165 8.33406 -35.5004 6.47165 
15.9577 -35.911 6.47165 23.5814 -35.9252 6.47165 31.2051 -34.7284 6.47165 
38.8288 -31.6481 6.47165 -43.3941 -30.6949 6.47165 -45.0317 -29.2433 6.47165 
-37.408 -30.6949 13.8458 8.33406 -30.6949 13.919 23.5814 -30.6949 13.7278 
31.2051 -30.6949 12.3208 40.2215 -30.6949 6.47165 38.8288 -30.6949 7.81799 
46.4525 -24.3058 6.47165 -49.7347 -23.0712 6.47165 47.3262 -23.0712 6.47165 
46.4525 -23.0712 7.69545 -51.4527 -15.4475 6.47165 50.9948 -15.4475 6.47165 
46.4525 -15.4475 13.6239 -51.3355 -7.82383 6.47165 51.7817 -7.82383 6.47165 
-49.8102 -0.200145 6.47165 50.8626 -0.200145 6.47165 -46.9815 7.42354 6.47165 
-45.0317 11.9783 6.47165 -45.0317 7.42354 9.96511 48.6533 7.42354 6.47165 
46.4525 12.305 6.47165 46.4525 7.42354 10.9611 -43.6783 15.0472 6.47165 
45.0797 15.0472 6.47165 -39.4767 22.6709 6.47165 -37.408 25.4767 6.47165 
-37.408 22.6709 10.5869 39.5223 22.6709 6.47165 38.8288 23.4505 6.47165 
38.8288 22.6709 8.06293 -33.3924 30.2946 6.47165 -29.7844 33.8304 6.47165 
-29.7844 30.2946 13.6456 23.5814 35.3534 6.47165 31.462 30.2946 6.47165 
31.2051 30.5038 6.47165 31.2051 30.2946 6.87865 -24.9314 37.9183 6.47165 
-22.1607 39.9336 6.47165 -22.1607 37.9183 10.4552 -14.537 43.6304 6.47165 
-6.91331 44.8622 6.47165 0.710372 43.9924 6.47165 8.33406 41.7005 6.47165 
8.33406 37.9183 12.2563 18.0193 37.9183 6.47165 15.9577 38.832 6.47165 
15.9577 37.9183 8.07851 -29.7844 -33.4832 14.0953 -22.1607 -34.8958 14.0953 
-14.537 -34.4545 14.0953 -6.91331 -33.1416 14.0953 0.710372 -31.5306 14.0953 
15.9577 -30.8952 14.0953 -45.0317 -23.1233 14.0953 -37.0788 -30.6949 14.0953 
-37.408 -30.528 14.0953 -29.7844 -30.6949 17.2734 -22.1607 -30.6949 18.492 
-14.537 -30.6949 17.723 -6.91331 -30.6949 16.5152 7.24581 -30.6949 14.0953 
0.710372 -30.6949 14.9204 11.5036 -30.6949 14.0953 8.33406 -30.5001 14.0953 
18.8996 -30.6949 14.0953 15.9577 -30.6949 14.2799 23.5814 -30.2858 14.0953 
31.2051 -28.9598 14.0953 38.8288 -25.0615 14.0953 -45.0681 -23.0712 14.0953 
-45.0317 -23.0712 14.133 -37.408 -23.0712 19.6108 -29.7844 -23.0712 21.6791 
-14.537 -23.0712 21.6721 -6.91331 -23.0712 20.4027 0.710372 -23.0712 19.187 
8.33406 -23.0712 18.5415 15.9577 -23.0712 18.5147 23.5814 -23.0712 18.8484 
31.2051 -23.0712 18.1122 40.8647 -23.0712 14.0953 38.8288 -23.0712 15.73 
-47.5627 -15.4475 14.0953 -45.0317 -15.4475 16.9769 31.2051 -15.4475 21.6407 
45.9681 -15.4475 14.0953 38.8288 -15.4475 18.6455 46.4525 -13.0177 14.0953 
-47.1593 -7.82383 14.0953 -45.0317 -7.82383 16.5044 -37.408 -7.82383 21.5656 
38.8288 -7.82383 20.7033 47.1407 -7.82383 14.0953 46.4525 -7.82383 14.8559 
-45.6265 -0.200145 14.0953 -45.0317 1.25839 14.0953 -45.0317 -0.200145 14.7685 
-37.408 -0.200145 19.9451 38.8288 -0.200145 21.2224 46.6413 -0.200145 14.0953 
[...]
POINT_DATA 507
SCALARS ImageScalars float
LOOKUP_TABLE default
0 0 0 0 0 0 0 0 0 
0 0 0 0 0 0 0 0 0 
0 0 0 0 0 0 0 0 0 
0 0 0 0 0 0 0 0 0 
0 0 0 0 0 0 0 0 0 
0 0 0 0 0 0 0 0 0 
0 0 0 0 0 0 0 0 0 
0 0 0 0 0 0 0 0 0 
0 0 0 0 0 0 0 0 0 
0 0 0 0 0 0 0 0 0 
0 0 0 0 0 0 0 0 0 
0 0 0 0 0 0 0 0 0 
0 0 0 0 0 0 0 0 0 
0 0 0 0 0 0 0 0 0 
0 0 0 0 0 0 0 0 0 
0 0 0 0 0 0 0 0 0 
0 0 0 0 0 0 0 0 0 
0 0 0 0 0 0 0 0 0 
0 0 0 0 0 0 0 0 0 
0 0 0 0 0 0 0 0 0 
0 0 0 0 0 0 0 0 0 
0 0 0 0 0 0 0 0 0 
0 0 0 0 0 0 0 0 0 
0 0 0 0 0 0 0 0 0 
0 0 0 0 0 0 0 0 0 
0 0 0 0 0 0 0 0 0 
0 0 0 0 0 0 0 0 0 
0 0 0 0 0 0 0 0 0 
0 0 0 0 0 0 0 0 0 
0 0 0 0 0 0 0 0 0 
0 0 0 0 0 0 0 0 0 
0 0 0 0 0 0 0 0 0 
0 0 0 0 0 0 0 0 0 
0 0 0 0 0 0 0 0 0 
0 0 0 0 0 0 0 0 0 
0 0 0 0 0 0 0 0 0 
0 0 0 0 0 0 0 0 0 
0 0 0 0 0 0 0 0 0 
0 0 0 0 0 0 0 0 0 
0 0 0 0 0 0 0 0 0 
0 0 0 0 0 0 0 0 0 
0 0 0 0 0 0 0 0 0 
0 0 0 0 0 0 0 0 0 
0 0 0 0 0 0 0 0 0 
0 0 0 0 0 0 0 0 0 
0 0 0 0 0 0 0 0 0 
0 0 0 0 0 0 0 0 0 
0 0 0 0 0 0 0 0 0 
0 0 0 0 0 0 0 0 0 
0 0 0 0 0 0 0 0 0 
0 0 0 0 0 0 0 0 0 
0 0 0 0 0 0 0 0 0 
0 0 0 0 0 0 0 0 0 
0 0 0 0 0 0 0 0 0 
0 0 0 0 0 0 0 0 0 
0 0 0 0 0 0 0 0 0 
0 0 0 
NORMALS Normals float
-0.202291 -0.557563 -0.80511 -0.019692 -0.519294 -0.854369 0.141767 -0.52674 -0.838121 
0.3137 -0.566212 -0.762231 -0.243401 -0.422571 -0.873035 -0.0267859 -0.411248 -0.91113 
0.117046 -0.418007 -0.900872 0.051095 -0.437546 -0.897743 -0.161713 -0.453261 -0.876586 
-0.19139 -0.33703 -0.921836 -0.110488 -0.174793 -0.978386 -0.0488569 -0.157117 -0.986371 
0.113721 -0.190529 -0.975073 0.257789 -0.245816 -0.934409 0.449514 -0.322577 -0.832995 
-0.590107 -0.132233 -0.796422 -0.225562 -0.13958 -0.964178 -0.0235205 -0.131063 -0.991095 
0.0826986 -0.145989 -0.985824 -0.000536505 -0.205948 -0.978563 -0.11497 -0.23233 -0.965818 
-0.0283494 -0.131376 -0.990927 -0.00226814 -0.0535091 -0.998565 -0.0342859 -0.0122982 -0.999336 
0.0474914 -0.0114508 -0.998806 0.179663 -0.109606 -0.977603 0.360221 -0.175666 -0.916178 
-0.574567 0.0556515 -0.816563 -0.265657 0.0659946 -0.961806 -0.0362082 0.0406067 -0.998519 
0.0522433 0.00760519 -0.998605 -0.0355931 -0.0336265 -0.9988 -0.0939624 -0.00394403 -0.995568 
-0.00751498 -0.000221064 -0.999972 0.00997723 -0.12009 -0.992713 -0.00713875 -0.0218718 -0.999735 
0.0219538 0.00713807 -0.999734 0.0986029 -0.0264778 -0.994775 0.296854 -0.0655074 -0.952673 
0.625274 -0.0801967 -0.776274 -0.587725 0.203756 -0.782983 -0.278267 0.133582 -0.951169 
-0.0846754 0.075625 -0.993535 0.00838526 -0.0044784 -0.999955 -0.0160103 -0.0928734 -0.995549 
-0.0801114 -0.0530468 -0.995373 -0.146716 -0.0130828 -0.989092 -0.0199621 -0.0388838 -0.999044 
0.0923898 0.0233048 -0.99545 0.0433916 0.0246254 -0.998755 0.109366 -0.00279531 -0.993998 
0.303062 0.0285945 -0.952542 0.630486 0.0617166 -0.773743 -0.383772 0.177539 -0.9062 
-0.169317 0.0639285 -0.983486 -0.117537 -0.0463459 -0.991986 -0.085379 -0.128271 -0.988057 
-0.0089546 -0.0876292 -0.996113 0.00790273 0.0192442 -0.999784 0.0467418 0.132335 -0.990102 
0.0522926 0.0496529 -0.997397 -0.0043787 0.0441222 -0.999017 0.0999004 0.0857562 -0.991295 
0.357571 0.154876 -0.920954 -0.500599 0.296905 -0.813172 -0.305403 0.146705 -0.940854 
-0.179081 0.0307568 -0.983353 -0.0548366 -0.0130865 -0.99841 0.0649239 0.0414239 -0.99703 
0.0729766 0.060193 -0.995516 0.00777661 0.0750098 -0.997152 0.00705941 0.018426 -0.999805 
0.0825865 0.0605679 -0.994742 0.219591 0.207127 -0.953351 0.472297 0.371299 -0.79942 
-0.441059 0.323253 -0.837242 -0.260416 0.198715 -0.944826 -0.0714314 0.136998 -0.987992 
0.0623105 0.128911 -0.989697 0.0442487 0.104333 -0.993558 0.0044884 0.0747703 -0.997191 
0.0362769 0.129533 -0.990911 0.179563 0.203833 -0.962398 0.417598 0.391981 -0.819733 
-0.357857 0.418661 -0.834663 -0.131889 0.323492 -0.936994 0.0212979 0.266108 -0.963708 
0.0260681 0.278574 -0.960061 0.0356709 0.339095 -0.940075 0.141658 0.424943 -0.894067 
0.350446 0.529863 -0.772291 -0.202495 0.612999 -0.763694 0.0254977 0.594735 -0.803517 
0.112948 0.640169 -0.759886 -0.219997 -0.724841 -0.652845 -0.0494497 -0.757191 -0.651319 
0.140972 -0.728876 -0.669975 0.318081 -0.626622 -0.711456 -0.256376 -0.587161 -0.767798 
-0.288878 -0.781089 -0.553578 -0.0411176 -0.61979 -0.78369 -0.0690662 -0.719975 -0.690555 
0.111328 -0.552378 -0.826126 0.08674 -0.665856 -0.741021 0.0515188 -0.500342 -0.864294 
0.0532347 -0.674259 -0.736573 -0.165574 -0.539235 -0.825718 -0.132594 -0.702566 -0.699157 
-0.303517 -0.641377 -0.704637 -0.304904 -0.633195 -0.711405 -0.305103 -0.650879 -0.695176 
0.379231 -0.586485 -0.715695 0.487425 -0.444693 -0.751442 0.544601 -0.670205 -0.504217 
-0.496779 -0.417458 -0.76088 -0.593542 -0.289677 -0.750862 -0.604909 -0.42735 -0.671906 
0.536828 -0.354553 -0.765577 0.744186 -0.477318 -0.467284 -0.650361 -0.13445 -0.747632 
0.580065 -0.209966 -0.787044 0.629386 -0.126796 -0.766679 0.650498 -0.22792 -0.724503 
-0.645984 0.0461548 -0.761954 0.641453 -0.0817468 -0.762795 -0.605889 0.208783 -0.767664 
-0.603842 0.219566 -0.766267 0.65691 0.0663737 -0.751042 0.674085 0.142819 -0.724715 
-0.568653 0.247187 -0.784559 -0.750003 0.321948 -0.577793 0.670283 0.238975 -0.702575 
0.746769 0.27272 -0.606597 -0.552913 0.315685 -0.771123 -0.540387 0.344651 -0.767592 
0.589499 0.414331 -0.693413 0.556525 0.465025 -0.6885 -0.534971 0.395723 -0.746465 
-0.685389 0.523692 -0.505954 -0.515549 0.45158 -0.728206 0.536705 0.495027 -0.683298 
0.502196 0.529712 -0.683523 0.700514 0.620063 -0.353274 -0.482821 0.501037 -0.718224 
-0.599286 0.589586 -0.541521 -0.421998 0.564217 -0.709631 0.134136 0.675492 -0.725064 
0.198692 0.683569 -0.702321 0.452435 0.587835 -0.670636 0.380479 0.626045 -0.680664 
0.614625 0.700475 -0.362728 -0.284544 0.644104 -0.710046 -0.503487 0.728609 -0.464359 
-0.210932 0.662563 -0.718692 0.0276925 0.660993 -0.74988 0.127141 0.676166 -0.725696 
0.116712 0.664197 -0.738391 0.158298 0.742254 -0.651153 0.25429 0.846259 -0.46817 
-0.314772 -0.856524 -0.409004 -0.119643 -0.889875 -0.440236 -0.00462024 -0.871698 -0.490021 
0.0457336 -0.821019 -0.569066 -0.0518383 -0.855018 -0.516 -0.168059 -0.936374 -0.308155 
-0.171096 -0.968195 -0.18255 -0.0485249 -0.987928 -0.147119 0.102348 -0.977493 -0.184476 
0.30042 -0.914441 -0.271194 0.540464 -0.786637 -0.298498 -0.500254 -0.779661 -0.376662 
-0.621499 -0.694409 -0.362677 -0.639743 -0.761329 -0.10539 0.623172 -0.71312 -0.321117 
0.755708 -0.553652 -0.349821 -0.819597 -0.457706 -0.344625 0.794538 -0.490806 -0.357518 
-0.937417 -0.124039 -0.325368 -0.990945 -0.112816 -0.0728103 0.891755 -0.265651 -0.366337 
-0.946619 0.0572565 -0.317229 -0.995712 0.064062 -0.066729 0.936009 -0.0448387 -0.349108 
-0.918644 0.236141 -0.31675 0.943187 0.152774 -0.295056 -0.874788 0.355829 -0.328834 
-0.841465 0.447245 -0.303163 0.900848 0.353571 -0.251913 0.83381 0.509697 -0.21206 
-0.835956 0.458181 -0.302073 -0.86789 0.467759 -0.167238 0.824879 0.524934 -0.209808 
0.844297 0.534735 -0.0349576 -0.764212 0.563583 -0.313613 -0.729286 0.613057 -0.303814 
0.737531 0.636696 -0.225094 0.724496 0.652015 -0.223566 -0.686918 0.666512 -0.289664 
-0.654258 0.700315 -0.28549 0.444149 0.867044 -0.225756 0.655096 0.723033 -0.219256 
0.627351 0.747559 -0.218141 -0.576306 0.764248 -0.289477 -0.518568 0.801089 -0.298905 
-0.273557 0.911131 -0.308231 -0.00707355 0.942392 -0.334436 0.179399 0.917296 -0.355507 
0.230798 0.919457 -0.318325 0.392761 0.889424 -0.233803 0.288467 0.921136 -0.261334 
-0.0157104 0.995335 -0.0951933 -0.642472 -0.766173 -0.0144704 -0.386369 -0.919402 -0.0736189 
-0.166963 -0.977854 -0.126192 -0.056309 -0.985007 -0.163064 0.0497933 -0.983351 -0.17476 
0.0837959 -0.986887 -0.137956 0.0078633 -0.999895 -0.0122078 -0.0784277 -0.991602 0.102837 
-0.0657431 -0.987297 0.144643 0.0287716 -0.992065 0.122391 0.268794 -0.957162 0.107664 
0.500824 -0.862556 0.0719209 -0.662323 -0.749103 -0.0131529 -0.654377 -0.752033 0.0789823 
0.641729 -0.765758 0.0424099 0.765493 -0.642817 0.0283915 -0.900806 -0.433981 -0.0144464 
-0.985699 -0.167608 0.0174545 0.870444 -0.491631 0.0250162 -0.993606 -0.110206 0.0245227 
-0.991074 -0.101597 0.0863163 0.968579 -0.248118 0.0171235 -0.997246 0.0670853 0.0316298 
-0.99182 0.121566 0.0389203 -0.993479 0.0709684 0.0892353 0.998874 -0.00843451 0.0466886 
-0.966782 0.249242 0.0566648 0.978683 0.19295 0.0703534 -0.929112 0.364594 0.0618255 
0.924167 0.374537 0.0750867 -0.885699 0.461546 0.0501322 -0.876594 0.478988 0.0464033 
-0.879884 0.450343 0.151646 0.844025 0.533976 0.0499098 0.841485 0.53806 0.0489379 
0.844783 0.529472 0.0774646 -0.813588 0.580983 0.0231061 -0.75566 0.654947 0.00475518 
0.762389 0.646198 0.0345272 0.739895 0.67182 0.0348244 -0.719232 0.694739 -0.00659803 
-0.676078 0.736812 -0.00524163 0.465981 0.880727 0.0847394 0.668467 0.741603 0.0563713 
0.629619 0.774189 0.0648949 -0.623859 0.78153 -0.00320006 -0.528347 0.849029 0.000112727 
-0.288158 0.957553 -0.00757874 0.17737 0.983982 -0.0178539 0.285797 0.958283 0.00362941 
0.444358 0.892112 0.0817427 0.341398 0.9379 0.0615681 -0.100493 0.994902 -0.00845372 
0.0688745 0.997551 -0.0121605 -0.0179356 0.995966 0.0879214 -0.41894 -0.8739 0.246554 
-0.211161 -0.956433 0.201613 -0.0703292 -0.983291 0.167907 0.066052 -0.98058 0.18466 
0.142482 -0.96574 0.216899 0.0899473 -0.955688 0.280305 -0.00874131 -0.936518 0.350511 
-0.0268519 -0.922178 0.385833 0.0667824 -0.906466 0.416964 0.247697 -0.859365 0.447368 
0.454619 -0.778569 0.432611 -0.604132 -0.74743 0.276356 -0.677002 -0.676357 0.290187 
-0.409753 -0.726036 0.552245 0.0330147 -0.675327 0.736779 0.0799889 -0.68348 0.725574 
0.238723 -0.73036 0.639989 0.499514 -0.751513 0.430945 0.451221 -0.74702 0.488222 
0.740347 -0.529907 0.413625 -0.862588 -0.408971 0.2978 0.76348 -0.493702 0.416361 
0.737596 -0.492954 0.461463 -0.94459 -0.0796628 0.318439 0.88493 -0.246557 0.395105 
0.704468 -0.275096 0.654253 -0.939132 0.0927349 0.330804 0.923934 0.0100948 0.382419 
-0.897244 0.262145 0.355294 0.913081 0.181987 0.364915 -0.866592 0.339068 0.366131 
-0.85337 0.380078 0.356793 -0.813045 0.333581 0.47716 0.886795 0.333182 0.320287 
0.85534 0.429176 0.290174 0.844948 0.298241 0.443976 -0.843769 0.408678 0.347903 
0.828903 0.490651 0.268666 -0.801531 0.526055 0.284279 -0.773466 0.575671 0.265243 
-0.767334 0.48066 0.424459 0.739403 0.630031 0.23737 0.726855 0.644092 0.238385 
0.721057 0.631131 0.285921 -0.707294 0.668464 0.229981 -0.65655 0.718213 0.23046 
-0.592668 0.627739 0.504666 0.435906 0.826461 0.356297 0.590696 0.752089 0.292302 
0.58665 0.754596 0.293983 0.582946 0.752462 0.306553 -0.56573 0.780037 0.267381 
-0.51021 0.812855 0.280986 -0.475871 0.767626 0.429299 -0.290611 0.904046 0.313443 
-0.0182476 0.952846 0.302905 0.191682 0.926296 0.324398 0.312577 0.883315 0.349358 
0.276964 0.719671 0.636683 0.384556 0.85014 0.359693 0.364642 0.85846 0.36067 
0.356355 0.831977 0.425234 -0.232812 -0.792796 0.56327 -0.0557917 -0.827414 0.558814 
0.0957103 -0.78223 0.615594 0.15677 -0.753137 0.638912 0.13947 -0.707628 0.692684 
0.00917934 -0.667444 0.744604 -0.68828 -0.40555 0.601498 -0.400832 -0.722157 0.563758 
-0.409543 -0.715713 0.56571 -0.220743 -0.68003 0.699165 -0.0168979 -0.610346 0.791955 
0.107074 -0.612345 0.783306 0.153236 -0.635167 0.757022 0.0487864 -0.671753 0.739167 
0.143489 -0.667843 0.73034 0.0235573 -0.66627 0.745338 0.0336594 -0.664074 0.746908 
0.0368175 -0.667151 0.744012 0.00879758 -0.658778 0.752286 0.0767344 -0.665497 0.742446 
0.221475 -0.659772 0.718088 0.454239 -0.545371 0.704441 -0.689406 -0.403641 0.601492 
-0.687972 -0.403698 0.603094 -0.382369 -0.390934 0.837236 -0.162389 -0.343469 0.925018 
0.131352 -0.274927 0.952451 0.147006 -0.321176 0.93554 0.11545 -0.413075 0.90335 
0.0383696 -0.454925 0.889702 -0.0178997 -0.468803 0.883121 0.022439 -0.48871 0.872157 
0.167648 -0.486124 0.857658 0.524128 -0.489014 0.697248 0.453063 -0.488033 0.746028 
-0.789299 -0.0980509 0.60613 -0.689322 -0.108294 0.716315 0.227731 -0.332213 0.9153 
0.683123 -0.274219 0.676866 0.444196 -0.271002 0.85396 0.71426 -0.197693 0.671379 
-0.780469 0.107423 0.615897 -0.707262 0.109331 0.698446 -0.352558 0.109294 0.929386 
0.481322 -0.143988 0.864636 0.752806 -0.0284401 0.657628 0.730499 -0.0326403 0.682134 
-0.741286 0.259913 0.618822 -0.736599 0.274047 0.618321 -0.719318 0.259111 0.644548 
-0.412217 0.193507 0.890299 0.519095 0.0213591 0.854449 0.791851 0.125114 0.597762 
0.79347 0.140276 0.592223 0.787006 0.12287 0.604586 -0.706268 0.298734 0.641828 
-0.522768 0.224138 0.822482 -0.258072 0.088822 0.962034 0.788234 0.266778 0.554542 
0.552974 0.204537 0.807703 -0.710958 0.324585 0.623845 -0.714617 0.365109 0.596672 
-0.670815 0.302487 0.677133 -0.389002 0.124859 0.912736 0.734367 0.435676 0.520472 
0.684619 0.526107 0.504488 0.648075 0.41247 0.640209 -0.700279 0.430135 0.569731 
-0.58644 0.615785 0.52621 -0.484414 0.346532 0.80328 0.0386837 0.186836 0.981629 
0.035977 0.29693 0.954221 0.0824106 0.381082 0.920861 0.0762878 0.414724 0.906744 
0.146283 0.482165 0.863782 0.573611 0.625905 0.528406 0.469775 0.679078 0.564061 
0.396918 0.592166 0.701281 -0.578288 0.62182 0.528131 -0.411957 0.692237 0.592536 
-0.28706 0.509308 0.811296 -0.0727427 0.387671 0.918923 0.0263802 0.322732 0.946123 
0.129677 0.36984 0.920001 0.242182 0.625334 0.741826 0.178063 0.450756 0.874707 
0.240796 0.635173 0.733875 0.183825 0.553063 0.812607 0.315515 0.693614 0.647572 
0.307543 0.693555 0.651459 0.302583 0.688128 0.659488 -0.294014 0.710389 0.639455 
-0.21642 0.710362 0.669737 -0.199066 0.671056 0.714183 0.0026573 0.682103 0.731252 
0.0101454 0.604005 0.796916 0.213682 0.65079 0.728569 0.182245 0.660011 0.728815 
0.175641 0.619088 0.765429 0.00127729 -0.33369 0.942682 -0.361413 -0.126568 0.923776 
-0.154455 -0.339924 0.927683 -0.161149 -0.338547 0.927047 0.124086 -0.274697 0.95349 
0.00137624 -0.273399 0.9619 0.129033 -0.264979 0.955582 0.0522517 -0.23232 0.971235 
0.0209123 -0.389551 0.920767 -0.00641858 -0.500347 0.865801 -0.0227635 -0.49477 0.868726 
0.0509446 -0.433137 0.899887 -0.371607 -0.106074 0.92231 -0.357393 0.00673341 0.93393 
-0.359812 -0.105506 0.927041 -0.0964342 -0.0874627 0.991489 0.0664535 -0.0649122 0.995676 
0.0762392 -0.0722319 0.99447 0.0115713 -0.201518 0.979416 -0.0136872 -0.385624 0.922555 
-0.0200257 -0.511276 0.859183 -0.0156271 -0.501535 0.864996 0.215937 -0.338513 0.91585 
0.0697358 -0.415105 0.907097 0.230199 -0.326717 0.916659 -0.330578 0.108096 0.937568 
-0.115011 0.0872665 0.989524 0.0248316 0.0292341 0.999264 -0.0126784 -0.0240442 0.999631 
-0.16413 -0.153054 0.974492 -0.183163 -0.201849 0.962137 -0.0824238 -0.227762 0.970222 
0.0508288 -0.22876 0.972155 0.175906 -0.211386 0.961443 0.4191 -0.157086 0.894248 
0.298703 -0.178387 0.937526 -0.23154 0.138285 0.962947 -0.22423 0.09899 0.969496 
-0.172761 0.117197 0.977967 -0.042375 0.0476686 0.997964 -0.10616 -0.0233019 0.994076 
-0.18494 -0.055156 0.981201 -0.129097 -0.0428514 0.990706 -0.0682176 0.0509463 0.996369 
0.0273895 0.0913981 0.995438 0.143543 0.0454051 0.988602 0.485485 0.0177121 0.874065 
0.303225 0.0102618 0.952864 -0.218359 0.0664667 0.973602 -0.115566 0.0126302 0.993219 
-0.114282 0.0129214 0.993364 -0.190994 0.109069 0.975513 -0.0772706 0.0901868 0.992923 
0.0525479 0.166691 0.984608 0.045503 0.228261 0.972536 0.0944887 0.200779 0.975069 
0.432464 0.186429 0.882167 0.278162 0.176595 0.944161 -0.269493 0.0876899 0.959002 
-0.109708 0.0521313 0.992596 -0.0118302 0.0667819 0.997697 0.0203661 0.186523 0.98224 
-0.0898017 0.190289 0.977612 0.0267535 0.297103 0.954471 -0.0696689 0.29757 0.952154 
0.0731628 0.363301 0.928795 0.063081 0.302939 0.95092 0.0621215 0.362037 0.930091 
0.0565414 0.308759 0.949458 0.105152 0.383853 0.917387 0.0938227 0.321936 0.942101 
0.297085 0.327891 0.896788 0.296318 0.328374 0.896865 0.29618 0.327744 0.897141 
-0.186322 0.243797 0.95176 -0.165402 0.253681 0.953042 -0.160096 0.236057 0.95846 
0.0359901 0.191193 0.980892 0.0140426 0.231746 0.972675 0.0276208 0.198874 0.979636 

