# vtk DataFile Version 4.2
vtk output
ASCII
DATASET POLYDATA
POINTS 522 float
-25.2398 -34.1045 -15.9445 -17.0243 -34.1045 -16.1772 -8.80885 -34.1045 -15.2472 
-41.6707 -25.889 -15.5936 -33.4552 -25.889 -18.2996 -25.2398 -25.889 -19.1422 
-17.0243 -25.889 -18.3832 -8.80885 -25.889 -17.0869 -0.593388 -25.889 -15.1942 
-41.6707 -17.6735 -18.572 -33.4552 -17.6735 -20.3296 -25.2398 -17.6735 -20.1231 
-17.0243 -17.6735 -19.1924 -8.80885 -17.6735 -17.8786 -0.593388 -17.6735 -16.4979 
7.62208 -17.6735 -15.4803 -49.8862 -9.45807 -17.0604 -41.6707 -9.45807 -19.9046 
-33.4552 -9.45807 -20.6452 -25.2398 -9.45807 -20.0404 -17.0243 -9.45807 -18.8359 
-8.80885 -9.45807 -18.4983 -0.593388 -9.45807 -17.0984 7.62208 -9.45807 -18.2751 
15.8375 -9.45807 -16.773 24.053 -9.45807 -16.3109 32.2685 -9.45807 -16.5798 
40.4839 -9.45807 -15.8562 -49.8862 -1.24261 -17.5691 -41.6707 -1.24261 -20.7803 
-33.4552 -1.24261 -21.3206 -25.2398 -1.24261 -20.3246 -17.0243 -1.24261 -18.4036 
-8.80885 -1.24261 -19.6441 -0.593388 -1.24261 -17.0475 7.62208 -1.24261 -18.5965 
15.8375 -1.24261 -17.9479 24.053 -1.24261 -17.8269 32.2685 -1.24261 -18.0894 
40.4839 -1.24261 -17.3982 48.6994 -1.24261 -15.7971 -49.8862 6.97285 -17.1783 
-41.6707 6.97285 -21.0015 -33.4552 6.97285 -21.9568 -25.2398 6.97285 -21.044 
-17.0243 6.97285 -19.1317 -8.80885 6.97285 -19.3784 -0.593388 6.97285 -21.1482 
7.62208 6.97285 -20.6177 15.8375 6.97285 -19.4183 24.053 6.97285 -19.5592 
32.2685 6.97285 -19.4808 40.4839 6.97285 -18.5238 48.6994 6.97285 -15.8434 
-49.8862 15.1883 -15.6578 -41.6707 15.1883 -20.4042 -33.4552 15.1883 -21.6367 
-25.2398 15.1883 -21.4084 -17.0243 15.1883 -20.2757 -8.80885 15.1883 -19.952 
-0.593388 15.1883 -20.8325 7.62208 15.1883 -20.9324 15.8375 15.1883 -20.9853 
24.053 15.1883 -20.9766 32.2685 15.1883 -20.3336 40.4839 15.1883 -19.1166 
48.6994 15.1883 -15.0047 -41.6707 23.4038 -18.2537 -33.4552 23.4038 -20.7461 
-25.2398 23.4038 -21.3179 -17.0243 23.4038 -21.2537 -8.80885 23.4038 -21.7495 
-0.593388 23.4038 -22.4486 7.62208 23.4038 -22.4108 15.8375 23.4038 -22.3691 
24.053 23.4038 -22.1491 32.2685 23.4038 -20.9942 40.4839 23.4038 -18.7131 
-33.4552 31.6192 -17.3665 -25.2398 31.6192 -19.8155 -17.0243 31.6192 -21.1048 
-8.80885 31.6192 -22.9386 -0.593388 31.6192 -23.0816 7.62208 31.6192 -23.0761 
15.8375 31.6192 -22.7103 24.053 31.6192 -22.3911 32.2685 31.6192 -19.2671 
-25.2398 39.8347 -15.3682 -17.0243 39.8347 -18.7885 -8.80885 39.8347 -21.2509 
-0.593388 39.8347 -21.7974 7.62208 39.8347 -22.3922 15.8375 39.8347 -20.841 
24.053 39.8347 -18.3233 -8.80885 48.0502 -15.6023 -0.593388 48.0502 -16.8023 
7.62208 48.0502 -16.3203 -25.2398 -35.4939 -14.9921 -25.2398 -42.3199 -8.50432 
-17.0243 -36.3239 -14.9921 -17.0243 -42.3199 -10.7991 -8.80885 -34.6549 -14.9921 
-8.80885 -42.3199 -10.7778 -0.593388 -42.3199 -9.45064 7.62208 -42.3199 -7.36642 
-41.6707 -26.8756 -14.9921 -41.6707 -34.1045 -8.064 -29.5995 -34.1045 -14.9921 
-33.4552 -32.6638 -14.9921 -33.4552 -34.1045 -13.9646 -7.59988 -34.1045 -14.9921 
-0.593388 -26.8601 -14.9921 -0.593388 -34.1045 -13.3829 7.62208 -34.1045 -11.4272 
15.8375 -34.1045 -9.71194 24.053 -34.1045 -8.65619 32.2685 -34.1045 -6.96137 
-42.6561 -25.889 -14.9921 -49.8862 -25.889 -7.70603 0.266933 -25.889 -14.9921 
7.62208 -19.418 -14.9921 7.62208 -25.889 -13.254 15.8375 -25.889 -12.3607 
24.053 -25.889 -11.8057 32.2685 -25.889 -11.6756 40.4839 -25.889 -9.86399 
-48.9785 -17.6735 -14.9921 -49.8862 -16.1183 -14.9921 -49.8862 -17.6735 -14.2401 
10.9922 -17.6735 -14.9921 15.8375 -15.3749 -14.9921 15.8375 -17.6735 -14.3232 
24.053 -15.1177 -14.9921 24.053 -17.6735 -14.3912 32.2685 -15.1401 -14.9921 
32.2685 -17.6735 -14.2614 40.4839 -13.0935 -14.9921 40.4839 -17.6735 -13.8096 
48.6994 -17.6735 -10.583 -52.2621 -9.45807 -14.9921 43.9204 -9.45807 -14.9921 
48.6994 -4.71024 -14.9921 48.6994 -9.45807 -13.6024 56.9149 -9.45807 -7.68648 
-52.8323 -1.24261 -14.9921 50.0783 -1.24261 -14.9921 56.9149 -1.24261 -9.26818 
-52.1708 6.97285 -14.9921 50.1252 6.97285 -14.9921 56.9149 6.97285 -8.78696 
-50.5497 15.1883 -14.9921 -49.8862 16.6674 -14.9921 48.7145 15.1883 -14.9921 
48.6994 15.2247 -14.9921 -45.8325 23.4038 -14.9921 -49.8862 23.4038 -8.76682 
-41.6707 28.1211 -14.9921 44.9653 23.4038 -14.9921 40.4839 30.8467 -14.9921 
48.6994 23.4038 -9.85317 -37.7945 31.6192 -14.9921 -41.6707 31.6192 -10.3497 
-33.4552 34.8598 -14.9921 39.9316 31.6192 -14.9921 32.2685 39.3223 -14.9921 
40.4839 31.6192 -14.2277 -25.879 39.8347 -14.9921 -25.2398 40.208 -14.9921 
-17.0243 45.3533 -14.9921 15.8375 46.9888 -14.9921 31.545 39.8347 -14.9921 
24.053 43.7692 -14.9921 32.2685 39.8347 -14.1241 -10.4729 48.0502 -14.9921 
-17.0243 48.0502 -9.62545 -8.80885 48.546 -14.9921 -0.593388 49.3508 -14.9921 
11.9683 48.0502 -14.9921 7.62208 48.9932 -14.9921 15.8375 48.0502 -12.0251 
-25.2398 -43.5323 -6.77662 -17.0243 -45.8471 -6.77662 -8.80885 -46.2703 -6.77662 
-0.593388 -45.6386 -6.77662 7.62208 -43.092 -6.77662 -41.6707 -35.1111 -6.77662 
-28.3274 -42.3199 -6.77662 -33.4552 -40.1848 -6.77662 9.68993 -42.3199 -6.77662 
15.8375 -39.294 -6.77662 15.8375 -42.3199 -4.49323 24.053 -37.7937 -6.77662 
24.053 -42.3199 -3.03783 32.2685 -34.3751 -6.77662 -42.9067 -34.1045 -6.77662 
-49.8862 -26.7806 -6.77662 32.7803 -34.1045 -6.77662 40.4839 -30.71 -6.77662 
40.4839 -34.1045 -4.01545 -50.514 -25.889 -6.77662 47.3601 -25.889 -6.77662 
48.6994 -24.7151 -6.77662 48.6994 -25.889 -5.91968 -54.8661 -17.6735 -6.77662 
54.2659 -17.6735 -6.77662 56.9149 -11.5832 -6.77662 56.9149 -17.6735 -3.79167 
-57.1421 -9.45807 -6.77662 57.65 -9.45807 -6.77662 -57.7864 -1.24261 -6.77662 
-58.1016 -1.24261 -2.94926 58.9549 -1.24261 -6.77662 -56.7856 6.97285 -6.77662 
58.2878 6.97285 -6.77662 56.9149 10.9483 -6.77662 -54.6815 15.1883 -6.77662 
55.4257 15.1883 -6.77662 -50.8073 23.4038 -6.77662 -49.8862 24.703 -6.77662 
50.4146 23.4038 -6.77662 48.6994 25.8018 -6.77662 -43.7748 31.6192 -6.77662 
-41.6707 33.4662 -6.77662 -33.4552 39.4784 -6.77662 44.225 31.6192 -6.77662 
40.4839 35.609 -6.77662 -32.8649 39.8347 -6.77662 -25.2398 44.3425 -6.77662 
24.053 47.1866 -6.77662 35.8071 39.8347 -6.77662 32.2685 42.4239 -6.77662 
-18.8002 48.0502 -6.77662 -17.0243 48.9526 -6.77662 -17.0243 48.0502 -1.37272 
-8.80885 51.1838 -6.77662 -0.593388 51.9785 -6.77662 7.62208 51.09 -6.77662 
21.1871 48.0502 -6.77662 15.8375 49.5247 -6.77662 15.8375 48.0502 -0.757712 
-25.2398 -45.8245 1.43885 -17.0243 -48.6813 1.43885 -8.80885 -50.2638 1.43885 
-0.593388 -50.4359 1.43885 7.62208 -49.2526 1.43885 15.8375 -46.9471 1.43885 
24.053 -45.1882 1.43885 -41.6707 -36.4044 1.43885 -32.6239 -42.3199 1.43885 
-33.4552 -41.8886 1.43885 31.7226 -42.3199 1.43885 32.2685 -42.0774 1.43885 
32.2685 -42.3199 5.51557 40.4839 -38.5941 1.43885 -44.3574 -34.1045 1.43885 
-49.8862 -28.0329 1.43885 -41.6707 -34.1045 7.22222 47.2863 -34.1045 1.43885 
48.6994 -32.8943 1.43885 -51.432 -25.889 1.43885 -49.8862 -25.889 5.30647 
55.0371 -25.889 1.43885 56.9149 -23.1193 1.43885 -55.5981 -17.6735 1.43885 
59.7177 -17.6735 1.43885 -57.8343 -9.45807 1.43885 -58.1016 -5.85938 1.43885 
61.2612 -9.45807 1.43885 -58.4446 -1.24261 1.43885 -58.1016 1.43481 1.43885 
-58.1016 -1.24261 2.64385 61.0267 -1.24261 1.43885 -57.3871 6.97285 1.43885 
58.9346 6.97285 1.43885 56.9149 11.1331 1.43885 56.9149 6.97285 5.55904 
-55.0688 15.1883 1.43885 54.7034 15.1883 1.43885 -50.8421 23.4038 1.43885 
-49.8862 24.6529 1.43885 -49.8862 23.4038 3.81758 48.8998 23.4038 1.43885 
48.6994 23.6675 1.43885 48.6994 23.4038 1.71369 -42.9725 31.6192 1.43885 
-41.6707 32.7033 1.43885 -41.6707 31.6192 3.45776 -33.4552 38.3174 1.43885 
41.7143 31.6192 1.43885 40.4839 32.8744 1.43885 40.4839 31.6192 2.77794 
-30.6917 39.8347 1.43885 -25.2398 42.9441 1.43885 -25.2398 39.8347 6.2931 
-17.0243 47.4975 1.43885 15.8375 47.469 1.43885 24.053 44.6053 1.43885 
24.053 39.8347 7.92531 32.4263 39.8347 1.43885 32.2685 39.9429 1.43885 
32.2685 39.8347 1.5836 -15.2547 48.0502 1.43885 -8.80885 49.9832 1.43885 
-8.80885 48.0502 4.71881 -0.593388 50.6637 1.43885 -0.593388 48.0502 5.88629 
13.5208 48.0502 1.43885 7.62208 49.497 1.43885 7.62208 48.0502 3.87693 
-25.2398 -44.4094 9.65431 -17.0243 -47.3838 9.65431 -8.80885 -49.5333 9.65431 
-0.593388 -50.112 9.65431 7.62208 -49.0977 9.65431 15.8375 -47.321 9.65431 
24.053 -45.087 9.65431 32.2685 -42.5255 9.65431 -28.9699 -42.3199 9.65431 
-33.4552 -39.1509 9.65431 -25.2398 -42.3199 12.5021 -17.0243 -42.3199 15.8791 
7.62208 -42.3199 17.4581 15.8375 -42.3199 15.5568 24.053 -42.3199 13.2354 
32.7528 -42.3199 9.65431 32.2685 -42.3199 10.0567 40.4839 -38.7922 9.65431 
-40.2993 -34.1045 9.65431 -41.6707 -32.8027 9.65431 -33.4552 -34.1045 14.5242 
47.0728 -34.1045 9.65431 40.4839 -34.1045 14.8789 48.6994 -32.3801 9.65431 
-47.6861 -25.889 9.65431 -49.8862 -22.8394 9.65431 -41.6707 -25.889 14.6013 
53.6845 -25.889 9.65431 48.6994 -25.889 15.5175 56.9149 -18.881 9.65431 
-52.6642 -17.6735 9.65431 -49.8862 -17.6735 13.0092 48.6994 -17.6735 16.9613 
57.3764 -17.6735 9.65431 56.9149 -17.6735 10.3741 -54.9998 -9.45807 9.65431 
-49.8862 -9.45807 15.0334 48.6994 -9.45807 17.0746 59.0778 -9.45807 9.65431 
56.9149 -9.45807 12.1817 -55.7331 -1.24261 9.65431 -49.8862 -1.24261 15.7809 
48.6994 -1.24261 16.0721 57.6079 -1.24261 9.65431 56.9149 0.794111 9.65431 
56.9149 -1.24261 10.4263 -54.7861 6.97285 9.65431 -49.8862 6.97285 15.1021 
40.4839 6.97285 17.2988 54.0947 6.97285 9.65431 48.6994 6.97285 14.194 
-52.3503 15.1883 9.65431 -49.8862 19.4077 9.65431 -49.8862 15.1883 12.8025 
32.2685 15.1883 16.8582 40.4839 15.1883 14.4286 49.046 15.1883 9.65431 
48.6994 15.6268 9.65431 48.6994 15.1883 9.95973 -46.6373 23.4038 9.65431 
-41.6707 27.8225 9.65431 -41.6707 23.4038 13.4772 -33.4552 23.4038 16.4146 
-25.2398 23.4038 17.4051 -17.0243 23.4038 17.7516 7.62208 23.4038 17.0994 
15.8375 23.4038 17.0511 24.053 23.4038 16.5094 32.2685 23.4038 14.3697 
41.4246 23.4038 9.65431 40.4839 24.3936 9.65431 40.4839 23.4038 10.3307 
-35.6993 31.6192 9.65431 -33.4552 32.9445 9.65431 -33.4552 31.6192 10.8964 
[...]
POINT_DATA 522
SCALARS ImageScalars float
LOOKUP_TABLE default
0 0 0 0 0 0 0 0 0 
0 0 0 0 0 0 0 0 0 
0 0 0 0 0 0 0 0 0 
0 0 0 0 0 0 0 0 0 
0 0 0 0 0 0 0 0 0 
0 0 0 0 0 0 0 0 0 
0 0 0 0 0 0 0 0 0 
0 0 0 0 0 0 0 0 0 
0 0 0 0 0 0 0 0 0 
0 0 0 0 0 0 0 0 0 
0 0 0 0 0 0 0 0 0 
0 0 0 0 0 0 0 0 0 
0 0 0 0 0 0 0 0 0 
0 0 0 0 0 0 0 0 0 
0 0 0 0 0 0 0 0 0 
0 0 0 0 0 0 0 0 0 
0 0 0 0 0 0 0 0 0 
0 0 0 0 0 0 0 0 0 
0 0 0 0 0 0 0 0 0 
0 0 0 0 0 0 0 0 0 
0 0 0 0 0 0 0 0 0 
0 0 0 0 0 0 0 0 0 
0 0 0 0 0 0 0 0 0 
0 0 0 0 0 0 0 0 0 
0 0 0 0 0 0 0 0 0 
0 0 0 0 0 0 0 0 0 
0 0 0 0 0 0 0 0 0 
0 0 0 0 0 0 0 0 0 
0 0 0 0 0 0 0 0 0 
0 0 0 0 0 0 0 0 0 
0 0 0 0 0 0 0 0 0 
0 0 0 0 0 0 0 0 0 
0 0 0 0 0 0 0 0 0 
0 0 0 0 0 0 0 0 0 
0 0 0 0 0 0 0 0 0 
0 0 0 0 0 0 0 0 0 
0 0 0 0 0 0 0 0 0 
0 0 0 0 0 0 0 0 0 
0 0 0 0 0 0 0 0 0 
0 0 0 0 0 0 0 0 0 
0 0 0 0 0 0 0 0 0 
0 0 0 0 0 0 0 0 0 
0 0 0 0 0 0 0 0 0 
0 0 0 0 0 0 0 0 0 
0 0 0 0 0 0 0 0 0 
0 0 0 0 0 0 0 0 0 
0 0 0 0 0 0 0 0 0 
0 0 0 0 0 0 0 0 0 
0 0 0 0 0 0 0 0 0 
0 0 0 0 0 0 0 0 0 
0 0 0 0 0 0 0 0 0 
0 0 0 0 0 0 0 0 0 
0 0 0 0 0 0 0 0 0 
0 0 0 0 0 0 0 0 0 
0 0 0 0 0 0 0 0 0 
0 0 0 0 0 0 0 0 0 
0 0 0 0 0 0 0 0 0 
0 0 0 0 0 0 0 0 0 

NORMALS Normals float
0.108394 0.4821 0.869385 -0.0439143 0.384634 0.922024 -0.157933 0.329775 0.930755 
0.414718 0.430322 0.801768 0.18432 0.321519 0.928791 0.00567233 0.222189 0.974987 
-0.115879 0.178316 0.977126 -0.191853 0.160568 0.968199 -0.220464 0.178309 0.958959 
0.307077 0.227138 0.924182 0.0967892 0.14686 0.98441 -0.0688851 0.0507148 0.996335 
-0.134308 0.0263126 0.99059 -0.162109 0.082435 0.983324 -0.140031 0.112475 0.983738 
-0.130707 0.302287 0.944213 0.546713 0.165913 0.820718 0.206351 0.133273 0.969359 
0.00622882 0.0593131 0.99822 -0.109513 0.0121577 0.993911 -0.0934334 -0.046558 0.994536 
-0.104044 0.099903 0.989542 -0.0156196 0.0345577 0.999281 -0.0143645 0.175391 0.984394 
-0.1206 0.21833 0.968394 -0.0102204 0.204685 0.978775 -0.0252866 0.226162 0.973762 
-0.15864 0.213875 0.963894 0.556666 0.00997318 0.830676 0.200402 0.0648781 0.977563 
-0.0290278 0.0786293 0.996481 -0.17116 0.0608145 0.983365 -0.0493298 0.0152836 0.998666 
-0.0481374 0.0609998 0.996976 -0.0689985 0.294323 0.953212 0.0336227 0.155523 0.98726 
-0.0437055 0.157296 0.986584 0.00851372 0.191916 0.981374 -0.0250343 0.17173 0.984826 
-0.139363 0.153343 0.978296 -0.381627 0.110316 0.91771 0.607465 -0.0981603 0.788258 
0.25221 -0.023999 0.967375 -0.00129251 0.0196364 0.999806 -0.161775 0.0655785 0.984646 
-0.106156 0.114418 0.987745 0.131659 0.0204327 0.991084 0.0615435 0.166846 0.98406 
-0.104469 0.130465 0.985934 -0.063429 0.181764 0.981294 0.00373485 0.190352 0.981709 
-0.0614988 0.134398 0.989017 -0.201925 0.103588 0.973908 -0.431324 -0.0400294 0.901309 
0.702047 -0.258972 0.663373 0.306043 -0.134061 0.942531 0.0601158 -0.0681315 0.995864 
-0.0819559 0.0165852 0.996498 -0.089084 0.125922 0.988032 0.0343087 0.137271 0.989939 
0.0580239 0.079256 0.995164 0.00929333 0.108962 0.994002 0.00265174 0.177032 0.984201 
-0.0390412 0.152651 0.987509 -0.116263 0.0877631 0.989333 -0.274283 0.01682 0.961502 
-0.614765 -0.189989 0.765485 0.448155 -0.403989 0.797465 0.15705 -0.243198 0.957178 
0.0277577 -0.088631 0.995678 0.0251255 0.0501515 0.998426 0.0728493 0.175763 0.981733 
0.0385753 0.136042 0.989952 -0.00481041 0.129406 0.99158 -0.0155647 0.103226 0.994536 
-0.0793221 0.0849581 0.993222 -0.182515 -0.0618686 0.981255 -0.470108 -0.23057 0.85196 
0.362584 -0.498145 0.787645 0.214845 -0.295014 0.931025 0.17935 -0.133593 0.974673 
0.120499 -0.0187756 0.992536 0.00806066 -0.0366225 0.999297 -0.0220145 0.00544309 0.999743 
-0.0401717 -0.0830648 0.995734 -0.192738 -0.186341 0.963395 -0.398474 -0.307939 0.86394 
0.42455 -0.649438 0.630862 0.295455 -0.425759 0.85524 0.168748 -0.342831 0.924117 
0.060326 -0.279706 0.958189 -0.0515766 -0.294018 0.954407 -0.221826 -0.416078 0.881858 
-0.316782 -0.5586 0.766561 0.191347 -0.79099 0.581138 0.0332739 -0.794376 0.606515 
-0.127435 -0.82296 0.553622 0.128143 0.525091 0.841344 0.271687 0.816146 0.509992 
-0.0175988 0.453381 0.891143 0.0855796 0.69845 0.710523 -0.154253 0.342669 0.926706 
-0.072755 0.613305 0.786488 -0.181974 0.555969 0.811039 -0.231346 0.571328 0.787441 
0.427102 0.459556 0.778712 0.551525 0.732526 0.399032 0.206306 0.538174 0.817194 
0.268349 0.534507 0.801431 0.302508 0.6015 0.739383 -0.167539 0.325879 0.930448 
-0.220658 0.192905 0.956085 -0.215737 0.309744 0.926022 -0.199223 0.319098 0.926545 
-0.163554 0.38277 0.909251 -0.130337 0.416464 0.899761 -0.24977 0.545364 0.80012 
0.448453 0.442456 0.77661 0.776624 0.521639 0.353196 -0.214372 0.184642 0.959141 
-0.138431 0.288918 0.947293 -0.16429 0.233974 0.958261 -0.0837434 0.256803 0.962829 
-0.0386298 0.334324 0.941666 -0.110772 0.36128 0.925854 -0.252498 0.454381 0.854273 
0.55893 0.341244 0.755745 0.587567 0.316817 0.744575 0.612743 0.358209 0.704437 
-0.103423 0.283008 0.953525 -0.0793394 0.245377 0.966176 -0.0619601 0.254284 0.965143 
-0.00401041 0.244477 0.969647 -0.00348303 0.262601 0.964898 -0.0275918 0.259999 0.965215 
-0.0315452 0.277141 0.960311 -0.177275 0.265656 0.947629 -0.194513 0.332862 0.922696 
-0.416105 0.345699 0.84104 0.669873 0.154546 0.726213 -0.241826 0.252676 0.936843 
-0.375467 0.194211 0.90626 -0.375939 0.302281 0.875955 -0.74811 0.222309 0.625228 
0.700829 -0.00350867 0.71332 -0.435505 0.104361 0.894117 -0.788608 0.043826 0.613333 
0.724525 -0.114816 0.679618 -0.493085 -0.059401 0.867951 -0.873327 -0.180353 0.452518 
0.729036 -0.262227 0.632253 0.715524 -0.298761 0.631481 -0.615225 -0.190168 0.765071 
-0.615252 -0.190851 0.76488 0.609254 -0.470947 0.63798 0.806429 -0.515286 0.29009 
0.538863 -0.555971 0.632869 -0.611865 -0.349314 0.709648 -0.617752 -0.482625 0.620851 
-0.790521 -0.507071 0.343447 0.486869 -0.578912 0.654079 0.628278 -0.697356 0.344907 
0.42829 -0.613807 0.663181 -0.613732 -0.49093 0.618321 -0.497833 -0.665897 0.555647 
-0.64361 -0.522311 0.559426 0.432676 -0.66252 0.61144 0.432478 -0.663273 0.610763 
0.370363 -0.701873 0.608445 -0.246816 -0.823614 0.510628 -0.488038 -0.677627 0.550128 
-0.367444 -0.729314 0.577136 -0.51355 -0.7068 0.486519 0.23067 -0.802497 0.550263 
0.388999 -0.892341 0.228925 0.189883 -0.81391 0.549085 0.0225958 -0.860021 0.509758 
-0.191772 -0.85389 0.483834 -0.127475 -0.867109 0.481532 -0.24845 -0.916354 0.313956 
0.291487 0.853613 0.431717 0.146986 0.836968 0.527142 -0.00509984 0.797107 0.603817 
-0.141185 0.699527 0.700521 -0.233667 0.598903 0.765974 0.561596 0.755305 0.337822 
0.327451 0.849343 0.413996 0.397738 0.832715 0.385215 -0.221153 0.58963 0.776806 
-0.174183 0.547673 0.818361 -0.197378 0.70669 0.679434 -0.148886 0.531717 0.833732 
-0.208673 0.791625 0.57427 -0.255489 0.552297 0.793533 0.587566 0.737763 0.332371 
0.780438 0.544255 0.307739 -0.256216 0.551992 0.79351 -0.292492 0.565573 0.771087 
-0.351593 0.695323 0.626824 0.793767 0.523345 0.309909 -0.468081 0.508416 0.722782 
-0.499859 0.492566 0.712405 -0.529051 0.531103 0.661842 0.896544 0.34479 0.27808 
-0.639839 0.367561 0.674911 -0.752953 0.265312 0.602222 -0.814355 0.372426 0.445111 
0.945556 0.161382 0.282632 -0.775544 0.224802 0.589912 0.963728 -0.0204462 0.266101 
0.995581 -0.0236985 0.0908658 -0.869227 0.0264354 0.493706 0.950878 -0.174205 0.255896 
-0.912171 -0.20776 0.353241 -0.904986 -0.300953 0.300712 0.920146 -0.321243 0.223907 
-0.882428 -0.398637 0.24982 0.833382 -0.517203 0.194875 0.815352 -0.546485 0.191193 
-0.824315 -0.547303 0.144793 -0.80561 -0.576807 0.135224 0.679207 -0.716563 0.158793 
0.643902 -0.750188 0.150363 0.529032 -0.840668 0.115768 -0.751455 -0.655108 0.0784166 
-0.701447 -0.710263 0.0591415 0.524698 -0.843771 0.112879 0.494869 -0.862353 0.107009 
-0.382994 -0.923577 0.0179078 -0.611693 -0.790286 0.0357594 -0.551091 -0.834061 0.0253069 
0.406892 -0.910386 0.0750724 0.376811 -0.923372 0.0734661 0.377154 -0.904476 -0.199192 
0.182061 -0.980521 0.0737054 -0.00694641 -0.997389 0.0718878 -0.142957 -0.989189 0.0326934 
-0.330439 -0.943725 0.0138585 -0.239249 -0.970707 0.0220738 -0.255909 -0.924874 -0.281279 
0.37396 0.926539 0.0409716 0.249323 0.96521 0.0787916 0.107027 0.979856 0.168604 
-0.0548752 0.980273 0.189877 -0.193633 0.94861 0.250289 -0.2386 0.917091 0.319397 
-0.277793 0.916773 0.286983 0.619048 0.78019 -0.0899079 0.471671 0.881412 -0.0252837 
0.484182 0.874204 -0.0365454 -0.370738 0.890616 0.263355 -0.376102 0.887527 0.266163 
-0.372935 0.927634 0.0203697 -0.43263 0.845025 0.314269 0.666985 0.738865 -0.0959613 
0.801245 0.587055 -0.115642 0.614329 0.699858 -0.364416 -0.605525 0.75403 0.254515 
-0.643764 0.728378 0.234592 0.833935 0.539653 -0.115441 0.786628 0.541617 -0.296426 
-0.798623 0.57309 0.183765 -0.858121 0.492024 0.146767 0.932979 0.341349 -0.114156 
-0.936782 0.336773 0.0949932 0.981545 0.162578 -0.100687 0.991684 0.0799909 -0.100818 
-0.995765 0.0804993 0.0443961 0.994435 -0.0265981 -0.101936 0.991758 -0.0796223 -0.100379 
0.988009 -0.025415 -0.152287 -0.989418 -0.128769 -0.0668582 0.976697 -0.190616 -0.0986303 
-0.919792 -0.353017 -0.171353 -0.885936 -0.411144 -0.214657 -0.843898 -0.376194 -0.382511 
0.926333 -0.357604 -0.118431 -0.830671 -0.486819 -0.270172 0.81472 -0.556877 -0.161615 
0.792838 -0.58547 -0.16921 0.779199 -0.57128 -0.257852 -0.73991 -0.57599 -0.347519 
-0.737058 -0.578766 -0.348963 -0.733976 -0.575815 -0.360162 0.627203 -0.744325 -0.229341 
0.603963 -0.761113 -0.236507 0.585666 -0.747827 -0.31265 0.494432 -0.816099 -0.299197 
-0.657143 -0.635089 -0.405987 -0.643528 -0.647566 -0.408081 -0.630731 -0.622098 -0.463867 
0.485455 -0.818067 -0.308382 0.463109 -0.824801 -0.324396 0.408573 -0.742467 -0.530858 
0.365687 -0.864776 -0.344144 -0.259802 -0.881818 -0.393573 -0.369341 -0.832811 -0.412326 
-0.346445 -0.672281 -0.654228 -0.505312 -0.752372 -0.422606 -0.502684 -0.754034 -0.422779 
-0.502138 -0.75106 -0.42868 0.326069 -0.881385 -0.341818 0.180417 -0.923619 -0.338198 
0.17487 -0.858201 -0.482608 -0.0293687 -0.935659 -0.351682 -0.0299772 -0.847636 -0.529731 
-0.234753 -0.893572 -0.382648 -0.174854 -0.916033 -0.360985 -0.177821 -0.867774 -0.464056 
0.403071 0.825605 -0.394855 0.290389 0.883491 -0.367583 0.147766 0.937056 -0.316373 
-0.0248143 0.959161 -0.281771 -0.156117 0.94475 -0.288227 -0.235549 0.924538 -0.299576 
-0.282384 0.902169 -0.326113 -0.345887 0.91133 -0.223249 0.458912 0.786905 -0.412529 
0.511657 0.72318 -0.463917 0.389043 0.743301 -0.544195 0.252525 0.61383 -0.74796 
-0.141997 0.472051 -0.87006 -0.199489 0.626514 -0.753448 -0.222775 0.783751 -0.579746 
-0.351676 0.908829 -0.224396 -0.343226 0.905512 -0.249487 -0.466828 0.831922 -0.299963 
0.576307 0.652517 -0.492029 0.588176 0.633776 -0.502372 0.444632 0.529997 -0.722084 
-0.641971 0.696144 -0.321337 -0.416388 0.603971 -0.679589 -0.690872 0.645727 -0.325164 
0.674631 0.511786 -0.531928 0.732582 0.449607 -0.511055 0.48849 0.432503 -0.757838 
-0.796369 0.464988 -0.386758 -0.586231 0.355014 -0.728215 -0.849153 0.299499 -0.435016 
0.792453 0.336211 -0.5089 0.686955 0.313839 -0.655437 -0.409621 0.067008 -0.909791 
-0.856625 0.273022 -0.437782 -0.840881 0.270371 -0.468849 0.835732 0.165636 -0.523561 
0.609695 0.130803 -0.781769 -0.368242 -0.0495679 -0.928408 -0.865343 0.0204807 -0.500762 
-0.750902 -0.0180417 -0.660167 0.863636 -0.0126103 -0.503959 0.588266 0.00430567 -0.808656 
-0.406344 -0.145696 -0.902029 -0.773644 -0.22809 -0.591143 -0.756054 -0.268595 -0.596858 
-0.746442 -0.22822 -0.625092 0.851325 -0.177795 -0.493593 0.630922 -0.131313 -0.764653 
-0.216816 -0.220254 -0.951041 -0.675281 -0.3707 -0.637634 -0.469306 -0.30661 -0.828095 
0.795012 -0.371604 -0.479444 0.723543 -0.481108 -0.494995 0.693694 -0.354523 -0.626978 
-0.218012 -0.238088 -0.946459 -0.348033 -0.356456 -0.867071 -0.592209 -0.46509 -0.658012 
-0.58665 -0.467321 -0.661402 -0.579548 -0.463537 -0.670267 0.603638 -0.580736 -0.54623 
0.478841 -0.653873 -0.5858 0.411838 -0.5512 -0.72565 0.197702 -0.442446 -0.874732 
0.0711446 -0.347358 -0.93503 0.0816413 -0.239438 -0.967473 -0.0841137 -0.184333 -0.979258 
-0.0336335 -0.235601 -0.971268 -0.151055 -0.275423 -0.949381 -0.313045 -0.34719 -0.884003 
-0.513387 -0.493424 -0.702116 -0.505986 -0.495704 -0.705873 -0.495152 -0.483205 -0.722037 
0.389777 -0.663908 -0.6382 0.362145 -0.661155 -0.657058 0.3366 -0.635142 -0.695194 
0.324029 -0.63698 -0.699473 0.221907 -0.506085 -0.833448 0.186142 -0.376687 -0.907446 
0.0976328 -0.315637 -0.943844 -0.0566926 -0.271142 -0.960868 -0.121998 -0.262994 -0.957053 
-0.127406 -0.340022 -0.931747 -0.320216 -0.598404 -0.734421 -0.242528 -0.418791 -0.875097 
-0.450748 -0.527646 -0.720011 -0.444279 -0.532861 -0.720191 -0.440386 -0.522644 -0.730002 
0.309041 -0.622303 -0.719189 0.293877 -0.616597 -0.730372 0.280553 -0.58219 -0.763115 
0.167842 -0.665899 -0.726916 0.155295 -0.529964 -0.83368 -0.0313942 -0.695669 -0.717676 
-0.0286454 -0.492255 -0.86998 -0.17124 -0.639554 -0.749431 -0.156881 -0.511449 -0.844872 
-0.267115 -0.616083 -0.741007 -0.22038 -0.621031 -0.752166 -0.210899 -0.581095 -0.786035 
0.120898 0.483961 -0.866698 -0.0319749 0.479319 -0.877058 0.290857 0.403891 -0.867337 
0.136687 0.480785 -0.866119 0.1969 0.453042 -0.869473 0.118965 0.467465 -0.87597 
-0.100779 0.448355 -0.888156 -0.033701 0.433425 -0.900559 -0.127798 0.420175 -0.898399 
-0.13376 0.428774 -0.893455 -0.104694 0.407112 -0.907358 -0.206567 0.431217 -0.878283 
0.303904 0.385138 -0.871385 0.319069 0.301632 -0.89845 0.280163 0.361487 -0.889289 
0.128242 0.290754 -0.948165 0.0130716 0.190628 -0.981575 -0.0311319 0.168634 -0.985187 
-0.0414564 0.199256 -0.97907 -0.0833202 0.307809 -0.947793 -0.0921482 0.356702 -0.929663 
-0.214785 0.424359 -0.879651 -0.203575 0.418354 -0.885176 -0.288915 0.336014 -0.89645 
0.322748 0.291794 -0.900383 0.338112 0.221966 -0.914555 0.302347 0.277172 -0.91201 
0.173846 0.153429 -0.972747 0.0671023 0.0288275 -0.99733 -0.00510688 0.0195688 -0.999795 
-0.0258155 0.0159002 -0.99954 -0.0141356 0.076493 -0.99697 -0.0110312 0.0629628 -0.997955 
-0.0418868 0.124311 -0.991359 -0.0809747 0.129289 -0.988295 -0.36844 0.270129 -0.88954 
-0.260223 0.24109 -0.934965 0.343912 0.213435 -0.914423 0.330116 0.209032 -0.920505 
0.1897 0.12729 -0.973556 0.0423351 0.0338709 -0.998529 -0.0141962 -0.00323257 -0.999894 
-0.00395435 0.0534937 -0.99856 0.0243448 0.048772 -0.998513 0.0117458 0.102029 -0.994712 
-0.0266215 -0.0582561 -0.997947 -0.0189686 -0.0565382 -0.99822 -0.0804694 -0.0211602 -0.996532 
-0.31856 0.0362116 -0.947211 -0.205985 0.000530765 -0.978555 0.366982 0.091673 -0.9257 
0.278827 0.084942 -0.956577 0.110441 0.0392135 -0.993109 0.0531227 -0.0127785 -0.998506 
0.0884108 0.0309137 -0.995604 0.0503859 0.155694 -0.986519 0.0169256 -0.0386934 -0.999108 
-0.121254 0.0204973 -0.99241 -0.172581 -0.155073 -0.972712 -0.00410906 -0.139331 -0.990237 
-0.0318226 -0.105015 -0.993961 -0.290914 -0.0546735 -0.955186 -0.166414 -0.0644284 -0.983949 
0.395639 0.00999341 -0.918352 0.263197 0.013364 -0.964649 0.0802001 0.0087302 -0.996741 
0.0340135 -0.023082 -0.999155 0.146864 -0.0711595 -0.986594 -0.0757262 -0.0453915 -0.996095 
-0.111193 -0.138467 -0.984105 -0.0895388 -0.105024 -0.990431 -0.189748 -0.0443796 -0.980829 
0.0412177 -0.0861617 -0.995428 -0.00877091 -0.0877871 -0.996101 -0.213562 -0.115572 -0.970069 
-0.186216 -0.163154 -0.968868 -0.161992 -0.114337 -0.980146 0.385384 -0.0901476 -0.918342 
0.277996 -0.0862483 -0.956703 0.072635 -0.0872867 -0.993532 -0.0243451 -0.0728234 -0.997048 
0.0795318 -0.121646 -0.989382 0.00136158 -0.141744 -0.989902 -0.0517262 0.0423202 -0.997764 
-0.0477361 -0.14088 -0.988875 -0.157817 0.0281951 -0.987066 -0.0473871 -0.0135355 -0.998785 
-0.146194 -0.176792 -0.97333 -0.125053 -0.17072 -0.977352 -0.0619961 -0.122201 -0.990567 
0.308227 -0.28226 -0.908474 0.296173 -0.292365 -0.909288 0.291803 -0.279862 -0.914619 
0.144837 -0.343107 -0.928063 0.0967059 -0.227952 -0.968858 0.0536391 -0.313597 -0.94804 
-0.00408424 -0.177273 -0.984153 0.0806625 -0.232157 -0.969328 0.0714787 -0.140406 -0.98751 
0.0789096 -0.181022 -0.980308 -0.105101 -0.0990797 -0.989514 -0.0910102 -0.207269 -0.974041 
-0.103611 -0.241455 -0.964865 -0.0369645 -0.191532 -0.98079 -0.0482844 -0.135188 -0.989643 
-0.150176 -0.149345 -0.977314 -0.1273 -0.151062 -0.980293 -0.11961 -0.108416 -0.986884 
0.0770751 -0.238779 -0.96801 0.0700213 -0.271588 -0.959863 0.0432065 -0.237318 -0.970471 
-0.0940275 -0.19845 -0.97559 -0.0828242 -0.234391 -0.968608 -0.102257 -0.210906 -0.972143 

