# vtk DataFile Version 4.2
vtk output
ASCII
DATASET POLYDATA
POINTS 518 float
-28.3071 -24.4915 -12.4361 -21.259 -24.4915 -13.8754 -14.211 -24.4915 -13.5845 
-7.16288 -24.4915 -13.2676 -0.114792 -24.4915 -13.2645 6.93329 -24.4915 -13.6552 
13.9814 -24.4915 -13.1036 21.0295 -24.4915 -13.0121 28.0775 -24.4915 -12.8875 
-35.3552 -17.4434 -13.5473 -28.3071 -17.4434 -14.7551 -21.259 -17.4434 -15.4222 
-14.211 -17.4434 -14.3888 -7.16288 -17.4434 -13.3328 -0.114792 -17.4434 -13.2589 
6.93329 -17.4434 -13.6826 13.9814 -17.4434 -13.6883 21.0295 -17.4434 -14.4238 
28.0775 -17.4434 -14.683 35.1256 -17.4434 -14.0298 42.1737 -17.4434 -12.3653 
-42.4033 -10.3953 -13.6992 -35.3552 -10.3953 -15.771 -28.3071 -10.3953 -16.5102 
-21.259 -10.3953 -15.8869 -14.211 -10.3953 -14.4452 -7.16288 -10.3953 -12.8379 
-0.114792 -10.3953 -13.8306 6.93329 -10.3953 -13.9714 13.9814 -10.3953 -14.0707 
21.0295 -10.3953 -15.3542 28.0775 -10.3953 -15.9506 35.1256 -10.3953 -15.8712 
42.1737 -10.3953 -14.2854 -42.4033 -3.34722 -14.7212 -35.3552 -3.34722 -16.8147 
-28.3071 -3.34722 -17.4792 -21.259 -3.34722 -17.037 -14.211 -3.34722 -15.9519 
-7.16288 -3.34722 -15.3493 -0.114792 -3.34722 -15.0643 6.93329 -3.34722 -16.9141 
13.9814 -3.34722 -14.9654 21.0295 -3.34722 -15.4678 28.0775 -3.34722 -16.1597 
35.1256 -3.34722 -15.9192 42.1737 -3.34722 -14.9512 49.2218 -3.34722 -12.9419 
-42.4033 3.70087 -14.4805 -35.3552 3.70087 -16.8883 -28.3071 3.70087 -17.8876 
-21.259 3.70087 -17.938 -14.211 3.70087 -17.5894 -7.16288 3.70087 -17.4842 
-0.114792 3.70087 -16.8707 6.93329 3.70087 -17.9662 13.9814 3.70087 -14.2612 
21.0295 3.70087 -14.8746 28.0775 3.70087 -15.6864 35.1256 3.70087 -15.9922 
42.1737 3.70087 -15.2686 49.2218 3.70087 -13.1763 -42.4033 10.749 -13.3476 
-35.3552 10.749 -16.1465 -28.3071 10.749 -17.5953 -21.259 10.749 -18.0091 
-14.211 10.749 -17.3433 -7.16288 10.749 -16.0532 -0.114792 10.749 -17.8055 
6.93329 10.749 -17.5929 13.9814 10.749 -14.959 21.0295 10.749 -15.396 
28.0775 10.749 -16.335 35.1256 10.749 -15.9763 42.1737 10.749 -14.7546 
49.2218 10.749 -12.414 -35.3552 17.797 -14.8804 -28.3071 17.797 -17.1248 
-21.259 17.797 -17.9445 -14.211 17.797 -17.0588 -7.16288 17.797 -15.9061 
-0.114792 17.797 -15.6173 6.93329 17.797 -15.7991 13.9814 17.797 -15.5558 
21.0295 17.797 -15.6998 28.0775 17.797 -16.2712 35.1256 17.797 -16.2295 
42.1737 17.797 -14.8411 -35.3552 24.8451 -12.6239 -28.3071 24.8451 -15.4351 
-21.259 24.8451 -17.1325 -14.211 24.8451 -16.2618 -7.16288 24.8451 -15.6207 
-0.114792 24.8451 -15.1281 6.93329 24.8451 -14.3158 13.9814 24.8451 -14.0428 
21.0295 24.8451 -14.509 28.0775 24.8451 -15.611 35.1256 24.8451 -14.0873 
42.1737 24.8451 -13.6524 -21.259 31.8932 -14.259 -14.211 31.8932 -14.4542 
-7.16288 31.8932 -14.2602 -0.114792 31.8932 -13.3082 -28.3071 -25.3306 -11.9299 
-28.3071 -31.5396 -5.76129 -21.259 -28.7759 -11.9299 -21.259 -31.5396 -9.74955 
-14.211 -28.8111 -11.9299 -14.211 -31.5396 -10.5987 -7.16288 -28.6376 -11.9299 
-7.16288 -31.5396 -10.8142 -0.114792 -28.8424 -11.9299 -0.114792 -31.5396 -10.9848 
6.93329 -29.4857 -11.9299 6.93329 -31.5396 -11.1067 13.9814 -28.096 -11.9299 
13.9814 -31.5396 -10.5387 21.0295 -26.8551 -11.9299 21.0295 -31.5396 -9.07264 
28.0775 -25.9674 -11.9299 28.0775 -31.5396 -6.06769 -29.8888 -24.4915 -11.9299 
-35.3552 -20.8547 -11.9299 -35.3552 -24.4915 -9.53185 31.4113 -24.4915 -11.9299 
35.1256 -21.954 -11.9299 35.1256 -24.4915 -10.4396 42.1737 -18.0957 -11.9299 
42.1737 -24.4915 -7.38622 -39.4322 -17.4434 -11.9299 -42.4033 -14.7419 -11.9299 
-42.4033 -17.4434 -10.3271 43.6046 -17.4434 -11.9299 49.2218 -17.4434 -9.59019 
-45.3918 -10.3953 -11.9299 -49.4514 -10.3953 -8.38066 48.0348 -10.3953 -11.9299 
49.2218 -7.90878 -11.9299 49.2218 -10.3953 -11.3652 56.2699 -10.3953 -5.61061 
-47.078 -3.34722 -11.9299 -49.4514 -3.34722 -10.1516 51.1357 -3.34722 -11.9299 
56.2699 -3.34722 -8.50226 -46.5858 3.70087 -11.9299 -49.4514 3.70087 -9.7729 
51.5635 3.70087 -11.9299 56.2699 3.70087 -8.87934 -45.0532 10.749 -11.9299 
-49.4514 10.749 -8.65011 -42.4033 14.2286 -11.9299 50.0836 10.749 -11.9299 
49.2218 15.3723 -11.9299 56.2699 10.749 -6.80771 -39.8907 17.797 -11.9299 
-42.4033 17.797 -9.90747 48.8018 17.797 -11.9299 49.2218 17.797 -11.6147 
-36.1545 24.8451 -11.9299 -35.3552 25.6613 -11.9299 -28.3071 31.5079 -11.9299 
6.93329 30.3053 -11.9299 13.9814 28.8751 -11.9299 21.0295 29.0654 -11.9299 
28.0775 30.361 -11.9299 35.1256 28.3769 -11.9299 44.7348 24.8451 -11.9299 
42.1737 26.9245 -11.9299 49.2218 24.8451 -6.01835 -27.6152 31.8932 -11.9299 
-28.3071 31.8932 -11.3061 -21.259 34.139 -11.9299 -14.211 35.2805 -11.9299 
-7.16288 35.1448 -11.9299 4.52011 31.8932 -11.9299 -0.114792 33.719 -11.9299 
6.93329 31.8932 -10.196 13.9814 31.8932 -7.34714 21.0295 31.8932 -8.11242 
28.0775 31.8932 -9.94066 35.1256 31.8932 -7.79934 -28.3071 -32.032 -4.88179 
-21.259 -34.4882 -4.88179 -14.211 -36.3569 -4.88179 -7.16288 -37.3481 -4.88179 
-0.114792 -37.739 -4.88179 6.93329 -37.4743 -4.88179 13.9814 -36.4585 -4.88179 
21.0295 -34.6359 -4.88179 28.0775 -32.4199 -4.88179 -29.322 -31.5396 -4.88179 
-35.3552 -28.1324 -4.88179 30.5917 -31.5396 -4.88179 35.1256 -29.7848 -4.88179 
42.1737 -26.5358 -4.88179 -40.3582 -24.4915 -4.88179 -42.4033 -22.698 -4.88179 
45.1253 -24.4915 -4.88179 49.2218 -21.0588 -4.88179 -47.4635 -17.4434 -4.88179 
-49.4514 -14.7474 -4.88179 52.9182 -17.4434 -4.88179 56.2699 -11.5389 -4.88179 
-52.1699 -10.3953 -4.88179 56.7687 -10.3953 -4.88179 -54.1224 -3.34722 -4.88179 
58.7172 -3.34722 -4.88179 -53.954 3.70087 -4.88179 -56.4995 3.70087 1.06171 
58.9287 3.70087 -4.88179 -52.4607 10.749 -4.88179 -49.4514 15.0037 -4.88179 
57.4199 10.749 -4.88179 56.2699 13.8049 -4.88179 -47.1295 17.797 -4.88179 
-49.4514 17.797 0.653254 -42.4033 22.6626 -4.88179 54.5828 17.797 -4.88179 
-40.3549 24.8451 -4.88179 -35.3552 29.4399 -4.88179 42.1737 30.6442 -4.88179 
49.6841 24.8451 -4.88179 49.2218 25.4031 -4.88179 49.2218 24.8451 -3.95169 
-31.8354 31.8932 -4.88179 -28.3071 34.016 -4.88179 -28.3071 31.8932 0.61983 
-21.259 36.3827 -4.88179 -14.211 37.6044 -4.88179 -7.16288 37.4027 -4.88179 
-0.114792 36.0603 -4.88179 -0.114792 31.8932 1.63317 6.93329 34.0505 -4.88179 
6.93329 31.8932 -0.66056 13.9814 32.6818 -4.88179 13.9814 31.8932 -2.41952 
21.0295 33.2932 -4.88179 21.0295 31.8932 -0.464289 28.0775 33.9898 -4.88179 
28.0775 31.8932 0.844055 38.9486 31.8932 -4.88179 35.1256 33.243 -4.88179 
35.1256 31.8932 -1.59743 -28.3071 -31.9295 2.16629 -21.259 -34.3907 2.16629 
-14.211 -35.976 2.16629 -7.16288 -37.5533 2.16629 -0.114792 -38.4311 2.16629 
6.93329 -37.7241 2.16629 13.9814 -36.3051 2.16629 21.0295 -34.825 2.16629 
28.0775 -33.199 2.16629 -29.2213 -31.5396 2.16629 -35.3552 -28.7052 2.16629 
-28.3071 -31.5396 3.3038 -21.259 -31.5396 8.32187 21.0295 -31.5396 7.85529 
32.3261 -31.5396 2.16629 28.0775 -31.5396 5.72955 35.1256 -30.47 2.16629 
42.1737 -27.0012 2.16629 -41.724 -24.4915 2.16629 -42.4033 -23.9712 2.16629 
45.9618 -24.4915 2.16629 42.1737 -24.4915 7.35573 49.2218 -21.8823 2.16629 
-49.2795 -17.4434 2.16629 -49.4514 -17.2282 2.16629 53.859 -17.4434 2.16629 
56.2699 -13.149 2.16629 -54.3275 -10.3953 2.16629 57.4541 -10.3953 2.16629 
56.2699 -10.3953 4.46895 -56.4852 -3.34722 2.16629 -56.4995 -3.0902 2.16629 
58.9497 -3.34722 2.16629 56.2699 -3.34722 7.1716 -56.8738 3.70087 2.16629 
-56.4995 5.55069 2.16629 59.1633 3.70087 2.16629 56.2699 3.70087 6.60126 
-55.2022 10.749 2.16629 56.498 10.749 2.16629 56.2699 11.2856 2.16629 
56.2699 10.749 2.48065 -49.9942 17.797 2.16629 -49.4514 18.3544 2.16629 
-49.4514 17.797 6.92811 -42.4033 23.9481 2.16629 42.1737 17.797 8.64857 
52.7822 17.797 2.16629 49.2218 21.4296 2.16629 49.2218 17.797 5.12406 
-40.9799 24.8451 2.16629 -35.3552 28.0604 2.16629 -35.3552 24.8451 9.10693 
-28.3071 31.2754 2.16629 -0.114792 31.3699 2.16629 -0.114792 24.8451 7.05979 
6.93329 29.9438 2.16629 6.93329 24.8451 7.61601 13.9814 30.0508 2.16629 
13.9814 24.8451 7.97993 21.0295 30.8228 2.16629 21.0295 24.8451 7.58653 
28.0775 31.1737 2.16629 28.0775 24.8451 8.27362 35.1256 29.3888 2.16629 
35.1256 24.8451 6.0025 45.3494 24.8451 2.16629 42.1737 27.1322 2.16629 
42.1737 24.8451 4.37646 -26.4184 31.8932 2.16629 -21.259 33.7257 2.16629 
-21.259 31.8932 4.46276 -14.211 33.8724 2.16629 -14.211 31.8932 4.61681 
-1.72704 31.8932 2.16629 -7.16288 33.3983 2.16629 -7.16288 31.8932 3.53229 
-14.211 -32.2494 9.21438 -7.16288 -33.8903 9.21438 -0.114792 -34.3319 9.21438 
6.93329 -33.7323 9.21438 13.9814 -31.9477 9.21438 -35.3552 -26.3698 9.21438 
-28.3071 -29.2651 9.21438 -18.3431 -31.5396 9.21438 -21.259 -31.0194 9.21438 
-14.211 -31.5396 10.0281 -7.16288 -31.5396 11.4385 -0.114792 -31.5396 11.8222 
6.93329 -31.5396 11.2155 16.0505 -31.5396 9.21438 13.9814 -31.5396 9.61712 
21.0295 -30.4213 9.21438 28.0775 -29.2457 9.21438 35.1256 -26.3426 9.21438 
-38.4966 -24.4915 9.21438 -42.4033 -21.8505 9.21438 -35.3552 -24.4915 11.8918 
-28.3071 -24.4915 15.0192 -21.259 -24.4915 15.6633 -14.211 -24.4915 15.7655 
-7.16288 -24.4915 15.5116 -0.114792 -24.4915 15.7176 6.93329 -24.4915 15.1643 
13.9814 -24.4915 14.3772 21.0295 -24.4915 13.5647 28.0775 -24.4915 12.7941 
39.3359 -24.4915 9.21438 35.1256 -24.4915 10.9794 42.1737 -22.9567 9.21438 
49.2218 -17.7104 9.21438 -47.3839 -17.4434 9.21438 -49.4514 -15.1157 9.21438 
-42.4033 -17.4434 14.7232 13.9814 -17.4434 16.0665 21.0295 -17.4434 15.6547 
28.0775 -17.4434 15.4416 35.1256 -17.4434 14.8619 42.1737 -17.4434 13.0398 
49.4872 -17.4434 9.21438 49.2218 -17.4434 9.4334 -53.1749 -10.3953 9.21438 
-49.4514 -10.3953 15.0023 13.9814 -10.3953 16.2486 42.1737 -10.3953 14.9077 
52.6663 -10.3953 9.21438 49.2218 -10.3953 11.8278 -55.7335 -3.34722 9.21438 
-56.4995 3.40695 9.21438 42.1737 -3.34722 15.1098 54.4357 -3.34722 9.21438 
49.2218 -3.34722 12.805 -56.5299 3.70087 9.21438 -56.4995 3.87243 9.21438 
-56.4995 3.70087 9.27735 13.9814 3.70087 16.1166 21.0295 3.70087 14.8689 
28.0775 3.70087 15.0173 35.1256 3.70087 15.148 42.1737 3.70087 14.2161 
[...]
POINT_DATA 518
SCALARS ImageScalars float
LOOKUP_TABLE default
0 0 0 0 0 0 0 0 0 
0 0 0 0 0 0 0 0 0 
0 0 0 0 0 0 0 0 0 
0 0 0 0 0 0 0 0 0 
0 0 0 0 0 0 0 0 0 
0 0 0 0 0 0 0 0 0 
0 0 0 0 0 0 0 0 0 
0 0 0 0 0 0 0 0 0 
0 0 0 0 0 0 0 0 0 
0 0 0 0 0 0 0 0 0 
0 0 0 0 0 0 0 0 0 
0 0 0 0 0 0 0 0 0 
0 0 0 0 0 0 0 0 0 
0 0 0 0 0 0 0 0 0 
0 0 0 0 0 0 0 0 0 
0 0 0 0 0 0 0 0 0 
0 0 0 0 0 0 0 0 0 
0 0 0 0 0 0 0 0 0 
0 0 0 0 0 0 0 0 0 
0 0 0 0 0 0 0 0 0 
0 0 0 0 0 0 0 0 0 
0 0 0 0 0 0 0 0 0 
0 0 0 0 0 0 0 0 0 
0 0 0 0 0 0 0 0 0 
0 0 0 0 0 0 0 0 0 
0 0 0 0 0 0 0 0 0 
0 0 0 0 0 0 0 0 0 
0 0 0 0 0 0 0 0 0 
0 0 0 0 0 0 0 0 0 
0 0 0 0 0 0 0 0 0 
0 0 0 0 0 0 0 0 0 
0 0 0 0 0 0 0 0 0 
0 0 0 0 0 0 0 0 0 
0 0 0 0 0 0 0 0 0 
0 0 0 0 0 0 0 0 0 
0 0 0 0 0 0 0 0 0 
0 0 0 0 0 0 0 0 0 
0 0 0 0 0 0 0 0 0 
0 0 0 0 0 0 0 0 0 
0 0 0 0 0 0 0 0 0 
0 0 0 0 0 0 0 0 0 
0 0 0 0 0 0 0 0 0 
0 0 0 0 0 0 0 0 0 
0 0 0 0 0 0 0 0 0 
0 0 0 0 0 0 0 0 0 
0 0 0 0 0 0 0 0 0 
0 0 0 0 0 0 0 0 0 
0 0 0 0 0 0 0 0 0 
0 0 0 0 0 0 0 0 0 
0 0 0 0 0 0 0 0 0 
0 0 0 0 0 0 0 0 0 
0 0 0 0 0 0 0 0 0 
0 0 0 0 0 0 0 0 0 
0 0 0 0 0 0 0 0 0 
0 0 0 0 0 0 0 0 0 
0 0 0 0 0 0 0 0 0 
0 0 0 0 0 0 0 0 0 
0 0 0 0 0 
NORMALS Normals float
0.25239 0.433835 0.86492 0.0673313 0.317158 0.945979 -0.042691 0.226732 0.973021 
-0.0222575 0.153591 0.987884 0.0267527 0.140563 0.98971 -0.0112975 0.159053 0.987205 
-0.0429563 0.189312 0.980977 -0.0163782 0.316898 0.948318 -0.13593 0.451038 0.882093 
0.249158 0.379341 0.891079 0.118789 0.268341 0.955972 -0.0282698 0.149025 0.988429 
-0.144273 0.0583292 0.987817 -0.0800798 -0.0304961 0.996322 0.024857 0.0345079 0.999095 
0.0304517 0.0205891 0.999324 0.0497924 0.0669952 0.99651 0.0738323 0.157193 0.984804 
-0.0252773 0.216564 0.975941 -0.140395 0.327496 0.934364 -0.254684 0.420176 0.87097 
0.409127 0.233608 0.882067 0.189759 0.206377 0.959896 0.00922222 0.183486 0.982979 
-0.145957 0.110539 0.983096 -0.217812 0.103783 0.970457 -0.0502873 0.122471 0.991197 
0.0862756 0.132237 0.987456 0.0162781 0.212045 0.977124 0.0977142 0.0899181 0.991144 
0.132995 0.0709433 0.988574 0.0364762 0.11239 0.992994 -0.111545 0.122905 0.98613 
-0.285003 0.14684 0.947212 0.394712 0.0547102 0.917174 0.180807 0.0806753 0.980204 
0.0155255 0.100664 0.994799 -0.103153 0.146332 0.983843 -0.115112 0.227949 0.966845 
-0.0614613 0.348354 0.935346 0.101211 0.191375 0.976285 -0.0161801 0.271013 0.96244 
-0.0878112 0.0174941 0.995984 0.0838521 -0.0313601 0.995985 0.0319375 -0.0188423 0.999312 
-0.0835072 0.00862881 0.99647 -0.188212 0.067609 0.979799 -0.3832 0.10962 0.917137 
0.422848 -0.0907892 0.901641 0.223563 -0.0467019 0.97357 0.0715063 0.00828798 0.997406 
-0.0211809 0.0660411 0.997592 -0.0320082 0.0888955 0.995527 -0.0447531 0.03624 0.998341 
0.0236206 0.196829 0.980153 -0.196238 0.0479996 0.979381 -0.185768 0.000433566 0.982593 
0.100279 -0.00521136 0.994946 0.0766306 0.0125928 0.99698 -0.0282456 0.00411852 0.999593 
-0.17261 -0.0136851 0.984895 -0.395671 -0.0323097 0.917824 0.436224 -0.247051 0.86526 
0.283121 -0.123371 0.951116 0.129324 -0.0517762 0.99025 -0.0177681 0.000510202 0.999842 
-0.134184 -0.0376402 0.990241 0.0143424 -0.115651 0.993186 0.117256 -0.108413 0.987167 
-0.219744 -0.161249 0.962139 -0.128312 0.0907898 0.987569 0.0970022 0.0559441 0.993711 
0.0421215 0.0414366 0.998253 -0.110074 0.0156536 0.9938 -0.21643 -0.0281441 0.975892 
-0.421397 -0.0904962 0.90235 0.42251 -0.22807 0.877194 0.193375 -0.149086 0.969732 
-0.00817281 -0.0574448 0.998315 -0.141403 -0.0748447 0.987119 -0.10203 -0.029786 0.994335 
-0.00753513 -0.165696 0.986148 -0.00465677 -0.211276 0.977415 -0.00670024 -0.0562259 0.998396 
0.0500615 -0.0582467 0.997046 0.0385573 -0.0424758 0.998353 -0.120543 -0.122794 0.985084 
-0.260682 -0.0445289 0.964397 0.558243 -0.485802 0.672578 0.28897 -0.33459 0.896965 
0.0548606 -0.224808 0.972857 -0.100917 -0.180441 0.978395 -0.0793662 -0.117308 0.989919 
-0.0939013 -0.16225 0.982272 -0.0751598 -0.301101 0.950626 0.0127876 -0.345713 0.938253 
0.0950423 -0.353622 0.930547 -0.0216874 -0.342763 0.939172 -0.110724 -0.377741 0.919267 
-0.332723 -0.452723 0.827247 0.17442 -0.640197 0.748148 -0.00393558 -0.49473 0.869038 
-0.0886519 -0.462172 0.882348 -0.231516 -0.532569 0.814107 0.266615 0.465693 0.843829 
0.399337 0.86044 0.3165 0.132732 0.507694 0.851252 0.209484 0.727971 0.652821 
-0.00279697 0.419011 0.907977 0.0526771 0.606239 0.793536 -0.000249711 0.349932 0.936775 
0.023752 0.526941 0.84957 0.0205789 0.339543 0.940365 0.0182663 0.491428 0.870727 
-0.0183462 0.393438 0.919168 -0.0257618 0.51691 0.855652 -0.0700627 0.352198 0.9333 
-0.111344 0.573967 0.811273 -0.0755043 0.406281 0.910623 -0.242232 0.689964 0.68211 
-0.168593 0.520993 0.836745 -0.306532 0.835071 0.45683 0.284374 0.457762 0.842369 
0.32207 0.45662 0.829318 0.439616 0.61201 0.657405 -0.223479 0.511178 0.829912 
-0.267999 0.482976 0.833613 -0.320032 0.597522 0.735219 -0.265649 0.445037 0.855203 
-0.450199 0.715031 0.534838 0.399753 0.443187 0.802361 0.473547 0.38864 0.790388 
0.53125 0.512318 0.674762 -0.309556 0.426231 0.850001 -0.569889 0.484161 0.663939 
0.534912 0.263981 0.80261 0.733816 0.33348 0.591866 -0.440077 0.164172 0.882825 
-0.43647 0.141173 0.888574 -0.484903 0.17864 0.856129 -0.834012 0.356239 0.421329 
0.564224 0.050197 0.824094 0.672267 0.064575 0.737487 -0.453034 0.114566 0.884101 
-0.777702 0.151453 0.610116 0.557088 -0.074482 0.827106 0.668884 -0.0745962 0.739615 
-0.47269 -0.0358552 0.880499 -0.765103 -0.0668503 0.640429 0.523521 -0.269329 0.808324 
0.693386 -0.333983 0.638492 0.513773 -0.335396 0.78965 -0.452734 -0.106459 0.885267 
-0.555382 -0.143807 0.819066 -0.87312 -0.289805 0.392014 0.536545 -0.362384 0.7621 
0.605494 -0.464122 0.646505 -0.601369 -0.167376 0.781243 -0.633961 -0.185664 0.750748 
0.583229 -0.497599 0.642058 0.570132 -0.528663 0.62886 0.447715 -0.682223 0.578034 
-0.19292 -0.597326 0.778449 -0.0401458 -0.619077 0.784303 0.0600859 -0.62338 0.779607 
-0.024446 -0.669911 0.742039 -0.146821 -0.596298 0.789223 -0.462417 -0.491501 0.737968 
-0.337265 -0.612177 0.715187 -0.773211 -0.629095 0.0798983 0.433473 -0.698921 0.568868 
0.458206 -0.723487 0.516346 0.23992 -0.771759 0.588919 0.0667954 -0.725581 0.684887 
-0.0974901 -0.701245 0.706223 -0.234092 -0.641671 0.730383 -0.261571 -0.656151 0.707847 
-0.238621 -0.80411 0.544488 -0.0616139 -0.974186 0.217174 0.0773096 -0.937161 0.340224 
-0.0154267 -0.8539 0.520208 -0.211005 -0.94364 0.254991 0.400129 0.881165 0.251884 
0.290053 0.925894 0.242052 0.19743 0.940231 0.277464 0.095142 0.92995 0.355165 
0.00743439 0.922953 0.38484 -0.0868072 0.937055 0.338218 -0.189892 0.932229 0.308041 
-0.275713 0.90726 0.317589 -0.314026 0.869577 0.381081 0.417144 0.872352 0.254937 
0.516026 0.800873 0.303841 -0.335347 0.865624 0.371804 -0.363733 0.854577 0.37067 
-0.480171 0.80053 0.35859 0.606545 0.724227 0.328023 0.637148 0.691822 0.339744 
-0.551714 0.755199 0.353958 -0.654357 0.683331 0.323846 0.721358 0.582412 0.374752 
0.77009 0.503225 0.39208 -0.739624 0.574407 0.350732 -0.841744 0.390209 0.373099 
0.820481 0.374151 0.43223 -0.857557 0.355081 0.372174 0.865156 0.108738 0.489573 
-0.929968 0.146095 0.337365 0.836915 -0.0992852 0.538253 0.977608 -0.0776632 0.195578 
-0.939732 -0.0879193 0.330415 0.794824 -0.369423 0.481438 0.731325 -0.512422 0.450096 
-0.926765 -0.300914 0.224852 -0.907018 -0.366726 0.206954 0.698055 -0.580642 0.419015 
0.721082 -0.671931 0.168969 0.679361 -0.661584 0.31745 -0.873291 -0.451136 0.183956 
0.674656 -0.700096 0.233891 0.604528 -0.790405 0.0990269 -0.429706 -0.899632 -0.0775606 
-0.769356 -0.638382 -0.0236719 -0.756498 -0.653353 -0.0290046 -0.756451 -0.648259 -0.0868423 
0.511803 -0.858812 0.0223549 0.440394 -0.897633 -0.0175856 0.370486 -0.860265 -0.350264 
0.250824 -0.967467 -0.03308 0.0696399 -0.989182 -0.129107 -0.109873 -0.989859 -0.0900408 
-0.244695 -0.962613 -0.11619 -0.189114 -0.706596 -0.681879 -0.231716 -0.971167 -0.0560573 
-0.146155 -0.897596 -0.415886 -0.0513563 -0.998679 0.00161381 -0.0192021 -0.987248 -0.158029 
0.0929327 -0.993949 0.0585625 0.0850871 -0.947828 -0.307218 -0.00352936 -0.999861 0.0163053 
-0.0443854 -0.876635 -0.479105 -0.319358 -0.946544 -0.0454421 -0.220308 -0.975242 0.0191736 
-0.262376 -0.92228 -0.283828 0.355542 0.920764 -0.160572 0.271364 0.939616 -0.208527 
0.219183 0.945423 -0.241108 0.168555 0.967039 -0.190854 0.0125312 0.982965 -0.183366 
-0.147859 0.968276 -0.201444 -0.195377 0.94895 -0.247631 -0.212525 0.949844 -0.229412 
-0.298106 0.940502 -0.163061 0.367988 0.916734 -0.15551 0.477916 0.872019 -0.105729 
0.346564 0.915672 -0.203564 0.19023 0.839317 -0.509274 -0.151043 0.790946 -0.592951 
-0.35263 0.924484 -0.144848 -0.251521 0.881763 -0.399038 -0.384286 0.91197 -0.143648 
-0.512403 0.841991 -0.168802 0.628223 0.775873 -0.0579454 0.642789 0.764335 -0.0511402 
-0.593052 0.787276 -0.168777 -0.469174 0.72938 -0.497876 -0.655475 0.736938 -0.165152 
0.768096 0.640331 0.00214766 0.772503 0.635 0.00368814 -0.772101 0.611433 -0.173235 
-0.88928 0.418045 -0.185523 0.886741 0.45733 0.0673781 -0.934232 0.310658 -0.175218 
-0.892656 0.316999 -0.320431 0.984666 0.150247 0.0886474 0.985705 0.142012 0.0906513 
-0.976627 0.112711 -0.183018 -0.827854 0.0735246 -0.556105 0.98714 -0.0728981 0.142269 
0.975798 -0.161633 0.147283 -0.962051 -0.160518 -0.220662 -0.761633 -0.246373 -0.599346 
0.891639 -0.427862 0.148034 -0.82727 -0.397316 -0.397197 -0.827367 -0.401141 -0.393127 
-0.818745 -0.393277 -0.418319 0.723533 -0.683006 0.100012 0.709405 -0.698853 0.0913725 
0.667042 -0.726649 -0.164425 0.590303 -0.805609 -0.050363 -0.257868 -0.436695 -0.861859 
-0.73601 -0.507793 -0.4477 -0.584308 -0.607815 -0.537723 -0.470673 -0.50275 -0.725058 
0.554744 -0.826129 -0.098842 0.422938 -0.866426 -0.265386 0.286686 -0.836824 -0.466408 
0.33995 -0.837025 -0.428746 -0.177755 -0.670763 -0.720056 -0.0962893 -0.629031 -0.771394 
-0.0559181 -0.758568 -0.64919 0.0497595 -0.685581 -0.726294 0.0510294 -0.85842 -0.510402 
-0.00694775 -0.562972 -0.826447 0.0648434 -0.829445 -0.554812 0.0146964 -0.495383 -0.86855 
-0.0615253 -0.798212 -0.599226 -0.0750692 -0.487574 -0.869848 -0.231604 -0.703798 -0.671586 
-0.225212 -0.59009 -0.775289 -0.472331 -0.648304 -0.597164 -0.348389 -0.702165 -0.620959 
-0.320801 -0.593414 -0.738205 0.300809 -0.83694 -0.457214 0.156582 -0.842322 -0.515728 
0.132291 -0.811629 -0.568997 -0.0145783 -0.816334 -0.577397 -0.0508599 -0.773958 -0.631192 
-0.177385 -0.679484 -0.711924 -0.137063 -0.714232 -0.686357 -0.162057 -0.683298 -0.711928 
0.165018 0.773129 -0.612406 0.121273 0.752042 -0.647862 -0.00797342 0.745249 -0.666738 
-0.13398 0.726669 -0.673797 -0.172842 0.702747 -0.690125 0.412414 0.805607 -0.425338 
0.268362 0.837958 -0.475193 0.169616 0.797758 -0.578631 0.171298 0.813193 -0.556213 
0.149738 0.750143 -0.644099 0.0954482 0.65203 -0.752161 -0.0135316 0.628137 -0.777985 
-0.127288 0.628113 -0.767641 -0.159571 0.70775 -0.688206 -0.169542 0.686909 -0.70669 
-0.127432 0.710767 -0.691788 -0.192529 0.720341 -0.666364 -0.3139 0.68783 -0.654489 
0.486746 0.772626 -0.407587 0.572268 0.724734 -0.383757 0.388885 0.745774 -0.540916 
0.169982 0.63611 -0.752642 0.0382594 0.568614 -0.821715 -0.0114002 0.455972 -0.889921 
-0.00124795 0.345302 -0.938491 -0.0215987 0.328913 -0.944113 -0.0878094 0.375564 -0.922627 
-0.104582 0.385091 -0.916934 -0.0996594 0.442063 -0.891431 -0.140833 0.510604 -0.848204 
-0.379057 0.66709 -0.641332 -0.276313 0.612333 -0.740743 -0.424795 0.640524 -0.639749 
-0.556722 0.511051 -0.654896 0.675282 0.646817 -0.354431 0.726269 0.60139 -0.332963 
0.497682 0.590597 -0.635223 -0.108548 0.119296 -0.986907 -0.043328 0.18576 -0.981639 
-0.052657 0.242408 -0.968744 -0.141555 0.309444 -0.940322 -0.350932 0.401227 -0.846087 
-0.56426 0.499349 -0.657466 -0.554509 0.496409 -0.667905 0.816043 0.487302 -0.310823 
0.639468 0.451215 -0.622484 -0.0869162 0.0542649 -0.994737 -0.291595 0.110941 -0.950087 
-0.653811 0.253487 -0.712935 -0.499591 0.214969 -0.839164 0.933382 0.190317 -0.304266 
0.963607 -0.0277246 -0.265881 -0.248035 -0.0436532 -0.967767 -0.671073 0.0314172 -0.740725 
-0.414072 -0.0127896 -0.910154 0.963702 -0.0367277 -0.26444 0.963332 -0.0457697 -0.264379 
0.962682 -0.0365561 -0.268156 -0.119406 -0.335002 -0.934621 -0.0561438 -0.353555 -0.933727 
0.0183352 -0.321117 -0.946862 -0.0519307 -0.289736 -0.955697 -0.218074 -0.244421 -0.944829 
-0.548074 -0.245046 -0.79973 -0.406919 -0.233632 -0.883081 0.864025 -0.433949 -0.255243 
0.633345 -0.717151 -0.290809 -0.249265 -0.199328 -0.9477 -0.216193 -0.230044 -0.948863 
-0.229487 -0.291797 -0.928542 0.0137985 -0.3417 -0.939708 0.0505656 -0.338728 -0.939525 
-0.0497984 -0.368215 -0.928406 -0.240305 -0.414705 -0.877652 -0.206407 -0.368959 -0.906237 
-0.446618 -0.387935 -0.80625 -0.433629 -0.393426 -0.810667 -0.435428 -0.391323 -0.810721 
0.616033 -0.730814 -0.293964 0.447172 -0.809354 -0.380768 0.334608 -0.682926 -0.649346 
0.283882 -0.835368 -0.470713 -0.192784 -0.454825 -0.869465 -0.106031 -0.618464 -0.778627 
-0.182292 -0.513002 -0.838808 0.0145359 -0.642636 -0.766034 -0.128806 -0.432949 -0.892168 
-0.0891693 -0.411751 -0.906923 -0.197608 -0.242601 -0.949787 -0.0169524 -0.319914 -0.947295 
-0.0407271 -0.261149 -0.964439 -0.0548421 -0.386573 -0.920627 -0.0323878 -0.258183 -0.965553 
-0.126909 -0.382567 -0.91517 -0.104793 -0.377526 -0.92005 -0.09815 -0.369625 -0.923983 
0.281382 -0.834465 -0.473805 0.176361 -0.774871 -0.607019 0.131234 -0.721814 -0.679531 
0.0266481 -0.731966 -0.68082 0.00584047 -0.652727 -0.757571 -0.126849 -0.707884 -0.694845 
-0.125617 -0.659315 -0.741299 -0.245354 -0.683167 -0.687812 -0.255958 -0.684857 -0.682244 
-0.258251 -0.684302 -0.681936 0.283696 0.562812 -0.776376 0.134988 0.547774 -0.825664 
0.0182279 0.521419 -0.853106 -0.0420874 0.400895 -0.915157 -0.0307934 0.239163 -0.970491 
-0.00909318 0.266393 -0.963822 -0.0843579 0.262819 -0.96115 0.394099 0.539559 -0.744017 
0.439934 0.506092 -0.741842 0.229936 0.467398 -0.853621 0.0605906 0.341386 -0.937968 
-0.0607169 0.291688 -0.954585 -0.144949 0.193472 -0.970339 -0.055925 0.135093 -0.989253 
0.0139874 0.1539 -0.987987 -0.104977 0.127023 -0.986329 -0.0847066 0.16701 -0.98231 
0.00753447 0.100496 -0.994909 -0.00654531 0.134105 -0.990946 -0.112823 0.146535 -0.982751 
0.555933 0.416427 -0.719394 0.611068 0.310597 -0.728097 0.317156 0.328352 -0.889717 
0.121491 0.224682 -0.966829 -0.00146533 0.157006 -0.987597 -0.136447 0.0873123 -0.986792 
-0.20505 0.0574825 -0.977062 -0.0532256 0.16053 -0.985595 0.0113815 0.0443936 -0.998949 
-0.087304 0.0538741 -0.994724 -0.122005 0.0113753 -0.992464 -0.0792049 0.0558614 -0.995292 
-0.0860165 0.0528421 -0.994891 0.0229281 0.0763097 -0.996821 0.00771284 0.0978348 -0.995173 
-0.142405 0.113026 -0.983334 -0.112038 0.11661 -0.986838 0.637294 0.154796 -0.754914 
0.591615 0.151997 -0.791762 0.25739 0.135173 -0.956806 0.0524604 0.068871 -0.996245 
-0.094163 0.0230012 -0.995291 -0.166072 -0.0584464 -0.98438 -0.0613981 -0.0348073 -0.997506 
-0.0712767 0.186258 -0.979912 -0.145725 -0.0852295 -0.985647 -0.0727526 -0.0801513 -0.994124 
-0.107881 -0.2787 -0.9543 -0.0459622 -0.00272557 -0.998939 -0.0187497 -0.166008 -0.985946 
0.00130723 -0.100906 -0.994895 0.00437813 -0.177197 -0.984166 -0.0040395 -0.102387 -0.994736 
-0.152952 -0.0785622 -0.985106 -0.101581 -0.1474 -0.983847 -0.120495 -0.0916848 -0.988471 
0.648586 -0.037174 -0.760233 0.560936 -0.044718 -0.826651 0.199824 -0.0911696 -0.975581 
0.0116198 -0.057593 -0.998273 -0.127296 -0.0991257 -0.986899 -0.192014 -0.121115 -0.97389 
0.029528 -0.0901764 -0.995488 -0.0679147 -0.0807317 -0.994419 -0.285293 -0.178089 -0.94175 
-0.294462 -0.171604 -0.94013 -0.0810365 -0.279095 -0.956838 -0.0427239 -0.196368 -0.979599 
-0.0216144 -0.191236 -0.981306 0.569491 -0.388175 -0.724569 0.560714 -0.399378 -0.725326 
0.555782 -0.389786 -0.734284 0.314476 -0.626612 -0.713065 0.238437 -0.289357 -0.927049 
0.0453895 -0.313418 -0.94853 -0.155852 -0.243193 -0.957375 -0.143525 -0.209174 -0.967288 
-0.0115805 -0.129165 -0.991555 -0.225296 -0.216518 -0.949927 -0.183327 -0.427029 -0.885459 
-0.118368 -0.270661 -0.95537 0.227769 -0.623405 -0.747989 0.106935 -0.579721 -0.807768 
0.0901254 -0.544305 -0.834032 -0.00701828 -0.523251 -0.85215 -0.0285541 -0.474178 -0.879966 
-0.0586726 -0.378235 -0.923848 -0.064611 -0.360422 -0.930549 -0.0643478 -0.357097 -0.931848 
-0.0356795 -0.339851 -0.939802 -0.0348478 -0.334431 -0.941776 
