# vtk DataFile Version 4.2
vtk output
ASCII
DATASET POLYDATA
POINTS 548 float
-31.4724 -34.402 -15.9722 19.9273 -34.402 -16.9286 28.494 -34.402 -17.3579 
-40.039 -25.8353 -17.2211 -31.4724 -25.8353 -17.8507 -22.9058 -25.8353 -16.4857 
-14.3392 -25.8353 -15.7773 2.79409 -25.8353 -16.5422 11.3607 -25.8353 -18.5003 
19.9273 -25.8353 -20.3073 28.494 -25.8353 -21.6204 37.0606 -25.8353 -20.4648 
45.6272 -25.8353 -18.868 -48.6057 -17.2687 -17.0506 -40.039 -17.2687 -19.1738 
-31.4724 -17.2687 -18.5816 -22.9058 -17.2687 -17.1069 -14.3392 -17.2687 -15.8112 
-5.77254 -17.2687 -18.1922 2.79409 -17.2687 -18.8157 11.3607 -17.2687 -19.7908 
19.9273 -17.2687 -21.0364 28.494 -17.2687 -21.7851 37.0606 -17.2687 -21.7261 
45.6272 -17.2687 -21.5161 54.1938 -17.2687 -18.0043 -48.6057 -8.7021 -18.4281 
-40.039 -8.7021 -19.2161 -31.4724 -8.7021 -18.4873 -22.9058 -8.7021 -16.9912 
-14.3392 -8.7021 -17.4697 -5.77254 -8.7021 -22.0532 2.79409 -8.7021 -20.4988 
11.3607 -8.7021 -20.8867 19.9273 -8.7021 -19.3642 28.494 -8.7021 -20.5492 
37.0606 -8.7021 -20.9928 45.6272 -8.7021 -20.7006 54.1938 -8.7021 -18.5646 
-57.1723 -0.135471 -16.5123 -48.6057 -0.135471 -18.938 -40.039 -0.135471 -19.3703 
-31.4724 -0.135471 -18.7621 -22.9058 -0.135471 -17.6636 -14.3392 -0.135471 -22.301 
-5.77254 -0.135471 -20.2271 2.79409 -0.135471 -18.4164 11.3607 -0.135471 -24.01 
19.9273 -0.135471 -18.5574 28.494 -0.135471 -19.9073 37.0606 -0.135471 -20.6051 
45.6272 -0.135471 -20.3582 54.1938 -0.135471 -18.3546 -48.6057 8.43115 -18.2163 
-40.039 8.43115 -18.9833 -31.4724 8.43115 -18.5499 -22.9058 8.43115 -17.8924 
-14.3392 8.43115 -20.1504 -5.77254 8.43115 -20.8474 2.79409 8.43115 -20.2503 
11.3607 8.43115 -21.6809 19.9273 8.43115 -18.9483 28.494 8.43115 -20.0181 
37.0606 8.43115 -20.6495 45.6272 8.43115 -19.9132 54.1938 8.43115 -17.8846 
-48.6057 16.9978 -16.4395 -40.039 16.9978 -18.4108 -31.4724 16.9978 -18.5125 
-22.9058 16.9978 -18.2914 -14.3392 16.9978 -18.4424 -5.77254 16.9978 -18.855 
2.79409 16.9978 -19.6526 11.3607 16.9978 -19.9641 19.9273 16.9978 -19.7199 
28.494 16.9978 -19.9346 37.0606 16.9978 -19.6602 45.6272 16.9978 -18.4239 
-40.039 25.5644 -15.9952 -31.4724 25.5644 -17.6242 -22.9058 25.5644 -17.9505 
-14.3392 25.5644 -17.7895 -5.77254 25.5644 -17.7776 2.79409 25.5644 -18.3331 
11.3607 25.5644 -19.3236 19.9273 25.5644 -19.4097 28.494 25.5644 -19.2359 
37.0606 25.5644 -18.2186 45.6272 25.5644 -15.9155 -22.9058 34.131 -16.0882 
-14.3392 34.131 -16.2112 -5.77254 34.131 -16.2844 2.79409 34.131 -16.6402 
11.3607 34.131 -17.2637 19.9273 34.131 -17.4917 28.494 34.131 -16.0485 
-31.4724 -34.8265 -15.7265 -31.4724 -42.9686 -9.7296 -22.9058 -42.9686 -10.2076 
-14.3392 -42.9686 -9.87959 -5.77254 -42.9686 -9.34101 2.79409 -42.9686 -8.83851 
11.3607 -42.9686 -8.39667 19.9273 -36.0511 -15.7265 28.494 -36.173 -15.7265 
-48.6057 -34.402 -10.1976 -33.2347 -34.402 -15.7265 -40.039 -30.8431 -15.7265 
-40.039 -34.402 -14.4105 -29.7337 -34.402 -15.7265 -22.9058 -29.4093 -15.7265 
-22.9058 -34.402 -14.6857 -14.3392 -26.087 -15.7265 -14.3392 -34.402 -13.9586 
-5.77254 -34.402 -13.4757 2.79409 -28.5868 -15.7265 2.79409 -34.402 -13.8043 
14.1116 -34.402 -15.7265 11.3607 -33.005 -15.7265 11.3607 -34.402 -15.1136 
36.7222 -34.402 -15.7265 37.0606 -34.2984 -15.7265 37.0606 -34.402 -15.5948 
45.6272 -30.2985 -15.7265 45.6272 -34.402 -9.00336 -57.1723 -25.8353 -8.35587 
-48.4014 -25.8353 -15.7265 -48.6057 -25.6056 -15.7265 -48.6057 -25.8353 -15.6848 
-13.2402 -25.8353 -15.7265 -3.20919 -25.8353 -15.7265 -5.77254 -24.5849 -15.7265 
-5.77254 -25.8353 -15.3916 51.0746 -25.8353 -15.7265 54.1938 -22.158 -15.7265 
54.1938 -25.8353 -12.2026 -51.7063 -17.2687 -15.7265 -57.1723 -17.2687 -12.3234 
57.4842 -17.2687 -15.7265 62.7605 -17.2687 -9.28967 -55.9283 -8.7021 -15.7265 
-57.1723 -5.02168 -15.7265 -57.1723 -8.7021 -15.1445 59.4515 -8.7021 -15.7265 
62.7605 -8.7021 -13.1033 -58.3093 -0.135471 -15.7265 -57.1723 5.63174 -15.7265 
58.8321 -0.135471 -15.7265 62.7605 -0.135471 -12.5768 -56.2689 8.43115 -15.7265 
-57.1723 8.43115 -15.3918 57.7087 8.43115 -15.7265 54.1938 15.2893 -15.7265 
62.7605 8.43115 -10.8056 -50.4277 16.9978 -15.7265 -57.1723 16.9978 -12.4731 
-48.6057 19.3321 -15.7265 52.6462 16.9978 -15.7265 54.1938 16.9978 -15.0027 
-41.0849 25.5644 -15.7265 -48.6057 25.5644 -13.5697 -40.039 26.225 -15.7265 
-31.4724 31.1467 -15.7265 37.0606 30.8129 -15.7265 45.9605 25.5644 -15.7265 
45.6272 25.8629 -15.7265 54.1938 25.5644 -8.17788 -40.039 34.131 -11.8996 
-24.8779 34.131 -15.7265 -31.4724 34.131 -14.4809 -22.9058 34.9543 -15.7265 
-14.3392 35.682 -15.7265 -5.77254 35.5578 -15.7265 2.79409 36.282 -15.7265 
11.3607 37.2801 -15.7265 19.9273 37.2911 -15.7265 29.8938 34.131 -15.7265 
28.494 34.5888 -15.7265 37.0606 34.131 -13.5515 45.6272 34.131 -7.20969 
-31.4724 42.6977 -8.31107 -22.9058 42.6977 -11.8015 -14.3392 42.6977 -12.9198 
-5.77254 42.6977 -12.5272 2.79409 42.6977 -12.6312 11.3607 42.6977 -12.4941 
19.9273 42.6977 -11.2321 28.494 42.6977 -7.52211 -31.4724 -46.2489 -7.15985 
-22.9058 -46.722 -7.15985 -14.3392 -46.4701 -7.15985 -5.77254 -45.7634 -7.15985 
2.79409 -44.936 -7.15985 11.3607 -44.0524 -7.15985 -48.6057 -37.4548 -7.15985 
-38.7457 -42.9686 -7.15985 -40.039 -42.4179 -7.15985 -40.039 -42.9686 -5.85068 
17.0793 -42.9686 -7.15985 19.9273 -42.4922 -7.15985 19.9273 -42.9686 -5.98473 
28.494 -41.0389 -7.15985 37.0606 -38.7867 -7.15985 45.6272 -35.2795 -7.15985 
-51.4873 -34.402 -7.15985 -57.1723 -26.5884 -7.15985 47.0706 -34.402 -7.15985 
54.1938 -29.237 -7.15985 -57.592 -25.8353 -7.15985 -57.1723 -25.8353 -3.40989 
57.7241 -25.8353 -7.15985 62.7605 -19.4687 -7.15985 -60.9033 -17.2687 -7.15985 
64.1389 -17.2687 -7.15985 -63.5081 -8.7021 -7.15985 66.9686 -8.7021 -7.15985 
-64.9095 -0.135471 -7.15985 66.8454 -0.135471 -7.15985 -64.5661 8.43115 -7.15985 
65.3976 8.43115 -7.15985 62.7605 14.3698 -7.15985 -62.6705 16.9978 -7.15985 
-57.1723 24.8144 -7.15985 61.4873 16.9978 -7.15985 62.7605 16.9978 -0.105077 
-56.5887 25.5644 -7.15985 -57.1723 25.5644 -5.35575 -48.6057 33.9479 -7.15985 
55.0661 25.5644 -7.15985 54.1938 26.5171 -7.15985 -48.3441 34.131 -7.15985 
-48.6057 34.131 -6.52316 -40.039 39.2583 -7.15985 37.0606 39.1594 -7.15985 
45.679 34.131 -7.15985 45.6272 34.1681 -7.15985 -33.5868 42.6977 -7.15985 
-31.4724 43.8434 -7.15985 -22.9058 47.0132 -7.15985 -14.3392 48.3756 -7.15985 
-5.77254 48.7677 -7.15985 2.79409 48.473 -7.15985 11.3607 47.4827 -7.15985 
19.9273 45.7568 -7.15985 29.0834 42.6977 -7.15985 28.494 42.9462 -7.15985 
-14.3392 51.2643 0.675423 -5.77254 51.2643 -0.945704 2.79409 51.2643 -0.158375 
-40.039 -45.3247 1.40677 -31.4724 -49.7504 1.40677 -22.9058 -50.9285 1.40677 
-14.3392 -51.3507 1.40677 -5.77254 -50.9809 1.40677 2.79409 -49.9688 1.40677 
11.3607 -48.4167 1.40677 19.9273 -45.8356 1.40677 -43.2465 -42.9686 1.40677 
-48.6057 -38.2228 1.40677 -40.039 -42.9686 7.66148 27.4639 -42.9686 1.40677 
28.494 -42.566 1.40677 37.0606 -38.7781 1.40677 45.6272 -34.5803 1.40677 
-51.6838 -34.402 1.40677 -48.6057 -34.402 6.7892 45.9054 -34.402 1.40677 
45.6272 -34.402 1.80349 54.1938 -28.6528 1.40677 -56.5822 -25.8353 1.40677 
-57.1723 -24.1454 1.40677 57.3463 -25.8353 1.40677 54.1938 -25.8353 6.29949 
62.7605 -19.422 1.40677 -59.7865 -17.2687 1.40677 -57.1723 -17.2687 4.73337 
64.1963 -17.2687 1.40677 62.7605 -17.2687 4.22343 -62.3835 -8.7021 1.40677 
-57.1723 -8.7021 9.34921 67.2046 -8.7021 1.40677 62.7605 -8.7021 9.76847 
-65.0795 -0.135471 1.40677 67.6345 -0.135471 1.40677 -64.9232 8.43115 1.40677 
66.4794 8.43115 1.40677 62.7605 8.43115 9.07335 -63.3892 16.9978 1.40677 
62.9967 16.9978 1.40677 62.7605 17.3766 1.40677 62.7605 16.9978 1.93922 
-59.0553 25.5644 1.40677 -57.1723 27.8023 1.40677 -57.1723 25.5644 5.35593 
56.8661 25.5644 1.40677 54.1938 28.4335 1.40677 54.1938 25.5644 6.77559 
-50.8315 34.131 1.40677 -48.6057 35.9518 1.40677 -48.6057 34.131 6.01176 
-40.039 41.9744 1.40677 37.0606 40.8363 1.40677 47.7575 34.131 1.40677 
45.6272 35.7277 1.40677 45.6272 34.131 5.48297 -38.7826 42.6977 1.40677 
-31.4724 46.7497 1.40677 -22.9058 49.8343 1.40677 11.3607 50.2352 1.40677 
19.9273 48.0074 1.40677 33.1419 42.6977 1.40677 28.494 44.7594 1.40677 
28.494 42.6977 8.60343 -15.4623 51.2643 1.40677 -14.3392 51.4706 1.40677 
-14.3392 51.2643 2.20352 -5.77254 51.9621 1.40677 -5.77254 51.2643 4.12459 
5.52561 51.2643 1.40677 2.79409 51.755 1.40677 2.79409 51.2643 3.40328 
-31.4724 -45.5239 9.9734 -22.9058 -49.0025 9.9734 -14.3392 -50.4124 9.9734 
-5.77254 -50.334 9.9734 2.79409 -49.2121 9.9734 11.3607 -47.3406 9.9734 
19.9273 -44.333 9.9734 -37.493 -42.9686 9.9734 -40.039 -40.754 9.9734 
-31.4724 -42.9686 12.7516 -22.9058 -42.9686 15.6895 -14.3392 -42.9686 17.3193 
-5.77254 -42.9686 17.4303 2.79409 -42.9686 16.5477 11.3607 -42.9686 14.7558 
22.9317 -42.9686 9.9734 19.9273 -42.9686 11.6947 28.494 -39.8403 9.9734 
37.0606 -35.3794 9.9734 -44.9325 -34.402 9.9734 -48.6057 -28.7144 9.9734 
-40.039 -34.402 13.0799 -31.4724 -34.402 17.4744 19.9273 -34.402 17.3991 
28.494 -34.402 15.0344 38.751 -34.402 9.9734 37.0606 -34.402 11.1806 
45.6272 -29.9523 9.9734 -49.8115 -25.8353 9.9734 -48.6057 -25.8353 10.9606 
-40.039 -25.8353 15.5227 -31.4724 -25.8353 18.4567 37.0606 -25.8353 17.0592 
51.0647 -25.8353 9.9734 45.6272 -25.8353 14.0511 54.1938 -22.8803 9.9734 
-52.2497 -17.2687 9.9734 -48.6057 -17.2687 12.8651 -40.039 -17.2687 17.2925 
45.6272 -17.2687 17.4274 58.8866 -17.2687 9.9734 54.1938 -17.2687 13.9352 
-56.5241 -8.7021 9.9734 -57.1723 -6.75456 9.9734 -48.6057 -8.7021 15.2844 
-40.039 -8.7021 18.2843 -14.3392 -8.7021 18.5127 62.5984 -8.7021 9.9734 
54.1938 -8.7021 16.4716 62.7605 -7.31907 9.9734 -59.0265 -0.135471 9.9734 
-57.1723 -0.135471 11.7568 -48.6057 -0.135471 17.0142 54.1938 -0.135471 16.4679 
63.4758 -0.135471 9.9734 62.7605 4.73449 9.9734 62.7605 -0.135471 10.6448 
-60.0388 8.43115 9.9734 -57.1723 8.43115 12.7421 -48.6057 8.43115 17.2909 
-14.3392 8.43115 18.44 62.1325 8.43115 9.9734 54.1938 8.43115 16.2782 
[...]
POINT_DATA 548
SCALARS ImageScalars float
LOOKUP_TABLE default
0 0 0 0 0 0 0 0 0 
0 0 0 0 0 0 0 0 0 
0 0 0 0 0 0 0 0 0 
0 0 0 0 0 0 0 0 0 
0 0 0 0 0 0 0 0 0 
0 0 0 0 0 0 0 0 0 
0 0 0 0 0 0 0 0 0 
0 0 0 0 0 0 0 0 0 
0 0 0 0 0 0 0 0 0 
0 0 0 0 0 0 0 0 0 
0 0 0 0 0 0 0 0 0 
0 0 0 0 0 0 0 0 0 
0 0 0 0 0 0 0 0 0 
0 0 0 0 0 0 0 0 0 
0 0 0 0 0 0 0 0 0 
0 0 0 0 0 0 0 0 0 
0 0 0 0 0 0 0 0 0 
0 0 0 0 0 0 0 0 0 
0 0 0 0 0 0 0 0 0 
0 0 0 0 0 0 0 0 0 
0 0 0 0 0 0 0 0 0 
0 0 0 0 0 0 0 0 0 
0 0 0 0 0 0 0 0 0 
0 0 0 0 0 0 0 0 0 
0 0 0 0 0 0 0 0 0 
0 0 0 0 0 0 0 0 0 
0 0 0 0 0 0 0 0 0 
0 0 0 0 0 0 0 0 0 
0 0 0 0 0 0 0 0 0 
0 0 0 0 0 0 0 0 0 
0 0 0 0 0 0 0 0 0 
0 0 0 0 0 0 0 0 0 
0 0 0 0 0 0 0 0 0 
0 0 0 0 0 0 0 0 0 
0 0 0 0 0 0 0 0 0 
0 0 0 0 0 0 0 0 0 
0 0 0 0 0 0 0 0 0 
0 0 0 0 0 0 0 0 0 
0 0 0 0 0 0 0 0 0 
0 0 0 0 0 0 0 0 0 
0 0 0 0 0 0 0 0 0 
0 0 0 0 0 0 0 0 0 
0 0 0 0 0 0 0 0 0 
0 0 0 0 0 0 0 0 0 
0 0 0 0 0 0 0 0 0 
0 0 0 0 0 0 0 0 0 
0 0 0 0 0 0 0 0 0 
0 0 0 0 0 0 0 0 0 
0 0 0 0 0 0 0 0 0 
0 0 0 0 0 0 0 0 0 
0 0 0 0 0 0 0 0 0 
0 0 0 0 0 0 0 0 0 
0 0 0 0 0 0 0 0 0 
0 0 0 0 0 0 0 0 0 
0 0 0 0 0 0 0 0 0 
0 0 0 0 0 0 0 0 0 
0 0 0 0 0 0 0 0 0 
0 0 0 0 0 0 0 0 0 
0 0 0 0 0 0 0 0 0 
0 0 0 0 0 0 0 0 0 
0 0 0 0 0 0 0 0 
NORMALS Normals float
-0.00352402 0.41398 0.910279 0.117887 0.515903 0.848497 -0.0563152 0.629194 0.775205 
0.111021 0.258 0.959745 -0.0401968 0.152325 0.987513 -0.128854 0.137684 0.982059 
-0.0627777 0.102026 0.992799 0.171921 0.266931 0.948257 0.210054 0.248975 0.945457 
0.169174 0.220036 0.96071 0.00266566 0.229621 0.973276 -0.151689 0.284993 0.946451 
-0.327753 0.443215 0.834349 0.318413 0.134118 0.938416 0.0775915 0.103906 0.991556 
-0.1224 0.0406301 0.991649 -0.160485 0.0276908 0.98665 0.037629 0.061473 0.997399 
0.183558 0.395586 0.899899 0.0867641 0.230286 0.969247 0.126146 0.123622 0.984279 
0.113372 -0.0564802 0.991946 0.0403028 -0.0586162 0.997467 -0.0142607 0.0337561 0.999328 
-0.225393 0.105565 0.968532 -0.474897 0.213897 0.853652 0.193519 0.10762 0.975176 
0.000274262 0.0117691 0.999931 -0.128672 0.0104997 0.991632 -0.0710287 0.0326397 0.99694 
0.328003 0.309194 0.892644 0.078589 0.114216 0.990343 -0.0709661 0.0178252 0.997319 
-0.0728895 0.188186 0.979425 -0.0095995 -0.145218 0.989353 0.0986425 -0.110219 0.989 
0.0072329 -0.0656358 0.997817 -0.129328 -0.0598236 0.989796 -0.35056 0.023193 0.936253 
0.453296 0.00904694 0.891314 0.135648 -0.0125693 0.990677 -0.0120575 -0.0132319 0.99984 
-0.0983702 0.00359675 0.995143 0.0994459 0.0544107 0.993554 0.236504 0.101821 0.966281 
-0.187035 -0.0919288 0.978042 0.17328 -0.0353824 0.984237 -0.141716 0.0535189 0.98846 
-0.120083 -0.0251876 0.992444 0.123931 -0.0293709 0.991856 0.0229183 -0.0200609 0.999536 
-0.122849 -0.0456784 0.991374 -0.354663 -0.0384642 0.934203 0.174994 -0.141961 0.974281 
0.0167566 -0.0579981 0.998176 -0.0630699 -0.0145026 0.997904 0.0596775 0.0368133 0.997539 
0.194093 -0.201985 0.959964 -0.00164295 -0.0988978 0.995096 0.0412721 0.0378307 0.998432 
-0.0939633 -0.20274 0.974714 -0.067362 0.0691967 0.995326 0.099595 0.00107132 0.995027 
-0.00674569 -0.0537555 0.998531 -0.157305 -0.102055 0.982263 -0.39821 -0.172097 0.901006 
0.290937 -0.228796 0.928982 0.112147 -0.160744 0.980604 -0.00672649 -0.0581878 0.998283 
-0.00391749 0.0040016 0.999984 0.0323062 -0.112486 0.993128 0.0711625 -0.169472 0.982962 
0.0636953 -0.108566 0.992047 0.00393566 -0.118089 0.992995 -0.00168362 0.0269873 0.999634 
-0.00324533 -0.0434877 0.999049 -0.0811328 -0.131708 0.987963 -0.252654 -0.237886 0.937857 
0.2161 -0.329577 0.919065 0.104004 -0.210999 0.971938 0.0113258 -0.120116 0.992695 
-0.0098431 -0.126716 0.99189 0.0307234 -0.141771 0.989423 0.0915879 -0.166294 0.981814 
0.06117 -0.146651 0.987295 -0.00439936 -0.125573 0.992075 -0.0621619 -0.196611 0.978509 
-0.190588 -0.296598 0.935792 -0.383802 -0.429097 0.817662 0.0937328 -0.31748 0.943621 
0.0105058 -0.240361 0.970627 0.0233233 -0.273123 0.961696 0.0534914 -0.290792 0.95529 
0.0470224 -0.342064 0.938499 -0.0571875 -0.373341 0.92593 -0.186076 -0.486287 0.853757 
0.00184835 0.425464 0.904973 0.152084 0.643628 0.750076 0.00629945 0.603711 0.797178 
-0.0458682 0.559373 0.827646 -0.0543285 0.566136 0.822519 -0.0467276 0.631624 0.773865 
-0.0839759 0.749086 0.657129 0.0913196 0.58323 0.807158 -0.0834387 0.708746 0.700512 
0.543069 0.630332 0.554759 0.0460458 0.429585 0.901852 0.2029 0.390343 0.898033 
0.266856 0.500278 0.823717 -0.0231301 0.398342 0.916945 -0.124086 0.215253 0.968643 
-0.10178 0.324948 0.940239 -0.062757 0.108398 0.992125 -0.0683399 0.321455 0.944456 
-0.00955225 0.327756 0.944714 0.145409 0.304182 0.941451 0.081693 0.39735 0.914024 
0.148254 0.482868 0.863052 0.169951 0.429641 0.886862 0.157919 0.470131 0.868354 
-0.258121 0.715461 0.649222 -0.264365 0.713206 0.649191 -0.266828 0.721198 0.639277 
-0.402614 0.602452 0.689169 -0.454969 0.847157 0.274461 0.874622 0.440808 0.201806 
0.246417 0.323509 0.913576 0.252513 0.318994 0.913499 0.251461 0.32581 0.911381 
-0.0489117 0.119423 0.991638 0.0806301 0.241976 0.966926 0.0610313 0.253463 0.965418 
0.0418497 0.230512 0.972169 -0.507508 0.529232 0.679962 -0.543567 0.426752 0.722785 
-0.618616 0.632385 0.466265 0.418739 0.141393 0.897032 0.746979 0.236825 0.621238 
-0.585749 0.254935 0.769354 -0.831539 0.392619 0.392929 0.472347 0.17325 0.864218 
0.494539 0.111577 0.861964 0.543215 0.192334 0.817267 -0.556265 0.0690905 0.828128 
-0.75121 0.126561 0.647816 0.510082 0.0148067 0.859999 0.452436 -0.133569 0.881737 
-0.532174 -0.0606521 0.84446 -0.752816 -0.0920682 0.65176 0.418878 -0.192301 0.887447 
0.458982 -0.199866 0.865672 -0.524756 -0.181467 0.831686 -0.43388 -0.345712 0.832004 
-0.789025 -0.25075 0.56086 0.332254 -0.23413 0.913669 0.575726 -0.327204 0.749318 
0.291121 -0.278722 0.915184 -0.403394 -0.361945 0.840398 -0.456918 -0.396742 0.796129 
0.22466 -0.341815 0.912519 0.337717 -0.457296 0.822695 0.225808 -0.34176 0.912256 
0.163648 -0.352357 0.921446 -0.272199 -0.476293 0.836094 -0.392294 -0.434572 0.810711 
-0.388028 -0.438957 0.810402 -0.66228 -0.616226 0.426204 0.354815 -0.561727 0.747375 
0.118372 -0.344408 0.931328 0.20323 -0.441529 0.873928 0.104003 -0.335985 0.936108 
0.0141098 -0.286423 0.957999 0.0145619 -0.312102 0.949937 0.0425834 -0.350864 0.935458 
0.0238697 -0.438787 0.898274 -0.0927881 -0.490511 0.866481 -0.209982 -0.50371 0.837964 
-0.192839 -0.500756 0.843834 -0.351395 -0.627251 0.695038 -0.526045 -0.759199 0.383267 
0.367556 -0.71957 0.58917 0.20457 -0.603511 0.770666 0.0333431 -0.564938 0.82446 
-0.0126464 -0.554337 0.832196 -0.00103407 -0.581672 0.813423 -0.0576743 -0.654688 0.753696 
-0.187861 -0.756074 0.626946 -0.330868 -0.848367 0.413279 0.203905 0.765291 0.610534 
0.00811965 0.749951 0.661443 -0.0407727 0.703382 0.709642 -0.0660634 0.680876 0.729413 
-0.0798019 0.70021 0.709463 -0.118819 0.777771 0.617214 0.593896 0.717174 0.364622 
0.337213 0.777238 0.531214 0.359585 0.78365 0.506549 0.401215 0.813319 0.421354 
-0.140898 0.854502 0.499975 -0.148261 0.886531 0.438271 -0.18047 0.90464 0.386078 
-0.199714 0.923304 0.32806 -0.314607 0.925221 0.212105 -0.456144 0.87338 0.170701 
0.684624 0.655802 0.318141 0.880371 0.460141 0.11497 -0.486199 0.856876 0.171388 
-0.641032 0.742389 0.194773 0.887911 0.445312 0.115372 0.889788 0.447899 -0.0875398 
-0.709212 0.677256 0.195813 -0.836855 0.482878 0.25788 0.917006 0.335548 0.215657 
-0.862526 0.419831 0.282474 0.957682 0.226039 0.17819 -0.939076 0.159511 0.304453 
0.974163 0.0620794 0.217145 -0.931248 -0.0857884 0.354143 0.956026 -0.109573 0.272043 
-0.88799 -0.289214 0.357532 -0.848404 -0.406111 0.339536 0.854932 -0.361668 0.371871 
0.728872 -0.578845 0.365629 -0.822316 -0.458964 0.336374 -0.878898 -0.473808 -0.0551808 
0.718038 -0.590081 0.369088 0.756445 -0.601476 0.256941 0.524585 -0.726384 0.444047 
-0.682885 -0.624551 0.378953 -0.669604 -0.638843 0.378827 0.520853 -0.728212 0.445444 
0.537119 -0.740012 0.404828 0.442498 -0.760965 0.474476 -0.430835 -0.815999 0.385393 
-0.527111 -0.759567 0.381066 -0.526306 -0.760097 0.381123 0.404824 -0.756763 0.513251 
0.381433 -0.756221 0.531637 0.209297 -0.828516 0.519381 0.0905163 -0.820142 0.564955 
0.00430495 -0.807859 0.589359 -0.0658949 -0.815257 0.575339 -0.139522 -0.847293 0.512472 
-0.230753 -0.865407 0.444773 -0.339258 -0.853268 0.396028 -0.332054 -0.855959 0.396325 
0.120071 -0.991453 0.0510284 0.0127813 -0.987875 0.154725 -0.100549 -0.987925 0.117877 
0.537755 0.842514 -0.0314741 0.293611 0.954903 -0.044185 0.086735 0.992467 0.0865221 
0.00365329 0.987883 0.15516 -0.0755319 0.979861 0.184842 -0.150908 0.97175 0.181461 
-0.22587 0.961874 0.154213 -0.323832 0.941882 0.0893875 0.599709 0.795321 -0.0883943 
0.73074 0.651316 -0.204466 0.563037 0.702233 -0.435727 -0.368594 0.929502 -0.0128555 
-0.37463 0.92662 -0.0320539 -0.425887 0.889959 -0.163076 -0.494947 0.837363 -0.232057 
0.800967 0.560613 -0.210153 0.675651 0.525122 -0.517439 -0.497608 0.835422 -0.233359 
-0.496415 0.832251 -0.24684 -0.607092 0.757155 -0.241155 0.841773 0.419959 -0.339194 
0.842894 0.409074 -0.349554 -0.681247 0.698457 -0.219225 -0.584259 0.678478 -0.445318 
-0.830505 0.513038 -0.216919 0.870255 0.326098 -0.369211 0.776752 0.330175 -0.536322 
-0.865129 0.452545 -0.21623 -0.821204 0.445336 -0.356792 0.92106 0.261264 -0.288774 
0.649072 0.268219 -0.711873 -0.963036 0.198207 -0.182415 -0.719587 0.205993 -0.663146 
0.952525 0.152617 -0.263448 -0.989296 -0.03925 -0.140547 0.968842 -0.0942516 -0.229046 
-0.955699 -0.263743 -0.130689 -0.766069 -0.246266 -0.593709 0.93791 -0.294025 -0.184049 
-0.873667 -0.468871 -0.129866 -0.86963 -0.4762 -0.130293 -0.869936 -0.467529 -0.156932 
0.812562 -0.577494 -0.0790121 0.779578 -0.619792 -0.0900868 0.741594 -0.582926 -0.332016 
-0.753836 -0.648101 -0.108148 -0.708301 -0.697969 -0.105586 -0.672433 -0.629128 -0.389912 
0.65454 -0.751867 -0.0792015 0.613267 -0.78723 -0.0645988 0.618883 -0.718855 -0.316593 
0.521518 -0.852915 -0.0235508 -0.466788 -0.881251 -0.0742029 -0.598539 -0.795719 -0.0926381 
-0.568498 -0.818308 -0.0847483 -0.569449 -0.766386 -0.297289 0.506969 -0.861818 -0.0158817 
0.418573 -0.908018 -0.0172976 0.256945 -0.966425 -0.00131322 -0.207954 -0.978008 0.0159899 
-0.304331 -0.952455 -0.0145917 -0.428862 -0.901866 -0.0521118 -0.386437 -0.921562 -0.0372806 
-0.379921 -0.839021 -0.389491 0.1366 -0.990571 0.0104592 0.119419 -0.992787 0.0106619 
0.121277 -0.99212 -0.0314552 0.0164903 -0.999722 0.0168661 0.0192767 -0.991003 -0.132441 
-0.135773 -0.990329 0.0285434 -0.101538 -0.994355 0.0307775 -0.100061 -0.991901 -0.0782378 
0.343527 0.751743 -0.562914 0.229253 0.849386 -0.475379 0.0649382 0.924264 -0.376191 
-0.0642242 0.936966 -0.343467 -0.161793 0.914535 -0.370742 -0.271029 0.867559 -0.416995 
-0.362791 0.824338 -0.434567 0.480352 0.653052 -0.585478 0.545653 0.556552 -0.626508 
0.326448 0.652559 -0.683812 0.208446 0.549497 -0.809075 0.0869794 0.474377 -0.876014 
-0.0383627 0.445281 -0.894569 -0.130761 0.5127 -0.848552 -0.228562 0.618849 -0.751522 
-0.390044 0.808853 -0.440026 -0.345323 0.771282 -0.534673 -0.417299 0.767969 -0.485886 
-0.427777 0.744757 -0.512194 0.564955 0.418577 -0.711069 0.596426 0.311321 -0.739835 
0.512288 0.323334 -0.795623 0.271204 0.244109 -0.931053 -0.187038 0.37003 -0.909997 
-0.289457 0.547793 -0.784944 -0.437421 0.733262 -0.520567 -0.41785 0.714119 -0.561636 
-0.476674 0.671617 -0.567197 0.624156 0.237321 -0.744385 0.587388 0.234345 -0.774634 
0.401357 0.196344 -0.89463 0.239941 0.107535 -0.964813 -0.242495 0.367427 -0.897883 
-0.508819 0.622072 -0.595088 -0.42709 0.535275 -0.728749 -0.550546 0.555717 -0.622959 
0.61558 0.256538 -0.745151 0.551553 0.223437 -0.803657 0.32155 0.149402 -0.935032 
-0.286249 0.25385 -0.923916 -0.659932 0.388215 -0.643256 -0.509779 0.382134 -0.770778 
0.618111 0.262403 -0.741002 0.637851 0.244443 -0.730338 0.442726 0.200692 -0.873909 
0.240002 0.11372 -0.964088 -0.0346757 -0.0205207 -0.999188 -0.708997 0.204456 -0.674922 
-0.453849 0.124793 -0.882297 -0.717027 0.169223 -0.676192 0.703798 0.149094 -0.694579 
0.64532 0.166384 -0.745573 0.373612 0.110292 -0.921005 -0.443008 -0.00890335 -0.896473 
-0.739498 -0.019979 -0.672863 -0.735497 -0.143935 -0.662062 -0.716775 -0.0180286 -0.697072 
0.743022 -0.0131735 -0.669138 0.635748 -0.0149198 -0.771753 0.352463 -0.0400931 -0.934967 
0.156988 0.0365605 -0.986924 -0.721459 -0.23232 -0.652323 -0.455696 -0.130339 -0.880541 
0.717616 -0.227984 -0.658066 0.658119 -0.361523 -0.66044 0.652841 -0.23861 -0.718932 
0.379511 -0.159313 -0.911368 -0.274234 -0.236651 -0.93209 -0.705862 -0.382119 -0.596444 
-0.620165 -0.531617 -0.57687 -0.5383 -0.34151 -0.770457 0.579353 -0.492274 -0.649628 
0.565592 -0.579324 -0.586932 0.482837 -0.386607 -0.78575 0.251379 -0.245102 -0.936341 
-0.269581 -0.275506 -0.922726 -0.582298 -0.571705 -0.577999 -0.519163 -0.637822 -0.568905 
-0.441746 -0.448907 -0.776752 0.548329 -0.620745 -0.560366 0.498516 -0.672518 -0.546993 
0.428338 -0.525953 -0.734779 0.228084 -0.366207 -0.902148 0.116849 -0.283386 -0.951861 
-0.371907 -0.801075 -0.469004 -0.264099 -0.439114 -0.858738 -0.496882 -0.671653 -0.549537 
-0.447011 -0.711322 -0.542405 -0.410402 -0.605656 -0.681727 0.406577 -0.757953 -0.510101 
0.370394 -0.776297 -0.510069 0.358048 -0.734761 -0.576132 0.237429 -0.802326 -0.547631 
0.191797 -0.637675 -0.746046 0.122172 -0.832082 -0.541029 0.0868392 -0.567876 -0.81852 
0.0245371 -0.848424 -0.528748 0.028435 -0.502439 -0.864145 -0.0806464 -0.851758 -0.517692 
-0.0270846 -0.516501 -0.855858 -0.19071 -0.840572 -0.50702 -0.127881 -0.618663 -0.775179 
-0.359313 -0.808398 -0.466247 -0.280614 -0.82292 -0.494023 -0.246577 -0.725296 -0.642764 
0.155479 0.248492 -0.956074 0.0705248 0.33101 -0.940988 -0.0347426 0.290969 -0.956101 
-0.0780163 0.260862 -0.962219 -0.132676 0.278385 -0.951262 0.176992 0.219193 -0.959494 
0.149512 0.215316 -0.965031 0.0449674 0.167761 -0.984802 -0.0356449 0.148738 -0.988234 
-0.0488878 0.144522 -0.988293 -0.136936 0.276212 -0.951292 -0.124839 0.258074 -0.958026 
-0.114188 0.255995 -0.95991 -0.149243 0.288079 -0.945905 0.232671 0.105331 -0.966835 
0.232176 0.104603 -0.967033 0.113977 0.0612196 -0.991595 0.0126499 -0.0342245 -0.999334 
-0.0598909 -0.0193281 -0.998018 -0.01773 -0.0353341 -0.999218 0.00827016 0.0366933 -0.999292 
-0.0502671 0.161267 -0.98563 -0.157203 0.281293 -0.946658 -0.135878 0.261135 -0.955691 
-0.188005 0.252464 -0.949166 0.221758 0.10457 -0.969478 0.154496 0.0712616 -0.98542 
0.00405834 -0.0206489 -0.999779 -0.0347162 -0.0231034 -0.99913 -0.0367824 -0.115267 -0.992653 
-0.0329292 -0.0663923 -0.99725 0.00930396 5.84204e-05 -0.999957 0.0839136 0.0548648 -0.994962 
0.0472313 0.0553866 -0.997347 -0.0527743 0.082054 -0.99523 -0.215737 0.215072 -0.952471 
-0.161266 0.193262 -0.967803 -0.239675 0.173849 -0.955161 0.210307 0.101156 -0.972388 
0.223212 0.101462 -0.969475 0.0749907 0.0435137 -0.996234 -0.0354153 -0.021128 -0.999149 
-0.0682292 -0.0453389 -0.996639 -0.0301618 -0.0134793 -0.999454 -0.026821 -0.0197412 -0.999445 
0.0574089 0.123546 -0.990677 0.104168 0.0221019 -0.994314 0.0616718 0.150761 -0.986645 
-0.020764 -0.0254015 -0.999462 0.00365207 -0.0192693 -0.999808 -0.0749677 0.0677557 -0.994881 
-0.279579 0.123439 -0.952155 -0.212944 0.1203 -0.96963 0.239853 0.0789003 -0.967598 
0.171013 0.0633196 -0.983232 -0.00663284 0.00727829 -0.999952 -0.0622547 -0.0330489 -0.997513 
0.154764 0.0300341 -0.987495 0.139104 0.000399484 -0.990278 0.0140032 0.165219 -0.986157 
0.0399721 0.120895 -0.99186 0.0191086 0.0467666 -0.998723 -0.121378 -0.0460125 -0.991539 
0.0404744 -0.0200678 -0.998979 -0.024254 -0.0301957 -0.99925 -0.300362 -0.0120869 -0.953749 
-0.221205 -0.0084631 -0.975191 0.228457 -0.0358873 -0.972892 0.141486 -0.0297717 -0.989493 
-0.0179867 -0.00357667 -0.999832 0.120928 0.0337617 -0.992087 -0.0755886 0.0198217 -0.996942 
0.158551 0.0329543 -0.986801 0.148 0.0438776 -0.988014 0.155829 -0.0854446 -0.984082 
-0.00802487 0.0950334 -0.995442 -0.0990284 -0.0280497 -0.994689 -0.0837616 0.0421991 -0.995592 
0.0195111 0.00369745 -0.999803 -0.0590957 -0.0848263 -0.994642 -0.252219 -0.132265 -0.958588 
-0.224593 -0.164874 -0.960403 -0.203147 -0.128852 -0.970633 0.228953 -0.110357 -0.967162 
0.217022 -0.130544 -0.967398 0.210491 -0.107299 -0.97169 0.0430138 -0.0423838 -0.998175 
-0.0271983 0.0500709 -0.998375 0.0380396 0.112279 -0.992948 0.0852927 -0.0947186 -0.991844 
0.0824353 -0.043911 -0.995629 -0.0243539 -0.0268235 -0.999343 -0.0937673 0.050755 -0.9943 
-0.0870565 -0.021288 -0.995976 -0.194559 -0.161543 -0.967497 -0.21175 -0.199236 -0.9568 
-0.149069 -0.124476 -0.980961 0.171156 -0.184697 -0.967777 0.161077 -0.215705 -0.963081 
0.14234 -0.162615 -0.976369 0.115735 -0.273594 -0.954857 0.0848932 -0.0610862 -0.994516 
0.00850506 -0.011685 -0.999896 0.00845289 -0.0716549 -0.997394 0.0631916 -0.115671 -0.991275 
-0.00139889 -0.113825 -0.9935 -0.079676 -0.10772 -0.990983 -0.230756 -0.240091 -0.942925 
-0.1959 -0.280199 -0.93974 -0.1585 -0.176676 -0.971423 0.110792 -0.282244 -0.952923 
0.0389763 -0.331112 -0.942786 0.0283194 -0.266666 -0.963373 -0.00762905 -0.258723 -0.965921 
-0.0152604 -0.224603 -0.974331 0.0315807 -0.285285 -0.957922 0.0421277 -0.241036 -0.969601 
-0.0483722 -0.378491 -0.92434 -0.0207885 -0.294096 -0.95555 -0.164377 -0.350893 -0.921875 
-0.158418 -0.35502 -0.921339 -0.156673 -0.345124 -0.925388 
