# vtk DataFile Version 4.2
vtk output
ASCII
DATASET POLYDATA
POINTS 568 float
-22.3057 -43.942 -13.8817 -13.9874 -43.942 -15.47 -5.66919 -43.942 -15.7521 
2.64904 -43.942 -15.3278 10.9673 -43.942 -13.8714 -30.6239 -35.6238 -15.9564 
-22.3057 -35.6238 -18.1232 -13.9874 -35.6238 -17.8099 -5.66919 -35.6238 -17.8607 
2.64904 -35.6238 -17.2312 10.9673 -35.6238 -15.0715 -47.2604 -27.3055 -12.9939 
-38.9421 -27.3055 -15.8921 -30.6239 -27.3055 -17.6081 -22.3057 -27.3055 -18.6165 
-13.9874 -27.3055 -18.1448 -5.66919 -27.3055 -17.6971 2.64904 -27.3055 -17.115 
10.9673 -27.3055 -15.3642 -55.5786 -18.9873 -13.3133 -47.2604 -18.9873 -16.3401 
-38.9421 -18.9873 -18.2597 -30.6239 -18.9873 -17.9527 -22.3057 -18.9873 -17.6927 
-13.9874 -18.9873 -17.0922 -5.66919 -18.9873 -16.4668 2.64904 -18.9873 -15.8359 
10.9673 -18.9873 -13.7894 27.6037 -18.9873 -13.3689 35.922 -18.9873 -13.7423 
-63.8968 -10.6691 -13.4554 -55.5786 -10.6691 -16.4378 -47.2604 -10.6691 -18.373 
-38.9421 -10.6691 -18.5883 -30.6239 -10.6691 -18.0323 -22.3057 -10.6691 -16.8464 
-13.9874 -10.6691 -15.9381 -5.66919 -10.6691 -17.2849 2.64904 -10.6691 -15.523 
10.9673 -10.6691 -14.7388 19.2855 -10.6691 -14.6893 27.6037 -10.6691 -16.1528 
35.922 -10.6691 -16.4302 44.2402 -10.6691 -15.5909 52.5584 -10.6691 -13.8422 
-63.8968 -2.35085 -15.3443 -55.5786 -2.35085 -17.8426 -47.2604 -2.35085 -19.6691 
-38.9421 -2.35085 -19.3305 -30.6239 -2.35085 -18.3117 -22.3057 -2.35085 -16.5497 
-13.9874 -2.35085 -16.9992 -5.66919 -2.35085 -19.8846 2.64904 -2.35085 -15.0216 
10.9673 -2.35085 -18.5676 19.2855 -2.35085 -16.4326 27.6037 -2.35085 -16.8365 
35.922 -2.35085 -17.2912 44.2402 -2.35085 -17.0008 52.5584 -2.35085 -15.8163 
-63.8968 5.96738 -13.7085 -55.5786 5.96738 -17.7568 -47.2604 5.96738 -19.6639 
-38.9421 5.96738 -19.369 -30.6239 5.96738 -18.4212 -22.3057 5.96738 -16.656 
-13.9874 5.96738 -15.6243 -5.66919 5.96738 -18.8255 2.64904 5.96738 -17.1906 
10.9673 5.96738 -17.5029 19.2855 5.96738 -16.3933 27.6037 5.96738 -17.2293 
35.922 5.96738 -17.8034 44.2402 5.96738 -17.6782 52.5584 5.96738 -16.7934 
60.8767 5.96738 -13.763 -63.8968 14.2856 -14.4364 -55.5786 14.2856 -18.2278 
-47.2604 14.2856 -18.7566 -38.9421 14.2856 -19.0852 -30.6239 14.2856 -19.0119 
-22.3057 14.2856 -17.7497 -13.9874 14.2856 -16.6371 -5.66919 14.2856 -17.4301 
2.64904 14.2856 -17.7093 10.9673 14.2856 -16.9357 19.2855 14.2856 -17.2396 
27.6037 14.2856 -17.7875 35.922 14.2856 -18.1058 44.2402 14.2856 -18.0002 
52.5584 14.2856 -16.3398 60.8767 14.2856 -14.0327 -55.5786 22.6038 -15.722 
-47.2604 22.6038 -17.7673 -38.9421 22.6038 -19.3425 -30.6239 22.6038 -18.8974 
-22.3057 22.6038 -17.8857 -13.9874 22.6038 -17.0309 -5.66919 22.6038 -16.681 
2.64904 22.6038 -17.5382 10.9673 22.6038 -17.5733 19.2855 22.6038 -17.8073 
27.6037 22.6038 -18.1429 35.922 22.6038 -18.7567 44.2402 22.6038 -16.5676 
52.5584 22.6038 -14.8355 60.8767 22.6038 -12.7802 -55.5786 30.9221 -14.2635 
-47.2604 30.9221 -16.8626 -38.9421 30.9221 -17.3844 -30.6239 30.9221 -18.0406 
-22.3057 30.9221 -16.6318 -13.9874 30.9221 -15.4215 -5.66919 30.9221 -14.801 
2.64904 30.9221 -15.8722 10.9673 30.9221 -16.4656 19.2855 30.9221 -16.3618 
27.6037 30.9221 -16.7733 35.922 30.9221 -16.4112 44.2402 30.9221 -14.7226 
52.5584 30.9221 -13.6239 -47.2604 39.2403 -13.6586 -38.9421 39.2403 -14.2424 
-30.6239 39.2403 -14.1248 -22.3057 39.2403 -12.7111 -22.3057 -45.3181 -12.6955 
-13.9874 -47.1946 -12.6955 -5.66919 -47.8921 -12.6955 2.64904 -47.5542 -12.6955 
2.64904 -52.2602 -4.85807 10.9673 -45.8966 -12.6955 -25.7431 -43.942 -12.6955 
-30.6239 -41.1896 -12.6955 -30.6239 -43.942 -9.44721 13.1015 -43.942 -12.6955 
19.2855 -43.942 -8.15604 -47.2604 -27.8446 -12.6955 -38.3245 -35.6238 -12.6955 
-38.9421 -35.023 -12.6955 -38.9421 -35.6238 -12.3241 15.7582 -35.6238 -12.6955 
19.2855 -35.6238 -10.8792 27.6037 -35.6238 -7.11424 35.922 -35.6238 -4.73645 
-47.9198 -27.3055 -12.6955 -55.5786 -20.3078 -12.6955 -55.5786 -27.3055 -6.10816 
18.3705 -27.3055 -12.6955 19.2855 -27.3055 -12.361 27.6037 -20.9476 -12.6955 
27.6037 -27.3055 -10.3864 35.922 -21.0437 -12.6955 35.922 -27.3055 -9.47013 
44.2402 -27.3055 -7.78299 -56.6384 -18.9873 -12.6955 -63.8968 -12.2184 -12.6955 
-63.8968 -18.9873 -5.35781 18.8423 -18.9873 -12.6955 20.0047 -18.9873 -12.6955 
19.2855 -18.7221 -12.6955 19.2855 -18.9873 -12.634 43.9556 -18.9873 -12.6955 
44.2402 -18.8845 -12.6955 44.2402 -18.9873 -12.6557 52.5584 -14.0572 -12.6955 
52.5584 -18.9873 -10.5281 60.8767 -18.9873 -5.23376 -64.7925 -10.6691 -12.6955 
55.9681 -10.6691 -12.6955 60.8767 -10.6691 -10.4901 -67.1413 -2.35085 -12.6955 
60.4995 -2.35085 -12.6955 60.8767 -1.31576 -12.6955 60.8767 -2.35085 -12.5342 
69.1949 -2.35085 -6.88423 -65.2622 5.96738 -12.6955 -72.215 5.96738 -4.45485 
62.6569 5.96738 -12.6955 69.1949 5.96738 -8.55829 -66.208 14.2856 -12.6955 
-63.8968 19.7704 -12.6955 63.0069 14.2856 -12.6955 69.1949 14.2856 -7.28269 
-61.5661 22.6038 -12.6955 -63.8968 22.6038 -11.1596 61.0212 22.6038 -12.6955 
60.8767 22.7629 -12.6955 69.1949 22.6038 -4.60307 -58.0573 30.9221 -12.6955 
-63.8968 30.9221 -5.37165 -55.5786 33.7957 -12.6955 -13.9874 35.7105 -12.6955 
-5.66919 34.2787 -12.6955 2.64904 35.4758 -12.6955 10.9673 36.6892 -12.6955 
19.2855 37.5681 -12.6955 27.6037 37.3792 -12.6955 35.922 36.5915 -12.6955 
44.2402 34.3408 -12.6955 54.0086 30.9221 -12.6955 52.5584 32.1666 -12.6955 
60.8767 30.9221 -6.41147 -49.2238 39.2403 -12.6955 -55.5786 39.2403 -6.77127 
-47.2604 40.405 -12.6955 -38.9421 40.9986 -12.6955 -30.6239 41.234 -12.6955 
-22.2506 39.2403 -12.6955 -22.3057 39.2581 -12.6955 -13.9874 39.2403 -8.99223 
-5.66919 39.2403 -5.97386 2.64904 39.2403 -6.47344 10.9673 39.2403 -9.2008 
19.2855 39.2403 -10.9087 27.6037 39.2403 -10.7933 35.922 39.2403 -9.77765 
44.2402 39.2403 -8.30012 2.64904 -52.4623 -4.3773 -30.6239 -46.2683 -4.3773 
-22.3057 -48.8869 -4.3773 -13.9874 -50.3255 -4.3773 -0.0406002 -52.2602 -4.3773 
-5.66919 -51.8613 -4.3773 4.97296 -52.2602 -4.3773 2.64904 -52.2602 -1.61306 
10.9673 -51.6469 -4.3773 19.2855 -47.6368 -4.3773 -35.0853 -43.942 -4.3773 
-38.9421 -41.6132 -4.3773 24.7393 -43.942 -4.3773 27.6037 -40.5911 -4.3773 
27.6037 -43.942 -0.0582006 35.922 -36.0349 -4.3773 -55.5786 -28.2315 -4.3773 
-46.9815 -35.6238 -4.3773 -47.2604 -35.3715 -4.3773 36.6861 -35.6238 -4.3773 
44.2402 -31.3583 -4.3773 44.2402 -35.6238 3.46019 -56.6714 -27.3055 -4.3773 
-63.8968 -19.7394 -4.3773 -55.5786 -27.3055 2.15544 51.8054 -27.3055 -4.3773 
52.5584 -26.7539 -4.3773 52.5584 -27.3055 -3.49093 60.8767 -19.8341 -4.3773 
-64.4361 -18.9873 -4.3773 -63.8968 -18.9873 -0.325972 61.7271 -18.9873 -4.3773 
-69.4822 -10.6691 -4.3773 67.418 -10.6691 -4.3773 69.1949 -7.71099 -4.3773 
69.1949 -10.6691 -0.162899 -72.1818 -2.35085 -4.3773 -72.215 1.01276 -4.3773 
-5.66919 -2.35085 3.71303 71.3512 -2.35085 -4.3773 -72.2554 5.96738 -4.3773 
-72.215 6.83954 -4.3773 -72.215 5.96738 -3.97476 73.0196 5.96738 -4.3773 
-71.7782 14.2856 -4.3773 71.7356 14.2856 -4.3773 -68.4137 22.6038 -4.3773 
69.3483 22.6038 -4.3773 69.1949 22.8399 -4.3773 -64.4866 30.9221 -4.3773 
-63.8968 31.7184 -4.3773 -63.8968 30.9221 -0.352151 52.5584 38.1365 -4.3773 
62.8329 30.9221 -4.3773 60.8767 32.8545 -4.3773 -57.2603 39.2403 -4.3773 
-55.5786 40.6526 -4.3773 -47.2604 45.0814 -4.3773 -38.9421 46.2509 -4.3773 
-30.6239 46.6327 -4.3773 -22.3057 44.2691 -4.3773 -13.9874 41.6131 -4.3773 
-5.66919 39.9414 -4.3773 -5.66919 39.2403 1.39999 2.64904 40.0916 -4.3773 
10.9673 41.4245 -4.3773 19.2855 42.4252 -4.3773 27.6037 42.9483 -4.3773 
35.922 42.9177 -4.3773 49.8864 39.2403 -4.3773 44.2402 41.3241 -4.3773 
-30.6239 -44.8064 3.94093 -22.3057 -47.312 3.94093 -13.9874 -48.4703 3.94093 
-5.66919 -49.717 3.94093 2.64904 -51.7102 3.94093 10.9673 -50.4858 3.94093 
19.2855 -49.0605 3.94093 27.6037 -45.476 3.94093 -32.32 -43.942 3.94093 
-38.9421 -39.5873 3.94093 -30.6239 -43.942 5.39946 -22.3057 -43.942 9.00523 
-13.9874 -43.942 10.6001 -5.66919 -43.942 11.2324 2.64904 -43.942 11.9277 
10.9673 -43.942 11.8111 19.2855 -43.942 11.3512 30.4268 -43.942 3.94093 
27.6037 -43.942 7.45824 35.922 -40.7852 3.94093 44.2402 -35.8491 3.94093 
-44.911 -35.6238 3.94093 -47.2604 -33.8912 3.94093 -38.9421 -35.6238 9.69073 
44.5895 -35.6238 3.94093 44.2402 -35.6238 4.91241 52.5584 -30.3142 3.94093 
-55.2386 -27.3055 3.94093 -55.5786 -27.0041 3.94093 -47.2604 -27.3055 9.83663 
56.3465 -27.3055 3.94093 52.5584 -27.3055 12.1763 60.8767 -23.2671 3.94093 
-63.1736 -18.9873 3.94093 -63.8968 -18.2021 3.94093 64.9749 -18.9873 3.94093 
69.1949 -12.7275 3.94093 -68.6488 -10.6691 3.94093 -63.8968 -10.6691 9.86925 
-5.66919 -2.54583 3.94093 70.4664 -10.6691 3.94093 69.1949 -10.6691 6.96011 
-70.874 -2.35085 3.94093 -5.91332 -2.35085 3.94093 -4.95366 -2.35085 3.94093 
-5.66919 -2.10588 3.94093 -5.66919 -2.35085 4.52899 73.6216 -2.35085 3.94093 
-71.2001 5.96738 3.94093 75.245 5.96738 3.94093 -70.8427 14.2856 3.94093 
-63.8968 14.2856 11.8521 2.64904 14.2856 12.0227 73.8003 14.2856 3.94093 
-67.485 22.6038 3.94093 -63.8968 29.6924 3.94093 -63.8968 22.6038 8.20513 
71.2367 22.6038 3.94093 69.1949 25.3898 3.94093 69.1949 22.6038 7.62256 
-62.8647 30.9221 3.94093 -55.5786 30.9221 10.0842 -13.9874 30.9221 12.0641 
-5.66919 38.8617 3.94093 -5.66919 30.9221 11.26 2.64904 30.9221 11.5295 
52.5584 38.6772 3.94093 64.1859 30.9221 3.94093 60.8767 33.9889 3.94093 
60.8767 30.9221 8.74949 -55.6577 39.2403 3.94093 -55.5786 39.3053 3.94093 
-55.5786 39.2403 4.02092 -47.2604 43.322 3.94093 -47.2604 39.2403 8.4462 
-38.9421 44.8619 3.94093 -38.9421 39.2403 9.55252 -30.6239 44.7676 3.94093 
-30.6239 39.2403 9.39053 -22.3057 42.6189 3.94093 -22.3057 39.2403 9.26589 
-7.42834 39.2403 3.94093 -13.9874 40.4507 3.94093 -13.9874 39.2403 5.71337 
0.0209755 39.2403 3.94093 2.64904 39.3818 3.94093 2.64904 39.2403 4.1651 
10.9673 41.1559 3.94093 10.9673 39.2403 6.83359 19.2855 42.1122 3.94093 
19.2855 39.2403 8.75426 27.6037 43.1113 3.94093 27.6037 39.2403 9.67927 
35.922 42.9853 3.94093 35.922 39.2403 9.34703 51.0368 39.2403 3.94093 
[...]
POINT_DATA 568
SCALARS ImageScalars float
LOOKUP_TABLE default
0 0 0 0 0 0 0 0 0 
0 0 0 0 0 0 0 0 0 
0 0 0 0 0 0 0 0 0 
0 0 0 0 0 0 0 0 0 
0 0 0 0 0 0 0 0 0 
0 0 0 0 0 0 0 0 0 
0 0 0 0 0 0 0 0 0 
0 0 0 0 0 0 0 0 0 
0 0 0 0 0 0 0 0 0 
0 0 0 0 0 0 0 0 0 
0 0 0 0 0 0 0 0 0 
0 0 0 0 0 0 0 0 0 
0 0 0 0 0 0 0 0 0 
0 0 0 0 0 0 0 0 0 
0 0 0 0 0 0 0 0 0 
0 0 0 0 0 0 0 0 0 
0 0 0 0 0 0 0 0 0 
0 0 0 0 0 0 0 0 0 
0 0 0 0 0 0 0 0 0 
0 0 0 0 0 0 0 0 0 
0 0 0 0 0 0 0 0 0 
0 0 0 0 0 0 0 0 0 
0 0 0 0 0 0 0 0 0 
0 0 0 0 0 0 0 0 0 
0 0 0 0 0 0 0 0 0 
0 0 0 0 0 0 0 0 0 
0 0 0 0 0 0 0 0 0 
0 0 0 0 0 0 0 0 0 
0 0 0 0 0 0 0 0 0 
0 0 0 0 0 0 0 0 0 
0 0 0 0 0 0 0 0 0 
0 0 0 0 0 0 0 0 0 
0 0 0 0 0 0 0 0 0 
0 0 0 0 0 0 0 0 0 
0 0 0 0 0 0 0 0 0 
0 0 0 0 0 0 0 0 0 
0 0 0 0 0 0 0 0 0 
0 0 0 0 0 0 0 0 0 
0 0 0 0 0 0 0 0 0 
0 0 0 0 0 0 0 0 0 
0 0 0 0 0 0 0 0 0 
0 0 0 0 0 0 0 0 0 
0 0 0 0 0 0 0 0 0 
0 0 0 0 0 0 0 0 0 
0 0 0 0 0 0 0 0 0 
0 0 0 0 0 0 0 0 0 
0 0 0 0 0 0 0 0 0 
0 0 0 0 0 0 0 0 0 
0 0 0 0 0 0 0 0 0 
0 0 0 0 0 0 0 0 0 
0 0 0 0 0 0 0 0 0 
0 0 0 0 0 0 0 0 0 
0 0 0 0 0 0 0 0 0 
0 0 0 0 0 0 0 0 0 
0 0 0 0 0 0 0 0 0 
0 0 0 0 0 0 0 0 0 
0 0 0 0 0 0 0 0 0 
0 0 0 0 0 0 0 0 0 
0 0 0 0 0 0 0 0 0 
0 0 0 0 0 0 0 0 0 
0 0 0 0 0 0 0 0 0 
0 0 0 0 0 0 0 0 0 
0 0 0 0 0 0 0 0 0 
0 
NORMALS Normals float
-0.241356 -0.633393 -0.735228 -0.107145 -0.530994 -0.840574 0.00807604 -0.466811 -0.88432 
0.115879 -0.419682 -0.900244 0.354411 -0.3677 -0.859761 -0.28353 -0.339761 -0.896757 
-0.0971065 -0.244947 -0.964661 0.0142587 -0.151813 -0.988306 0.0337186 -0.100849 -0.99433 
0.157731 -0.0974572 -0.982661 0.341437 -0.0902598 -0.935561 -0.38427 -0.454498 -0.803597 
-0.235214 -0.277726 -0.93142 -0.152371 -0.10658 -0.98256 -0.0366449 0.0287619 -0.998914 
0.0546364 0.0432976 -0.997567 0.0610939 0.0829042 -0.994683 0.135492 0.0821848 -0.987364 
0.285364 0.0806265 -0.955022 -0.440931 -0.40292 -0.80202 -0.245322 -0.2595 -0.934065 
-0.0955891 -0.162909 -0.982 0.0327801 -0.0268236 -0.999103 0.051277 0.100696 -0.993595 
0.0742256 0.134187 -0.988172 0.0767097 0.0402955 -0.996239 0.161742 0.0944974 -0.982298 
0.189839 0.0469103 -0.980694 -0.0641 -0.321141 -0.94486 0.0362752 -0.40781 -0.912346 
-0.554108 -0.343052 -0.758472 -0.286635 -0.237294 -0.928187 -0.128499 -0.196084 -0.972131 
0.0211185 -0.0628916 -0.997797 0.10146 -0.0220438 -0.994595 0.129678 0.0707499 -0.989029 
-0.00719657 0.0268232 -0.999614 0.0201713 -0.196505 -0.980295 0.119306 0.0461019 -0.991787 
0.0518416 -0.294238 -0.954325 -0.0841737 -0.230569 -0.969408 -0.0982009 -0.200344 -0.974792 
0.0319628 -0.201221 -0.979024 0.145699 -0.237836 -0.960316 0.260499 -0.271939 -0.926385 
-0.52397 -0.0321221 -0.851131 -0.252803 -0.0733702 -0.964732 -0.102055 -0.0754156 -0.991916 
0.0801648 -0.0466577 -0.995689 0.164932 -0.0230777 -0.986035 0.0869874 0.0100786 -0.996158 
-0.188048 0.0137045 -0.982064 0.154743 -0.0650312 -0.985812 0.0231909 -0.103426 -0.994367 
-0.047407 -0.131188 -0.990223 0.0913051 -0.0957917 -0.991205 -0.0509123 -0.0627353 -0.996731 
-0.0101372 -0.0833425 -0.996469 0.0836444 -0.122206 -0.988974 0.253576 -0.170707 -0.952133 
-0.567947 0.0568135 -0.821102 -0.299133 -0.0161985 -0.954074 -0.109463 0.0544088 -0.992501 
0.0734602 0.014704 -0.99719 0.161006 -0.0387974 -0.986191 0.163623 -0.0727492 -0.983837 
-0.132552 -0.00402097 -0.991168 -0.0949582 0.13754 -0.985934 0.0863163 -0.150307 -0.984864 
0.0525867 0.0975976 -0.993836 0.00746243 -0.0489086 -0.998775 -0.0835116 -0.0569118 -0.99488 
-0.0269546 -0.0487535 -0.998447 0.0650422 -0.0589845 -0.996138 0.212133 -0.0289727 -0.976811 
0.452525 -0.0855457 -0.887639 -0.534508 0.122878 -0.836183 -0.276224 0.0918742 -0.956692 
-0.0463908 0.112789 -0.992535 -0.0149929 0.00226337 -0.999885 0.0832389 -0.0296667 -0.996088 
0.136956 -0.073754 -0.987828 0.0206188 -0.0792609 -0.996641 -0.0658176 0.128176 -0.989565 
0.0297509 -0.0174134 -0.999406 0.0284111 -0.00897831 -0.999556 -0.0515744 -0.0851227 -0.995035 
-0.0518957 -0.0545001 -0.997164 -0.0130014 -0.0545284 -0.998428 0.0995025 0.0657128 -0.992865 
0.255177 0.112425 -0.960336 0.43092 0.0630858 -0.900182 -0.374963 0.227824 -0.898609 
-0.189809 0.100655 -0.976648 -0.0667142 0.0974768 -0.992999 0.087211 0.0546939 -0.994687 
0.110202 0.0641066 -0.99184 0.0727802 0.0673308 -0.995073 -0.0300956 0.146051 -0.988819 
-0.0533763 0.104972 -0.993042 -0.0161659 0.0223633 -0.999619 -0.0339775 0.0470481 -0.998315 
-0.0548819 0.0523278 -0.997121 0.0887219 0.107214 -0.990269 0.209608 0.164734 -0.963809 
0.240213 0.164285 -0.956717 0.4238 0.3677 -0.827762 -0.419723 0.356675 -0.834635 
-0.19727 0.250106 -0.947909 -0.0626206 0.26415 -0.962447 0.0443258 0.26389 -0.963534 
0.146426 0.264539 -0.953194 0.106921 0.341915 -0.933628 -0.026972 0.398131 -0.916932 
-0.0972466 0.402982 -0.910027 -0.0290575 0.339368 -0.940205 -0.0168592 0.325761 -0.945302 
-0.000293274 0.34188 -0.939744 0.0966692 0.392599 -0.914615 0.189691 0.376182 -0.90692 
0.352228 0.413725 -0.839504 -0.274517 0.545971 -0.791553 -0.0306175 0.553636 -0.832196 
0.0757005 0.546129 -0.834274 0.208213 0.628993 -0.749009 -0.258867 -0.698278 -0.66738 
-0.125543 -0.742326 -0.658173 -0.0226588 -0.714486 -0.699283 0.0813418 -0.635361 -0.767919 
0.0083801 -0.982476 -0.186202 0.355531 -0.481208 -0.801272 -0.295762 -0.679054 -0.671871 
-0.341071 -0.612927 -0.712735 -0.379704 -0.817077 -0.433832 0.413808 -0.38136 -0.826636 
0.538072 -0.51769 -0.665189 -0.397642 -0.471287 -0.787254 -0.411848 -0.485551 -0.771117 
-0.409453 -0.47762 -0.777321 -0.432085 -0.511887 -0.742479 0.398344 -0.147785 -0.905252 
0.436749 -0.219319 -0.872439 0.34056 -0.405954 -0.848069 0.321343 -0.642549 -0.695607 
-0.398876 -0.46901 -0.78799 -0.457258 -0.432405 -0.777136 -0.637627 -0.72179 -0.269167 
0.283802 -0.0759418 -0.955871 0.281536 -0.0955148 -0.954785 -0.0100503 -0.322455 -0.946532 
0.166593 -0.336 -0.927012 0.0651944 -0.431489 -0.899759 0.140981 -0.479811 -0.865971 
0.264091 -0.602121 -0.753463 -0.467274 -0.422303 -0.776733 -0.576101 -0.379664 -0.723853 
-0.762028 -0.603044 -0.235905 0.0351369 -0.120352 -0.992109 0.0187111 -0.147419 -0.988897 
0.0221809 -0.133552 -0.990794 0.0265411 -0.130589 -0.991081 0.14757 -0.435893 -0.887818 
0.151469 -0.43427 -0.887956 0.151659 -0.436751 -0.886707 0.287503 -0.350251 -0.891441 
0.349705 -0.492391 -0.79703 0.590317 -0.584469 -0.556706 -0.595264 -0.350403 -0.723103 
0.350829 -0.291718 -0.889842 0.517574 -0.345082 -0.782966 -0.721109 -0.051085 -0.690936 
0.443496 -0.148612 -0.88387 0.454106 -0.13956 -0.879949 0.453406 -0.147965 -0.878936 
0.723735 -0.265669 -0.636889 -0.630319 0.051612 -0.774619 -0.97439 0.0201333 -0.223963 
0.483025 -0.0825206 -0.871709 0.670764 -0.0228939 -0.741317 -0.621482 0.140489 -0.770729 
-0.573571 0.258667 -0.777244 0.491274 0.0624912 -0.868761 0.742371 0.17809 -0.645886 
-0.523833 0.291083 -0.800543 -0.638356 0.343292 -0.688951 0.430256 0.368137 -0.82423 
0.427116 0.374346 -0.823065 0.778276 0.444742 -0.443272 -0.546548 0.393282 -0.739334 
-0.790107 0.561162 -0.246634 -0.480711 0.446455 -0.754715 0.159799 0.558811 -0.813753 
-0.00169328 0.569884 -0.821724 -0.0942798 0.67702 -0.729901 -0.0835205 0.669576 -0.738033 
-0.0267268 0.656296 -0.75403 0.0413213 0.64613 -0.762108 0.092085 0.644481 -0.759055 
0.211433 0.525848 -0.823881 0.388863 0.460345 -0.79804 0.375587 0.49214 -0.785323 
0.640363 0.592301 -0.488994 -0.33378 0.578229 -0.744475 -0.609322 0.713159 -0.346599 
-0.275277 0.616221 -0.737899 -0.0429802 0.626487 -0.778246 0.0784388 0.608843 -0.789403 
0.208265 0.62966 -0.748434 0.208454 0.629657 -0.748384 0.228356 0.846053 -0.481713 
0.0847253 0.96367 -0.253301 -0.0896298 0.958027 -0.272307 -0.125211 0.877589 -0.462773 
-0.0439627 0.796355 -0.60323 0.0449597 0.777953 -0.626712 0.0851347 0.808614 -0.582147 
0.257663 0.827203 -0.499344 0.00550391 -0.986754 -0.162132 -0.385776 -0.916188 -0.108522 
-0.243266 -0.967218 -0.0728756 -0.176846 -0.983006 -0.0492388 -0.0370808 -0.991338 -0.125995 
-0.126984 -0.990613 -0.0506014 0.0684012 -0.984654 -0.160555 -0.0100416 -0.999949 -0.00047781 
0.254555 -0.953635 -0.160568 0.503183 -0.743217 -0.440948 -0.473337 -0.875862 -0.0939033 
-0.547664 -0.831358 -0.0943811 0.543924 -0.630164 -0.554112 0.475568 -0.560709 -0.67782 
0.521473 -0.810915 -0.265485 0.328241 -0.654879 -0.680728 -0.650944 -0.743775 -0.151893 
-0.638252 -0.759147 -0.127793 -0.640283 -0.757148 -0.129482 0.335422 -0.653725 -0.678334 
0.389646 -0.658222 -0.644143 0.529035 -0.838582 -0.130005 -0.659756 -0.735332 -0.154947 
-0.768905 -0.614921 -0.175093 -0.634036 -0.728445 0.259551 0.475874 -0.689248 -0.546334 
0.488138 -0.686225 -0.539274 0.509798 -0.712501 -0.482128 0.603904 -0.60874 -0.514525 
-0.77882 -0.602409 -0.174767 -0.780019 -0.618933 0.0921532 0.620871 -0.592961 -0.512753 
-0.903677 -0.383202 -0.191113 0.726101 -0.45369 -0.516665 0.761626 -0.39933 -0.510353 
0.846749 -0.485545 -0.217401 -0.962252 -0.171597 -0.211246 -0.971932 -0.0930039 -0.216099 
0.678872 0.259565 0.686847 0.831524 -0.269521 -0.485723 -0.975235 0.0201518 -0.220251 
-0.974373 0.0413933 -0.221096 -0.980972 0.0199454 -0.19312 0.886526 -0.0259055 -0.461953 
-0.9474 0.225665 -0.226953 0.851551 0.217049 -0.477233 -0.896682 0.380338 -0.226507 
0.78157 0.448431 -0.433657 0.77925 0.455252 -0.430715 -0.801505 0.562164 -0.203868 
-0.789445 0.579393 -0.202684 -0.794277 0.599192 0.100463 0.422568 0.851118 -0.311505 
0.7027 0.60006 -0.382284 0.645661 0.649789 -0.401119 -0.657697 0.728634 -0.191122 
-0.608815 0.771128 -0.186293 -0.33127 0.931306 -0.151421 -0.0849865 0.986931 -0.136908 
0.118721 0.98394 -0.133293 0.298721 0.94534 -0.130761 0.249974 0.956566 -0.149983 
0.0923288 0.984118 -0.151615 0.0742733 0.971967 0.223076 -0.0885098 0.983738 -0.156288 
-0.141361 0.972432 -0.185455 -0.0880703 0.977057 -0.193916 -0.0307494 0.966932 -0.253173 
0.102148 0.950086 -0.294791 0.370388 0.881185 -0.293811 0.262179 0.927865 -0.265196 
-0.378429 -0.853697 0.357761 -0.207818 -0.905007 0.371178 -0.13126 -0.912706 0.38696 
-0.154591 -0.893142 0.422373 -0.044171 -0.923206 0.381759 0.135709 -0.927483 0.348366 
0.279624 -0.941705 0.187089 0.43985 -0.897927 0.0160843 -0.411155 -0.837467 0.360001 
-0.513781 -0.778123 0.361322 -0.375178 -0.821628 0.429149 -0.189023 -0.77854 0.598452 
-0.0869131 -0.741161 0.665678 -0.0534093 -0.655666 0.75316 -0.0247223 -0.562303 0.826561 
0.0229487 -0.607628 0.79389 0.124372 -0.724753 0.67769 0.4645 -0.884784 -0.0373792 
0.372791 -0.894761 0.245823 0.522886 -0.841667 -0.134861 0.528479 -0.843019 -0.100141 
-0.548902 -0.754539 0.359691 -0.564684 -0.738188 0.369067 -0.438421 -0.61869 0.651928 
0.530024 -0.841702 -0.103013 0.531902 -0.845739 -0.042501 0.59027 -0.805336 -0.0549142 
-0.609224 -0.702323 0.368222 -0.613247 -0.700345 0.365301 -0.454954 -0.545907 0.703564 
0.633946 -0.773157 -0.0184491 0.557478 -0.601736 0.571954 0.698348 -0.715452 -0.0209342 
-0.723155 -0.587021 0.363943 -0.734987 -0.567926 0.370478 0.775198 -0.631704 0.00426038 
0.864316 -0.501 0.0442318 -0.853543 -0.360815 0.375869 -0.615132 -0.342012 0.710381 
0.666495 0.29437 0.684931 0.883736 -0.465743 0.0457664 0.845994 -0.470746 0.250383 
-0.902203 -0.154609 0.402649 0.686669 0.255824 0.68047 0.569482 0.2993 0.765578 
0.679078 0.228103 0.697726 0.677676 0.263477 0.686538 0.963537 -0.259244 0.0662439 
-0.917426 0.00511485 0.397874 0.998202 -0.0126069 0.0585996 -0.907349 0.197014 0.371354 
-0.581103 0.226495 0.781678 0.100287 0.138889 0.985217 0.967248 0.233154 0.100347 
-0.846022 0.41502 0.334671 -0.721472 0.548068 0.423202 -0.638785 0.431251 0.637163 
0.869578 0.474652 0.136159 0.813875 0.562222 0.146672 0.806733 0.487942 0.333307 
-0.702734 0.567978 0.428445 -0.506461 0.482729 0.714471 0.0990915 0.380749 0.919354 
0.0610129 0.914453 0.400067 0.0296484 0.437508 0.898725 -0.0873986 0.372812 0.923782 
0.394962 0.893875 0.212114 0.682079 0.710903 0.171421 0.599778 0.777237 0.19018 
0.574845 0.663821 0.47843 -0.582848 0.687087 0.433821 -0.580168 0.688846 0.434622 
-0.579159 0.686647 0.439422 -0.311068 0.826768 0.468712 -0.275642 0.685256 0.674126 
-0.0772222 0.889136 0.451081 -0.0442476 0.602181 0.797132 0.131094 0.854665 0.502357 
0.014458 0.624501 0.78089 0.243956 0.883857 0.399101 0.157145 0.710156 0.686283 
0.0925421 0.914396 0.394101 0.212055 0.895393 0.391541 0.217117 0.838953 0.499017 
-0.0743238 0.924976 0.372686 -0.135299 0.922374 0.36183 -0.135596 0.917353 0.37427 
-0.169295 0.928854 0.329498 -0.18249 0.841311 0.508816 -0.121309 0.949006 0.290982 
-0.124972 0.807299 0.576759 -0.0534074 0.96108 0.271059 -0.0217544 0.760314 0.649192 
0.0989514 0.953102 0.286016 0.032433 0.79285 0.608554 0.362407 0.907782 0.21117 
0.235822 0.94825 0.212625 0.19956 0.833718 0.514869 -0.262417 -0.478274 0.838088 
-0.190604 -0.571349 0.798267 -0.0771022 -0.649325 0.756592 -0.0352474 -0.592644 0.804693 
-0.0230585 -0.536832 0.843374 0.0166506 -0.569077 0.822115 0.0955966 -0.656049 0.748639 
0.19611 -0.702172 0.684467 0.349575 -0.725523 0.592801 -0.306018 -0.478924 0.822791 
-0.352329 -0.423822 0.83441 -0.249932 -0.426698 0.869174 -0.194844 -0.360421 0.912213 
-0.0617532 -0.346953 0.935847 0.0541349 -0.356104 0.932877 0.0170579 -0.24837 0.968515 
-0.0715537 -0.249326 0.965773 -0.0348142 -0.332078 0.942609 0.15474 -0.441965 0.883585 
0.419921 -0.710789 0.56431 0.297622 -0.595526 0.74617 0.46021 -0.690874 0.557584 
-0.465887 -0.399637 0.789456 -0.34528 -0.372817 0.861272 -0.314723 -0.463542 0.828299 
-0.275957 -0.266246 0.923559 -0.187713 -0.176035 0.966321 -0.134409 -0.062464 0.988955 
-0.0610938 -0.0170855 0.997986 0.0789999 -0.0616145 0.994969 0.0732884 -0.0304627 0.996845 
-0.101727 -0.0442751 0.993827 -0.110352 -0.0774836 0.990868 -0.0195322 -0.154086 0.987864 
0.145699 -0.28327 0.947908 0.554795 -0.59795 0.578497 0.332643 -0.413035 0.847792 
0.554874 -0.597601 0.578781 0.607437 -0.515619 0.604282 -0.467435 -0.395714 0.790516 
-0.462679 -0.390757 0.795762 -0.213767 -0.3794 0.9002 -0.0614839 -0.208854 0.976012 
-0.042295 -0.0630812 0.997112 -0.038674 0.0849504 0.995634 -0.0647847 0.188548 0.979925 
0.0407239 0.0561101 0.997594 0.0503279 0.0220852 0.998489 -0.139247 0.0526769 0.988856 
-0.152243 0.0515686 0.986997 -0.04304 -0.0118229 0.999003 0.0171761 -0.0537673 0.998406 
0.095703 -0.210438 0.972912 0.370766 -0.34668 0.861595 0.633341 -0.48168 0.605692 
0.580633 -0.462341 0.670154 -0.485517 -0.246756 0.83868 -0.539872 -0.162352 0.825942 
-0.402157 -0.188093 0.896042 -0.161768 -0.0817404 0.983438 -0.00876009 -0.0918272 0.995736 
0.114045 -0.0469642 0.992365 0.122706 0.0596739 0.990647 -0.0786267 0.165639 0.983047 
-0.103072 -0.0131798 0.994587 0.0682473 0.101348 0.992507 -0.0717202 0.0123149 0.997349 
-0.175299 0.143915 0.97394 -0.127599 0.0698805 0.989361 -0.0506154 -0.0326447 0.998185 
0.0679144 -0.0536143 0.99625 0.198712 -0.108931 0.973985 0.633687 -0.356392 0.686604 
0.479118 -0.296007 0.826332 0.692321 -0.295121 0.65848 -0.548216 -0.131043 0.826006 
-0.531068 -0.128023 0.837602 -0.290314 -0.0859058 0.953068 -0.090102 -0.0163952 0.995798 
-0.00785288 0.0175193 0.999816 0.11127 -0.0050004 0.993778 0.152822 0.0313766 0.987756 
-0.097274 0.0526756 0.993863 0.0406233 -0.110769 0.993016 0.0708325 0.0803267 0.994249 
-0.102843 -0.0222547 0.994449 -0.0925057 0.128957 0.987326 -0.216164 0.0720278 0.973697 
-0.110577 0.0167272 0.993727 0.0199387 -0.0141279 0.999701 0.0883278 -0.0816044 0.992743 
0.394843 -0.164858 0.903837 0.712841 -0.249206 0.655557 0.673159 -0.241338 0.699009 
-0.550345 0.0384425 0.834052 -0.554923 0.133082 0.821188 -0.532748 0.0300372 0.84574 
-0.284498 0.0608835 0.956741 -0.0835829 0.0374584 0.995797 0.00868944 0.00796922 0.999931 
0.130155 0.0505827 0.990202 0.162807 0.0423894 0.985747 -0.132849 0.0181454 0.99097 
-0.101544 0.221511 0.969857 0.105738 0.141883 0.98422 0.126792 0.146215 0.981094 
0.0387743 0.277415 0.959967 -0.12015 0.0350548 0.992137 -0.236747 0.0580321 0.969837 
-0.134155 0.0698792 0.988494 -0.0256094 0.00671254 0.999649 0.0409584 0.0600396 0.997355 
0.364955 0.071851 0.928249 0.750573 0.0150541 0.660616 0.580799 0.0278126 0.813572 
-0.519991 0.218377 0.825785 -0.207831 0.162369 0.964594 -0.139353 0.0572372 0.988587 
0.00460213 0.0867098 0.996223 0.142214 0.0334789 0.98927 0.143678 0.0175905 0.989468 
-0.00990196 -0.03139 0.999458 0.100152 0.14829 0.98386 0.0814135 0.240342 0.967268 
0.0343078 0.113365 0.992961 0.0502544 0.104216 0.993284 -0.195419 0.029447 0.980278 
-0.223314 -0.00713995 0.97472 -0.182011 0.0628533 0.981286 -0.161053 0.0662389 0.98472 
0.00900908 0.13487 0.990822 0.150369 0.104087 0.983135 0.3569 0.229059 0.905624 
0.637359 0.282216 0.717027 0.638138 0.300157 0.709003 0.622593 0.275244 0.732543 
-0.378658 0.219709 0.899081 -0.385835 0.24239 0.890157 -0.366084 0.197614 0.909358 
-0.179284 0.222619 0.958279 -0.0178481 0.147726 0.988867 0.061615 0.150989 0.986613 
0.116651 0.092118 0.988892 0.0967073 0.35208 0.930961 0.0814164 0.0857977 0.99298 
0.0552213 0.306939 0.950126 0.0831408 0.19378 0.977516 -0.06492 0.16177 0.984691 
-0.047452 0.026144 0.998531 -0.15099 0.014184 0.988434 -0.150799 0.0751432 0.985704 
-0.159728 0.122553 0.979524 -0.0678687 0.193737 0.978703 0.0202486 0.222173 0.974797 
0.176995 0.267109 0.947273 0.598805 0.409308 0.688403 0.480074 0.505085 0.717229 
0.363558 0.344855 0.86539 -0.205427 0.367688 0.906976 -0.189268 0.369701 0.90967 
-0.187129 0.360471 0.913807 -0.0598939 0.453489 0.889247 -0.0652817 0.374248 0.925028 
0.0207376 0.415929 0.909161 0.0701809 0.339714 0.937907 0.0961465 0.351248 0.931333 
0.0996093 0.360141 0.927565 0.0871329 0.24814 0.964797 -0.119239 0.343143 0.931684 
-0.151133 0.37919 0.912893 -0.144927 0.331211 0.93236 -0.120445 0.484429 0.866499 
-0.113912 0.294765 0.948756 -0.0591837 0.527465 0.847513 -0.0926319 0.322517 0.94202 
-0.00249131 0.610884 0.791716 -0.0340877 0.386275 0.921754 0.132679 0.61111 0.780347 
0.0751733 0.450282 0.889716 0.403366 0.575651 0.711281 0.301201 0.649669 0.698003 
0.269154 0.488085 0.830258 
