# vtk DataFile Version 4.2
vtk output
ASCII
DATASET POLYDATA
POINTS 538 float
-1.54667 -41.7356 -13.5362 6.18296 -41.7356 -13.4884 -17.0059 -34.0059 -14.4467 
-9.2763 -34.0059 -15.7117 -1.54667 -34.0059 -16.7082 6.18296 -34.0059 -16.5595 
13.9126 -34.0059 -16.0277 21.6422 -34.0059 -15.2064 29.3719 -34.0059 -14.9304 
-24.7356 -26.2763 -14.2516 -17.0059 -26.2763 -15.839 -9.2763 -26.2763 -16.9926 
-1.54667 -26.2763 -17.9235 6.18296 -26.2763 -17.3776 13.9126 -26.2763 -16.6462 
21.6422 -26.2763 -16.3688 29.3719 -26.2763 -17.0645 37.1015 -26.2763 -15.1114 
-24.7356 -18.5467 -15.0571 -17.0059 -18.5467 -16.1331 -9.2763 -18.5467 -16.7119 
-1.54667 -18.5467 -17.5213 6.18296 -18.5467 -16.4164 13.9126 -18.5467 -15.8864 
21.6422 -18.5467 -16.315 29.3719 -18.5467 -17.1887 37.1015 -18.5467 -17.6939 
44.8311 -18.5467 -15.1987 -32.4652 -10.817 -13.9242 -24.7356 -10.817 -15.1946 
-17.0059 -10.817 -16.2261 -9.2763 -10.817 -16.6237 -1.54667 -10.817 -18.3332 
6.18296 -10.817 -16.7046 13.9126 -10.817 -14.5267 21.6422 -10.817 -16.1097 
29.3719 -10.817 -17.5328 37.1015 -10.817 -17.6448 44.8311 -10.817 -16.1293 
-32.4652 -3.0874 -14.1603 -24.7356 -3.0874 -15.1516 -17.0059 -3.0874 -16.3678 
-9.2763 -3.0874 -18.5952 -1.54667 -3.0874 -15.981 6.18296 -3.0874 -20.3296 
13.9126 -3.0874 -16.5295 21.6422 -3.0874 -16.5423 29.3719 -3.0874 -17.7786 
37.1015 -3.0874 -18.0355 44.8311 -3.0874 -16.889 -32.4652 4.64223 -14.328 
-24.7356 4.64223 -15.1887 -17.0059 4.64223 -16.5444 -9.2763 4.64223 -20.2172 
-1.54667 4.64223 -15.9993 6.18296 4.64223 -18.1212 13.9126 4.64223 -17.5692 
21.6422 4.64223 -17.1857 29.3719 4.64223 -18.0109 37.1015 4.64223 -18.1759 
44.8311 4.64223 -17.191 -32.4652 12.3719 -14.4722 -24.7356 12.3719 -15.2699 
-17.0059 12.3719 -15.8163 -9.2763 12.3719 -17.3316 -1.54667 12.3719 -18.5262 
6.18296 12.3719 -20.2858 13.9126 12.3719 -19.1813 21.6422 12.3719 -18.1489 
29.3719 12.3719 -18.2748 37.1015 12.3719 -17.8626 44.8311 12.3719 -16.0017 
-32.4652 20.1015 -13.8931 -24.7356 20.1015 -15.5469 -17.0059 20.1015 -15.9597 
-9.2763 20.1015 -15.7262 -1.54667 20.1015 -17.0406 6.18296 20.1015 -19.4187 
13.9126 20.1015 -19.7065 21.6422 20.1015 -19.182 29.3719 20.1015 -18.808 
37.1015 20.1015 -18.3729 44.8311 20.1015 -15.0086 -32.4652 27.8311 -13.4966 
-24.7356 27.8311 -15.47 -17.0059 27.8311 -16.3693 -9.2763 27.8311 -16.3817 
-1.54667 27.8311 -17.3465 6.18296 27.8311 -18.4838 13.9126 27.8311 -19.1499 
21.6422 27.8311 -19.0197 29.3719 27.8311 -17.8657 37.1015 27.8311 -15.4736 
-24.7356 35.5608 -13.8656 -17.0059 35.5608 -16.2771 -9.2763 35.5608 -16.3999 
-1.54667 35.5608 -17.1978 6.18296 35.5608 -17.7382 13.9126 35.5608 -17.7095 
21.6422 35.5608 -17.046 29.3719 35.5608 -15.1183 -17.0059 43.2904 -14.0898 
-9.2763 43.2904 -14.8527 -1.54667 43.2904 -15.6963 6.18296 43.2904 -15.6751 
13.9126 43.2904 -14.7067 21.6422 43.2904 -13.6951 -1.54667 -42.3462 -13.0449 
6.18296 -42.2781 -13.0449 -24.7356 -41.7356 -7.94176 -17.0059 -37.1877 -13.0449 
-17.0059 -41.7356 -10.6402 -5.86935 -41.7356 -13.0449 -9.2763 -40.8103 -13.0449 
-9.2763 -41.7356 -12.5739 10.5073 -41.7356 -13.0449 13.9126 -41.0261 -13.0449 
13.9126 -41.7356 -12.5849 21.6422 -38.5724 -13.0449 21.6422 -41.7356 -11.0697 
29.3719 -36.9539 -13.0449 29.3719 -41.7356 -7.65256 -40.1948 -34.0059 -5.61012 
-32.4652 -34.0059 -9.25176 -23.4681 -34.0059 -13.0449 -24.7356 -32.6573 -13.0449 
-24.7356 -34.0059 -12.7384 34.5793 -34.0059 -13.0449 37.1015 -31.377 -13.0449 
37.1015 -34.0059 -11.5977 -40.1948 -26.2763 -8.30961 -29.1005 -26.2763 -13.0449 
-32.4652 -26.2763 -11.9928 42.6603 -26.2763 -13.0449 44.8311 -24.3105 -13.0449 
44.8311 -26.2763 -11.8902 -47.9245 -18.5467 -6.38548 -40.1948 -18.5467 -10.2444 
-32.3518 -18.5467 -13.0449 -32.4652 -18.2981 -13.0449 -32.4652 -18.5467 -13.015 
48.2487 -18.5467 -13.0449 52.5608 -18.5467 -7.3344 -47.9245 -10.817 -6.85605 
-35.3542 -10.817 -13.0449 -40.1948 -10.817 -11.3779 50.3182 -10.817 -13.0449 
52.5608 -10.817 -10.9521 -47.9245 -3.0874 -7.94996 -37.6064 -3.0874 -13.0449 
-40.1948 -3.0874 -12.4089 52.1877 -3.0874 -13.0449 52.5608 -3.0874 -12.7485 
-47.9245 4.64223 -7.45701 -38.8537 4.64223 -13.0449 -40.1948 4.64223 -12.729 
52.1505 4.64223 -13.0449 52.5608 4.64223 -12.6946 -47.9245 12.3719 -6.41844 
-37.2571 12.3719 -13.0449 -40.1948 12.3719 -11.9566 49.8631 12.3719 -13.0449 
52.5608 12.3719 -10.2978 -34.5978 20.1015 -13.0449 -40.1948 20.1015 -10.6404 
48.5236 20.1015 -13.0449 44.8311 24.6888 -13.0449 -33.3377 27.8311 -13.0449 
-40.1948 27.8311 -7.91488 -32.4652 29.4152 -13.0449 41.8027 27.8311 -13.0449 
37.1015 33.0347 -13.0449 44.8311 27.8311 -10.3149 -27.0425 35.5608 -13.0449 
-32.4652 35.5608 -10.6614 -24.7356 37.9402 -13.0449 34.2563 35.5608 -13.0449 
29.3719 38.8111 -13.0449 37.1015 35.5608 -11.015 -19.9564 43.2904 -13.0449 
-24.7356 43.2904 -10.479 -17.0059 44.9599 -13.0449 -9.2763 46.5972 -13.0449 
-1.54667 47.9374 -13.0449 6.18296 47.4143 -13.0449 13.9126 45.5634 -13.0449 
23.1794 43.2904 -13.0449 21.6422 44.2355 -13.0449 29.3719 43.2904 -7.77539 
-9.2763 51.02 -9.1317 -1.54667 51.02 -9.92749 6.18296 51.02 -8.87438 
13.9126 51.02 -5.86416 -24.7356 -44.4366 -5.31527 -17.0059 -47.094 -5.31527 
-9.2763 -48.1758 -5.31527 -9.2763 -49.4652 2.05048 -1.54667 -48.595 -5.31527 
-1.54667 -49.4652 1.93946 6.18296 -48.3775 -5.31527 13.9126 -47.7139 -5.31527 
21.6422 -46.0439 -5.31527 29.3719 -43.3737 -5.31527 -40.1948 -34.403 -5.31527 
-31.106 -41.7356 -5.31527 -32.4652 -40.8241 -5.31527 -32.4652 -41.7356 -4.16435 
32.9358 -41.7356 -5.31527 37.1015 -39.5634 -5.31527 -40.5734 -34.0059 -5.31527 
43.9364 -34.0059 -5.31527 44.8311 -33.1064 -5.31527 -44.3073 -26.2763 -5.31527 
-47.9245 -21.1569 -5.31527 -47.9245 -26.2763 -1.79772 49.9374 -26.2763 -5.31527 
52.5608 -20.935 -5.31527 -49.027 -18.5467 -5.31527 53.6532 -18.5467 -5.31527 
-49.6351 -10.817 -5.31527 55.8262 -10.817 -5.31527 -50.6165 -3.0874 -5.31527 
57.1734 -3.0874 -5.31527 -50.3113 4.64223 -5.31527 56.9333 4.64223 -5.31527 
-48.9344 12.3719 -5.31527 -47.9245 16.4181 -5.31527 55.2195 12.3719 -5.31527 
52.5608 19.4302 -5.31527 -46.932 20.1015 -5.31527 -47.9245 20.1015 -3.61817 
52.2864 20.1015 -5.31527 -42.7696 27.8311 -5.31527 -40.1948 32.3187 -5.31527 
47.8231 27.8311 -5.31527 44.8311 31.6447 -5.31527 44.8311 27.8311 2.06675 
-38.2742 35.5608 -5.31527 -40.1948 35.5608 2.33883 -32.4652 41.7277 -5.31527 
41.194 35.5608 -5.31527 37.1015 39.212 -5.31527 -30.7031 43.2904 -5.31527 
-24.7356 47.3391 -5.31527 -17.0059 50.88 -5.31527 21.6422 48.4092 -5.31527 
31.385 43.2904 -5.31527 29.3719 44.5525 -5.31527 29.3719 43.2904 -2.27672 
-16.5787 51.02 -5.31527 -9.2763 53.1003 -5.31527 -9.2763 51.02 0.470596 
-1.54667 53.3255 -5.31527 -1.54667 51.02 0.554847 6.18296 52.6958 -5.31527 
6.18296 51.02 -1.3157 14.6281 51.02 -5.31527 13.9126 51.2821 -5.31527 
13.9126 51.02 -4.70165 -9.2763 -49.5182 2.41436 -1.54667 -49.5135 2.41436 
-32.4652 -44.478 2.41436 -24.7356 -47.2381 2.41436 -9.72928 -49.4652 2.41436 
-17.0059 -48.614 2.41436 -9.2763 -49.4652 2.571 0.672878 -49.4652 2.41436 
-1.54667 -49.4652 2.55876 6.18296 -49.3445 2.41436 13.9126 -48.8239 2.41436 
21.6422 -47.0432 2.41436 29.3719 -44.1551 2.41436 -37.2095 -41.7356 2.41436 
-40.1948 -39.6 2.41436 33.8202 -41.7356 2.41436 29.3719 -41.7356 8.05284 
37.1015 -39.6463 2.41436 -46.2326 -34.0059 2.41436 -47.9245 -31.3946 2.41436 
43.3049 -34.0059 2.41436 44.8311 -32.2346 2.41436 -50.5596 -26.2763 2.41436 
48.9655 -26.2763 2.41436 44.8311 -26.2763 9.63209 52.5608 -19.2818 2.41436 
-53.4922 -18.5467 2.41436 52.9167 -18.5467 2.41436 52.5608 -18.5467 3.06231 
-55.3333 -10.817 2.41436 54.7783 -10.817 2.41436 52.5608 -10.817 6.14548 
-55.5401 -3.0874 2.41436 55.6804 -3.0874 2.41436 52.5608 -3.0874 6.95428 
-54.8533 4.64223 2.41436 55.3049 4.64223 2.41436 52.5608 4.64223 6.36106 
-53.4905 12.3719 2.41436 44.8311 12.3719 9.6648 53.0411 12.3719 2.41436 
52.5608 13.5681 2.41436 52.5608 12.3719 3.05455 -50.4919 20.1015 2.41436 
-47.9245 25.0333 2.41436 49.6371 20.1015 2.41436 44.8311 27.6058 2.41436 
44.8311 20.1015 7.19033 -46.3285 27.8311 2.41436 44.6155 27.8311 2.41436 
37.1015 27.8311 8.1019 -40.2124 35.5608 2.41436 -40.1948 35.5794 2.41436 
-40.1948 35.5608 2.46302 -32.4652 41.9072 2.41436 13.9126 35.5608 9.7875 
21.6422 35.5608 8.68952 29.3719 40.6507 2.41436 29.3719 35.5608 6.99556 
37.3595 35.5608 2.41436 37.1015 35.7906 2.41436 37.1015 35.5608 2.64572 
-29.9947 43.2904 2.41436 -24.7356 46.015 2.41436 -24.7356 43.2904 6.41486 
-17.0059 48.5402 2.41436 -17.0059 43.2904 8.46752 -9.2763 50.0388 2.41436 
-9.2763 43.2904 8.60511 -1.54667 49.9618 2.41436 -1.54667 43.2904 7.93763 
6.18296 48.7539 2.41436 6.18296 43.2904 7.3465 13.9126 47.5568 2.41436 
13.9126 43.2904 6.4314 25.3101 43.2904 2.41436 21.6422 45.5125 2.41436 
21.6422 43.2904 4.30407 -32.4652 -42.8843 10.144 -24.7356 -44.1867 10.144 
-17.0059 -45.4594 10.144 -9.2763 -45.8461 10.144 -1.54667 -45.933 10.144 
6.18296 -45.9764 10.144 13.9126 -45.2776 10.144 21.6422 -43.3395 10.144 
-34.9461 -41.7356 10.144 -40.1948 -38.4081 10.144 -32.4652 -41.7356 11.5187 
-24.7356 -41.7356 13.0651 -17.0059 -41.7356 13.5241 -9.2763 -41.7356 13.3349 
-1.54667 -41.7356 13.447 6.18296 -41.7356 13.6182 13.9126 -41.7356 13.1779 
26.2779 -41.7356 10.144 21.6422 -41.7356 11.9056 29.3719 -40.2836 10.144 
37.1015 -35.201 10.144 -45.1195 -34.0059 10.144 -47.9245 -30.8866 10.144 
-40.1948 -34.0059 14.3902 -32.4652 -34.0059 16.6656 -24.7356 -34.0059 17.6326 
-17.0059 -34.0059 16.6295 -9.2763 -34.0059 16.1181 -1.54667 -34.0059 16.0647 
6.18296 -34.0059 16.2549 13.9126 -34.0059 16.3816 21.6422 -34.0059 16.228 
29.3719 -34.0059 14.1261 38.3446 -34.0059 10.144 37.1015 -34.0059 11.2151 
-50.5729 -26.2763 10.144 -47.9245 -26.2763 13.5029 -40.1948 -26.2763 17.1918 
-17.0059 -26.2763 17.7739 -9.2763 -26.2763 17.0014 -1.54667 -26.2763 16.7124 
6.18296 -26.2763 16.837 13.9126 -26.2763 17.3318 21.6422 -26.2763 17.7588 
29.3719 -26.2763 16.6773 44.3122 -26.2763 10.144 37.1015 -26.2763 14.1629 
44.8311 -25.1605 10.144 -53.1064 -18.5467 10.144 -47.9245 -18.5467 15.0899 
[...]
POINT_DATA 538
SCALARS ImageScalars float
LOOKUP_TABLE default
0 0 0 0 0 0 0 0 0 
0 0 0 0 0 0 0 0 0 
0 0 0 0 0 0 0 0 0 
0 0 0 0 0 0 0 0 0 
0 0 0 0 0 0 0 0 0 
0 0 0 0 0 0 0 0 0 
0 0 0 0 0 0 0 0 0 
0 0 0 0 0 0 0 0 0 
0 0 0 0 0 0 0 0 0 
0 0 0 0 0 0 0 0 0 
0 0 0 0 0 0 0 0 0 
0 0 0 0 0 0 0 0 0 
0 0 0 0 0 0 0 0 0 
0 0 0 0 0 0 0 0 0 
0 0 0 0 0 0 0 0 0 
0 0 0 0 0 0 0 0 0 
0 0 0 0 0 0 0 0 0 
0 0 0 0 0 0 0 0 0 
0 0 0 0 0 0 0 0 0 
0 0 0 0 0 0 0 0 0 
0 0 0 0 0 0 0 0 0 
0 0 0 0 0 0 0 0 0 
0 0 0 0 0 0 0 0 0 
0 0 0 0 0 0 0 0 0 
0 0 0 0 0 0 0 0 0 
0 0 0 0 0 0 0 0 0 
0 0 0 0 0 0 0 0 0 
0 0 0 0 0 0 0 0 0 
0 0 0 0 0 0 0 0 0 
0 0 0 0 0 0 0 0 0 
0 0 0 0 0 0 0 0 0 
0 0 0 0 0 0 0 0 0 
0 0 0 0 0 0 0 0 0 
0 0 0 0 0 0 0 0 0 
0 0 0 0 0 0 0 0 0 
0 0 0 0 0 0 0 0 0 
0 0 0 0 0 0 0 0 0 
0 0 0 0 0 0 0 0 0 
0 0 0 0 0 0 0 0 0 
0 0 0 0 0 0 0 0 0 
0 0 0 0 0 0 0 0 0 
0 0 0 0 0 0 0 0 0 
0 0 0 0 0 0 0 0 0 
0 0 0 0 0 0 0 0 0 
0 0 0 0 0 0 0 0 0 
0 0 0 0 0 0 0 0 0 
0 0 0 0 0 0 0 0 0 
0 0 0 0 0 0 0 0 0 
0 0 0 0 0 0 0 0 0 
0 0 0 0 0 0 0 0 0 
0 0 0 0 0 0 0 0 0 
0 0 0 0 0 0 0 0 0 
0 0 0 0 0 0 0 0 0 
0 0 0 0 0 0 0 0 0 
0 0 0 0 0 0 0 0 0 
0 0 0 0 0 0 0 0 0 
0 0 0 0 0 0 0 0 0 
0 0 0 0 0 0 0 0 0 
0 0 0 0 0 0 0 0 0 
0 0 0 0 0 0 0 
NORMALS Normals float
0.0497245 0.563537 0.824593 -0.0508264 0.56868 0.820987 0.183993 0.285656 0.940504 
0.135735 0.26147 0.95562 0.0533007 0.26635 0.962402 -0.0457516 0.232948 0.971412 
-0.0796428 0.235283 0.968658 -0.0769451 0.297445 0.951633 -0.162877 0.415292 0.894988 
0.2349 0.143736 0.961334 0.176683 0.101921 0.978977 0.132899 0.0609789 0.989252 
0.0265137 0.048086 0.998491 -0.0872956 -0.0118088 0.996112 -0.0617078 -0.00756786 0.998066 
0.0223456 0.0644064 0.997674 -0.0713632 0.156818 0.985046 -0.260215 0.312205 0.913683 
0.194891 0.0600056 0.978988 0.105185 0.0244773 0.994151 0.0894756 -0.0236073 0.995709 
-0.0185705 0.0218096 0.99959 -0.109467 -0.0492834 0.992768 -0.00657302 -0.143491 0.98963 
0.0844082 -0.0154774 0.996311 0.085985 0.029484 0.99586 -0.129124 0.149143 0.980349 
-0.42142 0.203471 0.883745 0.230562 0.070331 0.970513 0.147482 0.00587541 0.989047 
0.0916779 0.0144335 0.995684 0.125795 0.116709 0.985167 0.0522597 -0.058559 0.996915 
-0.302582 0.248007 0.920292 0.0111371 0.00314916 0.999933 0.200428 0.0150459 0.979593 
0.0929191 0.0395503 0.994888 -0.0832219 0.0222367 0.996283 -0.325265 0.109788 0.939228 
0.170316 0.0257258 0.985054 0.135811 -0.000365599 0.990735 0.225549 0.020078 0.974025 
0.0139632 0.231432 0.972751 0.0608731 -0.177035 0.98232 0.0340601 0.0177649 0.999262 
-0.21849 0.226767 0.949125 0.0820052 0.0668125 0.99439 0.0946535 0.0304837 0.995043 
-0.0525009 0.0343637 0.998029 -0.272121 0.0646537 0.960089 0.155698 0.020103 0.9876 
0.132756 0.00758584 0.99112 0.313697 -0.0380984 0.948758 0.0341782 -0.0488922 0.998219 
-0.160811 0.184841 0.969522 0.0680996 0.0337248 0.997108 -0.0592085 0.151907 0.98662 
0.0310946 0.102255 0.994272 0.0635643 0.0322169 0.997458 -0.0461816 -0.0108967 0.998874 
-0.274972 -0.053341 0.959971 0.198017 -0.0251884 0.979875 0.0865833 0.0224093 0.995993 
0.115659 -0.0337216 0.992716 0.180849 -0.296285 0.937821 0.184753 0.0123262 0.982708 
0.0346317 0.0685991 0.997043 -0.139167 0.131946 0.981439 -0.0527089 0.128928 0.990252 
-0.0181466 0.0503691 0.998566 -0.132735 0.00796334 0.99112 -0.357087 -0.137918 0.923833 
0.283472 -0.0649269 0.95678 0.126752 0.0126905 0.991853 0.0111373 0.0353413 0.999313 
0.0699447 -0.038969 0.996789 0.234097 -0.0651556 0.970027 0.174812 -0.115654 0.977786 
-0.016307 -0.00456217 0.999857 -0.0573117 0.0553216 0.996822 -0.0496691 -0.0308498 0.998289 
-0.24079 -0.125602 0.962416 -0.444523 -0.231341 0.865379 0.391647 -0.160681 0.905977 
0.183155 -0.0985558 0.978131 0.0630535 0.0213353 0.997782 0.0628497 0.0434999 0.997075 
0.134797 0.0103332 0.990819 0.115043 -0.103409 0.987963 0.0346126 -0.125664 0.991469 
-0.0862319 -0.134228 0.987191 -0.198325 -0.199892 0.959537 -0.362697 -0.332485 0.870577 
0.300213 -0.26145 0.917342 0.163245 -0.159454 0.973615 0.0566823 -0.0869514 0.994599 
0.0857055 -0.0962859 0.991657 0.0330039 -0.16143 0.986332 -0.0442295 -0.252384 0.966616 
-0.1417 -0.315327 0.938344 -0.28075 -0.445572 0.850085 0.203491 -0.421416 0.883742 
0.1025 -0.330896 0.938084 0.0509853 -0.319803 0.946111 -0.0574644 -0.386105 0.920663 
-0.118762 -0.492633 0.862095 -0.249988 -0.556075 0.792645 0.0454064 0.589507 0.806486 
-0.0481234 0.592941 0.803807 0.307178 0.640701 0.703665 0.207263 0.378924 0.90192 
0.241932 0.57501 0.781558 0.106176 0.541978 0.833659 0.149862 0.489579 0.858984 
0.149907 0.534899 0.831511 -0.0873016 0.570119 0.81691 -0.114188 0.539071 0.834484 
-0.117147 0.581717 0.804911 -0.146191 0.465562 0.872857 -0.210077 0.647533 0.732508 
-0.20857 0.543382 0.813164 -0.336792 0.818498 0.465438 0.543066 0.453757 0.70653 
0.401764 0.389185 0.828927 0.269117 0.327612 0.905675 0.277881 0.301282 0.912146 
0.288767 0.337214 0.896047 -0.331665 0.477296 0.813749 -0.364374 0.436277 0.822736 
-0.446331 0.548297 0.707219 0.512545 0.282983 0.81069 0.272018 0.17795 0.945695 
0.3155 0.214828 0.924288 -0.441299 0.397193 0.804669 -0.493562 0.371451 0.786397 
-0.556448 0.451892 0.697251 0.633186 0.198304 0.748165 0.406029 0.157027 0.900268 
0.293637 0.11353 0.949151 0.292993 0.112973 0.949417 0.29504 0.114449 0.948606 
-0.582165 0.254811 0.772111 -0.882487 0.343328 0.321469 0.628614 0.083314 0.773242 
0.2756 0.096657 0.956401 0.372979 0.128511 0.918897 -0.603408 0.158101 0.781603 
-0.784321 0.20652 0.58497 0.635421 0.0269595 0.771695 0.261497 0.0606481 0.963297 
0.321009 0.0772538 0.94392 -0.661109 0.0677482 0.747225 -0.69241 0.069312 0.718167 
0.653856 -0.0698249 0.75339 0.334493 -0.0144176 0.942288 0.376265 -0.0233257 0.926218 
-0.675453 -0.088441 0.73208 -0.712063 -0.0926077 0.695981 0.705788 -0.157903 0.690602 
0.316753 -0.084674 0.944721 0.408139 -0.117006 0.905391 -0.613815 -0.134231 0.777955 
-0.842828 -0.213475 0.494033 0.339854 -0.0971257 0.935449 0.514781 -0.204078 0.832678 
-0.612375 -0.291885 0.734711 -0.541765 -0.38242 0.748495 0.421636 -0.176473 0.889427 
0.662621 -0.353081 0.660505 0.414028 -0.206256 0.886589 -0.523395 -0.421396 0.740597 
-0.452891 -0.490465 0.744536 -0.708344 -0.540711 0.453741 0.354117 -0.306048 0.883706 
0.530371 -0.432457 0.729169 0.343928 -0.338731 0.875771 -0.40916 -0.534506 0.739521 
-0.359705 -0.566562 0.741363 -0.554825 -0.649833 0.519505 0.292663 -0.455681 0.840656 
0.487869 -0.598719 0.635232 0.228321 -0.504544 0.832649 0.12259 -0.501594 0.856373 
0.0287742 -0.591211 0.806003 -0.103557 -0.612943 0.783311 -0.127991 -0.60273 0.787613 
-0.288814 -0.591066 0.753145 -0.263536 -0.603896 0.752235 -0.501138 -0.838575 0.213663 
0.179642 -0.893731 0.411065 -0.00335024 -0.903198 0.429212 -0.144878 -0.943129 0.299194 
-0.267312 -0.961632 0.061704 0.319864 0.757086 0.569657 0.203283 0.872787 0.443756 
0.0795499 0.917033 0.390796 0.0586353 0.99541 -0.075636 0.0108348 0.932192 0.361802 
-0.00991621 0.996001 -0.0887935 -0.0492927 0.929764 0.364842 -0.143964 0.919053 0.3669 
-0.244808 0.903424 0.351986 -0.360926 0.868615 0.33947 0.549619 0.467212 0.692555 
0.427905 0.676253 0.599649 0.446857 0.647243 0.617572 0.460388 0.717147 0.523205 
-0.440793 0.844685 0.303659 -0.533359 0.80176 0.269647 0.550959 0.45896 0.696994 
-0.697404 0.689886 0.194124 -0.718392 0.670243 0.186246 0.602213 0.347467 0.718753 
0.661354 0.253492 0.705941 0.747822 0.41871 0.515213 -0.837104 0.514758 0.185149 
-0.898079 0.400384 0.18206 0.688388 0.204577 0.695895 -0.914193 0.355981 0.193722 
0.687776 0.0842101 0.721022 -0.960912 0.218357 0.170198 0.73143 0.0287947 0.681309 
-0.986614 0.0706973 0.146952 0.733088 -0.0819871 0.675174 -0.984856 -0.124149 0.12102 
0.740118 -0.175132 0.649272 0.756173 -0.233245 0.611392 -0.953411 -0.285953 0.0961177 
-0.911277 -0.411792 -0.00148439 0.760441 -0.284614 0.583716 0.815283 -0.323038 0.480582 
-0.905622 -0.424004 -0.00835249 0.725441 -0.404357 0.556983 0.732685 -0.467379 0.494702 
-0.818107 -0.573894 0.0366949 -0.767629 -0.640768 0.0127481 -0.662589 -0.565772 -0.490793 
0.731154 -0.523702 0.437207 0.718866 -0.693743 -0.044185 0.618625 -0.725254 0.302175 
-0.702423 -0.71173 0.00651814 -0.635085 -0.772177 0.0202541 0.594596 -0.7607 0.260367 
0.507754 -0.841054 0.186585 0.34187 -0.932296 0.118103 -0.395219 -0.917793 0.0381804 
-0.534764 -0.844749 0.0206337 -0.502506 -0.863628 0.0404326 -0.522121 -0.830512 -0.194012 
0.331634 -0.93636 0.115105 0.158695 -0.982098 0.101484 0.122809 -0.890397 -0.438306 
-0.0258102 -0.998246 0.0532787 -0.0549927 -0.877412 -0.476574 -0.132224 -0.990949 0.0231501 
-0.15512 -0.934528 -0.320305 -0.280853 -0.959434 0.0246624 -0.269611 -0.962644 0.0250369 
-0.2652 -0.964098 -0.0135353 0.0578156 0.99375 -0.0954902 -0.011082 0.993268 -0.115309 
0.427702 0.899535 0.0889238 0.254026 0.967108 -0.0131178 0.0628128 0.993442 -0.0955403 
0.144282 0.98543 -0.0900536 0.0577242 0.992827 -0.104705 -0.0203072 0.99338 -0.113069 
-0.010938 0.99231 -0.123291 -0.0436694 0.993209 -0.107833 -0.153152 0.981847 -0.111895 
-0.275405 0.953762 -0.120374 -0.424255 0.894728 -0.139531 0.552483 0.821282 0.14233 
0.636434 0.751568 0.173487 -0.524063 0.832693 -0.178831 -0.423677 0.775686 -0.467771 
-0.593726 0.776712 -0.210256 0.7746 0.597225 0.208127 0.806125 0.540995 0.239765 
-0.716416 0.652426 -0.24716 -0.747397 0.610577 -0.261903 0.85692 0.437276 0.272904 
-0.828547 0.486114 -0.277854 -0.65957 0.402894 -0.634542 -0.884383 0.358345 -0.29909 
0.934533 0.266767 0.235548 -0.890046 0.344318 -0.298769 -0.878844 0.342389 -0.332269 
0.960053 0.133893 0.245705 -0.925888 0.17227 -0.336234 -0.841225 0.14191 -0.52173 
0.976071 -0.0298024 0.2154 -0.927796 0.0330335 -0.371622 -0.768736 0.00422957 -0.639552 
0.970949 -0.126824 0.202912 -0.904914 -0.158677 -0.394909 -0.746389 -0.178468 -0.641134 
0.948062 -0.263253 0.178541 -0.506312 -0.252794 -0.824466 -0.823798 -0.317111 -0.469891 
-0.815955 -0.345645 -0.463409 -0.805297 -0.316374 -0.501402 0.898632 -0.406159 0.165818 
0.863935 -0.48821 0.123559 -0.765739 -0.447323 -0.462111 -0.652015 -0.555536 -0.516 
-0.507842 -0.3704 -0.777753 0.838721 -0.537998 0.0842939 -0.648116 -0.558773 -0.517415 
-0.428449 -0.428369 -0.79557 0.717884 -0.694484 -0.04832 0.717542 -0.694822 -0.0485348 
0.7172 -0.694998 -0.0510024 0.521975 -0.824339 -0.219107 -0.139317 -0.363387 -0.921163 
-0.144548 -0.43101 -0.890694 -0.442535 -0.669114 -0.597034 -0.311431 -0.550068 -0.774878 
-0.548661 -0.632671 -0.546533 -0.543858 -0.636183 -0.547257 -0.540682 -0.629396 -0.558144 
0.464565 -0.843019 -0.271107 0.361088 -0.858438 -0.364281 0.279086 -0.799431 -0.531998 
0.234094 -0.833875 -0.499852 0.0896766 -0.701213 -0.707289 0.0874425 -0.78422 -0.614291 
-0.0304658 -0.61641 -0.786836 -0.0624466 -0.761347 -0.645331 -0.0641411 -0.565523 -0.822235 
-0.12993 -0.733984 -0.666622 -0.0869469 -0.557962 -0.825299 -0.157898 -0.774846 -0.612112 
-0.160949 -0.524822 -0.835857 -0.41894 -0.671303 -0.611426 -0.339578 -0.723153 -0.601445 
-0.339952 -0.624691 -0.702989 0.286203 0.830236 -0.478326 0.151206 0.811309 -0.564725 
0.0848749 0.788161 -0.609589 0.0258394 0.730493 -0.682431 0.00645996 0.737533 -0.67528 
-0.0338262 0.756515 -0.653101 -0.136309 0.751075 -0.645993 -0.248205 0.738103 -0.627374 
0.371974 0.810785 -0.451954 0.550274 0.733765 -0.398481 0.273448 0.778192 -0.56537 
0.105625 0.702776 -0.703527 0.0082872 0.575737 -0.817593 -0.00442033 0.511009 -0.859564 
0.017404 0.503229 -0.863978 -0.0153448 0.515016 -0.857043 -0.087059 0.575815 -0.812932 
-0.337712 0.712819 -0.614687 -0.220917 0.662378 -0.715856 -0.383813 0.680079 -0.624644 
-0.528759 0.574627 -0.624674 0.665301 0.641893 -0.381246 0.761555 0.544423 -0.351621 
0.444801 0.535192 -0.718138 0.160861 0.365377 -0.916855 -0.0099376 0.250555 -0.968051 
-0.086737 0.244644 -0.965726 -0.0375503 0.221361 -0.974469 0.00867116 0.197587 -0.980247 
0.020639 0.192731 -0.981035 -0.000726115 0.234985 -0.971999 -0.131415 0.292115 -0.947311 
-0.282091 0.418297 -0.863396 -0.554862 0.547424 -0.626462 -0.51349 0.52971 -0.675082 
0.847898 0.411714 -0.334008 0.702528 0.354455 -0.617103 0.237915 0.26373 -0.934796 
-0.104034 0.0822122 -0.99117 -0.0688783 0.02918 -0.997198 -0.0106155 -0.00740512 -0.999916 
0.0400065 -0.0102097 -0.999147 0.0586414 0.0356265 -0.997643 -0.0422098 0.102778 -0.993808 
-0.207697 0.216359 -0.953966 -0.635213 0.389098 -0.667163 -0.398842 0.285013 -0.871604 
-0.645216 0.367796 -0.669644 0.883426 0.272204 -0.381397 0.607501 0.173469 -0.775146 
-0.115885 -0.134902 -0.984059 -0.0340555 -0.0654009 -0.997278 0.0609805 -0.140045 -0.988266 
0.119555 -0.0800181 -0.989598 -0.103482 0.0675669 -0.992334 -0.316721 0.159384 -0.935032 
-0.657358 0.224942 -0.719223 -0.592674 0.188914 -0.782975 0.934372 0.122295 -0.334654 
0.446567 0.121349 -0.886483 -0.209355 -0.125234 -0.969787 -0.0333261 -0.183015 -0.982545 
-0.00701015 0.0107602 -0.999918 0.0234901 -0.0391614 -0.998957 0.174569 -0.116667 -0.977709 
0.104241 -0.101177 -0.989392 -0.0318008 -0.0626078 -0.997531 -0.261574 -0.0159121 -0.965052 
-0.658571 0.0874169 -0.747424 -0.51759 0.0429301 -0.854551 0.948251 -0.0387188 -0.315152 
0.439212 0.0171133 -0.89822 -0.279384 0.0654245 -0.957948 0.0333195 0.0653237 -0.997308 
0.10144 0.0126579 -0.994761 -0.0678176 0.111104 -0.991492 0.0624912 -0.0675284 -0.995758 
0.114184 -0.125866 -0.985454 -0.0218285 -0.127901 -0.991547 -0.228819 -0.133813 -0.964228 
-0.587537 -0.043738 -0.808015 -0.47047 -0.0773489 -0.87902 0.933322 -0.148304 -0.32698 
0.509292 -0.0751483 -0.857306 -0.220664 0.147769 -0.964091 -0.0824687 0.179363 -0.98032 
0.0526654 0.070194 -0.996142 -0.0523074 -0.000914849 -0.998631 -0.0642723 -0.00825725 -0.997898 
0.0414302 -0.0901912 -0.995062 -0.0481544 -0.162953 -0.985458 -0.224509 -0.177321 -0.958203 
-0.505539 -0.189186 -0.841807 -0.486312 -0.239197 -0.840408 -0.428037 -0.190919 -0.883365 
0.896482 -0.268266 -0.352639 0.618568 -0.165507 -0.768103 -0.058069 0.154838 -0.986232 
-0.0796062 0.0820499 -0.993444 -0.147473 -0.125584 -0.981061 -0.0277745 -0.0950183 -0.995088 
-0.0367696 -0.108206 -0.993448 -0.115166 -0.17469 -0.977865 -0.474525 -0.248795 -0.84435 
-0.266548 -0.216216 -0.939256 0.84961 -0.425705 -0.311349 0.782078 -0.522156 -0.340157 
0.730947 -0.39716 -0.55496 -0.217424 -0.118083 -0.968908 -0.228891 -0.161433 -0.959973 
-0.0400536 -0.158962 -0.986472 -0.0441662 -0.194115 -0.979984 -0.166875 -0.224136 -0.960165 
-0.334658 -0.30035 -0.893193 -0.341328 -0.321455 -0.883268 -0.318248 -0.28859 -0.903014 
0.657528 -0.614732 -0.435616 0.553371 -0.655171 -0.514326 0.477318 -0.558652 -0.678288 
0.161185 -0.410635 -0.89744 0.0278727 -0.304986 -0.951949 -0.0240219 -0.272191 -0.961943 
-0.134762 -0.260128 -0.956124 -0.244325 -0.297555 -0.922912 -0.169129 -0.21331 -0.962234 
-0.129622 -0.348904 -0.928151 -0.0626697 -0.238508 -0.969116 -0.118996 -0.367806 -0.922257 
-0.104001 -0.301363 -0.947821 -0.245815 -0.336766 -0.908936 -0.211933 -0.346188 -0.913914 
-0.200386 -0.317066 -0.926992 0.413187 -0.677513 -0.608483 0.351236 -0.683166 -0.640248 
0.334194 -0.658663 -0.674149 0.186512 -0.674556 -0.714274 0.126026 -0.545548 -0.82855 
0.0455593 -0.63292 -0.772875 -0.0160564 -0.483201 -0.875362 -0.0592686 -0.559432 -0.826755 
-0.108722 -0.458646 -0.881943 -0.100849 -0.476533 -0.873353 -0.156121 -0.409729 -0.898748 
-0.139374 -0.344653 -0.928326 -0.127797 -0.36296 -0.922999 -0.139094 -0.304406 -0.942332 
0.0981176 0.181966 -0.978397 -0.0149436 0.203521 -0.978957 0.125043 0.175968 -0.976422 
0.218931 0.200071 -0.955008 0.0863644 0.144166 -0.985777 -0.0953709 0.0794009 -0.99227 
-0.0271157 0.0555762 -0.998086 -0.120666 -0.0748651 -0.989866 0.0147992 0.032878 -0.99935 
0.34297 0.107642 -0.933159 0.212738 0.0849216 -0.973412 -0.0523969 0.0642285 -0.996559 
-0.0818839 -0.0251905 -0.996323 -0.123108 -0.101306 -0.987209 -0.123971 -0.101228 -0.987109 
-0.1231 -0.100946 -0.987247 0.067289 -0.0300201 -0.997282 -0.0900722 0.0600959 -0.99412 
0.0690698 -0.0374839 -0.996907 0.062336 -0.0253334 -0.997734 0.255875 0.0409558 -0.965842 
0.142938 -0.0062085 -0.989712 -0.0352964 0.0127791 -0.999295 -0.188139 -0.0430207 -0.9812 
-0.185616 -0.022657 -0.982361 0.31282 0.0313086 -0.949296 0.127157 0.0507721 -0.990582 
-0.0709944 0.0490814 -0.996268 -0.224561 0.0486211 -0.973246 -0.218118 0.0465325 -0.974812 
0.375604 -0.0437381 -0.925748 0.167908 -0.00237735 -0.9858 -0.0334238 0.0446997 -0.998441 
-0.204594 0.127466 -0.970512 -0.169683 0.0928954 -0.981111 -0.192469 0.114522 -0.974598 
0.361545 -0.108242 -0.92605 0.227145 -0.0944274 -0.969272 0.0272547 -0.0343181 -0.999039 
-0.126529 -0.00435914 -0.991953 -0.152139 0.108734 -0.98236 -0.177237 0.0956944 -0.979505 
-0.0996681 0.0263811 -0.994671 0.282826 -0.265933 -0.921569 0.270861 -0.274153 -0.922754 
0.262833 -0.259892 -0.92918 0.117653 -0.329933 -0.936644 0.0587098 -0.190639 -0.979903 
0.0047212 -0.247287 -0.968931 -0.0366191 -0.1374 -0.989839 -0.0344198 -0.212096 -0.976643 
-0.0657137 -0.0459798 -0.996779 -0.117247 -0.00155552 -0.993102 -0.106237 -0.0116859 -0.994272 
-0.10281 0.0150092 -0.994588 
