# vtk DataFile Version 4.2
vtk output
ASCII
DATASET POLYDATA
POINTS 490 float
-29.2291 -29.8886 -18.0873 -21.6652 -29.8886 -20.9208 -14.1012 -29.8886 -22.6486 
-6.53726 -29.8886 -21.6715 1.02668 -29.8886 -19.9026 8.59063 -29.8886 -18.3792 
16.1546 -29.8886 -17.5133 -36.793 -22.3247 -19.7435 -29.2291 -22.3247 -22.3728 
-21.6652 -22.3247 -23.1404 -14.1012 -22.3247 -23.5071 -6.53726 -22.3247 -23.4288 
1.02668 -22.3247 -22.143 8.59063 -22.3247 -20.4905 16.1546 -22.3247 -19.8128 
23.7185 -22.3247 -18.9486 31.2825 -22.3247 -17.6765 -44.357 -14.7607 -17.761 
-36.793 -14.7607 -21.4731 -29.2291 -14.7607 -22.8166 -21.6652 -14.7607 -23.0173 
-14.1012 -14.7607 -22.9912 -6.53726 -14.7607 -22.712 1.02668 -14.7607 -22.2602 
8.59063 -14.7607 -20.524 16.1546 -14.7607 -19.4678 23.7185 -14.7607 -19.4669 
31.2825 -14.7607 -19.5343 38.8464 -14.7607 -18.3177 -44.357 -7.1968 -19.0952 
-36.793 -7.1968 -22.0243 -29.2291 -7.1968 -22.8087 -21.6652 -7.1968 -22.5384 
-14.1012 -7.1968 -21.8878 -6.53726 -7.1968 -21.8649 1.02668 -7.1968 -22.0427 
8.59063 -7.1968 -20.0263 16.1546 -7.1968 -18.1123 23.7185 -7.1968 -19.2916 
31.2825 -7.1968 -19.7845 38.8464 -7.1968 -19.0803 46.4104 -7.1968 -16.4792 
-44.357 0.367142 -18.9913 -36.793 0.367142 -21.8924 -29.2291 0.367142 -22.7119 
-21.6652 0.367142 -22.465 -14.1012 0.367142 -22.1843 -6.53726 0.367142 -21.9894 
1.02668 0.367142 -21.5054 8.59063 0.367142 -21.7165 16.1546 0.367142 -18.739 
23.7185 0.367142 -19.2408 31.2825 0.367142 -19.6004 38.8464 0.367142 -18.831 
46.4104 0.367142 -16.123 -44.357 7.93109 -17.3132 -36.793 7.93109 -20.8734 
-29.2291 7.93109 -21.9124 -21.6652 7.93109 -21.9531 -14.1012 7.93109 -21.6789 
-6.53726 7.93109 -21.245 1.02668 7.93109 -21.4191 8.59063 7.93109 -23.0424 
16.1546 7.93109 -20.3773 23.7185 7.93109 -18.9395 31.2825 7.93109 -18.325 
38.8464 7.93109 -17.1461 -36.793 15.495 -18.8716 -29.2291 15.495 -20.2577 
-21.6652 15.495 -20.5256 -14.1012 15.495 -20.0656 -6.53726 15.495 -19.4184 
1.02668 15.495 -18.9292 8.59063 15.495 -19.8 16.1546 15.495 -19.1876 
23.7185 15.495 -17.094 -29.2291 23.059 -16.7617 -21.6652 23.059 -18.0891 
-14.1012 23.059 -18.035 -6.53726 23.059 -17.29 1.02668 23.059 -16.5766 
8.59063 23.059 -17.3056 16.1546 23.059 -16.6832 -29.2291 -31.4855 -16.0476 
-21.6652 -34.2221 -16.0476 -14.1012 -35.8523 -16.0476 -6.53726 -36.1085 -16.0476 
1.02668 -34.8319 -16.0476 8.59063 -33.229 -16.0476 8.59063 -37.4526 -8.50762 
16.1546 -31.9224 -16.0476 -32.356 -29.8886 -16.0476 -36.793 -26.9728 -16.0476 
23.1858 -29.8886 -16.0476 23.7185 -29.6177 -16.0476 23.7185 -29.8886 -15.8927 
31.2825 -25.4056 -16.0476 31.2825 -29.8886 -12.0068 -42.126 -22.3247 -16.0476 
-44.357 -18.7271 -16.0476 -44.357 -22.3247 -11.5529 36.1527 -22.3247 -16.0476 
38.8464 -20.3718 -16.0476 38.8464 -22.3247 -14.7872 -46.2981 -14.7607 -16.0476 
45.062 -14.7607 -16.0476 46.4104 -10.4016 -16.0476 46.4104 -14.7607 -15.2049 
-47.9263 -7.1968 -16.0476 47.0641 -7.1968 -16.0476 53.9743 -7.1968 -9.43579 
-47.8077 0.367142 -16.0476 46.5233 0.367142 -16.0476 46.4104 0.647656 -16.0476 
53.9743 0.367142 -9.04366 -45.7898 7.93109 -16.0476 -44.357 10.7591 -16.0476 
31.2825 13.5997 -16.0476 41.7146 7.93109 -16.0476 38.8464 9.81903 -16.0476 
46.4104 7.93109 -13.3702 -41.177 15.495 -16.0476 -44.357 15.495 -12.2233 
-36.793 19.9674 -16.0476 27.9648 15.495 -16.0476 23.7185 18.1308 -16.0476 
31.2825 15.495 -15.0073 38.8464 15.495 -11.4235 -31.2173 23.059 -16.0476 
-36.793 23.059 -13.1402 -29.2291 24.1234 -16.0476 -21.6652 26.9193 -16.0476 
-14.1012 27.6137 -16.0476 -6.53726 26.5277 -16.0476 1.02668 24.7801 -16.0476 
8.59063 26.9299 -16.0476 18.0202 23.059 -16.0476 16.1546 25.0266 -16.0476 
23.7185 23.059 -13.7808 -29.2291 30.6229 -9.95705 -21.6652 30.6229 -13.4885 
-14.1012 30.6229 -14.5072 -6.53726 30.6229 -14.472 1.02668 30.6229 -14.1721 
8.59063 30.6229 -14.6679 16.1546 30.6229 -14.0354 -6.53726 38.1869 -8.932 
1.02668 38.1869 -9.27965 8.59063 38.1869 -9.58698 16.1546 38.1869 -8.59167 
8.59063 -37.461 -8.48364 -29.2291 -32.6151 -8.48364 -21.6652 -35.1282 -8.48364 
-14.1012 -36.6518 -8.48364 -6.53726 -37.2602 -8.48364 8.06637 -37.4526 -8.48364 
1.02668 -37.3416 -8.48364 8.76642 -37.4526 -8.48364 8.59063 -37.4526 -8.39426 
16.1546 -37.083 -8.48364 23.7185 -35.1384 -8.48364 31.2825 -31.9714 -8.48364 
-44.357 -23.5959 -8.48364 -34.9544 -29.8886 -8.48364 -36.793 -29.0955 -8.48364 
34.9857 -29.8886 -8.48364 38.8464 -27.4419 -8.48364 -45.604 -22.3247 -8.48364 
45.4337 -22.3247 -8.48364 46.4104 -21.3429 -8.48364 46.4104 -22.3247 -5.37193 
-49.9714 -14.7607 -8.48364 51.649 -14.7607 -8.48364 53.9743 -9.01366 -8.48364 
53.9743 -14.7607 -1.09587 -51.5835 -7.1968 -8.48364 54.6319 -7.1968 -8.48364 
-51.4737 0.367142 -8.48364 54.3626 0.367142 -8.48364 53.9743 1.39523 -8.48364 
-49.8621 7.93109 -8.48364 50.8395 7.93109 -8.48364 46.4104 12.7398 -8.48364 
-46.3372 15.495 -8.48364 -44.357 18.3884 -8.48364 31.2825 22.997 -8.48364 
42.8364 15.495 -8.48364 38.8464 18.0119 -8.48364 46.4104 15.495 -2.97265 
-40.5114 23.059 -8.48364 -36.793 26.5382 -8.48364 31.213 23.059 -8.48364 
23.7185 30.5544 -8.48364 31.2825 23.059 -8.40267 -30.8843 30.6229 -8.48364 
-29.2291 31.7196 -8.48364 -21.6652 35.2765 -8.48364 -14.1012 37.6161 -8.48364 
23.6561 30.6229 -8.48364 23.7185 30.6229 -8.40753 -21.6652 38.1869 -1.25059 
-9.95717 38.1869 -8.48364 -14.1012 38.1869 -7.45644 -6.53726 38.5898 -8.48364 
1.02668 39.0062 -8.48364 8.59063 39.3252 -8.48364 16.3069 38.1869 -8.48364 
16.1546 38.2845 -8.48364 -29.2291 -31.8102 -0.919698 -21.6652 -33.9478 -0.919698 
-14.1012 -35.0577 -0.919698 -6.53726 -35.4882 -0.919698 1.02668 -35.966 -0.919698 
8.59063 -36.7333 -0.919698 16.1546 -36.7702 -0.919698 23.7185 -35.3194 -0.919698 
31.2825 -32.5803 -0.919698 -44.357 -23.4098 -0.919698 -34.1071 -29.8886 -0.919698 
-36.793 -28.8089 -0.919698 36.8843 -29.8886 -0.919698 38.8464 -28.8369 -0.919698 
46.4104 -23.3729 -0.919698 -45.4507 -22.3247 -0.919698 -44.357 -22.3247 2.42497 
47.5464 -22.3247 -0.919698 46.4104 -22.3247 4.0344 53.9743 -14.8265 -0.919698 
-50.0829 -14.7607 -0.919698 54.0194 -14.7607 -0.919698 53.9743 -14.7607 -0.693466 
-51.7905 -7.1968 -0.919698 56.5813 -7.1968 -0.919698 -51.765 0.367142 -0.919698 
56.6155 0.367142 -0.919698 53.9743 7.91792 -0.919698 -50.0815 7.93109 -0.919698 
53.9688 7.93109 -0.919698 -46.8684 15.495 -0.919698 -44.357 19.5386 -0.919698 
38.8464 21.8675 -0.919698 47.4518 15.495 -0.919698 46.4104 16.4058 -0.919698 
-41.8029 23.059 -0.919698 -36.793 28.2761 -0.919698 37.1502 23.059 -0.919698 
31.2825 28.3211 -0.919698 -33.9789 30.6229 -0.919698 -29.2291 34.0895 -0.919698 
29.0588 30.6229 -0.919698 23.7185 36.8725 -0.919698 -21.8856 38.1869 -0.919698 
-21.6652 38.3003 -0.919698 -21.6652 38.1869 0.48298 -14.1012 40.9126 -0.919698 
-6.53726 42.6646 -0.919698 1.02668 43.6723 -0.919698 8.59063 43.7985 -0.919698 
22.3767 38.1869 -0.919698 16.1546 42.2267 -0.919698 -29.2291 -31.3959 6.64425 
-21.6652 -33.3538 6.64425 -14.1012 -34.2763 6.64425 -6.53726 -34.1823 6.64425 
1.02668 -33.7907 6.64425 8.59063 -33.9939 6.64425 16.1546 -33.8962 6.64425 
23.7185 -32.6406 6.64425 31.2825 -30.1762 6.64425 -32.3382 -29.8886 6.64425 
-36.793 -27.324 6.64425 -29.2291 -29.8886 10.9059 1.02668 -29.8886 13.5046 
8.59063 -29.8886 12.7898 16.1546 -29.8886 12.1115 23.7185 -29.8886 10.6295 
31.9621 -29.8886 6.64425 31.2825 -29.8886 7.1173 38.8464 -26.7814 6.64425 
-42.9214 -22.3247 6.64425 -44.357 -20.439 6.64425 45.5513 -22.3247 6.64425 
38.8464 -22.3247 13.1404 46.4104 -21.5948 6.64425 -47.7348 -14.7607 6.64425 
-44.357 -14.7607 12.258 52.1142 -14.7607 6.64425 46.4104 -14.7607 13.8774 
53.9743 -10.4748 6.64425 -49.6611 -7.1968 6.64425 55.1561 -7.1968 6.64425 
53.9743 -7.1968 8.54964 -49.8412 0.367142 6.64425 55.1488 0.367142 6.64425 
53.9743 4.535 6.64425 53.9743 0.367142 8.49319 -48.0492 7.93109 6.64425 
-44.357 7.93109 13.5788 52.9107 7.93109 6.64425 -44.9307 15.495 6.64425 
-44.357 16.4835 6.64425 -44.357 15.495 7.70749 38.8464 23.0583 6.64425 
47.6195 15.495 6.64425 46.4104 16.6911 6.64425 46.4104 15.495 8.59329 
-39.9611 23.059 6.64425 -36.793 26.502 6.64425 -36.793 23.059 11.3727 
38.8456 23.059 6.64425 31.2825 29.9338 6.64425 -32.4893 30.6229 6.64425 
-29.2291 33.1425 6.64425 -29.2291 30.6229 10.6279 -21.6652 37.6178 6.64425 
30.6099 30.6229 6.64425 23.7185 37.7853 6.64425 -20.4734 38.1869 6.64425 
-14.1012 40.762 6.64425 -14.1012 38.1869 11.1247 -6.53726 42.7335 6.64425 
1.02668 44.0253 6.64425 8.59063 44.2587 6.64425 23.2354 38.1869 6.64425 
16.1546 42.6583 6.64425 -21.6652 -31.007 14.2082 -14.1012 -31.5801 14.2082 
-6.53726 -30.7226 14.2082 -36.793 -22.9208 14.2082 -25.0436 -29.8886 14.2082 
-29.2291 -28.1495 14.2082 -21.6652 -29.8886 15.4895 -14.1012 -29.8886 15.9925 
-1.66302 -29.8886 14.2082 -6.53726 -29.8886 15.1076 1.02668 -29.2966 14.2082 
8.59063 -28.4375 14.2082 16.1546 -27.2595 14.2082 23.7185 -26.0134 14.2082 
31.2825 -24.3872 14.2082 -37.4453 -22.3247 14.2082 -36.793 -22.3247 14.7245 
-29.2291 -22.3247 19.1846 -21.6652 -22.3247 20.6534 -14.1012 -22.3247 20.6352 
-6.53726 -22.3247 19.8403 1.02668 -22.3247 19.2722 8.59063 -22.3247 18.1724 
16.1546 -22.3247 17.0859 23.7185 -22.3247 16.6927 36.5905 -22.3247 14.2082 
31.2825 -22.3247 15.7343 38.8464 -21.0754 14.2082 -42.863 -14.7607 14.2082 
-44.357 -10.0306 14.2082 -36.793 -14.7607 18.9385 -29.2291 -14.7607 21.5815 
8.59063 -14.7607 20.3414 16.1546 -14.7607 18.7698 23.7185 -14.7607 19.2757 
31.2825 -14.7607 18.6992 45.9418 -14.7607 14.2082 38.8464 -14.7607 17.3032 
46.4104 -13.8595 14.2082 -45.1027 -7.1968 14.2082 -44.357 -7.1968 15.0332 
-36.793 -7.1968 20.0605 16.1546 -7.1968 19.9376 23.7185 -7.1968 19.9395 
31.2825 -7.1968 19.8115 38.8464 -7.1968 18.7555 48.7811 -7.1968 14.2082 
46.4104 -7.1968 15.8889 -45.2961 0.367142 14.2082 -44.357 5.72718 14.2082 
-44.357 0.367142 15.239 -36.793 0.367142 20.1617 23.7185 0.367142 20.2545 
31.2825 0.367142 19.9962 38.8464 0.367142 18.8245 48.8234 0.367142 14.2082 
46.4104 0.367142 15.935 -43.8611 7.93109 14.2082 -36.793 7.93109 19.4546 
[...]
POINT_DATA 490
SCALARS ImageScalars float
LOOKUP_TABLE default
0 0 0 0 0 0 0 0 0 
0 0 0 0 0 0 0 0 0 
0 0 0 0 0 0 0 0 0 
0 0 0 0 0 0 0 0 0 
0 0 0 0 0 0 0 0 0 
0 0 0 0 0 0 0 0 0 
0 0 0 0 0 0 0 0 0 
0 0 0 0 0 0 0 0 0 
0 0 0 0 0 0 0 0 0 
0 0 0 0 0 0 0 0 0 
0 0 0 0 0 0 0 0 0 
0 0 0 0 0 0 0 0 0 
0 0 0 0 0 0 0 0 0 
0 0 0 0 0 0 0 0 0 
0 0 0 0 0 0 0 0 0 
0 0 0 0 0 0 0 0 0 
0 0 0 0 0 0 0 0 0 
0 0 0 0 0 0 0 0 0 
0 0 0 0 0 0 0 0 0 
0 0 0 0 0 0 0 0 0 
0 0 0 0 0 0 0 0 0 
0 0 0 0 0 0 0 0 0 
0 0 0 0 0 0 0 0 0 
0 0 0 0 0 0 0 0 0 
0 0 0 0 0 0 0 0 0 
0 0 0 0 0 0 0 0 0 
0 0 0 0 0 0 0 0 0 
0 0 0 0 0 0 0 0 0 
0 0 0 0 0 0 0 0 0 
0 0 0 0 0 0 0 0 0 
0 0 0 0 0 0 0 0 0 
0 0 0 0 0 0 0 0 0 
0 0 0 0 0 0 0 0 0 
0 0 0 0 0 0 0 0 0 
0 0 0 0 0 0 0 0 0 
0 0 0 0 0 0 0 0 0 
0 0 0 0 0 0 0 0 0 
0 0 0 0 0 0 0 0 0 
0 0 0 0 0 0 0 0 0 
0 0 0 0 0 0 0 0 0 
0 0 0 0 0 0 0 0 0 
0 0 0 0 0 0 0 0 0 
0 0 0 0 0 0 0 0 0 
0 0 0 0 0 0 0 0 0 
0 0 0 0 0 0 0 0 0 
0 0 0 0 0 0 0 0 0 
0 0 0 0 0 0 0 0 0 
0 0 0 0 0 0 0 0 0 
0 0 0 0 0 0 0 0 0 
0 0 0 0 0 0 0 0 0 
0 0 0 0 0 0 0 0 0 
0 0 0 0 0 0 0 0 0 
0 0 0 0 0 0 0 0 0 
0 0 0 0 0 0 0 0 0 
0 0 0 0 
NORMALS Normals float
-0.396011 -0.735475 -0.549775 -0.250506 -0.550198 -0.796573 -0.0344016 -0.383371 -0.922953 
0.162978 -0.434364 -0.88587 0.213087 -0.465294 -0.859125 0.147143 -0.444267 -0.883728 
0.141081 -0.487474 -0.861664 -0.441574 -0.433301 -0.785661 -0.206129 -0.233908 -0.950157 
-0.0745423 -0.110811 -0.991042 -0.0187424 -0.0128248 -0.999742 0.0860534 -0.0595316 -0.99451 
0.196671 -0.135113 -0.971115 0.14903 -0.123937 -0.981035 0.0977377 -0.115798 -0.988452 
0.138219 -0.203677 -0.969232 0.226451 -0.35966 -0.905188 -0.625434 -0.24628 -0.740391 
-0.296391 -0.128544 -0.946377 -0.0981019 -0.0266059 -0.994821 -0.0128609 0.039971 -0.999118 
0.0203366 0.108151 -0.993926 0.0472238 0.102144 -0.993648 0.142305 0.00709415 -0.989797 
0.185316 0.0257817 -0.982341 0.0686485 0.108267 -0.991749 -0.00476941 -0.0210504 -0.999767 
0.0750228 -0.122264 -0.989658 0.262905 -0.221355 -0.939086 -0.549477 -0.070953 -0.832491 
-0.225502 -0.0286915 -0.97382 -0.0318659 0.00693672 -0.999468 0.0606331 0.0362804 -0.997501 
0.0444555 0.051044 -0.997706 -0.0102343 0.0477579 -0.998807 0.0996755 0.0488298 -0.993821 
0.272345 -0.0637791 -0.960084 0.0292255 0.0525956 -0.998188 -0.105042 0.0148706 -0.994357 
0.0121322 -0.00580124 -0.99991 0.194633 -0.0356525 -0.980228 0.472151 -0.041361 -0.880547 
-0.544003 0.105766 -0.832391 -0.223354 0.075311 -0.971824 -0.0358781 0.0584635 -0.997645 
0.0351307 0.038909 -0.998625 0.0309452 0.013583 -0.999429 0.0449356 0.0406537 -0.998162 
0.0203876 0.0421627 -0.998903 0.184794 -0.197624 -0.962702 0.134352 -0.149942 -0.979524 
-0.0540751 0.0225543 -0.998282 0.0253008 0.0938147 -0.995268 0.208143 0.122452 -0.970403 
0.475832 0.140917 -0.868174 -0.60405 0.279197 -0.74644 -0.264571 0.178994 -0.947609 
-0.0703396 0.154507 -0.985485 0.0153048 0.121236 -0.992506 0.0463248 0.136513 -0.989555 
0.0174466 0.16582 -0.986002 -0.118465 0.16078 -0.979855 0.0664688 0.118221 -0.99076 
0.270263 -0.0269887 -0.962408 0.129353 0.129111 -0.983157 0.115018 0.266877 -0.956842 
0.252183 0.375934 -0.891671 -0.341443 0.402962 -0.84914 -0.0977538 0.308097 -0.946319 
0.0130118 0.249664 -0.968245 0.0699686 0.236592 -0.969087 0.0710626 0.25266 -0.964942 
-0.0197882 0.315842 -0.948605 -0.0155104 0.382709 -0.923739 0.165324 0.232797 -0.95837 
0.24482 0.302929 -0.92103 -0.23722 0.507514 -0.828346 -0.0708128 0.391074 -0.917631 
0.0494494 0.323057 -0.945087 0.0922472 0.302027 -0.948826 -0.00323678 0.287117 -0.95789 
-0.00857039 0.295785 -0.955216 0.196576 0.306632 -0.931308 -0.407736 -0.819895 -0.401899 
-0.275813 -0.880903 -0.384625 -0.119981 -0.930848 -0.345147 0.0442322 -0.904055 -0.425121 
0.152327 -0.782454 -0.60379 0.141157 -0.657237 -0.740347 0.0162391 -0.991465 -0.129359 
0.155569 -0.597356 -0.786742 -0.453785 -0.788165 -0.415783 -0.517918 -0.687779 -0.508646 
0.237348 -0.553657 -0.798204 0.242162 -0.545089 -0.802643 0.247197 -0.563664 -0.788147 
0.2982 -0.508167 -0.807987 0.427794 -0.77283 -0.46875 -0.650341 -0.532804 -0.541458 
-0.691225 -0.415135 -0.5915 -0.735522 -0.615862 -0.282352 0.356403 -0.482273 -0.800243 
0.387737 -0.45684 -0.800598 0.448146 -0.559779 -0.697003 -0.710305 -0.275036 -0.647937 
0.50511 -0.317351 -0.802591 0.513957 -0.167557 -0.841293 0.570345 -0.350296 -0.742967 
-0.738972 -0.0776638 -0.669245 0.494889 -0.0456488 -0.867756 0.858631 -0.146786 -0.491128 
-0.731081 0.113822 -0.67273 0.480379 0.141355 -0.865595 0.478537 0.150189 -0.865128 
0.852318 0.186841 -0.488512 -0.670924 0.29496 -0.680338 -0.646649 0.35999 -0.672497 
0.241695 0.448734 -0.860361 0.354323 0.394371 -0.847896 0.280423 0.442691 -0.851697 
0.554337 0.453623 -0.697808 -0.562719 0.465113 -0.683386 -0.747145 0.507959 -0.428664 
-0.413408 0.543929 -0.730229 0.269041 0.418168 -0.867613 0.297017 0.334407 -0.894401 
0.296682 0.517754 -0.80244 0.385888 0.671525 -0.63257 -0.29355 0.54104 -0.788102 
-0.501252 0.648931 -0.572393 -0.256432 0.534366 -0.805416 -0.125861 0.490726 -0.862176 
0.0015003 0.43936 -0.89831 0.0641474 0.362349 -0.929832 -0.00669432 0.307886 -0.9514 
-0.00482905 0.36573 -0.930708 0.247169 0.324683 -0.912956 0.208651 0.332524 -0.919724 
0.42451 0.419634 -0.802308 -0.431454 0.754239 -0.494945 -0.203182 0.635159 -0.745178 
-0.0476573 0.536555 -0.842519 0.0201508 0.453862 -0.890844 -0.0108509 0.40745 -0.913163 
0.00430046 0.446321 -0.894863 0.266337 0.438105 -0.858562 -0.0667076 0.749695 -0.658413 
-0.0342062 0.688548 -0.724384 0.0331848 0.682379 -0.730245 0.319673 0.716976 -0.61948 
0.0158695 -0.99165 -0.12798 -0.366718 -0.930238 -0.0132161 -0.238344 -0.970833 0.025999 
-0.133139 -0.989323 0.0592869 -0.0428019 -0.997581 0.0547681 0.0138913 -0.992622 -0.12045 
-0.0126953 -0.999685 -0.0216484 0.0188923 -0.991364 -0.129772 0.015061 -0.992153 -0.124116 
0.145411 -0.96712 -0.20865 0.311754 -0.915684 -0.253639 0.437198 -0.855401 -0.277754 
-0.719126 -0.681461 -0.135902 -0.422266 -0.904861 -0.0540193 -0.453023 -0.888328 -0.0751227 
0.489532 -0.819622 -0.29762 0.541626 -0.77181 -0.333094 -0.757301 -0.636894 -0.144431 
0.650774 -0.666068 -0.364482 0.670534 -0.643356 -0.369427 0.675836 -0.70407 -0.218018 
-0.929568 -0.316483 -0.189056 0.788669 -0.456806 -0.411497 0.869104 -0.224926 -0.44053 
0.870198 -0.491393 -0.0359005 -0.97671 -0.0901409 -0.194712 0.884736 -0.1497 -0.441398 
-0.971863 0.113544 -0.206376 0.866328 0.184133 -0.464295 0.853286 0.22635 -0.469754 
-0.928208 0.305841 -0.211876 0.707856 0.510098 -0.48861 0.590761 0.655579 -0.470338 
-0.827041 0.50557 -0.245768 -0.778467 0.57038 -0.262024 0.540694 0.6169 -0.571912 
0.494846 0.715421 -0.493255 0.439365 0.730796 -0.522394 0.628656 0.738133 -0.244849 
-0.67525 0.666849 -0.315198 -0.588018 0.729541 -0.349292 0.541635 0.615857 -0.572146 
0.622126 0.542648 -0.564352 0.543006 0.617881 -0.568654 -0.478432 0.773341 -0.415988 
-0.452139 0.781074 -0.43069 -0.310086 0.801692 -0.511014 -0.171972 0.80133 -0.572971 
0.621337 0.542931 -0.564948 0.624203 0.543752 -0.560984 -0.397929 0.907493 -0.134567 
-0.117914 0.784196 -0.609207 -0.192098 0.838686 -0.509612 -0.0725052 0.76336 -0.641892 
-0.0403558 0.715003 -0.697956 0.0412012 0.719683 -0.693079 0.326229 0.717272 -0.615707 
0.320363 0.720224 -0.615341 -0.314051 -0.94686 0.0694778 -0.203114 -0.973457 0.105482 
-0.102027 -0.984331 0.143817 -0.0581402 -0.979567 0.192531 -0.0793723 -0.970895 0.225972 
-0.0516116 -0.97629 0.210225 0.0888636 -0.977939 0.189049 0.257151 -0.955107 0.147115 
0.394394 -0.913563 0.0992804 -0.713173 -0.68995 0.123913 -0.38545 -0.919588 0.0760638 
-0.439173 -0.893146 0.0970381 0.483875 -0.873504 0.0534466 0.518855 -0.85416 0.0346285 
0.660482 -0.750827 -0.00475163 -0.746579 -0.653052 0.127058 -0.731054 -0.64591 0.219908 
0.679215 -0.733858 -0.0109215 0.64596 -0.73065 0.221102 0.86918 -0.493751 -0.0271183 
-0.934201 -0.332492 0.129299 0.870746 -0.490987 -0.0270787 0.87056 -0.49181 -0.0157516 
-0.988217 -0.0994996 0.116308 0.985204 -0.169157 -0.0275593 -0.988173 0.115837 0.100474 
0.989474 0.136416 -0.0482965 0.869322 0.484453 -0.0978977 -0.950482 0.292363 0.105395 
0.868935 0.485123 -0.0980178 -0.880777 0.467431 0.0757685 -0.82877 0.557137 0.0523418 
0.55845 0.786388 -0.26406 0.661777 0.730368 -0.169156 0.638558 0.748825 -0.177493 
-0.767894 0.640041 0.0261992 -0.67131 0.741087 -0.0115221 0.577234 0.766867 -0.280565 
0.668883 0.681529 -0.296838 -0.620976 0.782377 -0.0476978 -0.54702 0.833632 -0.0763348 
0.694441 0.65467 -0.298596 0.687702 0.677107 -0.261902 -0.40363 0.907205 -0.118584 
-0.399482 0.908897 -0.11967 -0.412405 0.909635 -0.0498524 -0.268099 0.947649 -0.173446 
-0.174487 0.957253 -0.230696 -0.0749304 0.96048 -0.268073 0.0872133 0.9607 -0.263532 
0.640811 0.724657 -0.253442 0.362826 0.898086 -0.248593 -0.349576 -0.918229 0.186153 
-0.18285 -0.969258 0.164634 -0.0529374 -0.978587 0.198908 0.0301733 -0.962349 0.270138 
0.013803 -0.928775 0.370387 -0.00710711 -0.897664 0.440623 0.0807673 -0.87627 0.475003 
0.212746 -0.864299 0.455769 0.322748 -0.8583 0.398942 -0.418121 -0.883178 0.212537 
-0.523631 -0.803953 0.281904 -0.370773 -0.84376 0.388066 0.0990188 -0.762199 0.639725 
0.0567048 -0.729777 0.681329 0.0903646 -0.707681 0.700729 0.187253 -0.76403 0.617409 
0.336002 -0.854138 0.396926 0.320845 -0.851267 0.415214 0.472032 -0.79984 0.370731 
-0.692739 -0.634691 0.342463 -0.753515 -0.554067 0.35387 0.605294 -0.717143 0.345436 
0.403312 -0.641348 0.652696 0.629482 -0.695166 0.347127 -0.859355 -0.342791 0.379477 
-0.75628 -0.332672 0.563356 0.799813 -0.473313 0.369152 0.564094 -0.391564 0.726964 
0.876254 -0.299199 0.377703 -0.91914 -0.118077 0.375819 0.91118 -0.170454 0.375094 
0.869566 -0.165523 0.465249 -0.926166 0.0977632 0.364224 0.91455 0.121943 0.385653 
0.889257 0.278924 0.362524 0.873235 0.12327 0.471451 -0.893658 0.277203 0.352893 
-0.759033 0.254682 0.59917 0.847776 0.411063 0.335115 -0.839814 0.426048 0.336445 
-0.830154 0.445849 0.334758 -0.824248 0.426159 0.372833 0.630358 0.770017 0.0986043 
0.721063 0.658513 0.215472 0.695883 0.688351 0.204743 0.687331 0.646493 0.331093 
-0.727151 0.605642 0.323186 -0.673757 0.669015 0.3138 -0.629181 0.587465 0.508937 
0.630359 0.770018 0.0985932 0.70741 0.701293 0.0880864 -0.602023 0.73934 0.301569 
-0.545962 0.78352 0.296686 -0.511229 0.708866 0.485957 -0.442013 0.853696 0.275371 
0.709837 0.698772 0.0885933 0.65312 0.743899 0.141594 -0.422586 0.8657 0.268298 
-0.309709 0.915655 0.256233 -0.292475 0.800598 0.522973 -0.21462 0.949662 0.228212 
-0.0973853 0.97742 0.187528 0.0827217 0.980552 0.177973 0.637933 0.755875 0.14729 
0.364729 0.9106 0.194372 -0.185634 -0.816637 0.546483 0.0172853 -0.813275 0.581623 
0.122513 -0.763602 0.633958 -0.527538 -0.587912 0.61324 -0.27161 -0.785615 0.555911 
-0.371824 -0.730572 0.572722 -0.175054 -0.760997 0.624692 0.0229298 -0.73223 0.680671 
0.111616 -0.743824 0.65899 0.121412 -0.72321 0.679872 0.104832 -0.729381 0.676028 
0.0798321 -0.649944 0.755777 0.0958527 -0.570269 0.815846 0.118252 -0.583954 0.803128 
0.20114 -0.606637 0.769113 -0.539767 -0.570555 0.618966 -0.523833 -0.564522 0.637898 
-0.316393 -0.463758 0.827541 -0.0736418 -0.368225 0.926815 0.0477205 -0.374554 0.925976 
0.0823557 -0.432123 0.898046 0.0998026 -0.482449 0.87022 0.130209 -0.406171 0.904473 
0.0884366 -0.366504 0.926204 0.081886 -0.451042 0.888738 0.323782 -0.598818 0.732518 
0.173094 -0.520745 0.83598 0.377879 -0.571197 0.728657 -0.688448 -0.318094 0.65181 
-0.734488 -0.192761 0.650669 -0.445594 -0.274419 0.852139 -0.210727 -0.177288 0.961334 
0.253316 -0.269681 0.929033 0.0658179 -0.169536 0.983324 0.00457932 -0.1867 0.982406 
0.119782 -0.240639 0.963195 0.542097 -0.38133 0.748811 0.287295 -0.294435 0.911465 
0.553178 -0.354335 0.75395 -0.746968 -0.117112 0.654464 -0.719139 -0.117864 0.684797 
-0.402599 -0.0703148 0.912672 0.169318 -0.262439 0.949977 0.00831284 -0.0634255 0.997952 
0.074636 -0.0879078 0.993329 0.234422 -0.0967876 0.967305 0.586979 -0.127715 0.799465 
0.489366 -0.116594 0.864249 -0.755315 0.064654 0.652165 -0.747379 0.196943 0.634537 
-0.719468 0.0620536 0.691748 -0.39069 0.0330949 0.919927 0.163201 -0.0487508 0.985388 
0.0921894 0.0207339 0.995526 0.245113 0.0445799 0.968469 0.591251 0.0689838 0.803532 
0.493439 0.0603853 0.867682 -0.733927 0.249459 0.63176 -0.416016 0.186921 0.889939 
-0.186042 0.159599 0.969493 0.213508 0.0142316 0.976838 0.171698 0.106693 0.979355 
0.277689 0.195332 0.940603 0.594819 0.275971 0.755003 0.577338 0.323079 0.749867 
0.557639 0.269825 0.785005 -0.639243 0.39178 0.661722 -0.579493 0.485939 0.654256 
-0.518631 0.361574 0.774782 -0.251967 0.267954 0.9299 -0.138594 0.216481 0.966399 
0.186772 0.167296 0.968054 0.202153 0.121864 0.971742 0.274963 0.220196 0.9359 
0.493294 0.468204 0.733107 0.496322 0.50053 0.709319 0.433239 0.411532 0.801839 
-0.522829 0.533322 0.664995 -0.437251 0.581388 0.686148 -0.363384 0.451112 0.815138 
-0.205316 0.339793 0.917816 -0.138154 0.282428 0.949288 -0.081864 0.248744 0.965103 
0.0917432 0.186809 0.978103 0.155417 0.187694 0.969854 0.285428 0.244161 0.926777 
0.527012 0.535626 0.65982 0.53825 0.530894 0.654552 0.468108 0.459426 0.754853 
-0.365442 0.605413 0.707056 -0.331037 0.614137 0.716415 -0.306344 0.565962 0.765402 
-0.2556 0.63622 0.727937 -0.21801 0.473258 0.853522 -0.147071 0.401839 0.903823 
-0.0430967 0.344437 0.93782 0.090828 0.309186 0.946654 0.221382 0.354817 0.908347 
0.533738 0.553862 0.639031 0.500694 0.572577 0.6492 0.457584 0.492865 0.740068 
-0.204547 0.690975 0.693335 -0.203691 0.691387 0.693177 -0.20342 0.690119 0.694519 
-0.105943 0.707885 0.698338 -0.100717 0.635222 0.765734 0.0870011 0.706321 0.702525 
0.0857042 0.61946 0.780336 0.308062 0.654837 0.690135 0.305014 0.655396 0.690958 
0.304551 0.653423 0.693028 -0.0717559 -0.26005 0.962925 0.0115371 -0.322493 0.946502 
0.0383475 -0.362693 0.931119 0.147911 -0.321092 0.935426 -0.184059 -0.17889 0.966499 
-0.214434 -0.149057 0.965298 -0.0833037 -0.198598 0.976534 -0.0317191 -0.286904 0.957434 
0.0151125 -0.325857 0.945298 0.203702 -0.271854 0.940532 0.163287 -0.264019 0.950595 
0.252027 -0.323651 0.911994 -0.272855 -0.0592578 0.960228 -0.230683 -0.0591963 0.971227 
-0.169772 -0.0809807 0.982151 -0.0773904 -0.146872 0.986123 0.0999158 -0.0818372 0.991625 
0.141421 -0.0383179 0.989208 0.226852 -0.334265 0.91477 0.231554 -0.349887 0.907723 
0.319364 -0.237373 0.917421 -0.271721 0.049746 0.96109 -0.195775 0.132262 0.971689 
-0.224366 0.0619537 0.972534 -0.172007 0.0748525 0.982248 -0.0383734 0.104748 0.993758 
0.127144 0.0792397 0.988714 -0.0970191 -0.0356301 0.994645 -0.0112177 -0.189142 0.981886 
0.305254 -0.143344 0.941421 0.393172 -0.206364 0.896007 -0.171286 0.158998 0.972307 
-0.136376 0.195985 0.971077 -0.132107 0.159002 0.9784 -0.0754573 0.194602 0.977976 
-0.040237 0.0791454 0.996051 -0.126437 0.00046124 0.991975 0.0345996 0.185258 0.982081 
0.28008 0.0459653 0.958876 0.212009 0.157198 0.964542 0.36103 0.101762 0.926985 
-0.125244 0.203721 0.970985 -0.119421 0.213492 0.969618 -0.114634 0.193463 0.974388 
-0.0800036 0.229921 0.969915 -0.0721904 0.154828 0.9853 0.012355 0.152736 0.98819 
0.17507 0.189813 0.966086 0.0998059 0.222846 0.969731 0.10927 0.293619 0.949657 
0.00615024 0.21336 0.976954 0.0213291 0.207754 0.977949 0.0151813 0.211803 0.977194 
0.0165123 0.209253 0.977722 
