# vtk DataFile Version 4.2
vtk output
ASCII
DATASET POLYDATA
POINTS 514 float
-33.1597 -19.2746 -21.3081 -25.1056 -43.437 -14.3239 -17.0515 -43.437 -16.0794 
-8.99734 -43.437 -17.4784 -0.943214 -43.437 -17.6402 7.11091 -43.437 -16.0899 
15.165 -43.437 -13.0326 -33.1597 -35.3829 -17.0619 -25.1056 -35.3829 -18.3237 
-17.0515 -35.3829 -19.1095 -8.99734 -35.3829 -20.0381 -0.943214 -35.3829 -19.795 
7.11091 -35.3829 -20.2419 15.165 -35.3829 -18.8788 23.2192 -35.3829 -16.4799 
31.2733 -35.3829 -13.1227 -41.2138 -27.3288 -17.2365 -33.1597 -20.5055 -21.0489 
-33.1597 -27.3288 -19.519 -25.1056 -27.3288 -20.7555 -17.0515 -27.3288 -20.1772 
-8.99734 -27.3288 -20.0352 -0.943214 -27.3288 -20.5255 7.11091 -27.3288 -20.6843 
15.165 -27.3288 -20.4166 23.2192 -27.3288 -20.0445 31.2733 -27.3288 -17.8994 
39.3274 -27.3288 -14.4947 -49.268 -19.2746 -13.6118 -34.1176 -19.2746 -21.0489 
-41.2138 -19.2746 -18.8508 -26.1346 -19.2746 -21.0489 -33.1597 -14.5967 -21.0489 
-25.1056 -19.2746 -21.0073 -17.0515 -19.2746 -20.0175 -8.99734 -19.2746 -19.6041 
-0.943214 -19.2746 -20.4552 7.11091 -19.2746 -20.3885 15.165 -19.2746 -20.1052 
23.2192 -19.2746 -20.1764 31.2733 -19.2746 -19.7961 39.3274 -19.2746 -17.6163 
47.3815 -19.2746 -13.1044 -49.268 -11.2205 -15.8154 -41.2138 -11.2205 -19.5866 
-33.1597 -11.2205 -20.8435 -25.1056 -11.2205 -20.6696 -17.0515 -11.2205 -19.5784 
-8.99734 -11.2205 -19.3765 -0.943214 -11.2205 -20.8594 7.11091 -11.2205 -19.4324 
15.165 -11.2205 -19.4092 23.2192 -11.2205 -19.8431 31.2733 -11.2205 -19.5548 
39.3274 -11.2205 -18.3814 47.3815 -11.2205 -15.3223 -49.268 -3.16639 -16.0963 
-41.2138 -3.16639 -19.5826 -33.1597 -3.16639 -20.805 -25.1056 -3.16639 -20.416 
-17.0515 -3.16639 -19.0983 -8.99734 -3.16639 -20.3391 -0.943214 -3.16639 -18.2647 
7.11091 -3.16639 -19.068 15.165 -3.16639 -20.6298 23.2192 -3.16639 -19.8699 
31.2733 -3.16639 -19.462 39.3274 -3.16639 -18.2613 47.3815 -3.16639 -15.7623 
-49.268 4.88774 -16.006 -41.2138 4.88774 -19.4609 -33.1597 4.88774 -20.6185 
-25.1056 4.88774 -20.1881 -17.0515 4.88774 -18.8447 -8.99734 4.88774 -19.8227 
-0.943214 4.88774 -17.3967 7.11091 4.88774 -18.7051 15.165 4.88774 -20.3812 
23.2192 4.88774 -18.9761 31.2733 4.88774 -18.479 39.3274 4.88774 -17.8127 
47.3815 4.88774 -15.8872 -49.268 12.9419 -15.1855 -41.2138 12.9419 -18.9922 
-33.1597 12.9419 -20.1369 -25.1056 12.9419 -19.7048 -17.0515 12.9419 -18.4965 
-8.99734 12.9419 -17.2575 -0.943214 12.9419 -18.1341 7.11091 12.9419 -18.9614 
15.165 12.9419 -18.85 23.2192 12.9419 -18.3095 31.2733 12.9419 -18.0531 
39.3274 12.9419 -17.0884 47.3815 12.9419 -14.1007 -41.2138 20.996 -17.8502 
-33.1597 20.996 -19.4775 -25.1056 20.996 -19.3026 -17.0515 20.996 -18.7268 
-8.99734 20.996 -17.9167 -0.943214 20.996 -18.2899 7.11091 20.996 -19.0326 
15.165 20.996 -18.7793 23.2192 20.996 -18.0056 31.2733 20.996 -16.7849 
39.3274 20.996 -14.4488 -41.2138 29.0501 -14.6812 -33.1597 29.0501 -17.8061 
-25.1056 29.0501 -18.3044 -17.0515 29.0501 -19.1299 -8.99734 29.0501 -18.2974 
-0.943214 29.0501 -18.5471 7.11091 29.0501 -18.3547 15.165 29.0501 -17.391 
23.2192 29.0501 -15.6626 31.2733 29.0501 -13.7744 -33.1597 37.1042 -13.2778 
-25.1056 37.1042 -15.5923 -17.0515 37.1042 -16.6194 -8.99734 37.1042 -17.2969 
-0.943214 37.1042 -17.1797 7.11091 37.1042 -15.8077 -25.1056 -45.0707 -12.9948 
-17.0515 -47.1857 -12.9948 -8.99734 -48.7 -12.9948 -8.99734 -51.4911 -7.70237 
-0.943214 -48.346 -12.9948 7.11091 -46.2814 -12.9948 15.165 -43.4671 -12.9948 
-27.8258 -43.437 -12.9948 -33.1597 -40.4214 -12.9948 -33.1597 -43.437 -5.12041 
15.2311 -43.437 -12.9948 23.2192 -39.2952 -12.9948 31.2733 -35.5056 -12.9948 
-39.8027 -35.3829 -12.9948 -41.2138 -33.9853 -12.9948 -41.2138 -35.3829 -10.3558 
31.4701 -35.3829 -12.9948 39.3274 -29.3352 -12.9948 -46.4133 -27.3288 -12.9948 
-49.268 -20.7955 -12.9948 -49.268 -27.3288 -6.50747 41.5765 -27.3288 -12.9948 
47.3815 -19.5005 -12.9948 -49.8918 -19.2746 -12.9948 47.55 -19.2746 -12.9948 
-52.2048 -11.2205 -12.9948 51.1487 -11.2205 -12.9948 55.4357 -11.2205 -8.28976 
-53.0421 -3.16639 -12.9948 52.2529 -3.16639 -12.9948 55.4357 -3.16639 -10.4006 
-52.9035 4.88774 -12.9948 52.4167 4.88774 -12.9948 55.4357 4.88774 -10.5143 
-51.8643 12.9419 -12.9948 -49.268 20.2267 -12.9948 49.6143 12.9419 -12.9948 
47.3815 15.9376 -12.9948 55.4357 12.9419 -8.28312 -48.9086 20.996 -12.9948 
-49.268 20.996 -12.616 42.7221 20.996 -12.9948 39.3274 23.8421 -12.9948 
47.3815 20.996 -10.5049 -43.7014 29.0501 -12.9948 -41.2138 31.3859 -12.9948 
15.165 37.0683 -12.9948 23.2192 32.7286 -12.9948 33.0082 29.0501 -12.9948 
31.2733 29.9272 -12.9948 39.3274 29.0501 -9.01715 -33.6596 37.1042 -12.9948 
-33.1597 37.4291 -12.9948 -25.1056 40.4805 -12.9948 -17.0515 43.1518 -12.9948 
-8.99734 44.5643 -12.9948 -0.943214 43.8353 -12.9948 15.1058 37.1042 -12.9948 
7.11091 40.8355 -12.9948 15.165 37.1042 -12.9501 23.2192 37.1042 -5.16985 
-17.0515 45.1584 -9.613 -8.99734 45.1584 -12.1829 -0.943214 45.1584 -11.0439 
7.11091 45.1584 -5.12574 -8.99734 -52.4834 -4.94069 -33.1597 -43.4977 -4.94069 
-25.1056 -47.8526 -4.94069 -14.1052 -51.4911 -4.94069 -17.0515 -50.9228 -4.94069 
-1.39441 -51.4911 -4.94069 -8.99734 -51.4911 -2.56835 -0.943214 -51.4328 -4.94069 
7.11091 -48.9035 -4.94069 15.165 -44.9527 -4.94069 -33.2537 -43.437 -4.94069 
-41.2138 -37.587 -4.94069 -33.1597 -43.437 -4.8081 19.2154 -43.437 -4.94069 
15.165 -43.437 -1.67514 23.2192 -41.9421 -4.94069 31.2733 -37.9585 -4.94069 
-43.5343 -35.3829 -4.94069 -49.268 -28.2209 -4.94069 -41.2138 -35.3829 -0.597588 
35.7454 -35.3829 -4.94069 39.3274 -33.2878 -4.94069 -49.8509 -27.3288 -4.94069 
-49.268 -27.3288 -3.15598 47.036 -27.3288 -4.94069 47.3815 -26.9567 -4.94069 
-53.7161 -19.2746 -4.94069 53.5347 -19.2746 -4.94069 55.4357 -15.6174 -4.94069 
-56.2257 -11.2205 -4.94069 57.3603 -11.2205 -4.94069 -57.0566 -3.16639 -4.94069 
59.3858 -3.16639 -4.94069 -57.2145 4.88774 -4.94069 59.8686 4.88774 -4.94069 
-56.1557 12.9419 -4.94069 57.7855 12.9419 -4.94069 55.4357 18.1046 -4.94069 
-53.5434 20.996 -4.94069 -49.268 28.3276 -4.94069 53.701 20.996 -4.94069 
47.3815 26.973 -4.94069 55.4357 20.996 0.820967 -48.7508 29.0501 -4.94069 
-41.2138 36.6051 -4.94069 31.2733 34.2751 -4.94069 44.4627 29.0501 -4.94069 
39.3274 31.5575 -4.94069 -40.5343 37.1042 -4.94069 -33.1597 41.5425 -4.94069 
-25.1056 44.595 -4.94069 15.165 41.0395 -4.94069 23.4691 37.1042 -4.94069 
23.2192 37.1899 -4.94069 23.2192 37.1042 -3.45087 -23.0142 45.1584 -4.94069 
-17.0515 46.7997 -4.94069 -8.99734 48.1368 -4.94069 -0.943214 47.681 -4.94069 
7.26577 45.1584 -4.94069 7.11091 45.2286 -4.94069 7.11091 45.1584 -4.13132 
-25.1056 -44.3242 3.11344 -17.0515 -46.8088 3.11344 -8.99734 -48.2805 3.11344 
-0.943214 -47.2506 3.11344 7.11091 -44.9137 3.11344 -26.6846 -43.437 3.11344 
-33.1597 -39.5864 3.11344 -25.1056 -43.437 4.05621 -17.0515 -43.437 6.35316 
-8.99734 -43.437 7.93071 -0.943214 -43.437 7.09054 10.3443 -43.437 3.11344 
7.11091 -43.437 4.70236 15.165 -40.9238 3.11344 23.2192 -38.3103 3.11344 
31.2733 -35.7462 3.11344 -38.8394 -35.3829 3.11344 -41.2138 -33.0492 3.11344 
-33.1597 -35.3829 6.94859 -25.1056 -35.3829 8.89076 -17.0515 -35.3829 10.9499 
-0.943214 -35.3829 11.0638 7.11091 -35.3829 10.1384 15.165 -35.3829 8.3362 
23.2192 -35.3829 6.80019 32.0143 -35.3829 3.11344 31.2733 -35.3829 3.7263 
39.3274 -31.8571 3.11344 -46.5258 -27.3288 3.11344 -49.268 -24.1794 3.11344 
-41.2138 -27.3288 8.10634 -33.1597 -27.3288 10.6692 45.9367 -27.3288 3.11344 
39.3274 -27.3288 10.5807 47.3815 -26.117 3.11344 -52.2628 -19.2746 3.11344 
-49.268 -19.2746 7.48855 53.7111 -19.2746 3.11344 55.4357 -16.5637 3.11344 
-55.4625 -11.2205 3.11344 58.2861 -11.2205 3.11344 -56.9223 -3.16639 3.11344 
61.0201 -3.16639 3.11344 -57.1831 4.88774 3.11344 61.7126 4.88774 3.11344 
-56.2252 12.9419 3.11344 60.0556 12.9419 3.11344 -53.3302 20.996 3.11344 
-49.268 27.5925 3.11344 -49.268 20.996 11.0273 47.3815 28.4616 3.11344 
56.0219 20.996 3.11344 55.4357 21.6647 3.11344 55.4357 20.996 5.20824 
-48.1524 29.0501 3.11344 -41.2138 35.9667 3.11344 23.2192 36.7051 3.11344 
31.2733 34.7093 3.11344 46.3741 29.0501 3.11344 39.3274 32.435 3.11344 
-39.5394 37.1042 3.11344 -33.1597 40.7437 3.11344 -25.1056 43.7262 3.11344 
7.11091 44.5017 3.11344 22.3349 37.1042 3.11344 15.165 40.4536 3.11344 
-19.3509 45.1584 3.11344 -17.0515 45.7357 3.11344 -17.0515 45.1584 4.64245 
-8.99734 46.6435 3.11344 -8.99734 45.1584 6.5824 4.61961 45.1584 3.11344 
-0.943214 46.5616 3.11344 -0.943214 45.1584 6.74479 -8.99734 -36.283 11.1676 
-25.1056 -29.7785 11.1676 -13.9154 -35.3829 11.1676 -17.0515 -34.8008 11.1676 
-2.9342 -35.3829 11.1676 -8.99734 -35.3829 11.4879 -0.943214 -35.1177 11.1676 
7.11091 -33.0507 11.1676 15.165 -31.8464 11.1676 23.2192 -31.3905 11.1676 
31.2733 -30.0438 11.1676 -41.2138 -21.037 11.1676 -30.434 -27.3288 11.1676 
-33.1597 -26.0957 11.1676 -25.1056 -27.3288 12.1218 -17.0515 -27.3288 13.5109 
-8.99734 -27.3288 14.3593 -0.943214 -27.3288 14.1693 7.11091 -27.3288 13.515 
15.165 -27.3288 14.3708 23.2192 -27.3288 14.9133 38.2085 -27.3288 11.1676 
31.2733 -27.3288 13.9611 39.3274 -26.8661 11.1676 47.3815 -21.4068 11.1676 
-42.8454 -19.2746 11.1676 -49.268 -11.6076 11.1676 -41.2138 -19.2746 11.843 
-33.1597 -19.2746 13.9107 -25.1056 -19.2746 14.3466 -17.0515 -19.2746 15.156 
-8.99734 -19.2746 17.7448 -0.943214 -19.2746 18.6404 7.11091 -19.2746 18.1743 
39.3274 -19.2746 17.8363 49.2731 -19.2746 11.1676 47.3815 -19.2746 12.8932 
55.4357 -11.3168 11.1676 -49.444 -11.2205 11.1676 -49.268 -11.2205 11.3093 
-41.2138 -11.2205 15.079 -33.1597 -11.2205 16.7392 -25.1056 -11.2205 17.1389 
-17.0515 -11.2205 17.6621 47.3815 -11.2205 17.8463 55.4903 -11.2205 11.1676 
55.4357 -11.2205 11.238 -52.0834 -3.16639 11.1676 -49.268 -3.16639 13.5608 
-41.2138 -3.16639 17.9618 -33.1597 -3.16639 18.7116 -25.1056 -3.16639 19.2039 
58.3192 -3.16639 11.1676 55.4357 -3.16639 14.7585 -52.9253 4.88774 11.1676 
-49.268 4.88774 14.3775 -41.2138 4.88774 18.2494 59.2813 4.88774 11.1676 
[...]
POINT_DATA 514
SCALARS ImageScalars float
LOOKUP_TABLE default
0 0 0 0 0 0 0 0 0 
0 0 0 0 0 0 0 0 0 
0 0 0 0 0 0 0 0 0 
0 0 0 0 0 0 0 0 0 
0 0 0 0 0 0 0 0 0 
0 0 0 0 0 0 0 0 0 
0 0 0 0 0 0 0 0 0 
0 0 0 0 0 0 0 0 0 
0 0 0 0 0 0 0 0 0 
0 0 0 0 0 0 0 0 0 
0 0 0 0 0 0 0 0 0 
0 0 0 0 0 0 0 0 0 
0 0 0 0 0 0 0 0 0 
0 0 0 0 0 0 0 0 0 
0 0 0 0 0 0 0 0 0 
0 0 0 0 0 0 0 0 0 
0 0 0 0 0 0 0 0 0 
0 0 0 0 0 0 0 0 0 
0 0 0 0 0 0 0 0 0 
0 0 0 0 0 0 0 0 0 
0 0 0 0 0 0 0 0 0 
0 0 0 0 0 0 0 0 0 
0 0 0 0 0 0 0 0 0 
0 0 0 0 0 0 0 0 0 
0 0 0 0 0 0 0 0 0 
0 0 0 0 0 0 0 0 0 
0 0 0 0 0 0 0 0 0 
0 0 0 0 0 0 0 0 0 
0 0 0 0 0 0 0 0 0 
0 0 0 0 0 0 0 0 0 
0 0 0 0 0 0 0 0 0 
0 0 0 0 0 0 0 0 0 
0 0 0 0 0 0 0 0 0 
0 0 0 0 0 0 0 0 0 
0 0 0 0 0 0 0 0 0 
0 0 0 0 0 0 0 0 0 
0 0 0 0 0 0 0 0 0 
0 0 0 0 0 0 0 0 0 
0 0 0 0 0 0 0 0 0 
0 0 0 0 0 0 0 0 0 
0 0 0 0 0 0 0 0 0 
0 0 0 0 0 0 0 0 0 
0 0 0 0 0 0 0 0 0 
0 0 0 0 0 0 0 0 0 
0 0 0 0 0 0 0 0 0 
0 0 0 0 0 0 0 0 0 
0 0 0 0 0 0 0 0 0 
0 0 0 0 0 0 0 0 0 
0 0 0 0 0 0 0 0 0 
0 0 0 0 0 0 0 0 0 
0 0 0 0 0 0 0 0 0 
0 0 0 0 0 0 0 0 0 
0 0 0 0 0 0 0 0 0 
0 0 0 0 0 0 0 0 0 
0 0 0 0 0 0 0 0 0 
0 0 0 0 0 0 0 0 0 
0 0 0 0 0 0 0 0 0 
0 
NORMALS Normals float
-0.123244 -0.0816772 -0.989009 -0.299316 -0.638236 -0.70927 -0.180159 -0.513368 -0.839045 
-0.0804552 -0.490142 -0.867922 0.0650521 -0.512106 -0.856455 0.223984 -0.661553 -0.715667 
0.353438 -0.821686 -0.447117 -0.343589 -0.4742 -0.810605 -0.117541 -0.354905 -0.927484 
-0.104696 -0.221095 -0.969616 -0.0386281 -0.122734 -0.991688 -0.010343 -0.146001 -0.98923 
0.0512952 -0.213836 -0.975522 0.216935 -0.368275 -0.904053 0.31656 -0.567255 -0.760271 
0.44364 -0.714606 -0.540853 -0.453684 -0.364251 -0.813321 -0.13332 -0.105492 -0.985443 
-0.192664 -0.239815 -0.951509 -0.0430253 -0.161565 -0.985924 0.0432754 -0.0530862 -0.997652 
-0.0218026 0.0268931 -0.9994 -0.040127 -0.0419422 -0.998314 0.00645338 -0.00593561 -0.999962 
0.0380816 -0.070727 -0.996769 0.148326 -0.193131 -0.969897 0.304213 -0.335193 -0.891684 
0.488753 -0.472535 -0.73337 -0.707662 -0.27197 -0.652109 -0.152757 -0.0860984 -0.984506 
-0.389816 -0.131854 -0.911405 0.0549222 -0.00533168 -0.998476 -0.0924888 -0.0164302 -0.995578 
0.0815846 0.00617202 -0.996647 0.0863846 0.0366818 -0.995586 -0.0271585 0.0404178 -0.998814 
-0.0485795 -0.0207162 -0.998604 0.0216718 0.0769623 -0.996798 0.0133265 0.0627378 -0.997941 
0.0176158 0.0134003 -0.999755 0.145941 -0.103092 -0.983907 0.365421 -0.209494 -0.906962 
0.546348 -0.353308 -0.759392 -0.6309 -0.124509 -0.765809 -0.273219 -0.0431819 -0.960982 
-0.0684106 0.0320283 -0.997143 0.0780847 0.0365032 -0.996278 0.0800392 0.0572754 -0.995145 
-0.0825239 -0.0437011 -0.99563 -0.0010017 0.0976571 -0.99522 0.0911671 0.0807122 -0.992559 
-0.0255181 -0.0303457 -0.999214 -0.00921016 0.0188025 -0.999781 0.0907096 0.019569 -0.995685 
0.246623 -0.0326432 -0.968562 0.464799 -0.142796 -0.873825 -0.563428 -0.0105611 -0.826098 
-0.268639 0.00762741 -0.963211 -0.0471292 0.0139516 -0.998791 0.10556 0.0297152 -0.993969 
0.00924863 0.0459743 -0.9989 0.0221482 -0.0304927 -0.99929 0.0901469 0.243231 -0.96577 
-0.147723 0.0466927 -0.987926 -0.0410377 -0.0625525 -0.997198 0.0701281 0.0531307 -0.996122 
0.0987873 0.0667081 -0.99287 0.215543 0.036795 -0.975801 0.400609 -0.0334109 -0.91564 
-0.565896 0.0509345 -0.822902 -0.261697 0.0369581 -0.964442 -0.0416148 0.0414187 -0.998275 
0.109324 0.0438295 -0.993039 0.0296211 0.0364504 -0.998896 0.0682497 0.200271 -0.977361 
0.074265 -0.00528082 -0.997225 -0.181887 0.00520283 -0.983306 -0.00271629 0.111342 -0.993778 
0.110624 0.0980347 -0.989015 0.0745965 0.0850459 -0.993581 0.159695 0.0665074 -0.984923 
0.379998 0.0983102 -0.919748 -0.602128 0.172281 -0.77959 -0.267794 0.0878298 -0.959465 
-0.0443058 0.0687803 -0.996648 0.0995017 0.0561683 -0.993451 0.154646 0.00841417 -0.987934 
0.0181597 0.102942 -0.994522 -0.104918 -0.0476717 -0.993338 -0.0449229 -0.018182 -0.998825 
0.0421128 0.0930976 -0.994766 0.0466178 0.0593712 -0.997147 0.0728126 0.111772 -0.991063 
0.236926 0.196076 -0.951536 0.394611 0.272377 -0.87755 -0.352113 0.239899 -0.904691 
-0.078076 0.133563 -0.98796 0.0436321 0.0838904 -0.995519 0.0886659 -0.0383502 -0.995323 
0.0236536 -0.0639817 -0.997671 -0.0699662 -0.0255733 -0.997222 -0.0303231 0.0365471 -0.998872 
0.0657528 0.0861787 -0.994108 0.124253 0.149665 -0.980898 0.207008 0.229836 -0.950959 
0.32404 0.352524 -0.877909 -0.455566 0.471312 -0.755198 -0.194366 0.331113 -0.923356 
-0.0763423 0.205582 -0.975658 0.00233924 0.125286 -0.992118 0.0341049 0.040607 -0.998593 
-0.00382031 0.0704702 -0.997507 0.0692379 0.185803 -0.980145 0.163241 0.293201 -0.942011 
0.212958 0.470789 -0.856158 0.305624 0.591599 -0.746059 -0.36686 0.625784 -0.688337 
-0.194153 0.485137 -0.852611 -0.0966847 0.40139 -0.91079 -0.0337261 0.300653 -0.953137 
0.0853192 0.342321 -0.935701 0.222026 0.482345 -0.847377 -0.322401 -0.713879 -0.621638 
-0.177163 -0.733614 -0.656066 -0.0517436 -0.730623 -0.680817 -0.0359493 -0.981789 -0.186544 
0.126506 -0.782976 -0.609053 0.271998 -0.794656 -0.542715 0.353749 -0.82281 -0.444798 
-0.361969 -0.710652 -0.603285 -0.425091 -0.71548 -0.554424 -0.525923 -0.849562 0.040602 
0.354016 -0.822601 -0.444972 0.387259 -0.748516 -0.538288 0.446055 -0.718797 -0.53326 
-0.559976 -0.590001 -0.581658 -0.589877 -0.558476 -0.583224 -0.648043 -0.664839 -0.371522 
0.449089 -0.717739 -0.532137 0.535977 -0.571529 -0.621356 -0.721651 -0.40004 -0.564967 
-0.7336 -0.30059 -0.609489 -0.858939 -0.50103 -0.105796 0.564663 -0.520057 -0.640855 
0.551629 -0.362094 -0.751394 -0.730644 -0.279441 -0.622954 0.551536 -0.357445 -0.753685 
-0.759098 -0.14836 -0.633846 0.598462 -0.163396 -0.784312 0.832116 -0.263295 -0.488119 
-0.736756 -0.0385832 -0.675057 0.569179 -0.0462985 -0.820909 0.73348 -0.0768893 -0.675348 
-0.731593 0.055086 -0.679513 0.560875 0.0778738 -0.82423 0.703224 0.0793476 -0.706527 
-0.715546 0.187512 -0.672929 -0.664134 0.30921 -0.680673 0.463211 0.277155 -0.841796 
0.417329 0.33596 -0.844374 0.743537 0.295592 -0.599815 -0.655464 0.32171 -0.683279 
-0.678262 0.328464 -0.657322 0.38818 0.386016 -0.836844 0.363327 0.444115 -0.818997 
0.510381 0.471327 -0.719279 -0.55165 0.503205 -0.665182 -0.498286 0.55051 -0.669814 
0.36829 0.692836 -0.619951 0.292013 0.650771 -0.700875 0.333317 0.608372 -0.720266 
0.31591 0.636621 -0.703502 0.396581 0.741329 -0.541438 -0.382011 0.633257 -0.673092 
-0.371506 0.6388 -0.673735 -0.255444 0.670749 -0.696308 -0.172189 0.691446 -0.701608 
-0.02446 0.726567 -0.68666 0.161372 0.712951 -0.682393 0.368332 0.692863 -0.619897 
0.307305 0.654604 -0.690694 0.369765 0.695326 -0.616276 0.364943 0.91652 -0.163728 
-0.207506 0.889389 -0.407343 -0.0271331 0.790496 -0.611866 0.176644 0.838257 -0.51587 
0.367825 0.917923 -0.148738 -0.0359972 -0.999007 0.0262599 -0.526145 -0.848881 0.050716 
-0.419844 -0.905391 0.0632333 -0.179778 -0.983301 0.0282783 -0.264435 -0.964052 0.0260483 
0.194856 -0.979363 0.0536514 -0.0269221 -0.97975 0.198407 0.208504 -0.976475 0.0549698 
0.36458 -0.927691 0.0804392 0.402543 -0.909344 0.105133 -0.527464 -0.848009 0.0515939 
-0.659109 -0.75 0.055449 -0.526653 -0.848021 0.0591426 0.392305 -0.913936 0.104009 
0.396546 -0.866604 0.3029 0.392868 -0.91644 0.0761113 0.461086 -0.887351 0.00271363 
-0.704895 -0.708006 0.0430101 -0.846884 -0.531665 -0.010973 -0.644543 -0.695902 0.316678 
0.49766 -0.866924 -0.0278709 0.549439 -0.832349 -0.0728762 -0.858362 -0.5127 -0.0187961 
-0.839674 -0.536153 0.086527 0.703472 -0.695713 -0.145293 0.711233 -0.686415 -0.151601 
-0.933502 -0.34504 -0.0975767 0.821985 -0.52565 -0.219166 0.865807 -0.431024 -0.25416 
-0.966472 -0.198334 -0.163082 0.897243 -0.31433 -0.310083 -0.983514 -0.0590536 -0.17092 
0.899985 -0.147828 -0.410089 -0.979597 0.051964 -0.194136 0.894406 0.0863873 -0.438833 
-0.956139 0.215643 -0.198232 0.836652 0.313769 -0.448958 0.773924 0.466811 -0.427935 
-0.897237 0.396194 -0.194926 -0.800458 0.57989 -0.151641 0.719191 0.546716 -0.428796 
0.57033 0.736065 -0.364598 0.794416 0.598031 -0.106119 -0.786817 0.599178 -0.148 
-0.624292 0.762837 -0.168343 0.334145 0.913395 -0.232501 0.487823 0.809798 -0.325968 
0.371514 0.877715 -0.302643 -0.608072 0.776434 -0.165528 -0.42618 0.894491 -0.135114 
-0.299678 0.947862 -0.108404 0.482703 0.862341 -0.152859 0.36371 0.9187 -0.153964 
0.364877 0.918564 -0.152002 0.359947 0.926886 -0.106398 -0.277084 0.955765 -0.0986765 
-0.216894 0.971923 -0.091229 -0.0513774 0.995378 -0.0811375 0.175305 0.978088 -0.112302 
0.370315 0.918444 -0.139023 0.367206 0.919694 -0.139008 0.366965 0.923842 -0.108874 
-0.341585 -0.727532 0.594993 -0.2138 -0.751293 0.624378 -0.018447 -0.748444 0.662941 
0.176346 -0.748358 0.639424 0.29313 -0.747425 0.59618 -0.371198 -0.7104 0.597949 
-0.446324 -0.668164 0.595275 -0.34396 -0.691139 0.635624 -0.193343 -0.582899 0.789207 
-0.0358612 -0.578258 0.815065 0.157085 -0.612914 0.774378 0.325904 -0.734619 0.595081 
0.290499 -0.688238 0.664785 0.324256 -0.734787 0.595774 0.258443 -0.819102 0.512132 
0.35838 -0.851679 0.38237 -0.533228 -0.626684 0.568274 -0.573319 -0.605813 0.55163 
-0.35642 -0.554412 0.752058 -0.218902 -0.43412 0.873855 -0.145013 -0.371906 0.916874 
0.0738543 -0.362304 0.92913 0.140331 -0.453658 0.880058 0.162161 -0.644185 0.747482 
0.172898 -0.783006 0.597501 0.368699 -0.852385 0.37081 0.345725 -0.847904 0.401913 
0.466397 -0.837669 0.284226 -0.658322 -0.558025 0.505193 -0.733048 -0.515896 0.443274 
-0.452545 -0.505613 0.734546 -0.194934 -0.389241 0.900273 0.61365 -0.759587 0.21555 
0.348996 -0.714704 0.606135 0.649928 -0.73499 0.193347 -0.8212 -0.427591 0.377884 
-0.659252 -0.441186 0.608886 0.788978 -0.591558 0.166052 0.842408 -0.521642 0.13505 
-0.91259 -0.276559 0.301156 0.912143 -0.398595 0.0954791 -0.969581 -0.0931959 0.226333 
0.978698 -0.197684 0.0554173 -0.979393 0.0404927 0.197863 0.998038 0.0561564 0.0276845 
-0.952831 0.229481 0.198624 0.956791 0.290687 0.00721961 -0.881562 0.420455 0.21463 
-0.786746 0.579479 0.212686 -0.733863 0.353906 0.579824 0.524666 0.850708 0.0319627 
0.797891 0.602729 0.00932163 0.783623 0.621157 0.00996325 0.791452 0.600726 0.112835 
-0.760659 0.614077 0.210494 -0.608675 0.763659 0.215267 0.327675 0.938747 0.106696 
0.271386 0.959926 0.0699426 0.496 0.867517 0.0373986 0.332386 0.942707 0.0287039 
-0.564852 0.796593 0.215362 -0.406414 0.88669 0.220471 -0.275667 0.934132 0.226727 
0.344752 0.92231 0.174615 0.343212 0.93301 0.108152 0.458168 0.880259 0.123394 
-0.20765 0.947789 0.24203 -0.178606 0.951599 0.250118 -0.172482 0.940707 0.292096 
-0.0496472 0.952267 0.301204 -0.0479927 0.91981 0.389417 0.278757 0.938792 0.202394 
0.125329 0.959004 0.254173 0.0952567 0.929201 0.357088 -0.00953809 -0.355994 0.93444 
-0.187683 -0.33779 0.922319 -0.0909219 -0.356872 0.929718 -0.143165 -0.359776 0.92199 
0.0537739 -0.354638 0.933456 -0.00707849 -0.336068 0.941811 0.0724968 -0.361118 0.929698 
0.0927963 -0.433088 0.896562 0.0495743 -0.592964 0.803702 0.0769564 -0.703628 0.706389 
0.202268 -0.735999 0.646059 -0.326789 -0.385982 0.862686 -0.182377 -0.359451 0.915169 
-0.179855 -0.379636 0.907485 -0.167348 -0.306616 0.937007 -0.12638 -0.24318 0.961713 
-0.0427078 -0.33659 0.940682 0.046945 -0.393964 0.917926 -0.0074107 -0.426605 0.904408 
-0.0754106 -0.543092 0.83628 0.01175 -0.618574 0.785639 0.320624 -0.705826 0.631672 
0.189084 -0.675283 0.71291 0.34024 -0.698669 0.629364 0.568202 -0.596862 0.566482 
-0.361367 -0.375664 0.853399 -0.572557 -0.290794 0.766562 -0.306277 -0.362328 0.880291 
-0.134593 -0.341771 0.930095 -0.071881 -0.281939 0.956736 -0.183815 -0.247484 0.951296 
-0.206157 -0.427232 0.880325 -0.0234255 -0.505097 0.862745 -0.0348214 -0.531251 0.846499 
0.305119 -0.482713 0.820908 0.611426 -0.559462 0.559608 0.555581 -0.541953 0.630568 
0.767679 -0.403458 0.497886 -0.578585 -0.28412 0.764536 -0.571532 -0.283801 0.76994 
-0.287485 -0.328678 0.899624 -0.115584 -0.289563 0.950154 -0.0538724 -0.297015 0.953352 
-0.257951 -0.319535 0.911789 0.452433 -0.358127 0.816731 0.768973 -0.401189 0.497723 
0.767097 -0.400962 0.500791 -0.692753 -0.151032 0.705182 -0.5849 -0.158612 0.795446 
-0.276714 -0.178178 0.944289 -0.0686816 -0.183246 0.980665 -0.0996999 -0.191657 0.976385 
0.837947 -0.2069 0.505012 0.726542 -0.198489 0.65783 -0.746179 0.0135664 0.665607 
-0.595105 0.00258313 0.803644 -0.299065 -0.0468558 0.953082 0.868406 0.0337868 0.494702 
0.716208 0.00997263 0.697815 -0.72656 0.188376 0.660776 -0.729586 0.345897 0.589965 
-0.642913 0.151819 0.750742 -0.357012 0.0472052 0.932906 0.845571 0.279956 0.454571 
0.777179 0.451295 0.438549 0.760213 0.264552 0.59337 -0.729094 0.351296 0.587378 
-0.439627 0.250764 0.862465 0.69996 0.566516 0.434874 0.525918 0.75298 0.395515 
0.519569 0.503607 0.690238 -0.634453 0.539724 0.553324 -0.582338 0.60146 0.546926 
-0.578884 0.51164 0.634916 -0.388485 0.361698 0.847499 0.315149 0.901251 0.297369 
0.242524 0.907999 0.341643 0.286035 0.735565 0.614107 0.409426 0.826638 0.386057 
0.341112 0.859763 0.380067 0.339841 0.787902 0.513536 -0.428046 0.762134 0.485724 
-0.419254 0.767778 0.484503 -0.420429 0.759896 0.495779 -0.251545 0.842155 0.476971 
-0.23781 0.711861 0.660833 -0.134033 0.858666 0.4947 -0.0991014 0.666983 0.738453 
-0.0484641 0.854947 0.516446 -0.0377303 0.606799 0.793959 0.0502226 0.865005 0.499244 
0.00628289 0.586338 0.810042 0.239768 0.876908 0.416585 0.131049 0.65768 0.741811 
0.352732 0.885476 0.30251 0.382458 0.868302 0.315876 0.338254 0.826153 0.450617 
-0.10321 -0.457666 0.883113 -0.0186035 -0.430984 0.902168 0.116647 -0.428952 0.895764 
-0.240973 -0.390311 0.888588 -0.0301166 -0.455631 0.889659 -0.0983528 -0.462397 0.881201 
-0.0289276 -0.494231 0.868849 -0.10263 -0.456074 0.884004 -0.0145511 -0.392978 0.919433 
0.154108 -0.424445 0.892242 0.11393 -0.412158 0.903961 0.275314 -0.384999 0.880896 
-0.27475 -0.313938 0.908821 -0.2414 -0.250284 0.937595 -0.250642 -0.268605 0.93007 
-0.064672 -0.101826 0.992698 -0.0100708 -0.290533 0.956812 0.0283916 -0.224807 0.97399 
6.18048e-06 -0.183216 0.983073 0.0638293 -0.221682 0.973028 0.358751 -0.314857 0.878728 
0.250109 -0.26431 0.931443 0.411988 -0.274446 0.868876 -0.0968724 -0.145653 0.984582 
-0.101648 -0.191593 0.976197 -0.0992458 -0.19074 0.976611 -0.217224 -0.179154 0.95954 
-0.0213404 -0.0621762 0.997837 -0.056181 -0.0575472 0.996761 -0.138944 -0.11427 0.983685 
0.0276994 -0.0638708 0.997574 -0.00433916 -0.0876594 0.996141 0.0329378 -0.0873283 0.995635 
0.162678 -0.130267 0.978042 0.462885 -0.193626 0.865013 0.381816 -0.19136 0.904211 
-0.20054 -0.0782765 0.976553 -0.134611 -0.0981177 0.986029 -0.0570829 -0.131711 0.989643 
-0.130736 -0.103925 0.985955 -0.142713 0.0181783 0.989597 -0.11757 -0.122195 0.985518 
-0.0156788 -0.0304535 0.999413 0.0543409 -0.0676861 0.996226 -0.0257618 -0.0684661 0.997321 
0.0164352 -0.0392663 0.999094 0.143296 -0.0401435 0.988865 0.518194 -0.00325389 0.855257 
0.378892 7.02015e-05 0.925441 -0.306278 0.02856 0.951514 -0.152164 -0.0281963 0.987953 
-0.111481 -0.125311 0.985834 -0.0571118 -0.156954 0.985953 -0.046443 -0.0264324 0.998571 
-0.108856 0.0298899 0.993608 -0.084306 0.0568119 0.994819 -0.00943684 -0.0432649 0.999019 
0.0248969 -0.0206532 0.999477 0.0621721 0.0536376 0.996623 0.194734 0.111381 0.974512 
0.499486 0.223151 0.837089 0.461738 0.321127 0.826846 0.422618 0.210673 0.881482 
-0.347427 0.146892 0.92613 -0.366382 0.283825 0.886119 -0.310686 0.0878192 0.946447 
-0.17966 0.00301187 0.983724 -0.0268313 -0.0222566 0.999392 0.043625 0.0160859 0.998918 
-0.0322267 0.0500261 0.998228 -0.0889475 0.102626 0.990735 -0.0232379 0.122282 0.992223 
0.0723227 0.190174 0.979083 0.270837 0.634223 0.724161 0.15858 0.278361 0.947295 
0.40616 0.452269 0.794032 0.317535 0.534969 0.782931 0.294435 0.418332 0.859248 
-0.35501 0.347258 0.867974 -0.216501 0.490176 0.844307 -0.203666 0.307508 0.929494 
-0.0804239 0.557708 0.826132 -0.0450285 0.295432 0.954302 -0.0256347 0.522456 0.852281 
0.0190452 0.255368 0.966656 0.00095439 0.5248 0.851225 -0.0190575 0.223931 0.974419 
0.0879854 0.564974 0.820404 -0.00872927 0.287885 0.957625 0.199559 0.634416 0.746788 
0.0905081 0.413023 0.906212 0.271208 0.665524 0.695359 0.255647 0.664255 0.702431 
0.215343 0.586696 0.780651 
