# vtk DataFile Version 4.2
vtk output
ASCII
DATASET POLYDATA
POINTS 568 float
-3.95235 -35.5242 -14.1553 4.38894 -35.5242 -17.3562 12.7302 -35.5242 -18.6763 
21.0715 -35.5242 -18.8894 29.4128 -35.5242 -18.7061 37.7541 -35.5242 -17.0421 
-37.3175 -27.1829 -16.2948 -28.9762 -27.1829 -16.0471 -20.6349 -27.1829 -15.5165 
-12.2936 -27.1829 -15.8066 -3.95235 -27.1829 -17.9591 4.38894 -27.1829 -19.12 
12.7302 -27.1829 -20.703 21.0715 -27.1829 -20.3325 29.4128 -27.1829 -21.078 
37.7541 -27.1829 -19.8547 46.0954 -27.1829 -18.8323 54.4367 -27.1829 -14.2151 
-45.6588 -18.8416 -16.9636 -37.3175 -18.8416 -18.2676 -28.9762 -18.8416 -18.4389 
-20.6349 -18.8416 -17.6368 -12.2936 -18.8416 -17.5925 -3.95235 -18.8416 -18.5809 
4.38894 -18.8416 -18.7078 12.7302 -18.8416 -19.2587 21.0715 -18.8416 -19.895 
29.4128 -18.8416 -20.6483 37.7541 -18.8416 -20.8772 46.0954 -18.8416 -20.9342 
54.4367 -18.8416 -18.4244 -54.0001 -10.5003 -17.0185 -45.6588 -10.5003 -19.3141 
-37.3175 -10.5003 -19.5756 -28.9762 -10.5003 -19.0533 -20.6349 -10.5003 -18.015 
-12.2936 -10.5003 -18.1665 -3.95235 -10.5003 -18.5999 4.38894 -10.5003 -17.4748 
12.7302 -10.5003 -17.4553 21.0715 -10.5003 -18.7465 29.4128 -10.5003 -20.3061 
37.7541 -10.5003 -21.2394 46.0954 -10.5003 -21.1427 54.4367 -10.5003 -19.8227 
62.778 -10.5003 -17.0306 -54.0001 -2.15905 -18.345 -45.6588 -2.15905 -20.0441 
-37.3175 -2.15905 -20.5804 -28.9762 -2.15905 -19.711 -20.6349 -2.15905 -17.9917 
-12.2936 -2.15905 -18.8847 -3.95235 -2.15905 -19.3444 4.38894 -2.15905 -19.8426 
12.7302 -2.15905 -20.5802 21.0715 -2.15905 -18.076 29.4128 -2.15905 -19.8144 
37.7541 -2.15905 -20.8814 46.0954 -2.15905 -21.3464 54.4367 -2.15905 -20.7609 
62.778 -2.15905 -19.5024 -54.0001 6.18224 -18.1398 -45.6588 6.18224 -20.4245 
-37.3175 6.18224 -21.083 -28.9762 6.18224 -20.0048 -20.6349 6.18224 -18.0102 
-12.2936 6.18224 -18.5751 -3.95235 6.18224 -20.7708 4.38894 6.18224 -19.8762 
12.7302 6.18224 -20.8852 21.0715 6.18224 -18.6568 29.4128 6.18224 -20.0662 
37.7541 6.18224 -21.3446 46.0954 6.18224 -21.3303 54.4367 6.18224 -21.0606 
62.778 6.18224 -20.4671 71.1193 6.18224 -15.0878 -54.0001 14.5235 -18.0937 
-45.6588 14.5235 -20.9043 -37.3175 14.5235 -20.9552 -28.9762 14.5235 -20.2374 
-20.6349 14.5235 -19.0673 -12.2936 14.5235 -18.6495 -3.95235 14.5235 -19.2863 
4.38894 14.5235 -19.2278 12.7302 14.5235 -19.7143 21.0715 14.5235 -19.534 
29.4128 14.5235 -20.07 37.7541 14.5235 -21.0184 46.0954 14.5235 -20.9776 
54.4367 14.5235 -19.7358 62.778 14.5235 -17.9229 -54.0001 22.8648 -16.5988 
-45.6588 22.8648 -19.2112 -37.3175 22.8648 -20.0448 -28.9762 22.8648 -21.3145 
-20.6349 22.8648 -20.2436 -12.2936 22.8648 -19.4629 -3.95235 22.8648 -19.4561 
4.38894 22.8648 -19.3216 12.7302 22.8648 -19.3062 21.0715 22.8648 -19.5655 
29.4128 22.8648 -20.1616 37.7541 22.8648 -19.7216 46.0954 22.8648 -19.6873 
54.4367 22.8648 -18.2721 62.778 22.8648 -14.9056 -45.6588 31.2061 -16.6293 
-37.3175 31.2061 -18.6477 -28.9762 31.2061 -19.3116 -20.6349 31.2061 -19.4031 
-12.2936 31.2061 -18.9521 -3.95235 31.2061 -18.4894 4.38894 31.2061 -18.1447 
12.7302 31.2061 -17.6353 21.0715 31.2061 -17.6956 29.4128 31.2061 -17.9348 
37.7541 31.2061 -17.7091 46.0954 31.2061 -16.8729 54.4367 31.2061 -14.4077 
-28.9762 39.5474 -15.0415 -20.6349 39.5474 -14.9403 -12.2936 39.5474 -14.7718 
-3.95235 39.5474 -14.2473 -3.95235 -35.5856 -14.0934 4.38894 -39.1003 -14.0934 
12.7302 -41.0267 -14.0934 12.7302 -43.8655 -6.66062 21.0715 -41.7217 -14.0934 
21.0715 -43.8655 -7.60231 29.4128 -40.5312 -14.0934 29.4128 -43.8655 -6.05671 
37.7541 -38.7123 -14.0934 -45.6588 -35.5242 -7.5309 -37.3175 -30.6665 -14.0934 
-37.3175 -35.5242 -9.83283 -28.9762 -30.5812 -14.0934 -28.9762 -35.5242 -9.91702 
-20.6349 -29.5332 -14.0934 -20.6349 -35.5242 -8.56297 -4.08642 -35.5242 -14.0934 
-12.2936 -30.1264 -14.0934 -12.2936 -35.5242 -8.80575 44.5196 -35.5242 -14.0934 
46.0954 -34.5902 -14.0934 46.0954 -35.5242 -12.7754 54.4367 -27.3297 -14.0934 
-54.0001 -27.1829 -10.0402 -45.071 -27.1829 -14.0934 -45.6588 -26.6847 -14.0934 
-45.6588 -27.1829 -13.8945 54.5814 -27.1829 -14.0934 -62.3414 -18.8416 -7.95906 
-53.9708 -18.8416 -14.0934 -54.0001 -18.815 -14.0934 -54.0001 -18.8416 -14.0819 
61.3417 -18.8416 -14.0934 62.778 -16.3967 -14.0934 62.778 -18.8416 -12.0958 
-59.0649 -10.5003 -14.0934 -62.3414 -10.5003 -11.3941 66.2133 -10.5003 -14.0934 
-61.4657 -2.15905 -14.0934 -62.3414 -2.15905 -13.3785 69.9601 -2.15905 -14.0934 
71.1193 1.1257 -14.0934 71.1193 -2.15905 -12.2227 -61.6791 6.18224 -14.0934 
-62.3414 6.18224 -13.6466 72.1503 6.18224 -14.0934 71.1193 10.5475 -14.0934 
-60.7118 14.5235 -14.0934 -62.3414 14.5235 -12.64 69.1466 14.5235 -14.0934 
71.1193 14.5235 -11.8668 -57.3788 22.8648 -14.0934 -62.3414 22.8648 -8.97529 
-54.0001 26.9407 -14.0934 64.3012 22.8648 -14.0934 62.778 24.7207 -14.0934 
-50.2331 31.2061 -14.0934 -54.0001 31.2061 -10.5596 -45.6588 34.7196 -14.0934 
-37.3175 38.8902 -14.0934 4.38894 38.1907 -14.0934 12.7302 37.0434 -14.0934 
21.0715 37.4729 -14.0934 29.4128 37.421 -14.0934 37.7541 36.5885 -14.0934 
46.0954 35.0995 -14.0934 55.2486 31.2061 -14.0934 54.4367 31.6095 -14.0934 
62.778 31.2061 -9.00921 -45.6588 39.5474 -6.26922 -34.826 39.5474 -14.0934 
-37.3175 39.5474 -13.2691 -28.9762 40.5051 -14.0934 -20.6349 40.3187 -14.0934 
-12.2936 40.244 -14.0934 -2.79248 39.5474 -14.0934 -3.95235 39.703 -14.0934 
4.38894 39.5474 -12.3009 12.7302 39.5474 -10.9803 21.0715 39.5474 -11.8322 
29.4128 39.5474 -11.4195 37.7541 39.5474 -10.7896 46.0954 39.5474 -8.28281 
12.7302 -44.1215 -5.75208 21.0715 -44.3277 -5.75208 29.4128 -43.9667 -5.75208 
-45.6588 -36.7562 -5.75208 -37.3175 -38.6794 -5.75208 -28.9762 -38.8318 -5.75208 
-20.6349 -37.4448 -5.75208 -12.2936 -37.3524 -5.75208 -3.95235 -39.8858 -5.75208 
11.2676 -43.8655 -5.75208 4.38894 -42.6413 -5.75208 12.7302 -43.8655 -1.99384 
21.0715 -43.8655 -1.54948 29.9198 -43.8655 -5.75208 29.4128 -43.8655 -4.98196 
37.7541 -42.2671 -5.75208 46.0954 -38.7475 -5.75208 -48.0752 -35.5242 -5.75208 
-54.0001 -30.9718 -5.75208 50.9074 -35.5242 -5.75208 54.4367 -32.4827 -5.75208 
-58.0072 -27.1829 -5.75208 -62.3414 -21.8631 -5.75208 59.3743 -27.1829 -5.75208 
62.778 -23.0727 -5.75208 -63.9619 -18.8416 -5.75208 65.9026 -18.8416 -5.75208 
62.778 -18.8416 2.01456 -67.2713 -10.5003 -5.75208 70.1345 -10.5003 -5.75208 
71.1193 -8.10642 -5.75208 -69.2902 -2.15905 -5.75208 -70.6827 -2.15905 0.097038 
73.3469 -2.15905 -5.75208 71.1193 -2.15905 0.249273 -69.3983 6.18224 -5.75208 
-70.6827 6.18224 1.27902 74.4215 6.18224 -5.75208 -67.8871 14.5235 -5.75208 
73.6327 14.5235 -5.75208 71.1193 22.6898 -5.75208 71.1193 14.5235 1.94362 
-64.2956 22.8648 -5.75208 -62.3414 25.8538 -5.75208 71.0534 22.8648 -5.75208 
-57.8556 31.2061 -5.75208 -54.0001 34.8413 -5.75208 54.4367 37.7671 -5.75208 
64.5556 31.2061 -5.75208 62.778 32.9876 -5.75208 62.778 31.2061 -0.562478 
-46.1503 39.5474 -5.75208 -45.6588 39.7888 -5.75208 -45.6588 39.5474 -2.61459 
-37.3175 42.6068 -5.75208 -28.9762 44.5308 -5.75208 -20.6349 44.2508 -5.75208 
-12.2936 43.8042 -5.75208 -3.95235 43.3084 -5.75208 4.38894 42.4562 -5.75208 
12.7302 42.0773 -5.75208 21.0715 42.5481 -5.75208 29.4128 42.4237 -5.75208 
37.7541 42.3238 -5.75208 49.9528 39.5474 -5.75208 46.0954 40.9572 -5.75208 
46.0954 39.5474 2.13045 -45.6588 -38.7626 2.58921 -37.3175 -40.6639 2.58921 
-28.9762 -41.7372 2.58921 -20.6349 -40.5222 2.58921 -12.2936 -40.0666 2.58921 
-3.95235 -41.4364 2.58921 4.38894 -42.9345 2.58921 12.7302 -43.5625 2.58921 
21.0715 -43.4238 2.58921 29.4128 -42.9002 2.58921 37.7541 -41.3647 2.58921 
46.0954 -37.3065 2.58921 -51.8037 -35.5242 2.58921 -54.0001 -34.0614 2.58921 
48.4784 -35.5242 2.58921 46.0954 -35.5242 5.50089 54.4367 -29.5737 2.58921 
-61.2088 -27.1829 2.58921 -62.3414 -25.5115 2.58921 56.4567 -27.1829 2.58921 
54.4367 -27.1829 4.89406 -65.8848 -18.8416 2.58921 62.5132 -18.8416 2.58921 
62.778 -18.3477 2.58921 -69.5484 -10.5003 2.58921 -70.6827 -4.65854 2.58921 
66.9648 -10.5003 2.58921 62.778 -10.5003 6.87659 -71.168 -2.15905 2.58921 
-70.6827 -2.15905 4.76924 69.9511 -2.15905 2.58921 62.778 -2.15905 9.568 
71.1193 3.75482 2.58921 -70.8784 6.18224 2.58921 -70.6827 7.77814 2.58921 
-70.6827 6.18224 3.35383 62.778 6.18224 10.7893 71.5943 6.18224 2.58921 
71.1193 11.4499 2.58921 71.1193 6.18224 3.43238 -69.6974 14.5235 2.58921 
70.8167 14.5235 2.58921 62.778 14.5235 9.87252 -64.9402 22.8648 2.58921 
-62.3414 26.4043 2.58921 -62.3414 22.8648 8.81089 68.3493 22.8648 2.58921 
62.778 29.6525 2.58921 62.778 22.8648 7.29329 -57.7091 31.2061 2.58921 
-54.0001 34.6709 2.58921 -54.0001 31.2061 8.34177 -45.6588 39.1354 2.58921 
46.0954 39.4244 2.58921 61.2782 31.2061 2.58921 54.4367 35.6754 2.58921 
54.4367 31.2061 7.83365 -44.4139 39.5474 2.58921 -37.3175 41.7042 2.58921 
-37.3175 39.5474 7.36228 -28.9762 43.2733 2.58921 -28.9762 39.5474 9.3532 
-20.6349 42.7595 2.58921 -20.6349 39.5474 8.61577 -12.2936 42.0912 2.58921 
-12.2936 39.5474 7.04083 -3.95235 41.5221 2.58921 -3.95235 39.5474 5.833 
4.38894 40.8876 2.58921 4.38894 39.5474 4.85017 12.7302 40.7542 2.58921 
12.7302 39.5474 4.58175 21.0715 41.3811 2.58921 21.0715 39.5474 5.54142 
29.4128 41.1679 2.58921 29.4128 39.5474 5.08067 45.5788 39.5474 2.58921 
37.7541 40.8819 2.58921 37.7541 39.5474 4.5132 -45.6588 -37.0504 10.9305 
-37.3175 -39.5824 10.9305 -28.9762 -40.9271 10.9305 -20.6349 -41.088 10.9305 
-12.2936 -41.4493 10.9305 -3.95235 -42.325 10.9305 4.38894 -42.8034 10.9305 
12.7302 -42.5261 10.9305 21.0715 -42.5935 10.9305 29.4128 -40.4629 10.9305 
37.7541 -37.4046 10.9305 -48.3022 -35.5242 10.9305 -54.0001 -31.1599 10.9305 
-45.6588 -35.5242 13.2274 -37.3175 -35.5242 16.4289 21.0715 -35.5242 18.4546 
29.4128 -35.5242 16.9841 40.6511 -35.5242 10.9305 37.7541 -35.5242 12.9476 
46.0954 -30.3032 10.9305 -57.974 -27.1829 10.9305 -62.3414 -20.8796 10.9305 
-54.0001 -27.1829 14.9782 -45.6588 -27.1829 19.0889 37.7541 -27.1829 17.2327 
48.5772 -27.1829 10.9305 46.0954 -27.1829 13.1828 54.4367 -19.0199 10.9305 
[...]
POINT_DATA 568
SCALARS ImageScalars float
LOOKUP_TABLE default
0 0 0 0 0 0 0 0 0 
0 0 0 0 0 0 0 0 0 
0 0 0 0 0 0 0 0 0 
0 0 0 0 0 0 0 0 0 
0 0 0 0 0 0 0 0 0 
0 0 0 0 0 0 0 0 0 
0 0 0 0 0 0 0 0 0 
0 0 0 0 0 0 0 0 0 
0 0 0 0 0 0 0 0 0 
0 0 0 0 0 0 0 0 0 
0 0 0 0 0 0 0 0 0 
0 0 0 0 0 0 0 0 0 
0 0 0 0 0 0 0 0 0 
0 0 0 0 0 0 0 0 0 
0 0 0 0 0 0 0 0 0 
0 0 0 0 0 0 0 0 0 
0 0 0 0 0 0 0 0 0 
0 0 0 0 0 0 0 0 0 
0 0 0 0 0 0 0 0 0 
0 0 0 0 0 0 0 0 0 
0 0 0 0 0 0 0 0 0 
0 0 0 0 0 0 0 0 0 
0 0 0 0 0 0 0 0 0 
0 0 0 0 0 0 0 0 0 
0 0 0 0 0 0 0 0 0 
0 0 0 0 0 0 0 0 0 
0 0 0 0 0 0 0 0 0 
0 0 0 0 0 0 0 0 0 
0 0 0 0 0 0 0 0 0 
0 0 0 0 0 0 0 0 0 
0 0 0 0 0 0 0 0 0 
0 0 0 0 0 0 0 0 0 
0 0 0 0 0 0 0 0 0 
0 0 0 0 0 0 0 0 0 
0 0 0 0 0 0 0 0 0 
0 0 0 0 0 0 0 0 0 
0 0 0 0 0 0 0 0 0 
0 0 0 0 0 0 0 0 0 
0 0 0 0 0 0 0 0 0 
0 0 0 0 0 0 0 0 0 
0 0 0 0 0 0 0 0 0 
0 0 0 0 0 0 0 0 0 
0 0 0 0 0 0 0 0 0 
0 0 0 0 0 0 0 0 0 
0 0 0 0 0 0 0 0 0 
0 0 0 0 0 0 0 0 0 
0 0 0 0 0 0 0 0 0 
0 0 0 0 0 0 0 0 0 
0 0 0 0 0 0 0 0 0 
0 0 0 0 0 0 0 0 0 
0 0 0 0 0 0 0 0 0 
0 0 0 0 0 0 0 0 0 
0 0 0 0 0 0 0 0 0 
0 0 0 0 0 0 0 0 0 
0 0 0 0 0 0 0 0 0 
0 0 0 0 0 0 0 0 0 
0 0 0 0 0 0 0 0 0 
0 0 0 0 0 0 0 0 0 
0 0 0 0 0 0 0 0 0 
0 0 0 0 0 0 0 0 0 
0 0 0 0 0 0 0 0 0 
0 0 0 0 0 0 0 0 0 
0 0 0 0 0 0 0 0 0 
0 
NORMALS Normals float
0.364527 0.637069 0.679164 0.241778 0.481737 0.842302 0.0865201 0.462342 0.88247 
0.00206503 0.412641 0.910891 -0.100145 0.491062 0.865349 -0.247372 0.56958 0.783827 
0.0996925 0.411141 0.906104 -0.0438665 0.393129 0.918436 -0.0155923 0.400674 0.916088 
0.129804 0.368616 0.920474 0.200483 0.226271 0.953209 0.150031 0.0611553 0.986788 
0.073586 0.0239782 0.997001 0.0207847 0.0549956 0.99827 -0.0332758 0.0955567 0.994868 
-0.125947 0.197296 0.97222 -0.260083 0.343426 0.90245 -0.579341 0.552074 0.599649 
0.220527 0.275919 0.935541 0.0805529 0.192647 0.977956 -0.0371352 0.182487 0.982507 
-0.0493366 0.141231 0.988747 0.0565325 0.135303 0.98919 0.0663219 0.033268 0.997244 
0.0388956 -0.0974773 0.994477 0.0718608 -0.194469 0.978273 0.084992 -0.100254 0.991325 
0.058219 -0.0448021 0.997298 0.017032 0.0876898 0.996002 -0.154291 0.144508 0.977401 
-0.387856 0.248492 0.887592 0.370276 0.218631 0.902827 0.155166 0.178818 0.97157 
-0.0167475 0.143246 0.989545 -0.0927099 0.0746173 0.992893 -0.0529338 0.0209551 0.998378 
0.0349932 0.0685482 0.997034 -0.040911 0.0387292 0.998412 -0.069431 0.0401425 0.996779 
0.0778398 0.0263191 0.996618 0.171332 -0.10705 0.97938 0.147381 -0.0467623 0.987974 
0.0500931 -3.15184e-05 0.998745 -0.0787808 0.0234657 0.996616 -0.208334 0.141625 0.96775 
-0.509708 0.31758 0.799588 0.334863 0.0673243 0.939859 0.134521 0.0635476 0.988871 
-0.0180327 0.0894472 0.995828 -0.147656 0.0569708 0.987397 -0.0636378 -0.000403593 0.997973 
0.0832154 0.0328723 0.995989 0.0510302 0.138375 0.989064 0.0629473 0.162063 0.984771 
-0.130555 0.246429 0.960327 -0.00722553 -0.00602874 0.999956 0.168678 -0.0148724 0.985559 
0.0884843 0.00435983 0.996068 -0.00600764 0.0112353 0.999919 -0.0924269 0.0713505 0.99316 
-0.403928 0.153079 0.901892 0.358217 -0.0158144 0.933505 0.15868 0.0482217 0.986152 
-0.0217756 0.0225452 0.999509 -0.172422 0.0314628 0.984521 -0.0974642 0.0659733 0.99305 
0.175971 -0.0115151 0.984328 0.0571051 -0.0195685 0.998176 0.00380022 -0.0405821 0.999169 
-0.0829456 -0.0636322 0.99452 -0.032599 0.0870897 0.995667 0.153653 0.0139079 0.988027 
0.0782805 0.00862146 0.996894 -0.0161717 -0.0241812 0.999577 -0.0438747 -0.0610487 0.99717 
-0.351368 -0.0724758 0.933428 -0.712806 -0.0192436 0.701098 0.390313 -0.0689781 0.918095 
0.171676 -0.0591206 0.983378 -0.0404357 -0.0615857 0.997282 -0.11051 0.0754198 0.991009 
-0.0950059 0.127006 0.987342 0.0131485 0.0527003 0.998524 0.0353695 -0.0729321 0.99671 
0.0257528 -0.0300577 0.999216 0.0182865 -0.0853186 0.996186 0.021236 0.0531621 0.99836 
0.0881419 0.00552652 0.996093 0.0543751 -0.0938342 0.994102 -0.0696986 -0.0894731 0.993547 
-0.166168 -0.168961 0.971514 -0.411977 -0.281113 0.866747 0.449268 -0.332965 0.829031 
0.174752 -0.250943 0.952097 0.118703 -0.12643 0.984848 0.0116231 -0.0636619 0.997904 
-0.109049 0.0221308 0.99379 -0.0466251 0.0169725 0.998768 -0.00842518 -0.0456394 0.998922 
-0.00899771 -0.0648859 0.997852 0.0143425 -0.119826 0.992691 0.0505608 -0.101131 0.993587 
0.00983091 -0.129639 0.991513 -0.0274848 -0.18217 0.982883 -0.089202 -0.25511 0.962789 
-0.234813 -0.256603 0.937559 -0.463406 -0.34108 0.817875 0.337365 -0.443762 0.830217 
0.168326 -0.353706 0.920086 0.0381664 -0.318029 0.947312 -0.0231491 -0.252968 0.967198 
-0.051092 -0.237744 0.969983 -0.0498535 -0.269645 0.961668 -0.0492379 -0.312154 0.948755 
-0.0276421 -0.344695 0.938308 0.0184543 -0.36133 0.932256 0.00122708 -0.378375 0.925651 
-0.0675951 -0.366158 0.928094 -0.153044 -0.449784 0.879927 -0.313767 -0.560992 0.766053 
0.0663015 -0.704656 0.706445 -0.015127 -0.717957 0.695923 -0.035696 -0.71031 0.702983 
-0.0890709 -0.715254 0.693165 0.364945 0.640116 0.676067 0.278969 0.723083 0.631923 
0.131118 0.7913 0.597204 0.102607 0.983956 0.145953 -0.0268391 0.815966 0.577476 
-0.0144951 0.986535 0.162909 -0.152165 0.776995 0.610839 -0.122118 0.985949 0.113978 
-0.28216 0.739643 0.610994 0.33811 0.792688 0.507274 0.106382 0.532882 0.839476 
0.0935497 0.755207 0.648776 -0.0391391 0.516949 0.855121 -0.0476797 0.748607 0.661297 
-0.0170897 0.500264 0.865704 -0.0484162 0.812325 0.581192 0.362469 0.639546 0.677936 
0.157277 0.504971 0.848686 0.166273 0.825498 0.539358 -0.406032 0.707125 0.578889 
-0.4296 0.689255 0.583413 -0.450786 0.74897 0.485629 -0.581451 0.5568 0.593202 
0.541892 0.556693 0.629639 0.263697 0.425933 0.865474 0.273544 0.415437 0.867517 
0.277584 0.428316 0.859937 -0.58336 0.554769 0.593231 0.751352 0.392204 0.530704 
0.409359 0.319329 0.854666 0.409862 0.319211 0.854469 0.41018 0.319633 0.854159 
-0.64318 0.403546 0.650746 -0.654165 0.39443 0.645363 -0.739277 0.466502 0.485639 
0.537608 0.226203 0.812287 0.679196 0.221693 0.699675 -0.674965 0.358177 0.645082 
0.604328 0.0914858 0.791466 0.640736 0.0979544 0.761487 -0.720113 0.237934 0.651785 
-0.750777 0.146449 0.644118 -0.831322 0.256364 0.493134 0.589034 -0.0294438 0.807572 
0.615921 -0.0316302 0.787173 -0.777917 -0.0150367 0.628188 -0.720597 -0.133408 0.680398 
0.613922 -0.144245 0.776076 0.690379 -0.171039 0.702938 -0.638211 -0.243588 0.730309 
-0.80854 -0.239767 0.537378 0.560526 -0.360355 0.745624 0.780928 -0.422103 0.460414 
0.508931 -0.455183 0.730615 -0.507452 -0.355855 0.784767 -0.482728 -0.380542 0.788773 
0.462123 -0.507878 0.726982 0.600736 -0.612964 0.513216 0.375026 -0.604771 0.702572 
0.254548 -0.694383 0.673081 -0.0936395 -0.694849 0.713033 -0.0287075 -0.667567 0.743996 
0.0142063 -0.650686 0.759214 -0.0332102 -0.652624 0.756954 -0.106932 -0.649612 0.752709 
-0.180832 -0.621999 0.761851 -0.337025 -0.563727 0.754073 -0.315827 -0.576584 0.753528 
-0.65363 -0.679122 0.334009 0.401643 -0.892866 0.203648 0.19932 -0.722509 0.662006 
0.262187 -0.751183 0.605791 0.0630586 -0.74847 0.660164 -0.0144509 -0.754586 0.656042 
-0.0322937 -0.743817 0.667603 -0.0911299 -0.723436 0.684351 -0.0897029 -0.722731 0.685284 
-0.0980054 -0.826983 0.553619 -0.011164 -0.880653 0.473631 0.0131192 -0.822939 0.567978 
-0.0350876 -0.844588 0.534266 -0.115342 -0.880452 0.459891 -0.242583 -0.914378 0.324139 
0.0985997 0.989657 0.1042 -0.008827 0.997647 0.0679854 -0.120053 0.987902 0.0981722 
0.341626 0.837871 0.425751 0.11482 0.892822 0.435529 -0.0674196 0.865333 0.496642 
-0.0769954 0.875156 0.477676 0.134134 0.896472 0.42231 0.300707 0.906778 0.295516 
0.123099 0.985678 0.11526 0.240049 0.95424 0.178331 0.0674553 0.997582 0.0167403 
-0.0242886 0.999626 -0.0125367 -0.132065 0.986205 0.0997907 -0.119742 0.990251 0.0711638 
-0.307803 0.943746 0.120833 -0.473301 0.874402 0.106809 0.42003 0.80005 0.428362 
0.597646 0.672532 0.436486 -0.593431 0.801135 0.077609 -0.681258 0.729673 0.0588702 
0.666333 0.605238 0.435531 0.769102 0.473981 0.428747 -0.762066 0.646848 0.0290507 
-0.804591 0.593621 0.015708 0.810183 0.407871 0.421005 -0.844014 0.53593 0.0204739 
-0.756171 0.461034 -0.464384 0.847347 0.273139 0.455409 -0.905999 0.423262 -0.00395168 
-0.929153 0.369439 -0.0137627 0.897779 0.108316 0.42692 0.99022 0.089154 0.107308 
-0.971831 0.235428 0.0108879 -0.910695 0.256831 -0.32353 0.913691 -0.0755862 0.399318 
0.996815 -0.0789835 0.0109925 -0.999837 0.0176799 0.00371301 0.884928 -0.272506 0.37768 
-0.977267 -0.198253 0.0751316 -0.884706 -0.462483 0.0583437 -0.875658 -0.171996 -0.451265 
0.838056 -0.46028 0.292922 0.794995 -0.544992 0.266396 -0.8815 -0.468391 0.0597355 
0.688145 -0.685983 0.236397 0.61039 -0.757616 0.231176 -0.418636 -0.901372 0.110779 
-0.710133 -0.699605 0.0791463 -0.652237 -0.751182 0.101549 -0.730064 -0.656179 -0.19088 
0.410967 -0.893838 0.179332 0.399874 -0.899134 0.177927 0.389107 -0.921024 0.0176011 
0.255096 -0.959272 0.121337 0.10539 -0.985261 0.134734 -0.0431682 -0.993488 0.105438 
-0.055962 -0.995244 0.0797296 -0.0801121 -0.993881 0.0760406 -0.0729438 -0.991832 0.104637 
0.00529742 -0.989841 0.142078 0.0209187 -0.988468 0.149978 -0.0133195 -0.990821 0.13452 
-0.0896557 -0.984615 0.149982 -0.323023 -0.936379 0.1373 -0.252304 -0.951105 0.178161 
-0.310847 -0.841685 -0.44152 0.347539 0.937524 0.0162671 0.165021 0.984947 0.0514549 
-0.00813778 0.994539 0.104043 -0.0985424 0.975656 0.195921 0.0548468 0.96955 0.238673 
0.170919 0.975636 0.137555 0.124948 0.992123 0.0089329 0.0292716 0.995505 -0.0900726 
-0.0388107 0.994812 -0.0940308 -0.113475 0.974079 -0.195687 -0.303091 0.921121 -0.244277 
-0.515237 0.797154 -0.314765 0.543819 0.839178 -0.00634604 0.618919 0.785421 -0.00720514 
-0.547747 0.765085 -0.338553 -0.534328 0.723257 -0.437485 -0.676067 0.610836 -0.412083 
0.785604 0.618301 -0.0230256 0.816068 0.577194 -0.0296507 -0.712728 0.559369 -0.423232 
-0.6703 0.53817 -0.510951 0.890544 0.454474 -0.0196247 -0.742384 0.44883 -0.497411 
-0.742494 0.444029 -0.501538 0.958531 0.284654 -0.0137883 0.989889 0.1409 -0.016335 
-0.76831 0.370887 -0.521672 -0.621738 0.331303 -0.709705 0.996771 0.0792291 -0.0130592 
0.98928 0.0797759 -0.122314 -0.83561 0.241354 -0.49346 -0.516341 0.201373 -0.832371 
-0.876707 0.110048 -0.468267 0.995572 -0.0780967 -0.0523238 0.990821 -0.12499 -0.0514992 
0.992797 -0.081157 -0.0881309 -0.463943 0.0157302 -0.885725 -0.882278 0.0495245 -0.468117 
-0.868293 -0.0866112 -0.488433 -0.859965 0.0437133 -0.508477 0.940688 -0.335404 -0.0510844 
-0.848273 -0.165559 -0.503013 -0.487063 -0.190996 -0.852226 0.835746 -0.532568 -0.133787 
0.769416 -0.618228 -0.160601 0.705745 -0.552995 -0.442855 -0.753117 -0.455417 -0.474775 
-0.716592 -0.560379 -0.415297 -0.55581 -0.311557 -0.770719 0.656736 -0.725121 -0.207116 
0.5845 -0.781144 -0.219485 0.549084 -0.677819 -0.488947 0.350491 -0.90044 -0.257612 
-0.309225 -0.822044 -0.478146 -0.678368 -0.616955 -0.398979 -0.382668 -0.823528 -0.418768 
-0.344866 -0.585596 -0.733584 0.328057 -0.908826 -0.257711 0.223294 -0.939877 -0.2584 
0.209958 -0.867941 -0.450106 0.0612139 -0.94863 -0.310408 0.0300648 -0.812082 -0.582768 
-0.0676336 -0.944906 -0.320277 -0.07633 -0.827847 -0.555736 -0.0713574 -0.932086 -0.355138 
-0.0930532 -0.84514 -0.526384 -0.069479 -0.921534 -0.38203 -0.0744756 -0.851336 -0.519308 
-0.0442728 -0.928038 -0.369846 -0.0443507 -0.88321 -0.466876 0.0291682 -0.93131 -0.363059 
0.0261574 -0.890959 -0.453329 0.0245857 -0.930228 -0.366157 0.0167876 -0.85624 -0.516306 
-0.0292436 -0.928915 -0.369137 -0.0408485 -0.855425 -0.516313 -0.297123 -0.828771 -0.47419 
-0.0919846 -0.908675 -0.407246 -0.113992 -0.86049 -0.49655 0.405986 0.822302 -0.398741 
0.218994 0.910633 -0.350412 0.0877607 0.947368 -0.307884 0.0316248 0.983357 -0.178913 
0.0744618 0.993984 -0.080315 0.0826113 0.989438 -0.119115 0.0129647 0.97262 -0.232037 
-0.0131269 0.947095 -0.320686 -0.116193 0.931176 -0.345558 -0.250884 0.858522 -0.447212 
-0.428639 0.692558 -0.5802 0.478454 0.775 -0.412863 0.599195 0.65895 -0.454698 
0.411471 0.755603 -0.509663 0.240236 0.698624 -0.673952 -0.135563 0.516131 -0.845714 
-0.250904 0.581015 -0.774254 -0.482464 0.630773 -0.607744 -0.449124 0.61064 -0.652232 
-0.555214 0.460959 -0.692282 0.673224 0.581592 -0.456641 0.751355 0.485136 -0.447335 
0.539458 0.54009 -0.645978 0.313689 0.411436 -0.855757 -0.363524 0.229918 -0.902767 
-0.565369 0.395331 -0.723928 -0.544094 0.341193 -0.766517 -0.533174 0.278336 -0.798908 
0.774192 0.456769 -0.438166 0.731646 0.458997 -0.504 0.441218 0.342566 -0.829443 
-0.324422 0.0399073 -0.94507 -0.395735 0.129564 -0.90918 -0.533873 0.27487 -0.799641 
-0.531377 0.274094 -0.801568 0.861454 0.266689 -0.432173 0.641673 0.258126 -0.722237 
-0.245617 0.0120269 -0.969292 -0.323786 0.0988104 -0.940957 -0.485949 0.185978 -0.853971 
-0.45857 0.151076 -0.875722 0.885106 0.0631036 -0.461091 -0.180313 -0.00912568 -0.983567 
-0.24801 0.0549017 -0.967201 -0.438425 0.19101 -0.878236 -0.341314 0.155493 -0.926999 
0.863898 -0.120568 -0.489023 0.595089 -0.183864 -0.782345 -0.0689654 -0.150387 -0.986219 
-0.140751 -0.120584 -0.982674 -0.123333 -0.0630533 -0.99036 -0.167207 -0.0260902 -0.985577 
-0.456036 0.0147246 -0.88984 -0.31556 -0.021386 -0.948664 0.775048 -0.346905 -0.528165 
0.664502 -0.507161 -0.54884 0.611816 -0.364422 -0.702052 -0.0280909 -0.19107 -0.981174 
-0.0230642 -0.381771 -0.923969 -0.0513145 -0.158814 -0.985974 -0.0669741 -0.304118 -0.950277 
-0.0378933 -0.270342 -0.962018 -0.015307 -0.206179 -0.978395 -0.0871555 -0.177592 -0.980237 
-0.199889 -0.136429 -0.970274 -0.421349 -0.175785 -0.889699 -0.321134 -0.149811 -0.93511 
0.630333 -0.546017 -0.551857 0.506972 -0.617174 -0.601728 0.403984 -0.481738 -0.777641 
0.101479 -0.346614 -0.932502 -0.104234 -0.194707 -0.975307 -0.125696 -0.214973 -0.968497 
-0.082797 -0.295474 -0.951756 -0.0234498 -0.291381 -0.95632 -0.0507123 -0.290367 -0.955571 
-0.0417971 -0.255241 -0.965974 -0.0421126 -0.291147 -0.955751 -0.0694443 -0.29485 -0.953017 
-0.146053 -0.3037 -0.941507 -0.389134 -0.258004 -0.884313 -0.330665 -0.352557 -0.875422 
-0.333666 -0.259441 -0.906288 0.447079 -0.654708 -0.60949 0.325073 -0.726986 -0.604829 
0.295096 -0.625646 -0.722139 0.179306 -0.750587 -0.635979 0.107473 -0.522101 -0.846085 
0.0215494 -0.746681 -0.664833 0.00996262 -0.464425 -0.885556 -0.080888 -0.730008 -0.678635 
-0.0982354 -0.450289 -0.887462 -0.117018 -0.676091 -0.727467 -0.132581 -0.474229 -0.870361 
-0.0796554 -0.614152 -0.785157 -0.0834621 -0.470306 -0.878548 -0.0428148 -0.614727 -0.787577 
-0.0396245 -0.496832 -0.866941 -0.00140915 -0.593809 -0.804605 -0.014408 -0.494308 -0.869167 
-0.0147117 -0.562489 -0.826674 -0.0309521 -0.441297 -0.896827 -0.0700958 -0.526362 -0.847367 
-0.0665072 -0.461321 -0.884737 -0.0713848 -0.506032 -0.859556 -0.0644495 -0.462818 -0.884107 
-0.193761 -0.519876 -0.831977 -0.17611 -0.536393 -0.825389 -0.176857 -0.517522 -0.837193 
0.176571 0.610287 -0.772252 0.127976 0.671718 -0.72967 0.0856424 0.739616 -0.667558 
-0.0379433 0.706999 -0.706196 -0.0963572 0.582795 -0.806886 -0.108904 0.489441 -0.865209 
0.180113 0.606012 -0.774796 0.219634 0.498891 -0.838373 0.176731 0.604148 -0.777028 
0.129071 0.614766 -0.778077 0.0771219 0.5788 -0.811814 -0.0645587 0.546685 -0.834846 
-0.107811 0.492048 -0.863867 -0.11957 0.472211 -0.873338 -0.109574 0.457945 -0.882202 
-0.121215 0.406372 -0.905632 -0.233178 0.295905 -0.92632 0.30301 0.406899 -0.861753 
0.309549 0.400253 -0.862541 0.180585 0.360141 -0.915253 0.113003 0.252596 -0.96095 
0.100713 0.190582 -0.976491 0.0430857 0.136392 -0.989718 -0.0678175 0.147148 -0.986787 
-0.156047 0.131081 -0.979013 -0.102066 0.113606 -0.988269 -0.0692611 0.147523 -0.986631 
-0.2642 0.183096 -0.946929 -0.227964 0.169435 -0.958814 0.428594 0.335888 -0.838741 
0.43304 0.333272 -0.8375 0.245843 0.246556 -0.937428 0.095299 0.14924 -0.984198 
0.0257278 0.0801803 -0.996448 0.0168868 -0.0247714 -0.999551 0.0319679 -0.0923404 -0.995214 
-0.0648164 -0.0142912 -0.997795 -0.172391 0.0233497 -0.984752 -0.0944968 -0.00216322 -0.995523 
-0.0758732 -0.0366455 -0.996444 -0.258394 0.00373527 -0.966032 -0.200548 -0.0250754 -0.979363 
0.529214 0.245465 -0.812207 0.58604 0.0385592 -0.809364 0.35175 0.186268 -0.917375 
0.108284 0.148407 -0.98298 0.00205187 0.0643513 -0.997925 -0.0771985 -0.0175884 -0.996861 
-0.070493 -0.119345 -0.990347 0.0491443 -0.118795 -0.991702 0.0446069 -0.118315 -0.991974 
-0.139922 -0.0978802 -0.985313 -0.163259 0.0559985 -0.984993 -0.0950575 -0.0181483 -0.995306 
-0.191493 -0.031609 -0.980985 -0.16147 -0.0537802 -0.985411 0.586134 0.0366196 -0.809386 
0.585822 0.0328427 -0.809774 0.585566 0.0365626 -0.8098 0.307068 -0.00624761 -0.951667 
0.13071 -0.0162955 -0.991287 -0.063881 -0.0493299 -0.996738 -0.155057 -0.10072 -0.982758 
-0.0906296 -0.160479 -0.98287 0.0403866 -0.0882085 -0.995283 -0.0504085 -0.0762933 -0.99581 
-0.0610435 -0.168377 -0.983831 0.00623656 -0.283946 -0.95882 -0.00714096 -0.0136818 -0.999881 
-0.192408 -0.0215559 -0.981078 -0.170441 -0.0579637 -0.983662 -0.160228 -0.0857085 -0.983352 
-0.169364 -0.0686524 -0.983159 0.526491 -0.190409 -0.828584 0.312617 -0.17145 -0.934278 
0.0646702 -0.194708 -0.978727 -0.0815558 -0.159143 -0.983881 -0.18641 -0.160892 -0.969208 
-0.0592973 -0.138147 -0.988635 0.00270176 -0.196854 -0.980429 0.141778 -0.204263 -0.968595 
-0.074648 -0.157549 -0.984686 -0.0289371 -0.375963 -0.926183 -0.154611 -0.18129 -0.9712 
-0.0535594 -0.166203 -0.984636 -0.0168905 -0.294343 -0.95555 0.0807743 -0.262111 -0.961651 
-0.147198 -0.154446 -0.976975 -0.114434 -0.243677 -0.963082 -0.156114 -0.227692 -0.961137 
0.330896 -0.254247 -0.908772 0.324182 -0.276037 -0.904826 0.314762 -0.248777 -0.915989 
0.100022 -0.319355 -0.942342 0.130399 -0.271731 -0.953498 -0.0242046 -0.239548 -0.970583 
-0.148333 -0.144175 -0.978372 -0.0887607 -0.138686 -0.986351 -0.117823 -0.130393 -0.984437 
-0.12105 -0.108867 -0.986658 0.0577321 -0.336908 -0.939766 0.0571623 -0.337667 -0.939528 
0.0570035 -0.33687 -0.939824 -0.0642647 -0.220016 -0.973377 -0.0345123 -0.263099 -0.964151 
-0.0423609 -0.236541 -0.970698 
