# vtk DataFile Version 4.2
vtk output
ASCII
DATASET POLYDATA
POINTS 614 float
4.22755 -3.3747 -35.8222 -0.500251 0.770074 -35.8222 8.80871 0.770074 -35.8222 
4.22755 5.0119 -35.8222 12.4249 4.45625 -35.8222 8.25386 8.96742 -35.8222 
16.3005 8.96742 -35.8222 12.4249 12.727 -35.8222 4.22755 -3.39247 -27.6249 
-1.13183 0.770074 -27.6249 8.95858 0.770074 -27.6249 4.22755 5.09172 -27.6249 
12.4249 4.22302 -27.6249 -3.9698 8.96742 -19.6001 8.08959 8.96742 -27.6249 
16.1178 8.96742 -27.6249 12.4249 12.6672 -27.6249 -12.1671 -48.414 -11.6452 
-28.5618 -40.2167 -12.3169 -20.3645 -40.2167 -14.6731 -12.1671 -40.2167 -15.0512 
-3.9698 -40.2167 -14.3478 4.22755 -40.2167 -13.1054 12.4249 -40.2167 -12.401 
-36.7592 -32.0193 -12.4038 -28.5618 -32.0193 -14.1901 -20.3645 -32.0193 -15.5394 
-12.1671 -32.0193 -16.1696 -3.9698 -32.0193 -15.457 4.22755 -32.0193 -14.406 
12.4249 -32.0193 -14.168 20.6222 -32.0193 -13.4865 28.8196 -32.0193 -13.5451 
37.0169 -32.0193 -11.9045 45.2143 -32.0193 -11.7045 -44.9565 -23.822 -12.0839 
-36.7592 -23.822 -13.9635 -28.5618 -23.822 -14.8977 -20.3645 -23.822 -15.4643 
-12.1671 -23.822 -15.8845 -3.9698 -23.822 -15.3325 4.22755 -23.822 -14.1424 
12.4249 -23.822 -14.2927 20.6222 -23.822 -14.3621 28.8196 -23.822 -14.7289 
37.0169 -23.822 -14.1718 45.2143 -23.822 -13.3669 53.4116 -23.822 -11.8105 
-53.1539 -15.6246 -12.32 -44.9565 -15.6246 -15.0584 -36.7592 -15.6246 -15.1326 
-28.5618 -15.6246 -14.9104 -20.3645 -15.6246 -14.3247 -12.1671 -15.6246 -14.4615 
-3.9698 -15.6246 -14.1767 4.22755 -15.6246 -13.3444 12.4249 -15.6246 -13.5869 
20.6222 -15.6246 -14.2816 28.8196 -15.6246 -14.5709 37.0169 -15.6246 -14.8049 
45.2143 -15.6246 -15.2906 53.4116 -15.6246 -11.5159 -53.1539 -7.42727 -11.8448 
-44.9565 -7.42727 -14.8773 -36.7592 -7.42727 -16.2588 -28.5618 -7.42727 -15.3734 
-20.3645 -7.42727 -14.106 -12.1671 -7.42727 -13.5548 -3.9698 -7.42727 -16.6838 
4.22755 -4.40356 -19.4275 4.22755 -7.42727 -16.3534 12.4249 -7.42727 -12.8636 
20.6222 -7.42727 -12.8244 28.8196 -7.42727 -13.9042 37.0169 -7.42727 -14.3983 
45.2143 -7.42727 -15.1589 53.4116 -7.42727 -12.0439 -53.1539 0.770074 -13.0609 
-44.9565 0.770074 -15.4768 -36.7592 0.770074 -16.2917 -28.5618 0.770074 -15.6191 
-20.3645 0.770074 -13.7395 -12.1671 0.770074 -13.3268 -1.6096 0.770074 -19.4275 
-3.9698 8.39956 -19.4275 10.6314 0.770074 -19.4275 4.22755 5.78249 -19.4275 
4.22755 0.770074 -11.7808 12.4249 2.79713 -19.4275 12.4249 0.770074 -16.9827 
20.6222 0.770074 -12.1202 28.8196 0.770074 -13.1599 37.0169 0.770074 -13.7344 
45.2143 0.770074 -13.7968 53.4116 0.770074 -11.3014 -53.1539 8.96742 -12.7822 
-44.9565 8.96742 -15.8992 -36.7592 8.96742 -16.7504 -28.5618 8.96742 -16.3663 
-20.3645 8.96742 -14.6695 -4.22621 8.96742 -19.4275 -12.1671 8.96742 -13.0146 
-3.5991 8.96742 -19.4275 -3.9698 9.20617 -19.4275 7.7282 8.96742 -19.4275 
4.22755 8.96742 -15.6649 15.5602 8.96742 -19.4275 12.4249 12.5334 -19.4275 
20.6222 8.96742 -12.7542 28.8196 8.96742 -13.4998 37.0169 8.96742 -13.6309 
45.2143 8.96742 -13.2025 53.4116 8.96742 -13.0737 -53.1539 17.1648 -12.3854 
-44.9565 17.1648 -15.8445 -36.7592 17.1648 -18.3214 -28.5618 17.1648 -16.7784 
-20.3645 17.1648 -15.3509 -12.1671 17.1648 -13.8868 -3.9698 17.1648 -14.5501 
4.22755 17.1648 -14.644 12.4249 17.1648 -13.8933 20.6222 17.1648 -14.3962 
28.8196 17.1648 -14.3131 37.0169 17.1648 -13.955 45.2143 17.1648 -13.3193 
53.4116 17.1648 -12.2959 -53.1539 25.3621 -12.4224 -44.9565 25.3621 -17.0109 
-36.7592 25.3621 -17.1629 -28.5618 25.3621 -16.958 -20.3645 25.3621 -16.4912 
-12.1671 25.3621 -15.5192 -3.9698 25.3621 -15.9852 4.22755 25.3621 -15.9459 
12.4249 25.3621 -15.5416 20.6222 25.3621 -15.2099 28.8196 25.3621 -15.3347 
37.0169 25.3621 -14.2401 45.2143 25.3621 -12.7735 -44.9565 33.5595 -13.4057 
-36.7592 33.5595 -16.0585 -28.5618 33.5595 -16.7835 -20.3645 33.5595 -17.9685 
-12.1671 33.5595 -16.6627 -3.9698 33.5595 -16.8858 4.22755 33.5595 -16.6592 
12.4249 33.5595 -16.0772 20.6222 33.5595 -15.8205 28.8196 33.5595 -14.6939 
37.0169 33.5595 -14.6228 45.2143 33.5595 -12.2099 -36.7592 41.7568 -12.9151 
-28.5618 41.7568 -16.8521 -20.3645 41.7568 -15.5308 -12.1671 41.7568 -16.3463 
-3.9698 41.7568 -16.7962 4.22755 41.7568 -16.4273 12.4249 41.7568 -15.4425 
20.6222 41.7568 -15.0038 28.8196 41.7568 -13.5164 37.0169 41.7568 -12.3731 
-28.5618 49.9541 -12.0091 -20.3645 49.9541 -12.857 -12.1671 49.9541 -14.2908 
-3.9698 49.9541 -14.8896 4.22755 49.9541 -14.3195 12.4249 49.9541 -13.1509 
20.6222 49.9541 -12.6766 -12.1671 -48.9714 -11.2302 -28.5618 -43.4515 -11.2302 
-28.5618 -48.414 -9.0174 -15.7683 -48.414 -11.2302 -20.3645 -47.5155 -11.2302 
-20.3645 -48.414 -10.6299 -7.44171 -48.414 -11.2302 -3.9698 -47.7706 -11.2302 
-3.9698 -48.414 -10.8989 4.22755 -44.9041 -11.2302 4.22755 -48.414 -9.453 
12.4249 -43.5889 -11.2302 12.4249 -48.414 -8.52332 20.6222 -48.414 -5.65422 
-44.9565 -40.2167 -4.76922 -34.704 -40.2167 -11.2302 -36.7592 -38.2974 -11.2302 
-36.7592 -40.2167 -10.7533 19.8821 -40.2167 -11.2302 20.6222 -39.8038 -11.2302 
20.6222 -40.2167 -11.1025 28.8196 -39.0974 -11.2302 28.8196 -40.2167 -10.6251 
37.0169 -33.4341 -11.2302 37.0169 -40.2167 -7.47608 45.2143 -32.804 -11.2302 
-53.1539 -32.0193 -3.59057 -42.9986 -32.0193 -11.2302 -44.9565 -29.5558 -11.2302 
-44.9565 -32.0193 -10.723 46.3033 -32.0193 -11.2302 53.4116 -25.1182 -11.2302 
53.4116 -32.0193 -5.60871 -47.3998 -23.822 -11.2302 -53.1539 -18.9062 -11.2302 
-53.1539 -23.822 -8.85761 54.4148 -23.822 -11.2302 61.609 -23.822 -4.03837 
-54.6369 -15.6246 -11.2302 54.0976 -15.6246 -11.2302 61.609 -15.6246 -7.42856 
-54.0564 -7.42727 -11.2302 -3.9698 -2.01508 -11.2302 -3.9698 -7.42727 -7.62216 
4.22755 0.205841 -11.2302 4.22755 -7.42727 -8.22568 55.9994 -7.42727 -11.2302 
61.609 -7.42727 -9.20964 -55.6276 0.770074 -11.2302 -61.3512 0.770074 -4.28565 
-9.8807 0.770074 -11.2302 -3.9698 4.02592 -11.2302 5.03499 0.770074 -11.2302 
4.22755 1.48905 -11.2302 4.22755 0.770074 -10.157 53.5886 0.770074 -11.2302 
61.609 0.770074 -7.44529 -55.2015 8.96742 -11.2302 4.22755 8.96742 -8.92727 
56.4076 8.96742 -11.2302 61.609 8.96742 -5.87276 -54.5989 17.1648 -11.2302 
54.8919 17.1648 -11.2302 53.4116 20.937 -11.2302 61.609 17.1648 -3.38719 
-54.4393 25.3621 -11.2302 -53.1539 28.1453 -11.2302 48.9294 25.3621 -11.2302 
53.4116 25.3621 -9.22926 -48.5368 33.5595 -11.2302 -53.1539 33.5595 -3.27202 
-44.9565 38.4356 -11.2302 46.9968 33.5595 -11.2302 45.2143 35.7589 -11.2302 
53.4116 33.5595 -4.0523 -41.1104 41.7568 -11.2302 -44.9565 41.7568 -7.33528 
-36.7592 44.367 -11.2302 28.8196 46.1995 -11.2302 39.4029 41.7568 -11.2302 
37.0169 43.4603 -11.2302 45.2143 41.7568 -4.49414 -30.288 49.9541 -11.2302 
-28.5618 50.8007 -11.2302 -20.3645 51.9561 -11.2302 -12.1671 53.9177 -11.2302 
-3.9698 54.6358 -11.2302 4.22755 54.0646 -11.2302 12.4249 52.2814 -11.2302 
24.6247 49.9541 -11.2302 20.6222 51.5894 -11.2302 28.8196 49.9541 -6.96727 
-28.5618 -52.7038 -3.03284 -20.3645 -55.1188 -3.03284 -12.1671 -56.1738 -3.03284 
-12.1671 -56.6113 3.62827 -3.9698 -55.6799 -3.03284 4.22755 -54.4322 -3.03284 
12.4249 -52.5895 -3.03284 20.6222 -50.4239 -3.03284 -44.9565 -41.9988 -3.03284 
-36.6739 -48.414 -3.03284 -36.7592 -48.3485 -3.03284 -36.7592 -48.414 -2.76311 
25.6375 -48.414 -3.03284 28.8196 -46.8212 -3.03284 37.0169 -43.7177 -3.03284 
-46.7563 -40.2167 -3.03284 -53.1539 -32.6516 -3.03284 43.4334 -40.2167 -3.03284 
45.2143 -39.1003 -3.03284 53.4116 -34.0448 -3.03284 -53.59 -32.0193 -3.03284 
55.8928 -32.0193 -3.03284 61.609 -25.0629 -3.03284 -57.9153 -23.822 -3.03284 
62.3744 -23.822 -3.03284 -60.2083 -15.6246 -3.03284 -3.9698 -10.4437 -3.03284 
4.22755 -11.044 -3.03284 65.2686 -15.6246 -3.03284 -61.3433 -7.42727 -3.03284 
-61.3512 -7.32884 -3.03284 -7.10174 -7.42727 -3.03284 -3.9698 -7.42727 -0.224038 
8.09488 -7.42727 -3.03284 4.22755 -1.04268 -3.03284 4.22755 -7.42727 0.152345 
67.0643 -7.42727 -3.03284 -61.9339 0.770074 -3.03284 -61.3512 5.25103 -3.03284 
-61.3512 0.770074 -0.842967 -6.8359 0.770074 -3.03284 1.5994 0.770074 -3.03284 
-3.9698 3.50176 -3.03284 -3.9698 0.770074 -0.350404 4.22755 2.40617 -3.03284 
65.5658 0.770074 -3.03284 -60.868 8.96742 -3.03284 0.242931 8.96742 -3.03284 
8.22259 8.96742 -3.03284 4.22755 12.6545 -3.03284 4.22755 8.96742 1.1488 
64.2587 8.96742 -3.03284 -59.8996 17.1648 -3.03284 61.9374 17.1648 -3.03284 
61.609 17.9938 -3.03284 61.609 17.1648 0.40794 -57.5682 25.3621 -3.03284 
58.8708 25.3621 -3.03284 -53.2295 33.5595 -3.03284 -53.1539 33.6687 -3.03284 
-53.1539 33.5595 -2.84008 54.1187 33.5595 -3.03284 53.4116 34.4831 -3.03284 
53.4116 33.5595 -0.736003 -46.6597 41.7568 -3.03284 -44.9565 43.3919 -3.03284 
-44.9565 41.7568 0.0465744 -36.7592 49.2865 -3.03284 37.0169 48.2677 -3.03284 
46.2648 41.7568 -3.03284 45.2143 42.5716 -3.03284 45.2143 41.7568 -1.16801 
-35.5288 49.9541 -3.03284 -28.5618 53.3722 -3.03284 -28.5618 49.9541 4.75296 
-20.3645 56.1905 -3.03284 -12.1671 57.7542 -3.03284 -3.9698 58.1263 -3.03284 
4.22755 57.7504 -3.03284 12.4249 56.7203 -3.03284 20.6222 54.4712 -3.03284 
32.8782 49.9541 -3.03284 28.8196 51.4394 -3.03284 28.8196 49.9541 0.725591 
-12.1671 -56.6967 5.16451 -36.7592 -49.8129 5.16451 -28.5618 -53.2087 5.16451 
-13.0237 -56.6113 5.16451 -20.3645 -55.7825 5.16451 -9.19707 -56.6113 5.16451 
-12.1671 -56.6113 5.35216 -3.9698 -56.4445 5.16451 4.22755 -55.7894 5.16451 
12.4249 -54.2133 5.16451 20.6222 -51.8365 5.16451 -39.1016 -48.414 5.16451 
-44.9565 -43.9255 5.16451 -36.7592 -48.414 7.52581 -28.5618 -48.414 11.2737 
28.4754 -48.414 5.16451 20.6222 -48.414 10.6076 28.8196 -48.2466 5.16451 
37.0169 -43.7024 5.16451 -48.4708 -40.2167 5.16451 -53.1539 -33.5292 5.16451 
-44.9565 -40.2167 9.6047 45.1063 -40.2167 5.16451 37.0169 -40.2167 9.04099 
45.2143 -40.1493 5.16451 53.4116 -33.947 5.16451 -54.022 -32.0193 5.16451 
-53.1539 -32.0193 6.38561 -44.9565 -32.0193 12.8942 45.2143 -32.0193 10.4339 
55.5623 -32.0193 5.16451 53.4116 -32.0193 7.40276 61.609 -24.1555 5.16451 
-56.983 -23.822 5.16451 -53.1539 -23.822 11.3469 53.4116 -23.822 12.3985 
[...]
POINT_DATA 614
SCALARS ImageScalars float
LOOKUP_TABLE default
0 0 0 0 0 0 0 0 0 
0 0 0 0 0 0 0 0 0 
0 0 0 0 0 0 0 0 0 
0 0 0 0 0 0 0 0 0 
0 0 0 0 0 0 0 0 0 
0 0 0 0 0 0 0 0 0 
0 0 0 0 0 0 0 0 0 
0 0 0 0 0 0 0 0 0 
0 0 0 0 0 0 0 0 0 
0 0 0 0 0 0 0 0 0 
0 0 0 0 0 0 0 0 0 
0 0 0 0 0 0 0 0 0 
0 0 0 0 0 0 0 0 0 
0 0 0 0 0 0 0 0 0 
0 0 0 0 0 0 0 0 0 
0 0 0 0 0 0 0 0 0 
0 0 0 0 0 0 0 0 0 
0 0 0 0 0 0 0 0 0 
0 0 0 0 0 0 0 0 0 
0 0 0 0 0 0 0 0 0 
0 0 0 0 0 0 0 0 0 
0 0 0 0 0 0 0 0 0 
0 0 0 0 0 0 0 0 0 
0 0 0 0 0 0 0 0 0 
0 0 0 0 0 0 0 0 0 
0 0 0 0 0 0 0 0 0 
0 0 0 0 0 0 0 0 0 
0 0 0 0 0 0 0 0 0 
0 0 0 0 0 0 0 0 0 
0 0 0 0 0 0 0 0 0 
0 0 0 0 0 0 0 0 0 
0 0 0 0 0 0 0 0 0 
0 0 0 0 0 0 0 0 0 
0 0 0 0 0 0 0 0 0 
0 0 0 0 0 0 0 0 0 
0 0 0 0 0 0 0 0 0 
0 0 0 0 0 0 0 0 0 
0 0 0 0 0 0 0 0 0 
0 0 0 0 0 0 0 0 0 
0 0 0 0 0 0 0 0 0 
0 0 0 0 0 0 0 0 0 
0 0 0 0 0 0 0 0 0 
0 0 0 0 0 0 0 0 0 
0 0 0 0 0 0 0 0 0 
0 0 0 0 0 0 0 0 0 
0 0 0 0 0 0 0 0 0 
0 0 0 0 0 0 0 0 0 
0 0 0 0 0 0 0 0 0 
0 0 0 0 0 0 0 0 0 
0 0 0 0 0 0 0 0 0 
0 0 0 0 0 0 0 0 0 
0 0 0 0 0 0 0 0 0 
0 0 0 0 0 0 0 0 0 
0 0 0 0 0 0 0 0 0 
0 0 0 0 0 0 0 0 0 
0 0 0 0 0 0 0 0 0 
0 0 0 0 0 0 0 0 0 
0 0 0 0 0 0 0 0 0 
0 0 0 0 0 0 0 0 0 
0 0 0 0 0 0 0 0 0 
0 0 0 0 0 0 0 0 0 
0 0 0 0 0 0 0 0 0 
0 0 0 0 0 0 0 0 0 
0 0 0 0 0 0 0 0 0 
0 0 0 0 0 0 0 0 0 
0 0 0 0 0 0 0 0 0 
0 0 0 0 0 0 0 0 0 
0 0 0 0 0 0 0 0 0 
0 0 
NORMALS Normals float
0.0127171 0.999909 0.00457111 0.990385 0.0546461 0.127089 -0.741228 0.670834 0.023723 
0.672632 -0.739812 0.0156061 -0.810018 0.58506 0.0396944 0.586291 -0.809543 0.0300473 
-0.976119 -0.210929 -0.0519606 -0.115477 -0.993167 -0.0168607 -0.0896095 0.992804 0.0794316 
0.956161 0.190801 0.222152 -0.751651 0.652412 0.0968495 0.587961 -0.805681 0.0719724 
-0.829107 0.549464 0.103305 0.125268 -0.262796 0.956685 0.471404 -0.879638 0.0633627 
-0.966463 -0.229313 -0.115608 -0.203395 -0.978544 -0.0329092 0.0124643 0.536839 0.843593 
0.245013 0.270406 0.931047 0.144307 0.253515 0.956507 -0.017133 0.242935 0.969891 
-0.113751 0.241417 0.963732 -0.114991 0.260015 0.958733 -0.110523 0.279063 0.953891 
0.216642 0.203434 0.95482 0.172869 0.139157 0.975065 0.12075 0.0512234 0.991361 
-0.00582321 0.0475414 0.998852 -0.108599 0.0580063 0.992392 -0.0776838 0.0602625 0.995155 
-0.0563267 0.118589 0.991345 -0.0367543 0.179726 0.98303 -0.0734484 0.23671 0.9688 
-0.129573 0.35649 0.925271 -0.2414 0.423202 0.873285 0.27195 0.228467 0.934797 
0.152749 0.145839 0.977445 0.0916001 0.0431541 0.99486 0.0594426 -0.0734643 0.995525 
-0.00623689 -0.103241 0.994637 -0.108142 -0.075141 0.991292 -0.0595262 -0.0646701 0.99613 
0.0133588 -0.0356119 0.999276 0.0263707 0.046976 0.998548 -0.0114609 0.0677998 0.997633 
-0.076731 0.142731 0.986783 -0.160966 0.229683 0.959862 -0.394949 0.214422 0.89333 
0.509629 0.148505 0.847481 0.192862 0.154933 0.968917 -0.0100441 0.142156 0.989793 
-0.0481689 0.028912 0.998421 -0.0277179 -0.0836024 0.996114 -0.00814196 -0.133124 0.991066 
-0.0712232 0.0723223 0.994835 -0.0329822 0.120863 0.992121 0.0584643 -0.0760569 0.995388 
0.0612603 -0.0954441 0.993548 0.0318232 -0.0499131 0.998246 0.0414077 0.0135095 0.999051 
-0.197763 0.10634 0.974465 -0.383669 0.00991263 0.923418 0.479229 0.0267996 0.877281 
0.226514 0.0257317 0.973668 0.0283482 0.0658738 0.997425 -0.128776 0.0418413 0.990791 
-0.106112 -0.0340715 0.99377 0.157235 -0.0709616 0.985008 0.239284 0.0238102 0.970658 
-0.13338 0.769335 0.624767 -0.275935 0.588022 0.760323 -0.23551 0.113088 0.96527 
0.06332 -0.130802 0.989384 0.0957491 -0.0860965 0.991675 0.0729574 -0.0649461 0.995218 
-0.131625 -0.0871278 0.987463 -0.292271 -0.0126254 0.956252 0.488036 0.052202 0.871261 
0.160269 0.0601348 0.98524 0.0101459 0.0299379 0.9995 -0.147178 0.0620331 0.987163 
-0.1243 0.0355203 0.991609 -0.229772 -0.033641 0.972663 0.94305 0.296966 -0.149895 
0.177079 -0.23902 0.954732 -0.709973 0.516309 0.47892 0.356818 -0.779887 0.514255 
0.851657 -0.164671 -0.497558 -0.769964 0.431429 0.470133 -0.53626 0.413288 0.735947 
-0.102317 -0.00427463 0.994743 0.0980621 -0.0243786 0.994882 0.0385766 -0.0467106 0.998163 
-0.145645 -0.115312 0.982594 -0.323451 0.0946517 0.941499 0.498729 -0.0355618 0.866028 
0.19706 0.0219518 0.980146 0.0260993 0.118553 0.992605 -0.126317 0.0678742 0.989665 
-0.179079 0.0942817 0.979307 0.139425 -0.259792 0.955546 0.107846 0.0500262 0.992908 
0.137628 -0.28326 0.949117 0.126146 -0.261717 0.956866 0.0934675 -0.883776 0.458481 
0.198026 -0.596608 0.777718 -0.966892 -0.254421 -0.0197526 -0.350874 -0.901712 0.252594 
-0.0798019 0.139098 0.987058 0.0537585 0.0706785 0.996049 -0.0169144 0.013416 0.999767 
-0.03811 -0.029648 0.998834 -0.315593 0.0428006 0.947929 0.556475 -0.0183416 0.830662 
0.30237 0.0505706 0.951848 0.0553283 0.0296725 0.998027 -0.17298 0.0354944 0.984286 
-0.165035 0.109756 0.980162 -0.0505017 0.143955 0.988295 0.0450896 -0.0621898 0.997045 
-0.0411285 0.0301445 0.998699 -0.0130735 -0.047056 0.998807 0.0244868 0.148451 0.988617 
-0.0267769 0.108244 0.993764 -0.0562816 0.0370425 0.997728 -0.130009 -0.0235754 0.991233 
-0.427728 -0.183285 0.88513 0.648995 -0.202389 0.733379 0.271616 -0.100339 0.957161 
-0.00557412 -0.150864 0.988539 -0.0403601 0.000726644 0.999185 -0.0862065 0.152387 0.984554 
-0.0324556 0.160462 0.986508 0.0261911 0.143565 0.989294 -0.0267728 0.118276 0.99262 
-0.0457052 0.13272 0.990099 -0.0129288 0.0858592 0.996223 -0.0605391 0.0242392 0.997871 
-0.134563 0.0349041 0.99029 -0.26142 -0.0740353 0.962382 0.47453 -0.388396 0.789918 
0.158036 -0.199756 0.967017 0.124231 -0.00770524 0.992223 -0.0107493 -0.0542627 0.998469 
-0.0623081 0.051081 0.996749 -0.000204291 0.0474764 0.998872 -0.0492156 0.0299824 0.998338 
-0.0508336 -0.00450317 0.998697 -0.0847282 -0.0197562 0.996208 -0.0693103 -0.0910907 0.993428 
-0.208551 -0.153782 0.965846 -0.39408 -0.241793 0.8867 0.372214 -0.518076 0.7701 
0.108689 -0.281265 0.953455 -0.0140185 -0.266109 0.963841 0.0765841 -0.121124 0.989679 
0.00503525 -0.0988625 0.995088 -0.0825674 -0.117487 0.989636 -0.0881144 -0.146848 0.985227 
-0.094445 -0.186148 0.977972 -0.209584 -0.34148 0.916224 -0.28435 -0.446359 0.848474 
0.263525 -0.676218 0.687956 0.13641 -0.550123 0.823867 0.104691 -0.464526 0.879349 
0.00182963 -0.455417 0.890276 -0.0889373 -0.463351 0.881701 -0.0940824 -0.509014 0.855601 
-0.213051 -0.595959 0.774236 0.0121682 0.552732 0.83327 0.269706 0.379927 0.884824 
0.329707 0.623428 0.708965 0.0568493 0.553969 0.830594 0.118706 0.538638 0.834133 
0.117831 0.589307 0.79927 -0.0580275 0.534956 0.842885 -0.109379 0.50854 0.854063 
-0.109595 0.542023 0.833186 -0.0995451 0.418472 0.902758 -0.110147 0.587001 0.802059 
-0.137783 0.402327 0.905068 -0.181156 0.658591 0.73037 -0.299579 0.748085 0.592133 
0.598181 0.594354 0.537515 0.320779 0.364774 0.874094 0.31747 0.353329 0.879984 
0.356627 0.406823 0.841019 -0.100812 0.378745 0.919994 -0.0950952 0.379132 0.920443 
-0.101113 0.392033 0.914378 -0.141691 0.491584 0.859226 -0.158807 0.548263 0.82109 
-0.155437 0.392905 0.906347 -0.338668 0.694332 0.634986 -0.2485 0.462889 0.850871 
0.731012 0.553345 0.399288 0.348359 0.310529 0.884431 0.352779 0.304595 0.884742 
0.39968 0.355763 0.844801 -0.293257 0.439472 0.849037 -0.436849 0.261797 0.860596 
-0.612671 0.651167 0.447901 0.337529 0.265879 0.902985 0.511177 0.234968 0.826734 
0.587166 0.381932 0.713697 -0.426837 0.2436 0.870901 -0.801382 0.46512 0.376099 
0.577506 0.156273 0.80129 -0.399269 0.021318 0.916586 -0.724578 0.27123 0.633578 
0.521984 0.0279982 0.852496 0.0276613 -0.612209 -0.790212 -0.543963 -0.83486 0.0843357 
0.86183 -0.202549 -0.464999 0.586439 -0.806835 -0.0714626 -0.348853 -0.0118063 0.937103 
-0.628695 -0.00574469 0.77763 0.579116 0.0408225 0.814223 0.97999 -0.0217903 0.197852 
-0.436012 -0.0819555 0.896201 0.0562583 0.626827 0.777125 0.96055 -0.172398 -0.218225 
0.862486 -0.117401 -0.492276 0.979836 -0.156673 -0.123994 -0.328901 0.0913423 0.939937 
-0.742658 -0.207329 0.636769 0.621427 -0.0424539 0.782321 -0.261738 0.834406 -0.485036 
-0.501262 -0.0178869 0.865111 -0.8096 -0.226875 0.541364 0.646409 -0.0335259 0.762254 
-0.498871 -0.219968 0.838297 -0.498056 -0.278228 0.821298 -0.866089 -0.306239 0.395106 
0.719583 -0.215275 0.660195 0.678591 -0.302943 0.669134 -0.42458 -0.188002 0.885656 
-0.654269 -0.382252 0.652545 0.587566 -0.429783 0.685604 0.83224 -0.554204 -0.0153504 
0.528643 -0.496244 0.688678 -0.442021 -0.296331 0.846643 -0.462432 -0.365248 0.80793 
-0.778142 -0.585931 0.22623 0.451391 -0.567516 0.688601 0.647846 -0.696641 0.308199 
0.405838 -0.593206 0.695271 -0.325621 -0.514321 0.793375 -0.390721 -0.525608 0.755694 
-0.339463 -0.543901 0.767422 -0.631197 -0.763991 0.13382 0.313549 -0.693636 0.648503 
0.270908 -0.724519 0.633784 0.154143 -0.649567 0.744515 0.116161 -0.688491 0.715882 
0.00701858 -0.718473 0.695519 -0.102873 -0.689188 0.717242 -0.115149 -0.646687 0.754013 
-0.296564 -0.644092 0.705121 -0.212526 -0.722107 0.658327 -0.414548 -0.842995 0.342797 
0.347912 0.876199 0.333517 0.199782 0.921615 0.332735 0.0301583 0.947863 0.317247 
0.036589 0.992759 -0.114418 -0.0930531 0.93198 0.350362 -0.168045 0.890477 0.422861 
-0.235255 0.873497 0.426214 -0.307157 0.860932 0.405525 0.627885 0.653664 0.422474 
0.532794 0.736131 0.417423 0.534374 0.73432 0.418591 0.535624 0.743218 0.400915 
-0.342696 0.843776 0.413039 -0.364289 0.836977 0.408366 -0.397178 0.858114 0.325406 
0.658001 0.62834 0.414998 0.737919 0.569725 0.361787 -0.467569 0.824815 0.317899 
-0.489094 0.816873 0.305785 -0.601793 0.752891 0.266459 0.74625 0.55903 0.361381 
-0.64685 0.699424 0.303959 -0.807719 0.501861 0.309396 0.892875 0.357179 0.274222 
-0.83086 0.468421 0.300423 0.94708 0.209491 0.243213 -0.536756 -0.758144 0.370285 
0.460682 -0.720302 0.518592 -0.922541 0.274879 0.27085 0.982493 0.0965697 0.159319 
0.98277 0.0949972 0.158552 -0.803518 -0.470533 0.364634 -0.641573 -0.622426 0.448297 
0.84639 -0.224833 0.482777 0.825854 -0.148594 0.543953 0.626582 -0.407098 0.66458 
-0.98662 0.0206729 0.16172 0.994494 -0.0301821 0.100352 0.992785 -0.0805059 0.0888672 
0.997647 -0.0367847 -0.0578505 -0.548169 0.553334 0.627162 0.548459 0.309474 0.7768 
-0.484053 0.737631 0.470736 -0.285594 0.627197 0.72461 0.783996 0.0605097 0.617809 
-0.948616 -0.1742 0.264162 0.989477 -0.119539 0.0815278 -0.541539 0.772196 0.332337 
0.722004 0.403435 0.562095 -0.00614678 0.92919 0.369551 0.0906904 0.504356 0.85872 
-0.900444 -0.229558 0.369464 0.977511 -0.20768 0.0366237 -0.873156 -0.312633 0.373978 
-0.873855 -0.319786 0.366215 -0.933577 -0.356749 0.0341089 0.932113 -0.362118 0.00595586 
-0.886421 -0.401324 0.230644 0.833042 -0.552269 -0.032241 0.831782 -0.554155 -0.0324221 
0.831302 -0.554056 -0.0442623 -0.794641 -0.58845 0.14924 -0.780095 -0.607209 0.150826 
-0.781763 -0.62187 -0.046097 0.700811 -0.711126 -0.0562499 0.665741 -0.744085 -0.055915 
0.655139 -0.703306 -0.275961 0.515394 -0.854957 -0.0584564 -0.473886 -0.880526 0.0103584 
-0.639841 -0.766742 0.0520571 -0.623381 -0.780595 0.0454809 -0.634688 -0.765721 -0.104129 
0.497671 -0.865217 -0.0610181 0.387879 -0.920011 -0.0559498 0.295935 -0.728443 -0.617894 
0.255454 -0.965549 -0.0495721 0.118877 -0.990865 -0.063674 -0.000508203 -0.998015 -0.0629781 
-0.0862875 -0.994831 -0.0535271 -0.198614 -0.97911 -0.0435403 -0.316205 -0.948015 -0.0358119 
-0.412183 -0.911085 -0.00547301 -0.367567 -0.929863 -0.0157561 -0.384996 -0.868105 -0.313322 
0.0371266 0.977236 -0.208883 0.470626 0.861682 -0.189779 0.338842 0.905909 -0.253997 
0.0533826 0.976647 -0.208115 0.191225 0.958621 -0.210901 0.00377389 0.979819 -0.19985 
0.0374197 0.974738 -0.220193 -0.0534552 0.98115 -0.185709 -0.127244 0.983857 -0.125836 
-0.239203 0.958993 -0.152033 -0.345278 0.923445 -0.167429 0.526421 0.829975 -0.18445 
0.673592 0.712746 -0.195617 0.458094 0.809368 -0.367523 0.26707 0.712579 -0.648771 
-0.421779 0.894139 -0.150392 -0.302917 0.773278 -0.557031 -0.425961 0.892228 -0.149957 
-0.448858 0.836219 -0.315062 0.744352 0.632085 -0.215426 0.838302 0.463462 -0.287146 
0.620501 0.540878 -0.567829 -0.522073 0.800552 -0.294205 -0.41482 0.708604 -0.570792 
-0.523592 0.799234 -0.295087 -0.610661 0.697777 -0.374432 0.852038 0.42749 -0.302131 
0.818266 0.426984 -0.384871 0.4509 0.23486 -0.861121 -0.428549 0.45653 -0.779696 
-0.655172 0.648111 -0.388204 -0.584356 0.65997 -0.472194 -0.746418 0.481277 -0.4596 
0.886724 0.273178 -0.372954 0.666759 0.128579 -0.734098 -0.452911 0.207247 -0.867133 
-0.752573 0.4749 -0.456184 -0.74118 0.474832 -0.474538 0.87376 0.127786 -0.46927 
0.644053 -0.0266183 -0.764518 -0.371503 0.0340681 -0.927806 -0.887436 0.136086 -0.440384 
-0.786148 0.169591 -0.594315 0.859236 0.00650583 -0.511538 0.593644 0.0164547 -0.80456 
-0.290192 0.0319227 -0.956436 -0.810154 -0.05113 -0.583983 -0.782358 -0.0483171 -0.620952 
0.833229 -0.0538788 -0.550297 0.584732 -0.0513697 -0.809599 -0.297495 -0.0600911 -0.95283 
-0.881622 -0.0334532 -0.47077 -0.828927 -0.0429561 -0.557706 0.802178 -0.144316 -0.579382 
0.618538 -0.0966534 -0.779787 -0.403786 -0.0384563 -0.914045 -0.889151 -0.155184 -0.430499 
-0.830186 -0.308415 -0.464404 -0.789007 -0.165086 -0.59179 0.766055 -0.185379 -0.615463 
0.65322 -0.161239 -0.739801 0.31764 -0.245636 -0.915843 -0.109734 -0.245008 -0.963291 
-0.810312 -0.352119 -0.468408 -0.423531 -0.196202 -0.884379 0.722148 -0.30697 -0.619896 
0.687228 -0.369042 -0.62572 0.669065 -0.308912 -0.675962 0.39661 -0.26894 -0.877708 
-0.0649043 -0.178939 -0.981717 -0.143313 -0.284491 -0.947906 -0.277278 -0.284437 -0.917721 
-0.685319 -0.424139 -0.591983 -0.617367 -0.472744 -0.628785 -0.619668 -0.441578 -0.648861 
0.579095 -0.481705 -0.657731 0.53192 -0.508079 -0.677434 0.496317 -0.433136 -0.752371 
0.288074 -0.348168 -0.892072 -0.143763 -0.237214 -0.960761 -0.183324 -0.240749 -0.953117 
-0.211308 -0.34475 -0.914602 -0.493085 -0.553575 -0.671134 -0.474253 -0.574225 -0.667346 
-0.418802 -0.55052 -0.722172 0.436588 -0.587713 -0.681164 0.405462 -0.611192 -0.679739 
0.376204 -0.56684 -0.732914 0.288565 -0.70288 -0.650146 0.251073 -0.442738 -0.860782 
0.153667 -0.375665 -0.913927 0.0776585 -0.343006 -0.936117 0.0134869 -0.307938 -0.951311 
-0.0702361 -0.316931 -0.945844 -0.147432 -0.353977 -0.92356 -0.140879 -0.37139 -0.917727 
-0.300847 -0.638301 -0.708564 -0.189173 -0.485616 -0.853458 -0.425029 -0.610227 -0.668561 
-0.341712 -0.700311 -0.626736 -0.323095 -0.531188 -0.783229 0.259839 -0.711228 -0.653176 
0.145316 -0.718475 -0.680203 0.140139 -0.67873 -0.720893 0.10449 -0.713506 -0.692814 
0.10172 -0.613722 -0.782942 0.02054 -0.73064 -0.682454 0.0188116 -0.602188 -0.798132 
-0.0820952 -0.729663 -0.678861 -0.0751823 -0.607206 -0.790979 -0.113486 -0.703546 -0.70153 
-0.108267 -0.638161 -0.762252 -0.23933 -0.711388 -0.660794 -0.190401 -0.742384 -0.64235 
-0.191596 -0.689262 -0.698719 0.169664 0.549743 -0.817922 0.0549454 0.591393 -0.804509 
0.00441611 0.615173 -0.78838 -0.0869334 0.611656 -0.786333 -0.190903 0.614582 -0.765406 
0.380888 0.393431 -0.836742 0.18617 0.555569 -0.81036 0.224487 0.572704 -0.788426 
0.158138 0.511395 -0.84467 0.0543573 0.499825 -0.864419 0.00429487 0.505298 -0.862934 
-0.0712683 0.507456 -0.858725 -0.198269 0.611951 -0.765641 -0.184052 0.599402 -0.779001 
-0.246136 0.554253 -0.795123 -0.344844 0.451302 -0.823049 0.409643 0.363474 -0.836708 
0.380283 0.349063 -0.85647 0.166806 0.319916 -0.932647 0.0842076 0.277794 -0.956943 
0.0216702 0.251711 -0.96756 0.00391635 0.232179 -0.972665 -0.0359379 0.234588 -0.97143 
-0.103688 0.293401 -0.95035 -0.206704 0.341184 -0.916988 -0.344652 0.430339 -0.83428 
-0.32913 0.389703 -0.860119 -0.325731 0.387421 -0.862441 0.412732 0.212718 -0.885665 
0.402482 0.213449 -0.890195 0.295979 0.133851 -0.94577 0.185294 0.0880278 -0.978732 
0.0340464 0.0484962 -0.998243 0.0192174 0.0591034 -0.998067 -0.0112684 0.0585962 -0.998218 
-0.0019611 0.0575592 -0.99834 -0.0522573 0.0935142 -0.994246 -0.152116 0.122626 -0.980726 
-0.201329 0.175764 -0.963625 -0.32265 0.32592 -0.888636 -0.288815 0.27845 -0.915998 
-0.218081 0.326347 -0.919749 0.481062 0.130398 -0.866935 0.317056 0.143659 -0.937463 
0.164453 0.0737862 -0.983621 0.108988 -0.0511953 -0.992724 0.0587336 -0.0634461 -0.996255 
0.0252362 -0.0970972 -0.994955 0.00101026 -0.0681186 -0.997677 0.00269492 -0.0446464 -0.998999 
-0.0318754 -0.0304631 -0.999027 -0.115995 -0.0276011 -0.992866 -0.158858 0.0194418 -0.98711 
-0.174438 0.099229 -0.979656 -0.316694 0.238889 -0.917953 -0.186523 0.295639 -0.936914 
0.462299 -0.0429886 -0.885682 0.34893 -0.0211678 -0.93691 0.150067 -0.0030888 -0.988671 
0.0470325 -0.0426298 -0.997983 -0.00929895 -0.0958574 -0.995352 0.0174621 -0.140463 -0.989932 
0.0408557 -0.114697 -0.99256 0.0362882 -0.0343039 -0.998752 -0.0379467 -0.0575199 -0.997623 
-0.1031 -0.13244 -0.985815 -0.0715411 -0.0504247 -0.996162 -0.0863633 0.0333196 -0.995706 
-0.312055 0.0267545 -0.949687 -0.228935 0.0402305 -0.97261 0.403949 -0.0385293 -0.91397 
0.340963 -0.0522819 -0.938622 0.148672 -0.0205328 -0.988673 0.0224918 -0.037237 -0.999053 
-0.0391767 -0.062274 -0.99729 0.0031387 -0.120899 -0.99266 0.106507 -0.0270716 -0.993943 
0.0599533 -0.142759 -0.98794 -0.13762 -0.0940353 -0.986011 -0.101919 -0.126372 -0.986733 
0.00537466 -0.054102 -0.998521 -0.0773701 -0.0402502 -0.99619 -0.25474 0.0119195 -0.966936 
-0.176476 -0.0525097 -0.982903 0.395146 -0.0108139 -0.918555 0.333314 -0.00370152 -0.942809 
0.150511 -0.0351411 -0.987984 0.000631954 -0.0375974 -0.999293 -0.0943898 -0.0980094 -0.990699 
0.0568345 -0.175938 -0.982759 0.0143236 -0.117114 -0.993015 -0.0287529 -0.264634 -0.96392 
-0.0150986 -0.114833 -0.99327 -0.0665676 -0.0232933 -0.99751 0.0149532 -0.0386271 -0.999142 
-0.0692082 -0.04985 -0.996356 -0.241087 -0.0413901 -0.969621 -0.18398 -0.0116015 -0.982862 
0.417944 -0.0768991 -0.905212 0.32266 -0.208058 -0.923365 0.347834 -0.0797167 -0.934161 
0.127511 -0.101 -0.986681 -0.0395746 -0.0946596 -0.994723 -0.168583 -0.0743325 -0.982881 
-0.0299315 -0.0172873 -0.999402 0.021839 -0.146766 -0.98893 0.070959 -0.0173326 -0.997329 
0.096887 -0.0869383 -0.991491 -0.0288485 -0.0315741 -0.999085 -0.0226865 -0.0780317 -0.996693 
-0.0542383 -0.0904 -0.994428 -0.288974 -0.0393333 -0.956529 -0.112972 -0.235066 -0.965392 
-0.196277 -0.0777914 -0.977458 0.276102 -0.224684 -0.934497 0.144138 -0.140212 -0.979574 
0.0293136 -0.108631 -0.99365 -0.0255254 -0.00879679 -0.999635 -0.0069605 0.112506 -0.993627 
0.00807612 0.0399594 -0.999169 0.0218016 0.0931176 -0.995416 -0.0146439 -0.0604747 -0.998062 
-0.0591264 -0.10024 -0.993205 -0.0633276 -0.176321 -0.982294 -0.0411175 -0.135704 -0.989896 
-0.104628 -0.235065 -0.966332 -0.127057 -0.246902 -0.960675 -0.0757894 -0.135314 -0.9879 
0.261547 -0.229112 -0.937604 0.240722 -0.245024 -0.939157 0.231513 -0.222919 -0.946947 
0.0883787 -0.134642 -0.986945 0.0539979 -0.0708871 -0.996022 0.0258804 -0.0171326 -0.999518 
-0.00113654 -0.0241255 -0.999708 -0.0363217 -0.0310489 -0.998858 -0.0949308 -0.0882208 -0.991567 
-0.0676521 -0.174858 -0.982267 -0.124272 -0.18992 -0.973903 -0.103871 -0.135066 -0.985377 
0.18722 -0.285188 -0.940009 0.185635 -0.286448 -0.93994 0.185309 -0.283997 -0.940748 
0.108331 -0.26307 -0.958675 0.089426 -0.221385 -0.971078 0.0695111 -0.278116 -0.958029 
0.0414917 -0.187697 -0.98135 0.00887722 -0.268933 -0.963118 -0.0056075 -0.167801 -0.985805 
-0.0624036 -0.264049 -0.962488 -0.0426986 -0.173956 -0.983827 -0.132069 -0.218958 -0.966755 
-0.134572 -0.239518 -0.961521 -0.121505 -0.199626 -0.97231 
