# vtk DataFile Version 4.2
vtk output
ASCII
DATASET POLYDATA
POINTS 524 float
-13.3385 -43.0159 -19.1864 -30.7304 -34.32 -22.6463 -22.0345 -34.32 -23.897 
-13.3385 -34.32 -23.812 -4.6426 -34.32 -23.0305 4.05335 -34.32 -21.6661 
12.7493 -34.32 -20.2701 21.4452 -34.32 -19.0475 -39.4264 -25.624 -23.5204 
-30.7304 -25.624 -26.1083 -22.0345 -25.624 -26.058 -13.3385 -25.624 -25.5625 
-4.6426 -25.624 -25.5959 4.05335 -25.624 -24.7992 12.7493 -25.624 -23.6052 
21.4452 -25.624 -23.3087 30.1412 -25.624 -21.1811 -48.1223 -16.9281 -19.8337 
-39.4264 -16.9281 -25.9612 -30.7304 -16.9281 -27.3145 -22.0345 -16.9281 -26.9405 
-13.3385 -16.9281 -26.3769 -4.6426 -16.9281 -26.902 4.05335 -16.9281 -25.8245 
12.7493 -16.9281 -24.8921 21.4452 -16.9281 -25.1714 30.1412 -16.9281 -22.414 
-48.1223 -8.23214 -23.0417 -39.4264 -8.23214 -27.4167 -30.7304 -8.23214 -27.4297 
-22.0345 -8.23214 -26.9864 -13.3385 -8.23214 -27.0898 -4.6426 -8.23214 -27.3362 
4.05335 -8.23214 -24.0223 12.7493 -8.23214 -24.4034 21.4452 -8.23214 -24.5249 
30.1412 -8.23214 -20.9368 -48.1223 0.463806 -23.9126 -39.4264 0.463806 -27.1928 
-30.7304 0.463806 -26.8749 -22.0345 0.463806 -26.3083 -13.3385 0.463806 -26.3409 
-4.6426 0.463806 -25.7881 4.05335 0.463806 -20.6621 12.7493 0.463806 -21.1137 
21.4452 0.463806 -20.5867 -48.1223 9.15975 -23.5575 -39.4264 9.15975 -26.418 
-30.7304 9.15975 -27.0501 -22.0345 9.15975 -25.9711 -13.3385 9.15975 -25.4983 
-4.6426 9.15975 -25.1152 4.05335 9.15975 -22.067 -48.1223 17.8557 -20.8499 
-39.4264 17.8557 -25.4979 -30.7304 17.8557 -26.7126 -22.0345 17.8557 -26.9438 
-13.3385 17.8557 -26.284 -4.6426 17.8557 -25.2684 4.05335 17.8557 -22.0599 
-39.4264 26.5516 -23.4391 -30.7304 26.5516 -26.5566 -22.0345 26.5516 -27.1148 
-13.3385 26.5516 -26.2319 -4.6426 26.5516 -24.5624 4.05335 26.5516 -21.2818 
-30.7304 35.2476 -23.8832 -22.0345 35.2476 -25.4675 -13.3385 35.2476 -25.3061 
-4.6426 35.2476 -22.6929 4.05335 35.2476 -19.9459 -22.0345 43.9435 -19.5378 
-13.3385 43.9435 -20.5035 -4.6426 43.9435 -19.077 -13.3385 -43.3198 -18.9348 
-30.7304 -39.256 -18.9348 -30.7304 -43.0159 -14.2447 -16.5893 -43.0159 -18.9348 
-22.0345 -42.3982 -18.9348 -22.0345 -43.0159 -18.3402 -10.5515 -43.0159 -18.9348 
-4.6426 -42.0898 -18.9348 -4.6426 -43.0159 -18.292 4.05335 -39.1439 -18.9348 
4.05335 -43.0159 -16.15 12.7493 -36.4836 -18.9348 12.7493 -43.0159 -13.7397 
21.4452 -34.4973 -18.9348 21.4452 -43.0159 -11.9011 -37.5124 -34.32 -18.9348 
-39.4264 -32.6392 -18.9348 -39.4264 -34.32 -16.6881 22.0537 -34.32 -18.9348 
30.1412 -30.871 -18.9348 30.1412 -34.32 -17.201 38.8371 -34.32 -12.6118 
-44.3456 -25.624 -18.9348 -48.1223 -18.5293 -18.9348 34.7178 -25.624 -18.9348 
38.8371 -25.624 -16.7266 -48.8874 -16.9281 -18.9348 36.3161 -16.9281 -18.9348 
38.8371 -16.9281 -17.4799 47.5331 -16.9281 -12.2119 -52.0105 -8.23214 -18.9348 
34.0411 -8.23214 -18.9348 30.1412 -2.05033 -18.9348 38.8371 -8.23214 -16.7907 
47.5331 -8.23214 -13.0318 -53.4564 0.463806 -18.9348 -56.8183 0.463806 -10.2977 
12.7493 3.53678 -18.9348 27.2635 0.463806 -18.9348 21.4452 3.37542 -18.9348 
30.1412 0.463806 -18.2518 38.8371 0.463806 -16.3076 47.5331 0.463806 -13.851 
-53.103 9.15975 -18.9348 7.85941 9.15975 -18.9348 12.7493 9.15975 -15.4437 
21.4452 9.15975 -16.2504 30.1412 9.15975 -16.8724 38.8371 9.15975 -16.6861 
47.5331 9.15975 -14.5748 56.229 9.15975 -10.2796 -50.0932 17.8557 -18.9348 
-48.1223 21.5696 -18.9348 8.94559 17.8557 -18.9348 12.7493 17.8557 -16.7445 
21.4452 17.8557 -16.151 30.1412 17.8557 -16.5394 38.8371 17.8557 -15.9429 
47.5331 17.8557 -13.7789 -44.8885 26.5516 -18.9348 -48.1223 26.5516 -10.9447 
-39.4264 33.2858 -18.9348 9.7328 26.5516 -18.9348 12.7493 26.5516 -17.7017 
21.4452 26.5516 -15.9011 30.1412 26.5516 -15.4931 38.8371 26.5516 -13.9904 
47.5331 26.5516 -11.4192 -37.5183 35.2476 -18.9348 -39.4264 35.2476 -13.5926 
-30.7304 40.5668 -18.9348 6.35556 35.2476 -18.9348 4.05335 37.406 -18.9348 
12.7493 35.2476 -16.1297 21.4452 35.2476 -13.6551 30.1412 35.2476 -11.8524 
-23.4778 43.9435 -18.9348 -22.0345 44.5099 -18.9348 -13.3385 45.5504 -18.9348 
-4.27041 43.9435 -18.9348 -4.6426 44.1233 -18.9348 4.05335 43.9435 -14.8524 
-30.7304 -45.3612 -10.2389 -22.0345 -48.5875 -10.2389 -13.3385 -49.8931 -10.2389 
-4.6426 -49.7897 -10.2389 -4.6426 -51.7119 -2.0921 4.05335 -48.1943 -10.2389 
12.7493 -46.2432 -10.2389 21.4452 -44.3547 -10.2389 -34.4774 -43.0159 -10.2389 
-39.4264 -38.5398 -10.2389 26.6248 -43.0159 -10.2389 30.1412 -41.9186 -10.2389 
30.1412 -43.0159 -7.89396 38.8371 -36.8373 -10.2389 -42.6884 -34.32 -10.2389 
41.6284 -34.32 -10.2389 47.5331 -34.32 -1.87813 -47.2396 -25.624 -10.2389 
-48.1223 -23.5636 -10.2389 47.0676 -25.624 -10.2389 47.5331 -24.1573 -10.2389 
47.5331 -25.624 -9.76639 -51.0094 -16.9281 -10.2389 49.9259 -16.9281 -10.2389 
56.229 -16.9281 -4.44997 -54.592 -8.23214 -10.2389 -56.8183 0.395851 -10.2389 
52.3759 -8.23214 -10.2389 56.229 -8.23214 -7.78523 -56.8355 0.463806 -10.2389 
-56.8183 0.793388 -10.2389 54.442 0.463806 -10.2389 56.229 8.78429 -10.2389 
56.229 0.463806 -9.24334 -56.398 9.15975 -10.2389 56.3054 9.15975 -10.2389 
56.229 9.63216 -10.2389 -53.6343 17.8557 -10.2389 54.6776 17.8557 -10.2389 
56.229 17.8557 -9.17231 -48.3468 26.5516 -10.2389 -48.1223 26.8329 -10.2389 
-48.1223 26.5516 -5.80888 38.8371 33.5723 -10.2389 49.1728 26.5516 -10.2389 
47.5331 28.2358 -10.2389 -40.3365 35.2476 -10.2389 -39.4264 36.0978 -10.2389 
-39.4264 35.2476 -3.4605 -30.7304 42.7989 -10.2389 12.7493 43.5218 -10.2389 
21.4452 39.6199 -10.2389 35.2299 35.2476 -10.2389 30.1412 36.9119 -10.2389 
38.8371 35.2476 -8.34552 -28.7424 43.9435 -10.2389 -22.0345 47.4417 -10.2389 
-13.3385 49.956 -10.2389 -4.6426 49.9102 -10.2389 12.0545 43.9435 -10.2389 
4.05335 47.5016 -10.2389 12.7493 43.9435 -9.34273 -4.6426 -51.82 -1.54293 
-30.7304 -46.3841 -1.54293 -22.0345 -49.8515 -1.54293 -6.75242 -51.7119 -1.54293 
-13.3385 -51.3718 -1.54293 -2.55735 -51.7119 -1.54293 -4.6426 -51.7119 -1.18078 
4.05335 -51.3618 -1.54293 12.7493 -49.6855 -1.54293 21.4452 -47.7023 -1.54293 
30.1412 -45.2465 -1.54293 -35.7809 -43.0159 -1.54293 -39.4264 -39.5169 -1.54293 
35.5272 -43.0159 -1.54293 38.8371 -41.4695 -1.54293 47.5331 -34.5291 -1.54293 
-43.5067 -34.32 -1.54293 47.738 -34.32 -1.54293 47.5331 -34.32 3.08196 
-47.6594 -25.624 -1.54293 -48.1223 -24.5581 -1.54293 54.0517 -25.624 -1.54293 
56.229 -21.5251 -1.54293 -51.2466 -16.9281 -1.54293 58.9567 -16.9281 -1.54293 
-54.7265 -8.23214 -1.54293 -56.8183 -0.184976 -1.54293 61.8898 -8.23214 -1.54293 
-56.9839 0.463806 -1.54293 -56.8183 3.10816 -1.54293 -56.8183 0.463806 -0.527666 
63.166 0.463806 -1.54293 64.925 0.463806 4.82448 -56.4392 9.15975 -1.54293 
63.6823 9.15975 -1.54293 -53.6135 17.8557 -1.54293 -48.1223 26.2643 -1.54293 
61.1359 17.8557 -1.54293 56.229 26.2855 -1.54293 -47.888 26.5516 -1.54293 
-39.4264 35.007 -1.54293 56.0181 26.5516 -1.54293 47.5331 34.4889 -1.54293 
-39.139 35.2476 -1.54293 -30.7304 41.469 -1.54293 21.4452 43.9001 -1.54293 
30.1412 41.6405 -1.54293 46.2028 35.2476 -1.54293 38.8371 38.8212 -1.54293 
-26.6017 43.9435 -1.54293 -22.0345 46.4297 -1.54293 -22.0345 43.9435 5.93482 
-13.3385 49.5608 -1.54293 -4.6426 50.4561 -1.54293 4.05335 49.0806 -1.54293 
21.2935 43.9435 -1.54293 12.7493 46.5018 -1.54293 -30.7304 -43.5241 7.15302 
-22.0345 -46.4877 7.15302 -13.3385 -47.9786 7.15302 -4.6426 -48.4864 7.15302 
4.05335 -48.3964 7.15302 12.7493 -47.4758 7.15302 21.4452 -46.0421 7.15302 
30.1412 -43.7809 7.15302 -31.5816 -43.0159 7.15302 -39.4264 -37.2442 7.15302 
-30.7304 -43.0159 7.8624 -22.0345 -43.0159 11.452 -13.3385 -43.0159 12.6191 
-4.6426 -43.0159 12.3303 4.05335 -43.0159 12.478 12.7493 -43.0159 12.1144 
21.4452 -43.0159 11.3282 32.0471 -43.0159 7.15302 30.1412 -43.0159 8.19701 
38.8371 -40.0823 7.15302 -42.1094 -34.32 7.15302 -39.4264 -34.32 11.4516 
30.1412 -34.32 15.833 47.2865 -34.32 7.15302 38.8371 -34.32 13.7228 
47.5331 -34.1168 7.15302 -47.4529 -25.624 7.15302 -48.1223 -24.1175 7.15302 
55.4009 -25.624 7.15302 47.5331 -25.624 15.6655 56.229 -24.4977 7.15302 
-51.093 -16.9281 7.15302 60.8421 -16.9281 7.15302 56.229 -16.9281 13.416 
-53.9305 -8.23214 7.15302 64.244 -8.23214 7.15302 64.925 -3.86998 7.15302 
-55.4933 0.463806 7.15302 65.5315 0.463806 7.15302 64.925 6.55957 7.15302 
64.925 0.463806 8.1943 -54.76 9.15975 7.15302 64.6388 9.15975 7.15302 
-51.6549 17.8557 7.15302 -48.1223 23.4013 7.15302 -48.1223 17.8557 15.1314 
62.1849 17.8557 7.15302 56.229 25.4329 7.15302 56.229 17.8557 14.4554 
-45.6776 26.5516 7.15302 -39.4264 32.71 7.15302 55.2821 26.5516 7.15302 
47.5331 33.6446 7.15302 -36.1007 35.2476 7.15302 -30.7304 38.8971 7.15302 
-22.0345 43.5213 7.15302 21.4452 43.3681 7.15302 30.1412 41.7218 7.15302 
45.0282 35.2476 7.15302 38.8371 38.6399 7.15302 38.8371 35.2476 14.4222 
-20.9219 43.9435 7.15302 -13.3385 46.6555 7.15302 -13.3385 43.9435 14.5867 
-4.6426 47.8345 7.15302 4.05335 47.1293 7.15302 19.0446 43.9435 7.15302 
12.7493 45.5238 7.15302 12.7493 43.9435 12.7418 -30.7304 -35.7718 15.849 
-22.0345 -37.6438 15.849 -13.3385 -37.4354 15.849 -4.6426 -36.3237 15.849 
4.05335 -36.6269 15.849 12.7493 -36.8179 15.849 21.4452 -37.0898 15.849 
-33.5201 -34.32 15.849 -39.4264 -30.9966 15.849 -30.7304 -34.32 17.0174 
-22.0345 -34.32 18.0046 -13.3385 -34.32 17.4278 -4.6426 -34.32 16.7819 
4.05335 -34.32 16.9202 12.7493 -34.32 17.1029 30.0536 -34.32 15.849 
21.4452 -34.32 17.22 30.1412 -34.2784 15.849 38.8371 -30.3035 15.849 
-43.8343 -25.624 15.849 -48.1223 -17.8367 15.849 -39.4264 -25.624 19.6965 
-30.7304 -25.624 21.8389 -22.0345 -25.624 21.7378 -13.3385 -25.624 20.5811 
-4.6426 -25.624 19.6731 4.05335 -25.624 19.5012 12.7493 -25.624 19.6579 
21.4452 -25.624 19.3337 30.1412 -25.624 18.8203 46.9662 -25.624 15.849 
38.8371 -25.624 17.8043 47.5331 -25.1069 15.849 -48.5403 -16.9281 15.849 
-48.1223 -16.9281 16.4148 -39.4264 -16.9281 23.1341 -30.7304 -16.9281 24.4237 
-22.0345 -16.9281 24.2806 -13.3385 -16.9281 22.8008 -4.6426 -16.9281 22.5913 
4.05335 -16.9281 22.1012 12.7493 -16.9281 21.0996 21.4452 -16.9281 20.1722 
[...]
POINT_DATA 524
SCALARS ImageScalars float
LOOKUP_TABLE default
0 0 0 0 0 0 0 0 0 
0 0 0 0 0 0 0 0 0 
0 0 0 0 0 0 0 0 0 
0 0 0 0 0 0 0 0 0 
0 0 0 0 0 0 0 0 0 
0 0 0 0 0 0 0 0 0 
0 0 0 0 0 0 0 0 0 
0 0 0 0 0 0 0 0 0 
0 0 0 0 0 0 0 0 0 
0 0 0 0 0 0 0 0 0 
0 0 0 0 0 0 0 0 0 
0 0 0 0 0 0 0 0 0 
0 0 0 0 0 0 0 0 0 
0 0 0 0 0 0 0 0 0 
0 0 0 0 0 0 0 0 0 
0 0 0 0 0 0 0 0 0 
0 0 0 0 0 0 0 0 0 
0 0 0 0 0 0 0 0 0 
0 0 0 0 0 0 0 0 0 
0 0 0 0 0 0 0 0 0 
0 0 0 0 0 0 0 0 0 
0 0 0 0 0 0 0 0 0 
0 0 0 0 0 0 0 0 0 
0 0 0 0 0 0 0 0 0 
0 0 0 0 0 0 0 0 0 
0 0 0 0 0 0 0 0 0 
0 0 0 0 0 0 0 0 0 
0 0 0 0 0 0 0 0 0 
0 0 0 0 0 0 0 0 0 
0 0 0 0 0 0 0 0 0 
0 0 0 0 0 0 0 0 0 
0 0 0 0 0 0 0 0 0 
0 0 0 0 0 0 0 0 0 
0 0 0 0 0 0 0 0 0 
0 0 0 0 0 0 0 0 0 
0 0 0 0 0 0 0 0 0 
0 0 0 0 0 0 0 0 0 
0 0 0 0 0 0 0 0 0 
0 0 0 0 0 0 0 0 0 
0 0 0 0 0 0 0 0 0 
0 0 0 0 0 0 0 0 0 
0 0 0 0 0 0 0 0 0 
0 0 0 0 0 0 0 0 0 
0 0 0 0 0 0 0 0 0 
0 0 0 0 0 0 0 0 0 
0 0 0 0 0 0 0 0 0 
0 0 0 0 0 0 0 0 0 
0 0 0 0 0 0 0 0 0 
0 0 0 0 0 0 0 0 0 
0 0 0 0 0 0 0 0 0 
0 0 0 0 0 0 0 0 0 
0 0 0 0 0 0 0 0 0 
0 0 0 0 0 0 0 0 0 
0 0 0 0 0 0 0 0 0 
0 0 0 0 0 0 0 0 0 
0 0 0 0 0 0 0 0 0 
0 0 0 0 0 0 0 0 0 
0 0 0 0 0 0 0 0 0 
0 0 
NORMALS Normals float
0.00598236 -0.613655 -0.789551 -0.278363 -0.487675 -0.827458 -0.0545405 -0.38036 -0.923229 
0.0467707 -0.328521 -0.943338 0.112158 -0.369356 -0.922495 0.146167 -0.419715 -0.895809 
0.134946 -0.456031 -0.879673 0.14416 -0.515537 -0.844653 -0.47276 -0.389757 -0.790308 
-0.119052 -0.243642 -0.962531 0.0310938 -0.169863 -0.984977 0.025867 -0.138482 -0.990027 
0.041929 -0.209911 -0.976821 0.110725 -0.219957 -0.969205 0.0832584 -0.248682 -0.965 
0.125678 -0.320965 -0.938715 0.341549 -0.25377 -0.904956 -0.776954 -0.353018 -0.521269 
-0.330875 -0.191965 -0.923943 -0.0523826 -0.0705491 -0.996132 0.0534424 -0.0518913 -0.997222 
0.00225184 -0.0868362 -0.99622 0.0295408 -0.09691 -0.994855 0.117032 0.0374361 -0.992422 
0.0361299 -0.0447581 -0.998344 0.122842 -0.0704337 -0.989924 0.416195 0.00404766 -0.909266 
-0.62627 -0.177452 -0.759142 -0.192712 -0.0660077 -0.979033 0.024778 0.0253783 -0.999371 
0.0195587 0.0362668 -0.999151 -0.0192243 0.00196934 -0.999813 0.162204 0.0539594 -0.985281 
0.164775 0.281736 -0.945238 -0.0269894 0.19596 -0.98024 0.162182 0.222281 -0.961399 
0.427352 0.215562 -0.878011 -0.524698 -0.02241 -0.850993 -0.132077 0.0530995 -0.989816 
0.0497648 0.0221287 -0.998516 0.0309342 0.0587835 -0.997791 0.0263051 0.0935759 -0.995265 
0.307917 0.128526 -0.942692 0.245737 0.110868 -0.962975 0.0012207 0.498895 -0.866662 
0.151923 0.477172 -0.865579 -0.500809 0.14506 -0.853316 -0.1877 0.0981158 -0.977314 
0.0284557 0.00923127 -0.999552 0.0883008 -0.0364546 -0.995427 0.0490937 0.00316443 -0.998789 
0.171721 0.0250121 -0.984828 0.5292 -0.0753486 -0.845145 -0.656356 0.342523 -0.672216 
-0.286778 0.142431 -0.94735 -0.0830305 0.0275216 -0.996167 0.0245921 -0.0652969 -0.997563 
0.0948664 -0.0420697 -0.994601 0.212072 0.0305436 -0.976777 0.477919 0.0438709 -0.877308 
-0.487026 0.371104 -0.790625 -0.183294 0.130345 -0.974378 0.0214427 0.0806458 -0.996512 
0.142464 0.0476651 -0.988652 0.265906 0.137269 -0.954176 0.380956 0.108013 -0.918262 
-0.365009 0.500491 -0.785034 -0.0606876 0.364227 -0.929331 0.149191 0.287082 -0.946217 
0.268202 0.284122 -0.920512 0.348546 0.279963 -0.894504 -0.21636 0.773443 -0.595797 
0.0313306 0.653816 -0.756005 0.245752 0.560823 -0.790623 0.00511194 -0.624208 -0.781242 
-0.330042 -0.630825 -0.702233 -0.395639 -0.788704 -0.470548 -0.0524322 -0.636131 -0.769797 
-0.144607 -0.64704 -0.748617 -0.15608 -0.680024 -0.716384 0.0457564 -0.611153 -0.790188 
0.128174 -0.575822 -0.807465 0.128695 -0.612171 -0.780182 0.170766 -0.52989 -0.830696 
0.189675 -0.654633 -0.731764 0.143986 -0.503664 -0.851816 0.177863 -0.703246 -0.688339 
0.144698 -0.519491 -0.842135 0.187405 -0.779587 -0.597598 -0.53491 -0.565298 -0.627941 
-0.585665 -0.550261 -0.595155 -0.64286 -0.583337 -0.496437 0.153516 -0.515074 -0.843286 
0.310677 -0.399554 -0.86246 0.28765 -0.516488 -0.806534 0.518901 -0.537168 -0.664975 
-0.723173 -0.449053 -0.524759 -0.796906 -0.372775 -0.475374 0.443779 -0.222871 -0.86798 
0.532335 -0.209598 -0.820176 -0.802662 -0.360984 -0.474789 0.463282 0.013224 -0.886112 
0.481424 0.000604204 -0.876488 0.574787 -0.149036 -0.804617 -0.823596 -0.222139 -0.521866 
0.407479 0.155889 -0.899811 0.294971 0.230377 -0.927318 0.383548 0.0611457 -0.921495 
0.450392 -0.0777863 -0.889436 -0.817992 -0.056946 -0.572404 -0.981868 -0.10199 -0.159789 
0.127336 0.439606 -0.889118 0.212805 0.317293 -0.924142 0.0789142 0.403419 -0.911606 
0.229868 0.224255 -0.947032 0.2302 0.00455388 -0.973133 0.378503 -0.0773102 -0.922366 
-0.790918 0.159618 -0.590737 0.488514 0.0698247 -0.869758 0.24827 0.189457 -0.949983 
-0.0862063 0.210604 -0.973763 -0.0234088 0.09031 -0.995639 0.117286 0.0187408 -0.992921 
0.348116 0.00186223 -0.93745 0.481161 -0.0106488 -0.876567 -0.73364 0.355315 -0.579243 
-0.710876 0.41759 -0.565927 0.409573 -0.0654286 -0.909928 0.29195 -0.130216 -0.947528 
0.00940408 0.0195212 -0.999765 0.0101915 0.0759183 -0.997062 0.143248 0.154255 -0.977592 
0.35073 0.168848 -0.921129 -0.675719 0.491716 -0.5492 -0.79049 0.596662 -0.138272 
-0.626199 0.59379 -0.50526 0.330618 0.0536617 -0.942238 0.292934 0.0309227 -0.955632 
0.117929 0.130702 -0.984383 0.111932 0.229482 -0.966855 0.212746 0.324003 -0.921825 
0.464655 0.42346 -0.777674 -0.606839 0.623454 -0.493003 -0.675166 0.708761 -0.20447 
-0.451554 0.740735 -0.497404 0.343847 0.280715 -0.896085 0.353479 0.340083 -0.871434 
0.328457 0.320933 -0.888323 0.220742 0.464412 -0.857668 0.235642 0.60263 -0.762437 
-0.257951 0.791343 -0.55429 -0.223552 0.792801 -0.567002 0.00920331 0.72231 -0.691508 
0.250906 0.56062 -0.789146 0.243534 0.567917 -0.786233 0.368914 0.652748 -0.661681 
-0.434295 -0.852986 -0.289487 -0.228762 -0.917167 -0.326302 -0.0630096 -0.929362 -0.363752 
0.0827899 -0.903644 -0.420207 0.00489396 -0.999684 0.0246567 0.17027 -0.839974 -0.51522 
0.192347 -0.811097 -0.55238 0.201887 -0.819197 -0.536804 -0.54966 -0.790509 -0.270128 
-0.72293 -0.652989 -0.225782 0.268802 -0.809136 -0.522537 0.320675 -0.788474 -0.524858 
0.327709 -0.860872 -0.389237 0.514559 -0.623487 -0.588636 -0.800396 -0.560105 -0.213655 
0.557964 -0.552544 -0.61917 0.71296 -0.66388 -0.225724 -0.906561 -0.3979 -0.140796 
-0.912116 -0.388294 -0.131425 0.656498 -0.288736 -0.69688 0.651054 -0.269298 -0.709653 
0.670229 -0.301915 -0.677968 -0.917035 -0.384033 -0.10754 0.60708 -0.189072 -0.77182 
0.739377 -0.363454 -0.566765 -0.944389 -0.303787 -0.125872 -0.982068 -0.103929 -0.157292 
0.488229 -0.145511 -0.860499 0.59488 -0.210607 -0.775733 -0.982193 -0.10224 -0.157617 
-0.983257 -0.0917404 -0.157449 0.464246 -0.106229 -0.879313 0.481207 -0.0151511 -0.876476 
0.516588 -0.113381 -0.848694 -0.974846 0.163807 -0.151135 0.483657 -0.00969737 -0.875204 
0.487515 0.00499208 -0.8731 -0.900457 0.406197 -0.155505 0.541332 0.256566 -0.800708 
0.616225 0.295133 -0.73018 -0.792649 0.600175 -0.107221 -0.789389 0.604758 -0.105512 
-0.783037 0.621964 0.00375337 0.323011 0.625809 -0.709949 0.521863 0.449009 -0.725293 
0.489525 0.490694 -0.720822 -0.680831 0.730951 -0.046682 -0.669737 0.741423 -0.0417617 
-0.654344 0.749458 0.100728 -0.540811 0.840847 -0.0223557 0.386085 0.759829 -0.523066 
0.278271 0.677244 -0.681106 0.307604 0.664555 -0.680989 0.257561 0.679403 -0.687077 
0.359172 0.741436 -0.566805 -0.495605 0.867916 -0.0331216 -0.363808 0.928008 -0.0802815 
-0.132353 0.973597 -0.185987 0.131893 0.951968 -0.276335 0.385289 0.773608 -0.503073 
0.329358 0.863402 -0.382178 0.380444 0.799042 -0.465612 0.000217369 -0.998738 0.0502215 
-0.473096 -0.877198 0.0818811 -0.264806 -0.958761 0.103225 -0.0258106 -0.99779 0.0612262 
-0.108319 -0.989675 0.0938624 0.0298176 -0.998903 0.0360954 -0.00106684 -0.997642 0.0686266 
0.124695 -0.992132 -0.0111847 0.203367 -0.978203 -0.0419554 0.248081 -0.965414 -0.0801978 
0.316298 -0.944671 -0.0868985 -0.620592 -0.780413 0.0762937 -0.749398 -0.659999 0.0529436 
0.426038 -0.898587 -0.105041 0.510276 -0.850371 -0.128401 0.711778 -0.670614 -0.208922 
-0.846253 -0.532344 0.0215857 0.716221 -0.66581 -0.209102 0.692562 -0.716912 0.0799708 
-0.919756 -0.392271 -0.0131273 -0.921108 -0.389056 -0.013963 0.800186 -0.487192 -0.349779 
0.793493 -0.448485 -0.411376 -0.92704 -0.374934 -0.00452119 0.81277 -0.383648 -0.438429 
-0.952554 -0.30231 0.0353615 -0.990705 -0.115372 0.0720628 0.875486 -0.210145 -0.435159 
-0.992227 -0.0990946 0.0752779 -0.996783 -0.0126658 0.0791444 -0.990978 -0.0931086 0.0963975 
0.913553 -0.0957587 -0.395286 0.998729 -0.0400145 0.0306397 -0.980385 0.176684 0.0873405 
0.95198 0.12212 -0.28075 -0.89921 0.426112 0.0992481 -0.769216 0.629404 0.110258 
0.884368 0.36859 -0.286418 0.755598 0.61205 -0.233382 -0.764122 0.63546 0.110945 
-0.647296 0.748869 0.142136 0.750377 0.619062 -0.231727 0.569547 0.795581 -0.206562 
-0.643434 0.751887 0.143734 -0.540318 0.820687 0.185823 0.25799 0.955779 -0.141165 
0.275013 0.937951 -0.211223 0.531779 0.821609 -0.20535 0.35079 0.913149 -0.20762 
-0.482797 0.854047 0.193679 -0.407593 0.89139 0.198222 -0.390563 0.881324 0.265948 
-0.217221 0.959576 0.178965 0.0259071 0.992928 0.115857 0.217119 0.97574 0.028124 
0.258414 0.95588 -0.1397 0.292564 0.953293 -0.0750907 -0.394972 -0.808482 0.436295 
-0.21558 -0.838873 0.499817 -0.0991323 -0.825032 0.556322 -0.0223573 -0.814308 0.580002 
0.0530106 -0.83242 0.551604 0.122325 -0.864078 0.488269 0.193069 -0.892324 0.408023 
0.297713 -0.865769 0.402257 -0.419891 -0.798922 0.430599 -0.667566 -0.67795 0.307799 
-0.386976 -0.795642 0.466051 -0.175214 -0.716599 0.675119 -0.0332621 -0.632984 0.77345 
0.00636038 -0.596276 0.802755 0.00955961 -0.609799 0.792498 0.0485237 -0.672638 0.738379 
0.157466 -0.753127 0.638752 0.327892 -0.854472 0.402946 0.299735 -0.841026 0.450371 
0.437711 -0.807796 0.39481 -0.731147 -0.62163 0.281069 -0.602876 -0.648276 0.465058 
0.165767 -0.447053 0.879014 0.617215 -0.709523 0.340034 0.353177 -0.574781 0.738169 
0.622286 -0.706607 0.336849 -0.888506 -0.42795 0.165576 -0.899481 -0.407851 0.156819 
0.778269 -0.582656 0.234116 0.417461 -0.42233 0.804589 0.793347 -0.566628 0.222562 
-0.93082 -0.339734 0.134741 0.875522 -0.450283 0.175231 0.617484 -0.441353 0.651092 
-0.953443 -0.234947 0.189069 0.962958 -0.254363 0.0895095 0.983385 -0.133596 0.122906 
-0.966005 -0.0456743 0.254456 0.986472 -0.0203428 0.162664 0.982123 0.107895 0.154249 
0.974218 -0.0207346 0.224652 -0.942017 0.192774 0.274666 0.973614 0.167324 0.155175 
-0.856235 0.431247 0.284408 -0.78804 0.553909 0.268658 -0.779716 0.401868 0.480151 
0.87056 0.443037 0.21411 0.737009 0.604854 0.301611 0.57507 0.411679 0.706976 
-0.739334 0.626739 0.246138 -0.628379 0.740458 0.238458 0.723562 0.623378 0.296407 
0.572429 0.768865 0.284907 -0.575549 0.782186 0.238596 -0.510249 0.822806 0.250271 
-0.385826 0.879984 0.277069 0.212265 0.971632 0.104281 0.250557 0.955664 0.154688 
0.524653 0.810534 0.260335 0.400786 0.893309 0.203394 0.464831 0.722341 0.512011 
-0.363964 0.887011 0.28415 -0.218322 0.919149 0.327874 -0.176472 0.884981 0.43089 
-0.0246533 0.944215 0.328405 0.129549 0.953762 0.271211 0.212482 0.969584 0.121484 
0.206956 0.960158 0.187792 0.145052 0.930556 0.336191 -0.23059 -0.61419 0.754718 
-0.0631481 -0.542558 0.837641 0.0345938 -0.473825 0.879939 0.0215625 -0.407175 0.913096 
-0.0126622 -0.403628 0.914835 -0.0123971 -0.437477 0.899144 0.081181 -0.447266 0.890709 
-0.312986 -0.617887 0.721287 -0.509774 -0.588925 0.627134 -0.214568 -0.592303 0.776619 
-0.0145476 -0.481368 0.876398 0.064188 -0.410326 0.909677 0.0257847 -0.368179 0.929397 
-0.0170066 -0.352361 0.935709 -0.0162285 -0.37198 0.928099 0.164589 -0.445803 0.87987 
0.0621899 -0.35906 0.93124 0.165254 -0.445586 0.879855 0.253293 -0.420262 0.871334 
-0.669552 -0.493239 0.555352 -0.81017 -0.35683 0.465078 -0.446187 -0.478389 0.756347 
-0.0940726 -0.368276 0.924945 0.0699068 -0.327006 0.942433 0.111648 -0.288271 0.951018 
0.0600118 -0.313618 0.947651 0.000382368 -0.279383 0.96018 0.00958136 -0.215143 0.976536 
0.0465139 -0.165616 0.985093 0.0790613 -0.217557 0.97284 0.3978 -0.410818 0.820356 
0.178925 -0.292755 0.939298 0.405647 -0.408174 0.817829 -0.817581 -0.343051 0.462469 
-0.802783 -0.34218 0.488317 -0.327759 -0.267681 0.906047 -0.0568582 -0.215671 0.974809 
0.0916101 -0.162841 0.98239 0.0935619 -0.171246 0.980776 0.0394643 -0.207751 0.977385 
0.083793 -0.234219 0.968566 0.10828 -0.184539 0.976842 0.0574369 -0.0794699 0.995181 
0.0351697 -0.132467 0.990563 0.109672 -0.179272 0.977667 0.419186 -0.337399 0.842879 
0.291326 -0.263812 0.919528 0.49095 -0.306033 0.815666 -0.857398 -0.174788 0.484064 
-0.735669 -0.155509 0.659248 0.0790232 -0.0221448 0.996627 -0.00373059 -0.024304 0.999698 
0.0142249 -0.145828 0.989208 0.177992 -0.241975 0.953817 0.0969454 -0.111862 0.988984 
-0.0279819 -0.0900091 0.995548 0.0414514 -0.127518 0.99097 0.2299 -0.140054 0.963084 
0.558009 -0.208389 0.803243 0.461896 -0.213944 0.860744 -0.838691 0.00341478 0.544596 
-0.675321 0.0209207 0.737227 0.0927865 0.0154685 0.995566 -0.0825071 0.0177219 0.996433 
0.195017 -0.14858 0.96948 0.0194083 -0.0932356 0.995455 0.0582214 -0.0485977 0.99712 
0.210166 -0.00595619 0.977648 0.624596 -0.0128473 0.780842 0.483672 -0.0107717 0.875183 
-0.807179 0.206275 0.553094 -0.774674 0.378978 0.506218 -0.699463 0.191847 0.688437 
-0.296457 0.0705238 0.952439 0.110154 -0.122234 0.98637 0.0217261 -0.113071 0.993349 
-0.0264268 0.0179365 0.99949 -0.0198094 0.0462237 0.998735 0.0386907 -0.127139 0.99113 
0.0706279 -0.14904 0.986306 0.129827 -0.0179427 0.991374 0.266514 0.0666342 0.961525 
0.575475 0.165828 0.80083 0.51691 0.312317 0.797034 0.467964 0.172316 0.866786 
-0.768685 0.395744 0.502504 -0.382672 0.230338 0.89471 0.0409368 -0.168733 0.984811 
0.00158953 -0.0949461 0.995481 0.00198123 -0.0744391 0.997224 0.122625 -0.0292801 0.992021 
0.260611 0.0994303 0.96031 0.505639 0.353774 0.786876 0.382083 0.209492 0.90007 
-0.673688 0.576266 0.462669 -0.629105 0.636817 0.445749 -0.600903 0.552743 0.577401 
-0.316951 0.308573 0.896842 0.2371 0.228881 0.944138 0.456017 0.652006 0.605753 
0.367751 0.310075 0.876705 0.54235 0.463604 0.700662 0.522668 0.487825 0.699174 
0.510261 0.450822 0.732389 -0.515276 0.754609 0.406271 -0.492414 0.770265 0.405241 
-0.484814 0.732972 0.477186 -0.352268 0.826496 0.439104 -0.301235 0.572054 0.762897 
-0.169519 0.871552 0.460066 0.113927 0.886319 0.448843 0.141216 0.405449 0.903144 
0.228732 0.865698 0.445252 0.211971 0.505415 0.836436 0.436169 0.690684 0.576812 
0.328606 0.771167 0.54527 0.305077 0.63057 0.713659 -0.100099 0.879206 0.465808 
-0.0314212 0.877714 0.478153 -0.0302729 0.863747 0.503016 0.0791975 0.884123 0.460494 
0.0757776 0.882202 0.464733 0.075229 0.878749 0.471319 -0.277302 -0.130627 0.951862 
-0.0510361 -0.205564 0.977312 0.111184 -0.0883626 0.989864 -0.303496 -0.100029 0.947568 
-0.270057 -0.0980316 0.957841 0.00939696 -0.0976141 0.99518 0.11903 -0.0216473 0.992655 
0.129086 -0.0219782 0.99139 -0.105201 0.010017 0.994401 0.163362 -0.0966787 0.981818 
-0.316376 0.0366168 0.947927 -0.287353 0.0563503 0.956166 -0.27616 0.0373114 0.960387 
0.0248218 0.011478 0.999626 0.161082 -0.01356 0.986848 0.166786 -0.015749 0.985867 
-0.124735 0.0408639 0.991348 -0.118863 0.0412955 0.992051 -0.129458 0.0435086 0.99063 
0.166259 -0.0476826 0.984929 0.0818796 0.0106718 0.996585 0.151055 -0.0129735 0.98844 
-0.24248 0.0670867 0.967834 -0.0400025 0.061328 0.997316 0.12662 -0.0768148 0.988973 
0.131812 -0.0563298 0.989673 0.0659345 -0.146649 0.986989 0.0468689 -0.177524 0.983 
-0.20666 0.146405 0.967397 -0.187633 0.179998 0.965606 -0.102916 0.096418 0.990006 
-0.0150641 -0.0334647 0.999326 0.0320445 -0.161268 0.98639 0.0445686 -0.176322 0.983323 
0.0538787 -0.198524 0.978614 0.0451467 -0.152863 0.987216 0.0187803 -0.0629904 0.997837 
0.0742391 0.05905 0.995491 -0.234039 0.231837 0.944181 -0.192226 0.292396 0.936778 
-0.126331 0.139155 0.982179 -0.0489067 0.0306541 0.998333 0.02151 0.0124593 0.999691 
0.0766442 -0.0233246 0.996786 0.101169 0.185533 0.977416 0.0677221 0.0289341 0.997285 
0.106284 0.110992 0.988122 0.102045 0.114579 0.988159 0.098718 0.104383 0.989626 
-0.12465 0.42729 0.895481 -0.104581 0.430132 0.896688 -0.101638 0.412018 0.905489 
-0.00579443 0.408864 0.912577 -0.00469482 0.389419 0.921049 0.0816193 0.371501 0.924838 
0.0578974 0.392734 0.917828 0.0581155 0.366198 0.928721 
