# vtk DataFile Version 4.2
vtk output
ASCII
DATASET POLYDATA
POINTS 514 float
-34.4401 -37.2878 -17.1594 -26.1439 -37.2878 -20.7089 -17.8477 -37.2878 -21.95 
-9.55148 -37.2878 -21.7178 -1.25525 -37.2878 -20.3364 7.04097 -37.2878 -18.7518 
15.3372 -37.2878 -17.066 -34.4401 -28.9916 -20.9162 -26.1439 -28.9916 -23.3076 
-17.8477 -28.9916 -24.2283 -9.55148 -28.9916 -24.2612 -1.25525 -28.9916 -23.7452 
7.04097 -28.9916 -23.4405 15.3372 -28.9916 -23.365 23.6334 -28.9916 -22.3485 
31.9296 -28.9916 -20.3916 -42.7364 -20.6954 -19.1052 -34.4401 -20.6954 -22.3399 
-26.1439 -20.6954 -23.2178 -17.8477 -20.6954 -23.9962 -9.55148 -20.6954 -23.8678 
-1.25525 -20.6954 -23.3704 7.04097 -20.6954 -23.862 15.3372 -20.6954 -24.3841 
23.6334 -20.6954 -24.0032 31.9296 -20.6954 -22.7883 40.2259 -20.6954 -20.4202 
-51.0326 -12.3992 -17.2412 -42.7364 -12.3992 -20.4934 -34.4401 -12.3992 -22.0479 
-26.1439 -12.3992 -22.4091 -17.8477 -12.3992 -22.5992 -9.55148 -12.3992 -23.0514 
-1.25525 -12.3992 -22.4633 7.04097 -12.3992 -23.2593 15.3372 -12.3992 -23.3745 
23.6334 -12.3992 -23.297 31.9296 -12.3992 -24.0448 40.2259 -12.3992 -22.9106 
48.5221 -12.3992 -19.1669 -51.0326 -4.10293 -18.2863 -42.7364 -4.10293 -21.5235 
-34.4401 -4.10293 -22.2723 -26.1439 -4.10293 -21.8088 -17.8477 -4.10293 -21.0972 
-9.55148 -4.10293 -23.3709 -1.25525 -4.10293 -23.2638 7.04097 -4.10293 -23.7863 
15.3372 -4.10293 -22.784 23.6334 -4.10293 -23.2263 31.9296 -4.10293 -23.8079 
40.2259 -4.10293 -23.757 48.5221 -4.10293 -21.4014 -51.0326 4.19329 -18.4976 
-42.7364 4.19329 -21.4718 -34.4401 4.19329 -22.0815 -26.1439 4.19329 -21.469 
-17.8477 4.19329 -20.3756 -9.55148 4.19329 -22.4351 -1.25525 4.19329 -22.688 
7.04097 4.19329 -23.7658 15.3372 4.19329 -23.0096 23.6334 4.19329 -23.5097 
31.9296 4.19329 -24.1556 40.2259 4.19329 -23.9284 48.5221 4.19329 -21.5915 
-51.0326 12.4895 -17.1299 -42.7364 12.4895 -20.4788 -34.4401 12.4895 -21.5339 
-26.1439 12.4895 -21.5891 -17.8477 12.4895 -21.5899 -9.55148 12.4895 -22.4089 
-1.25525 12.4895 -23.1511 7.04097 12.4895 -23.7478 15.3372 12.4895 -23.0655 
23.6334 12.4895 -23.1933 31.9296 12.4895 -23.9724 40.2259 12.4895 -22.9052 
48.5221 12.4895 -20.1633 -42.7364 20.7857 -19.606 -34.4401 20.7857 -21.2509 
-26.1439 20.7857 -22.0641 -17.8477 20.7857 -22.3556 -9.55148 20.7857 -22.4723 
-1.25525 20.7857 -22.9746 7.04097 20.7857 -23.5811 15.3372 20.7857 -23.1266 
23.6334 20.7857 -22.4089 31.9296 20.7857 -21.8494 40.2259 20.7857 -20.635 
48.5221 20.7857 -17.2617 -34.4401 29.082 -18.7779 -26.1439 29.082 -20.3744 
-17.8477 29.082 -20.6691 -9.55148 29.082 -20.6842 -1.25525 29.082 -21.5384 
7.04097 29.082 -22.4183 15.3372 29.082 -22.1044 23.6334 29.082 -20.5862 
31.9296 29.082 -19.4138 -17.8477 37.3782 -16.3942 -9.55148 37.3782 -16.8588 
-1.25525 37.3782 -18.1333 7.04097 37.3782 -18.9611 15.3372 37.3782 -19.0383 
23.6334 37.3782 -16.5629 -34.4401 -38.1791 -16.1382 -26.1439 -42.4421 -16.1382 
-17.8477 -44.0899 -16.1382 -17.8477 -45.584 -11.3191 -9.55148 -43.2056 -16.1382 
-1.25525 -41.2143 -16.1382 7.04097 -39.365 -16.1382 15.3372 -37.8612 -16.1382 
-35.5543 -37.2878 -16.1382 18.2394 -37.2878 -16.1382 23.6334 -36.0697 -16.1382 
31.9296 -33.2284 -16.1382 -42.3222 -28.9916 -16.1382 -42.7364 -28.3328 -16.1382 
-42.7364 -28.9916 -15.6816 38.837 -28.9916 -16.1382 40.2259 -27.7719 -16.1382 
40.2259 -28.9916 -14.4012 -47.8756 -20.6954 -16.1382 -51.0326 -15.3765 -16.1382 
-51.0326 -20.6954 -12.349 47.5185 -20.6954 -16.1382 48.5221 -19.2821 -16.1382 
48.5221 -20.6954 -14.9543 -52.3372 -12.3992 -16.1382 52.3442 -12.3992 -16.1382 
56.8183 -12.3992 -9.00268 -53.4929 -4.10293 -16.1382 55.5992 -4.10293 -16.1382 
56.8183 -4.10293 -14.366 -53.9485 4.19329 -16.1382 56.1423 4.19329 -16.1382 
56.8183 4.19329 -15.161 -52.3126 12.4895 -16.1382 -51.0326 16.8419 -16.1382 
53.8885 12.4895 -16.1382 56.8183 12.4895 -11.7179 -49.3269 20.7857 -16.1382 
-51.0326 20.7857 -14.8647 -42.7364 27.9111 -16.1382 40.2259 28.93 -16.1382 
49.9028 20.7857 -16.1382 48.5221 22.5201 -16.1382 -41.4219 29.082 -16.1382 
-42.7364 29.082 -15.4205 -34.4401 33.5699 -16.1382 -26.1439 36.3525 -16.1382 
40.0278 29.082 -16.1382 31.9296 34.4557 -16.1382 40.2259 29.082 -16.0284 
48.5221 29.082 -8.76961 -34.4401 37.3782 -12.2348 -20.263 37.3782 -16.1382 
-26.1439 37.3782 -15.3358 -17.8477 37.6935 -16.1382 -9.55148 38.3424 -16.1382 
-1.25525 39.8045 -16.1382 7.04097 40.8205 -16.1382 15.3372 40.5325 -16.1382 
25.0543 37.3782 -16.1382 23.6334 37.8424 -16.1382 31.9296 37.3782 -12.7005 
-17.8477 -46.4116 -7.84203 -34.4401 -41.541 -7.84203 -22.3262 -45.584 -7.84203 
-26.1439 -44.8974 -7.84203 -12.1784 -45.584 -7.84203 -17.8477 -45.584 -2.52122 
-9.55148 -45.2058 -7.84203 -1.25525 -42.9113 -7.84203 7.04097 -40.1875 -7.84203 
15.3372 -38.3851 -7.84203 -40.2425 -37.2878 -7.84203 -42.7364 -34.9715 -7.84203 
22.0168 -37.2878 -7.84203 15.3372 -37.2878 -2.3861 23.6334 -37.0506 -7.84203 
31.9296 -35.4025 -7.84203 40.2259 -31.8626 -7.84203 -47.7891 -28.9916 -7.84203 
-51.0326 -24.3005 -7.84203 44.6769 -28.9916 -7.84203 48.5221 -25.6332 -7.84203 
-53.2648 -20.6954 -7.84203 52.8688 -20.6954 -7.84203 56.8183 -13.6039 -7.84203 
-57.0984 -12.3992 -7.84203 57.3676 -12.3992 -7.84203 -58.7019 -4.10293 -7.84203 
60.0193 -4.10293 -7.84203 -59.2999 4.19329 -7.84203 60.4019 4.19329 -7.84203 
-58.4114 12.4895 -7.84203 58.6749 12.4895 -7.84203 56.8183 17.3687 -7.84203 
-55.5211 20.7857 -7.84203 -51.0326 27.6978 -7.84203 55.3156 20.7857 -7.84203 
-49.8594 29.082 -7.84203 -42.7364 35.5772 -7.84203 40.2259 36.0263 -7.84203 
49.1096 29.082 -7.84203 48.5221 29.6761 -7.84203 -39.7003 37.3782 -7.84203 
-34.4401 40.0293 -7.84203 -26.1439 42.8524 -7.84203 -17.8477 44.1149 -7.84203 
-9.55148 45.0896 -7.84203 -1.25525 45.5109 -7.84203 7.04097 44.9319 -7.84203 
15.3372 43.7089 -7.84203 23.6334 42.1367 -7.84203 37.6066 37.3782 -7.84203 
31.9296 39.8902 -7.84203 -17.8477 45.6744 -1.50779 -9.55148 45.6744 -2.60184 
-34.4401 -40.4293 0.454199 -26.1439 -43.9259 0.454199 -17.8477 -45.1083 0.454199 
-9.55148 -44.3617 0.454199 -1.25525 -42.1376 0.454199 7.04097 -39.0071 0.454199 
-39.289 -37.2878 0.454199 -42.7364 -34.4027 0.454199 -34.4401 -37.2878 6.97238 
13.374 -37.2878 0.454199 15.3372 -36.775 0.454199 23.6334 -35.8486 0.454199 
31.9296 -34.6616 0.454199 40.2259 -31.7612 0.454199 -47.4218 -28.9916 0.454199 
-51.0326 -23.2148 0.454199 -42.7364 -28.9916 8.60554 44.714 -28.9916 0.454199 
48.5221 -26.0572 0.454199 -52.4306 -20.6954 0.454199 -51.0326 -20.6954 3.27021 
53.5936 -20.6954 0.454199 56.8183 -15.3093 0.454199 -56.6274 -12.3992 0.454199 
58.2267 -12.3992 0.454199 56.8183 -12.3992 8.08958 -57.9331 -4.10293 0.454199 
60.7671 -4.10293 0.454199 -58.5786 4.19329 0.454199 60.8879 4.19329 0.454199 
-58.2817 12.4895 0.454199 59.0605 12.4895 0.454199 56.8183 18.452 0.454199 
56.8183 12.4895 7.76056 -55.7129 20.7857 0.454199 -51.0326 28.4819 0.454199 
55.8192 20.7857 0.454199 -50.6273 29.082 0.454199 -42.7364 36.8766 0.454199 
40.2259 36.4647 0.454199 49.8954 29.082 0.454199 48.5221 30.4686 0.454199 
48.5221 29.082 3.03783 -41.9941 37.3782 0.454199 -34.4401 41.7037 0.454199 
-26.1439 44.5038 0.454199 -1.25525 44.409 0.454199 7.04097 42.5571 0.454199 
7.04097 37.3782 6.08082 15.3372 40.8079 0.454199 15.3372 37.3782 4.40907 
23.6334 40.3935 0.454199 23.6334 37.3782 4.90079 37.8705 37.3782 0.454199 
31.9296 39.306 0.454199 31.9296 37.3782 4.2752 -20.0697 45.6744 0.454199 
-17.8477 46.1089 0.454199 -17.8477 45.6744 2.19951 -7.85322 45.6744 0.454199 
-9.55148 45.9937 0.454199 -9.55148 45.6744 1.36287 -26.1439 -40.2679 8.75042 
-17.8477 -42.09 8.75042 -9.55148 -42.0326 8.75042 -1.25525 -40.3705 8.75042 
7.04097 -37.8839 8.75042 -32.6475 -37.2878 8.75042 -34.4401 -36.2187 8.75042 
-26.1439 -37.2878 13.0663 -17.8477 -37.2878 16.729 -1.25525 -37.2878 15.9632 
9.85242 -37.2878 8.75042 7.04097 -37.2878 10.7985 15.3372 -36.0934 8.75042 
23.6334 -34.7142 8.75042 31.9296 -33.228 8.75042 40.2259 -30.0042 8.75042 
-42.6311 -28.9916 8.75042 -42.7364 -28.8654 8.75042 -34.4401 -28.9916 15.8165 
41.809 -28.9916 8.75042 40.2259 -28.9916 11.0259 48.5221 -23.8994 8.75042 
-48.026 -20.6954 8.75042 -51.0326 -14.5104 8.75042 -42.7364 -20.6954 14.4237 
51.5912 -20.6954 8.75042 48.5221 -20.6954 14.4917 -51.9409 -12.3992 8.75042 
-51.0326 -12.3992 9.93579 56.6911 -12.3992 8.75042 56.8183 -11.9898 8.75042 
-54.0006 -4.10293 8.75042 -51.0326 -4.10293 12.5152 59.1626 -4.10293 8.75042 
56.8183 -4.10293 13.6168 -54.8586 4.19329 8.75042 -51.0326 4.19329 13.6882 
59.0333 4.19329 8.75042 56.8183 11.5156 8.75042 56.8183 4.19329 12.9989 
-54.7487 12.4895 8.75042 -51.0326 12.4895 13.4141 56.4748 12.4895 8.75042 
-52.0609 20.7857 8.75042 -51.0326 22.7791 8.75042 -51.0326 20.7857 10.2168 
52.1066 20.7857 8.75042 48.5221 25.2349 8.75042 48.5221 20.7857 12.5736 
-47.3029 29.082 8.75042 -42.7364 33.8858 8.75042 -42.7364 29.082 14.0751 
-1.25525 29.082 16.7735 7.04097 34.0878 8.75042 7.04097 29.082 12.5461 
15.3372 32.6458 8.75042 15.3372 29.082 12.1814 23.6334 34.2729 8.75042 
23.6334 29.082 13.7275 31.9296 34.293 8.75042 31.9296 29.082 13.654 
44.3557 29.082 8.75042 40.2259 31.9177 8.75042 40.2259 29.082 11.6771 
-38.0822 37.3782 8.75042 -34.4401 39.5868 8.75042 -34.4401 37.3782 12.3433 
-26.1439 42.5226 8.75042 -26.1439 37.3782 15.7597 -17.8477 43.7971 8.75042 
-17.8477 37.3782 16.8707 -9.55148 42.6112 8.75042 -9.55148 37.3782 14.7837 
1.48135 37.3782 8.75042 -1.25525 38.6646 8.75042 -1.25525 37.3782 10.0736 
-9.55148 -37.8014 17.0466 -26.1439 -33.5995 17.0466 -15.4796 -37.2878 17.0466 
-17.8477 -37.0284 17.0466 -5.45049 -37.2878 17.0466 -9.55148 -37.2878 17.6493 
-1.25525 -36.69 17.0466 7.04097 -35.0726 17.0466 15.3372 -33.9227 17.0466 
23.6334 -32.7942 17.0466 31.9296 -30.3801 17.0466 -32.6176 -28.9916 17.0466 
-34.4401 -26.9629 17.0466 -26.1439 -28.9916 20.5497 -17.8477 -28.9916 23.2907 
-9.55148 -28.9916 24.19 -1.25525 -28.9916 23.7824 7.04097 -28.9916 23.1837 
15.3372 -28.9916 23.1734 23.6334 -28.9916 22.0777 34.8584 -28.9916 17.0466 
[...]
POINT_DATA 514
SCALARS ImageScalars float
LOOKUP_TABLE default
0 0 0 0 0 0 0 0 0 
0 0 0 0 0 0 0 0 0 
0 0 0 0 0 0 0 0 0 
0 0 0 0 0 0 0 0 0 
0 0 0 0 0 0 0 0 0 
0 0 0 0 0 0 0 0 0 
0 0 0 0 0 0 0 0 0 
0 0 0 0 0 0 0 0 0 
0 0 0 0 0 0 0 0 0 
0 0 0 0 0 0 0 0 0 
0 0 0 0 0 0 0 0 0 
0 0 0 0 0 0 0 0 0 
0 0 0 0 0 0 0 0 0 
0 0 0 0 0 0 0 0 0 
0 0 0 0 0 0 0 0 0 
0 0 0 0 0 0 0 0 0 
0 0 0 0 0 0 0 0 0 
0 0 0 0 0 0 0 0 0 
0 0 0 0 0 0 0 0 0 
0 0 0 0 0 0 0 0 0 
0 0 0 0 0 0 0 0 0 
0 0 0 0 0 0 0 0 0 
0 0 0 0 0 0 0 0 0 
0 0 0 0 0 0 0 0 0 
0 0 0 0 0 0 0 0 0 
0 0 0 0 0 0 0 0 0 
0 0 0 0 0 0 0 0 0 
0 0 0 0 0 0 0 0 0 
0 0 0 0 0 0 0 0 0 
0 0 0 0 0 0 0 0 0 
0 0 0 0 0 0 0 0 0 
0 0 0 0 0 0 0 0 0 
0 0 0 0 0 0 0 0 0 
0 0 0 0 0 0 0 0 0 
0 0 0 0 0 0 0 0 0 
0 0 0 0 0 0 0 0 0 
0 0 0 0 0 0 0 0 0 
0 0 0 0 0 0 0 0 0 
0 0 0 0 0 0 0 0 0 
0 0 0 0 0 0 0 0 0 
0 0 0 0 0 0 0 0 0 
0 0 0 0 0 0 0 0 0 
0 0 0 0 0 0 0 0 0 
0 0 0 0 0 0 0 0 0 
0 0 0 0 0 0 0 0 0 
0 0 0 0 0 0 0 0 0 
0 0 0 0 0 0 0 0 0 
0 0 0 0 0 0 0 0 0 
0 0 0 0 0 0 0 0 0 
0 0 0 0 0 0 0 0 0 
0 0 0 0 0 0 0 0 0 
0 0 0 0 0 0 0 0 0 
0 0 0 0 0 0 0 0 0 
0 0 0 0 0 0 0 0 0 
0 0 0 0 0 0 0 0 0 
0 0 0 0 0 0 0 0 0 
0 0 0 0 0 0 0 0 0 
0 
NORMALS Normals float
0.516187 0.625801 0.584742 0.225982 0.492485 0.840471 0.0545537 0.465063 0.883595 
-0.0854416 0.506889 0.857766 -0.15856 0.631137 0.759292 -0.153906 0.781522 0.604595 
-0.181721 0.901111 0.393671 0.376093 0.232665 0.896895 0.199875 0.13018 0.971135 
0.0530256 0.103858 0.993178 -0.0282607 0.110774 0.993444 -0.0495664 0.147696 0.98779 
-0.0237384 0.247559 0.968582 -0.0629235 0.288411 0.955437 -0.163314 0.403059 0.900484 
-0.334052 0.532047 0.778033 0.430269 0.2276 0.873537 0.235949 0.0634913 0.969689 
0.0921647 -0.0520214 0.994384 0.0419992 -0.0964479 0.994452 -0.0383756 -0.0735391 0.996554 
-0.000306952 -0.0761333 0.997098 0.0608999 -0.0124785 0.998066 0.00974547 -0.001782 0.999951 
-0.10163 0.0501678 0.993557 -0.195061 0.182488 0.963665 -0.37796 0.349185 0.857447 
0.589802 0.228413 0.774571 0.270664 0.140125 0.952421 0.108941 -0.00263553 0.994045 
0.0326839 -0.0879154 0.995592 0.0390897 -0.174227 0.983929 -0.00896217 -0.0308236 0.999485 
0.0125516 -0.00654675 0.9999 0.0552501 -0.00461403 0.998462 0.00229585 -0.0972522 0.995257 
0.0388668 -0.0448022 0.99824 -0.0163766 0.061957 0.997944 -0.253472 0.18452 0.949581 
-0.517778 0.289616 0.805002 0.549459 0.0692634 0.832645 0.203463 0.05688 0.977429 
0.0139619 0.00194551 0.999901 -0.0699361 -0.0568701 0.995929 0.0874706 -0.13196 0.987388 
0.130923 -0.0346897 0.990785 0.0254438 0.0136047 0.999584 -0.029135 0.0305745 0.999108 
-0.033567 -0.0219015 0.999196 0.0616465 0.0127833 0.998016 0.031836 0.00723366 0.999467 
-0.129229 0.0553667 0.990068 -0.433531 0.127046 0.892138 0.51274 -0.0600934 0.856439 
0.18924 -0.0620026 0.979971 -0.00242531 -0.0443299 0.999014 -0.103372 -0.0133247 0.994554 
0.0503892 0.0269182 0.998367 0.145319 -0.0574401 0.987716 0.0789546 -0.00672004 0.996856 
0.0194481 -0.00232762 0.999808 -0.0153798 0.0169668 0.999738 0.0689662 -0.00199296 0.997617 
0.0254411 0.0102887 0.999623 -0.14471 -0.0485422 0.988283 -0.409912 -0.0662288 0.909717 
0.533493 -0.17614 0.827261 0.231665 -0.101077 0.96753 0.0636475 -0.0489766 0.99677 
0.00334316 0.0349776 0.999382 0.0499961 0.120896 0.991405 0.0918449 0.00232425 0.995771 
0.0803561 0.0173487 0.996615 -0.00524257 -0.011097 0.999925 -0.0336924 0.00708024 0.999407 
0.0528023 -0.0678099 0.9963 -0.0153533 -0.144783 0.989344 -0.206077 -0.1829 0.961291 
-0.457177 -0.228107 0.859626 0.332031 -0.259021 0.907008 0.133999 -0.162853 0.977509 
0.0647054 -0.0634444 0.995886 0.0243446 -0.0491827 0.998493 0.0370646 -0.100206 0.994276 
0.0665234 -0.0956885 0.993186 0.00905974 -0.0797552 0.996773 -0.0722468 -0.0534256 0.995955 
-0.0756167 -0.149972 0.985794 -0.0993787 -0.257899 0.961047 -0.246172 -0.344782 0.905828 
-0.522682 -0.43014 0.736059 0.245547 -0.391863 0.886651 0.107699 -0.345007 0.932401 
0.0171358 -0.328817 0.944238 0.0513663 -0.297926 0.953206 0.102477 -0.252668 0.962111 
0.0345762 -0.250532 0.967491 -0.107981 -0.220924 0.969295 -0.150433 -0.310493 0.938597 
-0.222668 -0.409686 0.884634 0.0701297 -0.597754 0.798606 0.0897344 -0.549927 0.830378 
0.111647 -0.539556 0.834515 0.0471222 -0.545851 0.836556 -0.129573 -0.569077 0.812011 
-0.265194 -0.644279 0.71734 0.519854 0.669077 0.53112 0.288157 0.800621 0.52533 
0.0341709 0.853069 0.520678 0.0234133 0.975173 0.220204 -0.152826 0.857979 0.490425 
-0.217677 0.849477 0.48063 -0.199716 0.884038 0.4226 -0.186166 0.924435 0.332809 
0.544573 0.641513 0.540278 -0.205792 0.915525 0.345635 -0.245623 0.876966 0.413037 
-0.376952 0.782001 0.496368 0.619709 0.429414 0.656935 0.616368 0.422656 0.664418 
0.639003 0.447486 0.625645 -0.50842 0.660057 0.553022 -0.51766 0.625466 0.583798 
-0.524939 0.708696 0.471369 0.598543 0.353286 0.718982 0.641304 0.294211 0.708638 
0.78476 0.44224 0.434253 -0.603113 0.468301 0.645716 -0.613656 0.448911 0.649542 
-0.646206 0.500094 0.576475 0.656091 0.236398 0.716701 -0.654553 0.324253 0.68295 
-0.88305 0.354989 0.30693 0.661051 0.0755615 0.746526 -0.738464 0.161098 0.654765 
-0.815465 0.166267 0.554411 0.644794 -0.047157 0.7629 -0.755103 -0.0717456 0.651669 
-0.803236 -0.0728634 0.591188 0.592468 -0.182189 0.784722 0.579145 -0.266976 0.77027 
-0.68025 -0.264218 0.683702 -0.866232 -0.277362 0.415586 0.553852 -0.339012 0.760473 
0.639345 -0.37036 0.673848 0.439088 -0.475983 0.761999 -0.405892 -0.537837 0.738906 
-0.582211 -0.443267 0.681575 -0.54475 -0.479315 0.688117 0.420522 -0.489958 0.763611 
0.465416 -0.519176 0.716829 0.284623 -0.568049 0.772211 0.138152 -0.612552 0.778264 
-0.404559 -0.538493 0.73916 -0.299872 -0.61227 0.731575 -0.410042 -0.543603 0.732367 
-0.677579 -0.667235 0.309329 0.345115 -0.771038 0.53516 0.091525 -0.612799 0.784921 
0.150822 -0.66313 0.733152 0.072635 -0.60834 0.790346 0.0898205 -0.587394 0.804301 
0.104209 -0.651424 0.751523 0.0298363 -0.731078 0.681641 -0.150226 -0.756668 0.636306 
-0.275622 -0.659638 0.699221 -0.266593 -0.665579 0.697088 -0.33976 -0.803393 0.489002 
0.018696 0.999023 0.0400378 0.496223 0.86262 0.098233 0.149038 0.987721 0.0468453 
0.258165 0.96441 0.0571271 -0.1341 0.990018 0.0433777 0.0194169 0.989487 -0.143313 
-0.202279 0.978166 0.0477 -0.293897 0.954869 0.0430046 -0.259299 0.965543 -0.0221719 
-0.193278 0.978832 -0.0673207 0.642149 0.753616 0.14038 0.700706 0.69274 0.170652 
-0.169518 0.984963 -0.0333309 -0.187 0.976465 -0.10746 -0.165151 0.985989 -0.0234739 
-0.291402 0.954619 0.0615408 -0.47226 0.868003 0.153429 0.790864 0.580146 0.194844 
0.844177 0.506008 0.176977 -0.578618 0.795727 0.178941 -0.687792 0.695251 0.208728 
0.872373 0.458728 0.168919 -0.780915 0.576188 0.241204 -0.887185 0.383729 0.256232 
0.925011 0.322936 0.200167 -0.898825 0.35494 0.257159 0.977695 0.117326 0.174201 
-0.95292 0.16731 0.252884 0.984762 -0.0139233 0.173347 -0.969135 -0.0754508 0.234701 
0.945619 -0.221127 0.238552 -0.934898 -0.270721 0.229514 -0.888675 -0.389944 0.241246 
0.865406 -0.425591 0.264469 0.752987 -0.594436 0.282234 -0.838274 -0.483769 0.251523 
0.721222 -0.626037 0.296506 0.549994 -0.765082 0.334897 -0.49484 -0.829708 0.258298 
-0.697821 -0.664439 0.267521 -0.685556 -0.676364 0.26934 0.478446 -0.811678 0.335065 
0.362728 -0.864253 0.348563 0.222198 -0.897915 0.379968 0.12637 -0.906592 0.402643 
0.0785742 -0.945051 0.317341 -0.0125987 -0.984933 0.172476 -0.106379 -0.992085 0.0667116 
-0.167194 -0.985841 0.012782 -0.228097 -0.967543 0.108777 -0.445057 -0.865144 0.231193 
-0.336158 -0.923642 0.184075 0.100024 -0.991969 0.0774147 -0.0355836 -0.998721 0.0359193 
0.45745 0.848026 -0.267564 0.240381 0.938735 -0.24697 0.0211785 0.968678 -0.247416 
-0.169451 0.968409 -0.182948 -0.309112 0.939514 -0.147526 -0.306013 0.942423 -0.134885 
0.588929 0.764808 -0.261211 0.681454 0.686251 -0.254321 0.486898 0.758978 -0.432299 
-0.213709 0.968238 -0.129786 -0.183356 0.974508 -0.129287 -0.123624 0.982031 -0.142589 
-0.235262 0.96333 -0.129026 -0.431441 0.897262 -0.0937024 0.778781 0.580569 -0.237571 
0.843999 0.473793 -0.25137 0.651242 0.563876 -0.507866 -0.556234 0.825818 -0.0928875 
-0.666291 0.741922 -0.0748893 0.859895 0.443789 -0.252254 0.828693 0.436498 -0.350338 
-0.784234 0.617862 -0.0567735 -0.893921 0.446193 -0.0426224 0.91554 0.295585 -0.272794 
-0.929718 0.36645 -0.0365817 -0.89543 0.359244 -0.262961 0.960497 0.10414 -0.25807 
-0.987374 0.150922 -0.0481268 0.968372 0.0207169 -0.248648 -0.992681 -0.0929585 -0.0770898 
0.968169 -0.156124 -0.195638 -0.952739 -0.280668 -0.116251 -0.901308 -0.411647 -0.134874 
-0.86579 -0.330685 -0.375572 0.904783 -0.385732 -0.180497 0.80139 -0.584376 -0.127588 
-0.871093 -0.469356 -0.144576 0.790014 -0.601092 -0.120692 0.597991 -0.798449 -0.0698965 
-0.434397 -0.879363 -0.194988 -0.721897 -0.67261 -0.162668 -0.69154 -0.704585 -0.159157 
-0.685338 -0.671058 -0.28283 0.578254 -0.813302 -0.0645159 0.398091 -0.917087 -0.0217957 
0.246751 -0.96896 -0.0151854 -0.187054 -0.926238 -0.327251 -0.197863 -0.853502 -0.482063 
-0.240154 -0.65376 -0.717582 -0.10764 -0.848868 -0.51753 -0.0581346 -0.755903 -0.652097 
-0.0891372 -0.915641 -0.391989 0.0018562 -0.824315 -0.566128 -0.360726 -0.906877 -0.217832 
-0.206687 -0.942634 -0.262148 -0.167793 -0.885011 -0.434283 0.131891 -0.99117 -0.0136925 
0.0906629 -0.995774 -0.0146319 0.0764253 -0.992473 -0.0956933 -0.112905 -0.981007 -0.157726 
-0.0972934 -0.988123 -0.118941 -0.11186 -0.981077 -0.158033 0.291185 0.830731 -0.474444 
0.0901853 0.903815 -0.418312 -0.0980529 0.931962 -0.349044 -0.238365 0.929298 -0.282113 
-0.245875 0.94809 -0.201669 0.446057 0.755171 -0.480364 0.49081 0.722086 -0.487542 
0.309894 0.747967 -0.586951 0.168325 0.754899 -0.633872 -0.151109 0.839067 -0.522622 
-0.224564 0.956703 -0.185175 -0.225107 0.93761 -0.264979 -0.183221 0.970599 -0.156101 
-0.162352 0.972028 -0.169717 -0.249971 0.940734 -0.229203 -0.45592 0.845067 -0.279282 
0.648197 0.563001 -0.51271 0.650208 0.560372 -0.513043 0.498948 0.493923 -0.712103 
-0.492552 0.824232 -0.279348 -0.462203 0.817735 -0.343042 -0.658529 0.700768 -0.274344 
0.733738 0.416515 -0.536791 0.779768 0.323833 -0.535811 0.615773 0.36474 -0.698418 
-0.727733 0.624981 -0.282493 -0.662058 0.598401 -0.451216 0.790901 0.284943 -0.541555 
0.770582 0.284713 -0.570212 -0.88948 0.358468 -0.283419 -0.893994 0.346024 -0.28468 
0.823834 0.150845 -0.546391 0.74479 0.148493 -0.650568 -0.942941 0.126853 -0.30785 
-0.873137 0.107321 -0.475515 0.839536 0.0394201 -0.541872 0.729463 0.0369883 -0.68302 
-0.926635 -0.142431 -0.347939 -0.859599 -0.312682 -0.404128 -0.850428 -0.173388 -0.496698 
0.839841 -0.146367 -0.522728 0.737051 -0.128329 -0.663541 -0.84497 -0.337102 -0.415196 
0.806627 -0.346794 -0.47863 0.788775 -0.389956 -0.475151 0.779655 -0.345443 -0.52231 
-0.701294 -0.512606 -0.4954 -0.627666 -0.572536 -0.527483 -0.566779 -0.517598 -0.640979 
0.702083 -0.541875 -0.462007 0.591974 -0.680489 -0.431858 0.582969 -0.513231 -0.629874 
-0.359734 -0.534379 -0.764873 -0.235798 -0.606081 -0.759648 -0.209893 -0.635523 -0.743004 
0.0203254 -0.69592 -0.717832 0.0534959 -0.67524 -0.735656 0.0641505 -0.726132 -0.684556 
0.058493 -0.63581 -0.769626 -0.11223 -0.749593 -0.652315 -0.0933335 -0.613595 -0.784086 
-0.494425 -0.655696 -0.570619 -0.349226 -0.729119 -0.58858 -0.33874 -0.651467 -0.678856 
0.486739 -0.778575 -0.396113 0.414417 -0.825933 -0.382221 0.405128 -0.749458 -0.523626 
0.224387 -0.893015 -0.390097 0.16135 -0.680375 -0.714882 0.0111627 -0.899944 -0.435863 
-0.0452941 -0.634896 -0.771268 -0.236276 -0.822914 -0.516708 -0.287399 -0.638828 -0.713653 
-0.317364 -0.64136 -0.698525 -0.34607 -0.674804 -0.651825 -0.365775 -0.647899 -0.668158 
-0.0188104 0.793116 -0.60878 0.34194 0.612462 -0.712718 0.117 0.762855 -0.635896 
0.171409 0.743762 -0.646094 -0.0765704 0.805404 -0.58776 -0.0156292 0.776358 -0.630099 
-0.134433 0.808983 -0.572254 -0.14221 0.846346 -0.513299 -0.1236 0.888491 -0.441936 
-0.195462 0.882891 -0.426964 -0.34049 0.820522 -0.459141 0.466082 0.482837 -0.741374 
0.485987 0.43904 -0.755685 0.358193 0.46133 -0.811709 0.187133 0.448878 -0.873779 
0.0260237 0.457778 -0.888685 -0.051409 0.465885 -0.88335 -0.0327556 0.546137 -0.837055 
-0.0497696 0.639442 -0.767227 -0.160661 0.690292 -0.705468 -0.387084 0.787004 -0.480407 
-0.342405 0.763072 -0.548161 -0.465215 0.703616 -0.537121 0.53336 0.335904 -0.776335 
0.561966 0.257146 -0.786174 0.445994 0.299656 -0.843383 0.341941 0.210179 -0.915916 
-0.612204 0.575561 -0.542158 -0.424361 0.511817 -0.746969 -0.653416 0.513212 -0.556472 
0.568408 0.233333 -0.788967 0.549544 0.228746 -0.80354 0.367025 0.164516 -0.915548 
0.281055 0.0821015 -0.956173 -0.737817 0.33057 -0.588514 -0.61125 0.300534 -0.732157 
0.585398 0.126814 -0.800767 0.498765 0.118553 -0.858591 0.311752 0.0971563 -0.945183 
0.238987 0.0465056 -0.969909 -0.776511 0.0749754 -0.625627 -0.541924 0.0198231 -0.840194 
0.601766 0.0365865 -0.797834 0.492243 0.0346802 -0.869767 0.290612 0.0248466 -0.956518 
-0.216391 -0.277532 -0.936029 -0.705988 -0.215107 -0.674767 -0.516198 -0.251569 -0.81869 
0.604876 -0.100166 -0.789994 0.486569 -0.0880234 -0.869197 0.288094 -0.0911654 -0.953253 
0.117388 -0.0877911 -0.989198 -0.0425791 -0.261501 -0.964264 0.0257828 -0.25787 -0.965836 
-0.165183 -0.384365 -0.908283 -0.0467688 -0.369769 -0.927946 -0.0652838 -0.380989 -0.922272 
-0.235793 -0.420026 -0.876345 -0.531042 -0.39092 -0.751782 -0.499292 -0.412797 -0.761778 
-0.496397 -0.395193 -0.772925 0.566775 -0.278288 -0.775449 0.543125 -0.343777 -0.766051 
0.526213 -0.265538 -0.80783 0.303258 -0.235328 -0.923393 0.104581 -0.221157 -0.969615 
-0.0465894 -0.21021 -0.976546 -0.125134 -0.263893 -0.956401 -0.351128 -0.531221 -0.771047 
-0.136719 -0.434848 -0.890065 -0.157741 -0.676846 -0.719025 -0.135486 -0.637506 -0.758439 
-0.00992022 -0.58556 -0.810568 -0.0682607 -0.531875 -0.844067 0.00166224 -0.515399 -0.856948 
-0.023375 -0.442779 -0.896326 -0.0936004 -0.497585 -0.86235 -0.093861 -0.451483 -0.887329 
-0.275897 -0.460957 -0.843445 -0.266199 -0.463221 -0.845319 -0.264571 -0.458296 -0.848509 
0.451343 -0.462963 -0.762859 0.359634 -0.543537 -0.75844 0.337831 -0.434861 -0.834725 
0.14854 -0.614504 -0.774804 0.141851 -0.416182 -0.898149 -0.0464989 -0.625375 -0.778938 
-0.0580771 -0.382765 -0.922018 -0.351335 -0.526926 -0.773894 -0.281123 -0.543918 -0.790647 
-0.251436 -0.413595 -0.875054 0.195204 0.266 -0.944002 0.023938 0.362495 -0.931678 
-0.0429779 0.300589 -0.952785 0.018006 0.303055 -0.952803 0.000196958 0.408746 -0.912648 
-0.110154 0.416097 -0.902623 -0.240364 0.351555 -0.904784 0.243349 0.198185 -0.949475 
0.198023 0.197453 -0.960104 0.0130024 0.229436 -0.973237 -0.0413895 0.185624 -0.981749 
0.035888 0.194648 -0.980216 0.0294552 0.218979 -0.975285 -0.0915321 0.28321 -0.95468 
-0.243136 0.349224 -0.904946 -0.238466 0.345742 -0.907522 -0.336746 0.222873 -0.914839 
0.263072 0.0758135 -0.961793 0.222726 0.0657497 -0.972661 0.00976122 0.0935254 -0.995569 
-0.0857408 0.0353709 -0.995689 0.0311524 0.024028 -0.999226 0.0666193 0.0344164 -0.997185 
-0.0114853 0.0565873 -0.998332 -0.139178 0.126728 -0.982125 -0.3461 0.201692 -0.916262 
-0.32909 0.198472 -0.923206 0.235956 0.0403345 -0.970926 0.191051 0.0112455 -0.981516 
0.218343 -0.00183268 -0.97587 -0.0177163 -0.0447551 -0.998841 -0.115888 -0.0487165 -0.992067 
0.0341811 -0.00862179 -0.999378 0.0613197 -0.0769329 -0.995149 -0.000448243 -0.12515 -0.992138 
-0.0770261 -0.0933385 -0.99265 -0.343329 -0.0138208 -0.939113 -0.224505 -0.243517 -0.943556 
-0.272395 -0.0264213 -0.961823 0.187177 0.00695883 -0.982302 0.172982 -0.00998076 -0.984874 
0.184746 0.00645749 -0.982765 0.127557 -0.0996009 -0.986817 -0.0406464 -0.256033 -0.965813 
-0.0345527 -0.214743 -0.976059 0.00594565 -0.216666 -0.976228 -0.0454679 -0.123641 -0.991285 
0.000919572 -0.0762217 -0.99709 -0.0992906 -0.296076 -0.94999 -0.0574303 -0.244153 -0.968035 
-0.0428625 -0.321001 -0.946108 -0.0406163 -0.313508 -0.948716 -0.161838 -0.285267 -0.944686 
-0.0358349 -0.309946 -0.950079 -0.0336367 -0.300775 -0.953102 0.063822 -0.126192 -0.989951 
-0.023178 -0.214007 -0.976557 -0.0142162 -0.181228 -0.983338 -0.00811767 -0.177252 -0.984132 
-0.0669946 -0.292636 -0.953874 -0.0936475 -0.30527 -0.94765 -0.0907496 -0.309075 -0.946698 
-0.0891286 -0.300433 -0.94963 
