# vtk DataFile Version 4.2
vtk output
ASCII
DATASET POLYDATA
POINTS 544 float
-33.099 -29.2859 -17.3168 -25.8234 -29.2859 -19.4711 -18.5478 -29.2859 -19.6237 
-11.2721 -29.2859 -19.2939 -3.99649 -29.2859 -18.1167 3.27915 -29.2859 -17.5947 
10.5548 -29.2859 -17.8608 17.8304 -29.2859 -17.529 25.1061 -29.2859 -16.9706 
-40.3747 -22.0103 -17.881 -33.099 -22.0103 -20.9257 -25.8234 -22.0103 -21.5447 
-18.5478 -22.0103 -21.6614 -11.2721 -22.0103 -21.4235 -3.99649 -22.0103 -21.1198 
3.27915 -22.0103 -20.9321 10.5548 -22.0103 -20.916 17.8304 -22.0103 -20.6991 
25.1061 -22.0103 -20.3811 32.3817 -22.0103 -19.7825 39.6573 -22.0103 -18.018 
-47.6503 -14.7346 -15.961 -40.3747 -14.7346 -19.7045 -33.099 -14.7346 -21.2151 
-25.8234 -14.7346 -21.5444 -18.5478 -14.7346 -21.5713 -11.2721 -14.7346 -21.6657 
-3.99649 -14.7346 -21.4854 3.27915 -14.7346 -21.4198 10.5548 -14.7346 -21.6182 
17.8304 -14.7346 -21.2424 25.1061 -14.7346 -21.3154 32.3817 -14.7346 -21.3083 
39.6573 -14.7346 -20.6135 46.933 -14.7346 -18.4255 -47.6503 -7.459 -16.0252 
-40.3747 -7.459 -19.6137 -33.099 -7.459 -20.966 -25.8234 -7.459 -20.9224 
-18.5478 -7.459 -20.6283 -11.2721 -7.459 -21.8932 -3.99649 -7.459 -21.9283 
3.27915 -7.459 -21.5852 10.5548 -7.459 -21.7943 17.8304 -7.459 -20.8165 
25.1061 -7.459 -21.5772 32.3817 -7.459 -22.208 39.6573 -7.459 -22.1664 
46.933 -7.459 -19.7383 -47.6503 -0.183358 -15.8136 -40.3747 -0.183358 -19.0708 
-33.099 -0.183358 -20.146 -25.8234 -0.183358 -20.0357 -18.5478 -0.183358 -19.4995 
-11.2721 -0.183358 -21.9438 -3.99649 -0.183358 -21.6947 3.27915 -0.183358 -20.8762 
10.5548 -0.183358 -21.6871 17.8304 -0.183358 -20.3255 25.1061 -0.183358 -21.5493 
32.3817 -0.183358 -22.5416 39.6573 -0.183358 -21.9468 46.933 -0.183358 -20.2041 
-40.3747 7.09228 -17.7253 -33.099 7.09228 -19.4865 -25.8234 7.09228 -19.3476 
-18.5478 7.09228 -19.4056 -11.2721 7.09228 -21.4131 -3.99649 7.09228 -20.5867 
3.27915 7.09228 -19.5977 10.5548 7.09228 -20.6976 17.8304 7.09228 -20.5742 
25.1061 7.09228 -21.6223 32.3817 7.09228 -22.3494 39.6573 7.09228 -22.3393 
46.933 7.09228 -19.7264 -40.3747 14.3679 -15.9766 -33.099 14.3679 -17.9814 
-25.8234 14.3679 -18.4637 -18.5478 14.3679 -18.7165 -11.2721 14.3679 -19.6274 
-3.99649 14.3679 -19.5273 3.27915 14.3679 -18.3196 10.5548 14.3679 -18.9507 
17.8304 14.3679 -20.1129 25.1061 14.3679 -20.9738 32.3817 14.3679 -21.3355 
39.6573 14.3679 -20.683 46.933 14.3679 -18.0576 -25.8234 21.6436 -15.5234 
-18.5478 21.6436 -15.6875 17.8304 21.6436 -17.6386 25.1061 21.6436 -18.7255 
32.3817 21.6436 -18.907 39.6573 21.6436 -17.3613 -33.099 -31.5508 -15.5177 
-25.8234 -33.5734 -15.5177 -18.5478 -34.1017 -15.5177 -18.5478 -36.5615 -8.25844 
-11.2721 -33.1997 -15.5177 -3.99649 -31.8057 -15.5177 3.27915 -31.3004 -15.5177 
10.5548 -31.6535 -15.5177 17.8304 -31.5324 -15.5177 25.1061 -30.8346 -15.5177 
-37.3656 -29.2859 -15.5177 -40.3747 -26.8541 -15.5177 -40.3747 -29.2859 -12.1059 
30.9831 -29.2859 -15.5177 32.3817 -28.7463 -15.5177 32.3817 -29.2859 -14.9364 
39.6573 -25.6877 -15.5177 39.6573 -29.2859 -10.4987 -44.5735 -22.0103 -15.5177 
-47.6503 -16.1464 -15.5177 -47.6503 -22.0103 -11.2868 44.9729 -22.0103 -15.5177 
46.933 -20.0862 -15.5177 46.933 -22.0103 -13.8573 -48.1273 -14.7346 -15.5177 
50.4403 -14.7346 -15.5177 54.2086 -14.7346 -9.52122 -48.221 -7.459 -15.5177 
53.282 -7.459 -15.5177 54.2086 -7.459 -14.1269 -48.0017 -0.183358 -15.5177 
-47.6503 1.98186 -15.5177 53.4633 -0.183358 -15.5177 54.2086 -0.183358 -14.1736 
-46.0979 7.09228 -15.5177 -47.6503 7.09228 -14.6712 52.4985 7.09228 -15.5177 
54.2086 7.09228 -11.9037 -41.1743 14.3679 -15.5177 -47.6503 14.3679 -10.7358 
-40.3747 15.2957 -15.5177 -33.099 20.3801 -15.5177 -11.2721 21.554 -15.5177 
-3.99649 21.1536 -15.5177 3.27915 19.4377 -15.5177 10.5548 20.7555 -15.5177 
49.5947 14.3679 -15.5177 46.933 18.1483 -15.5177 -40.3747 21.6436 -11.8301 
-25.9004 21.6436 -15.5177 -33.099 21.6436 -14.8872 -25.8234 21.6532 -15.5177 
-13.0093 21.6436 -15.5177 -18.5478 21.9209 -15.5177 -11.2721 21.6436 -15.4627 
-3.99649 21.6436 -15.186 3.27915 21.6436 -14.2232 11.9273 21.6436 -15.5177 
10.5548 21.6436 -15.0142 17.8304 24.7682 -15.5177 25.1061 26.3462 -15.5177 
32.3817 26.7031 -15.5177 42.9775 21.6436 -15.5177 39.6573 23.9143 -15.5177 
46.933 21.6436 -10.5048 -25.8234 28.9192 -9.9105 -18.5478 28.9192 -10.7193 
-11.2721 28.9192 -10.5902 -3.99649 28.9192 -10.2928 3.27915 28.9192 -9.86824 
10.5548 28.9192 -10.7927 17.8304 28.9192 -12.1584 25.1061 28.9192 -13.2926 
32.3817 28.9192 -12.8099 -18.5478 -36.5658 -8.24203 -40.3747 -30.6673 -8.24203 
-33.099 -34.3526 -8.24203 -18.6362 -36.5615 -8.24203 -25.8234 -36.2068 -8.24203 
-18.4985 -36.5615 -8.24203 -18.5478 -36.5615 -8.21555 -11.2721 -35.9214 -8.24203 
-3.99649 -34.5166 -8.24203 3.27915 -34.217 -8.24203 10.5548 -34.9695 -8.24203 
17.8304 -35.2493 -8.24203 25.1061 -34.3835 -8.24203 32.3817 -32.827 -8.24203 
39.6573 -30.427 -8.24203 -42.2387 -29.2859 -8.24203 -47.6503 -23.7719 -8.24203 
41.5613 -29.2859 -8.24203 46.933 -25.6565 -8.24203 -48.9785 -22.0103 -8.24203 
50.4639 -22.0103 -8.24203 54.2086 -15.8326 -8.24203 -52.2552 -14.7346 -8.24203 
54.75 -14.7346 -8.24203 -53.4032 -7.459 -8.24203 56.745 -7.459 -8.24203 
-54.0631 -0.183358 -8.24203 -54.926 -0.183358 -4.66646 56.4697 -0.183358 -8.24203 
-52.3398 7.09228 -8.24203 55.4536 7.09228 -8.24203 54.2086 10.5069 -8.24203 
-49.6298 14.3679 -8.24203 -47.6503 17.5712 -8.24203 52.7445 14.3679 -8.24203 
-44.4022 21.6436 -8.24203 -47.6503 21.6436 -2.08673 -40.3747 25.461 -8.24203 
-33.099 28.8524 -8.24203 39.6573 28.5066 -8.24203 47.9781 21.6436 -8.24203 
46.933 22.7999 -8.24203 -32.815 28.9192 -8.24203 -33.099 28.9192 -8.13484 
-25.8234 30.3942 -8.24203 -18.5478 31.5885 -8.24203 -11.2721 31.9468 -8.24203 
-3.99649 31.6412 -8.24203 3.27915 31.09 -8.24203 10.5548 31.8501 -8.24203 
17.8304 32.7315 -8.24203 25.1061 32.6097 -8.24203 38.6516 28.9192 -8.24203 
32.3817 31.2352 -8.24203 39.6573 28.9192 -4.07629 -18.5478 36.1948 -1.46144 
-11.2721 36.1948 -2.90593 -3.99649 36.1948 -2.72158 3.27915 36.1948 -1.92294 
10.5548 36.1948 -1.8457 17.8304 36.1948 -1.7278 -40.3747 -30.0241 -0.966395 
-33.099 -33.0912 -0.966395 -25.8234 -34.9112 -0.966395 -18.5478 -35.284 -0.966395 
-11.2721 -34.7143 -0.966395 -3.99649 -33.9081 -0.966395 3.27915 -33.8832 -0.966395 
10.5548 -34.4473 -0.966395 17.8304 -34.7189 -0.966395 25.1061 -34.1141 -0.966395 
32.3817 -32.8902 -0.966395 39.6573 -30.8647 -0.966395 -41.5024 -29.2859 -0.966395 
-47.6503 -24.0424 -0.966395 -40.3747 -29.2859 1.38228 42.2018 -29.2859 -0.966395 
39.6573 -29.2859 2.56621 46.933 -26.0653 -0.966395 -49.4029 -22.0103 -0.966395 
-47.6503 -22.0103 4.93574 50.8731 -22.0103 -0.966395 54.2086 -15.9161 -0.966395 
-53.1787 -14.7346 -0.966395 54.739 -14.7346 -0.966395 54.2086 -14.7346 0.572425 
-54.8114 -7.459 -0.966395 -54.926 -6.50614 -0.966395 56.4194 -7.459 -0.966395 
54.2086 -7.459 4.40062 -55.6863 -0.183358 -0.966395 -54.926 4.04917 -0.966395 
55.9096 -0.183358 -0.966395 54.2086 -0.183358 2.97803 -54.3715 7.09228 -0.966395 
54.7677 7.09228 -0.966395 54.2086 8.5457 -0.966395 54.2086 7.09228 0.402509 
-52.2354 14.3679 -0.966395 52.03 14.3679 -0.966395 -48.0937 21.6436 -0.966395 
-47.6503 22.1735 -0.966395 -40.3747 28.5463 -0.966395 47.4974 21.6436 -0.966395 
46.933 22.3312 -0.966395 46.933 21.6436 0.286693 -39.749 28.9192 -0.966395 
-33.099 32.5476 -0.966395 -25.8234 34.7929 -0.966395 25.1061 35.1793 -0.966395 
32.3817 32.9825 -0.966395 40.0578 28.9192 -0.966395 39.6573 29.2361 -0.966395 
39.6573 28.9192 0.0163576 -19.7154 36.1948 -0.966395 -18.5478 36.459 -0.966395 
-11.2721 37.2253 -0.966395 -3.99649 37.1356 -0.966395 3.27915 36.7127 -0.966395 
10.5548 36.6433 -0.966395 19.5911 36.1948 -0.966395 17.8304 36.5068 -0.966395 
-33.099 -29.8438 6.30924 -25.8234 -31.2007 6.30924 -18.5478 -31.548 6.30924 
-11.2721 -30.9152 6.30924 -3.99649 -30.8946 6.30924 3.27915 -31.1327 6.30924 
10.5548 -31.237 6.30924 17.8304 -31.194 6.30924 25.1061 -31.2793 6.30924 
32.3817 -29.8537 6.30924 -34.9643 -29.2859 6.30924 -40.3747 -27.3772 6.30924 
-33.099 -29.2859 7.23866 -25.8234 -29.2859 9.18112 -18.5478 -29.2859 9.53082 
-11.2721 -29.2859 8.57192 -3.99649 -29.2859 8.65645 3.27915 -29.2859 9.15673 
10.5548 -29.2859 9.13885 17.8304 -29.2859 8.90825 25.1061 -29.2859 9.02541 
34.2211 -29.2859 6.30924 32.3817 -29.2859 7.25565 39.6573 -27.4845 6.30924 
46.933 -22.2927 6.30924 -47.0905 -22.0103 6.30924 -47.6503 -21.4013 6.30924 
39.6573 -22.0103 13.3744 47.1983 -22.0103 6.30924 46.933 -22.0103 6.61877 
-51.8162 -14.7346 6.30924 51.916 -14.7346 6.30924 46.933 -14.7346 12.4961 
-54.3496 -7.459 6.30924 -54.926 -2.80767 6.30924 53.3 -7.459 6.30924 
-55.2384 -0.183358 6.30924 -54.926 2.61084 6.30924 -54.926 -0.183358 7.28259 
52.5351 -0.183358 6.30924 -54.3997 7.09228 6.30924 51.3251 7.09228 6.30924 
46.933 7.09228 12.3717 -52.2234 14.3679 6.30924 48.4396 14.3679 6.30924 
46.933 17.0033 6.30924 46.933 14.3679 8.61138 -48.0187 21.6436 6.30924 
-47.6503 22.0726 6.30924 -47.6503 21.6436 7.20405 -40.3747 28.762 6.30924 
44.2347 21.6436 6.30924 39.6573 26.702 6.30924 39.6573 21.6436 12.4657 
-40.1242 28.9192 6.30924 -33.099 32.7794 6.30924 -25.8234 35.3754 6.30924 
25.1061 35.2971 6.30924 36.9808 28.9192 6.30924 32.3817 32.0866 6.30924 
32.3817 28.9192 13.0265 -22.6189 36.1948 6.30924 -18.5478 37.1985 6.30924 
-18.5478 36.1948 9.19022 -11.2721 37.9453 6.30924 -11.2721 36.1948 12.0055 
-3.99649 37.948 6.30924 -3.99649 36.1948 13.1695 3.27915 37.7259 6.30924 
3.27915 36.1948 13.0646 10.5548 37.7275 6.30924 10.5548 36.1948 12.4639 
21.2531 36.1948 6.30924 17.8304 36.9291 6.30924 17.8304 36.1948 9.30702 
-40.3747 -22.2914 13.5849 -33.099 -25.1322 13.5849 -25.8234 -26.3759 13.5849 
-18.5478 -26.2079 13.5849 -11.2721 -25.3187 13.5849 -3.99649 -25.186 13.5849 
3.27915 -25.8366 13.5849 10.5548 -25.5419 13.5849 17.8304 -24.9777 13.5849 
25.1061 -25.0858 13.5849 32.3817 -24.1571 13.5849 -40.7959 -22.0103 13.5849 
-47.6503 -15.4516 13.5849 -40.3747 -22.0103 13.8759 -33.099 -22.0103 17.1184 
[...]
POINT_DATA 544
SCALARS ImageScalars float
LOOKUP_TABLE default
0 0 0 0 0 0 0 0 0 
0 0 0 0 0 0 0 0 0 
0 0 0 0 0 0 0 0 0 
0 0 0 0 0 0 0 0 0 
0 0 0 0 0 0 0 0 0 
0 0 0 0 0 0 0 0 0 
0 0 0 0 0 0 0 0 0 
0 0 0 0 0 0 0 0 0 
0 0 0 0 0 0 0 0 0 
0 0 0 0 0 0 0 0 0 
0 0 0 0 0 0 0 0 0 
0 0 0 0 0 0 0 0 0 
0 0 0 0 0 0 0 0 0 
0 0 0 0 0 0 0 0 0 
0 0 0 0 0 0 0 0 0 
0 0 0 0 0 0 0 0 0 
0 0 0 0 0 0 0 0 0 
0 0 0 0 0 0 0 0 0 
0 0 0 0 0 0 0 0 0 
0 0 0 0 0 0 0 0 0 
0 0 0 0 0 0 0 0 0 
0 0 0 0 0 0 0 0 0 
0 0 0 0 0 0 0 0 0 
0 0 0 0 0 0 0 0 0 
0 0 0 0 0 0 0 0 0 
0 0 0 0 0 0 0 0 0 
0 0 0 0 0 0 0 0 0 
0 0 0 0 0 0 0 0 0 
0 0 0 0 0 0 0 0 0 
0 0 0 0 0 0 0 0 0 
0 0 0 0 0 0 0 0 0 
0 0 0 0 0 0 0 0 0 
0 0 0 0 0 0 0 0 0 
0 0 0 0 0 0 0 0 0 
0 0 0 0 0 0 0 0 0 
0 0 0 0 0 0 0 0 0 
0 0 0 0 0 0 0 0 0 
0 0 0 0 0 0 0 0 0 
0 0 0 0 0 0 0 0 0 
0 0 0 0 0 0 0 0 0 
0 0 0 0 0 0 0 0 0 
0 0 0 0 0 0 0 0 0 
0 0 0 0 0 0 0 0 0 
0 0 0 0 0 0 0 0 0 
0 0 0 0 0 0 0 0 0 
0 0 0 0 0 0 0 0 0 
0 0 0 0 0 0 0 0 0 
0 0 0 0 0 0 0 0 0 
0 0 0 0 0 0 0 0 0 
0 0 0 0 0 0 0 0 0 
0 0 0 0 0 0 0 0 0 
0 0 0 0 0 0 0 0 0 
0 0 0 0 0 0 0 0 0 
0 0 0 0 0 0 0 0 0 
0 0 0 0 0 0 0 0 0 
0 0 0 0 0 0 0 0 0 
0 0 0 0 0 0 0 0 0 
0 0 0 0 0 0 0 0 0 
0 0 0 0 0 0 0 0 0 
0 0 0 0 0 0 0 0 0 
0 0 0 0 
NORMALS Normals float
0.3048 0.582475 0.753539 0.145146 0.509386 0.848209 -0.0110664 0.482246 0.875966 
-0.0938653 0.522896 0.847212 -0.105129 0.626813 0.772045 -0.0154433 0.660409 0.750747 
-0.00467063 0.623702 0.781648 -0.0536257 0.613222 0.788088 -0.14007 0.6217 0.770629 
0.438604 0.3333 0.834588 0.241549 0.24037 0.940147 0.0473605 0.115816 0.992141 
-0.00930951 0.120785 0.992635 -0.0357895 0.134464 0.990272 -0.0343718 0.194394 0.980321 
-0.0138957 0.223954 0.974501 -0.0165096 0.217136 0.976002 -0.0343536 0.216156 0.975754 
-0.0590759 0.265794 0.962218 -0.155225 0.383905 0.910232 -0.305729 0.455362 0.836167 
0.680242 0.140485 0.719399 0.318396 0.106389 0.941969 0.129421 0.000846611 0.991589 
0.0239638 -0.042608 0.998804 0.00831949 -0.0703559 0.997487 -0.00588209 0.031763 0.999478 
-0.0168952 0.054743 0.998358 0.00908889 0.0436742 0.999004 -0.012212 0.0598594 0.998132 
-0.0207909 0.00983167 0.999735 0.00458114 0.0781848 0.996928 -0.0446907 0.151803 0.9874 
-0.168924 0.266023 0.94905 -0.468829 0.309621 0.827245 0.613252 -0.00839377 0.789842 
0.295606 -0.042124 0.954381 0.0844098 -0.072381 0.993799 -0.0230125 -0.102714 0.994445 
0.0614106 -0.141924 0.987971 0.0921454 0.0194263 0.995556 -0.0216911 0.0164934 0.999629 
-0.0097161 -0.0333778 0.999396 -0.0538229 0.00518513 0.998537 -0.0124003 -0.0629746 0.997938 
0.0951365 0.0160042 0.995336 0.0408339 0.0835528 0.995666 -0.164435 0.0858908 0.982641 
-0.421672 0.101361 0.901065 0.5801 -0.0728756 0.811279 0.256832 -0.123801 0.958494 
0.0621441 -0.10676 0.992341 -0.0437885 -0.107749 0.993213 0.113452 -0.0838636 0.989998 
0.162385 -0.0336362 0.986154 -0.0739049 -0.0933013 0.992891 0.00323802 -0.141985 0.989864 
-0.0441866 -0.0758192 0.996142 -0.0105692 -0.0166337 0.999806 0.155698 0.00317157 0.9878 
0.0208544 0.00969702 0.999735 -0.148891 0.0105901 0.988797 -0.403683 0.000592554 0.914899 
0.30982 -0.185125 0.932599 0.0992395 -0.132793 0.986163 -0.00652692 -0.104671 0.994485 
0.135141 -0.0512374 0.989501 0.0888513 -0.147921 0.985 -0.127881 -0.144571 0.981196 
0.0130833 -0.165416 0.986137 0.0650005 -0.174852 0.982447 0.0645063 -0.0145005 0.997812 
0.121113 -0.0387019 0.991884 0.0495508 -0.0810686 0.995476 -0.157601 -0.0727063 0.984823 
-0.469437 -0.124817 0.874099 0.376596 -0.329917 0.865639 0.146802 -0.307867 0.940036 
0.0473989 -0.242218 0.969063 0.0742339 -0.231648 0.969963 0.0536314 -0.364984 0.929468 
-0.0882023 -0.324994 0.941594 -0.0386402 -0.336293 0.940964 0.122222 -0.346261 0.930143 
0.131053 -0.18285 0.974367 0.0823082 -0.179111 0.98038 -0.015891 -0.209012 0.977784 
-0.191254 -0.308245 0.931884 -0.540017 -0.372134 0.754916 0.0433543 -0.462182 0.885725 
-0.00322994 -0.474856 0.880058 0.215997 -0.464166 0.859009 0.0786296 -0.4428 0.893166 
-0.0813389 -0.468287 0.879825 -0.317641 -0.550726 0.771884 0.328144 0.706478 0.627064 
0.13529 0.786649 0.602395 -0.024846 0.805524 0.592042 -0.0188196 0.9986 0.0494365 
-0.140456 0.806533 0.574262 -0.116072 0.793651 0.597198 -0.0102834 0.785366 0.618947 
0.0152613 0.766141 0.642491 -0.0469672 0.734604 0.676869 -0.147476 0.71372 0.684729 
0.452655 0.645521 0.615147 0.519748 0.571548 0.634977 0.56756 0.745653 0.34911 
-0.225075 0.682816 0.695057 -0.238738 0.670342 0.702599 -0.249538 0.712759 0.65552 
-0.351339 0.609802 0.710424 -0.423012 0.827927 0.368236 0.602532 0.424299 0.675963 
0.696892 0.201587 0.688262 0.777225 0.507321 0.372218 -0.485082 0.532418 0.693705 
-0.537168 0.493815 0.683811 -0.578429 0.581302 0.572283 0.702851 0.145629 0.696271 
-0.64037 0.351118 0.683112 -0.893783 0.361131 0.265963 0.641014 -0.00542849 0.76751 
-0.736894 0.143586 0.660583 -0.823362 0.139374 0.550136 0.594407 -0.0721341 0.800923 
0.582013 -0.119494 0.804352 -0.778968 -0.0394231 0.625824 -0.853985 -0.0516932 0.517724 
0.520753 -0.222896 0.824096 0.598684 -0.234608 0.765856 -0.758769 -0.210413 0.616438 
-0.909584 -0.239559 0.339512 0.401518 -0.34096 0.850017 0.687718 -0.427495 0.586764 
0.382834 -0.357517 0.851833 0.177399 -0.47443 0.862233 -0.0278173 -0.531974 0.846304 
-0.0766067 -0.546827 0.833733 -0.0204898 -0.467129 0.883952 0.201283 -0.472102 0.858257 
-0.686235 -0.410441 0.600515 -0.594913 -0.524575 0.609015 0.451829 -0.572128 0.684486 
0.0447803 -0.462716 0.885375 0.187245 -0.516865 0.835338 0.0433934 -0.462476 0.885569 
-0.0228979 -0.520336 0.853655 -0.00410267 -0.480586 0.876938 -0.0288707 -0.533676 0.845196 
-0.0752557 -0.557825 0.82654 -0.00645012 -0.507247 0.861777 0.21313 -0.485026 0.84813 
0.205503 -0.484229 0.850465 0.195821 -0.549175 0.812442 0.0815083 -0.58831 0.804517 
-0.118071 -0.677667 0.725828 -0.454751 -0.602576 0.655823 -0.354276 -0.635528 0.685998 
-0.69518 -0.660753 0.283071 0.127064 -0.728645 0.673001 0.0309977 -0.645997 0.762711 
-0.0239741 -0.591374 0.806041 -0.0417954 -0.577168 0.815555 0.0275751 -0.573324 0.818864 
0.127567 -0.604518 0.786311 0.131492 -0.665973 0.734295 0.0445855 -0.713669 0.699063 
-0.181101 -0.81746 0.546773 -0.0187802 0.998647 0.0484975 0.55222 0.826253 0.111171 
0.345717 0.936899 0.0519697 -0.0168757 0.998678 0.0485542 0.145958 0.987768 0.0548737 
-0.0195809 0.998625 0.0486258 -0.0187906 0.998702 0.0473343 -0.142803 0.987161 0.0715514 
-0.114737 0.986622 0.115808 0.0301764 0.988598 0.147526 0.0700599 0.986056 0.15095 
-0.0422167 0.985806 0.162496 -0.158209 0.972068 0.173361 -0.251725 0.943741 0.214445 
-0.424518 0.87266 0.241348 0.60935 0.781984 0.13112 0.792355 0.577038 0.19799 
-0.472343 0.848316 0.239272 -0.62304 0.74414 0.24099 0.826113 0.522094 0.212026 
-0.742311 0.624748 0.242207 -0.899534 0.388596 0.199582 0.914867 0.275907 0.294776 
-0.915403 0.353314 0.192888 0.928102 0.109965 0.355716 -0.979322 0.115854 0.165851 
0.911024 -0.0677295 0.406753 0.971038 -0.0485538 0.233941 -0.988643 -0.0833754 0.125032 
0.868137 -0.252631 0.427218 -0.963057 -0.246661 0.108069 -0.938716 -0.328562 0.104207 
0.777684 -0.42278 0.465258 0.721129 -0.503978 0.475372 -0.896537 -0.428682 0.111594 
0.613349 -0.605624 0.506974 0.765076 -0.609501 0.20777 0.488928 -0.702276 0.517453 
0.243893 -0.777722 0.579366 -0.465972 -0.845225 0.261657 -0.742252 -0.653415 0.148697 
-0.712845 -0.683131 0.158695 0.239482 -0.777961 0.580883 0.246211 -0.781129 0.573775 
0.147778 -0.764968 0.626885 0.0811073 -0.718169 0.691126 0.00492707 -0.672486 0.740093 
-0.0386488 -0.65046 0.758556 0.0135368 -0.645058 0.764013 0.0823372 -0.707482 0.701918 
0.0359817 -0.795389 0.60503 -0.0931458 -0.888121 0.450072 -0.433366 -0.859403 0.271331 
-0.243061 -0.908279 0.340517 -0.533581 -0.843694 0.0589266 0.159085 -0.930453 0.330074 
0.0445577 -0.911444 0.409004 -0.036315 -0.91151 0.409672 -0.0318729 -0.924091 0.38084 
-0.00625698 -0.932374 0.36144 -0.0895036 -0.959636 0.266625 0.480255 0.857388 -0.185041 
0.299598 0.914173 -0.273001 0.137524 0.94192 -0.306388 -0.0147033 0.95118 -0.308287 
-0.090039 0.949704 -0.299926 -0.0537842 0.973425 -0.2226 0.0357704 0.980905 -0.19117 
0.0559648 0.972019 -0.228138 -0.023382 0.968663 -0.247276 -0.119564 0.973878 -0.193044 
-0.2049 0.96284 -0.175943 -0.416827 0.894751 -0.160237 0.523815 0.833264 -0.176887 
0.746721 0.655223 -0.114413 0.4674 0.848061 -0.24966 -0.489455 0.858415 -0.153485 
-0.400266 0.85442 -0.331291 -0.632196 0.761267 -0.144225 0.793357 0.602316 -0.0883158 
0.70309 0.649639 -0.289195 -0.774785 0.613311 -0.153484 -0.918821 0.360817 -0.159938 
0.945484 0.324817 -0.0235325 -0.93315 0.319704 -0.164379 -0.922671 0.314584 -0.222969 
0.98493 0.162345 0.05964 0.988563 0.137779 0.0613131 -0.974102 0.0798001 -0.211561 
-0.907387 0.0479522 -0.417551 0.997151 -0.029258 0.0695189 0.984953 -0.137742 0.104374 
-0.963504 -0.108359 -0.244781 -0.920638 -0.108007 -0.375179 0.968302 -0.215043 0.127073 
-0.9304 -0.272071 -0.245628 -0.923111 -0.298783 -0.242062 -0.918414 -0.26747 -0.291506 
0.908181 -0.391777 0.147366 -0.887565 -0.394838 -0.237343 0.779808 -0.605147 0.160301 
0.768601 -0.619016 0.161468 0.54854 -0.82198 0.153143 -0.765027 -0.612603 -0.198623 
-0.754815 -0.628058 -0.189201 -0.766855 -0.59641 -0.237126 0.53281 -0.831301 0.158276 
0.377384 -0.89916 0.22157 0.242493 -0.928516 0.281169 -0.226164 -0.958123 0.175644 
-0.354866 -0.93325 0.0558038 -0.579036 -0.810351 -0.0897106 -0.568288 -0.818107 -0.0880302 
-0.575504 -0.80808 -0.125706 0.173624 -0.937599 0.301267 0.159755 -0.938905 0.304855 
0.0439661 -0.952832 0.300298 -0.0343627 -0.950095 0.310063 -0.033231 -0.942656 0.332107 
-0.0143349 -0.946821 0.32144 -0.128415 -0.966636 0.221639 -0.0966041 -0.967757 0.232626 
0.209504 0.864731 -0.456452 0.100038 0.856936 -0.505621 -0.0167854 0.849836 -0.52678 
-0.0375231 0.836908 -0.546057 0.0137373 0.863467 -0.504218 0.0207925 0.883451 -0.468062 
0.003884 0.862046 -0.506815 0.00272322 0.843361 -0.537341 -0.0783409 0.859639 -0.50486 
-0.217813 0.860501 -0.460538 0.260144 0.858444 -0.442039 0.435038 0.808722 -0.395867 
0.201613 0.856906 -0.474409 0.0826272 0.842316 -0.532613 -0.0266256 0.815809 -0.577708 
-0.0349525 0.811334 -0.583536 0.02397 0.823919 -0.566201 0.020124 0.835997 -0.548365 
-0.0108401 0.81383 -0.581002 -0.00425012 0.795429 -0.606031 -0.057234 0.803923 -0.591973 
-0.255523 0.844404 -0.470839 -0.217192 0.844502 -0.489534 -0.3789 0.781826 -0.495161 
-0.625599 0.604393 -0.493289 0.671321 0.659106 -0.33898 0.697145 0.635703 -0.331467 
-0.377927 0.587026 -0.715941 -0.633087 0.59528 -0.494815 -0.626882 0.594081 -0.50407 
0.868745 0.405915 -0.283752 -0.830247 0.296099 -0.472246 -0.627183 0.326244 -0.707253 
0.958416 0.204873 -0.19866 0.97835 0.075418 -0.192724 -0.869855 0.0358421 -0.492003 
0.981851 0.00321786 -0.189625 0.982101 -0.0686345 -0.175404 0.974084 0.00539827 -0.22612 
-0.867729 -0.108968 -0.484946 0.970716 -0.185897 -0.152161 -0.841248 -0.238898 -0.485004 
-0.748441 -0.217887 -0.626387 0.908668 -0.384075 -0.163737 -0.791841 -0.369087 -0.486583 
-0.779802 -0.408906 -0.474031 -0.767167 -0.360376 -0.530645 0.773128 -0.610382 -0.172357 
0.763945 -0.621361 -0.174064 0.7616 -0.612638 -0.211284 0.56367 -0.813163 -0.145057 
-0.741488 -0.514604 -0.430555 -0.613448 -0.692035 -0.380485 -0.621995 -0.502596 -0.600432 
0.557715 -0.817272 -0.144985 0.409555 -0.89663 -0.168283 0.278666 -0.95119 -0.1326 
-0.305376 -0.93933 -0.156221 -0.559373 -0.763507 -0.322735 -0.481106 -0.839628 -0.252114 
-0.497665 -0.683624 -0.533842 0.228487 -0.965791 -0.122648 0.16962 -0.97854 -0.116996 
0.179823 -0.946847 -0.266729 0.0501937 -0.994206 -0.0950492 0.0884678 -0.925049 -0.369401 
-0.0150449 -0.99776 -0.0651819 0.0232842 -0.928767 -0.369932 -0.015138 -0.99906 -0.0406114 
-0.0122695 -0.935818 -0.352271 -0.0546159 -0.997373 -0.0475832 -0.064208 -0.929215 -0.363918 
-0.224386 -0.967632 -0.115494 -0.158271 -0.983323 -0.089587 -0.176646 -0.954181 -0.241525 
0.394407 0.695771 -0.600288 0.209711 0.760898 -0.614049 0.0578213 0.79029 -0.609999 
-0.0561939 0.756688 -0.651357 -0.0533802 0.746961 -0.662722 0.0266797 0.740383 -0.671655 
0.0179924 0.736212 -0.676512 -0.0422177 0.694285 -0.718461 -0.0227314 0.661578 -0.749531 
-0.0353865 0.666539 -0.74463 -0.165424 0.641997 -0.748648 0.40781 0.689646 -0.598396 
0.688735 0.468185 -0.553576 0.394048 0.687592 -0.609871 0.212768 0.659536 -0.720931 
0.0364703 0.611421 -0.790465 -0.0611334 0.632868 -0.771842 -0.0548243 0.674231 -0.736483 
0.0154733 0.676231 -0.736527 -0.0153864 0.627238 -0.778676 -0.0689267 0.583875 -0.808912 
-0.0257282 0.5714 -0.820268 -0.0477667 0.569481 -0.820615 -0.357326 0.584921 -0.728138 
-0.157678 0.5777 -0.800875 -0.377539 0.573877 -0.726725 0.705541 0.445506 -0.551123 
0.687722 0.445744 -0.573019 0.37325 0.413593 -0.830437 -0.116341 0.326944 -0.937855 
-0.0350913 0.321145 -0.94638 -0.00779071 0.340684 -0.940145 -0.177952 0.339826 -0.9235 
-0.570603 0.32674 -0.753428 -0.393382 0.325733 -0.859738 -0.647373 0.190182 -0.738064 
0.816899 0.23786 -0.52545 0.623984 0.248859 -0.740752 -0.391831 0.150282 -0.90768 
-0.688942 0.0727252 -0.721159 -0.660683 0.0775627 -0.746647 0.863006 0.0191404 -0.504832 
0.597567 0.026034 -0.801396 -0.444288 -0.00883723 -0.895841 -0.725663 -0.0922936 -0.681832 
-0.725357 -0.130727 -0.675846 -0.713079 -0.0889077 -0.695424 0.844461 -0.184309 -0.502907 
0.625051 -0.190432 -0.756998 -0.715609 -0.207906 -0.666842 -0.509671 -0.151589 -0.84691 
0.763277 -0.39205 -0.513522 0.719409 -0.468881 -0.512447 0.689136 -0.38706 -0.612598 
0.350375 -0.303266 -0.886153 -0.296679 -0.22905 -0.927102 -0.679957 -0.338514 -0.650436 
-0.613055 -0.458161 -0.643625 -0.56758 -0.313331 -0.761365 0.617454 -0.587659 -0.522883 
0.519105 -0.673485 -0.526259 0.466769 -0.535086 -0.704138 0.226003 -0.406294 -0.885352 
-0.215979 -0.29673 -0.930217 -0.593813 -0.483834 -0.642877 -0.495355 -0.659745 -0.565119 
-0.423512 -0.385529 -0.819759 0.379106 -0.755363 -0.534514 0.35169 -0.764753 -0.539877 
0.343504 -0.742836 -0.57463 0.271354 -0.780964 -0.562549 0.240463 -0.635102 -0.734046 
0.193719 -0.819959 -0.538647 0.210145 -0.552788 -0.80639 0.101734 -0.883425 -0.457395 
0.0259327 -0.920126 -0.390762 -0.0124668 -0.925169 -0.379351 -0.0689013 -0.899983 -0.430445 
-0.208263 -0.838736 -0.503139 -0.239588 -0.501583 -0.831271 -0.480436 -0.672976 -0.562392 
-0.344224 -0.75151 -0.562798 -0.30379 -0.601737 -0.738664 0.154724 0.380578 -0.911713 
0.0240835 0.366381 -0.930153 -0.0134882 0.328502 -0.944407 -0.0117781 0.396716 -0.917866 
-0.0190806 0.435467 -0.900002 -0.0792763 0.360986 -0.929195 0.21242 0.353898 -0.910842 
0.317698 0.291647 -0.902225 0.143773 0.330739 -0.932706 0.0228968 0.280967 -0.959444 
0.00220228 0.217062 -0.976155 -0.000282193 0.304081 -0.952646 -0.0283778 0.363611 -0.931119 
-0.104685 0.320936 -0.941298 -0.0857762 0.312562 -0.946017 -0.11283 0.293291 -0.949342 
-0.02539 0.230274 -0.972794 -0.0141673 0.256207 -0.966518 -0.184562 0.180263 -0.966148 
0.378473 0.217895 -0.8996 0.287308 0.19267 -0.93826 0.0927698 0.0989099 -0.990763 
-0.0898644 0.0361949 -0.995296 -0.0330192 -0.0215784 -0.999222 0.104849 0.028177 -0.994089 
0.0150179 0.183816 -0.982846 -0.0897173 0.164303 -0.982321 -0.0978882 0.182347 -0.978349 
-0.021769 0.191083 -0.981332 -0.023459 0.167511 -0.985591 -0.204055 0.156022 -0.966446 
-0.184846 0.156731 -0.970189 0.441116 0.0258594 -0.897077 0.201047 0.0217231 -0.979341 
-0.014268 0.0171201 -0.999752 -0.0974623 0.00785886 -0.995208 -0.0131779 0.0119392 -0.999842 
0.219073 0.0479655 -0.974529 0.0962143 0.0760557 -0.992451 -0.0948663 0.025783 -0.995156 
-0.0934862 0.0175474 -0.995466 -0.0522676 0.0750616 -0.995808 -0.0442849 0.0547855 -0.997516 
-0.29765 0.025492 -0.954335 -0.190272 0.0460324 -0.980652 0.409251 -0.168924 -0.896648 
0.325159 -0.262043 -0.908628 0.279827 -0.136542 -0.950291 0.0790754 -0.0573989 -0.995215 
-0.0975731 0.00991624 -0.995179 0.00601066 0.0961636 -0.995347 0.173609 0.114623 -0.978121 
-0.00845539 -0.00608061 -0.999946 -0.149517 -0.0334157 -0.988194 -0.0466213 -0.0502554 -0.997648 
0.0142113 -0.0186218 -0.999726 -0.049088 -0.0327961 -0.998256 -0.320998 -0.111703 -0.940469 
-0.277509 -0.187181 -0.942312 -0.236292 -0.0944753 -0.967078 0.281491 -0.277373 -0.9186 
0.18199 -0.318162 -0.930404 0.131007 -0.22691 -0.965064 0.0570626 -0.136364 -0.989014 
0.0998083 0.00971956 -0.994959 0.11162 0.0208228 -0.993533 -0.0355357 -0.0125883 -0.999289 
-0.144595 0.0321053 -0.98897 -0.0769122 0.00719252 -0.997012 -0.036322 -0.0677459 -0.997041 
-0.246732 -0.204492 -0.947263 -0.18981 -0.254655 -0.948221 -0.118378 -0.139539 -0.983115 
0.155825 -0.328722 -0.931483 0.146075 -0.32903 -0.932953 0.142372 -0.313531 -0.938844 
0.187697 -0.365826 -0.91156 0.167091 -0.231907 -0.958279 0.142986 -0.193753 -0.970574 
0.00225249 -0.140957 -0.990013 -0.121062 -0.0911439 -0.988452 -0.149975 -0.100295 -0.98359 
-0.183064 -0.258715 -0.948448 -0.160869 -0.27508 -0.947867 -0.128992 -0.193236 -0.972636 
0.175258 -0.501702 -0.847101 0.174704 -0.502988 -0.846452 0.174855 -0.501307 -0.847418 
0.0577124 -0.59317 -0.803006 0.0622153 -0.512153 -0.856638 -0.0657333 -0.544118 -0.83643 
-0.077069 -0.471449 -0.878519 -0.168799 -0.424146 -0.889723 -0.164208 -0.429604 -0.887962 
-0.164679 -0.421019 -0.891977 
