# vtk DataFile Version 4.2
vtk output
ASCII
DATASET POLYDATA
POINTS 569 float
-37.688 -38.5415 -14.3094 -64.9267 -29.4619 -16.5475 -55.8471 -29.4619 -18.0328 
-46.7676 -29.4619 -18.3128 -37.688 -29.4619 -18.3054 -28.6085 -29.4619 -17.1669 
-19.5289 -29.4619 -15.6377 -10.4493 -29.4619 -14.6943 -74.0063 -20.3823 -14.5767 
-64.9267 -20.3823 -18.0828 -55.8471 -20.3823 -19.5927 -46.7676 -20.3823 -21.4275 
-37.688 -20.3823 -20.201 -28.6085 -20.3823 -19.4772 -19.5289 -20.3823 -17.434 
-10.4493 -20.3823 -16.6773 -1.36978 -20.3823 -16.2492 7.70978 -20.3823 -14.8381 
16.7893 -20.3823 -14.5821 34.9485 -20.3823 -14.3699 44.028 -20.3823 -15.4138 
62.1871 -20.3823 -15.0117 -74.0063 -11.3028 -16.8108 -64.9267 -11.3028 -20.7057 
-55.8471 -11.3028 -20.782 -46.7676 -11.3028 -21.2962 -37.688 -11.3028 -21.0526 
-28.6085 -11.3028 -19.3826 -19.5289 -11.3028 -17.4848 -10.4493 -11.3028 -18.3374 
-1.36978 -11.3028 -20.4433 7.70978 -11.3028 -18.7198 16.7893 -11.3028 -16.6497 
25.8689 -11.3028 -15.1049 34.9485 -11.3028 -15.8516 44.028 -11.3028 -16.7434 
53.1076 -11.3028 -17.6506 62.1871 -11.3028 -15.5331 71.2667 -11.3028 -14.5388 
-74.0063 -2.22322 -15.0131 -64.9267 -2.22322 -21.1797 -55.8471 -2.22322 -21.1435 
-46.7676 -2.22322 -21.1946 -37.688 -2.22322 -20.7373 -28.6085 -2.22322 -19.2898 
-19.5289 -2.22322 -17.6995 -10.4493 -2.22322 -22.7098 -1.36978 -2.22322 -16.5925 
7.70978 -2.22322 -19.9835 16.7893 -2.22322 -17.1201 25.8689 -2.22322 -15.8442 
34.9485 -2.22322 -17.5382 44.028 -2.22322 -18.6779 53.1076 -2.22322 -18.4483 
62.1871 -2.22322 -18.488 71.2667 -2.22322 -14.7058 -74.0063 6.85634 -16.4768 
-64.9267 6.85634 -20.9136 -55.8471 6.85634 -20.6803 -46.7676 6.85634 -20.953 
-37.688 6.85634 -20.7804 -28.6085 6.85634 -19.2957 -19.5289 6.85634 -18.036 
-10.4493 6.85634 -22.4216 -1.36978 6.85634 -18.2234 7.70978 6.85634 -20.5677 
16.7893 6.85634 -15.7087 25.8689 6.85634 -17.1503 34.9485 6.85634 -18.8416 
44.028 6.85634 -19.6938 53.1076 6.85634 -20.0011 62.1871 6.85634 -20.9503 
71.2667 6.85634 -16.4286 -74.0063 15.9359 -14.7912 -64.9267 15.9359 -19.0306 
-55.8471 15.9359 -19.9585 -46.7676 15.9359 -22.1157 -37.688 15.9359 -20.7431 
-28.6085 15.9359 -19.9936 -19.5289 15.9359 -19.372 -10.4493 15.9359 -19.1129 
-1.36978 15.9359 -18.0619 7.70978 15.9359 -17.0967 16.7893 15.9359 -16.4333 
25.8689 15.9359 -17.8485 34.9485 15.9359 -19.397 44.028 15.9359 -21.4103 
53.1076 15.9359 -19.3914 62.1871 15.9359 -19.031 71.2667 15.9359 -16.4919 
-64.9267 25.0155 -14.9075 -55.8471 25.0155 -19.1542 -46.7676 25.0155 -20.9616 
-37.688 25.0155 -20.6972 -28.6085 25.0155 -21.3721 -19.5289 25.0155 -20.2763 
-10.4493 25.0155 -18.9119 -1.36978 25.0155 -17.3136 7.70978 25.0155 -17.0547 
16.7893 25.0155 -17.1549 25.8689 25.0155 -18.2159 34.9485 25.0155 -18.8862 
44.028 25.0155 -19.3211 53.1076 25.0155 -18.9414 62.1871 25.0155 -15.7763 
-55.8471 34.095 -15.909 -46.7676 34.095 -19.1362 -37.688 34.095 -20.4507 
-28.6085 34.095 -20.1164 -19.5289 34.095 -19.7059 -10.4493 34.095 -18.4348 
-1.36978 34.095 -17.1716 7.70978 34.095 -16.6968 16.7893 34.095 -16.6701 
25.8689 34.095 -17.5 34.9485 34.095 -16.7678 44.028 34.095 -17.0507 
-37.688 43.1746 -16.5738 -28.6085 43.1746 -17.3698 -19.5289 43.1746 -17.011 
-10.4493 43.1746 -15.7131 -1.36978 43.1746 -14.7508 7.70978 43.1746 -14.4265 
16.7893 43.1746 -15.3839 -37.688 -38.5525 -14.3004 -64.9267 -32.8607 -14.3004 
-64.9267 -38.5415 -8.09422 -55.8471 -35.4334 -14.3004 -55.8471 -38.5415 -12.2278 
-37.7642 -38.5415 -14.3004 -46.7676 -36.6653 -14.3004 -46.7676 -38.5415 -13.0156 
-37.6388 -38.5415 -14.3004 -28.6085 -35.2831 -14.3004 -28.6085 -38.5415 -12.2823 
-19.5289 -32.262 -14.3004 -19.5289 -38.5415 -10.3501 -10.4493 -30.2609 -14.3004 
-10.4493 -38.5415 -8.6759 -1.36978 -38.5415 -6.58292 7.70978 -38.5415 -5.31229 
16.7893 -38.5415 -6.10928 25.8689 -38.5415 -7.84146 34.9485 -38.5415 -8.3235 
44.028 -38.5415 -9.22549 53.1076 -38.5415 -7.26034 -68.97 -29.4619 -14.3004 
-74.0063 -21.1718 -14.3004 -74.0063 -29.4619 -9.70811 -7.88595 -29.4619 -14.3004 
-1.36978 -26.3498 -14.3004 -1.36978 -29.4619 -13.2349 7.70978 -22.1145 -14.3004 
7.70978 -29.4619 -11.8652 16.7893 -21.4223 -14.3004 16.7893 -29.4619 -11.9922 
25.8689 -29.4619 -12.149 34.9485 -20.7358 -14.3004 34.9485 -29.4619 -12.4688 
44.028 -23.4503 -14.3004 44.028 -29.4619 -11.7348 53.1076 -29.4619 -12.5787 
62.1871 -21.9045 -14.3004 62.1871 -29.4619 -8.57317 71.2667 -29.4619 -5.6401 
-74.3672 -20.3823 -14.3004 20.5009 -20.3823 -14.3004 33.6266 -20.3823 -14.3004 
25.8689 -17.3642 -14.3004 25.8689 -20.3823 -13.932 52.3041 -20.3823 -14.3004 
54.2165 -20.3823 -14.3004 53.1076 -20.0583 -14.3004 53.1076 -20.3823 -14.1756 
64.2813 -20.3823 -14.3004 71.2667 -11.8273 -14.3004 71.2667 -20.3823 -10.4131 
-77.2819 -11.3028 -14.3004 71.5435 -11.3028 -14.3004 80.3463 -11.3028 -7.94103 
-75.134 -2.22322 -14.3004 -83.0858 -2.22322 -5.94559 72.1784 -2.22322 -14.3004 
80.3463 -2.22322 -10.2558 -76.797 6.85634 -14.3004 74.8269 6.85634 -14.3004 
80.3463 6.85634 -9.65594 -74.6063 15.9359 -14.3004 -74.0063 17.0422 -14.3004 
74.4872 15.9359 -14.3004 71.2667 21.3232 -14.3004 -65.9514 25.0155 -14.3004 
-64.9267 26.708 -14.3004 53.1076 33.8486 -14.3004 65.6622 25.0155 -14.3004 
62.1871 28.9254 -14.3004 71.2667 25.0155 -10.6248 -59.2209 34.095 -14.3004 
-55.8471 36.7225 -14.3004 -46.7676 42.4827 -14.3004 25.8689 42.6454 -14.3004 
34.9485 39.5567 -14.3004 52.654 34.095 -14.3004 44.028 40.1098 -14.3004 
53.1076 34.095 -14.0827 62.1871 34.095 -9.7199 -45.235 43.1746 -14.3004 
-46.7676 43.1746 -13.1523 -37.688 46.5024 -14.3004 -28.6085 46.9534 -14.3004 
-19.5289 46.9859 -14.3004 -10.4493 45.2577 -14.3004 -1.36978 43.9058 -14.3004 
7.70978 43.3899 -14.3004 24.6213 43.1746 -14.3004 16.7893 44.8214 -14.3004 
25.8689 43.1746 -14.0474 34.9485 43.1746 -12.0564 44.028 43.1746 -9.69051 
-19.5289 52.2541 -7.07101 -10.4493 52.2541 -7.02646 -1.36978 52.2541 -6.62168 
7.70978 52.2541 -6.54724 -64.9267 -40.8862 -5.22087 -55.8471 -44.1367 -5.22087 
-46.7676 -46.213 -5.22087 -46.7676 -47.621 0.489687 -37.688 -45.3462 -5.22087 
-28.6085 -44.829 -5.22087 -19.5289 -42.9493 -5.22087 -10.4493 -41.2992 -5.22087 
-1.36978 -39.6395 -5.22087 7.70978 -38.6235 -5.22087 16.7893 -39.3966 -5.22087 
25.8689 -41.0508 -5.22087 34.9485 -42.322 -5.22087 44.028 -42.8326 -5.22087 
44.028 -47.621 3.82892 53.1076 -40.9512 -5.22087 -67.8288 -38.5415 -5.22087 
-74.0063 -33.3199 -5.22087 59.1029 -38.5415 -5.22087 62.1871 -35.8059 -5.22087 
62.1871 -38.5415 -3.19335 71.2667 -30.0963 -5.22087 -77.0812 -29.4619 -5.22087 
71.8635 -29.4619 -5.22087 -81.2596 -20.3823 -5.22087 79.0692 -20.3823 -5.22087 
80.3463 -18.4965 -5.22087 80.3463 -20.3823 -2.64866 -82.7839 -11.3028 -5.22087 
-83.0858 -7.52185 -5.22087 83.0081 -11.3028 -5.22087 -83.4476 -2.22322 -5.22087 
-83.0858 -0.305702 -5.22087 -83.0858 -2.22322 -3.82249 84.6527 -2.22322 -5.22087 
-81.6756 6.85634 -5.22087 83.134 6.85634 -5.22087 80.3463 15.329 -5.22087 
-78.6193 15.9359 -5.22087 -74.0063 23.7435 -5.22087 80.1056 15.9359 -5.22087 
-73.2183 25.0155 -5.22087 -64.9267 33.8566 -5.22087 74.706 25.0155 -5.22087 
71.2667 28.5397 -5.22087 71.2667 25.0155 3.36738 -64.6463 34.095 -5.22087 
-55.8471 41.143 -5.22087 53.1076 41.3202 -5.22087 64.5284 34.095 -5.22087 
62.1871 35.738 -5.22087 62.1871 34.095 1.42615 -52.4838 43.1746 -5.22087 
-46.7676 46.4499 -5.22087 -46.7676 43.1746 1.53968 -37.688 50.0039 -5.22087 
-28.6085 52.1939 -5.22087 16.7893 52.2007 -5.22087 25.8689 49.9262 -5.22087 
34.9485 47.8878 -5.22087 48.3276 43.1746 -5.22087 44.028 44.6785 -5.22087 
44.028 43.1746 0.749794 -27.9774 52.2541 -5.22087 -19.5289 53.0628 -5.22087 
-19.5289 52.2541 -0.908129 -10.4493 53.2527 -5.22087 -10.4493 52.2541 -0.00938125 
-1.36978 53.0905 -5.22087 -1.36978 52.2541 -0.72936 16.2745 52.2541 -5.22087 
7.70978 53.0603 -5.22087 7.70978 52.2541 -1.42872 -46.7676 -48.3044 3.85869 
44.028 -47.6354 3.85869 -64.9267 -42.0224 3.85869 -48.8997 -47.621 3.85869 
-55.8471 -45.3941 3.85869 -38.1963 -47.621 3.85869 -46.7676 -47.621 5.75479 
-37.688 -47.5826 3.85869 -28.6085 -46.709 3.85869 -19.5289 -45.6535 3.85869 
-10.4493 -44.1226 3.85869 -1.36978 -42.8776 3.85869 7.70978 -42.8345 3.85869 
16.7893 -44.5096 3.85869 25.8689 -46.9424 3.85869 43.5799 -47.621 3.85869 
34.9485 -47.3434 3.85869 44.1306 -47.621 3.85869 44.028 -47.621 4.02464 
53.1076 -46.026 3.85869 62.1871 -42.5199 3.85869 -68.6306 -38.5415 3.85869 
-74.0063 -32.5997 3.85869 -64.9267 -38.5415 8.31233 70.2712 -38.5415 3.85869 
71.2667 -37.7603 3.85869 -76.171 -29.4619 3.85869 -74.0063 -29.4619 6.70267 
77.0919 -29.4619 3.85869 80.3463 -23.7123 3.85869 -80.0645 -20.3823 3.85869 
-74.0063 -20.3823 10.5329 82.0173 -20.3823 3.85869 80.3463 -20.3823 6.5891 
-80.8876 -11.3028 3.85869 -74.0063 -11.3028 10.8184 84.9552 -11.3028 3.85869 
80.3463 -11.3028 10.1127 -80.0015 -2.22322 3.85869 -74.0063 -2.22322 9.82368 
83.844 -2.22322 3.85869 80.3463 -2.22322 7.98067 -78.3406 6.85634 3.85869 
-74.0063 6.85634 7.99337 82.9546 6.85634 3.85869 80.3463 11.6914 3.85869 
80.3463 6.85634 6.82703 -74.6079 15.9359 3.85869 -74.0063 16.846 3.85869 
-74.0063 15.9359 4.43179 -64.9267 15.9359 10.0504 77.5928 15.9359 3.85869 
71.2667 24.7619 3.85869 71.2667 15.9359 9.53106 -68.3583 25.0155 3.85869 
-64.9267 28.6059 3.85869 -64.9267 25.0155 6.63446 -55.8471 25.0155 10.5413 
-46.7676 25.0155 12.7891 71.0385 25.0155 3.85869 62.1871 33.3428 3.85869 
62.1871 25.0155 10.6008 -58.4564 34.095 3.85869 -55.8471 36.1995 3.85869 
-55.8471 34.095 5.67028 -46.7676 41.3231 3.85869 -46.7676 34.095 9.28492 
-37.688 34.095 11.9566 44.028 42.1422 3.85869 44.028 34.095 11.2772 
61.0098 34.095 3.85869 53.1076 38.3865 3.85869 53.1076 34.095 8.54054 
-44.4128 43.1746 3.85869 -37.688 46.5183 3.85869 -37.688 43.1746 7.48138 
-28.6085 49.1901 3.85869 -28.6085 43.1746 9.76112 -19.5289 51.108 3.85869 
-19.5289 43.1746 11.8737 -10.4493 51.3292 3.85869 -10.4493 43.1746 12.2644 
-1.36978 51.1542 3.85869 -1.36978 43.1746 11.6348 7.70978 50.7774 3.85869 
7.70978 43.1746 10.9392 16.7893 49.6186 3.85869 16.7893 43.1746 10.047 
[...]
POINT_DATA 569
SCALARS ImageScalars float
LOOKUP_TABLE default
0 0 0 0 0 0 0 0 0 
0 0 0 0 0 0 0 0 0 
0 0 0 0 0 0 0 0 0 
0 0 0 0 0 0 0 0 0 
0 0 0 0 0 0 0 0 0 
0 0 0 0 0 0 0 0 0 
0 0 0 0 0 0 0 0 0 
0 0 0 0 0 0 0 0 0 
0 0 0 0 0 0 0 0 0 
0 0 0 0 0 0 0 0 0 
0 0 0 0 0 0 0 0 0 
0 0 0 0 0 0 0 0 0 
0 0 0 0 0 0 0 0 0 
0 0 0 0 0 0 0 0 0 
0 0 0 0 0 0 0 0 0 
0 0 0 0 0 0 0 0 0 
0 0 0 0 0 0 0 0 0 
0 0 0 0 0 0 0 0 0 
0 0 0 0 0 0 0 0 0 
0 0 0 0 0 0 0 0 0 
0 0 0 0 0 0 0 0 0 
0 0 0 0 0 0 0 0 0 
0 0 0 0 0 0 0 0 0 
0 0 0 0 0 0 0 0 0 
0 0 0 0 0 0 0 0 0 
0 0 0 0 0 0 0 0 0 
0 0 0 0 0 0 0 0 0 
0 0 0 0 0 0 0 0 0 
0 0 0 0 0 0 0 0 0 
0 0 0 0 0 0 0 0 0 
0 0 0 0 0 0 0 0 0 
0 0 0 0 0 0 0 0 0 
0 0 0 0 0 0 0 0 0 
0 0 0 0 0 0 0 0 0 
0 0 0 0 0 0 0 0 0 
0 0 0 0 0 0 0 0 0 
0 0 0 0 0 0 0 0 0 
0 0 0 0 0 0 0 0 0 
0 0 0 0 0 0 0 0 0 
0 0 0 0 0 0 0 0 0 
0 0 0 0 0 0 0 0 0 
0 0 0 0 0 0 0 0 0 
0 0 0 0 0 0 0 0 0 
0 0 0 0 0 0 0 0 0 
0 0 0 0 0 0 0 0 0 
0 0 0 0 0 0 0 0 0 
0 0 0 0 0 0 0 0 0 
0 0 0 0 0 0 0 0 0 
0 0 0 0 0 0 0 0 0 
0 0 0 0 0 0 0 0 0 
0 0 0 0 0 0 0 0 0 
0 0 0 0 0 0 0 0 0 
0 0 0 0 0 0 0 0 0 
0 0 0 0 0 0 0 0 0 
0 0 0 0 0 0 0 0 0 
0 0 0 0 0 0 0 0 0 
0 0 0 0 0 0 0 0 0 
0 0 0 0 0 0 0 0 0 
0 0 0 0 0 0 0 0 0 
0 0 0 0 0 0 0 0 0 
0 0 0 0 0 0 0 0 0 
0 0 0 0 0 0 0 0 0 
0 0 0 0 0 0 0 0 0 
0 0 
NORMALS Normals float
-0.0312063 0.596514 0.801996 0.314639 0.373315 0.872719 0.111751 0.381599 0.917548 
0.0120201 0.384982 0.922846 -0.0630148 0.321563 0.944789 -0.136441 0.347068 0.927862 
-0.131027 0.317634 0.939117 -0.122214 0.340677 0.932203 0.511846 0.29066 0.808412 
0.284841 0.216542 0.933796 0.16276 0.131093 0.977918 0.0330777 0.161639 0.986295 
-0.102705 0.141794 0.984554 -0.150426 0.117891 0.981567 -0.150263 0.0971335 0.983863 
-0.0630797 0.175611 0.982437 -0.0993603 0.340802 0.93487 -0.0843015 0.330775 0.939937 
-0.0506552 0.215926 0.975095 0.0879855 0.176951 0.980279 -0.00732162 0.247694 0.968811 
-0.137495 0.28132 0.949713 0.51912 0.0390861 0.853807 0.241722 0.142751 0.959788 
0.0320297 0.0837685 0.99597 0.0144005 -0.0124542 0.999819 -0.104456 0.0300025 0.994077 
-0.192633 -0.00996358 0.98122 -0.0677377 0.0131315 0.997617 0.16239 0.249025 0.954786 
0.00780441 0.102006 0.994753 -0.17392 0.279287 0.944326 -0.214107 0.145929 0.965848 
-0.0237161 0.10626 0.994055 0.0869423 0.167067 0.982105 0.0949038 0.177178 0.979592 
-0.0604858 0.22275 0.972997 -0.153673 0.189919 0.969699 -0.436008 0.207559 0.87568 
0.535334 -0.0220556 0.844352 0.274744 0.0101972 0.961463 0.00118789 -0.0054374 0.999985 
-0.0202422 -0.018878 0.999617 -0.108664 -0.0155246 0.993957 -0.151707 -0.0048235 0.988414 
0.0674033 0.0339587 0.997148 0.0537813 0.223705 0.973172 -0.0466814 -0.138844 0.989213 
0.0303651 0.112222 0.993219 -0.256006 -0.0497128 0.965396 0.0537234 0.113615 0.992071 
0.150751 0.162953 0.975049 0.050823 0.164819 0.985014 -0.00977507 0.125935 0.99199 
-0.195069 0.25432 0.947243 -0.37657 0.0846608 0.922512 0.538074 -0.0297435 0.842372 
0.257868 -0.092986 0.961695 0.0053026 -0.0647532 0.997887 0.00510097 0.0481151 0.998829 
-0.0917291 0.000118322 0.995784 -0.152619 0.0391431 0.98751 0.119161 0.0950796 0.988312 
0.0493551 -0.219429 0.974379 -0.104833 0.0534847 0.993051 -0.107225 -0.170992 0.979421 
-0.119097 -0.00433159 0.992873 0.150411 0.109126 0.982582 0.140182 0.10247 0.984809 
0.062959 0.142565 0.987781 0.0538977 0.0519843 0.997192 -0.1671 0.0356695 0.985295 
-0.421105 0.0945542 0.90207 0.596978 -0.318381 0.736377 0.332644 -0.290068 0.897334 
0.152896 -0.0882887 0.984291 0.0400445 0.00612141 0.999179 -0.11306 -0.00455129 0.993578 
-0.0749095 0.112671 0.990805 -0.048115 0.12197 0.991367 -0.0717137 -0.149213 0.986201 
-0.106101 -0.0497607 0.993109 -0.0964738 -0.141871 0.985173 0.0467582 0.069491 0.996486 
0.161279 0.0574465 0.985236 0.188948 0.00234788 0.981984 0.0010157 -0.0155831 0.999878 
-0.12487 -0.0622923 0.990216 -0.201937 -0.227918 0.95251 -0.436508 -0.202202 0.876684 
0.507841 -0.33519 0.793565 0.268159 -0.174617 0.947417 0.104389 -0.178969 0.978301 
0.0235334 -0.0148449 0.999613 -0.023468 0.00852164 0.999688 -0.133489 0.0193427 0.990862 
-0.162335 -0.0363025 0.986068 -0.102047 -0.0483166 0.993606 -0.00864697 -0.0213113 0.999735 
0.0634103 0.0133678 0.997898 0.0954105 -0.0159906 0.99531 0.0589426 -0.134643 0.989139 
-0.000591145 -0.246929 0.969033 -0.140947 -0.209958 0.967497 -0.406432 -0.336728 0.849369 
0.431297 -0.498039 0.75229 0.202359 -0.306878 0.929987 0.0629528 -0.224071 0.972538 
-0.038327 -0.199605 0.979127 -0.0908982 -0.159524 0.983 -0.137908 -0.156193 0.978052 
-0.0936592 -0.128389 0.987291 -0.0271678 -0.134095 0.990596 0.0397661 -0.0995089 0.994242 
0.00821515 -0.226977 0.973866 -0.0209657 -0.3064 0.951672 -0.107165 -0.353466 0.929289 
0.16532 -0.537414 0.826955 0.025142 -0.482911 0.875308 -0.0846034 -0.436478 0.895728 
-0.114148 -0.438692 0.891358 -0.0632644 -0.41292 0.908567 0.0405235 -0.396255 0.917246 
-0.0201417 -0.395131 0.918404 -0.0311621 0.596899 0.801711 0.375794 0.536514 0.7556 
0.505438 0.731528 0.457601 0.136569 0.555618 0.820145 0.178736 0.667762 0.722598 
-0.0301403 0.596629 0.801951 0.0787593 0.553841 0.828889 0.0816448 0.616608 0.783025 
-0.0318527 0.596408 0.802049 -0.148573 0.481939 0.863517 -0.15073 0.601803 0.784292 
-0.133134 0.407701 0.903358 -0.153282 0.677548 0.719328 -0.125283 0.366763 0.92184 
-0.155729 0.741297 0.652861 -0.138803 0.78703 0.601097 -0.0163737 0.776941 0.62936 
0.10042 0.709183 0.697836 0.0971591 0.629233 0.77112 0.0701019 0.557576 0.827161 
-0.0728324 0.465517 0.882037 -0.216922 0.596103 0.77305 0.501934 0.457759 0.733839 
0.528293 0.314633 0.788615 0.704577 0.553001 0.444703 -0.129328 0.359266 0.924231 
-0.12859 0.374192 0.918393 -0.144269 0.416113 0.897795 -0.0794092 0.340454 0.936902 
-0.0606192 0.423759 0.903744 -0.0440689 0.229761 0.972249 0.0151092 0.389874 0.920744 
0.0242368 0.267243 0.963324 0.0845439 0.180346 0.979963 -0.0207176 0.283211 0.958834 
0.000712124 0.282166 0.959365 -0.00262454 0.339892 0.940461 -0.117842 0.376033 0.919083 
-0.188637 0.302613 0.93426 -0.33428 0.439566 0.83369 -0.448759 0.503543 0.738282 
0.52087 0.298505 0.799743 -0.0339338 0.188154 0.981553 0.0733071 0.173643 0.982076 
-0.0117108 0.137975 0.990366 -0.011174 0.153692 0.988056 -0.0196603 0.252248 0.967463 
-0.0366678 0.257399 0.965609 -0.0224978 0.251825 0.967511 -0.0221708 0.253648 0.967043 
-0.234719 0.334074 0.912853 -0.447627 0.228869 0.864436 -0.515589 0.434397 0.738557 
0.685836 0.0606495 0.725224 -0.444119 0.214395 0.869939 -0.68423 0.293199 0.667731 
0.575596 -0.0232296 0.817404 0.984821 -0.0614702 0.162324 -0.386719 0.0943021 0.917363 
-0.691615 0.111373 0.713628 0.680557 -0.056373 0.730524 -0.506003 0.0495257 0.861109 
-0.826112 -0.18153 0.533466 0.62247 -0.336235 0.706737 0.620489 -0.362973 0.695158 
-0.618761 -0.237307 0.74888 -0.501069 -0.401948 0.766399 0.554267 -0.355651 0.752529 
0.541885 -0.368235 0.755489 -0.252546 -0.58746 0.768838 -0.456413 -0.408121 0.790648 
-0.423542 -0.446904 0.787965 -0.631765 -0.607383 0.481621 0.501742 -0.535233 0.679545 
0.45945 -0.588158 0.665564 0.31687 -0.697939 0.642242 -0.142201 -0.45754 0.877745 
-0.0473468 -0.489057 0.870966 -0.248557 -0.585202 0.771853 -0.172945 -0.615445 0.768971 
-0.259941 -0.604041 0.753369 -0.521186 -0.767333 0.373585 0.299978 -0.699383 0.64875 
0.34906 -0.766389 0.539264 0.181636 -0.693236 0.697447 0.0183517 -0.681296 0.731778 
-0.060659 -0.627916 0.775914 -0.105659 -0.530247 0.841234 -0.0603737 -0.443588 0.894195 
0.0400299 -0.404872 0.913497 -0.131463 -0.462123 0.877017 -0.0201365 -0.476514 0.878936 
-0.153457 -0.483566 0.861751 -0.141324 -0.714278 0.685444 -0.287352 -0.882676 0.371902 
0.0462651 -0.975573 0.214746 -0.0157718 -0.958003 0.286325 -0.0163284 -0.954159 0.298855 
-0.0511787 -0.954965 0.29227 0.510996 0.776098 0.369534 0.230458 0.892062 0.388734 
0.0731548 0.894206 0.441638 0.109007 0.9885 0.104815 -0.0646987 0.901892 0.427089 
-0.118798 0.894079 0.431868 -0.174859 0.853944 0.490106 -0.163378 0.851352 0.498506 
-0.1319 0.829189 0.543183 -0.0156964 0.779753 0.62589 0.103249 0.734737 0.670448 
0.122361 0.705557 0.698009 0.0821744 0.684701 0.724177 -0.0779234 0.730888 0.678034 
-0.0533028 0.979275 0.195393 -0.278457 0.681671 0.676599 0.572612 0.742176 0.348266 
0.684633 0.673213 0.279397 -0.393872 0.684972 0.612926 -0.407685 0.646242 0.645107 
-0.444716 0.769491 0.458379 -0.464929 0.515427 0.719845 0.800052 0.544382 0.252121 
-0.471883 0.51745 0.713843 0.92498 0.295134 0.239391 -0.676382 0.43974 0.590877 
-0.708787 0.41415 0.571053 -0.803878 0.457251 0.380397 0.978221 0.117864 0.170858 
0.987523 0.042421 0.151656 -0.816867 0.277206 0.505851 0.990201 -0.0625563 0.124856 
0.988119 -0.102912 0.114152 0.995361 -0.0749606 0.0603047 -0.968256 -0.00201832 0.249951 
0.965925 -0.248859 0.0711166 -0.942351 -0.233357 0.239832 -0.904342 -0.398114 0.153853 
0.905432 -0.424223 0.0150718 0.835793 -0.54841 -0.0264025 -0.900327 -0.411008 0.143123 
0.820437 -0.571461 -0.0177824 0.660276 -0.744839 -0.0961783 -0.781755 -0.616672 0.0926001 
-0.720446 -0.689889 0.0707935 -0.686496 -0.654289 -0.317222 0.658076 -0.746546 -0.0980079 
0.555776 -0.826016 -0.0938688 -0.439749 -0.894579 0.0796805 -0.585874 -0.809054 0.0467253 
-0.549193 -0.834242 0.0492655 -0.538009 -0.767369 -0.348843 0.504786 -0.858418 -0.0911598 
0.437667 -0.897547 -0.0534499 0.470439 -0.743386 -0.475463 0.303363 -0.951823 -0.0447597 
0.159427 -0.98401 0.0794158 -0.168607 -0.969571 0.177494 -0.242935 -0.960873 0.133062 
-0.284129 -0.94973 0.131466 -0.390837 -0.919403 0.0441087 -0.349249 -0.936002 0.0438835 
-0.345707 -0.891411 -0.293041 0.152509 -0.984858 0.0824409 0.0587357 -0.991288 0.117893 
0.0763132 -0.988414 -0.131206 0.00161027 -0.983836 0.179064 0.00208528 -0.986405 -0.164318 
-0.0113131 -0.978011 0.208244 -0.0176627 -0.993975 -0.108178 -0.16252 -0.970334 0.178993 
-0.0517473 -0.978414 0.200068 -0.062068 -0.995374 -0.0733417 0.117015 0.990339 -0.0744075 
-0.0530144 0.979527 0.194205 0.535018 0.812764 -0.230586 0.154387 0.984332 -0.0851787 
0.297969 0.94692 -0.120655 -0.0744366 0.99684 -0.0277404 0.13315 0.973389 -0.186507 
-0.0851944 0.99605 -0.0250311 -0.110961 0.99364 -0.0191864 -0.142501 0.989559 -0.0216007 
-0.152333 0.987905 -0.0289419 -0.0705499 0.99747 0.00869147 0.0895234 0.992356 0.0849435 
0.225535 0.965517 0.130041 0.156413 0.979329 0.128256 -0.0486638 0.980015 0.192881 
0.0367741 0.986171 0.161597 -0.0553716 0.979231 0.195039 -0.0534717 0.981361 0.184583 
-0.284147 0.933816 0.217365 -0.376544 0.912719 0.158617 0.635146 0.731825 -0.247024 
0.770437 0.547594 -0.326447 0.585855 0.710398 -0.390011 -0.638685 0.764863 0.0840637 
-0.678665 0.730963 0.0714654 0.826969 0.459446 -0.324087 0.767119 0.43844 -0.468293 
-0.827577 0.561081 0.0174404 -0.884548 0.454098 -0.10663 0.917147 0.256335 -0.305178 
0.556201 0.191375 -0.808713 -0.913756 0.379679 -0.144548 -0.882148 0.349504 -0.315693 
0.936662 0.00955188 -0.350105 0.527719 -0.0265033 -0.849005 -0.982467 0.104434 -0.154441 
-0.739962 0.0218403 -0.672294 0.880466 -0.146281 -0.450978 0.583945 -0.184278 -0.790601 
-0.913832 -0.114127 -0.389727 -0.772055 -0.146236 -0.618503 0.794982 -0.240532 -0.556909 
0.610165 -0.235469 -0.756474 -0.871818 -0.309734 -0.37947 -0.817337 -0.42282 -0.391386 
-0.742339 -0.270058 -0.613189 0.645467 -0.449261 -0.617686 0.636476 -0.468145 -0.612975 
0.622664 -0.443469 -0.64469 0.464942 -0.397429 -0.791125 -0.779828 -0.477612 -0.404667 
-0.67977 -0.646484 -0.346369 -0.49576 -0.319844 -0.807417 0.586753 -0.511178 -0.628027 
0.575638 -0.520768 -0.63043 0.471582 -0.424611 -0.772862 0.338364 -0.392589 -0.85521 
0.206422 -0.302527 -0.93052 -0.676036 -0.650285 -0.346562 -0.510433 -0.707642 -0.48857 
-0.293851 -0.530715 -0.79498 0.505808 -0.582902 -0.635912 0.432181 -0.615017 -0.659526 
0.410781 -0.54947 -0.727559 0.428453 -0.64142 -0.636403 0.314432 -0.487591 -0.814486 
0.253662 -0.365417 -0.895615 -0.324048 -0.817896 -0.475436 -0.235974 -0.564769 -0.790792 
-0.496725 -0.718762 -0.486463 -0.404345 -0.752345 -0.520079 -0.365798 -0.613953 -0.699467 
0.419868 -0.672231 -0.609767 0.324522 -0.749493 -0.577014 0.312532 -0.635057 -0.706418 
0.220077 -0.821444 -0.526114 0.197399 -0.599916 -0.775328 0.0939227 -0.892689 -0.440778 
0.10844 -0.578599 -0.808372 0.00212171 -0.903763 -0.428028 -0.0113628 -0.555478 -0.831454 
-0.0249869 -0.895255 -0.444852 -0.0605891 -0.549786 -0.833105 -0.0692997 -0.87521 -0.478754 
-0.0725408 -0.569193 -0.818998 -0.143676 -0.853915 -0.500186 -0.10563 -0.627838 -0.771143 
-0.210824 -0.845882 -0.489936 -0.140135 -0.700487 -0.699772 -0.302691 -0.830883 -0.466916 
-0.257671 -0.841869 -0.474196 -0.226807 -0.77921 -0.584286 0.346371 0.681046 -0.645139 
0.15076 0.708189 -0.689739 0.0079081 0.813254 -0.581856 -0.117509 0.814399 -0.568284 
-0.164824 0.768684 -0.618028 -0.103 0.745161 -0.658883 0.0089185 0.794891 -0.606686 
0.130619 0.822384 -0.553736 0.19347 0.809234 -0.554716 0.199567 0.814905 -0.544153 
0.104052 0.914052 -0.392023 -0.0749901 0.876337 -0.475825 -0.302171 0.803338 -0.513168 
-0.480406 0.686138 -0.546282 0.463037 0.61295 -0.640225 0.547643 0.479441 -0.685729 
0.289572 0.49157 -0.821283 0.150711 0.502915 -0.851095 0.015183 0.522209 -0.852682 
-0.0688185 0.517172 -0.85311 -0.154461 0.631593 -0.759758 -0.0972498 0.661939 -0.743222 
0.0163053 0.742737 -0.669385 0.118509 0.734214 -0.668495 0.179461 0.603255 -0.777095 
0.130275 0.561128 -0.817413 -0.0224114 0.394023 -0.918827 -0.0581836 0.437252 -0.897455 
-0.230128 0.588799 -0.774827 -0.529985 0.624098 -0.574123 -0.430006 0.553267 -0.713436 
-0.558332 0.471661 -0.682496 0.55794 0.276128 -0.782596 0.431226 0.154966 -0.888836 
0.233387 0.252474 -0.939035 0.15539 0.157304 -0.975248 0.065078 0.141844 -0.987747 
-0.103816 0.137037 -0.985111 -0.082804 0.136438 -0.987182 -0.0193562 0.238671 -0.970908 
0.0457192 0.328888 -0.943262 0.0207415 0.273393 -0.961679 0.0608345 0.160842 -0.985104 
0.056155 0.0661757 -0.996227 0.042496 0.153669 -0.987208 -0.0585263 0.158049 -0.985695 
-0.159328 0.121639 -0.979703 -0.405498 0.369262 -0.836192 -0.569738 0.425415 -0.703151 
-0.506478 0.385417 -0.771319 0.426614 0.00292536 -0.904429 0.402578 -0.0771246 -0.912131 
0.316553 -0.0329813 -0.948001 0.0592661 0.0110311 -0.998181 -0.0126645 -0.116156 -0.99315 
-0.0423021 -0.0917078 -0.994887 -0.0493282 -0.0594186 -0.997014 0.0681256 0.0458906 -0.996621 
0.0656642 0.134423 -0.988746 -0.0690097 0.0641086 -0.995554 -0.0172502 -0.0327216 -0.999316 
0.112744 -0.072344 -0.990987 0.0371741 -0.0223299 -0.999059 -0.0604627 -0.0596747 -0.996385 
0.0481049 0.0123688 -0.998766 -0.655579 0.123212 -0.745007 -0.5171 0.0663088 -0.853352 
0.402507 -0.0243189 -0.915094 0.359425 -0.0414856 -0.932251 0.244495 -0.12335 -0.961773 
0.0738727 -0.1425 -0.987034 -0.0401763 -0.136986 -0.989758 -0.044955 -0.156696 -0.986623 
0.0491675 -0.126913 -0.990695 0.194753 0.0772366 -0.977807 0.0546398 -0.0433185 -0.997566 
-0.153604 -0.0185416 -0.987958 -0.076593 0.047785 -0.995917 0.0654164 -0.0470327 -0.996749 
0.0569558 -0.12504 -0.990515 -0.00941508 -0.0874956 -0.99612 -0.0223216 -0.0946082 -0.995264 
-0.260264 -0.235686 -0.93633 -0.508327 -0.0214866 -0.860896 -0.424658 -0.0217958 -0.905091 
0.36851 -0.0533094 -0.928094 0.326399 -0.0228663 -0.944955 0.197655 -0.127337 -0.971966 
0.0582765 -0.156777 -0.985913 -0.0200379 -0.117634 -0.992855 -0.0298221 -0.0299826 -0.999105 
0.167141 0.0696621 -0.983469 0.16246 -0.0104675 -0.98666 -0.0322651 -0.0750368 -0.996659 
0.0286477 -0.0970973 -0.994862 -0.0460781 0.0248274 -0.998629 -0.0602616 0.0101288 -0.998131 
-0.00369348 -0.0533 -0.998572 -0.0306724 -0.0799724 -0.996325 -0.0983413 -0.135752 -0.98585 
-0.209303 -0.20869 -0.955322 -0.549275 -0.127301 -0.825889 -0.401075 -0.0981754 -0.910769 
0.409033 -0.18685 -0.893185 0.402769 -0.266635 -0.875604 0.358845 -0.144302 -0.922175 
0.160426 -0.233589 -0.95901 0.0911664 -0.131675 -0.987092 0.0869082 -0.0700993 -0.993747 
0.14315 0.0431467 -0.98876 0.0772606 0.138599 -0.98733 0.0428198 -0.0963423 -0.994427 
-0.0263864 0.00824919 -0.999618 -0.0538981 -0.0127147 -0.998465 0.0256957 -0.0671161 -0.997414 
-0.0119613 -0.000863112 -0.999928 -0.0331608 -0.0439891 -0.998482 -0.0932696 -0.0903784 -0.99153 
-0.158207 -0.144229 -0.976815 -0.236004 -0.224064 -0.945567 -0.443032 -0.308991 -0.841574 
-0.425551 -0.314738 -0.848438 -0.425088 -0.314038 -0.848929 0.270675 -0.228921 -0.935056 
0.267534 -0.227511 -0.936303 0.264036 -0.222431 -0.938515 0.204395 -0.296143 -0.933018 
0.189349 -0.192336 -0.962888 0.151725 -0.120073 -0.981102 0.181761 -0.0534439 -0.981889 
0.0431176 -0.0529269 -0.997667 0.0103864 -0.0483881 -0.998775 0.055779 -0.13267 -0.98959 
-0.0480029 -0.052913 -0.997445 -0.0306615 -0.0795784 -0.996357 -0.0377035 -0.0812368 -0.995981 
-0.0926393 -0.10314 -0.990343 -0.137883 -0.183609 -0.973281 -0.230777 -0.232023 -0.944938 
-0.358183 -0.259195 -0.896952 -0.341016 -0.292375 -0.893435 -0.351995 -0.255912 -0.900338 
0.206527 -0.297654 -0.932067 0.24218 -0.325134 -0.914132 0.229562 -0.244262 -0.942145 
0.20876 -0.186226 -0.960072 0.0798859 -0.183214 -0.979822 -0.0251149 -0.137717 -0.990153 
-0.0276049 -0.228475 -0.973158 -0.0150294 -0.252147 -0.967572 -0.00679158 -0.225917 -0.974123 
-0.0365331 -0.247719 -0.968143 -0.129497 -0.270105 -0.954083 -0.224424 -0.473686 -0.851619 
-0.213723 -0.302761 -0.928794 -0.28224 -0.378889 -0.881353 -0.282303 -0.378869 -0.881342 
-0.282245 -0.378807 -0.881387 0.244838 -0.360327 -0.900122 0.225988 -0.442011 -0.868076 
0.237517 -0.358559 -0.902785 0.103729 -0.518612 -0.848694 0.0854848 -0.344979 -0.934709 
-0.0169084 -0.514072 -0.85758 -0.0431244 -0.339658 -0.93956 -0.0597814 -0.47028 -0.88049 
-0.058732 -0.34832 -0.935534 -0.0540553 -0.463071 -0.884671 -0.0305688 -0.367451 -0.92954 
-0.0657566 -0.481786 -0.873818 -0.0338018 -0.386006 -0.921877 -0.0835086 -0.512745 -0.85447 
-0.0757904 -0.449602 -0.890008 -0.182709 -0.482975 -0.85636 -0.164325 -0.484171 -0.859404 
-0.158823 -0.449312 -0.879144 -0.367208 0.145933 -0.91862 -0.261872 0.0960908 -0.960307 
-0.371939 0.115243 -0.921076 -0.348669 0.0456483 -0.936134 
