# vtk DataFile Version 4.2
vtk output
ASCII
DATASET POLYDATA
POINTS 562 float
-24.322 -25.0042 -18.858 -8.63082 -25.0042 -18.7043 -40.0131 -17.1586 -18.7298 
-32.1676 -17.1586 -18.8761 -32.1676 -40.6953 -11.0336 -24.322 -40.6953 -14.0972 
-16.4764 -40.6953 -15.6663 -8.63082 -40.6953 -16.2405 -0.785238 -40.6953 -15.7533 
7.06034 -40.6953 -14.9099 14.9059 -40.6953 -13.7483 22.7515 -40.6953 -12.62 
30.5971 -40.6953 -12.0701 -40.0131 -32.8498 -13.5405 -32.1676 -32.8498 -16.2339 
-24.322 -26.1213 -18.6282 -24.322 -32.8498 -17.2782 -16.4764 -32.8498 -18.095 
-8.63082 -28.6811 -18.6282 -8.63082 -32.8498 -18.5384 -0.785238 -32.8498 -17.9267 
7.06034 -32.8498 -16.7015 14.9059 -32.8498 -16.0293 22.7515 -32.8498 -16.5685 
30.5971 -32.8498 -15.1998 38.4427 -32.8498 -14.0617 46.2882 -32.8498 -10.87 
-47.8587 -25.0042 -12.7893 -40.0131 -17.5919 -18.6282 -40.0131 -25.0042 -16.4992 
-26.1132 -25.0042 -18.6282 -32.1676 -19.0689 -18.6282 -32.1676 -25.0042 -17.9212 
-20.9215 -25.0042 -18.6282 -24.322 -21.6249 -18.6282 -10.2402 -25.0042 -18.6282 
-16.4764 -25.0042 -18.3345 -8.18148 -25.0042 -18.6282 -8.63082 -24.6535 -18.6282 
-0.785238 -25.0042 -17.369 7.06034 -25.0042 -16.5247 14.9059 -25.0042 -16.749 
22.7515 -25.0042 -17.3342 30.5971 -25.0042 -17.1163 38.4427 -25.0042 -15.9363 
46.2882 -25.0042 -14.2351 -40.2834 -17.1586 -18.6282 -47.8587 -17.1586 -15.1775 
-40.0131 -15.4937 -18.6282 -28.6253 -17.1586 -18.6282 -32.1676 -9.86814 -18.6282 
-24.322 -17.1586 -18.331 -16.4764 -17.1586 -17.4658 -8.63082 -17.1586 -16.9964 
-0.785238 -17.1586 -16.2759 7.06034 -17.1586 -15.3616 14.9059 -17.1586 -16.2629 
22.7515 -17.1586 -16.9753 30.5971 -17.1586 -17.3676 38.4427 -17.1586 -17.2646 
46.2882 -17.1586 -15.7608 54.1338 -17.1586 -13.2228 -55.7043 -9.31303 -11.9763 
-47.8587 -9.31303 -16.6118 -40.0131 -9.31303 -18.2071 -32.1676 -9.31303 -18.6096 
-24.322 -9.31303 -18.1216 -16.4764 -9.31303 -16.191 -8.63082 -9.31303 -16.0276 
-0.785238 -9.31303 -16.2067 7.06034 -9.31303 -15.2472 14.9059 -9.31303 -15.4141 
22.7515 -9.31303 -16.1237 30.5971 -9.31303 -16.6414 38.4427 -9.31303 -17.1992 
46.2882 -9.31303 -15.8361 54.1338 -9.31303 -13.9681 -55.7043 -1.46745 -13.3676 
-47.8587 -1.46745 -16.737 -40.0131 -1.46745 -18.2021 -32.1676 -1.46745 -18.2802 
-24.322 -1.46745 -17.2468 -16.4764 -1.46745 -16.1248 -8.63082 -1.46745 -18.2132 
-0.785238 -1.46745 -12.0104 7.06034 -1.46745 -15.7039 14.9059 -1.46745 -15.016 
22.7515 -1.46745 -15.0868 30.5971 -1.46745 -16.0733 38.4427 -1.46745 -16.6713 
46.2882 -1.46745 -15.6486 54.1338 -1.46745 -13.7175 -55.7043 6.37813 -13.064 
-47.8587 6.37813 -16.3806 -40.0131 6.37813 -17.8222 -32.1676 6.37813 -18.1522 
-24.322 6.37813 -17.0454 -16.4764 6.37813 -15.332 -8.63082 6.37813 -16.3695 
-0.785238 6.37813 -13.7449 7.06034 6.37813 -16.5015 14.9059 6.37813 -16.4414 
22.7515 6.37813 -14.8928 30.5971 6.37813 -15.5583 38.4427 6.37813 -15.8679 
46.2882 6.37813 -15.4633 54.1338 6.37813 -12.8306 -55.7043 14.2237 -13.0391 
-47.8587 14.2237 -15.6025 -40.0131 14.2237 -17.5301 -32.1676 14.2237 -17.2181 
-24.322 14.2237 -16.448 -16.4764 14.2237 -15.1469 -8.63082 14.2237 -14.4131 
-0.785238 14.2237 -13.6007 7.06034 14.2237 -14.0111 14.9059 14.2237 -14.4263 
22.7515 14.2237 -14.9539 30.5971 14.2237 -14.9103 38.4427 14.2237 -14.844 
46.2882 14.2237 -14.5019 54.1338 14.2237 -12.4036 -47.8587 22.0693 -13.593 
-40.0131 22.0693 -15.4311 -32.1676 22.0693 -16.3876 -24.322 22.0693 -16.2286 
-16.4764 22.0693 -15.563 -8.63082 22.0693 -14.9552 -0.785238 22.0693 -14.0879 
7.06034 22.0693 -13.3268 14.9059 22.0693 -13.5238 22.7515 22.0693 -13.954 
30.5971 22.0693 -13.8518 38.4427 22.0693 -13.6185 46.2882 22.0693 -11.5293 
-40.0131 29.9149 -13.0211 -32.1676 29.9149 -14.4202 -24.322 29.9149 -15.4412 
-16.4764 29.9149 -15.1262 -8.63082 29.9149 -14.6396 -0.785238 29.9149 -13.8291 
7.06034 29.9149 -13.2831 14.9059 29.9149 -12.3656 22.7515 29.9149 -12.5273 
30.5971 29.9149 -11.8082 -24.322 37.7604 -12.5876 -16.4764 37.7604 -13.4147 
-8.63082 37.7604 -12.7149 -0.785238 37.7604 -11.9205 7.06034 37.7604 -11.2638 
-32.1676 -40.9148 -10.7826 -24.322 -44.2528 -10.7826 -16.4764 -46.456 -10.7826 
-8.63082 -46.7244 -10.7826 -8.63082 -48.5409 -4.56029 -0.785238 -46.3146 -10.7826 
7.06034 -46.0707 -10.7826 14.9059 -44.5415 -10.7826 22.7515 -42.866 -10.7826 
30.5971 -41.8351 -10.7826 -32.6157 -40.6953 -10.7826 -40.0131 -36.0882 -10.7826 
33.1375 -40.6953 -10.7826 38.4427 -36.9396 -10.7826 46.2882 -32.959 -10.7826 
-43.6622 -32.8498 -10.7826 -47.8587 -28.1748 -10.7826 -47.8587 -32.8498 -3.91456 
46.4088 -32.8498 -10.7826 -50.1594 -25.0042 -10.7826 53.7377 -25.0042 -10.7826 
54.1338 -24.4552 -10.7826 54.1338 -25.0042 -10.4073 -54.6316 -17.1586 -10.7826 
-55.7043 -13.9133 -10.7826 -55.7043 -17.1586 -9.07202 57.4406 -17.1586 -10.7826 
61.9794 -17.1586 -5.05867 -56.9397 -9.31303 -10.7826 60.4495 -9.31303 -10.7826 
61.9794 -9.31303 -9.51047 -58.6236 -1.46745 -10.7826 -63.5499 -1.46745 -3.11669 
60.3886 -1.46745 -10.7826 61.9794 -1.46745 -9.67299 -58.4306 6.37813 -10.7826 
-63.5499 6.37813 -3.05903 58.9988 6.37813 -10.7826 61.9794 6.37813 -8.85254 
-58.4853 14.2237 -10.7826 -55.7043 19.4331 -10.7826 56.6866 14.2237 -10.7826 
54.1338 18.5688 -10.7826 61.9794 14.2237 -4.90818 -53.0871 22.0693 -10.7826 
-55.7043 22.0693 -8.39373 -47.8587 29.0122 -10.7826 38.4427 28.8411 -10.7826 
48.7558 22.0693 -10.7826 46.2882 24.3387 -10.7826 54.1338 22.0693 -8.8575 
-46.7439 29.9149 -10.7826 -47.8587 29.9149 -10.123 -40.0131 33.7047 -10.7826 
-32.1676 37.6116 -10.7826 14.9059 34.8153 -10.7826 22.7515 33.6407 -10.7826 
35.7399 29.9149 -10.7826 30.5971 32.4807 -10.7826 38.4427 29.9149 -10.2832 
46.2882 29.9149 -8.73408 -40.0131 37.7604 -6.48759 -31.875 37.7604 -10.7826 
-32.1676 37.7604 -10.6838 -24.322 40.7977 -10.7826 -16.4764 42.9747 -10.7826 
-8.63082 41.3123 -10.7826 -0.785238 40.6558 -10.7826 9.73871 37.7604 -10.7826 
7.06034 38.7692 -10.7826 14.9059 37.7604 -9.74573 22.7515 37.7604 -8.35457 
30.5971 37.7604 -7.95138 38.4427 37.7604 -5.01869 -24.322 45.606 -4.75031 
-16.4764 45.606 -8.07463 -8.63082 45.606 -7.79931 -0.785238 45.606 -7.8979 
7.06034 45.606 -5.8568 14.9059 45.606 -3.35474 -8.63082 -48.8936 -2.93706 
-32.1676 -44.3519 -2.93706 -24.322 -46.9276 -2.93706 -12.6703 -48.5409 -2.93706 
-16.4764 -48.2086 -2.93706 -3.71616 -48.5409 -2.93706 -8.63082 -48.5409 -1.75576 
-0.785238 -48.3311 -2.93706 7.06034 -47.7332 -2.93706 14.9059 -47.1015 -2.93706 
22.7515 -45.7987 -2.93706 30.5971 -43.6733 -2.93706 -47.8587 -33.2491 -2.93706 
-39.1257 -40.6953 -2.93706 -40.0131 -40.1434 -2.93706 37.5942 -40.6953 -2.93706 
30.5971 -40.6953 4.84174 38.4427 -40.3114 -2.93706 46.2882 -35.8253 -2.93706 
-48.2321 -32.8498 -2.93706 -47.8587 -32.8498 -1.16311 50.2172 -32.8498 -2.93706 
46.2882 -32.8498 3.82093 54.1338 -29.3871 -2.93706 -53.8852 -25.0042 -2.93706 
-55.7043 -21.9221 -2.93706 57.963 -25.0042 -2.93706 61.9794 -19.0781 -2.93706 
-58.2201 -17.1586 -2.93706 63.0623 -17.1586 -2.93706 61.9794 -17.1586 0.59522 
-61.5436 -9.31303 -2.93706 -63.5499 -1.76989 -2.93706 65.5615 -9.31303 -2.93706 
-63.6303 -1.46745 -2.93706 -63.5499 -1.46745 -2.33391 66.1588 -1.46745 -2.93706 
-63.6037 6.37813 -2.93706 -63.5499 6.78904 -2.93706 -63.5499 6.37813 -2.38243 
65.6857 6.37813 -2.93706 -62.4694 14.2237 -2.93706 63.3071 14.2237 -2.93706 
61.9794 17.3922 -2.93706 -58.5886 22.0693 -2.93706 -55.7043 25.9301 -2.93706 
59.6803 22.0693 -2.93706 54.1338 29.7984 -2.93706 -52.1385 29.9149 -2.93706 
-47.8587 33.8634 -2.93706 54.0215 29.9149 -2.93706 46.2882 35.9069 -2.93706 
54.1338 29.9149 -1.66937 -42.617 37.7604 -2.93706 -40.0131 39.5415 -2.93706 
-32.1676 43.6741 -2.93706 22.7515 43.8501 -2.93706 30.5971 41.6318 -2.93706 
42.4489 37.7604 -2.93706 38.4427 39.4828 -2.93706 -26.8651 45.606 -2.93706 
-24.322 46.474 -2.93706 -16.4764 48.2461 -2.93706 -8.63082 49.2367 -2.93706 
-0.785238 48.8353 -2.93706 7.06034 47.6368 -2.93706 16.2892 45.606 -2.93706 
14.9059 45.8982 -2.93706 22.7515 45.606 3.40918 -32.1676 -42.2332 4.90852 
-24.322 -44.8813 4.90852 -16.4764 -45.9789 4.90852 -8.63082 -45.9629 4.90852 
-0.785238 -44.7794 4.90852 7.06034 -43.9595 4.90852 14.9059 -43.3461 4.90852 
22.7515 -42.0679 4.90852 -35.2941 -40.6953 4.90852 -40.0131 -37.7474 4.90852 
-32.1676 -40.6953 7.16859 -24.322 -40.6953 9.9789 -16.4764 -40.6953 10.9594 
-8.63082 -40.6953 10.0973 -0.785238 -40.6953 8.7969 7.06034 -40.6953 8.01388 
14.9059 -40.6953 7.48559 30.4113 -40.6953 4.90852 22.7515 -40.6953 6.2632 
30.5971 -40.6535 4.90852 38.4427 -36.0174 4.90852 -45.8916 -32.8498 4.90852 
-47.8587 -30.7678 4.90852 -40.0131 -32.8498 9.60201 7.06034 -32.8498 12.6411 
14.9059 -32.8498 12.3973 22.7515 -32.8498 11.9907 30.5971 -32.8498 10.0603 
45.0339 -32.8498 4.90852 38.4427 -32.8498 8.06705 46.2882 -32.0218 4.90852 
54.1338 -25.4279 4.90852 -52.0547 -25.0042 4.90852 -55.7043 -19.932 4.90852 
-47.8587 -25.0042 9.56788 38.4427 -25.0042 11.647 46.2882 -25.0042 8.87072 
54.5204 -25.0042 4.90852 54.1338 -25.0042 5.24922 -57.2369 -17.1586 4.90852 
-55.7043 -17.1586 7.43358 46.2882 -17.1586 12.1438 59.7312 -17.1586 4.90852 
54.1338 -17.1586 9.28567 61.9794 -12.9471 4.90852 -60.825 -9.31303 4.90852 
-55.7043 -9.31303 11.5649 54.1338 -9.31303 11.0568 63.1866 -9.31303 4.90852 
61.9794 -9.31303 6.2385 -62.4735 -1.46745 4.90852 54.1338 -1.46745 11.937 
64.6626 -1.46745 4.90852 61.9794 -1.46745 7.87297 -62.6858 6.37813 4.90852 
-55.7043 6.37813 12.5016 54.1338 6.37813 12.4197 64.6301 6.37813 4.90852 
61.9794 6.37813 8.50865 -60.7819 14.2237 4.90852 -55.7043 14.2237 11.6125 
54.1338 14.2237 11.2227 62.4478 14.2237 4.90852 61.9794 16.0539 4.90852 
61.9794 14.2237 5.49967 -57.2989 22.0693 4.90852 -55.7043 24.1785 4.90852 
-55.7043 22.0693 7.02495 -47.8587 22.0693 11.6558 59.6623 22.0693 4.90852 
54.1338 22.0693 11.0599 -50.5618 29.9149 4.90852 -47.8587 32.4658 4.90852 
-47.8587 29.9149 7.8165 -40.0131 29.9149 11.6426 46.2882 37.0854 4.90852 
46.2882 29.9149 10.7177 54.5633 29.9149 4.90852 54.1338 30.3871 4.90852 
[...]
POINT_DATA 562
SCALARS ImageScalars float
LOOKUP_TABLE default
0 0 0 0 0 0 0 0 0 
0 0 0 0 0 0 0 0 0 
0 0 0 0 0 0 0 0 0 
0 0 0 0 0 0 0 0 0 
0 0 0 0 0 0 0 0 0 
0 0 0 0 0 0 0 0 0 
0 0 0 0 0 0 0 0 0 
0 0 0 0 0 0 0 0 0 
0 0 0 0 0 0 0 0 0 
0 0 0 0 0 0 0 0 0 
0 0 0 0 0 0 0 0 0 
0 0 0 0 0 0 0 0 0 
0 0 0 0 0 0 0 0 0 
0 0 0 0 0 0 0 0 0 
0 0 0 0 0 0 0 0 0 
0 0 0 0 0 0 0 0 0 
0 0 0 0 0 0 0 0 0 
0 0 0 0 0 0 0 0 0 
0 0 0 0 0 0 0 0 0 
0 0 0 0 0 0 0 0 0 
0 0 0 0 0 0 0 0 0 
0 0 0 0 0 0 0 0 0 
0 0 0 0 0 0 0 0 0 
0 0 0 0 0 0 0 0 0 
0 0 0 0 0 0 0 0 0 
0 0 0 0 0 0 0 0 0 
0 0 0 0 0 0 0 0 0 
0 0 0 0 0 0 0 0 0 
0 0 0 0 0 0 0 0 0 
0 0 0 0 0 0 0 0 0 
0 0 0 0 0 0 0 0 0 
0 0 0 0 0 0 0 0 0 
0 0 0 0 0 0 0 0 0 
0 0 0 0 0 0 0 0 0 
0 0 0 0 0 0 0 0 0 
0 0 0 0 0 0 0 0 0 
0 0 0 0 0 0 0 0 0 
0 0 0 0 0 0 0 0 0 
0 0 0 0 0 0 0 0 0 
0 0 0 0 0 0 0 0 0 
0 0 0 0 0 0 0 0 0 
0 0 0 0 0 0 0 0 0 
0 0 0 0 0 0 0 0 0 
0 0 0 0 0 0 0 0 0 
0 0 0 0 0 0 0 0 0 
0 0 0 0 0 0 0 0 0 
0 0 0 0 0 0 0 0 0 
0 0 0 0 0 0 0 0 0 
0 0 0 0 0 0 0 0 0 
0 0 0 0 0 0 0 0 0 
0 0 0 0 0 0 0 0 0 
0 0 0 0 0 0 0 0 0 
0 0 0 0 0 0 0 0 0 
0 0 0 0 0 0 0 0 0 
0 0 0 0 0 0 0 0 0 
0 0 0 0 0 0 0 0 0 
0 0 0 0 0 0 0 0 0 
0 0 0 0 0 0 0 0 0 
0 0 0 0 0 0 0 0 0 
0 0 0 0 0 0 0 0 0 
0 0 0 0 0 0 0 0 0 
0 0 0 0 0 0 0 0 0 
0 0 0 0 
NORMALS Normals float
0.0299428 0.0682471 0.997219 -0.0621808 -0.100529 0.992989 0.208947 0.0923406 0.973558 
-0.0247007 0.0489885 0.998494 0.375645 0.725458 0.576715 0.231863 0.588769 0.774332 
0.125417 0.484117 0.865969 0.00768513 0.455541 0.890182 -0.0832166 0.452425 0.887911 
-0.126832 0.445446 0.886279 -0.147774 0.50123 0.852603 -0.104707 0.618827 0.778517 
-0.260812 0.704786 0.659738 0.452663 0.504582 0.735182 0.194658 0.348938 0.916706 
0.0407206 0.0953252 0.994613 0.10712 0.261269 0.959304 0.0809723 0.156388 0.984371 
-0.0384827 0.00906003 0.999218 -0.0104477 0.134749 0.990825 -0.117334 0.0808311 0.989797 
-0.118451 0.0985857 0.988054 -0.011253 0.181403 0.983344 -0.0488579 0.290613 0.955592 
-0.140444 0.317565 0.937778 -0.272136 0.45752 0.846533 -0.506114 0.575429 0.642441 
0.573961 0.400088 0.714492 0.21063 0.100265 0.97241 0.279284 0.267532 0.922186 
0.0544448 0.086955 0.994723 0.0135752 0.0725889 0.99727 0.13433 0.149038 0.979665 
0.0128636 0.021081 0.999695 -0.0213927 0.0194657 0.999582 -0.0514424 -0.0879174 0.994799 
-0.0102942 -0.0395958 0.999163 -0.0671546 -0.101046 0.992613 -0.0631921 -0.103314 0.992639 
-0.136444 -0.104977 0.98507 -0.0392609 -0.0818918 0.995868 0.051193 0.0142209 0.998588 
0.0225128 0.0205246 0.999536 -0.0805794 0.121139 0.98936 -0.175331 0.173475 0.969105 
-0.325388 0.31103 0.892963 0.216906 0.0943982 0.971618 0.462991 0.204311 0.862495 
0.193465 0.0667447 0.978834 -0.0545114 0.00590767 0.998496 -0.00532671 -0.0332203 0.999434 
-0.0880156 -0.0450783 0.995099 -0.0847832 -0.136132 0.987056 -0.0754249 -0.160563 0.98414 
-0.102245 -0.0739471 0.992007 -0.000347114 -0.0827497 0.99657 0.101328 -0.0861782 0.991114 
0.069055 -0.0764555 0.994679 0.0190051 -0.0295523 0.999383 -0.117416 0.07709 0.990086 
-0.21474 0.0805539 0.973344 -0.465127 0.200124 0.862327 0.670212 0.173275 0.721659 
0.318709 0.0894523 0.943622 0.129471 -0.0316993 0.991076 -0.00373258 -0.0395958 0.999209 
-0.156719 -0.070228 0.985143 -0.126517 -0.0855615 0.988268 -1.37273e-05 0.0602153 0.998185 
-0.0503321 -0.162537 0.985418 -0.0467101 0.0156465 0.998786 0.0555122 -0.077718 0.995429 
0.0784819 -0.120594 0.989595 0.0686213 -0.0815874 0.994301 -0.0507155 -0.0377573 0.997999 
-0.182608 -0.0063223 0.983165 -0.29603 0.0272478 0.95479 0.537556 0.0585698 0.841192 
0.264615 -0.0138259 0.964255 0.091483 -0.0244476 0.995506 -0.0605235 -0.0290807 0.997743 
-0.139881 -0.0659983 0.987966 0.041673 -0.0543487 0.997652 -0.0867372 0.0399514 0.99543 
-0.273229 -0.253692 0.927894 0.108705 0.0880561 0.990166 -0.0310378 0.0597738 0.997729 
0.0677434 -0.0792459 0.994551 0.0998093 -0.0685242 0.992644 -0.0265952 -0.0843248 0.996083 
-0.170264 -0.0243181 0.985098 -0.27953 -0.0660502 0.957862 0.528577 -0.0176441 0.848702 
0.261519 -0.0730539 0.96243 0.107098 -0.0414737 0.993383 -0.0498048 -0.068084 0.996436 
-0.177673 -0.0503754 0.982799 -0.057798 -0.0633802 0.996314 -0.0899433 -0.246745 0.964898 
0.0234284 0.064803 0.997623 0.176096 -0.129505 0.975817 -0.111509 -0.0500726 0.992501 
-0.0449435 -0.00847412 0.998954 0.0617644 -0.0737195 0.995365 -0.00875255 -0.11525 0.993298 
-0.165882 -0.0616309 0.984218 -0.33838 -0.0832549 0.937319 0.51908 -0.207749 0.829094 
0.274944 -0.147997 0.950002 0.110161 -0.150104 0.982514 -0.0680281 -0.114671 0.991072 
-0.130579 -0.0515015 0.990099 -0.129531 0.0149534 0.991463 -0.0993111 -0.0644012 0.99297 
-0.0254635 0.0229386 0.999413 0.0550534 -0.187486 0.980723 0.0594238 -0.174697 0.982827 
0.0309203 -0.0641028 0.997464 -0.00688354 -0.10672 0.994265 -0.0230066 -0.145781 0.989049 
-0.174908 -0.243414 0.954022 -0.414793 -0.175653 0.892801 0.364803 -0.339952 0.866805 
0.158257 -0.250036 0.955216 0.0463054 -0.167037 0.984863 -0.052996 -0.0609089 0.996735 
-0.0805301 -0.00119381 0.996751 -0.0938052 0.0134417 0.9955 -0.103038 0.0147033 0.994569 
-0.0359335 -0.043729 0.998397 0.0415818 -0.128093 0.99089 0.0203172 -0.153268 0.987976 
-0.022367 -0.180372 0.983344 -0.131259 -0.259987 0.956649 -0.259635 -0.298578 0.918391 
0.254153 -0.423335 0.869594 0.131497 -0.316597 0.939401 0.043276 -0.231998 0.971753 
-0.0491307 -0.138084 0.989201 -0.0816683 -0.133451 0.987685 -0.0873539 -0.129374 0.987741 
-0.0892385 -0.127537 0.987811 -0.0511052 -0.220108 0.974136 -0.0289913 -0.315792 0.948386 
-0.143465 -0.330508 0.932836 0.149643 -0.444295 0.883294 0.00887704 -0.347839 0.937512 
-0.093508 -0.359851 0.928312 -0.0904199 -0.310761 0.946178 -0.123624 -0.367798 0.921652 
0.378845 0.734354 0.563206 0.279196 0.776123 0.565404 0.133853 0.857623 0.496555 
-0.0067405 0.85938 0.511294 0.00588221 0.998642 0.0517565 -0.035546 0.853756 0.519459 
-0.092494 0.834786 0.54275 -0.169883 0.753382 0.63526 -0.152691 0.738215 0.657057 
-0.280251 0.773115 0.568993 0.386219 0.730767 0.562863 0.506076 0.637147 0.581317 
-0.331749 0.74879 0.573808 -0.379811 0.665924 0.642098 -0.508569 0.579385 0.636923 
0.57508 0.575264 0.581682 0.630319 0.500479 0.59348 0.732381 0.669369 0.124753 
-0.511021 0.578393 0.63586 0.663514 0.452628 0.595716 -0.564284 0.45373 0.68972 
-0.574139 0.43844 0.691473 -0.589949 0.4718 0.655259 0.715165 0.297066 0.632685 
0.728389 0.242563 0.640791 0.795183 0.338234 0.503271 -0.647566 0.259582 0.716432 
-0.888003 0.406259 0.215417 0.72691 0.184691 0.661431 -0.683159 0.137968 0.717119 
-0.809141 0.174452 0.561121 0.719691 0.0784179 0.689852 0.978624 0.128344 0.160697 
-0.662959 -0.0398159 0.747596 -0.786132 -0.029048 0.617376 0.667709 -0.00608804 0.744398 
0.982488 -0.0658593 0.1743 -0.596603 -0.159444 0.786538 -0.78643 -0.227247 0.574358 
0.696072 -0.231097 0.679763 0.605094 -0.395844 0.690774 -0.517921 -0.19105 0.833821 
-0.368289 -0.390974 0.843506 -0.861255 -0.314443 0.399205 0.534521 -0.449761 0.715543 
0.683081 -0.519514 0.513327 0.472744 -0.517018 0.713587 -0.156564 -0.421086 0.893406 
-0.282711 -0.378196 0.8815 -0.301838 -0.364696 0.880846 -0.415607 -0.567509 0.710777 
0.457047 -0.526589 0.716807 0.503864 -0.561193 0.656646 0.331594 -0.55456 0.763223 
0.244649 -0.572412 0.782618 -0.121083 -0.35209 0.928101 -0.04875 -0.428412 0.902268 
-0.157573 -0.406994 0.899737 -0.150289 -0.415665 0.897015 -0.16236 -0.454738 0.875701 
-0.405442 -0.571197 0.713688 0.492427 -0.770732 0.404337 0.243696 -0.572015 0.783206 
0.249008 -0.581212 0.774718 0.203576 -0.57215 0.794481 0.0259717 -0.608913 0.792812 
-0.0715509 -0.497749 0.864365 -0.0803664 -0.429094 0.899678 -0.13836 -0.389075 0.910756 
-0.135645 -0.406695 0.903438 -0.16743 -0.451186 0.876583 -0.0996983 -0.584035 0.805582 
-0.166674 -0.660098 0.732455 -0.327511 -0.756501 0.566076 0.276403 -0.904555 0.324624 
0.0886372 -0.816271 0.570828 -0.00528268 -0.758495 0.651658 -0.0874077 -0.734535 0.672918 
-0.20005 -0.78961 0.580082 -0.213814 -0.863186 0.457377 0.00771532 0.999106 -0.0415708 
0.399485 0.915287 0.0515901 0.22827 0.973348 0.022053 0.0666115 0.996936 -0.0409958 
0.122243 0.991737 -0.0389155 -0.0431397 0.997049 -0.0635042 0.000839929 0.994334 -0.1063 
-0.0734321 0.99434 -0.0767872 -0.0782243 0.991517 -0.103803 -0.124491 0.990162 -0.0638803 
-0.212678 0.976438 -0.0365697 -0.331601 0.941361 -0.0622996 0.732353 0.677538 0.067835 
0.552936 0.831627 0.0515633 0.574315 0.817017 0.051432 -0.420367 0.905893 -0.0514796 
-0.265247 0.770021 -0.580268 -0.43152 0.900813 -0.048239 -0.566811 0.822852 -0.0404889 
0.739331 0.669844 0.0685483 0.735099 0.67733 -0.0292193 -0.630138 0.776325 -0.0157098 
-0.494896 0.682473 -0.537874 -0.707027 0.707101 0.0110176 0.832877 0.54897 0.0703379 
0.859016 0.504184 0.0888284 -0.777502 0.628288 0.0273133 -0.885261 0.458274 0.0793577 
0.895351 0.430353 0.114648 -0.911075 0.402341 0.0897977 -0.875223 0.438324 -0.204588 
0.932891 0.315523 0.173664 0.978628 0.135916 0.154319 -0.974996 0.199604 0.0976761 
0.979724 0.128587 0.153644 0.984603 0.12775 0.119322 -0.982735 0.00882057 0.18481 
0.983546 -0.0658156 0.16824 0.98278 -0.0775446 0.16772 0.988514 -0.0667231 0.135605 
-0.957386 -0.18947 0.217975 0.942263 -0.307379 0.132887 -0.904796 -0.346589 0.247429 
-0.879596 -0.422353 0.218927 0.839866 -0.522721 0.146244 0.781271 -0.608692 0.138238 
-0.832969 -0.520252 0.188417 -0.669874 -0.647591 0.363172 0.698478 -0.703724 0.130002 
0.620547 -0.773363 0.129736 -0.667151 -0.649743 0.36434 -0.481672 -0.779376 0.400705 
-0.697985 -0.662082 0.272881 0.563262 -0.813404 0.145295 0.531492 -0.833101 0.15316 
0.405754 -0.893933 0.190388 -0.230533 -0.839264 0.492433 -0.244259 -0.858504 0.450897 
-0.399244 -0.808161 0.432989 -0.31996 -0.840754 0.436758 0.320593 -0.925354 0.202336 
0.276079 -0.937502 0.211827 0.175791 -0.957152 0.230126 0.0389414 -0.94782 0.31642 
-0.103309 -0.933252 0.344048 -0.19016 -0.894173 0.405331 -0.216804 -0.873009 0.436865 
-0.212459 -0.878159 0.428601 -0.240261 -0.969508 -0.0482518 0.362516 0.836929 -0.410039 
0.204463 0.86894 -0.450708 0.0606704 0.887157 -0.457462 -0.0601106 0.832862 -0.550206 
-0.101297 0.786482 -0.60925 -0.0714476 0.772659 -0.630788 -0.0937474 0.770245 -0.63082 
-0.149232 0.754044 -0.639646 0.433065 0.803266 -0.408923 0.53872 0.725727 -0.427903 
0.343597 0.787432 -0.511753 0.152532 0.685291 -0.712117 0.000531099 0.606685 -0.794942 
-0.110177 0.598351 -0.793622 -0.107264 0.616612 -0.779926 -0.0680026 0.64832 -0.758325 
-0.0886183 0.669437 -0.737565 -0.261283 0.766817 -0.586278 -0.134397 0.70254 -0.698839 
-0.264171 0.766567 -0.585311 -0.377244 0.683008 -0.625449 0.645378 0.646219 -0.407294 
0.683323 0.613265 -0.396201 0.481606 0.602068 -0.636844 -0.0482589 0.372465 -0.926791 
-0.0362968 0.400828 -0.915434 -0.133922 0.424679 -0.895384 -0.190214 0.458411 -0.868146 
-0.448904 0.6412 -0.622373 -0.319834 0.568526 -0.757947 -0.456181 0.629789 -0.6287 
-0.580095 0.544973 -0.605388 0.744271 0.555449 -0.370861 0.812921 0.48478 -0.322719 
0.612861 0.50171 -0.610482 -0.251263 0.302566 -0.919413 -0.351704 0.447751 -0.822084 
-0.58883 0.539231 -0.602088 -0.570201 0.535194 -0.623248 0.841139 0.435824 -0.320224 
0.792213 0.413076 -0.449185 -0.235248 0.287014 -0.928591 -0.69356 0.400705 -0.598673 
-0.504408 0.320965 -0.801595 -0.75034 0.335211 -0.569757 0.893568 0.303259 -0.331013 
0.700491 0.222814 -0.677987 -0.442971 0.137814 -0.88588 -0.797783 0.255058 -0.54634 
-0.732304 0.257937 -0.630237 0.934738 0.10249 -0.340236 -0.421105 0.0791387 -0.903553 
-0.885758 0.0873127 -0.455861 -0.703045 0.131557 -0.698871 0.92579 -0.0792057 -0.369647 
0.594051 -0.0592332 -0.802243 -0.359601 -0.037273 -0.932361 -0.92033 -0.131891 -0.368237 
-0.757135 -0.11952 -0.642231 0.845414 -0.326769 -0.422489 0.61439 -0.249667 -0.748459 
-0.517731 -0.0858072 -0.851229 -0.854089 -0.287059 -0.433739 -0.848397 -0.325368 -0.417563 
-0.83105 -0.287123 -0.476357 0.765432 -0.49758 -0.408079 0.734153 -0.543542 -0.406917 
0.688408 -0.498617 -0.526759 0.413559 -0.403376 -0.816246 -0.826539 -0.440902 -0.349912 
-0.550439 -0.262509 -0.792531 0.647708 -0.643517 -0.407873 0.604128 -0.687813 -0.40242 
0.56205 -0.586883 -0.58281 0.365625 -0.467022 -0.805114 -0.575143 -0.788335 -0.218491 
-0.472506 -0.428759 -0.770002 -0.734425 -0.604853 -0.307852 -0.725486 -0.617267 -0.304387 
-0.721703 -0.605108 -0.33614 0.524448 -0.759154 -0.385539 0.512906 -0.767798 -0.383945 
0.505081 -0.740382 -0.443539 0.437552 -0.8086 -0.393337 0.37578 -0.627767 -0.681687 
-0.295897 -0.945195 -0.138024 -0.21693 -0.566889 -0.794719 -0.553572 -0.809714 -0.194734 
-0.379481 -0.911163 -0.16055 -0.313664 -0.686661 -0.655829 0.332395 -0.894087 -0.300204 
0.302989 -0.907572 -0.290707 0.301379 -0.885978 -0.352441 0.184332 -0.931503 -0.313566 
0.162895 -0.826892 -0.538252 0.0954686 -0.948378 -0.302432 0.112036 -0.759355 -0.640958 
-0.0224687 -0.976763 -0.21314 0.0355727 -0.741637 -0.669858 -0.126727 -0.980585 -0.149647 
-0.0981281 -0.787815 -0.608045 -0.193566 -0.970847 -0.141378 -0.195301 -0.893455 -0.404469 
-0.240366 -0.958812 -0.151337 -0.233048 -0.959979 -0.155334 -0.230667 -0.953362 -0.194664 
0.263987 0.500547 -0.824478 0.0943677 0.512345 -0.853579 -0.0172202 0.471919 -0.881474 
-0.114982 0.409836 -0.904883 -0.101199 0.360247 -0.927352 0.314878 0.481319 -0.818036 
0.39901 0.482054 -0.780009 0.242565 0.435899 -0.866692 0.0701797 0.402638 -0.912665 
-0.0444506 0.32081 -0.9461 -0.112976 0.304681 -0.945731 -0.058162 0.36411 -0.929538 
-0.098763 0.330749 -0.938537 -0.0462864 0.363627 -0.930394 -0.0339716 0.372967 -0.927222 
-0.126372 0.362297 -0.923456 -0.16017 0.3215 -0.933265 0.454538 0.441023 -0.773882 
0.503855 0.409135 -0.760749 0.346073 0.386014 -0.855118 0.149675 0.320554 -0.93533 
-0.028426 0.231756 -0.972359 -0.103063 0.154478 -0.982606 -0.114684 0.137636 -0.983821 
-0.0485121 0.16178 -0.985634 -0.00216772 0.193746 -0.981049 -0.0377643 0.204295 -0.978181 
-0.105654 0.217757 -0.970267 -0.181286 0.300307 -0.936457 -0.157884 0.305058 -0.939155 
-0.219083 0.251318 -0.942784 0.54771 0.357926 -0.756243 0.460132 0.34795 -0.816829 
0.259308 0.255081 -0.9315 0.0722445 0.169297 -0.982914 -0.0939922 0.135966 -0.986245 
-0.154486 0.0902637 -0.983863 -0.108149 0.0992312 -0.98917 -0.0380857 0.167562 -0.985126 
-0.0012294 0.0199535 -0.9998 -0.0103746 0.0904596 -0.995846 -0.0302976 0.148884 -0.98839 
-0.104586 0.193112 -0.975587 -0.212807 0.261179 -0.941541 -0.189361 0.21989 -0.95697 
-0.236088 0.252648 -0.938313 0.632995 0.203159 -0.747023 0.635665 0.0771519 -0.7681 
0.389411 0.17405 -0.90447 0.181758 0.120599 -0.97592 0.0220682 0.0741144 -0.997006 
-0.113287 0.0497196 -0.992317 -0.137564 0.0452096 -0.989461 -0.0258859 0.134582 -0.990564 
-0.146478 0.0454376 -0.98817 -0.0757795 -0.0577667 -0.99545 0.0902792 0.113927 -0.989379 
-0.000857084 0.106932 -0.994266 -0.0763675 0.103808 -0.991661 -0.143154 0.142335 -0.979412 
-0.339178 0.151636 -0.928421 -0.259596 0.175347 -0.949665 0.630627 0.0414106 -0.77498 
0.604554 -0.011476 -0.796481 0.622578 0.0386831 -0.781601 0.351956 -0.0155381 -0.935887 
0.155921 -0.0312444 -0.987275 0.000451323 -0.0369799 -0.999316 -0.123402 -0.0420439 -0.991466 
-0.0784294 0.00478227 -0.996908 -0.105393 0.0544504 -0.992939 -0.275254 0.00084728 -0.961371 
0.136719 0.110551 -0.984422 0.132324 -0.0158094 -0.99108 -0.0435965 -0.00459261 -0.999039 
-0.070613 0.0399631 -0.996703 -0.120493 0.0659831 -0.990519 -0.376096 0.0685494 -0.924042 
-0.249132 0.0581482 -0.966722 0.575957 -0.0598297 -0.815287 0.33927 -0.150521 -0.928568 
0.157935 -0.122552 -0.979815 0.0119806 -0.119192 -0.992799 -0.0689611 -0.0696561 -0.995185 
-0.0409737 0.0157206 -0.999037 -0.0371666 -0.0678309 -0.997004 -0.0971639 0.0282369 -0.994868 
-0.0969247 0.13032 -0.986723 -0.00957845 -0.0804747 -0.996711 0.0558087 -0.0490802 -0.997234 
-0.00313911 -0.00544771 -0.99998 -0.124965 0.0344191 -0.991564 -0.337998 -0.0315681 -0.940617 
-0.24186 -0.0048362 -0.970299 0.535414 -0.249201 -0.806989 0.375816 -0.365083 -0.851749 
0.330225 -0.257672 -0.908051 0.20842 -0.234392 -0.949537 0.0582814 -0.152951 -0.986514 
0.00912814 -0.0611534 -0.998087 -0.0772485 -0.00202824 -0.99701 -0.106055 -0.0558374 -0.992791 
-0.0143959 -0.00646255 -0.999875 -0.0346059 0.0728737 -0.996741 -0.0374754 0.0815509 -0.995964 
0.0321583 0.0372565 -0.998788 0.012117 -0.0369935 -0.999242 -0.123805 -0.0510304 -0.990993 
-0.4202 -0.053808 -0.905835 -0.309754 -0.0556228 -0.949188 0.371936 -0.373969 -0.849594 
0.342821 -0.405451 -0.847398 0.296826 -0.313276 -0.902082 0.17436 -0.218449 -0.960145 
0.078636 -0.139829 -0.987048 -0.0347013 -0.0935393 -0.995011 -0.0423966 -0.0135494 -0.999009 
0.0340907 0.0420952 -0.998532 -0.00698793 0.0460849 -0.998913 -0.0438499 0.0627557 -0.997065 
-0.0637662 0.00904528 -0.997924 -0.0890477 -0.0791409 -0.992878 -0.133219 -0.146972 -0.980129 
-0.393814 -0.246422 -0.885543 -0.334772 -0.310836 -0.889555 -0.284876 -0.256384 -0.923641 
0.323686 -0.426174 -0.84475 0.307546 -0.468638 -0.828127 0.257488 -0.374289 -0.890847 
0.144122 -0.272362 -0.95134 0.0512715 -0.217077 -0.974807 0.0310575 -0.0978458 -0.994717 
0.0462878 -0.0913283 -0.994744 -0.0125656 -0.104825 -0.994411 -0.0787793 -0.0967407 -0.992187 
-0.103833 -0.1617 -0.981362 -0.207066 -0.518949 -0.829346 -0.161313 -0.202793 -0.965843 
-0.34718 -0.307932 -0.885801 -0.274993 -0.475979 -0.835358 -0.245934 -0.244908 -0.937836 
0.246857 -0.483453 -0.839842 0.224676 -0.498037 -0.837544 0.214037 -0.453997 -0.864913 
0.129149 -0.532328 -0.836629 0.13174 -0.418658 -0.898538 0.119717 -0.556599 -0.82211 
0.0990584 -0.384199 -0.917921 0.0484991 -0.600413 -0.798218 0.0368816 -0.323254 -0.945593 
-0.0789797 -0.627405 -0.774678 -0.0217787 -0.348725 -0.936972 -0.153069 -0.595711 -0.788478 
-0.117174 -0.423086 -0.898481 -0.204639 -0.541018 -0.815734 -0.170121 -0.595784 -0.784921 
-0.150731 -0.459556 -0.875265 
