# vtk DataFile Version 4.2
vtk output
ASCII
DATASET POLYDATA
POINTS 524 float
4.16838 -37.7723 -14.0814 -11.188 -30.094 -14.1989 -3.50984 -30.094 -16.4518 
4.16838 -30.094 -17.4024 11.8466 -30.094 -17.1319 19.5248 -30.094 -15.8314 
-34.2227 -22.4158 -16.4935 -26.5445 -22.4158 -17.3226 -18.8663 -22.4158 -17.038 
-11.188 -22.4158 -17.1452 -3.50984 -22.4158 -18.072 4.16838 -22.4158 -18.1659 
11.8466 -22.4158 -17.6157 19.5248 -22.4158 -16.8083 27.203 -22.4158 -15.8634 
34.8812 -22.4158 -14.2681 -41.9009 -14.7376 -16.7571 -34.2227 -14.7376 -19.4343 
-26.5445 -14.7376 -20.0321 -18.8663 -14.7376 -19.809 -11.188 -14.7376 -19.3974 
-3.50984 -14.7376 -19.1313 4.16838 -14.7376 -17.949 11.8466 -14.7376 -17.1466 
19.5248 -14.7376 -17.0861 27.203 -14.7376 -17.4107 34.8812 -14.7376 -16.6827 
42.5594 -14.7376 -15.0117 -49.5791 -7.05941 -14.2881 -41.9009 -7.05941 -18.4251 
-34.2227 -7.05941 -20.1853 -26.5445 -7.05941 -20.508 -18.8663 -7.05941 -20.2246 
-11.188 -7.05941 -20.4937 -3.50984 -7.05941 -20.2165 4.16838 -7.05941 -20.6889 
11.8466 -7.05941 -18.784 19.5248 -7.05941 -17.3799 27.203 -7.05941 -18.0954 
34.8812 -7.05941 -18.3003 42.5594 -7.05941 -17.4522 50.2376 -7.05941 -14.6517 
-49.5791 0.6188 -16.2254 -41.9009 0.6188 -19.1892 -34.2227 0.6188 -20.4372 
-26.5445 0.6188 -20.3919 -18.8663 0.6188 -19.7463 -11.188 0.6188 -21.4147 
-3.50984 0.6188 -19.7468 4.16838 0.6188 -20.1729 11.8466 0.6188 -19.2378 
19.5248 0.6188 -16.9049 27.203 0.6188 -18.2138 34.8812 0.6188 -18.698 
42.5594 0.6188 -18.1608 50.2376 0.6188 -15.4313 -49.5791 8.29701 -15.6579 
-41.9009 8.29701 -19.3815 -34.2227 8.29701 -20.501 -26.5445 8.29701 -20.4324 
-18.8663 8.29701 -19.9824 -11.188 8.29701 -20.494 -3.50984 8.29701 -19.2734 
4.16838 8.29701 -18.7192 11.8466 8.29701 -18.7927 19.5248 8.29701 -17.3625 
27.203 8.29701 -17.8008 34.8812 8.29701 -17.92 42.5594 8.29701 -16.9935 
50.2376 8.29701 -14.1954 -41.9009 15.9752 -18.2957 -34.2227 15.9752 -21.0378 
-26.5445 15.9752 -20.9079 -18.8663 15.9752 -20.3946 -11.188 15.9752 -20.049 
-3.50984 15.9752 -19.546 4.16838 15.9752 -19.617 11.8466 15.9752 -19.678 
19.5248 15.9752 -18.5633 27.203 15.9752 -17.5232 34.8812 15.9752 -16.6232 
42.5594 15.9752 -14.5517 -41.9009 23.6534 -15.5738 -34.2227 23.6534 -18.7781 
-26.5445 23.6534 -19.8233 -18.8663 23.6534 -20.5809 -11.188 23.6534 -20.3376 
-3.50984 23.6534 -20.6737 4.16838 23.6534 -20.6528 11.8466 23.6534 -20.119 
19.5248 23.6534 -18.8727 27.203 23.6534 -17.3431 34.8812 23.6534 -14.932 
-34.2227 31.3316 -14.176 -26.5445 31.3316 -17.1263 -18.8663 31.3316 -19.2002 
-11.188 31.3316 -19.7846 -3.50984 31.3316 -20.2992 4.16838 31.3316 -20.1815 
11.8466 31.3316 -19.4048 19.5248 31.3316 -17.7376 27.203 31.3316 -15.0057 
-11.188 39.0099 -16.0025 -3.50984 39.0099 -17.391 4.16838 39.0099 -17.4009 
11.8466 39.0099 -15.9639 4.16838 -37.8036 -14.058 -11.188 -30.3447 -14.058 
-11.188 -37.7723 -8.96576 4.04843 -37.7723 -14.058 -3.50984 -34.9788 -14.058 
-3.50984 -37.7723 -12.2549 4.47406 -37.7723 -14.058 11.8466 -36.6 -14.058 
11.8466 -37.7723 -13.3314 19.5248 -33.7351 -14.058 19.5248 -37.7723 -10.8796 
27.203 -37.7723 -7.11023 -34.2227 -26.1294 -14.058 -34.2227 -30.094 -10.652 
-26.5445 -27.5188 -14.058 -26.5445 -30.094 -11.9426 -12.0371 -30.094 -14.058 
-18.8663 -28.0612 -14.058 -18.8663 -30.094 -12.6886 24.9722 -30.094 -14.058 
27.203 -27.8278 -14.058 27.203 -30.094 -13.1775 34.8812 -22.8861 -14.058 
34.8812 -30.094 -10.3726 -40.4284 -22.4158 -14.058 -41.9009 -20.9488 -14.058 
-41.9009 -22.4158 -13.2729 35.6185 -22.4158 -14.058 42.5594 -17.2728 -14.058 
42.5594 -22.4158 -11.6888 -45.914 -14.7376 -14.058 -49.5791 -7.72434 -14.058 
-49.5791 -14.7376 -10.5512 45.0694 -14.7376 -14.058 50.2376 -8.8313 -14.058 
50.2376 -14.7376 -11.6724 -49.8584 -7.05941 -14.058 51.2481 -7.05941 -14.058 
57.9159 -7.05941 -6.792 -52.0746 0.6188 -14.058 52.2817 0.6188 -14.058 
57.9159 0.6188 -7.54223 -51.3232 8.29701 -14.058 -49.5791 14.1762 -14.058 
50.4785 8.29701 -14.058 50.2376 8.69376 -14.058 -48.8586 15.9752 -14.058 
-49.5791 15.9752 -13.0999 43.7915 15.9752 -14.058 42.5594 17.4002 -14.058 
50.2376 15.9752 -10.4046 -43.76 23.6534 -14.058 -41.9009 25.4075 -14.058 
37.0365 23.6534 -14.058 34.8812 25.7841 -14.058 42.5594 23.6534 -11.1723 
-34.3803 31.3316 -14.058 -34.2227 31.4363 -14.058 -26.5445 35.1757 -14.058 
-18.8663 38.4471 -14.058 19.5248 37.8973 -14.058 29.3684 31.3316 -14.058 
27.203 32.8284 -14.058 34.8812 31.3316 -10.6966 -17.4907 39.0099 -14.058 
-18.8663 39.0099 -12.8777 -11.188 40.8989 -14.058 -3.50984 42.4783 -14.058 
4.16838 42.6419 -14.058 17.5412 39.0099 -14.058 11.8466 41.2674 -14.058 
19.5248 39.0099 -12.9838 27.203 39.0099 -6.98497 -11.188 -40.3494 -6.37975 
-3.50984 -42.9703 -6.37975 4.16838 -44.194 -6.37975 11.8466 -43.1785 -6.37975 
19.5248 -41.0819 -6.37975 27.203 -38.3055 -6.37975 -34.2227 -33.9559 -6.37975 
-26.5445 -35.2712 -6.37975 -26.5445 -37.7723 -2.50087 -16.9565 -37.7723 -6.37975 
-18.8663 -36.8623 -6.37975 -18.8663 -37.7723 -5.24386 28.3067 -37.7723 -6.37975 
34.8812 -34.1851 -6.37975 -41.0344 -30.094 -6.37975 -41.9009 -29.5137 -6.37975 
-41.9009 -30.094 -5.30364 40.5808 -30.094 -6.37975 42.5594 -28.446 -6.37975 
42.5594 -30.094 -3.84634 -48.8359 -22.4158 -6.37975 -49.5791 -21.1118 -6.37975 
-49.5791 -22.4158 -4.42313 48.8256 -22.4158 -6.37975 50.2376 -21.0094 -6.37975 
50.2376 -22.4158 -3.72944 -52.6545 -14.7376 -6.37975 55.2688 -14.7376 -6.37975 
57.9159 -7.7334 -6.37975 -55.192 -7.05941 -6.37975 58.1548 -7.05941 -6.37975 
-57.1096 0.6188 -6.37975 -57.2573 0.6188 -5.42609 58.6377 0.6188 -6.37975 
57.9159 5.66989 -6.37975 -55.7817 8.29701 -6.37975 57.496 8.29701 -6.37975 
57.9159 8.29701 -2.85778 -53.0681 15.9752 -6.37975 -49.5791 21.1485 -6.37975 
53.7236 15.9752 -6.37975 50.2376 20.3443 -6.37975 -47.4454 23.6534 -6.37975 
-41.9009 28.4675 -6.37975 47.3613 23.6534 -6.37975 42.5594 28.2542 -6.37975 
-37.9359 31.3316 -6.37975 -34.2227 33.7575 -6.37975 -26.5445 37.9349 -6.37975 
39.0286 31.3316 -6.37975 34.8812 34.4928 -6.37975 -23.982 39.0099 -6.37975 
-18.8663 41.0317 -6.37975 -11.188 43.2574 -6.37975 -3.50984 44.7553 -6.37975 
4.16838 45.4016 -6.37975 11.8466 44.5904 -6.37975 19.5248 42.6607 -6.37975 
27.743 39.0099 -6.37975 27.203 39.3157 -6.37975 -26.5445 -39.7186 1.29846 
-18.8663 -41.5015 1.29846 -11.188 -43.6655 1.29846 -3.50984 -45.3886 1.29846 
4.16838 -45.309 1.29846 11.8466 -44.0815 1.29846 19.5248 -42.0842 1.29846 
27.203 -40.215 1.29846 -41.9009 -32.8729 1.29846 -31.8659 -37.7723 1.29846 
-34.2227 -36.9258 1.29846 34.3239 -37.7723 1.29846 34.8812 -37.568 1.29846 
42.5594 -33.0122 1.29846 -45.0554 -30.094 1.29846 -49.5791 -24.7457 1.29846 
45.7382 -30.094 1.29846 50.2376 -25.1216 1.29846 -51.209 -22.4158 1.29846 
52.2431 -22.4158 1.29846 50.2376 -22.4158 7.50163 -54.6713 -14.7376 1.29846 
56.8204 -14.7376 1.29846 57.9159 -11.4198 1.29846 -57.1254 -7.05941 1.29846 
-57.2573 -6.13395 1.29846 59.3555 -7.05941 1.29846 57.9159 -7.05941 4.97724 
-58.2255 0.6188 1.29846 -57.2573 6.1284 1.29846 -57.2573 0.6188 7.50455 
59.6161 0.6188 1.29846 57.9159 0.6188 5.30097 -56.8762 8.29701 1.29846 
58.3624 8.29701 1.29846 57.9159 9.37871 1.29846 57.9159 8.29701 2.37602 
-52.6572 15.9752 1.29846 -49.5791 19.6013 1.29846 54.8635 15.9752 1.29846 
50.2376 22.092 1.29846 -45.106 23.6534 1.29846 -41.9009 26.5958 1.29846 
-41.9009 23.6534 7.2221 48.834 23.6534 1.29846 42.5594 29.4988 1.29846 
-34.7175 31.3316 1.29846 -34.2227 31.6457 1.29846 -34.2227 31.3316 1.9827 
-26.5445 36.407 1.29846 40.2247 31.3316 1.29846 34.8812 35.0295 1.29846 
-20.7415 39.0099 1.29846 -18.8663 39.7884 1.29846 -18.8663 39.0099 3.77093 
-11.188 41.6811 1.29846 -11.188 39.0099 8.88754 -3.50984 42.7974 1.29846 
4.16838 43.5091 1.29846 11.8466 43.4839 1.29846 19.5248 42.0058 1.29846 
27.6899 39.0099 1.29846 27.203 39.2545 1.29846 27.203 39.0099 1.96619 
-26.5445 -38.4712 8.97667 -18.8663 -39.9191 8.97667 -11.188 -41.957 8.97667 
-3.50984 -42.9424 8.97667 4.16838 -41.9025 8.97667 11.8466 -40.1895 8.97667 
19.5248 -39.2237 8.97667 27.203 -37.9567 8.97667 -41.9009 -31.0302 8.97667 
-28.4875 -37.7723 8.97667 -34.2227 -35.2486 8.97667 -26.5445 -37.7723 9.94556 
-18.8663 -37.7723 11.3807 -11.188 -37.7723 13.1159 -3.50984 -37.7723 13.7063 
4.16838 -37.7723 12.6412 11.8466 -37.7723 11.2298 19.5248 -37.7723 10.6205 
27.9008 -37.7723 8.97667 27.203 -37.7723 9.22157 34.8812 -35.4919 8.97667 
42.5594 -31.0519 8.97667 -42.9482 -30.094 8.97667 -49.5791 -22.502 8.97667 
-41.9009 -30.094 10.1627 -34.2227 -30.094 13.7806 -26.5445 -30.094 16.0459 
-18.8663 -30.094 16.2284 4.16838 -30.094 16.0846 11.8466 -30.094 15.3111 
19.5248 -30.094 15.2371 27.203 -30.094 15.6612 34.8812 -30.094 13.8434 
43.6549 -30.094 8.97667 42.5594 -30.094 9.98625 -49.6418 -22.4158 8.97667 
-49.5791 -22.4158 9.0686 -41.9009 -22.4158 15.0961 49.6024 -22.4158 8.97667 
42.5594 -22.4158 14.1427 50.2376 -21.4327 8.97667 -53.3877 -14.7376 8.97667 
-49.5791 -14.7376 14.5211 42.5594 -14.7376 16.3457 53.5209 -14.7376 8.97667 
50.2376 -14.7376 12.2386 -56.0069 -7.05941 8.97667 55.8336 -7.05941 8.97667 
50.2376 -7.05941 14.0016 -57.0036 0.6188 8.97667 55.8185 0.6188 8.97667 
50.2376 0.6188 13.9865 -55.3396 8.29701 8.97667 54.4801 8.29701 8.97667 
50.2376 8.29701 13.0033 -50.082 15.9752 8.97667 -49.5791 16.51 8.97667 
-49.5791 15.9752 9.71651 -41.9009 22.8113 8.97667 42.5594 15.9752 14.8928 
51.2527 15.9752 8.97667 50.2376 17.3806 8.97667 50.2376 15.9752 10.0458 
-40.7762 23.6534 8.97667 -34.2227 28.2883 8.97667 -34.2227 23.6534 14.9085 
34.8812 23.6534 15.3452 44.9679 23.6534 8.97667 42.5594 25.9601 8.97667 
42.5594 23.6534 11.2311 -30.2523 31.3316 8.97667 -26.5445 33.9098 8.97667 
-26.5445 31.3316 13.0136 -18.8663 37.31 8.97667 -11.188 38.9749 8.97667 
27.203 35.9904 8.97667 27.203 31.3316 14.0596 35.7898 31.3316 8.97667 
34.8812 31.9693 8.97667 34.8812 31.3316 9.77771 -10.4409 39.0099 8.97667 
-3.50984 39.3211 8.97667 -3.50984 39.0099 9.45158 4.16838 39.9156 8.97667 
4.16838 39.0099 10.3388 11.8466 40.1559 8.97667 11.8466 39.0099 10.7118 
[...]
POINT_DATA 524
SCALARS ImageScalars float
LOOKUP_TABLE default
0 0 0 0 0 0 0 0 0 
0 0 0 0 0 0 0 0 0 
0 0 0 0 0 0 0 0 0 
0 0 0 0 0 0 0 0 0 
0 0 0 0 0 0 0 0 0 
0 0 0 0 0 0 0 0 0 
0 0 0 0 0 0 0 0 0 
0 0 0 0 0 0 0 0 0 
0 0 0 0 0 0 0 0 0 
0 0 0 0 0 0 0 0 0 
0 0 0 0 0 0 0 0 0 
0 0 0 0 0 0 0 0 0 
0 0 0 0 0 0 0 0 0 
0 0 0 0 0 0 0 0 0 
0 0 0 0 0 0 0 0 0 
0 0 0 0 0 0 0 0 0 
0 0 0 0 0 0 0 0 0 
0 0 0 0 0 0 0 0 0 
0 0 0 0 0 0 0 0 0 
0 0 0 0 0 0 0 0 0 
0 0 0 0 0 0 0 0 0 
0 0 0 0 0 0 0 0 0 
0 0 0 0 0 0 0 0 0 
0 0 0 0 0 0 0 0 0 
0 0 0 0 0 0 0 0 0 
0 0 0 0 0 0 0 0 0 
0 0 0 0 0 0 0 0 0 
0 0 0 0 0 0 0 0 0 
0 0 0 0 0 0 0 0 0 
0 0 0 0 0 0 0 0 0 
0 0 0 0 0 0 0 0 0 
0 0 0 0 0 0 0 0 0 
0 0 0 0 0 0 0 0 0 
0 0 0 0 0 0 0 0 0 
0 0 0 0 0 0 0 0 0 
0 0 0 0 0 0 0 0 0 
0 0 0 0 0 0 0 0 0 
0 0 0 0 0 0 0 0 0 
0 0 0 0 0 0 0 0 0 
0 0 0 0 0 0 0 0 0 
0 0 0 0 0 0 0 0 0 
0 0 0 0 0 0 0 0 0 
0 0 0 0 0 0 0 0 0 
0 0 0 0 0 0 0 0 0 
0 0 0 0 0 0 0 0 0 
0 0 0 0 0 0 0 0 0 
0 0 0 0 0 0 0 0 0 
0 0 0 0 0 0 0 0 0 
0 0 0 0 0 0 0 0 0 
0 0 0 0 0 0 0 0 0 
0 0 0 0 0 0 0 0 0 
0 0 0 0 0 0 0 0 0 
0 0 0 0 0 0 0 0 0 
0 0 0 0 0 0 0 0 0 
0 0 0 0 0 0 0 0 0 
0 0 0 0 0 0 0 0 0 
0 0 0 0 0 0 0 0 0 
0 0 0 0 0 0 0 0 0 
0 0 
NORMALS Normals float
0.0539983 0.566047 0.822603 0.224544 0.446989 0.865899 0.198538 0.327432 0.923781 
0.0432653 0.240404 0.969708 -0.103975 0.228424 0.967994 -0.223893 0.290926 0.93018 
0.214348 0.460803 0.861229 0.0318297 0.427825 0.903301 -0.010041 0.40849 0.912707 
0.0652521 0.318182 0.945781 0.0628751 0.171056 0.983253 -0.0318354 0.0378327 0.998777 
-0.0860384 -0.00158007 0.996291 -0.113355 0.0810312 0.990245 -0.150659 0.245208 0.957693 
-0.231669 0.358445 0.904349 0.433687 0.290625 0.852908 0.180282 0.225953 0.957311 
0.0219619 0.192448 0.981061 -0.04088 0.198121 0.979325 -0.0429304 0.207737 0.977242 
-0.0914637 0.136259 0.986442 -0.129781 0.144616 0.98094 -0.0547009 0.0529158 0.9971 
0.0171618 0.0370394 0.999166 -0.0243574 0.140134 0.989833 -0.143109 0.239098 0.960392 
-0.273913 0.324876 0.905222 0.613928 0.260712 0.745065 0.345239 0.134407 0.928841 
0.127912 0.0586065 0.990052 0.0042429 0.0222209 0.999744 -0.000975724 -0.00494494 0.999987 
-0.000387821 0.125804 0.992055 0.00916735 0.0434678 0.999013 -0.072831 0.15454 0.985298 
-0.2287 0.144468 0.962718 -0.026528 -0.0103566 0.999594 0.059644 0.0520715 0.996861 
-0.0380121 0.127498 0.99111 -0.218679 0.187107 0.95769 -0.446175 0.201155 0.872046 
0.553768 0.0771909 0.829085 0.263222 0.0637231 0.962628 0.0733157 0.0219577 0.997067 
-0.0447851 -0.00489752 0.998985 0.0578588 -0.0157802 0.9982 0.0133259 -0.000112156 0.999911 
-0.0849585 -0.0655214 0.994228 -0.0210093 -0.135872 0.990504 -0.235013 -0.00464962 0.971981 
-0.0220215 -0.00123827 0.999757 0.112976 -0.0193647 0.993409 -0.00105929 -0.024898 0.999689 
-0.208921 -0.0279559 0.977533 -0.473069 -0.0270786 0.880609 0.638019 -0.145321 0.756184 
0.276575 -0.0550858 0.959412 0.0716486 0.0361846 0.996773 -0.0336938 0.0330867 0.998884 
0.00391746 0.0421808 0.999102 -0.0416845 -0.0865689 0.995373 -0.122203 -0.0102409 0.992452 
-0.0301337 -0.0236026 0.999267 -0.0930399 0.0376854 0.994949 -0.0589024 0.101394 0.993101 
0.0362909 -0.0448928 0.998332 -0.0481069 -0.131973 0.990085 -0.228266 -0.214749 0.94962 
-0.443227 -0.242337 0.863031 0.406636 -0.212941 0.888428 0.157296 -0.101643 0.982307 
-0.041692 -0.0437311 0.998173 -0.0552996 0.0384598 0.997729 -0.0551266 -0.0101637 0.998428 
-0.028382 0.0863777 0.995858 0.00857129 0.120631 0.99266 -0.0652161 0.083653 0.994359 
-0.14037 0.0996585 0.985071 -0.119191 -0.0286419 0.992458 -0.174519 -0.175636 0.968863 
-0.312408 -0.309781 0.898018 0.546409 -0.531151 0.647546 0.246743 -0.365295 0.897595 
0.109325 -0.217879 0.969833 0.0371807 -0.0655388 0.997157 0.0054441 -0.0184863 0.999814 
0.0211075 0.0515415 0.998448 -0.036624 0.0374322 0.998628 -0.112903 -0.0191131 0.993422 
-0.176783 -0.0471996 0.983117 -0.235458 -0.136034 0.962317 -0.335836 -0.294015 0.894857 
0.458535 -0.722792 0.517028 0.273637 -0.532191 0.801184 0.166441 -0.340892 0.925251 
0.0637099 -0.23494 0.96992 0.0285704 -0.191678 0.981042 -0.0601458 -0.191358 0.979676 
-0.142255 -0.229379 0.962886 -0.26441 -0.298057 0.917196 -0.35646 -0.416764 0.836208 
0.196109 -0.695863 0.690881 0.0826381 -0.595879 0.798811 -0.0853396 -0.568668 0.818128 
-0.225018 -0.599396 0.768174 0.05387 0.567284 0.821758 0.228526 0.452073 0.86221 
0.333756 0.641356 0.690847 0.0569081 0.566619 0.822012 0.237418 0.491903 0.837654 
0.247425 0.604392 0.757292 0.0466782 0.56793 0.821752 -0.134209 0.549322 0.824762 
-0.144024 0.623441 0.768491 -0.246216 0.451845 0.857446 -0.283945 0.71154 0.642718 
-0.375257 0.789421 0.485795 0.21696 0.55769 0.801193 0.241368 0.681053 0.69131 
0.0731426 0.593631 0.801406 0.0962373 0.683232 0.723831 0.212332 0.464275 0.859863 
0.0770078 0.542292 0.836654 0.111965 0.596798 0.794542 -0.286696 0.376507 0.880936 
-0.265299 0.361941 0.893653 -0.313163 0.42687 0.848358 -0.237148 0.365921 0.899924 
-0.375442 0.552739 0.743991 0.408711 0.464408 0.785672 0.453631 0.432269 0.779334 
0.464664 0.47224 0.74905 -0.243058 0.365418 0.89855 -0.304979 0.357548 0.882693 
-0.40364 0.473675 0.782755 0.561693 0.32191 0.762152 0.619846 0.26739 0.737763 
0.723818 0.34832 0.595618 -0.350006 0.343543 0.871478 -0.45894 0.248269 0.853075 
-0.54227 0.421075 0.727076 0.624876 0.261002 0.735804 -0.484836 0.205709 0.850069 
-0.907423 0.195966 0.371727 0.672316 0.0641274 0.737481 -0.557884 -0.0255431 0.829526 
-0.906285 -0.0351369 0.421205 0.715543 -0.152363 0.68175 0.689464 -0.301789 0.658454 
-0.453063 -0.243856 0.857478 -0.448292 -0.252329 0.857534 0.671243 -0.342439 0.657395 
0.720305 -0.36747 0.588325 -0.350674 -0.32511 0.878255 -0.337298 -0.335525 0.879576 
-0.62602 -0.48431 0.611181 0.606088 -0.556975 0.567834 0.57319 -0.601191 0.556797 
-0.36238 -0.343959 0.866241 -0.378001 -0.363884 0.851295 -0.506647 -0.528279 0.681344 
0.462816 -0.725523 0.509331 0.460488 -0.727037 0.509282 0.351225 -0.735332 0.579593 
0.306101 -0.780976 0.544407 -0.331497 -0.617881 0.712975 -0.391433 -0.455262 0.799698 
-0.377712 -0.482066 0.790535 -0.529062 -0.621898 0.577353 0.293508 -0.790782 0.537138 
0.318082 -0.834372 0.450163 0.224562 -0.793108 0.566173 0.107356 -0.802583 0.5868 
-0.0613825 -0.779747 0.623079 -0.309169 -0.657502 0.687099 -0.238807 -0.704523 0.668295 
-0.339615 -0.707165 0.620144 -0.46217 -0.849239 0.255326 0.328977 0.747331 0.577296 
0.206257 0.843852 0.49535 0.00733353 0.926174 0.377026 -0.182468 0.918505 0.350791 
-0.296561 0.883642 0.362254 -0.374667 0.813241 0.445268 0.277798 0.804495 0.524991 
0.141163 0.779466 0.610332 0.235438 0.890584 0.38914 0.271694 0.720367 0.638164 
0.23565 0.723292 0.64909 0.25178 0.775701 0.578701 -0.3831 0.803784 0.455155 
-0.429611 0.725576 0.537563 0.50098 0.716343 0.485667 0.530469 0.702077 0.475069 
0.54908 0.724982 0.415828 -0.524358 0.651978 0.547698 -0.547589 0.638592 0.540691 
-0.59866 0.698358 0.392302 0.758272 0.500046 0.418303 0.779902 0.470485 0.412793 
0.804103 0.506307 0.311565 -0.646697 0.596427 0.475455 -0.669304 0.582826 0.460811 
-0.729576 0.613166 0.302895 0.837318 0.362025 0.409679 -0.798051 0.445309 0.405973 
-0.91147 0.21752 0.349153 0.896211 0.246983 0.368518 -0.916515 0.197224 0.347999 
0.941127 0.0331486 0.336424 0.95566 0.0269093 0.293239 -0.93312 -0.0397464 0.357363 
-0.928156 -0.182495 0.324379 0.925815 -0.229672 0.300195 -0.913048 -0.263796 0.311054 
-0.956519 -0.276455 0.0929748 0.872855 -0.454692 0.177143 0.793938 -0.599322 0.102352 
-0.774318 -0.52108 0.359037 -0.717933 -0.601519 0.350353 0.729773 -0.681445 0.0553465 
0.613667 -0.788016 0.04943 -0.689201 -0.63702 0.345264 -0.625796 -0.692441 0.359033 
0.560087 -0.828023 0.0260981 0.518683 -0.85472 0.0205486 0.426568 -0.903509 0.0413672 
-0.603532 -0.727863 0.325521 -0.567752 -0.767861 0.296727 0.391757 -0.919038 0.0435484 
0.32584 -0.94375 0.0562552 0.231274 -0.972435 0.0296976 0.136724 -0.990609 -0.000761322 
-0.00966852 -0.999637 0.0251432 -0.172677 -0.981309 0.0849474 -0.322408 -0.930768 0.172405 
-0.467261 -0.855288 0.22394 -0.459298 -0.860567 0.220158 0.290433 0.94526 0.148771 
0.247832 0.958133 0.143388 0.256724 0.963882 0.0708782 0.0979298 0.995172 0.00648345 
-0.0823706 0.991184 -0.103777 -0.207922 0.967965 -0.140756 -0.237104 0.965335 -0.109137 
-0.268668 0.962903 -0.0252234 0.599134 0.79842 0.059707 0.353371 0.930335 0.0980094 
0.379216 0.922892 0.0668259 -0.385276 0.920567 0.0641842 -0.397552 0.914866 0.070518 
-0.618581 0.780129 0.0935735 0.699307 0.713362 0.045657 0.824851 0.564715 0.0267894 
-0.689372 0.718511 0.0922354 -0.773741 0.632218 0.0403166 0.858361 0.512015 0.032513 
-0.806763 0.590481 0.0215789 -0.759647 0.507708 -0.40641 0.930789 0.364167 0.031837 
-0.913076 0.39624 -0.0963691 -0.947126 0.303116 -0.105226 0.975621 0.214597 0.0459514 
0.981447 0.187541 0.0398837 -0.978096 0.178905 -0.106399 -0.925477 0.172278 -0.33736 
0.999856 -0.0157812 -0.0062107 0.973835 -0.226464 -0.018988 0.963519 -0.0359241 -0.265218 
-0.990148 -0.0584249 -0.127251 -0.923637 -0.0684063 -0.377114 0.951256 -0.307461 -0.0240997 
-0.949428 -0.28017 -0.141745 -0.938956 -0.311896 -0.145197 -0.937917 -0.281463 -0.20271 
0.7862 -0.598763 -0.15288 0.711981 -0.671825 -0.204289 -0.848642 -0.51253 -0.130843 
-0.751107 -0.651395 -0.107341 0.639454 -0.71903 -0.272203 0.588446 -0.75939 -0.277595 
0.574891 -0.716664 -0.394832 -0.723693 -0.682144 -0.10463 -0.640611 -0.760713 -0.104563 
0.523987 -0.79804 -0.297606 0.521748 -0.799623 -0.297292 0.524211 -0.793814 -0.30832 
0.44251 -0.866168 -0.232245 -0.605744 -0.787708 -0.112209 -0.536998 -0.833619 -0.129275 
0.335803 -0.914934 -0.223901 0.305539 -0.926452 -0.219846 0.301512 -0.914485 -0.269829 
0.182332 -0.947502 -0.262667 0.11684 -0.889002 -0.442746 0.1132 -0.938358 -0.326603 
0.0425185 -0.944625 -0.325384 -0.0948747 -0.95991 -0.263764 -0.254862 -0.944543 -0.207082 
-0.403209 -0.900025 -0.16546 -0.394003 -0.903741 -0.167372 -0.395003 -0.898589 -0.191077 
0.255894 0.871048 -0.419278 0.209271 0.850712 -0.482178 0.177225 0.851988 -0.492654 
0.000558295 0.836829 -0.547465 -0.144431 0.767681 -0.624344 -0.146624 0.741777 -0.654422 
-0.126504 0.805696 -0.578662 -0.200284 0.844067 -0.497431 0.571256 0.702197 -0.424955 
0.293313 0.861253 -0.414982 0.395837 0.802492 -0.446453 0.243081 0.841181 -0.483038 
0.16877 0.750602 -0.638838 0.130338 0.631977 -0.763949 -0.0287551 0.540231 -0.841025 
-0.137942 0.558396 -0.818026 -0.114066 0.642527 -0.757726 -0.097841 0.7453 -0.659512 
-0.214246 0.842273 -0.494646 -0.198332 0.837294 -0.509513 -0.352667 0.791809 -0.498663 
-0.568652 0.679707 -0.463284 0.601763 0.676519 -0.424504 0.74793 0.5358 -0.391815 
0.560091 0.666148 -0.492489 0.295109 0.568805 -0.767705 0.129118 0.422679 -0.897035 
0.049786 0.366216 -0.929197 -0.103343 0.265856 -0.958458 -0.051249 0.326081 -0.943952 
0.0183376 0.369447 -0.929071 -0.073926 0.445133 -0.892408 -0.285355 0.543433 -0.789464 
-0.597485 0.654873 -0.462766 -0.563197 0.643405 -0.518496 0.749238 0.534218 -0.391475 
0.746471 0.534599 -0.396214 0.408097 0.448391 -0.795237 -0.714886 0.468986 -0.518643 
-0.461895 0.335736 -0.820935 -0.727359 0.443934 -0.523327 0.851101 0.382177 -0.359955 
0.660284 0.348536 -0.665243 -0.303852 0.166551 -0.938048 -0.772168 0.29929 -0.56052 
-0.615796 0.26311 -0.742677 0.91925 0.209133 -0.33353 -0.766172 0.136109 -0.628057 
-0.522335 0.0976906 -0.847126 0.942658 -0.0404714 -0.331297 -0.762886 -0.0683576 -0.642909 
-0.529319 -0.0502669 -0.846933 0.86506 -0.355293 -0.354173 -0.743192 -0.244595 -0.622767 
-0.582375 -0.202561 -0.787279 0.662328 -0.642902 -0.384706 0.652505 -0.653598 -0.383467 
0.652074 -0.636763 -0.4115 0.561277 -0.7069 -0.430418 -0.418055 -0.296065 -0.858822 
-0.703587 -0.436133 -0.561029 -0.682829 -0.470025 -0.559304 -0.663629 -0.430933 -0.611469 
0.555532 -0.71043 -0.432056 0.529722 -0.735419 -0.422556 0.435865 -0.592038 -0.677874 
-0.36632 -0.376966 -0.850709 -0.608691 -0.594339 -0.525602 -0.580794 -0.627577 -0.518483 
-0.552571 -0.551084 -0.625278 0.517295 -0.756968 -0.399257 0.472475 -0.789921 -0.390886 
0.448576 -0.694861 -0.562092 0.28257 -0.871204 -0.401444 0.11591 -0.887688 -0.445617 
-0.375409 -0.777329 -0.504805 -0.337641 -0.587129 -0.735716 -0.502035 -0.713926 -0.488131 
-0.489127 -0.723424 -0.48725 -0.486228 -0.701463 -0.521087 0.109978 -0.885689 -0.451066 
0.0547643 -0.860959 -0.505719 0.0530056 -0.852867 -0.519431 0.0481552 -0.857231 -0.512676 
0.0478378 -0.835574 -0.547291 -0.0432455 -0.866844 -0.4967 -0.0402378 -0.838193 -0.543887 
-0.231458 -0.852246 -0.469153 -0.219195 -0.85561 -0.468918 -0.218998 -0.849463 -0.480055 
0.049101 0.278328 -0.95923 -0.0462586 0.269129 -0.961993 0.209597 0.394219 -0.894796 
0.105286 0.376662 -0.920348 0.0464928 0.293793 -0.954738 0.0290187 0.327618 -0.944365 
0.0445706 0.259423 -0.964735 -0.0691947 0.250563 -0.965624 -0.0468678 0.243154 -0.968855 
-0.0822392 0.214405 -0.973276 -0.0116904 0.192033 -0.981319 0.0356229 0.217251 -0.975466 
-0.0316673 0.296262 -0.954582 -0.21316 0.274077 -0.937787 0.266343 0.387428 -0.882588 
0.341496 0.387259 -0.856394 0.190386 0.351023 -0.916808 0.038442 0.269865 -0.96213 
-0.0492581 0.207215 -0.977055 -0.0194653 0.148239 -0.98876 -0.038133 0.128877 -0.990927 
-0.053471 0.160474 -0.985591 0.00196425 0.150764 -0.988568 0.0381692 0.14772 -0.988292 
-0.000219221 0.132993 -0.991117 -0.257352 0.225277 -0.939691 -0.197908 0.202321 -0.959113 
0.487561 0.327249 -0.809439 0.594317 0.218383 -0.774013 0.282433 0.305793 -0.909243 
0.0945117 0.240934 -0.965929 -0.0336171 0.15582 -0.987213 -0.0698548 0.143289 -0.987212 
-0.0398313 0.17983 -0.982891 -0.0307554 0.0971316 -0.994796 -0.0806194 0.190064 -0.978456 
-0.0645401 0.131045 -0.989273 0.0200847 0.00804551 -0.999766 0.00431724 0.0359838 -0.999343 
-0.256974 0.139675 -0.956272 -0.101915 0.0586325 -0.993064 -0.279592 0.124183 -0.952054 
0.610542 0.181674 -0.770865 0.58623 0.183685 -0.789047 0.236441 0.184995 -0.953872 
0.0237113 0.160177 -0.986803 -0.0704938 0.10036 -0.992451 -0.0287958 0.0608902 -0.997729 
-0.0668176 0.120362 -0.990479 -0.0325098 0.0538354 -0.99802 0.0106462 0.0718913 -0.997356 
-0.195548 0.147895 -0.969478 -0.0517522 0.0248366 -0.998351 0.0477829 0.0470591 -0.997749 
-0.0695412 0.0617171 -0.995668 -0.287758 0.0700735 -0.955136 -0.248646 0.0635087 -0.96651 
0.65342 -0.032747 -0.756287 0.580742 -0.029878 -0.813539 0.225204 -0.00801961 -0.974279 
0.0089712 -0.0152001 -0.999844 -0.126817 0.00707332 -0.991901 -0.0529157 -0.0105535 -0.998543 
-0.0385125 -0.0599521 -0.997458 -0.0909138 0.112294 -0.989507 0.000957393 0.0430685 -0.999072 
-0.123844 0.00226698 -0.992299 -0.05941 0.0865467 -0.994475 0.0421575 0.0535063 -0.997677 
-0.0848444 0.0240825 -0.996103 -0.325007 -0.0233671 -0.945423 -0.276957 -0.0161507 -0.960747 
0.595155 -0.327343 -0.733919 0.594626 -0.32833 -0.733907 0.594296 -0.327361 -0.734607 
0.257182 -0.263506 -0.929743 0.0384781 -0.167489 -0.985123 -0.0690387 -0.0846668 -0.994015 
-0.0948899 -0.00722429 -0.995462 0.0444297 -0.0710934 -0.99648 0.0671149 0.0111741 -0.997683 
-0.0934749 0.106618 -0.989897 -0.131049 0.0829713 -0.987898 -0.0285852 0.122454 -0.992063 
-0.0137281 0.0221277 -0.999661 -0.137414 -0.0648863 -0.988386 -0.326455 -0.146323 -0.933819 
-0.322603 -0.15774 -0.933298 -0.313883 -0.143202 -0.9386 0.426344 -0.538156 -0.727061 
0.407077 -0.553784 -0.726369 0.398743 -0.532054 -0.746942 0.356024 -0.507901 -0.7844 
0.205828 -0.368109 -0.906714 0.0441645 -0.1909 -0.980615 -0.0370521 -0.0226149 -0.999057 
-0.0203742 -0.00911698 -0.999751 0.100344 -0.0822164 -0.99155 0.0655155 0.00447381 -0.997842 
-0.10382 0.109405 -0.98856 -0.127569 0.0661655 -0.98962 -0.145058 -0.0488988 -0.988214 
-0.299358 -0.220092 -0.92841 -0.294394 -0.260814 -0.919406 -0.241192 -0.186986 -0.952293 
0.356067 -0.483189 -0.79984 0.330177 -0.487047 -0.808559 0.261833 -0.357555 -0.896436 
0.0880867 -0.199709 -0.975888 -0.0126216 -0.147334 -0.989006 0.0811769 -0.15071 -0.98524 
0.0957204 -0.182471 -0.978541 -0.0661123 -0.143939 -0.987376 -0.181881 -0.148759 -0.972003 
-0.317872 -0.31794 -0.893237 -0.296493 -0.390613 -0.871501 -0.274225 -0.269932 -0.923005 
0.196542 -0.570262 -0.797604 0.185639 -0.572077 -0.798916 0.18394 -0.565057 -0.804286 
0.0501881 -0.533894 -0.844061 0.0439846 -0.487735 -0.871883 0.0564957 -0.536686 -0.841888 
0.0580196 -0.475205 -0.87796 0.0565396 -0.603306 -0.795503 0.0624398 -0.505604 -0.860503 
-0.0618266 -0.610829 -0.789345 -0.0633615 -0.501713 -0.86271 -0.259082 -0.508622 -0.821085 
-0.240655 -0.527988 -0.814441 -0.243218 -0.497356 -0.832756 
