# vtk DataFile Version 4.2
vtk output
ASCII
DATASET POLYDATA
POINTS 584 float
-48.7095 -38.2512 -13.5495 -40.2792 -38.2512 -13.5667 -31.8489 -38.2512 -15.4989 
-23.4185 -38.2512 -15.448 27.1635 -38.2512 -13.8809 35.5938 -38.2512 -13.1198 
44.0242 -38.2512 -13.8854 -57.1399 -29.8208 -14.1433 -48.7095 -29.8208 -15.8395 
-40.2792 -29.8208 -16.4192 -31.8489 -29.8208 -17.2506 -23.4185 -29.8208 -16.4946 
-14.9882 -29.8208 -16.0144 -6.55784 -29.8208 -13.0414 10.3028 -29.8208 -13.1967 
18.7332 -29.8208 -15.0762 27.1635 -29.8208 -17.0931 35.5938 -29.8208 -16.2337 
44.0242 -29.8208 -15.5822 52.4545 -29.8208 -14.4076 -57.1399 -21.3905 -15.5801 
-48.7095 -21.3905 -18.1094 -40.2792 -21.3905 -18.5253 -31.8489 -21.3905 -18.007 
-23.4185 -21.3905 -17.3988 -14.9882 -21.3905 -16.318 -6.55784 -21.3905 -15.7276 
10.3028 -21.3905 -14.1872 18.7332 -21.3905 -16.7229 27.1635 -21.3905 -18.1402 
35.5938 -21.3905 -18.3127 44.0242 -21.3905 -16.739 52.4545 -21.3905 -14.7621 
-65.5702 -12.9602 -14.4235 -57.1399 -12.9602 -17.8854 -48.7095 -12.9602 -18.7812 
-40.2792 -12.9602 -19.2196 -31.8489 -12.9602 -18.6657 -23.4185 -12.9602 -17.3564 
-14.9882 -12.9602 -15.6426 -6.55784 -12.9602 -17.87 1.8725 -12.9602 -17.6973 
10.3028 -12.9602 -15.3112 18.7332 -12.9602 -17.5065 27.1635 -12.9602 -18.4588 
35.5938 -12.9602 -18.5489 44.0242 -12.9602 -17.6444 52.4545 -12.9602 -16.2516 
60.8849 -12.9602 -13.015 -65.5702 -4.52984 -14.7195 -57.1399 -4.52984 -18.4006 
-48.7095 -4.52984 -19.2534 -40.2792 -4.52984 -19.364 -31.8489 -4.52984 -18.5825 
-23.4185 -4.52984 -17.3114 -14.9882 -4.52984 -17.9181 -6.55784 -4.52984 -19.2742 
1.8725 -4.52984 -15.7979 10.3028 -4.52984 -18.9974 18.7332 -4.52984 -17.2087 
27.1635 -4.52984 -17.824 35.5938 -4.52984 -18.2501 44.0242 -4.52984 -18.0008 
52.4545 -4.52984 -16.8256 60.8849 -4.52984 -13.9333 -65.5702 3.9005 -14.3707 
-57.1399 3.9005 -17.915 -48.7095 3.9005 -18.5594 -40.2792 3.9005 -18.7457 
-31.8489 3.9005 -17.8933 -23.4185 3.9005 -16.4247 -14.9882 3.9005 -17.4085 
-6.55784 3.9005 -20.8176 1.8725 3.9005 -17.2685 10.3028 3.9005 -19.8895 
18.7332 3.9005 -15.4279 27.1635 3.9005 -16.6887 35.5938 3.9005 -17.6887 
44.0242 3.9005 -17.7318 52.4545 3.9005 -16.7867 60.8849 3.9005 -13.9345 
-57.1399 12.3308 -16.5275 -48.7095 12.3308 -17.6993 -40.2792 12.3308 -18.2917 
-31.8489 12.3308 -18.3036 -23.4185 12.3308 -17.551 -14.9882 12.3308 -17.0812 
-6.55784 12.3308 -18.0588 1.8725 12.3308 -15.8241 10.3028 12.3308 -15.1796 
18.7332 12.3308 -15.9034 27.1635 12.3308 -16.8677 35.5938 12.3308 -17.736 
44.0242 12.3308 -17.318 52.4545 12.3308 -16.417 60.8849 12.3308 -13.3069 
-57.1399 20.7612 -13.4866 -48.7095 20.7612 -17.4515 -40.2792 20.7612 -18.9054 
-31.8489 20.7612 -18.6194 -23.4185 20.7612 -18.7348 -14.9882 20.7612 -18.5295 
-6.55784 20.7612 -17.919 1.8725 20.7612 -16.6686 10.3028 20.7612 -16.0407 
18.7332 20.7612 -16.7474 27.1635 20.7612 -17.5771 35.5938 20.7612 -18.7038 
44.0242 20.7612 -16.4425 52.4545 20.7612 -14.9709 -48.7095 29.1915 -15.2787 
-40.2792 29.1915 -17.6205 -31.8489 29.1915 -18.6699 -23.4185 29.1915 -19.3727 
-14.9882 29.1915 -18.8131 -6.55784 29.1915 -18.338 1.8725 29.1915 -17.6044 
10.3028 29.1915 -17.5551 18.7332 29.1915 -16.8834 27.1635 29.1915 -17.0575 
35.5938 29.1915 -16.0968 44.0242 29.1915 -15.0959 52.4545 29.1915 -13.4823 
-40.2792 37.6218 -14.4329 -31.8489 37.6218 -16.7369 -23.4185 37.6218 -17.6166 
-14.9882 37.6218 -17.3643 -6.55784 37.6218 -17.1639 1.8725 37.6218 -16.6257 
10.3028 37.6218 -15.9505 18.7332 37.6218 -15.2647 27.1635 37.6218 -14.7181 
-48.7095 -39.0029 -12.9647 -40.2792 -39.2429 -12.9647 -40.2792 -46.6815 -5.11797 
-31.8489 -41.7261 -12.9647 -31.8489 -46.6815 -4.59044 -23.4185 -41.8853 -12.9647 
27.1635 -39.6431 -12.9647 35.5938 -38.4805 -12.9647 35.5938 -46.6815 -5.5231 
44.0242 -39.4833 -12.9647 -49.8273 -38.2512 -12.9647 -57.1399 -31.9194 -12.9647 
-57.1399 -38.2512 -7.02754 -16.7437 -38.2512 -12.9647 -14.9882 -36.5273 -12.9647 
-14.9882 -38.2512 -10.8398 -6.55784 -29.9542 -12.9647 10.3028 -30.31 -12.9647 
10.3028 -38.2512 -5.74444 23.6485 -38.2512 -12.9647 18.7332 -34.9803 -12.9647 
18.7332 -38.2512 -10.8092 45.7418 -38.2512 -12.9647 52.4545 -32.2497 -12.9647 
52.4545 -38.2512 -6.66048 -59.3655 -29.8208 -12.9647 -65.5702 -29.8208 -7.18818 
-6.38099 -29.8208 -12.9647 9.70074 -29.8208 -12.9647 1.8725 -29.8208 -8.55403 
54.7674 -29.8208 -12.9647 60.8849 -29.8208 -7.24716 -63.1708 -21.3905 -12.9647 
-65.5702 -18.3155 -12.9647 -65.5702 -21.3905 -11.7467 1.50575 -21.3905 -12.9647 
2.72953 -21.3905 -12.9647 1.8725 -21.099 -12.9647 1.8725 -21.3905 -12.8384 
58.254 -21.3905 -12.9647 60.8849 -13.468 -12.9647 60.8849 -21.3905 -11.9128 
69.3152 -21.3905 -5.01132 -67.4493 -12.9602 -12.9647 60.9814 -12.9602 -12.9647 
69.3152 -12.9602 -8.16199 -67.8333 -4.52984 -12.9647 63.1002 -4.52984 -12.9647 
69.3152 -4.52984 -10.3123 -67.37 3.9005 -12.9647 -65.5702 11.1894 -12.9647 
63.0796 3.9005 -12.9647 69.3152 3.9005 -10.2339 -64.9225 12.3308 -12.9647 
-65.5702 12.3308 -12.5839 61.5701 12.3308 -12.9647 60.8849 20.5869 -12.9647 
69.3152 12.3308 -8.40638 -58.1061 20.7612 -12.9647 -65.5702 20.7612 -7.13841 
-57.1399 23.9888 -12.9647 60.8512 20.7612 -12.9647 60.8849 20.7612 -12.9555 
-54.8359 29.1915 -12.9647 -57.1399 29.1915 -11.5369 -48.7095 34.3499 -12.9647 
35.5938 36.3906 -12.9647 44.0242 32.1854 -12.9647 53.2864 29.1915 -12.9647 
52.4545 29.9095 -12.9647 60.8849 29.1915 -4.74844 -44.2825 37.6218 -12.9647 
-48.7095 37.6218 -9.7409 -40.2792 39.3061 -12.9647 -31.8489 42.51 -12.9647 
-23.4185 43.519 -12.9647 -14.9882 44.0462 -12.9647 -6.55784 43.9971 -12.9647 
1.8725 43.4902 -12.9647 10.3028 42.7631 -12.9647 18.7332 41.2752 -12.9647 
33.6973 37.6218 -12.9647 27.1635 40.1275 -12.9647 35.5938 37.6218 -12.1255 
44.0242 37.6218 -7.48056 -31.8489 46.0522 -5.27908 -23.4185 46.0522 -8.03623 
-14.9882 46.0522 -8.35205 -6.55784 46.0522 -7.56435 1.8725 46.0522 -7.36112 
10.3028 46.0522 -7.45567 18.7332 46.0522 -6.88309 -40.2792 -46.9426 -4.53434 
-31.8489 -46.7063 -4.53434 35.5938 -47.2466 -4.53434 -57.1399 -40.2045 -4.53434 
-41.2263 -46.6815 -4.53434 -48.7095 -44.4163 -4.53434 -40.2792 -46.6815 -3.70411 
-31.7428 -46.6815 -4.53434 -31.8489 -46.6815 -4.46455 -23.4185 -44.5981 -4.53434 
-14.9882 -40.7836 -4.53434 10.3028 -38.9225 -4.53434 18.7332 -42.6022 -4.53434 
32.425 -46.6815 -4.53434 27.1635 -45.6783 -4.53434 37.3348 -46.6815 -4.53434 
35.5938 -46.6815 -0.651426 44.0242 -44.4015 -4.53434 52.4545 -40.0261 -4.53434 
-59.5501 -38.2512 -4.53434 -65.5702 -32.2497 -4.53434 -10.1974 -38.2512 -4.53434 
-14.9882 -38.2512 0.994195 -6.55784 -35.084 -4.53434 9.25425 -38.2512 -4.53434 
1.8725 -33.0426 -4.53434 10.3028 -38.2512 -2.73118 55.0863 -38.2512 -4.53434 
60.8849 -33.2435 -4.53434 -67.4599 -29.8208 -4.53434 -6.55784 -29.8208 1.76442 
1.8725 -29.8208 1.17866 63.6768 -29.8208 -4.53434 69.3152 -22.08 -4.53434 
-71.3226 -21.3905 -4.53434 69.753 -21.3905 -4.53434 -73.5942 -12.9602 -4.53434 
72.7758 -12.9602 -4.53434 -73.7879 -4.52984 -4.53434 -74.0005 -4.52984 3.83164 
75.0572 -4.52984 -4.53434 -72.9648 3.9005 -4.53434 74.8945 3.9005 -4.53434 
-70.8064 12.3308 -4.53434 72.9268 12.3308 -4.53434 69.3152 20.583 -4.53434 
-67.2455 20.7612 -4.53434 -65.5702 23.7058 -4.53434 69.2258 20.7612 -4.53434 
69.3152 20.7612 -4.24269 -61.7885 29.1915 -4.53434 -57.1399 33.8473 -4.53434 
52.4545 35.042 -4.53434 61.0782 29.1915 -4.53434 60.8849 29.3598 -4.53434 
-52.1368 37.6218 -4.53434 -48.7095 39.724 -4.53434 -40.2792 43.7107 -4.53434 
27.1635 45.7317 -4.53434 35.5938 42.8586 -4.53434 47.556 37.6218 -4.53434 
44.0242 39.3672 -4.53434 -32.6931 46.0522 -4.53434 -31.8489 46.321 -4.53434 
-31.8489 46.0522 -3.35729 -23.4185 47.2344 -4.53434 -23.4185 46.0522 1.28827 
-14.9882 47.181 -4.53434 -14.9882 46.0522 1.46727 -6.55784 46.8149 -4.53434 
-6.55784 46.0522 -0.842958 1.8725 46.8581 -4.53434 1.8725 46.0522 -0.933044 
10.3028 47.0436 -4.53434 10.3028 46.0522 1.76007 25.312 46.0522 -4.53434 
18.7332 47.1018 -4.53434 -57.1399 -40.0826 3.89599 -48.7095 -43.0693 3.89599 
-40.2792 -43.9967 3.89599 -31.8489 -42.285 3.89599 -23.4185 -41.3886 3.89599 
18.7332 -40.5398 3.89599 27.1635 -43.8257 3.89599 35.5938 -45.9095 3.89599 
44.0242 -44.5339 3.89599 52.4545 -41.453 3.89599 -59.6401 -38.2512 3.89599 
-65.5702 -33.3173 3.89599 -57.1399 -38.2512 6.84664 -48.7095 -38.2512 9.73773 
-40.2792 -38.2512 9.71587 -31.8489 -38.2512 8.21091 -18.2842 -38.2512 3.89599 
-23.4185 -38.2512 5.90125 -14.9882 -35.9603 3.89599 14.9388 -38.2512 3.89599 
10.3028 -34.6892 3.89599 18.7332 -38.2512 6.60096 35.5938 -38.2512 11.796 
57.7001 -38.2512 3.89599 52.4545 -38.2512 9.82639 60.8849 -35.905 3.89599 
-68.3715 -29.8208 3.89599 -65.5702 -29.8208 8.12455 -23.4185 -29.8208 10.6635 
-8.52192 -29.8208 3.89599 -14.9882 -29.8208 7.11408 -6.55784 -27.5382 3.89599 
4.3337 -29.8208 3.89599 1.8725 -26.8368 3.89599 10.3028 -29.8208 8.14041 
18.7332 -29.8208 12.1794 66.4072 -29.8208 3.89599 69.3152 -26.2235 3.89599 
-72.0686 -21.3905 3.89599 -14.9882 -21.3905 10.4811 -6.55784 -21.3905 6.54362 
1.8725 -21.3905 7.1228 10.3028 -21.3905 11.316 72.5373 -21.3905 3.89599 
69.3152 -21.3905 10.6267 -73.9379 -12.9602 3.89599 -74.0005 -4.73793 3.89599 
-6.55784 -12.9602 9.18107 75.5495 -12.9602 3.89599 -74.0019 -4.52984 3.89599 
-74.0005 -4.51696 3.89599 -74.0005 -4.52984 3.89861 77.5772 -4.52984 3.89599 
-73.0599 3.9005 3.89599 77.4098 3.9005 3.89599 -70.6171 12.3308 3.89599 
-65.5702 12.3308 11.4066 75.2828 12.3308 3.89599 -66.658 20.7612 3.89599 
-65.5702 22.6216 3.89599 -65.5702 20.7612 5.46594 71.3453 20.7612 3.89599 
69.3152 23.1326 3.89599 69.3152 20.7612 7.96967 -60.4916 29.1915 3.89599 
-57.1399 32.2724 3.89599 -57.1399 29.1915 7.37918 -48.7095 29.1915 12.1386 
52.4545 35.0117 3.89599 62.2505 29.1915 3.89599 60.8849 30.2438 3.89599 
60.8849 29.1915 5.99916 -49.0628 37.6218 3.89599 -48.7095 37.8135 3.89599 
-48.7095 37.6218 4.17251 -40.2792 41.3406 3.89599 -40.2792 37.6218 9.43659 
-31.8489 44.0684 3.89599 -31.8489 37.6218 11.219 -23.4185 45.4279 3.89599 
[...]
POINT_DATA 584
SCALARS ImageScalars float
LOOKUP_TABLE default
0 0 0 0 0 0 0 0 0 
0 0 0 0 0 0 0 0 0 
0 0 0 0 0 0 0 0 0 
0 0 0 0 0 0 0 0 0 
0 0 0 0 0 0 0 0 0 
0 0 0 0 0 0 0 0 0 
0 0 0 0 0 0 0 0 0 
0 0 0 0 0 0 0 0 0 
0 0 0 0 0 0 0 0 0 
0 0 0 0 0 0 0 0 0 
0 0 0 0 0 0 0 0 0 
0 0 0 0 0 0 0 0 0 
0 0 0 0 0 0 0 0 0 
0 0 0 0 0 0 0 0 0 
0 0 0 0 0 0 0 0 0 
0 0 0 0 0 0 0 0 0 
0 0 0 0 0 0 0 0 0 
0 0 0 0 0 0 0 0 0 
0 0 0 0 0 0 0 0 0 
0 0 0 0 0 0 0 0 0 
0 0 0 0 0 0 0 0 0 
0 0 0 0 0 0 0 0 0 
0 0 0 0 0 0 0 0 0 
0 0 0 0 0 0 0 0 0 
0 0 0 0 0 0 0 0 0 
0 0 0 0 0 0 0 0 0 
0 0 0 0 0 0 0 0 0 
0 0 0 0 0 0 0 0 0 
0 0 0 0 0 0 0 0 0 
0 0 0 0 0 0 0 0 0 
0 0 0 0 0 0 0 0 0 
0 0 0 0 0 0 0 0 0 
0 0 0 0 0 0 0 0 0 
0 0 0 0 0 0 0 0 0 
0 0 0 0 0 0 0 0 0 
0 0 0 0 0 0 0 0 0 
0 0 0 0 0 0 0 0 0 
0 0 0 0 0 0 0 0 0 
0 0 0 0 0 0 0 0 0 
0 0 0 0 0 0 0 0 0 
0 0 0 0 0 0 0 0 0 
0 0 0 0 0 0 0 0 0 
0 0 0 0 0 0 0 0 0 
0 0 0 0 0 0 0 0 0 
0 0 0 0 0 0 0 0 0 
0 0 0 0 0 0 0 0 0 
0 0 0 0 0 0 0 0 0 
0 0 0 0 0 0 0 0 0 
0 0 0 0 0 0 0 0 0 
0 0 0 0 0 0 0 0 0 
0 0 0 0 0 0 0 0 0 
0 0 0 0 0 0 0 0 0 
0 0 0 0 0 0 0 0 0 
0 0 0 0 0 0 0 0 0 
0 0 0 0 0 0 0 0 0 
0 0 0 0 0 0 0 0 0 
0 0 0 0 0 0 0 0 0 
0 0 0 0 0 0 0 0 0 
0 0 0 0 0 0 0 0 0 
0 0 0 0 0 0 0 0 0 
0 0 0 0 0 0 0 0 0 
0 0 0 0 0 0 0 0 0 
0 0 0 0 0 0 0 0 0 
0 0 0 0 0 0 0 0 0 
0 0 0 0 0 0 0 0 
NORMALS Normals float
0.256047 0.497485 0.828824 0.122965 0.410844 0.903375 0.0855698 0.414728 0.905913 
-0.172984 0.400867 0.899657 0.0875075 0.491864 0.866263 0.00986403 0.486221 0.87378 
-0.237576 0.464243 0.85325 0.346684 0.354819 0.868282 0.164542 0.337926 0.926678 
0.072654 0.251257 0.96519 0.00203692 0.162651 0.986682 -0.0663668 0.119909 0.990564 
-0.200657 0.22065 0.95449 -0.438289 0.509526 0.740464 0.326846 0.318662 0.889734 
0.21982 0.272909 0.936589 0.0645423 0.250789 0.965888 -0.0766762 0.265495 0.961058 
-0.134738 0.208431 0.968712 -0.375656 0.308803 0.873798 0.384243 0.21373 0.898152 
0.142566 0.140734 0.979729 -0.00260037 0.15906 0.987265 -0.0654633 0.0800314 0.99464 
-0.101773 0.0500813 0.993546 -0.0976987 -0.0236782 0.994934 -0.183479 0.238455 0.953664 
0.22314 0.126741 0.966512 0.21725 0.137502 0.966383 0.0931905 0.0759191 0.99275 
-0.0776677 0.127397 0.988806 -0.201549 0.107857 0.973522 -0.26892 0.10955 0.956912 
0.531416 0.153322 0.83312 0.272493 0.144682 0.951217 0.0722303 0.074682 0.994588 
-0.00760852 0.0482145 0.998808 -0.111615 0.0344911 0.993153 -0.17697 -0.00510225 0.984203 
-0.00574726 0.0680827 0.997663 0.147077 0.22853 0.962363 -0.165302 0.179007 0.969862 
0.0270175 0.262729 0.964491 0.177435 0.0279951 0.983734 0.0611287 -0.0188153 0.997953 
-0.047688 -0.00299903 0.998858 -0.129735 0.0721184 0.988923 -0.263486 0.11632 0.957625 
-0.418346 0.0968689 0.903107 0.541403 -0.00403192 0.840754 0.277391 0.001792 0.960755 
0.0513329 -0.0133461 0.998592 -0.0398251 -0.0280633 0.998812 -0.120839 -0.0453424 0.991636 
-0.0466827 -0.0550951 0.997389 0.120364 0.13466 0.983554 -0.106 0.145405 0.983678 
-0.00105629 -0.0249452 0.999688 0.0406807 0.250537 0.967252 -0.0600779 -0.125691 0.990249 
0.0618778 -0.105496 0.992493 0.0109354 -0.0512847 0.998624 -0.0893705 0.0051965 0.995985 
-0.220733 0.0281335 0.974928 -0.357143 0.0486083 0.932784 0.551028 -0.120594 0.825727 
0.271033 -0.0931105 0.958056 0.0433967 -0.0911933 0.994887 -0.0394978 -0.0634453 0.997203 
-0.140303 -0.0167928 0.989966 -0.0491065 0.0143275 0.998691 0.252657 -0.0540239 0.966046 
-0.0186477 -0.0847969 0.996224 -0.0885284 -0.011394 0.996008 -0.197506 -0.230569 0.952801 
-0.0711369 -0.08227 0.994068 0.133098 -0.0563361 0.989501 0.0615001 -0.0303843 0.997644 
-0.05725 -0.0401334 0.997553 -0.206396 -0.0220152 0.978221 -0.359093 -0.033262 0.932709 
0.319302 -0.230057 0.919304 0.0931811 -0.0693742 0.993229 0.0345656 0.00776647 0.999372 
-0.0436697 0.0428615 0.998126 -0.0732316 0.138484 0.987653 0.0255596 0.0776762 0.996651 
-0.0616921 -0.13489 0.988938 -0.16362 -0.0121257 0.986449 0.00658789 -0.117825 0.993013 
0.0956933 0.0813556 0.992081 0.102909 0.0524059 0.993309 0.0267192 0.0566979 0.998034 
-0.0744034 -0.0744933 0.994442 -0.228166 -0.0963313 0.968845 -0.400786 -0.0570708 0.914392 
0.506996 -0.220425 0.833288 0.249291 -0.104885 0.962732 0.0910471 -0.0340249 0.995265 
-0.00933883 0.0219625 0.999715 -0.00528505 0.106153 0.994336 -0.0479502 0.10166 0.993663 
-0.1109 0.0175044 0.993677 -0.110699 0.10024 0.988786 0.00506155 0.133858 0.990988 
0.0877959 0.053118 0.994721 0.111464 0.00965718 0.993722 -0.0610113 -0.0862722 0.994402 
-0.195421 -0.110498 0.974475 -0.230325 -0.1891 0.954564 0.317702 -0.360819 0.876855 
0.183302 -0.215365 0.959176 0.0939449 -0.104759 0.99005 0.0120713 -0.0497336 0.99869 
-0.0601033 -0.0684281 0.995844 -0.0711684 -0.0453369 0.996433 -0.0464778 -0.00300336 0.998915 
-0.0430148 -0.00981934 0.999026 -0.0285311 -0.0786968 0.99649 -0.0426778 -0.165329 0.985315 
-0.104992 -0.315093 0.943235 -0.174039 -0.384982 0.906366 -0.388981 -0.447974 0.804992 
0.308929 -0.54092 0.782284 0.147272 -0.445306 0.883184 0.0374644 -0.423209 0.905257 
-0.0252752 -0.374881 0.926728 -0.0461916 -0.354118 0.93406 -0.0751466 -0.332891 0.939966 
-0.0771822 -0.344701 0.935534 -0.0757198 -0.361754 0.929193 -0.139492 -0.469445 0.871873 
0.27353 0.538838 0.796765 0.126196 0.445557 0.886315 0.126474 0.985932 0.109279 
0.0808424 0.60255 0.793976 -0.125525 0.991063 0.0451453 -0.205085 0.694209 0.689938 
0.0919456 0.554827 0.826869 0.0083234 0.494575 0.869095 -0.085353 0.948642 0.30462 
-0.26651 0.545476 0.794625 0.305659 0.526001 0.793659 0.421324 0.445321 0.790048 
0.597829 0.681245 0.422499 -0.421745 0.595517 0.683733 -0.427819 0.560525 0.709071 
-0.496032 0.723843 0.479587 -0.440118 0.515588 0.735163 0.335318 0.337429 0.879604 
0.53501 0.821677 0.196496 0.173322 0.522542 0.834811 0.268053 0.441855 0.856103 
0.347193 0.659622 0.6666 -0.309259 0.526591 0.791872 -0.436474 0.445186 0.781856 
-0.542363 0.698965 0.466144 0.460036 0.410882 0.787111 0.706353 0.545376 0.451254 
-0.429058 0.513413 0.74318 0.306875 0.336289 0.890358 0.11444 0.816247 0.566255 
-0.424513 0.371905 0.825515 -0.613387 0.493712 0.616445 0.498422 0.255997 0.828276 
0.540917 0.243116 0.805173 0.57623 0.295595 0.76196 -0.103403 0.386805 0.916346 
-0.0654985 0.369616 0.926873 -0.0984413 0.387623 0.916547 -0.098157 0.398988 0.911687 
-0.413954 0.213639 0.884873 -0.422717 0.107219 0.899897 -0.493798 0.279642 0.823385 
-0.706869 0.419462 0.569551 0.600106 0.15881 0.783997 -0.419722 0.0983165 0.902312 
-0.635417 0.291886 0.714876 0.62672 -0.00490912 0.779229 -0.377568 0.0595242 0.924067 
-0.516961 0.113456 0.848457 0.624116 -0.131495 0.770187 0.575152 -0.248965 0.779241 
-0.382333 -0.0416312 0.923086 -0.531844 -0.0997245 0.84095 0.556129 -0.265084 0.787687 
0.590129 -0.269094 0.761142 -0.413584 -0.0681719 0.90791 -0.440303 -0.294719 0.8481 
-0.652889 -0.300967 0.695093 0.543505 -0.239045 0.804649 0.79661 -0.482794 0.363762 
0.531887 -0.284652 0.79754 -0.439999 -0.298884 0.846799 -0.440974 -0.299529 0.846064 
0.482473 -0.408568 0.774785 0.584694 -0.453571 0.672612 0.406495 -0.550842 0.728927 
-0.288556 -0.538595 0.791613 -0.231699 -0.517019 0.824019 -0.418733 -0.466337 0.779226 
-0.398516 -0.478512 0.78244 -0.6057 -0.71661 0.345828 0.392774 -0.598354 0.698356 
0.507282 -0.741611 0.43895 0.332832 -0.632166 0.699707 0.169414 -0.735692 0.655787 
0.0732628 -0.741034 0.667459 0.020308 -0.762882 0.646219 -0.0235467 -0.761018 0.648303 
-0.0505898 -0.712832 0.699508 -0.0855367 -0.630982 0.771067 -0.107924 -0.57105 0.81379 
-0.275012 -0.558075 0.782892 -0.165431 -0.594697 0.786745 -0.323624 -0.612953 0.720803 
-0.399298 -0.821851 0.406352 0.208164 -0.972578 0.103727 0.0662723 -0.95751 0.280681 
-0.00586113 -0.959268 0.282437 -0.0184785 -0.978146 0.207094 -0.0012139 -0.978034 0.208443 
-0.0142786 -0.963299 0.26805 -0.0973275 -0.952923 0.287167 0.121221 0.99035 0.0671681 
-0.125844 0.991183 0.0414761 -0.0786382 0.969865 0.230605 0.580299 0.750597 0.316003 
0.147675 0.985995 0.0774981 0.386409 0.901159 0.196469 0.114859 0.993173 0.0203642 
-0.128301 0.990855 0.041788 -0.125573 0.991387 0.0372054 -0.348 0.937353 0.0163164 
-0.481511 0.87466 -0.0558331 0.533553 0.840809 0.0914434 0.408981 0.901844 0.139323 
0.0476545 0.978817 0.199111 0.237623 0.959789 0.149467 -0.141181 0.960786 0.238661 
-0.0391398 0.998153 -0.0464543 -0.352645 0.895458 0.271656 -0.532411 0.740777 0.40962 
0.633087 0.698381 0.333863 0.705122 0.608495 0.364056 -0.48314 0.871108 -0.0880172 
-0.483836 0.757806 -0.437758 -0.48037 0.869027 -0.118476 0.49368 0.864575 0.0937548 
0.18051 0.977921 0.105297 0.555053 0.831264 -0.0302614 -0.571622 0.708643 0.413609 
-0.643736 0.59466 0.481646 0.754313 0.545235 0.365692 -0.362055 0.699477 -0.616157 
0.2811 0.819286 -0.499753 -0.704691 0.538433 0.462062 -0.718763 0.444408 0.534679 
0.873763 0.322487 0.364062 -0.721131 0.42972 0.543425 0.935302 0.136541 0.326444 
-0.810907 0.301169 0.501724 0.950286 -0.0302828 0.309901 0.965562 -0.0512733 -0.255071 
-0.904387 0.112238 0.411687 0.932943 -0.179283 0.312211 -0.902705 -0.110544 0.415818 
0.92035 -0.28521 0.267603 -0.822215 -0.319543 0.471015 -0.749006 -0.482438 0.45414 
0.842362 -0.476135 0.252433 0.814357 -0.52598 0.245293 -0.748196 -0.485425 0.452289 
-0.75392 -0.491579 0.435838 0.759247 -0.618457 0.202619 0.668821 -0.726184 0.159171 
-0.494534 -0.835448 0.239715 -0.606998 -0.718831 0.338873 -0.604555 -0.721604 0.337343 
0.56916 -0.815569 0.10442 0.509835 -0.857149 0.07324 0.352758 -0.934684 0.0438988 
-0.234697 -0.95361 0.188532 -0.360458 -0.911852 0.19646 -0.440347 -0.867694 0.230655 
-0.410012 -0.885793 0.217397 0.223804 -0.972819 0.0594577 0.21033 -0.975608 0.0628594 
0.212888 -0.977077 -3.54456e-06 0.0487084 -0.996997 0.0601988 0.0647377 -0.96761 -0.244007 
-0.0248214 -0.998522 0.0483605 -0.0271534 -0.970654 -0.238941 -0.0191398 -0.999656 0.0179426 
-0.0276807 -0.98976 -0.140029 0.0135463 -0.999521 0.0278399 0.0249552 -0.990594 -0.134537 
0.0140653 -0.996713 0.0797773 0.0564046 -0.974325 -0.217966 -0.196911 -0.963764 0.17996 
-0.073606 -0.985448 0.15321 0.497975 0.826758 -0.261708 0.205609 0.884861 -0.418026 
-0.0190354 0.854435 -0.519209 -0.121316 0.772879 -0.622848 -0.288504 0.665351 -0.68853 
0.409588 0.80079 -0.437006 0.286328 0.869856 -0.401705 0.0186997 0.932514 -0.36065 
-0.227659 0.936129 -0.268017 -0.463252 0.87179 -0.159309 0.556277 0.786001 -0.269736 
0.703291 0.666398 -0.247577 0.485801 0.775335 -0.40355 0.0927125 0.727357 -0.679968 
-0.0580238 0.600083 -0.797831 -0.200682 0.666267 -0.718203 -0.387749 0.629359 -0.673467 
-0.275898 0.55755 -0.782955 -0.442042 0.594007 -0.672126 0.475218 0.747706 -0.463792 
0.559013 0.667473 -0.491919 0.421303 0.707133 -0.567861 0.0412442 0.638816 -0.768253 
-0.569521 0.811734 -0.12936 -0.396575 0.727013 -0.560517 -0.639177 0.761609 -0.106793 
0.810505 0.538106 -0.23135 0.707132 0.559898 -0.431832 -0.347282 0.425818 -0.835508 
-0.328709 0.552545 -0.765928 -0.381789 0.400207 -0.83311 -0.279938 0.515188 -0.810072 
0.371537 0.646073 -0.666745 0.283793 0.6117 -0.738434 0.522661 0.485983 -0.700461 
0.337585 0.382253 -0.860185 -0.754324 0.653119 -0.0665561 -0.819257 0.57041 -0.0587454 
0.921556 0.313822 -0.228585 -0.40675 0.300477 -0.86271 -0.192451 0.316377 -0.928907 
0.287265 0.545124 -0.787603 0.399652 0.254857 -0.880526 -0.891347 0.450462 -0.050847 
-0.687648 0.433125 -0.582703 0.959399 0.107115 -0.26092 0.964667 -0.0474861 -0.259157 
0.019275 0.508976 -0.860565 -0.954015 0.296575 -0.0435739 0.964508 -0.0513713 -0.259008 
0.964481 -0.0515949 -0.259066 0.964471 -0.0513778 -0.259147 -0.993311 0.103072 -0.0520445 
0.941635 -0.189807 -0.278023 -0.990627 -0.123704 -0.0579202 0.895989 -0.33505 -0.291453 
0.623021 -0.316705 -0.715222 -0.932145 -0.353266 -0.0794269 0.808473 -0.495521 -0.317539 
0.781363 -0.528847 -0.331349 0.767226 -0.506227 -0.393826 -0.811715 -0.575472 -0.0997504 
-0.749488 -0.651556 -0.117229 -0.731127 -0.563793 -0.384176 0.668225 -0.647146 -0.366984 
0.597948 -0.705188 -0.38101 0.559316 -0.609462 -0.561891 0.324127 -0.530064 -0.783565 
-0.441059 -0.870328 -0.21908 -0.588132 -0.792537 -0.1612 -0.566873 -0.807142 -0.164854 
-0.56231 -0.779451 -0.276158 0.421959 -0.81211 -0.403024 0.415373 -0.814805 -0.404423 
0.415272 -0.809499 -0.415042 0.315801 -0.853891 -0.41369 0.268768 -0.701966 -0.659551 
0.208874 -0.871527 -0.443634 0.159879 -0.640884 -0.750804 0.0716947 -0.916746 -0.392985 
-0.0265349 -0.930169 -0.366172 -0.0375798 -0.928996 -0.368176 0.0406284 -0.922977 -0.382705 
0.0709331 -0.941336 -0.329931 -0.210073 -0.930499 -0.300068 -0.328462 -0.895069 -0.301603 
-0.241842 -0.751387 -0.613947 -0.397871 -0.888793 -0.227477 -0.378854 -0.895915 -0.231962 
-0.356534 -0.864307 -0.354764 -0.0219193 -0.950049 -0.31133 -0.0551121 -0.950197 -0.306738 
-0.0438171 -0.950521 -0.307556 -0.0437632 -0.948384 -0.31409 0.218533 0.576867 -0.787063 
-0.053124 0.69317 -0.718813 0.373238 0.546039 -0.750023 0.0283004 0.623518 -0.781297 
-0.0778779 0.512291 -0.855273 -0.220063 0.443576 -0.868799 0.218668 0.576755 -0.787108 
0.217322 0.577166 -0.787179 0.218518 0.576712 -0.78718 0.00377902 0.648943 -0.760827 
0.045399 0.609641 -0.791376 -0.145642 0.673135 -0.725036 -0.0502336 0.666739 -0.743596 
-0.327332 0.599144 -0.730671 -0.493217 0.532591 -0.687811 0.501518 0.472154 -0.724948 
0.586018 0.341576 -0.734784 0.306657 0.376461 -0.874207 0.05176 0.476251 -0.877785 
-0.136458 0.454055 -0.880462 -0.267439 0.403633 -0.874961 -0.221001 0.383615 -0.896659 
-0.348114 0.361483 -0.864955 0.335778 0.37642 -0.863459 0.337331 0.372396 -0.864597 
0.299554 0.329431 -0.895401 0.0965429 0.330565 -0.938832 -0.0653551 0.315056 -0.94682 
-0.256607 0.436 -0.862587 -0.511671 0.510487 -0.691083 -0.479524 0.489874 -0.728066 
0.586188 0.285332 -0.758267 0.550895 0.264104 -0.791684 0.33461 0.291395 -0.896172 
0.0678432 0.169689 -0.98316 -0.0875811 0.219017 -0.971783 -0.237207 0.276588 -0.931253 
-0.380308 0.291921 -0.877581 -0.345304 0.272143 -0.898166 -0.35245 0.142531 -0.924913 
0.235514 0.469475 -0.850956 0.376459 0.237064 -0.895589 0.268012 0.318364 -0.909293 
0.345261 0.212287 -0.914182 0.211678 0.143038 -0.966816 0.0879635 0.137357 -0.986608 
-0.040192 0.150931 -0.987727 -0.152586 0.147372 -0.977241 -0.587776 0.380189 -0.714126 
-0.425735 0.309488 -0.850275 -0.610616 0.368327 -0.701059 0.669781 0.0976055 -0.736116 
0.575519 0.0909783 -0.812712 0.285761 0.0832044 -0.954682 -0.0255759 0.0698041 -0.997233 
-0.0581078 0.0436443 -0.997356 -0.185884 0.0597867 -0.980751 -0.320717 0.0990142 -0.941985 
-0.315346 0.158415 -0.935661 -0.334936 0.117397 -0.934899 0.174306 0.498207 -0.849357 
0.110551 0.60198 -0.790821 0.177312 0.414962 -0.892394 0.148801 0.404111 -0.902526 
0.239147 0.0433786 -0.970014 0.199958 0.00623096 -0.979785 0.0955995 0.036224 -0.994761 
-0.0282522 0.04057 -0.998777 -0.0533417 0.109999 -0.992499 -0.319845 0.227298 -0.919802 
-0.673573 0.282794 -0.682882 -0.572991 0.272042 -0.773094 0.663887 -0.0544624 -0.745847 
0.543191 -0.0504494 -0.838092 0.271308 -0.0884577 -0.958419 0.0229364 -0.0357629 -0.999097 
-0.0817361 -0.00940272 -0.99661 -0.183449 -0.017367 -0.982876 -0.290201 0.0407072 -0.9561 
-0.0463817 0.117366 -0.992005 0.15678 0.505101 -0.848701 0.190448 0.20568 -0.959909 
-0.0237613 0.373099 -0.927487 -0.058273 0.0192804 -0.998114 0.217379 0.0179401 -0.975922 
0.126449 0.0236908 -0.99169 0.0336707 0.0256075 -0.999105 0.0191751 0.0518019 -0.998473 
-0.257023 0.072399 -0.96369 -0.773589 0.0950297 -0.626522 -0.514179 0.0929654 -0.85263 
0.608379 -0.18101 -0.772729 0.584425 -0.268004 -0.765912 0.543353 -0.16805 -0.822513 
0.305735 -0.130378 -0.943148 0.0634613 -0.0819221 -0.994616 -0.0410829 -0.0250364 -0.998842 
-0.133885 0.0572353 -0.989343 -0.174222 0.122466 -0.977061 0.145867 0.323709 -0.934845 
-0.0438302 0.131487 -0.990348 -0.0699206 -0.212811 -0.974588 -0.0314397 0.143627 -0.989132 
0.197825 0.0756721 -0.977312 0.107765 0.0334107 -0.993615 -0.0031408 0.00534264 -0.999981 
0.00965039 -0.0534554 -0.998524 -0.247157 -0.0816816 -0.965527 -0.764107 -0.136391 -0.630506 
-0.529731 -0.126414 -0.838692 0.560271 -0.301541 -0.771472 0.352226 -0.255955 -0.900235 
0.138558 -0.14811 -0.979217 0.0549062 -0.0601781 -0.996676 -0.0378867 0.00754433 -0.999254 
-0.0624934 0.0837453 -0.994526 0.134043 0.16985 -0.976311 -0.0134924 -0.139843 -0.990082 
-0.202632 0.041618 -0.97837 0.0468875 -0.0412604 -0.998048 0.12273 0.14357 -0.982001 
0.113591 0.0476691 -0.992383 0.0563202 -0.0580234 -0.996725 -0.0500224 -0.05705 -0.997117 
-0.087655 -0.157447 -0.98363 -0.345483 -0.290898 -0.892199 -0.635734 -0.341762 -0.692128 
-0.609567 -0.400163 -0.684323 -0.582249 -0.33622 -0.740231 0.483536 -0.368298 -0.794071 
0.478919 -0.370661 -0.795769 0.475447 -0.365062 -0.800425 0.31989 -0.517826 -0.793427 
0.259526 -0.275001 -0.925754 0.118234 -0.219611 -0.968396 0.0128814 -0.155269 -0.987788 
0.0043239 -0.0746622 -0.997199 0.0388958 -0.0130657 -0.999158 -0.0178707 -0.155481 -0.987677 
-0.0338397 -0.00441072 -0.999418 0.0580222 0.0461417 -0.997248 0.0525412 0.00867689 -0.998581 
0.00415864 -0.0873356 -0.99617 -0.00541583 -0.183509 -0.983003 -0.102615 -0.279299 -0.954705 
-0.1967 -0.286802 -0.937579 -0.563654 -0.476258 -0.674887 -0.470603 -0.589113 -0.656871 
-0.396896 -0.446468 -0.80196 0.314815 -0.518975 -0.794706 0.232309 -0.540816 -0.808425 
0.192399 -0.401131 -0.895587 0.145892 -0.573594 -0.806043 0.108552 -0.347675 -0.93131 
0.0833134 -0.275511 -0.957681 0.0481031 -0.242673 -0.968915 -0.00910302 -0.269143 -0.963057 
0.0102723 -0.230053 -0.973124 0.05184 -0.189933 -0.980428 -0.0116268 -0.226377 -0.97397 
-0.0817219 -0.286384 -0.954623 -0.204262 -0.653967 -0.728426 -0.146268 -0.393649 -0.90755 
-0.234064 -0.652492 -0.720742 -0.160184 -0.502498 -0.84961 -0.378693 -0.670215 -0.638282 
-0.32936 -0.688184 -0.646471 -0.309546 -0.641353 -0.70203 0.13177 -0.592707 -0.794566 
0.112448 -0.600838 -0.791422 0.109625 -0.557509 -0.822901 0.0184219 -0.638905 -0.769065 
0.0269444 -0.573534 -0.818739 -0.0113286 -0.66961 -0.742626 -0.00801999 -0.606435 -0.795093 
0.0514619 -0.660646 -0.748932 0.0521641 -0.604812 -0.794658 0.0633311 -0.685218 -0.725579 
0.0637955 -0.559597 -0.826306 -0.0472488 -0.680289 -0.731419 -0.0490635 -0.55954 -0.82735 
-0.203675 -0.663606 -0.719822 -0.193351 -0.659598 -0.726323 -0.180684 -0.5987 -0.780328 
0.129207 0.217181 -0.967542 0.135706 0.195769 -0.971215 0.0977193 0.175757 -0.979571 
0.0494013 0.00231608 -0.998776 0.115426 0.18637 -0.975676 
