# vtk DataFile Version 4.2
vtk output
ASCII
DATASET POLYDATA
POINTS 566 float
-43.4568 -32.183 -15.3566 -35.1548 -32.183 -15.6152 -26.8527 -32.183 -14.7099 
-60.061 -23.881 -14.2111 -51.7589 -23.881 -19.113 -43.4568 -23.881 -18.9855 
-35.1548 -23.881 -19.1292 -26.8527 -23.881 -18.4944 -18.5506 -23.881 -16.957 
-10.2485 -23.881 -16.1649 -1.94648 -23.881 -15.7263 6.3556 -23.881 -15.0544 
14.6577 -23.881 -15.6445 22.9597 -23.881 -16.4884 31.2618 -23.881 -16.5572 
39.5639 -23.881 -17.8877 47.866 -23.881 -16.6698 56.168 -23.881 -16.7706 
64.4701 -23.881 -15.7995 -60.061 -15.5789 -17.1352 -51.7589 -15.5789 -19.0853 
-43.4568 -15.5789 -19.9717 -35.1548 -15.5789 -20.5669 -26.8527 -15.5789 -18.9863 
-18.5506 -15.5789 -17.5659 -10.2485 -15.5789 -17.4555 -1.94648 -15.5789 -17.9303 
6.3556 -15.5789 -18.0759 14.6577 -15.5789 -18.5567 22.9597 -15.5789 -17.7894 
31.2618 -15.5789 -18.1682 39.5639 -15.5789 -18.406 47.866 -15.5789 -19.7485 
56.168 -15.5789 -18.1614 64.4701 -15.5789 -17.4579 72.7722 -15.5789 -15.8993 
-68.3631 -7.27681 -13.7289 -60.061 -7.27681 -17.7513 -51.7589 -7.27681 -19.6219 
-43.4568 -7.27681 -20.2497 -35.1548 -7.27681 -19.8786 -26.8527 -7.27681 -18.9603 
-18.5506 -7.27681 -16.4511 -10.2485 -7.27681 -18.7866 -1.94648 -7.27681 -18.46 
6.3556 -7.27681 -19.1531 14.6577 -7.27681 -19.2064 22.9597 -7.27681 -16.4543 
31.2618 -7.27681 -17.4819 39.5639 -7.27681 -19.0737 47.866 -7.27681 -20.6187 
56.168 -7.27681 -19.716 64.4701 -7.27681 -20.7136 72.7722 -7.27681 -15.2337 
-60.061 1.02526 -17.4079 -51.7589 1.02526 -19.2993 -43.4568 1.02526 -19.9979 
-35.1548 1.02526 -19.604 -26.8527 1.02526 -18.4062 -18.5506 1.02526 -16.3945 
-10.2485 1.02526 -20.4628 -1.94648 1.02526 -17.2171 6.3556 1.02526 -18.9665 
14.6577 1.02526 -19.2605 22.9597 1.02526 -16.6418 31.2618 1.02526 -18.0608 
39.5639 1.02526 -19.4403 47.866 1.02526 -20.6326 56.168 1.02526 -19.5841 
64.4701 1.02526 -19.7395 72.7722 1.02526 -14.5479 -60.061 9.32734 -15.4119 
-51.7589 9.32734 -18.1983 -43.4568 9.32734 -19.779 -35.1548 9.32734 -20.0168 
-26.8527 9.32734 -18.9023 -18.5506 9.32734 -17.3192 -10.2485 9.32734 -18.2303 
-1.94648 9.32734 -19.3137 6.3556 9.32734 -18.0059 14.6577 9.32734 -18.0476 
22.9597 9.32734 -17.9932 31.2618 9.32734 -18.6481 39.5639 9.32734 -19.3937 
47.866 9.32734 -19.8923 56.168 9.32734 -19.1305 64.4701 9.32734 -17.3143 
72.7722 9.32734 -14.0634 -60.061 17.6294 -14.2208 -51.7589 17.6294 -16.6757 
-43.4568 17.6294 -18.7458 -35.1548 17.6294 -19.2854 -26.8527 17.6294 -18.8929 
-18.5506 17.6294 -17.9226 -10.2485 17.6294 -17.57 -1.94648 17.6294 -18.1384 
6.3556 17.6294 -16.7544 14.6577 17.6294 -16.8008 22.9597 17.6294 -17.5266 
31.2618 17.6294 -18.0481 39.5639 17.6294 -18.4373 47.866 17.6294 -17.5924 
56.168 17.6294 -15.4613 -43.4568 25.9315 -16.4302 -35.1548 25.9315 -18.1515 
-26.8527 25.9315 -17.8413 -18.5506 25.9315 -17.6063 -10.2485 25.9315 -17.2275 
-1.94648 25.9315 -17.1326 6.3556 25.9315 -16.1127 14.6577 25.9315 -15.6327 
22.9597 25.9315 -15.2917 31.2618 25.9315 -14.7491 -26.8527 34.2336 -14.1745 
-18.5506 34.2336 -14.85 -10.2485 34.2336 -14.937 -1.94648 34.2336 -14.4198 
-43.4568 -34.6285 -13.6336 -43.4568 -40.4851 -5.45374 -35.1548 -35.0664 -13.6336 
-35.1548 -40.4851 -5.66657 -26.8527 -33.3947 -13.6336 -60.061 -25.0832 -13.6336 
-60.061 -32.183 -8.56607 -50.0697 -32.183 -13.6336 -51.7589 -31.4818 -13.6336 
-51.7589 -32.183 -13.0941 -22.7995 -32.183 -13.6336 -18.5506 -30.3688 -13.6336 
-18.5506 -32.183 -11.9802 -10.2485 -27.6622 -13.6336 -10.2485 -32.183 -6.44336 
-1.94648 -26.6725 -13.6336 6.3556 -25.6879 -13.6336 14.6577 -26.1974 -13.6336 
22.9597 -27.9323 -13.6336 31.2618 -28.9167 -13.6336 31.2618 -32.183 -8.74479 
39.5639 -30.3739 -13.6336 39.5639 -32.183 -11.0442 47.866 -29.3725 -13.6336 
47.866 -32.183 -10.9745 56.168 -28.6247 -13.6336 56.168 -32.183 -9.81523 
64.4701 -27.0041 -13.6336 64.4701 -32.183 -5.33692 -61.028 -23.881 -13.6336 
-68.3631 -23.881 -8.03303 69.5181 -23.881 -13.6336 72.7722 -21.0059 -13.6336 
72.7722 -23.881 -10.9178 -67.9165 -15.5789 -13.6336 -68.3631 -10.3272 -13.6336 
-68.3631 -15.5789 -13.4024 76.2731 -15.5789 -13.6336 81.0742 -15.5789 -7.43606 
-68.4784 -7.27681 -13.6336 -68.3631 -5.86358 -13.6336 76.6014 -7.27681 -13.6336 
81.0742 -7.27681 -11.2251 -67.3017 1.02526 -13.6336 -68.3631 1.02526 -12.8506 
74.5994 1.02526 -13.6336 81.0742 1.02526 -9.33023 -63.1722 9.32734 -13.6336 
-68.3631 9.32734 -10.1518 64.4701 16.1621 -13.6336 73.3923 9.32734 -13.6336 
72.7722 9.97796 -13.6336 -60.8835 17.6294 -13.6336 -60.061 18.7487 -13.6336 
-51.7589 24.5862 -13.6336 39.5639 25.8858 -13.6336 47.866 24.1673 -13.6336 
61.9203 17.6294 -13.6336 56.168 20.4651 -13.6336 64.4701 17.6294 -12.7124 
72.7722 17.6294 -5.36528 -60.061 25.9315 -6.85412 -50.2964 25.9315 -13.6336 
-51.7589 25.9315 -12.7441 -43.4568 30.3482 -13.6336 -35.1548 34.0211 -13.6336 
6.3556 33.0751 -13.6336 14.6577 30.7028 -13.6336 22.9597 29.2048 -13.6336 
39.3513 25.9315 -13.6336 31.2618 27.3537 -13.6336 39.5639 25.9315 -13.5929 
47.866 25.9315 -11.3226 56.168 25.9315 -7.33218 -43.4568 34.2336 -9.39161 
-33.6104 34.2336 -13.6336 -35.1548 34.2336 -13.4557 -26.8527 34.8805 -13.6336 
-18.5506 35.6035 -13.6336 -10.2485 36.0357 -13.6336 3.47368 34.2336 -13.6336 
-1.94648 35.3283 -13.6336 6.3556 34.2336 -13.1057 14.6577 34.2336 -11.5351 
22.9597 34.2336 -9.47528 -43.4568 -40.5404 -5.33148 -35.1548 -40.6208 -5.33148 
-60.061 -34.3698 -5.33148 -43.7268 -40.4851 -5.33148 -51.7589 -38.6201 -5.33148 
-34.2038 -40.4851 -5.33148 -26.8527 -39.3612 -5.33148 -18.5506 -36.1913 -5.33148 
-10.2485 -32.6419 -5.33148 31.2618 -33.4605 -5.33148 39.5639 -34.3574 -5.33148 
47.866 -35.2107 -5.33148 56.168 -34.4001 -5.33148 64.4701 -32.1859 -5.33148 
-63.0563 -32.183 -5.33148 -68.3631 -26.8197 -5.33148 -8.32093 -32.183 -5.33148 
-1.94648 -30.7358 -5.33148 6.3556 -29.8187 -5.33148 14.6577 -29.5667 -5.33148 
26.743 -32.183 -5.33148 22.9597 -31.1121 -5.33148 31.2618 -32.183 0.780126 
64.4752 -32.183 -5.33148 64.4701 -32.183 -5.31193 72.7722 -27.4228 -5.33148 
-70.3167 -23.881 -5.33148 77.315 -23.881 -5.33148 81.0742 -18.4062 -5.33148 
-74.2903 -15.5789 -5.33148 82.568 -15.5789 -5.33148 81.0742 -15.5789 2.64059 
-74.7665 -7.27681 -5.33148 -76.6651 -7.27681 2.56988 85.1227 -7.27681 -5.33148 
-73.9538 1.02526 -5.33148 83.738 1.02526 -5.33148 81.0742 8.2888 -5.33148 
-72.0093 9.32734 -5.33148 -68.3631 16.3158 -5.33148 80.5735 9.32734 -5.33148 
-67.3595 17.6294 -5.33148 -68.3631 17.6294 -1.98673 64.4701 22.951 -5.33148 
72.7968 17.6294 -5.33148 72.7722 17.6557 -5.33148 72.7722 17.6294 -4.99423 
-61.1947 25.9315 -5.33148 -60.061 27.0234 -5.33148 -51.7589 33.3268 -5.33148 
31.2618 34.0106 -5.33148 39.5639 31.5248 -5.33148 47.866 28.9434 -5.33148 
58.1215 25.9315 -5.33148 56.168 26.9537 -5.33148 -50.0484 34.2336 -5.33148 
-51.7589 34.2336 -0.444774 -43.4568 36.8155 -5.33148 -35.1548 39.0487 -5.33148 
-26.8527 40.7538 -5.33148 -18.5506 41.3479 -5.33148 -10.2485 41.7132 -5.33148 
-1.94648 41.4219 -5.33148 6.3556 40.4315 -5.33148 14.6577 39.1452 -5.33148 
30.6346 34.2336 -5.33148 22.9597 36.8309 -5.33148 31.2618 34.2336 -3.4999 
-43.4568 -40.8171 2.97059 -35.1548 -40.8021 2.97059 -60.061 -34.9094 2.97059 
-45.0477 -40.4851 2.97059 -51.7589 -39.0848 2.97059 -43.4568 -40.4851 3.74562 
-32.2679 -40.4851 2.97059 -35.1548 -40.4851 3.80689 -26.8527 -39.8682 2.97059 
-18.5506 -36.6552 2.97059 -10.2485 -32.6915 2.97059 39.5639 -33.5103 2.97059 
47.866 -33.5452 2.97059 56.168 -33.2085 2.97059 -64.0171 -32.183 2.97059 
-68.3631 -28.1509 2.97059 -60.061 -32.183 7.92245 -18.5506 -32.183 10.7815 
-8.62495 -32.183 2.97059 -10.2485 -32.183 4.01114 -1.94648 -30.1087 2.97059 
6.3556 -28.3815 2.97059 14.6577 -27.7403 2.97059 22.9597 -29.059 2.97059 
33.5383 -32.183 2.97059 31.2618 -31.6343 2.97059 39.5639 -32.183 5.05188 
47.866 -32.183 5.11265 59.8425 -32.183 2.97059 56.168 -32.183 4.32236 
64.4701 -30.8048 2.97059 72.7722 -25.2253 2.97059 -71.4072 -23.881 2.97059 
-68.3631 -23.881 9.28613 -1.94648 -23.881 10.5412 6.3556 -23.881 8.88914 
14.6577 -23.881 7.93728 22.9597 -23.881 10.221 64.4701 -23.881 9.71724 
74.5186 -23.881 2.97059 72.7722 -23.881 4.45453 -76.4265 -15.5789 2.97059 
-76.6651 -9.52872 2.97059 81.0073 -15.5789 2.97059 72.7722 -15.5789 9.96645 
81.0742 -15.4526 2.97059 -76.7411 -7.27681 2.97059 -76.6651 -3.11247 2.97059 
-76.6651 -7.27681 3.20866 84.7833 -7.27681 2.97059 81.0742 -7.27681 6.6548 
-76.5857 1.02526 2.97059 82.4844 1.02526 2.97059 81.0742 5.77331 2.97059 
81.0742 1.02526 4.85148 -73.8205 9.32734 2.97059 79.7072 9.32734 2.97059 
72.7722 16.9846 2.97059 -69.5261 17.6294 2.97059 -68.3631 19.195 2.97059 
-68.3631 17.6294 6.36416 72.058 17.6294 2.97059 64.4701 22.7657 2.97059 
64.4701 17.6294 10.8488 -62.916 25.9315 2.97059 -60.061 28.5673 2.97059 
-60.061 25.9315 9.78871 39.5639 32.7245 2.97059 47.866 29.702 2.97059 
58.5003 25.9315 2.97059 56.168 27.1683 2.97059 56.168 25.9315 5.75902 
-52.4613 34.2336 2.97059 -51.7589 34.6739 2.97059 -51.7589 34.2336 4.35273 
-43.4568 37.5529 2.97059 -35.1548 39.1077 2.97059 -26.8527 40.2249 2.97059 
-18.5506 40.1409 2.97059 -10.2485 40.6724 2.97059 -1.94648 41.133 2.97059 
6.3556 40.723 2.97059 14.6577 39.4976 2.97059 22.9597 37.5153 2.97059 
22.9597 34.2336 9.76291 33.9813 34.2336 2.97059 31.2618 34.9595 2.97059 
31.2618 34.2336 5.16383 -51.7589 -33.7898 11.2727 -43.4568 -35.7969 11.2727 
-35.1548 -36.5973 11.2727 -26.8527 -35.1123 11.2727 -55.3233 -32.183 11.2727 
-60.061 -29.637 11.2727 -51.7589 -32.183 12.7678 -43.4568 -32.183 14.6767 
-35.1548 -32.183 14.6332 -19.5179 -32.183 11.2727 -26.8527 -32.183 13.5605 
-18.5506 -31.5434 11.2727 -10.2485 -25.9537 11.2727 31.2618 -24.0329 11.2727 
39.5639 -25.7234 11.2727 47.866 -25.7955 11.2727 56.168 -25.7806 11.2727 
-66.7603 -23.881 11.2727 -68.3631 -22.1215 11.2727 -60.061 -23.881 15.731 
-51.7589 -23.881 19.1493 -43.4568 -23.881 18.4812 -35.1548 -23.881 17.9102 
-26.8527 -23.881 16.5693 -18.5506 -23.881 14.7846 -4.76445 -23.881 11.2727 
[...]
POINT_DATA 566
SCALARS ImageScalars float
LOOKUP_TABLE default
0 0 0 0 0 0 0 0 0 
0 0 0 0 0 0 0 0 0 
0 0 0 0 0 0 0 0 0 
0 0 0 0 0 0 0 0 0 
0 0 0 0 0 0 0 0 0 
0 0 0 0 0 0 0 0 0 
0 0 0 0 0 0 0 0 0 
0 0 0 0 0 0 0 0 0 
0 0 0 0 0 0 0 0 0 
0 0 0 0 0 0 0 0 0 
0 0 0 0 0 0 0 0 0 
0 0 0 0 0 0 0 0 0 
0 0 0 0 0 0 0 0 0 
0 0 0 0 0 0 0 0 0 
0 0 0 0 0 0 0 0 0 
0 0 0 0 0 0 0 0 0 
0 0 0 0 0 0 0 0 0 
0 0 0 0 0 0 0 0 0 
0 0 0 0 0 0 0 0 0 
0 0 0 0 0 0 0 0 0 
0 0 0 0 0 0 0 0 0 
0 0 0 0 0 0 0 0 0 
0 0 0 0 0 0 0 0 0 
0 0 0 0 0 0 0 0 0 
0 0 0 0 0 0 0 0 0 
0 0 0 0 0 0 0 0 0 
0 0 0 0 0 0 0 0 0 
0 0 0 0 0 0 0 0 0 
0 0 0 0 0 0 0 0 0 
0 0 0 0 0 0 0 0 0 
0 0 0 0 0 0 0 0 0 
0 0 0 0 0 0 0 0 0 
0 0 0 0 0 0 0 0 0 
0 0 0 0 0 0 0 0 0 
0 0 0 0 0 0 0 0 0 
0 0 0 0 0 0 0 0 0 
0 0 0 0 0 0 0 0 0 
0 0 0 0 0 0 0 0 0 
0 0 0 0 0 0 0 0 0 
0 0 0 0 0 0 0 0 0 
0 0 0 0 0 0 0 0 0 
0 0 0 0 0 0 0 0 0 
0 0 0 0 0 0 0 0 0 
0 0 0 0 0 0 0 0 0 
0 0 0 0 0 0 0 0 0 
0 0 0 0 0 0 0 0 0 
0 0 0 0 0 0 0 0 0 
0 0 0 0 0 0 0 0 0 
0 0 0 0 0 0 0 0 0 
0 0 0 0 0 0 0 0 0 
0 0 0 0 0 0 0 0 0 
0 0 0 0 0 0 0 0 0 
0 0 0 0 0 0 0 0 0 
0 0 0 0 0 0 0 0 0 
0 0 0 0 0 0 0 0 0 
0 0 0 0 0 0 0 0 0 
0 0 0 0 0 0 0 0 0 
0 0 0 0 0 0 0 0 0 
0 0 0 0 0 0 0 0 0 
0 0 0 0 0 0 0 0 0 
0 0 0 0 0 0 0 0 0 
0 0 0 0 0 0 0 0 0 
0 0 0 0 0 0 0 0 
NORMALS Normals float
0.120838 0.524536 0.842769 -0.0314395 0.535366 0.844035 -0.158436 0.581905 0.797674 
0.473392 0.341126 0.812116 0.23602 0.279075 0.930812 0.00378462 0.260982 0.965336 
-0.0269229 0.253852 0.966868 -0.133514 0.214443 0.967568 -0.134155 0.252161 0.958341 
-0.0753077 0.382203 0.921005 -0.0664788 0.482812 0.873197 -0.00724211 0.554211 0.832345 
0.084804 0.585734 0.806055 0.0552895 0.409362 0.910695 0.0715732 0.352507 0.933068 
0.00794811 0.350483 0.936535 -0.0541819 0.376021 0.925026 -0.0644316 0.396563 0.915743 
-0.288423 0.400856 0.869555 0.358807 0.189119 0.914052 0.150067 0.0302757 0.988212 
0.0851564 0.070719 0.993855 -0.059953 0.0540468 0.996737 -0.176823 0.026221 0.983893 
-0.09135 -0.0246234 0.995514 0.0209288 0.12417 0.99204 0.0372421 0.150171 0.987958 
0.0373976 0.221676 0.974403 -0.018624 0.179681 0.983549 -0.0226902 -0.00359976 0.999736 
0.0364693 0.0500287 0.998082 0.0903123 0.0658146 0.993736 -0.0135047 0.222387 0.974865 
-0.121628 0.15466 0.980452 -0.176528 0.302543 0.936646 -0.375079 0.200332 0.905087 
0.609746 -0.0171434 0.792411 0.354382 0.0132573 0.935007 0.13754 0.0128147 0.990413 
0.014003 0.00155613 0.999901 -0.0810339 -0.0597479 0.994919 -0.190901 -0.0319417 0.981089 
-0.0631859 -0.0740004 0.995254 0.138329 0.155524 0.978099 0.027272 -0.0196221 0.999435 
0.042602 0.0635341 0.99707 -0.178126 0.0497241 0.982751 -0.0559396 -0.0756423 0.995565 
0.153167 -0.00638583 0.98818 0.183799 0.0608896 0.981076 0.0402284 0.0508527 0.997896 
-0.0031384 0.0852643 0.996353 -0.25356 0.130844 0.958429 -0.417731 -0.0830532 0.904767 
0.342129 -0.118693 0.932127 0.140044 -0.0847477 0.986512 0.0164013 -0.0299358 0.999417 
-0.0919915 0.00855932 0.995723 -0.18863 -0.00350868 0.982042 -0.00485831 0.0515516 0.998659 
0.156834 -0.0695337 0.985174 -0.0189746 0.091369 0.995636 0.0969398 -0.0825262 0.991863 
-0.170141 -0.088466 0.981441 -0.00869799 0.0958276 0.99536 0.159403 0.0695169 0.984763 
0.151937 0.0189779 0.988208 0.0091863 -0.042152 0.999069 -0.0550354 -0.0374331 0.997782 
-0.28367 -0.188433 0.940226 -0.460937 -0.0604644 0.885371 0.421536 -0.177692 0.889232 
0.242768 -0.153996 0.957783 0.0991536 -0.0671221 0.992806 -0.0511527 -0.0182831 0.998523 
-0.154562 0.0265414 0.987627 -0.0520314 0.0904754 0.994539 0.12583 -0.109711 0.985967 
-0.022807 0.00898456 0.9997 -0.0747941 -0.119047 0.990067 -0.000924001 -0.122696 0.992444 
0.0361158 0.046174 0.99828 0.0840526 0.00125332 0.996461 0.0735534 -0.0551612 0.995765 
-0.0200484 -0.188821 0.981807 -0.131064 -0.20031 0.970926 -0.304878 -0.36678 0.878932 
-0.485617 -0.325593 0.811274 0.512229 -0.332396 0.791918 0.266247 -0.263438 0.927207 
0.158425 -0.209576 0.964873 0.00668265 -0.104044 0.99455 -0.0811482 -0.060727 0.99485 
-0.0807168 0.0135243 0.996645 0.012603 -0.0530851 0.99851 -0.0485549 -0.125045 0.990962 
-0.0799379 -0.109734 0.990741 0.04573 -0.143673 0.988568 0.0724643 -0.153698 0.985457 
0.0532005 -0.203891 0.977547 -0.0296739 -0.311019 0.94994 -0.149517 -0.371501 0.916314 
-0.270448 -0.520175 0.810108 0.248924 -0.387753 0.887516 0.0851669 -0.316153 0.944878 
-0.0312161 -0.247378 0.968416 -0.0352428 -0.144209 0.988919 -0.0293775 -0.149374 0.988344 
-0.0648753 -0.211571 0.975207 -0.0887478 -0.198481 0.976078 -0.0466368 -0.253448 0.966224 
-0.0489178 -0.367983 0.928545 -0.0948536 -0.531395 0.841797 0.0709919 -0.589607 0.804564 
0.0418848 -0.561171 0.82664 -0.0259354 -0.478011 0.877971 -0.0988732 -0.497804 0.861635 
0.122248 0.622896 0.772694 0.109571 0.96101 0.253879 -0.0583591 0.670214 0.73987 
-0.0695109 0.969638 0.234457 -0.178221 0.635287 0.751431 0.466252 0.374251 0.801589 
0.515888 0.704939 0.486745 0.243137 0.563068 0.789835 0.274031 0.552854 0.78693 
0.277682 0.583702 0.76301 -0.197161 0.638631 0.743827 -0.215463 0.598151 0.771875 
-0.266791 0.726757 0.632966 -0.136958 0.600026 0.788169 -0.290403 0.923946 0.248976 
-0.0892889 0.657715 0.747956 -0.0202399 0.658934 0.751928 0.0968321 0.725175 0.681722 
0.135523 0.692631 0.708446 0.0912475 0.647194 0.756845 0.163996 0.9392 0.301676 
0.0191384 0.654935 0.755443 0.054351 0.850757 0.522741 -0.0611272 0.623653 0.779307 
-0.0410427 0.849574 0.52587 -0.104905 0.608626 0.786492 -0.177859 0.866458 0.466494 
-0.308765 0.596826 0.740583 -0.413082 0.892639 0.180441 0.486415 0.349096 0.800957 
0.716861 0.494229 0.49178 -0.417727 0.515975 0.747846 -0.48528 0.436715 0.757485 
-0.547135 0.613485 0.569455 0.554395 0.207999 0.805843 0.597236 0.0683897 0.799145 
0.572311 0.209237 0.792894 -0.556764 0.266416 0.786789 -0.82955 0.432152 0.353683 
0.613497 -0.0168878 0.789517 0.610907 -0.0412575 0.790626 -0.546889 -0.0376029 0.83636 
-0.782714 0.0810163 0.617086 0.575046 -0.159576 0.802408 0.628558 -0.159139 0.761308 
-0.523418 -0.0891117 0.847404 -0.843041 -0.254408 0.473876 0.49543 -0.206036 0.843859 
0.695912 -0.295012 0.654732 -0.35035 -0.517626 0.780589 -0.513763 -0.338239 0.788443 
-0.497988 -0.355034 0.791176 0.552158 -0.344258 0.759347 0.530211 -0.365257 0.765155 
0.39527 -0.471658 0.788226 -0.122869 -0.651279 0.748825 -0.180834 -0.694455 0.696442 
-0.332791 -0.548378 0.767158 -0.299719 -0.602962 0.739328 -0.365937 -0.583691 0.724842 
-0.683993 -0.687999 0.242509 0.63321 -0.638064 0.438086 0.392183 -0.489437 0.778873 
0.434366 -0.521405 0.734482 0.283575 -0.577663 0.765435 0.177782 -0.62295 0.761792 
-0.130978 -0.471899 0.871869 -0.0949083 -0.451985 0.886962 -0.116039 -0.491995 0.86283 
-0.122908 -0.650143 0.749805 -0.12534 -0.583563 0.802336 -0.124191 -0.653902 0.746317 
-0.201386 -0.816372 0.541277 -0.364812 -0.857593 0.362556 0.314576 -0.804549 0.503729 
0.159626 -0.624253 0.76474 0.181632 -0.636989 0.749169 0.0693642 -0.615107 0.785387 
0.0527725 -0.622434 0.780891 -0.0113672 -0.557474 0.830117 -0.125266 -0.511155 0.850311 
-0.100459 -0.540587 0.835269 -0.140701 -0.536662 0.831984 -0.155113 -0.663096 0.732286 
-0.248273 -0.788711 0.562401 0.109581 0.962648 0.24759 -0.0683395 0.97326 0.219304 
0.541645 0.784401 0.302216 0.116244 0.962122 0.246596 0.318023 0.910716 0.263548 
-0.0888829 0.970207 0.225387 -0.239787 0.928681 0.282937 -0.373904 0.888826 0.264924 
-0.303171 0.933651 0.190743 0.191085 0.978596 0.076392 0.103894 0.988473 0.110122 
0.00161377 0.991235 0.132103 -0.169981 0.970463 0.171196 -0.413071 0.892692 0.180205 
0.598905 0.73906 0.308388 0.733451 0.586756 0.343174 -0.269748 0.946708 0.176009 
-0.166383 0.976442 0.137396 -0.0712464 0.991527 0.108616 0.0792665 0.995166 0.0579707 
0.209937 0.977556 0.0176364 0.231448 0.972803 -0.0092564 0.248844 0.93114 -0.266561 
-0.413152 0.892659 0.180182 -0.413242 0.892894 0.178804 -0.572112 0.804726 0.158444 
0.78624 0.503046 0.358848 -0.728274 0.657287 0.193883 -0.835177 0.494651 0.240416 
0.884906 0.227264 0.406562 -0.876401 0.428308 0.220166 -0.844973 0.464526 -0.265021 
0.893014 -0.0117252 0.449875 0.999067 0.00778137 -0.0424714 -0.954225 0.0576614 0.293477 
0.874121 -0.162922 0.457568 -0.938583 -0.247101 0.240839 -0.823816 -0.515181 0.236466 
0.858034 -0.286317 0.42638 0.740451 -0.525299 0.419276 -0.802636 -0.54773 0.236151 
0.715923 -0.562115 0.414102 0.782804 -0.580508 0.224117 -0.409403 -0.87979 0.241575 
-0.684507 -0.688092 0.240792 -0.683898 -0.688653 0.240917 -0.687864 -0.691374 0.221011 
0.670845 -0.642686 0.370029 0.648509 -0.66907 0.363018 0.498684 -0.796551 0.341792 
-0.287006 -0.904523 0.315382 -0.279704 -0.903458 0.324853 -0.247766 -0.93249 0.262819 
-0.376121 -0.894705 0.240908 -0.364778 -0.89697 0.249763 0.45943 -0.825748 0.327208 
0.485334 -0.870925 0.0770724 0.316364 -0.896879 0.309065 0.219572 -0.949159 0.225576 
0.142289 -0.962947 0.229099 0.0580272 -0.981626 0.181778 0.00426156 -0.983136 0.182827 
-0.0762654 -0.96715 0.242496 -0.134799 -0.942307 0.30641 -0.215675 -0.918058 0.332648 
-0.288373 -0.904757 0.313458 -0.296239 -0.902007 0.314047 -0.289479 -0.930936 0.222623 
0.103771 0.975047 -0.196252 -0.0548528 0.983226 -0.17395 0.531249 0.825957 -0.1886 
0.141091 0.970473 -0.19564 0.297264 0.934058 -0.197914 0.106488 0.965437 -0.237889 
-0.118372 0.978167 -0.170814 -0.0532082 0.975408 -0.213887 -0.239546 0.955858 -0.170154 
-0.400921 0.896476 -0.188663 -0.369465 0.904498 -0.213025 0.112507 0.929304 -0.351763 
-0.0152474 0.919226 -0.393435 -0.148196 0.896282 -0.41799 0.608973 0.772078 -0.181789 
0.744957 0.647777 -0.159448 0.50576 0.779755 -0.369039 -0.346541 0.634365 -0.691007 
-0.339158 0.913634 -0.224153 -0.36989 0.887963 -0.273318 -0.237815 0.923698 -0.300377 
-0.144431 0.914207 -0.378636 0.0521006 0.900265 -0.432213 0.207664 0.891822 -0.401907 
0.224074 0.897497 -0.379854 0.257685 0.880561 -0.397758 0.107144 0.876894 -0.46859 
-0.0293601 0.856564 -0.515204 -0.270734 0.853967 -0.444345 -0.169701 0.853014 -0.493527 
-0.39648 0.799424 -0.451358 -0.523683 0.730785 -0.437847 0.825834 0.54687 -0.137593 
0.687427 0.538101 -0.487741 -0.179809 0.454499 -0.87241 -0.13205 0.644439 -0.753167 
0.0686133 0.714532 -0.69623 0.152995 0.578853 -0.80095 -0.365675 0.623814 -0.690752 
-0.597221 0.67239 -0.437286 -0.5226 0.677711 -0.517298 0.955866 0.284843 -0.0720071 
0.994517 0.0808617 -0.0663168 -0.83891 0.463414 -0.285442 -0.438249 0.398374 -0.805752 
-0.841006 0.458218 -0.287654 0.997943 0.00796401 -0.0636057 0.995325 -0.0818117 -0.0513235 
0.997221 0.00865855 -0.074 -0.928334 0.058357 -0.367139 -0.696567 0.0121457 -0.717389 
0.984093 -0.173836 -0.0366212 -0.874628 -0.277606 -0.397443 -0.852012 -0.396187 -0.342215 
-0.821658 -0.227103 -0.522783 0.93092 -0.362731 -0.0426045 -0.826379 -0.486226 -0.284047 
-0.683292 -0.666408 -0.298351 0.829407 -0.556912 -0.0439687 0.813576 -0.579631 -0.0460735 
0.784482 -0.575136 -0.231963 -0.66681 -0.684203 -0.295348 -0.472269 -0.848143 -0.240031 
-0.482336 -0.590485 -0.647055 0.709194 -0.701532 -0.0699723 0.648714 -0.757461 -0.0736434 
0.605815 -0.665727 -0.435656 -0.294451 -0.953588 -0.0630015 -0.301785 -0.950139 -0.0784972 
-0.399894 -0.897577 -0.185583 -0.382777 -0.907107 -0.17504 -0.4127 -0.853936 -0.316972 
0.474964 -0.875542 -0.0885162 0.45865 -0.88397 -0.0907589 0.461126 -0.87314 -0.15808 
0.262513 -0.957225 -0.121684 0.149082 -0.975458 -0.16204 0.0635791 -0.967496 -0.244764 
0.0252304 -0.948076 -0.317041 0.0588347 -0.942119 -0.330076 0.00177529 -0.960724 -0.277498 
-0.0983138 -0.969069 -0.226363 -0.188997 -0.960686 -0.203376 -0.263212 -0.950835 -0.163195 
-0.170281 -0.806102 -0.566749 -0.280894 -0.955872 -0.086061 -0.277857 -0.955211 -0.101824 
-0.250515 -0.943877 -0.215265 0.249282 0.675922 -0.693533 0.128658 0.715361 -0.686808 
-0.0312446 0.727971 -0.684895 -0.222758 0.655099 -0.721958 0.334259 0.695379 -0.636176 
0.456713 0.673599 -0.5811 0.215281 0.643854 -0.734238 0.0897998 0.584503 -0.806407 
-0.060243 0.515629 -0.854692 -0.325015 0.606561 -0.725568 -0.19767 0.516942 -0.832885 
-0.332455 0.591246 -0.73478 -0.267434 0.426509 -0.864042 0.109458 0.547718 -0.829472 
0.070851 0.541454 -0.83774 0.00183579 0.553295 -0.832983 -0.158182 0.532581 -0.831466 
0.597384 0.518093 -0.612137 0.633217 0.486105 -0.602278 0.440598 0.428205 -0.788995 
0.121764 0.372999 -0.919807 -0.0676947 0.302549 -0.950727 -0.104291 0.305865 -0.946346 
-0.180348 0.25619 -0.949653 -0.232302 0.27266 -0.933645 -0.191414 0.393239 -0.899291 
-0.235342 0.322882 -0.916712 -0.125214 0.349382 -0.928576 -0.0432659 0.420255 -0.906374 
0.0490202 0.421525 -0.905491 0.112241 0.543531 -0.831851 0.147255 0.465128 -0.87291 
0.108991 0.542469 -0.832976 0.0665102 0.477769 -0.875964 -0.00209183 0.500468 -0.865753 
-0.257874 0.550751 -0.793835 -0.128402 0.463015 -0.877001 -0.339552 0.52972 -0.777239 
0.724316 0.348002 -0.595198 0.560401 0.328735 -0.760186 -0.228569 0.163917 -0.959629 
-0.271722 0.115241 -0.955451 -0.214415 0.199667 -0.956117 -0.0447539 0.224288 -0.973495 
0.0216615 0.320985 -0.946836 0.0515523 0.30949 -0.949504 0.126835 0.236166 -0.963399 
0.103728 0.252601 -0.961994 0.0617916 0.257165 -0.96439 -0.0257557 0.255716 -0.966409 
-0.101465 0.283535 -0.953579 -0.36608 0.358943 -0.858572 -0.24066 0.256398 -0.936132 
-0.466157 0.285606 -0.837333 0.847705 0.0661408 -0.526328 0.536775 0.10241 -0.837487 
-0.234859 0.0966983 -0.967208 -0.151822 0.100305 -0.983305 -0.087487 0.36868 -0.92543 
-0.0349083 0.308949 -0.950438 -0.0336899 0.393002 -0.91892 -0.0819066 0.269442 -0.959527 
0.0852204 0.149597 -0.985068 0.171101 0.163746 -0.971551 0.0717844 0.146814 -0.986556 
-0.00189006 0.152882 -0.988243 -0.11551 0.186104 -0.975716 -0.204478 0.0796364 -0.975626 
-0.533228 0.102199 -0.839776 -0.496632 0.161925 -0.852723 0.859613 -0.15453 -0.487018 
0.545259 -0.12002 -0.829631 -0.0431007 0.116296 -0.992279 0.0112049 0.0974632 -0.995176 
-0.00248981 0.385623 -0.922653 0.00480228 0.194057 -0.980978 -0.179756 0.170648 -0.968797 
0.0154109 0.235699 -0.971704 0.0926349 0.184598 -0.978439 0.0310541 0.0853839 -0.995864 
0.0111954 0.0774371 -0.996934 -0.156334 0.0526167 -0.986302 -0.2522 0.00849209 -0.967638 
-0.592558 -0.0787212 -0.801672 -0.53207 -0.0824526 -0.842676 0.791272 -0.345835 -0.504268 
0.700886 -0.484017 -0.523914 0.656275 -0.340641 -0.673252 0.391563 -0.165385 -0.905166 
-0.0762867 0.0931593 -0.992724 0.143461 -0.0608057 -0.987786 -0.242847 -0.190232 -0.951229 
-0.0448979 -0.0357642 -0.998351 0.0924824 0.11804 -0.988693 0.0344211 0.10906 -0.993439 
-0.0332591 0.0311659 -0.998961 -0.0269173 -0.0518492 -0.998292 -0.191589 -0.159277 -0.968465 
-0.475125 -0.567562 -0.672406 -0.315319 -0.232256 -0.920126 -0.616333 -0.399508 -0.678622 
-0.613582 -0.404609 -0.678092 -0.611856 -0.400468 -0.682098 0.649581 -0.538869 -0.536344 
0.579652 -0.624096 -0.523935 0.480805 -0.402739 -0.778864 0.210718 -0.277771 -0.937252 
-0.139005 -0.0860601 -0.986545 -0.0378566 -0.162619 -0.985962 -0.0978824 -0.301279 -0.948499 
-0.0970016 -0.19575 -0.975845 0.114002 -0.102322 -0.988197 0.155548 -0.117286 -0.980841 
-0.129346 -0.198317 -0.971566 -0.190094 -0.275167 -0.942416 -0.472881 -0.576598 -0.666272 
-0.419725 -0.653185 -0.630223 -0.339643 -0.463887 -0.8182 0.563855 -0.639444 -0.522666 
0.429765 -0.724157 -0.539351 0.363361 -0.544186 -0.756195 0.156107 -0.438044 -0.885295 
-0.136448 -0.380046 -0.914848 -0.152619 -0.37791 -0.913177 -0.0569469 -0.345297 -0.936764 
-0.0233855 -0.346099 -0.937907 -0.0187189 -0.242617 -0.969941 0.0307195 -0.277275 -0.960299 
-0.127383 -0.725171 -0.676683 0.0195526 -0.413875 -0.910124 -0.148144 -0.786775 -0.599198 
-0.0730614 -0.534312 -0.842124 -0.221561 -0.796857 -0.562077 -0.160903 -0.612852 -0.773642 
-0.36885 -0.75286 -0.545116 -0.315961 -0.798093 -0.513045 -0.309392 -0.721637 -0.619287 
0.260023 -0.812695 -0.521454 0.238955 -0.819421 -0.521009 0.237306 -0.809484 -0.537049 
0.0748264 -0.838289 -0.540066 0.0526305 -0.758956 -0.649011 -0.0551593 -0.768195 -0.637836 
-0.073999 -0.71761 -0.692502 -0.0630804 -0.704619 -0.706776 -0.069278 -0.680874 -0.729117 
0.0136766 -0.64421 -0.764727 0.0109992 -0.633851 -0.773377 0.0321189 -0.626075 -0.779101 
0.0289665 -0.588411 -0.808043 -0.0301404 -0.623419 -0.781307 -0.0246388 -0.581081 -0.813472 
-0.112427 -0.691701 -0.713379 -0.0979877 -0.666105 -0.739393 -0.0916909 -0.645769 -0.758007 
0.314129 0.204626 -0.927066 0.0996648 0.327236 -0.939672 -0.0532028 0.245426 -0.967954 
-0.137657 0.217083 -0.966398 0.311241 0.196634 -0.929766 0.296344 0.186376 -0.93672 
0.0537008 0.216341 -0.97484 -0.0224116 0.200607 -0.979415 -0.170843 0.182431 -0.968262 
-0.147518 0.187393 -0.971145 0.332178 0.0141 -0.943111 0.324624 0.0104853 -0.945785 
0.13014 0.117781 -0.984475 -0.101547 0.111944 -0.988512 -0.234037 0.0965767 -0.967419 
-0.14642 0.078996 -0.986063 -0.233973 0.0933534 -0.967751 0.350508 -0.0500976 -0.935219 
0.361321 -0.0930107 -0.927791 0.331931 -0.0425863 -0.942342 0.130348 -0.0326131 -0.990932 
-0.0647534 0.0168599 -0.997759 -0.163185 0.0358903 -0.985942 -0.203883 0.0487692 -0.97778 
-0.221297 0.0428582 -0.974264 0.025058 0.196776 -0.980128 0.354217 -0.164201 -0.920635 
0.208423 -0.274038 -0.938863 0.193096 -0.179374 -0.964645 -0.0329204 -0.107983 -0.993607 
-0.119248 0.0154946 -0.992744 -0.115612 0.0711281 -0.990745 -0.159441 0.0469885 -0.986089 
0.116726 -0.0383658 -0.992423 -0.239734 -0.187882 -0.952485 -0.0549776 -0.189756 -0.980291 
0.033364 0.0380702 -0.998718 -0.00103337 -0.118009 -0.993012 0.202792 -0.271956 -0.940699 
0.131593 -0.308161 -0.942189 0.121455 -0.210493 -0.970021 -0.0111221 -0.118702 -0.992868 
-0.139138 -0.0826932 -0.986814 -0.140447 -0.260446 -0.955219 -0.142069 -0.0720896 -0.987228 
0.00235792 -0.150463 -0.988613 -0.0127026 -0.154131 -0.987969 -0.00720035 -0.158307 -0.987364 
-0.00650572 -0.152269 -0.988318 0.046188 -0.399323 -0.915646 -0.00787695 -0.392501 -0.919718 
0.0313733 -0.406534 -0.913097 0.0313449 -0.396287 -0.917591 
