# vtk DataFile Version 4.2
vtk output
ASCII
DATASET POLYDATA
POINTS 542 float
-8.30412 -28.415 -15.4299 -0.370098 -28.415 -16.4527 7.56393 -28.415 -15.9994 
15.4979 -28.415 -15.5687 23.432 -28.415 -14.9873 31.366 -28.415 -13.8773 
-24.1722 -20.4809 -14.2608 -16.2381 -20.4809 -15.3317 -8.30412 -20.4809 -18.2369 
-0.370098 -20.4809 -18.6926 7.56393 -20.4809 -17.8178 15.4979 -20.4809 -18.3065 
23.432 -20.4809 -18.433 31.366 -20.4809 -17.6322 39.3 -20.4809 -16.5104 
-40.0402 -12.5469 -14.0428 -32.1062 -12.5469 -15.9826 -24.1722 -12.5469 -16.5344 
-16.2381 -12.5469 -18.1868 -8.30412 -12.5469 -21.494 -0.370098 -12.5469 -19.6544 
7.56393 -12.5469 -19.2795 15.4979 -12.5469 -20.7174 23.432 -12.5469 -20.4855 
31.366 -12.5469 -20.0856 39.3 -12.5469 -19.4543 47.234 -12.5469 -17.2655 
-40.0402 -4.6129 -16.5464 -32.1062 -4.6129 -17.7776 -24.1722 -4.6129 -18.0468 
-16.2381 -4.6129 -19.0871 -8.30412 -4.6129 -20.1166 -0.370098 -4.6129 -17.2408 
7.56393 -4.6129 -20.9601 15.4979 -4.6129 -21.2167 23.432 -4.6129 -20.3891 
31.366 -4.6129 -20.9701 39.3 -4.6129 -21.0222 47.234 -4.6129 -19.8962 
55.1681 -4.6129 -14.8466 -47.9742 3.32112 -14.2045 -40.0402 3.32112 -17.3027 
-32.1062 3.32112 -18.419 -24.1722 3.32112 -18.5939 -16.2381 3.32112 -18.7304 
-8.30412 3.32112 -20.3467 -0.370098 3.32112 -19.1338 7.56393 3.32112 -20.258 
15.4979 3.32112 -18.3159 23.432 3.32112 -19.5673 31.366 3.32112 -20.5943 
39.3 3.32112 -20.9854 47.234 3.32112 -19.8736 55.1681 3.32112 -14.182 
-40.0402 11.2551 -17.2902 -32.1062 11.2551 -18.8818 -24.1722 11.2551 -18.4347 
-16.2381 11.2551 -18.5874 -8.30412 11.2551 -20.0394 -0.370098 11.2551 -20.0761 
7.56393 11.2551 -18.8387 15.4979 11.2551 -18.8162 23.432 11.2551 -19.5278 
31.366 11.2551 -20.2136 39.3 11.2551 -19.8837 47.234 11.2551 -17.7984 
-40.0402 19.1892 -15.3036 -32.1062 19.1892 -17.646 -24.1722 19.1892 -18.4697 
-16.2381 19.1892 -18.6417 -8.30412 19.1892 -18.5589 -0.370098 19.1892 -18.5574 
7.56393 19.1892 -19.0315 15.4979 19.1892 -19.8578 23.432 19.1892 -20.3327 
31.366 19.1892 -20.5782 39.3 19.1892 -18.6663 47.234 19.1892 -15.3181 
-32.1062 27.1232 -16.7716 -24.1722 27.1232 -18.3934 -16.2381 27.1232 -18.9115 
-8.30412 27.1232 -19.3764 -0.370098 27.1232 -19.0481 7.56393 27.1232 -19.5763 
15.4979 27.1232 -20.1077 23.432 27.1232 -19.8613 31.366 27.1232 -19.2448 
39.3 27.1232 -16.3836 -32.1062 35.0572 -15.2306 -24.1722 35.0572 -17.4042 
-16.2381 35.0572 -18.1121 -8.30412 35.0572 -19.0451 -0.370098 35.0572 -19.3825 
7.56393 35.0572 -19.4481 15.4979 35.0572 -18.9618 23.432 35.0572 -18.2026 
31.366 35.0572 -16.3442 -24.1722 42.9912 -14.1042 -16.2381 42.9912 -15.5499 
-8.30412 42.9912 -16.2805 -0.370098 42.9912 -16.4406 7.56393 42.9912 -16.008 
15.4979 42.9912 -15.7394 23.432 42.9912 -13.9165 -16.2381 -44.283 -6.3833 
-8.30412 -44.283 -7.64155 -0.370098 -44.283 -7.56382 7.56393 -44.283 -6.00514 
-24.1722 -36.349 -8.79885 -16.2381 -36.349 -10.7623 -8.30412 -32.8237 -13.737 
-8.30412 -36.349 -12.3305 -0.370098 -35.0894 -13.737 -0.370098 -36.349 -13.1863 
7.56393 -34.021 -13.737 7.56393 -36.349 -12.6237 15.4979 -32.2818 -13.737 
15.4979 -36.349 -11.4835 23.432 -30.6054 -13.737 23.432 -36.349 -9.83106 
31.366 -28.6109 -13.737 31.366 -36.349 -6.89353 -40.0402 -28.415 -6.64907 
-32.1062 -28.415 -10.5072 -24.1722 -22.1317 -13.737 -24.1722 -28.415 -11.7915 
-15.876 -28.415 -13.737 -16.2381 -28.0137 -13.737 -16.2381 -28.415 -13.6534 
31.773 -28.415 -13.737 39.3 -24.5094 -13.737 39.3 -28.415 -10.5796 
-47.9742 -20.4809 -5.83863 -40.0402 -13.429 -13.737 -40.0402 -20.4809 -11.2298 
-29.6578 -20.4809 -13.737 -32.1062 -19.74 -13.737 -32.1062 -20.4809 -13.499 
45.5722 -20.4809 -13.737 47.234 -19.1533 -13.737 47.234 -20.4809 -12.7995 
-40.7327 -12.5469 -13.737 -47.9742 -12.5469 -9.78841 52.6139 -12.5469 -13.737 
55.1681 -7.73885 -13.737 55.1681 -12.5469 -10.8508 -46.2819 -4.6129 -13.737 
-47.9742 0.195582 -13.737 -47.9742 -4.6129 -12.8458 56.3396 -4.6129 -13.737 
-48.6992 3.32112 -13.737 -47.9742 7.41787 -13.737 55.6172 3.32112 -13.737 
55.1681 4.77181 -13.737 -47.0276 11.2551 -13.737 -47.9742 11.2551 -13.1164 
52.6003 11.2551 -13.737 55.1681 11.2551 -8.70622 -42.8992 19.1892 -13.737 
-47.9742 19.1892 -9.83865 -40.0402 25.5321 -13.737 49.0656 19.1892 -13.737 
47.234 22.442 -13.737 -39.1317 27.1232 -13.737 -40.0402 27.1232 -13.2269 
43.3976 27.1232 -13.737 39.3 33.0733 -13.737 47.234 27.1232 -9.02303 
-34.3525 35.0572 -13.737 -40.0402 35.0572 -7.37273 -32.1062 37.5016 -13.737 
37.3551 35.0572 -13.737 31.366 38.967 -13.737 39.3 35.0572 -12.2859 
-24.9048 42.9912 -13.737 -32.1062 42.9912 -7.82339 -24.1722 43.5104 -13.737 
-16.2381 45.1889 -13.737 -8.30412 45.9212 -13.737 -0.370098 45.8152 -13.737 
7.56393 45.2785 -13.737 15.4979 44.9905 -13.737 23.9309 42.9912 -13.737 
23.432 43.1743 -13.737 31.366 42.9912 -8.59049 -16.2381 -44.8867 -5.80293 
-8.30412 -46.5543 -5.80293 -8.30412 -52.217 1.97318 -0.370098 -46.1082 -5.80293 
7.56393 -44.4663 -5.80293 -18.5364 -44.283 -5.80293 -24.1722 -42.1507 -5.80293 
-24.1722 -44.283 -4.06047 8.33375 -44.283 -5.80293 15.4979 -42.4461 -5.80293 
15.4979 -44.283 -3.18909 23.432 -40.9845 -5.80293 23.432 -44.283 0.123721 
31.366 -37.3924 -5.80293 -40.0402 -29.7463 -5.80293 -40.0402 -36.349 1.3036 
-31.8419 -36.349 -5.80293 -32.1062 -36.1836 -5.80293 -32.1062 -36.349 -5.65659 
33.7624 -36.349 -5.80293 39.3 -33.6348 -5.80293 39.3 -36.349 0.2508 
-41.2572 -28.415 -5.80293 -47.9742 -20.5357 -5.80293 46.8187 -28.415 -5.80293 
47.234 -28.1027 -5.80293 47.234 -28.415 -4.70017 -48.0081 -20.4809 -5.80293 
53.8903 -20.4809 -5.80293 55.1681 -18.4382 -5.80293 -51.8748 -12.5469 -5.80293 
57.9927 -12.5469 -5.80293 -54.7726 -4.6129 -5.80293 -55.9083 -4.6129 0.691494 
59.2832 -4.6129 -5.80293 -55.5427 3.32112 -5.80293 -55.9083 3.32112 -1.77521 
58.1238 3.32112 -5.80293 55.1681 3.32112 1.88622 -54.1437 11.2551 -5.80293 
56.1937 11.2551 -5.80293 55.1681 13.3903 -5.80293 55.1681 11.2551 -3.86458 
-50.8988 19.1892 -5.80293 -47.9742 24.8611 -5.80293 52.2496 19.1892 -5.80293 
-46.6477 27.1232 -5.80293 48.7406 27.1232 -5.80293 47.234 29.7132 -5.80293 
47.234 27.1232 -0.471066 -41.3362 35.0572 -5.80293 -40.0402 37.017 -5.80293 
43.5071 35.0572 -5.80293 39.3 39.5142 -5.80293 -34.3852 42.9912 -5.80293 
-32.1062 44.4167 -5.80293 -24.1722 48.4109 -5.80293 -16.2381 49.9566 -5.80293 
-8.30412 50.5113 -5.80293 -0.370098 49.4782 -5.80293 7.56393 48.8316 -5.80293 
15.4979 48.2621 -5.80293 23.432 47.0113 -5.80293 33.9843 42.9912 -5.80293 
31.366 44.3365 -5.80293 31.366 42.9912 1.76436 -8.30412 -52.2961 2.13109 
-24.1722 -48.2491 2.13109 -8.84554 -52.217 2.13109 -16.2381 -50.977 2.13109 
-7.68929 -52.217 2.13109 -0.370098 -51.1808 2.13109 7.56393 -49.1634 2.13109 
15.4979 -47.1441 2.13109 23.432 -45.0151 2.13109 -40.0402 -36.879 2.13109 
-31.053 -44.283 2.13109 -32.1062 -43.5033 2.13109 25.3093 -44.283 2.13109 
31.366 -41.7138 2.13109 39.3 -37.0106 2.13109 -40.5517 -36.349 2.13109 
40.2002 -36.349 2.13109 39.3 -36.349 5.41487 47.234 -30.1073 2.13109 
-46.9324 -28.415 2.13109 -47.9742 -26.7622 2.13109 48.7579 -28.415 2.13109 
47.234 -28.415 5.92353 -51.527 -20.4809 2.13109 54.3078 -20.4809 2.13109 
55.1681 -17.6127 2.13109 -54.4177 -12.5469 2.13109 -55.9083 -5.59716 2.13109 
56.5241 -12.5469 2.13109 55.1681 -12.5469 4.22418 -56.1105 -4.6129 2.13109 
-55.9083 -4.6129 2.87702 56.8357 -4.6129 2.13109 55.1681 2.74361 2.13109 
55.1681 -4.6129 4.47837 -56.204 3.32112 2.13109 -55.9083 6.16319 2.13109 
-55.9083 3.32112 3.15484 55.0361 3.32112 2.13109 47.234 3.32112 9.00858 
-55.2999 11.2551 2.13109 51.478 11.2551 2.13109 47.234 11.2551 6.29361 
-51.8267 19.1892 2.13109 -47.9742 26.1751 2.13109 39.3 19.1892 9.62653 
49.0786 19.1892 2.13109 47.234 24.3256 2.13109 47.234 19.1892 3.79214 
-47.41 27.1232 2.13109 46.2855 27.1232 2.13109 39.3 27.1232 9.19854 
-42.2207 35.0572 2.13109 -40.0402 37.8027 2.13109 -40.0402 35.0572 6.89374 
31.366 42.9099 2.13109 31.366 35.0572 9.16771 41.838 35.0572 2.13109 
39.3 37.9298 2.13109 39.3 35.0572 5.24019 -34.2822 42.9912 2.13109 
-32.1062 44.4702 2.13109 -32.1062 42.9912 4.82125 -24.1722 47.4562 2.13109 
-24.1722 42.9912 9.69521 -16.2381 48.1875 2.13109 -8.30412 48.0478 2.13109 
-8.30412 42.9912 8.94367 -0.370098 46.8992 2.13109 -0.370098 42.9912 7.33586 
7.56393 46.0928 2.13109 7.56393 42.9912 6.27297 15.4979 45.8675 2.13109 
15.4979 42.9912 5.86501 31.1611 42.9912 2.13109 23.432 45.4728 2.13109 
23.432 42.9912 5.38955 -8.30412 -52.8054 10.0651 -24.1722 -48.5212 10.0651 
-12.0033 -52.217 10.0651 -16.2381 -51.4756 10.0651 -4.73494 -52.217 10.0651 
-8.30412 -52.217 11.2301 -0.370098 -51.423 10.0651 7.56393 -49.0377 10.0651 
15.4979 -46.5253 10.0651 23.432 -44.3202 10.0651 -40.0402 -36.6187 10.0651 
-31.4036 -44.283 10.0651 -32.1062 -43.7955 10.0651 -24.1722 -44.283 15.2605 
7.56393 -44.283 15.8856 15.4979 -44.283 12.9048 23.5229 -44.283 10.0651 
23.432 -44.283 10.1231 31.366 -39.9414 10.0651 -40.2797 -36.349 10.0651 
-40.0402 -36.349 10.436 -32.1062 -36.349 17.3026 15.4979 -36.349 17.6852 
23.432 -36.349 16.4996 37.4091 -36.349 10.0651 31.366 -36.349 13.1772 
39.3 -34.6322 10.0651 -45.8714 -28.415 10.0651 -47.9742 -24.4038 10.0651 
-40.0402 -28.415 16.5658 31.366 -28.415 17.0549 44.7674 -28.415 10.0651 
39.3 -28.415 13.3405 47.234 -23.6427 10.0651 -49.789 -20.4809 10.0651 
-47.9742 -20.4809 12.7326 31.366 -20.4809 17.4495 39.3 -20.4809 15.5841 
48.534 -20.4809 10.0651 47.234 -20.4809 11.1712 -52.3926 -12.5469 10.0651 
-47.9742 -12.5469 14.7347 15.4979 -12.5469 17.3629 31.366 -12.5469 17.8836 
39.3 -12.5469 16.4082 49.7183 -12.5469 10.0651 47.234 -12.5469 11.9984 
-53.4492 -4.6129 10.0651 -47.9742 -4.6129 15.6027 7.56393 -4.6129 17.5045 
15.4979 -4.6129 17.711 23.432 -4.6129 17.8425 31.366 -4.6129 17.283 
39.3 -4.6129 14.9915 50.0658 -4.6129 10.0651 47.234 0.539323 10.0651 
47.234 -4.6129 11.9607 -53.3731 3.32112 10.0651 -47.9742 3.32112 15.5754 
-0.370098 3.32112 17.9251 7.56393 3.32112 16.9498 15.4979 3.32112 17.6814 
23.432 3.32112 17.0399 31.366 3.32112 15.5034 45.0949 3.32112 10.0651 
[...]
POINT_DATA 542
SCALARS ImageScalars float
LOOKUP_TABLE default
0 0 0 0 0 0 0 0 0 
0 0 0 0 0 0 0 0 0 
0 0 0 0 0 0 0 0 0 
0 0 0 0 0 0 0 0 0 
0 0 0 0 0 0 0 0 0 
0 0 0 0 0 0 0 0 0 
0 0 0 0 0 0 0 0 0 
0 0 0 0 0 0 0 0 0 
0 0 0 0 0 0 0 0 0 
0 0 0 0 0 0 0 0 0 
0 0 0 0 0 0 0 0 0 
0 0 0 0 0 0 0 0 0 
0 0 0 0 0 0 0 0 0 
0 0 0 0 0 0 0 0 0 
0 0 0 0 0 0 0 0 0 
0 0 0 0 0 0 0 0 0 
0 0 0 0 0 0 0 0 0 
0 0 0 0 0 0 0 0 0 
0 0 0 0 0 0 0 0 0 
0 0 0 0 0 0 0 0 0 
0 0 0 0 0 0 0 0 0 
0 0 0 0 0 0 0 0 0 
0 0 0 0 0 0 0 0 0 
0 0 0 0 0 0 0 0 0 
0 0 0 0 0 0 0 0 0 
0 0 0 0 0 0 0 0 0 
0 0 0 0 0 0 0 0 0 
0 0 0 0 0 0 0 0 0 
0 0 0 0 0 0 0 0 0 
0 0 0 0 0 0 0 0 0 
0 0 0 0 0 0 0 0 0 
0 0 0 0 0 0 0 0 0 
0 0 0 0 0 0 0 0 0 
0 0 0 0 0 0 0 0 0 
0 0 0 0 0 0 0 0 0 
0 0 0 0 0 0 0 0 0 
0 0 0 0 0 0 0 0 0 
0 0 0 0 0 0 0 0 0 
0 0 0 0 0 0 0 0 0 
0 0 0 0 0 0 0 0 0 
0 0 0 0 0 0 0 0 0 
0 0 0 0 0 0 0 0 0 
0 0 0 0 0 0 0 0 0 
0 0 0 0 0 0 0 0 0 
0 0 0 0 0 0 0 0 0 
0 0 0 0 0 0 0 0 0 
0 0 0 0 0 0 0 0 0 
0 0 0 0 0 0 0 0 0 
0 0 0 0 0 0 0 0 0 
0 0 0 0 0 0 0 0 0 
0 0 0 0 0 0 0 0 0 
0 0 0 0 0 0 0 0 0 
0 0 0 0 0 0 0 0 0 
0 0 0 0 0 0 0 0 0 
0 0 0 0 0 0 0 0 0 
0 0 0 0 0 0 0 0 0 
0 0 0 0 0 0 0 0 0 
0 0 0 0 0 0 0 0 0 
0 0 0 0 0 0 0 0 0 
0 0 0 0 0 0 0 0 0 
0 0 
NORMALS Normals float
0.169894 0.326394 0.92984 0.0326419 0.32498 0.945157 -0.0516483 0.293356 0.954607 
-0.0603632 0.377826 0.923907 -0.0932929 0.455547 0.88531 -0.215978 0.533212 0.817948 
0.102895 0.282089 0.953855 0.224953 0.266817 0.937126 0.200885 0.364165 0.909411 
-0.0293681 0.190322 0.981282 -0.0251771 0.196855 0.980109 0.0376212 0.300599 0.953008 
-0.0388234 0.329364 0.943404 -0.108928 0.364247 0.92491 -0.252076 0.475315 0.842931 
0.313137 0.29604 0.902389 0.142991 0.260473 0.954834 0.124352 0.229877 0.965242 
0.29845 0.225795 0.927332 0.0794648 0.102146 0.99159 -0.132453 -0.0821003 0.987783 
0.066002 0.192602 0.979055 0.0712445 0.175773 0.981849 -0.03834 0.115295 0.992591 
-0.0644866 0.196763 0.978328 -0.157431 0.248929 0.955641 -0.373282 0.365063 0.852871 
0.287182 0.193371 0.938154 0.0855122 0.146522 0.985504 0.0797161 0.124637 0.988995 
0.130393 0.0285835 0.99105 -0.109968 -0.069021 0.991536 0.0467349 -0.0506783 0.997621 
0.238193 0.0604715 0.969333 -0.0391126 -0.158771 0.98654 -0.0106655 -0.0582113 0.998247 
0.0396092 0.0306102 0.998746 -0.0563751 0.0988951 0.9935 -0.338399 0.142225 0.930193 
-0.698221 0.108509 0.707611 0.512382 0.0169354 0.858591 0.25297 0.0416399 0.966578 
0.0831617 0.0689263 0.99415 0.0195424 0.0242371 0.999515 0.104745 -0.0308831 0.99402 
0.0423616 -0.00456656 0.999092 -0.00671374 0.188284 0.982092 -0.0678128 -0.134629 0.988573 
-0.0360706 -0.138115 0.989759 0.143147 -0.0540191 0.988226 0.0891332 -0.0479641 0.994864 
-0.0328741 -0.0711987 0.99692 -0.368119 -0.112533 0.922943 -0.75234 -0.168136 0.636958 
0.327235 -0.111218 0.938375 0.0585376 -0.0463016 0.997211 -0.0173747 -0.00783119 0.999818 
0.0929897 -0.00555784 0.995652 0.100138 -0.118991 0.987833 -0.0820227 -0.0520027 0.995273 
-0.0722621 -0.0715098 0.994819 0.0435727 0.0975681 0.994275 0.0877525 0.0479543 0.994987 
0.0228936 -0.0021381 0.999736 -0.131565 -0.147051 0.98034 -0.427338 -0.27352 0.861725 
0.38267 -0.229103 0.895028 0.181475 -0.123211 0.975646 0.0611047 -0.00239565 0.998128 
0.00560441 0.0203929 0.999776 -0.00532341 -0.0335087 0.999424 0.0296776 -0.0549203 0.99805 
0.0816358 0.0462663 0.995588 0.0817423 0.0810107 0.993356 0.0447306 0.0195485 0.998808 
-0.104619 -0.0631085 0.992508 -0.289654 -0.184082 0.939263 -0.602995 -0.340142 0.721596 
0.297197 -0.152026 0.942636 0.126518 -0.0601248 0.99014 0.0603827 -0.0307837 0.997701 
0.00857808 0.031909 0.999454 0.01266 0.0505548 0.998641 0.0665811 0.0268835 0.997419 
0.0173269 -0.0510767 0.998544 -0.0545907 -0.1289 0.990154 -0.177685 -0.22362 0.958344 
-0.441184 -0.351249 0.825821 0.406184 -0.347056 0.845321 0.181615 -0.25616 0.94942 
0.0950375 -0.189261 0.977317 0.0790834 -0.164358 0.983225 0.0238482 -0.120044 0.992482 
-0.0243506 -0.172155 0.984769 -0.07864 -0.257316 0.963122 -0.140916 -0.333455 0.932175 
-0.30722 -0.442414 0.842547 0.314538 -0.521252 0.793324 0.131457 -0.515085 0.846999 
0.0500051 -0.532222 0.845127 -0.014051 -0.577806 0.816053 -0.0389989 -0.621201 0.78268 
-0.117225 -0.621066 0.774942 -0.251457 -0.687018 0.681745 0.174344 0.629358 0.757307 
0.0536784 0.61002 0.790566 -0.0756747 0.687058 0.722651 -0.168833 0.740429 0.650584 
0.255064 0.410278 0.875565 0.205795 0.366958 0.907188 0.146547 0.376262 0.91485 
0.132097 0.426321 0.894875 0.0249674 0.43779 0.89873 0.0195472 0.462945 0.886172 
-0.074583 0.442171 0.893825 -0.0891076 0.511529 0.854633 -0.099747 0.458045 0.883315 
-0.141964 0.568895 0.810065 -0.123251 0.488898 0.86359 -0.217768 0.616501 0.75664 
-0.217746 0.537524 0.81465 -0.302871 0.701128 0.645514 0.493424 0.498015 0.713102 
0.26655 0.400389 0.876721 0.119222 0.288746 0.949954 0.181231 0.322016 0.929226 
0.215667 0.253873 0.942887 0.217822 0.250707 0.943239 0.217788 0.251098 0.943143 
-0.222411 0.537112 0.813661 -0.29645 0.548032 0.782162 -0.358175 0.611543 0.705496 
0.695089 0.42698 0.578394 0.318781 0.305187 0.897352 0.381891 0.394335 0.835858 
0.149237 0.31492 0.937312 0.168842 0.324333 0.930753 0.17259 0.329583 0.928217 
-0.401269 0.511019 0.760159 -0.437365 0.483443 0.758284 -0.456832 0.525436 0.717789 
0.332782 0.299687 0.894116 0.613654 0.345529 0.709957 -0.617993 0.375277 0.690835 
-0.716514 0.225967 0.659959 -0.800636 0.372726 0.469103 0.460953 0.213235 0.861425 
0.513269 0.0937439 0.853093 0.525977 0.214009 0.823134 -0.751347 0.116356 0.649568 
0.543 0.0172558 0.839556 0.529403 -0.0887642 0.843714 -0.770665 -0.178081 0.611852 
-0.771361 -0.207497 0.601621 0.512057 -0.185745 0.838628 0.559709 -0.196837 0.804973 
-0.737088 -0.322236 0.594024 -0.919409 -0.372468 0.12631 0.490975 -0.253673 0.833423 
0.737573 -0.355408 0.574171 0.47044 -0.310323 0.826066 -0.695968 -0.36876 0.616153 
-0.661198 -0.397803 0.636058 0.467381 -0.311874 0.827218 0.503644 -0.341758 0.793438 
-0.593219 -0.414073 0.690387 -0.493326 -0.45531 0.741163 -0.832597 -0.476167 0.282925 
0.483008 -0.375355 0.791082 0.760173 -0.495228 0.420579 0.430206 -0.449366 0.782939 
-0.446507 -0.491897 0.747441 -0.34527 -0.619108 0.705332 -0.549862 -0.536748 0.639963 
0.330833 -0.536611 0.776272 0.498945 -0.775004 0.387843 0.318984 -0.54049 0.778537 
0.113257 -0.639219 0.760639 0.0308503 -0.66374 0.747327 -0.0347987 -0.724286 0.68862 
-0.0462133 -0.739325 0.671761 -0.117567 -0.755955 0.643981 -0.260582 -0.693746 0.671426 
-0.253212 -0.695648 0.672278 -0.407675 -0.867668 0.284522 0.178466 0.649585 0.739046 
0.0520451 0.678753 0.73252 0.00935451 0.955154 0.295963 -0.101976 0.735618 0.669677 
-0.170725 0.745187 0.644632 0.217144 0.637339 0.739356 0.303994 0.582109 0.754147 
0.340384 0.69028 0.638477 -0.168253 0.746573 0.643676 -0.155237 0.756291 0.635551 
-0.191507 0.850576 0.48974 -0.239728 0.763786 0.599301 -0.306548 0.920065 0.243945 
-0.321927 0.723887 0.610206 0.510017 0.518026 0.686681 0.666058 0.697489 0.264341 
0.385343 0.578118 0.719229 0.38742 0.580054 0.71655 0.392823 0.586379 0.708413 
-0.351284 0.72858 0.588023 -0.43324 0.731311 0.526771 -0.560346 0.81248 0.1609 
0.532424 0.509828 0.675722 0.695627 0.427879 0.577081 -0.571996 0.704796 0.419622 
-0.580995 0.703262 0.409716 -0.614645 0.709406 0.344897 0.696384 0.427126 0.576726 
-0.757003 0.578202 0.304352 -0.825261 0.505651 0.25152 0.783122 0.351422 0.513051 
-0.950231 0.278181 0.140273 0.898816 0.18498 0.397382 0.992547 0.121422 0.0103929 
-0.999176 0.000871001 0.0405763 0.945522 -0.0333919 0.323841 0.99445 -0.0406413 0.0970419 
-0.982512 -0.186055 -0.00732669 -0.775154 -0.2801 -0.566287 0.90495 -0.264218 0.333547 
-0.931691 -0.354399 -0.0797107 -0.920056 -0.388299 -0.052166 -0.916449 -0.347264 -0.19882 
0.848047 -0.401027 0.3464 0.834884 -0.450649 0.316046 -0.903103 -0.428947 0.020229 
0.825505 -0.471726 0.309864 -0.885933 -0.459103 0.0659382 -0.861159 -0.504416 0.0630061 
-0.861896 -0.422416 -0.280534 0.784427 -0.522 0.334947 0.766671 -0.558217 0.317191 
-0.773232 -0.626787 0.0961826 -0.654278 -0.746357 0.121949 0.572247 -0.775057 0.267994 
0.507131 -0.816163 0.276941 0.311772 -0.937822 0.152606 0.128457 -0.985866 0.10755 
-0.0317703 -0.997496 0.063179 -0.10561 -0.994235 0.018516 -0.0767632 -0.996983 0.0114854 
-0.119087 -0.99192 0.0437297 -0.227079 -0.967562 0.110722 -0.474679 -0.872348 0.117 
-0.398175 -0.907907 0.131001 -0.403792 -0.821658 -0.402281 0.00884752 0.957568 0.28807 
0.388655 0.875704 0.286512 0.0246779 0.957192 0.2884 0.234986 0.924745 0.299381 
-0.00724871 0.958352 0.285499 -0.188059 0.948498 0.25492 -0.234978 0.945406 0.225817 
-0.266113 0.943455 0.197676 -0.321282 0.936291 0.141907 0.673271 0.705819 0.220284 
0.559761 0.780138 0.279379 0.57905 0.764699 0.28273 -0.346561 0.927866 0.137694 
-0.42766 0.895685 0.121883 -0.579102 0.812796 0.0632679 0.682065 0.698437 0.216735 
-0.594182 0.802527 0.053843 -0.60557 0.781954 -0.147761 -0.738175 0.672158 -0.0574554 
0.820562 0.554227 0.139675 0.841589 0.52696 0.118495 -0.764303 0.63955 -0.0825579 
-0.749701 0.587584 -0.304455 0.902919 0.424496 0.0673752 -0.878608 0.417033 -0.232662 
-0.902906 0.312184 -0.295471 0.959478 0.281022 0.0206735 0.99024 0.128062 -0.0550027 
-0.916422 0.135288 -0.376654 -0.870674 0.121046 -0.476733 0.99221 0.106668 -0.0643574 
0.989505 0.103047 -0.101296 -0.861505 -0.0729555 -0.50248 -0.770632 -0.269351 -0.577561 
-0.809799 -0.111344 -0.576046 0.99342 -0.0458475 -0.10495 0.986303 -0.124694 -0.107969 
0.98712 -0.0499829 -0.151973 -0.761601 -0.280518 -0.584186 -0.507086 -0.281605 -0.814593 
0.956099 -0.271053 -0.111376 -0.75234 -0.26768 -0.60194 -0.589017 -0.256822 -0.766226 
0.900568 -0.424861 -0.0920312 0.863725 -0.493231 -0.103451 -0.499968 -0.0879465 -0.861567 
-0.759929 -0.287836 -0.582802 -0.784767 -0.348407 -0.512595 -0.697979 -0.258221 -0.667942 
0.856678 -0.504702 -0.10667 -0.800843 -0.373006 -0.468526 -0.532047 -0.201987 -0.82227 
0.78836 -0.601959 -0.127016 0.741796 -0.652521 -0.154776 0.694669 -0.612739 -0.376809 
-0.40021 -0.809888 -0.428851 -0.269852 -0.501956 -0.821718 -0.733917 -0.55057 -0.397792 
-0.644022 -0.655781 -0.393937 -0.622058 -0.539881 -0.567073 0.538891 -0.813031 -0.220402 
0.473973 -0.851318 -0.22496 0.45284 -0.815934 -0.359427 0.201154 -0.92978 -0.308296 
0.16055 -0.72879 -0.665649 0.03569 -0.928551 -0.369485 -0.0781187 -0.889835 -0.449546 
-0.12264 -0.702766 -0.700771 -0.111031 -0.877446 -0.466648 -0.11407 -0.729848 -0.674025 
-0.0614102 -0.866861 -0.494754 -0.0663591 -0.740636 -0.668621 -0.0367476 -0.883013 -0.467907 
-0.0399978 -0.739837 -0.671597 -0.394607 -0.812809 -0.428517 -0.164349 -0.891562 -0.422027 
-0.169801 -0.751005 -0.63809 -0.00322897 0.974068 -0.226231 0.421615 0.86271 -0.279235 
0.111565 0.969427 -0.218549 0.240264 0.94535 -0.220422 -0.102056 0.968846 -0.225658 
-0.00362148 0.951341 -0.30812 -0.218996 0.94607 -0.238731 -0.293783 0.905307 -0.306775 
-0.291583 0.877982 -0.379641 -0.331675 0.870726 -0.363081 0.721505 0.640031 -0.264179 
0.571509 0.783548 -0.243782 0.583165 0.775757 -0.241078 0.363424 0.656704 -0.660804 
-0.263854 0.592686 -0.760989 -0.269803 0.770517 -0.577504 -0.333298 0.869924 -0.363517 
-0.331432 0.869119 -0.36713 -0.466339 0.732746 -0.495592 0.725682 0.634745 -0.265489 
0.719384 0.632239 -0.287681 0.392102 0.446796 -0.804132 -0.175191 0.290634 -0.940659 
-0.268078 0.376242 -0.886892 -0.557677 0.664925 -0.496861 -0.40211 0.558693 -0.725376 
-0.576903 0.623609 -0.527537 0.80065 0.486348 -0.349892 0.837996 0.404046 -0.366756 
0.562837 0.365995 -0.741122 -0.263222 0.220841 -0.939118 -0.639199 0.454936 -0.620047 
-0.46215 0.341514 -0.818404 -0.663924 0.310001 -0.680518 0.855512 0.332492 -0.396923 
0.798499 0.294495 -0.525045 -0.151603 0.0484804 -0.987252 -0.337 0.172162 -0.92563 
-0.650996 0.210769 -0.729233 -0.60355 0.187401 -0.774989 0.854916 0.211525 -0.473682 
0.67153 0.129894 -0.729504 -0.0145036 -0.0534491 -0.998465 -0.106324 -0.00828102 -0.994297 
-0.320837 -0.0280455 -0.946719 -0.624902 0.0636388 -0.778105 -0.554591 0.0387951 -0.831219 
0.85132 0.0500114 -0.522258 0.621904 0.0408902 -0.782025 -0.0624643 -0.100005 -0.993024 
0.0215172 0.0206775 -0.999555 -0.0243949 -0.0745331 -0.99692 -0.15825 -0.139912 -0.977436 
-0.301652 -0.209725 -0.930065 -0.582824 -0.159239 -0.796844 -0.492251 -0.251244 -0.833406 
-0.478789 -0.172268 -0.860863 0.844114 -0.0794506 -0.530245 0.628733 -0.0536369 -0.775769 
-0.171215 -0.0668104 -0.982966 -0.0121162 -0.148984 -0.988765 0.00624359 -0.181819 -0.983312 
-0.127118 -0.164847 -0.978093 -0.250671 -0.195643 -0.948097 -0.460113 -0.271136 -0.845448 
-0.36498 -0.232918 -0.901409 0.818026 -0.230511 -0.52697 0.680954 -0.175426 -0.711004 
-0.106292 -0.164821 -0.980579 -0.104978 -0.0886081 -0.990519 -0.186162 -0.173505 -0.967078 
0.0231407 -0.228936 -0.973166 -0.0487735 -0.161532 -0.985662 -0.253802 -0.118735 -0.959941 
-0.442058 -0.178625 -0.879021 -0.472322 -0.111523 -0.874343 -0.424725 -0.166102 -0.889954 
0.798284 -0.370411 -0.474909 0.781962 -0.403495 -0.475107 0.755004 -0.357008 -0.550014 
0.405096 -0.263337 -0.875529 -0.114209 -0.0181361 -0.993291 -0.154397 -0.113877 -0.981424 
-0.167111 -0.050252 -0.984657 0.00153767 -0.0715309 -0.997437 -0.0281491 -0.10211 -0.994375 
-0.476164 -0.0829378 -0.875437 -0.275997 -0.100652 -0.955874 0.702655 -0.489563 -0.516337 
0.615172 -0.561527 -0.5534 0.544181 -0.449134 -0.708622 -0.105957 -0.171497 -0.97947 
-0.129497 -0.140151 -0.981625 -0.1546 -0.192364 -0.969069 -0.132986 -0.149975 -0.979705 
-0.0261976 -0.160148 -0.986745 -0.0805358 -0.201553 -0.976161 -0.463023 -0.202982 -0.862791 
-0.254544 -0.434267 -0.864072 -0.247267 -0.234764 -0.940077 0.544493 -0.592377 -0.593815 
0.367084 -0.65777 -0.657714 0.314823 -0.554375 -0.770425 0.154461 -0.709935 -0.687121 
0.0916587 -0.468156 -0.878879 -0.0454957 -0.394859 -0.917615 -0.126795 -0.64356 -0.75482 
-0.11894 -0.392804 -0.911898 -0.128253 -0.595969 -0.792699 -0.14801 -0.440825 -0.885306 
-0.0879827 -0.511238 -0.854924 -0.112452 -0.400041 -0.909572 -0.0509168 -0.467011 -0.882784 
-0.0524148 -0.403081 -0.913662 -0.187595 -0.453156 -0.871469 -0.126821 -0.447378 -0.885308 
-0.115649 -0.414403 -0.902716 0.0243334 -0.718556 -0.695044 -0.0449855 -0.710933 -0.70182 
-0.0340469 -0.716768 -0.69648 -0.0345154 -0.712495 -0.700828 0.1721 0.449001 -0.876801 
-0.00571577 0.472552 -0.881284 -0.14953 0.45319 -0.878783 0.183202 0.44449 -0.87685 
0.241818 0.421748 -0.873872 0.164975 0.429145 -0.888041 -0.00509909 0.394128 -0.919041 
-0.156177 0.447293 -0.880646 -0.146547 0.439249 -0.886332 -0.21973 0.367484 -0.9037 
0.320212 0.393695 -0.861666 0.345206 0.385828 -0.855552 0.186855 0.306028 -0.933505 
0.0820417 0.224755 -0.970955 -0.0255939 0.130736 -0.991087 -0.0787221 0.144732 -0.986334 
-0.177154 0.274354 -0.94517 -0.182524 0.23009 -0.955899 -0.162925 0.225385 -0.96055 
-0.113351 0.100762 -0.988432 0.430575 0.311055 -0.847261 0.478669 0.2402 -0.8445 
0.247692 0.237125 -0.939372 0.0896455 0.148926 -0.984776 -0.022439 0.0413679 -0.998892 
-0.064853 -0.0322888 -0.997372 -0.0532077 -0.0294063 -0.99815 -0.103029 -0.00703756 -0.994653 
-0.127742 0.0499595 -0.990548 -0.116639 0.0998114 -0.988146 -0.109719 0.0936842 -0.989538 
0.498246 0.166501 -0.850899 0.416313 0.137309 -0.898794 0.175425 0.086425 -0.980692 
0.00485537 0.0542464 -0.998516 -0.108488 -0.0228623 -0.993835 -0.0991817 -0.0658235 -0.99289 
-0.0563556 -0.0503713 -0.997139 -0.092362 -0.0917985 -0.991485 -0.0522603 -0.0762249 -0.99572 
-0.0838005 -0.0972387 -0.991727 -0.0844964 0.0197198 -0.996229 -0.0684795 0.0133558 -0.997563 
0.451871 0.0573425 -0.890239 0.362827 0.043129 -0.930858 0.157467 0.00480575 -0.987512 
-0.0224231 -0.0359467 -0.999102 -0.144929 -0.045441 -0.988398 -0.0906107 -0.0101436 -0.995835 
-0.0770829 -0.0768665 -0.994057 -0.0911729 -0.0933979 -0.991446 -0.108065 -0.11413 -0.987571 
-0.155863 -0.125953 -0.979715 0.0187128 -0.0282592 -0.999425 -0.0628286 -0.0111357 -0.997962 
-0.00250754 -0.0531808 -0.998582 0.0334605 -0.0184254 -0.99927 0.448853 0.0314071 -0.893054 
0.323502 0.0259094 -0.945873 0.0985977 0.00939738 -0.995083 -0.0458937 -0.0461273 -0.997881 
-0.0822689 -0.0414294 -0.995749 -0.128342 -0.016843 -0.991587 -0.111103 -0.108813 -0.987834 
-0.17232 -0.0715621 -0.982438 -0.177986 -0.119081 -0.976801 0.459547 -0.0359569 -0.887425 
0.329095 -0.0287477 -0.943859 0.08637 -0.0206091 -0.99605 -0.0740266 -0.012375 -0.99718 
-0.114305 -0.0874107 -0.989593 -0.171355 -0.0734883 -0.982465 -0.131916 -0.18993 -0.972895 
-0.163069 -0.206639 -0.964732 0.445455 -0.127236 -0.886217 0.402905 -0.258154 -0.87808 
0.355018 -0.117815 -0.927406 0.11305 -0.0974467 -0.988799 -0.109331 -0.0760578 -0.991091 
-0.188287 -0.155604 -0.969709 -0.276038 -0.131742 -0.952075 0.399398 -0.261694 -0.878634 
0.126383 -0.197921 -0.972036 -0.106655 -0.183485 -0.97722 -0.183243 -0.070426 -0.980542 
-0.118135 -0.16144 -0.979786 -0.207668 -0.0919116 -0.973872 0.204161 -0.367801 -0.907216 
0.197432 -0.369805 -0.90789 0.195178 -0.365066 -0.910292 -0.0903947 -0.190418 -0.977533 
-0.000391281 -0.303574 -0.952808 -0.00995467 -0.286137 -0.958137 
