# vtk DataFile Version 4.2
vtk output
ASCII
DATASET POLYDATA
POINTS 530 float
-22.3408 23.3044 -22.7528 -14.6347 31.0106 -23.1718 -14.6347 -38.345 -15.4657 
-6.92849 -38.345 -15.9812 0.777674 -38.345 -15.4438 -30.047 -30.6388 -15.0588 
-22.3408 -30.6388 -16.9216 -14.6347 -30.6388 -18.1774 -6.92849 -30.6388 -17.7572 
0.777674 -30.6388 -17.4093 8.48384 -30.6388 -16.8918 16.19 -30.6388 -15.5513 
-37.7532 -22.9326 -15.1196 -30.047 -22.9326 -17.5078 -22.3408 -22.9326 -17.9651 
-14.6347 -22.9326 -18.2562 -6.92849 -22.9326 -18.0153 0.777674 -22.9326 -17.5469 
8.48384 -22.9326 -16.7767 16.19 -22.9326 -15.7701 -37.7532 -15.2265 -18.1124 
-30.047 -15.2265 -19.1066 -22.3408 -15.2265 -18.9116 -14.6347 -15.2265 -17.4 
-6.92849 -15.2265 -16.8018 0.777674 -15.2265 -16.4177 8.48384 -15.2265 -15.2849 
16.19 -15.2265 -15.3782 -45.4593 -7.52029 -16.2154 -37.7532 -7.52029 -19.5366 
-30.047 -7.52029 -20.0292 -22.3408 -7.52029 -19.194 -14.6347 -7.52029 -16.9864 
-6.92849 -7.52029 -16.2766 0.777674 -7.52029 -15.6621 8.48384 -7.52029 -16.4862 
-45.4593 0.185878 -17.4818 -37.7532 0.185878 -20.2717 -30.047 0.185878 -20.9169 
-22.3408 0.185878 -20.2495 -14.6347 0.185878 -19.9509 -6.92849 0.185878 -21.1079 
0.777674 0.185878 -16.2181 8.48384 0.185878 -18.7394 16.19 0.185878 -17.1923 
-45.4593 7.89205 -18.2071 -37.7532 7.89205 -20.763 -30.047 7.89205 -21.7116 
-22.3408 7.89205 -21.3997 -14.6347 7.89205 -20.8849 -6.92849 7.89205 -21.956 
0.777674 7.89205 -22.2476 8.48384 7.89205 -20.6874 16.19 7.89205 -18.1957 
23.8962 7.89205 -17.1721 31.6023 7.89205 -16.0146 -45.4593 15.5982 -17.0793 
-37.7532 15.5982 -21.2517 -30.047 15.5982 -22.6471 -22.3408 22.0672 -22.7027 
-22.3408 15.5982 -22.4387 -14.6347 15.5982 -21.4531 -6.92849 15.5982 -20.903 
0.777674 15.5982 -22.0965 8.48384 15.5982 -20.6811 16.19 15.5982 -18.8651 
23.8962 15.5982 -18.3423 31.6023 15.5982 -17.1655 -37.7532 23.3044 -20.0707 
-22.9972 23.3044 -22.7027 -30.047 23.3044 -22.1467 -18.7521 23.3044 -22.7027 
-22.3408 24.0636 -22.7027 -14.6347 24.1803 -22.7027 -14.6347 23.3044 -22.6449 
-6.92849 23.3044 -22.03 0.777674 23.3044 -21.9835 8.48384 23.3044 -21.0438 
16.19 23.3044 -19.1412 23.8962 23.3044 -17.894 31.6023 23.3044 -16.5145 
-37.7532 31.0106 -17.5439 -30.047 31.0106 -21.2327 -18.4443 31.0106 -22.7027 
-22.3408 31.0106 -22.2688 -9.93204 31.0106 -22.7027 -14.6347 33.8043 -22.7027 
-6.92849 31.0106 -22.4139 0.777674 31.0106 -22.0118 8.48384 31.0106 -20.5408 
16.19 31.0106 -18.3795 23.8962 31.0106 -16.3134 -30.047 38.7167 -16.7915 
-22.3408 38.7167 -19.9507 -14.6347 38.7167 -21.7527 -6.92849 38.7167 -21.2521 
0.777674 38.7167 -21.2777 8.48384 38.7167 -18.7633 16.19 38.7167 -15.6325 
-14.6347 46.4229 -15.3336 -6.92849 46.4229 -16.1991 0.777674 46.4229 -15.2534 
-14.6347 -39.0124 -14.9965 -6.92849 -39.8809 -14.9965 0.777674 -39.0118 -14.9965 
-30.047 -30.746 -14.9965 -30.047 -38.345 -7.78425 -16.9943 -38.345 -14.9965 
-22.3408 -35.6311 -14.9965 -22.3408 -38.345 -13.4643 4.0592 -38.345 -14.9965 
8.48384 -36.471 -14.9965 8.48384 -38.345 -14.2338 16.19 -32.3456 -14.9965 
16.19 -38.345 -12.5641 23.8962 -38.345 -9.83591 -30.1717 -30.6388 -14.9965 
-37.7532 -23.1689 -14.9965 -37.7532 -30.6388 -8.88027 19.114 -30.6388 -14.9965 
23.8962 -30.6388 -13.9805 31.6023 -30.6388 -10.3092 -37.938 -22.9326 -14.9965 
20.4195 -22.9326 -14.9965 23.8962 -22.9326 -14.3779 31.6023 -22.9326 -11.4891 
39.3085 -22.9326 -7.67729 -44.2029 -15.2265 -14.9965 -45.4593 -12.1322 -14.9965 
-45.4593 -15.2265 -13.8281 18.2767 -15.2265 -14.9965 16.19 -9.02808 -14.9965 
23.8962 -15.2265 -13.9552 31.6023 -15.2265 -11.5718 39.3085 -15.2265 -9.49415 
-46.8423 -7.52029 -14.9965 15.6924 -7.52029 -14.9965 16.19 -7.1434 -14.9965 
16.19 -7.52029 -14.9015 23.8962 -7.52029 -13.532 31.6023 -7.52029 -12.3257 
39.3085 -7.52029 -10.3836 -49.0605 0.185878 -14.9965 -53.1655 0.185878 -8.63995 
23.2403 0.185878 -14.9965 23.8962 0.741425 -14.9965 23.8962 0.185878 -14.8229 
31.6023 4.34054 -14.9965 31.6023 0.185878 -13.865 39.3085 0.185878 -12.0679 
47.0147 0.185878 -8.60824 -48.7441 7.89205 -14.9965 35.4179 7.89205 -14.9965 
39.3085 7.89205 -13.9716 47.0147 7.89205 -10.1095 -47.4259 15.5982 -14.9965 
-45.4593 22.6731 -14.9965 38.046 15.5982 -14.9965 39.3085 15.5982 -14.5477 
47.0147 15.5982 -9.90989 -45.2534 23.3044 -14.9965 -45.4593 23.3044 -14.4823 
36.0509 23.3044 -14.9965 31.6023 26.7301 -14.9965 39.3085 23.3044 -13.3914 
-40.0725 31.0106 -14.9965 -37.7532 33.5368 -14.9965 27.0011 31.0106 -14.9965 
23.8962 33.7201 -14.9965 31.6023 31.0106 -12.3459 -31.9014 38.7167 -14.9965 
-30.047 40.0919 -14.9965 -22.3408 44.026 -14.9965 8.48384 44.1591 -14.9965 
17.642 38.7167 -14.9965 16.19 39.5637 -14.9965 23.8962 38.7167 -10.5776 
-15.3938 46.4229 -14.9965 -14.6347 46.6395 -14.9965 -6.92849 47.3399 -14.9965 
1.58814 46.4229 -14.9965 0.777674 46.6012 -14.9965 8.48384 46.4229 -10.6261 
-30.047 -38.6716 -7.29038 -22.3408 -42.9128 -7.29038 -14.6347 -44.8727 -7.29038 
-6.92849 -45.3116 -7.29038 -6.92849 -46.0511 -1.01914 0.777674 -45.0676 -7.29038 
8.48384 -44.2498 -7.29038 16.19 -43.1042 -7.29038 23.8962 -40.5977 -7.29038 
-30.487 -38.345 -7.29038 -37.7532 -31.9077 -7.29038 27.4804 -38.345 -7.29038 
31.6023 -34.8945 -7.29038 31.6023 -38.345 -1.32228 -38.9694 -30.6388 -7.29038 
35.1976 -30.6388 -7.29038 39.3085 -23.7716 -7.29038 39.3085 -30.6388 -1.88793 
-45.0031 -22.9326 -7.29038 -45.4593 -22.2148 -7.29038 -45.4593 -22.9326 -4.47518 
39.8928 -22.9326 -7.29038 47.0147 -22.9326 0.327565 -49.3896 -15.2265 -7.29038 
42.8329 -15.2265 -7.29038 47.0147 -15.2265 -3.61184 -52.2531 -7.52029 -7.29038 
-53.1655 -2.80676 -7.29038 45.693 -7.52029 -7.29038 47.0147 -4.94175 -7.29038 
47.0147 -7.52029 -6.51535 -53.7348 0.185878 -7.29038 -53.1655 6.09527 -7.29038 
-53.1655 0.185878 -1.7537 48.8909 0.185878 -7.29038 54.7209 0.185878 0.13099 
-52.9924 7.89205 -7.29038 50.1969 7.89205 -7.29038 -51.2185 15.5982 -7.29038 
49.4552 15.5982 -7.29038 47.0147 20.1447 -7.29038 -47.5515 23.3044 -7.29038 
-45.4593 26.6658 -7.29038 -45.4593 23.3044 -1.84058 45.1026 23.3044 -7.29038 
39.3085 29.8393 -7.29038 47.0147 23.3044 -2.54026 -42.0872 31.0106 -7.29038 
-37.7532 35.2889 -7.29038 -37.7532 31.0106 0.0897514 37.9746 31.0106 -7.29038 
31.6023 35.822 -7.29038 39.3085 31.0106 -3.97942 -33.5989 38.7167 -7.29038 
-30.047 41.1373 -7.29038 -30.047 38.7167 -0.559432 -22.3408 45.3093 -7.29038 
16.19 44.8052 -7.29038 27.337 38.7167 -7.29038 23.8962 40.7986 -7.29038 
-19.0052 46.4229 -7.29038 -14.6347 47.8036 -7.29038 -14.6347 46.4229 -1.49372 
-6.92849 49.184 -7.29038 0.777674 48.7056 -7.29038 11.5707 46.4229 -7.29038 
8.48384 47.4444 -7.29038 8.48384 46.4229 -1.29057 -6.92849 -46.2169 0.415792 
-30.047 -39.4815 0.415792 -22.3408 -43.6137 0.415792 -9.36209 -46.0511 0.415792 
-14.6347 -45.6881 0.415792 0.449749 -46.0511 0.415792 -6.92849 -46.0511 2.26304 
0.777674 -46.0438 0.415792 8.48384 -45.275 0.415792 16.19 -44.3468 0.415792 
23.8962 -42.5457 0.415792 31.6023 -38.9746 0.415792 -31.6326 -38.345 0.415792 
-37.7532 -33.2064 0.415792 -30.047 -38.345 4.95777 32.543 -38.345 0.415792 
39.3085 -32.3577 0.415792 -40.3231 -30.6388 0.415792 -45.4593 -24.0582 0.415792 
40.9443 -30.6388 0.415792 47.0147 -23.0157 0.415792 -46.2565 -22.9326 0.415792 
-45.4593 -22.9326 3.20277 47.0712 -22.9326 0.415792 -49.9527 -15.2265 0.415792 
50.7356 -15.2265 0.415792 -52.1429 -7.52029 0.415792 53.6293 -7.52029 0.415792 
54.7209 -0.880948 0.415792 -52.9285 0.185878 0.415792 54.8604 0.185878 0.415792 
54.7209 2.96649 0.415792 -51.7637 7.89205 0.415792 54.4604 7.89205 0.415792 
-49.4081 15.5982 0.415792 -45.4593 21.7835 0.415792 -45.4593 15.5982 4.94721 
52.523 15.5982 0.415792 -44.4097 23.3044 0.415792 -37.7532 30.801 0.415792 
-37.7532 23.3044 6.62657 48.0494 23.3044 0.415792 47.0147 24.5212 0.415792 
47.0147 23.3044 5.50788 -37.5298 31.0106 0.415792 -30.047 38.2324 0.415792 
-30.047 31.0106 6.32896 31.6023 37.6117 0.415792 40.6838 31.0106 0.415792 
39.3085 32.2257 0.415792 39.3085 31.0106 5.68776 -29.313 38.7167 0.415792 
-22.3408 42.4025 0.415792 -22.3408 38.7167 4.77906 -14.6347 45.8494 0.415792 
8.48384 46.1141 0.415792 16.19 44.5504 0.415792 29.676 38.7167 0.415792 
23.8962 41.7727 0.415792 -10.1096 46.4229 0.415792 -6.92849 46.7768 0.415792 
-6.92849 46.4229 0.990644 4.98421 46.4229 0.415792 0.777674 46.7953 0.415792 
0.777674 46.4229 1.09255 -22.3408 -41.9618 8.12196 -14.6347 -44.5549 8.12196 
-6.92849 -45.5325 8.12196 0.777674 -45.4496 8.12196 8.48384 -44.6948 8.12196 
16.19 -43.617 8.12196 23.8962 -41.7168 8.12196 31.6023 -38.477 8.12196 
-37.7532 -30.9969 8.12196 -28.7435 -38.345 8.12196 -30.047 -37.5199 8.12196 
-22.3408 -38.345 14.3403 23.8962 -38.345 15.5606 31.8085 -38.345 8.12196 
31.6023 -38.345 8.46828 39.3085 -32.688 8.12196 -38.1097 -30.6388 8.12196 
-37.7532 -30.6388 8.61458 41.5064 -30.6388 8.12196 39.3085 -30.6388 12.3478 
47.0147 -24.0576 8.12196 -44.0671 -22.9326 8.12196 -45.4593 -19.8655 8.12196 
-37.7532 -22.9326 15.6241 47.8 -22.9326 8.12196 47.0147 -22.9326 9.71824 
-47.3756 -15.2265 8.12196 -45.4593 -15.2265 10.785 52.0016 -15.2265 8.12196 
47.0147 -15.2265 15.5016 -48.6055 -7.52029 8.12196 -45.4593 -7.52029 11.7436 
54.1547 -7.52029 8.12196 54.7209 -0.215956 8.12196 -48.2903 0.185878 8.12196 
-45.4593 0.185878 11.0622 -37.7532 0.185878 15.0844 54.7496 0.185878 8.12196 
54.7209 0.468198 8.12196 54.7209 0.185878 8.17603 -46.5553 7.89205 8.12196 
-45.4593 10.1303 8.12196 -45.4593 7.89205 9.11404 -37.7532 7.89205 12.9438 
-30.047 7.89205 14.9464 53.8662 7.89205 8.12196 -41.2726 15.5982 8.12196 
-37.7532 20.3043 8.12196 -37.7532 15.5982 10.2521 -30.047 15.5982 12.5807 
-22.3408 15.5982 13.8245 -14.6347 15.5982 15.0536 51.2337 15.5982 8.12196 
47.0147 22.4299 8.12196 47.0147 15.5982 14.575 -34.6057 23.3044 8.12196 
-30.047 27.5519 8.12196 -30.047 23.3044 10.01 -22.3408 23.3044 12.2531 
-14.6347 23.3044 14.2886 46.3491 23.3044 8.12196 39.3085 30.3195 8.12196 
39.3085 23.3044 15.719 -26.4121 31.0106 8.12196 -22.3408 34.1729 8.12196 
[...]
POINT_DATA 530
SCALARS ImageScalars float
LOOKUP_TABLE default
0 0 0 0 0 0 0 0 0 
0 0 0 0 0 0 0 0 0 
0 0 0 0 0 0 0 0 0 
0 0 0 0 0 0 0 0 0 
0 0 0 0 0 0 0 0 0 
0 0 0 0 0 0 0 0 0 
0 0 0 0 0 0 0 0 0 
0 0 0 0 0 0 0 0 0 
0 0 0 0 0 0 0 0 0 
0 0 0 0 0 0 0 0 0 
0 0 0 0 0 0 0 0 0 
0 0 0 0 0 0 0 0 0 
0 0 0 0 0 0 0 0 0 
0 0 0 0 0 0 0 0 0 
0 0 0 0 0 0 0 0 0 
0 0 0 0 0 0 0 0 0 
0 0 0 0 0 0 0 0 0 
0 0 0 0 0 0 0 0 0 
0 0 0 0 0 0 0 0 0 
0 0 0 0 0 0 0 0 0 
0 0 0 0 0 0 0 0 0 
0 0 0 0 0 0 0 0 0 
0 0 0 0 0 0 0 0 0 
0 0 0 0 0 0 0 0 0 
0 0 0 0 0 0 0 0 0 
0 0 0 0 0 0 0 0 0 
0 0 0 0 0 0 0 0 0 
0 0 0 0 0 0 0 0 0 
0 0 0 0 0 0 0 0 0 
0 0 0 0 0 0 0 0 0 
0 0 0 0 0 0 0 0 0 
0 0 0 0 0 0 0 0 0 
0 0 0 0 0 0 0 0 0 
0 0 0 0 0 0 0 0 0 
0 0 0 0 0 0 0 0 0 
0 0 0 0 0 0 0 0 0 
0 0 0 0 0 0 0 0 0 
0 0 0 0 0 0 0 0 0 
0 0 0 0 0 0 0 0 0 
0 0 0 0 0 0 0 0 0 
0 0 0 0 0 0 0 0 0 
0 0 0 0 0 0 0 0 0 
0 0 0 0 0 0 0 0 0 
0 0 0 0 0 0 0 0 0 
0 0 0 0 0 0 0 0 0 
0 0 0 0 0 0 0 0 0 
0 0 0 0 0 0 0 0 0 
0 0 0 0 0 0 0 0 0 
0 0 0 0 0 0 0 0 0 
0 0 0 0 0 0 0 0 0 
0 0 0 0 0 0 0 0 0 
0 0 0 0 0 0 0 0 0 
0 0 0 0 0 0 0 0 0 
0 0 0 0 0 0 0 0 0 
0 0 0 0 0 0 0 0 0 
0 0 0 0 0 0 0 0 0 
0 0 0 0 0 0 0 0 0 
0 0 0 0 0 0 0 0 0 
0 0 0 0 0 0 0 0 
NORMALS Normals float
0.0311836 -0.0126901 0.999433 0.0106742 -0.0514221 0.99862 0.123674 0.499594 0.857386 
-0.00256017 0.426129 0.904659 -0.0973883 0.456106 0.884581 0.340645 0.413125 0.844564 
0.178188 0.233163 0.955973 0.0523175 0.176204 0.982962 -0.0476045 0.127409 0.990707 
-0.0541424 0.131398 0.98985 -0.119247 0.130546 0.984245 -0.169341 0.165067 0.971636 
0.428152 0.424808 0.797637 0.155104 0.246366 0.956685 0.0464539 0.122586 0.99137 
0.00319356 -0.0508253 0.998702 -0.0458401 -0.0616428 0.997045 -0.0806317 -0.0622409 0.994799 
-0.116161 -0.102988 0.987877 -0.153895 -0.0113249 0.988022 0.278974 0.23914 0.930046 
0.0520017 0.150426 0.987253 -0.115369 0.0816692 0.98996 -0.134186 -0.0815094 0.987598 
-0.063449 -0.107806 0.992145 -0.09775 -0.121396 0.987779 -0.0655876 -0.0270444 0.99748 
-0.0863318 -0.0526978 0.994872 0.557958 0.192132 0.807322 0.204492 0.149967 0.967312 
-0.0241982 0.125715 0.991771 -0.18785 0.0840574 0.978594 -0.184453 0.158949 0.969903 
-0.0871863 0.251117 0.964022 0.0154915 -0.0257051 0.99955 -0.0356855 0.228886 0.972799 
0.493173 0.0994998 0.864222 0.20778 0.0751195 0.975287 0.000619773 0.105917 0.994375 
-0.0639496 0.143141 0.987634 0.0473841 0.251771 0.966626 -0.138768 0.3298 0.933796 
-0.137855 0.455584 0.879454 0.0238188 0.263104 0.964473 -0.262881 0.205256 0.942742 
0.557741 -0.00677829 0.829987 0.180166 0.0605537 0.981771 0.0421834 0.11241 0.992766 
-0.0532697 0.139182 0.988833 0.0308044 0.0911367 0.995362 0.0898631 -0.0220419 0.99571 
-0.0793114 0.250671 0.964818 -0.254394 0.123657 0.959163 -0.214977 0.0978784 0.971702 
-0.135548 0.213156 0.96757 -0.19917 0.208489 0.95753 0.65981 -0.170355 0.731867 
0.277171 -0.0380783 0.960066 0.0687191 0.029512 0.997199 0.0148104 0.00322833 0.999885 
-0.0722744 0.0871221 0.993572 -0.102195 0.117245 0.987831 0.0414397 0.0100677 0.99909 
-0.0121421 -0.0164523 0.999791 -0.214563 0.0231008 0.976437 -0.145078 0.0593596 0.987638 
-0.109058 0.04534 0.993001 -0.228566 0.030066 0.973064 0.400288 -0.192261 0.895994 
0.0421371 -0.0188848 0.998933 0.164134 -0.0875275 0.982547 -0.00504682 0.0416676 0.999119 
0.039611 -0.0264221 0.998866 -0.0402475 0.0870968 0.995386 -0.0465718 0.103884 0.993498 
-0.0427601 0.097376 0.994329 -0.0618311 -0.0051107 0.998074 -0.18731 -0.00805243 0.982268 
-0.199265 -0.0273307 0.979564 -0.1711 -0.127259 0.977 -0.258634 -0.243782 0.934708 
0.622265 -0.504191 0.598813 0.254655 -0.258803 0.931758 0.0638785 -0.0998849 0.992946 
0.115605 -0.153413 0.981376 -0.0424934 -0.0482514 0.997931 0.0290866 -0.150721 0.988148 
-0.0742616 -0.0479763 0.996084 -0.114128 -0.0370732 0.992774 -0.230833 -0.128414 0.964482 
-0.266966 -0.206986 0.941215 -0.315548 -0.326704 0.890895 0.498153 -0.705514 0.504077 
0.249336 -0.516431 0.819225 0.0680002 -0.350247 0.934186 -0.026442 -0.316737 0.948145 
-0.140064 -0.294939 0.945195 -0.322905 -0.376517 0.868313 -0.365522 -0.494909 0.788327 
0.187968 -0.884409 0.427187 -0.00292241 -0.824662 0.565619 -0.157316 -0.849522 0.503552 
0.132407 0.531386 0.836718 0.000422286 0.512984 0.858398 -0.103362 0.491634 0.864646 
0.343076 0.416739 0.8418 0.543045 0.770521 0.333766 0.176023 0.524207 0.833201 
0.254626 0.455108 0.853254 0.314382 0.623103 0.716175 -0.127719 0.48159 0.86704 
-0.155156 0.423438 0.89254 -0.16384 0.538841 0.826321 -0.179495 0.237112 0.954756 
-0.222144 0.583117 0.781426 -0.415161 0.649892 0.636617 0.344702 0.415884 0.841559 
0.433062 0.429858 0.792262 0.658551 0.63401 0.405391 -0.219594 0.181236 0.958609 
-0.317729 0.225494 0.920978 -0.533697 0.344021 0.77254 0.434903 0.428429 0.792028 
-0.209425 -0.00940461 0.97778 -0.256213 -0.00433823 0.966611 -0.410987 0.0673685 0.909148 
-0.525142 0.317721 0.78948 0.592028 0.318502 0.74031 0.616683 0.277542 0.736664 
0.675578 0.34967 0.649096 -0.127627 -0.0553125 0.990279 -0.172527 0.0678479 0.982665 
-0.23477 -0.0541512 0.970541 -0.284887 0.052503 0.957122 -0.408589 0.159772 0.898626 
0.614929 0.212689 0.759358 -0.184849 0.108599 0.976748 -0.197979 0.106453 0.974409 
-0.193937 0.0994286 0.975962 -0.161529 0.053298 0.985428 -0.190032 0.148043 0.970552 
-0.316685 0.166067 0.93388 0.663135 0.0868686 0.743442 0.967524 0.0540032 0.246943 
-0.199363 0.233343 0.951738 -0.18919 0.232688 0.953973 -0.191668 0.233578 0.95326 
-0.186416 0.215973 0.958439 -0.167673 0.224826 0.959864 -0.309714 0.215875 0.926 
-0.524888 0.188843 0.829958 0.725739 -0.0814362 0.683133 -0.267278 0.181364 0.946398 
-0.338858 0.150586 0.928708 -0.602749 0.0779008 0.794119 0.748464 -0.188376 0.635858 
0.765175 -0.364811 0.53049 -0.372802 -0.000376716 0.927911 -0.405548 -0.0159828 0.913934 
-0.704989 -0.215581 0.675659 0.762815 -0.378252 0.524441 0.782967 -0.393359 0.481903 
-0.397277 -0.285428 0.872182 -0.336129 -0.369267 0.866406 -0.52904 -0.347778 0.774059 
0.70404 -0.564333 0.43111 0.667763 -0.619728 0.412347 -0.362986 -0.405848 0.838766 
-0.366892 -0.437755 0.820829 -0.466125 -0.56585 0.680104 0.555712 -0.7402 0.378534 
0.520319 -0.768749 0.371878 0.35445 -0.827787 0.434895 -0.327084 -0.707267 0.626729 
-0.379322 -0.52445 0.762277 -0.375772 -0.53407 0.75734 -0.484736 -0.725365 0.488749 
0.208431 -0.89093 0.403485 0.190022 -0.894298 0.40512 0.00160307 -0.871908 0.489666 
-0.175823 -0.850241 0.496162 -0.157433 -0.858239 0.488509 -0.282006 -0.922047 0.265145 
0.544608 0.781305 0.3049 0.346614 0.88056 0.323224 0.144976 0.938184 0.314315 
0.0121044 0.958677 0.284239 0.0209583 0.998021 0.0592817 -0.0657985 0.941276 0.331164 
-0.120625 0.922434 0.366832 -0.209086 0.882757 0.42074 -0.411021 0.779717 0.472337 
0.552881 0.775163 0.305688 0.676296 0.664821 0.317233 -0.490631 0.697005 0.52294 
-0.569747 0.558252 0.603111 -0.533111 0.815391 0.225678 0.693202 0.646108 0.319397 
-0.627264 0.426202 0.651837 -0.544103 0.340376 0.766874 -0.708705 0.59015 0.3866 
0.784005 0.53077 0.321899 0.794079 0.521045 0.312969 0.822799 0.53786 0.183597 
-0.539099 0.325883 0.776642 -0.808806 0.486358 0.330587 0.875739 0.397798 0.273564 
-0.530074 0.199904 0.824051 -0.70555 0.302402 0.640899 0.939995 0.253733 0.228097 
0.974622 0.129784 0.182397 -0.505636 0.242433 0.827984 -0.537965 0.238732 0.808456 
-0.565057 0.264702 0.781437 0.985881 0.0472772 0.160637 0.985551 -0.109512 0.129218 
0.986846 -0.00176531 -0.161654 -0.598839 0.17492 0.781534 -0.964148 0.0437648 0.26173 
0.980426 -0.154968 0.121451 -0.73795 0.0133231 0.674724 0.943425 -0.319052 0.0903051 
-0.78474 -0.256211 0.564392 -0.75262 -0.409253 0.515825 0.867297 -0.497517 -0.0165424 
0.823895 -0.566027 -0.028452 0.784346 -0.51999 -0.338248 -0.727744 -0.505429 0.463606 
-0.620361 -0.665463 0.415104 -0.77729 -0.591885 0.213288 0.743235 -0.666348 -0.0598559 
0.674705 -0.732491 -0.0907195 0.594182 -0.638543 -0.489091 -0.600356 -0.685985 0.411093 
-0.537455 -0.745299 0.394551 -0.639588 -0.731043 0.237702 0.596645 -0.79852 -0.0798828 
0.53495 -0.840099 -0.0897867 0.504675 -0.749141 -0.429058 0.384861 -0.919739 -0.0772085 
-0.390495 -0.897081 0.206781 -0.517386 -0.788096 0.333491 -0.492794 -0.81339 0.309113 
0.316316 -0.946718 -0.0605828 0.236785 -0.9706 -0.0432351 0.228282 -0.914719 -0.333432 
0.0581391 -0.997929 -0.0275335 -0.110612 -0.993855 0.00411426 -0.293773 -0.949577 0.109546 
-0.237676 -0.969113 0.0657982 -0.163626 -0.956378 -0.242007 0.0227016 0.999665 0.012437 
0.548003 0.834183 -0.061896 0.367146 0.928373 -0.057682 0.0654642 0.997854 0.00157791 
0.158952 0.987042 -0.0219755 -0.0572563 0.99819 0.0183966 0.0302354 0.999015 -0.032488 
-0.0608023 0.997975 0.0186891 -0.108453 0.993839 0.0228608 -0.166788 0.985699 0.0240867 
-0.329681 0.942834 0.0487194 -0.515081 0.847147 0.130513 0.581278 0.811618 -0.0582503 
0.699324 0.713514 -0.0429384 0.542397 0.810357 -0.221647 -0.53671 0.832403 0.138013 
-0.70084 0.66574 0.256151 0.734734 0.677262 -0.0385028 0.835075 0.547936 -0.0491397 
-0.722645 0.632645 0.278468 -0.809209 0.489317 0.325192 0.849182 0.525343 -0.053884 
0.845579 0.505632 -0.171267 -0.809975 0.487737 0.325658 0.937397 0.328895 -0.114522 
-0.829766 0.374552 0.413763 0.961052 0.18197 -0.208003 -0.913955 0.229979 0.33436 
-0.964945 0.0658271 0.254064 0.957649 -0.0218006 -0.287112 -0.968769 0.0414045 0.244483 
-0.974462 -0.0259803 0.223043 0.915757 -0.19126 -0.353283 -0.972652 -0.142203 0.183647 
0.823468 -0.369054 -0.430929 0.727676 -0.497201 -0.472525 0.641569 -0.402417 -0.653031 
-0.92688 -0.363117 0.0950744 0.706632 -0.513805 -0.486494 0.586915 -0.630504 -0.507932 
0.450884 -0.43003 -0.782162 -0.785136 -0.616504 0.0590316 -0.763613 -0.643503 0.052906 
-0.761682 -0.614035 -0.206886 0.58497 -0.631395 -0.509068 0.494836 -0.719187 -0.487757 
0.419345 -0.471161 -0.775988 -0.535227 -0.844388 -0.023263 -0.661464 -0.749794 0.016551 
-0.640138 -0.768142 0.0134219 -0.620934 -0.748405 -0.233089 0.483915 -0.728859 -0.484346 
0.395883 -0.77908 -0.486118 0.38245 -0.646201 -0.660422 0.224804 -0.870873 -0.437085 
-0.137111 -0.933157 -0.332293 -0.262244 -0.937733 -0.22778 -0.504796 -0.862074 -0.0448262 
-0.402327 -0.909872 -0.101316 0.12161 -0.892406 -0.434537 0.0530883 -0.899114 -0.434484 
0.0560077 -0.889366 -0.453753 -0.0927388 -0.930773 -0.353639 -0.0397994 -0.924408 -0.379324 
-0.0362031 -0.914773 -0.402342 0.391828 0.858807 -0.330032 0.212614 0.938034 -0.273657 
0.0552403 0.981504 -0.183301 -0.0523701 0.984124 -0.16958 -0.117713 0.979211 -0.165193 
-0.180335 0.959991 -0.214234 -0.312665 0.920244 -0.235355 -0.480441 0.853343 -0.20244 
0.677484 0.649843 -0.344557 0.508309 0.792801 -0.336288 0.529773 0.776518 -0.341116 
0.391866 0.687702 -0.611153 -0.302046 0.758379 -0.577606 -0.484768 0.850912 -0.202357 
-0.480854 0.849407 -0.217456 -0.649647 0.741963 -0.165679 0.683121 0.643543 -0.345251 
0.676047 0.639847 -0.365455 -0.692133 0.704769 -0.155732 -0.630867 0.668402 -0.394011 
-0.810408 0.562059 -0.165316 0.801402 0.450809 -0.393099 0.828927 0.368196 -0.421084 
0.546931 0.331108 -0.768918 -0.824737 0.540914 -0.164985 -0.806764 0.529651 -0.261921 
0.849762 0.24574 -0.466386 0.790146 0.210849 -0.57551 -0.909591 0.368019 -0.192888 
-0.66702 0.245901 -0.70329 0.814228 0.0556875 -0.577869 0.709258 0.00732355 -0.704911 
-0.960465 0.170984 -0.219706 -0.962235 -0.00574136 -0.272159 0.730566 -0.113168 -0.673399 
0.623874 -0.149742 -0.767045 0.346341 -0.234317 -0.908374 -0.961434 -0.0152314 -0.274614 
-0.960874 -0.0218506 -0.276123 -0.960416 -0.01547 -0.278139 0.636852 -0.2636 -0.724524 
0.597006 -0.297913 -0.74487 0.588538 -0.274666 -0.760383 0.343372 -0.272516 -0.898794 
0.199917 -0.299179 -0.933019 -0.926543 -0.203032 -0.316695 0.485262 -0.364832 -0.794618 
0.413747 -0.387188 -0.823953 0.389549 -0.352741 -0.850779 0.203634 -0.288518 -0.93557 
0.148908 -0.240594 -0.959136 0.274402 -0.211731 -0.938016 -0.846964 -0.409413 -0.339167 
-0.743672 -0.57301 -0.344399 -0.668107 -0.337123 -0.663311 0.380751 -0.384997 -0.840717 
0.361648 -0.404236 -0.840122 0.317068 -0.346201 -0.882957 0.249933 -0.227135 -0.941246 
0.29535 -0.136794 -0.945545 -0.72758 -0.592532 -0.345737 -0.598271 -0.720069 -0.351529 
-0.487128 -0.499657 -0.716275 0.373045 -0.420761 -0.82692 0.362577 -0.475004 -0.801816 
0.35062 -0.377035 -0.857269 0.274765 -0.313429 -0.908992 0.168726 -0.379726 -0.909582 
0.073741 -0.421478 -0.903835 -0.577645 -0.73462 -0.355892 -0.440979 -0.80551 -0.395843 
-0.350519 -0.668155 -0.656281 0.276101 -0.601828 -0.749381 0.252829 -0.619231 -0.743391 
0.255299 -0.597719 -0.75997 0.111937 -0.687279 -0.717717 0.117632 -0.618167 -0.777195 
0.0124347 -0.728705 -0.684715 0.0270864 -0.637156 -0.770259 -0.0505711 -0.750046 -0.65945 
-0.0260499 -0.669535 -0.742323 -0.131824 -0.791743 -0.59646 -0.0970128 -0.734811 -0.671298 
-0.297982 -0.831408 -0.469007 -0.283733 -0.832413 -0.476009 -0.277512 -0.825234 -0.49191 
0.272488 0.689454 -0.671122 0.134698 0.791004 -0.596799 -0.019406 0.822528 -0.568394 
-0.137375 0.834379 -0.533797 -0.22887 0.789085 -0.570056 0.443063 0.513656 -0.734747 
0.341818 0.641061 -0.687169 0.364791 0.605187 -0.707585 0.269306 0.58542 -0.764695 
0.138238 0.549363 -0.824069 0.0143086 0.524482 -0.851301 -0.0967368 0.601953 -0.79265 
-0.296855 0.750675 -0.590224 -0.228531 0.681413 -0.695306 -0.299967 0.746061 -0.594486 
-0.436653 0.635671 -0.636598 0.459924 0.494841 -0.737294 0.430898 0.479055 -0.764744 
0.278818 0.365848 -0.887928 0.155884 0.220679 -0.962809 0.0776148 0.116685 -0.990132 
0.0111218 0.129684 -0.991493 -0.0124682 0.104608 -0.994435 -0.0783657 0.246409 -0.965993 
-0.215563 0.383953 -0.897838 -0.520818 0.57291 -0.632869 -0.391086 0.477812 -0.786605 
-0.562092 0.497066 -0.661043 0.534272 0.322509 -0.781372 0.536215 0.30511 -0.787008 
0.335155 0.197696 -0.921188 0.130268 0.0795261 -0.988284 0.0634368 -0.0071877 -0.99796 
0.0434808 -0.0502397 -0.99779 0.00923219 -0.0723173 -0.997339 0.0388598 -0.0395105 -0.998463 
0.0507848 0.00531148 -0.998695 -0.130102 0.0928349 -0.987145 -0.285742 0.170905 -0.942944 
-0.603312 0.368708 -0.707156 -0.482925 0.295128 -0.824429 0.5374 0.0912738 -0.838373 
0.450175 0.0700999 -0.890185 0.222545 -0.0123964 -0.974844 0.072205 -0.0463769 -0.996311 
0.0182854 -0.0922523 -0.995568 0.0164561 -0.0853812 -0.996212 0.0227762 -0.0121268 -0.999667 
0.0686843 -0.0118792 -0.997568 0.058335 -0.0973286 -0.993541 -0.0487219 -0.106363 -0.993133 
-0.174887 0.0169154 -0.984443 -0.638353 0.231325 -0.734162 -0.325159 0.110333 -0.939201 
-0.634767 0.20656 -0.744583 0.481077 -0.109233 -0.869847 0.373656 -0.197471 -0.906304 
0.414132 -0.136261 -0.89996 0.210063 -0.144445 -0.966959 0.0556299 -0.136143 -0.989126 
0.0257781 -0.0384721 -0.998927 0.126169 -0.0842688 -0.988423 0.0811264 -0.0790231 -0.993566 
-0.0474227 0.0223834 -0.998624 -0.0480879 -0.111548 -0.992595 -0.0114883 -0.121109 -0.992573 
-0.0847754 -0.0347866 -0.995793 -0.25073 0.0182398 -0.967885 -0.588175 0.0889039 -0.803832 
-0.542776 0.0700746 -0.836949 0.305733 -0.24734 -0.919429 0.209898 -0.290245 -0.933649 
0.222901 -0.269259 -0.936918 0.17908 -0.251783 -0.951071 0.0706783 -0.116198 -0.990708 
-0.0513765 -0.0430293 -0.997752 0.143343 -0.144112 -0.979124 0.0390039 -0.115044 -0.992594 
-0.0793286 -0.0577488 -0.995174 0.0269522 -0.000265909 -0.999637 -0.0440343 -0.0139745 -0.998932 
-0.24294 -0.0194682 -0.969846 -0.569313 -0.034702 -0.821388 -0.517642 -0.0332699 -0.85495 
0.185464 -0.308836 -0.932858 0.169451 -0.300512 -0.938605 0.17956 -0.314625 -0.932078 
0.27428 -0.25401 -0.927496 0.254752 -0.351711 -0.900778 0.121502 -0.0638788 -0.990534 
0.0154963 0.0946537 -0.99539 0.0192357 -0.109291 -0.993824 0.0601133 -0.00314428 -0.998187 
0.0337564 0.0333293 -0.998874 -0.103356 -0.0264756 -0.994292 -0.278077 -0.0671506 -0.958209 
-0.575626 -0.115243 -0.809552 -0.591254 -0.179611 -0.78623 -0.558819 -0.109833 -0.821984 
0.309506 -0.213152 -0.9267 0.399865 -0.204492 -0.893471 0.0678554 -0.0959621 -0.993069 
-0.0354368 -0.110376 -0.993258 0.0633561 -0.0835763 -0.994485 0.00415407 -0.103044 -0.994668 
-0.143092 -0.127487 -0.981464 -0.588298 -0.304511 -0.749119 -0.482181 -0.492096 -0.724806 
-0.325357 -0.203736 -0.923382 0.282908 -0.183015 -0.941525 0.213202 -0.308946 -0.926875 
0.265466 -0.23508 -0.935022 0.0750193 -0.416006 -0.906262 0.0927834 -0.339572 -0.935993 
0.0393516 -0.266883 -0.962925 0.0653551 -0.240362 -0.968481 -0.018738 -0.291009 -0.956537 
-0.479129 -0.495313 -0.724638 -0.295789 -0.552166 -0.779501 -0.212545 -0.359959 -0.908435 
0.0531417 -0.422725 -0.904699 0.0436513 -0.426518 -0.903425 0.0446042 -0.42335 -0.904867 
0.00961488 -0.512025 -0.858917 0.0194667 -0.486165 -0.87365 -0.158413 -0.562514 -0.81147 
-0.123709 -0.556736 -0.821426 -0.118232 -0.542855 -0.831462 
