# vtk DataFile Version 4.2
vtk output
ASCII
DATASET POLYDATA
POINTS 492 float
2.7949 21.4572 -26.7434 10.6889 -25.9071 -19.9405 18.583 -25.9071 -21.686 
26.477 -25.9071 -21.359 2.7949 -18.013 -18.9453 10.6889 -18.013 -21.1382 
18.583 -18.013 -22.5561 26.477 -18.013 -23.2107 34.3711 -18.013 -22.6607 
42.2651 -18.013 -19.3013 -28.7813 -10.119 -19.4647 -20.8873 -10.119 -19.0421 
-5.09915 -10.119 -19.1195 2.7949 -10.119 -19.1907 10.6889 -10.119 -21.1953 
18.583 -10.119 -23.2925 26.477 -10.119 -24.7017 34.3711 -10.119 -24.8601 
42.2651 -10.119 -22.8326 -36.6754 -2.22493 -19.6559 -28.7813 -2.22493 -20.4878 
-20.8873 -2.22493 -19.2466 -5.09915 -2.22493 -19.6238 2.7949 -2.22493 -21.0715 
10.6889 -2.22493 -22.5853 18.583 -2.22493 -24.3238 26.477 -2.22493 -25.7287 
34.3711 -2.22493 -25.8681 42.2651 -2.22493 -24.0935 -36.6754 5.66913 -19.789 
-28.7813 5.66913 -20.7463 -20.8873 5.66913 -20.6344 -12.9932 5.66913 -20.1482 
-5.09915 5.66913 -21.3529 2.7949 5.66913 -22.9693 10.6889 5.66913 -24.2332 
18.583 5.66913 -25.1699 26.477 5.66913 -25.8442 34.3711 5.66913 -25.4965 
42.2651 5.66913 -23.0967 -36.6754 13.5632 -19.024 -28.7813 13.5632 -21.5228 
-20.8873 13.5632 -21.8851 -12.9932 13.5632 -22.902 -5.09915 13.5632 -24.4534 
2.7949 21.4304 -26.739 2.7949 13.5632 -25.402 10.6889 13.5632 -25.821 
18.583 13.5632 -25.9433 26.477 13.5632 -25.5381 34.3711 13.5632 -24.3133 
42.2651 13.5632 -20.3946 -28.7813 21.4572 -20.6984 -20.8873 21.4572 -22.499 
-12.9932 21.4572 -24.4647 2.7469 21.4572 -26.739 -5.09915 21.4572 -26.0174 
4.56861 21.4572 -26.739 2.7949 21.4936 -26.739 10.6889 21.4572 -26.724 
18.583 21.4572 -26.3159 26.477 21.4572 -24.8897 34.3711 21.4572 -21.7616 
-20.8873 29.3513 -21.1925 -12.9932 29.3513 -23.6225 -5.09915 29.3513 -25.2493 
2.7949 29.3513 -25.7665 10.6889 29.3513 -26.1716 18.583 29.3513 -25.0611 
26.477 29.3513 -22.7326 -12.9932 37.2453 -19.3247 -5.09915 37.2453 -21.0459 
2.7949 37.2453 -21.8233 10.6889 37.2453 -21.831 18.583 37.2453 -20.4699 
-20.8873 -33.8011 -11.9965 -12.9932 -33.8011 -13.6263 -5.09915 -33.8011 -14.5733 
2.7949 -33.8011 -15.3195 10.6889 -29.0001 -18.845 10.6889 -33.8011 -16.7851 
18.583 -31.5941 -18.845 18.583 -33.8011 -17.4635 26.477 -30.5114 -18.845 
26.477 -33.8011 -15.7186 -36.6754 -25.9071 -12.472 -28.7813 -25.9071 -15.3265 
-20.8873 -25.9071 -16.781 -12.9932 -25.9071 -17.3866 -5.09915 -25.9071 -17.8386 
5.95536 -25.9071 -18.845 2.7949 -19.0214 -18.845 2.7949 -25.9071 -18.167 
33.2803 -25.9071 -18.845 34.3711 -25.1095 -18.845 34.3711 -25.9071 -18.2055 
42.2651 -18.6531 -18.845 -44.5694 -18.013 -12.2779 -36.6754 -18.013 -17.4332 
-28.7813 -17.8081 -18.845 -28.7813 -18.013 -18.8273 -20.8873 -17.5301 -18.845 
-20.8873 -18.013 -18.8317 -12.9932 -18.013 -18.6994 1.37036 -18.013 -18.845 
-5.09915 -13.1084 -18.845 -5.09915 -18.013 -18.3954 42.8521 -18.013 -18.845 
-44.5694 -10.119 -15.2385 -34.4471 -10.119 -18.845 -36.6754 -8.17912 -18.845 
-36.6754 -10.119 -18.586 -18.0528 -10.119 -18.845 -8.5501 -10.119 -18.845 
-12.9932 -10.119 -18.4937 47.7928 -10.119 -18.845 50.1592 -10.119 -15.162 
-38.622 -2.22493 -18.845 -44.5694 -2.22493 -15.9583 -17.6773 -2.22493 -18.845 
-9.59172 -2.22493 -18.845 -12.9932 0.316773 -18.845 -12.9932 -2.22493 -18.2606 
49.6433 -2.22493 -18.845 50.1592 -2.22493 -18.0383 -38.8336 5.66913 -18.845 
-44.5694 5.66913 -15.2102 47.7858 5.66913 -18.845 50.1592 5.66913 -14.8315 
-36.9703 13.5632 -18.845 -44.5694 13.5632 -12.4374 -36.6754 14.2545 -18.845 
43.9433 13.5632 -18.845 42.2651 15.9342 -18.845 -32.9993 21.4572 -18.845 
-36.6754 21.4572 -16.2805 -28.7813 26.2398 -18.845 38.1267 21.4572 -18.845 
34.3711 26.6518 -18.845 42.2651 21.4572 -12.1756 -25.959 29.3513 -18.845 
-28.7813 29.3513 -16.9724 -20.8873 33.5083 -18.845 32.1245 29.3513 -18.845 
26.477 34.5678 -18.845 34.3711 29.3513 -15.396 -14.2736 37.2453 -18.845 
-20.8873 37.2453 -14.698 -12.9932 37.715 -18.845 -5.09915 39.305 -18.845 
2.7949 40.0503 -18.845 10.6889 39.9587 -18.845 21.9085 37.2453 -18.845 
18.583 38.6404 -18.845 26.477 37.2453 -13.299 -20.8873 -34.8085 -10.9509 
-12.9932 -36.839 -10.9509 -5.09915 -37.9423 -10.9509 2.7949 -38.1632 -10.9509 
10.6889 -38.8338 -10.9509 18.583 -38.5984 -10.9509 26.477 -36.7777 -10.9509 
-36.6754 -27.4506 -10.9509 -23.3933 -33.8011 -10.9509 -28.7813 -31.3284 -10.9509 
-28.7813 -33.8011 -6.9111 31.9791 -33.8011 -10.9509 34.3711 -32.1701 -10.9509 
-38.8131 -25.9071 -10.9509 -44.5694 -20.0193 -10.9509 41.6287 -25.9071 -10.9509 
42.2651 -25.2647 -10.9509 42.2651 -25.9071 -6.19252 -45.8354 -18.013 -10.9509 
47.7469 -18.013 -10.9509 50.1592 -13.8688 -10.9509 -48.7681 -10.119 -10.9509 
51.9491 -10.119 -10.9509 -49.2133 -2.22493 -10.9509 53.1672 -2.22493 -10.9509 
-48.0508 5.66913 -10.9509 51.857 5.66913 -10.9509 50.1592 9.74887 -10.9509 
-45.646 13.5632 -10.9509 -44.5694 15.8128 -10.9509 48.3407 13.5632 -10.9509 
-41.3393 21.4572 -10.9509 -36.6754 27.2905 -10.9509 42.8733 21.4572 -10.9509 
42.2651 22.2982 -10.9509 -34.8264 29.3513 -10.9509 -36.6754 29.3513 -3.08892 
-28.7813 34.5961 -10.9509 36.605 29.3513 -10.9509 34.3711 31.7023 -10.9509 
-24.6236 37.2453 -10.9509 -20.8873 39.2369 -10.9509 -12.9932 41.7726 -10.9509 
-5.09915 42.9929 -10.9509 2.7949 43.6729 -10.9509 10.6889 43.3249 -10.9509 
18.583 41.5462 -10.9509 27.68 37.2453 -10.9509 26.477 38.0613 -10.9509 
26.477 37.2453 -4.129 -28.7813 -35.6616 -3.05686 -20.8873 -38.8609 -3.05686 
-12.9932 -41.0218 -3.05686 -5.09915 -41.438 -3.05686 2.7949 -40.6279 -3.05686 
10.6889 -40.2429 -3.05686 18.583 -39.3942 -3.05686 26.477 -37.5196 -3.05686 
-32.6773 -33.8011 -3.05686 -36.6754 -31.6982 -3.05686 33.6485 -33.8011 -3.05686 
34.3711 -33.3437 -3.05686 42.2651 -26.2689 -3.05686 -43.9519 -25.9071 -3.05686 
-44.5694 -25.2227 -3.05686 42.6009 -25.9071 -3.05686 42.2651 -25.9071 -0.696508 
-49.1546 -18.013 -3.05686 48.4677 -18.013 -3.05686 50.1592 -14.3616 -3.05686 
-51.6152 -10.119 -3.05686 51.8582 -10.119 -3.05686 -52.2018 -2.22493 -3.05686 
-52.4635 -2.22493 0.553713 52.9632 -2.22493 -3.05686 -50.8019 5.66913 -3.05686 
51.7966 5.66913 -3.05686 50.1592 9.65478 -3.05686 50.1592 5.66913 3.30019 
-47.9218 13.5632 -3.05686 -44.5694 19.4382 -3.05686 48.4266 13.5632 -3.05686 
-43.2726 21.4572 -3.05686 43.1114 21.4572 -3.05686 42.2651 22.514 -3.05686 
42.2651 21.4572 -0.35707 -36.6819 29.3513 -3.05686 -36.6754 29.3579 -3.05686 
-36.6754 29.3513 -2.90915 -28.7813 35.898 -3.05686 26.477 37.1069 -3.05686 
36.165 29.3513 -3.05686 34.3711 31.0476 -3.05686 34.3711 29.3513 0.783635 
-26.3673 37.2453 -3.05686 -20.8873 39.9104 -3.05686 -12.9932 42.0349 -3.05686 
-5.09915 43.2722 -3.05686 2.7949 43.9939 -3.05686 10.6889 43.364 -3.05686 
26.2458 37.2453 -3.05686 18.583 41.1683 -3.05686 -28.7813 -37.0087 4.83719 
-20.8873 -39.879 4.83719 -12.9932 -41.4037 4.83719 -5.09915 -41.2947 4.83719 
2.7949 -40.0468 4.83719 10.6889 -39.1842 4.83719 18.583 -38.1913 4.83719 
26.477 -36.0873 4.83719 -34.7407 -33.8011 4.83719 -36.6754 -32.642 4.83719 
31.249 -33.8011 4.83719 26.477 -33.8011 10.7891 34.3711 -32.0559 4.83719 
-44.4818 -25.9071 4.83719 -44.5694 -25.7983 4.83719 41.3869 -25.9071 4.83719 
42.2651 -24.8835 4.83719 -49.4425 -18.013 4.83719 47.0931 -18.013 4.83719 
50.1592 -10.1691 4.83719 -52.209 -10.119 4.83719 -52.4635 -6.5868 4.83719 
50.1766 -10.119 4.83719 50.1592 -10.119 4.87714 -52.7662 -2.22493 4.83719 
-52.4635 -0.316509 4.83719 -52.4635 -2.22493 7.00295 50.9878 -2.22493 4.83719 
50.1592 3.17423 4.83719 50.1592 -2.22493 6.55197 -51.4935 5.66913 4.83719 
49.7225 5.66913 4.83719 -48.4856 13.5632 4.83719 -44.5694 19.7632 4.83719 
46.1422 13.5632 4.83719 42.2651 19.1541 4.83719 42.2651 13.5632 10.7155 
-43.3528 21.4572 4.83719 -36.6754 28.9892 4.83719 40.2286 21.4572 4.83719 
34.3711 27.2493 4.83719 34.3711 21.4572 11.0513 -36.2792 29.3513 4.83719 
-28.7813 34.9168 4.83719 31.6734 29.3513 4.83719 26.477 33.2184 4.83719 
26.477 29.3513 9.11609 -23.6599 37.2453 4.83719 -20.8873 38.4093 4.83719 
-20.8873 37.2453 7.5829 -12.9932 40.0737 4.83719 -12.9932 37.2453 10.3597 
-5.09915 41.0993 4.83719 -5.09915 37.2453 11.13 2.7949 41.7002 4.83719 
2.7949 37.2453 11.5234 10.6889 40.8517 4.83719 10.6889 37.2453 10.1177 
19.74 37.2453 4.83719 18.583 37.8327 4.83719 18.583 37.2453 5.65684 
-28.7813 -35.2866 12.7312 -20.8873 -37.9053 12.7312 -12.9932 -38.9683 12.7312 
-5.09915 -38.7632 12.7312 2.7949 -37.6409 12.7312 10.6889 -36.5246 12.7312 
18.583 -35.1319 12.7312 -31.5385 -33.8011 12.7312 -36.6754 -30.6489 12.7312 
-28.7813 -33.8011 15.2249 -20.8873 -33.8011 19.0535 -12.9932 -33.8011 19.3838 
-5.09915 -33.8011 19.1575 2.7949 -33.8011 18.7581 10.6889 -33.8011 17.1561 
23.6243 -33.8011 12.7312 18.583 -33.8011 14.7202 26.477 -32.842 12.7312 
34.3711 -28.0807 12.7312 -41.8243 -25.9071 12.7312 -44.5694 -22.4152 12.7312 
-36.6754 -25.9071 19.3708 26.477 -25.9071 19.3844 36.9881 -25.9071 12.7312 
34.3711 -25.9071 15.031 42.2651 -19.539 12.7312 -47.421 -18.013 12.7312 
-44.5694 -18.013 17.6848 34.3711 -18.013 20.454 43.3128 -18.013 12.7312 
42.2651 -18.013 13.9295 -50.8773 -10.119 12.7312 46.1844 -10.119 12.7312 
42.2651 -10.119 17.0639 -51.5987 -2.22493 12.7312 46.54 -2.22493 12.7312 
42.2651 -2.22493 17.1583 -50.739 5.66913 12.7312 34.3711 5.66913 19.8149 
44.8429 5.66913 12.7312 42.2651 10.658 12.7312 42.2651 5.66913 15.2819 
-47.4841 13.5632 12.7312 -44.5694 17.6949 12.7312 -44.5694 13.5632 17.8611 
26.477 13.5632 19.2559 40.1217 13.5632 12.7312 34.3711 19.4186 12.7312 
34.3711 13.5632 16.2954 -41.4223 21.4572 12.7312 -36.6754 26.0397 12.7312 
-36.6754 21.4572 18.148 10.6889 21.4572 20.1169 18.583 21.4572 17.8067 
31.8957 21.4572 12.7312 26.477 25.4082 12.7312 26.477 21.4572 15.3581 
-32.5147 29.3513 12.7312 -28.7813 31.8868 12.7312 -28.7813 29.3513 16.0019 
-20.8873 34.8492 12.7312 -20.8873 29.3513 18.9231 -12.9932 35.862 12.7312 
-12.9932 29.3513 19.3763 -5.09915 35.959 12.7312 -5.09915 29.3513 18.4719 
2.7949 36.0937 12.7312 2.7949 29.3513 17.6621 10.6889 34.6133 12.7312 
10.6889 29.3513 16.3102 20.5117 29.3513 12.7312 18.583 30.5383 12.7312 
[...]
POINT_DATA 492
SCALARS ImageScalars float
LOOKUP_TABLE default
0 0 0 0 0 0 0 0 0 
0 0 0 0 0 0 0 0 0 
0 0 0 0 0 0 0 0 0 
0 0 0 0 0 0 0 0 0 
0 0 0 0 0 0 0 0 0 
0 0 0 0 0 0 0 0 0 
0 0 0 0 0 0 0 0 0 
0 0 0 0 0 0 0 0 0 
0 0 0 0 0 0 0 0 0 
0 0 0 0 0 0 0 0 0 
0 0 0 0 0 0 0 0 0 
0 0 0 0 0 0 0 0 0 
0 0 0 0 0 0 0 0 0 
0 0 0 0 0 0 0 0 0 
0 0 0 0 0 0 0 0 0 
0 0 0 0 0 0 0 0 0 
0 0 0 0 0 0 0 0 0 
0 0 0 0 0 0 0 0 0 
0 0 0 0 0 0 0 0 0 
0 0 0 0 0 0 0 0 0 
0 0 0 0 0 0 0 0 0 
0 0 0 0 0 0 0 0 0 
0 0 0 0 0 0 0 0 0 
0 0 0 0 0 0 0 0 0 
0 0 0 0 0 0 0 0 0 
0 0 0 0 0 0 0 0 0 
0 0 0 0 0 0 0 0 0 
0 0 0 0 0 0 0 0 0 
0 0 0 0 0 0 0 0 0 
0 0 0 0 0 0 0 0 0 
0 0 0 0 0 0 0 0 0 
0 0 0 0 0 0 0 0 0 
0 0 0 0 0 0 0 0 0 
0 0 0 0 0 0 0 0 0 
0 0 0 0 0 0 0 0 0 
0 0 0 0 0 0 0 0 0 
0 0 0 0 0 0 0 0 0 
0 0 0 0 0 0 0 0 0 
0 0 0 0 0 0 0 0 0 
0 0 0 0 0 0 0 0 0 
0 0 0 0 0 0 0 0 0 
0 0 0 0 0 0 0 0 0 
0 0 0 0 0 0 0 0 0 
0 0 0 0 0 0 0 0 0 
0 0 0 0 0 0 0 0 0 
0 0 0 0 0 0 0 0 0 
0 0 0 0 0 0 0 0 0 
0 0 0 0 0 0 0 0 0 
0 0 0 0 0 0 0 0 0 
0 0 0 0 0 0 0 0 0 
0 0 0 0 0 0 0 0 0 
0 0 0 0 0 0 0 0 0 
0 0 0 0 0 0 0 0 0 
0 0 0 0 0 0 0 0 0 
0 0 0 0 0 0 
NORMALS Normals float
0.0442139 0.0213169 0.998795 0.209772 0.236512 0.948714 0.0839769 0.263946 0.960875 
-0.167327 0.364319 0.916119 0.17007 0.0638424 0.983362 0.226465 0.0739826 0.971205 
0.128401 0.0954308 0.98712 0.00884442 0.207786 0.978134 -0.206474 0.357941 0.91063 
-0.520687 0.502195 0.690424 0.0251094 0.107501 0.993888 -0.0610765 0.0257335 0.997801 
0.0442654 0.0776354 0.995999 0.127603 0.130325 0.983226 0.251495 0.0892288 0.963737 
0.215635 0.107955 0.970488 0.0963655 0.156414 0.982979 -0.104815 0.189757 0.97622 
-0.41394 0.256866 0.873312 0.254511 0.0749787 0.964159 -0.0311004 0.0832038 0.996047 
-0.138609 0.0992006 0.985366 0.172853 0.129576 0.976387 0.182975 0.226394 0.956695 
0.196656 0.187065 0.962462 0.197163 0.11702 0.973362 0.0933048 0.0712544 0.993085 
-0.0970091 0.0392217 0.99451 -0.382597 0.0168502 0.923762 0.276759 -0.033877 0.960342 
0.0549516 0.0620346 0.99656 -0.0362475 0.166722 0.985337 0.0383907 0.283073 0.95833 
0.171746 0.299965 0.938363 0.172876 0.26613 0.948308 0.132277 0.199551 0.970918 
0.101501 0.100491 0.989747 0.0192755 -0.0125732 0.999735 -0.15269 -0.0868687 0.984449 
-0.452311 -0.19957 0.869245 0.427326 -0.168249 0.888305 0.162391 -0.00247144 0.986723 
0.0812859 0.114769 0.990061 0.156923 0.257219 0.953527 0.150595 0.277856 0.948745 
0.0443368 0.022002 0.998774 0.0830326 0.229882 0.96967 0.0332068 0.156228 0.987163 
-0.0186002 0.0714169 0.997273 -0.0914318 -0.0589777 0.994063 -0.273973 -0.220145 0.936202 
-0.586579 -0.412301 0.697089 0.311047 -0.219751 0.92464 0.234446 -0.0381339 0.971381 
0.219175 0.0420153 0.97478 0.0447655 0.0214654 0.998767 0.137569 0.046723 0.98939 
0.0282779 0.0222058 0.999353 0.0442854 0.020121 0.998816 -0.026712 0.0251472 0.999327 
-0.115067 -0.0517483 0.992009 -0.257758 -0.155867 0.953555 -0.51616 -0.348451 0.782407 
0.352096 -0.318189 0.880218 0.242846 -0.26621 0.932823 0.131214 -0.253684 0.958346 
0.0544636 -0.254307 0.965589 -0.0419101 -0.249639 0.967432 -0.190544 -0.301982 0.934077 
-0.401864 -0.427307 0.809885 0.240075 -0.686941 0.685913 0.130159 -0.674705 0.72652 
0.0402413 -0.654351 0.755119 -0.0664168 -0.660968 0.747469 -0.249499 -0.731063 0.635057 
0.250168 0.682033 0.687202 0.136667 0.594566 0.792347 0.0928405 0.556669 0.82553 
0.120227 0.567527 0.81453 0.174194 0.343122 0.922997 0.113678 0.583951 0.80379 
0.0185726 0.519881 0.854037 -0.031625 0.653446 0.756312 -0.226199 0.554631 0.800761 
-0.307006 0.752986 0.58203 0.425811 0.624976 0.654286 0.21168 0.509187 0.834218 
0.119189 0.364301 0.923623 0.0609048 0.278522 0.958497 0.0485553 0.213425 0.975752 
0.156046 0.20785 0.965634 0.164029 0.0795508 0.983243 0.1248 0.193321 0.973166 
-0.399644 0.529669 0.748155 -0.413437 0.53651 0.735681 -0.44537 0.564142 0.695262 
-0.529743 0.516813 0.672515 0.659584 0.403968 0.633844 0.331208 0.296359 0.895809 
0.0668543 0.222853 0.972557 0.0680596 0.226042 0.971737 -0.0115751 0.124548 0.992146 
-0.00821911 0.131165 0.991326 -0.0275051 0.0690861 0.997231 0.142243 0.0663611 0.987605 
0.0328866 0.0774309 0.996455 0.0151706 0.0786244 0.996789 -0.543457 0.507447 0.668694 
0.588487 0.189724 0.785931 0.174015 0.11706 0.977761 0.238824 0.11171 0.964616 
0.235186 0.123642 0.964054 -0.037332 0.00674743 0.99928 0.0266228 0.031369 0.999153 
0.00453118 -0.0275748 0.999609 -0.695548 0.28297 0.660409 -0.864065 0.296125 0.407065 
0.322794 0.0662835 0.944146 0.588968 0.00349627 0.808148 -0.0730395 0.0995874 0.992344 
0.0874313 0.11101 0.989966 0.0258669 0.157189 0.98723 0.0226932 0.0985457 0.994874 
-0.780974 -0.0035625 0.624554 -0.824088 -0.00541558 0.566435 0.36336 -0.0573835 0.92988 
0.677977 -0.153427 0.718893 -0.727576 -0.269837 0.630731 -0.877844 -0.290406 0.38086 
0.436999 -0.173581 0.882554 0.791372 -0.332296 0.513137 0.439859 -0.187052 0.878371 
-0.65152 -0.433952 0.62226 -0.636105 -0.458641 0.620499 0.439054 -0.300932 0.846565 
0.604755 -0.416631 0.678741 0.42143 -0.389703 0.818858 -0.62702 -0.450314 0.63566 
-0.631837 -0.511504 0.582362 -0.781916 -0.563433 0.26674 0.444835 -0.437896 0.781262 
0.513016 -0.534681 0.671514 0.395097 -0.531151 0.749517 -0.611318 -0.55446 0.56468 
-0.486638 -0.672553 0.557545 -0.694568 -0.622861 0.360028 0.266984 -0.695742 0.66683 
0.411474 -0.787991 0.457995 0.240209 -0.70815 0.663945 0.126801 -0.769642 0.625758 
0.0359655 -0.785332 0.618029 -0.0812688 -0.796837 0.598704 -0.358068 -0.761259 0.540622 
-0.259271 -0.790504 0.55487 -0.513533 -0.831016 0.213769 0.264106 0.723451 0.637861 
0.162386 0.726737 0.667447 0.0664557 0.764329 0.641393 0.0523166 0.835383 0.547173 
0.0215186 0.903972 0.427049 -0.119172 0.938413 0.324314 -0.353379 0.884635 0.304212 
0.447782 0.668117 0.594231 0.284774 0.721999 0.630572 0.315737 0.707211 0.632584 
0.371342 0.826407 0.423268 -0.512746 0.804058 0.300968 -0.568173 0.764303 0.304993 
0.503944 0.636698 0.583657 0.671361 0.47161 0.571716 -0.68238 0.674566 0.281634 
-0.694532 0.665267 0.273944 -0.728103 0.677989 0.100978 0.708375 0.412465 0.57278 
-0.798336 0.555682 0.232115 -0.885395 0.419888 0.199424 0.813601 0.179607 0.552987 
-0.940061 0.287389 0.183555 0.842223 -0.042891 0.53742 -0.985477 -4.96235e-05 0.169807 
0.844285 -0.200724 0.496883 -0.938498 -0.288622 0.189521 -0.899359 -0.392608 0.192384 
0.828755 -0.346534 0.439409 0.814898 -0.396022 0.423212 -0.851096 -0.485736 0.199239 
0.761217 -0.519045 0.388768 0.700243 -0.613256 0.365481 -0.795581 -0.568521 0.209367 
-0.791599 -0.574928 0.206951 0.671791 -0.649104 0.356876 0.712522 -0.699065 0.0601756 
0.563156 -0.754488 0.33705 -0.735166 -0.658913 0.159265 -0.702614 -0.697097 0.142793 
0.475671 -0.82986 0.291668 0.395458 -0.877639 0.270857 0.220455 -0.948912 0.225755 
0.11638 -0.970865 0.209469 0.019708 -0.977756 0.208819 -0.124491 -0.975867 0.179402 
-0.304853 -0.942505 0.136929 -0.538261 -0.837032 0.0982508 -0.506665 -0.856623 0.0974014 
-0.529462 -0.829875 -0.176004 0.385518 0.880439 0.276049 0.309712 0.913318 0.264439 
0.154486 0.964104 0.21596 -0.0255836 0.987038 0.158436 -0.0770603 0.992682 0.0929785 
-0.0799576 0.996691 0.0145901 -0.162311 0.986433 -0.0246149 -0.347566 0.93677 -0.0407324 
0.448352 0.855538 0.258909 0.525523 0.815421 0.242724 -0.552505 0.833367 -0.0154047 
-0.572951 0.819514 -0.0111334 -0.738458 0.674178 -0.012788 0.715915 0.671141 0.192445 
0.73952 0.646365 0.187943 -0.743837 0.668221 -0.0136647 -0.741457 0.6668 -0.0749583 
0.893489 0.410329 0.182506 -0.859316 0.510059 -0.0376269 -0.919356 0.386315 -0.0744612 
0.96754 0.174793 0.182521 -0.963055 0.247559 -0.106013 0.979337 -0.048355 0.196368 
0.994889 -0.0465685 0.0895947 -0.991169 -0.000672153 -0.132604 0.950127 -0.24594 0.191761 
-0.954207 -0.271682 -0.125213 -0.921192 -0.369765 -0.12116 -0.912565 -0.269554 -0.307516 
0.894785 -0.417863 0.157324 0.837196 -0.536243 0.107451 -0.876324 -0.467945 -0.11438 
0.810108 -0.578812 0.0932835 -0.78448 -0.610009 -0.111715 -0.77454 -0.621336 -0.118445 
-0.759076 -0.617334 -0.206648 0.712532 -0.69915 0.0590561 0.712431 -0.699256 0.0590167 
0.711991 -0.700019 0.0551681 0.547537 -0.836749 0.0073958 -0.528617 -0.820373 -0.218067 
-0.684682 -0.70626 -0.18002 -0.661436 -0.723894 -0.196161 -0.627523 -0.711968 -0.315146 
0.482108 -0.875978 -0.0153113 0.345764 -0.936946 -0.050797 0.202526 -0.97434 -0.0982106 
0.122135 -0.986648 -0.107742 0.00618017 -0.993651 -0.112333 -0.168786 -0.976425 -0.134554 
-0.524132 -0.82342 -0.217404 -0.359917 -0.912598 -0.193973 0.404564 0.914292 -0.0199367 
0.260148 0.964128 -0.0527284 0.0862958 0.989852 -0.1129 -0.0840401 0.984805 -0.151974 
-0.133821 0.974132 -0.182096 -0.115098 0.968397 -0.22127 -0.179044 0.951169 -0.251437 
-0.340742 0.903764 -0.259048 0.517478 0.854717 -0.0409369 0.562435 0.825335 -0.0498973 
-0.461316 0.850537 -0.252537 -0.347367 0.830833 -0.434803 -0.544401 0.801458 -0.247575 
0.758549 0.643968 -0.099548 0.761388 0.640523 -0.100093 -0.718938 0.658151 -0.223529 
-0.743515 0.629402 -0.225917 0.903286 0.418611 -0.0940185 -0.850093 0.462669 -0.251554 
-0.926868 0.21449 -0.308073 0.980498 0.193586 -0.0338948 0.995693 0.0866303 -0.0330232 
-0.927109 0.212955 -0.308415 -0.926799 0.21269 -0.309527 0.998462 -0.0441381 -0.033557 
0.995344 -0.0929359 -0.0255692 0.994214 -0.0365842 -0.100993 -0.935604 -0.0225004 -0.352334 
-0.915398 -0.189704 -0.355048 -0.915761 -0.0279376 -0.400752 0.968628 -0.248514 -0.000983522 
-0.895145 -0.26855 -0.355803 0.893198 -0.449236 -0.0196106 0.813402 -0.578102 -0.0646192 
-0.80503 -0.463904 -0.369757 -0.719546 -0.575199 -0.389103 -0.658804 -0.472631 -0.585318 
0.785996 -0.61304 -0.0799517 0.673413 -0.724731 -0.145876 -0.673597 -0.615801 -0.408725 
-0.577146 -0.677915 -0.455339 -0.504582 -0.568714 -0.649585 0.665053 -0.731559 -0.150088 
0.492946 -0.844201 -0.210544 -0.546994 -0.688838 -0.47571 -0.489986 -0.716669 -0.496285 
-0.448271 -0.637829 -0.62628 0.353844 -0.898428 -0.260042 0.285511 -0.916568 -0.279976 
0.262996 -0.897691 -0.353532 0.157807 -0.924096 -0.348056 0.0972873 -0.86547 -0.491424 
0.0964217 -0.913275 -0.395768 0.0391745 -0.79544 -0.604765 -0.0119206 -0.906964 -0.421038 
-0.0392718 -0.746264 -0.664491 -0.210063 -0.870722 -0.444653 -0.223972 -0.747282 -0.625624 
-0.393263 -0.777922 -0.490084 -0.3766 -0.78656 -0.489383 -0.376723 -0.771338 -0.51295 
0.378808 0.855998 -0.351812 0.207866 0.898025 -0.38774 0.0508268 0.894676 -0.443814 
-0.0778285 0.887394 -0.454395 -0.129671 0.902173 -0.411424 -0.14573 0.896063 -0.419327 
-0.19963 0.853113 -0.482024 0.436971 0.828581 -0.350013 0.562442 0.748158 -0.352022 
0.373531 0.81255 -0.447479 0.145015 0.726992 -0.671158 0.00263559 0.669324 -0.742966 
-0.0251256 0.6831 -0.729892 -0.0766261 0.761571 -0.643536 -0.157953 0.793838 -0.587259 
-0.291229 0.819695 -0.493239 -0.210286 0.805421 -0.554145 -0.346243 0.788895 -0.507701 
-0.509876 0.680765 -0.525913 0.690813 0.623871 -0.365463 0.763007 0.536395 -0.360695 
0.505314 0.588109 -0.631494 -0.327223 0.5133 -0.793378 -0.575928 0.629531 -0.521534 
-0.494554 0.618043 -0.611096 -0.717457 0.45256 -0.529571 0.828469 0.440563 -0.345751 
0.726628 0.433502 -0.533 -0.410286 0.328837 -0.850606 -0.737255 0.415069 -0.533079 
-0.705963 0.406589 -0.579915 0.913857 0.24063 -0.327052 -0.806129 0.152227 -0.571824 
-0.673589 0.134685 -0.726731 0.955201 -0.0107953 -0.295762 -0.788693 -0.0611483 -0.611739 
-0.643468 -0.0852117 -0.760715 0.933683 -0.226965 -0.27699 -0.372689 -0.309987 -0.874649 
-0.71552 -0.281987 -0.639151 -0.636955 -0.404737 -0.656107 -0.626155 -0.290307 -0.723638 
0.830374 -0.47801 -0.28633 0.763261 -0.56902 -0.306021 0.697594 -0.474611 -0.536756 
-0.263288 -0.39597 -0.879709 -0.571047 -0.462788 -0.678037 -0.469068 -0.52531 -0.709947 
-0.399662 -0.434021 -0.807401 0.68011 -0.643384 -0.351436 0.598088 -0.697833 -0.394107 
0.491937 -0.586468 -0.643469 -0.198414 -0.393739 -0.897553 -0.263299 -0.406348 -0.87496 
-0.441331 -0.536387 -0.719386 -0.381201 -0.554387 -0.739825 -0.329212 -0.483817 -0.810889 
0.513276 -0.73989 -0.434868 0.424683 -0.777833 -0.463272 0.391216 -0.699668 -0.597841 
0.20916 -0.826499 -0.52264 0.146577 -0.601196 -0.785544 0.0594345 -0.818755 -0.571058 
-0.0246249 -0.542755 -0.83953 0.0106628 -0.744826 -0.667173 -0.0914293 -0.540859 -0.836129 
-0.0496698 -0.696448 -0.715886 -0.11433 -0.497592 -0.859844 -0.221762 -0.638715 -0.736794 
-0.213305 -0.485193 -0.847991 -0.356138 -0.560414 -0.747731 -0.344193 -0.566398 -0.748815 
-0.33384 -0.535818 -0.775532 0.297588 0.612128 -0.732625 0.117161 0.636692 -0.762166 
-0.00598567 0.592267 -0.805719 -0.00305652 0.60341 -0.797425 -0.0555396 0.672231 -0.738255 
-0.169988 0.616763 -0.768575 -0.243223 0.509416 -0.825432 0.43118 0.559841 -0.707574 
0.475996 0.532674 -0.699776 0.245504 0.486499 -0.838479 0.0513247 0.411104 -0.910142 
-0.00309819 0.396712 -0.917938 0.0455713 0.430312 -0.901529 -0.0255687 0.439478 -0.897889 
-0.172358 0.417988 -0.891952 -0.28563 0.470632 -0.834818 -0.242177 0.430441 -0.869524 
-0.289068 0.430269 -0.855166 0.60433 0.400578 -0.68871 0.658771 0.295829 -0.691741 
0.399799 0.332182 -0.854293 0.168239 0.234869 -0.957357 0.0379251 0.217577 -0.975306 
0.0223128 0.261499 -0.964946 0.0363316 0.289654 -0.956442 -0.076091 0.190324 -0.978768 
-0.2026 0.148101 -0.967998 -0.196858 0.197492 -0.960335 -0.396358 0.324058 -0.859003 
-0.214514 0.269288 -0.938865 -0.407394 0.304244 -0.861084 0.672317 0.225672 -0.705026 
0.624243 0.214819 -0.751115 0.3063 0.131335 -0.942832 0.128545 0.0479754 -0.990542 
0.0725067 0.0008624 -0.997368 0.0758151 0.0316962 -0.996618 -0.167197 -0.049488 -0.984681 
-0.178759 0.00525063 -0.983879 -0.137981 0.0868367 -0.986621 -0.186274 0.0940098 -0.97799 
-0.468004 0.0922724 -0.878896 -0.381047 0.0866823 -0.920483 0.714264 0.0124528 -0.699765 
0.596085 0.010766 -0.802849 0.23436 -0.0264722 -0.971789 0.0427106 -0.0891298 -0.995104 
0.0134326 -0.174113 -0.984634 0.0676513 -0.253051 -0.965085 -0.043998 -0.249125 -0.967471 
-0.116693 -0.193803 -0.974076 -0.0678572 -0.0516414 -0.996358 -0.109513 -0.051362 -0.992657 
-0.214822 -0.100955 -0.971422 -0.45494 -0.114117 -0.88318 -0.377625 -0.241225 -0.893985 
-0.386205 -0.124693 -0.913946 0.671481 -0.211204 -0.710286 0.633378 -0.321473 -0.703909 
0.603307 -0.202275 -0.771431 0.207523 -0.179246 -0.961668 -0.016016 -0.172584 -0.984865 
-0.0827327 -0.169493 -0.982053 -0.00364887 -0.206804 -0.978376 0.0422535 -0.255001 -0.966017 
0.030943 -0.1647 -0.985858 -0.0414933 -0.160826 -0.98611 -0.188538 -0.254224 -0.94859 
-0.335382 -0.304887 -0.891383 -0.260237 -0.353945 -0.898331 -0.257578 -0.294254 -0.920363 
0.514957 -0.441961 -0.7345 0.382498 -0.490837 -0.782799 0.283719 -0.388661 -0.876611 
0.0564323 -0.227041 -0.972249 -0.0294762 -0.141914 -0.98944 -0.0182065 -0.100628 -0.994758 
0.00636881 -0.173772 -0.984765 -0.0267033 -0.228987 -0.973063 -0.193556 -0.385138 -0.902333 
-0.156447 -0.32748 -0.931816 -0.243749 -0.384516 -0.890356 -0.240463 -0.38362 -0.891635 
-0.237421 -0.380612 -0.893737 0.315495 -0.476129 -0.820831 0.252939 -0.476445 -0.842035 
0.219899 -0.411925 -0.884286 0.104218 -0.458619 -0.882501 0.050389 -0.283558 -0.95763 
-0.0304763 -0.434791 -0.900016 -0.0375077 -0.25395 -0.96649 -0.0951384 -0.404053 -0.909775 
-0.0863672 -0.302693 -0.949167 -0.166038 -0.381342 -0.909401 -0.122411 -0.385632 -0.914496 
-0.119107 -0.362068 -0.924511 -0.000924044 0.115174 -0.993345 0.0557886 0.0348883 -0.997833 
-0.100811 -0.00817437 -0.994872 -0.0314774 -0.101425 -0.994345 -0.0160451 0.0434434 -0.998927 

