# vtk DataFile Version 4.2
vtk output
ASCII
DATASET POLYDATA
POINTS 538 float
-45.3199 -26.831 -15.61 -37.9788 -26.831 -17.3767 -30.6378 -26.831 -17.2692 
-23.2967 -26.831 -15.834 -15.9557 -26.831 -14.1758 -60.002 -19.4899 -14.2082 
-52.6609 -19.4899 -16.3646 -45.3199 -19.4899 -18.5789 -37.9788 -19.4899 -18.8912 
-30.6378 -19.4899 -19.1257 -23.2967 -19.4899 -17.8072 -15.9557 -19.4899 -16.8098 
-8.61464 -19.4899 -15.5891 -1.27359 -19.4899 -15.8019 6.06746 -19.4899 -14.8981 
13.4085 -19.4899 -15.3241 20.7495 -19.4899 -16.8948 28.0906 -19.4899 -17.5065 
35.4316 -19.4899 -17.3036 42.7727 -19.4899 -15.6782 -60.002 -12.1489 -14.149 
-52.6609 -12.1489 -18.3584 -45.3199 -12.1489 -20.4203 -37.9788 -12.1489 -19.5761 
-30.6378 -12.1489 -19.0888 -23.2967 -12.1489 -18.4887 -15.9557 -12.1489 -16.8173 
-8.61464 -12.1489 -16.2297 -1.27359 -12.1489 -17.5894 6.06746 -12.1489 -16.3896 
13.4085 -12.1489 -17.9801 20.7495 -12.1489 -19.6326 28.0906 -12.1489 -20.2049 
35.4316 -12.1489 -19.6949 42.7727 -12.1489 -18.1508 50.1137 -12.1489 -15.591 
-60.002 -4.80781 -14.5041 -52.6609 -4.80781 -17.2311 -45.3199 -4.80781 -19.7722 
-37.9788 -4.80781 -19.1793 -30.6378 -4.80781 -18.5627 -23.2967 -4.80781 -17.4204 
-15.9557 -4.80781 -16.1724 -8.61464 -4.80781 -16.7216 -1.27359 -4.80781 -17.942 
6.06746 -4.80781 -17.7393 13.4085 -4.80781 -19.993 20.7495 -4.80781 -21.0403 
28.0906 -4.80781 -20.821 35.4316 -4.80781 -19.9927 42.7727 -4.80781 -18.2974 
50.1137 -4.80781 -16.0879 -52.6609 2.53323 -17.3961 -45.3199 2.53323 -18.4607 
-37.9788 2.53323 -18.3621 -30.6378 2.53323 -17.7759 -23.2967 2.53323 -16.6915 
-15.9557 2.53323 -15.7958 -8.61464 2.53323 -16.5001 -1.27359 2.53323 -14.8122 
6.06746 2.53323 -18.021 13.4085 2.53323 -20.0329 20.7495 2.53323 -20.4243 
28.0906 2.53323 -20.0691 35.4316 2.53323 -19.1057 42.7727 2.53323 -17.3798 
50.1137 2.53323 -14.6646 -52.6609 9.87428 -15.8441 -45.3199 9.87428 -16.7944 
-37.9788 9.87428 -17.4941 -30.6378 9.87428 -17.0583 -23.2967 9.87428 -16.0461 
-15.9557 9.87428 -15.0983 -8.61464 9.87428 -14.7258 -1.27359 9.87428 -14.8403 
6.06746 9.87428 -16.6236 13.4085 9.87428 -18.2976 20.7495 9.87428 -19.2667 
28.0906 9.87428 -18.9737 35.4316 9.87428 -17.4085 42.7727 9.87428 -15.2451 
-45.3199 17.2153 -15.2493 -37.9788 17.2153 -15.0513 -30.6378 17.2153 -15.2084 
-23.2967 17.2153 -13.8045 -1.27359 17.2153 -13.8546 6.06746 17.2153 -14.1737 
13.4085 17.2153 -16.1348 20.7495 17.2153 -17.514 28.0906 17.2153 -17.5956 
35.4316 17.2153 -15.6838 20.7495 24.5564 -14.5208 28.0906 24.5564 -14.3994 
-45.3199 -29.6167 -13.7203 -37.9788 -30.791 -13.7203 -30.6378 -30.3661 -13.7203 
-23.2967 -29.6516 -13.7203 -15.9557 -27.4695 -13.7203 -60.002 -20.5302 -13.7203 
-49.5271 -26.831 -13.7203 -52.6609 -24.4575 -13.7203 -52.6609 -26.831 -11.0144 
-10.8395 -26.831 -13.7203 -8.61464 -26.2263 -13.7203 -8.61464 -26.831 -13.5088 
-1.27359 -25.6238 -13.7203 -1.27359 -26.831 -13.191 6.06746 -23.305 -13.7203 
6.06746 -26.831 -12.3767 13.4085 -22.7508 -13.7203 13.4085 -26.831 -11.363 
20.7495 -24.4047 -13.7203 20.7495 -26.831 -11.5856 28.0906 -24.6501 -13.7203 
28.0906 -26.831 -11.5515 35.4316 -24.8884 -13.7203 35.4316 -26.831 -11.7384 
42.7727 -22.3315 -13.7203 42.7727 -26.831 -8.81967 -60.575 -19.4899 -13.7203 
48.2823 -19.4899 -13.7203 50.1137 -17.7569 -13.7203 50.1137 -19.4899 -12.9416 
57.4548 -19.4899 -10.0015 -60.606 -12.1489 -13.7203 53.4653 -12.1489 -13.7203 
57.4548 -12.1489 -10.946 -61.2538 -4.80781 -13.7203 -67.343 -4.80781 -7.64453 
-60.002 -0.652497 -13.7203 54.0995 -4.80781 -13.7203 57.4548 -4.80781 -11.509 
-59.3138 2.53323 -13.7203 -60.002 2.53323 -13.2004 51.8367 2.53323 -13.7203 
50.1137 5.28418 -13.7203 57.4548 2.53323 -9.9162 -56.3777 9.87428 -13.7203 
-60.002 9.87428 -10.9158 -52.6609 14.0731 -13.7203 -15.9557 14.5137 -13.7203 
-8.61464 13.6848 -13.7203 46.2814 9.87428 -13.7203 42.7727 15.3429 -13.7203 
50.1137 9.87428 -11.8844 57.4548 9.87428 -7.18646 -60.002 17.2153 -7.62156 
-48.9399 17.2153 -13.7203 -52.6609 17.2153 -11.7045 -45.3199 19.6549 -13.7203 
-37.9788 20.2732 -13.7203 -30.6378 20.3652 -13.7203 -22.6588 17.2153 -13.7203 
-23.2967 17.4012 -13.7203 -15.9557 17.2153 -12.8418 -2.21443 17.2153 -13.7203 
-8.61464 17.2153 -12.7098 -1.27359 17.5257 -13.7203 6.06746 18.5381 -13.7203 
13.4085 23.2796 -13.7203 41.2852 17.2153 -13.7203 35.4316 22.2632 -13.7203 
42.7727 17.2153 -13.1177 50.1137 17.2153 -8.26145 -52.6609 24.5564 -7.34091 
-45.3199 24.5564 -9.44668 -37.9788 24.5564 -11.5262 -30.6378 24.5564 -11.1514 
-23.2967 24.5564 -9.98773 -15.9557 24.5564 -8.26908 -8.61464 24.5564 -7.81876 
-1.27359 24.5564 -9.57788 6.06746 24.5564 -11.3782 16.3257 24.5564 -13.7203 
13.4085 24.5564 -13.1521 20.7495 25.8061 -13.7203 31.1825 24.5564 -13.7203 
28.0906 25.5684 -13.7203 35.4316 24.5564 -12.5757 42.7727 24.5564 -7.9398 
13.4085 31.8974 -7.66956 20.7495 31.8974 -8.70321 28.0906 31.8974 -7.98417 
-52.6609 -29.5958 -6.37925 -45.3199 -32.7074 -6.37925 -37.9788 -33.962 -6.37925 
-30.6378 -34.14 -6.37925 -23.2967 -34.1719 -6.37925 -15.9557 -33.319 -6.37925 
-8.61464 -32.8313 -6.37925 -1.27359 -32.5836 -6.37925 6.06746 -32.0785 -6.37925 
13.4085 -31.2619 -6.37925 20.7495 -30.5404 -6.37925 28.0906 -30.3555 -6.37925 
35.4316 -29.9442 -6.37925 42.7727 -28.4008 -6.37925 -57.4422 -26.831 -6.37925 
-60.002 -24.4592 -6.37925 -52.6609 -26.831 0.290428 47.8274 -26.831 -6.37925 
50.1137 -26.0019 -6.37925 50.1137 -26.831 -3.99201 57.4548 -22.0729 -6.37925 
-63.0543 -19.4899 -6.37925 60.2177 -19.4899 -6.37925 -66.7275 -12.1489 -6.37925 
-67.343 -8.54259 -6.37925 62.9957 -12.1489 -6.37925 64.7958 -12.1489 -1.94164 
-67.9183 -4.80781 -6.37925 -67.343 -0.174474 -6.37925 -67.343 -4.80781 -4.62177 
63.9627 -4.80781 -6.37925 64.7958 -4.80781 -4.69025 -66.935 2.53323 -6.37925 
61.691 2.53323 -6.37925 64.7958 2.53323 -0.11222 -64.4931 9.87428 -6.37925 
58.1818 9.87428 -6.37925 57.4548 10.9896 -6.37925 -60.9052 17.2153 -6.37925 
-60.002 18.4019 -6.37925 -60.002 17.2153 -0.659469 51.9268 17.2153 -6.37925 
50.1137 19.115 -6.37925 -53.7091 24.5564 -6.37925 -52.6609 25.2987 -6.37925 
-45.3199 27.7006 -6.37925 -37.9788 30.2614 -6.37925 -30.6378 30.1948 -6.37925 
-23.2967 28.6361 -6.37925 -15.9557 26.6477 -6.37925 -8.61464 25.9517 -6.37925 
-1.27359 27.633 -6.37925 6.06746 30.632 -6.37925 35.4316 30.6146 -6.37925 
44.7215 24.5564 -6.37925 42.7727 26.1301 -6.37925 -37.9788 31.8974 -3.07195 
-30.6378 31.8974 -3.89508 -23.2967 31.8974 -2.49919 -15.9557 31.8974 -1.02046 
-8.61464 31.8974 0.469534 -1.27359 31.8974 -0.993654 9.668 31.8974 -6.37925 
6.06746 31.8974 -4.73563 13.4085 33.033 -6.37925 20.7495 33.785 -6.37925 
31.9536 31.8974 -6.37925 28.0906 33.1846 -6.37925 35.4316 31.8974 -3.26652 
-45.3199 -31.1999 0.961792 -37.9788 -32.3167 0.961792 -30.6378 -33.6322 0.961792 
-23.2967 -33.4648 0.961792 -15.9557 -33.4598 0.961792 -8.61464 -33.5795 0.961792 
-1.27359 -33.706 0.961792 6.06746 -33.8009 0.961792 13.4085 -33.4065 0.961792 
20.7495 -32.4378 0.961792 28.0906 -31.6497 0.961792 35.4316 -30.5499 0.961792 
42.7727 -29.4633 0.961792 50.1137 -28.0218 0.961792 -60.002 -19.7745 0.961792 
-52.1923 -26.831 0.961792 -52.6609 -26.542 0.961792 -45.3199 -26.831 5.29775 
-37.9788 -26.831 7.67056 52.359 -26.831 0.961792 50.1137 -26.831 4.5998 
57.4548 -23.2777 0.961792 -60.2621 -19.4899 0.961792 -60.002 -19.4899 1.2502 
-52.6609 -19.4899 6.85519 62.1826 -19.4899 0.961792 64.7958 -14.4366 0.961792 
-65.514 -12.1489 0.961792 -60.002 -12.1489 5.07263 65.6177 -12.1489 0.961792 
64.7958 -12.1489 3.55743 -65.2965 -4.80781 0.961792 -60.002 -4.80781 6.02912 
66.5951 -4.80781 0.961792 -65.1677 2.53323 0.961792 -60.002 2.53323 6.08354 
65.1461 2.53323 0.961792 64.7958 3.24631 0.961792 64.7958 2.53323 2.25809 
-64.4732 9.87428 0.961792 -60.002 16.7593 0.961792 -60.002 9.87428 4.64249 
61.0259 9.87428 0.961792 57.4548 15.3717 0.961792 -59.7467 17.2153 0.961792 
-52.6609 17.2153 8.04527 56.017 17.2153 0.961792 50.1137 23.0882 0.961792 
-54.1082 24.5564 0.961792 -52.6609 25.817 0.961792 -52.6609 24.5564 2.81085 
-45.3199 31.5584 0.961792 48.4757 24.5564 0.961792 42.7727 29.0368 0.961792 
-44.133 31.8974 0.961792 -37.9788 33.3165 0.961792 -37.9788 31.8974 6.58253 
-30.6378 34.1239 0.961792 -23.2967 34.1242 0.961792 -15.9557 33.2623 0.961792 
-8.61464 32.2939 0.961792 -1.27359 33.1713 0.961792 6.06746 35.2258 0.961792 
13.4085 36.9147 0.961792 20.7495 37.2676 0.961792 28.0906 36.1225 0.961792 
38.0895 31.8974 0.961792 35.4316 33.3154 0.961792 -30.6378 -27.249 8.30284 
-23.2967 -28.4043 8.30284 -15.9557 -29.7787 8.30284 -8.61464 -30.6762 8.30284 
-1.27359 -31.3683 8.30284 6.06746 -32.2885 8.30284 13.4085 -32.4972 8.30284 
20.7495 -30.9143 8.30284 28.0906 -29.2553 8.30284 35.4316 -28.3312 8.30284 
42.7727 -27.0467 8.30284 -45.3199 -22.7726 8.30284 -33.3176 -26.831 8.30284 
-37.9788 -25.7198 8.30284 -30.6378 -26.831 8.61586 -23.2967 -26.831 9.61478 
-15.9557 -26.831 11.2124 -8.61464 -26.831 11.894 -1.27359 -26.831 12.6196 
6.06746 -26.831 13.9608 13.4085 -26.831 14.7363 20.7495 -26.831 13.2457 
28.0906 -26.831 11.4384 35.4316 -26.831 10.4008 43.7407 -26.831 8.30284 
42.7727 -26.831 8.60696 50.1137 -25.0547 8.30284 57.4548 -20.2949 8.30284 
-49.5655 -19.4899 8.30284 -52.6609 -15.8135 8.30284 -45.3199 -19.4899 10.1055 
-37.9788 -19.4899 11.1635 -30.6378 -19.4899 11.8224 -23.2967 -19.4899 12.5629 
-15.9557 -19.4899 13.8872 -8.61464 -19.4899 15.1058 -1.27359 -19.4899 14.9841 
42.7727 -19.4899 15.1729 50.1137 -19.4899 13.4421 58.377 -19.4899 8.30284 
57.4548 -19.4899 9.21871 -55.083 -12.1489 8.30284 -52.6609 -12.1489 10.1404 
-45.3199 -12.1489 11.3793 -37.9788 -12.1489 12.7208 -30.6378 -12.1489 13.3048 
-23.2967 -12.1489 13.4039 -15.9557 -12.1489 14.1796 63.0603 -12.1489 8.30284 
57.4548 -12.1489 13.5258 64.7958 -4.95807 8.30284 -56.6623 -4.80781 8.30284 
-52.6609 -4.80781 10.5832 -45.3199 -4.80781 12.2043 -37.9788 -4.80781 13.0096 
-30.6378 -4.80781 13.1075 -23.2967 -4.80781 12.924 -15.9557 -4.80781 13.853 
57.4548 -4.80781 15.5579 64.8306 -4.80781 8.30284 64.7958 -4.674 8.30284 
[...]
POINT_DATA 538
SCALARS ImageScalars float
LOOKUP_TABLE default
0 0 0 0 0 0 0 0 0 
0 0 0 0 0 0 0 0 0 
0 0 0 0 0 0 0 0 0 
0 0 0 0 0 0 0 0 0 
0 0 0 0 0 0 0 0 0 
0 0 0 0 0 0 0 0 0 
0 0 0 0 0 0 0 0 0 
0 0 0 0 0 0 0 0 0 
0 0 0 0 0 0 0 0 0 
0 0 0 0 0 0 0 0 0 
0 0 0 0 0 0 0 0 0 
0 0 0 0 0 0 0 0 0 
0 0 0 0 0 0 0 0 0 
0 0 0 0 0 0 0 0 0 
0 0 0 0 0 0 0 0 0 
0 0 0 0 0 0 0 0 0 
0 0 0 0 0 0 0 0 0 
0 0 0 0 0 0 0 0 0 
0 0 0 0 0 0 0 0 0 
0 0 0 0 0 0 0 0 0 
0 0 0 0 0 0 0 0 0 
0 0 0 0 0 0 0 0 0 
0 0 0 0 0 0 0 0 0 
0 0 0 0 0 0 0 0 0 
0 0 0 0 0 0 0 0 0 
0 0 0 0 0 0 0 0 0 
0 0 0 0 0 0 0 0 0 
0 0 0 0 0 0 0 0 0 
0 0 0 0 0 0 0 0 0 
0 0 0 0 0 0 0 0 0 
0 0 0 0 0 0 0 0 0 
0 0 0 0 0 0 0 0 0 
0 0 0 0 0 0 0 0 0 
0 0 0 0 0 0 0 0 0 
0 0 0 0 0 0 0 0 0 
0 0 0 0 0 0 0 0 0 
0 0 0 0 0 0 0 0 0 
0 0 0 0 0 0 0 0 0 
0 0 0 0 0 0 0 0 0 
0 0 0 0 0 0 0 0 0 
0 0 0 0 0 0 0 0 0 
0 0 0 0 0 0 0 0 0 
0 0 0 0 0 0 0 0 0 
0 0 0 0 0 0 0 0 0 
0 0 0 0 0 0 0 0 0 
0 0 0 0 0 0 0 0 0 
0 0 0 0 0 0 0 0 0 
0 0 0 0 0 0 0 0 0 
0 0 0 0 0 0 0 0 0 
0 0 0 0 0 0 0 0 0 
0 0 0 0 0 0 0 0 0 
0 0 0 0 0 0 0 0 0 
0 0 0 0 0 0 0 0 0 
0 0 0 0 0 0 0 0 0 
0 0 0 0 0 0 0 0 0 
0 0 0 0 0 0 0 0 0 
0 0 0 0 0 0 0 0 0 
0 0 0 0 0 0 0 0 0 
0 0 0 0 0 0 0 0 0 
0 0 0 0 0 0 0 
NORMALS Normals float
0.295595 0.484217 0.823503 0.120197 0.460149 0.879668 -0.100316 0.508591 0.855144 
-0.173643 0.465692 0.867744 -0.14996 0.495438 0.855601 0.626772 0.256078 0.735922 
0.277174 0.362636 0.889758 0.18503 0.312688 0.93166 0.0354624 0.145099 0.988782 
-0.0739018 0.09352 0.992871 -0.152481 0.16205 0.97493 -0.150402 0.152048 0.976863 
-0.0655885 0.17343 0.98266 -0.0439854 0.270299 0.961771 -0.0342861 0.24494 0.968932 
0.119251 0.37765 0.918237 0.136474 0.454695 0.880129 0.024178 0.474138 0.880118 
-0.111587 0.439001 0.89153 -0.239542 0.431784 0.869587 0.634318 0.0138501 0.772949 
0.308575 0.0670533 0.948834 0.125293 0.0806643 0.988835 -0.0849644 0.0182204 0.996217 
-0.0697092 -0.0379693 0.996845 -0.152595 -0.0265455 0.987932 -0.14638 -0.0444299 0.98823 
0.0542022 0.0746499 0.995736 0.0125639 0.146594 0.989117 0.0175883 0.187199 0.982165 
0.216727 0.304255 0.927609 0.140797 0.259794 0.955345 0.00395118 0.202502 0.979274 
-0.134764 0.170614 0.976079 -0.272765 0.157761 0.949058 -0.406752 0.161487 0.899152 
0.472125 -0.0590008 0.879555 0.291242 -0.0796064 0.953332 0.12826 -0.129717 0.983221 
-0.0795017 -0.0814627 0.993501 -0.116861 -0.0884235 0.989204 -0.161817 -0.114615 0.980142 
-0.0481545 -0.0663225 0.996636 0.120978 0.0194141 0.992465 0.0658786 -0.186681 0.980209 
0.137842 0.110095 0.984316 0.221029 0.126073 0.967084 0.0536528 0.0488369 0.997365 
-0.0711548 -0.00880094 0.997426 -0.162266 -0.0391565 0.98597 -0.256351 -0.0500747 0.965286 
-0.409524 -0.060547 0.910288 0.274941 -0.101358 0.956104 0.07723 -0.196884 0.97738 
-0.0460784 -0.11909 0.991814 -0.112504 -0.100427 0.988563 -0.134953 -0.0917868 0.986592 
-0.0129841 -0.0718427 0.997331 -0.0622339 -0.133073 0.98915 0.0883273 -0.200646 0.975674 
0.345713 -0.0694974 0.935763 0.152371 -0.108689 0.982329 0.00275625 -0.120301 0.992734 
-0.0880819 -0.123866 0.988382 -0.171657 -0.168372 0.970662 -0.287053 -0.1867 0.939544 
-0.414605 -0.232847 0.879707 0.291268 -0.309931 0.905045 0.11972 -0.221048 0.967887 
0.0157831 -0.198076 0.98006 -0.100071 -0.178622 0.978815 -0.12983 -0.178666 0.975306 
-0.0885258 -0.191254 0.97754 -0.0170169 -0.245213 0.96932 0.120017 -0.0648444 0.990652 
0.232306 -0.251393 0.939593 0.170617 -0.255898 0.951528 0.0427599 -0.186921 0.981444 
-0.122106 -0.16145 0.979298 -0.231616 -0.219182 0.947794 -0.327101 -0.263526 0.907502 
0.167101 -0.374769 0.911935 -0.00403073 -0.359638 0.933083 -0.0732162 -0.339283 0.937831 
-0.159644 -0.357121 0.920314 0.0900675 -0.276796 0.956699 0.145666 -0.31352 0.938342 
0.212673 -0.314623 0.925085 0.0932113 -0.301438 0.948919 -0.116993 -0.285397 0.951242 
-0.272743 -0.285228 0.918834 0.0730715 -0.470939 0.879134 -0.10531 -0.500749 0.859162 
0.297007 0.667062 0.683239 0.0343481 0.777333 0.628151 -0.0635945 0.742211 0.667143 
-0.132703 0.631152 0.764223 -0.147757 0.528063 0.836252 0.639067 0.316099 0.701195 
0.356406 0.603631 0.713165 0.335066 0.599208 0.727104 0.449629 0.770898 0.451164 
-0.0831439 0.479434 0.87363 -0.055959 0.446512 0.893026 -0.0556982 0.479717 0.875653 
-0.0592251 0.463319 0.88421 -0.062332 0.524296 0.849251 -0.0717016 0.370067 0.926234 
-0.10207 0.535842 0.838126 0.0522373 0.456538 0.888169 -0.0465371 0.62986 0.775313 
0.0630821 0.610388 0.789587 0.0107752 0.731965 0.681257 0.0193272 0.661816 0.749417 
0.00611684 0.778111 0.628097 -0.0980774 0.650182 0.753422 -0.106751 0.776828 0.620599 
-0.255902 0.558433 0.789092 -0.259809 0.846467 0.46475 0.676843 0.262494 0.687736 
-0.282216 0.476878 0.832431 -0.329254 0.408792 0.851165 -0.309665 0.503077 0.806859 
-0.605438 0.484184 0.631673 0.647994 0.0222447 0.76132 -0.488133 0.111412 0.865629 
-0.603929 0.0711971 0.793852 0.514364 -0.0510389 0.856052 0.980667 0.00913746 0.19547 
0.521513 -0.140696 0.841563 -0.502346 -0.0577195 0.862738 -0.587985 -0.0545099 0.807033 
0.536151 -0.186168 0.823337 0.57685 -0.203178 0.791178 -0.454681 -0.231146 0.860138 
-0.427949 -0.257646 0.866301 -0.61164 -0.228294 0.757482 0.435163 -0.293838 0.851054 
0.686017 -0.280883 0.671182 0.340648 -0.406609 0.847719 -0.0755961 -0.309354 0.947937 
0.0246804 -0.306454 0.951565 -0.389005 -0.277233 0.878531 -0.345152 -0.35247 0.869847 
-0.464288 -0.326807 0.823185 -0.690949 -0.423981 0.585516 0.736803 -0.56459 0.371968 
0.267335 -0.420543 0.866992 0.4193 -0.500697 0.757291 0.178861 -0.455997 0.871823 
0.0333592 -0.454441 0.890152 -0.077932 -0.439014 0.895094 -0.151923 -0.359214 0.920807 
-0.15981 -0.361105 0.918729 -0.0686182 -0.386322 0.919808 0.0867936 -0.288354 0.953582 
0.0667965 -0.379418 0.922811 0.0931583 -0.289567 0.952614 0.14953 -0.334564 0.930434 
0.190145 -0.42943 0.882856 -0.331882 -0.36492 0.869878 -0.310991 -0.435557 0.844734 
-0.360461 -0.391856 0.846473 -0.605025 -0.521952 0.601258 0.459583 -0.761155 0.457631 
0.201658 -0.704376 0.680579 0.101009 -0.603129 0.791222 -0.0806108 -0.583198 0.80832 
-0.155878 -0.562464 0.811995 -0.112711 -0.605792 0.787599 0.064958 -0.675126 0.734837 
0.192619 -0.639863 0.743958 0.193885 -0.47779 0.856811 0.141288 -0.463026 0.875011 
0.18635 -0.459745 0.868279 0.0670732 -0.509189 0.858037 -0.199561 -0.505373 0.839508 
-0.110133 -0.530009 0.84081 -0.334986 -0.523508 0.783405 -0.519018 -0.625041 0.583047 
0.175277 -0.730851 0.659648 0.0172049 -0.760747 0.64882 -0.170245 -0.776597 0.606558 
0.49652 0.864368 0.0795982 0.259584 0.964067 0.0564879 0.100083 0.990846 0.0905931 
0.0140011 0.986649 0.16226 -0.0528399 0.984924 0.164719 -0.0895263 0.963071 0.253927 
-0.0485939 0.940289 0.336891 -0.048234 0.927844 0.369836 -0.0843053 0.895549 0.436903 
-0.0974043 0.874204 0.475689 -0.0572643 0.902305 0.427278 -0.0401802 0.926751 0.373522 
-0.119246 0.949019 0.291792 -0.248413 0.907253 0.339385 0.633539 0.773657 0.0091877 
0.738719 0.673457 -0.0273775 0.506305 0.778302 -0.371351 -0.33224 0.856734 0.394492 
-0.374284 0.821924 0.429363 -0.372885 0.890251 0.261554 -0.611767 0.690358 0.386197 
0.856623 0.513809 0.0468857 -0.725348 0.538207 0.429191 0.942827 0.291773 0.161073 
0.980139 0.161932 0.114479 -0.799483 0.198784 0.566844 -0.951122 0.240176 0.194118 
0.996961 0.0169941 0.0760213 0.984942 -0.130457 0.113443 0.998659 -0.000414762 -0.0517784 
-0.811172 -0.0590814 0.581816 -0.890174 -0.05309 0.452517 0.964149 -0.217184 0.15247 
-0.739081 -0.297525 0.604349 -0.933987 -0.342169 0.102902 0.884047 -0.346827 0.313324 
-0.7134 -0.438388 0.546697 -0.703337 -0.456181 0.545175 0.776717 -0.572348 0.262922 
0.753081 -0.602959 0.263267 0.816242 -0.559159 -0.145223 -0.642128 -0.563993 0.519214 
-0.6324 -0.581212 0.512117 0.513976 -0.771359 0.375278 0.472171 -0.790551 0.38998 
0.257909 -0.800714 0.540684 0.138443 -0.803176 0.579433 -0.0761797 -0.760016 0.645424 
-0.169436 -0.701157 0.692583 -0.127678 -0.664174 0.736594 0.0546644 -0.706148 0.705951 
0.224894 -0.730098 0.645275 0.275614 -0.718648 0.638422 -0.363062 -0.790968 0.4925 
-0.560951 -0.648354 0.514753 -0.528602 -0.678255 0.510441 0.167723 -0.927656 0.333652 
-0.0366613 -0.875937 0.481031 -0.118713 -0.855861 0.503398 -0.124011 -0.848435 0.514567 
-0.00842535 -0.838786 0.544396 0.200546 -0.837887 0.507668 0.23209 -0.749478 0.620014 
0.275388 -0.780246 0.561584 0.172455 -0.768953 0.615605 0.00697076 -0.827345 0.561651 
-0.275212 -0.812516 0.513883 -0.181132 -0.820173 0.542686 -0.400477 -0.862774 0.308608 
0.28556 0.861988 -0.418845 0.147711 0.908529 -0.390841 0.0709623 0.94576 -0.317021 
-0.0105735 0.95234 -0.304856 0.00789163 0.981119 -0.193243 0.0166367 0.993916 -0.108874 
0.0150271 0.998205 -0.0579736 -0.0203002 0.999643 0.0173583 -0.0919026 0.993017 0.0739622 
-0.118915 0.992686 0.0208452 -0.127717 0.990095 -0.0583055 -0.143355 0.986153 -0.0833796 
-0.183225 0.978894 -0.090528 -0.349751 0.935821 -0.0437305 0.712273 0.53778 -0.451065 
0.491192 0.759501 -0.426483 0.500654 0.754433 -0.424473 0.27862 0.608447 -0.743077 
0.186761 0.5463 -0.816502 -0.428113 0.902227 -0.0520152 -0.361005 0.888319 -0.283841 
-0.605764 0.791103 -0.0848872 0.719002 0.530136 -0.449435 0.712289 0.523421 -0.467627 
0.393731 0.36438 -0.843921 -0.770784 0.633423 -0.0683155 -0.938246 0.345 -0.0258816 
0.85048 0.193251 -0.489222 0.577321 0.197458 -0.792282 -0.970329 0.241719 -0.00583006 
-0.949668 0.272242 -0.154967 0.865664 -0.0192362 -0.500255 0.595204 0.0624213 -0.801146 
-0.998006 -0.035166 0.0524073 0.890257 -0.0471926 -0.453008 0.633609 -0.0838926 -0.769092 
-0.942667 -0.332314 0.0307597 -0.932833 -0.358788 0.0330774 -0.941937 -0.334058 -0.0340585 
0.863541 -0.288334 -0.413716 0.804539 -0.528585 -0.270766 0.677833 -0.205837 -0.705814 
-0.830839 -0.551142 0.077127 -0.786449 -0.612911 0.0764074 0.804688 -0.535061 -0.25727 
0.406354 -0.374011 -0.833662 -0.760948 -0.643138 0.0856242 -0.680431 -0.72951 0.0694819 
0.66868 -0.706005 -0.233292 0.645388 -0.733657 -0.212653 0.648781 -0.680218 -0.341155 
0.419288 -0.907826 -0.0070589 -0.65912 -0.749224 0.0649917 -0.580994 -0.8115 0.0625682 
0.377442 -0.926019 0.0051679 0.182261 -0.981547 0.0578561 0.351405 -0.84339 -0.406457 
0.0527556 -0.979773 0.193031 -0.0608344 -0.935143 0.349008 -0.104184 -0.892126 0.439609 
-0.00948984 -0.847105 0.53134 0.176511 -0.871988 0.456597 0.240504 -0.905269 0.350207 
0.132159 -0.960102 0.24645 -0.0585938 -0.980876 0.185602 -0.246109 -0.963106 0.108888 
-0.484759 -0.871301 0.0764364 -0.424648 -0.901148 0.0872181 0.108323 0.561798 -0.820152 
0.128965 0.640648 -0.756926 0.122806 0.749466 -0.650553 0.0914476 0.798599 -0.594876 
0.0976719 0.827399 -0.553056 0.0672244 0.890805 -0.449386 -0.0894544 0.923952 -0.371902 
-0.199571 0.88709 -0.416224 -0.160135 0.860315 -0.483957 -0.142558 0.872941 -0.466532 
-0.174286 0.860456 -0.47879 0.244147 0.432715 -0.867842 0.138784 0.537587 -0.831709 
0.173881 0.498278 -0.849402 0.112464 0.541651 -0.833046 0.149762 0.56633 -0.810457 
0.141089 0.574957 -0.805927 0.0823769 0.578647 -0.811407 0.123623 0.519822 -0.845282 
0.125417 0.526874 -0.840639 -0.0343824 0.553832 -0.831918 -0.168784 0.654129 -0.737311 
-0.14085 0.752407 -0.643463 -0.1343 0.809989 -0.57086 -0.195555 0.850976 -0.48744 
-0.176034 0.851171 -0.49449 -0.350538 0.762969 -0.543141 -0.562023 0.66389 -0.493335 
0.321564 0.337658 -0.884638 0.396016 0.31185 -0.863667 0.249834 0.328175 -0.91098 
0.125212 0.334361 -0.93409 0.0908293 0.281544 -0.95524 0.134212 0.224637 -0.965156 
0.17372 0.166434 -0.970629 0.0717898 0.313694 -0.946806 0.0970047 0.27514 -0.956498 
-0.168083 0.513451 -0.841496 -0.309361 0.571525 -0.760036 -0.591245 0.635507 -0.496549 
-0.555219 0.63542 -0.536632 0.469085 0.224554 -0.854128 0.399085 0.241636 -0.884502 
0.163596 0.144887 -0.97583 0.118995 0.109307 -0.98686 0.0506742 0.0844639 -0.995137 
0.0566114 0.02496 -0.998084 0.249611 -0.00144993 -0.968345 -0.807595 0.339165 -0.48245 
-0.486843 0.330403 -0.80859 -0.933824 -0.00655114 -0.357672 0.462222 0.07771 -0.883353 
0.355916 0.0396899 -0.933675 0.181948 0.0786464 -0.980158 0.0589238 0.0428011 -0.997344 
-0.00605817 0.0257558 -0.99965 0.0464774 0.0415732 -0.998054 0.374115 0.132075 -0.917929 
-0.41204 0.0621981 -0.90904 -0.93445 -0.0132149 -0.35585 -0.934381 -0.0182823 -0.355805 
-0.932807 -0.0125581 -0.360157 0.493841 -0.0599722 -0.867482 0.356179 0.0107363 -0.934356 
0.196815 0.037318 -0.97973 0.0722577 0.0435691 -0.996434 0.0479455 0.0980889 -0.994022 
0.159236 0.178698 -0.970933 -0.86911 -0.308774 -0.386403 -0.529336 -0.248668 -0.811152 
0.551528 -0.160928 -0.818486 0.40617 -0.35294 -0.842888 0.478466 -0.137762 -0.867232 
0.182878 -0.104841 -0.97753 0.11486 0.0499223 -0.992127 0.125559 0.105481 -0.986463 
0.223703 0.183513 -0.957225 -0.763979 -0.503897 -0.403018 -0.731131 -0.548355 -0.4059 
-0.703554 -0.474848 -0.528707 0.396365 -0.34981 -0.848839 0.3721 -0.200983 -0.906172 
0.249156 -0.0528802 -0.967019 0.191419 0.0227931 -0.981244 -0.687862 -0.606169 -0.399256 
-0.643083 -0.66201 -0.38495 -0.553476 -0.552042 -0.62363 0.484743 -0.430661 -0.761285 
0.446166 -0.502279 -0.740711 0.42609 -0.381773 -0.820181 0.384679 -0.730629 -0.564095 
0.343362 -0.365361 -0.865225 0.264012 -0.232018 -0.936197 -0.606429 -0.706604 -0.36463 
-0.557934 -0.748352 -0.358719 -0.502637 -0.623231 -0.599115 0.367566 -0.774409 -0.514962 
0.244113 -0.895552 -0.372017 0.265782 -0.753235 -0.601662 0.10536 -0.961033 -0.255567 
0.160988 -0.77335 -0.613198 -0.00740797 -0.994227 -0.107045 0.107562 -0.715083 -0.690715 
0.0259702 -0.998358 -0.0510497 0.0582076 -0.747708 -0.661471 0.127824 -0.991042 -0.0386858 
0.121879 -0.983184 -0.135995 0.00221864 -0.968642 -0.248451 -0.0422163 -0.589022 -0.807013 
-0.139725 -0.941406 -0.306971 -0.12636 -0.597732 -0.791675 -0.291619 -0.885135 -0.36262 
-0.250464 -0.73407 -0.631197 -0.451774 -0.831655 -0.322877 -0.436636 -0.841012 -0.319448 
-0.433732 -0.823482 -0.365723 0.163382 0.340991 -0.92576 -0.00859146 0.460693 -0.887518 
-0.108927 0.466226 -0.877934 -0.072583 0.47633 -0.876266 -0.0998872 0.476318 -0.873581 
0.104807 0.29727 -0.949024 0.134059 0.262732 -0.95551 0.0854114 0.28134 -0.955799 
0.185989 0.24422 -0.951717 0.0529982 0.289968 -0.955568 -0.0659953 0.354293 -0.932803 
-0.0667102 0.412164 -0.908664 -0.140312 0.477796 -0.867193 -0.091752 0.423846 -0.901075 
-0.16373 0.47931 -0.862238 -0.306565 0.354594 -0.883335 0.23353 0.122776 -0.964567 
0.213396 0.259467 -0.94188 0.0437862 0.30612 -0.950986 0.13863 0.219706 -0.965666 
0.0816768 0.192836 -0.977826 -0.0249556 0.167028 -0.985636 -0.0169585 0.207145 -0.978163 
-0.0365229 0.238058 -0.970564 -0.14492 0.25886 -0.954982 -0.349804 0.27401 -0.895855 
-0.303889 0.25203 -0.918767 0.422317 0.15383 -0.8933 0.399507 0.249741 -0.882056 
0.335432 0.136343 -0.932146 0.0602237 0.0297164 -0.997742 0.0931445 0.1646 -0.981953 
0.00579564 0.124655 -0.992183 -0.0495623 0.0851454 -0.995135 -0.00278874 0.0908363 -0.995862 
-0.0252271 0.0829016 -0.996238 -0.12333 0.0738294 -0.989615 -0.401668 0.0627736 -0.913631 
-0.223791 0.0726314 -0.971927 0.328801 0.258422 -0.908355 0.387786 0.276234 -0.879384 
0.0657628 -0.00702108 -0.997811 0.0759411 0.0173293 -0.996962 0.224541 0.0573129 -0.972778 
-0.00110247 0.00724711 -0.999973 -0.057332 0.0402683 -0.997543 -0.0163339 0.0632191 -0.997866 
-0.0549054 0.012266 -0.998416 -0.161099 -0.060647 -0.985073 -0.422769 -0.169894 -0.89017 
-0.296592 -0.0806533 -0.951592 0.225378 0.181036 -0.957304 0.221612 0.172811 -0.9597 
0.227567 0.0879047 -0.969787 0.104018 -0.0274188 -0.994197 0.123777 0.103492 -0.986898 
0.0831506 -0.0572888 -0.994889 -0.00862727 -0.0984488 -0.995105 0.0062473 -0.0339212 -0.999405 
-0.0299725 -0.0425367 -0.998645 -0.152608 -0.108642 -0.982297 -0.217564 -0.17765 -0.959743 
-0.47984 -0.306126 -0.822217 -0.451716 -0.364648 -0.814239 -0.396819 -0.263116 -0.879378 
0.194866 0.0375345 -0.980111 0.191515 0.0654487 -0.979305 0.144195 -0.0364005 -0.98888 
0.102237 -0.0279017 -0.994369 0.0557654 -0.0526076 -0.997057 0.0145816 -0.136276 -0.990564 
0.0239717 -0.14487 -0.98916 -0.00126524 -0.146654 -0.989187 -0.0906759 -0.200176 -0.975555 
-0.192329 -0.244022 -0.950507 -0.383793 -0.399288 -0.832629 -0.369976 -0.408109 -0.834605 
-0.336188 -0.350636 -0.874089 0.209207 -0.213807 -0.954211 0.17354 -0.327959 -0.928616 
0.158274 -0.203376 -0.966223 0.135526 -0.494526 -0.858532 0.131092 -0.196178 -0.971766 
0.0644008 -0.629986 -0.773931 0.0867658 -0.219461 -0.971755 0.0105288 -0.238042 -0.971198 
-0.00829706 -0.243443 -0.96988 -0.0417433 -0.562787 -0.825547 -0.0211968 -0.255145 -0.966671 
-0.113959 -0.539669 -0.834128 -0.0541294 -0.306902 -0.950201 -0.190309 -0.527045 -0.828255 
-0.138353 -0.374713 -0.91676 -0.304427 -0.46905 -0.829045 -0.290204 -0.475526 -0.830456 
-0.28447 -0.457698 -0.842371 0.0514966 -0.65337 -0.755285 0.0506848 -0.651823 -0.756675 
0.0499466 -0.646458 -0.761313 -0.0314773 -0.579071 -0.814669 -0.0147007 -0.590573 -0.80685 
-0.0152835 -0.57612 -0.817222 
