# vtk DataFile Version 4.2
vtk output
ASCII
DATASET POLYDATA
POINTS 520 float
-28.5146 -41.7795 -17.6435 -19.4553 -41.7795 -18.63 -10.3961 -41.7795 -17.9791 
-1.33681 -41.7795 -17.8812 7.72245 -41.7795 -18.5789 16.7817 -41.7795 -16.6772 
-37.5738 -32.7203 -16.9771 -28.5146 -32.7203 -20.2387 -19.4553 -32.7203 -21.6667 
-10.3961 -32.7203 -21.6541 -1.33681 -32.7203 -22.0706 7.72245 -32.7203 -22.3595 
16.7817 -32.7203 -20.7752 25.841 -32.7203 -17.2318 -37.5738 -23.661 -17.0614 
-28.5146 -23.661 -20.1823 -19.4553 -23.661 -21.3099 -10.3961 -23.661 -22.1422 
-1.33681 -23.661 -22.6484 7.72245 -23.661 -22.4771 16.7817 -23.661 -21.3081 
25.841 -23.661 -19.8473 34.9002 -23.661 -18.5931 -28.5146 -14.6017 -18.5792 
-19.4553 -14.6017 -20.51 -10.3961 -14.6017 -22.439 -1.33681 -14.6017 -23.3256 
7.72245 -14.6017 -21.9798 16.7817 -14.6017 -20.8635 25.841 -14.6017 -20.4379 
34.9002 -14.6017 -20.3488 43.9595 -14.6017 -19.6625 53.0187 -14.6017 -16.7478 
-28.5146 -5.54248 -19.8541 -19.4553 -5.54248 -22.2346 -10.3961 -5.54248 -23.4332 
-1.33681 -5.54248 -23.33 7.72245 -5.54248 -22.7708 16.7817 -5.54248 -21.9453 
25.841 -5.54248 -20.6774 34.9002 -5.54248 -20.5045 43.9595 -5.54248 -19.9873 
53.0187 -5.54248 -18.6343 -28.5146 3.51678 -21.5254 -19.4553 3.51678 -23.6607 
-10.3961 3.51678 -21.9149 -1.33681 3.51678 -23.4904 7.72245 3.51678 -22.4203 
16.7817 3.51678 -21.3327 25.841 3.51678 -20.7595 34.9002 3.51678 -20.7181 
43.9595 3.51678 -20.2159 53.0187 3.51678 -18.6405 -28.5146 12.576 -21.3269 
-19.4553 12.576 -22.3278 -10.3961 12.576 -21.4025 -1.33681 12.576 -25.3543 
7.72245 12.576 -22.7929 16.7817 12.576 -21.4929 25.841 12.576 -21.3652 
34.9002 12.576 -21.1017 43.9595 12.576 -20.0197 53.0187 12.576 -17.7249 
-28.5146 21.6353 -21.2357 -19.4553 21.6353 -22.1141 -10.3961 21.6353 -21.5866 
-1.33681 21.6353 -21.857 7.72245 21.6353 -21.2762 16.7817 21.6353 -21.791 
25.841 21.6353 -21.7984 34.9002 21.6353 -21.0688 43.9595 21.6353 -18.7811 
-37.5738 30.6946 -16.7775 -28.5146 30.6946 -21.4271 -19.4553 30.6946 -22.5168 
-10.3961 30.6946 -22.4849 -1.33681 30.6946 -21.3294 7.72245 30.6946 -20.7315 
16.7817 30.6946 -20.6076 25.841 30.6946 -20.2714 34.9002 30.6946 -17.9122 
-37.5738 39.7538 -16.93 -28.5146 39.7538 -19.8329 -19.4553 39.7538 -21.4874 
-10.3961 39.7538 -21.7043 -1.33681 39.7538 -20.5427 7.72245 39.7538 -18.9705 
16.7817 39.7538 -17.7093 -28.5146 48.8131 -16.9647 -19.4553 48.8131 -18.4882 
-10.3961 48.8131 -18.5752 -1.33681 48.8131 -16.8361 -28.5146 -43.0688 -16.6469 
-19.4553 -44.5252 -16.6469 -10.3961 -43.2922 -16.6469 -1.33681 -43.1056 -16.6469 
7.72245 -43.8955 -16.6469 16.7817 -41.8131 -16.6469 -46.6331 -41.7795 -8.0606 
-32.7919 -41.7795 -16.6469 -37.5738 -34.8977 -16.6469 -37.5738 -41.7795 -15.3201 
16.8421 -41.7795 -16.6469 25.841 -33.75 -16.6469 25.841 -41.7795 -8.01688 
-38.5379 -32.7203 -16.6469 -46.6331 -32.7203 -13.3013 27.2678 -32.7203 -16.6469 
34.9002 -27.6774 -16.6469 34.9002 -32.7203 -12.8932 43.9595 -32.7203 -8.68895 
-55.6924 -23.661 -8.28402 -38.7789 -23.661 -16.6469 -46.6331 -23.661 -13.5968 
-37.5738 -17.918 -16.6469 43.1438 -23.661 -16.6469 43.9595 -23.0417 -16.6469 
43.9595 -23.661 -16.394 53.0187 -14.8843 -16.6469 53.0187 -23.661 -12.7117 
-55.6924 -14.6017 -7.90891 -46.6331 -14.6017 -12.9462 -36.6227 -14.6017 -16.6469 
-37.5738 -14.6017 -16.4046 53.2546 -14.6017 -16.6469 62.078 -14.6017 -12.1792 
-46.6331 -5.54248 -11.4656 -35.1193 -5.54248 -16.6469 -37.5738 -5.54248 -15.4749 
58.5015 -5.54248 -16.6469 62.078 -5.54248 -15.2994 -46.6331 3.51678 -10.0826 
-34.9032 3.51678 -16.6469 -37.5738 3.51678 -14.6357 58.7072 3.51678 -16.6469 
62.078 3.51678 -15.4494 -46.6331 12.576 -8.68391 -35.1955 12.576 -16.6469 
-37.5738 12.576 -14.6995 55.6262 12.576 -16.6469 53.0187 17.6073 -16.6469 
62.078 12.576 -13.5817 -46.6331 21.6353 -8.8403 -36.6795 21.6353 -16.6469 
-37.5738 29.03 -16.6469 -37.5738 21.6353 -16.0333 50.2869 21.6353 -16.6469 
43.9595 26.1616 -16.6469 53.0187 21.6353 -15.4965 62.078 21.6353 -8.45865 
-37.7636 30.6946 -16.6469 25.841 37.0265 -16.6469 38.3127 30.6946 -16.6469 
34.9002 32.5021 -16.6469 43.9595 30.6946 -12.9507 -37.9244 39.7538 -16.6469 
-37.5738 40.2346 -16.6469 7.72245 44.4356 -16.6469 20.5845 39.7538 -16.6469 
16.7817 41.572 -16.6469 25.841 39.7538 -14.0588 -29.0351 48.8131 -16.6469 
-37.5738 48.8131 -8.06287 -28.5146 49.1974 -16.6469 -19.4553 51.1234 -16.6469 
-10.3961 51.2622 -16.6469 -0.72139 48.8131 -16.6469 -1.33681 49.0435 -16.6469 
7.72245 48.8131 -13.6318 16.7817 48.8131 -8.30465 -46.6331 -42.2065 -7.5876 
-37.5738 -48.4288 -7.5876 -28.5146 -49.9335 -7.5876 -19.4553 -50.6007 -7.5876 
-19.4553 -50.8388 -2.95627 -10.3961 -48.778 -7.5876 -1.33681 -48.5052 -7.5876 
7.72245 -49.038 -7.5876 16.7817 -47.1365 -7.5876 25.841 -41.9981 -7.5876 
-47.117 -41.7795 -7.5876 26.2431 -41.7795 -7.5876 34.9002 -37.0254 -7.5876 
43.9595 -33.6069 -7.5876 -54.4426 -32.7203 -7.5876 -55.6924 -27.1619 -7.5876 
-55.6924 -32.7203 -5.658 45.9674 -32.7203 -7.5876 53.0187 -29.2193 -7.5876 
-56.2959 -23.661 -7.5876 61.5714 -23.661 -7.5876 62.078 -23.1296 -7.5876 
62.078 -23.661 -6.08351 -56.0997 -14.6017 -7.5876 -64.7516 -14.6017 0.795589 
-55.6924 -13.1095 -7.5876 67.828 -14.6017 -7.5876 -53.3812 -5.54248 -7.5876 
-55.6924 -5.54248 -6.13901 70.9117 -5.54248 -7.5876 71.1373 -5.54248 -7.07872 
-52.7632 3.51678 -7.5876 -55.6924 3.51678 -5.45874 71.0144 3.51678 -7.5876 
71.1373 3.51678 -7.28957 -48.5926 12.576 -7.5876 -55.6924 12.576 -2.85638 
69.5387 12.576 -7.5876 -47.9688 21.6353 -7.5876 -55.6924 21.6353 0.600844 
-46.6331 27.661 -7.5876 53.0187 28.8889 -7.5876 62.5855 21.6353 -7.5876 
62.078 22.0916 -7.5876 -46.059 30.6946 -7.5876 -46.6331 30.6946 -6.70861 
34.9002 38.5339 -7.5876 49.9649 30.6946 -7.5876 43.9595 34.0082 -7.5876 
-43.8867 39.7538 -7.5876 -46.6331 39.7538 -2.73508 32.8505 39.7538 -7.5876 
25.841 43.923 -7.5876 -38.1063 48.8131 -7.5876 -37.5738 49.187 -7.5876 
-28.5146 54.9593 -7.5876 -19.4553 57.2949 -7.5876 -10.3961 57.7015 -7.5876 
-1.33681 56.0374 -7.5876 7.72245 53.2012 -7.5876 17.4871 48.8131 -7.5876 
16.7817 49.2135 -7.5876 -19.4553 -51.0607 1.47166 -46.6331 -45.6107 1.47166 
-37.5738 -49.0859 1.47166 -22.1654 -50.8388 1.47166 -28.5146 -50.3189 1.47166 
-17.4581 -50.8388 1.47166 -19.4553 -50.8388 2.18446 -10.3961 -50.0658 1.47166 
-1.33681 -50.436 1.47166 7.72245 -50.5322 1.47166 16.7817 -47.8437 1.47166 
25.841 -42.5723 1.47166 -50.9043 -41.7795 1.47166 -55.6924 -36.7369 1.47166 
-46.6331 -41.7795 8.41214 27.4604 -41.7795 1.47166 25.841 -41.7795 3.53966 
34.9002 -38.36 1.47166 43.9595 -35.2752 1.47166 -58.7035 -32.7203 1.47166 
-55.6924 -32.7203 9.62564 49.8945 -32.7203 1.47166 43.9595 -32.7203 10.1459 
53.0187 -31.2149 1.47166 62.078 -25.1838 1.47166 -62.741 -23.661 1.47166 
-64.7516 -16.2732 1.47166 63.9014 -23.661 1.47166 62.078 -23.661 5.05005 
-65.1472 -14.6017 1.47166 -64.7516 -10.6814 1.47166 -64.7516 -14.6017 4.90962 
70.4566 -14.6017 1.47166 71.1373 -13.1463 1.47166 -64.0475 -5.54248 1.47166 
74.3947 -5.54248 1.47166 71.1373 -5.54248 8.10284 -60.9423 3.51678 1.47166 
74.2642 3.51678 1.47166 71.1373 12.4428 1.47166 71.1373 3.51678 7.73187 
-59.2682 12.576 1.47166 71.0859 12.576 1.47166 -56.3393 21.6353 1.47166 
-55.6924 23.5452 1.47166 53.0187 28.8585 1.47166 64.4142 21.6353 1.47166 
62.078 23.5414 1.47166 62.078 21.6353 5.24153 -52.7079 30.6946 1.47166 
34.9002 37.6726 1.47166 49.3235 30.6946 1.47166 43.9595 33.7224 1.47166 
43.9595 30.6946 7.02671 -48.9595 39.7538 1.47166 -46.6331 42.6454 1.47166 
-46.6331 39.7538 9.6524 31.627 39.7538 1.47166 25.841 43.4777 1.47166 
25.841 39.7538 8.29055 -39.947 48.8131 1.47166 -37.5738 50.4926 1.47166 
-37.5738 48.8131 4.91243 -28.5146 54.1716 1.47166 -28.5146 48.8131 10.4137 
-19.4553 55.8174 1.47166 -10.3961 55.9467 1.47166 -10.3961 48.8131 10.4638 
-1.33681 54.6331 1.47166 -1.33681 48.8131 9.17547 7.72245 52.5246 1.47166 
7.72245 48.8131 7.56956 17.1204 48.8131 1.47166 16.7817 49.0201 1.47166 
16.7817 48.8131 1.85897 -37.5738 -45.0062 10.5309 -28.5146 -46.8074 10.5309 
-19.4553 -47.8215 10.5309 -10.3961 -48.1433 10.5309 -1.33681 -49.1423 10.5309 
7.72245 -48.4033 10.5309 16.7817 -44.3737 10.5309 -44.4242 -41.7795 10.5309 
-46.6331 -40.1164 10.5309 -37.5738 -41.7795 13.9467 -28.5146 -41.7795 15.5961 
-19.4553 -41.7795 17.1514 -10.3961 -41.7795 17.8391 -1.33681 -41.7795 17.9856 
7.72245 -41.7795 17.5618 20.9955 -41.7795 10.5309 16.7817 -41.7795 13.1016 
25.841 -38.5929 10.5309 34.9002 -34.7044 10.5309 -55.0758 -32.7203 10.5309 
-55.6924 -32.0061 10.5309 -46.6331 -32.7203 15.8149 -37.5738 -32.7203 17.9103 
7.72245 -32.7203 19.1656 16.7817 -32.7203 17.0948 25.841 -32.7203 15.6165 
43.332 -32.7203 10.5309 34.9002 -32.7203 12.6515 43.9595 -32.545 10.5309 
53.0187 -27.2403 10.5309 -60.3459 -23.661 10.5309 -55.6924 -23.661 15.278 
-46.6331 -23.661 18.0612 -37.5738 -23.661 19.5265 7.72245 -23.661 19.3936 
16.7817 -23.661 18.9989 25.841 -23.661 19.2734 34.9002 -23.661 18.6979 
43.9595 -23.661 17.6002 58.3361 -23.661 10.5309 53.0187 -23.661 14.1331 
62.078 -20.2773 10.5309 -63.7956 -14.6017 10.5309 -55.6924 -14.6017 18.2508 
53.0187 -14.6017 17.8798 65.9519 -14.6017 10.5309 62.078 -14.6017 13.9251 
-64.5266 -5.54248 10.5309 -55.6924 -5.54248 17.3734 16.7817 -5.54248 19.5047 
69.3487 -5.54248 10.5309 62.078 -5.54248 16.0988 -63.2985 3.51678 10.5309 
-55.6924 3.51678 17.3445 53.0187 3.51678 19.0837 69.0717 3.51678 10.5309 
62.078 3.51678 15.9669 -60.9159 12.576 10.5309 -55.6924 12.576 18.2937 
43.9595 12.576 19.1625 53.0187 12.576 17.3764 66.1205 12.576 10.5309 
62.078 17.8241 10.5309 62.078 12.576 13.7416 -57.8276 21.6353 10.5309 
-55.6924 26.1458 10.5309 -55.6924 21.6353 13.9311 -46.6331 21.6353 19.0506 
-10.3961 21.6353 19.4986 -1.33681 21.6353 18.7442 25.841 21.6353 19.017 
34.9002 21.6353 17.4092 43.9595 28.5001 10.5309 43.9595 21.6353 16.0482 
57.7132 21.6353 10.5309 53.0187 24.7399 10.5309 53.0187 21.6353 13.2756 
-52.964 30.6946 10.5309 -46.6331 39.393 10.5309 -46.6331 30.6946 16.0061 
[...]
POINT_DATA 520
SCALARS ImageScalars float
LOOKUP_TABLE default
0 0 0 0 0 0 0 0 0 
0 0 0 0 0 0 0 0 0 
0 0 0 0 0 0 0 0 0 
0 0 0 0 0 0 0 0 0 
0 0 0 0 0 0 0 0 0 
0 0 0 0 0 0 0 0 0 
0 0 0 0 0 0 0 0 0 
0 0 0 0 0 0 0 0 0 
0 0 0 0 0 0 0 0 0 
0 0 0 0 0 0 0 0 0 
0 0 0 0 0 0 0 0 0 
0 0 0 0 0 0 0 0 0 
0 0 0 0 0 0 0 0 0 
0 0 0 0 0 0 0 0 0 
0 0 0 0 0 0 0 0 0 
0 0 0 0 0 0 0 0 0 
0 0 0 0 0 0 0 0 0 
0 0 0 0 0 0 0 0 0 
0 0 0 0 0 0 0 0 0 
0 0 0 0 0 0 0 0 0 
0 0 0 0 0 0 0 0 0 
0 0 0 0 0 0 0 0 0 
0 0 0 0 0 0 0 0 0 
0 0 0 0 0 0 0 0 0 
0 0 0 0 0 0 0 0 0 
0 0 0 0 0 0 0 0 0 
0 0 0 0 0 0 0 0 0 
0 0 0 0 0 0 0 0 0 
0 0 0 0 0 0 0 0 0 
0 0 0 0 0 0 0 0 0 
0 0 0 0 0 0 0 0 0 
0 0 0 0 0 0 0 0 0 
0 0 0 0 0 0 0 0 0 
0 0 0 0 0 0 0 0 0 
0 0 0 0 0 0 0 0 0 
0 0 0 0 0 0 0 0 0 
0 0 0 0 0 0 0 0 0 
0 0 0 0 0 0 0 0 0 
0 0 0 0 0 0 0 0 0 
0 0 0 0 0 0 0 0 0 
0 0 0 0 0 0 0 0 0 
0 0 0 0 0 0 0 0 0 
0 0 0 0 0 0 0 0 0 
0 0 0 0 0 0 0 0 0 
0 0 0 0 0 0 0 0 0 
0 0 0 0 0 0 0 0 0 
0 0 0 0 0 0 0 0 0 
0 0 0 0 0 0 0 0 0 
0 0 0 0 0 0 0 0 0 
0 0 0 0 0 0 0 0 0 
0 0 0 0 0 0 0 0 0 
0 0 0 0 0 0 0 0 0 
0 0 0 0 0 0 0 0 0 
0 0 0 0 0 0 0 0 0 
0 0 0 0 0 0 0 0 0 
0 0 0 0 0 0 0 0 0 
0 0 0 0 0 0 0 0 0 
0 0 0 0 0 0 0 
NORMALS Normals float
0.162857 0.486231 0.85852 0.0153039 0.504158 0.863476 -0.0399698 0.591997 0.804949 
0.0295444 0.624687 0.780316 -0.056945 0.593385 0.802902 -0.316573 0.618751 0.718978 
0.327009 0.0738595 0.942131 0.24471 0.116921 0.962521 0.0726971 0.132873 0.988463 
0.0212466 0.2063 0.978258 0.0371711 0.224668 0.973726 -0.0649979 0.183853 0.980802 
-0.251418 0.223427 0.941737 -0.360661 0.396515 0.844216 0.332694 -0.0307338 0.942534 
0.21879 -0.0884846 0.971752 0.105855 -0.0657789 0.992203 0.0734405 0.0415077 0.996435 
0.0183899 0.0663634 0.997626 -0.0731898 -0.0211658 0.997093 -0.149238 0.00246949 0.988798 
-0.149806 0.149755 0.977308 -0.177909 0.314224 0.93253 0.222307 -0.0228499 0.974709 
0.204825 0.0459414 0.97772 0.157131 0.0719174 0.984956 -0.0275731 0.0382994 0.998886 
-0.133556 0.0163251 0.990907 -0.0861824 0.0329386 0.995735 -0.0275745 0.0462868 0.998548 
-0.0406312 0.112531 0.992817 -0.193807 0.184191 0.963594 -0.338376 0.263643 0.903324 
0.357883 0.151221 0.92144 0.188272 0.176705 0.96609 0.0574553 -0.0301326 0.997893 
-0.0378722 0.00859545 0.999246 -0.0726644 0.0241428 0.997064 -0.11785 0.026825 0.992669 
-0.0761843 0.0184217 0.996924 -0.0377737 0.020003 0.999086 -0.100456 0.0282347 0.994541 
-0.23425 0.0963468 0.96739 0.423326 0.0752551 0.902847 0.00430408 0.00521977 0.999977 
-0.0129219 -0.11271 0.993544 0.0294052 0.105325 0.994003 -0.114888 -0.000326288 0.993378 
-0.0929572 -0.0239356 0.995382 -0.0331107 0.0379138 0.998732 -0.0298373 0.0329653 0.999011 
-0.111313 0.00174668 0.993784 -0.240266 -0.0464139 0.969597 0.352132 -0.0145752 0.935837 
0.00173627 -0.0842481 0.996443 0.142212 -0.0181251 0.98967 0.0920293 -0.100643 0.990657 
-0.204938 -0.0664707 0.976515 -0.073846 0.024796 0.996961 -0.0215182 0.0568676 0.99815 
-0.0724745 0.0190639 0.997188 -0.178072 -0.0707213 0.981473 -0.311191 -0.14932 0.938543 
0.289619 0.00481032 0.95713 0.0173949 0.0107644 0.999791 -0.0146603 0.0589351 0.998154 
-0.0171637 -0.199987 0.979648 -0.00338539 -0.107376 0.994213 0.0289205 -0.0474428 0.998455 
-0.0371954 -0.0516857 0.99797 -0.157844 -0.165844 0.973438 -0.280626 -0.276503 0.919128 
0.5342 0.0419677 0.844316 0.285904 -0.0793711 0.954966 0.0528654 -0.0319566 0.99809 
-0.0697948 0.00912931 0.99752 -0.0925939 -0.0668387 0.993458 -0.042038 -0.122084 0.991629 
-0.0232753 -0.215498 0.976227 -0.140012 -0.321315 0.936565 -0.294685 -0.491369 0.819583 
0.568693 -0.283409 0.772184 0.241831 -0.227536 0.943263 0.101948 -0.194717 0.975547 
-0.050725 -0.189348 0.980599 -0.14597 -0.212496 0.966198 -0.1493 -0.310127 0.938899 
-0.191921 -0.436139 0.879175 0.35218 -0.539886 0.764521 0.0868865 -0.489292 0.867781 
-0.0753269 -0.503547 0.860678 -0.208819 -0.541873 0.814106 0.160947 0.540825 0.825593 
0.000753016 0.618371 0.785886 -0.0568447 0.656984 0.751759 0.0275164 0.68198 0.730853 
-0.0546191 0.691628 0.720186 -0.316519 0.620165 0.717782 0.636866 0.591742 0.49421 
0.234566 0.455531 0.858761 0.329072 0.152048 0.931983 0.340276 0.452607 0.824233 
-0.317969 0.619219 0.717958 -0.379354 0.427957 0.820331 -0.485047 0.834418 0.261678 
0.347738 0.0789145 0.934265 0.546306 0.186818 0.816485 -0.356026 0.434104 0.827526 
-0.247248 0.446011 0.860199 -0.358139 0.678021 0.641891 -0.35756 0.791001 0.496456 
0.688585 0.0615572 0.722539 0.330746 -0.0306917 0.943221 0.376414 -0.0198107 0.92624 
0.302593 -0.0619026 0.951108 -0.270952 0.423148 0.864598 -0.274184 0.417796 0.866181 
-0.280698 0.437407 0.854332 -0.338258 0.270531 0.901329 -0.374027 0.555018 0.743007 
0.570857 -0.0979139 0.81519 0.372013 -0.100427 0.922779 0.279066 -0.0753338 0.957312 
0.286588 -0.080861 0.954635 -0.341976 0.264253 0.901789 -0.549085 0.341212 0.762941 
0.422492 -0.142696 0.895063 0.394057 -0.0273556 0.918679 0.403209 -0.086064 0.911052 
-0.336099 0.119688 0.934191 -0.434611 0.147078 0.888528 0.426478 -0.136064 0.894205 
0.561155 0.005823 0.82769 0.564913 -0.0398778 0.824187 -0.339273 -0.0620164 0.938641 
-0.428392 -0.0781633 0.900206 0.512346 -0.0658492 0.856251 0.571778 0.055505 0.818529 
0.608157 0.0606057 0.7915 -0.363061 -0.138707 0.921383 -0.302528 -0.283614 0.909967 
-0.53983 -0.221469 0.812118 0.664468 -0.0542385 0.745346 0.562886 0.0839358 0.822262 
0.544655 0.0524829 0.837017 0.586582 0.0929616 0.804537 -0.282231 -0.366087 0.88675 
-0.347344 -0.449694 0.822877 -0.322673 -0.434528 0.840873 -0.676733 -0.658948 0.32836 
0.54005 0.0414312 0.840613 -0.282759 -0.566749 0.77385 -0.341182 -0.541434 0.768403 
-0.322712 -0.560631 0.762594 -0.441989 -0.714339 0.542554 0.580631 -0.283338 0.763274 
0.57118 -0.303686 0.76258 -0.198245 -0.474223 0.857795 -0.258591 -0.530915 0.807006 
-0.227428 -0.498188 0.836711 -0.389013 -0.716809 0.578665 0.364186 -0.548758 0.752485 
0.606781 -0.685321 0.402681 0.353684 -0.557446 0.751107 0.0960437 -0.601743 0.792894 
-0.0810472 -0.585725 0.806448 -0.211864 -0.548394 0.808937 -0.210314 -0.549218 0.808782 
-0.301297 -0.70989 0.636613 -0.453101 -0.849052 0.271682 0.636091 0.61358 0.467877 
0.310252 0.882945 0.352352 0.107094 0.954775 0.277373 -0.0638988 0.964863 0.254865 
-0.0393505 0.997622 0.0565796 -0.112027 0.945412 0.306015 0.0139136 0.940606 0.339214 
-0.0647946 0.950132 0.305042 -0.357281 0.895601 0.265044 -0.482372 0.842202 0.240859 
0.645119 0.601555 0.471119 -0.478258 0.843207 0.245502 -0.398851 0.835563 0.377825 
-0.364758 0.82128 0.438693 0.720444 0.285402 0.632065 0.720278 0.151135 0.677021 
0.78926 0.349831 0.504665 -0.383098 0.813629 0.437315 -0.447554 0.772919 0.449769 
0.706221 0.0682168 0.704697 -0.614558 0.67024 0.416049 -0.625361 0.657778 0.419824 
-0.642294 0.696113 0.320756 0.580913 -0.0912251 0.808837 0.952846 0.067956 0.295747 
0.571058 -0.0931216 0.815611 -0.756131 0.391072 0.524718 0.531243 -0.0924022 0.842165 
0.602237 -0.104212 0.791486 -0.86355 0.118845 0.490058 -0.88119 0.122325 0.456663 
0.550616 -0.132756 0.824135 0.660147 -0.144238 0.737158 -0.874192 -0.0521922 0.482766 
-0.884933 -0.0556394 0.462383 0.52887 -0.112139 0.841262 0.728373 -0.217849 0.649627 
-0.819592 -0.340232 0.46099 0.668101 -0.0953864 0.737931 0.838813 -0.294234 0.458061 
0.768221 -0.143326 0.623935 -0.515484 -0.810932 0.276884 -0.685437 -0.672193 0.279878 
-0.676929 -0.683142 0.274014 0.805081 -0.171161 0.567933 0.824032 -0.191213 0.5333 
-0.471274 -0.864026 0.177087 -0.486887 -0.840114 0.239058 -0.458657 -0.859109 0.22708 
0.801805 -0.292412 0.521156 0.861455 -0.39884 0.314359 -0.473348 -0.86188 0.181948 
-0.497603 -0.840304 0.215129 0.622827 -0.682734 0.382048 0.60907 -0.695049 0.382021 
0.376473 -0.900896 0.215995 0.138422 -0.979097 0.149026 -0.070043 -0.987512 0.141118 
-0.239594 -0.953714 0.181727 -0.352808 -0.902355 0.247551 -0.464549 -0.854862 0.231094 
-0.458654 -0.857142 0.234402 -0.0146705 0.991547 -0.128918 0.533305 0.841004 -0.0910905 
0.219729 0.961369 -0.165799 0.0205331 0.990919 -0.132882 0.10367 0.984215 -0.14343 
-0.0189159 0.994145 -0.106382 -0.00927253 0.987954 -0.154468 -0.0335287 0.99906 -0.0274696 
0.0255954 0.99885 0.0405311 -0.129231 0.991546 -0.0116172 -0.404353 0.907392 -0.114623 
-0.484305 0.86493 -0.131696 0.655051 0.752054 -0.0729629 0.793126 0.608621 -0.023075 
0.52489 0.690537 -0.497644 -0.469332 0.87339 -0.13007 -0.480426 0.848098 -0.223429 
-0.378061 0.920264 -0.10091 -0.345544 0.937134 -0.0487703 0.858063 0.512213 0.0369632 
0.665838 0.533628 -0.521442 -0.415232 0.907441 -0.0642903 -0.320717 0.805387 -0.49849 
-0.463284 0.883005 -0.0752975 -0.650171 0.755043 -0.0847814 0.935489 0.309556 0.170397 
0.963493 0.120896 0.238884 -0.685817 0.722432 -0.0880193 -0.642625 0.718624 -0.265729 
0.964417 0.0730605 0.254091 0.952734 -0.039061 0.301285 0.992242 0.122869 -0.0189282 
-0.891353 0.442503 -0.098397 -0.912459 0.397778 -0.0958694 0.911941 -0.185702 0.365893 
-0.980469 0.191799 -0.04352 -0.881335 0.182336 -0.435893 0.854706 -0.233494 0.463636 
-0.984582 -0.164064 -0.0606679 -0.902692 -0.407315 -0.138713 -0.893021 -0.164346 -0.418932 
0.861277 -0.229505 0.453353 -0.900577 -0.41167 -0.139605 0.859647 -0.303153 0.411225 
0.862562 -0.310556 0.399426 -0.458004 -0.873434 -0.165363 -0.672496 -0.728007 -0.133251 
-0.616068 -0.775281 -0.139279 -0.61027 -0.726174 -0.31661 0.897054 -0.336238 0.286771 
-0.460748 -0.844932 -0.271663 -0.443006 -0.8751 -0.194796 -0.419604 -0.876946 -0.234302 
-0.35396 -0.811295 -0.465309 0.85654 -0.503476 0.113359 0.805021 -0.591471 0.0458629 
0.626192 -0.638526 -0.447401 -0.504911 -0.82388 -0.257461 -0.534401 -0.810414 -0.240091 
-0.467234 -0.712083 -0.524051 0.558453 -0.81919 -0.130605 0.497502 -0.854432 -0.149793 
0.457163 -0.829418 -0.321041 0.253125 -0.92544 -0.281938 0.157056 -0.740477 -0.653473 
0.09313 -0.943351 -0.318459 -0.0614101 -0.923034 -0.379786 -0.0873117 -0.638436 -0.764707 
-0.178721 -0.912388 -0.368249 -0.105782 -0.690028 -0.71601 -0.278881 -0.91384 -0.295163 
-0.214809 -0.779375 -0.588585 -0.442457 -0.865261 -0.2357 -0.438549 -0.867308 -0.235482 
-0.43736 -0.863277 -0.251931 0.276862 0.735723 -0.61811 0.135187 0.815541 -0.562688 
0.0664063 0.854346 -0.515444 0.0662667 0.906783 -0.416358 0.019493 0.916074 -0.400535 
-0.226098 0.861678 -0.454303 -0.426451 0.704619 -0.567143 0.443788 0.645894 -0.621186 
0.473667 0.615593 -0.629829 0.280769 0.61038 -0.740679 0.144026 0.599817 -0.787068 
0.104797 0.58085 -0.807236 0.0388086 0.545476 -0.837228 -0.0115478 0.483092 -0.875494 
-0.226099 0.431648 -0.873246 -0.440467 0.696272 -0.566739 -0.422864 0.597959 -0.680905 
-0.3928 0.711607 -0.582515 -0.2594 0.788955 -0.557011 0.619685 0.524979 -0.583427 
0.639444 0.513006 -0.572657 0.362947 0.417612 -0.832988 0.190197 0.28423 -0.939701 
-0.187441 0.0775583 -0.979209 -0.189719 0.288708 -0.938432 -0.211651 0.52275 -0.825795 
-0.312651 0.792898 -0.523032 -0.230946 0.731966 -0.641006 -0.317866 0.791101 -0.52261 
-0.456916 0.700319 -0.548435 0.784863 0.36904 -0.497794 0.596743 0.392307 -0.699994 
0.19597 0.196099 -0.960802 0.145378 0.12549 -0.981385 -0.0698616 0.0908429 -0.993412 
-0.00750489 0.150798 -0.988536 -0.0155278 0.264145 -0.964358 -0.0804707 0.384493 -0.919614 
-0.198038 0.457029 -0.867124 -0.525119 0.635685 -0.565822 -0.418558 0.549326 -0.723223 
-0.600476 0.536993 -0.592509 0.854515 0.189853 -0.483487 0.454876 0.0694 -0.887847 
-0.337862 0.233264 -0.911832 -0.699107 0.375659 -0.608383 -0.547026 0.340929 -0.764546 
0.93936 -0.0321141 -0.341427 0.445401 -0.0385631 -0.8945 -0.251063 -0.00124993 -0.96797 
-0.762342 0.150429 -0.629449 -0.448596 0.106253 -0.887396 0.952892 -0.183817 -0.241262 
0.50103 0.0335305 -0.86478 -0.218837 -0.125563 -0.967649 -0.749588 -0.139726 -0.646989 
-0.42785 -0.123445 -0.89538 0.929971 -0.303078 -0.208082 0.575562 -0.101209 -0.811471 
-0.157821 -0.222542 -0.962064 -0.271368 -0.271686 -0.923334 -0.654093 -0.378635 -0.654826 
-0.560279 -0.531678 -0.635143 -0.504462 -0.351634 -0.788589 0.898981 -0.384439 -0.209856 
0.862193 -0.436486 -0.257104 0.785735 -0.393855 -0.476967 0.238261 -0.25537 -0.937026 
-0.0777192 -0.110226 -0.990863 0.00623028 -0.194726 -0.980838 -0.147949 -0.230812 -0.961685 
-0.155716 -0.387632 -0.908567 -0.283742 -0.717246 -0.636435 -0.196608 -0.481422 -0.854153 
-0.477552 -0.627343 -0.61513 -0.400286 -0.677177 -0.617416 -0.375389 -0.579839 -0.723098 
0.7909 -0.506328 -0.343669 0.590479 -0.635031 -0.498066 0.479564 -0.423904 -0.768325 
0.176954 -0.269252 -0.946673 0.0224401 -0.173604 -0.98456 -0.103876 -0.174373 -0.979185 
-0.0410318 -0.185418 -0.981803 0.00725576 -0.262769 -0.964832 -0.103171 -0.346887 -0.932215 
-0.411976 -0.650133 -0.638438 -0.273716 -0.465778 -0.841505 -0.3148 -0.706319 -0.634046 
-0.344377 -0.682624 -0.644538 -0.317146 -0.649854 -0.69073 0.57812 -0.635535 -0.511734 
0.354672 -0.672929 -0.649133 0.297391 -0.525006 -0.79745 0.154836 -0.735541 -0.65955 
0.0871003 -0.420138 -0.90327 -0.0410021 -0.380357 -0.92393 -0.0873429 -0.634923 -0.767622 
-0.0843721 -0.376236 -0.922674 -0.088491 -0.619405 -0.780068 -0.0787663 -0.393871 -0.915784 
-0.14905 -0.634898 -0.758083 -0.0929513 -0.439343 -0.893497 -0.379445 -0.651124 -0.657312 
-0.292983 -0.648082 -0.702958 -0.233803 -0.562375 -0.793139 0.141756 -0.731367 -0.667089 
-0.0811404 -0.638048 -0.76571 0.0055904 -0.666675 -0.745327 0.00107146 -0.643492 -0.765452 
0.176177 0.251447 -0.951702 0.0932756 0.364512 -0.926515 -0.00489623 0.346931 -0.937878 
-0.0657898 0.250056 -0.965994 0.176329 0.245705 -0.953172 0.176149 0.244428 -0.953534 
0.0746173 0.205953 -0.975713 -0.0341226 0.189118 -0.981361 -0.164117 0.0842249 -0.982839 
-0.107562 0.112532 -0.987809 0.121018 0.128656 -0.984277 0.143607 0.121253 -0.982179 
0.137777 0.122875 -0.982812 0.111978 0.0517667 -0.992361 0.056548 0.0079618 -0.998368 
-0.0676211 0.0313492 -0.997218 -0.0839524 0.0727023 -0.993814 -0.134465 0.00756041 -0.990889 
-0.0670775 0.115835 -0.991001 0.00513295 0.0713611 -0.997437 -7.32806e-05 0.222998 -0.974819 
-0.0525237 0.285268 -0.957007 -0.173816 0.268842 -0.947371 0.222593 0.0894524 -0.970799 
0.113146 0.110269 -0.987441 0.0301598 0.0917049 -0.995329 0.0498586 -0.0460718 -0.997693 
0.0564682 -0.013879 -0.998308 -0.030935 0.118877 -0.992427 -0.0379026 0.0682379 -0.996949 
-0.0518971 0.288166 -0.956173 -0.197843 0.00518095 -0.98022 0.00804806 0.0300391 -0.999516 
0.0739261 0.0300087 -0.996812 -0.0150444 0.103158 -0.994551 -0.2473 0.175941 -0.952831 
-0.174174 0.141296 -0.974525 -0.235419 0.0784621 -0.968722 0.212877 -0.0115793 -0.97701 
0.194728 -0.00652657 -0.980836 0.00171235 0.0670966 -0.997745 -0.00613947 -0.0470645 -0.998873 
0.243613 -0.0349452 -0.969243 -0.00428029 0.173018 -0.984909 0.0168818 0.0125707 -0.999778 
-0.250186 0.00156221 -0.968197 -0.100099 0.103315 -0.989599 -0.174819 -0.0172188 -0.98445 
-0.24256 0.0247446 -0.969821 0.0626253 -0.0656419 -0.995876 0.0445253 -0.0448076 -0.998003 
-0.0494909 -0.0232941 -0.998503 -0.232566 0.0687592 -0.970147 -0.224528 0.0230561 -0.974195 
-0.22524 0.0665934 -0.972025 0.237449 0.059629 -0.969568 0.211986 0.0537533 -0.975793 
0.000399063 0.00123236 -0.999999 -0.0697644 0.0343964 -0.99697 0.289634 -0.098643 -0.952041 
-0.0129179 -0.164382 -0.986312 -0.0806175 -0.0113441 -0.996681 -0.0464857 -0.088641 -0.994978 
-0.205099 0.120238 -0.971328 0.0277287 0.0210306 -0.999394 0.0318364 -0.0152508 -0.999377 
-0.161776 -0.109619 -0.98072 -0.129834 -0.174469 -0.976065 -0.0711239 -0.0809806 -0.994175 
0.381209 -0.0642476 -0.922254 0.195551 -0.192772 -0.961561 0.134283 -0.0417317 -0.990064 
-0.0140664 -0.0822969 -0.996509 -0.0873386 0.0142141 -0.996077 -0.00467768 -0.014847 -0.999879 
-0.0615417 -0.128262 -0.989829 0.101114 -0.299601 -0.948691 0.0453987 -0.17409 -0.983683 
0.111554 -0.130336 -0.985174 0.0109965 -0.21307 -0.976975 -0.136618 0.00693661 -0.9906 
-0.108918 -0.141895 -0.983871 -0.0645944 -0.0424873 -0.997007 -0.125037 -0.200804 -0.971619 
-0.0858812 -0.219981 -0.971716 -0.0595607 -0.158036 -0.985635 0.145931 -0.185197 -0.971806 
0.125017 -0.200662 -0.971651 0.0565927 -0.108594 -0.992474 0.0160083 -0.146066 -0.989145 
-0.00224192 -0.0597548 -0.998211 -0.072097 -0.0953903 -0.992826 -0.0361706 -0.000530242 -0.999345 
0.0782521 -0.25717 -0.963193 0.080561 -0.260149 -0.962202 0.0821012 -0.260299 -0.962031 
-0.0948201 -0.213293 -0.972376 -0.050011 -0.237103 -0.970197 -0.0323921 -0.198933 -0.979478 
-0.0555838 -0.171423 -0.983628 -0.0564971 -0.171391 -0.983582 -0.0563902 -0.171538 -0.983562 
-0.0564112 -0.171395 -0.983586 
