# vtk DataFile Version 4.2
vtk output
ASCII
DATASET POLYDATA
POINTS 480 float
-26.4508 -35.025 -18.8905 -18.6587 -35.025 -21.0959 -10.8665 -35.025 -21.9474 
-3.07441 -35.025 -20.9608 4.71772 -35.025 -19.2809 -34.2429 -27.2329 -19.7252 
-26.4508 -27.2329 -21.7914 -18.6587 -27.2329 -22.7474 -10.8665 -27.2329 -23.1307 
-3.07441 -27.2329 -23.5494 4.71772 -27.2329 -22.7649 12.5098 -27.2329 -21.8976 
20.302 -27.2329 -21.4746 28.0941 -27.2329 -20.8748 35.8862 -27.2329 -19.0851 
-34.2429 -19.4408 -20.3786 -26.4508 -19.4408 -22.6277 -18.6587 -19.4408 -23.0382 
-10.8665 -19.4408 -23.2924 -3.07441 -19.4408 -23.4728 4.71772 -19.4408 -23.655 
12.5098 -19.4408 -23.569 20.302 -19.4408 -23.9491 28.0941 -19.4408 -23.4787 
35.8862 -19.4408 -22.4996 43.6783 -19.4408 -18.8302 -34.2429 -11.6486 -20.7555 
-26.4508 -11.6486 -22.2251 -18.6587 -11.6486 -22.8038 -10.8665 -11.6486 -23.7182 
-3.07441 -11.6486 -25.1613 4.71772 -11.6486 -25.4424 12.5098 -11.6486 -24.1613 
20.302 -11.6486 -23.6565 28.0941 -11.6486 -23.4095 35.8862 -11.6486 -22.9207 
43.6783 -11.6486 -19.8225 -34.2429 -3.85651 -21.6712 -26.4508 -3.85651 -22.7579 
-18.6587 -3.85651 -23.1015 -10.8665 -3.85651 -24.7166 -3.07441 -3.85651 -25.4055 
4.71772 -3.85651 -25.9865 12.5098 -3.85651 -24.8537 20.302 -3.85651 -22.1245 
28.0941 -3.85651 -22.0058 35.8862 -3.85651 -21.5508 43.6783 -3.85651 -19.7333 
-34.2429 3.93562 -22.2293 -26.4508 3.93562 -22.9959 -18.6587 3.93562 -23.1028 
-10.8665 3.93562 -23.2807 -3.07441 3.93562 -22.5444 4.71772 3.93562 -23.6092 
12.5098 3.93562 -24.7845 20.302 3.93562 -21.4455 28.0941 3.93562 -20.0557 
35.8862 3.93562 -18.9192 -34.2429 11.7277 -21.4103 -26.4508 11.7277 -22.9489 
-18.6587 11.7277 -23.021 -10.8665 11.7277 -23.3171 -3.07441 11.7277 -23.2301 
4.71772 11.7277 -21.9689 12.5098 11.7277 -23.0344 20.302 11.7277 -21.4761 
-34.2429 19.5199 -18.5758 -26.4508 19.5199 -20.534 -18.6587 19.5199 -21.0495 
-10.8665 19.5199 -21.8513 -3.07441 19.5199 -21.5076 4.71772 19.5199 -19.1896 
12.5098 19.5199 -19.168 20.302 19.5199 -18.6518 -26.4508 -35.6359 -18.4638 
-18.6587 -39.0885 -18.4638 -18.6587 -42.8171 -11.317 -10.8665 -39.9601 -18.4638 
-10.8665 -42.8171 -10.9851 -3.07441 -38.187 -18.4638 4.71772 -35.9196 -18.4638 
-27.3636 -35.025 -18.4638 -34.2429 -29.7769 -18.4638 -34.2429 -35.025 -13.5667 
7.34444 -35.025 -18.4638 12.5098 -32.7863 -18.4638 12.5098 -35.025 -15.2116 
20.302 -31.1943 -18.4638 20.302 -35.025 -12.2327 28.0941 -30.4032 -18.4638 
35.8862 -27.8397 -18.4638 -35.9834 -27.2329 -18.4638 36.7641 -27.2329 -18.4638 
43.6783 -20.0145 -18.4638 -37.8092 -19.4408 -18.4638 -42.035 -19.4408 -15.5824 
44.144 -19.4408 -18.4638 -40.2432 -11.6486 -18.4638 -42.035 -11.6486 -17.5211 
45.9384 -11.6486 -18.4638 51.4705 -11.6486 -11.8679 -41.2308 -3.85651 -18.4638 
-42.035 -3.85651 -18.0123 45.985 -3.85651 -18.4638 43.6783 0.685351 -18.4638 
51.4705 -3.85651 -14.3551 -41.9775 3.93562 -18.4638 -42.035 3.93562 -18.4249 
28.0941 9.71226 -18.4638 38.6982 3.93562 -18.4638 35.8862 5.00061 -18.4638 
43.6783 3.93562 -17.4278 51.4705 3.93562 -11.9261 -40.0565 11.7277 -18.4638 
-42.035 11.7277 -16.7815 26.8102 11.7277 -18.4638 28.0941 11.7277 -17.8409 
35.8862 11.7277 -15.0112 43.6783 11.7277 -11.8453 -34.4202 19.5199 -18.4638 
-42.035 19.5199 -11.0787 -34.2429 19.6668 -18.4638 -26.4508 23.043 -18.4638 
-18.6587 24.1495 -18.4638 -10.8665 24.9133 -18.4638 -3.07441 24.1659 -18.4638 
4.71772 20.7452 -18.4638 12.5098 20.7026 -18.4638 20.7191 19.5199 -18.4638 
20.302 19.8292 -18.4638 28.0941 19.5199 -14.3859 -26.4508 27.312 -15.0156 
-18.6587 27.312 -16.3176 -10.8665 27.312 -16.6551 -3.07441 27.312 -16.0677 
4.71772 27.312 -14.1403 12.5098 27.312 -13.3214 20.302 27.312 -12.1837 
-18.6587 -43.0404 -10.6717 -10.8665 -42.9002 -10.6717 -34.2429 -36.9868 -10.6717 
-20.4196 -42.8171 -10.6717 -26.4508 -41.9203 -10.6717 -18.6587 -42.8171 -10.0591 
-10.3721 -42.8171 -10.6717 -10.8665 -42.8171 -10.4208 -3.07441 -41.5706 -10.6717 
4.71772 -39.2416 -10.6717 12.5098 -36.9547 -10.6717 20.302 -35.6672 -10.6717 
-36.3653 -35.025 -10.6717 23.8261 -35.025 -10.6717 28.0941 -34.1974 -10.6717 
35.8862 -30.615 -10.6717 -41.9524 -27.2329 -10.6717 -42.035 -27.0706 -10.6717 
-42.035 -27.2329 -9.60017 40.7528 -27.2329 -10.6717 43.6783 -24.5415 -10.6717 
-45.5156 -19.4408 -10.6717 48.2779 -19.4408 -10.6717 51.4705 -13.0786 -10.6717 
-47.8072 -11.6486 -10.6717 52.0636 -11.6486 -10.6717 -48.3237 -3.85651 -10.6717 
-49.8272 -3.85651 -3.51432 53.9743 -3.85651 -10.6717 -47.9662 3.93562 -10.6717 
52.4201 3.93562 -10.6717 51.4705 5.36945 -10.6717 -45.732 11.7277 -10.6717 
35.8862 17.7782 -10.6717 45.3757 11.7277 -10.6717 43.6783 13.0375 -10.6717 
51.4705 11.7277 -3.13819 -42.272 19.5199 -10.6717 -42.035 19.849 -10.6717 
-34.2429 27.2416 -10.6717 33.7818 19.5199 -10.6717 28.0941 23.8812 -10.6717 
35.8862 19.5199 -8.74056 -34.1045 27.312 -10.6717 -34.2429 27.312 -10.531 
-26.4508 30.6713 -10.6717 -18.6587 32.3495 -10.6717 -10.8665 33.1492 -10.6717 
-3.07441 32.7109 -10.6717 4.71772 30.9856 -10.6717 12.5098 29.6613 -10.6717 
22.7563 27.312 -10.6717 20.302 28.4964 -10.6717 28.0941 27.312 -5.5261 
-18.6587 35.1041 -6.16522 -10.8665 35.1041 -7.75451 -3.07441 35.1041 -7.20038 
4.71772 35.1041 -4.43711 -34.2429 -35.8055 -2.87958 -26.4508 -39.0373 -2.87958 
-18.6587 -40.0541 -2.87958 -10.8665 -40.1408 -2.87958 -3.07441 -39.473 -2.87958 
4.71772 -38.2357 -2.87958 12.5098 -36.519 -2.87958 20.302 -35.263 -2.87958 
-35.1268 -35.025 -2.87958 -42.035 -27.9047 -2.87958 -34.2429 -35.025 -1.63652 
-26.4508 -35.025 2.9155 -18.6587 -35.025 3.53914 -10.8665 -35.025 4.35302 
4.71772 -35.025 4.838 12.5098 -35.025 2.05701 21.1393 -35.025 -2.87958 
20.302 -35.025 -2.04095 28.0941 -32.8474 -2.87958 35.8862 -27.7781 -2.87958 
-42.5375 -27.2329 -2.87958 -42.035 -27.2329 -1.60794 36.5433 -27.2329 -2.87958 
35.8862 -27.2329 -1.95563 43.6783 -20.5897 -2.87958 -46.6016 -19.4408 -2.87958 
44.7732 -19.4408 -2.87958 43.6783 -19.4408 -1.32381 51.4705 -11.7972 -2.87958 
-49.1148 -11.6486 -2.87958 -49.8272 -5.01492 -2.87958 51.5729 -11.6486 -2.87958 
51.4705 -11.6486 -2.65195 -49.9468 -3.85651 -2.87958 -49.8272 -2.574 -2.87958 
-49.8272 -3.85651 -1.83597 55.5743 -3.85651 -2.87958 -49.2194 3.93562 -2.87958 
55.5327 3.93562 -2.87958 -47.2168 11.7277 -2.87958 43.6783 18.4204 -2.87958 
51.5979 11.7277 -2.87958 51.4705 11.8835 -2.87958 -44.0218 19.5199 -2.87958 
-42.035 22.5569 -2.87958 42.0336 19.5199 -2.87958 35.8862 23.4119 -2.87958 
43.6783 19.5199 0.367256 -38.1179 27.312 -2.87958 -34.2429 30.8037 -2.87958 
-26.4508 34.8487 -2.87958 12.5098 34.2658 -2.87958 20.302 32.3625 -2.87958 
30.1548 27.312 -2.87958 28.0941 28.6099 -2.87958 -25.5352 35.1041 -2.87958 
-26.4508 35.1041 -2.07023 -18.6587 36.9082 -2.87958 -10.8665 37.8496 -2.87958 
-3.07441 37.5141 -2.87958 8.65959 35.1041 -2.87958 4.71772 35.9584 -2.87958 
12.5098 35.1041 -0.225046 -3.07441 -35.3034 4.91254 -34.2429 -29.762 4.91254 
-26.4508 -33.2173 4.91254 -18.6587 -33.741 4.91254 -6.14961 -35.025 4.91254 
-10.8665 -34.5471 4.91254 3.91011 -35.025 4.91254 -3.07441 -35.025 5.3451 
4.71772 -34.9928 4.91254 12.5098 -34.0652 4.91254 20.302 -32.8551 4.91254 
28.0941 -29.4588 4.91254 -37.3679 -27.2329 4.91254 -42.035 -22.3777 4.91254 
-34.2429 -27.2329 7.13069 -26.4508 -27.2329 10.5173 -18.6587 -27.2329 11.625 
20.302 -27.2329 12.6672 30.9752 -27.2329 4.91254 28.0941 -27.2329 8.34828 
35.8862 -21.9917 4.91254 -43.8345 -19.4408 4.91254 -42.035 -19.4408 7.37476 
38.4153 -19.4408 4.91254 35.8862 -19.4408 7.44413 43.6783 -14.7007 4.91254 
-47.3797 -11.6486 4.91254 46.7573 -11.6486 4.91254 43.6783 -11.6486 8.0437 
51.4705 -6.26984 4.91254 -49.001 -3.85651 4.91254 53.1069 -3.85651 4.91254 
51.4705 -3.85651 7.1814 -48.8565 3.93562 4.91254 54.3386 3.93562 4.91254 
51.4705 3.93562 10.0866 -47.3441 11.7277 4.91254 52.2131 11.7277 4.91254 
51.4705 12.8632 4.91254 51.4705 11.7277 6.87389 -44.6471 19.5199 4.91254 
-42.035 23.8214 4.91254 35.8862 26.7712 4.91254 45.4084 19.5199 4.91254 
43.6783 20.9092 4.91254 -39.3796 27.312 4.91254 -34.2429 32.819 4.91254 
20.302 34.3753 4.91254 35.0345 27.312 4.91254 28.0941 31.074 4.91254 
-30.6524 35.1041 4.91254 -26.4508 37.2709 4.91254 -18.6587 39.4614 4.91254 
-10.8665 40.5145 4.91254 -3.07441 40.2234 4.91254 4.71772 38.718 4.91254 
17.857 35.1041 4.91254 12.5098 36.6401 4.91254 -10.8665 -27.3016 12.7047 
-3.07441 -29.4516 12.7047 4.71772 -28.927 12.7047 12.5098 -28.1645 12.7047 
-34.2429 -20.7373 12.7047 -26.4508 -24.6139 12.7047 -11.3028 -27.2329 12.7047 
-18.6587 -25.9609 12.7047 -10.8665 -27.2329 12.7679 -3.07441 -27.2329 14.7784 
4.71772 -27.2329 14.1009 20.0371 -27.2329 12.7047 12.5098 -27.2329 13.4855 
20.302 -27.1921 12.7047 28.0941 -22.9376 12.7047 -35.8334 -19.4408 12.7047 
-42.035 -11.8644 12.7047 -34.2429 -19.4408 13.6586 -26.4508 -19.4408 16.5866 
-18.6587 -19.4408 17.7964 -10.8665 -19.4408 18.5985 -3.07441 -19.4408 19.6796 
4.71772 -19.4408 18.4368 12.5098 -19.4408 17.6933 20.302 -19.4408 17.7332 
31.0125 -19.4408 12.7047 28.0941 -19.4408 15.0734 35.8862 -13.4801 12.7047 
-42.1519 -11.6486 12.7047 -42.035 -11.6486 12.8186 -34.2429 -11.6486 18.1077 
20.302 -11.6486 20.0645 28.0941 -11.6486 17.831 37.7757 -11.6486 12.7047 
35.8862 -11.6486 13.8974 43.6783 -6.53672 12.7047 -44.8479 -3.85651 12.7047 
-42.035 -3.85651 15.5783 -34.2429 -3.85651 20.3204 20.302 -3.85651 20.2956 
28.0941 -3.85651 19.9525 35.8862 -3.85651 18.0249 46.1581 -3.85651 12.7047 
43.6783 -3.85651 14.636 -45.8551 3.93562 12.7047 -42.035 3.93562 16.9832 
49.386 3.93562 12.7047 43.6783 3.93562 17.4701 -45.2905 11.7277 12.7047 
-42.035 11.7277 16.8237 48.8652 11.7277 12.7047 43.6783 11.7277 18.0019 
-42.9783 19.5199 12.7047 -42.035 21.2241 12.7047 -42.035 19.5199 14.2139 
35.8862 26.4594 12.7047 44.0504 19.5199 12.7047 43.6783 19.8845 12.7047 
43.6783 19.5199 13.2018 -38.0313 27.312 12.7047 -34.2429 31.3187 12.7047 
-34.2429 27.312 17.3455 20.302 34.9305 12.7047 34.5943 27.312 12.7047 
28.0941 31.2318 12.7047 -28.8648 35.1041 12.7047 -26.4508 36.4733 12.7047 
[...]
POINT_DATA 480
SCALARS ImageScalars float
LOOKUP_TABLE default
0 0 0 0 0 0 0 0 0 
0 0 0 0 0 0 0 0 0 
0 0 0 0 0 0 0 0 0 
0 0 0 0 0 0 0 0 0 
0 0 0 0 0 0 0 0 0 
0 0 0 0 0 0 0 0 0 
0 0 0 0 0 0 0 0 0 
0 0 0 0 0 0 0 0 0 
0 0 0 0 0 0 0 0 0 
0 0 0 0 0 0 0 0 0 
0 0 0 0 0 0 0 0 0 
0 0 0 0 0 0 0 0 0 
0 0 0 0 0 0 0 0 0 
0 0 0 0 0 0 0 0 0 
0 0 0 0 0 0 0 0 0 
0 0 0 0 0 0 0 0 0 
0 0 0 0 0 0 0 0 0 
0 0 0 0 0 0 0 0 0 
0 0 0 0 0 0 0 0 0 
0 0 0 0 0 0 0 0 0 
0 0 0 0 0 0 0 0 0 
0 0 0 0 0 0 0 0 0 
0 0 0 0 0 0 0 0 0 
0 0 0 0 0 0 0 0 0 
0 0 0 0 0 0 0 0 0 
0 0 0 0 0 0 0 0 0 
0 0 0 0 0 0 0 0 0 
0 0 0 0 0 0 0 0 0 
0 0 0 0 0 0 0 0 0 
0 0 0 0 0 0 0 0 0 
0 0 0 0 0 0 0 0 0 
0 0 0 0 0 0 0 0 0 
0 0 0 0 0 0 0 0 0 
0 0 0 0 0 0 0 0 0 
0 0 0 0 0 0 0 0 0 
0 0 0 0 0 0 0 0 0 
0 0 0 0 0 0 0 0 0 
0 0 0 0 0 0 0 0 0 
0 0 0 0 0 0 0 0 0 
0 0 0 0 0 0 0 0 0 
0 0 0 0 0 0 0 0 0 
0 0 0 0 0 0 0 0 0 
0 0 0 0 0 0 0 0 0 
0 0 0 0 0 0 0 0 0 
0 0 0 0 0 0 0 0 0 
0 0 0 0 0 0 0 0 0 
0 0 0 0 0 0 0 0 0 
0 0 0 0 0 0 0 0 0 
0 0 0 0 0 0 0 0 0 
0 0 0 0 0 0 0 0 0 
0 0 0 0 0 0 0 0 0 
0 0 0 0 0 0 0 0 0 
0 0 0 0 0 0 0 0 0 
0 0 0 
NORMALS Normals float
0.343287 0.502321 0.793617 0.172424 0.406823 0.897087 0.000554784 0.396374 0.918089 
-0.166856 0.504079 0.847387 -0.24085 0.638201 0.731226 0.473303 0.252193 0.844028 
0.194858 0.198491 0.960537 0.0870719 0.119786 0.988974 0.0522936 0.0855682 0.994959 
-0.0202062 0.134822 0.990664 -0.102078 0.243616 0.964485 -0.0758177 0.36796 0.926745 
-0.0651006 0.462767 0.884086 -0.135854 0.533014 0.835129 -0.402885 0.668184 0.625471 
0.38101 0.066625 0.922167 0.149305 0.0318506 0.988278 0.0409488 0.00467804 0.99915 
0.0273428 0.0367317 0.998951 0.0231013 0.097206 0.994996 0.00623804 0.161523 0.986849 
0.0180043 0.140785 0.989877 -0.00834954 0.113186 0.993539 -0.0901964 0.1416 0.985806 
-0.281895 0.212506 0.935616 -0.623293 0.35082 0.698879 0.27342 0.0764205 0.958854 
0.127623 0.0107851 0.991764 0.0943281 0.00410543 0.995533 0.148291 0.0908114 0.984765 
0.111862 0.126226 0.985674 -0.0657717 0.150094 0.986481 -0.111216 0.0782109 0.990714 
-0.0480881 -0.114817 0.992222 -0.0457728 -0.0936771 0.99455 -0.212176 -0.0591956 0.975437 
-0.455749 0.0502142 0.888691 0.267277 0.0909172 0.959321 0.0856554 0.0482427 0.995156 
0.12334 0.0192618 0.992178 0.147325 -0.0281996 0.988686 0.0809142 -0.169092 0.982273 
-0.0321603 -0.108456 0.993581 -0.25194 0.041683 0.966845 -0.165946 -0.136331 0.976666 
-0.0363733 -0.21626 0.975658 -0.12734 -0.245597 0.960972 -0.368892 -0.148888 0.91747 
0.253789 -0.0148047 0.967146 0.0521594 0.0127327 0.998558 0.0181173 -0.00508492 0.999823 
-0.0348956 -0.0877412 0.995532 0.0151702 -0.131157 0.991246 0.143811 -0.261277 0.954491 
-0.133938 -0.111204 0.984731 -0.296673 -0.0417706 0.954065 -0.150246 -0.250483 0.956391 
-0.151147 -0.36697 0.917871 0.315918 -0.196154 0.928288 0.0963795 -0.139851 0.985471 
0.0224932 -0.117973 0.992762 0.013443 -0.085205 0.996273 -0.0852096 -0.0528451 0.994961 
-0.0170627 -0.253158 0.967274 -0.0264003 -0.334361 0.942075 -0.311687 -0.161212 0.936409 
0.377989 -0.492679 0.783832 0.131275 -0.411716 0.901808 0.0771472 -0.373505 0.924415 
0.0282018 -0.366979 0.929802 -0.158602 -0.385136 0.909129 -0.13155 -0.440956 0.887836 
-0.0301301 -0.489662 0.871392 -0.233868 -0.446607 0.863625 0.349866 0.532842 0.770502 
0.175637 0.656789 0.733335 0.0622313 0.997306 0.0388452 -0.0449058 0.742621 0.668205 
-0.0910284 0.99578 -0.0116931 -0.215249 0.706791 0.67388 -0.256982 0.687505 0.679188 
0.36742 0.520912 0.770489 0.505677 0.366 0.781239 0.609748 0.69752 0.376395 
-0.235146 0.694698 0.67978 -0.182096 0.668194 0.721358 -0.221512 0.867461 0.445471 
-0.106844 0.691534 0.714399 -0.165115 0.95364 0.251609 -0.182132 0.710992 0.679204 
-0.415442 0.698072 0.583183 0.551429 0.277557 0.786695 -0.444815 0.682483 0.579963 
-0.637292 0.384269 0.667979 0.487134 0.146671 0.860923 0.693524 0.275499 0.665676 
-0.642024 0.364182 0.674668 0.467968 0.103107 0.87771 0.559751 0.114918 0.820654 
-0.548356 0.0825042 0.832165 -0.918216 0.289621 0.270183 0.539559 0.0466079 0.840657 
0.581451 0.0413919 0.812528 -0.482727 -0.11769 0.867827 -0.324971 -0.299804 0.896945 
-0.793281 -0.0215425 0.608474 0.609791 -0.0388518 0.79161 0.613412 -0.0395849 0.78877 
-0.299658 -0.280104 0.912001 -0.196347 -0.381732 0.903177 -0.171236 -0.381686 0.908292 
-0.299391 -0.408569 0.862227 -0.704047 -0.389964 0.593503 0.561242 -0.251749 0.788435 
0.695481 -0.27803 0.662575 -0.345051 -0.267886 0.899542 -0.354939 -0.294681 0.887232 
-0.32367 -0.490452 0.809132 -0.424863 -0.607513 0.671133 0.385788 -0.494673 0.77876 
0.772283 -0.516713 0.369577 0.379755 -0.498315 0.779402 0.169595 -0.535009 0.827649 
0.0655104 -0.529619 0.845702 -0.00256967 -0.555976 0.831194 -0.148803 -0.557218 0.816925 
-0.127413 -0.467441 0.874794 -0.0312824 -0.514204 0.857097 -0.246211 -0.446607 0.860187 
-0.233836 -0.457052 0.858152 -0.473132 -0.492524 0.730456 0.229027 -0.708772 0.667225 
0.0697391 -0.647879 0.758544 -0.0120624 -0.640414 0.767935 -0.130484 -0.654728 0.744517 
-0.129923 -0.630461 0.765271 -0.0905143 -0.71729 0.690871 -0.24943 -0.757441 0.60338 
0.0551509 0.998446 -0.00801334 -0.0922361 0.995206 -0.0325044 0.621836 0.761915 0.181122 
0.113542 0.993525 0.00391263 0.327998 0.942251 0.0676802 0.0547856 0.997464 -0.0454331 
-0.100666 0.994439 -0.0309501 -0.0907263 0.994835 -0.0455289 -0.231239 0.972711 0.0190194 
-0.293758 0.949892 0.106822 -0.219362 0.962285 0.160897 -0.172734 0.970247 0.16966 
0.680105 0.708094 0.189893 -0.226566 0.964925 0.132616 -0.296465 0.950538 0.0926576 
-0.504079 0.863597 0.0102451 0.832068 0.464855 0.302608 0.833234 0.461631 0.304333 
0.839385 0.485065 0.245244 -0.631242 0.775229 -0.0235486 -0.699451 0.714582 -0.0118404 
0.880414 0.31992 0.350031 -0.813792 0.580762 0.0214137 -0.923725 0.344722 0.167029 
0.904634 0.182696 0.385044 -0.932505 0.303924 0.195101 0.915613 0.00735 0.401992 
0.997969 0.00476706 0.0635289 -0.903652 0.0378832 0.42659 0.924166 -0.151864 0.350506 
-0.745954 -0.382828 0.544974 -0.715431 -0.419421 0.558789 0.887461 -0.327612 0.324165 
-0.442598 -0.617302 0.650419 -0.485869 -0.600824 0.634777 -0.433727 -0.635137 0.639126 
-0.746205 -0.611339 0.26352 0.780824 -0.515633 0.352756 0.773995 -0.524629 0.354537 
0.482395 -0.739072 0.470178 -0.473172 -0.618468 0.627379 -0.490084 -0.654756 0.575423 
-0.474992 -0.672274 0.56783 0.478294 -0.740885 0.471513 0.484315 -0.740377 0.466135 
0.257736 -0.799482 0.542587 0.127294 -0.795538 0.592381 0.0218769 -0.792386 0.609628 
-0.106898 -0.771085 0.627695 -0.15112 -0.73957 0.655896 -0.127445 -0.779591 0.613185 
-0.332108 -0.764049 0.553113 -0.259729 -0.790333 0.5549 -0.491138 -0.772265 0.402976 
0.158412 -0.868417 0.469849 0.0337771 -0.849794 0.526032 -0.108255 -0.845472 0.522931 
-0.184398 -0.872614 0.452263 0.538472 0.783548 -0.31 0.223844 0.863473 -0.452005 
0.0631251 0.863986 -0.499543 -0.0353492 0.886437 -0.461498 -0.112173 0.92352 -0.366781 
-0.185993 0.948355 -0.256963 -0.175623 0.969509 -0.170906 -0.215329 0.963123 -0.161332 
0.565832 0.766131 -0.304756 0.797652 0.584571 -0.148419 0.532067 0.764438 -0.36406 
0.171321 0.767672 -0.617519 0.0566056 0.746773 -0.662666 0.0699471 0.772939 -0.630613 
-0.0703764 0.888211 -0.454013 -0.138616 0.93543 -0.325203 -0.233012 0.957365 -0.170758 
-0.218663 0.957826 -0.186428 -0.400911 0.878918 -0.258404 -0.57368 0.729167 -0.373104 
0.811608 0.567579 -0.138372 0.788498 0.582964 -0.196022 -0.580871 0.718586 -0.382392 
-0.584921 0.710386 -0.391433 -0.656805 0.637033 -0.40348 0.920968 0.383551 -0.0685992 
-0.677287 0.623758 -0.390139 -0.643447 0.63292 -0.430568 -0.799136 0.556602 -0.227104 
0.977692 0.208498 -0.0254185 0.999021 0.0345029 0.0277019 -0.801094 0.554628 -0.225024 
-0.797959 0.555736 -0.233278 0.999315 0.00470601 0.0366953 0.999011 -0.0230771 0.038005 
0.999898 0.0139944 -0.00297489 -0.971287 0.234625 -0.0394087 0.985074 -0.165542 0.0471768 
-0.968825 -0.232267 0.0861992 0.943726 -0.316386 0.0963437 -0.559653 -0.741139 0.370812 
-0.750749 -0.610658 0.251936 -0.746435 -0.615637 0.252638 0.868575 -0.476002 0.137842 
0.820223 -0.54955 0.158836 -0.54276 -0.750593 0.376858 -0.493302 -0.773139 0.398634 
-0.586328 -0.771611 0.24665 0.68848 -0.691797 0.217742 0.56245 -0.781262 0.270704 
0.321664 -0.877557 0.355565 -0.207464 -0.904095 0.373592 -0.31251 -0.893366 0.322855 
-0.493076 -0.792649 0.358585 -0.482045 -0.806842 0.341524 0.303468 -0.881844 0.360914 
0.327149 -0.885493 0.329964 0.172309 -0.903067 0.393419 0.0361257 -0.911182 0.410417 
-0.111228 -0.904678 0.411322 -0.199685 -0.898078 0.391896 -0.19017 -0.890614 0.413088 
-0.228968 -0.924177 0.305729 0.0197763 0.848963 -0.528082 0.41861 0.640396 -0.64394 
0.158064 0.725174 -0.670178 0.0599897 0.723834 -0.687361 0.0440683 0.817358 -0.574442 
0.0793845 0.763168 -0.641305 -0.0598714 0.883978 -0.46368 0.0247749 0.84443 -0.535093 
-0.0692598 0.887158 -0.456239 -0.119609 0.896075 -0.427485 -0.243121 0.877494 -0.413397 
-0.480929 0.757957 -0.440692 0.514834 0.618937 -0.59318 0.704913 0.514596 -0.488147 
0.395774 0.624057 -0.673732 0.201732 0.650285 -0.732416 0.101039 0.669763 -0.735669 
-0.197295 0.685197 -0.701127 -0.556748 0.685877 -0.46862 -0.4904 0.689523 -0.532978 
-0.612271 0.575823 -0.541804 0.766675 0.45162 -0.456342 0.695004 0.464737 -0.548624 
-0.586341 0.582165 -0.563284 -0.603655 0.537963 -0.588385 -0.56685 0.604883 -0.559283 
0.890186 0.278926 -0.360235 -0.633858 0.560372 -0.53311 -0.555594 0.576562 -0.599076 
-0.746945 0.43599 -0.501982 0.958618 0.0794637 -0.27338 -0.790173 0.378225 -0.482257 
-0.736884 0.392683 -0.550274 0.977641 -0.103386 -0.18311 -0.943896 -0.0601121 -0.324726 
-0.843906 0.0443215 -0.534657 0.958632 -0.263768 -0.107012 -0.889922 -0.434108 -0.139959 
-0.868494 -0.481169 -0.119145 -0.884038 -0.401722 -0.238948 0.89965 -0.43294 -0.0565063 
0.843238 -0.536506 -0.0333305 -0.547805 -0.822719 0.151797 -0.641291 -0.764964 0.0598024 
-0.60698 -0.791463 0.0718436 0.772124 -0.635434 -0.00695636 0.611404 -0.790588 0.0340061 
-0.325707 -0.933362 0.150829 -0.536944 -0.829939 0.151303 -0.440562 -0.886429 0.141948 
0.487537 -0.870451 0.0679882 0.378066 -0.920543 0.0983154 0.196646 -0.967138 0.161164 
0.0454054 -0.978332 0.202004 -0.112056 -0.968738 0.221338 -0.219569 -0.947385 0.23292 
-0.304281 -0.938438 0.163545 -0.261877 -0.946751 0.187303 0.154997 0.664703 -0.730853 
0.0738878 0.705734 -0.704613 -0.0619134 0.635282 -0.769795 -0.0803499 0.645316 -0.759678 
0.380171 0.552227 -0.741967 0.20084 0.612161 -0.764802 0.151914 0.664148 -0.732004 
0.10501 0.653571 -0.749545 0.154965 0.663409 -0.732034 0.0621814 0.644998 -0.761651 
-0.0697794 0.580683 -0.811134 -0.192794 0.682557 -0.704944 -0.0714428 0.613405 -0.786531 
-0.196885 0.683258 -0.703132 -0.485217 0.544964 -0.683797 0.429149 0.525917 -0.734331 
0.661812 0.342367 -0.666925 0.381642 0.529223 -0.757807 0.214595 0.52947 -0.820738 
0.106273 0.547149 -0.830262 0.103222 0.488082 -0.866672 -0.00639759 0.430883 -0.902385 
-0.118141 0.492213 -0.86242 -0.0371275 0.417779 -0.90779 -0.132749 0.380826 -0.915068 
-0.543173 0.477578 -0.690567 -0.470004 0.42545 -0.773362 -0.517916 0.493066 -0.699034 
0.665539 0.338125 -0.665379 0.661697 0.338435 -0.669043 0.388631 0.352069 -0.851477 
-0.170003 0.145338 -0.974667 -0.34088 0.266318 -0.901596 -0.498393 0.509531 -0.701414 
-0.475908 0.477997 -0.738262 -0.527047 0.492318 -0.692708 0.764063 0.182441 -0.618807 
0.654883 0.202879 -0.727989 0.399338 0.210345 -0.892348 -0.130894 0.180369 -0.974851 
-0.126332 0.262597 -0.9566 -0.290577 0.370243 -0.882318 -0.579105 0.430554 -0.692287 
-0.498824 0.432698 -0.750964 0.841917 0.0203562 -0.539222 0.686611 0.065533 -0.724066 
-0.733981 0.111814 -0.669902 -0.497213 0.182209 -0.84828 0.87569 -0.165851 -0.453497 
0.742811 -0.105253 -0.661175 -0.802265 -0.249573 -0.542295 -0.614906 -0.139512 -0.776161 
0.847575 -0.372911 -0.377562 0.828664 -0.420419 -0.369546 0.817323 -0.358748 -0.450869 
-0.56685 -0.797061 -0.208266 -0.714196 -0.617137 -0.33025 -0.707623 -0.62844 -0.323007 
-0.709199 -0.609449 -0.354414 0.732681 -0.590964 -0.337551 0.631907 -0.701108 -0.330365 
0.61805 -0.539208 -0.572074 -0.353853 -0.925315 -0.136306 -0.539034 -0.820156 -0.191799 
-0.464037 -0.872958 -0.150378 0.485079 -0.825929 -0.287297 0.435345 -0.856681 -0.276716 
0.446054 -0.799684 -0.401922 0.276949 -0.943666 -0.181093 0.097766 -0.989816 -0.103466 
-0.0748559 -0.995133 -0.064082 -0.228985 -0.97131 -0.0642041 -0.350083 -0.927244 -0.132894 
-0.311344 -0.945065 -0.0995823 -0.314436 -0.817853 -0.48192 0.216978 0.357564 -0.908333 
0.0914828 0.448263 -0.889208 0.0695458 0.434065 -0.898193 0.0090819 0.391063 -0.920319 
-0.125102 0.456587 -0.880839 -0.161332 0.284007 -0.945152 0.221458 0.354096 -0.90861 
0.216975 0.354211 -0.909646 0.0889541 0.39816 -0.912993 0.0457817 0.406924 -0.912314 
0.0475299 0.294617 -0.954433 -0.113451 0.37011 -0.922034 -0.170736 0.224972 -0.95929 
-0.173335 0.273455 -0.946138 0.389965 0.211136 -0.896297 0.399142 0.198771 -0.895084 
0.266376 0.225612 -0.937093 0.165503 0.301525 -0.938984 -0.0265728 0.366469 -0.930051 
-0.0566158 0.226733 -0.97231 -0.127768 0.154563 -0.979686 -0.148562 0.188246 -0.970821 
-0.287519 0.243974 -0.92618 -0.131997 0.194048 -0.972071 -0.126511 0.268299 -0.954993 
-0.265633 0.252839 -0.930329 0.471399 0.105012 -0.875646 0.394492 0.113617 -0.911848 
0.29196 0.12901 -0.94769 0.229535 0.13087 -0.964462 -0.0339969 0.15262 -0.9877 
-0.166319 0.189428 -0.967706 -0.0873226 0.147801 -0.985155 -0.151219 0.307648 -0.939407 
-0.156048 0.363999 -0.918234 -0.143468 0.294833 -0.944717 -0.281726 0.237112 -0.929735 
-0.263868 0.242014 -0.933704 0.529209 -0.028424 -0.848015 0.430733 -0.0169107 -0.902321 
0.283044 0.0108572 -0.959045 0.205401 -0.0118738 -0.978606 0.0234158 0.00542552 -0.999711 
-0.080845 0.114769 -0.990097 -0.0160139 0.145496 -0.989229 -0.0479743 0.167422 -0.984717 
-0.166835 0.226833 -0.959538 -0.237263 0.153909 -0.959176 -0.462049 -0.0358682 -0.886129 
-0.377578 0.0294846 -0.925508 0.526592 -0.23764 -0.816228 0.506261 -0.316437 -0.802227 
0.462018 -0.217059 -0.859898 0.305339 -0.137369 -0.942283 0.218682 -0.113358 -0.969189 
0.0903452 -0.0751781 -0.993069 -0.0236678 0.029575 -0.999282 -0.0312621 0.0189462 -0.999332 
-0.0594322 -0.0841369 -0.99468 -0.186602 -0.108111 -0.976469 -0.324686 -0.179208 -0.928689 
-0.548562 -0.348059 -0.76022 -0.545395 -0.380358 -0.746909 -0.534096 -0.332525 -0.777283 
0.480751 -0.444138 -0.756055 0.422105 -0.519331 -0.74305 0.378966 -0.388564 -0.839882 
0.260696 -0.287633 -0.921578 0.161527 -0.242411 -0.956633 0.0157107 -0.194829 -0.980711 
-0.134227 -0.257183 -0.956995 -0.308637 -0.780822 -0.543195 -0.183897 -0.391666 -0.901543 
-0.330465 -0.728311 -0.600296 -0.272875 -0.518921 -0.810099 -0.452741 -0.649858 -0.6105 
-0.441687 -0.661276 -0.606323 -0.437982 -0.638292 -0.633052 0.37266 -0.663544 -0.648717 
0.354489 -0.683797 -0.637777 0.352919 -0.646917 -0.675978 0.167579 -0.788483 -0.591787 
0.170436 -0.61484 -0.770015 -0.0625502 -0.835499 -0.54592 -0.0381478 -0.631934 -0.774083 
-0.303395 -0.788121 -0.535553 -0.244878 -0.799706 -0.548184 -0.223896 -0.695255 -0.683002 

