# vtk DataFile Version 4.2
vtk output
ASCII
DATASET POLYDATA
POINTS 541 float
-4.22989 -6.74948 -17.8499 -18.6258 -35.5412 -12.4424 -11.4278 -35.5412 -13.1001 
-4.22989 -35.5412 -13.6624 2.96805 -35.5412 -13.1254 10.166 -35.5412 -11.9688 
-25.8237 -28.3433 -12.4012 -18.6258 -28.3433 -13.5449 -11.4278 -28.3433 -13.8038 
-4.22989 -28.3433 -14.5749 2.96805 -28.3433 -14.653 10.166 -28.3433 -13.5235 
17.3639 -28.3433 -11.9393 24.5619 -28.3433 -11.0209 -33.0216 -21.1454 -12.7141 
-25.8237 -21.1454 -13.9466 -18.6258 -21.1454 -13.6136 -11.4278 -21.1454 -13.3039 
-4.22989 -21.1454 -14.034 2.96805 -21.1454 -14.712 10.166 -21.1454 -13.9359 
17.3639 -21.1454 -12.7584 24.5619 -21.1454 -12.4569 31.7598 -21.1454 -12.4757 
-40.2196 -13.9474 -12.7415 -33.0216 -13.9474 -14.5995 -25.8237 -13.9474 -14.4553 
-18.6258 -13.9474 -13.5366 -11.4278 -13.9474 -12.2463 -4.22989 -6.80076 -17.8221 
-4.22989 -13.9474 -13.3038 2.96805 -13.9474 -14.8755 10.166 -13.9474 -12.9008 
17.3639 -13.9474 -12.6002 24.5619 -13.9474 -13.2653 31.7598 -13.9474 -13.859 
38.9577 -13.9474 -13.3437 -40.2196 -6.74948 -13.4878 -33.0216 -6.74948 -15.0014 
-25.8237 -6.74948 -14.917 -18.6258 -6.74948 -13.7961 -4.27899 -6.74948 -17.8221 
-11.4278 -6.74948 -12.943 -4.13468 -6.74948 -17.8221 -4.22989 -6.67783 -17.8221 
2.96805 -6.74948 -15.6324 10.166 -6.74948 -11.9547 17.3639 -6.74948 -12.7287 
24.5619 -6.74948 -13.9453 31.7598 -6.74948 -14.5669 38.9577 -6.74948 -14.3996 
46.1557 -6.74948 -13.7948 -40.2196 0.44846 -13.5964 -33.0216 0.44846 -14.9273 
-25.8237 0.44846 -14.852 -18.6258 0.44846 -14.126 -11.4278 0.44846 -14.9025 
-4.22989 0.44846 -13.9041 2.96805 0.44846 -12.5787 10.166 0.44846 -13.0772 
17.3639 0.44846 -12.2409 24.5619 0.44846 -13.7179 31.7598 0.44846 -14.8395 
38.9577 0.44846 -15.0082 46.1557 0.44846 -15.2245 53.3536 0.44846 -12.0913 
-40.2196 7.6464 -13.4166 -33.0216 7.6464 -14.6622 -25.8237 7.6464 -14.6352 
-18.6258 7.6464 -13.8351 -11.4278 7.6464 -15.415 -4.22989 7.6464 -16.2486 
2.96805 7.6464 -13.2413 10.166 7.6464 -10.956 17.3639 7.6464 -12.097 
24.5619 7.6464 -13.6935 31.7598 7.6464 -14.4992 38.9577 7.6464 -14.6615 
46.1557 7.6464 -14.7895 53.3536 7.6464 -12.2775 -47.4175 14.8443 -11.5236 
-40.2196 14.8443 -13.1658 -33.0216 14.8443 -14.117 -25.8237 14.8443 -13.9791 
-18.6258 14.8443 -13.1985 -11.4278 14.8443 -12.9173 -4.22989 14.8443 -13.5737 
2.96805 14.8443 -13.6311 10.166 14.8443 -13.696 17.3639 14.8443 -13.3886 
24.5619 14.8443 -13.6902 31.7598 14.8443 -14.5813 38.9577 14.8443 -13.5929 
46.1557 14.8443 -13.0562 -40.2196 22.0423 -11.9792 -33.0216 22.0423 -13.1377 
-25.8237 22.0423 -14.1811 -18.6258 22.0423 -13.7709 -11.4278 22.0423 -13.8669 
-4.22989 22.0423 -14.5635 2.96805 22.0423 -15.0437 10.166 22.0423 -14.9131 
17.3639 22.0423 -14.1785 24.5619 22.0423 -14.7008 31.7598 22.0423 -12.936 
38.9577 22.0423 -12.9787 -40.2196 29.2402 -11.4235 -33.0216 29.2402 -12.4623 
-25.8237 29.2402 -12.7579 -18.6258 29.2402 -14.168 -11.4278 29.2402 -14.6557 
-4.22989 29.2402 -15.3881 2.96805 29.2402 -15.4795 10.166 29.2402 -14.5948 
17.3639 29.2402 -13.5214 24.5619 29.2402 -12.1801 -33.0216 36.4382 -10.8721 
-25.8237 36.4382 -11.3004 -18.6258 36.4382 -13.6593 -11.4278 36.4382 -14.4936 
-4.22989 36.4382 -15.5931 2.96805 36.4382 -14.2428 10.166 36.4382 -12.2249 
-11.4278 43.6361 -12.1056 -4.22989 43.6361 -12.7293 -25.8237 -42.7392 -5.52113 
-18.6258 -41.0972 -10.6241 -18.6258 -42.7392 -9.63075 -11.4278 -41.5407 -10.6241 
-11.4278 -42.7392 -10.0112 -4.22989 -42.3357 -10.6241 -4.22989 -42.7392 -10.407 
2.96805 -40.6602 -10.6241 2.96805 -42.7392 -9.37279 10.166 -38.1603 -10.6241 
10.166 -42.7392 -7.2687 17.3639 -42.7392 -3.65649 -33.0216 -35.5412 -7.13366 
-24.4216 -35.5412 -10.6241 -25.8237 -34.0124 -10.6241 -25.8237 -35.5412 -10.0631 
14.5944 -35.5412 -10.6241 17.3639 -32.6657 -10.6241 17.3639 -35.5412 -9.59331 
24.5619 -29.5214 -10.6241 24.5619 -35.5412 -7.40451 -40.2196 -28.3433 -5.5892 
-32.2139 -28.3433 -10.6241 -33.0216 -27.6324 -10.6241 -33.0216 -28.3433 -10.3551 
25.7308 -28.3433 -10.6241 31.7598 -24.7144 -10.6241 31.7598 -28.3433 -8.01543 
38.9577 -28.3433 -4.82342 -38.6263 -21.1454 -10.6241 -40.2196 -19.6116 -10.6241 
-40.2196 -21.1454 -9.82303 38.53 -21.1454 -10.6241 38.9577 -20.8432 -10.6241 
38.9577 -21.1454 -10.4506 46.1557 -21.1454 -6.1243 -44.8575 -13.9474 -10.6241 
-47.4175 -13.9474 -8.21781 45.9105 -13.9474 -10.6241 46.1557 -13.6596 -10.6241 
46.1557 -13.9474 -10.4939 53.3536 -13.9474 -4.272 -45.7158 -6.74948 -10.6241 
-47.4175 -6.74948 -9.37732 53.1694 -6.74948 -10.6241 53.3536 -6.46351 -10.6241 
53.3536 -6.74948 -10.5045 -47.0875 0.44846 -10.6241 -47.4175 0.44846 -10.4452 
55.3261 0.44846 -10.6241 -46.6418 7.6464 -10.6241 -47.4175 9.39392 -10.6241 
-47.4175 7.6464 -10.225 55.7873 7.6464 -10.6241 53.3536 14.6014 -10.6241 
60.5516 7.6464 -3.48025 -48.642 14.8443 -10.6241 -47.4175 20.1508 -10.6241 
53.1279 14.8443 -10.6241 46.1557 19.6452 -10.6241 53.3536 14.8443 -10.5336 
-45.664 22.0423 -10.6241 -47.4175 22.0423 -10.1287 31.7598 28.222 -10.6241 
43.6531 22.0423 -10.6241 38.9577 27.1981 -10.6241 46.1557 22.0423 -9.48446 
53.3536 22.0423 -4.67623 -41.5983 29.2402 -10.6241 -47.4175 29.2402 -4.69233 
-40.2196 30.636 -10.6241 17.3639 34.0033 -10.6241 30.3746 29.2402 -10.6241 
24.5619 31.2999 -10.6241 31.7598 29.2402 -10.0379 38.9577 29.2402 -9.08043 
-33.5031 36.4382 -10.6241 -33.0216 36.7643 -10.6241 -25.8237 38.2682 -10.6241 
-18.6258 41.7322 -10.6241 2.96805 42.475 -10.6241 13.8372 36.4382 -10.6241 
10.166 38.8623 -10.6241 17.3639 36.4382 -7.27608 -14.6095 43.6361 -10.6241 
-18.6258 43.6361 -7.47013 -11.4278 45.3595 -10.6241 0.742261 43.6361 -10.6241 
-4.22989 45.6806 -10.6241 2.96805 43.6361 -9.24829 -25.8237 -44.1975 -3.42618 
-18.6258 -47.2544 -3.42618 -11.4278 -48.8682 -3.42618 -4.22989 -49.1196 -3.42618 
2.96805 -48.2784 -3.42618 10.166 -45.9278 -3.42618 17.3639 -42.9062 -3.42618 
-27.8833 -42.7392 -3.42618 -33.0216 -38.5803 -3.42618 17.6617 -42.7392 -3.42618 
24.5619 -38.6773 -3.42618 -36.0035 -35.5412 -3.42618 -40.2196 -30.187 -3.42618 
29.6661 -35.5412 -3.42618 31.7598 -33.9428 -3.42618 38.9577 -29.2144 -3.42618 
-41.6523 -28.3433 -3.42618 40.1519 -28.3433 -3.42618 46.1557 -23.0447 -3.42618 
-46.057 -21.1454 -3.42618 -47.4175 -18.8825 -3.42618 48.0655 -21.1454 -3.42618 
53.3536 -14.6982 -3.42618 -49.9058 -13.9474 -3.42618 53.8573 -13.9474 -3.42618 
53.3536 -13.9474 -0.54478 -52.0382 -6.74948 -3.42618 58.0325 -6.74948 -3.42618 
-53.9615 0.44846 -3.42618 59.6391 0.44846 -3.42618 60.5516 7.41906 -3.42618 
-54.1767 7.6464 -3.42618 60.5516 7.75211 -3.42618 60.5516 7.6464 -3.25141 
-54.0428 14.8443 -3.42618 58.637 14.8443 -3.42618 -52.5041 22.0423 -3.42618 
46.1557 28.5547 -3.42618 54.2848 22.0423 -3.42618 53.3536 23.0647 -3.42618 
53.3536 22.0423 2.43742 -48.4254 29.2402 -3.42618 -47.4175 30.4407 -3.42618 
-40.2196 36.4087 -3.42618 24.5619 34.891 -3.42618 31.7598 33.5662 -3.42618 
44.9283 29.2402 -3.42618 38.9577 31.7644 -3.42618 -40.168 36.4382 -3.42618 
-33.0216 39.5628 -3.42618 -33.0216 36.4382 2.77287 -25.8237 42.9055 -3.42618 
10.166 42.9545 -3.42618 21.0696 36.4382 -3.42618 17.3639 38.1426 -3.42618 
-23.7584 43.6361 -3.42618 -18.6258 45.712 -3.42618 -18.6258 43.6361 -0.816993 
-11.4278 48.0112 -3.42618 -11.4278 43.6361 3.17125 -4.22989 48.6831 -3.42618 
9.01603 43.6361 -3.42618 2.96805 46.8632 -3.42618 -25.8237 -44.744 3.77176 
-18.6258 -48.331 3.77176 -11.4278 -49.5479 3.77176 -4.22989 -49.9068 3.77176 
2.96805 -49.4641 3.77176 10.166 -47.2767 3.77176 17.3639 -44.0366 3.77176 
-28.6751 -42.7392 3.77176 -33.0216 -39.2106 3.77176 -25.8237 -42.7392 7.82709 
-18.6258 -42.7392 10.7651 10.166 -42.7392 10.5326 19.5152 -42.7392 3.77176 
17.3639 -42.7392 6.44291 24.5619 -39.0802 3.77176 -36.4023 -35.5412 3.77176 
-40.2196 -30.5235 3.77176 -33.0216 -35.5412 7.99999 29.4716 -35.5412 3.77176 
24.5619 -35.5412 7.37936 31.7598 -33.5676 3.77176 38.9577 -28.3544 3.77176 
-41.7966 -28.3433 3.77176 -40.2196 -28.3433 6.41184 31.7598 -28.3433 7.68306 
38.9709 -28.3433 3.77176 38.9577 -28.3433 3.78454 46.1557 -21.6949 3.77176 
-45.8297 -21.1454 3.77176 -47.4175 -18.4392 3.77176 -40.2196 -21.1454 9.34116 
38.9577 -21.1454 8.45938 46.6767 -21.1454 3.77176 46.1557 -21.1454 4.32956 
-49.4503 -13.9474 3.77176 -47.4175 -13.9474 7.07352 52.2808 -13.9474 3.77176 
46.1557 -13.9474 8.77291 53.3536 -12.5635 3.77176 -51.7279 -6.74948 3.77176 
-47.4175 -6.74948 9.18051 56.7873 -6.74948 3.77176 53.3536 -6.74948 7.61108 
-54.1621 0.44846 3.77176 58.0834 0.44846 3.77176 53.3536 0.44846 9.59058 
-54.536 7.6464 3.77176 -4.22989 7.6464 10.1284 59.1433 7.6464 3.77176 
53.3536 7.6464 10.5872 -54.6147 14.8443 3.77176 -11.4278 14.8443 10.3219 
-4.22989 14.8443 9.59257 57.7331 14.8443 3.77176 53.3536 21.7779 3.77176 
53.3536 14.8443 8.74239 -52.1926 22.0423 3.77176 -47.4175 22.0423 9.89626 
-18.6258 22.0423 9.99735 -11.4278 22.0423 8.63769 -4.22989 22.0423 10.4857 
53.0541 22.0423 3.77176 46.1557 27.3433 3.77176 46.1557 22.0423 10.5394 
-47.8132 29.2402 3.77176 -47.4175 29.6056 3.77176 -47.4175 29.2402 4.23021 
-40.2196 34.2061 3.77176 -40.2196 29.2402 8.45796 -33.0216 35.7988 3.77176 
-33.0216 29.2402 8.78384 -25.8237 29.2402 9.17269 -18.6258 29.2402 7.98592 
-11.4278 29.2402 7.46062 -4.22989 29.2402 9.92248 24.5619 34.1414 3.77176 
31.7598 32.6043 3.77176 31.7598 29.2402 8.58872 43.3237 29.2402 3.77176 
38.9577 31.5138 3.77176 38.9577 29.2402 7.11472 -31.5782 36.4382 3.77176 
-25.8237 38.4879 3.77176 -25.8237 36.4382 5.49541 -18.6258 37.2181 3.77176 
-18.6258 36.4382 4.20303 -11.4278 42.6075 3.77176 -11.4278 36.4382 6.69803 
-4.22989 36.4382 8.55863 2.96805 36.4382 10.1753 10.166 41.0741 3.77176 
10.166 36.4382 9.17489 18.5208 36.4382 3.77176 17.3639 36.9138 3.77176 
17.3639 36.4382 4.74788 -10.0499 43.6361 3.77176 -4.22989 45.4184 3.77176 
-4.22989 43.6361 5.52029 4.87757 43.6361 3.77176 2.96805 44.3883 3.77176 
2.96805 43.6361 4.70632 -11.4278 -44.423 10.9697 -4.22989 -45.1792 10.9697 
2.96805 -44.7179 10.9697 -25.8237 -39.263 10.9697 -17.8114 -42.7392 10.9697 
[...]
POINT_DATA 541
SCALARS ImageScalars float
LOOKUP_TABLE default
0 0 0 0 0 0 0 0 0 
0 0 0 0 0 0 0 0 0 
0 0 0 0 0 0 0 0 0 
0 0 0 0 0 0 0 0 0 
0 0 0 0 0 0 0 0 0 
0 0 0 0 0 0 0 0 0 
0 0 0 0 0 0 0 0 0 
0 0 0 0 0 0 0 0 0 
0 0 0 0 0 0 0 0 0 
0 0 0 0 0 0 0 0 0 
0 0 0 0 0 0 0 0 0 
0 0 0 0 0 0 0 0 0 
0 0 0 0 0 0 0 0 0 
0 0 0 0 0 0 0 0 0 
0 0 0 0 0 0 0 0 0 
0 0 0 0 0 0 0 0 0 
0 0 0 0 0 0 0 0 0 
0 0 0 0 0 0 0 0 0 
0 0 0 0 0 0 0 0 0 
0 0 0 0 0 0 0 0 0 
0 0 0 0 0 0 0 0 0 
0 0 0 0 0 0 0 0 0 
0 0 0 0 0 0 0 0 0 
0 0 0 0 0 0 0 0 0 
0 0 0 0 0 0 0 0 0 
0 0 0 0 0 0 0 0 0 
0 0 0 0 0 0 0 0 0 
0 0 0 0 0 0 0 0 0 
0 0 0 0 0 0 0 0 0 
0 0 0 0 0 0 0 0 0 
0 0 0 0 0 0 0 0 0 
0 0 0 0 0 0 0 0 0 
0 0 0 0 0 0 0 0 0 
0 0 0 0 0 0 0 0 0 
0 0 0 0 0 0 0 0 0 
0 0 0 0 0 0 0 0 0 
0 0 0 0 0 0 0 0 0 
0 0 0 0 0 0 0 0 0 
0 0 0 0 0 0 0 0 0 
0 0 0 0 0 0 0 0 0 
0 0 0 0 0 0 0 0 0 
0 0 0 0 0 0 0 0 0 
0 0 0 0 0 0 0 0 0 
0 0 0 0 0 0 0 0 0 
0 0 0 0 0 0 0 0 0 
0 0 0 0 0 0 0 0 0 
0 0 0 0 0 0 0 0 0 
0 0 0 0 0 0 0 0 0 
0 0 0 0 0 0 0 0 0 
0 0 0 0 0 0 0 0 0 
0 0 0 0 0 0 0 0 0 
0 0 0 0 0 0 0 0 0 
0 0 0 0 0 0 0 0 0 
0 0 0 0 0 0 0 0 0 
0 0 0 0 0 0 0 0 0 
0 0 0 0 0 0 0 0 0 
0 0 0 0 0 0 0 0 0 
0 0 0 0 0 0 0 0 0 
0 0 0 0 0 0 0 0 0 
0 0 0 0 0 0 0 0 0 
0 
NORMALS Normals float
0.180336 0.101849 0.978318 0.179873 0.237569 0.954571 0.0852248 0.223747 0.970914 
0.00260662 0.246278 0.969196 -0.115798 0.312982 0.942673 -0.220494 0.34639 0.911809 
0.187813 0.234611 0.953774 0.0972225 0.0876282 0.991398 0.0686298 0.0116382 0.997574 
0.0604522 0.0221454 0.997925 -0.072244 0.103151 0.992039 -0.18038 0.13264 0.974613 
-0.173739 0.197801 0.964723 -0.231802 0.270809 0.934307 0.234141 0.248977 0.939781 
0.0594703 0.142587 0.987994 -0.0436472 -0.000535291 0.999047 0.0294943 -0.102465 0.994299 
0.0984886 -0.0793599 0.991969 -0.00385807 0.0153602 0.999875 -0.138584 -0.0384923 0.989602 
-0.0965153 0.0426055 0.994419 -0.0204537 0.164376 0.986186 -0.107675 0.321158 0.940884 
0.332564 0.204666 0.920605 0.119712 0.155868 0.980497 -0.0703788 0.0659126 0.99534 
-0.145829 0.0127173 0.989228 -0.0253576 -0.0356481 0.999043 0.181102 0.10354 0.977999 
0.201208 0.116483 0.972598 -0.0334463 0.0624328 0.997489 -0.161938 -0.122564 0.97916 
0.0253566 -0.00206968 0.999676 0.0867677 0.0975964 0.991436 0.000606304 0.160413 0.98705 
-0.188023 0.22704 0.955563 0.319142 0.0587766 0.945882 0.0926881 0.0199274 0.995496 
-0.0849465 0.0279656 0.995993 -0.129454 0.041277 0.990726 0.182388 0.102695 0.977849 
0.121543 0.187573 0.974702 0.172933 0.0997594 0.979868 0.178737 0.0997271 0.97883 
-0.292737 -0.0918257 0.951774 -0.21444 -0.0352852 0.9761 0.124731 -0.0226273 0.991933 
0.129789 0.0304253 0.991075 0.0296723 0.0660557 0.997375 -0.0458712 0.124312 0.991182 
-0.27548 0.292001 0.915885 0.268628 -0.00477837 0.963232 0.0836446 -0.0247441 0.996188 
-0.0559774 -0.0196487 0.998239 -0.00405455 0.00339283 0.999986 0.00609465 0.149899 0.988682 
-0.17553 0.0014966 0.984473 -0.0782241 -0.236461 0.968487 -0.0475787 -0.0605553 0.99703 
0.0837894 -0.0458375 0.995429 0.172186 -0.0167555 0.984922 0.0886622 -0.00468333 0.996051 
0.024384 0.0174695 0.99955 -0.225461 0.0537065 0.972771 -0.524983 0.111723 0.843748 
0.270153 -0.0304934 0.962335 0.0792696 -0.0544019 0.995368 -0.0552334 -0.0604517 0.996642 
0.0213515 -0.0670936 0.997518 0.182033 -0.169836 0.968514 -0.181084 -0.0820386 0.98004 
-0.287959 0.0589445 0.955827 -0.0872917 0.158419 0.983506 0.162635 0.079357 0.98349 
0.164818 -0.00190072 0.986322 0.0669688 -0.0180044 0.997593 0.0189642 -0.0965483 0.995148 
-0.205065 -0.136859 0.969133 -0.463967 -0.108219 0.879218 0.504121 -0.0203445 0.863394 
0.191149 -0.0838867 0.97797 0.0619448 -0.108063 0.992212 -0.0635109 -0.0318286 0.997473 
-0.074434 -0.00273378 0.997222 0.0271068 -0.0566464 0.998026 0.0508535 -0.0847779 0.995101 
0.00849653 0.12498 0.992123 -0.0169194 0.214903 0.976489 -8.22811e-05 0.14531 0.989386 
0.0805803 0.0629692 0.994757 -0.00501946 -0.104949 0.994465 -0.0942473 -0.10377 0.990126 
-0.22389 -0.318354 0.921154 0.240715 -0.153404 0.958396 0.132052 -0.100973 0.986086 
0.0433251 -0.0814516 0.995735 -0.0209933 0.0657248 0.997617 0.0545871 0.116965 0.991635 
0.0809868 0.122405 0.98917 0.0242452 0.127147 0.991587 -0.0598532 0.0620417 0.996277 
-0.0185244 0.0134101 0.999738 -0.0804827 -0.100743 0.991652 -0.106705 -0.254647 0.961129 
-0.208883 -0.268029 0.940494 0.359842 -0.328296 0.873347 0.120764 -0.198363 0.97266 
0.10749 -0.16696 0.980087 0.1308 -0.0150243 0.991295 0.0824594 0.0454967 0.995555 
0.0556536 0.0707927 0.995937 -0.0545759 -0.0451793 0.997487 -0.129489 -0.168734 0.977119 
-0.174509 -0.311766 0.933996 -0.202544 -0.513494 0.833846 0.316096 -0.530301 0.786679 
0.279761 -0.296995 0.912977 0.176308 -0.272712 0.945803 0.148227 -0.139112 0.97912 
-0.0139947 -0.132507 0.991083 -0.215796 -0.349063 0.911914 -0.342468 -0.483429 0.805613 
0.228782 -0.562491 0.794521 -0.151216 -0.600851 0.784928 0.489527 0.723159 0.487242 
0.194487 0.492132 0.848517 0.208444 0.602926 0.770085 0.0358522 0.483674 0.874513 
0.0395442 0.55825 0.82873 -0.032776 0.533542 0.845138 -0.0349847 0.558012 0.829095 
-0.143444 0.489401 0.860181 -0.169587 0.596815 0.784252 -0.232067 0.454616 0.859924 
-0.287895 0.700061 0.653476 -0.435077 0.799463 0.414205 0.555653 0.569395 0.605838 
0.283538 0.334841 0.898603 0.283008 0.334321 0.898964 0.318071 0.379471 0.868811 
-0.23577 0.387153 0.891361 -0.214629 0.323382 0.921607 -0.263527 0.442729 0.857056 
-0.249892 0.315412 0.915461 -0.3874 0.647052 0.656692 0.706844 0.554473 0.439239 
0.319206 0.311996 0.894855 0.326618 0.314344 0.891352 0.346886 0.329609 0.878082 
-0.243154 0.313131 0.918055 -0.18866 0.442258 0.876821 -0.331227 0.619463 0.711726 
-0.528515 0.774785 0.346958 0.414331 0.338093 0.844999 0.434176 0.332084 0.837384 
0.501691 0.384046 0.775123 -0.307916 0.445951 0.840426 -0.316003 0.443411 0.838766 
-0.326376 0.458679 0.826494 -0.624169 0.656358 0.423801 0.551766 0.236552 0.799749 
0.765259 0.289447 0.574977 -0.438689 0.338606 0.832405 -0.439979 0.339267 0.831454 
-0.451442 0.346903 0.822106 -0.800482 0.544852 0.249729 0.56162 0.0709487 0.824348 
0.682898 0.105945 0.72279 -0.561031 0.340098 0.754704 -0.567309 0.332647 0.75333 
-0.573618 0.34291 0.743891 0.535635 0.0363069 0.843669 0.555641 0.0402936 0.830445 
-0.639364 0.135031 0.756955 0.49604 0.0731759 0.865211 0.523327 0.0620716 0.849868 
0.53686 0.0780823 0.84005 -0.603035 -0.10832 0.790327 -0.480415 -0.324878 0.81465 
-0.977814 -0.076145 0.195146 0.575942 -0.0242142 0.817132 0.488067 -0.233176 0.841082 
-0.47229 -0.331579 0.816699 -0.311658 -0.375859 0.872696 -0.484459 -0.333196 0.808876 
0.422133 -0.275355 0.863703 0.489293 -0.311465 0.814605 -0.171181 -0.534226 0.827828 
-0.325078 -0.363497 0.873038 -0.247948 -0.529309 0.81139 -0.401853 -0.463892 0.789505 
-0.692218 -0.657578 0.297366 0.434119 -0.37661 0.818356 0.706163 -0.615048 0.350785 
0.414287 -0.409999 0.812568 -0.323605 -0.604591 0.727839 -0.187499 -0.574398 0.796813 
-0.240628 -0.643841 0.726338 -0.183955 -0.620787 0.762092 -0.27207 -0.704798 0.655162 
0.336588 -0.548192 0.765633 0.32946 -0.556104 0.763024 0.310955 -0.412768 0.856113 
0.220532 -0.625673 0.748264 -0.310928 -0.577253 0.755051 -0.37425 -0.620212 0.689401 
-0.400702 -0.607101 0.686197 -0.418108 -0.818999 0.392972 0.227053 -0.662951 0.713402 
0.32953 -0.880951 0.33961 0.215998 -0.662575 0.717175 -0.276824 -0.631564 0.724221 
-0.132669 -0.716818 0.684523 -0.360093 -0.700041 0.616666 0.490753 0.800926 0.343044 
0.303589 0.880867 0.36319 0.109829 0.929386 0.352392 -0.03428 0.935383 0.351971 
-0.198753 0.899315 0.389524 -0.333276 0.843773 0.420683 -0.43671 0.805861 0.39984 
0.529604 0.776134 0.342251 0.628224 0.70129 0.336938 -0.43998 0.804779 0.398432 
-0.497315 0.792697 0.352575 0.706668 0.629613 0.322812 0.759877 0.583146 0.287276 
-0.549077 0.776543 0.309023 -0.548681 0.77402 0.315977 -0.556895 0.799025 0.226775 
0.772133 0.571639 0.277561 -0.574233 0.78823 0.221245 -0.670699 0.717086 0.189607 
0.828325 0.505973 0.240559 0.860132 0.461263 0.217739 -0.696574 0.694704 0.179363 
-0.810788 0.556869 0.180332 0.909469 0.362934 0.202843 -0.821138 0.541957 0.17893 
-0.823206 0.564634 -0.0593398 0.928191 0.260546 0.265663 -0.900854 0.38437 0.201798 
0.93876 0.135482 0.316818 -0.969832 0.166458 0.178092 -0.979114 -0.0683122 0.191492 
0.943906 0.00564 0.330167 -0.97815 -0.0801061 0.191847 -0.981155 -0.0760522 0.177625 
0.918806 -0.120896 0.375739 -0.910602 -0.348403 0.222306 0.894932 -0.319964 0.310998 
-0.490025 -0.851263 0.187687 -0.724612 -0.652639 0.221361 -0.701436 -0.678304 0.21884 
-0.675569 -0.678545 -0.288414 0.729733 -0.620113 0.28801 0.700856 -0.661278 0.267416 
0.524804 -0.838311 0.1477 -0.297829 -0.944265 0.140219 -0.228937 -0.958258 0.171257 
-0.456315 -0.87236 0.175401 -0.31172 -0.933549 0.176964 0.524119 -0.839073 0.145792 
0.431447 -0.900147 -0.0599012 0.288587 -0.816523 -0.500008 0.36243 -0.913502 -0.184822 
-0.542522 -0.836767 0.0740952 -0.360941 -0.92492 0.119351 -0.447317 -0.887774 0.108471 
0.373484 -0.907687 -0.19135 0.40102 -0.911698 -0.0893914 0.433409 -0.814156 -0.386402 
0.181409 -0.96759 -0.175673 0.300967 -0.604021 -0.737955 -0.0565526 -0.995449 -0.0767063 
-0.521267 -0.850383 0.0716222 -0.403421 -0.914909 0.0138768 0.513982 0.83861 -0.180432 
0.310819 0.930499 -0.193814 0.0970872 0.976358 -0.193128 -0.0057301 0.986712 -0.16238 
-0.174158 0.975475 -0.134601 -0.349957 0.923615 -0.156412 -0.493419 0.857335 -0.146676 
0.570154 0.800858 -0.183171 0.671448 0.701899 -0.237689 0.47189 0.740081 -0.479165 
0.198099 0.604816 -0.771333 -0.258663 0.637125 -0.726061 -0.526377 0.833437 -0.168253 
-0.497341 0.788213 -0.362453 -0.586502 0.750856 -0.303696 0.748469 0.6106 -0.258771 
0.79997 0.549085 -0.241977 0.635127 0.535319 -0.556818 -0.589746 0.727919 -0.349763 
-0.526709 0.595976 -0.606128 -0.57144 0.726843 -0.380993 -0.590153 0.694728 -0.411185 
0.812392 0.523769 -0.256291 0.759291 0.478785 -0.440728 -0.434918 0.541407 -0.719531 
-0.590245 0.694592 -0.411282 -0.589894 0.694326 -0.412233 -0.64698 0.62966 -0.430054 
0.814799 0.485946 -0.316164 0.845088 0.441991 -0.300782 0.586641 0.315505 -0.745861 
-0.423349 0.478613 -0.769224 -0.653008 0.622295 -0.43166 -0.634615 0.614484 -0.468692 
0.883859 0.3508 -0.309405 0.780362 0.316738 -0.539178 -0.723301 0.530935 -0.441524 
-0.510698 0.407557 -0.757024 -0.750383 0.498733 -0.433809 0.902546 0.29684 -0.311924 
0.68945 0.224088 -0.688798 -0.817299 0.349535 -0.458092 -0.670986 0.328718 -0.664622 
0.949971 0.17581 -0.258159 -0.865085 0.148728 -0.47907 -0.630684 0.148792 -0.761642 
0.972015 0.026297 -0.233443 -0.00388938 -0.146222 -0.989244 -0.880531 -0.0425678 -0.472074 
-0.56339 -0.0649287 -0.823636 0.959102 -0.11864 -0.256996 -0.247994 -0.259163 -0.933453 
0.165411 0.0195177 -0.986032 -0.859486 -0.301459 -0.412804 -0.64858 -0.647468 -0.400163 
-0.603953 -0.307262 -0.735412 0.857275 -0.403253 -0.320105 0.535357 -0.355778 -0.766038 
-0.229819 -0.345924 -0.909681 0.0250903 -0.183199 -0.982756 0.313037 0.028335 -0.949318 
-0.638873 -0.659352 -0.396353 -0.513008 -0.785322 -0.346543 -0.426549 -0.452123 -0.783352 
0.674394 -0.64111 -0.366293 0.659808 -0.653188 -0.371482 0.654171 -0.643022 -0.398225 
0.345738 -0.786074 -0.5124 0.217507 -0.629319 -0.746088 0.238966 -0.785034 -0.571505 
0.0424905 -0.52377 -0.8508 -0.0631626 -0.479836 -0.875082 -0.0991302 -0.343206 -0.934014 
0.114949 -0.126902 -0.985232 0.358219 -0.137316 -0.923484 -0.260373 -0.926648 -0.271164 
-0.175554 -0.92049 -0.349112 -0.202435 -0.756655 -0.621686 -0.435418 -0.831778 -0.34432 
-0.31147 -0.894047 -0.321971 -0.294043 -0.770452 -0.565635 0.21711 -0.761654 -0.610529 
0.115989 -0.655754 -0.746012 0.0327202 -0.564764 -0.824603 0.0666267 -0.500739 -0.86303 
0.0450867 -0.492516 -0.869135 0.303754 -0.529681 -0.791942 0.279175 -0.280138 -0.918468 
0.199996 -0.280713 -0.938723 0.0766563 -0.441751 -0.893857 -0.432187 -0.809688 -0.397013 
-0.204907 -0.689842 -0.694357 -0.36917 -0.883773 -0.287504 -0.394946 -0.870468 -0.293773 
-0.375175 -0.860942 -0.343544 0.258423 -0.592992 -0.762612 0.0683203 -0.768455 -0.636247 
0.112015 -0.638482 -0.761442 -0.311093 -0.822216 -0.476637 -0.252469 -0.830821 -0.49598 
-0.231099 -0.795826 -0.559692 0.1173 0.595877 -0.794463 0.0144335 0.621375 -0.78338 
-0.137296 0.60561 -0.783828 0.384188 0.499082 -0.776735 0.183728 0.586751 -0.788649 
0.192381 0.582444 -0.789778 0.0989386 0.518135 -0.849557 0.0103043 0.501095 -0.865331 
-0.224808 0.596832 -0.770229 -0.106699 0.513432 -0.851471 -0.248609 0.584728 -0.772196 
-0.39643 0.383197 -0.834268 0.445701 0.393048 -0.804279 0.484689 0.345432 -0.803588 
0.331768 0.334893 -0.881916 0.187373 0.266177 -0.945537 0.0959702 0.264706 -0.959542 
0.00974969 0.246862 -0.969001 -0.119023 0.253708 -0.95993 -0.245867 0.249906 -0.936534 
-0.393095 0.343952 -0.852744 -0.371659 0.306716 -0.876239 -0.364841 0.328592 -0.871159 
0.497133 0.319584 -0.806675 0.456953 0.292824 -0.839909 0.210484 0.167942 -0.963064 
0.0831217 0.08757 -0.992684 0.0420764 0.00329971 -0.999109 0.00134084 -0.0548766 -0.998492 
-0.0699212 -0.0342938 -0.996963 -0.166962 0.0665135 -0.983717 -0.26204 0.133482 -0.955781 
-0.352958 0.321348 -0.878724 -0.34239 0.289594 -0.893814 -0.281366 0.380376 -0.880992 
0.457631 0.240619 -0.855965 0.455281 0.260037 -0.851528 0.324372 0.16586 -0.931275 
0.16922 0.0316353 -0.985071 0.0333181 -0.0232768 -0.999174 -0.0502526 -0.111073 -0.992541 
-0.028757 -0.211637 -0.976925 0.00600169 -0.138222 -0.990383 -0.0911042 -0.0307994 -0.995365 
-0.145914 0.0522869 -0.987915 -0.143629 0.188294 -0.971554 -0.289729 0.378575 -0.879055 
-0.246209 0.349206 -0.904122 -0.326951 0.377866 -0.86621 0.477705 0.255144 -0.840654 
0.3871 0.233042 -0.892101 0.210547 0.148861 -0.966183 0.0345099 0.0247847 -0.999097 
-0.0564364 -0.0774381 -0.995399 -0.141419 -0.120071 -0.982641 -0.0274401 -0.0476731 -0.998486 
0.106853 -0.0549277 -0.992756 0.018447 -0.0356945 -0.999192 -0.0339942 0.099912 -0.994415 
-0.0384152 0.199048 -0.979236 -0.12855 0.258586 -0.957397 -0.371647 0.354451 -0.858046 
-0.288738 0.333041 -0.897616 -0.406375 0.284576 -0.86826 0.536519 0.194064 -0.821271 
0.592079 0.16297 -0.789229 0.33619 0.171881 -0.925977 0.112464 0.0856435 -0.989958 
-0.0479441 0.0333002 -0.998295 -0.110099 -0.0513052 -0.992596 -0.0192622 -0.142575 -0.989597 
0.0479746 0.00105184 -0.998848 0.00433628 -0.00704315 -0.999966 0.0653182 -0.040813 -0.997029 
0.0807615 0.0686272 -0.994368 0.00827391 0.133068 -0.991072 -0.103761 0.156804 -0.982164 
-0.224807 0.194613 -0.954771 -0.424036 0.267457 -0.865251 -0.374873 0.251686 -0.892258 
0.605768 0.14604 -0.782124 0.573871 0.14337 -0.806299 0.250389 0.0907317 -0.963884 
0.0606592 0.0583399 -0.996452 -0.101357 0.0242412 -0.994555 -0.231903 -0.0228058 -0.972471 
-0.152922 -0.111956 -0.981876 0.0717489 -0.222779 -0.972225 0.15208 -0.342739 -0.927039 
0.0844211 -0.116994 -0.989538 0.0946555 0.0227094 -0.995251 0.146411 0.0223168 -0.988972 
0.0572693 0.0316074 -0.997858 -0.0690771 0.0531113 -0.996197 -0.194518 0.0785188 -0.977751 
-0.517482 0.139839 -0.844191 -0.355284 0.11412 -0.927766 0.588446 -0.0262964 -0.808109 
0.546584 -0.0342227 -0.836704 0.246462 -0.0494564 -0.96789 0.046442 -0.0322436 -0.9984 
-0.127021 -0.0665879 -0.989662 -0.226143 -0.0837339 -0.970488 -0.124192 -0.139785 -0.982363 
-0.264302 -0.2073 -0.941898 -0.283799 -0.115173 -0.951942 0.152591 -0.131506 -0.979501 
0.363716 -0.0953803 -0.926614 0.183485 0.0694599 -0.980565 0.0896675 0.0354883 -0.995339 
0.0395243 -0.0183919 -0.999049 -0.0569214 -0.0521567 -0.997015 -0.16155 -0.0656792 -0.984676 
-0.52997 -0.0691554 -0.845192 -0.332848 -0.0440422 -0.941951 0.514562 -0.094408 -0.85224 
0.505447 -0.131251 -0.852817 0.503247 -0.0947358 -0.858934 0.249684 -0.169204 -0.953429 
0.0455515 -0.21528 -0.975489 -0.147556 -0.241343 -0.959156 -0.265002 -0.265527 -0.926968 
-0.253785 -0.336545 -0.906825 -0.285419 -0.273592 -0.918523 0.255892 0.0470754 -0.965558 
0.361424 0.0496707 -0.931078 0.217047 0.0233506 -0.975882 0.0562384 -0.00351807 -0.998411 
-0.0288137 -0.0766374 -0.996643 -0.117495 -0.154551 -0.980973 -0.185149 -0.201316 -0.961869 
-0.426833 -0.226805 -0.875427 -0.408585 -0.393616 -0.823483 -0.359527 -0.200432 -0.911355 
0.366961 -0.347157 -0.86303 0.166376 -0.418256 -0.892962 0.173464 -0.349688 -0.920667 
0.0230181 -0.45285 -0.89129 -0.0136404 -0.422357 -0.906327 -0.209765 -0.350765 -0.912668 
-0.147123 -0.401734 -0.903861 -0.18305 -0.341419 -0.921914 0.313915 0.028969 -0.949009 
0.312656 0.00439836 -0.949856 0.155934 -0.0891889 -0.983733 -0.0123779 -0.16681 -0.985911 
-0.118145 -0.272091 -0.954991 -0.205859 -0.571132 -0.794626 -0.190314 -0.35974 -0.913438 
-0.378609 -0.427932 -0.820689 -0.209356 -0.474212 -0.855157 -0.197834 -0.377437 -0.904656 
0.33262 -0.163971 -0.928697 0.144308 -0.367491 -0.918763 0.253326 -0.192878 -0.947958 
-0.102675 -0.563223 -0.819901 0.0242498 -0.328691 -0.944126 -0.217208 -0.633668 -0.742486 
-0.1569 -0.502559 -0.850187 -0.227417 -0.639222 -0.734627 -0.237823 -0.646783 -0.724646 
-0.227726 -0.620198 -0.750663 
