# vtk DataFile Version 4.2
vtk output
ASCII
DATASET POLYDATA
POINTS 502 float
-14.0584 -40.4636 -16.1783 -6.11351 -40.4636 -18.5755 1.83139 -40.4636 -19.9807 
9.77629 -40.4636 -20.2919 17.7212 -40.4636 -18.832 25.6661 -40.4636 -15.4718 
-29.9482 -32.5187 -15.6667 -22.0033 -32.5187 -18.2643 -14.0584 -32.5187 -20.01 
-6.11351 -32.5187 -21.2565 1.83139 -32.5187 -22.3042 9.77629 -32.5187 -22.1617 
17.7212 -32.5187 -21.5355 25.6661 -32.5187 -21.266 33.611 -32.5187 -18.07 
-29.9482 -24.5738 -18.0241 -22.0033 -24.5738 -19.7988 -14.0584 -24.5738 -20.7518 
-6.11351 -24.5738 -21.6885 1.83139 -24.5738 -21.4239 9.77629 -24.5738 -21.6893 
17.7212 -24.5738 -21.7236 25.6661 -24.5738 -22.1938 33.611 -24.5738 -22.1406 
41.5559 -24.5738 -18.6578 -37.8931 -16.6289 -16.9389 -29.9482 -16.6289 -18.8536 
-22.0033 -16.6289 -19.7634 -14.0584 -16.6289 -20.5299 -6.11351 -16.6289 -20.8849 
1.83139 -16.6289 -20.124 9.77629 -16.6289 -19.4871 17.7212 -16.6289 -20.8107 
25.6661 -16.6289 -21.8306 33.611 -16.6289 -22.1353 41.5559 -16.6289 -21.3472 
49.5008 -16.6289 -17.0837 -37.8931 -8.68397 -17.1591 -29.9482 -8.68397 -18.8911 
-22.0033 -8.68397 -19.7964 -14.0584 -8.68397 -21.2987 -6.11351 -8.68397 -22.0705 
1.83139 -8.68397 -21.2973 9.77629 -8.68397 -17.6891 17.7212 -8.68397 -18.9543 
25.6661 -8.68397 -20.9677 33.611 -8.68397 -21.9453 41.5559 -8.68397 -21.7904 
49.5008 -8.68397 -18.6571 -37.8931 -0.739069 -17.1963 -29.9482 -0.739069 -18.8617 
-22.0033 -0.739069 -19.9766 -14.0584 -0.739069 -22.0832 -6.11351 -0.739069 -20.1813 
1.83139 -0.739069 -21.966 9.77629 -0.739069 -18.3258 17.7212 -0.739069 -17.5871 
25.6661 -0.739069 -19.9979 33.611 -0.739069 -21.4676 41.5559 -0.739069 -21.4152 
49.5008 -0.739069 -18.6638 -37.8931 7.20583 -16.7106 -29.9482 7.20583 -17.6442 
-22.0033 7.20583 -18.7831 -14.0584 7.20583 -20.3717 -6.11351 7.20583 -20.1517 
1.83139 7.20583 -21.864 9.77629 7.20583 -18.9241 17.7212 7.20583 -17.9322 
25.6661 7.20583 -19.8816 33.611 7.20583 -21.1217 41.5559 7.20583 -20.9046 
49.5008 7.20583 -18.0154 -29.9482 15.1507 -15.9539 -22.0033 15.1507 -16.8421 
-14.0584 15.1507 -17.5003 -6.11351 15.1507 -19.3725 1.83139 15.1507 -20.502 
9.77629 15.1507 -18.379 17.7212 15.1507 -19.0555 25.6661 15.1507 -20.6962 
33.611 15.1507 -20.6029 41.5559 15.1507 -19.9992 49.5008 15.1507 -15.9907 
-14.0584 23.0956 -15.4972 -6.11351 23.0956 -16.6544 1.83139 23.0956 -17.7615 
9.77629 23.0956 -18.0898 17.7212 23.0956 -19.0773 25.6661 23.0956 -19.8278 
33.611 23.0956 -19.3777 41.5559 23.0956 -17.2202 1.83139 31.0405 -16.3655 
9.77629 31.0405 -17.3281 17.7212 31.0405 -17.6061 25.6661 31.0405 -17.7903 
33.611 31.0405 -15.6101 -14.0584 -41.5008 -15.2039 -6.11351 -44.2883 -15.2039 
1.83139 -45.6659 -15.2039 1.83139 -48.4085 -7.55847 9.77629 -45.8938 -15.2039 
17.7212 -44.1249 -15.2039 25.6661 -40.6574 -15.2039 -29.9482 -33.0856 -15.2039 
-16.7702 -40.4636 -15.2039 -22.0033 -37.6015 -15.2039 -22.0033 -40.4636 -11.9908 
26.0103 -40.4636 -15.2039 33.611 -35.6767 -15.2039 -30.6568 -32.5187 -15.2039 
-37.8931 -32.5187 -8.48698 37.888 -32.5187 -15.2039 41.5559 -29.2534 -15.2039 
-36.6667 -24.5738 -15.2039 -37.8931 -22.8736 -15.2039 -37.8931 -24.5738 -14.5736 
45.5949 -24.5738 -15.2039 49.5008 -19.2829 -15.2039 -41.4614 -16.6289 -15.2039 
-45.838 -16.6289 -11.8349 51.0548 -16.6289 -15.2039 -44.4211 -8.68397 -15.2039 
-45.838 -8.68397 -14.6101 52.7179 -8.68397 -15.2039 -42.6933 -0.739069 -15.2039 
-45.838 -0.739069 -13.7138 53.0662 -0.739069 -15.2039 -41.6402 7.20583 -15.2039 
-45.838 7.20583 -12.9909 -37.8931 12.0028 -15.2039 52.3903 7.20583 -15.2039 
-45.838 15.1507 -9.04768 -33.1931 15.1507 -15.2039 -37.8931 15.1507 -14.0388 
-29.9482 17.8327 -15.2039 -22.0033 22.2148 -15.2039 50.2878 15.1507 -15.2039 
49.5008 16.5179 -15.2039 -37.8931 23.0956 -10.6398 -29.9482 23.0956 -13.7108 
-18.7412 23.0956 -15.2039 -22.0033 23.0956 -15.0092 -14.0584 24.6825 -15.2039 
-6.11351 29.5012 -15.2039 44.1077 23.0956 -15.2039 41.5559 25.891 -15.2039 
-29.9482 31.0405 -10.0656 -22.0033 31.0405 -12.2981 -14.0584 31.0405 -13.9379 
-4.28682 31.0405 -15.2039 -6.11351 31.0405 -14.8521 1.83139 34.7975 -15.2039 
9.77629 37.2113 -15.2039 17.7212 36.6884 -15.2039 25.6661 35.6532 -15.2039 
34.4242 31.0405 -15.2039 33.611 31.5374 -15.2039 -14.0584 38.9854 -10.1016 
-6.11351 38.9854 -11.6979 1.83139 38.9854 -13.6322 9.77629 38.9854 -14.4389 
17.7212 38.9854 -13.9879 25.6661 38.9854 -11.7146 1.83139 -48.497 -7.25897 
-22.0033 -43.0034 -7.25897 -14.0584 -45.6521 -7.25897 0.796252 -48.4085 -7.25897 
-6.11351 -47.7784 -7.25897 3.975 -48.4085 -7.25897 1.83139 -48.4085 -4.37877 
9.77629 -48.1703 -7.25897 17.7212 -46.0406 -7.25897 25.6661 -42.1455 -7.25897 
-37.8931 -33.4272 -7.25897 -27.6596 -40.4636 -7.25897 -29.9482 -39.3437 -7.25897 
28.469 -40.4636 -7.25897 25.6661 -40.4636 -2.05421 33.611 -37.0455 -7.25897 
-38.8251 -32.5187 -7.25897 39.5218 -32.5187 -7.25897 41.5559 -30.7435 -7.25897 
-45.161 -24.5738 -7.25897 -45.838 -23.3808 -7.25897 -45.838 -24.5738 -3.12777 
47.4064 -24.5738 -7.25897 49.5008 -21.624 -7.25897 -49.3336 -16.6289 -7.25897 
52.4907 -16.6289 -7.25897 49.5008 -16.6289 0.298481 -51.7521 -8.68397 -7.25897 
55.2595 -8.68397 -7.25897 -52.5782 -0.739069 -7.25897 -53.7829 -0.739069 -3.14661 
56.1126 -0.739069 -7.25897 -51.0911 7.20583 -7.25897 55.5342 7.20583 -7.25897 
-47.5465 15.1507 -7.25897 -45.838 17.8868 -7.25897 53.0189 15.1507 -7.25897 
49.5008 21.4176 -7.25897 -42.0581 23.0956 -7.25897 -45.838 23.0956 -0.797503 
-37.8931 27.8064 -7.25897 48.3632 23.0956 -7.25897 41.5559 30.8797 -7.25897 
-34.3424 31.0405 -7.25897 -37.8931 31.0405 -3.19415 -29.9482 34.4052 -7.25897 
-22.0033 38.6628 -7.25897 41.3795 31.0405 -7.25897 33.611 37.1775 -7.25897 
-29.9482 38.9854 -0.411984 -21.3977 38.9854 -7.25897 -22.0033 38.9854 -6.89085 
-14.0584 42.0221 -7.25897 -6.11351 44.2814 -7.25897 1.83139 45.8718 -7.25897 
9.77629 46.3278 -7.25897 17.7212 44.9565 -7.25897 30.7079 38.9854 -7.25897 
25.6661 41.8808 -7.25897 -6.11351 46.9303 -3.05315 1.83139 46.9303 -4.96709 
9.77629 46.9303 -5.43044 -22.0033 -43.7447 0.685929 -14.0584 -46.3736 0.685929 
-6.11351 -47.9656 0.685929 1.83139 -48.2486 0.685929 9.77629 -46.9182 0.685929 
17.7212 -44.1406 0.685929 -37.8931 -34.1921 0.685929 -28.7956 -40.4636 0.685929 
-29.9482 -39.8549 0.685929 24.062 -40.4636 0.685929 17.7212 -40.4636 6.99679 
25.6661 -39.4286 0.685929 33.611 -33.5387 0.685929 -39.7153 -32.5187 0.685929 
-45.838 -25.4044 0.685929 -37.8931 -32.5187 5.52904 34.9065 -32.5187 0.685929 
33.611 -32.5187 2.03056 41.5559 -26.2729 0.685929 -46.423 -24.5738 0.685929 
-45.838 -24.5738 2.77189 43.1946 -24.5738 0.685929 41.5559 -24.5738 2.39317 
-50.7391 -16.6289 0.685929 49.3092 -16.6289 0.685929 49.5008 -16.2389 0.685929 
-53.4096 -8.68397 0.685929 -53.7829 -6.35641 0.685929 52.7802 -8.68397 0.685929 
49.5008 -8.68397 4.79378 -54.6837 -0.739069 0.685929 -53.7829 5.08385 0.685929 
-53.7829 -0.739069 4.78117 54.2372 -0.739069 0.685929 49.5008 -0.739069 6.89656 
-53.4572 7.20583 0.685929 53.6372 7.20583 0.685929 49.5008 7.20583 6.43478 
-50.7524 15.1507 0.685929 51.0628 15.1507 0.685929 49.5008 18.2113 0.685929 
49.5008 15.1507 3.04971 -46.5598 23.0956 0.685929 -45.838 24.1354 0.685929 
46.4681 23.0956 0.685929 41.5559 28.625 0.685929 41.5559 23.0956 7.10072 
-40.4465 31.0405 0.685929 -37.8931 33.5652 0.685929 39.4238 31.0405 0.685929 
33.611 36.629 0.685929 -30.8735 38.9854 0.685929 -29.9482 39.5937 0.685929 
-22.0033 43.4462 0.685929 -14.0584 46.3337 0.685929 17.7212 46.5158 0.685929 
30.7526 38.9854 0.685929 25.6661 42.5651 0.685929 -12.0606 46.9303 0.685929 
-14.0584 46.9303 7.10604 -6.11351 48.5435 0.685929 1.83139 48.9056 0.685929 
16.1667 46.9303 0.685929 9.77629 48.5637 0.685929 -22.0033 -41.9914 8.63083 
-14.0584 -44.7557 8.63083 -6.11351 -45.7103 8.63083 1.83139 -45.2259 8.63083 
9.77629 -42.9327 8.63083 -24.9536 -40.4636 8.63083 -29.9482 -37.5988 8.63083 
-22.0033 -40.4636 11.3004 -14.0584 -40.4636 15.3544 -6.11351 -40.4636 15.7146 
1.83139 -40.4636 14.381 15.4421 -40.4636 8.63083 9.77629 -40.4636 11.3662 
17.7212 -39.2097 8.63083 25.6661 -33.7764 8.63083 -36.611 -32.5187 8.63083 
-37.8931 -31.3645 8.63083 -29.9482 -32.5187 15.4785 9.77629 -32.5187 16.3661 
17.7212 -32.5187 14.0414 27.2061 -32.5187 8.63083 25.6661 -32.5187 9.77556 
33.611 -25.9109 8.63083 -44.0404 -24.5738 8.63083 -45.838 -21.9313 8.63083 
-37.8931 -24.5738 16.1422 25.6661 -24.5738 14.1188 34.9058 -24.5738 8.63083 
33.611 -24.5738 9.56037 41.5559 -16.6302 8.63083 -48.9261 -16.6289 8.63083 
-45.838 -16.6289 13.5519 25.6661 -16.6289 15.8976 33.611 -16.6289 12.8017 
41.5569 -16.6289 8.63083 41.5559 -16.6289 8.63157 -51.8647 -8.68397 8.63083 
25.6661 -8.68397 15.9314 33.611 -8.68397 14.2662 45.3256 -8.68397 8.63083 
41.5559 -8.68397 11.3078 -52.8851 -0.739069 8.63083 33.611 -0.739069 15.3001 
47.6295 -0.739069 8.63083 41.5559 -0.739069 12.5808 -52.1736 7.20583 8.63083 
33.611 7.20583 15.6299 47.3347 7.20583 8.63083 41.5559 7.20583 12.5571 
-50.106 15.1507 8.63083 -45.838 15.1507 16.5121 33.611 15.1507 15.2676 
44.4079 15.1507 8.63083 41.5559 20.569 8.63083 41.5559 15.1507 10.8666 
-46.3637 23.0956 8.63083 -45.838 23.9484 8.63083 -45.838 23.0956 9.92949 
40.0989 23.0956 8.63083 33.611 23.0956 13.0326 -40.7497 31.0405 8.63083 
-37.8931 34.0568 8.63083 -37.8931 31.0405 14.4794 25.6661 31.0405 14.7969 
34.3307 31.0405 8.63083 33.611 31.8297 8.63083 33.611 31.0405 9.34894 
-31.9233 38.9854 8.63083 -29.9482 40.3427 8.63083 -29.9482 38.9854 12.4464 
-22.0033 44.4097 8.63083 17.7212 44.5402 8.63083 17.7212 38.9854 15.244 
26.4819 38.9854 8.63083 25.6661 39.656 8.63083 25.6661 38.9854 9.48285 
-14.48 46.9303 8.63083 -14.0584 47.0618 8.63083 -14.0584 46.9303 9.1623 
-6.11351 48.449 8.63083 -6.11351 46.9303 13.4602 1.83139 48.9105 8.63083 
1.83139 46.9303 13.5345 11.7566 46.9303 8.63083 9.77629 47.5982 8.63083 
9.77629 46.9303 9.98432 -22.0033 -35.9123 16.5757 -14.0584 -39.1866 16.5757 
-6.11351 -39.3016 16.5757 1.83139 -36.9198 16.5757 -27.9929 -32.5187 16.5757 
[...]
POINT_DATA 502
SCALARS ImageScalars float
LOOKUP_TABLE default
0 0 0 0 0 0 0 0 0 
0 0 0 0 0 0 0 0 0 
0 0 0 0 0 0 0 0 0 
0 0 0 0 0 0 0 0 0 
0 0 0 0 0 0 0 0 0 
0 0 0 0 0 0 0 0 0 
0 0 0 0 0 0 0 0 0 
0 0 0 0 0 0 0 0 0 
0 0 0 0 0 0 0 0 0 
0 0 0 0 0 0 0 0 0 
0 0 0 0 0 0 0 0 0 
0 0 0 0 0 0 0 0 0 
0 0 0 0 0 0 0 0 0 
0 0 0 0 0 0 0 0 0 
0 0 0 0 0 0 0 0 0 
0 0 0 0 0 0 0 0 0 
0 0 0 0 0 0 0 0 0 
0 0 0 0 0 0 0 0 0 
0 0 0 0 0 0 0 0 0 
0 0 0 0 0 0 0 0 0 
0 0 0 0 0 0 0 0 0 
0 0 0 0 0 0 0 0 0 
0 0 0 0 0 0 0 0 0 
0 0 0 0 0 0 0 0 0 
0 0 0 0 0 0 0 0 0 
0 0 0 0 0 0 0 0 0 
0 0 0 0 0 0 0 0 0 
0 0 0 0 0 0 0 0 0 
0 0 0 0 0 0 0 0 0 
0 0 0 0 0 0 0 0 0 
0 0 0 0 0 0 0 0 0 
0 0 0 0 0 0 0 0 0 
0 0 0 0 0 0 0 0 0 
0 0 0 0 0 0 0 0 0 
0 0 0 0 0 0 0 0 0 
0 0 0 0 0 0 0 0 0 
0 0 0 0 0 0 0 0 0 
0 0 0 0 0 0 0 0 0 
0 0 0 0 0 0 0 0 0 
0 0 0 0 0 0 0 0 0 
0 0 0 0 0 0 0 0 0 
0 0 0 0 0 0 0 0 0 
0 0 0 0 0 0 0 0 0 
0 0 0 0 0 0 0 0 0 
0 0 0 0 0 0 0 0 0 
0 0 0 0 0 0 0 0 0 
0 0 0 0 0 0 0 0 0 
0 0 0 0 0 0 0 0 0 
0 0 0 0 0 0 0 0 0 
0 0 0 0 0 0 0 0 0 
0 0 0 0 0 0 0 0 0 
0 0 0 0 0 0 0 0 0 
0 0 0 0 0 0 0 0 0 
0 0 0 0 0 0 0 0 0 
0 0 0 0 0 0 0 0 0 
0 0 0 0 0 0 0 
NORMALS Normals float
0.274067 0.639285 0.718472 0.224383 0.537079 0.813141 0.0941317 0.463607 0.881027 
-0.0653385 0.486017 0.871504 -0.229124 0.58412 0.778656 -0.44 0.790706 0.425656 
0.421196 0.475682 0.772218 0.236942 0.341676 0.909459 0.171415 0.240977 0.955273 
0.144293 0.166653 0.975401 0.055959 0.076209 0.99552 -0.0482698 0.0744401 0.996057 
-0.0548262 0.156059 0.986225 -0.197956 0.304275 0.931789 -0.441648 0.598766 0.668152 
0.289694 0.164437 0.942888 0.163138 0.0831497 0.983093 0.116969 0.0323569 0.992608 
0.0422803 -0.0249097 0.998795 0.000127535 -0.137356 0.990522 0.0186743 -0.154166 0.987868 
0.031412 -0.039759 0.998715 0.0269739 0.0284564 0.999231 -0.195705 0.219696 0.955737 
-0.53826 0.453472 0.710379 0.349671 0.129125 0.927932 0.175423 0.049772 0.983234 
0.10794 -7.81903e-05 0.994157 0.0702914 0.031694 0.997023 -0.0251214 0.0234238 0.99941 
-0.086217 -0.0205654 0.996064 0.0356126 -0.239953 0.970131 0.14395 -0.17627 0.973759 
0.076702 -0.0743972 0.994275 -0.0307541 -0.0123133 0.999451 -0.25515 0.170664 0.951721 
-0.74383 0.337582 0.576849 0.252193 0.0164989 0.967536 0.160963 0.00065629 0.98696 
0.143884 0.0131243 0.989508 0.146072 0.0990102 0.984307 0.00541454 -0.0298224 0.999541 
-0.264137 0.114782 0.957631 -0.125545 -0.0971344 0.987321 0.190688 -0.191025 0.962885 
0.186238 -0.114812 0.975773 0.0493155 -0.041833 0.997907 -0.169387 0.00563563 0.985534 
-0.610896 0.0785352 0.787806 0.286242 -0.0291141 0.957715 0.168668 -0.076028 0.982736 
0.200612 -0.0608773 0.977777 0.0253866 -0.054816 0.998174 -0.0389293 -0.131321 0.990575 
0.00363272 0.0362775 0.999335 -0.300994 0.085254 0.949808 0.135252 -0.0648585 0.988686 
0.239984 -0.0652533 0.968581 0.0870801 -0.0515766 0.994865 -0.143457 -0.0534907 0.98821 
-0.567396 -0.0348813 0.822706 0.255899 -0.177262 0.950313 0.129078 -0.174503 0.97616 
0.163949 -0.190826 0.967836 0.0835088 -0.280362 0.956255 0.0896709 -0.0439091 0.995003 
-0.026721 -0.086095 0.995929 -0.282591 -0.0224235 0.958978 0.0803957 0.0963973 0.992091 
0.198083 0.0435996 0.979215 0.0635726 -0.0541464 0.996507 -0.162663 -0.0923916 0.982346 
-0.581855 -0.152801 0.798809 0.158307 -0.231087 0.959968 0.0921611 -0.228508 0.96917 
0.138407 -0.290884 0.946694 0.186936 -0.233075 0.954322 -0.0779617 -0.261551 0.962036 
-0.0797763 -0.0438334 0.995849 0.146255 0.0714557 0.986663 0.0980885 -0.00714218 0.995152 
-0.0440277 -0.102919 0.993715 -0.253419 -0.187534 0.949005 -0.691584 -0.348754 0.632521 
0.100486 -0.205207 0.973546 0.136366 -0.248393 0.959013 0.0877273 -0.237416 0.967439 
0.0799988 -0.0676528 0.994497 0.113206 -0.0860101 0.989842 0.0185902 -0.180026 0.983486 
-0.133696 -0.266963 0.954388 -0.451816 -0.488703 0.746346 0.152016 -0.228293 0.961651 
0.075401 -0.211713 0.974419 0.0302152 -0.275479 0.960832 -0.0936839 -0.391857 0.915244 
-0.358733 -0.579592 0.731699 0.283111 0.686906 0.669335 0.225578 0.748315 0.623811 
0.0834892 0.820649 0.565301 0.0232799 0.989542 0.142356 -0.0862923 0.84656 0.525252 
-0.293491 0.805229 0.515237 -0.44435 0.798132 0.406865 0.427024 0.500901 0.752827 
0.301467 0.673359 0.67506 0.328421 0.591084 0.736722 0.359693 0.789928 0.496624 
-0.448864 0.796366 0.405367 -0.519508 0.730627 0.443052 0.439472 0.485609 0.755677 
0.66036 0.656787 0.364081 -0.580285 0.695431 0.423845 -0.630468 0.652162 0.420945 
0.457926 0.316585 0.830709 0.459612 0.292245 0.838659 0.502147 0.351077 0.790312 
-0.69 0.564879 0.452561 -0.786994 0.43394 0.438561 0.475787 0.204916 0.855357 
0.701374 0.317404 0.638224 -0.816684 0.355954 0.454229 0.487402 0.0511378 0.871679 
0.556283 0.0684692 0.828167 -0.809643 0.123698 0.573739 0.421911 -0.0589766 0.904717 
0.545798 -0.0767467 0.834394 -0.770016 -0.0173202 0.637789 0.392143 -0.191209 0.899813 
0.578251 -0.216797 0.786527 0.301326 -0.273648 0.913411 -0.754015 -0.164046 0.636042 
0.647248 -0.431034 0.628713 0.229218 -0.274538 0.933856 0.348318 -0.335758 0.875181 
0.181383 -0.261057 0.94813 0.102265 -0.257684 0.960802 -0.730627 -0.351767 0.585187 
-0.710405 -0.386665 0.58806 0.474424 -0.457082 0.752328 0.240397 -0.330739 0.91259 
0.102616 -0.237582 0.965932 0.104596 -0.261673 0.959472 0.109881 -0.219612 0.96938 
0.141342 -0.263047 0.954373 -0.563428 -0.54484 0.621045 -0.508687 -0.583185 0.63335 
0.374233 -0.531069 0.760207 0.208314 -0.429936 0.878499 0.151021 -0.299857 0.941955 
0.145883 -0.261775 0.95404 0.143153 -0.272088 0.951565 0.15528 -0.331916 0.930441 
0.03361 -0.41745 0.908078 -0.0511381 -0.4762 0.877849 -0.191482 -0.575674 0.794943 
-0.385373 -0.594894 0.7054 -0.371597 -0.594133 0.713387 0.23874 -0.579894 0.778926 
0.192412 -0.524955 0.829096 0.151207 -0.481116 0.863518 0.0204575 -0.492829 0.869886 
-0.108258 -0.592338 0.798383 -0.325318 -0.766169 0.554214 0.0218802 0.991234 0.130296 
0.349471 0.898614 0.265261 0.271654 0.931032 0.243689 0.0414082 0.989966 0.135103 
0.17499 0.969501 0.171599 -0.0238957 0.993956 0.10715 -0.00853985 0.9997 0.022975 
-0.147281 0.988156 0.0430883 -0.349596 0.936899 -0.00180803 -0.488065 0.870833 -0.0586817 
0.661305 0.691025 0.291822 0.434933 0.861665 0.261472 0.481103 0.833808 0.270748 
-0.523158 0.849455 -0.0687976 -0.504919 0.8207 -0.26741 -0.593018 0.799837 -0.0926824 
0.679247 0.671109 0.297045 -0.650673 0.752127 -0.104543 -0.676107 0.728688 -0.10906 
0.789299 0.498192 0.358903 0.802059 0.475346 0.36159 0.831437 0.537746 0.139795 
-0.77932 0.621062 -0.0833206 -0.826859 0.556507 -0.0812634 0.853167 0.344953 0.391297 
-0.890969 0.447413 -0.0774361 -0.772223 0.425839 -0.471522 0.887447 0.177261 0.42546 
-0.977391 0.211367 0.0055469 0.873986 -0.0387692 0.484403 0.974918 -0.0178761 0.221845 
-0.998712 0.016857 0.047854 0.834254 -0.248483 0.492216 -0.980587 -0.188554 0.0538275 
0.722616 -0.427876 0.542907 0.684 -0.464509 0.562473 -0.916127 -0.39911 0.037707 
-0.833005 -0.550052 0.0595431 0.618574 -0.501749 0.60466 0.801617 -0.540426 0.255635 
0.547397 -0.557186 0.62442 -0.803976 -0.590256 0.0722508 -0.683677 -0.725486 0.0790973 
0.491283 -0.593625 0.637378 0.621953 -0.657155 0.425819 0.415607 -0.646015 0.640262 
0.342528 -0.670098 0.658516 -0.679757 -0.728862 0.0818011 -0.554048 -0.808114 0.199956 
0.495791 -0.808829 0.316206 0.340132 -0.673897 0.655876 0.349992 -0.686581 0.637269 
0.26193 -0.718136 0.644728 0.195066 -0.742964 0.640276 0.0976317 -0.842859 0.529204 
-0.0535369 -0.876791 0.477883 -0.245699 -0.874878 0.417398 -0.506363 -0.828753 0.238253 
-0.413388 -0.858598 0.303183 0.181297 -0.902323 0.391083 0.062702 -0.913676 0.401578 
-0.0794915 -0.925499 0.370315 0.368653 0.927872 -0.0561156 0.252205 0.966285 -0.0518264 
0.113428 0.986741 -0.116085 -0.063233 0.98278 -0.173626 -0.227687 0.932407 -0.280669 
-0.400718 0.848348 -0.346022 0.649337 0.754805 -0.0929064 0.474293 0.876401 -0.0834731 
0.495514 0.864065 -0.0886375 -0.487318 0.787318 -0.377693 -0.412611 0.732761 -0.541122 
-0.505251 0.770118 -0.38941 -0.563019 0.699648 -0.439889 0.688431 0.720069 -0.0869707 
0.822982 0.565384 -0.0551533 0.645355 0.717061 -0.263325 -0.573355 0.688121 -0.444695 
-0.56214 0.675112 -0.477726 -0.632071 0.601238 -0.488874 0.832579 0.551455 -0.0520432 
0.819194 0.557788 -0.133392 -0.6507 0.578453 -0.491916 -0.622266 0.563972 -0.542882 
0.922049 0.38625 -0.0252252 -0.761398 0.423488 -0.490848 -0.766172 0.414885 -0.490765 
0.972391 0.233359 -0.000110198 0.98595 0.167038 0.00106809 -0.837444 0.261463 -0.479922 
-0.730808 0.256607 -0.632513 0.999982 0.00238623 0.00548397 0.985052 -0.167967 0.0382186 
0.985678 0.00844384 -0.168428 -0.896706 0.0441419 -0.44042 -0.721302 0.0681386 -0.689261 
0.972212 -0.228587 0.0505137 -0.891982 -0.18344 -0.41318 -0.740205 -0.145976 -0.656345 
0.9184 -0.378373 0.115652 -0.842046 -0.363978 -0.398093 -0.816494 -0.423109 -0.392832 
-0.796718 -0.354058 -0.489779 0.823287 -0.538218 0.180331 0.810956 -0.554901 0.185565 
-0.757712 -0.538438 -0.368724 -0.70969 -0.615713 -0.3424 -0.658565 -0.460892 -0.59487 
0.703235 -0.674599 0.224448 0.654589 -0.718193 0.236034 -0.7005 -0.644232 -0.307025 
-0.634226 -0.73942 -0.225867 0.520055 -0.811713 0.265826 0.502307 -0.821492 0.269887 
0.367907 -0.887351 0.277944 0.293777 -0.922106 0.251825 -0.337665 -0.941085 -0.0184678 
-0.595735 -0.784055 -0.174235 -0.520452 -0.847205 -0.106641 0.261774 -0.935704 0.2365 
0.249823 -0.96815 -0.016545 0.157831 -0.967352 0.19829 0.00142183 -0.987037 0.160485 
-0.297654 -0.954674 -0.000473795 -0.142538 -0.987782 0.0630116 0.385765 0.854608 -0.347607 
0.210658 0.910571 -0.355645 0.0323784 0.902925 -0.428577 -0.152105 0.851069 -0.502539 
-0.292688 0.755609 -0.585994 0.431707 0.829698 -0.353879 0.506306 0.776535 -0.37503 
0.379889 0.803612 -0.45814 0.14868 0.718478 -0.679473 -0.0449595 0.661511 -0.748586 
-0.205125 0.620546 -0.756867 -0.374838 0.711221 -0.594695 -0.296664 0.660967 -0.689285 
-0.402912 0.687667 -0.603967 -0.489971 0.602743 -0.629785 0.60912 0.696574 -0.379154 
0.629409 0.677227 -0.381062 0.441642 0.601828 -0.665398 -0.239585 0.378239 -0.894167 
-0.332616 0.460819 -0.822808 -0.502232 0.583666 -0.638041 -0.483778 0.567561 -0.666208 
-0.530629 0.481291 -0.697705 0.740548 0.555506 -0.378155 0.780086 0.505474 -0.36873 
0.533106 0.487871 -0.691217 -0.391437 0.307918 -0.867158 -0.533922 0.465237 -0.706032 
-0.519002 0.445911 -0.729246 -0.542996 0.364781 -0.756367 0.841478 0.402607 -0.360308 
0.736427 0.393897 -0.550019 -0.319223 0.0983436 -0.942563 -0.396875 0.244065 -0.884829 
-0.543006 0.364761 -0.756369 -0.542978 0.364755 -0.756392 0.909976 0.222648 -0.349817 
-0.215957 0.0423807 -0.975483 -0.258465 0.149172 -0.954434 -0.579796 0.236824 -0.779584 
-0.472865 0.217948 -0.853755 0.939069 0.0158128 -0.343364 -0.232797 0.0819267 -0.969068 
-0.637415 0.0739496 -0.766964 -0.440699 0.0639895 -0.895371 0.937523 -0.160504 -0.308688 
-0.264192 0.00106906 -0.96447 -0.643747 -0.12865 -0.754347 -0.472273 -0.0856399 -0.877282 
0.912245 -0.323366 -0.251482 0.728015 -0.232957 -0.644768 -0.335023 -0.139927 -0.931762 
-0.621264 -0.297126 -0.725084 -0.623673 -0.384413 -0.680631 -0.553361 -0.254375 -0.793148 
0.858451 -0.480012 -0.180697 0.849785 -0.496449 -0.177212 0.849233 -0.473472 -0.233726 
-0.624565 -0.41546 -0.661295 -0.48882 -0.29404 -0.821338 0.742632 -0.650556 -0.158982 
0.691548 -0.707957 -0.143378 0.673304 -0.593672 -0.440699 -0.458287 -0.330082 -0.825238 
-0.63081 -0.52074 -0.575247 -0.625381 -0.534079 -0.568909 -0.618527 -0.508491 -0.59905 
0.564707 -0.817736 -0.111416 0.526897 -0.843606 -0.103484 0.535801 -0.791337 -0.294454 
0.376905 -0.923345 -0.0733187 -0.413562 -0.818676 -0.398417 -0.412833 -0.517769 -0.749323 
-0.581426 -0.664547 -0.469383 -0.572258 -0.677588 -0.461948 -0.572555 -0.650893 -0.498516 
0.243036 -0.966943 -0.0771655 0.236328 -0.968561 -0.0777047 0.235215 -0.966698 -0.100837 
0.11277 -0.981812 -0.152736 0.069335 -0.929526 -0.36218 -0.0518706 -0.980868 -0.187636 
-0.112244 -0.88856 -0.444818 -0.285616 -0.905799 -0.312973 -0.244441 -0.923363 -0.296056 
-0.258555 -0.899486 -0.352243 0.312015 0.601303 -0.735583 0.127718 0.644507 -0.753856 
-0.0607535 0.60317 -0.795296 -0.219812 0.460688 -0.859913 0.393028 0.565705 -0.724919 
0.412869 0.550318 -0.725733 0.260861 0.487497 -0.833245 0.0613816 0.389684 -0.918901 
-0.115877 0.349248 -0.929838 -0.237457 0.371178 -0.897687 -0.229931 0.319732 -0.919186 
-0.236023 0.364474 -0.900806 -0.279778 0.254763 -0.925646 0.511814 0.475594 -0.715442 
0.521266 0.469877 -0.712389 0.319578 0.3709 -0.871953 0.158278 0.253951 -0.954179 
-0.0100256 0.198964 -0.979955 -0.141699 0.192006 -0.97111 -0.213209 0.192379 -0.957879 
-0.202776 0.225439 -0.952921 -0.286436 0.234701 -0.928908 -0.272289 0.22651 -0.935175 
0.611773 0.360957 -0.703878 0.671237 0.250245 -0.697724 0.425568 0.300696 -0.853507 
0.196311 0.195049 -0.960946 0.057823 0.0896794 -0.994291 -0.0116784 0.075989 -0.99704 
-0.118897 0.111504 -0.986626 -0.205123 0.0681088 -0.976364 -0.212351 0.134685 -0.967867 
-0.303147 0.0826724 -0.949351 -0.265181 0.065571 -0.961966 0.681458 0.207586 -0.7018 
0.653742 0.201612 -0.729365 0.332341 0.141637 -0.932464 0.124624 0.071552 -0.989621 
0.0376626 -0.0118589 -0.99922 0.00714895 0.0122362 -0.9999 -0.153996 0.0425659 -0.987154 
-0.1884 -0.0945346 -0.977532 -0.196761 0.0685274 -0.978054 -0.253798 0.0228177 -0.966988 
-0.32653 -0.000559169 -0.945187 -0.173745 0.0763615 -0.981826 0.71044 0.0434656 -0.702415 
0.628883 0.045221 -0.776184 0.295882 0.0448289 -0.954172 0.057824 0.026494 -0.997975 
-0.000369402 -0.00593035 -0.999982 0.0425285 -0.0501624 -0.997835 -0.2282 -0.0094817 -0.973568 
-0.161381 0.0171697 -0.986743 -0.0979664 -0.0455987 -0.994145 -0.312003 0.0122047 -0.950003 
-0.173159 0.0778453 -0.981813 -0.17225 0.077764 -0.981979 0.727739 -0.108042 -0.677291 
0.725599 -0.228822 -0.648958 0.66315 -0.096958 -0.74218 0.304028 -0.04864 -0.95142 
0.0756541 -0.0116692 -0.997066 -0.037892 0.0325838 -0.99875 0.00420174 0.00414876 -0.999983 
-0.0840629 -0.031566 -0.99596 -0.227672 0.0931185 -0.969275 -0.222183 -0.128525 -0.966497 
-0.185872 0.00736525 -0.982546 -0.198436 0.0220983 -0.979865 -0.161121 0.0303231 -0.986469 
0.724863 -0.231598 -0.648795 0.385296 -0.131239 -0.913413 0.129961 -0.0320137 -0.991002 
0.0163012 0.0407217 -0.999038 -0.0229018 0.106371 -0.994063 -0.133245 0.0580636 -0.989381 
-0.273681 0.0673189 -0.959462 -0.204036 0.0348577 -0.978343 -0.136692 0.044947 -0.989593 
-0.22289 -0.0536241 -0.973368 -0.183215 -0.0201094 -0.982867 0.691764 -0.398086 -0.602487 
0.632877 -0.523485 -0.570464 0.502615 -0.323361 -0.801758 0.241636 -0.133811 -0.961097 
0.0998632 -0.0202068 -0.994796 -0.239562 0.0938957 -0.96633 -0.240675 0.101848 -0.965248 
-0.234136 0.00806637 -0.97217 -0.34002 -0.129618 -0.931443 -0.345988 -0.143147 -0.927255 
-0.331047 -0.119743 -0.935986 0.626329 -0.546238 -0.55618 0.519359 -0.669487 -0.531087 
0.414555 -0.399923 -0.817438 0.178743 -0.226953 -0.957363 -0.232031 -0.0927755 -0.968274 
-0.276687 -0.0947866 -0.956274 -0.395322 -0.25166 -0.883396 -0.387674 -0.384676 -0.837695 
-0.344651 -0.195169 -0.918219 0.476263 -0.719297 -0.505752 0.379348 -0.785805 -0.488472 
0.355995 -0.632297 -0.68809 0.197004 -0.846434 -0.494711 0.131211 -0.508427 -0.85105 
0.0238385 -0.842378 -0.53836 -0.0581772 -0.461395 -0.885285 -0.163294 -0.744637 -0.647187 
-0.198326 -0.430101 -0.880727 -0.378495 -0.479149 -0.791933 -0.319325 -0.605093 -0.729311 
-0.322612 -0.432768 -0.841803 0.00256904 0.0686247 -0.997639 -0.128221 0.0664039 -0.98952 
0.0864584 -0.0104579 -0.996201 0.0239647 0.0348767 -0.999104 -0.144835 0.0730422 -0.986756 
-0.125454 0.0687648 -0.989713 0.0655921 -0.148267 -0.98677 0.0632822 -0.149731 -0.986699 
0.0626609 -0.146313 -0.987252 -0.098795 -0.122819 -0.987499 -0.0718493 -0.161219 -0.9843 
-0.0730013 -0.128694 -0.988994 
