# vtk DataFile Version 4.2
vtk output
ASCII
DATASET POLYDATA
POINTS 568 float
-28.7661 -16.5031 -23.1946 -28.7661 -40.1662 -15.7136 -20.8784 -40.1662 -18.0117 
-12.9908 -40.1662 -19.4811 -5.10308 -40.1662 -18.9428 2.78461 -40.1662 -15.741 
-36.6538 -32.2785 -17.9522 -28.7661 -32.2785 -20.4569 -20.8784 -32.2785 -21.1364 
-12.9908 -32.2785 -21.6516 -5.10308 -32.2785 -22.026 2.78461 -32.2785 -20.757 
10.6723 -32.2785 -16.8766 -44.5415 -24.3908 -18.3866 -36.6538 -24.3908 -21.371 
-28.7661 -19.7906 -22.7009 -28.7661 -24.3908 -22.0066 -20.8784 -24.3908 -22.6579 
-12.9908 -24.3908 -21.7731 -5.10308 -24.3908 -21.7244 2.78461 -24.3908 -21.8038 
10.6723 -24.3908 -18.7365 18.56 -24.3908 -16.194 26.4477 -24.3908 -16.0136 
34.3354 -24.3908 -15.4754 42.223 -24.3908 -15.0406 -52.4292 -16.5031 -14.9096 
-44.5415 -16.5031 -20.2146 -32.8462 -16.5031 -22.7009 -36.6538 -16.5031 -22.2712 
-25.6074 -16.5031 -22.7009 -28.7661 -12.9956 -22.7009 -20.8784 -16.5031 -21.9695 
-12.9908 -16.5031 -20.6506 -5.10308 -16.5031 -20.2412 2.78461 -16.5031 -21.0412 
10.6723 -16.5031 -18.2876 18.56 -16.5031 -15.7965 26.4477 -16.5031 -16.7157 
34.3354 -16.5031 -17.042 42.223 -16.5031 -16.5728 50.1107 -16.5031 -15.3031 
-52.4292 -8.61542 -16.9226 -44.5415 -8.61542 -21.0394 -36.6538 -8.61542 -22.3554 
-28.7661 -8.61542 -22.0882 -20.8784 -8.61542 -20.9484 -12.9908 -8.61542 -20.097 
-5.10308 -8.61542 -18.9195 2.78461 -8.61542 -18.983 10.6723 -8.61542 -16.475 
26.4477 -8.61542 -16.1042 34.3354 -8.61542 -17.2225 42.223 -8.61542 -17.4391 
50.1107 -8.61542 -16.2814 -52.4292 -0.727735 -17.8028 -44.5415 -0.727735 -20.7829 
-36.6538 -0.727735 -21.692 -28.7661 -0.727735 -21.0164 -20.8784 -0.727735 -19.373 
-12.9908 -0.727735 -20.2488 -5.10308 -0.727735 -21.2902 2.78461 -0.727735 -15.0502 
10.6723 -0.727735 -17.4218 26.4477 -0.727735 -15.2431 34.3354 -0.727735 -16.2474 
42.223 -0.727735 -16.2643 50.1107 -0.727735 -15.0935 -52.4292 7.15995 -17.327 
-44.5415 7.15995 -20.4331 -36.6538 7.15995 -21.0068 -28.7661 7.15995 -20.6735 
-20.8784 7.15995 -18.5176 -12.9908 7.15995 -18.2877 -5.10308 7.15995 -20.815 
2.78461 7.15995 -17.3371 10.6723 7.15995 -16.3777 34.3354 7.15995 -15.053 
-52.4292 15.0476 -16.2337 -44.5415 15.0476 -20.4204 -36.6538 15.0476 -21.0248 
-28.7661 15.0476 -20.1401 -20.8784 15.0476 -18.3994 -12.9908 15.0476 -17.1211 
-5.10308 15.0476 -17.1639 2.78461 15.0476 -18.0038 10.6723 15.0476 -16.1108 
-44.5415 22.9353 -17.8145 -36.6538 22.9353 -19.0674 -28.7661 22.9353 -19.1542 
-20.8784 22.9353 -17.7459 -12.9908 22.9353 -15.2243 -36.6538 30.823 -15.6149 
-28.7661 30.823 -15.6537 -20.8784 30.823 -15.1003 -28.7661 -40.9879 -14.8132 
-20.8784 -43.7628 -14.8132 -12.9908 -45.295 -14.8132 -12.9908 -48.0539 -7.06952 
-5.10308 -44.288 -14.8132 2.78461 -41.0964 -14.8132 -30.2801 -40.1662 -14.8132 
-36.6538 -35.8127 -14.8132 4.51051 -40.1662 -14.8132 10.6723 -35.8091 -14.8132 
10.6723 -40.1662 -10.0856 -41.2508 -32.2785 -14.8132 -44.5415 -29.4553 -14.8132 
-44.5415 -32.2785 -9.84889 15.9861 -32.2785 -14.8132 18.56 -29.37 -14.8132 
18.56 -32.2785 -13.8084 26.4477 -27.703 -14.8132 26.4477 -32.2785 -12.3984 
34.3354 -25.9116 -14.8132 34.3354 -32.2785 -11.6177 42.223 -24.7924 -14.8132 
42.223 -32.2785 -8.9219 -48.6806 -24.3908 -14.8132 -52.4292 -16.7134 -14.8132 
-52.4292 -24.3908 -7.16252 42.7976 -24.3908 -14.8132 50.1107 -17.451 -14.8132 
50.1107 -24.3908 -10.8111 -52.5199 -16.5031 -14.8132 18.56 -9.56647 -14.8132 
50.8473 -16.5031 -14.8132 57.9984 -16.5031 -7.94617 -54.5669 -8.61542 -14.8132 
17.7878 -8.61542 -14.8132 19.2999 -8.61542 -14.8132 18.56 -8.61542 -14.6791 
52.8772 -8.61542 -14.8132 57.9984 -8.61542 -10.6445 -55.6617 -0.727735 -14.8132 
14.8734 -0.727735 -14.8132 24.4803 -0.727735 -14.8132 18.56 -0.727735 -13.5609 
26.4477 2.24244 -14.8132 42.223 5.5036 -14.8132 50.5763 -0.727735 -14.8132 
50.1107 0.15587 -14.8132 57.9984 -0.727735 -9.85353 -55.2219 7.15995 -14.8132 
13.4212 7.15995 -14.8132 18.56 7.15995 -12.6193 32.3084 7.15995 -14.8132 
26.4477 7.15995 -14.0935 37.3773 7.15995 -14.8132 34.3354 8.19593 -14.8132 
42.223 7.15995 -14.4312 50.1107 7.15995 -12.715 57.9984 7.15995 -8.20114 
-54.1084 15.0476 -14.8132 -52.4292 19.3571 -14.8132 -5.10308 20.2772 -14.8132 
2.78461 21.5473 -14.8132 14.2219 15.0476 -14.8132 10.6723 20.3727 -14.8132 
18.56 15.0476 -13.3167 26.4477 15.0476 -12.9563 34.3354 15.0476 -13.2354 
42.223 15.0476 -12.806 50.1107 15.0476 -10.659 -50.1841 22.9353 -14.8132 
-52.4292 22.9353 -12.9892 -44.5415 30.1037 -14.8132 -10.8196 22.9353 -14.8132 
-12.9908 24.3477 -14.8132 -5.10308 22.9353 -13.8304 2.78461 22.9353 -14.1102 
10.6723 22.9353 -14.2289 18.56 22.9353 -13.3177 26.4477 22.9353 -12.8561 
34.3354 22.9353 -12.2207 42.223 22.9353 -10.7557 50.1107 22.9353 -6.9346 
-42.3485 30.823 -14.8132 -44.5415 30.823 -14.2704 -36.6538 31.972 -14.8132 
-28.7661 32.0274 -14.8132 -19.7555 30.823 -14.8132 -20.8784 31.2558 -14.8132 
-12.9908 30.823 -12.8374 -5.10308 30.823 -11.2063 2.78461 30.823 -10.8216 
10.6723 30.823 -11.1075 18.56 30.823 -11.0896 26.4477 30.823 -10.5219 
34.3354 30.823 -9.31729 -36.6538 38.7107 -8.00809 -28.7661 38.7107 -8.60832 
-20.8784 38.7107 -8.14709 -12.9908 38.7107 -7.27717 -12.9908 -48.0945 -6.92554 
-28.7661 -43.8069 -6.92554 -13.2572 -48.0539 -6.92554 -20.8784 -46.8258 -6.92554 
-12.5239 -48.0539 -6.92554 -12.9908 -48.0539 -6.68657 -5.10308 -47.4003 -6.92554 
2.78461 -45.7265 -6.92554 10.6723 -41.8897 -6.92554 -44.5415 -33.5276 -6.92554 
-35.3903 -40.1662 -6.92554 -36.6538 -39.413 -6.92554 17.2483 -40.1662 -6.92554 
18.56 -39.7935 -6.92554 18.56 -40.1662 -6.0668 26.4477 -38.0778 -6.92554 
26.4477 -40.1662 -2.69168 34.3354 -36.8366 -6.92554 42.223 -34.036 -6.92554 
-45.8945 -32.2785 -6.92554 -52.4292 -24.5279 -6.92554 45.3855 -32.2785 -6.92554 
50.1107 -28.8627 -6.92554 -52.5283 -24.3908 -6.92554 -52.4292 -24.3908 -3.9902 
53.9694 -24.3908 -6.92554 57.9984 -17.787 -6.92554 -56.3749 -16.5031 -6.92554 
58.5964 -16.5031 -6.92554 -58.5447 -8.61542 -6.92554 60.8834 -8.61542 -6.92554 
-59.9546 -0.727735 -6.92554 -60.3169 -0.727735 0.115929 60.7203 -0.727735 -6.92554 
-59.6475 7.15995 -6.92554 59.2195 7.15995 -6.92554 57.9984 10.1858 -6.92554 
-58.8792 15.0476 -6.92554 55.8088 15.0476 -6.92554 57.9984 15.0476 -4.67742 
-56.3331 22.9353 -6.92554 -52.4292 28.5972 -6.92554 42.223 30.0238 -6.92554 
50.1271 22.9353 -6.92554 50.1107 22.9592 -6.92554 57.9984 22.9353 0.157585 
-50.2451 30.823 -6.92554 -44.5415 35.1854 -6.92554 -5.10308 37.9516 -6.92554 
2.78461 37.2617 -6.92554 10.6723 37.4264 -6.92554 18.56 36.9745 -6.92554 
26.4477 36.0126 -6.92554 40.8914 30.823 -6.92554 34.3354 34.3142 -6.92554 
42.223 30.823 -6.25453 50.1107 30.823 -2.34171 -38.0844 38.7107 -6.92554 
-36.6538 39.3231 -6.92554 -28.7661 39.9602 -6.92554 -20.8784 39.819 -6.92554 
-9.94459 38.7107 -6.92554 -12.9908 39.0627 -6.92554 -5.10308 38.7107 -6.34977 
2.78461 38.7107 -5.79142 10.6723 38.7107 -5.85716 18.56 38.7107 -5.22617 
26.4477 38.7107 -4.21101 34.3354 38.7107 -1.74372 -28.7661 -41.8389 0.96215 
-20.8784 -45.1297 0.96215 -12.9908 -46.6362 0.96215 -5.10308 -46.9602 0.96215 
2.78461 -45.8684 0.96215 10.6723 -44.1006 0.96215 18.56 -42.5568 0.96215 
26.4477 -41.5199 0.96215 -44.5415 -32.3885 0.96215 -32.3686 -40.1662 0.96215 
-36.6538 -38.148 0.96215 -28.7661 -40.1662 3.25159 -20.8784 -40.1662 7.10266 
32.5549 -40.1662 0.96215 26.4477 -40.1662 7.13116 34.3354 -39.7505 0.96215 
42.223 -36.2153 0.96215 -44.6661 -32.2785 0.96215 -44.5415 -32.2785 1.14975 
47.5868 -32.2785 0.96215 50.1107 -29.8463 0.96215 -52.244 -24.3908 0.96215 
-52.4292 -24.1092 0.96215 54.3671 -24.3908 0.96215 50.1107 -24.3908 8.75645 
57.9984 -18.0253 0.96215 -56.5448 -16.5031 0.96215 58.9995 -16.5031 0.96215 
57.9984 -16.5031 2.64037 -59.1705 -8.61542 0.96215 -60.3169 -1.00599 0.96215 
61.3388 -8.61542 0.96215 57.9984 -8.61542 8.25499 -60.3588 -0.727735 0.96215 
-60.3169 2.46615 0.96215 -60.3169 -0.727735 1.10232 62.5187 -0.727735 0.96215 
-60.2554 7.15995 0.96215 63.2331 7.15995 0.96215 -59.1745 15.0476 0.96215 
61.579 15.0476 0.96215 -56.4696 22.9353 0.96215 -52.4292 28.8716 0.96215 
58.4265 22.9353 0.96215 57.9984 23.6002 0.96215 57.9984 22.9353 5.35565 
-50.7272 30.823 0.96215 -44.5415 36.1253 0.96215 42.223 37.6322 0.96215 
52.3634 30.823 0.96215 50.1107 32.7808 0.96215 -39.73 38.7107 0.96215 
-36.6538 40.1335 0.96215 -36.6538 38.7107 7.71497 -28.7661 42.865 0.96215 
-20.8784 43.885 0.96215 -12.9908 44.568 0.96215 -5.10308 44.9211 0.96215 
2.78461 44.8595 0.96215 10.6723 44.1755 0.96215 18.56 43.2899 0.96215 
26.4477 42.2469 0.96215 39.5036 38.7107 0.96215 34.3354 40.5383 0.96215 
-5.10308 46.5984 8.62737 2.78461 46.5984 7.66197 -12.9908 -40.256 8.84984 
-5.10308 -41.5522 8.84984 2.78461 -41.6339 8.84984 10.6723 -41.1105 8.84984 
18.56 -40.6387 8.84984 -36.6538 -32.4475 8.84984 -28.7661 -35.2378 8.84984 
-13.4087 -40.1662 8.84984 -20.8784 -38.2009 8.84984 -12.9908 -40.1662 8.9284 
-5.10308 -40.1662 9.96955 2.78461 -40.1662 10.1582 10.6723 -40.1662 9.90182 
22.8193 -40.1662 8.84984 18.56 -40.1662 9.46126 26.4477 -39.6836 8.84984 
34.3354 -37.287 8.84984 42.223 -33.0079 8.84984 -36.9167 -32.2785 8.84984 
-44.5415 -27.1772 8.84984 -36.6538 -32.2785 8.99731 -28.7661 -32.2785 11.2341 
-20.8784 -32.2785 12.4972 -12.9908 -32.2785 13.0772 -5.10308 -32.2785 13.6871 
2.78461 -32.2785 14.3105 10.6723 -32.2785 14.8252 18.56 -32.2785 15.4484 
26.4477 -32.2785 15.7937 34.3354 -32.2785 13.8701 43.1243 -32.2785 8.84984 
42.223 -32.2785 9.62278 -47.4381 -24.3908 8.84984 -52.4292 -17.5349 8.84984 
-44.5415 -24.3908 11.1431 -36.6538 -24.3908 14.0747 -28.7661 -24.3908 15.4264 
-20.8784 -24.3908 15.1376 -12.9908 -24.3908 15.3512 -5.10308 -24.3908 15.4277 
2.78461 -24.3908 16.1386 50.0428 -24.3908 8.84984 42.223 -24.3908 15.1807 
50.1107 -24.3007 8.84984 -53.0432 -16.5031 8.84984 -52.4292 -16.5031 9.50222 
-44.5415 -16.5031 14.6471 -20.8784 -16.5031 16.6954 -12.9908 -16.5031 16.1939 
54.6757 -16.5031 8.84984 50.1107 -16.5031 13.769 -56.0897 -8.61542 8.84984 
[...]
POINT_DATA 568
SCALARS ImageScalars float
LOOKUP_TABLE default
0 0 0 0 0 0 0 0 0 
0 0 0 0 0 0 0 0 0 
0 0 0 0 0 0 0 0 0 
0 0 0 0 0 0 0 0 0 
0 0 0 0 0 0 0 0 0 
0 0 0 0 0 0 0 0 0 
0 0 0 0 0 0 0 0 0 
0 0 0 0 0 0 0 0 0 
0 0 0 0 0 0 0 0 0 
0 0 0 0 0 0 0 0 0 
0 0 0 0 0 0 0 0 0 
0 0 0 0 0 0 0 0 0 
0 0 0 0 0 0 0 0 0 
0 0 0 0 0 0 0 0 0 
0 0 0 0 0 0 0 0 0 
0 0 0 0 0 0 0 0 0 
0 0 0 0 0 0 0 0 0 
0 0 0 0 0 0 0 0 0 
0 0 0 0 0 0 0 0 0 
0 0 0 0 0 0 0 0 0 
0 0 0 0 0 0 0 0 0 
0 0 0 0 0 0 0 0 0 
0 0 0 0 0 0 0 0 0 
0 0 0 0 0 0 0 0 0 
0 0 0 0 0 0 0 0 0 
0 0 0 0 0 0 0 0 0 
0 0 0 0 0 0 0 0 0 
0 0 0 0 0 0 0 0 0 
0 0 0 0 0 0 0 0 0 
0 0 0 0 0 0 0 0 0 
0 0 0 0 0 0 0 0 0 
0 0 0 0 0 0 0 0 0 
0 0 0 0 0 0 0 0 0 
0 0 0 0 0 0 0 0 0 
0 0 0 0 0 0 0 0 0 
0 0 0 0 0 0 0 0 0 
0 0 0 0 0 0 0 0 0 
0 0 0 0 0 0 0 0 0 
0 0 0 0 0 0 0 0 0 
0 0 0 0 0 0 0 0 0 
0 0 0 0 0 0 0 0 0 
0 0 0 0 0 0 0 0 0 
0 0 0 0 0 0 0 0 0 
0 0 0 0 0 0 0 0 0 
0 0 0 0 0 0 0 0 0 
0 0 0 0 0 0 0 0 0 
0 0 0 0 0 0 0 0 0 
0 0 0 0 0 0 0 0 0 
0 0 0 0 0 0 0 0 0 
0 0 0 0 0 0 0 0 0 
0 0 0 0 0 0 0 0 0 
0 0 0 0 0 0 0 0 0 
0 0 0 0 0 0 0 0 0 
0 0 0 0 0 0 0 0 0 
0 0 0 0 0 0 0 0 0 
0 0 0 0 0 0 0 0 0 
0 0 0 0 0 0 0 0 0 
0 0 0 0 0 0 0 0 0 
0 0 0 0 0 0 0 0 0 
0 0 0 0 0 0 0 0 0 
0 0 0 0 0 0 0 0 0 
0 0 0 0 0 0 0 0 0 
0 0 0 0 0 0 0 0 0 
0 
NORMALS Normals float
0.0179693 -0.00435504 -0.999829 -0.352857 -0.721961 -0.595201 -0.201551 -0.580116 -0.789204 
-0.0567318 -0.506676 -0.860268 0.169633 -0.567861 -0.805455 0.370986 -0.664011 -0.649198 
-0.41424 -0.532093 -0.738432 -0.166157 -0.332314 -0.928417 -0.0709695 -0.25186 -0.965158 
-0.0579624 -0.128041 -0.990074 0.0493281 -0.138174 -0.989179 0.29002 -0.274412 -0.916835 
0.41296 -0.339755 -0.845003 -0.507762 -0.377015 -0.774621 -0.204226 -0.228983 -0.951766 
-0.0207927 -0.0736555 -0.997067 -0.0767595 -0.169003 -0.982622 0.0158476 -0.0571236 -0.998241 
0.0576585 0.0628517 -0.996356 -0.00190792 0.114928 -0.993372 0.156976 -0.012582 -0.987522 
0.374738 -0.075735 -0.924032 0.146266 -0.109336 -0.983185 0.0416666 -0.222019 -0.974152 
0.0670776 -0.306823 -0.9494 0.22194 -0.376317 -0.899516 -0.735075 -0.286258 -0.61459 
-0.396026 -0.14936 -0.90601 -0.0818268 -0.0301793 -0.99619 -0.17134 -0.0549105 -0.983681 
0.0747784 0.0403063 -0.996385 0.0491532 0.0585765 -0.997072 0.157452 0.105186 -0.981909 
0.109242 0.105875 -0.988361 -0.0232196 0.17559 -0.984189 0.114585 0.166866 -0.979299 
0.340749 0.114113 -0.933203 0.0877624 0.0957485 -0.991529 -0.0784726 -0.0115678 -0.996849 
0.00773001 -0.102591 -0.994694 0.0959666 -0.152221 -0.983676 0.363444 -0.289858 -0.885376 
-0.663727 -0.149329 -0.732917 -0.294213 -0.0326008 -0.955184 -0.067538 0.0363478 -0.997054 
0.087646 0.135597 -0.98688 0.124242 0.157673 -0.979644 0.126849 0.0285449 -0.991511 
0.0753683 -0.0113298 -0.997091 0.118125 0.321814 -0.939405 0.30171 0.0881122 -0.949319 
-0.158517 0.0894297 -0.983298 -0.0834134 0.049552 -0.995282 0.0706404 0.0206271 -0.997289 
0.32838 0.0151166 -0.944425 -0.567893 -0.0199102 -0.822862 -0.229043 0.041496 -0.972531 
-0.0119007 0.0851682 -0.996296 0.140266 0.0869626 -0.986287 0.0654463 0.149935 -0.986527 
-0.113628 0.100866 -0.98839 0.307371 -0.147291 -0.940122 0.202892 0.113568 -0.972593 
0.192815 0.00849685 -0.981198 -0.168434 0.125547 -0.977685 -0.061647 0.135702 -0.98883 
0.0627923 0.18747 -0.980261 0.347976 0.233246 -0.908025 -0.584917 0.0894523 -0.806146 
-0.208727 0.0211058 -0.977746 -0.0201204 0.0421026 -0.998911 0.14703 0.0573578 -0.987468 
0.141363 0.0616522 -0.988036 -0.145925 0.18944 -0.970988 0.091904 0.239015 -0.966657 
0.257705 -0.163515 -0.952287 0.375463 0.0673143 -0.92439 -0.0194903 0.188867 -0.981809 
-0.595385 0.207965 -0.776059 -0.267941 0.142214 -0.952881 0.0227783 0.119455 -0.992578 
0.162746 0.0885606 -0.982686 0.187497 0.0475393 -0.981114 0.0788644 0.164806 -0.983168 
-0.0567826 0.420477 -0.905525 0.0668891 0.195508 -0.978418 0.303571 0.133138 -0.943461 
-0.313103 0.350753 -0.882575 -0.0729279 0.304967 -0.949567 0.0849097 0.258877 -0.962171 
0.223204 0.200262 -0.953979 0.242862 0.246284 -0.938276 -0.0685974 0.52405 -0.848921 
0.0322883 0.509037 -0.860139 0.152324 0.478944 -0.864528 -0.366592 -0.755566 -0.542891 
-0.235174 -0.762629 -0.60257 -0.023835 -0.815849 -0.577774 -0.0323783 -0.997463 -0.0633983 
0.192071 -0.797721 -0.571621 0.374594 -0.699274 -0.608847 -0.392765 -0.744165 -0.540329 
-0.495673 -0.665363 -0.558211 0.381086 -0.683005 -0.62312 0.407969 -0.510591 -0.756874 
0.349627 -0.799299 -0.488756 -0.547695 -0.625206 -0.55601 -0.591252 -0.579412 -0.560984 
-0.655021 -0.709387 -0.260227 0.286176 -0.3982 -0.871516 0.191262 -0.308342 -0.93185 
0.230791 -0.440381 -0.867641 0.0756055 -0.351165 -0.933256 0.11816 -0.568543 -0.814123 
0.0880906 -0.34234 -0.935438 0.169352 -0.580998 -0.796091 0.223993 -0.391525 -0.892489 
0.354856 -0.728949 -0.585415 -0.679429 -0.451442 -0.578426 -0.737553 -0.291594 -0.609089 
-0.829926 -0.529968 -0.17423 0.239223 -0.382882 -0.892286 0.375632 -0.316948 -0.870887 
0.546687 -0.543792 -0.636729 -0.738284 -0.287067 -0.610352 0.00682386 0.134482 -0.990893 
0.398719 -0.293735 -0.868759 0.873499 -0.340457 -0.347977 -0.75741 -0.163018 -0.632262 
0.0206911 0.139722 -0.989975 -0.018491 0.135164 -0.990651 -0.00499387 0.139739 -0.990176 
0.447128 0.0077145 -0.894437 0.779482 -0.0605372 -0.623492 -0.735399 -0.0358453 -0.676685 
0.0942307 0.0889511 -0.991569 -0.112787 0.128608 -0.985261 0.0395142 0.134583 -0.990114 
-0.164684 0.133083 -0.977327 0.121611 0.199719 -0.972277 0.366263 0.229498 -0.901766 
0.34169 0.242659 -0.907945 0.718065 0.116917 -0.686085 -0.729354 0.0768033 -0.679811 
0.281031 0.0179926 -0.95953 0.0702031 0.0179206 -0.997372 -0.0543171 0.178179 -0.982498 
-0.154894 0.144422 -0.977318 0.0401449 0.195092 -0.979963 -0.0170237 0.185761 -0.982448 
0.135344 0.204565 -0.969451 0.309341 0.262059 -0.91413 0.674547 0.249518 -0.694786 
-0.669064 0.205148 -0.71433 -0.603245 0.323281 -0.729098 0.025466 0.349527 -0.93658 
-0.0129785 0.385973 -0.922419 0.25448 0.0420332 -0.966164 0.132862 0.238613 -0.961983 
0.182383 -0.0452962 -0.982184 0.00400499 0.0735353 -0.997285 0.00716492 0.171272 -0.985198 
0.166109 0.251098 -0.953602 0.364342 0.282593 -0.887353 -0.522859 0.39291 -0.756465 
-0.648397 0.430947 -0.627588 -0.376698 0.555428 -0.741349 0.194633 0.267875 -0.94359 
0.240453 0.269339 -0.932544 0.0678118 0.320829 -0.944706 -0.024139 0.418616 -0.907843 
0.05095 0.288857 -0.956015 0.082542 0.130538 -0.988001 0.0653657 0.134488 -0.988757 
0.145534 0.25172 -0.956795 0.253955 0.311805 -0.915579 0.499211 0.397667 -0.769837 
-0.295172 0.570949 -0.766088 -0.392131 0.59274 -0.703486 -0.0764107 0.575275 -0.814383 
0.030011 0.548079 -0.835888 0.161201 0.46847 -0.868648 0.147972 0.494034 -0.856758 
0.208467 0.409221 -0.888302 0.110113 0.408942 -0.905893 0.00536047 0.446096 -0.894969 
-0.0154794 0.44791 -0.893945 0.032487 0.408348 -0.912248 0.109077 0.412147 -0.904565 
0.201021 0.451951 -0.869098 -0.238757 0.892209 -0.383352 -0.00124895 0.823435 -0.56741 
0.0615631 0.75728 -0.650182 0.0874253 0.693937 -0.714708 -0.0325444 -0.997905 -0.055918 
-0.423229 -0.90479 -0.0472404 -0.0398184 -0.997632 -0.0560712 -0.256618 -0.964531 -0.0618706 
-0.0235794 -0.997915 -0.0600857 -0.0342386 -0.998452 -0.04383 0.129092 -0.982909 -0.131245 
0.324541 -0.922314 -0.209785 0.319265 -0.870371 -0.374865 -0.666035 -0.738353 -0.105983 
-0.514541 -0.854385 -0.072625 -0.532752 -0.842032 -0.0846043 0.219672 -0.846467 -0.485014 
0.20215 -0.833436 -0.514315 0.197234 -0.868029 -0.455659 0.158139 -0.790827 -0.591257 
0.176788 -0.938623 -0.296196 0.217919 -0.823528 -0.52375 0.389663 -0.78684 -0.478588 
-0.689556 -0.715689 -0.11091 -0.829763 -0.53386 -0.162749 0.480221 -0.765833 -0.427653 
0.610589 -0.707344 -0.356153 -0.831619 -0.530782 -0.163342 -0.830938 -0.555853 -0.0238845 
0.736296 -0.589953 -0.331397 0.882019 -0.383035 -0.274457 -0.918086 -0.337335 -0.208143 
0.891177 -0.350936 -0.287485 -0.946914 -0.207172 -0.245831 0.922347 -0.137435 -0.361093 
-0.966736 -0.0656849 -0.247199 -0.994105 -0.0682047 0.0842836 0.846883 0.0870738 -0.524603 
-0.961221 0.0623616 -0.268635 0.726646 0.248439 -0.640518 0.697908 0.261204 -0.666856 
-0.946598 0.198224 -0.254283 0.614152 0.285078 -0.7359 0.778688 0.282662 -0.560131 
-0.867909 0.429984 -0.248692 -0.754614 0.596534 -0.273321 0.306128 0.554929 -0.773524 
0.49963 0.397778 -0.769508 0.499297 0.398174 -0.769519 0.816083 0.517388 -0.257524 
-0.678568 0.681942 -0.272949 -0.489083 0.824669 -0.28411 0.0712291 0.609746 -0.78939 
0.0177524 0.59952 -0.800163 0.0123658 0.621548 -0.783279 0.054713 0.649937 -0.758016 
0.11675 0.637076 -0.761908 0.291587 0.560229 -0.77532 0.208041 0.588377 -0.781365 
0.323118 0.596578 -0.734636 0.583734 0.668915 -0.460226 -0.288435 0.899463 -0.328285 
-0.250131 0.907763 -0.336751 -0.0358005 0.863386 -0.503272 0.0445543 0.788931 -0.612864 
0.0790569 0.67064 -0.737558 0.082775 0.70471 -0.704651 0.0661102 0.640152 -0.765399 
0.0228211 0.652352 -0.757573 0.0233296 0.67702 -0.735595 0.068893 0.74442 -0.664148 
0.140204 0.791455 -0.59493 0.240241 0.855672 -0.458377 -0.371752 -0.838611 0.398162 
-0.261969 -0.879944 0.396322 -0.0973522 -0.918471 0.383319 0.0490118 -0.959504 0.2774 
0.174773 -0.964793 0.196541 0.206352 -0.977288 0.0482424 0.160056 -0.986619 -0.0310623 
0.171719 -0.982844 -0.0673137 -0.615275 -0.738406 0.276031 -0.408131 -0.834917 0.369246 
-0.467337 -0.823793 0.320876 -0.341471 -0.79191 0.506237 -0.233321 -0.67236 0.702491 
0.279023 -0.959246 -0.0446495 0.179518 -0.923344 0.339423 0.310507 -0.949965 -0.0339312 
0.50444 -0.862714 0.0355631 -0.617266 -0.737103 0.275067 -0.613156 -0.737422 0.283281 
0.6154 -0.780948 0.10679 0.695567 -0.703447 0.146112 -0.79083 -0.574164 0.211952 
-0.79744 -0.565886 0.209436 0.821966 -0.536982 0.189794 0.667811 -0.485428 0.564258 
0.871009 -0.43869 0.221121 -0.909463 -0.382837 0.162213 0.883111 -0.417516 0.213998 
0.860552 -0.413938 0.296825 -0.966496 -0.221947 0.128937 -0.989621 -0.0734247 0.123527 
0.970896 -0.190381 0.14531 0.777106 -0.29287 0.557075 -0.990035 -0.0680867 0.123267 
-0.991941 -0.0117047 0.126155 -0.989226 -0.0680681 0.129611 0.992186 -0.111228 0.0565295 
-0.98901 0.0711034 0.129627 0.993444 0.0621737 -0.0959368 -0.959331 0.230349 0.163166 
0.948779 0.270239 -0.163672 -0.887779 0.425215 0.176181 -0.764272 0.62067 0.175092 
0.832159 0.51652 -0.201788 0.82275 0.531 -0.202783 0.857679 0.499235 0.123089 
-0.711166 0.685162 0.157469 -0.558737 0.822652 0.105153 0.432307 0.869134 -0.240242 
0.679315 0.699186 -0.222867 0.616056 0.754347 -0.226792 -0.431236 0.899466 0.0706804 
-0.366766 0.92946 0.0398471 -0.438114 0.820236 0.367789 -0.224142 0.970863 -0.0847628 
-0.102727 0.971721 -0.212614 -0.0611228 0.94012 -0.335318 -0.0173466 0.907969 -0.418678 
0.0428138 0.88607 -0.461571 0.0853841 0.908012 -0.41015 0.109947 0.921222 -0.373178 
0.156221 0.933785 -0.321933 0.37016 0.892683 -0.257099 0.266761 0.915297 -0.301777 
-0.0710733 0.992061 0.10375 0.0437908 0.998442 0.0345867 -0.135749 -0.604089 0.78527 
-0.0630486 -0.637147 0.768159 0.0264443 -0.716285 0.697306 0.055359 -0.804689 0.59111 
0.0816746 -0.864385 0.496154 -0.342527 -0.643946 0.684112 -0.234947 -0.625178 0.74428 
-0.139917 -0.603062 0.785327 -0.189014 -0.584791 0.788855 -0.135759 -0.600319 0.788154 
-0.064125 -0.58102 0.81136 0.00231544 -0.651418 0.758715 0.0355729 -0.762804 0.64565 
0.131889 -0.870532 0.47411 0.0746829 -0.844636 0.530105 0.173806 -0.870004 0.461393 
0.329904 -0.79824 0.503961 0.514726 -0.678819 0.5237 -0.347106 -0.643023 0.68267 
-0.497055 -0.605007 0.622015 -0.340783 -0.639083 0.689521 -0.188218 -0.564239 0.803871 
-0.0976124 -0.424124 0.900328 -0.0713524 -0.349854 0.934083 -0.0736737 -0.312168 0.947166 
-0.0680272 -0.329379 0.941744 -0.0680545 -0.373008 0.925329 -0.0566353 -0.431788 0.900195 
0.0752682 -0.49532 0.865444 0.293659 -0.597235 0.746375 0.533231 -0.66019 0.528974 
0.506584 -0.648739 0.5679 -0.574357 -0.552673 0.603876 -0.704225 -0.423161 0.57009 
-0.459083 -0.527487 0.714843 -0.228136 -0.439635 0.868721 -0.0564576 -0.326078 0.943655 
0.00359544 -0.25469 0.967016 -0.017527 -0.181924 0.983156 -0.0483981 -0.199685 0.978664 
-0.0899637 -0.198795 0.975903 0.664631 -0.483802 0.569386 0.461629 -0.384373 0.799472 
0.665978 -0.482264 0.569118 -0.717339 -0.401076 0.569704 -0.693462 -0.398437 0.600299 
-0.384449 -0.282158 0.878969 0.0712434 -0.10064 0.992369 -0.0155472 -0.0933907 0.995508 
0.737356 -0.349509 0.578056 0.575899 -0.315198 0.754315 -0.801588 -0.230719 0.551566 
-0.596178 -0.22413 0.770932 -0.28012 -0.16785 0.945177 0.75122 -0.292023 0.591939 
0.517621 -0.180624 0.836327 0.76449 -0.285004 0.57821 -0.834148 -0.0681362 0.547316 
-0.568952 -0.0649801 0.8198 0.840322 -0.204114 0.502192 0.760428 -0.221882 0.610342 
-0.841485 0.0911264 0.532541 -0.546571 0.091332 0.832417 0.910743 -0.016018 0.412663 
0.737846 -0.0257639 0.674477 -0.794104 0.237914 0.559282 -0.638793 0.230413 0.734066 
-0.322073 0.0947053 0.941966 0.881847 0.220293 0.416913 0.824002 0.416245 0.384396 
0.793047 0.220495 0.567854 -0.708996 0.424337 0.563261 -0.699601 0.444584 0.559378 
-0.690992 0.41857 0.589347 -0.434854 0.267626 0.859813 0.813714 0.446328 0.372373 
-0.619574 0.589929 0.517795 -0.559944 0.647245 0.517239 -0.528193 0.569511 0.629817 
-0.445546 0.784594 0.431163 -0.399527 0.436992 0.805863 0.451571 0.840214 0.300207 
0.666576 0.669259 0.328282 0.62392 0.702975 0.341394 0.607866 0.668441 0.428586 
-0.434589 0.796972 0.419486 -0.320935 0.870905 0.37219 -0.325618 0.749274 0.576681 
-0.253124 0.934613 0.249853 -0.276229 0.557341 0.782987 -0.169595 0.976684 0.13163 
0.142916 0.981444 0.12784 0.195286 0.968212 0.156294 0.233216 0.935071 0.266931 
0.223916 0.681306 0.69691 0.413119 0.863652 0.288856 0.330981 0.904161 0.27008 
0.304525 0.795077 0.524517 -0.0759314 0.990234 0.116927 -0.0720203 0.990569 0.116563 
-0.0717509 0.989887 0.122376 0.0700419 0.991081 0.113365 0.0424659 0.992894 0.111171 
0.0429579 0.988261 0.146612 -0.105575 -0.211108 0.971744 -0.0899956 -0.312845 0.945531 
0.042637 -0.41429 0.909146 0.225754 -0.404281 0.886336 -0.163708 -0.244383 0.95576 
0.00527175 -0.19556 0.980678 -0.0811041 -0.193967 0.97765 -0.104037 -0.198648 0.974533 
-0.0821581 -0.188129 0.978702 -0.109008 -0.19805 0.974112 -0.114798 -0.227621 0.966959 
-0.0087124 -0.262829 0.964803 0.333488 -0.342539 0.878324 0.191339 -0.302438 0.933767 
0.377558 -0.284982 0.881042 -0.195452 -0.221175 0.955448 -0.152611 -0.207127 0.966338 
0.0687624 -0.10289 0.992313 0.0306981 -0.137169 0.990072 0.0625054 -0.0648692 0.995934 
-0.0667756 -0.165071 0.984019 -0.0903089 -0.116706 0.989052 -0.0874277 -0.192944 0.977307 
-0.0681085 -0.176176 0.982 -0.103845 -0.103132 0.989232 -0.130829 -0.0559292 0.989826 
-0.0240611 -0.0718054 0.997128 0.142932 -0.130381 0.981107 0.380841 -0.251139 0.889881 
0.329706 -0.223272 0.917302 -0.238866 -0.149479 0.959479 -0.267491 -0.138674 0.953529 
-0.0699084 -0.0750596 0.994726 0.0628914 -0.0393387 0.997245 0.0503456 -0.0169547 0.998588 
-0.109171 -0.123581 0.986311 -0.121886 -0.0661092 0.99034 -0.010103 -0.0129944 0.999865 
-0.000483771 0.0315615 0.999502 -0.0892145 0.102636 0.99071 -0.0773162 0.0448799 0.995996 
0.0609824 -0.0387982 0.997384 0.449869 -0.165715 0.877585 0.245256 -0.114631 0.962658 
0.46012 -0.149017 0.875262 -0.308172 -0.0559962 0.949681 -0.237301 -0.0552351 0.969865 
-0.0263648 -0.0430139 0.998727 0.0863291 -0.0461584 0.995197 -0.0071379 -0.063914 0.99793 
-0.0757353 -0.0926018 0.992819 0.0415847 0.0334859 0.998574 0.0428821 -0.0101552 0.999029 
-0.00504334 0.0545199 0.9985 -0.129394 0.0993912 0.986599 -0.165905 0.04919 0.984914 
-0.0168131 -0.0112046 0.999796 0.17857 -0.0643138 0.981823 0.451514 -0.140367 0.881154 
0.424932 -0.132207 0.895519 -0.309258 0.0730241 0.94817 -0.30142 0.0829364 0.949878 
-0.269465 0.0665791 0.960706 -0.0593076 0.00421311 0.998231 0.0417282 -0.0646804 0.997033 
0.00914245 -0.14788 0.988963 -0.0160731 -0.0577412 0.998202 -0.0524508 0.0181825 0.998458 
-0.000575542 0.00271083 0.999996 0.122795 -0.0657996 0.990248 -0.0930875 -0.0500838 0.994397 
-0.178672 -0.00908216 0.983867 -0.0524293 -0.037963 0.997903 0.119958 0.00282611 0.992775 
0.451831 -0.0249914 0.891753 0.331324 -0.0223594 0.943252 -0.291518 0.0808976 0.953138 
-0.152978 0.035517 0.987591 -0.0653366 -0.0709544 0.995337 -0.00670705 -0.155961 0.98774 
0.0981681 -0.102462 0.989881 0.0784125 -0.101727 0.991717 -0.0380626 -0.0306697 0.998805 
-0.0320987 -0.092821 0.995165 -0.0782018 -0.111389 0.990695 -0.155928 -0.0354697 0.987131 
-0.00663564 0.0631839 0.99798 0.190077 0.0343206 0.981169 0.451915 0.100681 0.886361 
0.391816 0.0881885 0.915807 -0.338134 0.220449 0.914914 -0.300933 0.286925 0.909458 
-0.227128 0.171135 0.95871 -0.156272 0.0349889 0.987094 -0.024245 -0.022772 0.999447 
0.0423452 -0.0473565 0.99798 0.0289779 -0.145941 0.988869 0.0126834 -0.137871 0.990369 
0.0213382 -0.0743149 0.997007 -0.0268459 -0.0529423 0.998237 -0.00773977 0.0878708 0.996102 
0.0230656 0.189249 0.981658 0.170761 0.194678 0.965889 0.471278 0.289182 0.833229 
0.467888 0.300081 0.831284 0.464255 0.287014 0.837908 -0.323678 0.366824 0.872165 
-0.2754 0.452333 0.848263 -0.23735 0.30061 0.923742 -0.255427 0.510469 0.821084 
-0.0921792 0.235743 0.967434 -0.0271784 0.100617 0.994554 -0.0124631 0.0662798 0.997723 
0.0371019 0.0608768 0.997455 0.0508004 0.106165 0.99305 0.0936194 0.143475 0.985216 
0.137489 0.409841 0.901736 0.0917105 0.293571 0.951528 0.108435 0.412723 0.904379 
0.0798472 0.352751 0.932304 0.290932 0.491972 0.820562 0.286783 0.493643 0.821019 
0.279687 0.482577 0.829997 -0.250654 0.524384 0.813753 -0.133624 0.584544 0.800283 
-0.118042 0.416158 0.901598 -0.00146068 0.557774 0.829992 0.000875491 0.404111 0.91471 
0.0472784 0.555309 0.830299 0.0505944 0.395454 0.917091 0.0891345 0.500706 0.861016 
0.087555 0.423918 0.901459 0.171451 0.473591 0.863896 0.170824 0.480784 0.860039 
0.166422 0.46015 0.872104 
