# vtk DataFile Version 4.2
vtk output
ASCII
DATASET POLYDATA
POINTS 516 float
2.57677 -33.4382 -18.0505 9.60528 -33.4382 -17.3184 -11.4802 -26.4097 -18.852 
-4.45174 -26.4097 -20.7184 2.57677 -26.4097 -21.4962 9.60528 -26.4097 -21.0062 
16.6338 -26.4097 -19.5133 -25.5373 -19.3812 -18.7968 -18.5088 -19.3812 -20.1273 
-11.4802 -19.3812 -21.5866 -4.45174 -19.3812 -22.5868 2.57677 -19.3812 -22.6501 
9.60528 -19.3812 -22.3744 16.6338 -19.3812 -21.464 23.6623 -19.3812 -20.0281 
-32.5658 -12.3527 -19.5325 -25.5373 -12.3527 -21.2692 -18.5088 -12.3527 -22.3702 
-11.4802 -12.3527 -23.0864 -4.45174 -12.3527 -23.3896 2.57677 -12.3527 -23.1056 
9.60528 -12.3527 -22.9391 16.6338 -12.3527 -22.5309 23.6623 -12.3527 -21.6963 
30.6908 -12.3527 -19.5862 -39.5943 -5.32422 -17.2123 -32.5658 -5.32422 -20.9517 
-25.5373 -5.32422 -22.5585 -18.5088 -5.32422 -23.3219 -11.4802 -5.32422 -23.6445 
-4.45174 -5.32422 -23.1051 2.57677 -5.32422 -23.2712 9.60528 -5.32422 -23.8162 
16.6338 -5.32422 -22.7348 23.6623 -5.32422 -21.7087 30.6908 -5.32422 -20.6946 
37.7193 -5.32422 -17.7084 -39.5943 1.70429 -17.0407 -32.5658 1.70429 -20.8553 
-25.5373 1.70429 -22.3501 -18.5088 1.70429 -23.0764 -11.4802 1.70429 -23.3074 
-4.45174 1.70429 -22.6573 2.57677 1.70429 -23.4465 9.60528 1.70429 -23.7134 
16.6338 1.70429 -21.8313 23.6623 1.70429 -21.1094 30.6908 1.70429 -20.5972 
37.7193 1.70429 -18.074 -32.5658 8.7328 -19.7705 -25.5373 8.7328 -21.3678 
-18.5088 8.7328 -22.1536 -11.4802 8.7328 -22.8927 -4.45174 8.7328 -23.3069 
2.57677 8.7328 -23.6976 9.60528 8.7328 -22.787 16.6338 8.7328 -21.1155 
23.6623 8.7328 -20.9356 30.6908 8.7328 -19.9387 37.7193 8.7328 -17.5072 
-32.5658 15.7613 -17.409 -25.5373 15.7613 -19.6429 -18.5088 15.7613 -20.7898 
-11.4802 15.7613 -21.6949 -4.45174 15.7613 -22.4139 2.57677 15.7613 -22.5499 
9.60528 15.7613 -21.9237 16.6338 15.7613 -21.1238 23.6623 15.7613 -20.3025 
30.6908 15.7613 -19.3293 -18.5088 22.7898 -18.4399 -11.4802 22.7898 -19.3832 
-4.45174 22.7898 -20.0583 2.57677 22.7898 -20.4398 9.60528 22.7898 -20.2891 
16.6338 22.7898 -19.9939 23.6623 22.7898 -19.2232 9.60528 29.8183 -17.12 
2.57677 -34.6017 -17.032 9.60528 -33.7753 -17.032 -11.4802 -29.4789 -17.032 
-11.4802 -33.4382 -13.6868 -3.95352 -33.4382 -17.032 -4.45174 -33.302 -17.032 
-4.45174 -33.4382 -16.928 10.5421 -33.4382 -17.032 16.6338 -30.4586 -17.032 
16.6338 -33.4382 -14.1778 -25.5373 -22.3804 -17.032 -25.5373 -26.4097 -13.7635 
-18.0142 -26.4097 -17.032 -18.5088 -26.1119 -17.032 -18.5088 -26.4097 -16.8674 
22.7186 -26.4097 -17.032 23.6623 -25.6756 -17.032 23.6623 -26.4097 -16.5036 
30.6908 -26.4097 -10.0684 -29.8436 -19.3812 -17.032 -32.5658 -17.2315 -17.032 
-32.5658 -19.3812 -15.4736 30.3951 -19.3812 -17.032 30.6908 -19.0238 -17.032 
30.6908 -19.3812 -16.8448 -36.6244 -12.3527 -17.032 -39.5943 -5.8926 -17.032 
-39.5943 -12.3527 -13.9299 35.9875 -12.3527 -17.032 37.7193 -8.33868 -17.032 
37.7193 -12.3527 -15.7755 -39.7917 -5.32422 -17.032 38.6438 -5.32422 -17.032 
44.7478 -5.32422 -10.3755 -39.6044 1.70429 -17.032 -39.5943 1.76655 -17.032 
39.2989 1.70429 -17.032 44.7478 1.70429 -11.8498 -37.985 8.7328 -17.032 
-39.5943 8.7328 -15.8131 38.4478 8.7328 -17.032 37.7193 12.1914 -17.032 
44.7478 8.7328 -11.283 -33.2026 15.7613 -17.032 -39.5943 15.7613 -12.1413 
-32.5658 16.6282 -17.032 -25.5373 22.6969 -17.032 36.6405 15.7613 -17.032 
30.6908 22.3728 -17.032 37.7193 15.7613 -16.4338 -32.5658 22.7898 -13.8005 
-25.36 22.7898 -17.032 -25.5373 22.7898 -16.9906 -18.5088 25.5447 -17.032 
-11.4802 27.6023 -17.032 -4.45174 28.9746 -17.032 2.57677 29.7747 -17.032 
16.6338 28.6846 -17.032 30.2323 22.7898 -17.032 23.6623 26.8144 -17.032 
30.6908 22.7898 -16.8385 37.7193 22.7898 -12.0864 -25.5373 29.8183 -11.523 
-18.5088 29.8183 -14.242 -11.4802 29.8183 -15.7623 -4.45174 29.8183 -16.5566 
4.04956 29.8183 -17.032 2.57677 29.8183 -17.0066 10.4546 29.8183 -17.032 
9.60528 29.9324 -17.032 16.6338 29.8183 -16.2349 23.6623 29.8183 -14.3784 
30.6908 29.8183 -10.206 -11.4802 -36.0636 -10.0035 -4.45174 -38.2433 -10.0035 
2.57677 -39.3456 -10.0035 2.57677 -40.4668 -4.69708 9.60528 -38.6432 -10.0035 
16.6338 -36.1277 -10.0035 -25.5373 -29.6552 -10.0035 -17.9773 -33.4382 -10.0035 
-18.5088 -33.1888 -10.0035 -18.5088 -33.4382 -9.47342 21.4271 -33.4382 -10.0035 
23.6623 -31.9743 -10.0035 23.6623 -33.4382 -4.02109 30.6908 -26.4572 -10.0035 
-30.3396 -26.4097 -10.0035 -32.5658 -24.6942 -10.0035 -32.5658 -26.4097 -5.62005 
30.742 -26.4097 -10.0035 -37.7885 -19.3812 -10.0035 -39.5943 -16.8086 -10.0035 
37.578 -19.3812 -10.0035 37.7193 -19.1981 -10.0035 37.7193 -19.3812 -9.67253 
-42.083 -12.3527 -10.0035 42.3019 -12.3527 -10.0035 44.7478 -6.038 -10.0035 
-44.6432 -5.32422 -10.0035 44.9836 -5.32422 -10.0035 -45.2575 1.70429 -10.0035 
-46.6228 1.70429 -3.59176 45.9634 1.70429 -10.0035 -44.0779 8.7328 -10.0035 
45.6162 8.7328 -10.0035 44.7478 12.3646 -10.0035 -41.1977 15.7613 -10.0035 
-39.5943 18.523 -10.0035 43.7668 15.7613 -10.0035 44.7478 15.7613 -6.5113 
-36.4454 22.7898 -10.0035 -32.5658 26.6396 -10.0035 39.4977 22.7898 -10.0035 
37.7193 24.7126 -10.0035 -27.8117 29.8183 -10.0035 -32.5658 29.8183 -3.41815 
-25.5373 31.1184 -10.0035 -18.5088 33.6388 -10.0035 -11.4802 35.344 -10.0035 
-4.45174 36.5165 -10.0035 2.57677 36.6832 -10.0035 9.60528 36.0529 -10.0035 
16.6338 34.79 -10.0035 23.6623 32.88 -10.0035 30.9196 29.8183 -10.0035 
30.6908 29.9557 -10.0035 -11.4802 36.8468 -6.42027 -4.45174 36.8468 -9.24008 
2.57677 36.8468 -9.61449 9.60528 36.8468 -7.96546 2.57677 -40.8039 -2.97495 
-18.5088 -35.955 -2.97495 -11.4802 -38.3458 -2.97495 -0.454163 -40.4668 -2.97495 
-4.45174 -40.0239 -2.97495 4.83864 -40.4668 -2.97495 9.60528 -39.7513 -2.97495 
16.6338 -37.4237 -2.97495 23.6623 -33.6509 -2.97495 -32.5658 -27.3517 -2.97495 
-23.8406 -33.4382 -2.97495 -25.5373 -32.572 -2.97495 23.9856 -33.4382 -2.97495 
23.6623 -33.4382 2.329 30.6908 -28.6058 -2.97495 -33.543 -26.4097 -2.97495 
33.2489 -26.4097 -2.97495 37.7193 -22.0527 -2.97495 -39.5146 -19.3812 -2.97495 
-39.5943 -19.256 -2.97495 39.9706 -19.3812 -2.97495 -43.4623 -12.3527 -2.97495 
44.4267 -12.3527 -2.97495 44.7478 -11.4926 -2.97495 -45.8672 -5.32422 -2.97495 
-46.6228 0.775952 -2.97495 46.8591 -5.32422 -2.97495 -46.7367 1.70429 -2.97495 
-46.6228 2.99818 -2.97495 47.7182 1.70429 -2.97495 -46.0996 8.7328 -2.97495 
47.3334 8.7328 -2.97495 -43.5047 15.7613 -2.97495 -39.5943 22.5974 -2.97495 
45.5803 15.7613 -2.97495 44.7478 17.4325 -2.97495 -39.4661 22.7898 -2.97495 
-39.5943 22.7898 0.835136 41.5663 22.7898 -2.97495 37.7193 27.054 -2.97495 
-32.7874 29.8183 -2.97495 -32.5658 29.9957 -2.97495 -25.5373 34.1362 -2.97495 
-18.5088 36.5434 -2.97495 16.6338 36.8408 -2.97495 23.6623 34.7286 -2.97495 
34.0371 29.8183 -2.97495 30.6908 31.8028 -2.97495 -17.1078 36.8468 -2.97495 
-11.4802 38.033 -2.97495 -4.45174 39.0115 -2.97495 2.57677 39.1391 -2.97495 
16.608 36.8468 -2.97495 9.60528 38.4725 -2.97495 2.57677 -40.5661 4.05356 
-18.5088 -36.6193 4.05356 -11.4802 -38.8201 4.05356 0.855429 -40.4668 4.05356 
-4.45174 -40.1672 4.05356 3.24206 -40.4668 4.05356 2.57677 -40.4668 4.43557 
9.60528 -39.4692 4.05356 16.6338 -37.0346 4.05356 -32.5658 -27.3593 4.05356 
-24.7216 -33.4382 4.05356 -25.5373 -32.9712 4.05356 23.5393 -33.4382 4.05356 
23.6623 -33.3695 4.05356 30.6908 -28.6502 4.05356 -33.4979 -26.4097 4.05356 
-32.5658 -26.4097 6.59493 33.3779 -26.4097 4.05356 30.6908 -26.4097 10.5568 
37.7193 -22.1974 4.05356 -39.1703 -19.3812 4.05356 -39.5943 -18.7082 4.05356 
40.0333 -19.3812 4.05356 37.7193 -19.3812 10.0003 -43.1356 -12.3527 4.05356 
44.178 -12.3527 4.05356 44.7478 -10.6477 4.05356 -45.7099 -5.32422 4.05356 
-46.6228 0.496505 4.05356 46.4455 -5.32422 4.05356 44.7478 -5.32422 8.09802 
-46.8112 1.70429 4.05356 -46.6228 3.5755 4.05356 -46.6228 1.70429 4.9763 
47.1168 1.70429 4.05356 44.7478 1.70429 9.24332 -46.1078 8.7328 4.05356 
46.6602 8.7328 4.05356 44.7478 8.7328 8.07913 -43.6826 15.7613 4.05356 
44.8579 15.7613 4.05356 44.7478 15.974 4.05356 44.7478 15.7613 4.31249 
-39.6981 22.7898 4.05356 -39.5943 22.9293 4.05356 -39.5943 22.7898 4.41769 
40.6743 22.7898 4.05356 37.7193 26.1147 4.05356 37.7193 22.7898 9.41076 
-33.1049 29.8183 4.05356 -32.5658 30.2511 4.05356 -32.5658 29.8183 5.35358 
-25.5373 34.3508 4.05356 -18.5088 36.6601 4.05356 16.6338 36.7084 4.05356 
23.6623 34.4122 4.05356 32.9093 29.8183 4.05356 30.6908 31.2245 4.05356 
30.6908 29.8183 7.19052 -17.5942 36.8468 4.05356 -11.4802 38.0489 4.05356 
-11.4802 36.8468 7.72423 -4.45174 38.9261 4.05356 -4.45174 36.8468 10.0581 
2.57677 39.0523 4.05356 2.57677 36.8468 10.2508 16.0861 36.8468 4.05356 
9.60528 38.4169 4.05356 9.60528 36.8468 8.41038 -18.5088 -34.8023 11.0821 
-11.4802 -37.316 11.0821 -4.45174 -38.502 11.0821 2.57677 -38.5226 11.0821 
9.60528 -37.1982 11.0821 16.6338 -34.6234 11.0821 -21.0507 -33.4382 11.0821 
-25.5373 -30.6272 11.0821 -18.5088 -33.4382 13.0171 -11.4802 -33.4382 16.3427 
-4.45174 -33.4382 17.8064 2.57677 -33.4382 17.5774 9.60528 -33.4382 15.7185 
18.9793 -33.4382 11.0821 16.6338 -33.4382 12.6849 23.6623 -30.8009 11.0821 
-30.5694 -26.4097 11.0821 -32.5658 -24.3619 11.0821 -25.5373 -26.4097 15.7369 
30.3993 -26.4097 11.0821 23.6623 -26.4097 15.659 30.6908 -26.1692 11.0821 
-36.7003 -19.3812 11.0821 -39.5943 -15.0233 11.0821 -32.5658 -19.3812 15.8222 
37.1614 -19.3812 11.0821 30.6908 -19.3812 16.1889 37.7193 -18.5947 11.0821 
-41.1746 -12.3527 11.0821 -39.5943 -12.3527 13.5286 41.2509 -12.3527 11.0821 
37.7193 -12.3527 15.0431 -44.0849 -5.32422 11.0821 -39.5943 -5.32422 17.7047 
43.1353 -5.32422 11.0821 37.7193 -5.32422 15.9051 -45.2417 1.70429 11.0821 
43.6263 1.70429 11.0821 37.7193 1.70429 16.2542 -44.7559 8.7328 11.0821 
42.8739 8.7328 11.0821 37.7193 8.7328 15.7543 -41.9837 15.7613 11.0821 
-39.5943 19.6914 11.0821 -39.5943 15.7613 14.7723 40.9574 15.7613 11.0821 
37.7193 21.0668 11.0821 37.7193 15.7613 14.1178 -37.3905 22.7898 11.0821 
-32.5658 27.6327 11.0821 -32.5658 22.7898 16.6132 23.6623 22.7898 18.1085 
[...]
POINT_DATA 516
SCALARS ImageScalars float
LOOKUP_TABLE default
0 0 0 0 0 0 0 0 0 
0 0 0 0 0 0 0 0 0 
0 0 0 0 0 0 0 0 0 
0 0 0 0 0 0 0 0 0 
0 0 0 0 0 0 0 0 0 
0 0 0 0 0 0 0 0 0 
0 0 0 0 0 0 0 0 0 
0 0 0 0 0 0 0 0 0 
0 0 0 0 0 0 0 0 0 
0 0 0 0 0 0 0 0 0 
0 0 0 0 0 0 0 0 0 
0 0 0 0 0 0 0 0 0 
0 0 0 0 0 0 0 0 0 
0 0 0 0 0 0 0 0 0 
0 0 0 0 0 0 0 0 0 
0 0 0 0 0 0 0 0 0 
0 0 0 0 0 0 0 0 0 
0 0 0 0 0 0 0 0 0 
0 0 0 0 0 0 0 0 0 
0 0 0 0 0 0 0 0 0 
0 0 0 0 0 0 0 0 0 
0 0 0 0 0 0 0 0 0 
0 0 0 0 0 0 0 0 0 
0 0 0 0 0 0 0 0 0 
0 0 0 0 0 0 0 0 0 
0 0 0 0 0 0 0 0 0 
0 0 0 0 0 0 0 0 0 
0 0 0 0 0 0 0 0 0 
0 0 0 0 0 0 0 0 0 
0 0 0 0 0 0 0 0 0 
0 0 0 0 0 0 0 0 0 
0 0 0 0 0 0 0 0 0 
0 0 0 0 0 0 0 0 0 
0 0 0 0 0 0 0 0 0 
0 0 0 0 0 0 0 0 0 
0 0 0 0 0 0 0 0 0 
0 0 0 0 0 0 0 0 0 
0 0 0 0 0 0 0 0 0 
0 0 0 0 0 0 0 0 0 
0 0 0 0 0 0 0 0 0 
0 0 0 0 0 0 0 0 0 
0 0 0 0 0 0 0 0 0 
0 0 0 0 0 0 0 0 0 
0 0 0 0 0 0 0 0 0 
0 0 0 0 0 0 0 0 0 
0 0 0 0 0 0 0 0 0 
0 0 0 0 0 0 0 0 0 
0 0 0 0 0 0 0 0 0 
0 0 0 0 0 0 0 0 0 
0 0 0 0 0 0 0 0 0 
0 0 0 0 0 0 0 0 0 
0 0 0 0 0 0 0 0 0 
0 0 0 0 0 0 0 0 0 
0 0 0 0 0 0 0 0 0 
0 0 0 0 0 0 0 0 0 
0 0 0 0 0 0 0 0 0 
0 0 0 0 0 0 0 0 0 
0 0 0 
NORMALS Normals float
0.0210079 0.605294 0.795725 -0.174226 0.627097 0.759207 0.242355 0.436306 0.866546 
0.171425 0.35274 0.919885 0.0153544 0.289105 0.957174 -0.122038 0.312422 0.942072 
-0.280684 0.389668 0.87714 0.256 0.417857 0.871699 0.186415 0.353529 0.916661 
0.161975 0.277681 0.94692 0.0718834 0.177723 0.981452 -0.0147336 0.108377 0.994001 
-0.0833683 0.1347 0.987373 -0.156327 0.192309 0.968803 -0.287298 0.312409 0.905461 
0.379631 0.30515 0.873364 0.19116 0.257847 0.947086 0.123933 0.210493 0.969708 
0.0697718 0.140431 0.987629 0.00101802 0.0354618 0.999371 -0.0318254 0.0437177 0.998537 
-0.0415115 0.101466 0.993973 -0.0844408 0.0887101 0.992472 -0.194757 0.111419 0.974503 
-0.356712 0.235309 0.904094 0.645715 0.126447 0.753036 0.337835 0.0876998 0.937111 
0.155614 0.0697246 0.985354 0.0782075 0.0464916 0.995852 -0.0154551 0.0151855 0.999765 
-0.0267605 -0.0521872 0.998279 0.0507643 0.0242005 0.998417 -0.0364982 0.0546782 0.997837 
-0.149615 -0.0466304 0.987644 -0.13714 -0.0412594 0.989692 -0.249313 0.0643588 0.966282 
-0.518713 0.123022 0.846051 0.621689 -0.0695393 0.780172 0.328494 -0.0814892 0.940984 
0.145857 -0.0806711 0.986011 0.0691044 -0.0828911 0.99416 -0.0299137 -0.0533975 0.998125 
0.00898323 0.0144957 0.999855 0.075785 0.0308544 0.996647 -0.11153 -0.0710205 0.99122 
-0.179943 -0.114174 0.977029 -0.0840524 -0.054777 0.994955 -0.194601 -0.0512333 0.979544 
-0.461161 -0.0139333 0.887207 0.323648 -0.20965 0.922659 0.164122 -0.187659 0.968426 
0.104991 -0.158934 0.981691 0.0815751 -0.111342 0.990428 0.0568595 -0.015035 0.998269 
-0.0331228 -0.0621269 0.997518 -0.186289 -0.125504 0.974446 -0.125415 -0.0482251 0.990932 
-0.0811054 -0.0567741 0.995087 -0.22473 -0.0907469 0.970186 -0.459962 -0.100219 0.882265 
0.408784 -0.353948 0.841199 0.205026 -0.283217 0.936884 0.140016 -0.249682 0.958152 
0.112383 -0.234056 0.965706 0.0593888 -0.221817 0.973278 -0.0344092 -0.224634 0.973836 
-0.0988599 -0.168855 0.980671 -0.112685 -0.0778145 0.990579 -0.128152 -0.118899 0.984601 
-0.246026 -0.188787 0.9507 0.15425 -0.387374 0.908927 0.107749 -0.377619 0.919671 
0.069235 -0.369343 0.926711 0.0149353 -0.348968 0.937016 -0.0308101 -0.310704 0.950007 
-0.0740597 -0.300373 0.950942 -0.198785 -0.317982 0.927023 -0.0393811 -0.567552 0.822395 
0.0261998 0.66055 0.750325 -0.17598 0.641902 0.746319 0.272239 0.539782 0.796569 
0.317553 0.723761 0.612642 0.202319 0.633551 0.74678 0.215112 0.629092 0.746974 
0.216001 0.636729 0.740216 -0.198236 0.636751 0.745152 -0.332423 0.565647 0.754678 
-0.379832 0.733408 0.563773 0.307498 0.512669 0.801633 0.39964 0.66121 0.634893 
0.271994 0.50312 0.820298 0.270672 0.501223 0.821896 0.275849 0.510748 0.814275 
-0.407171 0.511884 0.75643 -0.41189 0.504431 0.758878 -0.432727 0.538131 0.7233 
-0.620412 0.680887 0.389208 0.386328 0.496549 0.777296 0.443421 0.469762 0.763349 
0.491829 0.554379 0.671393 -0.483479 0.42779 0.763705 -0.485237 0.422995 0.765259 
-0.494529 0.435976 0.751908 0.553554 0.347197 0.756989 0.65116 0.14599 0.744767 
0.740744 0.382883 0.551995 -0.530997 0.314359 0.786906 -0.55479 0.21543 0.803616 
-0.611238 0.354393 0.707668 0.655108 0.126927 0.744797 -0.559987 0.132587 0.817824 
-0.873824 0.217803 0.434734 0.622139 -0.069517 0.779814 0.6219 -0.0709811 0.779873 
-0.532958 -0.00642766 0.846118 -0.852544 0.0347568 0.521499 0.561225 -0.231174 0.794724 
0.652431 -0.237475 0.71968 -0.492153 -0.0987642 0.864888 -0.481665 -0.17414 0.858879 
-0.853912 -0.131711 0.503474 0.430335 -0.360579 0.827523 0.714233 -0.416628 0.562399 
0.417094 -0.372721 0.828922 0.247751 -0.4384 0.863959 -0.458841 -0.244586 0.854192 
-0.364782 -0.432107 0.824753 -0.513516 -0.262309 0.817004 0.503401 -0.532984 0.680085 
0.245545 -0.439509 0.864025 0.248593 -0.441305 0.862236 0.171091 -0.477713 0.861695 
0.115422 -0.497725 0.859621 0.0707967 -0.519841 0.851324 0.0334674 -0.545383 0.837519 
-0.113395 -0.562271 0.819141 -0.361271 -0.439286 0.822503 -0.234534 -0.5288 0.815698 
-0.374454 -0.450302 0.810563 -0.638067 -0.567017 0.520924 0.367355 -0.713453 0.596687 
0.220355 -0.65312 0.724484 0.126966 -0.576937 0.80686 0.0706803 -0.548677 0.833041 
0.0184103 -0.551399 0.834039 0.0333911 -0.547113 0.836392 -0.0492959 -0.5736 0.817651 
-0.0400898 -0.572115 0.819193 -0.128813 -0.629612 0.766157 -0.269639 -0.729817 0.628221 
-0.437776 -0.797618 0.414919 0.312 0.839099 0.44561 0.20896 0.89708 0.389337 
0.0265703 0.933342 0.358003 -0.00774375 0.98961 0.143567 -0.198694 0.924366 0.325681 
-0.403015 0.850173 0.338799 0.441096 0.753698 0.48721 0.370922 0.799786 0.471973 
0.373736 0.795637 0.476742 0.375793 0.808824 0.452309 -0.490861 0.800444 0.344013 
-0.529035 0.771381 0.353685 -0.533089 0.839128 0.108074 -0.620831 0.682157 0.386304 
0.542296 0.709165 0.450556 0.589195 0.685404 0.427867 0.651507 0.719847 0.239497 
-0.621412 0.681525 0.386486 0.722834 0.581098 0.373948 0.787473 0.505778 0.352242 
-0.709221 0.571241 0.413146 -0.71179 0.56799 0.41321 -0.714615 0.574346 0.399316 
0.851831 0.397566 0.341065 -0.805667 0.42348 0.414205 -0.876583 0.239805 0.417247 
0.914946 0.197693 0.35184 -0.88137 0.21927 0.418458 0.918233 -0.0332349 0.394644 
0.992621 0.0131703 0.120541 -0.902444 0.0397088 0.428972 0.868109 -0.251936 0.427686 
-0.888861 -0.134633 0.437949 -0.873136 -0.24391 0.422067 0.786891 -0.415109 0.456604 
0.747274 -0.472283 0.467473 -0.840265 -0.348554 0.415289 -0.905504 -0.358035 0.227755 
0.658448 -0.567044 0.494882 0.54624 -0.661697 0.513594 -0.703292 -0.576258 0.416302 
-0.649853 -0.635086 0.417561 0.427075 -0.735947 0.525347 0.587761 -0.784886 0.196193 
0.374357 -0.762927 0.527067 0.243649 -0.807283 0.537521 0.168807 -0.836882 0.520705 
0.0793685 -0.859762 0.50449 -0.0286719 -0.873795 0.485448 -0.118939 -0.871656 0.475467 
-0.194331 -0.878009 0.43742 -0.297803 -0.863039 0.408015 -0.444011 -0.799495 0.404551 
-0.438239 -0.802654 0.404589 0.172634 -0.930684 0.32253 0.0794299 -0.884391 0.459938 
-0.0296983 -0.885274 0.464121 -0.13525 -0.918191 0.372335 -0.0187476 0.996641 0.0797207 
0.365523 0.907826 0.205536 0.271579 0.946626 0.173617 0.0622831 0.993211 0.0982465 
0.167446 0.978136 0.123335 -0.0854797 0.993821 0.0708081 -0.225388 0.972906 0.0515157 
-0.394767 0.917336 0.051505 -0.530532 0.844782 0.0698564 0.672023 0.728824 0.131152 
0.463319 0.865252 0.191507 0.498508 0.846909 0.185028 -0.534683 0.842068 0.070963 
-0.510469 0.854192 -0.0988782 -0.624627 0.772829 0.112145 0.692865 0.710223 0.124581 
-0.661292 0.739671 0.124818 -0.741789 0.656477 0.137066 0.822231 0.565373 0.065495 
0.824462 0.562167 0.0650363 -0.789173 0.599174 0.134894 0.912912 0.403105 0.0640101 
-0.900226 0.424415 0.0972852 -0.911666 0.399838 0.0948423 0.974577 0.214727 0.063962 
0.994817 0.0430351 0.0921199 -0.968929 0.229592 0.0919986 0.99512 0.0171754 0.0971607 
0.994587 -0.0251146 0.100828 -0.996833 0.0302556 0.0735376 0.969321 -0.214039 0.120846 
-0.987792 -0.14104 0.066137 0.900975 -0.407665 0.148502 0.808775 -0.567201 0.155454 
-0.931147 -0.359768 0.0594375 -0.909042 -0.412843 0.0565947 0.80484 -0.572561 0.156225 
0.817272 -0.576079 0.0141256 -0.800003 -0.597389 0.0558644 -0.682201 -0.728314 0.0645011 
0.594648 -0.784452 0.17615 0.588692 -0.788902 0.176282 0.406176 -0.8952 0.183405 
0.254718 -0.951381 0.173185 -0.251816 -0.960759 0.116321 -0.327915 -0.940274 0.0914178 
-0.544417 -0.836096 0.0674789 -0.45471 -0.887534 0.0743113 0.236805 -0.956589 0.169883 
0.169655 -0.972293 0.16082 0.0769899 -0.985918 0.148456 -0.0381842 -0.988164 0.148575 
-0.251496 -0.960829 0.116439 -0.160103 -0.976313 0.145534 -0.0453729 0.988388 -0.14502 
0.373416 0.925254 -0.0668275 0.242532 0.968059 -0.0635546 -0.00398194 0.991072 -0.133272 
0.121032 0.988036 -0.095579 -0.0635901 0.987277 -0.14574 -0.0467659 0.986113 -0.159355 
-0.238544 0.958919 -0.153527 -0.386192 0.906706 -0.169529 0.704247 0.697825 -0.130678 
0.514185 0.852718 -0.09212 0.534013 0.839837 -0.0974872 -0.498809 0.853079 -0.153122 
-0.50069 0.852035 -0.152793 -0.606853 0.785164 -0.123476 0.722209 0.678694 -0.133374 
0.699849 0.67524 -0.232943 -0.654161 0.747047 -0.118301 -0.573547 0.697874 -0.428971 
-0.747682 0.65083 -0.131878 0.817034 0.557554 -0.14693 0.826513 0.543691 -0.145865 
-0.799173 0.58333 -0.145084 -0.719861 0.533184 -0.444427 0.897294 0.420163 -0.135371 
-0.903552 0.39055 -0.176251 -0.919727 0.345192 -0.186935 0.96436 0.24 -0.111398 
0.993251 0.0629891 -0.0973892 -0.954162 0.201791 -0.221032 -0.893903 0.172349 -0.413804 
0.995097 0.0270841 -0.0951209 0.995263 -0.0348867 -0.0907461 0.991372 0.0298651 -0.127629 
-0.968662 0.0139829 -0.247988 -0.866101 -0.00579769 -0.499835 0.975167 -0.206512 -0.0800151 
-0.952804 -0.151238 -0.263234 -0.878565 -0.146258 -0.454678 0.910437 -0.404143 -0.0881688 
-0.895413 -0.370311 -0.247195 -0.892806 -0.376488 -0.247293 -0.892661 -0.369869 -0.257591 
0.814431 -0.570882 -0.103902 0.812008 -0.574342 -0.103796 0.812081 -0.571488 -0.11801 
-0.771874 -0.583725 -0.251945 -0.682039 -0.688638 -0.246173 -0.665902 -0.556225 -0.497181 
0.605151 -0.787274 -0.118286 0.59043 -0.798261 -0.11904 0.587915 -0.790086 -0.173552 
0.399734 -0.907578 -0.128507 0.245022 -0.959582 -0.138445 -0.269054 -0.947951 -0.170288 
-0.348491 -0.917467 -0.191855 -0.533995 -0.81405 -0.228412 -0.483377 -0.846954 -0.221395 
-0.485732 -0.795595 -0.362069 0.233121 -0.962269 -0.140332 0.156621 -0.975712 -0.153151 
0.147497 -0.940896 -0.304892 0.0705533 -0.983656 -0.165662 0.0595868 -0.897978 -0.435986 
-0.0360572 -0.985045 -0.16848 -0.0432804 -0.8856 -0.462428 -0.261109 -0.950306 -0.169533 
-0.162941 -0.971607 -0.171552 -0.160245 -0.911934 -0.377754 0.389175 0.821525 -0.416701 
0.236186 0.886595 -0.3977 0.0805377 0.911082 -0.40428 -0.0809767 0.892545 -0.443629 
-0.247437 0.852931 -0.459656 -0.367017 0.803654 -0.468442 0.441515 0.793369 -0.419082 
0.527766 0.728094 -0.437426 0.385467 0.767925 -0.511572 0.220585 0.670384 -0.708468 
0.0610879 0.593622 -0.802422 -0.104484 0.600819 -0.792527 -0.235903 0.671197 -0.702741 
-0.398513 0.791027 -0.464181 -0.358595 0.758157 -0.544616 -0.453134 0.754058 -0.475464 
0.62522 0.647655 -0.43548 0.6589 0.619761 -0.426318 0.451794 0.566571 -0.689115 
-0.561924 0.688887 -0.457904 -0.374268 0.55041 -0.746306 -0.567453 0.683069 -0.459797 
0.721404 0.549619 -0.421302 0.78724 0.474451 -0.393892 0.553079 0.510966 -0.658041 
-0.693147 0.512228 -0.50712 -0.462041 0.39675 -0.793163 -0.704208 0.495517 -0.508482 
0.819382 0.42577 -0.38384 0.760439 0.42222 -0.49342 -0.775433 0.326638 -0.54038 
-0.614289 0.270157 -0.741393 0.895881 0.243425 -0.371674 0.672518 0.231317 -0.703002 
-0.796135 0.137493 -0.589292 -0.534216 0.0672036 -0.842672 0.927883 0.0439099 -0.370278 
-0.794601 -0.0141145 -0.606968 -0.521085 -0.00856498 -0.853462 0.912886 -0.198208 -0.356866 
-0.77274 -0.138337 -0.619464 -0.555763 -0.11971 -0.822677 0.829427 -0.417748 -0.370861 
0.775584 -0.497745 -0.388226 0.731644 -0.405627 -0.547872 -0.731249 -0.331888 -0.595924 
-0.644932 -0.485756 -0.590004 -0.599068 -0.30378 -0.740834 0.712478 -0.571817 -0.406694 
0.56218 -0.70752 -0.428216 0.508728 -0.547867 -0.664107 -0.246891 -0.39919 -0.883002 
-0.60712 -0.536408 -0.586235 -0.471465 -0.670576 -0.572755 -0.431967 -0.493742 -0.754734 
0.470243 -0.768575 -0.433778 0.373724 -0.816098 -0.440811 0.370432 -0.738576 -0.563282 
0.219382 -0.867649 -0.446158 0.177446 -0.663407 -0.726914 0.130719 -0.87682 -0.462708 
0.0389493 -0.598477 -0.800193 0.0553252 -0.870378 -0.489265 -0.0208384 -0.549319 -0.835353 
-0.0450704 -0.859713 -0.508786 -0.0740957 -0.527209 -0.846499 -0.155175 -0.835598 -0.526969 
-0.13285 -0.552343 -0.822963 -0.24702 -0.806044 -0.537842 -0.206008 -0.621755 -0.755633 
-0.396796 -0.736075 -0.548404 -0.333459 -0.772398 -0.540561 -0.321117 -0.70902 -0.627833 
0.285281 0.466594 -0.8372 0.186711 0.516858 -0.835462 0.058074 0.561686 -0.82531 
-0.0971719 0.550074 -0.829444 -0.201378 0.489038 -0.848698 -0.274902 0.416846 -0.866411 
0.308349 0.453286 -0.836332 0.355995 0.430192 -0.82958 0.269375 0.423565 -0.864887 
0.133031 0.315269 -0.939632 0.0388678 0.277546 -0.959926 -0.0575128 0.294232 -0.954002 
-0.164484 0.332399 -0.928685 -0.277608 0.411696 -0.868009 -0.271966 0.403989 -0.8734 
-0.284343 0.306083 -0.90855 0.405208 0.419043 -0.812532 0.459192 0.420634 -0.782439 
0.306392 0.350381 -0.885075 0.137538 0.230156 -0.963385 0.0609417 0.138894 -0.98843 
0.0258642 0.120062 -0.992429 -0.0331505 0.123765 -0.991758 -0.124619 0.123594 -0.984477 
-0.18345 0.157712 -0.970295 -0.313158 0.277165 -0.908357 -0.258293 0.23475 -0.937111 
-0.306377 0.208772 -0.928734 0.5252 0.368447 -0.76708 0.387673 0.341193 -0.856328 
0.158022 0.218039 -0.963062 0.0473874 0.111211 -0.992666 0.0275539 0.0640108 -0.997569 
0.0296415 0.0689638 -0.997179 -0.0578351 0.0606345 -0.996483 -0.142534 0.0301154 -0.989332 
-0.15191 0.0150546 -0.98828 -0.151689 0.0802398 -0.985166 -0.322317 0.172473 -0.930787 
-0.266237 0.154618 -0.951426 0.643706 0.225374 -0.731334 0.663494 0.172622 -0.727995 
0.316249 0.157798 -0.935461 0.0510785 0.102204 -0.993451 -0.014371 0.052148 -0.998536 
0.0175732 0.0133626 -0.999756 0.0225103 -0.00784373 -0.999716 -0.0701028 0.0147731 -0.99743 
-0.173454 0.0611095 -0.982944 -0.132959 0.0335307 -0.990554 -0.122351 0.0523403 -0.991106 
-0.322888 0.039025 -0.945632 -0.263157 0.0405001 -0.963903 0.685003 0.0220955 -0.728205 
0.645623 0.0187549 -0.763426 0.24183 0.00579673 -0.970301 0.0606345 0.0132355 -0.998072 
-0.0471834 0.0132603 -0.998798 -0.0330044 -0.00533661 -0.999441 0.0312264 -0.03563 -0.998877 
0.00980863 0.00210871 -0.99995 -0.119445 0.0548492 -0.991325 -0.165959 0.0803605 -0.982853 
-0.137725 0.0537809 -0.989009 -0.355541 0.00587938 -0.934642 -0.26823 0.0141719 -0.963251 
0.63568 -0.18691 -0.748983 0.635529 -0.187694 -0.748915 0.635275 -0.186916 -0.749325 
0.311696 -0.135229 -0.94051 0.0560215 -0.0717074 -0.995851 -0.0326356 -0.0293627 -0.999036 
-0.0313142 0.0050419 -0.999497 0.0299466 -0.00924272 -0.999509 0.0187517 -0.0444699 -0.998835 
-0.0927531 -0.0687365 -0.993314 -0.134646 -0.0206007 -0.99068 -0.186015 -0.0191942 -0.982359 
-0.38017 -0.0737564 -0.921971 -0.319822 -0.0617344 -0.945464 0.545116 -0.351421 -0.761151 
0.458038 -0.46194 -0.759482 0.37698 -0.302525 -0.875422 0.157299 -0.21764 -0.96327 
0.034186 -0.125816 -0.991464 -0.0124295 -0.0851798 -0.996288 -0.0187206 -0.0875628 -0.995983 
-0.0502957 -0.156269 -0.986433 -0.0957905 -0.190841 -0.976936 -0.112692 -0.171799 -0.978665 
-0.246819 -0.398989 -0.883113 -0.181244 -0.186671 -0.965559 -0.362573 -0.232454 -0.9025 
-0.357564 -0.243641 -0.901547 -0.353491 -0.230013 -0.906718 0.40371 -0.497558 -0.767759 
0.305533 -0.530173 -0.790927 0.261485 -0.428147 -0.865052 0.162401 -0.595042 -0.787115 
0.100376 -0.327736 -0.939422 0.0370615 -0.589609 -0.806838 0.00507536 -0.282362 -0.959295 
-0.0220977 -0.541445 -0.840446 -0.0432586 -0.286919 -0.956978 -0.0755996 -0.490607 -0.868095 
-0.0824361 -0.304265 -0.949014 -0.11579 -0.444922 -0.888052 -0.100947 -0.311215 -0.944963 
-0.246691 -0.399067 -0.883113 -0.149968 -0.412092 -0.898716 -0.130879 -0.332908 -0.933832 

