# vtk DataFile Version 4.2
vtk output
ASCII
DATASET POLYDATA
POINTS 550 float
-30.9164 -26.2846 -11.4398 -24.0293 -26.2846 -12.0098 -17.1423 -26.2846 -12.5127 
-10.2552 -26.2846 -11.9922 -3.36816 -26.2846 -11.8719 3.51889 -26.2846 -12.4885 
10.4059 -26.2846 -12.8224 17.293 -26.2846 -13.4182 24.1801 -26.2846 -13.2534 
31.0671 -26.2846 -13.5385 37.9542 -26.2846 -12.5301 44.8412 -26.2846 -11.0523 
-37.8034 -19.3976 -11.7025 -30.9164 -19.3976 -13.0097 -24.0293 -19.3976 -13.444 
-17.1423 -19.3976 -13.6469 -10.2552 -19.3976 -13.2418 -3.36816 -19.3976 -13.246 
3.51889 -19.3976 -13.8658 10.4059 -19.3976 -13.7794 17.293 -19.3976 -14.3877 
24.1801 -19.3976 -14.8413 31.0671 -19.3976 -15.5901 37.9542 -19.3976 -14.32 
44.8412 -19.3976 -12.6644 -37.8034 -12.5105 -13.0688 -30.9164 -12.5105 -14.2376 
-24.0293 -12.5105 -14.2729 -17.1423 -12.5105 -13.8916 -10.2552 -12.5105 -13.932 
-3.36816 -12.5105 -14.4563 3.51889 -12.5105 -13.8614 10.4059 -12.5105 -13.6304 
17.293 -12.5105 -14.5718 24.1801 -12.5105 -15.4176 31.0671 -12.5105 -15.7388 
37.9542 -12.5105 -15.6111 44.8412 -12.5105 -14.1672 -37.8034 -5.62346 -12.9992 
-30.9164 -5.62346 -14.4059 -24.0293 -5.62346 -14.4766 -17.1423 -5.62346 -13.9317 
-10.2552 -5.62346 -14.654 -3.36816 -5.62346 -16.4959 3.51889 -5.62346 -14.1353 
10.4059 -5.62346 -14.6532 17.293 -5.62346 -14.872 24.1801 -5.62346 -15.5207 
31.0671 -5.62346 -15.7792 37.9542 -5.62346 -15.4481 44.8412 -5.62346 -13.8547 
51.7283 -5.62346 -11.1357 -37.8034 1.2636 -12.7012 -30.9164 1.2636 -14.3709 
-24.0293 1.2636 -14.7747 -17.1423 1.2636 -14.5461 -10.2552 1.2636 -16.0671 
-3.36816 1.2636 -16.3299 3.51889 1.2636 -15.4464 10.4059 1.2636 -15.4787 
17.293 1.2636 -14.629 24.1801 1.2636 -15.0798 31.0671 1.2636 -15.1965 
37.9542 1.2636 -14.5463 44.8412 1.2636 -12.8079 -37.8034 8.15065 -12.3748 
-30.9164 8.15065 -14.3272 -24.0293 8.15065 -14.9814 -17.1423 8.15065 -15.2991 
-10.2552 8.15065 -16.6598 -3.36816 8.15065 -15.58 3.51889 8.15065 -14.9618 
10.4059 8.15065 -14.9219 17.293 8.15065 -14.5678 24.1801 8.15065 -14.8769 
31.0671 8.15065 -14.7417 37.9542 8.15065 -13.7668 44.8412 8.15065 -11.1959 
-37.8034 15.0377 -12.4892 -30.9164 15.0377 -14.7468 -24.0293 15.0377 -15.7574 
-17.1423 15.0377 -15.7732 -10.2552 15.0377 -15.1619 -3.36816 15.0377 -13.8376 
3.51889 15.0377 -14.7156 10.4059 15.0377 -15.7685 17.293 15.0377 -15.6022 
24.1801 15.0377 -15.8839 31.0671 15.0377 -14.8064 37.9542 15.0377 -13.6532 
-37.8034 21.9248 -12.5508 -30.9164 21.9248 -14.9813 -24.0293 21.9248 -15.5717 
-17.1423 21.9248 -15.591 -10.2552 21.9248 -15.1329 -3.36816 21.9248 -14.5605 
3.51889 21.9248 -15.1625 10.4059 21.9248 -15.926 17.293 21.9248 -15.9716 
24.1801 21.9248 -15.6246 31.0671 21.9248 -14.5728 37.9542 21.9248 -13.3189 
-30.9164 28.8118 -13.9529 -24.0293 28.8118 -15.5681 -17.1423 28.8118 -14.9097 
-10.2552 28.8118 -14.587 -3.36816 28.8118 -14.3425 3.51889 28.8118 -14.6563 
10.4059 28.8118 -15.0804 17.293 28.8118 -15.1913 24.1801 28.8118 -14.6876 
31.0671 28.8118 -13.0653 -24.0293 35.6989 -12.7582 -17.1423 35.6989 -13.5664 
-10.2552 35.6989 -12.6927 -3.36816 35.6989 -12.3915 3.51889 35.6989 -12.3295 
10.4059 35.6989 -12.3775 17.293 35.6989 -12.2857 24.1801 35.6989 -10.884 
-37.8034 -33.1717 -4.25757 -30.9164 -28.9524 -10.5104 -30.9164 -33.1717 -8.65495 
-24.0293 -29.7649 -10.5104 -24.0293 -33.1717 -8.8361 -17.1423 -30.7714 -10.5104 
-17.1423 -33.1717 -9.27598 -10.2552 -29.8481 -10.5104 -10.2552 -33.1717 -8.76172 
-3.36816 -29.3642 -10.5104 -3.36816 -33.1717 -8.37973 3.51889 -30.8281 -10.5104 
3.51889 -33.1717 -9.13558 10.4059 -32.072 -10.5104 10.4059 -33.1717 -9.9246 
17.293 -32.6372 -10.5104 17.293 -33.1717 -10.1876 24.1801 -31.6902 -10.5104 
24.1801 -33.1717 -9.51297 31.0671 -31.0772 -10.5104 31.0671 -33.1717 -8.51332 
37.9542 -30.3098 -10.5104 37.9542 -33.1717 -7.45299 44.8412 -27.006 -10.5104 
-44.6905 -26.2846 -4.71217 -33.6425 -26.2846 -10.5104 -37.8034 -22.5403 -10.5104 
-37.8034 -26.2846 -9.028 45.6502 -26.2846 -10.5104 -41.3372 -19.3976 -10.5104 
-44.6905 -19.3976 -8.97098 48.9909 -19.3976 -10.5104 51.7283 -19.3976 -8.04898 
-43.0361 -12.5105 -10.5104 -44.6905 -12.5105 -9.42338 51.1921 -12.5105 -10.5104 
51.7283 -10.5876 -10.5104 51.7283 -12.5105 -10.0455 -43.1243 -5.62346 -10.5104 
-44.6905 -5.62346 -9.59141 52.455 -5.62346 -10.5104 51.7283 -3.59616 -10.5104 
-42.1086 1.2636 -10.5104 -44.6905 1.2636 -8.75424 48.6088 1.2636 -10.5104 
51.7283 1.2636 -7.44961 -41.0486 8.15065 -10.5104 -44.6905 8.15065 -7.55677 
45.8591 8.15065 -10.5104 44.8412 11.8886 -10.5104 -41.8079 15.0377 -10.5104 
-44.6905 15.0377 -7.32654 44.0301 15.0377 -10.5104 44.8412 15.0377 -9.89089 
-40.6047 21.9248 -10.5104 -44.6905 21.9248 -4.96219 -37.8034 28.7416 -10.5104 
41.8414 21.9248 -10.5104 37.9542 26.3744 -10.5104 44.8412 21.9248 -6.74744 
-37.7757 28.8118 -10.5104 -37.8034 28.8118 -10.4845 -30.9164 35.6822 -10.5104 
35.8838 28.8118 -10.5104 31.0671 32.8883 -10.5104 37.9542 28.8118 -8.70319 
-30.8887 35.6989 -10.5104 -30.9164 35.6989 -10.4893 -24.0293 39.2667 -10.5104 
-17.1423 39.7758 -10.5104 -10.2552 38.6926 -10.5104 -3.36816 38.2057 -10.5104 
3.51889 37.9557 -10.5104 10.4059 37.8144 -10.5104 17.293 37.8157 -10.5104 
24.9832 35.6989 -10.5104 24.1801 36.0215 -10.5104 31.0671 35.6989 -6.68503 
-37.8034 -33.7072 -3.62334 -30.9164 -36.9299 -3.62334 -24.0293 -38.378 -3.62334 
-17.1423 -38.8672 -3.62334 -17.1423 -40.0587 2.2708 -10.2552 -37.9499 -3.62334 
-3.36816 -37.327 -3.62334 3.51889 -37.5894 -3.62334 10.4059 -38.3719 -3.62334 
17.293 -37.9497 -3.62334 24.1801 -37.5942 -3.62334 31.0671 -36.747 -3.62334 
37.9542 -34.6022 -3.62334 -38.6181 -33.1717 -3.62334 -44.6905 -27.5871 -3.62334 
40.8206 -33.1717 -3.62334 37.9542 -33.1717 1.87209 44.8412 -30.8273 -3.62334 
-45.6624 -26.2846 -3.62334 50.2013 -26.2846 -3.62334 51.7283 -23.894 -3.62334 
-48.9681 -19.3976 -3.62334 53.9377 -19.3976 -3.62334 51.7283 -19.3976 2.85116 
-50.7439 -12.5105 -3.62334 -51.5775 -12.5105 -0.566888 55.0888 -12.5105 -3.62334 
-50.0357 -5.62346 -3.62334 55.3613 -5.62346 -3.62334 -48.897 1.2636 -3.62334 
53.6376 1.2636 -3.62334 51.7283 7.90665 -3.62334 -47.3638 8.15065 -3.62334 
51.6494 8.15065 -3.62334 -46.4511 15.0377 -3.62334 49.4198 15.0377 -3.62334 
-45.2461 21.9248 -3.62334 -44.6905 23.3649 -3.62334 -44.6905 21.9248 -1.25652 
46.2923 21.9248 -3.62334 44.8412 24.3707 -3.62334 44.8412 21.9248 1.39088 
-42.4322 28.8118 -3.62334 -37.8034 34.5991 -3.62334 41.8772 28.8118 -3.62334 
37.9542 32.8679 -3.62334 -36.3904 35.6989 -3.62334 -30.9164 38.9342 -3.62334 
-30.9164 35.6989 2.20887 -24.0293 41.0819 -3.62334 -17.1423 42.2884 -3.62334 
-10.2552 42.3652 -3.62334 -3.36816 41.9887 -3.62334 3.51889 41.5727 -3.62334 
10.4059 40.87 -3.62334 17.293 40.2363 -3.62334 24.1801 39.282 -3.62334 
33.7912 35.6989 -3.62334 31.0671 37.3199 -3.62334 31.0671 35.6989 1.37721 
-17.1423 -40.2205 3.26372 -37.8034 -35.2297 3.26372 -30.9164 -38.2639 3.26372 
-19.396 -40.0587 3.26372 -24.0293 -39.7273 3.26372 -15.8522 -40.0587 3.26372 
-17.1423 -40.0587 3.68087 -10.2552 -39.3416 3.26372 -3.36816 -38.4349 3.26372 
3.51889 -38.2685 3.26372 10.4059 -38.2521 3.26372 17.293 -37.7294 3.26372 
24.1801 -36.351 3.26372 31.0671 -35.2575 3.26372 -40.8831 -33.1717 3.26372 
-44.6905 -29.8934 3.26372 -37.8034 -33.1717 8.18477 17.293 -33.1717 8.31953 
24.1801 -33.1717 7.69238 36.8829 -33.1717 3.26372 31.0671 -33.1717 5.66662 
37.9542 -32.5181 3.26372 44.8412 -28.2287 3.26372 -47.504 -26.2846 3.26372 
31.0671 -26.2846 9.4657 37.9542 -26.2846 8.13753 47.0237 -26.2846 3.26372 
44.8412 -26.2846 5.0173 -50.8612 -19.3976 3.26372 -51.5775 -16.1312 3.26372 
51.487 -19.3976 3.26372 44.8412 -19.3976 8.28848 51.7283 -18.861 3.26372 
-52.3946 -12.5105 3.26372 -51.5775 -7.28349 3.26372 -51.5775 -12.5105 5.98418 
44.8412 -12.5105 9.36024 53.3347 -12.5105 3.26372 51.7283 -12.5105 5.13525 
-51.3223 -5.62346 3.26372 53.7083 -5.62346 3.26372 51.7283 -5.62346 5.55846 
-49.6328 1.2636 3.26372 44.8412 1.2636 9.47927 52.3231 1.2636 3.26372 
51.7283 3.27571 3.26372 51.7283 1.2636 4.04329 -47.7696 8.15065 3.26372 
-44.6905 8.15065 8.7363 49.8161 8.15065 3.26372 44.8412 8.15065 8.56208 
-45.784 15.0377 3.26372 -44.6905 18.5615 3.26372 -44.6905 15.0377 5.09629 
37.9542 15.0377 10.0012 47.7644 15.0377 3.26372 44.8412 20.877 3.26372 
44.8412 15.0377 6.5846 -43.0765 21.9248 3.26372 -37.8034 21.9248 8.38832 
44.0772 21.9248 3.26372 37.9542 21.9248 9.17023 -39.0857 28.8118 3.26372 
-37.8034 30.2243 3.26372 -37.8034 28.8118 4.3529 -30.9164 34.6841 3.26372 
-30.9164 28.8118 7.52838 -24.0293 28.8118 8.25992 -17.1423 28.8118 9.49582 
31.0671 34.8386 3.26372 31.0671 28.8118 8.87284 39.4468 28.8118 3.26372 
37.9542 30.2774 3.26372 37.9542 28.8118 4.63711 -29.3125 35.6989 3.26372 
-24.0293 37.625 3.26372 -24.0293 35.6989 5.15916 -17.1423 37.5478 3.26372 
-17.1423 35.6989 4.99681 -10.2552 38.4108 3.26372 -10.2552 35.6989 5.74224 
-3.36816 38.6276 3.26372 -3.36816 35.6989 6.17948 3.51889 38.2462 3.26372 
3.51889 35.6989 5.85931 10.4059 37.971 3.26372 10.4059 35.6989 5.6301 
17.293 37.9262 3.26372 17.293 35.6989 5.91971 28.9946 35.6989 3.26372 
24.1801 37.0626 3.26372 24.1801 35.6989 4.95208 -30.9164 -34.7193 10.1508 
-24.0293 -36.8336 10.1508 -17.1423 -37.0167 10.1508 -10.2552 -36.2888 10.1508 
-3.36816 -35.2933 10.1508 3.51889 -34.3371 10.1508 10.4059 -33.2338 10.1508 
-44.6905 -26.4321 10.1508 -35.2032 -33.1717 10.1508 -37.8034 -31.9337 10.1508 
-30.9164 -33.1717 11.5898 -24.0293 -33.1717 13.3221 -17.1423 -33.1717 14.139 
-10.2552 -33.1717 13.4403 -3.36816 -33.1717 12.3603 3.51889 -33.1717 11.349 
10.6136 -33.1717 10.1508 10.4059 -33.1717 10.2035 17.293 -30.2004 10.1508 
24.1801 -28.8693 10.1508 -44.8141 -26.2846 10.1508 -44.6905 -26.2846 10.279 
-37.8034 -26.2846 14.0439 -30.9164 -26.2846 16.2874 -3.36816 -26.2846 16.5632 
3.51889 -26.2846 15.3862 10.4059 -26.2846 14.0812 17.293 -26.2846 12.1245 
28.1091 -26.2846 10.1508 24.1801 -26.2846 11.0001 31.0671 -24.6818 10.1508 
37.9542 -20.7751 10.1508 -48.2675 -19.3976 10.1508 -44.6905 -19.3976 14.2602 
[...]
POINT_DATA 550
SCALARS ImageScalars float
LOOKUP_TABLE default
0 0 0 0 0 0 0 0 0 
0 0 0 0 0 0 0 0 0 
0 0 0 0 0 0 0 0 0 
0 0 0 0 0 0 0 0 0 
0 0 0 0 0 0 0 0 0 
0 0 0 0 0 0 0 0 0 
0 0 0 0 0 0 0 0 0 
0 0 0 0 0 0 0 0 0 
0 0 0 0 0 0 0 0 0 
0 0 0 0 0 0 0 0 0 
0 0 0 0 0 0 0 0 0 
0 0 0 0 0 0 0 0 0 
0 0 0 0 0 0 0 0 0 
0 0 0 0 0 0 0 0 0 
0 0 0 0 0 0 0 0 0 
0 0 0 0 0 0 0 0 0 
0 0 0 0 0 0 0 0 0 
0 0 0 0 0 0 0 0 0 
0 0 0 0 0 0 0 0 0 
0 0 0 0 0 0 0 0 0 
0 0 0 0 0 0 0 0 0 
0 0 0 0 0 0 0 0 0 
0 0 0 0 0 0 0 0 0 
0 0 0 0 0 0 0 0 0 
0 0 0 0 0 0 0 0 0 
0 0 0 0 0 0 0 0 0 
0 0 0 0 0 0 0 0 0 
0 0 0 0 0 0 0 0 0 
0 0 0 0 0 0 0 0 0 
0 0 0 0 0 0 0 0 0 
0 0 0 0 0 0 0 0 0 
0 0 0 0 0 0 0 0 0 
0 0 0 0 0 0 0 0 0 
0 0 0 0 0 0 0 0 0 
0 0 0 0 0 0 0 0 0 
0 0 0 0 0 0 0 0 0 
0 0 0 0 0 0 0 0 0 
0 0 0 0 0 0 0 0 0 
0 0 0 0 0 0 0 0 0 
0 0 0 0 0 0 0 0 0 
0 0 0 0 0 0 0 0 0 
0 0 0 0 0 0 0 0 0 
0 0 0 0 0 0 0 0 0 
0 0 0 0 0 0 0 0 0 
0 0 0 0 0 0 0 0 0 
0 0 0 0 0 0 0 0 0 
0 0 0 0 0 0 0 0 0 
0 0 0 0 0 0 0 0 0 
0 0 0 0 0 0 0 0 0 
0 0 0 0 0 0 0 0 0 
0 0 0 0 0 0 0 0 0 
0 0 0 0 0 0 0 0 0 
0 0 0 0 0 0 0 0 0 
0 0 0 0 0 0 0 0 0 
0 0 0 0 0 0 0 0 0 
0 0 0 0 0 0 0 0 0 
0 0 0 0 0 0 0 0 0 
0 0 0 0 0 0 0 0 0 
0 0 0 0 0 0 0 0 0 
0 0 0 0 0 0 0 0 0 
0 0 0 0 0 0 0 0 0 
0 
NORMALS Normals float
0.198487 0.290136 0.936175 0.0691471 0.291774 0.953984 -0.00296469 0.274934 0.961458 
-0.0438886 0.288702 0.956412 0.0339139 0.306196 0.951364 0.0665076 0.304367 0.95023 
0.0624886 0.256185 0.964606 0.0310293 0.288602 0.956946 0.0115299 0.320526 0.947169 
-0.0360803 0.393085 0.918794 -0.208522 0.390104 0.896849 -0.414548 0.466346 0.781454 
0.261644 0.284013 0.922431 0.113398 0.195682 0.974089 0.0439244 0.154808 0.986968 
-0.0146729 0.0959446 0.995279 -0.028596 0.138704 0.989921 0.0462683 0.178017 0.982939 
0.0385146 0.0928345 0.994936 0.0370136 0.0557056 0.997761 0.07746 0.0763458 0.994068 
0.083213 0.146759 0.985666 -0.0359778 0.176747 0.983599 -0.179471 0.188119 0.965609 
-0.381093 0.223772 0.897047 0.302042 0.0769935 0.95018 0.0904088 0.0943026 0.99143 
-0.0249074 0.0746042 0.996902 -0.0246515 0.0203684 0.999489 0.0401181 0.098329 0.994345 
-0.00543616 0.231285 0.972871 -0.0579647 0.0193386 0.998131 0.0482818 0.0583175 0.99713 
0.130852 0.0356921 0.990759 0.0811738 0.0489502 0.995497 0.0144853 0.0129936 0.999811 
-0.0948977 0.08107 0.99218 -0.375985 0.0625181 0.924514 0.300654 -0.0255505 0.953391 
0.101816 0.010667 0.994746 -0.034485 0.0364125 0.998742 0.00782503 0.0455508 0.998931 
0.188663 0.144138 0.971407 -0.0503424 0.1363 0.989388 -0.12614 0.111746 0.985699 
0.0550264 0.132798 0.989614 0.0619054 0.00299136 0.998078 0.0655269 -0.0244542 0.997551 
-0.00451207 -0.0392685 0.999219 -0.144728 -0.0756517 0.986575 -0.307294 -0.0770424 0.948491 
-0.655575 -0.0960269 0.748999 0.336755 -0.0424607 0.940634 0.141624 -0.00566047 0.989904 
0.0130729 0.0366021 0.999244 0.0742184 0.101206 0.992093 0.138081 0.149093 0.979135 
-0.0486207 -0.0615293 0.99692 -0.0588448 0.0619637 0.996342 -0.0626314 0.0157402 0.997913 
-0.0246115 -0.0221897 0.999451 0.0409578 -0.046679 0.99807 -0.036947 -0.0751623 0.996487 
-0.149055 -0.120695 0.981435 -0.398839 -0.17773 0.899633 0.392541 -0.0138244 0.91963 
0.173342 0.0296709 0.984415 0.0696217 0.0702142 0.995099 0.11479 0.0861259 0.989649 
0.0330202 -0.0726725 0.996809 -0.12966 -0.195195 0.972156 -0.0421945 -0.0515759 0.997777 
-0.0287743 0.0223854 0.999335 -0.00320803 0.0704543 0.99751 0.0126187 0.0573118 0.998277 
-0.0784018 -0.0278788 0.996532 -0.218053 -0.0634048 0.973875 -0.488288 -0.17788 0.854362 
0.411278 0.0106666 0.911448 0.227129 0.04217 0.972951 0.0819044 0.0433495 0.995697 
-0.0417982 0.0212363 0.9989 -0.140666 -0.104428 0.984534 -0.0327306 -0.0560175 0.997893 
0.140566 0.0152674 0.989954 0.0607728 0.0734887 0.995443 0.00864178 0.103914 0.994549 
-0.0633163 0.055322 0.996459 -0.163111 -0.0103886 0.986553 -0.2952 -0.0247751 0.955114 
0.470139 -0.109306 0.875797 0.189085 -0.0697576 0.97948 0.0376354 -0.0135689 0.999199 
-0.0317303 -0.0613704 0.997611 -0.0746627 -0.0404804 0.996387 0.00197983 0.0367894 0.999321 
0.0988073 -0.00479732 0.995095 0.0588551 -0.0478099 0.997121 -0.0212338 -0.0325516 0.999244 
-0.0962532 -0.08039 0.992105 -0.14627 -0.133126 0.980246 -0.404144 -0.265748 0.87524 
0.277043 -0.222501 0.934741 0.0904966 -0.228209 0.969397 -0.0660299 -0.15375 0.985901 
-0.0411422 -0.160006 0.986258 0.00479706 -0.138025 0.990417 0.0524963 -0.181427 0.982002 
0.038742 -0.227261 0.973063 -0.0243953 -0.234924 0.971708 -0.165071 -0.251951 0.953558 
-0.31736 -0.353769 0.879847 0.179069 -0.491953 0.852007 0.00494769 -0.420122 0.907454 
-0.0942063 -0.445757 0.890183 -0.0250725 -0.46849 0.883113 -0.00102995 -0.524768 0.851245 
-0.0031552 -0.580112 0.81453 -0.0758115 -0.621146 0.780019 -0.271981 -0.705048 0.65493 
0.504658 0.716837 0.481108 0.209498 0.395364 0.894314 0.237959 0.604265 0.760421 
0.0493468 0.402856 0.913932 0.0376464 0.566896 0.822929 0.00225421 0.456902 0.889514 
-0.00296965 0.573582 0.819143 -0.0434419 0.414256 0.909123 -0.0538019 0.586559 0.808117 
0.0300012 0.42011 0.906977 0.0182455 0.636486 0.771072 0.0820031 0.478292 0.874364 
0.0886766 0.624093 0.776302 0.0561372 0.491991 0.868788 0.0564347 0.564494 0.823505 
-0.016564 0.542035 0.840193 -0.0206852 0.578544 0.815389 -0.0637621 0.562734 0.824175 
-0.0965529 0.675219 0.731271 -0.0434035 0.601501 0.797692 -0.0854767 0.765942 0.637203 
-0.235303 0.580508 0.779515 -0.329602 0.844303 0.422511 -0.442321 0.513956 0.734984 
0.667418 0.517511 0.535476 0.271398 0.335056 0.902264 0.308015 0.349614 0.884815 
0.382995 0.420543 0.822471 -0.46931 0.490679 0.734154 0.408 0.271685 0.871621 
0.575794 0.252676 0.77757 -0.544587 0.250711 0.800355 -0.783015 0.326579 0.529371 
0.51128 0.0383243 0.858559 0.588789 0.0304308 0.807714 -0.642002 0.127462 0.756034 
-0.667947 0.0670068 0.741186 -0.689709 0.125452 0.713136 0.513655 -0.0326708 0.857375 
0.602615 -0.0343215 0.797293 -0.706659 -0.0985402 0.700659 -0.678258 -0.152022 0.718927 
0.517567 -0.0765296 0.852213 0.68092 -0.111451 0.723828 -0.566713 -0.253128 0.784068 
-0.83161 -0.269144 0.485785 0.533897 -0.00891286 0.845502 0.788904 -0.0742842 0.610009 
-0.527322 -0.195425 0.826886 -0.574556 -0.163172 0.802035 0.603121 -0.0176483 0.797454 
0.867366 -0.0842051 0.490495 -0.604977 -0.143788 0.783152 -0.664477 -0.171578 0.727345 
0.600301 -0.190969 0.77664 0.940536 -0.272603 0.202684 0.636717 -0.307122 0.707296 
-0.581687 -0.334497 0.741453 -0.508951 -0.436502 0.741913 -0.823429 -0.436519 0.362514 
0.636792 -0.308354 0.706692 0.639199 -0.309747 0.703905 0.389508 -0.680232 0.620941 
-0.489918 -0.449791 0.746772 -0.355768 -0.580381 0.732521 -0.611718 -0.547217 0.571274 
0.389056 -0.680579 0.620845 0.390091 -0.682349 0.618247 0.236067 -0.677325 0.696781 
-0.0293291 -0.750696 0.659996 -0.101046 -0.641752 0.760227 -0.040733 -0.635062 0.771386 
-0.022216 -0.664583 0.746884 -0.00790963 -0.714161 0.699937 -0.106794 -0.740286 0.663755 
-0.287906 -0.714299 0.637878 -0.277318 -0.722229 0.633624 -0.411178 -0.84682 0.337384 
0.501132 0.739337 0.44972 0.294707 0.854744 0.427272 0.130903 0.895271 0.425857 
-0.0281342 0.898381 0.438316 -0.0278513 0.998684 -0.0430715 -0.0991191 0.892063 0.440907 
-0.0227215 0.908851 0.416501 0.0705857 0.933418 0.35178 0.022939 0.957279 0.288253 
-0.0534926 0.965668 0.254213 -0.0902071 0.976007 0.198173 -0.220216 0.959798 0.174046 
-0.378091 0.923999 0.0572079 0.521854 0.724753 0.449891 0.687898 0.549122 0.474616 
-0.457696 0.88734 0.0560546 -0.430374 0.801813 -0.414577 -0.581607 0.811022 0.0630675 
0.722193 0.511074 0.466091 -0.781364 0.620983 0.0620516 -0.856737 0.511599 0.0653278 
0.826999 0.304325 0.472714 -0.940755 0.331402 0.0717776 -0.750363 0.36802 -0.549106 
0.88192 0.0607249 0.467471 0.972684 0.0477999 0.227159 -0.98912 0.0951567 0.112188 
0.904829 -0.114429 0.41011 -0.988118 -0.120106 0.0959003 0.907797 -0.190674 0.373562 
-0.95823 -0.248197 0.142103 -0.940295 -0.313271 0.133064 0.932358 -0.165502 0.321431 
-0.939432 -0.315644 0.133552 0.971489 -0.151736 0.182168 -0.926028 -0.342369 0.158922 
0.957912 -0.273389 0.0875419 0.946005 -0.315771 0.0732402 0.937956 -0.329073 -0.109315 
-0.869782 -0.4875 0.0763095 -0.846327 -0.528119 0.0694276 -0.794776 -0.497853 -0.347093 
0.868123 -0.495011 0.0364108 0.678771 -0.731865 -0.0603579 -0.772856 -0.626591 0.100387 
-0.63746 -0.766943 0.0737768 0.615406 -0.784589 -0.0754657 0.40358 -0.910552 -0.0895484 
0.392481 -0.708753 -0.586198 0.231818 -0.961319 -0.148747 0.0931449 -0.991384 -0.0920952 
-0.0220741 -0.998895 -0.0414802 -0.0581627 -0.998269 -0.00868448 -0.0853591 -0.996326 -0.00701345 
-0.0945819 -0.995516 -0.00154257 -0.116802 -0.992805 -0.0263713 -0.194076 -0.980676 0.0247006 
-0.494895 -0.866767 0.0615935 -0.418609 -0.905095 0.0746273 -0.423279 -0.82681 -0.370431 
-0.0272157 0.993222 -0.112997 0.500791 0.862204 -0.0762458 0.293066 0.95066 -0.101772 
0.027074 0.994789 -0.0982964 0.135855 0.988349 -0.0686327 -0.0460499 0.992879 -0.109865 
-0.0289279 0.990106 -0.137304 -0.125991 0.98762 -0.0934519 -0.0768182 0.990507 -0.113996 
-0.0133295 0.982349 -0.18658 -0.0348985 0.960746 -0.275227 -0.12598 0.932652 -0.338068 
-0.17783 0.889054 -0.421852 -0.23904 0.834401 -0.496623 0.58441 0.807147 -0.083546 
0.725488 0.684961 -0.067052 0.464427 0.764228 -0.447508 -0.128488 0.635729 -0.761143 
-0.16813 0.684718 -0.70915 -0.395696 0.753337 -0.52527 -0.252335 0.711403 -0.655921 
-0.420304 0.730035 -0.538882 -0.526976 0.644018 -0.55456 0.823623 0.565047 -0.0486408 
-0.169863 0.417876 -0.892483 -0.29583 0.469611 -0.831835 -0.609681 0.5748 -0.545797 
-0.475779 0.539304 -0.694827 0.95289 0.302102 -0.0271141 0.983966 0.175251 -0.0331254 
-0.723821 0.364047 -0.586135 -0.459076 0.285633 -0.841227 -0.736956 0.346526 -0.580358 
0.99846 0.0336335 -0.0441183 0.988891 -0.139069 -0.0524883 0.975106 0.0307334 -0.219601 
-0.451619 0.120158 -0.884083 -0.854831 0.135912 -0.500791 -0.750699 0.147983 -0.643858 
0.97983 -0.191884 -0.0558048 -0.8849 -0.0798163 -0.458892 -0.775329 -0.0640781 -0.628298 
0.954509 -0.261758 -0.142816 -0.503523 -0.106552 -0.857386 -0.860272 -0.229538 -0.455241 
-0.84741 -0.25457 -0.46593 -0.827571 -0.226489 -0.513643 0.939272 -0.275516 -0.204595 
0.772445 -0.320825 -0.548087 -0.824282 -0.296871 -0.482106 -0.574968 -0.181467 -0.797798 
0.896839 -0.290142 -0.333912 0.838244 -0.349514 -0.418554 0.838017 -0.320886 -0.441316 
-0.369795 -0.149679 -0.916977 -0.806751 -0.323989 -0.494149 -0.736771 -0.450043 -0.504609 
-0.646033 -0.307395 -0.698677 0.746678 -0.405328 -0.527428 0.471049 -0.419639 -0.775897 
-0.721073 -0.470381 -0.50872 -0.482532 -0.316091 -0.816853 0.601855 -0.499108 -0.623428 
0.52809 -0.548342 -0.648415 0.508071 -0.5023 -0.699684 0.360786 -0.638945 -0.679399 
0.246771 -0.490959 -0.835502 0.112599 -0.433976 -0.89386 0.176245 -0.457626 -0.871502 
-0.398143 -0.737356 -0.5457 -0.328476 -0.491956 -0.806277 -0.626472 -0.594388 -0.504218 
-0.577995 -0.635939 -0.511374 -0.551119 -0.572856 -0.606715 0.316733 -0.664731 -0.676618 
0.152759 -0.744617 -0.649777 0.15205 -0.621785 -0.768286 0.0424077 -0.668574 -0.742435 
0.0326037 -0.621048 -0.783094 0.0565424 -0.720345 -0.691307 0.0632583 -0.653438 -0.754332 
-0.0104766 -0.768997 -0.639166 0.00762051 -0.686017 -0.727546 -0.0385474 -0.774066 -0.631931 
-0.0307078 -0.691532 -0.721693 -0.0195074 -0.7896 -0.613311 0.00378458 -0.705207 -0.708991 
-0.060497 -0.83979 -0.539531 -0.036239 -0.741401 -0.670083 -0.335671 -0.774821 -0.535703 
-0.180158 -0.83367 -0.522051 -0.183861 -0.772298 -0.608072 0.257923 0.70943 -0.655885 
0.129571 0.781943 -0.609735 -0.0344379 0.810853 -0.584235 -0.105277 0.803413 -0.586041 
-0.117302 0.78539 -0.607785 -0.116682 0.736974 -0.665774 -0.171953 0.619697 -0.765772 
0.635908 0.531843 -0.559253 0.359572 0.689374 -0.628865 0.415744 0.6678 -0.617413 
0.242181 0.64706 -0.722953 0.152984 0.600955 -0.784505 0.0107783 0.596377 -0.802632 
-0.104207 0.66299 -0.74134 -0.120742 0.686632 -0.716908 -0.13063 0.678987 -0.722435 
-0.170998 0.615874 -0.769064 -0.17306 0.616974 -0.767719 -0.146225 0.468009 -0.871542 
-0.177319 0.413278 -0.893173 0.639583 0.527153 -0.559503 0.633856 0.526729 -0.566377 
0.34902 0.471128 -0.810076 0.183438 0.422577 -0.887569 -0.144339 0.334209 -0.931381 
-0.166177 0.329562 -0.929394 -0.220378 0.371848 -0.901755 -0.206657 0.348512 -0.914239 
-0.170248 0.362085 -0.916466 -0.180194 0.297075 -0.937697 -0.160444 0.374237 -0.913348 
-0.26148 0.301174 -0.917018 0.775001 0.309198 -0.551154 0.587354 0.284664 -0.757615 
-0.124233 0.0811423 -0.98893 -0.183969 0.229851 -0.95568 -0.238158 0.272681 -0.932162 
-0.135447 0.255981 -0.957146 -0.146405 0.260278 -0.954369 -0.295409 0.266676 -0.917397 
-0.258098 0.268997 -0.927915 0.843743 0.0332261 -0.535718 0.581329 0.0258999 -0.813257 
0.00381617 -0.0841987 -0.996442 -0.211674 0.235381 -0.948573 -0.178993 0.213216 -0.960469 
-0.161448 0.166219 -0.972783 -0.4029 0.118816 -0.907499 -0.275704 0.143752 -0.950433 
-0.425315 0.0338962 -0.90441 0.840746 -0.20252 -0.502127 0.658564 -0.144824 -0.738458 
-0.0570991 0.0766429 -0.995422 -0.213634 0.0749948 -0.974031 -0.209364 0.0567149 -0.976192 
-0.264696 0.00899784 -0.96429 -0.428506 0.0103269 -0.90348 -0.438708 -0.0158266 -0.89849 
-0.417236 0.0129454 -0.908706 0.777612 -0.310327 -0.546825 0.731095 -0.318165 -0.603548 
0.715233 -0.301714 -0.630405 -0.0687533 0.00173188 -0.997632 -0.0561793 -0.0744514 -0.995641 
-0.168597 -0.0566938 -0.984053 -0.224143 -0.0614881 -0.972615 -0.454139 -0.0913651 -0.886234 
-0.319404 -0.083437 -0.943938 0.68858 -0.336842 -0.64218 0.461967 -0.40374 -0.789671 
-0.0394118 -0.0781925 -0.996159 -0.168611 -0.0480492 -0.984511 -0.202381 -0.0960164 -0.974589 
-0.240158 -0.13399 -0.961442 -0.434606 -0.170954 -0.884247 -0.362033 -0.14896 -0.920186 
-0.317712 -0.16143 -0.934344 0.496286 -0.349868 -0.794539 0.437621 -0.374043 -0.817667 
0.435309 -0.357425 -0.826289 0.279448 -0.464224 -0.840479 0.222996 -0.484142 -0.846097 
-0.132597 -0.13479 -0.981962 -0.0427529 -0.196898 -0.979491 -0.166172 -0.163812 -0.972395 
-0.248231 -0.131443 -0.959742 -0.361582 -0.148084 -0.920505 -0.281641 -0.169514 -0.944428 
0.224477 -0.382837 -0.896128 0.180329 -0.386576 -0.904456 0.177182 -0.376433 -0.909343 
0.128496 -0.443084 -0.887224 0.159162 -0.456311 -0.87547 0.191613 -0.457438 -0.868352 
0.272297 -0.501019 -0.821483 0.248553 -0.530055 -0.810718 -0.177214 -0.370831 -0.911636 
-0.0691592 -0.400139 -0.913841 -0.0840191 -0.361574 -0.92855 -0.193038 -0.28163 -0.939905 
-0.377243 -0.267974 -0.886497 -0.281505 -0.35278 -0.892357 -0.247939 -0.219763 -0.94352 
0.159299 -0.506929 -0.84714 0.116589 -0.580309 -0.806008 0.134891 -0.578543 -0.804421 
0.00845689 -0.620509 -0.784154 -0.00366384 -0.620048 -0.784556 -0.0529702 -0.55674 -0.828996 
-0.0623331 -0.540827 -0.838821 -0.0223398 -0.522472 -0.852364 -0.0255244 -0.507936 -0.861017 
-0.0284662 -0.498449 -0.866451 -0.0308447 -0.478668 -0.877454 -0.090996 -0.459655 -0.883424 
-0.0890886 -0.459871 -0.883505 -0.0890078 -0.459444 -0.883736 0.067603 0.340572 -0.937785 
0.0310168 0.32493 -0.945229 -0.0618317 0.377396 -0.923985 0.237866 0.28485 -0.92859 
0.0687386 0.341069 -0.937522 0.157372 0.367595 -0.916574 0.067436 0.34005 -0.937986 
0.0314222 0.297187 -0.954302 -0.100685 0.335994 -0.936467 -0.0553443 0.338459 -0.939352 
-0.153394 0.241788 -0.958128 0.250457 0.27765 -0.92746 0.233489 0.276852 -0.932114 
0.113978 0.255225 -0.96014 0.0242179 0.178919 -0.983566 0.020252 0.11285 -0.993406 
-0.066739 0.0734648 -0.995062 -0.134867 0.0758504 -0.987956 -0.16612 0.0595446 -0.984306 
-0.0804446 0.130024 -0.988242 0.413496 0.0735485 -0.90753 0.302702 0.133347 -0.943711 
0.0746208 0.157569 -0.984685 -0.0629117 0.117931 -0.991027 -0.0710228 0.00507077 -0.997462 
-0.108734 -0.0927058 -0.989739 -0.0722786 -0.0375769 -0.996676 -0.149019 0.0136443 -0.98874 
-0.0120147 -0.00638617 -0.999907 -0.0941657 0.134409 -0.986442 -0.0259822 0.0784098 -0.996583 
-0.143444 0.0945905 -0.985128 0.506172 -0.0892198 -0.857805 0.366763 -0.0440844 -0.929269 
0.084137 0.0199383 -0.996255 -0.127969 0.0850094 -0.988128 -0.197726 0.0225918 -0.979997 
-0.0524468 -0.0647159 -0.996525 -0.125701 0.146487 -0.981193 -0.143697 0.190091 -0.971193 
0.107027 -0.0542173 -0.992777 -0.205311 0.105908 -0.97295 0.071718 -0.0533794 -0.995996 
0.127733 -0.0750706 -0.988963 -0.134954 0.0429467 -0.989921 -0.0835282 -0.022423 -0.996253 
-0.112253 0.0322454 -0.993156 0.478473 -0.285806 -0.830288 0.444517 -0.315097 -0.838522 
0.438335 -0.279992 -0.854088 0.199931 -0.215281 -0.955867 -0.0622633 -0.0809766 -0.994769 
-0.214736 0.0395473 -0.975871 0.0368498 0.086316 -0.995586 0.0355424 -0.0448392 -0.998362 
-0.158284 0.0482542 -0.986214 -0.053659 -0.0672032 -0.996295 -0.275959 0.0967758 -0.956285 
-0.052988 0.01037 -0.998541 0.318143 -0.411499 -0.854081 0.293101 -0.421163 -0.85832 
0.288478 -0.405196 -0.867523 0.197842 -0.441335 -0.875261 0.128875 -0.340301 -0.931443 
-0.0247993 -0.12428 -0.991937 -0.120002 0.105656 -0.987135 -0.0454712 -0.0793818 -0.995807 
-0.138372 -0.0929745 -0.986007 -0.0405429 -0.0617488 -0.997268 -0.0760067 -0.000739806 -0.997107 
-0.04389 -0.064466 -0.996954 -0.0450148 0.0150707 -0.998873 0.243728 -0.426981 -0.870795 
0.257757 -0.420718 -0.869803 0.246008 -0.403433 -0.881318 0.230835 -0.48803 -0.841749 
0.073501 -0.142126 -0.987116 -0.146568 -0.113623 -0.982653 -0.189801 -0.0411676 -0.980959 
0.0166228 -0.475006 -0.879826 -0.124544 -0.423674 -0.897212 -0.114213 -0.440871 -0.890274 
-0.118295 -0.427174 -0.896397 
