# vtk DataFile Version 4.2
vtk output
ASCII
DATASET POLYDATA
POINTS 524 float
-26.0734 -43.0798 -14.1314 -18.1481 -43.0798 -15.872 -10.2229 -43.0798 -15.7705 
-33.9987 -35.1545 -16.38 -26.0734 -35.1545 -18.5413 -18.1481 -35.1545 -19.5881 
-10.2229 -35.1545 -19.1624 -2.29759 -35.1545 -17.2794 5.62768 -35.1545 -15.6723 
13.5529 -35.1545 -14.1402 -41.9239 -27.2292 -15.6007 -33.9987 -27.2292 -18.9261 
-26.0734 -27.2292 -20.913 -18.1481 -27.2292 -20.727 -10.2229 -27.2292 -19.9155 
-2.29759 -27.2292 -18.374 5.62768 -27.2292 -16.5998 13.5529 -27.2292 -16.493 
21.4782 -27.2292 -16.89 29.4035 -27.2292 -15.8348 -41.9239 -19.304 -18.5889 
-33.9987 -19.304 -20.2406 -26.0734 -19.304 -20.8078 -18.1481 -19.304 -20.6123 
-10.2229 -19.304 -19.591 -2.29759 -19.304 -17.9457 5.62768 -19.304 -16.9366 
13.5529 -19.304 -17.538 21.4782 -19.304 -18.3961 29.4035 -19.304 -18.3202 
37.3287 -19.304 -16.3578 -49.8492 -11.3787 -16.1965 -41.9239 -11.3787 -19.2786 
-33.9987 -11.3787 -20.2363 -26.0734 -11.3787 -20.1536 -18.1481 -11.3787 -19.7173 
-10.2229 -11.3787 -19.7932 -2.29759 -11.3787 -18.2708 5.62768 -11.3787 -18.2458 
13.5529 -11.3787 -18.4723 21.4782 -11.3787 -18.8977 29.4035 -11.3787 -19.1052 
37.3287 -11.3787 -18.3752 45.254 -11.3787 -15.6137 -49.8492 -3.45342 -17.2634 
-41.9239 -3.45342 -19.8461 -33.9987 -3.45342 -20.4149 -26.0734 -3.45342 -19.8522 
-18.1481 -3.45342 -19.4272 -10.2229 -3.45342 -21.8316 -2.29759 -3.45342 -18.3823 
5.62768 -3.45342 -18.6224 13.5529 -3.45342 -18.5208 21.4782 -3.45342 -18.804 
29.4035 -3.45342 -19.7697 37.3287 -3.45342 -19.4982 45.254 -3.45342 -17.4953 
-49.8492 4.47185 -17.917 -41.9239 4.47185 -20.2627 -33.9987 4.47185 -20.6842 
-26.0734 4.47185 -20.0193 -18.1481 4.47185 -19.2837 -10.2229 4.47185 -20.512 
-2.29759 4.47185 -17.8537 5.62768 4.47185 -15.9888 13.5529 4.47185 -16.4326 
21.4782 4.47185 -18.425 29.4035 4.47185 -19.7303 37.3287 4.47185 -19.7348 
45.254 4.47185 -17.7046 -49.8492 12.3971 -18.1084 -41.9239 12.3971 -20.0601 
-33.9987 12.3971 -20.9013 -26.0734 12.3971 -20.4922 -18.1481 12.3971 -19.5185 
-10.2229 12.3971 -18.9214 -2.29759 12.3971 -17.8876 13.5529 12.3971 -15.7136 
21.4782 12.3971 -17.9586 29.4035 12.3971 -19.2195 37.3287 12.3971 -19.1609 
45.254 12.3971 -16.6062 -49.8492 20.3224 -16.2962 -41.9239 20.3224 -20.5822 
-33.9987 20.3224 -21.3397 -26.0734 20.3224 -21.1893 -18.1481 20.3224 -20.7645 
-10.2229 20.3224 -19.9445 -2.29759 20.3224 -18.0301 21.4782 20.3224 -17.2094 
29.4035 20.3224 -18.3554 37.3287 20.3224 -17.8523 45.254 20.3224 -14.9071 
-41.9239 28.2477 -17.5331 -33.9987 28.2477 -19.809 -26.0734 28.2477 -21.7321 
-18.1481 28.2477 -20.9076 -10.2229 28.2477 -20.8687 -2.29759 28.2477 -17.3073 
29.4035 28.2477 -14.9537 37.3287 28.2477 -14.7193 -33.9987 36.1729 -17.1201 
-26.0734 36.1729 -18.602 -18.1481 36.1729 -19.533 -10.2229 36.1729 -18.5222 
-26.0734 -43.1863 -14.0185 -18.1481 -45.0911 -14.0185 -10.2229 -45.1155 -14.0185 
-26.2606 -43.0798 -14.0185 -33.9987 -38.026 -14.0185 -2.62986 -43.0798 -14.0185 
-2.29759 -42.9257 -14.0185 -2.29759 -43.0798 -13.9441 5.62768 -39.1633 -14.0185 
5.62768 -43.0798 -11.7625 13.5529 -35.3718 -14.0185 13.5529 -43.0798 -8.62629 
-37.1693 -35.1545 -14.0185 -41.9239 -29.6373 -14.0185 14.4621 -35.1545 -14.0185 
21.4782 -33.3203 -14.0185 21.4782 -35.1545 -12.9756 29.4035 -30.7646 -14.0185 
29.4035 -35.1545 -10.3284 -43.7369 -27.2292 -14.0185 34.5793 -27.2292 -14.0185 
37.3287 -24.9117 -14.0185 37.3287 -27.2292 -12.3372 -48.1304 -19.304 -14.0185 
-49.8492 -16.6291 -14.0185 -49.8492 -19.304 -11.1803 42.1473 -19.304 -14.0185 
45.254 -15.2849 -14.0185 45.254 -19.304 -11.3714 -52.2643 -11.3787 -14.0185 
47.5899 -11.3787 -14.0185 53.1793 -11.3787 -7.74362 -53.636 -3.45342 -14.0185 
50.776 -3.45342 -14.0185 53.1793 -3.45342 -11.8497 -54.5743 4.47185 -14.0185 
-57.7745 4.47185 -7.62315 5.62768 10.4385 -14.0185 51.6301 4.47185 -14.0185 
53.1793 4.47185 -12.7949 -54.685 12.3971 -14.0185 -57.7745 12.3971 -7.17065 
4.51156 12.3971 -14.0185 7.84505 12.3971 -14.0185 5.62768 12.3971 -13.3926 
13.5529 19.876 -14.0185 49.3899 12.3971 -14.0185 53.1793 12.3971 -10.6839 
-52.2987 20.3224 -14.0185 -49.8492 24.6056 -14.0185 4.07634 20.3224 -14.0185 
5.62768 20.3224 -13.0934 13.7746 20.3224 -14.0185 13.5529 20.3224 -13.922 
21.4782 26.0664 -14.0185 46.6181 20.3224 -14.0185 45.254 22.2966 -14.0185 
53.1793 20.3224 -7.19306 -46.9109 28.2477 -14.0185 -49.8492 28.2477 -9.68734 
-41.9239 33.5874 -14.0185 2.54481 28.2477 -14.0185 -2.29759 36.1066 -14.0185 
5.62768 28.2477 -11.8631 13.5529 28.2477 -10.783 26.377 28.2477 -14.0185 
21.4782 28.2477 -12.4568 29.4035 29.4075 -14.0185 38.9977 28.2477 -14.0185 
37.3287 29.25 -14.0185 45.254 28.2477 -9.79501 -39.1954 36.1729 -14.0185 
-41.9239 36.1729 -10.2589 -33.9987 39.4876 -14.0185 -26.0734 42.3836 -14.0185 
-18.1481 43.6611 -14.0185 -2.34812 36.1729 -14.0185 -10.2229 41.7735 -14.0185 
-2.29759 36.1729 -13.973 -26.0734 44.0982 -9.65881 -18.1481 44.0982 -13.0362 
-10.2229 44.0982 -8.6414 -26.0734 -46.2642 -6.09321 -18.1481 -49.3253 -6.09321 
-10.2229 -50.5681 -6.09321 -2.29759 -49.9918 -6.09321 5.62768 -48.4343 -6.09321 
13.5529 -45.5186 -6.09321 -31.6455 -43.0798 -6.09321 -33.9987 -41.5422 -6.09321 
19.4288 -43.0798 -6.09321 21.4782 -42.2681 -6.09321 21.4782 -43.0798 -2.17131 
29.4035 -38.1827 -6.09321 -41.0459 -35.1545 -6.09321 -41.9239 -34.1761 -6.09321 
33.5754 -35.1545 -6.09321 37.3287 -32.0327 -6.09321 -47.1145 -27.2292 -6.09321 
-49.8492 -22.7075 -6.09321 42.1853 -27.2292 -6.09321 45.254 -23.8214 -6.09321 
-51.7778 -19.304 -6.09321 -49.8492 -19.304 -1.97573 49.0135 -19.304 -6.09321 
53.1793 -13.0971 -6.09321 -55.2606 -11.3787 -6.09321 54.1857 -11.3787 -6.09321 
-57.2385 -3.45342 -6.09321 -57.7745 0.365762 -6.09321 57.1436 -3.45342 -6.09321 
-58.2993 4.47185 -6.09321 -57.7745 4.47185 -4.81879 58.3894 4.47185 -6.09321 
-58.1755 12.3971 -6.09321 -57.7745 13.7289 -6.09321 -57.7745 12.3971 -5.05551 
56.6232 12.3971 -6.09321 -55.5899 20.3224 -6.09321 53.967 20.3224 -6.09321 
53.1793 21.6565 -6.09321 -51.5573 28.2477 -6.09321 -49.8492 30.4902 -6.09321 
-49.8492 28.2477 -0.976909 5.62768 34.7811 -6.09321 13.5529 31.9413 -6.09321 
21.4782 34.1466 -6.09321 29.4035 35.9685 -6.09321 37.3287 34.9694 -6.09321 
48.4898 28.2477 -6.09321 45.254 31.0302 -6.09321 -44.3187 36.1729 -6.09321 
-41.9239 38.2916 -6.09321 -41.9239 36.1729 1.67841 -33.9987 42.5217 -6.09321 
4.05051 36.1729 -6.09321 -2.29759 41.0291 -6.09321 5.62768 36.1729 -3.0596 
21.4782 36.1729 1.02658 29.4035 36.1729 -5.20211 -29.281 44.0982 -6.09321 
-26.0734 45.0789 -6.09321 -26.0734 44.0982 -1.28378 -18.1481 46.166 -6.09321 
-8.4896 44.0982 -6.09321 -10.2229 44.8642 -6.09321 -10.2229 44.0982 1.24997 
-26.0734 -44.2518 1.83206 -18.1481 -47.7582 1.83206 -10.2229 -49.8061 1.83206 
-2.29759 -50.8962 1.83206 5.62768 -50.1446 1.83206 13.5529 -47.5553 1.83206 
21.4782 -43.7994 1.83206 -27.6806 -43.0798 1.83206 -33.9987 -38.4008 1.83206 
-26.0734 -43.0798 3.36051 -18.1481 -43.0798 8.12078 22.7228 -43.0798 1.83206 
21.4782 -43.0798 4.25052 29.4035 -38.761 1.83206 -37.4776 -35.1545 1.83206 
-41.9239 -29.4609 1.83206 -33.9987 -35.1545 5.77003 33.8749 -35.1545 1.83206 
29.4035 -35.1545 8.84867 37.3287 -31.9123 1.83206 -43.7989 -27.2292 1.83206 
-41.9239 -27.2292 3.76082 41.7941 -27.2292 1.83206 37.3287 -27.2292 8.77401 
45.254 -23.4945 1.83206 -47.8824 -19.304 1.83206 -49.8492 -14.7182 1.83206 
-41.9239 -19.304 8.57903 48.8084 -19.304 1.83206 45.254 -19.304 7.99819 
53.1793 -13.5347 1.83206 -51.7045 -11.3787 1.83206 -49.8492 -11.3787 3.54409 
54.5858 -11.3787 1.83206 53.1793 -11.3787 5.19677 -54.427 -3.45342 1.83206 
-49.8492 -3.45342 6.12149 58.3725 -3.45342 1.83206 -54.7425 4.47185 1.83206 
-49.8492 4.47185 7.61139 59.7317 4.47185 1.83206 -54.7753 12.3971 1.83206 
-49.8492 12.3971 7.85026 58.831 12.3971 1.83206 -53.2862 20.3224 1.83206 
-49.8492 26.3708 1.83206 -49.8492 20.3224 5.67577 56.1765 20.3224 1.83206 
53.1793 25.409 1.83206 -48.872 28.2477 1.83206 -41.9239 36.1291 1.83206 
13.5529 35.6744 1.83206 37.3287 35.9192 1.83206 50.9737 28.2477 1.83206 
45.254 32.8641 1.83206 -41.8661 36.1729 1.83206 -33.9987 40.8902 1.83206 
-26.0734 43.4552 1.83206 -10.2229 44.0385 1.83206 -2.29759 41.8513 1.83206 
11.7907 36.1729 1.83206 5.62768 38.0309 1.83206 19.1872 36.1729 1.83206 
13.5529 36.1729 7.4794 21.4782 36.3674 1.83206 21.4782 36.1729 4.71609 
36.1461 36.1729 1.83206 29.4035 37.6196 1.83206 29.4035 36.1729 8.75414 
-21.3779 44.0982 1.83206 -11.1789 44.0982 1.83206 -18.1481 44.5419 1.83206 
-18.1481 44.0982 3.01494 -10.2229 -44.4797 9.75732 -2.29759 -46.8504 9.75732 
5.62768 -47.0509 9.75732 13.5529 -44.7393 9.75732 -26.0734 -36.588 9.75732 
-14.2012 -43.0798 9.75732 -18.1481 -41.3223 9.75732 -10.2229 -43.0798 11.003 
-2.29759 -43.0798 13.0256 5.62768 -43.0798 13.3083 17.2993 -43.0798 9.75732 
13.5529 -43.0798 11.4102 21.4782 -40.8628 9.75732 -28.0606 -35.1545 9.75732 
-33.9987 -29.3972 9.75732 -26.0734 -35.1545 10.7535 -18.1481 -35.1545 13.6786 
-10.2229 -35.1545 15.405 -2.29759 -35.1545 16.6732 5.62768 -35.1545 16.8903 
13.5529 -35.1545 16.167 28.6895 -35.1545 9.75732 21.4782 -35.1545 14.2607 
29.4035 -34.5314 9.75732 -35.5572 -27.2292 9.75732 -33.9987 -27.2292 10.8594 
-26.0734 -27.2292 15.0176 -18.1481 -27.2292 17.0634 36.5813 -27.2292 9.75732 
29.4035 -27.2292 14.9659 37.3287 -26.357 9.75732 -40.2491 -19.304 9.75732 
-41.9239 -14.0421 9.75732 -33.9987 -19.304 13.4172 -26.0734 -19.304 17.0727 
29.4035 -19.304 17.5528 43.8433 -19.304 9.75732 37.3287 -19.304 14.096 
45.254 -17.768 9.75732 -42.6531 -11.3787 9.75732 -41.9239 -11.3787 10.2888 
-33.9987 -11.3787 14.5635 37.3287 -11.3787 16.8596 50.4513 -11.3787 9.75732 
45.254 -11.3787 13.7091 53.1793 -8.03932 9.75732 -45.124 -3.45342 9.75732 
-41.9239 -3.45342 11.8186 -33.9987 -3.45342 15.6446 45.254 -3.45342 17.1798 
55.7719 -3.45342 9.75732 53.1793 -3.45342 12.7684 -46.95 4.47185 9.75732 
-41.9239 4.47185 12.9047 -33.9987 4.47185 16.556 57.3765 4.47185 9.75732 
53.1793 4.47185 14.6411 -47.4026 12.3971 9.75732 -41.9239 12.3971 13.2462 
[...]
POINT_DATA 524
SCALARS ImageScalars float
LOOKUP_TABLE default
0 0 0 0 0 0 0 0 0 
0 0 0 0 0 0 0 0 0 
0 0 0 0 0 0 0 0 0 
0 0 0 0 0 0 0 0 0 
0 0 0 0 0 0 0 0 0 
0 0 0 0 0 0 0 0 0 
0 0 0 0 0 0 0 0 0 
0 0 0 0 0 0 0 0 0 
0 0 0 0 0 0 0 0 0 
0 0 0 0 0 0 0 0 0 
0 0 0 0 0 0 0 0 0 
0 0 0 0 0 0 0 0 0 
0 0 0 0 0 0 0 0 0 
0 0 0 0 0 0 0 0 0 
0 0 0 0 0 0 0 0 0 
0 0 0 0 0 0 0 0 0 
0 0 0 0 0 0 0 0 0 
0 0 0 0 0 0 0 0 0 
0 0 0 0 0 0 0 0 0 
0 0 0 0 0 0 0 0 0 
0 0 0 0 0 0 0 0 0 
0 0 0 0 0 0 0 0 0 
0 0 0 0 0 0 0 0 0 
0 0 0 0 0 0 0 0 0 
0 0 0 0 0 0 0 0 0 
0 0 0 0 0 0 0 0 0 
0 0 0 0 0 0 0 0 0 
0 0 0 0 0 0 0 0 0 
0 0 0 0 0 0 0 0 0 
0 0 0 0 0 0 0 0 0 
0 0 0 0 0 0 0 0 0 
0 0 0 0 0 0 0 0 0 
0 0 0 0 0 0 0 0 0 
0 0 0 0 0 0 0 0 0 
0 0 0 0 0 0 0 0 0 
0 0 0 0 0 0 0 0 0 
0 0 0 0 0 0 0 0 0 
0 0 0 0 0 0 0 0 0 
0 0 0 0 0 0 0 0 0 
0 0 0 0 0 0 0 0 0 
0 0 0 0 0 0 0 0 0 
0 0 0 0 0 0 0 0 0 
0 0 0 0 0 0 0 0 0 
0 0 0 0 0 0 0 0 0 
0 0 0 0 0 0 0 0 0 
0 0 0 0 0 0 0 0 0 
0 0 0 0 0 0 0 0 0 
0 0 0 0 0 0 0 0 0 
0 0 0 0 0 0 0 0 0 
0 0 0 0 0 0 0 0 0 
0 0 0 0 0 0 0 0 0 
0 0 0 0 0 0 0 0 0 
0 0 0 0 0 0 0 0 0 
0 0 0 0 0 0 0 0 0 
0 0 0 0 0 0 0 0 0 
0 0 0 0 0 0 0 0 0 
0 0 0 0 0 0 0 0 0 
0 0 0 0 0 0 0 0 0 
0 0 
NORMALS Normals float
0.338346 0.723223 0.602055 0.0865857 0.611861 0.786211 -0.105214 0.555829 0.824611 
0.454981 0.517507 0.724692 0.183728 0.362799 0.913576 0.040562 0.262582 0.964057 
-0.141013 0.225417 0.964003 -0.213974 0.242415 0.946282 -0.17774 0.257493 0.949792 
-0.161372 0.399121 0.902586 0.57493 0.431118 0.695408 0.297105 0.219596 0.92925 
0.111268 0.135748 0.984475 -0.0635563 0.0595568 0.9962 -0.147364 0.0241437 0.988788 
-0.209207 0.0385707 0.97711 -0.116391 0.0813055 0.98987 0.0169089 0.195303 0.980597 
-0.0390863 0.304265 0.951785 -0.219771 0.383485 0.897017 0.410876 0.220772 0.884557 
0.121517 0.0860695 0.988851 0.0215785 -0.0476723 0.99863 -0.0757802 -0.0635186 0.995099 
-0.163167 -0.00866598 0.98656 -0.168887 -0.00700188 0.985611 -0.0229577 0.0989726 0.994825 
0.0911556 0.12294 0.988219 0.0498458 0.121304 0.991363 -0.125527 0.20411 0.970867 
-0.328197 0.307531 0.893147 0.611454 0.24574 0.752155 0.231576 0.0679245 0.970443 
0.0589577 0.0109387 0.998201 -0.0327497 -0.0600305 0.997659 -0.022853 -0.0740887 0.99699 
-0.0871204 0.130799 0.987574 -0.0971456 0.0260549 0.994929 0.0132131 0.107603 0.994106 
0.0406162 0.061804 0.997262 0.0395037 0.0251394 0.998903 -0.0313014 0.0885981 0.995575 
-0.197025 0.189578 0.961895 -0.456248 0.285974 0.842649 0.518263 0.109643 0.848164 
0.170912 0.0647364 0.983157 -0.00105909 0.0282412 0.999601 -0.0616564 -0.00846009 0.998062 
0.114373 -0.0282337 0.993037 -0.0235013 0.0544332 0.998241 -0.223654 -0.0269171 0.974297 
0.00613263 -0.145888 0.989282 0.0123404 -0.123634 0.992251 0.0792587 -0.0286853 0.996441 
0.0439922 0.0389772 0.998271 -0.132552 0.0837466 0.987632 -0.383035 0.115242 0.916517 
0.468856 0.0522314 0.881729 0.15032 0.013226 0.988549 -0.0162837 0.0306702 0.999397 
-0.0879885 0.0401478 0.995312 0.0200688 0.00591515 0.999781 -0.0734782 -0.190907 0.978854 
-0.27909 -0.0266034 0.959896 -0.0780425 -0.295013 0.952301 0.148308 -0.176454 0.973072 
0.204692 -0.0534547 0.977366 0.0775186 -0.0343521 0.996399 -0.117366 -0.0207599 0.992872 
-0.370309 -0.0501643 0.927553 0.453576 -0.099868 0.885605 0.176099 0.0151161 0.984257 
0.0249983 0.0399559 0.998889 -0.0867213 0.0733233 0.993531 -0.100384 0.0946746 0.990434 
-0.099729 -0.0222078 0.994767 -0.309594 0.0104731 0.950811 0.275398 -0.143932 0.950494 
0.208942 -0.0754882 0.97501 0.0746877 -0.0833734 0.993716 -0.148256 -0.124827 0.981039 
-0.420069 -0.162302 0.892861 0.606006 -0.306947 0.733853 0.28181 -0.126051 0.951154 
0.031272 -0.074912 0.9967 -0.035753 0.075473 0.996507 -0.077476 0.0869967 0.993191 
-0.166939 0.120422 0.978586 -0.404279 -0.0316391 0.914088 0.237251 -0.271783 0.932655 
0.0408052 -0.236672 0.970732 -0.187327 -0.248356 0.950383 -0.487306 -0.289567 0.823822 
0.398895 -0.438782 0.805204 0.225064 -0.23256 0.946183 0.071137 -0.144586 0.986932 
-0.0504463 -0.0682235 0.996394 -0.202357 -0.0674292 0.976988 -0.495047 -0.212212 0.842552 
0.113094 -0.544763 0.830929 -0.197525 -0.529666 0.824887 0.341453 -0.567348 0.74935 
0.13634 -0.462297 0.876181 0.00129899 -0.374422 0.927257 -0.297105 -0.454304 0.839843 
0.338754 0.72813 0.595879 0.109384 0.710621 0.69502 -0.0914997 0.63815 0.764456 
0.343275 0.726042 0.595839 0.503992 0.624756 0.596382 -0.189208 0.526622 0.828776 
-0.193051 0.519327 0.832485 -0.193184 0.526845 0.827716 -0.211325 0.391721 0.895487 
-0.259091 0.574413 0.776481 -0.165121 0.40451 0.899504 -0.304824 0.703745 0.641736 
0.553928 0.580292 0.597013 0.627795 0.487579 0.606745 -0.161133 0.415008 0.895435 
-0.123099 0.482001 0.86748 -0.169858 0.55662 0.813217 -0.27223 0.491372 0.827311 
-0.415566 0.712025 0.565972 0.666863 0.44397 0.598485 -0.388102 0.479264 0.787199 
-0.434478 0.463129 0.772489 -0.519952 0.567052 0.638828 0.676542 0.399588 0.618564 
0.705916 0.362586 0.608452 0.809454 0.454711 0.371513 -0.470413 0.404865 0.784089 
-0.514589 0.37082 0.773105 -0.630586 0.520485 0.575723 0.752203 0.269429 0.601331 
-0.549059 0.30085 0.779758 -0.833552 0.413947 0.365841 0.75964 0.129592 0.637301 
-0.606598 0.151443 0.780451 -0.73976 0.182548 0.647635 0.77133 0.0551613 0.63404 
0.996818 0.0531931 0.0593707 -0.126734 -0.218839 0.967496 -0.592185 -0.0501129 0.804243 
-0.674346 -0.0493809 0.736763 0.780842 -0.132697 0.610472 0.98435 -0.166315 0.05826 
-0.17921 -0.1585 0.970959 -0.0198561 -0.183738 0.982775 -0.143885 -0.184176 0.972305 
0.272723 -0.22949 0.934322 -0.567707 -0.182737 0.802693 -0.741863 -0.222076 0.632709 
0.71862 -0.351629 0.599952 0.6762 -0.445772 0.58655 -0.290615 -0.0753475 0.953869 
-0.238874 -0.0870707 0.967139 0.271065 -0.236259 0.933116 0.270374 -0.235402 0.933533 
0.201891 -0.525251 0.826651 -0.53332 -0.305075 0.788986 -0.510667 -0.360366 0.780612 
-0.791992 -0.392339 0.46778 0.630381 -0.492325 0.600197 0.785308 -0.559964 0.264066 
0.531249 -0.55322 0.641656 -0.429846 -0.296923 0.852683 -0.57613 -0.504022 0.643457 
-0.347377 -0.391212 0.852222 0.0279108 -0.639908 0.767945 0.143965 -0.574767 0.805554 
0.192112 -0.630811 0.751778 0.12189 -0.58854 0.799227 -0.267789 -0.549693 0.791282 
-0.201932 -0.580655 0.78871 -0.570349 -0.624293 0.533817 0.484945 -0.61839 0.618403 
0.599787 -0.710715 0.367614 0.352461 -0.733118 0.581644 0.217011 -0.788247 0.575824 
-0.0274995 -0.830493 0.55635 -0.574867 -0.506117 0.642942 -0.332791 -0.744185 0.579171 
-0.576591 -0.506961 0.640729 0.228176 -0.9429 0.242643 -0.0256185 -0.877577 0.478751 
-0.306665 -0.925709 0.221402 0.428053 0.901385 0.0653913 0.249025 0.962238 0.10993 
0.0438935 0.979353 0.197333 -0.114049 0.929068 0.351888 -0.240013 0.865268 0.44012 
-0.341677 0.806451 0.482592 0.54459 0.838389 0.0229325 0.596845 0.802248 0.0132017 
-0.364484 0.824804 0.432262 -0.370491 0.832557 0.411806 -0.43822 0.881865 0.174005 
-0.495297 0.814071 0.303265 0.724813 0.688934 0.00399591 0.745031 0.66703 0.000400515 
-0.577596 0.768916 0.274136 -0.647899 0.722805 0.240377 0.84951 0.52699 0.0247735 
0.87405 0.485807 -0.00522861 -0.705015 0.674547 0.218952 -0.735691 0.639566 0.222967 
0.888701 0.457588 -0.0286991 0.861325 0.405353 -0.306282 -0.771635 0.596086 0.221946 
-0.84435 0.465001 0.26617 0.945365 0.325918 0.00785046 -0.859242 0.427309 0.281264 
0.982154 0.184216 0.0379352 0.99252 0.12206 0.00249671 -0.90406 0.233254 0.358146 
0.997789 0.0567694 -0.0345542 0.993589 0.0455615 -0.103465 -0.916144 -0.0244851 0.400101 
0.986564 -0.163182 -0.00795182 0.98005 -0.198615 0.00732013 0.986674 -0.150274 -0.0623831 
-0.862054 -0.237406 0.447773 0.928346 -0.365886 0.0655846 -0.812648 -0.400811 0.42303 
-0.798929 -0.430978 0.419489 0.826405 -0.559711 0.061466 0.790109 -0.610831 0.0511184 
0.806457 -0.531174 -0.259771 -0.476878 -0.706545 0.522859 -0.0166341 -0.817033 0.576351 
0.213696 -0.864561 0.454827 0.0415864 -0.921234 0.386779 -0.244231 -0.925231 0.290343 
-0.667654 -0.636075 0.386842 -0.566373 -0.733966 0.374854 0.652125 -0.754719 0.0716419 
0.597226 -0.799202 0.0677964 0.58356 -0.737967 -0.338912 0.370113 -0.926657 0.0657518 
-0.524893 -0.721649 0.451343 -0.516324 -0.815 0.263031 -0.454301 -0.804778 0.382026 
0.126951 -0.984842 0.118196 0.0330474 -0.939576 0.340741 0.265926 -0.963004 0.0436571 
0.209724 -0.977183 0.0336039 0.212669 -0.963559 -0.162251 -0.0125027 -0.999311 0.0349386 
-0.32311 -0.939137 0.116713 -0.285243 -0.954291 0.0892533 -0.169301 -0.974987 -0.144006 
0.472987 0.776929 -0.415529 0.306653 0.872615 -0.380141 0.181564 0.936551 -0.299844 
0.0197699 0.990428 -0.136606 -0.201153 0.977441 -0.064389 -0.363296 0.930641 -0.0438646 
-0.475341 0.878419 -0.0493105 0.496364 0.753575 -0.430984 0.576203 0.681615 -0.45099 
0.473602 0.733897 -0.486925 0.316978 0.676258 -0.664981 -0.491962 0.868591 -0.0593541 
-0.479969 0.860056 -0.173012 -0.588599 0.795751 -0.14259 0.640635 0.613113 -0.462254 
0.681036 0.531195 -0.504007 0.555712 0.588678 -0.587063 -0.647482 0.742313 -0.172445 
-0.561226 0.653104 -0.50841 -0.687534 0.698782 -0.197488 0.707222 0.497356 -0.502469 
0.65852 0.490449 -0.570798 -0.711085 0.668317 -0.218428 -0.63307 0.562903 -0.531378 
-0.721776 0.659137 -0.211133 0.77419 0.330179 -0.540011 0.745743 0.326075 -0.580984 
0.617746 0.270124 -0.738528 -0.748902 0.631641 -0.200439 -0.643309 0.581401 -0.498123 
-0.829524 0.535033 -0.160095 0.745047 0.328024 -0.58078 0.692059 0.309056 -0.652333 
-0.855421 0.495846 -0.14964 -0.797094 0.518246 -0.309939 0.82835 0.137876 -0.542979 
0.659074 0.193249 -0.726826 -0.952218 0.295927 -0.0755554 0.855199 0.0161948 -0.518047 
0.644914 0.0817299 -0.759872 -0.997714 0.0282974 -0.0613753 0.871161 -0.0705799 -0.485899 
0.647954 -0.0815594 -0.7573 -0.979631 -0.200128 0.0164823 0.83383 -0.294373 -0.466981 
0.770444 -0.452061 -0.449508 0.733008 -0.293751 -0.613522 -0.899188 -0.435941 0.0376379 
-0.818048 -0.574362 0.0301081 0.756313 -0.493357 -0.429639 0.582505 -0.734969 -0.347142 
-0.0896422 -0.969338 0.228799 -0.257999 -0.965739 -0.0280162 -0.727892 -0.685415 0.0194698 
-0.530923 -0.847414 -0.00322274 0.580905 -0.736527 -0.346521 0.393588 -0.860684 -0.322973 
0.209981 -0.931606 -0.296679 -0.159185 -0.97374 -0.162757 -0.357188 -0.933864 0.0177502 
-0.155906 -0.961657 0.225629 -0.37916 -0.904046 0.197329 0.0578963 -0.990328 0.126088 
-0.159903 -0.985605 -0.0548924 0.118157 -0.989318 0.0853697 0.067624 -0.996673 -0.0454997 
-0.223144 -0.974475 -0.0246107 -0.026476 -0.999639 -0.00447698 -0.072244 -0.942858 -0.325269 
0.105656 -0.952615 -0.285238 -0.136238 -0.974699 -0.177203 0.0330889 -0.959585 -0.279467 
0.0467289 -0.950421 -0.307436 0.235655 0.654054 -0.718804 0.120116 0.743518 -0.65784 
-0.111029 0.783018 -0.61201 -0.30564 0.765035 -0.566839 0.385125 0.538309 -0.749602 
0.269665 0.63152 -0.726955 0.297968 0.60348 -0.739613 0.233211 0.607527 -0.759291 
0.120645 0.580785 -0.805067 -0.0829083 0.590775 -0.802565 -0.375645 0.75495 -0.537532 
-0.273711 0.696599 -0.663198 -0.449657 0.725223 -0.521402 0.411141 0.522945 -0.746654 
0.516485 0.404819 -0.754563 0.37017 0.513932 -0.773853 0.248968 0.44501 -0.860221 
0.175668 0.370984 -0.911872 0.0862575 0.287664 -0.953839 -0.0296194 0.283685 -0.95846 
-0.14119 0.365171 -0.920172 -0.539236 0.628637 -0.560393 -0.340534 0.484084 -0.80604 
-0.547036 0.620832 -0.561533 0.534457 0.366934 -0.76139 0.511723 0.349454 -0.78487 
0.334465 0.336619 -0.880239 0.155671 0.294247 -0.942966 -0.607798 0.537948 -0.584118 
-0.416353 0.399724 -0.816621 -0.606741 0.5331 -0.589636 0.57185 0.249152 -0.781608 
0.572243 0.201176 -0.795026 0.452897 0.198515 -0.869181 0.305902 0.150975 -0.940016 
-0.292468 0.188067 -0.9376 -0.591441 0.533817 -0.604348 -0.443602 0.376268 -0.813412 
-0.59118 0.53435 -0.604133 0.564172 0.178603 -0.806109 0.553686 0.170045 -0.815179 
0.410577 0.127324 -0.902893 -0.262543 0.26334 -0.92829 -0.638152 0.496194 -0.588688 
-0.459397 0.414649 -0.785507 -0.712655 0.446821 -0.540808 0.543945 0.157593 -0.82419 
0.497981 0.139318 -0.855924 0.377707 0.116466 -0.918571 -0.323829 0.283756 -0.902562 
-0.786767 0.332196 -0.520234 -0.662149 0.330032 -0.672783 0.554426 0.0815206 -0.828231 
0.48319 0.0785161 -0.871988 0.356953 0.0816672 -0.930545 -0.86133 0.0778732 -0.502042 
-0.665031 0.114683 -0.737958 0.56748 -0.0529629 -0.821682 0.49653 -0.0114122 -0.867944 
0.376794 0.00786811 -0.926264 -0.891923 -0.142782 -0.429053 -0.690324 -0.0922504 -0.717595 
0.621127 -0.204741 -0.756494 0.534638 -0.154252 -0.830884 0.385421 -0.109973 -0.916164 
-0.830593 -0.41355 -0.37295 -0.788985 -0.489525 -0.371306 -0.771342 -0.399364 -0.495519 
0.597207 -0.387607 -0.702214 0.583647 -0.411066 -0.700272 0.583989 -0.38781 -0.713134 
0.425125 -0.319331 -0.846934 -0.0273626 -0.957599 -0.286801 -0.077898 -0.923528 -0.375538 
-0.253005 -0.908141 -0.333569 -0.639815 -0.678661 -0.360633 -0.526562 -0.766478 -0.367755 
-0.509053 -0.649433 -0.564891 0.426519 -0.671941 -0.605456 0.417359 -0.682229 -0.600312 
0.419482 -0.66847 -0.614152 0.24534 -0.778711 -0.577424 0.261107 -0.636 -0.726173 
0.130956 -0.85269 -0.505738 0.197722 -0.616185 -0.76238 0.00645305 -0.918225 -0.396006 
-0.180035 -0.950464 -0.253389 -0.30213 -0.94261 -0.142138 -0.266387 -0.787677 -0.555521 
-0.126277 -0.970077 -0.207376 -0.184497 -0.968924 -0.164762 -0.186713 -0.96337 -0.1925 
0.0721031 0.253932 -0.964531 0.0497853 0.184202 -0.981627 -0.00771239 0.171603 -0.985136 
-0.063643 0.243471 -0.967818 -0.177596 0.279659 -0.943531 0.0812716 0.256192 -0.963203 
0.151383 0.250007 -0.956337 0.067422 0.248812 -0.966202 0.0296682 0.133815 -0.990562 
0.00739367 0.0847194 -0.996377 -0.0347243 0.195578 -0.980073 -0.180313 0.279278 -0.943128 
-0.175544 0.277086 -0.944673 0.252273 0.156002 -0.954998 0.310414 0.0897735 -0.946353 
0.155349 0.175409 -0.972162 0.00489481 0.273702 -0.961802 -0.0827079 0.197384 -0.976831 
0.0354019 0.118699 -0.992299 0.0663883 0.158783 -0.985079 -0.279893 0.18158 -0.942703 
-0.110844 0.110663 -0.987657 -0.273709 0.175151 -0.94573 0.313935 0.08177 -0.945917 
0.311497 0.0808253 -0.946804 0.281656 0.158489 -0.946336 0.088731 0.236302 -0.96762 
-0.122422 0.127688 -0.98423 -0.0332722 0.216488 -0.975718 -0.0586765 0.106354 -0.992595 
-0.14993 -0.0283505 -0.98829 -0.206491 0.180286 -0.961696 -0.158493 0.102806 -0.981993 
-0.20254 0.24433 -0.948304 0.343595 0.0864777 -0.935128 0.333231 0.0780063 -0.939613 
0.318179 0.111586 -0.941441 -0.0296486 0.0432478 -0.998624 -0.133516 -0.106515 -0.985306 
0.0146458 -0.0286415 -0.999482 -0.183887 -0.0875599 -0.97904 -0.098413 0.000666108 -0.995145 
-0.00115457 0.121062 -0.992644 -0.264189 0.265591 -0.927181 -0.121353 0.222157 -0.96743 
-0.319952 0.242093 -0.915981 0.335257 0.0817483 -0.938573 0.311911 0.0796557 -0.946766 
0.244496 -0.0115483 -0.969581 -0.105912 -0.0889593 -0.990388 -0.202299 0.0206355 -0.979106 
-0.0144424 -0.0897556 -0.995859 -0.0321088 -0.0560419 -0.997912 0.0501146 0.123167 -0.99112 
0.0586092 0.170802 -0.983561 -0.0945761 0.200705 -0.975076 -0.411473 0.141399 -0.900387 
-0.311601 0.136821 -0.940311 0.349405 0.0124713 -0.936889 0.254404 0.0232783 -0.966818 
0.145122 -0.0469061 -0.988301 -0.0180488 -0.0812118 -0.996533 -0.120523 0.112879 -0.986272 
-0.0603473 0.060562 -0.996339 0.0501754 0.0626504 -0.996773 0.123093 0.0735136 -0.989669 
0.0760975 0.0416498 -0.99623 -0.163876 0.0289015 -0.986058 -0.496887 -0.0421421 -0.866791 
-0.375979 -0.0161061 -0.926488 0.336237 -0.104678 -0.935942 0.257 -0.0940091 -0.961828 
0.140042 -0.0894841 -0.986094 0.0437286 -0.04473 -0.998042 -0.0434657 0.0260561 -0.998715 
-0.0714333 0.044944 -0.996432 -0.0240521 -0.0442489 -0.998731 0.0372595 -0.130816 -0.990706 
0.0106894 -0.193057 -0.981129 -0.148348 -0.263841 -0.95309 -0.45214 -0.275252 -0.848414 
-0.425978 -0.336283 -0.839915 -0.412498 -0.256253 -0.874174 0.294227 -0.303755 -0.906181 
0.276298 -0.332351 -0.901777 0.274575 -0.305053 -0.911894 0.210132 -0.46721 -0.858813 
0.195495 -0.261197 -0.945282 0.0937422 -0.220238 -0.970931 -0.0334292 -0.197188 -0.979796 
-0.227067 -0.608611 -0.760285 -0.126569 -0.230691 -0.96476 -0.177902 -0.514897 -0.838589 
-0.143912 -0.378314 -0.914422 -0.0525663 -0.531081 -0.845689 -0.043237 -0.452926 -0.890499 
-0.0602599 -0.552531 -0.831311 -0.0602187 -0.50659 -0.860081 -0.17823 -0.512169 -0.840189 
-0.175803 -0.512877 -0.840268 -0.175513 -0.511181 -0.841362 0.107965 -0.609627 -0.785301 
0.102813 -0.613744 -0.782782 0.103086 -0.610241 -0.78548 -0.130468 -0.656615 -0.742856 
-0.068876 -0.650956 -0.755985 -0.0647676 -0.617682 -0.783756 
