# vtk DataFile Version 4.2
vtk output
ASCII
DATASET POLYDATA
POINTS 518 float
-15.5099 -33.0321 -18.9459 -7.92765 -33.0321 -20.2712 -0.34544 -33.0321 -20.6588 
7.23677 -33.0321 -19.6964 14.819 -33.0321 -17.7682 -30.6743 -25.4499 -18.8316 
-23.0921 -25.4499 -21.5881 -15.5099 -25.4499 -22.763 -7.92765 -25.4499 -23.0074 
-0.34544 -25.4499 -23.1418 7.23677 -25.4499 -23.173 14.819 -25.4499 -22.7946 
22.4012 -25.4499 -21.8598 29.9834 -25.4499 -19.9558 -38.2565 -17.8677 -18.4673 
-30.6743 -17.8677 -21.363 -23.0921 -17.8677 -23.0897 -15.5099 -17.8677 -23.8325 
-7.92765 -17.8677 -23.7941 -0.34544 -17.8677 -23.5159 7.23677 -17.8677 -23.9645 
14.819 -17.8677 -24.0542 22.4012 -17.8677 -23.8146 29.9834 -17.8677 -23.3808 
37.5656 -17.8677 -21.7047 45.1478 -17.8677 -17.4499 -38.2565 -10.2855 -20.6204 
-30.6743 -10.2855 -22.4806 -23.0921 -10.2855 -22.4637 -15.5099 -10.2855 -22.8241 
-7.92765 -10.2855 -23.6247 -0.34544 -10.2855 -23.2483 7.23677 -10.2855 -23.3591 
14.819 -10.2855 -23.4322 22.4012 -10.2855 -23.6046 29.9834 -10.2855 -23.5352 
37.5656 -10.2855 -22.6268 45.1478 -10.2855 -20.2513 -45.8387 -2.70324 -17.9311 
-38.2565 -2.70324 -21.2454 -30.6743 -2.70324 -21.937 -23.0921 -2.70324 -21.7097 
-15.5099 -2.70324 -21.6419 -7.92765 -2.70324 -24.2635 -0.34544 -2.70324 -23.5095 
7.23677 -2.70324 -23.0361 14.819 -2.70324 -22.3507 22.4012 -2.70324 -22.5036 
29.9834 -2.70324 -22.8958 37.5656 -2.70324 -22.2546 45.1478 -2.70324 -20.4704 
-45.8387 4.87897 -18.7598 -38.2565 4.87897 -21.7005 -30.6743 4.87897 -22.2871 
-23.0921 4.87897 -22.0892 -15.5099 4.87897 -22.3033 -7.92765 4.87897 -23.9479 
-0.34544 4.87897 -21.8807 7.23677 4.87897 -22.2472 14.819 4.87897 -21.0129 
22.4012 4.87897 -20.4683 29.9834 4.87897 -21.2892 37.5656 4.87897 -20.8422 
45.1478 4.87897 -19.0716 -45.8387 12.4612 -18.09 -38.2565 12.4612 -22.0428 
-30.6743 12.4612 -23.1566 -23.0921 12.4612 -22.7199 -15.5099 12.4612 -22.9748 
-7.92765 12.4612 -22.6547 -0.34544 12.4612 -21.2582 7.23677 12.4612 -22.3883 
14.819 12.4612 -21.088 22.4012 12.4612 -19.1 29.9834 12.4612 -18.6068 
37.5656 12.4612 -17.8433 -38.2565 20.0434 -19.8749 -30.6743 20.0434 -21.7847 
-23.0921 20.0434 -22.4913 -15.5099 20.0434 -22.6947 -7.92765 20.0434 -22.5871 
-0.34544 20.0434 -21.932 7.23677 20.0434 -22.4675 14.819 20.0434 -20.8667 
22.4012 20.0434 -18.333 -30.6743 27.6256 -19.0945 -23.0921 27.6256 -20.6773 
-15.5099 27.6256 -21.4916 -7.92765 27.6256 -21.0942 -0.34544 27.6256 -20.7106 
7.23677 27.6256 -20.0808 14.819 27.6256 -17.5451 -15.5099 -35.2661 -16.8589 
-7.92765 -36.8138 -16.8589 -7.92765 -40.6143 -9.33984 -0.34544 -37.0498 -16.8589 
7.23677 -35.6892 -16.8589 14.819 -33.7889 -16.8589 -30.6743 -28.1087 -16.8589 
-30.6743 -33.0321 -10.7764 -22.6713 -33.0321 -16.8589 -23.0921 -32.8511 -16.8589 
-23.0921 -33.0321 -16.6642 17.5758 -33.0321 -16.8589 22.4012 -31.4298 -16.8589 
22.4012 -33.0321 -13.5009 29.9834 -28.8667 -16.8589 -33.6993 -25.4499 -16.8589 
-38.2565 -20.6892 -16.8589 -38.2565 -25.4499 -12.4958 37.4556 -25.4499 -16.8589 
37.5656 -25.3825 -16.8589 37.5656 -25.4499 -16.7788 45.1478 -18.8135 -16.8589 
-40.3727 -17.8677 -16.8589 45.9024 -17.8677 -16.8589 -44.2163 -10.2855 -16.8589 
-45.8387 -6.65686 -16.8589 -45.8387 -10.2855 -15.1672 49.8257 -10.2855 -16.8589 
52.73 -10.2855 -12.4656 -47.1094 -2.70324 -16.8589 51.3433 -2.70324 -16.8589 
52.73 -2.70324 -15.3625 -48.2416 4.87897 -16.8589 50.0412 4.87897 -16.8589 
45.1478 10.2403 -16.8589 52.73 4.87897 -14.9113 -47.4524 12.4612 -16.8589 
-45.8387 16.7165 -16.8589 29.9834 18.0079 -16.8589 41.4724 12.4612 -16.8589 
37.5656 14.7563 -16.8589 45.1478 12.4612 -15.8794 52.73 12.4612 -9.38619 
-43.9857 20.0434 -16.8589 -45.8387 20.0434 -15.2838 -38.2565 26.1306 -16.8589 
27.5742 20.0434 -16.8589 22.4012 23.2924 -16.8589 29.9834 20.0434 -16.1794 
37.5656 20.0434 -14.4285 45.1478 20.0434 -10.65 -36.2998 27.6256 -16.8589 
-38.2565 27.6256 -15.7298 -30.6743 30.5573 -16.8589 -23.0921 33.3425 -16.8589 
-15.5099 34.2025 -16.8589 -7.92765 33.9615 -16.8589 -0.34544 32.5575 -16.8589 
7.23677 31.0397 -16.8589 16.5932 27.6256 -16.8589 14.819 28.3631 -16.8589 
22.4012 27.6256 -14.4558 29.9834 27.6256 -11.579 -30.6743 35.2078 -10.1112 
-23.0921 35.2078 -14.4595 -15.5099 35.2078 -15.5589 -7.92765 35.2078 -14.9718 
-0.34544 35.2078 -11.9175 -7.92765 -40.6382 -9.27665 -30.6743 -33.8343 -9.27665 
-23.0921 -37.3101 -9.27665 -8.12927 -40.6143 -9.27665 -15.5099 -39.626 -9.27665 
-7.17747 -40.6143 -9.27665 -0.34544 -40.3859 -9.27665 7.23677 -38.6738 -9.27665 
14.819 -36.425 -9.27665 22.4012 -34.5769 -9.27665 -31.8283 -33.0321 -9.27665 
-38.2565 -27.7559 -9.27665 28.8052 -33.0321 -9.27665 29.9834 -32.7334 -9.27665 
37.5656 -29.607 -9.27665 -40.3764 -25.4499 -9.27665 43.7542 -25.4499 -9.27665 
45.1478 -24.2062 -9.27665 -45.5352 -17.8677 -9.27665 -45.8387 -17.3064 -9.27665 
-45.8387 -17.8677 -7.8288 50.3631 -17.8677 -9.27665 52.73 -13.6104 -9.27665 
-49.3335 -10.2855 -9.27665 54.2747 -10.2855 -9.27665 -51.7123 -2.70324 -9.27665 
56.1938 -2.70324 -9.27665 -52.7611 4.87897 -9.27665 -53.4209 4.87897 -2.5323 
55.9946 4.87897 -9.27665 -52.2653 12.4612 -9.27665 52.807 12.4612 -9.27665 
52.73 12.5821 -9.27665 -49.5466 20.0434 -9.27665 -45.8387 25.4612 -9.27665 
37.5656 26.518 -9.27665 46.5873 20.0434 -9.27665 45.1478 21.4173 -9.27665 
-43.8685 27.6256 -9.27665 -38.2565 32.0282 -9.27665 7.23677 34.6327 -9.27665 
14.819 33.4356 -9.27665 22.4012 32.1472 -9.27665 35.2636 27.6256 -9.27665 
29.9834 29.7574 -9.27665 37.5656 27.6256 -7.59111 -31.5857 35.2078 -9.27665 
-30.6743 35.5917 -9.27665 -23.0921 37.6722 -9.27665 -15.5099 38.3393 -9.27665 
-7.92765 37.7294 -9.27665 4.56669 35.2078 -9.27665 -0.34544 36.2693 -9.27665 
7.23677 35.2078 -6.81368 14.819 35.2078 -3.74415 -7.92765 -40.6616 -1.69444 
-30.6743 -35.4248 -1.69444 -23.0921 -38.5727 -1.69444 -8.96534 -40.6143 -1.69444 
-15.5099 -40.3085 -1.69444 -7.34841 -40.6143 -1.69444 -7.92765 -40.6143 -1.4843 
-0.34544 -40.0381 -1.69444 7.23677 -38.2913 -1.69444 14.819 -36.1709 -1.69444 
22.4012 -34.4686 -1.69444 -34.215 -33.0321 -1.69444 -38.2565 -29.6372 -1.69444 
28.3314 -33.0321 -1.69444 22.4012 -33.0321 3.84436 29.9834 -32.6165 -1.69444 
37.5656 -29.6032 -1.69444 -41.9718 -25.4499 -1.69444 -45.8387 -19.7073 -1.69444 
43.3406 -25.4499 -1.69444 45.1478 -23.9135 -1.69444 -46.9495 -17.8677 -1.69444 
50.5686 -17.8677 -1.69444 52.73 -14.3148 -1.69444 -50.5381 -10.2855 -1.69444 
54.7565 -10.2855 -1.69444 52.73 -10.2855 5.33684 -52.583 -2.70324 -1.69444 
-53.4209 4.2088 -1.69444 57.1239 -2.70324 -1.69444 -53.5 4.87897 -1.69444 
-53.4209 6.11298 -1.69444 -53.4209 4.87897 -1.21508 57.405 4.87897 -1.69444 
-52.9928 12.4612 -1.69444 55.0258 12.4612 -1.69444 52.73 16.607 -1.69444 
-50.2885 20.0434 -1.69444 -45.8387 26.6971 -1.69444 50.3575 20.0434 -1.69444 
45.1478 25.2221 -1.69444 -44.9891 27.6256 -1.69444 -38.2565 32.9259 -1.69444 
22.4012 35.182 -1.69444 29.9834 33.6201 -1.69444 41.9725 27.6256 -1.69444 
37.5656 30.4761 -1.69444 -33.1513 35.2078 -1.69444 -30.6743 36.1662 -1.69444 
-30.6743 35.2078 2.98197 -23.0921 37.7306 -1.69444 -15.5099 38.3634 -1.69444 
-7.92765 37.926 -1.69444 -0.34544 37.1423 -1.69444 7.23677 36.3577 -1.69444 
22.1105 35.2078 -1.69444 14.819 35.8381 -1.69444 22.4012 35.2078 -1.43799 
-30.6743 -35.4822 5.88777 -23.0921 -38.2074 5.88777 -15.5099 -39.281 5.88777 
-7.92765 -38.8806 5.88777 -0.34544 -37.8927 5.88777 7.23677 -36.2924 5.88777 
14.819 -34.3437 5.88777 -34.3564 -33.0321 5.88777 -38.2565 -29.613 5.88777 
7.23677 -33.0321 11.9463 20.1259 -33.0321 5.88777 14.819 -33.0321 8.32172 
22.4012 -32.4436 5.88777 29.9834 -30.1572 5.88777 37.5656 -26.4471 5.88777 
-41.8023 -25.4499 5.88777 -45.8387 -18.9246 5.88777 29.9834 -25.4499 11.927 
38.9959 -25.4499 5.88777 37.5656 -25.4499 7.21779 45.1478 -20.4262 5.88777 
-46.4105 -17.8677 5.88777 -45.8387 -17.8677 7.54941 47.6232 -17.8677 5.88777 
45.1478 -17.8677 8.93668 -49.7624 -10.2855 5.88777 52.5483 -10.2855 5.88777 
52.73 -9.87206 5.88777 -51.5987 -2.70324 5.88777 55.4571 -2.70324 5.88777 
52.73 -2.70324 11.241 -52.1722 4.87897 5.88777 56.2449 4.87897 5.88777 
52.73 4.87897 13.1398 -51.5259 12.4612 5.88777 54.2807 12.4612 5.88777 
52.73 15.7421 5.88777 52.73 12.4612 9.52485 -48.5727 20.0434 5.88777 
-45.8387 24.0861 5.88777 -45.8387 20.0434 11.4714 50.245 20.0434 5.88777 
45.1478 25.6024 5.88777 -42.6043 27.6256 5.88777 -38.2565 31.1419 5.88777 
-38.2565 27.6256 12.4661 -30.6743 34.5864 5.88777 29.9834 34.206 5.88777 
42.634 27.6256 5.88777 37.5656 30.9217 5.88777 -28.1617 35.2078 5.88777 
-23.0921 36.3712 5.88777 -23.0921 35.2078 8.56974 -15.5099 36.5377 5.88777 
-15.5099 35.2078 8.8628 -7.92765 36.3982 5.88777 -7.92765 35.2078 8.62955 
-0.34544 36.5461 5.88777 -0.34544 35.2078 9.27171 7.23677 36.7874 5.88777 
7.23677 35.2078 10.6962 14.819 36.6733 5.88777 14.819 35.2078 11.0565 
25.6905 35.2078 5.88777 22.4012 35.9297 5.88777 22.4012 35.2078 8.5686 
-30.6743 -33.102 13.47 -23.0921 -35.709 13.47 -15.5099 -36.3356 13.47 
-7.92765 -35.4169 13.47 -0.34544 -33.9379 13.47 -30.7787 -33.0321 13.47 
-38.2565 -26.1882 13.47 -30.6743 -33.0321 13.5767 -23.0921 -33.0321 17.2625 
-15.5099 -33.0321 17.9435 -7.92765 -33.0321 16.4084 3.44819 -33.0321 13.47 
-0.34544 -33.0321 14.5241 7.23677 -31.8727 13.47 14.819 -29.091 13.47 
22.4012 -26.6463 13.47 -38.8704 -25.4499 13.47 -38.2565 -25.4499 14.2737 
-30.6743 -25.4499 20.654 -0.34544 -25.4499 20.0314 7.23677 -25.4499 18.3174 
14.819 -25.4499 16.1957 25.7213 -25.4499 13.47 22.4012 -25.4499 14.4041 
29.9834 -23.5093 13.47 37.5656 -19.6148 13.47 -43.469 -17.8677 13.47 
-45.8387 -12.5882 13.47 -38.2565 -17.8677 19.2872 14.819 -17.8677 19.3598 
22.4012 -17.8677 18.0942 29.9834 -17.8677 16.9508 39.8535 -17.8677 13.47 
37.5656 -17.8677 14.8607 45.1478 -13.3602 13.47 -46.8093 -10.2855 13.47 
-45.8387 -10.2855 14.8698 22.4012 -10.2855 20.4896 29.9834 -10.2855 20.1909 
37.5656 -10.2855 19.2069 47.5223 -10.2855 13.47 45.1478 -10.2855 15.605 
-48.5426 -2.70324 13.47 -45.8387 -2.70324 16.8865 51.2751 -2.70324 13.47 
[...]
POINT_DATA 518
SCALARS ImageScalars float
LOOKUP_TABLE default
0 0 0 0 0 0 0 0 0 
0 0 0 0 0 0 0 0 0 
0 0 0 0 0 0 0 0 0 
0 0 0 0 0 0 0 0 0 
0 0 0 0 0 0 0 0 0 
0 0 0 0 0 0 0 0 0 
0 0 0 0 0 0 0 0 0 
0 0 0 0 0 0 0 0 0 
0 0 0 0 0 0 0 0 0 
0 0 0 0 0 0 0 0 0 
0 0 0 0 0 0 0 0 0 
0 0 0 0 0 0 0 0 0 
0 0 0 0 0 0 0 0 0 
0 0 0 0 0 0 0 0 0 
0 0 0 0 0 0 0 0 0 
0 0 0 0 0 0 0 0 0 
0 0 0 0 0 0 0 0 0 
0 0 0 0 0 0 0 0 0 
0 0 0 0 0 0 0 0 0 
0 0 0 0 0 0 0 0 0 
0 0 0 0 0 0 0 0 0 
0 0 0 0 0 0 0 0 0 
0 0 0 0 0 0 0 0 0 
0 0 0 0 0 0 0 0 0 
0 0 0 0 0 0 0 0 0 
0 0 0 0 0 0 0 0 0 
0 0 0 0 0 0 0 0 0 
0 0 0 0 0 0 0 0 0 
0 0 0 0 0 0 0 0 0 
0 0 0 0 0 0 0 0 0 
0 0 0 0 0 0 0 0 0 
0 0 0 0 0 0 0 0 0 
0 0 0 0 0 0 0 0 0 
0 0 0 0 0 0 0 0 0 
0 0 0 0 0 0 0 0 0 
0 0 0 0 0 0 0 0 0 
0 0 0 0 0 0 0 0 0 
0 0 0 0 0 0 0 0 0 
0 0 0 0 0 0 0 0 0 
0 0 0 0 0 0 0 0 0 
0 0 0 0 0 0 0 0 0 
0 0 0 0 0 0 0 0 0 
0 0 0 0 0 0 0 0 0 
0 0 0 0 0 0 0 0 0 
0 0 0 0 0 0 0 0 0 
0 0 0 0 0 0 0 0 0 
0 0 0 0 0 0 0 0 0 
0 0 0 0 0 0 0 0 0 
0 0 0 0 0 0 0 0 0 
0 0 0 0 0 0 0 0 0 
0 0 0 0 0 0 0 0 0 
0 0 0 0 0 0 0 0 0 
0 0 0 0 0 0 0 0 0 
0 0 0 0 0 0 0 0 0 
0 0 0 0 0 0 0 0 0 
0 0 0 0 0 0 0 0 0 
0 0 0 0 0 0 0 0 0 
0 0 0 0 0 
NORMALS Normals float
-0.188344 -0.627233 -0.755715 -0.0969847 -0.54422 -0.833318 0.0289531 -0.537404 -0.842827 
0.156227 -0.647764 -0.745651 0.222555 -0.77328 -0.593723 -0.425626 -0.454972 -0.782204 
-0.225006 -0.340904 -0.912774 -0.0835179 -0.27625 -0.95745 -0.0243122 -0.202005 -0.979083 
-0.011075 -0.162398 -0.986663 0.0216089 -0.22917 -0.973147 0.0813456 -0.337114 -0.937943 
0.166254 -0.428978 -0.887884 0.273845 -0.561397 -0.780924 -0.500801 -0.36107 -0.786655 
-0.282272 -0.206604 -0.936823 -0.155117 -0.0462402 -0.986813 -0.0454038 -0.00340178 -0.998963 
0.0208543 -0.0407599 -0.998951 -0.0111947 -0.00632661 -0.999917 -0.0354843 -0.0117414 -0.999301 
0.00959808 -0.0374979 -0.999251 0.0424643 -0.0986725 -0.994214 0.121402 -0.192264 -0.973805 
0.330383 -0.3049 -0.893243 0.579689 -0.440601 -0.685442 -0.383942 -0.169143 -0.907733 
-0.100511 -0.0314866 -0.994438 -0.0228852 0.0910398 -0.995584 -0.0764112 0.144284 -0.986582 
-0.0276148 -0.0292952 -0.999189 0.017509 0.000770359 -0.999846 -0.0120957 0.0610761 -0.99806 
-0.0161868 0.111131 -0.993674 -0.00678786 0.0824854 -0.996569 0.063441 0.0308103 -0.99751 
0.203429 -0.0275059 -0.978703 0.451757 -0.165716 -0.876615 -0.599813 -0.169121 -0.782063 
-0.230582 -0.0650823 -0.970874 -0.032472 0.0108955 -0.999413 0.0193644 0.0236378 -0.999533 
-0.163811 0.0346484 -0.985883 -0.125131 -0.0223792 -0.991888 0.0800802 0.0833521 -0.993297 
0.0748528 0.0728581 -0.994529 0.0356685 0.155415 -0.987205 -0.0347282 0.206159 -0.977902 
0.0170291 0.145724 -0.989179 0.16121 0.116838 -0.97998 0.363009 0.0675637 -0.929333 
-0.55515 -0.00888351 -0.831703 -0.210065 -0.0497775 -0.976419 -0.0284087 -0.0779866 -0.99655 
-0.000966342 -0.0674131 -0.997725 -0.121004 -0.0892672 -0.98863 0.0189699 0.104117 -0.994384 
0.114275 0.15503 -0.981278 0.0556565 0.0435267 -0.997501 0.120113 0.0851393 -0.989103 
-0.0175441 0.216481 -0.976129 -0.0247773 0.267393 -0.963269 0.130544 0.262749 -0.955992 
0.324067 0.271311 -0.906295 -0.568207 0.155987 -0.807966 -0.295577 0.0984079 -0.950237 
-0.0368393 0.0297716 -0.998878 0.0108921 -0.0256864 -0.999611 0.00351291 -0.0255243 -0.999668 
0.114235 0.0878318 -0.989564 0.0174103 -0.00647776 -0.999827 0.00190265 -0.014987 -0.999886 
0.220075 0.00830422 -0.975448 0.145025 0.131409 -0.980663 0.0739256 0.304685 -0.94958 
0.155678 0.378975 -0.912218 -0.325162 0.336056 -0.883932 -0.156344 0.235784 -0.959147 
-0.0579341 0.127963 -0.990085 -0.00618904 0.086888 -0.996199 0.049588 0.0976458 -0.993985 
0.00630472 0.0291593 -0.999555 0.055324 0.123126 -0.990848 0.269984 0.192878 -0.943349 
0.277359 0.252014 -0.927125 -0.264993 0.472205 -0.840715 -0.136221 0.396099 -0.908047 
-0.0262139 0.346025 -0.937859 0.0470334 0.36996 -0.927857 0.0636467 0.412634 -0.908671 
0.179433 0.544698 -0.819212 0.30618 0.571424 -0.761399 -0.201439 -0.720471 -0.663584 
-0.0958785 -0.750174 -0.654253 -0.0442809 -0.979608 -0.195977 0.0666245 -0.779486 -0.622867 
0.192636 -0.794009 -0.576577 0.231845 -0.808026 -0.54161 -0.455983 -0.565631 -0.687125 
-0.500432 -0.77769 -0.380481 -0.310735 -0.683279 -0.660737 -0.31698 -0.678136 -0.663065 
-0.318431 -0.689159 -0.650893 0.23911 -0.806862 -0.540185 0.251142 -0.781648 -0.570924 
0.249868 -0.897551 -0.363274 0.294582 -0.716474 -0.632366 -0.507302 -0.515558 -0.69054 
-0.555173 -0.445205 -0.702549 -0.650283 -0.599526 -0.466585 0.406156 -0.650731 -0.64155 
0.407607 -0.649005 -0.642377 0.409038 -0.653656 -0.636727 0.588916 -0.478144 -0.65158 
-0.591375 -0.397473 -0.701635 0.603325 -0.453744 -0.655832 -0.607444 -0.296202 -0.737073 
-0.639169 -0.247229 -0.728245 -0.706747 -0.335364 -0.622928 0.67663 -0.2316 -0.698952 
0.864922 -0.300417 -0.402068 -0.662379 -0.175251 -0.728383 0.669169 -0.0336975 -0.742345 
0.76876 -0.0704293 -0.635648 -0.676575 -0.02056 -0.736087 0.532868 0.272832 -0.801008 
0.356336 0.389264 -0.84941 0.703147 0.250086 -0.665614 -0.632073 0.179017 -0.753947 
-0.620782 0.298376 -0.724983 0.18276 0.348798 -0.919205 0.268073 0.408966 -0.872287 
0.193074 0.412403 -0.890307 0.387314 0.43669 -0.811967 0.769865 0.466065 -0.435995 
-0.579944 0.3876 -0.716542 -0.685664 0.420263 -0.594343 -0.424171 0.527237 -0.736274 
0.238257 0.333323 -0.912211 0.284158 0.389253 -0.876206 0.224096 0.376452 -0.898924 
0.294063 0.509584 -0.80861 0.520115 0.622813 -0.584452 -0.397364 0.557543 -0.728867 
-0.45876 0.602176 -0.653394 -0.302972 0.627183 -0.71753 -0.157918 0.684714 -0.711498 
-0.0277266 0.736963 -0.675364 0.080422 0.737542 -0.670496 0.148548 0.730575 -0.666479 
0.210922 0.74657 -0.630987 0.301336 0.574217 -0.76123 0.300819 0.61042 -0.732731 
0.281312 0.606309 -0.74381 0.299879 0.663352 -0.685592 -0.335453 0.898509 -0.283114 
-0.166418 0.83314 -0.527431 -0.0206021 0.818391 -0.574292 0.100516 0.843886 -0.527022 
0.187297 0.914911 -0.357571 -0.0439095 -0.98024 -0.192879 -0.499982 -0.803683 -0.322663 
-0.33989 -0.891515 -0.299458 -0.0479438 -0.979686 -0.194723 -0.20247 -0.942027 -0.267563 
-0.0274215 -0.981596 -0.188993 0.125583 -0.98041 -0.151743 0.252431 -0.957785 -0.137575 
0.257478 -0.956685 -0.135863 0.23397 -0.959101 -0.159321 -0.525666 -0.786568 -0.324014 
-0.670266 -0.663174 -0.333084 0.280454 -0.943229 -0.177944 0.291269 -0.9389 -0.183382 
0.468888 -0.86308 -0.187717 -0.719117 -0.611889 -0.329337 0.632784 -0.756833 -0.163669 
0.676223 -0.718105 -0.164461 -0.818928 -0.486688 -0.304123 -0.824109 -0.478734 -0.302752 
-0.835538 -0.487461 -0.253493 0.800858 -0.564594 -0.199648 0.877228 -0.426279 -0.220809 
-0.880846 -0.370513 -0.29467 0.915274 -0.324448 -0.238761 -0.936873 -0.204266 -0.283804 
0.944208 -0.105659 -0.311943 -0.963312 -0.03478 -0.26612 -0.999604 -0.0279038 0.00362197 
0.912104 0.202083 -0.356692 -0.943907 0.193964 -0.267242 0.77324 0.46498 -0.431153 
0.770947 0.46807 -0.431915 -0.850269 0.446088 -0.279372 -0.746821 0.604591 -0.277 
0.39971 0.701433 -0.590105 0.572573 0.634265 -0.519489 0.541191 0.656918 -0.524949 
-0.682378 0.675925 -0.278362 -0.508068 0.812149 -0.286847 0.175862 0.93892 -0.295806 
0.146757 0.905223 -0.398791 0.206506 0.829875 -0.518326 0.376259 0.717975 -0.585611 
0.296346 0.750816 -0.5903 0.426668 0.75527 -0.497516 -0.351339 0.902234 -0.250068 
-0.332056 0.910422 -0.246721 -0.168315 0.963214 -0.209498 -0.00677938 0.975888 -0.218168 
0.131034 0.968929 -0.209777 0.181958 0.944204 -0.274536 0.194006 0.950532 -0.242593 
0.146704 0.95966 -0.239856 0.0915105 0.964305 -0.248477 0.0178513 -0.993764 0.110063 
-0.486711 -0.868277 -0.0959573 -0.293445 -0.954712 -0.0491429 -0.00296534 -0.995093 0.0989003 
-0.135414 -0.990487 0.0244794 0.028046 -0.99315 0.113432 0.0197153 -0.993116 0.115461 
0.15068 -0.97684 0.151915 0.247674 -0.958105 0.143852 0.242473 -0.962128 0.124565 
0.22274 -0.966564 0.12705 -0.581264 -0.807159 -0.103084 -0.697479 -0.710556 -0.0929179 
0.26934 -0.952364 0.143034 0.238864 -0.920202 0.310116 0.285428 -0.94692 0.147895 
0.479863 -0.863053 0.157709 -0.788687 -0.609969 -0.07688 -0.862676 -0.502523 -0.0571006 
0.621329 -0.76584 0.165647 0.669979 -0.725091 0.159283 -0.877838 -0.476709 -0.0463614 
0.799676 -0.58821 0.120529 0.86495 -0.490711 0.105187 -0.935588 -0.352362 -0.0227053 
0.918797 -0.382984 0.0955767 0.847891 -0.397806 0.350473 -0.983255 -0.182115 0.00661106 
-0.998663 -0.0399995 0.0327427 0.986034 -0.160565 0.0442146 -0.99901 -0.0270468 0.0353252 
-0.999325 0.0085425 0.0357196 -0.998427 -0.0255596 0.0499079 0.991766 0.127229 -0.0146105 
-0.979051 0.199732 0.0395847 0.915856 0.393194 -0.08128 0.84403 0.521853 -0.123624 
-0.895092 0.442275 0.0565993 -0.754614 0.653927 0.0541926 0.755696 0.633869 -0.164724 
0.630228 0.751928 -0.193432 -0.723355 0.688349 0.0541648 -0.525011 0.849824 0.0464999 
0.136499 0.96645 -0.217583 0.289938 0.926678 -0.239173 0.553943 0.805164 -0.211796 
0.457832 0.862653 -0.21499 -0.346835 0.936343 0.0544686 -0.273438 0.960067 0.0591778 
-0.287045 0.937098 0.198626 -0.138121 0.98689 0.083494 -0.0127798 0.993566 0.112531 
0.0797893 0.993284 0.0837833 0.102687 0.994579 -0.0163788 0.0846904 0.987225 -0.134964 
0.134043 0.966955 -0.216868 0.0751054 0.976384 -0.202569 0.137289 0.968566 -0.207438 
-0.461069 -0.877189 0.133995 -0.225326 -0.959332 0.17003 -0.0455197 -0.970078 0.238489 
0.0859008 -0.945999 0.31258 0.158698 -0.920822 0.356233 0.215235 -0.910196 0.35386 
0.232314 -0.905134 0.356036 -0.574884 -0.807061 0.134762 -0.703906 -0.694623 0.148379 
0.22369 -0.791199 0.569181 0.238998 -0.896537 0.372963 0.23696 -0.859779 0.452361 
0.243571 -0.888963 0.387836 0.318485 -0.839348 0.440524 0.474528 -0.755737 0.451314 
-0.800328 -0.578292 0.158282 -0.87442 -0.449819 0.181803 0.301182 -0.653351 0.694566 
0.505465 -0.737914 0.447201 0.46763 -0.731688 0.495938 0.632068 -0.647898 0.42511 
-0.880431 -0.436716 0.184719 -0.868317 -0.43272 0.242445 0.686609 -0.599352 0.411516 
0.601186 -0.606724 0.520059 -0.923751 -0.319306 0.211488 0.838364 -0.399102 0.371298 
0.84491 -0.387487 0.368756 -0.959819 -0.144722 0.240422 0.918604 -0.212826 0.332973 
0.827374 -0.23205 0.511474 -0.960343 0.00140266 0.278819 0.955485 0.0707183 0.28644 
0.828516 0.0345811 0.558897 -0.92598 0.220866 0.306235 0.915002 0.32913 0.233334 
0.874802 0.436323 0.21058 0.873779 0.310337 0.374435 -0.840742 0.445127 0.308245 
-0.761214 0.564209 0.319722 -0.739171 0.449676 0.501416 0.786939 0.590706 0.178308 
0.661278 0.736001 0.144962 -0.653755 0.686624 0.318044 -0.519323 0.795222 0.312931 
-0.52272 0.671606 0.52508 -0.292178 0.909649 0.295247 0.304923 0.945448 0.114673 
0.592547 0.794563 0.132507 0.475168 0.871072 0.124291 -0.232982 0.927624 0.291947 
-0.118411 0.948806 0.292823 -0.113842 0.91611 0.384425 -0.00209431 0.944543 0.328381 
-0.00194235 0.911598 0.411079 -0.00083045 0.952838 0.303478 -0.00996577 0.92024 0.391227 
-0.0251478 0.974173 0.2244 -0.0492875 0.92956 0.365361 -0.00807324 0.992207 0.124337 
-0.0445706 0.929691 0.365633 0.0554786 0.995284 0.0795667 0.0367435 0.938178 0.344197 
0.21817 0.971259 0.0951748 0.154331 0.984561 0.082591 0.159611 0.964687 0.209531 
-0.452254 -0.780824 0.431022 -0.186757 -0.870709 0.454958 0.0147965 -0.868507 0.495455 
0.136 -0.823561 0.550682 0.185453 -0.776532 0.602167 -0.455442 -0.778838 0.431258 
-0.68673 -0.57428 0.445651 -0.452374 -0.778387 0.435283 -0.171633 -0.752822 0.635453 
0.0435342 -0.729124 0.682996 0.158543 -0.731187 0.663498 0.205277 -0.76097 0.615456 
0.188411 -0.743389 0.641775 0.225768 -0.72961 0.645521 0.235748 -0.646044 0.725982 
0.231427 -0.602759 0.763625 -0.701668 -0.555163 0.446605 -0.684112 -0.551747 0.477039 
-0.395219 -0.439046 0.806871 0.196678 -0.382609 0.902734 0.221086 -0.465399 0.857044 
0.226115 -0.495771 0.8385 0.252171 -0.590715 0.766463 0.221884 -0.555022 0.801697 
0.267104 -0.582426 0.767747 0.369869 -0.594057 0.714348 -0.781612 -0.405816 0.473705 
-0.822293 -0.323077 0.468462 -0.588023 -0.336467 0.73554 0.207076 -0.310221 0.927837 
0.140454 -0.35767 0.923225 0.174848 -0.453942 0.873708 0.413259 -0.57879 0.703007 
0.346603 -0.560542 0.752103 0.556902 -0.50685 0.658 -0.834422 -0.283226 0.472782 
-0.803877 -0.275074 0.527367 0.0733106 -0.222718 0.972123 0.0785483 -0.327987 0.941411 
0.24562 -0.367428 0.897033 0.633516 -0.437394 0.638235 0.536406 -0.438466 0.721122 
-0.849584 -0.114521 0.51487 -0.748958 -0.0986395 0.655235 0.757395 -0.237832 0.608103 
0.484506 -0.24281 0.840415 -0.844364 0.0478024 0.533632 -0.725377 0.0648464 0.685291 
0.817682 0.032112 0.574774 0.483656 -0.0138075 0.875149 -0.786208 0.230875 0.573214 
-0.731848 0.363392 0.576494 -0.725692 0.235784 0.646356 0.781507 0.281047 0.55701 
0.569527 0.242493 0.785389 -0.676124 0.447051 0.585664 -0.516566 0.639615 0.569256 
-0.476728 0.424574 0.769718 0.372246 0.438713 0.817902 0.666999 0.535118 0.518422 
0.640279 0.569592 0.515371 0.627407 0.522635 0.577246 -0.481293 0.666737 0.56905 
-0.290204 0.762587 0.578138 -0.286638 0.642743 0.710436 -0.10802 0.813002 0.572154 
-0.110211 0.615012 0.780778 -0.00496939 0.822192 0.569189 0.0227428 0.623989 0.781102 
-0.0174978 0.811032 0.58474 0.0131414 0.620322 0.784237 -0.0741456 0.811316 0.579887 
-0.0635295 0.578387 0.813285 -0.066885 0.845903 0.529126 -0.100758 0.546745 0.831215 
0.0228851 0.875071 0.483453 -0.017483 0.526892 0.849752 0.157641 0.868813 0.469376 
0.11682 0.569958 0.813327 0.308506 0.81955 0.482868 0.281189 0.651561 0.704557 
0.47365 0.735955 0.483763 0.461904 0.744028 0.482771 0.460007 0.73227 0.50217 
-0.143063 -0.529391 0.836228 0.0690105 -0.528472 0.846141 0.179064 -0.411373 0.893705 
-0.353207 -0.432096 0.829782 -0.384144 -0.40712 0.828666 -0.136632 -0.413423 0.900229 
0.0797931 -0.396854 0.914407 0.183944 -0.367267 0.911745 0.181409 -0.36305 0.913939 
0.162095 -0.274312 0.947881 0.166142 -0.356319 0.919475 -0.477449 -0.286073 0.830786 
-0.501068 -0.224971 0.835655 -0.332984 -0.231076 0.91418 -0.109415 -0.208146 0.971959 
0.106984 -0.171994 0.979271 0.21351 -0.156897 0.96426 0.128441 -0.185353 0.974242 
0.167673 -0.338841 0.925782 0.156483 -0.345984 0.925099 0.233163 -0.187802 0.954131 
-0.510403 -0.180697 0.840736 -0.463285 -0.169412 0.869866 -0.279361 -0.123036 0.952271 
-0.0878628 -0.0732776 0.993434 0.133883 -0.108667 0.985021 0.191663 -0.139331 0.97152 
0.00550321 -0.195452 0.980698 0.099176 -0.235814 0.966724 0.174218 -0.18592 0.966996 
0.240359 -0.162374 0.957007 0.0301312 -0.198196 0.979699 0.0499407 -0.280073 0.958679 
0.207875 -0.246591 0.946563 -0.520424 -0.0430347 0.852823 -0.444366 -0.0313925 0.895295 
-0.235066 -0.014486 0.971871 -0.0932684 0.0372238 0.994945 0.0397454 -0.0179204 0.999049 
0.123631 -0.142964 0.981976 0.0322965 -0.180423 0.983059 0.187171 -0.0300035 0.981869 
0.218935 -0.0715896 0.97311 -0.0239699 -0.170556 0.985056 0.0117425 -0.202843 0.979141 
0.254673 -0.221162 0.941397 0.198933 -0.21611 0.955888 -0.486663 0.0664954 0.871056 
-0.406432 0.0732887 0.910737 -0.208832 0.110748 0.97166 -0.093247 0.111983 0.989325 
-0.0421134 0.110177 0.993019 0.0288999 0.0233904 0.999309 0.113174 -0.0191418 0.993391 
0.221334 0.0407413 0.974347 0.0945926 -0.12683 0.987404 -0.0588517 -0.138641 0.988592 
0.0178545 -0.08035 0.996607 0.383302 -0.0404738 0.922736 0.189893 -0.0844404 0.978167 
-0.419136 0.227685 0.878911 -0.407916 0.245081 0.879511 -0.401169 0.225147 0.887903 
-0.202767 0.205716 0.957375 -0.0972349 0.187975 0.977349 -0.0470852 0.20267 0.978114 
-0.0086759 0.214498 0.976686 0.0516179 0.195749 0.979295 0.0779488 0.0931042 0.9926 
0.0431161 -0.057231 0.997429 0.0274144 -0.023525 0.999347 0.0666237 0.0586825 0.996051 
0.420114 0.184918 0.888431 0.344453 0.3731 0.861481 0.252809 0.125095 0.959395 
-0.281525 0.370398 0.885183 -0.257978 0.386741 0.885369 -0.253323 0.362645 0.896837 
-0.104215 0.451104 0.886366 -0.097437 0.317576 0.943213 0.00895088 0.479725 0.877373 
-0.0157388 0.34453 0.938643 0.0226066 0.487162 0.873019 0.020734 0.387185 0.921769 
-0.0318428 0.45609 0.889364 -0.00689029 0.384225 0.923214 -0.0855104 0.442048 0.892906 
-0.0418314 0.282104 0.958471 -0.0180365 0.471638 0.881608 -0.0182397 0.20374 0.978855 
0.100716 0.466917 0.878547 0.0590681 0.220744 0.973542 0.313238 0.395892 0.863222 
0.20926 0.410747 0.88741 0.174888 0.292257 0.940213 
