# vtk DataFile Version 4.2
vtk output
ASCII
DATASET POLYDATA
POINTS 549 float
-51.0832 -13.5577 -18.9569 -51.0832 -5.7226 -18.177 -51.0832 -29.228 -13.1911 
-43.248 -29.228 -14.6971 -35.4129 -29.228 -15.9477 -27.5778 -29.228 -14.325 
-19.7426 -29.228 -12.6014 -11.9075 -29.228 -11.9432 -4.07238 -29.228 -11.2702 
3.76275 -29.228 -10.3741 11.5979 -29.228 -10.3177 19.433 -29.228 -11.1684 
-58.9183 -21.3929 -12.7942 -51.0832 -17.9729 -18.1516 -51.0832 -21.3929 -16.9475 
-43.248 -21.3929 -16.4091 -35.4129 -21.3929 -17.1706 -27.5778 -21.3929 -15.5614 
-19.7426 -21.3929 -14.2258 -11.9075 -21.3929 -12.576 -4.07238 -21.3929 -11.8369 
3.76275 -21.3929 -11.3246 11.5979 -21.3929 -11.7702 19.433 -21.3929 -12.4559 
27.2681 -21.3929 -12.1311 35.1033 -21.3929 -11.6951 -52.8892 -13.5577 -18.1516 
-58.9183 -13.5577 -13.1425 -46.069 -13.5577 -18.1516 -43.248 -13.5577 -17.5081 
-35.4129 -13.5577 -17.3 -27.5778 -13.5577 -17.1445 -19.7426 -13.5577 -15.7582 
-11.9075 -13.5577 -13.3496 -4.07238 -13.5577 -11.7353 3.76275 -13.5577 -12.0277 
11.5979 -13.5577 -12.0234 19.433 -13.5577 -13.0649 27.2681 -13.5577 -13.5005 
35.1033 -13.5577 -13.1699 42.9384 -13.5577 -12.1044 50.7735 -13.5577 -10.4952 
-51.1406 -5.7226 -18.1516 -58.9183 -5.7226 -12.3849 -50.8751 -5.7226 -18.1516 
-51.0832 -5.55172 -18.1516 -43.248 -5.7226 -16.8709 -35.4129 -5.7226 -16.492 
-27.5778 -5.7226 -16.1587 -19.7426 -5.7226 -15.66 -11.9075 -5.7226 -17.0554 
-4.07238 -5.7226 -14.1385 3.76275 -5.7226 -15.5498 11.5979 -5.7226 -14.0972 
19.433 -5.7226 -14.409 27.2681 -5.7226 -14.9625 35.1033 -5.7226 -14.6831 
42.9384 -5.7226 -13.5816 50.7735 -5.7226 -11.2251 -58.9183 2.11253 -12.6772 
-51.0832 2.11253 -16.2234 -43.248 2.11253 -15.734 -35.4129 2.11253 -15.6283 
-27.5778 2.11253 -14.9831 -19.7426 2.11253 -13.8122 -11.9075 2.11253 -16.1156 
-4.07238 2.11253 -14.07 3.76275 2.11253 -15.8535 11.5979 2.11253 -14.8575 
19.433 2.11253 -15.7966 27.2681 2.11253 -16.1755 35.1033 2.11253 -15.5629 
42.9384 2.11253 -14.1864 50.7735 2.11253 -11.3808 -58.9183 9.94766 -10.944 
-51.0832 9.94766 -14.6077 -43.248 9.94766 -15.4696 -35.4129 9.94766 -15.9838 
-27.5778 9.94766 -15.9393 -19.7426 9.94766 -15.9344 -11.9075 9.94766 -15.9081 
-4.07238 9.94766 -13.5154 3.76275 9.94766 -16.3132 11.5979 9.94766 -16.5813 
19.433 9.94766 -17.2663 27.2681 9.94766 -17.5415 35.1033 9.94766 -16.5013 
42.9384 9.94766 -14.5502 50.7735 9.94766 -10.969 -51.0832 17.7828 -12.2546 
-43.248 17.7828 -14.8004 -35.4129 17.7828 -16.9567 -27.5778 17.7828 -17.2833 
-19.7426 17.7828 -17.321 -11.9075 17.7828 -15.683 -4.07238 17.7828 -14.1668 
3.76275 17.7828 -15.091 11.5979 17.7828 -16.6188 19.433 17.7828 -17.9614 
27.2681 17.7828 -18.0561 35.1033 17.7828 -16.8312 42.9384 17.7828 -14.1544 
50.7735 17.7828 -10.5863 -51.0832 25.6179 -11.3928 -43.248 25.6179 -15.7806 
-35.4129 25.6179 -16.8613 -27.5778 25.6179 -17.203 -19.7426 25.6179 -16.9418 
-11.9075 25.6179 -15.6191 -4.07238 25.6179 -15.0998 3.76275 25.6179 -15.4542 
11.5979 25.6179 -16.0095 19.433 25.6179 -16.6847 27.2681 25.6179 -16.8516 
35.1033 25.6179 -15.619 42.9384 25.6179 -12.3317 -43.248 33.453 -11.7397 
-35.4129 33.453 -13.9957 -27.5778 33.453 -15.1875 -19.7426 33.453 -15.0539 
-11.9075 33.453 -14.9387 -4.07238 33.453 -14.926 3.76275 33.453 -14.7896 
11.5979 33.453 -15.0379 19.433 33.453 -14.4418 27.2681 33.453 -14.2954 
35.1033 33.453 -11.6171 -19.7426 41.2882 -11.1001 -11.9075 41.2882 -12.2617 
-4.07238 41.2882 -13.158 3.76275 41.2882 -12.7207 11.5979 41.2882 -11.1948 
-19.7426 -44.8983 -2.59853 -11.9075 -44.8983 -2.50753 -51.0832 -34.1316 -10.3164 
-43.248 -35.1547 -10.3164 -43.248 -37.0631 -8.46188 -35.4129 -36.0267 -10.3164 
-35.4129 -37.0631 -9.45759 -27.5778 -36.0378 -10.3164 -27.5778 -37.0631 -9.5537 
-19.7426 -36.3648 -10.3164 -19.7426 -37.0631 -10.0773 -11.9075 -35.875 -10.3164 
-11.9075 -37.0631 -10.0011 -4.07238 -32.2025 -10.3164 -4.07238 -37.0631 -8.54843 
3.76275 -29.3858 -10.3164 3.76275 -37.0631 -6.76193 11.5979 -29.231 -10.3164 
11.5979 -37.0631 -6.26946 19.433 -31.0372 -10.3164 19.433 -37.0631 -6.56458 
27.2681 -37.0631 -6.52102 35.1033 -37.0631 -4.01128 -55.9622 -29.228 -10.3164 
-58.9183 -26.0345 -10.3164 -58.9183 -29.228 -5.42193 26.5834 -29.228 -10.3164 
27.2681 -28.8687 -10.3164 27.2681 -29.228 -10.2222 35.1033 -24.9338 -10.3164 
35.1033 -29.228 -8.69273 42.9384 -29.228 -7.03451 50.7735 -29.228 -3.10695 
-62.1754 -21.3929 -10.3164 40.2875 -21.3929 -10.3164 42.9384 -19.1838 -10.3164 
42.9384 -21.3929 -9.66027 50.7735 -14.0518 -10.3164 50.7735 -21.3929 -7.57215 
-63.8665 -13.5577 -10.3164 -66.7534 -13.5577 -3.51836 51.1075 -13.5577 -10.3164 
58.6087 -13.5577 -5.6918 -62.1498 -5.7226 -10.3164 -66.7534 -5.7226 -2.57165 
52.8591 -5.7226 -10.3164 58.6087 -5.7226 -7.78136 -62.0369 2.11253 -10.3164 
52.7006 2.11253 -10.3164 58.6087 2.11253 -6.76878 -59.6803 9.94766 -10.3164 
-58.9183 11.7644 -10.3164 51.8014 9.94766 -10.3164 58.6087 9.94766 -4.46041 
-54.3175 17.7828 -10.3164 -58.9183 17.7828 -3.09735 51.071 17.7828 -10.3164 
50.7735 18.2661 -10.3164 -52.2836 25.6179 -10.3164 -51.0832 27.3037 -10.3164 
45.1393 25.6179 -10.3164 42.9384 28.6442 -10.3164 -45.2602 33.453 -10.3164 
-43.248 35.0334 -10.3164 -35.4129 38.5032 -10.3164 -27.5778 40.8722 -10.3164 
19.433 40.2149 -10.3164 27.2681 39.0546 -10.3164 37.3286 33.453 -10.3164 
35.1033 34.8999 -10.3164 42.9384 33.453 -4.4738 -35.4129 41.2882 -2.99591 
-24.9591 41.2882 -10.3164 -27.5778 41.2882 -9.64561 -19.7426 42.0939 -10.3164 
-11.9075 44.2273 -10.3164 -4.07238 45.9446 -10.3164 3.76275 45.1727 -10.3164 
16.1469 41.2882 -10.3164 11.5979 42.7192 -10.3164 19.433 41.2882 -9.38223 
27.2681 41.2882 -6.78772 -4.07238 49.1233 -3.86346 3.76275 49.1233 -3.54898 
-19.7426 -44.9619 -2.48132 -11.9075 -44.9122 -2.48132 -43.248 -40.2455 -2.48132 
-35.4129 -42.4406 -2.48132 -21.5123 -44.8983 -2.48132 -27.5778 -44.6278 -2.48132 
-19.7426 -44.8983 -1.92833 -11.8429 -44.8983 -2.48132 -11.9075 -44.8983 -2.33018 
-4.07238 -42.948 -2.48132 3.76275 -40.7186 -2.48132 11.5979 -40.3186 -2.48132 
19.433 -40.6134 -2.48132 27.2681 -40.3323 -2.48132 35.1033 -38.4614 -2.48132 
-58.9183 -30.7456 -2.48132 -50.1942 -37.0631 -2.48132 -51.0832 -36.5998 -2.48132 
38.3836 -37.0631 -2.48132 42.9384 -34.8733 -2.48132 42.9384 -37.0631 1.2763 
50.7735 -30.2217 -2.48132 -60.6035 -29.228 -2.48132 -58.9183 -29.228 -0.279183 
51.5601 -29.228 -2.48132 -65.0297 -21.3929 -2.48132 -66.7534 -14.3581 -2.48132 
58.3126 -21.3929 -2.48132 58.6087 -20.8843 -2.48132 58.6087 -21.3929 -2.11841 
-66.9409 -13.5577 -2.48132 -66.7534 -13.5577 -2.13146 62.1756 -13.5577 -2.48132 
-66.781 -5.7226 -2.48132 -66.7534 -5.58564 -2.48132 -66.7534 -5.7226 -2.43515 
64.2147 -5.7226 -2.48132 66.4438 -5.7226 2.68065 -65.1242 2.11253 -2.48132 
62.6888 2.11253 -2.48132 -62.751 9.94766 -2.48132 -58.9183 9.94766 3.19156 
60.2159 9.94766 -2.48132 58.6087 13.292 -2.48132 -59.1288 17.7828 -2.48132 
-58.9183 18.1507 -2.48132 -58.9183 17.7828 -2.13921 -51.0832 17.7828 4.73967 
56.4494 17.7828 -2.48132 50.7735 25.5312 -2.48132 -54.6718 25.6179 -2.48132 
-51.0832 30.4416 -2.48132 -51.0832 25.6179 3.05418 50.7095 25.6179 -2.48132 
50.7735 25.6179 0.686502 -48.0907 33.453 -2.48132 -43.248 37.2706 -2.48132 
-43.248 33.453 4.57564 35.1033 39.8655 -2.48132 44.0465 33.453 -2.48132 
42.9384 34.4648 -2.48132 -35.7174 41.2882 -2.48132 -35.4129 41.4323 -2.48132 
-35.4129 41.2882 -2.11441 -27.5778 44.4059 -2.48132 -27.5778 41.2882 4.02619 
-19.7426 46.4358 -2.48132 -11.9075 48.4549 -2.48132 11.5979 48.0076 -2.48132 
19.433 45.7742 -2.48132 31.982 41.2882 -2.48132 27.2681 43.2393 -2.48132 
-7.12533 49.1233 -2.48132 -4.07238 49.5418 -2.48132 -4.07238 49.1233 -0.913543 
5.79812 49.1233 -2.48132 3.76275 49.5094 -2.48132 3.76275 49.1233 -1.0943 
-43.248 -37.5749 5.35381 -35.4129 -39.3956 5.35381 -27.5778 -42.0757 5.35381 
-19.7426 -43.6909 5.35381 -11.9075 -43.8889 5.35381 -4.07238 -41.9728 5.35381 
3.76275 -40.6454 5.35381 11.5979 -40.538 5.35381 19.433 -41.4467 5.35381 
27.2681 -41.956 5.35381 35.1033 -41.33 5.35381 42.9384 -38.9468 5.35381 
-44.1879 -37.0631 5.35381 -51.0832 -32.6211 5.35381 -43.248 -37.0631 5.83017 
-35.4129 -37.0631 7.73967 -27.5778 -37.0631 8.90156 -19.7426 -37.0631 10.3077 
-11.9075 -37.0631 10.8413 -4.07238 -37.0631 10.1287 3.76275 -37.0631 9.36192 
11.5979 -37.0631 10.0354 19.433 -37.0631 12.3356 46.5449 -37.0631 5.35381 
42.9384 -37.0631 11.1974 50.7735 -34.5353 5.35381 -54.6834 -29.228 5.35381 
-58.9183 -22.5053 5.35381 -51.0832 -29.228 7.5731 -43.248 -29.228 10.4368 
-35.4129 -29.228 10.9543 57.3305 -29.228 5.35381 58.6087 -27.8751 5.35381 
-59.4975 -21.3929 5.35381 -58.9183 -21.3929 5.77118 -51.0832 -21.3929 8.60551 
-43.248 -21.3929 10.7189 -35.4129 -21.3929 13.0011 63.9278 -21.3929 5.35381 
-61.7326 -13.5577 5.35381 -58.9183 -13.5577 7.34529 -51.0832 -13.5577 10.6905 
-43.248 -13.5577 11.1258 -35.4129 -13.5577 12.1279 -27.5778 -13.5577 13.1253 
66.2973 -13.5577 5.35381 66.4438 -12.5998 5.35381 -61.3767 -5.7226 5.35381 
-58.9183 -5.7226 7.12853 -51.0832 -5.7226 9.81321 -43.248 -5.7226 10.6681 
-35.4129 -5.7226 11.3649 -27.5778 -5.7226 11.9387 66.4438 -0.46221 5.35381 
66.4438 -5.7226 8.95471 -59.3888 2.11253 5.35381 -58.9183 3.76637 5.35381 
-58.9183 2.11253 5.69409 -51.0832 2.11253 8.69106 -43.248 2.11253 10.0905 
-35.4129 2.11253 11.1089 -27.5778 2.11253 11.7124 -19.7426 2.11253 11.8715 
65.9264 2.11253 5.35381 -54.8653 9.94766 5.35381 -51.0832 15.5635 5.35381 
-51.0832 9.94766 7.00234 -43.248 9.94766 9.50921 -35.4129 9.94766 11.7789 
-27.5778 9.94766 11.9987 -19.7426 9.94766 12.5511 62.1629 9.94766 5.35381 
58.6087 16.5575 5.35381 -50.1709 17.7828 5.35381 -43.248 17.7828 9.06934 
-35.4129 17.7828 11.3378 -27.5778 17.7828 12.2728 -19.7426 17.7828 13.1692 
57.6811 17.7828 5.35381 50.7735 17.7828 12.192 -47.3524 25.6179 5.35381 
-43.248 31.9174 5.35381 -43.248 25.6179 7.22341 -35.4129 25.6179 10.0786 
-27.5778 25.6179 11.8323 -19.7426 25.6179 13.0677 42.9384 25.6179 11.8797 
50.8689 25.6179 5.35381 50.7735 25.725 5.35381 50.7735 25.6179 5.49771 
[...]
POINT_DATA 549
SCALARS ImageScalars float
LOOKUP_TABLE default
0 0 0 0 0 0 0 0 0 
0 0 0 0 0 0 0 0 0 
0 0 0 0 0 0 0 0 0 
0 0 0 0 0 0 0 0 0 
0 0 0 0 0 0 0 0 0 
0 0 0 0 0 0 0 0 0 
0 0 0 0 0 0 0 0 0 
0 0 0 0 0 0 0 0 0 
0 0 0 0 0 0 0 0 0 
0 0 0 0 0 0 0 0 0 
0 0 0 0 0 0 0 0 0 
0 0 0 0 0 0 0 0 0 
0 0 0 0 0 0 0 0 0 
0 0 0 0 0 0 0 0 0 
0 0 0 0 0 0 0 0 0 
0 0 0 0 0 0 0 0 0 
0 0 0 0 0 0 0 0 0 
0 0 0 0 0 0 0 0 0 
0 0 0 0 0 0 0 0 0 
0 0 0 0 0 0 0 0 0 
0 0 0 0 0 0 0 0 0 
0 0 0 0 0 0 0 0 0 
0 0 0 0 0 0 0 0 0 
0 0 0 0 0 0 0 0 0 
0 0 0 0 0 0 0 0 0 
0 0 0 0 0 0 0 0 0 
0 0 0 0 0 0 0 0 0 
0 0 0 0 0 0 0 0 0 
0 0 0 0 0 0 0 0 0 
0 0 0 0 0 0 0 0 0 
0 0 0 0 0 0 0 0 0 
0 0 0 0 0 0 0 0 0 
0 0 0 0 0 0 0 0 0 
0 0 0 0 0 0 0 0 0 
0 0 0 0 0 0 0 0 0 
0 0 0 0 0 0 0 0 0 
0 0 0 0 0 0 0 0 0 
0 0 0 0 0 0 0 0 0 
0 0 0 0 0 0 0 0 0 
0 0 0 0 0 0 0 0 0 
0 0 0 0 0 0 0 0 0 
0 0 0 0 0 0 0 0 0 
0 0 0 0 0 0 0 0 0 
0 0 0 0 0 0 0 0 0 
0 0 0 0 0 0 0 0 0 
0 0 0 0 0 0 0 0 0 
0 0 0 0 0 0 0 0 0 
0 0 0 0 0 0 0 0 0 
0 0 0 0 0 0 0 0 0 
0 0 0 0 0 0 0 0 0 
0 0 0 0 0 0 0 0 0 
0 0 0 0 0 0 0 0 0 
0 0 0 0 0 0 0 0 0 
0 0 0 0 0 0 0 0 0 
0 0 0 0 0 0 0 0 0 
0 0 0 0 0 0 0 0 0 
0 0 0 0 0 0 0 0 0 
0 0 0 0 0 0 0 0 0 
0 0 0 0 0 0 0 0 0 
0 0 0 0 0 0 0 0 0 
0 0 0 0 0 0 0 0 0 

NORMALS Normals float
-0.169969 -0.0243435 -0.985149 -0.194236 0.151864 -0.969128 -0.28442 -0.482467 -0.828451 
-0.170913 -0.444285 -0.879431 0.0597336 -0.382904 -0.921855 0.176864 -0.306935 -0.935152 
0.160133 -0.226794 -0.960688 0.0822798 -0.147368 -0.985653 0.099718 -0.184677 -0.977727 
0.0557572 -0.232298 -0.971045 -0.052127 -0.287884 -0.956245 0.00207595 -0.317204 -0.948355 
-0.525557 -0.21986 -0.821858 -0.246395 -0.2669 -0.931694 -0.290239 -0.439877 -0.849864 
-0.0225658 -0.14286 -0.989486 0.0567067 -0.0706694 -0.995887 0.176588 -0.180268 -0.967636 
0.191932 -0.192505 -0.962343 0.142337 -0.081899 -0.986424 0.0793016 -0.0280608 -0.996456 
0.00429757 -0.093436 -0.995616 -0.0739598 -0.105389 -0.991677 -0.0227612 -0.121967 -0.992273 
0.0471643 -0.196979 -0.979273 0.152795 -0.276798 -0.948703 -0.238047 -0.0587608 -0.969474 
-0.567567 0.0179897 -0.823131 0.00908304 -0.0369545 -0.999276 0.117941 -0.0277041 -0.992634 
0.0221755 0.0434995 -0.998807 0.0940982 -0.0441327 -0.994584 0.220432 -0.0835235 -0.97182 
0.247843 -0.282154 -0.926803 0.0793684 -0.132276 -0.98803 -0.0184954 -0.275987 -0.960984 
-0.0652975 -0.141607 -0.987767 -0.0927539 -0.124551 -0.987868 -0.00676823 -0.175347 -0.984483 
0.083363 -0.18065 -0.980008 0.177322 -0.245552 -0.953027 0.361607 -0.224437 -0.904913 
-0.196153 0.152857 -0.968586 -0.587885 0.0171796 -0.808762 -0.187484 0.151952 -0.970443 
-0.195975 0.153792 -0.968474 0.0941169 0.113717 -0.989045 0.0441033 0.110429 -0.992905 
0.0555365 0.13206 -0.989685 -0.0544326 0.11679 -0.991664 0.0739465 -0.169995 -0.982667 
0.10309 -0.156231 -0.982326 0.012161 -0.208218 -0.978007 0.0672261 -0.183554 -0.980708 
-0.0539026 -0.171414 -0.983723 -0.0170561 -0.166926 -0.985822 0.0880075 -0.151072 -0.984597 
0.209677 -0.123085 -0.969993 0.343588 -0.0571316 -0.937381 -0.520104 0.101441 -0.848057 
-0.272689 0.224672 -0.935502 0.032471 0.0898184 -0.995429 0.0436045 0.0323102 -0.998526 
0.115767 0.00619085 -0.993257 -0.0404787 -0.0177111 -0.999023 -0.0443157 0.0804472 -0.995773 
0.00392077 0.048323 -0.998824 -0.0290341 -0.050443 -0.998305 -0.00758309 -0.154057 -0.988033 
-0.0824241 -0.179654 -0.980271 0.0151348 -0.164394 -0.986279 0.123583 -0.114404 -0.985717 
0.24987 -0.0607437 -0.966372 0.413641 0.0138289 -0.910335 -0.604466 0.28558 -0.743684 
-0.343552 0.232151 -0.909988 -0.0793248 0.0601676 -0.995031 -0.0288437 -0.09021 -0.995505 
0.00314429 -0.1407 -0.990047 0.00199212 -0.214807 -0.976654 0.142281 0.0228524 -0.989562 
0.00950736 -0.0156342 -0.999833 -0.201134 0.0600131 -0.977724 -0.0581921 -0.112552 -0.99194 
-0.0610036 -0.137354 -0.988642 0.0479479 -0.118073 -0.991847 0.190077 -0.0805973 -0.978455 
0.323387 0.0010558 -0.946266 0.507386 0.0471345 -0.860429 -0.43436 0.210624 -0.875768 
-0.30115 -0.00203994 -0.953574 -0.148336 -0.0542885 -0.987446 -0.0252112 -0.0804434 -0.99644 
0.0938615 -0.0637028 -0.993545 0.205124 0.0188009 -0.978555 0.0316021 -0.0980396 -0.994681 
-0.15707 0.0400758 -0.986774 -0.180977 0.037387 -0.982777 -0.0913219 0.0341755 -0.995235 
0.0685024 0.043887 -0.996685 0.240021 0.0480907 -0.969576 0.381719 0.111028 -0.917586 
0.621795 0.271563 -0.734591 -0.631127 0.358758 -0.687729 -0.33792 0.171641 -0.925391 
-0.0764884 0.197153 -0.977384 -0.00329174 0.136979 -0.990568 0.100593 0.132209 -0.986104 
0.115301 0.049392 -0.992102 0.0104781 -0.0487916 -0.998754 -0.0584919 0.0185545 -0.998115 
-0.0762586 0.0930668 -0.992735 -0.0562397 0.211884 -0.975675 0.0593733 0.231218 -0.971089 
0.243281 0.268977 -0.931915 0.545237 0.368122 -0.753129 -0.47187 0.594945 -0.650676 
-0.212443 0.492511 -0.843979 -0.0652199 0.3688 -0.927218 0.0169698 0.306868 -0.951601 
0.00722901 0.201819 -0.979396 0.00937977 0.124046 -0.992232 -0.00550949 0.171639 -0.985144 
0.0182231 0.290172 -0.956801 0.0450659 0.375549 -0.925706 0.131061 0.472017 -0.871793 
0.39125 0.577581 -0.716466 -0.1398 0.646569 -0.749936 -0.113698 0.489835 -0.864369 
-0.0284354 0.397208 -0.917288 0.119878 0.416212 -0.901331 0.174922 0.501361 -0.847372 
-0.0158349 -0.97328 -0.229075 0.115794 -0.965958 -0.231336 -0.361286 -0.671802 -0.646648 
-0.0815273 -0.633706 -0.769266 -0.158117 -0.768529 -0.61997 -0.0266096 -0.639653 -0.768203 
-0.0367874 -0.697659 -0.715485 -0.00684437 -0.550734 -0.834653 -0.0358683 -0.609228 -0.792184 
-0.00619452 -0.412597 -0.910893 -0.0260183 -0.441495 -0.896887 0.0854743 -0.35478 -0.931035 
0.0883501 -0.405222 -0.909939 0.125119 -0.2904 -0.94869 0.194882 -0.537907 -0.820169 
0.0567787 -0.238169 -0.969563 0.137309 -0.701276 -0.699542 -0.0521089 -0.287987 -0.956216 
0.0105322 -0.726955 -0.686605 0.000294032 -0.381318 -0.924444 -0.0138374 -0.707377 -0.706701 
0.141883 -0.637841 -0.756986 0.315422 -0.704317 -0.635961 -0.535271 -0.591934 -0.602576 
-0.620597 -0.493387 -0.60945 -0.685825 -0.714215 -0.139791 0.145972 -0.310661 -0.939245 
0.155378 -0.30394 -0.939935 0.159768 -0.310487 -0.937055 0.172092 -0.331676 -0.927564 
0.185113 -0.402762 -0.89639 0.308805 -0.497622 -0.810563 0.536543 -0.528596 -0.657806 
-0.693975 -0.307925 -0.650831 0.220013 -0.290312 -0.931297 0.228398 -0.283047 -0.931514 
0.24607 -0.292702 -0.923999 0.354242 -0.236233 -0.904824 0.308481 -0.392663 -0.866403 
-0.796379 -0.0413461 -0.603382 -0.985467 -0.117105 0.123047 0.369179 -0.221281 -0.90263 
0.576741 -0.235978 -0.782103 -0.724536 0.0630105 -0.686351 -0.980086 0.124071 0.155044 
0.372957 -0.0574107 -0.926071 0.512852 -0.0698955 -0.855627 -0.712758 0.145421 -0.68617 
0.451553 0.0368967 -0.891481 0.630218 0.164966 -0.75869 -0.643632 0.313904 -0.697999 
-0.653533 0.34609 -0.673139 0.534599 0.0693293 -0.842257 0.769721 0.332494 -0.544955 
-0.64342 0.316541 -0.697003 -0.860726 0.501516 0.0873595 0.629922 0.276708 -0.725694 
0.629391 0.28714 -0.722093 -0.691699 0.383547 -0.611919 -0.659004 0.427163 -0.619068 
0.606264 0.423493 -0.673125 0.567989 0.484963 -0.664981 -0.540961 0.614752 -0.573969 
-0.493779 0.652074 -0.57531 -0.292124 0.734152 -0.612931 -0.162678 0.774155 -0.611736 
0.143023 0.646826 -0.749107 0.212351 0.705547 -0.6761 0.452168 0.602252 -0.657903 
0.413234 0.625634 -0.66168 0.642119 0.720916 -0.260699 -0.408457 0.91263 0.0164367 
-0.164926 0.750726 -0.639696 -0.184668 0.815447 -0.548583 -0.165618 0.683262 -0.711142 
-0.170034 0.642211 -0.747431 -0.0429129 0.68105 -0.730979 0.125672 0.632385 -0.764393 
0.17546 0.606952 -0.775128 0.203509 0.563284 -0.800809 0.184632 0.724193 -0.664421 
0.293444 0.868527 -0.399438 -0.0642958 0.991143 -0.116195 0.1006 0.987813 -0.118767 
-0.0154169 -0.974773 -0.222667 0.115707 -0.966527 -0.228993 -0.363829 -0.927803 -0.0825263 
-0.243976 -0.958606 -0.146803 -0.050375 -0.974549 -0.218442 -0.171084 -0.964104 -0.203062 
-0.0199619 -0.983556 -0.179499 0.116866 -0.966299 -0.229366 0.115845 -0.969028 -0.218095 
0.258547 -0.927193 -0.271047 0.163238 -0.920414 -0.355234 0.0065106 -0.924278 -0.381665 
-0.0002217 -0.91064 -0.413201 0.132955 -0.889812 -0.436528 0.2877 -0.778305 -0.558094 
-0.676567 -0.733246 0.0678817 -0.47742 -0.876074 0.0675614 -0.493825 -0.865436 0.0846055 
0.311351 -0.734737 -0.602679 0.322302 -0.678054 -0.660579 0.369551 -0.853709 -0.366897 
0.538657 -0.563273 -0.626556 -0.720554 -0.689469 0.0737152 -0.697009 -0.689931 0.195382 
0.556801 -0.537546 -0.633259 -0.945642 -0.294369 0.138231 -0.974152 -0.131072 0.183978 
0.590379 -0.537154 -0.602426 0.597223 -0.526669 -0.604934 0.606581 -0.54823 -0.575764 
-0.976349 -0.113726 0.183871 -0.971041 -0.114013 0.209956 0.735685 -0.216972 -0.641631 
-0.979352 0.122665 0.160693 -0.978998 0.125194 0.160902 -0.97867 0.122988 0.164558 
0.856447 -0.0199388 -0.515851 0.98361 0.0128094 -0.179853 -0.96079 0.243613 0.13242 
0.823546 0.216857 -0.524161 -0.924866 0.36023 0.121892 -0.666433 0.316649 0.674981 
0.819691 0.35806 -0.447102 0.805958 0.413615 -0.423502 -0.858605 0.497056 0.125428 
-0.857398 0.499266 0.124908 -0.855171 0.497479 0.14559 -0.55039 0.195459 0.811706 
0.810019 0.477151 -0.340877 0.77485 0.58554 -0.238223 -0.835255 0.533712 0.132291 
-0.750288 0.646492 0.138259 -0.658732 0.411184 0.630079 0.774263 0.586635 -0.237437 
0.773272 0.632613 -0.0430168 -0.67307 0.729745 0.120201 -0.561192 0.821169 0.10366 
-0.493281 0.549928 0.673983 0.471361 0.872139 -0.131119 0.670061 0.728311 -0.143462 
0.646644 0.749664 -0.140909 -0.415718 0.907794 0.0555699 -0.410307 0.910383 0.0533921 
-0.412902 0.907359 0.0788141 -0.306742 0.951723 0.0115442 -0.279678 0.801387 0.528733 
-0.257925 0.965801 -0.0265073 -0.197713 0.980081 -0.018708 0.23573 0.970227 -0.0555977 
0.298957 0.946423 -0.122103 0.418979 0.900539 -0.116126 0.34889 0.931313 -0.104555 
-0.115797 0.993119 -0.0174639 -0.0658395 0.997689 -0.0167869 -0.0689149 0.993145 0.0944105 
0.131549 0.990457 -0.0411155 0.0964158 0.994514 -0.0405755 0.097642 0.993434 0.0596293 
-0.333704 -0.687889 0.644554 -0.239228 -0.745915 0.621595 -0.211102 -0.782122 0.586277 
-0.0828684 -0.868906 0.487991 0.0942962 -0.88866 0.448766 0.172125 -0.884781 0.433053 
0.0833756 -0.925819 0.368657 -0.0504504 -0.947933 0.314449 -0.0914189 -0.975647 0.199387 
0.00944671 -0.995631 0.092893 0.188882 -0.981996 -0.00265963 0.380942 -0.923391 -0.0472538 
-0.350599 -0.68083 0.643079 -0.461657 -0.545037 0.699862 -0.333321 -0.670016 0.663307 
-0.201565 -0.615775 0.761704 -0.144523 -0.57488 0.805373 -0.124852 -0.510143 0.85098 
0.00531808 -0.492297 0.870411 0.083029 -0.600342 0.795422 0.010049 -0.720842 0.693026 
-0.123647 -0.769847 0.626136 -0.184378 -0.708326 0.681381 0.456524 -0.888331 -0.0495298 
0.302736 -0.896013 0.324826 0.564634 -0.823843 -0.0497108 -0.561021 -0.471662 0.680287 
-0.516314 -0.330011 0.790261 -0.389555 -0.389875 0.834413 -0.240444 -0.297227 0.924036 
-0.173491 -0.285577 0.942521 0.70851 -0.679857 -0.189229 0.729668 -0.655541 -0.194552 
-0.50209 -0.293951 0.813326 -0.484346 -0.279534 0.829017 -0.352335 -0.187384 0.916923 
-0.24645 -0.0386481 0.968385 -0.180155 -0.0611019 0.981739 0.850591 -0.521401 -0.0680914 
-0.595579 -0.101824 0.796817 -0.49027 -0.0941307 0.866472 -0.324271 -0.0700998 0.943363 
-0.0869126 0.00418425 0.996207 -0.126594 0.102401 0.986655 -0.156536 0.118257 0.980567 
0.974103 -0.192322 -0.118893 0.979874 -0.165068 -0.112248 -0.586247 0.125368 0.800373 
-0.483668 0.113293 0.867888 -0.299788 0.115823 0.946949 -0.0901275 0.0654385 0.993778 
-0.0827328 0.0667365 0.994335 -0.108812 0.088342 0.990129 0.975635 0.21463 -0.0454994 
0.978832 0.0528612 0.197722 -0.511216 0.210632 0.833242 -0.510469 0.220909 0.831036 
-0.498984 0.206341 0.841688 -0.347325 0.168029 0.922568 -0.142409 0.072275 0.987166 
-0.0987611 -0.0239481 0.994823 -0.0531818 -0.00316207 0.99858 -0.302465 0.0383504 0.952389 
0.951102 0.307094 -0.0331515 -0.449285 0.237229 0.861316 -0.474062 0.181851 0.861508 
-0.367514 0.209527 0.906108 -0.261053 0.064799 0.963147 -0.148064 -0.0193028 0.988789 
-0.0493868 -0.0362319 0.998122 -0.082831 -0.0824157 0.99315 0.872353 0.481817 0.082784 
0.793246 0.595225 0.12833 -0.504691 0.170154 0.846365 -0.346029 0.113708 0.931308 
-0.216478 0.103162 0.970822 -0.113804 0.0108554 0.993444 -0.0809272 -0.0328941 0.996177 
0.770121 0.616824 0.162609 0.474285 0.543401 0.692654 -0.478959 0.312444 0.820352 
-0.458038 0.474274 0.751841 -0.397857 0.283173 0.872653 -0.259406 0.208472 0.942999 
-0.176213 0.145541 0.973533 -0.0983634 0.0945217 0.990651 0.405039 0.495802 0.768195 
0.709263 0.653242 0.264993 0.708151 0.654017 0.266051 0.706487 0.65255 0.27396 
-0.449005 0.512222 0.732136 -0.357258 0.59502 0.719943 -0.323186 0.466491 0.823369 
-0.260839 0.711551 0.652425 -0.209447 0.371827 0.904365 -0.11871 0.296508 0.947624 
-0.0182134 0.301331 0.953346 -0.0160554 0.285825 0.958147 -0.0468665 0.287919 0.956507 
-0.0550173 0.328441 0.942921 -0.0371258 0.410285 0.911202 0.125908 0.456427 0.880808 
0.430784 0.792137 0.43237 0.36708 0.621821 0.691803 0.592753 0.720294 0.360306 
0.592683 0.720344 0.360321 0.592631 0.720251 0.360592 -0.247959 0.733076 0.633337 
-0.227848 0.744984 0.626963 -0.196458 0.676281 0.709964 -0.166274 0.730992 0.661818 
-0.0943412 0.567658 0.817841 -0.0707767 0.747573 0.660397 -0.0502786 0.486864 0.87203 
0.0642506 0.759298 0.647564 0.00110055 0.495518 0.868597 0.149823 0.79361 0.589691 
0.0709447 0.617993 0.782976 0.210855 0.8235 0.526676 0.156624 0.747446 0.645596 
0.258106 0.87101 0.417999 0.252972 0.87221 0.418634 0.251156 0.869392 0.425533 
-0.0749017 -0.714404 0.695713 0.0885276 -0.727816 0.680034 -0.125198 -0.293649 0.947679 
-0.0181429 -0.274652 0.961372 -0.0294163 -0.318415 0.947495 -0.00662958 -0.372182 0.928136 
-0.0721223 -0.415319 0.906812 -0.162034 -0.513206 0.842832 -0.139396 -0.679244 0.720553 
-0.190704 -0.634201 0.749281 -0.0704338 -0.678136 0.731554 0.166688 -0.785244 0.596328 
0.0729693 -0.691876 0.718319 0.253809 -0.830039 0.496605 0.466828 -0.754671 0.461025 
-0.131573 -0.274064 0.952669 -0.128183 -0.275754 0.952643 -0.0171966 -0.272238 0.962076 
-0.0341111 -0.292002 0.955809 -0.0200226 -0.344438 0.938595 -0.0895457 -0.365382 0.926541 
-0.17375 -0.365181 0.914579 -0.173821 -0.340817 0.923921 -0.0948663 -0.316847 0.94372 
-0.0114825 -0.384839 0.922912 0.0695659 -0.371779 0.925711 0.599857 -0.648526 0.4686 
0.407875 -0.571968 0.711682 0.690886 -0.510688 0.511736 -0.163749 -0.040805 0.985658 
-0.15223 0.108966 0.98232 -0.115529 0.0178544 0.993144 -0.126537 -0.0938062 0.987517 
-0.0871329 -0.203209 0.975251 -0.0268952 -0.160297 0.986702 -0.0604771 -0.13517 0.988975 
-0.164505 -0.105008 0.980771 -0.171361 -0.0876433 0.981302 -0.123976 -0.110872 0.986072 
-0.0189816 -0.140649 0.989878 0.108739 -0.165828 0.980141 0.222654 -0.151993 0.962976 
0.695778 -0.414195 0.586801 0.617127 -0.367239 0.695909 -0.160705 0.117757 0.979953 
-0.256663 0.0750189 0.963585 -0.0914799 -0.104629 0.990295 0.0423931 0.0938324 0.994685 
-0.0405594 -0.0910163 0.995023 -0.137578 0.0387181 0.989734 -0.187757 0.0876947 0.978293 
-0.146525 0.0134901 0.989115 -0.0747575 0.0329602 0.996657 0.146315 -0.135191 0.979957 
0.762129 -0.126913 0.634864 0.485025 -0.132343 0.864428 -0.386562 0.187635 0.902975 
-0.391499 0.186809 0.901017 -0.393036 0.189543 0.899776 -0.03084 0.0347066 0.998922 
0.00986846 0.142748 0.98971 -0.129204 -0.140713 0.981584 0.0243991 0.0316146 0.999202 
-0.185955 0.081998 0.979131 -0.186392 0.060467 0.980613 -0.0812583 0.0687002 0.994323 
-0.0451134 0.0801351 0.995763 0.780909 0.0983306 0.616857 0.429849 0.0993222 0.897421 
-0.277931 0.121903 0.952835 -0.121926 0.274047 0.953956 -0.113259 -0.0286554 0.993152 
-0.142406 0.174959 0.974223 0.0613248 -0.00571042 0.998102 -0.153726 -0.049914 0.986852 
-0.157022 0.0262787 0.987245 -0.0464671 0.0683821 0.996576 0.0534241 0.160502 0.985589 
0.177887 0.254352 0.950611 0.636653 0.318661 0.70223 0.523168 0.297426 0.798644 
-0.138167 0.139835 0.980488 -0.146176 0.171279 0.974318 -0.138205 0.0312051 0.989912 
-0.0975357 0.243549 0.964972 -0.169243 0.0551672 0.984029 -0.161078 -0.0224542 0.986686 
-0.0734869 0.0568095 0.995677 0.0484135 0.139412 0.98905 0.158934 0.232271 0.959578 
0.423507 0.500054 0.755372 0.301989 0.328823 0.894806 0.640533 0.388993 0.662119 
0.64053 0.388996 0.662121 0.640528 0.388993 0.662124 -0.0793264 -0.0314011 0.996354 
-0.0502823 -0.00225569 0.998733 -0.0439263 0.0872867 0.995214 -0.112836 0.113143 0.987151 
-0.21536 0.121406 0.968958 -0.155585 0.137593 0.978193 0.00670827 0.18414 0.982877 
0.137225 0.263708 0.954792 0.414691 0.494726 0.763726 0.353732 0.445583 0.822393 
0.268848 0.372999 0.888027 -0.0665178 0.102874 0.992468 -0.0263954 0.130261 0.991128 
-0.0278252 0.113724 0.993123 -0.0189372 0.162527 0.986522 -0.0187259 0.131846 0.991093 
-0.0583339 0.178084 0.982285 -0.0651663 0.136874 0.988443 -0.077361 0.282835 0.956044 
-0.131477 0.198354 0.971272 -0.0456001 0.395196 0.917464 -0.0998073 0.290113 0.951774 
0.125568 0.455771 0.881195 0.0555381 0.317598 0.946598 0.320399 0.447008 0.835181 
0.271376 0.468824 0.840571 0.234171 0.397658 0.887148 0.0435194 -0.0673161 0.996782 
-0.0165546 -0.0131418 0.999777 0.0480864 -0.0673598 0.996569 -0.0115271 0.021958 0.999692 
0.0331961 -0.0521522 0.998087 0.100662 0.0652262 0.99278 0.0214314 0.089434 0.995762 
0.115521 0.0989595 0.988363 0.0974498 0.10814 0.989348 0.0964879 0.0993776 0.990361 

