# vtk DataFile Version 4.2
vtk output
ASCII
DATASET POLYDATA
POINTS 518 float
-0.714499 -40.4489 -12.8769 7.22917 -40.4489 -13.3969 15.1728 -40.4489 -12.5814 
-16.6018 -32.5052 -12.3938 -8.65817 -32.5052 -13.6086 -0.714499 -32.5052 -14.0816 
7.22917 -32.5052 -14.4973 15.1728 -32.5052 -14.6604 23.1165 -32.5052 -13.2721 
-24.5455 -24.5615 -13.4318 -16.6018 -24.5615 -15.0542 -8.65817 -24.5615 -15.0008 
-0.714499 -24.5615 -14.9432 7.22917 -24.5615 -15.0753 15.1728 -24.5615 -15.1686 
23.1165 -24.5615 -14.7085 31.0602 -24.5615 -12.791 -24.5455 -16.6179 -14.9873 
-16.6018 -16.6179 -16.9566 -8.65817 -16.6179 -16.4652 -0.714499 -16.6179 -15.7919 
7.22917 -16.6179 -14.9022 15.1728 -16.6179 -14.971 23.1165 -16.6179 -14.5808 
31.0602 -16.6179 -13.6133 39.0039 -16.6179 -12.4006 -32.4892 -8.6742 -13.2345 
-24.5455 -8.6742 -15.7425 -16.6018 -8.6742 -17.2696 -8.65817 -8.6742 -16.5224 
-0.714499 -8.6742 -17.6914 7.22917 -8.6742 -14.6403 15.1728 -8.6742 -14.7775 
23.1165 -8.6742 -13.9181 31.0602 -8.6742 -13.7365 39.0039 -8.6742 -12.9235 
-40.4329 -0.730528 -13.0252 -32.4892 -0.730528 -14.5044 -24.5455 -0.730528 -15.9001 
-16.6018 -0.730528 -16.4168 -8.65817 -0.730528 -17.5868 -0.714499 -0.730528 -14.5018 
7.22917 -0.730528 -16.3902 15.1728 -0.730528 -16.3568 23.1165 -0.730528 -13.0165 
31.0602 -0.730528 -13.6629 39.0039 -0.730528 -13.5991 46.9475 -0.730528 -12.6361 
-40.4329 7.21314 -13.8775 -32.4892 7.21314 -15.4902 -24.5455 7.21314 -15.7046 
-16.6018 7.21314 -15.036 -8.65817 7.21314 -18.3022 -0.714499 7.21314 -17.9759 
7.22917 7.21314 -19.1018 15.1728 7.21314 -16.3741 23.1165 7.21314 -14.0968 
31.0602 7.21314 -14.5044 39.0039 7.21314 -14.5904 46.9475 7.21314 -14.8875 
54.8912 7.21314 -12.8847 -40.4329 15.1568 -14.1791 -32.4892 15.1568 -15.7151 
-24.5455 15.1568 -15.9511 -16.6018 15.1568 -15.988 -8.65817 15.1568 -16.9833 
-0.714499 15.1568 -16.5377 7.22917 15.1568 -15.3544 15.1728 15.1568 -15.0058 
23.1165 15.1568 -15.2559 31.0602 15.1568 -15.5996 39.0039 15.1568 -15.5487 
46.9475 15.1568 -15.0278 54.8912 15.1568 -12.2174 -40.4329 23.1005 -13.9293 
-32.4892 23.1005 -15.9788 -24.5455 23.1005 -16.3494 -16.6018 23.1005 -16.5055 
-8.65817 23.1005 -16.525 -0.714499 23.1005 -16.0197 7.22917 23.1005 -16.1414 
15.1728 23.1005 -15.9709 23.1165 23.1005 -16.5013 31.0602 23.1005 -17.9059 
39.0039 23.1005 -15.4363 46.9475 23.1005 -13.8309 -32.4892 31.0442 -14.7112 
-24.5455 31.0442 -15.5855 -16.6018 31.0442 -15.7315 -8.65817 31.0442 -15.9755 
-0.714499 31.0442 -16.5499 7.22917 31.0442 -16.8424 15.1728 31.0442 -16.5226 
23.1165 31.0442 -17.6971 31.0602 31.0442 -15.7354 39.0039 31.0442 -16.2631 
-24.5455 38.9878 -13.341 -16.6018 38.9878 -13.7595 -8.65817 38.9878 -14.4777 
-0.714499 38.9878 -15.7203 7.22917 38.9878 -16.3026 15.1728 38.9878 -15.6609 
23.1165 38.9878 -15.3771 31.0602 38.9878 -14.1503 39.0039 38.9878 -12.253 
-0.714499 46.9315 -12.5376 7.22917 46.9315 -13.0094 -16.6018 -48.3926 -5.72886 
-8.65817 -48.3926 -7.17594 -0.714499 -42.7801 -12.1619 -0.714499 -48.3926 -9.45858 
7.22917 -42.8779 -12.1619 7.22917 -48.3926 -8.5364 15.1728 -41.5384 -12.1619 
15.1728 -48.3926 -7.8545 23.1165 -48.3926 -4.97286 -32.4892 -40.4489 -4.28206 
-24.5455 -40.4489 -7.21917 -16.6018 -33.1493 -12.1619 -16.6018 -40.4489 -9.47208 
-4.6937 -40.4489 -12.1619 -8.65817 -37.6586 -12.1619 -8.65817 -40.4489 -11.317 
16.9803 -40.4489 -12.1619 23.1165 -35.8923 -12.1619 23.1165 -40.4489 -10.5111 
31.0602 -40.4489 -7.47646 -40.4329 -32.5052 -4.50084 -32.4892 -32.5052 -7.95099 
-17.9146 -32.5052 -12.1619 -24.5455 -28.6674 -12.1619 -24.5455 -32.5052 -10.9078 
27.5598 -32.5052 -12.1619 31.0602 -27.9035 -12.1619 31.0602 -32.5052 -11.2592 
39.0039 -32.5052 -7.28453 -40.4329 -24.5615 -6.56965 -28.4642 -24.5615 -12.1619 
-32.4892 -24.5615 -10.7655 33.0384 -24.5615 -12.1619 39.0039 -17.4294 -12.1619 
39.0039 -24.5615 -10.1459 46.9475 -24.5615 -6.0545 -48.3765 -16.6179 -4.43763 
-40.4329 -16.6179 -8.73833 -32.1294 -16.6179 -12.1619 -32.4892 -15.7659 -12.1619 
-32.4892 -16.6179 -12.0315 40.1305 -16.6179 -12.1619 46.9475 -16.6179 -9.91403 
-48.3765 -8.6742 -6.72456 -35.6973 -8.6742 -12.1619 -40.4329 -3.55214 -12.1619 
-40.4329 -8.6742 -10.4638 41.8828 -8.6742 -12.1619 46.9475 -2.5657 -12.1619 
46.9475 -8.6742 -10.8118 54.8912 -8.6742 -5.98364 -42.5086 -0.730528 -12.1619 
-48.3765 -0.730528 -8.92635 48.7571 -0.730528 -12.1619 54.8912 4.0658 -12.1619 
54.8912 -0.730528 -10.087 -44.4221 7.21314 -12.1619 -48.3765 7.21314 -10.3288 
55.8801 7.21314 -12.1619 -45.0631 15.1568 -12.1619 -48.3765 15.1568 -10.4872 
54.9633 15.1568 -12.1619 54.8912 15.435 -12.1619 -45.9043 23.1005 -12.1619 
-48.3765 23.1005 -10.7836 -40.4329 28.4125 -12.1619 50.3753 23.1005 -12.1619 
46.9475 27.4783 -12.1619 54.8912 23.1005 -6.46698 -38.4541 31.0442 -12.1619 
-40.4329 31.0442 -10.9267 -32.4892 36.1056 -12.1619 44.7592 31.0442 -12.1619 
46.9475 31.0442 -9.48399 -40.4329 38.9878 -5.46517 -27.9582 38.9878 -12.1619 
-32.4892 38.9878 -10.018 -24.5455 41.5048 -12.1619 -16.6018 42.19 -12.1619 
-8.65817 44.2568 -12.1619 15.1728 46.3893 -12.1619 23.1165 44.1494 -12.1619 
31.0602 41.16 -12.1619 39.1743 38.9878 -12.1619 39.0039 39.0863 -12.1619 
-24.5455 46.9315 -7.77595 -16.6018 46.9315 -9.17442 -2.33221 46.9315 -12.1619 
-8.65817 46.9315 -10.7462 -0.714499 47.4013 -12.1619 13.4178 46.9315 -12.1619 
7.22917 48.2265 -12.1619 15.1728 46.9315 -11.5473 -16.6018 -49.8855 -4.21823 
-8.65817 -51.7848 -4.21823 -0.714499 -53.3686 -4.21823 -0.714499 -56.3362 3.67293 
7.22917 -53.1525 -4.21823 15.1728 -51.2859 -4.21823 23.1165 -48.9572 -4.21823 
-32.4892 -40.5236 -4.21823 -19.4722 -48.3926 -4.21823 -24.5455 -44.3321 -4.21823 
-24.5455 -48.3926 1.17068 24.1367 -48.3926 -4.21823 31.0602 -43.3245 -4.21823 
-32.5881 -40.4489 -4.21823 -40.4329 -32.9364 -4.21823 34.7444 -40.4489 -4.21823 
39.0039 -35.9198 -4.21823 -40.7765 -32.5052 -4.21823 41.6846 -32.5052 -4.21823 
46.9475 -26.793 -4.21823 -43.612 -24.5615 -4.21823 -48.3765 -17.1534 -4.21823 
-48.3765 -24.5615 1.37497 48.4272 -24.5615 -4.21823 -48.5945 -16.6179 -4.21823 
52.1189 -16.6179 -4.21823 54.8912 -11.8535 -4.21823 -50.5807 -8.6742 -4.21823 
56.145 -8.6742 -4.21823 -53.5466 -0.730528 -4.21823 58.7476 -0.730528 -4.21823 
-55.651 7.21314 -4.21823 59.7047 7.21314 -4.21823 -55.0591 15.1568 -4.21823 
58.6555 15.1568 -4.21823 54.8912 15.1568 2.02985 -52.9822 23.1005 -4.21823 
-48.3765 30.4409 -4.21823 55.7038 23.1005 -4.21823 54.8912 24.5289 -4.21823 
54.8912 23.1005 -3.08853 -47.8865 31.0442 -4.21823 50.1487 31.0442 -4.21823 
46.9475 34.0814 -4.21823 46.9475 31.0442 -1.12279 -41.2696 38.9878 -4.21823 
-40.4329 39.7792 -4.21823 -40.4329 38.9878 1.18285 -32.4892 45.2618 -4.21823 
23.1165 46.8427 -4.21823 31.0602 43.0332 -4.21823 31.0602 38.9878 1.18294 
39.2218 38.9878 -4.21823 39.0039 39.1065 -4.21823 39.0039 38.9878 -4.06492 
-29.682 46.9315 -4.21823 -24.5455 49.1866 -4.21823 -16.6018 51.4966 -4.21823 
-8.65817 52.8745 -4.21823 -0.714499 53.4419 -4.21823 7.22917 52.4466 -4.21823 
22.936 46.9315 -4.21823 15.1728 49.9022 -4.21823 15.1728 46.9315 0.702982 
-0.714499 -56.35 3.72544 -24.5455 -49.5923 3.72544 -16.6018 -53.2988 3.72544 
-1.15394 -56.3362 3.72544 -8.65817 -56.0763 3.72544 -0.57456 -56.3362 3.72544 
-0.714499 -56.3362 3.76954 7.22917 -55.4991 3.72544 15.1728 -53.3128 3.72544 
23.1165 -50.3532 3.72544 -26.8663 -48.3926 3.72544 -32.4892 -45.229 3.72544 
-24.5455 -48.3926 9.12487 15.1728 -48.3926 10.8357 26.5917 -48.3926 3.72544 
23.1165 -48.3926 7.88315 31.0602 -45.6178 3.72544 -39.2576 -40.4489 3.72544 
-40.4329 -39.3496 3.72544 37.2947 -40.4489 3.72544 31.0602 -40.4489 10.1187 
39.0039 -38.5626 3.72544 -45.7082 -32.5052 3.72544 -48.3765 -27.2225 3.72544 
43.6573 -32.5052 3.72544 39.0039 -32.5052 10.8998 46.9475 -26.7164 3.72544 
-49.5852 -24.5615 3.72544 -48.3765 -24.5615 8.27056 39.0039 -24.5615 11.5971 
48.1358 -24.5615 3.72544 46.9475 -24.5615 5.26311 -51.9572 -16.6179 3.72544 
-48.3765 -16.6179 9.52237 51.1602 -16.6179 3.72544 46.9475 -16.6179 8.755 
54.8912 -8.82713 3.72544 -54.0401 -8.6742 3.72544 -48.3765 -8.6742 10.5388 
46.9475 -8.6742 10.3658 54.9534 -8.6742 3.72544 54.8912 -8.6742 3.79264 
-55.6756 -0.730528 3.72544 -48.3765 -0.730528 11.0847 39.0039 -0.730528 11.3572 
46.9475 -0.730528 9.80491 56.0188 -0.730528 3.72544 54.8912 -0.730528 4.81318 
-56.2419 7.21314 3.72544 -48.3765 7.21314 10.563 31.0602 7.21314 10.824 
39.0039 7.21314 9.85183 46.9475 7.21314 8.22976 55.8392 7.21314 3.72544 
54.8912 10.6063 3.72544 54.8912 7.21314 4.51036 -54.2883 15.1568 3.72544 
23.1165 15.1568 10.8611 31.0602 15.1568 9.76457 39.0039 15.1568 8.45333 
52.3209 15.1568 3.72544 46.9475 15.1568 6.21888 -51.7843 23.1005 3.72544 
-48.3765 28.6416 3.72544 -48.3765 23.1005 7.47117 -40.4329 23.1005 11.5494 
23.1165 23.1005 9.65129 31.0602 23.1005 8.28785 39.0039 23.1005 6.45038 
48.9981 23.1005 3.72544 46.9475 25.5094 3.72544 46.9475 23.1005 5.06366 
-46.3889 31.0442 3.72544 -40.4329 38.363 3.72544 -40.4329 31.0442 10.2502 
15.1728 31.0442 10.1217 23.1165 31.0442 7.56898 31.0602 34.735 3.72544 
31.0602 31.0442 5.42296 40.6119 31.0442 3.72544 39.0039 32.208 3.72544 
39.0039 31.0442 4.54 -39.8742 38.9878 3.72544 -32.4892 44.7899 3.72544 
-32.4892 38.9878 9.18403 7.22917 38.9878 9.93439 15.1728 43.7011 3.72544 
15.1728 38.9878 6.9354 26.0469 38.9878 3.72544 23.1165 40.4339 3.72544 
23.1165 38.9878 4.74105 -29.3789 46.9315 3.72544 -24.5455 49.4189 3.72544 
-24.5455 46.9315 7.97075 -16.6018 51.3276 3.72544 -16.6018 46.9315 11.4355 
-8.65817 52.3799 3.72544 -8.65817 46.9315 9.45466 -0.714499 51.0275 3.72544 
-0.714499 46.9315 7.61275 11.2661 46.9315 3.72544 7.22917 48.9695 3.72544 
7.22917 46.9315 5.77638 -16.6018 -49.2921 11.6691 -8.65817 -51.9801 11.6691 
-0.714499 -52.383 11.6691 7.22917 -50.5462 11.6691 -32.4892 -41.2034 11.6691 
-20.8836 -48.3926 11.6691 -24.5455 -47.3844 11.6691 -16.6018 -48.3926 12.5693 
-8.65817 -48.3926 13.9241 -0.714499 -48.3926 14.2971 12.9018 -48.3926 11.6691 
7.22917 -48.3926 13.1781 15.1728 -47.3199 11.6691 23.1165 -44.9442 11.6691 
[...]
POINT_DATA 518
SCALARS ImageScalars float
LOOKUP_TABLE default
0 0 0 0 0 0 0 0 0 
0 0 0 0 0 0 0 0 0 
0 0 0 0 0 0 0 0 0 
0 0 0 0 0 0 0 0 0 
0 0 0 0 0 0 0 0 0 
0 0 0 0 0 0 0 0 0 
0 0 0 0 0 0 0 0 0 
0 0 0 0 0 0 0 0 0 
0 0 0 0 0 0 0 0 0 
0 0 0 0 0 0 0 0 0 
0 0 0 0 0 0 0 0 0 
0 0 0 0 0 0 0 0 0 
0 0 0 0 0 0 0 0 0 
0 0 0 0 0 0 0 0 0 
0 0 0 0 0 0 0 0 0 
0 0 0 0 0 0 0 0 0 
0 0 0 0 0 0 0 0 0 
0 0 0 0 0 0 0 0 0 
0 0 0 0 0 0 0 0 0 
0 0 0 0 0 0 0 0 0 
0 0 0 0 0 0 0 0 0 
0 0 0 0 0 0 0 0 0 
0 0 0 0 0 0 0 0 0 
0 0 0 0 0 0 0 0 0 
0 0 0 0 0 0 0 0 0 
0 0 0 0 0 0 0 0 0 
0 0 0 0 0 0 0 0 0 
0 0 0 0 0 0 0 0 0 
0 0 0 0 0 0 0 0 0 
0 0 0 0 0 0 0 0 0 
0 0 0 0 0 0 0 0 0 
0 0 0 0 0 0 0 0 0 
0 0 0 0 0 0 0 0 0 
0 0 0 0 0 0 0 0 0 
0 0 0 0 0 0 0 0 0 
0 0 0 0 0 0 0 0 0 
0 0 0 0 0 0 0 0 0 
0 0 0 0 0 0 0 0 0 
0 0 0 0 0 0 0 0 0 
0 0 0 0 0 0 0 0 0 
0 0 0 0 0 0 0 0 0 
0 0 0 0 0 0 0 0 0 
0 0 0 0 0 0 0 0 0 
0 0 0 0 0 0 0 0 0 
0 0 0 0 0 0 0 0 0 
0 0 0 0 0 0 0 0 0 
0 0 0 0 0 0 0 0 0 
0 0 0 0 0 0 0 0 0 
0 0 0 0 0 0 0 0 0 
0 0 0 0 0 0 0 0 0 
0 0 0 0 0 0 0 0 0 
0 0 0 0 0 0 0 0 0 
0 0 0 0 0 0 0 0 0 
0 0 0 0 0 0 0 0 0 
0 0 0 0 0 0 0 0 0 
0 0 0 0 0 0 0 0 0 
0 0 0 0 0 0 0 0 0 
0 0 0 0 0 
NORMALS Normals float
-0.121648 -0.235535 -0.964222 0.0170043 -0.317427 -0.94813 0.168072 -0.31992 -0.932418 
-0.152907 -0.323075 -0.933939 -0.102765 -0.214186 -0.971372 -0.0536565 -0.131708 -0.989835 
-0.0352367 -0.108867 -0.993432 0.0742157 -0.165086 -0.983483 0.191361 -0.238777 -0.952033 
-0.25173 -0.236548 -0.938444 -0.0906169 -0.275397 -0.95705 0.00690177 -0.177525 -0.984092 
-0.00484917 -0.106356 -0.994316 -0.0141021 -0.0251714 -0.999584 0.0245129 -0.0181263 -0.999535 
0.142127 -0.0766392 -0.986877 0.267983 -0.133251 -0.954164 -0.303075 -0.139899 -0.942642 
-0.0819868 -0.134224 -0.987554 0.0731505 -0.0919753 -0.993071 0.0999033 -0.168645 -0.980601 
0.0510237 0.0270572 -0.998331 0.0201124 0.0242407 -0.999504 0.0837527 0.0499459 -0.995234 
0.129341 -0.0589179 -0.989848 0.187926 -0.176651 -0.966167 -0.30775 -0.147685 -0.939936 
-0.24811 -0.0536333 -0.967246 -0.0463941 0.0307568 -0.99845 -0.0229223 -0.064945 -0.997626 
0.122748 0.0124783 -0.992359 0.175574 -0.0657293 -0.98227 0.0468988 -0.0418315 -0.998023 
0.0644104 0.0977052 -0.993129 0.0611543 -0.00286451 -0.998124 0.173297 -0.0685412 -0.982482 
-0.290251 -0.199324 -0.935962 -0.175429 -0.137401 -0.974857 -0.116569 0.00268262 -0.993179 
-0.100649 0.141834 -0.98476 0.0603707 -0.108496 -0.992262 0.114463 0.00319718 -0.993422 
-0.0928693 -0.321291 -0.942416 0.293332 -0.135763 -0.946322 0.0721477 -0.011226 -0.997331 
-0.0364606 -0.0478308 -0.99819 0.0552238 -0.104389 -0.993002 0.201576 -0.252875 -0.946267 
-0.28721 -0.069257 -0.955361 -0.109453 -0.0747389 -0.991178 0.0281045 -0.0034252 -0.999599 
-0.118888 0.0225845 -0.992651 -0.211622 0.0475745 -0.976193 -0.0552061 -0.0634081 -0.99646 
0.0459181 0.103705 -0.993548 0.372676 0.107068 -0.921764 0.0632934 -0.147418 -0.987047 
-0.0309177 -0.121913 -0.992059 -0.0206008 -0.120761 -0.992468 0.163586 -0.150122 -0.97504 
0.505951 -0.0867134 -0.858193 -0.282066 -0.00152874 -0.959394 -0.10456 -0.0289051 -0.994098 
-0.0170842 -0.0404192 -0.999037 -0.0649554 -0.0921897 -0.993621 -0.0369454 0.0948041 -0.99481 
0.103236 0.116456 -0.987816 0.0977968 0.172422 -0.980156 0.00503467 -0.00954851 -0.999942 
-0.0377519 -0.152834 -0.98753 -0.0182765 -0.202131 -0.979188 0.0253718 -0.0543903 -0.998197 
0.26607 0.0602558 -0.962069 0.560434 0.166465 -0.811297 -0.288661 0.161483 -0.943715 
-0.165473 0.072906 -0.983516 -0.0317517 0.0198489 -0.999299 -0.0109777 0.0157435 -0.999816 
0.0307686 0.0631698 -0.997528 0.023901 -0.00192807 -0.999712 0.00312935 -0.0915034 -0.9958 
-0.0225515 -0.0946641 -0.995254 -0.113924 -0.143933 -0.983008 0.0617128 -0.0240152 -0.997805 
0.237292 -0.0312357 -0.970936 0.379099 0.238465 -0.894102 -0.227895 0.288761 -0.929882 
-0.0715665 0.197807 -0.977625 -0.0235251 0.164452 -0.986104 -0.0511856 0.122553 -0.991141 
-0.0544827 0.0142088 -0.998414 0.00184298 -0.0134002 -0.999909 -0.0474931 0.0139027 -0.998775 
0.0379115 0.0883703 -0.995366 0.103363 0.2257 -0.968698 0.266396 0.21037 -0.940626 
-0.179385 0.362103 -0.914714 -0.0690286 0.341378 -0.937388 -0.114066 0.271286 -0.955716 
-0.113468 0.214596 -0.970089 0.00307324 0.246651 -0.9691 0.0653534 0.240508 -0.968444 
0.0738414 0.425596 -0.901896 0.258612 0.545779 -0.797023 0.392656 0.731199 -0.557825 
-0.127012 0.532534 -0.836825 0.0283398 0.531582 -0.846533 -0.297122 -0.639743 -0.708835 
-0.190719 -0.587404 -0.7865 -0.10256 -0.325726 -0.939885 -0.0555922 -0.587516 -0.807301 
0.0304706 -0.402138 -0.915072 0.0685502 -0.637115 -0.767714 0.167977 -0.356574 -0.919042 
0.176787 -0.708315 -0.683401 0.378652 -0.789808 -0.482521 -0.421597 -0.581252 -0.69599 
-0.29533 -0.505246 -0.810868 -0.155485 -0.32768 -0.931907 -0.211316 -0.388953 -0.896694 
-0.170816 -0.277638 -0.945378 -0.175336 -0.287097 -0.941718 -0.210127 -0.336508 -0.917938 
0.183554 -0.336225 -0.923721 0.205387 -0.309757 -0.928368 0.248326 -0.439317 -0.863327 
0.473815 -0.606044 -0.638913 -0.564018 -0.391589 -0.727009 -0.363005 -0.359592 -0.859605 
-0.168428 -0.321433 -0.931833 -0.251318 -0.272174 -0.928849 -0.255402 -0.321571 -0.911791 
0.227951 -0.240051 -0.943618 0.26718 -0.174877 -0.947646 0.284499 -0.257878 -0.923341 
0.621721 -0.474187 -0.623386 -0.535077 -0.25397 -0.805725 -0.297154 -0.231263 -0.9264 
-0.355781 -0.23222 -0.905259 0.289507 -0.151742 -0.945072 0.202234 -0.182281 -0.962224 
0.394119 -0.254136 -0.883224 0.729227 -0.46269 -0.504128 -0.699951 -0.27008 -0.661154 
-0.432158 -0.199504 -0.879453 -0.357919 -0.139279 -0.923307 -0.354886 -0.140175 -0.924341 
-0.36034 -0.13962 -0.922313 0.228756 -0.183916 -0.955953 0.553965 -0.26689 -0.788602 
-0.647447 -0.258046 -0.717094 -0.301111 -0.195483 -0.933338 -0.29366 -0.224181 -0.929251 
-0.323941 -0.258884 -0.909968 0.223866 -0.0852785 -0.970882 0.224081 -0.215594 -0.950425 
0.365528 -0.141188 -0.92003 0.833832 -0.395485 -0.385118 -0.351593 -0.182798 -0.918132 
-0.591956 -0.187979 -0.783742 0.27656 -0.261945 -0.924608 0.511883 -0.168978 -0.842272 
0.603897 -0.300982 -0.738051 -0.389865 -0.0659944 -0.918504 -0.547007 -0.0795395 -0.833341 
0.581823 -0.0861757 -0.808737 -0.415452 -0.035451 -0.908924 -0.581131 -0.0227907 -0.813491 
0.565264 0.167263 -0.807775 0.564692 0.172214 -0.807134 -0.483041 0.182 -0.856474 
-0.622328 0.220975 -0.750918 -0.409319 0.298763 -0.86209 0.51797 0.277064 -0.809285 
0.502938 0.332062 -0.797991 0.87443 0.477907 -0.0835288 -0.412924 0.345971 -0.842495 
-0.513015 0.392493 -0.76339 -0.287813 0.456016 -0.842148 0.554784 0.379578 -0.740362 
0.686351 0.573622 -0.44708 -0.635764 0.710445 -0.301782 -0.241651 0.43693 -0.866428 
-0.367408 0.600515 -0.710207 -0.19391 0.45484 -0.869206 -0.0766504 0.449348 -0.890062 
-0.150328 0.452269 -0.879121 0.213551 0.68741 -0.694164 0.208208 0.744486 -0.634343 
0.329298 0.7114 -0.620865 0.398705 0.731461 -0.553172 0.393499 0.735139 -0.552023 
-0.271864 0.790996 -0.548102 -0.147426 0.696415 -0.702333 -0.141476 0.536815 -0.831754 
-0.179815 0.6027 -0.777444 -0.131841 0.547847 -0.826125 0.180187 0.673342 -0.717038 
0.0408784 0.582934 -0.81149 0.248435 0.749058 -0.61416 -0.310449 -0.71446 -0.627031 
-0.192883 -0.724809 -0.661399 -0.0556875 -0.808542 -0.585797 0.0332348 -0.999213 0.0216738 
0.108774 -0.834459 -0.540228 0.249064 -0.843169 -0.47648 0.380103 -0.814725 -0.437886 
-0.42251 -0.584131 -0.69302 -0.344662 -0.683377 -0.643587 -0.379717 -0.612554 -0.693248 
-0.461415 -0.844883 -0.270682 0.4005 -0.804572 -0.438479 0.529795 -0.718246 -0.451044 
-0.424015 -0.583043 -0.693016 -0.570596 -0.406805 -0.713394 0.59294 -0.662847 -0.457227 
0.68246 -0.582178 -0.441947 -0.578766 -0.394732 -0.713594 0.713362 -0.557048 -0.425219 
0.778042 -0.504124 -0.374846 -0.618342 -0.307918 -0.723077 -0.705506 -0.27337 -0.653858 
-0.875385 -0.388009 -0.288359 0.80494 -0.472496 -0.358913 -0.710835 -0.269883 -0.64952 
0.823595 -0.471655 -0.315011 0.861267 -0.42204 -0.283022 -0.754797 -0.269506 -0.598037 
0.887782 -0.374747 -0.267222 -0.8283 -0.264033 -0.494171 0.959046 -0.237396 -0.154513 
-0.916032 -0.0641611 -0.39594 0.999671 0.0064014 -0.0248512 -0.940903 0.156547 -0.300323 
0.968578 0.241244 -0.0604833 0.650694 0.410376 0.638897 -0.887204 0.395838 -0.237026 
-0.77896 0.594141 -0.200545 0.866222 0.47807 0.145285 0.847351 0.514275 0.13235 
0.84977 0.462848 0.252316 -0.770985 0.603618 -0.203047 0.72531 0.683733 0.0802176 
0.648197 0.750342 0.129722 0.591218 0.67394 0.443018 -0.665423 0.717435 -0.206155 
-0.646301 0.733134 -0.211682 -0.697402 0.684504 0.212333 -0.51831 0.80647 -0.284537 
0.427309 0.887811 0.170879 0.429663 0.886557 0.171484 0.464815 0.665674 0.583802 
0.477406 0.812128 0.335458 0.472761 0.813222 0.339363 0.469631 0.81074 0.349498 
-0.454092 0.845311 -0.281513 -0.333125 0.890736 -0.309221 -0.241486 0.904246 -0.352171 
-0.120671 0.948251 -0.293698 0.0332257 0.992132 -0.120704 0.216717 0.975999 0.0214471 
0.426187 0.888738 0.16885 0.351719 0.930382 0.103357 0.408637 0.760611 0.504466 
0.0335566 -0.999123 0.0250357 -0.445306 -0.889286 -0.104275 -0.372045 -0.928022 -0.0189073 
0.0215806 -0.999498 0.023191 -0.191872 -0.981373 -0.00963049 0.0361805 -0.999007 0.026004 
0.0337835 -0.999037 0.0279833 0.191329 -0.977434 0.0895369 0.315446 -0.938907 0.137653 
0.436798 -0.889637 0.133239 -0.46855 -0.876292 -0.112127 -0.548267 -0.832259 -0.0821444 
-0.38065 -0.854097 0.354436 0.229055 -0.676348 0.700063 0.490348 -0.861203 0.133743 
0.399023 -0.811548 0.426815 0.562018 -0.813344 0.150359 -0.675604 -0.72572 -0.129958 
-0.703748 -0.697885 -0.133025 0.696802 -0.698124 0.164591 0.494698 -0.584102 0.643505 
0.741219 -0.653508 0.153367 -0.846858 -0.524305 -0.0890869 -0.897733 -0.42411 -0.119187 
0.833829 -0.520244 0.184598 0.631054 -0.331878 0.701161 0.843168 -0.425227 0.329012 
-0.920585 -0.372799 -0.116378 -0.905235 -0.283598 0.316419 0.484702 -0.0756092 0.871405 
0.84401 -0.397918 0.359593 0.805179 -0.379351 0.455829 -0.96216 -0.268148 0.0484171 
-0.78679 -0.0821727 0.611726 0.834033 -0.35078 0.425843 0.65078 -0.240321 0.72023 
0.808424 -0.267431 0.524339 -0.966492 -0.228252 0.117449 -0.637236 -0.0769219 0.76682 
0.457557 -0.0360705 0.888448 0.809303 -0.264855 0.52429 0.806505 -0.263907 0.529059 
-0.971644 -0.13491 0.194182 -0.52691 0.0026881 0.849917 0.161503 0.144908 0.976175 
0.404971 0.11353 0.907254 0.765947 -0.052287 0.640774 0.702481 -0.0349797 0.710843 
-0.95369 0.0635209 0.294008 -0.513861 -0.011715 0.857793 0.116418 0.180094 0.976736 
0.153035 0.194234 0.968944 0.371057 0.213446 0.903747 0.65567 0.102806 0.748016 
0.581422 0.241015 0.777084 0.603558 0.114804 0.789011 -0.887771 0.248689 0.387318 
0.310861 0.126178 0.942043 0.160793 0.171285 0.972012 0.196502 0.192383 0.961445 
0.468563 0.31798 0.824219 0.325261 0.200196 0.92419 -0.813341 0.393382 0.428634 
-0.745247 0.517119 0.420944 -0.637854 0.389734 0.664266 -0.375153 0.202564 0.90456 
0.288092 0.19912 0.936672 0.177516 0.234151 0.955856 0.224842 0.267687 0.936904 
0.469599 0.321134 0.822405 0.405051 0.381005 0.831125 0.390174 0.323843 0.861911 
-0.718872 0.568405 0.400175 -0.674658 0.61999 0.400562 -0.528561 0.378005 0.760089 
0.314202 0.329475 0.89035 0.256989 0.30171 0.918111 0.304608 0.469873 0.828513 
0.198831 0.372496 0.906484 0.316943 0.469135 0.824293 0.297495 0.492297 0.81801 
0.292797 0.449967 0.843682 -0.670454 0.624813 0.400124 -0.555851 0.76058 0.335481 
-0.492105 0.519466 0.698561 0.265669 0.381711 0.885278 0.365336 0.559375 0.744063 
0.318105 0.454126 0.832213 0.334723 0.5282 0.780362 0.271445 0.566172 0.77831 
0.256008 0.50236 0.82589 -0.468761 0.83405 0.290902 -0.343216 0.903262 0.257528 
-0.359523 0.760713 0.540425 -0.184449 0.938509 0.291854 -0.0230525 0.642014 0.766346 
0.00876548 0.917338 0.398012 0.169777 0.641412 0.748176 0.200778 0.799545 0.566053 
0.198646 0.637915 0.744046 0.3486 0.648723 0.676488 0.296751 0.742106 0.601014 
0.305087 0.628545 0.715439 -0.220722 -0.686136 0.69318 -0.139159 -0.670948 0.72833 
0.0606267 -0.686225 0.724859 0.200798 -0.629333 0.750746 -0.445256 -0.604361 0.660678 
-0.265478 -0.722474 0.638399 -0.304171 -0.726466 0.61622 -0.192505 -0.63941 0.744376 
-0.0827656 -0.509629 0.856404 0.0415525 -0.486571 0.872653 0.208424 -0.611877 0.762998 
0.171288 -0.545251 0.820586 0.208447 -0.603107 0.769942 0.315023 -0.574902 0.755148 
-0.464446 -0.595455 0.655533 -0.582512 -0.478173 0.65729 -0.417293 -0.571044 0.706948 
-0.1807 -0.396155 0.900227 -0.174708 -0.25699 0.950491 -0.0445053 -0.267569 0.96251 
0.0285674 -0.236676 0.971169 0.0866354 -0.305115 0.948367 0.193849 -0.336936 0.921356 
0.402607 -0.487151 0.774979 0.26835 -0.38899 0.881292 0.413893 -0.445385 0.79393 
-0.611937 -0.429322 0.664241 -0.548651 -0.38576 0.741736 -0.282832 -0.298159 0.911651 
-0.093777 -0.192979 0.976711 -0.0141975 -0.0918847 0.995668 -0.0477768 -0.00239468 0.998855 
-0.010644 -0.0705977 0.997448 0.0471026 -0.0512411 0.997575 0.114589 -0.120757 0.986046 
0.209115 -0.159344 0.964821 0.56157 -0.296963 0.772303 0.307592 -0.208469 0.928401 
-0.719225 -0.161578 0.675728 -0.430943 -0.0880499 0.898073 -0.21232 -0.0566702 0.975556 
0.0202573 0.0296495 0.999355 0.0128171 -0.033736 0.999349 -0.0266643 0.0379949 0.998922 
-0.0199894 0.0313109 0.99931 0.03528 0.0764889 0.996446 0.0940192 0.0567001 0.993954 
0.184237 0.0477898 0.981719 0.477815 -0.0725131 0.875463 0.274952 -0.0149307 0.961342 
0.469582 -0.0711695 0.880015 -0.572896 0.013161 0.819522 -0.382511 0.00206397 0.923949 
-0.161162 0.102957 0.981543 -0.0721905 0.0410588 0.996545 -0.00160927 -0.0737182 0.997278 
0.0177117 -0.0921673 0.995586 0.0289764 0.0420721 0.998694 0.075076 0.125453 0.989255 
0.0871562 0.124397 0.988397 0.131377 0.11518 0.984618 0.200995 0.0617912 0.977641 
0.394868 -0.0893717 0.914381 0.322934 -0.0225044 0.946154 -0.512553 -0.0412241 0.857665 
-0.30892 0.0255901 0.950744 -0.161063 0.0645619 0.98483 -0.163572 0.0328043 0.985986 
-0.126472 -0.113586 0.985446 0.0915336 -0.0722353 0.993179 0.194636 -0.0431112 0.979928 
0.119969 0.0236806 0.992495 0.0905193 -0.041244 0.99504 0.126835 0.104274 0.986428 
0.169037 0.110429 0.979404 0.267765 0.0339288 0.962887 0.167828 0.111222 0.979522 
0.189442 0.064548 0.979768 -0.454218 0.0135518 0.890787 -0.248871 0.0495763 0.967267 
-0.171942 0.0435057 0.984146 -0.243415 0.0326205 0.969374 0.0789387 0.0831788 0.993403 
0.111564 -0.0476054 0.992616 0.0811806 0.114144 0.990142 0.158585 0.00145766 0.987344 
0.294046 0.16553 0.941348 0.15791 0.152417 0.97562 0.137831 0.176255 0.974647 
0.16676 0.175841 0.970191 -0.408551 -0.0181497 0.912555 -0.555751 0.128403 0.821373 
-0.27964 0.03158 0.959586 -0.18386 0.0374897 0.982237 -0.146374 0.0517111 0.987877 
-0.0767922 0.179778 0.980705 -0.0104382 0.14696 0.989087 0.248593 0.180167 0.951704 
0.113414 0.0193762 0.993359 0.133208 0.132837 0.982146 0.294901 0.205664 0.933132 
0.305153 0.202527 0.930518 0.304723 0.207414 0.929582 -0.556995 0.130348 0.820223 
-0.55647 0.131147 0.820452 -0.556341 0.130274 0.820679 -0.365474 0.197193 0.909694 
-0.242598 0.124129 0.962153 -0.16644 0.0724103 0.983389 -0.104834 0.0616023 0.99258 
-0.00769587 0.0859801 0.996267 0.0548338 0.104344 0.993029 0.00715475 0.1243 0.992219 
0.0474407 -0.0655341 0.996722 0.325623 0.130674 0.936426 0.354422 0.133786 0.925466 
-0.367203 0.197679 0.908892 -0.243605 0.144293 0.959081 -0.13143 0.0629599 0.989324 
-0.0326604 0.0554035 0.99793 0.0627143 0.0509746 0.996729 0.054923 0.0999401 0.993476 
0.12873 0.220054 0.966957 0.345158 0.254574 0.903359 0.344608 0.309145 0.886383 
0.36554 0.294643 0.88293 -0.412507 0.320635 0.852661 -0.338835 0.359311 0.869532 
-0.276342 0.274916 0.9209 -0.19778 0.190206 0.961616 -0.0197058 0.158357 0.987185 
0.0987431 0.164403 0.981438 0.174803 0.212235 0.961457 0.280094 0.327639 0.90233 
0.24647 0.348569 0.904296 0.243345 0.330409 0.911928 -0.322673 0.384145 0.865052 
-0.286752 0.451678 0.844843 -0.233049 0.334044 0.913292 -0.0203073 0.614502 0.788654 
-0.0462839 0.281064 0.958572 0.158883 0.455082 0.87616 0.107904 0.328885 0.938185 
0.222789 0.36556 0.903732 0.21722 0.382985 0.897852 0.217619 0.361104 0.906778 
-0.11297 0.00766074 0.993569 -0.120466 0.0616479 0.990801 -0.0586437 0.0701641 0.99581 
-0.101643 0.0825755 0.991388 -0.105227 0.0648751 0.99233 
