# vtk DataFile Version 4.2
vtk output
ASCII
DATASET POLYDATA
POINTS 510 float
-18.9554 -48.0098 -12.1426 -10.7978 -48.0098 -14.1233 -2.64023 -48.0098 -14.7039 
5.51738 -48.0098 -13.7502 -27.1131 -39.8522 -14.1154 -18.9554 -39.8522 -16.0008 
-10.7978 -39.8522 -17.9791 -2.64023 -39.8522 -17.7233 5.51738 -39.8522 -17.1476 
13.675 -39.8522 -15.4482 21.8326 -39.8522 -12.4055 -35.2707 -31.6946 -14.5167 
-27.1131 -31.6946 -16.651 -18.9554 -31.6946 -17.2975 -10.7978 -31.6946 -18.6678 
-2.64023 -31.6946 -18.5859 5.51738 -31.6946 -18.2251 13.675 -31.6946 -17.1727 
21.8326 -31.6946 -15.5604 29.9902 -31.6946 -13.2215 -43.4283 -23.537 -14.2437 
-35.2707 -23.537 -16.6977 -27.1131 -23.537 -17.0342 -18.9554 -23.537 -17.2185 
-10.7978 -23.537 -17.962 -2.64023 -23.537 -18.4489 5.51738 -23.537 -17.9478 
13.675 -23.537 -17.0289 21.8326 -23.537 -16.6822 29.9902 -23.537 -16.1093 
38.1478 -23.537 -14.4423 -51.5859 -15.3794 -12.6018 -43.4283 -15.3794 -16.3864 
-35.2707 -15.3794 -17.5411 -27.1131 -15.3794 -17.3601 -18.9554 -15.3794 -16.9224 
-10.7978 -15.3794 -17.1567 -2.64023 -15.3794 -18.2224 5.51738 -15.3794 -17.0619 
13.675 -15.3794 -16.6494 21.8326 -15.3794 -17.2905 29.9902 -15.3794 -17.943 
38.1478 -15.3794 -17.4314 46.3054 -15.3794 -14.4547 -51.5859 -7.22178 -14.6984 
-43.4283 -7.22178 -18.3873 -35.2707 -7.22178 -18.463 -27.1131 -7.22178 -17.8069 
-18.9554 -7.22178 -16.6106 -10.7978 -7.22178 -17.9083 -2.64023 -7.22178 -17.3201 
5.51738 -7.22178 -18.146 13.675 -7.22178 -16.9858 21.8326 -7.22178 -17.105 
29.9902 -7.22178 -18.0099 38.1478 -7.22178 -18.0693 46.3054 -7.22178 -16.5094 
-51.5859 0.935827 -15.4745 -43.4283 0.935827 -19.1482 -35.2707 0.935827 -19.301 
-27.1131 0.935827 -18.339 -18.9554 0.935827 -16.2924 -10.7978 0.935827 -18.5945 
-2.64023 0.935827 -15.8595 5.51738 0.935827 -18.8267 13.675 0.935827 -16.2028 
21.8326 0.935827 -16.2947 29.9902 0.935827 -17.928 38.1478 0.935827 -18.4176 
46.3054 0.935827 -17.314 54.463 0.935827 -12.9989 -51.5859 9.09343 -14.5528 
-43.4283 9.09343 -18.2821 -35.2707 9.09343 -18.8593 -27.1131 9.09343 -18.3284 
-18.9554 9.09343 -17.3784 -10.7978 9.09343 -18.3681 -2.64023 9.09343 -18.0432 
5.51738 9.09343 -17.8864 13.675 9.09343 -16.0689 21.8326 9.09343 -16.887 
29.9902 9.09343 -18.2131 38.1478 9.09343 -18.5641 46.3054 9.09343 -17.3893 
54.463 9.09343 -13.2299 -43.4283 17.251 -16.2734 -35.2707 17.251 -17.7591 
-27.1131 17.251 -17.8933 -18.9554 17.251 -17.6629 -10.7978 17.251 -17.2107 
-2.64023 17.251 -16.6665 5.51738 17.251 -16.6317 13.675 17.251 -17.3386 
21.8326 17.251 -18.168 29.9902 17.251 -19.3071 38.1478 17.251 -18.316 
46.3054 17.251 -16.7036 54.463 17.251 -12.4606 -43.4283 25.4086 -13.0373 
-35.2707 25.4086 -15.4205 -27.1131 25.4086 -16.7656 -18.9554 25.4086 -17.7727 
-10.7978 25.4086 -17.7693 -2.64023 25.4086 -17.7277 5.51738 25.4086 -17.3965 
13.675 25.4086 -17.309 21.8326 25.4086 -17.9876 29.9902 25.4086 -17.6835 
38.1478 25.4086 -16.6217 46.3054 25.4086 -13.9099 -27.1131 33.5663 -14.6195 
-18.9554 33.5663 -16.7019 -10.7978 33.5663 -17.7231 -2.64023 33.5663 -17.8996 
5.51738 33.5663 -17.0538 13.675 33.5663 -16.2519 21.8326 33.5663 -15.4405 
29.9902 33.5663 -14.7107 -18.9554 41.7239 -14.279 -10.7978 41.7239 -15.8869 
-2.64023 41.7239 -16.256 5.51738 41.7239 -14.9777 13.675 41.7239 -13.4007 
-18.9554 -48.1781 -11.9871 -10.7978 -51.2591 -11.9871 -2.64023 -51.8741 -11.9871 
5.51738 -50.3372 -11.9871 -19.56 -48.0098 -11.9871 -27.1131 -44.8338 -11.9871 
-27.1131 -48.0098 -7.49986 10.8917 -48.0098 -11.9871 13.675 -46.3311 -11.9871 
13.675 -48.0098 -10.7101 21.8326 -40.7497 -11.9871 21.8326 -48.0098 -6.33071 
-31.9606 -39.8522 -11.9871 -35.2707 -36.9208 -11.9871 -35.2707 -39.8522 -9.1842 
22.8613 -39.8522 -11.9871 29.9902 -34.2121 -11.9871 29.9902 -39.8522 -8.41471 
-40.537 -31.6946 -11.9871 -43.4283 -28.4955 -11.9871 -43.4283 -31.6946 -9.52726 
33.2136 -31.6946 -11.9871 38.1478 -28.1871 -11.9871 38.1478 -31.6946 -9.40112 
-48.6399 -23.537 -11.9871 -51.5859 -17.5376 -11.9871 -51.5859 -23.537 -8.94171 
43.5443 -23.537 -11.9871 46.3054 -20.6706 -11.9871 46.3054 -23.537 -10.1065 
-52.2913 -15.3794 -11.9871 50.2622 -15.3794 -11.9871 54.463 -15.3794 -6.46715 
-55.3558 -7.22178 -11.9871 54.0275 -7.22178 -11.9871 54.463 -5.29073 -11.9871 
54.463 -7.22178 -11.5093 -56.5178 0.935827 -11.9871 -59.7435 0.935827 -4.7927 
55.4126 0.935827 -11.9871 -54.938 9.09343 -11.9871 -51.5859 16.6765 -11.9871 
55.6399 9.09343 -11.9871 -51.2378 17.251 -11.9871 -51.5859 17.251 -11.6846 
54.8959 17.251 -11.9871 54.463 18.0475 -11.9871 -44.9789 25.4086 -11.9871 
-51.5859 25.4086 -4.3808 -43.4283 26.9386 -11.9871 -35.2707 33.2789 -11.9871 
38.1478 32.7962 -11.9871 48.4277 25.4086 -11.9871 46.3054 27.7316 -11.9871 
-43.4283 33.5663 -5.26689 -34.9017 33.5663 -11.9871 -35.2707 33.5663 -11.824 
-27.1131 38.7554 -11.9871 21.8326 39.8884 -11.9871 36.969 33.5663 -11.9871 
29.9902 37.4819 -11.9871 38.1478 33.5663 -11.2371 -23.9936 41.7239 -11.9871 
-27.1131 41.7239 -9.8582 -18.9554 46.4567 -11.9871 -10.7978 48.8921 -11.9871 
-2.64023 49.6219 -11.9871 5.51738 47.0133 -11.9871 18.5724 41.7239 -11.9871 
13.675 44.3252 -11.9871 21.8326 41.7239 -10.6987 29.9902 41.7239 -6.78941 
-18.9554 49.8815 -8.6014 -10.7978 49.8815 -11.2458 -2.64023 49.8815 -11.8041 
5.51738 49.8815 -9.83322 13.675 49.8815 -7.13048 -27.1131 -49.2322 -3.82945 
-18.9554 -53.1863 -3.82945 -10.7978 -55.4713 -3.82945 -2.64023 -56.1363 -3.82945 
5.51738 -55.2867 -3.82945 13.675 -53.1933 -3.82945 21.8326 -49.4744 -3.82945 
-29.0144 -48.0098 -3.82945 -35.2707 -43.3754 -3.82945 -27.1131 -48.0098 -0.269178 
24.1025 -48.0098 -3.82945 29.9902 -43.845 -3.82945 -39.4501 -39.8522 -3.82945 
-43.4283 -36.2215 -3.82945 35.0906 -39.8522 -3.82945 38.1478 -37.0522 -3.82945 
-47.7549 -31.6946 -3.82945 -51.5859 -26.9438 -3.82945 43.9606 -31.6946 -3.82945 
46.3054 -29.4319 -3.82945 -53.9576 -23.537 -3.82945 51.0503 -23.537 -3.82945 
54.463 -17.6685 -3.82945 -57.676 -15.3794 -3.82945 55.6538 -15.3794 -3.82945 
-59.6016 -7.22178 -3.82945 -59.7435 -4.5299 -3.82945 58.4629 -7.22178 -3.82945 
-60.0316 0.935827 -3.82945 -59.7435 3.83923 -3.82945 -59.7435 0.935827 -1.84929 
59.4185 0.935827 -3.82945 -59.222 9.09343 -3.82945 59.2568 9.09343 -3.82945 
-56.425 17.251 -3.82945 57.3782 17.251 -3.82945 54.463 22.7776 -3.82945 
-51.8874 25.4086 -3.82945 -51.5859 25.7985 -3.82945 -51.5859 25.4086 2.81448 
52.7842 25.4086 -3.82945 46.3054 32.6031 -3.82945 -44.4958 33.5663 -3.82945 
-43.4283 34.5405 -3.82945 -35.2707 41.4344 -3.82945 45.1668 33.5663 -3.82945 
38.1478 38.6777 -3.82945 -34.862 41.7239 -3.82945 -27.1131 47.1329 -3.82945 
21.8326 48.0423 -3.82945 33.1138 41.7239 -3.82945 29.9902 43.5565 -3.82945 
-23.3094 49.8815 -3.82945 -18.9554 52.4683 -3.82945 -10.7978 55.2508 -3.82945 
-2.64023 56.0366 -3.82945 5.51738 54.5978 -3.82945 18.4409 49.8815 -3.82945 
13.675 52.1993 -3.82945 -18.9554 -50.5479 4.32816 -10.7978 -52.7851 4.32816 
-2.64023 -54.5194 4.32816 5.51738 -54.604 4.32816 13.675 -53.1548 4.32816 
21.8326 -50.0703 4.32816 -35.2707 -40.253 4.32816 -23.8506 -48.0098 4.32816 
-27.1131 -45.4801 4.32816 -18.9554 -48.0098 7.01215 -10.7978 -48.0098 8.91621 
-2.64023 -48.0098 11.2803 13.675 -48.0098 12.2452 25.6238 -48.0098 4.32816 
21.8326 -48.0098 8.40343 29.9902 -45.516 4.32816 -35.7832 -39.8522 4.32816 
-43.4283 -33.5377 4.32816 -35.2707 -39.8522 4.72192 -27.1131 -39.8522 8.1903 
-18.9554 -39.8522 11.2912 37.6722 -39.8522 4.32816 38.1478 -39.4616 4.32816 
-45.3439 -31.6946 4.32816 -51.5859 -24.1285 4.32816 -43.4283 -31.6946 6.09002 
-35.2707 -31.6946 9.87154 -27.1131 -31.6946 12.4512 46.0354 -31.6946 4.32816 
46.3054 -31.3545 4.32816 -51.993 -23.537 4.32816 -51.5859 -23.537 4.83694 
-43.4283 -23.537 10.662 51.7914 -23.537 4.32816 54.463 -18.1771 4.32816 
-55.5606 -15.3794 4.32816 -51.5859 -15.3794 9.46072 55.7446 -15.3794 4.32816 
54.463 -15.3794 7.33033 -57.6266 -7.22178 4.32816 -51.5859 -7.22178 10.3383 
58.1686 -7.22178 4.32816 54.463 -7.22178 11.4508 -58.5737 0.935827 4.32816 
-51.5859 0.935827 11.0881 58.8771 0.935827 4.32816 54.463 0.935827 12.1733 
-57.2725 9.09343 4.32816 -51.5859 9.09343 10.6666 58.5143 9.09343 4.32816 
54.463 9.09343 11.1367 -55.4886 17.251 4.32816 -51.5859 25.2886 4.32816 
-51.5859 17.251 10.1878 56.4594 17.251 4.32816 54.463 20.9761 4.32816 
54.463 17.251 8.1652 -51.514 25.4086 4.32816 51.6099 25.4086 4.32816 
46.3054 31.541 4.32816 46.3054 25.4086 11.2485 -44.8437 33.5663 4.32816 
-43.4283 34.9087 4.32816 -43.4283 33.5663 6.66648 -35.2707 41.6066 4.32816 
44.1589 33.5663 4.32816 38.1478 38.4775 4.32816 38.1478 33.5663 10.3872 
-35.1028 41.7239 4.32816 -27.1131 47.162 4.32816 -27.1131 41.7239 10.5277 
21.8326 49.3071 4.32816 33.5698 41.7239 4.32816 29.9902 44.1436 4.32816 
29.9902 41.7239 7.87236 -23.3164 49.8815 4.32816 -18.9554 52.49 4.32816 
-18.9554 49.8815 8.6772 -10.7978 55.0156 4.32816 -10.7978 49.8815 10.5841 
-2.64023 56.1727 4.32816 -2.64023 49.8815 12.0728 5.51738 55.3729 4.32816 
5.51738 49.8815 11.6206 20.7114 49.8815 4.32816 13.675 53.0654 4.32816 
13.675 49.8815 8.92331 5.51738 -48.109 12.4858 -10.7978 -41.8453 12.4858 
4.97262 -48.0098 12.4858 -2.64023 -46.0108 12.4858 8.06176 -48.0098 12.4858 
5.51738 -48.0098 12.5606 13.675 -47.7397 12.4858 21.8326 -45.0534 12.4858 
29.9902 -41.7195 12.4858 -14.4198 -39.8522 12.4858 -18.9554 -36.189 12.4858 
-10.7978 -39.8522 13.4584 -2.64023 -39.8522 15.6258 5.51738 -39.8522 16.5632 
13.675 -39.8522 17.4133 21.8326 -39.8522 16.467 32.6146 -39.8522 12.4858 
29.9902 -39.8522 14.0296 38.1478 -35.6502 12.4858 -35.2707 -26.1453 12.4858 
-26.938 -31.6946 12.4858 -27.1131 -31.5943 12.4858 -18.9554 -31.6946 13.948 
-10.7978 -31.6946 15.7541 -2.64023 -31.6946 17.2991 5.51738 -31.6946 18.127 
13.675 -31.6946 19.384 21.8326 -31.6946 18.9802 29.9902 -31.6946 18.7419 
42.4803 -31.6946 12.4858 38.1478 -31.6946 15.3795 46.3054 -25.8391 12.4858 
-38.6309 -23.537 12.4858 -43.4283 -19.2853 12.4858 -35.2707 -23.537 13.6061 
-27.1131 -23.537 14.8457 -18.9554 -23.537 15.5374 -10.7978 -23.537 16.767 
[...]
POINT_DATA 510
SCALARS ImageScalars float
LOOKUP_TABLE default
0 0 0 0 0 0 0 0 0 
0 0 0 0 0 0 0 0 0 
0 0 0 0 0 0 0 0 0 
0 0 0 0 0 0 0 0 0 
0 0 0 0 0 0 0 0 0 
0 0 0 0 0 0 0 0 0 
0 0 0 0 0 0 0 0 0 
0 0 0 0 0 0 0 0 0 
0 0 0 0 0 0 0 0 0 
0 0 0 0 0 0 0 0 0 
0 0 0 0 0 0 0 0 0 
0 0 0 0 0 0 0 0 0 
0 0 0 0 0 0 0 0 0 
0 0 0 0 0 0 0 0 0 
0 0 0 0 0 0 0 0 0 
0 0 0 0 0 0 0 0 0 
0 0 0 0 0 0 0 0 0 
0 0 0 0 0 0 0 0 0 
0 0 0 0 0 0 0 0 0 
0 0 0 0 0 0 0 0 0 
0 0 0 0 0 0 0 0 0 
0 0 0 0 0 0 0 0 0 
0 0 0 0 0 0 0 0 0 
0 0 0 0 0 0 0 0 0 
0 0 0 0 0 0 0 0 0 
0 0 0 0 0 0 0 0 0 
0 0 0 0 0 0 0 0 0 
0 0 0 0 0 0 0 0 0 
0 0 0 0 0 0 0 0 0 
0 0 0 0 0 0 0 0 0 
0 0 0 0 0 0 0 0 0 
0 0 0 0 0 0 0 0 0 
0 0 0 0 0 0 0 0 0 
0 0 0 0 0 0 0 0 0 
0 0 0 0 0 0 0 0 0 
0 0 0 0 0 0 0 0 0 
0 0 0 0 0 0 0 0 0 
0 0 0 0 0 0 0 0 0 
0 0 0 0 0 0 0 0 0 
0 0 0 0 0 0 0 0 0 
0 0 0 0 0 0 0 0 0 
0 0 0 0 0 0 0 0 0 
0 0 0 0 0 0 0 0 0 
0 0 0 0 0 0 0 0 0 
0 0 0 0 0 0 0 0 0 
0 0 0 0 0 0 0 0 0 
0 0 0 0 0 0 0 0 0 
0 0 0 0 0 0 0 0 0 
0 0 0 0 0 0 0 0 0 
0 0 0 0 0 0 0 0 0 
0 0 0 0 0 0 0 0 0 
0 0 0 0 0 0 0 0 0 
0 0 0 0 0 0 0 0 0 
0 0 0 0 0 0 0 0 0 
0 0 0 0 0 0 0 0 0 
0 0 0 0 0 0 0 0 0 
0 0 0 0 0 0 
NORMALS Normals float
-0.238893 -0.622798 -0.745019 -0.120953 -0.514265 -0.84906 0.0184049 -0.511494 -0.85909 
0.187644 -0.547304 -0.815628 -0.290582 -0.339568 -0.89457 -0.231241 -0.251919 -0.939715 
-0.0908171 -0.258714 -0.961675 0.0483217 -0.219783 -0.974351 0.127848 -0.244333 -0.961226 
0.280343 -0.312632 -0.907562 0.353871 -0.392369 -0.849012 -0.31489 -0.317091 -0.894594 
-0.183036 -0.188772 -0.964812 -0.118612 -0.0664717 -0.990713 -0.0764022 0.00578718 -0.99706 
0.0269005 -0.0468926 -0.998538 0.0838426 -0.0499053 -0.995229 0.157255 -0.0865764 -0.983756 
0.22751 -0.237353 -0.944406 0.292724 -0.395627 -0.870513 -0.33793 -0.313933 -0.887271 
-0.174287 -0.194147 -0.965366 -0.0303554 -0.0414308 -0.99868 -0.056615 0.0217295 -0.99816 
-0.0754363 0.0914204 -0.992951 -7.35473e-05 0.0220685 -0.999756 0.0877613 0.0714927 -0.993573 
0.0753756 0.0318391 -0.996647 0.0580565 -0.101616 -0.993128 0.128479 -0.268598 -0.954646 
0.289844 -0.386649 -0.875496 -0.585631 -0.251028 -0.770728 -0.239689 -0.24354 -0.939807 
-0.0542961 -0.104367 -0.993056 0.0355836 -0.0470558 -0.998258 0.0129417 0.0383946 -0.999179 
-0.0797828 0.00999711 -0.996762 0.00544924 0.0608216 -0.998134 0.0966238 -0.00477375 -0.99531 
-0.0142248 0.00372194 -0.999892 -0.0781044 -0.0249105 -0.996634 -0.011927 -0.121584 -0.99251 
0.192777 -0.212077 -0.95805 0.435371 -0.308985 -0.845565 -0.514034 -0.138831 -0.84646 
-0.224777 -0.163588 -0.96058 0.0366221 -0.106429 -0.993646 0.112238 -0.0595832 -0.991893 
0.00510787 0.0380189 -0.999264 -0.0538747 -0.0839719 -0.995011 -0.0147114 0.128052 -0.991658 
0.027159 -0.106211 -0.993973 0.059149 0.0137969 -0.998154 -0.0623828 0.0607578 -0.996201 
-0.0590618 0.00100512 -0.998254 0.0839721 -0.056775 -0.994849 0.326429 -0.164886 -0.930729 
-0.505015 0.00670722 -0.863084 -0.215145 0.0055878 -0.976566 0.0509405 -0.0244257 -0.998403 
0.182455 -0.0317023 -0.982703 0.0233873 -0.0481446 -0.998567 -0.0429835 -0.0280404 -0.998682 
-0.00698362 -0.0586634 -0.998253 -0.00343652 0.0240294 -0.999705 0.135068 0.0675727 -0.98853 
-0.103937 0.0137293 -0.994489 -0.128535 -0.0122944 -0.991629 0.0333075 -0.0302499 -0.998987 
0.27347 -0.0510117 -0.960527 0.694432 -0.0769662 -0.71543 -0.532528 0.177528 -0.827585 
-0.235568 0.157658 -0.958985 0.000565629 0.100528 -0.994934 0.0898759 0.0271862 -0.995582 
0.00353749 -0.0845864 -0.99641 -0.0469389 0.0857548 -0.99521 0.0298103 -0.000135284 -0.999556 
0.12501 0.122852 -0.98452 0.0557973 -0.0750026 -0.995621 -0.133373 -0.116949 -0.984142 
-0.102253 -0.0830558 -0.991285 0.043235 0.00765822 -0.999036 0.277014 0.0398299 -0.96004 
0.689872 0.033894 -0.723137 -0.301808 0.261344 -0.916848 -0.0873933 0.187682 -0.978334 
0.00523461 0.0938636 -0.995571 0.0411941 -0.0241426 -0.998859 0.0617284 0.0302154 -0.997636 
0.0345788 0.0130551 -0.999317 -0.0411074 0.0243718 -0.998857 -0.0936205 -0.0750935 -0.992772 
-0.11868 -0.0669166 -0.990675 -0.00362076 0.0327497 -0.999457 0.150029 0.101985 -0.983408 
0.343703 0.161264 -0.925128 0.740423 0.292794 -0.605017 -0.411785 0.470418 -0.780474 
-0.197108 0.327252 -0.924151 -0.133108 0.186179 -0.973458 -0.0596927 0.0601464 -0.996403 
0.00260942 -0.0303863 -0.999535 0.0234378 -0.0766834 -0.99678 0.0244919 -0.0265111 -0.999348 
-0.0348714 0.0682964 -0.997055 -0.023638 0.153731 -0.98783 0.0748538 0.263851 -0.961655 
0.189322 0.362499 -0.912553 0.500651 0.499521 -0.706985 -0.259819 0.336504 -0.905129 
-0.172426 0.201594 -0.964173 -0.0759433 0.104334 -0.991639 0.0404915 0.0822784 -0.995786 
0.102643 0.137891 -0.985114 0.0908092 0.227343 -0.969571 0.0936719 0.386805 -0.917392 
0.18836 0.488607 -0.851929 -0.274499 0.373035 -0.886282 -0.120123 0.331835 -0.935658 
0.0528708 0.313599 -0.948082 0.166489 0.357988 -0.918763 0.21481 0.422542 -0.88052 
-0.242839 -0.63109 -0.736718 -0.155825 -0.655933 -0.73856 0.0412652 -0.697655 -0.715245 
0.205731 -0.648025 -0.733307 -0.253764 -0.631895 -0.732333 -0.375998 -0.562549 -0.736318 
-0.48897 -0.827614 -0.275616 0.27488 -0.590385 -0.758872 0.309343 -0.547666 -0.777411 
0.322953 -0.64392 -0.693591 0.36551 -0.420845 -0.830236 0.482324 -0.759529 -0.436439 
-0.42549 -0.483683 -0.764859 -0.439986 -0.48994 -0.752576 -0.572296 -0.662368 -0.483473 
0.36491 -0.413674 -0.834095 0.338672 -0.449006 -0.826859 0.470734 -0.610271 -0.637165 
-0.471334 -0.438241 -0.765368 -0.468931 -0.431766 -0.770507 -0.618287 -0.561448 -0.549997 
0.352933 -0.466476 -0.811072 0.385611 -0.488234 -0.7829 0.477083 -0.585153 -0.655735 
-0.540524 -0.384039 -0.748564 -0.610421 -0.295978 -0.734699 -0.744495 -0.473482 -0.470683 
0.465721 -0.463885 -0.753601 0.509676 -0.438464 -0.740256 0.580201 -0.515799 -0.630332 
-0.615029 -0.261343 -0.743935 0.589816 -0.362017 -0.721845 0.843762 -0.406774 -0.350143 
-0.681374 -0.172622 -0.711289 0.69842 -0.206033 -0.68539 0.71607 -0.176694 -0.675295 
0.732183 -0.210497 -0.647764 -0.739077 0.0203472 -0.673314 -0.991043 0.0235986 -0.131443 
0.738941 -0.0770105 -0.669354 -0.678043 0.223364 -0.700262 -0.628763 0.351919 -0.693405 
0.750099 0.0365244 -0.660316 -0.623028 0.360039 -0.694412 -0.644911 0.367655 -0.670014 
0.759947 0.292859 -0.58027 0.748057 0.319517 -0.581653 -0.466769 0.488842 -0.736994 
-0.777521 0.584321 -0.232444 -0.439504 0.507057 -0.741437 -0.382646 0.490351 -0.783031 
0.368034 0.618621 -0.69416 0.583973 0.546451 -0.600306 0.531574 0.584472 -0.613043 
-0.624302 0.703067 -0.340504 -0.384284 0.488349 -0.783481 -0.392543 0.499197 -0.772471 
-0.382569 0.474377 -0.792848 0.22694 0.530897 -0.816484 0.355224 0.620209 -0.699397 
0.257951 0.615893 -0.744404 0.396397 0.65589 -0.642399 -0.37749 0.482057 -0.790647 
-0.470077 0.596945 -0.650142 -0.317391 0.560196 -0.765143 -0.0998624 0.606646 -0.788675 
0.0648471 0.6211 -0.781044 0.172474 0.547102 -0.819104 0.243102 0.513839 -0.822721 
0.23915 0.512041 -0.824998 0.285995 0.600225 -0.746952 0.403315 0.803668 -0.437554 
-0.382485 0.764397 -0.51904 -0.111245 0.668678 -0.735183 0.0651434 0.636641 -0.768404 
0.198515 0.698687 -0.687334 0.335069 0.782972 -0.524102 -0.500274 -0.865859 0.00368877 
-0.361353 -0.930383 -0.0617458 -0.172846 -0.984215 -0.0380206 0.00916881 -0.995698 -0.0922028 
0.161889 -0.972103 -0.169729 0.346324 -0.903746 -0.251601 0.48904 -0.820378 -0.296344 
-0.534498 -0.84517 0.000689014 -0.633521 -0.770877 -0.0663242 -0.519067 -0.821319 0.236651 
0.50991 -0.801072 -0.313489 0.538435 -0.746151 -0.391594 -0.662619 -0.744809 -0.0787156 
-0.697775 -0.708783 -0.103617 0.580455 -0.705624 -0.406406 0.597203 -0.689971 -0.409009 
-0.748743 -0.650146 -0.12921 -0.808087 -0.580956 -0.0973939 0.652858 -0.656651 -0.377605 
0.690495 -0.636114 -0.344348 -0.851123 -0.516002 -0.0966028 0.785171 -0.544809 -0.294431 
0.869269 -0.440217 -0.224902 -0.937817 -0.328755 -0.111444 0.891363 -0.401452 -0.210497 
-0.987937 -0.134788 -0.0762429 -0.993712 -0.0825262 -0.0756752 0.954492 -0.227631 -0.192691 
-0.996855 0.0231847 -0.0757746 -0.993222 0.0881033 -0.0758203 -0.999055 0.0240436 0.0362056 
0.985454 -0.0458871 -0.163631 -0.975332 0.206135 -0.0789713 0.983633 0.122553 -0.132089 
-0.906382 0.390149 -0.162035 0.93312 0.348389 -0.0889538 0.859388 0.503085 -0.0914166 
-0.786952 0.583676 -0.200071 -0.780693 0.59112 -0.202722 -0.822491 0.540339 0.177599 
0.805561 0.582488 -0.108529 0.663099 0.738014 -0.125039 -0.654689 0.710107 -0.259095 
-0.64322 0.719045 -0.263139 -0.569345 0.780179 -0.259164 0.638684 0.756857 -0.138745 
0.532881 0.816971 -0.220443 -0.568823 0.780542 -0.259219 -0.568781 0.778785 -0.264541 
0.447612 0.819875 -0.357 0.484531 0.835992 -0.257578 0.459716 0.840216 -0.287572 
-0.513782 0.824825 -0.235991 -0.431492 0.869504 -0.240369 -0.207391 0.943587 -0.258133 
0.036407 0.954744 -0.295192 0.220915 0.909258 -0.35277 0.41918 0.838109 -0.349087 
0.366394 0.860996 -0.352764 -0.329602 -0.775391 0.538638 -0.215821 -0.813803 0.539579 
-0.0869844 -0.901316 0.424338 0.0819924 -0.94461 0.317787 0.256555 -0.931637 0.257357 
0.413532 -0.892724 0.178984 -0.490907 -0.677644 0.547549 -0.425656 -0.716381 0.552825 
-0.464286 -0.659517 0.591165 -0.310579 -0.666126 0.678098 -0.215075 -0.619 0.755368 
-0.176239 -0.605058 0.776431 0.127542 -0.675616 0.726138 0.460176 -0.878808 0.126233 
0.354978 -0.847107 0.395476 0.523985 -0.848841 0.0700563 -0.495672 -0.676861 0.544214 
-0.585588 -0.644446 0.491707 -0.482206 -0.667927 0.566878 -0.348234 -0.500794 0.792426 
-0.280589 -0.365322 0.887587 0.632623 -0.773143 0.0451362 0.639606 -0.767551 0.0420698 
-0.616925 -0.622723 0.481268 -0.747962 -0.486104 0.451947 -0.549037 -0.601433 0.580377 
-0.322597 -0.463386 0.825351 -0.216758 -0.356203 0.90892 0.774476 -0.631208 0.0419783 
0.77922 -0.624989 0.0469489 -0.755495 -0.474239 0.452023 -0.738907 -0.474583 0.478317 
-0.414333 -0.403954 0.815566 0.857038 -0.496297 0.138476 0.904278 -0.393309 0.166099 
-0.83755 -0.303534 0.454288 -0.662488 -0.242646 0.708684 0.919694 -0.345409 0.186698 
0.886649 -0.322073 0.331846 -0.869124 -0.149345 0.471507 -0.597664 -0.0728854 0.798427 
0.953707 -0.188982 0.233944 0.784315 -0.13811 0.604794 -0.897195 0.0217891 0.441097 
-0.575449 -0.018434 0.81763 0.963439 -0.0201738 0.267167 0.747964 0.0146991 0.663576 
-0.880939 0.166774 0.442869 -0.644343 0.0403249 0.763673 0.9443 0.146952 0.294453 
0.770331 0.133325 0.62355 -0.88749 0.306112 0.344467 -0.815458 0.516186 0.261879 
-0.717284 0.20077 0.667229 0.882936 0.366612 0.293291 0.837731 0.459074 0.295735 
0.806066 0.3606 0.469281 -0.813865 0.519123 0.261027 0.771299 0.556081 0.30963 
0.677911 0.674431 0.292538 0.598483 0.494466 0.630335 -0.691145 0.693986 0.201747 
-0.670905 0.714947 0.196816 -0.655361 0.674454 0.34002 -0.571656 0.790524 0.219733 
0.645425 0.707226 0.288545 0.578081 0.770788 0.267783 0.493995 0.624075 0.605391 
-0.57108 0.790718 0.220528 -0.549251 0.790654 0.270537 -0.407179 0.616367 0.674016 
0.478685 0.863217 0.160363 0.549022 0.799911 0.242317 0.532044 0.81527 0.228613 
0.489216 0.747511 0.449326 -0.49784 0.828106 0.257673 -0.414135 0.870184 0.266968 
-0.357867 0.759956 0.542585 -0.224426 0.919855 0.321713 -0.145683 0.659632 0.737334 
-0.0180502 0.960073 0.279167 -0.0506763 0.599881 0.798483 0.181211 0.957248 0.225473 
0.136111 0.640189 0.756064 0.463966 0.870108 0.166274 0.363283 0.901542 0.235049 
0.292691 0.779364 0.554007 -0.0477401 -0.591051 0.80522 -0.234459 -0.401797 0.885205 
-0.0571943 -0.587574 0.807146 -0.183479 -0.518444 0.835195 0.00522751 -0.615391 0.788205 
-0.048271 -0.587391 0.807863 0.120987 -0.659386 0.742005 0.243574 -0.686263 0.685357 
0.396907 -0.663134 0.634601 -0.252605 -0.354266 0.900381 -0.238109 -0.307524 0.921267 
-0.237467 -0.34977 0.90624 -0.177794 -0.311116 0.933593 -0.0945195 -0.304085 0.947944 
-0.00271227 -0.379807 0.925062 0.184616 -0.455943 0.870651 0.448428 -0.64929 0.614275 
0.365127 -0.598973 0.71268 0.528129 -0.607166 0.593657 -0.257541 -0.365814 0.894345 
-0.21608 -0.35363 0.910085 -0.21525 -0.354302 0.91002 -0.198741 -0.242108 0.949677 
-0.20175 -0.190263 0.960779 -0.138798 -0.124691 0.982439 -0.124373 -0.110222 0.986095 
-0.0519142 -0.0742976 0.995884 0.0367117 -0.169593 0.98483 0.193417 -0.291162 0.936917 
0.610668 -0.525935 0.592011 0.450171 -0.453788 0.76904 0.655194 -0.43029 0.620945 
-0.297631 -0.354888 0.886267 -0.342328 -0.288806 0.894093 -0.228517 -0.327893 0.91666 
-0.110355 -0.233629 0.966043 -0.117149 -0.158097 0.98045 -0.140275 -0.151773 0.978411 
-0.0978767 -0.0934749 0.990799 -0.064638 -0.000661033 0.997909 -0.0734323 0.0727914 0.99464 
-0.0438804 0.0071987 0.999011 0.0559853 -0.0308013 0.997956 0.309543 -0.181845 0.933336 
0.65695 -0.39187 0.644092 0.616385 -0.369437 0.695404 -0.429445 -0.204408 0.879656 
-0.307399 -0.190883 0.932239 -0.159986 -0.137906 0.977439 -0.0431746 -0.0939938 0.994636 
-0.11436 -0.0485581 0.992252 -0.141491 -0.168358 0.975518 0.0115988 -0.0603289 0.998111 
0.0388415 -0.129608 0.990804 -0.046418 0.0886589 0.99498 -0.0740437 0.0794151 0.994088 
0.00568208 0.0146296 0.999877 0.164098 -0.0489881 0.985227 0.713475 -0.249846 0.654622 
0.456028 -0.19766 0.867738 -0.4288 -0.050204 0.902004 -0.296456 -0.0649163 0.952838 
-0.112672 -0.0386433 0.992881 -0.0241234 -0.0220587 0.999466 -0.180436 0.00955616 0.98354 
-0.164999 -0.115355 0.979525 -0.0704249 0.154171 0.985531 0.141953 0.0287091 0.989457 
-0.116852 0.0346199 0.992546 -0.0633827 -0.0184203 0.997819 0.109551 -0.0570778 0.992341 
0.725706 -0.120472 0.677375 0.385178 -0.0686331 0.920287 -0.460785 -0.0351406 0.886816 
-0.287374 -0.0643527 0.955654 -0.104779 -0.0800124 0.991272 0.00451962 -0.0927692 0.995677 
-0.169434 -0.111025 0.979268 -0.0357495 -0.0412164 0.99851 0.0372292 -0.11365 0.992823 
-0.072965 0.0188649 0.997156 0.0738535 -0.0344473 0.996674 -0.115943 -0.0379733 0.99253 
-0.0797648 -0.0251814 0.996496 0.108302 -0.00946946 0.994073 0.729203 0.0158845 0.684113 
0.385951 0.00801875 0.922485 -0.526785 0.00428884 0.849987 -0.350413 -0.0124389 0.936513 
-0.135871 -0.0703668 0.988224 -0.0506426 -0.0936778 0.994314 -0.135835 -0.0894599 0.986684 
-0.12585 0.185447 0.974562 -0.0085888 -0.0431295 0.999033 0.132417 0.184984 0.97378 
0.0821164 0.0281526 0.996225 -0.111557 -0.013322 0.993669 -0.0364514 0.0215612 0.999103 
0.141908 0.0914249 0.985649 0.696971 0.130879 0.705055 0.409683 0.135536 0.902103 
-0.575683 0.151681 0.803481 -0.396485 0.114708 0.910847 -0.184828 0.0540947 0.981281 
-0.0215361 0.0274324 0.999392 0.0569097 0.0244075 0.998081 0.0316033 0.190819 0.981116 
0.0138829 0.168592 0.985588 0.00602335 0.174487 0.984641 -0.084967 0.0533683 0.994953 
-0.118168 0.0732183 0.990291 0.0219748 0.152354 0.988082 0.214379 0.210764 0.95374 
0.622261 0.322409 0.713333 0.559265 0.439324 0.703005 0.461361 0.285746 0.839938 
-0.513565 0.355431 0.780974 -0.504646 0.377733 0.776305 -0.489502 0.340624 0.802722 
-0.22317 0.281421 0.933272 -0.0829387 0.186699 0.97891 0.0258233 0.110069 0.993589 
0.0234359 0.0415589 0.998861 -0.023608 0.0138204 0.999626 0.0130284 -0.00441962 0.999905 
-0.0211888 0.0470036 0.99867 -0.0112855 0.13358 0.990974 0.108814 0.273158 0.955795 
0.530683 0.469048 0.705953 0.420971 0.537162 0.730917 0.28466 0.378859 0.880588 
-0.347735 0.476686 0.807373 -0.320575 0.484942 0.813672 -0.300288 0.454639 0.838529 
-0.298358 0.487706 0.820442 -0.191569 0.342673 0.919716 -0.0933254 0.22588 0.969674 
-0.0643891 0.115891 0.991173 -0.0333367 0.0783596 0.996368 0.0401929 0.0894231 0.995182 
0.0560032 0.146415 0.987637 0.113155 0.283233 0.952352 0.391692 0.532642 0.750246 
0.343227 0.535864 0.771391 0.262899 0.41823 0.869464 -0.288043 0.461509 0.839071 
-0.246005 0.480964 0.841519 -0.198824 0.349548 0.915579 -0.11236 0.488096 0.865527 
-0.119608 0.307393 0.944036 -0.0502005 0.55597 0.829685 -0.0477717 0.263278 0.963537 
0.118416 0.55049 0.826401 0.0825946 0.280417 0.956318 0.189866 0.505268 0.841816 
0.170411 0.35618 0.918747 0.302353 0.477346 0.82506 0.295146 0.477223 0.827736 
0.284109 0.455044 0.843929 0.0929886 -0.130867 0.987029 0.089131 -0.122787 0.988423 
0.0952355 -0.128266 0.987157 0.0795633 -0.116922 0.989949 0.0936191 -0.130619 0.987003 

