# vtk DataFile Version 4.2
vtk output
ASCII
DATASET POLYDATA
POINTS 562 float
-31.3322 3.69917 -19.7545 -38.7075 -25.8018 -14.5629 -31.3322 -25.8018 -14.9527 
-23.957 -25.8018 -14.1819 -16.5818 -25.8018 -12.4222 -46.0827 -18.4265 -14.9273 
-38.7075 -18.4265 -17.527 -31.3322 -18.4265 -17.7445 -23.957 -18.4265 -17.3771 
-16.5818 -18.4265 -15.0596 -9.20653 -18.4265 -12.543 -46.0827 -11.0513 -16.9234 
-38.7075 -11.0513 -18.6778 -31.3322 -11.0513 -19.0545 -23.957 -11.0513 -18.5379 
-16.5818 -11.0513 -16.6402 -9.20653 -11.0513 -14.4608 -1.8313 -11.0513 -13.6863 
5.54393 -11.0513 -13.7042 35.0448 -11.0513 -12.745 42.4201 -11.0513 -13.4497 
-53.4579 -3.67606 -13.7059 -46.0827 -3.67606 -17.7624 -38.7075 -3.67606 -19.3946 
-31.3322 3.52891 -19.752 -31.3322 -3.67606 -19.6434 -23.957 -3.67606 -18.8629 
-16.5818 -3.67606 -17.4845 -9.20653 -3.67606 -18.2431 -1.8313 -3.67606 -15.3528 
5.54393 -3.67606 -15.331 27.6696 -3.67606 -13.5357 35.0448 -3.67606 -14.6279 
42.4201 -3.67606 -14.9116 49.7953 -3.67606 -15.5732 -53.4579 3.69917 -14.4745 
-46.0827 3.69917 -18.1255 -31.4365 3.69917 -19.752 -38.7075 3.69917 -19.5688 
-31.3065 3.69917 -19.752 -31.3322 3.84274 -19.752 -23.957 3.69917 -19.0149 
-16.5818 3.69917 -17.6932 -9.20653 3.69917 -18.1897 -1.8313 3.69917 -16.9264 
5.54393 3.69917 -18.2048 12.9192 3.69917 -14.5528 20.2944 3.69917 -13.8651 
27.6696 3.69917 -15.2412 35.0448 3.69917 -16.3405 42.4201 3.69917 -16.357 
49.7953 3.69917 -16.5867 -53.4579 11.0744 -14.4093 -46.0827 11.0744 -17.7908 
-38.7075 11.0744 -19.2473 -31.3322 11.0744 -19.6228 -23.957 11.0744 -19.0564 
-16.5818 11.0744 -18.1701 -9.20653 11.0744 -18.2649 -1.8313 11.0744 -18.1131 
5.54393 11.0744 -17.4183 12.9192 11.0744 -16.0852 20.2944 11.0744 -15.8617 
27.6696 11.0744 -16.5955 35.0448 11.0744 -17.1988 42.4201 11.0744 -17.0353 
49.7953 11.0744 -15.9762 57.1705 11.0744 -12.4038 -46.0827 18.4496 -16.4525 
-38.7075 18.4496 -19.2647 -31.3322 18.4496 -19.3942 -23.957 18.4496 -19.2283 
-16.5818 18.4496 -19.1221 -9.20653 18.4496 -19.1084 -1.8313 18.4496 -18.4326 
5.54393 18.4496 -17.4712 12.9192 18.4496 -17.4336 20.2944 18.4496 -17.6131 
27.6696 18.4496 -17.8374 35.0448 18.4496 -17.2124 42.4201 18.4496 -16.2054 
49.7953 18.4496 -14.8357 -38.7075 25.8249 -15.6519 -31.3322 25.8249 -16.8533 
-23.957 25.8249 -18.0436 -16.5818 25.8249 -18.3786 -9.20653 25.8249 -19.0084 
-1.8313 25.8249 -18.0541 5.54393 25.8249 -17.6206 12.9192 25.8249 -17.5097 
20.2944 25.8249 -17.8049 27.6696 25.8249 -17.2486 35.0448 25.8249 -15.9633 
42.4201 25.8249 -14.3173 -23.957 33.2001 -13.4085 -16.5818 33.2001 -14.996 
-9.20653 33.2001 -16.1735 -1.8313 33.2001 -16.1334 5.54393 33.2001 -15.6294 
12.9192 33.2001 -15.4695 20.2944 33.2001 -15.6438 27.6696 33.2001 -14.1192 
-38.7075 -29.2992 -12.3768 -38.7075 -33.177 -7.81983 -31.3322 -30.2901 -12.3768 
-31.3322 -33.177 -10.0213 -23.957 -28.8634 -12.3768 -23.957 -33.177 -9.46267 
-16.5818 -25.8768 -12.3768 -16.5818 -33.177 -7.34435 -43.2603 -25.8018 -12.3768 
-46.0827 -23.2047 -12.3768 -46.0827 -25.8018 -10.2641 -16.4469 -25.8018 -12.3768 
-9.20653 -18.9147 -12.3768 -9.20653 -25.8018 -9.53375 -1.8313 -25.8018 -6.60683 
5.54393 -25.8018 -6.39103 12.9192 -25.8018 -7.81725 20.2944 -25.8018 -8.65201 
27.6696 -25.8018 -8.71401 35.0448 -25.8018 -8.5653 42.4201 -25.8018 -7.59137 
-50.5219 -18.4265 -12.3768 -53.4579 -18.4265 -9.07967 -8.74982 -18.4265 -12.3768 
-1.8313 -13.4912 -12.3768 -1.8313 -18.4265 -9.55474 5.54393 -13.5203 -12.3768 
5.54393 -18.4265 -9.45232 12.9192 -18.4265 -10.7719 20.2944 -18.4265 -10.8979 
27.6696 -18.4265 -10.6455 35.0448 -12.5511 -12.3768 35.0448 -18.4265 -10.8078 
42.4201 -13.0999 -12.3768 42.4201 -18.4265 -10.0303 49.7953 -18.4265 -8.10831 
-53.1876 -11.0513 -12.3768 -53.4579 -10.0202 -12.3768 -53.4579 -11.0513 -12.1376 
12.7282 -11.0513 -12.3768 12.9192 -11.0513 -12.3381 20.2944 -11.0513 -11.0485 
29.9129 -11.0513 -12.3768 27.6696 -10.1018 -12.3768 27.6696 -11.0513 -12.2161 
46.1072 -11.0513 -12.3768 49.7953 -9.16874 -12.3768 49.7953 -11.0513 -11.478 
57.1705 -11.0513 -8.90622 -54.8819 -3.67606 -12.3768 10.0276 -3.67606 -12.3768 
12.9192 0.134981 -12.3768 12.9192 -3.67606 -10.8209 23.2039 -3.67606 -12.3768 
20.2944 -1.10729 -12.3768 20.2944 -3.67606 -11.6723 55.7406 -3.67606 -12.3768 
57.1705 -3.67606 -11.6517 64.5458 -3.67606 -6.9013 -55.7477 3.69917 -12.3768 
-60.8331 3.69917 -5.28761 56.7844 3.69917 -12.3768 57.1705 10.3469 -12.3768 
57.1705 3.69917 -12.178 64.5458 3.69917 -6.84231 -55.3877 11.0744 -12.3768 
-53.4579 15.5621 -12.3768 57.2142 11.0744 -12.3768 57.1705 11.2747 -12.3768 
-52.1311 18.4496 -12.3768 -53.4579 18.4496 -10.8136 -46.0827 25.6666 -12.3768 
54.9893 18.4496 -12.3768 49.7953 22.5401 -12.3768 57.1705 18.4496 -10.0236 
-45.8531 25.8249 -12.3768 -46.0827 25.8249 -12.2214 -38.7075 29.7566 -12.3768 
-31.3322 32.011 -12.3768 35.0448 32.0045 -12.3768 45.8515 25.8249 -12.3768 
42.4201 27.9962 -12.3768 49.7953 25.8249 -8.31033 -38.7075 33.2001 -6.80556 
-27.5307 33.2001 -12.3768 -31.3322 33.2001 -10.5679 -23.957 34.1542 -12.3768 
-16.5818 35.8626 -12.3768 -9.20653 37.5417 -12.3768 -1.8313 37.8516 -12.3768 
5.54393 37.3384 -12.3768 12.9192 37.0858 -12.3768 20.2944 36.6822 -12.3768 
32.8569 33.2001 -12.3768 27.6696 35.0328 -12.3768 35.0448 33.2001 -10.4008 
-9.20653 40.5753 -5.43522 -1.8313 40.5753 -6.38473 -38.7075 -35.0672 -5.00152 
-31.3322 -36.8947 -5.00152 -23.957 -37.2419 -5.00152 -16.5818 -35.8073 -5.00152 
-42.3507 -33.177 -5.00152 -46.0827 -30.8712 -5.00152 -10.1831 -33.177 -5.00152 
-9.20653 -32.6259 -5.00152 -9.20653 -33.177 -4.62658 -1.8313 -29.2744 -5.00152 
-1.8313 -33.177 -2.95147 5.54393 -29.0068 -5.00152 5.54393 -33.177 -2.94713 
12.9192 -31.1437 -5.00152 12.9192 -33.177 -3.82691 20.2944 -32.1438 -5.00152 
20.2944 -33.177 -4.28572 27.6696 -31.7718 -5.00152 27.6696 -33.177 -3.85065 
35.0448 -30.7921 -5.00152 35.0448 -33.177 -2.66028 42.4201 -28.9654 -5.00152 
-50.8789 -25.8018 -5.00152 -53.4579 -22.3289 -5.00152 48.3011 -25.8018 -5.00152 
49.7953 -24.0346 -5.00152 49.7953 -25.8018 -3.30146 -55.609 -18.4265 -5.00152 
57.1626 -18.4265 -5.00152 57.1705 -18.4201 -5.00152 57.1705 -18.4265 -4.99419 
-58.6217 -11.0513 -5.00152 61.4193 -11.0513 -5.00152 64.5458 -6.81202 -5.00152 
-59.9847 -3.67606 -5.00152 -60.8331 2.58969 -5.00152 65.9691 -3.67606 -5.00152 
64.5458 -3.67606 1.70645 -60.9654 3.69917 -5.00152 -60.8331 4.83544 -5.00152 
-60.8331 3.69917 -1.49407 65.5795 3.69917 -5.00152 64.5458 7.66938 -5.00152 
-60.0929 11.0744 -5.00152 63.5152 11.0744 -5.00152 -57.4795 18.4496 -5.00152 
-53.4579 25.0703 -5.00152 59.3279 18.4496 -5.00152 57.1705 20.7054 -5.00152 
57.1705 18.4496 0.391888 -52.8415 25.8249 -5.00152 -46.0827 30.6094 -5.00152 
42.4201 31.5937 -5.00152 51.5885 25.8249 -5.00152 49.7953 27.2088 -5.00152 
49.7953 25.8249 -0.450472 -40.6227 33.2001 -5.00152 -38.7075 34.0601 -5.00152 
-31.3322 35.7511 -5.00152 -23.957 37.6422 -5.00152 -16.5818 39.315 -5.00152 
5.54393 40.5191 -5.00152 12.9192 40.0752 -5.00152 20.2944 39.7283 -5.00152 
27.6696 38.0175 -5.00152 39.0836 33.2001 -5.00152 35.0448 35.1668 -5.00152 
35.0448 33.2001 1.27276 -10.0118 40.5753 -5.00152 -9.20653 40.7246 -5.00152 
-9.20653 40.5753 -3.64584 4.75066 40.5753 -5.00152 -1.8313 41.0426 -5.00152 
-1.8313 40.5753 -1.52013 -38.7075 -36.6433 2.37371 -31.3322 -39.2672 2.37371 
-23.957 -40.314 2.37371 -16.5818 -40.331 2.37371 -9.20653 -39.3346 2.37371 
-1.8313 -38.6896 2.37371 5.54393 -38.9486 2.37371 12.9192 -39.4775 2.37371 
20.2944 -39.0426 2.37371 27.6696 -38.0362 2.37371 35.0448 -35.8941 2.37371 
-44.4101 -33.177 2.37371 -46.0827 -31.8499 2.37371 41.5417 -33.177 2.37371 
42.4201 -32.7826 2.37371 49.7953 -28.5065 2.37371 -51.2546 -25.8018 2.37371 
-53.4579 -22.423 2.37371 52.9897 -25.8018 2.37371 49.7953 -25.8018 8.73453 
57.1705 -21.6697 2.37371 -55.6455 -18.4265 2.37371 -53.4579 -18.4265 6.37973 
59.7188 -18.4265 2.37371 57.1705 -18.4265 7.1319 -58.4685 -11.0513 2.37371 
63.3037 -11.0513 2.37371 -60.1318 -3.67606 2.37371 64.3625 -3.67606 2.37371 
64.5458 0.103137 2.37371 -60.6837 3.69917 2.37371 64.687 3.69917 2.37371 
64.5458 4.06272 2.37371 64.5458 3.69917 2.54644 -59.6792 11.0744 2.37371 
61.3453 11.0744 2.37371 57.1705 17.3213 2.37371 57.1705 11.0744 6.61446 
-57.1538 18.4496 2.37371 -53.4579 23.8867 2.37371 -53.4579 18.4496 7.7647 
56.2166 18.4496 2.37371 49.7953 24.6844 2.37371 49.7953 18.4496 7.91407 
-51.7161 25.8249 2.37371 -46.0827 31.1811 2.37371 -46.0827 25.8249 8.96035 
35.0448 32.8298 2.37371 48.1648 25.8249 2.37371 42.4201 29.1914 2.37371 
42.4201 25.8249 6.47652 -40.5268 33.2001 2.37371 -38.7075 33.7249 2.37371 
-38.7075 33.2001 3.42821 -31.3322 35.5916 2.37371 -31.3322 33.2001 8.57379 
-23.957 37.3106 2.37371 -16.5818 38.7107 2.37371 -9.20653 39.9042 2.37371 
-1.8313 40.0329 2.37371 5.54393 39.105 2.37371 12.9192 38.076 2.37371 
20.2944 37.217 2.37371 20.2944 33.2001 8.90754 34.2219 33.2001 2.37371 
27.6696 35.6652 2.37371 27.6696 33.2001 6.35979 -38.7075 -33.186 9.74894 
-31.3322 -36.4421 9.74894 -23.957 -38.6371 9.74894 -16.5818 -38.5949 9.74894 
-9.20653 -38.3341 9.74894 -1.8313 -38.1732 9.74894 5.54393 -38.5117 9.74894 
12.9192 -38.4862 9.74894 20.2944 -37.6035 9.74894 27.6696 -36.7594 9.74894 
35.0448 -34.8301 9.74894 -38.7216 -33.177 9.74894 -46.0827 -26.3433 9.74894 
-38.7075 -33.177 9.75763 -31.3322 -33.177 12.5206 -23.957 -33.177 14.1431 
-16.5818 -33.177 14.5377 -9.20653 -33.177 14.2821 -1.8313 -33.177 14.1754 
5.54393 -33.177 14.3639 12.9192 -33.177 14.1412 20.2944 -33.177 13.3093 
27.6696 -33.177 12.5858 38.4534 -33.177 9.74894 35.0448 -33.177 11.6749 
42.4201 -30.07 9.74894 -46.5132 -25.8018 9.74894 -46.0827 -25.8018 10.0895 
-38.7075 -25.8018 13.5257 -31.3322 -25.8018 15.8493 -23.957 -25.8018 16.6469 
-16.5818 -25.8018 16.5111 -9.20653 -25.8018 15.9462 -1.8313 -25.8018 14.7578 
5.54393 -25.8018 14.6985 12.9192 -25.8018 15.6993 20.2944 -25.8018 15.7723 
27.6696 -25.8018 16.6376 35.0448 -25.8018 14.4682 48.8278 -25.8018 9.74894 
42.4201 -25.8018 13.4624 49.7953 -24.6137 9.74894 -50.5719 -18.4265 9.74894 
[...]
POINT_DATA 562
SCALARS ImageScalars float
LOOKUP_TABLE default
0 0 0 0 0 0 0 0 0 
0 0 0 0 0 0 0 0 0 
0 0 0 0 0 0 0 0 0 
0 0 0 0 0 0 0 0 0 
0 0 0 0 0 0 0 0 0 
0 0 0 0 0 0 0 0 0 
0 0 0 0 0 0 0 0 0 
0 0 0 0 0 0 0 0 0 
0 0 0 0 0 0 0 0 0 
0 0 0 0 0 0 0 0 0 
0 0 0 0 0 0 0 0 0 
0 0 0 0 0 0 0 0 0 
0 0 0 0 0 0 0 0 0 
0 0 0 0 0 0 0 0 0 
0 0 0 0 0 0 0 0 0 
0 0 0 0 0 0 0 0 0 
0 0 0 0 0 0 0 0 0 
0 0 0 0 0 0 0 0 0 
0 0 0 0 0 0 0 0 0 
0 0 0 0 0 0 0 0 0 
0 0 0 0 0 0 0 0 0 
0 0 0 0 0 0 0 0 0 
0 0 0 0 0 0 0 0 0 
0 0 0 0 0 0 0 0 0 
0 0 0 0 0 0 0 0 0 
0 0 0 0 0 0 0 0 0 
0 0 0 0 0 0 0 0 0 
0 0 0 0 0 0 0 0 0 
0 0 0 0 0 0 0 0 0 
0 0 0 0 0 0 0 0 0 
0 0 0 0 0 0 0 0 0 
0 0 0 0 0 0 0 0 0 
0 0 0 0 0 0 0 0 0 
0 0 0 0 0 0 0 0 0 
0 0 0 0 0 0 0 0 0 
0 0 0 0 0 0 0 0 0 
0 0 0 0 0 0 0 0 0 
0 0 0 0 0 0 0 0 0 
0 0 0 0 0 0 0 0 0 
0 0 0 0 0 0 0 0 0 
0 0 0 0 0 0 0 0 0 
0 0 0 0 0 0 0 0 0 
0 0 0 0 0 0 0 0 0 
0 0 0 0 0 0 0 0 0 
0 0 0 0 0 0 0 0 0 
0 0 0 0 0 0 0 0 0 
0 0 0 0 0 0 0 0 0 
0 0 0 0 0 0 0 0 0 
0 0 0 0 0 0 0 0 0 
0 0 0 0 0 0 0 0 0 
0 0 0 0 0 0 0 0 0 
0 0 0 0 0 0 0 0 0 
0 0 0 0 0 0 0 0 0 
0 0 0 0 0 0 0 0 0 
0 0 0 0 0 0 0 0 0 
0 0 0 0 0 0 0 0 0 
0 0 0 0 0 0 0 0 0 
0 0 0 0 0 0 0 0 0 
0 0 0 0 0 0 0 0 0 
0 0 0 0 0 0 0 0 0 
0 0 0 0 0 0 0 0 0 
0 0 0 0 0 0 0 0 0 
0 0 0 0 
NORMALS Normals float
0.0375757 0.00139857 -0.999293 -0.21807 -0.463342 -0.85893 0.0219169 -0.436212 -0.899577 
0.150151 -0.44349 -0.883613 0.258655 -0.432008 -0.863983 -0.404146 -0.332593 -0.852085 
-0.179226 -0.268333 -0.946507 0.0100581 -0.255016 -0.966885 0.162365 -0.261908 -0.951337 
0.305483 -0.261467 -0.915596 0.328169 -0.287509 -0.899802 -0.362387 -0.186388 -0.9132 
-0.132601 -0.118151 -0.984102 0.00684457 -0.12455 -0.99219 0.157242 -0.0959591 -0.982887 
0.257636 -0.15065 -0.954426 0.183106 -0.334209 -0.924541 0.0533302 -0.334543 -0.94087 
0.0913864 -0.356381 -0.929861 -0.0788929 -0.245373 -0.966213 0.0888101 -0.351574 -0.931938 
-0.627807 -0.120112 -0.769045 -0.321987 -0.0766329 -0.943638 -0.117017 -0.0594709 -0.991348 
0.0375427 0.000280927 -0.999295 0.0361021 -0.0470814 -0.998238 0.140111 -0.0299545 -0.989683 
0.0513038 -0.0691319 -0.996287 0.0805437 -0.263395 -0.96132 0.218379 -0.250608 -0.943136 
0.197435 -0.299556 -0.933427 -0.192295 -0.203284 -0.960051 -0.0859648 -0.238663 -0.96729 
-0.0569036 -0.180794 -0.981873 0.193748 -0.320655 -0.927169 -0.594951 -0.0367333 -0.802922 
-0.289041 -0.00209354 -0.957314 0.0356783 0.00151366 -0.999362 -0.100905 0.00977733 -0.994848 
0.0379075 0.0013489 -0.99928 0.0371126 0.00182522 -0.999309 0.13535 -0.0129909 -0.990713 
0.0596141 -0.0464318 -0.997141 0.0433894 -0.00214521 -0.999056 0.00884616 -0.168156 -0.985721 
0.0953889 -0.111625 -0.989162 0.299245 -0.308599 -0.902895 -0.0626907 -0.273526 -0.959819 
-0.157677 -0.199672 -0.967093 -0.0733928 -0.170249 -0.982664 -0.0151106 -0.147374 -0.988965 
0.250554 -0.0156131 -0.967977 -0.604306 0.166545 -0.779152 -0.272667 0.119482 -0.954661 
-0.114615 0.0207244 -0.993194 0.01366 0.0237316 -0.999625 0.0979278 -0.0141982 -0.995092 
0.0539494 -0.0959376 -0.993924 0.00381857 -0.0623973 -0.998044 0.0574086 -0.090385 -0.994251 
0.133205 0.040244 -0.990271 0.106326 -0.160378 -0.981312 -0.0356498 -0.241138 -0.969836 
-0.0907139 -0.176847 -0.980049 -0.0296351 -0.0589633 -0.99782 0.0908505 0.00738548 -0.995837 
0.257239 0.0910191 -0.962052 0.554125 0.0427517 -0.831335 -0.403702 0.262522 -0.876417 
-0.194949 0.202601 -0.95966 0.00366128 0.180973 -0.983481 0.0182368 0.0591964 -0.99808 
0.00801409 -0.0122457 -0.999893 0.0464127 -0.0500871 -0.997666 0.112576 0.00455416 -0.993633 
0.0675574 -0.0133949 -0.997625 -0.00962693 -0.0914714 -0.995761 -0.0270923 -0.126098 -0.991648 
0.0274675 -0.0405575 -0.9988 0.103606 0.0719781 -0.992011 0.143424 0.14589 -0.978849 
0.334649 0.346551 -0.876306 -0.2379 0.538961 -0.808037 -0.13896 0.426184 -0.8939 
-0.1044 0.326407 -0.939446 -0.0587455 0.230817 -0.971222 0.0212696 0.173626 -0.984582 
0.0882892 0.141321 -0.986019 0.0380692 0.117847 -0.992302 -0.0126504 0.12323 -0.992298 
0.0215094 0.103083 -0.99444 0.110672 0.208696 -0.971698 0.18661 0.347475 -0.918933 
0.355597 0.498246 -0.79076 -0.202712 0.707852 -0.676649 -0.157046 0.634933 -0.756437 
-0.0646525 0.526664 -0.847611 0.0357223 0.463268 -0.885498 0.044086 0.477385 -0.877588 
0.000934342 0.490216 -0.8716 0.0828931 0.540907 -0.836988 0.233229 0.635377 -0.736139 
-0.236523 -0.587682 -0.773748 -0.297457 -0.801115 -0.519359 0.01134 -0.57739 -0.81639 
-0.0482861 -0.718224 -0.694134 0.158375 -0.510216 -0.845338 0.139884 -0.654394 -0.743102 
0.258369 -0.434045 -0.863047 0.249824 -0.629399 -0.73583 -0.410914 -0.499364 -0.762749 
-0.480384 -0.457164 -0.748487 -0.557024 -0.554773 -0.618021 0.260583 -0.431811 -0.863502 
0.331328 -0.295518 -0.896042 0.34771 -0.416119 -0.840204 0.164267 -0.366199 -0.915923 
-0.069612 -0.36048 -0.930166 -0.139884 -0.410538 -0.90105 -0.0538471 -0.380395 -0.923255 
0.00335533 -0.39068 -0.920521 0.0837325 -0.46013 -0.883894 0.240061 -0.541574 -0.805648 
-0.587005 -0.352039 -0.729036 -0.78092 -0.392896 -0.485589 0.320013 -0.298657 -0.899108 
0.0996392 -0.361454 -0.927051 0.179198 -0.433339 -0.883236 0.0381295 -0.401007 -0.915281 
-0.081979 -0.444047 -0.892245 -0.083523 -0.268103 -0.959763 0.0102861 -0.148696 -0.988829 
0.00640747 -0.225581 -0.974203 -0.0525788 -0.242334 -0.968767 0.0473873 -0.244148 -0.968579 
0.0959851 -0.364402 -0.926282 0.131918 -0.353886 -0.925939 0.319702 -0.504935 -0.801768 
-0.664225 -0.181545 -0.725152 -0.669421 -0.173511 -0.722336 -0.680297 -0.185304 -0.709125 
0.19303 -0.0109282 -0.981132 0.19464 -0.00171537 -0.980873 -0.00452915 -0.0508205 -0.998698 
-0.104596 -0.211227 -0.971825 -0.126838 -0.196712 -0.972222 -0.115439 -0.194855 -0.974015 
0.155548 -0.361099 -0.919463 0.213268 -0.355656 -0.909959 0.219534 -0.370025 -0.90271 
0.566021 -0.440909 -0.696577 -0.683995 -0.125365 -0.718634 0.279881 -0.201909 -0.938563 
0.287321 -0.290011 -0.912875 0.251448 -0.131667 -0.958873 -0.186114 -0.19239 -0.963508 
-0.149708 -0.218125 -0.96437 -0.178234 -0.183984 -0.966635 0.420303 -0.176655 -0.890022 
0.473077 -0.161947 -0.866009 0.872979 -0.238482 -0.425481 -0.686771 -0.0232887 -0.726501 
-0.971095 -0.00152899 -0.23869 0.433555 -0.0474708 -0.899876 0.543206 0.0329424 -0.838953 
0.448782 -0.0436613 -0.892574 0.929383 0.122595 -0.348163 -0.689487 0.16996 -0.704075 
-0.668159 0.279985 -0.689327 0.556835 0.0438124 -0.829467 0.557639 0.0524451 -0.828425 
-0.641637 0.341682 -0.686699 -0.721446 0.377102 -0.580783 -0.463847 0.571977 -0.676527 
0.539718 0.411821 -0.73424 0.44398 0.539546 -0.715382 0.697087 0.51197 -0.501952 
-0.458614 0.578053 -0.674929 -0.466087 0.583645 -0.664922 -0.257884 0.701873 -0.66398 
-0.213983 0.73976 -0.63794 0.344578 0.662982 -0.664621 0.45089 0.587408 -0.672049 
0.407774 0.631192 -0.659786 0.580107 0.755575 -0.304273 -0.309214 0.902943 -0.298465 
-0.2191 0.754895 -0.618165 -0.228886 0.837348 -0.496446 -0.213419 0.752477 -0.623082 
-0.187465 0.764763 -0.616437 -0.113378 0.77538 -0.621234 0.0101517 0.76533 -0.643558 
0.0416027 0.745009 -0.665755 0.0360697 0.748178 -0.662517 0.123817 0.768365 -0.627921 
0.313554 0.706487 -0.634476 0.232152 0.758504 -0.608914 0.385457 0.797289 -0.464493 
-0.11432 0.983666 -0.139037 0.0120859 0.98303 -0.183048 -0.339282 -0.861371 -0.378059 
-0.118889 -0.875367 -0.468612 0.0496645 -0.839761 -0.54068 0.221689 -0.712538 -0.66569 
-0.45932 -0.822931 -0.334381 -0.593424 -0.744857 -0.305018 0.247316 -0.605479 -0.756459 
0.251405 -0.587723 -0.769011 0.24422 -0.616324 -0.748666 0.124076 -0.43929 -0.889736 
0.0958027 -0.625312 -0.774472 -0.0588023 -0.419963 -0.905634 -0.0530044 -0.606936 -0.792981 
-0.094566 -0.515054 -0.851925 -0.0776847 -0.605986 -0.791673 -0.0161945 -0.57616 -0.817176 
-0.00255464 -0.638403 -0.769698 0.0456764 -0.624251 -0.779887 0.0646457 -0.709999 -0.701229 
0.155422 -0.65063 -0.74332 0.249119 -0.786034 -0.565765 0.274669 -0.681002 -0.678817 
-0.732502 -0.617779 -0.285988 -0.81519 -0.525811 -0.242874 0.46264 -0.592888 -0.659127 
0.488926 -0.575611 -0.655456 0.562169 -0.649925 -0.511433 -0.872909 -0.428546 -0.23319 
0.544907 -0.584658 -0.601041 0.545185 -0.584592 -0.600854 0.545522 -0.584843 -0.600304 
-0.927333 -0.275592 -0.253184 0.741088 -0.473414 -0.476097 0.873966 -0.338122 -0.349079 
-0.957227 -0.146663 -0.249413 -0.974508 -0.0236319 -0.223105 0.939217 -0.205315 -0.275167 
0.917091 -0.0992864 0.386116 -0.975318 -0.00137957 -0.2208 -0.97592 0.0302168 -0.216024 
-0.999692 0.0148013 0.0199149 0.964103 0.155595 -0.215165 0.950771 0.27202 -0.148454 
-0.960003 0.196423 -0.199532 0.922575 0.372467 -0.100622 -0.877933 0.422241 -0.225711 
-0.735256 0.653243 -0.180755 0.783977 0.620133 -0.0285537 0.732178 0.681051 -0.00921975 
0.696607 0.625889 0.350715 -0.707423 0.684342 -0.176716 -0.481231 0.854514 -0.195504 
0.494853 0.868785 -0.0182252 0.610709 0.790908 -0.0387117 0.576569 0.815408 -0.0517417 
0.599177 0.75001 0.280129 -0.366968 0.910333 -0.191386 -0.329618 0.923277 -0.19726 
-0.221734 0.958048 -0.181601 -0.230675 0.958835 -0.165603 -0.201314 0.968285 -0.147972 
0.0653669 0.995532 -0.0681427 0.0519261 0.998352 -0.0244359 0.135632 0.990737 0.00661757 
0.271752 0.962324 -0.00910689 0.458832 0.888485 -0.00818825 0.401234 0.915962 -0.00487719 
0.386185 0.85438 0.347702 -0.122724 0.985457 -0.117526 -0.113414 0.986914 -0.114623 
-0.109278 0.992832 -0.0483969 0.0597703 0.99569 -0.0709192 0.0142103 0.994972 -0.0991427 
0.0318201 0.99683 0.0729249 -0.444468 -0.890235 0.0996457 -0.22455 -0.974433 0.00756363 
-0.0700775 -0.993022 -0.094851 0.0587839 -0.988907 -0.136406 0.103296 -0.959386 -0.262505 
0.0293967 -0.923149 -0.383317 -0.051518 -0.915451 -0.399118 -0.00280767 -0.949326 -0.314282 
0.0986086 -0.963977 -0.247031 0.202054 -0.948715 -0.243134 0.344333 -0.919937 -0.187485 
-0.602369 -0.786758 0.134774 -0.659784 -0.735168 0.155604 0.435292 -0.890634 -0.131498 
0.442809 -0.889019 -0.116472 0.589409 -0.806433 -0.0475778 -0.782324 -0.590042 0.19955 
-0.828412 -0.514788 0.220741 0.66058 -0.750746 -0.00380704 0.588003 -0.569395 0.574493 
0.769041 -0.636631 0.0572419 -0.881419 -0.414421 0.226618 -0.779574 -0.41291 0.470924 
0.839709 -0.537464 0.0776009 0.748391 -0.534702 0.392433 -0.931247 -0.283312 0.229157 
0.930288 -0.298955 0.212578 -0.960761 -0.145225 0.236323 0.893942 -0.0825294 0.440518 
0.882147 0.0483046 0.46849 -0.961946 0.0307111 0.271509 0.857554 0.176782 0.483062 
0.853494 0.193159 0.483982 0.850326 0.177807 0.495309 -0.938136 0.213829 0.272357 
0.773084 0.424153 0.47163 0.664622 0.568968 0.484307 0.585275 0.389163 0.71134 
-0.854741 0.425959 0.296608 -0.718377 0.628262 0.298698 -0.662531 0.429089 0.61395 
0.643768 0.595023 0.481155 0.570598 0.656823 0.492953 0.492544 0.498375 0.713458 
-0.667904 0.67986 0.302812 -0.500285 0.833719 0.233726 -0.485088 0.542597 0.685768 
0.375496 0.828831 0.41478 0.545089 0.685371 0.482851 0.416642 0.780589 0.465929 
0.426081 0.644396 0.634987 -0.314094 0.918461 0.240361 -0.265483 0.931398 0.249032 
-0.274029 0.911768 0.30592 -0.225666 0.956316 0.185837 -0.23627 0.832271 0.501499 
-0.200589 0.957713 0.206275 -0.171349 0.955697 0.239337 -0.0861688 0.962497 0.257245 
0.0512952 0.961125 0.271308 0.124336 0.944697 0.303461 0.121825 0.92286 0.36536 
0.153954 0.900359 0.407004 0.180935 0.762309 0.621407 0.364036 0.835752 0.411092 
0.262394 0.867725 0.42214 0.265096 0.786176 0.558257 -0.42744 -0.650528 0.627781 
-0.297356 -0.73196 0.613036 -0.117615 -0.84715 0.518173 0.0170674 -0.870003 0.492751 
0.0238439 -0.858407 0.512414 -0.00956059 -0.857735 0.514003 -0.0181475 -0.857672 0.513876 
0.0529658 -0.892535 0.447857 0.101851 -0.844937 0.525079 0.177609 -0.817983 0.547137 
0.34795 -0.79361 0.499114 -0.427766 -0.650303 0.627792 -0.573028 -0.453108 0.682885 
-0.427369 -0.650174 0.628195 -0.261401 -0.555284 0.789512 -0.12673 -0.489127 0.862957 
-0.0120741 -0.45385 0.890996 0.0219249 -0.494261 0.869037 -0.00475344 -0.443527 0.896249 
0.00258894 -0.414963 0.909835 0.068047 -0.403785 0.912319 0.111191 -0.533658 0.838359 
0.0972547 -0.604939 0.79031 0.419596 -0.74151 0.523548 0.311941 -0.683806 0.659623 
0.448501 -0.680526 0.579423 -0.579122 -0.443487 0.684059 -0.562084 -0.43742 0.701944 
-0.333503 -0.338147 0.880018 -0.206523 -0.277316 0.93832 -0.0394292 -0.211934 0.976488 
0.0471235 -0.171188 0.984111 0.121478 -0.154477 0.9805 0.0926294 -0.0757049 0.992818 
-0.0668985 -0.0415906 0.996893 -0.0754439 -0.0832168 0.993672 -0.0572836 -0.19873 0.978379 
0.0732676 -0.270104 0.960039 0.19028 -0.335034 0.922792 0.5396 -0.524458 0.658617 
0.341762 -0.457895 0.820689 0.553469 -0.476938 0.68279 -0.618319 -0.351864 0.702761 
-0.671785 -0.298613 0.67789 -0.468597 -0.264137 0.843 -0.220445 -0.240433 0.945302 
-0.109725 -0.122883 0.986337 0.141226 -0.143808 0.979477 0.128824 -0.147971 0.980566 
-0.0222378 -0.10217 0.994518 -0.107345 -0.0545266 0.992725 -0.0899165 -0.0704391 0.993455 
-0.0168275 -0.0203337 0.999652 0.142873 -0.133292 0.980725 0.261596 -0.0897892 0.960992 
0.601574 -0.392395 0.695798 0.409481 -0.278205 0.868865 0.578291 -0.185845 0.794381 
-0.6975 -0.25163 0.670952 -0.641338 -0.2454 0.726956 -0.380614 -0.113961 0.917685 
0.127765 -0.0570048 0.990165 0.0310986 -0.167679 0.985351 -0.0400712 -0.106283 0.993528 
-0.0321255 -0.0130203 0.999399 0.00605312 0.0154092 0.999863 0.109075 0.0223397 0.993782 
0.20625 -0.0271718 0.978122 0.356461 -0.0682069 0.931817 0.565174 -0.133136 0.814158 
0.552498 -0.125296 0.824043 -0.712016 -0.0895293 0.696432 -0.589091 -0.0735059 0.804716 
-0.322984 -0.0379664 0.945643 -0.154565 0.0355874 0.987341 0.127596 -0.118069 0.984774 
0.0311524 0.0174066 0.999363 0.0194472 0.0295569 0.999374 0.0960902 0.0542083 0.993895 
0.193008 0.0401576 0.980375 0.326619 0.0415941 0.94424 0.588381 0.0215308 0.808297 
0.552156 0.0195369 0.833512 -0.691204 0.0393975 0.721584 -0.556695 0.0431781 0.829594 
-0.305355 -0.00448113 0.952228 -0.173908 0.023524 0.984481 0.0248699 0.0179272 0.99953 
0.104944 0.0637698 0.992431 -0.0242097 0.00985507 0.999658 0.0434296 -0.00429322 0.999047 
0.11986 0.0372403 0.992092 0.19881 0.120266 0.972631 0.33416 0.162346 0.928429 
0.556779 0.215669 0.802175 0.55657 0.216086 0.802208 0.556609 0.215698 0.802285 
-0.651721 0.223188 0.724877 -0.600417 0.317061 0.734147 -0.576198 0.215608 0.788358 
-0.335642 0.121778 0.934085 -0.11026 0.111588 0.987619 -0.0399282 0.103798 0.993797 
0.0687603 0.0228999 0.99737 -0.071793 0.169111 0.982979 0.0655617 -0.0586148 0.996125 
-0.0362713 -0.00351902 0.999336 0.0430199 0.0562413 0.99749 0.216734 0.13359 0.967047 
0.305409 0.212503 0.928207 0.433425 0.30144 0.84928 0.438442 0.351561 0.827148 
0.400217 0.260116 0.87873 -0.544711 0.378828 0.748184 -0.461263 0.492564 0.737982 
-0.394576 0.339428 0.853873 -0.215375 0.234986 0.947837 -0.140054 0.168383 0.975721 
0.0704481 0.0728216 0.994854 -0.00851887 0.0392046 0.999195 -0.0950818 0.113652 0.98896 
0.0655215 0.0188452 0.997673 0.0925181 0.110286 0.989585 0.182416 0.223924 0.957383 
0.278586 0.320806 0.905248 0.404427 0.433204 0.805465 0.370999 0.461898 0.805612 
0.327005 0.383895 0.863535 -0.447299 0.523091 0.725465 -0.339305 0.639946 0.68945 
-0.313314 0.48818 0.814564 -0.231357 0.775999 0.586771 -0.149415 0.392706 0.907445 
-0.0814726 0.382521 0.920348 -0.026882 0.308775 0.950755 -0.0384381 0.20835 0.977299 
-0.0734363 0.255706 0.963961 0.0184962 0.297399 0.954574 0.115323 0.321144 0.939983 
0.186943 0.724756 0.66316 0.175004 0.406506 0.896731 0.270948 0.653427 0.706838 
0.261055 0.479522 0.8378 0.351209 0.555986 0.753347 0.344864 0.564359 0.750045 
0.341768 0.547655 0.76372 -0.190808 0.776036 0.601133 -0.140227 0.757272 0.637868 
-0.131529 0.727082 0.673834 -0.11753 0.751419 0.649274 -0.110866 0.659953 0.743082 
-0.0671435 0.752813 0.654801 -0.0587746 0.601446 0.796748 0.0385707 0.761843 0.646612 
0.0174866 0.617792 0.786147 0.12007 0.790093 0.601113 0.0942384 0.700772 0.707133 
0.17189 0.755131 0.632638 0.15259 0.782661 0.603455 0.152187 0.749561 0.644202 
-0.0365906 -0.134852 0.99019 0.0436401 -0.108464 0.993142 -0.216853 -0.0794936 0.972962 
-0.0803394 -0.104762 0.991247 -0.0913796 -0.0998697 0.990796 -0.0366393 -0.0784665 0.996243 
0.0967979 -0.115656 0.988562 0.0407261 -0.0797109 0.995986 0.120893 -0.147641 0.981625 
-0.223698 -0.0665397 0.972384 -0.198534 -0.0341659 0.979498 -0.217234 -0.0659071 0.973892 
-0.045268 -0.0353254 0.99835 0.00594617 0.00300166 0.999978 -0.0182389 -0.0478366 0.998689 
0.118739 -0.0687063 0.990546 0.043989 -0.163437 0.985573 -0.0416217 -0.146854 0.988282 
0.0384027 0.00444252 0.999252 -0.10435 0.0266321 0.994184 -0.0362189 0.013532 0.999252 
0.00898138 0.0255558 0.999633 -0.0491407 0.0533562 0.997366 -0.125991 0.0282519 0.991629 
0.132464 -0.102639 0.985859 0.124413 -0.0482614 0.991056 -0.0212823 -0.134701 0.990658 
0.0986447 -0.13306 0.986187 -0.0720875 -0.137471 0.987879 0.0461813 0.0206476 0.99872 
0.0558621 0.0253984 0.998115 0.0501514 0.0214906 0.99851 -0.100375 0.023475 0.994673 
0.0171151 0.0192905 0.999667 -0.0369127 0.0901754 0.995242 -0.0250848 0.0263802 0.999337 
-0.0404642 0.0527649 0.997787 0.0181646 -0.00520842 0.999821 -0.0745599 0.0773783 0.99421 
-0.11781 0.0936381 0.988612 -0.0896743 0.190802 0.977524 -0.117403 0.209811 0.970668 
0.0354664 -0.149822 0.988077 0.147087 0.0302832 0.98866 0.200505 -0.0226802 0.97943 
0.000387916 0.0167939 0.999859 0.0206337 -0.0116703 0.999719 0.0151672 -0.01542 0.999766 
-0.0976785 0.152755 0.983425 -0.09676 0.115363 0.988599 -0.119289 0.141623 0.982707 
0.101457 0.00399728 0.994832 0.130553 0.0508375 0.990137 -0.0647513 0.129085 0.989517 
-0.00780998 0.104636 0.99448 -0.0569671 0.141089 0.988357 -0.0545886 0.12362 0.990827 
-0.0816541 0.10725 0.990873 0.056803 0.0249317 0.998074 0.00898094 0.180044 0.983618 
-0.000113622 0.0691142 0.997609 
