# vtk DataFile Version 4.2
vtk output
ASCII
DATASET POLYDATA
POINTS 520 float
-25.984 -38.7366 -16.4419 -17.8446 -38.7366 -17.9117 -9.70514 -38.7366 -18.483 
-1.56571 -38.7366 -18.1749 6.57372 -38.7366 -18.0521 14.7132 -38.7366 -17.2204 
22.8526 -38.7366 -16.0745 -34.1234 -30.5971 -17.4247 -25.984 -30.5971 -19.5492 
-17.8446 -30.5971 -20.2739 -9.70514 -30.5971 -20.9652 -1.56571 -30.5971 -20.9134 
6.57372 -30.5971 -20.1424 14.7132 -30.5971 -19.512 22.8526 -30.5971 -19.9845 
30.992 -30.5971 -19.2149 39.1315 -30.5971 -17.0799 -42.2629 -22.4577 -15.4221 
-34.1234 -22.4577 -18.9232 -25.984 -22.4577 -20.0296 -17.8446 -22.4577 -20.3698 
-9.70514 -22.4577 -20.9134 -1.56571 -22.4577 -20.9458 6.57372 -22.4577 -19.9047 
14.7132 -22.4577 -19.8691 22.8526 -22.4577 -20.9255 30.992 -22.4577 -21.194 
39.1315 -22.4577 -20.7463 47.2709 -22.4577 -17.7952 -42.2629 -14.3183 -16.9847 
-34.1234 -14.3183 -19.6291 -25.984 -14.3183 -20.2187 -17.8446 -14.3183 -19.6239 
-9.70514 -14.3183 -19.816 -1.56571 -14.3183 -21.1973 6.57372 -14.3183 -19.8113 
14.7132 -14.3183 -19.6142 22.8526 -14.3183 -20.9029 30.992 -14.3183 -21.8983 
39.1315 -14.3183 -22.2644 47.2709 -14.3183 -21.115 55.4103 -14.3183 -15.9097 
-42.2629 -6.17883 -17.1219 -34.1234 -6.17883 -19.1175 -25.984 -6.17883 -19.063 
-17.8446 -6.17883 -19.0942 -9.70514 -6.17883 -20.734 -1.56571 -6.17883 -20.8987 
6.57372 -6.17883 -22.6167 14.7132 -6.17883 -20.4795 22.8526 -6.17883 -20.3172 
30.992 -6.17883 -21.855 39.1315 -6.17883 -22.1921 47.2709 -6.17883 -21.4352 
55.4103 -6.17883 -18.8126 -42.2629 1.9606 -16.0207 -34.1234 1.9606 -17.7388 
-25.984 1.9606 -17.9959 -17.8446 1.9606 -18.4613 -9.70514 1.9606 -22.2388 
-1.56571 1.9606 -18.996 6.57372 1.9606 -22.2117 14.7132 1.9606 -20.3325 
22.8526 1.9606 -20.0433 30.992 1.9606 -21.7802 39.1315 1.9606 -21.9063 
47.2709 1.9606 -21.3592 55.4103 1.9606 -18.7331 -34.1234 10.1 -16.9153 
-25.984 10.1 -17.4809 -17.8446 10.1 -17.8008 -9.70514 10.1 -20.5565 
-1.56571 10.1 -20.9529 6.57372 10.1 -21.7128 14.7132 10.1 -20.3035 
22.8526 10.1 -20.8263 30.992 10.1 -21.9762 39.1315 10.1 -22.1366 
47.2709 10.1 -20.7084 55.4103 10.1 -17.4678 -34.1234 18.2395 -17.0389 
-25.984 18.2395 -18.4792 -17.8446 18.2395 -19.2828 -9.70514 18.2395 -19.3348 
-1.56571 18.2395 -19.833 6.57372 18.2395 -20.9407 14.7132 18.2395 -20.8855 
22.8526 18.2395 -21.0747 30.992 18.2395 -21.3394 39.1315 18.2395 -20.944 
47.2709 18.2395 -19.2858 -34.1234 26.3789 -17.6388 -25.984 26.3789 -19.1816 
-17.8446 26.3789 -19.7795 -9.70514 26.3789 -19.4288 -1.56571 26.3789 -19.1333 
6.57372 26.3789 -20.0764 14.7132 26.3789 -20.592 22.8526 26.3789 -20.485 
30.992 26.3789 -20.1925 39.1315 26.3789 -19.0157 47.2709 26.3789 -15.1169 
-34.1234 34.5183 -15.4518 -25.984 34.5183 -17.7481 -17.8446 34.5183 -18.3189 
-9.70514 34.5183 -18.1484 -1.56571 34.5183 -17.9308 6.57372 34.5183 -18.171 
14.7132 34.5183 -18.2556 22.8526 34.5183 -17.6626 30.992 34.5183 -15.7753 
-25.984 -40.2858 -15.0274 -17.8446 -42.6368 -15.0274 -17.8446 -46.876 -7.48893 
-9.70514 -42.9448 -15.0274 -1.56571 -42.728 -15.0274 6.57372 -42.7538 -15.0274 
14.7132 -41.6977 -15.0274 22.8526 -39.8055 -15.0274 -29.5685 -38.7366 -15.0274 
-34.1234 -35.3361 -15.0274 -34.1234 -38.7366 -12.0749 28.0377 -38.7366 -15.0274 
30.992 -37.9774 -15.0274 30.992 -38.7366 -13.7381 39.1315 -32.835 -15.0274 
-38.4704 -30.5971 -15.0274 -42.2629 -23.7816 -15.0274 -42.2629 -30.5971 -11.8478 
42.4635 -30.5971 -15.0274 47.2709 -26.5573 -15.0274 -42.8039 -22.4577 -15.0274 
51.0037 -22.4577 -15.0274 55.4103 -16.0844 -15.0274 -45.2367 -14.3183 -15.0274 
-50.4023 -14.3183 -10.2839 56.357 -14.3183 -15.0274 -45.9872 -6.17883 -15.0274 
-50.4023 -6.17883 -11.9821 59.7244 -6.17883 -15.0274 63.5498 -6.17883 -7.49479 
-44.379 1.9606 -15.0274 -50.4023 1.9606 -11.7393 -42.2629 9.76308 -15.0274 
59.7977 1.9606 -15.0274 63.5498 1.9606 -8.15905 -50.4023 10.1 -10.8652 
-42.0943 10.1 -15.0274 -42.2629 10.1 -14.9865 58.3657 10.1 -15.0274 
55.4103 16.9876 -15.0274 -50.4023 18.2395 -8.31807 -40.143 18.2395 -15.0274 
-42.2629 18.2395 -14.237 54.5747 18.2395 -15.0274 55.4103 18.2395 -14.0895 
-38.8405 26.3789 -15.0274 -42.2629 26.3789 -12.8566 39.1315 31.1728 -15.0274 
47.3896 26.3789 -15.0274 47.2709 26.4788 -15.0274 -34.8352 34.5183 -15.0274 
-42.2629 34.5183 -8.18027 -34.1234 35.2082 -15.0274 -25.984 39.9801 -15.0274 
-17.8446 41.2526 -15.0274 -9.70514 40.7303 -15.0274 -1.56571 40.0693 -15.0274 
6.57372 39.734 -15.0274 14.7132 39.4919 -15.0274 22.8526 37.8738 -15.0274 
32.6761 34.5183 -15.0274 30.992 35.2079 -15.0274 39.1315 34.5183 -8.67999 
-25.984 42.6578 -12.4254 -17.8446 42.6578 -14.0398 -9.70514 42.6578 -13.7594 
-1.56571 42.6578 -13.2206 6.57372 42.6578 -12.3767 14.7132 42.6578 -10.7904 
-17.8446 -47.0978 -6.88793 -34.1234 -41.7025 -6.88793 -18.8661 -46.876 -6.88793 
-25.984 -45.2519 -6.88793 -9.72827 -46.876 -6.88793 -17.8446 -46.876 -2.89151 
-9.70514 -46.8753 -6.88793 -1.56571 -46.7811 -6.88793 6.57372 -46.764 -6.88793 
14.7132 -46.1416 -6.88793 22.8526 -44.352 -6.88793 30.992 -41.1083 -6.88793 
-37.898 -38.7366 -6.88793 -42.2629 -34.5271 -6.88793 35.3045 -38.7366 -6.88793 
30.992 -38.7366 0.805362 39.1315 -36.4481 -6.88793 -45.3601 -30.5971 -6.88793 
47.0309 -30.5971 -6.88793 47.2709 -30.3879 -6.88793 -49.9797 -22.4577 -6.88793 
-50.4023 -21.3359 -6.88793 -50.4023 -22.4577 -4.86562 54.8974 -22.4577 -6.88793 
55.4103 -21.7793 -6.88793 -52.8516 -14.3183 -6.88793 60.3334 -14.3183 -6.88793 
63.5498 -6.83729 -6.88793 -54.8124 -6.17883 -6.88793 63.7835 -6.17883 -6.88793 
63.5498 -6.17883 -5.75107 -55.3825 1.9606 -6.88793 -58.5417 1.9606 0.766353 
64.0963 1.9606 -6.88793 63.5498 5.96883 -6.88793 63.5498 1.9606 -3.88573 
-54.5657 10.1 -6.88793 62.884 10.1 -6.88793 -51.7621 18.2395 -6.88793 
-50.4023 21.6463 -6.88793 59.3662 18.2395 -6.88793 55.4103 23.0321 -6.88793 
-48.442 26.3789 -6.88793 -50.4023 26.3789 -2.79935 52.0983 26.3789 -6.88793 
47.2709 30.239 -6.88793 -43.3336 34.5183 -6.88793 -42.2629 35.6718 -6.88793 
-34.1234 42.2981 -6.88793 22.8526 42.1879 -6.88793 30.992 39.0171 -6.88793 
40.3017 34.5183 -6.88793 39.1315 35.1718 -6.88793 39.1315 34.5183 -3.16179 
-33.4113 42.6578 -6.88793 -25.984 45.6845 -6.88793 -17.8446 47.3556 -6.88793 
-9.70514 47.6902 -6.88793 -1.56571 47.1815 -6.88793 6.57372 46.0839 -6.88793 
21.1763 42.6578 -6.88793 14.7132 44.4178 -6.88793 -34.1234 -41.7041 1.2515 
-25.984 -45.1358 1.2515 -17.8446 -46.6274 1.2515 -9.70514 -46.4546 1.2515 
-1.56571 -46.2824 1.2515 6.57372 -46.0739 1.2515 14.7132 -45.0164 1.2515 
22.8526 -42.5539 1.2515 -38.2904 -38.7366 1.2515 -42.2629 -35.2176 1.2515 
30.6794 -38.7366 1.2515 22.8526 -38.7366 7.78273 30.992 -38.5685 1.2515 
39.1315 -33.4621 1.2515 -46.1923 -30.5971 1.2515 -50.4023 -24.2764 1.2515 
43.2391 -30.5971 1.2515 39.1315 -30.5971 4.38336 47.2709 -27.2356 1.2515 
-51.529 -22.4577 1.2515 51.8357 -22.4577 1.2515 47.2709 -22.4577 5.45966 
55.4103 -17.9684 1.2515 -55.3251 -14.3183 1.2515 57.7898 -14.3183 1.2515 
55.4103 -14.3183 4.25754 -57.7009 -6.17883 1.2515 -58.5417 0.663246 1.2515 
61.6688 -6.17883 1.2515 -58.695 1.9606 1.2515 -58.5417 4.25351 1.2515 
-58.5417 1.9606 6.25976 62.5382 1.9606 1.2515 -58.1275 10.1 1.2515 
61.8156 10.1 1.2515 -55.7796 18.2395 1.2515 58.0393 18.2395 1.2515 
55.4103 21.3801 1.2515 55.4103 18.2395 6.96861 -52.128 26.3789 1.2515 
-50.4023 28.8506 1.2515 39.1315 33.693 1.2515 50.2132 26.3789 1.2515 
47.2709 28.9552 1.2515 47.2709 26.3789 6.20476 -45.6564 34.5183 1.2515 
-42.2629 37.6042 1.2515 -34.1234 42.521 1.2515 22.8526 41.1493 1.2515 
37.467 34.5183 1.2515 30.992 37.6924 1.2515 30.992 34.5183 6.93261 
-33.7714 42.6578 1.2515 -25.984 45.5242 1.2515 -25.984 42.6578 7.47375 
-17.8446 47.1851 1.2515 -17.8446 42.6578 8.67302 -9.70514 47.6792 1.2515 
-9.70514 42.6578 9.03065 -1.56571 47.4699 1.2515 6.57372 46.3625 1.2515 
6.57372 42.6578 8.70161 18.914 42.6578 1.2515 14.7132 44.207 1.2515 
14.7132 42.6578 4.6756 -34.1234 -39.0056 9.39093 -25.984 -42.0985 9.39093 
-17.8446 -43.3038 9.39093 -9.70514 -43.2116 9.39093 -1.56571 -42.8047 9.39093 
6.57372 -42.1484 9.39093 14.7132 -40.5663 9.39093 -34.5439 -38.7366 9.39093 
-42.2629 -32.8266 9.39093 -34.1234 -38.7366 9.81606 -25.984 -38.7366 13.7923 
-17.8446 -38.7366 14.8279 -9.70514 -38.7366 14.6521 -1.56571 -38.7366 13.9527 
6.57372 -38.7366 13.0316 19.9266 -38.7366 9.39093 14.7132 -38.7366 11.3294 
22.8526 -37.4928 9.39093 30.992 -32.0299 9.39093 -44.4058 -30.5971 9.39093 
-50.4023 -22.5528 9.39093 -42.2629 -30.5971 12.6372 6.57372 -30.5971 17.2805 
14.7132 -30.5971 16.7555 22.8526 -30.5971 14.9304 32.9157 -30.5971 9.39093 
30.992 -30.5971 10.6082 39.1315 -25.2012 9.39093 -50.4658 -22.4577 9.39093 
-50.4023 -22.4577 9.52093 30.992 -22.4577 15.3211 42.2583 -22.4577 9.39093 
39.1315 -22.4577 11.3488 47.2709 -18.1051 9.39093 -54.6261 -14.3183 9.39093 
39.1315 -14.3183 16.1282 50.7526 -14.3183 9.39093 47.2709 -14.3183 12.2186 
55.4103 -7.60202 9.39093 -57.3415 -6.17883 9.39093 47.2709 -6.17883 16.5841 
56.2686 -6.17883 9.39093 55.4103 -6.17883 10.375 -58.4413 1.9606 9.39093 
58.4993 1.9606 9.39093 55.4103 1.9606 12.9817 -57.9166 10.1 9.39093 
57.8729 10.1 9.39093 55.4103 15.7384 9.39093 55.4103 10.1 12.3933 
-55.4331 18.2395 9.39093 -50.4023 18.2395 17.3196 -9.70514 18.2395 16.645 
-1.56571 18.2395 15.7725 53.9067 18.2395 9.39093 47.2709 24.4528 9.39093 
47.2709 18.2395 15.1054 -51.0471 26.3789 9.39093 -50.4023 27.3071 9.39093 
-50.4023 26.3789 10.5281 -9.70514 26.3789 15.799 -1.56571 26.3789 15.3954 
6.57372 26.3789 16.8768 14.7132 26.3789 17.2546 22.8526 26.3789 16.7178 
30.992 32.8736 9.39093 30.992 26.3789 15.6178 44.1402 26.3789 9.39093 
39.1315 29.051 9.39093 39.1315 26.3789 12.2856 -43.2233 34.5183 9.39093 
-42.2629 35.227 9.39093 -42.2629 34.5183 10.3975 -34.1234 39.2977 9.39093 
-34.1234 34.5183 15.3474 -25.984 41.5634 9.39093 -25.984 34.5183 15.9259 
-17.8446 41.9936 9.39093 -17.8446 34.5183 14.9152 -9.70514 42.2447 9.39093 
-9.70514 34.5183 14.1814 -1.56571 34.5183 14.383 6.57372 42.1098 9.39093 
[...]
POINT_DATA 520
SCALARS ImageScalars float
LOOKUP_TABLE default
0 0 0 0 0 0 0 0 0 
0 0 0 0 0 0 0 0 0 
0 0 0 0 0 0 0 0 0 
0 0 0 0 0 0 0 0 0 
0 0 0 0 0 0 0 0 0 
0 0 0 0 0 0 0 0 0 
0 0 0 0 0 0 0 0 0 
0 0 0 0 0 0 0 0 0 
0 0 0 0 0 0 0 0 0 
0 0 0 0 0 0 0 0 0 
0 0 0 0 0 0 0 0 0 
0 0 0 0 0 0 0 0 0 
0 0 0 0 0 0 0 0 0 
0 0 0 0 0 0 0 0 0 
0 0 0 0 0 0 0 0 0 
0 0 0 0 0 0 0 0 0 
0 0 0 0 0 0 0 0 0 
0 0 0 0 0 0 0 0 0 
0 0 0 0 0 0 0 0 0 
0 0 0 0 0 0 0 0 0 
0 0 0 0 0 0 0 0 0 
0 0 0 0 0 0 0 0 0 
0 0 0 0 0 0 0 0 0 
0 0 0 0 0 0 0 0 0 
0 0 0 0 0 0 0 0 0 
0 0 0 0 0 0 0 0 0 
0 0 0 0 0 0 0 0 0 
0 0 0 0 0 0 0 0 0 
0 0 0 0 0 0 0 0 0 
0 0 0 0 0 0 0 0 0 
0 0 0 0 0 0 0 0 0 
0 0 0 0 0 0 0 0 0 
0 0 0 0 0 0 0 0 0 
0 0 0 0 0 0 0 0 0 
0 0 0 0 0 0 0 0 0 
0 0 0 0 0 0 0 0 0 
0 0 0 0 0 0 0 0 0 
0 0 0 0 0 0 0 0 0 
0 0 0 0 0 0 0 0 0 
0 0 0 0 0 0 0 0 0 
0 0 0 0 0 0 0 0 0 
0 0 0 0 0 0 0 0 0 
0 0 0 0 0 0 0 0 0 
0 0 0 0 0 0 0 0 0 
0 0 0 0 0 0 0 0 0 
0 0 0 0 0 0 0 0 0 
0 0 0 0 0 0 0 0 0 
0 0 0 0 0 0 0 0 0 
0 0 0 0 0 0 0 0 0 
0 0 0 0 0 0 0 0 0 
0 0 0 0 0 0 0 0 0 
0 0 0 0 0 0 0 0 0 
0 0 0 0 0 0 0 0 0 
0 0 0 0 0 0 0 0 0 
0 0 0 0 0 0 0 0 0 
0 0 0 0 0 0 0 0 0 
0 0 0 0 0 0 0 0 0 
0 0 0 0 0 0 0 
NORMALS Normals float
0.252934 0.553397 0.793585 0.107398 0.471643 0.875225 0.0172049 0.50252 0.864394 
-0.0258924 0.495844 0.868026 -0.0579324 0.465778 0.883003 -0.104947 0.4855 0.867915 
-0.162254 0.642264 0.749113 0.368117 0.309313 0.876821 0.155491 0.184644 0.970427 
0.0826312 0.140072 0.986687 0.0392965 0.138697 0.989555 -0.0490085 0.145002 0.988217 
-0.0848533 0.108321 0.990488 -0.0115117 0.15297 0.988164 -0.0185378 0.232954 0.972311 
-0.145112 0.374136 0.91595 -0.373633 0.600367 0.707077 0.533363 0.218017 0.817308 
0.250445 0.117697 0.96095 0.0855239 0.038845 0.995579 0.0528078 -0.0370069 0.997919 
0.035929 -0.0711807 0.996816 -0.0590606 0.0173021 0.998104 -0.0674972 -0.0199651 0.99752 
0.0619839 0.00589339 0.99806 0.0830613 0.05099 0.995239 -0.0119362 0.157321 0.987475 
-0.175125 0.25609 0.950657 -0.47612 0.468038 0.74448 0.444567 0.0897312 0.89124 
0.173806 0.0109413 0.984719 0.000380138 -0.0594879 0.998229 -0.0253032 -0.0805923 0.996426 
0.0970352 -0.0136194 0.995188 0.00514892 -0.00182665 0.999985 -0.101065 0.162072 0.98159 
0.0675737 0.0337562 0.997143 0.138981 -0.0369389 0.989606 0.0823495 0.043765 0.995642 
-0.041821 0.0962759 0.994476 -0.326292 0.18205 0.927573 -0.658355 0.358242 0.661991 
0.367811 -0.0551868 0.928262 0.103901 -0.11331 0.988112 -0.00130479 -0.13604 0.990702 
0.0942909 -0.0638581 0.993495 0.115001 0.14693 0.982439 0.11194 -0.128971 0.98531 
-0.0241733 0.145857 0.98901 -0.141457 0.0478715 0.988786 0.0811217 -0.0534025 0.995273 
0.118922 -0.00702687 0.992879 -0.0289905 -0.0210263 0.999359 -0.195039 0.0120478 0.980721 
-0.536932 0.150114 0.830162 0.317258 -0.120117 0.940701 0.112969 -0.131985 0.984793 
0.0397097 -0.0966839 0.994523 0.258879 -0.0848472 0.962176 0.0182227 -0.00432187 0.999825 
-0.0104792 0.012762 0.999864 0.0813839 -0.0589234 0.99494 -0.129528 -0.0111667 0.991513 
0.0833764 0.0317965 0.996011 0.118018 0.00791738 0.99298 -0.0296205 -0.00513249 0.999548 
-0.18269 -0.04358 0.982204 -0.510573 -0.0757874 0.856488 0.144465 -0.0423573 0.988603 
0.0537031 0.0253553 0.998235 0.167427 0.0544363 0.98438 0.201647 -0.178403 0.963074 
0.0677368 0.0411091 0.996856 -0.0389648 -0.073824 0.99651 -0.0550488 0.0345368 0.997886 
0.102672 0.0634041 0.992692 0.0801577 -0.0274353 0.996405 -0.0805478 -0.0568552 0.995128 
-0.25859 -0.112823 0.959376 -0.55266 -0.230545 0.800884 0.230344 0.0387811 0.972336 
0.137473 0.105175 0.984906 0.0492886 0.121038 0.991423 0.0333443 -0.0582504 0.997745 
0.0981389 -0.111884 0.988863 0.0639671 -0.0983245 0.993096 0.00832676 0.0173436 0.999815 
0.0275991 -0.0199948 0.999419 -0.00693842 -0.104044 0.994548 -0.109251 -0.162122 0.980704 
-0.369403 -0.328095 0.869423 0.340577 -0.088908 0.936004 0.122944 -0.0489701 0.991205 
0.0132416 -0.0545902 0.998421 -0.0391142 -0.0665209 0.997018 0.0368756 -0.109796 0.99327 
0.0903774 -0.158821 0.983162 0.0236901 -0.141973 0.989587 -0.0232039 -0.190807 0.981353 
-0.0751882 -0.280006 0.957049 -0.280799 -0.444726 0.850512 -0.504022 -0.598284 0.622911 
0.416182 -0.400665 0.816247 0.164278 -0.304638 0.938194 0.0255546 -0.295857 0.95489 
-0.022702 -0.289743 0.956835 0.000844789 -0.292224 0.956349 0.0185604 -0.364255 0.931114 
-0.028849 -0.427094 0.903747 -0.123395 -0.524819 0.842222 -0.285336 -0.688364 0.666887 
0.270667 0.629993 0.727907 0.125577 0.674629 0.727396 0.0991992 0.9764 0.191841 
0.00422444 0.732042 0.681247 -0.00974296 0.718941 0.695002 -0.0477743 0.700345 0.712204 
-0.138586 0.647584 0.749285 -0.186975 0.693206 0.696064 0.357535 0.58885 0.724861 
0.441832 0.494908 0.748231 0.521223 0.673047 0.524723 -0.262428 0.725759 0.635929 
-0.29747 0.729229 0.616228 -0.335565 0.794826 0.505616 -0.43216 0.685961 0.585401 
0.511923 0.381256 0.769791 0.55223 0.250802 0.795072 0.681865 0.476222 0.555223 
-0.476335 0.660531 0.580348 -0.563392 0.582297 0.586106 0.554933 0.224682 0.800979 
-0.630988 0.519036 0.576589 -0.682814 0.411727 0.603527 0.538758 0.118942 0.834022 
0.774599 0.215417 0.594636 -0.693253 0.370926 0.617912 0.480997 -0.0169867 0.876558 
0.673672 0.054066 0.73705 -0.76316 0.168103 0.623962 -0.969801 0.207261 0.128563 
0.388192 -0.107169 0.915326 0.620394 -0.0572715 0.782197 0.319152 -0.0994879 0.942467 
-0.756022 -0.0630546 0.651502 -0.98012 -0.0508491 0.191781 0.6222 -0.165117 0.765248 
0.315398 -0.0975942 0.943928 0.319225 -0.0988398 0.942511 -0.697832 -0.235585 0.676409 
-0.61696 -0.425386 0.662123 0.706957 -0.267647 0.654658 0.37707 -0.067302 0.923736 
0.440774 -0.110607 0.890778 -0.597531 -0.449773 0.663823 -0.645678 -0.475225 0.597713 
0.441669 -0.164948 0.881885 0.562913 -0.251299 0.787387 -0.38324 -0.673124 0.632481 
-0.507336 -0.600266 0.618297 -0.505116 -0.602397 0.618042 0.441966 -0.407854 0.79895 
0.690663 -0.563914 0.452753 0.427347 -0.429376 0.79562 0.214367 -0.573811 0.790435 
0.0253278 -0.579665 0.814461 -0.0362805 -0.554706 0.831255 -0.0317155 -0.542247 0.83962 
-0.0196395 -0.595906 0.802814 -0.0837735 -0.667108 0.740236 -0.198658 -0.683233 0.702657 
-0.32082 -0.715518 0.620571 -0.299392 -0.720102 0.625953 -0.466813 -0.86531 0.182548 
0.265717 -0.775987 0.572047 0.0417195 -0.676489 0.73527 -0.0369953 -0.676345 0.735656 
-0.0587067 -0.707453 0.704318 -0.0839444 -0.789229 0.608334 -0.183402 -0.889202 0.419145 
0.0972363 0.982451 0.159172 0.52801 0.819193 0.223891 0.119692 0.979289 0.1633 
0.286649 0.935345 0.207275 -0.0198085 0.987285 0.157719 0.0911585 0.995721 -0.0151685 
-0.0201491 0.987279 0.157716 -0.00673046 0.99017 0.139705 -0.0381153 0.990067 0.13533 
-0.142927 0.981187 0.129786 -0.300038 0.948468 0.101911 -0.425512 0.904358 0.0328038 
0.63678 0.732112 0.241915 0.736634 0.61912 0.272143 -0.481954 0.875765 0.0274887 
-0.429215 0.812482 -0.394522 -0.539792 0.841199 0.0317661 0.795435 0.53457 0.285515 
-0.652121 0.757772 0.0227936 -0.655587 0.754774 0.0228548 0.849313 0.392108 0.353438 
0.853079 0.374223 0.36361 0.865829 0.422131 0.268598 -0.785258 0.618096 0.0364405 
-0.796084 0.603924 0.0390647 0.85954 0.266061 0.436352 -0.885554 0.457395 0.0811373 
-0.968704 0.228637 0.0966278 0.856145 0.132902 0.499352 -0.973397 0.207718 0.0967023 
-0.976559 0.21176 0.0385967 0.822794 -0.00985245 0.568255 0.985924 0.0247115 0.165361 
-0.990539 -0.0478836 0.128608 -0.980185 -0.143412 0.136641 -0.999086 -0.0340947 -0.0257958 
0.791095 -0.175736 0.585905 -0.956638 -0.249018 0.151112 0.748302 -0.28675 0.598179 
0.752409 -0.336845 0.566053 -0.844786 -0.518005 0.134188 -0.746998 -0.653002 0.124828 
0.766081 -0.391951 0.509405 0.826179 -0.475834 0.301679 -0.670657 -0.734342 0.1047 
-0.584708 -0.803423 0.11238 0.707556 -0.579204 0.40483 0.687582 -0.611769 0.391114 
0.494567 -0.823657 0.277475 -0.314187 -0.94062 0.128536 -0.384728 -0.916219 0.111921 
-0.481866 -0.871875 0.0873984 -0.46648 -0.880656 0.0827133 -0.460005 -0.883872 -0.0846499 
0.475117 -0.837913 0.268637 0.279635 -0.932055 0.230384 0.118297 -0.963204 0.241337 
-0.0102873 -0.958731 0.284128 -0.0981722 -0.947359 0.304751 -0.167133 -0.944647 0.282328 
-0.297766 -0.944468 0.138983 -0.23344 -0.952416 0.195981 0.498505 0.855371 -0.140832 
0.270503 0.947824 -0.168695 0.0810549 0.976491 -0.19974 -0.0206029 0.980377 -0.196054 
-0.0229603 0.97716 -0.21126 -0.0740329 0.967671 -0.241108 -0.199908 0.935255 -0.292122 
-0.337621 0.877278 -0.341168 0.615354 0.780541 -0.109977 0.721842 0.687842 -0.0762703 
-0.424353 0.804578 -0.415426 -0.359605 0.746225 -0.560207 -0.427896 0.800699 -0.419269 
-0.519264 0.716308 -0.466119 0.798393 0.600998 -0.0370172 0.859627 0.510648 0.0167178 
-0.560253 0.68331 -0.468192 -0.501961 0.633895 -0.588398 -0.592198 0.657728 -0.465505 
0.872399 0.487865 0.0301289 -0.659933 0.593693 -0.460452 -0.539866 0.569666 -0.619698 
-0.735443 0.51908 -0.435521 0.930413 0.354924 0.0914296 -0.778467 0.459037 -0.428105 
-0.710523 0.460363 -0.532186 0.973356 0.192778 0.124154 0.9887 0.0527422 0.140325 
-0.895548 0.23571 -0.377406 0.9892 0.025896 0.144266 0.988769 -0.0298818 0.146436 
0.996194 0.0321142 -0.0810361 -0.950487 0.00431351 -0.310736 0.973074 -0.17099 0.154559 
-0.933181 -0.239432 -0.268041 0.932717 -0.319674 0.166878 -0.805953 -0.537648 -0.247737 
-0.737987 -0.626116 -0.251702 -0.730116 -0.541539 -0.416732 0.851185 -0.512027 0.115378 
0.816097 -0.567991 0.10664 -0.432775 -0.851327 -0.296561 -0.621788 -0.736537 -0.266258 
-0.572803 -0.772246 -0.274832 -0.536406 -0.738143 -0.409162 0.704769 -0.709147 0.0202888 
0.633839 -0.772805 -0.0319479 0.404304 -0.901712 -0.153145 -0.360318 -0.888669 -0.283616 
-0.425454 -0.854149 -0.299027 -0.40068 -0.865492 -0.300631 -0.365268 -0.779962 -0.508172 
0.396778 -0.904429 -0.156767 0.260241 -0.942745 -0.208583 0.17857 -0.864046 -0.470677 
0.129529 -0.95673 -0.260557 0.0483149 -0.761321 -0.646572 0.0171016 -0.96649 -0.256134 
0.0286449 -0.701972 -0.711629 -0.0799459 -0.972136 -0.220364 -0.192117 -0.961587 -0.196064 
-0.137302 -0.777555 -0.613642 -0.328779 -0.911372 -0.2476 -0.292085 -0.931874 -0.21517 
-0.293557 -0.882421 -0.367636 0.43526 0.800215 -0.412558 0.224451 0.841386 -0.491622 
0.0618182 0.849246 -0.524366 -0.0266663 0.847836 -0.529587 -0.0564576 0.825885 -0.561005 
-0.114872 0.790345 -0.601797 -0.22015 0.750241 -0.623436 0.44675 0.79504 -0.410275 
0.647728 0.67984 -0.343898 0.432959 0.794539 -0.425739 0.178995 0.725043 -0.665036 
0.0355823 0.67593 -0.736107 -0.0414971 0.644693 -0.763314 -0.0778323 0.638453 -0.765716 
-0.125055 0.642281 -0.756198 -0.307851 0.720377 -0.621519 -0.215675 0.688718 -0.692208 
-0.355732 0.693171 -0.626872 -0.447596 0.57883 -0.681625 0.693968 0.644748 -0.320481 
0.817905 0.512683 -0.261128 0.613872 0.646739 -0.452648 -0.0742679 0.339087 -0.937819 
-0.121413 0.39348 -0.911281 -0.305 0.462634 -0.832433 -0.455379 0.560058 -0.692073 
-0.446586 0.54667 -0.708317 -0.45446 0.541775 -0.707068 0.818839 0.511405 -0.260705 
0.817063 0.511615 -0.265815 -0.335973 0.411332 -0.847307 -0.467408 0.530732 -0.707003 
-0.436572 0.514253 -0.738206 -0.508523 0.508899 -0.694569 0.893012 0.378214 -0.243892 
-0.330912 0.447647 -0.830728 -0.570202 0.469867 -0.673865 -0.489644 0.479045 -0.728536 
-0.6876 0.367561 -0.626183 0.950808 0.213558 -0.224402 -0.458231 0.371774 -0.807347 
-0.710266 0.34091 -0.615876 -0.684398 0.348917 -0.6402 0.974766 0.0350512 -0.220461 
-0.809955 0.0659663 -0.58277 -0.720414 0.0746214 -0.689518 0.960561 -0.172348 -0.218218 
-0.808929 -0.207676 -0.550004 -0.736981 -0.431005 -0.520667 -0.740122 -0.189772 -0.645141 
0.898529 -0.361544 -0.248861 0.659969 -0.328324 -0.675755 -0.252211 -0.193059 -0.948218 
0.138362 -0.223646 -0.9648 -0.678487 -0.531103 -0.507528 -0.51249 -0.685704 -0.516879 
-0.483261 -0.506265 -0.714251 0.793203 -0.539869 -0.281729 0.777701 -0.560226 -0.285181 
0.772175 -0.539873 -0.335087 -0.154384 -0.135636 -0.978656 0.0626237 -0.0781883 -0.99497 
0.110736 -0.263937 -0.958162 -0.00656818 -0.315244 -0.948988 -0.0807239 -0.44497 -0.8919 
-0.329384 -0.730429 -0.598314 -0.199569 -0.59268 -0.780322 -0.439976 -0.727002 -0.527152 
-0.369986 -0.743114 -0.557577 -0.32941 -0.70311 -0.630178 0.526663 -0.763366 -0.37403 
0.49994 -0.775768 -0.385025 0.489611 -0.762677 -0.422616 0.300222 -0.818853 -0.489231 
0.201457 -0.690463 -0.694749 0.134579 -0.80813 -0.573423 -0.0296828 -0.540837 -0.840604 
0.0299972 -0.722923 -0.690277 -0.0936634 -0.459988 -0.882971 0.0262904 -0.675742 -0.736669 
-0.0281282 -0.342232 -0.939194 0.00639745 -0.302527 -0.953119 -0.123615 -0.737525 -0.66391 
-0.0191922 -0.404706 -0.914245 -0.249642 -0.736531 -0.62865 -0.144995 -0.518355 -0.842784 
-0.327279 -0.719269 -0.612813 -0.316912 -0.710418 -0.628389 -0.291388 -0.662035 -0.690509 
-0.00332621 -0.700606 -0.71354 -0.0153483 -0.706029 -0.708016 -0.00696417 -0.702545 -0.711606 
-0.00681093 -0.701324 -0.71281 0.285846 0.581577 -0.761617 0.11574 0.558578 -0.821337 
-0.00625145 0.5151 -0.857107 -0.0885824 0.424849 -0.90092 -0.0941663 0.338135 -0.936375 
0.340808 0.57248 -0.745732 0.516207 0.506385 -0.690728 0.266353 0.540093 -0.798346 
0.0829966 0.465663 -0.881062 -0.0573696 0.363343 -0.929887 -0.111774 0.324373 -0.939302 
-0.0805353 0.324263 -0.942532 -0.0953149 0.297085 -0.950082 -0.0695057 0.326229 -0.942732 
-0.111173 0.342599 -0.932881 -0.223878 0.303652 -0.926107 0.576787 0.451166 -0.681004 
0.702146 0.328155 -0.631906 0.464275 0.410547 -0.784793 0.175389 0.311364 -0.933965 
-0.0259571 0.229938 -0.972859 -0.127375 0.168101 -0.977506 -0.124989 0.157299 -0.97961 
-0.0772595 0.207286 -0.975225 -0.0332367 0.238255 -0.970634 -0.0956367 0.247562 -0.96414 
-0.231406 0.30168 -0.9249 -0.212386 0.281335 -0.935811 -0.257143 0.376707 -0.889927 
0.702334 0.327647 -0.631961 0.701938 0.327478 -0.632488 0.340893 0.214975 -0.915193 
0.0751463 0.126659 -0.989096 -0.0877605 0.0542838 -0.994661 -0.141978 0.0440106 -0.988891 
-0.0720801 0.0674715 -0.995114 -0.0132701 0.0853679 -0.996261 -0.0371421 0.102765 -0.994012 
-0.081249 0.156682 -0.984302 -0.130838 0.245608 -0.960499 -0.269821 0.403302 -0.874382 
-0.20862 0.359019 -0.909716 -0.313838 0.415776 -0.853602 0.70123 0.166235 -0.693284 
0.597195 0.134921 -0.790667 0.248878 0.0518196 -0.967148 0.0376587 0.00895422 -0.999251 
-0.106154 -0.0180104 -0.994187 -0.120023 -0.0274525 -0.992391 -0.0881627 0.0171295 -0.995959 
-0.0467833 -0.0770392 -0.99593 0.042796 -0.0836693 -0.995574 0.0530494 0.0496701 -0.997356 
-0.0026004 0.192493 -0.981295 -0.107524 0.275728 -0.955203 -0.408622 0.369931 -0.834373 
-0.26497 0.348302 -0.899153 -0.463269 0.29041 -0.837284 0.713279 0.0164183 -0.700688 
0.551901 0.00413506 -0.833899 0.215063 0.0357669 -0.975945 0.012476 0.0174636 -0.99977 
-0.123823 -0.0106844 -0.992247 -0.108668 -0.0445095 -0.993081 -0.109485 -0.134921 -0.984789 
-0.125431 -0.0710428 -0.989555 0.0962062 0.0532456 -0.993936 0.190727 -0.027933 -0.981246 
0.103276 0.019872 -0.994454 -0.0516614 0.0935211 -0.994276 -0.242308 0.115604 -0.963287 
-0.543983 0.107521 -0.832179 -0.471962 0.112886 -0.874362 0.677674 -0.165363 -0.716529 
0.650615 -0.315533 -0.690753 0.572037 -0.141211 -0.807981 0.287076 -0.0845285 -0.954171 
-0.0159017 -0.0721416 -0.997268 -0.16726 -0.0631477 -0.983889 -0.250531 -0.120647 -0.960562 
-0.223944 -0.257698 -0.939915 -0.133297 -0.348064 -0.927946 0.184287 -0.28995 -0.939131 
0.203852 -0.310131 -0.928581 0.0528557 -0.0568666 -0.996982 0.0253538 -0.131183 -0.991034 
0.117696 -0.186161 -0.975444 -0.00896533 -0.164936 -0.986263 -0.232504 -0.171363 -0.95738 
-0.545815 -0.182493 -0.817791 -0.481068 -0.326363 -0.813671 -0.482498 -0.186421 -0.855829 
0.645572 -0.324901 -0.691141 0.278219 -0.28383 -0.917624 0.032816 -0.234908 -0.971464 
-0.157159 -0.20097 -0.966909 -0.287964 -0.206777 -0.935051 -0.36189 -0.218056 -0.906359 
0.204402 -0.289542 -0.935086 0.153635 -0.281209 -0.947269 0.222967 -0.314585 -0.922671 
0.00260051 -0.305736 -0.952113 0.0605074 -0.238269 -0.969312 -0.0480886 -0.414701 -0.908686 
0.0454661 -0.331869 -0.942229 -0.132914 -0.525856 -0.840124 -0.0470529 -0.430471 -0.901377 
-0.344252 -0.488972 -0.801497 -0.264406 -0.54072 -0.798569 -0.245779 -0.473777 -0.845652 
0.429202 -0.500561 -0.751814 0.367076 -0.537597 -0.759108 0.34999 -0.48863 -0.799217 
0.132361 -0.578067 -0.805183 0.0722106 -0.400914 -0.913265 -0.0771942 -0.470705 -0.878907 
-0.134418 -0.383754 -0.9136 -0.230186 -0.243591 -0.942167 -0.222213 -0.312266 -0.92364 
-0.252896 -0.281686 -0.925579 
