# vtk DataFile Version 4.2
vtk output
ASCII
DATASET POLYDATA
POINTS 546 float
-20.464 -36.7841 -11.7116 -13.5493 -36.7841 -13.7011 -6.63467 -36.7841 -14.1049 
0.279977 -36.7841 -13.6987 7.19463 -36.7841 -12.8069 14.1093 -36.7841 -11.1217 
-34.2933 -29.8695 -10.848 -27.3786 -29.8695 -13.9801 -20.464 -29.8695 -15.5218 
-13.5493 -29.8695 -15.726 -6.63467 -29.8695 -16.3018 0.279977 -29.8695 -16.0703 
7.19463 -29.8695 -15.2787 14.1093 -29.8695 -14.7491 21.0239 -29.8695 -14.4254 
27.9386 -29.8695 -13.2701 -41.2079 -22.9548 -11.7103 -34.2933 -22.9548 -14.4354 
-27.3786 -22.9548 -15.5172 -20.464 -22.9548 -16.3583 -13.5493 -22.9548 -16.2457 
-6.63467 -22.9548 -16.5561 0.279977 -22.9548 -15.9036 7.19463 -22.9548 -15.8564 
14.1093 -22.9548 -15.8734 21.0239 -22.9548 -16.2667 27.9386 -22.9548 -15.4894 
34.8532 -22.9548 -14.2326 -41.2079 -16.0402 -14.6063 -34.2933 -16.0402 -16.6663 
-27.3786 -16.0402 -16.5164 -20.464 -16.0402 -15.9999 -13.5493 -16.0402 -15.5019 
-6.63467 -16.0402 -15.2637 0.279977 -16.0402 -15.2845 7.19463 -16.0402 -15.2143 
14.1093 -16.0402 -15.9307 21.0239 -16.0402 -16.2584 27.9386 -16.0402 -16.3714 
34.8532 -16.0402 -15.2595 41.7679 -16.0402 -13.104 -48.1226 -9.12552 -12.3869 
-41.2079 -9.12552 -15.4157 -34.2933 -9.12552 -16.4151 -27.3786 -9.12552 -16.471 
-20.464 -9.12552 -15.4919 -13.5493 -9.12552 -14.6245 -6.63467 -9.12552 -15.4837 
0.279977 -9.12552 -16.0349 7.19463 -9.12552 -15.6669 14.1093 -9.12552 -15.2204 
21.0239 -9.12552 -15.6753 27.9386 -9.12552 -15.9888 34.8532 -9.12552 -15.5073 
41.7679 -9.12552 -14.0137 -48.1226 -2.21087 -12.7355 -41.2079 -2.21087 -15.4423 
-34.2933 -2.21087 -16.379 -27.3786 -2.21087 -16.2587 -20.464 -2.21087 -15.3321 
-13.5493 -2.21087 -14.6006 -6.63467 -2.21087 -17.579 0.279977 -2.21087 -13.8556 
7.19463 -2.21087 -17.0808 14.1093 -2.21087 -14.6834 21.0239 -2.21087 -14.4425 
27.9386 -2.21087 -15.4412 34.8532 -2.21087 -15.1174 41.7679 -2.21087 -13.8168 
48.6825 -2.21087 -10.9287 -48.1226 4.70378 -11.1367 -41.2079 4.70378 -14.341 
-34.2933 4.70378 -15.6572 -27.3786 4.70378 -15.7205 -20.464 4.70378 -14.8514 
-13.5493 4.70378 -14.7737 -6.63467 4.70378 -17.1992 0.279977 4.70378 -14.8438 
7.19463 4.70378 -17.5039 14.1093 4.70378 -15.4716 21.0239 4.70378 -14.7432 
27.9386 4.70378 -15.2824 34.8532 4.70378 -15.5183 41.7679 4.70378 -14.2083 
48.6825 4.70378 -10.8142 -41.2079 11.6184 -13.0599 -34.2933 11.6184 -15.0754 
-27.3786 11.6184 -15.3835 -20.464 11.6184 -15.2568 -13.5493 11.6184 -15.2373 
-6.63467 11.6184 -15.8741 0.279977 11.6184 -15.6526 7.19463 11.6184 -15.6822 
14.1093 11.6184 -15.2438 21.0239 11.6184 -15.1118 27.9386 11.6184 -15.0848 
34.8532 11.6184 -14.7737 41.7679 11.6184 -12.9581 -34.2933 18.5331 -13.1872 
-27.3786 18.5331 -14.4379 -20.464 18.5331 -15.199 -13.5493 18.5331 -15.3176 
-6.63467 18.5331 -14.8367 0.279977 18.5331 -14.667 7.19463 18.5331 -14.8765 
14.1093 18.5331 -15.0997 21.0239 18.5331 -15.2039 27.9386 18.5331 -14.5406 
34.8532 18.5331 -13.1964 41.7679 18.5331 -10.8207 -34.2933 25.4477 -11.1054 
-27.3786 25.4477 -13.058 -20.464 25.4477 -14.3096 -13.5493 25.4477 -14.5119 
-6.63467 25.4477 -14.3717 0.279977 25.4477 -14.2595 7.19463 25.4477 -14.5486 
14.1093 25.4477 -14.3846 21.0239 25.4477 -13.9731 27.9386 25.4477 -12.7805 
34.8532 25.4477 -10.8673 -20.464 32.3624 -12.0223 -13.5493 32.3624 -12.4702 
-6.63467 32.3624 -12.9355 0.279977 32.3624 -13.1296 7.19463 32.3624 -12.9696 
14.1093 32.3624 -12.3363 21.0239 32.3624 -11.6254 -20.464 -37.887 -10.7311 
-13.5493 -40.1484 -10.7311 -6.63467 -40.7272 -10.7311 -6.63467 -43.6988 -4.0444 
0.279977 -40.1666 -10.7311 7.19463 -39.0744 -10.7311 14.1093 -37.2189 -10.7311 
-34.2933 -30.0064 -10.7311 -22.6768 -36.7841 -10.7311 -27.3786 -34.3389 -10.7311 
-27.3786 -36.7841 -6.33619 15.8099 -36.7841 -10.7311 21.0239 -35.1021 -10.7311 
21.0239 -36.7841 -8.62461 27.9386 -33.3496 -10.7311 27.9386 -36.7841 -3.83843 
-34.5037 -29.8695 -10.7311 -41.2079 -24.4566 -10.7311 34.5882 -29.8695 -10.7311 
34.8532 -29.6933 -10.7311 34.8532 -29.8695 -10.5484 -42.6136 -22.9548 -10.7311 
41.3902 -22.9548 -10.7311 41.7679 -22.3942 -10.7311 41.7679 -22.9548 -10.4244 
-47.352 -16.0402 -10.7311 -48.1226 -14.0239 -10.7311 -48.1226 -16.0402 -9.87649 
48.2267 -16.0402 -10.7311 48.6825 -16.0402 -10.3852 -49.9922 -9.12552 -10.7311 
48.0174 -9.12552 -10.7311 48.6825 -4.33845 -10.7311 48.6825 -9.12552 -10.2337 
-50.5396 -2.21087 -10.7311 -55.0372 -2.21087 -4.70923 48.9779 -2.21087 -10.7311 
55.5972 -2.21087 -4.22687 -48.6343 4.70378 -10.7311 -48.1226 8.76176 -10.7311 
48.808 4.70378 -10.7311 48.6825 6.71278 -10.7311 55.5972 4.70378 -4.21489 
-47.5206 11.6184 -10.7311 -48.1226 11.6184 -10.3296 -41.2079 18.3495 -10.7311 
48.1997 11.6184 -10.7311 48.6825 11.6184 -10.4349 -48.1226 18.5331 -5.12403 
-41.0194 18.5331 -10.7311 -41.2079 18.5331 -10.6474 41.9514 18.5331 -10.7311 
41.7679 18.7686 -10.7311 48.6825 18.5331 -5.75665 -35.0333 25.4477 -10.7311 
-41.2079 25.4477 -6.83623 -34.2933 26.0845 -10.7311 -27.3786 30.4247 -10.7311 
27.9386 29.7722 -10.7311 35.1857 25.4477 -10.7311 34.8532 25.6984 -10.7311 
41.7679 25.4477 -7.01608 -34.2933 32.3624 -5.74008 -24.6069 32.3624 -10.7311 
-27.3786 32.3624 -9.52227 -20.464 34.5567 -10.7311 -13.5493 35.2445 -10.7311 
-6.63467 36.173 -10.7311 0.279977 36.4603 -10.7311 7.19463 36.0288 -10.7311 
14.1093 34.833 -10.7311 24.013 32.3624 -10.7311 21.0239 33.9052 -10.7311 
27.9386 32.3624 -9.13597 34.8532 32.3624 -5.40003 -20.464 39.277 -5.53655 
-13.5493 39.277 -7.37808 -6.63467 39.277 -8.3986 0.279977 39.277 -8.44148 
7.19463 39.277 -7.86827 14.1093 39.277 -6.69619 21.0239 39.277 -4.8874 
-6.63467 -43.7696 -3.81649 -27.3786 -37.9119 -3.81649 -20.464 -40.6879 -3.81649 
-7.11915 -43.6988 -3.81649 -13.5493 -42.7442 -3.81649 -4.07966 -43.6988 -3.81649 
-6.63467 -43.6988 -3.29778 0.279977 -43.5775 -3.81649 7.19463 -42.3272 -3.81649 
14.1093 -40.7661 -3.81649 21.0239 -39.1911 -3.81649 27.9386 -36.7918 -3.81649 
-29.4296 -36.7841 -3.81649 -34.2933 -34.082 -3.81649 -27.3786 -36.7841 1.3203 
27.9576 -36.7841 -3.81649 27.9386 -36.7841 -3.73892 34.8532 -33.7665 -3.81649 
-40.4652 -29.8695 -3.81649 -41.2079 -29.2907 -3.81649 40.5387 -29.8695 -3.81649 
41.7679 -28.8786 -3.81649 -47.7912 -22.9548 -3.81649 -48.1226 -22.5119 -3.81649 
47.34 -22.9548 -3.81649 48.6825 -21.1938 -3.81649 -52.0479 -16.0402 -3.81649 
52.1126 -16.0402 -3.81649 -54.4049 -9.12552 -3.81649 -55.0372 -5.01724 -3.81649 
54.3563 -9.12552 -3.81649 55.5972 -3.47046 -3.81649 -55.4479 -2.21087 -3.81649 
-55.0372 0.180554 -3.81649 -55.0372 -2.21087 0.107594 55.8395 -2.21087 -3.81649 
-54.1284 4.70378 -3.81649 55.8357 4.70378 -3.81649 55.5972 5.48564 -3.81649 
-52.5138 11.6184 -3.81649 53.3678 11.6184 -3.81649 -48.945 18.5331 -3.81649 
-48.1226 19.7254 -3.81649 49.9906 18.5331 -3.81649 48.6825 20.3223 -3.81649 
-43.5559 25.4477 -3.81649 -41.2079 27.8996 -3.81649 44.35 25.4477 -3.81649 
41.7679 27.9267 -3.81649 -35.9802 32.3624 -3.81649 -34.2933 33.6136 -3.81649 
-27.3786 37.3232 -3.81649 27.9386 36.8959 -3.81649 36.2748 32.3624 -3.81649 
34.8532 33.3501 -3.81649 -22.982 39.277 -3.81649 -20.464 40.2148 -3.81649 
-13.5493 41.7534 -3.81649 -6.63467 42.5919 -3.81649 0.279977 42.4765 -3.81649 
7.19463 41.8833 -3.81649 14.1093 41.1463 -3.81649 22.5254 39.277 -3.81649 
21.0239 39.8164 -3.81649 -20.464 -39.2851 3.09816 -13.5493 -41.3674 3.09816 
-6.63467 -42.6873 3.09816 0.279977 -42.4482 3.09816 7.19463 -41.2695 3.09816 
14.1093 -39.9103 3.09816 21.0239 -38.355 3.09816 -34.2933 -32.8559 3.09816 
-26.464 -36.7841 3.09816 -27.3786 -36.3284 3.09816 -20.464 -36.7841 6.7041 
-13.5493 -36.7841 9.51844 7.19463 -36.7841 9.21585 14.1093 -36.7841 7.71826 
25.8202 -36.7841 3.09816 21.0239 -36.7841 5.64468 27.9386 -36.0179 3.09816 
34.8532 -32.7583 3.09816 -38.4838 -29.8695 3.09816 -41.2079 -27.8009 3.09816 
-34.2933 -29.8695 6.83746 -27.3786 -29.8695 9.99789 39.1093 -29.8695 3.09816 
34.8532 -29.8695 7.02977 41.7679 -27.702 3.09816 -46.1685 -22.9548 3.09816 
-48.1226 -20.4699 3.09816 -41.2079 -22.9548 8.63751 46.4024 -22.9548 3.09816 
41.7679 -22.9548 8.64088 48.6825 -19.9267 3.09816 -50.973 -16.0402 3.09816 
-48.1226 -16.0402 7.05545 51.3033 -16.0402 3.09816 48.6825 -16.0402 6.77718 
-53.658 -9.12552 3.09816 -48.1226 -9.12552 9.69325 54.1545 -9.12552 3.09816 
55.5972 -3.75576 3.09816 -54.6766 -2.21087 3.09816 55.9423 -2.21087 3.09816 
55.5972 -2.21087 3.7093 -54.109 4.70378 3.09816 56.0425 4.70378 3.09816 
55.5972 6.16093 3.09816 55.5972 4.70378 3.89618 -52.5266 11.6184 3.09816 
53.8113 11.6184 3.09816 -49.4601 18.5331 3.09816 -48.1226 20.5446 3.09816 
-48.1226 18.5331 5.74041 50.0936 18.5331 3.09816 48.6825 20.4703 3.09816 
48.6825 18.5331 5.24981 -44.3435 25.4477 3.09816 -41.2079 28.6813 3.09816 
-41.2079 25.4477 8.84141 44.4966 25.4477 3.09816 41.7679 28.0846 3.09816 
41.7679 25.4477 6.88239 -36.8163 32.3624 3.09816 -34.2933 34.2078 3.09816 
-34.2933 32.3624 6.96891 -27.3786 38.0808 3.09816 27.9386 37.3414 3.09816 
36.632 32.3624 3.09816 34.8532 33.6325 3.09816 34.8532 32.3624 5.53364 
-24.4522 39.277 3.09816 -20.464 40.7831 3.09816 -20.464 39.277 6.32901 
-13.5493 42.5111 3.09816 -13.5493 39.277 9.7088 -6.63467 43.3423 3.09816 
0.279977 43.1077 3.09816 0.279977 39.277 9.8864 7.19463 42.2377 3.09816 
7.19463 39.277 8.2649 14.1093 41.3276 3.09816 14.1093 39.277 6.76654 
23.332 39.277 3.09816 21.0239 40.0928 3.09816 21.0239 39.277 5.01192 
-6.63467 -37.3128 10.0128 0.279977 -37.2329 10.0128 -20.464 -33.0191 10.0128 
-10.3313 -36.7841 10.0128 -13.5493 -36.1443 10.0128 -6.63467 -36.7841 10.4354 
2.85084 -36.7841 10.0128 0.279977 -36.7841 10.3732 7.19463 -35.7882 10.0128 
14.1093 -34.1644 10.0128 21.0239 -33.1051 10.0128 27.9386 -30.6541 10.0128 
-34.2933 -25.9896 10.0128 -27.3368 -29.8695 10.0128 -27.3786 -29.845 10.0128 
-20.464 -29.8695 11.9454 -13.5493 -29.8695 13.2592 -6.63467 -29.8695 14.0008 
0.279977 -29.8695 13.602 7.19463 -29.8695 13.1731 14.1093 -29.8695 12.7976 
21.0239 -29.8695 12.4054 29.3579 -29.8695 10.0128 27.9386 -29.8695 10.5867 
[...]
POINT_DATA 546
SCALARS ImageScalars float
LOOKUP_TABLE default
0 0 0 0 0 0 0 0 0 
0 0 0 0 0 0 0 0 0 
0 0 0 0 0 0 0 0 0 
0 0 0 0 0 0 0 0 0 
0 0 0 0 0 0 0 0 0 
0 0 0 0 0 0 0 0 0 
0 0 0 0 0 0 0 0 0 
0 0 0 0 0 0 0 0 0 
0 0 0 0 0 0 0 0 0 
0 0 0 0 0 0 0 0 0 
0 0 0 0 0 0 0 0 0 
0 0 0 0 0 0 0 0 0 
0 0 0 0 0 0 0 0 0 
0 0 0 0 0 0 0 0 0 
0 0 0 0 0 0 0 0 0 
0 0 0 0 0 0 0 0 0 
0 0 0 0 0 0 0 0 0 
0 0 0 0 0 0 0 0 0 
0 0 0 0 0 0 0 0 0 
0 0 0 0 0 0 0 0 0 
0 0 0 0 0 0 0 0 0 
0 0 0 0 0 0 0 0 0 
0 0 0 0 0 0 0 0 0 
0 0 0 0 0 0 0 0 0 
0 0 0 0 0 0 0 0 0 
0 0 0 0 0 0 0 0 0 
0 0 0 0 0 0 0 0 0 
0 0 0 0 0 0 0 0 0 
0 0 0 0 0 0 0 0 0 
0 0 0 0 0 0 0 0 0 
0 0 0 0 0 0 0 0 0 
0 0 0 0 0 0 0 0 0 
0 0 0 0 0 0 0 0 0 
0 0 0 0 0 0 0 0 0 
0 0 0 0 0 0 0 0 0 
0 0 0 0 0 0 0 0 0 
0 0 0 0 0 0 0 0 0 
0 0 0 0 0 0 0 0 0 
0 0 0 0 0 0 0 0 0 
0 0 0 0 0 0 0 0 0 
0 0 0 0 0 0 0 0 0 
0 0 0 0 0 0 0 0 0 
0 0 0 0 0 0 0 0 0 
0 0 0 0 0 0 0 0 0 
0 0 0 0 0 0 0 0 0 
0 0 0 0 0 0 0 0 0 
0 0 0 0 0 0 0 0 0 
0 0 0 0 0 0 0 0 0 
0 0 0 0 0 0 0 0 0 
0 0 0 0 0 0 0 0 0 
0 0 0 0 0 0 0 0 0 
0 0 0 0 0 0 0 0 0 
0 0 0 0 0 0 0 0 0 
0 0 0 0 0 0 0 0 0 
0 0 0 0 0 0 0 0 0 
0 0 0 0 0 0 0 0 0 
0 0 0 0 0 0 0 0 0 
0 0 0 0 0 0 0 0 0 
0 0 0 0 0 0 0 0 0 
0 0 0 0 0 0 0 0 0 
0 0 0 0 0 0 
NORMALS Normals float
0.322776 0.635226 0.701644 0.156886 0.518317 0.840675 0.00295636 0.474777 0.880101 
-0.0863185 0.500748 0.861278 -0.166643 0.566605 0.806962 -0.211176 0.667661 0.713886 
0.456104 0.584352 0.671195 0.258828 0.403777 0.877481 0.123484 0.289361 0.949222 
0.0534428 0.175202 0.983081 0.0250054 0.15381 0.987784 -0.072978 0.133159 0.988404 
-0.0959359 0.204672 0.974118 -0.055769 0.299148 0.952576 -0.102833 0.415522 0.903751 
-0.215768 0.477426 0.851768 0.463507 0.485111 0.741504 0.230845 0.33124 0.914872 
0.125736 0.173859 0.976711 0.0584161 0.0266242 0.997937 0.0144696 -0.0176509 0.99974 
-0.0248281 -0.0762931 0.996776 -0.051768 -0.0576721 0.996992 -0.00220046 -0.00709663 0.999972 
0.0286688 0.0869515 0.9958 -0.0316769 0.114255 0.992946 -0.140501 0.201078 0.969447 
-0.305389 0.255819 0.917221 0.362115 0.197472 0.910976 0.13974 0.125392 0.982217 
-0.0475933 0.0744197 0.996091 -0.0724708 -0.0614515 0.995476 -0.0528753 -0.11647 0.991786 
-0.0159421 -0.0799915 0.996668 -0.00357601 0.00560168 0.999978 0.0473055 -0.0156894 0.998757 
0.0752508 -0.0470467 0.996054 0.0316218 -0.042614 0.998591 -0.0684365 0.0421043 0.996767 
-0.238712 0.0954924 0.966384 -0.324313 0.218548 0.920357 0.569904 0.150386 0.807833 
0.244629 0.0652807 0.967417 0.0704092 -0.0191415 0.997335 -0.0665109 -0.0185375 0.997613 
-0.135977 -0.0491608 0.989492 -0.00651476 -0.0660084 0.997798 0.106561 0.158598 0.981576 
0.0115166 -0.0682239 0.997604 -0.0593257 0.12921 0.989841 0.00252948 -0.0881446 0.996104 
0.0541135 -0.131275 0.989868 -0.0113311 -0.068798 0.997566 -0.145877 -0.0134288 0.989212 
-0.315193 0.0492524 0.947749 0.535547 -0.076524 0.841031 0.219026 -0.0751512 0.972821 
0.0541074 -0.0545395 0.997045 -0.0752529 -0.0540479 0.995699 -0.118631 -0.0460482 0.99187 
0.140795 0.0109003 0.989979 0.00960676 0.119138 0.992831 -0.0311822 -0.110635 0.993372 
0.0146452 0.130646 0.991321 -0.186226 0.0132915 0.982417 0.0566991 -0.0696148 0.995961 
0.0469584 -0.0484625 0.997721 -0.11045 0.000589843 0.993882 -0.271957 0.0154597 0.962185 
-0.497306 0.032758 0.866956 0.574253 -0.14165 0.80633 0.277182 -0.167913 0.946031 
0.0929917 -0.0906391 0.991533 -0.0581947 -0.0630647 0.996311 -0.0680137 -0.00533588 0.99767 
0.16872 0.0492704 0.984432 0.039018 -0.122027 0.991759 0.0073676 0.127861 0.991765 
0.0192319 -0.11303 0.993405 -0.192877 0.0403544 0.980393 -0.00850248 0.0494498 0.99874 
0.0535453 -0.0256573 0.998236 -0.0845931 -0.0192279 0.99623 -0.284767 -0.0615688 0.956617 
-0.539861 -0.025037 0.841382 0.315684 -0.223062 0.922273 0.167353 -0.167243 0.971608 
0.0114372 -0.0916483 0.995726 -0.0105916 0.0249705 0.999632 0.0434693 0.0378157 0.998339 
0.0328844 -0.168479 0.985157 -0.0141246 -0.0264836 0.999549 -0.0302904 -0.176587 0.983819 
-0.0408049 -0.0251077 0.998852 -0.0115061 0.0320298 0.999421 -0.0231887 -0.0564042 0.998139 
-0.160427 -0.164533 0.973238 -0.291263 -0.219831 0.931043 0.235641 -0.245453 0.940333 
0.138081 -0.156512 0.977976 0.0613178 -0.0691426 0.995721 -0.0251226 -0.0501861 0.998424 
-0.0471794 -0.109434 0.992874 0.00310909 -0.0967453 0.995304 0.0311433 -0.0819225 0.996152 
0.0234606 -0.0602778 0.997906 -0.0444735 -0.0859417 0.995307 -0.133995 -0.149886 0.979581 
-0.242902 -0.235946 0.940919 -0.389151 -0.336095 0.857672 0.357398 -0.401705 0.843148 
0.206328 -0.290167 0.934469 0.0950842 -0.221779 0.97045 0.0047233 -0.19195 0.981393 
-0.0175548 -0.121877 0.99239 0.0130874 -0.100686 0.994832 0.00923567 -0.122233 0.992458 
-0.0434266 -0.184133 0.981941 -0.10511 -0.243624 0.964157 -0.197543 -0.333561 0.921799 
-0.314277 -0.407104 0.857611 0.158692 -0.445962 0.880872 0.062686 -0.40191 0.913531 
0.042772 -0.363581 0.93058 0.00217482 -0.340353 0.940295 -0.0514843 -0.368741 0.928105 
-0.093277 -0.426298 0.899761 -0.17724 -0.449528 0.875506 0.340136 0.69314 0.635503 
0.165094 0.768007 0.618797 0.00541734 0.769015 0.639208 0.0574591 0.99354 0.0978604 
-0.101969 0.740687 0.664067 -0.169943 0.717745 0.675249 -0.213203 0.691069 0.690629 
0.459163 0.59068 0.663526 0.353447 0.692523 0.628878 0.346923 0.684747 0.64091 
0.423471 0.867818 0.259931 -0.211336 0.688726 0.693537 -0.187917 0.670822 0.717415 
-0.235132 0.816482 0.527323 -0.271803 0.690455 0.670369 -0.349058 0.929593 0.118388 
0.461687 0.589064 0.663211 0.494441 0.544735 0.677342 -0.416449 0.639182 0.646542 
-0.42268 0.634445 0.647164 -0.42754 0.64904 0.629251 0.516943 0.509746 0.687698 
-0.538119 0.404101 0.739682 -0.530883 0.399316 0.747469 -0.557884 0.421335 0.715012 
0.65239 0.292452 0.699185 0.660414 0.257853 0.705241 0.712206 0.319771 0.624907 
-0.630109 0.257223 0.732666 -0.664002 0.266854 0.698491 0.663116 0.16234 0.730701 
-0.566912 0.0271814 0.82333 -0.529026 0.0304957 0.848058 -0.611313 0.0387731 0.790439 
0.652374 -0.0639664 0.755193 0.968136 -0.0180596 0.249773 -0.514368 0.0336775 0.856908 
-0.939779 0.0953153 0.328225 0.595223 -0.14017 0.791241 0.580338 -0.209525 0.78696 
-0.546298 -0.0259562 0.837188 -0.551313 -0.0748827 0.830931 -0.929944 -0.153248 0.334245 
0.558179 -0.258874 0.788303 0.596043 -0.265746 0.757701 0.422761 -0.363527 0.830133 
-0.549376 -0.206604 0.80963 -0.580113 -0.210237 0.786937 0.755727 -0.518896 0.39953 
0.421319 -0.363917 0.830695 0.428716 -0.368265 0.824975 -0.394519 -0.340511 0.853468 
-0.393153 -0.342565 0.853276 -0.733853 -0.523659 0.432714 0.379328 -0.413721 0.827614 
0.617594 -0.571675 0.540153 0.366929 -0.425207 0.827383 0.298767 -0.489183 0.819413 
-0.265044 -0.479992 0.836277 -0.324475 -0.413513 0.850719 -0.31898 -0.416929 0.85113 
-0.596629 -0.604704 0.527604 0.514596 -0.733357 0.444273 0.257239 -0.518117 0.81571 
0.339648 -0.598647 0.725439 0.183293 -0.548756 0.815641 0.0656395 -0.536053 0.841628 
0.0481867 -0.521194 0.852077 -0.00652586 -0.5397 0.841832 -0.0698552 -0.569863 0.818765 
-0.0882725 -0.546085 0.833066 -0.227516 -0.498713 0.836374 -0.18764 -0.522126 0.831971 
-0.32072 -0.614999 0.720357 -0.50771 -0.765045 0.396151 0.26921 -0.87281 0.407098 
0.128588 -0.800503 0.585371 0.0523584 -0.720959 0.690997 -0.0247851 -0.746033 0.665448 
-0.0870827 -0.809866 0.580115 -0.12836 -0.851154 0.508979 -0.267173 -0.899019 0.346964 
0.0581695 0.994664 0.085206 0.434319 0.896221 0.0902988 0.327024 0.943183 0.0588386 
0.0686546 0.994116 0.0837792 0.215442 0.974437 0.0637018 -0.000550746 0.995787 0.0916966 
0.0594342 0.996641 0.0563342 -0.102329 0.989392 0.103115 -0.200463 0.972349 0.119803 
-0.223897 0.965009 0.136483 -0.274937 0.94992 0.148529 -0.349102 0.929736 0.11713 
0.459091 0.88403 0.087899 0.519831 0.848571 0.0985055 0.420309 0.867337 -0.266584 
-0.349366 0.929636 0.117134 -0.349503 0.930098 0.112983 -0.480874 0.865269 0.141669 
0.613498 0.785635 0.0799871 0.626636 0.775026 0.0816259 -0.624963 0.768975 0.134531 
-0.655886 0.741068 0.143639 0.768671 0.631468 0.101948 0.779588 0.61751 0.104519 
-0.772699 0.609468 0.177439 -0.804265 0.571528 0.162829 0.898881 0.408821 0.157731 
-0.882132 0.426493 0.199866 0.960493 0.22541 0.16323 0.981106 0.0870067 0.172803 
-0.92747 0.257521 0.271075 -0.946102 0.127687 0.297636 0.983054 -0.012703 0.182873 
0.976285 -0.0738458 0.203505 0.993843 0.00940377 -0.1104 -0.947042 0.0969881 0.306111 
0.946701 -0.193458 0.257549 -0.937301 -0.152336 0.313465 -0.933015 -0.176372 0.31365 
0.891618 -0.356597 0.279025 -0.871359 -0.369849 0.322405 0.794341 -0.520001 0.314041 
0.78079 -0.539651 0.314869 -0.798003 -0.52879 0.289089 -0.77192 -0.566649 0.288183 
0.707395 -0.624507 0.331034 0.660687 -0.676224 0.325904 -0.691082 -0.662955 0.287916 
-0.649842 -0.7042 0.286022 0.56307 -0.765133 0.312286 0.532968 -0.786998 0.310771 
0.432015 -0.836461 0.337189 -0.407621 -0.859037 0.309679 -0.549374 -0.786249 0.282843 
-0.522768 -0.803486 0.284824 0.340116 -0.890954 0.30087 0.280606 -0.912519 0.297606 
0.169195 -0.918612 0.357108 0.0509993 -0.933316 0.355416 -0.0515496 -0.939239 0.339371 
-0.0951226 -0.947435 0.305482 -0.154044 -0.93825 0.30977 -0.304756 -0.912246 0.273734 
-0.274201 -0.922589 0.271374 0.319513 0.864573 -0.387847 0.224043 0.89994 -0.374048 
0.0712807 0.932096 -0.355129 -0.0943175 0.930827 -0.35308 -0.173817 0.919352 -0.352958 
-0.197677 0.918164 -0.343364 -0.262494 0.906675 -0.330208 0.482471 0.791057 -0.376099 
0.390325 0.832238 -0.393734 0.398935 0.82556 -0.399125 0.310278 0.753929 -0.579067 
0.182492 0.641629 -0.744989 -0.135422 0.661797 -0.737351 -0.166457 0.762171 -0.62561 
-0.329681 0.89533 -0.299491 -0.234242 0.849937 -0.47195 -0.357523 0.885672 -0.296248 
-0.469539 0.811958 -0.346781 0.548746 0.754617 -0.359766 0.593232 0.725746 -0.348381 
0.419379 0.676156 -0.605751 0.278152 0.535266 -0.797572 -0.580792 0.736889 -0.345942 
-0.45367 0.678815 -0.577403 -0.638553 0.689023 -0.342779 0.691508 0.619383 -0.371728 
0.747555 0.552598 -0.368506 0.506386 0.499914 -0.702609 -0.723272 0.603429 -0.335784 
-0.539476 0.48651 -0.687221 -0.76727 0.544103 -0.339482 0.832598 0.419687 -0.361447 
0.692888 0.395538 -0.602873 -0.81916 0.459618 -0.343115 -0.682373 0.454278 -0.572712 
0.905252 0.242918 -0.348582 0.625619 0.184632 -0.757966 -0.907073 0.299787 -0.295543 
-0.94565 0.16034 -0.282909 0.942477 0.0270504 -0.333174 -0.954101 0.120857 -0.274017 
-0.941594 0.122869 -0.313534 0.952112 -0.145976 -0.26865 -0.955025 -0.146123 -0.258024 
-0.945728 -0.19236 -0.261908 -0.939259 -0.147904 -0.309704 0.924203 -0.310742 -0.222011 
-0.89879 -0.364479 -0.243583 0.848833 -0.494467 -0.187043 0.823102 -0.539175 -0.178307 
0.792417 -0.49001 -0.363271 -0.788792 -0.559578 -0.254323 -0.762802 -0.594385 -0.254637 
-0.725922 -0.553427 -0.408357 0.744693 -0.649512 -0.153515 0.675242 -0.721282 -0.154273 
0.599135 -0.567273 -0.565012 -0.701431 -0.66962 -0.244139 -0.662106 -0.710438 -0.238525 
-0.6119 -0.603354 -0.511412 0.593595 -0.789262 -0.157195 0.550914 -0.81944 -0.158155 
0.519304 -0.742264 -0.423519 0.428525 -0.888947 -0.161678 -0.413857 -0.887369 -0.203219 
-0.581196 -0.786166 -0.210127 -0.548306 -0.811059 -0.203824 -0.53809 -0.756748 -0.371204 
0.376493 -0.911863 -0.16358 0.303796 -0.937601 -0.169151 0.291029 -0.885595 -0.361972 
0.18265 -0.971693 -0.149839 0.157899 -0.762715 -0.627163 0.0415545 -0.989108 -0.141206 
-0.0815904 -0.980112 -0.180899 -0.105192 -0.71662 -0.689486 -0.129186 -0.967329 -0.218143 
-0.132171 -0.791242 -0.597048 -0.160515 -0.958336 -0.236277 -0.126307 -0.870223 -0.476193 
-0.312478 -0.930659 -0.190346 -0.261764 -0.946714 -0.187649 -0.25195 -0.913429 -0.319639 
0.047823 0.62965 -0.775406 -0.0673731 0.606749 -0.792033 0.25522 0.550559 -0.794825 
0.117489 0.621226 -0.774774 0.177937 0.60423 -0.776688 0.0461436 0.607947 -0.792636 
-0.0908434 0.606873 -0.78959 -0.0662064 0.586285 -0.807395 -0.123368 0.593552 -0.795284 
-0.118711 0.608115 -0.784923 -0.156536 0.633678 -0.757594 -0.303059 0.568902 -0.76453 
0.317091 0.496965 -0.807762 0.277593 0.534306 -0.798411 0.277611 0.534177 -0.79849 
0.212355 0.425943 -0.879476 0.138791 0.358465 -0.923168 0.0231338 0.307053 -0.951411 
-0.0600166 0.296761 -0.953064 -0.0525317 0.323925 -0.944623 -0.054385 0.425076 -0.903522 
-0.138166 0.486059 -0.862935 -0.325167 0.554565 -0.765979 -0.295889 0.535949 -0.790701 
-0.365852 0.492444 -0.789716 0.408898 0.443056 -0.797812 0.452912 0.413459 -0.789887 
0.280684 0.396902 -0.873891 0.182972 0.320803 -0.929304 0.120241 0.213536 -0.969507 
0.0654602 0.123094 -0.990234 -0.00880178 0.0874861 -0.996127 -0.0523627 0.0865859 -0.994867 
0.00209384 0.12356 -0.992335 0.0245231 0.175966 -0.984091 -0.0662867 0.222401 -0.972699 
-0.203093 0.296201 -0.933284 -0.445221 0.431648 -0.784512 -0.318611 0.373233 -0.871312 
-0.469597 0.393072 -0.790552 0.502001 0.339164 -0.79559 0.395845 0.312063 -0.863669 
0.188585 0.249605 -0.949807 0.0806082 0.183341 -0.979739 0.0174766 0.0795401 -0.996678 
0.00624384 -0.0301482 -0.999526 -0.0172957 0.0127272 -0.999769 -0.0224349 0.0774251 -0.996746 
0.051534 0.0538908 -0.997216 0.0537599 0.0194431 -0.998365 -0.0206661 0.0532416 -0.998368 
-0.126785 0.133269 -0.982937 -0.240088 0.228334 -0.943515 -0.482476 0.359054 -0.798935 
-0.40411 0.29985 -0.864167 -0.58831 0.261298 -0.765254 0.603184 0.180922 -0.776811 
0.610697 0.144591 -0.778551 0.340775 0.139007 -0.929812 0.17006 0.117283 -0.978429 
0.0280348 0.0860406 -0.995897 -0.104118 0.024331 -0.994267 -0.000311076 -0.0383323 -0.999265 
0.104435 0.0531482 -0.993111 -0.0132409 -0.0258531 -0.999578 -0.0599149 0.0600777 -0.996394 
0.0267374 -0.0479409 -0.998492 0.0518945 -0.0186921 -0.998478 -0.0309679 0.0349378 -0.99891 
-0.182964 0.113007 -0.976603 -0.314936 0.161259 -0.935313 -0.608099 0.21694 -0.763644 
-0.571713 0.209154 -0.793347 0.617606 0.0478357 -0.785032 0.579276 0.0501846 -0.813585 
0.313707 0.0567127 -0.947825 0.126128 0.066176 -0.989804 -0.0182921 0.0304354 -0.999369 
-0.106843 0.0444155 -0.993283 0.0324009 0.0674982 -0.997193 -0.00520133 0.0700437 -0.99753 
-0.0142188 -0.0968874 -0.995194 0.0313701 0.140253 -0.989619 -0.0250393 0.105377 -0.994117 
0.0623321 0.0315009 -0.997558 0.00632683 0.0133095 -0.999891 -0.11525 0.0272415 -0.992963 
-0.284114 0.0906572 -0.954495 -0.597809 0.056161 -0.799668 -0.525485 0.048941 -0.849394 
0.644436 -0.00013642 -0.764658 0.621435 0.00544184 -0.783447 0.331902 -0.00799554 -0.94328 
0.140699 0.0148505 -0.989941 0.00316814 0.0422507 -0.999102 -0.0654104 0.0833764 -0.994369 
0.0246095 0.14076 -0.989738 -0.0484363 0.0413471 -0.99797 0.0543144 0.0912622 -0.994345 
-0.0877367 0.141058 -0.986106 -0.0427565 0.0829619 -0.995635 -0.0356767 0.0352824 -0.99874 
-0.112952 0.00598927 -0.993582 -0.27263 -0.0564884 -0.960459 -0.626065 -0.0633819 -0.777191 
-0.546959 -0.0513247 -0.835585 0.709768 -0.186527 -0.679292 0.691636 -0.246661 -0.678821 
0.669679 -0.180171 -0.720464 0.348414 -0.0857726 -0.933408 0.178256 -0.0514526 -0.982638 
0.0521842 -0.00802496 -0.998605 -0.0092597 0.0482864 -0.998791 -0.00722217 0.100239 -0.994937 
-0.0708281 0.0318349 -0.99698 -0.0245969 0.071546 -0.997134 0.0990727 -0.111545 -0.988809 
0.0224363 -0.0273397 -0.999374 -0.0414271 0.0085606 -0.999105 -0.0683753 -0.0553033 -0.996126 
-0.205548 -0.11515 -0.971849 -0.340999 -0.217655 -0.914519 -0.597647 -0.259322 -0.758663 
-0.584731 -0.282775 -0.760347 -0.574893 -0.255749 -0.777233 0.611296 -0.405598 -0.679564 
0.559467 -0.502809 -0.658923 0.485363 -0.315107 -0.815555 0.217515 -0.237688 -0.946674 
0.103785 -0.105964 -0.988939 0.0435517 -0.0441812 -0.998074 -0.0829206 0.00291021 -0.996552 
-0.0788798 0.0250741 -0.996569 0.0377641 -0.0658187 -0.997117 0.0307997 -0.0820672 -0.996151 
-0.0732336 -0.113642 -0.990819 -0.16287 -0.157828 -0.973942 -0.265324 -0.252141 -0.930606 
-0.491142 -0.393712 -0.777027 -0.486943 -0.413549 -0.769327 -0.455431 -0.357368 -0.815396 
0.532588 -0.52022 -0.667623 0.430059 -0.589962 -0.68337 0.354709 -0.42053 -0.835067 
0.22008 -0.317729 -0.922287 0.104611 -0.209325 -0.972234 0.0392966 -0.160065 -0.986324 
-0.0481803 -0.138194 -0.989233 -0.092095 -0.105617 -0.990133 -0.0165813 -0.157082 -0.987446 
-0.0225313 -0.209577 -0.977533 -0.116739 -0.260364 -0.958427 -0.21943 -0.315463 -0.923219 
-0.452688 -0.467559 -0.759251 -0.423315 -0.507288 -0.750641 -0.386264 -0.417614 -0.822434 
0.400287 -0.62103 -0.673863 0.362735 -0.629086 -0.687513 0.342773 -0.575644 -0.742388 
0.255207 -0.727668 -0.636685 0.205231 -0.44456 -0.871921 0.152237 -0.741646 -0.653288 
0.0754508 -0.409355 -0.90925 -0.0168195 -0.36589 -0.930506 -0.105138 -0.706046 -0.700318 
-0.097913 -0.363385 -0.92648 -0.124436 -0.656641 -0.743867 -0.0869344 -0.397858 -0.913319 
-0.0891593 -0.667663 -0.739105 -0.0748247 -0.462266 -0.883579 -0.194248 -0.648581 -0.735942 
-0.166023 -0.487377 -0.857263 -0.323749 -0.608378 -0.724612 -0.31981 -0.610222 -0.724811 
-0.317744 -0.605875 -0.729352 0.11569 -0.742133 -0.660192 -0.0890304 -0.711625 -0.696896 
0.0069525 -0.728295 -0.685228 0.00392309 -0.704864 -0.709332 0.106613 0.0626111 -0.992327 
0.123517 0.0415028 -0.991474 -0.00266348 0.10101 -0.994882 0.122045 -0.0147993 -0.992414 
0.131252 0.0378058 -0.990628 0.00770737 0.00457042 -0.99996 0.0105062 -0.0014801 -0.999944 
-0.0057178 0.00173891 -0.999982 0.00918611 -0.00377352 -0.999951 0.00818652 0.00151947 -0.999965 

