# vtk DataFile Version 4.2
vtk output
ASCII
DATASET POLYDATA
POINTS 510 float
-7.83952 -45.8512 -15.2718 1.11416 -45.8512 -14.9988 -16.7932 -36.8976 -16.5889 
-7.83952 -36.8976 -19.9742 1.11416 -36.8976 -19.3023 -25.7469 -27.9439 -16.4521 
-16.7932 -27.9439 -21.1961 -7.83952 -27.9439 -22.4381 1.11416 -27.9439 -20.5558 
10.0678 -27.9439 -17.619 -43.6542 -18.9902 -16.6687 -34.7006 -18.9902 -19.0087 
-25.7469 -18.9902 -20.7255 -16.7932 -18.9902 -23.1702 -7.83952 -18.9902 -23.4048 
1.11416 -18.9902 -20.98 10.0678 -18.9902 -20.225 19.0215 -18.9902 -18.4436 
27.9752 -18.9902 -17.6437 36.9289 -18.9902 -17.5676 45.8826 -18.9902 -17.2298 
54.8362 -18.9902 -15.0012 -52.6079 -10.0365 -15.0041 -43.6542 -10.0365 -19.3317 
-34.7006 -10.0365 -20.6523 -25.7469 -10.0365 -21.2495 -16.7932 -10.0365 -21.7943 
-7.83952 -10.0365 -22.0989 1.11416 -10.0365 -21.5884 10.0678 -10.0365 -23.0457 
19.0215 -10.0365 -20.4561 27.9752 -10.0365 -21.4133 36.9289 -10.0365 -21.1957 
45.8826 -10.0365 -20.7689 54.8362 -10.0365 -19.0423 63.7899 -10.0365 -14.8392 
-52.6079 -1.08284 -16.637 -43.6542 -1.08284 -20.267 -34.7006 -1.08284 -21.5087 
-25.7469 -1.08284 -21.2475 -16.7932 -1.08284 -20.6216 -7.83952 -1.08284 -22.2585 
1.11416 -1.08284 -19.5122 10.0678 -1.08284 -22.2779 19.0215 -1.08284 -20.787 
27.9752 -1.08284 -21.4471 36.9289 -1.08284 -22.0766 45.8826 -1.08284 -21.8155 
54.8362 -1.08284 -20.0528 63.7899 -1.08284 -15.6686 -52.6079 7.87084 -17.9884 
-43.6542 7.87084 -21.3625 -34.7006 7.87084 -22.545 -25.7469 7.87084 -21.7453 
-16.7932 7.87084 -19.9267 -7.83952 7.87084 -21.2607 1.11416 7.87084 -20.2587 
10.0678 7.87084 -21.0018 19.0215 7.87084 -21.6765 27.9752 7.87084 -22.2302 
36.9289 7.87084 -22.5197 45.8826 7.87084 -21.8004 54.8362 7.87084 -19.6969 
63.7899 7.87084 -14.6663 -52.6079 16.8245 -18.9081 -43.6542 16.8245 -21.9743 
-34.7006 16.8245 -22.8186 -25.7469 16.8245 -21.8551 -16.7932 16.8245 -20.1943 
-7.83952 16.8245 -18.9281 1.11416 16.8245 -19.8955 10.0678 16.8245 -20.8638 
19.0215 16.8245 -22.0236 27.9752 16.8245 -22.6282 36.9289 16.8245 -22.3041 
45.8826 16.8245 -20.8656 54.8362 16.8245 -17.7483 -52.6079 25.7782 -17.377 
-43.6542 25.7782 -21.1937 -34.7006 25.7782 -22.7748 -25.7469 25.7782 -22.0948 
-16.7932 25.7782 -21.3828 -7.83952 25.7782 -20.6492 1.11416 25.7782 -20.8492 
10.0678 25.7782 -21.4754 19.0215 25.7782 -22.5683 27.9752 25.7782 -22.0424 
36.9289 25.7782 -21.0768 45.8826 25.7782 -18.6797 -43.6542 34.7319 -18.499 
-34.7006 34.7319 -20.7778 -25.7469 34.7319 -21.4199 -16.7932 34.7319 -22.0508 
-7.83952 34.7319 -20.8083 1.11416 34.7319 -20.6296 10.0678 34.7319 -20.8041 
19.0215 34.7319 -21.4414 27.9752 34.7319 -19.7938 36.9289 34.7319 -17.2934 
-34.7006 43.6856 -16.3402 -25.7469 43.6856 -18.8068 -16.7932 43.6856 -19.0789 
-7.83952 43.6856 -18.9688 1.11416 43.6856 -18.1126 10.0678 43.6856 -17.4635 
19.0215 43.6856 -16.6537 -7.83952 -46.6951 -14.6375 -7.83952 -54.8049 -5.91237 
1.11416 -46.2714 -14.6375 -9.93349 -45.8512 -14.6375 -16.7932 -41.2158 -14.6375 
-16.7932 -45.8512 -11.1189 1.74886 -45.8512 -14.6375 10.0678 -45.8512 -6.81662 
-34.7006 -36.8976 -6.06072 -19.5764 -36.8976 -14.6375 -25.7469 -30.4757 -14.6375 
-25.7469 -36.8976 -10.3418 10.0153 -36.8976 -14.6375 10.0678 -36.8162 -14.6375 
10.0678 -36.8976 -14.5862 -52.6079 -27.9439 -7.14797 -43.6542 -23.1388 -14.6375 
-43.6542 -27.9439 -12.2397 -31.1601 -27.9439 -14.6375 -34.7006 -26.3516 -14.6375 
-34.7006 -27.9439 -13.5544 14.571 -27.9439 -14.6375 19.0215 -24.0741 -14.6375 
27.9752 -22.4996 -14.6375 36.9289 -21.9626 -14.6375 45.8826 -22.1716 -14.6375 
54.8362 -19.399 -14.6375 -47.8616 -18.9902 -14.6375 -52.6079 -11.3277 -14.6375 
-52.6079 -18.9902 -11.995 55.985 -18.9902 -14.6375 63.7899 -10.6785 -14.6375 
63.7899 -18.9902 -10.7792 -53.1211 -10.0365 -14.6375 64.0558 -10.0365 -14.6375 
-55.0638 -1.08284 -14.6375 64.9429 -1.08284 -14.6375 -56.4572 7.87084 -14.6375 
63.8185 7.87084 -14.6375 63.7899 7.93091 -14.6375 -57.3674 16.8245 -14.6375 
-61.5616 16.8245 -6.05013 59.3545 16.8245 -14.6375 54.8362 22.1823 -14.6375 
-55.7035 25.7782 -14.6375 -52.6079 30.993 -14.6375 51.689 25.7782 -14.6375 
45.8826 30.9268 -14.6375 54.8362 25.7782 -8.3674 -49.6779 34.7319 -14.6375 
-52.6079 34.7319 -8.93195 -43.6542 40.0289 -14.6375 27.9752 42.4198 -14.6375 
40.7349 34.7319 -14.6375 36.9289 37.2978 -14.6375 -38.0833 43.6856 -14.6375 
-34.7006 45.5481 -14.6375 -25.7469 48.7492 -14.6375 -16.7932 50.2529 -14.6375 
-7.83952 50.3526 -14.6375 1.11416 48.4507 -14.6375 10.0678 47.1461 -14.6375 
24.7337 43.6856 -14.6375 19.0215 45.5319 -14.6375 27.9752 43.6856 -10.2939 
-25.7469 52.6392 -7.69306 -16.7932 52.6392 -11.1681 -7.83952 52.6392 -10.9165 
1.11416 52.6392 -7.64492 -7.83952 -54.9341 -5.68377 -8.24115 -54.8049 -5.68377 
-16.7932 -50.1986 -5.68377 -7.10281 -54.8049 -5.68377 1.11416 -53.0814 -5.68377 
10.0678 -46.5643 -5.68377 -34.7006 -37.3294 -5.68377 -34.7006 -45.8512 2.18636 
-25.1259 -45.8512 -5.68377 -25.7469 -45.4135 -5.68377 -25.7469 -45.8512 -5.33956 
10.6354 -45.8512 -5.68377 -52.6079 -29.9198 -5.68377 -36.3439 -36.8976 -5.68377 
-43.6542 -35.4072 -5.68377 -43.6542 -36.8976 -3.86181 15.1682 -36.8976 -5.68377 
-53.9932 -27.9439 -5.68377 18.4719 -27.9439 -5.68377 19.0215 -27.5285 -5.68377 
19.0215 -27.9439 -4.61289 27.9752 -24.4559 -5.68377 36.9289 -26.6551 -5.68377 
36.9289 -27.9439 -0.975086 45.8826 -26.3528 -5.68377 54.8362 -25.8321 -5.68377 
63.7899 -21.8247 -5.68377 -58.402 -18.9902 -5.68377 67.1977 -18.9902 -5.68377 
-60.2956 -10.0365 -5.68377 71.964 -10.0365 -5.68377 -60.8407 -1.08284 -5.68377 
71.5065 -1.08284 -5.68377 -61.4064 7.87084 -5.68377 -61.5616 12.3546 -5.68377 
69.5657 7.87084 -5.68377 63.7899 16.8148 -5.68377 -61.7109 16.8245 -5.68377 
-61.5616 17.4096 -5.68377 -61.5616 16.8245 -4.71438 63.7834 16.8245 -5.68377 
-59.2046 25.7782 -5.68377 45.8826 33.2151 -5.68377 56.047 25.7782 -5.68377 
54.8362 26.9586 -5.68377 54.8362 25.7782 -2.79295 -53.7102 34.7319 -5.68377 
-52.6079 35.896 -5.68377 -52.6079 34.7319 -1.73309 -43.6542 43.501 -5.68377 
43.3005 34.7319 -5.68377 36.9289 38.7186 -5.68377 36.9289 34.7319 0.515055 
-43.4001 43.6856 -5.68377 -34.7006 49.2705 -5.68377 10.0678 51.7398 -5.68377 
19.0215 48.7252 -5.68377 29.62 43.6856 -5.68377 27.9752 44.6443 -5.68377 
27.9752 43.6856 -4.16444 -27.6415 52.6392 -5.68377 -25.7469 53.4398 -5.68377 
-25.7469 52.6392 -0.789101 -16.7932 55.0722 -5.68377 -7.83952 54.9222 -5.68377 
5.43424 52.6392 -5.68377 1.11416 53.454 -5.68377 1.11416 52.6392 -1.64163 
-7.83952 -55.6448 3.26991 -34.7006 -46.6267 3.26991 -25.7469 -50.9655 3.26991 
-14.0765 -54.8049 3.26991 -16.7932 -54.4437 3.26991 -3.3964 -54.8049 3.26991 
-7.83952 -54.8049 6.0328 1.11416 -53.8244 3.26991 10.0678 -47.9372 3.26991 
-36.4585 -45.8512 3.26991 -43.6542 -42.3614 3.26991 12.0544 -45.8512 3.26991 
10.0678 -45.8512 10.5802 -52.2849 -36.8976 3.26991 -52.6079 -36.5975 3.26991 
16.5025 -36.8976 3.26991 19.0215 -32.6501 3.26991 19.0215 -36.8976 11.5027 
36.9289 -29.0333 3.26991 -57.9785 -27.9439 3.26991 27.2258 -27.9439 3.26991 
29.5883 -27.9439 3.26991 27.9752 -27.6938 3.26991 27.9752 -27.9439 3.91926 
45.8132 -27.9439 3.26991 45.8826 -27.9354 3.26991 54.8362 -27.7428 3.26991 
63.7899 -23.0877 3.26991 -60.468 -18.9902 3.26991 68.3016 -18.9902 3.26991 
-60.5856 -10.0365 3.26991 72.5825 -10.0365 3.26991 -61.3097 -1.08284 3.26991 
71.0603 -1.08284 3.26991 -60.9056 7.87084 3.26991 68.2136 7.87084 3.26991 
63.7899 13.833 3.26991 63.7899 7.87084 8.68476 -60.2208 16.8245 3.26991 
61.4291 16.8245 3.26991 54.8362 23.2222 3.26991 54.8362 16.8245 9.51763 
-57.429 25.7782 3.26991 -52.6079 32.5357 3.26991 -52.6079 25.7782 9.28482 
27.9752 25.7782 11.8458 36.9289 32.91 3.26991 36.9289 25.7782 10.2139 
50.9908 25.7782 3.26991 45.8826 28.8685 3.26991 45.8826 25.7782 6.86928 
-50.507 34.7319 3.26991 -43.6542 40.1744 3.26991 -43.6542 34.7319 9.12839 
10.0678 34.7319 11.7655 19.0215 34.7319 8.61772 32.5111 34.7319 3.26991 
27.9752 36.9666 3.26991 27.9752 34.7319 5.21413 -39.1252 43.6856 3.26991 
-34.7006 46.7578 3.26991 -34.7006 43.6856 7.30482 -25.7469 51.889 3.26991 
1.11416 51.3347 3.26991 1.11416 43.6856 11.3455 10.0678 47.6327 3.26991 
10.0678 43.6856 7.20307 19.2796 43.6856 3.26991 19.0215 43.8735 3.26991 
19.0215 43.6856 3.42996 -22.9929 52.6392 3.26991 -16.7932 54.1001 3.26991 
-16.7932 52.6392 5.92433 -3.87414 52.6392 3.26991 -7.83952 53.5236 3.26991 
-7.83952 52.6392 4.93738 -34.7006 -48.7557 12.2236 -25.7469 -51.5982 12.2236 
-16.7932 -52.6991 12.2236 -7.83952 -52.4085 12.2236 1.11416 -50.2181 12.2236 
-40.4713 -45.8512 12.2236 -43.6542 -43.6403 12.2236 -34.7006 -45.8512 16.3214 
-25.7469 -45.8512 19.1351 -16.7932 -45.8512 19.2973 -7.83952 -45.8512 18.8378 
9.09553 -45.8512 12.2236 1.11416 -45.8512 16.4194 10.0678 -45.3507 12.2236 
19.0215 -37.1983 12.2236 -51.7555 -36.8976 12.2236 -52.6079 -35.0034 12.2236 
-43.6542 -36.8976 17.9897 19.3418 -36.8976 12.2236 19.0215 -36.8976 13.1826 
27.9752 -31.1148 12.2236 36.9289 -30.0937 12.2236 -55.1742 -27.9439 12.2236 
-52.6079 -27.9439 15.2059 -43.6542 -27.9439 20.167 45.7448 -27.9439 12.2236 
36.9289 -27.9439 16.313 45.8826 -27.9097 12.2236 54.8362 -25.6042 12.2236 
63.7899 -19.7829 12.2236 -56.0807 -18.9902 12.2236 -52.6079 -18.9902 15.9479 
-43.6542 -18.9902 20.0582 -16.7932 -18.9902 21.1738 54.8362 -18.9902 18.2791 
64.495 -18.9902 12.2236 63.7899 -18.9902 12.9264 -55.6437 -10.0365 12.2236 
-52.6079 -10.0365 14.89 -43.6542 -10.0365 18.6469 -34.7006 -10.0365 19.9073 
-25.7469 -10.0365 19.4769 -16.7932 -10.0365 18.6634 -7.83952 -10.0365 20.8664 
54.8362 -10.0365 19.6712 66.9676 -10.0365 12.2236 63.7899 -10.0365 15.22 
-55.6296 -1.08284 12.2236 -52.6079 -1.08284 14.5436 -43.6542 -1.08284 18.3486 
-34.7006 -1.08284 19.3515 -25.7469 -1.08284 18.6512 -16.7932 -1.08284 17.1947 
-7.83952 -1.08284 20.0903 19.0215 -1.08284 20.2345 27.9752 -1.08284 20.7235 
36.9289 -1.08284 21.1069 45.8826 -1.08284 20.4311 54.8362 -1.08284 18.0888 
65.5061 -1.08284 12.2236 63.7899 2.48379 12.2236 63.7899 -1.08284 13.7797 
[...]
POINT_DATA 510
SCALARS ImageScalars float
LOOKUP_TABLE default
0 0 0 0 0 0 0 0 0 
0 0 0 0 0 0 0 0 0 
0 0 0 0 0 0 0 0 0 
0 0 0 0 0 0 0 0 0 
0 0 0 0 0 0 0 0 0 
0 0 0 0 0 0 0 0 0 
0 0 0 0 0 0 0 0 0 
0 0 0 0 0 0 0 0 0 
0 0 0 0 0 0 0 0 0 
0 0 0 0 0 0 0 0 0 
0 0 0 0 0 0 0 0 0 
0 0 0 0 0 0 0 0 0 
0 0 0 0 0 0 0 0 0 
0 0 0 0 0 0 0 0 0 
0 0 0 0 0 0 0 0 0 
0 0 0 0 0 0 0 0 0 
0 0 0 0 0 0 0 0 0 
0 0 0 0 0 0 0 0 0 
0 0 0 0 0 0 0 0 0 
0 0 0 0 0 0 0 0 0 
0 0 0 0 0 0 0 0 0 
0 0 0 0 0 0 0 0 0 
0 0 0 0 0 0 0 0 0 
0 0 0 0 0 0 0 0 0 
0 0 0 0 0 0 0 0 0 
0 0 0 0 0 0 0 0 0 
0 0 0 0 0 0 0 0 0 
0 0 0 0 0 0 0 0 0 
0 0 0 0 0 0 0 0 0 
0 0 0 0 0 0 0 0 0 
0 0 0 0 0 0 0 0 0 
0 0 0 0 0 0 0 0 0 
0 0 0 0 0 0 0 0 0 
0 0 0 0 0 0 0 0 0 
0 0 0 0 0 0 0 0 0 
0 0 0 0 0 0 0 0 0 
0 0 0 0 0 0 0 0 0 
0 0 0 0 0 0 0 0 0 
0 0 0 0 0 0 0 0 0 
0 0 0 0 0 0 0 0 0 
0 0 0 0 0 0 0 0 0 
0 0 0 0 0 0 0 0 0 
0 0 0 0 0 0 0 0 0 
0 0 0 0 0 0 0 0 0 
0 0 0 0 0 0 0 0 0 
0 0 0 0 0 0 0 0 0 
0 0 0 0 0 0 0 0 0 
0 0 0 0 0 0 0 0 0 
0 0 0 0 0 0 0 0 0 
0 0 0 0 0 0 0 0 0 
0 0 0 0 0 0 0 0 0 
0 0 0 0 0 0 0 0 0 
0 0 0 0 0 0 0 0 0 
0 0 0 0 0 0 0 0 0 
0 0 0 0 0 0 0 0 0 
0 0 0 0 0 0 0 0 0 
0 0 0 0 0 0 
NORMALS Normals float
-0.115091 -0.580585 -0.806024 0.253977 -0.586076 -0.769422 -0.467607 -0.382973 -0.796665 
-0.115679 -0.342654 -0.932312 0.250998 -0.266733 -0.930513 -0.342655 -0.503745 -0.792987 
-0.286526 -0.332033 -0.898697 0.0524263 -0.183043 -0.981706 0.24375 -0.0828255 -0.966295 
0.484079 -0.315792 -0.816053 -0.318893 -0.364404 -0.874938 -0.19903 -0.341445 -0.918587 
-0.219414 -0.207888 -0.953226 -0.143576 -0.00629885 -0.989619 0.119707 0.0195859 -0.992616 
0.172558 -0.0569047 -0.983354 0.132542 -0.28746 -0.948577 0.15354 -0.456703 -0.876269 
0.0493015 -0.620978 -0.782276 0.0205287 -0.623731 -0.781369 0.120376 -0.54291 -0.831119 
0.250139 -0.605885 -0.755205 -0.55719 -0.203214 -0.805135 -0.282606 -0.172173 -0.943658 
-0.105997 -0.131653 -0.985613 -0.0626142 -0.0268449 -0.997677 -0.0481952 0.139871 -0.988996 
0.0110176 0.0637093 -0.997908 -0.0518527 0.0791865 -0.99551 0.0662171 -0.11012 -0.99171 
0.0898146 -0.119112 -0.98881 -0.0391986 -0.181679 -0.982576 0.0332634 -0.20491 -0.978215 
0.113752 -0.2198 -0.96889 0.276073 -0.23728 -0.931387 0.559349 -0.171438 -0.81101 
-0.550787 -0.15755 -0.819641 -0.250166 -0.1124 -0.961656 -0.0510082 -0.103216 -0.99335 
0.0495728 -0.0277393 -0.998385 -0.0500458 0.102788 -0.993444 0.05667 0.0348985 -0.997783 
-0.0092012 0.0751005 -0.997133 -0.0639428 0.112623 -0.991578 0.0445773 -0.0678688 -0.996698 
-0.0718931 -0.0454662 -0.996376 -0.0206148 -0.0775199 -0.996778 0.106795 -0.0558163 -0.992713 
0.283147 -0.0347275 -0.958448 0.605191 0.00396458 -0.796071 -0.546192 -0.117613 -0.829362 
-0.242326 -0.0945894 -0.965573 -0.0183385 -0.0735469 -0.997123 0.141316 -0.0338671 -0.989385 
0.046855 0.0261689 -0.998559 -0.0187368 0.202503 -0.979102 0.0015972 -0.0200384 -0.999798 
-0.0796775 0.077879 -0.993774 -0.067748 -0.0690069 -0.995313 -0.0469984 -0.0656852 -0.996733 
0.0229515 -0.0120862 -0.999664 0.146649 0.053705 -0.98773 0.325382 0.129773 -0.936635 
0.680405 0.233273 -0.694718 -0.529162 0.0272389 -0.848084 -0.206899 0.0112464 -0.978298 
0.00858743 -0.0124074 -0.999886 0.137498 -0.0194578 -0.990311 0.165153 -0.0784543 -0.983143 
0.0110375 0.0020766 -0.999937 -0.105247 -0.0331138 -0.993895 -0.11848 -0.0267599 -0.992596 
-0.0989556 -0.0495772 -0.993856 -0.0147059 0.0127093 -0.999811 0.0962288 0.0788131 -0.992234 
0.248696 0.160929 -0.955119 0.482686 0.322745 -0.814156 -0.59388 0.280843 -0.753945 
-0.261363 0.171638 -0.949858 -0.0512768 0.117202 -0.991783 0.0731994 0.0227841 -0.997057 
0.0833227 -0.0986796 -0.991625 0.0264891 -0.0995094 -0.994684 -0.0461052 -0.0403082 -0.998123 
-0.0943714 0.00275861 -0.995533 -0.0302832 0.0262536 -0.999197 0.0820107 0.148446 -0.985514 
0.187592 0.242102 -0.951943 0.417427 0.466118 -0.780057 -0.384052 0.44864 -0.806986 
-0.145033 0.312583 -0.938753 -0.0712514 0.160448 -0.984469 0.034211 0.118345 -0.992383 
0.0758274 0.0906226 -0.992994 0.000377876 0.143479 -0.989653 -0.0413658 0.204431 -0.978007 
0.0534586 0.258555 -0.964516 0.208864 0.422872 -0.881791 0.425789 0.647838 -0.631672 
-0.317006 0.648308 -0.692245 -0.137643 0.452087 -0.88129 -0.00640283 0.434279 -0.900756 
0.0520561 0.381016 -0.923102 0.0816227 0.455699 -0.886384 0.0691993 0.544511 -0.835894 
0.189172 0.707519 -0.680904 -0.114591 -0.608674 -0.785102 -0.0786955 -0.932626 -0.352158 
0.255815 -0.602438 -0.75606 -0.199951 -0.591078 -0.781439 -0.483662 -0.464433 -0.741871 
-0.453426 -0.596228 -0.662508 0.28379 -0.5895 -0.756276 0.749199 -0.567557 -0.341438 
-0.275857 -0.646222 -0.711548 -0.461563 -0.412632 -0.785299 -0.353346 -0.510245 -0.78409 
-0.416708 -0.477669 -0.773425 0.616594 -0.385043 -0.686697 0.617946 -0.385099 -0.685449 
0.620126 -0.384888 -0.683597 -0.618365 -0.48442 -0.618839 -0.297373 -0.45299 -0.840457 
-0.265321 -0.552893 -0.789882 -0.244649 -0.533062 -0.809933 -0.19215 -0.508893 -0.83911 
-0.182528 -0.551297 -0.814098 0.531237 -0.524875 -0.665051 0.349152 -0.633472 -0.690511 
0.0944896 -0.815159 -0.571478 0.0155354 -0.761853 -0.647564 0.105465 -0.702449 -0.703877 
0.250977 -0.62152 -0.742107 -0.436091 -0.363915 -0.823037 -0.558901 -0.224787 -0.798186 
-0.59515 -0.344323 -0.726112 0.286046 -0.600681 -0.746565 0.559513 -0.196912 -0.805091 
0.553279 -0.610631 -0.56658 -0.574387 -0.203642 -0.792849 0.564406 -0.171316 -0.807525 
-0.655937 -0.138661 -0.74197 0.636713 0.016762 -0.770918 -0.721011 -0.101377 -0.685468 
0.681251 0.233573 -0.693787 0.681581 0.234684 -0.693087 -0.766179 0.031217 -0.641869 
-0.983888 0.107699 -0.142708 0.647912 0.398914 -0.648905 0.609695 0.516698 -0.601078 
-0.746656 0.318069 -0.584241 -0.684658 0.482342 -0.546433 0.604613 0.583524 -0.542165 
0.52637 0.671812 -0.521155 0.6761 0.720173 -0.155693 -0.627987 0.573089 -0.526499 
-0.734481 0.655186 -0.176829 -0.515816 0.674273 -0.528479 0.374225 0.77144 -0.514622 
0.497006 0.733756 -0.463236 0.479546 0.749758 -0.455959 -0.415504 0.716464 -0.560389 
-0.351505 0.721 -0.597163 -0.213554 0.717103 -0.663444 -0.0636457 0.697335 -0.713914 
0.0762344 0.694183 -0.715751 0.128723 0.671957 -0.729318 0.127494 0.699379 -0.703288 
0.331358 0.785538 -0.522621 0.229066 0.785835 -0.57445 0.456063 0.876432 -0.154511 
-0.287796 0.936031 -0.202533 -0.072581 0.881401 -0.466759 0.0912428 0.892807 -0.441101 
0.164324 0.962549 -0.21563 -0.0775118 -0.936534 -0.3419 -0.0951832 -0.932453 -0.348528 
-0.434914 -0.730608 -0.526366 -0.0392828 -0.939394 -0.340581 0.363749 -0.881322 -0.301593 
0.751901 -0.590342 -0.293498 -0.283557 -0.643582 -0.710913 -0.43316 -0.768463 -0.470995 
-0.412581 -0.622783 -0.664769 -0.41332 -0.61371 -0.6727 -0.415181 -0.629648 -0.656634 
0.770271 -0.564326 -0.297016 -0.630017 -0.516402 -0.580006 -0.264998 -0.659385 -0.703553 
-0.23442 -0.694974 -0.679749 -0.261895 -0.733155 -0.62761 0.887206 -0.371547 -0.27353 
-0.679937 -0.484047 -0.550803 0.616211 -0.701248 -0.358518 0.58737 -0.726892 -0.355844 
0.592512 -0.715804 -0.369534 0.0314288 -0.967228 -0.251958 -0.0938625 -0.935824 -0.33974 
-0.0436744 -0.967452 -0.249258 0.0366271 -0.972806 -0.228706 0.255432 -0.891257 -0.37472 
0.513732 -0.79742 -0.316544 -0.843483 -0.298819 -0.446368 0.696401 -0.63249 -0.339091 
-0.95161 -0.117303 -0.28404 0.91903 -0.210567 -0.333233 -0.964072 -0.0575321 -0.259334 
0.965419 0.118838 -0.232043 -0.980675 -0.0452755 -0.190333 -0.986821 0.0326271 -0.158489 
0.896442 0.404641 -0.180713 0.820668 0.56679 -0.0724803 -0.985852 0.110717 -0.125846 
-0.983949 0.129158 -0.123138 -0.990078 0.115439 -0.0801247 0.820556 0.566965 -0.0723693 
-0.916613 0.39364 -0.0697696 0.521359 0.847484 0.0997765 0.677277 0.735668 -0.00937765 
0.658364 0.752691 -0.003525 0.643324 0.752245 0.142341 -0.751365 0.659524 -0.0218722 
-0.724088 0.689495 -0.017107 -0.718896 0.675697 0.16316 -0.606833 0.794788 0.00816167 
0.50711 0.851884 0.13089 0.516212 0.842799 0.152366 0.41044 0.783592 0.466393 
-0.604016 0.796941 0.00704685 -0.499877 0.864811 -0.0471636 0.241643 0.970261 -0.0142012 
0.390611 0.919476 0.044575 0.486373 0.855135 0.179405 0.472396 0.861644 0.185503 
0.469033 0.838028 0.278777 -0.33598 0.936824 -0.0973572 -0.290561 0.950879 -0.106784 
-0.328495 0.934591 0.136494 -0.0790389 0.986647 -0.14241 0.0963014 0.988234 -0.118823 
0.197645 0.978345 -0.0614588 0.165839 0.980988 -0.100795 0.216374 0.968738 0.121363 
0.0268517 -0.993741 0.108438 -0.422829 -0.802935 -0.420132 -0.406843 -0.870818 -0.275962 
-0.161537 -0.986861 -0.00339085 -0.239379 -0.969271 -0.0566646 0.200356 -0.973168 0.113145 
0.0488775 -0.969733 0.239226 0.374586 -0.920081 0.114615 0.699379 -0.712692 0.0542109 
-0.45052 -0.787065 -0.421378 -0.504291 -0.781901 -0.3665 0.76902 -0.639049 0.0149583 
0.556215 -0.762677 0.330074 -0.667539 -0.719931 -0.189978 -0.679179 -0.71146 -0.180389 
0.855758 -0.484822 -0.180626 0.717192 -0.617208 -0.323558 0.696803 -0.715626 -0.0484263 
-0.00380007 -0.983746 -0.179525 -0.899625 -0.431293 -0.0682693 0.126474 -0.919289 -0.372709 
0.0692775 -0.941814 -0.328918 0.0838668 -0.928541 -0.361632 0.102665 -0.935002 -0.339457 
0.0697287 -0.992431 -0.10109 0.07042 -0.992455 -0.100365 0.262908 -0.964818 0.00236177 
0.55342 -0.829627 0.0737913 -0.988213 -0.127784 0.0843019 0.796325 -0.588704 0.138903 
-0.980882 -0.0445528 0.189434 0.973283 -0.119182 0.196255 -0.980742 -0.0192726 0.194357 
0.942866 0.191946 0.272324 -0.965958 0.0562735 0.252504 0.782705 0.496044 0.375917 
0.735853 0.560515 0.379925 0.64875 0.488953 0.583137 -0.930022 0.15752 0.332034 
0.697806 0.589654 0.406663 0.558386 0.682601 0.471446 0.488891 0.547322 0.679282 
-0.816065 0.437241 0.377964 -0.683852 0.60656 0.405503 -0.6301 0.428422 0.647633 
0.146587 0.558448 0.816485 0.336776 0.717244 0.610036 0.200849 0.601709 0.773049 
0.4872 0.722573 0.490433 0.393855 0.752139 0.528361 0.363757 0.700304 0.61421 
-0.635733 0.652193 0.412903 -0.560418 0.706053 0.432922 -0.457222 0.595195 0.660826 
0.307509 0.365679 0.878474 0.295223 0.461412 0.836625 0.342641 0.682305 0.6458 
0.344909 0.638841 0.687692 0.301764 0.622017 0.722519 -0.552071 0.723323 0.414755 
-0.518446 0.75132 0.408329 -0.496513 0.663921 0.559181 -0.347105 0.869653 0.351029 
0.276003 0.858624 0.431958 0.318547 0.503571 0.803084 0.30905 0.740117 0.597257 
0.337592 0.591561 0.73218 0.427234 0.615313 0.662466 0.426941 0.618872 0.659332 
0.427117 0.611644 0.665931 -0.263668 0.903904 0.336805 -0.0821702 0.945478 0.315149 
-0.0882368 0.895572 0.436079 0.20127 0.909847 0.362861 0.143728 0.933894 0.327389 
0.149787 0.904872 0.398459 -0.396316 -0.900232 0.180323 -0.217986 -0.941668 0.256404 
-0.0448365 -0.90039 0.432768 0.109752 -0.820933 0.560377 0.317074 -0.776474 0.544567 
-0.513644 -0.83922 0.178548 -0.593631 -0.774146 0.219773 -0.336955 -0.800431 0.495753 
-0.130534 -0.622784 0.771428 0.0139445 -0.525402 0.85074 0.127294 -0.518606 0.845485 
0.491641 -0.767304 0.411745 0.265224 -0.617465 0.740536 0.507115 -0.772903 0.381386 
0.682418 -0.730325 -0.0305034 -0.773768 -0.54424 0.324168 -0.794911 -0.485503 0.363872 
-0.52955 -0.377659 0.759573 0.67629 -0.735586 -0.0393138 0.668799 -0.743148 0.0209259 
0.331705 -0.940936 -0.0679074 0.172061 -0.971728 0.161679 -0.811468 -0.235977 0.534635 
-0.702497 -0.17298 0.690345 -0.337842 -0.102315 0.935625 0.211019 -0.943642 0.254972 
0.241348 -0.863562 0.442732 0.212115 -0.942885 0.256858 0.396342 -0.792066 0.464269 
0.649586 -0.494035 0.577899 -0.762471 -0.0188566 0.646748 -0.613447 0.027157 0.789269 
-0.255992 0.0858889 0.962856 -0.0185271 0.225937 0.973966 0.457194 -0.383664 0.802356 
0.677252 -0.449412 0.582545 0.651341 -0.451808 0.60961 -0.710536 0.0188821 0.703408 
-0.583421 0.058939 0.810028 -0.241153 0.0841996 0.966828 -0.0493119 0.144645 0.988254 
0.0687421 0.164305 0.984011 -0.0630466 0.217614 0.973997 -0.374439 0.0966341 0.922202 
0.303485 0.0246771 0.952517 0.717343 -0.0537824 0.694641 0.6061 -0.03812 0.794475 
-0.66533 0.0158248 0.746382 -0.549262 0.0249225 0.835278 -0.240235 -0.013421 0.970622 
-0.0173118 -0.0227011 0.999592 0.117218 0.0343286 0.992513 -0.0407781 0.0970644 0.994442 
-0.307587 0.0883411 0.94741 0.151756 0.105238 0.9828 -0.0489399 0.151903 0.987183 
0.0169312 0.173715 0.98465 0.160583 0.188169 0.96892 0.341647 0.203519 0.917528 
0.668423 0.229758 0.707405 0.614339 0.319422 0.721497 0.600606 0.233213 0.764777 
-0.673614 0.0718443 0.735583 -0.578613 0.0534243 0.81385 -0.293001 0.0214226 0.955872 
0.0131557 0.0278016 0.999527 0.190786 -0.000357213 0.981632 0.0085578 -0.0222725 0.999715 
-0.391566 0.121649 0.912073 0.188726 0.0703271 0.979508 0.0613833 0.16637 0.984151 
0.0932916 0.260851 0.960861 0.195922 0.331639 0.922838 0.509115 0.453229 0.7317 
0.436681 0.482909 0.759018 0.393074 0.411032 0.822524 -0.640228 0.213251 0.737992 
-0.603832 0.276815 0.747503 -0.601913 0.212278 0.769831 -0.250177 0.220873 0.94267 
-0.0401125 0.181142 0.982639 0.0683616 0.0544864 0.996172 0.0413717 -0.0739046 0.996407 
-0.063583 0.0309573 0.997496 -0.0970554 0.388384 0.916372 0.00130364 0.461146 0.887323 
0.111971 0.351584 0.929436 0.142324 0.549553 0.823247 0.127742 0.375642 0.917919 
0.182037 0.548843 0.815864 0.168998 0.43298 0.885419 0.374621 0.500465 0.780509 
0.31193 0.535641 0.784722 0.299209 0.474742 0.827704 -0.47124 0.401437 0.785354 
-0.378821 0.478348 0.792261 -0.324037 0.385258 0.864046 -0.162738 0.273997 0.947862 
-0.0700879 0.124944 0.989685 -0.0280969 -0.00359842 0.999599 0.0924124 0.0354635 0.995089 
0.187713 0.200143 0.961617 0.285874 0.363343 0.886712 0.143581 0.372284 0.916946 
0.148814 0.540793 0.827887 0.186336 0.478127 0.858297 0.15066 0.493314 0.856705 
-0.358478 0.463653 0.810259 -0.362658 0.463145 0.808688 -0.318317 0.403121 0.858002 
-0.213341 0.229244 0.949702 -0.0474581 0.183956 0.981788 0.148477 0.220223 0.964083 
0.30516 0.346564 0.887001 0.314035 0.436188 0.84328 0.279468 0.249906 0.927062 
-0.346416 0.5413 0.766153 -0.324353 0.556225 0.76512 -0.315116 0.522278 0.792419 
-0.0805141 0.607256 0.790416 -0.0423812 0.460565 0.886614 0.282208 0.483056 0.828864 
0.17542 0.576683 0.797913 0.174068 0.461953 0.869655 -0.237686 -0.405007 0.882879 
-0.0256477 -0.378682 0.925172 0.0559071 -0.280155 0.958325 0.0653007 -0.215505 0.974317 
-0.0383567 -0.364272 0.930502 0.134585 -0.615501 0.77656 -0.331293 -0.259739 0.907072 
-0.217405 -0.223265 0.950204 0.0455774 -0.175686 0.983391 0.0826065 -0.153742 0.984652 
0.0538078 -0.176369 0.982852 -0.0414407 -0.362482 0.931069 0.219998 -0.656804 0.721256 
0.10332 -0.574987 0.811613 0.385942 -0.637013 0.66728 0.39881 -0.575689 0.713815 
-0.25049 -0.0230704 0.967844 -0.151237 0.0680301 0.986154 0.00134448 0.074309 0.997234 
-0.018405 0.225542 0.97406 0.0343981 0.0528944 0.998007 -0.0625199 -0.0262763 0.997698 
-0.173918 -0.187882 0.966671 -0.0352818 -0.186349 0.98185 0.241177 -0.267603 0.932857 
0.383611 -0.569075 0.727321 0.389241 -0.546521 0.741489 0.193413 -0.408184 0.892176 
0.242315 -0.344806 0.906858 -0.144818 0.128042 0.981139 -0.0698853 0.149538 0.986283 
-0.0836614 0.147246 0.985555 -0.0180633 0.225797 0.974007 0.0454211 0.199457 0.978853 
0.0383673 0.20822 0.977329 -0.0193751 0.225349 0.974085 -0.328805 0.0931287 0.939795 
-0.200935 0.0871997 0.975716 -0.250351 -0.0754871 0.965208 0.0378911 0.00994127 0.999232 
0.15454 0.117007 0.981034 0.0809483 -0.0415748 0.995851 0.100588 -0.18397 0.977771 
0.282796 -0.287245 0.915159 0.226317 -0.268258 0.936386 -0.367755 0.0961955 0.924934 
-0.221382 0.139508 0.965157 0.157153 0.147845 0.976445 0.152999 0.160688 0.975075 
0.147769 0.232079 0.961407 -0.0387773 0.15912 0.986497 -0.00576326 0.166202 0.986075 
0.0181916 0.170629 0.985167 0.0406082 0.105916 0.993546 0.190303 0.0721032 0.979074 
0.157628 0.127479 0.979236 0.153052 0.0821241 0.9848 -0.255502 0.0908037 0.962535 
-0.189054 0.102986 0.976551 0.149928 0.108226 0.982756 0.133553 0.117801 0.984015 
-0.316044 0.166825 0.933962 -0.16518 0.288417 0.94315 -0.182945 0.165362 0.969116 
0.183145 0.100422 0.977943 0.0635414 0.363906 0.929266 0.155658 0.197103 0.967947 

