# vtk DataFile Version 4.2
vtk output
ASCII
DATASET POLYDATA
POINTS 522 float
-9.34954 -40.2992 -12.2419 -2.17816 -40.2992 -13.7319 4.99323 -40.2992 -14.6998 
12.1646 -40.2992 -14.3979 19.336 -40.2992 -12.1592 -16.5209 -33.1278 -12.7493 
-9.34954 -33.1278 -14.6485 -2.17816 -33.1278 -15.6886 4.99323 -33.1278 -16.5617 
12.1646 -33.1278 -16.1709 19.336 -33.1278 -15.5313 26.5074 -33.1278 -13.2179 
-23.6923 -25.9564 -13.9554 -16.5209 -25.9564 -14.8592 -9.34954 -25.9564 -15.2444 
-2.17816 -25.9564 -15.8991 4.99323 -25.9564 -16.6989 12.1646 -25.9564 -16.7616 
19.336 -25.9564 -16.2913 26.5074 -25.9564 -15.4584 33.6788 -25.9564 -12.8198 
-38.0351 -18.785 -12.1889 -30.8637 -18.785 -14.9555 -23.6923 -18.785 -16.1463 
-16.5209 -18.785 -15.7186 -9.34954 -18.785 -14.9098 -2.17816 -18.785 -15.2853 
4.99323 -18.785 -16.2165 12.1646 -18.785 -16.1162 19.336 -18.785 -16.0075 
26.5074 -18.785 -15.526 33.6788 -18.785 -14.4098 -38.0351 -11.6136 -15.3072 
-30.8637 -11.6136 -16.6952 -23.6923 -11.6136 -16.7695 -16.5209 -11.6136 -16.2949 
-9.34954 -11.6136 -15.9765 -2.17816 -11.6136 -16.4869 4.99323 -11.6136 -16.9226 
12.1646 -11.6136 -16.0396 19.336 -11.6136 -15.6959 26.5074 -11.6136 -16.2077 
33.6788 -11.6136 -15.3014 40.8501 -11.6136 -13.5927 -45.2065 -4.44226 -13.3912 
-38.0351 -4.44226 -16.2893 -30.8637 -4.44226 -17.2355 -23.6923 -4.44226 -16.6126 
-16.5209 -4.44226 -15.8301 -9.34954 -4.44226 -18.055 -2.17816 -4.44226 -16.6811 
4.99323 -4.44226 -16.8642 12.1646 -4.44226 -17.6823 19.336 -4.44226 -15.8634 
26.5074 -4.44226 -15.958 33.6788 -4.44226 -15.7653 40.8501 -4.44226 -14.5043 
-45.2065 2.72913 -13.8976 -38.0351 2.72913 -16.6212 -30.8637 2.72913 -17.3327 
-23.6923 2.72913 -16.7393 -16.5209 2.72913 -15.7301 -9.34954 2.72913 -16.9899 
-2.17816 2.72913 -15.68 4.99323 2.72913 -16.7475 12.1646 2.72913 -17.4777 
19.336 2.72913 -16.075 26.5074 2.72913 -16.3763 33.6788 2.72913 -16.1767 
40.8501 2.72913 -15.0808 48.0215 2.72913 -11.8641 -45.2065 9.90051 -12.8243 
-38.0351 9.90051 -16.5159 -30.8637 9.90051 -17.4084 -23.6923 9.90051 -16.9218 
-16.5209 9.90051 -15.6005 -9.34954 9.90051 -13.7224 -2.17816 9.90051 -14.4549 
4.99323 9.90051 -14.9959 12.1646 9.90051 -15.1501 19.336 9.90051 -16.1311 
26.5074 9.90051 -16.664 33.6788 9.90051 -16.3762 40.8501 9.90051 -14.8767 
-38.0351 17.0719 -14.7655 -30.8637 17.0719 -15.8924 -23.6923 17.0719 -16.2687 
-16.5209 17.0719 -15.4335 -9.34954 17.0719 -14.377 -2.17816 17.0719 -14.1284 
4.99323 17.0719 -14.0908 12.1646 17.0719 -14.7349 19.336 17.0719 -16.0453 
26.5074 17.0719 -16.8629 33.6788 17.0719 -16.068 40.8501 17.0719 -14.2663 
-30.8637 24.2433 -13.896 -23.6923 24.2433 -14.8579 -16.5209 24.2433 -15.3116 
-9.34954 24.2433 -15.0287 -2.17816 24.2433 -15.2944 4.99323 24.2433 -15.1431 
12.1646 24.2433 -15.1543 19.336 24.2433 -15.9548 26.5074 24.2433 -15.8863 
33.6788 24.2433 -14.4683 -23.6923 31.4147 -12.7091 -16.5209 31.4147 -13.8097 
-9.34954 31.4147 -14.6145 -2.17816 31.4147 -14.7857 4.99323 31.4147 -14.7633 
12.1646 31.4147 -14.9663 19.336 31.4147 -14.9449 26.5074 31.4147 -13.5587 
-2.17816 38.586 -12.0657 4.99323 38.586 -12.5056 12.1646 38.586 -12.3554 
19.336 38.586 -11.5438 -9.34954 -41.4723 -11.4734 -2.17816 -43.3606 -11.4734 
-2.17816 -47.4706 -4.33976 4.99323 -44.394 -11.4734 12.1646 -43.9097 -11.4734 
19.336 -41.0793 -11.4734 -11.0428 -40.2992 -11.4734 -16.5209 -35.4193 -11.4734 
-16.5209 -40.2992 -7.3314 20.544 -40.2992 -11.4734 26.5074 -35.799 -11.4734 
-20.0879 -33.1278 -11.4734 -23.6923 -30.6422 -11.4734 -23.6923 -33.1278 -9.50491 
29.6293 -33.1278 -11.4734 33.6788 -28.6619 -11.4734 33.6788 -33.1278 -6.61277 
-38.0351 -19.8685 -11.4734 -30.7344 -25.9564 -11.4734 -30.8637 -25.8747 -11.4734 
-30.8637 -25.9564 -11.4013 35.8684 -25.9564 -11.4734 40.8501 -25.9564 -5.45465 
-39.1485 -18.785 -11.4734 40.3014 -18.785 -11.4734 40.8501 -18.1335 -11.4734 
40.8501 -18.785 -11.1481 -44.3866 -11.6136 -11.4734 -45.2065 -10.2064 -11.4734 
-45.2065 -11.6136 -10.6425 44.3085 -11.6136 -11.4734 48.0215 -11.6136 -7.705 
-47.706 -4.44226 -11.4734 47.3723 -4.44226 -11.4734 48.0215 -0.799474 -11.4734 
48.0215 -4.44226 -11.0429 -48.4835 2.72913 -11.4734 -52.3778 2.72913 -4.32716 
48.4909 2.72913 -11.4734 48.0215 8.12081 -11.4734 -46.962 9.90051 -11.4734 
-45.2065 13.3811 -11.4734 47.8177 9.90051 -11.4734 48.0215 9.90051 -11.335 
-43.2484 17.0719 -11.4734 -45.2065 17.0719 -9.29114 -38.0351 23.2892 -11.4734 
45.3788 17.0719 -11.4734 40.8501 23.6202 -11.4734 48.0215 17.0719 -7.9443 
-36.6947 24.2433 -11.4734 -38.0351 24.2433 -10.6178 -30.8637 28.5087 -11.4734 
40.1956 24.2433 -11.4734 33.6788 30.7433 -11.4734 40.8501 24.2433 -10.919 
-26.8964 31.4147 -11.4734 -30.8637 31.4147 -8.89674 -23.6923 33.125 -11.4734 
-16.5209 35.1044 -11.4734 -9.34954 37.6666 -11.4734 32.7566 31.4147 -11.4734 
26.5074 34.7978 -11.4734 33.6788 31.4147 -10.9097 -16.5209 38.586 -7.81899 
-5.93313 38.586 -11.4734 -9.34954 38.586 -10.5361 -2.17816 39.2287 -11.4734 
4.99323 39.781 -11.4734 12.1646 39.6818 -11.4734 19.5529 38.586 -11.4734 
19.336 38.6741 -11.4734 26.5074 38.586 -7.03343 -2.17816 -47.4843 -4.30205 
-16.5209 -42.5709 -4.30205 -2.25115 -47.4706 -4.30205 -9.34954 -45.9974 -4.30205 
-1.78716 -47.4706 -4.30205 -2.17816 -47.4706 -4.24102 4.99323 -47.2281 -4.30205 
12.1646 -45.8208 -4.30205 19.336 -43.0965 -4.30205 -19.9831 -40.2992 -4.30205 
-23.6923 -37.5416 -4.30205 24.9612 -40.2992 -4.30205 19.336 -40.2992 2.00565 
26.5074 -39.4981 -4.30205 33.6788 -34.5077 -4.30205 -28.5654 -33.1278 -4.30205 
-30.8637 -31.2074 -4.30205 35.1931 -33.1278 -4.30205 33.6788 -33.1278 -0.661287 
40.8501 -26.8844 -4.30205 -37.4342 -25.9564 -4.30205 -38.0351 -25.4219 -4.30205 
41.5586 -25.9564 -4.30205 40.8501 -25.9564 -1.94974 -44.6348 -18.785 -4.30205 
-45.2065 -18.0318 -4.30205 46.1791 -18.785 -4.30205 48.0215 -15.7119 -4.30205 
-48.8959 -11.6136 -4.30205 50.263 -11.6136 -4.30205 -51.5856 -4.44226 -4.30205 
-52.3778 2.64137 -4.30205 53.09 -4.44226 -4.30205 -52.3872 2.72913 -4.30205 
-52.3778 2.82984 -4.30205 54.0061 2.72913 -4.30205 -51.6175 9.90051 -4.30205 
53.0159 9.90051 -4.30205 -48.2532 17.0719 -4.30205 -45.2065 21.4745 -4.30205 
50.1746 17.0719 -4.30205 48.0215 20.1879 -4.30205 -42.8913 24.2433 -4.30205 
-38.0351 28.9422 -4.30205 45.0928 24.2433 -4.30205 40.8501 28.945 -4.30205 
-34.9973 31.4147 -4.30205 -30.8637 34.2696 -4.30205 -23.6923 37.8078 -4.30205 
38.3964 31.4147 -4.30205 33.6788 35.4821 -4.30205 -21.7649 38.586 -4.30205 
-16.5209 40.5658 -4.30205 -9.34954 41.8511 -4.30205 -2.17816 42.7658 -4.30205 
4.99323 43.4285 -4.30205 12.1646 43.6567 -4.30205 19.336 42.3865 -4.30205 
28.9667 38.586 -4.30205 26.5074 39.9784 -4.30205 26.5074 38.586 2.69199 
-16.5209 -42.3983 2.86933 -9.34954 -45.0932 2.86933 -2.17816 -45.5823 2.86933 
4.99323 -44.2611 2.86933 12.1646 -42.6256 2.86933 -19.9412 -40.2992 2.86933 
-23.6923 -37.6232 2.86933 -16.5209 -40.2992 6.661 -9.34954 -40.2992 9.6655 
-2.17816 -40.2992 9.54289 4.99323 -40.2992 7.561 18.1837 -40.2992 2.86933 
12.1646 -40.2992 5.48712 19.336 -39.7728 2.86933 26.5074 -36.2428 2.86933 
-29.3197 -33.1278 2.86933 -30.8637 -31.8311 2.86933 19.336 -33.1278 8.78495 
31.5405 -33.1278 2.86933 26.5074 -33.1278 6.49229 33.6788 -31.3245 2.86933 
-37.4394 -25.9564 2.86933 -38.0351 -25.3753 2.86933 38.8231 -25.9564 2.86933 
33.6788 -25.9564 7.56504 40.8501 -23.7974 2.86933 -44.3367 -18.785 2.86933 
-45.2065 -17.5704 2.86933 44.3797 -18.785 2.86933 40.8501 -18.785 6.63373 
48.0215 -12.9406 2.86933 -48.5919 -11.6136 2.86933 40.8501 -11.6136 9.56742 
48.7672 -11.6136 2.86933 48.0215 -11.6136 3.8477 -51.4075 -4.44226 2.86933 
-52.3778 1.74956 2.86933 51.9018 -4.44226 2.86933 48.0215 -4.44226 8.0591 
-52.5272 2.72913 2.86933 -52.3778 4.07919 2.86933 -52.3778 2.72913 3.33254 
52.8145 2.72913 2.86933 48.0215 2.72913 9.07575 -51.6914 9.90051 2.86933 
51.7325 9.90051 2.86933 48.0215 9.90051 7.6277 -48.6764 17.0719 2.86933 
-45.2065 21.9135 2.86933 40.8501 17.0719 9.56814 48.2719 17.0719 2.86933 
48.0215 17.4266 2.86933 48.0215 17.0719 3.18776 -43.2024 24.2433 2.86933 
-38.0351 29.0098 2.86933 42.8998 24.2433 2.86933 40.8501 26.3965 2.86933 
40.8501 24.2433 5.18207 -34.7251 31.4147 2.86933 -30.8637 34.0173 2.86933 
-30.8637 31.4147 7.85127 -23.6923 37.8011 2.86933 26.5074 38.5407 2.86933 
35.941 31.4147 2.86933 33.6788 33.4661 2.86933 33.6788 31.4147 5.57307 
-21.6601 38.586 2.86933 -16.5209 40.3459 2.86933 -16.5209 38.586 6.97071 
-9.34954 41.8199 2.86933 -2.17816 42.359 2.86933 4.99323 42.4397 2.86933 
4.99323 38.586 9.83466 12.1646 42.3637 2.86933 12.1646 38.586 8.85451 
26.418 38.586 2.86933 19.336 41.2497 2.86933 19.336 38.586 7.36832 
-23.6923 -34.1355 10.0407 -16.5209 -37.7994 10.0407 -9.34954 -39.9224 10.0407 
-2.17816 -39.7213 10.0407 4.99323 -37.3455 10.0407 12.1646 -34.2765 10.0407 
-25.1257 -33.1278 10.0407 -30.8637 -28.8614 10.0407 -23.6923 -33.1278 11.0767 
-16.5209 -33.1278 13.8989 -9.34954 -33.1278 14.451 -2.17816 -33.1278 14.1478 
4.99323 -33.1278 12.8058 14.981 -33.1278 10.0407 12.1646 -33.1278 10.777 
19.336 -30.9933 10.0407 26.5074 -27.4691 10.0407 -34.3072 -25.9564 10.0407 
-38.0351 -22.0269 10.0407 -30.8637 -25.9564 13.0587 -23.6923 -25.9564 16.3213 
-16.5209 -25.9564 17.0149 -9.34954 -25.9564 16.565 -2.17816 -25.9564 16.1016 
4.99323 -25.9564 15.376 12.1646 -25.9564 14.2114 19.336 -25.9564 12.57 
28.5294 -25.9564 10.0407 26.5074 -25.9564 10.7243 33.6788 -20.8698 10.0407 
-40.5628 -18.785 10.0407 -45.2065 -11.6908 10.0407 -38.0351 -18.785 12.7064 
-2.17816 -18.785 16.463 4.99323 -18.785 16.2842 12.1646 -18.785 15.8317 
19.336 -18.785 14.7947 26.5074 -18.785 12.9884 35.1631 -18.785 10.0407 
33.6788 -18.785 10.7261 -45.2549 -11.6136 10.0407 -45.2065 -11.6136 10.0942 
-38.0351 -11.6136 16.4093 -2.17816 -11.6136 15.9192 4.99323 -11.6136 16.2568 
12.1646 -11.6136 16.7192 19.336 -11.6136 15.8079 26.5074 -11.6136 14.4181 
39.7916 -11.6136 10.0407 33.6788 -11.6136 12.5154 40.8501 -10.272 10.0407 
-48.0516 -4.44226 10.0407 -45.2065 -4.44226 13.1605 12.1646 -4.44226 16.9344 
[...]
POINT_DATA 522
SCALARS ImageScalars float
LOOKUP_TABLE default
0 0 0 0 0 0 0 0 0 
0 0 0 0 0 0 0 0 0 
0 0 0 0 0 0 0 0 0 
0 0 0 0 0 0 0 0 0 
0 0 0 0 0 0 0 0 0 
0 0 0 0 0 0 0 0 0 
0 0 0 0 0 0 0 0 0 
0 0 0 0 0 0 0 0 0 
0 0 0 0 0 0 0 0 0 
0 0 0 0 0 0 0 0 0 
0 0 0 0 0 0 0 0 0 
0 0 0 0 0 0 0 0 0 
0 0 0 0 0 0 0 0 0 
0 0 0 0 0 0 0 0 0 
0 0 0 0 0 0 0 0 0 
0 0 0 0 0 0 0 0 0 
0 0 0 0 0 0 0 0 0 
0 0 0 0 0 0 0 0 0 
0 0 0 0 0 0 0 0 0 
0 0 0 0 0 0 0 0 0 
0 0 0 0 0 0 0 0 0 
0 0 0 0 0 0 0 0 0 
0 0 0 0 0 0 0 0 0 
0 0 0 0 0 0 0 0 0 
0 0 0 0 0 0 0 0 0 
0 0 0 0 0 0 0 0 0 
0 0 0 0 0 0 0 0 0 
0 0 0 0 0 0 0 0 0 
0 0 0 0 0 0 0 0 0 
0 0 0 0 0 0 0 0 0 
0 0 0 0 0 0 0 0 0 
0 0 0 0 0 0 0 0 0 
0 0 0 0 0 0 0 0 0 
0 0 0 0 0 0 0 0 0 
0 0 0 0 0 0 0 0 0 
0 0 0 0 0 0 0 0 0 
0 0 0 0 0 0 0 0 0 
0 0 0 0 0 0 0 0 0 
0 0 0 0 0 0 0 0 0 
0 0 0 0 0 0 0 0 0 
0 0 0 0 0 0 0 0 0 
0 0 0 0 0 0 0 0 0 
0 0 0 0 0 0 0 0 0 
0 0 0 0 0 0 0 0 0 
0 0 0 0 0 0 0 0 0 
0 0 0 0 0 0 0 0 0 
0 0 0 0 0 0 0 0 0 
0 0 0 0 0 0 0 0 0 
0 0 0 0 0 0 0 0 0 
0 0 0 0 0 0 0 0 0 
0 0 0 0 0 0 0 0 0 
0 0 0 0 0 0 0 0 0 
0 0 0 0 0 0 0 0 0 
0 0 0 0 0 0 0 0 0 
0 0 0 0 0 0 0 0 0 
0 0 0 0 0 0 0 0 0 
0 0 0 0 0 0 0 0 0 
0 0 0 0 0 0 0 0 0 

NORMALS Normals float
0.296075 0.490991 0.819309 0.166533 0.437688 0.88357 0.0441577 0.456567 0.888592 
-0.172484 0.492578 0.853004 -0.417761 0.623088 0.661239 0.299391 0.370081 0.879434 
0.1808 0.198199 0.963342 0.137922 0.133184 0.981448 0.0335078 0.120879 0.992102 
-0.0662124 0.163008 0.984401 -0.206635 0.258208 0.943732 -0.377134 0.414515 0.828219 
0.214203 0.382044 0.898977 0.0825287 0.188447 0.97861 0.0696605 0.0204517 0.997361 
0.103622 -0.028365 0.994212 0.0598981 -0.0239251 0.997918 -0.0274474 -0.00531066 0.999609 
-0.0856497 0.0260459 0.995985 -0.23757 0.155693 0.958812 -0.432649 0.310369 0.846455 
0.473908 0.47973 0.738424 0.236714 0.318716 0.917816 0.0523894 0.179495 0.982363 
-0.0855322 0.0988213 0.991423 -0.0298083 0.0464626 0.998475 0.0907876 0.0287567 0.995455 
0.0587344 0.0114944 0.998207 -0.0144467 -0.0502515 0.998632 -0.0404805 -0.0408251 0.998346 
-0.103007 0.0514395 0.99335 -0.251794 0.186031 0.949733 0.302107 0.257861 0.917736 
0.088815 0.160807 0.982982 -0.0281984 0.030307 0.999143 -0.053904 0.00737413 0.998519 
0.0087133 0.213971 0.976801 0.0701839 0.106112 0.991874 -0.0378666 0.0484594 0.998107 
-0.0828714 0.102412 0.991284 0.0112318 -0.0100271 0.999887 -0.0314821 0.0287777 0.99909 
-0.176811 0.0841091 0.980645 -0.395538 0.181021 0.900434 0.552729 0.153614 0.819081 
0.245434 0.0802505 0.966086 0.0243138 0.0415385 0.998841 -0.103413 -0.00208796 0.994636 
0.0796661 -0.039075 0.996055 0.093319 0.0818338 0.992267 -0.0960224 -0.0520694 0.994016 
0.0743835 -0.0118933 0.997159 -0.0854223 0.106419 0.990645 -0.10821 0.0262551 0.993781 
-0.00674294 0.0115559 0.99991 -0.0973152 0.0630604 0.993254 -0.268537 0.103515 0.957691 
0.527938 -0.0319304 0.848682 0.217853 0.0172139 0.97583 0.010746 0.0123677 0.999866 
-0.114379 0.0217463 0.993199 0.0047192 -0.0159177 0.999862 0.0226124 -0.304738 0.952168 
-0.0274562 -0.144946 0.989059 0.119162 -0.113502 0.986366 -0.0632169 -0.175612 0.982428 
-0.0676551 0.018604 0.997535 0.00727918 0.0495952 0.998743 -0.0863217 0.0424753 0.995361 
-0.239954 0.0256286 0.970446 -0.578038 0.0158058 0.815857 0.568559 -0.227734 0.790492 
0.275859 -0.12592 0.952914 0.0221467 -0.0993342 0.994808 -0.124724 -0.0347494 0.991583 
-0.214212 -0.0202315 0.976578 -0.0925118 -0.154209 0.983698 0.0875834 -0.0954595 0.991573 
0.04695 -0.18092 0.982376 0.0797464 -0.182997 0.979874 0.101391 -0.00204006 0.994845 
0.017156 0.0332869 0.999299 -0.116384 -0.00872288 0.993166 -0.292752 -0.05759 0.954452 
0.322605 -0.336676 0.884633 0.103029 -0.224415 0.969032 -0.0305723 -0.136604 0.990154 
-0.134725 -0.0198966 0.990683 -0.0871268 0.0888085 0.992231 -0.0206737 0.065839 0.997616 
0.0414441 0.0274967 0.998762 0.137066 0.00184906 0.99056 0.144866 -0.0120175 0.989378 
-0.00129382 -0.0609932 0.998137 -0.175231 -0.116652 0.977592 -0.386986 -0.187847 0.902749 
0.247447 -0.389728 0.887064 0.0893067 -0.243386 0.965809 0.0111687 -0.101855 0.994737 
-0.000597353 0.0156687 0.999877 0.0079699 0.0408068 0.999135 -0.00975994 0.047438 0.998827 
0.0539994 0.0140666 0.998442 0.051929 -0.0703433 0.99617 -0.0879323 -0.202124 0.975404 
-0.277908 -0.286101 0.917013 0.247699 -0.482493 0.840146 0.135426 -0.378646 0.91558 
0.0602205 -0.245855 0.967434 0.0109435 -0.206214 0.978446 0.0140515 -0.172868 0.984845 
0.0121277 -0.180287 0.983539 -0.0923646 -0.301481 0.948988 -0.203483 -0.427523 0.880806 
0.104791 -0.627759 0.771322 0.0186737 -0.573995 0.818646 -0.0641061 -0.583526 0.80956 
-0.213287 -0.61074 0.762564 0.30474 0.553415 0.775155 0.144987 0.648708 0.747099 
0.0757817 0.994602 0.0708778 0.023819 0.764347 0.644365 -0.196159 0.792325 0.577705 
-0.433667 0.669121 0.603499 0.336635 0.525846 0.781129 0.353958 0.451132 0.819264 
0.494724 0.729711 0.471985 -0.450624 0.654869 0.6067 -0.450082 0.562383 0.693651 
0.358582 0.454588 0.815334 0.348914 0.482574 0.803356 0.478545 0.587255 0.652783 
-0.480455 0.504174 0.717615 -0.502356 0.421883 0.754754 -0.667549 0.702902 0.245575 
0.502492 0.514362 0.694934 0.398186 0.561386 0.725461 0.399419 0.561638 0.724588 
0.40324 0.566459 0.718695 -0.517368 0.361976 0.775438 -0.791719 0.574347 0.208103 
0.520015 0.498631 0.693507 -0.497313 0.383543 0.778186 -0.50701 0.380943 0.77319 
-0.531789 0.40738 0.742457 0.619527 0.385934 0.68355 0.639707 0.351625 0.683473 
0.68238 0.405419 0.608271 -0.556061 0.244906 0.79424 -0.804456 0.375078 0.460615 
0.684558 0.183338 0.705527 -0.565352 0.188718 0.802971 -0.590034 0.10711 0.800242 
-0.614083 0.204502 0.762287 0.70383 -0.0323936 0.70963 0.980199 0.00678213 0.197898 
-0.59315 0.0147183 0.804957 -0.605541 -0.108239 0.788419 0.644402 -0.256756 0.720293 
0.635766 -0.325257 0.700006 -0.602656 -0.14497 0.784722 -0.618073 -0.151246 0.771434 
0.608938 -0.389744 0.690865 0.726853 -0.433997 0.532289 0.455502 -0.522588 0.720708 
-0.623837 -0.293584 0.724317 -0.553999 -0.482941 0.678124 -0.813127 -0.42861 0.39385 
0.430726 -0.524929 0.734115 0.491617 -0.568057 0.660018 0.355553 -0.532042 0.768448 
-0.542894 -0.493719 0.679344 -0.439258 -0.563069 0.700004 -0.585589 -0.526653 0.616217 
0.324012 -0.55549 0.765798 0.459559 -0.695665 0.552137 0.273329 -0.584033 0.764328 
0.200941 -0.560837 0.803172 0.167928 -0.63934 0.750363 -0.417202 -0.572692 0.705668 
-0.28658 -0.589777 0.755007 -0.472264 -0.610925 0.635403 0.268987 -0.830495 0.487775 
0.146097 -0.666526 0.731026 0.179718 -0.730629 0.658698 0.108356 -0.669173 0.735165 
0.0286409 -0.654156 0.755817 -0.0601327 -0.648416 0.758908 -0.21878 -0.615079 0.757505 
-0.214898 -0.61483 0.758817 -0.413576 -0.851977 0.321075 0.0754338 0.994792 0.068542 
0.502684 0.827718 0.249384 0.0773587 0.994599 0.0691995 0.302936 0.941142 0.149942 
0.0659912 0.995835 0.0629138 0.0745802 0.995099 0.0649363 -0.106708 0.993552 -0.0383099 
-0.287151 0.954314 -0.0826367 -0.392978 0.918486 -0.0441718 0.560216 0.788826 0.252808 
0.614996 0.749248 0.24578 -0.46367 0.885581 -0.0274875 -0.383413 0.749047 -0.5403 
-0.494992 0.868839 -0.0100631 -0.661407 0.747096 0.0662393 0.631265 0.730443 0.260687 
0.621583 0.742496 0.249669 -0.690887 0.719475 0.0709202 -0.651578 0.729114 -0.209376 
-0.790666 0.601217 0.115699 0.654894 0.72602 0.209782 0.66224 0.720317 0.206353 
-0.801253 0.585729 0.122133 -0.790211 0.609942 -0.0594786 0.754389 0.628853 0.188261 
0.77125 0.608268 0.187575 -0.843236 0.523717 0.121135 -0.859523 0.491146 0.141408 
0.881453 0.438461 0.17548 -0.888093 0.422722 0.180545 0.959693 0.218761 0.176446 
0.980529 0.00940279 0.196148 -0.947021 0.263315 0.183892 0.98048 0.00685737 0.196499 
0.980453 0.00310224 0.196729 -0.986078 -0.00872031 0.166056 0.937786 -0.268979 0.219563 
-0.960155 -0.230179 0.158493 0.839772 -0.477069 0.259206 0.774615 -0.584426 0.241698 
-0.857322 -0.499234 0.125556 -0.828828 -0.551447 0.0946049 0.722265 -0.65004 0.236183 
0.632532 -0.742256 0.221268 -0.776475 -0.625534 0.0761208 -0.724526 -0.687785 0.0448772 
0.577671 -0.78829 0.211884 0.50264 -0.836172 0.219473 0.397521 -0.890188 0.222581 
-0.688014 -0.724155 0.0472856 -0.607533 -0.790986 0.0724225 0.366387 -0.90301 0.224352 
0.273976 -0.934088 0.228947 0.150257 -0.965022 0.214839 0.109906 -0.978205 0.176168 
0.0631944 -0.987991 0.140997 -0.0755446 -0.987751 0.136533 -0.242523 -0.963329 0.114804 
-0.485035 -0.868227 0.104512 -0.417142 -0.900221 0.124883 -0.457858 -0.82039 -0.342529 
0.432923 0.868265 -0.242267 0.205584 0.92076 -0.331566 -0.0468247 0.898874 -0.435699 
-0.181501 0.818069 -0.545729 -0.232117 0.78796 -0.570298 0.514926 0.830973 -0.210558 
0.590749 0.788975 -0.168922 0.376299 0.820416 -0.430485 0.100167 0.696085 -0.710938 
-0.101887 0.673639 -0.732003 -0.201806 0.691426 -0.693689 -0.35588 0.717006 -0.599376 
-0.257832 0.705298 -0.660362 -0.368158 0.702824 -0.608686 -0.41447 0.723842 -0.551604 
0.636932 0.76242 -0.114165 0.649306 0.752941 -0.107158 -0.222871 0.555318 -0.801218 
-0.519983 0.679039 -0.518192 -0.363801 0.635493 -0.681027 -0.57314 0.64336 -0.507542 
0.689359 0.713903 -0.122995 0.695228 0.707426 -0.127304 -0.657005 0.58192 -0.479285 
-0.493746 0.491351 -0.717488 -0.689846 0.555074 -0.464764 0.769387 0.608406 -0.194644 
0.788907 0.580768 -0.200832 -0.743016 0.499377 -0.44559 -0.610784 0.423917 -0.668758 
-0.783061 0.453486 -0.425636 0.874906 0.445886 -0.18901 -0.461536 0.304105 -0.833369 
-0.796629 0.436656 -0.417987 -0.757934 0.439348 -0.482193 0.950022 0.244917 -0.193581 
0.98667 0.050399 -0.154735 -0.87622 0.267398 -0.400921 -0.662933 0.254279 -0.704175 
0.988593 0.0204125 -0.149222 0.988239 -0.029598 -0.150025 0.985118 0.0223075 -0.170428 
-0.918663 -0.0133693 -0.394816 -0.634493 -0.0251748 -0.772519 0.956881 -0.250269 -0.147462 
-0.875998 -0.261315 -0.40539 -0.682225 -0.26086 -0.683023 0.866334 -0.483611 -0.124841 
0.783227 -0.608024 -0.129859 -0.523317 -0.360067 -0.772328 -0.749862 -0.513257 -0.417462 
-0.745795 -0.518073 -0.418796 -0.739281 -0.512041 -0.437352 0.727254 -0.672031 -0.139554 
0.602061 -0.779837 -0.171396 -0.680654 -0.597332 -0.424152 -0.661941 -0.618839 -0.422933 
-0.628755 -0.562814 -0.53657 0.550044 -0.809771 -0.204264 0.49998 -0.836968 -0.222494 
0.441725 -0.75924 -0.477948 0.407648 -0.893531 -0.188215 -0.45728 -0.815382 -0.355032 
-0.629457 -0.667023 -0.398577 -0.59808 -0.697954 -0.393904 -0.58215 -0.629069 -0.515144 
0.367653 -0.910854 -0.187552 0.265477 -0.941923 -0.205677 0.262376 -0.866373 -0.42492 
0.134079 -0.974811 -0.178232 0.0422247 -0.974225 -0.221591 0.000795172 -0.95409 -0.29952 
-0.0783944 -0.761369 -0.643561 -0.0838037 -0.929294 -0.359709 -0.0985272 -0.767382 -0.633575 
-0.454598 -0.817154 -0.3544 -0.23926 -0.910337 -0.3377 -0.229901 -0.800117 -0.554038 
0.437694 0.716048 -0.543783 0.286218 0.708998 -0.644516 0.0925153 0.672785 -0.734031 
-0.10567 0.644548 -0.757227 -0.215924 0.583242 -0.783075 -0.239379 0.515699 -0.82265 
0.462641 0.713162 -0.526653 0.559925 0.684891 -0.46627 0.413232 0.69072 -0.593418 
0.180488 0.515825 -0.837466 0.0111338 0.408824 -0.912545 -0.102626 0.385944 -0.916796 
-0.209161 0.44693 -0.869773 -0.225806 0.513125 -0.828079 -0.235156 0.491372 -0.838603 
-0.213434 0.495236 -0.842133 -0.285769 0.406224 -0.867939 0.605114 0.649739 -0.460083 
0.667243 0.57439 -0.474198 0.492612 0.594766 -0.635285 0.20606 0.456489 -0.865539 
0.0106519 0.279643 -0.960045 -0.061863 0.196538 -0.978543 -0.0824732 0.15146 -0.985017 
-0.122786 0.218229 -0.968142 -0.184906 0.317705 -0.929985 -0.222533 0.368565 -0.902573 
-0.322619 0.385872 -0.864303 -0.274142 0.358224 -0.892481 -0.388493 0.3164 -0.865427 
0.692391 0.516041 -0.504278 0.734545 0.397538 -0.549916 0.620819 0.47534 -0.623407 
-0.0799908 -0.0129673 -0.996711 -0.0433991 0.0613999 -0.997169 -0.100777 0.1636 -0.981366 
-0.190603 0.209998 -0.958943 -0.268776 0.23608 -0.933823 -0.397433 0.284496 -0.872416 
-0.361014 0.264135 -0.894372 0.735213 0.396078 -0.550077 0.733812 0.395562 -0.552314 
0.442177 0.260843 -0.858161 -0.103311 0.104125 -0.989184 0.0555301 0.0765904 -0.995515 
-0.030882 0.0763422 -0.996603 -0.155239 0.0766081 -0.984902 -0.214742 0.154864 -0.964315 
-0.429795 0.287003 -0.856099 -0.300844 0.236345 -0.923923 -0.433548 0.279693 -0.856626 
0.786808 0.235241 -0.570609 0.673214 0.234592 -0.701249 -0.102735 -0.0260532 -0.994368 
-0.112491 0.0270501 -0.993284 -0.105031 0.0926427 -0.990144 -0.229494 0.15309 -0.961195 
-0.498517 0.222752 -0.837772 -0.366361 0.190438 -0.910776 0.841372 0.0582545 -0.537307 
0.652961 0.0824824 -0.752887 -0.0933897 0.0582791 -0.993922 -0.0375775 0.0818391 -0.995937 
-0.0952933 0.0646895 -0.993345 -0.207734 0.0247932 -0.977871 -0.556592 -0.0198715 -0.830548 
-0.373232 0.010315 -0.927681 0.846791 -0.213683 -0.487118 0.67282 -0.179152 -0.717786 
-0.114136 0.118192 -0.986409 -0.15876 0.0250904 -0.986998 -0.279456 -0.0851072 -0.956379 
-0.517929 -0.213948 -0.828236 -0.499957 -0.326133 -0.802297 -0.412733 -0.175282 -0.893827 
0.742712 -0.467672 -0.47923 0.719013 -0.502028 -0.480613 0.714036 -0.46753 -0.521123 
0.392921 -0.386656 -0.834332 -0.0649583 -0.0439646 -0.996919 0.0433039 -0.103757 -0.99366 
-0.284544 -0.0968973 -0.953753 -0.504063 -0.343693 -0.792336 -0.384555 -0.244774 -0.890058 
0.543295 -0.660672 -0.518018 0.509984 -0.680742 -0.52584 0.489115 -0.650852 -0.580653 
0.38922 -0.704526 -0.593423 0.256683 -0.569473 -0.780906 0.0838404 -0.402343 -0.911642 
0.0333441 -0.241648 -0.969791 0.0277204 -0.0891272 -0.995634 0.0162068 -0.0824429 -0.996464 
0.0507212 -0.157711 -0.986182 -0.176984 -0.255193 -0.950554 -0.378212 -0.316881 -0.869794 
-0.503258 -0.412056 -0.759566 -0.500949 -0.424724 -0.754095 -0.492207 -0.398091 -0.774116 
0.379427 -0.687633 -0.619029 0.351759 -0.682808 -0.640343 0.309424 -0.609233 -0.730131 
0.255387 -0.731584 -0.632109 0.219463 -0.452917 -0.864119 0.0973276 -0.359355 -0.928112 
-0.0340834 -0.358281 -0.932991 -0.0797431 -0.749807 -0.656834 -0.0697097 -0.412025 -0.908502 
-0.103985 -0.707452 -0.69907 -0.0865912 -0.472736 -0.876939 -0.229172 -0.676543 -0.699836 
-0.218355 -0.501448 -0.83718 -0.417801 -0.551349 -0.72212 -0.399 -0.568168 -0.719711 
-0.393923 -0.545214 -0.739977 0.144955 -0.800824 -0.581092 0.121523 -0.808251 -0.576162 
0.12136 -0.794445 -0.595088 -0.0700155 -0.759672 -0.646526 -0.026386 -0.788381 -0.614621 
-0.0292254 -0.763603 -0.645024 0.336109 0.296137 -0.894055 0.15332 0.365394 -0.91814 
-0.00480134 0.262485 -0.964924 -0.121528 0.110134 -0.986459 0.338116 0.294384 -0.893877 
0.334468 0.292113 -0.895992 0.0778888 0.199526 -0.976792 -0.104049 0.154089 -0.982563 
-0.126895 0.0629029 -0.98992 -0.140184 0.0838029 -0.986573 0.353414 0.217616 -0.909803 
0.39294 0.198685 -0.897843 0.206263 0.148774 -0.96712 0.0452639 0.0631242 -0.996979 
-0.12102 0.0170247 -0.992504 -0.198253 0.0828392 -0.976644 -0.23428 0.072307 -0.969477 
-0.0880182 0.172641 -0.981044 -0.0524698 0.0876969 -0.994764 0.403209 0.168818 -0.899401 
0.363756 0.162363 -0.917235 0.133805 0.133396 -0.981989 -0.0516394 0.0514245 -0.997341 
-0.0985356 -0.0204887 -0.994923 -0.0602811 0.0368397 -0.997501 -0.0750123 0.208562 -0.975128 
-0.0825752 0.0464324 -0.995503 -0.0705751 0.0896195 -0.993472 0.471676 0.0757808 -0.87851 
0.326323 0.0694634 -0.942703 0.0855256 0.0523915 -0.994958 -0.108518 0.0251106 -0.993777 
-0.139093 0.0117236 -0.99021 -0.00150736 -0.0635455 -0.997978 -0.0529013 0.0229896 -0.998335 
-0.15739 0.0603186 -0.985693 -0.181657 0.0619326 -0.98141 -0.0858096 0.0974982 -0.99153 
0.466304 -0.145501 -0.872577 0.38279 -0.349934 -0.854996 0.325978 -0.130141 -0.936377 
0.0850233 -0.121197 -0.98898 -0.0919649 -0.1037 -0.990348 -0.185947 -0.0727604 -0.979862 
-0.0597951 -0.0791267 -0.99507 -0.0540063 -0.106382 -0.992858 0.0465545 -0.114373 -0.992346 
0.054477 -0.146852 -0.987657 -0.0363186 -0.00604842 -0.999322 -0.108857 0.119245 -0.986879 
-0.0778894 0.122449 -0.989414 -0.11698 0.100431 -0.988043 0.35149 -0.377641 -0.856646 
0.155751 -0.428203 -0.89016 0.1035 -0.322085 -0.941036 0.0213915 -0.348058 -0.937229 
-0.0629906 -0.265794 -0.96197 -0.0827025 -0.0924771 -0.992274 -0.0523942 -0.211512 -0.97597 
-0.12116 -0.187756 -0.974714 0.0625825 -0.0942611 -0.993579 0.0607951 -0.135468 -0.988915 
0.0824499 -0.0825688 -0.993169 0.0250669 -0.0191912 -0.999502 -0.191406 -0.0396658 -0.980709 
-0.164948 -0.188706 -0.968082 -0.129774 -0.0118433 -0.991473 0.0330473 -0.183601 -0.982445 
-0.0962407 -0.247622 -0.964065 -0.0140296 -0.260147 -0.965467 -0.00728856 -0.238677 -0.971072 

