# vtk DataFile Version 4.2
vtk output
ASCII
DATASET POLYDATA
POINTS 502 float
-17.5576 -31.5935 -16.6881 -9.63513 -31.5935 -17.1908 -1.71262 -31.5935 -16.4793 
22.0549 -31.5935 -16.3682 29.9774 -31.5935 -16.5265 -33.4026 -23.671 -17.016 
-25.4801 -23.671 -19.2473 -17.5576 -23.671 -20.6523 -9.63513 -23.671 -21.1878 
-1.71262 -23.671 -20.6554 6.20988 -23.671 -19.2929 14.1324 -23.671 -19.7379 
22.0549 -23.671 -21.3991 29.9774 -23.671 -21.7952 37.8999 -23.671 -21.5997 
45.8224 -23.671 -19.07 -33.4026 -15.7485 -19.1699 -25.4801 -15.7485 -21.3959 
-17.5576 -15.7485 -22.9711 -9.63513 -15.7485 -23.0151 -1.71262 -15.7485 -21.4716 
6.20988 -15.7485 -20.3466 14.1324 -15.7485 -21.1209 22.0549 -15.7485 -22.8033 
29.9774 -15.7485 -23.4593 37.8999 -15.7485 -23.3478 45.8224 -15.7485 -22.0799 
53.7449 -15.7485 -17.6445 -41.3251 -7.82602 -18.3995 -33.4026 -7.82602 -20.5793 
-25.4801 -7.82602 -22.356 -17.5576 -7.82602 -23.7813 -9.63513 -7.82602 -23.0859 
-1.71262 -7.82602 -20.9139 6.20988 -7.82602 -21.6456 14.1324 -7.82602 -21.1124 
22.0549 -7.82602 -22.2242 29.9774 -7.82602 -23.3554 37.8999 -7.82602 -23.7807 
45.8224 -7.82602 -22.9378 53.7449 -7.82602 -19.641 -41.3251 0.0964864 -19.365 
-33.4026 0.0964864 -21.2653 -25.4801 0.0964864 -21.9566 -17.5576 0.0964864 -22.465 
-9.63513 0.0964864 -21.7587 -1.71262 0.0964864 -20.7143 6.20988 0.0964864 -23.5728 
14.1324 0.0964864 -20.1262 22.0549 0.0964864 -21.2586 29.9774 0.0964864 -22.763 
37.8999 0.0964864 -23.3336 45.8224 0.0964864 -22.414 53.7449 0.0964864 -18.9584 
-41.3251 8.01899 -19.1136 -33.4026 8.01899 -21.1175 -25.4801 8.01899 -21.7165 
-17.5576 8.01899 -21.7042 -9.63513 8.01899 -22.1444 -1.71262 8.01899 -21.9363 
6.20988 8.01899 -21.0061 14.1324 8.01899 -19.9406 22.0549 8.01899 -21.1392 
29.9774 8.01899 -22.2895 37.8999 8.01899 -22.4161 45.8224 8.01899 -21.2285 
53.7449 8.01899 -17.062 -41.3251 15.9415 -17.842 -33.4026 15.9415 -20.0775 
-25.4801 15.9415 -21.1787 -17.5576 15.9415 -21.8878 -9.63513 15.9415 -22.8586 
-1.71262 15.9415 -21.9213 6.20988 15.9415 -20.5808 14.1324 15.9415 -21.0738 
22.0549 15.9415 -21.9019 29.9774 15.9415 -22.1112 37.8999 15.9415 -21.474 
45.8224 15.9415 -18.7282 -33.4026 23.864 -17.7352 -25.4801 23.864 -19.5563 
-17.5576 23.864 -20.9906 -9.63513 23.864 -22.0487 -1.71262 23.864 -21.562 
6.20988 23.864 -20.8298 14.1324 23.864 -21.1221 22.0549 23.864 -21.7072 
29.9774 23.864 -20.4929 37.8999 23.864 -18.1514 -17.5576 31.7865 -17.9773 
-9.63513 31.7865 -19.7576 -1.71262 31.7865 -19.7997 6.20988 31.7865 -19.4382 
14.1324 31.7865 -18.7475 22.0549 31.7865 -18.4929 -17.5576 -32.5202 -15.9083 
-9.63513 -32.9253 -15.9083 -1.71262 -32.145 -15.9083 22.0549 -31.9642 -15.9083 
29.9774 -32.1543 -15.9083 -33.4026 -25.7559 -15.9083 -33.4026 -31.5935 -11.9971 
-22.8031 -31.5935 -15.9083 -25.4801 -30.8305 -15.9083 -25.4801 -31.5935 -15.4427 
2.00274 -31.5935 -15.9083 6.20988 -30.5083 -15.9083 6.20988 -31.5935 -14.8397 
19.6236 -31.5935 -15.9083 14.1324 -30.3174 -15.9083 14.1324 -31.5935 -14.5115 
34.781 -31.5935 -15.9083 37.8999 -31.1497 -15.9083 37.8999 -31.5935 -14.6999 
45.8224 -26.8409 -15.9083 -35.6823 -23.671 -15.9083 -41.3251 -23.671 -12.2355 
49.579 -23.671 -15.9083 53.7449 -18.5263 -15.9083 -49.2477 -15.7485 -9.22963 
-41.1208 -15.7485 -15.9083 -41.3251 -15.4915 -15.9083 -41.3251 -15.7485 -15.8066 
55.4875 -15.7485 -15.9083 -45.9364 -7.82602 -15.9083 -49.2477 -7.82602 -13.5471 
57.7083 -7.82602 -15.9083 -47.99 0.0964864 -15.9083 -49.2477 0.0964864 -15.0836 
57.0086 0.0964864 -15.9083 -48.1778 8.01899 -15.9083 -49.2477 8.01899 -15.1966 
54.9516 8.01899 -15.9083 53.7449 10.1311 -15.9083 -44.6334 15.9415 -15.9083 
-49.2477 15.9415 -11.471 -41.3251 20.0694 -15.9083 49.387 15.9415 -15.9083 
45.8224 19.7557 -15.9083 53.7449 15.9415 -10.2965 -37.3136 23.864 -15.9083 
-41.3251 23.864 -13.3375 -33.4026 26.697 -15.9083 -25.4801 31.0801 -15.9083 
29.9774 31.636 -15.9083 41.5628 23.864 -15.9083 37.8999 26.6929 -15.9083 
45.8224 23.864 -10.3747 -33.4026 31.7865 -11.118 -24.1965 31.7865 -15.9083 
-25.4801 31.7865 -15.3739 -17.5576 34.4592 -15.9083 -9.63513 37.0662 -15.9083 
-1.71262 37.5999 -15.9083 6.20988 36.8255 -15.9083 14.1324 35.5055 -15.9083 
29.6657 31.7865 -15.9083 22.0549 34.4607 -15.9083 29.9774 31.7865 -15.6683 
-17.5576 39.709 -8.36505 -9.63513 39.709 -11.9272 -1.71262 39.709 -13.118 
6.20988 39.709 -11.4199 -33.4026 -35.4076 -7.98578 -25.4801 -38.185 -7.98578 
-25.4801 -39.516 -3.65174 -17.5576 -38.3113 -7.98578 -17.5576 -39.516 -1.31331 
-9.63513 -37.1156 -7.98578 -1.71262 -35.9321 -7.98578 6.20988 -35.0012 -7.98578 
14.1324 -34.8949 -7.98578 22.0549 -35.3632 -7.98578 29.9774 -35.1408 -7.98578 
37.8999 -33.3236 -7.98578 -38.9168 -31.5935 -7.98578 -41.3251 -29.1808 -7.98578 
-41.3251 -31.5935 -4.18115 42.0761 -31.5935 -7.98578 45.8224 -29.8658 -7.98578 
-45.6321 -23.671 -7.98578 -49.2477 -17.6992 -7.98578 -49.2477 -23.671 -0.98423 
53.5076 -23.671 -7.98578 53.7449 -23.4149 -7.98578 -50.2898 -15.7485 -7.98578 
59.108 -15.7485 -7.98578 -53.8625 -7.82602 -7.98578 61.4233 -7.82602 -7.98578 
-55.6281 0.0964864 -7.98578 -57.1702 0.0964864 -3.44117 61.1427 0.0964864 -7.98578 
-54.4859 8.01899 -7.98578 59.0033 8.01899 -7.98578 -51.6156 15.9415 -7.98578 
-49.2477 19.7529 -7.98578 54.9161 15.9415 -7.98578 53.7449 17.409 -7.98578 
-46.2232 23.864 -7.98578 -41.3251 28.8164 -7.98578 37.8999 30.7635 -7.98578 
47.1974 23.864 -7.98578 45.8224 25.0598 -7.98578 -37.1931 31.7865 -7.98578 
-33.4026 34.0945 -7.98578 -25.4801 37.4706 -7.98578 14.1324 39.5883 -7.98578 
22.0549 37.603 -7.98578 36.0427 31.7865 -7.98578 29.9774 34.8225 -7.98578 
-18.2371 39.709 -7.98578 -17.5576 39.8943 -7.98578 -9.63513 41.4869 -7.98578 
-1.71262 41.9872 -7.98578 13.5449 39.709 -7.98578 6.20988 41.1924 -7.98578 
-25.4801 -40.4394 -0.0632793 -17.5576 -39.7238 -0.0632793 -41.3251 -33.3177 -0.0632793 
-28.4971 -39.516 -0.0632793 -33.4026 -37.9532 -0.0632793 -25.4801 -39.516 4.8861 
-16.708 -39.516 -0.0632793 -17.5576 -39.516 0.995147 -9.63513 -37.7176 -0.0632793 
-1.71262 -35.8814 -0.0632793 6.20988 -35.1614 -0.0632793 14.1324 -35.0054 -0.0632793 
22.0549 -34.835 -0.0632793 29.9774 -34.2122 -0.0632793 37.8999 -32.5469 -0.0632793 
-43.22 -31.5935 -0.0632793 -49.2477 -24.2117 -0.0632793 29.9774 -31.5935 5.84654 
40.1614 -31.5935 -0.0632793 37.8999 -31.5935 2.11931 45.8224 -28.8748 -0.0632793 
-49.6542 -23.671 -0.0632793 52.5748 -23.671 -0.0632793 53.7449 -22.4022 -0.0632793 
-53.8037 -15.7485 -0.0632793 58.4051 -15.7485 -0.0632793 -56.9329 -7.82602 -0.0632793 
-57.1702 -6.28427 -0.0632793 61.2389 -7.82602 -0.0632793 -58.0826 0.0964864 -0.0632793 
-57.1702 5.21699 -0.0632793 -57.1702 0.0964864 6.78712 61.3522 0.0964864 -0.0632793 
-56.6452 8.01899 -0.0632793 59.3872 8.01899 -0.0632793 -53.5296 15.9415 -0.0632793 
-49.2477 22.9221 -0.0632793 55.4367 15.9415 -0.0632793 53.7449 18.0163 -0.0632793 
53.7449 15.9415 4.48122 -48.5646 23.864 -0.0632793 -41.3251 31.5907 -0.0632793 
37.8999 30.6741 -0.0632793 47.8287 23.864 -0.0632793 45.8224 25.5462 -0.0632793 
45.8224 23.864 4.32753 -41.072 31.7865 -0.0632793 -33.4026 36.4795 -0.0632793 
-25.4801 39.4986 -0.0632793 14.1324 39.2916 -0.0632793 22.0549 36.9564 -0.0632793 
35.5348 31.7865 -0.0632793 29.9774 34.1863 -0.0632793 29.9774 31.7865 5.20541 
-23.7965 39.709 -0.0632793 -17.5576 40.4715 -0.0632793 -17.5576 39.709 2.23735 
-9.63513 41.111 -0.0632793 -9.63513 39.709 3.08909 -1.71262 41.3694 -0.0632793 
-1.71262 39.709 3.63938 12.0752 39.709 -0.0632793 6.20988 40.8356 -0.0632793 
6.20988 39.709 2.71362 -41.3251 -32.3018 7.85923 -33.4026 -37.0226 7.85923 
-25.4801 -38.9205 7.85923 -17.5576 -38.0956 7.85923 -9.63513 -36.1985 7.85923 
-1.71262 -34.5142 7.85923 6.20988 -33.583 7.85923 14.1324 -32.7431 7.85923 
22.0549 -31.8961 7.85923 -42.156 -31.5935 7.85923 -49.2477 -23.8986 7.85923 
-41.3251 -31.5935 9.43245 -1.71262 -31.5935 14.2153 6.20988 -31.5935 11.3457 
14.1324 -31.5935 9.70769 24.0274 -31.5935 7.85923 22.0549 -31.5935 8.2933 
29.9774 -30.5631 7.85923 37.8999 -28.4076 7.85923 45.8224 -24.3569 7.85923 
-49.426 -23.671 7.85923 -49.2477 -23.671 8.29788 29.9774 -23.671 15.5357 
37.8999 -23.671 13.3618 46.6616 -23.671 7.85923 45.8224 -23.671 8.60184 
53.7449 -16.3085 7.85923 -53.8894 -15.7485 7.85923 45.8224 -15.7485 14.9159 
54.1543 -15.7485 7.85923 53.7449 -15.7485 8.31817 -56.5058 -7.82602 7.85923 
57.4344 -7.82602 7.85923 53.7449 -7.82602 11.7495 -57.0186 0.0964864 7.85923 
57.7526 0.0964864 7.85923 53.7449 0.0964864 12.4784 -55.4735 8.01899 7.85923 
56.236 8.01899 7.85923 53.7449 13.0107 7.85923 53.7449 8.01899 10.8607 
-51.9313 15.9415 7.85923 -49.2477 20.7211 7.85923 -49.2477 15.9415 13.0047 
52.0005 15.9415 7.85923 45.8224 22.0733 7.85923 45.8224 15.9415 14.1434 
-47.1867 23.864 7.85923 -41.3251 30.3447 7.85923 14.1324 23.864 15.6083 
22.0549 23.864 15.1134 29.9774 30.3713 7.85923 29.9774 23.864 14.5941 
43.3545 23.864 7.85923 37.8999 27.1851 7.85923 37.8999 23.864 11.9367 
-39.6015 31.7865 7.85923 -33.4026 35.4629 7.85923 -33.4026 31.7865 14.0009 
-25.4801 37.7627 7.85923 -17.5576 37.6221 7.85923 -17.5576 31.7865 15.0718 
-9.63513 37.1837 7.85923 -9.63513 31.7865 13.2819 -1.71262 37.3855 7.85923 
-1.71262 31.7865 13.2805 6.20988 37.1675 7.85923 6.20988 31.7865 13.2337 
14.1324 35.4288 7.85923 14.1324 31.7865 11.7272 25.8178 31.7865 7.85923 
22.0549 32.9826 7.85923 22.0549 31.7865 9.19217 -33.4026 -32.7913 15.7817 
-25.4801 -34.8114 15.7817 -17.5576 -34.5299 15.7817 -9.63513 -32.9181 15.7817 
-35.6694 -31.5935 15.7817 -41.3251 -27.8396 15.7817 -33.4026 -31.5935 17.1594 
-25.4801 -31.5935 19.7585 -17.5576 -31.5935 19.5335 -4.72706 -31.5935 15.7817 
-9.63513 -31.5935 17.5184 -1.71262 -30.4958 15.7817 6.20988 -27.23 15.7817 
14.1324 -25.0064 15.7817 22.0549 -24.1685 15.7817 -45.3649 -23.671 15.7817 
-49.2477 -18.5476 15.7817 -41.3251 -23.671 19.5193 -1.71262 -23.671 20.7619 
6.20988 -23.671 17.9971 14.1324 -23.671 16.5609 27.1354 -23.671 15.7817 
22.0549 -23.671 16.1338 29.9774 -23.2815 15.7817 37.8999 -20.1291 15.7817 
[...]
POINT_DATA 502
SCALARS ImageScalars float
LOOKUP_TABLE default
0 0 0 0 0 0 0 0 0 
0 0 0 0 0 0 0 0 0 
0 0 0 0 0 0 0 0 0 
0 0 0 0 0 0 0 0 0 
0 0 0 0 0 0 0 0 0 
0 0 0 0 0 0 0 0 0 
0 0 0 0 0 0 0 0 0 
0 0 0 0 0 0 0 0 0 
0 0 0 0 0 0 0 0 0 
0 0 0 0 0 0 0 0 0 
0 0 0 0 0 0 0 0 0 
0 0 0 0 0 0 0 0 0 
0 0 0 0 0 0 0 0 0 
0 0 0 0 0 0 0 0 0 
0 0 0 0 0 0 0 0 0 
0 0 0 0 0 0 0 0 0 
0 0 0 0 0 0 0 0 0 
0 0 0 0 0 0 0 0 0 
0 0 0 0 0 0 0 0 0 
0 0 0 0 0 0 0 0 0 
0 0 0 0 0 0 0 0 0 
0 0 0 0 0 0 0 0 0 
0 0 0 0 0 0 0 0 0 
0 0 0 0 0 0 0 0 0 
0 0 0 0 0 0 0 0 0 
0 0 0 0 0 0 0 0 0 
0 0 0 0 0 0 0 0 0 
0 0 0 0 0 0 0 0 0 
0 0 0 0 0 0 0 0 0 
0 0 0 0 0 0 0 0 0 
0 0 0 0 0 0 0 0 0 
0 0 0 0 0 0 0 0 0 
0 0 0 0 0 0 0 0 0 
0 0 0 0 0 0 0 0 0 
0 0 0 0 0 0 0 0 0 
0 0 0 0 0 0 0 0 0 
0 0 0 0 0 0 0 0 0 
0 0 0 0 0 0 0 0 0 
0 0 0 0 0 0 0 0 0 
0 0 0 0 0 0 0 0 0 
0 0 0 0 0 0 0 0 0 
0 0 0 0 0 0 0 0 0 
0 0 0 0 0 0 0 0 0 
0 0 0 0 0 0 0 0 0 
0 0 0 0 0 0 0 0 0 
0 0 0 0 0 0 0 0 0 
0 0 0 0 0 0 0 0 0 
0 0 0 0 0 0 0 0 0 
0 0 0 0 0 0 0 0 0 
0 0 0 0 0 0 0 0 0 
0 0 0 0 0 0 0 0 0 
0 0 0 0 0 0 0 0 0 
0 0 0 0 0 0 0 0 0 
0 0 0 0 0 0 0 0 0 
0 0 0 0 0 0 0 0 0 
0 0 0 0 0 0 0 
NORMALS Normals float
0.0917997 0.597873 0.796317 -0.00915734 0.656114 0.754606 -0.105422 0.711961 0.694261 
0.0814933 0.769292 0.633679 -0.0409987 0.78181 0.622168 0.345995 0.356492 0.867871 
0.21477 0.334814 0.917482 0.114809 0.350072 0.92966 -0.000900813 0.318205 0.948021 
-0.114266 0.260316 0.958738 -0.0572605 0.27088 0.960909 0.120959 0.317662 0.940457 
0.132139 0.321058 0.937796 0.0115804 0.367231 0.930058 -0.139532 0.410235 0.901242 
-0.452439 0.539612 0.710012 0.320226 0.210227 0.923721 0.227329 0.186533 0.955786 
0.0986575 0.188454 0.977114 -0.0946602 0.115099 0.988833 -0.167265 0.0157773 0.985786 
-0.0218601 0.138416 0.990133 0.15343 0.0833025 0.984642 0.150281 0.0436876 0.987678 
0.033274 0.0946323 0.994956 -0.0808538 0.121752 0.989262 -0.317343 0.194662 0.928117 
-0.653604 0.337643 0.677347 0.372093 0.198346 0.906756 0.244863 0.126464 0.961275 
0.193104 0.0325962 0.980637 0.046706 -0.0306076 0.99844 -0.180184 -0.07865 0.980484 
-0.0877254 -0.0474487 0.995014 0.0122434 0.202175 0.979273 0.0385323 -0.0628543 0.997279 
0.14072 -0.096034 0.985381 0.0972673 -0.0441642 0.994278 -0.0227644 0.00100731 0.99974 
-0.224306 0.0209251 0.974294 -0.570133 0.0696334 0.818596 0.339796 0.0456457 0.939391 
0.157492 0.0325195 0.986985 0.0724621 -0.0393075 0.996596 -0.0110934 -0.130582 0.991375 
-0.108271 -0.0563987 0.99252 0.109228 0.0673455 0.991733 -0.0477081 -0.0379954 0.998138 
-0.137299 -0.0759203 0.987616 0.166394 -0.0683057 0.983691 0.128849 -0.0666659 0.989421 
-0.0193284 -0.0852346 0.996173 -0.239586 -0.103739 0.965317 -0.583825 -0.135858 0.800432 
0.336295 -0.0922544 0.937227 0.154375 -0.0749274 0.985167 0.0360561 -0.0506284 0.998066 
0.0268775 -0.034476 0.999044 0.0148171 0.0683251 0.997553 -0.067292 0.072364 0.995106 
-0.127992 -0.184832 0.9744 0.0133216 0.0607541 0.998064 0.144667 0.0405285 0.98865 
0.0800418 -0.040737 0.995959 -0.0635356 -0.110842 0.991805 -0.285414 -0.188848 0.939615 
-0.648181 -0.327865 0.687289 0.398952 -0.273599 0.875203 0.201367 -0.192529 0.960408 
0.111593 -0.129323 0.985303 0.106505 -0.0435188 0.993359 0.00248921 -0.00573403 0.99998 
-0.145021 -0.0237076 0.989145 -0.0524873 -0.00827244 0.998587 0.0838051 0.0724329 0.993846 
0.064893 0.0361449 0.997237 -0.0228371 -0.110323 0.993633 -0.17549 -0.251018 0.951942 
-0.46718 -0.436634 0.768826 0.311594 -0.426075 0.849335 0.190183 -0.317508 0.928988 
0.153304 -0.219755 0.963434 0.0346072 -0.182472 0.982602 -0.0787033 -0.119517 0.989708 
-0.0269876 -0.066097 0.997448 0.0542331 -0.135393 0.989307 -0.0383033 -0.18227 0.982502 
-0.198383 -0.328777 0.923336 -0.401803 -0.521457 0.752753 0.239218 -0.511327 0.825421 
0.100338 -0.440035 0.892357 -0.0198582 -0.386991 0.92187 -0.0632809 -0.398447 0.915006 
-0.0576789 -0.48952 0.870082 -0.156974 -0.610352 0.776421 0.081021 0.633555 0.769443 
-0.0235031 0.720442 0.693117 -0.107223 0.739927 0.664087 0.0798273 0.789443 0.608611 
-0.0444471 0.805452 0.590991 0.355213 0.41027 0.839942 0.398575 0.619648 0.676146 
0.180669 0.570911 0.800886 0.225984 0.531358 0.81645 0.226492 0.56214 0.795424 
-0.0941009 0.718631 0.688995 -0.0783623 0.657642 0.749244 -0.077466 0.757237 0.648529 
0.073176 0.764538 0.640412 0.0658795 0.671662 0.737923 0.0534997 0.783442 0.619158 
-0.175201 0.828784 0.531434 -0.257879 0.828633 0.496855 -0.269325 0.866997 0.419262 
-0.485059 0.696722 0.528485 0.39951 0.369533 0.83895 0.585093 0.429327 0.688001 
-0.587282 0.595405 0.548264 -0.686081 0.424469 0.590863 0.716973 0.407682 0.565461 
0.46016 0.308225 0.832616 0.460964 0.307327 0.832504 0.465026 0.311573 0.828658 
-0.721784 0.344455 0.600315 0.514951 0.221293 0.828164 0.649483 0.245627 0.719611 
-0.752857 0.0873364 0.652363 0.560849 0.0761728 0.824406 0.614927 0.0796492 0.784551 
-0.737235 -0.139911 0.660991 0.579968 -0.121166 0.805578 0.634503 -0.13394 0.761227 
-0.698386 -0.333493 0.633277 -0.670663 -0.379413 0.637382 0.515202 -0.317907 0.795928 
0.740317 -0.4017 0.539043 0.457122 -0.405832 0.791416 -0.581112 -0.501118 0.64124 
-0.545381 -0.558168 0.625306 -0.750751 -0.558313 0.353072 0.40812 -0.482484 0.775014 
0.529671 -0.556427 0.640185 0.34806 -0.522234 0.778541 0.294948 -0.569844 0.766997 
-0.363232 -0.715885 0.596299 -0.506415 -0.587051 0.631597 -0.458944 -0.631128 0.625339 
-0.625947 -0.707451 0.328183 0.414517 -0.724376 0.550867 0.294344 -0.582025 0.758029 
0.306808 -0.604528 0.735129 0.253417 -0.62461 0.738676 0.135949 -0.699572 0.70151 
-0.0107777 -0.691799 0.722009 -0.0933871 -0.684982 0.72255 -0.115035 -0.691723 0.712942 
-0.358915 -0.719732 0.594278 -0.204101 -0.754033 0.624322 -0.367449 -0.729239 0.577228 
0.233088 -0.929469 0.285931 0.14411 -0.900452 0.410387 -0.0133847 -0.871667 0.489916 
-0.13866 -0.915395 0.377922 0.408148 0.775186 0.482185 0.152171 0.878528 0.452806 
0.124252 0.96924 0.212452 -0.0681015 0.934056 0.350573 -0.153876 0.987307 0.0393381 
-0.140285 0.959701 0.243505 -0.1295 0.972781 0.192165 -0.0626043 0.973828 0.218494 
0.0238718 0.97611 0.215961 0.0158059 0.988901 0.147735 -0.12731 0.986459 0.103399 
-0.298554 0.951674 0.0719822 0.562554 0.654863 0.504666 0.629816 0.589743 0.505505 
0.652978 0.691356 0.309267 -0.38282 0.92076 0.0751692 -0.483234 0.871122 0.0873592 
0.695696 0.487535 0.527558 0.734659 0.434551 0.521 0.807503 0.551065 0.210395 
-0.735804 0.667248 0.115639 -0.744246 0.6576 0.116872 0.751374 0.40868 0.518091 
-0.904918 0.400878 0.142898 0.825872 0.26485 0.497784 -0.977598 0.12531 0.169115 
0.876514 0.0360684 0.480022 0.972346 0.00396809 0.23351 -0.967202 -0.135517 0.214839 
0.88238 -0.21439 0.418859 -0.901785 -0.37099 0.221697 0.829637 -0.408241 0.380843 
0.771932 -0.507576 0.382738 -0.792385 -0.560117 0.24165 -0.764436 -0.598661 0.239253 
0.686281 -0.610288 0.395685 0.580831 -0.70421 0.408318 -0.51423 -0.841615 0.165081 
-0.647083 -0.730199 0.219301 -0.629021 -0.747353 0.213999 0.49817 -0.758484 0.420153 
0.427943 -0.798445 0.423499 0.321583 -0.863427 0.388689 -0.216953 -0.962474 0.16302 
-0.280589 -0.95262 0.117411 -0.480913 -0.86358 0.151499 -0.386686 -0.914281 0.120681 
0.238209 -0.931085 0.276292 0.230582 -0.93548 0.267786 0.127321 -0.974799 0.183183 
-0.0185567 -0.986653 0.161775 -0.211707 -0.963606 0.16323 -0.148102 -0.972968 0.177198 
0.105647 0.993893 0.0318675 -0.166471 0.985929 -0.0152044 0.645538 0.755721 0.110306 
0.211624 0.97643 0.0424311 0.383645 0.920925 0.0686576 0.0821283 0.979422 -0.184356 
-0.173938 0.984572 -0.0190525 -0.166635 0.984695 -0.0510761 -0.235143 0.970443 -0.0542939 
-0.15681 0.983829 -0.0865468 -0.0540698 0.994888 -0.0852873 -0.020255 0.991887 -0.125502 
-0.0474859 0.977866 -0.203775 -0.142278 0.955913 -0.256879 -0.297482 0.920322 -0.253991 
0.694699 0.709469 0.118519 0.809856 0.561958 0.168337 -0.165969 0.87626 -0.452353 
-0.342802 0.904542 -0.253557 -0.296329 0.894725 -0.33415 -0.478921 0.83769 -0.262505 
0.815684 0.55296 0.169983 -0.697691 0.665669 -0.264786 -0.73757 0.621683 -0.263632 
0.899363 0.399276 0.178114 -0.858416 0.444695 -0.255672 0.959328 0.24328 0.143191 
0.972478 0.193957 0.129103 -0.962144 0.175797 -0.208265 0.997415 -0.0179205 0.0695883 
0.982274 -0.178845 0.0561534 0.981258 -0.0584648 -0.183614 -0.976759 -0.10775 -0.185289 
0.963512 -0.262973 0.0498889 -0.923315 -0.357648 -0.139918 0.899926 -0.435723 0.0167058 
0.800291 -0.598285 0.0398735 -0.812144 -0.568745 -0.130198 -0.775544 -0.618594 -0.125993 
-0.77016 -0.546075 -0.32963 0.783287 -0.620138 0.0434773 0.630691 -0.772606 0.0728611 
-0.473777 -0.863107 -0.174877 -0.646408 -0.752988 -0.123148 -0.606469 -0.784032 -0.132244 
-0.583488 -0.749353 -0.31307 0.623519 -0.77828 0.0741834 0.42834 -0.901198 0.0660809 
0.229261 -0.973293 0.0118175 -0.228887 -0.949729 -0.213603 -0.293126 -0.924521 -0.243593 
-0.439009 -0.877523 -0.192939 -0.360651 -0.903804 -0.230368 -0.31756 -0.843052 -0.434072 
0.201685 -0.9793 -0.0171636 0.102453 -0.98692 -0.12447 0.0645044 -0.973687 -0.218569 
0.0554746 -0.971587 -0.230091 0.0331175 -0.931291 -0.362767 -0.0177317 -0.969353 -0.245031 
-0.00883791 -0.916869 -0.399091 -0.201049 -0.956301 -0.212291 -0.126446 -0.968642 -0.213879 
-0.118795 -0.93782 -0.326163 0.615029 0.754003 -0.23069 0.344588 0.902721 -0.257593 
0.0647789 0.946482 -0.316189 -0.159692 0.943892 -0.289077 -0.213644 0.939984 -0.266058 
-0.157171 0.946738 -0.281042 -0.108176 0.927271 -0.358423 -0.10204 0.895981 -0.432211 
-0.118428 0.861547 -0.493672 0.634815 0.738917 -0.225856 0.793713 0.581476 -0.178622 
0.607688 0.743129 -0.280134 -0.221125 0.811998 -0.540151 -0.147767 0.837705 -0.525751 
-0.117949 0.849008 -0.515046 -0.132673 0.85565 -0.50026 -0.120316 0.852212 -0.509175 
-0.1763 0.831421 -0.526933 -0.296747 0.779939 -0.551032 -0.484706 0.662949 -0.570578 
0.797027 0.577164 -0.177848 0.792083 0.578745 -0.194057 -0.123405 0.575089 -0.80873 
-0.304401 0.630978 -0.713587 -0.506341 0.644839 -0.57254 -0.485629 0.641353 -0.593996 
-0.685199 0.44843 -0.573945 0.905853 0.394231 -0.154961 -0.462329 0.389253 -0.796702 
-0.693254 0.435177 -0.574474 -0.684468 0.432556 -0.586856 0.963991 0.177603 -0.197937 
-0.787304 0.189886 -0.586597 -0.672598 0.189866 -0.715236 0.972287 -0.0645607 -0.224698 
-0.829412 -0.0610359 -0.555293 -0.696932 -0.0334795 -0.716355 0.921789 -0.276896 -0.271356 
-0.805756 -0.299057 -0.511197 -0.755752 -0.431038 -0.492996 -0.730849 -0.272664 -0.625711 
0.840064 -0.452595 -0.299082 0.803034 -0.523594 -0.284579 0.764051 -0.432069 -0.479106 
-0.709049 -0.519413 -0.476928 -0.55683 -0.686822 -0.467135 -0.511159 -0.468166 -0.720789 
0.766935 -0.576063 -0.282777 0.643985 -0.716187 -0.268996 -0.122201 -0.336597 -0.933686 
-0.0532145 -0.482856 -0.874082 -0.283534 -0.789171 -0.544809 -0.136864 -0.582238 -0.801416 
-0.496889 -0.728397 -0.471741 -0.394473 -0.780003 -0.485785 -0.356016 -0.694813 -0.62489 
0.582587 -0.766019 -0.271675 0.372351 -0.878417 -0.299563 0.306299 -0.742096 -0.596216 
0.132551 -0.918487 -0.372576 -0.0305248 -0.878329 -0.477081 -0.134214 -0.668133 -0.731837 
-0.0140584 -0.806833 -0.590612 -0.0794191 -0.626078 -0.775706 -0.000971286 -0.797924 -0.602758 
-0.00246771 -0.595199 -0.803575 -0.101783 -0.810413 -0.57695 -0.075945 -0.58099 -0.81036 
-0.221796 -0.777243 -0.588812 -0.202534 -0.620514 -0.75759 -0.27175 -0.777795 -0.566733 
-0.255635 -0.76828 -0.586853 -0.243661 -0.730946 -0.637454 0.313571 0.750365 -0.581915 
0.0837225 0.824132 -0.560175 -0.103094 0.840989 -0.53114 -0.20736 0.82302 -0.52881 
0.378159 0.729094 -0.570454 0.544255 0.654483 -0.524822 0.309427 0.713105 -0.629076 
0.102088 0.726046 -0.680026 -0.0946058 0.744209 -0.661213 -0.225555 0.784304 -0.57792 
-0.212886 0.773879 -0.596482 -0.247363 0.734983 -0.631357 -0.21359 0.569123 -0.794027 
-0.11351 0.503787 -0.856337 -0.0605131 0.533542 -0.843606 0.635547 0.574997 -0.515227 
0.75567 0.439714 -0.485401 0.509217 0.543406 -0.667389 -0.322863 0.392325 -0.861302 
-0.236424 0.423903 -0.874305 -0.105638 0.456923 -0.883211 -0.0974746 0.55255 -0.827761 
-0.0554734 0.516695 -0.854371 -0.119999 0.558531 -0.820758 -0.278935 0.480209 -0.831622 
0.796036 0.364271 -0.483357 0.745725 0.352459 -0.565392 -0.31038 0.105094 -0.944785 
-0.181579 0.271962 -0.945021 -0.0731395 0.328634 -0.941621 -0.0350289 0.285927 -0.957611 
-0.0986811 0.301368 -0.948388 -0.405949 0.368087 -0.836491 -0.242744 0.323097 -0.914704 
-0.4458 0.303782 -0.842008 0.833304 0.156135 -0.530307 0.695256 0.117212 -0.70914 
-0.20779 -0.071892 -0.975528 -0.0298071 0.138064 -0.989975 -0.107065 0.187088 -0.976491 
-0.0809371 0.108751 -0.990769 -0.07496 0.108965 -0.991215 -0.214116 0.159591 -0.963683 
-0.476467 0.167556 -0.863078 -0.415486 0.160707 -0.89529 0.828577 -0.0985616 -0.551131 
0.648711 -0.11194 -0.752757 -0.152291 -0.00760473 -0.988306 0.0712135 -0.0321188 -0.996944 
-0.11187 -0.0717567 -0.991129 -0.114222 -0.0357117 -0.992813 -0.0522756 -0.00411863 -0.998624 
-0.175864 0.000627405 -0.984414 -0.521576 -0.0114528 -0.853128 -0.414883 -0.00388459 -0.909867 
0.744588 -0.302455 -0.595071 0.719987 -0.361784 -0.592225 0.678098 -0.294439 -0.673416 
0.37597 -0.251909 -0.891734 -0.133721 -0.0404574 -0.990193 -0.0952388 -0.19197 -0.976769 
-0.110619 -0.302298 -0.946773 -0.00746336 -0.173841 -0.984745 -0.0379019 -0.144842 -0.988729 
-0.211858 -0.176996 -0.961139 -0.498927 -0.202134 -0.842742 -0.471341 -0.319802 -0.821927 
-0.438144 -0.189076 -0.878795 0.685071 -0.409588 -0.602424 0.459494 -0.375397 -0.804949 
0.190521 -0.276202 -0.942027 -0.151622 -0.32991 -0.931756 -0.136549 -0.353438 -0.925438 
-0.112818 -0.283969 -0.952173 -0.181556 -0.293038 -0.938704 -0.11734 -0.332061 -0.935931 
-0.068216 -0.303592 -0.950357 -0.0317088 -0.449339 -0.892798 0.0331876 -0.307109 -0.951095 
-0.105069 -0.508414 -0.854679 -0.0579451 -0.344529 -0.936986 -0.389991 -0.422281 -0.818282 
-0.270665 -0.492248 -0.827305 -0.226469 -0.371684 -0.900313 0.558665 -0.525132 -0.641974 
0.551931 -0.531823 -0.64229 0.548985 -0.52219 -0.652636 0.283622 -0.66898 -0.687041 
0.256195 -0.475345 -0.841672 -0.0229642 -0.445486 -0.894994 -0.14512 -0.635907 -0.757999 
-0.173031 -0.426701 -0.887686 -0.122423 -0.525009 -0.842246 -0.145551 -0.447293 -0.882464 
-0.0297391 -0.488756 -0.871913 -0.0554987 -0.425226 -0.903384 -0.122274 -0.337546 -0.933333 
-0.102382 -0.428962 -0.897502 -0.127036 -0.360032 -0.92425 0.0793573 -0.683742 -0.725396 
-0.0235074 -0.671241 -0.740866 0.0338672 -0.681737 -0.730813 0.0319509 -0.672296 -0.739593 
0.284724 0.500997 -0.817272 0.102344 0.51649 -0.850155 -0.0906641 0.520239 -0.849195 
-0.274215 0.397453 -0.875693 0.290744 0.497856 -0.817072 0.440836 0.335047 -0.832711 
0.284556 0.496948 -0.819799 0.0885397 0.420331 -0.903041 -0.0890907 0.407727 -0.908747 
-0.278295 0.387181 -0.879001 -0.275134 0.388136 -0.879574 0.47376 0.294701 -0.829881 
0.42946 0.290451 -0.855104 0.208233 0.240158 -0.948137 0.0390794 0.192977 -0.980425 
-0.131948 0.17318 -0.976012 -0.307699 0.109596 -0.945151 -0.29214 0.128821 -0.94766 
0.51673 0.0666396 -0.853551 0.40723 0.0482021 -0.912053 0.179305 0.0409442 -0.982941 
0.00534879 0.00128766 -0.999985 -0.154301 -0.00382841 -0.988017 -0.261017 -0.0559521 -0.963711 
-0.351325 -0.0162009 -0.936113 0.46175 -0.120486 -0.878789 0.374836 -0.24593 -0.893877 
0.368965 -0.126704 -0.920767 0.159109 -0.166079 -0.973192 -0.0034582 -0.150603 -0.988588 
-0.147372 -0.160811 -0.975921 -0.274717 -0.0618828 -0.959532 -0.358779 -0.106449 -0.927333 
0.367551 -0.251147 -0.89545 0.187773 -0.272407 -0.943682 0.154966 -0.245156 -0.957018 
0.00478003 -0.230514 -0.973057 -0.147078 -0.320826 -0.935649 -0.11868 -0.260201 -0.958233 
-0.17728 -0.162375 -0.970673 -0.183967 -0.255566 -0.949127 -0.198628 -0.225545 -0.95377 
0.152489 -0.279532 -0.94795 -0.10042 -0.318078 -0.942731 -0.0175717 -0.32175 -0.946662 
-0.0103689 -0.293458 -0.955916 
