# vtk DataFile Version 4.2
vtk output
ASCII
DATASET POLYDATA
POINTS 530 float
-32.9735 22.2924 -21.1243 -32.9735 -25.713 -13.7421 -24.9726 -25.713 -13.589 
7.03093 -25.713 -13.3688 15.0318 -25.713 -13.8898 23.0327 -25.713 -14.5286 
31.0336 -25.713 -13.5943 -40.9744 -17.7121 -15.4823 -32.9735 -17.7121 -16.371 
-24.9726 -17.7121 -15.8502 -16.9717 -17.7121 -14.4555 -0.969961 -17.7121 -13.2486 
7.03093 -17.7121 -13.6692 15.0318 -17.7121 -14.5181 23.0327 -17.7121 -16.2506 
31.0336 -17.7121 -16.5255 39.0345 -17.7121 -15.0454 -48.9753 -9.71119 -14.7958 
-40.9744 -9.71119 -17.8589 -32.9735 -9.71119 -18.6918 -24.9726 -9.71119 -18.055 
-16.9717 -9.71119 -16.5528 -8.97085 -9.71119 -15.7147 -0.969961 -9.71119 -17.5327 
7.03093 -9.71119 -14.1222 15.0318 -9.71119 -14.8052 23.0327 -9.71119 -16.7279 
31.0336 -9.71119 -18.0211 39.0345 -9.71119 -17.2158 47.0354 -9.71119 -15.1299 
-48.9753 -1.7103 -16.4764 -40.9744 -1.7103 -19.2592 -32.9735 -1.7103 -19.9917 
-24.9726 -1.7103 -19.3835 -16.9717 -1.7103 -18.0818 -8.97085 -1.7103 -18.0926 
-0.969961 -1.7103 -13.6946 7.03093 -1.7103 -18.7853 15.0318 -1.7103 -14.51 
23.0327 -1.7103 -16.1077 31.0336 -1.7103 -17.3416 39.0345 -1.7103 -17.664 
47.0354 -1.7103 -16.3661 -48.9753 6.29059 -17.6048 -40.9744 6.29059 -20.2818 
-32.9735 6.29059 -20.9129 -24.9726 6.29059 -20.1458 -16.9717 6.29059 -18.8747 
-8.97085 6.29059 -20.1849 -0.969961 6.29059 -19.8854 7.03093 6.29059 -18.5298 
15.0318 6.29059 -15.0078 23.0327 6.29059 -16.1685 31.0336 6.29059 -17.7573 
39.0345 6.29059 -17.8195 47.0354 6.29059 -16.7825 55.0363 6.29059 -13.8304 
-48.9753 14.2915 -17.0044 -40.9744 14.2915 -20.0566 -32.9735 18.4767 -21.0201 
-32.9735 14.2915 -20.9117 -24.9726 14.2915 -20.2982 -16.9717 14.2915 -18.9063 
-8.97085 14.2915 -18.2658 -0.969961 14.2915 -18.7594 7.03093 14.2915 -18.6411 
15.0318 14.2915 -17.9467 23.0327 14.2915 -18.0975 31.0336 14.2915 -18.5017 
39.0345 14.2915 -18.1258 47.0354 14.2915 -16.0129 -48.9753 22.2924 -14.8212 
-33.964 22.2924 -21.0201 -40.9744 22.2924 -20.1437 -31.7655 22.2924 -21.0201 
-32.9735 22.6959 -21.0201 -24.9726 22.2924 -20.464 -16.9717 22.2924 -19.3233 
-8.97085 22.2924 -18.6779 -0.969961 22.2924 -18.9094 7.03093 22.2924 -19.64 
15.0318 22.2924 -19.5024 23.0327 22.2924 -19.0788 31.0336 22.2924 -18.4328 
39.0345 22.2924 -18.0347 47.0354 22.2924 -14.8703 -40.9744 30.2933 -17.2833 
-32.9735 30.2933 -19.2185 -24.9726 30.2933 -20.3013 -16.9717 30.2933 -19.6699 
-8.97085 30.2933 -19.6144 -0.969961 30.2933 -19.9741 7.03093 30.2933 -19.9725 
15.0318 30.2933 -19.2963 23.0327 30.2933 -18.3928 31.0336 30.2933 -16.9108 
39.0345 30.2933 -14.6811 -32.9735 38.2942 -16.8362 -24.9726 38.2942 -19.5887 
-16.9717 38.2942 -18.7996 -8.97085 38.2942 -19.5181 -0.969961 38.2942 -19.8924 
7.03093 38.2942 -18.9924 15.0318 38.2942 -16.7262 23.0327 38.2942 -13.5475 
-24.9726 46.2951 -13.6612 -16.9717 46.2951 -16.7689 -8.97085 46.2951 -16.9951 
-0.969961 46.2951 -16.9493 7.03093 46.2951 -14.7881 -0.969961 -41.7148 -5.48882 
7.03093 -41.7148 -6.29719 15.0318 -41.7148 -6.54251 23.0327 -41.7148 -5.26482 
-32.9735 -26.9612 -13.0192 -32.9735 -33.7139 -8.20877 -24.9726 -26.8096 -13.0192 
-24.9726 -33.7139 -9.23023 -16.9717 -33.7139 -9.28227 -8.97085 -33.7139 -9.20702 
-0.969961 -33.7139 -10.1262 7.03093 -26.9277 -13.0192 7.03093 -33.7139 -10.9699 
15.0318 -28.9556 -13.0192 15.0318 -33.7139 -11.6465 23.0327 -30.3784 -13.0192 
23.0327 -33.7139 -11.649 31.0336 -26.8574 -13.0192 31.0336 -33.7139 -8.80695 
-48.9753 -25.713 -5.18132 -35.488 -25.713 -13.0192 -40.9744 -22.5669 -13.0192 
-40.9744 -25.713 -11.0882 -19.3323 -25.713 -13.0192 -16.9717 -24.6213 -13.0192 
-16.9717 -25.713 -12.767 -8.97085 -25.713 -11.6095 5.08518 -25.713 -13.0192 
-0.969961 -18.9718 -13.0192 -0.969961 -25.713 -11.9303 32.6456 -25.713 -13.0192 
39.0345 -21.4743 -13.0192 39.0345 -25.713 -9.70788 -45.4651 -17.7121 -13.0192 
-48.9753 -13.413 -13.0192 -48.9753 -17.7121 -10.1754 -11.4274 -17.7121 -13.0192 
-2.93414 -17.7121 -13.0192 -8.97085 -15.9114 -13.0192 -8.97085 -17.7121 -12.3955 
43.2271 -17.7121 -13.0192 47.0354 -14.0674 -13.0192 47.0354 -17.7121 -9.86027 
-51.4074 -9.71119 -13.0192 50.7351 -9.71119 -13.0192 55.0363 -9.71119 -7.15595 
-53.4108 -1.7103 -13.0192 53.8182 -1.7103 -13.0192 55.0363 2.12778 -13.0192 
55.0363 -1.7103 -12.1372 -53.964 6.29059 -13.0192 -56.9762 6.29059 -5.07022 
56.1438 6.29059 -13.0192 55.0363 10.0679 -13.0192 -53.2422 14.2915 -13.0192 
53.4507 14.2915 -13.0192 55.0363 14.2915 -11.9776 -50.7501 22.2924 -13.0192 
-48.9753 25.2756 -13.0192 51.2666 22.2924 -13.0192 47.0354 25.7764 -13.0192 
55.0363 22.2924 -9.11237 -45.8744 30.2933 -13.0192 -40.9744 36.1159 -13.0192 
31.0336 35.3453 -13.0192 42.2374 30.2933 -13.0192 39.0345 32.3068 -13.0192 
47.0354 30.2933 -8.58304 -38.6423 38.2942 -13.0192 -32.9735 42.6718 -13.0192 
15.0318 42.5987 -13.0192 24.4421 38.2942 -13.0192 23.0327 38.765 -13.0192 
31.0336 38.2942 -8.4157 -26.1866 46.2951 -13.0192 -24.9726 46.8672 -13.0192 
-16.9717 49.7653 -13.0192 -8.97085 50.1296 -13.0192 -0.969961 49.7726 -13.0192 
9.59837 46.2951 -13.0192 7.03093 47.7334 -13.0192 -0.969961 -42.2372 -5.01827 
7.03093 -43.1244 -5.01827 15.0318 -43.2995 -5.01827 23.0327 -41.8997 -5.01827 
-32.9735 -36.7197 -5.01827 -24.9726 -38.2763 -5.01827 -24.9726 -41.7148 1.52467 
-16.9717 -40.2301 -5.01827 -16.9717 -41.7148 -3.23259 -4.21013 -41.7148 -5.01827 
-8.97085 -40.7048 -5.01827 -8.97085 -41.7148 -4.27321 23.5062 -41.7148 -5.01827 
31.0336 -38.0486 -5.01827 31.0336 -41.7148 2.19318 -48.9753 -25.8849 -5.01827 
-40.147 -33.7139 -5.01827 -40.9744 -33.2585 -5.01827 -40.9744 -33.7139 -3.85597 
36.0185 -33.7139 -5.01827 39.0345 -30.7742 -5.01827 39.0345 -33.7139 2.48296 
-49.0988 -25.713 -5.01827 43.1051 -25.713 -5.01827 47.0354 -21.5104 -5.01827 
-53.0031 -17.7121 -5.01827 50.533 -17.7121 -5.01827 55.0363 -11.3455 -5.01827 
-56.0811 -9.71119 -5.01827 56.0136 -9.71119 -5.01827 -56.9249 -1.7103 -5.01827 
-56.9762 4.31542 -5.01827 59.9713 -1.7103 -5.01827 -56.9925 6.29059 -5.01827 
-56.9762 6.39859 -5.01827 -56.9762 6.29059 -4.93856 62.0141 6.29059 -5.01827 
-55.7081 14.2915 -5.01827 60.2326 14.2915 -5.01827 -52.6489 22.2924 -5.01827 
-48.9753 28.3318 -5.01827 57.0377 22.2924 -5.01827 55.0363 25.1751 -5.01827 
-47.6278 30.2933 -5.01827 -40.9744 37.4407 -5.01827 39.0345 36.5673 -5.01827 
50.1232 30.2933 -5.01827 47.0354 32.5122 -5.01827 -39.9276 38.2942 -5.01827 
-32.9735 44.6357 -5.01827 -32.9735 38.2942 1.4957 15.0318 44.9285 -5.01827 
23.0327 41.7967 -5.01827 34.5904 38.2942 -5.01827 31.0336 39.6286 -5.01827 
31.0336 38.2942 2.24569 -27.9818 46.2951 -5.01827 -24.9726 47.1523 -5.01827 
-24.9726 46.2951 -3.9289 -16.9717 50.1773 -5.01827 -16.9717 46.2951 -0.714573 
-8.97085 51.4438 -5.01827 -8.97085 46.2951 0.512002 -0.969961 50.664 -5.01827 
-0.969961 46.2951 0.146949 11.4814 46.2951 -5.01827 7.03093 48.0685 -5.01827 
7.03093 46.2951 -2.42616 -24.9726 -42.3709 2.98262 -16.9717 -45.0957 2.98262 
-8.97085 -47.3372 2.98262 -0.969961 -48.4554 2.98262 -0.969961 -49.7156 10.8678 
7.03093 -48.6554 2.98262 15.0318 -48.1337 2.98262 23.0327 -46.1274 2.98262 
31.0336 -42.0114 2.98262 -40.9744 -35.8887 2.98262 -26.9861 -41.7148 2.98262 
-32.9735 -39.7275 2.98262 31.3933 -41.7148 2.98262 31.0336 -41.7148 6.25207 
39.0345 -33.8745 2.98262 -43.9741 -33.7139 2.98262 -48.9753 -28.1294 2.98262 
39.1577 -33.7139 2.98262 39.0345 -33.7139 3.87904 -50.4479 -25.713 2.98262 
-48.9753 -25.713 7.05364 43.812 -25.713 2.98262 47.0354 -21.3514 2.98262 
-53.6211 -17.7121 2.98262 -48.9753 -17.7121 10.4707 50.2686 -17.7121 2.98262 
47.0354 -17.7121 10.6228 55.0363 -10.7456 2.98262 -55.0463 -9.71119 2.98262 
55.6094 -9.71119 2.98262 55.0363 -9.71119 4.26705 -56.0197 -1.7103 2.98262 
59.5411 -1.7103 2.98262 55.0363 -1.7103 10.9446 -55.0578 6.29059 2.98262 
-48.9753 6.29059 10.0793 61.2221 6.29059 2.98262 -53.1819 14.2915 2.98262 
-48.9753 14.2915 8.26004 59.4552 14.2915 2.98262 55.0363 14.2915 9.19367 
-49.1676 22.2924 2.98262 -48.9753 22.5725 2.98262 -48.9753 22.2924 3.2034 
-40.9744 22.2924 9.17337 47.0354 22.2924 9.90405 55.4955 22.2924 2.98262 
55.0363 22.9215 2.98262 55.0363 22.2924 3.5508 -42.2574 30.2933 2.98262 
-40.9744 31.4922 2.98262 -40.9744 30.2933 3.97936 -32.9735 36.6659 2.98262 
-32.9735 30.2933 7.79035 -24.9726 30.2933 8.82765 -16.9717 30.2933 9.38961 
-8.97085 30.2933 9.60341 -0.969961 30.2933 9.68349 7.03093 30.2933 9.79832 
31.0336 38.1223 2.98262 39.0345 34.8944 2.98262 39.0345 30.2933 8.37567 
47.8326 30.2933 2.98262 47.0354 30.8784 2.98262 47.0354 30.2933 3.77638 
-30.5463 38.2942 2.98262 -24.9726 41.0442 2.98262 -24.9726 38.2942 5.22978 
-16.9717 42.097 2.98262 -16.9717 38.2942 5.58031 -8.97085 43.2317 2.98262 
-8.97085 38.2942 6.22216 -0.969961 43.1273 2.98262 -0.969961 38.2942 6.3269 
7.03093 41.8413 2.98262 7.03093 38.2942 5.86925 15.0318 40.48 2.98262 
15.0318 38.2942 5.35971 29.8758 38.2942 2.98262 23.0327 39.1993 2.98262 
23.0327 38.2942 4.29251 -0.969961 -49.7323 10.9835 -24.9726 -42.2175 10.9835 
-16.9717 -45.5097 10.9835 -1.06892 -49.7156 10.9835 -8.97085 -48.3074 10.9835 
-0.282322 -49.7156 10.9835 -0.969961 -49.7156 11.0206 7.03093 -49.5331 10.9835 
15.0318 -48.2003 10.9835 23.0327 -45.5417 10.9835 -40.9744 -33.9488 10.9835 
-26.1309 -41.7148 10.9835 -32.9735 -38.4569 10.9835 -24.9726 -41.7148 11.7871 
-16.9717 -41.7148 16.5561 30.1969 -41.7148 10.9835 23.0327 -41.7148 16.0942 
31.0336 -41.0821 10.9835 -41.2402 -33.7139 10.9835 -40.9744 -33.7139 11.264 
-32.9735 -33.7139 16.0607 -24.9726 -33.7139 18.7956 37.6751 -33.7139 10.9835 
31.0336 -33.7139 17.6054 39.0345 -31.4329 10.9835 -46.9765 -25.713 10.9835 
-40.9744 -25.713 15.2834 -32.9735 -25.713 18.6908 41.6402 -25.713 10.9835 
39.0345 -25.713 14.6051 -48.4754 -17.7121 10.9835 -48.9753 -14.1305 10.9835 
-40.9744 -17.7121 16.7733 46.8778 -17.7121 10.9835 39.0345 -17.7121 17.9545 
47.0354 -17.4391 10.9835 -49.4866 -9.71119 10.9835 -48.9753 -9.71119 11.5616 
-40.9744 -9.71119 16.3902 -32.9735 -9.71119 18.1951 -24.9726 -9.71119 18.8217 
[...]
POINT_DATA 530
SCALARS ImageScalars float
LOOKUP_TABLE default
0 0 0 0 0 0 0 0 0 
0 0 0 0 0 0 0 0 0 
0 0 0 0 0 0 0 0 0 
0 0 0 0 0 0 0 0 0 
0 0 0 0 0 0 0 0 0 
0 0 0 0 0 0 0 0 0 
0 0 0 0 0 0 0 0 0 
0 0 0 0 0 0 0 0 0 
0 0 0 0 0 0 0 0 0 
0 0 0 0 0 0 0 0 0 
0 0 0 0 0 0 0 0 0 
0 0 0 0 0 0 0 0 0 
0 0 0 0 0 0 0 0 0 
0 0 0 0 0 0 0 0 0 
0 0 0 0 0 0 0 0 0 
0 0 0 0 0 0 0 0 0 
0 0 0 0 0 0 0 0 0 
0 0 0 0 0 0 0 0 0 
0 0 0 0 0 0 0 0 0 
0 0 0 0 0 0 0 0 0 
0 0 0 0 0 0 0 0 0 
0 0 0 0 0 0 0 0 0 
0 0 0 0 0 0 0 0 0 
0 0 0 0 0 0 0 0 0 
0 0 0 0 0 0 0 0 0 
0 0 0 0 0 0 0 0 0 
0 0 0 0 0 0 0 0 0 
0 0 0 0 0 0 0 0 0 
0 0 0 0 0 0 0 0 0 
0 0 0 0 0 0 0 0 0 
0 0 0 0 0 0 0 0 0 
0 0 0 0 0 0 0 0 0 
0 0 0 0 0 0 0 0 0 
0 0 0 0 0 0 0 0 0 
0 0 0 0 0 0 0 0 0 
0 0 0 0 0 0 0 0 0 
0 0 0 0 0 0 0 0 0 
0 0 0 0 0 0 0 0 0 
0 0 0 0 0 0 0 0 0 
0 0 0 0 0 0 0 0 0 
0 0 0 0 0 0 0 0 0 
0 0 0 0 0 0 0 0 0 
0 0 0 0 0 0 0 0 0 
0 0 0 0 0 0 0 0 0 
0 0 0 0 0 0 0 0 0 
0 0 0 0 0 0 0 0 0 
0 0 0 0 0 0 0 0 0 
0 0 0 0 0 0 0 0 0 
0 0 0 0 0 0 0 0 0 
0 0 0 0 0 0 0 0 0 
0 0 0 0 0 0 0 0 0 
0 0 0 0 0 0 0 0 0 
0 0 0 0 0 0 0 0 0 
0 0 0 0 0 0 0 0 0 
0 0 0 0 0 0 0 0 0 
0 0 0 0 0 0 0 0 0 
0 0 0 0 0 0 0 0 0 
0 0 0 0 0 0 0 0 0 
0 0 0 0 0 0 0 0 
NORMALS Normals float
0.0102339 -0.114523 0.993368 0.121953 0.441738 0.888817 -0.0601958 0.373828 0.925543 
0.12131 0.160306 0.979585 0.0733804 0.167165 0.983194 -0.0127849 0.261186 0.965204 
-0.212702 0.40848 0.887638 0.282106 0.347663 0.894174 0.0223499 0.296215 0.95486 
-0.116111 0.257228 0.95935 -0.207588 0.22678 0.951566 0.0792654 0.347129 0.934461 
0.0755519 0.0407958 0.996307 0.157999 0.0560219 0.985849 0.12713 0.144085 0.981365 
-0.0649567 0.251573 0.965656 -0.297476 0.370191 0.880038 0.503545 0.302278 0.809364 
0.228145 0.232702 0.94541 0.00848799 0.2326 0.972536 -0.127289 0.218055 0.9676 
-0.131666 0.224831 0.965461 0.0686206 0.382598 0.921363 -0.0869782 0.0484616 0.995031 
-0.178413 0.29175 0.939708 0.158859 0.00254876 0.987298 0.19773 -0.00635849 0.980236 
0.0282931 0.0542698 0.998125 -0.167085 0.146254 0.975035 -0.397536 0.280053 0.873805 
0.499771 0.169671 0.849377 0.205488 0.140525 0.968518 0.00608573 0.135045 0.990821 
-0.117817 0.125087 0.985126 -0.0801465 0.138137 0.987165 -0.212995 0.229655 0.94968 
-0.00239752 0.0783583 0.996922 0.0288431 0.253072 0.967017 -0.144578 0.010766 0.989435 
0.165064 -0.0361311 0.985621 0.0926692 -0.0173373 0.995546 -0.0573448 0.0386929 0.997604 
-0.276323 0.0972901 0.956128 0.516489 0.0339996 0.855618 0.194499 0.0484937 0.979703 
-0.0100302 0.0568785 0.998331 -0.124177 0.0563536 0.990659 -0.00809397 0.0518996 0.998619 
0.0697014 0.0109472 0.997508 -0.100008 0.278267 0.955283 -0.294334 -0.00710214 0.955676 
-0.115896 0.217303 0.969199 0.162815 0.116943 0.979702 0.0975598 0.0740579 0.99247 
-0.0571619 0.0311418 0.997879 -0.209592 -0.0207131 0.97757 -0.509979 -0.00950573 0.860135 
0.568819 -0.156901 0.807358 0.221984 -0.00937723 0.975005 0.0109245 -0.0526422 0.998554 
0.0127636 0.0125809 0.999839 -0.12461 0.0197574 0.992009 -0.12802 0.0283879 0.991365 
-0.0118684 -0.0838293 0.996409 0.0245671 -0.0500485 0.998445 -0.0495723 0.065586 0.996615 
-0.0351361 0.265716 0.963411 0.0354179 0.176872 0.983596 -0.0032978 0.0395605 0.999212 
-0.139529 0.013547 0.990125 -0.332937 -0.112205 0.936249 0.700099 -0.347869 0.623578 
0.0478165 -0.11909 0.991731 0.318847 -0.151807 0.93557 -0.00964298 -0.0964761 0.995289 
0.0173569 -0.121094 0.992489 -0.10956 0.000642264 0.99398 -0.114598 0.0489835 0.992204 
-0.0266737 0.0835009 0.996151 0.0600243 0.0774513 0.995188 0.034513 0.084278 0.995844 
-0.0345171 0.0819955 0.996035 -0.0660422 0.0138891 0.99772 -0.0623126 -0.0822328 0.994663 
-0.234342 -0.219024 0.94716 -0.372885 -0.284432 0.883208 0.456025 -0.398054 0.795987 
0.173548 -0.250167 0.952522 0.0324283 -0.048076 0.998317 -0.0416307 -0.0305805 0.998665 
0.0190808 0.0532091 0.998401 0.0226627 0.0579753 0.998061 -0.0438401 -0.0366405 0.998366 
-0.0981518 -0.151686 0.983543 -0.138204 -0.279603 0.950117 -0.233585 -0.403887 0.884485 
-0.322063 -0.527263 0.786301 0.384655 -0.506342 0.771789 0.108936 -0.342555 0.933161 
0.00354159 -0.185475 0.982643 0.0714795 -0.139774 0.9876 -0.0331194 -0.153753 0.987554 
-0.193887 -0.282732 0.939399 -0.306754 -0.526671 0.792793 -0.323013 -0.739556 0.590524 
0.398144 -0.785667 0.473508 0.206311 -0.588739 0.781551 0.0140055 -0.588028 0.808719 
-0.124692 -0.594621 0.794278 -0.393001 -0.75406 0.526254 0.100736 0.627499 0.772073 
0.0521389 0.641029 0.765744 -0.0364468 0.673457 0.738327 -0.23211 0.770951 0.593093 
0.129816 0.47619 0.869707 0.208181 0.692599 0.690629 -0.0476483 0.397649 0.9163 
0.0551669 0.584102 0.809803 -0.00136176 0.464346 0.885653 0.0470944 0.384604 0.92188 
0.100941 0.33782 0.935782 0.115781 0.19264 0.974415 0.0856553 0.378968 0.921437 
0.0662234 0.254513 0.964799 0.0400062 0.393157 0.9186 -0.0761553 0.340903 0.937009 
-0.133802 0.428146 0.893749 -0.235551 0.428361 0.872366 -0.397532 0.594349 0.699083 
0.744922 0.527799 0.408069 0.19687 0.468668 0.861158 0.341401 0.447646 0.826473 
0.376319 0.522925 0.76481 -0.0998771 0.326492 0.939908 -0.1294 0.292578 0.947446 
-0.116207 0.304742 0.945319 -0.0425293 0.17926 0.982882 0.117766 0.164743 0.979281 
0.0839343 0.319873 0.943735 0.105777 0.179798 0.978 -0.265241 0.43813 0.858889 
-0.384364 0.464523 0.797798 -0.552808 0.582145 0.596247 0.486102 0.393648 0.780222 
0.561374 0.367625 0.741425 0.676931 0.414701 0.608102 -0.115377 0.217081 0.969311 
0.0417895 0.315394 0.94804 -0.0426967 0.252464 0.966664 -0.0729614 0.212199 0.974499 
-0.44104 0.475055 0.76145 -0.492423 0.434885 0.75392 -0.624263 0.595305 0.505874 
0.620662 0.317279 0.717017 -0.56029 0.343387 0.753764 -0.827594 0.475656 0.29806 
0.745826 0.121627 0.654943 -0.578347 0.182291 0.795164 -0.579715 0.101089 0.808524 
-0.660112 0.219893 0.718261 0.814775 -0.0127072 0.579639 0.995846 -0.0709694 0.0570433 
-0.545662 -0.00552791 0.837987 -0.558329 -0.0768738 0.826051 0.811368 -0.180705 0.555903 
-0.550603 -0.142074 0.822588 -0.64266 -0.17846 0.745077 0.769311 -0.38498 0.509853 
0.761463 -0.443255 0.472968 -0.516921 -0.338172 0.786404 -0.434875 -0.451925 0.778875 
-0.781418 -0.445693 0.436742 0.739321 -0.512893 0.436286 0.658307 -0.651963 0.376266 
-0.303002 -0.680416 0.667251 -0.4053 -0.578295 0.70803 -0.346041 -0.627244 0.697726 
-0.562213 -0.737322 0.37453 0.615581 -0.695087 0.371367 0.470582 -0.765707 0.438457 
-0.441556 -0.72228 0.532297 -0.325144 -0.75543 0.568865 -0.331117 -0.759877 0.559418 
-0.318623 -0.896787 0.307005 0.422138 -0.802871 0.420948 0.408459 -0.808011 0.424593 
0.208799 -0.893873 0.396729 0.00443946 -0.897281 0.441437 -0.168296 -0.897873 0.406817 
-0.430712 -0.795587 0.426063 -0.381886 -0.838691 0.388278 0.101375 0.643004 0.759124 
0.048266 0.683281 0.728558 -0.0636203 0.725242 0.685548 -0.235631 0.777289 0.583352 
0.251923 0.791246 0.557194 0.161353 0.766344 0.621838 0.287445 0.92445 0.250535 
0.115787 0.700859 0.703839 0.177171 0.793315 0.582462 0.0934722 0.635451 0.766463 
0.0758884 0.613736 0.785856 0.0916232 0.662427 0.743502 -0.24959 0.775054 0.580513 
-0.469684 0.705518 0.530699 -0.595412 0.787437 0.15946 0.7463 0.532022 0.399987 
0.441596 0.75314 0.48762 0.462597 0.743996 0.482156 0.4804 0.77382 0.412818 
-0.608567 0.648884 0.456722 -0.677013 0.630729 0.379254 -0.802834 0.59216 0.0693083 
0.750388 0.527556 0.39825 -0.71078 0.640921 0.289847 -0.725763 0.651172 0.221908 
0.863008 0.382305 0.330241 -0.743639 0.633735 0.213026 -0.834491 0.522703 0.174375 
0.963918 0.225706 0.141136 -0.852044 0.494935 0.170469 0.992965 0.050337 0.107178 
0.996859 -0.0416464 0.0673652 -0.915501 0.335526 0.22199 0.995981 -0.0711214 0.0544391 
0.995857 -0.0734621 0.0535931 0.99613 -0.0720653 0.0503137 -0.985079 0.0216015 0.170745 
0.967023 -0.254389 -0.0123719 -0.931575 -0.289286 0.220187 0.893314 -0.443782 -0.0710485 
0.853672 -0.511049 -0.100361 -0.856793 -0.499107 0.129609 -0.804285 -0.581933 0.120333 
0.823589 -0.55388 -0.122144 0.643567 -0.736443 -0.208501 -0.386079 -0.915251 0.115146 
-0.634207 -0.758922 0.147713 -0.557392 -0.816571 0.150087 0.630751 -0.743285 -0.22289 
0.468487 -0.861566 -0.195509 0.453713 -0.600747 -0.658215 -0.368991 -0.919826 -0.133285 
-0.308487 -0.951145 0.012587 -0.334351 -0.936469 0.105994 -0.304615 -0.947812 0.0941434 
-0.234257 -0.912658 -0.334931 0.33018 -0.906211 -0.264127 0.279882 -0.909553 -0.307213 
0.257915 -0.893293 -0.368114 0.250756 -0.908898 -0.333205 0.203681 -0.765595 -0.610229 
0.0263519 -0.959421 -0.280743 0.0432419 -0.734251 -0.677499 -0.202869 -0.937164 -0.283843 
-0.123886 -0.775935 -0.618528 -0.348282 -0.913758 -0.209154 -0.323264 -0.907012 -0.269868 
-0.280268 -0.865395 -0.41538 0.300118 0.934713 0.190368 0.296021 0.917781 0.264669 
0.205709 0.908655 0.363358 0.0816939 0.923914 0.373777 0.0717677 0.986819 -0.145045 
-0.0206149 0.949722 0.312414 -0.152018 0.959733 0.236228 -0.342349 0.922069 0.180513 
-0.600519 0.790005 0.123567 0.530533 0.847063 0.0319075 0.309233 0.935534 0.170734 
0.36059 0.927711 0.0965799 -0.610262 0.782855 0.12132 -0.617603 0.784049 -0.0619209 
-0.806284 0.589451 0.0495316 0.622651 0.782499 -0.000997348 0.8393 0.538404 -0.0754741 
-0.808711 0.586235 0.0481092 -0.811779 0.583934 0.00597249 0.884553 0.459066 -0.0826102 
0.845838 0.419868 -0.329043 -0.821013 0.564584 -0.0847446 -0.777952 0.612012 -0.142241 
0.944362 0.257664 -0.204427 0.737378 0.118895 -0.664935 -0.766484 0.619112 -0.170885 
-0.732693 0.498248 -0.463583 -0.845196 0.492105 -0.20851 0.939916 0.137646 -0.312429 
-0.855015 0.47367 -0.211156 -0.844953 0.465371 -0.263598 0.935342 0.00630117 -0.353689 
-0.914545 0.306997 -0.263364 -0.715329 0.195384 -0.670917 0.889512 -0.156278 -0.429355 
0.621105 -0.132524 -0.772442 -0.944176 -0.00368989 -0.329421 0.829587 -0.300729 -0.470477 
0.657203 -0.295625 -0.693318 -0.891382 -0.296733 -0.342618 -0.655403 -0.321647 -0.683367 
0.693908 -0.486005 -0.53131 0.689767 -0.490152 -0.532891 0.686147 -0.48607 -0.541238 
0.38486 -0.465613 -0.796924 -0.465514 -0.435012 -0.770753 -0.737934 -0.542038 -0.402055 
-0.726118 -0.555195 -0.4056 -0.720231 -0.544743 -0.42956 0.512522 -0.576367 -0.636492 
0.480251 -0.590249 -0.648819 0.466031 -0.566786 -0.679389 0.393252 -0.557563 -0.731079 
0.245674 -0.510367 -0.824118 0.0812723 -0.423075 -0.902442 0.0453899 -0.367011 -0.929108 
0.0168278 -0.341871 -0.939596 0.0114284 -0.336943 -0.941456 0.0788745 -0.364744 -0.927761 
-0.224928 -0.89698 -0.380572 -0.36404 -0.840257 -0.4018 -0.306265 -0.65886 -0.687099 
-0.544968 -0.738761 -0.396538 -0.526307 -0.752268 -0.39635 -0.525196 -0.738116 -0.423503 
0.345975 -0.56589 -0.748378 0.183258 -0.63212 -0.752888 0.179807 -0.540076 -0.822184 
0.0981557 -0.5879 -0.802957 0.0565982 -0.485807 -0.872232 0.0409172 -0.579014 -0.81429 
0.0405179 -0.44893 -0.892648 -0.0626278 -0.611944 -0.788417 -0.0183346 -0.459775 -0.887846 
-0.125115 -0.666731 -0.734721 -0.0501432 -0.548968 -0.834338 -0.134164 -0.77578 -0.616575 
-0.0698189 -0.716312 -0.694279 -0.210947 -0.896057 -0.390618 -0.135321 -0.875264 -0.464328 
-0.109857 -0.846657 -0.520676 0.0714182 0.985865 -0.151558 0.378386 0.87643 -0.297816 
0.372466 0.898338 -0.232933 0.073305 0.985695 -0.15176 0.242626 0.951601 -0.18865 
0.0579637 0.986164 -0.155309 0.0714123 0.985499 -0.153921 -0.0884108 0.976441 -0.196841 
-0.23103 0.933856 -0.273016 -0.393046 0.868938 -0.300769 0.611543 0.652086 -0.448105 
0.382361 0.872208 -0.305046 0.428611 0.814561 -0.390875 0.376956 0.856437 -0.352733 
0.33836 0.695534 -0.633834 -0.579863 0.740199 -0.340389 -0.385844 0.638436 -0.665976 
-0.602838 0.720153 -0.343461 0.618605 0.643567 -0.45072 0.611694 0.639908 -0.465131 
0.38129 0.534989 -0.753926 0.294027 0.374911 -0.879199 -0.76954 0.528375 -0.358648 
-0.482251 0.430805 -0.762785 -0.794005 0.486651 -0.364316 0.71825 0.331443 -0.611769 
0.502312 0.25011 -0.827724 0.301892 0.155144 -0.940634 -0.802977 0.436211 -0.406139 
-0.731813 0.355683 -0.581326 0.70611 0.103811 -0.700451 0.708388 0.0717769 -0.702164 
0.426147 0.0594456 -0.902699 -0.729039 0.488355 -0.479595 -0.49709 0.216492 -0.840257 
-0.728518 0.484956 -0.483817 0.702719 0.0311952 -0.710783 0.684694 0.0258009 -0.728374 
0.307044 -0.0810718 -0.948236 0.139575 -0.128939 -0.981781 0.071408 -0.20311 -0.976549 
-0.721856 0.353256 -0.595092 -0.596799 0.244009 -0.764389 0.604507 -0.0677589 -0.793713 
0.601193 -0.0773525 -0.795351 0.599811 -0.0697624 -0.797095 0.316039 -0.114194 -0.941849 
0.0961867 -0.120314 -0.988065 0.0703778 -0.122695 -0.989946 0.338358 -0.190468 -0.92154 
-0.183027 -0.234986 -0.954611 0.00370535 -0.222074 -0.975023 -0.206879 -0.121466 -0.970797 
-0.71335 0.194178 -0.67337 -0.435784 0.0209196 -0.899808 -0.712195 0.185278 -0.677089 
0.556863 -0.12952 -0.820444 0.329141 -0.139392 -0.933936 0.141658 -0.139311 -0.980064 
0.0124038 -0.0972141 -0.995186 0.070728 -0.244848 -0.966978 -0.0399588 -0.496015 -0.867394 
-0.0244889 -0.179851 -0.983389 0.0444751 -0.42531 -0.903955 -0.030244 -0.297998 -0.954087 
0.0814431 -0.242398 -0.966752 0.00831274 -0.225844 -0.974128 -0.135404 -0.187716 -0.972845 
-0.336819 -0.157868 -0.928241 -0.647801 -0.0715313 -0.758443 -0.621247 -0.150613 -0.769004 
-0.616902 -0.0772918 -0.783236 0.466179 -0.281202 -0.83881 0.352262 -0.377836 -0.856243 
0.327152 -0.273112 -0.904645 0.143477 -0.260342 -0.954796 -0.0220647 -0.265141 -0.963957 
-0.0585507 -0.256804 -0.964688 0.025859 -0.316443 -0.948259 -0.0779898 -0.222848 -0.971728 
-0.0312657 -0.26336 -0.964191 0.146266 -0.162231 -0.975852 0.106752 -0.164475 -0.980588 
0.000508099 -0.202687 -0.979243 -0.152976 -0.251724 -0.955632 -0.515329 -0.31008 -0.798928 
-0.415714 -0.386863 -0.823115 -0.328326 -0.292788 -0.898041 0.234962 -0.411502 -0.880602 
0.183672 -0.410196 -0.893311 0.17317 -0.389378 -0.904653 0.0398096 -0.402222 -0.914676 
0.0197481 -0.383008 -0.923534 0.0163719 -0.320631 -0.947063 -0.00572426 -0.294504 -0.955633 
0.0156011 -0.305822 -0.951961 0.0174455 -0.279381 -0.960022 0.0103425 -0.318375 -0.947909 
0.00322076 -0.306587 -0.951837 0.0831807 -0.291713 -0.952882 0.0763034 -0.198057 -0.977216 
0.126799 -0.186256 -0.974285 0.0461108 -0.226265 -0.972974 -0.0607339 -0.270303 -0.960858 
-0.391645 -0.399879 -0.82868 -0.258943 -0.492669 -0.830798 -0.224397 -0.343151 -0.912082 
0.10869 -0.429121 -0.896683 0.107661 -0.445341 -0.888865 0.111282 -0.437736 -0.89219 
-0.00344602 -0.504434 -0.863444 0.00474615 -0.466815 -0.884342 -0.172111 -0.531444 -0.829425 
-0.163655 -0.532202 -0.830649 -0.161875 -0.52355 -0.836476 0.19561 0.563362 -0.80272 
0.0322891 0.588277 -0.808015 -0.0788988 0.553106 -0.829366 -0.177997 0.529047 -0.829715 
0.224426 0.553819 -0.801822 0.275924 0.471127 -0.837798 0.193161 0.521607 -0.831032 
0.0269638 0.487061 -0.872952 -0.0787564 0.473535 -0.877247 -0.21565 0.506825 -0.83464 
-0.179496 0.491573 -0.852137 -0.283473 0.407191 -0.868239 0.286637 0.360317 -0.8877 
0.282723 0.344196 -0.895319 0.204451 0.228746 -0.951775 0.128587 0.161599 -0.978443 
0.010844 0.0863482 -0.996206 -0.10575 0.130004 -0.985858 -0.11329 0.164108 -0.979915 
-0.360313 0.367268 -0.85749 -0.215493 0.303075 -0.928282 -0.414252 0.311344 -0.855254 
0.281167 0.142405 -0.949034 0.239433 0.0451608 -0.969862 0.176472 0.0859372 -0.980547 
0.1197 -0.0102224 -0.992757 0.0531839 -0.0817778 -0.995231 -0.00495412 -0.128792 -0.991659 
-0.0234771 -0.0971068 -0.994997 -0.0324533 0.00156561 -0.999472 -0.104608 0.0623169 -0.992559 
-0.453977 0.224613 -0.862238 -0.361573 0.186043 -0.913593 0.215862 -0.0218262 -0.97618 
0.183133 -0.0511514 -0.981756 0.197068 -0.0311046 -0.979896 0.0767695 -0.194259 -0.977942 
0.118176 -0.118048 -0.985951 0.0425056 -0.142876 -0.988827 0.00347034 -0.15499 -0.98791 
-0.00286985 -0.202646 -0.979248 0.028451 -0.183696 -0.982571 0.0464757 -0.118904 -0.991817 
-0.0322152 -0.0442654 -0.9985 -0.400837 0.150836 -0.903647 -0.213474 0.0351015 -0.976318 
-0.354208 0.0759652 -0.932076 0.0728383 -0.193889 -0.978316 0.177414 -0.17951 -0.967626 
0.0778181 -0.164963 -0.983225 -0.00598105 0.0665829 -0.997763 -0.0625 -0.202826 -0.977218 
-0.0298717 -0.189474 -0.981431 0.0602609 -0.102328 -0.992924 0.00488388 -0.221283 -0.975197 
0.105973 -0.15997 -0.981417 0.0461085 -0.139662 -0.989125 -0.126097 -0.0799502 -0.988791 
-0.331959 0.0489131 -0.942025 -0.249813 -0.0605839 -0.966397 -0.315327 0.0379195 -0.948225 
0.288152 -0.177469 -0.940996 -0.150545 -0.204451 -0.967231 -0.0405495 -0.451969 -0.891111 
-0.0275483 -0.0755585 -0.996761 -0.00890322 -0.126252 -0.991958 0.00557568 -0.217614 -0.976019 
0.0594237 -0.221805 -0.973279 0.0584115 -0.0783696 -0.995212 0.00495067 -0.222954 -0.974816 
0.0546904 -0.252192 -0.966131 0.0491577 -0.25446 -0.965833 -0.178127 -0.134394 -0.974787 
-0.0241669 -0.204156 -0.97864 -0.0432161 -0.190762 -0.980685 
