# vtk DataFile Version 4.2
vtk output
ASCII
DATASET POLYDATA
POINTS 530 float
-24.8581 -30.0845 -14.4871 -17.7206 -30.0845 -16.6848 -10.5832 -30.0845 -17.3743 
-3.44567 -30.0845 -17.6796 3.69182 -30.0845 -16.8726 10.8293 -30.0845 -15.6577 
17.9668 -30.0845 -14.4116 -31.9956 -22.947 -16.5557 -24.8581 -22.947 -18.222 
-17.7206 -22.947 -19.2867 -10.5832 -22.947 -20.0341 -3.44567 -22.947 -20.4084 
3.69182 -22.947 -19.8772 10.8293 -22.947 -18.9251 17.9668 -22.947 -19.0113 
25.1043 -22.947 -17.9442 32.2418 -22.947 -16.1134 -39.1331 -15.8095 -16.0045 
-31.9956 -15.8095 -19.3431 -24.8581 -15.8095 -20.4029 -17.7206 -15.8095 -20.3433 
-10.5832 -15.8095 -21.0267 -3.44567 -15.8095 -21.1034 3.69182 -15.8095 -19.9081 
10.8293 -15.8095 -19.6405 17.9668 -15.8095 -20.1812 25.1043 -15.8095 -20.2618 
32.2418 -15.8095 -19.4768 39.3793 -15.8095 -17.2523 -39.1331 -8.67203 -18.1228 
-31.9956 -8.67203 -19.9978 -24.8581 -8.67203 -20.661 -17.7206 -8.67203 -20.6029 
-10.5832 -8.67203 -20.9994 -3.44567 -8.67203 -20.2187 3.69182 -8.67203 -18.8108 
10.8293 -8.67203 -18.9759 17.9668 -8.67203 -19.0296 25.1043 -8.67203 -19.6578 
32.2418 -8.67203 -19.7062 39.3793 -8.67203 -19.0634 46.5167 -8.67203 -16.4958 
-46.2706 -1.53454 -15.0629 -39.1331 -1.53454 -18.4401 -31.9956 -1.53454 -20.1232 
-24.8581 -1.53454 -20.3826 -17.7206 -1.53454 -19.9604 -10.5832 -1.53454 -20.2675 
-3.44567 -1.53454 -18.7494 3.69182 -1.53454 -19.5888 10.8293 -1.53454 -19.5249 
17.9668 -1.53454 -18.2296 25.1043 -1.53454 -19.3332 32.2418 -1.53454 -20.0901 
39.3793 -1.53454 -19.8752 46.5167 -1.53454 -17.97 -46.2706 5.60294 -15.2158 
-39.1331 5.60294 -17.9792 -31.9956 5.60294 -19.4207 -24.8581 5.60294 -19.3931 
-17.7206 5.60294 -19.0642 -10.5832 5.60294 -19.448 -3.44567 5.60294 -18.9127 
3.69182 5.60294 -19.8136 10.8293 5.60294 -19.8815 17.9668 5.60294 -18.7723 
25.1043 5.60294 -19.5684 32.2418 5.60294 -20.2046 39.3793 5.60294 -19.9918 
46.5167 5.60294 -17.9741 -39.1331 12.7404 -17.1612 -31.9956 12.7404 -18.6504 
-24.8581 12.7404 -19.2635 -17.7206 12.7404 -18.8685 -10.5832 12.7404 -19.2697 
-3.44567 12.7404 -19.2945 3.69182 12.7404 -18.9921 10.8293 12.7404 -18.9382 
17.9668 12.7404 -19.0385 25.1043 12.7404 -19.6029 32.2418 12.7404 -19.6667 
39.3793 12.7404 -18.7379 46.5167 12.7404 -15.7995 -39.1331 19.8779 -15.1967 
-31.9956 19.8779 -17.3711 -24.8581 19.8779 -18.4135 -17.7206 19.8779 -19.0497 
-10.5832 19.8779 -19.6404 -3.44567 19.8779 -19.9327 3.69182 19.8779 -19.5597 
10.8293 19.8779 -19.0581 17.9668 19.8779 -18.6772 25.1043 19.8779 -18.5014 
32.2418 19.8779 -18.0304 39.3793 19.8779 -15.7113 -31.9956 27.0154 -15.1445 
-24.8581 27.0154 -17.2202 -17.7206 27.0154 -18.2805 -10.5832 27.0154 -19.1511 
-3.44567 27.0154 -19.2547 3.69182 27.0154 -18.7136 10.8293 27.0154 -17.8441 
17.9668 27.0154 -16.5965 25.1043 27.0154 -15.4767 -17.7206 34.1529 -15.058 
-10.5832 34.1529 -16.0535 -3.44567 34.1529 -16.0821 3.69182 34.1529 -15.2221 
-24.8581 -30.4496 -14.1874 -17.7206 -32.9089 -14.1874 -10.5832 -33.7868 -14.1874 
-3.44567 -33.9634 -14.1874 3.69182 -33.0262 -14.1874 10.8293 -31.6168 -14.1874 
17.9668 -30.283 -14.1874 -25.6975 -30.0845 -14.1874 -31.9956 -26.6346 -14.1874 
-31.9956 -30.0845 -10.3442 18.6864 -30.0845 -14.1874 25.1043 -27.9732 -14.1874 
25.1043 -30.0845 -8.09833 32.2418 -24.9989 -14.1874 -36.2739 -22.947 -14.1874 
-39.1331 -19.604 -14.1874 -39.1331 -22.947 -11.3379 36.496 -22.947 -14.1874 
39.3793 -20.9583 -14.1874 39.3793 -22.947 -10.4673 -41.5036 -15.8095 -14.1874 
-46.2706 -15.8095 -7.43105 45.3595 -15.8095 -14.1874 46.5167 -14.2051 -14.1874 
46.5167 -15.8095 -12.8697 -45.3832 -8.67203 -14.1874 -46.2706 -5.72347 -14.1874 
-46.2706 -8.67203 -13.2062 49.3763 -8.67203 -14.1874 53.6542 -8.67203 -7.40515 
-47.2087 -1.53454 -14.1874 51.2718 -1.53454 -14.1874 53.6542 -1.53454 -10.6688 
-47.459 5.60294 -14.1874 -46.2706 11.9801 -14.1874 51.2281 5.60294 -14.1874 
53.6542 5.60294 -9.94053 -46.0116 12.7404 -14.1874 -46.2706 12.7404 -14.0172 
48.3427 12.7404 -14.1874 46.5167 15.1339 -14.1874 -40.9809 19.8779 -14.1874 
-46.2706 19.8779 -10.2401 -39.1331 22.226 -14.1874 32.2418 25.8745 -14.1874 
41.4785 19.8779 -14.1874 39.3793 21.5425 -14.1874 -34.1879 27.0154 -14.1874 
-39.1331 27.0154 -11.1904 -31.9956 28.4738 -14.1874 -24.8581 32.3482 -14.1874 
10.8293 33.3582 -14.1874 17.9668 30.7942 -14.1874 29.5348 27.0154 -14.1874 
25.1043 28.7369 -14.1874 32.2418 27.0154 -12.7234 -31.9956 34.1529 -7.30616 
-20.9199 34.1529 -14.1874 -24.8581 34.1529 -12.4632 -17.7206 35.1407 -14.1874 
-10.5832 36.1156 -14.1874 -3.44567 36.0687 -14.1874 8.3976 34.1529 -14.1874 
3.69182 35.2005 -14.1874 10.8293 34.1529 -13.4471 17.9668 34.1529 -10.6317 
-31.9956 -32.1113 -7.0499 -24.8581 -35.368 -7.0499 -17.7206 -36.803 -7.0499 
-10.5832 -37.1009 -7.0499 -3.44567 -36.6556 -7.0499 3.69182 -35.8858 -7.0499 
10.8293 -34.6231 -7.0499 17.9668 -32.7008 -7.0499 25.1043 -30.3473 -7.0499 
-34.8841 -30.0845 -7.0499 -39.1331 -26.2316 -7.0499 25.777 -30.0845 -7.0499 
25.1043 -30.0845 -4.79299 32.2418 -27.5414 -7.0499 39.3793 -24.0736 -7.0499 
-41.9154 -22.947 -7.0499 -46.2706 -16.1795 -7.0499 41.2225 -22.947 -7.0499 
46.5167 -19.0651 -7.0499 -46.479 -15.8095 -7.0499 49.8686 -15.8095 -7.0499 
53.6542 -9.03882 -7.0499 -49.9064 -8.67203 -7.0499 53.8197 -8.67203 -7.0499 
-51.6812 -1.53454 -7.0499 55.302 -1.53454 -7.0499 -52.2855 5.60294 -7.0499 
-53.4081 5.60294 -0.181173 54.8366 5.60294 -7.0499 53.6542 8.33211 -7.0499 
-51.5551 12.7404 -7.0499 51.7213 12.7404 -7.0499 46.5167 19.4534 -7.0499 
-48.513 19.8779 -7.0499 -46.2706 22.9509 -7.0499 46.1137 19.8779 -7.0499 
39.3793 25.6724 -7.0499 -42.5547 27.0154 -7.0499 -39.1331 29.8718 -7.0499 
25.1043 33.7418 -7.0499 37.2675 27.0154 -7.0499 32.2418 30.153 -7.0499 
-32.2105 34.1529 -7.0499 -31.9956 34.2717 -7.0499 -31.9956 34.1529 -3.72149 
-24.8581 37.3102 -7.0499 -17.7206 38.8149 -7.0499 -10.5832 39.3283 -7.0499 
-3.44567 39.2736 -7.0499 3.69182 38.7916 -7.0499 10.8293 37.9886 -7.0499 
24.0511 34.1529 -7.0499 17.9668 36.2903 -7.0499 25.1043 34.1529 -2.99721 
-31.9956 -33.3862 0.0875889 -24.8581 -36.1472 0.0875889 -17.7206 -36.9335 0.0875889 
-10.5832 -36.9217 0.0875889 -3.44567 -35.9907 0.0875889 3.69182 -35.105 0.0875889 
10.8293 -33.9154 0.0875889 17.9668 -31.9188 0.0875889 -36.6074 -30.0845 0.0875889 
-39.1331 -27.8083 0.0875889 23.3619 -30.0845 0.0875889 25.1043 -29.5048 0.0875889 
32.2418 -27.0931 0.0875889 39.3793 -23.9451 0.0875889 -43.2771 -22.947 0.0875889 
-46.2706 -18.3269 0.0875889 41.1478 -22.947 0.0875889 39.3793 -22.947 4.02584 
46.5167 -19.1188 0.0875889 -47.7111 -15.8095 0.0875889 49.9402 -15.8095 0.0875889 
53.6542 -8.71253 0.0875889 -51.12 -8.67203 0.0875889 53.6708 -8.67203 0.0875889 
53.6542 -8.67203 0.149267 -52.8027 -1.53454 0.0875889 -53.4081 5.13336 0.0875889 
54.9358 -1.53454 0.0875889 53.6542 -1.53454 4.54909 -53.4504 5.60294 0.0875889 
-53.4081 6.42119 0.0875889 -53.4081 5.60294 0.231207 54.7125 5.60294 0.0875889 
53.6542 7.9657 0.0875889 53.6542 5.60294 3.41359 -53.0331 12.7404 0.0875889 
51.2415 12.7404 0.0875889 46.5167 19.3134 0.0875889 -49.5595 19.8779 0.0875889 
-46.2706 24.0681 0.0875889 46.0135 19.8779 0.0875889 39.3793 25.874 0.0875889 
-43.092 27.0154 0.0875889 -39.1331 29.928 0.0875889 -39.1331 27.0154 6.55474 
-31.9956 34.005 0.0875889 37.9788 27.0154 0.0875889 32.2418 30.8673 0.0875889 
-31.548 34.1529 0.0875889 -24.8581 36.4144 0.0875889 -24.8581 34.1529 3.91426 
-17.7206 38.0024 0.0875889 -17.7206 34.1529 6.99059 -10.5832 38.738 0.0875889 
-3.44567 38.999 0.0875889 3.69182 38.9965 0.0875889 10.8293 38.5869 0.0875889 
17.9668 36.9135 0.0875889 17.9668 34.1529 6.65538 25.7023 34.1529 0.0875889 
25.1043 34.4379 0.0875889 25.1043 34.1529 0.883623 -31.9956 -31.9997 7.22508 
-24.8581 -34.8112 7.22508 -17.7206 -35.5325 7.22508 -10.5832 -34.9784 7.22508 
-3.44567 -33.9296 7.22508 3.69182 -33.0287 7.22508 10.8293 -31.9619 7.22508 
17.9668 -30.2689 7.22508 -34.8393 -30.0845 7.22508 -39.1331 -26.2764 7.22508 
-31.9956 -30.0845 11.6929 10.8293 -30.0845 13.262 18.5501 -30.0845 7.22508 
17.9668 -30.0845 7.76432 25.1043 -27.9981 7.22508 32.2418 -25.7764 7.22508 
-41.979 -22.947 7.22508 -46.2706 -16.0142 7.22508 -39.1331 -22.947 12.4693 
37.7632 -22.947 7.22508 39.3793 -22.1054 7.22508 46.5167 -16.9944 7.22508 
-46.3839 -15.8095 7.22508 -46.2706 -15.8095 7.4402 47.7143 -15.8095 7.22508 
46.5167 -15.8095 9.63436 -49.4773 -8.67203 7.22508 -46.2706 -8.67203 12.1705 
51.758 -8.67203 7.22508 -50.9591 -1.53454 7.22508 -46.2706 -1.53454 13.8808 
52.8912 -1.53454 7.22508 -51.1761 5.60294 7.22508 -46.2706 5.60294 13.2806 
52.2618 5.60294 7.22508 -49.7343 12.7404 7.22508 -46.2706 12.7404 11.0822 
48.4767 12.7404 7.22508 46.5167 15.5301 7.22508 46.5167 12.7404 10.6176 
-46.5441 19.8779 7.22508 -46.2706 20.155 7.22508 -46.2706 19.8779 7.49518 
-39.1331 26.5929 7.22508 -39.1331 19.8779 12.4348 42.5605 19.8779 7.22508 
39.3793 22.8328 7.22508 39.3793 19.8779 11.4067 -38.4372 27.0154 7.22508 
-31.9956 29.8296 7.22508 -31.9956 27.0154 10.2326 -24.8581 32.0097 7.22508 
-24.8581 27.0154 12.2255 -17.7206 33.9987 7.22508 -17.7206 27.0154 13.8952 
3.69182 27.0154 14.1473 10.8293 27.0154 13.0182 17.9668 33.8178 7.22508 
17.9668 27.0154 12.8415 25.1043 31.3568 7.22508 25.1043 27.0154 11.6345 
33.8711 27.0154 7.22508 32.2418 28.0844 7.22508 32.2418 27.0154 8.68309 
-16.9151 34.1529 7.22508 -10.5832 35.2022 7.22508 -10.5832 34.1529 8.55297 
-3.44567 35.8738 7.22508 -3.44567 34.1529 9.36005 3.69182 35.7826 7.22508 
3.69182 34.1529 9.11287 16.125 34.1529 7.22508 10.8293 34.9893 7.22508 
10.8293 34.1529 8.12999 -24.8581 -31.7467 14.3626 -17.7206 -33.0794 14.3626 
-10.5832 -33.0681 14.3626 -3.44567 -32.2381 14.3626 3.69182 -31.1027 14.3626 
-29.0388 -30.0845 14.3626 -31.9956 -28.5303 14.3626 -24.8581 -30.0845 16.535 
-17.7206 -30.0845 18.3694 -10.5832 -30.0845 18.8862 -3.44567 -30.0845 18.0921 
9.03987 -30.0845 14.3626 3.69182 -30.0845 16.1266 10.8293 -29.6949 14.3626 
17.9668 -27.6177 14.3626 25.1043 -25.6936 14.3626 32.2418 -23.195 14.3626 
[...]
POINT_DATA 530
SCALARS ImageScalars float
LOOKUP_TABLE default
0 0 0 0 0 0 0 0 0 
0 0 0 0 0 0 0 0 0 
0 0 0 0 0 0 0 0 0 
0 0 0 0 0 0 0 0 0 
0 0 0 0 0 0 0 0 0 
0 0 0 0 0 0 0 0 0 
0 0 0 0 0 0 0 0 0 
0 0 0 0 0 0 0 0 0 
0 0 0 0 0 0 0 0 0 
0 0 0 0 0 0 0 0 0 
0 0 0 0 0 0 0 0 0 
0 0 0 0 0 0 0 0 0 
0 0 0 0 0 0 0 0 0 
0 0 0 0 0 0 0 0 0 
0 0 0 0 0 0 0 0 0 
0 0 0 0 0 0 0 0 0 
0 0 0 0 0 0 0 0 0 
0 0 0 0 0 0 0 0 0 
0 0 0 0 0 0 0 0 0 
0 0 0 0 0 0 0 0 0 
0 0 0 0 0 0 0 0 0 
0 0 0 0 0 0 0 0 0 
0 0 0 0 0 0 0 0 0 
0 0 0 0 0 0 0 0 0 
0 0 0 0 0 0 0 0 0 
0 0 0 0 0 0 0 0 0 
0 0 0 0 0 0 0 0 0 
0 0 0 0 0 0 0 0 0 
0 0 0 0 0 0 0 0 0 
0 0 0 0 0 0 0 0 0 
0 0 0 0 0 0 0 0 0 
0 0 0 0 0 0 0 0 0 
0 0 0 0 0 0 0 0 0 
0 0 0 0 0 0 0 0 0 
0 0 0 0 0 0 0 0 0 
0 0 0 0 0 0 0 0 0 
0 0 0 0 0 0 0 0 0 
0 0 0 0 0 0 0 0 0 
0 0 0 0 0 0 0 0 0 
0 0 0 0 0 0 0 0 0 
0 0 0 0 0 0 0 0 0 
0 0 0 0 0 0 0 0 0 
0 0 0 0 0 0 0 0 0 
0 0 0 0 0 0 0 0 0 
0 0 0 0 0 0 0 0 0 
0 0 0 0 0 0 0 0 0 
0 0 0 0 0 0 0 0 0 
0 0 0 0 0 0 0 0 0 
0 0 0 0 0 0 0 0 0 
0 0 0 0 0 0 0 0 0 
0 0 0 0 0 0 0 0 0 
0 0 0 0 0 0 0 0 0 
0 0 0 0 0 0 0 0 0 
0 0 0 0 0 0 0 0 0 
0 0 0 0 0 0 0 0 0 
0 0 0 0 0 0 0 0 0 
0 0 0 0 0 0 0 0 0 
0 0 0 0 0 0 0 0 0 
0 0 0 0 0 0 0 0 
NORMALS Normals float
0.285667 0.600626 0.746755 0.177883 0.531668 0.828062 0.0642116 0.538869 0.839939 
-0.0310295 0.549321 0.835035 -0.125491 0.577768 0.806496 -0.148282 0.649111 0.746101 
-0.206794 0.772396 0.600534 0.343862 0.44085 0.829102 0.165529 0.359474 0.918356 
0.122429 0.236015 0.964006 0.0746233 0.232184 0.969805 -0.00995807 0.211172 0.977398 
-0.0999921 0.180129 0.978548 -0.0579642 0.241042 0.968782 -0.0650185 0.325501 0.943304 
-0.18036 0.462735 0.867955 -0.313708 0.616389 0.722255 0.511107 0.332741 0.792498 
0.270101 0.212472 0.939096 0.0592635 0.163109 0.984826 0.043403 0.085914 0.995357 
0.0539025 0.0640495 0.99649 -0.0755977 -0.0113285 0.997074 -0.102351 -0.0751328 0.991907 
0.0193649 0.00116471 0.999812 0.043881 -0.00935447 0.998993 -0.0468441 0.110655 0.992754 
-0.192239 0.208095 0.959031 -0.362555 0.365413 0.857337 0.396312 0.150128 0.905758 
0.17294 0.0490106 0.983712 0.0408078 -0.00225414 0.999164 0.0234801 -0.0260311 0.999385 
-0.0236455 -0.0528515 0.998322 -0.15654 -0.162045 0.974288 -0.0829212 -0.0245591 0.996253 
0.0151844 -0.0123602 0.999808 0.0474389 -0.134175 0.989821 0.047087 -0.0626155 0.996926 
-0.0398279 0.0416928 0.998336 -0.190774 0.171327 0.966567 -0.508978 0.268342 0.817884 
0.623257 0.0998735 0.775614 0.331998 -0.00960374 0.943231 0.126854 -0.0406776 0.991087 
-0.0116939 -0.0883866 0.996018 -0.00815067 -0.108584 0.994054 -0.0784445 -0.106523 0.991211 
-0.0551704 -0.0909561 0.994326 0.0565866 0.0756417 0.995528 -0.103457 0.0672111 0.992361 
-0.00336355 -0.019384 0.999806 0.129238 -0.00626687 0.991594 0.0383172 0.0347502 0.998661 
-0.125414 0.0639074 0.990044 -0.453921 0.0856717 0.886914 0.569414 -0.0653408 0.81945 
0.283611 -0.0888008 0.954819 0.0926694 -0.105533 0.990088 -0.0251189 -0.0788695 0.996568 
0.00299112 -0.0761149 0.997095 -0.0102259 -0.070616 0.997451 0.0230537 0.0380076 0.999011 
0.0701872 -0.045754 0.996484 -0.0750724 -0.0466826 0.996085 -0.0158836 0.0575024 0.998219 
0.0980925 0.0188093 0.995 0.0301356 -0.0328093 0.999007 -0.130701 -0.0829521 0.987945 
-0.47972 -0.139663 0.866235 0.305053 -0.163931 0.93812 0.142382 -0.132446 0.980911 
0.0178999 -0.0682372 0.997509 0.000796917 -0.00105761 0.999999 0.0298343 0.0138978 0.999458 
-0.0194815 0.0710696 0.997281 -0.0248912 -0.0141256 0.99959 0.00324716 -0.052338 0.998624 
0.0475841 -0.0082927 0.998833 0.0440686 -0.0715456 0.996463 -0.0589776 -0.140572 0.988312 
-0.246073 -0.24239 0.938454 -0.573151 -0.401228 0.714503 0.390014 -0.336888 0.856969 
0.197926 -0.218447 0.955566 0.111832 -0.131651 0.984968 0.0844504 -0.041545 0.995561 
0.0614992 -0.00640927 0.998087 -0.00557231 -0.00269543 0.999981 -0.060682 -0.0184789 0.997986 
-0.0622487 -0.0693979 0.995645 -0.0374413 -0.157451 0.986817 -0.0440662 -0.264115 0.963484 
-0.160856 -0.383886 0.909262 -0.429685 -0.563337 0.705707 0.328219 -0.434628 0.838672 
0.197249 -0.317223 0.927611 0.121049 -0.239966 0.963205 0.0691103 -0.214576 0.974259 
-0.0304456 -0.224199 0.974068 -0.0939663 -0.252211 0.963099 -0.145308 -0.323929 0.934856 
-0.15051 -0.421433 0.894282 -0.194603 -0.543833 0.816318 0.177877 -0.631318 0.754849 
0.0653123 -0.618788 0.782838 -0.0494986 -0.63894 0.767662 -0.14399 -0.662508 0.735085 
0.287174 0.615322 0.734105 0.174807 0.703352 0.689013 0.061152 0.74756 0.661373 
-0.0450564 0.789353 0.612284 -0.139764 0.758768 0.63619 -0.167851 0.737883 0.653724 
-0.210523 0.783056 0.585238 0.302923 0.611739 0.730762 0.401209 0.563904 0.721833 
0.47359 0.736061 0.48366 -0.219474 0.78435 0.580195 -0.278979 0.764646 0.580936 
-0.340466 0.93196 0.124632 -0.361029 0.728935 0.581645 0.512346 0.492138 0.703777 
0.566915 0.437084 0.698258 0.649896 0.558184 0.515815 -0.43212 0.694526 0.575244 
-0.471888 0.64151 0.604803 -0.504628 0.801139 0.321756 0.594478 0.375157 0.711233 
0.835107 0.44838 0.318671 -0.562911 0.503709 0.655293 -0.588287 0.463545 0.662604 
-0.621071 0.553302 0.555093 0.670816 0.258134 0.69525 0.678913 0.20476 0.705088 
0.723186 0.279825 0.631427 -0.658975 0.278156 0.698843 -0.922638 0.31426 0.223561 
0.673591 0.108712 0.731066 -0.70303 0.0897472 0.705474 -0.902096 0.0794981 0.424149 
0.631355 -0.0551667 0.773529 0.57916 -0.212763 0.78696 -0.724999 -0.168941 0.667709 
-0.904831 -0.225261 0.3613 0.56905 -0.229029 0.789764 0.583509 -0.232 0.778263 
-0.670072 -0.411975 0.617478 -0.616668 -0.481126 0.623087 0.435422 -0.367866 0.821634 
0.686094 -0.488169 0.539413 0.425899 -0.405001 0.809064 -0.334136 -0.677855 0.654878 
-0.503245 -0.606 0.616043 -0.460685 -0.6308 0.624388 0.382881 -0.473245 0.793373 
0.553543 -0.620669 0.555302 0.351353 -0.503366 0.789414 0.271409 -0.597768 0.754328 
-0.201719 -0.6439 0.73804 -0.196435 -0.592473 0.781274 -0.303087 -0.661102 0.686354 
-0.236739 -0.619162 0.748727 -0.382488 -0.742828 0.549462 0.447759 -0.868736 0.211683 
0.225038 -0.66277 0.714208 0.296491 -0.756226 0.58328 0.181171 -0.680354 0.710137 
0.0534359 -0.735415 0.675507 -0.0549813 -0.749183 0.660077 -0.185481 -0.680516 0.708868 
-0.14362 -0.718518 0.680519 -0.205642 -0.70683 0.676832 -0.261462 -0.814259 0.518286 
0.491198 0.811595 0.316289 0.289432 0.908879 0.300281 0.112351 0.968433 0.222519 
-0.0121096 0.98717 0.159214 -0.0849012 0.991305 0.100531 -0.140574 0.984623 0.103713 
-0.217101 0.968762 0.119867 -0.284975 0.954517 0.0876758 -0.341894 0.937615 0.0631333 
0.568883 0.759267 0.316048 0.684911 0.660657 0.307292 -0.346077 0.935956 0.0649349 
-0.336847 0.941542 -0.00569223 -0.390304 0.914497 0.10657 -0.487756 0.862972 0.13181 
0.742834 0.593872 0.309053 0.837736 0.454949 0.302027 -0.53157 0.834237 0.146567 
-0.667098 0.719302 0.193867 0.841582 0.448325 0.301239 -0.761108 0.6168 0.200681 
-0.922203 0.32756 0.205538 0.889396 0.318498 0.327924 -0.926979 0.314131 0.205016 
0.927718 0.158421 0.337996 -0.980719 0.0633132 0.184881 0.932242 -0.00626853 0.361781 
0.998436 0.0182537 -0.0528374 -0.95342 -0.239911 0.182845 -0.928131 -0.330611 0.171082 
0.889903 -0.24296 0.386061 -0.863579 -0.480893 0.15157 -0.729232 -0.663214 0.168426 
0.807291 -0.491394 0.326822 0.751131 -0.570016 0.332992 -0.718285 -0.67438 0.171108 
-0.55382 -0.80601 0.20888 0.668581 -0.683304 0.293421 0.576512 -0.773596 0.263029 
-0.383099 -0.881121 0.277239 -0.519598 -0.823226 0.228731 -0.4646 -0.846325 0.260539 
0.449604 -0.871288 0.196758 0.44701 -0.873079 0.194718 0.419775 -0.907588 -0.00853835 
0.308457 -0.933541 0.182632 0.134754 -0.980006 0.146389 0.031322 -0.989453 0.141425 
-0.036897 -0.986781 0.157806 -0.0882938 -0.973335 0.211717 -0.170834 -0.945231 0.278124 
-0.36824 -0.88668 0.279641 -0.277679 -0.91317 0.298353 -0.397937 -0.916186 0.0474293 
0.478474 0.87801 -0.0126606 0.232448 0.971807 -0.0394952 0.0521754 0.994629 -0.0893949 
-0.0620595 0.986822 -0.149435 -0.120238 0.973768 -0.193181 -0.136596 0.970188 -0.200191 
-0.207324 0.961269 -0.1816 -0.287814 0.943431 -0.164622 0.628409 0.777871 -0.00429712 
0.708177 0.706033 -0.00193407 -0.311801 0.936582 -0.159981 -0.318756 0.934671 -0.157431 
-0.353655 0.928897 -0.109904 -0.451911 0.88395 -0.120035 0.797357 0.603508 4.5289e-05 
0.856863 0.515509 -0.00604702 -0.502727 0.856355 -0.117993 -0.468391 0.86785 -0.165668 
-0.674591 0.729613 -0.112214 0.880795 0.473437 -0.00751177 -0.775344 0.621086 -0.114429 
-0.950665 0.279434 -0.134731 0.944598 0.327101 -0.0271832 -0.951133 0.277816 -0.134777 
-0.950904 0.27772 -0.136579 0.985983 0.16029 -0.0463085 0.997379 0.0283395 -0.0665726 
-0.984574 0.064729 -0.162554 -0.957622 0.0497472 -0.283698 0.99751 0.019222 -0.0678501 
0.997389 -0.00786929 -0.0717881 0.996992 0.0176468 -0.0754749 -0.956505 -0.23965 -0.166328 
-0.929996 -0.323605 -0.174319 -0.927998 -0.254536 -0.272087 0.966011 -0.236919 -0.103401 
-0.850375 -0.488535 -0.195436 -0.746052 -0.643596 -0.170855 0.83954 -0.535752 -0.090231 
0.751439 -0.642079 -0.151901 -0.733593 -0.65816 -0.169313 -0.618595 -0.772938 -0.141093 
0.645284 -0.743149 -0.177025 0.530703 -0.828317 -0.17957 0.506081 -0.693898 -0.512238 
0.366065 -0.897741 -0.245068 -0.594596 -0.793507 -0.129624 -0.497559 -0.859667 -0.11579 
0.35827 -0.89963 -0.249618 0.273507 -0.909839 -0.31207 0.246969 -0.845779 -0.472931 
0.147783 -0.938047 -0.313415 0.174774 -0.803148 -0.569567 0.0651523 -0.962444 -0.263546 
0.0171691 -0.977118 -0.212005 -0.0275969 -0.982841 -0.18238 -0.150283 -0.973394 -0.17297 
-0.266564 -0.953844 -0.138293 -0.207349 -0.815807 -0.539875 -0.402709 -0.907108 -0.122397 
-0.394103 -0.910893 -0.122297 -0.392342 -0.904957 -0.16468 0.462735 0.847221 -0.260946 
0.224078 0.935297 -0.273877 0.00828037 0.96822 -0.249964 -0.108295 0.962052 -0.250457 
-0.131835 0.960509 -0.245035 -0.13221 0.956106 -0.261501 -0.184737 0.944533 -0.271532 
-0.261282 0.928172 -0.265005 0.550054 0.793981 -0.258911 0.692904 0.670894 -0.264168 
0.467506 0.776152 -0.423115 -0.212838 0.890536 -0.402051 -0.262372 0.928538 -0.262636 
-0.260716 0.924827 -0.276989 -0.279551 0.929917 -0.238967 -0.368459 0.900747 -0.229983 
0.75767 0.593 -0.272556 0.85198 0.42828 -0.301175 0.697571 0.531465 -0.480562 
-0.453327 0.864946 -0.215318 -0.481481 0.849583 -0.215371 -0.686622 0.666079 -0.291359 
0.853943 0.424058 -0.30159 0.851439 0.422581 -0.310608 -0.722637 0.625283 -0.294647 
-0.697024 0.622481 -0.355915 0.882076 0.28167 -0.37763 0.765469 0.226673 -0.602226 
-0.89383 0.288248 -0.343485 0.900018 0.113681 -0.420765 0.67153 0.0402642 -0.739882 
-0.932518 0.0341701 -0.359504 0.870996 -0.0697269 -0.486317 0.624254 -0.136606 -0.769185 
-0.877782 -0.275292 -0.392063 0.802029 -0.264325 -0.535613 0.629929 -0.3032 -0.715024 
-0.789251 -0.479401 -0.383742 -0.738883 -0.550635 -0.388399 -0.73068 -0.484601 -0.480905 
0.634459 -0.55009 -0.543013 0.62653 -0.558105 -0.54404 0.62418 -0.550247 -0.554641 
0.496807 -0.671406 -0.549906 0.426711 -0.46979 -0.772797 -0.634718 -0.6635 -0.396107 
-0.588195 -0.704217 -0.397625 -0.532495 -0.654278 -0.537 0.477419 -0.683692 -0.551939 
0.286192 -0.751846 -0.593989 0.27272 -0.668612 -0.691796 0.225738 -0.75421 -0.616611 
0.192673 -0.627212 -0.75464 0.174563 -0.796095 -0.579449 0.133358 -0.55905 -0.818339 
-0.123209 -0.386381 -0.914073 -0.0826978 -0.418969 -0.904227 -0.198202 -0.789934 -0.580276 
-0.0741774 -0.487993 -0.86969 -0.317368 -0.780113 -0.539167 -0.200762 -0.665117 -0.719245 
-0.467145 -0.758245 -0.454797 -0.434923 -0.772574 -0.462569 -0.409996 -0.750702 -0.518025 
0.167581 -0.799468 -0.57686 0.112361 -0.816445 -0.566386 0.110357 -0.783688 -0.611274 
0.0358786 -0.831165 -0.554867 0.0263041 -0.767426 -0.640597 -0.0524309 -0.810644 -0.583188 
-0.0657044 -0.742525 -0.666588 -0.179413 -0.788382 -0.588442 -0.118375 -0.770667 -0.626146 
-0.11576 -0.739251 -0.663406 0.253101 0.818216 -0.5162 0.0792444 0.87694 -0.474022 
-0.0585882 0.908188 -0.414441 -0.132961 0.919658 -0.369528 -0.165888 0.905547 -0.390469 
0.375744 0.762634 -0.526504 0.471616 0.689339 -0.549901 0.261081 0.742006 -0.617466 
0.112377 0.724227 -0.680343 -0.007515 0.722482 -0.691349 -0.119478 0.793947 -0.596132 
-0.204838 0.884051 -0.420112 -0.173312 0.85773 -0.484007 -0.218242 0.87265 -0.436867 
-0.245168 0.84715 -0.471412 -0.261927 0.845437 -0.465435 -0.32451 0.824005 -0.464444 
0.652113 0.496277 -0.573112 0.667298 0.437688 -0.602613 0.444147 0.400896 -0.801259 
-0.200449 0.583543 -0.786955 -0.246927 0.723324 -0.644848 -0.33872 0.820684 -0.460159 
-0.321518 0.815234 -0.481685 -0.515685 0.718586 -0.466586 0.678469 0.311447 -0.665343 
0.593919 0.25996 -0.761368 0.354253 0.100164 -0.92977 -0.236365 0.413477 -0.8793 
-0.628342 0.579873 -0.518588 -0.492857 0.526617 -0.692652 -0.732385 0.40545 -0.547013 
0.670938 0.176073 -0.720306 0.478341 0.0677587 -0.875556 0.269759 -0.0592376 -0.961104 
-0.376416 0.194093 -0.905891 -0.778124 0.270063 -0.567089 -0.722756 0.260475 -0.640138 
0.638973 0.0273852 -0.768741 0.368479 -0.0836963 -0.925861 0.214118 -0.139498 -0.966796 
0.137375 -0.159591 -0.977578 -0.105219 -0.273533 -0.95609 0.0960581 -0.208268 -0.973343 
-0.803234 -0.00207227 -0.59566 -0.688812 -0.0170565 -0.724739 0.541424 -0.151577 -0.826973 
0.335278 -0.160309 -0.92838 0.195506 -0.138936 -0.970811 0.127495 -0.134631 -0.982659 
0.0772716 -0.180156 -0.980598 -0.0344326 -0.316941 -0.94782 -0.0257646 -0.377991 -0.925451 
-0.0716312 -0.380398 -0.922045 -0.0528251 -0.289582 -0.955695 0.186241 -0.19627 -0.962701 
-0.337787 -0.265239 -0.903077 -0.736395 -0.29012 -0.61119 -0.700218 -0.365902 -0.613035 
-0.680712 -0.292669 -0.671548 0.425998 -0.285858 -0.858377 0.39514 -0.346011 -0.850965 
0.37966 -0.273247 -0.883852 0.222942 -0.221929 -0.949234 0.10714 -0.207314 -0.97239 
-0.0196243 -0.196296 -0.980348 -0.126952 -0.228441 -0.965245 -0.0960475 -0.18085 -0.978809 
-0.043224 -0.292018 -0.955436 0.0777738 -0.24899 -0.965378 0.175175 -0.255638 -0.950769 
0.0665513 -0.327476 -0.942513 -0.110028 -0.375807 -0.920143 -0.598774 -0.478996 -0.641897 
-0.479803 -0.57541 -0.662338 -0.420324 -0.460147 -0.782044 0.307487 -0.430559 -0.84857 
0.250165 -0.463094 -0.850272 0.244092 -0.416919 -0.875555 0.168797 -0.522791 -0.835582 
0.146671 -0.395904 -0.906503 0.12271 -0.533098 -0.837107 0.0517769 -0.346028 -0.936794 
-0.0351246 -0.262386 -0.964323 -0.0928856 -0.16607 -0.98173 -0.124166 -0.365221 -0.922603 
-0.122972 -0.210748 -0.969775 -0.0447283 -0.318722 -0.946792 -0.0165419 -0.250787 -0.967901 
0.0143688 -0.41486 -0.909772 0.0962104 -0.365636 -0.925772 -0.0897733 -0.558693 -0.824502 
-0.00135438 -0.452255 -0.891887 -0.357877 -0.609969 -0.707009 -0.275752 -0.613767 -0.739764 
-0.247582 -0.576596 -0.778614 0.0924443 -0.515674 -0.851783 0.0674087 -0.501716 -0.862402 
0.0637375 -0.486403 -0.871407 -0.10076 -0.396394 -0.912534 -0.0266245 -0.468358 -0.883137 
-0.0344026 -0.428019 -0.903115 0.219647 0.312663 -0.92412 0.088293 0.391934 -0.915747 
0.0114619 0.380141 -0.924857 -0.0557061 0.386985 -0.920402 -0.0954614 0.406022 -0.908864 
-0.133631 0.453206 -0.881332 0.223975 0.308332 -0.924536 0.218952 0.306857 -0.926228 
0.0667867 0.266834 -0.961426 0.00766064 0.218627 -0.975778 -0.0214239 0.206897 -0.978128 
-0.0731739 0.323912 -0.943253 -0.137902 0.452562 -0.881006 -0.130652 0.439877 -0.888503 
-0.134905 0.368173 -0.919918 -0.13141 0.371872 -0.918935 0.278521 0.072036 -0.957725 
0.181288 0.0356994 -0.982782 0.0388536 0.0204782 -0.999035 -0.0495369 0.011685 -0.998704 
-0.00311882 -0.0439693 -0.999028 0.0448475 0.0377155 -0.998282 -0.0133595 0.0834757 -0.99642 
-0.060241 0.153717 -0.986277 -0.230004 0.406956 -0.884016 -0.0971557 0.270379 -0.957839 
-0.233077 0.405861 -0.883715 0.206705 -0.0819024 -0.974969 0.14048 -0.137017 -0.980557 
0.143778 -0.104999 -0.984024 0.0439077 -0.0999432 -0.994024 -0.0600002 0.00376324 -0.998191 
0.00580436 0.000739887 -0.999983 0.0600906 -0.0190983 -0.99801 -0.0842889 -0.247473 -0.965221 
-0.00834524 -0.146123 -0.989231 0.0867822 -0.197351 -0.976484 0.0101008 -0.105033 -0.994417 
0.0303633 0.00441186 -0.999529 -0.371006 0.191822 -0.908603 -0.105317 0.0830295 -0.990966 
-0.370588 0.172452 -0.912647 0.144541 -0.16275 -0.976023 0.13081 -0.17079 -0.976586 
0.152347 -0.165119 -0.974436 -0.0119323 -0.275637 -0.961188 0.050174 -0.113476 -0.992273 
-0.0247669 -0.247566 -0.968554 -0.0257935 -0.123302 -0.992034 -0.105856 -0.245113 -0.963698 
-0.0889134 -0.294011 -0.951658 -0.101204 -0.143147 -0.984513 0.0967916 -0.193244 -0.976365 
0.101677 -0.0951193 -0.99026 -0.0468012 -0.0797815 -0.995713 -0.336431 -0.050298 -0.940364 
-0.312552 -0.113783 -0.943061 -0.304353 -0.0515197 -0.951165 0.156101 -0.206626 -0.965887 
0.145117 -0.218747 -0.96493 0.152198 -0.207715 -0.966277 -0.167843 -0.241992 -0.955651 
-0.0740084 -0.256115 -0.963809 -0.0682413 -0.226968 -0.971508 
