# vtk DataFile Version 4.2
vtk output
ASCII
DATASET POLYDATA
POINTS 546 float
-32.1327 -35.6452 -14.776 -24.1234 -35.6452 -16.5043 -16.1142 -35.6452 -16.9753 
-8.10494 -35.6452 -17.0316 -0.0957017 -35.6452 -16.8992 7.91354 -35.6452 -16.5095 
15.9228 -35.6452 -14.8907 -40.1419 -27.6359 -16.3383 -32.1327 -27.6359 -17.6628 
-24.1234 -27.6359 -18.8371 -16.1142 -27.6359 -18.6706 -8.10494 -27.6359 -18.7635 
-0.0957017 -27.6359 -18.599 7.91354 -27.6359 -18.1485 15.9228 -27.6359 -17.8717 
23.932 -27.6359 -17.1531 31.9413 -27.6359 -16.3907 39.9505 -27.6359 -14.6684 
-48.1511 -19.6267 -14.9763 -40.1419 -19.6267 -17.8466 -32.1327 -19.6267 -18.5533 
-24.1234 -19.6267 -18.758 -16.1142 -19.6267 -18.5724 -8.10494 -19.6267 -18.2258 
-0.0957017 -19.6267 -17.7291 7.91354 -19.6267 -17.6679 15.9228 -19.6267 -17.7739 
23.932 -19.6267 -18.0429 31.9413 -19.6267 -18.1854 39.9505 -19.6267 -18.0117 
47.9597 -19.6267 -16.6278 55.969 -19.6267 -13.5749 -48.1511 -11.6175 -16.4103 
-40.1419 -11.6175 -18.0833 -32.1327 -11.6175 -18.67 -24.1234 -11.6175 -18.2552 
-16.1142 -11.6175 -17.2637 -8.10494 -11.6175 -18.4688 -0.0957017 -11.6175 -17.4448 
7.91354 -11.6175 -17.243 15.9228 -11.6175 -16.886 23.932 -11.6175 -17.6709 
31.9413 -11.6175 -19.1055 39.9505 -11.6175 -18.6043 47.9597 -11.6175 -18.12 
55.969 -11.6175 -17.5116 63.9782 -11.6175 -13.7847 -48.1511 -3.60822 -15.65 
-40.1419 -3.60822 -17.5349 -32.1327 -3.60822 -18.0509 -24.1234 -3.60822 -16.9323 
-16.1142 -3.60822 -15.7801 -8.10494 -3.60822 -19.8324 -0.0957017 -3.60822 -15.5713 
7.91354 -3.60822 -20.4617 15.9228 -3.60822 -16.6579 23.932 -3.60822 -16.7143 
31.9413 -3.60822 -17.9933 39.9505 -3.60822 -18.8086 47.9597 -3.60822 -19.2093 
55.969 -3.60822 -17.8926 63.9782 -3.60822 -14.3303 -48.1511 4.40102 -15.016 
-40.1419 4.40102 -17.3122 -32.1327 4.40102 -17.3794 -24.1234 4.40102 -16.514 
-16.1142 4.40102 -15.5985 -8.10494 4.40102 -20.2328 -0.0957017 4.40102 -15.6274 
7.91354 4.40102 -19.4768 15.9228 4.40102 -16.4393 23.932 4.40102 -16.6624 
31.9413 4.40102 -17.9898 39.9505 4.40102 -18.9382 47.9597 4.40102 -19.2531 
55.969 4.40102 -17.8241 63.9782 4.40102 -14.0111 -40.1419 12.4103 -15.5372 
-32.1327 12.4103 -16.4384 -24.1234 12.4103 -16.2614 -16.1142 12.4103 -15.9661 
-8.10494 12.4103 -17.5307 -0.0957017 12.4103 -17.988 7.91354 12.4103 -17.8668 
15.9228 12.4103 -16.9805 23.932 12.4103 -17.6235 31.9413 12.4103 -18.9068 
39.9505 12.4103 -18.6045 47.9597 12.4103 -18.0889 55.969 12.4103 -17.3381 
63.9782 12.4103 -13.4586 -40.1419 20.4195 -14.5048 -32.1327 20.4195 -16.1533 
-24.1234 20.4195 -16.5174 -16.1142 20.4195 -16.2164 -8.10494 20.4195 -15.9933 
-0.0957017 20.4195 -17.1819 7.91354 20.4195 -17.9705 15.9228 20.4195 -18.0129 
23.932 20.4195 -17.8402 31.9413 20.4195 -18.0391 39.9505 20.4195 -18.2953 
47.9597 20.4195 -16.7659 55.969 20.4195 -13.8356 -32.1327 28.4287 -14.1365 
-24.1234 28.4287 -15.9695 -16.1142 28.4287 -15.5733 -8.10494 28.4287 -16.0233 
-0.0957017 28.4287 -16.2775 7.91354 28.4287 -16.5233 15.9228 28.4287 -16.3102 
23.932 28.4287 -16.0149 31.9413 28.4287 -15.9291 39.9505 28.4287 -15.1282 
-24.1234 36.438 -13.4517 -16.1142 36.438 -13.2863 -8.10494 36.438 -13.4312 
-0.0957017 36.438 -13.1924 -32.1327 -37.6896 -13.0389 -24.1234 -39.5931 -13.0389 
-16.1142 -41.0125 -13.0389 -16.1142 -43.6544 -5.14337 -8.10494 -41.1237 -13.0389 
-8.10494 -43.6544 -6.75269 -0.0957017 -40.8722 -13.0389 -0.0957017 -43.6544 -5.53518 
7.91354 -39.9462 -13.0389 15.9228 -37.7055 -13.0389 -36.0842 -35.6452 -13.0389 
-40.1419 -33.1686 -13.0389 -40.1419 -35.6452 -10.0834 23.6525 -35.6452 -13.0389 
23.932 -35.5261 -13.0389 23.932 -35.6452 -12.8598 31.9413 -31.9929 -13.0389 
31.9413 -35.6452 -6.67935 39.9505 -29.7416 -13.0389 -46.0958 -27.6359 -13.0389 
-48.1511 -24.5024 -13.0389 -48.1511 -27.6359 -11.1698 44.1426 -27.6359 -13.0389 
47.9597 -25.5008 -13.0389 47.9597 -27.6359 -10.1967 55.969 -20.3998 -13.0389 
-51.869 -19.6267 -13.0389 -56.1604 -19.6267 -9.35504 56.9981 -19.6267 -13.0389 
63.9782 -13.3259 -13.0389 63.9782 -19.6267 -8.14944 -54.193 -11.6175 -13.0389 
-56.1604 -11.6175 -11.4125 64.9498 -11.6175 -13.0389 -53.4529 -3.60822 -13.0389 
-56.1604 -3.60822 -11.379 65.9354 -3.60822 -13.0389 71.9875 -3.60822 -6.40521 
-52.8961 4.40102 -13.0389 -56.1604 4.40102 -10.7719 -48.1511 12.1747 -13.0389 
65.4734 4.40102 -13.0389 71.9875 4.40102 -5.75068 -56.1604 12.4103 -7.94055 
-47.9508 12.4103 -13.0389 -48.1511 12.4103 -12.9704 64.5068 12.4103 -13.0389 
63.9782 13.3558 -13.0389 -43.3642 20.4195 -13.0389 -48.1511 20.4195 -10.2915 
-40.1419 25.4231 -13.0389 47.9597 27.4057 -13.0389 57.3024 20.4195 -13.0389 
55.969 21.7512 -13.0389 63.9782 20.4195 -6.19633 -48.1511 28.4287 -6.57942 
-36.3807 28.4287 -13.0389 -40.1419 28.4287 -11.9589 -32.1327 31.4145 -13.0389 
7.91354 35.0193 -13.0389 15.9228 33.4243 -13.0389 23.932 32.7348 -13.0389 
31.9413 32.1999 -13.0389 46.1547 28.4287 -13.0389 39.9505 31.3545 -13.0389 
47.9597 28.4287 -11.968 -40.1419 36.438 -6.49256 -25.6732 36.438 -13.0389 
-32.1327 36.438 -10.8481 -24.1234 37.2207 -13.0389 -16.1142 36.8689 -13.0389 
-8.10494 37.0478 -13.0389 1.18343 36.438 -13.0389 -0.0957017 36.6573 -13.0389 
7.91354 36.438 -11.8655 15.9228 36.438 -9.63806 23.932 36.438 -8.33665 
31.9413 36.438 -7.54275 -24.1234 44.4472 -6.29013 -16.1142 44.4472 -6.66153 
-8.10494 44.4472 -6.34335 -16.1142 -43.6815 -5.02969 -8.10494 -44.115 -5.02969 
-0.0957017 -43.7802 -5.02969 -40.1419 -38.6957 -5.02969 -32.1327 -41.3677 -5.02969 
-16.5624 -43.6544 -5.02969 -24.1234 -43.1884 -5.02969 -16.1142 -43.6544 -4.90631 
-8.10494 -43.6544 -3.44037 0.866903 -43.6544 -5.02969 -0.0957017 -43.6544 -4.53246 
7.91354 -42.7257 -5.02969 15.9228 -40.7416 -5.02969 23.932 -38.3955 -5.02969 
31.9413 -36.2455 -5.02969 -45.1962 -35.6452 -5.02969 -48.1511 -33.379 -5.02969 
33.4225 -35.6452 -5.02969 31.9413 -35.6452 -2.42503 39.9505 -33.1049 -5.02969 
47.9597 -30.3151 -5.02969 -53.8998 -27.6359 -5.02969 -56.1604 -24.5934 -5.02969 
54.0636 -27.6359 -5.02969 55.969 -26.6989 -5.02969 63.9782 -21.4941 -5.02969 
-58.9837 -19.6267 -5.02969 65.8512 -19.6267 -5.02969 -61.4662 -11.6175 -5.02969 
70.2776 -11.6175 -5.02969 71.9875 -6.11125 -5.02969 -62.2496 -3.60822 -5.02969 
-64.1696 -3.60822 1.18348 72.6679 -3.60822 -5.02969 71.9875 -3.60822 -1.85916 
-60.5743 4.40102 -5.02969 72.3318 4.40102 -5.02969 71.9875 5.39487 -5.02969 
71.9875 4.40102 -3.54191 -58.7078 12.4103 -5.02969 -56.1604 17.5406 -5.02969 
69.2081 12.4103 -5.02969 -54.4621 20.4195 -5.02969 -56.1604 20.4195 -1.83235 
55.969 27.7105 -5.02969 64.5527 20.4195 -5.02969 63.9782 21.0572 -5.02969 
63.9782 20.4195 -3.08536 -49.6179 28.4287 -5.02969 -48.1511 30.4308 -5.02969 
39.9505 35.6131 -5.02969 54.9518 28.4287 -5.02969 47.9597 32.7265 -5.02969 
-41.8818 36.438 -5.02969 -40.1419 37.7972 -5.02969 -32.1327 42.5723 -5.02969 
-0.0957017 43.909 -5.02969 7.91354 41.4028 -5.02969 15.9228 39.0931 -5.02969 
23.932 38.2299 -5.02969 36.7313 36.438 -5.02969 31.9413 37.7653 -5.02969 
-26.8272 44.4472 -5.02969 -24.1234 45.1824 -5.02969 -16.1142 45.5444 -5.02969 
-2.98195 44.4472 -5.02969 -8.10494 45.3446 -5.02969 -0.0957017 44.4472 -1.70487 
-40.1419 -38.1054 2.97955 -32.1327 -40.1708 2.97955 -24.1234 -41.1318 2.97955 
-16.1142 -41.7648 2.97955 -8.10494 -41.6707 2.97955 -0.0957017 -41.6943 2.97955 
7.91354 -41.0862 2.97955 15.9228 -39.2276 2.97955 23.932 -36.6385 2.97955 
-44.4093 -35.6452 2.97955 -48.1511 -33.3837 2.97955 -40.1419 -35.6452 7.55549 
-32.1327 -35.6452 10.635 27.3037 -35.6452 2.97955 23.932 -35.6452 5.21615 
31.9413 -34.2029 2.97955 39.9505 -32.2388 2.97955 47.9597 -28.8607 2.97955 
-54.5869 -27.6359 2.97955 -56.1604 -25.7483 2.97955 39.9505 -27.6359 8.84576 
50.9437 -27.6359 2.97955 47.9597 -27.6359 5.4266 55.969 -25.2543 2.97955 
63.9782 -19.9417 2.97955 -60.2395 -19.6267 2.97955 55.969 -19.6267 9.32159 
64.296 -19.6267 2.97955 63.9782 -19.6267 3.34997 -63.4375 -11.6175 2.97955 
-64.1696 -6.64479 2.97955 68.7416 -11.6175 2.97955 63.9782 -11.6175 8.21319 
-64.6114 -3.60822 2.97955 -64.1696 0.253688 2.97955 -64.1696 -3.60822 5.10661 
70.8943 -3.60822 2.97955 63.9782 -3.60822 10.1205 -63.6918 4.40102 2.97955 
70.3987 4.40102 2.97955 63.9782 4.40102 9.52163 -61.8761 12.4103 2.97955 
66.6264 12.4103 2.97955 63.9782 16.9834 2.97955 63.9782 12.4103 5.58323 
-58.0649 20.4195 2.97955 -56.1604 23.7055 2.97955 61.3228 20.4195 2.97955 
55.969 24.6679 2.97955 55.969 20.4195 6.78616 -53.0348 28.4287 2.97955 
-48.1511 34.3369 2.97955 39.9505 34.0346 2.97955 39.9505 28.4287 9.8994 
51.2159 28.4287 2.97955 47.9597 30.6121 2.97955 47.9597 28.4287 5.56144 
-45.9157 36.438 2.97955 -40.1419 40.7555 2.97955 -32.1327 44.263 2.97955 
7.91354 42.6493 2.97955 15.9228 40.2385 2.97955 23.932 38.6667 2.97955 
23.932 36.438 7.59274 34.4069 36.438 2.97955 31.9413 37.33 2.97955 
31.9413 36.438 4.52041 -31.3244 44.4472 2.97955 -24.1234 46.0012 2.97955 
-24.1234 44.4472 6.96239 -16.1142 46.6441 2.97955 -16.1142 44.4472 7.32203 
-8.10494 46.6327 2.97955 -8.10494 44.4472 6.86283 2.05621 44.4472 2.97955 
-0.0957017 45.0989 2.97955 -0.0957017 44.4472 4.36685 -24.1234 -36.6237 10.9888 
-16.1142 -36.8654 10.9888 -8.10494 -37.5364 10.9888 -0.0957017 -38.1306 10.9888 
7.91354 -37.9192 10.9888 15.9228 -35.9257 10.9888 -48.1511 -29.2208 10.9888 
-40.1419 -33.1998 10.9888 -30.5861 -35.6452 10.9888 -32.1327 -35.3414 10.9888 
-24.1234 -35.6452 12.0402 -16.1142 -35.6452 12.2844 -8.10494 -35.6452 13.0241 
-0.0957017 -35.6452 13.667 7.91354 -35.6452 13.4424 16.6179 -35.6452 10.9888 
15.9228 -35.6452 11.3111 23.932 -31.7978 10.9888 31.9413 -28.6205 10.9888 
-50.0302 -27.6359 10.9888 -56.1604 -21.175 10.9888 -48.1511 -27.6359 12.5404 
-40.1419 -27.6359 15.2947 -32.1327 -27.6359 16.9746 -24.1234 -27.6359 17.1211 
-16.1142 -27.6359 17.6099 -8.10494 -27.6359 17.6197 -0.0957017 -27.6359 17.8272 
7.91354 -27.6359 17.3839 15.9228 -27.6359 16.352 23.932 -27.6359 13.8913 
34.599 -27.6359 10.9888 31.9413 -27.6359 11.7968 39.9505 -25.2032 10.9888 
47.9597 -21.8762 10.9888 -57.307 -19.6267 10.9888 -56.1604 -19.6267 12.2826 
[...]
POINT_DATA 546
SCALARS ImageScalars float
LOOKUP_TABLE default
0 0 0 0 0 0 0 0 0 
0 0 0 0 0 0 0 0 0 
0 0 0 0 0 0 0 0 0 
0 0 0 0 0 0 0 0 0 
0 0 0 0 0 0 0 0 0 
0 0 0 0 0 0 0 0 0 
0 0 0 0 0 0 0 0 0 
0 0 0 0 0 0 0 0 0 
0 0 0 0 0 0 0 0 0 
0 0 0 0 0 0 0 0 0 
0 0 0 0 0 0 0 0 0 
0 0 0 0 0 0 0 0 0 
0 0 0 0 0 0 0 0 0 
0 0 0 0 0 0 0 0 0 
0 0 0 0 0 0 0 0 0 
0 0 0 0 0 0 0 0 0 
0 0 0 0 0 0 0 0 0 
0 0 0 0 0 0 0 0 0 
0 0 0 0 0 0 0 0 0 
0 0 0 0 0 0 0 0 0 
0 0 0 0 0 0 0 0 0 
0 0 0 0 0 0 0 0 0 
0 0 0 0 0 0 0 0 0 
0 0 0 0 0 0 0 0 0 
0 0 0 0 0 0 0 0 0 
0 0 0 0 0 0 0 0 0 
0 0 0 0 0 0 0 0 0 
0 0 0 0 0 0 0 0 0 
0 0 0 0 0 0 0 0 0 
0 0 0 0 0 0 0 0 0 
0 0 0 0 0 0 0 0 0 
0 0 0 0 0 0 0 0 0 
0 0 0 0 0 0 0 0 0 
0 0 0 0 0 0 0 0 0 
0 0 0 0 0 0 0 0 0 
0 0 0 0 0 0 0 0 0 
0 0 0 0 0 0 0 0 0 
0 0 0 0 0 0 0 0 0 
0 0 0 0 0 0 0 0 0 
0 0 0 0 0 0 0 0 0 
0 0 0 0 0 0 0 0 0 
0 0 0 0 0 0 0 0 0 
0 0 0 0 0 0 0 0 0 
0 0 0 0 0 0 0 0 0 
0 0 0 0 0 0 0 0 0 
0 0 0 0 0 0 0 0 0 
0 0 0 0 0 0 0 0 0 
0 0 0 0 0 0 0 0 0 
0 0 0 0 0 0 0 0 0 
0 0 0 0 0 0 0 0 0 
0 0 0 0 0 0 0 0 0 
0 0 0 0 0 0 0 0 0 
0 0 0 0 0 0 0 0 0 
0 0 0 0 0 0 0 0 0 
0 0 0 0 0 0 0 0 0 
0 0 0 0 0 0 0 0 0 
0 0 0 0 0 0 0 0 0 
0 0 0 0 0 0 0 0 0 
0 0 0 0 0 0 0 0 0 
0 0 0 0 0 0 0 0 0 
0 0 0 0 0 0 
NORMALS Normals float
0.277254 0.566678 0.77589 0.130133 0.504822 0.853358 0.0291565 0.42138 0.906416 
-0.00450232 0.425405 0.904992 -0.0342514 0.428553 0.902867 -0.122188 0.462109 0.878365 
-0.205766 0.611484 0.764034 0.30543 0.316791 0.897973 0.153994 0.207351 0.96607 
0.067053 0.117908 0.990758 -0.00420157 0.0952839 0.995441 -0.00440596 0.064688 0.997896 
-0.0385894 0.0414691 0.998394 -0.0459782 0.0682252 0.99661 -0.0583193 0.153673 0.986399 
-0.0918702 0.272349 0.957803 -0.154053 0.436037 0.886645 -0.254035 0.545584 0.798626 
0.395644 0.254323 0.882489 0.226627 0.120317 0.966522 0.053356 0.0645274 0.996489 
0.00103158 -0.0360344 0.99935 -0.0331007 -0.0841044 0.995907 -0.0531539 -0.0189216 0.998407 
-0.034608 -0.0704331 0.996916 0.00287307 -0.0559861 0.998427 0.0235754 -0.0595778 0.997945 
0.0253452 0.0290388 0.999257 -0.00106465 0.152869 0.988246 -0.104663 0.237768 0.965667 
-0.214846 0.321132 0.922342 -0.42793 0.484536 0.762955 0.341525 0.0394422 0.939045 
0.144243 -0.0200339 0.989339 0.0132166 -0.0285414 0.999505 -0.0856913 -0.106954 0.990564 
0.00922183 -0.174997 0.984526 0.0104382 0.0918115 0.995722 -0.0737564 -0.11277 0.99088 
-0.0350032 0.149296 0.988173 0.0288347 -0.0682691 0.99725 0.134956 -0.0780772 0.987771 
0.0594395 -0.0138327 0.998136 -0.0598462 0.046557 0.997121 -0.0611772 0.166239 0.984186 
-0.268418 0.212922 0.939476 -0.542704 0.23925 0.805128 0.32816 -0.0907679 0.940251 
0.138455 -0.0489092 0.98916 -0.0325243 -0.08327 0.995996 -0.138485 -0.111945 0.984017 
0.158004 -0.102917 0.98206 0.0376026 0.105821 0.993674 0.0345913 -0.153028 0.987616 
0.0674929 0.151742 0.986113 -0.227374 -0.0284236 0.973392 0.0854748 -0.0652127 0.994204 
0.127185 -0.0706979 0.989356 0.0746346 0.0207622 0.996995 -0.0722868 0.0696155 0.994951 
-0.244823 0.0127854 0.969483 -0.522864 0.0160655 0.852264 0.335944 -0.143696 0.930856 
0.148297 -0.117985 0.98188 -0.0492265 -0.0971358 0.994053 -0.105193 -0.0404075 0.993631 
0.141274 0.0134042 0.98988 0.0352901 -0.139868 0.989541 0.0305817 0.18815 0.981664 
0.0369442 -0.170745 0.984622 -0.172893 0.0249301 0.984625 0.097503 0.0594553 0.993458 
0.137649 0.057971 0.988783 0.0777165 -0.0126959 0.996895 -0.0823747 -0.0687287 0.994229 
-0.266571 -0.0269897 0.963437 -0.529819 -0.049533 0.846663 0.195329 -0.175405 0.964925 
0.0416726 -0.075109 0.996304 -0.0293884 0.000261481 0.999568 0.0609119 0.035736 0.997503 
0.139872 -0.22408 0.964481 0.0156167 0.063506 0.997859 -0.0596095 -0.0792302 0.995072 
-0.0156018 0.095112 0.995344 0.118269 0.0684361 0.99062 0.0614565 0.00428962 0.998101 
-0.0497081 -0.0382369 0.998032 -0.0699656 -0.162742 0.984185 -0.285156 -0.204564 0.936397 
-0.580095 -0.246918 0.776222 0.3106 -0.190657 0.931224 0.130708 -0.137594 0.981827 
0.0025125 -0.0156922 0.999874 -0.0324185 -0.0233522 0.999202 0.0596642 -0.075694 0.995344 
0.122586 -0.107624 0.986605 0.0516215 -0.0817849 0.995312 -0.00803594 -0.0353005 0.999344 
0.000996974 -0.0915642 0.995799 0.0273012 -0.163948 0.986091 -0.0918854 -0.221632 0.970792 
-0.217928 -0.266631 0.938837 -0.472193 -0.439639 0.764036 0.21762 -0.278291 0.935519 
0.0844871 -0.195337 0.97709 0.00403468 -0.171107 0.985244 0.0441121 -0.140115 0.989152 
0.0297281 -0.227586 0.973304 0.00356627 -0.316822 0.948478 -0.0309555 -0.387504 0.921348 
-0.0219755 -0.415987 0.909105 -0.056125 -0.453767 0.889351 -0.166788 -0.496084 0.852105 
0.117099 -0.401471 0.908355 -0.00256191 -0.403974 0.914767 -0.00552581 -0.442965 0.896522 
-0.067351 -0.519237 0.851973 0.284413 0.679075 0.676732 0.165561 0.73369 0.659006 
0.0762297 0.77557 0.626642 0.0573305 0.99823 0.0158327 -0.00631993 0.773045 0.634319 
0.00545615 0.994872 0.100991 -0.0626993 0.77468 0.629238 -0.0881792 0.995709 0.0280732 
-0.166539 0.758644 0.62986 -0.239913 0.730283 0.639631 0.341024 0.641207 0.687427 
0.387258 0.58052 0.71626 0.426073 0.756724 0.495813 -0.272812 0.74267 0.611568 
-0.273057 0.740501 0.614083 -0.275429 0.753308 0.597215 -0.23373 0.66776 0.706729 
-0.321507 0.93145 0.170393 -0.28605 0.666519 0.688424 0.515382 0.39892 0.758448 
0.501683 0.364492 0.784512 0.600896 0.469984 0.646559 -0.310156 0.654806 0.689226 
-0.324664 0.637895 0.698343 -0.376618 0.807818 0.453419 -0.432932 0.504089 0.747305 
0.516672 0.276871 0.810181 0.747305 0.323678 0.580317 -0.445318 0.487724 0.750878 
-0.55056 0.300249 0.778932 -0.655686 0.641329 0.398463 0.593934 0.0509431 0.802899 
0.686631 0.0744946 0.723179 -0.583149 0.249176 0.773207 0.501679 -0.0436189 0.863953 
0.616913 -0.0256605 0.786613 -0.628475 0.0302628 0.77724 -0.968858 0.121321 0.215859 
0.502201 -0.154315 0.850871 0.656769 -0.159691 0.736989 0.381955 -0.268839 0.884215 
-0.608603 -0.0623371 0.791023 -0.966467 -0.198634 0.162746 0.688449 -0.31401 0.653786 
0.379315 -0.269531 0.88514 0.384396 -0.272406 0.882062 -0.603158 -0.253783 0.756171 
-0.588339 -0.281933 0.757873 0.39495 -0.234904 0.888164 0.533242 -0.313686 0.785655 
0.347407 -0.30162 0.887881 -0.329678 -0.634362 0.699212 -0.500125 -0.452688 0.738206 
-0.487319 -0.473537 0.733678 -0.746141 -0.64313 0.172212 0.658887 -0.462615 0.593174 
0.296356 -0.327212 0.897276 0.380916 -0.378473 0.8436 0.251436 -0.353732 0.900918 
-0.108131 -0.598427 0.793847 -0.0840223 -0.631202 0.771054 -0.0495076 -0.635307 0.770671 
-0.0631229 -0.627126 0.776356 -0.303703 -0.643988 0.702171 -0.199991 -0.654342 0.729274 
-0.366062 -0.711663 0.599612 0.50489 -0.654 0.563356 0.153253 -0.416187 0.896271 
0.333162 -0.529245 0.780322 0.121943 -0.433038 0.893089 -0.00552108 -0.421781 0.906681 
-0.010073 -0.46944 0.882907 -0.0770258 -0.54202 0.836828 -0.0701485 -0.527836 0.846444 
-0.146549 -0.682018 0.716502 -0.135608 -0.824372 0.549564 -0.0712159 -0.890039 0.450287 
-0.139798 -0.917441 0.372503 0.154789 -0.896292 0.415572 0.000957554 -0.876821 0.480816 
-0.0929896 -0.878387 0.468817 0.0568532 0.99834 0.00920524 0.00641936 0.999887 -0.0136217 
-0.0879109 0.996125 -0.00262387 0.430341 0.882275 0.190783 0.259155 0.960684 0.0996272 
0.0616939 0.998039 0.0105446 0.14551 0.988579 0.0392267 0.0566082 0.998389 0.00398964 
0.00300141 0.996722 -0.0808428 -0.0996638 0.995021 0.000502133 -0.085264 0.996133 -0.0211723 
-0.183563 0.982479 0.032229 -0.260721 0.963527 0.060333 -0.282683 0.957917 0.0498562 
-0.323345 0.944254 0.0619092 0.553311 0.811208 0.189176 0.626596 0.746599 0.223535 
-0.323211 0.94381 0.0689736 -0.301925 0.950868 -0.0684865 -0.328888 0.939073 0.0998693 
-0.375097 0.918831 0.122688 0.735433 0.610753 0.293459 0.793516 0.525992 0.306047 
-0.486343 0.865123 0.122611 -0.517339 0.845675 0.131125 -0.665996 0.728911 0.158552 
0.855149 0.380478 0.352074 -0.7478 0.642687 0.166581 0.883547 0.179765 0.432469 
-0.898694 0.403744 0.171288 -0.966358 0.208315 0.150854 0.871657 -0.0410786 0.488393 
0.993536 0.00569464 0.113373 -0.982909 0.114924 0.143812 -0.994356 0.10378 -0.0220549 
0.834518 -0.186453 0.518474 -0.972264 -0.19743 0.1254 -0.96547 -0.230013 0.122315 
-0.978167 -0.201452 0.0510436 0.789605 -0.308607 0.530364 0.75288 -0.386917 0.532416 
-0.886931 -0.45176 0.0962664 0.720974 -0.419297 0.551713 0.816515 -0.45053 0.361007 
-0.606294 -0.794901 0.0232375 -0.764921 -0.638656 0.0837501 -0.747832 -0.657676 0.0906055 
-0.770473 -0.634737 -0.0589945 0.698123 -0.489758 0.522265 0.677112 -0.528657 0.5119 
-0.28042 -0.953746 0.108318 -0.588767 -0.807808 0.0282721 -0.44731 -0.888516 0.102241 
0.55098 -0.676262 0.488969 0.519749 -0.704348 0.483483 0.359676 -0.823175 0.439335 
-0.219147 -0.902231 0.37142 -0.273235 -0.893729 0.355798 -0.178273 -0.930528 0.319902 
-0.0788956 -0.958067 0.27547 -0.233261 -0.960481 0.151873 -0.165125 -0.962654 0.214548 
0.219484 -0.905584 0.362966 0.155032 -0.9269 0.341792 0.011416 -0.921393 0.388465 
-0.176416 -0.908268 0.379377 -0.0971392 -0.910679 0.401531 -0.237113 -0.960969 0.142537 
0.385183 0.883911 -0.26521 0.16947 0.933093 -0.317203 0.0913153 0.929551 -0.357206 
0.0326569 0.930317 -0.365299 -0.0039297 0.933455 -0.358673 -0.0355326 0.950448 -0.308847 
-0.144245 0.953636 -0.264143 -0.262814 0.930453 -0.255314 -0.28751 0.909014 -0.301714 
0.478098 0.845581 -0.237518 0.561569 0.803856 -0.196099 0.347634 0.808492 -0.474859 
0.155034 0.750299 -0.642663 -0.268477 0.906364 -0.326227 -0.30456 0.873017 -0.380899 
-0.246147 0.894 -0.374401 -0.29956 0.889692 -0.344547 -0.357527 0.879783 -0.3133 
0.719322 0.677079 -0.15537 0.767587 0.625817 -0.138434 -0.233176 0.705012 -0.669766 
-0.410225 0.849218 -0.332482 -0.354146 0.829453 -0.431959 -0.495912 0.773977 -0.39374 
-0.644666 0.637116 -0.42248 0.884414 0.459631 -0.080937 -0.42861 0.537488 -0.726224 
-0.655323 0.625239 -0.423826 -0.644728 0.622947 -0.443015 0.968163 0.250199 -0.0078585 
0.994445 0.10464 0.011387 -0.841046 0.390727 -0.374131 -0.595739 0.369203 -0.713291 
0.999689 0.0157372 0.01935 0.996496 -0.0668655 0.0502416 0.994786 0.0270399 -0.0983334 
-0.94684 0.0834275 -0.310699 -0.456138 0.0612063 -0.887802 0.983917 -0.157498 0.0842681 
-0.916501 -0.216125 -0.336625 -0.466601 -0.249683 -0.848494 0.936594 -0.337018 0.0959685 
-0.71059 -0.479744 -0.514692 -0.682882 -0.496404 -0.535962 -0.617248 -0.459694 -0.638503 
0.88342 -0.453398 0.118319 0.853328 -0.509689 0.109765 -0.639416 -0.537477 -0.549787 
-0.503081 -0.659746 -0.558252 -0.48855 -0.558244 -0.670584 0.797302 -0.599108 0.0733408 
0.709884 -0.703674 0.0301264 -0.382651 -0.829573 -0.406678 -0.329622 -0.504315 -0.798132 
-0.481823 -0.711287 -0.511779 -0.442561 -0.775779 -0.449786 -0.478122 -0.654575 -0.585603 
0.652055 -0.7581 0.0103855 0.509721 -0.85957 -0.0363833 0.294938 -0.951371 -0.0889119 
-0.294923 -0.947917 -0.120306 -0.23913 -0.964106 -0.115395 -0.175925 -0.966512 -0.186826 
-0.224115 -0.85468 -0.468288 -0.298656 -0.899484 -0.318957 -0.257093 -0.920439 -0.294442 
-0.272818 -0.881152 -0.386189 0.278874 -0.955745 -0.0936996 0.142488 -0.980449 -0.135706 
0.110232 -0.918526 -0.379682 0.039334 -0.985487 -0.16513 -0.00812524 -0.898335 -0.439236 
-0.098559 -0.978081 -0.183424 -0.0958888 -0.892033 -0.441682 -0.255539 -0.956179 -0.142905 
-0.241351 -0.957668 -0.156915 -0.227614 -0.943908 -0.239228 0.0740021 0.753687 -0.653054 
0.0493678 0.745752 -0.664393 0.0664063 0.778559 -0.624049 0.0207576 0.797143 -0.603434 
-0.117805 0.796777 -0.592679 -0.291982 0.752914 -0.589803 0.473344 0.657279 -0.586456 
0.285325 0.698774 -0.655976 0.137111 0.740639 -0.657764 0.152441 0.734755 -0.660982 
0.0722383 0.716722 -0.693607 0.0494614 0.702984 -0.709483 0.0685092 0.697896 -0.712915 
0.0214526 0.678194 -0.73457 -0.112067 0.678954 -0.725577 -0.296417 0.747874 -0.593987 
-0.290354 0.739404 -0.607434 -0.307832 0.641258 -0.702871 -0.257768 0.617171 -0.743408 
0.515153 0.62875 -0.582487 0.676359 0.503668 -0.537454 0.452909 0.601908 -0.657709 
0.226635 0.537615 -0.812162 0.0962435 0.442751 -0.891464 0.0348603 0.370079 -0.928346 
0.0297747 0.316438 -0.948146 0.0130163 0.292807 -0.956083 -0.0145057 0.23748 -0.971284 
-0.0853962 0.239576 -0.967115 -0.203562 0.285464 -0.936522 -0.258441 0.433874 -0.863111 
-0.237463 0.611492 -0.754777 -0.246749 0.580552 -0.775934 -0.206481 0.579076 -0.788693 
-0.29426 0.502799 -0.812776 0.706595 0.465863 -0.532631 0.657349 0.465969 -0.592254 
0.363275 0.37612 -0.852388 -0.0232518 0.0558805 -0.998167 -0.0272378 0.0989638 -0.994718 
-0.0397053 0.00137175 -0.99921 -0.0592563 -0.00160106 -0.998242 -0.105564 0.0297049 -0.993969 
-0.0861249 0.156076 -0.983983 -0.117186 0.270801 -0.955476 -0.189518 0.369909 -0.909533 
-0.339789 0.457999 -0.82145 -0.277491 0.419044 -0.864523 -0.401606 0.375291 -0.835386 
0.811075 0.290068 -0.507954 0.581089 0.24805 -0.775117 -0.0106401 -0.074672 -0.997151 
-0.117131 -0.132033 -0.984301 -0.0573432 0.0296965 -0.997913 -0.0429357 -0.0119978 -0.999006 
-0.0161121 0.00083395 -0.99987 -0.0162956 0.0545008 -0.998381 -0.104896 0.139953 -0.984586 
-0.218914 0.185053 -0.958035 -0.433681 0.259125 -0.863004 -0.357721 0.206426 -0.910727 
0.877252 0.0688436 -0.475067 0.574183 0.0478887 -0.817325 -0.0109373 -0.129909 -0.991466 
-0.0493348 -0.0660436 -0.996596 0.063327 0.0756982 -0.995118 -0.145737 -0.0919091 -0.985045 
-0.0155612 -0.120975 -0.992534 0.0220641 -0.0847026 -0.996162 -0.0714873 -0.0603287 -0.995615 
-0.190516 -0.00293843 -0.98168 -0.388731 0.0411133 -0.920434 -0.303506 0.0181203 -0.952657 
0.900687 -0.111725 -0.419858 0.596794 -0.00579683 -0.802374 -0.0691316 -0.036324 -0.996946 
0.0742514 -0.253052 -0.964599 -0.00720842 0.0387197 -0.999224 -0.128128 -0.236015 -0.963265 
-0.222651 -0.145069 -0.964044 0.00389438 -0.111864 -0.993716 0.0443331 -0.118895 -0.991917 
-0.0233433 -0.159349 -0.986946 -0.147704 -0.166172 -0.974972 -0.370788 -0.183789 -0.91035 
-0.3021 -0.132805 -0.94398 0.872785 -0.304297 -0.381641 0.627369 -0.209644 -0.749971 
-0.224075 -0.0321889 -0.97404 -0.173839 0.0565631 -0.983148 -0.0326349 -0.153496 -0.98761 
-0.0611842 -0.148779 -0.986976 -0.088436 -0.175258 -0.980543 -0.0440124 0.0228545 -0.99877 
0.000794276 0.00949542 -0.999955 -0.0250341 -0.0993496 -0.994738 -0.111218 -0.176563 -0.977986 
-0.185627 -0.24056 -0.952719 -0.383291 -0.331225 -0.862194 -0.383283 -0.342637 -0.857726 
-0.370657 -0.322403 -0.871016 0.812542 -0.455931 -0.363185 0.789574 -0.489043 -0.370687 
0.767464 -0.458345 -0.44824 0.337888 -0.308414 -0.88922 -0.175105 -0.0776575 -0.981482 
-0.185246 -0.0170021 -0.982545 -0.144459 -0.0101816 -0.989458 -0.0363017 -0.059416 -0.997573 
0.0388771 0.000326777 -0.999244 -0.0106914 0.00262985 -0.999939 -0.123481 -0.04998 -0.991087 
-0.149186 -0.169923 -0.974099 -0.260988 -0.399742 -0.878687 -0.152737 -0.251612 -0.9557 
-0.315669 -0.380484 -0.869244 -0.312778 -0.376868 -0.871861 -0.286803 -0.35357 -0.890355 
0.671525 -0.609317 -0.421648 0.608632 -0.656388 -0.445783 0.550717 -0.562307 -0.616864 
0.229681 -0.385988 -0.893454 -0.135068 -0.226954 -0.964494 -0.0986462 -0.175442 -0.979535 
-0.0882379 -0.111114 -0.989883 -0.0388834 -0.10886 -0.993296 -0.0268454 -0.16653 -0.985671 
-0.0916591 -0.251581 -0.963486 -0.219725 -0.57897 -0.785184 -0.171306 -0.300748 -0.938192 
-0.274054 -0.437996 -0.856186 -0.226178 -0.460133 -0.858557 -0.206978 -0.372656 -0.904593 
0.407507 -0.745032 -0.528077 0.379092 -0.754418 -0.535857 0.363609 -0.729183 -0.579725 
0.208927 -0.730512 -0.650154 0.126668 -0.602605 -0.787923 0.0472657 -0.716056 -0.696441 
0.00777589 -0.468461 -0.88345 -0.0541318 -0.655179 -0.753532 -0.0563468 -0.418932 -0.906268 
-0.0800567 -0.606575 -0.790985 -0.0719145 -0.402436 -0.912619 -0.104811 -0.589037 -0.80128 
-0.0891926 -0.432395 -0.897262 -0.133829 -0.623272 -0.770468 -0.112435 -0.540483 -0.833808 
-0.176526 -0.680547 -0.711122 -0.174285 -0.681356 -0.7109 -0.172307 -0.676111 -0.716369 
0.151164 0.321836 -0.93465 0.000503049 0.258399 -0.966038 -0.053699 0.144371 -0.988065 
0.185288 0.308763 -0.932917 0.263908 0.297369 -0.917564 0.13892 0.289819 -0.946946 
-0.0248634 0.204415 -0.978568 -0.0513943 0.125098 -0.990812 -0.0564785 0.137493 -0.988891 
-0.038044 0.0793588 -0.99612 0.310619 0.262031 -0.913704 0.233727 0.263635 -0.935878 
0.0422062 0.165942 -0.985232 -0.0817992 0.0929234 -0.992307 -0.0597151 -0.0266447 -0.99786 
-0.117012 0.0282839 -0.992728 -0.0313943 0.00508337 -0.999494 -0.0609812 0.0289965 -0.997718 
-0.0461426 0.0631305 -0.996938 0.433712 0.0669945 -0.898557 0.248273 0.0888981 -0.964602 
0.00340242 0.0928527 -0.995674 -0.152978 0.036429 -0.987558 -0.166458 -0.0382568 -0.985306 
-0.221852 -0.00976873 -0.975031 -0.047865 -0.0613397 -0.996969 -0.0759583 -0.0267374 -0.996752 
0.0440296 -0.208651 -0.976999 -0.0702756 -0.0256174 -0.997199 0.459425 -0.00750541 -0.888185 
0.248032 -0.0182941 -0.968579 -0.010165 -0.0499237 -0.998701 -0.180896 -0.0319096 -0.982984 
-0.247917 -0.0415214 -0.967891 -0.243508 -0.0372198 -0.969185 -0.269176 -0.041841 -0.962182 
0.425492 -0.204326 -0.881594 0.285541 -0.272849 -0.918706 0.234323 -0.204878 -0.950325 
-0.0120138 -0.159801 -0.987076 -0.214934 -0.0349154 -0.976004 -0.139151 -0.0520273 -0.988904 
0.204688 -0.254989 -0.945031 0.141063 -0.256824 -0.956108 0.114312 -0.219034 -0.968998 
-0.156668 -0.0806727 -0.984351 -0.0579207 -0.106247 -0.992651 0.0157659 -0.32102 -0.946941 
-0.00370521 -0.313751 -0.949498 0.00630519 -0.324652 -0.945813 0.00454981 -0.318545 -0.947897 

