# vtk DataFile Version 4.2
vtk output
ASCII
DATASET POLYDATA
POINTS 536 float
5.13388 19.6093 -22.3793 -41.2732 -19.0633 -15.6816 -33.5387 -19.0633 -16.4226 
-25.8042 -19.0633 -16.1884 -18.0697 -19.0633 -15.5706 -10.3352 -19.0633 -15.6043 
-2.60064 -19.0633 -15.0738 12.8684 -19.0633 -14.6982 -49.0078 -11.3287 -16.1225 
-41.2732 -11.3287 -17.9929 -33.5387 -11.3287 -19.092 -25.8042 -11.3287 -18.6625 
-18.0697 -11.3287 -17.9433 -10.3352 -11.3287 -19.3329 -2.60064 -11.3287 -19.2999 
5.13388 -11.3287 -18.5957 12.8684 -11.3287 -19.7374 20.6029 -11.3287 -17.7175 
28.3374 -11.3287 -17.0893 36.072 -11.3287 -16.8774 43.8065 -11.3287 -15.8422 
-49.0078 -3.59422 -17.179 -41.2732 -3.59422 -19.1858 -33.5387 -3.59422 -19.9321 
-25.8042 -3.59422 -19.7695 -18.0697 -3.59422 -19.5612 -10.3352 -3.59422 -21.2432 
-2.60064 -3.59422 -19.2248 5.13388 -3.59422 -19.8296 12.8684 -3.59422 -21.3614 
20.6029 -3.59422 -18.7218 28.3374 -3.59422 -19.0517 36.072 -3.59422 -19.3786 
43.8065 -3.59422 -18.755 51.541 -3.59422 -17.4068 -49.0078 4.1403 -17.5813 
-41.2732 4.1403 -19.4949 -33.5387 4.1403 -20.1988 -25.8042 4.1403 -20.1012 
-18.0697 4.1403 -20.0277 -10.3352 4.1403 -21.9495 -2.60064 4.1403 -20.6642 
5.13388 4.1403 -21.2921 12.8684 4.1403 -20.9243 20.6029 4.1403 -19.2315 
28.3374 4.1403 -19.9251 36.072 4.1403 -20.6033 43.8065 4.1403 -20.6187 
51.541 4.1403 -18.4851 59.2755 4.1403 -15.3803 -49.0078 11.8748 -16.8877 
-41.2732 11.8748 -19.2566 -33.5387 11.8748 -19.7438 -25.8042 11.8748 -19.8168 
-18.0697 11.8748 -19.8275 -10.3352 11.8748 -21.4101 -2.60064 11.8748 -21.7822 
5.13388 19.1675 -22.3484 5.13388 11.8748 -21.8362 12.8684 11.8748 -21.3999 
20.6029 11.8748 -20.5592 28.3374 11.8748 -21.3941 36.072 11.8748 -21.045 
43.8065 11.8748 -20.4703 51.541 11.8748 -18.9235 59.2755 11.8748 -15.2358 
-49.0078 19.6093 -15.3783 -41.2732 19.6093 -17.7642 -33.5387 19.6093 -18.557 
-25.8042 19.6093 -18.6639 -18.0697 19.6093 -19.0914 -10.3352 19.6093 -20.299 
4.75712 19.6093 -22.3484 -2.60064 19.6093 -21.7439 5.85887 19.6093 -22.3484 
5.13388 19.9079 -22.3484 12.8684 19.6093 -22.0472 20.6029 19.6093 -21.1482 
28.3374 19.6093 -20.6725 36.072 19.6093 -20.603 43.8065 19.6093 -19.8877 
51.541 19.6093 -16.9358 -33.5387 27.3439 -15.3914 -25.8042 27.3439 -16.4067 
-18.0697 27.3439 -16.6376 -10.3352 27.3439 -18.0596 -2.60064 27.3439 -20.4865 
5.13388 27.3439 -21.5325 12.8684 27.3439 -20.8151 20.6029 27.3439 -19.0725 
28.3374 27.3439 -17.3173 36.072 27.3439 -16.3368 -2.60064 35.0784 -15.1213 
5.13388 35.0784 -16.0279 -18.0697 -34.5323 -8.07318 -10.3352 -34.5323 -8.46214 
-2.60064 -34.5323 -7.49192 -41.2732 -20.7131 -14.6139 -41.2732 -26.7978 -9.45056 
-33.5387 -22.6595 -14.6139 -33.5387 -26.7978 -11.8307 -25.8042 -22.7761 -14.6139 
-25.8042 -26.7978 -12.7085 -18.0697 -21.8956 -14.6139 -18.0697 -26.7978 -12.8467 
-10.3352 -21.3224 -14.6139 -10.3352 -26.7978 -12.3315 -2.60064 -19.8852 -14.6139 
-2.60064 -26.7978 -11.3264 5.13388 -26.7978 -10.4688 12.8684 -19.2139 -14.6139 
12.8684 -26.7978 -10.8422 20.6029 -26.7978 -10.5688 28.3374 -26.7978 -9.88989 
36.072 -26.7978 -8.58043 -43.8064 -19.0633 -14.6139 -49.0078 -14.5537 -14.6139 
-49.0078 -19.0633 -11.9264 1.38676 -19.0633 -14.6139 11.6072 -19.0633 -14.6139 
5.13388 -18.3892 -14.6139 5.13388 -19.0633 -14.2256 16.2293 -19.0633 -14.6139 
20.6029 -18.8515 -14.6139 20.6029 -19.0633 -14.5169 28.3374 -17.9521 -14.6139 
28.3374 -19.0633 -14.1371 36.072 -16.3552 -14.6139 36.072 -19.0633 -13.2431 
43.8065 -13.7231 -14.6139 43.8065 -19.0633 -11.4652 51.541 -19.0633 -7.72064 
-51.6552 -11.3287 -14.6139 -56.7423 -11.3287 -10.6152 48.2237 -11.3287 -14.6139 
51.541 -9.47304 -14.6139 51.541 -11.3287 -13.6453 59.2755 -11.3287 -7.76028 
-53.9516 -3.59422 -14.6139 -56.7423 -3.59422 -12.9157 57.0571 -3.59422 -14.6139 
59.2755 1.44638 -14.6139 59.2755 -3.59422 -13.2451 -55.1127 4.1403 -14.6139 
-56.7423 4.1403 -13.7102 60.2407 4.1403 -14.6139 -53.8789 11.8748 -14.6139 
-56.7423 11.8748 -13.0154 59.9927 11.8748 -14.6139 59.2755 13.2279 -14.6139 
-50.2292 19.6093 -14.6139 -56.7423 19.6093 -8.18173 -49.0078 20.9301 -14.6139 
-41.2732 27.0736 -14.6139 43.8065 26.7671 -14.6139 55.4997 19.6093 -14.6139 
51.541 23.1729 -14.6139 59.2755 19.6093 -10.7586 -49.0078 27.3439 -8.51068 
-40.2225 27.3439 -14.6139 -41.2732 27.3439 -14.4499 -33.5387 28.3963 -14.6139 
-25.8042 29.9669 -14.6139 -18.0697 30.3838 -14.6139 -10.3352 32.5041 -14.6139 
12.8684 34.4525 -14.6139 20.6029 31.7539 -14.6139 28.3374 29.78 -14.6139 
42.0012 27.3439 -14.6139 36.072 28.6496 -14.6139 43.8065 27.3439 -13.4906 
51.541 27.3439 -7.88733 -33.5387 35.0784 -7.00285 -25.8042 35.0784 -8.34435 
-18.0697 35.0784 -9.39907 -4.13412 35.0784 -14.6139 -10.3352 35.0784 -11.5857 
-2.60064 35.4983 -14.6139 10.2284 35.0784 -14.6139 5.13388 36.1508 -14.6139 
12.8684 35.0784 -11.4821 -18.0697 -35.9022 -6.87934 -10.3352 -36.5318 -6.87934 
-2.60064 -35.3493 -6.87934 -41.2732 -29.0091 -6.87934 -33.5387 -31.7252 -6.87934 
-33.5387 -34.5323 -0.964852 -23.4792 -34.5323 -6.87934 -25.8042 -33.9252 -6.87934 
-25.8042 -34.5323 -5.98482 1.48945 -34.5323 -6.87934 5.13388 -33.5683 -6.87934 
5.13388 -34.5323 -6.19816 12.8684 -32.868 -6.87934 12.8684 -34.5323 -5.41068 
20.6029 -32.184 -6.87934 20.6029 -34.5323 -4.6314 28.3374 -30.6873 -6.87934 
28.3374 -34.5323 -2.89692 36.072 -29.1349 -6.87934 36.072 -34.5323 0.350717 
-44.9252 -26.7978 -6.87934 -49.0078 -24.1105 -6.87934 -49.0078 -26.7978 0.156377 
40.223 -26.7978 -6.87934 43.8065 -24.8142 -6.87934 43.8065 -26.7978 -4.86708 
51.541 -20.0073 -6.87934 -54.5918 -19.0633 -6.87934 -56.7423 -16.2762 -6.87934 
-56.7423 -19.0633 -1.84103 52.5043 -19.0633 -6.87934 59.2755 -12.1786 -6.87934 
-60.3375 -11.3287 -6.87934 59.9305 -11.3287 -6.87934 -62.9779 -3.59422 -6.87934 
-64.4768 -3.59422 -1.08467 65.1619 -3.59422 -6.87934 -64.1454 4.1403 -6.87934 
-64.4768 4.1403 -4.95695 66.6337 4.1403 -6.87934 -62.5196 11.8748 -6.87934 
65.6462 11.8748 -6.87934 -57.8944 19.6093 -6.87934 -56.7423 21.2328 -6.87934 
61.8266 19.6093 -6.87934 59.2755 22.155 -6.87934 -50.8799 27.3439 -6.87934 
-49.0078 28.6683 -6.87934 -41.2732 32.3503 -6.87934 20.6029 33.3548 -6.87934 
28.3374 32.1805 -6.87934 36.072 31.3007 -6.87934 43.8065 29.6176 -6.87934 
52.1774 27.3439 -6.87934 51.541 27.6987 -6.87934 51.541 27.3439 -4.14059 
-33.7351 35.0784 -6.87934 -33.5387 35.1414 -6.87934 -25.8042 35.8791 -6.87934 
-18.0697 36.5592 -6.87934 -10.3352 37.45 -6.87934 -2.60064 38.2485 -6.87934 
5.13388 37.9018 -6.87934 15.232 35.0784 -6.87934 12.8684 35.8397 -6.87934 
-33.5387 -35.1771 0.855181 -25.8042 -37.9656 0.855181 -18.0697 -40.4102 0.855181 
-10.3352 -41.7607 0.855181 -2.60064 -41.4531 0.855181 5.13388 -40.1684 0.855181 
12.8684 -39.1023 0.855181 20.6029 -38.4135 0.855181 28.3374 -36.9376 0.855181 
36.072 -34.7835 0.855181 -49.0078 -27.0517 0.855181 -34.9385 -34.5323 0.855181 
-41.2732 -31.2995 0.855181 -33.5387 -34.5323 3.87459 36.6354 -34.5323 0.855181 
43.8065 -31.012 0.855181 -49.3396 -26.7978 0.855181 -56.7423 -20.2135 0.855181 
-49.0078 -26.7978 1.80006 49.8472 -26.7978 0.855181 51.541 -25.3741 0.855181 
-57.7105 -19.0633 0.855181 -56.7423 -19.0633 4.47551 57.9673 -19.0633 0.855181 
59.2755 -17.166 0.855181 -62.8451 -11.3287 0.855181 -64.4768 -5.20974 0.855181 
62.486 -11.3287 0.855181 59.2755 -11.3287 7.79608 -64.8647 -3.59422 0.855181 
-64.4768 -3.59422 2.25474 65.5005 -3.59422 0.855181 -65.2261 4.1403 0.855181 
-64.4768 8.95614 0.855181 -64.4768 4.1403 3.16747 66.2382 4.1403 0.855181 
-63.9676 11.8748 0.855181 64.6698 11.8748 0.855181 -59.3199 19.6093 0.855181 
-56.7423 23.2528 0.855181 -56.7423 19.6093 5.99384 51.541 26.4723 0.855181 
60.3364 19.6093 0.855181 59.2755 20.535 0.855181 59.2755 19.6093 2.26527 
-51.5787 27.3439 0.855181 -49.0078 28.8357 0.855181 -49.0078 27.3439 3.5743 
-41.2732 32.2749 0.855181 20.6029 32.781 0.855181 28.3374 31.5035 0.855181 
36.072 30.586 0.855181 48.7693 27.3439 0.855181 43.8065 28.703 0.855181 
43.8065 27.3439 3.77486 -34.0419 35.0784 0.855181 -33.5387 35.2566 0.855181 
-33.5387 35.0784 1.24557 -25.8042 36.3004 0.855181 -25.8042 35.0784 3.7264 
-18.0697 37.33 0.855181 -18.0697 35.0784 6.96209 -10.3352 38.2243 0.855181 
-2.60064 38.5278 0.855181 5.13388 37.6892 0.855181 13.7739 35.0784 0.855181 
12.8684 35.3832 0.855181 12.8684 35.0784 2.29026 -25.8042 -36.4505 8.5897 
-18.0697 -39.811 8.5897 -10.3352 -41.9456 8.5897 -2.60064 -42.1071 8.5897 
5.13388 -40.8948 8.5897 12.8684 -39.5686 8.5897 20.6029 -38.6208 8.5897 
28.3374 -37.3279 8.5897 36.072 -34.7235 8.5897 -41.2732 -29.8671 8.5897 
-30.6388 -34.5323 8.5897 -33.5387 -33.2707 8.5897 -25.8042 -34.5323 11.3891 
-18.0697 -34.5323 15.6592 12.8684 -34.5323 15.1513 20.6029 -34.5323 14.3142 
28.3374 -34.5323 12.7102 36.4538 -34.5323 8.5897 36.072 -34.5323 8.92471 
43.8065 -30.3168 8.5897 -46.3071 -26.7978 8.5897 -49.0078 -24.9028 8.5897 
-41.2732 -26.7978 12.7524 -33.5387 -26.7978 15.9429 36.072 -26.7978 16.1021 
48.0447 -26.7978 8.5897 43.8065 -26.7978 13.0251 51.541 -22.9874 8.5897 
-55.4531 -19.0633 8.5897 -56.7423 -17.2975 8.5897 -49.0078 -19.0633 15.1616 
43.8065 -19.0633 16.0007 54.7123 -19.0633 8.5897 51.541 -19.0633 11.9028 
-60.4843 -11.3287 8.5897 -56.7423 -11.3287 13.1068 58.7759 -11.3287 8.5897 
51.541 -11.3287 14.5916 59.2755 -10.0719 8.5897 -62.5538 -3.59422 8.5897 
-56.7423 -3.59422 15.1665 51.541 -3.59422 16.0539 61.73 -3.59422 8.5897 
59.2755 -3.59422 10.6651 -62.4907 4.1403 8.5897 -56.7423 4.1403 14.6291 
51.541 4.1403 15.9682 63.0752 4.1403 8.5897 59.2755 4.1403 11.0822 
-60.4181 11.8748 8.5897 -56.7423 17.3979 8.5897 -56.7423 11.8748 12.4562 
51.541 11.8748 14.034 59.3886 11.8748 8.5897 59.2755 12.0571 8.5897 
59.2755 11.8748 8.69968 -54.7881 19.6093 8.5897 -49.0078 24.1857 8.5897 
-49.0078 19.6093 13.0339 -41.2732 19.6093 15.3291 36.072 19.6093 15.9789 
43.8065 24.7698 8.5897 43.8065 19.6093 13.679 53.4696 19.6093 8.5897 
51.541 20.9695 8.5897 51.541 19.6093 9.81398 -43.6396 27.3439 8.5897 
-41.2732 28.4991 8.5897 -41.2732 27.3439 9.94682 -33.5387 30.5311 8.5897 
[...]
POINT_DATA 536
SCALARS ImageScalars float
LOOKUP_TABLE default
0 0 0 0 0 0 0 0 0 
0 0 0 0 0 0 0 0 0 
0 0 0 0 0 0 0 0 0 
0 0 0 0 0 0 0 0 0 
0 0 0 0 0 0 0 0 0 
0 0 0 0 0 0 0 0 0 
0 0 0 0 0 0 0 0 0 
0 0 0 0 0 0 0 0 0 
0 0 0 0 0 0 0 0 0 
0 0 0 0 0 0 0 0 0 
0 0 0 0 0 0 0 0 0 
0 0 0 0 0 0 0 0 0 
0 0 0 0 0 0 0 0 0 
0 0 0 0 0 0 0 0 0 
0 0 0 0 0 0 0 0 0 
0 0 0 0 0 0 0 0 0 
0 0 0 0 0 0 0 0 0 
0 0 0 0 0 0 0 0 0 
0 0 0 0 0 0 0 0 0 
0 0 0 0 0 0 0 0 0 
0 0 0 0 0 0 0 0 0 
0 0 0 0 0 0 0 0 0 
0 0 0 0 0 0 0 0 0 
0 0 0 0 0 0 0 0 0 
0 0 0 0 0 0 0 0 0 
0 0 0 0 0 0 0 0 0 
0 0 0 0 0 0 0 0 0 
0 0 0 0 0 0 0 0 0 
0 0 0 0 0 0 0 0 0 
0 0 0 0 0 0 0 0 0 
0 0 0 0 0 0 0 0 0 
0 0 0 0 0 0 0 0 0 
0 0 0 0 0 0 0 0 0 
0 0 0 0 0 0 0 0 0 
0 0 0 0 0 0 0 0 0 
0 0 0 0 0 0 0 0 0 
0 0 0 0 0 0 0 0 0 
0 0 0 0 0 0 0 0 0 
0 0 0 0 0 0 0 0 0 
0 0 0 0 0 0 0 0 0 
0 0 0 0 0 0 0 0 0 
0 0 0 0 0 0 0 0 0 
0 0 0 0 0 0 0 0 0 
0 0 0 0 0 0 0 0 0 
0 0 0 0 0 0 0 0 0 
0 0 0 0 0 0 0 0 0 
0 0 0 0 0 0 0 0 0 
0 0 0 0 0 0 0 0 0 
0 0 0 0 0 0 0 0 0 
0 0 0 0 0 0 0 0 0 
0 0 0 0 0 0 0 0 0 
0 0 0 0 0 0 0 0 0 
0 0 0 0 0 0 0 0 0 
0 0 0 0 0 0 0 0 0 
0 0 0 0 0 0 0 0 0 
0 0 0 0 0 0 0 0 0 
0 0 0 0 0 0 0 0 0 
0 0 0 0 0 0 0 0 0 
0 0 0 0 0 0 0 0 0 
0 0 0 0 0 
NORMALS Normals float
-0.0197943 0.0166987 -0.999665 -0.236415 -0.449279 -0.861543 -0.029793 -0.389969 -0.920346 
0.0520217 -0.347528 -0.936225 0.0355597 -0.309772 -0.950146 0.0254256 -0.40447 -0.914198 
0.0804818 -0.495842 -0.864675 -0.0164632 -0.516369 -0.856208 -0.383561 -0.27059 -0.882985 
-0.184908 -0.214014 -0.95917 -0.0436855 -0.22178 -0.974118 0.072913 -0.223317 -0.972015 
-0.0304142 -0.245749 -0.968856 -0.0902977 -0.343375 -0.934848 0.0446997 -0.221485 -0.974139 
-0.0229579 -0.325705 -0.945193 0.0654894 -0.361708 -0.929988 0.155414 -0.253876 -0.954669 
0.0521946 -0.296764 -0.953524 0.0739503 -0.357316 -0.931051 0.178814 -0.406699 -0.895891 
-0.344412 -0.0914812 -0.934351 -0.16573 -0.0962416 -0.981464 -0.0364133 -0.0692316 -0.996936 
0.0238952 -0.0901516 -0.995641 -0.0878458 -0.131182 -0.987459 0.00547234 -0.152794 -0.988243 
0.0975048 -0.0895909 -0.991194 -0.13259 -0.177137 -0.975214 0.0917437 -0.070683 -0.993271 
0.126818 -0.0967579 -0.987196 -0.0414827 -0.184998 -0.981863 0.0190852 -0.240083 -0.970565 
0.119962 -0.279744 -0.952551 0.295804 -0.263196 -0.918274 -0.317585 0.0168159 -0.948081 
-0.158947 -0.0026975 -0.987283 -0.0381571 0.0121748 -0.999198 0.0110171 -0.00144984 -0.999938 
-0.118935 -0.0174411 -0.992749 -0.0470136 -0.00922929 -0.998852 0.0463408 -0.162727 -0.985582 
-0.0167703 -0.120221 -0.992606 0.138084 -0.00539187 -0.990406 0.0543399 -0.115861 -0.991778 
-0.0910441 -0.145015 -0.985232 -0.0444809 -0.103258 -0.993659 0.132972 -0.110861 -0.9849 
0.276632 -0.0922403 -0.956539 0.540865 -0.110336 -0.833841 -0.368639 0.138015 -0.91927 
-0.163134 0.0944199 -0.982076 -0.038904 0.101289 -0.994096 -0.00518122 0.0864368 -0.996244 
-0.0992076 0.0613698 -0.993172 -0.127543 0.105877 -0.986166 -0.0266035 -0.0642833 -0.997577 
-0.0174015 0.0121118 -0.999775 0.023509 -0.0678165 -0.997421 0.0825022 -0.0707613 -0.994076 
0.00316955 -0.123852 -0.992296 -0.0313423 -0.0515317 -0.998179 0.0565409 -0.00306055 -0.998396 
0.128312 0.0406631 -0.9909 0.270852 0.0911811 -0.958293 0.59142 0.185608 -0.784712 
-0.411341 0.343019 -0.844474 -0.201408 0.306582 -0.930291 -0.0510325 0.24273 -0.968751 
-0.0349353 0.216106 -0.975745 -0.10186 0.193307 -0.975836 -0.173046 0.193193 -0.96578 
-0.0252567 0.0197035 -0.999487 -0.131188 0.0773885 -0.988332 -0.0105999 0.0182365 -0.999777 
-0.0199157 0.0270655 -0.999435 0.078532 0.0324153 -0.996384 0.0893821 0.0745118 -0.993206 
0.03496 0.21472 -0.97605 0.0465898 0.233089 -0.971339 0.216303 0.32483 -0.920706 
0.418611 0.395278 -0.817631 -0.120885 0.518502 -0.846488 -0.0685587 0.454788 -0.887957 
-0.0926268 0.452414 -0.886985 -0.236849 0.408126 -0.881666 -0.203716 0.339284 -0.918361 
-0.0215532 0.308828 -0.950874 0.146321 0.361906 -0.92066 0.211928 0.523364 -0.825334 
0.151692 0.659423 -0.736309 0.167312 0.726067 -0.666958 -0.168021 0.793179 -0.585352 
0.0449798 0.83193 -0.553055 -0.110735 -0.647475 -0.753998 0.0353387 -0.580735 -0.813325 
0.121179 -0.565459 -0.815826 -0.253419 -0.507711 -0.823413 -0.34286 -0.724548 -0.597894 
-0.0789776 -0.489691 -0.868312 -0.161979 -0.636967 -0.753682 0.014224 -0.424672 -0.905235 
-0.0509102 -0.523104 -0.850747 0.0369123 -0.343629 -0.93838 0.0233695 -0.421005 -0.906757 
0.0530531 -0.398345 -0.9157 0.0888604 -0.406232 -0.909439 0.0842936 -0.488623 -0.868414 
0.110369 -0.422287 -0.899718 0.0296332 -0.435936 -0.89949 -0.0167407 -0.515211 -0.8569 
-0.00661189 -0.48968 -0.871877 0.0507036 -0.504742 -0.86178 0.113702 -0.538473 -0.834936 
0.23247 -0.564889 -0.791744 -0.31261 -0.474737 -0.822739 -0.419439 -0.372094 -0.82802 
-0.471774 -0.53341 -0.702071 0.0487633 -0.489534 -0.87062 -0.010819 -0.51065 -0.859721 
0.0171143 -0.470103 -0.882446 0.0190318 -0.480813 -0.876617 0.00443978 -0.478961 -0.877825 
0.0341252 -0.425834 -0.904157 0.0315261 -0.430146 -0.902209 0.068274 -0.391714 -0.91755 
0.0713072 -0.410538 -0.909051 0.117776 -0.435601 -0.892401 0.141287 -0.476244 -0.867888 
0.196982 -0.453396 -0.86927 0.251169 -0.556513 -0.791964 0.475413 -0.640294 -0.603329 
-0.478788 -0.286109 -0.830003 -0.660153 -0.355742 -0.661548 0.256647 -0.440472 -0.8603 
0.313904 -0.419857 -0.851577 0.329858 -0.46861 -0.819511 0.695244 -0.558602 -0.452327 
-0.489469 -0.120836 -0.863608 -0.597054 -0.156392 -0.786808 0.485813 -0.281114 -0.827623 
0.549407 -0.166865 -0.818723 0.581069 -0.300387 -0.75639 -0.505521 -0.00229819 -0.862811 
-0.572774 -0.00686433 -0.819685 0.567204 -0.105458 -0.816797 -0.499782 0.183869 -0.84641 
-0.601358 0.242829 -0.761185 0.613709 0.193226 -0.765523 0.611142 0.244365 -0.752855 
-0.448414 0.356802 -0.819523 -0.736018 0.493346 -0.463559 -0.424772 0.393561 -0.815278 
-0.273717 0.562463 -0.780202 0.245638 0.772413 -0.585697 0.536582 0.45857 -0.708374 
0.437599 0.598586 -0.670971 0.691174 0.585361 -0.423829 -0.515234 0.752155 -0.410848 
-0.25616 0.565174 -0.784194 -0.279157 0.576774 -0.767726 -0.130423 0.557966 -0.819551 
-0.080389 0.578124 -0.811979 -0.0974121 0.582218 -0.807176 -0.230505 0.651123 -0.723123 
0.255588 0.873924 -0.413438 0.279135 0.826691 -0.488534 0.189222 0.816134 -0.546005 
0.227457 0.788382 -0.571592 0.171861 0.811507 -0.558499 0.25227 0.827766 -0.501162 
0.407925 0.897415 -0.16806 -0.209211 0.938406 -0.275 -0.0879407 0.923483 -0.373424 
-0.10856 0.881505 -0.459525 -0.17764 0.792526 -0.583392 -0.183078 0.83821 -0.513699 
-0.164028 0.81217 -0.559889 0.190492 0.885827 -0.423112 0.0600223 0.88057 -0.470099 
0.272768 0.929715 -0.247441 -0.128132 -0.70065 -0.701906 0.0218982 -0.663072 -0.748235 
0.121671 -0.596865 -0.793063 -0.37832 -0.788402 -0.485073 -0.250518 -0.787329 -0.563341 
-0.36583 -0.914503 -0.172779 -0.182543 -0.728141 -0.660673 -0.199396 -0.741053 -0.641156 
-0.22295 -0.784617 -0.578506 0.109712 -0.587436 -0.801799 0.0915033 -0.5805 -0.809103 
0.10287 -0.626206 -0.772841 0.0498778 -0.623364 -0.780339 0.0705592 -0.709729 -0.700933 
0.0878782 -0.630987 -0.7708 0.107466 -0.756661 -0.644915 0.12641 -0.660592 -0.740026 
0.18055 -0.838347 -0.51437 0.245118 -0.638768 -0.729309 0.344002 -0.902315 -0.25979 
-0.454594 -0.758145 -0.467505 -0.532575 -0.709926 -0.460835 -0.56852 -0.819516 -0.0719601 
0.29492 -0.616766 -0.72981 0.333465 -0.629573 -0.70174 0.39253 -0.704058 -0.591796 
0.490261 -0.65199 -0.578406 -0.666085 -0.588016 -0.458876 -0.709406 -0.525233 -0.469972 
-0.760576 -0.62669 -0.169661 0.508293 -0.646138 -0.569337 0.70139 -0.576858 -0.418674 
-0.772481 -0.402884 -0.490874 0.714372 -0.56665 -0.410586 -0.869331 -0.190471 -0.456054 
-0.985011 -0.156424 -0.0726965 0.879403 -0.34158 -0.331623 -0.910418 0.0287248 -0.412691 
-0.959431 0.0367886 -0.279532 0.96831 -0.0283003 -0.248142 -0.862683 0.293191 -0.412089 
0.945899 0.273829 -0.174048 -0.76405 0.511971 -0.392573 -0.73713 0.554101 -0.386796 
0.75832 0.623916 -0.188891 0.68147 0.714244 -0.159545 -0.559769 0.76306 -0.323107 
-0.513645 0.800674 -0.308366 -0.34284 0.902419 -0.26096 0.230118 0.971798 -0.0515163 
0.139391 0.985867 -0.0929329 0.148496 0.983817 -0.100269 0.256224 0.961037 -0.10372 
0.420234 0.900053 -0.11536 0.400173 0.909583 -0.111891 0.400422 0.915738 0.0329533 
-0.211862 0.940046 -0.267258 -0.208997 0.940674 -0.267307 -0.0943969 0.952339 -0.290069 
-0.0995098 0.942171 -0.32002 -0.106934 0.956022 -0.273107 -0.0277555 0.984705 -0.172006 
0.149766 0.984824 -0.0876978 0.270113 0.961676 -0.0470931 0.285607 0.957182 -0.0472395 
-0.383006 -0.921257 -0.0677594 -0.326432 -0.939022 -0.108071 -0.234231 -0.955302 -0.18037 
-0.0640795 -0.966425 -0.248832 0.0935647 -0.946829 -0.30783 0.140884 -0.930549 -0.33798 
0.105189 -0.943683 -0.313683 0.138384 -0.943792 -0.300178 0.222267 -0.924534 -0.30957 
0.34708 -0.90838 -0.233198 -0.567113 -0.822768 -0.0378873 -0.392664 -0.917638 -0.0612822 
-0.444927 -0.894666 -0.0401632 -0.391754 -0.914343 0.102503 0.359496 -0.90425 -0.230425 
0.499267 -0.837627 -0.221614 -0.57395 -0.817883 -0.0406098 -0.754312 -0.65507 -0.0435458 
-0.566279 -0.824097 0.0138884 0.627899 -0.767832 -0.127192 0.661526 -0.743947 -0.094479 
-0.775855 -0.630024 -0.0334472 -0.779899 -0.600711 0.175793 0.774041 -0.632467 -0.0290824 
0.815195 -0.579164 0.00514797 -0.915991 -0.401159 0.00565249 -0.980515 -0.193604 0.0332769 
0.895773 -0.441493 0.0517229 0.744364 -0.373813 0.553341 -0.989252 -0.142101 0.0344716 
-0.98574 -0.137156 0.0974931 0.965069 -0.217878 0.145504 -0.994553 0.0543637 0.0889284 
-0.969454 0.226107 0.095056 -0.97888 0.0642346 0.194084 0.989199 0.044209 0.139754 
-0.937735 0.334083 0.0950909 0.921382 0.278652 0.27094 -0.810714 0.575113 0.109488 
-0.733921 0.667107 0.127779 -0.692149 0.561917 0.452967 0.390327 0.866297 0.311727 
0.668129 0.664113 0.335497 0.647917 0.686266 0.330519 0.649441 0.654583 0.386972 
-0.539588 0.820574 0.188425 -0.463779 0.858114 0.220338 -0.447844 0.823212 0.348938 
-0.366809 0.904664 0.216872 0.238101 0.956421 0.16902 0.143292 0.966491 0.212985 
0.156206 0.963812 0.216022 0.338353 0.894518 0.292155 0.266825 0.928286 0.259017 
0.285846 0.887457 0.361542 -0.245287 0.94466 0.217834 -0.23701 0.947114 0.216335 
-0.238843 0.941905 0.236152 -0.135606 0.975144 0.175227 -0.153957 0.936204 0.315944 
-0.121511 0.985222 0.120714 -0.166312 0.885668 0.433512 -0.076274 0.992784 0.0925356 
0.0335382 0.99356 0.108233 0.193708 0.972555 0.128892 0.297374 0.945506 0.132618 
0.304946 0.943637 0.128673 0.305876 0.93628 0.172683 -0.362676 -0.854407 0.372094 
-0.32828 -0.893816 0.305493 -0.130957 -0.956532 0.260569 0.0637591 -0.973118 0.221305 
0.156897 -0.959593 0.233591 0.143702 -0.953326 0.265555 0.145551 -0.953528 0.263817 
0.239482 -0.931228 0.274704 0.408384 -0.871258 0.272272 -0.425403 -0.821393 0.379927 
-0.371555 -0.846353 0.381621 -0.375916 -0.837081 0.39747 -0.342467 -0.789888 0.508718 
-0.260128 -0.610518 0.748065 0.111009 -0.652078 0.749981 0.116845 -0.705107 0.699408 
0.214534 -0.790968 0.573014 0.416056 -0.866926 0.274474 0.408868 -0.864126 0.293451 
0.557964 -0.755147 0.344136 -0.476873 -0.782359 0.400632 -0.520872 -0.746692 0.413695 
-0.395934 -0.696876 0.597996 -0.270957 -0.561013 0.782206 0.252982 -0.420667 0.871229 
0.636184 -0.667456 0.387005 0.514396 -0.567631 0.6428 0.683745 -0.571759 0.453415 
-0.723977 -0.541357 0.42754 -0.749703 -0.497543 0.436345 -0.467015 -0.466903 0.750932 
0.355474 -0.235441 0.904547 0.725055 -0.479118 0.494714 0.62615 -0.447974 0.638166 
-0.815046 -0.382325 0.435347 -0.65224 -0.370681 0.661195 0.706946 -0.35149 0.613744 
0.495297 -0.21109 0.842688 0.709333 -0.326647 0.624619 -0.891967 -0.113216 0.437696 
-0.528107 -0.06234 0.846886 0.435031 -0.0667013 0.897942 0.70659 -0.194538 0.680357 
0.649853 -0.145747 0.745955 -0.865536 0.108508 0.488952 -0.564603 0.135732 0.814125 
0.429026 0.105032 0.897165 0.662422 0.0953589 0.743037 0.574627 0.074283 0.815038 
-0.758421 0.357834 0.54475 -0.625708 0.491397 0.605821 -0.578355 0.397476 0.712403 
0.397029 0.312965 0.862798 0.645603 0.354443 0.676437 0.64438 0.358926 0.675238 
0.643924 0.351467 0.679583 -0.571644 0.542142 0.615878 -0.412241 0.682958 0.603014 
-0.402617 0.526125 0.74906 -0.213442 0.483222 0.849081 0.158087 0.474017 0.866208 
0.306133 0.764263 0.567613 0.30614 0.525408 0.793867 0.484791 0.581268 0.653532 
0.436241 0.617801 0.654229 0.435243 0.571087 0.696005 -0.326093 0.739674 0.588682 
-0.303543 0.756317 0.579522 -0.294914 0.71211 0.637122 -0.206763 0.742552 0.637075 
-0.180691 0.661989 0.727407 -0.187764 0.788617 0.585515 -0.181021 0.610748 0.770855 
-0.176485 0.830932 0.527641 -0.149414 0.563105 0.812766 0.303242 0.867362 0.394623 
0.204728 0.505803 0.838004 0.287047 0.848848 0.443916 0.264076 0.696655 0.667035 
0.174941 0.84988 0.497091 0.174644 0.806031 0.56552 0.204547 0.808707 0.551501 
0.197255 0.810971 0.550833 0.197155 0.805055 0.559479 -0.149384 0.856004 0.494915 
-0.118832 0.875498 0.468382 -0.123061 0.846464 0.51803 0.00459665 0.896259 0.443508 
-0.00455141 0.837601 0.546264 0.212521 0.892841 0.397076 0.164999 0.898364 0.407084 
0.159955 0.871916 0.462793 -0.0983598 -0.596801 0.796338 0.0411236 -0.561528 0.826435 
0.121374 -0.56189 0.818259 -0.24965 -0.551114 0.796208 -0.195676 -0.57976 0.790942 
-0.238926 -0.562468 0.791546 -0.0931444 -0.553727 0.827472 0.0445777 -0.490892 0.870079 
0.117061 -0.561342 0.819263 0.119489 -0.550256 0.826403 0.0912901 -0.533495 0.840862 
0.0995914 -0.51551 0.851076 0.178396 -0.476109 0.861101 -0.313162 -0.48545 0.816252 
-0.259395 -0.539407 0.801096 -0.261038 -0.531841 0.805608 -0.210894 -0.459471 0.862792 
-0.135394 -0.362685 0.922024 -0.0211205 -0.255723 0.966519 0.05241 -0.198324 0.978734 
0.0562233 -0.225839 0.972541 0.0526204 -0.288935 0.955902 0.0736921 -0.312024 0.947212 
0.239464 -0.406397 0.881759 0.159462 -0.35456 0.921336 0.245528 -0.393259 0.886038 
-0.392024 -0.424493 0.816164 -0.420301 -0.347385 0.838255 -0.286112 -0.384004 0.877884 
-0.162451 -0.282254 0.945485 -0.131489 -0.188315 0.973267 -0.0532122 -0.127399 0.990423 
0.0777918 -0.120971 0.989603 0.0927156 -0.0313963 0.995198 0.0222208 -0.0235011 0.999477 
0.0139372 -0.0896743 0.995874 0.0485655 -0.09671 0.994127 0.116328 -0.144234 0.982682 
0.329756 -0.227151 0.916332 0.208791 -0.198038 0.957699 0.340012 -0.21744 0.914938 
-0.44226 -0.249042 0.861617 -0.357191 -0.20994 0.910132 -0.183662 -0.130977 0.974225 
-0.0950924 -0.0688512 0.993085 -0.0636963 0.023131 0.997701 -0.059331 0.112243 0.991908 
0.0745805 0.0595356 0.995436 0.154916 0.0333784 0.987364 -0.00489465 0.0277445 0.999603 
-0.0246926 0.0159697 0.999568 0.0203541 0.0124847 0.999715 0.046676 -0.0305132 0.998444 
0.155257 -0.103328 0.982455 0.38721 -0.183011 0.903646 0.305752 -0.159333 0.938685 
-0.432584 -0.0461606 0.900411 -0.324585 -0.0304704 0.945365 -0.133402 -0.00693791 0.991038 
-0.00942573 0.018454 0.999785 0.0542051 0.0725893 0.995888 -0.0136222 0.133003 0.991022 
-0.00459637 0.161583 0.986848 0.0581002 0.0461065 0.997245 0.00484574 -0.0587967 0.998258 
-0.00109702 0.0499785 0.99875 0.00241839 0.0384334 0.999258 0.00216121 0.0174732 0.999845 
0.0943434 -0.0335135 0.994975 0.417047 -0.0646638 0.906582 0.249919 -0.0428274 0.967319 
-0.419762 0.133789 0.89772 -0.296635 0.143175 0.944197 -0.138504 0.114307 0.983743 
-0.0155392 0.0869753 0.996089 0.0478879 0.031202 0.998365 0.0253721 -0.017899 0.999518 
-0.00299672 0.0242313 0.999702 -0.0666342 0.0135422 0.997686 0.000642408 -0.0281005 0.999605 
0.0722 0.0501409 0.996129 -0.0122708 0.0527971 0.99853 -0.0265044 0.0560005 0.998079 
0.106286 0.0864763 0.990568 0.405857 0.10469 0.907921 0.254618 0.0945535 0.962408 
-0.350004 0.27259 0.89621 -0.349408 0.273468 0.896175 -0.348942 0.272091 0.896775 
-0.208408 0.424196 0.881263 -0.195478 0.255247 0.946909 -0.0899474 0.202306 0.975183 
-0.045438 0.118987 0.991856 -0.0202925 0.0296203 0.999355 0.0250885 0.0200179 0.999485 
0.00469099 0.0446842 0.99899 0.0407767 0.110554 0.993033 0.0795287 0.0889273 0.992858 
0.00968525 0.149681 0.988687 0.036759 0.195896 0.979936 0.15398 0.44266 0.88337 
0.134578 0.255987 0.957267 0.276795 0.274993 0.920741 0.265878 0.310046 0.912787 
0.256064 0.263597 0.930026 -0.182177 0.455383 0.871457 -0.167391 0.468304 0.867566 
-0.16278 0.432188 0.88697 -0.156084 0.475554 0.865729 -0.13595 0.368368 0.919686 
-0.132551 0.497213 0.857444 -0.0819447 0.291329 0.953107 0.0106196 0.233451 0.97231 
0.0253598 0.195841 0.980308 0.0442912 0.219153 0.974685 0.18671 0.44883 0.873894 
0.112224 0.21068 0.971092 0.143143 0.41547 0.898273 0.101981 0.342483 0.933973 
0.124015 0.455909 0.881344 0.0893617 0.46204 0.882346 0.0834503 0.439494 0.894361 
-0.0972023 0.492934 0.86462 -0.0877433 0.48921 0.867741 -0.0839584 0.476946 0.874914 
-0.0133118 0.44007 0.897865 -0.0119037 0.40096 0.916018 0.131358 0.465423 0.875286 
0.0634619 0.46306 0.884052 0.0560431 0.433653 0.899336 
