# vtk DataFile Version 4.2
vtk output
ASCII
DATASET POLYDATA
POINTS 518 float
24.9728 -15.6055 -24.6391 33.2832 -15.6055 -24.6855 -33.1997 -40.5366 -18.1229 
-24.8893 -40.5366 -21.4711 -16.579 -40.5366 -22.4669 -8.26863 -40.5366 -21.7988 
0.041724 -40.5366 -19.2485 -41.5101 -32.2262 -17.4035 -33.1997 -32.2262 -21.0334 
-24.8893 -32.2262 -22.9231 -16.579 -32.2262 -24.3367 -8.26863 -32.2262 -23.4516 
0.041724 -32.2262 -22.5294 8.35208 -32.2262 -21.7665 16.6624 -32.2262 -20.9088 
24.9728 -32.2262 -20.0272 33.2832 -32.2262 -18.1083 -41.5101 -23.9158 -19.1744 
-33.1997 -23.9158 -22.4916 -24.8893 -23.9158 -23.1418 -16.579 -23.9158 -23.5169 
-8.26863 -23.9158 -23.5003 0.041724 -23.9158 -22.9798 8.35208 -23.9158 -22.879 
16.6624 -23.9158 -23.6936 24.9728 -21.102 -24.4155 24.9728 -23.9158 -24.2911 
33.2832 -17.0108 -24.4155 33.2832 -23.9158 -23.0766 41.5935 -23.9158 -21.7588 
49.9039 -23.9158 -18.2067 -41.5101 -15.6055 -20.0299 -33.1997 -15.6055 -21.7289 
-24.8893 -15.6055 -22.2555 -16.579 -15.6055 -22.2036 -8.26863 -15.6055 -22.7341 
0.041724 -15.6055 -22.5622 8.35208 -15.6055 -22.8825 22.0822 -15.6055 -24.4155 
16.6624 -15.6055 -23.9807 24.9728 -14.521 -24.4155 41.1337 -15.6055 -24.4155 
33.2832 -12.5341 -24.4155 41.5935 -15.6055 -24.3985 49.9039 -15.6055 -21.3233 
-41.5101 -7.29513 -20.2288 -33.1997 -7.29513 -22.027 -24.8893 -7.29513 -22.1135 
-16.579 -7.29513 -22.0934 -8.26863 -7.29513 -24.0093 0.041724 -7.29513 -23.522 
8.35208 -7.29513 -23.0806 16.6624 -7.29513 -22.3432 24.9728 -7.29513 -22.9225 
33.2832 -7.29513 -23.9625 41.5935 -7.29513 -24.0714 49.9039 -7.29513 -22.7061 
58.2142 -7.29513 -17.5469 -41.5101 1.01523 -19.4732 -33.1997 1.01523 -21.566 
-24.8893 1.01523 -22.1031 -16.579 1.01523 -22.7295 -8.26863 1.01523 -22.907 
0.041724 1.01523 -21.9242 8.35208 1.01523 -24.213 16.6624 1.01523 -21.6346 
24.9728 1.01523 -22.4251 33.2832 1.01523 -23.6452 41.5935 1.01523 -23.9803 
49.9039 1.01523 -22.5239 58.2142 1.01523 -16.9785 -41.5101 9.32558 -18.0521 
-33.1997 9.32558 -19.9287 -24.8893 9.32558 -20.6137 -16.579 9.32558 -21.0452 
-8.26863 9.32558 -21.4133 0.041724 9.32558 -21.8442 8.35208 9.32558 -23.9485 
16.6624 9.32558 -23.0605 24.9728 9.32558 -22.9995 33.2832 9.32558 -24.0933 
41.5935 9.32558 -24.0373 49.9039 9.32558 -21.1104 -33.1997 17.6359 -17.367 
-24.8893 17.6359 -18.0275 -16.579 17.6359 -18.7976 -8.26863 17.6359 -20.5228 
0.041724 17.6359 -21.5114 8.35208 17.6359 -22.2256 16.6624 17.6359 -22.8317 
24.9728 17.6359 -23.1127 33.2832 17.6359 -22.9828 41.5935 17.6359 -21.6788 
49.9039 17.6359 -17.602 -8.26863 25.9463 -18.1669 0.041724 25.9463 -20.0695 
8.35208 25.9463 -20.8384 16.6624 25.9463 -21.4597 24.9728 25.9463 -21.5491 
33.2832 25.9463 -20.6312 41.5935 25.9463 -17.3053 0.041724 34.2567 -16.542 
8.35208 34.2567 -17.9663 16.6624 34.2567 -18.4396 24.9728 34.2567 -17.6167 
-33.1997 -42.6398 -16.1052 -24.8893 -46.6149 -16.1052 -16.579 -47.1142 -16.1052 
-8.26863 -46.1202 -16.1052 0.041724 -43.2978 -16.1052 -35.7914 -40.5366 -16.1052 
-41.5101 -34.3559 -16.1052 -41.5101 -40.5366 -7.8023 7.19127 -40.5366 -16.1052 
8.35208 -39.9575 -16.1052 8.35208 -40.5366 -14.924 16.6624 -37.5455 -16.1052 
16.6624 -40.5366 -8.62342 24.9728 -35.9285 -16.1052 33.2832 -33.9912 -16.1052 
-42.8708 -32.2262 -16.1052 40.6134 -32.2262 -16.1052 41.5935 -31.9028 -16.1052 
41.5935 -32.2262 -15.6142 49.9039 -26.1556 -16.1052 -45.4546 -23.9158 -16.1052 
-49.8204 -23.9158 -10.7754 52.204 -23.9158 -16.1052 -48.2946 -15.6055 -16.1052 
-49.8204 -15.6055 -14.5392 57.3411 -15.6055 -16.1052 58.2142 -12.6144 -16.1052 
58.2142 -15.6055 -14.0123 -49.3575 -7.29513 -16.1052 -49.8204 -7.29513 -15.7542 
59.454 -7.29513 -16.1052 -48.4978 1.01523 -16.1052 -49.8204 1.01523 -15.2435 
58.9604 1.01523 -16.1052 58.2142 3.649 -16.1052 -46.4512 9.32558 -16.1052 
-49.8204 9.32558 -14.5047 -41.5101 16.0005 -16.1052 56.2437 9.32558 -16.1052 
58.2142 9.32558 -10.2194 -49.8204 17.6359 -11.4614 -39.2165 17.6359 -16.1052 
-41.5101 17.6359 -15.6095 -33.1997 20.6618 -16.1052 -24.8893 22.6336 -16.1052 
-16.579 24.5875 -16.1052 51.519 17.6359 -16.1052 49.9039 19.5888 -16.1052 
-41.5101 25.9463 -12.1286 -33.1997 25.9463 -13.8322 -24.8893 25.9463 -14.6989 
-14.8461 25.9463 -16.1052 -16.579 25.9463 -15.5377 -8.26863 29.8931 -16.1052 
33.2832 32.6097 -16.1052 43.1799 25.9463 -16.1052 41.5935 27.2918 -16.1052 
-33.1997 34.2567 -8.29935 -24.8893 34.2567 -9.43892 -16.579 34.2567 -10.454 
-1.23855 34.2567 -16.1052 -8.26863 34.2567 -13.3781 0.041724 34.8831 -16.1052 
8.35208 37.0053 -16.1052 16.6624 37.2899 -16.1052 29.7403 34.2567 -16.1052 
24.9728 36.1512 -16.1052 33.2832 34.2567 -14.2625 0.041724 42.567 -8.69592 
8.35208 42.567 -10.5997 16.6624 42.567 -10.5504 24.9728 42.567 -7.87768 
-41.5101 -40.5404 -7.7948 -33.1997 -46.5614 -7.7948 -24.8893 -48.7589 -7.7948 
-16.579 -48.5667 -7.7948 -8.26863 -47.5126 -7.7948 0.041724 -45.1398 -7.7948 
8.35208 -42.8371 -7.7948 16.6624 -40.8039 -7.7948 -41.5137 -40.5366 -7.7948 
-41.5101 -40.5366 -7.76583 18.0231 -40.5366 -7.7948 24.9728 -39.1531 -7.7948 
24.9728 -40.5366 -1.29824 33.2832 -37.7958 -7.7948 41.5935 -35.3372 -7.7948 
-47.3769 -32.2262 -7.7948 -49.8204 -27.271 -7.7948 46.8747 -32.2262 -7.7948 
49.9039 -30.001 -7.7948 -51.3962 -23.9158 -7.7948 55.6992 -23.9158 -7.7948 
58.2142 -19.318 -7.7948 -53.8806 -15.6055 -7.7948 59.964 -15.6055 -7.7948 
58.2142 -15.6055 -2.68957 -55.3298 -7.29513 -7.7948 61.708 -7.29513 -7.7948 
-55.8165 1.01523 -7.7948 -58.1308 1.01523 -0.595472 61.0613 1.01523 -7.7948 
58.2142 1.01523 0.188363 -55.6248 9.32558 -7.7948 -58.1308 9.32558 -0.754997 
58.822 9.32558 -7.7948 58.2142 10.8106 -7.7948 58.2142 9.32558 -4.94673 
-53.572 17.6359 -7.7948 -49.8204 24.7248 -7.7948 54.8156 17.6359 -7.7948 
49.9039 24.2289 -7.7948 -48.7349 25.9463 -7.7948 -49.8204 25.9463 -6.87746 
-41.5101 31.7155 -7.7948 48.3985 25.9463 -7.7948 41.5935 32.5109 -7.7948 
-49.8204 34.2567 -1.16619 -34.8634 34.2567 -7.7948 -41.5101 34.2567 -5.32422 
-33.1997 34.8411 -7.7948 -24.8893 36.349 -7.7948 -16.579 37.5617 -7.7948 
-8.26863 40.4171 -7.7948 39.4443 34.2567 -7.7948 33.2832 38.6926 -7.7948 
-24.8893 42.567 -1.39406 -16.579 42.567 -2.50457 -2.24786 42.567 -7.7948 
-8.26863 42.567 -5.20841 0.041724 43.2706 -7.7948 8.35208 44.5825 -7.7948 
16.6624 44.4349 -7.7948 25.0954 42.567 -7.7948 24.9728 42.6188 -7.7948 
-33.1997 -45.5172 0.515557 -24.8893 -47.4535 0.515557 -16.579 -47.2654 0.515557 
-8.26863 -46.3984 0.515557 0.041724 -44.6667 0.515557 8.35208 -43.4458 0.515557 
16.6624 -42.2327 0.515557 24.9728 -40.9129 0.515557 -40.0542 -40.5366 0.515557 
-41.5101 -39.2951 0.515557 27.0594 -40.5366 0.515557 24.9728 -40.5366 4.00057 
33.2832 -39.3506 0.515557 41.5935 -35.9803 0.515557 -47.1778 -32.2262 0.515557 
-49.8204 -27.5421 0.515557 47.1893 -32.2262 0.515557 49.9039 -29.3387 0.515557 
-51.6858 -23.9158 0.515557 -49.8204 -23.9158 4.6577 54.2071 -23.9158 0.515557 
49.9039 -23.9158 6.68646 -54.6921 -15.6055 0.515557 56.9908 -15.6055 0.515557 
58.2142 -9.36292 0.515557 -56.8494 -7.29513 0.515557 -58.1308 -0.615493 0.515557 
58.6341 -7.29513 0.515557 58.2142 -1.02954 0.515557 58.2142 -7.29513 1.13851 
-58.4387 1.01523 0.515557 -58.1308 1.01523 1.50495 58.0825 1.01523 0.515557 
-58.5391 9.32558 0.515557 -58.1308 14.6747 0.515557 -58.1308 9.32558 1.98397 
56.8908 9.32558 0.515557 -57.8859 17.6359 0.515557 53.2908 17.6359 0.515557 
49.9039 22.8484 0.515557 49.9039 17.6359 8.27094 -55.3898 25.9463 0.515557 
47.8629 25.9463 0.515557 41.5935 33.4602 0.515557 -50.7074 34.2567 0.515557 
-49.8204 35.1032 0.515557 -41.5101 39.8419 0.515557 -33.1997 42.2818 0.515557 
40.865 34.2567 0.515557 33.2832 41.3164 0.515557 -31.9017 42.567 0.515557 
-33.1997 42.567 1.65976 -24.8893 43.7923 0.515557 -16.579 44.7486 0.515557 
-8.26863 46.4461 0.515557 0.041724 47.9561 0.515557 8.35208 48.5013 0.515557 
16.6624 48.0506 0.515557 31.1541 42.567 0.515557 24.9728 45.9574 0.515557 
-33.1997 -40.6571 8.82591 -24.8893 -43.7008 8.82591 -16.579 -44.7793 8.82591 
-8.26863 -44.3843 8.82591 0.041724 -43.6812 8.82591 8.35208 -42.9845 8.82591 
16.6624 -41.5779 8.82591 -33.3856 -40.5366 8.82591 -41.5101 -33.6195 8.82591 
-33.1997 -40.5366 8.97361 -24.8893 -40.5366 13.344 -16.579 -40.5366 15.5149 
-8.26863 -40.5366 16.1531 0.041724 -40.5366 15.5474 8.35208 -40.5366 14.0535 
22.1849 -40.5366 8.82591 16.6624 -40.5366 11.0002 24.9728 -39.9839 8.82591 
33.2832 -37.6067 8.82591 41.5935 -32.9114 8.82591 -42.6644 -32.2262 8.82591 
-41.5101 -32.2262 10.0015 -33.1997 -32.2262 15.3953 33.2832 -32.2262 15.1963 
42.4401 -32.2262 8.82591 41.5935 -32.2262 9.62798 -47.4025 -23.9158 8.82591 
-49.8204 -18.8001 8.82591 -41.5101 -23.9158 13.7731 48.4361 -23.9158 8.82591 
41.5935 -23.9158 15.057 49.9039 -19.3092 8.82591 -51.0771 -15.6055 8.82591 
-49.8204 -15.6055 10.2192 -41.5101 -15.6055 15.8303 41.5935 -15.6055 16.4115 
51.1833 -15.6055 8.82591 49.9039 -15.6055 10.1598 -53.0342 -7.29513 8.82591 
-49.8204 -7.29513 12.3022 -41.5101 -7.29513 17.0323 41.5935 -7.29513 16.9749 
52.5686 -7.29513 8.82591 49.9039 -7.29513 11.4171 -55.0578 1.01523 8.82591 
-49.8204 1.01523 14.4696 52.4237 1.01523 8.82591 49.9039 1.01523 11.5426 
-55.712 9.32558 8.82591 -49.8204 9.32558 15.5621 51.7532 9.32558 8.82591 
49.9039 16.6927 8.82591 49.9039 9.32558 11.1787 -55.8404 17.6359 8.82591 
-49.8204 17.6359 16.3104 49.6571 17.6359 8.82591 -54.8671 25.9463 8.82591 
-49.8204 25.9463 15.3259 45.1649 25.9463 8.82591 41.5935 30.9017 8.82591 
41.5935 25.9463 13.793 -50.0516 34.2567 8.82591 -49.8204 34.5086 8.82591 
-49.8204 34.2567 9.17952 -41.5101 41.1335 8.82591 -41.5101 34.2567 16.5709 
38.9397 34.2567 8.82591 33.2832 40.2708 8.82591 33.2832 34.2567 15.9539 
-37.7599 42.567 8.82591 -33.1997 43.9939 8.82591 -33.1997 42.567 13.1407 
-24.8893 45.9502 8.82591 -16.579 47.5883 8.82591 -8.26863 48.8898 8.82591 
0.041724 49.6923 8.82591 8.35208 49.7391 8.82591 16.6624 48.7876 8.82591 
30.3041 42.567 8.82591 24.9728 45.9302 8.82591 24.9728 42.567 14.8932 
-24.8893 -35.13 17.1363 -16.579 -38.6468 17.1363 -8.26863 -39.5713 17.1363 
[...]
POINT_DATA 518
SCALARS ImageScalars float
LOOKUP_TABLE default
0 0 0 0 0 0 0 0 0 
0 0 0 0 0 0 0 0 0 
0 0 0 0 0 0 0 0 0 
0 0 0 0 0 0 0 0 0 
0 0 0 0 0 0 0 0 0 
0 0 0 0 0 0 0 0 0 
0 0 0 0 0 0 0 0 0 
0 0 0 0 0 0 0 0 0 
0 0 0 0 0 0 0 0 0 
0 0 0 0 0 0 0 0 0 
0 0 0 0 0 0 0 0 0 
0 0 0 0 0 0 0 0 0 
0 0 0 0 0 0 0 0 0 
0 0 0 0 0 0 0 0 0 
0 0 0 0 0 0 0 0 0 
0 0 0 0 0 0 0 0 0 
0 0 0 0 0 0 0 0 0 
0 0 0 0 0 0 0 0 0 
0 0 0 0 0 0 0 0 0 
0 0 0 0 0 0 0 0 0 
0 0 0 0 0 0 0 0 0 
0 0 0 0 0 0 0 0 0 
0 0 0 0 0 0 0 0 0 
0 0 0 0 0 0 0 0 0 
0 0 0 0 0 0 0 0 0 
0 0 0 0 0 0 0 0 0 
0 0 0 0 0 0 0 0 0 
0 0 0 0 0 0 0 0 0 
0 0 0 0 0 0 0 0 0 
0 0 0 0 0 0 0 0 0 
0 0 0 0 0 0 0 0 0 
0 0 0 0 0 0 0 0 0 
0 0 0 0 0 0 0 0 0 
0 0 0 0 0 0 0 0 0 
0 0 0 0 0 0 0 0 0 
0 0 0 0 0 0 0 0 0 
0 0 0 0 0 0 0 0 0 
0 0 0 0 0 0 0 0 0 
0 0 0 0 0 0 0 0 0 
0 0 0 0 0 0 0 0 0 
0 0 0 0 0 0 0 0 0 
0 0 0 0 0 0 0 0 0 
0 0 0 0 0 0 0 0 0 
0 0 0 0 0 0 0 0 0 
0 0 0 0 0 0 0 0 0 
0 0 0 0 0 0 0 0 0 
0 0 0 0 0 0 0 0 0 
0 0 0 0 0 0 0 0 0 
0 0 0 0 0 0 0 0 0 
0 0 0 0 0 0 0 0 0 
0 0 0 0 0 0 0 0 0 
0 0 0 0 0 0 0 0 0 
0 0 0 0 0 0 0 0 0 
0 0 0 0 0 0 0 0 0 
0 0 0 0 0 0 0 0 0 
0 0 0 0 0 0 0 0 0 
0 0 0 0 0 0 0 0 0 
0 0 0 0 0 
NORMALS Normals float
-0.0413329 0.0811662 -0.995843 0.0161 -0.0511904 -0.998559 -0.486851 -0.534668 -0.690729 
-0.210539 -0.442106 -0.871904 -0.022803 -0.413011 -0.910441 0.159824 -0.481536 -0.86173 
0.299944 -0.648823 -0.69933 -0.607763 -0.336027 -0.719521 -0.305434 -0.200573 -0.930849 
-0.186559 -0.0865794 -0.978621 -0.0407212 -0.0472637 -0.998052 0.108792 -0.0820457 -0.990673 
0.0960303 -0.171556 -0.980483 0.0962798 -0.336263 -0.936834 0.0915406 -0.522658 -0.847614 
0.137459 -0.640933 -0.755188 0.196492 -0.725305 -0.65979 -0.503055 -0.145327 -0.851948 
-0.191676 -0.0423137 -0.980546 -0.0576351 0.0396161 -0.997551 -0.0210471 0.125611 -0.991856 
0.0322597 0.0430898 -0.99855 0.0373369 -0.00241301 -0.9993 -0.0415308 -0.0581674 -0.997443 
-0.0827807 -0.161538 -0.983388 0.0101158 -0.114878 -0.993328 0.0359215 -0.214979 -0.975958 
0.0343045 -0.0934475 -0.995033 0.134461 -0.312832 -0.940243 0.255193 -0.418286 -0.87173 
0.527074 -0.52825 -0.665691 -0.356318 -0.0511759 -0.932962 -0.131916 0.0229361 -0.990996 
-0.027954 0.0608855 -0.997753 -0.0286713 0.0852718 -0.995945 -0.0215782 -0.0274543 -0.99939 
-0.00892193 -0.0319912 -0.999448 -0.083271 -0.0120188 -0.996454 -0.0638333 0.0824891 -0.994546 
-0.106698 0.0819796 -0.990906 -0.0484015 0.0890551 -0.99485 0.176517 -0.109364 -0.978203 
-0.0164975 -0.00938294 -0.99982 0.185524 -0.112644 -0.976162 0.437894 -0.231043 -0.868831 
-0.337779 0.0314849 -0.940699 -0.106805 0.00925537 -0.994237 -0.00387022 0.0091563 -0.999951 
-0.111317 -0.0318685 -0.993274 -0.0878477 -0.0150698 -0.99602 0.0546728 0.0329521 -0.99796 
0.0707411 -0.0792088 -0.994345 0.00906213 0.136287 -0.990628 -0.0975797 0.133166 -0.986278 
-0.0684291 0.0616135 -0.995752 0.07544 0.0234978 -0.996873 0.309761 -0.0689718 -0.948309 
0.792801 -0.0817351 -0.603976 -0.338664 0.124428 -0.932644 -0.151429 0.127809 -0.98017 
-0.0684512 0.0875615 -0.993805 -0.047689 0.0605279 -0.997027 0.047225 0.160686 -0.985875 
-0.0843825 0.105458 -0.990837 0.0210549 -0.0521006 -0.99842 0.108826 -0.0419897 -0.993174 
-0.119192 -0.00485383 -0.992859 -0.092913 -0.00630889 -0.995654 0.066188 0.00227593 -0.997805 
0.335567 0.0870926 -0.937982 0.810738 0.153294 -0.564983 -0.30265 0.213198 -0.928951 
-0.143611 0.234782 -0.961381 -0.0664788 0.231142 -0.970646 -0.0474435 0.228319 -0.97243 
-0.0462814 0.134763 -0.989796 -0.152548 0.0247794 -0.987985 -0.0718989 0.117402 -0.990478 
0.0566108 -0.070836 -0.99588 -0.0597478 -0.0420249 -0.997328 -0.0648539 0.0393046 -0.99712 
0.153344 0.118332 -0.981062 0.464228 0.246205 -0.850809 -0.128744 0.339856 -0.931624 
-0.0805539 0.326985 -0.94159 -0.142685 0.307887 -0.940663 -0.157563 0.184528 -0.970115 
-0.0991187 0.100162 -0.990022 -0.078311 0.180603 -0.980434 -0.0522055 0.0961626 -0.993996 
-0.00926679 0.0825401 -0.996545 0.0774223 0.185125 -0.97966 0.268474 0.332933 -0.903923 
0.592692 0.49937 -0.631938 -0.255948 0.374002 -0.891411 -0.149522 0.270399 -0.951067 
-0.0809529 0.238074 -0.967867 -0.0406927 0.228499 -0.972693 0.0423769 0.298962 -0.953324 
0.197373 0.407189 -0.891763 0.469925 0.591092 -0.655577 -0.226935 0.502717 -0.834132 
-0.0994739 0.462277 -0.881138 0.0169016 0.503292 -0.863951 0.168453 0.569767 -0.804356 
-0.489783 -0.639977 -0.592066 -0.198902 -0.835868 -0.511628 0.0273084 -0.908249 -0.417539 
0.208393 -0.869027 -0.448737 0.318425 -0.813757 -0.486215 -0.548076 -0.578265 -0.604336 
-0.644163 -0.398123 -0.653109 -0.711327 -0.688402 -0.141832 0.306193 -0.782589 -0.542033 
0.295068 -0.771767 -0.563304 0.297615 -0.819132 -0.490356 0.181258 -0.791557 -0.583594 
0.20855 -0.942973 -0.259438 0.181317 -0.807357 -0.561514 0.210549 -0.788459 -0.577929 
-0.674006 -0.348676 -0.651261 0.336966 -0.756502 -0.560499 0.354109 -0.746771 -0.562973 
0.358481 -0.764587 -0.535629 0.545682 -0.622476 -0.561031 -0.631477 -0.233315 -0.73946 
-0.84726 -0.33909 -0.408863 0.615513 -0.554893 -0.559677 -0.647633 -0.136108 -0.749698 
-0.74575 -0.162673 -0.646061 0.759542 -0.334729 -0.557721 0.804003 -0.247702 -0.540577 
0.851425 -0.345102 -0.394944 -0.63149 -0.0131174 -0.775273 -0.656904 -0.0194742 -0.753722 
0.845529 -0.0790173 -0.528051 -0.566156 0.0726012 -0.821095 -0.627345 0.0562184 -0.776709 
0.840366 0.155209 -0.519322 0.828544 0.211033 -0.518632 -0.446206 0.201058 -0.872052 
-0.570377 0.179727 -0.801479 -0.305165 0.287435 -0.907885 0.76786 0.337293 -0.544633 
0.928716 0.33913 -0.149923 -0.572918 0.313489 -0.757291 -0.255488 0.317222 -0.913288 
-0.307753 0.306381 -0.900788 -0.127315 0.376911 -0.917458 -0.0904175 0.395208 -0.914131 
-0.177577 0.407119 -0.895947 0.656295 0.521706 -0.54507 0.624057 0.55473 -0.550297 
-0.289861 0.458345 -0.840179 -0.125019 0.453704 -0.882339 -0.0933694 0.449652 -0.88831 
-0.198541 0.418648 -0.88618 -0.181184 0.428716 -0.885085 -0.278403 0.469023 -0.838158 
0.34023 0.637478 -0.691278 0.518128 0.61874 -0.590512 0.494279 0.626992 -0.602138 
-0.171036 0.644168 -0.745516 -0.104221 0.585205 -0.80416 -0.183337 0.58241 -0.791951 
-0.239249 0.513617 -0.823989 -0.291998 0.563785 -0.772582 -0.229718 0.521925 -0.821477 
-0.0909613 0.565555 -0.819679 0.0375755 0.615502 -0.787239 0.279126 0.639198 -0.716599 
0.184177 0.628737 -0.755493 0.389501 0.698716 -0.60007 -0.201267 0.780378 -0.592032 
-0.0719484 0.798515 -0.59766 0.0887225 0.819509 -0.566157 0.280575 0.852527 -0.440993 
-0.711292 -0.688526 -0.141407 -0.418737 -0.900576 -0.116714 -0.104032 -0.994084 -0.0312053 
0.0684424 -0.997655 0.000861726 0.210237 -0.977648 -0.00234339 0.259257 -0.963781 -0.0625475 
0.252052 -0.952966 -0.168303 0.207962 -0.94982 -0.233654 -0.711387 -0.688421 -0.14144 
-0.71132 -0.688759 -0.140124 0.201616 -0.950347 -0.23705 0.172538 -0.950434 -0.258663 
0.171311 -0.98066 -0.0946501 0.230808 -0.931142 -0.282316 0.382112 -0.899405 -0.212276 
-0.854051 -0.478766 -0.203422 -0.884143 -0.403505 -0.235533 0.519543 -0.83408 -0.185431 
0.621007 -0.769953 -0.146703 -0.900422 -0.354486 -0.25215 0.82381 -0.560479 -0.0848595 
0.91149 -0.410904 -0.0185448 -0.923543 -0.228592 -0.307919 0.947583 -0.317765 0.0333451 
0.928965 -0.2598 0.263683 -0.920716 -0.109213 -0.374638 0.996748 -0.0660364 0.0461869 
-0.882505 -0.0177896 -0.469967 -0.994669 -0.0936582 -0.0431562 0.985162 0.164328 0.0495186 
0.894906 0.0911578 0.436846 -0.846111 0.112951 -0.520902 -0.994931 0.0433281 -0.090744 
0.943902 0.329951 -0.0134416 0.930992 0.364483 -0.0201523 0.945601 0.305011 0.113165 
-0.74241 0.279661 -0.608784 -0.609306 0.404595 -0.681945 0.842472 0.535398 -0.0599191 
0.756375 0.644427 -0.112297 -0.5682 0.432331 -0.70017 -0.631602 0.42438 -0.64883 
-0.272325 0.615354 -0.739715 0.726391 0.67286 -0.140053 0.64141 0.730811 -0.233472 
-0.634601 0.708348 -0.309071 -0.185423 0.651922 -0.735266 -0.270965 0.709884 -0.65011 
-0.173476 0.656373 -0.734221 -0.109943 0.638188 -0.76199 -0.166655 0.645305 -0.745525 
-0.246148 0.704495 -0.665657 0.605367 0.747934 -0.272259 0.479888 0.796781 -0.367215 
-0.125313 0.854649 -0.503857 -0.139608 0.800109 -0.583383 -0.206617 0.776179 -0.595698 
-0.21789 0.775627 -0.592391 -0.193539 0.795765 -0.573847 -0.0567269 0.849655 -0.524279 
0.101046 0.866346 -0.489115 0.284099 0.853089 -0.437638 0.281213 0.853453 -0.438791 
-0.401173 -0.864469 0.302908 -0.0787696 -0.95577 0.283371 0.061819 -0.971892 0.227166 
0.151214 -0.971621 0.1819 0.173558 -0.98085 0.0883852 0.144515 -0.989477 -0.00712592 
0.151759 -0.987379 -0.0452999 0.170092 -0.984152 -0.0501396 -0.613294 -0.742258 0.270042 
-0.665885 -0.700025 0.257997 0.201193 -0.978823 -0.0377729 0.191428 -0.976802 0.0959823 
0.288557 -0.957455 0.00383091 0.465863 -0.879397 0.0981402 -0.823079 -0.528528 0.207845 
-0.873079 -0.450241 0.187127 0.628122 -0.760173 0.16613 0.727321 -0.642054 0.242427 
-0.901237 -0.399177 0.168612 -0.832731 -0.405544 0.376953 0.824581 -0.454458 0.33695 
0.743602 -0.371405 0.55598 -0.946746 -0.291629 0.136468 0.881936 -0.21393 0.420028 
0.882384 -0.0948906 0.460862 -0.973639 -0.209684 0.0897804 -0.991736 -0.124847 0.0295557 
0.878882 -0.0584547 0.473444 0.887147 0.051684 0.458583 0.871198 -0.0556547 0.487767 
-0.994542 -0.103005 0.0166369 -0.991138 -0.10777 0.0776642 0.887459 0.087931 0.452422 
-0.999271 0.0317537 -0.0211864 -0.990623 0.109687 -0.0814603 -0.997649 0.0222064 0.064826 
0.896025 0.243443 0.371315 -0.980766 0.157505 -0.115281 0.853372 0.450526 0.262263 
0.821547 0.532928 0.202606 0.832804 0.338372 0.438112 -0.886006 0.412163 -0.212405 
0.797597 0.582899 0.155139 0.738753 0.671912 0.052713 -0.684327 0.699155 -0.207069 
-0.644515 0.733531 -0.215714 -0.385691 0.847704 -0.364199 -0.188794 0.890343 -0.414302 
0.728087 0.684314 0.0400432 0.571755 0.816838 -0.0766234 -0.177774 0.891942 -0.415735 
-0.201759 0.916073 -0.34656 -0.134048 0.889885 -0.436046 -0.147882 0.863396 -0.482367 
-0.176867 0.882439 -0.435912 -0.112543 0.931052 -0.347098 -0.00495126 0.957552 -0.288219 
0.134981 0.959845 -0.24592 0.51528 0.850431 -0.106082 0.377358 0.907858 -0.182743 
-0.42351 -0.720509 0.549097 -0.207828 -0.842632 0.496768 -0.0339059 -0.917958 0.395227 
0.0655925 -0.943647 0.32439 0.0835956 -0.964881 0.249032 0.12276 -0.963838 0.236529 
0.174177 -0.950362 0.257827 -0.428504 -0.717765 0.548815 -0.629939 -0.523725 0.573489 
-0.424862 -0.716735 0.552977 -0.257316 -0.715276 0.649745 -0.105064 -0.719797 0.686188 
-0.00684979 -0.744178 0.667946 0.0676199 -0.792878 0.605616 0.137394 -0.833287 0.535496 
0.200349 -0.93819 0.28224 0.183921 -0.908641 0.374894 0.216947 -0.927968 0.303001 
0.353843 -0.850953 0.388167 0.549007 -0.675765 0.491866 -0.658256 -0.494422 0.567667 
-0.620847 -0.483702 0.616913 -0.407061 -0.390834 0.825561 0.37863 -0.553516 0.741794 
0.568234 -0.651911 0.502118 0.549354 -0.646182 0.529773 -0.706086 -0.374119 0.60123 
-0.752878 -0.305155 0.583142 -0.535811 -0.278025 0.79725 0.703162 -0.335791 0.626744 
0.522672 -0.284552 0.803645 0.719897 -0.254886 0.645586 -0.77783 -0.253195 0.575216 
-0.725604 -0.251755 0.640405 -0.417462 -0.16612 0.893381 0.420597 -0.0951709 0.902242 
0.728765 -0.187693 0.658539 0.700341 -0.18714 0.688841 -0.770791 -0.199724 0.604972 
-0.644315 -0.190323 0.740699 -0.320087 -0.0765778 0.944288 0.438715 -0.0876368 0.894343 
0.714013 -0.0513891 0.698244 0.64265 -0.0558667 0.764121 -0.801361 -0.135867 0.582546 
-0.561492 -0.14526 0.814633 0.758981 0.0395897 0.649908 0.704453 0.00794952 0.709706 
-0.843479 -0.0381523 0.535806 -0.569981 -0.0783938 0.81791 0.80846 0.140455 0.571546 
0.829189 0.30785 0.466555 0.777313 0.106056 0.620111 -0.884556 0.0466804 0.464092 
-0.599919 0.00763167 0.800024 0.828124 0.328881 0.453924 -0.888171 0.308383 0.340664 
-0.636447 0.250432 0.729534 0.780011 0.4863 0.393822 0.749459 0.560702 0.352028 
0.683219 0.440339 0.582506 -0.725108 0.618884 0.301997 -0.718861 0.626604 0.301008 
-0.717795 0.619229 0.318318 -0.476836 0.859198 0.185491 -0.49813 0.450357 0.740976 
0.726308 0.605089 0.326105 0.635472 0.719496 0.280179 0.558995 0.464179 0.687068 
-0.372283 0.920004 0.122468 -0.272062 0.960559 0.0575208 -0.29623 0.890931 0.344225 
-0.206063 0.978013 0.0320774 -0.174221 0.984467 -0.0217371 -0.127055 0.991815 0.012671 
-0.0509452 0.997834 0.0416139 0.0519082 0.996457 0.0661703 0.211147 0.96971 0.122798 
0.556468 0.794615 0.242756 0.434208 0.87569 0.211258 0.47174 0.71443 0.516769 
-0.286137 -0.419045 0.8617 -0.126706 -0.59274 0.795364 -0.0170732 -0.672204 0.740169 
0.0684296 -0.680069 0.729948 0.130136 -0.59023 0.796676 0.142358 -0.525454 0.838828 
0.213036 -0.499221 0.839877 -0.339072 -0.329588 0.881137 -0.342144 -0.226331 0.911982 
-0.281267 -0.290124 0.914722 -0.159022 -0.263797 0.95138 -0.0508845 -0.280318 0.958557 
0.0775555 -0.297807 0.95147 0.133424 -0.32555 0.936064 0.10959 -0.350317 0.930198 
0.259268 -0.465638 0.846145 0.197517 -0.439686 0.876164 0.3137 -0.338502 0.887135 
-0.348639 -0.18223 0.919371 -0.317041 -0.16723 0.933552 -0.190341 -0.0766393 0.978722 
-0.139915 0.00730559 0.990137 -0.0647457 -0.0166359 0.997763 0.040512 -0.0596498 0.997397 
0.102785 -0.101711 0.98949 0.0824157 -0.113808 0.990079 0.120116 -0.143076 0.982396 
0.362257 -0.232679 0.902569 0.264571 -0.206927 0.941904 -0.329569 -0.124907 0.935832 
-0.23023 -0.0661028 0.970888 -0.101608 0.0325751 0.994291 -0.109834 0.0122561 0.993874 
-0.121807 -0.0295118 0.992115 -0.00869332 -0.010597 0.999906 0.0856133 -0.146319 0.985526 
0.0776708 -0.109355 0.990964 0.0844394 -0.0742023 0.993662 0.375544 -0.0941833 0.922007 
0.242129 -0.0852119 0.966495 -0.309951 -0.073438 0.947912 -0.261822 -0.0790287 0.961875 
-0.13228 -0.0128095 0.99113 -0.116012 0.0028727 0.993244 -0.212165 -0.148474 0.965889 
-0.076343 -0.116599 0.990241 -0.0761716 0.0731183 0.99441 -0.00541329 -0.185224 0.982681 
0.159236 -0.195287 0.967733 0.146537 -0.120521 0.981836 0.428234 -0.0890256 0.899272 
0.246655 -0.0986887 0.964065 0.443916 -0.090477 0.891489 -0.22544 -0.0837127 0.970654 
-0.214753 -0.0815904 0.973254 -0.154777 -0.0798483 0.984717 -0.222101 -0.120603 0.967536 
-0.243181 -0.108187 0.963929 0.114602 -0.021598 0.993177 -0.0820865 -0.075745 0.993743 
-0.176844 -0.0958489 0.979561 0.14783 -0.0602905 0.987173 0.170892 -0.094838 0.980715 
0.252838 -0.130189 0.958709 0.510906 -0.0947476 0.854399 0.476488 -0.105918 0.872777 
-0.40364 -0.118351 0.907231 -0.249273 -0.155112 0.95593 -0.16263 -0.153553 0.974666 
-0.154058 -0.158038 0.975341 -0.103362 0.00963145 0.994597 -0.0478495 0.050453 0.99758 
-0.153567 -0.190027 0.969694 0.160242 0.0636466 0.985024 0.0789678 0.0151804 0.996762 
0.22871 -0.0176463 0.973335 0.582745 0.0204841 0.812397 0.506361 0.0103588 0.862259 
-0.536036 -0.00436079 0.844184 -0.301018 -0.0763876 0.950554 -0.157542 -0.113997 0.98091 
-0.0802187 -0.107153 0.991001 -0.015539 -0.0211554 0.999655 -0.0937676 -0.0256913 0.995263 
-0.138232 -0.0512432 0.989073 0.0771614 0.0413956 0.996159 0.161903 0.000208216 0.986807 
0.0944814 0.0654153 0.993375 0.241827 0.134035 0.961017 0.585694 0.221195 0.779766 
0.578189 0.25815 0.773987 0.554688 0.212163 0.804554 -0.503252 0.21639 0.836608 
-0.47076 0.392449 0.79017 -0.370498 0.15337 0.916083 -0.183145 0.0589856 0.981315 
-0.0546284 0.0253402 0.998185 -0.0204605 0.0299319 0.999343 -0.0811 -0.0289798 0.996285 
-0.0831345 0.0344642 0.995942 0.0630675 0.0218234 0.997771 0.176171 0.00872712 0.984321 
0.218314 0.0882573 0.97188 0.514965 0.3615 0.777257 0.497507 0.406676 0.766225 
0.372315 0.304002 0.876906 -0.466449 0.421828 0.777487 -0.304898 0.663752 0.682987 
-0.267632 0.340017 0.901533 -0.103433 0.306557 0.946216 -0.0712066 0.223603 0.972076 
-0.0960978 0.163239 0.981895 -0.0789973 0.167155 0.982761 0.042477 0.174628 0.983718 
0.22193 0.20993 0.952196 0.500023 0.4172 0.758895 0.445496 0.567877 0.692134 
0.35531 0.274829 0.893434 -0.198839 0.715626 0.669584 -0.194668 0.715107 0.671361 
-0.193631 0.711982 0.674973 -0.190887 0.727507 0.659011 -0.18648 0.60364 0.775141 
-0.0967287 0.779255 0.619197 -0.112118 0.561672 0.819728 -0.0422266 0.796672 0.602936 
-0.0446019 0.543463 0.838248 0.0744953 0.796565 0.599946 0.0842202 0.564441 0.821166 
0.405776 0.639354 0.653125 0.275578 0.708631 0.649537 0.260493 0.577247 0.773905 
-0.0112408 -0.0172584 0.999788 0.00992787 -0.0107229 0.999893 0.0206095 -0.00218864 0.999785 
0.0266565 0.00363809 0.999638 0.0158835 -0.00414462 0.999865 
