# vtk DataFile Version 4.2
vtk output
ASCII
DATASET POLYDATA
POINTS 514 float
-19.3768 -34.0068 -15.8885 -12.1935 -34.0068 -17.5899 -5.01017 -34.0068 -17.5733 
2.17313 -34.0068 -17.3476 9.35644 -34.0068 -16.1082 16.5397 -34.0068 -14.8184 
-26.5601 -26.8235 -17.7932 -19.3768 -26.8235 -19.9161 -12.1935 -26.8235 -20.4349 
-5.01017 -26.8235 -20.3951 2.17313 -26.8235 -19.671 9.35644 -26.8235 -18.8394 
16.5397 -26.8235 -18.1826 23.7231 -26.8235 -17.2919 30.9064 -26.8235 -15.1457 
-33.7434 -19.6402 -15.9453 -26.5601 -19.6402 -19.7503 -19.3768 -19.6402 -20.8387 
-12.1935 -19.6402 -21.2816 -5.01017 -19.6402 -21.2393 2.17313 -19.6402 -20.0226 
9.35644 -19.6402 -18.5801 16.5397 -19.6402 -18.6476 23.7231 -19.6402 -19.0753 
30.9064 -19.6402 -18.5752 38.0897 -19.6402 -15.422 -33.7434 -12.4569 -18.3079 
-26.5601 -12.4569 -20.201 -19.3768 -12.4569 -20.7466 -12.1935 -12.4569 -20.6914 
-5.01017 -12.4569 -20.6525 2.17313 -12.4569 -19.4265 9.35644 -12.4569 -17.5859 
16.5397 -12.4569 -18.5448 23.7231 -12.4569 -19.7202 30.9064 -12.4569 -19.6541 
38.0897 -12.4569 -18.1784 -40.9267 -5.27358 -15.521 -33.7434 -5.27358 -19.4587 
-26.5601 -5.27358 -20.8396 -19.3768 -5.27358 -20.9777 -12.1935 -5.27358 -20.3305 
-5.01017 -5.27358 -19.6912 2.17313 -5.27358 -19.253 9.35644 -5.27358 -18.5412 
16.5397 -5.27358 -19.4856 23.7231 -5.27358 -20.6492 30.9064 -5.27358 -20.7028 
38.0897 -5.27358 -19.1791 45.273 -5.27358 -14.8614 -40.9267 1.90972 -16.4469 
-33.7434 1.90972 -19.8164 -26.5601 1.90972 -20.9655 -19.3768 1.90972 -21.0161 
-12.1935 1.90972 -21.1557 -5.01017 1.90972 -20.5998 2.17313 1.90972 -19.7608 
9.35644 1.90972 -20.6494 16.5397 1.90972 -20.6739 23.7231 1.90972 -20.9565 
30.9064 1.90972 -20.8942 38.0897 1.90972 -19.1864 45.273 1.90972 -14.873 
-40.9267 9.09303 -15.3792 -33.7434 9.09303 -18.8731 -26.5601 9.09303 -20.0666 
-19.3768 9.09303 -20.1944 -12.1935 9.09303 -20.6514 -5.01017 9.09303 -21.3952 
2.17313 9.09303 -20.2376 9.35644 9.09303 -19.1978 16.5397 9.09303 -19.6982 
23.7231 9.09303 -20.1481 30.9064 9.09303 -19.8705 38.0897 9.09303 -18.1429 
-33.7434 16.2763 -17.1853 -26.5601 16.2763 -18.6036 -19.3768 16.2763 -18.9079 
-12.1935 16.2763 -18.8181 -5.01017 16.2763 -18.8706 2.17313 16.2763 -18.6132 
9.35644 16.2763 -18.2352 16.5397 16.2763 -18.4187 23.7231 16.2763 -18.6166 
30.9064 16.2763 -18.1672 38.0897 16.2763 -15.2445 -26.5601 23.4596 -16.4365 
-19.3768 23.4596 -17.5039 -12.1935 23.4596 -17.4099 -5.01017 23.4596 -17.0056 
2.17313 23.4596 -17.4199 9.35644 23.4596 -17.7387 16.5397 23.4596 -17.3451 
23.7231 23.4596 -16.5176 30.9064 23.4596 -14.6435 -19.3768 30.6429 -14.921 
-12.1935 30.6429 -14.9281 -5.01017 30.6429 -15.0525 2.17313 30.6429 -15.6097 
9.35644 30.6429 -15.8113 16.5397 30.6429 -15.1363 -19.3768 -35.4558 -14.3761 
-12.1935 -37.1963 -14.3761 -5.01017 -37.6056 -14.3761 2.17313 -37.3511 -14.3761 
9.35644 -35.9812 -14.3761 16.5397 -34.4933 -14.3761 -22.5054 -34.0068 -14.3761 
-26.5601 -31.5642 -14.3761 -26.5601 -34.0068 -9.86235 17.8294 -34.0068 -14.3761 
23.7231 -31.0735 -14.3761 23.7231 -34.0068 -9.43318 30.9064 -27.7956 -14.3761 
-31.3703 -26.8235 -14.3761 -33.7434 -23.013 -14.3761 -33.7434 -26.8235 -10.4151 
32.2564 -26.8235 -14.3761 38.0897 -21.1111 -14.3761 -35.6493 -19.6402 -14.3761 
39.1969 -19.6402 -14.3761 -39.1431 -12.4569 -14.3761 -40.9267 -8.59581 -14.3761 
-40.9267 -12.4569 -12.0573 43.4076 -12.4569 -14.3761 45.273 -6.86743 -14.3761 
45.273 -12.4569 -11.4161 -42.164 -5.27358 -14.3761 45.723 -5.27358 -14.3761 
-43.2954 1.90972 -14.3761 45.7527 1.90972 -14.3761 45.273 4.29097 -14.3761 
-42.1698 9.09303 -14.3761 -40.9267 12.1867 -14.3761 43.9776 9.09303 -14.3761 
45.273 9.09303 -12.8266 -38.8001 16.2763 -14.3761 -40.9267 16.2763 -12.4196 
-33.7434 22.56 -14.3761 39.3999 16.2763 -14.3761 38.0897 17.9029 -14.3761 
45.273 16.2763 -7.41332 -32.5324 23.4596 -14.3761 -33.7434 23.4596 -13.8253 
-26.5601 27.5889 -14.3761 23.7231 27.6751 -14.3761 31.5222 23.4596 -14.3761 
30.9064 23.9095 -14.3761 38.0897 23.4596 -9.66908 -21.3534 30.6429 -14.3761 
-26.5601 30.6429 -12.441 -19.3768 31.4607 -14.3761 -12.1935 31.6471 -14.3761 
-5.01017 31.8431 -14.3761 2.17313 32.9238 -14.3761 9.35644 32.8357 -14.3761 
19.0303 30.6429 -14.3761 16.5397 31.8875 -14.3761 23.7231 30.6429 -12.5647 
30.9064 30.6429 -8.0135 -19.3768 37.8263 -7.41797 -12.1935 37.8263 -9.30762 
-5.01017 37.8263 -10.1269 2.17313 37.8263 -10.578 9.35644 37.8263 -9.99385 
16.5397 37.8263 -7.77768 -26.5601 -35.0737 -7.19284 -19.3768 -38.4687 -7.19284 
-12.1935 -40.2301 -7.19284 -5.01017 -41.0587 -7.19284 2.17313 -41.0192 -7.19284 
9.35644 -39.6454 -7.19284 16.5397 -37.5665 -7.19284 23.7231 -34.8638 -7.19284 
-27.9856 -34.0068 -7.19284 -33.7434 -28.5899 -7.19284 25.5892 -34.0068 -7.19284 
30.9064 -31.366 -7.19284 -35.1749 -26.8235 -7.19284 37.1376 -26.8235 -7.19284 
38.0897 -25.9879 -7.19284 -39.8014 -19.6402 -7.19284 -40.9267 -17.572 -7.19284 
43.3946 -19.6402 -7.19284 45.273 -16.2944 -7.19284 -43.5505 -12.4569 -7.19284 
47.2061 -12.4569 -7.19284 -46.3752 -5.27358 -7.19284 49.3871 -5.27358 -7.19284 
-47.5596 1.90972 -7.19284 -48.11 1.90972 -2.20627 49.5823 1.90972 -7.19284 
-47.0367 9.09303 -7.19284 -48.11 9.09303 -0.393213 48.3806 9.09303 -7.19284 
-44.2491 16.2763 -7.19284 -40.9267 21.8566 -7.19284 45.4024 16.2763 -7.19284 
45.273 16.4801 -7.19284 -39.794 23.4596 -7.19284 -40.9267 23.4596 -3.01407 
-33.7434 30.3936 -7.19284 40.0287 23.4596 -7.19284 38.0897 25.4479 -7.19284 
-33.4422 30.6429 -7.19284 -33.7434 30.6429 -6.48074 -26.5601 35.3067 -7.19284 
23.7231 35.3521 -7.19284 31.7424 30.6429 -7.19284 30.9064 31.2308 -7.19284 
-19.8168 37.8263 -7.19284 -19.3768 37.9707 -7.19284 -12.1935 39.1924 -7.19284 
-5.01017 40.0339 -7.19284 2.17313 40.2741 -7.19284 9.35644 39.7032 -7.19284 
17.4443 37.8263 -7.19284 16.5397 38.1538 -7.19284 -26.5601 -34.6373 -0.00953543 
-19.3768 -38.2475 -0.00953543 -12.1935 -40.2623 -0.00953543 -5.01017 -41.175 -0.00953543 
2.17313 -40.9626 -0.00953543 9.35644 -39.4429 -0.00953543 16.5397 -37.0976 -0.00953543 
23.7231 -34.3697 -0.00953543 -27.4768 -34.0068 -0.00953543 -33.7434 -28.6242 -0.00953543 
-26.5601 -34.0068 1.88633 24.4847 -34.0068 -0.00953543 23.7231 -34.0068 0.912405 
30.9064 -30.4528 -0.00953543 -35.3109 -26.8235 -0.00953543 -33.7434 -26.8235 5.42159 
36.2638 -26.8235 -0.00953543 38.0897 -25.3251 -0.00953543 -40.6587 -19.6402 -0.00953543 
-40.9267 -19.194 -0.00953543 43.0299 -19.6402 -0.00953543 45.273 -16.0474 -0.00953543 
-44.5756 -12.4569 -0.00953543 47.1274 -12.4569 -0.00953543 45.273 -12.4569 4.87381 
-47.3947 -5.27358 -0.00953543 -48.11 0.0883786 -0.00953543 49.6804 -5.27358 -0.00953543 
-48.3503 1.90972 -0.00953543 -48.11 1.90972 1.2828 50.0373 1.90972 -0.00953543 
-48.1627 9.09303 -0.00953543 -48.11 9.24765 -0.00953543 -48.11 9.09303 0.244587 
48.9959 9.09303 -0.00953543 -45.5075 16.2763 -0.00953543 46.5651 16.2763 -0.00953543 
45.273 18.4437 -0.00953543 45.273 16.2763 4.32512 -41.6612 23.4596 -0.00953543 
-40.9267 24.5148 -0.00953543 -40.9267 23.4596 4.89393 41.8325 23.4596 -0.00953543 
38.0897 27.5542 -0.00953543 -35.861 30.6429 -0.00953543 -33.7434 32.575 -0.00953543 
-26.5601 37.1171 -0.00953543 23.7231 36.8861 -0.00953543 34.3259 30.6429 -0.00953543 
30.9064 33.0534 -0.00953543 -24.4864 37.8263 -0.00953543 -19.3768 39.4418 -0.00953543 
-19.3768 37.8263 5.32642 -12.1935 40.726 -0.00953543 -5.01017 41.3405 -0.00953543 
2.17313 41.3787 -0.00953543 9.35644 40.7257 -0.00953543 20.8961 37.8263 -0.00953543 
16.5397 39.2055 -0.00953543 16.5397 37.8263 4.54064 -19.3768 -35.9372 7.17377 
-12.1935 -38.0661 7.17377 -5.01017 -39.0017 7.17377 2.17313 -38.8105 7.17377 
9.35644 -37.2385 7.17377 16.5397 -34.7419 7.17377 -23.3145 -34.0068 7.17377 
-26.5601 -32.2509 7.17377 -19.3768 -34.0068 10.6016 -12.1935 -34.0068 13.8874 
9.35644 -34.0068 12.8832 18.1529 -34.0068 7.17377 16.5397 -34.0068 8.50228 
23.7231 -31.1804 7.17377 30.9064 -26.9354 7.17377 -33.1771 -26.8235 7.17377 
-33.7434 -26.2367 7.17377 23.7231 -26.8235 12.5707 31.0597 -26.8235 7.17377 
30.9064 -26.8235 7.31813 38.0897 -20.8224 7.17377 -39.0994 -19.6402 7.17377 
-40.9267 -16.678 7.17377 30.9064 -19.6402 13.5604 39.1955 -19.6402 7.17377 
38.0897 -19.6402 8.40509 -43.273 -12.4569 7.17377 -40.9267 -12.4569 12.0813 
44.1868 -12.4569 7.17377 38.0897 -12.4569 13.3109 45.273 -10.0156 7.17377 
-45.8995 -5.27358 7.17377 47.0789 -5.27358 7.17377 45.273 -5.27358 9.8007 
-47.0017 1.90972 7.17377 47.7333 1.90972 7.17377 45.273 1.90972 10.872 
-46.6082 9.09303 7.17377 46.7485 9.09303 7.17377 45.273 13.6703 7.17377 
45.273 9.09303 9.50094 -44.2759 16.2763 7.17377 -40.9267 22.8422 7.17377 
-40.9267 16.2763 14.0366 44.2932 16.2763 7.17377 -40.5711 23.4596 7.17377 
39.5142 23.4596 7.17377 38.0897 25.0543 7.17377 38.0897 23.4596 9.18981 
-34.0958 30.6429 7.17377 -33.7434 30.932 7.17377 -33.7434 30.6429 7.65842 
-26.5601 35.0556 7.17377 -26.5601 30.6429 12.8473 -19.3768 37.1798 7.17377 
16.5397 36.9309 7.17377 23.7231 34.559 7.17377 23.7231 30.6429 12.4455 
31.4326 30.6429 7.17377 30.9064 31.0195 7.17377 30.9064 30.6429 7.73246 
-16.0975 37.8263 7.17377 -12.1935 38.5074 7.17377 -12.1935 37.8263 8.17093 
-5.01017 39.1912 7.17377 -5.01017 37.8263 9.03191 2.17313 39.1355 7.17377 
2.17313 37.8263 9.02954 12.7377 37.8263 7.17377 9.35644 38.5562 7.17377 
9.35644 37.8263 8.2722 -5.01017 -34.7484 14.3571 2.17313 -34.5654 14.3571 
-26.5601 -27.8161 14.3571 -19.3768 -31.3367 14.3571 -9.98819 -34.0068 14.3571 
-12.1935 -33.6028 14.3571 -5.01017 -34.0068 15.1006 4.86143 -34.0068 14.3571 
2.17313 -34.0068 14.951 9.35644 -32.7795 14.3571 16.5397 -29.3289 14.3571 
-27.9192 -26.8235 14.3571 -33.7434 -21.2975 14.3571 -26.5601 -26.8235 15.3811 
-19.3768 -26.8235 18.3157 -12.1935 -26.8235 19.4467 -5.01017 -26.8235 19.8661 
2.17313 -26.8235 19.8297 9.35644 -26.8235 18.498 20.6529 -26.8235 14.3571 
16.5397 -26.8235 16.1487 23.7231 -23.9904 14.3571 -35.0871 -19.6402 14.3571 
-33.7434 -19.6402 15.6876 -26.5601 -19.6402 20.255 9.35644 -19.6402 20.5218 
[...]
POINT_DATA 514
SCALARS ImageScalars float
LOOKUP_TABLE default
0 0 0 0 0 0 0 0 0 
0 0 0 0 0 0 0 0 0 
0 0 0 0 0 0 0 0 0 
0 0 0 0 0 0 0 0 0 
0 0 0 0 0 0 0 0 0 
0 0 0 0 0 0 0 0 0 
0 0 0 0 0 0 0 0 0 
0 0 0 0 0 0 0 0 0 
0 0 0 0 0 0 0 0 0 
0 0 0 0 0 0 0 0 0 
0 0 0 0 0 0 0 0 0 
0 0 0 0 0 0 0 0 0 
0 0 0 0 0 0 0 0 0 
0 0 0 0 0 0 0 0 0 
0 0 0 0 0 0 0 0 0 
0 0 0 0 0 0 0 0 0 
0 0 0 0 0 0 0 0 0 
0 0 0 0 0 0 0 0 0 
0 0 0 0 0 0 0 0 0 
0 0 0 0 0 0 0 0 0 
0 0 0 0 0 0 0 0 0 
0 0 0 0 0 0 0 0 0 
0 0 0 0 0 0 0 0 0 
0 0 0 0 0 0 0 0 0 
0 0 0 0 0 0 0 0 0 
0 0 0 0 0 0 0 0 0 
0 0 0 0 0 0 0 0 0 
0 0 0 0 0 0 0 0 0 
0 0 0 0 0 0 0 0 0 
0 0 0 0 0 0 0 0 0 
0 0 0 0 0 0 0 0 0 
0 0 0 0 0 0 0 0 0 
0 0 0 0 0 0 0 0 0 
0 0 0 0 0 0 0 0 0 
0 0 0 0 0 0 0 0 0 
0 0 0 0 0 0 0 0 0 
0 0 0 0 0 0 0 0 0 
0 0 0 0 0 0 0 0 0 
0 0 0 0 0 0 0 0 0 
0 0 0 0 0 0 0 0 0 
0 0 0 0 0 0 0 0 0 
0 0 0 0 0 0 0 0 0 
0 0 0 0 0 0 0 0 0 
0 0 0 0 0 0 0 0 0 
0 0 0 0 0 0 0 0 0 
0 0 0 0 0 0 0 0 0 
0 0 0 0 0 0 0 0 0 
0 0 0 0 0 0 0 0 0 
0 0 0 0 0 0 0 0 0 
0 0 0 0 0 0 0 0 0 
0 0 0 0 0 0 0 0 0 
0 0 0 0 0 0 0 0 0 
0 0 0 0 0 0 0 0 0 
0 0 0 0 0 0 0 0 0 
0 0 0 0 0 0 0 0 0 
0 0 0 0 0 0 0 0 0 
0 0 0 0 0 0 0 0 0 
0 
NORMALS Normals float
0.276534 0.69019 0.668705 0.0952046 0.592382 0.800012 -0.014155 0.551926 0.833773 
-0.089537 0.536368 0.839221 -0.159571 0.561922 0.811653 -0.229584 0.676918 0.699337 
0.413709 0.396689 0.819441 0.164006 0.281328 0.945493 0.0324367 0.215245 0.976021 
-0.0547587 0.227483 0.972241 -0.104156 0.153044 0.982715 -0.110181 0.139727 0.984041 
-0.0952606 0.228157 0.968953 -0.209153 0.406011 0.889612 -0.388018 0.57578 0.719666 
0.604523 0.321942 0.728633 0.289463 0.147881 0.945697 0.106341 0.0567906 0.992707 
0.0275354 0.0177478 0.999463 -0.0867081 0.0164811 0.996097 -0.183999 -0.013497 0.982834 
-0.0951198 -0.0852688 0.991807 0.0334976 0.0268595 0.999078 -0.00081186 0.153392 0.988165 
-0.199779 0.295617 0.934184 -0.557359 0.45994 0.691236 0.410473 0.218705 0.885257 
0.147188 0.0735652 0.986369 0.0344927 0.0093144 0.999362 -0.00655887 -0.0661022 0.997791 
-0.0816402 -0.106646 0.99094 -0.218835 -0.0553853 0.974189 -0.0532993 -0.00823679 0.998545 
0.145997 0.0541913 0.9878 0.0765689 0.105223 0.991497 -0.10282 0.138859 0.98496 
-0.396483 0.201609 0.895631 0.649963 0.189427 0.73598 0.316512 0.0920775 0.944109 
0.10511 0.0544556 0.992968 -0.0361991 0.0190235 0.999164 -0.0881105 0.0324042 0.995583 
-0.0752375 -0.0073449 0.997139 -0.0747762 0.0229667 0.996936 0.0131862 0.223942 0.974513 
0.138653 0.150093 0.978901 0.0811707 0.0872117 0.992877 -0.0929959 0.0852927 0.992006 
-0.345755 0.0702728 0.93569 -0.723313 0.123396 0.679405 0.601291 -0.00932802 0.798975 
0.275192 -0.0382875 0.960627 0.0848634 -0.0534073 0.99496 0.013165 -0.0536504 0.998473 
-0.0265383 0.0241906 0.999355 -0.0989039 0.121175 0.987692 0.00761317 0.068211 0.997642 
0.0614187 0.0320348 0.997598 0.0214146 0.0125853 0.999691 0.015369 -0.0347768 0.999277 
-0.113995 -0.0546764 0.991976 -0.35428 -0.068733 0.93261 -0.70834 -0.0844497 0.700802 
0.589815 -0.201747 0.781931 0.283929 -0.176023 0.94255 0.0881614 -0.158208 0.983462 
0.0393972 -0.145947 0.988508 0.0828659 -0.161503 0.983387 -0.0281973 -0.116651 0.992773 
-0.152573 -0.0802572 0.985028 -0.0363986 -0.170325 0.984716 0.0658122 -0.157142 0.985381 
0.0119448 -0.158658 0.987261 -0.135339 -0.178757 0.97454 -0.371707 -0.24021 0.896735 
0.322831 -0.312872 0.893247 0.113751 -0.237932 0.964598 0.0141774 -0.188626 0.981947 
-0.00262335 -0.214357 0.976752 -0.0141588 -0.299738 0.953916 -0.0433093 -0.189786 0.98087 
-0.013263 -0.102203 0.994675 0.0258829 -0.157478 0.987183 -0.0144229 -0.239362 0.970823 
-0.203389 -0.329871 0.921856 -0.456339 -0.415731 0.786717 0.228132 -0.356813 0.905892 
0.0602436 -0.265426 0.962247 -0.0340234 -0.2523 0.967051 0.00147436 -0.245486 0.969399 
0.0506571 -0.201854 0.978105 -0.00452757 -0.147924 0.988988 -0.0804984 -0.219601 0.972263 
-0.171654 -0.362667 0.915974 -0.308359 -0.481911 0.820169 0.125154 -0.495854 0.85934 
0.00861679 -0.424047 0.905599 0.0460935 -0.388942 0.920108 0.0479326 -0.369739 0.927898 
-0.0313476 -0.418521 0.907666 -0.183464 -0.435748 0.881172 0.28852 0.758438 0.584404 
0.125918 0.790588 0.599263 0.011075 0.754853 0.6558 -0.0877646 0.734954 0.672413 
-0.165186 0.697245 0.697541 -0.237475 0.704535 0.668757 0.385415 0.726984 0.568287 
0.504403 0.648024 0.570651 0.541928 0.794628 0.273643 -0.255325 0.704669 0.662005 
-0.315001 0.656258 0.685639 -0.379783 0.88715 0.262163 -0.405481 0.620556 0.671189 
0.644925 0.496376 0.581104 0.675462 0.414056 0.610172 0.758435 0.559356 0.33451 
-0.440456 0.598832 0.668878 -0.584428 0.51079 0.630505 0.672106 0.364626 0.644455 
-0.605501 0.479586 0.63511 0.677414 0.315198 0.664651 0.69928 0.259045 0.66626 
0.779402 0.360619 0.512335 -0.689897 0.297899 0.659771 -0.742111 0.167817 0.648929 
-0.832507 0.339057 0.438146 0.700568 0.204725 0.683588 -0.744735 0.125261 0.6555 
0.710532 0.00731869 0.703627 -0.730859 -0.083257 0.677431 -0.720326 -0.145198 0.678268 
0.644582 -0.209408 0.735297 0.62732 -0.281371 0.726154 -0.665575 -0.266007 0.697316 
-0.764049 -0.27322 0.584449 0.569324 -0.365542 0.736376 0.699336 -0.394147 0.596304 
0.427198 -0.45061 0.78387 -0.503604 -0.429832 0.749418 -0.475746 -0.455413 0.752506 
-0.820665 -0.465912 0.33081 0.405232 -0.453151 0.794003 0.451634 -0.476573 0.754258 
0.296099 -0.482521 0.824317 -0.251784 -0.470142 0.845914 -0.327415 -0.491196 0.807172 
-0.316818 -0.493186 0.810182 -0.607441 -0.626465 0.488423 0.18426 -0.520225 0.833915 
0.362705 -0.609671 0.704803 0.13783 -0.528574 0.837623 0.0158667 -0.464011 0.885688 
0.0472633 -0.438581 0.897448 0.0364224 -0.477107 0.87809 -0.0429047 -0.530619 0.846524 
-0.224247 -0.475857 0.850455 -0.189283 -0.496583 0.847099 -0.330748 -0.590325 0.73629 
-0.516579 -0.743837 0.424089 0.235774 -0.880603 0.411034 0.125712 -0.830366 0.542853 
0.0594757 -0.785737 0.615695 -0.00387997 -0.792971 0.609247 -0.113044 -0.836725 0.535829 
-0.274454 -0.889143 0.366196 0.539601 0.830708 0.136951 0.315911 0.936438 0.152593 
0.171425 0.970193 0.171284 0.0533085 0.980661 0.188314 -0.0953254 0.979672 0.17651 
-0.230282 0.958325 0.169065 -0.310258 0.941018 0.135004 -0.378164 0.916055 0.133546 
0.581259 0.800916 0.143775 0.757278 0.629656 0.173389 -0.404147 0.905471 0.129569 
-0.506548 0.854057 0.118307 0.786268 0.58981 0.184135 -0.661307 0.738059 0.133948 
-0.687786 0.712271 0.140071 0.836364 0.491712 0.242312 0.845898 0.469585 0.252877 
-0.822908 0.541557 0.171868 -0.874097 0.450839 0.180825 0.868703 0.40591 0.283886 
-0.912816 0.360812 0.191262 0.922882 0.251598 0.291524 -0.958687 0.162193 0.233695 
0.958934 0.0460309 0.27987 0.997058 0.051459 0.0568175 -0.965682 -0.0653309 0.251377 
0.925162 -0.215623 0.312381 0.981917 -0.188409 -0.0184801 -0.927751 -0.256045 0.27151 
0.847688 -0.415364 0.329997 0.780623 -0.516488 0.351947 -0.825294 -0.465408 0.31982 
-0.822521 -0.469848 0.320471 0.750985 -0.546365 0.370819 0.821832 -0.544162 0.168763 
0.605494 -0.691245 0.394407 -0.681843 -0.637591 0.358564 -0.641113 -0.672075 0.370527 
0.598169 -0.697063 0.395344 0.612184 -0.705957 0.356169 0.409847 -0.80732 0.42457 
-0.395242 -0.828826 0.396019 -0.537917 -0.75115 0.382646 -0.52494 -0.759853 0.383486 
0.246343 -0.882912 0.399726 0.235653 -0.88605 0.399229 0.140536 -0.898245 0.416421 
0.0735191 -0.900008 0.429628 -0.0237005 -0.915963 0.400562 -0.139362 -0.916996 0.373759 
-0.292139 -0.894834 0.337532 -0.27664 -0.901045 0.334047 0.519806 0.838382 -0.164065 
0.339961 0.926853 -0.159281 0.188417 0.972195 -0.139055 0.0469164 0.990042 -0.132725 
-0.111836 0.98355 -0.141849 -0.252504 0.955052 -0.155297 -0.326741 0.927856 -0.179787 
-0.39352 0.89461 -0.211694 0.543748 0.823799 -0.160291 0.729712 0.674187 -0.113978 
0.51677 0.828837 -0.214428 -0.402732 0.889693 -0.215065 -0.398742 0.88506 -0.240155 
-0.500171 0.830044 -0.246689 0.761924 0.64021 -0.098001 0.70429 0.66385 -0.251553 
-0.620571 0.743773 -0.248382 -0.666897 0.703259 -0.246323 0.843365 0.536056 -0.0371451 
0.848705 0.527692 -0.0352173 -0.790703 0.574566 -0.211336 -0.858945 0.477128 -0.185911 
0.906223 0.422453 -0.0171036 -0.902779 0.395799 -0.168325 -0.828713 0.409674 -0.381317 
0.96924 0.244083 -0.0315649 0.994301 0.100259 -0.0362445 -0.969789 0.196955 -0.14394 
0.99794 0.0517772 -0.0378723 0.995129 0.0509539 -0.0843946 -0.992392 -0.0459318 -0.114229 
0.981791 -0.186565 -0.0357789 0.980969 -0.190983 -0.0349902 0.981478 -0.186126 -0.045359 
-0.968856 -0.225599 -0.102095 0.919318 -0.393516 0.000671037 -0.897 -0.437267 -0.0647107 
-0.86868 -0.491775 -0.0596003 -0.862959 -0.427641 -0.26912 0.844959 -0.533366 0.0395561 
0.830899 -0.555094 0.0384309 0.830007 -0.532269 -0.166668 -0.78003 -0.624648 -0.0369831 
-0.694955 -0.718761 -0.0204968 0.680672 -0.732005 0.0292127 0.625 -0.780393 0.0190433 
0.412727 -0.910541 -0.0239062 -0.377658 -0.924739 -0.047243 -0.601844 -0.798439 -0.0166879 
-0.536994 -0.843463 -0.0143866 0.359121 -0.932708 -0.032969 0.236993 -0.970401 -0.0464277 
0.225585 -0.910823 -0.345705 0.125471 -0.991225 -0.0415876 0.0460359 -0.997569 -0.0523222 
-0.0437161 -0.996454 -0.0718864 -0.144686 -0.986926 -0.0710156 -0.325805 -0.943662 -0.0579094 
-0.254568 -0.964309 -0.0728188 -0.250997 -0.922007 -0.294794 0.341781 0.858509 -0.382294 
0.191473 0.901475 -0.388177 0.0482569 0.922041 -0.384073 -0.112449 0.916771 -0.383256 
-0.254159 0.89221 -0.373314 -0.35684 0.848572 -0.390629 0.428909 0.825087 -0.367788 
0.504242 0.786901 -0.355705 0.32763 0.808026 -0.489645 0.178078 0.750123 -0.63687 
-0.246162 0.771634 -0.586503 -0.373109 0.836989 -0.400299 -0.359513 0.825131 -0.435786 
-0.425977 0.779073 -0.459988 -0.513222 0.706607 -0.487144 0.676665 0.671138 -0.302817 
0.690488 0.659303 -0.297567 -0.415562 0.579752 -0.700854 -0.515574 0.704452 -0.487782 
-0.513334 0.703152 -0.492001 -0.61934 0.596104 -0.510958 0.787755 0.547501 -0.282285 
0.829051 0.485131 -0.278069 -0.399062 0.443432 -0.802569 -0.643192 0.57345 -0.507404 
-0.61013 0.567909 -0.552468 0.870314 0.405148 -0.280016 0.798566 0.376595 -0.46954 
-0.76684 0.412963 -0.491343 -0.510222 0.3796 -0.771737 -0.808326 0.344735 -0.477249 
0.921981 0.231013 -0.310779 -0.858964 0.208071 -0.467854 -0.794009 0.215551 -0.568408 
0.950528 0.0458325 -0.307238 -0.895028 -0.0224149 -0.445447 -0.803525 -0.010073 -0.595186 
0.936167 -0.170905 -0.307219 -0.881097 -0.204259 -0.426553 -0.845085 -0.336257 -0.415648 
-0.83279 -0.19671 -0.517461 0.890818 -0.359406 -0.277976 0.817581 -0.510777 -0.265834 
0.741962 -0.347043 -0.573632 -0.811869 -0.41214 -0.413533 0.80566 -0.52776 -0.269037 
-0.708133 -0.589368 -0.388835 -0.675447 -0.626656 -0.388682 -0.663399 -0.579124 -0.473833 
0.578108 -0.751873 -0.316981 0.568077 -0.758624 -0.319027 0.56324 -0.752916 -0.340409 
0.341929 -0.844921 -0.41133 0.264003 -0.700679 -0.662836 0.210298 -0.864886 -0.455793 
-0.237622 -0.86733 -0.43735 -0.340633 -0.834313 -0.433463 -0.290986 -0.678373 -0.674638 
-0.514141 -0.764269 -0.389297 -0.502212 -0.772082 -0.389451 -0.500211 -0.761098 -0.412938 
0.174056 -0.870769 -0.459854 0.126136 -0.873211 -0.470736 0.121158 -0.846468 -0.518471 
0.0415569 -0.873308 -0.485393 0.0390866 -0.815517 -0.577412 -0.0419332 -0.880463 -0.472257 
-0.0334186 -0.832931 -0.552367 -0.186676 -0.876009 -0.444703 -0.138045 -0.877926 -0.458465 
-0.130983 -0.85192 -0.507025 0.0502622 0.731554 -0.679928 -0.0968149 0.74451 -0.660554 
0.43956 0.669394 -0.598915 0.281744 0.714228 -0.640701 0.137813 0.733895 -0.665136 
0.173101 0.731106 -0.65994 0.0483658 0.703338 -0.709208 -0.150731 0.737792 -0.657985 
-0.0928908 0.724325 -0.683172 -0.243438 0.697208 -0.674269 -0.352662 0.572702 -0.740029 
0.47319 0.651989 -0.592453 0.623862 0.536655 -0.568153 0.427846 0.640406 -0.637831 
0.212779 0.571668 -0.792415 0.0905875 0.489466 -0.867304 0.0229336 0.447242 -0.894119 
-0.0852349 0.418679 -0.904126 -0.231015 0.397719 -0.887948 -0.380976 0.507122 -0.773101 
-0.342343 0.440034 -0.830163 -0.362217 0.441807 -0.820735 0.650789 0.505963 -0.566105 
0.605455 0.490479 -0.626781 0.351624 0.394417 -0.848997 -0.28024 0.11843 -0.952596 
-0.286375 0.120006 -0.950572 -0.361133 0.396079 -0.844218 -0.279694 0.293318 -0.914186 
-0.362894 0.400829 -0.841216 0.734033 0.352181 -0.580659 0.760073 0.274619 -0.588959 
0.515659 0.284318 -0.808245 -0.334334 0.0138353 -0.942353 -0.157099 0.0934088 -0.983155 
-0.0994015 0.223966 -0.969515 -0.432759 0.354616 -0.828835 -0.275745 0.307326 -0.910778 
-0.480801 0.324902 -0.814413 0.771829 0.195593 -0.604999 0.732531 0.189157 -0.653926 
0.442182 0.126404 -0.887974 -0.19921 0.205637 -0.958138 -0.0801498 0.289004 -0.953967 
-0.0695096 0.22693 -0.971427 -0.219785 0.223991 -0.949485 -0.554756 0.228698 -0.799964 
-0.449161 0.231464 -0.862948 0.785127 0.0512569 -0.61721 0.696258 0.048938 -0.716121 
-0.158061 0.14373 -0.976913 -0.263714 0.0951592 -0.959896 -0.638936 0.0139724 -0.769133 
-0.48768 0.0395341 -0.872127 0.781351 -0.141295 -0.607887 0.73592 -0.329385 -0.591547 
0.695665 -0.134768 -0.705612 0.361851 -0.116113 -0.924977 -0.312972 -0.109808 -0.943393 
-0.639058 -0.175156 -0.748949 -0.531284 -0.16322 -0.831322 0.727643 -0.345097 -0.592826 
0.393895 -0.294336 -0.870754 0.0640888 -0.272857 -0.959917 -0.118788 -0.312063 -0.942606 
-0.0230735 -0.334892 -0.941974 0.190359 -0.367784 -0.910219 -0.118164 -0.268948 -0.955879 
-0.1471 -0.291129 -0.945307 -0.32524 -0.304258 -0.895347 -0.573028 -0.341484 -0.745002 
-0.572663 -0.342262 -0.744925 -0.572361 -0.341302 -0.745597 0.533202 -0.527819 -0.661138 
0.456133 -0.575061 -0.679152 0.439762 -0.521316 -0.731327 0.216379 -0.632954 -0.743336 
0.103891 -0.472286 -0.875301 -0.0619606 -0.394829 -0.916663 -0.006786 -0.323427 -0.946229 
0.12323 -0.351171 -0.928167 0.077479 -0.420301 -0.904071 -0.0589451 -0.390706 -0.918626 
-0.127556 -0.379394 -0.916401 -0.246097 -0.574863 -0.780365 -0.19898 -0.426617 -0.882273 
-0.407243 -0.509555 -0.757962 -0.380367 -0.527648 -0.759545 -0.367365 -0.501317 -0.783406 
0.110966 -0.5946 -0.796328 0.0797504 -0.582688 -0.808774 0.0722245 -0.569106 -0.819086 
0.0152018 -0.485984 -0.873835 0.0145422 -0.482658 -0.875688 0.0747248 -0.512421 -0.855477 
0.0801474 -0.484755 -0.87097 0.0151477 -0.594922 -0.803641 0.0228854 -0.537842 -0.842735 
-0.0730016 -0.596456 -0.799319 -0.0680792 -0.558087 -0.826985 -0.158831 -0.587452 -0.793519 
-0.145064 -0.587441 -0.796159 -0.14253 -0.577877 -0.803582 0.150057 0.390072 -0.908475 
0.0440528 0.371949 -0.927207 -0.0110503 0.340349 -0.940234 -0.123217 0.255828 -0.958838 
0.216504 0.363747 -0.905988 0.318649 0.294886 -0.900836 0.141627 0.351351 -0.92547 
0.0255262 0.318608 -0.947543 -0.0330007 0.274099 -0.961135 -0.193059 0.171282 -0.966121 
-0.138144 0.202096 -0.969574 0.366726 0.233686 -0.900502 0.297111 0.215388 -0.930233 
0.119536 0.179313 -0.976503 -0.00465305 0.18089 -0.983492 -0.103467 0.0984561 -0.989748 
-0.298076 0.016558 -0.954398 -0.241242 0.0197517 -0.970264 0.403822 0.112172 -0.907934 
0.375824 0.00505226 -0.926677 0.251117 0.0522902 -0.966543 0.117662 0.0217201 -0.992816 
-0.054922 0.0181961 -0.998325 -0.198578 -0.0114667 -0.980018 -0.209102 0.113754 -0.971255 
-0.219768 0.0140817 -0.97545 -0.153404 0.20648 -0.96635 -0.130012 0.225657 -0.965493 
0.374649 0.00104051 -0.927166 0.373087 -0.00298455 -0.927791 0.373526 0.000921779 -0.927619 
0.194246 -0.0506077 -0.979647 0.0876897 -0.140592 -0.986177 -0.037328 -0.188234 -0.981415 
-0.106462 -0.0452849 -0.993285 -0.0367539 0.148024 -0.988301 -0.0579488 0.203718 -0.977313 
-0.155872 0.157633 -0.975118 -0.147363 0.191163 -0.970433 -0.165531 -0.0351611 -0.985578 
0.29589 -0.120076 -0.947645 0.0655881 -0.267317 -0.961374 0.111918 -0.144627 -0.983136 
-0.0906252 -0.286238 -0.953863 -0.0311628 -0.242399 -0.969676 0.0242968 -0.346981 -0.937557 
0.0430531 -0.346983 -0.936883 0.182775 -0.327862 -0.926876 0.147169 -0.217286 -0.96495 
0.0269507 -0.0397997 -0.998844 -0.140458 -0.110471 -0.983904 -0.13604 -0.194048 -0.971513 
-0.153543 -0.119729 -0.980862 -0.175054 -0.0913465 -0.980312 -0.165272 -0.101815 -0.980979 
-0.166357 -0.09033 -0.981919 0.133575 -0.366497 -0.920781 0.0745862 -0.376806 -0.923284 
0.0691289 -0.354133 -0.932637 -0.128861 -0.314786 -0.940375 -0.126259 -0.323904 -0.937627 
-0.130095 -0.320791 -0.938173 
