# vtk DataFile Version 4.2
vtk output
ASCII
DATASET POLYDATA
POINTS 558 float
-11.3158 -35.4893 -12.24 -4.34816 -35.4893 -12.8391 2.61946 -35.4893 -13.5022 
9.58709 -35.4893 -13.6597 16.5547 -35.4893 -13.1216 -25.251 -28.5217 -12.3459 
-18.2834 -28.5217 -13.7448 -11.3158 -28.5217 -14.2552 -4.34816 -28.5217 -15.316 
2.61946 -28.5217 -15.8193 9.58709 -28.5217 -16.3274 16.5547 -28.5217 -15.9117 
23.5223 -28.5217 -15.1555 30.49 -28.5217 -12.4092 -32.2187 -21.5541 -13.2033 
-25.251 -21.5541 -14.4105 -18.2834 -21.5541 -14.5837 -11.3158 -21.5541 -14.8909 
-4.34816 -21.5541 -15.8244 2.61946 -21.5541 -16.1514 9.58709 -21.5541 -16.6194 
16.5547 -21.5541 -16.5867 23.5223 -21.5541 -16.523 30.49 -21.5541 -14.9317 
37.4576 -21.5541 -11.9691 -39.1863 -14.5865 -12.86 -32.2187 -14.5865 -14.6637 
-25.251 -14.5865 -14.6122 -18.2834 -14.5865 -14.2935 -11.3158 -14.5865 -14.2283 
-4.34816 -14.5865 -15.8685 2.61946 -14.5865 -15.7824 9.58709 -14.5865 -15.3854 
16.5547 -14.5865 -16.0978 23.5223 -14.5865 -16.2737 30.49 -14.5865 -15.5293 
37.4576 -14.5865 -14.0002 -39.1863 -7.61883 -12.7998 -32.2187 -7.61883 -14.2367 
-25.251 -7.61883 -14.6473 -18.2834 -7.61883 -13.4478 -11.3158 -7.61883 -13.4476 
-4.34816 -7.61883 -16.767 2.61946 -7.61883 -16.6632 9.58709 -7.61883 -15.7557 
16.5547 -7.61883 -15.3421 23.5223 -7.61883 -16.0113 30.49 -7.61883 -16.0476 
37.4576 -7.61883 -15.4621 44.4252 -7.61883 -13.3497 -39.1863 -0.651204 -13.3606 
-32.2187 -0.651204 -14.5955 -25.251 -0.651204 -14.5124 -18.2834 -0.651204 -13.9149 
-11.3158 -0.651204 -15.6023 -4.34816 -0.651204 -14.9751 2.61946 -0.651204 -15.0689 
9.58709 -0.651204 -18.0742 16.5547 -0.651204 -14.8159 23.5223 -0.651204 -15.8677 
30.49 -0.651204 -16.4228 37.4576 -0.651204 -16.3367 44.4252 -0.651204 -14.4685 
-39.1863 6.31642 -14.0014 -32.2187 6.31642 -15.5932 -25.251 6.31642 -15.8737 
-18.2834 6.31642 -15.5255 -11.3158 6.31642 -16.5089 -4.34816 6.31642 -17.4137 
2.61946 6.31642 -16.7718 9.58709 6.31642 -15.71 16.5547 6.31642 -15.024 
23.5223 6.31642 -16.017 30.49 6.31642 -16.4817 37.4576 6.31642 -16.6257 
44.4252 6.31642 -14.5427 51.3928 6.31642 -11.6866 -39.1863 13.284 -14.3875 
-32.2187 13.284 -15.9941 -25.251 13.284 -16.4193 -18.2834 13.284 -15.7163 
-11.3158 13.284 -14.5047 -4.34816 13.284 -14.6698 2.61946 13.284 -15.7179 
9.58709 13.284 -15.7442 16.5547 13.284 -15.8064 23.5223 13.284 -16.2829 
30.49 13.284 -16.2386 37.4576 13.284 -15.6155 44.4252 13.284 -13.0883 
-39.1863 20.2517 -14.1025 -32.2187 20.2517 -16.4132 -25.251 20.2517 -16.1499 
-18.2834 20.2517 -15.4766 -11.3158 20.2517 -14.5374 -4.34816 20.2517 -14.3875 
2.61946 20.2517 -15.4857 9.58709 20.2517 -16.1512 16.5547 20.2517 -16.4229 
23.5223 20.2517 -16.6961 30.49 20.2517 -15.4593 37.4576 20.2517 -14.1884 
-32.2187 27.2193 -14.2622 -25.251 27.2193 -15.0136 -18.2834 27.2193 -14.6176 
-11.3158 27.2193 -14.451 -4.34816 27.2193 -14.8286 2.61946 27.2193 -15.288 
9.58709 27.2193 -15.8792 16.5547 27.2193 -15.8086 23.5223 27.2193 -14.8175 
30.49 27.2193 -13.5881 -25.251 34.1869 -12.0403 -18.2834 34.1869 -13.2219 
-11.3158 34.1869 -13.0741 -4.34816 34.1869 -13.9109 2.61946 34.1869 -13.9173 
9.58709 34.1869 -13.7186 16.5547 34.1869 -12.8818 -11.3158 -36.5856 -11.3716 
-4.34816 -37.2281 -11.3716 2.61946 -37.968 -11.3716 9.58709 -37.9468 -11.3716 
16.5547 -37.3528 -11.3716 -32.2187 -35.4893 -5.40496 -25.251 -30.5337 -11.3716 
-25.251 -35.4893 -8.19854 -15.0979 -35.4893 -11.3716 -18.2834 -33.8369 -11.3716 
-18.2834 -35.4893 -10.4128 21.8274 -35.4893 -11.3716 23.5223 -34.5772 -11.3716 
23.5223 -35.4893 -10.3322 30.49 -29.9174 -11.3716 -39.1863 -28.5217 -8.72201 
-30.9387 -28.5217 -11.3716 -32.2187 -27.7999 -11.3716 -32.2187 -28.5217 -11.1266 
32.0139 -28.5217 -11.3716 37.4576 -22.5542 -11.3716 37.4576 -28.5217 -5.08865 
-46.1539 -21.5541 -7.24919 -38.6654 -21.5541 -11.3716 -39.1863 -20.9804 -11.3716 
-39.1863 -21.5541 -11.208 38.5467 -21.5541 -11.3716 44.4252 -21.5541 -5.90651 
-42.1529 -14.5865 -11.3716 -46.1539 -14.5865 -8.56468 43.4892 -14.5865 -11.3716 
44.4252 -13.4315 -11.3716 44.4252 -14.5865 -10.8315 -42.738 -7.61883 -11.3716 
-46.1539 -7.61883 -9.81108 48.3596 -7.61883 -11.3716 51.3928 -7.61883 -8.83659 
-44.4548 -0.651204 -11.3716 -46.1539 -0.651204 -10.6401 49.4962 -0.651204 -11.3716 
51.3928 4.94435 -11.3716 51.3928 -0.651204 -9.56915 -45.2562 6.31642 -11.3716 
-46.1539 6.31642 -10.9022 51.7435 6.31642 -11.3716 51.3928 7.28788 -11.3716 
-45.2252 13.284 -11.3716 -46.1539 13.284 -10.754 47.7063 13.284 -11.3716 
44.4252 17.6346 -11.3716 51.3928 13.284 -7.58057 -43.6731 20.2517 -11.3716 
-46.1539 20.2517 -8.70767 -39.1863 27.1819 -11.3716 42.6413 20.2517 -11.3716 
37.4576 25.19 -11.3716 44.4252 20.2517 -9.74922 -39.1517 27.2193 -11.3716 
-39.1863 27.2193 -11.346 -32.2187 32.5091 -11.3716 23.5223 33.4571 -11.3716 
34.8832 27.2193 -11.3716 30.49 30.0877 -11.3716 37.4576 27.2193 -9.25219 
-28.0561 34.1869 -11.3716 -32.2187 34.1869 -9.62461 -25.251 35.3286 -11.3716 
-18.2834 36.9306 -11.3716 -11.3158 37.0934 -11.3716 -4.34816 38.2352 -11.3716 
2.61946 38.4289 -11.3716 9.58709 37.5292 -11.3716 21.8281 34.1869 -11.3716 
16.5547 35.8377 -11.3716 23.5223 34.1869 -10.4917 30.49 34.1869 -4.48594 
-18.2834 41.1545 -6.04743 -11.3158 41.1545 -7.68946 -4.34816 41.1545 -8.49834 
2.61946 41.1545 -8.01079 9.58709 41.1545 -5.19679 -32.2187 -36.1184 -4.40396 
-25.251 -38.5553 -4.40396 -18.2834 -40.4967 -4.40396 -11.3158 -41.6615 -4.40396 
-4.34816 -42.2267 -4.40396 2.61946 -42.4508 -4.40396 2.61946 -42.457 -3.85984 
9.58709 -41.9776 -4.40396 16.5547 -40.9491 -4.40396 23.5223 -38.6098 -4.40396 
-33.382 -35.4893 -4.40396 -39.1863 -31.7779 -4.40396 28.9268 -35.4893 -4.40396 
30.49 -34.47 -4.40396 37.4576 -28.9608 -4.40396 -42.7604 -28.5217 -4.40396 
-46.1539 -24.5596 -4.40396 37.9514 -28.5217 -4.40396 44.4252 -22.5872 -4.40396 
-48.1495 -21.5541 -4.40396 45.4222 -21.5541 -4.40396 -50.3439 -14.5865 -4.40396 
51.1544 -14.5865 -4.40396 51.3928 -14.1787 -4.40396 51.3928 -14.5865 -1.68369 
-52.1582 -7.61883 -4.40396 54.1347 -7.61883 -4.40396 -52.8061 -0.651204 -4.40396 
-53.1215 -0.651204 -2.43784 55.1564 -0.651204 -4.40396 -52.3828 6.31642 -4.40396 
55.2544 6.31642 -4.40396 -51.2706 13.284 -4.40396 53.0141 13.284 -4.40396 
51.3928 16.3061 -4.40396 -48.7752 20.2517 -4.40396 -46.1539 24.6761 -4.40396 
48.7257 20.2517 -4.40396 44.4252 25.1012 -4.40396 -44.3434 27.2193 -4.40396 
-39.1863 32.4999 -4.40396 42.021 27.2193 -4.40396 37.4576 30.4044 -4.40396 
-37.0077 34.1869 -4.40396 -32.2187 37.3313 -4.40396 -25.251 40.4192 -4.40396 
16.5547 39.2263 -4.40396 23.5223 36.9544 -4.40396 30.5637 34.1869 -4.40396 
30.49 34.225 -4.40396 30.49 34.1869 -3.8272 -22.4111 41.1545 -4.40396 
-18.2834 42.1498 -4.40396 -11.3158 43.1075 -4.40396 -4.34816 43.3833 -4.40396 
2.61946 42.9467 -4.40396 10.553 41.1545 -4.40396 9.58709 41.4599 -4.40396 
9.58709 41.1545 -2.59523 2.61946 -42.5252 2.56366 -32.2187 -37.0662 2.56366 
-25.251 -39.8081 2.56366 -18.2834 -41.4088 2.56366 -11.3158 -41.912 2.56366 
1.36623 -42.457 2.56366 -4.34816 -42.1427 2.56366 3.62744 -42.457 2.56366 
2.61946 -42.457 2.76949 9.58709 -42.0536 2.56366 16.5547 -40.9007 2.56366 
23.5223 -38.2831 2.56366 -35.0202 -35.4893 2.56366 -39.1863 -32.7089 2.56366 
-32.2187 -35.4893 6.69497 28.3799 -35.4893 2.56366 23.5223 -35.4893 7.79246 
30.49 -34.1484 2.56366 37.4576 -29.1365 2.56366 -43.5767 -28.5217 2.56366 
-46.1539 -25.4121 2.56366 38.2037 -28.5217 2.56366 37.4576 -28.5217 3.90702 
44.4252 -23.2055 2.56366 -48.7244 -21.5541 2.56366 -46.1539 -21.5541 7.31738 
46.0782 -21.5541 2.56366 44.4252 -21.5541 5.90432 51.3928 -14.9717 2.56366 
-51.4894 -14.5865 2.56366 51.6589 -14.5865 2.56366 51.3928 -14.5865 3.09815 
-52.84 -7.61883 2.56366 -53.1215 -5.58221 2.56366 54.3858 -7.61883 2.56366 
51.3928 -7.61883 8.55275 -53.7647 -0.651204 2.56366 -53.1215 3.6778 2.56366 
-53.1215 -0.651204 3.81881 55.2617 -0.651204 2.56366 51.3928 -0.651204 9.08399 
-52.6902 6.31642 2.56366 54.919 6.31642 2.56366 51.3928 6.31642 8.04519 
-50.9241 13.284 2.56366 52.584 13.284 2.56366 51.3928 15.5285 2.56366 
51.3928 13.284 4.50904 -48.0062 20.2517 2.56366 -46.1539 23.151 2.56366 
-46.1539 20.2517 5.49042 48.516 20.2517 2.56366 44.4252 24.9391 2.56366 
44.4252 20.2517 8.52658 -43.2742 27.2193 2.56366 -39.1863 31.4376 2.56366 
-39.1863 27.2193 8.08592 30.49 33.7644 2.56366 41.8822 27.2193 2.56366 
37.4576 30.3722 2.56366 37.4576 27.2193 8.6035 -35.7287 34.1869 2.56366 
-32.2187 36.5843 2.56366 -32.2187 34.1869 6.73573 -25.251 39.7952 2.56366 
9.58709 40.0694 2.56366 16.5547 37.9857 2.56366 16.5547 34.1869 8.09851 
29.1816 34.1869 2.56366 23.5223 35.944 2.56366 23.5223 34.1869 5.9693 
-20.9158 41.1545 2.56366 -18.2834 41.8956 2.56366 -18.2834 41.1545 3.97906 
-11.3158 42.642 2.56366 -11.3158 41.1545 5.40628 -4.34816 42.5532 2.56366 
-4.34816 41.1545 5.16428 4.76964 41.1545 2.56366 2.61946 41.5887 2.56366 
2.61946 41.1545 3.31307 -25.251 -36.7188 9.53129 -18.2834 -38.1289 9.53129 
-11.3158 -38.6381 9.53129 -4.34816 -39.0409 9.53129 2.61946 -39.3648 9.53129 
9.58709 -39.0417 9.53129 16.5547 -37.5182 9.53129 -39.1863 -29.0358 9.53129 
-28.5739 -35.4893 9.53129 -32.2187 -33.6696 9.53129 -25.251 -35.4893 10.834 
-18.2834 -35.4893 11.9594 -11.3158 -35.4893 12.3326 -4.34816 -35.4893 12.6524 
2.61946 -35.4893 12.9635 9.58709 -35.4893 12.8214 21.1297 -35.4893 9.53129 
16.5547 -35.4893 11.4462 23.5223 -33.9731 9.53129 30.49 -29.7058 9.53129 
-39.6978 -28.5217 9.53129 -39.1863 -28.5217 9.97526 -32.2187 -28.5217 12.6704 
-25.251 -28.5217 15.0583 -18.2834 -28.5217 15.6205 -11.3158 -28.5217 15.7902 
-4.34816 -28.5217 15.712 2.61946 -28.5217 15.9943 9.58709 -28.5217 15.6033 
16.5547 -28.5217 14.4744 23.5223 -28.5217 13.0136 32.3549 -28.5217 9.53129 
30.49 -28.5217 10.6435 37.4576 -24.8032 9.53129 -43.8677 -21.5541 9.53129 
-46.1539 -18.0675 9.53129 -39.1863 -21.5541 12.655 -32.2187 -21.5541 14.9567 
-25.251 -21.5541 16.2596 -4.34816 -21.5541 16.3902 16.5547 -21.5541 15.5635 
23.5223 -21.5541 15.1641 30.49 -21.5541 14.5374 41.3967 -21.5541 9.53129 
[...]
POINT_DATA 558
SCALARS ImageScalars float
LOOKUP_TABLE default
0 0 0 0 0 0 0 0 0 
0 0 0 0 0 0 0 0 0 
0 0 0 0 0 0 0 0 0 
0 0 0 0 0 0 0 0 0 
0 0 0 0 0 0 0 0 0 
0 0 0 0 0 0 0 0 0 
0 0 0 0 0 0 0 0 0 
0 0 0 0 0 0 0 0 0 
0 0 0 0 0 0 0 0 0 
0 0 0 0 0 0 0 0 0 
0 0 0 0 0 0 0 0 0 
0 0 0 0 0 0 0 0 0 
0 0 0 0 0 0 0 0 0 
0 0 0 0 0 0 0 0 0 
0 0 0 0 0 0 0 0 0 
0 0 0 0 0 0 0 0 0 
0 0 0 0 0 0 0 0 0 
0 0 0 0 0 0 0 0 0 
0 0 0 0 0 0 0 0 0 
0 0 0 0 0 0 0 0 0 
0 0 0 0 0 0 0 0 0 
0 0 0 0 0 0 0 0 0 
0 0 0 0 0 0 0 0 0 
0 0 0 0 0 0 0 0 0 
0 0 0 0 0 0 0 0 0 
0 0 0 0 0 0 0 0 0 
0 0 0 0 0 0 0 0 0 
0 0 0 0 0 0 0 0 0 
0 0 0 0 0 0 0 0 0 
0 0 0 0 0 0 0 0 0 
0 0 0 0 0 0 0 0 0 
0 0 0 0 0 0 0 0 0 
0 0 0 0 0 0 0 0 0 
0 0 0 0 0 0 0 0 0 
0 0 0 0 0 0 0 0 0 
0 0 0 0 0 0 0 0 0 
0 0 0 0 0 0 0 0 0 
0 0 0 0 0 0 0 0 0 
0 0 0 0 0 0 0 0 0 
0 0 0 0 0 0 0 0 0 
0 0 0 0 0 0 0 0 0 
0 0 0 0 0 0 0 0 0 
0 0 0 0 0 0 0 0 0 
0 0 0 0 0 0 0 0 0 
0 0 0 0 0 0 0 0 0 
0 0 0 0 0 0 0 0 0 
0 0 0 0 0 0 0 0 0 
0 0 0 0 0 0 0 0 0 
0 0 0 0 0 0 0 0 0 
0 0 0 0 0 0 0 0 0 
0 0 0 0 0 0 0 0 0 
0 0 0 0 0 0 0 0 0 
0 0 0 0 0 0 0 0 0 
0 0 0 0 0 0 0 0 0 
0 0 0 0 0 0 0 0 0 
0 0 0 0 0 0 0 0 0 
0 0 0 0 0 0 0 0 0 
0 0 0 0 0 0 0 0 0 
0 0 0 0 0 0 0 0 0 
0 0 0 0 0 0 0 0 0 
0 0 0 0 0 0 0 0 0 
0 0 0 0 0 0 0 0 0 

NORMALS Normals float
-0.146217 -0.512687 -0.846033 -0.0825216 -0.536552 -0.839823 -0.0507389 -0.532667 -0.844803 
0.0252593 -0.565753 -0.824188 0.173578 -0.592396 -0.786726 -0.161989 -0.371116 -0.914348 
-0.126926 -0.26059 -0.95707 -0.109175 -0.17977 -0.977632 -0.110948 -0.180822 -0.977238 
-0.0690821 -0.155958 -0.985345 -0.0093754 -0.172673 -0.984935 0.0758795 -0.225438 -0.971298 
0.224828 -0.350313 -0.909249 0.461525 -0.476636 -0.748206 -0.206753 -0.214734 -0.954538 
-0.0913006 -0.14522 -0.985178 -0.0358164 -0.034846 -0.998751 -0.0885252 0.00297904 -0.996069 
-0.0904013 -0.039085 -0.995138 -0.0537547 0.00189571 -0.998552 -0.0327483 0.0721089 -0.996859 
0.00649909 -0.0105666 -0.999923 0.10781 -0.067347 -0.991888 0.303009 -0.19986 -0.931795 
0.441229 -0.402261 -0.802187 -0.354004 -0.0900716 -0.930896 -0.137866 -0.0716557 -0.987855 
0.0264 -0.0180782 -0.999488 0.0273936 0.0756177 -0.996761 -0.105125 0.097074 -0.98971 
-0.114832 -0.0637755 -0.991336 0.0345879 -0.0359318 -0.998756 -0.0231472 0.057105 -0.9981 
-0.0635541 0.0861433 -0.994254 0.0396403 0.0357806 -0.998573 0.152255 -0.0740983 -0.98556 
0.282666 -0.235468 -0.929868 -0.277119 -0.0334377 -0.960254 -0.125021 0.00409616 -0.992146 
0.0501236 0.00693943 -0.998719 0.0898188 0.0303897 -0.995494 -0.228538 -0.0616172 -0.971583 
-0.214104 0.0453768 -0.975756 0.0691375 0.00900002 -0.997567 0.0994003 -0.160183 -0.98207 
-0.0210665 0.0939836 -0.995351 -0.0482157 0.0291771 -0.998411 0.0370668 -0.0633259 -0.997304 
0.188636 -0.15857 -0.96916 0.371344 -0.21468 -0.903336 -0.244727 -0.0811573 -0.96619 
-0.0799339 -0.0924383 -0.992505 0.0469377 -0.0891213 -0.994914 -0.0488317 -0.148702 -0.987676 
-0.0923661 -0.229223 -0.968982 0.0358745 -0.054969 -0.997843 -0.218417 0.00219085 -0.975853 
0.115028 0.000762954 -0.993362 0.0995813 0.0227437 -0.994769 -0.115701 -0.000405695 -0.993284 
-0.0339858 -0.0310881 -0.998939 0.143676 -0.0777119 -0.986569 0.376721 -0.0786892 -0.922979 
-0.282007 -0.0692562 -0.956909 -0.131997 -0.100945 -0.986097 0.0064817 -0.134031 -0.990956 
-0.0386973 -0.122948 -0.991658 -0.140705 0.103069 -0.984672 -0.0176372 0.0299517 -0.999396 
0.120242 -0.00189035 -0.992743 0.124241 0.131502 -0.9835 -0.0272733 -0.0732158 -0.996943 
-0.0993546 -0.0296402 -0.994611 -0.0430166 0.0129895 -0.99899 0.143057 0.0466167 -0.988616 
0.331083 0.0929106 -0.939016 0.655551 0.0490617 -0.753555 -0.315138 -0.00580729 -0.949028 
-0.136638 -0.0539195 -0.989153 0.017904 -0.019943 -0.999641 0.140477 0.00259836 -0.990081 
0.0736553 0.128368 -0.988988 -0.0948432 0.219745 -0.970936 -0.0678769 0.0875264 -0.993847 
-0.0063502 -0.0314966 -0.999484 -0.038788 -0.0968638 -0.994542 -0.031013 -0.0474199 -0.998393 
0.0447733 0.0758501 -0.996113 0.221198 0.175269 -0.95935 0.401112 0.266355 -0.87645 
-0.397064 0.156213 -0.904399 -0.147132 0.128268 -0.980765 0.0630665 0.0930738 -0.99366 
0.117575 0.078595 -0.989949 0.0731883 0.00374842 -0.997311 -0.0696317 -0.0141606 -0.997472 
-0.121632 0.0306985 -0.9921 -0.0668508 -0.00889662 -0.997723 -0.0382898 -0.00284736 -0.999263 
0.0728851 0.10074 -0.99224 0.174148 0.173052 -0.969395 0.313402 0.314509 -0.896026 
-0.19342 0.352814 -0.915484 -0.027519 0.284606 -0.95825 0.0370814 0.161743 -0.986136 
-0.0150216 0.0940909 -0.99545 -0.0595113 0.0271297 -0.997859 -0.0757863 0.109949 -0.991044 
-0.0365807 0.160939 -0.986286 0.0761183 0.218955 -0.972761 0.146771 0.353947 -0.923677 
0.291978 0.468558 -0.833788 -0.196687 0.479957 -0.854959 -0.07067 0.402309 -0.912772 
-0.0428625 0.348614 -0.936286 -0.0549849 0.3412 -0.938381 0.0129406 0.360318 -0.93274 
0.0641757 0.474043 -0.87816 0.18602 0.5879 -0.787255 -0.136307 -0.578959 -0.803882 
-0.0752821 -0.632863 -0.770595 -0.0379685 -0.675462 -0.736416 0.0379298 -0.709737 -0.703445 
0.1748 -0.713327 -0.678682 -0.397908 -0.818311 -0.414774 -0.180496 -0.44156 -0.878889 
-0.247168 -0.697459 -0.67265 -0.183849 -0.531349 -0.826963 -0.201295 -0.47275 -0.857897 
-0.222289 -0.575238 -0.787203 0.331713 -0.657763 -0.67625 0.365731 -0.630887 -0.684268 
0.392383 -0.700351 -0.596275 0.481014 -0.540042 -0.690637 -0.513037 -0.554155 -0.655519 
-0.186517 -0.401228 -0.896787 -0.196575 -0.384561 -0.901926 -0.198389 -0.414626 -0.888103 
0.499816 -0.510401 -0.699768 0.466467 -0.436426 -0.769377 0.64592 -0.705013 -0.292821 
-0.72724 -0.379047 -0.572228 -0.327965 -0.239577 -0.913806 -0.339359 -0.228238 -0.912547 
-0.342544 -0.244715 -0.907071 0.468814 -0.424325 -0.774701 0.686328 -0.616918 -0.385182 
-0.454436 -0.100798 -0.885058 -0.657172 -0.146233 -0.739419 0.477927 -0.354542 -0.80367 
0.481021 -0.35194 -0.802967 0.518481 -0.386809 -0.762599 -0.385166 -0.0678743 -0.920348 
-0.54102 -0.127302 -0.831319 0.534912 -0.229503 -0.813141 0.755078 -0.236755 -0.611396 
-0.417624 -0.0738589 -0.905613 -0.504182 -0.0699158 -0.860762 0.607818 -0.119942 -0.784966 
0.669248 0.011766 -0.742946 0.741838 -0.118775 -0.659977 -0.493361 -0.021098 -0.869569 
-0.546331 -0.0092307 -0.837518 0.680417 0.0508343 -0.731059 0.669711 0.0930464 -0.73677 
-0.569525 0.0756689 -0.818483 -0.632483 0.102944 -0.767703 0.532675 0.333056 -0.77803 
0.511952 0.381677 -0.769563 0.806568 0.398898 -0.436266 -0.617358 0.244077 -0.74786 
-0.79322 0.336082 -0.50779 -0.532458 0.497557 -0.684781 0.522152 0.412901 -0.746237 
0.435109 0.549045 -0.713603 0.616498 0.483695 -0.621264 -0.531404 0.49873 -0.684746 
-0.53368 0.499988 -0.682054 -0.313054 0.615404 -0.723378 0.294391 0.667287 -0.684151 
0.413488 0.590526 -0.693042 0.358536 0.632263 -0.686801 0.488406 0.684721 -0.540941 
-0.264432 0.567935 -0.779439 -0.381823 0.736817 -0.557954 -0.217237 0.536416 -0.815516 
-0.0721924 0.56896 -0.819191 -0.0575225 0.517671 -0.853644 -0.0544348 0.561752 -0.825513 
0.0369677 0.61026 -0.791338 0.135672 0.66202 -0.737104 0.284309 0.68196 -0.673869 
0.222292 0.700095 -0.678567 0.319704 0.737555 -0.594812 0.427272 0.885033 -0.184813 
-0.165159 0.914526 -0.369277 -0.110416 0.867982 -0.484165 -0.0178297 0.838393 -0.544775 
0.105687 0.893087 -0.437295 0.251676 0.954217 -0.161643 -0.401809 -0.845332 -0.352086 
-0.288413 -0.868274 -0.403631 -0.205141 -0.910604 -0.358773 -0.111528 -0.949351 -0.293757 
-0.0520163 -0.968108 -0.245076 0.0176349 -0.97257 -0.231942 0.0168638 -0.979251 -0.201946 
0.10108 -0.969248 -0.224369 0.221274 -0.952911 -0.207359 0.41461 -0.891908 -0.18055 
-0.435813 -0.828509 -0.351625 -0.595389 -0.725672 -0.344837 0.534591 -0.82484 -0.183989 
0.568694 -0.800722 -0.188229 0.647029 -0.720193 -0.250351 -0.67828 -0.655275 -0.332492 
-0.775982 -0.526052 -0.348024 0.649313 -0.716851 -0.254002 0.695979 -0.659182 -0.284766 
-0.833066 -0.422991 -0.356481 0.710194 -0.640886 -0.291358 -0.856659 -0.263483 -0.443523 
0.793579 -0.523077 -0.310841 0.803602 -0.509855 -0.307038 0.841709 -0.528579 -0.110133 
-0.906797 -0.145204 -0.395772 0.91619 -0.275316 -0.291199 -0.923875 -0.0111822 -0.382531 
-0.975869 -0.00452421 -0.218311 0.949653 -0.0795958 -0.303023 -0.942556 0.0987323 -0.319123 
0.965974 0.156801 -0.205687 -0.933068 0.2511 -0.257553 0.897197 0.392549 -0.202344 
0.855692 0.476892 -0.20091 -0.887719 0.414004 -0.201385 -0.831581 0.531572 -0.160951 
0.773367 0.589187 -0.234012 0.668062 0.709753 -0.223483 -0.778003 0.609828 -0.151067 
-0.64327 0.751037 -0.148819 0.609201 0.761868 -0.220072 0.516474 0.826662 -0.223348 
-0.583556 0.797458 -0.153371 -0.462281 0.867434 -0.183997 -0.32321 0.930752 -0.170984 
0.308783 0.94641 -0.0946587 0.334063 0.93551 -0.114993 0.428169 0.885565 -0.18013 
0.427187 0.886057 -0.18004 0.424909 0.893273 -0.14668 -0.265993 0.942476 -0.20245 
-0.186849 0.948002 -0.257644 -0.0880874 0.968957 -0.231003 0.0116991 0.983945 -0.178089 
0.141454 0.980922 -0.133351 0.264437 0.959061 -0.101364 0.256847 0.960823 -0.104156 
0.259823 0.96561 0.0094155 0.00658915 -0.98725 0.159042 -0.442381 -0.890562 0.105824 
-0.286914 -0.954301 0.0836064 -0.153095 -0.980418 0.123866 -0.0520539 -0.98538 0.162225 
-0.00230265 -0.986929 0.161141 -0.0430843 -0.983896 0.173473 0.0218702 -0.986985 0.15932 
0.00664834 -0.985488 0.169617 0.112051 -0.980117 0.163752 0.249333 -0.949214 0.191903 
0.428443 -0.87272 0.234087 -0.518985 -0.846243 0.120531 -0.633034 -0.760792 0.143053 
-0.447517 -0.808006 0.383217 0.519635 -0.824278 0.224823 0.421999 -0.740428 0.523147 
0.54713 -0.806662 0.223483 0.613477 -0.770902 0.171336 -0.732072 -0.661914 0.161058 
-0.792777 -0.580814 0.184825 0.618925 -0.767383 0.167495 0.603728 -0.758727 0.244633 
0.686658 -0.711721 0.148171 -0.861386 -0.471651 0.188573 -0.714069 -0.452609 0.534089 
0.719454 -0.679291 0.144739 0.663527 -0.657617 0.356752 0.841448 -0.503984 0.194845 
-0.94143 -0.284216 0.18147 0.846831 -0.493837 0.197488 0.839579 -0.492206 0.229868 
-0.967717 -0.15598 0.197975 -0.974425 -0.109433 0.196265 0.946216 -0.254973 0.19916 
0.755994 -0.21476 0.618345 -0.981307 0.00922894 0.192229 -0.967404 0.125922 0.219712 
-0.956539 0.0127063 0.291327 0.965754 -0.0359514 0.256958 0.714374 0.0267684 0.699252 
-0.951783 0.193824 0.237784 0.935074 0.188902 0.299921 0.72688 0.194674 0.658595 
-0.911616 0.299071 0.28198 0.876921 0.386419 0.285815 0.850525 0.440053 0.288028 
0.820888 0.384093 0.42263 -0.823035 0.471783 0.316282 -0.78854 0.523121 0.323341 
-0.739264 0.467515 0.484684 0.782612 0.568494 0.253638 0.679868 0.697873 0.225282 
0.618024 0.440748 0.65099 -0.736165 0.594555 0.323365 -0.636473 0.702556 0.318302 
-0.567416 0.518632 0.639577 0.361599 0.899828 0.244039 0.61102 0.763361 0.209606 
0.505446 0.840521 0.195061 0.460547 0.653385 0.60082 -0.561922 0.770273 0.301536 
-0.484468 0.82515 0.290547 -0.459167 0.709464 0.534628 -0.34187 0.896481 0.281864 
0.24164 0.892951 0.379801 0.256234 0.898898 0.355424 0.157852 0.74193 0.651631 
0.346932 0.902847 0.253978 0.278652 0.911714 0.301879 0.231247 0.85345 0.467062 
-0.250997 0.929971 0.268615 -0.193151 0.943471 0.269361 -0.188771 0.916166 0.353562 
-0.0457703 0.958092 0.282782 -0.0435671 0.893225 0.447494 0.0699913 0.94584 0.316999 
0.0807949 0.884315 0.459847 0.19167 0.910225 0.367087 0.166407 0.915294 0.366805 
0.167713 0.899829 0.402715 -0.242729 -0.747604 0.6182 -0.106552 -0.763169 0.637354 
-0.0521009 -0.76397 0.643145 -0.0409615 -0.770556 0.636054 0.000798996 -0.776631 0.629956 
0.107616 -0.776145 0.621303 0.267082 -0.717149 0.643712 -0.558124 -0.530748 0.637812 
-0.324836 -0.720748 0.612376 -0.399203 -0.660879 0.635513 -0.224339 -0.681397 0.696685 
-0.0823518 -0.635888 0.767375 -0.0439212 -0.604569 0.795341 -0.0391917 -0.561446 0.826585 
-0.0110435 -0.549893 0.835162 0.0932013 -0.552966 0.827975 0.358445 -0.678079 0.641659 
0.248884 -0.60799 0.753926 0.385284 -0.644412 0.660522 0.410103 -0.644343 0.645475 
-0.573351 -0.518588 0.634299 -0.547028 -0.514947 0.659992 -0.322106 -0.399659 0.858208 
-0.19558 -0.298293 0.934222 -0.046154 -0.291617 0.955421 -0.00680036 -0.295364 0.955361 
-0.0134599 -0.235266 0.971838 0.00720172 -0.214673 0.97666 0.109723 -0.241582 0.964157 
0.16424 -0.255195 0.952838 0.237267 -0.404334 0.8833 0.428959 -0.643396 0.634063 
0.37717 -0.607699 0.698889 0.482641 -0.608415 0.629992 -0.589749 -0.386636 0.709019 
-0.64693 -0.286429 0.706711 -0.441759 -0.259768 0.858702 -0.220104 -0.203296 0.954057 
-0.118772 -0.0772628 0.989911 0.0276369 -0.0810491 0.996327 0.0943283 -0.0852627 0.991883 
0.0680547 -0.210487 0.975225 0.182353 -0.316318 0.930962 0.533463 -0.568455 0.62632 
0.414893 -0.494837 0.763544 0.601683 -0.495442 0.62651 -0.682625 -0.174151 0.709714 
-0.616207 -0.165144 0.770076 -0.336844 -0.0916489 0.937089 -0.1754 -0.0425702 0.983576 
-0.0744469 0.0139301 0.997128 0.113625 -0.0408893 0.992682 -0.0229089 -0.0398691 0.998942 
-0.0384527 -0.120041 0.992024 0.0884684 -0.148199 0.984993 0.259116 -0.236513 0.93644 
0.654486 -0.388645 0.648539 0.555608 -0.33501 0.760965 -0.649785 -0.0519499 0.758341 
-0.571749 -0.0435271 0.819273 -0.284418 -0.0464998 0.957572 -0.120098 -0.0145107 0.992656 
-0.0297011 0.0102601 0.999506 -0.0308486 0.0287104 0.999112 -0.0926026 -0.116956 0.98881 
0.0143652 0.00258029 0.999893 0.224562 -0.0504498 0.973153 0.691337 -0.194492 0.695863 
0.443617 -0.0681574 0.893621 -0.63626 0.0260005 0.771036 -0.541829 0.0248245 0.840122 
-0.266393 0.0160428 0.963731 -0.117148 -0.00536094 0.9931 -0.0279173 -0.0262504 0.999265 
-0.139315 -0.0353542 0.989617 -0.111762 -0.0186042 0.993561 0.103956 0.0544783 0.993089 
-0.0554561 0.0700998 0.995997 0.0399201 0.06365 0.997174 0.212036 0.0568116 0.975609 
0.677733 0.0316067 0.734628 0.412088 0.0241779 0.910823 -0.635993 0.108431 0.764039 
-0.578015 0.101409 0.8097 -0.315665 0.0797223 0.945516 -0.160878 0.0327623 0.98643 
-0.059332 -0.00509138 0.998225 0.059399 -0.0229934 0.997969 -0.0410786 -0.00266295 0.999152 
0.0559137 0.0544591 0.996949 0.190653 0.0878137 0.977722 0.622584 0.182013 0.761092 
0.424266 0.129588 0.896217 -0.645047 0.212001 0.734146 -0.639485 0.228062 0.734198 
-0.632965 0.209903 0.745182 -0.367346 0.159261 0.916348 -0.201481 0.100043 0.97437 
-0.0512444 0.0642389 0.996618 0.0899337 0.0635989 0.993915 0.0722127 0.0815255 0.994052 
-0.114321 0.186198 0.975839 0.0405072 0.116944 0.992312 -0.0271192 -0.0127324 0.999551 
0.0224054 0.0108135 0.99969 0.127933 0.0482708 0.990607 0.287958 0.174997 0.941518 
0.5656 0.270395 0.779091 0.571663 0.356645 0.738922 0.508156 0.242016 0.826563 
-0.550879 0.375506 0.745337 -0.518902 0.432768 0.737192 -0.467017 0.319306 0.824584 
-0.260269 0.249641 0.932705 -0.0987199 0.151309 0.983545 0.0105036 0.103208 0.994604 
0.0605758 0.0191437 0.99798 0.0268387 0.0375284 0.998935 -0.0280541 0.170093 0.985029 
-0.0364691 0.167368 0.98522 -0.0368154 0.1805 0.982886 0.0189124 0.198412 0.979936 
0.211759 0.234119 0.948866 0.558626 0.397564 0.727928 0.438704 0.585863 0.681398 
0.387675 0.323059 0.863331 -0.481873 0.466123 0.741975 -0.393389 0.545227 0.740252 
-0.345478 0.403001 0.847487 -0.194987 0.322025 0.926434 -0.0446039 0.260264 0.964507 
0.00811932 0.212809 0.97706 0.0433343 0.184227 0.981928 0.0704198 0.260559 0.962886 
0.0479097 0.347634 0.936405 0.117998 0.660024 0.741919 0.013989 0.425036 0.905068 
0.16275 0.716833 0.677984 0.0998545 0.500831 0.859766 0.406051 0.621118 0.670325 
0.273646 0.681247 0.678985 0.255133 0.58567 0.769349 -0.2832 0.629623 0.723445 
-0.254603 0.639078 0.72578 -0.246954 0.619421 0.745205 -0.156334 0.656433 0.738008 
-0.129679 0.538387 0.83266 -0.0334284 0.666308 0.744927 -0.0256692 0.48251 0.875514 
0.087255 0.649179 0.755615 0.0821726 0.476989 0.875059 0.15753 0.608303 0.777915 
0.143983 0.520175 0.841836 0.158438 0.626789 0.762911 0.164625 0.617135 0.769443 
0.160374 0.606419 0.778804 -0.0467539 -0.107461 0.993109 0.0102978 -0.144965 0.989383 
-0.0070872 -0.100083 0.994954 0.0686709 -0.0211423 0.997415 -0.0801686 -0.0699992 0.99432 
-0.0476925 -0.0649124 0.996751 0.0267786 -0.0746088 0.996853 0.0228653 -0.0483316 0.99857 
0.00272038 -0.0861818 0.996276 0.00996922 -0.0775997 0.996935 -0.00833154 -0.0890178 0.995995 
0.0683693 -0.0192091 0.997475 0.0689438 -0.0189095 0.997441 0.0680636 -0.0183804 0.997512 
-0.0285925 0.040382 0.998775 -0.0189383 0.044569 0.998827 -0.0175174 0.0464048 0.998769 
-0.0800218 -0.0896276 0.992755 -0.0238978 0.0314136 0.999221 -0.0547922 -0.0667398 0.996265 
0.0953639 -0.0732481 0.992744 0.0698908 -0.113652 0.991059 0.131758 -0.0891107 0.987268 
-0.0434588 -0.0729413 0.996389 0.0763378 -0.0831644 0.993608 -0.0927503 -0.1162 0.988886 
-0.0924499 -0.116702 0.988855 -0.112983 0.0154392 0.993477 -0.0658927 0.0209931 0.997606 
0.00577568 0.0963397 0.995332 0.0669191 -0.0507006 0.996469 0.15245 -0.143207 0.977881 
-0.0165868 -0.0003027 0.999862 -0.0535873 0.043582 0.997612 -0.0502748 -0.00309023 0.998731 
0.124593 -0.026567 0.991852 0.045854 0.0453269 0.997919 0.0650789 -0.0123202 0.997804 
-0.124259 -0.0309318 0.991768 -0.0283612 0.00430132 0.999588 -0.0480632 -0.0238347 0.99856 
0.165973 -0.0151406 0.986014 0.191749 -0.0146385 0.981335 -0.0602086 -0.00592319 0.998168 
-0.0608219 -0.0315957 0.997648 0.0710804 0.0412392 0.996618 0.0290434 0.0176697 0.999422 
-0.0319708 0.00363053 0.999482 -0.00194215 0.0152095 0.999882 -0.0120778 0.0101662 0.999875 
-0.065318 0.239819 0.968618 -0.0749264 0.249874 0.965375 -0.130217 0.154468 0.979379 
-0.126338 0.114866 0.985314 0.0391379 -0.0594729 0.997462 0.189088 0.100823 0.97677 
0.156946 0.133579 0.978532 0.230919 0.140534 0.96277 -0.0716729 0.257057 0.963735 
-0.062065 0.248825 0.966558 -0.0690022 0.255905 0.964236 -0.0697873 0.258873 0.963387 

