# vtk DataFile Version 4.2
vtk output
ASCII
DATASET POLYDATA
POINTS 532 float
33.5714 -11.5689 -22.6821 -7.00007 -35.9118 -15.804 1.11423 -35.9118 -17.3926 
9.22853 -35.9118 -18.7602 17.3428 -35.9118 -18.9192 25.4571 -35.9118 -18.0444 
33.5714 -35.9118 -16.5141 -39.4573 -27.7975 -15.5807 -31.343 -27.7975 -16.5397 
-23.2287 -27.7975 -16.1373 -15.1144 -27.7975 -16.7373 -7.00007 -27.7975 -17.5793 
1.11423 -27.7975 -19.4348 9.22853 -27.7975 -20.4467 17.3428 -27.7975 -21.5545 
25.4571 -27.7975 -21.591 33.5714 -27.7975 -21.3833 41.6857 -27.7975 -19.3056 
-47.5716 -19.6832 -16.6402 -39.4573 -19.6832 -18.8898 -31.343 -19.6832 -19.2273 
-23.2287 -19.6832 -18.2067 -15.1144 -19.6832 -17.0921 -7.00007 -19.6832 -17.4247 
1.11423 -19.6832 -18.9444 9.22853 -19.6832 -20.0892 17.3428 -19.6832 -21.5543 
25.4571 -19.6832 -22.4107 33.5714 -13.3706 -22.6429 33.5714 -19.6832 -22.5043 
41.6857 -19.6832 -21.3963 49.8 -19.6832 -18.5893 -47.5716 -11.5689 -18.5621 
-39.4573 -11.5689 -20.022 -31.343 -11.5689 -20.1301 -23.2287 -11.5689 -19.1889 
-15.1144 -11.5689 -17.9686 -7.00007 -11.5689 -17.8194 1.11423 -11.5689 -17.7242 
9.22853 -11.5689 -18.6536 17.3428 -11.5689 -20.5297 33.1616 -11.5689 -22.6429 
25.4571 -11.5689 -21.9042 33.9884 -11.5689 -22.6429 33.5714 -11.225 -22.6429 
41.6857 -11.5689 -21.893 49.8 -11.5689 -19.7596 -55.6859 -3.45463 -15.4308 
-47.5716 -3.45463 -19.1169 -39.4573 -3.45463 -20.0809 -31.343 -3.45463 -19.8216 
-23.2287 -3.45463 -18.8192 -15.1144 -3.45463 -18.1329 -7.00007 -3.45463 -19.1183 
1.11423 -3.45463 -16.4402 9.22853 -3.45463 -19.4866 17.3428 -3.45463 -19.4658 
25.4571 -3.45463 -21.0066 33.5714 -3.45463 -21.7571 41.6857 -3.45463 -21.6396 
49.8 -3.45463 -19.9875 57.9143 -3.45463 -15.4944 -47.5716 4.65967 -17.5644 
-39.4573 4.65967 -18.6823 -31.343 4.65967 -18.4877 -23.2287 4.65967 -17.2405 
-15.1144 4.65967 -17.1118 -7.00007 4.65967 -19.0534 1.11423 4.65967 -16.4016 
9.22853 4.65967 -19.8972 17.3428 4.65967 -19.0274 25.4571 4.65967 -20.2025 
33.5714 4.65967 -21.0405 41.6857 4.65967 -21.0641 49.8 4.65967 -19.3506 
57.9143 4.65967 -15.1399 -47.5716 12.774 -15.942 -39.4573 12.774 -17.3444 
-31.343 12.774 -17.112 -23.2287 12.774 -16.3505 -15.1144 12.774 -15.7552 
-7.00007 12.774 -17.8527 1.11423 12.774 -18.3564 9.22853 12.774 -17.8931 
17.3428 12.774 -18.5162 25.4571 12.774 -19.6853 33.5714 12.774 -20.3102 
41.6857 12.774 -19.9743 49.8 12.774 -17.3811 -31.343 20.8883 -15.2378 
-23.2287 20.8883 -15.0418 -7.00007 20.8883 -15.6683 1.11423 20.8883 -17.5013 
9.22853 20.8883 -17.697 17.3428 20.8883 -18.4798 25.4571 20.8883 -18.9186 
33.5714 20.8883 -19.0325 41.6857 20.8883 -18.0079 49.8 20.8883 -14.5972 
-7.00007 29.0026 -15.0277 1.11423 29.0026 -16.7066 9.22853 29.0026 -16.9915 
17.3428 29.0026 -17.1685 25.4571 29.0026 -16.9027 33.5714 29.0026 -16.3676 
1.11423 37.1169 -14.6724 9.22853 37.1169 -15.2828 -7.00007 -37.772 -14.5286 
1.11423 -39.5078 -14.5286 9.22853 -40.4179 -14.5286 17.3428 -40.3121 -14.5286 
25.4571 -39.2617 -14.5286 33.5714 -37.5619 -14.5286 -39.4573 -29.298 -14.5286 
-39.4573 -35.9118 -8.17627 -31.343 -31.6582 -14.5286 -31.343 -35.9118 -11.9185 
-23.2287 -32.0981 -14.5286 -23.2287 -35.9118 -13.0127 -13.01 -35.9118 -14.5286 
-15.1144 -34.548 -14.5286 -15.1144 -35.9118 -14.0202 37.2518 -35.9118 -14.5286 
41.6857 -33.3135 -14.5286 41.6857 -35.9118 -8.57659 -41.7875 -27.7975 -14.5286 
-47.5716 -23.3117 -14.5286 -47.5716 -27.7975 -10.7803 49.7807 -27.7975 -14.5286 
49.8 -27.7782 -14.5286 49.8 -27.7975 -14.5017 -50.9426 -19.6832 -14.5286 
-55.6859 -19.6832 -9.48679 55.216 -19.6832 -14.5286 57.9143 -19.6832 -10.0198 
-55.5078 -11.5689 -14.5286 -55.6859 -10.8632 -14.5286 -55.6859 -11.5689 -14.4045 
57.8806 -11.5689 -14.5286 57.9143 -11.3733 -14.5286 57.9143 -11.5689 -14.4944 
-57.0575 -3.45463 -14.5286 -55.6859 2.46897 -14.5286 59.0921 -3.45463 -14.5286 
-54.8793 4.65967 -14.5286 -55.6859 4.65967 -14.1284 58.7071 4.65967 -14.5286 
57.9143 6.4934 -14.5286 -50.4931 12.774 -14.5286 -55.6859 12.774 -11.0661 
-47.5716 16.4769 -14.5286 -39.4573 19.9541 -14.5286 -15.1144 20.8456 -14.5286 
54.5866 12.774 -14.5286 57.9143 12.774 -11.6291 -47.5716 20.8883 -12.2721 
-36.8141 20.8883 -14.5286 -39.4573 20.8883 -14.1612 -31.343 23.26 -14.5286 
-15.2164 20.8883 -14.5286 -23.2287 22.702 -14.5286 -15.0681 20.8883 -14.5286 
-15.1144 20.8883 -14.5222 41.6857 28.0225 -14.5286 49.9212 20.8883 -14.5286 
49.8 21.0068 -14.5286 -39.4573 29.0026 -9.99445 -31.343 29.0026 -12.3951 
-23.2287 29.0026 -12.7571 -10.2319 29.0026 -14.5286 -15.1144 29.0026 -13.7483 
-7.00007 30.6521 -14.5286 17.3428 36.7662 -14.5286 25.4571 35.0951 -14.5286 
39.9727 29.0026 -14.5286 33.5714 31.771 -14.5286 41.6857 29.0026 -13.8442 
-23.2287 37.1169 -8.43986 -15.1144 37.1169 -10.2706 0.559863 37.1169 -14.5286 
-7.00007 37.1169 -12.3125 1.11423 37.3624 -14.5286 16.3045 37.1169 -14.5286 
9.22853 38.4317 -14.5286 17.3428 37.1169 -14.3856 25.4571 37.1169 -13.3662 
33.5714 37.1169 -9.33973 1.11423 45.2312 -6.9358 9.22853 45.2312 -7.26806 
-39.4573 -37.5807 -6.41428 -31.343 -40.7072 -6.41428 -23.2287 -42.584 -6.41428 
-15.1144 -43.2284 -6.41428 -7.00007 -43.7054 -6.41428 1.11423 -43.4157 -6.41428 
9.22853 -43.0079 -6.41428 17.3428 -42.3719 -6.41428 25.4571 -41.5496 -6.41428 
33.5714 -39.9578 -6.41428 41.6857 -36.5682 -6.41428 -42.2455 -35.9118 -6.41428 
-47.5716 -32.286 -6.41428 42.7836 -35.9118 -6.41428 41.6857 -35.9118 -3.04359 
49.8 -31.0109 -6.41428 -51.7231 -27.7975 -6.41428 -55.6859 -22.8004 -6.41428 
53.1184 -27.7975 -6.41428 57.9143 -21.9343 -6.41428 -57.6088 -19.6832 -6.41428 
59.5868 -19.6832 -6.41428 -61.5912 -11.5689 -6.41428 63.1365 -11.5689 -6.41428 
-63.3659 -3.45463 -6.41428 65.2803 -3.45463 -6.41428 -63.0743 4.65967 -6.41428 
-63.8002 4.65967 -1.36493 65.0835 4.65967 -6.41428 -60.9217 12.774 -6.41428 
-55.6859 20.0344 -6.41428 61.8597 12.774 -6.41428 57.9143 20.3718 -6.41428 
-55.0104 20.8883 -6.41428 -55.6859 20.8883 -5.46982 -47.5716 27.9105 -6.41428 
57.5849 20.8883 -6.41428 49.8 28.7319 -6.41428 -45.989 29.0026 -6.41428 
-47.5716 29.0026 -4.97026 -39.4573 33.4003 -6.41428 -31.343 36.3137 -6.41428 
49.4866 29.0026 -6.41428 41.6857 34.6195 -6.41428 -39.4573 37.1169 0.745142 
-29.3958 37.1169 -6.41428 -31.343 37.1169 -5.25667 -23.2287 39.2694 -6.41428 
-15.1144 41.3151 -6.41428 -7.00007 44.3375 -6.41428 17.3428 44.4694 -6.41428 
25.4571 42.2658 -6.41428 37.2826 37.1169 -6.41428 33.5714 39.1179 -6.41428 
-1.55409 45.2312 -6.41428 -7.00007 45.2312 -1.85595 1.11423 45.5522 -6.41428 
12.6184 45.2312 -6.41428 9.22853 45.7251 -6.41428 -39.4573 -39.8253 1.70002 
-31.343 -42.6565 1.70002 -23.2287 -43.5744 1.70002 -15.1144 -43.3897 1.70002 
-7.00007 -43.2183 1.70002 1.11423 -42.2622 1.70002 9.22853 -41.2529 1.70002 
17.3428 -40.3349 1.70002 25.4571 -39.4024 1.70002 33.5714 -37.7077 1.70002 
-45.5729 -35.9118 1.70002 -47.5716 -34.2626 1.70002 9.22853 -35.9118 9.55427 
17.3428 -35.9118 8.33431 25.4571 -35.9118 7.36318 38.8577 -35.9118 1.70002 
33.5714 -35.9118 4.67042 41.6857 -34.8277 1.70002 49.8 -29.0787 1.70002 
-53.1458 -27.7975 1.70002 -55.6859 -23.995 1.70002 51.3106 -27.7975 1.70002 
49.8 -27.7975 4.02789 57.9143 -20.8871 1.70002 -58.1526 -19.6832 1.70002 
-55.6859 -19.6832 7.86473 58.8665 -19.6832 1.70002 57.9143 -19.6832 3.46188 
-61.9736 -11.5689 1.70002 63.1452 -11.5689 1.70002 -63.6428 -3.45463 1.70002 
-63.8002 -1.01943 1.70002 65.7557 -3.45463 1.70002 -64.1608 4.65967 1.70002 
-63.8002 7.17452 1.70002 -63.8002 4.65967 2.98699 65.6091 4.65967 1.70002 
-62.9331 12.774 1.70002 62.7437 12.774 1.70002 57.9143 20.4606 1.70002 
-59.0887 20.8883 1.70002 -55.6859 25.2582 1.70002 57.5769 20.8883 1.70002 
49.8 28.3939 1.70002 -52.0245 29.0026 1.70002 -47.5716 32.6814 1.70002 
49.0234 29.0026 1.70002 41.6857 34.3052 1.70002 -40.0828 37.1169 1.70002 
-39.4573 37.4587 1.70002 -39.4573 37.1169 6.27631 -31.343 40.4893 1.70002 
-23.2287 42.6796 1.70002 -15.1144 44.4677 1.70002 17.3428 44.96 1.70002 
25.4571 42.5993 1.70002 36.9621 37.1169 1.70002 33.5714 39.0285 1.70002 
33.5714 37.1169 5.15413 -10.1399 45.2312 1.70002 -7.00007 45.7033 1.70002 
-7.00007 45.2312 3.50746 1.11423 46.4699 1.70002 1.11423 45.2312 5.31805 
15.6076 45.2312 1.70002 9.22853 46.1956 1.70002 9.22853 45.2312 4.21069 
-39.4573 -36.9991 9.81433 -31.343 -38.9578 9.81433 -23.2287 -39.2676 9.81433 
-15.1144 -38.8829 9.81433 -7.00007 -37.6801 9.81433 1.11423 -36.7795 9.81433 
-41.1703 -35.9118 9.81433 -47.5716 -30.5232 9.81433 -39.4573 -35.9118 11.0264 
-31.343 -35.9118 13.3014 -23.2287 -35.9118 13.0857 -15.1144 -35.9118 12.4432 
-7.00007 -35.9118 11.3206 7.57195 -35.9118 9.81433 1.11423 -35.9118 10.6209 
9.22853 -35.5998 9.81433 17.3428 -34.3642 9.81433 25.4571 -33.6912 9.81433 
33.5714 -31.8716 9.81433 41.6857 -28.9985 9.81433 -49.8503 -27.7975 9.81433 
-47.5716 -27.7975 12.1711 -39.4573 -27.7975 16.9308 -23.2287 -27.7975 17.6538 
-15.1144 -27.7975 16.3153 -7.00007 -27.7975 15.2036 1.11423 -27.7975 15.1362 
9.22853 -27.7975 14.3694 17.3428 -27.7975 13.9927 25.4571 -27.7975 14.1101 
33.5714 -27.7975 13.1758 43.769 -27.7975 9.81433 41.6857 -27.7975 10.9233 
49.8 -23.4703 9.81433 -54.6651 -19.6832 9.81433 -55.6859 -17.849 9.81433 
-47.5716 -19.6832 15.9923 -7.00007 -19.6832 17.7745 1.11423 -19.6832 17.7625 
9.22853 -19.6832 16.9668 17.3428 -19.6832 17.2903 25.4571 -19.6832 17.5059 
33.5714 -19.6832 17.2483 41.6857 -19.6832 15.8467 53.3868 -19.6832 9.81433 
49.8 -19.6832 12.568 57.9143 -13.57 9.81433 -58.5917 -11.5689 9.81433 
-55.6859 -11.5689 13.2084 49.8 -11.5689 16.1622 59.0809 -11.5689 9.81433 
57.9143 -11.5689 10.9993 -60.3004 -3.45463 9.81433 -55.6859 -3.45463 15.3887 
62.1365 -3.45463 9.81433 57.9143 -3.45463 14.1163 -61.4739 4.65967 9.81433 
-55.6859 4.65967 17.0555 62.2085 4.65967 9.81433 57.9143 4.65967 14.2527 
-60.9266 12.774 9.81433 -55.6859 12.774 17.3179 49.8 12.774 16.0484 
58.9957 12.774 9.81433 57.9143 14.4479 9.81433 57.9143 12.774 10.931 
-57.2987 20.8883 9.81433 -55.6859 23.2309 9.81433 -55.6859 20.8883 12.2073 
[...]
POINT_DATA 532
SCALARS ImageScalars float
LOOKUP_TABLE default
0 0 0 0 0 0 0 0 0 
0 0 0 0 0 0 0 0 0 
0 0 0 0 0 0 0 0 0 
0 0 0 0 0 0 0 0 0 
0 0 0 0 0 0 0 0 0 
0 0 0 0 0 0 0 0 0 
0 0 0 0 0 0 0 0 0 
0 0 0 0 0 0 0 0 0 
0 0 0 0 0 0 0 0 0 
0 0 0 0 0 0 0 0 0 
0 0 0 0 0 0 0 0 0 
0 0 0 0 0 0 0 0 0 
0 0 0 0 0 0 0 0 0 
0 0 0 0 0 0 0 0 0 
0 0 0 0 0 0 0 0 0 
0 0 0 0 0 0 0 0 0 
0 0 0 0 0 0 0 0 0 
0 0 0 0 0 0 0 0 0 
0 0 0 0 0 0 0 0 0 
0 0 0 0 0 0 0 0 0 
0 0 0 0 0 0 0 0 0 
0 0 0 0 0 0 0 0 0 
0 0 0 0 0 0 0 0 0 
0 0 0 0 0 0 0 0 0 
0 0 0 0 0 0 0 0 0 
0 0 0 0 0 0 0 0 0 
0 0 0 0 0 0 0 0 0 
0 0 0 0 0 0 0 0 0 
0 0 0 0 0 0 0 0 0 
0 0 0 0 0 0 0 0 0 
0 0 0 0 0 0 0 0 0 
0 0 0 0 0 0 0 0 0 
0 0 0 0 0 0 0 0 0 
0 0 0 0 0 0 0 0 0 
0 0 0 0 0 0 0 0 0 
0 0 0 0 0 0 0 0 0 
0 0 0 0 0 0 0 0 0 
0 0 0 0 0 0 0 0 0 
0 0 0 0 0 0 0 0 0 
0 0 0 0 0 0 0 0 0 
0 0 0 0 0 0 0 0 0 
0 0 0 0 0 0 0 0 0 
0 0 0 0 0 0 0 0 0 
0 0 0 0 0 0 0 0 0 
0 0 0 0 0 0 0 0 0 
0 0 0 0 0 0 0 0 0 
0 0 0 0 0 0 0 0 0 
0 0 0 0 0 0 0 0 0 
0 0 0 0 0 0 0 0 0 
0 0 0 0 0 0 0 0 0 
0 0 0 0 0 0 0 0 0 
0 0 0 0 0 0 0 0 0 
0 0 0 0 0 0 0 0 0 
0 0 0 0 0 0 0 0 0 
0 0 0 0 0 0 0 0 0 
0 0 0 0 0 0 0 0 0 
0 0 0 0 0 0 0 0 0 
0 0 0 0 0 0 0 0 0 
0 0 0 0 0 0 0 0 0 
0 
NORMALS Normals float
0.000891262 -0.0460075 0.998941 0.182848 0.42655 0.885789 0.174897 0.471816 0.864176 
0.0900405 0.474578 0.875596 -0.0401339 0.566593 0.82302 -0.121454 0.652903 0.747641 
-0.274037 0.745359 0.607737 0.240422 0.481738 0.84269 0.0306384 0.399148 0.916374 
0.0135632 0.293017 0.956011 0.0871883 0.16272 0.982813 0.165462 0.0954042 0.981591 
0.171876 0.077768 0.982044 0.127388 0.0626512 0.989872 0.0723351 0.141375 0.98731 
-0.0103608 0.222373 0.974907 -0.110367 0.283585 0.952575 -0.381414 0.448148 0.808509 
0.390579 0.349537 0.851629 0.148743 0.258264 0.954555 -0.0450395 0.204762 0.977775 
-0.127606 0.179111 0.975518 -0.0487919 0.0748038 0.996004 0.114416 0.013592 0.99334 
0.158012 -0.105168 0.981821 0.157742 -0.106023 0.981772 0.140905 -0.0619204 0.988085 
0.0610045 0.0222385 0.99789 -0.0135624 -0.0182485 0.999741 -0.0639057 0.0798491 0.994756 
-0.216009 0.123649 0.96853 -0.470895 0.287259 0.83411 0.278228 0.147714 0.949089 
0.0875729 0.0662624 0.993952 -0.0510368 0.0347118 0.998093 -0.13219 0.037003 0.990533 
-0.0837867 0.0640726 0.994422 -0.0156323 0.10185 0.994677 0.0489909 -0.142626 0.988563 
0.173142 -0.0393764 0.984109 0.193823 -0.127131 0.972764 0.00738037 -0.0479599 0.998822 
0.130599 -0.0844181 0.987835 -0.00742168 -0.0428643 0.999053 0.00237463 -0.0483929 0.998826 
-0.168284 0.016155 0.985606 -0.346443 0.0772787 0.934883 0.516499 -0.0200333 0.856054 
0.286001 -0.0619122 0.956227 0.0380411 -0.0819059 0.995914 -0.0767236 -0.0998077 0.992044 
-0.103956 -0.117239 0.987648 0.014818 -0.0452337 0.998866 -0.0960235 0.0767272 0.992417 
0.026829 -0.091683 0.995427 0.171546 0.0762599 0.98222 0.0917338 -0.0921675 0.991509 
0.141215 -0.104872 0.984409 0.0381991 -0.101682 0.994083 -0.10134 -0.0502162 0.993584 
-0.325346 -0.0234759 0.945303 -0.609176 0.0221898 0.792725 0.231486 -0.188865 0.954329 
0.0521374 -0.161759 0.985452 -0.0848967 -0.161605 0.983197 -0.0838351 -0.152518 0.984739 
0.110597 -0.154099 0.981846 -0.0433383 -0.079549 0.995888 0.0697214 0.136409 0.988196 
0.13575 -0.102021 0.985476 0.0193501 -0.0581598 0.99812 0.123353 -0.0795655 0.989168 
0.0525598 -0.0885556 0.994684 -0.0953947 -0.110744 0.98926 -0.321834 -0.144032 0.935776 
-0.578811 -0.157905 0.800028 0.297875 -0.267603 0.916329 0.0750316 -0.264555 0.961447 
-0.060385 -0.20093 0.977743 -0.0807777 -0.131161 0.988065 0.0796059 -0.149508 0.985551 
0.169296 -0.21364 0.962131 -0.000972599 0.0505681 0.99872 0.00966064 -0.133504 0.991001 
0.111036 -0.0340549 0.993233 0.111723 -0.0796683 0.990541 0.0149887 -0.118951 0.992787 
-0.155446 -0.159719 0.974847 -0.411505 -0.260134 0.873495 0.0495968 -0.259852 0.964374 
-0.0437488 -0.216288 0.975349 0.185542 -0.157682 0.969902 0.120274 -0.0986281 0.987829 
0.0596964 -0.0548609 0.996708 0.0759378 -0.0796078 0.99393 0.0331318 -0.163413 0.986001 
-0.0472436 -0.216545 0.975129 -0.2436 -0.348102 0.905253 -0.446407 -0.4254 0.787245 
0.179093 -0.183067 0.96665 0.11537 -0.168134 0.97899 0.0270871 -0.149777 0.988349 
-0.00488688 -0.226869 0.973913 -0.0431287 -0.306674 0.950837 -0.16105 -0.450278 0.878244 
0.161627 -0.399681 0.902293 -0.00940641 -0.384968 0.922882 0.170088 0.53393 0.828245 
0.125943 0.702136 0.700817 0.0377389 0.816819 0.575658 -0.0665582 0.84887 0.524395 
-0.153139 0.835604 0.527555 -0.289096 0.820558 0.493061 0.260258 0.51848 0.814521 
0.38858 0.742156 0.546087 0.106023 0.473292 0.874502 0.225076 0.613839 0.756666 
0.0588138 0.39111 0.918463 0.104779 0.524525 0.844923 0.172038 0.446068 0.878309 
0.155621 0.402976 0.901883 0.165077 0.466748 0.868848 -0.373452 0.780393 0.501519 
-0.465209 0.704674 0.535739 -0.476511 0.863618 0.164626 0.314253 0.510798 0.800206 
0.442836 0.453785 0.773289 0.555689 0.59576 0.579896 -0.58077 0.591142 0.559694 
-0.581102 0.590588 0.559934 -0.581643 0.591833 0.558055 0.518016 0.390831 0.760862 
0.766213 0.465402 0.443079 -0.719973 0.357531 0.594819 -0.822952 0.468497 0.321342 
0.616904 0.243293 0.74849 0.615692 0.221649 0.756172 0.627226 0.247255 0.738548 
-0.712553 0.174296 0.679624 -0.711501 0.171113 0.681533 -0.714588 0.175319 0.67722 
0.570186 -0.0078518 0.821478 0.519892 -0.166681 0.837813 -0.637981 0.0388179 0.769073 
0.489841 -0.218576 0.843967 0.528777 -0.224567 0.818514 -0.598763 -0.162984 0.784168 
-0.599468 -0.192798 0.776832 0.398452 -0.287236 0.871052 0.595415 -0.355832 0.720323 
0.307747 -0.354452 0.882981 0.138431 -0.369211 0.918978 0.0378393 -0.118787 0.992199 
-0.572509 -0.283883 0.769184 -0.716584 -0.344329 0.606585 0.350001 -0.481183 0.803718 
0.11702 -0.341662 0.932509 0.151349 -0.383192 0.911184 0.0713129 -0.295378 0.952715 
0.0366431 -0.119949 0.992104 -0.0203743 -0.244938 0.969325 0.0385188 -0.118889 0.99216 
0.0376556 -0.118708 0.992215 -0.344338 -0.530593 0.774533 -0.450243 -0.426976 0.784202 
-0.448544 -0.429196 0.783963 0.301557 -0.569584 0.764616 0.144676 -0.433619 0.889406 
0.0734853 -0.352897 0.932772 0.159832 -0.191461 0.968399 0.134005 -0.21074 0.968314 
0.185879 -0.226792 0.956041 -0.0961454 -0.487883 0.867598 -0.150127 -0.509843 0.847067 
-0.318316 -0.533552 0.78358 -0.222475 -0.525746 0.821034 -0.373779 -0.572636 0.729642 
0.206497 -0.658881 0.72335 0.211797 -0.54947 0.808223 0.166594 -0.400197 0.90116 
0.237484 -0.449644 0.861059 0.161338 -0.409977 0.897713 -0.0885639 -0.48456 0.870263 
-0.0200195 -0.44645 0.894585 -0.102011 -0.503581 0.857904 -0.200524 -0.616461 0.761424 
-0.393096 -0.791359 0.468216 0.0726713 -0.918039 0.389774 -0.060205 -0.929836 0.363016 
0.407745 0.787876 0.461514 0.255996 0.862142 0.437237 0.137541 0.906444 0.399301 
0.0668639 0.953601 0.293554 0.00817851 0.975399 0.220293 -0.0422322 0.99398 0.101096 
-0.0643777 0.99768 0.0221489 -0.0886965 0.99602 -0.00877915 -0.142534 0.989789 -0.00166891 
-0.290586 0.956848 0.000805923 -0.463768 0.884677 0.0476102 0.469037 0.76301 0.44477 
0.6025 0.699169 0.384912 -0.485739 0.872758 0.0484881 -0.461021 0.879801 -0.115804 
-0.652059 0.756324 0.0528486 0.692497 0.626673 0.357392 0.787735 0.537628 0.300716 
-0.728039 0.681709 0.0723354 -0.819802 0.555356 0.139659 0.833488 0.474504 0.283098 
-0.840747 0.516688 0.161792 0.910489 0.312559 0.270771 -0.917748 0.314581 0.242441 
0.959619 0.0851099 0.26812 -0.942204 0.117254 0.313853 0.923906 -0.108377 0.36695 
0.995058 -0.0623767 0.0772543 -0.928275 -0.189561 0.319957 0.796864 -0.385937 0.464824 
0.678294 -0.527376 0.511657 -0.851039 -0.401261 0.338706 -0.778418 -0.574665 0.252636 
0.666132 -0.540011 0.514447 0.701683 -0.547505 0.455937 0.496 -0.665487 0.557774 
-0.771087 -0.586762 0.247254 -0.640373 -0.733107 0.229078 0.470169 -0.672483 0.571584 
0.521179 -0.706343 0.479011 0.361694 -0.705553 0.609403 0.268503 -0.755308 0.597843 
-0.634965 -0.73828 0.227512 -0.518462 -0.821951 0.235785 0.428221 -0.885607 0.179796 
0.261935 -0.756746 0.598937 0.282776 -0.805964 0.520058 0.235326 -0.751746 0.616036 
0.247879 -0.766402 0.592608 0.220741 -0.86412 0.452294 -0.200082 -0.921179 0.333761 
-0.299135 -0.897796 0.323235 -0.464178 -0.848114 0.255425 -0.416342 -0.869431 0.265985 
0.115104 -0.917325 0.381139 0.162834 -0.977338 0.135258 0.0692636 -0.930728 0.359094 
-0.118345 -0.941263 0.316258 -0.0605178 -0.948543 0.310813 0.444565 0.894832 -0.0404783 
0.211073 0.9745 -0.0761423 0.043425 0.98842 -0.145399 -0.0214624 0.976958 -0.21235 
-0.0667339 0.957304 -0.281273 -0.116214 0.935002 -0.33506 -0.112099 0.921268 -0.372423 
-0.106865 0.912078 -0.395845 -0.147957 0.906223 -0.396066 -0.251232 0.884922 -0.392167 
0.610642 0.790329 -0.0499634 0.671416 0.738499 -0.0618051 -0.0993964 0.666107 -0.739203 
-0.0835644 0.730875 -0.677376 -0.128961 0.785815 -0.604867 -0.37049 0.853216 -0.367096 
-0.245384 0.832921 -0.496014 -0.433196 0.829289 -0.353016 -0.599493 0.742066 -0.299909 
0.788879 0.608391 -0.0867764 0.8428 0.525302 -0.117242 -0.624002 0.723164 -0.296065 
-0.586232 0.710819 -0.388675 -0.767368 0.586941 -0.258159 0.88541 0.44403 -0.137426 
0.800656 0.42347 -0.42382 -0.786664 0.563399 -0.252469 -0.757137 0.567057 -0.324329 
0.934787 0.319299 -0.155634 -0.907429 0.371984 -0.19545 0.980148 0.123298 -0.155268 
0.988372 0.0737431 -0.13298 -0.975471 0.138435 -0.171146 0.996 -0.0401766 -0.0798121 
0.990466 -0.1164 -0.0736817 0.989618 -0.033149 -0.139844 -0.973059 -0.167604 -0.158319 
0.955995 -0.290743 -0.0392613 -0.900538 -0.41201 -0.138846 -0.755561 -0.626647 -0.190895 
0.850247 -0.52049 0.078553 0.748487 -0.655232 0.102167 -0.745045 -0.63803 -0.194488 
-0.616898 -0.762882 -0.193514 0.65397 -0.74415 0.13625 0.567282 -0.809137 0.15326 
-0.607707 -0.7689 -0.198709 -0.527756 -0.81596 -0.235973 0.439432 -0.888504 0.13214 
0.430207 -0.892923 0.132701 0.439177 -0.893409 -0.0945678 0.311258 -0.937858 0.153431 
0.237324 -0.965735 0.105035 0.182308 -0.982409 0.0404391 -0.208796 -0.96231 -0.174255 
-0.338285 -0.916457 -0.213703 -0.485615 -0.842359 -0.233688 -0.453056 -0.859747 -0.235745 
-0.43081 -0.80432 -0.409233 0.144139 -0.989188 -0.0270387 0.121018 -0.990473 -0.0657143 
0.105664 -0.98355 -0.146509 0.0309641 -0.993185 -0.11236 0.0035611 -0.953901 -0.300101 
-0.183386 -0.968234 -0.169977 -0.0907283 -0.983028 -0.159451 -0.102703 -0.954521 -0.279897 
0.365664 0.767619 -0.526356 0.115419 0.805283 -0.581547 -0.0036517 0.758935 -0.651156 
-0.0744689 0.710268 -0.699981 -0.101822 0.664296 -0.740502 -0.0929942 0.67995 -0.727337 
0.421132 0.743716 -0.519168 0.637709 0.58698 -0.49878 0.356624 0.728672 -0.584685 
0.094217 0.698966 -0.708922 -0.0454359 0.640045 -0.766993 -0.0916662 0.585388 -0.805555 
-0.097582 0.59334 -0.799016 -0.0971942 0.658732 -0.746073 -0.0897526 0.647927 -0.756396 
-0.0978387 0.65026 -0.753385 -0.0672918 0.654965 -0.752657 -0.103393 0.685632 -0.720569 
-0.201035 0.681408 -0.703752 -0.326699 0.666734 -0.669876 0.685797 0.525188 -0.503845 
0.609991 0.494821 -0.618921 0.284341 0.431904 -0.855926 -0.104911 0.387608 -0.915835 
-0.14242 0.352182 -0.925032 -0.0652767 0.348466 -0.935046 -0.0466033 0.375271 -0.925743 
-0.0662898 0.396199 -0.915769 -0.0147563 0.450669 -0.892569 -0.0412175 0.489028 -0.871294 
-0.16034 0.565231 -0.809201 -0.378696 0.648998 -0.659841 -0.320624 0.635702 -0.702199 
-0.520578 0.56616 -0.63911 0.744855 0.403388 -0.531478 0.763347 0.380112 -0.522318 
0.509684 0.308883 -0.803002 -0.0553491 0.362547 -0.93032 -0.0486717 0.333461 -0.941507 
-0.0275803 0.31771 -0.947787 0.0315545 0.318087 -0.947536 -0.00228318 0.294541 -0.955636 
-0.0937436 0.361139 -0.927788 -0.243213 0.396605 -0.885185 -0.582805 0.518629 -0.62559 
-0.469284 0.479426 -0.741568 -0.673657 0.429221 -0.601628 0.793624 0.286344 -0.536813 
0.695952 0.275768 -0.663025 -0.379809 0.279164 -0.881937 -0.699513 0.38785 -0.600211 
-0.659199 0.384816 -0.646044 0.824737 0.156345 -0.543475 0.642844 0.166891 -0.747595 
-0.806715 0.154319 -0.570435 -0.595794 0.161589 -0.786714 0.868393 0.0279043 -0.495092 
0.625416 0.0814208 -0.776032 -0.82487 -0.154685 -0.543748 -0.59688 -0.156094 -0.787 
0.888228 -0.217473 -0.404668 0.627224 -0.165972 -0.760949 -0.38139 -0.315609 -0.868868 
-0.699047 -0.423714 -0.57602 -0.673685 -0.464347 -0.574918 -0.659247 -0.420127 -0.623608 
0.788794 -0.491638 -0.368913 0.758532 -0.549734 -0.349888 0.73678 -0.480919 -0.475259 
-0.0422903 -0.189715 -0.980928 -0.138505 -0.322394 -0.936418 -0.269364 -0.434111 -0.859646 
-0.568104 -0.564285 -0.599033 -0.526791 -0.591873 -0.610064 -0.485707 -0.534153 -0.691932 
0.653527 -0.693926 -0.302272 0.577101 -0.763267 -0.29048 0.549211 -0.643793 -0.532821 
0.430231 -0.8579 -0.280908 -0.112769 -0.216113 -0.969834 -0.116433 -0.287877 -0.950563 
-0.188853 -0.365722 -0.911363 -0.337503 -0.642805 -0.687673 -0.26806 -0.518359 -0.812064 
-0.389033 -0.66187 -0.640767 -0.382305 -0.663328 -0.643303 -0.37849 -0.657304 -0.651688 
0.413672 -0.86604 -0.280802 0.265259 -0.916585 -0.299183 0.251831 -0.819129 -0.515372 
0.168007 -0.932558 -0.319544 0.101179 -0.695158 -0.7117 0.0888458 -0.9143 -0.395174 
-0.0326128 -0.625619 -0.779447 0.0266355 -0.872656 -0.487608 -0.0901727 -0.578846 -0.810436 
-0.041244 -0.807136 -0.588923 -0.0955194 -0.537178 -0.838043 -0.121108 -0.778624 -0.615692 
-0.122218 -0.516983 -0.847225 -0.22543 -0.713064 -0.663868 -0.195485 -0.562749 -0.80318 
-0.32101 -0.679523 -0.659698 -0.313641 -0.681997 -0.660688 -0.308511 -0.66706 -0.678124 
0.0382313 0.369332 -0.928511 0.0854997 0.367159 -0.92622 0.263202 0.353728 -0.897553 
-0.0318941 0.368441 -0.929104 0.0345797 0.350102 -0.936073 -0.105266 0.371572 -0.922417 
-0.15711 0.300898 -0.940626 0.36771 0.262362 -0.892163 0.42444 0.241248 -0.872726 
0.239844 0.225384 -0.944287 0.0503402 0.206255 -0.977203 -0.106059 0.22937 -0.967544 
-0.0726615 0.350226 -0.933843 -0.16093 0.27712 -0.947262 -0.0540461 0.363393 -0.930067 
-0.0510369 0.322553 -0.945174 -0.0425996 0.30134 -0.952565 0.0137276 0.268501 -0.963182 
0.00245041 0.255302 -0.966858 -0.0827895 0.310308 -0.947024 -0.210403 0.254774 -0.943833 
0.435294 0.228698 -0.870756 0.401444 0.216468 -0.889935 0.17186 0.131463 -0.97631 
0.0319157 0.0774744 -0.996483 -0.0376334 0.0402554 -0.99848 0.0029841 0.207626 -0.978204 
-0.0187003 0.361393 -0.932226 -0.0924101 0.114933 -0.989066 -0.0813786 0.258245 -0.962646 
-0.0453755 0.139474 -0.989186 0.0132285 0.128913 -0.991568 -0.0512047 0.164793 -0.984998 
-0.244416 0.233133 -0.941228 -0.202836 0.219582 -0.954275 -0.313227 0.10418 -0.943947 
0.479955 0.164222 -0.861786 0.334111 0.128205 -0.933774 0.113436 0.0855001 -0.98986 
-0.0326717 0.0365966 -0.998796 0.0221375 -0.00339345 -0.999749 0.158876 0.00288391 -0.987294 
-0.155188 0.0355359 -0.987246 -0.153375 -0.0521828 -0.986789 -0.0122637 -0.00935768 -0.999881 
-0.0843589 -0.072798 -0.993773 0.0339355 -0.0126797 -0.999344 0.00111447 0.00670661 -0.999977 
-0.128478 0.0731976 -0.989007 -0.313757 0.102008 -0.944008 -0.312211 0.101741 -0.944549 
0.567689 0.0797102 -0.819375 0.305745 0.0664038 -0.949795 0.0854526 0.0959745 -0.991709 
-0.0554213 0.10523 -0.992902 -0.0713375 0.0849003 -0.993832 0.0499205 -0.0419647 -0.997871 
-0.0726363 -0.19611 -0.977888 -0.141923 -0.0295296 -0.989437 -0.102329 -0.141233 -0.984674 
-0.0529344 -0.0745275 -0.995813 0.0895988 -0.0551179 -0.994452 0.0340552 -0.0575192 -0.997763 
-0.105462 -0.0722239 -0.991797 -0.301643 -0.103265 -0.947812 -0.300607 -0.111861 -0.947166 
-0.296032 -0.1024 -0.949673 0.582133 -0.156643 -0.797863 0.334187 -0.0642479 -0.940314 
0.168457 -0.0205861 -0.985494 -0.0458519 0.0328608 -0.998408 -0.131224 0.0653323 -0.989198 
-0.127315 0.0525134 -0.990471 -0.138064 -0.112744 -0.983985 -0.100706 -0.0613769 -0.993021 
-0.0514443 -0.0959514 -0.994056 0.00128598 -0.017869 -0.999839 -0.0351489 -0.181096 -0.982837 
0.0497231 -0.0818828 -0.995401 -0.0986926 -0.268132 -0.958314 -0.0149854 -0.158283 -0.98728 
-0.232389 -0.261253 -0.936879 -0.193768 -0.285792 -0.938497 -0.17416 -0.243582 -0.954115 
0.514285 -0.356668 -0.779935 0.4742 -0.425007 -0.77104 0.457492 -0.322724 -0.828583 
0.175365 -0.249365 -0.952399 0.0358201 -0.147566 -0.988403 -0.0443201 -0.0695759 -0.996592 
-0.132969 -0.0269829 -0.990753 -0.185137 -0.0269751 -0.982342 -0.123882 -0.0385751 -0.991547 
-0.0835537 -0.148716 -0.985344 -0.0547681 -0.0865945 -0.994737 -0.0402646 -0.158865 -0.986479 
-0.0437537 -0.120935 -0.991696 -0.0378976 -0.10475 -0.993776 0.361011 -0.522242 -0.772615 
0.314557 -0.545548 -0.776809 0.300612 -0.495373 -0.815008 0.204348 -0.595452 -0.776968 
0.146728 -0.390573 -0.908803 0.0819528 -0.619629 -0.780605 0.00375397 -0.290907 -0.956744 
-0.0570423 -0.5351 -0.842861 -0.0914421 -0.264735 -0.959976 -0.120871 -0.421794 -0.898599 
-0.145171 -0.222012 -0.964176 -0.13387 -0.209968 -0.9685 -0.147956 -0.267733 -0.952065 
-0.158944 -0.204255 -0.965928 
