# vtk DataFile Version 4.2
vtk output
ASCII
DATASET POLYDATA
POINTS 504 float
-27.0346 -30.0966 -17.9132 -19.3164 -30.0966 -18.7975 -11.5982 -30.0966 -18.6791 
-3.87999 -30.0966 -16.754 -42.471 -22.3784 -15.483 -34.7528 -22.3784 -19.931 
-27.0346 -22.3784 -21.2101 -19.3164 -22.3784 -21.6384 -11.5982 -22.3784 -21.6857 
-3.87999 -22.3784 -20.8588 3.83822 -22.3784 -17.767 11.5564 -22.3784 -16.8718 
19.2746 -22.3784 -15.4483 -42.471 -14.6602 -19.4308 -34.7528 -14.6602 -21.9103 
-27.0346 -14.6602 -22.2497 -19.3164 -14.6602 -21.8745 -11.5982 -14.6602 -22.0581 
-3.87999 -14.6602 -22.6816 3.83822 -14.6602 -19.9605 11.5564 -14.6602 -19.6099 
19.2746 -14.6602 -19.8587 -50.1893 -6.942 -17.1462 -42.471 -6.942 -21.0812 
-34.7528 -6.942 -22.6361 -27.0346 -6.942 -22.8666 -19.3164 -6.942 -21.8038 
-11.5982 -6.942 -21.9972 -3.87999 -6.942 -22.9004 3.83822 -6.942 -20.4128 
11.5564 -6.942 -20.7974 19.2746 -6.942 -21.5553 26.9928 -6.942 -18.3714 
-50.1893 0.776209 -17.977 -42.471 0.776209 -21.3783 -34.7528 0.776209 -22.4494 
-27.0346 0.776209 -22.3455 -19.3164 0.776209 -21.6965 -11.5982 0.776209 -22.2437 
-3.87999 0.776209 -22.2458 3.83822 0.776209 -21.5032 11.5564 0.776209 -21.7331 
19.2746 0.776209 -21.1658 26.9928 0.776209 -19.8909 34.7111 0.776209 -17.9134 
-50.1893 8.49442 -17.9825 -42.471 8.49442 -21.2067 -34.7528 8.49442 -22.0501 
-27.0346 8.49442 -22.1033 -19.3164 8.49442 -21.8792 -11.5982 8.49442 -21.9119 
-3.87999 8.49442 -22.0831 3.83822 8.49442 -22.9957 11.5564 8.49442 -22.0569 
19.2746 8.49442 -21.0925 26.9928 8.49442 -20.6281 34.7111 8.49442 -19.3676 
42.4293 8.49442 -17.0954 -50.1893 16.2126 -17.3055 -42.471 16.2126 -20.3862 
-34.7528 16.2126 -21.8291 -27.0346 16.2126 -22.3273 -19.3164 16.2126 -22.4973 
-11.5982 16.2126 -22.3281 -3.87999 16.2126 -22.0921 3.83822 16.2126 -21.9813 
11.5564 16.2126 -20.9166 19.2746 16.2126 -20.6232 26.9928 16.2126 -20.5479 
34.7111 16.2126 -19.4031 42.4293 16.2126 -16.9178 -42.471 23.9308 -19.2621 
-34.7528 23.9308 -21.2347 -27.0346 23.9308 -22.3412 -19.3164 23.9308 -22.5219 
-11.5982 23.9308 -22.3107 -3.87999 23.9308 -21.1312 3.83822 23.9308 -19.9643 
11.5564 23.9308 -18.9831 19.2746 23.9308 -18.7683 26.9928 23.9308 -18.5602 
34.7111 23.9308 -17.0111 -34.7528 31.6491 -18.401 -27.0346 31.6491 -20.5841 
-19.3164 31.6491 -20.4135 -11.5982 31.6491 -19.6701 -3.87999 31.6491 -17.9814 
3.83822 31.6491 -16.1948 -27.0346 -32.7995 -15.3463 -19.3164 -34.1257 -15.3463 
-19.3164 -37.8148 -9.06607 -11.5982 -33.8653 -15.3463 -11.5982 -37.8148 -10.241 
-3.87999 -31.7161 -15.3463 -3.87999 -37.8148 -9.52206 3.83822 -37.8148 -7.78509 
-42.471 -22.5432 -15.3463 -32.924 -30.0966 -15.3463 -34.7528 -29.0229 -15.3463 
-34.7528 -30.0966 -13.7478 -0.522643 -30.0966 -15.3463 3.83822 -27.1419 -15.3463 
3.83822 -30.0966 -13.6461 11.5564 -24.7876 -15.3463 11.5564 -30.0966 -11.2401 
19.2746 -22.4959 -15.3463 19.2746 -30.0966 -7.74488 -42.6158 -22.3784 -15.3463 
19.4233 -22.3784 -15.3463 26.9928 -22.3784 -9.41454 -47.7697 -14.6602 -15.3463 
-50.1893 -10.5767 -15.3463 -50.1893 -14.6602 -10.1344 26.6546 -14.6602 -15.3463 
26.9928 -14.1333 -15.3463 26.9928 -14.6602 -15.086 34.7111 -14.6602 -9.77375 
-51.8981 -6.942 -15.3463 33.2356 -6.942 -15.3463 34.7111 -5.31493 -15.3463 
34.7111 -6.942 -14.588 42.4293 -6.942 -10.9648 -53.1565 0.776209 -15.3463 
41.184 0.776209 -15.3463 42.4293 2.5146 -15.3463 42.4293 0.776209 -14.8412 
50.1475 0.776209 -10.7204 -53.1267 8.49442 -15.3463 -57.9075 8.49442 -7.73666 
45.8057 8.49442 -15.3463 50.1475 8.49442 -13.0976 -52.4438 16.2126 -15.3463 
-50.1893 22.1831 -15.3463 45.4326 16.2126 -15.3463 42.4293 21.4195 -15.3463 
50.1475 16.2126 -12.5043 -49.0204 23.9308 -15.3463 -50.1893 23.9308 -14.0206 
-42.471 31.6069 -15.3463 11.5564 30.7401 -15.3463 19.2746 30.0009 -15.3463 
26.9928 28.7396 -15.3463 40.1493 23.9308 -15.3463 34.7111 26.6237 -15.3463 
42.4293 23.9308 -14.3227 -42.4245 31.6491 -15.3463 -42.471 31.6491 -15.297 
-34.7528 35.4249 -15.3463 -27.0346 37.8224 -15.3463 -19.3164 37.5769 -15.3463 
-11.5982 36.5033 -15.3463 -3.87999 34.6847 -15.3463 8.47145 31.6491 -15.3463 
3.83822 32.5896 -15.3463 11.5564 31.6491 -14.5569 19.2746 31.6491 -13.8504 
26.9928 31.6491 -12.6462 34.7111 31.6491 -9.48881 -27.0346 39.3673 -10.1558 
-19.3164 39.3673 -10.059 -11.5982 39.3673 -7.98507 -19.3164 -38.4937 -7.62808 
-11.5982 -39.4303 -7.62808 -3.87999 -39.399 -7.62808 3.83822 -37.9832 -7.62808 
-34.7528 -33.2225 -7.62808 -22.3985 -37.8148 -7.62808 -27.0346 -36.756 -7.62808 
-27.0346 -37.8148 -1.6438 4.1975 -37.8148 -7.62808 11.5564 -34.1486 -7.62808 
11.5564 -37.8148 -3.16099 19.2746 -30.2085 -7.62808 -38.9592 -30.0966 -7.62808 
-42.471 -26.7944 -7.62808 19.4645 -30.0966 -7.62808 26.9928 -24.5397 -7.62808 
26.9928 -30.0966 -2.78571 -46.1124 -22.3784 -7.62808 -50.1893 -16.236 -7.62808 
29.8659 -22.3784 -7.62808 34.7111 -18.1215 -7.62808 34.7111 -22.3784 -4.92369 
42.4293 -22.3784 -0.00100177 -51.0844 -14.6602 -7.62808 39.0357 -14.6602 -7.62808 
42.4293 -12.1098 -7.62808 42.4293 -14.6602 -5.96195 50.1475 -14.6602 -0.949575 
-55.1253 -6.942 -7.62808 48.4657 -6.942 -7.62808 50.1475 -5.25678 -7.62808 
50.1475 -6.942 -6.5692 57.8657 -6.942 -0.184674 -57.6122 0.776209 -7.62808 
-57.9075 7.3381 -7.62808 54.9713 0.776209 -7.62808 57.8657 0.776209 -4.075 
-57.9555 8.49442 -7.62808 -57.9075 8.78548 -7.62808 -57.9075 8.49442 -4.8684 
56.267 8.49442 -7.62808 57.8657 8.49442 -5.2669 -56.6168 16.2126 -7.62808 
54.6562 16.2126 -7.62808 50.1475 23.0994 -7.62808 57.8657 16.2126 -1.66874 
-53.3987 23.9308 -7.62808 -50.1893 28.0845 -7.62808 49.4261 23.9308 -7.62808 
42.4293 29.1283 -7.62808 50.1475 23.9308 -6.3283 -46.6079 31.6491 -7.62808 
-42.471 34.5715 -7.62808 -34.7528 38.0611 -7.62808 -3.87999 38.4571 -7.62808 
3.83822 37.0605 -7.62808 11.5564 35.946 -7.62808 19.2746 35.401 -7.62808 
26.9928 34.6555 -7.62808 37.0909 31.6491 -7.62808 34.7111 32.6249 -7.62808 
-29.3696 39.3673 -7.62808 -27.0346 39.9478 -7.62808 -27.0346 39.3673 -4.95191 
-19.3164 39.9772 -7.62808 -19.3164 39.3673 -4.67381 -10.7982 39.3673 -7.62808 
-11.5982 39.4704 -7.62808 -11.5982 39.3673 -6.94871 -27.0346 -38.1006 0.0901345 
-19.3164 -40.6409 0.0901345 -11.5982 -42.9882 0.0901345 -3.87999 -44.3769 0.0901345 
3.83822 -43.3289 0.0901345 11.5564 -40.1678 0.0901345 -27.6223 -37.8148 0.0901345 
-34.7528 -33.7953 0.0901345 -27.0346 -37.8148 2.09703 16.2704 -37.8148 0.0901345 
19.2746 -36.3525 0.0901345 19.2746 -37.8148 4.87821 26.9928 -32.5964 0.0901345 
-39.5514 -30.0966 0.0901345 -42.471 -26.9246 0.0901345 33.4822 -30.0966 0.0901345 
34.7111 -29.4432 0.0901345 34.7111 -30.0966 1.01733 42.4293 -22.4703 0.0901345 
-45.9546 -22.3784 0.0901345 -50.1893 -15.2052 0.0901345 42.5448 -22.3784 0.0901345 
50.1475 -15.9331 0.0901345 -50.4745 -14.6602 0.0901345 -50.1893 -14.6602 0.87547 
51.3666 -14.6602 0.0901345 57.8657 -7.18193 0.0901345 -54.5722 -6.942 0.0901345 
58.032 -6.942 0.0901345 -56.8675 0.776209 0.0901345 60.1794 0.776209 0.0901345 
-57.8088 8.49442 0.0901345 61.0571 8.49442 0.0901345 -56.0647 16.2126 0.0901345 
58.6978 16.2126 0.0901345 57.8657 17.5287 0.0901345 -51.6709 23.9308 0.0901345 
-50.1893 25.7231 0.0901345 -50.1893 23.9308 1.97422 42.4293 30.9492 0.0901345 
52.991 23.9308 0.0901345 50.1475 26.4228 0.0901345 -44.5686 31.6491 0.0901345 
-42.471 33.0348 0.0901345 -42.471 31.6491 2.29539 -34.7528 35.8655 0.0901345 
-34.7528 31.6491 5.8227 -27.0346 38.0207 0.0901345 -19.3164 38.2227 0.0901345 
-11.5982 38.1668 0.0901345 -3.87999 37.7265 0.0901345 3.83822 36.8666 0.0901345 
11.5564 36.3315 0.0901345 19.2746 36.1816 0.0901345 26.9928 35.5216 0.0901345 
40.5653 31.6491 0.0901345 34.7111 33.695 0.0901345 -19.3164 -40.5571 7.80834 
-11.5982 -43.7552 7.80834 -3.87999 -45.4645 7.80834 3.83822 -44.6067 7.80834 
11.5564 -41.818 7.80834 19.2746 -38.5481 7.80834 -34.7528 -31.9967 7.80834 
-25.2299 -37.8148 7.80834 -27.0346 -36.9087 7.80834 -19.3164 -37.8148 13.197 
11.5564 -37.8148 14.7416 21.2138 -37.8148 7.80834 19.2746 -37.8148 9.73747 
26.9928 -35.7914 7.80834 34.7111 -32.9029 7.80834 -37.0599 -30.0966 7.80834 
-42.471 -23.7133 7.80834 -34.7528 -30.0966 10.6657 39.819 -30.0966 7.80834 
42.4293 -28.5023 7.80834 -43.3953 -22.3784 7.80834 -42.471 -22.3784 9.2417 
49.4234 -22.3784 7.80834 50.1475 -21.6104 7.80834 -47.5296 -14.6602 7.80834 
-50.1893 -8.30682 7.80834 -42.471 -14.6602 14.4977 55.7963 -14.6602 7.80834 
57.8657 -11.1049 7.80834 -50.7707 -6.942 7.80834 -50.1893 -6.942 8.5436 
60.2084 -6.942 7.80834 57.8657 -6.942 13.3689 -52.7693 0.776209 7.80834 
-50.1893 0.776209 10.7868 61.743 0.776209 7.80834 57.8657 0.776209 15.1819 
-53.3242 8.49442 7.80834 -50.1893 8.49442 10.6526 61.4284 8.49442 7.80834 
57.8657 8.49442 13.8694 -50.3738 16.2126 7.80834 -50.1893 16.5111 7.80834 
-50.1893 16.2126 7.968 -42.471 16.2126 13.3161 58.7897 16.2126 7.80834 
57.8657 17.4907 7.80834 57.8657 16.2126 9.34573 -44.5962 23.9308 7.80834 
-42.471 26.0619 7.80834 -42.471 23.9308 9.23767 -34.7528 29.696 7.80834 
-34.7528 23.9308 12.4338 -27.0346 23.9308 14.2167 -19.3164 23.9308 14.9089 
42.4293 29.189 7.80834 51.4456 23.9308 7.80834 50.1475 24.9806 7.80834 
50.1475 23.9308 9.44458 -28.188 31.6491 7.80834 -27.0346 31.9288 7.80834 
-27.0346 31.6491 8.10203 -19.3164 32.4971 7.80834 -19.3164 31.6491 8.72456 
-11.5982 33.1952 7.80834 -11.5982 31.6491 9.50625 -3.87999 33.646 7.80834 
-3.87999 31.6491 10.2859 3.83822 33.552 7.80834 3.83822 31.6491 10.3812 
11.5564 33.564 7.80834 11.5564 31.6491 10.553 19.2746 33.8042 7.80834 
19.2746 31.6491 10.9822 26.9928 33.5566 7.80834 26.9928 31.6491 10.8555 
35.5163 31.6491 7.80834 34.7111 31.9155 7.80834 34.7111 31.6491 8.29753 
-11.5982 -40.3583 15.5266 -3.87999 -41.5141 15.5266 3.83822 -40.2384 15.5266 
-27.0346 -31.6157 15.5266 -16.4816 -37.8148 15.5266 -19.3164 -35.7131 15.5266 
-11.5982 -37.8148 17.685 -3.87999 -37.8148 18.6114 9.90802 -37.8148 15.5266 
3.83822 -37.8148 17.2508 11.5564 -37.0086 15.5266 19.2746 -34.6213 15.5266 
26.9928 -33.5304 15.5266 34.7111 -31.3435 15.5266 -29.26 -30.0966 15.5266 
[...]
POINT_DATA 504
SCALARS ImageScalars float
LOOKUP_TABLE default
0 0 0 0 0 0 0 0 0 
0 0 0 0 0 0 0 0 0 
0 0 0 0 0 0 0 0 0 
0 0 0 0 0 0 0 0 0 
0 0 0 0 0 0 0 0 0 
0 0 0 0 0 0 0 0 0 
0 0 0 0 0 0 0 0 0 
0 0 0 0 0 0 0 0 0 
0 0 0 0 0 0 0 0 0 
0 0 0 0 0 0 0 0 0 
0 0 0 0 0 0 0 0 0 
0 0 0 0 0 0 0 0 0 
0 0 0 0 0 0 0 0 0 
0 0 0 0 0 0 0 0 0 
0 0 0 0 0 0 0 0 0 
0 0 0 0 0 0 0 0 0 
0 0 0 0 0 0 0 0 0 
0 0 0 0 0 0 0 0 0 
0 0 0 0 0 0 0 0 0 
0 0 0 0 0 0 0 0 0 
0 0 0 0 0 0 0 0 0 
0 0 0 0 0 0 0 0 0 
0 0 0 0 0 0 0 0 0 
0 0 0 0 0 0 0 0 0 
0 0 0 0 0 0 0 0 0 
0 0 0 0 0 0 0 0 0 
0 0 0 0 0 0 0 0 0 
0 0 0 0 0 0 0 0 0 
0 0 0 0 0 0 0 0 0 
0 0 0 0 0 0 0 0 0 
0 0 0 0 0 0 0 0 0 
0 0 0 0 0 0 0 0 0 
0 0 0 0 0 0 0 0 0 
0 0 0 0 0 0 0 0 0 
0 0 0 0 0 0 0 0 0 
0 0 0 0 0 0 0 0 0 
0 0 0 0 0 0 0 0 0 
0 0 0 0 0 0 0 0 0 
0 0 0 0 0 0 0 0 0 
0 0 0 0 0 0 0 0 0 
0 0 0 0 0 0 0 0 0 
0 0 0 0 0 0 0 0 0 
0 0 0 0 0 0 0 0 0 
0 0 0 0 0 0 0 0 0 
0 0 0 0 0 0 0 0 0 
0 0 0 0 0 0 0 0 0 
0 0 0 0 0 0 0 0 0 
0 0 0 0 0 0 0 0 0 
0 0 0 0 0 0 0 0 0 
0 0 0 0 0 0 0 0 0 
0 0 0 0 0 0 0 0 0 
0 0 0 0 0 0 0 0 0 
0 0 0 0 0 0 0 0 0 
0 0 0 0 0 0 0 0 0 
0 0 0 0 0 0 0 0 0 
0 0 0 0 0 0 0 0 0 

NORMALS Normals float
0.208543 0.591395 0.778949 0.0414206 0.540991 0.840008 -0.1027 0.532163 0.84039 
-0.265705 0.56403 0.781838 0.61872 0.54973 0.561233 0.295932 0.388225 0.872757 
0.103109 0.245143 0.963988 0.0286987 0.170971 0.984858 -0.0437832 0.182685 0.982196 
-0.238781 0.317649 0.917651 -0.235356 0.346375 0.908092 -0.126635 0.463631 0.876932 
-0.347586 0.601006 0.719705 0.471698 0.284521 0.834595 0.1594 0.15374 0.97517 
-0.00166421 0.103064 0.994673 -0.0122694 0.0112316 0.999862 0.0507732 0.020093 0.998508 
-0.122787 0.119132 0.985257 -0.200985 0.163218 0.965901 -0.00581286 0.237691 0.971323 
-0.221772 0.337262 0.914916 0.663857 0.236122 0.709606 0.323906 0.118357 0.938657 
0.10697 0.0371495 0.993568 -0.0543013 0.00594393 0.998507 -0.0576079 -0.0117261 0.99827 
0.0715756 0.012225 0.99736 -0.0978343 -0.0278422 0.994813 -0.140459 0.0980826 0.985216 
0.0721714 0.136569 0.987998 -0.133139 0.0775375 0.98806 -0.410226 0.257235 0.874954 
0.578038 0.046992 0.814655 0.249299 0.0074129 0.968398 0.0574932 -0.0378565 0.997628 
-0.048566 -0.049264 0.997604 -0.00665784 0.00463828 0.999967 0.0360007 -0.00618415 0.999333 
-0.0467639 -0.0532147 0.997487 -0.0328688 0.167922 0.985252 -0.0224811 0.0789789 0.996623 
-0.115721 -0.0287009 0.992867 -0.200204 0.13309 0.970673 -0.296135 0.273765 0.915072 
0.550715 -0.044352 0.833514 0.225081 -0.0697633 0.971839 0.0539034 -0.0398329 0.997751 
-0.0107976 -0.00117731 0.999941 -0.0125348 0.0524193 0.998546 0.013167 0.00550672 0.999898 
0.0702269 -0.00970898 0.997484 -0.000954378 0.0293685 0.999568 -0.125187 -0.0518436 0.990778 
-0.0907267 -0.0342153 0.995288 -0.112493 0.0410666 0.992804 -0.207237 0.0869016 0.974423 
-0.386486 0.120653 0.914369 0.583742 -0.178858 0.791994 0.271031 -0.102161 0.957134 
0.131546 -0.0500462 0.990046 0.0425923 0.0153705 0.998974 5.27158e-05 0.040745 0.99917 
-0.0262237 0.0258584 0.999322 -0.0221968 -0.0595388 0.997979 -0.0747045 -0.189798 0.978977 
-0.0857262 -0.195578 0.976934 -0.0235323 -0.144174 0.989273 -0.0766481 -0.116058 0.990281 
-0.209917 -0.141091 0.967485 -0.391752 -0.147573 0.908159 0.384353 -0.283731 0.878504 
0.171341 -0.204879 0.963674 0.07973 -0.101889 0.991596 -0.00185418 -0.117654 0.993053 
-0.0894614 -0.146727 0.985123 -0.144452 -0.233885 0.961474 -0.13467 -0.329639 0.934453 
-0.0723969 -0.346702 0.935177 -0.0252057 -0.361117 0.93218 -0.106978 -0.410533 0.905549 
-0.226467 -0.424023 0.876879 0.293412 -0.505753 0.811248 0.127455 -0.448502 0.884647 
-0.0530906 -0.469479 0.881346 -0.143153 -0.520573 0.841731 -0.197633 -0.555369 0.807779 
-0.181881 -0.622538 0.761161 0.241339 0.727067 0.642751 0.0557438 0.738559 0.67188 
0.139957 0.910982 0.387973 -0.105879 0.706747 0.699499 0.00159066 0.851785 0.523888 
-0.255362 0.609144 0.750822 -0.113774 0.755373 0.645342 -0.249046 0.677436 0.692139 
0.620916 0.554981 0.553588 0.404217 0.691914 0.598217 0.439728 0.674368 0.593184 
0.470853 0.728988 0.496864 -0.273077 0.561112 0.781397 -0.257746 0.470517 0.843908 
-0.274031 0.541123 0.795043 -0.172626 0.513225 0.840714 -0.274847 0.609402 0.743699 
-0.349257 0.602841 0.717358 -0.371416 0.674353 0.638199 0.623915 0.552051 0.553145 
-0.353098 0.601132 0.716912 -0.478548 0.549011 0.685258 0.707838 0.402502 0.58048 
0.737437 0.336043 0.585885 0.843326 0.478623 0.24438 -0.531883 0.422105 0.734117 
-0.534311 0.414541 0.73666 -0.539181 0.424194 0.72756 -0.434564 0.483734 0.759707 
0.745095 0.263269 0.612799 -0.396932 0.400481 0.825869 -0.372539 0.397599 0.838528 
-0.387574 0.428299 0.8163 -0.391895 0.471939 0.789742 0.704895 0.0750631 0.705329 
-0.382506 0.313866 0.86901 -0.39871 0.27412 0.87515 -0.397735 0.3191 0.860222 
-0.500038 0.314633 0.806826 0.694831 -0.0407322 0.718019 0.975423 -0.0606038 0.211841 
-0.433655 0.117451 0.893391 -0.517757 0.101341 0.849504 0.702611 -0.188196 0.686237 
0.642095 -0.39217 0.658724 -0.466866 -0.173349 0.867172 -0.434653 -0.373578 0.819461 
-0.615485 -0.262509 0.743147 0.608993 -0.445899 0.655974 0.682013 -0.481714 0.550281 
0.535382 -0.616187 0.57765 -0.102815 -0.629401 0.770249 -0.0740253 -0.620007 0.781096 
-0.125904 -0.595944 0.793094 -0.378981 -0.465857 0.799594 -0.245874 -0.547748 0.799699 
-0.457031 -0.502638 0.73381 0.534651 -0.617152 0.577297 0.536458 -0.619237 0.573374 
0.332341 -0.734544 0.591603 0.108264 -0.843374 0.526307 -0.0690946 -0.826153 0.559193 
-0.149302 -0.784082 0.602431 -0.203178 -0.720129 0.663425 -0.136733 -0.653061 0.744859 
-0.184871 -0.667003 0.721755 -0.107829 -0.694957 0.710921 -0.0790747 -0.737718 0.670462 
-0.150685 -0.773313 0.615858 -0.322121 -0.860323 0.395073 0.121242 -0.980645 0.153739 
-0.0418509 -0.985039 0.167172 -0.0986356 -0.991323 0.0868934 0.155568 0.926025 0.343914 
0.0538284 0.878862 0.47403 -0.0679229 0.785496 0.615128 -0.247422 0.681513 0.68871 
0.507849 0.834132 0.215207 0.206662 0.925106 0.318543 0.292322 0.913494 0.282977 
0.363028 0.929207 0.0691717 -0.254448 0.679237 0.688399 -0.335956 0.661707 0.670282 
-0.384596 0.77102 0.507558 -0.371846 0.675389 0.636852 0.61826 0.760336 0.199106 
0.716667 0.678159 0.162753 -0.372704 0.673308 0.638551 -0.445951 0.568242 0.691541 
-0.368636 0.680978 0.632753 0.78339 0.605562 0.139984 0.852301 0.509695 0.117452 
-0.435232 0.533191 0.725452 -0.410224 0.492902 0.767309 -0.409334 0.514477 0.753498 
-0.483414 0.606797 0.630958 0.863594 0.490466 0.116826 -0.418892 0.480979 0.770187 
-0.40916 0.479487 0.776325 -0.419746 0.493537 0.761731 -0.555059 0.543748 0.629482 
0.917028 0.371402 0.145328 -0.415713 0.502242 0.758245 -0.43951 0.470438 0.765192 
-0.440955 0.510501 0.738205 -0.788352 0.443165 0.426738 0.970671 0.180426 0.158884 
0.979377 -0.0255031 0.200425 -0.653132 0.22056 0.724411 -0.82334 0.16192 0.543961 
0.976557 -0.0601192 0.206695 0.976061 -0.0669176 0.206949 0.996834 -0.0533729 0.0589335 
-0.762001 -0.0388273 0.646411 -0.851751 -0.0695208 0.519314 0.945913 -0.259579 0.194595 
-0.768487 -0.312481 0.558376 -0.650726 -0.57569 0.495114 -0.867791 -0.40037 0.29435 
0.847145 -0.515156 0.13023 0.762264 -0.637256 0.113392 -0.633152 -0.608335 0.478589 
-0.470987 -0.791553 0.389377 -0.650112 -0.634249 0.418429 0.640382 -0.761216 0.102281 
0.520234 -0.85179 0.0617374 0.306454 -0.951886 3.15201e-05 -0.15475 -0.978467 0.136581 
-0.160748 -0.964479 0.209621 -0.106724 -0.956726 0.270714 -0.0848344 -0.950481 0.29898 
-0.168137 -0.935786 0.309894 -0.362068 -0.874508 0.322711 -0.317806 -0.898073 0.30408 
0.179901 -0.983685 0.00070413 0.125286 -0.99211 0.00466217 0.131588 -0.980584 -0.145392 
-0.0308981 -0.999324 0.0199156 -0.0189996 -0.990671 -0.134946 -0.101811 -0.992081 0.0735506 
-0.0961116 -0.993107 0.0670855 -0.0913776 -0.995238 0.0339345 0.381348 0.924361 0.011445 
0.29756 0.946473 0.125086 0.219875 0.940448 0.259253 0.0242355 0.9408 0.338096 
-0.228916 0.909392 0.347281 -0.393912 0.84077 0.371402 0.393537 0.919286 0.00642 
0.563942 0.823784 -0.0578676 0.401842 0.913463 -0.0641 -0.383227 0.831269 0.402652 
-0.380377 0.821407 0.424975 -0.369745 0.922255 0.112843 -0.363892 0.763384 0.533693 
0.679159 0.729908 -0.0773128 0.754804 0.647608 -0.104287 -0.411494 0.715133 0.565029 
-0.426482 0.700963 0.571632 -0.435527 0.742798 0.508495 -0.484574 0.608231 0.628684 
0.811697 0.568305 -0.134824 0.865087 0.464894 -0.188408 -0.485388 0.607718 0.628552 
-0.568492 0.558459 0.604103 0.867342 0.459413 -0.191462 0.866129 0.450846 -0.215773 
-0.590288 0.551154 0.589737 -0.79164 0.446259 0.417324 0.902049 0.363642 -0.232532 
-0.795323 0.441278 0.415614 0.942596 0.188156 -0.275881 -0.914488 0.167688 0.368229 
0.973177 -0.0376954 -0.226947 -0.959628 -0.0976374 0.263781 0.907589 -0.301614 -0.29208 
-0.879943 -0.42215 0.217922 -0.86005 -0.468759 0.201442 0.751377 -0.548752 -0.366475 
0.716764 -0.589313 -0.372773 0.705254 -0.547312 -0.450628 -0.432289 -0.901733 -0.00195809 
-0.69039 -0.718275 0.0862652 -0.608548 -0.791337 0.058786 0.52479 -0.771131 -0.36049 
0.454285 -0.811513 -0.367522 0.44014 -0.770275 -0.461469 0.276099 -0.874706 -0.398319 
0.231146 -0.702009 -0.673613 0.13486 -0.885162 -0.445309 0.00721917 -0.914764 -0.403924 
-0.0297622 -0.937831 -0.345813 -0.0795252 -0.958687 -0.273119 -0.0856293 -0.975359 -0.203326 
-0.0427774 -0.989401 -0.138766 -0.0546056 -0.994073 -0.0940088 -0.148543 -0.986731 -0.0655514 
-0.39742 -0.917535 -0.0136749 -0.281043 -0.958806 -0.0412882 0.396557 0.893952 -0.208787 
0.306026 0.944369 -0.120478 0.0526657 0.992109 -0.113782 -0.220919 0.969908 -0.102342 
-0.3875 0.915547 -0.107787 -0.354753 0.932993 -0.060613 0.58498 0.73923 -0.333671 
0.436168 0.860091 -0.264577 0.45355 0.8428 -0.289795 0.404282 0.74336 -0.53289 
-0.276513 0.661069 -0.697515 -0.343874 0.938299 -0.0366756 -0.324323 0.926734 -0.189678 
-0.330349 0.94306 0.0388273 -0.43896 0.89274 0.101635 0.633037 0.691051 -0.348873 
0.768228 0.521186 -0.371741 0.577811 0.67627 -0.456939 -0.523031 0.840052 0.144052 
-0.560719 0.810283 0.170395 0.78526 0.493374 -0.374097 0.76273 0.485265 -0.427506 
-0.720326 0.683462 0.118365 -0.732442 0.672713 0.104811 0.816699 0.369586 -0.443181 
0.801189 0.298857 -0.518441 0.672367 0.267026 -0.690377 -0.827996 0.560712 -0.0048441 
-0.883487 0.467166 -0.0347402 0.798227 0.281789 -0.53238 0.78561 0.273158 -0.55516 
-0.927841 0.365962 -0.0719871 -0.814157 0.312079 -0.489649 0.802848 0.131133 -0.581584 
0.725607 0.0865054 -0.68265 -0.9925 0.0698233 -0.100341 -0.65845 -0.00355367 -0.752616 
0.759809 -0.0974881 -0.642796 0.64698 -0.140978 -0.749361 -0.960244 -0.191426 -0.203195 
-0.767302 -0.243682 -0.593183 0.638213 -0.345684 -0.687885 0.63391 -0.352875 -0.688213 
0.633059 -0.345639 -0.692654 0.436237 -0.343359 -0.831746 -0.832467 -0.488646 -0.261195 
-0.800915 -0.534811 -0.269281 -0.797951 -0.493149 -0.346522 0.486301 -0.503834 -0.713907 
0.421443 -0.552693 -0.718969 0.425282 -0.496176 -0.756931 0.234607 -0.635952 -0.735204 
0.262223 -0.53534 -0.802901 0.129354 -0.509575 -0.850647 0.0772322 -0.49649 -0.8646 
-0.39049 -0.849074 -0.355797 -0.589249 -0.738922 -0.326774 -0.556899 -0.762606 -0.329083 
-0.552781 -0.722717 -0.414866 0.136185 -0.711882 -0.688968 0.119347 -0.723278 -0.680165 
0.122995 -0.716919 -0.686221 0.0646553 -0.737061 -0.672726 0.0666927 -0.718875 -0.691933 
0.0597781 -0.763469 -0.643072 0.070865 -0.723085 -0.687115 0.0181765 -0.815722 -0.578159 
0.0414576 -0.756117 -0.653122 -0.00451133 -0.853259 -0.521468 0.0114677 -0.787677 -0.615981 
0.0153369 -0.876732 -0.480735 0.0256115 -0.800136 -0.599272 -0.00159545 -0.894169 -0.447726 
0.0128628 -0.809379 -0.587146 -0.110924 -0.905533 -0.40952 -0.0894978 -0.832329 -0.547009 
-0.267283 -0.896384 -0.353631 -0.252415 -0.90063 -0.353769 -0.251011 -0.893218 -0.373034 
0.271935 0.689913 -0.670873 0.00795168 0.729418 -0.684023 -0.20155 0.636155 -0.744771 
0.363534 0.573085 -0.73445 0.345589 0.634041 -0.691781 0.34556 0.591028 -0.728886 
0.254397 0.531978 -0.80764 -0.0223686 0.504244 -0.863272 -0.245374 0.600583 -0.760981 
-0.20984 0.515221 -0.830972 -0.23975 0.589248 -0.771562 -0.13856 0.70044 -0.700132 
-0.179039 0.815817 -0.549898 -0.334682 0.785628 -0.520362 0.400679 0.553748 -0.729945 
0.501211 0.476236 -0.722486 0.331783 0.514016 -0.791017 0.204088 0.347023 -0.915381 
0.153369 0.204253 -0.966829 0.0185686 0.147404 -0.988902 -0.122727 0.205584 -0.970914 
-0.103406 0.330179 -0.938237 -0.013995 0.473979 -0.880425 -0.107741 0.579772 -0.807624 
-0.403717 0.763196 -0.504524 -0.318551 0.727994 -0.607083 -0.526722 0.691504 -0.494354 
0.545535 0.406965 -0.732647 0.44701 0.377955 -0.81076 0.174172 0.282233 -0.943403 
0.0863198 0.153512 -0.984369 0.0665196 0.0607269 -0.995935 -0.0113331 0.0331969 -0.999385 
-0.034529 0.0437661 -0.998445 0.0301461 0.160642 -0.986552 0.0568289 0.199167 -0.978316 
0.012271 0.176751 -0.984179 -0.16045 0.281868 -0.945942 -0.628129 0.55481 -0.545564 
-0.491376 0.48431 -0.723874 -0.681418 0.409602 -0.606545 0.619181 0.240956 -0.747366 
0.613681 0.178049 -0.769216 0.381934 0.166701 -0.909031 0.0818994 0.122821 -0.989044 
-0.0297605 0.0957817 -0.994957 0.0201751 0.092437 -0.995514 0.00195498 0.0560684 -0.998425 
0.00780793 0.0569175 -0.998348 0.0573128 0.111112 -0.992154 0.0290919 0.0145847 -0.99947 
-0.0189534 -0.00995883 -0.999771 -0.0680025 0.0183291 -0.997517 -0.249186 0.117944 -0.961247 
-0.688779 0.372227 -0.622118 -0.628831 0.348334 -0.695151 0.589287 0.114234 -0.799807 
0.563275 0.0983114 -0.8204 0.306982 -0.00326678 -0.95171 0.110329 -0.0387958 -0.993138 
0.066055 0.0270471 -0.997449 0.0277747 0.102159 -0.99438 -0.0490145 0.0149037 -0.998687 
0.0210734 -0.00215202 -0.999776 -0.0135949 0.0596866 -0.998125 -0.0614031 -0.0538024 -0.996662 
0.0142017 -0.0351502 -0.999281 -0.013599 0.0103625 -0.999854 -0.108466 0.0325853 -0.993566 
-0.687387 0.258656 -0.678673 -0.425014 0.196511 -0.883599 0.515905 -0.0163384 -0.85649 
0.469874 -0.030036 -0.882222 0.259929 -0.0884244 -0.961571 0.121224 -0.112198 -0.986264 
0.1058 -0.0983356 -0.989513 0.00877069 -0.115044 -0.993322 -0.105291 -0.0894995 -0.990406 
0.0582783 -0.130205 -0.989773 0.0020834 -0.172241 -0.985053 -0.061613 -0.0554078 -0.996561 
0.0448413 -0.0141496 -0.998894 0.00209655 -0.0104628 -0.999943 -0.0973874 -0.019235 -0.995061 
-0.625637 -0.00836361 -0.78007 -0.404839 -0.0463428 -0.913213 0.443555 -0.185323 -0.876877 
0.436996 -0.199078 -0.877156 0.437818 -0.186701 -0.879465 0.242198 -0.200825 -0.949215 
0.100089 -0.194229 -0.975837 0.0622041 -0.199573 -0.977907 0.0413184 -0.233368 -0.97151 
-0.0579904 -0.107413 -0.992522 -0.067541 -0.12976 -0.989242 0.0582207 -0.258948 -0.964135 
0.0956351 -0.0965351 -0.990724 0.0580402 -0.0500202 -0.99706 -0.0184927 -0.0574482 -0.998177 
-0.148554 -0.130857 -0.980208 -0.63772 -0.231121 -0.734777 -0.344416 -0.187579 -0.919887 
0.309992 -0.340024 -0.887856 0.255615 -0.387857 -0.885567 0.251407 -0.339275 -0.906469 
0.121549 -0.441493 -0.888994 0.113223 -0.330641 -0.93694 0.0763486 -0.462117 -0.883526 
0.0695708 -0.317528 -0.945693 0.0925691 -0.30447 -0.948013 0.00344616 -0.25814 -0.966101 
-0.097225 -0.194052 -0.976161 0.0408576 -0.203343 -0.978255 0.147369 -0.21252 -0.96598 
0.0817862 -0.227509 -0.970335 -0.0778207 -0.266576 -0.960667 -0.226996 -0.299118 -0.926823 
-0.530668 -0.424804 -0.733439 -0.479297 -0.471512 -0.740236 -0.444783 -0.412013 -0.795245 
0.0932511 -0.489838 -0.866812 0.0960083 -0.493736 -0.864296 0.0963609 -0.489392 -0.866724 
0.0671431 -0.540653 -0.838562 0.0646642 -0.494361 -0.866848 0.00699748 -0.496088 -0.868244 
-0.00300681 -0.42026 -0.907399 0.0419901 -0.458626 -0.887637 0.0422549 -0.379352 -0.924287 
0.0439214 -0.53957 -0.840795 0.0623169 -0.416732 -0.906891 -0.0307749 -0.593362 -0.804347 
-0.00908208 -0.478798 -0.877878 -0.136249 -0.627229 -0.766825 -0.105123 -0.541113 -0.834354 
-0.320763 -0.629808 -0.707427 -0.31318 -0.634676 -0.706473 -0.312769 -0.628067 -0.712536 

