# vtk DataFile Version 4.2
vtk output
ASCII
DATASET POLYDATA
POINTS 502 float
-16.111 -30.2085 -18.627 -8.61396 -30.2085 -19.2588 -1.11695 -30.2085 -19.58 
6.38007 -30.2085 -19.7973 13.8771 -30.2085 -20.0446 21.3741 -30.2085 -19.7278 
28.8711 -30.2085 -17.8273 -23.608 -22.7115 -18.2155 -16.111 -22.7115 -19.721 
-8.61396 -22.7115 -20.5753 -1.11695 -22.7115 -20.2338 6.38007 -22.7115 -20.8998 
13.8771 -22.7115 -22.2618 21.3741 -22.7115 -22.6195 28.8711 -22.7115 -21.9687 
36.3681 -22.7115 -18.217 -23.608 -15.2145 -18.2552 -16.111 -15.2145 -19.7762 
-8.61396 -15.2145 -20.5136 -1.11695 -15.2145 -20.5352 6.38007 -15.2145 -21.4929 
13.8771 -15.2145 -22.8156 21.3741 -15.2145 -23.6295 28.8711 -15.2145 -23.4062 
36.3681 -15.2145 -20.9472 -23.608 -7.71747 -17.8861 -16.111 -7.71747 -19.5033 
-8.61396 -7.71747 -20.883 -1.11695 -7.71747 -21.5336 6.38007 -7.71747 -22.5649 
13.8771 -7.71747 -22.9264 21.3741 -7.71747 -24.0507 28.8711 -7.71747 -23.9062 
36.3681 -7.71747 -21.9807 -31.105 -0.220458 -17.1128 -23.608 -0.220458 -18.4943 
-16.111 -0.220458 -19.7271 -8.61396 -0.220458 -20.86 -1.11695 -0.220458 -21.8954 
6.38007 -0.220458 -22.9443 13.8771 -0.220458 -22.4157 21.3741 -0.220458 -23.3521 
28.8711 -0.220458 -23.9455 36.3681 -0.220458 -22.0905 -31.105 7.27656 -17.6424 
-23.608 7.27656 -19.6669 -16.111 7.27656 -20.1975 -8.61396 7.27656 -20.145 
-1.11695 7.27656 -22.0596 6.38007 7.27656 -23.0095 13.8771 7.27656 -22.8147 
21.3741 7.27656 -23.6745 28.8711 7.27656 -24.048 36.3681 7.27656 -22.0542 
-31.105 14.7736 -17.8357 -23.608 14.7736 -20.0221 -16.111 14.7736 -20.5817 
-8.61396 14.7736 -20.369 -1.11695 14.7736 -21.7867 6.38007 14.7736 -23.4427 
13.8771 14.7736 -23.9767 21.3741 14.7736 -24.4675 28.8711 14.7736 -24.1097 
36.3681 14.7736 -21.6274 -23.608 22.2706 -19.932 -16.111 22.2706 -20.9316 
-8.61396 22.2706 -21.2536 -1.11695 22.2706 -22.5152 6.38007 22.2706 -23.94 
13.8771 22.2706 -24.2879 21.3741 22.2706 -24.4987 28.8711 22.2706 -23.6796 
36.3681 22.2706 -20.2583 -23.608 29.7676 -18.7745 -16.111 29.7676 -20.4766 
-8.61396 29.7676 -21.4712 -1.11695 29.7676 -22.2432 6.38007 29.7676 -23.0271 
13.8771 29.7676 -23.0218 21.3741 29.7676 -22.4012 28.8711 29.7676 -20.1245 
-16.111 37.2646 -18.1559 -8.61396 37.2646 -19.8856 -1.11695 37.2646 -20.1664 
6.38007 37.2646 -20.0007 13.8771 37.2646 -18.6626 -23.608 -37.7055 -10.3565 
-16.111 -33.8066 -17.0192 -16.111 -37.7055 -14.4424 -8.61396 -35.5703 -17.0192 
-8.61396 -37.7055 -15.9628 -1.11695 -36.337 -17.0192 -1.11695 -37.7055 -16.3279 
6.38007 -36.0435 -17.0192 6.38007 -37.7055 -15.9746 13.8771 -35.7616 -17.0192 
13.8771 -37.7055 -15.259 21.3741 -34.0234 -17.0192 21.3741 -37.7055 -12.2081 
28.8711 -31.1567 -17.0192 -31.105 -30.2085 -10.9689 -21.0082 -30.2085 -17.0192 
-23.608 -27.0804 -17.0192 -23.608 -30.2085 -15.993 30.1955 -30.2085 -17.0192 
36.3681 -24.4607 -17.0192 -27.0611 -22.7115 -17.0192 -31.105 -22.7115 -15.3253 
37.6706 -22.7115 -17.0192 -38.602 -15.2145 -11.34 -27.5713 -15.2145 -17.0192 
-31.105 -15.2145 -15.8976 41.0379 -15.2145 -17.0192 43.8651 -15.2145 -10.3021 
-38.602 -7.71747 -13.0257 -28.1582 -7.71747 -17.0192 -31.105 -1.27824 -17.0192 
-31.105 -7.71747 -16.4201 42.4294 -7.71747 -17.0192 43.8651 -7.71747 -13.9903 
-31.3371 -0.220458 -17.0192 -38.602 -0.220458 -13.591 42.4642 -0.220458 -17.0192 
43.8651 -0.220458 -14.048 -32.4026 7.27656 -17.0192 -38.602 7.27656 -13.339 
42.2503 7.27656 -17.0192 43.8651 7.27656 -13.3901 -32.4291 14.7736 -17.0192 
-38.602 14.7736 -11.3728 -31.105 20.572 -17.0192 41.6645 14.7736 -17.0192 
43.8651 14.7736 -11.4156 -30.5332 22.2706 -17.0192 -31.105 22.2706 -16.6817 
39.3124 22.2706 -17.0192 36.3681 26.6518 -17.0192 -26.4978 29.7676 -17.0192 
-31.105 29.7676 -12.7153 -23.608 33.8391 -17.0192 21.3741 36.0739 -17.0192 
33.1244 29.7676 -17.0192 28.8711 32.7833 -17.0192 36.3681 29.7676 -11.535 
-19.3769 37.2646 -17.0192 -23.608 37.2646 -14.7507 -16.111 38.8551 -17.0192 
-8.61396 41.0861 -17.0192 -1.11695 41.5401 -17.0192 6.38007 40.6442 -17.0192 
18.2809 37.2646 -17.0192 13.8771 38.7981 -17.0192 21.3741 37.2646 -14.0675 
-8.61396 44.7616 -12.3019 -1.11695 44.7616 -11.9687 -23.608 -38.3107 -9.52219 
-16.111 -41.7807 -9.52219 -8.61396 -43.5648 -9.52219 -8.61396 -45.2025 -2.50242 
-1.11695 -43.6586 -9.52219 6.38007 -42.6848 -9.52219 13.8771 -41.1344 -9.52219 
21.3741 -39.117 -9.52219 -24.4833 -37.7055 -9.52219 -31.105 -31.7355 -9.52219 
24.4521 -37.7055 -9.52219 28.8711 -35.4023 -9.52219 -32.5867 -30.2085 -9.52219 
35.7449 -30.2085 -9.52219 36.3681 -29.5825 -9.52219 -37.8995 -22.7115 -9.52219 
-38.602 -20.7785 -9.52219 -38.602 -22.7115 -8.09485 41.2358 -22.7115 -9.52219 
43.8651 -15.9271 -9.52219 -40.4208 -15.2145 -9.52219 44.1158 -15.2145 -9.52219 
-42.3565 -7.71747 -9.52219 45.432 -7.71747 -9.52219 -42.9942 -0.220458 -9.52219 
-46.099 -0.220458 -2.46397 45.4461 -0.220458 -9.52219 -42.1531 7.27656 -9.52219 
45.1776 7.27656 -9.52219 -39.9692 14.7736 -9.52219 -38.602 18.4981 -9.52219 
44.4071 14.7736 -9.52219 43.8651 16.7154 -9.52219 -37.1073 22.2706 -9.52219 
-38.602 22.2706 -3.36048 42.1489 22.2706 -9.52219 -33.2075 29.7676 -9.52219 
-31.105 33.1437 -9.52219 28.8711 35.4799 -9.52219 37.1349 29.7676 -9.52219 
36.3681 30.4926 -9.52219 -27.9053 37.2646 -9.52219 -23.608 40.8463 -9.52219 
-16.111 44.6624 -9.52219 6.38007 44.1695 -9.52219 13.8771 41.5527 -9.52219 
24.8881 37.2646 -9.52219 21.3741 38.8015 -9.52219 -15.6492 44.7616 -9.52219 
-16.111 44.7616 -6.41106 -8.61396 46.1074 -9.52219 3.83635 44.7616 -9.52219 
-1.11695 45.8035 -9.52219 -8.61396 -45.3021 -2.02518 -23.608 -40.4048 -2.02518 
-9.14367 -45.2025 -2.02518 -16.111 -43.7955 -2.02518 -1.91214 -45.2025 -2.02518 
-8.61396 -45.2025 -0.771584 -1.11695 -45.1909 -2.02518 6.38007 -43.9195 -2.02518 
13.8771 -42.1288 -2.02518 21.3741 -39.8315 -2.02518 -27.6769 -37.7055 -2.02518 
-31.105 -34.997 -2.02518 26.0569 -37.7055 -2.02518 28.8711 -36.214 -2.02518 
-35.998 -30.2085 -2.02518 -38.602 -26.6158 -2.02518 36.1104 -30.2085 -2.02518 
36.3681 -29.9193 -2.02518 -41.0172 -22.7115 -2.02518 41.248 -22.7115 -2.02518 
43.8651 -15.9646 -2.02518 -44.0159 -15.2145 -2.02518 44.1231 -15.2145 -2.02518 
43.8651 -15.2145 -0.953622 -45.6692 -7.71747 -2.02518 -46.099 -2.17526 -2.02518 
45.2423 -7.71747 -2.02518 43.8651 -7.71747 3.19621 -46.2506 -0.220458 -2.02518 
-46.099 0.903417 -2.02518 -46.099 -0.220458 4.08618 45.328 -0.220458 -2.02518 
43.8651 -0.220458 4.01245 -45.2397 7.27656 -2.02518 45.1769 7.27656 -2.02518 
43.8651 7.27656 3.6189 -42.5569 14.7736 -2.02518 44.6141 14.7736 -2.02518 
43.8651 17.3767 -2.02518 43.8651 14.7736 1.63516 -38.897 22.2706 -2.02518 
-38.602 22.8387 -2.02518 42.2272 22.2706 -2.02518 -34.7047 29.7676 -2.02518 
-31.105 34.7888 -2.02518 28.8711 35.3264 -2.02518 37.2171 29.7676 -2.02518 
36.3681 30.5517 -2.02518 36.3681 29.7676 1.58939 -28.9947 37.2646 -2.02518 
-23.608 41.5733 -2.02518 6.38007 43.5098 -2.02518 13.8771 40.7568 -2.02518 
23.6081 37.2646 -2.02518 21.3741 38.0069 -2.02518 21.3741 37.2646 1.76192 
-16.4344 44.7616 -2.02518 -16.111 44.8859 -2.02518 -16.111 44.7616 -1.51337 
-8.61396 46.1867 -2.02518 -8.61396 44.7616 2.20027 1.47958 44.7616 -2.02518 
-1.11695 45.4047 -2.02518 -1.11695 44.7616 0.18745 -23.608 -39.9895 5.47184 
-16.111 -43.2826 5.47184 -8.61396 -44.6927 5.47184 -1.11695 -44.4534 5.47184 
6.38007 -43.0174 5.47184 13.8771 -41.1274 5.47184 21.3741 -38.7653 5.47184 
-27.0946 -37.7055 5.47184 -31.105 -34.6773 5.47184 -23.608 -37.7055 11.5536 
13.8771 -37.7055 12.9444 23.7291 -37.7055 5.47184 21.3741 -37.7055 7.85673 
28.8711 -34.8423 5.47184 -35.7667 -30.2085 5.47184 -38.602 -26.3789 5.47184 
34.3018 -30.2085 5.47184 36.3681 -27.6292 5.47184 -40.9184 -22.7115 5.47184 
-38.602 -22.7115 12.0801 39.3296 -22.7115 5.47184 36.3681 -22.7115 10.6544 
-43.8529 -15.2145 5.47184 42.1029 -15.2145 5.47184 -45.5058 -7.71747 5.47184 
43.1957 -7.71747 5.47184 -46.0651 -0.220458 5.47184 43.4655 -0.220458 5.47184 
-45.344 7.27656 5.47184 43.381 7.27656 5.47184 -43.1365 14.7736 5.47184 
42.9203 14.7736 5.47184 -39.4538 22.2706 5.47184 -38.602 23.6792 5.47184 
-38.602 22.2706 9.8053 40.4176 22.2706 5.47184 36.3681 28.458 5.47184 
36.3681 22.2706 11.8844 -34.4235 29.7676 5.47184 -31.105 33.6407 5.47184 
21.3741 36.4975 5.47184 34.9255 29.7676 5.47184 28.8711 33.6187 5.47184 
28.8711 29.7676 12.1158 -27.0184 37.2646 5.47184 -23.608 39.6478 5.47184 
-23.608 37.2646 10.2426 -16.111 42.8006 5.47184 -8.61396 43.5583 5.47184 
-1.11695 43.0706 5.47184 6.38007 41.4089 5.47184 19.1127 37.2646 5.47184 
13.8771 38.9597 5.47184 13.8771 37.2646 9.52653 -16.111 -40.3861 12.9688 
-8.61396 -41.8012 12.9688 -1.11695 -41.4216 12.9688 6.38007 -39.7281 12.9688 
-31.105 -31.5774 12.9688 -22.2638 -37.7055 12.9688 -23.608 -37.0325 12.9688 
-16.111 -37.7055 16.2721 -8.61396 -37.7055 17.9077 -1.11695 -37.7055 17.3463 
13.832 -37.7055 12.9688 6.38007 -37.7055 15.313 13.8771 -37.69 12.9688 
21.3741 -34.7482 12.9688 28.8711 -30.2662 12.9688 -32.5547 -30.2085 12.9688 
-31.105 -30.2085 14.6173 -23.608 -30.2085 19.8311 6.38007 -30.2085 20.2974 
13.8771 -30.2085 18.4998 21.3741 -30.2085 16.8649 28.9332 -30.2085 12.9688 
28.8711 -30.2085 13.0225 -38.239 -22.7115 12.9688 -38.602 -21.9675 12.9688 
21.3741 -22.7115 19.9891 34.5736 -22.7115 12.9688 28.8711 -22.7115 17.1995 
36.3681 -17.4769 12.9688 -41.3934 -15.2145 12.9688 -38.602 -15.2145 17.0551 
28.8711 -15.2145 18.5174 37.0167 -15.2145 12.9688 36.3681 -15.2145 13.5837 
-43.2129 -7.71747 12.9688 -38.602 -7.71747 19.7033 28.8711 -7.71747 18.6341 
37.7223 -7.71747 12.9688 36.3681 -7.71747 14.1503 -43.8873 -0.220458 12.9688 
28.8711 -0.220458 18.0718 37.6712 -0.220458 12.9688 36.3681 -0.220458 14.0414 
-43.5405 7.27656 12.9688 28.8711 7.27656 18.0263 37.6356 7.27656 12.9688 
36.3681 7.27656 13.9971 -41.849 14.7736 12.9688 -38.602 21.1357 12.9688 
-38.602 14.7736 18.5834 28.8711 14.7736 17.9507 37.2732 14.7736 12.9688 
36.3681 18.695 12.9688 36.3681 14.7736 13.7283 -37.8795 22.2706 12.9688 
21.3741 22.2706 20.0302 35.3123 22.2706 12.9688 28.8711 29.0213 12.9688 
[...]
POINT_DATA 502
SCALARS ImageScalars float
LOOKUP_TABLE default
0 0 0 0 0 0 0 0 0 
0 0 0 0 0 0 0 0 0 
0 0 0 0 0 0 0 0 0 
0 0 0 0 0 0 0 0 0 
0 0 0 0 0 0 0 0 0 
0 0 0 0 0 0 0 0 0 
0 0 0 0 0 0 0 0 0 
0 0 0 0 0 0 0 0 0 
0 0 0 0 0 0 0 0 0 
0 0 0 0 0 0 0 0 0 
0 0 0 0 0 0 0 0 0 
0 0 0 0 0 0 0 0 0 
0 0 0 0 0 0 0 0 0 
0 0 0 0 0 0 0 0 0 
0 0 0 0 0 0 0 0 0 
0 0 0 0 0 0 0 0 0 
0 0 0 0 0 0 0 0 0 
0 0 0 0 0 0 0 0 0 
0 0 0 0 0 0 0 0 0 
0 0 0 0 0 0 0 0 0 
0 0 0 0 0 0 0 0 0 
0 0 0 0 0 0 0 0 0 
0 0 0 0 0 0 0 0 0 
0 0 0 0 0 0 0 0 0 
0 0 0 0 0 0 0 0 0 
0 0 0 0 0 0 0 0 0 
0 0 0 0 0 0 0 0 0 
0 0 0 0 0 0 0 0 0 
0 0 0 0 0 0 0 0 0 
0 0 0 0 0 0 0 0 0 
0 0 0 0 0 0 0 0 0 
0 0 0 0 0 0 0 0 0 
0 0 0 0 0 0 0 0 0 
0 0 0 0 0 0 0 0 0 
0 0 0 0 0 0 0 0 0 
0 0 0 0 0 0 0 0 0 
0 0 0 0 0 0 0 0 0 
0 0 0 0 0 0 0 0 0 
0 0 0 0 0 0 0 0 0 
0 0 0 0 0 0 0 0 0 
0 0 0 0 0 0 0 0 0 
0 0 0 0 0 0 0 0 0 
0 0 0 0 0 0 0 0 0 
0 0 0 0 0 0 0 0 0 
0 0 0 0 0 0 0 0 0 
0 0 0 0 0 0 0 0 0 
0 0 0 0 0 0 0 0 0 
0 0 0 0 0 0 0 0 0 
0 0 0 0 0 0 0 0 0 
0 0 0 0 0 0 0 0 0 
0 0 0 0 0 0 0 0 0 
0 0 0 0 0 0 0 0 0 
0 0 0 0 0 0 0 0 0 
0 0 0 0 0 0 0 0 0 
0 0 0 0 0 0 0 0 0 
0 0 0 0 0 0 0 
NORMALS Normals float
0.18742 0.277616 0.942233 0.0626646 0.269683 0.960908 0.0341207 0.224904 0.973783 
0.0291461 0.275816 0.960769 -0.00369512 0.377188 0.92613 -0.12209 0.508165 0.852562 
-0.365071 0.622852 0.691938 0.270817 0.130141 0.953793 0.155591 0.0761944 0.984879 
0.0331997 0.0784701 0.996364 0.0212863 0.0612014 0.997898 0.131098 0.106735 0.985607 
0.115727 0.175353 0.97768 -0.017819 0.235446 0.971724 -0.238955 0.325234 0.914945 
-0.604049 0.431353 0.670119 0.247841 -0.0217278 0.968557 0.145695 -0.0142564 0.989227 
0.0498813 0.0204065 0.998547 0.0647038 0.0849204 0.994285 0.150588 0.10952 0.982511 
0.14171 0.0430644 0.988971 0.0382244 0.0961108 0.994636 -0.153372 0.12088 0.980747 
-0.500001 0.209614 0.840275 0.197905 0.01431 0.980117 0.198686 -0.00344394 0.980057 
0.132524 0.0230256 0.990912 0.112317 0.0903719 0.989554 0.091726 0.0964277 0.991104 
0.0941958 -0.026583 0.995199 0.067763 -0.0189122 0.997522 -0.126351 0.0376456 0.991271 
-0.440775 0.0702131 0.894867 0.285202 0.0771445 0.955358 0.172141 0.118011 0.977978 
0.153453 0.0464461 0.987064 0.139394 -0.0488571 0.989031 0.142293 0.0349506 0.989207 
0.03222 0.029502 0.999045 0.0271465 -0.00788799 0.9996 0.101271 -0.0226663 0.994601 
-0.0730977 0.00942607 0.99728 -0.439317 0.00471021 0.89832 0.354954 0.0465866 0.933722 
0.162834 0.0972918 0.981845 0.0308152 0.0559577 0.997957 0.117637 -0.0325341 0.992524 
0.196159 -0.00677243 0.980549 0.0473025 0.0330067 0.998335 0.044271 0.104404 0.993549 
0.0839278 0.0765227 0.993529 -0.0946607 0.0108746 0.99545 -0.457782 -0.0283491 0.888612 
0.432428 -0.0491347 0.900329 0.175492 0.0174274 0.984327 0.0223893 0.0486317 0.998566 
0.0748359 0.0733658 0.994493 0.209019 0.031647 0.977399 0.138879 0.0608042 0.988441 
0.0679223 0.097452 0.99292 0.00923459 0.0544943 0.998471 -0.167183 -0.0212313 0.985697 
-0.503733 -0.0983706 0.85824 0.249566 -0.0723342 0.965652 0.08465 -0.00550693 0.996396 
0.104482 0.0739227 0.991776 0.175414 0.0279588 0.984098 0.118489 -0.0262859 0.992607 
0.0360485 -0.0605088 0.997517 -0.034908 -0.123049 0.991786 -0.238099 -0.213269 0.947536 
-0.599642 -0.344527 0.722309 0.373957 -0.266149 0.888438 0.167511 -0.161875 0.97249 
0.110803 -0.0701163 0.991366 0.105247 -0.147053 0.983513 0.0511191 -0.233634 0.97098 
-0.0372062 -0.314328 0.948585 -0.160222 -0.454046 0.876454 -0.403114 -0.584084 0.704518 
0.256523 -0.459842 0.850142 0.119997 -0.428626 0.895478 0.0060125 -0.453922 0.891021 
-0.0844518 -0.572823 0.815317 -0.218484 -0.717244 0.661684 0.479694 0.740793 0.470233 
0.209595 0.420017 0.882981 0.261297 0.646928 0.716385 0.0749366 0.459011 0.885265 
0.0919332 0.564773 0.82011 0.0120627 0.491232 0.870945 0.00301615 0.566422 0.82411 
-0.0181572 0.531785 0.846685 -0.0481223 0.635795 0.770357 -0.0868762 0.608661 0.78866 
-0.142191 0.74262 0.654444 -0.193813 0.646156 0.738186 -0.310482 0.850714 0.42413 
-0.382743 0.658092 0.648401 0.610061 0.554114 0.566377 0.318282 0.331027 0.888323 
0.339837 0.264118 0.902637 0.403397 0.37544 0.834455 -0.423105 0.639314 0.642074 
-0.628491 0.491385 0.602943 0.350991 0.167358 0.921301 0.474165 0.235746 0.848287 
-0.665404 0.445953 0.598635 0.679867 0.214238 0.701343 0.320314 0.0192457 0.947116 
0.390677 0.0638555 0.91831 -0.769135 0.238643 0.592858 -0.948103 0.255425 0.189365 
0.573439 0.124428 0.809744 0.246182 0.0512612 0.967867 0.2844 0.0766433 0.955637 
0.285942 0.0753228 0.955282 -0.800696 0.0748479 0.594376 -0.918023 0.0811666 0.388131 
0.292028 0.0755434 0.953422 0.577184 0.0197235 0.816376 -0.805871 -0.009869 0.592009 
-0.919804 -0.0142509 0.392118 0.394718 0.02907 0.918342 0.656286 -0.102186 0.74756 
-0.811742 -0.0430079 0.58243 -0.934484 -0.056703 0.35146 0.483729 -0.0743249 0.872056 
0.791987 -0.250298 0.556873 0.535797 -0.182201 0.824454 -0.810854 -0.164331 0.561704 
-0.95326 -0.185204 0.238735 0.541075 -0.211538 0.813934 0.573041 -0.227585 0.787292 
-0.751383 -0.388485 0.533388 -0.654797 -0.536952 0.531905 0.490317 -0.310494 0.81436 
0.744927 -0.42727 0.512371 0.421439 -0.416051 0.805786 -0.311046 -0.792073 0.525233 
-0.562605 -0.640204 0.523081 -0.444454 -0.731028 0.517745 -0.668837 -0.703776 0.23949 
0.33272 -0.502401 0.798055 0.494026 -0.599366 0.62984 0.258379 -0.547278 0.79607 
0.118369 -0.638025 0.760863 -0.0284742 -0.692048 0.72129 -0.152806 -0.747202 0.646792 
-0.287697 -0.796305 0.532099 -0.250434 -0.786294 0.564822 -0.347132 -0.874163 0.339615 
0.085991 -0.910617 0.404206 -0.106291 -0.93897 0.327166 0.481575 0.763677 0.429981 
0.310358 0.848904 0.427832 0.106504 0.897841 0.427245 0.0869823 0.99262 0.0845002 
-0.0553265 0.912443 0.405445 -0.159041 0.916761 0.36641 -0.223212 0.923808 0.311056 
-0.336783 0.901436 0.272012 0.500826 0.749818 0.432373 0.627331 0.604307 0.491191 
-0.406004 0.876859 0.257447 -0.508734 0.829585 0.230169 0.649049 0.572683 0.50077 
-0.692129 0.696197 0.190441 -0.714623 0.674316 0.186042 0.761721 0.368547 0.532874 
0.763075 0.335243 0.552566 0.800887 0.392473 0.452266 -0.868196 0.468624 0.16318 
-0.949192 0.275207 0.152632 0.750731 0.2394 0.615703 -0.954376 0.25641 0.153034 
0.775029 0.141628 0.615851 -0.985408 0.0849575 0.147489 0.79881 -0.0133353 0.601436 
0.982925 -0.028392 0.181803 -0.988374 -0.0168923 0.151102 0.812842 -0.174587 0.555704 
-0.984995 -0.0708855 0.157351 0.834973 -0.283129 0.471866 0.841228 -0.327558 0.430165 
-0.970029 -0.187652 0.15437 -0.958177 -0.241153 0.154086 0.839493 -0.376287 0.391995 
0.878977 -0.444719 0.17212 -0.900875 -0.406328 0.152712 0.817319 -0.469606 0.333856 
0.78255 -0.540672 0.30869 -0.480283 -0.868525 0.122445 -0.688721 -0.709264 0.150357 
-0.662445 -0.734954 0.144945 0.685247 -0.669268 0.287257 0.550247 -0.78732 0.27813 
0.297277 -0.922214 0.247283 -0.266381 -0.954436 0.134507 -0.328171 -0.939125 0.10173 
-0.423773 -0.899224 0.108685 -0.374868 -0.922017 0.0967408 0.283196 -0.927244 0.244986 
0.28934 -0.952005 0.0998449 0.073144 -0.969943 0.232078 -0.218103 -0.96469 0.147663 
-0.125563 -0.975809 0.17897 0.0859776 0.994236 0.0640489 0.486469 0.86884 0.0920006 
0.101302 0.992728 0.0650238 0.305921 0.94867 0.0802376 -0.0719507 0.996343 0.0460937 
0.0832074 0.996339 0.0196238 -0.0902674 0.994947 0.0439505 -0.199431 0.979733 0.01871 
-0.260137 0.965571 0.000752682 -0.358117 0.933436 -0.0211868 0.570341 0.815152 0.101187 
0.645011 0.754071 0.123845 -0.463707 0.88579 -0.0187532 -0.537647 0.842832 -0.0238692 
0.753778 0.641691 0.141603 0.826629 0.542954 0.147935 -0.734507 0.675794 -0.0616653 
-0.743375 0.665803 -0.064025 0.877225 0.452398 0.160663 -0.883473 0.456051 -0.107206 
-0.957945 0.26237 -0.116206 0.942344 0.283154 0.178358 -0.963131 0.242186 -0.117156 
-0.958616 0.240399 -0.152524 0.976475 0.141847 0.162406 0.986962 0.0165391 0.160101 
-0.987271 0.0791381 -0.137957 -0.945332 0.0797399 -0.316211 0.986553 -0.0287823 0.160888 
0.985048 -0.0597437 0.161587 0.995635 -0.0144404 -0.0922081 -0.992305 -0.00432462 -0.123746 
-0.94081 0.00819496 -0.338835 0.958269 -0.227989 0.172456 -0.992557 -0.049221 -0.111392 
-0.948069 -0.0351074 -0.316121 0.905375 -0.383218 0.182865 -0.979971 -0.178644 -0.0880009 
-0.962085 -0.257723 -0.0892782 -0.959524 -0.174244 -0.221251 0.880291 -0.456264 0.130043 
0.877972 -0.461831 0.126002 -0.902897 -0.418908 -0.0964001 0.838911 -0.539926 0.0686113 
0.778137 -0.628063 0.00625978 -0.435781 -0.894701 -0.0980095 -0.68395 -0.724032 -0.089387 
-0.653372 -0.751744 -0.089366 -0.658963 -0.723474 -0.205799 0.709787 -0.703824 -0.0288932 
0.525547 -0.847956 -0.0690769 -0.293062 -0.942038 -0.163336 -0.344971 -0.925155 -0.158379 
-0.359626 -0.925065 -0.122164 -0.333302 -0.932647 -0.138128 -0.316899 -0.924524 -0.211729 
0.278587 -0.954906 -0.102683 0.269019 -0.957546 -0.103603 0.266501 -0.956164 -0.121354 
0.0344539 -0.987055 -0.156638 0.0210225 -0.950778 -0.309158 -0.211584 -0.963068 -0.16653 
-0.169428 -0.971523 -0.165644 -0.158573 -0.959888 -0.231236 0.472366 0.862156 -0.183186 
0.291483 0.937177 -0.191668 0.0689196 0.975598 -0.20847 -0.104701 0.969618 -0.221083 
-0.207864 0.947575 -0.242683 -0.264464 0.929443 -0.257285 -0.35224 0.898108 -0.263304 
0.541086 0.821729 -0.178851 0.628634 0.759681 -0.166444 0.454761 0.792744 -0.405892 
-0.26 0.771591 -0.580557 -0.407106 0.873724 -0.266215 -0.351542 0.863387 -0.361914 
-0.54957 0.787865 -0.277925 0.741552 0.651266 -0.161099 0.824189 0.54458 -0.155386 
-0.697854 0.649486 -0.30194 -0.767349 0.556999 -0.317691 0.876518 0.456213 -0.153576 
0.802477 0.44888 -0.393113 -0.844663 0.413958 -0.339387 -0.754115 0.37255 -0.540849 
0.94597 0.283356 -0.157642 -0.895428 0.223644 -0.384958 0.97817 0.143504 -0.1503 
-0.912043 0.0798084 -0.402253 0.988738 -0.0110334 -0.14925 -0.917761 0.0110506 -0.39698 
0.977242 -0.184958 -0.103871 -0.920006 -0.0320586 -0.390592 0.932025 -0.359665 -0.0443795 
-0.911706 -0.167588 -0.375108 0.867594 -0.494679 -0.0507208 0.854814 -0.514996 -0.063814 
0.831146 -0.518357 -0.201252 -0.842445 -0.408615 -0.351169 -0.673532 -0.655666 -0.341256 
-0.691571 -0.352551 -0.630426 0.771056 -0.620578 -0.14267 0.699518 -0.684165 -0.20638 
-0.306842 -0.906084 -0.291305 -0.611102 -0.718568 -0.331986 -0.436581 -0.84515 -0.308413 
-0.462476 -0.674606 -0.575347 0.569407 -0.769307 -0.28973 0.464154 -0.825183 -0.321923 
0.413885 -0.785021 -0.460913 0.222928 -0.892582 -0.391919 0.013888 -0.903353 -0.428673 
-0.128452 -0.907631 -0.399632 -0.248987 -0.901068 -0.355081 -0.297676 -0.90934 -0.290671 
-0.293426 -0.908515 -0.297493 -0.267669 -0.865877 -0.422622 0.270416 0.827953 -0.491293 
0.057855 0.855031 -0.515339 -0.12051 0.837236 -0.533398 -0.216101 0.800851 -0.558514 
0.590748 0.669104 -0.450907 0.415112 0.780458 -0.467513 0.44447 0.766809 -0.463088 
0.244015 0.721406 -0.648098 0.0467177 0.670942 -0.740037 -0.130071 0.653752 -0.745446 
-0.259674 0.770974 -0.581522 -0.215933 0.714392 -0.665595 -0.259918 0.770552 -0.581973 
-0.341355 0.707927 -0.618317 -0.537812 0.587922 -0.60424 0.622156 0.640122 -0.450738 
0.577514 0.634233 -0.514028 0.325426 0.52097 -0.789106 -0.167903 0.316343 -0.933668 
-0.203566 0.426924 -0.881077 -0.286395 0.510089 -0.811041 -0.539571 0.586091 -0.604451 
-0.537519 0.585625 -0.606726 0.785455 0.445794 -0.429335 0.795843 0.428332 -0.427978 
-0.216432 0.256732 -0.941937 -0.671814 0.346158 -0.654859 -0.455797 0.283175 -0.843837 
-0.700154 0.204664 -0.68403 0.855836 0.280314 -0.434706 0.751437 0.276155 -0.599234 
-0.449046 0.0831034 -0.889635 -0.700254 0.145261 -0.698959 -0.680088 0.138495 -0.71993 
0.896647 0.149816 -0.416628 0.693366 0.164528 -0.701551 -0.449451 -0.0267064 -0.892905 
-0.676236 0.0331496 -0.735939 -0.63306 0.0237996 -0.773737 0.925901 0.0196315 -0.377257 
-0.429745 -0.0370144 -0.902192 -0.637539 -0.00418883 -0.770407 -0.591715 -0.00866202 -0.806101 
0.924134 -0.126848 -0.360396 -0.407202 -0.00723544 -0.913309 -0.642655 -0.0188407 -0.765924 
-0.598884 -0.017638 -0.800642 0.89153 -0.321483 -0.319096 0.807882 -0.498175 -0.31488 
0.738761 -0.302585 -0.602225 -0.432915 -0.0598982 -0.899442 -0.649274 -0.102776 -0.753579 
-0.655575 -0.223778 -0.721211 -0.618832 -0.0940434 -0.779874 0.782703 -0.53152 -0.323825 
-0.285939 -0.252307 -0.924435 -0.644289 -0.337417 -0.686324 -0.465616 -0.625816 -0.625744 
-0.433828 -0.272463 -0.858812 0.599301 -0.676968 -0.427261 0.582842 -0.685843 -0.435792 
0.57208 -0.678463 -0.460883 0.363134 -0.747942 -0.555623 0.237915 -0.595983 -0.766943 
0.0728628 -0.503468 -0.860936 0.0318684 -0.420686 -0.906646 -0.000535302 -0.43197 -0.901888 
-0.0773184 -0.490772 -0.867851 -0.241258 -0.790484 -0.562964 -0.184432 -0.55094 -0.81391 
-0.44158 -0.660756 -0.606967 -0.320579 -0.750211 -0.578284 -0.304005 -0.621779 -0.721784 
0.213677 -0.743922 -0.633184 0.153081 -0.736758 -0.6586 0.146308 -0.721414 -0.676872 
0.0327972 -0.740663 -0.671075 0.035419 -0.697055 -0.716143 -0.0689237 -0.762052 -0.643837 
-0.0588257 -0.723679 -0.687625 -0.163256 -0.792686 -0.587364 -0.156304 -0.791157 -0.591304 
-0.154639 -0.786919 -0.597366 0.171932 0.487455 -0.856053 0.00717492 0.477792 -0.878444 
-0.135754 0.377308 -0.916084 0.474374 0.394115 -0.787174 0.270674 0.487085 -0.830352 
0.30103 0.482401 -0.822599 0.151216 0.422628 -0.893599 -0.0314005 0.323369 -0.945752 
-0.162193 0.312501 -0.935968 -0.136252 0.307954 -0.941594 -0.162657 0.2936 -0.941988 
-0.120187 0.276132 -0.953575 0.479572 0.388174 -0.786976 0.471098 0.38643 -0.79293 
0.195986 0.310505 -0.930148 0.032629 0.199237 -0.979408 -0.0646013 0.144625 -0.987375 
-0.144342 0.146457 -0.97863 -0.129114 0.159587 -0.978704 -0.159958 0.249135 -0.955168 
-0.102416 0.241812 -0.964903 -0.222308 0.209363 -0.952232 0.572627 0.247736 -0.781489 
0.412587 0.229772 -0.881463 0.129509 0.191564 -0.972898 -0.0368943 0.163827 -0.985799 
-0.101221 0.112689 -0.988461 -0.117008 0.0754568 -0.99026 -0.0807356 0.17267 -0.981665 
-0.092322 0.212258 -0.972843 -0.302261 0.107302 -0.947167 -0.232805 0.126766 -0.964226 
0.646524 0.163368 -0.745196 0.676779 0.101577 -0.729145 0.370361 0.153647 -0.916093 
0.112805 0.125639 -0.985642 -0.0489547 0.129073 -0.990426 -0.150533 0.0701891 -0.98611 
-0.0843963 -0.0580158 -0.994742 0.0142104 0.0657456 -0.997735 -0.141836 0.161588 -0.976612 
-0.399623 -0.00965744 -0.916629 -0.357057 0.016602 -0.933935 0.689039 0.0548463 -0.722646 
0.672637 0.0559658 -0.737853 0.346287 0.0543592 -0.936552 0.101098 0.0230587 -0.994609 
-0.0882692 -0.00188645 -0.996095 -0.286161 -0.0494869 -0.956903 -0.125643 -0.102496 -0.986767 
0.144373 -0.0522416 -0.988143 -0.12621 -0.0325701 -0.991469 -0.429408 -0.0501197 -0.901719 
-0.430292 -0.0533056 -0.901114 0.709013 -0.0948562 -0.698786 0.698538 -0.137639 -0.702211 
0.693909 -0.0934669 -0.713971 0.33448 -0.105114 -0.936522 0.0576295 -0.116072 -0.991567 
-0.120962 -0.156301 -0.980275 -0.243923 -0.128982 -0.961179 -0.0800259 0.0449488 -0.995779 
0.0809102 -0.000815078 -0.996721 -0.144182 -0.113923 -0.982972 -0.383371 -0.0238138 -0.923287 
-0.378248 -0.0311302 -0.925181 0.612363 -0.289377 -0.735712 0.331303 -0.264183 -0.905785 
0.0566786 -0.25215 -0.966027 -0.0990926 -0.240304 -0.965627 -0.0906542 -0.172461 -0.980836 
0.0071265 -0.0248997 -0.999665 -0.0147211 -0.0558703 -0.99833 -0.173038 -0.13145 -0.976104 
-0.342093 -0.0637078 -0.937504 -0.302119 -0.169771 -0.938031 -0.319363 -0.0689671 -0.94512 
0.441386 -0.488399 -0.752759 0.43077 -0.493876 -0.75533 0.426831 -0.485477 -0.762973 
0.167222 -0.488689 -0.856283 0.100042 -0.384231 -0.917801 0.0235897 -0.440189 -0.897595 
-0.049446 -0.322221 -0.945372 0.0111622 -0.356232 -0.934331 -0.0278289 -0.249306 -0.968025 
0.00981398 -0.375049 -0.926953 0.034509 -0.220955 -0.974673 -0.0614957 -0.418957 -0.905921 
-0.0283911 -0.253533 -0.96691 -0.254734 -0.253768 -0.93312 -0.165125 -0.377364 -0.911224 
-0.161297 -0.269092 -0.949512 
