# vtk DataFile Version 4.2
vtk output
ASCII
DATASET POLYDATA
POINTS 513 float
-14.4669 -38.5952 -15.0479 -6.53098 -38.5952 -16.4439 1.40493 -38.5952 -16.5204 
9.34083 -38.5952 -15.2955 -30.3387 -30.6593 -14.7613 -22.4028 -30.6593 -17.7622 
-14.4669 -30.6593 -19.3541 -6.53098 -30.6593 -20.3489 1.40493 -30.6593 -20.6042 
9.34083 -30.6593 -19.7999 17.2767 -30.6593 -17.6513 25.2126 -30.6593 -15.1517 
-38.2746 -22.7234 -16.2993 -30.3387 -22.7234 -18.8468 -22.4028 -22.7234 -20.1402 
-14.4669 -22.7234 -21.0365 -6.53098 -22.7234 -21.6093 1.40493 -22.7234 -21.8491 
9.34083 -22.7234 -21.4615 17.2767 -22.7234 -20.3903 25.2126 -22.7234 -19.1368 
33.1485 -22.7234 -18.2061 41.0845 -22.7234 -15.9866 -46.2105 -14.7875 -16.0383 
-38.2746 -14.7875 -19.914 -30.3387 -14.7875 -21.0195 -22.4028 -14.7875 -21.3846 
-14.4669 -14.7875 -21.5846 -6.53098 -14.7875 -21.7967 1.40493 -14.7875 -21.7992 
9.34083 -14.7875 -21.8874 17.2767 -14.7875 -20.9698 25.2126 -14.7875 -20.7136 
33.1485 -14.7875 -20.4893 41.0845 -14.7875 -19.5135 49.0204 -14.7875 -16.4329 
-46.2105 -6.8516 -18.6201 -38.2746 -6.8516 -21.0841 -30.3387 -6.8516 -21.8527 
-22.4028 -6.8516 -21.6019 -14.4669 -6.8516 -21.658 -6.53098 -6.8516 -21.6127 
1.40493 -6.8516 -20.515 9.34083 -6.8516 -21.2071 17.2767 -6.8516 -19.9975 
25.2126 -6.8516 -20.8073 33.1485 -6.8516 -21.386 41.0845 -6.8516 -20.9178 
49.0204 -6.8516 -18.1669 -46.2105 1.0843 -18.1926 -38.2746 1.0843 -21.2359 
-30.3387 1.0843 -21.8927 -22.4028 1.0843 -21.4394 -14.4669 1.0843 -21.2775 
-6.53098 1.0843 -22.3426 1.40493 1.0843 -21.2228 9.34083 1.0843 -20.3908 
17.2767 1.0843 -18.7038 25.2126 1.0843 -20.4679 33.1485 1.0843 -21.3581 
41.0845 1.0843 -21.0162 49.0204 1.0843 -18.3849 -46.2105 9.02021 -17.396 
-38.2746 9.02021 -20.8134 -30.3387 9.02021 -21.8958 -22.4028 9.02021 -21.1161 
-14.4669 9.02021 -20.912 -6.53098 9.02021 -21.4151 1.40493 9.02021 -20.8157 
9.34083 9.02021 -19.5112 17.2767 9.02021 -19.3259 25.2126 9.02021 -20.6186 
33.1485 9.02021 -21.1641 41.0845 9.02021 -20.572 49.0204 9.02021 -17.6709 
-38.2746 16.9561 -18.6012 -30.3387 16.9561 -20.3381 -22.4028 16.9561 -20.7914 
-14.4669 16.9561 -20.6283 -6.53098 16.9561 -19.8882 1.40493 16.9561 -18.7087 
9.34083 16.9561 -18.8085 17.2767 16.9561 -19.8399 25.2126 16.9561 -21.1834 
33.1485 16.9561 -20.7485 41.0845 16.9561 -19.7948 49.0204 16.9561 -16.5811 
-38.2746 24.892 -15.2655 -30.3387 24.892 -18.3985 -22.4028 24.892 -19.891 
-14.4669 24.892 -20.396 -6.53098 24.892 -20.3951 1.40493 24.892 -19.8264 
9.34083 24.892 -19.1817 17.2767 24.892 -19.4681 25.2126 24.892 -19.7348 
33.1485 24.892 -19.3514 41.0845 24.892 -17.3715 -30.3387 32.8279 -14.9052 
-22.4028 32.8279 -17.939 -14.4669 32.8279 -19.4232 -6.53098 32.8279 -20.0244 
1.40493 32.8279 -19.7274 9.34083 32.8279 -18.8439 17.2767 32.8279 -18.0116 
25.2126 32.8279 -16.9772 33.1485 32.8279 -15.6136 -14.4669 40.7638 -16.756 
-6.53098 40.7638 -18.0596 1.40493 40.7638 -18.1839 9.34083 40.7638 -16.6067 
-14.4669 -39.118 -14.5778 -6.53098 -40.6899 -14.5778 1.40493 -40.6968 -14.5778 
9.34083 -39.337 -14.5778 -30.3387 -30.9035 -14.5778 -16.2189 -38.5952 -14.5778 
-22.4028 -36.058 -14.5778 -22.4028 -38.5952 -11.9738 11.402 -38.5952 -14.5778 
17.2767 -35.6121 -14.5778 17.2767 -38.5952 -11.2023 25.2126 -31.3813 -14.5778 
-30.6915 -30.6593 -14.5778 -38.2746 -24.973 -14.5778 -38.2746 -30.6593 -8.04078 
26.8897 -30.6593 -14.5778 33.1485 -27.9286 -14.5778 33.1485 -30.6593 -10.9385 
41.0845 -24.2375 -14.5778 -40.7026 -22.7234 -14.5778 -46.2105 -16.9916 -14.5778 
-46.2105 -22.7234 -8.04427 43.2009 -22.7234 -14.5778 49.0204 -17.6342 -14.5778 
49.0204 -22.7234 -7.87963 -47.6825 -14.7875 -14.5778 51.12 -14.7875 -14.5778 
-50.0574 -6.8516 -14.5778 53.1429 -6.8516 -14.5778 56.9563 -6.8516 -7.66051 
-50.3848 1.0843 -14.5778 -54.1464 1.0843 -6.8972 53.2833 1.0843 -14.5778 
56.9563 1.0843 -7.73846 -48.9464 9.02021 -14.5778 -46.2105 15.6105 -14.5778 
52.575 9.02021 -14.5778 -45.3989 16.9561 -14.5778 -46.2105 16.9561 -13.6772 
51.061 16.9561 -14.5778 49.0204 20.4026 -14.5778 -39.1604 24.892 -14.5778 
-38.2746 25.9054 -14.5778 44.9195 24.892 -14.5778 41.0845 28.623 -14.5778 
49.0204 24.892 -8.70409 -30.8663 32.8279 -14.5778 -38.2746 32.8279 -7.38291 
-30.3387 33.2701 -14.5778 -22.4028 39.8001 -14.5778 17.2767 39.3528 -14.5778 
25.2126 36.2672 -14.5778 35.2417 32.8279 -14.5778 33.1485 33.8977 -14.5778 
41.0845 32.8279 -7.48948 -20.9545 40.7638 -14.5778 -22.4028 40.7638 -13.7626 
-14.4669 43.6652 -14.5778 -6.53098 46.3239 -14.5778 1.40493 46.1211 -14.5778 
15.1834 40.7638 -14.5778 9.34083 43.5857 -14.5778 17.2767 40.7638 -13.2976 
-6.53098 48.6997 -10.8794 1.40493 48.6997 -10.4662 -22.4028 -41.8121 -6.64192 
-14.4669 -44.429 -6.64192 -6.53098 -45.5881 -6.64192 -6.53098 -46.5311 0.127006 
1.40493 -45.4256 -6.64192 9.34083 -43.9917 -6.64192 17.2767 -41.0991 -6.64192 
-38.2746 -31.6458 -6.64192 -28.3986 -38.5952 -6.64192 -30.3387 -37.4408 -6.64192 
-30.3387 -38.5952 -2.14329 22.301 -38.5952 -6.64192 25.2126 -37.1009 -6.64192 
33.1485 -33.1659 -6.64192 -39.4627 -30.6593 -6.64192 -46.2105 -23.8091 -6.64192 
38.4262 -30.6593 -6.64192 41.0845 -29.3136 -6.64192 49.0204 -23.4213 -6.64192 
-47.1061 -22.7234 -6.64192 49.7332 -22.7234 -6.64192 -51.739 -14.7875 -6.64192 
54.9446 -14.7875 -6.64192 56.9563 -8.30438 -6.64192 -53.959 -6.8516 -6.64192 
-54.1464 -1.65497 -6.64192 57.3873 -6.8516 -6.64192 56.9563 -6.8516 -3.91499 
-54.2458 1.0843 -6.64192 -54.1464 1.67777 -6.64192 57.387 1.0843 -6.64192 
56.9563 5.29223 -6.64192 56.9563 1.0843 -4.35569 -52.8756 9.02021 -6.64192 
56.5647 9.02021 -6.64192 -49.931 16.9561 -6.64192 -46.2105 23.65 -6.64192 
54.4241 16.9561 -6.64192 -45.4302 24.892 -6.64192 -46.2105 24.892 -1.73709 
49.9395 24.892 -6.64192 49.0204 25.9811 -6.64192 49.0204 24.892 -3.54054 
-38.8578 32.8279 -6.64192 -38.2746 33.4145 -6.64192 -30.3387 40.1388 -6.64192 
25.2126 40.7292 -6.64192 33.1485 37.2249 -6.64192 41.5131 32.8279 -6.64192 
41.0845 33.1367 -6.64192 41.0845 32.8279 -5.6237 -29.4549 40.7638 -6.64192 
-30.3387 40.7638 -3.03599 -22.4028 45.1521 -6.64192 -14.4669 48.6782 -6.64192 
9.34083 48.139 -6.64192 25.144 40.7638 -6.64192 17.2767 44.6065 -6.64192 
-14.3694 48.6997 -6.64192 -6.53098 50.3661 -6.64192 7.34252 48.6997 -6.64192 
1.40493 50.322 -6.64192 -6.53098 -46.6855 1.29398 -30.3387 -39.394 1.29398 
-22.4028 -43.3388 1.29398 -7.74894 -46.5311 1.29398 -14.4669 -45.6697 1.29398 
0.153462 -46.5311 1.29398 -6.53098 -46.5311 2.4704 1.40493 -46.5019 1.29398 
9.34083 -44.9675 1.29398 17.2767 -42.1294 1.29398 -31.6083 -38.5952 1.29398 
-38.2746 -33.8227 1.29398 -30.3387 -38.5952 8.61558 24.731 -38.5952 1.29398 
25.2126 -38.3604 1.29398 33.1485 -34.4591 1.29398 -41.8324 -30.6593 1.29398 
-46.2105 -25.689 1.29398 40.3303 -30.6593 1.29398 41.0845 -30.2192 1.29398 
49.0204 -23.3845 1.29398 -48.3424 -22.7234 1.29398 49.6095 -22.7234 1.29398 
49.0204 -22.7234 2.69912 -52.0677 -14.7875 1.29398 54.0304 -14.7875 1.29398 
-53.7413 -6.8516 1.29398 -54.1464 -0.604372 1.29398 56.1458 -6.8516 1.29398 
-54.2572 1.0843 1.29398 -54.1464 1.72497 1.29398 -54.1464 1.0843 1.77022 
55.8789 1.0843 1.29398 -52.8848 9.02021 1.29398 54.9658 9.02021 1.29398 
-50.5316 16.9561 1.29398 52.3985 16.9561 1.29398 49.0204 22.6045 1.29398 
49.0204 16.9561 6.93601 -46.6624 24.892 1.29398 -46.2105 25.5791 1.29398 
-46.2105 24.892 2.93901 47.1443 24.892 1.29398 41.0845 30.2384 1.29398 
41.0845 24.892 7.92623 -40.6067 32.8279 1.29398 -38.2746 35.1578 1.29398 
-38.2746 32.8279 7.5259 25.2126 38.4662 1.29398 25.2126 32.8279 8.20133 
36.664 32.8279 1.29398 33.1485 34.9199 1.29398 33.1485 32.8279 3.86405 
-31.3338 40.7638 1.29398 -30.3387 41.4709 1.29398 -30.3387 40.7638 3.22512 
-22.4028 45.7401 1.29398 -14.4669 48.3579 1.29398 9.34083 46.5144 1.29398 
20.8533 40.7638 1.29398 17.2767 42.8399 1.29398 17.2767 40.7638 4.10998 
-12.0526 48.6997 1.29398 -6.53098 49.5268 1.29398 -6.53098 48.6997 2.95681 
2.44602 48.6997 1.29398 1.40493 49.0394 1.29398 1.40493 48.6997 1.89648 
-22.4028 -42.3869 9.22989 -14.4669 -44.6171 9.22989 -6.53098 -45.5926 9.22989 
1.40493 -45.2667 9.22989 9.34083 -43.6185 9.22989 17.2767 -40.7998 9.22989 
-38.2746 -32.8636 9.22989 -30.2114 -38.5952 9.22989 -30.3387 -38.5272 9.22989 
-22.4028 -38.5952 16.3019 22.094 -38.5952 9.22989 17.2767 -38.5952 13.3905 
25.2126 -37.1223 9.22989 33.1485 -33.0809 9.22989 -40.6603 -30.6593 9.22989 
-46.2105 -23.9354 9.22989 -38.2746 -30.6593 13.2467 37.128 -30.6593 9.22989 
33.1485 -30.6593 13.379 41.0845 -27.7424 9.22989 -47.0276 -22.7234 9.22989 
-46.2105 -22.7234 10.9839 46.0135 -22.7234 9.22989 41.0845 -22.7234 14.8477 
49.0204 -17.4968 9.22989 -50.4615 -14.7875 9.22989 -46.2105 -14.7875 16.5204 
50.3511 -14.7875 9.22989 49.0204 -14.7875 10.9239 -51.8874 -6.8516 9.22989 
51.9181 -6.8516 9.22989 49.0204 -6.8516 12.7332 -52.2347 1.0843 9.22989 
51.5072 1.0843 9.22989 49.0204 1.0843 12.0388 -50.9217 9.02021 9.22989 
-46.2105 9.02021 15.8797 41.0845 9.02021 16.362 50.2439 9.02021 9.22989 
49.0204 12.534 9.22989 49.0204 9.02021 10.5439 -48.5183 16.9561 9.22989 
-46.2105 21.594 9.22989 -46.2105 16.9561 12.4531 33.1485 16.9561 16.8328 
46.819 16.9561 9.22989 41.0845 23.3417 9.22989 41.0845 16.9561 13.2154 
-44.1705 24.892 9.22989 -38.2746 32.0504 9.22989 -38.2746 24.892 14.8366 
17.2767 24.892 16.142 25.2126 31.6536 9.22989 25.2126 24.892 14.11 
38.9895 24.892 9.22989 33.1485 28.1083 9.22989 33.1485 24.892 11.94 
-37.3937 32.8279 9.22989 -30.3387 38.1546 9.22989 -30.3387 32.8279 13.9842 
-22.4028 32.8279 16.5429 -14.4669 32.8279 16.8748 -6.53098 32.8279 16.9504 
1.40493 32.8279 16.2472 9.34083 32.8279 14.2347 22.9061 32.8279 9.22989 
17.2767 35.7972 9.22989 17.2767 32.8279 11.3482 -25.6509 40.7638 9.22989 
-22.4028 42.2891 9.22989 -22.4028 40.7638 11.0038 -14.4669 44.2551 9.22989 
-14.4669 40.7638 12.706 -6.53098 44.9002 9.22989 -6.53098 40.7638 12.9532 
1.40493 43.6805 9.22989 1.40493 40.7638 11.8476 9.35442 40.7638 9.22989 
9.34083 40.7705 9.22989 9.34083 40.7638 9.23628 -14.4669 -40.2688 17.1658 
[...]
POINT_DATA 513
SCALARS ImageScalars float
LOOKUP_TABLE default
0 0 0 0 0 0 0 0 0 
0 0 0 0 0 0 0 0 0 
0 0 0 0 0 0 0 0 0 
0 0 0 0 0 0 0 0 0 
0 0 0 0 0 0 0 0 0 
0 0 0 0 0 0 0 0 0 
0 0 0 0 0 0 0 0 0 
0 0 0 0 0 0 0 0 0 
0 0 0 0 0 0 0 0 0 
0 0 0 0 0 0 0 0 0 
0 0 0 0 0 0 0 0 0 
0 0 0 0 0 0 0 0 0 
0 0 0 0 0 0 0 0 0 
0 0 0 0 0 0 0 0 0 
0 0 0 0 0 0 0 0 0 
0 0 0 0 0 0 0 0 0 
0 0 0 0 0 0 0 0 0 
0 0 0 0 0 0 0 0 0 
0 0 0 0 0 0 0 0 0 
0 0 0 0 0 0 0 0 0 
0 0 0 0 0 0 0 0 0 
0 0 0 0 0 0 0 0 0 
0 0 0 0 0 0 0 0 0 
0 0 0 0 0 0 0 0 0 
0 0 0 0 0 0 0 0 0 
0 0 0 0 0 0 0 0 0 
0 0 0 0 0 0 0 0 0 
0 0 0 0 0 0 0 0 0 
0 0 0 0 0 0 0 0 0 
0 0 0 0 0 0 0 0 0 
0 0 0 0 0 0 0 0 0 
0 0 0 0 0 0 0 0 0 
0 0 0 0 0 0 0 0 0 
0 0 0 0 0 0 0 0 0 
0 0 0 0 0 0 0 0 0 
0 0 0 0 0 0 0 0 0 
0 0 0 0 0 0 0 0 0 
0 0 0 0 0 0 0 0 0 
0 0 0 0 0 0 0 0 0 
0 0 0 0 0 0 0 0 0 
0 0 0 0 0 0 0 0 0 
0 0 0 0 0 0 0 0 0 
0 0 0 0 0 0 0 0 0 
0 0 0 0 0 0 0 0 0 
0 0 0 0 0 0 0 0 0 
0 0 0 0 0 0 0 0 0 
0 0 0 0 0 0 0 0 0 
0 0 0 0 0 0 0 0 0 
0 0 0 0 0 0 0 0 0 
0 0 0 0 0 0 0 0 0 
0 0 0 0 0 0 0 0 0 
0 0 0 0 0 0 0 0 0 
0 0 0 0 0 0 0 0 0 
0 0 0 0 0 0 0 0 0 
0 0 0 0 0 0 0 0 0 
0 0 0 0 0 0 0 0 0 
0 0 0 0 0 0 0 0 0 

NORMALS Normals float
0.185749 0.637398 0.747811 0.0783135 0.598472 0.797307 -0.0594979 0.617138 0.784602 
-0.206347 0.668001 0.714979 0.388817 0.540365 0.746208 0.258709 0.388935 0.884194 
0.14963 0.32795 0.93277 0.0749852 0.285237 0.955519 -0.033408 0.290513 0.956288 
-0.164778 0.329672 0.929605 -0.264672 0.430294 0.863016 -0.284003 0.583734 0.760655 
0.411515 0.50399 0.759375 0.202774 0.353378 0.91324 0.129041 0.216647 0.967684 
0.0898836 0.136361 0.986573 0.0503888 0.0849075 0.995114 -0.00958401 0.0691303 0.997562 
-0.0904018 0.125056 0.988023 -0.143668 0.187129 0.971773 -0.133352 0.31442 0.939871 
-0.168041 0.426807 0.888593 -0.394269 0.587814 0.706418 0.612602 0.379553 0.693295 
0.271308 0.262591 0.925979 0.0865521 0.175307 0.980702 0.0350129 0.0888614 0.995428 
0.0259098 0.03863 0.998918 0.0135279 0.000399778 0.999908 0.00568086 -0.0828923 0.996542 
-0.051867 -0.0147365 0.998545 -0.0752162 -0.0243765 0.996869 -0.0288715 0.0986649 0.994702 
-0.0746709 0.188191 0.97929 -0.234845 0.256395 0.937608 -0.567091 0.369437 0.736155 
0.562428 0.110202 0.81947 0.157981 0.0748081 0.984604 0.0341582 0.0528164 0.99802 
-0.0122218 0.00327474 0.99992 0.000747393 -0.0193187 0.999813 -0.0721537 0.0333184 0.996837 
-0.0257766 -0.0394153 0.99889 -0.0328366 -0.0912101 0.99529 -0.0233666 -0.143201 0.989418 
0.0869 -0.0150276 0.996104 0.00816132 0.0536124 0.998528 -0.173625 0.0942686 0.98029 
-0.511887 0.115936 0.851194 0.551799 -0.0591797 0.831875 0.203586 -0.0135775 0.978963 
0.0140102 0.00270462 0.999898 -0.0387026 -0.0305801 0.998783 0.0555451 -0.0476767 0.997317 
6.56886e-05 -0.0116524 0.999932 -0.119558 0.0219097 0.992585 -0.165239 -0.108573 0.980259 
0.0152344 -0.0420513 0.998999 0.166168 -0.0118552 0.986026 0.0351533 -0.0139695 0.999284 
-0.155955 -0.0215489 0.987529 -0.522394 -0.0266245 0.852289 0.601641 -0.22254 0.76714 
0.227713 -0.158358 0.960765 0.0119844 -0.097545 0.995159 -0.0602277 -0.040612 0.997358 
0.017804 -0.0410513 0.998998 -0.00216837 -0.15633 0.987703 -0.121754 -0.167765 0.97828 
-0.0890732 -0.0986063 0.991132 0.0708045 0.0718982 0.994896 0.114838 0.0444059 0.992391 
-0.0016501 -0.0382559 0.999267 -0.187255 -0.0776477 0.979238 -0.544413 -0.105644 0.832138 
0.338397 -0.297302 0.892804 0.129489 -0.203864 0.970398 0.0174256 -0.0758321 0.996968 
-0.0559214 -0.0324293 0.997908 -0.121033 -0.0610291 0.990771 -0.0668663 -0.0503502 0.996491 
0.0709435 -0.0181014 0.997316 0.148267 0.00908042 0.988906 0.0579182 -0.0613748 0.996433 
-0.0868415 -0.10691 0.990469 -0.232636 -0.161066 0.959134 -0.626567 -0.304139 0.717574 
0.484049 -0.46631 0.74044 0.254307 -0.304521 0.91793 0.115869 -0.172861 0.978107 
0.0307522 -0.0753127 0.996686 -0.0349007 0.00854002 0.999354 -0.0771653 0.0648597 0.994906 
-0.0217092 0.00143015 0.999763 0.0360092 -0.107451 0.993558 -0.00566532 -0.236078 0.971718 
-0.123163 -0.290416 0.948941 -0.413092 -0.465069 0.782985 0.432315 -0.496799 0.752526 
0.250665 -0.330408 0.909944 0.123741 -0.210152 0.969806 0.0199809 -0.142446 0.989601 
-0.0769948 -0.102765 0.991721 -0.100714 -0.151758 0.983273 -0.118181 -0.303265 0.945549 
-0.137529 -0.505105 0.85203 -0.296152 -0.656897 0.693383 0.22368 -0.490935 0.841992 
0.0848013 -0.397626 0.91362 -0.0879152 -0.38594 0.918325 -0.239689 -0.469873 0.84957 
0.189119 0.657325 0.729491 0.0763683 0.689503 0.720246 -0.0687394 0.70637 0.704498 
-0.210636 0.697702 0.684722 0.392892 0.54667 0.739451 0.220909 0.653434 0.724032 
0.324786 0.604636 0.727275 0.364269 0.733593 0.573716 -0.245418 0.685187 0.685777 
-0.328261 0.614048 0.717767 -0.378193 0.771851 0.511093 -0.30051 0.607426 0.735342 
0.394701 0.546358 0.738718 0.447734 0.555499 0.700682 0.570979 0.712077 0.408571 
-0.298178 0.622926 0.723224 -0.290526 0.65156 0.70076 -0.369443 0.795534 0.480248 
-0.407478 0.64103 0.650417 0.48525 0.536347 0.690554 0.632823 0.435058 0.640516 
0.729091 0.581491 0.360962 -0.460975 0.609053 0.645411 -0.602385 0.455164 0.655711 
-0.673049 0.685321 0.2781 0.682703 0.371366 0.629288 -0.67596 0.370015 0.637313 
0.771142 0.139945 0.621092 -0.739517 0.116862 0.662916 -0.972132 0.146444 0.183068 
0.761616 -0.0562829 0.64558 0.977088 -0.064107 0.202951 -0.737416 -0.0271943 0.674891 
-0.984757 -0.0469595 0.167477 0.735898 -0.248343 0.629904 0.665424 -0.381741 0.641471 
-0.740209 -0.124411 0.660766 0.639624 -0.400024 0.6564 0.689818 -0.411773 0.595478 
-0.730548 -0.311873 0.607482 -0.664969 -0.419727 0.617775 0.51302 -0.47845 0.712668 
0.499728 -0.487868 0.715721 -0.553541 -0.541231 0.632978 -0.48129 -0.611505 0.62803 
-0.762017 -0.617166 0.196053 0.443912 -0.505496 0.739875 0.655436 -0.658571 0.369712 
0.441461 -0.505992 0.741002 0.392256 -0.580317 0.7137 -0.296147 -0.602824 0.740878 
-0.227351 -0.656645 0.719117 -0.363641 -0.688484 0.627499 -0.320398 -0.705724 0.631901 
-0.553469 -0.82878 0.0824315 0.375051 -0.594389 0.711364 0.417248 -0.631218 0.65381 
0.271738 -0.622648 0.733804 0.112499 -0.695733 0.709436 -0.121253 -0.69587 0.707858 
-0.312299 -0.613436 0.725373 -0.285381 -0.614236 0.735712 -0.356384 -0.708339 0.609301 
0.112244 -0.907653 0.404435 -0.138851 -0.919439 0.367902 0.382098 0.859015 0.340725 
0.213619 0.920888 0.326086 0.0585555 0.951044 0.303457 0.0526723 0.997718 0.0422386 
-0.0948985 0.949885 0.297846 -0.250586 0.923249 0.291234 -0.392404 0.872522 0.291073 
0.586058 0.729545 0.352562 0.47014 0.807827 0.355505 0.492441 0.789725 0.365837 
0.505602 0.843247 0.182487 -0.418238 0.858409 0.297004 -0.423212 0.851156 0.310523 
-0.402758 0.863677 0.303066 0.603637 0.718131 0.346282 0.743809 0.595775 0.302986 
-0.474422 0.831104 0.290153 -0.515235 0.809502 0.281495 -0.675778 0.706111 0.211498 
0.762724 0.575961 0.294145 -0.696781 0.685569 0.210932 0.911595 0.346846 0.220663 
-0.904781 0.403019 0.137651 -0.973231 0.191065 0.127735 0.973706 0.143936 0.176576 
0.982463 0.00787656 0.186294 -0.980921 0.145512 0.128919 -0.99027 0.138069 -0.0173725 
0.979513 -0.0641935 0.190874 0.978554 -0.0781976 0.190571 -0.9936 -0.0501955 0.101192 
-0.988856 -0.116722 0.0924141 -0.99827 -0.0558114 -0.0184819 0.947631 -0.253926 0.193693 
-0.979842 -0.178717 0.0892757 0.882514 -0.399891 0.247501 0.812187 -0.503562 0.294581 
-0.925224 -0.373854 0.064755 0.794333 -0.523236 0.308642 0.849101 -0.521992 0.0809431 
-0.791264 -0.608141 0.0637599 -0.765596 -0.640178 0.063516 -0.773628 -0.622867 -0.116346 
0.670694 -0.661678 0.335189 0.661671 -0.670334 0.335922 0.553387 -0.764691 0.330168 
-0.425051 -0.903365 0.0571246 -0.429038 -0.90135 0.0591127 -0.558429 -0.829032 0.0293765 
-0.549744 -0.834868 0.027861 -0.549215 -0.835219 -0.0277866 0.546166 -0.774066 0.320194 
0.560925 -0.816087 0.139159 0.453759 -0.847834 0.274372 0.295276 -0.935819 0.192495 
-0.335727 -0.936802 0.0984368 -0.425254 -0.903252 0.0573914 -0.429944 -0.893731 0.128034 
0.2929 -0.936771 0.191492 0.0999686 -0.985369 0.138039 -0.285212 -0.953314 0.0992273 
-0.13631 -0.982283 0.128603 0.0516356 0.998666 0.000213993 0.503692 0.862366 0.0511679 
0.359029 0.932932 0.0271103 0.0742059 0.997242 0.00165756 0.200037 0.979745 0.00917665 
-0.0814144 0.996655 -0.00714158 0.0501348 0.997979 -0.0390439 -0.106247 0.994303 -0.00858771 
-0.259517 0.965494 -0.0217124 -0.39049 0.920419 -0.0186053 0.52373 0.850323 0.0515552 
0.638273 0.767982 0.0530186 0.489428 0.845271 -0.214424 -0.431668 0.902031 -0.00158286 
-0.433431 0.901187 -0.000516287 -0.455876 0.890016 -0.00700435 0.699151 0.713972 0.0378347 
0.804475 0.59395 0.00657795 -0.524994 0.849123 -0.0580551 -0.539404 0.839439 -0.0662289 
-0.7472 0.643426 -0.166418 0.851268 0.524522 -0.0148561 -0.763021 0.622356 -0.174564 
-0.758377 0.612154 -0.223901 0.950206 0.30266 -0.0742007 -0.904342 0.34732 -0.24806 
0.984144 0.129317 -0.121395 0.993126 -0.0140766 -0.116203 -0.946916 0.114219 -0.300508 
0.992023 -0.0531541 -0.114302 0.991164 -0.0665712 -0.11473 0.990096 -0.0536843 -0.129725 
-0.943034 -0.0698073 -0.325291 0.969047 -0.218798 -0.114351 -0.916777 -0.205668 -0.342375 
0.932144 -0.353321 -0.079202 -0.847459 -0.384044 -0.366501 -0.742181 -0.539023 -0.398274 
-0.716922 -0.408056 -0.565256 0.858364 -0.510203 -0.0538856 0.850096 -0.523753 -0.0549421 
0.847031 -0.516273 -0.126493 -0.679233 -0.606145 -0.4138 -0.511325 -0.74494 -0.428499 
-0.487956 -0.600967 -0.633038 0.726997 -0.684269 -0.0570221 0.686651 -0.724913 -0.0548859 
0.645122 -0.666421 -0.373764 -0.375815 -0.821277 -0.429263 -0.312163 -0.655753 -0.687417 
-0.451811 -0.777098 -0.43816 -0.423088 -0.799091 -0.427142 -0.404266 -0.745239 -0.530272 
0.55961 -0.824759 -0.0812937 0.542554 -0.835631 -0.0857725 0.532038 -0.826685 -0.183106 
0.381886 -0.912521 -0.14652 0.220054 -0.948477 -0.227963 -0.320489 -0.87217 -0.369602 
-0.430917 -0.802399 -0.412875 -0.456152 -0.801174 -0.387358 -0.451452 -0.730265 -0.512742 
0.166249 -0.95503 -0.245518 0.0423336 -0.95803 -0.283524 0.0307231 -0.934312 -0.355131 
-0.197569 -0.917221 -0.345937 -0.179915 -0.922014 -0.342814 -0.182437 -0.9115 -0.368625 
0.338505 0.901112 -0.270945 0.188903 0.942085 -0.277113 0.0391514 0.958324 -0.282988 
-0.116126 0.946216 -0.301978 -0.257745 0.916018 -0.307374 -0.36961 0.879487 -0.299819 
0.639455 0.731014 -0.238151 0.484367 0.842115 -0.237132 0.486782 0.840861 -0.236635 
0.291976 0.749234 -0.594473 -0.40153 0.869661 -0.287164 -0.34612 0.810113 -0.4732 
-0.418452 0.862818 -0.283624 -0.477587 0.823626 -0.305862 0.683354 0.688337 -0.24335 
0.818854 0.51146 -0.260553 0.62682 0.662613 -0.409929 -0.52455 0.782938 -0.334448 
-0.476578 0.726973 -0.494351 -0.597983 0.699735 -0.390881 0.835608 0.481532 -0.264358 
0.817272 0.473781 -0.328021 -0.709894 0.535212 -0.457819 -0.588268 0.472027 -0.656605 
-0.776523 0.358063 -0.518462 0.904559 0.270285 -0.329726 0.734149 0.20429 -0.647527 
-0.797746 0.276583 -0.53582 -0.763714 0.268255 -0.587179 0.927928 0.101024 -0.35881 
-0.799694 0.0654957 -0.596825 -0.712783 0.046038 -0.699872 0.915192 -0.058994 -0.398676 
-0.781387 -0.0852919 -0.618191 -0.704694 -0.0993907 -0.702516 0.896105 -0.209615 -0.391225 
0.647961 -0.215562 -0.730533 -0.446012 -0.235435 -0.863507 -0.743785 -0.205388 -0.636082 
-0.705394 -0.292368 -0.645709 -0.704431 -0.206948 -0.678933 0.836822 -0.356016 -0.41591 
0.787259 -0.451418 -0.420054 0.748324 -0.356859 -0.559162 -0.281974 -0.402324 -0.870991 
-0.624484 -0.410402 -0.664523 -0.473969 -0.557537 -0.681547 -0.457075 -0.409227 -0.789694 
0.73216 -0.513471 -0.447537 0.615944 -0.632801 -0.469229 0.47535 -0.472703 -0.74202 
-0.196578 -0.448279 -0.872011 -0.293271 -0.624654 -0.72374 -0.217845 -0.527753 -0.820987 
-0.425436 -0.589987 -0.686235 -0.317816 -0.626614 -0.711581 -0.284444 -0.578968 -0.764125 
0.598227 -0.643731 -0.477216 0.44653 -0.718321 -0.533503 0.364656 -0.544248 -0.755526 
0.144738 -0.402768 -0.903786 0.0217197 -0.332992 -0.94268 -0.0373592 -0.302678 -0.95236 
-0.148659 -0.338807 -0.929037 -0.26522 -0.450068 -0.8527 -0.307813 -0.614972 -0.72599 
-0.35061 -0.592693 -0.725113 -0.305802 -0.544986 -0.780689 0.364758 -0.755143 -0.544711 
0.300841 -0.768171 -0.565162 0.282035 -0.71772 -0.636659 0.135931 -0.763098 -0.631826 
0.0909206 -0.634419 -0.767624 -0.0250948 -0.739614 -0.672563 -0.0458646 -0.586856 -0.808391 
-0.194997 -0.694393 -0.692672 -0.186186 -0.609442 -0.770659 -0.312066 -0.633078 -0.708398 
-0.311902 -0.633185 -0.708374 -0.311889 -0.632993 -0.708551 0.156649 0.731394 -0.66372 
0.0178937 0.724238 -0.689318 -0.102144 0.71816 -0.68834 -0.218954 0.701209 -0.678502 
0.408482 0.672945 -0.616674 0.25062 0.721302 -0.645688 0.275285 0.711061 -0.647002 
0.141992 0.666275 -0.732063 0.00776881 0.618739 -0.785558 -0.091916 0.635351 -0.766734 
-0.233831 0.700124 -0.674648 -0.215609 0.684704 -0.696199 -0.287665 0.679811 -0.674616 
-0.356601 0.652945 -0.668205 0.516744 0.600865 -0.609867 0.575553 0.527134 -0.625194 
0.365056 0.540527 -0.758001 0.143324 0.404894 -0.903061 0.0599685 0.292597 -0.954354 
0.00863274 0.273341 -0.961878 -0.05551 0.278252 -0.958903 -0.110015 0.362747 -0.925371 
-0.198635 0.484104 -0.852166 -0.392532 0.622329 -0.677218 -0.338085 0.59047 -0.732832 
-0.441599 0.53289 -0.721816 0.655453 0.407524 -0.63585 0.50051 0.35754 -0.788451 
0.223379 0.202626 -0.953438 0.0651562 0.133961 -0.988842 0.00450831 0.088248 -0.996088 
-0.0185774 0.0564183 -0.998234 -0.0078063 0.0821377 -0.99659 -0.00552588 0.159376 -0.987203 
-0.0958976 0.194322 -0.976239 -0.239618 0.268985 -0.932862 -0.502341 0.415308 -0.758402 
-0.411212 0.364348 -0.835557 -0.541899 0.254399 -0.801016 0.702694 0.193046 -0.684803 
0.706823 0.13959 -0.693482 0.397696 0.102156 -0.911812 0.143555 0.0158104 -0.989516 
0.0214218 -0.0369967 -0.999086 -0.0244398 -0.0524669 -0.998324 0.00353435 -0.0145104 -0.999888 
0.0511395 0.0132215 -0.998604 0.00556934 0.0260077 -0.999646 -0.0840119 -0.0297734 -0.99602 
-0.196615 -0.0271316 -0.980105 -0.311224 0.0575786 -0.948591 -0.553958 0.163477 -0.816337 
-0.514454 0.143992 -0.845342 0.699426 0.0455401 -0.713252 0.669562 0.0406399 -0.741644 
0.308214 -0.027495 -0.95092 0.104503 -0.0968186 -0.989801 -0.00438306 -0.119971 -0.992768 
0.0267861 -0.0633894 -0.997629 0.0477879 0.0637717 -0.99682 0.0332451 -0.0610084 -0.997583 
-0.0469448 -0.07836 -0.995819 -0.152103 -0.131045 -0.979639 -0.147525 -0.126536 -0.980931 
-0.248379 -0.0703915 -0.966102 -0.48033 -0.00666373 -0.877062 -0.424053 -0.0206951 -0.905401 
0.654029 -0.0912927 -0.75094 0.632506 -0.127816 -0.763937 0.635185 -0.0937045 -0.766655 
0.270357 -0.0979231 -0.957767 0.068075 -0.111541 -0.991425 0.0467649 -0.150708 -0.987472 
0.163927 -0.111539 -0.980146 -0.0903717 -0.164597 -0.982212 -0.0609735 -0.146262 -0.987365 
-0.139338 -0.104826 -0.984681 -0.12888 -0.0948632 -0.987112 -0.224285 -0.105056 -0.968844 
-0.454643 -0.105209 -0.884438 -0.431003 -0.165199 -0.8871 -0.419369 -0.102863 -0.901969 
0.549199 -0.209848 -0.808916 0.330104 -0.182388 -0.926157 0.0484222 -0.168196 -0.984564 
-0.00388612 -0.157873 -0.987452 0.0948215 -0.228076 -0.969015 -0.0104751 -0.379892 -0.924971 
-0.0288924 -0.258171 -0.965667 0.0120919 -0.214334 -0.976686 -0.094372 -0.160783 -0.982468 
-0.157066 -0.172696 -0.972372 -0.395901 -0.22652 -0.889916 -0.27834 -0.378004 -0.882972 
-0.256083 -0.194121 -0.946963 0.455632 -0.30762 -0.835326 0.385911 -0.362491 -0.848336 
0.33986 -0.288272 -0.895207 0.083164 -0.243596 -0.966305 -0.0111851 -0.149248 -0.988737 
-0.0456145 -0.169817 -0.984419 -0.0203145 -0.259365 -0.965566 0.0538647 -0.209323 -0.976362 
0.0242752 -0.287222 -0.957556 -0.167019 -0.417469 -0.89321 -0.0970869 -0.338417 -0.935974 
-0.259693 -0.396857 -0.880377 -0.180798 -0.423696 -0.887578 -0.165478 -0.37399 -0.912551 
0.272002 -0.347569 -0.897335 0.245002 -0.346352 -0.905546 0.222861 -0.315717 -0.92231 
0.123576 -0.354013 -0.92704 0.0685117 -0.208957 -0.975522 0.0104075 -0.308596 -0.951136 
-0.0432078 -0.170253 -0.984453 -0.0384542 -0.27582 -0.96044 -0.0471014 -0.138244 -0.989277 
-0.0952561 -0.261052 -0.960613 -0.0383518 -0.186997 -0.981612 -0.140769 -0.376337 -0.915726 
-0.134669 -0.352386 -0.926115 -0.110647 -0.334653 -0.935823 0.00293006 -0.0548576 -0.99849 
0.00504606 -0.0628054 -0.998013 -0.0022364 -0.0643994 -0.997922 0.000145663 -0.0694701 -0.997584 

