# vtk DataFile Version 4.2
vtk output
ASCII
DATASET POLYDATA
POINTS 492 float
5.92741 -35.6521 -15.177 14.0944 -35.6521 -15.1996 -34.9076 -27.4851 -14.8105 
-26.7406 -27.4851 -16.4829 -18.5736 -27.4851 -16.7889 -10.4066 -27.4851 -16.8353 
-2.23958 -27.4851 -17.4016 5.92741 -27.4851 -18.6386 14.0944 -27.4851 -19.5737 
22.2614 -27.4851 -18.8296 30.4284 -27.4851 -17.0126 -43.0746 -19.3181 -15.869 
-34.9076 -19.3181 -18.0919 -26.7406 -19.3181 -19.3207 -18.5736 -19.3181 -19.3134 
-10.4066 -19.3181 -19.3477 -2.23958 -19.3181 -19.5924 5.92741 -19.3181 -20.3201 
14.0944 -19.3181 -20.8113 22.2614 -19.3181 -20.7477 30.4284 -19.3181 -19.7174 
38.5954 -19.3181 -18.158 46.7624 -19.3181 -15.4167 -43.0746 -11.1511 -18.141 
-34.9076 -11.1511 -19.7436 -26.7406 -11.1511 -19.9512 -18.5736 -11.1511 -19.6983 
-10.4066 -11.1511 -20.9201 -2.23958 -11.1511 -21.0864 5.92741 -11.1511 -21.0816 
14.0944 -11.1511 -21.0441 22.2614 -11.1511 -20.6447 30.4284 -11.1511 -20.8159 
38.5954 -11.1511 -20.2568 46.7624 -11.1511 -18.7599 -51.2415 -2.98414 -15.5494 
-43.0746 -2.98414 -18.6128 -34.9076 -2.98414 -19.6159 -26.7406 -2.98414 -19.6452 
-18.5736 -2.98414 -19.8452 -10.4066 -2.98414 -22.3346 -2.23958 -2.98414 -20.1029 
5.92741 -2.98414 -21.7814 14.0944 -2.98414 -21.4485 22.2614 -2.98414 -20.4079 
30.4284 -2.98414 -21.0578 38.5954 -2.98414 -21.4153 46.7624 -2.98414 -20.4293 
54.9294 -2.98414 -17.5089 -51.2415 5.18286 -15.9746 -43.0746 5.18286 -18.927 
-34.9076 5.18286 -19.8602 -26.7406 5.18286 -19.8796 -18.5736 5.18286 -20.1865 
-10.4066 5.18286 -22.2596 -2.23958 5.18286 -21.1172 5.92741 5.18286 -22.1485 
14.0944 5.18286 -20.5842 22.2614 5.18286 -20.5342 30.4284 5.18286 -21.4449 
38.5954 5.18286 -21.8149 46.7624 5.18286 -21.2807 54.9294 5.18286 -18.0415 
-51.2415 13.3499 -15.181 -43.0746 13.3499 -19.2829 -34.9076 13.3499 -20.5716 
-26.7406 13.3499 -20.5387 -18.5736 13.3499 -20.7505 -10.4066 13.3499 -20.8231 
-2.23958 13.3499 -20.4492 5.92741 13.3499 -20.7892 14.0944 13.3499 -20.4891 
22.2614 13.3499 -21.3666 30.4284 13.3499 -22.2123 38.5954 13.3499 -22.554 
46.7624 13.3499 -20.1764 54.9294 13.3499 -15.9806 -43.0746 21.5168 -17.4751 
-34.9076 21.5168 -19.8795 -26.7406 21.5168 -21.2435 -18.5736 21.5168 -21.6919 
-10.4066 21.5168 -21.4516 -2.23958 21.5168 -21.4037 5.92741 21.5168 -21.5667 
14.0944 21.5168 -21.8957 22.2614 21.5168 -21.6133 30.4284 21.5168 -21.4677 
38.5954 21.5168 -21.0937 46.7624 21.5168 -18.1597 -34.9076 29.6838 -18.0541 
-26.7406 29.6838 -21.1049 -18.5736 29.6838 -21.4938 -10.4066 29.6838 -22.4153 
-2.23958 29.6838 -21.5007 5.92741 29.6838 -21.5961 14.0944 29.6838 -21.9723 
22.2614 29.6838 -21.0446 30.4284 29.6838 -20.2399 38.5954 29.6838 -17.7135 
-26.7406 37.8508 -17.0148 -18.5736 37.8508 -18.8571 -10.4066 37.8508 -19.841 
-2.23958 37.8508 -19.7894 5.92741 37.8508 -19.6397 14.0944 37.8508 -18.52 
22.2614 37.8508 -16.5704 5.92741 -36.2503 -14.7166 14.0944 -36.1932 -14.7166 
-34.9076 -27.6088 -14.7166 -26.7406 -30.0251 -14.7166 -26.7406 -35.6521 -8.52392 
-18.5736 -30.6804 -14.7166 -18.5736 -35.6521 -10.1302 -10.4066 -31.4648 -14.7166 
-10.4066 -35.6521 -11.8336 2.88295 -35.6521 -14.7166 -2.23958 -33.8893 -14.7166 
-2.23958 -35.6521 -13.7947 16.3928 -35.6521 -14.7166 22.2614 -33.9393 -14.7166 
22.2614 -35.6521 -11.8865 30.4284 -30.2678 -14.7166 -35.1493 -27.4851 -14.7166 
-43.0746 -21.6092 -14.7166 -43.0746 -27.4851 -10.8014 35.9256 -27.4851 -14.7166 
38.5954 -25.6571 -14.7166 38.5954 -27.4851 -12.5053 46.7624 -20.2978 -14.7166 
-44.9516 -19.3181 -14.7166 -51.2415 -19.3181 -9.44373 47.9334 -19.3181 -14.7166 
-49.9714 -11.1511 -14.7166 -51.2415 -7.79928 -14.7166 -51.2415 -11.1511 -13.8898 
54.7656 -11.1511 -14.7166 54.9294 -10.9353 -14.7166 54.9294 -11.1511 -14.5956 
-52.5871 -2.98414 -14.7166 58.3727 -2.98414 -14.7166 63.0964 -2.98414 -6.90723 
-52.8675 5.18286 -14.7166 58.9107 5.18286 -14.7166 63.0964 5.18286 -7.01331 
-52.0086 13.3499 -14.7166 -51.2415 14.8141 -14.7166 56.382 13.3499 -14.7166 
54.9294 16.0599 -14.7166 -47.3442 21.5168 -14.7166 -51.2415 21.5168 -10.9173 
-43.0746 28.5045 -14.7166 51.348 21.5168 -14.7166 46.7624 26.4578 -14.7166 
-42.2004 29.6838 -14.7166 -43.0746 29.6838 -13.7765 -34.9076 35.7154 -14.7166 
30.4284 37.1396 -14.7166 43.0145 29.6838 -14.7166 38.5954 32.5099 -14.7166 
-31.5336 37.8508 -14.7166 -34.9076 37.8508 -9.88568 -26.7406 39.7811 -14.7166 
-18.5736 42.2243 -14.7166 -10.4066 43.005 -14.7166 -2.23958 42.711 -14.7166 
5.92741 42.4106 -14.7166 14.0944 41.277 -14.7166 28.306 37.8508 -14.7166 
22.2614 39.4781 -14.7166 30.4284 37.8508 -10.2024 -26.7406 -36.946 -6.54964 
-18.5736 -38.3601 -6.54964 -10.4066 -40.1382 -6.54964 -2.23958 -41.9463 -6.54964 
5.92741 -42.3221 -6.54964 14.0944 -40.8055 -6.54964 22.2614 -37.7836 -6.54964 
-43.0746 -30.8685 -6.54964 -33.0244 -35.6521 -6.54964 -34.9076 -35.2267 -6.54964 
-34.9076 -35.6521 -5.07963 27.2916 -35.6521 -6.54964 30.4284 -34.2714 -6.54964 
38.5954 -30.3741 -6.54964 -47.2449 -27.4851 -6.54964 -51.2415 -22.6499 -6.54964 
44.005 -27.4851 -6.54964 46.7624 -25.834 -6.54964 -53.4254 -19.3181 -6.54964 
54.9218 -19.3181 -6.54964 54.9294 -19.3099 -6.54964 -56.9352 -11.1511 -6.54964 
60.7317 -11.1511 -6.54964 63.0964 -3.627 -6.54964 -58.5711 -2.98414 -6.54964 
63.266 -2.98414 -6.54964 63.0964 -2.98414 -5.59919 -58.765 5.18286 -6.54964 
63.2896 5.18286 -6.54964 63.0964 5.81194 -6.54964 63.0964 5.18286 -5.52231 
-57.7109 13.3499 -6.54964 60.3779 13.3499 -6.54964 54.9294 21.453 -6.54964 
-53.8427 21.5168 -6.54964 -51.2415 25.1201 -6.54964 54.8721 21.5168 -6.54964 
46.7624 29.0847 -6.54964 -47.1089 29.6838 -6.54964 -43.0746 33.3792 -6.54964 
45.9091 29.6838 -6.54964 38.5954 34.0561 -6.54964 -36.3763 37.8508 -6.54964 
-34.9076 38.6879 -6.54964 -34.9076 37.8508 -3.72139 -26.7406 42.2127 -6.54964 
-18.5736 44.1397 -6.54964 -10.4066 44.5774 -6.54964 -2.23958 44.2649 -6.54964 
5.92741 43.4263 -6.54964 14.0944 42.2581 -6.54964 22.2614 40.6349 -6.54964 
22.2614 37.8508 -0.933751 31.3423 37.8508 -6.54964 30.4284 38.2523 -6.54964 
30.4284 37.8508 -5.66721 -34.9076 -37.1061 1.61736 -26.7406 -39.2542 1.61736 
-18.5736 -40.8115 1.61736 -10.4066 -42.6584 1.61736 -2.23958 -43.8005 1.61736 
5.92741 -43.1636 1.61736 14.0944 -40.5777 1.61736 22.2614 -36.8267 1.61736 
-37.794 -35.6521 1.61736 -43.0746 -32.4833 1.61736 -34.9076 -35.6521 8.44169 
24.9091 -35.6521 1.61736 22.2614 -35.6521 5.43692 30.4284 -33.1623 1.61736 
38.5954 -29.9051 1.61736 -48.9452 -27.4851 1.61736 -51.2415 -24.6237 1.61736 
42.7267 -27.4851 1.61736 38.5954 -27.4851 7.04809 46.7624 -25.173 1.61736 
-54.7392 -19.3181 1.61736 54.4034 -19.3181 1.61736 54.9294 -18.7239 1.61736 
-57.9314 -11.1511 1.61736 59.99 -11.1511 1.61736 -59.2805 -2.98414 1.61736 
61.7744 -2.98414 1.61736 -58.871 5.18286 1.61736 61.3661 5.18286 1.61736 
-56.8644 13.3499 1.61736 57.493 13.3499 1.61736 54.9294 16.9841 1.61736 
54.9294 13.3499 4.3719 -52.7853 21.5168 1.61736 -51.2415 23.4192 1.61736 
-51.2415 21.5168 4.11647 38.5954 21.5168 9.55421 50.6979 21.5168 1.61736 
46.7624 24.8728 1.61736 46.7624 21.5168 4.60838 -45.0086 29.6838 1.61736 
-43.0746 31.5499 1.61736 -43.0746 29.6838 3.96045 -34.9076 36.0809 1.61736 
-34.9076 29.6838 9.56547 22.2614 36.321 1.61736 22.2614 29.6838 9.42559 
30.4284 33.7015 1.61736 30.4284 29.6838 6.37484 38.9253 29.6838 1.61736 
38.5954 29.8519 1.61736 38.5954 29.6838 1.80228 -30.9054 37.8508 1.61736 
-26.7406 39.6342 1.61736 -26.7406 37.8508 4.44207 -18.5736 41.3619 1.61736 
-18.5736 37.8508 7.81214 -10.4066 41.8042 1.61736 -10.4066 37.8508 8.29668 
-2.23958 41.3718 1.61736 -2.23958 37.8508 6.69063 5.92741 40.0079 1.61736 
5.92741 37.8508 4.57088 16.305 37.8508 1.61736 14.0944 38.3905 1.61736 
14.0944 37.8508 2.36779 -26.7406 -37.9944 9.78435 -18.5736 -40.1299 9.78435 
-10.4066 -41.9675 9.78435 -2.23958 -42.5399 9.78435 5.92741 -41.3696 9.78435 
14.0944 -38.3206 9.78435 -43.0746 -29.9067 9.78435 -33.8914 -35.6521 9.78435 
-34.9076 -35.2454 9.78435 -26.7406 -35.6521 13.7245 -18.5736 -35.6521 17.6746 
19.4825 -35.6521 9.78435 14.0944 -35.6521 14.8031 22.2614 -34.1863 9.78435 
30.4284 -29.8936 9.78435 -45.7592 -27.4851 9.78435 -51.2415 -20.3189 9.78435 
-43.0746 -27.4851 12.556 35.7897 -27.4851 9.78435 30.4284 -27.4851 13.3942 
38.5954 -26.0596 9.78435 46.7624 -21.1989 9.78435 -51.8462 -19.3181 9.78435 
-51.2415 -19.3181 10.5851 38.5954 -19.3181 16.4508 48.9093 -19.3181 9.78435 
46.7624 -19.3181 11.6286 54.9294 -11.305 9.78435 -54.8418 -11.1511 9.78435 
-51.2415 -11.1511 14.791 46.7624 -11.1511 15.9034 55.0176 -11.1511 9.78435 
54.9294 -11.1511 9.87426 -55.5233 -2.98414 9.78435 -51.2415 -2.98414 14.1979 
46.7624 -2.98414 16.9552 56.6584 -2.98414 9.78435 54.9294 -2.98414 11.4504 
-54.2371 5.18286 9.78435 -51.2415 5.18286 12.9716 46.7624 5.18286 15.458 
55.8659 5.18286 9.78435 54.9294 6.66158 9.78435 54.9294 5.18286 10.6767 
-51.6351 13.3499 9.78435 -51.2415 14.0123 9.78435 -51.2415 13.3499 10.1278 
-43.0746 13.3499 15.1411 30.4284 13.3499 17.0443 38.5954 21.1864 9.78435 
38.5954 13.3499 14.7529 48.7887 13.3499 9.78435 46.7624 15.3438 9.78435 
46.7624 13.3499 11.1937 -44.7207 21.5168 9.78435 -43.0746 23.0192 9.78435 
-43.0746 21.5168 10.823 -34.9076 29.4223 9.78435 -34.9076 21.5168 14.8436 
-26.7406 21.5168 17.6262 14.0944 21.5168 17.2667 22.2614 29.2745 9.78435 
22.2614 21.5168 15.126 38.034 21.5168 9.78435 30.4284 25.6948 9.78435 
30.4284 21.5168 12.6678 -34.5369 29.6838 9.78435 -26.7406 33.8931 9.78435 
-26.7406 29.6838 13.6768 -18.5736 36.4832 9.78435 -18.5736 29.6838 16.055 
-10.4066 36.7663 9.78435 -10.4066 29.6838 16.5191 -2.23958 35.3393 9.78435 
-2.23958 29.6838 14.8608 5.92741 33.4025 9.78435 5.92741 29.6838 13.2198 
21.0464 29.6838 9.78435 14.0944 31.6211 9.78435 14.0944 29.6838 11.6152 
-10.4066 -37.5645 17.9513 -2.23958 -38.1313 17.9513 5.92741 -36.7721 17.9513 
-34.9076 -27.8102 17.9513 -26.7406 -31.6837 17.9513 -17.8563 -35.6521 17.9513 
-18.5736 -35.3764 17.9513 -10.4066 -35.6521 19.9425 -2.23958 -35.6521 20.6199 
9.02294 -35.6521 17.9513 5.92741 -35.6521 19.1824 14.0944 -33.3982 17.9513 
[...]
POINT_DATA 492
SCALARS ImageScalars float
LOOKUP_TABLE default
0 0 0 0 0 0 0 0 0 
0 0 0 0 0 0 0 0 0 
0 0 0 0 0 0 0 0 0 
0 0 0 0 0 0 0 0 0 
0 0 0 0 0 0 0 0 0 
0 0 0 0 0 0 0 0 0 
0 0 0 0 0 0 0 0 0 
0 0 0 0 0 0 0 0 0 
0 0 0 0 0 0 0 0 0 
0 0 0 0 0 0 0 0 0 
0 0 0 0 0 0 0 0 0 
0 0 0 0 0 0 0 0 0 
0 0 0 0 0 0 0 0 0 
0 0 0 0 0 0 0 0 0 
0 0 0 0 0 0 0 0 0 
0 0 0 0 0 0 0 0 0 
0 0 0 0 0 0 0 0 0 
0 0 0 0 0 0 0 0 0 
0 0 0 0 0 0 0 0 0 
0 0 0 0 0 0 0 0 0 
0 0 0 0 0 0 0 0 0 
0 0 0 0 0 0 0 0 0 
0 0 0 0 0 0 0 0 0 
0 0 0 0 0 0 0 0 0 
0 0 0 0 0 0 0 0 0 
0 0 0 0 0 0 0 0 0 
0 0 0 0 0 0 0 0 0 
0 0 0 0 0 0 0 0 0 
0 0 0 0 0 0 0 0 0 
0 0 0 0 0 0 0 0 0 
0 0 0 0 0 0 0 0 0 
0 0 0 0 0 0 0 0 0 
0 0 0 0 0 0 0 0 0 
0 0 0 0 0 0 0 0 0 
0 0 0 0 0 0 0 0 0 
0 0 0 0 0 0 0 0 0 
0 0 0 0 0 0 0 0 0 
0 0 0 0 0 0 0 0 0 
0 0 0 0 0 0 0 0 0 
0 0 0 0 0 0 0 0 0 
0 0 0 0 0 0 0 0 0 
0 0 0 0 0 0 0 0 0 
0 0 0 0 0 0 0 0 0 
0 0 0 0 0 0 0 0 0 
0 0 0 0 0 0 0 0 0 
0 0 0 0 0 0 0 0 0 
0 0 0 0 0 0 0 0 0 
0 0 0 0 0 0 0 0 0 
0 0 0 0 0 0 0 0 0 
0 0 0 0 0 0 0 0 0 
0 0 0 0 0 0 0 0 0 
0 0 0 0 0 0 0 0 0 
0 0 0 0 0 0 0 0 0 
0 0 0 0 0 0 0 0 0 
0 0 0 0 0 0 
NORMALS Normals float
0.0713676 0.556095 0.828049 -0.0904368 0.657729 0.747806 0.261456 0.518203 0.814313 
0.102658 0.490066 0.865619 0.0198053 0.446879 0.894375 0.0346739 0.387585 0.921182 
0.102865 0.318836 0.942212 0.123036 0.290905 0.948808 0.0103661 0.30125 0.953489 
-0.141797 0.389101 0.910216 -0.293123 0.53235 0.794155 0.385619 0.341295 0.857214 
0.194281 0.260999 0.945587 0.0686171 0.191393 0.979112 0.00157245 0.167131 0.985933 
0.0165846 0.235586 0.971712 0.0589228 0.216027 0.974608 0.0726591 0.141625 0.98725 
0.0255459 0.0829859 0.996223 -0.0668649 0.102176 0.992517 -0.155169 0.204219 0.966549 
-0.244423 0.347496 0.905265 -0.426684 0.500536 0.753262 0.321342 0.14976 0.935046 
0.101541 0.0904813 0.990708 -0.00331636 0.0212673 0.999768 0.0556178 0.0332516 0.997898 
0.0858809 0.176183 0.980604 0.00943685 0.0314645 0.99946 -0.00258508 0.0847855 0.996396 
-0.0267475 0.0383871 0.998905 -0.0141446 -0.0210872 0.999678 -0.0227659 0.0847045 0.996146 
-0.113321 0.199731 0.973276 -0.298505 0.285175 0.910807 0.496194 0.107959 0.861473 
0.235194 0.0450171 0.970905 0.0656975 0.00741746 0.997812 0.013882 -0.00430558 0.999894 
0.154438 0.0299863 0.987547 0.0230299 0.0818238 0.996381 -0.0346247 0.00121304 0.9994 
0.0821682 0.0687879 0.994242 -0.0855685 -0.0262368 0.995987 -0.0225428 -0.00677099 0.999723 
0.0644687 0.0390223 0.997157 -0.0402643 0.0896974 0.995155 -0.224851 0.139977 0.964287 
-0.520477 0.176271 0.835483 0.539136 -0.0206278 0.841966 0.22905 0.0379932 0.972673 
0.0614882 0.0563009 0.996519 0.0196584 0.0546828 0.99831 0.138694 0.0552275 0.988794 
0.0596107 -0.0972637 0.993472 -0.00351851 0.0180744 0.99983 -0.0294431 -0.06429 0.997497 
-0.101886 -0.0611155 0.992917 0.0527141 0.0586007 0.996889 0.0804851 0.0724058 0.994123 
-0.0127783 0.0684162 0.997575 -0.21375 -0.00992092 0.976838 -0.548951 -0.0746863 0.832511 
0.519829 -0.197069 0.831229 0.317384 -0.0654124 0.946038 0.0671441 0.00377796 0.997736 
0.0106522 0.0828035 0.996509 0.0175604 0.0924899 0.995559 -0.0185548 -0.0427817 0.998912 
-0.00206842 0.0185974 0.999825 0.00244511 -0.0331212 0.999448 0.0356642 0.0764454 0.996436 
0.105177 0.0659119 0.992267 0.0717387 0.00196963 0.997422 -0.124372 -0.0520021 0.990872 
-0.352448 -0.170874 0.920099 -0.62677 -0.305585 0.716783 0.387329 -0.275003 0.879972 
0.203605 -0.147071 0.967944 0.106622 0.035845 0.993653 0.0123782 0.0441828 0.998947 
-0.0175732 0.0933992 0.995474 0.00704706 0.0644353 0.997897 0.0289439 0.0494739 0.998356 
0.00290003 0.0928154 0.995679 -0.0250685 -0.0202432 0.999481 -0.0338472 -0.117707 0.992471 
-0.165382 -0.231156 0.958757 -0.492145 -0.425492 0.75944 0.378804 -0.330342 0.864513 
0.200425 -0.181559 0.962739 0.0755024 -0.152643 0.985393 -0.000814941 -0.0741201 0.997249 
-0.0468594 -0.0751117 0.996073 0.0270013 -0.0939056 0.995215 -0.0362203 -0.174957 0.98391 
-0.10276 -0.252311 0.962174 -0.181517 -0.36253 0.914125 -0.414169 -0.625923 0.660821 
0.292326 -0.678015 0.67442 0.145185 -0.559447 0.816051 0.0522828 -0.506783 0.860487 
-0.0115005 -0.485386 0.874225 -0.068717 -0.528002 0.846459 -0.165292 -0.635818 0.753933 
-0.22024 -0.769685 0.599232 0.0662729 0.581634 0.810747 -0.0990463 0.67975 0.726726 
0.261812 0.522877 0.811206 0.118794 0.583051 0.803704 0.161605 0.846445 0.50736 
0.0503361 0.563586 0.824522 0.137431 0.777084 0.614209 0.0878584 0.497173 0.863192 
0.163223 0.6676 0.726408 0.102244 0.550742 0.828389 0.144344 0.488418 0.860589 
0.155649 0.560305 0.813531 -0.147103 0.694755 0.704043 -0.255532 0.703749 0.662903 
-0.320498 0.837373 0.442818 -0.342795 0.671003 0.657455 0.266586 0.519942 0.811537 
0.407209 0.396251 0.822901 0.485121 0.627747 0.608762 -0.384884 0.638431 0.666536 
-0.387505 0.603474 0.696892 -0.433733 0.735592 0.520365 -0.446125 0.530383 0.720879 
0.455103 0.355064 0.816585 0.736177 0.445215 0.509733 -0.465397 0.515044 0.719816 
0.498535 0.248001 0.830638 0.520256 0.197174 0.830937 0.56092 0.265214 0.784239 
-0.539937 0.396981 0.742209 -0.545329 0.392634 0.740577 -0.548914 0.400461 0.733706 
0.556964 0.0983981 0.824687 -0.688363 0.161141 0.707241 -0.977054 0.132934 0.166417 
0.611867 -0.0197271 0.790715 -0.747286 -0.0887118 0.658555 -0.977915 -0.153332 0.142028 
0.552549 -0.205083 0.807856 0.549627 -0.246355 0.79826 -0.688676 -0.332588 0.644291 
-0.683191 -0.410034 0.604253 0.566783 -0.357731 0.742149 0.758703 -0.483852 0.436185 
0.55413 -0.481586 0.67898 -0.681603 -0.521622 0.513154 -0.595831 -0.618696 0.512056 
0.550861 -0.500625 0.667778 0.5891 -0.547189 0.594597 0.470407 -0.655988 0.590252 
-0.347154 -0.84103 0.414914 -0.531019 -0.710607 0.46158 -0.473169 -0.764638 0.437539 
0.420117 -0.73724 0.52913 0.492783 -0.849974 0.186304 0.326311 -0.781053 0.532425 
0.18617 -0.819687 0.541714 0.0277113 -0.872807 0.487277 -0.0383242 -0.868927 0.493454 
-0.0877291 -0.89342 0.440572 -0.180819 -0.87463 0.449808 -0.319021 -0.851027 0.417107 
-0.24338 -0.850487 0.466302 -0.368269 -0.926795 0.0736896 0.180044 0.887659 0.423846 
0.174077 0.867272 0.466407 0.196294 0.855909 0.478422 0.120865 0.896339 0.426576 
-0.0699648 0.944818 0.320039 -0.25952 0.944273 0.202481 -0.368285 0.92239 0.116457 
0.518847 0.768883 0.373653 0.27124 0.874348 0.402423 0.300671 0.866358 0.398775 
0.315195 0.89209 0.323771 -0.398172 0.910498 0.111587 -0.418198 0.900886 0.116252 
-0.442732 0.881663 0.163272 0.642314 0.671667 0.369183 0.763325 0.53255 0.365685 
-0.504373 0.848005 0.162774 -0.545829 0.818936 0.177242 0.811588 0.452913 0.369046 
-0.688384 0.694252 0.210098 -0.68861 0.694023 0.210116 0.905009 0.285165 0.315657 
-0.89213 0.409304 0.191243 -0.977358 0.151392 0.147826 0.957398 0.101635 0.270297 
-0.980306 0.132191 0.146714 -0.98708 0.129224 0.0947367 0.955 -0.0467454 0.2929 
-0.980681 -0.155688 0.118434 -0.978339 -0.171966 0.11524 -0.985272 -0.160224 0.0597236 
0.944501 -0.285373 0.16273 -0.910014 -0.409779 0.0628945 -0.726626 -0.687034 -0.000396926 
0.845972 -0.504037 0.174005 0.795927 -0.585514 0.15386 -0.725042 -0.688703 -0.00108755 
-0.592704 -0.802571 -0.0676884 0.709819 -0.697776 0.0962614 0.628636 -0.772089 0.0932508 
-0.57612 -0.813887 -0.0753246 -0.472737 -0.873426 -0.116819 0.490851 -0.871234 -0.00411601 
0.463177 -0.886073 -0.0185106 0.451271 -0.879975 -0.14832 0.307394 -0.951514 -0.0113989 
0.146105 -0.987327 -0.0619622 0.00694008 -0.997192 -0.0745631 -0.0703615 -0.994796 -0.0736931 
-0.121531 -0.985296 -0.120089 -0.169084 -0.974692 -0.146238 -0.251001 -0.955361 -0.155831 
-0.242537 -0.86863 -0.43204 -0.372223 -0.913057 -0.166665 -0.35822 -0.917917 -0.170607 
-0.353611 -0.910897 -0.212665 0.360649 0.932682 0.00601067 0.233603 0.970865 0.0533872 
0.201768 0.974976 0.0933368 0.17963 0.979397 0.0922762 0.030004 0.99925 0.0244889 
-0.18609 0.981115 -0.0527718 -0.37102 0.918543 -0.136465 -0.410838 0.891905 -0.188988 
0.423596 0.905818 -0.00771509 0.561468 0.826644 -0.0375988 0.390619 0.860009 -0.328332 
-0.401187 0.893846 -0.200222 -0.420343 0.866751 -0.268428 -0.37727 0.897794 -0.227232 
-0.42483 0.880152 -0.211781 0.731583 0.678765 -0.0637576 0.804865 0.589212 -0.0708635 
-0.479821 0.85376 -0.202155 -0.406549 0.814066 -0.414745 -0.530662 0.82463 -0.195917 
0.887315 0.45344 -0.0840484 -0.691564 0.686825 -0.223631 -0.713259 0.662696 -0.228245 
0.958404 0.262228 -0.112687 -0.890828 0.355463 -0.282968 0.98825 0.0539449 -0.143009 
-0.938498 0.077667 -0.336437 0.969188 -0.131096 -0.20854 -0.886672 -0.200561 -0.416638 
0.895898 -0.350303 -0.273229 -0.751946 -0.447021 -0.484509 -0.670171 -0.543039 -0.505944 
-0.659255 -0.476567 -0.581607 0.775949 -0.552998 -0.303473 0.744971 -0.588595 -0.313967 
0.711082 -0.550781 -0.437039 -0.347325 -0.557654 -0.753915 -0.571847 -0.63381 -0.520841 
-0.513236 -0.676163 -0.528576 -0.490309 -0.610238 -0.622259 0.624191 -0.691735 -0.363166 
0.57236 -0.727517 -0.378317 0.55887 -0.677258 -0.478524 0.395473 -0.818186 -0.417341 
0.396873 -0.607194 -0.688337 -0.232634 -0.800151 -0.552847 -0.2267 -0.656308 -0.719629 
-0.297152 -0.779718 -0.551127 -0.308545 -0.684454 -0.660547 -0.383775 -0.74109 -0.55091 
-0.37928 -0.74284 -0.551666 -0.378538 -0.738987 -0.557321 0.34112 -0.840555 -0.420837 
0.283827 -0.856799 -0.430508 0.286833 -0.815025 -0.503449 0.113332 -0.903949 -0.412349 
0.124686 -0.820885 -0.557316 0.00232613 -0.906352 -0.422516 -0.0425318 -0.81142 -0.582913 
-0.0974417 -0.872403 -0.478976 -0.133538 -0.795562 -0.590973 -0.15654 -0.840886 -0.51808 
-0.158079 -0.797992 -0.581567 -0.198753 -0.817815 -0.54007 -0.185835 -0.824004 -0.535241 
-0.185124 -0.813609 -0.551153 0.280108 0.902895 -0.326066 0.22729 0.93729 -0.264246 
0.139841 0.955583 -0.259435 -0.0327752 0.954315 -0.297001 -0.230206 0.914631 -0.332347 
-0.388554 0.85218 -0.35045 0.567192 0.693598 -0.444089 0.376845 0.841637 -0.386826 
0.392904 0.829102 -0.397765 0.295619 0.801792 -0.519364 0.245562 0.693338 -0.677482 
-0.413949 0.835874 -0.360502 -0.372015 0.778396 -0.505672 -0.426169 0.822345 -0.377 
-0.40118 0.802927 -0.440866 0.626208 0.63095 -0.458002 0.766607 0.434725 -0.472575 
0.558287 0.605397 -0.567284 -0.390732 0.779279 -0.489952 -0.409966 0.724126 -0.55459 
-0.391194 0.754777 -0.526573 -0.524697 0.640135 -0.561178 0.777864 0.409266 -0.476895 
0.760134 0.408575 -0.505235 -0.388015 0.514087 -0.764956 -0.560941 0.593533 -0.577116 
-0.519027 0.569073 -0.637783 -0.699535 0.303905 -0.646756 0.8364 0.199807 -0.510404 
0.708581 0.141807 -0.691234 -0.505773 0.235774 -0.829822 -0.701496 0.297894 -0.647427 
-0.698877 0.297488 -0.65044 0.793307 -0.024714 -0.60832 0.658941 -0.0780894 -0.74813 
-0.476347 -0.0187383 -0.879058 -0.721407 0.0383315 -0.69145 -0.669726 0.0326507 -0.74189 
0.739487 -0.178701 -0.649019 0.6489 -0.19668 -0.735014 -0.428165 -0.300159 -0.852396 
-0.660229 -0.283791 -0.695385 -0.630907 -0.327877 -0.703174 -0.629402 -0.287887 -0.721785 
0.639204 -0.334319 -0.692567 0.627206 -0.348281 -0.696644 0.627186 -0.33753 -0.701934 
0.408925 -0.355809 -0.840345 -0.188769 -0.422544 -0.886467 -0.344273 -0.552113 -0.759373 
-0.292486 -0.45474 -0.841228 -0.484788 -0.477736 -0.732632 -0.44869 -0.497186 -0.742619 
-0.444586 -0.47286 -0.760754 0.476591 -0.49653 -0.725478 0.452026 -0.517395 -0.726619 
0.447906 -0.491928 -0.746583 0.395523 -0.598728 -0.696481 0.33323 -0.415539 -0.846336 
0.258088 -0.309236 -0.915294 -0.194125 -0.439529 -0.877001 -0.227766 -0.644704 -0.729712 
-0.239466 -0.447953 -0.861391 -0.341665 -0.552965 -0.759931 -0.29535 -0.583701 -0.756348 
-0.277966 -0.503999 -0.817753 0.392873 -0.603574 -0.693793 0.301034 -0.691401 -0.656767 
0.30557 -0.559916 -0.770144 0.126354 -0.774188 -0.620215 0.135286 -0.529093 -0.83771 
-0.0506155 -0.777669 -0.626633 -0.0603724 -0.556213 -0.828844 -0.149838 -0.727138 -0.66994 
-0.156533 -0.583727 -0.796719 -0.16304 -0.700447 -0.694832 -0.154052 -0.629045 -0.761952 
-0.219353 -0.654415 -0.723619 -0.177874 -0.687411 -0.704149 -0.177904 -0.650308 -0.738546 
0.133605 0.750171 -0.647605 -0.0399691 0.775588 -0.629973 -0.215761 0.750092 -0.625148 
0.366333 0.488306 -0.792059 0.276164 0.569193 -0.774437 0.235955 0.686087 -0.688194 
0.244866 0.674141 -0.696832 0.142199 0.671303 -0.727414 -0.0332034 0.682222 -0.730391 
-0.270374 0.734423 -0.622511 -0.212819 0.711986 -0.669167 -0.354746 0.686193 -0.635055 
-0.397709 0.623411 -0.673191 0.373441 0.481015 -0.7932 0.457902 0.321514 -0.828827 
0.363874 0.475753 -0.800784 0.24073 0.399731 -0.884457 0.225804 0.342134 -0.912117 
0.179556 0.349921 -0.91941 0.0121987 0.361426 -0.932321 -0.1584 0.392286 -0.906102 
-0.302841 0.474864 -0.826312 -0.395926 0.613987 -0.682834 -0.389207 0.595419 -0.702847 
-0.394626 0.526509 -0.753033 0.458758 0.319944 -0.828961 0.457014 0.319189 -0.830215 
0.273309 0.221144 -0.936161 0.208344 0.196094 -0.958196 0.241886 0.167226 -0.955786 
-0.197557 0.271676 -0.941894 -0.304606 0.336858 -0.890922 -0.378237 0.466474 -0.799586 
-0.370235 0.409016 -0.834046 -0.383912 0.387459 -0.838145 0.514084 0.0972809 -0.852206 
0.374627 0.0816756 -0.923571 0.250439 0.0782601 -0.964964 0.183896 0.0673791 -0.980634 
0.244427 0.0896756 -0.965512 -0.287865 0.111011 -0.951215 -0.310505 0.157929 -0.937361 
-0.438055 0.213273 -0.873283 -0.369268 0.199518 -0.907653 0.476869 -0.0967712 -0.873631 
0.412367 -0.094023 -0.906153 0.25101 -0.0901044 -0.963782 0.215529 -0.109753 -0.97031 
0.285266 -0.0884862 -0.954355 -0.275379 -0.171798 -0.94586 -0.29815 -0.122155 -0.94667 
-0.433478 -0.0345233 -0.900503 -0.332245 -0.0831657 -0.939519 0.384742 -0.228228 -0.894363 
0.372605 -0.23996 -0.896429 0.370033 -0.228929 -0.900371 0.223594 -0.229935 -0.947172 
0.178958 -0.246364 -0.952512 0.217563 -0.30605 -0.926822 0.146024 -0.369049 -0.917867 
-0.246041 -0.402448 -0.881759 -0.235328 -0.406514 -0.882818 -0.191894 -0.398278 -0.896968 
-0.214579 -0.336188 -0.917024 -0.302515 -0.314212 -0.899864 -0.277306 -0.337461 -0.899567 
-0.275177 -0.317263 -0.907536 0.26804 -0.316685 -0.909871 0.261687 -0.31926 -0.91082 
0.256798 -0.314353 -0.913913 0.243237 -0.298173 -0.923 0.155246 -0.25367 -0.954752 
0.145739 -0.236157 -0.960724 0.167547 -0.316946 -0.933527 0.0913578 -0.374953 -0.922531 
-0.162782 -0.428241 -0.888882 -0.212527 -0.424226 -0.880264 -0.294836 -0.40565 -0.86517 
-0.18754 -0.394927 -0.899368 -0.194074 -0.389137 -0.900504 -0.19072 -0.385781 -0.902662 
0.240671 -0.299982 -0.923086 0.142575 -0.385898 -0.911458 0.149084 -0.261943 -0.953499 
-0.040339 -0.459739 -0.887137 0.012419 -0.305224 -0.952199 -0.112503 -0.501106 -0.858042 
-0.071544 -0.471148 -0.879148 -0.167202 -0.473503 -0.864777 -0.132357 -0.535442 -0.834136 
-0.132705 -0.525551 -0.840348 0.192491 0.240639 -0.951336 0.0146903 0.312006 -0.949966 
-0.136075 0.267881 -0.953794 0.210441 0.192755 -0.958415 0.195874 0.200922 -0.959825 
0.0185982 0.179191 -0.983639 -0.173937 0.245154 -0.953753 -0.122887 0.187347 -0.974577 
-0.186152 0.237665 -0.953343 0.234327 0.0942663 -0.967577 0.193502 0.100091 -0.975981 
-0.00253037 -0.00550447 -0.999982 -0.0629578 0.0357526 -0.997376 -0.248514 0.115731 -0.96169 
-0.146837 0.124754 -0.981262 0.276841 -0.0901921 -0.956674 0.140765 -0.346406 -0.927463 
0.0959769 -0.12178 -0.987906 -0.0446914 -0.143514 -0.988639 0.00939569 -0.086642 -0.996195 
-0.240573 -0.164654 -0.956563 -0.201122 -0.310328 -0.929111 -0.12028 -0.133934 -0.983664 
0.0826651 -0.276019 -0.957591 0.0472456 -0.225706 -0.973049 0.042246 -0.215098 -0.975678 
-0.12395 -0.274947 -0.953436 -0.0811041 -0.249293 -0.965026 -0.0609233 -0.209198 -0.975974 

