# vtk DataFile Version 4.2
vtk output
ASCII
DATASET POLYDATA
POINTS 524 float
8.30704 3.32269 -25.0031 -35.8167 -40.801 -18.3794 -26.9919 -40.801 -20.5979 
-18.1672 -40.801 -19.819 -9.34244 -40.801 -17.8823 -0.517701 -40.801 -16.952 
-44.6414 -31.9763 -18.9966 -35.8167 -31.9763 -20.9186 -26.9919 -31.9763 -21.5918 
-18.1672 -31.9763 -20.5683 -9.34244 -31.9763 -20.0795 -0.517701 -31.9763 -19.4269 
8.30704 -31.9763 -19.0505 17.1318 -31.9763 -18.0958 25.9565 -31.9763 -16.6121 
-53.4661 -23.1515 -17.87 -44.6414 -23.1515 -21.0105 -35.8167 -23.1515 -21.2182 
-26.9919 -23.1515 -20.9175 -18.1672 -23.1515 -20.4404 -9.34244 -23.1515 -19.8962 
-0.517701 -23.1515 -19.8028 8.30704 -23.1515 -20.5281 17.1318 -23.1515 -20.0888 
25.9565 -23.1515 -20.2569 34.7813 -23.1515 -19.379 43.606 -23.1515 -18.6851 
52.4307 -23.1515 -16.2567 -53.4661 -14.3268 -18.5473 -44.6414 -14.3268 -20.5893 
-35.8167 -14.3268 -21.5089 -26.9919 -14.3268 -20.3033 -18.1672 -14.3268 -19.2716 
-9.34244 -14.3268 -20.032 -0.517701 -14.3268 -20.4315 8.30704 -14.3268 -20.061 
17.1318 -14.3268 -18.762 25.9565 -14.3268 -20.1831 34.7813 -14.3268 -21.4411 
43.606 -14.3268 -20.4488 52.4307 -14.3268 -19.2312 -53.4661 -5.50205 -19.842 
-44.6414 -5.50205 -20.7808 -35.8167 -5.50205 -20.3962 -26.9919 -5.50205 -18.8341 
-18.1672 -5.50205 -17.3478 -9.34244 -5.50205 -22.2374 -0.517701 -5.50205 -19.0744 
8.30704 3.13681 -24.9525 8.30704 -5.50205 -21.7304 17.1318 -5.50205 -17.1387 
25.9565 -5.50205 -18.6036 34.7813 -5.50205 -20.4863 43.606 -5.50205 -21.3054 
52.4307 -5.50205 -21.2013 61.2555 -5.50205 -18.2603 -62.2909 3.32269 -17.1206 
-53.4661 3.32269 -19.9253 -44.6414 3.32269 -20.575 -35.8167 3.32269 -20.2128 
-26.9919 3.32269 -18.8499 -18.1672 3.32269 -16.6532 -9.34244 3.32269 -22.4466 
8.23978 3.32269 -24.9525 8.42323 3.32269 -24.9525 8.30704 3.4493 -24.9525 
17.1318 3.32269 -18.6706 25.9565 3.32269 -18.6285 34.7813 3.32269 -20.3281 
43.606 3.32269 -21.1182 52.4307 3.32269 -20.7201 61.2555 3.32269 -18.2164 
-62.2909 12.1474 -16.5947 -53.4661 12.1474 -18.7907 -44.6414 12.1474 -20.9048 
-35.8167 12.1474 -19.7022 -26.9919 12.1474 -18.314 -18.1672 12.1474 -18.5439 
-9.34244 12.1474 -22.3393 -0.517701 12.1474 -19.0935 8.30704 12.1474 -21.3079 
17.1318 12.1474 -19.2724 25.9565 12.1474 -19.7328 34.7813 12.1474 -20.8495 
43.606 12.1474 -20.5804 52.4307 12.1474 -19.4686 61.2555 12.1474 -16.6481 
-53.4661 20.9722 -18.0875 -44.6414 20.9722 -18.2137 -35.8167 20.9722 -18.3311 
-26.9919 20.9722 -18.7509 -18.1672 20.9722 -19.3991 -9.34244 20.9722 -20.5589 
-0.517701 20.9722 -20.1178 8.30704 20.9722 -20.6034 17.1318 20.9722 -19.9375 
25.9565 20.9722 -19.3763 34.7813 20.9722 -19.5929 43.606 20.9722 -19.4366 
52.4307 20.9722 -17.9006 -44.6414 29.7969 -16.3892 -35.8167 29.7969 -16.4459 
-26.9919 29.7969 -18.2955 -18.1672 29.7969 -18.649 -9.34244 29.7969 -18.9572 
-0.517701 29.7969 -19.2926 8.30704 29.7969 -19.675 17.1318 29.7969 -18.6707 
25.9565 29.7969 -17.3895 34.7813 29.7969 -16.5936 -35.8167 -43.7815 -16.1277 
-26.9919 -46.6055 -16.1277 -18.1672 -47.2981 -16.1277 -9.34244 -43.6167 -16.1277 
-0.517701 -41.8713 -16.1277 -41.8352 -40.801 -16.1277 -44.6414 -38.5678 -16.1277 
-44.6414 -40.801 -14.0251 2.20572 -40.801 -16.1277 8.30704 -37.3939 -16.1277 
8.30704 -40.801 -10.6833 17.1318 -34.6503 -16.1277 25.9565 -32.5052 -16.1277 
-49.4923 -31.9763 -16.1277 -53.4661 -27.212 -16.1277 -53.4661 -31.9763 -11.3923 
27.842 -31.9763 -16.1277 34.7813 -28.9986 -16.1277 34.7813 -31.9763 -12.1884 
43.606 -26.9117 -16.1277 43.606 -31.9763 -8.79691 52.4307 -23.3502 -16.1277 
-55.7928 -23.1515 -16.1277 52.9014 -23.1515 -16.1277 61.2555 -23.1515 -10.6286 
-57.8404 -14.3268 -16.1277 -62.2909 -14.3268 -11.4355 60.871 -14.3268 -16.1277 
61.2555 -13.8032 -16.1277 61.2555 -14.3268 -15.9565 70.0802 -14.3268 -8.11209 
-61.8585 -5.50205 -16.1277 -62.2909 -3.84792 -16.1277 -62.2909 -5.50205 -15.8422 
-0.517701 2.09071 -16.1277 65.4178 -5.50205 -16.1277 70.0802 -5.50205 -11.815 
-63.649 3.32269 -16.1277 -1.1228 3.32269 -16.1277 0.0442319 3.32269 -16.1277 
-0.517701 4.4217 -16.1277 -0.517701 3.32269 -15.6889 65.8046 3.32269 -16.1277 
70.0802 3.32269 -12.1069 -62.9433 12.1474 -16.1277 -71.1156 12.1474 -7.54716 
-62.2909 13.1061 -16.1277 62.0878 12.1474 -16.1277 61.2555 13.5715 -16.1277 
70.0802 12.1474 -8.73995 -57.3053 20.9722 -16.1277 -62.2909 20.9722 -12.4351 
-53.4661 24.7013 -16.1277 43.606 29.3517 -16.1277 56.4813 20.9722 -16.1277 
52.4307 24.3983 -16.1277 61.2555 20.9722 -12.9906 -62.2909 29.7969 -7.68078 
-45.3856 29.7969 -16.1277 -53.4661 29.7969 -12.3078 -44.6414 30.2325 -16.1277 
-35.8167 30.7104 -16.1277 -26.9919 34.4859 -16.1277 -18.1672 36.2255 -16.1277 
-9.34244 36.6204 -16.1277 -0.517701 35.83 -16.1277 8.30704 35.4052 -16.1277 
17.1318 33.874 -16.1277 25.9565 31.7564 -16.1277 40.9455 29.7969 -16.1277 
34.7813 30.3851 -16.1277 43.606 29.7969 -15.8797 52.4307 29.7969 -11.3986 
-44.6414 38.6217 -8.19587 -35.8167 38.6217 -12.5431 -26.9919 38.6217 -13.4801 
-18.1672 38.6217 -14.8357 -9.34244 38.6217 -14.9098 -0.517701 38.6217 -13.5374 
8.30704 38.6217 -11.9317 17.1318 38.6217 -8.98167 -44.6414 -44.3934 -7.30299 
-35.8167 -48.4049 -7.30299 -26.9919 -49.6208 -7.30299 -18.1672 -49.1092 -7.30299 
-9.34244 -47.0391 -7.30299 -0.517701 -44.9023 -7.30299 8.30704 -41.916 -7.30299 
-48.9782 -40.801 -7.30299 -53.4661 -35.3909 -7.30299 -44.6414 -40.801 -0.509013 
-0.517701 -40.801 -0.169041 11.0883 -40.801 -7.30299 8.30704 -40.801 -4.25795 
17.1318 -38.225 -7.30299 25.9565 -35.4355 -7.30299 34.7813 -33.9622 -7.30299 
43.606 -32.6604 -7.30299 -55.5977 -31.9763 -7.30299 -53.4661 -31.9763 -1.66498 
45.933 -31.9763 -7.30299 52.4307 -29.959 -7.30299 61.2555 -24.8006 -7.30299 
-60.4975 -23.1515 -7.30299 -62.2909 -19.0491 -7.30299 63.6863 -23.1515 -7.30299 
70.0802 -15.4419 -7.30299 -64.3697 -14.3268 -7.30299 -62.2909 -14.3268 0.567176 
70.6046 -14.3268 -7.30299 -68.059 -5.50205 -7.30299 72.852 -5.50205 -7.30299 
-70.3442 3.32269 -7.30299 -71.1156 10.8549 -7.30299 72.7421 3.32269 -7.30299 
-71.2424 12.1474 -7.30299 -71.1156 12.5835 -7.30299 -71.1156 12.1474 -5.96265 
70.963 12.1474 -7.30299 70.0802 14.2864 -7.30299 -67.8021 20.9722 -7.30299 
66.7043 20.9722 -7.30299 61.2555 26.486 -7.30299 -62.613 29.7969 -7.30299 
-62.2909 30.0943 -7.30299 -53.4661 36.1763 -7.30299 25.9565 38.2577 -7.30299 
34.7813 37.4954 -7.30299 43.606 36.4708 -7.30299 56.9789 29.7969 -7.30299 
52.4307 32.7529 -7.30299 -47.1517 38.6217 -7.30299 -44.6414 39.405 -7.30299 
-35.8167 42.5408 -7.30299 -26.9919 44.0413 -7.30299 -18.1672 44.6658 -7.30299 
-9.34244 43.5872 -7.30299 -0.517701 41.9734 -7.30299 8.30704 40.705 -7.30299 
22.936 38.6217 -7.30299 17.1318 39.3061 -7.30299 -35.8167 -44.1075 1.52175 
-26.9919 -44.5558 1.52175 -18.1672 -43.8672 1.52175 -9.34244 -40.9697 1.52175 
-42.316 -40.801 1.52175 -44.6414 -39.7094 1.52175 -35.8167 -40.801 4.87269 
-26.9919 -40.801 5.86641 -18.1672 -40.801 4.16262 -8.38526 -40.801 1.52175 
-9.34244 -40.801 1.67585 -0.517701 -39.5613 1.52175 8.30704 -38.5417 1.52175 
17.1318 -35.8075 1.52175 25.9565 -33.428 1.52175 34.7813 -32.9463 1.52175 
43.606 -32.7284 1.52175 -52.156 -31.9763 1.52175 -53.4661 -30.1068 1.52175 
-9.34244 -31.9763 9.85289 25.9565 -31.9763 7.65213 34.7813 -31.9763 4.77559 
46.1336 -31.9763 1.52175 43.606 -31.9763 4.47086 52.4307 -30.3063 1.52175 
61.2555 -26.3636 1.52175 -57.6069 -23.1515 1.52175 -53.4661 -23.1515 8.78266 
66.1285 -23.1515 1.52175 70.0802 -18.1724 1.52175 -62.0125 -14.3268 1.52175 
-62.2909 -13.7707 1.52175 71.9117 -14.3268 1.52175 70.0802 -14.3268 7.43954 
-66.0832 -5.50205 1.52175 -62.2909 -5.50205 8.56691 74.6905 -5.50205 1.52175 
-69.959 3.32269 1.52175 74.4085 3.32269 1.52175 -70.4009 12.1474 1.52175 
72.1882 12.1474 1.52175 70.0802 16.8698 1.52175 70.0802 12.1474 6.92129 
-68.9105 20.9722 1.52175 67.9331 20.9722 1.52175 61.2555 28.045 1.52175 
-63.7024 29.7969 1.52175 -62.2909 31.1019 1.52175 -62.2909 29.7969 4.37848 
-53.4661 37.533 1.52175 25.9565 38.5231 1.52175 34.7813 37.9705 1.52175 
43.606 37.3604 1.52175 58.807 29.7969 1.52175 52.4307 33.4921 1.52175 
-51.0148 38.6217 1.52175 -44.6414 41.288 1.52175 -44.6414 38.6217 7.59407 
-35.8167 43.0842 1.52175 -26.9919 44.3837 1.52175 -26.9919 38.6217 10.1318 
-18.1672 43.7992 1.52175 -18.1672 38.6217 8.88497 -9.34244 42.3684 1.52175 
-9.34244 38.6217 7.27498 -0.517701 41.2191 1.52175 -0.517701 38.6217 6.53538 
8.30704 40.5145 1.52175 8.30704 38.6217 6.25901 24.99 38.6217 1.52175 
17.1318 39.426 1.52175 17.1318 38.6217 3.78935 -44.6414 -32.3292 10.3465 
-35.8167 -36.0815 10.3465 -26.9919 -36.833 10.3465 -18.1672 -34.0112 10.3465 
-0.517701 -33.167 10.3465 8.30704 -34.6493 10.3465 17.1318 -32.1014 10.3465 
-45.0221 -31.9763 10.3465 -44.6414 -31.9763 10.6977 -35.8167 -31.9763 14.8373 
-26.9919 -31.9763 15.1568 -11.1197 -31.9763 10.3465 -18.1672 -31.9763 13.2924 
-7.08341 -31.9763 10.3465 -9.34244 -31.5762 10.3465 -0.517701 -31.9763 12.6116 
8.30704 -31.9763 15.196 18.4985 -31.9763 10.3465 17.1318 -31.9763 10.5761 
25.9565 -31.3544 10.3465 34.7813 -30.5744 10.3465 43.606 -30.3756 10.3465 
52.4307 -28.4089 10.3465 61.2555 -23.7791 10.3465 -52.1461 -23.1515 10.3465 
-53.4661 -20.8186 10.3465 -44.6414 -23.1515 16.9064 52.4307 -23.1515 17.6673 
62.1319 -23.1515 10.3465 61.2555 -23.1515 11.2244 -56.4216 -14.3268 10.3465 
-53.4661 -14.3268 13.6447 68.9904 -14.3268 10.3465 61.2555 -14.3268 18.8625 
70.0802 -10.9793 10.3465 -61.0909 -5.50205 10.3465 -62.2909 -3.45144 10.3465 
-53.4661 -5.50205 17.8923 71.5533 -5.50205 10.3465 70.0802 -5.50205 12.3587 
-65.628 3.32269 10.3465 -62.2909 3.32269 14.1832 71.495 3.32269 10.3465 
70.0802 7.83187 10.3465 70.0802 3.32269 12.1805 -66.3234 12.1474 10.3465 
-62.2909 12.1474 14.9592 68.3048 12.1474 10.3465 61.2555 12.1474 17.1054 
-64.8153 20.9722 10.3465 -62.2909 25.381 10.3465 -62.2909 20.9722 13.0709 
-53.4661 20.9722 18.8201 52.4307 20.9722 17.2983 63.5203 20.9722 10.3465 
61.2555 23.3676 10.3465 61.2555 20.9722 12.6372 -58.6063 29.7969 10.3465 
[...]
POINT_DATA 524
SCALARS ImageScalars float
LOOKUP_TABLE default
0 0 0 0 0 0 0 0 0 
0 0 0 0 0 0 0 0 0 
0 0 0 0 0 0 0 0 0 
0 0 0 0 0 0 0 0 0 
0 0 0 0 0 0 0 0 0 
0 0 0 0 0 0 0 0 0 
0 0 0 0 0 0 0 0 0 
0 0 0 0 0 0 0 0 0 
0 0 0 0 0 0 0 0 0 
0 0 0 0 0 0 0 0 0 
0 0 0 0 0 0 0 0 0 
0 0 0 0 0 0 0 0 0 
0 0 0 0 0 0 0 0 0 
0 0 0 0 0 0 0 0 0 
0 0 0 0 0 0 0 0 0 
0 0 0 0 0 0 0 0 0 
0 0 0 0 0 0 0 0 0 
0 0 0 0 0 0 0 0 0 
0 0 0 0 0 0 0 0 0 
0 0 0 0 0 0 0 0 0 
0 0 0 0 0 0 0 0 0 
0 0 0 0 0 0 0 0 0 
0 0 0 0 0 0 0 0 0 
0 0 0 0 0 0 0 0 0 
0 0 0 0 0 0 0 0 0 
0 0 0 0 0 0 0 0 0 
0 0 0 0 0 0 0 0 0 
0 0 0 0 0 0 0 0 0 
0 0 0 0 0 0 0 0 0 
0 0 0 0 0 0 0 0 0 
0 0 0 0 0 0 0 0 0 
0 0 0 0 0 0 0 0 0 
0 0 0 0 0 0 0 0 0 
0 0 0 0 0 0 0 0 0 
0 0 0 0 0 0 0 0 0 
0 0 0 0 0 0 0 0 0 
0 0 0 0 0 0 0 0 0 
0 0 0 0 0 0 0 0 0 
0 0 0 0 0 0 0 0 0 
0 0 0 0 0 0 0 0 0 
0 0 0 0 0 0 0 0 0 
0 0 0 0 0 0 0 0 0 
0 0 0 0 0 0 0 0 0 
0 0 0 0 0 0 0 0 0 
0 0 0 0 0 0 0 0 0 
0 0 0 0 0 0 0 0 0 
0 0 0 0 0 0 0 0 0 
0 0 0 0 0 0 0 0 0 
0 0 0 0 0 0 0 0 0 
0 0 0 0 0 0 0 0 0 
0 0 0 0 0 0 0 0 0 
0 0 0 0 0 0 0 0 0 
0 0 0 0 0 0 0 0 0 
0 0 0 0 0 0 0 0 0 
0 0 0 0 0 0 0 0 0 
0 0 0 0 0 0 0 0 0 
0 0 0 0 0 0 0 0 0 
0 0 0 0 0 0 0 0 0 
0 0 
NORMALS Normals float
0.182566 -0.073699 0.980428 0.304127 0.495763 0.813465 0.0597716 0.397653 0.915587 
-0.141149 0.314038 0.938859 -0.206043 0.469038 0.858807 -0.213976 0.570628 0.792842 
0.353861 0.305176 0.88411 0.125311 0.126206 0.984057 -0.0151103 0.00702325 0.999861 
-0.0835063 0.038702 0.995755 -0.0643129 0.0986485 0.993042 -0.0582345 0.156257 0.985998 
-0.0772258 0.342273 0.936422 -0.143628 0.496857 0.855864 -0.208406 0.692238 0.690922 
0.514069 0.216582 0.829955 0.206795 0.0820937 0.974934 -0.00664522 0.0357975 0.999337 
-0.0414468 -0.0714171 0.996585 -0.0602208 -0.07614 0.995277 -0.0332547 -0.00324722 0.999442 
0.0359947 0.057068 0.997721 0.0151704 0.0520774 0.998528 -0.0142225 0.0343037 0.99931 
-0.0360517 0.170321 0.984729 -0.092513 0.344808 0.934103 -0.170955 0.410448 0.895716 
-0.263969 0.481026 0.836023 0.350123 0.111432 0.930052 0.150334 -0.0101164 0.988584 
-0.0166362 -0.047159 0.998749 -0.128001 -0.111213 0.985519 -0.0196747 -0.158919 0.987095 
0.070312 0.123415 0.989861 -0.000424133 -0.0319864 0.999488 -0.0904077 0.0409923 0.995061 
0.0135693 -0.152767 0.988169 0.142375 -0.0921357 0.985515 0.0224741 0.0574503 0.998095 
-0.117268 0.134981 0.983884 -0.210708 0.25314 0.944205 0.219088 0.072166 0.973033 
0.0265392 -0.000852545 0.999647 -0.104399 -0.074152 0.991767 -0.16965 -0.0860617 0.981739 
0.17152 -0.144672 0.9745 0.100372 0.137176 0.985448 -0.056816 -0.255144 0.965232 
0.178137 -0.0652807 0.981838 -0.0969566 0.280718 0.954881 -0.115376 -0.0397104 0.992528 
0.171824 -0.09469 0.980566 0.150916 -0.0610707 0.986658 0.0407364 0.0367899 0.998492 
-0.17382 0.0802593 0.981501 -0.400324 0.0996343 0.910941 0.478536 0.0295156 0.877572 
0.165289 -0.0598057 0.98443 0.0161653 0.00611674 0.999851 -0.102595 -0.041275 0.993867 
-0.162817 -0.0306209 0.986181 0.191431 0.0585799 0.979756 -0.0355115 0.0050272 0.999357 
0.182941 -0.0734577 0.980376 0.175569 -0.0723886 0.981802 0.180305 -0.0767438 0.980612 
-0.311374 0.128991 0.941492 0.0957235 0.0647658 0.993299 0.139751 0.0163128 0.990052 
0.0229519 -0.040932 0.998898 -0.166086 -0.0952084 0.981504 -0.366929 -0.0729319 0.927385 
0.434538 -0.229242 0.870991 0.209025 -0.106039 0.972144 0.0451285 -0.120811 0.991649 
-0.141717 -0.1016 0.98468 -0.0679376 -0.00579283 0.997673 0.236493 0.137932 0.961793 
-0.00794307 -0.111576 0.993724 -0.0588602 0.201625 0.977693 0.00912539 -0.198554 0.980048 
-0.0849535 0.0607026 0.994534 0.0814113 0.0429517 0.995755 0.0519266 -0.0415961 0.997784 
-0.072571 -0.0900181 0.993293 -0.190177 -0.159957 0.968631 -0.429661 -0.24697 0.86856 
0.243778 -0.284853 0.927055 0.0153269 -0.265917 0.963874 0.0293677 -0.172251 0.984615 
0.0616101 -0.0033635 0.998095 0.100665 -0.00512992 0.994907 0.0414148 -0.179955 0.982803 
0.00279976 0.0128832 0.999913 -0.0101278 -0.0846677 0.996358 -0.0703206 -0.0315619 0.997025 
-0.0199686 -0.122083 0.992319 0.00409171 -0.202532 0.979267 -0.0976829 -0.256199 0.961676 
-0.278217 -0.322865 0.904629 0.172685 -0.380748 0.908411 0.118918 -0.267611 0.95616 
0.112684 -0.243203 0.963408 0.0382963 -0.20827 0.977321 0.0359541 -0.278683 0.95971 
0.0384799 -0.274383 0.96085 -0.0352292 -0.324397 0.945265 -0.123046 -0.35357 0.92728 
-0.111883 -0.414321 0.903228 -0.080374 -0.515098 0.853355 0.29868 0.681761 0.667826 
0.142159 0.756915 0.637864 -0.105009 0.763948 0.636676 -0.248417 0.64404 0.723534 
-0.233508 0.63969 0.732305 0.417394 0.560212 0.715503 0.464714 0.485292 0.740629 
0.520376 0.647514 0.556717 -0.251758 0.63298 0.732089 -0.234754 0.597735 0.766553 
-0.364249 0.903129 0.227334 -0.208036 0.656276 0.725274 -0.21854 0.721922 0.656559 
0.544352 0.408296 0.732786 0.589295 0.359637 0.723459 0.789329 0.534305 0.302453 
-0.216382 0.716407 0.663279 -0.194679 0.636104 0.74664 -0.198394 0.889782 0.411008 
-0.194934 0.58833 0.784773 -0.217482 0.930573 0.294508 -0.266509 0.490172 0.829882 
0.617758 0.263558 0.740886 -0.277637 0.486915 0.828149 -0.56335 0.691899 0.451566 
0.545608 0.201752 0.813393 0.85351 0.373576 0.363266 -0.456101 0.255992 0.852315 
-0.463137 0.247546 0.851014 -0.470987 0.260216 0.842887 -0.841168 0.34636 0.415297 
0.598856 0.188323 0.7784 0.594046 0.163664 0.787606 0.630131 0.200758 0.750088 
0.0152211 -0.0247069 0.999579 -0.542227 0.140995 0.828318 -0.789958 0.137479 0.59755 
0.540338 0.0430404 0.840346 0.0263986 0.0262366 0.999307 0.039274 0.0274638 0.998851 
0.0185691 0.0587911 0.998098 0.0301144 0.0318967 0.999037 -0.540675 -0.0950449 0.835845 
-0.794941 -0.0985977 0.598621 0.465311 -0.226203 0.855756 0.965138 -0.104338 0.240045 
0.452012 -0.241114 0.858807 -0.456525 -0.260671 0.850668 -0.451955 -0.277874 0.847657 
-0.857269 -0.293617 0.422942 0.381211 -0.311655 0.870373 0.607671 -0.369104 0.703206 
0.285422 -0.377886 0.880759 -0.178709 -0.538457 0.823485 -0.408642 -0.367731 0.835336 
-0.321972 -0.456283 0.829542 -0.588022 -0.472841 0.656241 0.628692 -0.664619 0.403768 
0.184849 -0.391034 0.901622 0.391645 -0.55455 0.734227 0.175928 -0.394694 0.901812 
0.12693 -0.286227 0.949717 0.107932 -0.422833 0.899757 0.0624181 -0.479125 0.875524 
-0.0135055 -0.525285 0.850819 -0.0343862 -0.574481 0.817796 -0.0693807 -0.634968 0.769417 
-0.131828 -0.588805 0.797452 -0.130844 -0.518647 0.844917 -0.153284 -0.544004 0.824963 
-0.0846389 -0.539709 0.837586 -0.186613 -0.560961 0.806535 -0.426941 -0.72724 0.537441 
0.29271 -0.822996 0.486825 0.234011 -0.637831 0.733764 0.101696 -0.656655 0.747304 
0.0703095 -0.622186 0.779706 -0.0411479 -0.652933 0.756297 -0.10053 -0.796751 0.595888 
-0.121482 -0.886927 0.445648 -0.136885 -0.949851 0.28115 0.536599 0.843819 0.00550692 
0.254362 0.967079 -0.007598 0.0308461 0.994651 -0.0985835 -0.129964 0.982157 -0.135932 
-0.250323 0.958096 -0.139249 -0.271888 0.955865 -0.111351 -0.355574 0.934345 -0.0237861 
0.662062 0.748137 0.0443167 0.813543 0.577432 0.0687012 0.459393 0.781407 -0.422329 
-0.152095 0.833853 -0.530619 -0.358863 0.933347 -0.00896958 -0.304155 0.940683 -0.150349 
-0.35598 0.934058 0.028543 -0.221893 0.974583 0.0308523 -0.150219 0.980326 0.12804 
-0.216675 0.951785 0.217159 0.851793 0.521114 0.0537441 0.812362 0.521876 -0.260218 
-0.249628 0.944862 0.211945 -0.364435 0.899421 0.241306 -0.565994 0.773189 0.286058 
0.898557 0.435574 0.0535749 0.909819 0.408745 0.071811 -0.617566 0.723375 0.308772 
-0.841777 0.385319 0.378075 0.914202 0.388087 0.116714 0.819635 0.465409 -0.334056 
-0.860013 0.345143 0.375838 0.93878 0.321784 0.123072 -0.909245 0.117249 0.399407 
0.967854 0.162434 0.192027 0.974068 -0.0614627 0.217749 -0.922037 -0.101693 0.373505 
0.968878 -0.101396 0.225818 0.966405 -0.115674 0.229525 0.983257 -0.0965594 0.154535 
-0.890914 -0.289631 0.349838 -0.873758 -0.340071 0.347705 0.822931 -0.402427 0.401044 
-0.762455 -0.534442 0.36474 -0.633887 -0.690162 0.349089 0.641988 -0.664964 0.381674 
0.633265 -0.672941 0.382263 0.458775 -0.79583 0.395197 -0.10081 -0.966237 0.237115 
-0.0942452 -0.949773 0.29841 -0.229883 -0.915231 0.330918 -0.551749 -0.765987 0.329904 
-0.445151 -0.834415 0.324948 0.339156 -0.842759 0.418008 0.302525 -0.843623 0.443598 
0.23412 -0.917615 0.321201 0.124113 -0.926161 0.356121 -0.0318454 -0.966913 0.25311 
-0.153009 -0.969341 0.192265 -0.164844 -0.968393 0.187193 -0.14656 -0.970309 0.192407 
-0.111816 -0.969311 0.218938 -0.134444 -0.970604 0.199631 0.188528 0.802146 -0.566585 
-0.00839155 0.806283 -0.59147 -0.1424 0.717858 -0.68147 -0.174154 0.700939 -0.691632 
0.35731 0.750704 -0.555674 0.434793 0.72346 -0.536248 0.199541 0.761507 -0.616677 
-0.0361144 0.761327 -0.647361 -0.164379 0.656978 -0.735771 -0.167812 0.70844 -0.685531 
-0.17204 0.698721 -0.6944 -0.107264 0.785681 -0.609262 -0.174399 0.901508 -0.396066 
-0.271359 0.910403 -0.312299 -0.134069 0.964388 -0.227995 -0.037341 0.978982 -0.200498 
-0.157396 0.980185 -0.120268 0.724905 0.513953 -0.458656 0.757658 0.485871 -0.435756 
-0.02656 0.797636 -0.602553 -0.0996396 0.951624 -0.29066 -0.0385691 0.971434 -0.234155 
-0.194839 0.974676 -0.109751 -0.14017 0.969946 -0.198892 -0.298249 0.951112 -0.0802075 
-0.536766 0.842314 -0.048891 0.813472 0.423492 -0.398645 0.708013 0.430865 -0.55953 
-0.670458 0.739739 -0.0572079 -0.854623 0.514199 -0.0722417 0.795169 0.465771 -0.388284 
0.798315 0.464842 -0.382904 -0.922409 0.380683 -0.0651257 -0.868139 0.364855 -0.336474 
0.876569 0.374195 -0.302663 0.740393 0.420285 -0.524575 -0.989944 0.12486 -0.0664915 
0.941893 0.233306 -0.241673 -0.989414 -0.129394 -0.0657073 0.964407 -0.0573348 -0.258131 
-0.936421 -0.338088 -0.0938691 -0.889161 -0.44037 -0.124363 -0.846413 -0.370426 -0.382582 
0.941775 -0.301061 -0.149743 -0.823925 -0.551265 -0.131353 -0.651013 -0.748944 -0.12355 
0.726379 -0.676696 -0.120234 0.689132 -0.712745 -0.130731 0.680327 -0.69381 -0.236183 
0.471528 -0.877155 -0.0908833 -0.0808929 -0.984126 -0.157966 -0.0629306 -0.985764 -0.155915 
-0.22652 -0.962022 -0.15232 -0.579159 -0.805913 -0.122796 -0.424349 -0.89583 -0.131969 
0.420112 -0.902337 -0.0963994 0.299806 -0.947041 -0.115017 0.246427 -0.869022 -0.429038 
0.15938 -0.970491 -0.180955 0.0444886 -0.961469 -0.271288 -0.0776539 -0.75157 -0.655067 
-0.106754 -0.936839 -0.333071 -0.0967615 -0.748567 -0.655961 -0.14446 -0.924984 -0.351478 
-0.0847398 -0.809954 -0.58034 -0.101805 -0.955424 -0.277129 -0.032744 -0.881477 -0.471091 
-0.0984029 -0.975577 -0.196386 -0.0575711 -0.920367 -0.386795 -0.0841788 -0.983806 -0.15824 
-0.111009 -0.980191 -0.164017 -0.106591 -0.958713 -0.263645 0.479441 0.587741 -0.651688 
0.180112 0.726477 -0.663168 -0.0769505 0.722736 -0.686827 -0.215026 0.729925 -0.648824 
0.144885 0.858956 -0.491124 -0.0473538 0.900591 -0.43208 -0.180649 0.895478 -0.406799 
0.492022 0.580953 -0.648389 0.482414 0.583371 -0.653418 0.179168 0.669909 -0.7205 
-0.0378309 0.72278 -0.690041 -0.0599393 0.796535 -0.601613 -0.173271 0.760942 -0.625255 
0.0263277 0.822368 -0.568347 -0.0183844 0.802592 -0.596245 0.155955 0.834318 -0.528765 
-0.0539073 0.813343 -0.579281 -0.165316 0.904406 -0.393345 -0.179315 0.893074 -0.412631 
-0.0836107 0.938284 -0.335608 -0.0483132 0.949359 -0.310456 -0.120795 0.920988 -0.370392 
-0.303697 0.886475 -0.349186 -0.550406 0.726018 -0.41225 0.674271 0.428616 -0.601371 
0.691875 0.407582 -0.595975 0.539827 0.428142 -0.724763 -0.353957 0.59785 -0.719229 
-0.571048 0.707081 -0.417062 -0.551802 0.709393 -0.438492 0.711271 0.384892 -0.588177 
0.662357 0.358557 -0.657815 -0.803976 0.356043 -0.476295 -0.527995 0.293068 -0.797077 
-0.833851 0.257764 -0.488109 0.702589 0.408527 -0.582644 0.719018 0.374716 -0.585321 
0.57541 0.290049 -0.764706 -0.858962 0.112816 -0.499456 -0.810239 0.110009 -0.575682 
0.78928 0.213608 -0.575682 0.680361 0.220466 -0.698931 -0.851722 -0.130748 -0.50742 
-0.7979 -0.259381 -0.54413 -0.79961 -0.14771 -0.58207 0.826887 -0.0370917 -0.561144 
0.681859 -0.048701 -0.72986 -0.728465 -0.36894 -0.577254 -0.522843 -0.303223 -0.796675 
0.763485 -0.278035 -0.582912 0.67769 -0.487617 -0.550424 0.679466 -0.28157 -0.677529 
0.405731 -0.306806 -0.86096 -0.335899 -0.44958 -0.827678 -0.647723 -0.52723 -0.549985 
-0.582145 -0.589237 -0.560274 -0.556685 -0.529252 -0.640307 0.533487 -0.653299 -0.537207 
0.426224 -0.71207 -0.557933 0.360512 -0.580356 -0.730218 0.210105 -0.779271 -0.590418 
0.183423 -0.584637 -0.790289 0.0170904 -0.529549 -0.848107 -0.0802291 -0.743442 -0.663971 
-0.0545391 -0.552579 -0.831675 -0.0970915 -0.702551 -0.704978 -0.0707744 -0.586886 -0.806571 
-0.0402712 -0.726165 -0.686341 -0.0302253 -0.632031 -0.774354 0.0250674 -0.772906 -0.634025 
0.0121042 -0.593828 -0.804501 -0.0242545 -0.806601 -0.590598 -0.0271244 -0.545013 -0.837989 
-0.0812411 -0.79377 -0.602768 -0.0391141 -0.612913 -0.789182 -0.0684623 -0.821277 -0.566407 
-0.0169738 -0.648877 -0.760704 -0.0934271 -0.824754 -0.55772 -0.0605288 -0.687035 -0.724099 
-0.195205 -0.795549 -0.573583 -0.182459 -0.709236 -0.68095 -0.394941 -0.750369 -0.530064 
-0.386481 -0.756882 -0.527032 -0.387377 -0.74529 -0.542663 0.0969315 -0.806588 -0.583112 
-0.0477562 -0.7619 -0.645932 0.0595449 -0.811787 -0.580911 0.0559891 -0.795904 -0.602828 
0.247054 0.520843 -0.817121 0.0155669 0.64103 -0.767358 -0.10624 0.641792 -0.759484 
-0.0112754 0.568722 -0.822453 0.118229 0.566754 -0.81536 -0.0351984 0.607006 -0.793918 
-0.123626 0.611593 -0.781454 -0.0345993 0.630141 -0.77571 -0.00275043 0.667246 -0.744833 
-0.146204 0.67235 -0.725652 0.432207 0.429841 -0.792738 0.50398 0.347737 -0.790622 
0.270263 0.409601 -0.871312 0.0205005 0.42336 -0.905729 -0.123165 0.440583 -0.889223 
-0.0135032 0.432276 -0.90164 0.0918931 0.37171 -0.92379 -0.0129725 0.348012 -0.9374 
-0.0854022 0.451626 -0.88811 -0.0183513 0.539845 -0.841564 0.00375899 0.556541 -0.830811 
-0.280307 0.576009 -0.767881 -0.156762 0.580043 -0.799359 -0.33636 0.497559 -0.79956 
0.512752 0.301225 -0.803958 0.461685 0.269725 -0.845042 0.206876 0.162097 -0.964845 
0.007038 0.0577191 -0.998308 -0.14199 0.064229 -0.987782 -0.0621305 0.172905 -0.982977 
0.0819186 0.158842 -0.9839 0.0332969 0.103946 -0.994025 0.00264646 0.0696855 -0.997566 
0.0540267 0.114507 -0.991952 0.0393994 0.138765 -0.989541 -0.123705 0.206456 -0.970604 
-0.507117 0.291515 -0.81108 -0.282287 0.292752 -0.91357 -0.52772 0.224562 -0.819197 
0.518371 0.253994 -0.816565 0.51896 0.216275 -0.826986 0.336199 0.15586 -0.928805 
0.0730608 0.0552973 -0.995793 -0.0779538 -0.0712668 -0.994406 0.00144319 -0.0584996 -0.998286 
0.0808731 0.199257 -0.976604 0.00186674 0.0775758 -0.996985 -0.102729 0.0411042 -0.99386 
-0.0517972 0.00750266 -0.998629 0.0843789 -0.032638 -0.995899 0.0727127 -0.00514784 -0.99734 
-0.0185484 -0.0225857 -0.999573 -0.240758 0.0305293 -0.970105 -0.549636 0.0325082 -0.834771 
-0.52186 0.0277448 -0.85258 0.494865 0.152947 -0.855404 0.459577 0.137602 -0.877413 
0.226749 0.0333564 -0.973382 -0.0139846 -0.0375186 -0.999198 -0.105052 -0.0232391 -0.994195 
0.111378 -0.00888116 -0.993738 0.0819074 0.0253718 -0.996317 -0.0689204 -0.0748543 -0.99481 
-0.0314707 -0.00361624 -0.999498 -0.0719998 0.0779037 -0.994358 0.0391452 -0.0045862 -0.999223 
0.0510971 -0.058184 -0.996997 -0.0759468 -0.111246 -0.990887 -0.241925 -0.167172 -0.955786 
-0.499975 -0.120738 -0.857582 -0.491619 -0.145657 -0.858542 -0.487086 -0.119225 -0.865178 
0.46131 -0.0720843 -0.884306 0.405148 -0.266594 -0.874519 0.401452 -0.0841239 -0.912009 
0.164968 -0.120822 -0.978871 0.0182837 -0.145493 -0.98919 -0.0492957 -0.0789134 -0.995662 
0.0574624 -0.0620314 -0.996419 0.0154581 -0.19654 -0.980374 -0.0310226 -0.155305 -0.987379 
0.0446168 -0.202078 -0.978352 -0.0515635 -0.13537 -0.989452 -0.051656 -0.116086 -0.991895 
-0.0417184 -0.194751 -0.979965 -0.125323 -0.231575 -0.964711 -0.381431 -0.299812 -0.874427 
-0.295916 -0.367654 -0.881626 -0.267548 -0.295367 -0.917157 0.382391 -0.304468 -0.872397 
0.186393 -0.469351 -0.863115 0.176325 -0.295308 -0.93899 0.0120586 -0.473496 -0.880713 
0.0236575 -0.292841 -0.955868 -0.0484484 -0.470829 -0.880893 -0.0307157 -0.307817 -0.95095 
-0.0410809 -0.473611 -0.879776 -0.0040576 -0.313122 -0.949704 -0.0326879 -0.539766 -0.84118 
-0.0277993 -0.430377 -0.902221 -0.0376559 -0.45763 -0.888345 -0.0659981 -0.359478 -0.930817 
-0.0193086 -0.445849 -0.8949 -0.014037 -0.410889 -0.911577 0.00247788 -0.490238 -0.871585 
0.0160855 -0.43303 -0.901236 -0.00242671 -0.474037 -0.880502 -0.0113057 -0.38716 -0.921943 
-0.0437904 -0.462572 -0.8855 -0.057215 -0.368603 -0.927824 -0.222943 -0.39278 -0.8922 
-0.172582 -0.424054 -0.889041 -0.165925 -0.369694 -0.914218 
