# vtk DataFile Version 4.2
vtk output
ASCII
DATASET POLYDATA
POINTS 532 float
-14.9523 -32.8927 -11.8194 -7.6831 -32.8927 -13.0338 -0.41392 -32.8927 -13.587 
6.85526 -32.8927 -12.9911 -29.4906 -25.6235 -12.5314 -22.2215 -25.6235 -13.3628 
-14.9523 -25.6235 -13.5519 -7.6831 -25.6235 -14.5672 -0.41392 -25.6235 -15.2865 
6.85526 -25.6235 -15.1294 14.1244 -25.6235 -14.6649 21.3936 -25.6235 -14.3391 
28.6628 -25.6235 -12.7836 -36.7598 -18.3543 -13.7664 -29.4906 -18.3543 -14.8328 
-22.2215 -18.3543 -14.9406 -14.9523 -18.3543 -14.4653 -7.6831 -18.3543 -14.5777 
-0.41392 -18.3543 -16.0704 6.85526 -18.3543 -15.6814 14.1244 -18.3543 -15.84 
21.3936 -18.3543 -16.1061 28.6628 -18.3543 -15.2605 35.932 -18.3543 -12.6952 
-44.029 -11.0851 -11.9158 -36.7598 -11.0851 -14.344 -29.4906 -11.0851 -15.2686 
-22.2215 -11.0851 -15.8411 -14.9523 -11.0851 -16.0911 -7.6831 -11.0851 -15.7304 
-0.41392 -11.0851 -16.9089 6.85526 -11.0851 -15.9397 14.1244 -11.0851 -15.7353 
21.3936 -11.0851 -16.4875 28.6628 -11.0851 -16.1043 35.932 -11.0851 -14.0049 
-44.029 -3.81596 -12.9976 -36.7598 -3.81596 -15.1869 -29.4906 -3.81596 -15.3255 
-22.2215 -3.81596 -15.1925 -14.9523 -3.81596 -16.4774 -7.6831 -3.81596 -17.0174 
-0.41392 -3.81596 -15.0293 6.85526 -3.81596 -17.0029 14.1244 -3.81596 -15.6127 
21.3936 -3.81596 -16.0009 28.6628 -3.81596 -15.9829 35.932 -3.81596 -15.3357 
43.2012 -3.81596 -12.9219 -44.029 3.45323 -13.7878 -36.7598 3.45323 -16.318 
-29.4906 3.45323 -15.8835 -22.2215 3.45323 -15.3954 -14.9523 3.45323 -15.455 
-7.6831 3.45323 -17.185 -0.41392 3.45323 -15.0621 6.85526 3.45323 -17.0394 
14.1244 3.45323 -15.4873 21.3936 3.45323 -15.9093 28.6628 3.45323 -16.0759 
35.932 3.45323 -15.4636 43.2012 3.45323 -13.525 -44.029 10.7224 -14.5155 
-36.7598 10.7224 -16.3912 -29.4906 10.7224 -17.3425 -22.2215 10.7224 -16.9968 
-14.9523 10.7224 -16.8426 -7.6831 10.7224 -16.3335 -0.41392 10.7224 -16.1786 
6.85526 10.7224 -16.0037 14.1244 10.7224 -15.5842 21.3936 10.7224 -16.4766 
28.6628 10.7224 -16.7446 35.932 10.7224 -15.7236 43.2012 10.7224 -13.4801 
-44.029 17.9916 -14.5238 -36.7598 17.9916 -17.3525 -29.4906 17.9916 -18.6992 
-22.2215 17.9916 -18.7165 -14.9523 17.9916 -17.736 -7.6831 17.9916 -16.2419 
-0.41392 17.9916 -15.4076 6.85526 17.9916 -16.2498 14.1244 17.9916 -16.1393 
21.3936 17.9916 -16.3567 28.6628 17.9916 -16.0341 35.932 17.9916 -14.8718 
43.2012 17.9916 -12.3394 -44.029 25.2608 -13.9722 -36.7598 25.2608 -17.6997 
-29.4906 25.2608 -18.8486 -22.2215 25.2608 -18.8098 -14.9523 25.2608 -17.6564 
-7.6831 25.2608 -16.0242 -0.41392 25.2608 -15.1722 6.85526 25.2608 -15.6444 
14.1244 25.2608 -15.7626 21.3936 25.2608 -15.3111 28.6628 25.2608 -14.8363 
35.932 25.2608 -12.6441 -36.7598 32.53 -15.8535 -29.4906 32.53 -18.694 
-22.2215 32.53 -17.8914 -14.9523 32.53 -16.5833 -7.6831 32.53 -14.7001 
-0.41392 32.53 -13.6409 6.85526 32.53 -13.1817 14.1244 32.53 -13.1066 
21.3936 32.53 -12.5877 -29.4906 39.7991 -14.1841 -22.2215 39.7991 -14.6616 
-14.9523 39.7991 -13.4636 -29.4906 -40.1619 -4.41652 -22.2215 -40.1619 -6.72026 
-14.9523 -33.2935 -11.6416 -14.9523 -40.1619 -8.32675 -7.6831 -35.8634 -11.6416 
-7.6831 -40.1619 -9.33833 -0.41392 -36.7714 -11.6416 -0.41392 -40.1619 -9.36388 
6.85526 -35.2166 -11.6416 6.85526 -40.1619 -7.53852 -36.7598 -32.8927 -7.30911 
-29.4906 -27.6745 -11.6416 -29.4906 -32.8927 -9.20671 -18.6909 -32.8927 -11.6416 
-22.2215 -32.2505 -11.6416 -22.2215 -32.8927 -11.4475 14.0158 -32.8927 -11.6416 
14.1244 -32.844 -11.6416 14.1244 -32.8927 -11.6165 21.3936 -30.3882 -11.6416 
21.3936 -32.8927 -9.2556 28.6628 -27.1933 -11.6416 -44.029 -25.6235 -6.67142 
-34.828 -25.6235 -11.6416 -36.7598 -24.7741 -11.6416 -36.7598 -25.6235 -11.2522 
30.8422 -25.6235 -11.6416 35.932 -20.4657 -11.6416 35.932 -25.6235 -7.53181 
-41.158 -18.3543 -11.6416 -44.029 -11.9643 -11.6416 -44.029 -18.3543 -9.60934 
37.794 -18.3543 -11.6416 43.2012 -18.3543 -7.45497 -44.4431 -11.0851 -11.6416 
41.8232 -11.0851 -11.6416 43.2012 -8.95257 -11.6416 43.2012 -11.0851 -11.0363 
50.4704 -11.0851 -6.40342 -47.069 -3.81596 -11.6416 -51.2982 -3.81596 -4.84184 
46.5588 -3.81596 -11.6416 50.4704 -3.81596 -9.43526 -49.1158 3.45323 -11.6416 
-51.2982 3.45323 -4.98411 48.3224 3.45323 -11.6416 50.4704 3.45323 -10.4478 
-47.8707 10.7224 -11.6416 47.8752 10.7224 -11.6416 50.4704 10.7224 -9.97374 
-47.5101 17.9916 -11.6416 44.5821 17.9916 -11.6416 43.2012 20.249 -11.6416 
50.4704 17.9916 -7.46636 -45.6061 25.2608 -11.6416 -44.029 29.516 -11.6416 
28.6628 30.5312 -11.6416 39.1053 25.2608 -11.6416 35.932 27.0486 -11.6416 
43.2012 25.2608 -9.12161 -42.723 32.53 -11.6416 -36.7598 38.6358 -11.6416 
-7.6831 39.6241 -11.6416 -0.41392 35.7995 -11.6416 6.85526 34.6938 -11.6416 
14.1244 34.2469 -11.6416 24.6573 32.53 -11.6416 21.3936 33.6372 -11.6416 
28.6628 32.53 -9.88762 35.932 32.53 -4.80257 -34.9552 39.7991 -11.6416 
-29.4906 42.891 -11.6416 -22.2215 43.3773 -11.6416 -8.02258 39.7991 -11.6416 
-14.9523 41.6894 -11.6416 -7.6831 39.7991 -11.4796 -0.41392 39.7991 -6.69148 
6.85526 39.7991 -4.41074 -29.4906 -40.202 -4.37245 -22.2215 -42.143 -4.37245 
-14.9523 -44.6075 -4.37245 -7.6831 -45.3286 -4.37245 -7.6831 -47.431 1.12979 
-0.41392 -44.6043 -4.37245 6.85526 -42.5929 -4.37245 -29.5525 -40.1619 -4.37245 
-36.7598 -35.4002 -4.37245 13.9177 -40.1619 -4.37245 14.1244 -40.083 -4.37245 
14.1244 -40.1619 -3.52315 21.3936 -36.3591 -4.37245 -39.5535 -32.8927 -4.37245 
-44.029 -27.7037 -4.37245 28.0825 -32.8927 -4.37245 28.6628 -32.5802 -4.37245 
35.932 -27.9173 -4.37245 -45.4176 -25.6235 -4.37245 39.1796 -25.6235 -4.37245 
43.2012 -21.8363 -4.37245 -48.3984 -18.3543 -4.37245 46.5874 -18.3543 -4.37245 
50.4704 -13.8821 -4.37245 -50.6253 -11.0851 -4.37245 -51.2982 -5.16679 -4.37245 
52.2715 -11.0851 -4.37245 -51.4367 -3.81596 -4.37245 -51.2982 -3.81596 -3.98788 
55.148 -3.81596 -4.37245 57.7395 -3.81596 2.26424 -51.3927 3.45323 -4.37245 
-51.2982 4.49419 -4.37245 -51.2982 3.45323 -4.17956 55.8554 3.45323 -4.37245 
57.7395 3.45323 0.594194 -50.7 10.7224 -4.37245 54.9118 10.7224 -4.37245 
-48.6927 17.9916 -4.37245 -44.029 17.9916 2.07003 52.5543 17.9916 -4.37245 
50.4704 20.8385 -4.37245 -46.6247 25.2608 -4.37245 -44.029 29.7217 -4.37245 
-44.029 25.2608 -1.65297 46.5463 25.2608 -4.37245 43.2012 28.1106 -4.37245 
-42.5285 32.53 -4.37245 -36.7598 39.6372 -4.37245 -36.7598 32.53 1.9323 
14.1244 39.3491 -4.37245 21.3936 38.2314 -4.37245 28.6628 35.9387 -4.37245 
36.2855 32.53 -4.37245 35.932 32.7297 -4.37245 35.932 32.53 -0.324816 
-36.5576 39.7991 -4.37245 -29.4906 43.8458 -4.37245 -29.4906 39.7991 1.4958 
-22.2215 44.9019 -4.37245 -14.9523 44.1757 -4.37245 -7.6831 42.9158 -4.37245 
-0.41392 40.9019 -4.37245 -0.41392 39.7991 1.29295 7.15046 39.7991 -4.37245 
6.85526 39.817 -4.37245 6.85526 39.7991 -4.12178 -7.6831 -47.9529 2.89673 
-29.4906 -42.5916 2.89673 -22.2215 -45.4909 2.89673 -12.4601 -47.431 2.89673 
-14.9523 -47.1588 2.89673 -4.75161 -47.431 2.89673 -7.6831 -47.431 4.99115 
-0.41392 -46.6579 2.89673 6.85526 -44.2067 2.89673 14.1244 -40.6682 2.89673 
-32.9001 -40.1619 2.89673 -36.7598 -37.0387 2.89673 -29.4906 -40.1619 8.84709 
15.0321 -40.1619 2.89673 14.1244 -40.1619 4.11519 21.3936 -36.5292 2.89673 
-40.8206 -32.8927 2.89673 -44.029 -27.5506 2.89673 -36.7598 -32.8927 9.17966 
28.232 -32.8927 2.89673 21.3936 -32.8927 9.07232 28.6628 -32.6504 2.89673 
35.932 -28.5997 2.89673 -44.9786 -25.6235 2.89673 -44.029 -25.6235 4.32153 
40.5574 -25.6235 2.89673 35.932 -25.6235 9.8321 43.2012 -23.7768 2.89673 
-47.2652 -18.3543 2.89673 -44.029 -18.3543 6.92717 49.596 -18.3543 2.89673 
50.4704 -17.3685 2.89673 -48.1674 -11.0851 2.89673 -44.029 -11.0851 7.42513 
54.9148 -11.0851 2.89673 57.7395 -4.28505 2.89673 -47.7142 -3.81596 2.89673 
-44.029 -3.81596 6.30581 57.9149 -3.81596 2.89673 57.7395 -3.81596 3.52501 
-47.3974 3.45323 2.89673 -44.029 3.45323 5.89608 -36.7598 3.45323 8.78962 
58.3855 3.45323 2.89673 57.7395 6.60165 2.89673 57.7395 3.45323 5.44105 
-45.5993 10.7224 2.89673 -44.029 15.6126 2.89673 -44.029 10.7224 4.10705 
-36.7598 10.7224 7.27835 -29.4906 10.7224 9.91232 56.8455 10.7224 2.89673 
-42.8083 17.9916 2.89673 -36.7598 17.9916 6.23902 -29.4906 17.9916 9.34324 
53.4735 17.9916 2.89673 50.4704 21.5588 2.89673 50.4704 17.9916 7.917 
-39.8871 25.2608 2.89673 -36.7598 30.8823 2.89673 -36.7598 25.2608 5.42788 
-29.4906 25.2608 8.42941 35.932 32.3572 2.89673 46.6621 25.2608 2.89673 
43.2012 27.9268 2.89673 43.2012 25.2608 7.53053 -35.4377 32.53 2.89673 
-29.4906 38.2257 2.89673 -29.4906 32.53 6.73911 -22.2215 32.53 9.07928 
-0.41392 39.4238 2.89673 6.85526 39.2521 2.89673 14.1244 39.1189 2.89673 
21.3936 38.0051 2.89673 35.6097 32.53 2.89673 28.6628 35.7977 2.89673 
28.6628 32.53 8.49134 -27.0637 39.7991 2.89673 -22.2215 41.6187 2.89673 
-22.2215 39.7991 4.91517 -14.9523 41.6712 2.89673 -14.9523 39.7991 5.39414 
-2.21827 39.7991 2.89673 -7.6831 40.8525 2.89673 -7.6831 39.7991 4.3627 
-22.2215 -42.8801 10.1659 -14.9523 -45.4497 10.1659 -7.6831 -45.8054 10.1659 
-0.41392 -44.8037 10.1659 6.85526 -41.5148 10.1659 -28.1687 -40.1619 10.1659 
-29.4906 -39.2535 10.1659 -22.2215 -40.1619 12.5986 -14.9523 -40.1619 15.1255 
-7.6831 -40.1619 15.9693 -0.41392 -40.1619 15.0636 9.14111 -40.1619 10.1659 
6.85526 -40.1619 11.6697 14.1244 -36.7109 10.1659 -35.8007 -32.8927 10.1659 
-36.7598 -30.9676 10.1659 -29.4906 -32.8927 13.4435 -22.2215 -32.8927 16.3128 
6.85526 -32.8927 16.726 20.053 -32.8927 10.1659 14.1244 -32.8927 13.3188 
21.3936 -31.9973 10.1659 28.6628 -28.4989 10.1659 -38.7335 -25.6235 10.1659 
-36.7598 -25.6235 11.9845 -29.4906 -25.6235 14.8857 -22.2215 -25.6235 17.1754 
14.1244 -25.6235 16.473 21.3936 -25.6235 14.9827 35.5091 -25.6235 10.1659 
28.6628 -25.6235 12.9028 35.932 -25.4391 10.1659 43.2012 -21.1284 10.1659 
-39.9022 -18.3543 10.1659 -36.7598 -18.3543 12.0776 -29.4906 -18.3543 14.9541 
-22.2215 -18.3543 16.9527 35.932 -18.3543 16.6758 46.7567 -18.3543 10.1659 
43.2012 -18.3543 12.8386 50.4704 -14.0842 10.1659 -39.8007 -11.0851 10.1659 
[...]
POINT_DATA 532
SCALARS ImageScalars float
LOOKUP_TABLE default
0 0 0 0 0 0 0 0 0 
0 0 0 0 0 0 0 0 0 
0 0 0 0 0 0 0 0 0 
0 0 0 0 0 0 0 0 0 
0 0 0 0 0 0 0 0 0 
0 0 0 0 0 0 0 0 0 
0 0 0 0 0 0 0 0 0 
0 0 0 0 0 0 0 0 0 
0 0 0 0 0 0 0 0 0 
0 0 0 0 0 0 0 0 0 
0 0 0 0 0 0 0 0 0 
0 0 0 0 0 0 0 0 0 
0 0 0 0 0 0 0 0 0 
0 0 0 0 0 0 0 0 0 
0 0 0 0 0 0 0 0 0 
0 0 0 0 0 0 0 0 0 
0 0 0 0 0 0 0 0 0 
0 0 0 0 0 0 0 0 0 
0 0 0 0 0 0 0 0 0 
0 0 0 0 0 0 0 0 0 
0 0 0 0 0 0 0 0 0 
0 0 0 0 0 0 0 0 0 
0 0 0 0 0 0 0 0 0 
0 0 0 0 0 0 0 0 0 
0 0 0 0 0 0 0 0 0 
0 0 0 0 0 0 0 0 0 
0 0 0 0 0 0 0 0 0 
0 0 0 0 0 0 0 0 0 
0 0 0 0 0 0 0 0 0 
0 0 0 0 0 0 0 0 0 
0 0 0 0 0 0 0 0 0 
0 0 0 0 0 0 0 0 0 
0 0 0 0 0 0 0 0 0 
0 0 0 0 0 0 0 0 0 
0 0 0 0 0 0 0 0 0 
0 0 0 0 0 0 0 0 0 
0 0 0 0 0 0 0 0 0 
0 0 0 0 0 0 0 0 0 
0 0 0 0 0 0 0 0 0 
0 0 0 0 0 0 0 0 0 
0 0 0 0 0 0 0 0 0 
0 0 0 0 0 0 0 0 0 
0 0 0 0 0 0 0 0 0 
0 0 0 0 0 0 0 0 0 
0 0 0 0 0 0 0 0 0 
0 0 0 0 0 0 0 0 0 
0 0 0 0 0 0 0 0 0 
0 0 0 0 0 0 0 0 0 
0 0 0 0 0 0 0 0 0 
0 0 0 0 0 0 0 0 0 
0 0 0 0 0 0 0 0 0 
0 0 0 0 0 0 0 0 0 
0 0 0 0 0 0 0 0 0 
0 0 0 0 0 0 0 0 0 
0 0 0 0 0 0 0 0 0 
0 0 0 0 0 0 0 0 0 
0 0 0 0 0 0 0 0 0 
0 0 0 0 0 0 0 0 0 
0 0 0 0 0 0 0 0 0 
0 
NORMALS Normals float
0.0992083 0.322149 0.941476 0.117438 0.316611 0.941258 -0.00350895 0.344617 0.938737 
-0.122451 0.406423 0.905442 0.12013 0.354604 0.927267 0.0676658 0.242 0.967914 
0.0821408 0.17057 0.981916 0.115777 0.0960207 0.988623 0.0398543 0.167481 0.985069 
-0.0411263 0.177275 0.983302 -0.0542604 0.264984 0.962725 -0.116832 0.378462 0.918214 
-0.333358 0.49158 0.804501 0.286961 0.170583 0.942632 0.0843631 0.174645 0.981011 
-0.0247392 0.164565 0.986056 -0.0243203 0.164923 0.986006 0.112246 0.079536 0.990492 
0.0746261 0.109394 0.991193 -0.0162623 0.0545554 0.998378 0.0303993 0.0702646 0.997065 
-0.039728 0.143709 0.988822 -0.223267 0.207858 0.952338 -0.421547 0.295248 0.857395 
0.45192 0.218286 0.864939 0.197556 0.10068 0.975108 0.09835 0.0353566 0.994524 
0.0552702 0.0162651 0.998339 -0.00749212 0.137389 0.990489 0.0589263 0.163709 0.984747 
0.0162085 -0.0479517 0.998718 -0.0827887 0.0898471 0.992509 0.0387164 -0.0157343 0.999126 
0.0265152 -0.0064367 0.999628 -0.164973 0.0508689 0.984985 -0.306212 0.16562 0.937445 
0.359962 0.114618 0.9259 0.180188 0.130546 0.974931 -0.000433212 0.0420459 0.999116 
0.0664558 -0.0306713 0.997318 0.133947 -0.0431262 0.99005 -0.0857261 0.10521 0.990748 
0.00480156 -0.145803 0.989302 0.0152454 0.0751028 0.997059 -0.0638933 -0.0170195 0.997812 
0.0253965 -0.0396386 0.998891 -0.0423174 -0.00160651 0.999103 -0.207902 0.0947007 0.973555 
-0.3414 0.151087 0.927695 0.365813 0.111987 0.923927 0.161905 0.0766719 0.983823 
-0.0598087 0.136252 0.988867 -0.0303299 0.126073 0.991557 0.122545 0.0341642 0.991875 
-0.0173843 -0.0494214 0.998627 -0.00500676 0.0875387 0.996149 0.00974876 -0.0697509 0.997517 
-0.073801 -0.00195541 0.997271 0.0404123 0.0326885 0.998648 -0.0302327 0.0515152 0.998214 
-0.174371 0.0251436 0.984359 -0.320696 0.037759 0.946429 0.474571 0.0585852 0.878265 
0.198927 0.0751104 0.977132 0.0497091 0.189811 0.980562 -0.0342416 0.233237 0.971817 
-0.0448317 0.149517 0.987742 -0.0453682 -0.0619437 0.997048 -0.0225413 0.0128181 0.999664 
-0.0413363 -0.0524475 0.997768 0.0334276 0.0453507 0.998412 0.0798456 0.0308977 0.996328 
-0.0486935 -0.00143429 0.998813 -0.222368 -0.0367238 0.974271 -0.341448 -0.0640969 0.937713 
0.624377 -0.021745 0.780821 0.252516 0.0930879 0.963104 0.103621 0.102801 0.98929 
-0.0652743 0.122042 0.990376 -0.163805 0.0532155 0.985056 -0.162099 -0.021216 0.986546 
0.00323915 -0.0686517 0.997635 0.0502767 -0.0241037 0.998444 0.00739476 0.0119196 0.999902 
-0.00653819 -0.0766549 0.997036 -0.0966716 -0.117945 0.988303 -0.216541 -0.201181 0.95532 
-0.405296 -0.224303 0.886241 0.767811 -0.218978 0.602093 0.267733 -0.114825 0.956626 
0.0641194 0.00144074 0.997941 -0.0806182 -0.0584807 0.995028 -0.19281 -0.0755553 0.978323 
-0.170433 -0.0998873 0.980293 -0.0261438 -0.118469 0.992614 0.0405842 -0.198534 0.979253 
-0.0215659 -0.169573 0.985282 -0.0600471 -0.240598 0.968766 -0.176116 -0.343532 0.92248 
-0.282577 -0.409328 0.867526 0.424697 -0.358626 0.831276 0.138767 -0.322577 0.936316 
-0.126375 -0.255123 0.958615 -0.217221 -0.24607 0.944598 -0.198317 -0.287437 0.937044 
-0.0991305 -0.386005 0.917155 -0.0352307 -0.482864 0.874986 -0.0385409 -0.550617 0.833868 
-0.16295 -0.575509 0.801397 0.198419 -0.648714 0.734711 -0.0409324 -0.610905 0.790645 
-0.219227 -0.624728 0.749436 0.386283 0.745682 0.542903 0.229262 0.689418 0.687125 
0.0972544 0.33315 0.937845 0.129609 0.578824 0.805087 0.107919 0.422692 0.899825 
0.0654191 0.598554 0.798407 -0.0318665 0.483307 0.874871 -0.0843537 0.651428 0.754007 
-0.154449 0.492222 0.856658 -0.241269 0.758682 0.605137 0.481297 0.617118 0.62251 
0.147229 0.385152 0.911033 0.226325 0.48664 0.843776 0.129962 0.325281 0.936644 
0.153283 0.318933 0.9353 0.162264 0.331371 0.929442 -0.186679 0.514114 0.837161 
-0.186631 0.51404 0.837217 -0.188079 0.516436 0.835416 -0.217199 0.555003 0.802992 
-0.322352 0.710782 0.625202 -0.362307 0.564762 0.74147 0.744151 0.496763 0.446617 
0.232442 0.390982 0.890564 0.282956 0.374063 0.883183 0.290701 0.408363 0.865294 
-0.397837 0.530216 0.74873 -0.456573 0.380405 0.80426 -0.534022 0.679746 0.502758 
0.477438 0.207711 0.853762 0.470217 0.22478 0.853446 0.663432 0.265416 0.69958 
-0.461483 0.328512 0.824083 -0.604889 0.49202 0.626119 0.472254 0.228074 0.851445 
-0.403296 0.261084 0.877034 -0.398795 0.249475 0.882454 -0.434846 0.293188 0.85144 
-0.679774 0.385431 0.62398 0.531629 0.162366 0.831269 0.99829 0.0576514 0.00967722 
-0.441759 0.186274 0.877582 -0.599742 0.203229 0.773956 0.68581 -0.00260452 0.727776 
0.992887 -0.0496201 -0.108225 -0.493322 0.0333681 0.869207 -0.588449 0.0265672 0.808098 
0.752301 -0.0634498 0.655757 -0.502232 -0.102244 0.858667 -0.636963 -0.122842 0.761044 
0.832513 -0.13661 0.536898 -0.454312 -0.261456 0.851611 -0.451585 -0.324233 0.831231 
-0.732841 -0.425844 0.53066 0.865234 -0.311975 0.392482 0.857848 -0.40877 0.311455 
-0.245205 -0.568473 0.785311 -0.390353 -0.461928 0.796396 -0.312984 -0.498973 0.808126 
-0.577589 -0.59318 0.560829 0.816573 -0.479527 0.321344 0.557089 -0.736266 0.384141 
-0.273883 -0.666009 0.693845 -0.164764 -0.557736 0.813501 -0.0686975 -0.590832 0.803865 
-0.0555603 -0.638179 0.767881 -0.207224 -0.612345 0.762949 -0.16239 -0.635382 0.75493 
-0.291764 -0.707808 0.643336 -0.467217 -0.857818 0.214143 0.491878 -0.766863 0.412283 
0.288521 -0.800429 0.525423 -0.0762312 -0.822127 0.564177 -0.272911 -0.67407 0.686404 
-0.243619 -0.756007 0.607539 -0.275782 -0.68299 0.676365 -0.229904 -0.918975 0.320357 
-0.105165 -0.974423 0.198595 0.386712 0.747362 0.540281 0.260072 0.772045 0.579922 
0.169218 0.808593 0.563509 -0.00291235 0.841023 0.540992 -0.0298332 0.99017 0.136647 
-0.163485 0.863599 0.476937 -0.275965 0.863367 0.422423 0.388341 0.747205 0.539328 
0.555037 0.722655 0.411951 -0.370432 0.857757 0.356416 -0.373134 0.857329 0.354625 
-0.39169 0.871387 0.295405 -0.437745 0.858293 0.267792 0.622806 0.670407 0.403321 
0.775634 0.560563 0.290106 -0.471515 0.845425 0.250859 -0.476925 0.842974 0.248871 
-0.546358 0.779873 0.305438 0.827036 0.501259 0.254462 -0.585743 0.738712 0.333481 
-0.642985 0.640663 0.419669 0.911743 0.351228 0.212986 -0.666343 0.580493 0.46799 
-0.716623 0.484852 0.501369 0.97526 0.199303 0.0956372 0.997092 0.0752859 -0.0117847 
-0.749428 0.404352 0.524268 0.99834 0.0490731 -0.0301417 0.997628 0.0426692 -0.0540197 
-0.802118 0.210234 0.558935 -0.975316 0.216936 0.0412125 0.98546 -0.0476043 -0.163101 
0.985498 -0.0661323 -0.15627 0.98345 -0.0498086 -0.174197 -0.84317 -0.0158629 0.537413 
-0.984624 -0.0568694 0.16517 0.977285 -0.184302 -0.104624 -0.859797 -0.198566 0.470447 
0.951511 -0.258073 -0.167407 0.559826 -0.307448 -0.769461 -0.822426 -0.448894 0.349442 
-0.774996 -0.546592 0.317205 0.867279 -0.400259 -0.296005 0.840601 -0.487239 -0.236619 
0.791217 -0.35448 -0.498316 -0.677666 -0.689234 0.256369 -0.611302 -0.75906 0.223915 
0.83123 -0.515204 -0.208856 0.62631 -0.742012 -0.239068 0.473805 -0.451525 -0.756065 
-0.102358 -0.968203 0.228266 -0.231122 -0.944212 0.234619 -0.344302 -0.910772 0.227927 
-0.474055 -0.859993 0.188903 -0.46731 -0.863936 0.187712 -0.476181 -0.878386 -0.0410972 
0.617167 -0.75044 -0.236525 0.313212 -0.934828 -0.167314 0.410411 -0.624391 -0.664604 
0.012616 -0.991792 -0.127241 -0.137005 -0.990219 -0.0263937 -0.232468 -0.970294 0.0669977 
-0.21376 -0.968295 0.129274 -0.131185 -0.952599 -0.274491 -0.104909 -0.974743 0.197156 
-0.10509 -0.974948 0.196042 -0.102717 -0.978126 0.180883 -0.0351087 0.999043 0.0260979 
0.491424 0.870421 -0.0294931 0.285579 0.957605 0.0379226 0.0947499 0.994916 0.0341243 
0.159997 0.98631 0.0399325 -0.120982 0.992462 0.0195447 -0.0370765 0.993928 -0.103598 
-0.240968 0.970448 0.0128375 -0.387666 0.920534 -0.0482843 -0.47495 0.867629 -0.147117 
0.579576 0.814185 -0.0345659 0.692894 0.714732 -0.0951603 0.480792 0.723709 -0.495061 
-0.478391 0.864632 -0.15347 -0.480909 0.850511 -0.212973 -0.478444 0.853487 -0.206524 
0.784019 0.595064 -0.176673 0.848272 0.437661 -0.29814 0.646126 0.429456 -0.630943 
-0.488483 0.847561 -0.207426 -0.41487 0.705952 -0.574034 -0.487648 0.848253 -0.206557 
-0.498401 0.85936 -0.114445 0.86451 0.377871 -0.331415 0.835877 0.354428 -0.419154 
-0.549524 0.830752 -0.0887443 -0.38935 0.748316 -0.537056 -0.589564 0.80622 -0.0492347 
0.892455 0.210896 -0.398807 0.714411 0.142161 -0.685133 -0.717802 0.695978 0.0193623 
-0.744709 0.667104 0.0194881 0.819572 0.0415246 -0.57147 0.657013 -0.0343215 -0.753098 
-0.883199 0.468319 0.0252302 -0.973901 0.226963 0.00186884 0.759872 -0.0491959 -0.648208 
0.553684 -0.0844558 -0.828433 -0.977018 0.213157 -0.00071577 -0.975848 0.214391 -0.0419146 
0.730666 -0.110117 -0.673796 0.535094 -0.138525 -0.833358 0.350633 -0.184628 -0.918134 
-0.997621 -0.0676823 0.0131006 -0.987412 -0.155514 -0.0288578 -0.979919 -0.086568 -0.179623 
0.609406 -0.206682 -0.765445 0.522982 -0.273906 -0.807134 0.525438 -0.229533 -0.819286 
0.380598 -0.162679 -0.910319 0.362765 -0.117911 -0.924391 -0.953911 -0.285651 -0.0919685 
0.497074 -0.268964 -0.82497 0.442085 -0.120255 -0.888876 0.393823 -0.0960132 -0.914158 
-0.808642 -0.565642 -0.161702 -0.728213 -0.65857 -0.189715 -0.667093 -0.541188 -0.51196 
0.62526 -0.217859 -0.749391 0.461818 -0.389207 -0.797021 0.524112 -0.24693 -0.815066 
0.397508 -0.147045 -0.90574 -0.464288 -0.857177 -0.222897 -0.635866 -0.741291 -0.214853 
-0.569688 -0.788064 -0.233262 -0.52293 -0.698275 -0.488831 0.42719 -0.428812 -0.796008 
0.408193 -0.518416 -0.751414 0.417404 -0.376702 -0.826964 0.217519 -0.407281 -0.887022 
-0.0986636 -0.914082 -0.393345 -0.0189247 -0.957256 -0.288622 -0.079844 -0.971291 -0.224095 
-0.22108 -0.946286 -0.235936 -0.459523 -0.859604 -0.223428 -0.350338 -0.907066 -0.233442 
-0.311289 -0.754396 -0.577915 0.325115 -0.617071 -0.716606 0.125045 -0.789671 -0.600653 
0.192573 -0.671705 -0.715352 -0.0501764 -0.856665 -0.513427 -0.0204393 -0.76715 -0.641142 
-0.113294 -0.903837 -0.412606 -0.146612 -0.866299 -0.477525 -0.130533 -0.826886 -0.54701 
0.344355 0.732991 -0.586638 0.158925 0.863921 -0.477895 -0.0395526 0.8748 -0.482866 
-0.241094 0.850274 -0.467876 -0.417588 0.74743 -0.51669 0.438713 0.66823 -0.600832 
0.455944 0.635305 -0.6233 0.329302 0.592807 -0.734942 0.201744 0.509934 -0.836221 
0.00229872 0.525134 -0.851017 -0.220582 0.57452 -0.788207 -0.434552 0.722322 -0.537974 
-0.409899 0.689194 -0.59749 -0.458334 0.651471 -0.604579 0.591873 0.38456 -0.708378 
0.612804 0.339477 -0.713601 0.404811 0.295821 -0.865227 0.271863 0.264043 -0.925404 
-0.289564 0.351014 -0.890473 -0.407409 0.652806 -0.638641 -0.40997 0.505739 -0.759047 
-0.382675 0.660985 -0.645491 -0.310597 0.730837 -0.607789 0.625172 0.189573 -0.757115 
0.561588 0.158052 -0.812182 0.310798 0.103897 -0.94478 0.236858 0.0368003 -0.970847 
-0.21557 0.304007 -0.92796 -0.209054 0.486081 -0.848541 -0.376484 0.736962 -0.56138 
-0.263122 0.641357 -0.720714 -0.380742 0.737233 -0.558143 -0.508599 0.70099 -0.49994 
0.526066 0.0512193 -0.8489 0.464562 -0.0334998 -0.884907 0.322058 -0.0349591 -0.946074 
0.216147 -0.0211977 -0.976131 -0.255431 0.435727 -0.863074 -0.58723 0.636619 -0.499876 
-0.479 0.570008 -0.66757 -0.702473 0.509807 -0.496617 0.484218 -0.085831 -0.870727 
0.401674 -0.122279 -0.907582 0.352402 -0.129842 -0.926798 0.253182 -0.0509507 -0.966076 
-0.328483 0.284103 -0.900769 -0.756067 0.407958 -0.511794 -0.66366 0.389677 -0.63852 
0.378996 -0.182195 -0.907286 0.376991 -0.182563 -0.908047 0.378223 -0.182016 -0.907644 
0.367727 -0.200621 -0.908035 0.382935 -0.164019 -0.909098 -0.804845 0.181454 -0.565066 
-0.555331 0.134551 -0.820673 0.343743 -0.192611 -0.919098 0.358523 -0.132537 -0.924064 
0.341081 -0.19477 -0.919635 0.346648 -0.192157 -0.918102 0.148142 -0.208001 -0.966845 
0.240105 -0.175994 -0.95466 -0.796958 -0.123761 -0.59122 -0.517841 -0.1447 -0.84315 
0.364431 -0.114411 -0.924175 0.375056 -0.0909537 -0.922529 0.251632 -0.0515716 -0.966448 
0.212948 0.00560083 -0.977047 -0.308873 -0.236548 -0.921218 -0.671286 -0.330603 -0.663383 
-0.610067 -0.424275 -0.669185 -0.578489 -0.332092 -0.745027 0.393216 -0.0908395 -0.914948 
0.403716 -0.0800845 -0.911372 0.256864 -0.123848 -0.958479 0.0859729 -0.174475 -0.980901 
0.0427249 -0.266162 -0.962981 0.0912712 -0.177316 -0.979912 -0.222304 -0.336466 -0.91508 
-0.558425 -0.486587 -0.67186 -0.469318 -0.583966 -0.662362 -0.408624 -0.416666 -0.812044 
0.36038 -0.185072 -0.914262 0.26244 -0.332848 -0.905725 0.329096 -0.225956 -0.916864 
0.15807 -0.325066 -0.932387 0.0643775 -0.38461 -0.920832 0.0984001 -0.377612 -0.920721 
0.116178 -0.330364 -0.936676 0.0176708 -0.333552 -0.942566 -0.0927406 -0.389832 -0.916204 
-0.290011 -0.6728 -0.680613 -0.244534 -0.468352 -0.849028 -0.420072 -0.60968 -0.672183 
-0.369677 -0.629949 -0.683011 -0.344333 -0.552446 -0.759103 0.133339 -0.436339 -0.889848 
0.0928307 -0.471673 -0.876873 0.0995314 -0.449259 -0.88784 -0.00277683 -0.545078 -0.838381 
0.00896681 -0.52201 -0.852892 0.0510292 -0.61735 -0.785032 0.0619328 -0.591455 -0.803956 
0.0979464 -0.693668 -0.713604 0.114196 -0.622666 -0.77411 -0.0247837 -0.755417 -0.654776 
-0.0122057 -0.628519 -0.777698 -0.253572 -0.702031 -0.665473 -0.20615 -0.732166 -0.64918 
-0.202324 -0.675025 -0.709511 0.176854 0.239147 -0.954742 0.0251429 0.359657 -0.932746 
-0.163136 0.335134 -0.92794 0.191781 0.224389 -0.955442 0.173509 0.215762 -0.960907 
0.0381927 0.202604 -0.978516 -0.222208 0.305289 -0.925971 -0.138791 0.258516 -0.955985 
-0.250532 0.261894 -0.932012 0.220417 0.034841 -0.974783 0.147893 0.0300675 -0.988546 
0.0623081 -0.000246038 -0.998057 -0.0643091 0.061886 -0.996009 -0.206235 0.22075 -0.953277 
-0.1984 0.1411 -0.969912 -0.138074 0.240579 -0.960759 -0.0791844 0.317967 -0.944789 
-0.0817574 0.373855 -0.923877 0.180584 -0.0231939 -0.983286 0.126119 -0.026176 -0.99167 
0.0722319 -0.0449461 -0.996375 0.00482706 -0.0638387 -0.997949 -0.0558492 0.0283551 -0.998037 
-0.0591328 0.182583 -0.981411 -0.0530175 0.28183 -0.957999 -0.112436 0.376447 -0.91959 
-0.0768872 0.363709 -0.928334 -0.216727 0.321952 -0.921616 0.197165 -0.0107136 -0.980312 
0.12447 0.0379275 -0.991498 0.0270017 0.0459657 -0.998578 0.00804606 -0.00130507 -0.999967 
0.0456459 -0.0248442 -0.998649 0.0402465 0.0218472 -0.998951 0.00474247 0.0603029 -0.998169 
-0.066222 0.13376 -0.988799 -0.242589 0.229079 -0.942695 -0.163762 0.178633 -0.970192 
-0.277029 0.13681 -0.951072 0.306274 -0.136796 -0.942063 0.178251 -0.168907 -0.96938 
0.214102 -0.109834 -0.970617 0.190284 -0.171261 -0.966676 0.0327981 -0.121597 -0.992038 
-0.0677976 0.0957678 -0.993092 -0.0305338 0.0114544 -0.999468 0.0338723 -0.0448607 -0.998419 
0.057196 -0.0471071 -0.997251 0.0388053 -0.0181849 -0.999081 -0.124031 0.0286642 -0.991864 
-0.307606 0.0746846 -0.948578 -0.261888 0.0587115 -0.963311 0.22936 -0.145871 -0.962349 
0.142113 -0.0239224 -0.989561 -0.0933927 0.0016477 -0.995628 -0.0184069 0.0149292 -0.999719 
0.031338 -0.00935804 -0.999465 0.00945453 -0.0743404 -0.997188 -0.100412 -0.137784 -0.985359 
-0.228685 -0.132102 -0.964496 -0.206393 -0.139882 -0.968419 -0.199633 -0.129579 -0.971265 
0.188812 -0.0447753 -0.980992 0.0583746 -0.24999 -0.966487 0.104165 -0.200851 -0.974068 
0.0879441 -0.174241 -0.980768 0.00836257 -0.108799 -0.994029 0.0229114 -0.014479 -0.999633 
-0.0319959 -0.0271193 -0.99912 -0.0913972 -0.100684 -0.990712 -0.172829 -0.182787 -0.967842 
-0.168652 -0.189905 -0.967209 -0.165623 -0.180664 -0.9695 0.0897906 -0.176728 -0.980156 
0.0408897 -0.245465 -0.968543 0.0630539 -0.167215 -0.983902 -0.0659063 -0.261709 -0.962894 
-0.0537053 -0.180425 -0.982122 -0.158609 -0.226284 -0.961061 -0.158576 -0.228484 -0.960546 
-0.156475 -0.221865 -0.96244 
