# vtk DataFile Version 4.2
vtk output
ASCII
DATASET POLYDATA
POINTS 482 float
-21.9844 -28.2776 -19.0993 -14.8467 -28.2776 -20.9606 -7.70898 -28.2776 -21.0148 
-0.571257 -28.2776 -19.7812 -29.1222 -21.1399 -18.5552 -21.9844 -21.1399 -21.1122 
-14.8467 -21.1399 -22.1018 -7.70898 -21.1399 -22.548 -0.571257 -21.1399 -21.9658 
6.56647 -21.1399 -19.9835 -29.1222 -14.0022 -20.2249 -21.9844 -14.0022 -22.0868 
-14.8467 -14.0022 -22.4541 -7.70898 -14.0022 -22.6249 -0.571257 -14.0022 -23.3148 
6.56647 -14.0022 -22.8671 13.7042 -14.0022 -19.2123 -29.1222 -6.86445 -21.1908 
-21.9844 -6.86445 -22.7849 -14.8467 -6.86445 -23.1321 -7.70898 -6.86445 -23.325 
-0.571257 -6.86445 -23.5202 6.56647 -6.86445 -23.7598 13.7042 -6.86445 -21.27 
20.8419 -6.86445 -18.4876 -29.1222 0.273275 -21.4234 -21.9844 0.273275 -22.9409 
-14.8467 0.273275 -23.6862 -7.70898 0.273275 -23.9666 -0.571257 0.273275 -23.0074 
6.56647 0.273275 -23.4078 13.7042 0.273275 -22.5189 20.8419 0.273275 -19.5336 
-29.1222 7.411 -21.3058 -21.9844 7.411 -22.9489 -14.8467 7.411 -23.7495 
-7.70898 7.411 -24.3824 -0.571257 7.411 -24.2516 6.56647 7.411 -24.6415 
13.7042 7.411 -23.8752 20.8419 7.411 -20.6162 -29.1222 14.5487 -20.4258 
-21.9844 14.5487 -22.4741 -14.8467 14.5487 -23.8131 -7.70898 14.5487 -24.9001 
-0.571257 14.5487 -25.1209 6.56647 14.5487 -25.0581 13.7042 14.5487 -23.6555 
20.8419 14.5487 -20.5766 -29.1222 21.6865 -18.1375 -21.9844 21.6865 -21.0816 
-14.8467 21.6865 -22.9327 -7.70898 21.6865 -24.1257 -0.571257 21.6865 -24.2594 
6.56647 21.6865 -23.4889 13.7042 21.6865 -21.6325 20.8419 21.6865 -18.6963 
-14.8467 28.8242 -19.7137 -7.70898 28.8242 -21.2542 -0.571257 28.8242 -21.5146 
6.56647 28.8242 -20.3596 -21.9844 -30.3014 -18.0004 -21.9844 -35.4154 -12.9711 
-14.8467 -33.5689 -18.0004 -14.8467 -35.4154 -16.5846 -7.70898 -34.0527 -18.0004 
-7.70898 -35.4154 -16.9736 -0.571257 -31.392 -18.0004 -0.571257 -35.4154 -14.967 
6.56647 -35.4154 -11.9962 -24.1295 -28.2776 -18.0004 -29.1222 -22.3857 -18.0004 
-29.1222 -28.2776 -13.7508 4.20391 -28.2776 -18.0004 6.56647 -25.918 -18.0004 
6.56647 -28.2776 -16.9614 13.7042 -28.2776 -13.9961 20.8419 -28.2776 -11.244 
-29.9329 -21.1399 -18.0004 10.6363 -21.1399 -18.0004 13.7042 -17.1712 -18.0004 
13.7042 -21.1399 -16.5729 20.8419 -21.1399 -14.3672 27.9797 -21.1399 -12.6903 
-32.7331 -14.0022 -18.0004 -36.2599 -14.0022 -14.9235 17.0836 -14.0022 -18.0004 
20.8419 -8.9928 -18.0004 20.8419 -14.0022 -16.7995 27.9797 -14.0022 -15.7044 
35.1174 -14.0022 -13.3527 -34.9176 -6.86445 -18.0004 -36.2599 -6.86445 -16.8974 
23.4344 -6.86445 -18.0004 27.9797 -6.86445 -17.1386 35.1174 -6.86445 -15.3437 
42.2551 -6.86445 -11.5068 -35.8658 0.273275 -18.0004 -36.2599 0.273275 -17.7184 
27.4839 0.273275 -18.0004 27.9797 0.273275 -17.8905 35.1174 0.273275 -15.8908 
42.2551 0.273275 -11.9836 -35.3439 7.411 -18.0004 -36.2599 7.411 -17.3144 
27.7421 7.411 -18.0004 27.9797 7.411 -17.9119 35.1174 7.411 -15.271 
-33.2462 14.5487 -18.0004 -36.2599 14.5487 -15.7246 26.3599 14.5487 -18.0004 
27.9797 14.5487 -17.2412 35.1174 14.5487 -13.6832 -29.3402 21.6865 -18.0004 
-36.2599 21.6865 -11.7623 -29.1222 21.9273 -18.0004 -21.9844 27.404 -18.0004 
13.7042 28.7319 -18.0004 22.2367 21.6865 -18.0004 20.8419 22.9915 -18.0004 
27.9797 21.6865 -14.7863 -29.1222 28.8242 -12.2977 -19.5916 28.8242 -18.0004 
-21.9844 28.8242 -16.8809 -14.8467 30.9039 -18.0004 -7.70898 32.7958 -18.0004 
-0.571257 33.2305 -18.0004 13.5576 28.8242 -18.0004 6.56647 31.8319 -18.0004 
13.7042 28.8242 -17.9403 20.8419 28.8242 -13.833 -7.70898 35.9619 -13.4255 
-0.571257 35.9619 -14.2377 6.56647 35.9619 -12.7191 -21.9844 -36.6851 -10.8627 
-14.8467 -39.4932 -10.8627 -7.70898 -40.1264 -10.8627 -0.571257 -38.8682 -10.8627 
6.56647 -36.5222 -10.8627 -23.8778 -35.4154 -10.8627 -29.1222 -30.7776 -10.8627 
9.68824 -35.4154 -10.8627 13.7042 -33.3641 -10.8627 13.7042 -35.4154 -9.13305 
20.8419 -28.8803 -10.8627 20.8419 -35.4154 -5.73943 -31.4111 -28.2776 -10.8627 
21.7983 -28.2776 -10.8627 27.9797 -24.1857 -10.8627 27.9797 -28.2776 -7.63852 
-36.1586 -21.1399 -10.8627 -36.2599 -20.9131 -10.8627 -36.2599 -21.1399 -10.5556 
31.8904 -21.1399 -10.8627 35.1174 -18.4489 -10.8627 35.1174 -21.1399 -8.73881 
-39.0911 -14.0022 -10.8627 39.3347 -14.0022 -10.8627 42.2551 -8.79411 -10.8627 
42.2551 -14.0022 -7.90755 -40.5771 -6.86445 -10.8627 42.9914 -6.86445 -10.8627 
-41.3556 0.273275 -10.8627 43.5058 0.273275 -10.8627 42.2551 6.83877 -10.8627 
-41.2018 7.411 -10.8627 42.1143 7.411 -10.8627 42.2551 7.411 -10.7229 
-40.0463 14.5487 -10.8627 38.7254 14.5487 -10.8627 35.1174 19.6694 -10.8627 
42.2551 14.5487 -6.55222 -36.9463 21.6865 -10.8627 -36.2599 22.6448 -10.8627 
33.5722 21.6865 -10.8627 27.9797 26.4466 -10.8627 35.1174 21.6865 -9.05321 
-30.523 28.8242 -10.8627 -29.1222 29.8938 -10.8627 -21.9844 33.547 -10.8627 
-14.8467 35.923 -10.8627 13.7042 34.7415 -10.8627 24.8335 28.8242 -10.8627 
20.8419 31.2224 -10.8627 27.9797 28.8242 -6.68665 -21.9844 35.9619 -4.17279 
-14.6601 35.9619 -10.8627 -14.8467 35.9619 -10.7469 -7.70898 37.2906 -10.8627 
-0.571257 37.745 -10.8627 10.0397 35.9619 -10.8627 6.56647 36.995 -10.8627 
13.7042 35.9619 -5.7929 -21.9844 -37.7014 -3.72493 -14.8467 -40.7928 -3.72493 
-7.70898 -42.2217 -3.72493 -0.571257 -41.9999 -3.72493 6.56647 -41.1718 -3.72493 
13.7042 -39.4703 -3.72493 20.8419 -36.9987 -3.72493 -25.3511 -35.4154 -3.72493 
-29.1222 -32.4147 -3.72493 23.5228 -35.4154 -3.72493 27.9797 -32.0274 -3.72493 
-33.2977 -28.2776 -3.72493 -36.2599 -24.3337 -3.72493 32.3791 -28.2776 -3.72493 
35.1174 -25.8326 -3.72493 -38.326 -21.1399 -3.72493 39.4239 -21.1399 -3.72493 
42.2551 -17.6471 -3.72493 -41.1495 -14.0022 -3.72493 44.5872 -14.0022 -3.72493 
-42.5249 -6.86445 -3.72493 47.2933 -6.86445 -3.72493 -43.3644 0.273275 -3.72493 
47.8418 0.273275 -3.72493 -43.2196 7.411 -3.72493 46.6758 7.411 -3.72493 
-42.3918 14.5487 -3.72493 43.8935 14.5487 -3.72493 42.2551 17.0262 -3.72493 
-39.913 21.6865 -3.72493 -36.2599 26.9818 -3.72493 38.6153 21.6865 -3.72493 
35.1174 25.1096 -3.72493 -34.5518 28.8242 -3.72493 -29.1222 32.8929 -3.72493 
20.8419 33.7107 -3.72493 30.0235 28.8242 -3.72493 27.9797 30.0994 -3.72493 
-22.3148 35.9619 -3.72493 -21.9844 36.0978 -3.72493 -14.8467 37.9791 -3.72493 
-7.70898 38.7725 -3.72493 -0.571257 38.8306 -3.72493 6.56647 38.145 -3.72493 
14.9108 35.9619 -3.72493 13.7042 36.3999 -3.72493 -21.9844 -36.8225 3.4128 
-14.8467 -40.3341 3.4128 -7.70898 -42.0156 3.4128 -0.571257 -42.4603 3.4128 
6.56647 -42.0263 3.4128 13.7042 -40.7052 3.4128 20.8419 -38.0473 3.4128 
-24.0029 -35.4154 3.4128 -29.1222 -31.3294 3.4128 -21.9844 -35.4154 6.99379 
24.978 -35.4154 3.4128 20.8419 -35.4154 8.46865 27.9797 -33.2108 3.4128 
-32.2654 -28.2776 3.4128 -36.2599 -23.2507 3.4128 -29.1222 -28.2776 8.93641 
33.2082 -28.2776 3.4128 35.1174 -26.2418 3.4128 -37.7152 -21.1399 3.4128 
-36.2599 -21.1399 6.61592 39.4964 -21.1399 3.4128 35.1174 -21.1399 9.87593 
42.2551 -17.3328 3.4128 -40.8476 -14.0022 3.4128 44.3534 -14.0022 3.4128 
42.2551 -14.0022 7.23982 -42.2774 -6.86445 3.4128 47.0339 -6.86445 3.4128 
-43.1598 0.273275 3.4128 48.0042 0.273275 3.4128 -43.1634 7.411 3.4128 
47.2585 7.411 3.4128 -42.4509 14.5487 3.4128 44.7478 14.5487 3.4128 
42.2551 18.5992 3.4128 -40.175 21.6865 3.4128 -36.2599 27.5099 3.4128 
39.9163 21.6865 3.4128 35.1174 26.2865 3.4128 -35.1097 28.8242 3.4128 
-29.1222 33.3478 3.4128 20.8419 33.998 3.4128 31.4168 28.8242 3.4128 
27.9797 30.8394 3.4128 -23.0174 35.9619 3.4128 -21.9844 36.3693 3.4128 
-21.9844 35.9619 5.03002 -14.8467 38.2449 3.4128 -7.70898 38.6102 3.4128 
-0.571257 38.3803 3.4128 6.56647 37.6575 3.4128 6.56647 35.9619 9.97213 
14.6541 35.9619 3.4128 13.7042 36.2506 3.4128 13.7042 35.9619 4.73339 
-14.8467 -37.5946 10.5505 -7.70898 -39.9183 10.5505 -0.571257 -40.3436 10.5505 
6.56647 -39.4741 10.5505 13.7042 -37.678 10.5505 -18.9437 -35.4154 10.5505 
-21.9844 -33.4607 10.5505 -14.8467 -35.4154 13.2586 -7.70898 -35.4154 16.0363 
-0.571257 -35.4154 16.2365 6.56647 -35.4154 14.8988 18.4601 -35.4154 10.5505 
13.7042 -35.4154 13.0422 20.8419 -33.9335 10.5505 27.9797 -28.4004 10.5505 
-27.8826 -28.2776 10.5505 -29.1222 -26.9961 10.5505 -21.9844 -28.2776 15.2458 
13.7042 -28.2776 17.2064 20.8419 -28.2776 14.8462 28.1048 -28.2776 10.5505 
27.9797 -28.2776 10.6492 -33.9098 -21.1399 10.5505 -36.2599 -17.1216 10.5505 
-29.1222 -21.1399 14.8534 34.4734 -21.1399 10.5505 27.9797 -21.1399 14.9359 
35.1174 -20.3561 10.5505 -37.739 -14.0022 10.5505 -36.2599 -14.0022 12.2925 
39.6826 -14.0022 10.5505 35.1174 -14.0022 14.3022 42.2551 -9.12009 10.5505 
-39.3108 -6.86445 10.5505 -36.2599 -6.86445 14.0063 35.1174 -6.86445 16.9968 
43.2426 -6.86445 10.5505 42.2551 -6.86445 11.5962 -40.414 0.273275 10.5505 
-36.2599 0.273275 15.1651 44.8888 0.273275 10.5505 42.2551 0.273275 13.6443 
-40.5711 7.411 10.5505 -36.2599 7.411 15.5725 44.7842 7.411 10.5505 
42.2551 7.411 13.9404 -39.9738 14.5487 10.5505 -36.2599 14.5487 15.0222 
42.9126 14.5487 10.5505 42.2551 15.7461 10.5505 42.2551 14.5487 11.6121 
-37.385 21.6865 10.5505 -36.2599 23.5079 10.5505 -36.2599 21.6865 11.893 
-29.1222 21.6865 17.117 38.1349 21.6865 10.5505 35.1174 24.6909 10.5505 
35.1174 21.6865 14.6164 -31.7145 28.8242 10.5505 -29.1222 30.7833 10.5505 
-29.1222 28.8242 12.7605 -21.9844 34.2404 10.5505 -21.9844 28.8242 16.0924 
6.56647 35.8005 10.5505 13.7042 34.6382 10.5505 20.8419 32.6631 10.5505 
20.8419 28.8242 17.1374 29.2685 28.8242 10.5505 27.9797 29.5802 10.5505 
27.9797 28.8242 11.9526 -15.7408 35.9619 10.5505 -14.8467 36.1813 10.5505 
-14.8467 35.9619 10.8869 -7.70898 36.6449 10.5505 -7.70898 35.9619 11.6819 
4.75267 35.9619 10.5505 -0.571257 36.4259 10.5505 -0.571257 35.9619 11.4054 
-14.8467 -30.1529 17.6883 -7.70898 -33.0852 17.6883 -0.571257 -33.1614 17.6883 
6.56647 -30.8065 17.6883 -17.4362 -28.2776 17.6883 -21.9844 -23.7497 17.6883 
-14.8467 -28.2776 18.8059 -7.70898 -28.2776 20.1405 -0.571257 -28.2776 20.0394 
11.7852 -28.2776 17.6883 6.56647 -28.2776 18.8978 13.7042 -26.9718 17.6883 
[...]
POINT_DATA 482
SCALARS ImageScalars float
LOOKUP_TABLE default
0 0 0 0 0 0 0 0 0 
0 0 0 0 0 0 0 0 0 
0 0 0 0 0 0 0 0 0 
0 0 0 0 0 0 0 0 0 
0 0 0 0 0 0 0 0 0 
0 0 0 0 0 0 0 0 0 
0 0 0 0 0 0 0 0 0 
0 0 0 0 0 0 0 0 0 
0 0 0 0 0 0 0 0 0 
0 0 0 0 0 0 0 0 0 
0 0 0 0 0 0 0 0 0 
0 0 0 0 0 0 0 0 0 
0 0 0 0 0 0 0 0 0 
0 0 0 0 0 0 0 0 0 
0 0 0 0 0 0 0 0 0 
0 0 0 0 0 0 0 0 0 
0 0 0 0 0 0 0 0 0 
0 0 0 0 0 0 0 0 0 
0 0 0 0 0 0 0 0 0 
0 0 0 0 0 0 0 0 0 
0 0 0 0 0 0 0 0 0 
0 0 0 0 0 0 0 0 0 
0 0 0 0 0 0 0 0 0 
0 0 0 0 0 0 0 0 0 
0 0 0 0 0 0 0 0 0 
0 0 0 0 0 0 0 0 0 
0 0 0 0 0 0 0 0 0 
0 0 0 0 0 0 0 0 0 
0 0 0 0 0 0 0 0 0 
0 0 0 0 0 0 0 0 0 
0 0 0 0 0 0 0 0 0 
0 0 0 0 0 0 0 0 0 
0 0 0 0 0 0 0 0 0 
0 0 0 0 0 0 0 0 0 
0 0 0 0 0 0 0 0 0 
0 0 0 0 0 0 0 0 0 
0 0 0 0 0 0 0 0 0 
0 0 0 0 0 0 0 0 0 
0 0 0 0 0 0 0 0 0 
0 0 0 0 0 0 0 0 0 
0 0 0 0 0 0 0 0 0 
0 0 0 0 0 0 0 0 0 
0 0 0 0 0 0 0 0 0 
0 0 0 0 0 0 0 0 0 
0 0 0 0 0 0 0 0 0 
0 0 0 0 0 0 0 0 0 
0 0 0 0 0 0 0 0 0 
0 0 0 0 0 0 0 0 0 
0 0 0 0 0 0 0 0 0 
0 0 0 0 0 0 0 0 0 
0 0 0 0 0 0 0 0 0 
0 0 0 0 0 0 0 0 0 
0 0 0 0 0 0 0 0 0 
0 0 0 0 0 
NORMALS Normals float
-0.345789 -0.388933 -0.853909 -0.126719 -0.313099 -0.941229 0.0764779 -0.3335 -0.939643 
0.252474 -0.40504 -0.878749 -0.481591 -0.298083 -0.824146 -0.22956 -0.196351 -0.953283 
-0.0977533 -0.0925504 -0.990898 0.00723617 -0.112122 -0.993668 0.155104 -0.235805 -0.959343 
0.344126 -0.362175 -0.86626 -0.392623 -0.174052 -0.90308 -0.138703 -0.115136 -0.983618 
-0.0381405 -0.0730931 -0.996596 -0.0601248 -0.0540633 -0.996726 -0.0200968 -0.106432 -0.994117 
0.24922 -0.237863 -0.938781 0.401936 -0.293244 -0.867442 -0.346064 -0.0748244 -0.935222 
-0.133304 -0.0613929 -0.989172 -0.037475 -0.0863269 -0.995562 -0.027122 -0.0939402 -0.995208 
-0.030326 0.021225 -0.999315 0.134582 -0.0319252 -0.990388 0.371912 -0.204582 -0.905443 
0.25811 -0.177174 -0.949731 -0.329142 -0.00782851 -0.944248 -0.149552 -0.011132 -0.988691 
-0.0725766 -0.0430599 -0.996433 0.0467896 -0.0735467 -0.996194 0.0400897 -0.049115 -0.997988 
0.0297132 -0.0597831 -0.997769 0.261554 -0.167826 -0.950486 0.304075 -0.141138 -0.942135 
-0.336961 0.0609586 -0.939543 -0.170044 0.0330625 -0.984882 -0.0989451 -0.00881571 -0.995054 
-0.0351522 -0.0652375 -0.99725 -0.0174902 -0.148786 -0.988715 0.0229903 -0.11473 -0.993131 
0.26787 -0.0743443 -0.960582 0.38897 -0.0677645 -0.918755 -0.386864 0.201293 -0.899898 
-0.21503 0.121759 -0.968988 -0.171095 0.0551166 -0.983712 -0.0906401 0.0166282 -0.995745 
-0.0110401 -0.000152763 -0.999939 0.0960445 0.0732097 -0.992681 0.29298 0.140487 -0.945741 
0.41048 0.115761 -0.904492 -0.465628 0.386797 -0.795976 -0.30125 0.317776 -0.899037 
-0.202235 0.24677 -0.947737 -0.0890901 0.225765 -0.970099 0.0410086 0.228537 -0.972671 
0.169864 0.298032 -0.939321 0.300632 0.346317 -0.888642 0.401867 0.349248 -0.84648 
-0.245004 0.557824 -0.792972 -0.107102 0.524042 -0.844931 0.05438 0.506503 -0.860522 
0.209165 0.518926 -0.828834 -0.364721 -0.479022 -0.798446 -0.457728 -0.772909 -0.439428 
-0.142543 -0.56991 -0.809249 -0.160902 -0.688876 -0.706796 0.0834235 -0.576923 -0.812527 
0.0831198 -0.656271 -0.749933 0.265987 -0.507609 -0.819503 0.253958 -0.66849 -0.699018 
0.290228 -0.655374 -0.697318 -0.417337 -0.432002 -0.799503 -0.503699 -0.33375 -0.796805 
-0.638422 -0.57122 -0.515874 0.328501 -0.428739 -0.841588 0.359194 -0.409104 -0.838817 
0.352351 -0.438978 -0.826527 0.323103 -0.406628 -0.854551 0.326852 -0.450799 -0.830631 
-0.514114 -0.307167 -0.800834 0.356519 -0.338704 -0.870732 0.376442 -0.305152 -0.874742 
0.346793 -0.316146 -0.883055 0.232412 -0.337759 -0.912087 0.291398 -0.446943 -0.845772 
-0.55798 -0.210197 -0.802793 -0.747347 -0.255904 -0.613177 0.310715 -0.279321 -0.908535 
0.243423 -0.200539 -0.948962 0.211486 -0.263799 -0.941108 0.208047 -0.272052 -0.939524 
0.393049 -0.35777 -0.847061 -0.603312 -0.116724 -0.788917 -0.685299 -0.126909 -0.717119 
0.239834 -0.163074 -0.95702 0.212046 -0.143381 -0.966684 0.341481 -0.152566 -0.927423 
0.639185 -0.170475 -0.74992 -0.613281 -0.0169348 -0.789683 -0.636397 -0.018267 -0.771146 
0.246926 -0.0580979 -0.967291 0.243053 -0.0520825 -0.968614 0.360099 0.00309105 -0.932909 
0.641317 0.0413965 -0.766158 -0.593571 0.0940701 -0.799265 -0.647068 0.0961697 -0.756343 
0.344636 0.0370214 -0.938006 0.343145 0.0408576 -0.938393 0.426456 0.126304 -0.895646 
-0.549024 0.231621 -0.803072 -0.688506 0.252649 -0.6798 0.397969 0.158654 -0.903576 
0.40048 0.17723 -0.899003 0.519425 0.312494 -0.795327 -0.471814 0.388473 -0.791505 
-0.714281 0.470022 -0.518538 -0.467218 0.395101 -0.790951 -0.340352 0.549664 -0.762909 
0.330825 0.552787 -0.76484 0.413608 0.355959 -0.837987 0.405805 0.394612 -0.82438 
0.483192 0.432988 -0.760952 -0.503492 0.684452 -0.527278 -0.313212 0.593335 -0.74152 
-0.349107 0.623282 -0.699745 -0.248574 0.645299 -0.722357 -0.115013 0.707527 -0.697265 
0.0458293 0.708077 -0.704646 0.328666 0.554986 -0.764178 0.211234 0.640931 -0.737962 
0.33153 0.556665 -0.761716 0.443151 0.661378 -0.605142 -0.119155 0.885511 -0.449079 
0.0290408 0.876536 -0.48046 0.195249 0.88365 -0.425488 -0.464061 -0.825667 -0.320813 
-0.209994 -0.912102 -0.352097 0.0351102 -0.894323 -0.446042 0.208049 -0.815394 -0.54023 
0.270858 -0.695526 -0.665491 -0.528833 -0.785458 -0.321545 -0.671517 -0.650884 -0.354139 
0.294524 -0.646281 -0.703972 0.311584 -0.561709 -0.766419 0.305444 -0.673877 -0.672751 
0.329094 -0.467944 -0.820198 0.397363 -0.763486 -0.509109 -0.709255 -0.600923 -0.368578 
0.332915 -0.465703 -0.819932 0.336954 -0.494314 -0.801322 0.4753 -0.622348 -0.62191 
-0.813766 -0.416913 -0.40493 -0.815959 -0.412187 -0.405356 -0.819017 -0.420372 -0.390511 
0.39933 -0.491595 -0.773867 0.452622 -0.46947 -0.75811 0.543043 -0.570245 -0.61638 
-0.865678 -0.262542 -0.426231 0.554371 -0.395499 -0.732293 0.65296 -0.231874 -0.721025 
0.747193 -0.439625 -0.498429 -0.897471 -0.143198 -0.41718 0.668871 -0.173463 -0.722857 
-0.904356 -0.0403881 -0.424862 0.690369 0.0463471 -0.721972 0.675903 0.202855 -0.708524 
-0.900884 0.081082 -0.426421 0.672418 0.216112 -0.707919 0.68131 0.218287 -0.69869 
-0.852286 0.246886 -0.461146 0.642438 0.377125 -0.667121 0.599383 0.482395 -0.638776 
0.785903 0.451797 -0.422181 -0.738288 0.470046 -0.483722 -0.717274 0.499805 -0.485504 
0.58579 0.526999 -0.615729 0.5167 0.649088 -0.558307 0.630894 0.570785 -0.525526 
-0.540143 0.692296 -0.47851 -0.503752 0.722029 -0.474245 -0.350935 0.827568 -0.438151 
-0.228712 0.891836 -0.390282 0.34577 0.85379 -0.389211 0.490735 0.71367 -0.499854 
0.446258 0.764315 -0.465486 0.510186 0.791129 -0.337381 -0.329256 0.927389 -0.177595 
-0.225671 0.893321 -0.388651 -0.227846 0.893983 -0.385852 -0.117131 0.932839 -0.340721 
0.0199669 0.948359 -0.316571 0.262326 0.898051 -0.353113 0.18785 0.923699 -0.333905 
0.306762 0.936828 -0.168078 -0.495156 -0.868789 -0.00508964 -0.292701 -0.954752 -0.0526763 
-0.0815208 -0.989815 -0.116707 0.0671263 -0.973873 -0.216948 0.158293 -0.936346 -0.313369 
0.268926 -0.889989 -0.368236 0.407252 -0.827881 -0.385692 -0.574649 -0.8184 0.000374473 
-0.660673 -0.750542 -0.0140684 0.480932 -0.794785 -0.370164 0.584668 -0.730741 -0.352392 
-0.750847 -0.659392 -0.037836 -0.832201 -0.550743 -0.0642119 0.635942 -0.706991 -0.309422 
0.666495 -0.693592 -0.273341 -0.880181 -0.466933 -0.0851767 0.728829 -0.640009 -0.243302 
0.803762 -0.556806 -0.209604 -0.956932 -0.269838 -0.107092 0.860597 -0.463679 -0.210655 
-0.98299 -0.150241 -0.105635 0.954844 -0.210642 -0.209531 -0.992674 -0.0480073 -0.11088 
0.969072 0.0403209 -0.243461 -0.990266 0.0655254 -0.1228 0.92626 0.248725 -0.283156 
-0.966392 0.211204 -0.146556 0.834387 0.467776 -0.29152 0.797879 0.52872 -0.289559 
-0.87628 0.445368 -0.183797 -0.743877 0.638672 -0.196837 0.713687 0.642851 -0.278198 
0.638482 0.722216 -0.265979 -0.671908 0.712863 -0.200911 -0.494111 0.847099 -0.195648 
0.396086 0.904491 -0.158149 0.526992 0.818757 -0.227852 0.492958 0.842959 -0.215435 
-0.333848 0.928308 -0.163675 -0.326994 0.930966 -0.162412 -0.180782 0.972726 -0.145332 
-0.0598806 0.994502 -0.0859088 0.0430504 0.99824 -0.0407748 0.164258 0.985522 -0.0420177 
0.3062 0.946864 -0.098439 0.289782 0.953016 -0.0882395 -0.515508 -0.827498 0.222483 
-0.339958 -0.922938 0.180594 -0.13552 -0.980881 0.139666 -0.000772914 -0.995451 0.095275 
0.118924 -0.988522 0.0931697 0.254338 -0.961706 0.102142 0.456229 -0.880184 0.130882 
-0.552108 -0.802213 0.227226 -0.643062 -0.724889 0.246998 -0.518391 -0.779385 0.351894 
0.557471 -0.817912 0.14229 0.456981 -0.751561 0.475737 0.631011 -0.762796 0.141307 
-0.705911 -0.663464 0.248004 -0.800223 -0.553058 0.231883 -0.623268 -0.625955 0.468739 
0.707931 -0.685509 0.170031 0.724711 -0.662758 0.188536 -0.834015 -0.502462 0.227927 
-0.78463 -0.500351 0.366067 0.768601 -0.600918 0.21943 0.625195 -0.504925 0.595132 
0.816121 -0.527161 0.236743 -0.9374 -0.287099 0.197116 0.856975 -0.453311 0.245159 
0.778741 -0.440338 0.446839 -0.969414 -0.156514 0.189048 0.942556 -0.244889 0.227193 
-0.982916 -0.0601324 0.173954 0.985152 -0.0106454 0.171354 -0.986849 0.0481687 0.1543 
0.972347 0.205204 0.111506 -0.971794 0.188502 0.141713 0.891171 0.449309 0.0627377 
0.827222 0.560835 0.0341858 -0.890656 0.43216 0.14131 -0.757754 0.642198 0.115718 
0.750068 0.661031 0.020878 0.62611 0.779547 0.0171146 -0.706063 0.699396 0.110999 
-0.495151 0.862218 0.106795 0.344842 0.936367 0.0655872 0.535606 0.84419 0.0216605 
0.466443 0.884063 0.0293763 -0.328887 0.939263 0.0980678 -0.306552 0.946717 0.0987563 
-0.307794 0.936335 0.168936 -0.154486 0.981898 0.109595 -0.00868959 0.990502 0.137221 
0.0655961 0.985172 0.158536 0.144874 0.977272 0.154759 0.119064 0.930884 0.345367 
0.255332 0.960778 0.108222 0.242414 0.963406 0.114384 0.235637 0.959869 0.152075 
-0.36194 -0.801444 0.476116 -0.154983 -0.875641 0.45742 0.0252848 -0.880169 0.473986 
0.161001 -0.832729 0.529756 0.288004 -0.768762 0.571016 -0.447086 -0.749611 0.488055 
-0.512427 -0.696737 0.501972 -0.350172 -0.718826 0.600557 -0.134639 -0.654284 0.744167 
0.0632045 -0.622577 0.780002 0.172512 -0.642697 0.746445 0.391415 -0.696997 0.600825 
0.29366 -0.662324 0.689268 0.429732 -0.65315 0.623479 0.54547 -0.552192 0.630513 
-0.594293 -0.600647 0.534826 -0.607546 -0.580403 0.542236 -0.471942 -0.504373 0.723104 
0.248817 -0.382514 0.889816 0.364175 -0.474891 0.801159 0.547116 -0.550435 0.630623 
0.543928 -0.548499 0.635052 -0.689129 -0.467413 0.553739 -0.745587 -0.368124 0.555504 
-0.543073 -0.411675 0.731844 0.598441 -0.486077 0.636865 0.43877 -0.398429 0.805441 
0.604683 -0.481063 0.634773 -0.783593 -0.286755 0.551138 -0.723216 -0.279762 0.631421 
0.659161 -0.410098 0.630338 0.517672 -0.377071 0.768006 0.721352 -0.317778 0.61536 
-0.820019 -0.158323 0.550002 -0.694766 -0.148839 0.703667 0.445562 -0.255803 0.857928 
0.741636 -0.272866 0.612797 0.709819 -0.273021 0.64932 -0.843231 -0.0758025 0.53218 
-0.662455 -0.0833784 0.744447 0.821716 -0.0824879 0.563896 0.720717 -0.116442 0.68338 
-0.857098 0.0268907 0.514451 -0.663509 0.00579168 0.748146 0.864831 0.124089 0.486486 
0.768861 0.0751319 0.634987 -0.84337 0.184296 0.504739 -0.654824 0.1804 0.733936 
0.84797 0.360753 0.388335 0.833388 0.400092 0.381302 0.828193 0.350847 0.437038 
-0.759968 0.406159 0.507428 -0.723797 0.468498 0.506585 -0.709919 0.406714 0.574978 
-0.408291 0.326633 0.852414 0.7151 0.610979 0.339613 0.643598 0.692527 0.325866 
0.634861 0.562665 0.52949 -0.559552 0.660239 0.500985 -0.484184 0.722432 0.493617 
-0.470753 0.636142 0.611323 -0.303876 0.831389 0.465244 -0.294865 0.554215 0.778396 
0.116009 0.92399 0.364397 0.199132 0.919895 0.337847 0.310193 0.896335 0.316802 
0.262892 0.707752 0.655724 0.471315 0.829256 0.300326 0.440447 0.846986 0.297691 
0.44007 0.82223 0.360939 -0.163499 0.881607 0.44276 -0.144157 0.88434 0.444029 
-0.144478 0.876525 0.459162 -0.014461 0.909194 0.416122 -0.0226169 0.884666 0.465677 
0.100609 0.923797 0.369428 0.0550911 0.91976 0.388595 0.0495059 0.90492 0.422693 
-0.297949 -0.474681 0.828194 -0.111186 -0.527346 0.842344 0.0743734 -0.505233 0.859772 
0.183252 -0.422423 0.887681 -0.343969 -0.434616 0.832343 -0.394382 -0.358771 0.846018 
-0.282242 -0.411575 0.866571 -0.0736838 -0.33915 0.937842 0.0830025 -0.317707 0.944549 
0.22976 -0.366657 0.901539 0.180746 -0.331549 0.925962 0.234117 -0.360206 0.903018 
0.296254 -0.329769 0.896374 -0.411039 -0.324522 0.851899 -0.449759 -0.224411 0.864498 
-0.364216 -0.297091 0.882657 -0.202109 -0.223973 0.953409 -0.0256068 -0.166864 0.985647 
0.0758057 -0.165023 0.983372 0.119045 -0.234878 0.964707 0.174809 -0.281532 0.943494 
0.30436 -0.322554 0.896283 0.291372 -0.315583 0.903056 0.331567 -0.2935 0.896617 
-0.452202 -0.216057 0.865351 -0.445587 -0.214405 0.869185 -0.296158 -0.167537 0.940331 
-0.131568 -0.114147 0.984713 -0.0118288 -0.0913208 0.995751 0.0142555 -0.140294 0.990007 
0.0595756 -0.22712 0.972043 0.157739 -0.164081 0.973753 0.247394 -0.189301 0.950243 
0.333197 -0.292513 0.896335 0.328701 -0.290267 0.898722 -0.477922 -0.114503 0.870907 
-0.419229 -0.105188 0.901766 -0.275302 -0.070152 0.958795 -0.122538 -0.0408209 0.991624 
-0.0506845 -0.0460062 0.997654 -0.0646147 -0.136261 0.988563 0.0939066 -0.150219 0.984183 
0.214356 -0.0502697 0.975461 0.176016 -0.11158 0.978043 0.394498 -0.240561 0.886849 
0.24709 -0.197336 0.948686 0.426638 -0.217797 0.877806 -0.494531 -0.0702744 0.866314 
-0.376103 -0.0509086 0.925178 -0.227452 0.000346979 0.973789 -0.110733 0.0494435 0.99262 
-0.105259 0.00808958 0.994412 -0.0938176 -0.0540889 0.994119 0.145919 0.00267764 0.989293 
0.197591 -0.0337037 0.979705 0.0960595 -0.116409 0.988545 0.18837 -0.138764 0.972245 
0.471717 -0.154442 0.868119 0.401232 -0.157743 0.902292 -0.489709 0.0198672 0.871659 
-0.330598 0.0391293 0.94296 -0.178542 0.0528739 0.982511 -0.116441 0.0837851 0.989657 
-0.153993 0.0342846 0.987477 -0.0703088 0.0401876 0.996715 0.114959 0.0620695 0.991429 
0.0984145 -0.054303 0.993663 0.0706761 -0.066205 0.9953 0.206702 -0.0517991 0.977032 
0.54494 0.0180334 0.838281 0.422507 0.00382734 0.906352 -0.429347 0.162954 0.888317 
-0.38081 0.267066 0.885246 -0.339107 0.14907 0.928862 -0.18529 0.123591 0.974881 
-0.128655 0.101995 0.98643 -0.153166 0.0763825 0.985244 -0.0626279 0.121977 0.990555 
0.0519188 0.089673 0.994617 0.0724301 0.0346874 0.99677 0.0996051 0.0723096 0.992396 
0.243388 0.119215 0.962575 0.557581 0.245561 0.792971 0.546689 0.33123 0.769037 
0.500666 0.222339 0.8366 -0.357473 0.311884 0.880307 -0.260497 0.416404 0.871062 
-0.215505 0.279177 0.935745 -0.159301 0.217669 0.962935 -0.133006 0.235742 0.962671 
-0.053628 0.25967 0.964207 0.0251928 0.256582 0.966194 0.0765432 0.244907 0.96652 
0.252105 0.66978 0.698454 0.160168 0.307609 0.937935 0.492717 0.48218 0.724384 
0.394689 0.569919 0.720704 0.349296 0.422308 0.83645 -0.211197 0.489273 0.846173 
-0.173508 0.513748 0.840213 -0.172687 0.471238 0.864936 -0.0746245 0.585817 0.807001 
-0.0867058 0.501656 0.860711 -0.0138134 0.653445 0.756848 -0.032645 0.53874 0.841839 
0.0619559 0.672825 0.737202 0.0485522 0.568099 0.821527 0.229736 0.679577 0.696704 
0.145531 0.677255 0.721211 0.135247 0.616189 0.775899 
