# vtk DataFile Version 4.2
vtk output
ASCII
DATASET POLYDATA
POINTS 528 float
-27.6611 -32.3311 -14.6271 -19.5862 -32.3311 -17.1716 -11.5113 -32.3311 -17.7485 
-3.43641 -32.3311 -18.6696 4.63848 -32.3311 -19.5164 12.7134 -32.3311 -19.4726 
20.7883 -32.3311 -18.5463 28.8632 -32.3311 -17.119 36.9381 -32.3311 -15.3392 
-35.736 -24.2562 -15.9991 -27.6611 -24.2562 -17.2015 -19.5862 -24.2562 -18.1504 
-11.5113 -24.2562 -18.839 -3.43641 -24.2562 -19.7258 4.63848 -24.2562 -20.9238 
12.7134 -24.2562 -20.4798 20.7883 -24.2562 -19.2866 28.8632 -24.2562 -18.6053 
36.9381 -24.2562 -18.8855 45.013 -24.2562 -17.3774 -43.8109 -16.1813 -16.393 
-35.736 -16.1813 -17.4802 -27.6611 -16.1813 -17.982 -19.5862 -16.1813 -17.7284 
-11.5113 -16.1813 -17.5643 -3.43641 -16.1813 -18.4128 4.63848 -16.1813 -20.5921 
12.7134 -16.1813 -19.3833 20.7883 -16.1813 -18.0999 28.8632 -16.1813 -18.4356 
36.9381 -16.1813 -19.1332 45.013 -16.1813 -19.528 53.0878 -16.1813 -17.6441 
-51.8858 -8.10639 -15.602 -43.8109 -8.10639 -17.7897 -35.736 -8.10639 -18.4014 
-27.6611 -8.10639 -17.969 -19.5862 -8.10639 -17.1271 -11.5113 -8.10639 -17.2647 
-3.43641 -8.10639 -17.6276 4.63848 -8.10639 -20.2815 12.7134 -8.10639 -16.524 
20.7883 -8.10639 -16.5735 28.8632 -8.10639 -18.7039 36.9381 -8.10639 -20.2699 
45.013 -8.10639 -20.248 53.0878 -8.10639 -19.3588 61.1627 -8.10639 -16.5517 
-51.8858 -0.031493 -16.554 -43.8109 -0.031493 -18.5908 -35.736 -0.031493 -18.2849 
-27.6611 -0.031493 -17.4031 -19.5862 -0.031493 -16.121 -11.5113 -0.031493 -19.9439 
-3.43641 -0.031493 -18.0809 4.63848 -0.031493 -19.1322 12.7134 -0.031493 -16.2318 
20.7883 -0.031493 -17.0383 28.8632 -0.031493 -19.3522 36.9381 -0.031493 -20.4612 
45.013 -0.031493 -20.949 53.0878 -0.031493 -20.2854 61.1627 -0.031493 -18.0619 
-51.8858 8.0434 -16.1902 -43.8109 8.0434 -18.018 -35.736 8.0434 -18.1422 
-27.6611 8.0434 -17.3452 -19.5862 8.0434 -16.1433 -11.5113 8.0434 -17.9954 
-3.43641 8.0434 -19.935 4.63848 8.0434 -21.4695 12.7134 8.0434 -19.7984 
20.7883 8.0434 -18.0996 28.8632 8.0434 -19.9264 36.9381 8.0434 -21.2943 
45.013 8.0434 -21.0525 53.0878 8.0434 -20.3536 61.1627 8.0434 -18.0845 
-51.8858 16.1183 -15.5762 -43.8109 16.1183 -17.3599 -35.736 16.1183 -18.3724 
-27.6611 16.1183 -17.9695 -19.5862 16.1183 -17.7798 -11.5113 16.1183 -17.8415 
-3.43641 16.1183 -19.9993 4.63848 16.1183 -21.6109 12.7134 16.1183 -20.1666 
20.7883 16.1183 -19.5764 28.8632 16.1183 -20.2188 36.9381 16.1183 -20.8866 
45.013 16.1183 -21.5297 53.0878 16.1183 -19.071 61.1627 16.1183 -14.7324 
-43.8109 24.1932 -16.1457 -35.736 24.1932 -18.5703 -27.6611 24.1932 -18.3786 
-19.5862 24.1932 -18.0398 -11.5113 24.1932 -18.4271 -3.43641 24.1932 -19.3231 
4.63848 24.1932 -19.8971 12.7134 24.1932 -19.7677 20.7883 24.1932 -19.7161 
28.8632 24.1932 -20.0637 36.9381 24.1932 -19.4084 45.013 24.1932 -18.2189 
53.0878 24.1932 -15.4174 -35.736 32.2681 -15.5195 -27.6611 32.2681 -15.9918 
-19.5862 32.2681 -16.4242 -11.5113 32.2681 -16.8464 -3.43641 32.2681 -17.2356 
4.63848 32.2681 -17.4569 12.7134 32.2681 -17.8209 20.7883 32.2681 -17.9388 
28.8632 32.2681 -17.0304 36.9381 32.2681 -16.2827 -27.6611 -32.9097 -14.1106 
-19.5862 -35.949 -14.1106 -11.5113 -37.2598 -14.1106 -3.43641 -38.1047 -14.1106 
4.63848 -39.0211 -14.1106 12.7134 -39.3651 -14.1106 12.7134 -40.406 -7.26526 
20.7883 -38.0852 -14.1106 20.7883 -40.406 -7.525 28.8632 -35.9723 -14.1106 
36.9381 -33.821 -14.1106 -43.8109 -32.3311 -6.54062 -29.0469 -32.3311 -14.1106 
-35.736 -28.0313 -14.1106 -35.736 -32.3311 -11.0953 39.8784 -32.3311 -14.1106 
45.013 -29.3728 -14.1106 45.013 -32.3311 -10.2475 -51.8858 -24.2562 -9.48497 
-42.4296 -24.2562 -14.1106 -43.8109 -23.1189 -14.1106 -43.8109 -24.2562 -13.6694 
51.9264 -24.2562 -14.1106 53.0878 -23.1096 -14.1106 53.0878 -24.2562 -13.0505 
-59.9607 -16.1813 -8.1858 -50.339 -16.1813 -14.1106 -51.8858 -14.1458 -14.1106 
-51.8858 -16.1813 -13.5103 59.1663 -16.1813 -14.1106 61.1627 -12.9664 -14.1106 
61.1627 -16.1813 -12.1451 -55.8042 -8.10639 -14.1106 -59.9607 -8.10639 -11.4727 
64.0387 -8.10639 -14.1106 -56.5874 -0.031493 -14.1106 -59.9607 -0.031493 -11.7391 
65.9693 -0.031493 -14.1106 69.2376 -0.031493 -8.95637 -55.8275 8.0434 -14.1106 
-59.9607 8.0434 -11.1839 65.9244 8.0434 -14.1106 69.2376 8.0434 -9.22287 
-55.1487 16.1183 -14.1106 -59.9607 16.1183 -10.8619 -51.8858 21.7293 -14.1106 
61.8743 16.1183 -14.1106 61.1627 17.5193 -14.1106 -59.9607 24.1932 -6.47646 
-50.1378 24.1932 -14.1106 -51.8858 24.1932 -13.3721 -43.8109 29.2458 -14.1106 
45.013 30.4441 -14.1106 55.4842 24.1932 -14.1106 53.0878 25.983 -14.1106 
-40.1124 32.2681 -14.1106 -43.8109 32.2681 -12.0326 -35.736 34.1542 -14.1106 
-27.6611 34.3359 -14.1106 -19.5862 35.2127 -14.1106 -11.5113 35.6523 -14.1106 
-3.43641 36.6451 -14.1106 4.63848 36.8921 -14.1106 12.7134 36.9129 -14.1106 
20.7883 37.3216 -14.1106 28.8632 35.9681 -14.1106 42.1148 32.2681 -14.1106 
36.9381 34.5188 -14.1106 45.013 32.2681 -11.4787 12.7134 -40.5413 -6.03572 
20.7883 -40.7627 -6.03572 -43.8109 -32.679 -6.03572 -35.736 -36.1251 -6.03572 
-27.6611 -38.2222 -6.03572 -19.5862 -38.8978 -6.03572 -11.5113 -38.7546 -6.03572 
-3.43641 -38.8888 -6.03572 11.202 -40.406 -6.03572 4.63848 -39.7749 -6.03572 
12.7134 -40.406 -5.62949 22.8839 -40.406 -6.03572 20.7883 -40.406 -4.92213 
28.8632 -39.3881 -6.03572 36.9381 -37.8266 -6.03572 45.013 -34.9119 -6.03572 
-44.4957 -32.3311 -6.03572 -51.8858 -27.3407 -6.03572 49.2829 -32.3311 -6.03572 
53.0878 -29.6206 -6.03572 -55.4051 -24.2562 -6.03572 -59.9607 -19.1919 -6.03572 
59.0162 -24.2562 -6.03572 61.1627 -21.9973 -6.03572 -61.7772 -16.1813 -6.03572 
65.1528 -16.1813 -6.03572 -64.2728 -8.10639 -6.03572 69.008 -8.10639 -6.03572 
69.2376 -6.88875 -6.03572 -66.6193 -0.031493 -6.03572 -68.0356 -0.031493 -1.74106 
70.3632 -0.031493 -6.03572 -65.2271 8.0434 -6.03572 70.6246 8.0434 -6.03572 
69.2376 11.5178 -6.03572 -63.7089 16.1183 -6.03572 67.3256 16.1183 -6.03572 
61.1627 24.1277 -6.03572 -60.2746 24.1932 -6.03572 -59.9607 24.6052 -6.03572 
-51.8858 32.1619 -6.03572 61.0898 24.1932 -6.03572 53.0878 30.2407 -6.03572 
-51.7182 32.2681 -6.03572 -51.8858 32.2681 -4.52169 -43.8109 35.6739 -6.03572 
-35.736 38.0297 -6.03572 -27.6611 38.4655 -6.03572 -19.5862 38.369 -6.03572 
-11.5113 38.926 -6.03572 -3.43641 39.8098 -6.03572 4.63848 40.1358 -6.03572 
12.7134 40.2576 -6.03572 20.7883 40.2733 -6.03572 28.8632 39.1628 -6.03572 
36.9381 37.5479 -6.03572 49.5902 32.2681 -6.03572 45.013 34.7813 -6.03572 
-43.8109 -35.3834 2.03917 -35.736 -37.7994 2.03917 -27.6611 -38.6084 2.03917 
-19.5862 -37.5018 2.03917 -11.5113 -36.006 2.03917 -3.43641 -35.831 2.03917 
4.63848 -36.9104 2.03917 12.7134 -37.6457 2.03917 20.7883 -38.0088 2.03917 
28.8632 -37.6141 2.03917 36.9381 -36.2441 2.03917 45.013 -33.8427 2.03917 
-50.1065 -32.3311 2.03917 -51.8858 -31.2851 2.03917 36.9381 -32.3311 9.36526 
47.5308 -32.3311 2.03917 45.013 -32.3311 4.59702 53.0878 -28.6067 2.03917 
-59.8695 -24.2562 2.03917 -59.9607 -24.1382 2.03917 57.7743 -24.2562 2.03917 
53.0878 -24.2562 7.79436 61.1627 -20.1855 2.03917 -64.7871 -16.1813 2.03917 
63.8467 -16.1813 2.03917 61.1627 -16.1813 6.11338 -67.4409 -8.10639 2.03917 
-68.0356 -4.83167 2.03917 67.7622 -8.10639 2.03917 69.2376 -0.0330639 2.03917 
-68.9596 -0.031493 2.03917 -68.0356 6.99919 2.03917 -68.0356 -0.031493 7.53354 
69.2379 -0.031493 2.03917 69.2376 -0.031493 2.03966 -67.906 8.0434 2.03917 
69.6344 8.0434 2.03917 69.2376 9.07576 2.03917 69.2376 8.0434 2.82235 
-66.0202 16.1183 2.03917 66.3426 16.1183 2.03917 61.1627 22.7167 2.03917 
61.1627 16.1183 9.80552 -61.5882 24.1932 2.03917 -59.9607 26.0939 2.03917 
-59.9607 24.1932 7.34441 59.5512 24.1932 2.03917 53.0878 28.8458 2.03917 
53.0878 24.1932 9.27526 -52.3745 32.2681 2.03917 -51.8858 32.6488 2.03917 
-51.8858 32.2681 2.93428 -43.8109 35.1817 2.03917 -43.8109 32.2681 10.0437 
-35.736 37.5752 2.03917 -27.6611 36.5822 2.03917 -19.5862 35.8662 2.03917 
-19.5862 32.2681 10.0713 -11.5113 35.9966 2.03917 -11.5113 32.2681 9.09107 
-3.43641 36.5662 2.03917 -3.43641 32.2681 8.94859 4.63848 36.915 2.03917 
4.63848 32.2681 8.94149 12.7134 37.0691 2.03917 12.7134 32.2681 8.87314 
20.7883 37.0023 2.03917 20.7883 32.2681 8.55832 28.8632 36.7319 2.03917 
28.8632 32.2681 7.88939 36.9381 35.2073 2.03917 36.9381 32.2681 6.54252 
45.619 32.2681 2.03917 45.013 32.5484 2.03917 45.013 32.2681 2.52009 
-43.8109 -34.353 10.1141 -35.736 -37.0516 10.1141 -27.6611 -36.4493 10.1141 
-19.5862 -34.673 10.1141 -11.5113 -32.8631 10.1141 -3.43641 -32.7978 10.1141 
4.63848 -33.975 10.1141 12.7134 -33.5334 10.1141 20.7883 -33.2317 10.1141 
28.8632 -33.136 10.1141 -48.1001 -32.3311 10.1141 -51.8858 -30.1912 10.1141 
-43.8109 -32.3311 13.8916 -35.736 -32.3311 16.019 -27.6611 -32.3311 15.8511 
-19.5862 -32.3311 13.7759 -11.5113 -32.3311 10.9427 -3.43641 -32.3311 10.918 
4.63848 -32.3311 12.6162 12.7134 -32.3311 11.6869 20.7883 -32.3311 11.1499 
33.9037 -32.3311 10.1141 28.8632 -32.3311 10.9307 36.9381 -31.7779 10.1141 
45.013 -27.9855 10.1141 -58.6004 -24.2562 10.1141 -59.9607 -22.3622 10.1141 
-51.8858 -24.2562 17.5382 12.7134 -24.2562 17.6526 20.7883 -24.2562 17.3031 
28.8632 -24.2562 16.7147 36.9381 -24.2562 15.761 50.1846 -24.2562 10.1141 
45.013 -24.2562 13.306 53.0878 -21.4897 10.1141 -63.5162 -16.1813 10.1141 
-59.9607 -16.1813 15.295 45.013 -16.1813 16.7656 57.3312 -16.1813 10.1141 
53.0878 -16.1813 13.1847 61.1627 -10.1245 10.1141 -66.1528 -8.10639 10.1141 
53.0878 -8.10639 16.3144 62.3125 -8.10639 10.1141 61.1627 -8.10639 11.0841 
-67.5716 -0.031493 10.1141 53.0878 -0.031493 17.1944 64.1441 -0.031493 10.1141 
61.1627 -0.031493 12.8862 -66.3642 8.0434 10.1141 53.0878 8.0434 17.3053 
64.5955 8.0434 10.1141 61.1627 15.587 10.1141 61.1627 8.0434 13.1696 
-63.7795 16.1183 10.1141 -59.9607 22.619 10.1141 -59.9607 16.1183 14.8216 
12.7134 16.1183 18.1031 20.7883 16.1183 18.0251 45.013 16.1183 17.5268 
60.8062 16.1183 10.1141 53.0878 23.3218 10.1141 53.0878 16.1183 15.2918 
-58.6266 24.1932 10.1141 -51.8858 29.1279 10.1141 -51.8858 24.1932 15.6775 
[...]
POINT_DATA 528
SCALARS ImageScalars float
LOOKUP_TABLE default
0 0 0 0 0 0 0 0 0 
0 0 0 0 0 0 0 0 0 
0 0 0 0 0 0 0 0 0 
0 0 0 0 0 0 0 0 0 
0 0 0 0 0 0 0 0 0 
0 0 0 0 0 0 0 0 0 
0 0 0 0 0 0 0 0 0 
0 0 0 0 0 0 0 0 0 
0 0 0 0 0 0 0 0 0 
0 0 0 0 0 0 0 0 0 
0 0 0 0 0 0 0 0 0 
0 0 0 0 0 0 0 0 0 
0 0 0 0 0 0 0 0 0 
0 0 0 0 0 0 0 0 0 
0 0 0 0 0 0 0 0 0 
0 0 0 0 0 0 0 0 0 
0 0 0 0 0 0 0 0 0 
0 0 0 0 0 0 0 0 0 
0 0 0 0 0 0 0 0 0 
0 0 0 0 0 0 0 0 0 
0 0 0 0 0 0 0 0 0 
0 0 0 0 0 0 0 0 0 
0 0 0 0 0 0 0 0 0 
0 0 0 0 0 0 0 0 0 
0 0 0 0 0 0 0 0 0 
0 0 0 0 0 0 0 0 0 
0 0 0 0 0 0 0 0 0 
0 0 0 0 0 0 0 0 0 
0 0 0 0 0 0 0 0 0 
0 0 0 0 0 0 0 0 0 
0 0 0 0 0 0 0 0 0 
0 0 0 0 0 0 0 0 0 
0 0 0 0 0 0 0 0 0 
0 0 0 0 0 0 0 0 0 
0 0 0 0 0 0 0 0 0 
0 0 0 0 0 0 0 0 0 
0 0 0 0 0 0 0 0 0 
0 0 0 0 0 0 0 0 0 
0 0 0 0 0 0 0 0 0 
0 0 0 0 0 0 0 0 0 
0 0 0 0 0 0 0 0 0 
0 0 0 0 0 0 0 0 0 
0 0 0 0 0 0 0 0 0 
0 0 0 0 0 0 0 0 0 
0 0 0 0 0 0 0 0 0 
0 0 0 0 0 0 0 0 0 
0 0 0 0 0 0 0 0 0 
0 0 0 0 0 0 0 0 0 
0 0 0 0 0 0 0 0 0 
0 0 0 0 0 0 0 0 0 
0 0 0 0 0 0 0 0 0 
0 0 0 0 0 0 0 0 0 
0 0 0 0 0 0 0 0 0 
0 0 0 0 0 0 0 0 0 
0 0 0 0 0 0 0 0 0 
0 0 0 0 0 0 0 0 0 
0 0 0 0 0 0 0 0 0 
0 0 0 0 0 0 0 0 0 
0 0 0 0 0 0 
NORMALS Normals float
0.317836 0.542679 0.777483 0.181865 0.450376 0.87412 0.0993079 0.40774 0.907681 
0.120477 0.402445 0.907482 0.053471 0.408671 0.911114 -0.0571536 0.371051 0.926852 
-0.144374 0.374986 0.915719 -0.202904 0.445078 0.872202 -0.269413 0.573492 0.773643 
0.208608 0.319526 0.92433 0.126777 0.174598 0.976444 0.0982031 0.0288869 0.994747 
0.095179 -0.0121638 0.995386 0.129441 -0.0139679 0.991489 0.0450362 0.0640017 0.996933 
-0.102713 2.67202e-05 0.994711 -0.114619 -0.0287382 0.992994 -0.0275307 0.0634617 0.997604 
-0.0841043 0.225153 0.970687 -0.259613 0.360919 0.895733 0.212734 0.234812 0.948477 
0.0935031 0.138221 0.985978 0.0145698 0.0454506 0.99886 -0.0261673 -0.0637748 0.997621 
0.0400036 -0.096401 0.994538 0.185347 -0.128473 0.974239 0.0639471 -0.0392379 0.997182 
-0.154115 -0.213087 0.964802 -0.0496939 -0.170515 0.984101 0.0615764 0.00612355 0.998084 
0.0658162 0.0841343 0.994278 -0.100462 0.201907 0.974239 -0.329054 0.290476 0.898525 
0.317424 0.17071 0.932792 0.178953 0.131589 0.975018 0.00919642 0.0488902 0.998762 
-0.0783652 -0.0344563 0.996329 -0.0443717 -0.0963645 0.994357 0.033354 0.0792274 0.996298 
0.179904 -0.0279205 0.983288 -0.0175631 -0.0763935 0.996923 -0.249286 -0.190588 0.949491 
0.132802 -0.0595786 0.98935 0.223917 0.055522 0.973025 0.0941696 0.0807616 0.992275 
-0.0530627 0.0830859 0.995129 -0.185434 0.166004 0.968533 -0.519136 0.276116 0.808862 
0.347246 0.0342219 0.93715 0.124438 0.0135638 0.992135 -0.071931 -0.0163048 0.997276 
-0.129319 -0.0390024 0.990836 0.0570004 -0.0661112 0.996183 0.195446 0.0841879 0.977094 
-0.0195901 0.174593 0.984446 -0.076058 0.0707072 0.994593 -0.110263 0.215968 0.970155 
0.178112 0.0899009 0.979895 0.208742 0.0753695 0.975062 0.101409 0.0611113 0.992966 
-0.00926752 0.0495233 0.99873 -0.147627 0.0601179 0.987214 -0.481184 0.072894 0.873584 
0.349646 -0.0540744 0.93532 0.129434 -0.0744851 0.988787 -0.0418464 0.00572481 0.999108 
-0.120111 0.0349622 0.992145 0.00701644 0.0953643 0.995418 0.267877 -0.0898101 0.959258 
0.176146 0.0855378 0.980641 0.00899498 0.128724 0.99164 -0.209783 0.17683 0.961625 
0.0305431 0.163244 0.986113 0.177006 0.0530984 0.982776 0.0722779 0.0274797 0.997006 
-0.05375 0.0325731 0.998023 -0.153304 -0.0846128 0.98455 -0.472356 -0.161949 0.866402 
0.335098 -0.155454 0.92927 0.156626 -0.112219 0.981262 0.0347757 0.0265832 0.999042 
-0.0354537 0.0629689 0.997386 -0.00831213 0.118064 0.992971 0.135377 0.0314662 0.990294 
0.229884 -0.0371351 0.972509 0.00861621 -0.0966496 0.995281 -0.124969 -0.00646112 0.99214 
0.00345546 0.0889086 0.996034 0.0798165 0.00851583 0.996773 0.0775011 -0.121261 0.989591 
-0.11752 -0.14611 0.982263 -0.31966 -0.223407 0.920819 -0.619259 -0.323822 0.715302 
0.28202 -0.225537 0.932522 0.125245 -0.163633 0.978539 -0.0335836 -0.0921085 0.995182 
0.00475251 -0.080502 0.996743 0.0760707 -0.0454316 0.996067 0.0921199 -0.162884 0.982335 
0.0262185 -0.240099 0.970394 -0.0108999 -0.125456 0.992039 0.0183141 -0.096259 0.995188 
-0.0221285 -0.183743 0.982725 -0.103285 -0.25365 0.961766 -0.209914 -0.408118 0.888468 
-0.396878 -0.560254 0.727051 0.157267 -0.546934 0.822271 0.0604151 -0.554051 0.830288 
0.048047 -0.48456 0.873437 0.0545165 -0.456784 0.887905 0.035521 -0.45244 0.891087 
0.0338136 -0.468371 0.882884 0.0305501 -0.444993 0.895013 -0.0499439 -0.450478 0.891389 
-0.0999544 -0.535842 0.838381 -0.19873 -0.628643 0.751874 0.316165 0.576837 0.753192 
0.218215 0.72186 0.656734 0.120589 0.808926 0.57541 0.0952539 0.868833 0.485857 
0.0654689 0.897152 0.436843 -0.0399397 0.879052 0.475049 0.0470339 0.998255 -0.0357097 
-0.164629 0.782159 0.600936 -0.0861655 0.994841 0.0535399 -0.223081 0.704219 0.674026 
-0.286397 0.6514 0.702606 0.404021 0.784517 0.470426 0.317758 0.556918 0.76738 
0.255914 0.445509 0.857922 0.315255 0.661346 0.680614 -0.318218 0.641104 0.698372 
-0.346976 0.609503 0.712821 -0.420846 0.80276 0.422452 0.525662 0.567631 0.63362 
0.258878 0.393172 0.882269 0.263662 0.381428 0.886 0.27803 0.417173 0.865255 
-0.466351 0.518192 0.716934 -0.479115 0.505526 0.71756 -0.523656 0.566783 0.636036 
0.702419 0.374756 0.605116 0.370572 0.260138 0.89163 0.381616 0.247791 0.890488 
0.415869 0.277107 0.866178 -0.574493 0.36356 0.733337 -0.613921 0.337414 0.713619 
-0.701351 0.414115 0.580186 0.452656 0.168232 0.875672 0.645494 0.159239 0.746981 
-0.648274 0.291075 0.703574 0.487305 -0.00726024 0.873201 0.607575 -0.0172139 0.794076 
-0.706698 0.0776558 0.703241 -0.945615 0.0912627 0.312223 0.477889 -0.0420122 0.877415 
0.641532 -0.0396864 0.766069 -0.69895 -0.178255 0.6926 -0.91816 -0.189911 0.34773 
0.449496 -0.178333 0.8753 0.675934 -0.206369 0.707477 0.427804 -0.287315 0.856991 
-0.646597 -0.32384 0.690681 -0.626649 -0.367203 0.687367 0.763613 -0.49243 0.417622 
0.427518 -0.313068 0.848067 0.482449 -0.351383 0.802354 0.345146 -0.471537 0.811497 
-0.351724 -0.701635 0.619676 -0.458721 -0.596578 0.658536 -0.425846 -0.634659 0.644874 
0.268674 -0.597799 0.755282 0.376533 -0.707554 0.597988 0.167685 -0.644095 0.74634 
0.0571633 -0.671205 0.739064 0.0673785 -0.680415 0.729723 0.077201 -0.700705 0.709262 
0.0617025 -0.688749 0.72237 0.0131473 -0.699546 0.714466 0.023139 -0.722692 0.690782 
-0.051287 -0.739479 0.671223 -0.154362 -0.719524 0.677095 -0.319972 -0.738029 0.594081 
-0.250879 -0.759258 0.600489 -0.39423 -0.830577 0.393352 0.0596065 0.991713 -0.113812 
-0.0705995 0.996742 -0.0389931 0.401605 0.797601 0.450052 0.304353 0.866774 0.395059 
0.158435 0.952049 0.261726 0.0305702 0.997813 0.0586121 -0.000475734 0.995322 -0.0966096 
0.0598024 0.98818 -0.141149 0.0677734 0.990555 -0.119195 0.101613 0.985852 -0.133306 
0.0600212 0.989924 -0.128246 -0.0973646 0.994832 -0.0287929 -0.0646558 0.99386 -0.0897831 
-0.176936 0.983843 0.0273279 -0.266411 0.957618 0.10951 -0.438821 0.880846 0.177613 
0.417401 0.786344 0.455455 0.563699 0.655465 0.502602 -0.525235 0.836601 0.155647 
-0.606641 0.780273 0.152186 0.6168 0.613131 0.493586 0.723994 0.466513 0.508132 
-0.697733 0.702111 0.142158 -0.751459 0.64524 0.137748 0.770076 0.378988 0.513177 
-0.865067 0.474245 0.163553 0.815881 0.237156 0.527347 -0.939613 0.316841 0.129379 
-0.950937 0.282621 0.125873 0.846881 0.0483702 0.529578 0.966786 0.0392682 0.252551 
-0.988109 0.0930576 0.122396 0.837269 -0.130779 0.530922 -0.971611 -0.182593 0.150436 
-0.945547 -0.290644 0.146516 0.839218 -0.288545 0.460928 -0.884768 -0.43752 0.160507 
-0.664101 -0.74399 0.0738153 0.774467 -0.494226 0.394895 0.766259 -0.509454 0.391541 
0.549156 -0.796436 0.253215 -0.661962 -0.745933 0.0734236 -0.531964 -0.844764 0.0582037 
0.544258 -0.80081 0.249972 0.545421 -0.819174 0.1774 0.342246 -0.921915 0.181496 
0.168191 -0.974962 0.14547 0.0223652 -0.997154 0.0719933 0.0296812 -0.999556 -0.00247098 
0.0912872 -0.995299 -0.03235 0.075126 -0.996223 -0.0435308 0.0277075 -0.998909 -0.0375901 
0.0084973 -0.99943 -0.0326803 -0.0703508 -0.996473 -0.0457334 -0.161556 -0.986629 0.021522 
-0.257263 -0.965286 0.0451642 -0.475901 -0.878488 0.0421572 -0.418545 -0.906046 0.062456 
0.373632 0.924098 0.0802576 0.180476 0.982416 0.0478272 -0.0126154 0.995141 -0.0976496 
-0.156797 0.95693 -0.244336 -0.100275 0.934092 -0.342662 0.0525992 0.932957 -0.356124 
0.105636 0.935781 -0.336385 0.0633945 0.918589 -0.390097 -0.0041155 0.907802 -0.419379 
-0.10019 0.942963 -0.317464 -0.215495 0.920684 -0.325428 -0.388577 0.869047 -0.30621 
0.525185 0.845832 0.0935395 0.571561 0.814154 0.102329 -0.215476 0.787734 -0.5771 
-0.463721 0.834222 -0.298389 -0.394879 0.820591 -0.413161 -0.609424 0.738289 -0.289017 
0.766967 0.634098 0.0983894 0.769669 0.630931 0.0976527 -0.685484 0.666104 -0.293967 
-0.554631 0.593825 -0.582887 -0.764028 0.561542 -0.317697 0.893861 0.439401 0.089103 
-0.821483 0.473569 -0.317644 -0.72395 0.456788 -0.516953 0.970961 0.22762 0.073649 
0.9875 0.147525 0.0554902 -0.898698 0.313898 -0.306285 -0.942843 0.100005 -0.317877 
0.998887 0.0296682 0.0366698 0.989633 -0.139168 0.0354872 0.973347 0.0184701 -0.228593 
-0.942847 0.0999663 -0.317878 -0.94284 0.0999659 -0.317898 0.985809 -0.163827 0.0366334 
-0.940306 -0.158645 -0.301092 -0.933282 -0.190305 -0.304579 -0.929733 -0.161255 -0.331049 
0.930989 -0.364817 -0.0129578 -0.840114 -0.43826 -0.319587 -0.647553 -0.699766 -0.301667 
-0.62128 -0.43085 -0.654507 0.798297 -0.599509 -0.0575355 0.74169 -0.666655 -0.0739397 
0.720511 -0.620308 -0.309971 -0.598086 -0.74411 -0.297646 -0.483187 -0.826039 -0.290155 
-0.45789 -0.619076 -0.63803 0.505844 -0.848881 -0.15337 0.494776 -0.855149 -0.154651 
0.49173 -0.848927 -0.19371 0.263037 -0.945135 -0.193733 0.217582 -0.88372 -0.414363 
0.0836079 -0.965403 -0.246996 -0.0996663 -0.94795 -0.30242 -0.0353248 -0.933364 -0.357189 
-0.0805767 -0.900351 -0.427639 0.0384002 -0.909249 -0.414478 -0.030573 -0.879108 -0.475641 
0.0523636 -0.881812 -0.468685 -0.00459176 -0.831074 -0.556142 0.0277092 -0.875212 -0.482946 
-0.00282857 -0.787937 -0.615749 0.00484095 -0.873227 -0.487289 -0.0148046 -0.759455 -0.650392 
-0.0175685 -0.870759 -0.491396 -0.0377211 -0.750733 -0.659528 -0.0963538 -0.872839 -0.478401 
-0.0713807 -0.767371 -0.637218 -0.236288 -0.877789 -0.416719 -0.187605 -0.805378 -0.56229 
-0.338607 -0.867255 -0.364985 -0.328918 -0.867748 -0.372594 -0.323441 -0.863964 -0.385942 
0.342031 0.891043 -0.298425 0.122393 0.930054 -0.346438 -0.133588 0.89778 -0.419697 
-0.202925 0.875634 -0.438278 -0.106146 0.875655 -0.471128 0.064264 0.899006 -0.433195 
0.0410459 0.885818 -0.462214 -0.0409854 0.826009 -0.562165 -0.0209795 0.780682 -0.624577 
-0.0715174 0.738631 -0.670305 0.454244 0.835399 -0.309469 0.563078 0.759215 -0.326399 
0.31857 0.809195 -0.493677 0.0625106 0.709589 -0.701837 -0.0867026 0.709766 -0.699081 
-0.195844 0.764865 -0.6137 -0.104041 0.85728 -0.504229 0.0640604 0.884736 -0.461669 
0.0164602 0.826916 -0.562084 -0.0599338 0.783459 -0.618546 -0.0327007 0.752559 -0.657712 
-0.158401 0.755905 -0.63523 -0.068698 0.710827 -0.700004 -0.21178 0.7581 -0.616793 
-0.377437 0.636319 -0.672785 0.727018 0.600266 -0.333355 0.76079 0.554737 -0.336848 
0.475168 0.497186 -0.725963 -0.105849 0.354642 -0.928991 -0.0525279 0.371534 -0.926932 
-0.0865481 0.415065 -0.905666 -0.169529 0.429745 -0.886893 -0.467468 0.547648 -0.693942 
-0.368612 0.514873 -0.773971 -0.513089 0.483196 -0.709409 0.844188 0.415252 -0.338987 
0.674208 0.395948 -0.623433 -0.272265 0.27014 -0.923524 -0.573437 0.399326 -0.715338 
-0.478715 0.375254 -0.793736 -0.622107 0.329489 -0.710225 0.908816 0.213505 -0.358426 
-0.398633 0.213796 -0.891842 -0.646511 0.290789 -0.705312 -0.60845 0.292565 -0.737695 
0.934973 0.0129039 -0.354484 -0.369508 0.0501789 -0.927872 -0.713465 0.0964865 -0.694016 
-0.603307 0.101041 -0.791082 0.903181 -0.194516 -0.382658 -0.370596 -0.0886265 -0.924556 
-0.718402 -0.15664 -0.677763 -0.61767 -0.410438 -0.670839 -0.583501 -0.148443 -0.798431 
0.803406 -0.405377 -0.436128 0.691992 -0.572654 -0.439562 0.64997 -0.396546 -0.648298 
-0.181207 -0.181829 -0.96649 0.0367499 -0.195186 -0.980077 -0.158303 -0.339742 -0.927101 
-0.608995 -0.427289 -0.668244 -0.45055 -0.58111 -0.677728 -0.398715 -0.389392 -0.830301 
0.648044 -0.617052 -0.446415 0.449423 -0.7446 -0.493549 0.421886 -0.593563 -0.685343 
0.217085 -0.88261 -0.416982 -0.0807687 -0.900045 -0.428247 -0.0407971 -0.872172 -0.487495 
-0.0174517 -0.81844 -0.574327 -0.0151941 -0.765315 -0.643477 -0.130016 -0.564464 -0.815154 
-0.0228101 -0.720848 -0.692717 -0.0829822 -0.451745 -0.888279 -0.0401513 -0.698108 -0.714866 
-0.0317689 -0.462861 -0.885861 -0.0559704 -0.700325 -0.711626 -0.0414396 -0.51849 -0.854079 
-0.136619 -0.702847 -0.698099 -0.0811753 -0.556085 -0.827152 -0.418677 -0.610608 -0.672211 
-0.242303 -0.730003 -0.63905 -0.234101 -0.616913 -0.751409 0.213305 -0.882561 -0.41903 
0.0519921 -0.84895 -0.52591 0.0459274 -0.82494 -0.563351 -0.0804692 -0.89977 -0.42888 
-0.0712117 -0.882503 -0.464883 -0.0536908 -0.863764 -0.501027 0.235643 0.53709 -0.809943 
0.0353935 0.564774 -0.824486 -0.0833932 0.523143 -0.848155 -0.144517 0.47661 -0.867155 
-0.0310191 0.435371 -0.899717 0.0414446 0.484211 -0.873969 -0.0737804 0.451633 -0.889148 
0.416464 0.465972 -0.780659 0.448482 0.450032 -0.772227 0.194879 0.375349 -0.906165 
0.0294032 0.358078 -0.933229 -0.0956787 0.329475 -0.939304 -0.128661 0.379455 -0.916221 
-0.0284772 0.414126 -0.909774 0.0394003 0.414448 -0.90922 -0.0977187 0.35653 -0.92916 
-0.0833286 0.37214 -0.924428 -0.112246 0.290508 -0.950266 -0.0420491 0.221574 -0.974237 
-0.0591685 0.243532 -0.968086 -0.126692 0.222943 -0.966564 0.495751 0.332488 -0.802299 
0.598398 0.222774 -0.769605 0.378296 0.271157 -0.88508 0.13568 0.257648 -0.956665 
-0.00702011 0.189476 -0.98186 -0.0877138 0.188101 -0.978225 -0.0906282 0.202893 -0.974998 
-0.0251732 0.338771 -0.940532 0.00473274 0.244157 -0.969724 -0.11004 0.173973 -0.978583 
-0.128897 0.157367 -0.979092 -0.0361427 0.0958224 -0.994742 -0.0428748 0.161465 -0.985947 
-0.126924 0.222812 -0.966563 -0.12665 0.222731 -0.966618 -0.211134 0.193753 -0.958062 
0.609935 0.197725 -0.767388 0.59328 0.196545 -0.780634 0.330097 0.117543 -0.9366 
0.160608 0.106366 -0.98127 -0.0447597 0.116572 -0.992173 -0.0800394 0.0928421 -0.992459 
0.036607 0.153597 -0.987455 0.00325704 0.332165 -0.943216 -0.150299 0.147567 -0.977565 
-0.158872 0.122207 -0.979707 -0.200571 0.0478874 -0.978508 -0.0378342 -0.0282893 -0.998884 
0.0453483 0.0692352 -0.996569 -0.0523794 0.139108 -0.988891 -0.240052 0.178933 -0.954127 
-0.19462 0.168817 -0.966242 0.651806 -0.00253751 -0.758381 0.540677 -0.00410942 -0.84122 
0.271988 -0.00307189 -0.962296 0.134916 0.00133129 -0.990856 -0.0179505 0.0246102 -0.999536 
-0.0581841 0.0372895 -0.997609 0.129456 0.0352869 -0.990957 -0.00556779 0.00121659 -0.999984 
-0.204361 0.0767505 -0.975882 -0.173922 0.127617 -0.976455 -0.327565 -0.0748231 -0.941861 
0.0140105 -0.0192093 -0.999717 0.125426 0.0116101 -0.992035 -0.0324775 0.0420692 -0.998587 
-0.293402 0.0550777 -0.954401 -0.191895 0.0601992 -0.979567 0.591111 -0.227411 -0.773868 
0.581975 -0.241258 -0.776595 0.578164 -0.226305 -0.783908 0.338204 -0.140818 -0.930478 
0.186777 -0.112291 -0.975964 -0.0101551 -0.105315 -0.994387 -0.0692482 -0.0507323 -0.996309 
0.0153213 -0.0705592 -0.99739 0.0366033 -0.20098 -0.978911 -0.0317395 -0.0700955 -0.997035 
-0.265601 -0.0951611 -0.959375 -0.201589 -0.173973 -0.963896 -0.35974 -0.120257 -0.92527 
0.0444461 -0.152231 -0.987345 0.0572278 -0.0284674 -0.997955 0.109414 -0.0848561 -0.990368 
-0.00597634 -0.12329 -0.992353 -0.304739 -0.0926159 -0.947922 -0.159736 -0.273537 -0.948505 
-0.175996 -0.109029 -0.978334 0.467819 -0.363346 -0.805683 0.394956 -0.450882 -0.800447 
0.393542 -0.339406 -0.854358 0.169958 -0.305236 -0.936987 0.0420191 -0.259234 -0.9649 
-0.0208979 -0.219252 -0.975444 -0.0172342 -0.200843 -0.979472 -0.022164 -0.270418 -0.962488 
-0.0916964 -0.340002 -0.935943 -0.184393 -0.189177 -0.964475 -0.176911 -0.507462 -0.843318 
-0.253773 -0.405378 -0.878219 0.0339283 -0.20998 -0.977117 0.0145194 -0.292657 -0.956107 
0.0236752 -0.253981 -0.966919 -0.0905069 -0.328756 -0.940068 -0.0701635 -0.338565 -0.938323 
-0.0681026 -0.325327 -0.943146 0.275671 -0.521185 -0.807695 0.23841 -0.540447 -0.806894 
0.236214 -0.508101 -0.828273 0.0790698 -0.624289 -0.777182 0.091591 -0.507968 -0.856492 
-0.0026087 -0.645998 -0.763335 -0.0090602 -0.497427 -0.867459 -0.0567552 -0.638022 -0.767924 
-0.0481338 -0.507825 -0.860115 -0.120082 -0.644514 -0.755104 -0.113399 -0.561585 -0.819611 
-0.154118 -0.591259 -0.791619 -0.154385 -0.595911 -0.788071 -0.154945 -0.592875 -0.790248 

