# vtk DataFile Version 4.2
vtk output
ASCII
DATASET POLYDATA
POINTS 534 float
-11.8712 -32.5479 -21.8136 -38.4337 -23.6938 -22.0331 -29.5795 -23.6938 -22.721 
-20.7253 -23.6938 -22.705 -11.8712 -23.6938 -22.5284 -3.017 -23.6938 -22.1066 
-47.2879 -14.8396 -23.7356 -38.4337 -14.8396 -25.183 -29.5795 -14.8396 -24.219 
-20.7253 -14.8396 -22.6175 -11.8712 -14.8396 -22.6154 -3.017 -14.8396 -23.6341 
5.83718 -14.8396 -22.105 -56.142 -5.9854 -23.2032 -47.2879 -5.9854 -27.4115 
-38.4337 -5.9854 -27.8405 -29.5795 -5.9854 -26.5522 -20.7253 -5.9854 -24.414 
-11.8712 -5.9854 -24.0968 -3.017 -5.9854 -25.1038 5.83718 -5.9854 -23.8812 
14.6913 -5.9854 -24.5707 -56.142 2.86877 -24.9214 -47.2879 2.86877 -29.158 
-38.4337 2.86877 -30.2182 -29.5795 2.86877 -29.3348 -20.7253 2.86877 -27.3904 
-11.8712 2.86877 -25.6989 -3.017 2.86877 -23.7989 5.83718 2.86877 -23.3949 
14.6913 2.86877 -24.0575 -56.142 11.7229 -23.3034 -47.2879 11.7229 -28.7416 
-38.4337 11.7229 -30.5574 -29.5795 11.7229 -30.4374 -20.7253 11.7229 -29.1017 
-11.8712 11.7229 -27.5894 -3.017 11.7229 -26.3769 5.83718 11.7229 -22.8482 
23.5455 11.7229 -21.8064 32.3997 11.7229 -22.3271 -47.2879 20.5771 -25.8805 
-38.4337 20.5771 -29.1733 -29.5795 20.5771 -30.0581 -20.7253 20.5771 -29.2908 
-11.8712 20.5771 -28.3806 -3.017 20.5771 -25.3079 -38.4337 29.4313 -23.8362 
-29.5795 29.4313 -26.2967 -20.7253 29.4313 -26.1495 -11.8712 29.4313 -24.2582 
-29.5795 -41.4021 -14.4112 -20.7253 -41.4021 -17.922 -11.8712 -32.6182 -21.7871 
-11.8712 -41.4021 -17.9728 -3.017 -41.4021 -17.5184 5.83718 -41.4021 -16.41 
14.6913 -41.4021 -14.8467 -38.4337 -24.2756 -21.7871 -38.4337 -32.5479 -17.3525 
-29.5795 -28.376 -21.7871 -29.5795 -32.5479 -20.874 -12.5276 -32.5479 -21.7871 
-20.7253 -30.2888 -21.7871 -20.7253 -32.5479 -21.4761 -11.5291 -32.5479 -21.7871 
-3.017 -26.6419 -21.7871 -3.017 -32.5479 -21.1287 5.83718 -32.5479 -20.0218 
14.6913 -32.5479 -18.9244 23.5455 -32.5479 -16.4261 32.3997 -32.5479 -13.3356 
-39.1516 -23.6938 -21.7871 -47.2879 -18.4369 -21.7871 -47.2879 -23.6938 -18.0373 
-0.364181 -23.6938 -21.7871 5.83718 -17.4617 -21.7871 5.83718 -23.6938 -21.0763 
14.6913 -23.6938 -19.9957 23.5455 -23.6938 -18.0235 32.3997 -23.6938 -15.5832 
-50.8486 -14.8396 -21.7871 -56.142 -8.91095 -21.7871 -56.142 -14.8396 -17.1941 
8.47585 -14.8396 -21.7871 14.6913 -12.9535 -21.7871 14.6913 -14.8396 -21.0366 
23.5455 -14.8396 -18.696 32.3997 -14.8396 -16.8258 41.2539 -14.8396 -14.83 
-57.7293 -5.9854 -21.7871 21.1528 -5.9854 -21.7871 23.5455 -5.9854 -20.7031 
32.3997 -5.9854 -18.7638 41.2539 -5.9854 -17.8146 50.1081 -5.9854 -15.3095 
-59.2116 2.86877 -21.7871 23.422 2.86877 -21.7871 14.6913 8.60092 -21.7871 
23.5455 8.22398 -21.7871 23.5455 2.86877 -21.7574 32.3997 8.37689 -21.7871 
32.3997 2.86877 -20.8738 41.2539 2.86877 -19.7962 50.1081 2.86877 -17.692 
58.9622 2.86877 -13.5647 -57.5791 11.7229 -21.7871 -56.142 14.3974 -21.7871 
9.75044 11.7229 -21.7871 5.83718 13.9562 -21.7871 23.3977 11.7229 -21.7871 
14.6913 11.7229 -20.6192 23.5455 11.92 -21.7871 37.6418 11.7229 -21.7871 
32.3997 18.3684 -21.7871 41.2539 11.7229 -21.4072 50.1081 11.7229 -19.454 
58.9622 11.7229 -15.6319 -52.1322 20.5771 -21.7871 -56.142 20.5771 -16.2572 
-47.2879 25.5835 -21.7871 1.57246 20.5771 -21.7871 -3.017 25.9601 -21.7871 
5.83718 20.5771 -17.5412 14.6913 20.5771 -18.0533 23.5455 20.5771 -20.8408 
32.3997 20.5771 -21.6131 41.2539 20.5771 -21.223 50.1081 20.5771 -19.4814 
58.9622 20.5771 -15.8852 -42.0097 29.4313 -21.7871 -47.2879 29.4313 -16.9943 
-38.4337 31.5246 -21.7871 -29.5795 34.2027 -21.7871 -20.7253 34.2068 -21.7871 
-7.28878 29.4313 -21.7871 -11.8712 32.0679 -21.7871 -3.017 29.4313 -17.0058 
23.5455 29.4313 -15.5378 32.3997 29.4313 -18.3502 41.2539 29.4313 -18.6455 
50.1081 29.4313 -16.9997 -29.5795 38.2855 -14.2385 -20.7253 38.2855 -13.4592 
-29.5795 -42.5753 -12.933 -20.7253 -45.6502 -12.933 -11.8712 -46.5452 -12.933 
-3.017 -46.4834 -12.933 5.83718 -45.3653 -12.933 14.6913 -43.4996 -12.933 
-31.6928 -41.4021 -12.933 -38.4337 -36.8513 -12.933 19.7151 -41.4021 -12.933 
23.5455 -39.039 -12.933 23.5455 -41.4021 -10.9725 32.3997 -33.3096 -12.933 
32.3997 -41.4021 -6.00703 -43.3649 -32.5479 -12.933 -47.2879 -28.8101 -12.933 
33.395 -32.5479 -12.933 41.2539 -32.5479 -8.23048 -52.316 -23.6938 -12.933 
-56.142 -19.061 -12.933 40.9763 -23.6938 -12.933 41.2539 -23.3105 -12.933 
41.2539 -23.6938 -12.8428 50.1081 -23.6938 -7.30109 -58.8231 -14.8396 -12.933 
46.7563 -14.8396 -12.933 50.1081 -11.9075 -12.933 50.1081 -14.8396 -11.6869 
58.9622 -14.8396 -5.90245 -62.5618 -5.9854 -12.933 55.3762 -5.9854 -12.933 
58.9622 0.488304 -12.933 58.9622 -5.9854 -11.0434 -63.4777 2.86877 -12.933 
-64.9962 2.86877 -4.51141 59.823 2.86877 -12.933 67.8164 2.86877 -4.68501 
-62.3823 11.7229 -12.933 62.497 11.7229 -12.933 67.8164 11.7229 -7.02786 
-57.8431 20.5771 -12.933 -56.142 23.0315 -12.933 5.83718 25.1737 -12.933 
14.6913 28.8309 -12.933 62.0549 20.5771 -12.933 58.9622 26.9901 -12.933 
67.8164 20.5771 -5.25972 -50.2469 29.4313 -12.933 -47.2879 32.0637 -12.933 
-38.4337 37.0699 -12.933 -11.8712 36.4039 -12.933 0.261502 29.4313 -12.933 
-3.017 31.6029 -12.933 5.83718 29.4313 -7.73999 16.0642 29.4313 -12.933 
14.6913 29.4313 -11.9681 23.5455 31.641 -12.933 32.3997 34.9398 -12.933 
41.2539 35.7902 -12.933 56.8951 29.4313 -12.933 50.1081 33.3641 -12.933 
58.9622 29.4313 -11.0984 -32.6898 38.2855 -12.933 -38.4337 38.2855 -9.51976 
-29.5795 38.8699 -12.933 -19.7378 38.2855 -12.933 -20.7253 38.5005 -12.933 
32.3997 38.2855 -4.93803 41.2539 38.2855 -4.91896 -29.5795 -44.2104 -4.07878 
-20.7253 -47.4719 -4.07878 -11.8712 -49.261 -4.07878 -3.017 -50.1795 -4.07878 
5.83718 -49.9545 -4.07878 14.6913 -48.4429 -4.07878 23.5455 -45.9947 -4.07878 
32.3997 -42.5964 -4.07878 -34.5222 -41.4021 -4.07878 -38.4337 -38.6816 -4.07878 
34.5788 -41.4021 -4.07878 41.2539 -36.3978 -4.07878 -45.0103 -32.5479 -4.07878 
-47.2879 -30.202 -4.07878 45.8863 -32.5479 -4.07878 50.1081 -27.9132 -4.07878 
-53.4071 -23.6938 -4.07878 -56.142 -20.147 -4.07878 53.5048 -23.6938 -4.07878 
58.9622 -17.2788 -4.07878 -59.7017 -14.8396 -4.07878 60.536 -14.8396 -4.07878 
-63.6504 -5.9854 -4.07878 -64.9962 2.3826 -4.07878 65.7602 -5.9854 -4.07878 
67.8164 1.24172 -4.07878 67.8164 -5.9854 4.25049 -65.0719 2.86877 -4.07878 
-64.9962 3.96539 -4.07878 68.204 2.86877 -4.07878 -64.4135 11.7229 -4.07878 
69.501 11.7229 -4.07878 -60.3437 20.5771 -4.07878 -56.142 27.0043 -4.07878 
68.4785 20.5771 -4.07878 67.8164 21.8435 -4.07878 -54.1398 29.4313 -4.07878 
-47.2879 35.4354 -4.07878 -11.8712 38.0816 -4.07878 -3.017 34.8934 -4.07878 
5.83718 31.4645 -4.07878 14.6913 32.1665 -4.07878 23.5455 35.5054 -4.07878 
50.1081 37.5783 -4.07878 63.0248 29.4313 -4.07878 58.9622 33.3447 -4.07878 
-42.0581 38.2855 -4.07878 -38.4337 39.8986 -4.07878 -29.5795 40.9683 -4.07878 
-12.7342 38.2855 -4.07878 -20.7253 40.1142 -4.07878 -11.8712 38.2855 -2.04468 
31.5649 38.2855 -4.07878 32.3997 38.5679 -4.07878 43.3021 38.2855 -4.07878 
41.2539 38.4817 -4.07878 -29.5795 -42.3625 4.7754 -20.7253 -45.2349 4.7754 
-11.8712 -47.311 4.7754 -3.017 -48.9998 4.7754 5.83718 -49.6078 4.7754 
14.6913 -48.6679 4.7754 23.5455 -46.4211 4.7754 32.3997 -43.3119 4.7754 
-31.3958 -41.4021 4.7754 -38.4337 -36.8355 4.7754 -29.5795 -41.4021 6.58847 
-20.7253 -41.4021 11.334 -11.8712 -41.4021 13.4882 36.5523 -41.4021 4.7754 
32.3997 -41.4021 9.76849 41.2539 -39.1644 4.7754 -42.8718 -32.5479 4.7754 
-47.2879 -27.9569 4.7754 -38.4337 -32.5479 11.5184 49.9629 -32.5479 4.7754 
50.1081 -32.407 4.7754 -51.2687 -23.6938 4.7754 -56.142 -17.5517 4.7754 
-47.2879 -23.6938 11.1591 57.7695 -23.6938 4.7754 58.9622 -21.9892 4.7754 
-58.2919 -14.8396 4.7754 -56.142 -14.8396 8.6354 63.4315 -14.8396 4.7754 
67.8164 -6.20983 4.7754 -62.7767 -5.9854 4.7754 -64.9962 2.60456 4.7754 
67.9204 -5.9854 4.7754 67.8164 -5.9854 5.12126 -65.0608 2.86877 4.7754 
-64.9962 3.93241 4.7754 -64.9962 2.86877 5.02293 69.8002 2.86877 4.7754 
67.8164 2.86877 10.621 -64.5168 11.7229 4.7754 70.4213 11.7229 4.7754 
67.8164 11.7229 10.7169 -61.1694 20.5771 4.7754 -56.142 28.4851 4.7754 
68.7672 20.5771 4.7754 67.8164 22.2697 4.7754 67.8164 20.5771 6.91985 
-55.3911 29.4313 4.7754 -47.2879 36.377 4.7754 -3.017 36.628 4.7754 
5.83718 34.007 4.7754 14.6913 33.838 4.7754 23.5455 36.1497 4.7754 
50.1081 37.1072 4.7754 62.8189 29.4313 4.7754 58.9622 33.0271 4.7754 
58.9622 29.4313 10.7193 -43.6114 38.2855 4.7754 -38.4337 40.5004 4.7754 
-29.5795 41.3674 4.7754 -20.7253 40.7229 4.7754 -9.29533 38.2855 4.7754 
-11.8712 38.9535 4.7754 31.3243 38.2855 4.7754 32.3997 38.5735 4.7754 
32.3997 38.2855 5.70554 41.7473 38.2855 4.7754 41.2539 38.345 4.7754 
41.2539 38.2855 4.97015 -3.017 -43.0889 13.6296 5.83718 -44.2829 13.6296 
14.6913 -43.8061 13.6296 23.5455 -42.1397 13.6296 -29.5795 -36.9538 13.6296 
-20.7253 -39.7301 13.6296 -11.3297 -41.4021 13.6296 -11.8712 -41.2729 13.6296 
-3.017 -41.4021 15.3244 5.83718 -41.4021 16.5606 14.6913 -41.4021 16.1016 
26.1894 -41.4021 13.6296 23.5455 -41.4021 14.4189 32.3997 -39.251 13.6296 
41.2539 -35.4632 13.6296 -36.4107 -32.5479 13.6296 -38.4337 -30.8032 13.6296 
-29.5795 -32.5479 17.7297 -20.7253 -32.5479 20.0517 -11.8712 -32.5479 20.6461 
-3.017 -32.5479 21.5247 5.83718 -32.5479 22.3222 14.6913 -32.5479 21.6826 
23.5455 -32.5479 20.7015 32.3997 -32.5479 18.6599 45.1316 -32.5479 13.6296 
41.2539 -32.5479 16.2559 50.1081 -28.2286 13.6296 -45.3495 -23.6938 13.6296 
-47.2879 -21.7012 13.6296 -38.4337 -23.6938 18.4161 -29.5795 -23.6938 21.9578 
32.3997 -23.6938 22.3758 41.2539 -23.6938 20.9858 54.7988 -23.6938 13.6296 
50.1081 -23.6938 17.202 58.9622 -17.1474 13.6296 -53.0947 -14.8396 13.6296 
-56.142 -10.6424 13.6296 -47.2879 -14.8396 18.5126 -38.4337 -14.8396 22.1872 
50.1081 -14.8396 21.1546 60.1281 -14.8396 13.6296 58.9622 -14.8396 14.8497 
-58.8971 -5.9854 13.6296 -56.142 -5.9854 16.643 -47.2879 -5.9854 22.0027 
50.1081 -5.9854 22.4765 64.5263 -5.9854 13.6296 58.9622 -5.9854 18.6269 
[...]
POINT_DATA 534
SCALARS ImageScalars float
LOOKUP_TABLE default
0 0 0 0 0 0 0 0 0 
0 0 0 0 0 0 0 0 0 
0 0 0 0 0 0 0 0 0 
0 0 0 0 0 0 0 0 0 
0 0 0 0 0 0 0 0 0 
0 0 0 0 0 0 0 0 0 
0 0 0 0 0 0 0 0 0 
0 0 0 0 0 0 0 0 0 
0 0 0 0 0 0 0 0 0 
0 0 0 0 0 0 0 0 0 
0 0 0 0 0 0 0 0 0 
0 0 0 0 0 0 0 0 0 
0 0 0 0 0 0 0 0 0 
0 0 0 0 0 0 0 0 0 
0 0 0 0 0 0 0 0 0 
0 0 0 0 0 0 0 0 0 
0 0 0 0 0 0 0 0 0 
0 0 0 0 0 0 0 0 0 
0 0 0 0 0 0 0 0 0 
0 0 0 0 0 0 0 0 0 
0 0 0 0 0 0 0 0 0 
0 0 0 0 0 0 0 0 0 
0 0 0 0 0 0 0 0 0 
0 0 0 0 0 0 0 0 0 
0 0 0 0 0 0 0 0 0 
0 0 0 0 0 0 0 0 0 
0 0 0 0 0 0 0 0 0 
0 0 0 0 0 0 0 0 0 
0 0 0 0 0 0 0 0 0 
0 0 0 0 0 0 0 0 0 
0 0 0 0 0 0 0 0 0 
0 0 0 0 0 0 0 0 0 
0 0 0 0 0 0 0 0 0 
0 0 0 0 0 0 0 0 0 
0 0 0 0 0 0 0 0 0 
0 0 0 0 0 0 0 0 0 
0 0 0 0 0 0 0 0 0 
0 0 0 0 0 0 0 0 0 
0 0 0 0 0 0 0 0 0 
0 0 0 0 0 0 0 0 0 
0 0 0 0 0 0 0 0 0 
0 0 0 0 0 0 0 0 0 
0 0 0 0 0 0 0 0 0 
0 0 0 0 0 0 0 0 0 
0 0 0 0 0 0 0 0 0 
0 0 0 0 0 0 0 0 0 
0 0 0 0 0 0 0 0 0 
0 0 0 0 0 0 0 0 0 
0 0 0 0 0 0 0 0 0 
0 0 0 0 0 0 0 0 0 
0 0 0 0 0 0 0 0 0 
0 0 0 0 0 0 0 0 0 
0 0 0 0 0 0 0 0 0 
0 0 0 0 0 0 0 0 0 
0 0 0 0 0 0 0 0 0 
0 0 0 0 0 0 0 0 0 
0 0 0 0 0 0 0 0 0 
0 0 0 0 0 0 0 0 0 
0 0 0 0 0 0 0 0 0 
0 0 0 
NORMALS Normals float
-0.0179755 0.224062 0.974409 0.188569 0.361524 0.913095 0.0323091 0.173669 0.984274 
-0.0108513 0.0628307 0.997965 -0.0324526 0.042117 0.998586 -0.0831716 0.13508 0.987338 
0.295829 0.446055 0.844702 0.0165311 0.29782 0.954479 -0.143014 0.202603 0.968762 
-0.0843974 0.0860777 0.992707 0.0554114 0.0834401 0.994971 -0.0283145 0.168669 0.985266 
-0.139543 0.155976 0.977854 0.619649 0.274654 0.735255 0.214341 0.254943 0.942901 
-0.0400638 0.27171 0.961545 -0.181449 0.2812 0.942339 -0.130831 0.267807 0.954548 
0.0406178 0.179834 0.982858 -0.0142823 0.00981192 0.99985 -0.0293174 0.0713873 0.997018 
-0.167519 0.163164 0.972273 0.644061 0.0170902 0.764783 0.256577 0.0821991 0.963022 
0.00669164 0.149426 0.98875 -0.148847 0.201015 0.968214 -0.204882 0.247923 0.946867 
-0.186719 0.185344 0.964771 -0.132412 0.0721601 0.988565 0.0132891 -0.0542668 0.998438 
-0.0904827 -0.221945 0.970852 0.69297 -0.286614 0.661547 0.332491 -0.14621 0.931704 
0.0885973 -0.0495473 0.994834 -0.0787339 0.0412139 0.996043 -0.159815 0.100201 0.982048 
-0.148158 0.146868 0.977997 -0.2391 0.0893747 0.966873 -0.339198 -0.240165 0.909541 
0.0934729 -0.0456424 0.994575 -0.0214416 0.0392316 0.999 0.473331 -0.4531 0.755419 
0.184486 -0.310314 0.932561 0.000574958 -0.203181 0.979141 -0.0887307 -0.14382 0.985618 
-0.196639 -0.146586 0.969456 -0.504089 -0.339317 0.794203 0.327562 -0.635096 0.69954 
0.102596 -0.550804 0.828305 -0.0984075 -0.543505 0.833617 -0.311665 -0.606117 0.73177 
0.391907 0.766244 0.509195 0.146422 0.643155 0.751607 -0.018252 0.226422 0.973858 
-0.0213228 0.592381 0.805376 -0.0781103 0.553649 0.829079 -0.13237 0.555058 0.821212 
-0.239821 0.590924 0.770256 0.202854 0.371216 0.906118 0.467153 0.596952 0.65224 
0.10138 0.26419 0.959128 0.178156 0.365265 0.913697 -0.013082 0.222985 0.974734 
0.0323904 0.171437 0.984663 0.0478624 0.213063 0.975866 -0.0211132 0.22441 0.974266 
-0.088399 0.165794 0.98219 -0.0982816 0.232687 0.967573 -0.117102 0.236753 0.964487 
-0.193483 0.252475 0.948062 -0.287354 0.314203 0.904823 -0.355469 0.361308 0.862031 
0.208819 0.376162 0.902716 0.351533 0.486954 0.799563 0.512027 0.595055 0.619466 
-0.0939168 0.127503 0.987382 -0.133913 0.14179 0.980797 -0.116912 0.111153 0.986903 
-0.171165 0.109748 0.979111 -0.236368 0.120905 0.964112 -0.283656 0.182799 0.941341 
0.42212 0.473283 0.773187 0.628324 0.344112 0.697708 0.718619 0.496594 0.486807 
-0.156388 0.186419 0.969944 -0.19153 0.242493 0.951059 -0.192858 0.250812 0.94863 
-0.226874 0.140659 0.963713 -0.205656 0.173557 0.963111 -0.256911 0.25986 0.930844 
0.686154 0.26422 0.677776 -0.295314 0.174913 0.939252 -0.321 0.175848 0.930611 
-0.146118 0.2164 0.965309 -0.1835 0.265675 0.946438 -0.329477 0.301616 0.894691 
0.77178 -0.00752863 0.635845 -0.169323 0.0538277 0.984089 -0.0651333 -0.274681 0.959327 
-0.00920944 -0.00550841 0.999942 -0.170149 0.0577802 0.983723 -0.0544559 0.102137 0.993279 
-0.109539 0.204494 0.97272 -0.173877 0.197022 0.964857 -0.312797 0.21407 0.925382 
-0.529362 0.20982 0.822041 0.741545 -0.294765 0.602682 0.717348 -0.350132 0.602345 
-0.207777 -0.281981 0.936651 -0.357617 -0.332 0.872861 0.09123 -0.0498807 0.99458 
-0.0362913 -0.303311 0.9522 0.0953945 -0.0499689 0.994185 -0.0998211 0.0622459 0.993056 
0.00703966 -0.12779 0.991776 -0.154932 0.0777015 0.984865 -0.286733 0.0952597 0.953263 
-0.51992 0.112502 0.846774 0.63218 -0.489795 0.600374 0.757504 -0.495137 0.425472 
0.516488 -0.590249 0.62036 -0.490986 -0.483652 0.724578 -0.560052 -0.567085 0.603951 
-0.25628 -0.608811 0.750779 0.169644 -0.398975 0.901132 0.187844 -0.266545 0.94534 
0.0172995 -0.183965 0.982781 -0.113698 -0.132504 0.98464 -0.262661 -0.0994583 0.959749 
-0.545035 -0.178976 0.819088 0.41015 -0.655527 0.634083 0.548997 -0.676282 0.491167 
0.331671 -0.693058 0.64005 0.119104 -0.766243 0.631416 -0.0961498 -0.769072 0.631889 
-0.447634 -0.654818 0.608964 -0.329344 -0.710419 0.621962 -0.549051 -0.677223 0.489809 
0.274665 -0.68095 0.678871 0.127612 -0.557251 0.820479 -0.0560939 -0.502271 0.862889 
-0.336821 -0.51772 0.786459 0.074343 -0.930102 0.359699 -0.12116 -0.946408 0.299387 
0.397966 0.814192 0.422747 0.20204 0.864166 0.460865 0.0438006 0.835723 0.547401 
-0.0532769 0.784337 0.618042 -0.135933 0.727911 0.672062 -0.239442 0.680324 0.692695 
0.440581 0.791033 0.424446 0.559739 0.721539 0.407522 -0.290231 0.615943 0.73238 
-0.314275 0.541398 0.77982 -0.328469 0.675801 0.65985 -0.360566 0.388036 0.848186 
-0.436267 0.796975 0.417734 0.626918 0.684045 0.372903 0.654656 0.67163 0.346899 
-0.369265 0.374431 0.850556 -0.52153 0.557758 0.645688 0.699255 0.641725 0.315011 
0.779583 0.558823 0.282784 -0.342932 0.25797 0.903244 -0.341283 0.259983 0.903291 
-0.346295 0.262027 0.900789 -0.593943 0.466849 0.655198 0.833888 0.479274 0.273728 
-0.34327 0.306497 0.887821 -0.372369 0.3291 0.867775 -0.40674 0.351103 0.843379 
-0.662041 0.486838 0.569816 0.936821 0.227645 0.265603 -0.448186 0.313758 0.83707 
-0.53207 0.236068 0.813126 -0.556313 0.326022 0.764346 0.95919 -0.00329939 0.282745 
0.994601 0.0412771 0.0952079 -0.551569 0.210624 0.807099 -0.883994 0.193997 0.425347 
0.90336 -0.291207 0.314864 -0.628147 0.0788191 0.774092 -0.884162 0.026907 0.466404 
0.797486 -0.497934 0.340701 0.759707 -0.551154 0.345072 -0.11304 -0.738739 0.664445 
0.280383 -0.730514 0.622683 -0.666289 -0.20223 0.717748 -0.590098 -0.427096 0.685108 
-0.897588 -0.297869 0.324976 0.6197 -0.685487 0.382203 0.560013 -0.733695 0.384806 
0.310363 -0.866556 0.390841 -0.321911 -0.902289 0.28679 -0.404392 -0.762558 0.504947 
-0.53798 -0.740524 0.402743 -0.127099 -0.866923 0.481965 0.280453 -0.745629 0.604469 
0.276994 -0.774694 0.56844 0.281288 -0.783088 0.554663 0.191401 -0.801484 0.566559 
-0.0643609 -0.840663 0.53772 -0.53115 -0.534836 0.657138 -0.328703 -0.71631 0.615511 
-0.600932 -0.564127 0.566252 0.149375 -0.924478 0.350754 0.292977 -0.905005 0.308431 
0.0670738 -0.942582 0.327169 -0.142066 -0.94835 0.283638 -0.122465 -0.950954 0.284058 
0.165583 -0.967041 0.193424 -0.0524549 -0.988791 0.139789 0.426497 0.904381 -0.0139734 
0.273522 0.961545 -0.0248549 0.147621 0.988685 0.0266447 0.0387557 0.994203 0.10029 
-0.0927595 0.980197 0.174956 -0.214834 0.950035 0.226452 -0.313512 0.910377 0.270043 
-0.433351 0.843079 0.318472 0.529515 0.848267 -0.00750616 0.617623 0.786467 -0.00326076 
-0.468952 0.8166 0.336525 -0.558067 0.70014 0.445382 0.706084 0.707606 -0.0271797 
0.7221 0.690946 -0.0341312 -0.607767 0.629489 0.48411 -0.646764 0.561697 0.515939 
0.765289 0.642057 -0.045778 0.806784 0.588736 -0.049892 -0.664638 0.53023 0.526415 
-0.702395 0.512854 0.493582 0.862481 0.505856 -0.0153755 -0.723073 0.499492 0.47715 
0.96377 0.266497 0.0112556 0.995102 0.0546771 0.082357 -0.821116 0.360608 0.442414 
-0.886927 0.222115 0.405001 -0.941607 0.3359 -0.0233991 0.995345 0.0429591 0.086269 
0.996072 0.00809238 0.0881726 -0.897899 0.189575 0.39729 0.963648 -0.246552 0.102932 
-0.945713 0.0137034 0.324713 0.868562 -0.466824 0.166357 0.768161 -0.612236 0.187339 
-0.914606 -0.298174 0.273108 -0.900436 -0.340233 0.271029 0.711554 -0.673513 0.200178 
0.546989 -0.815986 0.187005 -0.275233 -0.952583 0.129738 -0.365823 -0.899777 0.237856 
-0.138967 -0.90908 0.392762 0.226965 -0.943314 0.242169 0.337792 -0.919381 0.201581 
-0.260073 -0.953564 0.151912 -0.731698 -0.64906 0.20818 -0.576839 -0.796634 0.180644 
0.381044 -0.906727 0.180699 0.27252 -0.946328 0.173768 0.0124689 -0.990952 0.13364 
-0.262851 -0.956324 0.127886 -0.155406 -0.980651 0.119045 -0.263067 -0.959377 0.101937 
0.178574 -0.970271 0.163357 0.160832 -0.973856 0.160431 -0.0971903 -0.988386 0.116825 
-0.0515239 -0.992839 0.107778 0.381099 0.864332 -0.328168 0.24655 0.899421 -0.360908 
0.190987 0.907339 -0.374512 0.11676 0.937607 -0.327507 -0.0175797 0.965246 -0.260749 
-0.176152 0.961075 -0.21285 -0.277794 0.945613 -0.169251 -0.37229 0.91894 -0.130193 
0.422944 0.846959 -0.322148 0.603397 0.741917 -0.292354 0.371365 0.845266 -0.384206 
0.200929 0.80154 -0.563171 0.142902 0.723709 -0.675148 -0.425849 0.89968 -0.0960664 
-0.336385 0.860509 -0.382582 -0.4992 0.865397 -0.0434534 0.669124 0.685353 -0.287341 
0.696749 0.658643 -0.284131 0.570398 0.638848 -0.516254 -0.691668 0.722012 -0.0171454 
-0.694577 0.719238 -0.0160983 0.719372 0.631241 -0.289894 0.762559 0.582897 -0.280598 
0.635022 0.593169 -0.494872 -0.799745 0.598045 0.0524359 -0.818486 0.573166 0.0395186 
0.791272 0.551716 -0.263626 0.732975 0.555066 -0.393255 -0.876856 0.48074 -0.00351953 
-0.940656 0.335854 -0.0486585 0.925445 0.307723 -0.221037 0.986658 0.0960156 -0.13148 
-0.941957 0.33196 -0.0501868 -0.94109 0.331222 -0.0681308 0.987482 0.090486 -0.129196 
0.990225 0.0560798 -0.127706 0.986207 0.0918819 -0.137671 -0.987239 0.140073 -0.0757483 
-0.908549 0.0997932 -0.405684 0.973438 -0.200208 -0.111064 -0.985621 -0.0596469 -0.158094 
-0.865356 -0.0978821 -0.491506 0.902319 -0.42727 -0.0571001 0.76963 -0.637582 -0.0340494 
-0.908619 -0.365688 -0.201703 -0.884041 -0.418844 -0.207466 -0.872 -0.377978 -0.311045 
0.745047 -0.666199 -0.0329403 0.524017 -0.84945 -0.0619723 -0.274675 -0.957101 0.0922542 
-0.152852 -0.974162 0.166268 0.118927 -0.988344 0.0950397 0.257853 -0.965114 -0.0454591 
-0.280919 -0.930214 -0.236192 -0.704687 -0.664348 -0.249113 -0.558752 -0.791767 -0.246782 
-0.574269 -0.614952 -0.540417 0.403642 -0.912402 -0.0677899 0.248479 -0.965925 -0.072437 
0.0145434 -0.996432 -0.083136 -0.134255 -0.989343 -0.0563545 -0.238669 -0.9705 0.0341461 
-0.223862 -0.974548 0.0118987 0.138613 -0.980285 -0.140815 0.120894 -0.980784 -0.153128 
0.113884 -0.976102 -0.185081 -0.0835897 -0.983041 -0.163227 -0.0727956 -0.984489 -0.159633 
-0.0739421 -0.983204 -0.166859 0.13207 0.72667 -0.674172 0.0310568 0.760139 -0.649018 
-0.098987 0.766373 -0.634724 -0.19445 0.760187 -0.619924 0.335465 0.707383 -0.622152 
0.175827 0.743118 -0.645647 0.141419 0.719964 -0.67945 0.141452 0.719129 -0.680327 
0.130543 0.683219 -0.71845 0.0339527 0.675306 -0.736756 -0.0938067 0.689966 -0.717737 
-0.219671 0.757865 -0.614318 -0.190083 0.734638 -0.651287 -0.277059 0.733694 -0.620428 
-0.412118 0.700755 -0.582325 0.501996 0.622733 -0.600169 0.538844 0.591676 -0.599639 
0.322371 0.572632 -0.75377 0.133819 0.520576 -0.843263 0.0713911 0.492926 -0.867137 
0.0811153 0.44331 -0.892691 0.00632582 0.388236 -0.921538 -0.0842835 0.370249 -0.925101 
-0.148104 0.404802 -0.902331 -0.216042 0.504136 -0.836166 -0.496164 0.659861 -0.564274 
-0.364149 0.597089 -0.714759 -0.578614 0.613961 -0.536896 0.586169 0.551861 -0.593174 
0.593728 0.553469 -0.584088 0.439494 0.432543 -0.787243 0.245698 0.259985 -0.933831 
-0.121692 0.295442 -0.947578 -0.249082 0.366105 -0.896619 -0.659416 0.543037 -0.519886 
-0.492704 0.488017 -0.720474 -0.728746 0.435499 -0.52846 0.632174 0.521332 -0.573209 
0.689527 0.462044 -0.557735 0.467866 0.4326 -0.770687 0.214484 0.271026 -0.938372 
-0.39492 0.247766 -0.884675 -0.736903 0.401855 -0.543587 -0.701664 0.383282 -0.600635 
0.753563 0.366455 -0.545759 0.65505 0.370491 -0.658518 0.330619 0.271696 -0.90381 
-0.272554 0.0559148 -0.960514 -0.781958 0.259527 -0.566734 -0.572319 0.178056 -0.800467 
0.853298 0.154537 -0.497998 0.569631 0.17165 -0.803777 -0.240616 -0.00365026 -0.970613 
-0.791614 0.0608995 -0.607979 -0.484614 -0.022335 -0.874443 0.888291 -0.155324 -0.43222 
0.590378 -0.116064 -0.798739 0.0113473 0.00581352 -0.999919 -0.258822 -0.109321 -0.959719 
-0.723774 -0.127024 -0.678244 -0.49091 -0.115069 -0.863578 0.808908 -0.404563 -0.42661 
0.737303 -0.536497 -0.410555 0.696021 -0.39225 -0.601411 -0.134066 -0.221751 -0.965843 
-0.250456 -0.309958 -0.917168 -0.620934 -0.355881 -0.69842 -0.540696 -0.470233 -0.697516 
-0.511757 -0.324289 -0.795576 0.643939 -0.641462 -0.416976 0.482528 -0.765895 -0.424938 
0.419206 -0.562823 -0.712388 0.201755 -0.469084 -0.859799 -0.208811 -0.951493 -0.225963 
-0.162197 -0.966099 -0.200861 -0.131839 -0.556944 -0.820019 -0.00123382 -0.964132 -0.265419 
-0.0668124 -0.637238 -0.767765 0.0805471 -0.911856 -0.40253 -0.0181674 -0.590247 -0.807018 
0.0173396 -0.852092 -0.523105 -0.0663359 -0.52455 -0.848791 -0.145137 -0.799834 -0.58241 
-0.189033 -0.52189 -0.831803 -0.455187 -0.577295 -0.67789 -0.32728 -0.678322 -0.65785 
-0.332477 -0.570381 -0.751082 0.263997 -0.855864 -0.444749 0.250954 -0.859322 -0.445633 
0.251007 -0.849992 -0.463151 0.0303401 -0.914689 -0.403018 0.0422391 -0.876816 -0.478967 
-0.0559213 -0.932517 -0.356771 -0.0453254 -0.906778 -0.419166 -0.129417 -0.957112 -0.259205 
-0.127568 -0.957013 -0.260486 -0.127108 -0.955984 -0.264458 0.118843 0.302635 -0.945668 
0.067615 0.360221 -0.930414 0.0680718 0.37937 -0.922738 0.0027524 0.374431 -0.927251 
-0.0835344 0.286439 -0.95445 -0.101528 0.250409 -0.962802 0.196225 0.240799 -0.950532 
0.191445 0.200825 -0.960738 0.111077 0.213673 -0.97057 0.0693181 0.24143 -0.967939 
0.0414439 0.225666 -0.973323 -0.053279 0.169958 -0.98401 -0.0844317 0.144237 -0.985934 
-0.116978 0.28227 -0.952176 -0.0771347 0.176585 -0.981258 -0.116828 0.286821 -0.950834 
-0.203622 0.252418 -0.945951 0.186199 0.230061 -0.955197 0.197557 0.257041 -0.945992 
0.121995 0.12462 -0.984676 0.122132 0.0447483 -0.991505 0.0769247 0.0742969 -0.994265 
0.00506125 -0.00882653 -0.999948 -0.0742936 0.059327 -0.99547 -0.0775202 0.110176 -0.990884 
0.00905848 0.0668555 -0.997722 -0.0269933 0.115234 -0.992971 -0.282156 0.198301 -0.93865 
-0.177924 0.154539 -0.971834 0.279413 0.251142 -0.926745 0.316556 0.240586 -0.917557 
0.120193 0.196668 -0.973075 0.0140649 0.117258 -0.993002 0.0614456 0.0338666 -0.997536 
0.0162512 2.85077e-05 -0.999868 0.0241763 -0.134648 -0.990599 0.0703565 0.0261175 -0.99718 
-0.0804065 0.0389274 -0.996002 -0.0710257 -0.0534121 -0.996043 -0.0237685 -0.0524034 -0.998343 
-0.271726 0.0555741 -0.960769 -0.105819 0.000262123 -0.994385 0.400615 0.147908 -0.904229 
0.285609 0.135241 -0.948756 0.0514782 0.10394 -0.99325 -0.0394507 0.0907015 -0.995096 
0.00370713 0.0571543 -0.998358 -0.0868858 -0.012208 -0.996143 0.0201741 -0.0102001 -0.999744 
0.101373 -0.0701979 -0.992369 -0.166328 -0.14056 -0.976001 0.00956703 0.00282623 -0.99995 
-0.0647927 -0.115782 -0.991159 0.0310166 -0.0485876 -0.998337 -0.22503 -0.00667645 -0.974329 
-0.0735827 -0.0404035 -0.99647 0.430646 -0.0965366 -0.897343 0.256302 -0.0794414 -0.963327 
0.0708191 -0.0638989 -0.99544 -0.0338701 0.0109926 -0.999366 -0.0408104 0.00779654 -0.999137 
-0.052178 0.000584455 -0.998638 -0.0293026 0.105074 -0.994033 -0.0499808 -0.0789019 -0.995629 
0.00923195 0.00480015 -0.999946 -0.125643 -0.065322 -0.989923 0.0118238 0.00500344 -0.999918 
0.00986911 0.003672 -0.999945 0.0498973 -0.0565875 -0.99715 -0.245878 -0.108688 -0.963188 
-0.103392 -0.166881 -0.980541 -0.0728031 -0.103407 -0.991971 0.339858 -0.275094 -0.899344 
0.323279 -0.288346 -0.901303 0.317615 -0.271627 -0.908482 0.185406 -0.387223 -0.903152 
0.145705 -0.209127 -0.966973 0.0308281 -0.154091 -0.987576 -0.011944 -0.101797 -0.994734 
0.00806955 -0.0765867 -0.99703 -0.0532834 -0.0535414 -0.997143 -0.11995 -0.447999 -0.885951 
-0.0870196 -0.140153 -0.986299 -0.076444 -0.327578 -0.941727 -0.0703384 -0.119934 -0.990287 
-0.0549644 -0.211117 -0.975914 -0.0591814 -0.0934568 -0.993863 -0.0887734 -0.182377 -0.979213 
-0.0766599 -0.19791 -0.977218 -0.0766171 -0.172275 -0.982065 0.125732 -0.422474 -0.897612 
0.0891288 -0.435274 -0.895876 0.0856556 -0.402289 -0.911497 0.0337913 -0.443205 -0.895783 
0.0408668 -0.368472 -0.92874 -0.0174836 -0.490782 -0.871107 -0.00406424 -0.392067 -0.919928 
-0.114371 -0.498779 -0.85915 -0.102047 -0.517971 -0.849289 -0.0933357 -0.452304 -0.886967 

