# vtk DataFile Version 4.2
vtk output
ASCII
DATASET POLYDATA
POINTS 530 float
-21.5261 -28.3335 -11.1668 -35.4209 -21.3861 -12.0492 -28.4735 -21.3861 -12.9509 
-21.5261 -21.3861 -13.2781 -14.5787 -21.3861 -13.096 -7.63126 -21.3861 -12.9755 
-0.683842 -21.3861 -13.6888 6.26357 -21.3861 -13.7542 13.211 -21.3861 -12.8947 
20.1584 -21.3861 -12.112 27.1058 -21.3861 -11.5463 -42.3683 -14.4387 -12.5687 
-35.4209 -14.4387 -14.5001 -28.4735 -14.4387 -14.9761 -21.5261 -14.4387 -15.0515 
-14.5787 -14.4387 -14.3015 -7.63126 -14.4387 -14.2738 -0.683842 -14.4387 -15.2094 
6.26357 -14.4387 -14.497 13.211 -14.4387 -13.6022 20.1584 -14.4387 -13.7556 
27.1058 -14.4387 -13.947 34.0532 -14.4387 -13.5292 41.0006 -14.4387 -12.6758 
-42.3683 -7.4913 -13.8754 -35.4209 -7.4913 -15.8267 -28.4735 -7.4913 -15.8618 
-21.5261 -7.4913 -15.6546 -14.5787 -7.4913 -15.0424 -7.63126 -7.4913 -15.2896 
-0.683842 -7.4913 -15.8823 6.26357 -7.4913 -15.7585 13.211 -7.4913 -14.1798 
20.1584 -7.4913 -14.7747 27.1058 -7.4913 -15.3949 34.0532 -7.4913 -15.2151 
41.0006 -7.4913 -14.1843 47.9481 -7.4913 -11.8424 -42.3683 -0.543887 -13.4898 
-35.4209 -0.543887 -15.1698 -28.4735 -0.543887 -14.6942 -21.5261 -0.543887 -14.0482 
-14.5787 -0.543887 -14.1478 -7.63126 -0.543887 -16.4078 -0.683842 -0.543887 -11.9443 
6.26357 -0.543887 -16.7259 13.211 -0.543887 -14.3014 20.1584 -0.543887 -14.8415 
27.1058 -0.543887 -15.6659 34.0532 -0.543887 -15.8382 41.0006 -0.543887 -15.0704 
47.9481 -0.543887 -13.1156 -42.3683 6.40353 -13.9248 -35.4209 6.40353 -13.6856 
-28.4735 6.40353 -13.0965 -21.5261 6.40353 -12.1778 -14.5787 6.40353 -12.3835 
-7.63126 6.40353 -17.4635 -0.683842 6.40353 -14.9635 6.26357 6.40353 -16.6213 
13.211 6.40353 -13.8447 20.1584 6.40353 -14.6527 27.1058 6.40353 -15.7006 
34.0532 6.40353 -15.9509 41.0006 6.40353 -15.2043 47.9481 6.40353 -13.3397 
-42.3683 13.3509 -11.3154 -35.4209 13.3509 -12.3293 -28.4735 13.3509 -13.3556 
-21.5261 13.3509 -12.8227 -14.5787 13.3509 -13.3564 -7.63126 13.3509 -13.8446 
-0.683842 13.3509 -13.8615 6.26357 13.3509 -15.7949 13.211 13.3509 -14.9082 
20.1584 13.3509 -15.1523 27.1058 13.3509 -15.7851 34.0532 13.3509 -16.2085 
41.0006 13.3509 -14.8906 47.9481 13.3509 -11.1547 -35.4209 20.2984 -12.6716 
-28.4735 20.2984 -13.1435 -21.5261 20.2984 -13.3849 -14.5787 20.2984 -13.748 
-7.63126 20.2984 -13.7343 -0.683842 20.2984 -13.8723 6.26357 20.2984 -15.0958 
13.211 20.2984 -15.2319 20.1584 20.2984 -15.337 27.1058 20.2984 -14.8351 
34.0532 20.2984 -14.2141 41.0006 20.2984 -12.7332 -28.4735 27.2458 -12.6781 
-21.5261 27.2458 -13.3616 -14.5787 27.2458 -13.569 -7.63126 27.2458 -13.7459 
-0.683842 27.2458 -14.4018 6.26357 27.2458 -14.9799 13.211 27.2458 -14.7827 
20.1584 27.2458 -14.2075 27.1058 27.2458 -12.9993 34.0532 27.2458 -11.7364 
-21.5261 34.1932 -11.7124 -14.5787 34.1932 -12.0404 -7.63126 34.1932 -12.8069 
-0.683842 34.1932 -13.6777 6.26357 34.1932 -13.8435 13.211 34.1932 -12.768 
20.1584 34.1932 -11.8457 -28.4735 -35.281 -5.64303 -21.5261 -28.8011 -10.9162 
-21.5261 -35.281 -6.44788 -14.5787 -35.281 -6.99931 -7.63126 -35.281 -6.42908 
-0.683842 -35.281 -5.62348 6.26357 -35.281 -4.59039 -35.4209 -23.9704 -10.9162 
-35.4209 -28.3335 -7.93729 -23.3485 -28.3335 -10.9162 -28.4735 -26.4452 -10.9162 
-28.4735 -28.3335 -10.1237 -17.4495 -28.3335 -10.9162 -14.5787 -27.7979 -10.9162 
-14.5787 -28.3335 -10.7295 -7.63126 -27.4759 -10.9162 -7.63126 -28.3335 -10.6113 
-0.683842 -27.8777 -10.9162 -0.683842 -28.3335 -10.7008 6.26357 -28.0809 -10.9162 
6.26357 -28.3335 -10.7878 13.211 -26.4157 -10.9162 13.211 -28.3335 -10.0149 
20.1584 -24.1846 -10.9162 20.1584 -28.3335 -8.61651 27.1058 -22.533 -10.9162 
27.1058 -28.3335 -7.0592 34.0532 -28.3335 -5.30226 -38.9398 -21.3861 -10.9162 
-42.3683 -18.244 -10.9162 -42.3683 -21.3861 -9.03202 32.6441 -21.3861 -10.9162 
34.0532 -20.9899 -10.9162 34.0532 -21.3861 -10.7502 41.0006 -17.4787 -10.9162 
41.0006 -21.3861 -8.58542 47.9481 -21.3861 -4.8566 -45.3961 -14.4387 -10.9162 
-49.3158 -14.4387 -7.72044 44.798 -14.4387 -10.9162 47.9481 -10.2175 -10.9162 
47.9481 -14.4387 -9.36303 -47.8294 -7.4913 -10.9162 -49.3158 -7.4913 -9.78689 
49.6251 -7.4913 -10.9162 54.8955 -7.4913 -7.23466 -56.2632 -0.543887 -4.23408 
-49.2994 -0.543887 -10.9162 -49.3158 -0.543887 -10.9092 51.8052 -0.543887 -10.9162 
54.8955 -0.543887 -8.50197 -46.8586 6.40353 -10.9162 -49.3158 6.40353 -9.45949 
51.8567 6.40353 -10.9162 54.8955 6.40353 -8.00953 -44.1193 13.3509 -10.9162 
-49.3158 13.3509 -9.29834 -42.3683 14.5537 -10.9162 48.2772 13.3509 -10.9162 
47.9481 14.1815 -10.9162 -49.3158 20.2984 -6.25824 -38.724 20.2984 -10.9162 
-42.3683 20.2984 -9.27365 -35.4209 24.8921 -10.9162 44.3835 20.2984 -10.9162 
41.0006 24.0946 -10.9162 47.9481 20.2984 -6.95209 -42.3683 27.2458 -7.39513 
-33.5319 27.2458 -10.9162 -35.4209 27.2458 -10.0966 -28.4735 31.5684 -10.9162 
27.1058 31.5358 -10.9162 36.9186 27.2458 -10.9162 34.0532 28.8085 -10.9162 
41.0006 27.2458 -7.1418 -35.4209 34.1932 -6.18967 -24.2709 34.1932 -10.9162 
-28.4735 34.1932 -9.27273 -21.5261 36.0344 -10.9162 -14.5787 36.5097 -10.9162 
-7.63126 38.5345 -10.9162 -0.683842 40.0602 -10.9162 6.26357 39.6451 -10.9162 
13.211 37.2567 -10.9162 23.2601 34.1932 -10.9162 20.1584 35.9866 -10.9162 
27.1058 34.1932 -8.92908 -21.5261 41.1406 -5.0867 -14.5787 41.1406 -7.71994 
-7.63126 41.1406 -9.37814 -0.683842 41.1406 -10.2328 6.26357 41.1406 -9.78099 
13.211 41.1406 -7.37707 -28.4735 -36.826 -3.96873 -21.5261 -37.8871 -3.96873 
-14.5787 -38.5404 -3.96873 -7.63126 -38.095 -3.96873 -0.683842 -36.9245 -3.96873 
6.26357 -35.8062 -3.96873 -31.5553 -35.281 -3.96873 -35.4209 -32.485 -3.96873 
-35.4209 -35.281 1.80711 9.96539 -35.281 -3.96873 13.211 -34.7775 -3.96873 
13.211 -35.281 -2.98943 20.1584 -33.0697 -3.96873 20.1584 -35.281 0.579398 
27.1058 -31.5956 -3.96873 34.0532 -29.2108 -3.96873 -40.8327 -28.3335 -3.96873 
-42.3683 -26.9719 -3.96873 -42.3683 -28.3335 1.94668 36.6718 -28.3335 -3.96873 
41.0006 -26.6762 -3.96873 41.0006 -28.3335 0.124232 47.9481 -22.2899 -3.96873 
-47.3022 -21.3861 -3.96873 -49.3158 -18.7921 -3.96873 48.8146 -21.3861 -3.96873 
-51.5037 -14.4387 -3.96873 54.7207 -14.4387 -3.96873 54.8955 -14.1092 -3.96873 
54.8955 -14.4387 -2.8043 -54.7365 -7.4913 -3.96873 -56.2632 -1.24549 -3.96873 
57.2105 -7.4913 -3.96873 -56.4089 -0.543887 -3.96873 -56.2632 1.82895 -3.96873 
-56.2632 -0.543887 -2.9996 57.7234 -0.543887 -3.96873 -55.9086 6.40353 -3.96873 
57.1624 6.40353 -3.96873 54.8955 11.4858 -3.96873 -54.0205 13.3509 -3.96873 
54.0098 13.3509 -3.96873 -51.1934 20.2984 -3.96873 -49.3158 22.8621 -3.96873 
49.3818 20.2984 -3.96873 47.9481 21.8618 -3.96873 47.9481 20.2984 0.211664 
-45.4752 27.2458 -3.96873 -42.3683 30.3302 -3.96873 34.0532 33.337 -3.96873 
42.4147 27.2458 -3.96873 41.0006 28.3956 -3.96873 41.0006 27.2458 -1.10833 
-37.5016 34.1932 -3.96873 -35.4209 35.6043 -3.96873 -35.4209 34.1932 1.42953 
-28.4735 38.8337 -3.96873 20.1584 40.7244 -3.96873 32.5973 34.1932 -3.96873 
27.1058 37.3028 -3.96873 -22.7625 41.1406 -3.96873 -21.5261 41.581 -3.96873 
-21.5261 41.1406 -2.17627 -14.5787 43.6258 -3.96873 -7.63126 44.9795 -3.96873 
-0.683842 45.3497 -3.96873 6.26357 44.7614 -3.96873 19.0983 41.1406 -3.96873 
13.211 43.2089 -3.96873 13.211 41.1406 2.58316 -35.4209 -35.6817 2.97868 
-28.4735 -39.5152 2.97868 -21.5261 -41.5735 2.97868 -14.5787 -42.2015 2.97868 
-7.63126 -42.1866 2.97868 -0.683842 -41.0535 2.97868 6.26357 -39.3907 2.97868 
13.211 -37.6186 2.97868 20.1584 -36.1975 2.97868 -35.9075 -35.281 2.97868 
-42.3683 -28.5181 2.97868 -35.4209 -35.281 4.12253 25.1071 -35.281 2.97868 
20.1584 -35.281 7.17426 27.1058 -34.9025 2.97868 34.0532 -32.3095 2.97868 
41.0006 -29.2607 2.97868 -42.5212 -28.3335 2.97868 -42.3683 -28.3335 3.30975 
42.5726 -28.3335 2.97868 41.0006 -28.3335 5.9924 47.9481 -24.3793 2.97868 
-48.0034 -21.3861 2.97868 -49.3158 -18.7686 2.97868 50.7705 -21.3861 2.97868 
47.9481 -21.3861 8.00543 54.8955 -15.4759 2.97868 -51.2396 -14.4387 2.97868 
-49.3158 -14.4387 5.90684 55.47 -14.4387 2.97868 54.8955 -14.4387 4.02472 
-53.5846 -7.4913 2.97868 -49.3158 -7.4913 8.41454 57.9267 -7.4913 2.97868 
54.8955 -7.4913 8.36084 -55.0509 -0.543887 2.97868 -49.3158 -0.543887 9.74118 
57.814 -0.543887 2.97868 54.8955 -0.543887 7.62077 -54.6618 6.40353 2.97868 
-49.3158 6.40353 8.64502 56.5669 6.40353 2.97868 54.8955 9.56683 2.97868 
54.8955 6.40353 5.24841 -53.4878 13.3509 2.97868 -49.3158 13.3509 7.10188 
-42.3683 13.3509 9.54698 52.6375 13.3509 2.97868 47.9481 19.0897 2.97868 
47.9481 13.3509 8.12024 -50.2231 20.2984 2.97868 -49.3158 21.489 2.97868 
-49.3158 20.2984 3.9497 -42.3683 20.2984 8.09372 -35.4209 20.2984 9.50087 
34.0532 20.2984 8.76721 46.4629 20.2984 2.97868 41.0006 24.8796 2.97868 
41.0006 20.2984 6.95806 -44.0358 27.2458 2.97868 -42.3683 28.7648 2.97868 
-42.3683 27.2458 4.41762 -35.4209 33.4536 2.97868 -35.4209 27.2458 7.381 
-28.4735 27.2458 8.73601 20.1584 27.2458 9.46881 27.1058 27.2458 7.36074 
37.3583 27.2458 2.97868 34.0532 29.2977 2.97868 34.0532 27.2458 4.75513 
-34.5248 34.1932 2.97868 -28.4735 37.076 2.97868 -28.4735 34.1932 5.79182 
-21.5261 39.3441 2.97868 -21.5261 34.1932 7.01276 -14.5787 34.1932 8.28185 
-7.63126 34.1932 8.93315 -0.683842 34.1932 9.10149 6.26357 34.1932 8.85648 
13.211 40.9602 2.97868 13.211 34.1932 7.8549 20.1584 37.6047 2.97868 
20.1584 34.1932 6.26493 28.0562 34.1932 2.97868 27.1058 34.7653 2.97868 
27.1058 34.1932 3.53891 -16.9608 41.1406 2.97868 -14.5787 41.833 2.97868 
-14.5787 41.1406 3.80732 -7.63126 42.9934 2.97868 -7.63126 41.1406 5.07937 
-0.683842 43.303 2.97868 -0.683842 41.1406 5.44021 12.6801 41.1406 2.97868 
6.26357 42.6718 2.97868 6.26357 41.1406 4.7524 -28.4735 -36.4062 9.9261 
-21.5261 -39.5224 9.9261 -14.5787 -41.008 9.9261 -7.63126 -39.988 9.9261 
-0.683842 -39.1278 9.9261 6.26357 -38.0584 9.9261 13.211 -36.1988 9.9261 
-30.5879 -35.281 9.9261 -35.4209 -31.6885 9.9261 -28.4735 -35.281 11.0658 
-21.5261 -35.281 13.1058 -14.5787 -35.281 13.4095 -7.63126 -35.281 13.6491 
[...]
POINT_DATA 530
SCALARS ImageScalars float
LOOKUP_TABLE default
0 0 0 0 0 0 0 0 0 
0 0 0 0 0 0 0 0 0 
0 0 0 0 0 0 0 0 0 
0 0 0 0 0 0 0 0 0 
0 0 0 0 0 0 0 0 0 
0 0 0 0 0 0 0 0 0 
0 0 0 0 0 0 0 0 0 
0 0 0 0 0 0 0 0 0 
0 0 0 0 0 0 0 0 0 
0 0 0 0 0 0 0 0 0 
0 0 0 0 0 0 0 0 0 
0 0 0 0 0 0 0 0 0 
0 0 0 0 0 0 0 0 0 
0 0 0 0 0 0 0 0 0 
0 0 0 0 0 0 0 0 0 
0 0 0 0 0 0 0 0 0 
0 0 0 0 0 0 0 0 0 
0 0 0 0 0 0 0 0 0 
0 0 0 0 0 0 0 0 0 
0 0 0 0 0 0 0 0 0 
0 0 0 0 0 0 0 0 0 
0 0 0 0 0 0 0 0 0 
0 0 0 0 0 0 0 0 0 
0 0 0 0 0 0 0 0 0 
0 0 0 0 0 0 0 0 0 
0 0 0 0 0 0 0 0 0 
0 0 0 0 0 0 0 0 0 
0 0 0 0 0 0 0 0 0 
0 0 0 0 0 0 0 0 0 
0 0 0 0 0 0 0 0 0 
0 0 0 0 0 0 0 0 0 
0 0 0 0 0 0 0 0 0 
0 0 0 0 0 0 0 0 0 
0 0 0 0 0 0 0 0 0 
0 0 0 0 0 0 0 0 0 
0 0 0 0 0 0 0 0 0 
0 0 0 0 0 0 0 0 0 
0 0 0 0 0 0 0 0 0 
0 0 0 0 0 0 0 0 0 
0 0 0 0 0 0 0 0 0 
0 0 0 0 0 0 0 0 0 
0 0 0 0 0 0 0 0 0 
0 0 0 0 0 0 0 0 0 
0 0 0 0 0 0 0 0 0 
0 0 0 0 0 0 0 0 0 
0 0 0 0 0 0 0 0 0 
0 0 0 0 0 0 0 0 0 
0 0 0 0 0 0 0 0 0 
0 0 0 0 0 0 0 0 0 
0 0 0 0 0 0 0 0 0 
0 0 0 0 0 0 0 0 0 
0 0 0 0 0 0 0 0 0 
0 0 0 0 0 0 0 0 0 
0 0 0 0 0 0 0 0 0 
0 0 0 0 0 0 0 0 0 
0 0 0 0 0 0 0 0 0 
0 0 0 0 0 0 0 0 0 
0 0 0 0 0 0 0 0 0 
0 0 0 0 0 0 0 0 
NORMALS Normals float
0.0356345 0.407924 0.91232 0.214181 0.381875 0.899054 0.0853375 0.313889 0.945617 
0.00906231 0.277453 0.960697 -0.021316 0.246193 0.968986 0.0403728 0.25286 0.96666 
0.0536531 0.300382 0.952309 -0.0542686 0.241578 0.968863 -0.116826 0.227173 0.966822 
-0.0893625 0.320874 0.942897 -0.0875894 0.417491 0.90445 0.379528 0.303815 0.873874 
0.143264 0.263299 0.954017 0.0375547 0.196262 0.979832 -0.0484595 0.166071 0.984922 
-0.0554804 0.136115 0.989138 0.0647134 0.162721 0.984548 0.0159838 0.150866 0.988425 
-0.118063 0.130328 0.984416 -0.0512828 0.0866456 0.994918 0.0243554 0.186124 0.982224 
-0.0136992 0.259001 0.96578 -0.0815665 0.28757 0.95428 -0.261909 0.358501 0.896036 
0.350388 0.0436535 0.935587 0.153507 0.0510007 0.986831 -0.0125859 -0.0122113 0.999846 
-0.0591204 -0.0566985 0.996639 -0.0264486 -0.00108713 0.99965 0.0590784 0.143414 0.987898 
0.0361087 -0.17404 0.984076 -0.127155 0.160776 0.978766 -0.0573561 0.0536086 0.996913 
0.0853098 0.0806447 0.993085 0.031669 0.122603 0.99195 -0.0827197 0.156501 0.984208 
-0.215006 0.151138 0.964847 -0.394507 0.2272 0.890362 0.249965 -0.00439952 0.968245 
0.0889817 -0.154732 0.983941 -0.0707679 -0.199249 0.97739 -0.0367447 -0.245662 0.968659 
0.167682 -0.165585 0.971836 -0.122031 0.145285 0.981835 0.0177301 -0.0931961 0.99549 
0.0983471 0.0578959 0.993467 -0.118645 -0.0257258 0.992603 0.0973636 -0.00848724 0.995213 
0.0713175 0.0215655 0.997221 -0.0409344 0.0525975 0.997776 -0.173957 0.0713071 0.982168 
-0.398141 0.091408 0.912759 0.267692 -0.13158 0.954478 -0.0553091 -0.188244 0.980564 
-0.102277 -0.085527 0.991072 -0.0551146 -0.0734094 0.995778 0.286822 -0.0449567 0.956928 
0.0890429 -0.194078 0.976937 -0.00138122 0.102272 0.994756 -0.0913676 -0.0668464 0.993571 
-0.128682 0.0449195 0.990668 0.136336 0.0229436 0.990397 0.091374 0.00853561 0.99578 
-0.0336854 0.0255014 0.999107 -0.162744 -0.0160274 0.986538 -0.411339 -0.11971 0.903587 
0.194316 -0.324129 0.925841 0.133873 -0.074944 0.988161 0.0351512 0.00278101 0.999378 
0.000625617 0.0811039 0.996705 0.0705426 0.076681 0.994557 0.0391756 -0.18251 0.982423 
0.144377 -0.0805456 0.986239 0.0626386 -0.109285 0.992035 -0.0430218 0.0992094 0.994136 
0.0627104 0.0479244 0.99688 0.0741259 -0.0613066 0.995363 -0.0741998 -0.106227 0.99157 
-0.289858 -0.129234 0.948304 -0.59135 -0.242545 0.769076 0.272395 -0.139732 0.951985 
0.0467872 -0.0544489 0.99742 0.0429332 0.0388976 0.99832 0.0251006 0.0152795 0.999568 
0.00828645 -0.00605902 0.999947 0.101011 0.0395087 0.9941 0.0916145 -0.0562699 0.994203 
0.0172109 -0.00825218 0.999818 -0.0285672 -0.0717419 0.997014 -0.0734427 -0.179053 0.981094 
-0.127647 -0.317166 0.93974 -0.337059 -0.397977 0.853232 0.195596 -0.214332 0.956977 
0.0731396 -0.123848 0.989602 0.0262953 -0.112108 0.993348 0.0595198 -0.0609838 0.996363 
0.0884612 -0.0105419 0.996024 0.0276349 -0.0803238 0.996386 -0.0572088 -0.157968 0.985786 
-0.114532 -0.24207 0.963475 -0.186406 -0.329411 0.925603 -0.224359 -0.430322 0.874349 
0.157346 -0.330867 0.930467 0.0744536 -0.321464 0.94399 0.108152 -0.245186 0.963425 
0.0742008 -0.242465 0.967318 -0.0572627 -0.276069 0.959431 -0.138972 -0.396455 0.907475 
-0.192619 -0.443195 0.875486 0.251857 0.712357 0.655069 0.0391025 0.422714 0.905419 
0.0800068 0.653677 0.752532 -0.00258731 0.607518 0.794301 -0.079665 0.625069 0.776494 
-0.0982411 0.683585 0.723229 -0.115255 0.773984 0.622627 0.251886 0.446872 0.858405 
0.384484 0.592716 0.707715 0.0674567 0.420637 0.904718 0.13636 0.417778 0.898258 
0.169228 0.460028 0.871629 -0.00661159 0.395764 0.918328 -0.0366855 0.375769 0.925987 
-0.0368586 0.386565 0.921525 0.00406975 0.382468 0.92396 -0.00245489 0.402965 0.915212 
0.0153817 0.466578 0.884346 0.0109262 0.479609 0.877414 -0.0392277 0.508034 0.860443 
-0.0392179 0.519461 0.853594 -0.121693 0.446587 0.886426 -0.126972 0.537495 0.833653 
-0.12005 0.414081 0.902289 -0.16933 0.583339 0.794382 -0.0950586 0.450968 0.887464 
-0.159276 0.651314 0.741904 -0.252863 0.790547 0.55776 0.328932 0.430049 0.84075 
0.41729 0.408154 0.81196 0.493314 0.514936 0.701058 -0.166532 0.412655 0.895535 
-0.180979 0.403843 0.896748 -0.186484 0.414328 0.890818 -0.282308 0.442112 0.851375 
-0.326967 0.551592 0.767358 -0.595454 0.626485 0.502942 0.4983 0.312876 0.808582 
0.756664 0.366644 0.541324 -0.38008 0.368593 0.848339 -0.430806 0.275867 0.859246 
-0.484417 0.386627 0.784767 0.547026 0.112245 0.829557 0.640763 0.152381 0.752464 
-0.471026 0.235034 0.850231 -0.7884 0.24756 0.563152 0.970784 0.076535 0.227422 
0.471017 -0.0375156 0.881326 0.471947 -0.0374022 0.880833 -0.552704 0.0755483 0.829946 
-0.768134 0.0436141 0.638802 0.443363 -0.103881 0.890302 0.560653 -0.100205 0.821965 
-0.595064 -0.157432 0.788108 -0.819347 -0.223407 0.527977 0.263555 -0.280378 0.922999 
0.525864 -0.191014 0.828843 0.22167 -0.302231 0.927102 -0.601234 -0.246964 0.759951 
-0.599066 -0.263382 0.756141 0.71798 -0.496919 0.487417 0.331793 -0.187255 0.92458 
0.412129 -0.245254 0.877497 0.323939 -0.267217 0.907556 -0.485725 -0.449207 0.749856 
-0.432121 -0.541922 0.720827 -0.737865 -0.594549 0.319479 0.582406 -0.517778 0.626665 
0.299586 -0.290425 0.908791 0.357962 -0.345641 0.867407 0.249127 -0.408333 0.87818 
-0.262336 -0.522287 0.811416 -0.342158 -0.517077 0.784576 -0.27126 -0.507643 0.817751 
-0.604327 -0.747951 0.274515 0.511755 -0.757081 0.406123 0.205393 -0.405145 0.890882 
0.316894 -0.599777 0.734742 0.17731 -0.434398 0.883097 0.0762872 -0.43323 0.898049 
0.121938 -0.465391 0.876665 0.0347235 -0.568373 0.822038 -0.116882 -0.589809 0.799039 
-0.1385 -0.546331 0.826039 -0.249324 -0.528683 0.811376 -0.224337 -0.539806 0.811346 
-0.375338 -0.73298 0.567328 0.31494 -0.932496 0.176818 0.178269 -0.820544 0.543073 
0.140788 -0.696934 0.70318 0.0258061 -0.663266 0.747939 -0.142961 -0.732842 0.665211 
-0.246791 -0.865628 0.43564 0.272909 0.774504 0.570669 0.104553 0.7494 0.65381 
0.0126216 0.738259 0.674399 -0.0911406 0.729504 0.677878 -0.127649 0.72703 0.674636 
-0.124648 0.787462 0.603627 0.385014 0.738009 0.554172 0.507794 0.684944 0.52249 
0.601323 0.79489 0.0809968 -0.137209 0.809151 0.571356 -0.152792 0.820879 0.550284 
-0.165909 0.861877 0.479211 -0.173614 0.799782 0.574637 -0.188507 0.9538 0.233946 
-0.222495 0.772529 0.594722 -0.269767 0.825147 0.496345 0.615007 0.662162 0.428144 
0.643834 0.654324 0.396659 0.763553 0.643651 -0.0519643 -0.299435 0.8134 0.498718 
-0.371493 0.761357 0.531347 -0.440238 0.87387 0.206258 -0.599603 0.650544 0.466121 
0.726841 0.606228 0.322783 0.797559 0.539855 0.269176 -0.621415 0.632966 0.461733 
0.863048 0.444415 0.240089 -0.789045 0.468074 0.397888 -0.798088 0.456537 0.39323 
-0.832068 0.469407 0.295498 0.917141 0.322421 0.2343 0.97167 0.10409 0.212185 
-0.906117 0.212589 0.36573 0.974124 0.0779289 0.212155 0.972601 0.005804 0.232407 
0.988923 0.080572 0.124659 -0.954625 -0.00319664 0.297794 0.951059 -0.138216 0.276374 
-0.938986 -0.257274 0.228289 -0.898497 -0.401728 0.176968 0.873733 -0.350739 0.337007 
-0.875439 -0.452042 0.171072 0.817296 -0.488983 0.304833 0.774714 -0.561029 0.291659 
-0.768241 -0.637654 0.0565904 -0.74583 -0.664614 0.0450131 -0.693057 -0.665467 -0.277173 
0.714109 -0.652313 0.25404 0.658389 -0.718228 0.225106 -0.533082 -0.846017 -0.00885222 
-0.643259 -0.765606 -0.00803024 -0.621142 -0.783501 -0.0175781 -0.587646 -0.773023 -0.238974 
0.563513 -0.808459 0.169846 0.521881 -0.837306 0.162968 0.532334 -0.747357 -0.397591 
0.421447 -0.89203 0.163296 -0.39677 -0.917743 0.0179156 -0.519036 -0.854664 0.0122691 
-0.466569 -0.88112 0.0770802 0.338787 -0.937712 0.0769437 0.322015 -0.943924 0.0728992 
0.330872 -0.940714 -0.0747107 0.245681 -0.956258 0.15878 0.132904 -0.982857 0.127786 
-0.0178967 -0.995351 0.0946363 -0.153286 -0.98444 0.0859156 -0.382016 -0.923608 0.0318005 
-0.296296 -0.948654 0.110749 -0.290341 -0.815264 -0.501046 0.599283 0.800536 -0.00143598 
0.38391 0.923208 0.0173296 0.179945 0.979247 0.0932502 0.0431256 0.986494 0.158021 
-0.0839413 0.990743 0.10669 -0.192396 0.973055 0.127077 -0.244609 0.960973 0.129221 
-0.224594 0.969798 0.0951259 -0.196971 0.977057 0.081008 0.61357 0.789626 -0.00479873 
0.766983 0.63048 -0.119298 0.606467 0.789853 -0.091268 -0.238275 0.968572 0.0713747 
-0.201481 0.938535 -0.280281 -0.257498 0.963816 0.0689425 -0.365548 0.929385 0.0511654 
-0.468268 0.88355 0.00803188 0.768378 0.628332 -0.12163 0.76813 0.624059 -0.143268 
-0.508371 0.86113 -0.00362823 -0.484592 0.841806 -0.237768 -0.675433 0.733557 -0.0754027 
0.838776 0.502205 -0.210345 0.858187 0.446058 -0.254063 -0.740241 0.664094 -0.104987 
-0.656677 0.531486 -0.535067 -0.87643 0.441918 -0.191255 0.875569 0.361523 -0.320439 
0.798775 0.299393 -0.521844 -0.892977 0.404174 -0.19808 -0.875877 0.408889 -0.25622 
0.878858 0.245753 -0.408919 0.654962 0.17165 -0.735908 -0.965944 0.168571 -0.196307 
-0.747735 0.137591 -0.649586 0.879762 0.0727825 -0.46981 0.542902 0.00813993 -0.839757 
-0.958472 -0.081915 -0.27317 -0.771378 -0.135265 -0.621836 0.873318 -0.107699 -0.475096 
0.555098 -0.156247 -0.816978 -0.861351 -0.348611 -0.36952 -0.823129 -0.426388 -0.375035 
-0.798294 -0.345515 -0.493302 0.902948 -0.301097 -0.306635 0.528792 -0.326109 -0.783602 
0.311367 -0.164318 -0.935975 -0.757621 -0.512171 -0.404588 -0.613093 -0.620105 -0.489477 
-0.484603 -0.51345 -0.708187 0.690109 -0.560925 -0.457288 0.672333 -0.58856 -0.44896 
0.638456 -0.537792 -0.550595 0.443705 -0.43342 -0.784394 0.188313 -0.2765 -0.942383 
-0.190656 -0.4419 -0.87657 -0.577402 -0.631269 -0.517791 -0.469343 -0.664933 -0.581018 
-0.380144 -0.553486 -0.741043 0.608424 -0.635569 -0.47526 0.561392 -0.663231 -0.494937 
0.51051 -0.586351 -0.628945 0.495332 -0.677383 -0.543874 0.348445 -0.523216 -0.777709 
0.158123 -0.352126 -0.922499 -0.209885 -0.255975 -0.943624 -0.267203 -0.425714 -0.864506 
-0.436254 -0.65886 -0.612851 -0.465026 -0.654541 -0.596093 -0.390078 -0.560631 -0.730433 
0.478464 -0.692792 -0.539547 0.343002 -0.811177 -0.473647 0.302881 -0.610123 -0.732129 
0.284114 -0.777958 -0.560411 0.170728 -0.526228 -0.833028 0.125823 -0.428824 -0.894583 
0.0585205 -0.390681 -0.918664 -0.00675118 -0.373598 -0.927566 -0.0828163 -0.381187 -0.920781 
-0.285519 -0.79326 -0.537789 -0.159009 -0.4638 -0.871554 -0.348766 -0.736067 -0.580145 
-0.283672 -0.576595 -0.766204 -0.424102 -0.694021 -0.581784 -0.395278 -0.705238 -0.588553 
-0.384527 -0.674692 -0.630024 0.25033 -0.812828 -0.52597 0.219614 -0.826605 -0.518163 
0.218108 -0.787161 -0.576895 0.106675 -0.841038 -0.530354 0.100419 -0.702744 -0.70432 
-0.0234768 -0.851817 -0.523313 -0.0203056 -0.677755 -0.735007 -0.276467 -0.797896 -0.535657 
-0.156443 -0.839069 -0.521045 -0.151252 -0.730607 -0.665835 0.38495 0.694798 -0.607511 
0.220891 0.777698 -0.588552 0.0305533 0.840255 -0.541329 -0.0986175 0.814832 -0.571247 
-0.128759 0.817618 -0.561179 -0.191419 0.819512 -0.540147 -0.236459 0.806852 -0.541366 
0.433099 0.663461 -0.610119 0.537495 0.560895 -0.62968 0.370421 0.652731 -0.660856 
0.122001 0.497138 -0.859051 0.0401071 0.418707 -0.907235 -0.00825522 0.45225 -0.891853 
-0.0812018 0.499426 -0.862543 -0.164848 0.579353 -0.798232 -0.210858 0.814546 -0.540421 
-0.224661 0.749449 -0.622779 -0.184397 0.812781 -0.552617 -0.249849 0.811751 -0.52786 
-0.370073 0.691093 -0.620835 0.599477 0.466124 -0.650658 0.625771 0.277102 -0.729126 
0.519386 0.430061 -0.738434 0.181676 0.280248 -0.942579 0.0493146 0.237085 -0.970236 
0.0072099 0.16949 -0.985506 -0.0159789 0.11692 -0.993013 -0.0539609 0.0818114 -0.995186 
-0.0513237 0.168061 -0.98444 0.00192149 0.272503 -0.962153 -0.061504 0.448925 -0.89145 
-0.228567 0.425767 -0.875488 -0.406319 0.669155 -0.622203 -0.343654 0.608483 -0.715297 
-0.431322 0.628851 -0.646922 0.625576 0.276559 -0.7295 0.625202 0.276221 -0.729948 
0.352983 0.114679 -0.928575 0.180668 0.0964961 -0.978799 0.016825 0.0934818 -0.995479 
-0.0917016 0.0377918 -0.995069 -0.0944965 -0.0304399 -0.99506 -0.0355044 -0.0529493 -0.997966 
0.0458591 -0.0416209 -0.99808 0.0772956 0.038243 -0.996274 -0.00724667 0.0424123 -0.999074 
-0.104537 0.14762 -0.983504 -0.160275 0.321853 -0.933125 -0.538745 0.450156 -0.712119 
-0.391274 0.41527 -0.821253 -0.58296 0.344408 -0.735895 0.567292 0.178681 -0.803898 
0.511579 0.137362 -0.848186 0.290132 0.0267088 -0.956614 0.142698 -0.0247518 -0.989457 
-0.0173339 -0.0730046 -0.997181 -0.109449 -0.0520461 -0.992629 -0.109119 -0.0418137 -0.993149 
-0.0631484 0.105882 -0.992371 0.0401383 -0.0396508 -0.998407 0.103007 -0.128974 -0.986284 
0.0605636 -0.0882559 -0.994255 0.036863 0.0447884 -0.998316 -0.115433 0.0654584 -0.991156 
-0.275447 0.107415 -0.955296 -0.610686 0.26613 -0.745813 -0.524817 0.236867 -0.817595 
0.535414 0.129207 -0.834648 0.393381 0.0409715 -0.918462 0.228986 -0.0693777 -0.970954 
0.0879386 -0.147202 -0.98519 -0.0142374 -0.160143 -0.986991 -0.0582979 -0.0988372 -0.993394 
0.0652019 -0.0124433 -0.997795 -0.0201074 -0.0692183 -0.997399 -0.206315 0.00966866 -0.978438 
0.022549 -0.167022 -0.985695 0.172271 -0.0904959 -0.980884 0.0530344 -0.0510149 -0.997289 
-0.0764581 -0.0501643 -0.99581 -0.171326 0.00734003 -0.985187 -0.608708 0.110863 -0.785611 
-0.410939 0.0744368 -0.908619 0.524511 0.00357359 -0.851396 0.305104 -0.0815017 -0.948825 
0.12165 -0.147662 -0.981528 0.0508957 -0.207286 -0.976956 0.0377179 -0.241179 -0.969747 
0.0388944 -0.136207 -0.989917 -0.100798 0.0258625 -0.994571 -0.0577866 -0.349996 -0.934967 
-0.034175 -0.174917 -0.98399 0.0169599 -0.116017 -0.993102 0.183238 -0.113433 -0.976502 
0.0700006 -0.11371 -0.991045 -0.0417078 -0.0796778 -0.995948 -0.191644 -0.0948636 -0.976869 
-0.578216 -0.108443 -0.808645 -0.418418 -0.0842402 -0.904339 0.395588 -0.176892 -0.901232 
0.287523 -0.160491 -0.944232 0.248088 -0.183555 -0.951189 0.102463 -0.138089 -0.985106 
0.00899708 -0.158249 -0.987358 0.0414842 -0.176239 -0.983473 0.192765 -0.208992 -0.95873 
-0.106351 -0.239123 -0.965147 -0.247617 -0.183544 -0.951313 0.0377439 -0.263902 -0.963811 
0.0950105 -0.129813 -0.986976 0.172068 -0.199056 -0.964764 0.0850532 -0.193282 -0.97745 
-0.0597569 -0.238564 -0.969287 -0.191726 -0.250929 -0.948829 -0.558917 -0.274011 -0.782643 
-0.443513 -0.404085 -0.800008 -0.422285 -0.25127 -0.870941 0.277707 -0.160611 -0.947145 
0.17228 -0.250289 -0.95272 0.143586 -0.180578 -0.973024 0.00427337 -0.114523 -0.993411 
0.00230224 -0.0945286 -0.995519 0.0143876 -0.121412 -0.992498 -0.0991867 -0.226071 -0.969048 
-0.0811632 0.0216342 -0.996466 0.035033 -0.0163009 -0.999253 0.0606542 -0.0586499 -0.996434 
0.10374 -0.183134 -0.977599 0.0441561 -0.291705 -0.955489 -0.157214 -0.406691 -0.899937 
-0.111503 -0.351108 -0.929672 -0.303616 -0.426832 -0.85184 -0.264646 -0.41734 -0.869362 
-0.250537 -0.397197 -0.882874 0.1594 -0.250972 -0.95478 0.121136 -0.272269 -0.954566 
0.103657 -0.205556 -0.97314 0.0282903 -0.107061 -0.99385 0.037542 -0.0888836 -0.995334 
-0.00446814 -0.0646797 -0.997896 -0.0216385 0.0410676 -0.998922 -0.025268 0.0106512 -0.999624 
-0.0595843 -0.0467654 -0.997127 -0.138716 -0.201212 -0.969676 -0.0538001 -0.139393 -0.988775 
-0.128023 -0.35418 -0.926373 -0.129106 -0.340439 -0.931361 -0.110403 -0.329564 -0.937656 
0.134355 -0.2827 -0.949752 0.135474 -0.286987 -0.948307 0.134039 -0.275201 -0.951997 
0.074919 -0.258499 -0.963102 0.0565011 -0.2093 -0.976218 0.0468004 -0.283319 -0.957883 
0.0317268 -0.179182 -0.983304 -0.0112278 -0.273551 -0.961792 -0.0106314 -0.151401 -0.988415 
-0.0658979 -0.261141 -0.963049 -0.052359 -0.171196 -0.983845 -0.134415 -0.222851 -0.965541 
-0.0915803 -0.234305 -0.96784 -0.0859676 -0.205683 -0.974835 
