# vtk DataFile Version 4.2
vtk output
ASCII
DATASET POLYDATA
POINTS 546 float
-31.4144 22.4461 -17.8661 -8.53593 -46.1893 -11.0542 -0.909778 -46.1893 -12.653 
6.71637 -46.1893 -12.7272 14.3425 -46.1893 -10.1588 -31.4144 -38.5631 -11.201 
-23.7882 -38.5631 -12.7774 -16.1621 -38.5631 -14.1618 -8.53593 -38.5631 -14.0226 
-0.909778 -38.5631 -14.4516 6.71637 -38.5631 -14.268 14.3425 -38.5631 -12.9167 
21.9687 -38.5631 -11.7414 -39.0405 -30.937 -10.8231 -31.4144 -30.937 -13.8458 
-23.7882 -30.937 -15.7016 -16.1621 -30.937 -15.5272 -8.53593 -30.937 -15.1333 
-0.909778 -30.937 -14.8447 6.71637 -30.937 -14.5464 14.3425 -30.937 -15.3439 
21.9687 -30.937 -13.163 29.5948 -30.937 -12.4616 -39.0405 -23.3108 -13.0683 
-31.4144 -23.3108 -15.7706 -23.7882 -23.3108 -16.428 -16.1621 -23.3108 -16.311 
-8.53593 -23.3108 -15.4256 -0.909778 -23.3108 -14.3853 6.71637 -23.3108 -13.7088 
14.3425 -23.3108 -13.9216 21.9687 -23.3108 -13.6436 29.5948 -23.3108 -13.0164 
37.221 -23.3108 -12.269 -46.6667 -15.6847 -10.7322 -39.0405 -15.6847 -14.037 
-31.4144 -15.6847 -15.5634 -23.7882 -15.6847 -16.1723 -16.1621 -15.6847 -16.1796 
-8.53593 -15.6847 -15.2647 -0.909778 -15.6847 -13.9768 6.71637 -15.6847 -12.9299 
14.3425 -15.6847 -13.0725 21.9687 -15.6847 -13.5576 29.5948 -15.6847 -13.6153 
37.221 -15.6847 -13.1228 44.8471 -15.6847 -10.6018 -46.6667 -8.05851 -13.6504 
-39.0405 -8.05851 -14.7614 -31.4144 -8.05851 -15.275 -23.7882 -8.05851 -15.1467 
-16.1621 -8.05851 -15.3584 -8.53593 -8.05851 -16.2292 -0.909778 -8.05851 -15.5321 
6.71637 -8.05851 -17.4421 14.3425 -8.05851 -13.0144 21.9687 -8.05851 -12.8598 
29.5948 -8.05851 -13.12 37.221 -8.05851 -12.7494 44.8471 -8.05851 -11.3038 
-54.2928 -0.432359 -12.0505 -46.6667 -0.432359 -15.6717 -39.0405 -0.432359 -15.4167 
-31.4144 -0.432359 -15.0061 -23.7882 -0.432359 -14.0539 -16.1621 -0.432359 -13.3352 
-8.53593 -0.432359 -17.4414 6.71637 -0.432359 -15.0301 14.3425 -0.432359 -13.8333 
21.9687 -0.432359 -12.9278 29.5948 -0.432359 -13.1848 37.221 -0.432359 -12.7957 
44.8471 -0.432359 -11.3375 -54.2928 7.19379 -12.9825 -46.6667 7.19379 -16.2809 
-39.0405 7.19379 -15.7544 -31.4144 7.19379 -15.4409 -23.7882 7.19379 -14.2178 
-16.1621 7.19379 -12.9796 -8.53593 7.19379 -12.0942 -0.909778 7.19379 -14.4203 
6.71637 7.19379 -15.4623 14.3425 7.19379 -13.6802 21.9687 7.19379 -13.6027 
29.5948 7.19379 -13.4905 37.221 7.19379 -12.8289 44.8471 7.19379 -11.1443 
-54.2928 14.8199 -12.8263 -46.6667 14.8199 -16.4414 -39.0405 14.8199 -16.0304 
-31.4144 21.9463 -17.7746 -31.4144 14.8199 -16.2446 -23.7882 14.8199 -15.8018 
-16.1621 14.8199 -14.6637 -8.53593 14.8199 -12.785 -0.909778 14.8199 -12.6762 
6.71637 14.8199 -13.5478 14.3425 14.8199 -13.7528 21.9687 14.8199 -14.0464 
29.5948 14.8199 -13.832 37.221 14.8199 -12.9446 44.8471 14.8199 -10.4214 
-54.2928 22.4461 -11.3847 -46.6667 22.4461 -15.7007 -31.8255 22.4461 -17.7746 
-39.0405 22.4461 -15.8381 -30.9233 22.4461 -17.7746 -31.4144 22.8089 -17.7746 
-23.7882 22.4461 -16.2143 -16.1621 22.4461 -15.3394 -8.53593 22.4461 -13.7955 
-0.909778 22.4461 -13.2543 6.71637 22.4461 -13.401 14.3425 22.4461 -13.7615 
21.9687 22.4461 -13.6849 29.5948 22.4461 -13.1594 37.221 22.4461 -12.1778 
-46.6667 30.0722 -11.7536 -39.0405 30.0722 -16.2168 -31.4144 30.0722 -15.5179 
-23.7882 30.0722 -15.7483 -16.1621 30.0722 -14.9685 -8.53593 30.0722 -13.4932 
-0.909778 30.0722 -13.0547 6.71637 30.0722 -12.8681 14.3425 30.0722 -12.8321 
21.9687 30.0722 -12.4294 29.5948 30.0722 -12.0855 -39.0405 37.6984 -12.1225 
-31.4144 37.6984 -12.2668 -23.7882 37.6984 -12.0983 -16.1621 37.6984 -11.7372 
-8.53593 37.6984 -10.9263 -0.909778 37.6984 -10.4269 -8.53593 -47.6945 -10.1484 
-0.909778 -49.6276 -10.1484 -0.909778 -53.8154 -3.09666 6.71637 -49.7605 -10.1484 
14.3425 -46.2042 -10.1484 -31.4144 -39.8644 -10.1484 -23.7882 -43.2033 -10.1484 
-23.7882 -46.1893 -6.36494 -14.1809 -46.1893 -10.1484 -16.1621 -45.7782 -10.1484 
-16.1621 -46.1893 -9.72868 14.3788 -46.1893 -10.1484 21.9687 -41.8383 -10.1484 
-32.9213 -38.5631 -10.1484 -39.0405 -31.9452 -10.1484 27.2082 -38.5631 -10.1484 
29.5948 -36.7498 -10.1484 -39.7721 -30.937 -10.1484 36.1959 -30.937 -10.1484 
37.221 -29.8873 -10.1484 37.221 -30.937 -9.37855 -43.5308 -23.3108 -10.1484 
-46.6667 -17.4001 -10.1484 -46.6667 -23.3108 -5.9958 42.6083 -23.3108 -10.1484 
44.8471 -18.4653 -10.1484 44.8471 -23.3108 -9.05696 -47.5034 -15.6847 -10.1484 
45.6907 -15.6847 -10.1484 52.4733 -15.6847 -6.27682 -53.9795 -8.05851 -10.1484 
-54.2928 -7.61086 -10.1484 -54.2928 -8.05851 -9.89531 -0.909778 -0.953488 -10.1484 
49.0519 -8.05851 -10.1484 52.4733 -8.05851 -8.90109 -56.9474 -0.432359 -10.1484 
-1.51314 -0.432359 -10.1484 -0.290452 -0.432359 -10.1484 -0.909778 0.231788 -10.1484 
-0.909778 -0.432359 -9.61591 48.4368 -0.432359 -10.1484 52.4733 -0.432359 -8.5233 
-58.0336 7.19379 -10.1484 -61.919 7.19379 -2.66057 47.7125 7.19379 -10.1484 
52.4733 7.19379 -8.09522 -57.7807 14.8199 -10.1484 45.4144 14.8199 -10.1484 
44.8471 17.4961 -10.1484 52.4733 14.8199 -6.61156 -55.8072 22.4461 -10.1484 
-54.2928 25.2362 -10.1484 43.3108 22.4461 -10.1484 37.221 28.5868 -10.1484 
44.8471 22.4461 -9.53995 52.4733 22.4461 -3.74902 -49.4047 30.0722 -10.1484 
-54.2928 30.0722 -2.80854 -46.6667 32.8886 -10.1484 6.71637 37.3471 -10.1484 
14.3425 36.6374 -10.1484 21.9687 35.7673 -10.1484 35.6605 30.0722 -10.1484 
29.5948 35.5808 -10.1484 37.221 30.0722 -9.65281 44.8471 30.0722 -6.44757 
-42.6481 37.6984 -10.1484 -39.0405 39.688 -10.1484 -31.4144 40.0192 -10.1484 
-23.7882 40.2104 -10.1484 -16.1621 40.2761 -10.1484 -8.53593 38.9333 -10.1484 
4.14181 37.6984 -10.1484 -0.909778 38.1228 -10.1484 6.71637 37.6984 -9.96266 
14.3425 37.6984 -9.60387 21.9687 37.6984 -9.22783 29.5948 37.6984 -9.24871 
37.221 37.6984 -5.61064 -0.909778 -53.9982 -2.52227 -23.7882 -47.8678 -2.52227 
-16.1621 -50.6351 -2.52227 -2.07534 -53.8154 -2.52227 -8.53593 -52.7602 -2.52227 
2.60141 -53.8154 -2.52227 -0.909778 -53.8154 -2.11002 6.71637 -53.5496 -2.52227 
14.3425 -50.7136 -2.52227 -27.444 -46.1893 -2.52227 -31.4144 -44.0233 -2.52227 
-23.7882 -46.1893 3.9855 6.71637 -46.1893 4.77939 20.8892 -46.1893 -2.52227 
14.3425 -46.1893 2.92157 21.9687 -45.325 -2.52227 -37.3399 -38.5631 -2.52227 
-39.0405 -36.6241 -2.52227 29.5 -38.5631 -2.52227 21.9687 -38.5631 3.97582 
29.5948 -38.4765 -2.52227 37.221 -33.7873 -2.52227 -42.9962 -30.937 -2.52227 
-46.6667 -25.4626 -2.52227 29.5948 -30.937 4.22206 41.8927 -30.937 -2.52227 
37.221 -30.937 1.83379 44.8471 -28.913 -2.52227 -48.2613 -23.3108 -2.52227 
-46.6667 -23.3108 2.66494 51.1233 -23.3108 -2.52227 52.4733 -21.6064 -2.52227 
-53.3654 -15.6847 -2.52227 -54.2928 -14.3098 -2.52227 56.24 -15.6847 -2.52227 
-58.1095 -8.05851 -2.52227 59.2684 -8.05851 -2.52227 60.0994 -8.05851 0.0192743 
-61.2502 -0.432359 -2.52227 -61.919 6.51286 -2.52227 59.3014 -0.432359 -2.52227 
60.0994 -0.432359 -0.905015 -61.9797 7.19379 -2.52227 -61.919 7.93629 -2.52227 
-61.919 7.19379 -2.30352 58.9054 7.19379 -2.52227 60.0994 7.19379 -0.0162277 
-61.3354 14.8199 -2.52227 56.7522 14.8199 -2.52227 -59.1989 22.4461 -2.52227 
53.6191 22.4461 -2.52227 52.4733 24.8711 -2.52227 -54.3989 30.0722 -2.52227 
-54.2928 30.2138 -2.52227 -54.2928 30.0722 -2.31932 -46.6667 37.6679 -2.52227 
49.5504 30.0722 -2.52227 44.8471 34.8477 -2.52227 -46.6217 37.6984 -2.52227 
-39.0405 41.9951 -2.52227 -31.4144 43.766 -2.52227 -23.7882 44.4035 -2.52227 
-16.1621 44.4315 -2.52227 -8.53593 44.0624 -2.52227 -0.909778 43.7196 -2.52227 
6.71637 43.4483 -2.52227 14.3425 43.6521 -2.52227 21.9687 44.1596 -2.52227 
29.5948 42.9397 -2.52227 41.333 37.6984 -2.52227 37.221 40.4202 -2.52227 
44.8471 37.6984 4.88478 -16.1621 -46.7287 5.10388 -8.53593 -48.0619 5.10388 
-0.909778 -48.0263 5.10388 -31.4144 -41.1794 5.10388 -20.6841 -46.1893 5.10388 
-23.7882 -45.7764 5.10388 -16.1621 -46.1893 5.67621 -8.53593 -46.1893 6.84863 
5.14414 -46.1893 5.10388 -0.909778 -46.1893 6.50874 6.71637 -45.5744 5.10388 
14.3425 -41.314 5.10388 -34.1594 -38.5631 5.10388 -39.0405 -32.6998 5.10388 
-31.4144 -38.5631 7.88548 -23.7882 -38.5631 10.9062 -16.1621 -38.5631 11.5563 
-8.53593 -38.5631 10.7577 -0.909778 -38.5631 9.81566 6.71637 -38.5631 8.35112 
18.1746 -38.5631 5.10388 14.3425 -38.5631 6.10316 21.9687 -35.5012 5.10388 
-40.1492 -30.937 5.10388 -39.0405 -30.937 6.49513 -31.4144 -30.937 11.4522 
-0.909778 -30.937 11.5624 6.71637 -30.937 10.0761 14.3425 -30.937 8.43947 
26.876 -30.937 5.10388 21.9687 -30.937 6.57855 29.5948 -29.8939 5.10388 
37.221 -28.5599 5.10388 44.8471 -26.4883 5.10388 -45.5417 -23.3108 5.10388 
-46.6667 -21.4376 5.10388 -39.0405 -23.3108 9.33991 -0.909778 -23.3108 12.591 
6.71637 -23.3108 11.2411 14.3425 -23.3108 9.86826 21.9687 -23.3108 9.97492 
29.5948 -23.3108 10.7089 37.221 -23.3108 9.98002 50.2196 -23.3108 5.10388 
44.8471 -23.3108 8.58286 52.4733 -21.5238 5.10388 -49.8621 -15.6847 5.10388 
-54.2928 -8.38706 5.10388 -46.6667 -15.6847 8.25439 -39.0405 -15.6847 12.2225 
57.3686 -15.6847 5.10388 52.4733 -15.6847 10.6734 60.0994 -10.8131 5.10388 
-54.4642 -8.05851 5.10388 -54.2928 -8.05851 5.29614 -46.6667 -8.05851 10.9281 
61.2969 -8.05851 5.10388 60.0994 -8.05851 7.56908 -58.2533 -0.432359 5.10388 
-54.2928 -0.432359 8.70734 -46.6667 -0.432359 12.2575 6.71637 -0.432359 12.5032 
62.1333 -0.432359 5.10388 60.0994 -0.432359 10.6296 -58.5878 7.19379 5.10388 
-54.2928 7.19379 8.97443 -46.6667 7.19379 12.2825 -0.909778 7.19379 9.87098 
61.7904 7.19379 5.10388 60.0994 13.5077 5.10388 60.0994 7.19379 9.52333 
-56.6594 14.8199 5.10388 -54.2928 14.8199 6.99153 -46.6667 14.8199 11.0152 
-0.909778 14.8199 12.4644 59.7329 14.8199 5.10388 -55.8366 22.4461 5.10388 
-54.2928 24.7851 5.10388 -54.2928 22.4461 6.52089 -46.6667 22.4461 10.2108 
-39.0405 22.4461 11.5322 56.2223 22.4461 5.10388 52.4733 29.4499 5.10388 
52.4733 22.4461 10.7519 -47.0954 30.0722 5.10388 -46.6667 30.4969 5.10388 
-46.6667 30.0722 5.36329 -39.0405 30.0722 10.6447 -31.4144 30.0722 11.1041 
-23.7882 30.0722 12.0383 -16.1621 30.0722 12.4556 -8.53593 30.0722 12.3528 
[...]
POINT_DATA 546
SCALARS ImageScalars float
LOOKUP_TABLE default
0 0 0 0 0 0 0 0 0 
0 0 0 0 0 0 0 0 0 
0 0 0 0 0 0 0 0 0 
0 0 0 0 0 0 0 0 0 
0 0 0 0 0 0 0 0 0 
0 0 0 0 0 0 0 0 0 
0 0 0 0 0 0 0 0 0 
0 0 0 0 0 0 0 0 0 
0 0 0 0 0 0 0 0 0 
0 0 0 0 0 0 0 0 0 
0 0 0 0 0 0 0 0 0 
0 0 0 0 0 0 0 0 0 
0 0 0 0 0 0 0 0 0 
0 0 0 0 0 0 0 0 0 
0 0 0 0 0 0 0 0 0 
0 0 0 0 0 0 0 0 0 
0 0 0 0 0 0 0 0 0 
0 0 0 0 0 0 0 0 0 
0 0 0 0 0 0 0 0 0 
0 0 0 0 0 0 0 0 0 
0 0 0 0 0 0 0 0 0 
0 0 0 0 0 0 0 0 0 
0 0 0 0 0 0 0 0 0 
0 0 0 0 0 0 0 0 0 
0 0 0 0 0 0 0 0 0 
0 0 0 0 0 0 0 0 0 
0 0 0 0 0 0 0 0 0 
0 0 0 0 0 0 0 0 0 
0 0 0 0 0 0 0 0 0 
0 0 0 0 0 0 0 0 0 
0 0 0 0 0 0 0 0 0 
0 0 0 0 0 0 0 0 0 
0 0 0 0 0 0 0 0 0 
0 0 0 0 0 0 0 0 0 
0 0 0 0 0 0 0 0 0 
0 0 0 0 0 0 0 0 0 
0 0 0 0 0 0 0 0 0 
0 0 0 0 0 0 0 0 0 
0 0 0 0 0 0 0 0 0 
0 0 0 0 0 0 0 0 0 
0 0 0 0 0 0 0 0 0 
0 0 0 0 0 0 0 0 0 
0 0 0 0 0 0 0 0 0 
0 0 0 0 0 0 0 0 0 
0 0 0 0 0 0 0 0 0 
0 0 0 0 0 0 0 0 0 
0 0 0 0 0 0 0 0 0 
0 0 0 0 0 0 0 0 0 
0 0 0 0 0 0 0 0 0 
0 0 0 0 0 0 0 0 0 
0 0 0 0 0 0 0 0 0 
0 0 0 0 0 0 0 0 0 
0 0 0 0 0 0 0 0 0 
0 0 0 0 0 0 0 0 0 
0 0 0 0 0 0 0 0 0 
0 0 0 0 0 0 0 0 0 
0 0 0 0 0 0 0 0 0 
0 0 0 0 0 0 0 0 0 
0 0 0 0 0 0 0 0 0 
0 0 0 0 0 0 0 0 0 
0 0 0 0 0 0 
NORMALS Normals float
0.0198315 -0.0378391 0.999087 0.158515 0.480382 0.862616 0.0963498 0.456621 0.884429 
-0.15662 0.501133 0.851079 -0.291477 0.552483 0.780899 0.416735 0.550394 0.723463 
0.195687 0.435374 0.878724 0.0725399 0.306721 0.949031 0.017125 0.227023 0.973739 
0.0157493 0.116934 0.993015 -0.101615 0.095857 0.990195 -0.156223 0.308462 0.938321 
-0.284605 0.389895 0.875775 0.611669 0.414704 0.673707 0.285276 0.273177 0.91869 
0.114553 0.233352 0.965621 -0.0358821 0.147247 0.988449 -0.0445364 0.0872816 0.995188 
-0.0384044 -0.00548491 0.999247 0.0298393 -0.0369851 0.99887 -0.0921372 0.0633507 0.993729 
-0.19732 0.118377 0.973166 -0.266008 0.273631 0.924319 0.456343 0.202888 0.866364 
0.189181 0.117325 0.974908 0.0319215 0.0270076 0.999125 -0.0631867 0.0423778 0.997102 
-0.127707 0.00894561 0.991772 -0.108819 -0.0565118 0.992454 -0.0303028 -0.105938 0.993911 
-0.00441424 -0.142 0.989857 -0.0586797 0.0241576 0.997985 -0.0840015 0.06925 0.994056 
-0.256302 0.236118 0.937314 0.511328 0.315612 0.799333 0.269513 0.0954982 0.95825 
0.135384 -0.0309995 0.990308 0.0403818 -0.0842303 0.995628 -0.0576704 -0.0587315 0.996607 
-0.144695 0.0509574 0.988163 -0.156398 0.0634644 0.985653 -0.0624737 0.127706 0.989843 
0.0410307 -0.0586643 0.997434 0.0354744 -0.0474078 0.998245 -0.0326465 0.00578622 0.99945 
-0.172775 0.0197283 0.984764 -0.406746 0.115072 0.906265 0.31005 0.262536 0.913753 
0.0945707 0.0894656 0.99149 0.0243465 -0.0364335 0.999039 0.00455575 -0.137465 0.990496 
0.0701624 -0.167183 0.983426 0.0147774 0.110236 0.993796 0.0333748 -0.123752 0.991752 
-0.16686 0.211389 0.963054 -0.199821 0.0489504 0.978609 0.0089849 -0.0430859 0.999031 
-0.00853914 -0.0278233 0.999576 -0.112749 -0.0243131 0.993326 -0.214281 0.0451402 0.975728 
0.500371 0.198563 0.842734 0.225111 0.139903 0.964237 -0.0415936 0.0652726 0.997 
-0.0878225 0.0108177 0.996077 -0.101692 -0.0608207 0.992955 0.111875 -0.165924 0.979772 
-0.066829 -0.236678 0.969287 0.158795 -0.0870273 0.983468 -0.136241 0.0391612 0.989901 
-0.0352775 0.0482708 0.998211 -0.00851136 0.0242969 0.999669 -0.115885 0.0051811 0.993249 
-0.244261 -0.0102524 0.969655 0.482408 0.0499568 0.874521 0.200675 0.0395678 0.978859 
-0.0504039 0.0398358 0.997934 -0.0996969 0.081005 0.991715 -0.158366 0.103763 0.981913 
-0.125345 0.092357 0.987805 0.0850149 -0.177112 0.980512 0.202533 0.0698193 0.976783 
-0.0646279 -0.112693 0.991526 -0.110319 -0.00408989 0.993888 -0.0124077 0.073338 0.99723 
-0.0502856 0.0420212 0.99785 -0.148105 0.0102118 0.988919 -0.265759 -0.0559673 0.962413 
0.512542 -0.107549 0.8519 0.222331 -0.0271153 0.974594 -0.00819431 0.0056253 0.999951 
0.0184173 -0.0258789 0.999495 -0.0124771 0.153285 0.988103 -0.106317 0.134689 0.985168 
-0.189771 0.150808 0.970177 -0.128826 0.097909 0.986822 0.052329 -0.0601882 0.996814 
0.0695998 -0.123587 0.98989 0.0326273 0.0052946 0.999454 0.00540828 0.00545062 0.99997 
-0.0768997 -0.0210948 0.996816 -0.20374 -0.0369684 0.978327 -0.382912 -0.0908857 0.919303 
0.585527 -0.279958 0.760777 0.350834 -0.280128 0.893557 0.0245989 -0.034557 0.9991 
0.136704 0.00701231 0.990587 0.00922266 -0.0361034 0.999305 0.0171826 -0.0486675 0.998667 
-0.156503 -0.00352307 0.987671 -0.161279 0.0223175 0.986656 -0.131047 0.0452127 0.990345 
-0.0255244 0.0227521 0.999415 0.0331388 -0.0453103 0.998423 0.0186469 -0.0568579 0.998208 
-0.0381484 -0.100497 0.994206 -0.0934363 -0.107127 0.989845 -0.238548 -0.212702 0.947551 
0.451761 -0.445158 0.773141 0.184673 -0.237893 0.953574 -0.0217064 -0.304712 0.952197 
-0.0335666 -0.246894 0.968461 -0.148897 -0.226325 0.962604 -0.115741 -0.176437 0.977483 
-0.0417942 -0.173588 0.983931 -0.0149817 -0.207016 0.978223 -0.028495 -0.233328 0.971981 
-0.044826 -0.254852 0.96594 -0.172597 -0.247271 0.95345 0.256123 -0.635742 0.728171 
-0.000597154 -0.623652 0.781702 -0.0319856 -0.563041 0.82581 -0.0732512 -0.488959 0.869226 
-0.0858913 -0.492093 0.866295 -0.0589479 -0.507287 0.859759 0.174075 0.55014 0.816728 
0.0744701 0.646159 0.759561 0.0567534 0.998295 -0.0136734 -0.139723 0.666608 0.732196 
-0.291687 0.553235 0.780288 0.433631 0.600749 0.671613 0.272369 0.611838 0.74261 
0.36316 0.84698 0.388252 0.15495 0.634943 0.756861 0.150541 0.663716 0.732679 
0.165942 0.701818 0.692758 -0.292546 0.553472 0.779799 -0.39947 0.553113 0.731088 
0.475914 0.57478 0.665683 0.629807 0.44099 0.63943 -0.458657 0.586744 0.667357 
-0.477606 0.587159 0.653557 0.641157 0.424541 0.639283 -0.440265 0.50052 0.745417 
-0.428886 0.485622 0.761727 -0.472605 0.579778 0.663703 0.602565 0.347013 0.718678 
0.560253 0.336371 0.756948 0.777991 0.534486 0.330235 -0.404098 0.306932 0.861683 
-0.43433 0.188645 0.880779 -0.507984 0.383329 0.771369 0.555787 0.337185 0.759873 
-0.422853 0.132553 0.896451 -0.6528 0.354915 0.669244 0.581895 0.363409 0.727553 
0.587848 0.357335 0.725773 0.604503 0.373015 0.703872 -0.0236087 -0.140673 0.989775 
-0.321273 0.108643 0.940734 -0.461844 0.162164 0.872011 0.625191 0.226033 0.747024 
-0.0374469 -0.14842 0.988215 0.0208948 -0.104169 0.99434 0.0209729 -0.0805639 0.996529 
-0.0218538 -0.117774 0.9928 -0.316065 -0.0285396 0.948308 -0.450639 -0.0460771 0.891516 
0.680991 0.0417485 0.7311 0.996089 0.00390318 0.0882721 -0.325434 -0.0866838 0.941583 
-0.485557 -0.125545 0.865143 0.696877 -0.133902 0.70458 -0.392176 -0.0989666 0.914551 
-0.403644 -0.13219 0.905316 -0.584216 -0.227702 0.779002 0.647181 -0.329426 0.687485 
0.642691 -0.411689 0.646112 -0.395664 -0.216907 0.892413 -0.294271 -0.314253 0.902579 
-0.445281 -0.221633 0.867527 -0.711361 -0.345324 0.612142 0.565626 -0.491562 0.662144 
0.796152 -0.60345 -0.044608 0.513727 -0.518289 0.683711 -0.0451172 -0.509495 0.85929 
-0.042983 -0.508394 0.860051 -0.0268529 -0.448316 0.893471 -0.284218 -0.317468 0.904674 
-0.16896 -0.458279 0.872601 -0.31344 -0.341555 0.886056 -0.453907 -0.500151 0.73744 
0.39981 -0.67785 0.616985 0.265669 -0.774913 0.573524 0.033641 -0.702533 0.710856 
0.012015 -0.655309 0.755266 -0.0558792 -0.578505 0.813763 -0.091618 -0.5395 0.836986 
-0.0502234 -0.519264 0.853137 -0.0608347 -0.524111 0.849475 -0.0453255 -0.533662 0.844482 
-0.0407277 -0.573832 0.81796 -0.0188401 -0.548007 0.836261 -0.172126 -0.562326 0.808803 
-0.471005 -0.636516 0.610739 0.0552777 0.996259 -0.0664251 0.390214 0.917154 0.0810081 
0.312794 0.949209 0.0340802 0.0812496 0.994618 -0.0642867 0.216147 0.97549 -0.041217 
-0.055761 0.99264 -0.107499 0.050903 0.99355 -0.101328 -0.192671 0.968758 -0.156161 
-0.4779 0.866564 -0.143802 0.46561 0.880138 0.0925467 0.5644 0.821109 0.0850425 
0.274213 0.86099 -0.428373 -0.177726 0.526936 -0.831115 -0.605688 0.764073 -0.222113 
-0.416895 0.615928 -0.668454 -0.621263 0.748957 -0.230425 0.728357 0.682559 0.0600812 
0.769744 0.636209 0.0522608 -0.603833 0.760046 -0.24024 -0.360891 0.4548 -0.814196 
-0.601576 0.761697 -0.240674 -0.473779 0.871612 -0.125804 0.831821 0.554517 0.0241861 
0.816462 0.574955 0.0530726 -0.237774 0.614866 -0.751933 -0.524992 0.851104 -0.00224334 
-0.31642 0.863874 -0.391918 -0.602256 0.790954 0.108069 0.811403 0.581419 0.0598085 
0.767315 0.539289 -0.34698 -0.730506 0.623909 0.277667 -0.75433 0.567103 0.330727 
0.830617 0.552057 0.0728585 0.838116 0.542176 0.0600532 -0.824183 0.402872 0.398016 
0.888043 0.457514 0.0454036 -0.887825 0.204141 0.412423 -0.946531 0.246369 0.208281 
0.963921 0.246469 0.100549 0.996251 0.0244018 0.0829928 -0.862176 -0.0192896 0.506242 
-0.931716 -0.00647916 0.363129 0.996873 0.00373694 0.0789324 0.997041 -0.0138114 0.0756252 
0.997995 0.00179482 0.0632736 -0.835225 -0.163757 0.52496 -0.935346 -0.179034 0.305082 
0.982885 -0.183309 0.0182796 -0.797474 -0.275613 0.536724 0.920219 -0.391223 -0.0118788 
-0.753108 -0.381153 0.536238 -0.746095 -0.454371 0.486713 0.796586 -0.60147 -0.0607101 
0.79445 -0.604276 -0.0608248 0.793792 -0.603461 -0.075693 0.565722 -0.821724 -0.0687655 
-0.706264 -0.575691 0.412032 -0.606436 -0.631944 0.482579 0.564456 -0.822598 -0.0687177 
0.357252 -0.933049 -0.0423244 0.159162 -0.987191 -0.0109891 0.0431367 -0.998167 0.042455 
-0.020951 -0.998514 0.0503075 -0.0500967 -0.992585 0.110747 -0.0410592 -0.987509 0.152119 
-0.00515859 -0.978907 0.204241 0.0447657 -0.954657 0.294323 -0.052556 -0.927814 0.369321 
-0.209884 -0.905525 0.368746 -0.54857 -0.703937 0.451157 -0.446131 -0.796264 0.408572 
-0.623433 -0.780923 -0.0386052 0.112791 0.762764 -0.636764 0.0692857 0.685028 -0.725214 
-0.0890625 0.604419 -0.791672 0.536213 0.691411 -0.484176 0.187446 0.801273 -0.568178 
0.245749 0.817998 -0.520084 0.104124 0.74495 -0.658944 0.039874 0.608265 -0.792732 
-0.158677 0.515835 -0.841864 -0.112103 0.531185 -0.839807 -0.176924 0.49147 -0.852734 
-0.293894 0.381294 -0.876493 0.609615 0.622777 -0.490427 0.727759 0.474919 -0.494791 
0.507488 0.578625 -0.638474 0.163813 0.504355 -0.847816 -0.0119161 0.417443 -0.908625 
-0.108498 0.326705 -0.938878 -0.147747 0.27605 -0.949719 -0.208763 0.286923 -0.93493 
-0.285737 0.364079 -0.886454 -0.27097 0.307805 -0.912048 -0.29345 0.393138 -0.871395 
0.74152 0.452789 -0.495105 0.70863 0.420868 -0.566316 0.363484 0.269881 -0.891652 
-0.171925 0.173905 -0.969639 -0.199776 0.184103 -0.96239 -0.207313 0.220924 -0.953003 
-0.234738 0.506398 -0.829734 -0.245667 0.382483 -0.890705 -0.185335 0.587717 -0.787553 
-0.168594 0.760223 -0.627405 -0.337275 0.803859 -0.489955 0.685442 0.464902 -0.560389 
0.687767 0.469019 -0.554074 0.523198 0.287408 -0.802285 -0.169564 0.109697 -0.979395 
-0.173753 0.244938 -0.953842 -0.0874649 0.36509 -0.926854 0.0441497 0.50013 -0.864824 
0.00377318 0.606297 -0.79523 -0.105984 0.634319 -0.765772 -0.552039 0.741587 -0.381183 
-0.288242 0.73292 -0.616235 -0.648 0.689373 -0.323822 0.695332 0.437583 -0.570117 
0.734218 0.352772 -0.580066 0.585278 0.376955 -0.717882 0.280084 0.250261 -0.926781 
-0.811339 0.546383 -0.207834 -0.553924 0.540821 -0.632993 -0.918276 0.372646 -0.133809 
0.734893 0.350779 -0.580419 0.728758 0.348447 -0.589488 0.420294 0.193741 -0.886463 
-0.952852 0.279644 -0.117777 -0.896305 0.311832 -0.315274 0.755739 0.213319 -0.619155 
0.587352 0.167965 -0.791711 0.300404 0.0857924 -0.949946 0.209416 0.156762 -0.965179 
-0.998754 0.029768 -0.0400646 -0.864672 0.068342 -0.497666 0.753608 -0.0657047 -0.654032 
0.563542 -0.087324 -0.821459 0.28601 -0.0944391 -0.953562 0.124759 -0.0203628 -0.991978 
-0.986593 -0.15815 -0.0402764 -0.952884 -0.302752 -0.0188099 -0.904382 -0.169805 -0.391484 
0.691298 -0.134091 -0.710019 0.624361 -0.12813 -0.770556 0.3162 -0.109618 -0.942338 
0.0930314 0.214594 -0.972263 -0.94272 -0.33275 -0.0235972 0.678944 -0.322917 -0.659362 
0.607223 -0.383447 -0.69588 0.577131 -0.312023 -0.754693 0.325674 -0.294183 -0.89855 
0.171103 -0.147708 -0.974118 -0.876903 -0.472749 -0.0868907 -0.810777 -0.58177 -0.0646903 
-0.735791 -0.364057 -0.571028 0.470152 -0.457946 -0.754482 0.467505 -0.460739 -0.754427 
0.464798 -0.452776 -0.760892 0.284614 -0.338267 -0.896978 0.0847054 -0.306001 -0.948255 
0.0804272 -0.31525 -0.945594 0.0208276 -0.297072 -0.954628 0.0107905 -0.262823 -0.964784 
0.100515 -0.230337 -0.967906 -0.80294 -0.592296 -0.0668762 0.365649 -0.639456 -0.676311 
0.31823 -0.689564 -0.650563 0.318939 -0.62277 -0.714447 0.160999 -0.718203 -0.676952 
0.148123 -0.635816 -0.757494 0.124239 -0.764384 -0.632679 0.0926861 -0.595121 -0.798273 
0.0291351 -0.810689 -0.584751 0.035055 -0.578998 -0.814575 -0.0178056 -0.820892 -0.570806 
-0.00168168 -0.585487 -0.81068 0.0197589 -0.832972 -0.552962 0.0580181 -0.603746 -0.795062 
0.105129 -0.88661 -0.450412 0.164165 -0.616922 -0.769713 0.14993 -0.939919 -0.306713 
0.206268 -0.538797 -0.816793 0.00743712 -0.961894 -0.273321 -0.181647 -0.963687 -0.195735 
-0.365581 -0.913952 -0.176187 -0.29312 -0.71065 -0.639576 -0.623145 -0.780294 -0.0532194 
-0.620943 -0.782014 -0.0536979 -0.621105 -0.780982 -0.0655424 0.139714 0.309941 -0.940434 
-0.0326083 0.323375 -0.945709 -0.14732 0.197826 -0.969104 0.220239 0.231575 -0.947559 
0.318899 0.180411 -0.93046 0.138801 0.221388 -0.965257 -0.0507825 0.24888 -0.967202 
-0.150234 0.190972 -0.970031 -0.148828 0.192488 -0.969948 0.338185 0.168773 -0.925822 
0.310635 0.153438 -0.938063 0.135231 0.0913142 -0.986597 -0.0532379 0.10086 -0.993475 
-0.171223 0.109211 -0.979161 -0.193089 0.107762 -0.975246 -0.144325 0.0984669 -0.984619 
-0.0350299 0.183304 -0.982432 0.0370938 0.414337 -0.909367 0.0727206 0.528772 -0.845643 
0.010898 0.560881 -0.827825 -0.0913272 0.582474 -0.807702 -0.24916 0.551507 -0.79609 
0.248132 0.208048 -0.946122 0.254132 0.205944 -0.944989 0.189345 0.0840435 -0.978307 
0.0860544 0.0183024 -0.996122 -0.039572 -0.0538071 -0.997767 -0.140512 0.0180425 -0.989915 
-0.0367247 0.0577764 -0.997654 0.0829195 0.131494 -0.987843 0.109893 0.387364 -0.915354 
0.0833889 0.46758 -0.880009 0.0162817 0.48994 -0.871604 -0.0806134 0.488346 -0.868919 
-0.383123 0.500614 -0.776275 -0.253201 0.476471 -0.841941 -0.488909 0.430915 -0.758472 
0.27953 0.138261 -0.95013 0.221322 0.128926 -0.966641 0.0936837 0.0691332 -0.993199 
0.00550511 0.0146489 -0.999878 -0.0555519 -0.0560032 -0.996884 -0.073081 -0.0524754 -0.995944 
-0.0780914 0.0448619 -0.995936 0.202583 0.0867593 -0.975414 0.194502 -0.093754 -0.976411 
0.298453 0.0963004 -0.949554 0.175341 0.163203 -0.970886 0.0433846 0.195278 -0.979788 
-0.074167 0.226083 -0.971281 -0.194601 0.254956 -0.947168 -0.577854 0.330123 -0.746394 
-0.482715 0.29994 -0.822813 0.265166 0.0729726 -0.961437 0.178452 0.0333887 -0.983382 
0.0688239 0.00458066 -0.997618 -0.038113 -0.0101566 -0.999222 -0.10612 4.78816e-05 -0.994353 
-0.0487764 -0.0754943 -0.995953 0.167766 0.103401 -0.980389 -0.0176697 -0.22852 -0.973379 
-0.0682885 -0.250139 -0.965799 0.211458 0.150737 -0.965693 0.224674 0.155786 -0.9619 
0.320997 0.0566397 -0.945385 0.213727 0.0117185 -0.976823 0.0833804 0.0279197 -0.996127 
-0.0354928 0.0432808 -0.998432 -0.231625 0.0771897 -0.969738 -0.708367 0.0815412 -0.701119 
-0.422854 0.0395927 -0.905333 0.247091 -0.0957346 -0.964251 0.145391 -0.0808921 -0.986062 
0.0520981 -0.0732225 -0.995954 0.00112384 -0.0627956 -0.998026 -0.113977 -0.0125878 -0.993404 
-0.269715 -0.0367327 -0.962239 -0.305641 -0.0281312 -0.951731 0.350484 0.0393732 -0.935741 
0.429426 0.117002 -0.895491 0.171291 0.0604814 -0.983362 0.150165 -0.00225045 -0.988658 
0.077125 -0.047516 -0.995889 -0.0240002 -0.0733888 -0.997015 -0.229973 -0.0833053 -0.969625 
-0.693398 -0.153418 -0.704033 -0.425332 -0.0746468 -0.901954 0.210224 -0.146184 -0.966662 
0.189708 -0.148584 -0.970533 0.198645 -0.153776 -0.967932 0.0893724 -0.109068 -0.990009 
0.0228867 -0.0681152 -0.997415 -0.0697068 -0.0431662 -0.996633 0.0217714 0.152396 -0.98808 
-0.129511 0.0233187 -0.991304 0.119134 0.189996 -0.97453 0.0997187 0.149385 -0.983738 
0.314895 -0.000487215 -0.949126 0.216678 0.00996371 -0.976192 0.106403 -0.0130686 -0.994237 
0.0145317 -0.0623934 -0.997946 -0.0726469 -0.0503978 -0.996084 -0.215149 -0.185413 -0.958818 
-0.61259 -0.309858 -0.727132 -0.603489 -0.305981 -0.736327 -0.53116 -0.277002 -0.800712 
0.144281 -0.16654 -0.975422 0.131684 -0.18877 -0.973152 0.142582 -0.17519 -0.974155 
0.0741967 -0.25099 -0.965142 0.0650197 -0.146931 -0.987007 0.0125806 -0.265714 -0.96397 
-0.0289276 -0.123384 -0.991937 -0.00856366 -0.189484 -0.981847 -0.0474012 -0.0560062 -0.997305 
0.102441 -0.195108 -0.975417 0.112619 0.00911153 -0.993596 0.248368 -0.0512423 -0.967309 
0.177619 -0.0951478 -0.979489 0.0760063 -0.0915161 -0.992899 0.0386083 -0.0892081 -0.995264 
-0.165534 -0.207451 -0.964138 -0.596087 -0.298527 -0.74536 -0.357201 -0.225018 -0.906518 
0.106074 -0.233151 -0.966638 0.177053 -0.382993 -0.906625 0.187194 -0.290738 -0.938312 
0.205908 -0.495905 -0.843611 0.196077 -0.297531 -0.93436 0.0991834 -0.255843 -0.961617 
-0.098859 -0.314228 -0.944186 -0.251547 -0.529598 -0.810093 -0.226871 -0.375526 -0.898615 
-0.394281 -0.482596 -0.782076 -0.393753 -0.483061 -0.782056 -0.393519 -0.482467 -0.78254 
0.171166 -0.535067 -0.827288 0.0543194 -0.627318 -0.776867 0.0592498 -0.56038 -0.826114 
-0.182698 -0.59325 -0.784012 -0.143532 -0.604814 -0.783325 -0.139035 -0.576028 -0.805519 

