# vtk DataFile Version 4.2
vtk output
ASCII
DATASET POLYDATA
POINTS 530 float
-21.6197 -42.8514 -17.543 -13.3528 -42.8514 -18.7579 -5.08579 -42.8514 -18.6034 
3.18118 -42.8514 -17.6602 11.4482 -42.8514 -16.5596 -29.8867 -34.5844 -19.113 
-21.6197 -34.5844 -21.5758 -13.3528 -34.5844 -22.1626 -5.08579 -34.5844 -22.7156 
3.18118 -34.5844 -22.3815 11.4482 -34.5844 -21.8559 19.7151 -34.5844 -21.2821 
27.9821 -34.5844 -17.8574 -38.1537 -26.3174 -18.2124 -29.8867 -26.3174 -21.3919 
-21.6197 -26.3174 -22.5067 -13.3528 -26.3174 -22.9221 -5.08579 -26.3174 -23.0782 
3.18118 -26.3174 -22.9596 11.4482 -26.3174 -23.2825 19.7151 -26.3174 -22.8054 
27.9821 -26.3174 -21.596 36.2491 -26.3174 -18.2118 -46.4206 -18.0505 -15.8184 
-38.1537 -18.0505 -20.1556 -29.8867 -18.0505 -21.8794 -21.6197 -18.0505 -22.2047 
-13.3528 -18.0505 -22.279 -5.08579 -18.0505 -22.4711 3.18118 -18.0505 -22.5832 
11.4482 -18.0505 -22.8693 19.7151 -18.0505 -23.074 27.9821 -18.0505 -23.4636 
36.2491 -18.0505 -21.8818 44.516 -18.0505 -17.3046 -46.4206 -9.7835 -17.5627 
-38.1537 -9.7835 -21.4096 -29.8867 -9.7835 -22.343 -21.6197 -9.7835 -22.1095 
-13.3528 -9.7835 -22.2213 -5.08579 -9.7835 -22.7277 3.18118 -9.7835 -22.4281 
11.4482 -9.7835 -22.6162 19.7151 -9.7835 -22.6377 27.9821 -9.7835 -23.0012 
36.2491 -9.7835 -22.49 44.516 -9.7835 -20.3625 -46.4206 -1.51653 -19.2959 
-38.1537 -1.51653 -22.5073 -29.8867 -1.51653 -23.0181 -21.6197 -1.51653 -22.5428 
-13.3528 -1.51653 -23.2448 -5.08579 -1.51653 -23.5558 3.18118 -1.51653 -22.0676 
11.4482 -1.51653 -22.673 19.7151 -1.51653 -22.1683 27.9821 -1.51653 -23.077 
36.2491 -1.51653 -23.061 44.516 -1.51653 -21.4082 52.783 -1.51653 -16.3601 
-46.4206 6.75043 -20.2694 -38.1537 6.75043 -22.9216 -29.8867 6.75043 -23.1883 
-21.6197 6.75043 -22.3823 -13.3528 6.75043 -21.7222 -5.08579 6.75043 -22.7962 
3.18118 6.75043 -22.8272 11.4482 6.75043 -23.2912 19.7151 6.75043 -22.5509 
27.9821 6.75043 -23.0241 36.2491 6.75043 -22.8673 44.516 6.75043 -21.3234 
52.783 6.75043 -16.1514 -46.4206 15.0174 -19.9283 -38.1537 15.0174 -22.7488 
-29.8867 15.0174 -23.1167 -21.6197 15.0174 -22.4575 -13.3528 15.0174 -22.1052 
-5.08579 15.0174 -22.2475 3.18118 15.0174 -22.2058 11.4482 15.0174 -22.3254 
19.7151 15.0174 -22.4559 27.9821 15.0174 -22.5868 36.2491 15.0174 -21.8779 
44.516 15.0174 -19.5771 -46.4206 23.2844 -18.3974 -38.1537 23.2844 -22.0265 
-29.8867 23.2844 -22.9794 -21.6197 23.2844 -23.2584 -13.3528 23.2844 -23.1339 
-5.08579 23.2844 -22.8366 3.18118 23.2844 -21.9704 11.4482 23.2844 -21.8488 
19.7151 23.2844 -21.6253 27.9821 23.2844 -21.3113 36.2491 23.2844 -20.21 
44.516 23.2844 -16.4968 -38.1537 31.5513 -20.1114 -29.8867 31.5513 -22.3678 
-21.6197 31.5513 -22.7349 -13.3528 31.5513 -23.5735 -5.08579 31.5513 -22.7533 
3.18118 31.5513 -22.0924 11.4482 31.5513 -20.9885 19.7151 31.5513 -20.2854 
27.9821 31.5513 -19.3051 36.2491 31.5513 -16.5933 -29.8867 39.8183 -18.5925 
-21.6197 39.8183 -20.5793 -13.3528 39.8183 -21.3165 -5.08579 39.8183 -20.9254 
3.18118 39.8183 -19.7641 11.4482 39.8183 -18.848 19.7151 39.8183 -17.0665 
-21.6197 -44.6359 -15.7912 -13.3528 -45.9776 -15.7912 -5.08579 -45.5335 -15.7912 
3.18118 -44.5038 -15.7912 11.4482 -43.4452 -15.7912 -26.3884 -42.8514 -15.7912 
-29.8867 -40.929 -15.7912 -29.8867 -42.8514 -13.8521 13.7885 -42.8514 -15.7912 
19.7151 -40.8078 -15.7912 19.7151 -42.8514 -10.1133 27.9821 -36.7706 -15.7912 
-36.6617 -34.5844 -15.7912 -38.1537 -32.6256 -15.7912 -38.1537 -34.5844 -14.4276 
30.9005 -34.5844 -15.7912 36.2491 -29.5918 -15.7912 -41.762 -26.3174 -15.7912 
-46.4206 -18.1117 -15.7912 -46.4206 -26.3174 -9.10731 39.4591 -26.3174 -15.7912 
44.516 -20.4036 -15.7912 -46.4458 -18.0505 -15.7912 46.3971 -18.0505 -15.7912 
-48.2935 -9.7835 -15.7912 50.9559 -9.7835 -15.7912 52.783 -3.75553 -15.7912 
52.783 -9.7835 -12.895 -50.2725 -1.51653 -15.7912 53.3316 -1.51653 -15.7912 
-51.5322 6.75043 -15.7912 -54.6876 6.75043 -8.08193 53.1343 6.75043 -15.7912 
52.783 8.07355 -15.7912 -51.4612 15.0174 -15.7912 -54.6876 15.0174 -8.83691 
50.3629 15.0174 -15.7912 52.783 15.0174 -12.7361 -49.3318 23.2844 -15.7912 
-46.4206 29.6525 -15.7912 45.3675 23.2844 -15.7912 44.516 24.4157 -15.7912 
-45.1603 31.5513 -15.7912 -46.4206 31.5513 -14.4084 -38.1537 38.4612 -15.7912 
27.9821 39.4415 -15.7912 37.5196 31.5513 -15.7912 36.2491 32.6502 -15.7912 
44.516 31.5513 -8.82063 -36.1743 39.8183 -15.7912 -38.1537 39.8183 -14.2267 
-29.8867 42.8033 -15.7912 -21.6197 45.8971 -15.7912 -13.3528 47.0556 -15.7912 
-5.08579 46.3306 -15.7912 3.18118 45.1812 -15.7912 11.4482 44.4727 -15.7912 
26.9424 39.8183 -15.7912 19.7151 41.6106 -15.7912 27.9821 39.8183 -15.4707 
-21.6197 48.0853 -11.1134 -13.3528 48.0853 -13.4683 -5.08579 48.0853 -12.0724 
3.18118 48.0853 -10.7357 -29.8867 -46.5055 -7.5242 -21.6197 -49.8602 -7.5242 
-13.3528 -50.1455 -7.5242 -13.3528 -51.1183 -0.52227 -5.08579 -48.9742 -7.5242 
3.18118 -47.497 -7.5242 11.4482 -46.0373 -7.5242 19.7151 -43.5488 -7.5242 
-35.424 -42.8514 -7.5242 -38.1537 -40.3364 -7.5242 21.2852 -42.8514 -7.5242 
27.9821 -39.4868 -7.5242 -42.7982 -34.5844 -7.5242 -46.4206 -27.9677 -7.5242 
34.3798 -34.5844 -7.5242 36.2491 -32.9244 -7.5242 -47.1883 -26.3174 -7.5242 
43.1015 -26.3174 -7.5242 44.516 -24.8609 -7.5242 -50.0872 -18.0505 -7.5242 
50.6117 -18.0505 -7.5242 52.783 -14.5509 -7.5242 -52.1667 -9.7835 -7.5242 
55.2721 -9.7835 -7.5242 -53.8675 -1.51653 -7.5242 -54.6876 5.22218 -7.5242 
57.4503 -1.51653 -7.5242 -54.8702 6.75043 -7.5242 -54.6876 6.75043 -4.76507 
57.5073 6.75043 -7.5242 -55.1552 15.0174 -7.5242 -54.6876 17.3982 -7.5242 
-54.6876 15.0174 -1.50049 55.438 15.0174 -7.5242 52.783 20.5319 -7.5242 
-53.4867 23.2844 -7.5242 51.3205 23.2844 -7.5242 -49.7418 31.5513 -7.5242 
-46.4206 35.8102 -7.5242 36.2491 39.8077 -7.5242 45.4129 31.5513 -7.5242 
44.516 32.5402 -7.5242 -42.2839 39.8183 -7.5242 -38.1537 42.9858 -7.5242 
-29.8867 47.6105 -7.5242 11.4482 48.036 -7.5242 19.7151 46.8934 -7.5242 
36.2324 39.8183 -7.5242 27.9821 44.3209 -7.5242 36.2491 39.8183 -7.3651 
-27.7914 48.0853 -7.5242 -21.6197 49.3383 -7.5242 -13.3528 49.7975 -7.5242 
-5.08579 49.5029 -7.5242 -5.08579 48.0853 -1.13981 11.1012 48.0853 -7.5242 
3.18118 49.2628 -7.5242 3.18118 48.0853 -3.40616 -13.3528 -51.2866 0.742771 
-29.8867 -47.2131 0.742771 -16.2863 -51.1183 0.742771 -21.6197 -50.7885 0.742771 
-12.1801 -51.1183 0.742771 -13.3528 -51.1183 1.92179 -5.08579 -50.0935 0.742771 
3.18118 -48.2825 0.742771 11.4482 -46.3536 0.742771 19.7151 -43.4781 0.742771 
-35.743 -42.8514 0.742771 -38.1537 -40.4573 0.742771 20.8951 -42.8514 0.742771 
19.7151 -42.8514 6.6522 27.9821 -38.3112 0.742771 -42.7664 -34.5844 0.742771 
-46.4206 -28.0535 0.742771 32.5974 -34.5844 0.742771 36.2491 -31.5126 0.742771 
-47.318 -26.3174 0.742771 -46.4206 -26.3174 3.00985 42.0377 -26.3174 0.742771 
44.516 -24.1287 0.742771 -50.0515 -18.0505 0.742771 50.7016 -18.0505 0.742771 
52.783 -15.1066 0.742771 -52.1497 -9.7835 0.742771 55.8545 -9.7835 0.742771 
-53.5418 -1.51653 0.742771 58.0733 -1.51653 0.742771 -54.3276 6.75043 0.742771 
58.148 6.75043 0.742771 -54.5148 15.0174 0.742771 55.9291 15.0174 0.742771 
52.783 22.1368 0.742771 -53.354 23.2844 0.742771 52.2055 23.2844 0.742771 
-49.4183 31.5513 0.742771 -46.4206 35.17 0.742771 -46.4206 31.5513 7.28112 
46.5583 31.5513 0.742771 44.516 33.8236 0.742771 44.516 31.5513 6.63831 
-41.7113 39.8183 0.742771 -38.1537 42.6681 0.742771 -38.1537 39.8183 6.68746 
-29.8867 46.7183 0.742771 -5.08579 47.6292 0.742771 3.18118 46.8055 0.742771 
11.4482 46.8104 0.742771 19.7151 46.1184 0.742771 27.9821 44.2205 0.742771 
37.0351 39.8183 0.742771 36.2491 40.324 0.742771 36.2491 39.8183 1.98175 
-22.3811 48.0853 0.742771 -21.6197 48.2189 0.742771 -21.6197 48.0853 1.01862 
-9.9852 48.0853 0.742771 -13.3528 48.3933 0.742771 -13.3528 48.0853 1.35973 
-29.8867 -43.8806 9.00974 -21.6197 -48.3792 9.00974 -13.3528 -50.0528 9.00974 
-5.08579 -49.6129 9.00974 3.18118 -47.96 9.00974 11.4482 -45.7607 9.00974 
-31.1531 -42.8514 9.00974 -38.1537 -35.3948 9.00974 -29.8867 -42.8514 10.1972 
-21.6197 -42.8514 15.6873 19.0595 -42.8514 9.00974 19.7151 -42.5679 9.00974 
27.9821 -36.3877 9.00974 -38.7617 -34.5844 9.00974 -38.1537 -34.5844 9.69651 
-29.8867 -34.5844 16.2373 30.13 -34.5844 9.00974 27.9821 -34.5844 13.2119 
36.2491 -29.5328 9.00974 -43.795 -26.3174 9.00974 -46.4206 -20.7302 9.00974 
-38.1537 -26.3174 14.824 39.986 -26.3174 9.00974 36.2491 -26.3174 16.8226 
44.516 -22.5046 9.00974 -47.5146 -18.0505 9.00974 -46.4206 -18.0505 10.681 
49.2798 -18.0505 9.00974 52.783 -13.2322 9.00974 -49.8991 -9.7835 9.00974 
-46.4206 -9.7835 14.4109 54.8027 -9.7835 9.00974 52.783 -9.7835 14.8532 
-51.4819 -1.51653 9.00974 -46.4206 -1.51653 16.8135 56.9646 -1.51653 9.00974 
-52.0846 6.75043 9.00974 56.8525 6.75043 9.00974 -51.7943 15.0174 9.00974 
-46.4206 15.0174 16.2783 54.491 15.0174 9.00974 52.783 18.5659 9.00974 
52.783 15.0174 12.7418 -49.9523 23.2844 9.00974 -46.4206 30.0283 9.00974 
-46.4206 23.2844 13.403 50.0968 23.2844 9.00974 44.516 30.5467 9.00974 
44.516 23.2844 16.611 -45.2622 31.5513 9.00974 -38.1537 38.2525 9.00974 
-38.1537 31.5513 14.3216 -5.08579 31.5513 17.0756 3.18118 31.5513 15.6511 
11.4482 31.5513 15.8635 19.7151 31.5513 16.849 43.4088 31.5513 9.00974 
36.2491 36.7035 9.00974 36.2491 31.5513 15.19 -35.4991 39.8183 9.00974 
-29.8867 42.2575 9.00974 -29.8867 39.8183 11.6862 -21.6197 43.6869 9.00974 
-21.6197 39.8183 12.9816 -13.3528 43.5116 9.00974 -13.3528 39.8183 12.7294 
-5.08579 42.014 9.00974 -5.08579 39.8183 11.3549 3.18118 40.6824 9.00974 
3.18118 39.8183 9.81547 11.4482 40.5886 9.00974 11.4482 39.8183 9.76757 
19.7151 40.7799 9.00974 19.7151 39.8183 10.1118 28.0609 39.8183 9.00974 
27.9821 39.8451 9.00974 27.9821 39.8183 9.04442 -13.3528 -45.0061 17.2767 
-5.08579 -46.0205 17.2767 3.18118 -45.2231 17.2767 11.4482 -43.1595 17.2767 
-18.2646 -42.8514 17.2767 -21.6197 -40.0771 17.2767 -13.3528 -42.8514 19.0579 
-5.08579 -42.8514 20.2319 3.18118 -42.8514 19.7234 12.1649 -42.8514 17.2767 
[...]
POINT_DATA 530
SCALARS ImageScalars float
LOOKUP_TABLE default
0 0 0 0 0 0 0 0 0 
0 0 0 0 0 0 0 0 0 
0 0 0 0 0 0 0 0 0 
0 0 0 0 0 0 0 0 0 
0 0 0 0 0 0 0 0 0 
0 0 0 0 0 0 0 0 0 
0 0 0 0 0 0 0 0 0 
0 0 0 0 0 0 0 0 0 
0 0 0 0 0 0 0 0 0 
0 0 0 0 0 0 0 0 0 
0 0 0 0 0 0 0 0 0 
0 0 0 0 0 0 0 0 0 
0 0 0 0 0 0 0 0 0 
0 0 0 0 0 0 0 0 0 
0 0 0 0 0 0 0 0 0 
0 0 0 0 0 0 0 0 0 
0 0 0 0 0 0 0 0 0 
0 0 0 0 0 0 0 0 0 
0 0 0 0 0 0 0 0 0 
0 0 0 0 0 0 0 0 0 
0 0 0 0 0 0 0 0 0 
0 0 0 0 0 0 0 0 0 
0 0 0 0 0 0 0 0 0 
0 0 0 0 0 0 0 0 0 
0 0 0 0 0 0 0 0 0 
0 0 0 0 0 0 0 0 0 
0 0 0 0 0 0 0 0 0 
0 0 0 0 0 0 0 0 0 
0 0 0 0 0 0 0 0 0 
0 0 0 0 0 0 0 0 0 
0 0 0 0 0 0 0 0 0 
0 0 0 0 0 0 0 0 0 
0 0 0 0 0 0 0 0 0 
0 0 0 0 0 0 0 0 0 
0 0 0 0 0 0 0 0 0 
0 0 0 0 0 0 0 0 0 
0 0 0 0 0 0 0 0 0 
0 0 0 0 0 0 0 0 0 
0 0 0 0 0 0 0 0 0 
0 0 0 0 0 0 0 0 0 
0 0 0 0 0 0 0 0 0 
0 0 0 0 0 0 0 0 0 
0 0 0 0 0 0 0 0 0 
0 0 0 0 0 0 0 0 0 
0 0 0 0 0 0 0 0 0 
0 0 0 0 0 0 0 0 0 
0 0 0 0 0 0 0 0 0 
0 0 0 0 0 0 0 0 0 
0 0 0 0 0 0 0 0 0 
0 0 0 0 0 0 0 0 0 
0 0 0 0 0 0 0 0 0 
0 0 0 0 0 0 0 0 0 
0 0 0 0 0 0 0 0 0 
0 0 0 0 0 0 0 0 0 
0 0 0 0 0 0 0 0 0 
0 0 0 0 0 0 0 0 0 
0 0 0 0 0 0 0 0 0 
0 0 0 0 0 0 0 0 0 
0 0 0 0 0 0 0 0 
NORMALS Normals float
0.21695 0.611301 0.761081 0.0498929 0.59787 0.800039 -0.0558299 0.665182 0.744591 
-0.103065 0.726474 0.679421 -0.173903 0.802335 0.570979 0.338531 0.344662 0.875559 
0.175572 0.236402 0.955661 0.0631082 0.221266 0.973169 0.0143447 0.233049 0.972359 
-0.0531618 0.269419 0.961555 -0.0585474 0.332193 0.941393 -0.207592 0.432853 0.877237 
-0.448885 0.607339 0.655471 0.461383 0.268156 0.845706 0.238648 0.156537 0.958407 
0.0883543 0.0324986 0.995559 0.0339071 0.0050733 0.999412 0.00230489 -0.0170852 0.999851 
0.0120382 0.00902721 0.999887 -0.0106332 0.059984 0.998143 -0.0979572 0.0876385 0.991324 
-0.246911 0.290572 0.924448 -0.516491 0.493561 0.699739 0.711025 0.278408 0.645703 
0.321644 0.191117 0.927372 0.115097 0.0554955 0.991803 0.0237169 -0.0234906 0.999443 
0.0160841 -0.0421469 0.998982 0.0183949 -0.0216315 0.999597 0.0241095 -0.0321958 0.999191 
0.0299892 -0.0403174 0.998737 0.0344272 -0.00891243 0.999367 -0.0576671 0.080863 0.995056 
-0.317556 0.21748 0.922963 -0.581515 0.435617 0.687079 0.637169 0.187518 0.747564 
0.241324 0.137485 0.960656 0.0415755 0.0681334 0.99681 -0.00749847 0.0197431 0.999777 
0.0377081 0.056531 0.997688 0.0120851 0.0644265 0.997849 -0.00624449 -0.0307913 0.999506 
0.0126536 -0.0118769 0.999849 0.0234234 -0.0552885 0.998196 -0.00873907 -0.0217012 0.999726 
-0.149779 0.0662404 0.986498 -0.407334 0.215861 0.887402 0.57583 0.144097 0.804771 
0.195154 0.0878848 0.976827 0.00458556 0.0510593 0.998685 0.0114802 0.016768 0.999793 
0.0619259 -0.0330887 0.997532 -0.0742598 0.0034774 0.997233 -0.0494464 0.0240497 0.998487 
0.005513 0.0408173 0.999151 0.0244919 -0.00463306 0.999689 0.054052 0.00136864 0.998537 
-0.0947114 0.0224123 0.995252 -0.344319 0.0542895 0.937282 -0.724523 0.0919877 0.683085 
0.51222 0.0351078 0.858136 0.160107 0.015481 0.986978 -0.032975 0.00592416 0.999439 
-0.0889058 -0.0049046 0.996028 0.0248619 -0.0650205 0.997574 0.0671064 -0.0771857 0.994756 
0.0298679 0.00766147 0.999524 -0.0170548 -0.0210034 0.999634 -0.0157038 0.0174179 0.999725 
0.0193026 -0.0295783 0.999376 -0.101591 -0.0736792 0.992094 -0.333587 -0.102678 0.937111 
-0.733306 -0.119647 0.669288 0.515027 -0.0914105 0.852286 0.170278 -0.0483123 0.984211 
-0.0168383 -0.0131202 0.999772 -0.0627108 0.0543685 0.99655 -0.0125467 0.0854658 0.996262 
0.00607017 0.0028062 0.999978 0.00473997 -0.0520869 0.998631 0.0153137 -0.0873913 0.996056 
0.0157633 -0.0555167 0.998333 -0.0358805 -0.100528 0.994287 -0.16655 -0.154333 0.97388 
-0.410521 -0.251661 0.876435 0.566974 -0.25706 0.782599 0.233558 -0.140493 0.962139 
0.0698441 -0.0418428 0.99668 0.00908077 0.0172469 0.99981 -0.0262196 0.09018 0.99558 
-0.0701428 0.0304407 0.997072 -0.0595714 -0.00716116 0.998198 -0.0205889 -0.0784875 0.996702 
-0.0315611 -0.130793 0.990907 -0.0843305 -0.196952 0.97678 -0.241143 -0.277724 0.929903 
-0.546556 -0.418375 0.725424 0.374074 -0.363697 0.853108 0.130765 -0.212219 0.968433 
0.0694618 -0.150975 0.986094 -0.00138307 -0.0915467 0.9958 -0.0850045 -0.0959366 0.991751 
-0.104465 -0.11078 0.988339 -0.10698 -0.175036 0.978733 -0.0980381 -0.251577 0.962859 
-0.189184 -0.313152 0.930669 -0.408844 -0.501651 0.762361 0.296543 -0.569755 0.766448 
0.132401 -0.449646 0.883339 0.0215833 -0.416081 0.909071 -0.0850984 -0.403519 0.911005 
-0.117511 -0.42687 0.896645 -0.150878 -0.42137 0.89425 -0.184797 -0.519183 0.834446 
0.215898 0.684097 0.696706 0.0383801 0.747433 0.663227 -0.0808158 0.791192 0.606204 
-0.123228 0.8053 0.57992 -0.177355 0.827266 0.533082 0.333305 0.638997 0.693246 
0.399348 0.574452 0.714511 0.433733 0.685737 0.5845 -0.216034 0.821167 0.528218 
-0.314369 0.77778 0.54427 -0.352528 0.906457 0.232506 -0.476079 0.703381 0.52783 
0.537439 0.449987 0.713212 0.556125 0.423201 0.715281 0.61074 0.493241 0.619443 
-0.533158 0.6703 0.516179 -0.598867 0.599033 0.531524 0.596969 0.327794 0.732242 
0.711754 0.279315 0.644507 0.874144 0.383773 0.297642 -0.614366 0.566682 0.549023 
-0.627485 0.510135 0.588238 0.712208 0.278583 0.644322 -0.635387 0.472082 0.611083 
0.724913 0.204636 0.657743 -0.705231 0.287849 0.647913 -0.745363 0.148606 0.649885 
-0.819387 0.325505 0.47186 0.764331 0.161174 0.624356 -0.746473 0.0942273 0.65871 
0.790335 0.0619148 0.609539 0.985102 0.0758113 0.154357 -0.745371 -0.119499 0.655852 
-0.737189 -0.151872 0.658398 0.768762 -0.0951431 0.632418 0.976312 -0.0796076 0.201192 
-0.644785 -0.312279 0.697663 -0.79403 -0.330806 0.509985 0.698983 -0.292011 0.652803 
0.636165 -0.43813 0.635088 -0.575211 -0.427944 0.697134 -0.560996 -0.44069 0.700768 
0.611198 -0.471956 0.63537 0.674175 -0.500261 0.543348 0.475549 -0.607569 0.636171 
-0.32118 -0.619913 0.715927 -0.443602 -0.517106 0.731996 -0.428987 -0.529067 0.73216 
-0.696067 -0.623249 0.356443 0.446383 -0.636235 0.629243 0.505913 -0.678611 0.532484 
0.33323 -0.689679 0.642885 0.184087 -0.767251 0.61436 0.0231854 -0.825679 0.563664 
-0.0810129 -0.801698 0.592214 -0.0811404 -0.729956 0.678661 -0.150807 -0.693288 0.704705 
-0.308421 -0.621732 0.719948 -0.213606 -0.600036 0.770928 -0.329943 -0.643809 0.690397 
0.157895 -0.941502 0.297729 0.0231267 -0.919392 0.392663 -0.0582187 -0.951208 0.303008 
-0.0866719 -0.966533 0.241459 0.459993 0.849377 0.258777 0.197498 0.934968 0.294668 
-0.0527305 0.960773 0.272277 -0.0452224 0.998344 0.0355457 -0.153659 0.957613 0.24365 
-0.178153 0.962737 0.203466 -0.219051 0.961941 0.163359 -0.354784 0.927434 0.118299 
0.613799 0.749269 0.248689 0.694092 0.677768 0.242626 -0.388626 0.914921 0.109037 
-0.541372 0.838098 0.0671419 0.799104 0.555889 0.228953 0.886339 0.408688 0.217664 
-0.648267 0.759836 0.04898 -0.670034 0.740216 0.0559783 0.899274 0.377799 0.220394 
-0.703715 0.704572 0.0914537 -0.713755 0.692085 0.107574 0.941255 0.281117 0.187117 
-0.790631 0.586761 0.174968 -0.851719 0.48454 0.199489 0.959593 0.218255 0.177613 
-0.908584 0.35109 0.226297 0.973916 0.163514 0.157327 0.986881 0.0919616 0.132699 
-0.962084 0.12265 0.243622 0.988838 0.0757336 0.128315 0.997004 0.0704313 0.0319684 
-0.959716 -0.117519 0.255216 0.987406 -0.0797452 0.136641 0.979847 -0.141723 0.14076 
0.992951 -0.0599865 -0.102223 -0.911697 -0.329656 0.245226 -0.863382 -0.428967 0.265627 
0.941095 -0.2966 0.162383 -0.829622 -0.483305 0.279541 0.832669 -0.524857 0.176601 
0.752183 -0.636032 0.172292 -0.541244 -0.794044 0.276676 -0.722008 -0.625841 0.295003 
-0.70497 -0.644531 0.295967 0.640178 -0.748843 0.171483 0.539005 -0.824671 0.171439 
0.341294 -0.927876 0.150214 -0.136654 -0.988063 0.071107 -0.217925 -0.961361 0.168205 
-0.540957 -0.79432 0.276444 -0.374457 -0.898885 0.227567 -0.541063 -0.796834 0.268899 
0.287542 -0.948193 0.135094 0.132064 -0.985916 0.10261 0.00878544 -0.998327 0.0571559 
-0.0320593 -0.998621 0.0415655 -0.0773369 -0.958095 -0.275812 -0.134518 -0.988494 0.0691701 
-0.0886159 -0.995239 0.0405782 -0.0671866 -0.980172 -0.186409 -0.0436923 0.999033 -0.00483964 
0.4951 0.861623 -0.111722 0.0456349 0.998563 -0.0280801 0.217636 0.973274 -0.0732946 
-0.0621043 0.99807 0.000407629 -0.0306822 0.998527 -0.044741 -0.177572 0.983481 0.0351324 
-0.226811 0.973561 0.0271353 -0.27529 0.961263 -0.0137499 -0.415254 0.908158 -0.0530384 
0.654103 0.739728 -0.157961 0.723671 0.669013 -0.169476 -0.440027 0.895724 -0.0636791 
-0.444582 0.882274 -0.154724 -0.58463 0.797774 -0.147527 0.819075 0.543978 -0.182221 
0.89163 0.419084 -0.171361 -0.623822 0.764106 -0.16428 -0.643696 0.749567 -0.154289 
0.905505 0.390593 -0.165826 0.881459 0.399331 -0.252122 -0.668489 0.732933 -0.126223 
-0.677457 0.727823 -0.106419 0.952531 0.271272 -0.138187 -0.765489 0.640744 -0.0589431 
-0.839252 0.541902 -0.044699 0.972018 0.19753 -0.127135 -0.925069 0.378918 -0.0258475 
0.981005 0.135731 -0.138588 -0.991558 0.126368 -0.0290558 0.98504 0.0577018 -0.16238 
-0.990985 -0.128367 -0.0383577 0.979959 -0.0526192 -0.192126 -0.946952 -0.31696 -0.053088 
-0.887136 -0.458168 -0.0554132 0.947022 -0.267631 -0.177545 -0.873196 -0.483948 -0.0576432 
0.820238 -0.532706 -0.208409 0.747005 -0.629124 -0.21491 0.710087 -0.547559 -0.442669 
-0.762997 -0.64228 -0.072881 -0.722255 -0.686968 -0.0801455 -0.676113 -0.666915 -0.313203 
0.620436 -0.753365 -0.217945 0.527878 -0.823708 -0.207003 0.514344 -0.719929 -0.465997 
0.291403 -0.919142 -0.265071 -0.0896613 -0.923419 -0.373173 -0.046571 -0.902026 -0.429162 
-0.0363798 -0.927529 -0.371975 -0.13828 -0.935036 -0.326475 -0.304968 -0.921363 -0.241008 
-0.503174 -0.852267 -0.14303 -0.483455 -0.862523 -0.149415 -0.472808 -0.858462 -0.198732 
0.109959 -0.950744 -0.289817 0.0924354 -0.952052 -0.291637 0.0913363 -0.949019 -0.301697 
-0.0559085 -0.938513 -0.340688 -0.0334661 -0.946672 -0.320458 -0.0356798 -0.939118 -0.341737 
0.529894 0.695432 -0.485373 0.308253 0.844898 -0.437181 0.0577736 0.950438 -0.305499 
-0.120514 0.972033 -0.201564 -0.22795 0.961504 -0.153456 -0.302419 0.939206 -0.162585 
0.557314 0.667417 -0.493918 0.679729 0.523241 -0.513991 0.533401 0.65583 -0.534201 
0.386123 0.582856 -0.714974 -0.441254 0.876083 -0.194351 -0.455651 0.867959 -0.197559 
-0.613399 0.753397 -0.236927 0.68919 0.509783 -0.514915 0.674359 0.506084 -0.537698 
0.44458 0.369871 -0.815809 -0.620421 0.747081 -0.238638 -0.589475 0.719365 -0.367469 
-0.62659 0.745962 -0.225668 0.758836 0.404908 -0.510115 0.820063 0.351826 -0.451348 
0.54528 0.362141 -0.755992 -0.631732 0.74911 -0.199369 -0.529652 0.707125 -0.468447 
-0.647406 0.739474 -0.184507 0.84147 0.320029 -0.435327 0.802774 0.327285 -0.498436 
-0.722302 0.659455 -0.208324 -0.849507 0.484751 -0.208217 0.887857 0.217559 -0.405435 
0.743087 0.225871 -0.629924 -0.903875 0.373504 -0.208579 -0.841219 0.362646 -0.401047 
0.91666 0.126717 -0.379049 0.694232 0.118907 -0.709861 -0.963557 0.110188 -0.243753 
0.92149 0.0186449 -0.387954 -0.950142 -0.144001 -0.276576 0.886766 -0.109051 -0.44917 
0.664718 -0.164133 -0.728842 -0.893665 -0.343562 -0.288666 -0.855931 -0.412698 -0.311547 
-0.829571 -0.36447 -0.423053 0.810646 -0.319568 -0.490642 0.701394 -0.5025 -0.50551 
0.681051 -0.328187 -0.654571 -0.782796 -0.509415 -0.357388 -0.64646 -0.645995 -0.405932 
-0.540783 -0.510869 -0.668256 0.660536 -0.542772 -0.51874 0.488371 -0.660593 -0.570185 
0.410358 -0.52842 -0.743222 -0.125016 -0.405549 -0.905484 -0.0613122 -0.485321 -0.872184 
0.0601265 -0.503188 -0.862082 0.0788608 -0.538592 -0.838868 -0.611636 -0.669689 -0.421209 
-0.401248 -0.773452 -0.490686 -0.341318 -0.641591 -0.686923 0.41244 -0.704517 -0.577537 
0.238878 -0.770278 -0.591278 0.231168 -0.697102 -0.678682 0.0625256 -0.776178 -0.627406 
0.0462801 -0.659056 -0.750669 -0.0777482 -0.763037 -0.641662 -0.0710416 -0.651921 -0.754951 
-0.133122 -0.73404 -0.665931 -0.140656 -0.667681 -0.731039 -0.064893 -0.686166 -0.724545 
-0.0675874 -0.663403 -0.745204 0.00552863 -0.712983 -0.70116 0.0129762 -0.695632 -0.718281 
-0.0397973 -0.773342 -0.632739 -0.0269215 -0.751219 -0.659504 -0.19165 -0.814463 -0.54765 
-0.189878 -0.814575 -0.5481 -0.189637 -0.814035 -0.548985 0.208019 0.634716 -0.74422 
0.00711641 0.757551 -0.652737 -0.155963 0.797914 -0.582244 -0.301766 0.786186 -0.539304 
0.320327 0.549548 -0.771614 0.366567 0.469968 -0.802969 0.215847 0.528342 -0.821136 
0.0418349 0.57199 -0.819193 -0.125823 0.676935 -0.725209 -0.313624 0.782101 -0.538478 
-0.297258 0.773559 -0.559683 -0.426732 0.719218 -0.548293 0.402281 0.343212 -0.848749 
0.40166 0.313667 -0.860396 0.314847 0.280542 -0.906734 0.196985 0.22852 -0.953402 
0.129529 0.196599 -0.971891 8.76455e-05 0.249753 -0.96831 -0.158504 0.369995 -0.915413 
-0.513935 0.671263 -0.534112 -0.364744 0.553159 -0.748984 -0.533439 0.664857 -0.522884 
0.414997 0.287239 -0.863291 0.449048 0.295518 -0.843223 0.343073 0.239179 -0.908347 
0.240189 0.115516 -0.963828 0.15212 0.0827306 -0.984894 0.103627 0.0485147 -0.993432 
0.0810667 0.0689181 -0.994323 0.00609436 0.155811 -0.987768 -0.143082 0.281753 -0.948759 
-0.521096 0.700555 -0.487526 -0.357644 0.477547 -0.802521 -0.521622 0.700708 -0.486743 
-0.635987 0.605371 -0.478588 0.470485 0.285299 -0.835014 0.422732 0.27899 -0.862242 
0.22906 0.20318 -0.951971 0.155469 0.0778046 -0.984772 0.139274 0.032636 -0.989716 
0.126501 0.0420929 -0.991073 0.12021 0.0567726 -0.991124 -0.334927 0.406009 -0.850283 
-0.655079 0.578736 -0.485732 -0.616067 0.562788 -0.551118 0.581041 0.226203 -0.781808 
0.377715 0.214577 -0.900715 0.119865 0.150947 -0.981248 0.0807008 0.0738703 -0.993997 
0.119379 0.00465795 -0.992838 0.125931 -0.0984798 -0.987139 -0.786443 0.349476 -0.509288 
-0.440251 0.256235 -0.860536 -0.823611 0.21053 -0.526632 0.66461 0.119157 -0.737628 
0.678697 0.0300664 -0.733802 0.330319 0.0942063 -0.939156 0.0919093 0.0838977 -0.992227 
0.00442115 0.0584708 -0.998279 -0.0344689 -0.00713588 -0.99938 -0.0024589 -0.0777466 -0.99697 
0.167091 -0.140347 -0.975901 0.135438 -0.140024 -0.980841 -0.37784 0.00941423 -0.925823 
-0.831636 0.0650897 -0.551494 -0.797635 0.0598804 -0.600161 0.679371 -0.022612 -0.733446 
0.668539 -0.0522606 -0.741838 0.671323 -0.0232612 -0.7408 0.321068 -0.0106675 -0.946996 
0.0916476 -0.020101 -0.995589 -0.00826153 -0.0349144 -0.999356 -0.0139097 -0.0691013 -0.997513 
0.000990109 0.00322085 -0.999994 0.0540271 -0.0158938 -0.998413 0.0841307 -0.133445 -0.987479 
0.0829631 -0.119442 -0.989369 -0.397027 -0.171143 -0.901709 -0.793441 -0.173358 -0.583436 
-0.784656 -0.199757 -0.586866 -0.780092 -0.174326 -0.600889 0.602756 -0.170853 -0.779419 
0.337251 -0.183541 -0.92335 0.0616061 -0.180803 -0.981588 -0.043286 -0.172478 -0.984062 
-0.000424856 -0.194334 -0.980935 0.0551939 -0.21883 -0.974201 0.018804 -0.233635 -0.972143 
0.0394787 -0.243686 -0.96905 0.0811288 -0.214417 -0.973367 0.00276712 -0.221151 -0.975236 
-0.169786 -0.297078 -0.939637 -0.668599 -0.372612 -0.643534 -0.522752 -0.492375 -0.695915 
-0.439795 -0.35179 -0.826332 0.447243 -0.338597 -0.827844 0.353752 -0.414906 -0.83828 
0.328229 -0.346947 -0.878574 0.100741 -0.307948 -0.946055 -0.0215596 -0.263455 -0.964431 
-0.056826 -0.251908 -0.966081 -0.119548 -0.396978 -0.910009 -0.0428714 -0.320403 -0.946311 
-0.0370734 -0.446232 -0.894149 0.0078672 -0.409961 -0.912069 0.0740382 -0.464869 -0.882279 
0.0959041 -0.402022 -0.910594 0.0837683 -0.522163 -0.848722 0.10577 -0.377285 -0.920038 
-0.0239286 -0.389972 -0.920516 -0.497371 -0.501267 -0.708063 -0.300582 -0.562039 -0.77056 
-0.254284 -0.434241 -0.864161 0.192766 -0.444853 -0.874613 0.175734 -0.447049 -0.877078 
0.173128 -0.43626 -0.883008 0.0256507 -0.438816 -0.898211 0.0215855 -0.398326 -0.91699 
-0.109207 -0.397225 -0.911201 -0.0536289 -0.408696 -0.911094 -0.0550387 -0.373338 -0.926061 
-0.0245807 -0.56776 -0.822827 -0.0772162 -0.580876 -0.810322 -0.0591215 -0.579663 -0.812709 
-0.0576998 -0.575815 -0.815542 0.0188916 0.138197 -0.990225 -0.100032 0.209338 -0.972713 
-0.15355 0.2234 -0.962556 0.113308 0.0598162 -0.991758 0.119911 -0.00331343 -0.992779 
0.0656022 0.0796994 -0.994658 -0.0433058 0.104091 -0.993625 -0.157663 0.225359 -0.961434 
-0.146807 0.214921 -0.965534 -0.18892 0.192311 -0.962978 0.120108 -0.107582 -0.986914 
0.122938 -0.113384 -0.985916 0.118392 -0.10919 -0.986945 0.123532 -0.129276 -0.983884 
0.0553274 -0.062492 -0.996511 0.000220618 -0.0407657 -0.999169 -0.0401396 0.0527555 -0.9978 
-0.210582 0.160327 -0.964339 -0.154691 0.136951 -0.978425 0.111286 -0.126228 -0.985739 
0.0771441 -0.10902 -0.991042 0.0738673 -0.104072 -0.991823 0.0352095 -0.0565098 -0.997781 
-0.232907 0.00622987 -0.972479 -0.118958 0.00250959 -0.992896 0.0716742 -0.124846 -0.989584 
0.0606367 -0.138125 -0.988557 0.0680455 -0.126217 -0.989666 -0.170933 -0.152581 -0.973397 
-0.109461 -0.183459 -0.976914 -0.0917128 -0.144628 -0.985227 
