# vtk DataFile Version 4.2
vtk output
ASCII
DATASET POLYDATA
POINTS 548 float
3.99721 -40.0394 -11.9132 12.19 -40.0394 -11.8433 -45.1597 -31.8465 -12.0618 
-36.9669 -31.8465 -12.8116 -28.7741 -31.8465 -14.5177 -20.5812 -31.8465 -14.3895 
-12.3884 -31.8465 -13.8759 -4.1956 -31.8465 -14.0047 3.99721 -31.8465 -14.2631 
12.19 -31.8465 -15.2511 20.3828 -31.8465 -15.4157 28.5757 -31.8465 -14.5003 
36.7685 -31.8465 -13.2508 -53.3525 -23.6537 -11.8156 -45.1597 -23.6537 -13.3455 
-36.9669 -23.6537 -14.647 -28.7741 -23.6537 -16.0922 -20.5812 -23.6537 -15.598 
-12.3884 -23.6537 -14.799 -4.1956 -23.6537 -14.4609 3.99721 -23.6537 -15.162 
12.19 -23.6537 -16.0004 20.3828 -23.6537 -16.9835 28.5757 -23.6537 -16.9137 
36.7685 -23.6537 -16.7249 44.9613 -23.6537 -15.4528 53.1541 -23.6537 -12.3 
-53.3525 -15.4609 -11.991 -45.1597 -15.4609 -14.8138 -36.9669 -15.4609 -15.5309 
-28.7741 -15.4609 -15.8787 -20.5812 -15.4609 -15.9 -12.3884 -15.4609 -15.5988 
-4.1956 -15.4609 -15.9047 3.99721 -15.4609 -15.5719 12.19 -15.4609 -15.7711 
20.3828 -15.4609 -16.8097 28.5757 -15.4609 -17.6008 36.7685 -15.4609 -17.4485 
44.9613 -15.4609 -16.9101 53.1541 -15.4609 -15.3055 61.3469 -15.4609 -12.1057 
-53.3525 -7.26809 -13.0583 -45.1597 -7.26809 -14.8091 -36.9669 -7.26809 -15.6948 
-28.7741 -7.26809 -15.6083 -20.5812 -7.26809 -15.0538 -12.3884 -7.26809 -16.9011 
-4.1956 -7.26809 -17.2014 3.99721 -7.26809 -18.2775 12.19 -7.26809 -16.2177 
20.3828 -7.26809 -15.8514 28.5757 -7.26809 -16.7918 36.7685 -7.26809 -17.4285 
44.9613 -7.26809 -17.4601 53.1541 -7.26809 -17.4857 61.3469 -7.26809 -14.3235 
-53.3525 0.924725 -13.294 -45.1597 0.924725 -14.7403 -36.9669 0.924725 -15.4775 
-28.7741 0.924725 -14.8829 -20.5812 0.924725 -14.1798 -12.3884 0.924725 -19.6406 
-4.1956 0.924725 -15.2336 3.99721 0.924725 -16.0051 12.19 0.924725 -17.5625 
20.3828 0.924725 -15.1727 28.5757 0.924725 -16.4269 36.7685 0.924725 -17.3205 
44.9613 0.924725 -17.4718 53.1541 0.924725 -17.6175 61.3469 0.924725 -12.7394 
-53.3525 9.11754 -12.5298 -45.1597 9.11754 -15.1191 -36.9669 9.11754 -14.8901 
-28.7741 9.11754 -14.2957 -20.5812 9.11754 -13.2198 -12.3884 9.11754 -15.0761 
-4.1956 9.11754 -18.0418 3.99721 9.11754 -17.5985 12.19 9.11754 -15.5203 
20.3828 9.11754 -15.6111 28.5757 9.11754 -16.8369 36.7685 9.11754 -17.5801 
44.9613 9.11754 -17.5727 53.1541 9.11754 -18.0139 61.3469 9.11754 -14.51 
-53.3525 17.3104 -13.1927 -45.1597 17.3104 -14.2996 -36.9669 17.3104 -14.05 
-28.7741 17.3104 -14.3124 -20.5812 17.3104 -14.5324 -12.3884 17.3104 -15.3648 
-4.1956 17.3104 -15.6418 3.99721 17.3104 -15.7338 12.19 17.3104 -16.5459 
20.3828 17.3104 -16.9668 28.5757 17.3104 -17.981 36.7685 17.3104 -17.7591 
44.9613 17.3104 -17.2903 53.1541 17.3104 -17.4181 61.3469 17.3104 -12.5147 
-36.9669 25.5032 -14.3153 -28.7741 25.5032 -15.0219 -20.5812 25.5032 -16.3624 
-12.3884 25.5032 -16.9829 -4.1956 25.5032 -16.322 3.99721 25.5032 -15.8305 
12.19 25.5032 -16.8682 20.3828 25.5032 -17.9276 28.5757 25.5032 -17.6725 
36.7685 25.5032 -17.8108 44.9613 25.5032 -16.6997 53.1541 25.5032 -13.3558 
-36.9669 33.696 -11.9855 -28.7741 33.696 -14.9004 -20.5812 33.696 -16.5679 
-12.3884 33.696 -16.9544 -4.1956 33.696 -15.5251 3.99721 33.696 -15.1708 
12.19 33.696 -15.8916 20.3828 33.696 -16.7937 28.5757 33.696 -16.7051 
36.7685 33.696 -15.7102 44.9613 33.696 -13.0488 -28.7741 41.8888 -12.323 
-20.5812 41.8888 -15.0853 -12.3884 41.8888 -15.2893 -4.1956 41.8888 -13.8241 
3.99721 41.8888 -13.1413 12.19 41.8888 -13.758 20.3828 41.8888 -13.4066 
28.5757 41.8888 -12.7663 36.7685 41.8888 -11.7478 3.99721 -40.3101 -11.7395 
12.19 -40.1798 -11.7395 -45.1597 -32.3252 -11.7395 -36.9669 -34.298 -11.7395 
-36.9669 -40.0394 -7.90614 -28.7741 -37.1155 -11.7395 -28.7741 -40.0394 -9.43736 
-20.5812 -38.0647 -11.7395 -20.5812 -40.0394 -10.7359 -12.3884 -38.3557 -11.7395 
-12.3884 -40.0394 -11.0893 1.33167 -40.0394 -11.7395 -4.1956 -38.9953 -11.7395 
-4.1956 -40.0394 -11.314 12.9425 -40.0394 -11.7395 20.3828 -38.1943 -11.7395 
20.3828 -40.0394 -10.2433 28.5757 -36.0763 -11.7395 28.5757 -40.0394 -7.03771 
36.7685 -33.9784 -11.7395 -45.7701 -31.8465 -11.7395 -53.3525 -23.8036 -11.7395 
-53.3525 -31.8465 -5.40096 42.0908 -31.8465 -11.7395 44.9613 -30.5655 -11.7395 
44.9613 -31.8465 -10.7152 53.1541 -24.81 -11.7395 53.1541 -31.8465 -5.58878 
-53.4768 -23.6537 -11.7395 -61.5453 -23.6537 -5.14277 54.3517 -23.6537 -11.7395 
61.3469 -16.4603 -11.7395 61.3469 -23.6537 -6.99403 -54.0791 -15.4609 -11.7395 
-61.5453 -15.4609 -8.98818 61.8644 -15.4609 -11.7395 -57.8 -7.26809 -11.7395 
-61.5453 -7.26809 -10.2684 65.0166 -7.26809 -11.7395 69.5397 -7.26809 -5.72842 
-61.1213 0.924725 -11.7395 -61.5453 0.924725 -11.6132 63.0049 0.924725 -11.7395 
69.5397 0.924725 -5.7067 -56.0387 9.11754 -11.7395 -61.5453 9.11754 -9.32664 
65.3839 9.11754 -11.7395 69.5397 9.11754 -5.35325 -56.0233 17.3104 -11.7395 
-61.5453 17.3104 -6.7935 -53.3525 21.1562 -11.7395 -45.1597 24.2221 -11.7395 
62.4132 17.3104 -11.7395 61.3469 19.7275 -11.7395 -53.3525 25.5032 -9.23794 
-44.1266 25.5032 -11.7395 -45.1597 25.5032 -11.3326 56.4468 25.5032 -11.7395 
53.1541 29.8033 -11.7395 61.3469 25.5032 -6.9427 -38.1478 33.696 -11.7395 
-45.1597 33.696 -10.1204 -36.9669 35.2145 -11.7395 48.6133 33.696 -11.7395 
44.9613 35.6322 -11.7395 53.1541 33.696 -7.4439 -31.4943 41.8888 -11.7395 
-36.9669 41.8888 -10.1645 -28.7741 42.9243 -11.7395 -20.5812 47.8442 -11.7395 
-12.3884 47.7779 -11.7395 -4.1956 45.3844 -11.7395 3.99721 44.2248 -11.7395 
12.19 44.4727 -11.7395 20.3828 44.0635 -11.7395 28.5757 42.8485 -11.7395 
36.7877 41.8888 -11.7395 36.7685 41.8965 -11.7395 -20.5812 50.0816 -7.71916 
-12.3884 50.0816 -6.67708 -36.9669 -42.5951 -3.54673 -28.7741 -45.0869 -3.54673 
-20.5812 -46.9797 -3.54673 -12.3884 -47.6045 -3.54673 -4.1956 -47.5476 -3.54673 
3.99721 -47.1082 -3.54673 12.19 -46.1398 -3.54673 20.3828 -44.4417 -3.54673 
28.5757 -41.8958 -3.54673 -53.3525 -33.502 -3.54673 -42.4519 -40.0394 -3.54673 
-45.1597 -38.6922 -3.54673 35.2987 -40.0394 -3.54673 36.7685 -39.6117 -3.54673 
44.9613 -37.6707 -3.54673 53.1541 -32.9292 -3.54673 -55.2739 -31.8465 -3.54673 
-61.5453 -25.576 -3.54673 54.9054 -31.8465 -3.54673 61.3469 -26.6316 -3.54673 
-62.9848 -23.6537 -3.54673 64.0306 -23.6537 -3.54673 -66.845 -15.4609 -3.54673 
68.2708 -15.4609 -3.54673 69.5397 -11.5281 -3.54673 -68.2021 -7.26809 -3.54673 
70.8526 -7.26809 -3.54673 -69.2576 0.924725 -3.54673 -69.7381 0.924725 3.53139 
70.7921 0.924725 -3.54673 69.5397 0.924725 3.35896 -66.5434 9.11754 -3.54673 
70.4754 9.11754 -3.54673 69.5397 11.8166 -3.54673 69.5397 9.11754 -0.266121 
-64.3717 17.3104 -3.54673 -61.5453 22.4508 -3.54673 67.6352 17.3104 -3.54673 
-59.5902 25.5032 -3.54673 -53.3525 32.5893 -3.54673 63.0446 25.5032 -3.54673 
61.3469 27.6783 -3.54673 61.3469 25.5032 0.112133 -52.2834 33.696 -3.54673 
-45.1597 39.9419 -3.54673 44.9613 39.2103 -3.54673 54.9551 33.696 -3.54673 
53.1541 34.9014 -3.54673 53.1541 33.696 -1.30896 -42.7903 41.8888 -3.54673 
-36.9669 45.9903 -3.54673 -28.7741 49.8222 -3.54673 -4.1956 49.7424 -3.54673 
3.99721 48.7946 -3.54673 12.19 48.3444 -3.54673 20.3828 47.5223 -3.54673 
28.5757 45.3868 -3.54673 28.5757 41.8888 2.3063 38.7938 41.8888 -3.54673 
36.7685 42.7729 -3.54673 36.7685 41.8888 -2.06449 -27.5819 50.0816 -3.54673 
-20.5812 51.4301 -3.54673 -20.5812 50.0816 1.45726 -6.40707 50.0816 -3.54673 
-12.3884 50.9795 -3.54673 -12.3884 50.0816 -0.426709 -36.9669 -42.0354 4.64609 
-28.7741 -44.2337 4.64609 -20.5812 -46.9327 4.64609 -12.3884 -48.0578 4.64609 
-4.1956 -47.9585 4.64609 3.99721 -47.2402 4.64609 12.19 -46.1693 4.64609 
20.3828 -44.2935 4.64609 28.5757 -42.1077 4.64609 -53.3525 -34.1204 4.64609 
-41.6636 -40.0394 4.64609 -45.1597 -38.1021 4.64609 -36.9669 -40.0394 7.60875 
-28.7741 -40.0394 8.85197 -20.5812 -40.0394 12.0029 20.3828 -40.0394 12.3241 
35.973 -40.0394 4.64609 28.5757 -40.0394 8.94276 36.7685 -39.7981 4.64609 
44.9613 -37.5378 4.64609 53.1541 -32.988 4.64609 -56.3314 -31.8465 4.64609 
-61.5453 -27.0778 4.64609 -53.3525 -31.8465 8.17619 -45.1597 -31.8465 12.4964 
44.9613 -31.8465 11.8266 54.8244 -31.8465 4.64609 53.1541 -31.8465 6.82118 
61.3469 -26.2386 4.64609 -64.3592 -23.6537 4.64609 -61.5453 -23.6537 9.2062 
53.1541 -23.6537 12.5075 63.8296 -23.6537 4.64609 61.3469 -23.6537 7.637 
-68.7894 -15.4609 4.64609 66.7024 -15.4609 4.64609 61.3469 -15.4609 10.6325 
69.5397 -9.59329 4.64609 -69.5979 -7.26809 4.64609 -69.7381 -1.58233 4.64609 
70.2574 -7.26809 4.64609 69.5397 -0.916863 4.64609 69.5397 -7.26809 5.77261 
-69.788 0.924725 4.64609 -69.7381 1.12106 4.64609 -69.7381 0.924725 4.72787 
69.1784 0.924725 4.64609 61.3469 0.924725 11.8989 -66.8518 9.11754 4.64609 
-61.5453 9.11754 10.3744 67.455 9.11754 4.64609 61.3469 9.11754 9.84891 
-64.2462 17.3104 4.64609 -61.5453 22.1456 4.64609 -61.5453 17.3104 7.46827 
-53.3525 17.3104 10.7099 12.19 17.3104 12.5164 53.1541 17.3104 12.6902 
64.9652 17.3104 4.64609 61.3469 22.6352 4.64609 61.3469 17.3104 7.87662 
-59.3836 25.5032 4.64609 -53.3525 32.4365 4.64609 -53.3525 25.5032 10.1217 
-45.1597 25.5032 11.9208 12.19 25.5032 11.5788 20.3828 25.5032 10.5506 
28.5757 25.5032 10.4786 36.7685 25.5032 10.5101 44.9613 25.5032 9.54507 
57.1395 25.5032 4.64609 53.1541 28.4638 4.64609 53.1541 25.5032 6.84488 
-51.593 33.696 4.64609 -45.1597 38.7978 4.64609 -45.1597 33.696 9.70638 
-36.9669 33.696 12.0645 -4.1956 33.696 12.241 3.99721 33.696 11.2911 
12.19 33.696 9.85208 20.3828 33.696 8.43558 28.5757 38.9827 4.64609 
28.5757 33.696 7.80588 36.7685 37.4655 4.64609 36.7685 33.696 7.5689 
47.467 33.696 4.64609 44.9613 35.2286 4.64609 44.9613 33.696 5.89754 
-41.5515 41.8888 4.64609 -36.9669 44.5573 4.64609 -36.9669 41.8888 7.89094 
-28.7741 47.0192 4.64609 -28.7741 41.8888 9.51194 -20.5812 48.8477 4.64609 
-20.5812 41.8888 10.0861 -12.3884 48.024 4.64609 -12.3884 41.8888 9.58598 
-4.1956 46.6579 4.64609 -4.1956 41.8888 8.68244 3.99721 45.2864 4.64609 
3.99721 41.8888 7.54212 12.19 43.4005 4.64609 12.19 41.8888 5.9393 
[...]
POINT_DATA 548
SCALARS ImageScalars float
LOOKUP_TABLE default
0 0 0 0 0 0 0 0 0 
0 0 0 0 0 0 0 0 0 
0 0 0 0 0 0 0 0 0 
0 0 0 0 0 0 0 0 0 
0 0 0 0 0 0 0 0 0 
0 0 0 0 0 0 0 0 0 
0 0 0 0 0 0 0 0 0 
0 0 0 0 0 0 0 0 0 
0 0 0 0 0 0 0 0 0 
0 0 0 0 0 0 0 0 0 
0 0 0 0 0 0 0 0 0 
0 0 0 0 0 0 0 0 0 
0 0 0 0 0 0 0 0 0 
0 0 0 0 0 0 0 0 0 
0 0 0 0 0 0 0 0 0 
0 0 0 0 0 0 0 0 0 
0 0 0 0 0 0 0 0 0 
0 0 0 0 0 0 0 0 0 
0 0 0 0 0 0 0 0 0 
0 0 0 0 0 0 0 0 0 
0 0 0 0 0 0 0 0 0 
0 0 0 0 0 0 0 0 0 
0 0 0 0 0 0 0 0 0 
0 0 0 0 0 0 0 0 0 
0 0 0 0 0 0 0 0 0 
0 0 0 0 0 0 0 0 0 
0 0 0 0 0 0 0 0 0 
0 0 0 0 0 0 0 0 0 
0 0 0 0 0 0 0 0 0 
0 0 0 0 0 0 0 0 0 
0 0 0 0 0 0 0 0 0 
0 0 0 0 0 0 0 0 0 
0 0 0 0 0 0 0 0 0 
0 0 0 0 0 0 0 0 0 
0 0 0 0 0 0 0 0 0 
0 0 0 0 0 0 0 0 0 
0 0 0 0 0 0 0 0 0 
0 0 0 0 0 0 0 0 0 
0 0 0 0 0 0 0 0 0 
0 0 0 0 0 0 0 0 0 
0 0 0 0 0 0 0 0 0 
0 0 0 0 0 0 0 0 0 
0 0 0 0 0 0 0 0 0 
0 0 0 0 0 0 0 0 0 
0 0 0 0 0 0 0 0 0 
0 0 0 0 0 0 0 0 0 
0 0 0 0 0 0 0 0 0 
0 0 0 0 0 0 0 0 0 
0 0 0 0 0 0 0 0 0 
0 0 0 0 0 0 0 0 0 
0 0 0 0 0 0 0 0 0 
0 0 0 0 0 0 0 0 0 
0 0 0 0 0 0 0 0 0 
0 0 0 0 0 0 0 0 0 
0 0 0 0 0 0 0 0 0 
0 0 0 0 0 0 0 0 0 
0 0 0 0 0 0 0 0 0 
0 0 0 0 0 0 0 0 0 
0 0 0 0 0 0 0 0 0 
0 0 0 0 0 0 0 0 0 
0 0 0 0 0 0 0 0 
NORMALS Normals float
0.0284537 0.462004 0.886421 -0.0688099 0.571665 0.817596 0.305351 0.409122 0.859872 
0.172226 0.317282 0.932561 0.0774668 0.321629 0.943691 -0.039212 0.250305 0.967373 
-0.0217468 0.192633 0.98103 0.0227234 0.180312 0.983347 0.0796258 0.192954 0.977972 
0.0667953 0.233674 0.970018 -0.0403846 0.344023 0.938092 -0.119088 0.417939 0.900636 
-0.191219 0.517345 0.83414 0.409461 0.28019 0.868237 0.192845 0.19835 0.960972 
0.150979 0.143436 0.978075 0.0563557 0.0911499 0.994241 -0.0775288 0.0884895 0.993055 
-0.0677966 0.101964 0.992475 0.0220142 0.109457 0.993748 0.0934684 0.0765709 0.992673 
0.109463 0.0338649 0.993414 0.0565689 0.0750756 0.995572 -0.0146826 0.174292 0.984585 
-0.0956005 0.238969 0.96631 -0.220856 0.291776 0.930639 -0.399721 0.372795 0.837405 
0.33319 0.0699575 0.940261 0.193954 0.0759677 0.978065 0.068983 0.0630286 0.995625 
0.0222787 -0.0289764 0.999332 -0.0169791 -0.0328845 0.999315 -0.00138136 0.120962 0.992656 
-0.000247065 0.166091 0.98611 -0.00662295 0.185831 0.982559 0.0743502 0.00973941 0.997185 
0.11413 -0.069075 0.991062 0.0382466 -0.00731116 0.999242 -0.0410566 0.0395891 0.998372 
-0.115799 0.125023 0.985373 -0.298533 0.267956 0.916012 -0.484263 0.301909 0.821182 
0.236239 0.0761795 0.968704 0.147187 -0.00433939 0.989099 0.0486931 -0.0033337 0.998808 
-0.0386793 -0.0605953 0.997413 0.0705246 -0.105455 0.99192 0.13465 0.181141 0.974196 
0.0896455 -0.00904369 0.995933 -0.0576142 0.0607354 0.99649 -0.151184 0.0976424 0.983671 
0.037761 -0.10005 0.994266 0.0959009 -0.0732138 0.992695 0.0404944 -0.00780588 0.999149 
0.00332329 0.0335846 0.99943 -0.208683 0.119397 0.970668 -0.46469 0.0534513 0.883859 
0.163217 -0.0316121 0.986084 0.119705 0.0214047 0.992579 0.00857232 -0.0490258 0.998761 
-0.0776677 -0.0796583 0.993792 0.147071 -0.116046 0.982295 0.185325 5.86356e-05 0.982677 
-0.157313 0.0709231 0.984999 0.143114 -0.0468095 0.988599 -0.0945754 -0.0586731 0.993787 
-0.0335315 -0.0146909 0.99933 0.130323 0.0027619 0.991468 0.0632595 0.00922599 0.997954 
0.0171376 0.00686071 0.99983 -0.242905 0.0263427 0.969692 -0.497875 0.0118441 0.867168 
0.314029 0.00843761 0.949376 0.123739 -0.0204426 0.992104 -0.0522972 -0.0864792 0.99488 
-0.101072 -0.0345851 0.994278 -0.00352145 0.0166718 0.999855 0.347167 -0.171018 0.922078 
0.0814552 -0.0359936 0.996027 -0.152255 -0.044126 0.987356 -0.122167 -0.0326277 0.991973 
0.0809301 0.110664 0.990557 0.119122 0.0941227 0.988408 0.0447029 0.0267501 0.998642 
0.0221858 -0.0107486 0.999696 -0.203498 -0.00773748 0.979045 -0.46858 -0.0313521 0.882864 
0.334519 -0.141822 0.931656 0.0753763 -0.238519 0.968208 0.00247638 -0.0329208 0.999455 
0.028202 0.0433709 0.998661 0.0655604 0.196985 0.978212 0.0644999 0.110021 0.991834 
0.022319 -0.0943969 0.995284 0.0555989 -0.104845 0.992933 0.0733658 0.0792277 0.994153 
0.0872341 0.142038 0.98601 0.0481308 0.0508004 0.997548 -0.0411093 0.0138355 0.999059 
-0.0232378 -0.0609019 0.997873 -0.334617 -0.252692 0.907843 -0.558354 -0.255771 0.789191 
0.195891 -0.0960696 0.975909 0.13201 0.0366489 0.990571 0.11684 0.113673 0.986624 
9.09396e-05 0.0956152 0.995418 -0.0725706 -0.00651343 0.997342 0.0333173 -0.0338698 0.998871 
0.130566 -0.0387876 0.990681 0.0473403 -0.0153439 0.998761 -0.00818304 -0.0723708 0.997344 
-0.0755702 -0.139124 0.987387 -0.215722 -0.185499 0.958673 -0.419224 -0.365977 0.83085 
0.271461 -0.240979 0.931793 0.242758 -0.125179 0.961977 0.121081 -0.0805107 0.989372 
-0.0640182 -0.109622 0.99191 -0.104166 -0.154065 0.982555 0.021752 -0.165439 0.98598 
0.101372 -0.185414 0.977418 0.0497177 -0.2577 0.964945 -0.0791665 -0.245927 0.96605 
-0.187271 -0.359485 0.914166 -0.356996 -0.587733 0.726033 0.290529 -0.408478 0.865297 
0.142858 -0.340723 0.929247 -0.08134 -0.362475 0.928437 -0.140324 -0.392236 0.909098 
-0.00577682 -0.429864 0.902875 0.0204464 -0.506291 0.86212 -0.0510152 -0.596084 0.8013 
-0.111426 -0.72026 0.684697 -0.253416 -0.803912 0.538057 0.0257108 0.474983 0.87962 
-0.070406 0.577909 0.813059 0.315959 0.435648 0.842841 0.198585 0.416337 0.887259 
0.310614 0.770262 0.556969 0.0889325 0.513722 0.853335 0.127608 0.697488 0.705143 
0.0412739 0.453811 0.890141 0.0838495 0.558061 0.825552 0.0220353 0.415598 0.909281 
0.0318748 0.493946 0.868908 0.0330124 0.456548 0.889086 0.0408137 0.409727 0.911295 
0.0418985 0.459112 0.88739 -0.0773504 0.579001 0.811649 -0.137355 0.578844 0.803787 
-0.174749 0.69534 0.697112 -0.155079 0.612754 0.774908 -0.247426 0.869191 0.428121 
-0.210185 0.604347 0.768497 0.317013 0.426691 0.847017 0.411216 0.286787 0.865248 
0.597775 0.647449 0.472731 -0.240708 0.581203 0.777344 -0.258245 0.562245 0.785615 
-0.278891 0.641362 0.714755 -0.419779 0.408594 0.810455 -0.515376 0.78115 0.352408 
0.41246 0.28122 0.866483 0.679319 0.496444 0.540434 -0.442834 0.39676 0.80404 
-0.499537 0.338351 0.797484 -0.668671 0.61073 0.424132 0.339182 0.0853671 0.936839 
0.500665 0.288207 0.816254 -0.501951 0.312818 0.806343 0.428207 0.121651 0.895455 
0.613174 0.139759 0.777486 -0.623706 0.078137 0.777744 -0.913059 0.153113 0.377995 
0.594276 -0.035419 0.803481 0.619722 -0.0363348 0.78398 -0.545864 0.0143032 0.837752 
-0.940711 -0.0128059 0.338967 0.432688 -0.0632619 0.899322 0.703753 -0.256726 0.662438 
-0.643332 -0.0645033 0.762865 -0.954949 -0.187591 0.229961 0.409253 -0.231257 0.882628 
0.716151 -0.375152 0.588549 0.393125 -0.322454 0.86109 0.259889 -0.219173 0.940437 
-0.589545 -0.286029 0.755397 -0.596339 -0.347418 0.723658 0.499595 -0.519698 0.69305 
0.2866 -0.19668 0.937645 0.30419 -0.215189 0.927988 -0.554743 -0.421431 0.717395 
-0.493524 -0.4805 0.724951 -0.778911 -0.590765 0.210464 0.284281 -0.257899 0.923403 
0.426667 -0.409339 0.806472 0.298789 -0.285171 0.910716 -0.428657 -0.609806 0.666625 
-0.40285 -0.652916 0.641414 -0.559363 -0.793012 0.24134 0.336984 -0.430134 0.837512 
0.461951 -0.538247 0.704906 0.305694 -0.456088 0.835784 0.136749 -0.685171 0.71543 
-0.0996098 -0.728113 0.678181 -0.146019 -0.603942 0.783539 -0.0344351 -0.568934 0.821662 
-0.00848532 -0.678781 0.734292 -0.0782327 -0.710402 0.699435 -0.132886 -0.779923 0.611606 
-0.253944 -0.804095 0.537535 -0.253427 -0.804285 0.537495 0.091475 -0.937789 0.334938 
-0.105335 -0.970824 0.215418 0.35451 0.904425 0.237357 0.260463 0.928089 0.266099 
0.140809 0.943672 0.299426 0.0306167 0.946113 0.322388 -0.0285558 0.949581 0.312217 
-0.0812943 0.95642 0.280448 -0.160268 0.95169 0.261917 -0.245897 0.938268 0.243286 
-0.276693 0.929559 0.24364 0.619927 0.695751 0.362797 0.418399 0.87115 0.256982 
0.458323 0.848694 0.263928 -0.24784 0.940365 0.233002 -0.243189 0.941208 0.234494 
-0.349585 0.902072 0.253095 -0.526177 0.817692 0.233491 0.65009 0.675591 0.347793 
0.699888 0.585325 0.40933 -0.554296 0.798483 0.234906 -0.680665 0.682761 0.26558 
0.737392 0.52266 0.427878 -0.748609 0.601932 0.277961 0.882986 0.292766 0.366912 
-0.915685 0.33644 0.219839 -0.937811 0.245148 0.245789 0.874234 0.127235 0.468535 
-0.959883 0.149707 0.237091 0.890063 -0.0821087 0.448382 0.967648 -0.128124 -0.217352 
-0.982828 -0.0231578 0.183065 -0.900491 -0.123654 -0.416925 0.880355 -0.259246 0.397198 
-0.975642 -0.194043 0.102322 -0.960946 -0.255589 0.106099 -0.961843 -0.228531 -0.150439 
0.874926 -0.380769 0.299198 0.798037 -0.486063 0.356202 -0.920134 -0.378978 0.0986392 
0.761179 -0.547215 0.348084 0.688741 -0.64754 0.326079 -0.812964 -0.582089 0.0161826 
-0.778182 -0.628022 0.00471403 -0.726844 -0.631126 -0.270885 0.68273 -0.663281 0.306494 
0.630399 -0.727136 0.271791 -0.41149 -0.906729 -0.0922999 -0.571362 -0.816526 -0.0826463 
-0.524103 -0.845635 -0.101085 -0.537958 -0.821229 -0.190222 0.611077 -0.750993 0.250187 
0.490861 -0.85417 0.171607 0.318644 -0.946609 0.0489632 -0.135526 -0.990433 0.0259922 
-0.086175 -0.996161 0.0153892 -0.0801278 -0.996723 -0.0111213 -0.184171 -0.978783 -0.0898092 
-0.28889 -0.943487 -0.162402 -0.3095 -0.739072 -0.598317 -0.389261 -0.895953 -0.213878 
-0.375325 -0.89699 -0.233536 -0.357044 -0.886813 -0.293399 0.280301 -0.959044 0.040817 
0.0679541 -0.997406 0.0237466 0.0653932 -0.947344 -0.313471 -0.124826 -0.992036 0.0168323 
-0.100819 -0.994905 -8.1143e-05 -0.1055 -0.975364 -0.19374 0.304914 0.88649 -0.348086 
0.283742 0.864277 -0.415351 0.199342 0.926132 -0.320222 0.0506021 0.956447 -0.287486 
-0.0456804 0.963009 -0.265568 -0.100256 0.95703 -0.272106 -0.17056 0.949674 -0.262734 
-0.234396 0.94551 -0.225985 -0.258096 0.944514 -0.203174 0.517608 0.821951 -0.237651 
0.385819 0.858987 -0.336578 0.438541 0.833255 -0.336701 0.258769 0.811933 -0.523263 
0.217057 0.704845 -0.675337 0.230251 0.529332 -0.816574 -0.142316 0.739715 -0.657699 
-0.248035 0.94457 -0.215094 -0.244377 0.873351 -0.421353 -0.249427 0.943634 -0.217579 
-0.367207 0.894939 -0.253463 -0.536448 0.810745 -0.23434 0.578118 0.782368 -0.23169 
0.707876 0.677747 -0.198923 0.50398 0.712489 -0.488224 0.228193 0.662873 -0.713112 
-0.342039 0.658529 -0.670335 -0.564692 0.786327 -0.250623 -0.536842 0.758812 -0.368788 
-0.709009 0.618639 -0.338515 0.795736 0.576394 -0.185939 0.643969 0.565299 -0.515501 
-0.470472 0.296308 -0.831178 -0.781229 0.526217 -0.335822 -0.699516 0.538631 -0.469632 
0.938938 0.289116 -0.186566 -0.834407 0.315713 -0.451763 -0.605455 0.270059 -0.74866 
-0.901922 0.169185 -0.397384 0.962809 0.0567098 -0.264165 0.951344 -0.0705534 -0.299945 
-0.920236 0.108185 -0.376113 -0.868002 -0.0803206 -0.490022 -0.894166 0.102529 -0.435838 
0.940794 -0.130296 -0.312938 0.939103 -0.135273 -0.315891 0.938675 -0.131178 -0.318876 
-0.842314 -0.138214 -0.520965 -0.497483 -0.196738 -0.84487 0.871624 -0.307412 -0.381797 
0.566979 -0.290107 -0.770956 -0.784549 -0.216425 -0.58107 -0.572961 -0.225868 -0.787845 
0.847602 -0.407098 -0.340356 0.774197 -0.479117 -0.413602 0.621116 -0.42468 -0.658682 
0.388299 -0.179157 -0.903951 -0.0293873 -0.234022 -0.971787 -0.29146 -0.266918 -0.918589 
-0.751405 -0.371732 -0.545166 -0.577912 -0.522053 -0.627278 -0.550968 -0.361063 -0.752375 
0.748582 -0.530456 -0.397797 0.623948 -0.67909 -0.386685 0.555668 -0.388726 -0.734932 
0.311589 -0.21636 -0.925257 -0.14553 -0.158079 -0.976643 -0.0588594 -0.26387 -0.962761 
-0.00274307 -0.306208 -0.951961 -0.0477044 -0.381878 -0.922981 -0.178829 -0.426419 -0.886672 
-0.455181 -0.572797 -0.681699 -0.425642 -0.614198 -0.664522 -0.368519 -0.504165 -0.781032 
0.60444 -0.695589 -0.388341 0.581393 -0.707483 -0.401809 0.453675 -0.49924 -0.738199 
0.213305 -0.400457 -0.891143 -0.10281 -0.272358 -0.956688 -0.140305 -0.29087 -0.946419 
-0.176192 -0.274606 -0.945277 -0.109872 -0.300394 -0.947466 -0.213239 -0.575953 -0.789181 
-0.0575683 -0.434105 -0.899021 -0.159743 -0.713473 -0.68223 -0.114197 -0.484196 -0.867475 
-0.415984 -0.628087 -0.65762 -0.374421 -0.624198 -0.685701 -0.31663 -0.554841 -0.769348 
0.503525 -0.758204 -0.414234 0.374809 -0.815822 -0.4404 0.338833 -0.694678 -0.634519 
0.219903 -0.816573 -0.533714 0.107724 -0.624731 -0.773373 0.0539238 -0.825505 -0.561813 
0.00168022 -0.52766 -0.849454 -0.100656 -0.808276 -0.580137 -0.077194 -0.525283 -0.847419 
-0.128001 -0.790151 -0.599398 -0.113454 -0.565197 -0.817117 -0.145005 -0.748471 -0.647121 
-0.141378 -0.587891 -0.79649 -0.0979397 -0.660425 -0.744478 -0.0981863 -0.591589 -0.800238 
-0.213159 -0.615299 -0.758927 -0.16245 -0.64612 -0.745747 -0.155574 -0.563358 -0.811433 
0.094739 0.590185 -0.801689 0.00435278 0.645516 -0.763734 -0.0430179 0.638737 -0.768222 
-0.0626187 0.663029 -0.74597 0.101444 0.514034 -0.85175 0.122593 0.485006 -0.865875 
0.159834 0.534584 -0.829863 0.212904 0.463805 -0.859975 0.104167 0.557382 -0.823696 
0.00707532 0.593629 -0.804708 -0.0407658 0.601466 -0.797858 -0.103174 0.69245 -0.714051 
-0.0603263 0.645461 -0.761407 -0.131457 0.709371 -0.692468 -0.207181 0.713583 -0.669235 
-0.264064 0.678512 -0.685486 0.406259 0.452345 -0.793938 0.190459 0.619374 -0.761644 
0.223074 0.641496 -0.733976 0.0767585 0.477886 -0.875062 0.101396 0.427471 -0.898325 
0.167028 0.315497 -0.934111 0.156959 0.308575 -0.938161 0.0183404 0.320887 -0.94694 
-0.0200132 0.269255 -0.962861 0.018583 0.312814 -0.949632 -0.0176905 0.371444 -0.928287 
-0.137299 0.473909 -0.869804 -0.319222 0.618963 -0.717623 -0.255621 0.535193 -0.805125 
-0.334784 0.579819 -0.742786 0.432447 0.444006 -0.78476 0.541281 0.309952 -0.78163 
0.395247 0.437623 -0.80763 0.195678 0.299377 -0.933854 0.0437019 0.35562 -0.933608 
-0.0199716 0.292662 -0.956008 0.113504 0.198525 -0.973501 0.15473 0.12568 -0.97993 
-0.0241353 0.148236 -0.988657 -0.0676565 0.0771697 -0.99472 0.0564937 0.0806312 -0.995142 
0.0389944 0.116373 -0.99244 -0.0915174 0.122276 -0.988268 -0.183794 0.165402 -0.968949 
-0.452942 0.285164 -0.844704 -0.284732 0.231516 -0.93023 -0.447788 0.268607 -0.85284 
0.572609 0.223207 -0.788858 0.524491 0.207718 -0.825689 0.341653 0.186342 -0.921168 
0.110995 0.102481 -0.988523 0.0401702 0.0410729 -0.998348 -0.047489 0.1216 -0.991443 
-0.000440049 0.078649 -0.996902 0.0992697 -0.0389671 -0.994297 -0.0317391 -0.0808534 -0.996221 
-0.0809144 0.0116921 -0.996652 0.0604821 -0.0323141 -0.997646 0.0330117 -0.0970251 -0.994734 
-0.0708812 -0.122371 -0.98995 -0.12783 -0.0476533 -0.990651 -0.231397 0.0129569 -0.972773 
-0.463918 0.216891 -0.858917 -0.366361 0.159749 -0.916657 -0.49423 0.136516 -0.858545 
0.595037 -0.021395 -0.803414 0.502935 -0.0338701 -0.86366 0.293201 -0.132748 -0.94679 
0.0726976 -0.145859 -0.986631 0.0667748 -0.135235 -0.988561 0.00743093 -0.155892 -0.987746 
-0.047215 -0.157018 -0.986466 -0.00386557 -0.170224 -0.985398 0.0290923 -0.156351 -0.987273 
-0.0212823 -0.198141 -0.979942 -0.0575631 -0.169597 -0.983831 -0.0499941 -0.252244 -0.966371 
-0.0303681 -0.213285 -0.976518 -0.0561678 -0.148372 -0.987335 -0.108402 -0.109321 -0.988078 
-0.222191 -0.0338171 -0.974417 -0.503375 0.0447735 -0.862907 -0.4684 -0.108192 -0.876867 
-0.425541 0.0396654 -0.904069 0.469618 -0.217839 -0.855573 0.460246 -0.231219 -0.857153 
0.448885 -0.217502 -0.866715 0.203011 -0.240414 -0.949204 0.095709 -0.200047 -0.9751 
0.0274459 -0.213381 -0.976583 -0.0790926 -0.275441 -0.958059 -0.0208531 -0.304224 -0.952372 
0.128178 -0.274947 -0.952877 -0.0774294 -0.188065 -0.9791 -0.0881717 -0.291299 -0.95256 
0.0461111 -0.18276 -0.982076 -0.015381 -0.169191 -0.985463 0.0259616 -0.143283 -0.989341 
-0.023603 -0.124871 -0.991892 -0.118977 -0.131034 -0.984213 -0.390018 -0.183178 -0.902403 
-0.219537 -0.15297 -0.963537 0.294644 -0.286171 -0.911752 0.257089 -0.262987 -0.929916 
0.239454 -0.285393 -0.928016 0.116318 -0.105972 -0.987542 0.00343375 -0.128496 -0.991704 
-0.0772998 -0.0884136 -0.99308 -0.0368298 -0.0204201 -0.999113 0.0730385 -0.0852763 -0.993677 
0.0224638 -0.290292 -0.956675 0.000562961 -0.0723662 -0.997378 -0.0221449 -0.23228 -0.972397 
0.0204355 -0.220814 -0.975102 -0.00659174 -0.162149 -0.986744 0.0236772 -0.150014 -0.9884 
-0.0461889 -0.152487 -0.987226 -0.142593 -0.151561 -0.978109 -0.243684 -0.0851492 -0.96611 
-0.262343 -0.167405 -0.950343 -0.231939 -0.0788092 -0.969533 0.305916 -0.180025 -0.934883 
0.289766 -0.19298 -0.93744 0.263561 -0.181026 -0.947505 0.0304902 -0.0158703 -0.999409 
0.0185689 0.0268533 -0.999467 -0.0119608 0.0688845 -0.997553 -0.106339 0.0238407 -0.994044 
-0.0721412 -0.0951173 -0.992849 -0.0371132 -0.192106 -0.980672 -0.0535246 -0.112742 -0.992182 
0.0250066 -0.263559 -0.964319 0.0472422 -0.282289 -0.958165 0.0566087 -0.281839 -0.95779 
0.0307597 -0.288835 -0.956885 0.0354737 -0.286269 -0.957493 -0.0297849 -0.313177 -0.949228 
-0.0269652 -0.279833 -0.95967 -0.18405 -0.274717 -0.943746 -0.0596084 -0.290317 -0.955072 
-0.0577566 -0.283442 -0.957249 0.274262 -0.185648 -0.943565 0.198156 -0.337147 -0.920362 
0.179924 -0.13736 -0.974043 0.011664 -0.0548866 -0.998424 -0.0377223 -0.0782884 -0.996217 
-0.105386 -0.0938484 -0.989993 -0.106149 -0.185605 -0.976874 -0.112458 -0.0714624 -0.991083 
-0.119003 -0.131227 -0.984184 -0.118759 -0.132364 -0.984061 -0.118668 -0.130919 -0.984265 
0.159476 -0.359597 -0.919379 0.0870774 -0.394458 -0.914779 0.0879926 -0.301287 -0.949465 
-0.0560354 -0.344557 -0.937092 -0.0637002 -0.296017 -0.953056 -0.0886856 -0.283328 -0.954914 
-0.0850089 -0.296752 -0.951163 -0.0860496 -0.287289 -0.953971 
