# vtk DataFile Version 4.2
vtk output
ASCII
DATASET POLYDATA
POINTS 532 float
-16.9859 -32.0127 -12.034 -9.22327 -32.0127 -13.0993 -1.46061 -32.0127 -13.9154 
6.30205 -32.0127 -14.6806 14.0647 -32.0127 -14.7255 21.8274 -32.0127 -13.3449 
-32.5113 -24.25 -12.9396 -24.7486 -24.25 -12.9929 -16.9859 -24.25 -13.4733 
-9.22327 -24.25 -14.3774 -1.46061 -24.25 -14.9754 6.30205 -24.25 -16.5534 
14.0647 -24.25 -17.3048 21.8274 -24.25 -16.3141 29.59 -24.25 -14.1539 
37.3527 -24.25 -12.0904 -40.2739 -16.4873 -13.9273 -32.5113 -16.4873 -14.3772 
-24.7486 -16.4873 -14.1984 -16.9859 -16.4873 -13.6768 -9.22327 -16.4873 -14.7107 
-1.46061 -16.4873 -15.5023 6.30205 -16.4873 -16.5607 14.0647 -16.4873 -16.9759 
21.8274 -16.4873 -15.9328 29.59 -16.4873 -15.111 37.3527 -16.4873 -13.8839 
45.1154 -16.4873 -12.5504 -55.7992 -8.72468 -12.4109 -48.0366 -8.72468 -14.923 
-40.2739 -8.72468 -15.2992 -32.5113 -8.72468 -15.5663 -24.7486 -8.72468 -15.1167 
-16.9859 -8.72468 -14.3382 -9.22327 -8.72468 -16.8407 -1.46061 -8.72468 -18.7363 
6.30205 -8.72468 -17.1888 14.0647 -8.72468 -14.5534 21.8274 -8.72468 -14.3433 
29.59 -8.72468 -14.8242 37.3527 -8.72468 -15.1268 45.1154 -8.72468 -14.558 
52.878 -8.72468 -12.2208 -48.0366 -0.962016 -14.9733 -40.2739 -0.962016 -16.0541 
-32.5113 -0.962016 -16.0596 -24.7486 -0.962016 -15.6291 -16.9859 -0.962016 -16.033 
-9.22327 -0.962016 -19.0573 -1.46061 -0.962016 -13.6284 6.30205 -0.962016 -18.271 
14.0647 -0.962016 -12.8923 21.8274 -0.962016 -13.8513 29.59 -0.962016 -15.1537 
37.3527 -0.962016 -15.9636 45.1154 -0.962016 -15.0647 52.878 -0.962016 -13.3077 
-55.7992 6.80064 -12.3011 -48.0366 6.80064 -14.4399 -40.2739 6.80064 -15.1796 
-32.5113 6.80064 -15.153 -24.7486 6.80064 -14.39 -16.9859 6.80064 -14.3197 
-9.22327 6.80064 -18.7215 -1.46061 6.80064 -17.9483 6.30205 6.80064 -19.4194 
14.0647 6.80064 -15.9085 21.8274 6.80064 -14.9202 29.59 6.80064 -15.7644 
37.3527 6.80064 -16.6577 45.1154 6.80064 -15.268 52.878 6.80064 -13.9316 
-40.2739 14.5633 -13.7498 -32.5113 14.5633 -15.1929 -24.7486 14.5633 -14.7014 
-16.9859 14.5633 -14.3955 -9.22327 14.5633 -13.9669 -1.46061 14.5633 -15.2271 
6.30205 14.5633 -17.0821 14.0647 14.5633 -15.8602 21.8274 14.5633 -15.6772 
29.59 14.5633 -15.9954 37.3527 14.5633 -16.1413 45.1154 14.5633 -15.2505 
-40.2739 22.326 -13.1489 -32.5113 22.326 -13.9859 -24.7486 22.326 -14.7971 
-16.9859 22.326 -15.0974 -9.22327 22.326 -14.2909 -1.46061 22.326 -15.126 
6.30205 22.326 -16.08 14.0647 22.326 -16.3474 21.8274 22.326 -16.2035 
29.59 22.326 -15.8971 37.3527 22.326 -14.4183 45.1154 22.326 -12.7558 
-32.5113 30.0886 -13.0545 -24.7486 30.0886 -14.0807 -16.9859 30.0886 -15.0874 
-9.22327 30.0886 -14.3688 -1.46061 30.0886 -15.2632 6.30205 30.0886 -16.2756 
14.0647 30.0886 -16.2598 21.8274 30.0886 -15.7147 29.59 30.0886 -13.9905 
37.3527 30.0886 -12.173 -16.9859 37.8513 -12.7115 -9.22327 37.8513 -12.7662 
-1.46061 37.8513 -13.9361 6.30205 37.8513 -14.8136 14.0647 37.8513 -14.3866 
21.8274 37.8513 -13.6673 -24.7486 -39.7753 -6.5648 -16.9859 -32.0606 -12.0123 
-16.9859 -39.7753 -7.74355 -9.22327 -34.4561 -12.0123 -9.22327 -39.7753 -9.21921 
-1.46061 -36.3715 -12.0123 -1.46061 -39.7753 -10.07 6.30205 -36.9693 -12.0123 
6.30205 -39.7753 -9.89621 14.0647 -35.9123 -12.0123 14.0647 -39.7753 -7.95627 
21.8274 -33.628 -12.0123 21.8274 -39.7753 -4.2561 -40.2739 -32.0127 -7.16405 
-32.5113 -26.2497 -12.0123 -32.5113 -32.0127 -8.92353 -17.1736 -32.0127 -12.0123 
-24.7486 -28.3847 -12.0123 -24.7486 -32.0127 -11.0277 25.1724 -32.0127 -12.0123 
29.59 -28.7385 -12.0123 29.59 -32.0127 -9.78119 37.3527 -24.3984 -12.0123 
37.3527 -32.0127 -5.95246 -48.0366 -24.25 -8.04418 -36.2617 -24.25 -12.0123 
-40.2739 -21.4882 -12.0123 -40.2739 -24.25 -10.9464 37.5944 -24.25 -12.0123 
45.1154 -17.7948 -12.0123 45.1154 -24.25 -9.09811 -55.7992 -9.84972 -12.0123 
-55.7992 -16.4873 -8.39466 -47.1826 -16.4873 -12.0123 -48.0366 -15.8323 -12.0123 
-48.0366 -16.4873 -11.7714 47.8022 -16.4873 -12.0123 52.878 -10.1072 -12.0123 
52.878 -16.4873 -10.8237 -56.3603 -8.72468 -12.0123 -55.7992 -5.77604 -12.0123 
53.3426 -8.72468 -12.0123 60.6407 -8.72468 -7.77167 -63.5619 -0.962016 -5.62522 
-54.3882 -0.962016 -12.0123 -55.7992 4.38259 -12.0123 -55.7992 -0.962016 -11.2297 
56.3045 -0.962016 -12.0123 60.6407 -0.962016 -10.1126 -56.2198 6.80064 -12.0123 
-55.7992 7.82383 -12.0123 -48.0366 14.4782 -12.0123 57.4159 6.80064 -12.0123 
52.878 12.864 -12.0123 60.6407 6.80064 -10.1882 -55.7992 14.5633 -9.30751 
-47.9307 14.5633 -12.0123 -48.0366 14.5633 -11.9893 52.0357 14.5633 -12.0123 
52.878 14.5633 -11.5047 60.6407 14.5633 -4.97594 -55.7992 22.326 -4.43987 
-46.9675 22.326 -12.0123 -48.0366 22.326 -11.7541 -40.2739 25.1782 -12.0123 
46.8734 22.326 -12.0123 45.1154 24.2347 -12.0123 52.878 22.326 -7.7089 
-48.0366 30.0886 -5.32237 -35.5991 30.0886 -12.0123 -40.2739 30.0886 -9.92715 
-32.5113 33.7244 -12.0123 -24.7486 35.8865 -12.0123 29.59 34.9324 -12.0123 
37.8368 30.0886 -12.0123 37.3527 30.3783 -12.0123 45.1154 30.0886 -6.69557 
-32.5113 37.8513 -9.36968 -20.9883 37.8513 -12.0123 -24.7486 37.8513 -11.0636 
-16.9859 39.2697 -12.0123 -9.22327 39.2235 -12.0123 -1.46061 41.3491 -12.0123 
6.30205 42.7264 -12.0123 14.0647 41.8137 -12.0123 26.5297 37.8513 -12.0123 
21.8274 41.2693 -12.0123 29.59 37.8513 -10.1695 -9.22327 45.6139 -5.98897 
-1.46061 45.6139 -8.07549 6.30205 45.6139 -8.95534 14.0647 45.6139 -7.81563 
-24.7486 -41.5683 -4.24963 -16.9859 -43.1676 -4.24963 -9.22327 -44.5942 -4.24963 
-1.46061 -45.3975 -4.24963 -1.46061 -47.538 3.35678 6.30205 -44.6544 -4.24963 
14.0647 -42.3904 -4.24963 21.8274 -39.7796 -4.24963 -40.2739 -34.8013 -4.24963 
-29.8155 -39.7753 -4.24963 -32.5113 -38.4418 -4.24963 -32.5113 -39.7753 -0.474429 
21.8376 -39.7753 -4.24963 29.59 -36.4949 -4.24963 37.3527 -33.2747 -4.24963 
-44.7389 -32.0127 -4.24963 -48.0366 -28.717 -4.24963 39.8977 -32.0127 -4.24963 
45.1154 -29.1917 -4.24963 -53.3788 -24.25 -4.24963 -55.7992 -22.2731 -4.24963 
52.1955 -24.25 -4.24963 52.878 -23.7031 -4.24963 52.878 -24.25 -2.20468 
-59.3588 -16.4873 -4.24963 59.7931 -16.4873 -4.24963 60.6407 -14.9858 -4.24963 
60.6407 -16.4873 2.88045 -62.5452 -8.72468 -4.24963 -63.5619 -5.22484 -4.24963 
63.4354 -8.72468 -4.24963 -64.5498 -0.962016 -4.24963 -63.5619 4.65067 -4.24963 
65.1348 -0.962016 -4.24963 -63.0523 6.80064 -4.24963 64.4953 6.80064 -4.24963 
-60.626 14.5633 -4.24963 61.0998 14.5633 -4.24963 60.6407 15.2606 -4.24963 
60.6407 14.5633 -0.753121 -55.958 22.326 -4.24963 -55.7992 22.5342 -4.24963 
55.1129 22.326 -4.24963 52.878 24.7752 -4.24963 52.878 22.326 3.21879 
-49.0551 30.0886 -4.24963 -48.0366 31.0416 -4.24963 -40.2739 36.463 -4.24963 
37.3527 36.9329 -4.24963 46.602 30.0886 -4.24963 45.1154 31.1351 -4.24963 
45.1154 30.0886 -1.17429 -38.0237 37.8513 -4.24963 -32.5113 40.3936 -4.24963 
-24.7486 42.9529 -4.24963 -16.9859 44.9491 -4.24963 21.8274 45.2137 -4.24963 
35.9749 37.8513 -4.24963 29.59 41.7265 -4.24963 -13.9315 45.6139 -4.24963 
-9.22327 46.5622 -4.24963 -9.22327 45.6139 0.65748 -1.46061 47.6542 -4.24963 
6.30205 47.8658 -4.24963 6.30205 45.6139 3.00952 20.4145 45.6139 -4.24963 
14.0647 47.3359 -4.24963 14.0647 45.6139 0.71241 -1.46061 -47.5731 3.51303 
-32.5113 -40.7754 3.51303 -24.7486 -43.2617 3.51303 -16.9859 -45.236 3.51303 
-1.83104 -47.538 3.51303 -9.22327 -46.8214 3.51303 -0.795715 -47.538 3.51303 
-1.46061 -47.538 3.62366 6.30205 -47.1569 3.51303 14.0647 -45.2977 3.51303 
21.8274 -42.62 3.51303 -34.72 -39.7753 3.51303 -40.2739 -36.9995 3.51303 
-32.5113 -39.7753 6.29877 -24.7486 -39.7753 10.942 28.5679 -39.7753 3.51303 
29.59 -39.3617 3.51303 37.3527 -35.9057 3.51303 -47.3133 -32.0127 3.51303 
-48.0366 -31.3918 3.51303 -40.2739 -32.0127 10.1688 44.6015 -32.0127 3.51303 
45.1154 -31.7182 3.51303 52.878 -25.6346 3.51303 -54.8631 -24.25 3.51303 
-55.7992 -22.9625 3.51303 54.2765 -24.25 3.51303 52.878 -24.25 6.05014 
60.6407 -16.5739 3.51303 -59.8152 -16.4873 3.51303 -55.7992 -16.4873 8.76511 
60.7001 -16.4873 3.51303 60.6407 -16.4873 3.60822 -62.5504 -8.72468 3.51303 
-63.5619 -5.21081 3.51303 63.9677 -8.72468 3.51303 60.6407 -8.72468 8.78343 
-64.5183 -0.962016 3.51303 -63.5619 6.01348 3.51303 -63.5619 -0.962016 4.86995 
64.888 -0.962016 3.51303 60.6407 -0.962016 9.37475 -63.4285 6.80064 3.51303 
64.3449 6.80064 3.51303 60.6407 13.4474 3.51303 60.6407 6.80064 7.80954 
-61.5683 14.5633 3.51303 -55.7992 14.5633 11.002 59.8535 14.5633 3.51303 
52.878 22.2118 3.51303 52.878 14.5633 10.4078 -56.9398 22.326 3.51303 
-55.7992 23.8024 3.51303 -55.7992 22.326 5.37062 37.3527 22.326 10.6182 
52.7277 22.326 3.51303 45.1154 27.9001 3.51303 45.1154 22.326 8.90529 
-49.8946 30.0886 3.51303 -48.0366 31.6683 3.51303 -48.0366 30.0886 6.17827 
-40.2739 36.7146 3.51303 -40.2739 30.0886 10.8666 29.59 30.0886 8.97921 
41.8014 30.0886 3.51303 37.3527 32.9019 3.51303 37.3527 30.0886 6.05918 
-37.4691 37.8513 3.51303 -32.5113 39.7134 3.51303 -32.5113 37.8513 6.843 
-24.7486 41.9321 3.51303 -24.7486 37.8513 9.32162 -16.9859 43.654 3.51303 
-16.9859 37.8513 10.481 -9.22327 44.9257 3.51303 -9.22327 37.8513 10.822 
-1.46061 37.8513 10.345 6.30205 45.3896 3.51303 6.30205 37.8513 9.59107 
14.0647 44.215 3.51303 14.0647 37.8513 8.57076 21.8274 41.6502 3.51303 
21.8274 37.8513 7.16473 31.1397 37.8513 3.51303 29.59 38.7786 3.51303 
29.59 37.8513 4.45605 -1.66005 45.6139 3.51303 -0.814488 45.6139 3.51303 
-1.46061 45.629 3.51303 -1.46061 45.6139 3.53396 -16.9859 -41.4137 11.2757 
-9.22327 -43.0452 11.2757 -1.46061 -43.9962 11.2757 6.30205 -44.1508 11.2757 
14.0647 -43.4756 11.2757 21.8274 -41.4067 11.2757 -32.5113 -36.811 11.2757 
-23.7878 -39.7753 11.2757 -24.7486 -39.475 11.2757 -16.9859 -39.7753 12.5302 
-9.22327 -39.7753 14.0971 -1.46061 -39.7753 14.8293 6.30205 -39.7753 15.1008 
14.0647 -39.7753 14.7892 26.0745 -39.7753 11.2757 21.8274 -39.7753 12.9752 
29.59 -38.0279 11.2757 37.3527 -34.0142 11.2757 -48.0366 -25.3929 11.2757 
-38.6731 -32.0127 11.2757 -40.2739 -30.5039 11.2757 -32.5113 -32.0127 14.057 
[...]
POINT_DATA 532
SCALARS ImageScalars float
LOOKUP_TABLE default
0 0 0 0 0 0 0 0 0 
0 0 0 0 0 0 0 0 0 
0 0 0 0 0 0 0 0 0 
0 0 0 0 0 0 0 0 0 
0 0 0 0 0 0 0 0 0 
0 0 0 0 0 0 0 0 0 
0 0 0 0 0 0 0 0 0 
0 0 0 0 0 0 0 0 0 
0 0 0 0 0 0 0 0 0 
0 0 0 0 0 0 0 0 0 
0 0 0 0 0 0 0 0 0 
0 0 0 0 0 0 0 0 0 
0 0 0 0 0 0 0 0 0 
0 0 0 0 0 0 0 0 0 
0 0 0 0 0 0 0 0 0 
0 0 0 0 0 0 0 0 0 
0 0 0 0 0 0 0 0 0 
0 0 0 0 0 0 0 0 0 
0 0 0 0 0 0 0 0 0 
0 0 0 0 0 0 0 0 0 
0 0 0 0 0 0 0 0 0 
0 0 0 0 0 0 0 0 0 
0 0 0 0 0 0 0 0 0 
0 0 0 0 0 0 0 0 0 
0 0 0 0 0 0 0 0 0 
0 0 0 0 0 0 0 0 0 
0 0 0 0 0 0 0 0 0 
0 0 0 0 0 0 0 0 0 
0 0 0 0 0 0 0 0 0 
0 0 0 0 0 0 0 0 0 
0 0 0 0 0 0 0 0 0 
0 0 0 0 0 0 0 0 0 
0 0 0 0 0 0 0 0 0 
0 0 0 0 0 0 0 0 0 
0 0 0 0 0 0 0 0 0 
0 0 0 0 0 0 0 0 0 
0 0 0 0 0 0 0 0 0 
0 0 0 0 0 0 0 0 0 
0 0 0 0 0 0 0 0 0 
0 0 0 0 0 0 0 0 0 
0 0 0 0 0 0 0 0 0 
0 0 0 0 0 0 0 0 0 
0 0 0 0 0 0 0 0 0 
0 0 0 0 0 0 0 0 0 
0 0 0 0 0 0 0 0 0 
0 0 0 0 0 0 0 0 0 
0 0 0 0 0 0 0 0 0 
0 0 0 0 0 0 0 0 0 
0 0 0 0 0 0 0 0 0 
0 0 0 0 0 0 0 0 0 
0 0 0 0 0 0 0 0 0 
0 0 0 0 0 0 0 0 0 
0 0 0 0 0 0 0 0 0 
0 0 0 0 0 0 0 0 0 
0 0 0 0 0 0 0 0 0 
0 0 0 0 0 0 0 0 0 
0 0 0 0 0 0 0 0 0 
0 0 0 0 0 0 0 0 0 
0 0 0 0 0 0 0 0 0 
0 
NORMALS Normals float
0.118005 0.305757 0.944769 0.120047 0.287884 0.950111 0.0972242 0.273815 0.956856 
0.0525511 0.353282 0.93404 -0.0716431 0.463259 0.883322 -0.257105 0.541293 0.800562 
0.119234 0.316108 0.941201 0.0351072 0.187588 0.98162 0.0896811 0.100227 0.990915 
0.094141 0.0955383 0.990964 0.132254 0.102333 0.985919 0.153638 0.12475 0.980221 
-0.017223 0.130055 0.991357 -0.195726 0.13542 0.971264 -0.264036 0.268219 0.926468 
-0.276438 0.359549 0.891239 0.146588 0.259166 0.954644 0.0171435 0.176276 0.984191 
-0.0449714 0.134567 0.989883 0.0321201 0.0551237 0.997963 0.121418 0.127871 0.984331 
0.120421 0.238301 0.963697 0.0940979 0.0382429 0.994828 -0.0406355 -0.173959 0.983914 
-0.121119 -0.12777 0.98438 -0.125308 0.0377396 0.9914 -0.154713 0.191264 0.969269 
-0.177495 0.31995 0.93066 0.512448 0.11226 0.851348 0.211203 0.181883 0.960371 
0.0388628 0.136804 0.989836 -0.0121009 0.105274 0.99437 -0.0780195 0.0913923 0.992754 
0.0697919 0.145357 0.986915 0.303944 0.292048 0.906822 -0.00327931 -0.0166876 0.999855 
-0.269198 0.0963042 0.958258 -0.18075 -0.226488 0.957096 0.0181811 -0.134123 0.990798 
0.0499071 0.00298174 0.998749 -0.0192742 0.130484 0.991263 -0.169729 0.140995 0.975352 
-0.365722 0.133237 0.921138 0.268563 -0.0262866 0.962903 0.0775722 -0.00833487 0.996952 
-0.0273827 -0.0240703 0.999335 -0.00421749 -0.0472873 0.998872 0.223977 0.0123674 0.974516 
-0.0653301 0.107169 0.992092 -0.143013 -0.147121 0.978725 0.00978222 0.15095 0.988493 
-0.25748 0.055184 0.964706 0.117724 0.0348803 0.992434 0.133961 0.0600452 0.989166 
-0.0054338 0.0972109 0.995249 -0.154802 0.047065 0.986824 -0.316034 0.105665 0.942846 
0.491215 -0.0856307 0.866819 0.211554 -0.184137 0.959864 0.0400904 -0.145688 0.988518 
-0.0518014 -0.0570707 0.997025 -0.0512247 -0.060256 0.996868 0.143545 -0.105073 0.98405 
0.2651 -0.373853 0.888795 0.0674074 0.0675847 0.995434 -0.10297 -0.0920889 0.990412 
-0.29707 0.121337 0.947115 0.00693684 0.118674 0.992909 0.108077 0.0537287 0.99269 
-0.0308207 0.0126687 0.999445 -0.154142 0.0113479 0.987984 -0.298387 -0.103741 0.94879 
0.182496 -0.11791 0.976111 0.0604042 -0.0748752 0.995362 -0.0504926 0.0261417 0.998382 
-0.0443068 0.0492348 0.997804 0.0346478 -0.135759 0.990136 0.214325 -0.16662 0.962446 
0.00936153 -0.203021 0.97913 -0.0861379 0.0293724 0.99585 0.00874719 0.0804168 0.996723 
0.0294635 0.00813815 0.999533 -0.0572133 -0.140509 0.988425 -0.245737 -0.12455 0.961302 
0.161524 -0.227753 0.960229 0.0978033 -0.138669 0.985498 0.0699949 -0.0374052 0.996846 
-0.0326536 0.0446651 0.998468 0.00157939 0.0236548 0.999719 0.118066 0.00403239 0.992998 
0.0785117 -0.0480598 0.995754 0.00799401 0.0257333 0.999637 -0.0305593 0.000387894 0.999533 
-0.10567 -0.114853 0.987746 -0.188121 -0.216996 0.957874 -0.297499 -0.371847 0.879331 
0.226713 -0.206699 0.951775 0.128055 -0.193619 0.972684 0.015787 -0.158043 0.987306 
0.0137851 -0.0895423 0.995888 0.1216 -0.0676738 0.990269 0.0643851 -0.0719463 0.995328 
-0.0387864 -0.110597 0.993108 -0.13267 -0.160538 0.978073 -0.211338 -0.296131 0.931473 
-0.276389 -0.409212 0.869572 0.0841535 -0.399313 0.912944 0.0727028 -0.353969 0.932427 
0.124084 -0.314543 0.941098 0.0283345 -0.321342 0.946539 -0.0762033 -0.368626 0.926449 
-0.193797 -0.383434 0.903007 0.238971 0.739102 0.629778 0.118105 0.307437 0.944211 
0.13958 0.671285 0.727938 0.124831 0.377833 0.91742 0.124996 0.615273 0.778341 
0.0723161 0.429841 0.900004 0.0362631 0.589982 0.806601 -0.0266457 0.52733 0.849243 
-0.0866078 0.661189 0.745203 -0.139799 0.61099 0.779197 -0.219992 0.775191 0.592184 
-0.27022 0.60795 0.746577 -0.324281 0.828059 0.457341 0.354616 0.64568 0.676273 
0.14218 0.360781 0.921749 0.208317 0.512809 0.832845 0.119885 0.306728 0.944217 
0.1181 0.271924 0.955044 0.202508 0.359446 0.910927 -0.294764 0.570973 0.766227 
-0.305228 0.459163 0.834269 -0.329916 0.629415 0.703557 -0.278371 0.365587 0.888176 
-0.376486 0.758552 0.531843 0.449409 0.558507 0.69721 0.168603 0.342428 0.924292 
0.19612 0.331307 0.922915 0.237221 0.379976 0.89406 -0.279233 0.363743 0.888662 
-0.205151 0.350326 0.913884 -0.3971 0.551003 0.733967 0.526592 0.16631 0.833692 
0.661086 0.461996 0.591206 0.276676 0.311472 0.909085 0.283188 0.310292 0.907482 
0.295452 0.322241 0.899372 -0.254676 0.335571 0.906936 -0.376735 0.17201 0.910211 
-0.431852 0.380547 0.817733 0.533803 0.128423 0.8358 0.506811 0.0714425 0.859092 
-0.377832 0.142003 0.914919 -0.705841 0.362741 0.608447 0.888431 0.0250222 0.458328 
0.450259 -0.0103733 0.892838 0.492739 -0.0645961 0.867776 0.508758 -0.00675341 0.860883 
-0.421601 0.105746 0.900594 -0.616361 0.111439 0.779538 0.505626 -0.0973006 0.857249 
0.503093 -0.127526 0.854772 0.248708 -0.148329 0.957153 -0.472635 -0.139427 0.870159 
-0.444291 -0.206591 0.871737 -0.677563 -0.192054 0.709946 0.615824 -0.387795 0.68584 
0.248388 -0.147296 0.957396 0.249833 -0.148042 0.956905 -0.459929 -0.224709 0.859053 
-0.499968 -0.253109 0.828232 -0.823456 -0.503847 0.260879 0.701505 -0.577564 0.417505 
0.377773 -0.290361 0.879192 0.414354 -0.30443 0.857691 0.243485 -0.312336 0.918238 
-0.353082 -0.389643 0.850595 -0.338824 -0.428468 0.837624 -0.689833 -0.586959 0.423803 
0.6194 -0.650447 0.439617 0.293985 -0.288172 0.911334 0.416164 -0.470112 0.778333 
0.271258 -0.396229 0.877167 0.134721 -0.435992 0.88981 -0.317488 -0.462159 0.828016 
-0.290177 -0.423118 0.858352 -0.284686 -0.422765 0.860363 -0.584471 -0.774034 0.243443 
0.350064 -0.718915 0.600514 0.11581 -0.45943 0.880632 0.164115 -0.5755 0.801165 
0.0984951 -0.47297 0.875556 0.069133 -0.425382 0.902369 0.126095 -0.512503 0.849377 
0.0152552 -0.605141 0.795972 -0.0539065 -0.581096 0.812048 -0.302758 -0.492985 0.815661 
-0.233181 -0.588542 0.774109 -0.42384 -0.654549 0.626039 0.161883 -0.939782 0.301005 
0.114503 -0.899666 0.421296 -0.00503109 -0.896029 0.443968 -0.13041 -0.930447 0.342435 
0.261813 0.835857 0.48249 0.18207 0.835574 0.51833 0.122156 0.857051 0.500541 
0.00269311 0.871852 0.489763 0.0206362 0.999092 -0.0372609 -0.168685 0.859346 0.482773 
-0.261717 0.843204 0.469587 -0.324335 0.82814 0.457154 0.421625 0.756674 0.499676 
0.338775 0.800178 0.494921 0.358344 0.767748 0.53118 0.38755 0.893666 0.2262 
-0.324365 0.828149 0.457117 -0.345339 0.811114 0.472054 -0.378031 0.802347 0.461878 
0.526841 0.6993 0.483133 0.582117 0.662246 0.471773 -0.400075 0.791851 0.461424 
-0.44752 0.753752 0.481231 0.624001 0.662616 0.414201 0.68714 0.617232 0.383228 
-0.599736 0.674363 0.430757 -0.613509 0.665733 0.424743 -0.65231 0.701802 0.286298 
0.812411 0.445209 0.376532 -0.761711 0.516983 0.390544 -0.784728 0.485717 0.385072 
-0.846365 0.49891 -0.186429 0.893066 0.299229 0.335999 0.916902 0.183838 0.354251 
-0.881296 0.336923 0.331362 0.938121 0.0282141 0.345157 0.909065 -0.162515 0.383652 
-0.939412 0.0626657 0.337014 0.892484 -0.230588 0.387686 -0.929747 -0.240724 0.278606 
0.822965 -0.376185 0.425693 -0.838267 -0.500084 0.217311 -0.827627 -0.519029 0.21364 
-0.837014 -0.544039 -0.0585629 0.707489 -0.578434 0.406046 0.704007 -0.581347 0.407934 
-0.742228 -0.657316 0.130511 -0.712276 -0.692652 0.113562 -0.59295 -0.660061 -0.461226 
0.644646 -0.657533 0.389977 0.629625 -0.677164 0.380816 0.511188 -0.796008 0.324128 
-0.568392 -0.82255 0.0185114 -0.605562 -0.794638 0.0429696 -0.594393 -0.803469 0.0337018 
-0.571669 -0.799461 -0.184545 0.480907 -0.837614 0.259098 0.388529 -0.901495 0.190664 
0.28195 -0.943079 0.176369 0.226704 -0.966798 0.117927 -0.335665 -0.941559 -0.0281944 
-0.557202 -0.829943 0.0268557 -0.483395 -0.87365 0.0553588 0.206927 -0.969445 0.131752 
0.176919 -0.970197 0.16558 0.141176 -0.968363 -0.205775 0.0856948 -0.989983 0.112209 
-0.0198691 -0.998227 0.0561047 -0.0621862 -0.86444 -0.498875 -0.305134 -0.952196 -0.0147168 
-0.171602 -0.984155 0.0446335 -0.177213 -0.922558 -0.342758 0.0209694 0.998715 -0.0461276 
0.365472 0.929503 -0.0495462 0.278042 0.956596 -0.0872679 0.223911 0.973044 -0.0552213 
0.0271889 0.998497 -0.0475849 0.153412 0.985332 -0.0747336 0.0073224 0.99906 -0.0427151 
0.0217354 0.998396 -0.0522746 -0.141633 0.989901 -0.00605317 -0.285205 0.956462 0.0619496 
-0.356192 0.930548 0.0848977 0.403807 0.913241 -0.0541319 0.526883 0.84251 -0.112118 
0.367353 0.896142 -0.248961 0.196843 0.718038 -0.667589 -0.37597 0.921972 0.0928167 
-0.380021 0.920605 0.0898404 -0.443138 0.894711 0.0558574 0.648872 0.746184 -0.148912 
0.659308 0.738315 -0.142138 0.479859 0.584025 -0.654714 -0.534829 0.84489 0.0109214 
-0.544453 0.838784 0.00361634 -0.683708 0.722366 -0.103585 0.765473 0.600102 -0.232227 
0.780466 0.56918 -0.258664 -0.702048 0.702688 -0.115575 -0.697351 0.654041 -0.293142 
-0.838728 0.491965 -0.233465 0.853269 0.42879 -0.296769 0.635563 0.383018 -0.670341 
-0.840331 0.48918 -0.233552 -0.838419 0.48984 -0.238977 0.903037 0.274308 -0.330574 
0.919085 0.17735 -0.351894 -0.931878 0.270427 -0.241811 -0.732937 0.23417 -0.638723 
0.937723 0.0463115 -0.344284 0.936175 -0.159059 -0.313491 0.89753 0.0491627 -0.438205 
-0.944009 0.0257578 -0.328913 -0.696512 -0.0482419 -0.715922 0.934917 -0.180115 -0.305759 
-0.863208 -0.317106 -0.392832 -0.760291 -0.509926 -0.402408 -0.696348 -0.310618 -0.647005 
0.898987 -0.362219 -0.246211 0.547047 -0.289959 -0.78528 -0.740929 -0.535544 -0.405235 
-0.583218 -0.653744 -0.482157 -0.443641 -0.445319 -0.777736 0.776786 -0.59409 -0.208953 
0.752764 -0.624152 -0.209241 0.733475 -0.587055 -0.342609 -0.164142 -0.412702 -0.895955 
-0.580314 -0.655019 -0.483926 -0.472667 -0.694915 -0.541921 -0.359918 -0.552023 -0.75215 
0.665311 -0.717315 -0.206931 0.629059 -0.748088 -0.211306 0.6086 -0.688722 -0.394041 
0.45949 -0.849014 -0.260853 0.333038 -0.576406 -0.746218 -0.272311 -0.441769 -0.854802 
-0.452768 -0.686953 -0.568416 -0.454282 -0.676634 -0.579478 -0.383741 -0.605917 -0.696855 
0.399851 -0.876519 -0.268019 0.299232 -0.908765 -0.290872 0.277742 -0.840129 -0.465878 
0.22835 -0.909007 -0.348658 0.143798 -0.744786 -0.651626 0.172844 -0.908198 -0.381185 
0.0672107 -0.633532 -0.770792 0.106921 -0.896416 -0.430124 -0.0107097 -0.544876 -0.838448 
-0.0667697 -0.50567 -0.860139 -0.0650817 -0.838824 -0.540499 -0.0971558 -0.50518 -0.857528 
-0.169481 -0.791044 -0.587815 -0.123963 -0.539408 -0.83287 -0.2943 -0.721316 -0.62697 
-0.23089 -0.602907 -0.763671 -0.404181 -0.704108 -0.583841 -0.386687 -0.715879 -0.581369 
-0.374681 -0.671268 -0.639541 0.0278675 -0.872753 -0.487365 0.0182175 -0.869798 -0.493072 
0.0257125 -0.872014 -0.488805 0.0255391 -0.871288 -0.490107 0.187991 0.67598 -0.712538 
0.119177 0.726634 -0.676609 0.0620056 0.753897 -0.65406 -0.0349821 0.792753 -0.608539 
-0.164932 0.82568 -0.53949 -0.305178 0.81709 -0.489112 0.319659 0.633634 -0.704504 
0.189746 0.690997 -0.697509 0.189386 0.690324 -0.698274 0.177886 0.596428 -0.782707 
0.13284 0.535473 -0.83404 0.0608443 0.483607 -0.873168 -0.00387331 0.474732 -0.880122 
-0.127827 0.558614 -0.819519 -0.359513 0.823299 -0.439236 -0.265743 0.727047 -0.633074 
-0.395228 0.801026 -0.449613 -0.448189 0.690016 -0.568334 0.518856 0.37974 -0.765889 
0.418972 0.518386 -0.745479 0.420632 0.493791 -0.761077 0.261643 0.405414 -0.875889 
0.139029 0.343275 -0.928888 0.0686361 0.277683 -0.958218 0.0777426 0.212005 -0.974172 
0.0423729 0.126837 -0.991018 -0.0218644 0.114057 -0.993234 -0.04224 0.159521 -0.98629 
-0.0726939 0.298132 -0.951753 -0.265427 0.359592 -0.894562 -0.490429 0.639536 -0.592007 
-0.413922 0.575788 -0.705079 -0.506015 0.552485 -0.662352 0.529516 0.358469 -0.768838 
0.494236 0.337178 -0.801275 0.289397 0.23391 -0.928189 0.196469 0.16282 -0.966897 
0.048681 0.0947938 -0.994306 0.0262331 0.0678072 -0.997353 -0.0103992 -0.00126833 -0.999945 
-0.0238952 -0.0431838 -0.998781 0.0101736 -0.0882694 -0.996045 0.0701894 -0.0376417 -0.996823 
-0.0212272 0.036564 -0.999106 -0.132944 0.101063 -0.985957 -0.218772 0.281565 -0.93427 
-0.52558 0.465977 -0.711781 -0.441885 0.416429 -0.794559 -0.561553 0.272191 -0.78139 
0.441458 0.249061 -0.862023 0.537995 0.273274 -0.797423 0.367361 0.176452 -0.913187 
0.221143 0.12311 -0.96744 0.136525 -0.00371592 -0.99063 0.0376801 -0.0249219 -0.998979 
-0.0296901 -0.04181 -0.998684 -0.0327177 -0.107632 -0.993652 -0.0432771 -0.0313069 -0.998572 
-0.0151442 0.0268348 -0.999525 0.0778119 -0.121405 -0.989548 0.068042 -0.117329 -0.990759 
0.0151026 0.0122587 -0.999811 -0.139406 0.0565135 -0.988621 -0.328558 0.138644 -0.934252 
-0.560607 0.265601 -0.784331 -0.552982 0.26064 -0.791377 0.566252 0.231466 -0.791064 
0.526145 0.223389 -0.82053 0.286068 0.102884 -0.95267 0.107936 0.0815569 -0.990807 
0.0430574 -0.00944544 -0.999028 0.0130349 -0.0483017 -0.998748 -0.0553302 -0.0300309 -0.998016 
-0.00799378 0.0848604 -0.996361 0.130231 -0.0421554 -0.990587 -0.111636 0.0878296 -0.98986 
-0.0617436 -0.0160243 -0.997963 0.114469 -0.0189192 -0.993247 0.0454422 -0.00721953 -0.998941 
-0.0795457 -0.0159868 -0.996703 -0.200551 0.039714 -0.978878 -0.535597 0.173157 -0.82653 
-0.404111 0.130059 -0.905416 0.584108 0.0461075 -0.810365 0.45981 0.0421738 -0.887016 
0.218997 -0.00235669 -0.975723 0.128949 0.020995 -0.991429 0.0123304 0.0197159 -0.99973 
0.0171143 -0.00847568 -0.999818 0.110905 -0.0687561 -0.99145 -0.0408037 0.0246143 -0.998864 
-0.074903 -0.00501582 -0.997178 0.0101662 -0.143546 -0.989591 0.00173962 0.0546072 -0.998506 
0.0751384 0.0238371 -0.996888 0.0155541 -0.0214248 -0.999649 -0.0849981 -0.0469857 -0.995273 
-0.211841 -0.0440006 -0.976313 -0.534014 -0.0550085 -0.843684 -0.383316 -0.0545117 -0.922007 
0.588682 -0.137452 -0.796593 0.53581 -0.270826 -0.799726 0.503121 -0.12801 -0.854683 
0.250453 -0.00713815 -0.968103 0.149916 -0.0200839 -0.988495 0.0137969 0.0236487 -0.999625 
-0.0744529 0.0122155 -0.99715 -0.066884 -0.0724329 -0.995128 0.0580365 -0.272802 -0.960318 
-0.00614728 -0.103994 -0.994559 -0.0117945 -0.0602911 -0.998111 0.0646932 -0.0464583 -0.996823 
0.0363057 -0.121007 -0.991987 -0.0247765 -0.156533 -0.987362 -0.103046 -0.199108 -0.974545 
-0.219802 -0.217004 -0.951103 -0.492856 -0.217501 -0.842488 -0.425386 -0.360533 -0.830098 
-0.415513 -0.192676 -0.888946 0.522378 -0.283519 -0.8042 0.314489 -0.164685 -0.934866 
0.135474 -0.101635 -0.985554 0.0431414 -0.0267517 -0.998711 -0.0770489 -0.0156538 -0.996904 
-0.147583 0.0131623 -0.988962 -0.0606298 0.00233018 -0.998158 0.110876 -0.0879008 -0.989939 
0.0515524 -0.0600664 -0.996862 -0.0571332 -0.128538 -0.990058 -0.0375598 -0.217831 -0.975264 
-0.070947 -0.29652 -0.952388 -0.152466 -0.390687 -0.907809 -0.153406 -0.346676 -0.925355 
-0.340922 -0.406216 -0.847798 -0.245148 -0.417276 -0.87509 -0.202708 -0.358214 -0.911368 
0.489518 -0.364841 -0.791999 0.48275 -0.374106 -0.791832 0.47953 -0.358468 -0.800969 
0.321216 -0.544488 -0.774824 0.257539 -0.253421 -0.932444 0.0992869 -0.197407 -0.975281 
-0.0355368 -0.127775 -0.991166 -0.0705487 -0.0647466 -0.995405 -0.0645145 -0.0122149 -0.997842 
-0.0275842 -0.0780056 -0.996571 -0.0360815 -0.189877 -0.981145 -0.0945384 -0.203959 -0.974404 
-0.135034 -0.234511 -0.962689 -0.158124 -0.379021 -0.911778 -0.190068 -0.371035 -0.908959 
-0.164164 -0.351193 -0.921799 0.308432 -0.551135 -0.775319 0.217538 -0.599533 -0.770219 
0.178891 -0.434353 -0.8828 0.101444 -0.610653 -0.785374 0.0613659 -0.368046 -0.92778 
0.0505273 -0.569188 -0.820653 -0.0224461 -0.301839 -0.953095 -0.0216575 -0.503239 -0.863876 
-0.0714679 -0.265709 -0.9614 -0.0708396 -0.43029 -0.899907 -0.0698493 -0.271675 -0.959851 
-0.0902627 -0.404471 -0.910085 -0.0777641 -0.312417 -0.946757 -0.099155 -0.383151 -0.918348 
-0.102229 -0.333138 -0.93732 -0.192734 -0.327358 -0.925035 -0.190524 -0.331463 -0.924031 
-0.188968 -0.321333 -0.92792 
