# vtk DataFile Version 4.2
vtk output
ASCII
DATASET POLYDATA
POINTS 508 float
0.212137 -34.1764 -19.8687 7.59573 -34.1764 -19.9182 -21.9386 -26.7928 -20.733 
-14.555 -26.7928 -22.5477 -7.17145 -26.7928 -23.4669 0.212137 -26.7928 -24.1044 
7.59573 -26.7928 -24.1257 14.9793 -26.7928 -23.5233 22.3629 -26.7928 -21.0826 
-29.3222 -19.4092 -21.156 -21.9386 -19.4092 -24.0182 -14.555 -19.4092 -25.2118 
-7.17145 -19.4092 -25.3004 0.212137 -19.4092 -25.1609 7.59573 -19.4092 -25.4188 
14.9793 -19.4092 -25.7423 22.3629 -19.4092 -24.7694 29.7465 -19.4092 -21.2791 
-29.3222 -12.0256 -22.268 -21.9386 -12.0256 -24.3204 -14.555 -12.0256 -25.1073 
-7.17145 -12.0256 -25.407 0.212137 -12.0256 -24.912 7.59573 -12.0256 -25.0791 
14.9793 -12.0256 -25.7535 22.3629 -12.0256 -25.7028 29.7465 -12.0256 -23.6147 
37.1301 -12.0256 -18.8556 -29.3222 -4.64205 -22.096 -21.9386 -4.64205 -23.4979 
-14.555 -4.64205 -24.2349 -7.17145 -4.64205 -25.3623 0.212137 -4.64205 -25.234 
7.59573 -4.64205 -24.8311 14.9793 -4.64205 -25.2831 22.3629 -4.64205 -25.471 
29.7465 -4.64205 -24.6261 37.1301 -4.64205 -21.0019 -29.3222 2.74154 -21.8971 
-21.9386 2.74154 -23.172 -14.555 2.74154 -23.9288 -7.17145 2.74154 -25.6129 
0.212137 2.74154 -25.9872 7.59573 2.74154 -24.659 14.9793 2.74154 -24.4189 
22.3629 2.74154 -24.7775 29.7465 2.74154 -24.5418 37.1301 2.74154 -21.5838 
-29.3222 10.1251 -21.7565 -21.9386 10.1251 -23.746 -14.555 10.1251 -24.6518 
-7.17145 10.1251 -25.4002 0.212137 10.1251 -25.2284 7.59573 10.1251 -23.9899 
14.9793 10.1251 -23.6607 22.3629 10.1251 -24.2028 29.7465 10.1251 -23.545 
37.1301 10.1251 -20.7612 -29.3222 17.5087 -20.6452 -21.9386 17.5087 -23.3863 
-14.555 17.5087 -24.5393 -7.17145 17.5087 -24.5394 0.212137 17.5087 -23.9055 
7.59573 17.5087 -23.4122 14.9793 17.5087 -23.3941 22.3629 17.5087 -23.3335 
29.7465 17.5087 -22.0667 -21.9386 24.8923 -21.7074 -14.555 24.8923 -23.2916 
-7.17145 24.8923 -23.1785 0.212137 24.8923 -22.5096 7.59573 24.8923 -22.2466 
14.9793 24.8923 -21.9073 22.3629 24.8923 -21.1871 29.7465 24.8923 -18.898 
-14.555 32.2759 -20.3339 -7.17145 32.2759 -20.5163 0.212137 32.2759 -19.9283 
7.59573 32.2759 -19.2441 0.212137 -35.3175 -18.7316 7.59573 -35.2313 -18.7316 
-21.9386 -29.1378 -18.7316 -14.555 -31.5698 -18.7316 -14.555 -34.1764 -15.0653 
-5.32899 -34.1764 -18.7316 -7.17145 -33.6944 -18.7316 -7.17145 -34.1764 -18.149 
11.7004 -34.1764 -18.7316 14.9793 -33.1294 -18.7316 14.9793 -34.1764 -17.0577 
22.3629 -29.3007 -18.7316 -25.9178 -26.7928 -18.7316 -29.3222 -23.8552 -18.7316 
-29.3222 -26.7928 -16.0013 25.85 -26.7928 -18.7316 29.7465 -23.1048 -18.7316 
29.7465 -26.7928 -13.5245 -32.6578 -19.4092 -18.7316 -36.7058 -19.4092 -13.4276 
32.7131 -19.4092 -18.7316 37.1301 -12.2545 -18.7316 -35.3919 -12.0256 -18.7316 
-36.7058 -12.0256 -17.4573 37.2474 -12.0256 -18.7316 -36.6609 -4.64205 -18.7316 
-36.7058 -4.64205 -18.7029 39.6434 -4.64205 -18.7316 -36.5601 2.74154 -18.7316 
-36.7058 2.74154 -18.6452 40.5107 2.74154 -18.7316 44.5137 2.74154 -11.732 
-34.9107 10.1251 -18.7316 -36.7058 10.1251 -17.2961 39.584 10.1251 -18.7316 
37.1301 16.1537 -18.7316 -32.1048 17.5087 -18.7316 -36.7058 17.5087 -13.911 
-29.3222 22.4878 -18.7316 36.2272 17.5087 -18.7316 37.1301 17.5087 -18.007 
-27.6831 24.8923 -18.7316 -29.3222 24.8923 -17.4005 -21.9386 30.5823 -18.7316 
14.9793 31.9434 -18.7316 22.3629 28.96 -18.7316 30.0255 24.8923 -18.7316 
29.7465 25.1366 -18.7316 -19.2654 32.2759 -18.7316 -21.9386 32.2759 -17.3142 
-14.555 34.5269 -18.7316 -7.17145 34.8069 -18.7316 0.212137 34.127 -18.7316 
13.167 32.2759 -18.7316 7.59573 33.0042 -18.7316 14.9793 32.2759 -18.5269 
22.3629 32.2759 -15.8956 -14.555 39.6595 -12.3516 -7.17145 39.6595 -13.887 
0.212137 39.6595 -13.154 -14.555 -36.1969 -11.348 -7.17145 -38.0109 -11.348 
0.212137 -39.2129 -11.348 7.59573 -38.9448 -11.348 14.9793 -36.8005 -11.348 
-29.3222 -29.6795 -11.348 -21.592 -34.1764 -11.348 -21.9386 -34.0665 -11.348 
-21.9386 -34.1764 -11.0019 20.3906 -34.1764 -11.348 22.3629 -33.1623 -11.348 
22.3629 -34.1764 -5.10591 29.7465 -27.8706 -11.348 -32.6912 -26.7928 -11.348 
-36.7058 -21.342 -11.348 30.9002 -26.7928 -11.348 -37.8767 -19.4092 -11.348 
37.1036 -19.4092 -11.348 37.1301 -19.3659 -11.348 37.1301 -19.4092 -11.2195 
-40.6641 -12.0256 -11.348 41.1419 -12.0256 -11.348 -42.1677 -4.64205 -11.348 
43.6827 -4.64205 -11.348 44.5137 1.45466 -11.348 44.5137 -4.64205 -5.98892 
-42.3785 2.74154 -11.348 -44.0894 2.74154 -4.52795 44.6833 2.74154 -11.348 
44.5137 4.63246 -11.348 -41.1851 10.1251 -11.348 44.0149 10.1251 -11.348 
44.5137 10.1251 -6.08981 -38.4174 17.5087 -11.348 -36.7058 20.565 -11.348 
41.5359 17.5087 -11.348 37.1301 24.5622 -11.348 -34.0347 24.8923 -11.348 
-29.3222 30.8999 -11.348 36.8889 24.8923 -11.348 29.7465 31.5486 -11.348 
37.1301 24.8923 -10.177 -27.9067 32.2759 -11.348 -29.3222 32.2759 -6.695 
-21.9386 36.7376 -11.348 7.59573 39.4721 -11.348 14.9793 37.8054 -11.348 
28.515 32.2759 -11.348 22.3629 35.4926 -11.348 29.7465 32.2759 -8.28626 
-15.9321 39.6595 -11.348 -14.555 40.2137 -11.348 -7.17145 41.3014 -11.348 
6.62482 39.6595 -11.348 0.212137 40.8109 -11.348 7.59573 39.6595 -10.4654 
-21.9386 -36.0643 -3.96441 -14.555 -38.4693 -3.96441 -7.17145 -40.2204 -3.96441 
0.212137 -41.0682 -3.96441 0.212137 -41.56 1.67359 7.59573 -40.3836 -3.96441 
14.9793 -38.1017 -3.96441 22.3629 -34.3596 -3.96441 -25.3952 -34.1764 -3.96441 
-29.3222 -31.5604 -3.96441 22.6555 -34.1764 -3.96441 29.7465 -29.1629 -3.96441 
-34.5029 -26.7928 -3.96441 -36.7058 -23.6606 -3.96441 32.2883 -26.7928 -3.96441 
37.1301 -21.2742 -3.96441 -39.1762 -19.4092 -3.96441 38.4743 -19.4092 -3.96441 
-42.097 -12.0256 -3.96441 42.4323 -12.0256 -3.96441 44.5137 -5.61683 -3.96441 
-43.8371 -4.64205 -3.96441 -44.0894 0.298855 -3.96441 44.8128 -4.64205 -3.96441 
44.5137 -4.64205 -0.231544 -44.216 2.74154 -3.96441 -44.0894 3.55732 -3.96441 
-44.0894 2.74154 -1.6214 45.5741 2.74154 -3.96441 -43.0365 10.1251 -3.96441 
44.7063 10.1251 -3.96441 44.5137 10.7952 -3.96441 44.5137 10.1251 -2.46555 
-40.3989 17.5087 -3.96441 -36.7058 24.272 -3.96441 42.4019 17.5087 -3.96441 
-36.3223 24.8923 -3.96441 38.2831 24.8923 -3.96441 37.1301 26.3724 -3.96441 
37.1301 24.8923 2.81274 -29.9488 32.2759 -3.96441 -29.3222 32.8676 -3.96441 
-21.9386 38.2059 -3.96441 14.9793 39.1557 -3.96441 22.3629 36.9558 -3.96441 
31.0573 32.2759 -3.96441 29.7465 33.2572 -3.96441 29.7465 32.2759 2.53506 
-18.9967 39.6595 -3.96441 -14.555 41.5159 -3.96441 -7.17145 42.8207 -3.96441 
0.212137 42.3567 -3.96441 12.8327 39.6595 -3.96441 7.59573 40.8691 -3.96441 
0.212137 -41.7091 3.41918 -21.9386 -36.5954 3.41918 -14.555 -39.3951 3.41918 
-1.88991 -41.56 3.41918 -7.17145 -41.1756 3.41918 1.37971 -41.56 3.41918 
0.212137 -41.56 4.77059 7.59573 -40.7568 3.41918 14.9793 -38.2114 3.41918 
22.3629 -34.2955 3.41918 -26.0471 -34.1764 3.41918 -29.3222 -31.7622 3.41918 
22.5447 -34.1764 3.41918 22.3629 -34.1764 4.08466 29.7465 -28.8187 3.41918 
-34.3837 -26.7928 3.41918 -36.7058 -23.3961 3.41918 31.8641 -26.7928 3.41918 
29.7465 -26.7928 10.6706 37.1301 -20.6111 3.41918 -39.0086 -19.4092 3.41918 
37.9867 -19.4092 3.41918 37.1301 -19.4092 6.21318 -41.8602 -12.0256 3.41918 
41.9046 -12.0256 3.41918 -43.5197 -4.64205 3.41918 44.2172 -4.64205 3.41918 
44.5137 -0.798394 3.41918 -43.811 2.74154 3.41918 44.7781 2.74154 3.41918 
44.5137 4.65459 3.41918 44.5137 2.74154 4.19668 -42.7538 10.1251 3.41918 
43.7281 10.1251 3.41918 -40.1584 17.5087 3.41918 -36.7058 24.1394 3.41918 
41.1908 17.5087 3.41918 37.1301 24.7277 3.41918 -36.2405 24.8923 3.41918 
37.0238 24.8923 3.41918 29.7465 32.1374 3.41918 -29.4487 32.2759 3.41918 
-29.3222 32.3907 3.41918 -29.3222 32.2759 3.86282 -21.9386 37.6312 3.41918 
14.9793 38.357 3.41918 29.5197 32.2759 3.41918 22.3629 36.0298 3.41918 
-17.5035 39.6595 3.41918 -14.555 40.8645 3.41918 -14.555 39.6595 7.85196 
-7.17145 42.1842 3.41918 0.212137 41.7718 3.41918 9.96499 39.6595 3.41918 
7.59573 40.2531 3.41918 7.59573 39.6595 5.62801 -21.9386 -35.3879 10.8028 
-14.555 -38.5742 10.8028 -7.17145 -40.4346 10.8028 0.212137 -40.8601 10.8028 
7.59573 -39.7274 10.8028 14.9793 -37.0973 10.8028 -23.8531 -34.1764 10.8028 
-29.3222 -29.7389 10.8028 -21.9386 -34.1764 12.9651 -14.555 -34.1764 18.0573 
20.2663 -34.1764 10.8028 14.9793 -34.1764 16.9252 22.3629 -32.8482 10.8028 
-32.2251 -26.7928 10.8028 -36.7058 -20.0524 10.8028 -29.3222 -26.7928 14.3483 
29.703 -26.7928 10.8028 29.7465 -26.7447 10.8028 -37.0741 -19.4092 10.8028 
-36.7058 -19.4092 11.3562 35.4884 -19.4092 10.8028 29.7465 -19.4092 17.9078 
37.1301 -16.6231 10.8028 -39.8503 -12.0256 10.8028 -36.7058 -12.0256 15.0004 
39.5139 -12.0256 10.8028 37.1301 -12.0256 13.9632 -40.9846 -4.64205 10.8028 
-36.7058 -4.64205 16.0252 41.7046 -4.64205 10.8028 37.1301 -4.64205 16.0772 
-40.894 2.74154 10.8028 -36.7058 2.74154 15.7866 41.8557 2.74154 10.8028 
37.1301 2.74154 15.9815 -40.0561 10.1251 10.8028 -36.7058 10.1251 15.0118 
40.4936 10.1251 10.8028 37.1301 10.1251 14.4338 -37.9577 17.5087 10.8028 
-36.7058 20.0703 10.8028 -36.7058 17.5087 12.8167 29.7465 17.5087 17.2392 
37.5137 17.5087 10.8028 37.1301 18.2055 10.8028 37.1301 17.5087 11.2469 
-33.9229 24.8923 10.8028 -29.3222 30.1114 10.8028 -29.3222 24.8923 16.9315 
22.3629 24.8923 18.0389 32.8383 24.8923 10.8028 29.7465 28.0143 10.8028 
29.7465 24.8923 13.7649 -26.8002 32.2759 10.8028 -21.9386 35.5098 10.8028 
-21.9386 32.2759 16.0483 -14.555 38.7405 10.8028 7.59573 38.1677 10.8028 
14.9793 35.8905 10.8028 14.9793 32.2759 15.995 23.5507 32.2759 10.8028 
22.3629 32.9438 10.8028 22.3629 32.2759 11.7285 -9.27273 39.6595 10.8028 
-7.17145 39.9986 10.8028 -7.17145 39.6595 11.4968 0.706511 39.6595 10.8028 
0.212137 39.7636 10.8028 0.212137 39.6595 11.0247 -7.17145 -36.4349 18.1864 
0.212137 -37.1665 18.1864 7.59573 -36.1913 18.1864 -21.9386 -29.6295 18.1864 
-14.2675 -34.1764 18.1864 -14.555 -34.053 18.1864 -7.17145 -34.1764 20.4541 
0.212137 -34.1764 21.276 13.162 -34.1764 18.1864 7.59573 -34.1764 20.5306 
[...]
POINT_DATA 508
SCALARS ImageScalars float
LOOKUP_TABLE default
0 0 0 0 0 0 0 0 0 
0 0 0 0 0 0 0 0 0 
0 0 0 0 0 0 0 0 0 
0 0 0 0 0 0 0 0 0 
0 0 0 0 0 0 0 0 0 
0 0 0 0 0 0 0 0 0 
0 0 0 0 0 0 0 0 0 
0 0 0 0 0 0 0 0 0 
0 0 0 0 0 0 0 0 0 
0 0 0 0 0 0 0 0 0 
0 0 0 0 0 0 0 0 0 
0 0 0 0 0 0 0 0 0 
0 0 0 0 0 0 0 0 0 
0 0 0 0 0 0 0 0 0 
0 0 0 0 0 0 0 0 0 
0 0 0 0 0 0 0 0 0 
0 0 0 0 0 0 0 0 0 
0 0 0 0 0 0 0 0 0 
0 0 0 0 0 0 0 0 0 
0 0 0 0 0 0 0 0 0 
0 0 0 0 0 0 0 0 0 
0 0 0 0 0 0 0 0 0 
0 0 0 0 0 0 0 0 0 
0 0 0 0 0 0 0 0 0 
0 0 0 0 0 0 0 0 0 
0 0 0 0 0 0 0 0 0 
0 0 0 0 0 0 0 0 0 
0 0 0 0 0 0 0 0 0 
0 0 0 0 0 0 0 0 0 
0 0 0 0 0 0 0 0 0 
0 0 0 0 0 0 0 0 0 
0 0 0 0 0 0 0 0 0 
0 0 0 0 0 0 0 0 0 
0 0 0 0 0 0 0 0 0 
0 0 0 0 0 0 0 0 0 
0 0 0 0 0 0 0 0 0 
0 0 0 0 0 0 0 0 0 
0 0 0 0 0 0 0 0 0 
0 0 0 0 0 0 0 0 0 
0 0 0 0 0 0 0 0 0 
0 0 0 0 0 0 0 0 0 
0 0 0 0 0 0 0 0 0 
0 0 0 0 0 0 0 0 0 
0 0 0 0 0 0 0 0 0 
0 0 0 0 0 0 0 0 0 
0 0 0 0 0 0 0 0 0 
0 0 0 0 0 0 0 0 0 
0 0 0 0 0 0 0 0 0 
0 0 0 0 0 0 0 0 0 
0 0 0 0 0 0 0 0 0 
0 0 0 0 0 0 0 0 0 
0 0 0 0 0 0 0 0 0 
0 0 0 0 0 0 0 0 0 
0 0 0 0 0 0 0 0 0 
0 0 0 0 0 0 0 0 0 
0 0 0 0 0 0 0 0 0 
0 0 0 0 
NORMALS Normals float
0.0814411 0.690819 0.718426 -0.10606 0.715543 0.69047 0.31403 0.550114 0.773795 
0.156127 0.484332 0.860841 0.0979906 0.382605 0.918701 0.0416741 0.309123 0.950108 
-0.0351315 0.30158 0.952793 -0.165411 0.425118 0.889895 -0.40073 0.568999 0.718092 
0.472062 0.294815 0.830808 0.237393 0.191955 0.952259 0.0794239 0.148349 0.98574 
-0.00410862 0.122684 0.992437 0.00787269 0.0511286 0.998661 0.0390104 0.0618788 0.997321 
-0.0348958 0.132388 0.990583 -0.247993 0.25059 0.935791 -0.534814 0.406188 0.740935 
0.384298 0.05171 0.92176 0.189451 -0.0377988 0.981162 0.0719104 -0.0654337 0.995262 
-0.0132865 0.00409314 0.999903 -0.0223523 0.00423878 0.999741 0.0569477 -0.0395751 0.997593 
0.0422174 -0.0307891 0.998634 -0.134195 0.0398261 0.990154 -0.392109 0.191313 0.899805 
-0.705953 0.328642 0.627395 0.299443 -0.0242858 0.953805 0.137476 -0.0760368 0.987582 
0.126063 -0.0793035 0.988847 0.0674637 0.013702 0.997628 -0.0362679 0.0730634 0.996668 
0.00328737 -0.0282587 0.999595 0.0438003 -0.090358 0.994946 -0.0400938 -0.0618145 0.997282 
-0.256474 0.0567505 0.964884 -0.601075 0.151073 0.784784 0.286363 -0.0222846 0.957862 
0.129377 0.015325 0.991477 0.165312 0.0271466 0.985868 0.139106 0.00256091 0.990274 
-0.0643242 0.000342437 0.997929 -0.106061 -0.0564866 0.992754 0.00814672 -0.109742 0.993927 
0.00877075 -0.085672 0.996285 -0.189909 -0.0694509 0.979342 -0.53995 -0.0176745 0.841511 
0.364932 -0.0715436 0.928281 0.192932 0.0161768 0.981079 0.111084 0.0409186 0.992968 
0.0380249 -0.0717497 0.996698 -0.094542 -0.140309 0.985584 -0.105114 -0.0841817 0.990891 
0.0143686 -0.0681787 0.99757 -0.00583422 -0.0954487 0.995417 -0.212084 -0.152429 0.96529 
-0.537706 -0.185768 0.822413 0.472148 -0.236459 0.849213 0.233332 -0.126027 0.964196 
0.076097 -0.0844475 0.993518 -0.0422265 -0.150429 0.987719 -0.0750744 -0.177898 0.981181 
-0.0340081 -0.117138 0.992533 -0.00516898 -0.113471 0.993528 -0.0775734 -0.183507 0.979953 
-0.283603 -0.287829 0.914726 0.315968 -0.332847 0.888469 0.0906696 -0.266593 0.959535 
-0.0503779 -0.240877 0.969247 -0.0633396 -0.254041 0.965117 -0.0383596 -0.247056 0.968242 
-0.0662877 -0.301097 0.951287 -0.183691 -0.386769 0.903696 -0.395853 -0.484247 0.78026 
0.157203 -0.502484 0.850175 -0.0265181 -0.478229 0.877834 -0.0731754 -0.455874 0.887031 
-0.0858084 -0.51725 0.851522 0.0813657 0.742465 0.664925 -0.11643 0.767862 0.629946 
0.329477 0.655262 0.679763 0.207556 0.704772 0.678393 0.229887 0.833697 0.502098 
0.163783 0.738681 0.653854 0.187136 0.729946 0.657388 0.191635 0.758598 0.62274 
-0.217756 0.761471 0.610527 -0.291858 0.739253 0.606897 -0.315141 0.799577 0.511237 
-0.442021 0.667105 0.599657 0.426287 0.592419 0.683608 0.509983 0.493491 0.704545 
0.540798 0.647941 0.536386 -0.513729 0.61883 0.59425 -0.587045 0.541409 0.601876 
-0.644978 0.687023 0.33467 0.609654 0.342815 0.714702 0.815638 0.413473 0.404691 
-0.638766 0.463181 0.614363 -0.708906 0.334562 0.620903 0.632422 0.153132 0.759337 
0.715701 0.189038 0.672337 -0.710165 0.330161 0.621819 0.593898 0.0473123 0.803148 
0.596524 0.0480315 0.801157 -0.716779 0.182856 0.672898 0.571828 -0.0639822 0.817874 
0.579927 -0.0651173 0.812061 -0.714644 -0.0029091 0.699482 -0.956951 0.0191631 0.289617 
0.570057 -0.158583 0.806156 0.668509 -0.1953 0.717603 -0.661091 -0.199402 0.723324 
-0.6048 -0.358366 0.71119 0.578116 -0.283745 0.76503 0.777383 -0.381845 0.49987 
0.552482 -0.365282 0.749221 -0.578253 -0.384869 0.719375 -0.633181 -0.402277 0.661253 
0.522334 -0.406698 0.749509 0.603055 -0.440982 0.664725 0.389363 -0.538507 0.747266 
-0.149283 -0.560771 0.814402 -0.250441 -0.551886 0.795425 -0.40543 -0.487377 0.773363 
-0.398473 -0.491898 0.774116 0.318029 -0.56988 0.75769 0.426755 -0.622883 0.655666 
0.174202 -0.603483 0.778114 -0.0161936 -0.587223 0.809263 -0.0741661 -0.538129 0.839593 
-0.136073 -0.560806 0.816689 -0.0924366 -0.549619 0.830286 -0.154546 -0.579675 0.800058 
-0.329099 -0.726434 0.603314 0.25297 -0.882794 0.39583 0.0247806 -0.851916 0.523091 
-0.107432 -0.865366 0.489489 0.248336 0.89271 0.376029 0.190411 0.907107 0.375368 
0.0578576 0.940422 0.33505 -0.148305 0.94137 0.30303 -0.348878 0.895321 0.276918 
0.56305 0.758295 0.328578 0.351955 0.869398 0.346806 0.35773 0.867374 0.345965 
0.359618 0.87047 0.336092 -0.450364 0.855992 0.253871 -0.487834 0.836138 0.250783 
-0.501832 0.860105 0.0915651 -0.649324 0.718621 0.248921 0.66894 0.671774 0.318181 
0.821556 0.478409 0.310114 -0.672548 0.696518 0.250086 0.851009 0.424249 0.309509 
-0.801466 0.531575 0.274009 -0.802021 0.530705 0.274071 -0.802468 0.532105 0.270018 
0.901206 0.252583 0.352177 -0.875374 0.387158 0.289531 0.913223 0.10739 0.393053 
-0.934568 0.220572 0.279162 -0.960445 0.0540884 0.273167 -0.97323 0.208313 0.0971001 
0.907525 -0.0600681 0.41568 0.993015 -0.0515811 0.106114 -0.962001 0.0199435 0.272317 
-0.962202 -0.031303 0.27053 0.883391 -0.232646 0.406812 -0.945648 -0.185529 0.267075 
-0.978828 -0.195584 0.0603579 0.829478 -0.40065 0.389161 0.802386 -0.457053 0.383771 
-0.859158 -0.41105 0.30477 -0.751463 -0.576021 0.321721 0.760551 -0.528914 0.376579 
0.676147 -0.649745 0.347357 -0.743773 -0.584394 0.324477 -0.52347 -0.773302 0.357749 
-0.763572 -0.585702 0.271866 0.637788 -0.689268 0.343708 0.679308 -0.716286 0.159608 
0.48916 -0.800434 0.346452 -0.188601 -0.912517 0.362962 -0.240134 -0.899505 0.365002 
-0.493472 -0.792153 0.359136 -0.353409 -0.858063 0.372598 -0.539422 -0.812895 0.219601 
0.301025 -0.888181 0.347157 0.258217 -0.90112 0.348291 0.0384069 -0.916519 0.398143 
-0.179544 -0.913469 0.365155 -0.11639 -0.90894 0.400352 -0.193134 -0.927255 0.320775 
0.395562 0.904742 0.158025 0.270965 0.941616 0.199842 0.169046 0.964119 0.204691 
0.00838819 0.986534 0.163344 -0.0201008 0.999385 0.0287459 -0.189539 0.974785 0.117769 
-0.370264 0.924896 0.0864387 -0.503563 0.861536 0.0646607 0.48658 0.862598 0.138437 
0.602074 0.790911 0.109391 -0.50839 0.858735 0.0641324 -0.655935 0.753279 0.0481682 
0.756053 0.649971 0.0769465 0.836273 0.544011 0.0685478 -0.705081 0.707684 0.0452118 
-0.807217 0.58828 0.0482478 0.895522 0.44074 0.0615521 -0.834345 0.549141 0.0480972 
0.95406 0.291153 0.0707108 -0.921062 0.38694 0.0438472 -0.973284 0.227067 0.0340475 
0.987343 0.136909 0.0800556 0.996501 0.0113205 0.0828084 -0.978639 0.203058 0.0321483 
-0.978465 0.192675 -0.0740483 0.995193 -0.0507692 0.0837442 0.993886 -0.0706454 0.0848544 
0.998731 -0.0502758 -0.00298573 -0.999958 -0.00805903 0.00437474 0.96673 -0.238584 0.092253 
-0.979979 -0.198204 -0.018881 -0.97672 -0.213612 -0.0196921 -0.977097 -0.203156 -0.063318 
0.903948 -0.4166 0.0965541 0.827461 -0.550474 0.110842 -0.92287 -0.384361 -0.0240184 
0.818698 -0.563468 0.110623 -0.818996 -0.573789 0.00347864 -0.789816 -0.61331 0.00640288 
-0.789844 -0.564515 -0.239727 0.686077 -0.724918 0.0615813 0.673336 -0.736995 0.0587987 
0.500683 -0.864639 0.0414222 -0.250297 -0.967686 0.0305875 -0.350759 -0.935991 0.0298112 
-0.58439 -0.81102 0.0271102 -0.546566 -0.836887 0.0297583 -0.552064 -0.804972 -0.21736 
0.414238 -0.909439 0.0364359 0.284902 -0.95781 0.0378245 0.0563188 -0.997015 0.052807 
-0.128149 -0.990129 0.0567712 -0.238496 -0.970511 0.0350358 -0.211676 -0.976288 0.0453276 
-0.0284176 0.999522 -0.0121408 0.438116 0.898231 -0.0351551 0.295366 0.955348 0.00830535 
0.0224973 0.999735 -0.00486636 0.152521 0.988198 0.0142214 -0.0589407 0.998122 -0.016672 
-0.0318963 0.997925 -0.0559316 -0.222649 0.974048 -0.0407163 -0.395101 0.916693 -0.0597363 
-0.525295 0.847173 -0.0797671 0.543265 0.837588 -0.0575225 0.635691 0.767658 -0.0812298 
-0.528215 0.845282 -0.0805504 -0.527779 0.843864 -0.0966542 -0.665138 0.737494 -0.117023 
0.767771 0.631839 -0.106334 0.841067 0.529128 -0.112378 -0.703734 0.699386 -0.12497 
-0.682819 0.649641 -0.334253 -0.810733 0.56456 -0.154869 0.892615 0.436124 -0.114168 
-0.82675 0.540047 -0.157585 -0.810667 0.530867 -0.246979 0.951213 0.278937 -0.131867 
-0.910563 0.377508 -0.168413 0.977866 0.125519 -0.167403 -0.966871 0.180985 -0.180016 
-0.977081 0.0696768 -0.201143 0.979551 -0.0480254 -0.19538 -0.975171 -0.0311374 -0.219254 
-0.970999 -0.0788864 -0.225695 -0.968413 -0.035396 -0.246825 0.956924 -0.229175 -0.178256 
-0.944335 -0.218955 -0.24554 0.906966 -0.395979 -0.143572 0.829626 -0.54493 -0.121541 
-0.882062 -0.385557 -0.270761 -0.787405 -0.558087 -0.261786 0.816062 -0.565386 -0.119921 
-0.784134 -0.562725 -0.261676 -0.551281 -0.79563 -0.251123 0.665438 -0.735792 -0.125709 
0.662994 -0.737905 -0.126231 0.662215 -0.736449 -0.138253 0.476301 -0.866197 -0.151129 
-0.264752 -0.943762 -0.198041 -0.544143 -0.800864 -0.250051 -0.360299 -0.904091 -0.229792 
0.357168 -0.918978 -0.167062 0.280859 -0.944098 -0.172621 0.269913 -0.918242 -0.289791 
0.0603769 -0.981655 -0.180853 -0.126244 -0.978181 -0.164999 -0.235116 -0.955677 -0.177207 
-0.221845 -0.960473 -0.168156 -0.226244 -0.948536 -0.221571 0.465674 0.826892 -0.315274 
0.310588 0.907067 -0.284189 0.14262 0.954846 -0.260632 -0.0464751 0.964178 -0.261155 
-0.231087 0.936601 -0.263396 -0.403275 0.875418 -0.266484 0.515415 0.793079 -0.324613 
0.646276 0.66871 -0.367633 0.467651 0.780188 -0.415462 0.298341 0.679693 -0.670082 
-0.506025 0.818408 -0.272297 -0.385631 0.771941 -0.505367 -0.547309 0.787298 -0.283928 
0.705689 0.599938 -0.376932 0.817032 0.422742 -0.392107 0.622999 0.571543 -0.534051 
-0.68197 0.648502 -0.338175 -0.682832 0.647268 -0.338799 0.824115 0.407526 -0.393391 
0.813745 0.402728 -0.419082 -0.767567 0.498559 -0.40284 -0.633196 0.358454 -0.685984 
-0.791426 0.440016 -0.4243 0.87186 0.221735 -0.436684 0.753033 0.187956 -0.630566 
-0.827096 0.339936 -0.44761 -0.748335 0.30103 -0.591081 0.870175 0.0624423 -0.48877 
0.688754 0.0339137 -0.724201 -0.861181 0.138065 -0.489188 -0.663541 0.088994 -0.742828 
0.853234 -0.055895 -0.518524 0.689507 -0.0484197 -0.722659 -0.844386 -0.070221 -0.531113 
-0.635707 -0.0888234 -0.766803 0.852451 -0.175149 -0.492595 0.733677 -0.120557 -0.668718 
-0.794059 -0.237565 -0.559493 -0.647956 -0.230905 -0.725835 0.848309 -0.339667 -0.406201 
0.827972 -0.398107 -0.394935 0.817167 -0.314155 -0.483264 -0.454196 -0.251678 -0.854613 
-0.736555 -0.384621 -0.556375 -0.730261 -0.396578 -0.556278 -0.723894 -0.382043 -0.574474 
0.764312 -0.524359 -0.375332 0.648185 -0.6757 -0.351121 0.617446 -0.465182 -0.634323 
-0.375716 -0.386296 -0.842385 -0.639965 -0.530877 -0.555531 -0.55716 -0.620624 -0.551723 
-0.546457 -0.50595 -0.667382 0.57027 -0.743498 -0.349288 0.444444 -0.819387 -0.362043 
0.421257 -0.704211 -0.571515 0.261367 -0.889434 -0.374958 -0.236702 -0.900683 -0.364339 
-0.30466 -0.850125 -0.429499 -0.332482 -0.689311 -0.643666 -0.430215 -0.756209 -0.493014 
-0.406328 -0.773924 -0.485737 -0.412586 -0.748457 -0.519216 0.117112 -0.920149 -0.373645 
0.0606422 -0.925585 -0.373651 0.0616974 -0.916066 -0.396253 -0.120854 -0.927414 -0.353975 
-0.112889 -0.928346 -0.35416 -0.112528 -0.925561 -0.361489 0.165199 0.747592 -0.643285 
-0.0163657 0.789129 -0.61401 -0.203159 0.792011 -0.575712 0.439274 0.538522 -0.71905 
0.292693 0.676435 -0.675845 0.297479 0.671906 -0.678269 0.172627 0.646055 -0.743514 
0.00735116 0.669543 -0.742737 -0.333699 0.754654 -0.564927 -0.18373 0.718466 -0.670857 
-0.378443 0.7324 -0.566013 -0.542911 0.582592 -0.604842 0.495471 0.470017 -0.730474 
0.536148 0.363151 -0.762015 0.414582 0.417974 -0.808344 0.268966 0.37753 -0.886075 
0.185323 0.356013 -0.91592 -0.333414 0.45842 -0.823824 -0.566844 0.547326 -0.615729 
-0.536033 0.53154 -0.655846 0.555877 0.304391 -0.773529 0.505651 0.285014 -0.8143 
0.342542 0.211509 -0.915385 0.262193 0.203894 -0.943229 -0.625075 0.350111 -0.697641 
-0.478537 0.224474 -0.84889 -0.621365 0.335481 -0.708066 0.580935 0.129779 -0.803537 
0.455049 0.102478 -0.88455 0.348661 0.108071 -0.930997 -0.409459 -0.0113269 -0.912258 
-0.583213 0.195591 -0.78842 -0.520549 0.14493 -0.841442 0.573943 0.0224309 -0.818588 
0.456605 0.0227882 -0.889378 0.407646 0.0579924 -0.911297 -0.330396 -0.128264 -0.935087 
-0.534962 0.045135 -0.843669 -0.404488 -0.00956609 -0.914493 0.579039 -0.0352062 -0.814539 
0.484704 -0.0117874 -0.874599 0.437509 0.0301928 -0.898707 -0.339277 -0.16495 -0.926112 
-0.284903 -0.147976 -0.947066 -0.465415 -0.11261 -0.8779 -0.32871 -0.120659 -0.936691 
0.603337 -0.0645679 -0.794869 0.52173 -0.0362047 -0.852342 0.377858 -0.0460552 -0.924717 
-0.333127 -0.132413 -0.933538 -0.283348 -0.113616 -0.952263 -0.403409 -0.177732 -0.897593 
-0.400881 -0.196066 -0.894904 -0.374211 -0.171608 -0.911327 0.640707 -0.216582 -0.736605 
0.593703 -0.377397 -0.710696 0.546285 -0.189965 -0.815774 0.312255 -0.182814 -0.932242 
0.108766 -0.183174 -0.977045 -0.0588176 -0.141282 -0.988221 -0.191783 -0.179402 -0.964901 
-0.305858 -0.15397 -0.939545 -0.403324 -0.222744 -0.887533 -0.371362 -0.371889 -0.850758 
-0.318475 -0.177442 -0.931176 0.559625 -0.443032 -0.700387 0.399288 -0.608501 -0.685781 
0.366686 -0.396687 -0.841535 0.161662 -0.331505 -0.9295 0.0254245 -0.281941 -0.959095 
-0.0777914 -0.267333 -0.960459 -0.217775 -0.309722 -0.925552 -0.371839 -0.381939 -0.846084 
-0.33109 -0.540848 -0.773216 -0.315478 -0.330131 -0.889656 0.322318 -0.660115 -0.678498 
0.241414 -0.688437 -0.683939 0.227459 -0.624678 -0.747021 0.0755928 -0.718212 -0.691706 
0.0663534 -0.580729 -0.811388 -0.095114 -0.718571 -0.688918 -0.0854725 -0.577637 -0.811806 
-0.286789 -0.634265 -0.717956 -0.254071 -0.670735 -0.696824 -0.248376 -0.611905 -0.75092 
0.0685669 0.380857 -0.922088 -0.112827 0.412678 -0.903862 0.0943288 0.363075 -0.926973 
0.183867 0.279838 -0.942276 0.0714657 0.365253 -0.928161 -0.137348 0.404265 -0.904271 
-0.110421 0.39832 -0.910576 -0.292738 0.268102 -0.917837 0.232888 0.19986 -0.951745 
0.259139 0.178794 -0.949147 0.18106 0.190201 -0.964905 0.0720479 0.148876 -0.986228 
-0.0816369 0.147869 -0.985632 -0.332943 0.178651 -0.925869 -0.274135 0.170038 -0.946539 
0.27826 0.146876 -0.94921 0.257214 0.15944 -0.95311 0.128663 0.120802 -0.984303 
0.0368581 0.00746525 -0.999293 -0.0840148 -0.0197986 -0.996268 -0.333612 -0.0315874 -0.942181 
-0.277773 -0.0349433 -0.960011 0.359331 0.0832969 -0.929485 0.270637 0.115948 -0.955673 
0.0243124 0.0622901 -0.997762 -0.0687611 -0.0327317 -0.997096 -0.12478 -0.0812546 -0.988852 
-0.29075 -0.140655 -0.946404 -0.297801 -0.147326 -0.943191 -0.283394 -0.140932 -0.948592 
0.389465 0.0130337 -0.920949 0.249441 -0.0387631 -0.967614 -0.0196223 -0.0985446 -0.994939 
-0.1061 -0.0895077 -0.990319 -0.282295 -0.141079 -0.948897 -0.192416 -0.104459 -0.975738 
0.291882 -0.0886759 -0.952335 0.110889 -0.180813 -0.977246 0.143412 -0.158232 -0.976932 
-0.024338 -0.199343 -0.979627 -0.0602954 -0.141433 -0.98811 -0.0737407 -0.145193 -0.986652 
-0.222252 -0.147363 -0.963789 -0.198245 -0.157652 -0.967391 -0.200728 -0.148885 -0.968267 
0.0224536 -0.17755 -0.983856 -0.0119969 -0.169861 -0.985395 -0.0018094 -0.177878 -0.984051 
-0.00235684 -0.175789 -0.984425 
