# vtk DataFile Version 4.2
vtk output
ASCII
DATASET POLYDATA
POINTS 534 float
-21.7999 -33.964 -13.055 -14.3352 -33.964 -14.317 -6.87039 -33.964 -15.2392 
0.594384 -33.964 -15.3664 8.05916 -33.964 -14.1708 15.5239 -33.964 -12.6053 
22.9887 -33.964 -11.2534 -36.7295 -26.4992 -13.4208 -29.2647 -26.4992 -14.9765 
-21.7999 -26.4992 -15.5695 -14.3352 -26.4992 -16.9596 -6.87039 -26.4992 -17.0017 
0.594384 -26.4992 -17.0739 8.05916 -26.4992 -15.9813 15.5239 -26.4992 -15.8641 
22.9887 -26.4992 -15.5739 30.4535 -26.4992 -14.6533 37.9182 -26.4992 -12.4989 
-44.1942 -19.0344 -14.2579 -36.7295 -19.0344 -15.5078 -29.2647 -19.0344 -16.0811 
-21.7999 -19.0344 -16.1704 -14.3352 -19.0344 -16.3657 -6.87039 -19.0344 -16.6146 
0.594384 -19.0344 -16.5262 8.05916 -19.0344 -16.3033 15.5239 -19.0344 -16.8263 
22.9887 -19.0344 -16.9014 30.4535 -19.0344 -16.5696 37.9182 -19.0344 -15.4908 
45.383 -19.0344 -13.3415 -51.659 -11.5697 -11.5712 -44.1942 -11.5697 -15.1712 
-36.7295 -11.5697 -16.8006 -29.2647 -11.5697 -16.3995 -21.7999 -11.5697 -15.8747 
-14.3352 -11.5697 -15.1923 -6.87039 -11.5697 -15.079 0.594384 -11.5697 -16.1732 
8.05916 -11.5697 -16.2793 15.5239 -11.5697 -16.074 22.9887 -11.5697 -16.5768 
30.4535 -11.5697 -17.1256 37.9182 -11.5697 -16.836 45.383 -11.5697 -15.0393 
52.8478 -11.5697 -11.2697 -51.659 -4.10488 -12.4034 -44.1942 -4.10488 -15.1653 
-36.7295 -4.10488 -16.1998 -29.2647 -4.10488 -16.3434 -21.7999 -4.10488 -15.1562 
-14.3352 -4.10488 -14.7735 -6.87039 -4.10488 -16.6579 0.594384 -4.10488 -14.6283 
8.05916 -4.10488 -17.681 15.5239 -4.10488 -14.4078 22.9887 -4.10488 -15.774 
30.4535 -4.10488 -16.8058 37.9182 -4.10488 -16.6694 45.383 -4.10488 -15.5357 
52.8478 -4.10488 -12.9262 -51.659 3.35989 -12.67 -44.1942 3.35989 -15.4157 
-36.7295 3.35989 -16.4777 -29.2647 3.35989 -16.281 -21.7999 3.35989 -15.4923 
-14.3352 3.35989 -16.2554 -6.87039 3.35989 -17.6795 0.594384 3.35989 -13.6537 
8.05916 3.35989 -17.4103 15.5239 3.35989 -14.0147 22.9887 3.35989 -15.5951 
30.4535 3.35989 -16.641 37.9182 3.35989 -16.4157 45.383 3.35989 -15.4234 
52.8478 3.35989 -12.822 -51.659 10.8247 -11.8319 -44.1942 10.8247 -15.1949 
-36.7295 10.8247 -16.6759 -29.2647 10.8247 -17.6095 -21.7999 10.8247 -16.8202 
-14.3352 10.8247 -16.6306 -6.87039 10.8247 -16.5992 0.594384 10.8247 -15.8226 
8.05916 10.8247 -14.8093 15.5239 10.8247 -15.0246 22.9887 10.8247 -15.8711 
30.4535 10.8247 -16.5262 37.9182 10.8247 -16.3927 45.383 10.8247 -14.8708 
52.8478 10.8247 -11.2296 -44.1942 18.2894 -14.12 -36.7295 18.2894 -17.2077 
-29.2647 18.2894 -17.5313 -21.7999 18.2894 -17.4172 -14.3352 18.2894 -16.5959 
-6.87039 18.2894 -15.8529 0.594384 18.2894 -15.4414 8.05916 18.2894 -15.5629 
15.5239 18.2894 -16.009 22.9887 18.2894 -16.5318 30.4535 18.2894 -15.9484 
37.9182 18.2894 -15.0285 45.383 18.2894 -12.9353 -36.7295 25.7542 -14.8523 
-29.2647 25.7542 -16.3054 -21.7999 25.7542 -16.874 -14.3352 25.7542 -16.473 
-6.87039 25.7542 -15.9171 0.594384 25.7542 -15.8507 8.05916 25.7542 -16.1395 
15.5239 25.7542 -16.787 22.9887 25.7542 -15.7819 30.4535 25.7542 -14.891 
37.9182 25.7542 -12.6181 -29.2647 33.219 -13.1106 -21.7999 33.219 -14.8328 
-14.3352 33.219 -14.98 -6.87039 33.219 -15.1298 0.594384 33.219 -14.9455 
8.05916 33.219 -15.3608 15.5239 33.219 -15.9693 22.9887 33.219 -14.189 
30.4535 33.219 -11.5829 -6.87039 40.6838 -11.3569 0.594384 40.6838 -11.3976 
8.05916 40.6838 -11.3351 -21.7999 -36.0317 -11.2128 -14.3352 -37.4505 -11.2128 
-6.87039 -38.8745 -11.2128 0.594384 -39.1438 -11.2128 0.594384 -41.4287 -3.9191 
8.05916 -37.7031 -11.2128 15.5239 -35.4728 -11.2128 22.9887 -34.009 -11.2128 
-36.7295 -30.4676 -11.2128 -36.7295 -33.964 -6.8628 -27.693 -33.964 -11.2128 
-29.2647 -33.1041 -11.2128 -29.2647 -33.964 -10.3644 23.1432 -33.964 -11.2128 
30.4535 -31.3507 -11.2128 30.4535 -33.964 -7.79858 37.9182 -28.283 -11.2128 
-41.6831 -26.4992 -11.2128 -44.1942 -24.1966 -11.2128 -44.1942 -26.4992 -9.61432 
42.0679 -26.4992 -11.2128 45.383 -23.8131 -11.2128 45.383 -26.4992 -8.64041 
-49.7692 -19.0344 -11.2128 -51.659 -13.5452 -11.2128 -51.659 -19.0344 -9.6576 
49.5988 -19.0344 -11.2128 52.8478 -11.8419 -11.2128 52.8478 -19.0344 -8.41177 
-52.1348 -11.5697 -11.2128 52.9277 -11.5697 -11.2128 -53.2933 -4.10488 -11.2128 
-59.1238 -4.10488 -3.79864 55.5219 -4.10488 -11.2128 60.3126 -4.10488 -6.84635 
-53.5485 3.35989 -11.2128 55.3683 3.35989 -11.2128 60.3126 3.35989 -6.74191 
-52.3179 10.8247 -11.2128 -51.659 12.6555 -11.2128 52.8724 10.8247 -11.2128 
52.8478 10.903 -11.2128 -49.1541 18.2894 -11.2128 -51.659 18.2894 -6.81865 
-44.1942 24.3038 -11.2128 49.0949 18.2894 -11.2128 45.383 22.2824 -11.2128 
52.8478 18.2894 -8.33958 -42.9753 25.7542 -11.2128 -44.1942 25.7542 -9.08985 
-36.7295 30.955 -11.2128 41.9107 25.7542 -11.2128 37.9182 28.799 -11.2128 
45.383 25.7542 -7.98866 -33.1546 33.219 -11.2128 -36.7295 33.219 -5.02527 
-29.2647 35.5346 -11.2128 -21.7999 37.8285 -11.2128 -14.3352 39.6976 -11.2128 
15.5239 39.8792 -11.2128 22.9887 37.2308 -11.2128 31.5267 33.219 -11.2128 
30.4535 33.7329 -11.2128 -21.7999 40.6838 -5.4827 -8.201 40.6838 -11.2128 
-14.3352 40.6838 -9.81125 -6.87039 40.8528 -11.2128 0.594384 40.8853 -11.2128 
9.37339 40.6838 -11.2128 8.05916 40.8092 -11.2128 15.5239 40.6838 -9.53133 
0.594384 -41.4684 -3.74799 -36.7295 -35.4573 -3.74799 -29.2647 -37.606 -3.74799 
-21.7999 -38.9801 -3.74799 -14.3352 -40.3002 -3.74799 -0.492155 -41.4287 -3.74799 
-6.87039 -41.1941 -3.74799 1.12196 -41.4287 -3.74799 0.594384 -41.4287 -3.49417 
8.05916 -40.9131 -3.74799 15.5239 -39.6227 -3.74799 22.9887 -37.9539 -3.74799 
30.4535 -36.0087 -3.74799 -39.3376 -33.964 -3.74799 -44.1942 -31.0747 -3.74799 
35.0975 -33.964 -3.74799 37.9182 -32.6659 -3.74799 45.383 -28.5192 -3.74799 
-49.4514 -26.4992 -3.74799 -51.659 -23.9017 -3.74799 48.0455 -26.4992 -3.74799 
52.8478 -22.0171 -3.74799 -55.0028 -19.0344 -3.74799 55.572 -19.0344 -3.74799 
-58.4994 -11.5697 -3.74799 -59.1238 -4.43356 -3.74799 59.5921 -11.5697 -3.74799 
60.3126 -9.75467 -3.74799 -59.1472 -4.10488 -3.74799 -59.1238 -2.72654 -3.74799 
-59.1238 -4.10488 -3.44769 62.1649 -4.10488 -3.74799 -59.0069 3.35989 -3.74799 
62.1103 3.35989 -3.74799 60.3126 9.48152 -3.74799 -56.9338 10.8247 -3.74799 
59.8185 10.8247 -3.74799 -52.8154 18.2894 -3.74799 -51.659 19.8151 -3.74799 
-51.659 18.2894 2.32528 55.6047 18.2894 -3.74799 52.8478 21.168 -3.74799 
-46.4812 25.7542 -3.74799 -44.1942 27.8613 -3.74799 -44.1942 25.7542 3.47175 
37.9182 32.4141 -3.74799 47.6792 25.7542 -3.74799 45.383 27.5334 -3.74799 
-37.2306 33.219 -3.74799 -36.7295 33.582 -3.74799 -36.7295 33.219 -2.55301 
-29.2647 37.9932 -3.74799 22.9887 40.2877 -3.74799 36.5934 33.219 -3.74799 
30.4535 36.9131 -3.74799 -23.2373 40.6838 -3.74799 -21.7999 41.2769 -3.74799 
-21.7999 40.6838 -1.31996 -14.3352 43.1863 -3.74799 -6.87039 44.0918 -3.74799 
0.594384 44.1249 -3.74799 8.05916 43.444 -3.74799 21.6279 40.6838 -3.74799 
15.5239 42.3753 -3.74799 15.5239 40.6838 1.38818 -36.7295 -34.9056 3.71678 
-29.2647 -37.0686 3.71678 -21.7999 -38.3715 3.71678 -14.3352 -39.3704 3.71678 
-6.87039 -39.962 3.71678 0.594384 -40.1973 3.71678 8.05916 -39.8246 3.71678 
15.5239 -38.7453 3.71678 22.9887 -37.0698 3.71678 30.4535 -35.1552 3.71678 
-38.3999 -33.964 3.71678 -44.1942 -30.5835 3.71678 -36.7295 -33.964 5.43571 
-29.2647 -33.964 8.8907 15.5239 -33.964 10.5451 22.9887 -33.964 8.32321 
33.2568 -33.964 3.71678 30.4535 -33.964 5.52443 37.9182 -31.7679 3.71678 
45.383 -27.5798 3.71678 -48.8928 -26.4992 3.71678 -51.659 -23.2281 3.71678 
-44.1942 -26.4992 9.83437 37.9182 -26.4992 9.90828 46.8509 -26.4992 3.71678 
45.383 -26.4992 5.39284 52.8478 -21.1167 3.71678 -54.526 -19.0344 3.71678 
-51.659 -19.0344 8.25432 54.8332 -19.0344 3.71678 52.8478 -19.0344 6.33272 
-57.7842 -11.5697 3.71678 -51.659 -11.5697 11.0478 59.235 -11.5697 3.71678 
60.3126 -9.11441 3.71678 -58.4674 -4.10488 3.71678 62.0737 -4.10488 3.71678 
60.3126 -4.10488 6.62335 -57.6684 3.35989 3.71678 62.057 3.35989 3.71678 
60.3126 9.09096 3.71678 60.3126 3.35989 6.61114 -55.9088 10.8247 3.71678 
-51.659 17.8393 3.71678 -51.659 10.8247 9.5943 59.6409 10.8247 3.71678 
52.8478 10.8247 10.9615 -51.2999 18.2894 3.71678 -44.1942 25.6593 3.71678 
45.383 18.2894 10.9778 54.8967 18.2894 3.71678 52.8478 20.2156 3.71678 
52.8478 18.2894 6.33788 -44.0848 25.7542 3.71678 -36.7295 31.0083 3.71678 
-36.7295 25.7542 10.5876 30.4535 25.7542 11.1009 37.9182 30.2918 3.71678 
37.9182 25.7542 8.06379 45.4823 25.7542 3.71678 45.383 25.8196 3.71678 
45.383 25.7542 3.83146 -33.5932 33.219 3.71678 -29.2647 35.7882 3.71678 
-29.2647 33.219 7.27792 -21.7999 39.1127 3.71678 -21.7999 33.219 10.4831 
15.5239 39.6843 3.71678 15.5239 33.219 9.78365 22.9887 36.6961 3.71678 
22.9887 33.219 7.09697 32.2545 33.219 3.71678 30.4535 34.0066 3.71678 
30.4535 33.219 4.64053 -17.5594 40.6838 3.71678 -14.3352 41.6191 3.71678 
-14.3352 40.6838 5.1917 -6.87039 42.1702 3.71678 -6.87039 40.6838 5.70089 
0.594384 42.0458 3.71678 0.594384 40.6838 5.59506 11.9171 40.6838 3.71678 
8.05916 41.52 3.71678 8.05916 40.6838 4.89397 -21.7999 -34.223 11.1816 
-14.3352 -34.808 11.1816 -6.87039 -35.1782 11.1816 0.594384 -35.0437 11.1816 
8.05916 -34.1777 11.1816 -36.7295 -29.304 11.1816 -22.8394 -33.964 11.1816 
-29.2647 -31.8663 11.1816 -21.7999 -33.964 11.4336 -14.3352 -33.964 11.9541 
-6.87039 -33.964 12.2318 0.594384 -33.964 12.0551 10.0279 -33.964 11.1816 
8.05916 -33.964 11.3601 15.5239 -33.0397 11.1816 22.9887 -30.8881 11.1816 
30.4535 -28.9392 11.1816 -41.8468 -26.4992 11.1816 -44.1942 -24.6131 11.1816 
-36.7295 -26.4992 13.1402 -29.2647 -26.4992 15.1035 -21.7999 -26.4992 15.7879 
-14.3352 -26.4992 16.0838 -6.87039 -26.4992 15.7854 0.594384 -26.4992 15.3512 
8.05916 -26.4992 14.7199 15.5239 -26.4992 14.2489 22.9887 -26.4992 13.8263 
35.3012 -26.4992 11.1816 30.4535 -26.4992 12.9486 37.9182 -24.6733 11.1816 
45.383 -19.3083 11.1816 -48.4658 -19.0344 11.1816 -44.1942 -19.0344 13.7032 
-36.7295 -19.0344 16.64 -29.2647 -19.0344 17.8771 -21.7999 -19.0344 17.9688 
[...]
POINT_DATA 534
SCALARS ImageScalars float
LOOKUP_TABLE default
0 0 0 0 0 0 0 0 0 
0 0 0 0 0 0 0 0 0 
0 0 0 0 0 0 0 0 0 
0 0 0 0 0 0 0 0 0 
0 0 0 0 0 0 0 0 0 
0 0 0 0 0 0 0 0 0 
0 0 0 0 0 0 0 0 0 
0 0 0 0 0 0 0 0 0 
0 0 0 0 0 0 0 0 0 
0 0 0 0 0 0 0 0 0 
0 0 0 0 0 0 0 0 0 
0 0 0 0 0 0 0 0 0 
0 0 0 0 0 0 0 0 0 
0 0 0 0 0 0 0 0 0 
0 0 0 0 0 0 0 0 0 
0 0 0 0 0 0 0 0 0 
0 0 0 0 0 0 0 0 0 
0 0 0 0 0 0 0 0 0 
0 0 0 0 0 0 0 0 0 
0 0 0 0 0 0 0 0 0 
0 0 0 0 0 0 0 0 0 
0 0 0 0 0 0 0 0 0 
0 0 0 0 0 0 0 0 0 
0 0 0 0 0 0 0 0 0 
0 0 0 0 0 0 0 0 0 
0 0 0 0 0 0 0 0 0 
0 0 0 0 0 0 0 0 0 
0 0 0 0 0 0 0 0 0 
0 0 0 0 0 0 0 0 0 
0 0 0 0 0 0 0 0 0 
0 0 0 0 0 0 0 0 0 
0 0 0 0 0 0 0 0 0 
0 0 0 0 0 0 0 0 0 
0 0 0 0 0 0 0 0 0 
0 0 0 0 0 0 0 0 0 
0 0 0 0 0 0 0 0 0 
0 0 0 0 0 0 0 0 0 
0 0 0 0 0 0 0 0 0 
0 0 0 0 0 0 0 0 0 
0 0 0 0 0 0 0 0 0 
0 0 0 0 0 0 0 0 0 
0 0 0 0 0 0 0 0 0 
0 0 0 0 0 0 0 0 0 
0 0 0 0 0 0 0 0 0 
0 0 0 0 0 0 0 0 0 
0 0 0 0 0 0 0 0 0 
0 0 0 0 0 0 0 0 0 
0 0 0 0 0 0 0 0 0 
0 0 0 0 0 0 0 0 0 
0 0 0 0 0 0 0 0 0 
0 0 0 0 0 0 0 0 0 
0 0 0 0 0 0 0 0 0 
0 0 0 0 0 0 0 0 0 
0 0 0 0 0 0 0 0 0 
0 0 0 0 0 0 0 0 0 
0 0 0 0 0 0 0 0 0 
0 0 0 0 0 0 0 0 0 
0 0 0 0 0 0 0 0 0 
0 0 0 0 0 0 0 0 0 
0 0 0 
NORMALS Normals float
0.216859 0.576446 0.787834 0.143427 0.528145 0.836953 0.0631337 0.461225 0.885034 
-0.0713367 0.448264 0.89105 -0.1654 0.465494 0.869459 -0.185311 0.591819 0.784481 
-0.18643 0.692306 0.697106 0.286367 0.383117 0.878189 0.140598 0.318848 0.93732 
0.12432 0.193419 0.973208 0.0917038 0.102101 0.990538 0.00746755 0.0839856 0.996439 
-0.0687023 0.070085 0.995172 -0.0792493 0.132902 0.987956 -0.0278193 0.236978 0.971117 
-0.0708386 0.32618 0.94265 -0.200972 0.410567 0.889407 -0.277625 0.52128 0.806964 
0.336955 0.307481 0.889897 0.104496 0.21653 0.970668 0.0419174 0.0877964 0.995256 
0.0190276 0.0190132 0.999638 0.0291163 -0.115783 0.992848 0.0109513 -0.128199 0.991688 
-0.020931 -0.0601898 0.997967 0.0192446 0.019688 0.999621 0.0406597 0.0142682 0.999071 
-0.016646 0.0665808 0.997642 -0.0898928 0.147041 0.985037 -0.181 0.271768 0.945188 
-0.379056 0.3357 0.862335 0.59142 0.127303 0.796252 0.286064 0.0450435 0.957151 
0.0914881 0.040289 0.994991 -0.0605688 0.0178095 0.998005 -0.0803097 -0.0627836 0.994791 
-0.0535752 -0.105516 0.992973 0.0654074 -0.00185694 0.997857 0.0798882 -0.104306 0.991331 
-0.00593594 0.0661185 0.997794 0.0203653 -0.159712 0.986954 0.0676995 -0.0749054 0.99489 
0.0168243 0.0149184 0.999747 -0.140018 0.0701812 0.987659 -0.320354 0.113855 0.940431 
-0.572079 0.184711 0.799129 0.509951 0.0631862 0.85788 0.21837 0.015558 0.975742 
0.0744925 -0.0195813 0.997029 -0.0648362 -0.00829948 0.997861 -0.100448 -0.026939 0.994578 
0.101669 0.0638774 0.992765 0.0145112 0.174206 0.984602 0.0298989 -0.216455 0.975835 
-0.0634133 0.0964998 0.993311 -0.0674166 -0.136039 0.988407 0.157514 -0.0659166 0.985314 
0.0598202 -0.0324597 0.997681 -0.0818635 -0.0281142 0.996247 -0.220551 0.0271131 0.974999 
-0.431923 0.08933 0.897476 0.536065 -0.0299595 0.843645 0.216517 0.00246592 0.976276 
0.054178 0.0317702 0.998026 -0.0678333 0.0795863 0.994517 -0.00844647 0.110373 0.993854 
0.140894 0.129852 0.981472 -0.140054 -0.00437632 0.990134 -0.0818714 0.131841 0.987884 
-0.0530713 -0.226511 0.972562 -0.0373906 0.043877 0.998337 0.176321 0.00656159 0.984311 
0.0549589 -0.0188034 0.998312 -0.0784135 -0.0181797 0.996755 -0.210769 -0.0455961 0.976472 
-0.431606 -0.0990364 0.896609 0.615521 -0.18957 0.764981 0.274322 -0.0857005 0.957811 
0.145886 0.0440892 0.988318 0.00959598 0.0876249 0.996107 -0.062048 0.131234 0.989408 
-0.0146131 0.0194909 0.999703 -0.0562565 -0.112239 0.992087 -0.116867 0.0826067 0.989706 
-0.0554935 -0.0605261 0.996623 0.0703444 0.132338 0.988705 0.0997821 0.0591577 0.993249 
0.0352877 -0.0460668 0.998315 -0.118717 -0.0901532 0.988827 -0.29197 -0.130372 0.9475 
-0.557564 -0.185134 0.809227 0.450245 -0.253055 0.856296 0.214537 -0.110598 0.970434 
0.0116292 -0.0888679 0.995976 -0.0622399 0.00500087 0.998049 -0.1041 -0.011035 0.994506 
-0.076228 -0.0415212 0.996226 -0.0195875 0.00200737 0.999806 0.03756 0.0885565 0.995363 
0.0625251 0.116718 0.991195 -0.00382559 -0.00514709 0.999979 -0.0931427 -0.100768 0.99054 
-0.168916 -0.239909 0.955987 -0.362007 -0.350016 0.863967 0.332914 -0.415705 0.846379 
0.127418 -0.261929 0.956639 0.010116 -0.154113 0.988001 -0.0616495 -0.105679 0.992487 
-0.043948 -0.0507891 0.997742 0.0149424 -0.0322276 0.999369 0.0612676 -0.0156531 0.997999 
-0.0231191 0.00717504 0.999707 -0.118328 -0.135276 0.983717 -0.210516 -0.274497 0.938261 
-0.323692 -0.392291 0.861006 0.304028 -0.599043 0.740753 0.11642 -0.425404 0.897484 
0.0184761 -0.343373 0.939017 -0.00190119 -0.268308 0.963331 0.0161719 -0.263536 0.964514 
0.0606601 -0.276256 0.959168 -0.0598002 -0.352641 0.933846 -0.284918 -0.416792 0.863196 
-0.341918 -0.584726 0.735654 0.052614 -0.684234 0.727362 -0.00125651 -0.688278 0.725446 
-0.0460898 -0.752719 0.656727 0.220078 0.717584 0.660786 0.165583 0.761071 0.627178 
0.0917347 0.802332 0.589786 -0.0637938 0.79838 0.598766 -0.020166 0.998671 0.0474207 
-0.19484 0.710694 0.675982 -0.199237 0.684902 0.700867 -0.1869 0.694339 0.694955 
0.330119 0.567314 0.754438 0.396369 0.830979 0.390339 0.241538 0.657768 0.713442 
0.236931 0.632174 0.737713 0.250922 0.707453 0.660718 -0.188291 0.694373 0.694545 
-0.255597 0.662322 0.704273 -0.308568 0.853275 0.420365 -0.305267 0.612335 0.729286 
0.410189 0.484007 0.772969 0.427888 0.483372 0.763717 0.49937 0.572254 0.650503 
-0.404909 0.580308 0.706605 -0.469182 0.527178 0.708486 -0.548726 0.687821 0.475187 
0.55658 0.345885 0.755369 0.60826 0.17978 0.77311 0.673115 0.370912 0.639797 
-0.522713 0.405082 0.75012 -0.575161 0.193097 0.794923 -0.680502 0.512725 0.523478 
0.617393 0.131376 0.775607 -0.575013 0.186034 0.796713 0.576243 0.061165 0.814987 
0.979258 0.028093 0.200659 -0.581238 0.102357 0.807271 -0.883691 0.150174 0.443325 
0.614871 -0.0513908 0.786951 -0.572705 -0.107026 0.812745 -0.885382 -0.144156 0.441947 
0.644206 -0.198236 0.738716 0.652799 -0.245192 0.716753 -0.558455 -0.185536 0.80852 
-0.558448 -0.18763 0.808041 0.646282 -0.375327 0.664416 0.796499 -0.531476 0.28831 
0.603733 -0.53272 0.593057 -0.488758 -0.408531 0.770856 -0.464167 -0.489034 0.738509 
-0.664133 -0.526761 0.530518 0.595717 -0.568639 0.567249 0.655418 -0.643552 0.395308 
0.485502 -0.684172 0.54424 -0.442037 -0.500978 0.744059 -0.414952 -0.536572 0.734783 
-0.593286 -0.688125 0.417726 0.426276 -0.710019 0.560502 0.564944 -0.822441 0.06655 
0.349071 -0.722725 0.596505 0.208344 -0.738079 0.641741 0.135258 -0.702091 0.699123 
-0.167635 -0.752904 0.636423 -0.299136 -0.704184 0.643927 -0.370747 -0.610588 0.699807 
-0.351969 -0.613188 0.707191 0.309258 -0.939843 0.145101 0.0694276 -0.698606 0.71213 
0.160443 -0.814261 0.557887 0.053404 -0.692845 0.719107 -0.0028167 -0.699256 0.714866 
-0.0678424 -0.761469 0.644642 -0.0468064 -0.759472 0.648854 -0.186721 -0.862156 0.47098 
-0.0193361 0.999112 0.0374282 0.402263 0.898511 0.175676 0.220428 0.958744 0.179503 
0.182288 0.975702 0.121559 0.143797 0.98661 0.0769583 -0.00475186 0.999274 0.0377994 
0.0812725 0.99585 0.0409486 -0.026448 0.998814 0.0408855 -0.0189685 0.999478 0.0261393 
-0.121206 0.988611 0.0892071 -0.197454 0.969164 0.147425 -0.23533 0.960813 0.146488 
-0.330432 0.930218 0.159716 0.458684 0.87097 0.176124 0.561931 0.798965 0.214215 
-0.39754 0.906515 0.142104 -0.438317 0.888531 0.135613 -0.572186 0.811127 0.12115 
0.695961 0.684797 0.216081 0.765395 0.61222 0.198387 -0.627256 0.766872 0.135855 
-0.725229 0.665487 0.17655 0.860504 0.463915 0.210513 -0.782469 0.590144 0.198678 
0.936537 0.26494 0.229575 0.979371 0.0380984 0.198444 -0.889459 0.381329 0.251893 
-0.910264 0.325754 0.255545 0.979981 0.0278977 0.197126 0.981894 -0.00458936 0.189378 
0.98372 0.0264993 0.177745 -0.947921 0.152524 0.27961 0.976589 -0.151184 0.153025 
-0.948158 -0.141308 0.284656 -0.900965 -0.339901 0.269683 0.923285 -0.351453 0.155004 
-0.883686 -0.382939 0.269179 0.814337 -0.575611 0.0743498 0.793981 -0.604817 0.0615583 
0.757489 -0.59151 -0.276271 -0.769563 -0.603209 0.20955 -0.709252 -0.682664 0.175873 
0.695078 -0.718401 0.027678 0.656005 -0.754516 0.0190624 0.617535 -0.692942 -0.372131 
-0.531651 -0.846957 0.00336493 -0.636417 -0.764571 0.102003 -0.607124 -0.791207 0.0734271 
0.571245 -0.820718 -0.0100995 0.565778 -0.824497 -0.0100055 0.567903 -0.820162 -0.0694309 
0.460924 -0.887349 -0.012713 -0.339047 -0.939505 -0.0487494 -0.519042 -0.854732 -0.00538698 
-0.469576 -0.882367 -0.0304438 0.346221 -0.937694 0.0293469 0.318611 -0.946968 0.0416977 
0.338668 -0.935603 -0.0997566 0.183295 -0.980568 0.0699215 0.0610926 -0.997068 0.0460781 
-0.0434874 -0.998061 0.0445206 -0.114156 -0.993251 0.0205109 -0.312837 -0.948724 -0.045343 
-0.20282 -0.978724 -0.031045 -0.244442 -0.904356 -0.349841 0.398881 0.874115 -0.277157 
0.212913 0.934433 -0.285487 0.14791 0.952234 -0.267156 0.101787 0.951342 -0.29084 
0.0531218 0.94471 -0.323574 -0.00853227 0.941528 -0.336826 -0.0910957 0.936023 -0.339944 
-0.17487 0.928356 -0.327988 -0.22633 0.913946 -0.336864 -0.315198 0.88417 -0.34481 
0.434695 0.857804 -0.274249 0.554338 0.786026 -0.273631 0.394566 0.839396 -0.373808 
0.218856 0.802335 -0.555303 -0.137492 0.631564 -0.763035 -0.217202 0.761378 -0.610841 
-0.359608 0.873304 -0.328667 -0.300632 0.845914 -0.440511 -0.425642 0.846388 -0.320088 
-0.54755 0.772066 -0.322651 0.67618 0.680365 -0.282639 0.759535 0.58278 -0.288919 
0.502825 0.589286 -0.632384 -0.357293 0.616086 -0.701982 -0.574268 0.752301 -0.322892 
-0.536044 0.732989 -0.418788 -0.682351 0.656288 -0.321999 0.840336 0.453829 -0.296438 
0.720558 0.411985 -0.557731 -0.727323 0.607384 -0.319509 -0.638442 0.60248 -0.478968 
0.911511 0.246134 -0.329492 0.675662 0.160448 -0.71954 -0.863101 0.40095 -0.307076 
-0.896722 0.321335 -0.304356 0.945172 -0.00816097 -0.32647 -0.940611 0.166732 -0.295721 
-0.854971 0.168552 -0.490524 0.920368 -0.147892 -0.36201 -0.945009 -0.145871 -0.292709 
-0.899018 -0.326861 -0.291425 -0.860613 -0.143104 -0.488741 0.856772 -0.369051 -0.3602 
0.738225 -0.571634 -0.358132 0.706159 -0.315403 -0.633924 -0.874126 -0.385629 -0.295286 
-0.552399 -0.276486 -0.786391 0.729414 -0.582801 -0.358187 0.614218 -0.688163 -0.386222 
-0.337138 -0.506042 -0.793889 -0.695348 -0.644797 -0.317377 -0.644851 -0.690471 -0.327745 
-0.612383 -0.630067 -0.477497 0.612301 -0.689846 -0.386265 0.525179 -0.748362 -0.405145 
0.461662 -0.649945 -0.603688 -0.185511 -0.500105 -0.845861 -0.422521 -0.78016 -0.46133 
-0.295118 -0.660231 -0.690652 -0.502231 -0.793872 -0.342827 -0.500415 -0.794835 -0.343253 
-0.499027 -0.793176 -0.34906 0.483859 -0.770823 -0.414381 0.413146 -0.806273 -0.423359 
0.374582 -0.752529 -0.541653 0.339024 -0.832105 -0.438936 0.204184 -0.665383 -0.718036 
-0.252933 -0.817504 -0.517409 -0.224968 -0.525484 -0.820522 -0.307445 -0.747203 -0.589207 
-0.268003 -0.632661 -0.726577 -0.353825 -0.782535 -0.512296 -0.330924 -0.774757 -0.53874 
-0.310371 -0.756178 -0.576077 0.250802 -0.873018 -0.418256 0.174134 -0.894042 -0.412756 
0.163557 -0.856153 -0.490155 0.0293499 -0.877855 -0.478026 0.0169256 -0.817737 -0.575343 
-0.0424807 -0.880765 -0.471645 -0.0380971 -0.828332 -0.55894 -0.195557 -0.851911 -0.485803 
-0.13584 -0.873745 -0.46703 -0.135327 -0.840162 -0.525181 0.131446 0.708632 -0.693226 
0.0530615 0.685154 -0.726463 0.0121522 0.674956 -0.737758 -0.0476215 0.638849 -0.767857 
-0.0837118 0.592083 -0.801517 0.305009 0.603009 -0.737123 0.141273 0.70704 -0.692919 
0.204176 0.674419 -0.709557 0.128589 0.697773 -0.704683 0.047367 0.644066 -0.763502 
0.00460013 0.617062 -0.786901 -0.0494346 0.587263 -0.807885 -0.0964726 0.590226 -0.801453 
-0.083345 0.581298 -0.809411 -0.122525 0.574684 -0.809151 -0.154057 0.57926 -0.800452 
-0.229656 0.589352 -0.774547 0.420516 0.548796 -0.722489 0.468579 0.509201 -0.721906 
0.281445 0.510855 -0.81229 0.155904 0.441632 -0.883547 0.056497 0.381983 -0.922441 
-0.000903199 0.323575 -0.946202 -0.0470978 0.300222 -0.952706 -0.067404 0.255421 -0.964477 
-0.0730412 0.249016 -0.965741 -0.0565165 0.336036 -0.940152 -0.0807109 0.418053 -0.90483 
-0.29754 0.55382 -0.777659 -0.198402 0.490839 -0.84836 -0.323876 0.519894 -0.790452 
-0.385167 0.463252 -0.798151 0.562984 0.363911 -0.742036 0.427756 0.340878 -0.837154 
0.252776 0.28491 -0.924625 0.0801612 0.242061 -0.966944 -0.0154639 0.232983 -0.972358 
-0.0428991 0.224162 -0.973607 -0.0850968 0.308449 -0.947427 -0.106831 0.209639 -0.971925 
-0.00790501 0.158669 -0.9873 0.0324962 0.188111 -0.98161 -0.0424386 0.201232 -0.978624 
-0.128553 0.251787 -0.959207 -0.23653 0.332374 -0.913007 -0.388809 0.46119 -0.797578 
-0.381556 0.455303 -0.804434 -0.547397 0.314864 -0.775382 0.668211 0.159235 -0.726731 
0.670079 0.140029 -0.728962 0.37123 0.168568 -0.913112 0.209288 0.138831 -0.967949 
-0.095618 0.195004 -0.97613 -0.0125694 0.0461034 -0.998858 -0.0129129 0.0315841 -0.999418 
-0.0473265 0.0942497 -0.994423 -0.16507 0.18174 -0.969393 -0.289341 0.233043 -0.928425 
-0.567666 0.277963 -0.774914 -0.537914 0.270919 -0.79828 0.659886 0.00685681 -0.751334 
0.637806 0.00757057 -0.77016 0.396207 0.0260012 -0.917793 -0.240028 0.0712978 -0.968144 
-0.0958754 0.12437 -0.987593 -0.133279 -0.115215 -0.984359 0.00103013 -0.0378885 -0.999281 
0.0203371 0.0238313 -0.999509 -0.0809712 0.0303143 -0.996255 -0.250103 0.0784942 -0.965032 
-0.563779 0.0890429 -0.821112 -0.481077 0.0753145 -0.873437 0.668775 -0.110876 -0.73515 
0.668918 -0.114134 -0.734522 0.668265 -0.110674 -0.735644 0.426123 -0.0883695 -0.900339 
-0.151101 -0.143185 -0.978093 0.125563 -0.0733614 -0.98937 0.0190739 -0.0486315 -0.998635 
-0.107933 -0.0543851 -0.99267 -0.228682 -0.0671016 -0.971186 -0.563308 -0.109248 -0.818993 
-0.539935 -0.253851 -0.802515 -0.478987 -0.106812 -0.871299 0.643983 -0.295422 -0.7057 
0.484135 -0.255327 -0.836912 0.326662 -0.166702 -0.930324 -0.0759969 -0.3001 -0.950876 
-0.270983 -0.285973 -0.919123 -0.0635747 -0.0914012 -0.993783 0.0906957 -0.135711 -0.986588 
0.0353351 -0.200952 -0.978964 -0.102665 -0.21279 -0.971689 -0.535229 -0.271631 -0.799842 
-0.331218 -0.491051 -0.805707 -0.287499 -0.24642 -0.925538 0.573358 -0.494868 -0.652967 
0.568766 -0.500508 -0.652685 0.567254 -0.491 -0.661168 0.458846 -0.630907 -0.625634 
0.418303 -0.393276 -0.818753 -0.245 -0.262268 -0.933376 -0.222453 -0.231777 -0.946992 
-0.0513335 -0.240653 -0.969253 -0.0501957 -0.159087 -0.985988 -0.0491049 -0.122161 -0.991295 
0.00182827 -0.247251 -0.96895 -0.182027 -0.495344 -0.849412 -0.054553 -0.327257 -0.943359 
-0.321497 -0.496693 -0.806186 -0.209446 -0.523614 -0.825809 -0.168107 -0.43221 -0.885965 
0.441345 -0.643993 -0.62489 0.318865 -0.680626 -0.659601 0.257242 -0.595932 -0.760718 
0.183497 -0.646787 -0.740267 0.0396729 -0.532045 -0.845786 -0.0973907 -0.394004 -0.913934 
-0.0819395 -0.230517 -0.969612 -0.0240345 -0.178521 -0.983643 -0.085187 -0.223418 -0.970993 
-0.195049 -0.411314 -0.89038 -0.154404 -0.259013 -0.953452 -0.177345 -0.48826 -0.854489 
-0.138014 -0.428859 -0.892766 -0.121421 -0.404014 -0.906658 0.132908 -0.588474 -0.797517 
0.0818184 -0.542789 -0.835874 0.0741269 -0.521146 -0.850242 0.0134174 -0.511612 -0.859112 
0.0137427 -0.465032 -0.885187 -0.0382169 -0.503553 -0.863119 -0.0370957 -0.455288 -0.889571 
-0.129512 -0.483956 -0.865455 -0.119458 -0.488865 -0.864142 -0.119008 -0.480436 -0.868918 
0.0825936 0.172518 -0.981538 0.00804999 0.180187 -0.983599 0.0235045 0.221822 -0.974804 
-0.0761962 0.323135 -0.943281 -0.245976 0.161385 -0.955746 0.138012 0.135509 -0.981117 
0.21386 0.08992 -0.972717 0.0855982 0.133967 -0.987282 0.0385389 0.123516 -0.991594 
0.100741 0.221632 -0.969913 -0.0540087 0.324458 -0.944357 -0.241516 0.160108 -0.957097 
-0.250076 0.120382 -0.960713 -0.255687 0.157822 -0.953791 0.232524 0.0691219 -0.970131 
0.213931 0.0725334 -0.974152 0.0619517 0.0832474 -0.994601 0.0601866 0.0612275 -0.996308 
0.144512 0.0168344 -0.98936 -0.23891 0.0661406 -0.968786 -0.13042 -0.0491263 -0.990241 
-0.220474 0.0654672 -0.973193 -0.121085 0.100664 -0.987525 0.28499 -0.0369385 -0.957818 
0.310282 -0.13185 -0.941457 0.257988 -0.02495 -0.965826 0.0689932 0.0280721 -0.997222 
-0.0149867 0.0902025 -0.995811 0.00434021 -0.0690634 -0.997603 -0.0565527 -0.284786 -0.956922 
-0.0193632 -0.239246 -0.970766 -0.0827313 0.027398 -0.996195 -0.29163 -0.0973235 -0.951567 
-0.309476 -0.142534 -0.940164 -0.30385 -0.0827343 -0.949121 0.314055 -0.15867 -0.936052 
0.174035 -0.0745435 -0.981914 -0.0396675 -0.0305823 -0.998745 -0.106251 -0.246325 -0.963346 
-0.234571 -0.229085 -0.94472 -0.194638 -0.115734 -0.974023 -0.0661997 -0.35247 -0.933479 
-0.102839 -0.371857 -0.922576 -0.0663613 -0.378409 -0.923257 -0.0633954 -0.378535 -0.923413 
0.247802 -0.320998 -0.914087 0.208802 -0.3462 -0.914629 0.204395 -0.308051 -0.929154 
-0.201997 -0.274523 -0.940125 -0.0343254 -0.380465 -0.924158 -0.0553453 -0.304854 -0.95079 

