# vtk DataFile Version 4.2
vtk output
ASCII
DATASET POLYDATA
POINTS 496 float
21.5653 16.8879 -23.472 -16.0921 -35.8326 -15.9102 -8.56065 -35.8326 -16.3701 
-23.6236 -28.3011 -18.7614 -16.0921 -28.3011 -20.0435 -8.56065 -28.3011 -20.2573 
-1.02916 -28.3011 -19.8127 6.50233 -28.3011 -18.5303 14.0338 -28.3011 -17.1951 
-31.1551 -20.7696 -18.7376 -23.6236 -20.7696 -21.2556 -16.0921 -20.7696 -21.9414 
-8.56065 -20.7696 -21.7792 -1.02916 -20.7696 -21.6142 6.50233 -20.7696 -20.4991 
14.0338 -20.7696 -19.2469 21.5653 -20.7696 -18.9089 29.0968 -20.7696 -18.4118 
36.6283 -20.7696 -16.239 -38.6866 -13.2381 -16.3624 -31.1551 -13.2381 -20.4661 
-23.6236 -13.2381 -22.1538 -16.0921 -13.2381 -22.28 -8.56065 -13.2381 -22.168 
-1.02916 -13.2381 -22.5616 6.50233 -13.2381 -21.9587 14.0338 -13.2381 -20.1816 
21.5653 -13.2381 -20.2133 29.0968 -13.2381 -20.0732 36.6283 -13.2381 -18.5377 
-38.6866 -5.70661 -18.0481 -31.1551 -5.70661 -21.5663 -23.6236 -5.70661 -22.3271 
-16.0921 -5.70661 -22.6231 -8.56065 -5.70661 -22.5368 -1.02916 -5.70661 -22.5994 
6.50233 -5.70661 -23.3238 14.0338 -5.70661 -21.7145 21.5653 -5.70661 -21.3922 
29.0968 -5.70661 -21.0751 36.6283 -5.70661 -20.1148 44.1598 -5.70661 -16.1216 
-38.6866 1.82489 -18.3861 -31.1551 1.82489 -21.6493 -23.6236 1.82489 -21.9989 
-16.0921 1.82489 -22.1265 -8.56065 1.82489 -22.6126 -1.02916 1.82489 -22.5264 
6.50233 1.82489 -23.0737 14.0338 1.82489 -22.6939 21.5653 1.82489 -22.4841 
29.0968 1.82489 -21.9493 36.6283 1.82489 -20.3006 44.1598 1.82489 -16.1029 
-38.6866 9.35638 -17.6231 -31.1551 9.35638 -20.8363 -23.6236 9.35638 -21.8507 
-16.0921 9.35638 -21.4359 -8.56065 9.35638 -22.1786 -1.02916 9.35638 -22.9395 
6.50233 9.35638 -22.4944 14.0338 9.35638 -22.6015 21.5653 15.714 -23.3967 
21.5653 9.35638 -22.9993 29.0968 9.35638 -22.3611 36.6283 9.35638 -20.0144 
-31.1551 16.8879 -19.677 -23.6236 16.8879 -21.2337 -16.0921 16.8879 -21.8748 
-8.56065 16.8879 -22.3914 -1.02916 16.8879 -22.827 6.50233 16.8879 -22.7896 
20.6324 16.8879 -23.3967 14.0338 16.8879 -22.8792 22.2094 16.8879 -23.3967 
21.5653 17.9053 -23.3967 29.0968 16.8879 -22.5287 36.6283 16.8879 -19.1155 
-31.1551 24.4194 -18.1282 -23.6236 24.4194 -20.6921 -16.0921 24.4194 -21.857 
-8.56065 24.4194 -22.3935 -1.02916 24.4194 -22.5344 6.50233 24.4194 -22.5502 
14.0338 24.4194 -22.8239 21.5653 24.4194 -22.8724 29.0968 24.4194 -20.416 
-23.6236 31.9509 -18.6317 -16.0921 31.9509 -20.4137 -8.56065 31.9509 -21.2624 
-1.02916 31.9509 -21.4489 6.50233 31.9509 -21.1843 14.0338 31.9509 -20.7106 
21.5653 31.9509 -19.6659 29.0968 31.9509 -16.0002 -8.56065 39.4823 -17.2875 
-1.02916 39.4823 -17.449 6.50233 39.4823 -16.8957 -16.0921 -35.8827 -15.8652 
-8.56065 -36.3876 -15.8652 -16.2313 -35.8326 -15.8652 -23.6236 -32.4146 -15.8652 
-23.6236 -35.8326 -11.9396 -3.01703 -35.8326 -15.8652 -1.02916 -35.5585 -15.8652 
-1.02916 -35.8326 -15.6518 6.50233 -33.0991 -15.8652 6.50233 -35.8326 -13.601 
14.0338 -30.4576 -15.8652 14.0338 -35.8326 -10.7237 -29.1716 -28.3011 -15.8652 
-31.1551 -26.3035 -15.8652 -31.1551 -28.3011 -14.3452 20.9468 -28.3011 -15.8652 
21.5653 -28.0142 -15.8652 21.5653 -28.3011 -15.7228 29.0968 -25.6943 -15.8652 
29.0968 -28.3011 -14.0565 36.6283 -21.4713 -15.8652 36.6283 -28.3011 -9.27687 
-35.1436 -20.7696 -15.8652 -38.6866 -14.4657 -15.8652 -38.6866 -20.7696 -11.5669 
37.2847 -20.7696 -15.8652 44.1598 -20.7696 -8.95003 -39.221 -13.2381 -15.8652 
41.552 -13.2381 -15.8652 44.1598 -6.80822 -15.8652 44.1598 -13.2381 -13.9657 
-41.1165 -5.70661 -15.8652 44.48 -5.70661 -15.8652 -41.5008 1.82489 -15.8652 
44.4234 1.82489 -15.8652 44.1598 3.42877 -15.8652 -40.6838 9.35638 -15.8652 
-38.6866 15.042 -15.8652 42.9667 9.35638 -15.8652 44.1598 9.35638 -14.5615 
-37.8267 16.8879 -15.8652 -38.6866 16.8879 -14.7021 40.6801 16.8879 -15.8652 
36.6283 24.1734 -15.8652 44.1598 16.8879 -9.53776 -33.9443 24.4194 -15.8652 
-31.1551 28.4496 -15.8652 36.4616 24.4194 -15.8652 36.6283 24.4194 -15.6201 
-28.0324 31.9509 -15.8652 -31.1551 31.9509 -11.8136 -23.6236 35.6969 -15.8652 
-16.0921 39.2851 -15.8652 14.0338 38.9033 -15.8652 21.5653 36.2347 -15.8652 
29.2826 31.9509 -15.8652 29.0968 32.0908 -15.8652 -23.6236 39.4823 -9.6014 
-15.3944 39.4823 -15.8652 -16.0921 39.4823 -15.5981 -8.56065 40.9202 -15.8652 
-1.02916 41.1138 -15.8652 11.6604 39.4823 -15.8652 6.50233 40.5292 -15.8652 
14.0338 39.4823 -14.9394 21.5653 39.4823 -8.638 -23.6236 -37.8559 -8.33373 
-16.0921 -40.6979 -8.33373 -8.56065 -41.7091 -8.33373 -1.02916 -41.2844 -8.33373 
6.50233 -39.6143 -8.33373 14.0338 -37.5042 -8.33373 -26.9995 -35.8326 -8.33373 
-31.1551 -32.826 -8.33373 20.2741 -35.8326 -8.33373 21.5653 -35.4627 -8.33373 
21.5653 -35.8326 -7.06257 29.0968 -32.9271 -8.33373 36.6283 -28.8584 -8.33373 
-35.6807 -28.3011 -8.33373 -38.6866 -23.8829 -8.33373 37.3522 -28.3011 -8.33373 
44.1598 -21.2704 -8.33373 -40.5419 -20.7696 -8.33373 44.5454 -20.7696 -8.33373 
-43.7133 -13.2381 -8.33373 48.3635 -13.2381 -8.33373 -45.4367 -5.70661 -8.33373 
-46.2181 -5.70661 -1.32089 50.1717 -5.70661 -8.33373 -45.6279 1.82489 -8.33373 
49.7005 1.82489 -8.33373 -44.4181 9.35638 -8.33373 47.8605 9.35638 -8.33373 
-41.5454 16.8879 -8.33373 -38.6866 23.0296 -8.33373 44.697 16.8879 -8.33373 
44.1598 17.8464 -8.33373 -38.0094 24.4194 -8.33373 40.187 24.4194 -8.33373 
36.6283 28.634 -8.33373 -32.9732 31.9509 -8.33373 -31.1551 33.9403 -8.33373 
33.2855 31.9509 -8.33373 29.0968 35.221 -8.33373 -24.4346 39.4823 -8.33373 
-23.6236 40.0089 -8.33373 -16.0921 42.9458 -8.33373 -8.56065 44.4183 -8.33373 
-1.02916 44.7044 -8.33373 6.50233 43.9965 -8.33373 14.0338 42.3071 -8.33373 
21.7598 39.4823 -8.33373 21.5653 39.5835 -8.33373 21.5653 39.4823 -7.44997 
-23.6236 -39.122 -0.802233 -16.0921 -42.0471 -0.802233 -8.56065 -43.2893 -0.802233 
-1.02916 -43.2599 -0.802233 6.50233 -41.9701 -0.802233 14.0338 -39.8853 -0.802233 
21.5653 -37.4627 -0.802233 -29.0447 -35.8326 -0.802233 -31.1551 -34.2626 -0.802233 
25.8933 -35.8326 -0.802233 29.0968 -34.5268 -0.802233 36.6283 -29.9986 -0.802233 
-37.2066 -28.3011 -0.802233 -38.6866 -26.2258 -0.802233 38.746 -28.3011 -0.802233 
36.6283 -28.3011 4.12177 44.1598 -22.7678 -0.802233 -41.9804 -20.7696 -0.802233 
45.7635 -20.7696 -0.802233 44.1598 -20.7696 3.52648 -44.8941 -13.2381 -0.802233 
-46.2181 -6.02574 -0.802233 49.7057 -13.2381 -0.802233 -46.2744 -5.70661 -0.802233 
-46.2181 -3.15868 -0.802233 -46.2181 -5.70661 -0.374926 51.3875 -5.70661 -0.802233 
-46.107 1.82489 -0.802233 50.7822 1.82489 -0.802233 -44.7737 9.35638 -0.802233 
48.5417 9.35638 -0.802233 -41.9503 16.8879 -0.802233 -38.6866 24.0197 -0.802233 
44.8837 16.8879 -0.802233 44.1598 18.0469 -0.802233 44.1598 16.8879 0.8046 
-38.4938 24.4194 -0.802233 39.8205 24.4194 -0.802233 36.6283 28.0539 -0.802233 
36.6283 24.4194 4.70393 -33.7482 31.9509 -0.802233 -31.1551 34.792 -0.802233 
21.5653 38.6449 -0.802233 32.3969 31.9509 -0.802233 29.0968 34.4574 -0.802233 
29.0968 31.9509 3.8314 -25.2302 39.4823 -0.802233 -23.6236 40.4785 -0.802233 
-23.6236 39.4823 4.04758 -16.0921 43.1491 -0.802233 -8.56065 44.3278 -0.802233 
-1.02916 44.2932 -0.802233 6.50233 43.2965 -0.802233 19.5972 39.4823 -0.802233 
14.0338 41.5775 -0.802233 14.0338 39.4823 3.34808 -23.6236 -38.2829 6.72926 
-16.0921 -41.1762 6.72926 -8.56065 -42.5977 6.72926 -1.02916 -42.8612 6.72926 
6.50233 -41.8913 6.72926 14.0338 -39.7567 6.72926 21.5653 -36.6695 6.72926 
-27.7408 -35.8326 6.72926 -31.1551 -33.3758 6.72926 23.2429 -35.8326 6.72926 
21.5653 -35.8326 8.54274 29.0968 -32.6124 6.72926 -36.435 -28.3011 6.72926 
-38.6866 -25.1931 6.72926 35.2177 -28.3011 6.72926 29.0968 -28.3011 13.078 
36.6283 -27.1432 6.72926 -41.4043 -20.7696 6.72926 -38.6866 -20.7696 14.2148 
42.7299 -20.7696 6.72926 36.6283 -20.7696 13.6237 44.1598 -18.7216 6.72926 
-44.1675 -13.2381 6.72926 47.3255 -13.2381 6.72926 44.1598 -13.2381 11.015 
-45.255 -5.70661 6.72926 49.0722 -5.70661 6.72926 44.1598 -5.70661 13.0712 
-44.7992 1.82489 6.72926 48.2611 1.82489 6.72926 44.1598 1.82489 11.7293 
-43.2158 9.35638 6.72926 45.4672 9.35638 6.72926 44.1598 11.7741 6.72926 
44.1598 9.35638 8.28893 -40.6455 16.8879 6.72926 -38.6866 21.4011 6.72926 
-38.6866 16.8879 11.889 41.0571 16.8879 6.72926 36.6283 22.7595 6.72926 
36.6283 16.8879 10.8875 -37.2833 24.4194 6.72926 35.1878 24.4194 6.72926 
29.0968 30.0556 6.72926 29.0968 24.4194 11.928 -32.59 31.9509 6.72926 
-31.1551 33.4851 6.72926 -31.1551 31.9509 9.89817 -23.6236 38.8538 6.72926 
6.50233 31.9509 13.7373 14.0338 37.3457 6.72926 14.0338 31.9509 12.3049 
26.3308 31.9509 6.72926 21.5653 34.6759 6.72926 21.5653 31.9509 9.89036 
-21.7842 39.4823 6.72926 -16.0921 41.2297 6.72926 -16.0921 39.4823 10.1371 
-8.56065 41.5775 6.72926 -8.56065 39.4823 10.1455 -1.02916 40.9125 6.72926 
-1.02916 39.4823 8.67235 6.51032 39.4823 6.72926 6.50233 39.4845 6.72926 
6.50233 39.4823 6.7319 -23.6236 -35.857 14.2608 -16.0921 -38.5227 14.2608 
-8.56065 -39.8273 14.2608 -1.02916 -39.8272 14.2608 6.50233 -38.676 14.2608 
14.0338 -36.2844 14.2608 -23.665 -35.8326 14.2608 -31.1551 -30.2868 14.2608 
-23.6236 -35.8326 14.2971 -16.0921 -35.8326 17.8506 -8.56065 -35.8326 18.9328 
-1.02916 -35.8326 18.4063 6.50233 -35.8326 17.3222 15.0511 -35.8326 14.2608 
14.0338 -35.8326 14.7538 21.5653 -32.3225 14.2608 -33.2216 -28.3011 14.2608 
-31.1551 -28.3011 16.426 -23.6236 -28.3011 21.3192 6.50233 -28.3011 21.1161 
14.0338 -28.3011 19.9333 27.6345 -28.3011 14.2608 21.5653 -28.3011 17.4343 
29.0968 -27.0229 14.2608 -38.6669 -20.7696 14.2608 -38.6866 -20.7232 14.2608 
-31.1551 -20.7696 20.8987 21.5653 -20.7696 20.6476 35.7701 -20.7696 14.2608 
29.0968 -20.7696 17.9288 36.6283 -19.6382 14.2608 -41.3458 -13.2381 14.2608 
-38.6866 -13.2381 17.5452 29.0968 -13.2381 20.2044 40.5733 -13.2381 14.2608 
36.6283 -13.2381 16.8489 -42.3758 -5.70661 14.2608 -38.6866 -5.70661 18.7042 
29.0968 -5.70661 20.3204 42.5077 -5.70661 14.2608 36.6283 -5.70661 17.4792 
-41.7885 1.82489 14.2608 -38.6866 1.82489 17.9761 21.5653 1.82489 21.4632 
29.0968 1.82489 19.1862 40.5518 1.82489 14.2608 36.6283 1.82489 16.3877 
[...]
POINT_DATA 496
SCALARS ImageScalars float
LOOKUP_TABLE default
0 0 0 0 0 0 0 0 0 
0 0 0 0 0 0 0 0 0 
0 0 0 0 0 0 0 0 0 
0 0 0 0 0 0 0 0 0 
0 0 0 0 0 0 0 0 0 
0 0 0 0 0 0 0 0 0 
0 0 0 0 0 0 0 0 0 
0 0 0 0 0 0 0 0 0 
0 0 0 0 0 0 0 0 0 
0 0 0 0 0 0 0 0 0 
0 0 0 0 0 0 0 0 0 
0 0 0 0 0 0 0 0 0 
0 0 0 0 0 0 0 0 0 
0 0 0 0 0 0 0 0 0 
0 0 0 0 0 0 0 0 0 
0 0 0 0 0 0 0 0 0 
0 0 0 0 0 0 0 0 0 
0 0 0 0 0 0 0 0 0 
0 0 0 0 0 0 0 0 0 
0 0 0 0 0 0 0 0 0 
0 0 0 0 0 0 0 0 0 
0 0 0 0 0 0 0 0 0 
0 0 0 0 0 0 0 0 0 
0 0 0 0 0 0 0 0 0 
0 0 0 0 0 0 0 0 0 
0 0 0 0 0 0 0 0 0 
0 0 0 0 0 0 0 0 0 
0 0 0 0 0 0 0 0 0 
0 0 0 0 0 0 0 0 0 
0 0 0 0 0 0 0 0 0 
0 0 0 0 0 0 0 0 0 
0 0 0 0 0 0 0 0 0 
0 0 0 0 0 0 0 0 0 
0 0 0 0 0 0 0 0 0 
0 0 0 0 0 0 0 0 0 
0 0 0 0 0 0 0 0 0 
0 0 0 0 0 0 0 0 0 
0 0 0 0 0 0 0 0 0 
0 0 0 0 0 0 0 0 0 
0 0 0 0 0 0 0 0 0 
0 0 0 0 0 0 0 0 0 
0 0 0 0 0 0 0 0 0 
0 0 0 0 0 0 0 0 0 
0 0 0 0 0 0 0 0 0 
0 0 0 0 0 0 0 0 0 
0 0 0 0 0 0 0 0 0 
0 0 0 0 0 0 0 0 0 
0 0 0 0 0 0 0 0 0 
0 0 0 0 0 0 0 0 0 
0 0 0 0 0 0 0 0 0 
0 0 0 0 0 0 0 0 0 
0 0 0 0 0 0 0 0 0 
0 0 0 0 0 0 0 0 0 
0 0 0 0 0 0 0 0 0 
0 0 0 0 0 0 0 0 0 
0 
NORMALS Normals float
-0.0186374 -0.00534354 0.999812 0.164836 0.650903 0.741049 -0.0115452 0.634439 0.772887 
0.293237 0.442248 0.847602 0.0851399 0.356311 0.93048 -0.0154016 0.304554 0.95237 
-0.108094 0.335617 0.935776 -0.167617 0.365548 0.915576 -0.164021 0.414126 0.895319 
0.445148 0.318715 0.836818 0.179714 0.192427 0.964715 0.0307191 0.13586 0.990252 
-0.0213294 0.12366 0.992095 -0.0816645 0.175618 0.981065 -0.154065 0.214566 0.964482 
-0.100796 0.190749 0.97645 -0.0506893 0.260311 0.964193 -0.164763 0.335289 0.927596 
-0.395603 0.389676 0.831655 0.64128 0.26105 0.721536 0.335976 0.163637 0.927547 
0.113534 0.0675337 0.991236 0.000659627 0.0444094 0.999013 0.0185896 0.0497884 0.998587 
-0.0117706 0.0651273 0.997808 -0.160283 0.185666 0.969452 -0.109407 0.158671 0.981251 
-0.00685574 0.160729 0.986975 -0.102685 0.165897 0.980782 -0.325594 0.239375 0.914706 
0.578508 0.113026 0.807808 0.239406 0.0717768 0.968263 0.0662319 -0.0106373 0.997748 
0.0138615 -0.0101205 0.999853 -0.00159775 0.0295836 0.999561 0.0519315 -0.00236513 0.998648 
-0.0569445 0.0696066 0.995948 -0.128257 0.169064 0.977224 -0.0417763 0.149044 0.987948 
-0.0774556 0.120733 0.989659 -0.291041 0.106693 0.950743 -0.593178 0.0993126 0.798922 
0.560115 -0.0257796 0.828013 0.194113 -0.0441619 0.979985 0.0299442 -0.0314331 0.999057 
0.0406421 -0.0789123 0.996053 0.0264862 -0.0234228 0.999375 0.0302613 0.0226334 0.999286 
0.011171 -0.0551072 0.998418 -0.0387366 0.0574572 0.997596 -0.0486809 0.105235 0.993255 
-0.138535 0.0839632 0.986792 -0.336317 -0.00644296 0.941727 -0.64594 -0.0621749 0.760852 
0.580376 -0.17626 0.795045 0.256127 -0.130453 0.9578 0.0333706 -0.0492912 0.998227 
0.0214322 -0.0171906 0.999623 0.100544 -0.0147066 0.994824 0.0201763 0.0198963 0.999598 
-0.0224351 -0.0184155 0.999579 0.0334216 0.0123051 0.999366 -0.0176076 0.00623997 0.999825 
-0.0153356 0.0644816 0.997801 -0.184659 0.0370154 0.982105 -0.417015 -0.0689972 0.906277 
0.341629 -0.162218 0.925729 0.141954 -0.0735518 0.987137 0.0766991 0.0282154 0.996655 
0.0624792 0.0140612 0.997947 0.0263532 -0.0267453 0.999295 0.00346239 0.00380111 0.999987 
-0.0100978 -0.00228601 0.999946 0.0450899 0.0151897 0.998867 -0.0378689 -0.0140605 0.999184 
-0.0349718 -0.031262 0.998899 -0.247911 -0.112936 0.962178 -0.52128 -0.227726 0.82244 
0.49132 -0.339188 0.80222 0.232024 -0.159908 0.959476 0.109217 -0.0933873 0.989621 
0.0432718 -0.0668605 0.996824 0.0108413 -0.0848515 0.996335 0.0186442 -0.0977203 0.995039 
0.0214103 -0.137188 0.990314 -0.140821 -0.199826 0.969659 -0.379012 -0.345579 0.858443 
0.380956 -0.417971 0.824726 0.156707 -0.340309 0.927164 0.0656202 -0.293376 0.953742 
-0.00464113 -0.288421 0.957492 -0.0459012 -0.320951 0.945983 -0.0847143 -0.414011 0.906321 
-0.254197 -0.535258 0.805533 -0.483034 -0.656217 0.579704 0.0939179 -0.66242 0.743222 
-0.0219328 -0.654722 0.755552 -0.113429 -0.684623 0.720018 0.165124 0.653216 0.738947 
-0.0118343 0.659922 0.751241 0.168631 0.652713 0.738599 0.344478 0.599888 0.722128 
0.405251 0.774815 0.485214 -0.0958112 0.643158 0.759715 -0.125088 0.632537 0.764362 
-0.125942 0.64782 0.751311 -0.195268 0.556058 0.80788 -0.21783 0.705732 0.674161 
-0.185694 0.503202 0.843982 -0.235237 0.797102 0.55614 0.470163 0.507907 0.721788 
0.51136 0.472185 0.718019 0.553503 0.548762 0.626494 -0.169813 0.503683 0.847034 
-0.165456 0.502092 0.848839 -0.171045 0.515366 0.839727 -0.206767 0.495496 0.843641 
-0.265255 0.632177 0.728006 -0.403448 0.416822 0.814549 -0.539888 0.757101 0.367858 
0.594097 0.372017 0.713199 0.655416 0.283074 0.700214 0.772848 0.433833 0.463136 
-0.420193 0.397543 0.815719 -0.757216 0.544692 0.360464 0.663679 0.263357 0.700124 
-0.533057 0.254592 0.806866 -0.601044 0.124114 0.78952 -0.676879 0.28714 0.67778 
0.705823 0.119932 0.698162 -0.603535 0.100038 0.791036 0.718898 -0.0234279 0.694721 
-0.655253 -0.0652937 0.752583 -0.664255 -0.0871482 0.742409 0.701178 -0.192291 0.686566 
0.691833 -0.295491 0.658826 -0.678527 -0.163931 0.716051 -0.752517 -0.202754 0.626585 
0.678863 -0.315719 0.662923 0.745915 -0.345121 0.569651 -0.698125 -0.314602 0.643154 
-0.669778 -0.455261 0.586631 -0.866119 -0.430124 0.25462 0.636407 -0.405069 0.656434 
0.586132 -0.476253 0.655463 -0.66719 -0.460119 0.585789 -0.677482 -0.467245 0.568067 
0.543229 -0.528737 0.652181 0.678647 -0.613787 0.403365 0.436534 -0.631497 0.64082 
0.247455 -0.724576 0.643238 -0.206733 -0.751884 0.626045 -0.331674 -0.725842 0.602616 
-0.489214 -0.65889 0.571432 -0.484773 -0.661782 0.571873 0.47016 -0.840838 0.268217 
0.235382 -0.729363 0.642359 0.251502 -0.740747 0.622929 0.100471 -0.737051 0.668327 
-0.021946 -0.734579 0.678169 -0.183495 -0.752721 0.63225 -0.121976 -0.735355 0.666614 
-0.224776 -0.801917 0.553538 -0.407361 -0.905874 0.115975 0.426146 0.850619 0.307974 
0.232422 0.917537 0.322656 0.0362664 0.930822 0.363668 -0.124379 0.90655 0.403357 
-0.227834 0.871042 0.435176 -0.245911 0.858562 0.449888 0.509031 0.80674 0.300096 
0.620032 0.725365 0.299007 -0.256587 0.870671 0.419637 -0.258922 0.870831 0.417868 
-0.274051 0.894191 0.354003 -0.377941 0.848611 0.370162 -0.546477 0.774683 0.318164 
0.731606 0.609807 0.304776 0.804672 0.509269 0.305203 -0.564326 0.762154 0.317266 
-0.760216 0.561222 0.327262 0.837641 0.448019 0.312468 -0.769562 0.547561 0.32856 
0.909717 0.287573 0.299528 -0.868256 0.324195 0.375538 0.957154 0.119086 0.26396 
0.99679 0.0797918 0.00648271 -0.93141 0.0824548 0.35451 0.971969 -0.064638 0.226049 
-0.930613 -0.144205 0.336398 0.945192 -0.254373 0.204712 -0.91364 -0.292088 0.282748 
0.898761 -0.386986 0.206082 0.867924 -0.451436 0.207156 -0.874989 -0.441192 0.199357 
-0.868278 -0.456481 0.194212 0.857978 -0.4684 0.210892 -0.799264 -0.579621 0.158798 
-0.736421 -0.665558 0.12131 0.738976 -0.632005 0.233418 0.695606 -0.679872 0.232178 
-0.652583 -0.750586 0.103718 -0.564558 -0.818881 0.103477 0.491976 -0.843202 0.216728 
0.469691 -0.856282 0.214876 0.28321 -0.936637 0.206165 0.108592 -0.977788 0.179272 
-0.027614 -0.9864 0.162027 -0.155004 -0.978211 0.138117 -0.278844 -0.951204 0.132125 
-0.412008 -0.905765 0.0991887 -0.408414 -0.907368 0.0994059 -0.411088 -0.909705 0.0586728 
0.440623 0.897375 0.0238852 0.26305 0.964367 0.0282965 0.0758324 0.995744 0.0523746 
-0.0847405 0.992162 0.0918383 -0.217018 0.967158 0.132317 -0.285482 0.949113 0.132985 
-0.334265 0.939776 0.0713238 0.572665 0.819393 0.0254933 0.629377 0.776667 0.0259181 
-0.395781 0.918104 0.0210518 -0.444878 0.895455 -0.0156195 -0.588697 0.80511 -0.0723405 
0.776502 0.628978 0.0378399 0.819927 0.570903 0.0423034 -0.634291 0.769628 -0.0731284 
-0.588903 0.751996 -0.296135 -0.765003 0.639401 -0.077055 0.893681 0.446124 0.048028 
-0.8062 0.586163 -0.080332 -0.767597 0.572055 -0.289047 0.964787 0.261505 0.0282883 
0.996392 0.0842939 -0.00990145 -0.94256 0.32935 -0.0557508 0.996978 0.07682 -0.0115759 
0.999487 0.0200832 -0.0249518 0.996915 0.0748209 -0.0237108 -0.99566 0.0705787 -0.0606641 
0.994373 -0.0926596 -0.0513387 -0.981197 -0.178172 -0.0742053 0.960521 -0.268908 -0.0713231 
-0.930107 -0.347459 -0.119054 0.925169 -0.375426 -0.0558413 0.888461 -0.457035 -0.0419101 
-0.84437 -0.506326 -0.175137 -0.834653 -0.520265 -0.180775 -0.825446 -0.505381 -0.251452 
0.885571 -0.462657 -0.0413842 -0.761881 -0.609432 -0.219386 -0.703243 -0.67327 -0.228378 
-0.66892 -0.586737 -0.456384 0.77181 -0.635548 -0.0196986 0.702411 -0.711405 -0.0228124 
-0.408423 -0.872204 -0.269167 -0.610163 -0.754197 -0.242666 -0.543714 -0.802088 -0.24704 
-0.528766 -0.734032 -0.426148 0.505175 -0.861072 -0.0579081 0.456204 -0.887484 -0.0651831 
0.427708 -0.878483 -0.212915 0.239297 -0.965364 -0.103968 0.0780376 -0.980528 -0.180206 
-0.0659974 -0.970057 -0.23374 -0.175979 -0.950061 -0.257712 -0.373426 -0.887605 -0.269649 
-0.276848 -0.922831 -0.267841 -0.270553 -0.855966 -0.440593 0.433384 0.880715 -0.191102 
0.267871 0.941276 -0.205537 0.104492 0.973479 -0.203518 -0.0449916 0.980825 -0.189626 
-0.196965 0.964021 -0.178519 -0.316648 0.92879 -0.192569 -0.410092 0.877966 -0.246982 
0.529647 0.827025 -0.188428 0.618868 0.762782 -0.187526 -0.4283 0.863889 -0.265057 
-0.415976 0.848888 -0.326117 -0.504556 0.791713 -0.344404 0.748958 0.636885 -0.182867 
0.817601 0.546191 -0.182223 -0.563385 0.721919 -0.401784 -0.495268 0.61782 -0.610744 
-0.581878 0.698709 -0.416202 0.880905 0.43599 -0.184172 0.780626 0.402726 -0.477949 
-0.717991 0.537799 -0.441884 -0.556749 0.468878 -0.6857 -0.750198 0.481335 -0.453343 
0.950578 0.228795 -0.209889 -0.829073 0.331094 -0.450572 -0.70769 0.316314 -0.631759 
0.971439 0.0388292 -0.234091 -0.879104 0.0574144 -0.473159 -0.662157 0.0257621 -0.748922 
0.957655 -0.124897 -0.259416 -0.843346 -0.200726 -0.498475 -0.666182 -0.21436 -0.714319 
0.925591 -0.262082 -0.273119 -0.765521 -0.373738 -0.523734 -0.742101 -0.409562 -0.530607 
-0.718024 -0.372923 -0.587682 0.905702 -0.34361 -0.248264 0.884947 -0.399279 -0.239677 
0.839915 -0.330155 -0.430744 -0.690749 -0.471572 -0.548166 -0.637608 -0.543918 -0.545535 
-0.573873 -0.415111 -0.705941 0.862257 -0.445687 -0.240573 -0.620422 -0.566194 -0.54268 
-0.514504 -0.664799 -0.541597 -0.479556 -0.491502 -0.726947 0.730304 -0.639393 -0.240485 
0.685398 -0.685902 -0.244475 0.679122 -0.644772 -0.350802 0.407695 -0.863541 -0.296785 
-0.177579 -0.568703 -0.803146 -0.246537 -0.772708 -0.58493 -0.184906 -0.634814 -0.750214 
-0.450234 -0.711738 -0.539183 -0.349011 -0.762402 -0.544917 -0.327263 -0.690607 -0.644951 
0.344741 -0.884574 -0.314137 0.162448 -0.92006 -0.35651 0.12581 -0.871277 -0.474393 
-0.0179185 -0.897617 -0.440412 -0.0640416 -0.836404 -0.544359 -0.118068 -0.840039 -0.529523 
-0.140428 -0.796611 -0.587955 -0.196382 -0.794023 -0.575292 -0.196312 -0.794044 -0.575287 
-0.196316 -0.793985 -0.575367 0.408523 0.80019 -0.439096 0.234721 0.853703 -0.464863 
0.0758506 0.855612 -0.51203 -0.063967 0.824273 -0.562567 -0.200231 0.790679 -0.578562 
-0.314758 0.740613 -0.593649 0.409532 0.7997 -0.439049 0.602954 0.654922 -0.455548 
0.408361 0.79939 -0.4407 0.199162 0.747159 -0.634104 0.0193088 0.68032 -0.732661 
-0.0831257 0.644166 -0.760355 -0.192602 0.642253 -0.7419 -0.327706 0.73363 -0.595312 
-0.31246 0.721711 -0.617658 -0.399473 0.657209 -0.639139 0.648183 0.607718 -0.458844 
0.583071 0.581236 -0.567621 0.357807 0.43955 -0.823875 -0.160893 0.312591 -0.936163 
-0.212471 0.385871 -0.897753 -0.465206 0.584394 -0.664881 -0.352282 0.50078 -0.790644 
-0.476527 0.562306 -0.675821 0.779526 0.402381 -0.480029 0.780123 0.401202 -0.480046 
0.466251 0.308987 -0.828938 -0.242405 0.302653 -0.92176 -0.534305 0.452004 -0.71429 
-0.388746 0.367872 -0.844717 -0.543572 0.423784 -0.724525 0.837123 0.208581 -0.505687 
0.723531 0.19952 -0.660829 -0.348504 0.136421 -0.927326 -0.580184 0.254634 -0.773659 
-0.482386 0.19759 -0.853383 0.853364 0.026315 -0.520651 0.66514 0.0198968 -0.746454 
-0.324728 -0.0621827 -0.943761 -0.591931 0.0107975 -0.805916 -0.422107 -0.0290312 -0.906081 
0.835311 -0.137283 -0.532362 0.68055 -0.139477 -0.719304 -0.329924 -0.212792 -0.919712 
-0.302173 -0.18882 -0.934365 -0.516969 -0.199311 -0.832477 -0.407254 -0.188797 -0.893588 
0.805038 -0.242975 -0.541181 0.796283 -0.286608 -0.532718 0.751161 -0.234732 -0.616974 
0.381453 -0.158 -0.910785 -0.3075 -0.201065 -0.930063 -0.316827 -0.212001 -0.924487 
-0.451488 -0.289063 -0.844157 -0.451403 -0.289264 -0.844133 -0.45099 -0.288868 -0.84449 
0.774581 -0.317078 -0.547253 0.48674 -0.238507 -0.840356 -0.15658 -0.330063 -0.930882 
-0.179276 -0.286 -0.94131 -0.279729 -0.2331 -0.931352 -0.450018 -0.329727 -0.829918 
-0.431122 -0.369686 -0.823083 -0.405635 -0.301349 -0.86293 0.725329 -0.415284 -0.549033 
0.650361 -0.530421 -0.543768 0.606339 -0.367171 -0.705364 0.269366 -0.303495 -0.913966 
-0.136655 -0.36533 -0.920793 -0.21551 -0.406359 -0.887935 -0.172577 -0.548351 -0.818247 
-0.138328 -0.415678 -0.898931 -0.162543 -0.55819 -0.813636 -0.142523 -0.444893 -0.88417 
-0.36179 -0.449035 -0.816992 -0.29282 -0.498218 -0.81611 -0.290498 -0.430197 -0.854717 
0.519331 -0.642677 -0.56326 0.350327 -0.730835 -0.585791 0.312015 -0.597201 -0.738916 
0.0698238 -0.754257 -0.652856 0.0350911 -0.563834 -0.825142 -0.132934 -0.694382 -0.707222 
-0.156859 -0.55944 -0.813893 -0.188094 -0.561055 -0.806125 -0.209566 -0.598442 -0.773272 
-0.219851 -0.549983 -0.80572 0.141283 0.490496 -0.859915 -0.042259 0.466532 -0.883494 
-0.131347 0.367415 -0.920736 0.310744 0.419793 -0.852767 0.336211 0.387943 -0.858174 
0.118799 0.36326 -0.924083 -0.0658188 0.34581 -0.935993 -0.150464 0.309523 -0.938912 
-0.142379 0.309906 -0.940046 -0.14913 0.26351 -0.95306 -0.152141 0.256593 -0.95447 
0.393169 0.264864 -0.880491 0.408658 0.20949 -0.88832 0.24779 0.177891 -0.952342 
0.0867599 0.132393 -0.987393 -0.0642943 0.136075 -0.98861 -0.143585 0.149045 -0.97835 
-0.130258 0.187719 -0.973547 -0.160671 0.252515 -0.95416 -0.145227 0.244341 -0.958753 
-0.233797 0.206132 -0.950184 0.419742 0.122702 -0.899311 0.353411 0.103285 -0.929749 
0.183621 0.0617055 -0.981058 0.0834941 0.0639501 -0.994454 -0.0464238 0.102296 -0.99367 
-0.101074 0.0759102 -0.991979 -0.0598542 0.144756 -0.987655 -0.0993641 0.209886 -0.972664 
-0.270626 0.135935 -0.953039 -0.232741 0.14113 -0.962244 0.410283 -0.0183161 -0.911774 
0.338253 -0.0276725 -0.940648 0.2036 0.00397463 -0.979046 0.130379 0.0636192 -0.989421 
-0.0536592 0.13303 -0.989658 -0.103858 0.0415417 -0.993724 0.00161396 0.0298959 -0.999552 
-0.135363 0.0324676 -0.990264 -0.321128 -0.0681914 -0.944578 -0.329663 -0.181632 -0.926462 
-0.319399 -0.066853 -0.945259 0.387015 -0.090117 -0.917659 0.366756 -0.124267 -0.92198 
0.356262 -0.0853058 -0.930484 0.26001 -0.0821211 -0.962108 0.215597 -0.0552001 -0.974921 
-0.0657509 -0.00796471 -0.997804 -0.208171 -0.0102873 -0.978038 -0.0663942 -0.112492 -0.991432 
-0.318876 -0.212296 -0.923715 -0.196792 -0.19872 -0.960095 0.347471 -0.150886 -0.925471 
0.234835 -0.124861 -0.963982 0.200656 -0.181359 -0.962728 -0.0069433 -0.237568 -0.971346 
-0.206125 -0.168478 -0.963913 -0.163925 -0.298147 -0.940339 -0.175131 -0.219274 -0.959817 
-0.253792 -0.253743 -0.933383 -0.228334 -0.266768 -0.936322 -0.239576 -0.262973 -0.934585 
0.310541 -0.174713 -0.934366 0.261695 -0.218915 -0.939996 0.259728 -0.157487 -0.952753 
0.0943159 -0.187588 -0.977709 -0.133916 -0.362402 -0.922351 -0.0604603 -0.304018 -0.950746 
-0.170696 -0.327615 -0.929264 -0.197323 -0.350203 -0.915654 -0.186369 -0.325297 -0.927064 
0.0997673 -0.311151 -0.945109 -0.093359 -0.354492 -0.930387 0.0473608 -0.33211 -0.942051 
0.0488672 -0.313412 -0.948359 
