# vtk DataFile Version 4.2
vtk output
ASCII
DATASET POLYDATA
POINTS 500 float
-25.3198 -36.2278 -19.468 -17.1554 -36.2278 -18.6133 -41.6484 -28.0635 -19.3592 
-33.4841 -28.0635 -22.2683 -25.3198 -28.0635 -22.7932 -17.1554 -28.0635 -22.278 
-8.99109 -28.0635 -20.9982 -0.826753 -28.0635 -18.7028 -49.8127 -19.8992 -18.0229 
-41.6484 -19.8992 -22.4535 -33.4841 -19.8992 -23.5957 -25.3198 -19.8992 -23.5415 
-17.1554 -19.8992 -22.8942 -8.99109 -19.8992 -22.4272 -0.826753 -19.8992 -21.5516 
7.33758 -19.8992 -20.1999 -49.8127 -11.7348 -20.6098 -41.6484 -11.7348 -24.4973 
-33.4841 -11.7348 -24.6351 -25.3198 -11.7348 -23.4265 -17.1554 -11.7348 -21.9075 
-8.99109 -11.7348 -21.5829 -0.826753 -11.7348 -22.0056 7.33758 -11.7348 -22.1014 
15.5019 -11.7348 -19.2505 -49.8127 -3.57049 -21.6386 -41.6484 -3.57049 -23.7638 
-33.4841 -3.57049 -24.0526 -25.3198 -3.57049 -22.807 -17.1554 -3.57049 -21.3038 
-8.99109 -3.57049 -22.7126 -0.826753 -3.57049 -22.0876 7.33758 -3.57049 -21.1416 
15.5019 -3.57049 -20.1242 -49.8127 4.59384 -21.4819 -41.6484 4.59384 -24.069 
-33.4841 4.59384 -24.3413 -25.3198 4.59384 -23.3636 -17.1554 4.59384 -22.3597 
-8.99109 4.59384 -23.9791 -0.826753 4.59384 -22.2707 7.33758 4.59384 -20.9175 
15.5019 4.59384 -20.1847 -49.8127 12.7582 -20.1056 -41.6484 12.7582 -24.8519 
-33.4841 12.7582 -25.5955 -25.3198 12.7582 -24.5164 -17.1554 12.7582 -24.0287 
-8.99109 12.7582 -23.7194 -0.826753 12.7582 -22.1021 7.33758 12.7582 -20.7816 
15.5019 12.7582 -19.5112 -41.6484 20.9225 -23.1604 -33.4841 20.9225 -24.824 
-25.3198 20.9225 -25.5003 -17.1554 20.9225 -25.4671 -8.99109 20.9225 -24.9025 
-0.826753 20.9225 -23.5062 7.33758 20.9225 -21.446 15.5019 20.9225 -19.3293 
-41.6484 29.0868 -18.6111 -33.4841 29.0868 -23.482 -25.3198 29.0868 -25.1377 
-17.1554 29.0868 -25.5154 -8.99109 29.0868 -25.4244 -0.826753 29.0868 -23.9023 
7.33758 29.0868 -21.2628 15.5019 29.0868 -18.7683 -25.3198 37.2512 -20.6211 
-17.1554 37.2512 -22.0676 -8.99109 37.2512 -22.3521 -0.826753 37.2512 -21.0521 
7.33758 37.2512 -18.469 -25.3198 -38.4951 -17.4601 -17.1554 -37.5405 -17.4601 
-41.6484 -30.8414 -17.4601 -32.7427 -36.2278 -17.4601 -33.4841 -35.8859 -17.4601 
-33.4841 -36.2278 -17.0787 -12.8211 -36.2278 -17.4601 -8.99109 -34.6228 -17.4601 
-8.99109 -36.2278 -16.2864 -0.826753 -30.0585 -17.4601 -0.826753 -36.2278 -12.4275 
-44.45 -28.0635 -17.4601 -49.8127 -20.7541 -17.4601 2.70749 -28.0635 -17.4601 
7.33758 -25.0911 -17.4601 7.33758 -28.0635 -15.5058 15.5019 -28.0635 -11.9308 
-50.3071 -19.8992 -17.4601 13.9915 -19.8992 -17.4601 15.5019 -17.7333 -17.4601 
15.5019 -19.8992 -16.8079 23.6662 -19.8992 -14.0241 31.8306 -19.8992 -11.8391 
-54.1567 -11.7348 -17.4601 19.9539 -11.7348 -17.4601 23.6662 -11.7348 -16.082 
31.8306 -11.7348 -14.4559 39.9949 -11.7348 -12.3137 -55.3065 -3.57049 -17.4601 
-57.9771 -3.57049 -10.1618 21.2625 -3.57049 -17.4601 23.6662 -3.57049 -16.4821 
31.8306 -3.57049 -15.397 39.9949 -3.57049 -13.5057 48.1592 -3.57049 -9.8901 
-55.0309 4.59384 -17.4601 21.579 4.59384 -17.4601 23.6662 4.59384 -16.603 
31.8306 4.59384 -15.1555 39.9949 4.59384 -13.3525 48.1592 4.59384 -9.76014 
-53.0617 12.7582 -17.4601 -49.8127 19.7085 -17.4601 21.9303 12.7582 -17.4601 
23.6662 12.7582 -16.9101 31.8306 12.7582 -14.8393 39.9949 12.7582 -12.056 
-49.2372 20.9225 -17.4601 -49.8127 20.9225 -16.104 21.8601 20.9225 -17.4601 
23.6662 20.9225 -16.9233 31.8306 20.9225 -14.1522 39.9949 20.9225 -9.96407 
-42.9436 29.0868 -17.4601 -41.6484 30.3174 -17.4601 -33.4841 35.8352 -17.4601 
19.1014 29.0868 -17.4601 15.5019 33.1424 -17.4601 23.6662 29.0868 -15.6495 
31.8306 29.0868 -11.8398 -30.9858 37.2512 -17.4601 -33.4841 37.2512 -11.0949 
-25.3198 39.6792 -17.4601 -17.1554 41.5599 -17.4601 -8.99109 42.1224 -17.4601 
-0.826753 41.2801 -17.4601 10.6997 37.2512 -17.4601 7.33758 38.5555 -17.4601 
15.5019 37.2512 -15.6641 23.6662 37.2512 -11.0692 -33.4841 -40.2726 -9.29576 
-25.3198 -42.8599 -9.29576 -17.1554 -44.0348 -9.29576 -17.1554 -44.3922 -5.83147 
-8.99109 -42.0847 -9.29576 -8.99109 -44.3922 -1.31785 -0.826753 -38.8656 -9.29576 
-39.9315 -36.2278 -9.29576 -41.6484 -34.9863 -9.29576 5.01317 -36.2278 -9.29576 
7.33758 -34.9591 -9.29576 7.33758 -36.2278 -7.8377 15.5019 -31.0452 -9.29576 
15.5019 -36.2278 -3.16802 -48.2819 -28.0635 -9.29576 -49.8127 -25.9464 -9.29576 
22.7897 -28.0635 -9.29576 23.6662 -27.6226 -9.29576 23.6662 -28.0635 -8.9444 
31.8306 -23.7154 -9.29576 31.8306 -28.0635 -5.25189 -53.6537 -19.8992 -9.29576 
38.9704 -19.8992 -9.29576 39.9949 -19.0776 -9.29576 39.9949 -19.8992 -8.85239 
48.1592 -19.8992 -2.31747 -57.2757 -11.7348 -9.29576 -57.9771 -5.74742 -9.29576 
46.0817 -11.7348 -9.29576 48.1592 -6.4757 -9.29576 48.1592 -11.7348 -7.91354 
-58.2062 -3.57049 -9.29576 -57.9771 1.00425 -9.29576 -57.9771 -3.57049 -8.25974 
48.9836 -3.57049 -9.29576 56.3236 -3.57049 -1.32773 -57.7962 4.59384 -9.29576 
48.7924 4.59384 -9.29576 48.1592 6.3505 -9.29576 -55.7764 12.7582 -9.29576 
45.1421 12.7582 -9.29576 48.1592 12.7582 -7.10381 -51.9529 20.9225 -9.29576 
-49.8127 23.8934 -9.29576 -49.8127 20.9225 -1.81404 40.9269 20.9225 -9.29576 
39.9949 22.3635 -9.29576 48.1592 20.9225 -2.02354 -45.0492 29.0868 -9.29576 
-41.6484 32.2254 -9.29576 35.5396 29.0868 -9.29576 31.8306 32.8689 -9.29576 
39.9949 29.0868 -4.30493 -34.0243 37.2512 -9.29576 -33.4841 37.5606 -9.29576 
-33.4841 37.2512 -7.9758 -25.3198 41.2756 -9.29576 -17.1554 43.3786 -9.29576 
-8.99109 44.6798 -9.29576 -0.826753 45.1535 -9.29576 7.33758 44.5775 -9.29576 
15.5019 42.6089 -9.29576 26.4505 37.2512 -9.29576 23.6662 38.9501 -9.29576 
31.8306 37.2512 -2.49452 -17.1554 -44.8193 -1.13142 -8.99109 -44.4369 -1.13142 
-33.4841 -39.8404 -1.13142 -19.681 -44.3922 -1.13142 -25.3198 -43.343 -1.13142 
-17.1554 -44.3922 0.389752 -8.75188 -44.3922 -1.13142 -8.99109 -44.3922 -0.781016 
-0.826753 -42.8589 -1.13142 7.33758 -40.7483 -1.13142 15.5019 -37.6184 -1.13142 
-38.3383 -36.2278 -1.13142 -41.6484 -32.3595 -1.13142 -33.4841 -36.2278 4.1836 
19.224 -36.2278 -1.13142 23.6662 -34.5546 -1.13142 23.6662 -36.2278 1.82076 
31.8306 -31.5989 -1.13142 -45.2588 -28.0635 -1.13142 -49.8127 -22.476 -1.13142 
-41.6484 -28.0635 2.79551 38.9518 -28.0635 -1.13142 39.9949 -27.5433 -1.13142 
39.9949 -28.0635 -0.252984 48.1592 -21.0837 -1.13142 -51.4161 -19.8992 -1.13142 
-49.8127 -19.8992 1.02815 49.2384 -19.8992 -1.13142 -54.5926 -11.7348 -1.13142 
-49.8127 -11.7348 3.95336 54.2867 -11.7348 -1.13142 56.3236 -4.13512 -1.13142 
56.3236 -11.7348 4.73501 -56.0484 -3.57049 -1.13142 -49.8127 -3.57049 6.05996 
56.4546 -3.57049 -1.13142 56.3236 2.26479 -1.13142 -55.6202 4.59384 -1.13142 
-49.8127 4.59384 5.90041 56.2653 4.59384 -1.13142 56.3236 4.59384 -0.96166 
-53.1043 12.7582 -1.13142 -49.8127 20.4019 -1.13142 -49.8127 12.7582 3.57011 
53.3377 12.7582 -1.13142 -49.501 20.9225 -1.13142 -41.6484 20.9225 5.46113 
48.8769 20.9225 -1.13142 48.1592 21.9709 -1.13142 -42.0606 29.0868 -1.13142 
-41.6484 29.4746 -1.13142 -41.6484 29.0868 -0.632168 -33.4841 35.2144 -1.13142 
-33.4841 29.0868 5.44563 42.564 29.0868 -1.13142 39.9949 31.4221 -1.13142 
-30.1411 37.2512 -1.13142 -25.3198 39.5166 -1.13142 -25.3198 37.2512 2.65769 
-17.1554 42.1645 -1.13142 -8.99109 43.8724 -1.13142 -0.826753 44.943 -1.13142 
7.33758 45.1497 -1.13142 15.5019 44.2923 -1.13142 23.6662 42.0019 -1.13142 
32.717 37.2512 -1.13142 31.8306 37.8352 -1.13142 31.8306 37.2512 3.47139 
-25.3198 -38.7548 7.03291 -17.1554 -41.9727 7.03291 -8.99109 -43.2487 7.03291 
-0.826753 -43.3579 7.03291 7.33758 -42.6613 7.03291 15.5019 -41.1012 7.03291 
23.6662 -38.8233 7.03291 -29.469 -36.2278 7.03291 -33.4841 -32.3496 7.03291 
-25.3198 -36.2278 9.37113 -17.1554 -36.2278 12.7014 31.0922 -36.2278 7.03291 
31.8306 -35.9354 7.03291 31.8306 -36.2278 9.49454 39.9949 -31.7409 7.03291 
-36.9155 -28.0635 7.03291 -41.6484 -20.4724 7.03291 -33.4841 -28.0635 9.24346 
-25.3198 -28.0635 13.4602 45.0412 -28.0635 7.03291 48.1592 -25.2652 7.03291 
-42.04 -19.8992 7.03291 -41.6484 -19.8992 7.26455 -33.4841 -19.8992 11.1988 
-25.3198 -19.8992 14.3018 52.837 -19.8992 7.03291 56.3236 -13.2317 7.03291 
-46.2967 -11.7348 7.03291 -41.6484 -11.7348 10.0308 -33.4841 -11.7348 12.858 
-25.3198 -11.7348 14.7293 56.9834 -11.7348 7.03291 56.3236 -11.7348 11.2106 
-48.5747 -3.57049 7.03291 -41.6484 -3.57049 11.5188 -33.4841 -3.57049 14.122 
58.901 -3.57049 7.03291 -48.4843 4.59384 7.03291 -41.6484 4.59384 11.6898 
-33.4841 4.59384 14.5754 58.5728 4.59384 7.03291 56.3236 11.4219 7.03291 
-46.1718 12.7582 7.03291 -41.6484 18.4004 7.03291 -41.6484 12.7582 9.75217 
-33.4841 12.7582 13.2608 55.8529 12.7582 7.03291 -39.3231 20.9225 7.03291 
-33.4841 26.8068 7.03291 -33.4841 20.9225 10.2525 -25.3198 20.9225 13.2548 
51.0017 20.9225 7.03291 48.1592 24.2749 7.03291 -31.045 29.0868 7.03291 
-25.3198 33.2162 7.03291 -25.3198 29.0868 9.92622 -17.1554 29.0868 13.4931 
31.8306 36.7873 7.03291 43.2482 29.0868 7.03291 39.9949 31.739 7.03291 
39.9949 29.0868 12.9976 -18.3712 37.2512 7.03291 -17.1554 37.7803 7.03291 
-17.1554 37.2512 7.62212 -8.99109 40.2983 7.03291 -8.99109 37.2512 10.3088 
-0.826753 41.6073 7.03291 -0.826753 37.2512 11.979 7.33758 42.0735 7.03291 
7.33758 37.2512 12.946 15.5019 41.4834 7.03291 15.5019 37.2512 12.8005 
30.6722 37.2512 7.03291 23.6662 39.8632 7.03291 23.6662 37.2512 11.0872 
-8.99109 -36.7295 15.1972 -0.826753 -38.9634 15.1972 7.33758 -40.5702 15.1972 
15.5019 -40.9765 15.1972 23.6662 -39.8212 15.1972 31.8306 -36.8536 15.1972 
-10.2093 -36.2278 15.1972 -17.1554 -31.1949 15.1972 -8.99109 -36.2278 15.5854 
-0.826753 -36.2278 17.5612 7.33758 -36.2278 19.795 15.5019 -36.2278 21.2557 
23.6662 -36.2278 21.5767 33.0743 -36.2278 15.1972 31.8306 -36.2278 16.5507 
39.9949 -32.2968 15.1972 -20.671 -28.0635 15.1972 -17.1554 -28.0635 16.4509 
-8.99109 -28.0635 18.9469 -0.826753 -28.0635 21.1733 45.3075 -28.0635 15.1972 
39.9949 -28.0635 21.5782 48.1592 -25.0104 15.1972 -22.9453 -19.8992 15.1972 
-17.1554 -19.8992 17.4346 -8.99109 -19.8992 20.4768 -0.826753 -19.8992 22.5334 
[...]
POINT_DATA 500
SCALARS ImageScalars float
LOOKUP_TABLE default
0 0 0 0 0 0 0 0 0 
0 0 0 0 0 0 0 0 0 
0 0 0 0 0 0 0 0 0 
0 0 0 0 0 0 0 0 0 
0 0 0 0 0 0 0 0 0 
0 0 0 0 0 0 0 0 0 
0 0 0 0 0 0 0 0 0 
0 0 0 0 0 0 0 0 0 
0 0 0 0 0 0 0 0 0 
0 0 0 0 0 0 0 0 0 
0 0 0 0 0 0 0 0 0 
0 0 0 0 0 0 0 0 0 
0 0 0 0 0 0 0 0 0 
0 0 0 0 0 0 0 0 0 
0 0 0 0 0 0 0 0 0 
0 0 0 0 0 0 0 0 0 
0 0 0 0 0 0 0 0 0 
0 0 0 0 0 0 0 0 0 
0 0 0 0 0 0 0 0 0 
0 0 0 0 0 0 0 0 0 
0 0 0 0 0 0 0 0 0 
0 0 0 0 0 0 0 0 0 
0 0 0 0 0 0 0 0 0 
0 0 0 0 0 0 0 0 0 
0 0 0 0 0 0 0 0 0 
0 0 0 0 0 0 0 0 0 
0 0 0 0 0 0 0 0 0 
0 0 0 0 0 0 0 0 0 
0 0 0 0 0 0 0 0 0 
0 0 0 0 0 0 0 0 0 
0 0 0 0 0 0 0 0 0 
0 0 0 0 0 0 0 0 0 
0 0 0 0 0 0 0 0 0 
0 0 0 0 0 0 0 0 0 
0 0 0 0 0 0 0 0 0 
0 0 0 0 0 0 0 0 0 
0 0 0 0 0 0 0 0 0 
0 0 0 0 0 0 0 0 0 
0 0 0 0 0 0 0 0 0 
0 0 0 0 0 0 0 0 0 
0 0 0 0 0 0 0 0 0 
0 0 0 0 0 0 0 0 0 
0 0 0 0 0 0 0 0 0 
0 0 0 0 0 0 0 0 0 
0 0 0 0 0 0 0 0 0 
0 0 0 0 0 0 0 0 0 
0 0 0 0 0 0 0 0 0 
0 0 0 0 0 0 0 0 0 
0 0 0 0 0 0 0 0 0 
0 0 0 0 0 0 0 0 0 
0 0 0 0 0 0 0 0 0 
0 0 0 0 0 0 0 0 0 
0 0 0 0 0 0 0 0 0 
0 0 0 0 0 0 0 0 0 
0 0 0 0 0 0 0 0 0 
0 0 0 0 0 
NORMALS Normals float
0.0684703 0.576472 0.814243 -0.155188 0.58138 0.798695 0.449574 0.470227 0.759454 
0.200268 0.351055 0.914688 -0.00433332 0.231737 0.972769 -0.102947 0.215919 0.970969 
-0.203889 0.305861 0.929988 -0.287518 0.445577 0.847818 0.68344 0.399875 0.610745 
0.265032 0.296813 0.91742 0.0587187 0.132939 0.989383 -0.0428369 0.0367196 0.998407 
-0.0705221 -0.0194687 0.99732 -0.08192 0.0309652 0.996158 -0.129225 0.182196 0.974734 
-0.257827 0.344382 0.902733 0.54131 0.175261 0.822355 0.214849 0.0642015 0.974535 
-0.0621717 0.0270022 0.9977 -0.163153 -0.0456957 0.985542 -0.109788 -0.100337 0.988878 
0.00738076 0.00758392 0.999944 0.0315686 0.0316992 0.998999 -0.146826 0.0494201 0.987927 
-0.367437 0.177137 0.913024 0.451054 0.0503621 0.891074 0.141178 -0.0194498 0.989793 
-0.0582271 -0.0173637 0.998152 -0.171363 -0.00146433 0.985207 -0.0181866 0.0287481 0.999421 
0.0581361 0.155431 0.986135 -0.0987033 0.0165448 0.994979 -0.107445 -0.072118 0.991592 
-0.295364 0.0537982 0.953869 0.500964 -0.0847345 0.86131 0.156621 0.0569929 0.986013 
-0.0409471 0.0915539 0.994958 -0.119664 0.103809 0.987372 0.030378 0.163674 0.986047 
0.00583885 0.0531275 0.998571 -0.194949 -0.000248141 0.980813 -0.114175 -0.0217183 0.993223 
-0.271542 -0.0382311 0.961667 0.615272 -0.216656 0.757958 0.280813 -0.0393263 0.958956 
-0.0275831 0.0327852 0.999082 -0.0957271 0.134109 0.986332 -0.0487214 0.188784 0.980809 
-0.113887 0.0571848 0.991847 -0.182857 0.0765563 0.980154 -0.151252 0.0309259 0.988011 
-0.231898 -0.0488628 0.971512 0.363559 -0.328757 0.871633 0.137294 -0.113132 0.984049 
0.0376476 0.0403412 0.998476 -0.036128 0.0871575 0.995539 -0.117548 0.102138 0.987801 
-0.206857 0.106114 0.9726 -0.249783 0.0302669 0.967829 -0.264555 -0.0430596 0.963409 
0.577707 -0.612047 0.540049 0.329127 -0.385568 0.861982 0.110217 -0.235967 0.96549 
0.0155449 -0.167098 0.985818 -0.0966947 -0.12672 0.987214 -0.245137 -0.12733 0.96109 
-0.299671 -0.160827 0.940389 -0.314995 -0.183919 0.931102 0.269653 -0.712274 0.648037 
0.0846037 -0.622604 0.77795 -0.0593445 -0.572838 0.817518 -0.216132 -0.531358 0.819112 
-0.274407 -0.498479 0.822326 0.0774242 0.699442 0.710483 -0.156925 0.635559 0.755936 
0.48719 0.577887 0.654746 0.29962 0.671587 0.677642 0.318628 0.665129 0.675336 
0.331149 0.688113 0.645632 -0.219387 0.610537 0.760995 -0.262041 0.566362 0.781389 
-0.272396 0.638196 0.720073 -0.306739 0.499308 0.81031 -0.34378 0.677355 0.650389 
0.570694 0.512713 0.641432 0.699789 0.421998 0.576379 -0.309378 0.495222 0.811813 
-0.311759 0.478988 0.820595 -0.326065 0.558761 0.76254 -0.30684 0.59343 0.744103 
0.705123 0.41204 0.577083 -0.336534 0.362673 0.86903 -0.35466 0.315214 0.880259 
-0.345401 0.365977 0.864152 -0.270097 0.364135 0.891321 -0.271144 0.436564 0.857842 
0.737021 0.24745 0.628942 -0.319147 0.152127 0.935416 -0.269273 0.135632 0.953465 
-0.218485 0.196277 0.955897 -0.34742 0.242674 0.905764 0.786819 0.0364695 0.616105 
0.997095 0.0274031 0.0710635 -0.273212 0.0365175 0.96126 -0.256933 0.0300777 0.965961 
-0.183409 0.0434584 0.982076 -0.313699 0.0600749 0.94762 -0.543276 0.0842944 0.835311 
0.792746 -0.102388 0.600892 -0.283014 0.0145966 0.959005 -0.279458 0.0251394 0.959829 
-0.200245 -0.0338443 0.979161 -0.305493 -0.0842836 0.948457 -0.545215 -0.12413 0.829055 
0.752249 -0.294941 0.589178 0.761193 -0.416801 0.496852 -0.273108 0.00762383 0.961953 
-0.280173 0.0195299 0.959751 -0.279937 -0.0553978 0.958419 -0.401588 -0.182822 0.897387 
0.760291 -0.435505 0.481968 0.796073 -0.462214 0.390675 -0.285144 -0.0597006 0.956623 
-0.293306 -0.0672806 0.953648 -0.376119 -0.162729 0.91217 -0.527561 -0.316707 0.788274 
0.6153 -0.63297 0.469845 0.589719 -0.65944 0.46623 0.451555 -0.77131 0.44853 
-0.340608 -0.21763 0.914671 -0.333895 -0.330686 0.882701 -0.376699 -0.281066 0.882666 
-0.490082 -0.392412 0.778352 0.409115 -0.80299 0.433397 0.478288 -0.875884 0.0637819 
0.301413 -0.844609 0.442478 0.148935 -0.85741 0.492612 -0.0112574 -0.833414 0.552535 
-0.170363 -0.727776 0.664318 -0.301113 -0.496034 0.814421 -0.263835 -0.552339 0.790767 
-0.352629 -0.530993 0.770519 -0.447194 -0.638648 0.626216 0.4186 0.891443 0.173505 
0.201115 0.951606 0.232375 -0.0267953 0.941006 0.337329 0.0134901 0.988458 0.150893 
-0.261826 0.855684 0.446376 -0.118906 0.990862 0.063674 -0.340429 0.760212 0.55334 
0.572806 0.814577 0.0914173 0.619956 0.782472 0.0582488 -0.342716 0.713328 0.611317 
-0.338857 0.69913 0.629598 -0.339769 0.732592 0.589801 -0.307618 0.660297 0.685112 
-0.322501 0.78073 0.535214 0.797511 0.603204 0.0110232 0.828943 0.559033 0.0183014 
-0.280546 0.626755 0.726961 -0.278282 0.617062 0.736066 -0.279148 0.632559 0.722458 
-0.295504 0.557886 0.775526 -0.334547 0.699455 0.631538 0.886665 0.461485 0.0292755 
-0.382628 0.491917 0.782058 -0.395682 0.472745 0.787368 -0.402887 0.501996 0.765299 
-0.63745 0.55863 0.530651 0.963088 0.269171 0.00287627 0.995773 0.0904831 0.0158073 
-0.500945 0.289781 0.815525 -0.551295 0.160402 0.818746 -0.575023 0.309286 0.757424 
0.99939 0.027645 0.0213342 0.997791 -0.0646371 0.0153515 0.999106 0.0286811 -0.0310571 
-0.570241 0.0834707 0.817226 -0.876272 0.0972076 0.471909 0.990415 -0.137641 0.0115103 
-0.566046 -0.124646 0.814896 -0.555726 -0.160649 0.815696 0.9386 -0.344612 -0.0164877 
-0.513313 -0.259979 0.817876 -0.619824 -0.314699 0.718876 0.852028 -0.523488 0.00290257 
0.805253 -0.592788 -0.013055 0.75153 -0.515715 -0.411389 -0.54987 -0.333304 0.765867 
-0.551563 -0.351659 0.756382 -0.745177 -0.490846 0.451421 0.704107 -0.708713 -0.044273 
0.6465 -0.761513 -0.0462032 -0.556244 -0.448133 0.699835 -0.522245 -0.546453 0.654713 
-0.665065 -0.597796 0.44758 0.48397 -0.87458 -0.0296928 0.473015 -0.880619 -0.0277137 
0.482537 -0.872285 -0.0792257 0.318286 -0.947955 -0.00872647 0.210469 -0.977267 0.0255546 
0.10514 -0.991086 0.0818156 -0.00357268 -0.985192 0.171415 -0.14176 -0.943842 0.298439 
-0.308194 -0.854973 0.417178 -0.475731 -0.674659 0.564371 -0.443681 -0.708837 0.548359 
-0.529362 -0.824513 0.199884 0.060134 0.994032 -0.0910169 -0.115476 0.99174 0.0558352 
0.502846 0.816331 -0.284165 0.127806 0.985488 -0.111712 0.286952 0.942393 -0.171915 
0.0853301 0.98307 -0.162151 -0.118036 0.991182 0.0602096 -0.109214 0.993212 0.0400244 
-0.212021 0.949627 0.230771 -0.289157 0.875446 0.387276 -0.319079 0.812826 0.487342 
0.620656 0.70653 -0.340001 0.67349 0.610725 -0.416445 0.521681 0.632733 -0.572275 
-0.30195 0.805386 0.510078 -0.280969 0.798952 0.531725 -0.290641 0.850503 0.438375 
-0.329489 0.779181 0.53321 0.706189 0.543165 -0.454169 0.766009 0.459048 -0.450005 
0.640052 0.478701 -0.600981 -0.422102 0.734644 0.531157 -0.436116 0.726601 0.530899 
-0.444574 0.745078 0.497204 -0.641648 0.591475 0.488308 0.790324 0.415801 -0.449997 
0.738143 0.396106 -0.546118 -0.666904 0.56392 0.487065 0.833294 0.260309 -0.487709 
0.68605 0.222052 -0.692841 -0.824943 0.326474 0.461393 -0.878903 0.112595 0.463522 
-0.930864 0.3276 0.161771 0.893332 0.0456247 -0.447074 0.664294 0.0868051 -0.742414 
-0.880224 0.0975865 0.464416 -0.885838 -0.0848314 0.456175 0.886607 -0.148597 -0.438004 
0.689707 -0.0910317 -0.718343 -0.879533 -0.15626 0.449448 -0.884064 -0.157047 0.44019 
0.83794 -0.33063 -0.434213 0.742051 -0.497372 -0.449424 0.724357 -0.301824 -0.619846 
-0.823167 -0.353559 0.444289 0.731772 -0.509579 -0.452591 0.514977 -0.452738 -0.727892 
-0.760673 -0.499242 0.41489 -0.753161 -0.51859 0.404738 0.623589 -0.650512 -0.433556 
0.615756 -0.658022 -0.433419 0.614261 -0.646464 -0.452513 0.498401 -0.766771 -0.404547 
0.451475 -0.543448 -0.707697 -0.698364 -0.652873 0.293332 -0.668809 -0.695927 0.261496 
0.443071 -0.815462 -0.372438 0.359576 -0.861374 -0.358803 0.370831 -0.774022 -0.5132 
0.251764 -0.924246 -0.287025 0.161683 -0.960348 -0.227134 0.0759428 -0.980176 -0.182996 
-0.0387592 -0.990741 -0.130113 -0.181484 -0.981259 -0.0647648 -0.362995 -0.931448 0.0252657 
-0.534403 -0.834688 0.133075 -0.519607 -0.844958 0.126706 -0.481164 -0.869909 -0.108347 
0.371481 0.680944 -0.631124 0.222736 0.814213 -0.53614 0.070309 0.928884 -0.363637 
-0.0373391 0.985812 -0.163646 -0.13498 0.990816 -0.00799119 -0.227604 0.958603 0.171102 
-0.29358 0.916055 0.273231 0.441662 0.586469 -0.678962 0.508277 0.454708 -0.731365 
0.380404 0.574737 -0.724548 0.298204 0.55654 -0.77546 -0.390818 0.884193 0.255859 
-0.398484 0.881079 0.254776 -0.406287 0.904607 0.128909 -0.508 0.835972 0.207572 
0.548983 0.367846 -0.750538 0.486273 0.338731 -0.805481 0.495039 0.315557 -0.809543 
0.383466 0.236723 -0.892702 -0.614105 0.76778 0.182726 -0.693577 0.704837 0.148848 
0.485041 0.333394 -0.808445 0.476477 0.330976 -0.814508 0.388998 0.196253 -0.900092 
0.347804 0.070521 -0.934911 -0.809312 0.577231 0.108711 -0.928627 0.365194 0.0654569 
0.564453 0.216153 -0.796662 0.433954 0.225813 -0.872177 0.274638 0.172329 -0.945979 
0.208768 0.0819397 -0.974526 -0.944531 0.322801 0.0605003 -0.939461 0.309864 -0.14628 
0.619441 0.084961 -0.780432 0.410029 0.0957803 -0.90703 0.228623 0.0987215 -0.968497 
-0.99451 0.0918995 0.0500443 0.641448 -0.0817997 -0.762793 0.433613 -0.0967535 -0.89589 
0.26318 -0.0455017 -0.963673 -0.983841 -0.175628 0.0347978 -0.932505 -0.360575 0.0205046 
0.56853 -0.295923 -0.767596 0.48611 -0.394084 -0.779997 0.4466 -0.298265 -0.843556 
0.306142 -0.232212 -0.92323 -0.917209 -0.398034 0.0172092 0.467903 -0.426218 -0.774212 
0.427562 -0.48338 -0.763894 0.384556 -0.386041 -0.838504 0.272441 -0.289934 -0.91745 
-0.790061 -0.612346 -0.0289296 -0.736868 -0.672734 -0.0667395 0.427558 -0.501294 -0.752262 
0.389143 -0.583632 -0.7127 0.393348 -0.4505 -0.801453 0.287504 -0.358065 -0.88833 
-0.428868 -0.854741 -0.292386 -0.638796 -0.756867 -0.138173 -0.585854 -0.79543 -0.155135 
-0.506846 -0.740202 -0.441825 0.311306 -0.719409 -0.620918 0.30058 -0.733262 -0.6099 
0.300667 -0.715553 -0.630542 0.197422 -0.788181 -0.58292 0.199445 -0.677501 -0.707965 
0.0943176 -0.828152 -0.552512 0.122447 -0.664539 -0.737153 -0.00799815 -0.859356 -0.511315 
0.0384588 -0.70103 -0.712094 -0.122843 -0.87437 -0.469453 -0.0675909 -0.754098 -0.653274 
-0.405484 -0.860433 -0.308606 -0.25002 -0.883043 -0.397146 -0.208788 -0.81797 -0.536034 
0.238977 0.550168 -0.800128 0.186623 0.703812 -0.685435 0.101015 0.857475 -0.504512 
-0.0467912 0.948702 -0.31269 -0.235941 0.955 -0.179743 -0.396818 0.90501 -0.15327 
0.251109 0.530446 -0.809674 0.304875 0.346423 -0.887154 0.241212 0.529923 -0.813018 
0.226579 0.570187 -0.789651 0.196484 0.625937 -0.754717 0.0910301 0.683129 -0.724602 
-0.125757 0.74491 -0.655206 -0.419135 0.895524 -0.149541 -0.391105 0.890949 -0.230753 
-0.565838 0.806412 -0.171832 0.334732 0.232368 -0.913214 0.305685 0.23562 -0.922518 
0.276307 0.266735 -0.923313 0.249353 0.257737 -0.933485 -0.670975 0.713479 -0.201843 
-0.509019 0.600011 -0.61716 -0.739909 0.628779 -0.239108 0.352245 0.0496408 -0.93459 
0.358256 0.013717 -0.933523 0.301868 0.121325 -0.945598 0.21807 0.142897 -0.965415 
-0.812677 0.495807 -0.306156 -0.685342 0.412045 -0.600438 0.245495 0.0493927 -0.968139 
0.181492 0.0928337 -0.979001 0.365767 -0.0415175 -0.92978 0.40211 -0.0280515 -0.915161 
-0.889247 0.281309 -0.360701 -0.906517 0.199848 -0.371871 0.174023 0.102023 -0.979442 
0.154264 0.105745 -0.982355 0.254576 0.0993231 -0.961939 0.3525 -0.0489765 -0.934529 
0.321328 -0.0457003 -0.945865 -0.916431 0.0702072 -0.393986 -0.87739 0.0650647 -0.475345 
0.245292 -0.0360554 -0.968778 0.218144 -0.0230288 -0.975645 0.228605 0.015415 -0.973397 
0.252247 0.0078512 -0.967631 0.336792 0.0464819 -0.940431 -0.894031 -0.191508 -0.405011 
-0.881406 -0.235069 -0.409714 -0.872606 -0.192903 -0.448716 0.21892 -0.184064 -0.958224 
0.216683 -0.18777 -0.958014 0.214415 -0.182181 -0.959602 0.275193 -0.175392 -0.945255 
0.386013 -0.140651 -0.911708 -0.787704 -0.418135 -0.452423 -0.538006 -0.384125 -0.750331 
0.243398 -0.200421 -0.948994 0.244442 -0.202932 -0.948191 0.243187 -0.197624 -0.949634 
0.318897 -0.267508 -0.909255 0.313513 -0.366594 -0.875967 0.130232 -0.34279 -0.930341 
-0.0435454 -0.312165 -0.94903 -0.122392 -0.398267 -0.909067 -0.457213 -0.689532 -0.561696 
-0.334613 -0.498836 -0.799498 -0.636039 -0.615261 -0.465735 -0.635322 -0.615897 -0.465872 
-0.634865 -0.615019 -0.467651 0.201769 -0.357243 -0.911958 0.193434 -0.369343 -0.908939 
0.194289 -0.359233 -0.9128 0.164306 -0.515309 -0.841107 0.199875 -0.454539 -0.868012 
0.0777379 -0.618713 -0.781762 0.136125 -0.517775 -0.844618 -0.0310924 -0.676128 -0.736128 
0.0123389 -0.525693 -0.850585 -0.150159 -0.700442 -0.697735 -0.110535 -0.561689 -0.819932 
-0.396881 -0.701798 -0.591578 -0.268056 -0.710171 -0.651002 -0.242675 -0.651913 -0.718414 
0.245093 0.231605 -0.941429 0.137424 0.449887 -0.882449 -0.0635347 0.558055 -0.827368 
-0.263205 0.562627 -0.783692 0.245731 0.223236 -0.943282 0.245728 0.221201 -0.943763 
0.148002 0.243873 -0.958448 0.00376754 0.263175 -0.964741 -0.383559 0.503911 -0.773923 
-0.19164 0.39671 -0.897717 -0.430706 0.451116 -0.781656 0.221532 0.09683 -0.970334 
0.182052 0.0549361 -0.981753 0.225783 0.0502653 -0.97288 0.175849 0.00829935 -0.984382 
0.0559913 0.0754597 -0.995576 -0.0787497 0.144665 -0.986342 -0.486134 0.30695 -0.818202 
-0.317805 0.237415 -0.917951 -0.540911 0.198817 -0.817243 0.194173 0.026177 -0.980618 
0.235645 0.000354536 -0.971839 0.172026 0.0326731 -0.98455 0.116934 0.0586533 -0.991406 
0.179992 -0.0722909 -0.981008 0.146715 -0.0416034 -0.988304 -0.0126488 0.0026605 -0.999916 
-0.237258 0.0927836 -0.967006 -0.542495 0.180847 -0.820362 -0.52891 0.178309 -0.829735 
0.293669 -0.0273589 -0.955515 0.116552 0.0691763 -0.990773 0.0740257 -0.0412321 -0.996404 
0.131447 -0.0792585 -0.98815 0.0528701 -0.0631004 -0.996606 -0.151349 -0.0222171 -0.988231 
-0.533022 0.0184981 -0.845899 -0.471321 0.0107498 -0.881896 0.296991 0.0384079 -0.954108 
0.320844 -0.027379 -0.946736 0.107455 0.0074163 -0.994182 0.0232366 -0.0262613 -0.999385 
0.131975 -0.0826917 -0.987798 0.0403706 -0.123978 -0.991463 -0.17255 -0.169445 -0.970317 
-0.486543 -0.183941 -0.854074 -0.466659 -0.218031 -0.857142 -0.458804 -0.183359 -0.869413 
0.316119 -0.0975033 -0.943696 0.308536 -0.143358 -0.940348 0.302317 -0.0925993 -0.948699 
0.129928 -0.341935 -0.930698 0.0487318 -0.121033 -0.991452 -0.0141981 -0.0810808 -0.996606 
-0.0408697 -0.306126 -0.951113 0.0322814 -0.150647 -0.98806 -0.0984811 -0.358115 -0.928469 
-0.036943 -0.244475 -0.968952 -0.31402 -0.322391 -0.893004 -0.247962 -0.354056 -0.901753 
-0.219821 -0.302983 -0.927297 0.124147 -0.339556 -0.932357 -0.0318584 -0.29971 -0.953498 
-0.00259103 -0.280136 -0.959957 -0.00332495 -0.269104 -0.963105 
