# vtk DataFile Version 4.2
vtk output
ASCII
DATASET POLYDATA
POINTS 518 float
-18.6924 -40.0306 -17.1039 -11.0121 -40.0306 -18.2268 -3.33168 -40.0306 -18.1732 
4.3487 -40.0306 -16.4507 12.0291 -40.0306 -13.3595 -34.0532 -32.3503 -13.4384 
-26.3728 -32.3503 -17.2061 -18.6924 -32.3503 -19.8254 -11.0121 -32.3503 -20.0945 
-3.33168 -32.3503 -19.8518 4.3487 -32.3503 -18.6976 12.0291 -32.3503 -17.6628 
19.7095 -32.3503 -15.6637 -34.0532 -24.6699 -16.7548 -26.3728 -24.6699 -18.4305 
-18.6924 -24.6699 -19.3925 -11.0121 -24.6699 -19.7469 -3.33168 -24.6699 -19.5178 
4.3487 -24.6699 -18.7521 12.0291 -24.6699 -18.4881 19.7095 -24.6699 -17.8931 
27.3898 -24.6699 -17.3137 35.0702 -24.6699 -14.8491 -41.7336 -16.9895 -14.3756 
-34.0532 -16.9895 -17.0728 -26.3728 -16.9895 -18.118 -18.6924 -16.9895 -18.228 
-11.0121 -16.9895 -18.2944 -3.33168 -16.9895 -18.0158 4.3487 -16.9895 -17.6909 
12.0291 -16.9895 -18.0212 19.7095 -16.9895 -18.4288 27.3898 -16.9895 -18.2988 
35.0702 -16.9895 -17.5583 42.7506 -16.9895 -15.9102 -41.7336 -9.30912 -16.1837 
-34.0532 -9.30912 -17.8467 -26.3728 -9.30912 -18.0444 -18.6924 -9.30912 -17.5325 
-11.0121 -9.30912 -17.5842 -3.33168 -9.30912 -17.6717 4.3487 -9.30912 -17.9912 
12.0291 -9.30912 -17.6503 19.7095 -9.30912 -17.6833 27.3898 -9.30912 -18.4705 
35.0702 -9.30912 -18.651 42.7506 -9.30912 -17.962 50.431 -9.30912 -14.3308 
-49.414 -1.62874 -13.706 -41.7336 -1.62874 -17.3542 -34.0532 -1.62874 -18.3316 
-26.3728 -1.62874 -17.9145 -18.6924 -1.62874 -16.8603 -11.0121 -1.62874 -20.2717 
-3.33168 -1.62874 -18.1892 4.3487 -1.62874 -17.4296 12.0291 -1.62874 -15.7397 
19.7095 -1.62874 -16.2369 27.3898 -1.62874 -17.8763 35.0702 -1.62874 -18.8238 
42.7506 -1.62874 -18.6873 50.431 -1.62874 -16.0913 -49.414 6.05164 -13.9285 
-41.7336 6.05164 -16.98 -34.0532 6.05164 -17.6044 -26.3728 6.05164 -16.9388 
-18.6924 6.05164 -15.8796 -11.0121 6.05164 -17.6344 -3.33168 6.05164 -16.4578 
4.3487 6.05164 -17.619 12.0291 6.05164 -14.9604 19.7095 6.05164 -15.0119 
27.3898 6.05164 -16.7589 35.0702 6.05164 -17.8029 42.7506 6.05164 -17.7638 
50.431 6.05164 -15.6973 -41.7336 13.732 -15.0088 -34.0532 13.732 -16.0282 
-26.3728 13.732 -15.8927 -18.6924 13.732 -15.3228 -11.0121 13.732 -16.4898 
-3.33168 13.732 -16.4703 4.3487 13.732 -15.336 27.3898 13.732 -15.0648 
35.0702 13.732 -15.9032 42.7506 13.732 -15.712 -34.0532 21.4124 -13.86 
-26.3728 21.4124 -14.4733 -18.6924 21.4124 -14.7523 -11.0121 21.4124 -15.5147 
-3.33168 21.4124 -15.0951 4.3487 21.4124 -13.6424 -18.6924 -43.7686 -13.3542 
-11.0121 -45.9241 -13.3542 -11.0121 -47.711 -7.49183 -3.33168 -45.9102 -13.3542 
-3.33168 -47.711 -7.06014 4.3487 -43.776 -13.3542 12.0291 -40.0357 -13.3542 
-34.0532 -32.4724 -13.3542 -26.2778 -40.0306 -13.3542 -26.3728 -39.9624 -13.3542 
-26.3728 -40.0306 -13.2528 12.0395 -40.0306 -13.3542 19.7095 -35.8343 -13.3542 
-34.1616 -32.3503 -13.3542 26.2504 -32.3503 -13.3542 27.3898 -31.6956 -13.3542 
27.3898 -32.3503 -12.3339 35.0702 -26.4853 -13.3542 -38.9706 -24.6699 -13.3542 
-41.7336 -19.7954 -13.3542 -41.7336 -24.6699 -10.0338 37.7285 -24.6699 -13.3542 
42.7506 -21.0216 -13.3542 42.7506 -24.6699 -7.21113 -43.1204 -16.9895 -13.3542 
46.542 -16.9895 -13.3542 50.431 -11.3119 -13.3542 50.431 -16.9895 -7.66217 
-46.8528 -9.30912 -13.3542 -49.414 -3.27245 -13.3542 -49.414 -9.30912 -11.271 
51.7847 -9.30912 -13.3542 -49.9413 -1.62874 -13.3542 54.1943 -1.62874 -13.3542 
58.1114 -1.62874 -7.50023 -50.3678 6.05164 -13.3542 -49.414 8.70039 -13.3542 
12.0291 10.889 -13.3542 19.7095 12.9076 -13.3542 54.8275 6.05164 -13.3542 
50.431 12.8725 -13.3542 58.1114 6.05164 -9.79807 -46.2964 13.732 -13.3542 
-49.414 13.732 -12.0576 -41.7336 19.301 -13.3542 10.2372 13.732 -13.3542 
12.0291 13.732 -12.8186 20.5306 13.732 -13.3542 19.7095 13.732 -13.1499 
27.3898 17.7897 -13.3542 35.0702 18.7334 -13.3542 49.5866 13.732 -13.3542 
42.7506 17.8495 -13.3542 50.431 13.732 -12.9909 -49.414 21.4124 -8.82502 
-37.4764 21.4124 -13.3542 -41.7336 21.4124 -12.6248 -34.0532 22.6491 -13.3542 
-26.3728 25.4352 -13.3542 -18.6924 25.9442 -13.3542 -11.0121 28.0149 -13.3542 
-3.33168 27.1142 -13.3542 5.57108 21.4124 -13.3542 4.3487 22.8742 -13.3542 
12.0291 21.4124 -11.8414 19.7095 21.4124 -11.397 27.3898 21.4124 -11.6526 
35.0702 21.4124 -11.7637 42.7506 21.4124 -10.9011 50.431 21.4124 -5.95837 
-41.7336 29.0928 -7.75157 -34.0532 29.0928 -10.732 -26.3728 29.0928 -12.0694 
-18.6924 29.0928 -12.3754 -11.0121 29.0928 -12.9778 -3.33168 29.0928 -12.7319 
4.3487 29.0928 -12.0361 12.0291 29.0928 -10.34 19.7095 29.0928 -8.43491 
27.3898 29.0928 -6.98624 35.0702 29.0928 -5.6982 -34.0532 36.7732 -5.7897 
-26.3728 36.7732 -6.76784 -18.6924 36.7732 -8.09556 -11.0121 36.7732 -8.75108 
-3.33168 36.7732 -8.75662 4.3487 36.7732 -7.87585 12.0291 36.7732 -5.67734 
-11.0121 -48.1447 -5.67385 -3.33168 -48.0177 -5.67385 -26.3728 -42.8968 -5.67385 
-13.0346 -47.711 -5.67385 -18.6924 -46.4183 -5.67385 -11.0121 -47.711 -4.33818 
-1.83452 -47.711 -5.67385 -3.33168 -47.711 -4.68915 4.3487 -46.3775 -5.67385 
12.0291 -43.3085 -5.67385 -30.5371 -40.0306 -5.67385 -34.0532 -37.086 -5.67385 
18.1894 -40.0306 -5.67385 19.7095 -39.2261 -5.67385 27.3898 -35.0422 -5.67385 
-38.618 -32.3503 -5.67385 -41.7336 -28.2402 -5.67385 32.0236 -32.3503 -5.67385 
35.0702 -30.5107 -5.67385 42.7506 -25.3466 -5.67385 -44.241 -24.6699 -5.67385 
43.5955 -24.6699 -5.67385 42.7506 -24.6699 -3.20208 50.431 -18.2461 -5.67385 
-49.0018 -16.9895 -5.67385 -49.414 -16.2446 -5.67385 51.4464 -16.9895 -5.67385 
50.431 -16.9895 -1.20802 -52.912 -9.30912 -5.67385 56.1799 -9.30912 -5.67385 
58.1114 -4.23328 -5.67385 -55.3039 -1.62874 -5.67385 58.9858 -1.62874 -5.67385 
-56.7785 6.05164 -5.67385 60.0459 6.05164 -5.67385 58.1114 12.5405 -5.67385 
-56.2579 13.732 -5.67385 -57.0943 13.732 1.84399 57.6583 13.732 -5.67385 
-52.6175 21.4124 -5.67385 -49.414 26.1528 -5.67385 42.7506 26.6684 -5.67385 
50.6744 21.4124 -5.67385 50.431 21.6504 -5.67385 -45.8498 29.0928 -5.67385 
-49.414 29.0928 1.68134 -41.7336 31.6507 -5.67385 19.7095 32.9153 -5.67385 
27.3898 30.751 -5.67385 35.1432 29.0928 -5.67385 35.0702 29.1155 -5.67385 
42.7506 29.0928 0.452866 -34.2452 36.7732 -5.67385 -34.0532 36.8616 -5.67385 
-26.3728 38.0162 -5.67385 -18.6924 39.7439 -5.67385 -11.0121 40.4831 -5.67385 
-3.33168 40.3378 -5.67385 4.3487 39.2016 -5.67385 12.0377 36.7732 -5.67385 
12.0291 36.7768 -5.67385 19.7095 36.7732 -1.26421 -11.0121 44.4535 1.28419 
-26.3728 -40.1974 2.00653 -18.6924 -43.836 2.00653 -11.0121 -45.5173 2.00653 
-3.33168 -45.4567 2.00653 4.3487 -43.7353 2.00653 12.0291 -40.5321 2.00653 
-26.5922 -40.0306 2.00653 -34.0532 -34.1538 2.00653 -26.3728 -40.0306 2.2225 
-18.6924 -40.0306 7.45819 4.3487 -40.0306 7.71754 12.997 -40.0306 2.00653 
12.0291 -40.0306 2.83692 19.7095 -36.4935 2.00653 27.3898 -32.445 2.00653 
-35.8689 -32.3503 2.00653 -41.7336 -25.5851 2.00653 -34.0532 -32.3503 4.08375 
19.7095 -32.3503 8.00465 27.5463 -32.3503 2.00653 27.3898 -32.3503 2.14581 
35.0702 -28.1584 2.00653 -42.4466 -24.6699 2.00653 -41.7336 -24.6699 2.99633 
40.5797 -24.6699 2.00653 35.0702 -24.6699 6.95285 42.7506 -23.1177 2.00653 
-47.6732 -16.9895 2.00653 -49.414 -14.3448 2.00653 -41.7336 -16.9895 9.33141 
49.5061 -16.9895 2.00653 50.431 -15.9155 2.00653 -52.2801 -9.30912 2.00653 
-49.414 -9.30912 7.03578 54.937 -9.30912 2.00653 50.431 -9.30912 9.57125 
58.1114 -1.89841 2.00653 -54.9391 -1.62874 2.00653 58.2104 -1.62874 2.00653 
58.1114 -1.62874 2.22988 -56.5846 6.05164 2.00653 -57.0943 13.5264 2.00653 
59.7895 6.05164 2.00653 58.1114 12.7168 2.00653 58.1114 6.05164 6.34654 
-57.1091 13.732 2.00653 -57.0943 13.7739 2.00653 -57.0943 13.732 2.03582 
57.8292 13.732 2.00653 -54.5022 21.4124 2.00653 53.3696 21.4124 2.00653 
50.431 24.6063 2.00653 -49.4887 29.0928 2.00653 -49.414 29.1788 2.00653 
-49.414 29.0928 2.16336 -41.7336 35.7922 2.00653 27.3898 35.7256 2.00653 
35.0702 32.9947 2.00653 43.8287 29.0928 2.00653 42.7506 29.6648 2.00653 
42.7506 29.0928 6.20413 -40.0752 36.7732 2.00653 -34.0532 39.9433 2.00653 
-26.3728 42.7201 2.00653 -18.6924 44.1862 2.00653 -3.33168 44.2876 2.00653 
4.3487 43.1883 2.00653 12.0291 41.1242 2.00653 24.7431 36.7732 2.00653 
19.7095 38.7093 2.00653 -15.152 44.4535 2.00653 -6.05052 44.4535 2.00653 
-11.0121 44.7388 2.00653 -11.0121 44.4535 4.38846 -11.0121 -40.1127 9.68691 
-3.33168 -40.2128 9.68691 -26.3728 -32.4538 9.68691 -11.3544 -40.0306 9.68691 
-18.6924 -37.7887 9.68691 -11.0121 -40.0306 9.76627 -2.46943 -40.0306 9.68691 
-3.33168 -40.0306 9.86876 4.3487 -38.3511 9.68691 12.0291 -35.1356 9.68691 
-26.4996 -32.3503 9.68691 -34.0532 -24.9169 9.68691 -26.3728 -32.3503 9.75767 
-18.6924 -32.3503 13.3211 -11.0121 -32.3503 14.6398 -3.33168 -32.3503 14.9959 
4.3487 -32.3503 14.333 17.1997 -32.3503 9.68691 12.0291 -32.3503 12.2924 
19.7095 -30.7885 9.68691 27.3898 -26.4203 9.68691 -34.2794 -24.6699 9.68691 
-34.0532 -24.6699 9.83281 -26.3728 -24.6699 13.1658 -18.6924 -24.6699 15.4602 
-11.0121 -24.6699 16.6762 -3.33168 -24.6699 17.2569 4.3487 -24.6699 17.3452 
12.0291 -24.6699 16.5913 19.7095 -24.6699 14.0259 30.6114 -24.6699 9.68691 
27.3898 -24.6699 11.1581 35.0702 -22.2022 9.68691 42.7506 -17.4554 9.68691 
-41.2429 -16.9895 9.68691 -41.7336 -16.3697 9.68691 -34.0532 -16.9895 13.3242 
-26.3728 -16.9895 15.2396 -18.6924 -16.9895 16.5421 19.7095 -16.9895 16.7142 
27.3898 -16.9895 15.4064 35.0702 -16.9895 13.7403 43.3129 -16.9895 9.68691 
42.7506 -16.9895 10.1034 -46.7466 -9.30912 9.68691 -49.414 -4.51775 9.68691 
-41.7336 -9.30912 12.8505 -34.0532 -9.30912 15.5322 -26.3728 -9.30912 16.7356 
50.329 -9.30912 9.68691 42.7506 -9.30912 14.9603 50.431 -9.15508 9.68691 
-50.4791 -1.62874 9.68691 -49.414 -1.62874 10.7269 -41.7336 -1.62874 15.1309 
-34.0532 -1.62874 17.2376 54.0103 -1.62874 9.68691 50.431 -1.62874 13.5099 
-51.5922 6.05164 9.68691 -49.414 6.05164 11.7641 -41.7336 6.05164 16.0408 
56.2932 6.05164 9.68691 50.431 6.05164 15.2863 -51.7988 13.732 9.68691 
-49.414 13.732 11.8433 -41.7336 13.732 15.7145 54.2161 13.732 9.68691 
[...]
POINT_DATA 518
SCALARS ImageScalars float
LOOKUP_TABLE default
0 0 0 0 0 0 0 0 0 
0 0 0 0 0 0 0 0 0 
0 0 0 0 0 0 0 0 0 
0 0 0 0 0 0 0 0 0 
0 0 0 0 0 0 0 0 0 
0 0 0 0 0 0 0 0 0 
0 0 0 0 0 0 0 0 0 
0 0 0 0 0 0 0 0 0 
0 0 0 0 0 0 0 0 0 
0 0 0 0 0 0 0 0 0 
0 0 0 0 0 0 0 0 0 
0 0 0 0 0 0 0 0 0 
0 0 0 0 0 0 0 0 0 
0 0 0 0 0 0 0 0 0 
0 0 0 0 0 0 0 0 0 
0 0 0 0 0 0 0 0 0 
0 0 0 0 0 0 0 0 0 
0 0 0 0 0 0 0 0 0 
0 0 0 0 0 0 0 0 0 
0 0 0 0 0 0 0 0 0 
0 0 0 0 0 0 0 0 0 
0 0 0 0 0 0 0 0 0 
0 0 0 0 0 0 0 0 0 
0 0 0 0 0 0 0 0 0 
0 0 0 0 0 0 0 0 0 
0 0 0 0 0 0 0 0 0 
0 0 0 0 0 0 0 0 0 
0 0 0 0 0 0 0 0 0 
0 0 0 0 0 0 0 0 0 
0 0 0 0 0 0 0 0 0 
0 0 0 0 0 0 0 0 0 
0 0 0 0 0 0 0 0 0 
0 0 0 0 0 0 0 0 0 
0 0 0 0 0 0 0 0 0 
0 0 0 0 0 0 0 0 0 
0 0 0 0 0 0 0 0 0 
0 0 0 0 0 0 0 0 0 
0 0 0 0 0 0 0 0 0 
0 0 0 0 0 0 0 0 0 
0 0 0 0 0 0 0 0 0 
0 0 0 0 0 0 0 0 0 
0 0 0 0 0 0 0 0 0 
0 0 0 0 0 0 0 0 0 
0 0 0 0 0 0 0 0 0 
0 0 0 0 0 0 0 0 0 
0 0 0 0 0 0 0 0 0 
0 0 0 0 0 0 0 0 0 
0 0 0 0 0 0 0 0 0 
0 0 0 0 0 0 0 0 0 
0 0 0 0 0 0 0 0 0 
0 0 0 0 0 0 0 0 0 
0 0 0 0 0 0 0 0 0 
0 0 0 0 0 0 0 0 0 
0 0 0 0 0 0 0 0 0 
0 0 0 0 0 0 0 0 0 
0 0 0 0 0 0 0 0 0 
0 0 0 0 0 0 0 0 0 
0 0 0 0 0 
NORMALS Normals float
-0.282851 -0.549499 -0.786159 -0.0523803 -0.450792 -0.891091 0.112421 -0.437333 -0.892245 
0.261146 -0.504506 -0.822968 0.403599 -0.691353 -0.599282 -0.580908 -0.47634 -0.660035 
-0.369111 -0.275632 -0.887572 -0.193524 -0.103468 -0.975624 -0.00047403 -0.0898411 -0.995956 
0.0901573 -0.0808644 -0.992639 0.133546 -0.133681 -0.981985 0.206704 -0.264872 -0.941868 
0.2753 -0.454039 -0.847383 -0.399623 -0.210641 -0.89215 -0.156021 -0.0586819 -0.986009 
-0.0816151 0.101149 -0.991518 -0.00804045 0.113227 -0.993537 0.0646715 0.11244 -0.991552 
0.0666063 0.0653254 -0.995639 0.0558222 -0.017088 -0.998294 0.0764921 -0.169174 -0.982614 
0.167141 -0.293007 -0.941388 0.407233 -0.521066 -0.750101 -0.494552 -0.267638 -0.826915 
-0.220223 -0.0662512 -0.973197 -0.072689 0.0238387 -0.99707 -0.0113985 0.121466 -0.99253 
0.0126968 0.139277 -0.990172 0.0398088 0.122844 -0.991627 -0.0018791 0.0505857 -0.998718 
-0.0485299 0.0544081 -0.997339 -0.0180457 0.0137407 -0.999743 0.0545753 -0.0750109 -0.995688 
0.149172 -0.206563 -0.966995 0.393184 -0.40689 -0.824528 -0.360509 -0.180493 -0.915126 
-0.106941 -0.0808324 -0.990974 0.0207499 0.0132393 -0.999697 0.0305038 0.089592 -0.995511 
-0.00951772 -0.0799275 -0.996755 -0.0272785 -0.00402204 -0.99962 0.00207637 0.0126378 -0.999918 
0.0194417 0.121251 -0.992431 -0.0539181 0.141211 -0.98851 -0.0622082 0.0270936 -0.997695 
0.0277804 -0.0804733 -0.99637 0.253166 -0.169419 -0.952473 0.540972 -0.3278 -0.77453 
-0.542804 -0.116855 -0.831691 -0.288098 -0.0434766 -0.956614 -0.0295647 0.0162647 -0.999431 
0.0955438 0.0693475 -0.993007 -0.0849014 0.110502 -0.990243 -0.147191 -0.034646 -0.988501 
0.16945 0.0758388 -0.982616 0.135369 0.0279554 -0.990401 0.0730197 0.173362 -0.982148 
-0.134198 0.176492 -0.975111 -0.162928 0.108601 -0.980643 -0.0528066 0.0535058 -0.99717 
0.171677 0.0147335 -0.985043 0.467425 -0.0756839 -0.880787 -0.471417 0.0856216 -0.877744 
-0.245287 0.149197 -0.957901 0.00432135 0.149223 -0.988794 0.112551 0.132148 -0.984819 
-0.0253945 0.101861 -0.994474 -0.0583607 0.221354 -0.973446 -0.00258888 0.0944075 -0.99553 
0.0401148 0.138095 -0.989606 0.176329 0.195089 -0.964805 -0.114073 0.187421 -0.975634 
-0.176276 0.176129 -0.968455 -0.0646011 0.181104 -0.98134 0.136913 0.194203 -0.97136 
0.366157 0.162166 -0.916314 -0.215437 0.23689 -0.947349 -0.0527462 0.230052 -0.971748 
0.0457543 0.161633 -0.98579 -0.0386848 0.0714524 -0.996694 -0.0766928 0.124123 -0.989299 
0.0680965 0.0865007 -0.993922 0.218627 0.240883 -0.94561 -0.160036 0.301186 -0.94004 
-0.040268 0.344486 -0.937927 0.148432 0.379043 -0.913397 -0.10565 0.32384 -0.940195 
-0.0537159 0.22886 -0.971976 -0.0682117 0.183877 -0.98058 -0.0216221 0.218227 -0.975658 
0.118564 0.233453 -0.965112 0.202627 0.191794 -0.96029 -0.33101 -0.761104 -0.55781 
-0.107709 -0.837107 -0.536331 -0.102957 -0.99165 -0.0776493 0.113434 -0.836614 -0.53592 
0.113765 -0.992529 -0.0440839 0.309357 -0.730312 -0.60905 0.403703 -0.691591 -0.598938 
-0.5838 -0.48105 -0.654041 -0.480884 -0.65716 -0.580423 -0.482059 -0.65465 -0.582281 
-0.484165 -0.661157 -0.57311 0.403733 -0.691598 -0.598909 0.370526 -0.643977 -0.669331 
-0.584877 -0.47843 -0.654999 0.389886 -0.680538 -0.620368 0.390944 -0.681769 -0.618347 
0.422662 -0.742626 -0.519483 0.454619 -0.601212 -0.657165 -0.563642 -0.355652 -0.745533 
-0.555275 -0.319825 -0.767712 -0.738344 -0.495086 -0.457971 0.467851 -0.59648 -0.652171 
0.491371 -0.563944 -0.663718 0.613892 -0.771349 -0.167798 -0.560404 -0.285163 -0.777579 
0.572693 -0.473856 -0.668942 0.590314 -0.393285 -0.704881 0.764762 -0.600491 -0.233558 
-0.541009 -0.260245 -0.799739 -0.562376 -0.158414 -0.811565 -0.704361 -0.329069 -0.628959 
0.600152 -0.350752 -0.718881 -0.565124 -0.124914 -0.815495 0.656606 -0.124863 -0.743827 
0.931474 -0.22092 -0.289052 -0.513216 0.0832886 -0.854209 -0.466135 0.144504 -0.872832 
0.144626 0.177068 -0.973514 -0.148315 0.228365 -0.962212 0.587673 0.146805 -0.795669 
0.436693 0.388337 -0.811476 0.864694 0.0967989 -0.492884 -0.354413 0.249164 -0.901282 
-0.494656 0.263358 -0.828226 -0.245326 0.354726 -0.902211 0.164408 0.182281 -0.969404 
0.136788 0.168976 -0.976082 -0.148859 0.241037 -0.959032 -0.146063 0.232471 -0.961573 
-0.0968666 0.389427 -0.915949 0.0075834 0.487695 -0.872981 0.413293 0.4126 -0.811757 
0.171246 0.51796 -0.838089 0.450316 0.420161 -0.787833 -0.573386 0.447379 -0.686353 
-0.171102 0.360144 -0.917072 -0.264454 0.414833 -0.870619 -0.127112 0.335911 -0.933277 
-0.0784812 0.328072 -0.941387 -0.0529465 0.29942 -0.952651 -0.0227998 0.364092 -0.931084 
0.0715272 0.327548 -0.942123 0.192166 0.183989 -0.963961 0.192141 0.212555 -0.958072 
0.140512 0.155873 -0.977732 0.0142455 0.287573 -0.957653 -0.0211126 0.469486 -0.882688 
0.0402953 0.563834 -0.824905 0.214486 0.637163 -0.740283 0.585017 0.695442 -0.417271 
-0.384019 0.584886 -0.714449 -0.221726 0.427151 -0.876572 -0.100677 0.431144 -0.896649 
-0.051921 0.377927 -0.924378 -0.0224477 0.389541 -0.920735 0.0554126 0.363071 -0.930112 
0.145934 0.321504 -0.935595 0.209479 0.337432 -0.917746 0.198442 0.462553 -0.864098 
0.151607 0.602402 -0.783663 0.204961 0.74347 -0.636587 -0.268257 0.784378 -0.559275 
-0.117647 0.647934 -0.752556 -0.109159 0.609466 -0.785261 -0.0368086 0.591562 -0.805419 
0.0480468 0.593182 -0.803633 0.166672 0.612461 -0.77273 0.28073 0.675813 -0.681518 
-0.0997654 -0.994107 0.0424098 0.111123 -0.992772 0.0453346 -0.501935 -0.864771 -0.0152369 
-0.157215 -0.986654 0.0423857 -0.313124 -0.949419 0.0236107 -0.099717 -0.988816 0.110901 
0.145237 -0.988373 0.0449966 0.11173 -0.98932 0.0936103 0.284757 -0.958221 0.0269485 
0.434526 -0.900655 0.00276748 -0.594413 -0.804059 -0.012714 -0.674573 -0.73714 -0.0396997 
0.472609 -0.881195 0.0116937 0.478025 -0.878285 0.0104081 0.486315 -0.87332 -0.0284751 
-0.762909 -0.643282 -0.0644861 -0.806841 -0.582517 -0.0983933 0.506729 -0.861874 -0.0199429 
0.525274 -0.850094 -0.0377813 0.619276 -0.782304 -0.0670715 -0.826063 -0.553447 -0.106376 
0.633358 -0.77125 -0.063493 0.624048 -0.778476 0.0673692 0.765318 -0.634888 -0.105862 
-0.862707 -0.475792 -0.171345 -0.866936 -0.466666 -0.175054 0.784381 -0.610135 -0.111724 
0.757757 -0.639241 0.131053 -0.90465 -0.375463 -0.201585 0.887801 -0.445041 -0.117253 
0.940662 -0.301771 -0.15521 -0.945564 -0.246734 -0.212206 0.957566 -0.227595 -0.176825 
-0.967945 -0.0627773 -0.243189 0.975815 0.0777352 -0.204309 0.891599 0.3731 -0.256607 
-0.906773 0.202939 -0.369566 -0.972076 0.137705 0.190013 0.860263 0.430467 -0.273213 
-0.735897 0.475598 -0.481936 -0.624416 0.590207 -0.511624 0.307639 0.786345 -0.535743 
0.594205 0.696635 -0.40202 0.588179 0.700316 -0.404477 -0.529281 0.632367 -0.565662 
-0.748375 0.659096 0.0743405 -0.445939 0.644704 -0.620883 0.249248 0.611048 -0.75133 
0.184135 0.658048 -0.730115 0.206242 0.744626 -0.63482 0.205509 0.744035 -0.63575 
0.419535 0.88842 -0.18628 -0.274977 0.785996 -0.553713 -0.269557 0.788083 -0.553411 
-0.146732 0.690171 -0.708614 -0.117592 0.716567 -0.687534 -0.0268741 0.73778 -0.674506 
0.064113 0.749408 -0.658997 0.180554 0.721628 -0.668322 0.280756 0.67591 -0.681411 
0.280754 0.675958 -0.681365 0.327014 0.852804 -0.407171 -0.00686801 0.982834 -0.184365 
-0.499418 -0.74078 0.44925 -0.28289 -0.854313 0.43603 -0.0928227 -0.894756 0.436802 
0.103618 -0.897209 0.429277 0.282814 -0.857262 0.430253 0.40023 -0.820231 0.408701 
-0.503292 -0.737607 0.450147 -0.613438 -0.659885 0.433873 -0.499896 -0.734876 0.458325 
-0.296448 -0.717621 0.630189 0.252157 -0.755245 0.604998 0.40442 -0.818323 0.408402 
0.397989 -0.810574 0.429621 0.417525 -0.806694 0.418232 0.457345 -0.783102 0.42141 
-0.643453 -0.633418 0.429825 -0.720914 -0.582164 0.375991 -0.598356 -0.612586 0.516438 
0.394144 -0.697618 0.598315 0.457541 -0.783218 0.420982 0.456521 -0.78127 0.425683 
0.456333 -0.794663 0.40034 -0.730649 -0.575528 0.367315 -0.705225 -0.57362 0.416675 
0.553032 -0.744408 0.374183 0.413837 -0.708691 0.571399 0.589065 -0.724778 0.357352 
-0.7923 -0.514261 0.328322 -0.817818 -0.488916 0.303538 -0.566387 -0.427053 0.704863 
0.70285 -0.637997 0.314582 0.725196 -0.615909 0.307811 -0.866375 -0.413555 0.279941 
-0.732302 -0.408381 0.544939 0.815534 -0.494641 0.300392 0.661722 -0.443028 0.604856 
0.925625 -0.28002 0.254571 -0.921501 -0.282283 0.266744 0.928568 -0.272148 0.252382 
0.925238 -0.274609 0.261773 -0.962032 -0.129298 0.240368 -0.970959 0.128875 0.201567 
0.980988 0.0207576 0.192954 0.938499 0.294549 0.180168 0.914064 0.00656029 0.405517 
-0.970255 0.136193 0.200142 -0.970048 0.137634 0.200162 -0.969915 0.136185 0.20179 
0.924783 0.338118 0.174505 -0.906205 0.407368 0.113331 0.760818 0.64839 0.0273168 
0.676101 0.7368 0.00362662 -0.749885 0.654648 0.0954404 -0.748224 0.656664 0.0946199 
-0.749124 0.654008 0.105294 -0.54808 0.836308 -0.0140705 0.343713 0.918599 -0.195031 
0.350896 0.920243 -0.173275 0.46695 0.879809 -0.0888444 0.441453 0.891366 -0.102885 
0.490433 0.85832 0.150867 -0.510751 0.859563 -0.0168879 -0.398933 0.914706 -0.0645351 
-0.260098 0.959674 -0.106655 -0.131409 0.983288 -0.126001 0.100444 0.989658 -0.102407 
0.198306 0.971023 -0.133372 0.283018 0.946216 -0.156768 0.345161 0.918911 -0.190961 
0.338049 0.922358 -0.187029 -0.0737789 0.988326 -0.133301 0.06347 0.991192 -0.116234 
-0.00561138 0.990004 -0.140931 -0.00241529 0.999565 0.0293799 -0.0970184 -0.684995 0.722059 
0.0773405 -0.706029 0.703947 -0.437767 -0.479342 0.760652 -0.105517 -0.683501 0.722283 
-0.290713 -0.610861 0.736433 -0.0971554 -0.682274 0.724613 0.0949804 -0.706358 0.701453 
0.0765118 -0.700406 0.709631 0.228314 -0.690991 0.68586 0.338317 -0.683821 0.646475 
-0.438915 -0.478298 0.760648 -0.4567 -0.455314 0.764274 -0.437129 -0.476877 0.762565 
-0.271142 -0.398067 0.87637 -0.0993141 -0.382962 0.91841 0.0156992 -0.407643 0.913006 
0.144037 -0.49123 0.859038 0.367177 -0.662793 0.652599 0.302501 -0.60283 0.738302 
0.377117 -0.639505 0.669937 0.358921 -0.63242 0.686455 -0.457517 -0.454687 0.764158 
-0.453472 -0.451441 0.768482 -0.31035 -0.310055 0.898637 -0.210014 -0.19379 0.9583 
-0.110054 -0.181034 0.9773 -0.0412809 -0.164772 0.985467 0.0384577 -0.216349 0.975558 
0.194943 -0.290053 0.936945 0.304084 -0.43416 0.847961 0.364336 -0.633586 0.682516 
0.335139 -0.584073 0.739283 0.367155 -0.638203 0.676679 0.477516 -0.599597 0.642232 
-0.544483 -0.418835 0.726715 -0.550708 -0.417514 0.722774 -0.315532 -0.320253 0.89324 
-0.200749 -0.217044 0.955297 -0.144582 -0.117749 0.982462 0.142377 -0.208905 0.967516 
0.169607 -0.368275 0.914115 0.274626 -0.513442 0.812993 0.488606 -0.593826 0.639246 
0.472306 -0.590553 0.654351 -0.600238 -0.37869 0.704492 -0.680235 -0.268821 0.68192 
-0.436706 -0.324747 0.838945 -0.219502 -0.237653 0.946224 -0.117109 -0.178911 0.976871 
0.657071 -0.441966 0.610674 0.401545 -0.429869 0.808687 0.660231 -0.438144 0.61002 
-0.702217 -0.204561 0.681943 -0.665989 -0.198039 0.719193 -0.36821 -0.179141 0.912321 
-0.186835 -0.158202 0.96957 0.737742 -0.287038 0.611021 0.631137 -0.263918 0.729392 
-0.703336 -0.0710219 0.707301 -0.602155 -0.0610197 0.796044 -0.345646 -0.0381586 0.937589 
0.803897 -0.00900024 0.594701 0.589062 -0.0321343 0.807448 -0.678301 0.0316524 0.734102 
-0.568469 0.0232396 0.822376 -0.319905 0.107274 0.941357 0.776634 0.281086 0.563764 
0.663823 0.234409 0.710205 -0.706863 0.298391 0.641333 -0.670517 0.384846 0.634272 
-0.615586 0.297424 0.72979 -0.340732 0.172853 0.924134 -0.169039 0.196549 0.965813 
0.0188303 0.105363 0.994256 0.0200742 0.0976234 0.995021 -0.0820219 0.0885093 0.992693 
0.509448 0.772727 0.378624 0.416631 0.475624 0.774726 0.700733 0.531754 0.475616 
0.699306 0.534153 0.475028 0.698666 0.531291 0.479161 -0.602032 0.527595 0.599334 
-0.51421 0.631493 0.580348 -0.442991 0.448096 0.776511 -0.19571 0.34951 0.916264 
-0.103167 0.291329 0.951044 -0.0318096 0.186001 0.982034 -0.0674731 0.115237 0.991044 
-0.0531225 0.170553 0.983916 0.0682732 0.432294 0.899145 0.296607 0.88852 0.350081 
0.148016 0.522414 0.839747 0.491495 0.789414 0.367775 0.386241 0.852325 0.352646 
0.347199 0.702165 0.621625 -0.410258 0.727088 0.550483 -0.372412 0.750506 0.54594 
-0.35181 0.685852 0.637054 -0.25702 0.740182 0.621347 -0.183324 0.566456 0.803442 
-0.154054 0.831038 0.534457 -0.152212 0.456575 0.876568 0.00329916 0.870255 0.492591 
-0.0747921 0.420733 0.904096 0.067969 0.878333 0.473193 -0.0101652 0.456809 0.889507 
0.144256 0.888182 0.43626 0.0985422 0.522249 0.847081 0.26707 0.857576 0.439587 
0.211612 0.682768 0.699319 0.277936 0.878933 0.387594 0.271392 0.869849 0.411959 
0.255587 0.836602 0.484533 -0.083526 -0.151575 0.98491 -0.0404957 -0.163002 0.985794 
0.0374022 -0.214061 0.976104 0.12508 -0.129564 0.98365 -0.0887425 -0.138977 0.986311 
-0.140111 -0.0956532 0.985505 -0.0769831 -0.144843 0.986455 -0.037061 -0.160044 0.986414 
0.00136595 -0.138522 0.990358 0.109933 -0.109316 0.987909 0.0916062 -0.0527679 0.994396 
0.0268109 -0.172856 0.984582 0.0381315 -0.319805 0.946716 0.166865 -0.378093 0.910605 
-0.139987 -0.0960011 0.985488 -0.0870835 -0.145932 0.985454 -0.140112 -0.0955787 0.985512 
-0.157492 -0.12937 0.979009 -0.0256658 -0.0325038 0.999142 0.139021 -0.0625732 0.988311 
0.118721 -0.064487 0.990831 -0.0281653 -0.158507 0.986956 0.0020033 -0.31129 0.950313 
0.184144 -0.376214 0.90805 0.161878 -0.370854 0.914474 0.357977 -0.294482 0.886077 
-0.166711 -0.151174 0.974348 -0.18063 -0.135488 0.974174 -0.0506129 -0.108119 0.992849 
-0.0927182 -0.0641285 0.993625 -0.0118429 -0.0777171 0.996905 0.0313461 -0.0626378 0.997544 
-0.0395021 -0.0844587 0.995644 -0.00792409 -0.150116 0.988637 -0.0954656 -0.182772 0.978509 
-0.0483629 -0.196292 0.979352 0.12095 -0.206439 0.970955 0.404827 -0.244258 0.881166 
0.343416 -0.236726 0.90886 -0.209668 -0.0280655 0.97737 -0.145835 -0.0200891 0.989105 
-0.0223234 0.0157139 0.999627 -0.114282 0.0311476 0.99296 -0.171354 0.0637572 0.983144 
-0.0368031 -0.199221 0.979263 0.0812174 -0.127045 0.988566 0.0166137 -0.0458801 0.998809 
-0.0913167 -0.0638684 0.993772 -0.0361376 -0.068445 0.997 0.116785 -0.0337307 0.992584 
0.45361 -0.0477915 0.889918 0.325992 -0.0517571 0.943955 -0.148885 0.0621688 0.986898 
-0.148381 0.121022 0.981497 -0.129076 0.0569479 0.989998 0.0143265 0.0968965 0.995191 
0.00142138 0.0822132 0.996614 -0.00401768 0.100061 0.994973 -0.0144326 0.100988 0.994783 
-0.137169 0.152637 0.978717 -0.212791 0.23567 0.948251 -0.170758 0.193655 0.966095 
0.0999782 0.103198 0.989623 0.0473463 0.0547051 0.997379 -0.115662 0.0692272 0.990873 
-0.0177629 0.126699 0.991782 0.137014 0.148988 0.979301 0.479149 0.199027 0.854871 
0.37833 0.344762 0.859073 0.344082 0.179849 0.921554 -0.112584 0.146575 0.982772 
-0.0821061 0.183942 0.979502 -0.153689 0.232667 0.960336 -0.0446186 0.223527 0.973676 
-0.0117569 0.118796 0.992849 0.0490205 0.382142 0.922803 -0.0179456 0.205161 0.978564 
0.11603 0.441377 0.889789 0.0541683 0.286098 0.956668 0.280225 0.411677 0.867177 
0.225045 0.438802 0.869947 0.188186 0.365955 0.911407 -0.0460977 0.227941 0.972583 
-0.0389618 0.252649 0.966773 -0.0440153 0.245292 0.968449 0.0471495 0.354822 0.933744 
0.0461699 0.327266 0.943804 0.0319581 0.3002 0.953341 
