# vtk DataFile Version 4.2
vtk output
ASCII
DATASET POLYDATA
POINTS 514 float
-22.9255 -39.6865 -16.6855 -15.1582 -39.6865 -18.8188 -7.39088 -39.6865 -19.3313 
0.376416 -39.6865 -19.0088 8.14371 -39.6865 -17.4843 -30.6928 -31.9192 -19.0584 
-22.9255 -31.9192 -21.1694 -15.1582 -31.9192 -21.0769 -7.39088 -31.9192 -21.6274 
0.376416 -31.9192 -21.553 8.14371 -31.9192 -20.42 15.911 -31.9192 -18.764 
23.6783 -31.9192 -16.501 -38.4601 -24.1519 -18.7279 -30.6928 -24.1519 -21.8705 
-22.9255 -24.1519 -21.9415 -15.1582 -24.1519 -21.3756 -7.39088 -24.1519 -21.6443 
0.376416 -24.1519 -21.257 8.14371 -24.1519 -20.881 15.911 -24.1519 -19.9263 
23.6783 -24.1519 -18.3496 -46.2273 -16.3846 -16.4873 -38.4601 -16.3846 -20.7153 
-30.6928 -16.3846 -21.8046 -22.9255 -16.3846 -21.5844 -15.1582 -16.3846 -20.6759 
-7.39088 -16.3846 -20.1391 0.376416 -16.3846 -20.5562 8.14371 -16.3846 -20.0187 
15.911 -16.3846 -19.5506 23.6783 -16.3846 -18.0984 -46.2273 -8.61734 -18.2994 
-38.4601 -8.61734 -21.5205 -30.6928 -8.61734 -22.0212 -22.9255 -8.61734 -21.0979 
-15.1582 -8.61734 -20.3846 -7.39088 -8.61734 -20.9165 0.376416 -8.61734 -21.6313 
8.14371 -8.61734 -19.9239 15.911 -8.61734 -18.9792 23.6783 -8.61734 -16.1741 
-46.2273 -0.850046 -18.6653 -38.4601 -0.850046 -21.0348 -30.6928 -0.850046 -21.199 
-22.9255 -0.850046 -19.95 -15.1582 -0.850046 -19.157 -7.39088 -0.850046 -21.8098 
0.376416 -0.850046 -20.423 8.14371 -0.850046 -19.3444 15.911 -0.850046 -18.4919 
-46.2273 6.91725 -16.3084 -38.4601 6.91725 -19.1874 -30.6928 6.91725 -19.5129 
-22.9255 6.91725 -18.7881 -15.1582 6.91725 -17.2079 -7.39088 6.91725 -18.4253 
0.376416 6.91725 -18.7418 8.14371 6.91725 -17.846 15.911 6.91725 -16.4404 
-38.4601 14.6845 -17.2772 -30.6928 14.6845 -18.6596 -22.9255 14.6845 -18.5272 
-15.1582 14.6845 -17.95 -7.39088 14.6845 -17.9278 0.376416 14.6845 -18.1192 
8.14371 14.6845 -16.1177 -30.6928 22.4518 -16.3283 -22.9255 22.4518 -17.3246 
-15.1582 22.4518 -17.5762 -7.39088 22.4518 -17.2785 0.376416 22.4518 -16.9119 
8.14371 22.4518 -15.6801 -15.1582 30.2191 -15.5047 -7.39088 30.2191 -16.0562 
0.376416 30.2191 -15.9711 -22.9255 -41.3576 -15.0537 -15.1582 -43.7995 -15.0537 
-7.39088 -45.3188 -15.0537 0.376416 -44.5751 -15.0537 8.14371 -42.4668 -15.0537 
-26.9857 -39.6865 -15.0537 -30.6928 -37.7855 -15.0537 -30.6928 -39.6865 -7.96917 
14.4365 -39.6865 -15.0537 15.911 -38.7654 -15.0537 15.911 -39.6865 -14.1015 
23.6783 -34.16 -15.0537 23.6783 -39.6865 -7.87737 -38.3185 -31.9192 -15.0537 
-38.4601 -31.7602 -15.0537 -38.4601 -31.9192 -14.7387 26.5461 -31.9192 -15.0537 
31.4456 -31.9192 -11.2491 -44.0443 -24.1519 -15.0537 -46.2273 -19.84 -15.0537 
-46.2273 -24.1519 -10.0589 30.2921 -24.1519 -15.0537 31.4456 -24.1519 -14.3344 
39.2129 -24.1519 -8.50901 -47.6266 -16.3846 -15.0537 29.2596 -16.3846 -15.0537 
31.4456 -16.3846 -13.7678 39.2129 -16.3846 -9.39926 -49.801 -8.61734 -15.0537 
25.7024 -8.61734 -15.0537 23.6783 -5.3132 -15.0537 31.4456 -8.61734 -11.9176 
39.2129 -8.61734 -8.54759 -50.316 -0.850046 -15.0537 -53.9946 -0.850046 -9.23519 
21.2365 -0.850046 -15.0537 23.6783 -0.850046 -13.552 31.4456 -0.850046 -10.8746 
39.2129 -0.850046 -8.37813 -47.7619 6.91725 -15.0537 -46.2273 10.6365 -15.0537 
18.6863 6.91725 -15.0537 15.911 10.742 -15.0537 23.6783 6.91725 -12.774 
31.4456 6.91725 -10.6743 39.2129 6.91725 -8.3188 -43.7043 14.6845 -15.0537 
-46.2273 14.6845 -13.1996 -38.4601 19.5226 -15.0537 11.5515 14.6845 -15.0537 
15.911 14.6845 -13.7326 23.6783 14.6845 -11.9181 31.4456 14.6845 -10.1957 
39.2129 14.6845 -7.82967 -34.3867 22.4518 -15.0537 -38.4601 22.4518 -13.2821 
-30.6928 25.0502 -15.0537 -22.9255 28.8177 -15.0537 10.149 22.4518 -15.0537 
8.14371 27.0485 -15.0537 15.911 22.4518 -13.22 23.6783 22.4518 -10.8421 
31.4456 22.4518 -8.23124 -30.6928 30.2191 -11.701 -18.6695 30.2191 -15.0537 
-22.9255 30.2191 -14.4394 -15.1582 31.2517 -15.0537 -7.39088 33.0123 -15.0537 
5.75641 30.2191 -15.0537 0.376416 33.2458 -15.0537 8.14371 30.2191 -14.6263 
15.911 30.2191 -11.9328 23.6783 30.2191 -8.63495 -22.9255 37.9864 -9.12694 
-15.1582 37.9864 -11.7347 -7.39088 37.9864 -13.1681 0.376416 37.9864 -13.4918 
8.14371 37.9864 -12.159 15.911 37.9864 -9.30372 -7.39088 45.7537 -7.86317 
0.376416 45.7537 -8.06024 -30.6928 -39.8222 -7.28641 -22.9255 -43.5412 -7.28641 
-15.1582 -46.1039 -7.28641 -7.39088 -47.4185 -7.28641 0.376416 -47.3455 -7.28641 
8.14371 -46.0396 -7.28641 15.911 -43.4476 -7.28641 23.6783 -40.0018 -7.28641 
-30.9089 -39.6865 -7.28641 -38.4601 -34.1487 -7.28641 -30.6928 -39.6865 -6.89787 
24.2971 -39.6865 -7.28641 31.4456 -35.2692 -7.28641 -40.8433 -31.9192 -7.28641 
-46.2273 -25.4151 -7.28641 -38.4601 -31.9192 -1.42534 35.0081 -31.9192 -7.28641 
39.2129 -26.0711 -7.28641 39.2129 -31.9192 -0.132902 -47.0944 -24.1519 -7.28641 
-46.2273 -24.1519 -3.96029 40.4141 -24.1519 -7.28641 -51.3536 -16.3846 -7.28641 
41.9762 -16.3846 -7.28641 46.9802 -16.3846 -2.52568 -53.7672 -8.61734 -7.28641 
-53.9946 -6.96727 -7.28641 41.5218 -8.61734 -7.28641 46.9802 -8.61734 -4.03139 
-54.8377 -0.850046 -7.28641 -53.9946 3.62634 -7.28641 -53.9946 -0.850046 -3.04266 
41.6307 -0.850046 -7.28641 46.9802 -0.850046 -4.73555 54.7475 -0.850046 0.431689 
-53.3707 6.91725 -7.28641 41.6579 6.91725 -7.28641 46.9802 6.91725 -4.90285 
54.7475 6.91725 0.456691 -50.1948 14.6845 -7.28641 -46.2273 20.6863 -7.28641 
40.9937 14.6845 -7.28641 39.2129 16.363 -7.28641 46.9802 14.6845 -4.50748 
-44.8252 22.4518 -7.28641 -46.2273 22.4518 -2.71475 -38.4601 28.7678 -7.28641 
33.8264 22.4518 -7.28641 31.4456 24.8903 -7.28641 39.2129 22.4518 -5.00182 
46.9802 22.4518 -0.699613 -36.5443 30.2191 -7.28641 -38.4601 30.2191 -4.29011 
-30.6928 34.633 -7.28641 26.5373 30.2191 -7.28641 23.6783 32.5763 -7.28641 
31.4456 30.2191 -4.80778 39.2129 30.2191 -0.977557 -25.7043 37.9864 -7.28641 
-30.6928 37.9864 -1.38534 -22.9255 39.7895 -7.28641 -15.1582 43.6678 -7.28641 
8.14371 44.2454 -7.28641 19.0325 37.9864 -7.28641 15.911 40.2606 -7.28641 
23.6783 37.9864 -2.75149 -9.32179 45.7537 -7.28641 -15.1582 45.7537 -4.66542 
-7.39088 46.3555 -7.28641 3.15764 45.7537 -7.28641 0.376416 46.494 -7.28641 
8.14371 45.7537 -4.31118 -22.9255 -40.192 0.48088 -15.1582 -43.4998 0.48088 
-7.39088 -45.6544 0.48088 0.376416 -46.2598 0.48088 8.14371 -45.5793 0.48088 
15.911 -43.7868 0.48088 23.6783 -40.9232 0.48088 -24.101 -39.6865 0.48088 
-30.6928 -36.3402 0.48088 -22.9255 -39.6865 1.10047 -15.1582 -39.6865 4.9243 
-7.39088 -39.6865 8.08156 26.7143 -39.6865 0.48088 23.6783 -39.6865 4.31641 
31.4456 -37.5525 0.48088 39.2129 -32.2007 0.48088 -37.2623 -31.9192 0.48088 
-38.4601 -30.9624 0.48088 -30.6928 -31.9192 4.71959 39.5483 -31.9192 0.48088 
39.2129 -31.9192 3.00179 -44.6587 -24.1519 0.48088 -46.2273 -21.8209 0.48088 
-38.4601 -24.1519 5.91131 46.0913 -24.1519 0.48088 46.9802 -22.3884 0.48088 
46.9802 -24.1519 6.27173 -49.1698 -16.3846 0.48088 -46.2273 -16.3846 4.03628 
49.83 -16.3846 0.48088 -52.7852 -8.61734 0.48088 52.6425 -8.61734 0.48088 
54.7475 -1.07225 0.48088 54.7475 -8.61734 4.92971 -53.2451 -0.850046 0.48088 
54.7904 -0.850046 0.48088 -52.6718 6.91725 0.48088 54.7682 6.91725 0.48088 
54.7475 6.99514 0.48088 -50.7785 14.6845 0.48088 51.919 14.6845 0.48088 
54.7475 14.6845 6.03461 -47.1131 22.4518 0.48088 -46.2273 23.6391 0.48088 
-46.2273 22.4518 3.82187 48.1379 22.4518 0.48088 46.9802 23.8854 0.48088 
-40.7909 30.2191 0.48088 -38.4601 32.5688 0.48088 31.4456 36.0316 0.48088 
40.7839 30.2191 0.48088 39.2129 31.4927 0.48088 -31.9867 37.9864 0.48088 
-30.6928 38.9557 0.48088 -30.6928 37.9864 7.83638 -22.9255 44.2653 0.48088 
15.911 44.024 0.48088 28.109 37.9864 0.48088 23.6783 40.0669 0.48088 
-20.5329 45.7537 0.48088 -15.1582 48.4732 0.48088 -7.39088 49.9818 0.48088 
0.376416 49.7425 0.48088 12.1422 45.7537 0.48088 8.14371 47.4929 0.48088 
8.14371 45.7537 6.70734 0.376416 -41.2204 8.24817 8.14371 -41.5519 8.24817 
15.911 -40.5316 8.24817 -22.9255 -32.0567 8.24817 -15.1582 -35.8558 8.24817 
-6.73326 -39.6865 8.24817 -7.39088 -39.4843 8.24817 0.376416 -39.6865 9.78383 
8.14371 -39.6865 10.1876 18.9479 -39.6865 8.24817 15.911 -39.6865 9.30024 
23.6783 -38.2292 8.24817 31.4456 -35.4646 8.24817 -23.1786 -31.9192 8.24817 
-30.6928 -27.0183 8.24817 -22.9255 -31.9192 8.34752 -15.1582 -31.9192 10.829 
-7.39088 -31.9192 12.9015 0.376416 -31.9192 13.9429 8.14371 -31.9192 14.754 
15.911 -31.9192 15.005 23.6783 -31.9192 14.5348 38.0588 -31.9192 8.24817 
31.4456 -31.9192 12.1829 39.2129 -31.174 8.24817 46.9802 -24.4392 8.24817 
-34.3106 -24.1519 8.24817 -38.4601 -20.3238 8.24817 -30.6928 -24.1519 9.97028 
-22.9255 -24.1519 12.5483 -15.1582 -24.1519 14.271 -7.39088 -24.1519 15.2961 
0.376416 -24.1519 15.8938 39.2129 -24.1519 14.8523 47.24 -24.1519 8.24817 
46.9802 -24.1519 8.69568 -41.472 -16.3846 8.24817 -46.2273 -8.95821 8.24817 
-38.4601 -16.3846 10.2569 -30.6928 -16.3846 13.2519 -22.9255 -16.3846 15.0746 
52.5962 -16.3846 8.24817 54.7475 -11.5462 8.24817 -46.4157 -8.61734 8.24817 
-46.2273 -8.61734 8.38989 -38.4601 -8.61734 12.6259 -30.6928 -8.61734 14.9228 
-22.9255 -8.61734 15.8456 55.8502 -8.61734 8.24817 54.7475 -8.61734 11.1275 
-47.965 -0.850046 8.24817 -46.2273 -0.850046 9.87743 -38.4601 -0.850046 14.3304 
57.5062 -0.850046 8.24817 54.7475 -0.850046 15.8026 -48.4601 6.91725 8.24817 
-46.2273 6.91725 10.6102 -38.4601 6.91725 15.6587 57.6812 6.91725 8.24817 
-47.6295 14.6845 8.24817 -46.2273 19.0316 8.24817 -46.2273 14.6845 9.99641 
55.5081 14.6845 8.24817 54.7475 16.1687 8.24817 54.7475 14.6845 10.4209 
-44.9474 22.4518 8.24817 -38.4601 22.4518 14.6824 50.9133 22.4518 8.24817 
46.9802 26.9269 8.24817 46.9802 22.4518 15.9011 -39.2741 30.2191 8.24817 
-38.4601 31.1009 8.24817 -38.4601 30.2191 9.36866 -30.6928 37.9245 8.24817 
-30.6928 30.2191 15.4441 31.4456 36.9594 8.24817 31.4456 30.2191 15.9305 
43.1622 30.2191 8.24817 39.2129 32.9972 8.24817 39.2129 30.2191 14.0046 
-30.6115 37.9864 8.24817 -22.9255 43.1736 8.24817 -22.9255 37.9864 13.6302 
8.14371 45.1942 8.24817 8.14371 37.9864 14.7704 15.911 41.7993 8.24817 
[...]
POINT_DATA 514
SCALARS ImageScalars float
LOOKUP_TABLE default
0 0 0 0 0 0 0 0 0 
0 0 0 0 0 0 0 0 0 
0 0 0 0 0 0 0 0 0 
0 0 0 0 0 0 0 0 0 
0 0 0 0 0 0 0 0 0 
0 0 0 0 0 0 0 0 0 
0 0 0 0 0 0 0 0 0 
0 0 0 0 0 0 0 0 0 
0 0 0 0 0 0 0 0 0 
0 0 0 0 0 0 0 0 0 
0 0 0 0 0 0 0 0 0 
0 0 0 0 0 0 0 0 0 
0 0 0 0 0 0 0 0 0 
0 0 0 0 0 0 0 0 0 
0 0 0 0 0 0 0 0 0 
0 0 0 0 0 0 0 0 0 
0 0 0 0 0 0 0 0 0 
0 0 0 0 0 0 0 0 0 
0 0 0 0 0 0 0 0 0 
0 0 0 0 0 0 0 0 0 
0 0 0 0 0 0 0 0 0 
0 0 0 0 0 0 0 0 0 
0 0 0 0 0 0 0 0 0 
0 0 0 0 0 0 0 0 0 
0 0 0 0 0 0 0 0 0 
0 0 0 0 0 0 0 0 0 
0 0 0 0 0 0 0 0 0 
0 0 0 0 0 0 0 0 0 
0 0 0 0 0 0 0 0 0 
0 0 0 0 0 0 0 0 0 
0 0 0 0 0 0 0 0 0 
0 0 0 0 0 0 0 0 0 
0 0 0 0 0 0 0 0 0 
0 0 0 0 0 0 0 0 0 
0 0 0 0 0 0 0 0 0 
0 0 0 0 0 0 0 0 0 
0 0 0 0 0 0 0 0 0 
0 0 0 0 0 0 0 0 0 
0 0 0 0 0 0 0 0 0 
0 0 0 0 0 0 0 0 0 
0 0 0 0 0 0 0 0 0 
0 0 0 0 0 0 0 0 0 
0 0 0 0 0 0 0 0 0 
0 0 0 0 0 0 0 0 0 
0 0 0 0 0 0 0 0 0 
0 0 0 0 0 0 0 0 0 
0 0 0 0 0 0 0 0 0 
0 0 0 0 0 0 0 0 0 
0 0 0 0 0 0 0 0 0 
0 0 0 0 0 0 0 0 0 
0 0 0 0 0 0 0 0 0 
0 0 0 0 0 0 0 0 0 
0 0 0 0 0 0 0 0 0 
0 0 0 0 0 0 0 0 0 
0 0 0 0 0 0 0 0 0 
0 0 0 0 0 0 0 0 0 
0 0 0 0 0 0 0 0 0 
0 
NORMALS Normals float
0.295903 0.68194 0.668879 0.153256 0.528299 0.835112 0.0137385 0.478518 0.87797 
-0.108411 0.484601 0.867991 -0.255624 0.55398 0.792315 0.325362 0.435938 0.839105 
0.121353 0.284666 0.950915 0.0295953 0.152137 0.987916 0.0306863 0.128971 0.991174 
-0.0751239 0.122374 0.989637 -0.178175 0.195705 0.964341 -0.232113 0.298075 0.925891 
-0.370603 0.403254 0.836684 0.454862 0.304803 0.836777 0.182771 0.160766 0.969922 
-0.0330322 0.0206718 0.99924 -0.019451 -0.02629 0.999465 -0.00784889 -0.0989724 0.995059 
-0.0470471 -0.0631364 0.996895 -0.0882732 -0.027479 0.995717 -0.158636 0.0476522 0.986187 
-0.317418 0.0915104 0.94386 0.66387 0.2573 0.702192 0.278188 0.170064 0.945351 
0.0504257 0.0102002 0.998676 -0.0720055 -0.0533052 0.995979 -0.0930409 -0.0637939 0.993616 
-0.00765436 -0.0447808 0.998968 -0.00741439 0.0217614 0.999736 -0.0645638 -0.0612367 0.996033 
-0.11652 -0.0608996 0.99132 -0.325508 -0.13238 0.936227 0.557033 0.107407 0.823516 
0.187257 0.0183646 0.982139 -0.0300429 -0.0369842 0.998864 -0.105833 -0.105332 0.988789 
-0.0146413 -0.0911814 0.995727 0.0854899 0.104918 0.9908 -0.0702156 0.00507066 0.997519 
-0.165684 -0.0424269 0.985266 -0.226383 -0.064404 0.971907 -0.42438 -0.26303 0.866439 
0.489688 -0.105163 0.865533 0.124319 -0.138783 0.982489 -0.0706254 -0.161562 0.984332 
-0.125822 -0.150344 0.980595 0.0914664 -0.205905 0.974288 0.094557 -0.168084 0.981227 
-0.160338 -0.203797 0.965794 -0.106648 -0.134103 0.985212 -0.33291 -0.155207 0.930098 
0.506478 -0.261694 0.821582 0.169416 -0.237146 0.956588 -0.0270001 -0.156496 0.987309 
-0.141082 -0.0897539 0.985921 -0.029512 -0.0699638 0.997113 0.0984018 -0.219516 0.970634 
-0.0389158 -0.131239 0.990587 -0.134521 -0.197256 0.971079 -0.316171 -0.28767 0.904036 
0.273074 -0.316161 0.908555 0.081502 -0.199878 0.976425 -0.0455288 -0.0966706 0.994275 
-0.0383992 0.0218561 0.999023 0.0105045 -0.0708339 0.997433 -0.107902 -0.116027 0.987368 
-0.274768 -0.138518 0.951481 0.218714 -0.363746 0.905458 0.0762951 -0.23997 0.967778 
-0.00245164 -0.150582 0.988595 -0.0417241 -0.115518 0.992429 -0.0989553 -0.136377 0.985702 
-0.229419 -0.090575 0.969104 0.0936187 -0.33374 0.938005 0.0280814 -0.247643 0.968444 
-0.08531 -0.204395 0.975164 0.3216 0.762721 0.561098 0.204169 0.801188 0.562506 
0.0531842 0.828077 0.558086 -0.146333 0.78447 0.602656 -0.275735 0.703799 0.654703 
0.395064 0.752589 0.526816 0.445566 0.724388 0.526054 0.49995 0.865757 -0.0226753 
-0.33704 0.64677 0.684173 -0.34148 0.623775 0.703062 -0.360169 0.691141 0.62658 
-0.396665 0.508243 0.764425 -0.431913 0.846415 0.311502 0.626395 0.593156 0.505761 
0.628454 0.589965 0.506938 0.636076 0.603343 0.481025 -0.454002 0.420991 0.78527 
-0.615397 0.50284 0.606992 0.683693 0.424881 0.593329 0.720998 0.346028 0.600355 
0.826053 0.527463 0.198542 -0.507876 0.0781832 0.857875 -0.544718 0.087991 0.83399 
-0.689264 0.280979 0.667807 0.727466 0.272989 0.6295 -0.480379 -0.152206 0.863753 
-0.516161 -0.141643 0.844698 -0.564123 -0.00684242 0.825662 0.723872 0.136301 0.676336 
-0.441323 -0.250873 0.861566 -0.444887 -0.247223 0.860788 -0.423545 -0.167434 0.890267 
-0.440268 -0.0592644 0.895908 0.698409 -0.0891974 0.710119 0.969151 -0.0384085 0.243455 
-0.433908 -0.202554 0.877893 -0.440362 -0.193552 0.876709 -0.303925 -0.0731194 0.949886 
-0.354941 -0.0133237 0.934794 0.57268 -0.26203 0.776774 0.550377 -0.323242 0.769805 
-0.33666 -0.221052 0.915312 -0.294965 -0.234931 0.926176 -0.338284 -0.101142 0.935593 
-0.271124 -0.0424694 0.961607 -0.336174 -0.0344485 0.94117 0.482578 -0.378324 0.78993 
0.62849 -0.431297 0.64729 0.358516 -0.434636 0.826171 -0.269573 -0.16169 0.949309 
-0.258377 -0.182828 0.948586 -0.219972 -0.121336 0.967931 -0.258415 -0.1431 0.955376 
-0.3104 -0.186193 0.932193 0.315525 -0.431074 0.845352 0.441023 -0.521858 0.73018 
0.26589 -0.427433 0.864062 0.16635 -0.40159 0.900585 -0.251633 -0.0949922 0.96315 
-0.241676 -0.157318 0.95752 -0.305788 -0.109368 0.945797 -0.293577 -0.181722 0.938504 
-0.338268 -0.288119 0.895858 0.384065 -0.59526 0.705804 0.135591 -0.381301 0.914453 
0.194236 -0.443057 0.875199 0.105195 -0.35412 0.929265 0.0520263 -0.31852 0.946487 
-0.198687 -0.205456 0.958286 -0.0747893 -0.283188 0.956144 -0.2484 -0.204689 0.946784 
-0.344701 -0.222191 0.912038 -0.393956 -0.379606 0.837077 0.374348 -0.650687 0.660658 
0.213089 -0.525369 0.82376 0.09786 -0.449972 0.887664 -0.0571892 -0.420277 0.905592 
-0.241005 -0.452788 0.858429 -0.436403 -0.509841 0.74136 0.131073 -0.721347 0.680058 
-0.0970851 -0.755343 0.648098 0.497624 0.864938 -0.0652128 0.371862 0.926523 -0.0572121 
0.235933 0.971751 -0.00591843 0.0804731 0.996734 -0.00673899 -0.0860467 0.994646 0.0572262 
-0.239974 0.959939 0.14467 -0.352463 0.906349 0.233026 -0.430105 0.857189 0.283262 
0.501841 0.862528 -0.0648151 0.662404 0.748187 -0.0378926 0.497404 0.863299 -0.0854642 
-0.438605 0.850743 0.28959 -0.597141 0.690787 0.40772 0.706202 0.707648 -0.0226508 
0.823315 0.567323 0.017244 0.607925 0.701147 -0.372587 -0.659427 0.579554 0.478825 
-0.69726 0.372853 0.612216 -0.655663 0.733501 0.179117 0.838347 0.544753 0.0204578 
0.818002 0.550315 -0.167411 -0.705241 0.302848 0.641029 0.92214 0.380281 0.071025 
-0.627346 0.0624989 0.776229 -0.745628 0.242645 0.620615 0.96976 0.210255 0.12393 
0.979528 0.160768 0.121154 -0.470835 -0.0171261 0.882055 -0.578851 0.11396 0.807431 
0.99312 -0.0247315 0.114462 0.975036 -0.163068 0.15071 0.989089 -0.0221928 -0.14564 
-0.39708 0.00412844 0.917775 -0.508078 0.0478995 0.859978 -0.788928 0.0927133 0.607451 
0.94538 -0.26647 0.187753 -0.377229 -0.0121369 0.926041 -0.491243 -0.00715964 0.870993 
-0.791856 -0.1275 0.59725 0.841352 -0.454352 0.29273 0.73183 -0.571483 0.371256 
-0.360974 -0.190666 0.912877 -0.327832 -0.221527 0.918396 -0.566135 -0.216716 0.795315 
0.694674 -0.591658 0.409106 0.804127 -0.571183 0.164713 0.559767 -0.679575 0.474171 
-0.36152 -0.309764 0.879403 -0.358574 -0.347581 0.866378 -0.42729 -0.361037 0.8289 
-0.64026 -0.482072 0.598058 0.53343 -0.688526 0.491308 0.61786 -0.712768 0.331979 
0.480849 -0.688807 0.542521 -0.401188 -0.419663 0.814206 -0.435491 -0.454435 0.777069 
-0.411944 -0.53266 0.739307 -0.539082 -0.644707 0.541981 0.436288 -0.691828 0.575349 
0.571956 -0.782396 0.24642 0.404625 -0.702744 0.585174 0.309513 -0.689131 0.65521 
-0.3093 -0.738897 0.598635 -0.465869 -0.566237 0.679957 -0.453435 -0.635969 0.624452 
-0.489211 -0.740946 0.460077 0.183371 -0.732141 0.656006 0.344723 -0.806022 0.481138 
0.133274 -0.744375 0.654328 -0.178618 -0.777257 0.603297 -0.104414 -0.781556 0.615035 
-0.340345 -0.870155 0.356365 0.343076 0.772147 -0.534872 0.290493 0.827361 -0.480715 
0.149737 0.900955 -0.407257 -0.009534 0.946424 -0.322787 -0.146175 0.958274 -0.245651 
-0.282226 0.945001 -0.165291 -0.362564 0.927348 -0.0925935 0.355755 0.766849 -0.534211 
0.433419 0.721194 -0.540395 0.339997 0.757634 -0.557129 0.29946 0.685859 -0.663265 
0.22257 0.637755 -0.737381 -0.408996 0.910317 -0.0636116 -0.324373 0.903065 -0.281523 
-0.494119 0.869382 -0.00456628 -0.648067 0.747445 0.146066 0.546284 0.670653 -0.501795 
0.568025 0.658268 -0.493995 0.392604 0.600424 -0.696673 -0.654692 0.740714 0.150731 
-0.632988 0.77416 -0.00184195 0.714652 0.52785 -0.458962 0.749184 0.490568 -0.445046 
0.491375 0.492618 -0.718247 -0.800475 0.495653 0.336998 -0.799297 0.455281 0.392228 
-0.764289 0.642296 -0.0575948 0.795086 0.417774 -0.439663 0.693658 0.399838 -0.599139 
-0.791589 0.329895 0.51435 0.915569 0.212967 -0.341142 -0.768286 0.231712 0.596697 
-0.790995 0.0973963 0.60402 -0.931769 0.288544 0.220337 0.928952 -0.0115545 -0.370021 
-0.791375 0.0928121 0.604244 0.949539 -0.149188 -0.275895 -0.792852 -0.127498 0.595928 
-0.792344 -0.129739 0.59612 0.938138 -0.314834 -0.144139 -0.735486 -0.316116 0.599275 
-0.91206 -0.378413 0.157958 0.844599 -0.535381 -0.00450707 0.828209 -0.560359 0.00826962 
0.848193 -0.499778 -0.175475 -0.683948 -0.488468 0.541862 -0.664415 -0.52567 0.531248 
0.714811 -0.694313 0.0835116 0.678199 -0.727007 0.107265 -0.47206 -0.794471 0.382068 
-0.574944 -0.677459 0.458791 -0.551038 -0.706548 0.444012 0.596802 -0.7884 0.149177 
0.585282 -0.796585 0.151322 0.57918 -0.756 -0.304982 0.523893 -0.835876 0.163852 
-0.435895 -0.897425 0.0679977 -0.471401 -0.826513 0.307665 -0.461416 -0.852684 0.245 
0.473605 -0.865316 0.164092 0.330673 -0.933496 0.138709 0.0832671 -0.990692 0.10768 
-0.152617 -0.986498 0.0594101 -0.38484 -0.92158 0.0508799 -0.34444 -0.938403 0.027596 
-0.35059 -0.863831 -0.361777 0.0965584 0.713659 -0.693806 -0.0420068 0.766928 -0.640357 
-0.18057 0.815803 -0.549418 0.302785 0.539754 -0.785485 0.275219 0.562594 -0.779579 
0.213266 0.637844 -0.740049 0.222328 0.629148 -0.744811 0.109499 0.649923 -0.752071 
-0.0206742 0.689492 -0.723998 -0.217407 0.823618 -0.523821 -0.166831 0.785365 -0.596129 
-0.266933 0.824403 -0.499105 -0.381762 0.81257 -0.440441 0.304361 0.538245 -0.785911 
0.35628 0.492543 -0.794019 0.301962 0.536759 -0.787851 0.246721 0.469144 -0.847958 
0.181076 0.398237 -0.899232 0.107884 0.326881 -0.938887 0.0645032 0.355586 -0.932415 
-0.00866114 0.412106 -0.911095 -0.140974 0.54272 -0.827999 -0.525881 0.779258 -0.340891 
-0.304854 0.68844 -0.658114 -0.550591 0.770179 -0.321984 -0.717937 0.668793 -0.193088 
0.400492 0.460372 -0.792252 0.46025 0.41674 -0.783899 0.343451 0.440887 -0.829252 
0.240538 0.377006 -0.894432 0.162087 0.311075 -0.936462 0.0971856 0.263656 -0.959709 
0.0858842 0.190102 -0.978001 -0.354228 0.561289 -0.747982 -0.724617 0.662854 -0.188558 
-0.711895 0.666954 -0.219951 0.524437 0.367754 -0.767934 0.580824 0.263719 -0.770127 
0.445054 0.349526 -0.824475 0.269736 0.282129 -0.920677 0.172016 0.189211 -0.966752 
-0.860031 0.506854 -0.0586952 -0.930878 0.363936 -0.0319025 0.584276 0.257532 -0.76961 
0.577792 0.258441 -0.774187 0.384988 0.230979 -0.893551 0.190068 0.193296 -0.962554 
0.0892537 0.117684 -0.989032 -0.957131 0.289078 -0.0182947 -0.916818 0.311257 -0.250125 
0.700322 0.091824 -0.707897 0.636317 0.119601 -0.7621 0.366216 0.174552 -0.914012 
-0.993524 0.113301 0.00849443 -0.750949 0.127729 -0.64789 0.770336 -0.0216319 -0.637271 
0.684924 0.011744 -0.72852 0.425204 0.115956 -0.897639 -0.991508 -0.129425 0.0126528 
0.822699 -0.189776 -0.535865 0.822347 -0.319311 -0.470942 0.780671 -0.161313 -0.603765 
-0.92816 -0.372178 -0.00138482 -0.910629 -0.41318 -0.00616605 -0.904052 -0.390842 -0.173012 
0.800097 -0.421395 -0.426932 0.52711 -0.295754 -0.796671 -0.791475 -0.60983 -0.040922 
-0.691647 -0.719068 -0.0675612 -0.527844 -0.503306 -0.684152 0.704818 -0.621096 -0.34274 
0.691263 -0.637658 -0.339923 0.681427 -0.610184 -0.404144 0.575066 -0.748538 -0.330137 
0.336417 -0.435735 -0.834841 -0.384276 -0.899756 -0.206813 -0.112265 -0.556677 -0.823108 
-0.593118 -0.799233 -0.0971477 -0.511369 -0.849696 -0.128522 -0.400218 -0.720521 -0.566282 
0.574405 -0.748968 -0.330313 0.476814 -0.79678 -0.3712 0.363276 -0.565575 -0.740375 
-0.339288 -0.813254 -0.47276 -0.219084 -0.479815 -0.849576 -0.296921 -0.818821 -0.491294 
-0.198569 -0.677617 -0.7081 -0.346541 -0.906194 -0.242326 -0.285354 -0.902328 -0.323075 
-0.215983 -0.836967 -0.502829 0.390464 -0.84224 -0.371712 0.328035 -0.863003 -0.384212 
0.324872 -0.802734 -0.500076 0.0602731 -0.922709 -0.380757 0.0463709 -0.715197 -0.697383 
-0.326402 -0.826844 -0.45803 -0.221412 -0.872672 -0.435225 -0.229656 -0.753822 -0.615639 
0.0852683 0.220676 -0.971613 0.0326867 0.318634 -0.947314 -0.0829233 0.424733 -0.901513 
-0.185779 0.455031 -0.87088 0.145776 0.133249 -0.980303 0.0835814 0.24765 -0.965238 
0.0871185 0.184375 -0.978987 0.0763174 0.195605 -0.977709 0.096392 0.150791 -0.983855 
0.0807667 0.206649 -0.975076 -0.0138606 0.287831 -0.957581 -0.247938 0.475584 -0.844006 
-0.159433 0.392452 -0.905849 -0.288046 0.488063 -0.823908 -0.516288 0.448203 -0.729768 
0.147854 0.128524 -0.980623 0.145923 0.121189 -0.981845 0.0659538 0.227678 -0.9715 
-0.0158995 0.251849 -0.967636 0.0808618 0.139524 -0.986912 0.13531 0.0953864 -0.986201 
0.0715721 0.112176 -0.991107 -0.0258923 0.204354 -0.978555 -0.15864 0.287841 -0.944447 
-0.555226 0.415436 -0.720511 -0.497274 0.405825 -0.766828 0.168835 0.206754 -0.963715 
0.126732 0.102537 -0.986623 0.0843766 0.132102 -0.987638 0.186402 0.0800036 -0.979211 
0.222894 0.142445 -0.964379 -0.00267671 0.0188462 -0.999819 -0.0508658 0.158843 -0.985993 
0.0575152 0.0691964 -0.995944 0.11005 0.065279 -0.99178 0.0418663 0.126866 -0.991036 
-0.081791 0.178717 -0.980495 -0.613826 0.278543 -0.738669 -0.407102 0.216678 -0.88731 
0.208483 0.205949 -0.956096 0.16115 0.213584 -0.963542 0.0601434 0.214915 -0.974779 
0.172632 0.192643 -0.965964 -0.00397348 0.0682354 -0.997661 0.0015676 -0.0345234 -0.999403 
0.120431 -0.0124627 -0.992643 0.0457127 0.0246997 -0.998649 0.127517 0.04995 -0.990578 
0.0767451 0.0515896 -0.995715 -0.0990282 0.0751272 -0.992245 -0.733153 0.126922 -0.668115 
-0.331134 0.0468792 -0.942419 -0.74518 0.019823 -0.666569 0.397109 0.126016 -0.909079 
0.452964 0.0241824 -0.891201 0.205081 0.167055 -0.964383 0.0572725 0.149577 -0.98709 
0.0550575 0.0545392 -0.996993 0.00491876 -0.116437 -0.993186 -0.0820947 0.115437 -0.989917 
0.00435914 -0.0613232 -0.998108 0.116026 -0.0373586 -0.992543 0.138031 -0.027146 -0.990056 
0.0682322 -0.0495619 -0.996438 -0.0943842 -0.0775642 -0.99251 -0.320512 -0.0561024 -0.945582 
-0.743519 -0.126942 -0.656556 -0.739826 -0.140106 -0.658049 -0.735759 -0.12653 -0.665318 
0.482379 -0.0443688 -0.874838 0.47658 -0.0820866 -0.87529 0.469459 -0.0415046 -0.881978 
0.18559 -0.0273416 -0.982247 -0.0372304 -0.028502 -0.9989 -0.0985717 -0.0344665 -0.994533 
0.053673 -0.0842471 -0.994998 0.0484117 -0.00595069 -0.99881 -0.0284393 -0.00209531 -0.999593 
0.0826295 -0.0247618 -0.996273 0.110728 -0.104123 -0.988381 0.0273553 -0.119755 -0.992426 
-0.0964494 -0.204403 -0.974124 -0.610777 -0.338908 -0.715607 -0.521505 -0.495528 -0.694611 
-0.415434 -0.270023 -0.868621 0.389446 -0.25618 -0.884705 0.299615 -0.376844 -0.876481 
0.217965 -0.214181 -0.952165 0.0529105 -0.154416 -0.986588 -0.00266072 -0.0163752 -0.999862 
0.0312173 0.0282171 -0.999114 0.00553158 -0.0492388 -0.998772 -0.016667 -0.0662205 -0.997666 
0.0128423 -0.114397 -0.993352 0.0323198 -0.195709 -0.980129 -0.107623 -0.547586 -0.8298 
-0.0331655 -0.254867 -0.966407 -0.517442 -0.496812 -0.696729 -0.3088 -0.571704 -0.76013 
-0.209855 -0.328983 -0.920723 0.265608 -0.373161 -0.888934 0.207574 -0.351288 -0.912968 
0.15507 -0.276833 -0.948323 0.0904557 -0.169434 -0.981382 0.0203054 -0.128262 -0.991532 
-0.0459233 -0.167702 -0.984768 -0.166165 -0.372013 -0.913234 -0.0974843 -0.236584 -0.966708 
-0.0804049 -0.419493 -0.90419 -0.057859 -0.355607 -0.932843 -0.104982 -0.537206 -0.836892 
-0.0723855 -0.43781 -0.896149 -0.0568684 -0.387449 -0.920135 0.154874 -0.35967 -0.920137 
0.149634 -0.361575 -0.920257 0.144334 -0.350588 -0.925341 0.0181419 -0.350034 -0.936561 
0.0179213 -0.294026 -0.955629 -0.12662 -0.384991 -0.914193 -0.110689 -0.390142 -0.914077 
-0.0980513 -0.358728 -0.928278 
