# vtk DataFile Version 4.2
vtk output
ASCII
DATASET POLYDATA
POINTS 506 float
-13.6766 -29.0829 -16.6227 -6.91036 -29.0829 -17.6894 -0.144145 -29.0829 -17.4484 
6.62207 -29.0829 -15.5125 -27.209 -22.3167 -16.7117 -20.4428 -22.3167 -18.0176 
-13.6766 -22.3167 -18.8758 -6.91036 -22.3167 -19.8498 -0.144145 -22.3167 -20.1242 
6.62207 -22.3167 -18.8893 13.3883 -22.3167 -17.2485 20.1545 -22.3167 -16.3726 
-33.9752 -15.5504 -16.4714 -27.209 -15.5504 -17.913 -20.4428 -15.5504 -18.49 
-13.6766 -15.5504 -18.9901 -6.91036 -15.5504 -19.8335 -0.144145 -15.5504 -20.2231 
6.62207 -15.5504 -19.4733 13.3883 -15.5504 -18.5246 20.1545 -15.5504 -18.2744 
26.9207 -15.5504 -18.0596 33.6869 -15.5504 -16.108 -33.9752 -8.78421 -17.5062 
-27.209 -8.78421 -18.2876 -20.4428 -8.78421 -18.1559 -13.6766 -8.78421 -17.8432 
-6.91036 -8.78421 -18.8041 -0.144145 -8.78421 -18.7909 6.62207 -8.78421 -19.1069 
13.3883 -8.78421 -19.5077 20.1545 -8.78421 -19.5132 26.9207 -8.78421 -19.4671 
33.6869 -8.78421 -17.8844 -33.9752 -2.01799 -17.8454 -27.209 -2.01799 -18.2424 
-20.4428 -2.01799 -17.2949 -13.6766 -2.01799 -16.8411 -6.91036 -2.01799 -18.7778 
-0.144145 -2.01799 -17.4887 6.62207 -2.01799 -20.5953 13.3883 -2.01799 -21.8038 
20.1545 -2.01799 -20.4887 26.9207 -2.01799 -19.6027 33.6869 -2.01799 -18.3683 
40.4532 -2.01799 -15.5434 -33.9752 4.74823 -17.5368 -27.209 4.74823 -18.1598 
-20.4428 4.74823 -17.6827 -13.6766 4.74823 -18.0189 -6.91036 4.74823 -20.4671 
-0.144145 4.74823 -19.4818 6.62207 4.74823 -20.6662 13.3883 4.74823 -20.5138 
20.1545 4.74823 -19.5516 26.9207 4.74823 -18.939 33.6869 4.74823 -17.9211 
-33.9752 11.5144 -16.6115 -27.209 11.5144 -17.6874 -20.4428 11.5144 -17.9172 
-13.6766 11.5144 -18.2198 -6.91036 11.5144 -19.7553 -0.144145 11.5144 -19.7722 
6.62207 11.5144 -18.6629 13.3883 11.5144 -17.9299 20.1545 11.5144 -17.7172 
26.9207 11.5144 -17.2475 33.6869 11.5144 -15.827 -27.209 18.2807 -16.4158 
-20.4428 18.2807 -16.6198 -13.6766 18.2807 -16.7277 -6.91036 18.2807 -17.7785 
-0.144145 18.2807 -18.7467 6.62207 18.2807 -18.2073 13.3883 18.2807 -17.2617 
20.1545 18.2807 -16.3785 -6.91036 25.0469 -16.1084 -0.144145 25.0469 -17.3635 
6.62207 25.0469 -17.0337 13.3883 25.0469 -15.9447 -13.6766 -30.8219 -15.3174 
-6.91036 -31.9618 -15.3174 -0.144145 -31.4054 -15.3174 6.62207 -29.2778 -15.3174 
-27.209 -25.1038 -15.3174 -27.209 -29.0829 -12.2351 -20.2291 -29.0829 -15.3174 
-20.4428 -28.983 -15.3174 -20.4428 -29.0829 -15.2601 7.11937 -29.0829 -15.3174 
13.3883 -25.6432 -15.3174 13.3883 -29.0829 -11.684 20.1545 -23.8934 -15.3174 
20.1545 -29.0829 -8.79292 -30.9639 -22.3167 -15.3174 -33.9752 -19.0418 -15.3174 
-33.9752 -22.3167 -13.8694 24.8119 -22.3167 -15.3174 26.9207 -21.3659 -15.3174 
26.9207 -22.3167 -14.6527 33.6869 -16.9724 -15.3174 33.6869 -22.3167 -10.6349 
-36.1782 -15.5504 -15.3174 -40.7415 -15.5504 -12.0287 35.107 -15.5504 -15.3174 
40.4532 -15.5504 -10.5522 -39.3387 -8.78421 -15.3174 -40.7415 -8.78421 -14.6025 
38.8336 -8.78421 -15.3174 40.4532 -3.50951 -15.3174 40.4532 -8.78421 -14.3151 
-40.6008 -2.01799 -15.3174 -40.7415 -2.01799 -15.2549 40.7782 -2.01799 -15.3174 
40.4532 0.995399 -15.3174 47.2194 -2.01799 -8.58084 -39.7647 4.74823 -15.3174 
-40.7415 4.74823 -14.8643 39.7884 4.74823 -15.3174 40.4532 4.74823 -14.9744 
-37.0115 11.5144 -15.3174 -40.7415 11.5144 -13.2084 -33.9752 15.7256 -15.3174 
26.9207 17.5474 -15.3174 34.7587 11.5144 -15.3174 33.6869 12.6553 -15.3174 
40.4532 11.5144 -12.074 -40.7415 18.2807 -9.03168 -31.1126 18.2807 -15.3174 
-33.9752 18.2807 -14.3357 -27.209 20.0883 -15.3174 -20.4428 20.8195 -15.3174 
-13.6766 22.7252 -15.3174 25.692 18.2807 -15.3174 20.1545 21.2449 -15.3174 
26.9207 18.2807 -15.0592 33.6869 18.2807 -12.1676 -27.209 25.0469 -11.2431 
-20.4428 25.0469 -12.7194 -10.3211 25.0469 -15.3174 -13.6766 25.0469 -14.4767 
-6.91036 26.6505 -15.3174 -0.144145 29.5469 -15.3174 6.62207 28.6816 -15.3174 
15.5764 25.0469 -15.3174 13.3883 26.2404 -15.3174 20.1545 25.0469 -13.6932 
26.9207 25.0469 -10.5645 -6.91036 31.8131 -12.29 -0.144145 31.8131 -13.9829 
6.62207 31.8131 -13.3324 13.3883 31.8131 -10.4965 -27.209 -31.4278 -8.55115 
-20.4428 -34.0953 -8.55115 -13.6766 -35.5019 -8.55115 -6.91036 -35.7313 -8.55115 
-0.144145 -34.8876 -8.55115 6.62207 -32.9946 -8.55115 13.3883 -30.8553 -8.55115 
20.1545 -29.214 -8.55115 -31.2162 -29.0829 -8.55115 -33.9752 -27.1535 -8.55115 
20.6835 -29.0829 -8.55115 26.9207 -27.3436 -8.55115 33.6869 -23.8609 -8.55115 
-38.8806 -22.3167 -8.55115 -40.7415 -19.7883 -8.55115 35.6614 -22.3167 -8.55115 
40.4532 -17.4469 -8.55115 -43.3442 -15.5504 -8.55115 42.1059 -15.5504 -8.55115 
-45.7426 -8.78421 -8.55115 45.526 -8.78421 -8.55115 47.2194 -2.10394 -8.55115 
47.2194 -8.78421 -3.54158 -46.8491 -2.01799 -8.55115 -47.5077 -2.01799 -4.37774 
47.2393 -2.01799 -8.55115 47.2194 -1.32312 -8.55115 -46.3439 4.74823 -8.55115 
-47.5077 4.74823 -1.97859 47.005 4.74823 -8.55115 47.2194 4.74823 -8.03862 
-44.6233 11.5144 -8.55115 43.694 11.5144 -8.55115 40.4532 15.6602 -8.55115 
-41.09 18.2807 -8.55115 -40.7415 18.6834 -8.55115 -33.9752 24.1006 -8.55115 
37.8017 18.2807 -8.55115 33.6869 21.8954 -8.55115 40.4532 18.2807 -2.43363 
-32.085 25.0469 -8.55115 -33.9752 25.0469 -5.6838 -27.209 27.0066 -8.55115 
-20.4428 28.9982 -8.55115 -13.6766 31.7027 -8.55115 20.1545 30.2516 -8.55115 
29.4279 25.0469 -8.55115 26.9207 26.6827 -8.55115 -13.4864 31.8131 -8.55115 
-13.6766 31.8131 -8.15697 -6.91036 35.151 -8.55115 -0.144145 36.5838 -8.55115 
6.62207 35.7051 -8.55115 16.6814 31.8131 -8.55115 13.3883 33.1308 -8.55115 
20.1545 31.8131 -2.63998 -27.209 -32.115 -1.78493 -20.4428 -34.4035 -1.78493 
-13.6766 -35.6275 -1.78493 -6.91036 -35.3296 -1.78493 -0.144145 -34.5392 -1.78493 
6.62207 -33.2003 -1.78493 13.3883 -31.8794 -1.78493 20.1545 -30.642 -1.78493 
-32.5607 -29.0829 -1.78493 -33.9752 -28.2028 -1.78493 25.9424 -29.0829 -1.78493 
26.9207 -28.804 -1.78493 33.6869 -25.5044 -1.78493 -40.0237 -22.3167 -1.78493 
-40.7415 -21.3323 -1.78493 37.9128 -22.3167 -1.78493 40.4532 -19.9373 -1.78493 
-44.4093 -15.5504 -1.78493 44.218 -15.5504 -1.78493 47.2194 -9.98558 -1.78493 
-47.0405 -8.78421 -1.78493 -47.5077 -5.05317 -1.78493 47.7496 -8.78421 -1.78493 
-47.8649 -2.01799 -1.78493 -47.5077 -2.01799 0.197773 49.542 -2.01799 -1.78493 
-47.5377 4.74823 -1.78493 -47.5077 4.89618 -1.78493 -47.5077 4.74823 -1.60617 
49.2416 4.74823 -1.78493 47.2194 9.4692 -1.78493 -46.068 11.5144 -1.78493 
46.2257 11.5144 -1.78493 -42.8065 18.2807 -1.78493 -40.7415 20.816 -1.78493 
33.6869 24.1787 -1.78493 40.6966 18.2807 -1.78493 40.4532 18.5164 -1.78493 
-35.6684 25.0469 -1.78493 -33.9752 26.1199 -1.78493 -27.209 28.9473 -1.78493 
-20.4428 30.9455 -1.78493 32.4405 25.0469 -1.78493 26.9207 28.5944 -1.78493 
-17.8625 31.8131 -1.78493 -13.6766 33.3634 -1.78493 -6.91036 36.318 -1.78493 
-0.144145 37.7955 -1.78493 6.62207 36.9764 -1.78493 13.3883 34.7847 -1.78493 
20.5634 31.8131 -1.78493 20.1545 32.0089 -1.78493 20.1545 31.8131 1.0333 
-27.209 -30.5437 4.98129 -20.4428 -32.7394 4.98129 -13.6766 -33.36 4.98129 
-6.91036 -32.7301 4.98129 -0.144145 -31.8056 4.98129 6.62207 -31.2633 4.98129 
13.3883 -31.0366 4.98129 20.1545 -30.3275 4.98129 -29.8362 -29.0829 4.98129 
-33.9752 -26.1936 4.98129 -27.209 -29.0829 7.63819 -20.4428 -29.0829 11.4645 
-6.91036 -29.0829 11.0936 -0.144145 -29.0829 9.36947 6.62207 -29.0829 8.749 
13.3883 -29.0829 9.21997 24.7241 -29.0829 4.98129 20.1545 -29.0829 8.23692 
26.9207 -28.4474 4.98129 33.6869 -24.9443 4.98129 -37.9565 -22.3167 4.98129 
-40.7415 -18.4497 4.98129 -33.9752 -22.3167 9.83484 37.2372 -22.3167 4.98129 
33.6869 -22.3167 10.4692 40.4532 -19.4605 4.98129 -42.4826 -15.5504 4.98129 
-40.7415 -15.5504 7.60905 44.2048 -15.5504 4.98129 47.2194 -10.3217 4.98129 
-45.4802 -8.78421 4.98129 47.8599 -8.78421 4.98129 47.2194 -8.78421 6.88907 
-46.5261 -2.01799 4.98129 49.8014 -2.01799 4.98129 -46.2685 4.74823 4.98129 
49.5407 4.74823 4.98129 47.2194 10.1339 4.98129 -45.1349 11.5144 4.98129 
46.4868 11.5144 4.98129 -42.1768 18.2807 4.98129 -40.7415 20.2047 4.98129 
-40.7415 18.2807 8.46319 33.6869 23.4861 4.98129 40.5213 18.2807 4.98129 
40.4532 18.3441 4.98129 40.4532 18.2807 5.12975 -35.5426 25.0469 4.98129 
-33.9752 26.1512 4.98129 -33.9752 25.0469 8.71098 -27.209 29.0068 4.98129 
-20.4428 30.7859 4.98129 20.1545 31.5306 4.98129 31.3621 25.0469 4.98129 
26.9207 27.8669 4.98129 26.9207 25.0469 10.8776 -15.2591 31.8131 4.98129 
-13.6766 32.1606 4.98129 -13.6766 31.8131 6.12403 -6.91036 34.44 4.98129 
-6.91036 31.8131 11.0713 -0.144145 36.1448 4.98129 6.62207 35.9946 4.98129 
19.4973 31.8131 4.98129 13.3883 34.3067 4.98129 13.3883 31.8131 11.084 
-13.6766 -29.4736 11.7475 -27.209 -25.6834 11.7475 -18.3109 -29.0829 11.7475 
-20.4428 -28.8412 11.7475 -10.4508 -29.0829 11.7475 -13.6766 -29.0829 12.2077 
-6.91036 -28.6035 11.7475 -0.144145 -27.3209 11.7475 6.62207 -27.0309 11.7475 
13.3883 -27.6772 11.7475 20.1545 -27.3991 11.7475 26.9207 -25.4381 11.7475 
-31.5916 -22.3167 11.7475 -33.9752 -19.8682 11.7475 -27.209 -22.3167 14.0841 
-20.4428 -22.3167 16.2319 -13.6766 -22.3167 17.543 -6.91036 -22.3167 17.2979 
-0.144145 -22.3167 16.4533 6.62207 -22.3167 16.0343 13.3883 -22.3167 16.5489 
20.1545 -22.3167 16.188 32.5871 -22.3167 11.7475 26.9207 -22.3167 14.8814 
33.6869 -21.5688 11.7475 40.4532 -15.6308 11.7475 -37.0669 -15.5504 11.7475 
-40.7415 -9.13795 11.7475 -33.9752 -15.5504 14.1814 -27.209 -15.5504 16.8448 
-20.4428 -15.5504 17.7044 26.9207 -15.5504 18.3766 33.6869 -15.5504 16.5581 
40.5352 -15.5504 11.7475 40.4532 -15.5504 11.8272 -40.9057 -8.78421 11.7475 
-40.7415 -8.78421 11.9076 -33.9752 -8.78421 15.9936 -27.209 -8.78421 17.908 
45.2138 -8.78421 11.7475 40.4532 -8.78421 16.8101 47.2194 -3.11051 11.7475 
-42.1552 -2.01799 11.7475 -40.7415 -2.01799 13.1399 -33.9752 -2.01799 17.2378 
40.4532 -2.01799 18.4682 47.5455 -2.01799 11.7475 47.2194 -2.01799 12.2179 
-42.2335 4.74823 11.7475 -40.7415 4.74823 13.3399 -33.9752 4.74823 17.9536 
40.4532 4.74823 18.1909 47.544 4.74823 11.7475 47.2194 5.44362 11.7475 
[...]
POINT_DATA 506
SCALARS ImageScalars float
LOOKUP_TABLE default
0 0 0 0 0 0 0 0 0 
0 0 0 0 0 0 0 0 0 
0 0 0 0 0 0 0 0 0 
0 0 0 0 0 0 0 0 0 
0 0 0 0 0 0 0 0 0 
0 0 0 0 0 0 0 0 0 
0 0 0 0 0 0 0 0 0 
0 0 0 0 0 0 0 0 0 
0 0 0 0 0 0 0 0 0 
0 0 0 0 0 0 0 0 0 
0 0 0 0 0 0 0 0 0 
0 0 0 0 0 0 0 0 0 
0 0 0 0 0 0 0 0 0 
0 0 0 0 0 0 0 0 0 
0 0 0 0 0 0 0 0 0 
0 0 0 0 0 0 0 0 0 
0 0 0 0 0 0 0 0 0 
0 0 0 0 0 0 0 0 0 
0 0 0 0 0 0 0 0 0 
0 0 0 0 0 0 0 0 0 
0 0 0 0 0 0 0 0 0 
0 0 0 0 0 0 0 0 0 
0 0 0 0 0 0 0 0 0 
0 0 0 0 0 0 0 0 0 
0 0 0 0 0 0 0 0 0 
0 0 0 0 0 0 0 0 0 
0 0 0 0 0 0 0 0 0 
0 0 0 0 0 0 0 0 0 
0 0 0 0 0 0 0 0 0 
0 0 0 0 0 0 0 0 0 
0 0 0 0 0 0 0 0 0 
0 0 0 0 0 0 0 0 0 
0 0 0 0 0 0 0 0 0 
0 0 0 0 0 0 0 0 0 
0 0 0 0 0 0 0 0 0 
0 0 0 0 0 0 0 0 0 
0 0 0 0 0 0 0 0 0 
0 0 0 0 0 0 0 0 0 
0 0 0 0 0 0 0 0 0 
0 0 0 0 0 0 0 0 0 
0 0 0 0 0 0 0 0 0 
0 0 0 0 0 0 0 0 0 
0 0 0 0 0 0 0 0 0 
0 0 0 0 0 0 0 0 0 
0 0 0 0 0 0 0 0 0 
0 0 0 0 0 0 0 0 0 
0 0 0 0 0 0 0 0 0 
0 0 0 0 0 0 0 0 0 
0 0 0 0 0 0 0 0 0 
0 0 0 0 0 0 0 0 0 
0 0 0 0 0 0 0 0 0 
0 0 0 0 0 0 0 0 0 
0 0 0 0 0 0 0 0 0 
0 0 0 0 0 0 0 0 0 
0 0 0 0 0 0 0 0 0 
0 0 0 0 0 0 0 0 0 
0 0 
NORMALS Normals float
-0.16125 -0.499512 -0.851167 -0.058838 -0.514331 -0.855571 0.133977 -0.582727 -0.801548 
0.287102 -0.655922 -0.698097 -0.267644 -0.316872 -0.909922 -0.148912 -0.211807 -0.9659 
-0.133918 -0.159318 -0.978102 -0.0894773 -0.139481 -0.986174 0.0634374 -0.169027 -0.983568 
0.214071 -0.242486 -0.946242 0.176184 -0.3487 -0.920526 0.162077 -0.443606 -0.881445 
-0.333473 -0.219288 -0.916902 -0.137714 -0.104324 -0.984963 -0.078617 -0.00901646 -0.996864 
-0.0987628 0.0731919 -0.992416 -0.0914608 0.0770401 -0.992824 0.0266872 0.0938162 -0.995232 
0.125302 -0.0131317 -0.992032 0.0864864 -0.159098 -0.983467 0.0342617 -0.223414 -0.974121 
0.148483 -0.300179 -0.942255 0.396049 -0.365414 -0.842388 -0.225853 -0.0951645 -0.969502 
-0.0434881 -0.0239577 -0.998767 0.0321507 0.0843788 -0.995915 -0.048274 0.158801 -0.98613 
-0.0681609 0.0786149 -0.994572 -0.0225755 0.204403 -0.978626 -0.0520886 -0.0710593 -0.996111 
-0.0298114 -0.23527 -0.971473 0.00281056 -0.158385 -0.987373 0.109434 -0.11572 -0.987235 
0.31401 -0.157563 -0.936254 -0.190702 -0.00160449 -0.981647 0.0380952 0.00941641 -0.99923 
0.105651 0.0366287 -0.993728 -0.110226 -0.00772909 -0.993876 -0.0480102 -0.123293 -0.991208 
-0.111811 -0.0508666 -0.992427 -0.327371 -0.119449 -0.937315 0.0177451 -0.0847192 -0.996247 
0.158584 -0.00393432 -0.987338 0.152964 0.0403781 -0.987406 0.278732 -0.00234035 -0.960366 
0.521412 -0.033271 -0.852656 -0.208655 0.0877571 -0.974044 -0.0108115 0.0406205 -0.999116 
0.0131134 -0.0457598 -0.998866 -0.208357 -0.104341 -0.972471 -0.0976791 -0.0737225 -0.992484 
-0.0112758 -0.170287 -0.98533 -0.0768809 0.147011 -0.986143 0.0848929 0.295593 -0.951535 
0.11083 0.197182 -0.974082 0.110273 0.164418 -0.980207 0.267718 0.171097 -0.948184 
-0.265875 0.207122 -0.941494 -0.0887948 0.117301 -0.989119 -0.038976 0.0747697 -0.996439 
-0.133743 0.0928721 -0.986655 -0.115016 0.190099 -0.975004 0.0796343 0.0553753 -0.995285 
0.133817 0.171578 -0.97604 0.068916 0.221634 -0.972692 0.0490893 0.229444 -0.972083 
0.12455 0.266658 -0.955709 0.311889 0.342806 -0.88612 -0.146935 0.376275 -0.914783 
-0.0211836 0.325633 -0.945259 -0.0795133 0.259002 -0.962598 -0.147559 0.256485 -0.955218 
-0.0269714 0.175461 -0.984117 0.107691 0.115683 -0.987431 0.129559 0.142602 -0.981264 
0.147252 0.253871 -0.955964 -0.200435 0.333621 -0.921153 -0.0605128 0.298299 -0.952552 
0.104185 0.294515 -0.949951 0.212335 0.34672 -0.913619 -0.159818 -0.598843 -0.784758 
-0.027723 -0.698471 -0.715101 0.161698 -0.724974 -0.669527 0.288456 -0.666934 -0.687017 
-0.306442 -0.449067 -0.839305 -0.401894 -0.721491 -0.563854 -0.225028 -0.555531 -0.800467 
-0.226242 -0.55207 -0.802517 -0.227791 -0.559237 -0.797098 0.286419 -0.663766 -0.690926 
0.222489 -0.545546 -0.808008 0.270959 -0.819776 -0.504528 0.187035 -0.530512 -0.826786 
0.226087 -0.903882 -0.363156 -0.36504 -0.383546 -0.848315 -0.394992 -0.324774 -0.859362 
-0.482306 -0.477373 -0.734503 0.247776 -0.542971 -0.802365 0.26562 -0.545406 -0.794971 
0.2929 -0.598182 -0.745914 0.419216 -0.425456 -0.802026 0.514167 -0.705658 -0.487524 
-0.43249 -0.250181 -0.866234 -0.713813 -0.374015 -0.592101 0.449329 -0.387044 -0.805171 
0.683455 -0.519032 -0.513317 -0.49563 -0.155418 -0.854515 -0.589494 -0.179323 -0.787616 
0.521318 -0.216245 -0.82551 0.537153 -0.0765801 -0.840001 0.603418 -0.246162 -0.758479 
-0.508666 -0.0136663 -0.860855 -0.51689 -0.0140476 -0.855937 0.534563 -0.0363217 -0.844348 
0.519599 0.0676444 -0.851728 0.8727 -0.0930142 -0.479315 -0.486076 0.110243 -0.866935 
-0.544573 0.117869 -0.830389 0.484823 0.19835 -0.851824 0.515549 0.200709 -0.833021 
-0.398462 0.230263 -0.88781 -0.627207 0.292764 -0.721734 -0.322094 0.331489 -0.886775 
0.233438 0.366038 -0.900846 0.351529 0.351106 -0.867843 0.330085 0.365072 -0.870498 
0.60353 0.434799 -0.668357 -0.702913 0.570744 -0.424459 -0.264534 0.401579 -0.876787 
-0.367704 0.442348 -0.817999 -0.154459 0.453785 -0.877623 -0.0728681 0.421365 -0.903959 
-0.160998 0.363919 -0.917411 0.229476 0.354805 -0.906341 0.210988 0.348475 -0.913263 
0.252289 0.383602 -0.888369 0.472218 0.55673 -0.683419 -0.245747 0.746169 -0.618741 
-0.188188 0.643731 -0.741752 -0.203321 0.378334 -0.903064 -0.215074 0.443543 -0.870065 
-0.214867 0.387774 -0.896361 -0.0691058 0.490349 -0.868782 0.126946 0.470153 -0.873408 
0.238394 0.388399 -0.89012 0.229347 0.405802 -0.884717 0.30986 0.520625 -0.795573 
0.443998 0.691944 -0.56928 -0.293209 0.655481 -0.695969 -0.0651961 0.621898 -0.780379 
0.17298 0.669512 -0.722379 0.332522 0.785273 -0.522279 -0.424383 -0.852709 -0.304609 
-0.276697 -0.91851 -0.282451 -0.113467 -0.961018 -0.252129 0.0457111 -0.982554 -0.18027 
0.194919 -0.965765 -0.171188 0.285433 -0.930172 -0.230886 0.263965 -0.910028 -0.319644 
0.225479 -0.908854 -0.350917 -0.515422 -0.799265 -0.309055 -0.579611 -0.74457 -0.331159 
0.232759 -0.906431 -0.352428 0.338151 -0.856685 -0.389545 0.524348 -0.76162 -0.380781 
-0.73276 -0.592375 -0.334894 -0.785548 -0.517494 -0.339285 0.577536 -0.72009 -0.384606 
0.699681 -0.587447 -0.406636 -0.837385 -0.408852 -0.362804 0.735819 -0.5366 -0.413075 
-0.895971 -0.233062 -0.378044 0.839921 -0.288289 -0.459806 0.873348 -0.0954085 -0.477661 
0.919901 -0.324395 -0.220342 -0.930223 -0.0418916 -0.364595 -0.992563 -0.0379449 -0.115667 
0.87344 -0.0930709 -0.477955 0.875089 -0.0620858 -0.479964 -0.911734 0.145136 -0.384288 
-0.992143 0.125064 -0.003326 0.849292 0.219451 -0.480151 0.863491 0.220991 -0.453372 
-0.850019 0.333507 -0.407726 0.743707 0.463103 -0.482116 0.663538 0.587075 -0.463746 
-0.717571 0.572179 -0.397118 -0.706359 0.584604 -0.399118 -0.460473 0.788107 -0.408475 
0.612724 0.646104 -0.455103 0.556254 0.701217 -0.445955 0.68761 0.709824 -0.152783 
-0.410591 0.812231 -0.414362 -0.476902 0.836154 -0.270945 -0.299824 0.845333 -0.442174 
-0.291621 0.829069 -0.477077 -0.404797 0.799508 -0.443765 0.392547 0.809673 -0.436275 
0.508774 0.743968 -0.433198 0.475196 0.764559 -0.435475 -0.404321 0.800807 -0.441851 
-0.406936 0.812728 -0.416986 -0.3093 0.850041 -0.426337 -0.0366985 0.904116 -0.425709 
0.237658 0.876404 -0.41885 0.36998 0.833852 -0.409641 0.34928 0.844067 -0.406883 
0.413445 0.903525 -0.112723 -0.406083 -0.912014 0.0576857 -0.235722 -0.967467 0.0918836 
-0.0732129 -0.986521 0.146345 0.079333 -0.975457 0.205401 0.151403 -0.966876 0.205494 
0.192756 -0.974167 0.117659 0.183745 -0.982915 -0.0107831 0.215366 -0.973586 -0.0758096 
-0.534777 -0.843619 0.0481769 -0.575816 -0.816164 0.0480978 0.315994 -0.946365 -0.0673928 
0.335198 -0.939771 -0.066876 0.533146 -0.843533 -0.0648608 -0.798164 -0.600923 0.0427253 
-0.819165 -0.571904 0.0435345 0.644064 -0.761251 -0.0753553 0.717253 -0.690908 -0.0905178 
-0.89635 -0.440796 0.0474866 0.807977 -0.578635 -0.111151 0.915727 -0.375369 -0.143329 
-0.969614 -0.244318 0.0125316 -0.991614 -0.128145 0.0167453 0.93082 -0.335137 -0.145802 
-0.999155 -0.0345638 0.0222187 -0.992614 -0.0382148 0.115139 0.979892 -0.100708 -0.172251 
-0.992233 0.124224 0.00646974 -0.991737 0.128167 0.00560887 -0.992226 0.123591 0.0145574 
0.958991 0.224407 -0.17314 0.894479 0.412974 -0.171349 -0.94773 0.317441 -0.0322347 
0.851524 0.497875 -0.164399 -0.827653 0.558238 -0.0579792 -0.764673 0.639577 -0.0788452 
0.589182 0.804143 -0.0788588 0.691482 0.711635 -0.124211 0.687501 0.715696 -0.122968 
-0.547354 0.829232 -0.113036 -0.476695 0.870646 -0.1214 -0.31462 0.939959 -0.132252 
-0.306995 0.945614 -0.107553 0.570101 0.818215 -0.074226 0.494961 0.866238 -0.0681571 
-0.338787 0.937993 -0.0734407 -0.389447 0.920866 -0.0183735 -0.300496 0.952164 0.0555537 
-0.0432566 0.998351 0.0377491 0.212821 0.977012 -0.0124325 0.341357 0.937022 -0.0739283 
0.417766 0.905725 -0.071649 0.413375 0.907679 -0.0723882 0.419009 0.906846 0.045415 
-0.391995 -0.854243 0.341481 -0.18572 -0.918826 0.348233 -0.000406148 -0.914342 0.404943 
0.104074 -0.895706 0.432295 0.0995181 -0.881838 0.460931 0.0526247 -0.916717 0.396057 
0.0656589 -0.960555 0.270229 0.175701 -0.963784 0.200623 -0.46797 -0.812846 0.346822 
-0.590266 -0.712622 0.379153 -0.398839 -0.793251 0.460087 -0.180069 -0.73552 0.653135 
0.121189 -0.798626 0.589499 0.0943721 -0.818452 0.566772 0.0106798 -0.857964 0.513599 
0.00781062 -0.891844 0.452275 0.286181 -0.936362 0.203292 0.161354 -0.919114 0.359435 
0.343913 -0.916183 0.205748 0.533938 -0.817742 0.214963 -0.6965 -0.604202 0.387076 
-0.775947 -0.496172 0.389512 -0.561976 -0.560229 0.608544 0.616646 -0.759339 0.207731 
0.510566 -0.726441 0.460007 0.689551 -0.696377 0.198943 -0.815071 -0.425816 0.392861 
-0.752117 -0.420865 0.507142 0.774733 -0.609546 0.168054 0.903808 -0.40185 0.147133 
-0.893262 -0.254382 0.370638 0.926886 -0.345084 0.147645 0.907181 -0.346534 0.238616 
-0.932512 -0.0492164 0.357769 0.984912 -0.114305 0.129934 -0.936666 0.0888367 0.33877 
0.966704 0.227844 0.116491 0.874811 0.467347 0.127646 -0.913049 0.280312 0.296253 
0.838324 0.529046 0.131617 -0.834141 0.505607 0.220386 -0.790985 0.57615 0.205899 
-0.805007 0.475483 0.354796 0.563805 0.795963 0.220379 0.657888 0.732735 0.174022 
0.656764 0.733739 0.174037 0.656011 0.73284 0.180538 -0.580746 0.802199 0.138602 
-0.518576 0.845852 0.124952 -0.559434 0.7795 0.281803 -0.300827 0.948428 0.0999325 
-0.226372 0.966286 0.122667 0.41814 0.88277 0.21419 0.541958 0.809332 0.226412 
0.497164 0.836133 0.231754 0.435487 0.736229 0.517995 -0.255277 0.947531 0.192402 
-0.265496 0.939061 0.218348 -0.245902 0.938029 0.244198 -0.262221 0.910554 0.319579 
-0.188926 0.865303 0.464282 -0.105712 0.938792 0.327865 0.126316 0.956103 0.264406 
0.406373 0.888823 0.211788 0.30118 0.929989 0.210739 0.288036 0.809757 0.511203 
0.0172451 -0.783194 0.621538 -0.38406 -0.59977 0.701979 -0.116966 -0.747158 0.654274 
-0.181466 -0.719579 0.67028 0.0669062 -0.784583 0.616404 0.0127167 -0.768961 0.639169 
0.121335 -0.778085 0.61633 0.0887464 -0.759087 0.644912 -0.0218471 -0.766326 0.64208 
-0.0226661 -0.803408 0.594997 0.136317 -0.806189 0.575741 0.324815 -0.761075 0.561481 
-0.482287 -0.513175 0.709965 -0.527207 -0.473662 0.705477 -0.361183 -0.458749 0.811847 
-0.225214 -0.377398 0.898248 -0.072465 -0.356709 0.931401 0.0681635 -0.446777 0.892045 
0.0817331 -0.54023 0.837539 -0.00864595 -0.513996 0.857749 -0.0099682 -0.466739 0.884339 
0.103307 -0.512601 0.852389 0.470369 -0.704494 0.531452 0.276747 -0.619721 0.734409 
0.493228 -0.691405 0.527906 0.60975 -0.600674 0.517103 -0.590221 -0.3865 0.708701 
-0.675397 -0.261925 0.689373 -0.480568 -0.346779 0.805481 -0.22043 -0.249742 0.942889 
-0.117301 -0.162533 0.979706 0.133999 -0.325292 0.936071 0.359148 -0.475188 0.803249 
0.611483 -0.599054 0.516936 0.608291 -0.598833 0.520942 -0.679038 -0.25372 0.688864 
-0.67189 -0.253728 0.695835 -0.379636 -0.190207 0.905371 -0.185488 -0.170885 0.967674 
0.786536 -0.359771 0.501923 0.521962 -0.341472 0.781634 0.856991 -0.16749 0.487353 
-0.723735 -0.0776087 0.6857 -0.66116 -0.0850325 0.74541 -0.384574 -0.129868 0.913913 
0.457652 -0.0730578 0.886125 0.863297 -0.135426 0.486187 0.850455 -0.135421 0.508318 
-0.762428 0.0453736 0.645481 -0.700739 0.0322728 0.712687 -0.398079 -0.041969 0.916391 
0.466271 0.169999 0.868154 0.852869 0.22065 0.47321 0.844369 0.251928 0.472835 
0.839347 0.220092 0.497048 -0.780124 0.186632 0.597139 -0.7789 0.259227 0.571065 
-0.75666 0.173371 0.630403 -0.464841 0.0995905 0.879776 0.713523 0.521052 0.46839 
0.60489 0.631427 0.485189 0.543908 0.487494 0.683018 -0.739863 0.434254 0.513836 
-0.581215 0.680555 0.446133 -0.54255 0.363336 0.757381 0.151155 0.33802 0.928921 
0.415278 0.711247 0.567162 0.228192 0.502349 0.834011 0.517802 0.691666 0.503467 
0.475599 0.710198 0.519062 0.439489 0.657909 0.61156 -0.507911 0.754812 0.415073 
-0.316612 0.871622 0.374207 -0.321576 0.703595 0.633674 -0.18449 0.908704 0.374461 
-0.16622 0.655628 0.736562 -0.155772 0.900136 0.406805 -0.176985 0.856012 0.485716 
0.152337 0.389881 0.908177 0.284639 0.781801 0.554768 0.22841 0.435561 0.870698 
0.413995 0.708674 0.571305 0.383704 0.70745 0.593536 0.326996 0.571245 0.75283 
-0.16126 0.853599 0.495343 -0.0997674 0.837016 0.538006 -0.0875446 0.798928 0.595021 
0.247762 0.799198 0.547629 0.0907244 0.83117 0.548566 0.0964264 0.776627 0.622537 
-0.105939 -0.0872667 0.990536 -0.0094614 -0.252744 0.967487 0.0534059 -0.293353 0.954511 
0.0481087 -0.25298 0.966275 -0.00701361 -0.202399 0.979278 0.0187261 -0.2612 0.965103 
-0.106515 -0.0839323 0.990762 -0.0681784 -0.152074 0.986015 -0.106466 -0.0824566 0.990891 
-0.0511974 -0.148762 0.987547 0.0386306 -0.201752 0.978674 0.0498613 -0.24364 0.968583 
-0.00697158 -0.197155 0.980348 0.0837685 -0.291752 0.952819 0.0116322 -0.243158 0.969917 
0.124158 -0.313403 0.941469 0.235804 -0.323871 0.916245 -0.0822677 -0.154218 0.984606 
-0.178784 -0.155263 0.97156 -0.06245 -0.15119 0.98653 -0.0688631 -0.166408 0.983649 
-0.0622503 -0.15853 0.98539 -0.0117059 -0.0996393 0.994955 0.011907 -0.208661 0.977916 
-0.0137904 -0.156104 0.987644 -0.0374004 -0.157484 0.986813 0.0372109 -0.202543 0.978566 
0.306718 -0.28805 0.907167 0.194636 -0.261223 0.945452 -0.25398 -0.137137 0.957438 
-0.172572 -0.137751 0.975317 -0.117153 -0.188536 0.975053 -0.118402 -0.232225 0.965429 
0.0233877 -0.16565 0.985907 -0.0134683 -0.112557 0.993554 -0.0139175 -0.187142 0.982234 
0.0473699 -0.132931 0.989993 -0.0375784 -0.0823981 0.995891 0.0171063 -0.0761645 0.996949 
0.451946 -0.0728895 0.889062 0.191481 -0.0788873 0.978321 -0.345659 -0.0555051 0.936717 
-0.229628 -0.0955371 0.968578 -0.142218 -0.128587 0.981448 -0.0433945 -0.0720456 0.996457 
0.0534795 -0.00180456 0.998567 -0.0343797 -0.0285605 0.999001 -0.00938761 0.0517608 0.998615 
0.0902721 0.0543416 0.994433 0.0128516 0.0705059 0.997429 0.0375373 0.11319 0.992864 
0.425891 0.165103 0.889583 0.191277 0.146672 0.970516 -0.413905 0.0773065 0.907032 
-0.258351 0.0127166 0.965967 -0.101195 0.0042345 0.994858 0.0111712 0.0350761 0.999322 
0.0697277 0.0455424 0.996526 0.0391876 0.0267056 0.998875 0.0698948 0.157763 0.985 
0.0652966 0.158874 0.985137 0.119169 0.306869 0.944262 0.0196011 0.211183 0.97725 
0.148477 0.375733 0.914757 0.094349 0.281184 0.955005 0.262193 0.374643 0.889324 
0.259842 0.375928 0.889472 0.258404 0.373396 0.890956 -0.376525 0.295693 0.877949 
-0.311157 0.393715 0.864968 -0.302039 0.279206 0.911491 -0.161074 0.561065 0.811949 
-0.118628 0.226169 0.966838 -0.00256718 0.213111 0.977024 0.0424451 0.154628 0.987061 
0.0779016 0.126709 0.988876 0.148931 0.360058 0.920966 0.124568 0.172424 0.977115 
0.146752 0.287696 0.946412 0.164221 0.27108 0.948444 0.144017 0.217424 0.965394 
-0.0943966 0.601303 0.793426 -0.0732914 0.60211 0.795042 -0.0714719 0.591246 0.803318 
-0.0356233 0.546165 0.83692 -0.0271022 0.512395 0.858322 0.121921 0.398858 0.908872 
0.0376981 0.467345 0.883271 0.0505835 0.424178 0.904165 
