# vtk DataFile Version 4.2
vtk output
ASCII
DATASET POLYDATA
POINTS 578 float
-25.8436 -46.2353 -12.9014 -17.5392 -46.2353 -13.4981 -9.23485 -46.2353 -13.6099 
-0.930463 -46.2353 -13.679 7.37392 -46.2353 -13.5253 15.6783 -46.2353 -13.9282 
23.9827 -46.2353 -11.0925 -42.4524 -37.9309 -13.3981 -34.148 -37.9309 -15.3952 
-25.8436 -37.9309 -15.3898 -17.5392 -37.9309 -16.0765 -9.23485 -37.9309 -16.6065 
-0.930463 -37.9309 -16.8931 7.37392 -37.9309 -16.744 15.6783 -37.9309 -15.9701 
23.9827 -37.9309 -14.9564 32.2871 -37.9309 -11.2142 -50.7568 -29.6265 -13.9642 
-42.4524 -29.6265 -15.8638 -34.148 -29.6265 -17.0872 -25.8436 -29.6265 -17.2466 
-17.5392 -29.6265 -16.9067 -9.23485 -29.6265 -16.633 -0.930463 -29.6265 -16.4272 
7.37392 -29.6265 -16.4228 15.6783 -29.6265 -16.0934 23.9827 -29.6265 -14.7892 
32.2871 -29.6265 -13.4704 40.5915 -29.6265 -11.3748 -59.0612 -21.3221 -11.6636 
-50.7568 -21.3221 -16.2007 -42.4524 -21.3221 -17.2079 -34.148 -21.3221 -17.7569 
-25.8436 -21.3221 -17.9238 -17.5392 -21.3221 -17.0262 -9.23485 -21.3221 -16.0656 
-0.930463 -21.3221 -15.4766 7.37392 -21.3221 -15.6251 15.6783 -21.3221 -15.5944 
23.9827 -21.3221 -14.5291 32.2871 -21.3221 -12.906 40.5915 -21.3221 -11.5981 
-59.0612 -13.0177 -13.8771 -50.7568 -13.0177 -16.2178 -42.4524 -13.0177 -17.8912 
-34.148 -13.0177 -17.6981 -25.8436 -13.0177 -17.1894 -17.5392 -13.0177 -16.3573 
-9.23485 -13.0177 -16.0328 -0.930463 -13.0177 -17.9627 7.37392 -13.0177 -16.7991 
15.6783 -13.0177 -15.8022 23.9827 -13.0177 -14.5967 32.2871 -13.0177 -13.6197 
40.5915 -13.0177 -13.0588 48.8959 -13.0177 -10.8096 -59.0612 -4.71333 -12.7947 
-50.7568 -4.71333 -16.3461 -42.4524 -4.71333 -17.8576 -34.148 -4.71333 -17.449 
-25.8436 -4.71333 -16.6913 -17.5392 -4.71333 -15.6203 -9.23485 -4.71333 -15.4545 
-0.930463 -4.71333 -15.5027 7.37392 -4.71333 -15.1484 15.6783 -4.71333 -17.53 
23.9827 -4.71333 -15.3868 32.2871 -4.71333 -13.9413 40.5915 -4.71333 -12.7212 
48.8959 -4.71333 -11.5455 -59.0612 3.59105 -13.6084 -50.7568 3.59105 -17.3328 
-42.4524 3.59105 -17.1297 -34.148 3.59105 -17.0015 -25.8436 3.59105 -16.4911 
-17.5392 3.59105 -16.402 -9.23485 3.59105 -16.0765 -0.930463 3.59105 -16.9432 
7.37392 3.59105 -14.0251 15.6783 3.59105 -15.7343 23.9827 3.59105 -13.1967 
32.2871 3.59105 -12.1399 40.5915 3.59105 -11.3642 -59.0612 11.8954 -11.1855 
-50.7568 11.8954 -14.4372 -42.4524 11.8954 -15.5417 -34.148 11.8954 -16.2118 
-25.8436 11.8954 -16.229 -17.5392 11.8954 -16.1062 -9.23485 11.8954 -14.5954 
-0.930463 11.8954 -14.1627 7.37392 11.8954 -14.8622 15.6783 11.8954 -14.1845 
23.9827 11.8954 -11.7355 32.2871 11.8954 -10.5429 -50.7568 20.1998 -10.8188 
-42.4524 20.1998 -14.4074 -34.148 20.1998 -15.07 -25.8436 20.1998 -15.8265 
-17.5392 20.1998 -16.0475 -9.23485 20.1998 -15.1474 -0.930463 20.1998 -14.1666 
7.37392 20.1998 -14.5835 15.6783 20.1998 -14.4287 23.9827 20.1998 -12.5402 
32.2871 20.1998 -10.6873 -34.148 28.5042 -13.3134 -25.8436 28.5042 -15.3769 
-17.5392 28.5042 -15.9832 -9.23485 28.5042 -15.9395 -0.930463 28.5042 -15.5227 
7.37392 28.5042 -14.9544 15.6783 28.5042 -14.3864 23.9827 28.5042 -12.4504 
-25.8436 36.8086 -13.4467 -17.5392 36.8086 -15.0929 -9.23485 36.8086 -15.9317 
-0.930463 36.8086 -15.6592 7.37392 36.8086 -14.6124 15.6783 36.8086 -13.0546 
23.9827 36.8086 -10.8795 -25.8436 45.113 -10.9827 -17.5392 45.113 -12.7433 
-9.23485 45.113 -13.7392 -0.930463 45.113 -13.7174 7.37392 45.113 -12.824 
-0.930463 53.4174 -10.3618 -25.8436 -48.9281 -10.361 -17.5392 -50.0472 -10.361 
-9.23485 -51.8075 -10.361 -9.23485 -54.5397 -4.30434 -0.930463 -51.9281 -10.361 
7.37392 -51.2888 -10.361 15.6783 -50.4694 -10.361 23.9827 -47.1538 -10.361 
-42.4524 -41.4689 -10.361 -32.4204 -46.2353 -10.361 -34.148 -45.0356 -10.361 
-34.148 -46.2353 -8.12894 27.8616 -46.2353 -10.361 32.2871 -42.4131 -10.361 
32.2871 -46.2353 -8.86243 -47.5383 -37.9309 -10.361 -50.7568 -35.1397 -10.361 
-50.7568 -37.9309 -3.99848 35.0856 -37.9309 -10.361 40.5915 -33.4122 -10.361 
40.5915 -37.9309 -8.14276 -55.8262 -29.6265 -10.361 -59.0612 -24.2253 -10.361 
-59.0612 -29.6265 -2.61312 42.5213 -29.6265 -10.361 48.8959 -29.6265 -4.95869 
-60.5821 -21.3221 -10.361 46.6587 -21.3221 -10.361 48.8959 -17.201 -10.361 
48.8959 -21.3221 -9.77251 57.2002 -21.3221 -3.98634 -63.5578 -13.0177 -10.361 
50.2564 -13.0177 -10.361 57.2002 -13.0177 -7.54606 -62.438 -4.71333 -10.361 
-67.3656 -4.71333 -2.2399 52.9373 -4.71333 -10.361 48.8959 2.83142 -10.361 
57.2002 -4.71333 -8.91837 65.5046 -4.71333 -5.34855 -63.3628 3.59105 -10.361 
-67.3656 3.59105 -2.33833 48.0184 3.59105 -10.361 40.5915 8.87854 -10.361 
48.8959 3.59105 -10.2439 57.2002 3.59105 -7.48539 65.5046 3.59105 -2.66727 
-60.1429 11.8954 -10.361 -59.0612 13.5408 -10.361 34.3171 11.8954 -10.361 
40.5915 11.8954 -9.78949 48.8959 11.8954 -8.21642 57.2002 11.8954 -4.81337 
-51.6415 20.1998 -10.361 -59.0612 20.1998 -4.01018 -50.7568 21.0239 -10.361 
-42.4524 27.5843 -10.361 33.775 20.1998 -10.361 32.2871 23.6756 -10.361 
40.5915 20.1998 -8.66951 48.8959 20.1998 -5.28301 -50.7568 28.5042 -4.13095 
-41.4468 28.5042 -10.361 -42.4524 28.5042 -9.86895 -34.148 35.8599 -10.361 
30.8388 28.5042 -10.361 32.2871 28.5042 -9.88152 40.5915 28.5042 -6.42189 
-42.4524 36.8086 -2.62316 -33.2279 36.8086 -10.361 -34.148 36.8086 -9.88084 
15.6783 44.8007 -10.361 25.3972 36.8086 -10.361 23.9827 38.1726 -10.361 
32.2871 36.8086 -7.76753 -26.8455 45.113 -10.361 -25.8436 45.9186 -10.361 
-17.5392 49.1257 -10.361 -9.23485 53.0328 -10.361 15.2946 45.113 -10.361 
7.37392 49.8776 -10.361 15.6783 45.113 -10.2378 23.9827 45.113 -7.31828 
-17.5392 53.4174 -6.55496 -0.97112 53.4174 -10.361 -9.23485 53.4174 -10.0946 
-0.926121 53.4174 -10.361 -0.930463 53.4184 -10.361 7.37392 53.4174 -8.05517 
15.6783 53.4174 -3.83603 -9.23485 -55.1378 -2.05657 -34.148 -48.1378 -2.05657 
-25.8436 -51.5323 -2.05657 -14.1787 -54.5397 -2.05657 -17.5392 -54.1024 -2.05657 
-2.60728 -54.5397 -2.05657 -9.23485 -54.5397 -0.60576 -0.930463 -54.3614 -2.05657 
7.37392 -52.8495 -2.05657 15.6783 -52.451 -2.05657 23.9827 -51.792 -2.05657 
32.2871 -49.2612 -2.05657 -50.7568 -38.6381 -2.05657 -38.5671 -46.2353 -2.05657 
-42.4524 -44.4631 -2.05657 -34.148 -46.2353 2.19019 -25.8436 -46.2353 5.65485 
7.37392 -46.2353 4.82321 15.6783 -46.2353 4.44925 23.9827 -46.2353 5.06134 
37.0046 -46.2353 -2.05657 32.2871 -46.2353 4.51203 40.5915 -43.3041 -2.05657 
-51.642 -37.9309 -2.05657 -59.0612 -29.9104 -2.05657 -50.7568 -37.9309 -0.670158 
-42.4524 -37.9309 5.79873 45.2067 -37.9309 -2.05657 40.5915 -37.9309 5.77623 
48.8959 -32.9814 -2.05657 -59.2677 -29.6265 -2.05657 -59.0612 -29.6265 -1.6578 
52.0592 -29.6265 -2.05657 48.8959 -29.6265 5.32635 57.2002 -23.8596 -2.05657 
-63.7113 -21.3221 -2.05657 59.4381 -21.3221 -2.05657 -67.0078 -13.0177 -2.05657 
-67.3656 -6.23627 -2.05657 64.3634 -13.0177 -2.05657 65.5046 -10.5831 -2.05657 
65.5046 -13.0177 0.664867 -67.4305 -4.71333 -2.05657 -67.3656 -4.71333 -1.89342 
67.9357 -4.71333 -2.05657 -67.4843 3.59105 -2.05657 -67.3656 4.02304 -2.05657 
-67.3656 3.59105 -1.73381 65.9806 3.59105 -2.05657 65.5046 5.5891 -2.05657 
-65.1236 11.8954 -2.05657 63.2898 11.8954 -2.05657 57.2002 16.3506 -2.05657 
65.5046 11.8954 3.91128 -60.2194 20.1998 -2.05657 -59.0612 21.607 -2.05657 
-59.0612 20.1998 3.62391 53.7772 20.1998 -2.05657 48.8959 26.0728 -2.05657 
57.2002 20.1998 3.31427 -52.3588 28.5042 -2.05657 -50.7568 29.9813 -2.05657 
46.8682 28.5042 -2.05657 40.5915 36.0294 -2.05657 48.8959 28.5042 2.79772 
-42.9047 36.8086 -2.05657 -42.4524 37.2518 -2.05657 -42.4524 36.8086 -0.0671898 
-34.148 44.9206 -2.05657 39.9166 36.8086 -2.05657 32.2871 43.7818 -2.05657 
40.5915 36.8086 0.0337118 -33.9353 45.113 -2.05657 -25.8436 51.5934 -2.05657 
30.7194 45.113 -2.05657 23.9827 50.1806 -2.05657 32.2871 45.113 4.40093 
-22.6667 53.4174 -2.05657 -17.5392 56.1121 -2.05657 -9.23485 58.9181 -2.05657 
-0.930463 59.1095 -2.05657 7.37392 57.7894 -2.05657 18.2435 53.4174 -2.05657 
15.6783 54.7871 -2.05657 -17.5392 -48.6172 6.24782 -9.23485 -49.941 6.24782 
-0.930463 -47.488 6.24782 -34.148 -42.9558 6.24782 -24.0665 -46.2353 6.24782 
-25.8436 -45.4951 6.24782 -17.5392 -46.2353 7.88349 -9.23485 -46.2353 8.73751 
2.38591 -46.2353 6.24782 -0.930463 -46.2353 7.07401 7.37392 -43.8419 6.24782 
15.6783 -43.4066 6.24782 23.9827 -44.4436 6.24782 32.2871 -44.6965 6.24782 
-50.7568 -31.0261 6.24782 -41.5195 -37.9309 6.24782 -42.4524 -37.3872 6.24782 
-34.148 -37.9309 9.96907 -25.8436 -37.9309 10.6759 -17.5392 -37.9309 12.2938 
-9.23485 -37.9309 12.4785 -0.930463 -37.9309 11.076 7.37392 -37.9309 9.19073 
15.6783 -37.9309 9.10306 23.9827 -37.9309 9.90786 40.0321 -37.9309 6.24782 
32.2871 -37.9309 9.48084 40.5915 -37.4967 6.24782 -51.9754 -29.6265 6.24782 
-59.0612 -22.187 6.24782 -50.7568 -29.6265 7.00901 -42.4524 -29.6265 10.972 
-34.148 -29.6265 12.7599 -25.8436 -29.6265 13.2002 -17.5392 -29.6265 14.3044 
-9.23485 -29.6265 14.5391 -0.930463 -29.6265 13.6178 7.37392 -29.6265 11.7944 
15.6783 -29.6265 12.6349 23.9827 -29.6265 12.6573 32.2871 -29.6265 12.4604 
48.4113 -29.6265 6.24782 40.5915 -29.6265 10.1998 48.8959 -29.223 6.24782 
57.2002 -25.8373 6.24782 -59.5089 -21.3221 6.24782 -59.0612 -21.3221 6.64055 
-50.7568 -21.3221 11.016 -42.4524 -21.3221 13.1152 -34.148 -21.3221 14.3419 
-17.5392 -21.3221 14.4554 7.37392 -21.3221 13.9259 15.6783 -21.3221 14.1072 
23.9827 -21.3221 13.7869 32.2871 -21.3221 13.1799 40.5915 -21.3221 13.2892 
48.8959 -21.3221 11.0368 61.7733 -21.3221 6.24782 57.2002 -21.3221 9.45652 
65.5046 -16.121 6.24782 -60.1387 -13.0177 6.24782 -59.0612 -13.0177 7.07775 
-50.7568 -13.0177 11.5823 -42.4524 -13.0177 14.3807 -9.23485 -13.0177 13.4669 
15.6783 -13.0177 14.0737 23.9827 -13.0177 13.6354 32.2871 -13.0177 14.3878 
57.2002 -13.0177 11.8834 67.0689 -13.0177 6.24782 65.5046 -13.0177 8.08434 
-61.3044 -4.71333 6.24782 -59.0612 -4.71333 7.86426 -50.7568 -4.71333 11.5095 
-42.4524 -4.71333 13.731 -17.5392 -4.71333 14.4547 -9.23485 -4.71333 13.5299 
7.37392 -4.71333 14.4719 23.9827 -4.71333 14.3046 69.7217 -4.71333 6.24782 
[...]
POINT_DATA 578
SCALARS ImageScalars float
LOOKUP_TABLE default
0 0 0 0 0 0 0 0 0 
0 0 0 0 0 0 0 0 0 
0 0 0 0 0 0 0 0 0 
0 0 0 0 0 0 0 0 0 
0 0 0 0 0 0 0 0 0 
0 0 0 0 0 0 0 0 0 
0 0 0 0 0 0 0 0 0 
0 0 0 0 0 0 0 0 0 
0 0 0 0 0 0 0 0 0 
0 0 0 0 0 0 0 0 0 
0 0 0 0 0 0 0 0 0 
0 0 0 0 0 0 0 0 0 
0 0 0 0 0 0 0 0 0 
0 0 0 0 0 0 0 0 0 
0 0 0 0 0 0 0 0 0 
0 0 0 0 0 0 0 0 0 
0 0 0 0 0 0 0 0 0 
0 0 0 0 0 0 0 0 0 
0 0 0 0 0 0 0 0 0 
0 0 0 0 0 0 0 0 0 
0 0 0 0 0 0 0 0 0 
0 0 0 0 0 0 0 0 0 
0 0 0 0 0 0 0 0 0 
0 0 0 0 0 0 0 0 0 
0 0 0 0 0 0 0 0 0 
0 0 0 0 0 0 0 0 0 
0 0 0 0 0 0 0 0 0 
0 0 0 0 0 0 0 0 0 
0 0 0 0 0 0 0 0 0 
0 0 0 0 0 0 0 0 0 
0 0 0 0 0 0 0 0 0 
0 0 0 0 0 0 0 0 0 
0 0 0 0 0 0 0 0 0 
0 0 0 0 0 0 0 0 0 
0 0 0 0 0 0 0 0 0 
0 0 0 0 0 0 0 0 0 
0 0 0 0 0 0 0 0 0 
0 0 0 0 0 0 0 0 0 
0 0 0 0 0 0 0 0 0 
0 0 0 0 0 0 0 0 0 
0 0 0 0 0 0 0 0 0 
0 0 0 0 0 0 0 0 0 
0 0 0 0 0 0 0 0 0 
0 0 0 0 0 0 0 0 0 
0 0 0 0 0 0 0 0 0 
0 0 0 0 0 0 0 0 0 
0 0 0 0 0 0 0 0 0 
0 0 0 0 0 0 0 0 0 
0 0 0 0 0 0 0 0 0 
0 0 0 0 0 0 0 0 0 
0 0 0 0 0 0 0 0 0 
0 0 0 0 0 0 0 0 0 
0 0 0 0 0 0 0 0 0 
0 0 0 0 0 0 0 0 0 
0 0 0 0 0 0 0 0 0 
0 0 0 0 0 0 0 0 0 
0 0 0 0 0 0 0 0 0 
0 0 0 0 0 0 0 0 0 
0 0 0 0 0 0 0 0 0 
0 0 0 0 0 0 0 0 0 
0 0 0 0 0 0 0 0 0 
0 0 0 0 0 0 0 0 0 
0 0 0 0 0 0 0 0 0 
0 0 0 0 0 0 0 0 0 
0 0 
NORMALS Normals float
0.217221 0.565419 0.795686 0.0462365 0.51168 0.857931 0.00960163 0.443569 0.896189 
-0.00554127 0.467674 0.883883 0.00967663 0.51169 0.859115 -0.122471 0.522165 0.844005 
-0.228009 0.624953 0.746623 0.295195 0.557865 0.775659 0.125258 0.422085 0.897861 
0.0405636 0.282795 0.958322 0.0726032 0.173507 0.982153 0.0478743 0.193506 0.97993 
0.00771928 0.169574 0.985487 -0.0575833 0.196863 0.978738 -0.127584 0.110721 0.985628 
-0.24026 0.157164 0.957901 -0.408041 0.24043 0.880736 0.400245 0.336513 0.852387 
0.187252 0.221935 0.956913 0.0906129 0.121969 0.988389 -0.0108084 0.139785 0.990123 
-0.0386373 0.0534402 0.997823 -0.028847 -0.0327598 0.999047 -0.0127097 -0.0833256 0.996441 
-0.020302 -0.0667646 0.997562 -0.0967366 -0.023318 0.995037 -0.16837 -0.0277119 0.985334 
-0.219347 0.0793771 0.972413 -0.408323 0.158352 0.898998 0.612528 0.322511 0.721662 
0.372849 0.159651 0.914054 0.0833413 0.12737 0.988348 0.0417365 0.0348298 0.998521 
-0.044014 6.55189e-06 0.999031 -0.111068 -0.0327982 0.993271 -0.0943327 -0.0364419 0.994874 
-0.0264743 0.0603262 0.997828 0.00724629 0.0186226 0.9998 -0.0660688 -0.0176769 0.997658 
-0.159752 -0.0111154 0.987095 -0.164643 0.00473009 0.986342 -0.165178 0.10289 0.980882 
0.49282 0.083533 0.866112 0.235133 0.00946141 0.971917 0.102503 0.0386269 0.993982 
-0.0417702 -0.0185073 0.998956 -0.0802729 -0.073773 0.994039 -0.0695228 -0.083908 0.994045 
0.0736911 -0.0376339 0.996571 0.0581942 0.0456177 0.997262 -0.120175 -0.0056903 0.992736 
-0.131341 0.119302 0.984132 -0.132424 0.0514212 0.989858 -0.0906453 0.0630378 0.993886 
-0.168562 0.0636937 0.983631 -0.270746 0.0848443 0.958905 0.537717 -0.0141931 0.843006 
0.247239 0.0548041 0.967403 0.081179 -0.0456109 0.995655 -0.0693659 -0.0417811 0.996716 
-0.10847 -0.0417427 0.993223 -0.0748113 0.00160173 0.997196 -0.00789313 0.000954896 0.999968 
-0.0177847 -0.0778387 0.996807 0.156347 -0.181979 0.970793 -0.0166485 0.0106198 0.999805 
-0.226746 -0.0666633 0.97167 -0.154438 -0.0740191 0.985226 -0.142351 -0.096125 0.985138 
-0.19425 -0.032297 0.98042 0.486223 -0.0955537 0.868595 0.224548 -0.0711874 0.971859 
-0.0181966 -0.136706 0.990445 -0.0381734 -0.0741893 0.996513 -0.0358782 -0.0277999 0.998969 
-0.024366 0.0290234 0.999282 0.01605 -0.0519556 0.99852 -0.120032 -0.071893 0.990164 
-0.0375207 -0.00404173 0.999288 -0.0505426 -0.220819 0.974004 -0.199765 -0.221125 0.954567 
-0.103135 -0.216418 0.970838 -0.10738 -0.174503 0.978784 0.499258 -0.376257 0.780495 
0.263251 -0.344161 0.90125 0.096333 -0.150685 0.983877 0.0395987 -0.112406 0.992873 
-0.00630666 -0.0398685 0.999185 -0.0965404 -0.02087 0.99511 -0.113011 -0.0562387 0.992001 
0.0186837 -0.136723 0.990433 -0.00991232 0.0261471 0.999609 -0.171489 -0.065405 0.983013 
-0.218882 -0.0311795 0.975253 -0.105424 -0.0740554 0.991666 0.386683 -0.407421 0.827336 
0.218609 -0.28943 0.931902 0.0791891 -0.177219 0.98098 0.0567241 -0.0501434 0.99713 
-0.0371182 -0.00737057 0.999284 -0.111701 0.0826353 0.9903 -0.0309265 0.0849039 0.995909 
0.0136905 0.0061908 0.999887 -0.111476 0.0114846 0.993701 -0.227681 0.03894 0.972957 
-0.215381 -0.0362944 0.975855 0.276582 -0.257068 0.925969 0.161531 -0.142658 0.976502 
0.0321787 -0.0547561 0.997981 -0.0276829 0.0438571 0.998654 -0.0597067 0.0836123 0.994708 
-0.0692205 0.00240822 0.997598 -0.144069 -0.0787516 0.986429 -0.258983 -0.0878457 0.961879 
0.263317 -0.251664 0.931305 0.145909 -0.172205 0.974195 0.0331995 -0.138072 0.989866 
-0.078634 -0.113972 0.990367 -0.153437 -0.113724 0.981592 -0.203965 -0.225826 0.952576 
-0.293909 -0.262482 0.919087 0.368814 -0.498176 0.784728 0.170111 -0.403853 0.898869 
0.0478882 -0.325046 0.944485 -0.0466087 -0.30458 0.951346 -0.190245 -0.335712 0.922553 
-0.0824073 -0.598089 0.797182 0.240199 0.771266 0.589451 0.141542 0.70373 0.696226 
0.0750074 0.72207 0.687742 0.0330087 0.99394 0.104849 -0.0226835 0.766906 0.641359 
-0.0637557 0.795354 0.602783 -0.185906 0.784369 0.591781 -0.226415 0.664583 0.712086 
0.389172 0.705177 0.592681 0.359961 0.707349 0.608347 0.368176 0.697612 0.614642 
0.420537 0.801317 0.425487 -0.327784 0.584479 0.742254 -0.435194 0.388612 0.81215 
-0.481586 0.602251 0.636685 0.520068 0.697247 0.493331 0.5921 0.641361 0.487928 
0.643669 0.764392 0.037365 -0.373115 0.320312 0.870738 -0.376055 0.295436 0.878237 
-0.444315 0.535525 0.71819 0.679031 0.490543 0.546154 0.680389 0.420333 0.600325 
0.81648 0.57651 -0.0315551 -0.451762 0.175196 0.874767 -0.682223 0.540466 0.49241 
0.674494 0.36054 0.644258 -0.366165 0.245949 0.897459 -0.350198 0.191667 0.916856 
-0.448873 0.32696 0.831631 -0.616932 0.472724 0.629227 0.769642 0.126433 0.625833 
-0.268927 0.115832 0.95617 -0.412862 0.299478 0.86015 0.694704 -0.00918539 0.719237 
0.999614 0.0246656 -0.0128102 -0.225788 -0.0235176 0.973893 -0.200637 -0.162085 0.966164 
-0.329883 -0.00878351 0.943981 -0.711179 0.014771 0.702855 0.689413 -0.117427 0.714787 
0.990008 -0.134479 0.0424231 -0.190086 -0.175721 0.965914 -0.114269 -0.156217 0.981091 
-0.202 -0.178074 0.963061 -0.365532 -0.269069 0.89106 -0.780461 -0.231577 0.580734 
0.544665 -0.384353 0.745394 0.511771 -0.422883 0.747837 -0.108621 -0.0903638 0.989968 
-0.130841 -0.152405 0.979619 -0.318262 -0.328801 0.889157 -0.398604 -0.373353 0.837689 
0.403488 -0.425538 0.810009 0.738419 -0.620297 0.264516 0.39559 -0.434982 0.808888 
0.369307 -0.433309 0.822104 -0.233918 -0.0667483 0.969962 -0.275086 -0.0882619 0.95736 
-0.333488 -0.203055 0.920627 -0.412369 -0.330662 0.84889 0.619138 -0.717522 0.319108 
0.372946 -0.424836 0.824879 0.398381 -0.463183 0.791678 0.416346 -0.419805 0.806486 
-0.342222 -0.144686 0.928413 -0.363977 -0.161355 0.917325 -0.415521 -0.358817 0.835818 
0.67899 -0.701721 0.215779 0.416714 -0.417994 0.807236 0.445411 -0.454044 0.771656 
-0.27105 -0.414049 0.868962 -0.314431 -0.277635 0.907773 -0.307658 -0.299369 0.903175 
-0.45824 -0.395479 0.795998 0.407771 -0.521639 0.74941 0.387005 -0.533646 0.751963 
0.261663 -0.51149 0.818481 0.125608 -0.600029 0.790056 -0.270511 -0.417147 0.867647 
-0.243818 -0.438487 0.865033 -0.275417 -0.424332 0.862605 -0.421788 -0.559041 0.713841 
0.392394 -0.756782 0.522789 -0.0814107 -0.598234 0.797175 0.130065 -0.623168 0.771197 
-0.0824983 -0.598066 0.797189 -0.0823937 -0.598138 0.797147 -0.278719 -0.631025 0.723963 
-0.430793 -0.777123 0.4588 0.0158013 0.996971 -0.076158 0.40841 0.910537 -0.0642159 
0.33998 0.935811 -0.0931184 0.135546 0.988809 -0.062326 0.212832 0.975656 -0.0528893 
-0.0957288 0.984958 -0.14385 0.00771602 0.98384 -0.178882 -0.125484 0.978889 -0.161338 
-0.106836 0.959519 -0.260593 -0.0665503 0.967288 -0.244795 -0.180376 0.973129 -0.143126 
-0.442929 0.896233 -0.0240905 0.639436 0.766488 -0.0601496 0.442247 0.894949 -0.059021 
0.477331 0.874527 -0.0857785 0.364307 0.847778 -0.385425 0.220781 0.681451 -0.697768 
-0.139511 0.616595 -0.774821 0.0132874 0.657576 -0.753271 0.0153066 0.716371 -0.697552 
-0.58684 0.806161 0.0756543 -0.275146 0.759597 -0.589327 -0.693601 0.710403 0.119355 
0.653761 0.754241 -0.0609713 0.811886 0.580396 -0.0630975 0.633889 0.756635 -0.160276 
0.349491 0.611073 -0.710244 -0.809683 0.584707 0.0503119 -0.496321 0.595041 -0.632132 
-0.770355 0.616657 0.162136 0.816316 0.574096 -0.0635703 0.811271 0.577438 -0.0916824 
-0.719116 0.653192 0.23709 -0.548553 0.681015 -0.485085 -0.689887 0.583038 0.429095 
0.919555 0.387649 -0.0643894 -0.688517 0.55553 0.466187 0.970966 0.224581 -0.0823893 
0.997604 0.0609875 -0.032658 -0.808613 0.446626 0.382975 -0.842625 0.367736 0.393386 
-0.876355 0.46664 0.119372 0.999386 0.025508 -0.02401 0.999009 0.0266773 -0.0356358 
-0.860982 0.0780028 0.50262 0.99086 -0.132806 0.0236567 0.988996 -0.145308 0.0278102 
0.991295 -0.131653 0.0010861 -0.806598 -0.225819 0.546265 -0.787766 -0.26822 0.55451 
0.921496 -0.386835 0.0346883 -0.653592 -0.412038 0.634857 -0.541311 -0.500424 0.675691 
-0.889663 -0.455818 0.0270136 0.78163 -0.610302 0.12879 0.759906 -0.634281 0.142237 
0.793335 -0.505009 -0.339978 -0.583115 -0.480887 0.65477 -0.616365 -0.536932 0.57602 
-0.714984 -0.662046 0.224705 0.669448 -0.717338 0.193041 0.654625 -0.723356 0.219595 
-0.643995 -0.541869 0.540045 -0.61532 -0.570962 0.543492 -0.722557 -0.688777 0.0591385 
0.68114 -0.707045 0.190094 0.682476 -0.705673 0.190398 0.693735 -0.716427 0.0739149 
0.643787 -0.741808 0.187776 -0.616702 -0.583331 0.528586 -0.572301 -0.681741 0.455743 
-0.66822 -0.659243 0.344789 0.642362 -0.74356 0.185713 0.534229 -0.816699 0.218177 
-0.556621 -0.706373 0.437276 -0.474513 -0.781717 0.404667 -0.600254 -0.795406 -0.0838167 
0.483772 -0.847773 0.217361 0.399766 -0.898448 0.181599 0.182216 -0.944447 0.273529 
-0.0670039 -0.959193 0.274697 -0.243771 -0.93678 0.251035 -0.436725 -0.819558 0.370938 
-0.415535 -0.83997 0.34897 0.173058 0.626141 -0.760262 -0.0391223 0.664886 -0.74592 
-0.202856 0.564703 -0.799975 0.286935 0.639155 -0.713547 0.197467 0.632844 -0.748675 
0.203321 0.637777 -0.742901 0.138689 0.541304 -0.82931 -0.04397 0.52127 -0.852259 
-0.17778 0.535941 -0.825325 -0.199311 0.522424 -0.829065 -0.127889 0.497491 -0.85799 
0.0211137 0.520964 -0.853318 0.0390848 0.609129 -0.792107 -0.209398 0.647327 -0.732885 
0.50279 0.44361 -0.741898 0.332571 0.585992 -0.738925 0.335809 0.580613 -0.741702 
0.22766 0.476849 -0.848991 0.120212 0.374451 -0.919421 0.0975536 0.346086 -0.933117 
-0.0688797 0.323548 -0.943701 -0.180253 0.351666 -0.918607 -0.112009 0.357303 -0.927248 
0.0388276 0.411747 -0.91047 0.0195019 0.37592 -0.926447 -0.455137 0.574837 -0.680009 
-0.173106 0.407385 -0.8967 -0.467457 0.577734 -0.669109 0.522818 0.42434 -0.739322 
0.631609 0.26819 -0.727423 0.498601 0.413034 -0.762103 0.271691 0.32692 -0.905156 
0.14106 0.221481 -0.964908 0.0848224 0.219853 -0.971838 0.0866394 0.119529 -0.989043 
-0.0411108 0.122001 -0.991678 -0.159082 0.235507 -0.958764 -0.0585467 0.265545 -0.962319 
0.049729 0.28255 -0.957963 -0.00962986 0.227876 -0.973642 -0.174138 0.245891 -0.953527 
-0.499876 0.64654 -0.576289 -0.309193 0.361761 -0.879505 -0.493267 0.656577 -0.570609 
-0.559845 0.71867 -0.412415 0.647153 0.245167 -0.721863 0.623696 0.241525 -0.743417 
0.378916 0.219631 -0.898991 0.175302 0.204661 -0.963007 0.0884915 0.123129 -0.988437 
-0.00669078 0.0177008 -0.999821 -0.0656444 0.225452 -0.97204 -0.00999559 0.0849169 -0.996338 
-0.0549206 0.0570218 -0.996861 -0.0340829 0.115342 -0.992741 -0.156584 0.328371 -0.931479 
-0.222975 0.426634 -0.876508 -0.697852 0.626849 -0.3465 -0.459873 0.540705 -0.704383 
-0.820499 0.492058 -0.290966 0.663552 0.0756436 -0.744296 0.609114 0.0659745 -0.790333 
0.349696 0.0210563 -0.936627 0.209714 0.027064 -0.977388 0.00803236 -0.0640051 -0.997917 
-0.120681 0.070709 -0.99017 0.0191892 0.0305147 -0.99935 0.0666529 0.134431 -0.988679 
-0.368295 0.323101 -0.87176 -0.864712 0.400932 -0.302534 -0.790102 0.441107 -0.425634 
0.602169 0.0719015 -0.795124 0.536512 0.0697708 -0.841003 0.313002 0.013061 -0.949663 
0.189429 -0.0293795 -0.981455 -0.0731732 -0.0504399 -0.996043 -0.0118812 -0.0406386 -0.999103 
0.052093 -0.0333913 -0.998084 0.00956414 0.163552 -0.986488 -0.958553 0.133972 -0.251449 
-0.531048 0.234276 -0.814311 0.629903 -0.0508798 -0.775006 0.533695 -0.0385992 -0.844796 
0.277619 0.03621 -0.960009 0.161775 0.0144455 -0.986722 -0.100977 0.0989407 -0.989957 
0.0614207 0.185046 -0.980809 -0.957866 -0.238947 -0.159367 -0.665182 -0.215816 -0.714812 
0.706136 -0.152567 -0.691444 0.720409 -0.283448 -0.632984 0.6812 -0.139398 -0.718704 
0.33559 -0.103654 -0.936288 0.221988 0.0298817 -0.974591 -0.094468 0.0998086 -0.990512 
-0.397305 -0.175369 -0.900774 -0.878371 -0.444224 -0.176432 -0.86634 -0.466646 -0.178039 
-0.85928 -0.451012 -0.241303 0.703088 -0.400447 -0.58763 0.466668 -0.303378 -0.830772 
0.323055 -0.136835 -0.936436 -0.176399 -0.366631 -0.913491 -0.723383 -0.690344 0.0118933 
-0.714466 -0.699471 0.0167198 -0.689853 -0.611105 -0.38814 0.670301 -0.589449 -0.450829 
0.665989 -0.598096 -0.445803 0.658087 -0.570949 -0.490855 0.638389 -0.659 -0.397718 
0.43297 -0.389796 -0.812771 -0.699948 -0.694566 -0.166285 -0.704427 -0.690263 -0.165287 
-0.683084 -0.672778 -0.284194 0.647944 -0.664626 -0.372076 0.626939 -0.703982 -0.333702 
0.448017 -0.391479 -0.803757 -0.322727 -0.353351 -0.87806 -0.67736 -0.708674 -0.197393 
-0.654954 -0.726657 -0.207376 -0.63002 -0.691963 -0.352508 0.610676 -0.716703 -0.336765 
0.519099 -0.776198 -0.357846 0.44086 -0.553929 -0.706261 -0.49097 -0.848045 -0.19942 
-0.347102 -0.486883 -0.80154 -0.584875 -0.782253 -0.214477 -0.58055 -0.785128 -0.215723 
-0.577413 -0.778955 -0.244588 0.423762 -0.821839 -0.380797 0.371816 -0.830736 -0.414282 
0.329729 -0.787042 -0.521386 0.227624 -0.877689 -0.421721 0.185993 -0.665529 -0.722826 
-0.0418348 -0.927427 -0.371658 0.015552 -0.654526 -0.755879 -0.193202 -0.926918 -0.321708 
-0.150564 -0.702294 -0.695783 -0.431522 -0.869837 -0.239108 -0.377898 -0.87773 -0.294592 
-0.331044 -0.818978 -0.468705 0.0122185 0.142804 -0.989676 0.00287982 0.0252545 -0.999677 
-0.0854395 0.134468 -0.987228 0.0354405 0.131792 -0.990644 0.0794239 0.0935193 -0.992444 
-0.000634379 0.0718375 -0.997416 0.00633557 0.136957 -0.990557 0.0372134 -0.0535348 -0.997872 
-0.0790212 0.00621289 -0.996854 0.0421438 -0.0621201 -0.997178 0.0424954 -0.0621226 -0.997163 
-0.0508668 0.146313 -0.98793 -0.0346726 0.0674905 -0.997117 -0.0562074 0.15133 -0.986884 
0.00393824 0.171521 -0.985173 -0.183921 0.337579 -0.923154 0.169784 0.0291981 -0.985049 
0.0665145 0.0373539 -0.997086 -0.0212978 0.00514775 -0.99976 -0.111238 -0.00259138 -0.99379 
-0.101634 -0.0174241 -0.994669 -0.116994 0.00029546 -0.993133 0.104338 -0.0388494 -0.993783 
0.123841 -0.0296649 -0.991859 -0.0953168 0.0602183 -0.993624 0.0440385 -0.0275276 -0.99865 
-0.0371575 0.0386758 -0.998561 -0.0812208 0.120437 -0.989393 0.041965 0.145304 -0.988497 
0.0732836 0.136715 -0.987896 0.0233112 0.1541 -0.98778 -0.192909 0.33484 -0.922317 
-0.181123 0.337174 -0.923855 -0.158921 0.247029 -0.955887 0.103772 -0.0229073 -0.994337 
0.0629061 -0.0183231 -0.997851 -0.0583714 -0.0518426 -0.996948 -0.0317845 -0.0542387 -0.998022 
0.0812443 0.0318021 -0.996187 0.0670746 -0.000206624 -0.997748 0.0847597 0.0389431 -0.99564 
0.045342 -0.0128386 -0.998889 0.0588722 -0.0267034 -0.997908 0.00308239 0.171508 -0.985178 
-0.0207471 0.197467 -0.98009 0.0310801 0.161373 -0.986404 0.00588143 0.162636 -0.986669 
0.115339 0.154001 -0.981316 0.0337135 0.174618 -0.984059 -0.0562425 0.0949536 -0.993892 
-0.341569 0.242179 -0.908119 -0.143469 0.240022 -0.960107 0.0553392 0.0384209 -0.997728 
0.0435891 0.0412612 -0.998197 -0.0532878 0.0788493 -0.995461 -0.052097 0.0783411 -0.995564 
-0.0614545 0.161038 -0.985033 0.159143 0.0321826 -0.986731 -0.0169563 0.258838 -0.965772 
0.00497818 0.0432777 -0.999051 0.169132 -0.0597014 -0.983784 0.123457 0.0171783 -0.992201 
0.0516523 0.0638733 -0.99662 -0.0125937 0.15421 -0.987958 0.0787743 0.0946688 -0.992387 
-0.0198739 0.0775918 -0.996787 -0.122492 -0.00615748 -0.99245 -0.375876 -0.143748 -0.915453 
-0.268717 -0.109089 -0.957022 -0.220644 -0.0879689 -0.971379 0.188152 0.0455389 -0.981084 
0.122024 0.0655365 -0.990361 0.0332125 0.175998 -0.98383 0.016912 0.28719 -0.957724 
-0.0985473 0.140176 -0.98521 -0.11885 0.276616 -0.953603 0.0756438 0.0970178 -0.992404 
-0.0910842 0.116323 -0.989026 0.160726 0.0975815 -0.982163 0.117976 0.0197361 -0.99282 
0.0287994 0.06773 -0.997288 0.0366928 -0.00619424 -0.999307 -0.0694958 -0.0969149 -0.992863 
-0.290215 -0.128599 -0.948281 -0.174616 -0.34737 -0.921327 -0.204527 -0.110942 -0.972554 
0.312326 -0.1293 -0.941135 0.198004 -0.046432 -0.979101 0.164543 0.0902667 -0.982231 
0.0301799 0.149023 -0.988373 -0.117286 0.119216 -0.985917 -0.0842863 0.215334 -0.972896 
0.0542994 0.173883 -0.983268 0.0455136 0.11003 -0.992886 -0.0389047 0.0211522 -0.999019 
-0.084034 -0.0438695 -0.995497 -0.169891 -0.350527 -0.921015 -0.131003 -0.182515 -0.974437 
0.35149 -0.179574 -0.918808 0.353287 -0.186666 -0.916703 0.347404 -0.169348 -0.922297 
0.233512 -0.102238 -0.966964 0.0497482 -0.0474027 -0.997636 -0.0600834 -0.0118628 -0.998123 
-0.0333715 0.0775466 -0.99643 0.0389539 0.0654666 -0.997094 -0.0368827 -0.00478049 -0.999308 
-0.123054 -0.0618071 -0.990473 -0.314963 -0.34406 -0.884546 -0.179217 -0.157506 -0.97112 
-0.325726 -0.29882 -0.897 -0.325342 -0.300267 -0.896656 -0.322221 -0.295017 -0.899521 
0.331603 -0.305488 -0.89259 0.328946 -0.362155 -0.872146 0.298094 -0.288089 -0.910025 
0.117458 -0.192681 -0.974206 0.00688133 -0.139315 -0.990224 -0.00657594 -0.0839417 -0.996449 
-0.0296762 -0.0947863 -0.995055 -0.0788146 -0.192021 -0.978221 -0.314783 -0.346335 -0.883722 
-0.251439 -0.336022 -0.907672 -0.183134 -0.229281 -0.955977 0.258547 -0.467162 -0.845525 
0.20745 -0.501049 -0.840187 0.186867 -0.437976 -0.879351 0.0698613 -0.416507 -0.906444 
0.038749 -0.332824 -0.942192 0.0134501 -0.419493 -0.907659 0.0111718 -0.292003 -0.956352 
-0.0892956 -0.419042 -0.903565 -0.0729344 -0.306034 -0.949223 -0.192228 -0.399682 -0.896272 
-0.156943 -0.417876 -0.894846 -0.155076 -0.390059 -0.907637 
