# vtk DataFile Version 4.2
vtk output
ASCII
DATASET POLYDATA
POINTS 558 float
-14.8054 -43.4281 -14.7212 -6.99727 -43.4281 -14.857 0.810809 -43.4281 -15.0307 
8.61889 -43.4281 -14.8736 16.427 -43.4281 -14.9232 -30.4215 -35.62 -15.4837 
-22.6134 -35.62 -17.2077 -14.8054 -35.62 -17.3663 -6.99727 -35.62 -17.5478 
0.810809 -35.62 -17.4286 8.61889 -35.62 -17.2145 16.427 -35.62 -17.4361 
24.2351 -35.62 -16.1559 -38.2296 -27.8119 -15.4912 -30.4215 -27.8119 -17.3008 
-22.6134 -27.8119 -18.5253 -14.8054 -27.8119 -18.5067 -6.99727 -27.8119 -18.2017 
0.810809 -27.8119 -17.6635 8.61889 -27.8119 -17.4253 16.427 -27.8119 -18.3618 
24.2351 -27.8119 -17.4613 32.0431 -27.8119 -16.8787 -38.2296 -20.0038 -16.4653 
-30.4215 -20.0038 -18.0096 -22.6134 -20.0038 -18.325 -14.8054 -20.0038 -18.1601 
-6.99727 -20.0038 -17.8523 0.810809 -20.0038 -16.8428 8.61889 -20.0038 -16.4789 
16.427 -20.0038 -17.4873 24.2351 -20.0038 -17.6069 32.0431 -20.0038 -17.3921 
39.8512 -20.0038 -15.7255 -46.0377 -12.1958 -14.5019 -38.2296 -12.1958 -17.3161 
-30.4215 -12.1958 -18.6425 -22.6134 -12.1958 -17.7009 -14.8054 -12.1958 -17.0028 
-6.99727 -12.1958 -18.0784 0.810809 -12.1958 -18.8285 8.61889 -12.1958 -18.0986 
16.427 -12.1958 -16.559 24.2351 -12.1958 -17.3597 32.0431 -12.1958 -18.086 
39.8512 -12.1958 -17.2588 -46.0377 -4.38767 -15.3199 -38.2296 -4.38767 -17.3876 
-30.4215 -4.38767 -18.0466 -22.6134 -4.38767 -17.3451 -14.8054 -4.38767 -16.8532 
-6.99727 -4.38767 -19.5954 0.810809 -4.38767 -18.3693 8.61889 -4.38767 -21.878 
16.427 -4.38767 -16.288 24.2351 -4.38767 -16.8605 32.0431 -4.38767 -18.1938 
39.8512 -4.38767 -17.8024 47.6593 -4.38767 -15.4975 -46.0377 3.42041 -14.7209 
-38.2296 3.42041 -17.4964 -30.4215 3.42041 -18.1326 -22.6134 3.42041 -17.399 
-14.8054 3.42041 -17.428 -6.99727 3.42041 -20.9806 0.810809 3.42041 -15.6622 
8.61889 3.42041 -19.3709 16.427 3.42041 -16.976 24.2351 3.42041 -17.6214 
32.0431 3.42041 -18.3568 39.8512 3.42041 -17.8427 47.6593 3.42041 -15.9664 
-46.0377 11.2285 -15.2633 -38.2296 11.2285 -17.3831 -30.4215 11.2285 -18.2113 
-22.6134 11.2285 -17.5575 -14.8054 11.2285 -16.049 -6.99727 11.2285 -17.2802 
0.810809 11.2285 -18.0505 8.61889 11.2285 -17.0886 16.427 11.2285 -17.4029 
24.2351 11.2285 -18.6109 32.0431 11.2285 -18.9729 39.8512 11.2285 -18.3699 
47.6593 11.2285 -15.7706 -38.2296 19.0366 -17.8456 -30.4215 19.0366 -18.5689 
-22.6134 19.0366 -17.972 -14.8054 19.0366 -16.7255 -6.99727 19.0366 -15.6478 
0.810809 19.0366 -15.4044 8.61889 19.0366 -15.8579 16.427 19.0366 -17.2745 
24.2351 19.0366 -18.4564 32.0431 19.0366 -18.8168 39.8512 19.0366 -17.9211 
-38.2296 26.8447 -16.1259 -30.4215 26.8447 -18.1178 -22.6134 26.8447 -18.1248 
-14.8054 26.8447 -17.3294 -6.99727 26.8447 -16.12 0.810809 26.8447 -15.6532 
8.61889 26.8447 -15.8192 16.427 26.8447 -16.9306 24.2351 26.8447 -17.249 
32.0431 26.8447 -17.1473 39.8512 26.8447 -15.9629 -30.4215 34.6527 -15.6871 
-22.6134 34.6527 -17.2445 -14.8054 34.6527 -16.1388 -6.99727 34.6527 -15.5683 
0.810809 34.6527 -15.1028 8.61889 34.6527 -15.6653 16.427 34.6527 -15.4087 
24.2351 34.6527 -14.7657 -14.8054 -43.7094 -14.4892 -6.99727 -43.9302 -14.4892 
0.810809 -44.1956 -14.4892 8.61889 -43.9734 -14.4892 16.427 -43.9949 -14.4892 
-30.4215 -37.1342 -14.4892 -30.4215 -43.4281 -7.31349 -15.7449 -43.4281 -14.4892 
-22.6134 -40.2323 -14.4892 -22.6134 -43.4281 -11.7633 17.7875 -43.4281 -14.4892 
24.2351 -38.8857 -14.4892 24.2351 -43.4281 -10.6738 -32.3653 -35.62 -14.4892 
-38.2296 -29.803 -14.4892 -38.2296 -35.62 -9.67696 30.1742 -35.62 -14.4892 
32.0431 -34.2127 -14.4892 32.0431 -35.62 -13.6537 -39.7359 -27.8119 -14.4892 
-46.0377 -27.8119 -7.31205 37.9276 -27.8119 -14.4892 39.8512 -24.8179 -14.4892 
39.8512 -27.8119 -13.2702 -42.399 -20.0038 -14.4892 -46.0377 -12.2574 -14.4892 
-46.0377 -20.0038 -12.2197 42.1791 -20.0038 -14.4892 47.6593 -20.0038 -9.72562 
-46.0538 -12.1958 -14.4892 46.3113 -12.1958 -14.4892 47.6593 -9.52979 -14.4892 
47.6593 -12.1958 -13.7005 -47.1138 -4.38767 -14.4892 49.0751 -4.38767 -14.4892 
-46.3476 3.42041 -14.4892 49.8015 3.42041 -14.4892 55.4674 3.42041 -7.50596 
-47.0567 11.2285 -14.4892 -46.0377 15.5281 -14.4892 49.441 11.2285 -14.4892 
47.6593 18.7261 -14.4892 -44.685 19.0366 -14.4892 -46.0377 19.0366 -13.5049 
47.5274 19.0366 -14.4892 47.6593 19.0366 -14.4064 -40.9284 26.8447 -14.4892 
-46.0377 26.8447 -9.57975 -38.2296 30.956 -14.4892 32.0431 34.6064 -14.4892 
42.444 26.8447 -14.4892 39.8512 29.6253 -14.4892 47.6593 26.8447 -9.29463 
-33.9387 34.6527 -14.4892 -38.2296 34.6527 -12.2686 -30.4215 36.7716 -14.4892 
-22.6134 39.8119 -14.4892 -14.8054 40.2994 -14.4892 -6.99727 37.9404 -14.4892 
0.810809 36.7006 -14.4892 8.61889 39.1797 -14.4892 16.427 37.3093 -14.4892 
31.5725 34.6527 -14.4892 24.2351 35.1918 -14.4892 32.0431 34.6527 -14.4669 
39.8512 34.6527 -9.55355 -30.4215 42.4608 -9.31854 -22.6134 42.4608 -12.5768 
-14.8054 42.4608 -13.6622 -6.99727 42.4608 -12.7963 0.810809 42.4608 -12.533 
8.61889 42.4608 -13.1841 16.427 42.4608 -12.1704 24.2351 42.4608 -9.75813 
-30.4215 -43.8437 -6.68112 -22.6134 -46.8839 -6.68112 -14.8054 -48.8896 -6.68112 
-6.99727 -50.3013 -6.68112 0.810809 -50.9114 -6.68112 8.61889 -50.6189 -6.68112 
16.427 -49.2443 -6.68112 24.2351 -45.9419 -6.68112 -31.1196 -43.4281 -6.68112 
-38.2296 -38.2347 -6.68112 28.3417 -43.4281 -6.68112 32.0431 -40.8267 -6.68112 
-40.8729 -35.62 -6.68112 -46.0377 -28.5442 -6.68112 37.9725 -35.62 -6.68112 
39.8512 -33.6871 -6.68112 -46.4973 -27.8119 -6.68112 44.7032 -27.8119 -6.68112 
47.6593 -23.3105 -6.68112 -50.047 -20.0038 -6.68112 49.6584 -20.0038 -6.68112 
-52.1062 -12.1958 -6.68112 53.104 -12.1958 -6.68112 -52.7762 -4.38767 -6.68112 
55.2402 -4.38767 -6.68112 55.4674 -2.04062 -6.68112 55.4674 -4.38767 -1.36516 
-53.0276 3.42041 -6.68112 -53.8458 3.42041 -0.944141 55.9404 3.42041 -6.68112 
55.4674 8.88317 -6.68112 -52.8435 11.2285 -6.68112 -53.8458 11.2285 0.473263 
55.2459 11.2285 -6.68112 55.4674 11.2285 -2.20295 -50.8733 19.0366 -6.68112 
53.569 19.0366 -6.68112 -48.0214 26.8447 -6.68112 -46.0377 30.4001 -6.68112 
49.4468 26.8447 -6.68112 47.6593 29.1787 -6.68112 -43.1374 34.6527 -6.68112 
-38.2296 39.4576 -6.68112 32.0431 41.6062 -6.68112 42.2495 34.6527 -6.68112 
39.8512 36.6536 -6.68112 -33.6736 42.4608 -6.68112 -30.4215 44.2324 -6.68112 
-22.6134 46.9095 -6.68112 -14.8054 48.3729 -6.68112 -6.99727 49.0506 -6.68112 
0.810809 48.9991 -6.68112 8.61889 48.4359 -6.68112 16.427 47.2938 -6.68112 
30.1768 42.4608 -6.68112 24.2351 45.0647 -6.68112 -6.99727 50.2689 -1.46215 
0.810809 50.2689 -1.98777 8.61889 50.2689 0.946141 -30.4215 -44.6666 1.12696 
-22.6134 -47.7313 1.12696 -14.8054 -49.4835 1.12696 -6.99727 -50.5742 1.12696 
0.810809 -50.9719 1.12696 8.61889 -50.2884 1.12696 16.427 -48.5612 1.12696 
24.2351 -45.2919 1.12696 -32.6037 -43.4281 1.12696 -38.2296 -39.5091 1.12696 
-30.4215 -43.4281 4.32292 27.2878 -43.4281 1.12696 24.2351 -43.4281 5.43975 
32.0431 -40.1231 1.12696 -42.1982 -35.62 1.12696 -46.0377 -30.2842 1.12696 
-38.2296 -35.62 8.13286 37.295 -35.62 1.12696 39.8512 -33.0058 1.12696 
-47.5158 -27.8119 1.12696 -46.0377 -27.8119 4.37214 44.1368 -27.8119 1.12696 
47.6593 -22.7322 1.12696 -50.8898 -20.0038 1.12696 49.3655 -20.0038 1.12696 
47.6593 -20.0038 5.45216 -52.8511 -12.1958 1.12696 52.9916 -12.1958 1.12696 
55.4674 -4.69046 1.12696 -53.7631 -4.38767 1.12696 -53.8458 -2.56694 1.12696 
55.562 -4.38767 1.12696 55.4674 -4.38767 1.45455 -54.1153 3.42041 1.12696 
-53.8458 3.42041 2.16899 56.2428 3.42041 1.12696 55.4674 3.42041 3.64996 
-53.9249 11.2285 1.12696 -53.8458 11.5568 1.12696 -53.8458 11.2285 1.4797 
55.6205 11.2285 1.12696 55.4674 11.896 1.12696 55.4674 11.2285 1.58898 
-51.9448 19.0366 1.12696 53.6376 19.0366 1.12696 -48.752 26.8447 1.12696 
-46.0377 31.1981 1.12696 49.3444 26.8447 1.12696 47.6593 28.9928 1.12696 
47.6593 26.8447 4.47013 -43.3705 34.6527 1.12696 -38.2296 39.5882 1.12696 
32.0431 42.0811 1.12696 42.28 34.6527 1.12696 39.8512 36.777 1.12696 
39.8512 34.6527 4.74947 -33.9458 42.4608 1.12696 -30.4215 44.4991 1.12696 
-30.4215 42.4608 6.22679 -22.6134 47.5934 1.12696 -14.8054 49.5537 1.12696 
16.427 48.7501 1.12696 31.3498 42.4608 1.12696 24.2351 45.958 1.12696 
24.2351 42.4608 7.3756 -10.1964 50.2689 1.12696 -6.99727 50.7568 1.12696 
-6.99727 50.2689 2.49269 0.810809 50.9308 1.12696 0.810809 50.2689 2.91424 
8.80076 50.2689 1.12696 8.61889 50.3031 1.12696 8.61889 50.2689 1.21127 
-22.6134 -44.8091 8.93504 -14.8054 -46.509 8.93504 -6.99727 -47.3832 8.93504 
0.810809 -47.4496 8.93504 8.61889 -46.5084 8.93504 16.427 -45.0567 8.93504 
-25.9071 -43.4281 8.93504 -30.4215 -40.861 8.93504 -22.6134 -43.4281 10.596 
-14.8054 -43.4281 12.411 -6.99727 -43.4281 13.314 0.810809 -43.4281 13.0777 
8.61889 -43.4281 12.198 20.4894 -43.4281 8.93504 16.427 -43.4281 10.905 
24.2351 -41.6765 8.93504 32.0431 -36.4234 8.93504 -37.5235 -35.62 8.93504 
-38.2296 -34.8741 8.93504 -30.4215 -35.62 13.5662 -22.6134 -35.62 15.745 
24.2351 -35.62 14.9684 33.0106 -35.62 8.93504 32.0431 -35.62 9.92921 
39.8512 -28.7524 8.93504 -43.167 -27.8119 8.93504 -46.0377 -23.2647 8.93504 
-38.2296 -27.8119 13.082 -30.4215 -27.8119 15.6953 40.6292 -27.8119 8.93504 
39.8512 -27.8119 9.90973 -47.53 -20.0038 8.93504 -46.0377 -20.0038 10.5397 
-38.2296 -20.0038 14.5141 -30.4215 -20.0038 16.1887 46.125 -20.0038 8.93504 
39.8512 -20.0038 15.9508 47.6593 -17.3788 8.93504 -49.1709 -12.1958 8.93504 
-46.0377 -12.1958 12.135 -38.2296 -12.1958 15.7872 -30.4215 -12.1958 16.6267 
-22.6134 -12.1958 16.282 -14.8054 -12.1958 15.8895 50.2966 -12.1958 8.93504 
47.6593 -12.1958 12.6031 -50.725 -4.38767 8.93504 -46.0377 -4.38767 13.3638 
-38.2296 -4.38767 16.5051 -22.6134 -4.38767 16.021 -14.8054 -4.38767 14.5181 
0.810809 -4.38767 15.5091 53.0104 -4.38767 8.93504 47.6593 -4.38767 15.6615 
-51.7216 3.42041 8.93504 -46.0377 3.42041 14.665 -14.8054 3.42041 15.9567 
53.5854 3.42041 8.93504 47.6593 3.42041 15.6098 -51.7833 11.2285 8.93504 
-46.0377 11.2285 15.086 -14.8054 11.2285 16.7303 -6.99727 11.2285 14.9394 
[...]
POINT_DATA 558
SCALARS ImageScalars float
LOOKUP_TABLE default
0 0 0 0 0 0 0 0 0 
0 0 0 0 0 0 0 0 0 
0 0 0 0 0 0 0 0 0 
0 0 0 0 0 0 0 0 0 
0 0 0 0 0 0 0 0 0 
0 0 0 0 0 0 0 0 0 
0 0 0 0 0 0 0 0 0 
0 0 0 0 0 0 0 0 0 
0 0 0 0 0 0 0 0 0 
0 0 0 0 0 0 0 0 0 
0 0 0 0 0 0 0 0 0 
0 0 0 0 0 0 0 0 0 
0 0 0 0 0 0 0 0 0 
0 0 0 0 0 0 0 0 0 
0 0 0 0 0 0 0 0 0 
0 0 0 0 0 0 0 0 0 
0 0 0 0 0 0 0 0 0 
0 0 0 0 0 0 0 0 0 
0 0 0 0 0 0 0 0 0 
0 0 0 0 0 0 0 0 0 
0 0 0 0 0 0 0 0 0 
0 0 0 0 0 0 0 0 0 
0 0 0 0 0 0 0 0 0 
0 0 0 0 0 0 0 0 0 
0 0 0 0 0 0 0 0 0 
0 0 0 0 0 0 0 0 0 
0 0 0 0 0 0 0 0 0 
0 0 0 0 0 0 0 0 0 
0 0 0 0 0 0 0 0 0 
0 0 0 0 0 0 0 0 0 
0 0 0 0 0 0 0 0 0 
0 0 0 0 0 0 0 0 0 
0 0 0 0 0 0 0 0 0 
0 0 0 0 0 0 0 0 0 
0 0 0 0 0 0 0 0 0 
0 0 0 0 0 0 0 0 0 
0 0 0 0 0 0 0 0 0 
0 0 0 0 0 0 0 0 0 
0 0 0 0 0 0 0 0 0 
0 0 0 0 0 0 0 0 0 
0 0 0 0 0 0 0 0 0 
0 0 0 0 0 0 0 0 0 
0 0 0 0 0 0 0 0 0 
0 0 0 0 0 0 0 0 0 
0 0 0 0 0 0 0 0 0 
0 0 0 0 0 0 0 0 0 
0 0 0 0 0 0 0 0 0 
0 0 0 0 0 0 0 0 0 
0 0 0 0 0 0 0 0 0 
0 0 0 0 0 0 0 0 0 
0 0 0 0 0 0 0 0 0 
0 0 0 0 0 0 0 0 0 
0 0 0 0 0 0 0 0 0 
0 0 0 0 0 0 0 0 0 
0 0 0 0 0 0 0 0 0 
0 0 0 0 0 0 0 0 0 
0 0 0 0 0 0 0 0 0 
0 0 0 0 0 0 0 0 0 
0 0 0 0 0 0 0 0 0 
0 0 0 0 0 0 0 0 0 
0 0 0 0 0 0 0 0 0 
0 0 0 0 0 0 0 0 0 

NORMALS Normals float
0.127708 0.568295 0.812854 0.0191373 0.508681 0.860743 0.00103323 0.473618 0.88073 
-0.00592933 0.466943 0.884268 -0.154174 0.55701 0.81607 0.325354 0.423346 0.845531 
0.121225 0.345285 0.930636 0.0200734 0.236652 0.971387 0.00380344 0.195551 0.980686 
-0.0210618 0.151093 0.988295 0.00240055 0.144454 0.989509 -0.0556668 0.20896 0.976339 
-0.233365 0.323063 0.917154 0.425898 0.280166 0.860301 0.1896 0.155957 0.969396 
0.0837045 0.0612216 0.994608 -0.0206546 0.0478012 0.998643 -0.0539127 0.0178219 0.998387 
-0.0496393 -0.0362691 0.998108 0.0431985 -0.0472929 0.997947 0.00374637 0.00982812 0.999945 
-0.0901097 0.0833688 0.992436 -0.229253 0.212431 0.949903 0.31435 0.122123 0.941419 
0.109479 0.0889741 0.989999 0.00902503 -0.0492011 0.998748 -0.0301077 -0.0957438 0.994951 
-0.0840405 -0.0089754 0.996422 -0.0917413 0.0342634 0.995193 0.0419625 0.00428226 0.99911 
0.0737856 -0.116576 0.990437 -0.00578998 -0.00671626 0.999961 -0.109368 0.0730957 0.99131 
-0.337366 0.213787 0.916777 0.561789 0.148928 0.813765 0.250653 0.0515753 0.966702 
0.0328269 0.00112421 0.99946 -0.10681 -0.0647543 0.992169 0.0233898 -0.0833672 0.996244 
0.105766 0.112278 0.988032 0.019441 0.128312 0.991543 -0.164021 0.283039 0.944979 
-0.010711 -0.0756004 0.997081 0.0963686 -0.0450532 0.994326 -0.000983636 0.0512493 0.998685 
-0.257279 0.12844 0.957763 0.503488 0.0169165 0.863837 0.172233 0.0115769 0.984988 
-0.00372112 -0.0317115 0.99949 -0.0732236 -0.0175519 0.997161 0.14544 0.0233248 0.989092 
0.114178 0.169873 0.978829 0.0507475 -0.202708 0.977923 -0.19219 0.00155573 0.981357 
-0.163268 0.0294576 0.986142 0.118773 0.0170943 0.992774 0.0521057 0.0175329 0.998488 
-0.165686 0.0325465 0.985641 -0.492359 0.122326 0.861754 0.512392 -0.00393063 0.858743 
0.195611 -0.000264881 0.980681 -0.0074201 0.0105491 0.999917 -0.0453896 0.0126832 0.998889 
0.195629 -0.0524989 0.979272 -0.0673504 -0.0826669 0.994299 -0.0500642 -0.00559437 0.99873 
0.0258923 -0.231411 0.972511 -0.106851 0.0659814 0.992083 0.0885066 0.104957 0.99053 
0.0160137 0.0501745 0.998612 -0.155812 0.0393588 0.987002 -0.440374 0.0178039 0.897638 
0.503669 -0.0550594 0.86214 0.185562 0.0188623 0.982451 0.0135138 0.0274292 0.999532 
-0.134695 0.0380251 0.990157 -0.038867 -0.0389541 0.998485 0.129004 -0.341927 0.93083 
-0.0297408 -0.0691642 0.997162 -0.0255584 -0.223678 0.974328 0.0915435 0.0194399 0.995611 
0.103 0.0546442 0.993179 -0.0193816 0.0296851 0.999371 -0.197943 0.0062936 0.980193 
-0.505423 -0.0900671 0.858158 0.283979 -0.0701191 0.956263 0.00227887 -0.0093131 0.999954 
-0.108382 0.0335618 0.993543 -0.154279 0.0763402 0.985074 -0.0779124 -0.0383207 0.996223 
0.013018 -0.106971 0.994177 0.114256 -0.0750806 0.99061 0.167206 -0.0301763 0.98546 
0.0934778 -0.0843918 0.992038 -0.0282141 -0.118296 0.992577 -0.261592 -0.156934 0.952335 
0.39197 -0.27537 0.877799 0.108586 -0.160129 0.981105 -0.0450247 -0.0410593 0.998142 
-0.132028 -0.041388 0.990382 -0.0974411 -0.00469549 0.99523 -0.019236 -0.0187557 0.999639 
0.0799566 -0.0131221 0.996712 0.0919977 -0.121838 0.988277 0.0135288 -0.219284 0.975567 
-0.0821612 -0.273809 0.958268 -0.33227 -0.34891 0.876275 0.244263 -0.415373 0.876243 
0.0195446 -0.300676 0.953526 -0.0971657 -0.202426 0.974465 -0.0636937 -0.186112 0.980462 
0.00955848 -0.175488 0.984435 0.0184384 -0.14569 0.989158 -0.0541722 -0.269376 0.96151 
-0.0618631 -0.386452 0.920232 0.130078 0.583629 0.801534 0.0230579 0.535884 0.843977 
0.00229553 0.515316 0.856997 -0.00814792 0.497341 0.867517 -0.158076 0.587876 0.793356 
0.340385 0.495474 0.799152 0.431292 0.8256 0.36383 0.146123 0.581256 0.800493 
0.217623 0.536696 0.815228 0.294337 0.723442 0.624498 -0.19288 0.575519 0.794717 
-0.308628 0.447978 0.839085 -0.439124 0.740772 0.508357 0.379191 0.469028 0.797638 
0.465976 0.351939 0.811791 0.601751 0.627463 0.494151 -0.373368 0.456048 0.807847 
-0.383361 0.448355 0.807473 -0.439011 0.525268 0.728947 0.493584 0.3016 0.815728 
0.80427 0.459576 0.376748 -0.454973 0.350549 0.818606 -0.459048 0.3203 0.828663 
-0.563707 0.428814 0.705941 0.454644 0.208761 0.865862 0.56204 0.149944 0.813405 
0.648242 0.295507 0.701754 -0.443657 0.259465 0.857815 -0.787145 0.438673 0.433553 
0.562585 0.148928 0.813215 -0.494928 0.224689 0.839381 -0.529873 0.196483 0.825002 
-0.570197 0.24839 0.783056 0.564068 0.0194991 0.825498 -0.564775 0.125661 0.815622 
0.527613 -0.00369038 0.849477 -0.553471 0.017209 0.83269 -0.936452 0.00188377 0.35079 
0.561849 -0.0562555 0.825325 0.557795 -0.151877 0.815965 -0.591088 -0.096604 0.800802 
-0.546862 -0.269355 0.79271 0.543444 -0.20885 0.81305 0.62191 -0.240686 0.745183 
-0.543124 -0.275126 0.793298 -0.550712 -0.277934 0.787063 0.510025 -0.298928 0.806546 
0.790356 -0.395716 0.467704 0.439347 -0.382629 0.812754 -0.185665 -0.49379 0.849529 
-0.457285 -0.396349 0.796114 -0.397436 -0.465315 0.790902 -0.745266 -0.522741 0.413909 
0.331952 -0.465032 0.820703 0.508504 -0.55317 0.659869 0.266739 -0.499373 0.824304 
0.109856 -0.516562 0.849174 -0.0346641 -0.425835 0.904137 -0.0666661 -0.299945 0.951624 
0.018979 -0.243526 0.969709 0.00456094 -0.349703 0.936849 -0.0959957 -0.325375 0.9407 
-0.179035 -0.48918 0.853609 -0.0733652 -0.403433 0.912063 -0.18694 -0.495815 0.848069 
-0.552601 -0.718582 0.422222 0.391614 -0.803253 0.448801 0.174019 -0.676489 0.715598 
-0.00222328 -0.544731 0.838608 -0.0587628 -0.507259 0.859788 0.0157899 -0.494391 0.869096 
-0.0151925 -0.530858 0.847324 -0.165133 -0.539245 0.8258 -0.311706 -0.742155 0.593334 
0.434333 0.83726 0.332191 0.299486 0.893502 0.334608 0.200993 0.928946 0.310904 
0.125588 0.946988 0.295706 0.0182491 0.958409 0.284813 -0.0982572 0.963108 0.250537 
-0.286454 0.929131 0.233795 -0.453622 0.864948 0.214692 0.449969 0.829106 0.331831 
0.623097 0.706043 0.336532 -0.532052 0.819479 0.213014 -0.597609 0.773979 0.209332 
0.685287 0.646598 0.3351 0.807555 0.479825 0.342961 -0.67822 0.702535 0.215549 
-0.707932 0.671971 0.217456 0.815013 0.464775 0.346032 -0.787318 0.574555 0.223645 
-0.831674 0.500831 0.239763 0.891883 0.306319 0.332736 -0.861292 0.447441 0.240775 
0.919441 0.16979 0.354683 -0.909289 0.315892 0.270936 0.934518 0.0544253 0.351729 
-0.939054 0.160739 0.303875 -0.946205 0.112916 0.303227 -0.981839 0.189443 0.0101888 
0.932848 0.00438027 0.360244 0.999076 0.00936728 0.041936 -0.952388 0.00039298 0.304889 
-0.951271 -0.0927887 0.294064 0.928093 -0.125274 0.350641 0.990749 -0.134073 -0.0209781 
-0.947454 -0.132609 0.291111 -0.988256 -0.146757 0.0425665 0.904192 -0.271058 0.330097 
-0.903333 -0.33072 0.273154 0.857299 -0.409303 0.312264 0.817906 -0.493402 0.295946 
-0.801261 -0.537719 0.262371 -0.765205 -0.589714 0.258262 0.730788 -0.623998 0.276722 
0.597593 -0.752309 0.277333 -0.442077 -0.833829 0.330601 -0.636317 -0.727433 0.25679 
-0.580743 -0.768452 0.268736 0.479772 -0.829686 0.285377 0.402638 -0.869469 0.286191 
0.237172 -0.906878 0.348311 0.122707 -0.905942 0.40523 0.0384186 -0.881921 0.46983 
-0.0335043 -0.861817 0.506111 -0.10387 -0.862009 0.496136 -0.195696 -0.894075 0.402905 
-0.42152 -0.837004 0.348921 -0.334201 -0.858406 0.389165 0.0761367 -0.993745 0.0816956 
-0.0307327 -0.99084 0.131501 -0.132736 -0.986585 -0.0950304 0.438756 0.89034 -0.121601 
0.292193 0.9495 -0.114337 0.174122 0.976368 -0.128008 0.0957231 0.981886 -0.163512 
-0.01745 0.984 -0.177311 -0.150014 0.963559 -0.221474 -0.29609 0.924901 -0.238513 
-0.452693 0.864834 -0.217095 0.488201 0.863825 -0.124366 0.638542 0.75893 -0.127627 
0.451855 0.841353 -0.296568 -0.508556 0.83423 -0.213145 -0.437896 0.818105 -0.372763 
-0.596409 0.776203 -0.204466 0.73654 0.663466 -0.131614 0.845102 0.517492 -0.13418 
0.594091 0.583445 -0.553759 -0.675218 0.711365 -0.195037 -0.721277 0.66539 -0.192393 
0.875273 0.463762 -0.137195 0.822699 0.469355 -0.320738 -0.781135 0.594174 -0.191794 
-0.832223 0.52365 -0.182197 0.941193 0.308952 -0.136762 -0.857492 0.482304 -0.179137 
-0.812117 0.483026 -0.327341 0.973882 0.180649 -0.137547 -0.918727 0.361514 -0.158896 
-0.971007 0.203391 -0.125607 0.992378 0.078752 -0.0947878 0.994229 0.0626223 -0.0871051 
-0.972645 0.196755 -0.123486 -0.970721 0.197526 -0.136693 0.997925 0.00985351 -0.0636248 
0.993393 0.0154606 -0.113719 -0.991748 0.0045571 -0.128121 -0.971906 -0.00224541 -0.235357 
0.989568 -0.134246 -0.0522825 0.988595 -0.141141 -0.0525241 0.988656 -0.133837 -0.0681629 
-0.978686 -0.15194 -0.138159 -0.975253 -0.169267 -0.142234 -0.97517 -0.153872 -0.15927 
0.951933 -0.301865 -0.0519784 -0.913625 -0.365598 -0.177841 0.883285 -0.460522 -0.0878998 
0.814159 -0.569256 -0.11442 -0.802846 -0.558672 -0.208145 -0.771276 -0.598853 -0.215657 
-0.734516 -0.570326 -0.367715 0.734075 -0.664649 -0.139198 0.613483 -0.775029 -0.151556 
-0.499667 -0.843787 -0.195848 -0.659064 -0.719202 -0.219962 -0.610298 -0.766474 -0.200134 
-0.608635 -0.67757 -0.412871 0.511775 -0.844807 -0.156165 0.440989 -0.884941 -0.149693 
0.432611 -0.812755 -0.390228 0.29874 -0.945576 -0.128996 0.194531 -0.975763 -0.100223 
-0.271932 -0.949381 -0.157252 -0.491089 -0.849406 -0.193237 -0.389597 -0.903255 -0.179848 
-0.321546 -0.738992 -0.59203 0.129731 -0.987559 -0.088862 0.0862106 -0.992834 -0.0827562 
0.0841889 -0.983187 -0.162033 -0.028547 -0.99643 -0.0794533 -0.0351325 -0.981022 -0.190687 
-0.135594 -0.984936 -0.10731 -0.132525 -0.985452 -0.106402 -0.133252 -0.984757 -0.11179 
0.274958 0.801039 -0.531728 0.147646 0.821271 -0.551102 0.0532717 0.824632 -0.563155 
-0.0464868 0.806262 -0.589729 -0.132244 0.782802 -0.608056 -0.247474 0.789848 -0.561157 
0.346473 0.76388 -0.544467 0.449052 0.673725 -0.586895 0.272163 0.74287 -0.611614 
0.133646 0.685416 -0.715782 0.033352 0.653938 -0.755813 -0.0567853 0.634487 -0.770845 
-0.105494 0.667858 -0.736775 -0.331507 0.776476 -0.5359 -0.226145 0.738856 -0.634783 
-0.401807 0.755223 -0.51787 -0.545803 0.698131 -0.46337 0.567528 0.559302 -0.604229 
0.574015 0.546632 -0.609673 0.38974 0.44515 -0.806191 0.170171 0.334287 -0.926981 
-0.287832 0.566864 -0.771892 -0.56034 0.688468 -0.460469 -0.533604 0.683833 -0.497634 
-0.68631 0.571804 -0.449466 0.65207 0.423812 -0.62864 0.71767 0.343184 -0.60595 
0.470414 0.318439 -0.822987 0.231911 0.140081 -0.962598 -0.695895 0.560489 -0.448979 
-0.678642 0.553036 -0.483318 0.753254 0.278329 -0.595938 0.676258 0.276628 -0.682753 
0.32427 0.144442 -0.934872 0.146418 0.0538844 -0.987754 -0.754539 0.467546 -0.460512 
-0.547667 0.368955 -0.750955 -0.779107 0.432269 -0.454021 0.753099 0.185582 -0.63119 
0.608391 0.157699 -0.777812 0.238732 0.133515 -0.961863 0.0269663 0.0623905 -0.997687 
-0.0449089 -0.0575157 -0.997334 0.0590319 -0.189524 -0.9801 -0.817414 0.357378 -0.451791 
-0.727785 0.338447 -0.596475 0.803337 0.135179 -0.57998 0.563786 0.132261 -0.815262 
0.201612 0.110445 -0.973219 -0.173569 0.0706314 -0.982286 0.0892998 0.00898002 -0.995964 
-0.00775013 0.0476753 -0.998833 -0.865239 0.18601 -0.465577 -0.628195 0.122796 -0.768305 
0.861474 0.0559891 -0.504705 0.54947 0.0945968 -0.830141 0.0597492 0.144255 -0.987735 
-0.870021 -0.0216502 -0.49254 -0.59038 -0.0731926 -0.8038 0.87987 -0.105397 -0.463379 
0.575793 -0.00340898 -0.817588 -0.228508 0.0919829 -0.969187 0.0520077 -0.139195 -0.988898 
-0.817719 -0.192545 -0.542459 -0.595175 -0.21193 -0.775146 0.855691 -0.295983 -0.424483 
0.657907 -0.233649 -0.715938 -0.0992176 0.113371 -0.988586 0.0342271 -0.0901074 -0.995344 
0.079958 -0.165918 -0.982893 -0.302806 -0.31698 -0.898795 -0.72965 -0.384746 -0.565314 
-0.663977 -0.46457 -0.585926 -0.630356 -0.380595 -0.676609 0.754222 -0.487719 -0.439636 
0.746561 -0.497991 -0.441194 0.742353 -0.488616 -0.458439 0.392649 -0.393971 -0.831032 
-0.0829232 -0.000989839 -0.996555 -0.0474629 -0.0202176 -0.998668 -0.00641425 -0.103945 -0.994562 
-0.0215747 -0.177314 -0.983918 -0.0742582 -0.273316 -0.959054 -0.191646 -0.359994 -0.913059 
-0.565869 -0.540386 -0.622715 -0.519898 -0.550443 -0.653237 -0.434465 -0.499645 -0.749396 
0.590161 -0.64401 -0.486786 0.558518 -0.668446 -0.491159 0.538238 -0.628385 -0.561634 
0.406239 -0.739804 -0.536339 0.286473 -0.510581 -0.810704 0.0800608 -0.349483 -0.933516 
-0.0356747 -0.259293 -0.96514 -0.0496821 -0.212149 -0.975974 -0.0654969 -0.205542 -0.976454 
-0.0823563 -0.191898 -0.977953 -0.129543 -0.328099 -0.935719 -0.276404 -0.649458 -0.708383 
-0.183018 -0.436681 -0.880803 -0.452237 -0.587091 -0.671421 -0.365638 -0.638026 -0.677666 
-0.331393 -0.566845 -0.754232 0.363215 -0.765783 -0.530709 0.264348 -0.797934 -0.541684 
0.237326 -0.716965 -0.655468 0.146508 -0.793197 -0.591079 0.0805463 -0.615394 -0.784093 
0.0467637 -0.770146 -0.636151 -0.00785434 -0.528922 -0.848634 -0.0664841 -0.743123 -0.665844 
-0.0458531 -0.520992 -0.852329 -0.176707 -0.69613 -0.695828 -0.138259 -0.552602 -0.821897 
-0.248624 -0.665521 -0.703753 -0.21755 -0.671822 -0.708045 -0.215221 -0.620954 -0.753721 
0.0957247 0.296902 -0.950098 0.0195037 0.334421 -0.942222 -0.0369538 0.314667 -0.948483 
-0.0112497 0.33042 -0.943767 -0.0900807 0.425681 -0.900378 0.098685 0.293382 -0.950888 
0.148931 0.145726 -0.978051 0.0951358 0.29149 -0.951831 0.0182457 0.280886 -0.959568 
-0.035156 0.284849 -0.957927 -0.0109947 0.329476 -0.9441 -0.106797 0.430683 -0.896162 
-0.0862843 0.415174 -0.905641 -0.21089 0.466001 -0.859284 -0.395709 0.440968 -0.805581 
0.166315 0.0848613 -0.982414 0.143353 0.0696263 -0.987219 0.088792 0.0398033 -0.995255 
0.0230271 0.0409307 -0.998897 -0.00715121 0.0388272 -0.99922 0.0345238 0.103767 -0.994002 
0.0462491 0.18085 -0.982423 -0.112617 0.337681 -0.934499 -0.405482 0.433798 -0.804614 
-0.38961 0.427318 -0.815845 0.0969117 -0.0289339 -0.994872 0.0445927 -0.0557463 -0.997449 
0.081125 -0.0556583 -0.995149 0.0657621 -0.161175 -0.984732 0.070798 -0.137195 -0.988011 
0.0192605 -0.0855107 -0.996151 0.0271803 -0.0988949 -0.994727 0.138678 -0.0487142 -0.989139 
0.151341 0.051993 -0.987113 0.00307103 0.0937036 -0.995595 -0.496375 0.337721 -0.799722 
-0.279539 0.219185 -0.934781 -0.50231 0.319907 -0.803333 0.0132637 0.0721957 -0.997302 
0.0603894 -0.0715576 -0.995607 0.0599678 0.00262292 -0.998197 0.0218391 -0.124258 -0.99201 
0.0262808 -0.139601 -0.989859 0.188874 -0.0558629 -0.980411 0.195918 -0.0551424 -0.979069 
0.0501474 -0.0195961 -0.99855 -0.139903 0.0605365 -0.988313 -0.50466 0.24477 -0.827893 
-0.390565 0.197517 -0.899136 0.112395 0.106732 -0.987915 0.198717 0.108878 -0.97399 
-0.0790892 0.0918493 -0.992627 -0.0275383 0.101896 -0.994414 -0.158662 0.118516 -0.980194 
0.104605 0.0587118 -0.992779 0.0205557 0.0835451 -0.996292 0.0805462 0.0971386 -0.992006 
0.12096 0.0938049 -0.988215 0.0147692 0.123272 -0.992263 0.216258 0.107765 -0.970371 
0.18445 -0.0967955 -0.978064 0.116361 -0.0763759 -0.990266 -0.053714 -0.0204591 -0.998347 
-0.54042 0.100051 -0.835426 -0.296467 0.0511281 -0.953673 0.291067 0.107784 -0.950612 
0.192122 0.111532 -0.975013 -0.014575 0.131044 -0.991269 -0.0502844 0.1532 -0.986915 
-0.143585 0.155188 -0.977395 0.0927814 0.0404886 -0.994863 0.107527 -0.197782 -0.974331 
0.15829 -0.196206 -0.967702 0.0705508 0.204071 -0.976411 -0.015274 0.105761 -0.994274 
0.014737 -0.0979635 -0.995081 0.125943 -0.127518 -0.983808 -0.0162496 -0.100542 -0.9948 
-0.487195 -0.083948 -0.869249 -0.257476 -0.102589 -0.960823 0.3863 0.0328799 -0.921787 
0.221006 0.0436713 -0.974294 0.0102302 0.0980857 -0.995125 -0.22797 0.0920393 -0.969308 
-0.146371 0.0949906 -0.984658 -0.227649 0.0911579 -0.969467 0.204807 -0.165953 -0.964631 
0.138698 -0.125545 -0.982345 0.287417 -0.188006 -0.939173 0.0713899 -0.169832 -0.982884 
-0.0695408 -0.213879 -0.974382 -0.0173403 -0.0718831 -0.997262 0.120429 -0.139596 -0.982858 
-0.0323345 -0.178417 -0.983424 -0.379884 -0.208438 -0.901244 -0.289459 -0.261512 -0.920774 
-0.282022 -0.204223 -0.93742 0.45155 -0.174131 -0.875089 0.34786 -0.31335 -0.883632 
0.274986 -0.123472 -0.953487 0.0425724 -0.0829202 -0.995646 -0.149143 -0.000636327 -0.988815 
-0.143659 0.0791548 -0.986457 -0.184132 0.0470176 -0.981776 0.0712515 -0.140991 -0.987444 
0.0250189 -0.121462 -0.992281 0.054649 -0.0867307 -0.994732 -0.0270665 -0.212628 -0.976758 
0.00344909 -0.178333 -0.983964 -0.154585 -0.29174 -0.943923 -0.107428 -0.295109 -0.949405 
-0.0937546 -0.282356 -0.954717 0.285695 -0.347834 -0.892967 0.187872 -0.357345 -0.914882 
0.136825 -0.283175 -0.949258 0.0710427 -0.333064 -0.940224 -0.0235608 -0.152862 -0.987967 
-0.0831322 -0.00154224 -0.996537 -0.0630988 -0.188755 -0.979995 -0.109248 -0.0671893 -0.991741 

