# vtk DataFile Version 4.2
vtk output
ASCII
DATASET POLYDATA
POINTS 546 float
-17.9527 -42.4579 -12.4706 -9.51842 -42.4579 -12.1308 -43.2557 -34.0236 -12.3492 
-34.8214 -34.0236 -14.4617 -26.387 -34.0236 -14.8213 -17.9527 -34.0236 -16.0077 
-9.51842 -34.0236 -15.5961 -1.0841 -34.0236 -14.1362 7.35021 -34.0236 -12.4033 
15.7845 -34.0236 -12.3213 24.2188 -34.0236 -13.1886 32.6532 -34.0236 -13.7759 
41.0875 -34.0236 -13.8456 49.5218 -34.0236 -12.5655 -51.69 -25.5893 -13.5972 
-43.2557 -25.5893 -16.0863 -34.8214 -25.5893 -16.2675 -26.387 -25.5893 -16.2848 
-17.9527 -25.5893 -16.5138 -9.51842 -25.5893 -16.5017 -1.0841 -25.5893 -15.4444 
7.35021 -25.5893 -14.3689 15.7845 -25.5893 -15.261 24.2188 -25.5893 -16.5657 
32.6532 -25.5893 -17.4192 41.0875 -25.5893 -17.4688 49.5218 -25.5893 -16.5134 
57.9561 -25.5893 -14.1688 -60.1243 -17.155 -13.8838 -51.69 -17.155 -17.3351 
-43.2557 -17.155 -17.4308 -34.8214 -17.155 -17.2553 -26.387 -17.155 -17.2275 
-17.9527 -17.155 -16.5367 -9.51842 -17.155 -16.692 -1.0841 -17.155 -15.7958 
7.35021 -17.155 -15.8301 15.7845 -17.155 -16.8467 24.2188 -17.155 -18.1063 
32.6532 -17.155 -19.2335 41.0875 -17.155 -19.2274 49.5218 -17.155 -18.4069 
57.9561 -17.155 -16.1205 -60.1243 -8.72066 -13.4615 -51.69 -8.72066 -17.1473 
-43.2557 -8.72066 -18.573 -34.8214 -8.72066 -18.0188 -26.387 -8.72066 -17.2017 
-17.9527 -8.72066 -16.8646 -9.51842 -8.72066 -18.4535 -1.0841 -8.72066 -16.4323 
7.35021 -8.72066 -18.3708 15.7845 -8.72066 -16.5757 24.2188 -8.72066 -18.2072 
32.6532 -8.72066 -19.019 41.0875 -8.72066 -19.5433 49.5218 -8.72066 -19.1138 
57.9561 -8.72066 -17.8246 66.3904 -8.72066 -13.4796 -60.1243 -0.286344 -13.879 
-51.69 -0.286344 -16.971 -43.2557 -0.286344 -19.0057 -34.8214 -0.286344 -18.3417 
-26.387 -0.286344 -17.4927 -17.9527 -0.286344 -17.6829 -9.51842 -0.286344 -19.9392 
-1.0841 -0.286344 -14.449 7.35021 -0.286344 -18.6383 15.7845 -0.286344 -15.5066 
24.2188 -0.286344 -17.2575 32.6532 -0.286344 -18.7553 41.0875 -0.286344 -19.2365 
49.5218 -0.286344 -18.5831 57.9561 -0.286344 -16.7452 66.3904 -0.286344 -12.0059 
-60.1243 8.14797 -12.7134 -51.69 8.14797 -17.1404 -43.2557 8.14797 -18.9867 
-34.8214 8.14797 -19.0769 -26.387 8.14797 -18.3437 -17.9527 8.14797 -17.4414 
-9.51842 8.14797 -17.8118 -1.0841 8.14797 -19.6905 7.35021 8.14797 -18.9587 
15.7845 8.14797 -16.819 24.2188 8.14797 -17.8996 32.6532 8.14797 -18.7753 
41.0875 8.14797 -18.7646 49.5218 8.14797 -17.4171 57.9561 8.14797 -14.8866 
-60.1243 16.5823 -12.8192 -51.69 16.5823 -16.3952 -43.2557 16.5823 -18.8891 
-34.8214 16.5823 -19.4592 -26.387 16.5823 -19.0104 -17.9527 16.5823 -18.0905 
-9.51842 16.5823 -17.3232 -1.0841 16.5823 -17.6087 7.35021 16.5823 -17.0823 
15.7845 16.5823 -18.0806 24.2188 16.5823 -18.9905 32.6532 16.5823 -18.9969 
41.0875 16.5823 -18.3552 49.5218 16.5823 -15.6531 -51.69 25.0166 -15.1365 
-43.2557 25.0166 -17.6249 -34.8214 25.0166 -18.815 -26.387 25.0166 -19.3237 
-17.9527 25.0166 -18.5835 -9.51842 25.0166 -18.56 -1.0841 25.0166 -18.5502 
7.35021 25.0166 -18.0512 15.7845 25.0166 -18.812 24.2188 25.0166 -19.9677 
32.6532 25.0166 -18.456 41.0875 25.0166 -16.9065 -43.2557 33.4509 -15.1859 
-34.8214 33.4509 -17.019 -26.387 33.4509 -18.5195 -17.9527 33.4509 -18.2839 
-9.51842 33.4509 -19.3751 -1.0841 33.4509 -18.9004 7.35021 33.4509 -18.9982 
15.7845 33.4509 -18.504 24.2188 33.4509 -18.3019 32.6532 33.4509 -17.0874 
41.0875 33.4509 -12.8363 -34.8214 41.8852 -11.9883 -26.387 41.8852 -14.887 
-17.9527 41.8852 -16.2104 -9.51842 41.8852 -17.7476 -1.0841 41.8852 -17.369 
7.35021 41.8852 -17.1503 15.7845 41.8852 -16.2294 24.2188 41.8852 -15.3905 
32.6532 41.8852 -12.3214 -9.51842 50.3195 -12.6823 -1.0841 50.3195 -12.6074 
-17.9527 -43.2809 -11.9443 -9.51842 -42.7239 -11.9443 -43.2557 -34.9367 -11.9443 
-43.2557 -42.4579 -8.04479 -34.8214 -42.0017 -11.9443 -34.8214 -42.4579 -11.6653 
-22.5728 -42.4579 -11.9443 -26.387 -41.3625 -11.9443 -26.387 -42.4579 -11.4483 
-8.70917 -42.4579 -11.9443 -1.0841 -38.8769 -11.9443 -1.0841 -42.4579 -9.64502 
7.35021 -34.9208 -11.9443 7.35021 -42.4579 -6.92101 15.7845 -34.7258 -11.9443 
15.7845 -42.4579 -6.42052 24.2188 -35.918 -11.9443 24.2188 -42.4579 -6.12943 
32.6532 -36.8295 -11.9443 32.6532 -42.4579 -4.98045 41.0875 -36.0513 -11.9443 
49.5218 -34.7522 -11.9443 -49.1124 -34.0236 -11.9443 -51.69 -33.2219 -11.9443 
-51.69 -34.0236 -11.6721 50.8053 -34.0236 -11.9443 57.9561 -29.0504 -11.9443 
57.9561 -34.0236 -5.26276 -58.7763 -25.5893 -11.9443 -60.1243 -24.6243 -11.9443 
-60.1243 -25.5893 -11.4712 61.213 -25.5893 -11.9443 66.3904 -25.5893 -4.71585 
-62.7474 -17.155 -11.9443 65.2337 -17.155 -11.9443 66.3904 -14.8273 -11.9443 
66.3904 -17.155 -11.0111 -62.2806 -8.72066 -11.9443 -68.5586 -8.72066 -3.5336 
68.2409 -8.72066 -11.9443 -62.9812 -0.286344 -11.9443 66.4599 -0.286344 -11.9443 
66.3904 -0.057693 -11.9443 -61.081 8.14797 -11.9443 62.4855 8.14797 -11.9443 
57.9561 16.2124 -11.9443 66.3904 8.14797 -8.01644 -61.0618 16.5823 -11.9443 
-60.1243 19.0768 -11.9443 57.7106 16.5823 -11.9443 49.5218 24.671 -11.9443 
57.9561 16.5823 -11.7399 -56.3224 25.0166 -11.9443 -60.1243 25.0166 -5.07504 
-51.69 32.2155 -11.9443 49.2652 25.0166 -11.9443 49.5218 25.0166 -11.6821 
-50.4462 33.4509 -11.9443 -51.69 33.4509 -10.7617 -43.2557 37.9722 -11.9443 
42.2088 33.4509 -11.9443 41.0875 34.6288 -11.9443 -34.9504 41.8852 -11.9443 
-43.2557 41.8852 -5.2062 -34.8214 41.9315 -11.9443 -26.387 46.3626 -11.9443 
-17.9527 49.1305 -11.9443 7.35021 49.2797 -11.9443 15.7845 47.5686 -11.9443 
24.2188 45.8903 -11.9443 33.1488 41.8852 -11.9443 32.6532 42.1964 -11.9443 
-26.387 50.3195 -4.76873 -13.6785 50.3195 -11.9443 -17.9527 50.3195 -10.7221 
-9.51842 51.1376 -11.9443 2.747 50.3195 -11.9443 -1.0841 50.9979 -11.9443 
7.35021 50.3195 -10.5265 15.7845 50.3195 -7.05568 -43.2557 -45.9368 -3.51003 
-34.8214 -48.2546 -3.51003 -26.387 -50.0402 -3.51003 -17.9527 -50.1479 -3.51003 
-9.51842 -49.4163 -3.51003 -1.0841 -47.2943 -3.51003 7.35021 -45.2153 -3.51003 
15.7845 -44.5467 -3.51003 24.2188 -44.2165 -3.51003 32.6532 -43.2079 -3.51003 
-49.0914 -42.4579 -3.51003 -51.69 -40.3974 -3.51003 38.2799 -42.4579 -3.51003 
41.0875 -42.0543 -3.51003 41.0875 -42.4579 2.84506 49.5218 -40.0383 -3.51003 
57.9561 -34.9989 -3.51003 -58.9955 -34.0236 -3.51003 -60.1243 -32.9106 -3.51003 
59.2329 -34.0236 -3.51003 66.3904 -26.5298 -3.51003 -64.9825 -25.5893 -3.51003 
67.1536 -25.5893 -3.51003 66.3904 -25.5893 2.43524 -68.039 -17.155 -3.51003 
-68.5586 -8.89485 -3.51003 71.1435 -17.155 -3.51003 -68.5688 -8.72066 -3.51003 
-68.5586 -6.82925 -3.51003 -68.5586 -8.72066 -3.47639 73.0239 -8.72066 -3.51003 
-68.5233 -0.286344 -3.51003 71.7525 -0.286344 -3.51003 -66.5665 8.14797 -3.51003 
69.2625 8.14797 -3.51003 66.3904 12.5472 -3.51003 -64.6363 16.5823 -3.51003 
63.6119 16.5823 -3.51003 57.9561 22.9272 -3.51003 -60.6064 25.0166 -3.51003 
-60.1243 25.7962 -3.51003 -60.1243 25.0166 -2.02683 56.0174 25.0166 -3.51003 
49.5218 31.2157 -3.51003 -54.763 33.4509 -3.51003 -51.69 36.4159 -3.51003 
-51.69 33.4509 4.20214 47.0441 33.4509 -3.51003 41.0875 38.8409 -3.51003 
-44.1007 41.8852 -3.51003 -43.2557 42.4324 -3.51003 -43.2557 41.8852 -1.44883 
-34.8214 46.7529 -3.51003 24.2188 48.847 -3.51003 37.2233 41.8852 -3.51003 
32.6532 45.0098 -3.51003 -27.3997 50.3195 -3.51003 -26.387 50.7878 -3.51003 
-26.387 50.3195 -0.0471202 -17.9527 54.0947 -3.51003 -9.51842 55.9909 -3.51003 
-1.0841 55.3464 -3.51003 7.35021 53.5348 -3.51003 19.8218 50.3195 -3.51003 
15.7845 51.7056 -3.51003 15.7845 50.3195 3.90223 -43.2557 -46.2516 4.92429 
-34.8214 -49.5271 4.92429 -26.387 -50.5193 4.92429 -17.9527 -50.2606 4.92429 
-9.51842 -49.4737 4.92429 -1.0841 -47.7917 4.92429 7.35021 -46.8138 4.92429 
15.7845 -46.1787 4.92429 24.2188 -45.6002 4.92429 32.6532 -44.4055 4.92429 
41.0875 -42.5796 4.92429 -50.0784 -42.4579 4.92429 -51.69 -41.1432 4.92429 
-43.2557 -42.4579 11.324 -34.8214 -42.4579 12.963 -1.0841 -42.4579 12.675 
7.35021 -42.4579 12.4623 15.7845 -42.4579 11.9255 24.2188 -42.4579 10.7012 
32.6532 -42.4579 8.64925 41.5044 -42.4579 4.92429 41.0875 -42.4579 5.18499 
49.5218 -39.4022 4.92429 57.9561 -34.7892 4.92429 -58.2701 -34.0236 4.92429 
-60.1243 -31.7827 4.92429 -51.69 -34.0236 11.8403 49.5218 -34.0236 13.3325 
58.8768 -34.0236 4.92429 57.9561 -34.0236 6.13055 -63.5103 -25.5893 4.92429 
-60.1243 -25.5893 9.37491 -51.69 -25.5893 13.0745 65.9559 -25.5893 4.92429 
66.3904 -25.0427 4.92429 -64.5504 -17.155 4.92429 -60.1243 -17.155 9.44481 
70.1765 -17.155 4.92429 66.3904 -17.155 9.82524 -64.6401 -8.72066 4.92429 
-60.1243 -8.72066 9.16602 -51.69 -8.72066 13.2405 71.8735 -8.72066 4.92429 
66.3904 -8.72066 12.2668 -64.5553 -0.286344 4.92429 -60.1243 -0.286344 8.98482 
-51.69 -0.286344 12.8585 71.3785 -0.286344 4.92429 66.3904 -0.286344 11.9528 
-62.0099 8.14797 4.92429 -60.1243 8.14797 6.79726 -51.69 8.14797 12.1345 
68.9624 8.14797 4.92429 66.3904 12.2338 4.92429 66.3904 8.14797 8.73997 
-61.3512 16.5823 4.92429 -60.1243 19.4601 4.92429 -60.1243 16.5823 6.21161 
-51.69 16.5823 11.1244 63.3323 16.5823 4.92429 57.9561 22.2016 4.92429 
57.9561 16.5823 10.5846 -56.7254 25.0166 4.92429 -51.69 32.8559 4.92429 
-51.69 25.0166 9.39877 54.6105 25.0166 4.92429 49.5218 29.1426 4.92429 
49.5218 25.0166 9.68368 -51.1409 33.4509 4.92429 -43.2557 39.1795 4.92429 
-43.2557 33.4509 10.2491 32.6532 33.4509 11.981 43.7062 33.4509 4.92429 
41.0875 35.5163 4.92429 41.0875 33.4509 7.15262 -39.1594 41.8852 4.92429 
-34.8214 44.0766 4.92429 -34.8214 41.8852 7.7159 -26.387 49.409 4.92429 
-26.387 41.8852 11.8082 15.7845 50.0914 4.92429 24.2188 46.4813 4.92429 
24.2188 41.8852 9.84135 33.5025 41.8852 4.92429 32.6532 42.4808 4.92429 
32.6532 41.8852 5.64153 -24.7286 50.3195 4.92429 -17.9527 53.1088 4.92429 
-17.9527 50.3195 9.00777 -9.51842 54.8153 4.92429 -9.51842 50.3195 11.3277 
-1.0841 54.4737 4.92429 -1.0841 50.3195 11.4407 15.0738 50.3195 4.92429 
7.35021 52.4556 4.92429 7.35021 50.3195 8.55046 -26.387 -43.8437 13.3586 
-17.9527 -44.1435 13.3586 -9.51842 -42.7484 13.3586 -43.2557 -39.1732 13.3586 
[...]
POINT_DATA 546
SCALARS ImageScalars float
LOOKUP_TABLE default
0 0 0 0 0 0 0 0 0 
0 0 0 0 0 0 0 0 0 
0 0 0 0 0 0 0 0 0 
0 0 0 0 0 0 0 0 0 
0 0 0 0 0 0 0 0 0 
0 0 0 0 0 0 0 0 0 
0 0 0 0 0 0 0 0 0 
0 0 0 0 0 0 0 0 0 
0 0 0 0 0 0 0 0 0 
0 0 0 0 0 0 0 0 0 
0 0 0 0 0 0 0 0 0 
0 0 0 0 0 0 0 0 0 
0 0 0 0 0 0 0 0 0 
0 0 0 0 0 0 0 0 0 
0 0 0 0 0 0 0 0 0 
0 0 0 0 0 0 0 0 0 
0 0 0 0 0 0 0 0 0 
0 0 0 0 0 0 0 0 0 
0 0 0 0 0 0 0 0 0 
0 0 0 0 0 0 0 0 0 
0 0 0 0 0 0 0 0 0 
0 0 0 0 0 0 0 0 0 
0 0 0 0 0 0 0 0 0 
0 0 0 0 0 0 0 0 0 
0 0 0 0 0 0 0 0 0 
0 0 0 0 0 0 0 0 0 
0 0 0 0 0 0 0 0 0 
0 0 0 0 0 0 0 0 0 
0 0 0 0 0 0 0 0 0 
0 0 0 0 0 0 0 0 0 
0 0 0 0 0 0 0 0 0 
0 0 0 0 0 0 0 0 0 
0 0 0 0 0 0 0 0 0 
0 0 0 0 0 0 0 0 0 
0 0 0 0 0 0 0 0 0 
0 0 0 0 0 0 0 0 0 
0 0 0 0 0 0 0 0 0 
0 0 0 0 0 0 0 0 0 
0 0 0 0 0 0 0 0 0 
0 0 0 0 0 0 0 0 0 
0 0 0 0 0 0 0 0 0 
0 0 0 0 0 0 0 0 0 
0 0 0 0 0 0 0 0 0 
0 0 0 0 0 0 0 0 0 
0 0 0 0 0 0 0 0 0 
0 0 0 0 0 0 0 0 0 
0 0 0 0 0 0 0 0 0 
0 0 0 0 0 0 0 0 0 
0 0 0 0 0 0 0 0 0 
0 0 0 0 0 0 0 0 0 
0 0 0 0 0 0 0 0 0 
0 0 0 0 0 0 0 0 0 
0 0 0 0 0 0 0 0 0 
0 0 0 0 0 0 0 0 0 
0 0 0 0 0 0 0 0 0 
0 0 0 0 0 0 0 0 0 
0 0 0 0 0 0 0 0 0 
0 0 0 0 0 0 0 0 0 
0 0 0 0 0 0 0 0 0 
0 0 0 0 0 0 0 0 0 
0 0 0 0 0 0 
NORMALS Normals float
-0.0314809 -0.495628 -0.867964 0.125601 -0.537937 -0.833576 -0.168086 -0.441409 -0.881422 
-0.124475 -0.263479 -0.956601 -0.0868214 -0.248832 -0.964647 -0.0423359 -0.23022 -0.972217 
0.107129 -0.239564 -0.964952 0.181078 -0.281017 -0.942465 0.107707 -0.354198 -0.928947 
-0.0413338 -0.425086 -0.904209 -0.0801316 -0.482982 -0.871956 -0.0333205 -0.501959 -0.864249 
0.0702886 -0.590054 -0.804298 0.273867 -0.613226 -0.740912 -0.288023 -0.30198 -0.908763 
-0.13014 -0.249882 -0.959491 -0.0132278 -0.175164 -0.98445 -0.0144005 -0.1359 -0.990618 
-0.0128642 -0.0290058 -0.999496 0.0619255 -0.0658004 -0.995909 0.128173 -0.0979568 -0.986902 
0.0125527 -0.189214 -0.981856 -0.128174 -0.252642 -0.959032 -0.124691 -0.266868 -0.955633 
-0.0505513 -0.303951 -0.951345 0.0564598 -0.284288 -0.957075 0.188341 -0.319429 -0.928705 
0.418733 -0.387053 -0.821494 -0.497186 -0.110449 -0.860585 -0.228221 -0.179055 -0.957003 
0.00581644 -0.156077 -0.987728 0.0116985 -0.101004 -0.994817 0.0430615 -0.0547577 -0.997571 
0.0307542 -0.0203276 -0.99932 0.0434471 -0.104208 -0.993606 0.05119 -0.0573182 -0.997043 
-0.0624775 -0.237466 -0.969385 -0.132275 -0.0737624 -0.988465 -0.140872 -0.091983 -0.985746 
-0.0652675 -0.0911735 -0.993694 0.0451157 -0.109927 -0.992915 0.168171 -0.155547 -0.973408 
0.398914 -0.208814 -0.892896 -0.52667 0.00669976 -0.850044 -0.244187 0.0179877 -0.969561 
-0.066907 -0.0926417 -0.993449 0.0800302 -0.0640112 -0.994735 0.0677732 -0.0157237 -0.997577 
-0.0679513 -0.0667661 -0.995452 0.0260324 -0.192475 -0.980956 -0.00538961 0.0543936 -0.998505 
-0.0096549 -0.160707 -0.986955 0.0163143 0.0802679 -0.99664 -0.146192 0.0515548 -0.987912 
-0.0749381 0.0284845 -0.996781 -0.00644623 -0.00182051 -0.999978 0.0926543 -0.00986248 -0.99565 
0.322386 -0.0317362 -0.946076 0.591797 -0.0344444 -0.805351 -0.460034 0.0372671 -0.887119 
-0.264412 0.00111473 -0.964409 -0.0752329 -0.0230696 -0.996899 0.0880531 -0.0623036 -0.994165 
0.0401349 -0.0675583 -0.996908 -0.139652 -0.0359663 -0.989547 0.138744 0.0421306 -0.989432 
0.0986665 -0.207307 -0.973288 -0.00364596 -0.0362246 -0.999337 0.0477527 -0.0165584 -0.998722 
-0.193819 0.0135045 -0.980944 -0.115709 0.014305 -0.99318 0.00907036 0.0461124 -0.998895 
0.131868 0.097798 -0.986431 0.36465 0.14222 -0.92022 0.62591 0.201928 -0.753301 
-0.625436 0.0541028 -0.778397 -0.298855 0.0340338 -0.953692 -0.124114 0.00646969 -0.992247 
0.0383309 -0.066202 -0.99707 0.0970048 -0.0899972 -0.991207 0.033612 -0.0259384 -0.999098 
-0.133811 0.14669 -0.98009 -0.070349 -0.11855 -0.990453 0.184288 0.106164 -0.977122 
0.0449861 -0.1514 -0.987448 -0.117171 -0.104005 -0.987651 -0.0514581 -0.0143178 -0.998573 
0.0762202 0.050037 -0.995835 0.202583 0.170729 -0.964267 0.439904 0.279769 -0.853354 
-0.668855 0.164019 -0.725072 -0.327955 0.101177 -0.93926 -0.192454 0.0780749 -0.978195 
-0.00529023 0.0191615 -0.999802 0.0804467 -0.0575473 -0.995096 0.0994389 -0.0673807 -0.99276 
0.0284578 -0.0431866 -0.998662 0.0143393 0.0608069 -0.998047 -0.0277314 0.037859 -0.998898 
-0.113177 -0.117519 -0.9866 -0.0536432 -0.119469 -0.991388 0.0349662 0.01864 -0.999215 
0.191583 0.108295 -0.975484 0.351118 0.27143 -0.896126 -0.454497 0.284059 -0.844241 
-0.191628 0.18034 -0.964757 -0.0912184 0.129124 -0.987424 0.0111357 0.0242315 -0.999644 
0.0446245 -0.0117939 -0.998934 0.00200342 -0.121811 -0.992551 0.0300188 -0.0763971 -0.996625 
-0.015812 -0.113803 -0.993378 -0.110966 -0.0252564 -0.993503 0.0200186 0.0474641 -0.998672 
0.17697 0.101877 -0.978929 0.326493 0.251732 -0.911062 -0.315783 0.447785 -0.836522 
-0.162938 0.339619 -0.926343 -0.0668992 0.245214 -0.967158 -0.0507675 0.128438 -0.990417 
-0.0362141 0.0398514 -0.998549 0.0214691 0.0678629 -0.997464 0.022559 0.038952 -0.998986 
0.0418001 0.138059 -0.989542 0.0718112 0.242953 -0.967376 0.278959 0.287067 -0.916392 
0.541179 0.544299 -0.640987 -0.310952 0.673792 -0.670309 -0.197128 0.482588 -0.853376 
-0.16151 0.343352 -0.925216 -0.0587512 0.33883 -0.939011 0.0309364 0.315903 -0.948287 
0.0624357 0.348039 -0.935399 0.100713 0.429846 -0.897268 0.17096 0.543647 -0.821718 
0.454997 0.706673 -0.54184 -0.0655909 0.658536 -0.749685 0.0693589 0.695921 -0.714761 
-0.0309655 -0.526858 -0.849389 0.127573 -0.548611 -0.826288 -0.191079 -0.44346 -0.87569 
-0.396609 -0.630751 -0.666974 -0.145156 -0.563711 -0.813117 -0.147824 -0.588899 -0.794573 
-0.0379542 -0.497455 -0.866659 -0.0439868 -0.466192 -0.883589 -0.0481706 -0.516417 -0.854981 
0.135753 -0.543292 -0.828496 0.213526 -0.453674 -0.865209 0.237328 -0.654174 -0.718145 
0.112878 -0.385716 -0.915687 0.14545 -0.758885 -0.634774 -0.0358029 -0.445171 -0.894729 
0.034447 -0.796213 -0.604035 -0.0679437 -0.536719 -0.841021 0.046875 -0.843838 -0.534546 
0.00196258 -0.593243 -0.805021 0.1118 -0.914873 -0.387953 0.0942469 -0.663068 -0.742603 
0.277789 -0.646977 -0.710108 -0.298498 -0.469701 -0.83083 -0.34953 -0.460587 -0.815897 
-0.36295 -0.487945 -0.793837 0.307778 -0.63813 -0.705736 0.489119 -0.517894 -0.701818 
0.561721 -0.769931 -0.302779 -0.454134 -0.413367 -0.789234 -0.488204 -0.398471 -0.776452 
-0.500681 -0.443392 -0.743453 0.547275 -0.441463 -0.711056 0.7871 -0.563208 -0.251537 
-0.612745 -0.129202 -0.779647 0.599332 -0.274438 -0.751988 0.626998 -0.223544 -0.746258 
0.662404 -0.299863 -0.686515 -0.632837 -0.00115808 -0.774284 -0.997489 -0.0266427 -0.0656136 
0.674891 -0.0360899 -0.737034 -0.623724 0.0537898 -0.779792 0.628642 0.202466 -0.750878 
0.627616 0.206767 -0.750563 -0.67657 0.0676819 -0.733261 0.574091 0.323777 -0.752056 
0.560407 0.415512 -0.716446 0.753847 0.425602 -0.500577 -0.723723 0.173561 -0.667909 
-0.703386 0.24746 -0.666342 0.558538 0.419014 -0.715865 0.574123 0.452148 -0.682602 
0.569494 0.427235 -0.702244 -0.620557 0.404936 -0.671518 -0.862064 0.496738 -0.100485 
-0.5459 0.538539 -0.641848 0.577351 0.453324 -0.67909 0.588079 0.465968 -0.661088 
-0.526127 0.560868 -0.639232 -0.585814 0.603906 -0.54048 -0.395942 0.639385 -0.659103 
0.567298 0.569735 -0.594622 0.563973 0.583689 -0.584159 -0.313338 0.675585 -0.667387 
-0.509242 0.850663 -0.130552 -0.31221 0.67533 -0.668172 -0.278147 0.660403 -0.697497 
-0.195075 0.683556 -0.703346 0.149079 0.753762 -0.640014 0.157385 0.737704 -0.656524 
0.250231 0.773046 -0.58291 0.471914 0.713005 -0.518576 0.460538 0.719959 -0.519196 
-0.39494 0.901524 -0.176854 -0.134309 0.697844 -0.703545 -0.222521 0.770487 -0.597356 
-0.0715126 0.686339 -0.723757 0.111735 0.745694 -0.656853 0.0803115 0.722189 -0.687018 
0.169561 0.833902 -0.525221 0.245503 0.927129 -0.283124 -0.382668 -0.872437 -0.304005 
-0.245924 -0.887911 -0.388761 -0.0910297 -0.944152 -0.316686 0.0354795 -0.964017 -0.263462 
0.158605 -0.949391 -0.271112 0.235157 -0.913455 -0.332116 0.157896 -0.882266 -0.443481 
0.0572181 -0.893239 -0.445926 0.078343 -0.912871 -0.40066 0.122279 -0.942167 -0.312039 
-0.503919 -0.78515 -0.360008 -0.559816 -0.758479 -0.333642 0.154608 -0.942257 -0.297065 
0.17234 -0.941465 -0.289727 0.241187 -0.966827 0.0841054 0.368698 -0.902481 -0.222686 
0.566658 -0.793949 -0.220326 -0.705114 -0.654537 -0.272754 -0.731206 -0.628916 -0.264203 
0.59728 -0.772235 -0.216585 0.791228 -0.578535 -0.198131 -0.878116 -0.447392 -0.169566 
0.805717 -0.561232 -0.189313 0.777194 -0.594802 0.205377 -0.969225 -0.212494 -0.124299 
-0.997389 -0.0300272 -0.0656779 0.932721 -0.294583 -0.207971 -0.997578 -0.0264041 -0.0643473 
-0.998326 0.00519669 -0.0576017 -0.997723 -0.0263732 -0.0620829 0.983011 -0.0331206 -0.180531 
-0.992858 0.114399 -0.033862 0.952946 0.191929 -0.234642 -0.973697 0.226909 -0.020646 
0.855438 0.452016 -0.252799 0.812375 0.532555 -0.237555 -0.943608 0.330776 -0.0138178 
0.773823 0.591725 -0.225965 0.728485 0.660031 -0.183487 -0.871821 0.489763 0.0077919 
-0.86492 0.501857 0.00733621 -0.86324 0.495094 0.098486 0.717861 0.675668 -0.167777 
0.677044 0.731065 -0.0845943 -0.73648 0.676441 -0.00494423 -0.654849 0.755714 -0.00832518 
-0.615843 0.60731 0.501908 0.667315 0.743308 -0.0467369 0.64175 0.766866 0.00852212 
-0.522715 0.85217 -0.0239659 -0.513254 0.857807 -0.0271436 -0.525936 0.845406 0.0931669 
-0.456971 0.886468 -0.0731567 0.354893 0.934321 -0.0330799 0.587254 0.80926 0.0152032 
0.508103 0.861296 -0.000210543 -0.409221 0.90679 -0.10134 -0.401311 0.909715 -0.106624 
-0.431673 0.898446 0.0803284 -0.288192 0.944778 -0.156014 -0.0739724 0.98493 -0.156335 
0.143073 0.97761 -0.154303 0.209487 0.969023 -0.130805 0.310121 0.948255 -0.0680925 
0.272118 0.958283 -0.0874323 0.290604 0.90341 0.315278 -0.418731 -0.877797 0.232672 
-0.233071 -0.946557 0.222952 -0.0372904 -0.973621 0.225102 0.0560643 -0.961107 0.270427 
0.13975 -0.954087 0.264929 0.152399 -0.963053 0.222042 0.0940608 -0.983099 0.157064 
0.0729607 -0.990422 0.11722 0.106916 -0.982665 0.151456 0.178732 -0.968556 0.173076 
0.256588 -0.945252 0.201647 -0.570851 -0.7788 0.259999 -0.61776 -0.737659 0.272455 
-0.353194 -0.650334 0.672548 -0.130013 -0.577283 0.806127 0.0509992 -0.610214 0.790594 
0.0265535 -0.702532 0.711157 0.0623072 -0.760939 0.645825 0.110064 -0.813137 0.571572 
0.173008 -0.898988 0.402354 0.264643 -0.942138 0.205768 0.257397 -0.941768 0.216379 
0.420885 -0.85885 0.291946 0.599437 -0.74015 0.304717 -0.725616 -0.581511 0.367868 
-0.764325 -0.504114 0.40209 -0.537433 -0.361539 0.761876 0.328891 -0.559139 0.761048 
0.624193 -0.715751 0.313182 0.600919 -0.706709 0.373441 -0.882371 -0.284419 0.374869 
-0.622585 -0.267846 0.735287 -0.348661 -0.0752508 0.934223 0.724996 -0.576494 0.376876 
0.737252 -0.559195 0.379158 -0.79039 -0.0689349 0.608713 -0.620845 0.00926992 0.783879 
0.882579 -0.272663 0.383025 0.703124 -0.277179 0.654819 -0.760751 -0.000234103 0.649043 
-0.590383 0.0187663 0.806905 -0.316437 0.0418863 0.947688 0.91083 -0.0755728 0.405805 
0.623536 -0.0963432 0.775836 -0.745117 0.116838 0.65662 -0.574506 0.103279 0.811958 
-0.314462 0.0676312 0.946858 0.92934 0.151791 0.336581 0.642056 0.119556 0.757279 
-0.77473 0.138836 0.616862 -0.687414 0.129249 0.714672 -0.379776 0.0920874 0.920484 
0.84603 0.432081 0.312313 0.80142 0.525439 0.285728 0.751537 0.404485 0.521137 
-0.775462 0.22487 0.589993 -0.747555 0.298544 0.593324 -0.714301 0.218428 0.664878 
-0.449571 0.132403 0.883377 0.738574 0.602062 0.303363 0.663244 0.676797 0.319459 
0.560147 0.516323 0.647801 -0.692234 0.428451 0.580726 -0.601862 0.575532 0.553647 
-0.55494 0.321281 0.767347 0.616831 0.707625 0.344653 0.551133 0.731681 0.401118 
0.467171 0.644989 0.604765 -0.593406 0.588576 0.549043 -0.502796 0.69112 0.519182 
-0.432718 0.496057 0.752783 0.359997 0.490509 0.793601 0.533896 0.711585 0.45673 
0.535969 0.699461 0.472748 0.494102 0.664635 0.560468 -0.470104 0.740219 0.480706 
-0.444141 0.767858 0.461664 -0.40935 0.696948 0.58881 -0.445409 0.809298 0.382945 
-0.317311 0.506774 0.801557 0.291145 0.880592 0.373889 0.388368 0.802765 0.45248 
0.376222 0.620321 0.688229 0.486093 0.726354 0.485926 0.474585 0.734089 0.485678 
0.469272 0.715072 0.518127 -0.41888 0.83047 0.367232 -0.296895 0.884367 0.360206 
-0.286103 0.770969 0.568992 -0.0768305 0.930822 0.357306 -0.0936156 0.718419 0.689283 
0.133778 0.938949 0.316983 0.0932378 0.752528 0.651926 0.28519 0.885305 0.367289 
0.244937 0.914029 0.323351 0.238302 0.837502 0.491734 -0.0809419 -0.566179 0.820299 
0.0435321 -0.574755 0.817167 0.101903 -0.520916 0.847504 -0.303452 -0.452125 0.838749 
-0.114472 -0.5481 0.828542 -0.12588 -0.537319 0.833932 -0.0787839 -0.51399 0.85417 
0.0406438 -0.492005 0.869643 0.0857168 -0.529639 0.843881 0.101826 -0.507598 0.855556 
0.0363758 -0.540122 0.840801 0.0084473 -0.617651 0.786407 0.0492443 -0.643881 0.763539 
0.105735 -0.628617 0.770494 0.139543 -0.609861 0.780127 0.176311 -0.549612 0.816603 
-0.419918 -0.287335 0.860876 -0.285471 -0.246149 0.926238 -0.131671 -0.268707 0.95418 
-0.0163786 -0.26798 0.963285 0.083156 -0.226303 0.970501 0.0307498 -0.239493 0.970411 
-0.0179105 -0.270246 0.962625 -0.0518159 -0.309645 0.949439 -0.0307609 -0.32518 0.945152 
0.070528 -0.42985 0.900141 0.151274 -0.410995 0.898999 0.326702 -0.557413 0.763254 
0.154119 -0.458706 0.875121 0.32803 -0.556682 0.763217 0.48302 -0.354579 0.800603 
-0.339064 -0.0689368 0.938234 -0.334865 -0.0372641 0.941529 -0.290181 -0.0337185 0.956377 
-0.152481 -0.0667536 0.986049 -0.00615844 -0.025162 0.999664 0.0645529 -0.0865355 0.994155 
0.0438609 -0.0590885 0.997289 -0.0365269 -0.0602546 0.997514 -0.0672678 -0.085209 0.99409 
-0.0600487 -0.10991 0.992126 0.0237936 -0.10149 0.994552 0.0893372 -0.176214 0.980289 
0.113799 -0.278827 0.953575 0.262189 -0.247422 0.932759 0.487563 -0.33836 0.804857 
0.461849 -0.321599 0.826601 -0.349319 -0.00945024 0.936956 -0.319217 0.0250788 0.94735 
-0.330925 -0.00950173 0.943609 -0.2331 0.0231194 0.972178 -0.138285 0.0706957 0.987866 
-0.0316545 0.0558408 0.997938 0.0573236 -0.0177912 0.998197 0.0560225 -0.0558047 0.996869 
-0.0507521 -0.00300452 0.998707 -0.0944108 -0.0334995 0.99497 -0.0591741 0.0299633 0.997798 
-0.0115616 0.0557895 0.998376 -0.006453 -0.0295836 0.999541 0.119691 -0.0699767 0.990342 
0.259245 -0.0999435 0.960627 0.444919 -0.168232 0.879628 0.371503 -0.138628 0.918024 
-0.310386 0.0426047 0.949655 -0.228127 0.0552386 0.972063 -0.128296 0.0822989 0.988315 
-0.0914779 0.038401 0.995066 -0.0491216 -0.0781125 0.995734 0.0593911 -0.168601 0.983893 
-0.012868 -0.0113946 0.999852 -0.0344786 -0.0393899 0.998629 0.0302744 0.15153 0.987989 
-0.0385828 0.0985574 0.994383 -0.036571 0.0321559 0.998814 0.0442766 0.0227806 0.99876 
0.155932 -0.0595121 0.985973 0.539635 -0.0943577 0.836595 0.338925 -0.0919138 0.936313 
-0.286939 0.0643161 0.955787 -0.206648 0.0433595 0.977454 -0.152402 -0.00260562 0.988315 
-0.192925 -0.0447927 0.980191 -0.149423 -0.0665909 0.986529 0.1281 -0.0635685 0.989722 
0.0753377 -0.103066 0.991817 0.0703615 0.0612955 0.995637 0.0740454 0.0656569 0.995091 
-0.126737 0.023701 0.991653 -0.0805546 0.00672849 0.996727 0.026171 0.0131477 0.999571 
0.146792 0.0296089 0.988724 0.541683 0.101644 0.834415 0.382708 0.0541211 0.922283 
-0.322259 0.0640662 0.944481 -0.281755 0.0305148 0.959001 -0.219311 -0.0325404 0.975112 
-0.150842 -0.0405982 0.987724 -0.0678631 0.0514763 0.996366 0.0208251 0.104103 0.994349 
0.109417 -0.0432003 0.993057 0.141822 0.0397967 0.989092 -0.00992099 -0.0903219 0.995863 
-0.101406 -0.025 0.994531 -0.0472484 0.0332397 0.99833 0.0660734 0.0897961 0.993766 
0.189319 0.16516 0.967926 0.510891 0.305643 0.803475 0.463514 0.364066 0.807843 
0.431077 0.287022 0.855448 -0.369509 0.0817219 0.925626 -0.326904 0.0700924 0.942455 
-0.223529 0.0718622 0.972044 -0.110454 0.0619516 0.991949 -0.00453024 0.084383 0.996423 
0.0282432 0.0447287 0.9986 0.0160122 -0.000851602 0.999871 0.0220805 -0.0790424 0.996627 
0.0126391 -0.0809622 0.996637 -0.00251998 0.0384245 0.999258 0.0379719 0.147336 0.988357 
0.161842 0.293178 0.94226 0.418707 0.421857 0.80419 0.369976 0.474508 0.798724 
0.331529 0.368738 0.868401 -0.334502 0.206992 0.919382 -0.331986 0.216974 0.917991 
-0.32795 0.204644 0.922263 -0.22293 0.204209 0.953206 -0.137574 0.166002 0.976482 
-0.0830058 0.0904875 0.992432 -0.0662759 -0.0461684 0.996733 -0.0105559 -0.0427393 0.99903 
0.0568493 -0.0292325 0.997955 0.108481 0.0351362 0.993477 0.133113 0.162712 0.977653 
0.304001 0.435502 0.847303 0.206862 0.336858 0.91855 0.300696 0.476584 0.826105 
0.295946 0.470369 0.831366 0.283652 0.457631 0.842683 -0.259861 0.361451 0.895447 
-0.253089 0.365205 0.895864 -0.247462 0.353442 0.902131 -0.267579 0.411969 0.871024 
-0.223961 0.300767 0.927028 -0.212036 0.192434 0.958128 -0.106758 0.0973935 0.989504 
0.0312981 0.124159 0.991769 0.0951426 0.136439 0.986069 0.210874 0.238027 0.94809 
0.325262 0.433475 0.840419 0.329847 0.444245 0.832975 0.292613 0.357926 0.886717 
-0.279398 0.435252 0.855858 -0.267787 0.483842 0.833179 -0.26834 0.382486 0.884137 
-0.112167 0.592608 0.797643 -0.138289 0.410913 0.901125 0.0721479 0.63458 0.769482 
0.0334767 0.37196 0.927645 0.209656 0.62246 0.754048 0.178543 0.469925 0.864461 
0.317354 0.529005 0.787045 0.300287 0.550159 0.7792 0.300684 0.515951 0.802112 

