# vtk DataFile Version 4.2
vtk output
ASCII
DATASET POLYDATA
POINTS 562 float
37.2711 -4.85714 -19.7636 45.0696 -4.85714 -20.2515 37.2711 2.94126 -19.8177 
-32.9145 -36.0508 -14.2262 -25.1161 -36.0508 -14.952 -17.3177 -36.0508 -15.5165 
-9.51929 -36.0508 -15.8616 -1.72088 -36.0508 -16.9778 6.07752 -36.0508 -16.9499 
13.8759 -36.0508 -15.0889 21.6743 -36.0508 -13.2984 -40.7129 -28.2524 -15.7903 
-32.9145 -28.2524 -16.7097 -25.1161 -28.2524 -16.7541 -17.3177 -28.2524 -17.4627 
-9.51929 -28.2524 -17.571 -1.72088 -28.2524 -18.8632 6.07752 -28.2524 -19.0837 
13.8759 -28.2524 -17.6355 21.6743 -28.2524 -16.5779 29.4727 -28.2524 -15.8498 
37.2711 -28.2524 -14.4993 45.0696 -28.2524 -14.403 -48.5113 -20.454 -13.0694 
-40.7129 -20.454 -15.5662 -32.9145 -20.454 -16.9216 -25.1161 -20.454 -17.365 
-17.3177 -20.454 -16.8753 -9.51929 -20.454 -17.0037 -1.72088 -20.454 -18.3485 
6.07752 -20.454 -18.7097 13.8759 -20.454 -17.8966 21.6743 -20.454 -17.1325 
29.4727 -20.454 -17.4763 37.2711 -20.454 -18.9021 45.0696 -20.454 -16.954 
52.868 -20.454 -15.7776 60.6664 -20.454 -12.0196 -48.5113 -12.6556 -13.1955 
-40.7129 -12.6556 -14.9574 -32.9145 -12.6556 -15.7805 -25.1161 -12.6556 -15.8761 
-17.3177 -12.6556 -15.3149 -9.51929 -12.6556 -15.6983 -1.72088 -12.6556 -17.5567 
6.07752 -12.6556 -17.7195 13.8759 -12.6556 -17.8463 21.6743 -12.6556 -17.7579 
29.4727 -12.6556 -18.4727 37.2711 -5.92577 -19.654 37.2711 -12.6556 -18.9577 
45.0696 -8.98881 -19.654 45.0696 -12.6556 -19.0302 52.868 -12.6556 -17.2103 
60.6664 -12.6556 -14.6219 -40.7129 -4.85714 -13.7244 -32.9145 -4.85714 -14.6731 
-25.1161 -4.85714 -15.0078 -17.3177 -4.85714 -15.0122 -9.51929 -4.85714 -17.846 
-1.72088 -4.85714 -17.4178 6.07752 -4.85714 -15.9356 13.8759 -4.85714 -18.4199 
21.6743 -4.85714 -18.4435 35.7931 -4.85714 -19.654 29.4727 -4.85714 -19.1865 
47.2598 -4.85714 -19.654 45.0696 0.0344515 -19.654 52.868 -4.85714 -18.1289 
60.6664 -4.85714 -14.0849 -40.7129 2.94126 -12.7681 -32.9145 2.94126 -13.9302 
-25.1161 2.94126 -15.2248 -17.3177 2.94126 -17.0666 -9.51929 2.94126 -15.3404 
-1.72088 2.94126 -15.0842 6.07752 2.94126 -16.5844 13.8759 2.94126 -16.2084 
21.6743 2.94126 -17.916 35.2304 2.94126 -19.654 29.4727 2.94126 -19.1909 
39.5387 2.94126 -19.654 37.2711 4.68395 -19.654 45.0696 2.94126 -19.2707 
52.868 2.94126 -17.8079 60.6664 2.94126 -13.2088 -32.9145 10.7397 -12.2947 
-25.1161 10.7397 -14.3515 -17.3177 10.7397 -16.9945 -9.51929 10.7397 -15.5397 
-1.72088 10.7397 -17.0467 6.07752 10.7397 -16.9672 13.8759 10.7397 -15.2184 
21.6743 10.7397 -17.099 29.4727 10.7397 -18.6055 37.2711 10.7397 -19.083 
45.0696 10.7397 -18.642 52.868 10.7397 -16.4018 -17.3177 18.5381 -13.8665 
-9.51929 18.5381 -14.9559 -1.72088 18.5381 -14.6807 6.07752 18.5381 -13.9451 
13.8759 18.5381 -15.2087 21.6743 18.5381 -16.6562 29.4727 18.5381 -17.949 
37.2711 18.5381 -17.7841 45.0696 18.5381 -16.9393 52.868 18.5381 -13.5705 
-9.51929 26.3365 -12.0139 -1.72088 26.3365 -12.3197 6.07752 26.3365 -12.8993 
13.8759 26.3365 -14.2222 21.6743 26.3365 -15.1908 29.4727 26.3365 -15.9583 
37.2711 26.3365 -15.477 45.0696 26.3365 -12.9272 13.8759 34.1349 -12.0286 
21.6743 34.1349 -12.1469 -32.9145 -39.3648 -11.8556 -25.1161 -39.9421 -11.8556 
-17.3177 -40.623 -11.8556 -9.51929 -41.1358 -11.8556 -1.72088 -42.1943 -11.8556 
6.07752 -42.0493 -11.8556 13.8759 -39.9093 -11.8556 21.6743 -37.6128 -11.8556 
-48.5113 -36.0508 -6.83881 -40.1232 -36.0508 -11.8556 -40.7129 -35.7469 -11.8556 
-40.7129 -36.0508 -11.6009 27.3468 -36.0508 -11.8556 29.4727 -35.0577 -11.8556 
29.4727 -36.0508 -10.5918 37.2711 -34.5368 -11.8556 37.2711 -36.0508 -9.17141 
45.0696 -31.112 -11.8556 -56.3097 -28.2524 -5.23352 -47.6499 -28.2524 -11.8556 
-48.5113 -25.036 -11.8556 -48.5113 -28.2524 -11.1932 50.1012 -28.2524 -11.8556 
52.868 -26.476 -11.8556 52.868 -28.2524 -10.2475 60.6664 -20.6937 -11.8556 
-50.4075 -20.454 -11.8556 -56.3097 -20.454 -8.7461 60.8435 -20.454 -11.8556 
-52.4979 -12.6556 -11.8556 -56.3097 -12.6556 -10.08 -48.5113 -6.18504 -11.8556 
63.6954 -12.6556 -11.8556 -56.3097 -4.85714 -7.95153 -47.6225 -4.85714 -11.8556 
-48.5113 -4.85714 -11.5953 63.0185 -4.85714 -11.8556 -56.3097 2.94126 -7.44051 
-43.5402 2.94126 -11.8556 -48.5113 2.94126 -10.1925 -40.7129 6.51606 -11.8556 
62.0206 2.94126 -11.8556 60.6664 10.5308 -11.8556 -56.3097 10.7397 -5.78411 
-48.5113 10.7397 -8.66206 -35.0331 10.7397 -11.8556 -40.7129 10.7397 -10.654 
-32.9145 12.512 -11.8556 -25.1161 18.2715 -11.8556 60.6169 10.7397 -11.8556 
60.6664 10.7397 -11.7609 -48.5113 18.5381 -5.47115 -40.7129 18.5381 -9.113 
-32.9145 18.5381 -10.3272 -24.7884 18.5381 -11.8556 -25.1161 18.5381 -11.7711 
-17.3177 23.6543 -11.8556 55.0578 18.5381 -11.8556 52.868 21.1056 -11.8556 
-40.7129 26.3365 -5.58244 -32.9145 26.3365 -8.46528 -25.1161 26.3365 -9.50547 
-10.5702 26.3365 -11.8556 -17.3177 26.3365 -10.8771 -9.51929 26.734 -11.8556 
-1.72088 27.8894 -11.8556 6.07752 31.1 -11.8556 29.4727 33.3671 -11.8556 
37.2711 31.7152 -11.8556 46.8572 26.3365 -11.8556 45.0696 27.4607 -11.8556 
52.868 26.3365 -4.09497 -32.9145 34.1349 -5.85218 -25.1161 34.1349 -6.58079 
-17.3177 34.1349 -7.85772 -9.51929 34.1349 -8.74472 -1.72088 34.1349 -9.80654 
12.1861 34.1349 -11.8556 6.07752 34.1349 -11.1135 13.8759 34.4843 -11.8556 
24.8669 34.1349 -11.8556 21.6743 34.5914 -11.8556 29.4727 34.1349 -11.2174 
37.2711 34.1349 -7.65749 -9.51929 41.9333 -4.47076 -1.72088 41.9333 -4.5865 
6.07752 41.9333 -5.63134 13.8759 41.9333 -5.40966 -48.5113 -37.4595 -4.05719 
-40.7129 -42.0971 -4.05719 -32.9145 -43.1604 -4.05719 -25.1161 -43.4402 -4.05719 
-17.3177 -43.7238 -4.05719 -9.51929 -43.2868 -4.05719 -1.72088 -43.4492 -4.05719 
6.07752 -43.3552 -4.05719 13.8759 -42.2496 -4.05719 21.6743 -40.4575 -4.05719 
29.4727 -38.5844 -4.05719 37.2711 -37.1214 -4.05719 -50.2825 -36.0508 -4.05719 
-56.3097 -29.3378 -4.05719 -48.5113 -36.0508 2.44704 41.3558 -36.0508 -4.05719 
37.2711 -36.0508 -1.33631 45.0696 -35.0259 -4.05719 52.868 -31.7697 -4.05719 
-57.1578 -28.2524 -4.05719 -56.3097 -28.2524 3.73556 57.3442 -28.2524 -4.05719 
52.868 -28.2524 3.26098 60.6664 -24.3488 -4.05719 -60.125 -20.454 -4.05719 
63.3624 -20.454 -4.05719 60.6664 -20.454 1.09517 -61.2079 -12.6556 -4.05719 
65.9262 -12.6556 -4.05719 -60.5272 -4.85714 -4.05719 -64.1081 -4.85714 3.45766 
66.338 -4.85714 -4.05719 -60.3394 2.94126 -4.05719 -64.1081 2.94126 2.91036 
65.6107 2.94126 -4.05719 -58.3175 10.7397 -4.05719 -56.3097 14.307 -4.05719 
63.0098 10.7397 -4.05719 60.6664 16.2221 -4.05719 60.6664 10.7397 1.72286 
-51.2616 18.5381 -4.05719 -56.3097 18.5381 -0.881493 -48.5113 22.7131 -4.05719 
59.4829 18.5381 -4.05719 -45.1417 26.3365 -4.05719 -48.5113 26.3365 -2.76119 
-40.7129 29.8274 -4.05719 45.0696 31.9397 -4.05719 52.8834 26.3365 -4.05719 
52.868 26.3514 -4.05719 52.868 26.3365 -4.00992 -37.1486 34.1349 -4.05719 
-40.7129 34.1349 -1.94124 -32.9145 36.6627 -4.05719 -25.1161 38.364 -4.05719 
-17.3177 40.9904 -4.05719 21.6743 41.4679 -4.05719 29.4727 38.7742 -4.05719 
40.5814 34.1349 -4.05719 37.2711 35.6358 -4.05719 -32.9145 41.9333 2.09915 
-25.1161 41.9333 -1.163 -12.7971 41.9333 -4.05719 -17.3177 41.9333 -3.27504 
-9.51929 42.3451 -4.05719 -1.72088 42.4239 -4.05719 6.07752 43.223 -4.05719 
19.0717 41.9333 -4.05719 13.8759 42.8505 -4.05719 -40.7129 -40.5824 3.74122 
-32.9145 -41.3994 3.74122 -25.1161 -41.5512 3.74122 -17.3177 -41.5759 3.74122 
-9.51929 -40.3537 3.74122 -1.72088 -39.9541 3.74122 6.07752 -39.5577 3.74122 
13.8759 -38.0708 3.74122 21.6743 -36.9227 3.74122 29.4727 -36.0866 3.74122 
-48.0355 -36.0508 3.74122 -48.5113 -35.622 3.74122 -40.7129 -36.0508 9.12398 
-32.9145 -36.0508 10.3615 -17.3177 -36.0508 10.7317 -9.51929 -36.0508 9.08604 
-1.72088 -36.0508 8.16189 6.07752 -36.0508 7.47183 13.8759 -36.0508 5.83138 
21.6743 -36.0508 4.68998 29.5823 -36.0508 3.74122 29.4727 -36.0508 3.77517 
37.2711 -33.2083 3.74122 45.0696 -31.687 3.74122 -56.3088 -28.2524 3.74122 
-56.3097 -28.2514 3.74122 -48.5113 -28.2524 11.3956 13.8759 -28.2524 11.1589 
21.6743 -28.2524 9.73513 29.4727 -28.2524 8.68998 37.2711 -28.2524 8.99894 
52.3378 -28.2524 3.74122 45.0696 -28.2524 6.96509 52.868 -27.8559 3.74122 
-60.6198 -20.454 3.74122 -56.3097 -20.454 9.71637 45.0696 -20.454 9.88867 
58.8193 -20.454 3.74122 52.868 -20.454 7.86142 60.6664 -15.8573 3.74122 
-63.4311 -12.6556 3.74122 -64.1081 -5.99167 3.74122 52.868 -12.6556 9.69916 
61.7108 -12.6556 3.74122 60.6664 -12.6556 4.69866 -64.1941 -4.85714 3.74122 
-64.1081 -4.85714 3.9356 52.868 -4.85714 11.0019 62.7851 -4.85714 3.74122 
60.6664 -4.85714 5.74257 -64.5195 2.94126 3.74122 -64.1081 4.7664 3.74122 
-64.1081 2.94126 5.00597 52.868 2.94126 10.734 61.735 2.94126 3.74122 
60.6664 7.29459 3.74122 60.6664 2.94126 4.8617 -62.7618 10.7397 3.74122 
59.4633 10.7397 3.74122 52.868 10.7397 9.41774 -59.6582 18.5381 3.74122 
-56.3097 24.5621 3.74122 56.1115 18.5381 3.74122 52.868 23.1347 3.74122 
52.868 18.5381 7.5956 -55.116 26.3365 3.74122 -48.5113 33.8141 3.74122 
49.9366 26.3365 3.74122 45.0696 30.4385 3.74122 45.0696 26.3365 9.12182 
-48.1441 34.1349 3.74122 -48.5113 34.1349 6.0098 -40.7129 39.5604 3.74122 
21.6743 41.9298 3.74122 29.4727 38.3319 3.74122 29.4727 34.1349 10.0477 
38.8382 34.1349 3.74122 37.2711 34.9519 3.74122 37.2711 34.1349 5.31611 
-35.7218 41.9333 3.74122 -32.9145 43.1154 3.74122 -25.1161 45.0796 3.74122 
-17.3177 46.2391 3.74122 -9.51929 46.6874 3.74122 -1.72088 46.8715 3.74122 
6.07752 46.7272 3.74122 21.6668 41.9333 3.74122 13.8759 45.0843 3.74122 
13.8759 41.9333 9.46218 -25.1161 -36.1938 11.5396 -40.7129 -32.1195 11.5396 
-25.9323 -36.0508 11.5396 -32.9145 -34.4233 11.5396 -23.9726 -36.0508 11.5396 
-25.1161 -36.0508 11.65 -17.3177 -35.1113 11.5396 -9.51929 -33.0342 11.5396 
-1.72088 -31.4477 11.5396 6.07752 -30.4054 11.5396 -48.1569 -28.2524 11.5396 
-48.5113 -27.7734 11.5396 -40.7129 -28.2524 13.4817 -32.9145 -28.2524 14.7994 
-25.1161 -28.2524 15.8624 -17.3177 -28.2524 15.8779 -9.51929 -28.2524 14.4527 
-1.72088 -28.2524 13.3863 12.1253 -28.2524 11.5396 6.07752 -28.2524 12.7619 
[...]
POINT_DATA 562
SCALARS ImageScalars float
LOOKUP_TABLE default
0 0 0 0 0 0 0 0 0 
0 0 0 0 0 0 0 0 0 
0 0 0 0 0 0 0 0 0 
0 0 0 0 0 0 0 0 0 
0 0 0 0 0 0 0 0 0 
0 0 0 0 0 0 0 0 0 
0 0 0 0 0 0 0 0 0 
0 0 0 0 0 0 0 0 0 
0 0 0 0 0 0 0 0 0 
0 0 0 0 0 0 0 0 0 
0 0 0 0 0 0 0 0 0 
0 0 0 0 0 0 0 0 0 
0 0 0 0 0 0 0 0 0 
0 0 0 0 0 0 0 0 0 
0 0 0 0 0 0 0 0 0 
0 0 0 0 0 0 0 0 0 
0 0 0 0 0 0 0 0 0 
0 0 0 0 0 0 0 0 0 
0 0 0 0 0 0 0 0 0 
0 0 0 0 0 0 0 0 0 
0 0 0 0 0 0 0 0 0 
0 0 0 0 0 0 0 0 0 
0 0 0 0 0 0 0 0 0 
0 0 0 0 0 0 0 0 0 
0 0 0 0 0 0 0 0 0 
0 0 0 0 0 0 0 0 0 
0 0 0 0 0 0 0 0 0 
0 0 0 0 0 0 0 0 0 
0 0 0 0 0 0 0 0 0 
0 0 0 0 0 0 0 0 0 
0 0 0 0 0 0 0 0 0 
0 0 0 0 0 0 0 0 0 
0 0 0 0 0 0 0 0 0 
0 0 0 0 0 0 0 0 0 
0 0 0 0 0 0 0 0 0 
0 0 0 0 0 0 0 0 0 
0 0 0 0 0 0 0 0 0 
0 0 0 0 0 0 0 0 0 
0 0 0 0 0 0 0 0 0 
0 0 0 0 0 0 0 0 0 
0 0 0 0 0 0 0 0 0 
0 0 0 0 0 0 0 0 0 
0 0 0 0 0 0 0 0 0 
0 0 0 0 0 0 0 0 0 
0 0 0 0 0 0 0 0 0 
0 0 0 0 0 0 0 0 0 
0 0 0 0 0 0 0 0 0 
0 0 0 0 0 0 0 0 0 
0 0 0 0 0 0 0 0 0 
0 0 0 0 0 0 0 0 0 
0 0 0 0 0 0 0 0 0 
0 0 0 0 0 0 0 0 0 
0 0 0 0 0 0 0 0 0 
0 0 0 0 0 0 0 0 0 
0 0 0 0 0 0 0 0 0 
0 0 0 0 0 0 0 0 0 
0 0 0 0 0 0 0 0 0 
0 0 0 0 0 0 0 0 0 
0 0 0 0 0 0 0 0 0 
0 0 0 0 0 0 0 0 0 
0 0 0 0 0 0 0 0 0 
0 0 0 0 0 0 0 0 0 
0 0 0 0 
NORMALS Normals float
0.0720154 0.0543803 0.99592 -0.1105 0.0104292 0.993821 0.00401004 -0.0434122 0.999049 
0.174522 0.477579 0.861081 0.0791497 0.457522 0.885669 0.0574282 0.460564 0.885767 
0.0926017 0.448383 0.889032 0.0717781 0.450218 0.890029 -0.115991 0.470807 0.874578 
-0.231964 0.522328 0.820589 -0.230366 0.649688 0.724456 0.275054 0.172472 0.945832 
0.0703912 0.165578 0.983681 0.0458906 0.141474 0.988878 0.0534608 0.0677067 0.996272 
0.0876807 0.0669129 0.993899 0.0977271 0.0810276 0.991909 -0.0732947 0.103228 0.991954 
-0.168281 0.164951 0.97184 -0.0991621 0.217795 0.970944 -0.137404 0.396404 0.907736 
-0.0786324 0.440834 0.894138 -0.210616 0.536644 0.817101 0.405574 0.117749 0.906446 
0.192847 -0.0527478 0.97981 0.106386 -0.0568367 0.992699 3.77798e-05 -0.0566083 0.998396 
-0.0229931 -0.134467 0.990651 0.0948697 -0.119715 0.988265 0.108805 -0.0828045 0.990608 
-0.0289363 -0.0841406 0.996034 -0.100425 0.0120475 0.994872 -0.0272597 0.0775035 0.996619 
0.10156 0.150292 0.983411 -0.0276956 0.240504 0.970253 -0.164562 0.229038 0.959407 
-0.332934 0.395031 0.856216 -0.610401 0.488321 0.623661 0.305187 -0.0970145 0.947338 
0.149391 -0.115144 0.982051 0.0579123 -0.151921 0.986695 -0.0294409 -0.1497 0.988293 
-0.0119558 -0.121431 0.992528 0.152966 0.0118293 0.988161 0.127565 -0.0570403 0.990189 
0.0188018 -0.1631 0.98643 0.00215751 0.033415 0.999439 0.0403888 0.0846949 0.995588 
0.0761426 0.107252 0.991312 0.0681566 0.0538021 0.996223 0.0359575 0.0554099 0.997816 
-0.118778 0.113805 0.986377 -0.121045 0.209317 0.970327 -0.272096 0.131009 0.95331 
-0.571897 0.13541 0.809072 0.176978 -0.13624 0.97474 0.0811367 -0.119848 0.989471 
0.0215173 -0.041908 0.99889 0.128574 0.114595 0.985057 0.184169 -8.35518e-07 0.982895 
-0.120784 -0.144418 0.982117 0.1008 -0.0828965 0.991447 0.136392 -0.0923049 0.986345 
0.0491076 0.0104402 0.998739 0.0750105 0.0528576 0.995781 0.0840851 0.0456878 0.995411 
-0.158854 0.0187224 0.987125 -0.126025 -0.0585696 0.990297 -0.300499 0.0377138 0.953036 
-0.668019 -0.0856223 0.739202 0.230332 -0.18087 0.956155 0.156522 -0.1447 0.977017 
0.203428 -0.0361331 0.978423 0.0232956 0.123295 0.992097 -0.139882 -0.112132 0.983798 
0.0887547 -0.0136255 0.99596 0.0564858 0.0602697 0.996583 0.0905888 -0.208328 0.973855 
0.182053 -0.0852806 0.979583 0.0345763 -0.0416401 0.998534 0.120423 -0.0366798 0.992045 
-0.0372065 -0.0606817 0.997463 0.00428843 -0.0648965 0.997883 -0.132246 -0.101214 0.986036 
-0.296159 -0.101554 0.949724 -0.706707 -0.123215 0.696695 0.214963 -0.225473 0.950238 
0.299295 -0.211324 0.930465 0.0612743 -0.186925 0.980461 -0.014267 -0.0268474 0.999538 
0.109663 -0.0589822 0.992217 -0.128524 -0.20391 0.970517 0.0438309 -0.0620599 0.99711 
0.209943 -0.0809296 0.974358 0.125021 -0.077918 0.98909 0.00359121 -0.136131 0.990684 
-0.163442 -0.158968 0.973661 -0.379764 -0.230442 0.895922 0.188949 -0.373695 0.908103 
0.0467829 -0.215573 0.975367 -0.0650009 -0.270887 0.960414 0.0366689 -0.19948 0.979216 
0.17048 -0.0614484 0.983443 0.171939 -0.117904 0.978026 0.0702639 -0.156631 0.985155 
-0.0633976 -0.217608 0.973975 -0.20935 -0.277884 0.937525 -0.547797 -0.439337 0.711971 
0.0883188 -0.365839 0.926478 0.0523204 -0.282366 0.957879 0.117656 -0.174549 0.977594 
0.138979 -0.202543 0.969361 0.103369 -0.275159 0.955826 0.0173182 -0.376571 0.926226 
-0.140596 -0.428465 0.892553 -0.391258 -0.62896 0.671809 0.0597332 -0.390895 0.918495 
-0.0345832 -0.497796 0.866604 0.158412 0.670813 0.72451 0.0598982 0.725214 0.685913 
0.0630914 0.746294 0.66262 0.0840399 0.803706 0.589061 0.0483111 0.873189 0.484981 
-0.120555 0.866681 0.484076 -0.259134 0.751527 0.606677 -0.223137 0.739735 0.634825 
0.615127 0.710106 0.34259 0.291083 0.572197 0.766721 0.299304 0.56233 0.770845 
0.30268 0.588381 0.749795 -0.16232 0.674975 0.719765 -0.14403 0.633163 0.7605 
-0.15619 0.755124 0.636705 -0.158069 0.717416 0.678475 -0.198865 0.910116 0.363514 
-0.295894 0.670863 0.679993 0.784952 0.52932 0.32198 0.507937 0.198998 0.838093 
0.49121 0.165363 0.8552 0.557801 0.223703 0.799259 -0.369096 0.600732 0.709146 
-0.405107 0.571985 0.713247 -0.474755 0.673143 0.566997 -0.615342 0.499915 0.609458 
0.480578 0.136634 0.866242 0.739331 0.199885 0.642989 -0.619902 0.49296 0.610501 
0.424753 -0.0434474 0.904266 0.593565 -0.0299466 0.804229 0.299565 -0.168815 0.939022 
-0.819463 0.131059 0.557946 0.637085 -0.136697 0.758575 0.286198 -0.180019 0.941108 
0.307467 -0.185087 0.933385 -0.795852 -0.0988727 0.597364 0.489535 -0.133359 0.861725 
0.275872 -0.169539 0.946124 0.33774 -0.157134 0.92803 0.218684 -0.198108 0.955474 
-0.788693 -0.131415 0.600577 -0.757592 -0.277612 0.590751 0.513895 -0.299671 0.803809 
0.31346 -0.268339 0.910899 0.20937 -0.22385 0.951869 0.206818 -0.220198 0.953278 
0.198717 -0.223702 0.954185 0.213205 -0.285615 0.934327 -0.755591 -0.282878 0.590815 
-0.761744 -0.284265 0.582185 0.400455 -0.29194 0.868566 0.264048 -0.288837 0.920246 
0.15427 -0.223971 0.962309 0.209585 -0.291727 0.933258 0.210019 -0.287666 0.93442 
0.163718 -0.35922 0.91878 -0.623627 -0.476707 0.619548 -0.581818 -0.522229 0.62351 
0.282439 -0.361727 0.888472 0.224798 -0.29592 0.928384 0.140636 -0.291069 0.946309 
0.096637 -0.363844 0.926434 0.147087 -0.348659 0.925636 0.0905273 -0.368554 0.925188 
0.0689839 -0.297963 0.952082 0.123884 -0.266519 0.955835 -0.108752 -0.626734 0.771607 
-0.242827 -0.715836 0.654686 -0.446172 -0.649607 0.615582 -0.413956 -0.668046 0.618349 
-0.688352 -0.724581 0.0339706 0.208358 -0.467607 0.859029 0.12897 -0.434564 0.891359 
0.117687 -0.426386 0.896853 0.113561 -0.433853 0.893798 0.130651 -0.399635 0.907316 
0.0739493 -0.37743 0.923081 0.124182 -0.345613 0.930124 0.055309 -0.404772 0.912743 
-0.0725537 -0.563322 0.823046 -0.0450893 -0.515914 0.855453 -0.139742 -0.67551 0.723988 
-0.343485 -0.877618 0.334373 0.0613239 -0.679334 0.731262 0.0528356 -0.709718 0.702502 
0.0433997 -0.746249 0.66425 -0.0871253 -0.839849 0.535782 0.609167 0.783165 0.124774 
0.323382 0.938028 0.124611 0.0793441 0.994707 0.0652815 0.0358132 0.997865 0.0546204 
-0.00973622 0.999849 0.014406 -0.018932 0.998021 -0.0599597 0.00471521 0.992081 -0.125509 
-0.0783657 0.987777 -0.134742 -0.189648 0.976577 -0.101637 -0.234052 0.971155 -0.0455857 
-0.211082 0.97736 0.0145239 -0.2153 0.974136 -0.0685917 0.658 0.739933 0.139765 
0.787957 0.562532 0.250363 0.59715 0.736068 -0.318771 -0.27482 0.958222 -0.07927 
-0.244186 0.93434 -0.259581 -0.332939 0.94168 -0.0488802 -0.495556 0.868533 -0.00858809 
0.807863 0.529533 0.258751 0.685967 0.615165 -0.388616 -0.693427 0.720347 -0.0160764 
-0.499116 0.647802 -0.575531 -0.820201 0.567094 -0.0753302 0.897275 0.210557 0.388026 
-0.882728 0.46097 -0.0910937 -0.811022 0.450293 -0.373471 0.877702 0.0430577 0.477269 
-0.978592 0.181522 -0.0969927 0.765868 -0.0481588 0.641192 0.99718 0.0560668 -0.04989 
-0.997943 -0.0210825 -0.0605339 0.7394 -0.129595 0.660676 0.986578 -0.10305 0.126665 
-0.977354 -0.203356 -0.0585269 0.62975 -0.287042 0.721818 0.512576 -0.349342 0.784363 
-0.929934 -0.365077 -0.0440579 -0.87517 -0.48092 -0.0528476 -0.821965 -0.346242 -0.452205 
0.432318 -0.321431 0.842486 0.66254 -0.438728 0.60709 0.354875 -0.413426 0.838536 
-0.841283 -0.53968 -0.0314368 0.293441 -0.452836 0.841921 0.363307 -0.552534 0.750143 
0.389149 -0.459043 0.79865 -0.515431 -0.849685 0.111204 -0.688639 -0.72442 0.0314919 
-0.688294 -0.724744 0.0315669 -0.688762 -0.724417 0.0287774 0.375622 -0.529483 0.760628 
0.498666 -0.60848 0.61732 0.276498 -0.560323 0.78076 0.179632 -0.522427 0.833548 
0.135109 -0.635444 0.760235 -0.248971 -0.919034 0.305597 -0.328996 -0.916923 0.225861 
-0.435487 -0.891737 0.123108 -0.385229 -0.911874 0.14172 0.353929 -0.849049 0.392237 
0.248684 -0.743608 0.620647 0.0910245 -0.67702 0.730314 0.135633 -0.69758 0.703552 
0.0583619 -0.700907 0.710861 0.0478584 -0.735045 0.676328 0.021705 -0.797727 0.602628 
-0.206497 -0.911372 0.356035 -0.109887 -0.876409 0.468864 0.302127 0.859919 -0.41141 
0.0545 0.904312 -0.42338 0.00993378 0.932462 -0.361131 -0.0664044 0.897014 -0.436986 
-0.0897473 0.859075 -0.50392 -0.0438077 0.813657 -0.579693 -0.0985312 0.787543 -0.608331 
-0.144325 0.750481 -0.64494 -0.102215 0.77381 -0.625117 -0.191659 0.753648 -0.628714 
0.56433 0.719279 -0.405179 0.578778 0.710137 -0.4009 0.281047 0.641604 -0.713692 
0.1159 0.675135 -0.728533 -0.110811 0.672787 -0.731491 -0.11651 0.698726 -0.705838 
-0.074831 0.684848 -0.724833 -0.111993 0.675065 -0.729209 -0.139189 0.689581 -0.710707 
-0.105892 0.740171 -0.664029 -0.193364 0.752799 -0.629209 -0.191916 0.752103 -0.630484 
-0.217235 0.724135 -0.654552 -0.284588 0.773225 -0.566686 0.685777 0.615122 -0.389018 
0.685806 0.615095 -0.38901 0.443187 0.399408 -0.802532 -0.180167 0.399138 -0.899015 
-0.138194 0.423788 -0.895157 -0.0504414 0.493322 -0.868383 -0.105472 0.533729 -0.839052 
-0.475144 0.632703 -0.611495 -0.307249 0.542245 -0.782028 -0.489852 0.617921 -0.614995 
0.890122 0.35827 -0.281648 0.590235 0.386986 -0.708424 -0.235396 0.288119 -0.928211 
-0.706344 0.399133 -0.584611 -0.359288 0.354048 -0.86346 -0.708247 0.291457 -0.642992 
0.959456 0.240758 -0.146559 0.992903 0.0855295 -0.0826396 -0.420186 0.178648 -0.889679 
-0.689481 0.198678 -0.696522 -0.64579 0.176458 -0.742844 0.995512 0.0607665 -0.0725417 
0.994547 0.0630301 -0.0830824 -0.448453 0.0498285 -0.892416 -0.760375 -0.00302166 -0.649477 
-0.65099 0.0126345 -0.758981 0.992937 -0.0904203 0.0768173 0.985699 -0.137942 0.0967946 
0.996607 -0.0756997 -0.0323225 -0.471617 -0.0738524 -0.878705 -0.749683 -0.164342 -0.641067 
-0.740659 -0.253098 -0.622387 -0.704258 -0.154535 -0.692921 0.948871 -0.294738 0.113017 
-0.735426 -0.301922 -0.606624 -0.549345 -0.152856 -0.821496 0.878661 -0.452791 0.151442 
0.813983 -0.568233 0.120591 -0.742836 -0.421961 -0.519754 -0.697111 -0.548795 -0.461368 
-0.652069 -0.362193 -0.666049 0.797275 -0.594971 0.101795 0.625503 -0.692746 0.358956 
-0.641388 -0.646413 -0.413245 -0.560797 -0.741684 -0.367983 -0.540135 -0.540058 -0.645439 
0.618693 -0.69784 0.360886 0.667637 -0.723223 0.176659 0.504946 -0.777449 0.374971 
-0.399079 -0.888983 -0.2246 -0.40093 -0.876969 -0.264914 -0.328639 -0.686559 -0.648563 
-0.448615 -0.845713 -0.288987 -0.423407 -0.862978 -0.275672 -0.424888 -0.833913 -0.35222 
0.408398 -0.847689 0.338577 0.326859 -0.899177 0.290935 0.201287 -0.95754 0.206399 
0.100906 -0.973632 0.204595 0.0435132 -0.98907 0.140878 0.00238615 -0.99598 0.0895436 
-0.111355 -0.993486 0.0241944 -0.398993 -0.889054 -0.224469 -0.29321 -0.95063 -0.101636 
-0.331426 -0.771596 -0.542952 0.0174177 0.630572 -0.775936 0.235701 0.462245 -0.854854 
0.0284646 0.628755 -0.777082 0.13134 0.587132 -0.798765 -0.0027099 0.631626 -0.775268 
0.0169096 0.624986 -0.780452 -0.112218 0.628995 -0.769267 -0.133215 0.569753 -0.810947 
-0.0941293 0.49965 -0.861098 -0.127058 0.459742 -0.878916 0.430177 0.392647 -0.812881 
0.432054 0.385553 -0.815278 0.221599 0.325228 -0.919304 0.139054 0.31535 -0.938732 
0.0644494 0.3372 -0.939224 -0.0828984 0.386142 -0.918707 -0.14684 0.411542 -0.899484 
-0.101102 0.391636 -0.914549 -0.169745 0.395615 -0.902593 -0.130526 0.388224 -0.912275 
-0.174589 0.374642 -0.910583 -0.101636 0.365149 -0.925385 -0.0419216 0.371782 -0.927373 
-0.147404 0.284116 -0.947391 0.416478 0.312065 -0.85391 0.516417 0.273122 -0.811615 
0.31318 0.256579 -0.914377 0.198722 0.160905 -0.966757 0.156754 0.110973 -0.981383 
0.0927436 0.0721794 -0.99307 -0.0448841 0.101399 -0.993833 -0.140636 0.203376 -0.968948 
-0.130456 0.244633 -0.9608 -0.126505 0.175876 -0.97625 -0.12728 0.26348 -0.956231 
-0.0719814 0.339628 -0.937801 -0.0552096 0.345451 -0.936811 -0.168193 0.255153 -0.95216 
-0.153886 0.251703 -0.955492 -0.235091 0.234216 -0.943332 0.612852 0.174281 -0.770739 
0.485031 0.155123 -0.860629 0.24282 0.189028 -0.951476 0.0586729 0.16014 -0.985349 
0.050173 0.0510536 -0.997435 0.0556515 -0.0530562 -0.99704 0.0534857 -0.0717257 -0.995989 
0.00567291 0.0957649 -0.995388 -0.140454 0.259029 -0.955603 -0.124874 0.22584 -0.966128 
-0.0167855 0.305895 -0.951917 -0.0565259 0.318637 -0.94619 -0.0992027 0.242994 -0.964942 
-0.16358 0.189195 -0.968218 -0.268721 0.218837 -0.938029 -0.235362 0.222903 -0.946002 
0.627548 0.0599572 -0.776266 0.549772 0.0624234 -0.832979 0.251606 0.0357592 -0.967169 
0.077816 0.086549 -0.993204 -0.049749 0.0877316 -0.994901 -0.0317266 0.0142811 -0.999395 
0.106211 -0.0117395 -0.994274 0.179082 0.0855942 -0.980104 -0.0724491 0.295228 -0.952676 
-0.0314194 0.272661 -0.961597 -0.131226 0.236052 -0.962839 -0.183166 0.180435 -0.966381 
-0.174018 0.117579 -0.977698 -0.412404 0.0571547 -0.909207 -0.257139 0.0829051 -0.962812 
0.646495 0.0462399 -0.761516 0.488237 0.0773788 -0.869274 0.186882 0.0408345 -0.981533 
0.100189 0.0414785 -0.994103 -0.0161286 0.0980775 -0.995048 -0.0462629 0.102778 -0.993628 
0.120453 0.107761 -0.986853 0.0287713 0.127611 -0.991407 0.0748513 0.113413 -0.990724 
-0.144578 0.1148 -0.982811 -0.224066 0.137321 -0.964851 -0.270042 0.0682157 -0.960429 
-0.420062 -0.057579 -0.905667 -0.299623 -0.0194427 -0.953859 0.698723 -0.0572782 -0.713096 
0.585911 -0.0116684 -0.810291 0.248205 0.0173791 -0.968552 0.112291 0.140764 -0.983654 
0.00704288 0.0632922 -0.99797 -0.0247651 0.102661 -0.994408 0.129369 0.11258 -0.985185 
-0.227786 0.0340952 -0.973114 -0.331377 0.00568894 -0.943481 -0.449861 -0.109929 -0.886307 
-0.377495 -0.0589171 -0.924135 0.850214 -0.24767 -0.464539 0.75856 -0.445539 -0.47548 
0.647944 -0.212401 -0.731474 0.362122 -0.0289336 -0.931681 -0.0624497 -0.0168879 -0.997905 
0.00550223 0.0926118 -0.995687 0.0709548 0.0548697 -0.995969 -0.0590605 -0.143176 -0.987934 
-0.0599766 -0.155995 -0.985935 -0.195474 -0.151675 -0.968909 -0.33509 -0.17033 -0.926662 
-0.47466 -0.220022 -0.852226 -0.4737 -0.278774 -0.8354 -0.452424 -0.196171 -0.86996 
0.705825 -0.537803 -0.461063 0.428269 -0.278762 -0.85958 0.129579 -0.192537 -0.972697 
0.134913 -0.102137 -0.985579 -0.0288961 -0.0677286 -0.997285 0.01073 -0.124214 -0.992197 
-0.102802 -0.192843 -0.975829 -0.0958118 -0.238041 -0.966518 -0.113658 -0.322109 -0.939855 
-0.300546 -0.605873 -0.736607 -0.243597 -0.422986 -0.872779 -0.415753 -0.464901 -0.781675 
-0.353642 -0.533427 -0.76837 -0.331324 -0.435438 -0.837029 0.662322 -0.638845 -0.391417 
0.643368 -0.66014 -0.387677 0.642532 -0.633496 -0.431086 0.44822 -0.808322 -0.381726 
0.310238 -0.405871 -0.859663 0.0572139 -0.297664 -0.952955 0.0384202 -0.316726 -0.947739 
0.012044 -0.267237 -0.963555 -0.0200149 -0.292148 -0.956164 -0.0715092 -0.3101 -0.948011 
-0.140444 -0.332336 -0.932646 -0.294404 -0.629055 -0.719455 -0.189523 -0.411069 -0.891686 
-0.299216 -0.619949 -0.72535 -0.297528 -0.629744 -0.717565 -0.261933 -0.552956 -0.790968 
0.314838 -0.871639 -0.375661 0.269245 -0.882159 -0.386397 0.255543 -0.853276 -0.454553 
0.171689 -0.862314 -0.476379 0.122787 -0.7305 -0.671783 0.0254072 -0.868369 -0.495267 
0.0305807 -0.641826 -0.76624 -0.0526965 -0.843691 -0.534237 -0.0485627 -0.639041 -0.767638 
-0.0766688 -0.800692 -0.59415 -0.0999176 -0.643142 -0.7592 -0.274665 -0.668665 -0.690975 
-0.21683 -0.698892 -0.681568 -0.218536 -0.633315 -0.742398 -0.01789 0.0427241 -0.998927 
0.0514413 0.0213309 -0.998448 -0.0163104 0.076673 -0.996923 0.0157184 0.0163311 -0.999743 
0.00676963 -0.00139557 -0.999976 0.0285417 0.235511 -0.971453 -0.0503979 0.175128 -0.983255 
0.0402209 0.122702 -0.991628 0.116202 0.149807 -0.981863 0.0627717 0.161031 -0.984951 
0.133493 0.164881 -0.977238 -0.139631 0.113875 -0.983634 -0.0629306 0.0986721 -0.993128 
-0.14023 0.102973 -0.98475 0.157843 0.0404272 -0.986636 0.159245 0.0846325 -0.983605 
0.186826 0.0529511 -0.980965 0.050063 0.199114 -0.978697 -0.0793017 -0.0145634 -0.996744 
-0.0633543 -0.129741 -0.989522 -0.0892426 -0.051969 -0.994653 -0.141223 0.00264738 -0.989974 
-0.0740435 -0.102009 -0.992024 -0.0977202 -0.013409 -0.995124 0.2195 -0.0180366 -0.975446 
0.00889317 -0.0197996 -0.999764 0.157604 -0.0621591 -0.985544 0.185612 -0.0214903 -0.982388 
0.0247205 0.0153064 -0.999577 0.0817421 0.028888 -0.996235 0.0154364 -0.1217 -0.992447 
0.121787 -0.0684453 -0.990193 -0.000300323 -0.120241 -0.992745 -0.0676237 -0.144952 -0.987125 
-0.109025 -0.174344 -0.97863 -0.11923 -0.155896 -0.980551 0.0731377 -0.0813468 -0.993999 
-0.0122901 -0.0693381 -0.997518 0.0427287 -0.122479 -0.991551 0.0460715 -0.0751064 -0.996111 
-0.00892948 -0.156631 -0.987617 -0.0411257 -0.201323 -0.978661 -0.0375472 -0.204701 -0.978104 
-0.0365487 -0.202229 -0.978656 
