# vtk DataFile Version 4.2
vtk output
ASCII
DATASET POLYDATA
POINTS 482 float
-15.1821 -26.7693 -18.2471 -29.6144 -19.5532 -18.1428 -22.3982 -19.5532 -19.9346 
-15.1821 -19.5532 -20.4177 -7.96593 -19.5532 -20.0439 -0.749782 -19.5532 -19.5232 
6.46637 -19.5532 -19.38 13.6825 -19.5532 -18.7985 -29.6144 -12.337 -19.6921 
-22.3982 -12.337 -21.058 -15.1821 -12.337 -20.905 -7.96593 -12.337 -21.389 
-0.749782 -12.337 -22.7621 6.46637 -12.337 -22.949 13.6825 -12.337 -21.8082 
20.8987 -12.337 -19.7622 -29.6144 -5.12086 -20.6262 -22.3982 -5.12086 -21.5913 
-15.1821 -5.12086 -21.6138 -7.96593 -5.12086 -22.4661 -0.749782 -5.12086 -23.4305 
6.46637 -5.12086 -23.4624 13.6825 -5.12086 -22.7368 20.8987 -5.12086 -20.9119 
28.1148 -5.12086 -18.8364 -29.6144 2.09529 -21.0929 -22.3982 2.09529 -22.6464 
-15.1821 2.09529 -23.1209 -7.96593 2.09529 -24.5034 -0.749782 2.09529 -24.7543 
6.46637 2.09529 -23.9419 13.6825 2.09529 -23.1258 20.8987 2.09529 -21.6642 
28.1148 2.09529 -19.6603 -29.6144 9.31143 -20.7572 -22.3982 9.31143 -22.9881 
-15.1821 9.31143 -23.9008 -7.96593 9.31143 -24.451 -0.749782 9.31143 -24.0856 
6.46637 9.31143 -23.502 13.6825 9.31143 -23.1773 20.8987 9.31143 -22.0493 
28.1148 9.31143 -19.9061 -29.6144 16.5276 -19.5529 -22.3982 16.5276 -22.7644 
-15.1821 16.5276 -23.664 -7.96593 16.5276 -23.6492 -0.749782 16.5276 -22.9616 
6.46637 16.5276 -22.773 13.6825 16.5276 -22.6924 20.8987 16.5276 -21.6825 
28.1148 16.5276 -18.739 -22.3982 23.7437 -20.8351 -15.1821 23.7437 -23.0165 
-7.96593 23.7437 -23.221 -0.749782 23.7437 -22.9825 6.46637 23.7437 -22.3359 
13.6825 23.7437 -21.7354 20.8987 23.7437 -19.8286 -15.1821 30.9599 -20.6217 
-7.96593 30.9599 -21.7449 -0.749782 30.9599 -21.9039 6.46637 30.9599 -20.9519 
13.6825 30.9599 -19.3353 -0.749782 38.176 -17.9562 -22.3982 -33.9854 -13.0829 
-15.1821 -27.5024 -17.879 -15.1821 -33.9854 -14.1072 -7.96593 -33.9854 -13.5343 
-0.749782 -33.9854 -12.5239 6.46637 -33.9854 -12.1465 13.6825 -33.9854 -12.1751 
-29.6144 -20.308 -17.879 -29.6144 -26.7693 -14.8092 -21.3704 -26.7693 -17.879 
-22.3982 -26.5808 -17.879 -22.3982 -26.7693 -17.8146 -11.8773 -26.7693 -17.879 
-7.96593 -25.6147 -17.879 -7.96593 -26.7693 -17.452 -0.749782 -23.0426 -17.879 
-0.749782 -26.7693 -16.2322 6.46637 -22.2661 -17.879 6.46637 -26.7693 -15.6101 
13.6825 -21.6166 -17.879 13.6825 -26.7693 -15.5963 20.8987 -26.7693 -14.6877 
28.1148 -26.7693 -11.5644 -30.0945 -19.5532 -17.879 -36.8305 -19.5532 -12.2072 
18.8439 -19.5532 -17.879 20.8987 -18.4161 -17.879 20.8987 -19.5532 -17.5215 
28.1148 -19.5532 -14.8035 -33.0095 -12.337 -17.879 -36.8305 -12.337 -15.1415 
26.2682 -12.337 -17.879 28.1148 -9.46291 -17.879 28.1148 -12.337 -17.1987 
35.331 -12.337 -13.5964 -34.9733 -5.12086 -17.879 -36.8305 -5.12086 -16.4759 
30.3275 -5.12086 -17.879 35.331 -5.12086 -15.3821 -35.2165 2.09529 -17.879 
-36.8305 2.09529 -16.4039 32.0847 2.09529 -17.879 35.331 2.09529 -16.195 
-33.978 9.31143 -17.879 -36.8305 9.31143 -14.6314 31.8114 9.31143 -17.879 
35.331 9.31143 -15.4871 -31.7397 16.5276 -17.879 -29.6144 20.3412 -17.879 
29.4225 16.5276 -17.879 28.1148 18.6906 -17.879 35.331 16.5276 -12.5148 
-27.3147 23.7437 -17.879 -29.6144 23.7437 -15.3445 -22.3982 29.3021 -17.879 
24.4394 23.7437 -17.879 20.8987 27.2237 -17.879 28.1148 23.7437 -14.9841 
-20.6142 30.9599 -17.879 -22.3982 30.9599 -16.2681 -15.1821 34.8695 -17.879 
-7.96593 37.6521 -17.879 6.46637 36.1822 -17.879 16.7403 30.9599 -17.879 
13.6825 32.9847 -17.879 20.8987 30.9599 -14.5957 -15.1821 38.176 -13.3087 
-2.04343 38.176 -17.879 -7.96593 38.176 -17.338 -0.363203 38.176 -17.879 
-0.749782 38.2577 -17.879 6.46637 38.176 -15.741 -22.3982 -36.1139 -10.6629 
-15.1821 -37.5722 -10.6629 -7.96593 -37.2059 -10.6629 -7.96593 -41.2016 -3.466 
-0.749782 -36.2811 -10.6629 6.46637 -35.7617 -10.6629 13.6825 -35.9504 -10.6629 
-26.2082 -33.9854 -10.6629 -29.6144 -31.4724 -10.6629 -29.6144 -33.9854 -5.47235 
19.0781 -33.9854 -10.6629 20.8987 -33.1913 -10.6629 20.8987 -33.9854 -9.88046 
28.1148 -27.9772 -10.6629 -33.9498 -26.7693 -10.6629 -36.8305 -21.9497 -10.6629 
-36.8305 -26.7693 -4.08855 29.2432 -26.7693 -10.6629 -38.0192 -19.5532 -10.6629 
34.226 -19.5532 -10.6629 35.331 -18.0065 -10.6629 35.331 -19.5532 -9.58503 
-40.3683 -12.337 -10.6629 38.5873 -12.337 -10.6629 42.5471 -12.337 -5.10677 
-41.236 -5.12086 -10.6629 41.0568 -5.12086 -10.6629 42.5471 -5.12086 -8.68233 
-40.7836 2.09529 -10.6629 41.7003 2.09529 -10.6629 42.5471 2.09529 -9.42349 
-39.3115 9.31143 -10.6629 -36.8305 16.1384 -10.6629 40.169 9.31143 -10.6629 
42.5471 9.31143 -6.06582 -36.6838 16.5276 -10.6629 -36.8305 16.5276 -10.127 
36.8242 16.5276 -10.6629 35.331 18.7075 -10.6629 -32.4825 23.7437 -10.6629 
-29.6144 27.5397 -10.6629 31.6636 23.7437 -10.6629 28.1148 27.5334 -10.6629 
-26.5214 30.9599 -10.6629 -22.3982 34.8253 -10.6629 13.6825 38.1055 -10.6629 
24.3523 30.9599 -10.6629 20.8987 33.6972 -10.6629 -17.5691 38.176 -10.6629 
-15.1821 39.5747 -10.6629 -7.96593 42.2184 -10.6629 -0.749782 42.5509 -10.6629 
13.5273 38.176 -10.6629 6.46637 41.1334 -10.6629 13.6825 38.176 -10.2599 
-7.96593 -41.2095 -3.44675 -29.6144 -34.7051 -3.44675 -22.3982 -38.7402 -3.44675 
-8.24853 -41.2016 -3.44675 -15.1821 -40.9963 -3.44675 -7.42755 -41.2016 -3.44675 
-7.96593 -41.2016 -3.34092 -0.749782 -41.0976 -3.44675 6.46637 -40.9757 -3.44675 
13.6825 -40.3347 -3.44675 20.8987 -38.2605 -3.44675 -30.4512 -33.9854 -3.44675 
-36.8305 -27.0522 -3.44675 27.8773 -33.9854 -3.44675 28.1148 -33.8032 -3.44675 
28.1148 -33.9854 -0.93287 -37.0387 -26.7693 -3.44675 -36.8305 -26.7693 2.11051 
34.526 -26.7693 -3.44675 35.331 -25.7387 -3.44675 35.331 -26.7693 1.53159 
-40.6082 -19.5532 -3.44675 39.5286 -19.5532 -3.44675 42.5471 -14.108 -3.44675 
-42.7545 -12.337 -3.44675 43.4489 -12.337 -3.44675 -43.5332 -5.12086 -3.44675 
45.53 -5.12086 -3.44675 -43.0098 2.09529 -3.44675 45.5912 2.09529 -3.44675 
-41.3253 9.31143 -3.44675 43.6743 9.31143 -3.44675 42.5471 11.5448 -3.44675 
-38.4758 16.5276 -3.44675 -36.8305 19.4105 -3.44675 39.708 16.5276 -3.44675 
35.331 22.0876 -3.44675 -34.0675 23.7437 -3.44675 -29.6144 29.3956 -3.44675 
33.9034 23.7437 -3.44675 28.1148 29.5654 -3.44675 -28.13 30.9599 -3.44675 
-22.3982 36.1703 -3.44675 26.4591 30.9599 -3.44675 20.8987 35.1994 -3.44675 
-19.3968 38.176 -3.44675 -15.1821 40.5376 -3.44675 -7.96593 43.0898 -3.44675 
-0.749782 43.3949 -3.44675 6.46637 42.064 -3.44675 15.7738 38.176 -3.44675 
13.6825 39.2774 -3.44675 -29.6144 -34.3333 3.7694 -22.3982 -38.2174 3.7694 
-15.1821 -40.2569 3.7694 -7.96593 -40.6273 3.7694 -0.749782 -40.6192 3.7694 
6.46637 -40.5587 3.7694 13.6825 -39.9599 3.7694 20.8987 -37.9868 3.7694 
28.1148 -34.2544 3.7694 -30.0359 -33.9854 3.7694 -29.6144 -33.9854 4.55998 
20.8987 -33.9854 10.6187 28.4555 -33.9854 3.7694 28.1148 -33.9854 4.3155 
35.331 -27.1629 3.7694 -36.7557 -26.7693 3.7694 -36.8305 -26.6503 3.7694 
35.6734 -26.7693 3.7694 35.331 -26.7693 4.72687 -40.5848 -19.5532 3.7694 
40.8784 -19.5532 3.7694 42.5471 -16.6917 3.7694 -42.9463 -12.337 3.7694 
44.8038 -12.337 3.7694 -43.9016 -5.12086 3.7694 46.8647 -5.12086 3.7694 
-43.5204 2.09529 3.7694 46.6536 2.09529 3.7694 -41.8194 9.31143 3.7694 
44.4073 9.31143 3.7694 42.5471 12.546 3.7694 42.5471 9.31143 10.6239 
-38.6368 16.5276 3.7694 -36.8305 19.5924 3.7694 39.8663 16.5276 3.7694 
35.331 21.7174 3.7694 -34.0612 23.7437 3.7694 -29.6144 28.8981 3.7694 
33.3344 23.7437 3.7694 28.1148 28.6884 3.7694 -27.4107 30.9599 3.7694 
-22.3982 35.0313 3.7694 25.327 30.9599 3.7694 20.8987 34.2953 3.7694 
20.8987 30.9599 10.0771 -17.4829 38.176 3.7694 -15.1821 39.4431 3.7694 
-15.1821 38.176 6.44898 -7.96593 41.9005 3.7694 -0.749782 42.2618 3.7694 
6.46637 41.0715 3.7694 6.46637 38.176 10.088 14.0494 38.176 3.7694 
13.6825 38.3651 3.7694 13.6825 38.176 4.21446 -22.3982 -34.7996 10.9855 
-15.1821 -36.5574 10.9855 -7.96593 -36.7585 10.9855 -0.749782 -36.4515 10.9855 
6.46637 -36.1109 10.9855 13.6825 -35.6573 10.9855 -23.9327 -33.9854 10.9855 
-29.6144 -30.1453 10.9855 -22.3982 -33.9854 11.9431 -15.1821 -33.9854 13.8216 
-7.96593 -33.9854 14.1067 -0.749782 -33.9854 13.7863 6.46637 -33.9854 13.3857 
20.1008 -33.9854 10.9855 13.6825 -33.9854 12.8795 20.8987 -33.7395 10.9855 
28.1148 -30.0603 10.9855 -32.9923 -26.7693 10.9855 -36.8305 -20.9996 10.9855 
-29.6144 -26.7693 13.9762 -22.3982 -26.7693 17.3934 20.8987 -26.7693 17.5979 
32.2544 -26.7693 10.9855 28.1148 -26.7693 14.3829 35.331 -23.9641 10.9855 
-37.5956 -19.5532 10.9855 -36.8305 -19.5532 11.8946 -29.6144 -19.5532 17.3434 
39.0766 -19.5532 10.9855 35.331 -19.5532 15.5828 42.5471 -14.3063 10.9855 
-40.4653 -12.337 10.9855 -36.8305 -12.337 14.78 43.6346 -12.337 10.9855 
42.5471 -12.337 12.7912 -41.7482 -5.12086 10.9855 -36.8305 -5.12086 16.1009 
45.579 -5.12086 10.9855 42.5471 -5.12086 15.7548 -41.7809 2.09529 10.9855 
-36.8305 2.09529 16.4929 45.2433 2.09529 10.9855 42.5471 9.05089 10.9855 
42.5471 2.09529 15.2298 -40.3792 9.31143 10.9855 -36.8305 9.31143 15.2271 
42.4289 9.31143 10.9855 -36.9431 16.5276 10.9855 -36.8305 16.6971 10.9855 
-36.8305 16.5276 11.1509 -29.6144 16.5276 18.0084 28.1148 16.5276 17.2358 
36.8492 16.5276 10.9855 35.331 18.0581 10.9855 35.331 16.5276 12.6029 
-31.0925 23.7437 10.9855 -29.6144 25.2915 10.9855 -29.6144 23.7437 12.5252 
-22.3982 23.7437 17.3413 20.8987 30.3094 10.9855 20.8987 23.7437 15.9978 
29.0771 23.7437 10.9855 28.1148 24.5898 10.9855 28.1148 23.7437 11.8096 
-22.8132 30.9599 10.9855 -22.3982 31.2591 10.9855 -22.3982 30.9599 11.3238 
-15.1821 35.4336 10.9855 -15.1821 30.9599 15.1272 -7.96593 30.9599 17.4196 
-0.749782 30.9599 17.8042 6.46637 37.6549 10.9855 6.46637 30.9599 17.0709 
20.0048 30.9599 10.9855 13.6825 34.6975 10.9855 13.6825 30.9599 14.6571 
-8.14908 38.176 10.9855 -7.96593 38.2375 10.9855 -7.96593 38.176 11.059 
3.541 38.176 10.9855 -0.749782 38.8479 10.9855 -0.749782 38.176 11.8385 
-15.1821 -27.4238 18.2017 -7.96593 -28.3343 18.2017 -0.749782 -28.1756 18.2017 
6.46637 -28.0992 18.2017 13.6825 -27.3941 18.2017 -17.5258 -26.7693 18.2017 
[...]
POINT_DATA 482
SCALARS ImageScalars float
LOOKUP_TABLE default
0 0 0 0 0 0 0 0 0 
0 0 0 0 0 0 0 0 0 
0 0 0 0 0 0 0 0 0 
0 0 0 0 0 0 0 0 0 
0 0 0 0 0 0 0 0 0 
0 0 0 0 0 0 0 0 0 
0 0 0 0 0 0 0 0 0 
0 0 0 0 0 0 0 0 0 
0 0 0 0 0 0 0 0 0 
0 0 0 0 0 0 0 0 0 
0 0 0 0 0 0 0 0 0 
0 0 0 0 0 0 0 0 0 
0 0 0 0 0 0 0 0 0 
0 0 0 0 0 0 0 0 0 
0 0 0 0 0 0 0 0 0 
0 0 0 0 0 0 0 0 0 
0 0 0 0 0 0 0 0 0 
0 0 0 0 0 0 0 0 0 
0 0 0 0 0 0 0 0 0 
0 0 0 0 0 0 0 0 0 
0 0 0 0 0 0 0 0 0 
0 0 0 0 0 0 0 0 0 
0 0 0 0 0 0 0 0 0 
0 0 0 0 0 0 0 0 0 
0 0 0 0 0 0 0 0 0 
0 0 0 0 0 0 0 0 0 
0 0 0 0 0 0 0 0 0 
0 0 0 0 0 0 0 0 0 
0 0 0 0 0 0 0 0 0 
0 0 0 0 0 0 0 0 0 
0 0 0 0 0 0 0 0 0 
0 0 0 0 0 0 0 0 0 
0 0 0 0 0 0 0 0 0 
0 0 0 0 0 0 0 0 0 
0 0 0 0 0 0 0 0 0 
0 0 0 0 0 0 0 0 0 
0 0 0 0 0 0 0 0 0 
0 0 0 0 0 0 0 0 0 
0 0 0 0 0 0 0 0 0 
0 0 0 0 0 0 0 0 0 
0 0 0 0 0 0 0 0 0 
0 0 0 0 0 0 0 0 0 
0 0 0 0 0 0 0 0 0 
0 0 0 0 0 0 0 0 0 
0 0 0 0 0 0 0 0 0 
0 0 0 0 0 0 0 0 0 
0 0 0 0 0 0 0 0 0 
0 0 0 0 0 0 0 0 0 
0 0 0 0 0 0 0 0 0 
0 0 0 0 0 0 0 0 0 
0 0 0 0 0 0 0 0 0 
0 0 0 0 0 0 0 0 0 
0 0 0 0 0 0 0 0 0 
0 0 0 0 0 
NORMALS Normals float
-0.0227691 0.37579 0.926425 0.38265 0.260755 0.886333 0.148111 0.210515 0.966306 
0.00898015 0.172367 0.984992 -0.0571985 0.256043 0.964972 -0.0439702 0.434266 0.899711 
-0.0453357 0.482209 0.874882 -0.116203 0.395419 0.911121 0.323835 0.168514 0.930986 
0.0766941 0.117974 0.990051 0.0229523 0.0811607 0.996437 0.124467 0.162021 0.978906 
0.10669 0.24344 0.96403 -0.0625202 0.251393 0.965864 -0.210382 0.252682 0.9444 
-0.290461 0.218625 0.931577 0.290451 0.0896235 0.952683 0.0688284 0.107957 0.99177 
0.0588194 0.151472 0.98671 0.126229 0.21054 0.969401 0.0665476 0.133163 0.988857 
-0.0468105 0.0668423 0.996665 -0.171126 0.0868814 0.981411 -0.260106 0.124168 0.957563 
-0.331326 0.153939 0.930874 0.351187 0.0108894 0.936242 0.139077 0.0962891 0.985589 
0.123927 0.157668 0.979685 0.113859 0.136573 0.984065 -0.0396469 0.0465096 0.998131 
-0.111041 0.00337738 0.99381 -0.153411 0.0299134 0.98771 -0.234248 0.0757408 0.969222 
-0.341072 0.0708086 0.937366 0.433531 -0.0941995 0.896202 0.207788 0.00898919 0.978133 
0.0991846 0.0364065 0.994403 0.0131838 -0.0606576 0.998072 -0.0663963 -0.125805 0.989831 
-0.0625695 -0.0812021 0.994732 -0.0975653 -0.0309651 0.994747 -0.219342 0.00221996 0.975645 
-0.383282 -0.0512242 0.92221 0.541053 -0.262793 0.798875 0.249879 -0.135741 0.958715 
0.0556123 -0.0573246 0.996805 -0.0478707 -0.083614 0.995348 -0.0615791 -0.0748732 0.99529 
-0.0185623 -0.0784654 0.996744 -0.0693068 -0.0938826 0.993168 -0.246757 -0.133618 0.959822 
-0.474224 -0.247829 0.844803 0.38713 -0.340577 0.856819 0.150337 -0.192396 0.969733 
-0.00327757 -0.129447 0.991581 -0.0606402 -0.0739015 0.99542 -0.0828512 -0.122154 0.989047 
-0.152459 -0.216681 0.964264 -0.361404 -0.360794 0.859776 0.285263 -0.442604 0.850133 
0.0798132 -0.340203 0.936959 -0.0525171 -0.298772 0.952878 -0.167497 -0.325281 0.930665 
-0.31795 -0.468542 0.824243 -0.0595498 -0.690051 0.721307 0.276028 0.695137 0.663772 
-0.0227597 0.396902 0.917579 0.0185675 0.637562 0.770176 -0.0936344 0.606021 0.789919 
-0.0799668 0.576567 0.813127 -0.021543 0.566637 0.823686 -0.118566 0.561993 0.8186 
0.390418 0.279154 0.877295 0.499093 0.494503 0.711599 0.144685 0.38351 0.912133 
0.17175 0.378942 0.909343 0.173388 0.384499 0.906695 -0.0728458 0.385708 0.919741 
-0.120675 0.373735 0.919652 -0.129401 0.395413 0.909343 -0.0863808 0.422935 0.902034 
-0.116186 0.411673 0.903895 -0.0404554 0.459065 0.887481 -0.0408142 0.416476 0.90823 
-0.0939106 0.399221 0.912032 -0.057324 0.413377 0.908754 -0.229208 0.433216 0.871658 
-0.508422 0.484946 0.711572 0.401738 0.264157 0.876828 0.760518 0.345239 0.54993 
-0.200967 0.340302 0.918589 -0.245418 0.302127 0.921135 -0.23805 0.318042 0.917704 
-0.42788 0.330284 0.841327 0.478508 0.1824 0.85893 0.696702 0.198118 0.689461 
-0.342495 0.239198 0.90856 -0.350622 0.209848 0.912704 -0.365781 0.249372 0.89667 
-0.568071 0.299761 0.766445 0.553954 0.077115 0.828968 0.674771 0.0610978 0.735494 
-0.385244 0.153093 0.910027 -0.537084 0.148421 0.830368 0.61473 -0.045043 0.787451 
0.71831 -0.0714351 0.692046 -0.437466 0.040504 0.898322 -0.537048 0.00890563 0.843505 
0.627445 -0.15686 0.762698 0.793974 -0.215729 0.56839 -0.496001 -0.100373 0.862501 
-0.627998 -0.169026 0.759638 0.632538 -0.299481 0.714287 0.610746 -0.370098 0.700012 
-0.512016 -0.267894 0.816133 -0.507721 -0.316288 0.801362 -0.728097 -0.41349 0.546718 
0.575474 -0.422808 0.700045 0.691982 -0.482921 0.536609 0.497233 -0.524957 0.690782 
-0.472369 -0.417547 0.776223 -0.436145 -0.47945 0.761515 -0.610999 -0.517369 0.599174 
0.471989 -0.551275 0.687984 0.547131 -0.602197 0.581383 0.350561 -0.625161 0.697338 
0.150769 -0.668532 0.72824 -0.237509 -0.630288 0.739139 -0.401629 -0.529773 0.747017 
-0.353488 -0.563176 0.746913 -0.532585 -0.652197 0.539437 0.409015 -0.814448 0.41156 
-0.0224936 -0.69346 0.720144 0.158269 -0.708675 0.687554 -0.0700475 -0.693681 0.716868 
-0.0602807 -0.693625 0.717809 -0.266147 -0.779003 0.567732 0.308331 0.791239 0.528084 
0.065707 0.791731 0.607325 -0.0664473 0.73766 0.671894 0.00654014 0.985428 0.169966 
-0.0735625 0.669295 0.739347 -0.0172514 0.652285 0.757778 -0.117224 0.65919 0.742784 
0.449083 0.728902 0.516746 0.574138 0.654798 0.491533 0.620879 0.752367 0.220123 
-0.295369 0.615661 0.73056 -0.340627 0.604174 0.72038 -0.36308 0.652056 0.665579 
-0.523151 0.523146 0.672779 0.69495 0.531225 0.484608 0.781555 0.40641 0.473289 
0.820558 0.549745 0.156411 -0.549109 0.498204 0.671023 0.807954 0.351943 0.472596 
-0.607627 0.419097 0.674646 -0.626046 0.407623 0.664763 -0.654449 0.441501 0.613819 
0.860399 0.190046 0.47286 -0.682917 0.321019 0.656179 -0.842586 0.355822 0.404276 
0.892781 0.0237441 0.449864 -0.733257 0.159962 0.660868 -0.811659 0.158578 0.562195 
0.898096 -0.117077 0.42393 -0.779688 -0.052159 0.623992 -0.826797 -0.0675044 0.558435 
0.88478 -0.256197 0.389265 0.858487 -0.382741 0.341333 -0.783786 -0.255106 0.566216 
-0.879959 -0.327399 0.344211 0.856168 -0.390013 0.33892 0.861069 -0.394411 0.320936 
-0.762431 -0.445328 0.469448 -0.752885 -0.483392 0.446651 0.787081 -0.529366 0.316663 
0.739834 -0.601369 0.301664 -0.709196 -0.586702 0.390925 -0.655055 -0.660029 0.367784 
0.679109 -0.672748 0.293635 0.602573 -0.741362 0.295446 -0.430037 -0.850407 0.30311 
-0.604688 -0.719066 0.342486 -0.558401 -0.759076 0.334651 0.478838 -0.829542 0.287357 
0.422925 -0.860114 0.285198 0.185805 -0.934367 0.30403 -0.0707709 -0.95105 0.300825 
-0.426555 -0.852331 0.302626 -0.274711 -0.912127 0.304232 -0.430395 -0.856119 0.286043 
0.00671824 0.985624 0.168817 0.622373 0.772911 0.123534 0.375052 0.920144 0.112568 
0.0129129 0.985816 0.167334 0.160791 0.978317 0.130544 0.00504776 0.985183 0.171435 
0.00692686 0.986621 0.162884 -0.0154691 0.978706 0.204682 -0.0493801 0.973774 0.222094 
-0.170729 0.967248 0.187836 -0.38932 0.89634 0.212145 0.646922 0.752252 0.124935 
0.820741 0.556707 0.128302 -0.600046 0.753785 0.267868 -0.607542 0.747297 0.269147 
-0.606017 0.787595 0.111521 0.8255 0.549575 0.128519 0.818992 0.563316 -0.109209 
-0.747891 0.596636 0.291005 -0.758465 0.578921 0.299301 -0.760677 0.648223 0.0343168 
0.917594 0.370502 0.14405 -0.813412 0.485248 0.320774 -0.85732 0.394093 0.3312 
0.969936 0.187226 0.155469 -0.870094 0.360928 0.33566 0.985633 0.0170595 0.168035 
-0.93118 0.145274 0.334364 0.974214 -0.144787 0.173041 -0.948561 -0.118626 0.29353 
0.942411 -0.297435 0.15295 -0.907229 -0.347419 0.237142 -0.884143 -0.413296 0.217893 
0.89165 -0.436975 0.118377 0.864636 -0.490782 0.107418 -0.813552 -0.558422 0.162164 
-0.757128 -0.645025 0.103443 0.815795 -0.571787 0.08682 0.739627 -0.670799 0.0545907 
-0.739309 -0.668284 0.0825773 -0.662095 -0.747858 0.0483627 0.710871 -0.701985 0.043364 
0.605941 -0.795488 0.0057717 -0.637716 -0.76919 0.0408007 -0.556968 -0.830022 0.029145 
0.526403 -0.850231 -0.00263405 0.424919 -0.905156 -0.0116696 0.183953 -0.982664 -0.0230668 
-0.0690733 -0.997386 -0.0212067 -0.26534 -0.96413 -0.00688404 -0.459326 -0.888104 0.0170367 
-0.422549 -0.906258 0.0122172 0.592963 0.778243 -0.20672 0.3571 0.906837 -0.223891 
0.153933 0.95353 -0.259007 0.0230191 0.964599 -0.262715 -0.00434419 0.962638 -0.270756 
-0.040809 0.958831 -0.28103 -0.154284 0.946116 -0.284713 -0.353026 0.904411 -0.239612 
-0.562102 0.804714 -0.19099 0.606619 0.768091 -0.205062 0.592107 0.76929 -0.240006 
-0.306997 0.755843 -0.57832 -0.571587 0.798698 -0.188071 -0.557219 0.801275 -0.217867 
-0.744686 0.662343 -0.0821184 0.807589 0.561677 -0.179774 0.809974 0.558378 -0.17932 
-0.750285 0.656405 -0.0787683 -0.737749 0.663096 -0.126607 0.904089 0.394033 -0.16541 
-0.846301 0.532568 -0.0120806 -0.883832 0.467786 0.00421569 0.968625 0.21266 -0.128614 
-0.929962 0.367317 0.0157655 0.994559 0.0382645 -0.0968973 -0.991556 0.129591 0.00483403 
0.98817 -0.137113 -0.068698 -0.987364 -0.15755 -0.0170202 0.948803 -0.311785 -0.0506188 
-0.912572 -0.403327 -0.0673721 -0.861073 -0.500611 -0.0891205 -0.816197 -0.43285 -0.382707 
0.882939 -0.461948 -0.0838057 0.84934 -0.518274 -0.100071 -0.780206 -0.611573 -0.131367 
-0.711769 -0.678401 -0.18209 0.78396 -0.606005 -0.134776 0.699029 -0.692745 -0.17738 
-0.689864 -0.694335 -0.204907 -0.632556 -0.737551 -0.236413 0.656791 -0.727217 -0.199451 
0.568542 -0.784485 -0.247675 -0.600581 -0.76192 -0.242447 -0.541323 -0.804656 -0.243923 
-0.510643 -0.68633 -0.517875 0.45858 -0.846959 -0.269006 0.40517 -0.871989 -0.274721 
0.394505 -0.836172 -0.381027 0.180756 -0.93916 -0.292071 -0.0554091 -0.958011 -0.281328 
-0.245284 -0.933661 -0.260986 -0.226204 -0.825348 -0.517332 -0.414077 -0.876709 -0.244788 
-0.407701 -0.879579 -0.245196 -0.406827 -0.875001 -0.26242 0.319029 0.760699 -0.565295 
0.111573 0.799583 -0.5901 -0.00605079 0.802376 -0.596788 -0.036934 0.792788 -0.608377 
-0.0459481 0.781033 -0.622797 -0.123214 0.776756 -0.617631 0.366222 0.740221 -0.563874 
0.541981 0.633834 -0.551826 0.313686 0.729044 -0.608355 0.106975 0.699179 -0.706898 
-0.00131632 0.702088 -0.712089 -0.0365827 0.714687 -0.698487 -0.0462664 0.722708 -0.689604 
-0.284116 0.749083 -0.598459 -0.125738 0.729267 -0.672577 -0.302158 0.743547 -0.596521 
-0.456506 0.708678 -0.537938 0.638938 0.547262 -0.540612 0.744873 0.413867 -0.523334 
0.507367 0.511949 -0.693172 0.243327 0.407455 -0.880211 -0.216394 0.53539 -0.816414 
-0.567635 0.666844 -0.482814 -0.422165 0.632426 -0.649472 -0.649637 0.624314 -0.433825 
0.760747 0.383984 -0.523278 0.73149 0.374809 -0.569596 0.399729 0.243519 -0.883694 
-0.737723 0.555018 -0.384344 -0.576934 0.524645 -0.626016 -0.836004 0.420208 -0.352877 
0.812757 0.238333 -0.531623 0.63206 0.214227 -0.744719 -0.860268 0.373401 -0.347146 
-0.814477 0.37034 -0.446627 0.85985 0.0791286 -0.504377 0.596595 0.098596 -0.796463 
-0.927282 0.104997 -0.359339 -0.781593 0.0961209 -0.616339 0.887536 -0.0826058 -0.453272 
0.622991 -0.0415332 -0.781125 -0.907879 -0.190502 -0.37345 -0.813011 -0.42405 -0.398992 
-0.782456 -0.193297 -0.591945 0.861251 -0.287416 -0.419094 0.700521 -0.23956 -0.672221 
-0.807237 -0.433383 -0.400683 0.784148 -0.481974 -0.390914 0.781638 -0.485282 -0.391846 
0.780456 -0.480814 -0.399633 0.418689 -0.360789 -0.833385 -0.340739 -0.509295 -0.790263 
-0.6191 -0.630061 -0.468762 -0.596859 -0.642704 -0.480303 -0.5664 -0.624055 -0.538281 
0.634965 -0.61262 -0.470655 0.606891 -0.631513 -0.482571 0.584088 -0.600633 -0.545968 
0.351808 -0.469162 -0.810011 -0.494669 -0.660123 -0.565279 -0.367714 -0.471198 -0.801722 
-0.542576 -0.635621 -0.549179 -0.533894 -0.638084 -0.554803 -0.518994 -0.622995 -0.585254 
0.482173 -0.697965 -0.529484 0.474923 -0.700919 -0.532128 0.470068 -0.694004 -0.545339 
0.355119 -0.727753 -0.586742 0.301221 -0.589625 -0.749406 0.143768 -0.503002 -0.852244 
-0.020882 -0.501378 -0.864976 -0.219916 -0.797217 -0.562212 -0.170843 -0.518952 -0.837557 
-0.486056 -0.667972 -0.563527 -0.375985 -0.727255 -0.574226 -0.33971 -0.586498 -0.735267 
0.182197 -0.785662 -0.591218 0.177429 -0.786592 -0.591432 0.177409 -0.784534 -0.594166 
-0.144902 -0.810934 -0.566912 -0.0329156 -0.815213 -0.578225 -0.0294881 -0.791765 -0.610114 
0.104937 0.412067 -0.905091 0.0253803 0.442294 -0.896511 -0.00899554 0.48801 -0.872792 
-0.0324656 0.513246 -0.857627 -0.0874273 0.509789 -0.855845 0.147269 0.392675 -0.90781 
0.227657 0.326803 -0.917263 0.105904 0.389503 -0.914916 0.0299384 0.384305 -0.922721 
-0.000594713 0.4429 -0.896571 -0.0279133 0.470645 -0.881881 -0.142602 0.51029 -0.848097 
-0.0851304 0.490521 -0.867261 -0.201482 0.494092 -0.845741 -0.309223 0.47812 -0.82206 
0.325877 0.21547 -0.92053 0.342583 0.167209 -0.924488 0.217587 0.187813 -0.957801 
0.0856447 0.15111 -0.9848 0.0651239 0.205817 -0.976421 0.0484303 0.271501 -0.961219 
-0.0114777 0.250868 -0.967953 -0.0591624 0.242219 -0.968416 -0.126664 0.288691 -0.949007 
-0.383363 0.458922 -0.801513 -0.268285 0.416465 -0.868666 -0.48622 0.376463 -0.788585 
0.347582 0.145162 -0.926345 0.322982 0.142303 -0.935645 0.155995 0.0618734 -0.985818 
0.126033 0.0712302 -0.989465 0.165728 0.189104 -0.967871 0.0540185 0.240706 -0.969094 
-0.0633037 0.180795 -0.981481 -0.053646 0.123499 -0.990894 -0.0410503 0.162779 -0.985808 
-0.169701 0.227608 -0.958852 -0.523476 0.309957 -0.793662 -0.442718 0.289085 -0.848782 
0.40108 0.107487 -0.909715 0.274336 0.10373 -0.956023 0.133039 0.0808524 -0.987807 
0.210881 0.104522 -0.971907 0.230854 0.0691839 -0.970526 0.0417251 0.0283044 -0.998728 
-0.131895 0.109198 -0.985231 -0.0773718 0.110674 -0.99084 -0.00848522 0.0894825 -0.995952 
-0.133652 0.0868789 -0.987213 -0.611507 0.093906 -0.785646 -0.393833 0.0984371 -0.913896 
0.462032 -0.0119391 -0.886783 0.285734 0.0120428 -0.958233 0.16476 0.069127 -0.983908 
0.121642 0.0547429 -0.991063 0.0864918 -0.0986049 -0.991361 0.0949355 -0.176254 -0.979756 
0.0170186 -0.0558879 -0.998292 -0.0717092 -0.00664588 -0.997403 -0.0673878 -0.0640243 -0.99567 
-0.16595 -0.126488 -0.977988 -0.603709 -0.180799 -0.776433 -0.415919 -0.162331 -0.894796 
0.478863 -0.161456 -0.862915 0.411046 -0.337808 -0.846715 0.364173 -0.131902 -0.921943 
0.171024 -0.0737062 -0.982506 0.046785 -0.0676289 -0.996613 0.00573714 -0.0925617 -0.99569 
0.0863902 -0.0955698 -0.991667 0.0337061 -0.157259 -0.986982 -0.0918491 -0.20883 -0.973629 
-0.131705 -0.272362 -0.953139 -0.305358 -0.47083 -0.827693 -0.234578 -0.351538 -0.906308 
-0.460987 -0.413165 -0.785357 -0.450589 -0.422388 -0.786485 -0.446445 -0.410494 -0.795098 
0.40078 -0.351774 -0.84595 0.309894 -0.410133 -0.857763 0.220757 -0.264221 -0.938858 
0.104285 -0.206702 -0.97283 0.0573 -0.128337 -0.990074 0.0251578 -0.109831 -0.993632 
-0.0897962 -0.212176 -0.973097 -0.187472 -0.293085 -0.937526 -0.282167 -0.450328 -0.847105 
-0.267433 -0.400713 -0.876304 -0.215582 -0.37813 -0.900301 0.283103 -0.424488 -0.860036 
0.215398 -0.428761 -0.877364 0.182316 -0.366398 -0.912422 0.131761 -0.443715 -0.886429 
0.102266 -0.281573 -0.954075 -0.0199962 -0.473545 -0.880542 -0.00224399 -0.278553 -0.960418 
-0.162675 -0.445447 -0.880406 -0.153854 -0.322796 -0.93388 -0.271549 -0.369443 -0.888692 
-0.262071 -0.375752 -0.888892 -0.256258 -0.353998 -0.899454 
