# vtk DataFile Version 4.2
vtk output
ASCII
DATASET POLYDATA
POINTS 558 float
-41.8911 -25.1851 -16.1409 -34.6708 -25.1851 -16.5167 -27.4505 -25.1851 -15.8186 
-20.2302 -25.1851 -14.407 1.43073 -25.1851 -14.2051 -49.1115 -17.9647 -14.7024 
-41.8911 -17.9647 -18.741 -34.6708 -17.9647 -19.2792 -27.4505 -17.9647 -18.8027 
-20.2302 -17.9647 -16.9547 -13.0099 -17.9647 -15.0251 -5.78958 -17.9647 -15.7301 
1.43073 -17.9647 -16.3584 8.65104 -17.9647 -15.7197 15.8714 -17.9647 -15.1412 
-49.1115 -10.7444 -16.8409 -41.8911 -10.7444 -19.7745 -34.6708 -10.7444 -20.8505 
-27.4505 -10.7444 -20.7078 -20.2302 -10.7444 -19.3135 -13.0099 -10.7444 -17.3251 
-5.78958 -10.7444 -18.6463 1.43073 -10.7444 -17.8878 8.65104 -10.7444 -16.6672 
15.8714 -10.7444 -17.5052 23.0917 -10.7444 -15.81 30.312 -10.7444 -14.275 
-49.1115 -3.52412 -16.5651 -41.8911 -3.52412 -19.6801 -34.6708 -3.52412 -20.9929 
-27.4505 -3.52412 -20.9165 -20.2302 -3.52412 -19.9246 -13.0099 -3.52412 -18.7057 
-5.78958 -3.52412 -19.094 1.43073 -3.52412 -17.6824 8.65104 -3.52412 -18.2668 
15.8714 -3.52412 -17.5742 23.0917 -3.52412 -16.5577 30.312 -3.52412 -16.1038 
37.5323 -3.52412 -15.1328 -49.1115 3.69619 -15.5437 -41.8911 3.69619 -18.7661 
-34.6708 3.69619 -19.9521 -27.4505 3.69619 -19.9636 -20.2302 3.69619 -18.8813 
-13.0099 3.69619 -17.8124 -5.78958 3.69619 -19.29 1.43073 3.69619 -19.3819 
8.65104 3.69619 -19.1352 15.8714 3.69619 -16.4048 23.0917 3.69619 -16.2449 
30.312 3.69619 -16.9904 37.5323 3.69619 -16.2717 44.7526 3.69619 -14.4035 
-49.1115 10.9165 -14.0168 -41.8911 10.9165 -17.8017 -34.6708 10.9165 -19.1439 
-27.4505 10.9165 -19.1977 -20.2302 10.9165 -18.5064 -13.0099 10.9165 -18.2192 
-5.78958 10.9165 -19.068 1.43073 10.9165 -18.2487 8.65104 10.9165 -18.4149 
15.8714 10.9165 -17.5175 23.0917 10.9165 -17.2082 30.312 10.9165 -17.2531 
37.5323 10.9165 -16.4013 44.7526 10.9165 -14.822 -41.8911 18.1368 -15.9115 
-34.6708 18.1368 -17.5334 -27.4505 18.1368 -18.113 -20.2302 18.1368 -18.5038 
-13.0099 18.1368 -18.5948 -5.78958 18.1368 -18.8994 1.43073 18.1368 -18.9058 
8.65104 18.1368 -19.1016 15.8714 18.1368 -18.5853 23.0917 18.1368 -17.2678 
30.312 18.1368 -16.1224 37.5323 18.1368 -14.8408 -34.6708 25.3571 -14.261 
-27.4505 25.3571 -16.2702 -20.2302 25.3571 -17.141 -13.0099 25.3571 -17.8557 
-5.78958 25.3571 -18.698 1.43073 25.3571 -19.2063 8.65104 25.3571 -19.1029 
15.8714 25.3571 -18.1246 23.0917 25.3571 -15.6713 -13.0099 32.5774 -14.8402 
-5.78958 32.5774 -16.3543 1.43073 32.5774 -16.9124 8.65104 32.5774 -15.8849 
-41.8911 -28.4383 -13.8792 -41.8911 -32.4054 -9.69796 -34.6708 -30.6443 -13.8792 
-34.6708 -32.4054 -12.8313 -27.4505 -30.4579 -13.8792 -27.4505 -32.4054 -12.8958 
-20.2302 -26.5128 -13.8792 -20.2302 -32.4054 -11.1574 -13.0099 -32.4054 -10.1127 
-5.78958 -32.4054 -9.37136 1.43073 -25.7271 -13.8792 1.43073 -32.4054 -8.33445 
-45.6599 -25.1851 -13.8792 -49.1115 -19.7515 -13.8792 -49.1115 -25.1851 -10.1097 
-16.491 -25.1851 -13.8792 -13.0099 -23.0665 -13.8792 -13.0099 -25.1851 -13.3864 
-4.25444 -25.1851 -13.8792 -5.78958 -24.8676 -13.8792 -5.78958 -25.1851 -13.7919 
3.63679 -25.1851 -13.8792 8.65104 -23.1655 -13.8792 8.65104 -25.1851 -13.0222 
15.8714 -20.3185 -13.8792 15.8714 -25.1851 -10.6795 23.0917 -25.1851 -8.40107 
30.312 -25.1851 -7.18498 -50.0347 -17.9647 -13.8792 20.1809 -17.9647 -13.8792 
23.0917 -15.8032 -13.8792 23.0917 -17.9647 -12.9442 30.312 -11.6327 -13.8792 
30.312 -17.9647 -10.9014 37.5323 -17.9647 -9.34066 44.7526 -17.9647 -7.12099 
-52.1308 -10.7444 -13.8792 32.3853 -10.7444 -13.8792 37.5323 -7.61342 -13.8792 
37.5323 -10.7444 -12.8322 44.7526 -10.7444 -10.7487 51.9729 -10.7444 -7.28283 
-52.0601 -3.52412 -13.8792 43.433 -3.52412 -13.8792 44.7526 -0.992989 -13.8792 
44.7526 -3.52412 -13.5734 51.9729 -3.52412 -10.6564 59.1932 -3.52412 -7.07954 
-51.059 3.69619 -13.8792 46.1752 3.69619 -13.8792 51.9729 3.69619 -11.5787 
59.1932 3.69619 -6.88137 -49.2712 10.9165 -13.8792 -49.1115 11.235 -13.8792 
46.6884 10.9165 -13.8792 44.7526 14.0747 -13.8792 51.9729 10.9165 -10.6249 
-44.9901 18.1368 -13.8792 -49.1115 18.1368 -9.60601 -41.8911 21.6175 -13.8792 
30.312 24.0844 -13.8792 40.4945 18.1368 -13.8792 37.5323 20.0753 -13.8792 
44.7526 18.1368 -12.2579 51.9729 18.1368 -7.02631 -35.5947 25.3571 -13.8792 
-41.8911 25.3571 -10.4335 -34.6708 25.887 -13.8792 -27.4505 29.4433 -13.8792 
-20.2302 31.5329 -13.8792 15.8714 32.1663 -13.8792 28.6619 25.3571 -13.8792 
23.0917 27.8813 -13.8792 30.312 25.3571 -13.1531 37.5323 25.3571 -9.83865 
-34.6708 32.5774 -6.90776 -27.4505 32.5774 -10.8985 -17.5034 32.5774 -13.8792 
-20.2302 32.5774 -13.1517 -13.0099 33.7646 -13.8792 -5.78958 35.4951 -13.8792 
1.43073 35.8859 -13.8792 14.8875 32.5774 -13.8792 8.65104 34.5117 -13.8792 
15.8714 32.5774 -13.031 -41.8911 -34.9091 -6.6589 -34.6708 -38.293 -6.6589 
-27.4505 -37.9109 -6.6589 -27.4505 -39.6257 -1.8664 -20.2302 -37.144 -6.6589 
-13.0099 -35.8911 -6.6589 -5.78958 -34.8071 -6.6589 1.43073 -33.6269 -6.6589 
-45.6038 -32.4054 -6.6589 -49.1115 -28.7974 -6.6589 5.37787 -32.4054 -6.6589 
8.65104 -31.2888 -6.6589 8.65104 -32.4054 -4.50036 15.8714 -29.3778 -6.6589 
15.8714 -32.4054 -2.75348 23.0917 -27.2819 -6.6589 23.0917 -32.4054 -1.91981 
30.312 -26.0378 -6.6589 30.312 -32.4054 0.00808034 37.5323 -32.4054 0.450845 
-51.7925 -25.1851 -6.6589 32.1156 -25.1851 -6.6589 37.5323 -22.4568 -6.6589 
37.5323 -25.1851 -4.92499 44.7526 -18.6953 -6.6589 44.7526 -25.1851 -3.22551 
-54.1314 -17.9647 -6.6589 46.1396 -17.9647 -6.6589 51.9729 -12.3785 -6.6589 
51.9729 -17.9647 -3.66021 -55.469 -10.7444 -6.6589 52.9009 -10.7444 -6.6589 
59.1932 -4.35257 -6.6589 59.1932 -10.7444 -1.79514 -56.1115 -3.52412 -6.6589 
59.6032 -3.52412 -6.6589 -55.6847 3.69619 -6.6589 -56.3318 3.69619 -0.925645 
59.384 3.69619 -6.6589 59.1932 4.51419 -6.6589 -54.5448 10.9165 -6.6589 
56.987 10.9165 -6.6589 59.1932 10.9165 -0.499574 -51.4566 18.1368 -6.6589 
-49.1115 21.1636 -6.6589 44.7526 24.5281 -6.6589 52.2321 18.1368 -6.6589 
51.9729 18.3976 -6.6589 -45.3629 25.3571 -6.6589 -41.8911 28.2605 -6.6589 
23.0917 32.0301 -6.6589 30.312 29.9048 -6.6589 43.0851 25.3571 -6.6589 
37.5323 27.6865 -6.6589 44.7526 25.3571 -1.68656 -34.9525 32.5774 -6.6589 
-34.6708 32.7412 -6.6589 -27.4505 35.5323 -6.6589 -20.2302 37.5087 -6.6589 
-13.0099 38.5856 -6.6589 -5.78958 38.8083 -6.6589 1.43073 38.1618 -6.6589 
8.65104 36.5871 -6.6589 21.4897 32.5774 -6.6589 15.8714 34.5091 -6.6589 
23.0917 32.5774 -4.15144 -13.0099 39.7978 -1.81366 -27.4505 -40.3125 0.561408 
-41.8911 -35.6658 0.561408 -30.9397 -39.6257 0.561408 -34.6708 -38.9148 0.561408 
-20.7731 -39.6257 0.561408 -27.4505 -39.6257 2.20412 -20.2302 -39.5713 0.561408 
-13.0099 -38.3244 0.561408 -5.78958 -37.2946 0.561408 1.43073 -35.8306 0.561408 
8.65104 -34.6604 0.561408 15.8714 -34.2833 0.561408 23.0917 -34.2275 0.561408 
30.312 -32.7748 0.561408 37.5323 -32.4874 0.561408 -46.1656 -32.4054 0.561408 
-49.1115 -28.4191 0.561408 -41.8911 -32.4054 5.0786 37.7477 -32.4054 0.561408 
44.7526 -29.4271 0.561408 -51.113 -25.1851 0.561408 -49.1115 -25.1851 2.91836 
50.9503 -25.1851 0.561408 51.9729 -23.6365 0.561408 51.9729 -25.1851 2.4706 
-53.5939 -17.9647 0.561408 -49.1115 -17.9647 6.00114 57.9349 -17.9647 0.561408 
59.1932 -16.2595 0.561408 -55.2011 -10.7444 0.561408 60.7261 -10.7444 0.561408 
-56.0075 -3.52412 0.561408 -56.3318 1.24359 0.561408 62.1059 -3.52412 0.561408 
-56.5034 3.69619 0.561408 -56.3318 4.92202 0.561408 -56.3318 3.69619 0.960308 
61.9165 3.69619 0.561408 -55.5326 10.9165 0.561408 59.4729 10.9165 0.561408 
59.1932 11.4647 0.561408 59.1932 10.9165 1.40458 -52.5429 18.1368 0.561408 
-49.1115 22.8869 0.561408 54.8526 18.1368 0.561408 51.9729 20.8106 0.561408 
51.9729 18.1368 6.84961 -46.9475 25.3571 0.561408 -41.8911 29.7737 0.561408 
30.312 31.5497 0.561408 37.5323 29.4757 0.561408 45.2578 25.3571 0.561408 
44.7526 25.6496 0.561408 44.7526 25.3571 1.82117 -37.7381 32.5774 0.561408 
-34.6708 34.5194 0.561408 -34.6708 32.5774 7.5713 -27.4505 37.9882 0.561408 
-20.2302 39.7808 0.561408 -5.78958 39.7801 0.561408 1.43073 38.8767 0.561408 
8.65104 37.3833 0.561408 15.8714 35.7086 0.561408 26.7384 32.5774 0.561408 
23.0917 33.6113 0.561408 -20.0265 39.7978 0.561408 -6.01066 39.7978 0.561408 
-13.0099 40.3506 0.561408 -13.0099 39.7978 5.802 -34.6708 -34.6413 7.78172 
-27.4505 -36.21 7.78172 -20.2302 -36.4502 7.78172 -13.0099 -36.1066 7.78172 
-5.78958 -35.5764 7.78172 1.43073 -35.0111 7.78172 8.65104 -34.6082 7.78172 
15.8714 -34.8054 7.78172 23.0917 -35.4573 7.78172 30.312 -35.886 7.78172 
37.5323 -34.7253 7.78172 -38.4324 -32.4054 7.78172 -41.8911 -28.8268 7.78172 
-34.6708 -32.4054 9.59883 -27.4505 -32.4054 11.1044 -20.2302 -32.4054 11.4581 
-13.0099 -32.4054 11.5127 -5.78958 -32.4054 11.4947 1.43073 -32.4054 11.5096 
8.65104 -32.4054 11.0734 15.8714 -32.4054 12.0486 23.0917 -32.4054 12.8341 
30.312 -32.4054 14.0134 44.6551 -32.4054 7.78172 37.5323 -32.4054 14.3634 
44.7526 -32.3684 7.78172 51.9729 -27.419 7.78172 -44.3857 -25.1851 7.78172 
-41.8911 -25.1851 9.42425 -34.6708 -25.1851 12.8774 -27.4505 -25.1851 13.5502 
-20.2302 -25.1851 14.1255 -13.0099 -25.1851 14.4658 -5.78958 -25.1851 14.4449 
1.43073 -25.1851 14.5776 8.65104 -25.1851 14.7811 54.0515 -25.1851 7.78172 
51.9729 -25.1851 11.1729 -46.7493 -17.9647 7.78172 -49.1115 -13.3164 7.78172 
-41.8911 -17.9647 10.5814 -34.6708 -17.9647 13.1025 -27.4505 -17.9647 14.1599 
-13.0099 -17.9647 14.8727 -5.78958 -17.9647 14.5708 58.1594 -17.9647 7.78172 
59.1932 -14.7652 7.78172 -50.2387 -10.7444 7.78172 -49.1115 -10.7444 8.54999 
-41.8911 -10.7444 12.531 -34.6708 -10.7444 13.9897 -27.4505 -10.7444 14.3918 
-20.2302 -10.7444 14.3851 -13.0099 -10.7444 14.3706 -5.78958 -10.7444 13.6862 
60.531 -10.7444 7.78172 59.1932 -10.7444 9.65576 -51.7475 -3.52412 7.78172 
-49.1115 -3.52412 10.1875 -41.8911 -3.52412 13.5326 -20.2302 -3.52412 14.6517 
15.8714 -3.52412 14.5258 60.7871 -3.52412 7.78172 59.1932 -3.52412 9.55945 
-53.1234 3.69619 7.78172 -49.1115 3.69619 11.676 -41.8911 3.69619 14.9258 
[...]
POINT_DATA 558
SCALARS ImageScalars float
LOOKUP_TABLE default
0 0 0 0 0 0 0 0 0 
0 0 0 0 0 0 0 0 0 
0 0 0 0 0 0 0 0 0 
0 0 0 0 0 0 0 0 0 
0 0 0 0 0 0 0 0 0 
0 0 0 0 0 0 0 0 0 
0 0 0 0 0 0 0 0 0 
0 0 0 0 0 0 0 0 0 
0 0 0 0 0 0 0 0 0 
0 0 0 0 0 0 0 0 0 
0 0 0 0 0 0 0 0 0 
0 0 0 0 0 0 0 0 0 
0 0 0 0 0 0 0 0 0 
0 0 0 0 0 0 0 0 0 
0 0 0 0 0 0 0 0 0 
0 0 0 0 0 0 0 0 0 
0 0 0 0 0 0 0 0 0 
0 0 0 0 0 0 0 0 0 
0 0 0 0 0 0 0 0 0 
0 0 0 0 0 0 0 0 0 
0 0 0 0 0 0 0 0 0 
0 0 0 0 0 0 0 0 0 
0 0 0 0 0 0 0 0 0 
0 0 0 0 0 0 0 0 0 
0 0 0 0 0 0 0 0 0 
0 0 0 0 0 0 0 0 0 
0 0 0 0 0 0 0 0 0 
0 0 0 0 0 0 0 0 0 
0 0 0 0 0 0 0 0 0 
0 0 0 0 0 0 0 0 0 
0 0 0 0 0 0 0 0 0 
0 0 0 0 0 0 0 0 0 
0 0 0 0 0 0 0 0 0 
0 0 0 0 0 0 0 0 0 
0 0 0 0 0 0 0 0 0 
0 0 0 0 0 0 0 0 0 
0 0 0 0 0 0 0 0 0 
0 0 0 0 0 0 0 0 0 
0 0 0 0 0 0 0 0 0 
0 0 0 0 0 0 0 0 0 
0 0 0 0 0 0 0 0 0 
0 0 0 0 0 0 0 0 0 
0 0 0 0 0 0 0 0 0 
0 0 0 0 0 0 0 0 0 
0 0 0 0 0 0 0 0 0 
0 0 0 0 0 0 0 0 0 
0 0 0 0 0 0 0 0 0 
0 0 0 0 0 0 0 0 0 
0 0 0 0 0 0 0 0 0 
0 0 0 0 0 0 0 0 0 
0 0 0 0 0 0 0 0 0 
0 0 0 0 0 0 0 0 0 
0 0 0 0 0 0 0 0 0 
0 0 0 0 0 0 0 0 0 
0 0 0 0 0 0 0 0 0 
0 0 0 0 0 0 0 0 0 
0 0 0 0 0 0 0 0 0 
0 0 0 0 0 0 0 0 0 
0 0 0 0 0 0 0 0 0 
0 0 0 0 0 0 0 0 0 
0 0 0 0 0 0 0 0 0 
0 0 0 0 0 0 0 0 0 

NORMALS Normals float
0.265059 0.452746 0.851331 -0.018306 0.41122 0.911352 -0.1337 0.36173 0.922646 
-0.150804 0.337192 0.929279 -0.0400847 0.422757 0.905356 0.609308 0.318565 0.726127 
0.275996 0.261727 0.924838 0.000615475 0.275339 0.961347 -0.150615 0.317212 0.936318 
-0.25069 0.325607 0.911666 -0.0807481 0.248347 0.9653 0.0944635 0.313874 0.944754 
-0.000779657 0.231819 0.972759 -0.0802931 0.224212 0.971227 -0.167405 0.402052 0.900183 
0.601179 0.110882 0.791384 0.250989 0.053539 0.966508 0.0668197 0.112957 0.991351 
-0.102986 0.137516 0.985131 -0.217284 0.197051 0.956012 -0.0612343 0.264025 0.96257 
0.0372203 0.2446 0.96891 -0.131193 0.0956287 0.986734 -0.0197559 0.17081 0.985106 
-0.0584062 0.157506 0.985789 -0.217858 0.222035 0.950389 -0.191199 0.330036 0.924402 
0.574419 -0.0829056 0.814352 0.285353 -0.0717202 0.955735 0.0805425 -0.0615531 0.994849 
-0.0732247 -0.0512746 0.995997 -0.152748 -0.0276032 0.98788 -0.0571911 0.022268 0.998115 
-0.069474 0.0388389 0.996827 -0.0608152 0.106361 0.992466 -0.00720916 0.162425 0.986695 
-0.119035 -0.0772202 0.989883 -0.0980124 0.0275751 0.994803 -0.0976584 0.181954 0.978445 
-0.167736 0.227512 0.95922 0.582396 -0.15545 0.797904 0.278537 -0.115012 0.953514 
0.0833173 -0.123828 0.9888 -0.0699457 -0.117956 0.990552 -0.150873 -0.0992146 0.983562 
0.0273108 -0.0337515 0.999057 0.111882 -0.0019179 0.99372 -0.00911483 0.0371193 0.999269 
-0.215521 0.00774964 0.976469 -0.180994 -0.00228845 0.983482 0.0399045 0.0454853 0.998168 
0.000428518 0.0760786 0.997102 -0.169533 0.0833726 0.981992 -0.302024 0.082506 0.949723 
0.590861 -0.279542 0.756796 0.320164 -0.19607 0.92685 0.084765 -0.177428 0.980477 
-0.0445217 -0.133214 0.990087 -0.0669912 -0.024707 0.997448 0.0388676 0.0539706 0.997786 
0.00228872 -0.0265038 0.999646 -0.0461433 -0.0349983 0.998322 -0.0500186 0.00360618 0.998742 
-0.085275 0.152399 0.984633 -0.0181264 0.0707099 0.997332 -0.0545546 -0.0566785 0.996901 
-0.173079 -0.0905375 0.980738 -0.340616 -0.105691 0.934243 0.384986 -0.368847 0.846013 
0.148235 -0.283183 0.947541 0.065526 -0.191869 0.979231 0.0357569 -0.0870525 0.995562 
0.0274286 -0.0226958 0.999366 0.0213472 -0.026242 0.999428 0.014377 0.0672112 0.997635 
-0.0224002 0.0472647 0.998631 -0.125852 0.043029 0.991115 -0.162801 -0.0884505 0.982686 
-0.16191 -0.235766 0.958227 -0.22477 -0.335448 0.914851 0.304024 -0.525334 0.794729 
0.165162 -0.391243 0.905345 0.1068 -0.317815 0.942118 0.107855 -0.233769 0.966291 
0.0879405 -0.141891 0.985968 0.0296943 -0.120867 0.992225 -0.0713965 -0.17156 0.982583 
-0.230459 -0.268785 0.935223 -0.313331 -0.417678 0.852859 0.183256 -0.555871 0.810817 
0.13571 -0.537502 0.83227 -0.0265755 -0.564932 0.824709 -0.197941 -0.681732 0.704316 
0.283075 0.560578 0.778217 0.38035 0.748424 0.543319 0.104476 0.510883 0.853278 
0.152635 0.577515 0.801985 -0.110775 0.513886 0.850676 -0.0989577 0.592329 0.799596 
-0.154136 0.367368 0.917215 -0.147856 0.585526 0.797056 -0.10476 0.606972 0.787788 
-0.0958487 0.71298 0.694603 -0.0460347 0.445153 0.89427 -0.185063 0.813444 0.551417 
0.482948 0.439289 0.757487 0.627317 0.344145 0.698597 0.744445 0.467222 0.476975 
-0.0950436 0.319319 0.942869 -0.0526179 0.28357 0.957507 -0.0436985 0.303967 0.95168 
0.0322654 0.366214 0.929971 0.0534555 0.347524 0.936146 0.0513101 0.350832 0.935032 
-0.0877474 0.438034 0.894666 -0.163762 0.397823 0.902729 -0.20009 0.489581 0.84869 
-0.202422 0.466317 0.861147 -0.252751 0.605805 0.754398 -0.19367 0.586024 0.786809 
-0.190477 0.499779 0.844949 0.651112 0.315556 0.690274 -0.231974 0.428723 0.873147 
-0.256713 0.38006 0.888624 -0.266148 0.443737 0.855724 -0.194922 0.345851 0.91782 
-0.209497 0.434417 0.87601 -0.220371 0.455289 0.86264 -0.266995 0.474519 0.838776 
0.766429 0.107005 0.633353 -0.198842 0.33924 0.919444 -0.195733 0.304484 0.93219 
-0.21818 0.360553 0.906862 -0.30175 0.373194 0.87731 -0.477962 0.378762 0.792523 
0.725895 -0.0598656 0.685195 -0.273227 0.227808 0.934586 -0.300195 0.175732 0.937551 
-0.296126 0.227889 0.927564 -0.410324 0.224425 0.883893 -0.716631 0.226216 0.659747 
0.675278 -0.150487 0.722048 -0.332036 0.0736412 0.940388 -0.475885 0.00595829 0.879487 
-0.785035 -0.125445 0.606616 0.596972 -0.28051 0.751624 0.595225 -0.286578 0.75072 
-0.393733 -0.108512 0.912798 -0.335428 -0.260549 0.905319 -0.573884 -0.180972 0.79869 
0.52945 -0.381867 0.757535 0.722694 -0.469442 0.507285 0.41835 -0.468084 0.778384 
-0.273267 -0.516912 0.81125 -0.264449 -0.386188 0.8837 -0.261481 -0.414351 0.871746 
-0.357938 -0.487171 0.796583 -0.68659 -0.592988 0.420665 0.319094 -0.537517 0.780548 
0.488951 -0.653778 0.577495 0.309092 -0.541052 0.782129 0.214134 -0.5698 0.793394 
0.17385 -0.571723 0.801816 -0.33623 -0.754522 0.5636 -0.303497 -0.545425 0.781282 
-0.358543 -0.583825 0.72842 -0.298905 -0.600721 0.741478 -0.334972 -0.73343 0.591502 
0.412457 -0.817795 0.401361 0.266253 -0.740513 0.617049 0.183335 -0.594437 0.782964 
0.188912 -0.629083 0.754034 0.184449 -0.622275 0.760758 0.115938 -0.731111 0.672336 
-0.0640943 -0.804311 0.590742 -0.321345 -0.770387 0.550673 -0.22204 -0.8087 0.544704 
-0.332889 -0.797331 0.503436 0.451841 0.817662 0.356747 0.185103 0.899937 0.394778 
-0.0666446 0.834669 0.546704 0.00960638 0.992159 0.124609 -0.119863 0.82185 0.556951 
-0.144636 0.802603 0.578713 -0.143651 0.831422 0.536751 -0.205836 0.860779 0.465501 
0.601 0.741287 0.298819 0.762979 0.601489 0.236802 -0.222499 0.844476 0.487189 
-0.237163 0.819839 0.52117 -0.194241 0.889473 0.413651 -0.20599 0.722247 0.660248 
-0.096235 0.875025 0.474415 -0.151833 0.629501 0.762021 -0.105709 0.823533 0.557332 
-0.183566 0.527294 0.829617 -0.123485 0.843426 0.522861 -0.207685 0.816213 0.539132 
0.849586 0.470464 0.238467 -0.210299 0.507309 0.83571 -0.255198 0.503901 0.825202 
-0.251438 0.545265 0.799665 -0.27017 0.480071 0.83459 -0.320752 0.578279 0.750141 
0.955685 0.222712 0.192525 -0.305087 0.479722 0.822672 -0.479289 0.40761 0.777262 
-0.518311 0.513194 0.684094 0.974204 0.130092 0.184398 -0.500058 0.388196 0.77411 
-0.711658 0.248192 0.657224 -0.81877 0.322401 0.475051 0.974456 0.0187295 0.223797 
-0.734629 0.221043 0.641452 0.945242 -0.101362 0.31023 0.997159 -0.0476388 -0.0583518 
-0.792131 -0.128184 0.596738 -0.79333 -0.152661 0.589341 0.904944 -0.243726 0.348818 
-0.765452 -0.333766 0.550167 -0.913266 -0.4052 0.0419355 0.805197 -0.47136 0.359829 
0.733388 -0.579632 0.355203 -0.461835 -0.791872 0.399559 -0.693971 -0.599472 0.398795 
-0.688779 -0.60718 0.396125 0.625513 -0.698311 0.347987 0.549133 -0.75837 0.351181 
-0.291228 -0.916359 0.274723 -0.276635 -0.885217 0.373984 -0.426788 -0.816303 0.389232 
-0.330853 -0.850536 0.408809 -0.480833 -0.872989 0.0817893 0.41854 -0.821927 0.386341 
0.414102 -0.823357 0.388077 0.293351 -0.848519 0.440409 0.190404 -0.881814 0.431452 
0.0838791 -0.931232 0.354641 -0.0291857 -0.973158 0.228279 -0.148679 -0.973192 0.175477 
-0.240325 -0.955983 0.168347 -0.289833 -0.922995 0.253135 -0.292429 -0.934441 0.203239 
-0.288232 -0.939015 0.187546 0.0248028 -0.987837 0.1535 0.0442965 0.996801 -0.0665322 
0.535958 0.820278 -0.199732 0.152547 0.979963 -0.12807 0.269135 0.94435 -0.189127 
-0.122022 0.991868 -0.0361726 0.0609168 0.979059 -0.194251 -0.13512 0.990255 -0.0337431 
-0.152346 0.988265 0.0111284 -0.168708 0.984873 0.0395352 -0.177241 0.980383 0.0862292 
-0.103464 0.975874 0.192261 -0.0292437 0.953726 0.299253 -0.0847852 0.901437 0.424526 
-0.123272 0.855932 0.502179 -0.206436 0.821711 0.531202 0.71351 0.654041 -0.251263 
0.810272 0.492616 -0.317474 0.570184 0.628136 -0.529467 -0.212008 0.819254 0.532799 
-0.372114 0.740742 0.559314 0.847306 0.408447 -0.339476 0.778663 0.382997 -0.496988 
-0.615457 0.569564 0.544802 -0.639675 0.551413 0.535498 -0.699391 0.606924 0.377486 
0.912865 0.247639 -0.324582 0.676838 0.297104 -0.673513 -0.718591 0.562415 0.409044 
-0.787453 0.497087 0.364448 0.961174 0.151169 -0.230853 -0.915907 0.251674 0.31269 
0.964103 0.0863485 -0.251096 0.982791 0.00721524 -0.184578 -0.991938 0.0811918 0.0973015 
0.988082 -0.0338998 -0.150149 0.986789 -0.0710171 -0.145619 0.984826 -0.0301484 -0.170906 
-0.983155 -0.166812 0.0747053 0.961191 -0.249763 -0.117179 -0.913072 -0.406856 -0.0277092 
-0.90548 -0.423169 -0.0321554 -0.906635 -0.41495 -0.0763591 0.873725 -0.478634 -0.0866875 
0.768789 -0.633112 -0.0901833 -0.742151 -0.669169 -0.0377574 -0.664548 -0.74558 -0.0498654 
-0.631827 -0.63828 -0.439765 0.706183 -0.703246 -0.0821584 0.595 -0.801923 -0.053798 
-0.26718 -0.963646 0.000852776 -0.369277 -0.928734 -0.0329673 -0.489848 -0.870561 -0.0466094 
-0.479148 -0.876619 -0.0442396 -0.485021 -0.867625 -0.109456 0.528791 -0.848394 -0.024659 
0.491378 -0.870931 -0.00526857 0.519531 -0.743204 -0.421586 0.345612 -0.93618 0.0641869 
0.154788 -0.983765 0.0908171 -0.104276 -0.994485 0.0112494 -0.164625 -0.986218 -0.0165189 
-0.212759 -0.977085 0.00614433 -0.252927 -0.966691 0.039198 -0.274604 -0.961293 0.0225456 
-0.281478 -0.95871 0.0405712 0.150371 -0.984514 0.0901198 -0.10105 -0.994796 0.0130171 
0.00212927 -0.997925 0.0643471 -0.00286121 -0.980624 -0.195879 0.268415 0.63681 -0.722791 
0.103581 0.694127 -0.712361 -0.00950852 0.775674 -0.631062 -0.0558382 0.837927 -0.542918 
-0.0735279 0.874914 -0.478664 -0.0689169 0.924803 -0.374151 -0.0135374 0.949411 -0.313744 
0.0623061 0.973249 -0.221144 0.0783693 0.982951 -0.166331 -0.052019 0.997982 -0.0364182 
-0.220036 0.97538 -0.0147609 0.401341 0.54407 -0.736826 0.510205 0.394692 -0.76414 
0.26549 0.516831 -0.81388 0.123175 0.513726 -0.849066 0.0228499 0.558875 -0.828937 
0.00238805 0.598031 -0.80147 -0.000385086 0.652391 -0.757883 -0.0220552 0.723584 -0.689884 
0.0217702 0.782207 -0.622638 0.0866588 0.784665 -0.613832 0.0855177 0.779224 -0.620883 
0.068533 0.729754 -0.680266 -0.434899 0.900476 0.00240299 -0.15638 0.772381 -0.615607 
-0.43836 0.898796 0.00244237 -0.687682 0.723544 -0.0598177 0.537407 0.278924 -0.795862 
0.472073 0.24295 -0.847421 0.273167 0.225072 -0.935266 0.0827446 0.177371 -0.980659 
0.058539 0.208028 -0.97637 0.0236416 0.201333 -0.979237 0.00790829 0.165012 -0.98626 
0.0232659 0.171895 -0.984841 0.112042 0.222863 -0.96839 -0.767075 0.638156 -0.0659709 
-0.709523 0.61606 -0.342122 0.555465 0.247483 -0.793858 0.570258 0.255186 -0.780824 
0.390234 0.199823 -0.89877 0.226575 0.072161 -0.971317 0.125596 0.0539671 -0.990613 
-0.031333 -0.00648438 -0.999488 0.0106041 -0.0522159 -0.99858 -0.909652 0.37229 -0.184209 
-0.917711 0.286508 -0.275171 0.592621 0.223302 -0.77391 0.542553 0.225896 -0.809078 
0.326372 0.182853 -0.927387 0.116516 0.137772 -0.983587 0.0262139 0.0727262 -0.997007 
-0.00142123 -0.0263376 -0.999652 -0.0491513 0.0214321 -0.998561 0.0524433 0.149222 -0.987412 
-0.923354 0.181651 -0.338261 -0.869371 0.117416 -0.480008 0.720324 0.14217 -0.678912 
0.586072 0.185126 -0.788827 0.306287 0.155338 -0.93918 0.000588385 0.144534 -0.9895 
-0.0836548 0.0705565 -0.993994 -0.869532 -0.0223953 -0.493369 -0.800771 -0.0544355 -0.596492 
0.801869 0.0477176 -0.595591 0.593662 0.0912917 -0.79952 0.289467 0.106113 -0.951288 
-0.432436 -0.231024 -0.871566 -0.79874 -0.236668 -0.553176 -0.78709 -0.296615 -0.540841 
-0.760821 -0.224204 -0.609003 0.815965 -0.180474 -0.549208 0.647924 -0.174167 -0.741525 
-0.741291 -0.426061 -0.518614 -0.61687 -0.603445 -0.505297 -0.508397 -0.385201 -0.770164 
0.692306 -0.472897 -0.545052 0.681105 -0.493518 -0.540865 0.676159 -0.468692 -0.568452 
0.450964 -0.283823 -0.846213 -0.606771 -0.617146 -0.500959 -0.483374 -0.743868 -0.46153 
-0.403927 -0.466727 -0.786771 0.617163 -0.613272 -0.492958 0.584153 -0.646426 -0.490814 
0.551523 -0.592447 -0.587221 0.518214 -0.736311 -0.435086 0.384047 -0.453871 -0.804058 
-0.173707 -0.454263 -0.873768 -0.322212 -0.847816 -0.421174 -0.247994 -0.619004 -0.745207 
-0.426542 -0.786513 -0.446609 -0.359275 -0.811715 -0.460479 -0.346654 -0.73079 -0.588029 
0.517251 -0.737809 -0.433693 0.384545 -0.828762 -0.406545 0.364335 -0.624794 -0.690574 
0.188891 -0.927229 -0.323368 -0.00319398 -0.953797 -0.300436 -0.113159 -0.938581 -0.325976 
-0.151097 -0.925317 -0.34779 -0.0633664 -0.541454 -0.838339 -0.190803 -0.929897 -0.31446 
-0.143986 -0.593946 -0.791515 -0.273095 -0.904302 -0.328112 -0.268201 -0.745777 -0.609824 
-0.335671 -0.874107 -0.351087 -0.335617 -0.874521 -0.350105 -0.335392 -0.872276 -0.355875 
0.147039 0.399851 -0.904709 0.0941383 0.525222 -0.845742 0.0821134 0.597266 -0.797829 
-0.135659 0.714936 -0.685903 -0.398238 0.624124 -0.672217 0.0530115 0.024769 -0.998287 
0.0659973 0.0566487 -0.99621 0.122706 0.217983 -0.968208 0.108026 0.179605 -0.97779 
0.185656 0.234756 -0.95416 0.0909525 0.261549 -0.960895 0.0926136 0.306988 -0.947196 
-0.0562151 0.271605 -0.960766 -0.530672 0.461622 -0.710839 -0.317123 0.299348 -0.899902 
-0.526376 0.351044 -0.7744 0.0547026 0.0210986 -0.99828 0.0402334 0.0162792 -0.999058 
0.0509848 0.0186961 -0.998524 0.05286 0.0202586 -0.998396 0.0649301 0.0360793 -0.997237 
0.0705009 0.0459322 -0.996454 0.0984003 0.0911075 -0.990968 0.165284 -0.0222718 -0.985994 
0.200881 -0.00561469 -0.9796 0.0395196 0.0253774 -0.998896 -0.0977771 -0.0438317 -0.994243 
-0.177545 0.0572388 -0.982447 -0.540051 0.223704 -0.811357 -0.437247 0.198925 -0.877065 
0.110006 0.159156 -0.981106 -0.0132171 0.141427 -0.98986 0.11476 0.158206 -0.980714 
0.165364 0.103148 -0.980824 0.0656808 0.26989 -0.960648 0.186404 0.0947787 -0.977891 
0.0492296 0.148108 -0.987745 -0.0343877 0.00710506 -0.999383 0.0788664 -0.135769 -0.987597 
0.147826 -0.120942 -0.981591 0.0658398 -0.151886 -0.986203 -0.00943091 -0.031499 -0.999459 
-0.154181 -0.0547706 -0.986523 -0.512367 -0.0299411 -0.858245 -0.399676 -0.0228103 -0.916373 
0.114183 0.15956 -0.980563 0.110047 0.159975 -0.980968 -0.0150445 0.156191 -0.987612 
-0.0253412 0.162716 -0.986347 0.104695 0.184887 -0.977167 0.00613093 0.154298 -0.988005 
0.192931 0.221678 -0.955843 0.0602658 0.426422 -0.902514 0.021081 0.104287 -0.994324 
-0.0997903 0.0986075 -0.99011 -0.167364 0.202879 -0.964795 0.0135654 0.0435601 -0.998959 
-0.0975472 0.112207 -0.988885 0.202357 -0.00930338 -0.979268 0.121626 -0.0384858 -0.99183 
0.000659995 -0.0655668 -0.997848 -0.149322 -0.104097 -0.983294 -0.476536 -0.1097 -0.872284 
-0.43048 -0.221736 -0.87494 -0.416656 -0.104392 -0.90305 0.280625 0.107591 -0.953768 
0.302824 0.0621282 -0.951019 0.120735 0.134498 -0.983531 0.00464604 0.17053 -0.985342 
0.0391133 0.192766 -0.980465 0.217753 0.102553 -0.970601 -0.0613408 0.0568725 -0.996495 
-0.0287925 0.171872 -0.984698 0.0309958 0.0158529 -0.999394 -0.126517 0.27245 -0.953816 
0.0225702 0.145038 -0.989169 0.0113273 0.0454756 -0.998901 -0.0748874 -0.0694314 -0.994772 
-0.417794 -0.227385 -0.879627 -0.173116 -0.147371 -0.973814 0.335893 -0.0194475 -0.941699 
0.365896 -0.0961162 -0.925679 0.323731 -0.0146854 -0.946035 0.165034 0.00345325 -0.986282 
0.0289642 0.0666209 -0.997358 -0.0309192 0.0852195 -0.995882 0.0690258 0.00356787 -0.997608 
0.111297 -0.15094 -0.982258 -0.0146859 0.0315756 -0.999393 -0.0246988 -0.111891 -0.993414 
-0.00918652 -0.0034813 -0.999952 -0.0245933 0.0145383 -0.999592 -0.0851598 -0.0579961 -0.994678 
-0.190902 -0.133796 -0.972448 -0.308691 -0.230044 -0.922925 -0.306898 -0.239857 -0.921022 
-0.295988 -0.217916 -0.930002 0.408024 -0.263681 -0.874065 0.309007 -0.345189 -0.886205 
0.201614 -0.182026 -0.962402 0.0931763 -0.0948109 -0.991125 -0.0159637 0.00254824 -0.999869 
-0.027544 0.00160155 -0.999619 -0.00181738 -0.0834329 -0.996512 -0.000867532 -0.123872 -0.992298 
-0.00847988 -0.122584 -0.992422 0.00123245 -0.166639 -0.986017 -0.160988 -0.429669 -0.88852 
-0.0466849 -0.216699 -0.975122 -0.187779 -0.441706 -0.877288 -0.14218 -0.298314 -0.943819 
-0.245081 -0.365396 -0.89801 -0.237718 -0.372403 -0.89711 -0.23381 -0.359346 -0.90344 
0.310711 -0.379877 -0.871293 0.271322 -0.417258 -0.867341 0.208734 -0.286718 -0.934999 
0.0651928 -0.184182 -0.980728 -0.0141311 -0.139871 -0.990069 -0.0205224 -0.146109 -0.989056 
-0.0557651 -0.443775 -0.894401 -0.0560891 -0.196033 -0.978992 -0.107595 -0.428436 -0.897143 
-0.0644635 -0.208107 -0.97598 -0.158903 -0.424795 -0.891235 -0.142957 -0.397777 -0.906277 
-0.0997494 -0.308218 -0.946072 0.16666 -0.464224 -0.869897 0.148903 -0.468636 -0.870752 
0.143916 -0.449257 -0.881735 -0.0107112 -0.445594 -0.895171 -0.00937301 -0.410893 -0.911636 
-0.0609856 -0.460881 -0.885364 -0.062519 -0.460184 -0.88562 -0.0614866 -0.454573 -0.888584 

