# vtk DataFile Version 4.2
vtk output
ASCII
DATASET POLYDATA
POINTS 578 float
9.18457 2.5524 -23.7534 9.18457 -42.3013 -15.6229 18.1553 -42.3013 -16.7452 
27.1261 -42.3013 -16.6155 -44.6399 -33.3306 -15.8723 -35.6692 -33.3306 -17.6677 
-26.6984 -33.3306 -18.3123 -17.7277 -33.3306 -17.4568 -8.75692 -33.3306 -16.897 
0.213823 -33.3306 -17.4514 9.18457 -33.3306 -18.8477 18.1553 -33.3306 -19.8562 
27.1261 -33.3306 -19.4974 36.0968 -33.3306 -18.9362 45.0676 -33.3306 -16.0221 
-53.6106 -24.3598 -15.4889 -44.6399 -24.3598 -18.5041 -35.6692 -24.3598 -19.8208 
-26.6984 -24.3598 -20.3997 -17.7277 -24.3598 -18.9967 -8.75692 -24.3598 -18.0969 
0.213823 -24.3598 -18.2654 9.18457 -24.3598 -19.2582 18.1553 -24.3598 -20.4397 
27.1261 -24.3598 -20.8303 36.0968 -24.3598 -20.9913 45.0676 -24.3598 -20.0258 
54.0383 -24.3598 -15.8633 -53.6106 -15.3891 -17.1992 -44.6399 -15.3891 -19.8446 
-35.6692 -15.3891 -21.1474 -26.6984 -15.3891 -20.4174 -17.7277 -15.3891 -19.0331 
-8.75692 -15.3891 -18.4778 0.213823 -15.3891 -19.5774 9.18457 -15.3891 -18.4706 
18.1553 -15.3891 -19.9849 27.1261 -15.3891 -21.5797 36.0968 -15.3891 -22.0013 
45.0676 -15.3891 -21.7271 54.0383 -15.3891 -19.2049 -53.6106 -6.41834 -17.5111 
-44.6399 -6.41834 -20.1916 -35.6692 -6.41834 -20.99 -26.6984 -6.41834 -20.4403 
-17.7277 -6.41834 -19.4698 -8.75692 -6.41834 -20.9588 0.213823 -6.41834 -20.0612 
9.18457 2.40852 -23.7092 9.18457 -6.41834 -20.5652 18.1553 -6.41834 -19.6551 
27.1261 -6.41834 -20.8933 36.0968 -6.41834 -22.1656 45.0676 -6.41834 -22.5154 
54.0383 -6.41834 -21.4869 63.009 -6.41834 -17.6594 -53.6106 2.5524 -16.6117 
-44.6399 2.5524 -19.6356 -35.6692 2.5524 -20.831 -26.6984 2.5524 -20.874 
-17.7277 2.5524 -21.0447 -8.75692 2.5524 -23.3391 9.09598 2.5524 -23.7092 
0.213823 2.5524 -17.998 9.30366 2.5524 -23.7092 9.18457 2.74813 -23.7092 
18.1553 2.5524 -19.8737 27.1261 2.5524 -20.3022 36.0968 2.5524 -21.882 
45.0676 2.5524 -22.4999 54.0383 2.5524 -21.897 63.009 2.5524 -19.3738 
-53.6106 11.5231 -15.1287 -44.6399 11.5231 -18.8139 -35.6692 11.5231 -20.669 
-26.6984 11.5231 -20.4787 -17.7277 11.5231 -20.2351 -8.75692 11.5231 -21.1953 
0.213823 11.5231 -21.7412 9.18457 11.5231 -21.4933 18.1553 11.5231 -19.8589 
27.1261 11.5231 -20.4447 36.0968 11.5231 -21.7768 45.0676 11.5231 -22.1914 
54.0383 11.5231 -21.5546 63.009 11.5231 -19.1106 -44.6399 20.4939 -17.5424 
-35.6692 20.4939 -19.8013 -26.6984 20.4939 -20.573 -17.7277 20.4939 -20.4106 
-8.75692 20.4939 -20.5445 0.213823 20.4939 -20.9898 9.18457 20.4939 -20.4642 
18.1553 20.4939 -20.8455 27.1261 20.4939 -21.5356 36.0968 20.4939 -22.6135 
45.0676 20.4939 -21.665 54.0383 20.4939 -19.9719 63.009 20.4939 -16.7458 
-44.6399 29.4646 -15.3836 -35.6692 29.4646 -19.3428 -26.6984 29.4646 -20.7365 
-17.7277 29.4646 -21.0741 -8.75692 29.4646 -21.2652 0.213823 29.4646 -21.356 
9.18457 29.4646 -21.4921 18.1553 29.4646 -21.4696 27.1261 29.4646 -22.257 
36.0968 29.4646 -21.0387 45.0676 29.4646 -20.2694 54.0383 29.4646 -17.1271 
-35.6692 38.4354 -17.0251 -26.6984 38.4354 -19.47 -17.7277 38.4354 -20.1614 
-8.75692 38.4354 -21.2815 0.213823 38.4354 -21.5811 9.18457 38.4354 -21.4693 
18.1553 38.4354 -20.925 27.1261 38.4354 -20.4225 36.0968 38.4354 -18.9484 
45.0676 38.4354 -16.0448 -17.7277 47.4061 -17.3127 -8.75692 47.4061 -17.6798 
0.213823 47.4061 -18.035 9.18457 47.4061 -18.0932 18.1553 47.4061 -17.4727 
27.1261 47.4061 -16.3885 9.18457 -43.3913 -14.7384 18.1553 -44.7915 -14.7384 
27.1261 -44.6119 -14.7384 -44.6399 -35.1968 -14.7384 -44.6399 -42.3013 -8.34766 
-35.6692 -38.9109 -14.7384 -35.6692 -42.3013 -12.357 -26.6984 -41.3836 -14.7384 
-26.6984 -42.3013 -14.1259 -17.7277 -39.9049 -14.7384 -17.7277 -42.3013 -13.475 
-8.75692 -38.9661 -14.7384 -8.75692 -42.3013 -13.1415 5.04332 -42.3013 -14.7384 
0.213823 -40.1069 -14.7384 0.213823 -42.3013 -13.6476 33.2986 -42.3013 -14.7384 
36.0968 -40.7154 -14.7384 36.0968 -42.3013 -13.4727 45.0676 -35.6763 -14.7384 
45.0676 -42.3013 -8.1451 -46.9778 -33.3306 -14.7384 -53.6106 -25.8303 -14.7384 
-53.6106 -33.3306 -10.4476 47.6467 -33.3306 -14.7384 54.0383 -26.6024 -14.7384 
54.0383 -33.3306 -9.26108 -54.7587 -24.3598 -14.7384 -62.5814 -24.3598 -9.1928 
55.575 -24.3598 -14.7384 -59.1315 -15.3891 -14.7384 -62.5814 -15.3891 -12.2072 
61.4476 -15.3891 -14.7384 63.009 -12.6687 -14.7384 63.009 -15.3891 -13.0742 
-58.18 -6.41834 -14.7384 -62.5814 -6.41834 -11.2171 66.2008 -6.41834 -14.7384 
-57.4778 2.5524 -14.7384 -62.5814 2.5524 -10.9715 68.1778 2.5524 -14.7384 
71.9798 2.5524 -7.31417 -54.3181 11.5231 -14.7384 -62.5814 11.5231 -8.18676 
-53.6106 13.0065 -14.7384 68.0878 11.5231 -14.7384 71.9798 11.5231 -8.03108 
-49.9368 20.4939 -14.7384 -53.6106 20.4939 -12.441 65.0644 20.4939 -14.7384 
63.009 24.0953 -14.7384 -45.9107 29.4646 -14.7384 -53.6106 29.4646 -8.63999 
-44.6399 30.9734 -14.7384 58.6576 29.4646 -14.7384 54.0383 33.9366 -14.7384 
63.009 29.4646 -6.18059 -39.5582 38.4354 -14.7384 -44.6399 38.4354 -10.1336 
-35.6692 41.8717 -14.7384 -26.6984 47.1633 -14.7384 36.0968 44.81 -14.7384 
48.2007 38.4354 -14.7384 45.0676 40.2353 -14.7384 -35.6692 47.4061 -8.00041 
-26.2854 47.4061 -14.7384 -26.6984 47.4061 -14.5199 -17.7277 50.1453 -14.7384 
-8.75692 50.4331 -14.7384 0.213823 50.7525 -14.7384 9.18457 50.8936 -14.7384 
18.1553 50.3295 -14.7384 31.61 47.4061 -14.7384 27.1261 49.1387 -14.7384 
36.0968 47.4061 -7.26992 -44.6399 -44.3164 -5.76767 -35.6692 -47.5085 -5.76767 
-26.6984 -48.7385 -5.76767 -17.7277 -48.6999 -5.76767 -8.75692 -48.5482 -5.76767 
0.213823 -48.8361 -5.76767 9.18457 -50.2959 -5.76767 18.1553 -51.1368 -5.76767 
27.1261 -50.4634 -5.76767 36.0968 -47.9402 -5.76767 45.0676 -43.625 -5.76767 
-48.2186 -42.3013 -5.76767 -53.6106 -38.4615 -5.76767 46.8977 -42.3013 -5.76767 
54.0383 -35.8835 -5.76767 -58.8413 -33.3306 -5.76767 -62.5814 -28.9717 -5.76767 
56.2976 -33.3306 -5.76767 -65.2665 -24.3598 -5.76767 62.1857 -24.3598 -5.76767 
63.009 -23.0452 -5.76767 63.009 -24.3598 0.825252 -67.8897 -15.3891 -5.76767 
67.1081 -15.3891 -5.76767 -67.9995 -6.41834 -5.76767 -71.5521 -6.41834 3.00608 
71.4795 -6.41834 -5.76767 71.9798 -2.33644 -5.76767 -66.9367 2.5524 -5.76767 
72.4832 2.5524 -5.76767 71.9798 2.5524 -1.71551 -64.6487 11.5231 -5.76767 
-62.5814 18.5644 -5.76767 72.8222 11.5231 -5.76767 71.9798 14.4183 -5.76767 
71.9798 11.5231 -1.60206 -61.9123 20.4939 -5.76767 -62.5814 20.4939 -4.68907 
70.0028 20.4939 -5.76767 -56.2233 29.4646 -5.76767 -53.6106 33.2415 -5.76767 
54.0383 36.9311 -5.76767 63.136 29.4646 -5.76767 63.009 29.5998 -5.76767 
63.009 29.4646 -5.42412 -49.5235 38.4354 -5.76767 -44.6399 42.3874 -5.76767 
51.7035 38.4354 -5.76767 45.0676 42.9915 -5.76767 -37.9414 47.4061 -5.76767 
-35.6692 48.7082 -5.76767 -26.6984 52.0643 -5.76767 -17.7277 53.7244 -5.76767 
-8.75692 54.8808 -5.76767 0.213823 54.3201 -5.76767 9.18457 54.4064 -5.76767 
18.1553 53.9693 -5.76767 27.1261 51.7918 -5.76767 27.1261 47.4061 1.98479 
36.7926 47.4061 -5.76767 36.0968 47.752 -5.76767 36.0968 47.4061 -5.11767 
-44.6399 -46.2011 3.20307 -35.6692 -48.5864 3.20307 -26.6984 -49.4109 3.20307 
-17.7277 -49.2397 3.20307 -8.75692 -49.3064 3.20307 0.213823 -49.4954 3.20307 
9.18457 -50.1144 3.20307 18.1553 -50.5815 3.20307 27.1261 -50.5152 3.20307 
36.0968 -48.5922 3.20307 45.0676 -44.7213 3.20307 -51.8529 -42.3013 3.20307 
-53.6106 -41.2076 3.20307 48.6827 -42.3013 3.20307 45.0676 -42.3013 11.1271 
54.0383 -37.7577 3.20307 -62.0727 -33.3306 3.20307 -62.5814 -32.6326 3.20307 
57.6815 -33.3306 3.20307 63.009 -24.8068 3.20307 -67.6075 -24.3598 3.20307 
63.2844 -24.3598 3.20307 63.009 -24.3598 4.15296 -71.2456 -15.3891 3.20307 
-71.5521 -7.98551 3.20307 67.0642 -15.3891 3.20307 -71.6124 -6.41834 3.20307 
-71.5521 -4.88949 3.20307 -71.5521 -6.41834 3.45699 70.3799 -6.41834 3.20307 
-71.2544 2.5524 3.20307 71.3537 2.5524 3.20307 -69.5991 11.5231 3.20307 
70.9337 11.5231 3.20307 -65.9313 20.4939 3.20307 -62.5814 26.3078 3.20307 
67.127 20.4939 3.20307 63.009 25.6441 3.20307 63.009 20.4939 8.64444 
-60.4872 29.4646 3.20307 -53.6106 37.2234 3.20307 45.0676 29.4646 11.1439 
58.4589 29.4646 3.20307 54.0383 32.6094 3.20307 54.0383 29.4646 6.91042 
-52.2557 38.4354 3.20307 -44.6399 44.5903 3.20307 18.1553 38.4354 11.5592 
27.1261 46.4681 3.20307 27.1261 38.4354 9.43985 36.0968 42.6096 3.20307 
36.0968 38.4354 7.17407 45.4538 38.4354 3.20307 45.0676 38.7329 3.20307 
45.0676 38.4354 3.46986 -39.06 47.4061 3.20307 -35.6692 48.899 3.20307 
-35.6692 47.4061 6.89388 -26.6984 51.476 3.20307 -26.6984 47.4061 11.6736 
-17.7277 52.2607 3.20307 -8.75692 52.2269 3.20307 -8.75692 47.4061 10.9232 
0.213823 51.0921 3.20307 0.213823 47.4061 8.12198 9.18457 50.2201 3.20307 
9.18457 47.4061 6.62059 24.5797 47.4061 3.20307 18.1553 49.1905 3.20307 
18.1553 47.4061 5.18941 -44.6399 -42.5652 12.1738 -35.6692 -44.2144 12.1738 
-26.6984 -44.4946 12.1738 -17.7277 -44.6624 12.1738 -8.75692 -44.076 12.1738 
0.213823 -44.8447 12.1738 9.18457 -45.4544 12.1738 18.1553 -45.647 12.1738 
27.1261 -45.7988 12.1738 36.0968 -44.8617 12.1738 -45.1927 -42.3013 12.1738 
-53.6106 -37.1174 12.1738 -44.6399 -42.3013 12.5161 -35.6692 -42.3013 14.3759 
-26.6984 -42.3013 14.3511 -17.7277 -42.3013 14.1843 -8.75692 -42.3013 13.7821 
0.213823 -42.3013 14.6085 9.18457 -42.3013 15.2456 18.1553 -42.3013 15.302 
27.1261 -42.3013 15.3636 44.0582 -42.3013 12.1738 36.0968 -42.3013 15.0005 
45.0676 -41.897 12.1738 54.0383 -34.9237 12.1738 -57.9797 -33.3306 12.1738 
-62.5814 -28.4216 12.1738 -53.6106 -33.3306 15.8673 -44.6399 -33.3306 19.0601 
-35.6692 -33.3306 20.9497 -26.6984 -33.3306 19.7093 -17.7277 -33.3306 18.5057 
-8.75692 -33.3306 18.4733 0.213823 -33.3306 19.2796 9.18457 -33.3306 19.4391 
18.1553 -33.3306 19.8804 27.1261 -33.3306 20.6384 45.0676 -33.3306 19.1779 
55.3301 -33.3306 12.1738 54.0383 -33.3306 13.9068 -65.0655 -24.3598 12.1738 
-62.5814 -24.3598 14.7848 -53.6106 -24.3598 19.2051 -17.7277 -24.3598 21.0167 
-8.75692 -24.3598 19.6635 0.213823 -24.3598 21.0933 60.2863 -24.3598 12.1738 
54.0383 -24.3598 18.137 63.009 -15.9195 12.1738 -67.4216 -15.3891 12.1738 
[...]
POINT_DATA 578
SCALARS ImageScalars float
LOOKUP_TABLE default
0 0 0 0 0 0 0 0 0 
0 0 0 0 0 0 0 0 0 
0 0 0 0 0 0 0 0 0 
0 0 0 0 0 0 0 0 0 
0 0 0 0 0 0 0 0 0 
0 0 0 0 0 0 0 0 0 
0 0 0 0 0 0 0 0 0 
0 0 0 0 0 0 0 0 0 
0 0 0 0 0 0 0 0 0 
0 0 0 0 0 0 0 0 0 
0 0 0 0 0 0 0 0 0 
0 0 0 0 0 0 0 0 0 
0 0 0 0 0 0 0 0 0 
0 0 0 0 0 0 0 0 0 
0 0 0 0 0 0 0 0 0 
0 0 0 0 0 0 0 0 0 
0 0 0 0 0 0 0 0 0 
0 0 0 0 0 0 0 0 0 
0 0 0 0 0 0 0 0 0 
0 0 0 0 0 0 0 0 0 
0 0 0 0 0 0 0 0 0 
0 0 0 0 0 0 0 0 0 
0 0 0 0 0 0 0 0 0 
0 0 0 0 0 0 0 0 0 
0 0 0 0 0 0 0 0 0 
0 0 0 0 0 0 0 0 0 
0 0 0 0 0 0 0 0 0 
0 0 0 0 0 0 0 0 0 
0 0 0 0 0 0 0 0 0 
0 0 0 0 0 0 0 0 0 
0 0 0 0 0 0 0 0 0 
0 0 0 0 0 0 0 0 0 
0 0 0 0 0 0 0 0 0 
0 0 0 0 0 0 0 0 0 
0 0 0 0 0 0 0 0 0 
0 0 0 0 0 0 0 0 0 
0 0 0 0 0 0 0 0 0 
0 0 0 0 0 0 0 0 0 
0 0 0 0 0 0 0 0 0 
0 0 0 0 0 0 0 0 0 
0 0 0 0 0 0 0 0 0 
0 0 0 0 0 0 0 0 0 
0 0 0 0 0 0 0 0 0 
0 0 0 0 0 0 0 0 0 
0 0 0 0 0 0 0 0 0 
0 0 0 0 0 0 0 0 0 
0 0 0 0 0 0 0 0 0 
0 0 0 0 0 0 0 0 0 
0 0 0 0 0 0 0 0 0 
0 0 0 0 0 0 0 0 0 
0 0 0 0 0 0 0 0 0 
0 0 0 0 0 0 0 0 0 
0 0 0 0 0 0 0 0 0 
0 0 0 0 0 0 0 0 0 
0 0 0 0 0 0 0 0 0 
0 0 0 0 0 0 0 0 0 
0 0 0 0 0 0 0 0 0 
0 0 0 0 0 0 0 0 0 
0 0 0 0 0 0 0 0 0 
0 0 0 0 0 0 0 0 0 
0 0 0 0 0 0 0 0 0 
0 0 0 0 0 0 0 0 0 
0 0 0 0 0 0 0 0 0 
0 0 0 0 0 0 0 0 0 
0 0 
NORMALS Normals float
0.0700914 0.0445221 0.996547 0.148557 0.527674 0.836356 0.0468295 0.506631 0.86089 
-0.14367 0.525709 0.838444 0.3044 0.403591 0.862818 0.131738 0.332208 0.933961 
-0.0125669 0.309135 0.950935 -0.0786036 0.265928 0.960783 -0.000340523 0.242573 0.970133 
0.108288 0.224112 0.968529 0.127805 0.168463 0.977387 0.0376411 0.179571 0.983025 
-0.0466092 0.223304 0.973634 -0.175645 0.356282 0.917721 -0.364148 0.446724 0.817211 
0.430607 0.305179 0.849378 0.207251 0.217423 0.953821 0.0976316 0.179462 0.978908 
-0.0452826 0.118865 0.991877 -0.127139 0.0834775 0.988366 -0.0398766 0.0835542 0.995705 
0.0650525 0.112402 0.991531 0.119897 -0.0194893 0.992595 0.0872155 0.00619007 0.99617 
0.0303602 0.113481 0.993076 -0.0392545 0.1582 0.986626 -0.244507 0.297708 0.922814 
-0.516946 0.386096 0.764001 0.371803 0.0925239 0.923689 0.212062 0.0873194 0.973347 
0.0350124 0.065265 0.997254 -0.116192 0.00222565 0.993224 -0.10949 0.0267051 0.993629 
0.0276292 0.144469 0.989124 0.00066786 0.0991554 0.995072 0.0253057 0.0578416 0.998005 
0.171665 -0.0439588 0.984174 0.111688 0.00363407 0.993737 0.00720766 0.0633132 0.997968 
-0.140021 0.123885 0.982368 -0.38076 0.272948 0.883471 0.424199 -0.0307792 0.905046 
0.188584 -0.0113217 0.981992 0.0161089 -0.0174659 0.999718 -0.0847041 0.0255566 0.996078 
0.0180324 0.116179 0.993065 0.0442455 0.265019 0.963228 -0.021357 -0.0726714 0.997127 
0.067951 0.0489258 0.996488 -0.0295276 0.277732 0.960205 0.0258193 -0.0079369 0.999635 
0.138856 -0.0698721 0.987845 0.0894085 -0.00662127 0.995973 -0.0333736 0.0464912 0.998361 
-0.213358 0.146229 0.965969 -0.572359 0.255835 0.779072 0.407407 -0.126691 0.904416 
0.226133 -0.0739511 0.971285 0.0700392 -0.0176372 0.997388 0.0118545 0.00250406 0.999927 
0.122216 0.0441668 0.99152 -0.112604 0.00427576 0.993631 0.0696557 0.0448498 0.996562 
0.0161281 0.138841 0.990183 0.0664789 0.0442371 0.996807 0.0660563 0.0392717 0.997043 
-0.172233 0.0126723 0.984975 0.109435 -0.0250539 0.993678 0.119376 -0.0215087 0.992616 
0.00304005 -0.0181021 0.999831 -0.140504 0.00339883 0.990074 -0.500417 0.0582361 0.863824 
0.433492 -0.194411 0.879937 0.28926 -0.112552 0.950611 0.0845137 -0.0557172 0.994863 
-0.0241028 -0.0169594 0.999566 0.0367657 -0.0359257 0.998678 0.0887255 -0.144521 0.985516 
0.0157481 0.120545 0.992583 -0.111896 -0.171688 0.978776 -0.0502942 0.0558751 0.99717 
0.109052 0.0700198 0.991567 0.0967208 0.0396446 0.994522 -0.00977028 -0.0500167 0.998701 
-0.14144 -0.103512 0.98452 -0.480528 -0.104899 0.870683 0.352263 -0.17473 0.919445 
0.159662 -0.0701283 0.984678 0.0326349 0.0139476 0.99937 -0.00157705 0.0464924 0.998917 
0.0326289 0.00686631 0.999444 -0.00451567 -0.0214736 0.999759 -0.00806089 0.00220298 0.999965 
0.0594095 0.0892434 0.994236 0.0963274 0.0985854 0.990455 0.000803598 -0.0401749 0.999192 
-0.129183 -0.0904297 0.987489 -0.235424 -0.231596 0.943896 -0.565669 -0.332316 0.754708 
0.424933 -0.298666 0.854535 0.273406 -0.148724 0.950332 0.0898251 -0.0526343 0.994566 
0.028968 -0.0109871 0.99952 0.015636 0.0409422 0.999039 0.0121309 0.032054 0.999413 
0.00655702 0.0580886 0.99829 0.0412883 0.00621547 0.999128 -0.0232833 -0.0685883 0.997373 
-0.102782 -0.183316 0.977666 -0.218127 -0.324588 0.92036 -0.40797 -0.406754 0.817381 
0.367276 -0.395092 0.842028 0.170231 -0.304242 0.937261 0.0937362 -0.200007 0.9753 
0.0746455 -0.156227 0.984897 0.00973002 -0.138445 0.990322 -0.0365037 -0.155908 0.987097 
-0.0604379 -0.189399 0.980038 -0.0959898 -0.297255 0.949961 -0.26314 -0.436149 0.860541 
-0.362718 -0.590392 0.721022 0.158194 -0.573299 0.803929 0.0366269 -0.591461 0.805501 
0.0200665 -0.604721 0.796185 -0.0275115 -0.593064 0.804685 -0.0953297 -0.607082 0.788901 
-0.222953 -0.687935 0.690679 0.146974 0.579918 0.801307 0.0476727 0.627789 0.776922 
-0.139049 0.632915 0.761633 0.315436 0.456499 0.831931 0.382357 0.754679 0.533163 
0.189755 0.525714 0.829227 0.226279 0.690492 0.687036 0.0341863 0.557547 0.829441 
0.0414623 0.604065 0.795855 -0.0591193 0.472286 0.879461 -0.0420061 0.59119 0.805438 
0.0037031 0.430398 0.902632 0.00826288 0.5927 0.805381 0.130296 0.540141 0.831427 
0.113294 0.464939 0.878064 0.113129 0.574482 0.810662 -0.241638 0.580208 0.777798 
-0.271942 0.555675 0.785667 -0.299745 0.626033 0.719886 -0.393715 0.511557 0.76374 
-0.513278 0.760654 0.397432 0.359689 0.421951 0.832215 0.445447 0.336778 0.829553 
0.546694 0.518537 0.657454 -0.434388 0.482773 0.760419 -0.541724 0.432728 0.720612 
-0.66061 0.594806 0.45804 0.459055 0.316328 0.830184 0.721718 0.343346 0.60103 
-0.559144 0.410844 0.720115 0.530567 0.0943074 0.842381 0.66108 0.0832395 0.745684 
-0.636929 0.362077 0.680604 -0.660694 0.345152 0.666599 -0.716157 0.391483 0.577806 
0.548555 -0.0414569 0.835086 0.670109 -0.0423979 0.741051 -0.692321 0.276197 0.666638 
0.507821 -0.114187 0.853862 0.669032 -0.112421 0.734683 -0.739688 0.0723509 0.669049 
-0.980238 0.0707764 0.184725 0.450257 -0.201588 0.869845 0.718595 -0.219618 0.659841 
0.451098 -0.201382 0.869457 -0.707679 -0.125279 0.695338 -0.96721 -0.129787 0.218314 
0.47089 -0.203613 0.858373 0.559992 -0.259784 0.786715 -0.659781 -0.343843 0.668178 
-0.632957 -0.425451 0.646805 0.449516 -0.306675 0.838979 0.673475 -0.407127 0.616992 
0.446145 -0.334533 0.830086 -0.55597 -0.498267 0.665302 -0.493939 -0.592529 0.636344 
-0.723862 -0.689944 0.000641793 0.450652 -0.444836 0.773972 0.58577 -0.568037 0.578107 
0.401938 -0.528401 0.747822 0.335165 -0.614504 0.714178 -0.368692 -0.68328 0.630234 
-0.436113 -0.659538 0.612221 -0.40072 -0.667187 0.627921 0.444014 -0.821098 0.358679 
0.330885 -0.621909 0.70975 0.339207 -0.630159 0.698454 0.144341 -0.736379 0.660993 
0.0305143 -0.730354 0.682387 0.0226998 -0.764817 0.643848 -0.0201637 -0.762775 0.646349 
-0.0953571 -0.760633 0.642141 -0.30158 -0.744281 0.595899 -0.223753 -0.778796 0.586014 
-0.434053 -0.90052 -0.0257171 0.395627 0.82264 0.408341 0.214034 0.907798 0.360682 
0.0606496 0.94452 0.322805 -0.0100991 0.945252 0.326185 0.00769964 0.933182 0.359322 
0.0947892 0.937232 0.335575 0.121607 0.960772 0.249256 0.00990312 0.978045 0.208158 
-0.159551 0.953504 0.255681 -0.346721 0.892444 0.288667 -0.520685 0.800594 0.296539 
0.461403 0.784133 0.415022 0.57244 0.690578 0.442057 -0.559868 0.771459 0.302323 
-0.692296 0.64602 0.321535 0.660409 0.589766 0.464797 0.752346 0.476871 0.454499 
-0.732437 0.606143 0.310043 0.81622 0.350651 0.45916 -0.814873 0.509213 0.276918 
-0.826782 0.496837 0.263789 -0.872526 0.488313 0.0157607 0.844202 0.147054 0.51546 
-0.877715 0.429505 0.212464 0.822726 -0.0417094 0.566906 0.999024 -0.00148295 0.0441419 
-0.947404 0.290933 0.133358 -0.975175 0.189161 0.115116 0.800929 -0.145949 0.580699 
-0.992404 0.0705642 0.100768 -0.994875 0.0508235 -0.0874158 0.770884 -0.221634 0.597173 
0.761714 -0.29381 0.577466 -0.988515 -0.125621 0.0840036 -0.971844 -0.225127 0.0695443 
-0.977512 -0.157218 -0.140546 0.753609 -0.321039 0.573591 0.786798 -0.341122 0.514378 
-0.895955 -0.441034 0.0524798 0.718443 -0.470211 0.512583 0.710491 -0.527807 0.465427 
-0.560692 -0.821843 -0.100988 -0.722642 -0.690872 -0.0220211 -0.720583 -0.692977 -0.023302 
-0.719419 -0.693425 -0.0399751 0.66575 -0.631696 0.397161 0.601648 -0.701783 0.38147 
-0.544217 -0.832183 -0.106299 -0.524178 -0.84945 -0.0605926 0.479448 -0.831914 0.279373 
0.435932 -0.861781 0.259418 0.2664 -0.949104 0.168026 0.152188 -0.984119 0.0913675 
0.0373017 -0.997652 0.0574462 -0.0273968 -0.999442 -0.0191266 -0.0189526 -0.997628 -0.0661726 
-0.140392 -0.986483 -0.0845045 -0.324928 -0.94318 -0.0695217 -0.323146 -0.729261 -0.603121 
-0.433993 -0.891802 -0.127825 -0.427045 -0.894601 -0.131613 -0.420707 -0.891576 -0.167626 
0.363928 0.927057 -0.0901231 0.176418 0.9742 -0.140749 0.035287 0.984493 -0.171839 
-0.00604582 0.987181 -0.159493 0.014377 0.982715 -0.184568 0.0438371 0.984766 -0.168266 
0.0587368 0.975053 -0.214058 0.0217645 0.970493 -0.240145 -0.11721 0.972974 -0.198958 
-0.279166 0.949436 -0.143658 -0.501863 0.86151 -0.0770295 0.515119 0.854923 -0.0613094 
0.558679 0.827541 -0.0552613 -0.586405 0.807938 -0.0580168 -0.425508 0.801245 -0.420653 
-0.731106 0.68145 -0.0333207 0.784145 0.620223 -0.0209599 0.798713 0.601402 -0.0193196 
-0.807593 0.587844 -0.0472636 -0.875514 0.477268 -0.0754343 0.905263 0.424799 -0.00664135 
-0.878347 0.472027 -0.0754758 -0.876557 0.467434 -0.114686 0.977911 0.208906 -0.00702218 
0.99898 0.0359484 0.0273077 -0.921916 0.341378 -0.183117 0.999411 -0.000322609 0.0343182 
0.998858 -0.0192757 0.0437064 0.999806 0.000932614 0.0196569 -0.932237 0.227312 -0.281538 
0.989765 -0.111717 0.0887951 -0.949005 0.026852 -0.314116 0.956609 -0.276141 0.0929831 
-0.894357 -0.194485 -0.402866 0.888424 -0.445197 0.111815 0.834285 -0.54536 0.0809367 
-0.769789 -0.457549 -0.445055 -0.619384 -0.61713 -0.485299 -0.583146 -0.4995 -0.640657 
0.801314 -0.595077 0.0614823 0.681945 -0.730859 -0.0282214 -0.233912 -0.56904 -0.788339 
-0.511291 -0.682711 -0.522003 -0.463083 -0.720458 -0.516231 -0.438626 -0.630684 -0.640191 
0.656628 -0.752746 -0.0470537 0.53343 -0.842664 -0.0732801 -0.163265 -0.477761 -0.863186 
-0.304006 -0.670892 -0.676376 -0.20839 -0.529148 -0.822542 -0.289203 -0.710906 -0.641073 
-0.254234 -0.621495 -0.741019 -0.45259 -0.67151 -0.586717 -0.448311 -0.67208 -0.589343 
-0.445432 -0.667077 -0.597158 0.413924 -0.900209 -0.13524 0.349887 -0.920961 -0.17149 
0.319275 -0.88772 -0.331688 0.172238 -0.955349 -0.240089 0.148494 -0.808292 -0.569749 
0.0407551 -0.954829 -0.294348 -0.0634726 -0.908729 -0.412532 -0.176758 -0.760695 -0.62458 
-0.100629 -0.868943 -0.484574 -0.150501 -0.758984 -0.633477 -0.0963919 -0.815364 -0.570868 
-0.122284 -0.728798 -0.673721 -0.272441 -0.703831 -0.656047 -0.149277 -0.779595 -0.608234 
-0.176235 -0.716777 -0.674664 0.286254 0.789638 -0.542707 0.0954925 0.794878 -0.599208 
0.0195549 0.752518 -0.658282 -0.0187487 0.703945 -0.710007 0.00985526 0.701627 -0.712476 
0.0614755 0.744581 -0.664696 0.035989 0.758993 -0.650103 0.0153592 0.745296 -0.666557 
-0.0402569 0.75975 -0.648968 -0.179773 0.796356 -0.577494 0.298732 0.784623 -0.543255 
0.504419 0.668045 -0.547062 0.285695 0.778815 -0.558413 0.0713306 0.740351 -0.668425 
-0.00915153 0.682437 -0.730887 -0.0272379 0.60823 -0.793293 0.0188781 0.63084 -0.775684 
0.0694387 0.641104 -0.764306 0.0327306 0.626479 -0.778751 0.00554615 0.616159 -0.787602 
-0.0135982 0.64693 -0.762428 -0.381475 0.786529 -0.485644 -0.136368 0.698445 -0.702551 
-0.407321 0.781 -0.473422 -0.693611 0.581578 -0.425055 0.589138 0.600761 -0.540373 
0.703276 0.462668 -0.53976 0.466299 0.525855 -0.711366 0.221248 0.425584 -0.877455 
0.0248631 0.324523 -0.945551 -0.119761 0.342036 -0.932024 -0.0692186 0.338819 -0.938302 
0.0413875 0.282454 -0.958388 0.0506011 0.312414 -0.948597 0.0309178 0.286394 -0.957613 
0.0628162 0.297588 -0.952626 0.0746211 0.324758 -0.942849 -0.299691 0.448226 -0.842187 
-0.726187 0.542386 -0.422457 -0.680461 0.530729 -0.505271 0.787132 0.350324 -0.507638 
0.653611 0.348253 -0.671947 0.372773 0.171801 -0.91188 -0.132566 0.135429 -0.981878 
0.0109657 0.0627288 -0.99797 0.0932598 0.114705 -0.989012 -0.785072 0.368494 -0.49787 
-0.562337 0.240056 -0.791297 -0.789021 0.261011 -0.556165 0.767895 0.175705 -0.616007 
0.546021 0.141991 -0.825651 0.223326 0.057484 -0.973047 -0.0965237 -0.0654969 -0.993173 
0.013391 0.139902 -0.990075 0.0384975 -0.0603699 -0.997433 -0.47813 0.0974252 -0.872869 
-0.788591 0.25268 -0.560605 -0.784451 0.25172 -0.56681 0.796867 0.0587946 -0.601287 
0.50292 0.0593374 -0.862294 0.14243 0.0197741 -0.989607 0.0198758 -0.0400067 -0.999002 
-0.0780935 -0.132882 -0.988051 -0.0601855 -0.161725 -0.984999 0.184198 -0.214374 -0.959226 
0.0850199 -0.213332 -0.973273 -0.0984942 -0.0837862 -0.991604 -0.341167 -0.0486902 -0.938741 
-0.789046 0.103774 -0.605505 -0.683405 0.0640428 -0.727225 0.825861 -0.0748121 -0.558888 
0.495563 -0.0430323 -0.867505 0.1156 0.0050765 -0.993283 -0.0350526 0.00450819 -0.999375 
-0.123604 0.0519004 -0.990973 -0.12913 0.00937684 -0.991583 0.271704 -0.0259657 -0.962031 
0.0206897 0.0521951 -0.998423 -0.150874 -0.0867935 -0.984735 0.0949135 -0.142022 -0.985303 
-0.126607 -0.162156 -0.978609 -0.33347 -0.174768 -0.92642 -0.67373 -0.0889675 -0.733603 
-0.590805 -0.118412 -0.798078 0.806563 -0.216472 -0.550088 0.632262 -0.187294 -0.751775 
0.19237 -0.0905494 -0.977136 0.0686375 0.0858913 -0.993937 -0.150434 0.144534 -0.977998 
0.0734439 0.190021 -0.979029 0.0744263 -0.178357 -0.981147 0.0249546 0.146395 -0.988911 
-0.115559 -0.0816417 -0.98994 0.0302654 -0.165295 -0.98578 0.00838106 -0.242375 -0.970146 
-0.141903 -0.262904 -0.95433 -0.329334 -0.281987 -0.901123 -0.589254 -0.208303 -0.780634 
-0.564627 -0.262655 -0.782438 -0.564512 -0.209898 -0.798291 0.805589 -0.367039 -0.465089 
0.762745 -0.44885 -0.465567 0.736886 -0.363401 -0.570034 0.372759 -0.180892 -0.910126 
-0.0347924 0.103349 -0.994036 0.00229176 0.143756 -0.98961 -0.0208909 0.0146275 -0.999675 
-0.080826 -0.034799 -0.996121 -0.133102 -0.221766 -0.965973 -0.122315 -0.186782 -0.974757 
-0.0666547 -0.271768 -0.960052 -0.0727845 -0.353475 -0.932608 -0.21721 -0.536338 -0.815574 
-0.175736 -0.403788 -0.897815 -0.382731 -0.448398 -0.807748 -0.346505 -0.457491 -0.818924 
-0.329403 -0.43808 -0.836409 0.641741 -0.598889 -0.479063 0.572488 -0.66275 -0.482721 
0.507822 -0.490506 -0.708182 0.193339 -0.363525 -0.911301 0.113135 -0.199264 -0.973393 
-0.217542 -0.244168 -0.945017 -0.19209 -0.328142 -0.924891 -0.164 -0.455545 -0.874976 
-0.162822 -0.333402 -0.928618 -0.169756 -0.446165 -0.878704 -0.144727 -0.390502 -0.909155 
-0.176655 -0.511389 -0.840996 -0.146636 -0.477647 -0.866228 -0.133941 -0.460379 -0.87756 
0.487667 -0.69535 -0.527892 0.446683 -0.706353 -0.549126 0.413372 -0.646837 -0.640879 
0.265008 -0.750254 -0.605715 0.213413 -0.504249 -0.836772 0.145019 -0.789803 -0.59597 
0.0843287 -0.411446 -0.907525 -0.0428092 -0.401407 -0.914899 -0.193965 -0.719918 -0.666405 
-0.174754 -0.458553 -0.871315 -0.221586 -0.612825 -0.758515 -0.253058 -0.494143 -0.831736 
-0.176474 -0.481973 -0.85823 -0.186242 -0.517978 -0.834873 -0.197615 -0.490089 -0.848976 
0.0966599 -0.796753 -0.596524 -0.103387 -0.767592 -0.632545 -0.0248771 -0.796239 -0.60447 
-0.0298475 -0.772335 -0.634514 -0.0674014 0.40896 -0.91006 0.180142 0.219828 -0.958762 
0.0188597 0.291008 -0.956535 -0.0933283 0.17994 -0.97924 0.0315735 0.142466 -0.989296 
0.0512392 0.131019 -0.990055 -0.0230108 0.377623 -0.925673 0.086544 0.251567 -0.963963 
-0.0890948 0.402277 -0.911173 -0.0656913 0.399619 -0.914324 -0.257825 0.264197 -0.929369 
0.24019 0.127135 -0.962364 0.162028 0.10802 -0.980856 -0.0100648 0.0709557 -0.997429 
-0.12513 0.129698 -0.983626 -0.0743671 0.0949389 -0.992701 0.0798201 0.117832 -0.98982 
0.0980734 0.0853742 -0.99151 0.0303234 0.128633 -0.991229 0.0388095 -0.0536176 -0.997807 
0.0454074 0.0631631 -0.99697 0.111158 0.0996325 -0.988796 -0.010774 0.121814 -0.992495 
-0.310659 0.195472 -0.930205 -0.245715 0.188525 -0.950833 0.133176 -0.0511496 -0.989772 
0.0696819 -0.0620197 -0.99564 0.11161 -0.0793943 -0.990575 -0.0523659 -0.123822 -0.990922 
0.00359808 -0.100725 -0.994908 -0.0886264 -0.0850753 -0.992425 -0.0621568 -0.144531 -0.987546 
-0.0655454 -0.14397 -0.987409 0.106628 -0.0405284 -0.993473 0.00786623 0.21317 -0.976983 
0.116938 -0.0985561 -0.988237 0.123158 -0.0750269 -0.989547 0.0360183 -0.0516755 -0.998014 
-0.019026 0.134231 -0.990767 0.0406081 -0.0593991 -0.997408 0.133319 -0.0184383 -0.990902 
0.0370299 -0.0435983 -0.998363 -0.359875 0.0629341 -0.930875 -0.188038 0.0240927 -0.981866 
0.0921957 0.0621007 -0.993803 0.0384283 0.0468691 -0.998162 -0.00975384 0.27959 -0.96007 
0.071367 -0.105481 -0.991857 -0.076002 -0.0541439 -0.995637 0.0290621 0.0822944 -0.996184 
-0.00309498 -0.0955351 -0.995421 0.108123 -0.125745 -0.986153 0.120484 -0.109077 -0.986705 
0.034268 -0.119254 -0.992272 -0.25767 -0.0777171 -0.963102 -0.127168 -0.156708 -0.979424 
-0.129467 -0.11882 -0.984439 -0.0799225 0.0939168 -0.992367 0.204204 -0.0877111 -0.974991 
-0.0385688 -0.0368574 -0.998576 0.0716949 -0.17986 -0.981076 -0.0445584 -0.0977734 -0.994211 
0.0409615 -0.0766634 -0.996215 -0.0571421 -0.1097 -0.992321 0.0792937 -0.134141 -0.987785 
0.0417298 -0.163313 -0.985691 -0.0506779 -0.165765 -0.984862 0.0260153 -0.176557 -0.983947 
0.0277246 -0.168322 -0.985342 0.0239192 0.0939163 -0.995293 0.0835372 0.0581358 -0.994807 
-0.090166 0.113306 -0.98946 -0.065855 0.10284 -0.992516 -0.0396404 -0.117393 -0.992294 
-0.0667197 -0.183021 -0.980842 -0.0716082 -0.202338 -0.976694 -0.0582345 -0.198765 -0.978316 
0.211044 -0.0951413 -0.972835 0.149403 -0.177481 -0.972718 0.138807 -0.0634196 -0.988287 
-0.0399115 0.0776154 -0.996184 -0.00360945 -0.116963 -0.99313 -0.0643858 -0.0723726 -0.995297 
-0.0200784 0.0759866 -0.996907 -0.00330036 0.0763601 -0.997075 -0.0371562 -0.013833 -0.999214 
0.0868018 -0.132223 -0.987412 0.072874 -0.15699 -0.984908 0.0721624 -0.0955467 -0.992806 
-0.02292 -0.146436 -0.988955 -0.0192683 -0.0898486 -0.995769 -0.118435 -0.14698 -0.982023 
-0.111562 -0.155037 -0.981589 -0.108184 -0.137124 -0.984628 
