# vtk DataFile Version 4.2
vtk output
ASCII
DATASET POLYDATA
POINTS 530 float
-3.84605 -27.2136 -18.6457 4.21083 -27.2136 -20.7644 12.2677 -27.2136 -21.0555 
20.3246 -27.2136 -19.9355 -11.9029 -19.1567 -18.5802 -3.84605 -19.1567 -21.2473 
4.21083 -19.1567 -23.3507 12.2677 -19.1567 -23.8696 20.3246 -19.1567 -22.8931 
28.3815 -19.1567 -20.776 -36.0736 -11.0998 -18.8021 -28.0167 -11.0998 -19.0267 
-19.9598 -11.0998 -18.9731 -11.9029 -11.0998 -20.3765 -3.84605 -11.0998 -22.142 
4.21083 -11.0998 -24.1893 12.2677 -11.0998 -25.0763 20.3246 -11.0998 -23.2118 
28.3815 -11.0998 -21.6333 36.4384 -11.0998 -19.7781 -44.1304 -3.04295 -19.0798 
-36.0736 -3.04295 -20.1199 -28.0167 -3.04295 -19.3767 -19.9598 -3.04295 -19.2021 
-11.9029 -3.04295 -22.4012 -3.84605 -3.04295 -23.6003 4.21083 -3.04295 -24.9031 
12.2677 -3.04295 -25.5018 20.3246 -3.04295 -22.3823 28.3815 -3.04295 -21.3142 
36.4384 -3.04295 -20.4169 44.4952 -3.04295 -18.8956 -44.1304 5.01393 -19.3275 
-36.0736 5.01393 -20.3666 -28.0167 5.01393 -19.7909 -19.9598 5.01393 -19.8376 
-11.9029 5.01393 -22.4458 -3.84605 5.01393 -23.8947 4.21083 5.01393 -24.9711 
12.2677 5.01393 -25.155 20.3246 5.01393 -22.5849 28.3815 5.01393 -21.8111 
36.4384 5.01393 -21.0178 44.4952 5.01393 -19.9376 -44.1304 13.0708 -18.3132 
-36.0736 13.0708 -20.1381 -28.0167 13.0708 -20.8634 -19.9598 13.0708 -20.7816 
-11.9029 13.0708 -21.6922 -3.84605 13.0708 -21.2919 4.21083 13.0708 -21.7808 
12.2677 13.0708 -23.5858 20.3246 13.0708 -23.2991 28.3815 13.0708 -22.3175 
36.4384 13.0708 -21.3534 44.4952 13.0708 -18.8609 -36.0736 21.1277 -18.6607 
-28.0167 21.1277 -20.4899 -19.9598 21.1277 -21.6447 -11.9029 21.1277 -22.2701 
-3.84605 21.1277 -22.0756 4.21083 21.1277 -21.7171 12.2677 21.1277 -22.3769 
20.3246 21.1277 -22.6553 28.3815 21.1277 -21.787 36.4384 21.1277 -20.0381 
-28.0167 29.1846 -18.9082 -19.9598 29.1846 -20.9812 -11.9029 29.1846 -22.1502 
-3.84605 29.1846 -21.6625 4.21083 29.1846 -20.9631 12.2677 29.1846 -20.9994 
20.3246 29.1846 -20.4878 28.3815 29.1846 -18.8398 -19.9598 37.2415 -18.1438 
-11.9029 37.2415 -19.2466 -3.84605 37.2415 -19.0572 -11.9029 -35.2705 -11.7905 
-3.84605 -28.3984 -18.0396 -3.84605 -35.2705 -14.0179 4.21083 -31.941 -18.0396 
4.21083 -35.2705 -15.6716 12.2677 -32.0346 -18.0396 12.2677 -35.2705 -15.4544 
20.3246 -30.1594 -18.0396 20.3246 -35.2705 -13.5365 -44.1304 -27.2136 -10.9539 
-36.0736 -27.2136 -13.0771 -28.0167 -27.2136 -14.6528 -19.9598 -27.2136 -15.0331 
-5.70451 -27.2136 -18.0396 -11.9029 -20.9722 -18.0396 -11.9029 -27.2136 -16.1191 
26.9554 -27.2136 -18.0396 28.3815 -26.229 -18.0396 28.3815 -27.2136 -17.5803 
36.4384 -27.2136 -13.1375 -52.1873 -19.1567 -10.7338 -44.1304 -19.1567 -14.9161 
-36.0736 -15.3907 -18.0396 -36.0736 -19.1567 -17.3048 -28.0167 -16.9481 -18.0396 
-28.0167 -19.1567 -17.6405 -17.076 -19.1567 -18.0396 -19.9598 -17.3304 -18.0396 
-19.9598 -19.1567 -17.7472 36.2762 -19.1567 -18.0396 36.4384 -18.9075 -18.0396 
36.4384 -19.1567 -17.9785 44.4952 -19.1567 -13.213 -52.1873 -11.0998 -13.9604 
-41.0728 -11.0998 -18.0396 -44.1304 -8.79839 -18.0396 -44.1304 -11.0998 -17.5374 
41.3874 -11.0998 -18.0396 44.4952 -6.74695 -18.0396 44.4952 -11.0998 -16.8764 
52.5521 -11.0998 -11.581 -47.9204 -3.04295 -18.0396 -52.1873 -3.04295 -16.1735 
46.5016 -3.04295 -18.0396 52.5521 -3.04295 -14.5542 -48.3911 5.01393 -18.0396 
-52.1873 5.01393 -16.1275 48.5659 5.01393 -18.0396 52.5521 5.01393 -15.4445 
-44.7468 13.0708 -18.0396 -52.1873 13.0708 -13.894 -44.1304 13.9015 -18.0396 
46.2636 13.0708 -18.0396 44.4952 15.9558 -18.0396 52.5521 13.0708 -13.7909 
-37.8619 21.1277 -18.0396 -44.1304 21.1277 -15.4135 -36.0736 23.1015 -18.0396 
40.8336 21.1277 -18.0396 36.4384 25.294 -18.0396 44.4952 21.1277 -16.0903 
-44.1304 29.1846 -9.99404 -30.4625 29.1846 -18.0396 -36.0736 29.1846 -15.5416 
-28.0167 30.906 -18.0396 4.21083 36.6584 -18.0396 12.2677 34.4295 -18.0396 
20.3246 33.1191 -18.0396 30.7124 29.1846 -18.0396 28.3815 30.2938 -18.0396 
36.4384 29.1846 -15.5135 -20.2035 37.2415 -18.0396 -28.0167 37.2415 -13.1755 
-19.9598 37.3627 -18.0396 -11.9029 38.7816 -18.0396 2.65392 37.2415 -18.0396 
-3.84605 38.541 -18.0396 4.21083 37.2415 -17.6871 12.2677 37.2415 -15.605 
20.3246 37.2415 -13.3544 -11.9029 -37.0893 -9.98276 -3.84605 -39.0469 -9.98276 
4.21083 -40.2397 -9.98276 12.2677 -39.8333 -9.98276 20.3246 -37.9804 -9.98276 
-44.1304 -28.2361 -9.98276 -36.0736 -31.6056 -9.98276 -36.0736 -35.2705 -5.43538 
-28.0167 -34.1657 -9.98276 -28.0167 -35.2705 -8.75362 -19.3466 -35.2705 -9.98276 
-19.9598 -35.0766 -9.98276 -19.9598 -35.2705 -9.79465 28.0598 -35.2705 -9.98276 
28.3815 -35.1435 -9.98276 28.3815 -35.2705 -9.67939 36.4384 -30.1559 -9.98276 
-45.4254 -27.2136 -9.98276 -52.1873 -20.1454 -9.98276 40.4165 -27.2136 -9.98276 
44.4952 -23.3376 -9.98276 44.4952 -27.2136 -3.25832 -52.9257 -19.1567 -9.98276 
48.3423 -19.1567 -9.98276 52.5521 -13.6237 -9.98276 52.5521 -19.1567 -2.88475 
-56.1934 -11.0998 -9.98276 54.0654 -11.0998 -9.98276 -57.9308 -3.04295 -9.98276 
-60.2442 -3.04295 -3.44982 57.0219 -3.04295 -9.98276 60.609 -3.04295 -2.91945 
-57.3862 5.01393 -9.98276 57.8464 5.01393 -9.98276 60.609 5.01393 -4.14037 
-55.3549 13.0708 -9.98276 -52.1873 19.68 -9.98276 55.7731 13.0708 -9.98276 
52.5521 19.2264 -9.98276 -51.206 21.1277 -9.98276 -52.1873 21.1277 -7.26738 
51.3506 21.1277 -9.98276 44.4952 27.9238 -9.98276 52.5521 21.1277 -5.9974 
-44.1398 29.1846 -9.98276 -44.1304 29.1932 -9.98276 -36.0736 34.6989 -9.98276 
28.3815 36.9029 -9.98276 42.9524 29.1846 -9.98276 36.4384 33.2832 -9.98276 
44.4952 29.1846 -2.29573 -32.0972 37.2415 -9.98276 -28.0167 39.3846 -9.98276 
-19.9598 42.3604 -9.98276 -11.9029 44.1042 -9.98276 -3.84605 43.8869 -9.98276 
4.21083 42.5312 -9.98276 12.2677 40.7974 -9.98276 27.2521 37.2415 -9.98276 
20.3246 39.1 -9.98276 28.3815 37.2415 -3.78137 -36.0736 -37.0069 -1.92588 
-28.0167 -39.1565 -1.92588 -19.9598 -40.3768 -1.92588 -11.9029 -41.5025 -1.92588 
-3.84605 -42.6492 -1.92588 4.21083 -43.2469 -1.92588 12.2677 -42.6286 -1.92588 
20.3246 -40.8251 -1.92588 28.3815 -37.8153 -1.92588 -39.5824 -35.2705 -1.92588 
-44.1304 -32.708 -1.92588 33.2763 -35.2705 -1.92588 36.4384 -33.4648 -1.92588 
44.4952 -27.7733 -1.92588 -50.6418 -27.2136 -1.92588 -52.1873 -25.4186 -1.92588 
45.1737 -27.2136 -1.92588 52.5521 -19.7118 -1.92588 -56.506 -19.1567 -1.92588 
53.0431 -19.1567 -1.92588 -59.9088 -11.0998 -1.92588 -60.2442 -7.53034 -1.92588 
58.134 -11.0998 -1.92588 60.609 -4.25003 -1.92588 -60.6418 -3.04295 -1.92588 
-60.2442 0.909839 -1.92588 -60.2442 -3.04295 0.684966 61.0065 -3.04295 -1.92588 
-59.8276 5.01393 -1.92588 61.441 5.01393 -1.92588 60.609 7.69249 -1.92588 
-57.3767 13.0708 -1.92588 58.8574 13.0708 -1.92588 -53.4565 21.1277 -1.92588 
-52.1873 22.7648 -1.92588 -52.1873 21.1277 2.08406 53.6119 21.1277 -1.92588 
52.5521 22.3803 -1.92588 52.5521 21.1277 1.90064 -46.2685 29.1846 -1.92588 
-44.1304 31.0833 -1.92588 -44.1304 29.1846 4.60736 -36.0736 36.8748 -1.92588 
36.4384 33.9462 -1.92588 44.5685 29.1846 -1.92588 44.4952 29.2351 -1.92588 
44.4952 29.1846 -1.75659 -35.3325 37.2415 -1.92588 -28.0167 40.4562 -1.92588 
-19.9598 42.8958 -1.92588 -11.9029 44.0898 -1.92588 -3.84605 43.9419 -1.92588 
4.21083 42.8214 -1.92588 12.2677 41.2992 -1.92588 20.3246 39.7157 -1.92588 
20.3246 37.2415 5.91294 28.6097 37.2415 -1.92588 28.3815 37.3316 -1.92588 
28.3815 37.2415 -1.59691 -36.0736 -37.1007 6.131 -28.0167 -39.5765 6.131 
-19.9598 -40.8411 6.131 -11.9029 -41.6752 6.131 -3.84605 -42.4161 6.131 
4.21083 -42.8707 6.131 12.2677 -42.2884 6.131 20.3246 -40.5169 6.131 
28.3815 -37.513 6.131 -39.8266 -35.2705 6.131 -44.1304 -32.4906 6.131 
-36.0736 -35.2705 9.472 32.8615 -35.2705 6.131 28.3815 -35.2705 11.2055 
36.4384 -33.357 6.131 44.4952 -27.9921 6.131 -49.8416 -27.2136 6.131 
-52.1873 -23.8058 6.131 -44.1304 -27.2136 12.2945 45.4388 -27.2136 6.131 
44.4952 -27.2136 7.70783 52.5521 -20.2582 6.131 -54.816 -19.1567 6.131 
-52.1873 -19.1567 9.45349 53.5256 -19.1567 6.131 52.5521 -19.1567 8.02377 
-57.9947 -11.0998 6.131 -52.1873 -11.0998 13.3068 58.3159 -11.0998 6.131 
60.609 -3.69386 6.131 -59.1644 -3.04295 6.131 -52.1873 -3.04295 13.6356 
60.7901 -3.04295 6.131 60.609 -3.04295 6.54079 -57.7058 5.01393 6.131 
-52.1873 5.01393 12.5979 60.9092 5.01393 6.131 60.609 5.8383 6.131 
60.609 5.01393 6.77869 -55.1104 13.0708 6.131 -52.1873 18.3948 6.131 
-52.1873 13.0708 9.89492 57.1948 13.0708 6.131 52.5521 19.5085 6.131 
52.5521 13.0708 11.7623 -50.5483 21.1277 6.131 -44.1304 28.563 6.131 
-44.1304 21.1277 13.8513 51.0333 21.1277 6.131 44.4952 26.5421 6.131 
44.4952 21.1277 11.9119 -43.4038 29.1846 6.131 -36.0736 34.2382 6.131 
-36.0736 29.1846 12.9813 20.3246 37.1585 6.131 28.3815 34.7633 6.131 
28.3815 29.1846 13.0528 40.2136 29.1846 6.131 36.4384 31.2405 6.131 
36.4384 29.1846 8.83659 -29.515 37.2415 6.131 -28.0167 37.8622 6.131 
-28.0167 37.2415 7.11763 -19.9598 40.3229 6.131 -19.9598 37.2415 10.8856 
-11.9029 41.5613 6.131 -11.9029 37.2415 12.3181 -3.84605 41.5664 6.131 
-3.84605 37.2415 12.4036 4.21083 40.4746 6.131 4.21083 37.2415 10.9849 
19.9627 37.2415 6.131 12.2677 38.8978 6.131 12.2677 37.2415 8.72438 
-28.0167 -35.3227 14.1879 -19.9598 -36.316 14.1879 -11.9029 -37.2668 14.1879 
-3.84605 -38.053 14.1879 4.21083 -38.5377 14.1879 12.2677 -38.241 14.1879 
20.3246 -36.4857 14.1879 -28.1579 -35.2705 14.1879 -36.0736 -31.1875 14.1879 
-28.0167 -35.2705 14.2444 -19.9598 -35.2705 15.2152 -11.9029 -35.2705 16.0438 
-3.84605 -35.2705 16.7647 4.21083 -35.2705 17.2769 12.2677 -35.2705 17.1562 
23.8884 -35.2705 14.1879 20.3246 -35.2705 15.4583 28.3815 -33.5038 14.1879 
36.4384 -28.9962 14.1879 -41.4926 -27.2136 14.1879 -44.1304 -24.3263 14.1879 
-36.0736 -27.2136 17.2874 -28.0167 -27.2136 19.5363 -19.9598 -27.2136 20.3757 
-11.9029 -27.2136 20.2743 -3.84605 -27.2136 20.2499 4.21083 -27.2136 20.7911 
12.2677 -27.2136 21.1167 20.3246 -27.2136 20.7447 28.3815 -27.2136 19.2309 
39.1722 -27.2136 14.1879 36.4384 -27.2136 16.0326 44.4952 -22.9347 14.1879 
[...]
POINT_DATA 530
SCALARS ImageScalars float
LOOKUP_TABLE default
0 0 0 0 0 0 0 0 0 
0 0 0 0 0 0 0 0 0 
0 0 0 0 0 0 0 0 0 
0 0 0 0 0 0 0 0 0 
0 0 0 0 0 0 0 0 0 
0 0 0 0 0 0 0 0 0 
0 0 0 0 0 0 0 0 0 
0 0 0 0 0 0 0 0 0 
0 0 0 0 0 0 0 0 0 
0 0 0 0 0 0 0 0 0 
0 0 0 0 0 0 0 0 0 
0 0 0 0 0 0 0 0 0 
0 0 0 0 0 0 0 0 0 
0 0 0 0 0 0 0 0 0 
0 0 0 0 0 0 0 0 0 
0 0 0 0 0 0 0 0 0 
0 0 0 0 0 0 0 0 0 
0 0 0 0 0 0 0 0 0 
0 0 0 0 0 0 0 0 0 
0 0 0 0 0 0 0 0 0 
0 0 0 0 0 0 0 0 0 
0 0 0 0 0 0 0 0 0 
0 0 0 0 0 0 0 0 0 
0 0 0 0 0 0 0 0 0 
0 0 0 0 0 0 0 0 0 
0 0 0 0 0 0 0 0 0 
0 0 0 0 0 0 0 0 0 
0 0 0 0 0 0 0 0 0 
0 0 0 0 0 0 0 0 0 
0 0 0 0 0 0 0 0 0 
0 0 0 0 0 0 0 0 0 
0 0 0 0 0 0 0 0 0 
0 0 0 0 0 0 0 0 0 
0 0 0 0 0 0 0 0 0 
0 0 0 0 0 0 0 0 0 
0 0 0 0 0 0 0 0 0 
0 0 0 0 0 0 0 0 0 
0 0 0 0 0 0 0 0 0 
0 0 0 0 0 0 0 0 0 
0 0 0 0 0 0 0 0 0 
0 0 0 0 0 0 0 0 0 
0 0 0 0 0 0 0 0 0 
0 0 0 0 0 0 0 0 0 
0 0 0 0 0 0 0 0 0 
0 0 0 0 0 0 0 0 0 
0 0 0 0 0 0 0 0 0 
0 0 0 0 0 0 0 0 0 
0 0 0 0 0 0 0 0 0 
0 0 0 0 0 0 0 0 0 
0 0 0 0 0 0 0 0 0 
0 0 0 0 0 0 0 0 0 
0 0 0 0 0 0 0 0 0 
0 0 0 0 0 0 0 0 0 
0 0 0 0 0 0 0 0 0 
0 0 0 0 0 0 0 0 0 
0 0 0 0 0 0 0 0 0 
0 0 0 0 0 0 0 0 0 
0 0 0 0 0 0 0 0 0 
0 0 0 0 0 0 0 0 
NORMALS Normals float
0.266251 0.377453 0.886927 0.129307 0.402146 0.906399 -0.0439473 0.438962 0.89743 
-0.183296 0.45071 0.873649 0.204745 0.242561 0.948285 0.281013 0.193868 0.939918 
0.153115 0.193467 0.969085 -0.0259715 0.232496 0.97225 -0.181693 0.178137 0.967086 
-0.280213 0.213683 0.935853 0.0856237 0.171481 0.98146 0.0100744 0.104973 0.994424 
0.0761904 0.0860056 0.993377 0.201045 0.213894 0.955945 0.217129 0.136204 0.966594 
0.182372 0.0932065 0.978802 -0.0565303 0.0970299 0.993675 -0.220531 -0.0322126 0.974848 
-0.19527 0.0288263 0.980326 -0.283853 0.139996 0.948593 0.206323 0.101211 0.973235 
0.0272924 0.0960539 0.995002 -0.057646 0.0489905 0.997134 0.156769 0.0539373 0.986161 
0.292253 0.129008 0.9476 0.141185 0.108137 0.98406 0.116288 0.0475802 0.992075 
-0.160726 0.00635451 0.986979 -0.242187 -0.0359468 0.969564 -0.11966 0.0101442 0.992763 
-0.149293 0.0730658 0.98609 -0.300227 0.177841 0.937142 0.226997 -0.0363827 0.973216 
0.0339953 0.00133351 0.999421 -0.0356162 0.0891202 0.995384 0.143189 0.0956179 0.985066 
0.268729 -0.0479218 0.962023 0.141463 -0.148978 0.978669 0.0783165 -0.189483 0.978756 
-0.151497 -0.120281 0.981112 -0.197578 0.0565869 0.978653 -0.0957153 0.061746 0.993492 
-0.117321 0.0577497 0.991414 -0.294398 3.0803e-05 0.955683 0.321027 -0.223788 0.92025 
0.145319 -0.103875 0.983917 0.0385172 0.044494 0.998267 0.0518198 0.111753 0.992384 
0.0290222 -0.00439926 0.999569 0.00353338 -0.104976 0.994468 0.146996 -0.19076 0.970568 
0.0858678 -0.164881 0.982569 -0.0782706 0.00468109 0.996921 -0.122264 -0.000109249 0.992498 
-0.207209 -0.0492477 0.977056 -0.378929 -0.194859 0.904678 0.267631 -0.233317 0.934846 
0.172813 -0.109516 0.978847 0.110296 0.0120157 0.993826 0.0251691 0.0275812 0.999303 
-0.0349557 0.0245557 0.999087 0.0181764 -0.0491182 0.998628 0.0576481 -0.150036 0.986998 
-0.034662 -0.170199 0.9848 -0.148712 -0.185937 0.971243 -0.296487 -0.298081 0.907327 
0.286571 -0.321933 0.90235 0.194381 -0.193308 0.96169 0.0389234 -0.167082 0.985174 
-0.0742096 -0.173155 0.982095 -0.0405357 -0.221701 0.974272 -0.0289152 -0.321688 0.946404 
-0.114598 -0.410264 0.904738 -0.252528 -0.492563 0.832833 0.263473 -0.575651 0.774085 
0.0499651 -0.551934 0.83239 -0.0850099 -0.530478 0.843425 0.211137 0.639117 0.739561 
0.256451 0.408331 0.87607 0.189812 0.639009 0.745411 0.101018 0.53515 0.838695 
0.0690095 0.664267 0.744303 -0.0622675 0.574332 0.816251 -0.0867526 0.696372 0.712418 
-0.198832 0.539614 0.818097 -0.234034 0.751112 0.6173 0.408097 0.59595 0.691593 
0.2006 0.53271 0.82218 0.106421 0.444548 0.889411 0.0816361 0.423827 0.902057 
0.252426 0.371082 0.893633 0.204703 0.263833 0.942597 0.20103 0.358031 0.911812 
-0.297984 0.481413 0.824286 -0.316701 0.455877 0.831791 -0.324874 0.494019 0.806475 
-0.474187 0.606234 0.638457 0.633187 0.441867 0.635475 0.341788 0.358411 0.868748 
0.119479 0.241993 0.962894 0.146763 0.309406 0.939536 0.0203402 0.206382 0.97826 
0.0247546 0.248507 0.968314 0.108575 0.238289 0.965106 0.0589633 0.201252 0.977763 
0.0553134 0.235863 0.970211 -0.37378 0.305637 0.875714 -0.373281 0.301994 0.877189 
-0.376415 0.307809 0.873822 -0.549276 0.462715 0.695838 0.57036 0.264332 0.777701 
0.179175 0.219386 0.959044 0.225247 0.210341 0.951326 0.242678 0.250399 0.937234 
-0.353965 0.223009 0.908282 -0.343219 0.222793 0.91245 -0.405172 0.27953 0.870459 
-0.669433 0.362936 0.64818 0.351008 0.108525 0.930062 0.552889 0.0974015 0.827542 
-0.364721 0.182427 0.913071 -0.604929 0.179729 0.775731 0.396951 -0.0771715 0.91459 
0.587241 -0.0994042 0.803285 -0.453318 -0.00993441 0.891294 -0.619507 -0.0285579 0.784471 
0.33964 -0.233646 0.911073 0.663621 -0.300609 0.685012 0.331999 -0.241701 0.911788 
-0.429259 -0.209889 0.878455 -0.415455 -0.264804 0.870216 -0.677474 -0.269859 0.684256 
0.304196 -0.257901 0.917034 0.480385 -0.39397 0.783593 0.296315 -0.279456 0.913292 
-0.401532 -0.351609 0.845661 -0.33931 -0.440873 0.830963 -0.510051 -0.421389 0.749853 
0.621789 -0.667332 0.409936 0.312339 -0.357234 0.880243 0.418725 -0.501416 0.757134 
0.312202 -0.387912 0.867211 -0.14679 -0.55501 0.81879 -0.109226 -0.576118 0.810035 
-0.151891 -0.580677 0.79984 -0.287044 -0.516785 0.80656 -0.262998 -0.539238 0.800034 
-0.401618 -0.632751 0.662065 0.268088 -0.578552 0.770329 0.414115 -0.748789 0.517517 
0.264297 -0.581942 0.769084 0.0573492 -0.61972 0.782725 -0.140619 -0.572898 0.807474 
-0.0877626 -0.5911 0.801809 -0.156222 -0.594655 0.788657 -0.168503 -0.764008 0.622815 
-0.209428 -0.853899 0.476442 0.19933 0.718551 0.666298 0.162501 0.794788 0.584727 
0.0388602 0.854652 0.517744 -0.119287 0.860398 0.495465 -0.25768 0.841655 0.474572 
0.431318 0.634448 0.641437 0.268739 0.63927 0.720495 0.351457 0.83189 0.429463 
0.133891 0.698213 0.703259 0.145962 0.764304 0.62812 0.13414 0.682651 0.718327 
0.12771 0.678634 0.723288 0.129452 0.68981 0.712324 -0.367988 0.807146 0.461628 
-0.37291 0.804624 0.46208 -0.374828 0.811756 0.447834 -0.503454 0.709497 0.4931 
0.464271 0.619633 0.632857 0.649367 0.470404 0.597531 -0.553586 0.66242 0.50472 
-0.597109 0.592211 0.541061 -0.625284 0.748289 0.221548 0.665253 0.446996 0.598025 
-0.631131 0.529662 0.566685 -0.693846 0.429315 0.578158 -0.749186 0.614384 0.247493 
0.756143 0.258396 0.601231 -0.71835 0.372235 0.587719 0.831656 0.0533912 0.552718 
0.990661 0.00227252 0.136329 -0.767565 0.190495 0.61201 -0.956368 0.187188 0.224323 
0.848791 -0.141934 0.509322 -0.804443 -0.067343 0.590201 -0.959849 -0.113438 0.256556 
0.824964 -0.32698 0.460997 0.740895 -0.5039 0.444026 -0.795609 -0.310086 0.520435 
-0.748978 -0.488568 0.447585 0.716701 -0.533646 0.448957 0.778015 -0.564142 0.276473 
-0.723655 -0.541302 0.428153 -0.592802 -0.725745 0.349113 -0.772106 -0.603 0.200608 
0.622025 -0.667473 0.409346 0.621846 -0.667655 0.409322 0.517258 -0.754737 0.403505 
-0.325791 -0.90521 0.272864 -0.565549 -0.758289 0.324272 -0.455341 -0.836436 0.305022 
-0.546551 -0.836016 -0.0485757 0.467617 -0.808651 0.356956 0.409153 -0.848003 0.336873 
0.273918 -0.922525 0.271877 0.0930752 -0.964195 0.248326 -0.0950946 -0.962362 0.254592 
-0.188079 -0.940797 0.282006 -0.208623 -0.931109 0.299185 -0.311056 -0.911031 0.270677 
-0.228822 -0.930786 0.285093 -0.331432 -0.943211 -0.0225106 0.357424 0.906393 0.225166 
0.21055 0.938811 0.272586 0.142431 0.948181 0.284017 0.138562 0.96427 0.225797 
0.106109 0.980381 0.166113 -0.000871102 0.991085 0.133228 -0.144731 0.980872 0.130166 
-0.285399 0.949632 0.129408 -0.404212 0.906 0.125602 0.427687 0.873469 0.232669 
0.53103 0.821592 0.207349 -0.472169 0.871767 0.130688 -0.517345 0.843687 0.143341 
-0.622307 0.763618 0.172107 0.704553 0.688314 0.172709 0.755005 0.637672 0.152779 
-0.632243 0.755011 0.173859 -0.75129 0.625993 0.209034 0.88141 0.462671 0.0951387 
-0.758959 0.6162 0.210423 0.969178 0.238109 0.0632208 0.989897 0.129366 0.0580304 
-0.889263 0.40597 0.210711 -0.960005 0.212034 0.182843 0.998613 -0.0057567 0.05233 
0.994929 -0.0943278 0.0348985 0.996166 -0.00694815 -0.0872076 -0.967131 0.183192 0.176349 
0.982222 -0.187137 0.0148045 -0.981639 -0.124055 0.144894 -0.968626 -0.213037 0.127978 
0.925009 -0.379932 -0.00314904 -0.912052 -0.403478 0.073262 0.827234 -0.560934 -0.0322098 
0.803213 -0.595032 -0.0280332 0.803161 -0.551456 -0.225451 -0.774799 -0.632183 -0.00558518 
-0.752342 -0.65868 -0.0110528 -0.740895 -0.645358 -0.185977 0.681182 -0.73192 -0.0168425 
0.638692 -0.769161 -0.0215506 0.620916 -0.715542 -0.320098 0.500241 -0.865493 -0.0260785 
-0.440638 -0.892015 -0.100731 -0.54406 -0.836522 -0.0650365 -0.542772 -0.837339 -0.065292 
-0.542668 -0.836847 -0.0721048 0.487031 -0.872792 -0.0321786 0.369859 -0.925708 -0.0791747 
0.212114 -0.971168 -0.108816 0.061395 -0.988083 -0.141146 -0.0770493 -0.988576 -0.129543 
-0.161978 -0.980125 -0.114536 -0.191163 -0.976111 -0.103271 -0.234567 -0.966549 -0.103736 
-0.220306 -0.877092 -0.42682 -0.330508 -0.937992 -0.104569 -0.327836 -0.93891 -0.104747 
-0.327704 -0.937506 -0.11702 0.368292 0.90203 -0.225172 0.227095 0.953317 -0.199033 
0.12656 0.972403 -0.195997 0.0956989 0.974116 -0.20479 0.073096 0.971649 -0.224846 
-0.00732251 0.97377 -0.227415 -0.137439 0.965278 -0.222147 -0.278917 0.93545 -0.217114 
-0.393186 0.895897 -0.206819 0.456749 0.854475 -0.247494 0.575792 0.767182 -0.282658 
0.386936 0.816351 -0.428779 -0.442024 0.874304 -0.200519 -0.369698 0.823083 -0.431112 
-0.485556 0.851324 -0.198701 -0.608089 0.773607 -0.178212 0.714972 0.63109 -0.300899 
0.783987 0.517988 -0.34213 0.518436 0.556346 -0.649387 -0.622872 0.762289 -0.175914 
-0.601975 0.757504 -0.252612 -0.753001 0.636648 -0.16634 0.835962 0.382395 -0.393626 
0.764154 0.357847 -0.536669 -0.770958 0.613726 -0.170188 -0.749745 0.60454 -0.269099 
0.884398 0.214195 -0.414681 0.646987 0.166148 -0.744179 -0.908485 0.365185 -0.203214 
-0.958978 0.163485 -0.231591 0.908142 -0.0116497 -0.4185 0.624914 -0.0302772 -0.780106 
-0.960878 0.146772 -0.234887 -0.955854 0.145862 -0.255084 0.873472 -0.200763 -0.443555 
0.678328 -0.151449 -0.718981 -0.944635 -0.180822 -0.273803 -0.936556 -0.210668 -0.280146 
-0.933722 -0.184926 -0.306538 0.828526 -0.361464 -0.427654 0.775062 -0.460323 -0.432876 
0.740584 -0.325948 -0.587616 -0.799712 -0.464372 -0.380551 -0.68973 -0.601082 -0.403699 
-0.611745 -0.45137 -0.649641 0.74638 -0.516738 -0.419402 0.611698 -0.68719 -0.391912 
0.578146 -0.441204 -0.686358 -0.652364 -0.634305 -0.414823 -0.508674 -0.738626 -0.44236 
-0.447563 -0.574025 -0.685699 0.594793 -0.702699 -0.39043 0.458068 -0.798433 -0.390741 
0.422503 -0.647256 -0.634468 -0.219581 -0.872541 -0.436413 -0.302753 -0.841636 -0.447202 
-0.285638 -0.653993 -0.700502 -0.453264 -0.77499 -0.44039 -0.406115 -0.795198 -0.450256 
-0.389177 -0.73435 -0.556122 0.337601 -0.848114 -0.408323 0.314617 -0.854456 -0.413427 
0.308974 -0.841237 -0.443684 0.202539 -0.878126 -0.433442 0.182861 -0.793708 -0.580164 
0.0680276 -0.893711 -0.443456 0.0538813 -0.747883 -0.66164 -0.0620815 -0.900085 -0.431268 
-0.0502671 -0.749546 -0.660041 -0.151089 -0.891979 -0.426082 -0.137125 -0.786407 -0.602296 
-0.217996 -0.873383 -0.435523 -0.187938 -0.884196 -0.427641 -0.179429 -0.83754 -0.516073 
0.207245 0.731532 -0.649546 0.0982966 0.733363 -0.672693 0.0864344 0.723164 -0.685246 
0.063683 0.731178 -0.679208 0.00903289 0.748479 -0.663097 -0.104303 0.765045 -0.635475 
-0.230683 0.7558 -0.612823 0.210601 0.72977 -0.650448 0.382045 0.583652 -0.716514 
0.20728 0.729628 -0.651673 0.0903682 0.697193 -0.711165 0.0801934 0.636429 -0.767155 
0.0654532 0.595364 -0.800785 0.0214018 0.592917 -0.804979 -0.0889369 0.630717 -0.770899 
-0.280419 0.752162 -0.596337 -0.218351 0.711201 -0.668219 -0.340468 0.728707 -0.594194 
-0.434418 0.685914 -0.583783 0.444702 0.504522 -0.740066 0.489036 0.429377 -0.759262 
0.356572 0.456951 -0.814894 0.155337 0.397652 -0.904291 0.039957 0.403053 -0.914304 
-0.00733717 0.353761 -0.935307 0.0319155 0.2728 -0.961541 0.0526296 0.240891 -0.969124 
-0.00126131 0.283587 -0.958946 -0.103528 0.362156 -0.92635 -0.231703 0.455817 -0.859386 
-0.463877 0.664253 -0.586163 -0.40952 0.625633 -0.663985 -0.529974 0.582675 -0.61613 
0.574865 0.291818 -0.764442 0.471347 0.271469 -0.839128 0.295725 0.192304 -0.935717 
0.167738 0.171586 -0.970784 -0.0411769 0.187266 -0.981446 0.047693 0.114308 -0.9923 
-0.117602 0.174799 -0.977556 -0.248762 0.285235 -0.925612 -0.593156 0.5018 -0.629574 
-0.486896 0.443967 -0.752213 -0.663743 0.340644 -0.665888 0.601044 0.154902 -0.784061 
0.420244 0.0969137 -0.902221 0.259345 0.0714065 -0.963141 -0.148996 0.0773081 -0.985811 
-0.358865 0.168095 -0.918128 -0.683767 0.287479 -0.670685 -0.643638 0.277394 -0.71329 
0.598509 -0.0271042 -0.800658 0.419194 0.00623037 -0.907875 0.230769 0.00783445 -0.972977 
-0.0675752 -0.04718 -0.996598 0.0571618 -0.0523578 -0.996991 -0.107611 -0.0384199 -0.99345 
-0.29333 -0.00505382 -0.955998 -0.694099 0.0769293 -0.715757 -0.574953 0.0473002 -0.816818 
0.612105 -0.132025 -0.779678 0.447442 -0.0775838 -0.890941 0.23683 -0.0281036 -0.971145 
0.0144546 -0.0328573 -0.999355 -0.0583241 0.0184071 -0.998128 -0.0356052 0.0679088 -0.997056 
0.0021579 0.0143916 -0.999894 -0.01568 -0.0791551 -0.996739 -0.11107 -0.138986 -0.984046 
-0.291751 -0.185005 -0.938432 -0.637074 -0.226618 -0.736737 -0.562418 -0.343603 -0.75208 
-0.533725 -0.228059 -0.814326 0.602392 -0.262635 -0.753755 0.571474 -0.421432 -0.704139 
0.513252 -0.218698 -0.829906 0.277301 -0.152653 -0.948579 0.102814 -0.098033 -0.989858 
-0.0896004 -0.0813774 -0.992648 -0.12104 -0.185661 -0.97513 -0.20948 -0.293582 -0.932699 
-0.502348 -0.426842 -0.751966 -0.411674 -0.493788 -0.765962 -0.376737 -0.390208 -0.840123 
0.563763 -0.435219 -0.701965 0.408292 -0.594747 -0.692513 0.350698 -0.375877 -0.857746 
0.180281 -0.299973 -0.936758 0.0686817 -0.252663 -0.965114 0.0266443 -0.238413 -0.970798 
-0.0156621 -0.25315 -0.9673 -0.0609673 -0.265821 -0.962093 -0.0896901 -0.301334 -0.949291 
-0.150224 -0.321717 -0.934843 -0.275219 -0.601544 -0.749933 -0.219107 -0.400801 -0.889579 
-0.373258 -0.524439 -0.765273 -0.334441 -0.553424 -0.762805 -0.318358 -0.492289 -0.810123 
0.369613 -0.624922 -0.687647 0.263678 -0.661887 -0.701698 0.238938 -0.58605 -0.774245 
0.151566 -0.678965 -0.718355 0.108498 -0.505191 -0.85616 0.0453517 -0.672587 -0.738627 
0.0387076 -0.475233 -0.879008 -0.0454516 -0.676697 -0.734858 -0.0341381 -0.479207 -0.877038 
-0.11915 -0.665799 -0.736556 -0.0992046 -0.50826 -0.855471 -0.145255 -0.659431 -0.737599 
-0.123321 -0.555117 -0.82258 -0.248377 -0.629212 -0.736478 -0.198149 -0.655324 -0.728895 
-0.188949 -0.602191 -0.77567 0.0353332 0.240499 -0.970006 -0.0579404 0.245708 -0.967611 
0.0326895 0.119088 -0.992345 -0.0512884 0.134255 -0.989619 0.126475 0.176451 -0.97615 
0.164099 0.105656 -0.980769 0.0360109 0.186977 -0.981704 -0.0555957 0.2119 -0.975709 
-0.0651732 0.228804 -0.971288 -0.0559368 0.163165 -0.985012 0.0441362 0.0931999 -0.994669 
-0.00401174 0.0771162 -0.997014 0.0410344 0.073531 -0.996448 -0.0766207 0.127308 -0.988899 
-0.0413829 0.0877683 -0.995281 -0.0564454 0.067158 -0.996144 0.179188 0.0380669 -0.983078 
0.1595 0.0311818 -0.986705 0.0914807 -0.00723627 -0.995781 -0.0122953 0.0465578 -0.99884 
-0.0898523 0.102925 -0.990623 -0.0595524 0.037013 -0.997539 -0.0272917 -0.0733469 -0.996933 
-0.0221726 -0.0764469 -0.996827 0.00417332 -0.0714594 -0.997435 0.00261479 -0.0719945 -0.997402 
-0.0601521 0.0354016 -0.997561 -0.0304622 0.02138 -0.999307 0.118636 -0.00987939 -0.992889 
0.091869 -0.01405 -0.995672 0.054926 -0.0802086 -0.995264 0.0150163 -0.0343152 -0.999298 
0.0456602 -0.114734 -0.992346 -0.0548776 -0.0510819 -0.997186 -0.118141 -0.0403423 -0.992177 
-0.0941958 -0.00948308 -0.995509 -0.131392 -0.0384502 -0.990585 0.0361164 -0.0480741 -0.998191 
0.0328395 -0.0478357 -0.998315 0.0354532 -0.0483325 -0.998202 0.0359559 -0.0480419 -0.998198 
0.0862955 -0.0207135 -0.996054 0.0888515 -0.0600934 -0.99423 0.0744661 -0.0207016 -0.997009 
0.00900624 -0.0264785 -0.999609 -0.00679475 -0.00791929 -0.999946 0.0127182 -0.0317604 -0.999415 
0.015272 -0.0326698 -0.99935 -0.0382625 0.00362266 -0.999261 -0.0134094 -0.0146698 -0.999802 
-0.055396 0.00432554 -0.998455 -0.0648099 -0.0124428 -0.99782 0.0896828 -0.0867394 -0.992186 
0.0505016 -0.111556 -0.992474 0.0415845 -0.0444897 -0.998144 0.0323471 -0.146315 -0.988709 
0.0393429 -0.0241047 -0.998935 -0.0130358 -0.207762 -0.978092 -0.00319676 -0.0314107 -0.999501 
-0.0542408 -0.130717 -0.989935 -0.0482522 -0.0265549 -0.998482 -0.0764558 -0.0452717 -0.996045 
-0.0752473 -0.069264 -0.994756 -0.0728735 -0.0350199 -0.996726 
