# vtk DataFile Version 4.2
vtk output
ASCII
DATASET POLYDATA
POINTS 576 float
-41.3274 -28.9423 -16.7683 -33.1063 -28.9423 -17.2246 -24.8851 -28.9423 -17.3965 
-16.664 -28.9423 -16.8394 -8.44285 -28.9423 -16.2456 -0.221705 -28.9423 -15.4874 
7.99944 -28.9423 -15.1135 16.2206 -28.9423 -15.3096 24.4417 -28.9423 -15.7808 
32.6629 -28.9423 -15.2047 40.884 -28.9423 -14.4051 -49.5485 -20.7212 -16.9781 
-41.3274 -20.7212 -18.5294 -33.1063 -20.7212 -18.6561 -24.8851 -20.7212 -18.3584 
-16.664 -20.7212 -18.3037 -8.44285 -20.7212 -18.2004 -0.221705 -20.7212 -16.9177 
7.99944 -20.7212 -16.0367 16.2206 -20.7212 -16.5656 24.4417 -20.7212 -17.2772 
32.6629 -20.7212 -16.9594 40.884 -20.7212 -16.6013 49.1051 -20.7212 -15.4813 
-57.7697 -12.5 -14.3509 -49.5485 -12.5 -17.9639 -41.3274 -12.5 -19.2857 
-33.1063 -12.5 -19.3151 -24.8851 -12.5 -19.0203 -16.664 -12.5 -18.6311 
-8.44285 -12.5 -20.2859 -0.221705 -12.5 -18.4877 7.99944 -12.5 -18.2922 
16.2206 -12.5 -16.8027 24.4417 -12.5 -17.1559 32.6629 -12.5 -17.9229 
40.884 -12.5 -18.6531 49.1051 -12.5 -16.5911 -57.7697 -4.27889 -15.9553 
-49.5485 -4.27889 -19.229 -41.3274 -4.27889 -20.1206 -33.1063 -4.27889 -19.8047 
-24.8851 -4.27889 -18.5439 -16.664 -4.27889 -17.9879 -8.44285 -4.27889 -21.4123 
-0.221705 -4.27889 -16.0811 7.99944 -4.27889 -21.4083 16.2206 -4.27889 -17.8358 
24.4417 -4.27889 -16.9677 32.6629 -4.27889 -18.2428 40.884 -4.27889 -18.3333 
49.1051 -4.27889 -17.473 57.3263 -4.27889 -15.07 -57.7697 3.94225 -16.658 
-49.5485 3.94225 -19.7754 -41.3274 3.94225 -20.5136 -33.1063 3.94225 -20.0559 
-24.8851 3.94225 -18.5629 -16.664 3.94225 -17.0976 -8.44285 3.94225 -21.9586 
-0.221705 3.94225 -18.2441 7.99944 3.94225 -21.4452 16.2206 3.94225 -18.4803 
24.4417 3.94225 -17.4938 32.6629 3.94225 -18.29 40.884 3.94225 -18.5016 
49.1051 3.94225 -17.3663 57.3263 3.94225 -14.2697 -57.7697 12.1634 -14.95 
-49.5485 12.1634 -18.9047 -41.3274 12.1634 -20.0984 -33.1063 12.1634 -20.1053 
-24.8851 12.1634 -19.3694 -16.664 12.1634 -18.1021 -8.44285 12.1634 -18.8309 
-0.221705 12.1634 -18.9771 7.99944 12.1634 -20.5232 16.2206 12.1634 -19.9553 
24.4417 12.1634 -19.3217 32.6629 12.1634 -19.2749 40.884 12.1634 -18.6505 
49.1051 12.1634 -16.3153 -49.5485 20.3845 -17.532 -41.3274 20.3845 -20.0912 
-33.1063 20.3845 -20.1935 -24.8851 20.3845 -19.9402 -16.664 20.3845 -19.5042 
-8.44285 20.3845 -19.1149 -0.221705 20.3845 -18.95 7.99944 20.3845 -20.5434 
16.2206 20.3845 -21.2357 24.4417 20.3845 -20.5834 32.6629 20.3845 -19.8603 
40.884 20.3845 -17.9278 49.1051 20.3845 -14.4842 -41.3274 28.6057 -17.6326 
-33.1063 28.6057 -18.9735 -24.8851 28.6057 -20.2496 -16.664 28.6057 -19.8595 
-8.44285 28.6057 -19.7689 -0.221705 28.6057 -19.9538 7.99944 28.6057 -20.5696 
16.2206 28.6057 -21.1624 24.4417 28.6057 -20.8636 32.6629 28.6057 -18.9787 
40.884 28.6057 -15.8497 -33.1063 36.8268 -16.5044 -24.8851 36.8268 -17.8999 
-16.664 36.8268 -18.6513 -8.44285 36.8268 -18.8521 -0.221705 36.8268 -18.9339 
7.99944 36.8268 -19.0676 16.2206 36.8268 -19.0926 24.4417 36.8268 -17.6396 
32.6629 36.8268 -15.2697 -16.664 45.048 -14.8528 -8.44285 45.048 -14.9261 
-0.221705 45.048 -14.7931 7.99944 45.048 -14.8945 -49.5485 -37.1634 -9.19085 
-41.3274 -33.9561 -13.9558 -41.3274 -37.1634 -11.4077 -33.1063 -36.1132 -13.9558 
-33.1063 -37.1634 -13.3799 -24.8851 -36.3527 -13.9558 -24.8851 -37.1634 -13.4481 
-16.664 -35.497 -13.9558 -16.664 -37.1634 -13.0947 -8.44285 -34.5221 -13.9558 
-8.44285 -37.1634 -12.6241 -0.221705 -33.1257 -13.9558 -0.221705 -37.1634 -12.1529 
7.99944 -31.9873 -13.9558 7.99944 -37.1634 -11.704 16.2206 -33.5191 -13.9558 
16.2206 -37.1634 -12.5725 24.4417 -33.6355 -13.9558 24.4417 -37.1634 -12.0456 
32.6629 -31.6006 -13.9558 32.6629 -37.1634 -10.6574 40.884 -30.2141 -13.9558 
40.884 -37.1634 -8.97559 -57.7697 -28.9423 -9.01945 -48.4595 -28.9423 -13.9558 
-49.5485 -27.9123 -13.9558 -49.5485 -28.9423 -13.3941 42.2896 -28.9423 -13.9558 
49.1051 -23.7732 -13.9558 49.1051 -28.9423 -11.1604 57.3263 -28.9423 -6.56189 
-55.0524 -20.7212 -13.9558 -57.7697 -13.8138 -13.9558 -57.7697 -20.7212 -11.589 
55.9288 -20.7212 -13.9558 57.3263 -20.7212 -13.4701 -58.3232 -12.5 -13.9558 
56.8918 -12.5 -13.9558 57.3263 -11.3885 -13.9558 57.3263 -12.5 -13.7955 
65.5474 -12.5 -7.82749 -60.1185 -4.27889 -13.9558 59.1948 -4.27889 -13.9558 
65.5474 -4.27889 -8.82898 -60.6701 3.94225 -13.9558 57.8089 3.94225 -13.9558 
57.3263 5.17198 -13.9558 65.5474 3.94225 -7.11784 -58.7871 12.1634 -13.9558 
-57.7697 14.3178 -13.9558 54.0708 12.1634 -13.9558 57.3263 12.1634 -11.7794 
-54.9197 20.3845 -13.9558 -57.7697 20.3845 -10.3065 -49.5485 26.8835 -13.9558 
50.1085 20.3845 -13.9558 49.1051 21.6166 -13.9558 57.3263 20.3845 -6.26641 
-47.8603 28.6057 -13.9558 -49.5485 28.6057 -12.1426 -41.3274 34.2719 -13.9558 
44.0638 28.6057 -13.9558 40.884 31.8055 -13.9558 49.1051 28.6057 -8.74819 
-37.8675 36.8268 -13.9558 -41.3274 36.8268 -10.6214 -33.1063 39.9232 -13.9558 
-24.8851 43.2587 -13.9558 16.2206 44.3489 -13.9558 24.4417 41.6943 -13.9558 
35.0386 36.8268 -13.9558 32.6629 38.3217 -13.9558 40.884 36.8268 -7.9559 
-20.1105 45.048 -13.9558 -24.8851 45.048 -11.3172 -16.664 45.9213 -13.9558 
-8.44285 46.0282 -13.9558 -0.221705 45.8802 -13.9558 13.1249 45.048 -13.9558 
7.99944 45.9373 -13.9558 16.2206 45.048 -12.8492 24.4417 45.048 -8.4496 
-49.5485 -39.5915 -5.7347 -41.3274 -42.4452 -5.7347 -33.1063 -44.15 -5.7347 
-24.8851 -44.1994 -5.7347 -16.664 -44.2973 -5.7347 -8.44285 -43.82 -5.7347 
-8.44285 -45.3846 1.74256 -0.221705 -43.6134 -5.7347 7.99944 -43.2095 -5.7347 
16.2206 -43.0121 -5.7347 24.4417 -42.7906 -5.7347 32.6629 -41.4246 -5.7347 
40.884 -39.0658 -5.7347 -52.9092 -37.1634 -5.7347 -57.7697 -32.0922 -5.7347 
45.8189 -37.1634 -5.7347 49.1051 -35.5108 -5.7347 49.1051 -37.1634 0.590005 
57.3263 -29.6756 -5.7347 -60.2498 -28.9423 -5.7347 58.0401 -28.9423 -5.7347 
-62.8614 -20.7212 -5.7347 64.1643 -20.7212 -5.7347 65.5474 -17.6356 -5.7347 
65.5474 -20.7212 -0.929804 -65.6131 -12.5 -5.7347 67.0226 -12.5 -5.7347 
-65.7933 -4.27889 -5.7347 67.4893 -4.27889 -5.7347 -65.5084 3.94225 -5.7347 
66.4177 3.94225 -5.7347 65.5474 5.93625 -5.7347 -64.0797 12.1634 -5.7347 
62.3348 12.1634 -5.7347 -60.4011 20.3845 -5.7347 -57.7697 24.3991 -5.7347 
57.6292 20.3845 -5.7347 57.3263 20.7809 -5.7347 -54.263 28.6057 -5.7347 
-49.5485 33.3242 -5.7347 51.1648 28.6057 -5.7347 49.1051 30.7906 -5.7347 
-45.3854 36.8268 -5.7347 -41.3274 39.6957 -5.7347 -33.1063 44.3685 -5.7347 
32.6629 42.7606 -5.7347 42.417 36.8268 -5.7347 40.884 37.996 -5.7347 
-31.3813 45.048 -5.7347 -24.8851 47.3917 -5.7347 -16.664 49.2838 -5.7347 
-8.44285 50.4966 -5.7347 -0.221705 50.3554 -5.7347 7.99944 49.5444 -5.7347 
16.2206 48.1393 -5.7347 27.3997 45.048 -5.7347 24.4417 46.1686 -5.7347 
-8.44285 -45.5141 2.48644 -49.5485 -40.3031 2.48644 -41.3274 -43.6344 2.48644 
-33.1063 -44.9347 2.48644 -24.8851 -44.9832 2.48644 -10.8791 -45.3846 2.48644 
-16.664 -45.0774 2.48644 -2.96382 -45.3846 2.48644 -8.44285 -45.3846 2.83399 
-0.221705 -45.3182 2.48644 7.99944 -44.5588 2.48644 16.2206 -43.9515 2.48644 
24.4417 -43.876 2.48644 32.6629 -42.9794 2.48644 40.884 -40.9512 2.48644 
49.1051 -37.5389 2.48644 -54.0793 -37.1634 2.48644 -57.7697 -33.3949 2.48644 
-49.5485 -37.1634 8.66913 49.6773 -37.1634 2.48644 49.1051 -37.1634 3.50438 
57.3263 -31.7085 2.48644 -61.1863 -28.9423 2.48644 -57.7697 -28.9423 8.05581 
60.0069 -28.9423 2.48644 57.3263 -28.9423 8.1369 65.5474 -21.699 2.48644 
-63.6241 -20.7212 2.48644 66.1732 -20.7212 2.48644 65.5474 -20.7212 4.12351 
-64.8351 -12.5 2.48644 68.3169 -12.5 2.48644 65.5474 -12.5 9.50272 
-65.3742 -4.27889 2.48644 68.7371 -4.27889 2.48644 -64.5763 3.94225 2.48644 
67.3797 3.94225 2.48644 65.5474 8.0177 2.48644 65.5474 3.94225 7.68127 
-63.1366 12.1634 2.48644 63.4751 12.1634 2.48644 -59.5239 20.3845 2.48644 
-57.7697 23.1998 2.48644 -57.7697 20.3845 5.60913 58.1784 20.3845 2.48644 
57.3263 21.4344 2.48644 57.3263 20.3845 4.55651 -53.7502 28.6057 2.48644 
-49.5485 32.9297 2.48644 -49.5485 28.6057 9.20056 51.1565 28.6057 2.48644 
49.1051 30.6384 2.48644 49.1051 28.6057 6.69968 -44.5213 36.8268 2.48644 
-41.3274 39.0586 2.48644 -41.3274 36.8268 6.50312 -33.1063 42.9156 2.48644 
32.6629 42.1392 2.48644 41.7348 36.8268 2.48644 40.884 37.4468 2.48644 
40.884 36.8268 3.84663 -26.311 45.048 2.48644 -24.8851 45.477 2.48644 
-24.8851 45.048 3.22729 -16.664 47.1011 2.48644 -16.664 45.048 5.8623 
-8.44285 48.1517 2.48644 -8.44285 45.048 6.89771 -0.221705 48.4151 2.48644 
-0.221705 45.048 7.28929 7.99944 48.1714 2.48644 7.99944 45.048 7.48997 
16.2206 47.113 2.48644 16.2206 45.048 6.5121 25.0579 45.048 2.48644 
24.4417 45.2747 2.48644 24.4417 45.048 2.9818 -41.3274 -38.829 10.7076 
-33.1063 -40.1118 10.7076 -24.8851 -41.126 10.7076 -16.664 -41.2315 10.7076 
-8.44285 -41.5286 10.7076 -0.221705 -41.2654 10.7076 7.99944 -40.4024 10.7076 
16.2206 -39.609 10.7076 24.4417 -39.8253 10.7076 32.6629 -39.6787 10.7076 
40.884 -38.0025 10.7076 -45.6749 -37.1634 10.7076 -49.5485 -35.0055 10.7076 
-41.3274 -37.1634 12.1046 -33.1063 -37.1634 13.7448 -24.8851 -37.1634 14.1349 
-16.664 -37.1634 14.2909 -8.44285 -37.1634 14.6883 -0.221705 -37.1634 14.4548 
7.99944 -37.1634 13.5944 16.2206 -37.1634 12.9042 24.4417 -37.1634 13.2666 
32.6629 -37.1634 13.0738 42.9235 -37.1634 10.7076 40.884 -37.1634 11.8124 
49.1051 -33.6305 10.7076 -55.049 -28.9423 10.7076 -57.7697 -24.3817 10.7076 
-49.5485 -28.9423 14.0905 -41.3274 -28.9423 16.8857 -33.1063 -28.9423 17.9693 
-24.8851 -28.9423 17.4512 -16.664 -28.9423 17.9622 -8.44285 -28.9423 18.3912 
-0.221705 -28.9423 18.2522 7.99944 -28.9423 16.9919 16.2206 -28.9423 17.75 
24.4417 -28.9423 18.39 40.884 -28.9423 17.3684 55.2937 -28.9423 10.7076 
49.1051 -28.9423 15.3135 57.3263 -27.2884 10.7076 -59.0076 -20.7212 10.7076 
-57.7697 -20.7212 11.8691 -49.5485 -20.7212 16.0198 -24.8851 -20.7212 18.8337 
-16.664 -20.7212 18.506 7.99944 -20.7212 18.7777 49.1051 -20.7212 18.2041 
62.3973 -20.7212 10.7076 57.3263 -20.7212 15.2864 -60.9071 -12.5 10.7076 
[...]
POINT_DATA 576
SCALARS ImageScalars float
LOOKUP_TABLE default
0 0 0 0 0 0 0 0 0 
0 0 0 0 0 0 0 0 0 
0 0 0 0 0 0 0 0 0 
0 0 0 0 0 0 0 0 0 
0 0 0 0 0 0 0 0 0 
0 0 0 0 0 0 0 0 0 
0 0 0 0 0 0 0 0 0 
0 0 0 0 0 0 0 0 0 
0 0 0 0 0 0 0 0 0 
0 0 0 0 0 0 0 0 0 
0 0 0 0 0 0 0 0 0 
0 0 0 0 0 0 0 0 0 
0 0 0 0 0 0 0 0 0 
0 0 0 0 0 0 0 0 0 
0 0 0 0 0 0 0 0 0 
0 0 0 0 0 0 0 0 0 
0 0 0 0 0 0 0 0 0 
0 0 0 0 0 0 0 0 0 
0 0 0 0 0 0 0 0 0 
0 0 0 0 0 0 0 0 0 
0 0 0 0 0 0 0 0 0 
0 0 0 0 0 0 0 0 0 
0 0 0 0 0 0 0 0 0 
0 0 0 0 0 0 0 0 0 
0 0 0 0 0 0 0 0 0 
0 0 0 0 0 0 0 0 0 
0 0 0 0 0 0 0 0 0 
0 0 0 0 0 0 0 0 0 
0 0 0 0 0 0 0 0 0 
0 0 0 0 0 0 0 0 0 
0 0 0 0 0 0 0 0 0 
0 0 0 0 0 0 0 0 0 
0 0 0 0 0 0 0 0 0 
0 0 0 0 0 0 0 0 0 
0 0 0 0 0 0 0 0 0 
0 0 0 0 0 0 0 0 0 
0 0 0 0 0 0 0 0 0 
0 0 0 0 0 0 0 0 0 
0 0 0 0 0 0 0 0 0 
0 0 0 0 0 0 0 0 0 
0 0 0 0 0 0 0 0 0 
0 0 0 0 0 0 0 0 0 
0 0 0 0 0 0 0 0 0 
0 0 0 0 0 0 0 0 0 
0 0 0 0 0 0 0 0 0 
0 0 0 0 0 0 0 0 0 
0 0 0 0 0 0 0 0 0 
0 0 0 0 0 0 0 0 0 
0 0 0 0 0 0 0 0 0 
0 0 0 0 0 0 0 0 0 
0 0 0 0 0 0 0 0 0 
0 0 0 0 0 0 0 0 0 
0 0 0 0 0 0 0 0 0 
0 0 0 0 0 0 0 0 0 
0 0 0 0 0 0 0 0 0 
0 0 0 0 0 0 0 0 0 
0 0 0 0 0 0 0 0 0 
0 0 0 0 0 0 0 0 0 
0 0 0 0 0 0 0 0 0 
0 0 0 0 0 0 0 0 0 
0 0 0 0 0 0 0 0 0 
0 0 0 0 0 0 0 0 0 
0 0 0 0 0 0 0 0 0 
0 0 0 0 0 0 0 0 0 

NORMALS Normals float
-0.179905 -0.337501 -0.923973 -0.0431185 -0.307439 -0.95059 0.0218983 -0.2618 -0.964874 
0.070642 -0.281606 -0.956926 0.0792497 -0.296315 -0.951797 0.0663297 -0.253099 -0.965164 
0.0115101 -0.234277 -0.972102 -0.0414873 -0.221661 -0.974241 0.00505373 -0.280643 -0.959799 
0.0850455 -0.314387 -0.945478 0.205991 -0.313426 -0.927002 -0.317578 -0.218132 -0.922802 
-0.114758 -0.170265 -0.978693 0.0109094 -0.119298 -0.992799 0.0213008 -0.101367 -0.994621 
0.00931984 -0.101889 -0.994752 0.0825201 -0.23704 -0.967989 0.130552 -0.182926 -0.97442 
0.0205445 -0.177033 -0.98399 -0.0758436 -0.0878458 -0.993243 -0.023714 -0.0869772 -0.995928 
0.0395816 -0.15466 -0.987175 0.0790889 -0.253483 -0.964101 0.194133 -0.295042 -0.935555 
-0.518684 -0.202056 -0.830747 -0.254556 -0.137614 -0.957217 -0.0760863 -0.0921763 -0.992832 
0.0165249 -0.0710209 -0.997338 0.0420924 -0.0113002 -0.99905 -0.0740745 0.0178197 -0.997093 
0.0066834 -0.186527 -0.982427 0.11886 0.0257915 -0.992576 0.106577 -0.299806 -0.948028 
0.0624825 -0.0607836 -0.996193 -0.067792 0.0179413 -0.997538 -0.0885904 -0.0757393 -0.993184 
0.0766309 -0.098354 -0.992197 0.256575 -0.104927 -0.960812 -0.541955 -0.113061 -0.832768 
-0.208029 -0.106479 -0.97231 -0.0305641 -0.0745118 -0.996752 0.0950738 -0.0448117 -0.994461 
0.108961 0.0276849 -0.99366 -0.161806 0.0991847 -0.981825 0.0658508 -0.0967912 -0.993124 
0.0349218 0.0458093 -0.99834 -0.120212 -0.193502 -0.973707 0.264642 -0.112061 -0.957814 
-0.0358137 -0.0210971 -0.999136 -0.0793919 -0.0230448 -0.996577 0.0448818 0.00811879 -0.998959 
0.176182 -0.0465476 -0.983256 0.416462 -0.0278958 -0.908725 -0.557748 0.0434756 -0.828871 
-0.185967 0.0186772 -0.982379 -0.0129809 0.00128527 -0.999915 0.117302 -0.0181635 -0.99293 
0.17763 -0.0453267 -0.983053 -0.128077 -0.00890735 -0.991724 -0.140782 0.178789 -0.973763 
-0.00901649 -0.181433 -0.983362 -0.0101891 0.0594664 -0.998178 0.244501 -0.131479 -0.960694 
-0.000262876 -0.135573 -0.990767 -0.0608029 -0.0675599 -0.995861 0.053498 -0.0195207 -0.998377 
0.22044 0.0656218 -0.973191 0.470846 0.151214 -0.869159 -0.614558 0.253517 -0.747026 
-0.250255 0.140091 -0.957991 -0.0665958 0.0256519 -0.99745 0.0404104 -0.00825577 -0.999149 
0.125858 -0.0864623 -0.988273 0.0291757 -0.14917 -0.988381 -0.0555231 0.125883 -0.99049 
-0.103541 -0.0340364 -0.994043 -0.0566667 0.0476653 -0.997255 0.0723358 -0.153581 -0.985485 
0.0417962 -0.189796 -0.980934 0.0394138 -0.0902444 -0.995139 0.17246 0.0302308 -0.984553 
0.351023 0.162943 -0.92208 -0.402519 0.27654 -0.872642 -0.162066 0.14987 -0.975333 
0.0101259 0.0724299 -0.997322 0.0414404 -0.0495241 -0.997913 0.0486316 -0.106019 -0.993174 
0.0345395 -0.0572275 -0.997764 -0.0873862 -0.0591619 -0.994416 -0.138796 -0.00282243 -0.990317 
-0.00248621 -0.0721385 -0.997392 0.0845057 -0.0902455 -0.992328 0.153543 0.0155774 -0.988019 
0.311672 0.163104 -0.936086 0.447107 0.306406 -0.840364 -0.294215 0.374501 -0.87931 
-0.154171 0.204755 -0.966595 -0.0583253 0.120098 -0.991047 0.02828 0.0480923 -0.998442 
-0.00567023 0.0141675 -0.999884 -0.0490952 -0.00368807 -0.998787 -0.0721047 0.0820096 -0.99402 
-0.0194054 0.126544 -0.991771 0.132418 0.155532 -0.978915 0.275999 0.236679 -0.931562 
0.451542 0.357885 -0.81733 -0.294952 0.511766 -0.806907 -0.12113 0.392337 -0.911811 
-0.0557954 0.272282 -0.960598 -0.0168106 0.249371 -0.968262 -0.0125983 0.263725 -0.964516 
-0.00933868 0.308055 -0.951323 0.0786597 0.394643 -0.915461 0.210911 0.492337 -0.844465 
0.354458 0.596887 -0.719782 -0.120147 0.695297 -0.708609 0.00269452 0.650182 -0.759774 
0.00140676 0.6636 -0.748086 0.0717173 0.699698 -0.71083 -0.446864 -0.688394 -0.571338 
-0.180469 -0.501976 -0.845844 -0.187631 -0.649192 -0.737119 -0.0894596 -0.496102 -0.863643 
-0.0986774 -0.540015 -0.835851 0.0156531 -0.520689 -0.853603 0.0143536 -0.562037 -0.826988 
0.0504545 -0.487494 -0.871667 0.0413268 -0.559721 -0.82765 0.0567957 -0.457764 -0.887258 
0.0487608 -0.56597 -0.822982 0.0603856 -0.382636 -0.921924 0.0485648 -0.551994 -0.832433 
-0.00110581 -0.335914 -0.941892 -0.0184225 -0.562585 -0.826534 -0.0370898 -0.380254 -0.924138 
-0.0208579 -0.553286 -0.83273 0.0526452 -0.423939 -0.904159 0.0909869 -0.586872 -0.804551 
0.0824264 -0.40356 -0.911233 0.12478 -0.672455 -0.729544 0.213377 -0.363851 -0.906688 
0.287869 -0.767103 -0.57331 -0.680608 -0.458468 -0.571472 -0.355428 -0.393299 -0.847931 
-0.375466 -0.376943 -0.846723 -0.388939 -0.405424 -0.827259 0.232235 -0.339505 -0.911484 
0.246588 -0.375003 -0.893626 0.370813 -0.516988 -0.771506 0.619807 -0.618451 -0.483071 
-0.532899 -0.22174 -0.816609 -0.540583 -0.201949 -0.816692 -0.683034 -0.23645 -0.691055 
0.422086 -0.303508 -0.85424 0.47646 -0.309623 -0.822873 -0.541172 -0.200495 -0.81666 
0.412027 -0.0771592 -0.907899 0.420102 -0.0677814 -0.904942 0.424896 -0.0781128 -0.901866 
0.825024 -0.178578 -0.536139 -0.643901 -0.0896302 -0.75984 0.476399 -0.0191652 -0.87902 
0.833817 0.0234452 -0.551543 -0.694226 0.0624016 -0.717047 0.485489 0.154933 -0.860404 
0.487306 0.164221 -0.85765 0.858663 0.269917 -0.43571 -0.659835 0.258594 -0.705511 
-0.655612 0.288317 -0.697887 0.494547 0.212259 -0.842834 0.635937 0.299345 -0.71132 
-0.621741 0.359606 -0.695788 -0.780527 0.437408 -0.446599 -0.542794 0.515276 -0.663223 
0.476921 0.329044 -0.815031 0.478944 0.343805 -0.807719 0.781449 0.553217 -0.288597 
-0.526684 0.536557 -0.659326 -0.596458 0.594255 -0.539536 -0.45422 0.598315 -0.660079 
0.539112 0.43081 -0.723713 0.512763 0.495223 -0.701304 0.691685 0.601454 -0.399782 
-0.426307 0.628953 -0.650139 -0.520168 0.735524 -0.434085 -0.354054 0.661984 -0.660623 
-0.263299 0.671462 -0.692685 0.182675 0.754145 -0.63079 0.271274 0.684812 -0.676345 
0.421845 0.634663 -0.647495 0.376609 0.664343 -0.645611 0.579848 0.760379 -0.292574 
-0.194918 0.724109 -0.661569 -0.304485 0.831182 -0.465215 -0.119991 0.743357 -0.658045 
0.00147453 0.70581 -0.7084 0.00435912 0.708237 -0.705961 0.147492 0.759138 -0.633999 
0.0769148 0.749391 -0.657646 0.194343 0.812486 -0.549634 0.30245 0.906042 -0.295993 
-0.467874 -0.807884 -0.358354 -0.25549 -0.889702 -0.378358 -0.0942845 -0.930948 -0.352769 
-0.00778732 -0.940029 -0.341005 0.0199833 -0.925634 -0.377892 0.0365845 -0.895175 -0.44421 
-0.0106018 -0.998318 0.0569897 0.0331187 -0.887388 -0.459832 0.0334479 -0.894266 -0.446285 
0.0226904 -0.916909 -0.398451 0.0898071 -0.912588 -0.398897 0.199816 -0.882866 -0.424995 
0.312772 -0.863502 -0.395648 -0.589428 -0.721811 -0.362717 -0.738581 -0.565141 -0.367577 
0.413756 -0.809866 -0.41584 0.464107 -0.757385 -0.459318 0.496638 -0.867271 -0.0345284 
0.631576 -0.638592 -0.439673 -0.799622 -0.473713 -0.369054 0.648136 -0.621134 -0.440582 
-0.889892 -0.286215 -0.355209 0.772692 -0.457297 -0.440256 0.830861 -0.351554 -0.43137 
0.879946 -0.460021 -0.118643 -0.965953 -0.149588 -0.211087 0.893492 -0.167968 -0.416483 
-0.980737 0.00735697 -0.195193 0.9274 0.0369138 -0.372246 -0.985862 0.0968539 -0.136729 
0.892126 0.273091 -0.359906 0.880505 0.31776 -0.351767 -0.941758 0.292513 -0.165916 
0.82613 0.439989 -0.352021 -0.860637 0.475819 -0.181383 -0.800203 0.572905 -0.177354 
0.787601 0.558295 -0.260753 0.785072 0.562843 -0.258592 -0.725044 0.662657 -0.187608 
-0.653484 0.732121 -0.192245 0.726433 0.640849 -0.248209 0.702176 0.672515 -0.233822 
-0.590918 0.786288 -0.180465 -0.537324 0.82473 -0.176359 -0.41975 0.899303 -0.122738 
0.438215 0.883949 -0.163099 0.600259 0.776734 -0.190717 0.575576 0.796482 -0.185281 
-0.388046 0.915028 -0.110197 -0.285245 0.956138 -0.0666009 -0.18265 0.981775 -0.0525121 
-0.0659532 0.994742 -0.0783515 0.0582847 0.993279 -0.0999958 0.132436 0.985183 -0.10897 
0.20578 0.970133 -0.128442 0.346677 0.92662 -0.145568 0.298539 0.9443 -0.138463 
-0.0148608 -0.994861 0.100151 -0.500442 -0.847844 0.175268 -0.2531 -0.960066 0.11922 
-0.0844093 -0.982349 0.166932 -0.00862541 -0.989626 0.143411 -0.0200027 -0.993648 0.110745 
-0.0314977 -0.990089 0.136864 0.0327666 -0.994279 0.101661 -0.0143631 -0.992856 0.118449 
0.0564688 -0.99312 0.102583 0.0821713 -0.988829 0.124361 0.0409281 -0.987376 0.153017 
0.0628791 -0.988942 0.134309 0.167746 -0.983859 0.0623032 0.30206 -0.9513 0.0615488 
0.488222 -0.869685 0.0727129 -0.647052 -0.741975 0.17549 -0.7648 -0.616799 0.186118 
-0.467163 -0.692712 0.549462 0.498978 -0.863556 0.0727461 0.492853 -0.860364 0.129884 
0.673528 -0.734836 0.0798516 -0.861887 -0.467265 0.197011 -0.699087 -0.464669 0.543471 
0.740037 -0.66753 0.0821485 0.633535 -0.655061 0.411738 0.882104 -0.461879 0.0925278 
-0.958646 -0.19726 0.205147 0.896375 -0.433038 0.0948214 0.882832 -0.431511 0.185486 
-0.959341 -0.100476 0.263759 0.983474 -0.151469 0.0991804 0.837667 -0.162726 0.521377 
-0.961406 0.0145508 0.274749 0.994196 0.056846 0.0913386 -0.944014 0.128461 0.303868 
0.950595 0.291709 0.106187 0.919734 0.378151 0.105317 0.8829 0.283909 0.374009 
-0.910266 0.281016 0.304048 0.878202 0.468226 0.0975972 -0.847215 0.452237 0.278762 
-0.813001 0.516274 0.269241 -0.793247 0.445531 0.415044 0.786649 0.603539 0.130092 
0.777387 0.614879 0.13264 0.767064 0.604469 0.215011 -0.725794 0.646609 0.234774 
-0.650393 0.725252 0.22583 -0.605903 0.568702 0.55629 0.70756 0.68672 0.166659 
0.684036 0.707543 0.177419 0.647729 0.6793 0.344962 -0.55192 0.797491 0.243705 
-0.50161 0.828016 0.250554 -0.470674 0.768377 0.433663 -0.3252 0.889839 0.32005 
0.403703 0.880312 0.249148 0.566673 0.796342 0.211475 0.551375 0.806342 0.214006 
0.545221 0.795381 0.264771 -0.248847 0.895722 0.368454 -0.232882 0.897207 0.375214 
-0.229987 0.885469 0.403795 -0.153332 0.901796 0.404046 -0.130763 0.831202 0.540373 
-0.07667 0.889197 0.451055 -0.0533738 0.771546 0.63393 -0.000780475 0.907908 0.419169 
-0.0238089 0.775582 0.630797 0.0759995 0.931814 0.35489 0.0215628 0.817043 0.576174 
0.170185 0.939668 0.29675 0.132652 0.872261 0.470706 0.291136 0.917911 0.269589 
0.282163 0.920313 0.27094 0.280433 0.914392 0.291966 -0.20209 -0.6799 0.704908 
-0.103006 -0.731593 0.673915 -0.0493595 -0.75602 0.652685 -0.020017 -0.755669 0.654648 
-0.00155279 -0.775777 0.631005 0.054344 -0.762527 0.64467 0.0816266 -0.736178 0.671848 
0.0270927 -0.739217 0.672923 -0.00367852 -0.767148 0.64146 0.102158 -0.78107 0.616031 
0.258091 -0.814117 0.520195 -0.315697 -0.643341 0.697458 -0.439698 -0.576941 0.688334 
-0.202376 -0.627815 0.751593 -0.100463 -0.621959 0.776578 -0.024913 -0.571535 0.820199 
-0.0297565 -0.561807 0.826733 -0.00925956 -0.580278 0.814366 0.0583133 -0.582632 0.810642 
0.0835765 -0.574225 0.81442 0.0183308 -0.644232 0.76461 -0.00996185 -0.670405 0.741929 
0.0636378 -0.683553 0.727122 0.307841 -0.789646 0.530747 0.251253 -0.780372 0.572618 
0.462206 -0.683345 0.56516 -0.57446 -0.415084 0.705479 -0.645789 -0.327951 0.689496 
-0.449995 -0.36862 0.813403 -0.186001 -0.328202 0.926114 -0.0341779 -0.26728 0.963013 
-0.00039157 -0.261589 0.965179 -0.0580209 -0.225772 0.972451 -0.016257 -0.232323 0.972503 
0.0831717 -0.257758 0.962623 0.0302368 -0.281852 0.958981 -0.0787497 -0.336516 0.938379 
-0.0716537 -0.361801 0.929497 0.173427 -0.385416 0.906299 0.552615 -0.616924 0.560376 
0.396069 -0.521765 0.755573 0.589844 -0.575197 0.566774 -0.691278 -0.243087 0.680473 
-0.638457 -0.248329 0.728496 -0.37907 -0.151776 0.912836 0.0448614 -0.124825 0.991164 
-0.0175122 -0.0238884 0.999561 -0.00365505 -0.186431 0.982461 0.245258 -0.234341 0.940709 
0.731216 -0.375287 0.569634 0.542106 -0.381694 0.748619 -0.763598 -0.0688735 0.642008 
-0.617347 -0.0643792 0.784052 -0.297803 -0.0485667 0.953391 -0.139446 0.0145168 0.990123 
0.0487721 -0.0389849 0.998049 -0.0429702 -0.0409062 0.998239 0.783045 -0.1593 0.601219 
0.490276 -0.156094 0.857475 0.827288 -0.00301052 0.561769 -0.704776 0.0709511 0.705873 
-0.599096 0.0803309 0.796637 -0.319218 0.0316081 0.947154 -0.156217 0.0103212 0.987669 
-0.104874 0.0950737 0.98993 0.482424 0.0042894 0.875928 0.833659 0.0377546 0.550987 
0.832362 0.0612736 0.550835 0.828708 0.0368732 0.558466 -0.701261 0.106474 0.704908 
-0.630578 0.0946925 0.770327 -0.361622 0.0473541 0.931121 -0.172701 0.0100409 0.984923 
0.087724 -0.155362 0.983955 0.799623 0.25944 0.541566 0.547665 0.198039 0.812923 
-0.699876 0.242467 0.67185 -0.692722 0.266923 0.669992 -0.682337 0.239189 0.6908 
-0.404994 0.117777 0.906702 -0.207734 0.0450055 0.977149 0.00707814 0.0366788 0.999302 
0.744983 0.428484 0.511275 0.702331 0.50532 0.501382 0.645397 0.39691 0.652629 
-0.63354 0.373551 0.67756 -0.576216 0.497166 0.648692 -0.516584 0.305436 0.799906 
-0.263338 0.214967 0.940448 0.0922291 0.13985 0.985868 -0.0101099 0.183492 0.982969 
-0.0608106 0.183711 0.981098 -0.0508155 0.0608464 0.996853 0.652733 0.558241 0.512159 
0.583887 0.613247 0.531981 0.511733 0.47543 0.715608 -0.546221 0.534323 0.64509 
-0.407988 0.63303 0.65789 -0.357975 0.47212 0.805578 -0.133562 0.379821 0.915367 
0.0247387 0.339181 0.940396 0.0683292 0.289268 0.954806 -0.00727826 0.261866 0.965077 
-0.0919581 0.266131 0.959541 -0.0691474 0.229076 0.970949 -0.027779 0.243478 0.969509 
0.0167913 0.358672 0.933313 0.185103 0.462106 0.867292 0.535835 0.63744 0.553671 
0.450178 0.675921 0.583498 0.391284 0.576469 0.717342 -0.288556 0.694547 0.659045 
-0.2445 0.704757 0.665986 -0.237567 0.681077 0.692601 -0.127795 0.683559 0.71862 
-0.0778578 0.59956 0.796534 -0.0422836 0.616417 0.786284 0.00617106 0.49452 0.869144 
-0.0234442 0.576385 0.816842 -0.0218196 0.458828 0.888257 -0.0553166 0.605189 0.794158 
-0.0819484 0.466349 0.880797 -0.0318828 0.667293 0.744113 -0.0643851 0.483376 0.873042 
0.0753572 0.716581 0.693422 0.0413545 0.508211 0.860239 0.214213 0.710531 0.670267 
0.176397 0.601755 0.778958 0.333202 0.702559 0.628798 0.314672 0.7046 0.63602 
0.30561 0.690127 0.655993 0.0559848 -0.387618 0.920118 -0.201027 -0.129806 0.970947 
-0.000285199 -0.123336 0.992365 -0.0390166 -0.0731731 0.996556 0.0422783 -0.11927 0.991961 
-0.0882261 -0.174156 0.980758 0.0293136 -0.376175 0.926085 -0.07877 -0.290335 0.953677 
0.0651912 -0.378425 0.923333 0.0564451 -0.379676 0.923396 0.149956 -0.263037 0.953061 
-0.206349 -0.122978 0.970719 -0.16961 -0.0509919 0.984191 -0.201816 -0.123152 0.97165 
0.0369706 -0.11511 0.992665 0.0113525 -0.0791298 0.9968 0.0475262 -0.109736 0.992824 
-0.0380568 -0.0169785 0.999131 -0.0458238 -0.0258604 0.998615 -0.0476646 -0.014397 0.99876 
0.00359119 -0.145503 0.989351 0.0215847 -0.048652 0.998583 -0.0267278 -0.167635 0.985487 
-0.00734311 -0.184109 0.982878 -0.0905159 -0.114245 0.98932 -0.0906001 -0.106416 0.990185 
0.0319109 -0.138207 0.989889 0.190859 -0.222818 0.955994 0.145544 -0.218729 0.96487 
0.229907 -0.21052 0.95017 -0.126348 0.0117947 0.991916 -0.0360431 -0.00824884 0.999316 
0.0560693 -0.0282537 0.998027 0.0615628 -0.0151241 0.997989 -0.0164586 -0.0633375 0.997856 
-0.0747907 0.0491793 0.995986 -0.00844952 -0.06499 0.99785 -0.0954178 0.102627 0.990133 
-0.0934632 0.102619 0.99032 -0.0360065 -0.16493 0.985648 -0.00464808 -0.0103265 0.999936 
-0.0907711 -0.0254171 0.995547 -0.0679735 -0.0562036 0.996103 0.0458421 -0.1477 0.987969 
0.365541 -0.172829 0.914609 0.224952 -0.178118 0.957951 -0.117304 0.00468083 0.993085 
-0.0197762 -0.00910588 0.999763 0.0131459 0.00660485 0.999892 -0.0473522 -0.0744637 0.996099 
0.0222017 -0.0526899 0.998364 0.0975403 -0.136234 0.985863 -0.117144 0.0752791 0.990258 
-0.0995089 0.046524 0.993948 0.0487219 -0.0038289 0.998805 -0.140981 -0.0561607 0.988418 
-0.0904058 -0.0914666 0.991696 0.0438063 -0.0758923 0.996153 0.433316 -0.00311988 0.901236 
0.220303 -0.0281122 0.975026 -0.136789 0.00218609 0.990598 -0.0402169 -0.0197454 0.998996 
-0.00343108 -0.0367312 0.999319 -0.0889837 0.00789629 0.996002 0.101008 -0.0776752 0.991849 
0.106329 0.0410126 0.993485 -0.0637189 0.0856613 0.994285 0.0580103 -0.0870164 0.994516 
-0.0372166 0.0835683 0.995807 -0.117705 0.170669 0.978273 -0.105172 -0.0122256 0.994379 
-0.182459 -0.0400322 0.982398 -0.0807379 -0.0138409 0.996639 0.110726 0.0421617 0.992956 
0.43963 0.167968 0.882334 0.280151 0.107793 0.953885 -0.16081 0.0336715 0.986411 
-0.0649778 0.0151156 0.997772 0.0382539 0.00383939 0.999261 0.0403231 0.0879528 0.995308 
0.0276838 0.0763913 0.996693 -0.0382851 0.185528 0.981893 -0.0454013 0.185456 0.981603 
0.0120535 0.0207591 0.999712 -0.0295168 0.109437 0.993555 0.0332203 -0.0372804 0.998753 
-0.0319804 0.0347273 0.998885 -0.159679 0.0254316 0.986841 -0.138917 0.0443016 0.989313 
-0.00826779 0.119039 0.992855 0.158956 0.183774 0.970031 0.373819 0.295724 0.879094 
0.371856 0.299121 0.878778 0.367663 0.292758 0.882676 -0.12341 0.162641 0.978937 
-0.0863135 0.183829 0.979161 -0.0785367 0.148417 0.985801 0.0702673 0.142831 0.98725 
0.0525255 0.178932 0.982458 0.0575646 0.143453 0.987982 -0.0660514 0.0749111 0.995 
-0.081942 0.14606 0.985876 -0.102843 0.108229 0.988792 -0.0184182 0.301654 0.95324 
-0.0805656 0.184924 0.979445 0.122861 0.372487 0.919869 0.0557179 0.26243 0.963341 
0.300319 0.369113 0.879525 0.27637 0.382586 0.881617 0.259806 0.349768 0.90009 

