# vtk DataFile Version 4.2
vtk output
ASCII
DATASET POLYDATA
POINTS 550 float
-17.0518 -43.6157 -13.8157 -8.71077 -43.6157 -14.7875 -0.369797 -43.6157 -15.3264 
7.97118 -43.6157 -16.0394 16.3122 -43.6157 -15.8718 24.6531 -43.6157 -14.0903 
-42.0747 -35.2747 -13.6498 -33.7337 -35.2747 -16.3293 -25.3927 -35.2747 -17.4235 
-17.0518 -35.2747 -17.3331 -8.71077 -35.2747 -17.3502 -0.369797 -35.2747 -18.0549 
7.97118 -35.2747 -18.6317 16.3122 -35.2747 -18.3924 24.6531 -35.2747 -18.385 
32.9941 -35.2747 -16.1917 41.3351 -35.2747 -14.2704 -50.4157 -26.9337 -14.1898 
-42.0747 -26.9337 -17.2247 -33.7337 -26.9337 -18.4806 -25.3927 -26.9337 -18.7668 
-17.0518 -26.9337 -18.1842 -8.71077 -26.9337 -17.9582 -0.369797 -26.9337 -18.2976 
7.97118 -26.9337 -18.6071 16.3122 -26.9337 -18.5604 24.6531 -26.9337 -18.8195 
32.9941 -26.9337 -18.4124 41.3351 -26.9337 -16.7552 49.6761 -26.9337 -13.5393 
-58.7566 -18.5927 -12.6878 -50.4157 -18.5927 -16.6375 -42.0747 -18.5927 -19.4567 
-33.7337 -18.5927 -19.2226 -25.3927 -18.5927 -18.5057 -17.0518 -18.5927 -17.4297 
-8.71077 -18.5927 -17.2758 -0.369797 -18.5927 -17.2932 7.97118 -18.5927 -17.2554 
16.3122 -18.5927 -17.4929 24.6531 -18.5927 -18.522 32.9941 -18.5927 -18.9894 
41.3351 -18.5927 -18.5618 49.6761 -18.5927 -16.0934 58.017 -18.5927 -12.6217 
-58.7566 -10.2518 -13.1873 -50.4157 -10.2518 -17.3359 -42.0747 -10.2518 -19.0979 
-33.7337 -10.2518 -19.6054 -25.3927 -10.2518 -18.2683 -17.0518 -10.2518 -16.1921 
-8.71077 -10.2518 -17.8704 -0.369797 -10.2518 -19.0849 7.97118 -10.2518 -17.3887 
16.3122 -10.2518 -16.5874 24.6531 -10.2518 -18.0092 32.9941 -10.2518 -18.6161 
41.3351 -10.2518 -18.3619 49.6761 -10.2518 -16.8632 -58.7566 -1.91079 -13.8037 
-50.4157 -1.91079 -17.6174 -42.0747 -1.91079 -19.0582 -33.7337 -1.91079 -18.9472 
-25.3927 -1.91079 -17.8812 -17.0518 -1.91079 -15.8589 -8.71077 -1.91079 -20.4367 
-0.369797 -1.91079 -14.5584 7.97118 -1.91079 -20.3341 16.3122 -1.91079 -17.825 
24.6531 -1.91079 -16.9514 32.9941 -1.91079 -18.1404 41.3351 -1.91079 -18.0088 
49.6761 -1.91079 -16.4796 58.017 -1.91079 -12.9621 -58.7566 6.43018 -13.0746 
-50.4157 6.43018 -17.0794 -42.0747 6.43018 -18.7577 -33.7337 6.43018 -19.2214 
-25.3927 6.43018 -17.7486 -17.0518 6.43018 -16.1487 -8.71077 6.43018 -20.0119 
-0.369797 6.43018 -17.1273 7.97118 6.43018 -19.6048 16.3122 6.43018 -17.1638 
24.6531 6.43018 -17.0986 32.9941 6.43018 -17.9868 41.3351 6.43018 -17.9619 
49.6761 6.43018 -16.7307 58.017 6.43018 -13.7364 -58.7566 14.7712 -13.4915 
-50.4157 14.7712 -16.5093 -42.0747 14.7712 -18.759 -33.7337 14.7712 -18.6899 
-25.3927 14.7712 -17.9733 -17.0518 14.7712 -17.1127 -8.71077 14.7712 -17.8794 
-0.369797 14.7712 -18.074 7.97118 14.7712 -17.6417 16.3122 14.7712 -17.7497 
24.6531 14.7712 -18.0861 32.9941 14.7712 -18.331 41.3351 14.7712 -18.7758 
49.6761 14.7712 -16.7843 58.017 14.7712 -12.6672 -50.4157 23.1121 -15.2345 
-42.0747 23.1121 -17.131 -33.7337 23.1121 -18.0462 -25.3927 23.1121 -18.4711 
-17.0518 23.1121 -18.026 -8.71077 23.1121 -17.6408 -0.369797 23.1121 -16.9387 
7.97118 23.1121 -16.7821 16.3122 23.1121 -17.7819 24.6531 23.1121 -18.7765 
32.9941 23.1121 -18.4128 41.3351 23.1121 -18.2064 49.6761 23.1121 -16.8937 
58.017 23.1121 -13.538 -50.4157 31.4531 -13.1769 -42.0747 31.4531 -16.2871 
-33.7337 31.4531 -16.9571 -25.3927 31.4531 -17.8322 -17.0518 31.4531 -17.9648 
-8.71077 31.4531 -17.7743 -0.369797 31.4531 -17.0107 7.97118 31.4531 -16.5696 
16.3122 31.4531 -17.2573 24.6531 31.4531 -17.9217 32.9941 31.4531 -17.7756 
41.3351 31.4531 -16.8071 49.6761 31.4531 -13.9102 -33.7337 39.7941 -14.4847 
-25.3927 39.7941 -15.4948 -17.0518 39.7941 -16.3256 -8.71077 39.7941 -16.4506 
-0.369797 39.7941 -15.7483 7.97118 39.7941 -15.0415 16.3122 39.7941 -15.0471 
24.6531 39.7941 -15.1236 32.9941 39.7941 -15.2383 41.3351 39.7941 -12.7642 
-17.0518 -45.1054 -12.5307 -8.71077 -46.3 -12.5307 -0.369797 -47.0286 -12.5307 
7.97118 -47.8397 -12.5307 16.3122 -47.7015 -12.5307 24.6531 -45.5257 -12.5307 
-42.0747 -36.5696 -12.5307 -33.7337 -40.5473 -12.5307 -33.7337 -43.6157 -6.62518 
-22.8428 -43.6157 -12.5307 -25.3927 -42.7303 -12.5307 -25.3927 -43.6157 -11.4149 
29.8993 -43.6157 -12.5307 32.9941 -41.9996 -12.5307 32.9941 -43.6157 -10.9889 
41.3351 -37.5103 -12.5307 41.3351 -43.6157 -4.20009 -44.2451 -35.2747 -12.5307 
-50.4157 -29.858 -12.5307 -50.4157 -35.2747 -5.3007 44.3822 -35.2747 -12.5307 
49.6761 -29.0234 -12.5307 49.6761 -35.2747 -7.73015 -52.8256 -26.9337 -12.5307 
-58.7566 -18.9596 -12.5307 -58.7566 -26.9337 -4.64719 51.1198 -26.9337 -12.5307 
58.017 -18.7795 -12.5307 58.017 -26.9337 -4.30188 -58.9261 -18.5927 -12.5307 
58.1052 -18.5927 -12.5307 58.017 -13.0148 -12.5307 -59.4978 -10.2518 -12.5307 
57.9425 -10.2518 -12.5307 58.017 -9.39826 -12.5307 58.017 -10.2518 -12.4723 
-60.2964 -1.91079 -12.5307 58.6201 -1.91079 -12.5307 -59.4157 6.43018 -12.5307 
60.0467 6.43018 -12.5307 66.358 6.43018 -5.44687 -59.9213 14.7712 -12.5307 
-58.7566 17.6849 -12.5307 58.2187 14.7712 -12.5307 -54.914 23.1121 -12.5307 
-58.7566 23.1121 -9.57613 59.3947 23.1121 -12.5307 58.017 25.6256 -12.5307 
-51.3223 31.4531 -12.5307 -50.4157 32.5429 -12.5307 -42.0747 36.9113 -12.5307 
52.2698 31.4531 -12.5307 49.6761 35.0048 -12.5307 58.017 31.4531 -8.2125 
-37.77 39.7941 -12.5307 -42.0747 39.7941 -10.3354 -33.7337 42.3724 -12.5307 
-25.3927 44.4483 -12.5307 -17.0518 46.2441 -12.5307 -8.71077 47.589 -12.5307 
-0.369797 46.3736 -12.5307 7.97118 45.2071 -12.5307 16.3122 44.8064 -12.5307 
24.6531 44.4154 -12.5307 32.9941 44.792 -12.5307 42.1785 39.7941 -12.5307 
41.3351 40.1287 -12.5307 49.6761 39.7941 -9.33152 -33.7337 48.1351 -4.62292 
-25.3927 48.1351 -8.77691 -17.0518 48.1351 -11.0022 -8.71077 48.1351 -12.148 
-0.369797 48.1351 -11.4521 7.97118 48.1351 -10.7978 16.3122 48.1351 -10.3313 
24.6531 48.1351 -9.9631 32.9941 48.1351 -8.57021 -33.7337 -44.5599 -4.18969 
-25.3927 -47.0732 -4.18969 -17.0518 -49.205 -4.18969 -8.71077 -50.8802 -4.18969 
-0.369797 -51.5283 -4.18969 7.97118 -51.8391 -4.18969 16.3122 -51.476 -4.18969 
24.6531 -49.9569 -4.18969 32.9941 -47.4005 -4.18969 41.3351 -43.6211 -4.18969 
-50.4157 -35.6951 -4.18969 -36.172 -43.6157 -4.18969 -42.0747 -41.1176 -4.18969 
-33.7337 -43.6157 1.4801 41.3448 -43.6157 -4.18969 49.6761 -37.8177 -4.18969 
-50.9309 -35.2747 -4.18969 -58.7566 -27.2005 -4.18969 -50.4157 -35.2747 -1.78237 
51.9126 -35.2747 -4.18969 58.017 -27.023 -4.18969 -58.9722 -26.9337 -4.18969 
-58.7566 -26.9337 -1.66423 58.0739 -26.9337 -4.18969 58.017 -26.9337 -3.24862 
-63.2402 -18.5927 -4.18969 62.3082 -18.5927 -4.18969 -65.5647 -10.2518 -4.18969 
64.4015 -10.2518 -4.18969 -66.7878 -1.91079 -4.18969 -67.0976 -1.91079 -1.46837 
66.1097 -1.91079 -4.18969 66.358 0.375963 -4.18969 -66.1296 6.43018 -4.18969 
66.9236 6.43018 -4.18969 66.358 13.3275 -4.18969 -64.8834 14.7712 -4.18969 
66.2173 14.7712 -4.18969 -62.238 23.1121 -4.18969 -58.7566 29.373 -4.18969 
64.562 23.1121 -4.18969 -57.1247 31.4531 -4.18969 -50.4157 38.726 -4.18969 
60.5398 31.4531 -4.18969 58.017 34.6621 -4.18969 -49.3033 39.7941 -4.18969 
-42.0747 44.6632 -4.18969 41.3351 47.2963 -4.18969 52.9817 39.7941 -4.18969 
49.6761 42.5287 -4.18969 -34.1874 48.1351 -4.18969 -33.7337 48.3211 -4.18969 
-33.7337 48.1351 -3.31655 -25.3927 50.8182 -4.18969 -17.0518 52.5029 -4.18969 
-8.71077 53.3181 -4.18969 -0.369797 53.4371 -4.18969 7.97118 53.349 -4.18969 
16.3122 52.9367 -4.18969 24.6531 52.463 -4.18969 39.0867 48.1351 -4.18969 
32.9941 50.1944 -4.18969 32.9941 48.1351 4.11958 -25.3927 -46.3139 4.15129 
-17.0518 -48.7418 4.15129 -8.71077 -50.3859 4.15129 -0.369797 -51.1763 4.15129 
7.97118 -51.29 4.15129 16.3122 -51.138 4.15129 24.6531 -49.8419 4.15129 
32.9941 -47.5399 4.15129 41.3351 -43.8824 4.15129 -42.0747 -39.6261 4.15129 
-32.5801 -43.6157 4.15129 -33.7337 -43.1188 4.15129 -25.3927 -43.6157 9.42679 
41.7669 -43.6157 4.15129 41.3351 -43.6157 4.74586 49.6761 -37.5882 4.15129 
-48.7863 -35.2747 4.15129 -50.4157 -34.0836 4.15129 -42.0747 -35.2747 10.0221 
51.7871 -35.2747 4.15129 49.6761 -35.2747 7.41269 -58.1525 -26.9337 4.15129 
-58.7566 -26.191 4.15129 57.4855 -26.9337 4.15129 58.017 -26.1194 4.15129 
-63.4073 -18.5927 4.15129 61.7725 -18.5927 4.15129 58.017 -18.5927 10.6918 
-66.2473 -10.2518 4.15129 -67.0976 -5.23016 4.15129 63.8175 -10.2518 4.15129 
-67.6597 -1.91079 4.15129 -67.0976 5.59679 4.15129 -67.0976 -1.91079 5.58703 
65.6576 -1.91079 4.15129 58.017 -1.91079 12.331 66.358 6.4197 4.15129 
-67.0328 6.43018 4.15129 66.3588 6.43018 4.15129 66.358 6.43704 4.15129 
66.358 6.43018 4.15252 -65.9678 14.7712 4.15129 65.1791 14.7712 4.15129 
58.017 14.7712 12.3282 -62.6124 23.1121 4.15129 -58.7566 29.4184 4.15129 
-58.7566 23.1121 11.0842 49.6761 23.1121 11.976 62.9528 23.1121 4.15129 
58.017 23.1121 9.12378 -56.9043 31.4531 4.15129 -50.4157 37.5823 4.15129 
-50.4157 31.4531 12.2964 41.3351 31.4531 11.3113 49.6761 31.4531 9.04355 
58.4717 31.4531 4.15129 58.017 31.9941 4.15129 58.017 31.4531 4.6171 
-47.7949 39.7941 4.15129 -42.0747 43.2573 4.15129 -42.0747 39.7941 8.69399 
-33.7337 45.9763 4.15129 -33.7337 39.7941 11.2705 -25.3927 39.7941 10.7946 
-17.0518 39.7941 10.8203 -8.71077 39.7941 10.9125 -0.369797 39.7941 11.2903 
7.97118 39.7941 11.8539 16.3122 39.7941 11.7955 24.6531 39.7941 11.0124 
32.9941 48.1219 4.15129 32.9941 39.7941 9.4357 41.3351 44.5892 4.15129 
41.3351 39.7941 8.56007 49.6764 39.7941 4.15129 49.6761 39.7943 4.15129 
49.6761 39.7941 4.15153 -27.8185 48.1351 4.15129 -25.3927 48.7696 4.15129 
-25.3927 48.1351 4.94515 -17.0518 50.3874 4.15129 -17.0518 48.1351 6.66898 
-8.71077 50.027 4.15129 -8.71077 48.1351 6.20822 -0.369797 50.5515 4.15129 
-0.369797 48.1351 6.86122 7.97118 50.8954 4.15129 7.97118 48.1351 7.3196 
16.3122 50.603 4.15129 16.3122 48.1351 7.04786 32.9083 48.1351 4.15129 
24.6531 49.094 4.15129 24.6531 48.1351 5.28969 -17.0518 -44.4017 12.4923 
-8.71077 -46.8784 12.4923 -0.369797 -47.5206 12.4923 7.97118 -47.6172 12.4923 
16.3122 -47.3484 12.4923 24.6531 -46.5389 12.4923 32.9941 -43.683 12.4923 
[...]
POINT_DATA 550
SCALARS ImageScalars float
LOOKUP_TABLE default
0 0 0 0 0 0 0 0 0 
0 0 0 0 0 0 0 0 0 
0 0 0 0 0 0 0 0 0 
0 0 0 0 0 0 0 0 0 
0 0 0 0 0 0 0 0 0 
0 0 0 0 0 0 0 0 0 
0 0 0 0 0 0 0 0 0 
0 0 0 0 0 0 0 0 0 
0 0 0 0 0 0 0 0 0 
0 0 0 0 0 0 0 0 0 
0 0 0 0 0 0 0 0 0 
0 0 0 0 0 0 0 0 0 
0 0 0 0 0 0 0 0 0 
0 0 0 0 0 0 0 0 0 
0 0 0 0 0 0 0 0 0 
0 0 0 0 0 0 0 0 0 
0 0 0 0 0 0 0 0 0 
0 0 0 0 0 0 0 0 0 
0 0 0 0 0 0 0 0 0 
0 0 0 0 0 0 0 0 0 
0 0 0 0 0 0 0 0 0 
0 0 0 0 0 0 0 0 0 
0 0 0 0 0 0 0 0 0 
0 0 0 0 0 0 0 0 0 
0 0 0 0 0 0 0 0 0 
0 0 0 0 0 0 0 0 0 
0 0 0 0 0 0 0 0 0 
0 0 0 0 0 0 0 0 0 
0 0 0 0 0 0 0 0 0 
0 0 0 0 0 0 0 0 0 
0 0 0 0 0 0 0 0 0 
0 0 0 0 0 0 0 0 0 
0 0 0 0 0 0 0 0 0 
0 0 0 0 0 0 0 0 0 
0 0 0 0 0 0 0 0 0 
0 0 0 0 0 0 0 0 0 
0 0 0 0 0 0 0 0 0 
0 0 0 0 0 0 0 0 0 
0 0 0 0 0 0 0 0 0 
0 0 0 0 0 0 0 0 0 
0 0 0 0 0 0 0 0 0 
0 0 0 0 0 0 0 0 0 
0 0 0 0 0 0 0 0 0 
0 0 0 0 0 0 0 0 0 
0 0 0 0 0 0 0 0 0 
0 0 0 0 0 0 0 0 0 
0 0 0 0 0 0 0 0 0 
0 0 0 0 0 0 0 0 0 
0 0 0 0 0 0 0 0 0 
0 0 0 0 0 0 0 0 0 
0 0 0 0 0 0 0 0 0 
0 0 0 0 0 0 0 0 0 
0 0 0 0 0 0 0 0 0 
0 0 0 0 0 0 0 0 0 
0 0 0 0 0 0 0 0 0 
0 0 0 0 0 0 0 0 0 
0 0 0 0 0 0 0 0 0 
0 0 0 0 0 0 0 0 0 
0 0 0 0 0 0 0 0 0 
0 0 0 0 0 0 0 0 0 
0 0 0 0 0 0 0 0 0 
0 
NORMALS Normals float
0.138569 0.611478 0.779033 0.0854798 0.529943 0.843714 0.0720036 0.505381 0.859887 
0.0306796 0.496924 0.867251 -0.108311 0.501723 0.85822 -0.220825 0.584671 0.780638 
0.384682 0.573674 0.723131 0.181261 0.437092 0.880962 0.057641 0.300927 0.951904 
-0.00367198 0.236105 0.971721 0.041926 0.180894 0.982609 0.0763106 0.160385 0.9841 
0.0197933 0.134476 0.990719 -0.0144268 0.149883 0.988599 -0.118787 0.247259 0.96164 
-0.206136 0.356279 0.911358 -0.356187 0.4712 0.806908 0.46793 0.392754 0.791698 
0.218916 0.283066 0.933782 0.0842326 0.161128 0.983332 -0.0168729 0.0552826 0.998328 
-0.0477549 0.00841184 0.998824 0.00678338 -0.003763 0.99997 0.0391531 -0.0465914 0.998146 
0.0158074 -0.0767945 0.996922 0.0125278 -0.0539411 0.998466 -0.0109151 0.00522163 0.999927 
-0.1108 0.148383 0.982703 -0.258361 0.218613 0.940988 -0.471036 0.359749 0.805422 
0.666776 0.221327 0.711635 0.36819 0.148334 0.917841 0.160545 0.108683 0.981027 
-0.0561726 0.0705032 0.995929 -0.10658 -0.0293238 0.993872 -0.0746804 -0.11436 0.990628 
-0.00835608 -0.012012 0.999893 -0.00109895 0.0341794 0.999415 0.0123535 -0.0772666 0.996934 
0.0760049 -0.120134 0.989844 0.0888621 -0.0457932 0.994991 0.00403546 0.015058 0.999878 
-0.181594 0.0913738 0.979119 -0.326757 0.162384 0.931054 -0.679114 0.21469 0.701934 
0.614924 0.0601673 0.786288 0.307615 0.0580698 0.949737 0.127614 -0.0221699 0.991576 
-0.0497564 -0.0166105 0.998623 -0.192139 -0.0352288 0.980735 -0.0436082 -0.0984773 0.994183 
0.176946 0.130787 0.975492 -0.0253185 -0.072194 0.997069 -0.152817 0.155322 0.975972 
0.0402973 0.00304815 0.999183 0.125062 -0.0923528 0.987841 0.0184117 -0.0517369 0.998491 
-0.107695 -0.0334252 0.993622 -0.301793 0.0234842 0.953084 0.579679 -0.00655472 0.814819 
0.273713 -0.0150274 0.961694 0.0740523 -0.0203237 0.997047 -0.064701 -0.0240899 0.997614 
-0.190749 -0.0313102 0.981139 0.0348766 -0.000667714 0.999391 0.06617 0.146544 0.986989 
0.10803 -0.168884 0.979698 0.122449 0.120551 0.985126 -0.189047 0.0443745 0.980965 
0.0320163 -0.0513738 0.998166 0.0583968 -0.0379707 0.997571 -0.0937831 -0.02374 0.99531 
-0.270146 -0.00911843 0.962776 -0.520955 0.0661036 0.851021 0.590738 -0.0106489 0.806793 
0.297897 -0.0658758 0.952322 0.119676 -0.0177318 0.992655 -0.0544946 -0.0159025 0.998387 
-0.183647 0.00643542 0.982971 0.0720536 0.0782761 0.994324 0.113877 -0.156128 0.98115 
0.0216401 0.187975 0.981935 -0.0199762 -0.163965 0.986264 -0.147924 0.00502656 0.988986 
0.0502496 0.0682001 0.996405 0.0515097 0.0113982 0.998607 -0.0720782 0.0427959 0.99648 
-0.225302 0.0178511 0.974126 -0.444534 -0.0167955 0.895604 0.592938 -0.144176 0.792236 
0.307404 -0.0911412 0.947204 0.1395 -0.0958949 0.985568 -0.0469065 -0.0682585 0.996564 
-0.0939439 0.0417575 0.994701 -0.00875012 0.111912 0.99368 0.0600228 -0.106018 0.992551 
-0.014767 -0.0243785 0.999594 -0.0185262 -0.161579 0.986686 0.0265188 0.0342073 0.999063 
0.0348722 0.100296 0.994346 0.0402895 0.0255169 0.998862 -0.105213 0.0193596 0.994261 
-0.30813 0.0080174 0.951311 -0.554578 0.000591683 0.832132 0.381309 -0.213088 0.899554 
0.145118 -0.133634 0.980348 0.0758741 -0.0980167 0.992288 -0.00132712 -0.0118743 0.999929 
-0.0494774 0.0509711 0.997474 -0.0649718 -0.00547283 0.997872 -0.0514644 -0.0603307 0.996851 
0.0503238 -0.0622705 0.99679 0.118512 -0.0288316 0.992534 0.0378733 -0.0125585 0.999204 
-0.0334472 -0.0310562 0.998958 -0.077743 -0.128752 0.988625 -0.298251 -0.141771 0.9439 
-0.518369 -0.160029 0.84005 0.496802 -0.400851 0.769745 0.233762 -0.325368 0.916238 
0.0901137 -0.177067 0.980065 0.0547579 -0.160135 0.985575 -0.00256423 -0.0908239 0.995864 
-0.057193 -0.0618018 0.996448 -0.0717643 -0.062285 0.995475 0.0147949 -0.0983403 0.995043 
0.0833816 -0.155765 0.984269 0.0299664 -0.198865 0.979569 -0.0752546 -0.19519 0.977874 
-0.186633 -0.244648 0.951481 -0.437099 -0.327235 0.837772 0.258471 -0.466067 0.846153 
0.0875372 -0.399036 0.912747 0.0554125 -0.33177 0.941731 -0.0314566 -0.266359 0.96336 
-0.0792425 -0.269049 0.959861 -0.037142 -0.281287 0.958905 0.0045667 -0.335358 0.94208 
0.0111136 -0.404888 0.914299 -0.100148 -0.395472 0.913002 -0.265762 -0.552456 0.79004 
0.161264 0.686499 0.709023 0.0931141 0.681276 0.726081 0.0755558 0.699893 0.71024 
0.0315323 0.739081 0.672878 -0.106871 0.731941 0.672934 -0.241899 0.667389 0.704327 
0.405516 0.632452 0.65997 0.242867 0.70971 0.661308 0.314943 0.919213 0.236344 
0.201811 0.721956 0.661855 0.207505 0.725657 0.656021 0.233824 0.797318 0.556426 
-0.289802 0.647716 0.704613 -0.303086 0.62369 0.72052 -0.334897 0.724451 0.602507 
-0.386361 0.560058 0.732843 -0.464249 0.852672 0.239631 0.444605 0.607678 0.658068 
0.518743 0.499333 0.693954 0.616009 0.773518 0.149007 -0.446757 0.505797 0.737955 
-0.50185 0.409366 0.761949 -0.656868 0.617029 0.433358 0.554196 0.444853 0.703543 
0.672386 0.233719 0.702334 0.796334 0.575864 0.185023 -0.515248 0.391272 0.762513 
-0.680924 0.220209 0.698463 -0.832765 0.51717 0.197579 0.675781 0.223041 0.702548 
-0.682921 0.215525 0.697974 -0.639541 0.0844785 0.764101 0.650498 0.0640422 0.756803 
-0.610507 0.0171655 0.791825 -0.604598 0.0221649 0.796223 -0.615144 0.0182783 0.788203 
0.630443 -0.00177818 0.776234 -0.551247 0.0718982 0.831239 0.618358 -0.0106437 0.785825 
-0.564287 -0.01295 0.825477 -0.966186 0.00485683 0.2578 0.652511 -0.151332 0.742515 
0.621267 -0.219465 0.752238 -0.563034 -0.000953794 0.826433 0.528335 -0.303361 0.792991 
0.707722 -0.371902 0.600682 -0.587801 -0.176575 0.789501 -0.551391 -0.251355 0.79548 
0.538283 -0.413417 0.734396 0.509377 -0.436554 0.741589 0.315827 -0.510877 0.799536 
-0.49143 -0.361929 0.792151 -0.447475 -0.422698 0.788094 -0.705708 -0.540805 0.457719 
0.320683 -0.531803 0.783804 0.403888 -0.644718 0.649009 0.280595 -0.576972 0.767053 
0.130797 -0.603076 0.786888 0.108652 -0.597205 0.794695 0.0122945 -0.622988 0.782135 
-0.0699541 -0.541365 0.837872 -0.0442185 -0.482763 0.874634 -0.0238775 -0.510862 0.859331 
0.00120301 -0.550618 0.834756 -0.133132 -0.606832 0.783601 -0.283828 -0.555269 0.78174 
-0.270877 -0.559615 0.783235 -0.538443 -0.675591 0.503643 0.348718 -0.927801 0.132592 
0.204733 -0.865189 0.457747 0.136821 -0.736755 0.662173 0.0175111 -0.66437 0.747199 
-0.0644035 -0.658514 0.749807 -0.0552254 -0.680219 0.730926 -0.0432252 -0.726766 0.685524 
-0.0614533 -0.76718 0.638482 -0.227371 -0.870965 0.435571 0.331019 0.93862 0.0970558 
0.267915 0.952473 0.144969 0.214352 0.963115 0.162676 0.145274 0.971055 0.189596 
0.0555289 0.983681 0.171136 -0.00313392 0.990646 0.136421 -0.110849 0.982486 0.149781 
-0.233002 0.955491 0.180962 -0.338624 0.913522 0.225414 -0.464257 0.852816 0.239105 
0.611845 0.786497 0.0840723 0.365257 0.926293 0.0925673 0.462617 0.881286 0.0965436 
0.353936 0.916386 -0.186991 -0.464451 0.852715 0.239086 -0.669661 0.707319 0.226393 
0.623188 0.777155 0.08756 0.7975 0.581654 0.160227 0.6114 0.791206 -0.0135701 
-0.723399 0.653219 0.223605 -0.833515 0.518252 0.19149 0.801302 0.57582 0.162318 
0.796427 0.603704 0.0352963 -0.834403 0.516855 0.191398 -0.841596 0.521417 0.140858 
0.910007 0.344663 0.230423 -0.917627 0.338396 0.208445 0.932631 0.195537 0.303257 
-0.948241 0.221124 0.22791 0.947605 0.0333023 0.317703 0.98561 0.0394322 0.164373 
-0.954881 0.146748 0.258199 -0.964581 0.109139 0.24015 0.936541 -0.0994388 0.336159 
-0.979774 0.00615075 0.200012 -0.96533 -0.11445 0.234605 0.917834 -0.22599 0.326358 
-0.959902 -0.139353 0.243247 0.879437 -0.366352 0.303934 0.792713 -0.541548 0.279879 
-0.932537 -0.320943 0.16544 0.757978 -0.601293 0.252816 0.6577 -0.730897 0.182265 
-0.818893 -0.551639 0.158458 -0.763077 -0.631858 0.135897 0.630771 -0.751771 0.192275 
0.475436 -0.860675 0.182208 -0.431552 -0.89812 0.0845219 -0.665621 -0.741383 0.0854446 
-0.591152 -0.802399 0.081822 0.356272 -0.928546 0.104275 0.349872 -0.931073 0.103402 
0.352777 -0.934549 0.0465499 0.241001 -0.962308 0.126023 0.151224 -0.9821 0.112299 
0.0609864 -0.995094 0.0778951 0.002233 -0.992268 0.124093 -0.0308127 -0.984515 0.17257 
-0.0579757 -0.980269 0.188974 -0.166461 -0.975343 0.1449 -0.396906 -0.914497 0.0784889 
-0.295445 -0.949628 0.104491 -0.237611 -0.806268 -0.541732 0.31181 0.911512 -0.268178 
0.235167 0.944565 -0.229114 0.137902 0.970778 -0.196402 0.052369 0.979267 -0.195687 
-0.00208014 0.976657 -0.214795 -0.090567 0.974813 -0.203808 -0.198247 0.968516 -0.150581 
-0.325487 0.92858 -0.17832 -0.479151 0.859504 -0.177952 0.442751 0.827425 -0.345454 
0.349918 0.882454 -0.314377 0.355217 0.876337 -0.325353 0.314875 0.806381 -0.500604 
-0.488514 0.853658 -0.180617 -0.482536 0.850856 -0.207856 -0.707683 0.662892 -0.244456 
0.553554 0.782451 -0.285217 0.578024 0.768839 -0.273451 0.364933 0.723515 -0.585961 
-0.753923 0.609619 -0.244877 -0.700642 0.570213 -0.428904 0.728596 0.630643 -0.267277 
0.749678 0.610394 -0.255737 -0.81295 0.501511 -0.295971 -0.823387 0.487125 -0.291107 
0.891059 0.412704 -0.188916 -0.894617 0.329088 -0.302261 -0.697826 0.297259 -0.651671 
0.960733 0.232288 -0.151775 0.981975 0.121153 -0.145075 -0.922319 0.223765 -0.315051 
0.988611 0.0470939 -0.142935 0.985294 -0.0828142 -0.14946 0.973908 0.0454482 -0.222347 
-0.930256 0.136784 -0.340462 -0.581815 -0.010128 -0.813258 -0.939991 -0.018751 -0.340685 
0.983794 -0.0973569 -0.150569 -0.939988 -0.0189434 -0.34068 -0.939963 -0.0190783 -0.340743 
-0.939965 -0.01895 -0.340745 0.9507 -0.252853 -0.179541 -0.891253 -0.189292 -0.412111 
-0.512736 -0.171734 -0.841195 0.871971 -0.437394 -0.219892 0.75023 -0.602151 -0.273072 
0.630762 -0.385181 -0.673628 -0.271723 -0.280101 -0.920712 -0.812635 -0.34485 -0.46979 
-0.583546 -0.382947 -0.716118 0.702105 -0.652167 -0.285879 0.595291 -0.731671 -0.332094 
0.37875 -0.50339 -0.776625 -0.181566 -0.30983 -0.933295 -0.423196 -0.489269 -0.762575 
-0.623812 -0.586491 -0.516611 -0.613588 -0.598073 -0.515576 -0.602429 -0.580028 -0.548313 
0.524679 -0.764586 -0.374327 0.375694 -0.838142 -0.39544 0.345958 -0.663074 -0.663812 
0.291757 -0.820428 -0.491707 0.0836308 -0.603527 -0.792945 -0.0163256 -0.469518 -0.882772 
0.0068823 -0.389363 -0.921059 0.0270425 -0.338072 -0.940731 0.0550393 -0.312563 -0.948301 
0.0276718 -0.294651 -0.955204 -0.0551989 -0.328599 -0.942855 -0.130075 -0.361189 -0.923376 
-0.237066 -0.804694 -0.544304 -0.149342 -0.456233 -0.877239 -0.362072 -0.74781 -0.556492 
-0.289299 -0.593417 -0.751108 -0.567936 -0.60885 -0.553851 -0.56793 -0.608853 -0.553853 
-0.567926 -0.608844 -0.553868 0.253176 -0.825683 -0.504133 0.223686 -0.836788 -0.499751 
0.221252 -0.805828 -0.549262 0.0837534 -0.848599 -0.522364 0.0660907 -0.674464 -0.735344 
0.00330443 -0.787603 -0.616174 0.00278022 -0.706517 -0.707691 0.0471099 -0.804244 -0.592429 
0.0518741 -0.693066 -0.719005 0.00224806 -0.830644 -0.556799 0.00868988 -0.700183 -0.71391 
-0.0972263 -0.838061 -0.536844 -0.0892583 -0.724042 -0.683956 -0.235944 -0.805087 -0.544211 
-0.134894 -0.822746 -0.552171 -0.133785 -0.770525 -0.623212 0.255339 0.744064 -0.61739 
0.152592 0.794368 -0.587958 0.0379978 0.799492 -0.599474 -0.00883171 0.800702 -0.598998 
-0.0531307 0.784554 -0.61778 -0.18595 0.769333 -0.611187 -0.332576 0.741043 -0.583308 
0.3225 0.655039 -0.683314 0.269152 0.731678 -0.626262 0.304115 0.681917 -0.66521 
0.25185 0.713283 -0.654063 0.150444 0.63625 -0.756672 0.0326085 0.588948 -0.807513 
-0.0211208 0.581266 -0.813439 -0.0721043 0.589212 -0.804754 -0.155856 0.624709 -0.765145 
-0.335222 0.73902 -0.584359 -0.332013 0.738065 -0.58739 -0.465042 0.532268 -0.707408 
0.502751 0.56544 -0.653849 0.318621 0.652358 -0.687684 0.325678 0.646154 -0.690231 
0.302254 0.59121 -0.747739 0.243994 0.462461 -0.852406 0.17148 0.32077 -0.931505 
0.0375169 0.192858 -0.980509 -0.00388012 0.141895 -0.989874 0.0105974 0.13942 -0.990177 
-0.0595192 0.198226 -0.978348 -0.107784 0.266431 -0.957808 -0.244701 0.293012 -0.924265 
-0.512192 0.452638 -0.729916 -0.44092 0.414809 -0.795942 -0.551527 0.316529 -0.771769 
0.51365 0.55772 -0.652006 0.675889 0.405277 -0.615568 0.496865 0.548023 -0.672902 
0.255866 0.464269 -0.847931 0.157396 0.328277 -0.931376 0.0902043 0.158514 -0.983228 
0.00875923 0.0428275 -0.999044 -0.0230753 -0.0715203 -0.997172 -0.0336007 -0.0851324 -0.995803 
0.0199394 -0.137964 -0.990237 0.0518937 -0.0709572 -0.996129 -0.0732406 -0.00585145 -0.997297 
-0.194295 0.0760669 -0.977989 -0.342349 0.166552 -0.924693 -0.551998 0.313917 -0.772499 
-0.549036 0.312191 -0.775304 0.689939 0.381068 -0.615444 0.672132 0.379109 -0.636016 
0.363142 0.289524 -0.885609 0.167337 0.186047 -0.968186 -0.0172641 0.113087 -0.993435 
-0.0618742 -0.0471261 -0.996971 -0.0712054 -0.143965 -0.987018 -0.0875308 -0.179484 -0.979859 
-0.0707488 -0.163044 -0.984079 0.0246396 -0.175736 -0.984129 0.0714709 -0.196597 -0.977876 
0.0373816 -0.136688 -0.989909 -0.066463 -0.00857917 -0.997752 -0.182149 0.0746555 -0.980433 
-0.582509 0.268577 -0.76717 -0.385713 0.175603 -0.905753 -0.616038 0.0989382 -0.781478 
0.728895 0.190534 -0.657578 0.592104 0.176879 -0.78621 0.251392 0.122882 -0.960053 
0.0569678 -0.00762373 -0.998347 -0.0823892 -0.0627546 -0.994622 -0.169138 -0.141333 -0.975406 
-0.123483 -0.2568 -0.958543 -0.0400717 -0.191377 -0.980698 -0.0325022 -0.177771 -0.983535 
-0.0139529 0.0728571 -0.997245 0.0852566 -0.0121076 -0.996285 0.128467 -0.0786908 -0.988587 
0.00225692 -0.0343242 -0.999408 -0.158845 0.00506703 -0.98729 -0.318443 0.0451671 -0.946865 
-0.614503 0.0584456 -0.786747 -0.587242 0.00992278 -0.809351 -0.601092 0.0543817 -0.797327 
0.741182 0.0137952 -0.671162 0.539683 -0.00603631 -0.841847 0.178308 -0.0560928 -0.982375 
-0.0123902 -0.0791985 -0.996782 -0.146163 -0.0871368 -0.985416 -0.261087 -0.131849 -0.956268 
-0.15979 -0.194388 -0.967822 -0.037929 -0.127382 -0.991128 0.289411 -0.156307 -0.944357 
0.189301 0.185581 -0.964222 -0.111548 0.151533 -0.982138 0.00522749 -0.0616063 -0.998087 
0.0130976 -0.0747059 -0.99712 -0.126235 -0.0429418 -0.99107 -0.570164 -0.0118912 -0.821445 
-0.300681 0.00346237 -0.953719 -0.524721 -0.000828238 -0.851274 0.684895 -0.155467 -0.711863 
0.536444 -0.181979 -0.824082 0.184212 -0.154189 -0.970717 0.0270428 -0.0942623 -0.99518 
-0.137369 -0.111098 -0.98427 -0.269543 -0.0881969 -0.958941 -0.116094 -0.00170055 -0.993237 
0.0601958 -0.0183956 -0.998017 0.24294 0.137886 -0.960192 0.198726 -0.110705 -0.973783 
-0.152948 -0.18791 -0.970205 -0.0686578 -0.14324 -0.987304 0.0232839 -0.167185 -0.985651 
-0.0860403 -0.138937 -0.986556 -0.262146 -0.0797143 -0.96173 -0.51742 0.00077604 -0.855731 
-0.516284 -0.0249195 -0.856055 -0.516235 0.000742217 -0.856447 0.60922 -0.183459 -0.771488 
0.592007 -0.233007 -0.771515 0.590124 -0.183185 -0.786255 0.271275 -0.179914 -0.945538 
0.0395353 -0.186738 -0.981614 -0.139929 -0.135554 -0.980839 -0.164079 -0.0773503 -0.98341 
-0.0794157 0.0171441 -0.996694 0.0843852 -0.119832 -0.989201 0.160017 -0.128591 -0.978703 
-0.0577941 -0.28352 -0.957223 -0.136369 -0.235423 -0.962278 0.0124054 -0.140549 -0.989996 
0.0167352 -0.189079 -0.981819 -0.0391324 -0.191015 -0.980807 -0.496022 -0.175577 -0.850373 
-0.255916 -0.271457 -0.927803 -0.213251 -0.245544 -0.945639 0.498432 -0.35551 -0.790682 
0.367671 -0.490078 -0.790343 0.266721 -0.328368 -0.90611 0.0922762 -0.288673 -0.952971 
-0.0277598 -0.190176 -0.981358 -0.111288 -0.14265 -0.983497 -0.130914 -0.102309 -0.986101 
-0.0732151 -0.109552 -0.991281 0.0615422 -0.184112 -0.980977 0.0709152 -0.230034 -0.970595 
0.00135819 -0.10423 -0.994552 -0.0208533 -0.129631 -0.991343 -0.0257223 -0.160542 -0.986694 
-0.236552 -0.268927 -0.93366 -0.15212 -0.284568 -0.94651 -0.129055 -0.253376 -0.958721 
0.342361 -0.482681 -0.806107 0.19659 -0.416487 -0.887632 0.166956 -0.389558 -0.905743 
0.0629684 -0.516436 -0.854008 0.0243011 -0.293042 -0.955791 -0.0778614 -0.344196 -0.935664 
-0.0952778 -0.264836 -0.959575 -0.0339894 -0.272675 -0.961506 -0.0551049 -0.216294 -0.974772 
-0.00583562 -0.179268 -0.983783 -0.0137321 -0.145448 -0.989271 0.0491111 -0.177867 -0.982828 
0.0438086 -0.121161 -0.991666 0.0306255 -0.236888 -0.971054 0.0363416 -0.156804 -0.986961 
-0.0499059 -0.260015 -0.964314 -0.0275748 -0.160942 -0.986579 -0.0675756 -0.240147 -0.968382 
-0.0411475 -0.205928 -0.977702 -0.1283 -0.289686 -0.948484 -0.116694 -0.302475 -0.945987 
-0.113324 -0.282298 -0.95261 
