# vtk DataFile Version 4.2
vtk output
ASCII
DATASET POLYDATA
POINTS 548 float
2.75412 -31.6219 -12.2609 10.2383 -31.6219 -11.9677 25.2067 -31.6219 -12.2252 
-34.6669 -24.1377 -13.7333 -27.1827 -24.1377 -14.039 -19.6985 -24.1377 -14.1922 
-12.2143 -24.1377 -14.5167 -4.73008 -24.1377 -14.4638 2.75412 -24.1377 -14.2555 
10.2383 -24.1377 -14.4868 17.7225 -24.1377 -14.6259 25.2067 -24.1377 -15.2409 
32.6909 -24.1377 -14.0021 40.1751 -24.1377 -13.5005 -42.1511 -16.6535 -13.7146 
-34.6669 -16.6535 -15.2718 -27.1827 -16.6535 -15.069 -19.6985 -16.6535 -15.1811 
-12.2143 -16.6535 -15.0946 -4.73008 -16.6535 -14.6291 2.75412 -16.6535 -14.2213 
10.2383 -16.6535 -14.4718 17.7225 -16.6535 -14.9635 25.2067 -16.6535 -15.3984 
32.6909 -16.6535 -15.9062 40.1751 -16.6535 -14.5271 47.6593 -16.6535 -13.5053 
-57.1194 -9.1693 -13.0519 -49.6353 -9.1693 -16.1835 -42.1511 -9.1693 -15.6345 
-34.6669 -9.1693 -15.9619 -27.1827 -9.1693 -15.7285 -19.6985 -9.1693 -15.0967 
-12.2143 -9.1693 -14.9602 -4.73008 -9.1693 -14.5497 2.75412 -9.1693 -15.1837 
10.2383 -9.1693 -13.4972 17.7225 -9.1693 -13.6832 25.2067 -9.1693 -15.0169 
32.6909 -9.1693 -15.4766 40.1751 -9.1693 -15.4977 47.6593 -9.1693 -15.5524 
-57.1194 -1.68511 -12.2549 -49.6353 -1.68511 -16.1357 -42.1511 -1.68511 -17.4224 
-34.6669 -1.68511 -17.2434 -27.1827 -1.68511 -16.7176 -19.6985 -1.68511 -16.2638 
-12.2143 -1.68511 -18.7035 -4.73008 -1.68511 -14.9211 2.75412 -1.68511 -14.1569 
10.2383 -1.68511 -15.9395 17.7225 -1.68511 -12.8752 25.2067 -1.68511 -14.349 
32.6909 -1.68511 -15.5037 40.1751 -1.68511 -15.8326 47.6593 -1.68511 -15.3226 
-57.1194 5.79909 -13.3512 -49.6353 5.79909 -16.2534 -42.1511 5.79909 -18.5946 
-34.6669 5.79909 -18.0473 -27.1827 5.79909 -17.3663 -19.6985 5.79909 -16.6556 
-12.2143 5.79909 -18.2734 -4.73008 5.79909 -15.1849 2.75412 5.79909 -14.346 
10.2383 5.79909 -16.3918 17.7225 5.79909 -13.0544 25.2067 5.79909 -14.3725 
32.6909 5.79909 -15.431 40.1751 5.79909 -15.8443 47.6593 5.79909 -16.7064 
55.1435 5.79909 -12.0449 -57.1194 13.2833 -14.064 -49.6353 13.2833 -15.9481 
-42.1511 13.2833 -17.6567 -34.6669 13.2833 -17.4541 -27.1827 13.2833 -17.0949 
-19.6985 13.2833 -15.5572 -12.2143 13.2833 -14.4634 -4.73008 13.2833 -15.4639 
2.75412 13.2833 -17.1734 10.2383 13.2833 -16.0907 17.7225 13.2833 -14.8259 
25.2067 13.2833 -15.2938 32.6909 13.2833 -15.4393 40.1751 13.2833 -15.4171 
47.6593 13.2833 -14.5262 -49.6353 20.7675 -13.851 -42.1511 20.7675 -15.557 
-34.6669 20.7675 -16.2122 -27.1827 20.7675 -15.2987 -19.6985 20.7675 -15.0677 
-12.2143 20.7675 -14.6053 -4.73008 20.7675 -15.5073 2.75412 20.7675 -16.8026 
10.2383 20.7675 -16.3364 17.7225 20.7675 -15.4897 25.2067 20.7675 -15.4935 
32.6909 20.7675 -16.0442 40.1751 20.7675 -14.1999 47.6593 20.7675 -12.4204 
-34.6669 28.2517 -13.6951 -27.1827 28.2517 -13.1785 -19.6985 28.2517 -13.914 
-12.2143 28.2517 -13.6138 -4.73008 28.2517 -14.3719 2.75412 28.2517 -15.1302 
10.2383 28.2517 -15.2596 17.7225 28.2517 -14.8656 25.2067 28.2517 -15.1037 
32.6909 28.2517 -15.0456 40.1751 28.2517 -13.0026 17.7225 35.7359 -12.3252 
2.75412 -32.1592 -11.8905 10.2383 -31.7247 -11.8905 25.2067 -32.0597 -11.8905 
-42.1511 -31.6219 -5.95888 -34.6669 -27.2917 -11.8905 -34.6669 -31.6219 -7.7151 
-27.1827 -27.7191 -11.8905 -27.1827 -31.6219 -8.05795 -19.6985 -28.3425 -11.8905 
-19.6985 -31.6219 -7.46662 -12.2143 -28.9586 -11.8905 -12.2143 -31.6219 -7.93472 
-4.33442 -31.6219 -11.8905 -4.73008 -31.5642 -11.8905 -4.73008 -31.6219 -11.8451 
15.5713 -31.6219 -11.8905 18.2832 -31.6219 -11.8905 17.7225 -31.5489 -11.8905 
17.7225 -31.6219 -11.8573 26.9382 -31.6219 -11.8905 32.6909 -29.0114 -11.8905 
32.6909 -31.6219 -10.3901 40.1751 -26.4883 -11.8905 40.1751 -31.6219 -7.81053 
-49.6353 -24.1377 -9.45464 -40.514 -24.1377 -11.8905 -42.1511 -22.3033 -11.8905 
-42.1511 -24.1377 -11.2641 43.8839 -24.1377 -11.8905 47.6593 -20.5368 -11.8905 
47.6593 -24.1377 -10.2746 55.1435 -24.1377 -5.44705 -57.1194 -11.6406 -11.8905 
-57.1194 -16.6535 -7.84161 -48.7922 -16.6535 -11.8905 -49.6353 -16.1977 -11.8905 
-49.6353 -16.6535 -11.6464 53.0622 -16.6535 -11.8905 55.1435 -16.6535 -11.0542 
-58.6241 -9.1693 -11.8905 54.143 -9.1693 -11.8905 55.1435 -9.1693 -11.3595 
62.6277 -9.1693 -5.37881 -57.6922 -1.68511 -11.8905 -64.6036 -1.68511 -4.83653 
55.1144 -1.68511 -11.8905 55.1435 -0.923802 -11.8905 55.1435 -1.68511 -11.8742 
62.6277 -1.68511 -6.18917 -59.1857 5.79909 -11.8905 -64.6036 5.79909 -4.92241 
55.3951 5.79909 -11.8905 55.1435 10.6462 -11.8905 62.6277 5.79909 -4.95615 
-59.7637 13.2833 -11.8905 -57.1194 17.5533 -11.8905 54.8971 13.2833 -11.8905 
55.1435 13.2833 -11.7699 -53.0754 20.7675 -11.8905 -57.1194 20.7675 -5.85031 
-49.6353 23.428 -11.8905 -42.1511 27.2462 -11.8905 48.8631 20.7675 -11.8905 
47.6593 24.4477 -11.8905 55.1435 20.7675 -7.20387 -39.5481 28.2517 -11.8905 
-42.1511 28.2517 -10.658 -34.6669 29.8302 -11.8905 -27.1827 30.3111 -11.8905 
-19.6985 31.6083 -11.8905 -12.2143 32.2738 -11.8905 -4.73008 33.3737 -11.8905 
2.75412 34.8868 -11.8905 10.2383 35.4228 -11.8905 25.2067 35.3523 -11.8905 
32.6909 33.8075 -11.8905 45.1252 28.2517 -11.8905 40.1751 30.7037 -11.8905 
47.6593 28.2517 -10.8466 -27.1827 35.7359 -5.32204 -19.6985 35.7359 -7.65789 
-12.2143 35.7359 -9.0634 -4.73008 35.7359 -10.086 2.75412 35.7359 -11.2996 
12.1712 35.7359 -11.8905 10.2383 35.7359 -11.6898 23.0456 35.7359 -11.8905 
17.7225 36.3126 -11.8905 25.2067 35.7359 -11.6194 32.6909 35.7359 -9.71752 
40.1751 35.7359 -6.16009 -42.1511 -32.5656 -4.40626 -34.6669 -34.1666 -4.40626 
-27.1827 -33.6622 -4.40626 -19.6985 -32.8504 -4.40626 -12.2143 -33.1042 -4.40626 
-4.73008 -35.7297 -4.40626 2.75412 -38.1889 -4.40626 10.2383 -38.3797 -4.40626 
10.2383 -39.1061 1.27478 17.7225 -38.0428 -4.40626 25.2067 -37.4837 -4.40626 
32.6909 -36.7924 -4.40626 40.1751 -34.3402 -4.40626 -44.3144 -31.6219 -4.40626 
-49.6353 -28.7108 -4.40626 46.6616 -31.6219 -4.40626 47.6593 -31.0945 -4.40626 
47.6593 -31.6219 -0.852284 55.1435 -25.1591 -4.40626 -54.7655 -24.1377 -4.40626 
-57.1194 -20.9983 -4.40626 56.0511 -24.1377 -4.40626 -59.7435 -16.6535 -4.40626 
60.7951 -16.6535 -4.40626 62.6277 -11.3834 -4.40626 -63.0995 -9.1693 -4.40626 
-64.6036 -2.77407 -4.40626 63.2553 -9.1693 -4.40626 -64.8214 -1.68511 -4.40626 
-64.6036 -1.68511 -3.24386 63.719 -1.68511 -4.40626 -64.8146 5.79909 -4.40626 
-64.6036 6.8986 -4.40626 -64.6036 5.79909 -3.73267 62.9479 5.79909 -4.40626 
62.6277 6.73424 -4.40626 62.6277 5.79909 -1.60227 -63.1179 13.2833 -4.40626 
60.1996 13.2833 -4.40626 -57.5865 20.7675 -4.40626 -57.1194 21.2905 -4.40626 
-57.1194 20.7675 -3.4202 -49.6353 27.2552 -4.40626 56.7721 20.7675 -4.40626 
55.1435 23.1816 -4.40626 55.1435 20.7675 0.505901 -48.0669 28.2517 -4.40626 
-42.1511 31.5931 -4.40626 -34.6669 34.4599 -4.40626 51.354 28.2517 -4.40626 
47.6593 31.7447 -4.40626 -29.0826 35.7359 -4.40626 -27.1827 36.1575 -4.40626 
-27.1827 35.7359 -3.01091 -19.6985 37.325 -4.40626 -19.6985 35.7359 0.598809 
-12.2143 38.0469 -4.40626 -4.73008 39.3086 -4.40626 2.75412 40.6813 -4.40626 
10.2383 40.9484 -4.40626 17.7225 40.7226 -4.40626 25.2067 40.11 -4.40626 
32.6909 39.161 -4.40626 41.2846 35.7359 -4.40626 40.1751 36.3243 -4.40626 
40.1751 35.7359 -2.38964 10.2383 -39.3098 3.07793 -42.1511 -33.3897 3.07793 
-34.6669 -35.5489 3.07793 -27.1827 -34.28 3.07793 -19.6985 -32.545 3.07793 
-12.2143 -32.6109 3.07793 -4.73008 -35.1995 3.07793 8.41504 -39.1061 3.07793 
2.75412 -38.403 3.07793 13.5271 -39.1061 3.07793 10.2383 -39.1061 3.6241 
17.7225 -38.8504 3.07793 25.2067 -38.5033 3.07793 32.6909 -37.9004 3.07793 
40.1751 -35.8297 3.07793 47.6593 -32.0826 3.07793 -46.3735 -31.6219 3.07793 
-49.6353 -29.8886 3.07793 -42.1511 -31.6219 7.85132 -19.6985 -31.6219 7.854 
40.1751 -31.6219 10.2553 48.372 -31.6219 3.07793 47.6593 -31.6219 4.04928 
55.1435 -25.8812 3.07793 -55.2436 -24.1377 3.07793 -57.1194 -21.2726 3.07793 
56.6397 -24.1377 3.07793 55.1435 -24.1377 5.23457 -59.8854 -16.6535 3.07793 
-57.1194 -16.6535 6.82721 61.0913 -16.6535 3.07793 55.1435 -16.6535 10.2703 
62.6277 -11.3468 3.07793 -62.2303 -9.1693 3.07793 -57.1194 -9.1693 9.15427 
63.3053 -9.1693 3.07793 62.6277 -9.1693 4.10821 -62.9817 -1.68511 3.07793 
-57.1194 -1.68511 9.72121 62.7771 -1.68511 3.07793 62.6277 -0.067103 3.07793 
62.6277 -1.68511 3.28401 -62.2759 5.79909 3.07793 -57.1194 5.79909 8.22501 
61.9783 5.79909 3.07793 55.1435 5.79909 9.43369 -59.6492 13.2833 3.07793 
-57.1194 16.6044 3.07793 -57.1194 13.2833 5.39334 -49.6353 13.2833 10.3423 
47.6593 13.2833 10.2189 58.4138 13.2833 3.07793 55.1435 19.2528 3.07793 
55.1435 13.2833 6.3999 -53.1355 20.7675 3.07793 -49.6353 23.774 3.07793 
-49.6353 20.7675 5.89367 -42.1511 20.7675 9.45803 53.8374 20.7675 3.07793 
47.6593 20.7675 7.83076 -43.3896 28.2517 3.07793 -42.1511 28.9809 3.07793 
-42.1511 28.2517 3.87985 -34.6669 31.7986 3.07793 -34.6669 28.2517 6.75567 
-27.1827 33.206 3.07793 -27.1827 28.2517 7.70875 -19.6985 34.7002 3.07793 
-19.6985 28.2517 9.33159 32.6909 28.2517 10.1863 40.1751 33.37 3.07793 
40.1751 28.2517 7.7866 48.2876 28.2517 3.07793 47.6593 28.8391 3.07793 
47.6593 28.2517 3.66126 -14.6003 35.7359 3.07793 -12.2143 36.1443 3.07793 
-12.2143 35.7359 3.63806 -4.73008 38.0312 3.07793 -4.73008 35.7359 6.51563 
2.75412 39.8509 3.07793 2.75412 35.7359 9.02424 10.2383 40.029 3.07793 
10.2383 35.7359 8.54884 17.7225 39.2323 3.07793 17.7225 35.7359 7.37976 
25.2067 38.4491 3.07793 25.2067 35.7359 6.79278 35.9644 35.7359 3.07793 
32.6909 37.0866 3.07793 32.6909 35.7359 4.67721 -34.6669 -32.166 10.5621 
-27.1827 -31.928 10.5621 -12.2143 -31.8025 10.5621 -4.73008 -33.1601 10.5621 
2.75412 -35.184 10.5621 10.2383 -35.6196 10.5621 17.7225 -35.625 10.5621 
25.2067 -35.3846 10.5621 32.6909 -34.0054 10.5621 -49.6353 -25.1284 10.5621 
-36.9635 -31.6219 10.5621 -42.1511 -29.7191 10.5621 -34.6669 -31.6219 11.1259 
-24.6178 -31.6219 10.5621 -27.1827 -31.6219 11.0075 -14.1273 -31.6219 10.5621 
-19.6985 -31.0832 10.5621 -12.2143 -31.6219 10.9105 -4.73008 -31.6219 12.6568 
[...]
POINT_DATA 548
SCALARS ImageScalars float
LOOKUP_TABLE default
0 0 0 0 0 0 0 0 0 
0 0 0 0 0 0 0 0 0 
0 0 0 0 0 0 0 0 0 
0 0 0 0 0 0 0 0 0 
0 0 0 0 0 0 0 0 0 
0 0 0 0 0 0 0 0 0 
0 0 0 0 0 0 0 0 0 
0 0 0 0 0 0 0 0 0 
0 0 0 0 0 0 0 0 0 
0 0 0 0 0 0 0 0 0 
0 0 0 0 0 0 0 0 0 
0 0 0 0 0 0 0 0 0 
0 0 0 0 0 0 0 0 0 
0 0 0 0 0 0 0 0 0 
0 0 0 0 0 0 0 0 0 
0 0 0 0 0 0 0 0 0 
0 0 0 0 0 0 0 0 0 
0 0 0 0 0 0 0 0 0 
0 0 0 0 0 0 0 0 0 
0 0 0 0 0 0 0 0 0 
0 0 0 0 0 0 0 0 0 
0 0 0 0 0 0 0 0 0 
0 0 0 0 0 0 0 0 0 
0 0 0 0 0 0 0 0 0 
0 0 0 0 0 0 0 0 0 
0 0 0 0 0 0 0 0 0 
0 0 0 0 0 0 0 0 0 
0 0 0 0 0 0 0 0 0 
0 0 0 0 0 0 0 0 0 
0 0 0 0 0 0 0 0 0 
0 0 0 0 0 0 0 0 0 
0 0 0 0 0 0 0 0 0 
0 0 0 0 0 0 0 0 0 
0 0 0 0 0 0 0 0 0 
0 0 0 0 0 0 0 0 0 
0 0 0 0 0 0 0 0 0 
0 0 0 0 0 0 0 0 0 
0 0 0 0 0 0 0 0 0 
0 0 0 0 0 0 0 0 0 
0 0 0 0 0 0 0 0 0 
0 0 0 0 0 0 0 0 0 
0 0 0 0 0 0 0 0 0 
0 0 0 0 0 0 0 0 0 
0 0 0 0 0 0 0 0 0 
0 0 0 0 0 0 0 0 0 
0 0 0 0 0 0 0 0 0 
0 0 0 0 0 0 0 0 0 
0 0 0 0 0 0 0 0 0 
0 0 0 0 0 0 0 0 0 
0 0 0 0 0 0 0 0 0 
0 0 0 0 0 0 0 0 0 
0 0 0 0 0 0 0 0 0 
0 0 0 0 0 0 0 0 0 
0 0 0 0 0 0 0 0 0 
0 0 0 0 0 0 0 0 0 
0 0 0 0 0 0 0 0 0 
0 0 0 0 0 0 0 0 0 
0 0 0 0 0 0 0 0 0 
0 0 0 0 0 0 0 0 0 
0 0 0 0 0 0 0 0 0 
0 0 0 0 0 0 0 0 
NORMALS Normals float
0.00757227 0.468204 0.883588 -0.0260011 0.5155 0.856495 -0.0689195 0.55832 0.826758 
0.147337 0.363838 0.919736 0.0333006 0.336942 0.940936 0.0319008 0.309861 0.950247 
0.0171737 0.283556 0.958802 -0.0174554 0.168293 0.985583 0.00255635 0.122205 0.992502 
0.0239307 0.137332 0.990236 0.0469147 0.181391 0.982291 -0.0392593 0.208296 0.977278 
-0.0999726 0.296376 0.949825 -0.218796 0.349132 0.911173 0.207815 0.248401 0.946102 
0.0893938 0.16502 0.982231 -0.00528809 0.102618 0.994707 0.00162646 0.0560512 0.998427 
-0.0355004 0.0298134 0.998925 -0.0585123 0.00558575 0.998271 -0.00950688 0.0581953 0.99826 
0.0488253 -0.0604543 0.996976 0.0615843 -0.0570959 0.996467 0.0618474 -0.0138452 0.99799 
-0.056198 0.093056 0.994074 -0.144917 0.115722 0.982653 -0.219778 0.300388 0.928151 
0.544394 0.170384 0.821343 0.20247 0.256749 0.945032 -0.00757758 0.244967 0.969502 
0.00653624 0.130393 0.991441 -0.0571909 0.113247 0.991919 -0.0485372 0.0726151 0.996178 
-0.0367348 0.194009 0.980312 0.0125561 0.0120646 0.999848 -0.0649493 0.0156173 0.997766 
-0.0985502 0.0268188 0.994771 0.0955661 -0.142787 0.985129 0.116989 -0.0721728 0.990507 
0.0295371 -0.0258633 0.999229 0.00456479 0.0855147 0.996326 -0.243685 0.102715 0.9644 
0.547374 -0.00503729 0.836873 0.285402 0.00494146 0.958395 0.0844888 0.191579 0.977834 
-0.0461731 0.137889 0.989371 -0.0648706 0.103996 0.99246 0.105306 0.1055 0.988828 
-0.0114777 0.250933 0.967936 -0.330204 0.0534789 0.942393 0.0534499 -0.0928013 0.994249 
-0.173428 0.238943 0.955421 -0.0159125 -0.0388748 0.999117 0.174459 -0.0393443 0.983878 
0.098235 -0.00303379 0.995159 -0.0174461 0.0230841 0.999581 -0.216818 0.0597294 0.974383 
0.516337 0.116576 0.848414 0.289266 -0.0138383 0.957149 0.117295 0.0184606 0.992926 
-0.0800698 0.013903 0.996692 -0.0931867 0.0254217 0.995324 0.0286801 -0.0443043 0.998606 
-0.057336 -0.316371 0.946901 -0.242121 0.0388546 0.969468 0.0484162 0.264627 0.963135 
-0.16096 -0.00220982 0.986958 -0.0396506 0.131277 0.990552 0.15803 0.0633161 0.985402 
0.0971322 -0.00427131 0.995262 0.0761741 -0.0272826 0.996721 -0.216826 -0.0138768 0.976112 
-0.51198 -0.00571808 0.858979 0.522625 -0.23104 0.82066 0.22732 -0.115713 0.966921 
0.119061 -0.223033 0.967513 -0.0358399 -0.114237 0.992807 -0.121136 -0.135436 0.983353 
-0.175318 -0.106741 0.978708 -0.00579171 -0.17221 0.985043 0.180888 0.0175023 0.983348 
0.0439322 0.116415 0.992229 -0.165267 0.0047437 0.986237 -0.0469913 0.164601 0.98524 
0.0416161 0.0758466 0.996251 0.00827855 0.0389409 0.999207 -0.051798 -0.10943 0.992644 
-0.274931 -0.263405 0.924679 0.389217 -0.481979 0.784988 0.116852 -0.335985 0.934591 
-0.0134759 -0.206113 0.978435 -0.0689211 -0.235747 0.969368 -0.046233 -0.0974028 0.994171 
0.0285747 -0.0544982 0.998105 0.146428 -0.0696063 0.986769 0.05518 -0.131527 0.989776 
-0.0884779 -0.0531406 0.99466 -0.0544644 0.00397843 0.998508 0.0352094 -0.0107456 0.999322 
-0.0864955 -0.0409873 0.995409 -0.208633 -0.137953 0.968216 -0.327785 -0.198014 0.923768 
0.105671 -0.588651 0.801451 0.020488 -0.404902 0.914131 0.0246388 -0.350275 0.936323 
0.0313426 -0.265451 0.963615 0.0981723 -0.280556 0.954804 0.0558988 -0.311369 0.948644 
-0.0172017 -0.264836 0.96414 -0.0100336 -0.198036 0.980143 0.0112367 -0.247796 0.968747 
-0.105955 -0.28331 0.953157 -0.300978 -0.30237 0.904425 -0.00521858 -0.551425 0.834208 
0.00988282 0.49811 0.867058 -0.0262884 0.520762 0.853297 -0.0712844 0.579131 0.812112 
0.307209 0.835608 0.455392 0.135954 0.513573 0.847207 0.0869876 0.79266 0.603426 
0.0420769 0.533727 0.844609 0.000274557 0.854145 0.520035 0.0497292 0.58304 0.81092 
-0.0108775 0.929018 0.369875 0.0898148 0.614192 0.784029 0.138798 0.904427 0.403419 
0.131846 0.613219 0.778832 0.138262 0.61772 0.774148 0.141026 0.623711 0.768828 
0.00523952 0.514121 0.857702 0.0111053 0.516858 0.855999 0.0179366 0.50986 0.860071 
0.0175598 0.514295 0.857433 -0.105549 0.563911 0.819063 -0.18509 0.473277 0.86125 
-0.223338 0.62056 0.751682 -0.236472 0.449969 0.861167 -0.284827 0.733084 0.617626 
0.449385 0.510916 0.732815 0.239269 0.372701 0.896574 0.251067 0.340601 0.906067 
0.268095 0.390045 0.880903 -0.300504 0.389035 0.870832 -0.290471 0.351623 0.889937 
-0.404937 0.459536 0.790476 -0.673148 0.609448 0.418861 0.575911 0.308944 0.756889 
0.694436 0.5235 0.493666 0.288398 0.33919 0.89542 0.291678 0.351396 0.889632 
0.306194 0.352202 0.88442 -0.411523 0.25835 0.874016 -0.517544 0.261773 0.81463 
0.630351 0.215907 0.745682 -0.449191 0.053898 0.891808 -0.489139 0.0468083 0.870949 
-0.904232 0.184207 0.385269 0.576174 -0.00121776 0.817326 0.975653 0.109105 0.190255 
-0.477426 0.0403466 0.877745 -0.481927 0.0357918 0.87548 -0.478946 0.0402897 0.876919 
-0.931937 -0.0161335 0.362261 0.588793 0.0890015 0.803369 0.99094 -0.0957051 0.0942301 
-0.521374 -0.00852317 0.853286 -0.521537 -0.105147 0.846725 -0.938644 -0.22092 0.264845 
0.736566 -0.252815 0.62734 0.615536 -0.438424 0.654905 -0.516563 -0.165243 0.840153 
-0.530168 -0.166266 0.831431 0.51339 -0.564523 0.646332 0.738621 -0.670963 0.0651767 
0.439374 -0.601978 0.666763 0.255972 -0.665612 0.701027 -0.370402 -0.2289 0.900226 
-0.410949 -0.320882 0.85332 -0.779126 -0.507322 0.368221 0.223832 -0.686114 0.692204 
0.310295 -0.757229 0.574736 0.147352 -0.683597 0.71483 0.0738719 -0.518882 0.851648 
0.0717905 -0.515516 0.853867 0.0608186 -0.48778 0.870845 0.0837325 -0.545765 0.833744 
0.0652344 -0.592026 0.803275 0.0531357 -0.588423 0.806805 -0.112064 -0.556225 0.823441 
-0.126192 -0.615236 0.778177 -0.43092 -0.3997 0.809041 -0.324167 -0.434454 0.840337 
-0.531848 -0.499955 0.683508 0.191421 -0.97179 0.137776 0.132966 -0.910619 0.39127 
0.100695 -0.833299 0.543575 0.100706 -0.750122 0.653586 0.0712307 -0.652552 0.754388 
0.0416982 -0.590588 0.805895 0.055364 -0.611775 0.789092 -0.0876796 -0.568474 0.818016 
0.000122692 -0.580424 0.814315 -0.122378 -0.589395 0.798522 -0.169793 -0.8009 0.574221 
-0.422542 -0.889673 0.173031 0.301822 0.886286 0.351284 0.074406 0.904749 0.419396 
-0.0803244 0.95361 0.290132 -0.0385269 0.986038 0.162003 0.161001 0.975064 0.152738 
0.324142 0.927449 0.186471 0.141936 0.94929 0.280542 -0.0090738 0.936723 0.349953 
0.0173053 0.999622 -0.0213867 -0.0540145 0.940667 0.335005 -0.0760466 0.932834 0.35219 
-0.192168 0.904695 0.380261 -0.316245 0.857404 0.406014 0.377225 0.850589 0.366333 
0.549517 0.732896 0.401117 -0.44837 0.813036 0.371398 -0.474349 0.8003 0.36676 
-0.522124 0.846061 0.107552 -0.680066 0.632913 0.370041 0.702505 0.615677 0.356971 
0.762661 0.552696 0.335969 -0.69904 0.610648 0.372091 0.812849 0.477698 0.333288 
-0.852272 0.389113 0.349605 -0.914689 0.240603 0.324737 0.925918 0.310527 0.215055 
0.975965 0.133718 0.172083 -0.932311 0.176295 0.31578 0.98065 0.104364 0.165632 
0.993242 0.0924735 0.070134 -0.969899 -0.0230724 0.242413 0.993667 -0.0996005 0.0520251 
0.988451 -0.145673 0.0417623 0.993941 -0.109148 0.0129682 -0.947145 -0.222228 0.23137 
-0.944813 -0.240239 0.222741 -0.969146 -0.245985 -0.015731 0.906837 -0.421461 -0.00421629 
-0.910976 -0.378428 0.164057 0.748922 -0.660839 -0.0490651 0.737407 -0.673804 -0.047103 
0.743243 -0.660451 -0.106741 0.557545 -0.829161 -0.0404485 -0.853102 -0.510947 0.105596 
-0.826289 -0.554632 0.0981278 -0.768607 -0.554419 -0.319159 0.528874 -0.848312 -0.0256724 
0.42695 -0.90371 0.0319853 0.296816 -0.951415 0.0819151 -0.744437 -0.664239 0.0678201 
-0.639295 -0.767117 0.0532244 0.214042 -0.973853 0.0761358 0.187969 -0.979524 0.0721127 
0.191262 -0.981156 -0.0274118 0.128314 -0.989348 0.0687537 0.149331 -0.937644 -0.313885 
0.1338 -0.98546 0.10472 0.181929 -0.966205 0.18262 0.112197 -0.967256 0.227656 
0.00231822 -0.977644 0.210255 -0.0582919 -0.990767 0.122405 -0.104899 -0.988984 0.104438 
-0.257871 -0.958877 0.118567 -0.450363 -0.892528 0.0238148 -0.422585 -0.906071 0.021366 
-0.440844 -0.890422 -0.113157 0.02494 0.991272 -0.129455 0.31921 0.940286 -0.118186 
0.0558884 0.993219 -0.101942 -0.19283 0.976359 -0.0976701 -0.111494 0.987505 -0.111372 
0.141836 0.986438 -0.0825939 0.377527 0.914135 -0.147749 0.0736446 0.987898 -0.136509 
0.233527 0.959282 -0.15888 -0.00956696 0.992668 -0.120491 0.0257878 0.986644 -0.160835 
-0.0526102 0.992467 -0.110645 -0.062389 0.993445 -0.0957813 -0.188339 0.973437 -0.130188 
-0.340797 0.931061 -0.13032 -0.536372 0.830192 -0.151942 0.469626 0.870375 -0.147985 
0.60516 0.776707 -0.174663 0.358015 0.835882 -0.416084 -0.0449006 0.9705 -0.236883 
-0.304301 0.690003 -0.656732 -0.552865 0.819051 -0.153283 -0.537177 0.815601 -0.215025 
-0.709498 0.671485 -0.213825 0.780732 0.580904 -0.230235 0.807286 0.524546 -0.270446 
-0.739837 0.631919 -0.230909 -0.717969 0.61261 -0.330499 0.864765 0.439364 -0.243189 
0.727571 0.423618 -0.539618 -0.897019 0.330853 -0.293076 -0.573466 0.275874 -0.771382 
-0.927414 0.190612 -0.321824 0.903321 0.170744 -0.393519 0.638538 0.119143 -0.760312 
-0.940096 0.124136 -0.317505 -0.913587 0.118755 -0.388916 0.870978 0.00536528 -0.491293 
0.593192 -0.0616819 -0.802694 -0.897139 -0.0829698 -0.433887 -0.892439 -0.121059 -0.434623 
-0.890626 -0.0845023 -0.446817 0.86258 -0.189144 -0.469233 0.531967 -0.248958 -0.80934 
-0.867729 -0.246183 -0.431788 -0.511863 -0.255514 -0.820188 0.693488 -0.429212 -0.578664 
0.63109 -0.52025 -0.575383 0.582294 -0.422428 -0.694614 0.399619 -0.307575 -0.863541 
-0.410159 -0.238722 -0.880217 -0.763407 -0.440692 -0.472229 -0.68072 -0.509319 -0.526511 
-0.60029 -0.407472 -0.688199 0.568548 -0.58421 -0.579182 0.457972 -0.681801 -0.570446 
0.434144 -0.554317 -0.710107 0.26952 -0.474519 -0.837968 -0.66469 -0.515419 -0.540861 
-0.495546 -0.373206 -0.784316 0.416903 -0.718235 -0.557073 0.417973 -0.714089 -0.561583 
0.403449 -0.691201 -0.599558 0.253566 -0.767951 -0.58818 0.208852 -0.632574 -0.745809 
0.164759 -0.800352 -0.576446 0.144436 -0.613454 -0.77641 0.149591 -0.842748 -0.517105 
0.151004 -0.589078 -0.793842 -0.220111 -0.461509 -0.859396 -0.421909 -0.737893 -0.526789 
-0.356195 -0.528191 -0.770804 -0.580062 -0.60008 -0.550847 -0.564158 -0.614344 -0.55164 
-0.55809 -0.591218 -0.582234 0.181224 -0.853022 -0.489399 0.197744 -0.855021 -0.479413 
0.1992 -0.839628 -0.505316 0.243816 -0.890411 -0.384346 0.251693 -0.793557 -0.554001 
0.126058 -0.930682 -0.343425 0.0817238 -0.735405 -0.672681 -0.0403854 -0.927562 -0.371481 
-0.0811667 -0.709402 -0.700115 -0.101639 -0.893906 -0.43658 -0.0842321 -0.728621 -0.679718 
-0.131284 -0.883474 -0.449709 -0.136601 -0.753943 -0.642581 -0.352784 -0.785574 -0.508346 
-0.278356 -0.813281 -0.510971 -0.278651 -0.757711 -0.590107 0.0891436 0.765195 -0.637597 
-0.0689646 0.875496 -0.47828 0.121428 0.943692 -0.307734 0.207923 0.880855 -0.42528 
0.144722 0.790518 -0.595094 0.0247013 0.747973 -0.663269 -0.0124599 0.770833 -0.636915 
-0.0845499 0.775988 -0.625055 -0.208055 0.710782 -0.671939 0.553962 0.431509 -0.711987 
0.171821 0.756302 -0.631257 0.353137 0.675558 -0.647237 0.0934559 0.741027 -0.66494 
-0.0451438 0.904498 -0.424081 -0.0558621 0.863339 -0.501524 0.0881981 0.946846 -0.309362 
-0.00226835 0.943753 -0.330644 0.116436 0.938149 -0.326065 0.14662 0.830707 -0.537055 
0.0573798 0.596339 -0.80068 -0.000847005 0.533669 -0.845693 -0.000884844 0.54094 -0.841061 
-0.081011 0.562993 -0.822482 -0.290566 0.673569 -0.679615 -0.191675 0.606268 -0.771816 
-0.300822 0.665221 -0.683365 -0.472604 0.459238 -0.752161 0.574799 0.400105 -0.713808 
0.546149 0.386488 -0.743202 0.323814 0.322296 -0.889534 0.155921 0.353546 -0.922331 
0.126038 0.348272 -0.928882 -0.110019 0.214365 -0.970538 -0.0150642 0.201356 -0.979402 
0.016321 0.217677 -0.975884 -0.00715647 0.228036 -0.973626 -0.134167 0.267344 -0.954215 
-0.287307 0.304745 -0.908067 -0.510428 0.42394 -0.748156 -0.454804 0.415735 -0.787603 
0.507128 0.186391 -0.841474 0.449283 0.127222 -0.884285 0.3349 0.0945121 -0.937502 
0.198735 0.0719826 -0.977406 -0.153439 0.192612 -0.969204 -0.0107768 0.0974942 -0.995178 
0.0354816 0.0255825 -0.999043 -0.0215983 0.0313028 -0.999277 -0.100074 0.0258949 -0.994643 
-0.145976 0.0889814 -0.985278 -0.552842 0.269089 -0.788643 -0.368155 0.186077 -0.910954 
-0.559194 0.248476 -0.790924 0.534431 0.100555 -0.839209 0.428741 0.0584322 -0.901536 
0.260497 0.011858 -0.965402 0.155679 -0.0304278 -0.987339 -0.0474589 -0.0785332 -0.995781 
-0.00321137 -0.0847472 -0.996397 -0.0842308 -0.0738931 -0.993703 -0.13179 -0.0563887 -0.989673 
-0.290466 -0.0737587 -0.954038 -0.589401 0.0624816 -0.80542 -0.495398 0.048489 -0.867312 
0.533476 -0.0738233 -0.842587 0.367013 -0.104357 -0.924344 0.241992 -0.131653 -0.961305 
0.192702 -0.100275 -0.97612 -0.0974235 0.0371708 -0.994549 -0.0180254 -0.0798126 -0.996647 
-0.0746385 -0.112902 -0.990799 -0.155543 -0.136145 -0.978402 -0.284354 -0.159849 -0.945299 
-0.550895 -0.176361 -0.815728 -0.508501 -0.213355 -0.83421 -0.520133 -0.174039 -0.836165 
0.375738 -0.189298 -0.907186 0.392297 -0.28037 -0.876068 0.345266 -0.166406 -0.923634 
0.265376 -0.191539 -0.944928 0.219501 -0.192624 -0.956408 0.221997 -0.196693 -0.955002 
-0.126408 0.114634 -0.985332 -0.151805 -0.0140858 -0.98831 -0.140853 -0.10083 -0.984883 
-0.189941 -0.145399 -0.970969 -0.408721 -0.243394 -0.879606 -0.386953 -0.227061 -0.893706 
-0.290569 -0.212272 -0.933011 0.382861 -0.302077 -0.873022 0.250717 -0.404099 -0.879685 
0.237763 -0.288796 -0.927397 0.18122 -0.32555 -0.927996 0.203157 -0.332773 -0.920864 
0.236255 -0.33305 -0.912831 -0.230163 -0.0870866 -0.969248 -0.20586 -0.143895 -0.967944 
-0.393142 -0.228139 -0.890726 -0.27191 -0.19701 -0.941941 0.16577 -0.424792 -0.889984 
0.143853 -0.423474 -0.894414 0.141282 -0.413618 -0.899422 0.167467 -0.481959 -0.860041 
0.188895 -0.423595 -0.885938 0.165239 -0.542419 -0.823698 0.220492 -0.456551 -0.861942 
0.222505 -0.474487 -0.851677 0.0805384 -0.394691 -0.915277 -0.0443815 -0.289074 -0.956277 
-0.073843 -0.272534 -0.959308 -0.126232 -0.33435 -0.933957 -0.201316 -0.276382 -0.939726 
-0.221928 -0.433672 -0.873314 -0.255894 -0.272541 -0.927491 -0.290973 -0.303864 -0.907194 
-0.281316 -0.316023 -0.906085 -0.275987 -0.299254 -0.913388 0.19417 -0.608194 -0.769674 
0.198389 -0.613282 -0.764543 0.198485 -0.611185 -0.766196 0.240609 -0.63487 -0.734199 
0.208492 -0.568807 -0.795606 0.0714147 -0.646564 -0.75951 0.0416912 -0.46789 -0.882803 
-0.0947482 -0.593081 -0.799548 -0.0964139 -0.461168 -0.882059 -0.102957 -0.563132 -0.819928 
-0.122692 -0.491352 -0.862276 -0.2019 -0.454303 -0.867666 -0.144187 -0.521573 -0.840935 
-0.147121 -0.449509 -0.881077 0.106633 0.37905 -0.919212 0.0201418 0.485872 -0.873798 
-0.116721 0.37324 -0.920363 0.113437 0.350757 -0.929571 0.13279 0.178576 -0.974924 
0.108333 0.35623 -0.928097 0.0163413 0.385591 -0.922525 -0.128491 0.290256 -0.948283 
-0.136242 0.325777 -0.935579 0.162135 0.0717161 -0.984159 0.135601 0.071732 -0.988163 
0.113848 0.0560728 -0.991915 0.00936924 0.0313402 -0.999465 -0.153669 0.182969 -0.971035 
-0.153033 0.0853264 -0.98453 -0.150492 0.202424 -0.967666 -0.151344 0.0678194 -0.986152 
0.134467 -0.015884 -0.990791 0.114834 -0.00514449 -0.993371 0.0645139 0.00458927 -0.997906 
0.0458651 -0.0467155 -0.997855 0.0450576 0.0418426 -0.998108 -0.10696 0.295436 -0.949356 
-0.165757 0.0284859 -0.985755 -0.198797 0.0607045 -0.978159 0.173411 -0.0731633 -0.982128 
0.191643 -0.120592 -0.974028 0.167197 -0.0631013 -0.983902 0.0722849 0.00836813 -0.997349 
0.0445029 0.00463897 -0.998998 0.175874 0.0344232 -0.983811 -0.122636 -0.00949852 -0.992406 
-0.364168 -0.00321396 -0.931328 -0.377731 -0.00616056 -0.925895 0.200527 -0.183097 -0.962426 
0.202257 -0.268741 -0.941738 0.130904 -0.142898 -0.981042 0.0681376 -0.0318149 -0.997169 
0.042458 -0.0270202 -0.998733 -0.155976 -0.202011 -0.966883 -0.140433 0.0491959 -0.988867 
-0.14948 0.00665836 -0.988742 -0.124585 -0.00958795 -0.992163 0.207867 -0.281487 -0.93678 
0.189427 -0.303066 -0.933953 0.165007 -0.206556 -0.964421 0.0664888 -0.358218 -0.931267 
0.00645483 -0.172064 -0.985065 -0.0677364 -0.248575 -0.966241 -0.110778 -0.171245 -0.978981 
-0.060111 -0.108654 -0.992261 -0.0577487 -0.0785865 -0.995233 -0.131965 -0.0882652 -0.987317 
-0.123046 -0.110478 -0.986232 -0.12241 -0.0882561 -0.988548 
