# vtk DataFile Version 4.2
vtk output
ASCII
DATASET POLYDATA
POINTS 556 float
-33.1801 -32.5053 -14.2392 9.06102 -32.5053 -14.7812 17.5092 -32.5053 -15.7615 
25.9575 -32.5053 -15.1245 34.4057 -32.5053 -14.1188 -50.0765 -24.0571 -14.999 
-41.6283 -24.0571 -16.2099 -33.1801 -24.0571 -16.9758 -24.7318 -24.0571 -15.9622 
-16.2836 -24.0571 -14.4804 0.612806 -24.0571 -13.9992 9.06102 -24.0571 -16.4103 
17.5092 -24.0571 -17.1068 25.9575 -24.0571 -17.0728 34.4057 -24.0571 -16.3481 
42.8539 -24.0571 -14.7945 -50.0765 -15.6089 -17.3211 -41.6283 -15.6089 -18.5252 
-33.1801 -15.6089 -18.217 -24.7318 -15.6089 -17.1977 -16.2836 -15.6089 -15.8829 
-7.83541 -15.6089 -14.472 0.612806 -15.6089 -15.6908 9.06102 -15.6089 -17.2681 
17.5092 -15.6089 -17.7074 25.9575 -15.6089 -17.8792 34.4057 -15.6089 -17.4302 
42.8539 -15.6089 -16.0528 -58.5247 -7.16066 -14.4401 -50.0765 -7.16066 -17.5524 
-41.6283 -7.16066 -18.6112 -33.1801 -7.16066 -19.0178 -24.7318 -7.16066 -17.6231 
-16.2836 -7.16066 -16.2977 -7.83541 -7.16066 -18.0236 0.612806 -7.16066 -16.6907 
9.06102 -7.16066 -18.9663 17.5092 -7.16066 -18.273 25.9575 -7.16066 -18.5136 
34.4057 -7.16066 -18.3802 42.8539 -7.16066 -17.2909 51.3021 -7.16066 -15.0701 
-58.5247 1.28756 -15.068 -50.0765 1.28756 -18.1712 -41.6283 1.28756 -19.1505 
-33.1801 1.28756 -18.8854 -24.7318 1.28756 -17.5646 -16.2836 1.28756 -16.6625 
-7.83541 1.28756 -20.1305 0.612806 1.28756 -16.9021 9.06102 1.28756 -21.1941 
17.5092 1.28756 -18.6838 25.9575 1.28756 -18.6146 34.4057 1.28756 -19.1235 
42.8539 1.28756 -18.2224 51.3021 1.28756 -15.596 -50.0765 9.73577 -17.8657 
-41.6283 9.73577 -19.5882 -33.1801 9.73577 -19.7897 -24.7318 9.73577 -19.11 
-16.2836 9.73577 -18.4995 -7.83541 9.73577 -19.2212 0.612806 9.73577 -20.1681 
9.06102 9.73577 -20.9367 17.5092 9.73577 -18.4471 25.9575 9.73577 -18.9781 
34.4057 9.73577 -19.3432 42.8539 9.73577 -18.3934 51.3021 9.73577 -15.4601 
-50.0765 18.184 -17.2037 -41.6283 18.184 -19.6631 -33.1801 18.184 -21.1068 
-24.7318 18.184 -21.2854 -16.2836 18.184 -20.9462 -7.83541 18.184 -20.0988 
0.612806 18.184 -19.1889 9.06102 18.184 -19.4157 17.5092 18.184 -19.1956 
25.9575 18.184 -19.068 34.4057 18.184 -18.7381 42.8539 18.184 -17.1045 
-41.6283 26.6322 -18.2391 -33.1801 26.6322 -20.3971 -24.7318 26.6322 -21.7362 
-16.2836 26.6322 -22.0907 -7.83541 26.6322 -21.4151 0.612806 26.6322 -20.3914 
9.06102 26.6322 -19.8523 17.5092 26.6322 -19.6162 25.9575 26.6322 -18.8847 
34.4057 26.6322 -17.5584 42.8539 26.6322 -14.5364 -33.1801 35.0804 -19.268 
-24.7318 35.0804 -21.0325 -16.2836 35.0804 -21.9416 -7.83541 35.0804 -21.558 
0.612806 35.0804 -20.4038 9.06102 35.0804 -19.5289 17.5092 35.0804 -18.6161 
25.9575 35.0804 -17.2075 -24.7318 43.5286 -17.8796 -16.2836 43.5286 -19.5255 
-7.83541 43.5286 -19.8082 0.612806 43.5286 -18.4844 9.06102 43.5286 -17.1842 
17.5092 43.5286 -15.217 -33.1801 -33.1476 -13.8301 -33.1801 -40.9535 -6.92129 
-24.7318 -40.9535 -7.00601 -16.2836 -40.9535 -5.88392 -7.83541 -40.9535 -6.42173 
0.612806 -40.9535 -8.74488 9.06102 -35.1238 -13.8301 9.06102 -40.9535 -11.3567 
17.5092 -37.5052 -13.8301 17.5092 -40.9535 -12.1411 25.9575 -35.287 -13.8301 
25.9575 -40.9535 -10.6606 34.4057 -33.0167 -13.8301 34.4057 -40.9535 -7.5683 
-50.0765 -26.0526 -13.8301 -50.0765 -32.5053 -10.0999 -35.4564 -32.5053 -13.8301 
-41.6283 -29.6755 -13.8301 -41.6283 -32.5053 -12.4942 -31.0342 -32.5053 -13.8301 
-24.7318 -29.3601 -13.8301 -24.7318 -32.5053 -12.4612 -16.2836 -25.7131 -13.8301 
-16.2836 -32.5053 -11.1164 -7.83541 -32.5053 -10.9409 5.37054 -32.5053 -13.8301 
0.612806 -25.0269 -13.8301 0.612806 -32.5053 -12.5686 35.2 -32.5053 -13.8301 
42.8539 -26.3204 -13.8301 42.8539 -32.5053 -10.4475 51.3021 -32.5053 -5.87097 
-55.5325 -24.0571 -13.8301 -58.5247 -24.0571 -12.8473 -12.9768 -24.0571 -13.8301 
-0.535597 -24.0571 -13.8301 -7.83541 -18.785 -13.8301 -7.83541 -24.0571 -12.8387 
45.0247 -24.0571 -13.8301 51.3021 -24.0571 -10.2513 -66.9729 -15.6089 -5.39495 
-57.4534 -15.6089 -13.8301 -58.5247 -10.9621 -13.8301 -58.5247 -15.6089 -13.1412 
49.27 -15.6089 -13.8301 51.3021 -12.3838 -13.8301 51.3021 -15.6089 -13.1547 
59.7503 -15.6089 -7.35115 -59.3737 -7.16066 -13.8301 54.0374 -7.16066 -13.8301 
59.7503 -7.16066 -10.3907 -59.9677 1.28756 -13.8301 -58.5247 6.92755 -13.8301 
55.2757 1.28756 -13.8301 59.7503 1.28756 -10.7909 -57.62 9.73577 -13.8301 
-58.5247 9.73577 -13.1107 54.8263 9.73577 -13.8301 51.3021 17.1748 -13.8301 
59.7503 9.73577 -9.91861 -54.8339 18.184 -13.8301 -58.5247 18.184 -7.60803 
-50.0765 25.7875 -13.8301 50.7455 18.184 -13.8301 51.3021 18.184 -13.5384 
59.7503 18.184 -5.44464 -49.3217 26.6322 -13.8301 -50.0765 26.6322 -12.9291 
-41.6283 34.6112 -13.8301 34.4057 34.9257 -13.8301 44.1545 26.6322 -13.8301 
42.8539 27.8229 -13.8301 51.3021 26.6322 -7.50743 -41.1979 35.0804 -13.8301 
-41.6283 35.0804 -13.0681 -33.1801 41.3463 -13.8301 34.2225 35.0804 -13.8301 
25.9575 40.0078 -13.8301 34.4057 35.0804 -13.7215 42.8539 35.0804 -5.9042 
-30.4472 43.5286 -13.8301 -24.7318 47.0992 -13.8301 -16.2836 50.0807 -13.8301 
-7.83541 51.1126 -13.8301 0.612806 50.1362 -13.8301 9.06102 47.3198 -13.8301 
20.6908 43.5286 -13.8301 17.5092 45.0478 -13.8301 25.9575 43.5286 -9.49929 
-16.2836 51.9769 -6.58081 -7.83541 51.9769 -11.7871 0.612806 51.9769 -10.5943 
9.06102 51.9769 -5.56927 -33.1801 -42.1481 -5.3819 -24.7318 -42.3603 -5.3819 
-16.2836 -41.4595 -5.3819 -7.83541 -42.1124 -5.3819 0.612806 -44.8201 -5.3819 
9.06102 -47.357 -5.3819 17.5092 -47.7702 -5.3819 17.5092 -49.4017 2.70314 
25.9575 -46.2192 -5.3819 34.4057 -42.9427 -5.3819 -50.0765 -37.381 -5.3819 
-38.0776 -40.9535 -5.3819 -41.6283 -39.9421 -5.3819 -41.6283 -40.9535 -2.79335 
39.0019 -40.9535 -5.3819 42.8539 -38.9311 -5.3819 42.8539 -40.9535 0.305306 
51.3021 -32.9933 -5.3819 -57.5021 -32.5053 -5.3819 -58.5247 -31.4991 -5.3819 
-58.5247 -32.5053 -0.47909 51.8077 -32.5053 -5.3819 -63.7196 -24.0571 -5.3819 
-66.9729 -15.6347 -5.3819 58.5059 -24.0571 -5.3819 59.7503 -21.1224 -5.3819 
59.7503 -24.0571 -3.33443 -66.9807 -15.6089 -5.3819 -66.9729 -12.7895 -5.3819 
-66.9729 -15.6089 -5.11894 61.4943 -15.6089 -5.3819 -66.9555 -7.16066 -5.3819 
64.3987 -7.16066 -5.3819 -65.6117 1.28756 -5.3819 64.1575 1.28756 -5.3819 
-63.3287 9.73577 -5.3819 62.8317 9.73577 -5.3819 -59.552 18.184 -5.3819 
-58.5247 19.991 -5.3819 -58.5247 18.184 -1.84764 59.7929 18.184 -5.3819 
59.7503 18.2467 -5.3819 -54.1065 26.6322 -5.3819 -50.0765 31.3509 -5.3819 
52.9297 26.6322 -5.3819 51.3021 28.2509 -5.3819 -45.6613 35.0804 -5.3819 
-41.6283 37.9776 -5.3819 -41.6283 35.0804 2.91598 -33.1801 43.3075 -5.3819 
34.4057 40.8856 -5.3819 43.2679 35.0804 -5.3819 42.8539 35.3891 -5.3819 
-32.8397 43.5286 -5.3819 -24.7318 48.8892 -5.3819 17.5092 49.1676 -5.3819 
29.9048 43.5286 -5.3819 25.9575 45.6186 -5.3819 -17.0083 51.9769 -5.3819 
-16.2836 52.2356 -5.3819 -16.2836 51.9769 -4.45291 -7.83541 54.0567 -5.3819 
0.612806 53.904 -5.3819 9.28355 51.9769 -5.3819 9.06102 52.0482 -5.3819 
9.06102 51.9769 -4.9319 17.5092 -49.4607 3.06631 -41.6283 -42.8268 3.06631 
-33.1801 -44.2605 3.06631 -24.7318 -45.0298 3.06631 -16.2836 -45.3456 3.06631 
-7.83541 -46.5857 3.06631 0.612806 -47.9558 3.06631 15.0967 -49.4017 3.06631 
9.06102 -49.252 3.06631 17.9499 -49.4017 3.06631 17.5092 -49.4017 3.25519 
25.9575 -48.2881 3.06631 34.4057 -45.6152 3.06631 42.8539 -41.6511 3.06631 
-58.5247 -33.0535 3.06631 -46.3225 -40.9535 3.06631 -50.0765 -39.3394 3.06631 
-41.6283 -40.9535 7.98178 -33.1801 -40.9535 10.1834 44.0719 -40.9535 3.06631 
42.8539 -40.9535 5.17936 51.3021 -36.1983 3.06631 -59.0609 -32.5053 3.06631 
-58.5247 -32.5053 3.86099 55.7468 -32.5053 3.06631 59.7503 -27.8591 3.06631 
-64.5076 -24.0571 3.06631 62.2986 -24.0571 3.06631 -66.6935 -15.6089 3.06631 
66.0075 -15.6089 3.06631 -65.5779 -7.16066 3.06631 68.1277 -7.16066 3.06631 
-63.8595 1.28756 3.06631 -58.5247 1.28756 9.64679 67.289 1.28756 3.06631 
-61.1884 9.73577 3.06631 -58.5247 15.2505 3.06631 -58.5247 9.73577 6.49882 
65.1365 9.73577 3.06631 -56.6998 18.184 3.06631 -50.0765 18.184 10.3193 
61.4373 18.184 3.06631 59.7503 20.4143 3.06631 59.7503 18.184 7.39497 
-51.1554 26.6322 3.06631 -50.0765 27.9026 3.06631 -50.0765 26.6322 4.32092 
-41.6283 35.0229 3.06631 -41.6283 26.6322 11.11 54.1231 26.6322 3.06631 
51.3021 29.2627 3.06631 51.3021 26.6322 8.69002 -41.5459 35.0804 3.06631 
-33.1801 40.2659 3.06631 -33.1801 35.0804 9.39264 34.4057 40.6926 3.06631 
43.8646 35.0804 3.06631 42.8539 35.81 3.06631 42.8539 35.0804 4.8331 
-27.8819 43.5286 3.06631 -24.7318 45.38 3.06631 -24.7318 43.5286 5.51062 
-16.2836 49.4647 3.06631 -16.2836 43.5286 9.63484 9.06102 50.5367 3.06631 
17.5092 48.0113 3.06631 17.5092 43.5286 9.84598 28.5455 43.5286 3.06631 
25.9575 44.7084 3.06631 25.9575 43.5286 5.42599 -9.3163 51.9769 3.06631 
-7.83541 52.4018 3.06631 -7.83541 51.9769 3.81396 1.43597 51.9769 3.06631 
0.612806 52.1198 3.06631 0.612806 51.9769 3.3293 -24.7318 -41.5452 11.5145 
-16.2836 -42.3458 11.5145 -7.83541 -43.0824 11.5145 0.612806 -44.2583 11.5145 
9.06102 -45.6211 11.5145 17.5092 -45.8367 11.5145 25.9575 -44.3575 11.5145 
34.4057 -41.4134 11.5145 -50.0765 -32.7627 11.5145 -41.6283 -38.4412 11.5145 
-28.3793 -40.9535 11.5145 -33.1801 -39.9296 11.5145 -24.7318 -40.9535 12.0847 
-16.2836 -40.9535 12.8056 -7.83541 -40.9535 13.3159 0.612806 -40.9535 14.0665 
9.06102 -40.9535 15.2139 17.5092 -40.9535 15.6131 25.9575 -40.9535 14.4712 
35.6841 -40.9535 11.5145 34.4057 -40.9535 12.0594 42.8539 -38.0408 11.5145 
51.3021 -33.2079 11.5145 -50.3987 -32.5053 11.5145 -58.5247 -24.4897 11.5145 
-50.0765 -32.5053 11.703 -41.6283 -32.5053 15.8916 -33.1801 -32.5053 16.3745 
-24.7318 -32.5053 17.5538 -16.2836 -32.5053 16.8316 -7.83541 -32.5053 16.9143 
0.612806 -32.5053 17.4452 9.06102 -32.5053 18.4127 17.5092 -32.5053 19.0455 
25.9575 -32.5053 18.4688 34.4057 -32.5053 17.6682 42.8539 -32.5053 15.4834 
52.1695 -32.5053 11.5145 51.3021 -32.5053 12.1867 59.7503 -24.2304 11.5145 
-58.7698 -24.0571 11.5145 -58.5247 -24.0571 11.7304 -50.0765 -24.0571 16.4322 
[...]
POINT_DATA 556
SCALARS ImageScalars float
LOOKUP_TABLE default
0 0 0 0 0 0 0 0 0 
0 0 0 0 0 0 0 0 0 
0 0 0 0 0 0 0 0 0 
0 0 0 0 0 0 0 0 0 
0 0 0 0 0 0 0 0 0 
0 0 0 0 0 0 0 0 0 
0 0 0 0 0 0 0 0 0 
0 0 0 0 0 0 0 0 0 
0 0 0 0 0 0 0 0 0 
0 0 0 0 0 0 0 0 0 
0 0 0 0 0 0 0 0 0 
0 0 0 0 0 0 0 0 0 
0 0 0 0 0 0 0 0 0 
0 0 0 0 0 0 0 0 0 
0 0 0 0 0 0 0 0 0 
0 0 0 0 0 0 0 0 0 
0 0 0 0 0 0 0 0 0 
0 0 0 0 0 0 0 0 0 
0 0 0 0 0 0 0 0 0 
0 0 0 0 0 0 0 0 0 
0 0 0 0 0 0 0 0 0 
0 0 0 0 0 0 0 0 0 
0 0 0 0 0 0 0 0 0 
0 0 0 0 0 0 0 0 0 
0 0 0 0 0 0 0 0 0 
0 0 0 0 0 0 0 0 0 
0 0 0 0 0 0 0 0 0 
0 0 0 0 0 0 0 0 0 
0 0 0 0 0 0 0 0 0 
0 0 0 0 0 0 0 0 0 
0 0 0 0 0 0 0 0 0 
0 0 0 0 0 0 0 0 0 
0 0 0 0 0 0 0 0 0 
0 0 0 0 0 0 0 0 0 
0 0 0 0 0 0 0 0 0 
0 0 0 0 0 0 0 0 0 
0 0 0 0 0 0 0 0 0 
0 0 0 0 0 0 0 0 0 
0 0 0 0 0 0 0 0 0 
0 0 0 0 0 0 0 0 0 
0 0 0 0 0 0 0 0 0 
0 0 0 0 0 0 0 0 0 
0 0 0 0 0 0 0 0 0 
0 0 0 0 0 0 0 0 0 
0 0 0 0 0 0 0 0 0 
0 0 0 0 0 0 0 0 0 
0 0 0 0 0 0 0 0 0 
0 0 0 0 0 0 0 0 0 
0 0 0 0 0 0 0 0 0 
0 0 0 0 0 0 0 0 0 
0 0 0 0 0 0 0 0 0 
0 0 0 0 0 0 0 0 0 
0 0 0 0 0 0 0 0 0 
0 0 0 0 0 0 0 0 0 
0 0 0 0 0 0 0 0 0 
0 0 0 0 0 0 0 0 0 
0 0 0 0 0 0 0 0 0 
0 0 0 0 0 0 0 0 0 
0 0 0 0 0 0 0 0 0 
0 0 0 0 0 0 0 0 0 
0 0 0 0 0 0 0 0 0 
0 0 0 0 0 0 0 
NORMALS Normals float
0.00852093 -0.464436 -0.885566 -0.179928 -0.265178 -0.947263 -0.0204204 -0.261934 -0.96487 
0.0973855 -0.316922 -0.943439 0.231184 -0.397604 -0.887955 -0.174741 -0.395801 -0.901558 
-0.0962306 -0.300564 -0.948895 0.0156787 -0.242927 -0.969918 0.13936 -0.260471 -0.955371 
0.180475 -0.268664 -0.946176 -0.208637 -0.170241 -0.963062 -0.168513 -0.141853 -0.975439 
-0.0379758 -0.115493 -0.992582 0.0424212 -0.155895 -0.986862 0.142621 -0.200493 -0.969258 
0.298659 -0.272052 -0.914763 -0.260845 -0.117654 -0.958185 -0.0636648 -0.138802 -0.988272 
0.077644 -0.115446 -0.990275 0.135179 -0.0951437 -0.986243 0.152289 -0.103318 -0.982921 
0.0175438 -0.300002 -0.953777 -0.166325 -0.152574 -0.974196 -0.10959 -0.146211 -0.983164 
-0.0357854 -0.0684838 -0.99701 0.0160688 -0.0839452 -0.996341 0.102833 -0.115388 -0.987983 
0.232951 -0.147827 -0.961187 -0.500492 -0.0997306 -0.859978 -0.202269 -0.0490092 -0.978103 
-0.0833277 -0.0364956 -0.995854 0.0592278 -0.039616 -0.997458 0.162302 -0.021836 -0.986499 
-0.019422 -0.0452669 -0.998786 -0.0293717 -0.306338 -0.951469 -0.0601638 -0.0679773 -0.995871 
-0.0842184 -0.220909 -0.971651 0.0255694 -0.0573387 -0.998027 -0.00644266 -0.043715 -0.999023 
0.0700946 -0.0994214 -0.992573 0.179462 -0.122941 -0.976053 0.347541 -0.14022 -0.927121 
-0.548669 0.058121 -0.834017 -0.197023 -0.0187973 -0.980219 -0.0378967 -0.0576812 -0.997616 
0.0928591 -0.0454636 -0.994641 0.128927 -0.0861275 -0.987907 -0.140761 -0.13556 -0.980719 
-0.0547504 -0.0728285 -0.995841 -0.069432 -0.234572 -0.969616 -0.0417754 -0.123994 -0.991403 
0.143718 -0.0107128 -0.989561 -0.0258102 -0.0259799 -0.999329 0.0204676 -0.0557871 -0.998233 
0.202903 -0.0624919 -0.977203 0.363513 -0.019278 -0.93139 -0.303528 0.0555392 -0.951203 
-0.106341 -0.0307679 -0.993854 0.0268349 -0.128933 -0.99129 0.0755092 -0.210442 -0.974686 
-0.00620263 -0.236776 -0.971545 -0.0951364 2.50544e-05 -0.995464 -0.0971112 -0.0887258 -0.991311 
0.114563 0.113503 -0.986911 0.0942752 -0.0311693 -0.995058 -0.0544152 -0.0277279 -0.998133 
0.0327579 0.0223542 -0.999213 0.222072 0.0601102 -0.973176 0.386347 0.0937888 -0.917573 
-0.449775 0.179163 -0.874987 -0.216274 0.0641011 -0.974226 -0.105098 -0.0384506 -0.993718 
0.00870516 -0.153605 -0.988094 0.0666216 -0.212322 -0.974926 0.101103 -0.13022 -0.986317 
0.0378513 -0.0178572 -0.999124 8.90982e-05 0.0485375 -0.998821 0.0205236 -0.0686212 -0.997432 
0.0266692 0.00545365 -0.999629 0.108518 0.0972476 -0.989326 0.259862 0.217492 -0.940834 
-0.332068 0.337603 -0.88077 -0.18997 0.0943422 -0.977247 -0.097853 0.0136608 -0.995107 
0.0197729 -0.0542561 -0.998331 0.099823 -0.081171 -0.991689 0.0921144 -0.0692128 -0.99334 
0.0455876 -0.0059526 -0.998943 0.0558549 0.0304647 -0.997974 0.114557 0.0937396 -0.988984 
0.243761 0.266075 -0.932622 0.407906 0.410644 -0.815466 -0.381405 0.3851 -0.840374 
-0.146915 0.192117 -0.970313 -0.0262418 0.128558 -0.991355 0.0917051 0.0928649 -0.991447 
0.121252 0.10751 -0.986782 0.0997882 0.122785 -0.987404 0.128217 0.238418 -0.962662 
0.264675 0.381118 -0.885831 -0.356747 0.603823 -0.712832 -0.0952051 0.494932 -0.8637 
0.0623785 0.381764 -0.922152 0.138579 0.398375 -0.906694 0.184524 0.504514 -0.843455 
0.288502 0.596556 -0.748924 0.00703476 -0.488695 -0.872426 -0.102591 -0.822891 -0.558861 
0.051385 -0.768009 -0.638374 0.028722 -0.726523 -0.686542 -0.147951 -0.649353 -0.745957 
-0.256523 -0.573415 -0.778069 -0.183849 -0.330977 -0.925556 -0.177611 -0.533073 -0.827217 
0.00753457 -0.401474 -0.915839 0.0305289 -0.539653 -0.841334 0.129553 -0.399416 -0.90757 
0.216152 -0.627143 -0.748311 0.233756 -0.412218 -0.880588 0.314954 -0.717511 -0.621274 
-0.194269 -0.444308 -0.874557 -0.336271 -0.612187 -0.715646 -0.0513672 -0.468888 -0.881763 
-0.178038 -0.409126 -0.89494 -0.211701 -0.506953 -0.835573 0.0484431 -0.462792 -0.885142 
0.158981 -0.378315 -0.911923 0.158799 -0.453362 -0.877067 0.16265 -0.298062 -0.940587 
0.0800171 -0.426775 -0.900811 -0.0789897 -0.330163 -0.940613 -0.20329 -0.26916 -0.941396 
-0.210512 -0.181439 -0.960606 -0.22331 -0.282756 -0.932835 0.244255 -0.404439 -0.881345 
0.317234 -0.322391 -0.891867 0.378589 -0.499225 -0.779387 0.589884 -0.592111 -0.549037 
-0.388238 -0.357851 -0.849243 -0.534839 -0.33585 -0.77534 0.120359 -0.244536 -0.962141 
-0.176579 -0.174989 -0.968607 0.023402 -0.261359 -0.964958 0.0231526 -0.201603 -0.979194 
0.346578 -0.283122 -0.894274 0.493467 -0.354677 -0.794163 -0.941091 -0.157454 -0.29926 
-0.500868 -0.0717546 -0.862544 -0.515739 -0.0786378 -0.853129 -0.552482 -0.0724482 -0.83037 
0.337678 -0.20823 -0.91794 0.361074 -0.201405 -0.910528 0.379237 -0.232303 -0.895665 
0.71104 -0.245975 -0.658725 -0.529416 -0.0885279 -0.843731 0.424129 -0.147155 -0.893566 
0.624669 -0.139934 -0.768249 -0.619427 0.0750965 -0.781454 -0.622279 0.172767 -0.763492 
0.485977 -0.0172576 -0.873801 0.674524 0.0138409 -0.738123 -0.611791 0.203325 -0.764441 
-0.679336 0.237989 -0.694164 0.493089 0.147646 -0.857359 0.498729 0.301962 -0.812458 
0.73893 0.207377 -0.641076 -0.669508 0.273762 -0.690517 -0.874233 0.441642 -0.201665 
-0.606533 0.497612 -0.620081 0.498405 0.320408 -0.805563 0.519491 0.333329 -0.786779 
0.79852 0.452594 -0.396894 -0.595935 0.519672 -0.612211 -0.636893 0.553294 -0.536873 
-0.540276 0.599268 -0.590744 0.409452 0.531786 -0.741318 0.438585 0.431767 -0.788176 
0.4279 0.449815 -0.783944 0.654636 0.621158 -0.43083 -0.543382 0.605487 -0.581482 
-0.557563 0.636917 -0.53241 -0.529167 0.700843 -0.478332 0.409424 0.533679 -0.739972 
0.363695 0.581322 -0.727867 0.414234 0.539678 -0.732911 0.572277 0.765745 -0.293485 
-0.504072 0.73697 -0.450318 -0.408965 0.790108 -0.456593 -0.211772 0.833386 -0.51051 
-0.00765718 0.837476 -0.54642 0.168241 0.730696 -0.661648 0.235036 0.685212 -0.689379 
0.334006 0.645021 -0.687305 0.293967 0.673611 -0.678109 0.437332 0.801709 -0.407435 
-0.280312 0.959135 -0.0385452 -0.0358456 0.913196 -0.405942 0.145573 0.903584 -0.402919 
0.269777 0.95553 -0.119095 -0.125512 -0.858903 -0.496521 0.0315765 -0.82213 -0.568423 
0.0220315 -0.747836 -0.663518 -0.15577 -0.701098 -0.695843 -0.255169 -0.749375 -0.611004 
-0.140502 -0.864577 -0.482458 0.0556856 -0.895977 -0.440595 0.0546866 -0.996949 0.0556889 
0.239428 -0.846382 -0.475722 0.345291 -0.786423 -0.512165 -0.365678 -0.807255 -0.463269 
-0.196417 -0.862336 -0.466687 -0.236449 -0.858228 -0.455562 -0.263377 -0.918817 -0.293951 
0.399184 -0.771797 -0.494956 0.443874 -0.741507 -0.503134 0.477115 -0.871309 -0.114817 
0.594929 -0.608832 -0.524769 -0.621295 -0.663026 -0.417599 -0.664512 -0.632741 -0.39757 
-0.719089 -0.693158 -0.0494312 0.603004 -0.59851 -0.527421 -0.839742 -0.417947 -0.346632 
-0.941132 -0.158115 -0.298781 0.676924 -0.426752 -0.599714 0.722553 -0.356874 -0.592079 
0.761852 -0.461989 -0.454035 -0.941307 -0.15732 -0.298649 -0.96155 -0.0765198 -0.263756 
-0.94695 -0.155698 -0.281146 0.760053 -0.245928 -0.60153 -0.978329 0.0801382 -0.19092 
0.775677 -0.131467 -0.617286 -0.970349 0.210499 -0.118794 0.827814 0.0817706 -0.555011 
-0.941853 0.319526 -0.103996 0.867136 0.242089 -0.435279 -0.88165 0.467063 -0.0674159 
-0.865502 0.497853 -0.0552199 -0.863884 0.483726 0.140402 0.799752 0.452845 -0.394118 
0.799195 0.454262 -0.393616 -0.77574 0.630477 -0.0269442 -0.693016 0.720502 -0.0246262 
0.688735 0.646896 -0.327367 0.664626 0.676584 -0.317028 -0.618923 0.785451 -0.000914756 
-0.581119 0.813771 0.00879628 -0.516658 0.741645 0.427818 -0.537001 0.840745 0.0691222 
0.522436 0.825326 -0.214235 0.576875 0.7714 -0.268622 0.573469 0.774429 -0.267195 
-0.535224 0.841651 0.0718228 -0.456718 0.885354 0.0869263 0.35261 0.926881 -0.128675 
0.474485 0.861786 -0.179415 0.433977 0.886788 -0.15897 -0.298946 0.953634 0.0348368 
-0.284456 0.958247 0.0291089 -0.29737 0.95195 0.0732313 -0.0891223 0.99465 -0.0522343 
0.116169 0.991177 -0.0638151 0.271184 0.956331 -0.109045 0.268949 0.957008 -0.108641 
0.268287 0.959418 -0.0868331 0.0542761 -0.995747 0.0744504 -0.279546 -0.959541 0.0336918 
-0.130526 -0.988919 0.0707318 -0.0638094 -0.997858 0.0144283 -0.0928075 -0.994695 -0.0443718 
-0.15611 -0.986554 -0.0483719 -0.158045 -0.987341 0.0133731 0.0136855 -0.997306 0.0720592 
-0.0889002 -0.993855 0.0659454 0.0630213 -0.995234 0.0744185 0.0546572 -0.994933 0.0843894 
0.22497 -0.971493 0.0747675 0.359621 -0.931278 0.0582596 0.469739 -0.882144 0.0341714 
-0.709091 -0.680226 0.185697 -0.36796 -0.92691 0.0737767 -0.449858 -0.883778 0.128704 
-0.280009 -0.874796 0.395383 -0.123712 -0.82206 0.5558 0.488611 -0.871968 0.0305183 
0.460374 -0.874647 0.151815 0.615236 -0.78834 -0.00214439 -0.72265 -0.667369 0.179988 
-0.704839 -0.674351 0.220118 0.698722 -0.714713 -0.0311881 0.805695 -0.590362 -0.0482475 
-0.909653 -0.338574 0.240621 0.859707 -0.508517 -0.0481042 -0.950667 -0.07585 0.300796 
0.950428 -0.302351 -0.0725997 -0.909587 0.156151 0.385057 0.996155 -0.0742997 -0.0464099 
-0.880334 0.238187 0.410217 -0.631107 0.259984 0.73083 0.986438 0.16364 -0.0127503 
-0.822252 0.363271 0.438105 -0.779768 0.425822 0.458952 -0.700615 0.344606 0.624808 
0.940489 0.338753 0.026949 -0.759053 0.454964 0.465668 -0.581808 0.330559 0.743122 
0.839916 0.536194 0.0838951 0.807059 0.582998 0.0936448 0.766377 0.551542 0.329345 
-0.696155 0.552831 0.457981 -0.676213 0.578902 0.45564 -0.671954 0.54577 0.500612 
-0.514832 0.73838 0.435595 -0.438296 0.481745 0.758827 0.700057 0.703349 0.123369 
0.652391 0.746056 0.133363 0.613319 0.668986 0.419878 -0.513876 0.739147 0.435422 
-0.46705 0.754837 0.460528 -0.371516 0.641956 0.670722 0.462676 0.85953 0.217114 
0.560074 0.81366 0.155804 0.550184 0.819924 0.158183 0.541092 0.806643 0.237795 
-0.447493 0.761122 0.469514 -0.416457 0.773801 0.477279 -0.406607 0.72583 0.554835 
-0.357397 0.808955 0.466753 -0.300578 0.619563 0.725117 0.222622 0.909297 0.351593 
0.308135 0.894015 0.325255 0.224468 0.72264 0.653762 0.414451 0.874655 0.251414 
0.389426 0.880777 0.269406 0.362188 0.855934 0.369049 -0.170499 0.901134 0.398607 
-0.124046 0.913755 0.386865 -0.129138 0.898545 0.419452 0.112134 0.92253 0.369275 
0.0998471 0.922947 0.371752 0.0993064 0.918831 0.381952 -0.109254 -0.74331 0.659965 
-0.0779777 -0.751981 0.654556 -0.0913131 -0.723051 0.684733 -0.118587 -0.713456 0.690592 
-0.0695793 -0.755765 0.651136 0.0577695 -0.769784 0.635685 0.199709 -0.7443 0.637287 
0.288696 -0.741567 0.605585 -0.412286 -0.513719 0.752405 -0.26306 -0.676857 0.687505 
-0.113287 -0.744494 0.657947 -0.119919 -0.729345 0.673554 -0.103041 -0.717591 0.6888 
-0.0687234 -0.678215 0.731643 -0.0715819 -0.603741 0.79396 -0.106126 -0.542781 0.833142 
-0.0850245 -0.519942 0.84996 0.0366465 -0.536478 0.843118 0.153881 -0.607601 0.779193 
0.300748 -0.741791 0.599414 0.280164 -0.723128 0.631343 0.355347 -0.707144 0.61129 
0.512233 -0.659882 0.549702 -0.413264 -0.509795 0.754534 -0.583846 -0.33561 0.73925 
-0.40747 -0.502272 0.762686 -0.231976 -0.417414 0.878609 -0.0834286 -0.353942 0.931539 
-0.0229965 -0.342381 0.93928 0.0325161 -0.293249 0.955483 -0.0350851 -0.249273 0.967797 
-0.0855419 -0.234 0.968466 -0.0897755 -0.241737 0.96618 -0.000921436 -0.259234 0.965814 
0.07137 -0.276897 0.958245 0.178794 -0.342473 0.922358 0.271937 -0.486297 0.830401 
0.529428 -0.648289 0.5472 0.502376 -0.641331 0.579925 0.701087 -0.472987 0.533629 
-0.591083 -0.3179 0.741324 -0.583588 -0.315598 0.748213 -0.333271 -0.22074 0.916627 
-0.0923349 -0.161067 0.982615 -0.0718924 -0.166976 0.983336 -0.00159382 -0.0753411 0.997157 
0.0585441 -0.0909524 0.994133 -0.00456353 -0.0866708 0.996227 -0.10319 -0.062485 0.992697 
-0.119794 -0.0790768 0.989645 0.0457238 -0.0995941 0.993977 0.0334165 -0.195493 0.980136 
0.164915 -0.280964 0.945443 0.368289 -0.354042 0.859662 0.704068 -0.469544 0.532744 
0.698416 -0.469163 0.540464 -0.656355 -0.0446792 0.753128 -0.538858 -0.0390088 0.841493 
-0.315986 0.0350689 0.948116 -0.176283 -0.0494921 0.983094 0.00752124 -0.0329726 0.999428 
0.0531213 0.0166553 0.998449 0.0335429 -0.0455155 0.9984 -0.00573276 -0.140221 0.990104 
-0.0820778 -0.0538758 0.995169 -0.0735083 -0.11174 0.991015 -0.0219513 0.114217 0.993213 
0.243407 -0.204746 0.948067 0.777428 -0.290276 0.557983 0.613451 -0.279192 0.738735 
-0.639822 0.192628 0.743991 -0.594602 0.230366 0.770312 -0.589272 0.189446 0.78541 
-0.343003 0.0914781 0.934869 -0.179841 0.0971727 0.978884 -0.00281823 0.0425469 0.99909 
-0.0126263 0.0219309 0.99968 -0.104621 -0.0691498 0.992105 -0.0717445 -0.0522679 0.996053 
0.111465 0.113889 0.987221 -0.134847 0.0438117 0.989897 0.828903 -0.0557043 0.556612 
0.524409 -0.0527076 0.849833 -0.516691 0.251479 0.818407 -0.388625 0.174819 0.90466 
-0.205164 0.133173 0.969625 -0.0698092 0.050351 0.996289 -0.0563689 0.0137006 0.998316 
-0.135895 0.0398855 0.98992 -0.00428185 -0.0482592 0.998826 0.0670482 0.0119097 0.997679 
-0.167399 -0.00744513 0.985861 0.219057 0.113361 0.969104 0.789163 0.179933 0.587236 
0.589953 0.16661 0.790061 -0.489765 0.223538 0.84271 -0.523115 0.26271 0.810761 
-0.46764 0.207199 0.859291 -0.284369 0.143719 0.947881 -0.126496 0.0957024 0.98734 
-0.0260107 0.0535033 0.998229 -0.0372008 0.122931 0.991718 -0.0967081 0.190805 0.976853 
0.0868084 0.164297 0.982584 -0.135624 -0.0628988 0.988762 -0.133429 -0.0269076 0.990693 
0.298522 0.185004 0.9363 0.770463 0.320319 0.551165 0.698354 0.438983 0.565328 
0.670491 0.315662 0.671416 -0.524665 0.304651 0.79493 -0.42787 0.456899 0.779853 
-0.347496 0.245903 0.904864 -0.161471 0.186188 0.969155 -0.028254 0.1322 0.99082 
-0.0046726 0.093493 0.995609 -0.0486985 0.0691919 0.996414 0.00421899 0.0913299 0.995812 
-0.0368726 -0.0336234 0.998754 -0.127499 0.00154547 0.991837 -0.0602207 0.053811 0.996734 
0.0461269 0.127264 0.990796 0.182686 0.26107 0.947876 0.62839 0.517638 0.58067 
0.554579 0.592012 0.584776 0.46123 0.4192 0.782009 -0.418546 0.468388 0.778095 
-0.325428 0.543232 0.773948 -0.253475 0.371188 0.893292 -0.128588 0.28394 0.950181 
-0.0964227 0.145948 0.984582 -0.0882495 0.0819418 0.992722 -0.00567514 0.081056 0.996693 
0.000167962 0.0746698 0.997208 -0.0429829 0.165732 0.985234 0.00675268 0.26919 0.963063 
0.189642 0.375918 0.90704 0.525068 0.605755 0.597799 0.444099 0.651769 0.614795 
0.384676 0.519433 0.76303 -0.291708 0.536718 0.791732 -0.274334 0.518503 0.809874 
-0.249441 0.481255 0.840341 -0.273931 0.526012 0.805154 -0.216115 0.355181 0.909473 
-0.110906 0.281149 0.953234 -0.00547381 0.278076 0.960543 0.0558698 0.29546 0.95372 
0.185879 0.639101 0.746324 0.087349 0.421742 0.902499 0.246523 0.686416 0.684149 
0.176358 0.534834 0.826348 0.357316 0.68831 0.631311 0.340999 0.689571 0.638915 
0.328111 0.672337 0.663555 -0.22172 0.563632 0.795713 -0.16814 0.586018 0.792661 
-0.167593 0.537373 0.826524 0.0329137 0.630582 0.775425 0.0151445 0.545186 0.838179 
0.171522 0.647211 0.742764 0.157153 0.645787 0.74717 0.15031 0.616826 0.772614 
-0.00777588 -0.114739 0.993365 -0.0763214 -0.063853 0.995037 0.0353102 -0.0897356 0.99534 
-0.0197435 0.0744897 0.997026 -0.0131144 -0.041398 0.999057 0.00548541 -0.0633446 0.997977 
0.021422 -0.166872 0.985746 0.133637 -0.166407 0.976959 -0.0104632 -0.149588 0.988693 
-0.0639707 -0.110063 0.991864 -0.0477328 0.0737841 0.996131 -0.101421 0.026716 0.994485 
-0.0833889 0.0174632 0.996364 -0.00909297 -0.0681541 0.997633 0.153627 -0.135693 0.978768 
0.116356 -0.102233 0.987932 0.198892 -0.101276 0.974774 -0.0423032 -0.125463 0.991196 
-0.0353638 -0.115262 0.992705 -0.0119839 -0.151835 0.988333 -0.0384755 -0.0625156 0.997302 
0.0882185 0.0250258 0.995787 0.0523398 -0.092632 0.994324 -0.121075 0.0391502 0.991871 
-0.0921672 0.0305071 0.995276 0.0190488 -0.0395376 0.999036 0.239377 -0.0442148 0.969919 
0.21239 0.0907905 0.972958 0.180983 -0.0411182 0.982626 -0.0947498 0.0507686 0.994206 
-0.00449927 -0.00546472 0.999975 -0.0517783 0.138054 0.98907 0.00604064 0.0730295 0.997311 
0.0248017 0.0521762 0.99833 0.0844118 0.0401342 0.995622 0.106705 0.187429 0.976465 
0.109874 0.265062 0.957951 0.11148 0.280424 0.95338 -0.135954 0.00262195 0.990712 
-0.0911572 0.0170692 0.99569 0.206101 0.110116 0.972315 0.0447425 0.0616966 0.997092 
0.0768418 0.0909519 0.992886 0.114176 0.077808 0.990409 0.103359 0.07274 0.991981 
0.113488 0.0701314 0.991061 -0.0957321 -0.0019568 0.995405 0.0429241 0.123484 0.991418 
-0.0209621 0.0447679 0.998777 0.128838 0.115303 0.98494 0.122733 0.127579 0.984205 
0.116668 0.111861 0.986851 
