# vtk DataFile Version 4.2
vtk output
ASCII
DATASET POLYDATA
POINTS 506 float
-20.8947 -19.6675 -16.4972 -13.759 -19.6675 -16.5788 -6.62337 -19.6675 -15.6289 
14.7836 -19.6675 -16.2074 21.9193 -19.6675 -16.5284 -35.166 -12.5319 -15.6362 
-28.0304 -12.5319 -17.9066 -20.8947 -12.5319 -18.6723 -13.759 -12.5319 -18.8187 
-6.62337 -12.5319 -18.2006 0.51229 -12.5319 -17.6994 7.64795 -12.5319 -17.3664 
14.7836 -12.5319 -17.4725 21.9193 -12.5319 -17.9372 29.0549 -12.5319 -17.4948 
36.1906 -12.5319 -16.4214 -35.166 -5.3962 -17.2006 -28.0304 -5.3962 -19.1225 
-20.8947 -5.3962 -19.693 -13.759 -5.3962 -20.616 -6.62337 -5.3962 -20.4633 
0.51229 -5.3962 -19.1647 7.64795 -5.3962 -19.9951 14.7836 -5.3962 -18.9184 
21.9193 -5.3962 -18.3405 29.0549 -5.3962 -18.1082 36.1906 -5.3962 -17.2746 
-35.166 1.73946 -18.3377 -28.0304 1.73946 -19.6403 -20.8947 1.73946 -20.2123 
-13.759 1.73946 -21.3951 -6.62337 1.73946 -22.0799 0.51229 1.73946 -19.8385 
7.64795 1.73946 -20.3472 14.7836 1.73946 -19.4025 21.9193 1.73946 -18.684 
29.0549 1.73946 -18.3702 36.1906 1.73946 -17.4098 -35.166 8.87512 -18.1309 
-28.0304 8.87512 -20.0736 -20.8947 8.87512 -20.408 -13.759 8.87512 -21.294 
-6.62337 8.87512 -22.5274 0.51229 8.87512 -21.8807 7.64795 8.87512 -20.6415 
14.7836 8.87512 -20.0273 21.9193 8.87512 -19.4901 29.0549 8.87512 -18.6464 
36.1906 8.87512 -17.0228 -35.166 16.0108 -16.5622 -28.0304 16.0108 -18.8535 
-20.8947 16.0108 -19.9636 -13.759 16.0108 -20.6071 -6.62337 16.0108 -21.5831 
0.51229 16.0108 -22.0358 7.64795 16.0108 -21.349 14.7836 16.0108 -20.733 
21.9193 16.0108 -19.9839 29.0549 16.0108 -18.835 36.1906 16.0108 -16.4846 
-28.0304 23.1464 -16.1926 -20.8947 23.1464 -18.5573 -13.759 23.1464 -19.581 
-6.62337 23.1464 -20.4503 0.51229 23.1464 -21.05 7.64795 23.1464 -20.5984 
14.7836 23.1464 -20.2048 21.9193 23.1464 -19.2764 29.0549 23.1464 -17.4082 
-13.759 30.2821 -16.3498 -6.62337 30.2821 -17.6796 0.51229 30.2821 -18.1464 
7.64795 30.2821 -17.5801 14.7836 30.2821 -16.5833 21.9193 30.2821 -15.5592 
-13.759 -33.9389 -9.06111 -6.62337 -33.9389 -10.0886 0.51229 -33.9389 -10.0767 
7.64795 -33.9389 -9.42504 -28.0304 -26.8032 -10.1358 -20.8947 -21.9172 -15.4842 
-20.8947 -26.8032 -12.9856 -13.759 -22.3275 -15.4842 -13.759 -26.8032 -13.5218 
-6.62337 -20.2124 -15.4842 -6.62337 -26.8032 -13.6618 0.51229 -26.8032 -13.5593 
7.64795 -26.8032 -13.7018 14.7836 -21.985 -15.4842 14.7836 -26.8032 -13.8287 
21.9193 -22.352 -15.4842 21.9193 -26.8032 -13.2289 29.0549 -26.8032 -10.1246 
-35.166 -12.8769 -15.4842 -35.166 -19.6675 -11.4681 -27.0222 -19.6675 -15.4842 
-28.0304 -19.2431 -15.4842 -28.0304 -19.6675 -15.2912 -4.18583 -19.6675 -15.4842 
0.51229 -18.8554 -15.4842 0.51229 -19.6675 -15.2091 8.529 -19.6675 -15.4842 
7.64795 -19.2703 -15.4842 7.64795 -19.6675 -15.3831 27.6588 -19.6675 -15.4842 
29.0549 -18.8856 -15.4842 29.0549 -19.6675 -15.1793 36.1906 -14.7258 -15.4842 
36.1906 -19.6675 -12.4353 -35.4595 -12.5319 -15.4842 -42.3017 -12.5319 -10.3318 
38.4216 -12.5319 -15.4842 43.3263 -12.5319 -12.8519 -38.5852 -5.3962 -15.4842 
-42.3017 -5.3962 -13.1924 42.2801 -5.3962 -15.4842 43.3263 -5.3962 -15.1486 
50.4619 -5.3962 -10.1425 -40.8337 1.73946 -15.4842 -42.3017 1.73946 -14.5926 
42.2087 1.73946 -15.4842 43.3263 1.73946 -15.106 50.4619 1.73946 -10.1276 
-40.0058 8.87512 -15.4842 -42.3017 8.87512 -13.9045 40.1058 8.87512 -15.4842 
43.3263 8.87512 -13.9841 -36.8065 16.0108 -15.4842 -42.3017 16.0108 -9.60393 
-35.166 18.0334 -15.4842 38.563 16.0108 -15.4842 36.1906 19.2851 -15.4842 
43.3263 16.0108 -12.5039 -29.4062 23.1464 -15.4842 -35.166 23.1464 -11.2003 
-28.0304 24.2187 -15.4842 -20.8947 28.7706 -15.4842 33.2929 23.1464 -15.4842 
29.0549 26.4753 -15.4842 36.1906 23.1464 -13.7524 -28.0304 30.2821 -9.35109 
-17.2125 30.2821 -15.4842 -20.8947 30.2821 -14.1695 -13.759 31.3879 -15.4842 
-6.62337 32.9392 -15.4842 0.51229 33.1881 -15.4842 7.64795 32.4318 -15.4842 
14.7836 31.3843 -15.4842 22.1267 30.2821 -15.4842 21.9193 30.3548 -15.4842 
29.0549 30.2821 -11.8605 -6.62337 37.4178 -8.89383 -13.759 -34.7133 -8.3485 
-6.62337 -36.0884 -8.3485 0.51229 -35.9292 -8.3485 7.64795 -35.0585 -8.3485 
-28.0304 -28.5541 -8.3485 -16.5217 -33.9389 -8.3485 -20.8947 -32.5739 -8.3485 
-20.8947 -33.9389 -6.30842 14.7003 -33.9389 -8.3485 14.7836 -33.9242 -8.3485 
14.7836 -33.9389 -8.3248 21.9193 -31.7633 -8.3485 21.9193 -33.9389 -2.72168 
29.0549 -28.2557 -8.3485 -30.5753 -26.8032 -8.3485 -35.166 -23.1621 -8.3485 
-35.166 -26.8032 -1.75074 31.418 -26.8032 -8.3485 36.1906 -23.6016 -8.3485 
-38.6009 -19.6675 -8.3485 -42.3017 -15.048 -8.3485 41.8737 -19.6675 -8.3485 
43.3263 -18.4527 -8.3485 43.3263 -19.6675 -5.43579 -43.8637 -12.5319 -8.3485 
48.5704 -12.5319 -8.3485 50.4619 -8.92054 -8.3485 50.4619 -12.5319 -3.40514 
-46.6794 -5.3962 -8.3485 51.8941 -5.3962 -8.3485 -47.9164 1.73946 -8.3485 
-49.4373 1.73946 -3.63218 51.8362 1.73946 -8.3485 50.4619 6.61182 -8.3485 
-46.735 8.87512 -8.3485 49.6343 8.87512 -8.3485 50.4619 8.87512 -5.4156 
-43.1329 16.0108 -8.3485 -42.3017 17.1162 -8.3485 46.76 16.0108 -8.3485 
43.3263 20.9108 -8.3485 -37.3163 23.1464 -8.3485 -35.166 25.244 -8.3485 
41.4877 23.1464 -8.3485 36.1906 28.7313 -8.3485 43.3263 23.1464 -1.93601 
-28.8963 30.2821 -8.3485 -28.0304 30.9123 -8.3485 -20.8947 34.485 -8.3485 
-13.759 36.9709 -8.3485 0.51229 37.2292 -8.3485 7.64795 36.0975 -8.3485 
14.7836 35.0894 -8.3485 21.9193 34.0215 -8.3485 33.705 30.2821 -8.3485 
29.0549 32.3619 -8.3485 -9.54771 37.4178 -8.3485 -13.759 37.4178 -5.82562 
-2.34831 37.4178 -8.3485 -6.62337 37.6885 -8.3485 0.51229 37.4178 -6.69844 
-20.8947 -36.4572 -1.21284 -13.759 -39.2278 -1.21284 -6.62337 -40.7868 -1.21284 
0.51229 -40.485 -1.21284 7.64795 -39.155 -1.21284 14.7836 -37.2506 -1.21284 
21.9193 -34.4504 -1.21284 -35.166 -27.0436 -1.21284 -25.4796 -33.9389 -1.21284 
-28.0304 -32.3743 -1.21284 22.8659 -33.9389 -1.21284 29.0549 -30.4472 -1.21284 
-35.4365 -26.8032 -1.21284 34.8844 -26.8032 -1.21284 36.1906 -25.9283 -1.21284 
43.3263 -20.9121 -1.21284 -42.2138 -19.6675 -1.21284 -42.3017 -19.5471 -1.21284 
-42.3017 -19.6675 4.54675 44.8047 -19.6675 -1.21284 43.3263 -19.6675 3.62494 
50.4619 -13.4111 -1.21284 -46.5376 -12.5319 -1.21284 51.0819 -12.5319 -1.21284 
50.4619 -12.5319 1.07899 -49.2361 -5.3962 -1.21284 -49.4373 -3.73259 -1.21284 
53.7325 -5.3962 -1.21284 -50.0992 1.73946 -1.21284 -49.4373 5.48361 -1.21284 
-49.4373 1.73946 4.44361 53.5787 1.73946 -1.21284 50.4619 1.73946 4.97472 
-48.7766 8.87512 -1.21284 51.3833 8.87512 -1.21284 50.4619 11.2629 -1.21284 
50.4619 8.87512 1.46608 -45.1136 16.0108 -1.21284 -42.3017 19.7177 -1.21284 
48.2947 16.0108 -1.21284 -39.2631 23.1464 -1.21284 -35.166 27.1795 -1.21284 
36.1906 30.0617 -1.21284 43.4912 23.1464 -1.21284 43.3263 23.3393 -1.21284 
43.3263 23.1464 -0.783455 -31.4146 30.2821 -1.21284 -28.0304 32.7306 -1.21284 
-20.8947 36.2282 -1.21284 7.64795 36.5248 -1.21284 14.7836 35.2024 -1.21284 
21.9193 34.3609 -1.21284 35.7722 30.2821 -1.21284 29.0549 33.1574 -1.21284 
-16.5145 37.4178 -1.21284 -13.759 38.1143 -1.21284 -13.759 37.4178 3.22483 
-6.62337 38.747 -1.21284 -6.62337 37.4178 4.96593 3.36352 37.4178 -1.21284 
0.51229 38.0053 -1.21284 0.51229 37.4178 1.54109 -20.8947 -36.6151 5.92282 
-13.759 -39.3659 5.92282 -6.62337 -40.864 5.92282 0.51229 -40.8138 5.92282 
7.64795 -39.6102 5.92282 14.7836 -37.4959 5.92282 21.9193 -34.2457 5.92282 
-35.166 -27.2642 5.92282 -25.709 -33.9389 5.92282 -28.0304 -32.4959 5.92282 
-20.8947 -33.9389 11.2285 22.4414 -33.9389 5.92282 21.9193 -33.9389 6.65312 
29.0549 -29.7303 5.92282 -35.6872 -26.8032 5.92282 -42.3017 -19.6916 5.92282 
-35.166 -26.8032 7.05758 33.3498 -26.8032 5.92282 29.0549 -26.8032 10.8963 
36.1906 -24.684 5.92282 -42.3209 -19.6675 5.92282 -42.3017 -19.6675 5.97188 
42.4628 -19.6675 5.92282 36.1906 -19.6675 11.9983 43.3263 -18.7889 5.92282 
-46.4478 -12.5319 5.92282 48.6673 -12.5319 5.92282 43.3263 -12.5319 10.4514 
50.4619 -7.06979 5.92282 -48.7426 -5.3962 5.92282 43.3263 -5.3962 12.0236 
50.9085 -5.3962 5.92282 50.4619 -2.26929 5.92282 50.4619 -5.3962 6.59032 
-49.2591 1.73946 5.92282 49.743 1.73946 5.92282 43.3263 1.73946 10.8758 
-48.1906 8.87512 5.92282 36.1906 8.87512 12.4107 48.0705 8.87512 5.92282 
43.3263 8.87512 9.22092 -44.6516 16.0108 5.92282 -42.3017 19.3767 5.92282 
-42.3017 16.0108 10.8651 36.1906 16.0108 11.8476 44.2673 16.0108 5.92282 
43.3263 17.5934 5.92282 43.3263 16.0108 6.73173 -39.2506 23.1464 5.92282 
-35.166 27.2563 5.92282 29.0549 23.1464 13.0122 39.6579 23.1464 5.92282 
36.1906 26.4922 5.92282 36.1906 23.1464 8.90752 -31.2747 30.2821 5.92282 
-28.0304 32.4095 5.92282 -28.0304 30.2821 10.4449 -20.8947 35.4479 5.92282 
-13.759 36.944 5.92282 -6.62337 37.1801 5.92282 0.51229 36.3421 5.92282 
7.64795 34.6928 5.92282 7.64795 30.2821 11.9169 14.7836 33.3321 5.92282 
14.7836 30.2821 10.6751 21.9193 32.392 5.92282 21.9193 30.2821 9.32825 
30.0318 30.2821 5.92282 29.0549 30.7305 5.92282 29.0549 30.2821 6.56321 
-13.759 -35.0366 13.0585 -6.62337 -36.8127 13.0585 0.51229 -37.2696 13.0585 
7.64795 -36.3631 13.0585 14.7836 -34.1971 13.0585 -28.0304 -29.0629 13.0585 
-17.1588 -33.9389 13.0585 -20.8947 -32.6238 13.0585 -13.759 -33.9389 14.0398 
-6.62337 -33.9389 15.5718 0.51229 -33.9389 16.0786 7.64795 -33.9389 15.4059 
15.3588 -33.9389 13.0585 14.7836 -33.9389 13.3221 21.9193 -30.1179 13.0585 
-31.379 -26.8032 13.0585 -35.166 -23.7017 13.0585 -28.0304 -26.8032 15.39 
-20.8947 -26.8032 17.8398 -13.759 -26.8032 18.4538 -6.62337 -26.8032 19.0562 
0.51229 -26.8032 18.7359 7.64795 -26.8032 18.5256 14.7836 -26.8032 17.2377 
26.6658 -26.8032 13.0585 21.9193 -26.8032 15.3991 29.0549 -24.6673 13.0585 
-38.9148 -19.6675 13.0585 -42.3017 -14.2748 13.0585 -35.166 -19.6675 16.452 
0.51229 -19.6675 19.7182 7.64795 -19.6675 18.5899 14.7836 -19.6675 18.0101 
21.9193 -19.6675 17.1897 34.6804 -19.6675 13.0585 29.0549 -19.6675 15.5578 
36.1906 -17.1499 13.0585 -43.2078 -12.5319 13.0585 -42.3017 -12.5319 14.1523 
-35.166 -12.5319 19.7369 7.64795 -12.5319 18.0219 14.7836 -12.5319 17.468 
[...]
POINT_DATA 506
SCALARS ImageScalars float
LOOKUP_TABLE default
0 0 0 0 0 0 0 0 0 
0 0 0 0 0 0 0 0 0 
0 0 0 0 0 0 0 0 0 
0 0 0 0 0 0 0 0 0 
0 0 0 0 0 0 0 0 0 
0 0 0 0 0 0 0 0 0 
0 0 0 0 0 0 0 0 0 
0 0 0 0 0 0 0 0 0 
0 0 0 0 0 0 0 0 0 
0 0 0 0 0 0 0 0 0 
0 0 0 0 0 0 0 0 0 
0 0 0 0 0 0 0 0 0 
0 0 0 0 0 0 0 0 0 
0 0 0 0 0 0 0 0 0 
0 0 0 0 0 0 0 0 0 
0 0 0 0 0 0 0 0 0 
0 0 0 0 0 0 0 0 0 
0 0 0 0 0 0 0 0 0 
0 0 0 0 0 0 0 0 0 
0 0 0 0 0 0 0 0 0 
0 0 0 0 0 0 0 0 0 
0 0 0 0 0 0 0 0 0 
0 0 0 0 0 0 0 0 0 
0 0 0 0 0 0 0 0 0 
0 0 0 0 0 0 0 0 0 
0 0 0 0 0 0 0 0 0 
0 0 0 0 0 0 0 0 0 
0 0 0 0 0 0 0 0 0 
0 0 0 0 0 0 0 0 0 
0 0 0 0 0 0 0 0 0 
0 0 0 0 0 0 0 0 0 
0 0 0 0 0 0 0 0 0 
0 0 0 0 0 0 0 0 0 
0 0 0 0 0 0 0 0 0 
0 0 0 0 0 0 0 0 0 
0 0 0 0 0 0 0 0 0 
0 0 0 0 0 0 0 0 0 
0 0 0 0 0 0 0 0 0 
0 0 0 0 0 0 0 0 0 
0 0 0 0 0 0 0 0 0 
0 0 0 0 0 0 0 0 0 
0 0 0 0 0 0 0 0 0 
0 0 0 0 0 0 0 0 0 
0 0 0 0 0 0 0 0 0 
0 0 0 0 0 0 0 0 0 
0 0 0 0 0 0 0 0 0 
0 0 0 0 0 0 0 0 0 
0 0 0 0 0 0 0 0 0 
0 0 0 0 0 0 0 0 0 
0 0 0 0 0 0 0 0 0 
0 0 0 0 0 0 0 0 0 
0 0 0 0 0 0 0 0 0 
0 0 0 0 0 0 0 0 0 
0 0 0 0 0 0 0 0 0 
0 0 0 0 0 0 0 0 0 
0 0 0 0 0 0 0 0 0 
0 0 
NORMALS Normals float
0.080662 0.361966 0.928695 -0.0576394 0.344966 0.936844 -0.0922025 0.287253 0.953407 
0.0783668 0.235761 0.968646 -0.0617824 0.293647 0.953915 0.402422 0.304086 0.863475 
0.198402 0.241468 0.949911 0.064355 0.212733 0.974989 -0.0298847 0.279255 0.959752 
-0.0761583 0.329579 0.941051 -0.0553408 0.281714 0.957901 -0.0147527 0.32163 0.94675 
0.0413263 0.186659 0.981555 -0.000719518 0.126407 0.991978 -0.107347 0.18564 0.976737 
-0.283178 0.260918 0.922893 0.343895 0.17312 0.922911 0.160556 0.123788 0.979234 
0.102687 0.104947 0.989162 0.0537849 0.176758 0.982784 -0.102087 0.252362 0.962232 
-0.0296807 0.138569 0.989908 -0.0136141 0.195416 0.980626 -0.116379 0.133573 0.984182 
-0.0546065 0.0536368 0.997066 -0.0724417 0.0634267 0.995354 -0.188396 0.0702523 0.979577 
0.299622 0.0598951 0.952176 0.11893 0.0626178 0.990926 0.123887 0.0494348 0.991064 
0.129799 0.0481561 0.99037 -0.101659 0.143441 0.984424 -0.117184 0.193005 0.974175 
-0.0311212 0.0449517 0.998504 -0.116848 0.0760187 0.990236 -0.0700822 0.0794825 0.99437 
-0.0873713 0.036629 0.995502 -0.21401 -0.0171892 0.97668 0.351867 -0.113952 0.929088 
0.141135 -0.0480607 0.988823 0.0827455 -0.0165733 0.996433 0.148557 -0.0545383 0.987399 
0.0406707 -0.0359569 0.998525 -0.132328 0.14518 0.980516 -0.125297 0.0687253 0.989736 
-0.080602 0.0922234 0.992471 -0.0928031 0.0905189 0.991561 -0.171656 0.0324837 0.984621 
-0.286303 -0.0628432 0.956076 0.452668 -0.338277 0.825022 0.221405 -0.237315 0.945865 
0.118119 -0.126967 0.984849 0.110783 -0.118003 0.986814 0.0986608 -0.143886 0.984664 
-0.0159126 -0.0581561 0.998181 -0.0914682 -0.00277895 0.995804 -0.094121 0.0111034 0.995499 
-0.128509 -0.0115418 0.991641 -0.244734 -0.0762039 0.966591 -0.365908 -0.171927 0.914632 
0.384685 -0.462015 0.799099 0.210388 -0.330277 0.920138 0.128216 -0.264177 0.955914 
0.101699 -0.244387 0.96433 0.00993793 -0.237886 0.971242 -0.0589749 -0.22264 0.973115 
-0.08716 -0.237016 0.967588 -0.185157 -0.255812 0.948829 -0.306461 -0.338325 0.889729 
0.188482 -0.563705 0.804183 0.110763 -0.536927 0.836326 -0.00425821 -0.57552 0.817777 
-0.0947445 -0.618125 0.780349 -0.119042 -0.679884 0.723593 -0.212608 -0.691741 0.690139 
0.161793 0.661192 0.732563 0.05885 0.579474 0.812863 -0.0391507 0.595347 0.802515 
-0.098013 0.672569 0.733515 0.406977 0.656812 0.634797 0.103544 0.399803 0.910734 
0.179617 0.519314 0.835494 -0.0253064 0.381861 0.923873 0.0397172 0.4474 0.893452 
-0.0850617 0.289892 0.953272 0.00241286 0.348123 0.937446 0.00255248 0.319179 0.947691 
0.0172408 0.360979 0.932414 0.0519346 0.297708 0.953243 -0.0251056 0.447028 0.894168 
-0.0962406 0.375632 0.921758 -0.188639 0.559347 0.807184 -0.421682 0.718078 0.553668 
0.406465 0.313347 0.858254 0.520577 0.537307 0.663552 0.241366 0.431831 0.869059 
0.262524 0.43077 0.863434 0.268912 0.444503 0.854461 -0.0665633 0.279863 0.95773 
-0.0208436 0.268609 0.963024 -0.0161797 0.26624 0.963771 0.0696957 0.231921 0.970235 
0.0639799 0.235922 0.969664 0.0680241 0.231155 0.970536 -0.196958 0.379934 0.903802 
-0.21551 0.376251 0.901105 -0.232914 0.405364 0.883986 -0.314404 0.348172 0.883134 
-0.415559 0.594365 0.688507 0.41178 0.306456 0.858208 0.706021 0.403241 0.582178 
-0.353734 0.291043 0.888913 -0.524561 0.39422 0.754604 0.465355 0.18147 0.866322 
0.634779 0.210587 0.743444 -0.369632 0.118133 0.921638 -0.407759 0.130998 0.903644 
-0.779984 0.188793 0.596642 0.540743 0.0466275 0.839894 0.615134 0.0417255 0.787318 
-0.378511 -0.0576202 0.923801 -0.414919 -0.0672993 0.907366 -0.800782 -0.130126 0.584649 
0.553558 -0.168122 0.815665 0.669771 -0.215917 0.710483 -0.393811 -0.0922134 0.914554 
-0.524516 -0.149268 0.838214 0.515862 -0.362749 0.77608 0.739311 -0.508168 0.441797 
0.486266 -0.410108 0.771594 -0.440035 -0.21871 0.870939 -0.439267 -0.293853 0.848937 
-0.654493 -0.351367 0.669463 0.421461 -0.490571 0.7627 0.597652 -0.625893 0.501069 
0.403305 -0.501243 0.765572 0.282979 -0.574981 0.767672 -0.44003 -0.39687 0.805523 
-0.341614 -0.500967 0.795193 -0.557564 -0.460938 0.690405 0.508823 -0.752708 0.417767 
0.239186 -0.603671 0.760507 0.307247 -0.664787 0.680924 0.190908 -0.611176 0.768126 
0.0904017 -0.671941 0.735067 -0.0312683 -0.730756 0.681922 -0.105725 -0.74023 0.66399 
-0.122147 -0.737754 0.663927 -0.216765 -0.692637 0.687944 -0.212411 -0.696063 0.685841 
-0.346089 -0.786303 0.511811 0.0178354 -0.939867 0.341074 0.177804 0.688204 0.703393 
0.0653854 0.667473 0.741758 -0.0578987 0.678701 0.732129 -0.114816 0.718188 0.686311 
0.441744 0.697352 0.564413 0.22848 0.708807 0.667375 0.308456 0.730481 0.609304 
0.358529 0.798446 0.483673 -0.181975 0.781266 0.597083 -0.182625 0.781789 0.596199 
-0.183298 0.782887 0.59455 -0.319113 0.793931 0.517534 -0.411544 0.887451 0.207516 
-0.447138 0.7687 0.45735 0.48449 0.6823 0.547482 0.57137 0.632514 0.522936 
0.642591 0.737657 0.207217 -0.472001 0.758359 0.449562 -0.507839 0.732023 0.454138 
0.634779 0.577499 0.513372 0.729772 0.479247 0.487602 -0.570494 0.684153 0.45439 
-0.593032 0.657386 0.464926 -0.619799 0.737219 0.268991 0.764881 0.421 0.487561 
-0.723913 0.479199 0.496305 -0.800579 0.33767 0.495027 -0.84372 0.515733 0.14885 
0.830401 0.238319 0.503625 -0.855519 0.18446 0.4838 0.88132 -0.000732054 0.47252 
0.979523 -0.0207645 0.200259 -0.873962 -0.13321 0.467383 -0.846222 -0.258911 0.465697 
0.859346 -0.282651 0.426184 -0.827713 -0.312079 0.466367 -0.90914 -0.340951 0.2392 
0.763909 -0.515984 0.387562 0.746153 -0.543352 0.384741 -0.789313 -0.445958 0.422026 
-0.733066 -0.554008 0.394575 0.660827 -0.654975 0.366491 0.628313 -0.687826 0.36348 
-0.708169 -0.588168 0.390584 -0.575376 -0.740504 0.347271 -0.774238 -0.632504 -0.0222453 
0.528165 -0.763816 0.37098 0.513675 -0.772932 0.372444 0.36519 -0.850882 0.377673 
0.195511 -0.916858 0.34806 -0.105157 -0.956832 0.270952 -0.141693 -0.961549 0.235258 
-0.13947 -0.96674 0.214389 -0.175566 -0.95763 0.228301 -0.476476 -0.818885 0.319998 
-0.323267 -0.897354 0.300423 0.087493 -0.940942 0.327068 0.186643 -0.95786 0.218331 
-0.0576782 -0.955799 0.288308 0.0142736 -0.948909 0.315226 -0.117564 -0.973815 0.194586 
0.424245 0.878446 0.219881 0.278636 0.928453 0.245637 0.0852765 0.967295 0.238888 
-0.111277 0.956719 0.268899 -0.214974 0.941546 0.259379 -0.298427 0.931344 0.208662 
-0.426121 0.894188 0.13729 0.645144 0.741415 0.184642 0.499839 0.841146 0.206479 
0.538109 0.818702 0.200412 -0.439185 0.88878 0.131097 -0.509891 0.85622 0.0830544 
0.649495 0.737682 0.184343 -0.564592 0.823112 0.0610074 -0.574642 0.816494 0.0558917 
-0.62266 0.782285 0.0180337 0.777904 0.60508 0.169537 0.780628 0.601783 0.168752 
0.798407 0.594829 -0.0934041 -0.649083 0.760567 0.0151228 -0.647501 0.710849 -0.274654 
-0.839336 0.543575 0.00642911 0.886693 0.436742 0.151762 -0.862459 0.506116 0.00328678 
-0.856789 0.494419 -0.146498 0.968003 0.224162 0.11279 0.980549 0.166443 0.104025 
-0.985019 0.164376 -0.0521301 0.996677 -0.0278238 0.0765623 0.979752 -0.181452 0.0846273 
0.979906 -0.0302122 -0.19716 -0.983987 -0.154958 -0.08808 -0.820093 -0.143672 -0.5539 
0.942672 -0.321554 0.0892934 -0.936669 -0.344791 -0.0613968 -0.915943 -0.395477 -0.0681595 
-0.908357 -0.331574 -0.254846 0.84552 -0.526639 0.0880182 0.77388 -0.62522 0.101042 
-0.863509 -0.493314 -0.104849 0.716505 -0.689861 0.103505 0.660618 -0.742853 0.108408 
-0.537649 -0.837809 -0.0949156 -0.774182 -0.629458 -0.0665167 -0.770573 -0.633878 -0.0664503 
-0.772661 -0.627905 -0.093436 0.59342 -0.798172 0.103796 0.529724 -0.843465 0.0892182 
0.345362 -0.937122 0.0502755 -0.193776 -0.977372 -0.0848247 -0.148745 -0.982589 -0.111327 
-0.13549 -0.985614 -0.101029 -0.521527 -0.847896 -0.095298 -0.30124 -0.94871 -0.0959345 
0.233899 -0.972162 0.0138686 0.167258 -0.985911 -0.00200923 0.139956 -0.969281 -0.202256 
-0.00770492 -0.999572 -0.0282364 -0.0332114 -0.940821 -0.337273 -0.168796 -0.983574 -0.0639508 
-0.152473 -0.987052 -0.0497988 -0.156986 -0.971888 -0.175469 0.420111 0.885101 -0.200258 
0.282168 0.93628 -0.209192 0.0932389 0.974014 -0.206405 -0.0858529 0.982191 -0.167122 
-0.221839 0.963268 -0.151336 -0.344333 0.923506 -0.16903 -0.476219 0.856865 -0.197477 
0.648639 0.747007 -0.145769 0.498643 0.847569 -0.181607 0.534358 0.827993 -0.169971 
0.348969 0.784657 -0.51238 -0.482672 0.852602 -0.200242 -0.477909 0.846677 -0.233969 
-0.538013 0.801922 -0.259739 0.657742 0.739107 -0.145244 0.794652 0.586808 -0.155513 
0.644546 0.738747 -0.197012 -0.561064 0.775012 -0.290798 -0.519374 0.672019 -0.527865 
-0.583277 0.743879 -0.32624 0.795037 0.586273 -0.155565 0.794671 0.58618 -0.15777 
-0.631284 0.660493 -0.406485 -0.526331 0.467309 -0.710351 -0.641836 0.63378 -0.431704 
0.896214 0.399255 -0.193378 -0.767609 0.406593 -0.495438 -0.564979 0.32649 -0.757762 
-0.837641 0.147168 -0.526021 0.954629 0.175557 -0.240548 -0.39873 0.0196607 -0.916858 
-0.841844 0.0623357 -0.53611 -0.816243 -0.0293797 -0.576961 -0.821321 0.0589469 -0.567412 
0.962603 -0.0314165 -0.269089 -0.756479 -0.139384 -0.638993 -0.44096 -0.172859 -0.880723 
0.925555 -0.28851 -0.245172 -0.313233 -0.100061 -0.94439 -0.717108 -0.273245 -0.641166 
-0.509469 -0.246127 -0.824538 0.840032 -0.496858 -0.217894 0.793729 -0.574843 -0.19887 
0.757969 -0.471418 -0.45083 -0.45798 -0.183841 -0.869745 -0.667412 -0.385252 -0.637293 
-0.664236 -0.410147 -0.624956 -0.643371 -0.36311 -0.673962 0.732128 -0.659466 -0.170568 
0.651622 -0.739327 -0.169657 -0.346568 -0.376872 -0.858987 -0.646309 -0.523747 -0.554954 
-0.555486 -0.635493 -0.536269 -0.553534 -0.473607 -0.685052 0.556944 -0.807795 -0.193082 
0.479295 -0.85035 -0.217213 0.424366 -0.7949 -0.433645 0.275954 -0.917089 -0.287745 
0.116677 -0.935138 -0.33452 -0.0374958 -0.91995 -0.390239 -0.158345 -0.901064 -0.403746 
-0.192321 -0.890401 -0.41255 -0.11542 -0.666612 -0.736415 -0.14513 -0.904451 -0.40113 
-0.113003 -0.76884 -0.629377 -0.159032 -0.900666 -0.404364 -0.175537 -0.814466 -0.553021 
-0.340093 -0.815154 -0.468894 -0.310087 -0.830363 -0.462973 -0.314704 -0.811343 -0.49263 
0.22025 0.697378 -0.682022 0.11784 0.715886 -0.688202 -0.0290215 0.750821 -0.659867 
-0.1818 0.746135 -0.640493 -0.313683 0.708822 -0.631803 0.420578 0.718809 -0.553559 
0.261976 0.705385 -0.658635 0.302082 0.715156 -0.630315 0.206598 0.655434 -0.726446 
0.11768 0.57787 -0.8076 -0.00966392 0.556425 -0.830842 -0.163167 0.600822 -0.782553 
-0.32448 0.705495 -0.630071 -0.3112 0.696403 -0.646667 -0.42212 0.608539 -0.671934 
0.492837 0.689936 -0.530189 0.58611 0.625584 -0.514898 0.374282 0.650096 -0.661278 
0.167894 0.522764 -0.835781 0.0714455 0.399079 -0.914129 0.0166392 0.291161 -0.956529 
-0.0336507 0.220456 -0.974816 -0.104053 0.185373 -0.977144 -0.199215 0.27294 -0.941179 
-0.465789 0.569542 -0.677246 -0.344188 0.428854 -0.835236 -0.459001 0.52806 -0.714472 
0.666931 0.530831 -0.522898 0.761035 0.370463 -0.532525 0.537127 0.485582 -0.689714 
-0.120561 0.103321 -0.987314 -0.117595 -0.0351772 -0.992438 -0.0956379 0.0151274 -0.995301 
-0.168602 0.116704 -0.978751 -0.473807 0.403394 -0.782803 -0.31745 0.263462 -0.910941 
-0.469585 0.334328 -0.817138 0.777828 0.319582 -0.541158 0.745922 0.306807 -0.591159 
0.405541 0.196215 -0.892769 -0.183481 0.0401346 -0.982204 -0.0518815 -0.098856 -0.993748 
-0.0705044 -0.0895036 -0.993488 -0.186438 0.0131222 -0.982379 -0.428512 0.196449 -0.881921 
-0.367377 0.14363 -0.918915 0.77354 0.130937 -0.620073 0.665415 0.0986109 -0.739931 
0.36117 0.0116012 -0.932428 -0.332632 0.158218 -0.92969 -0.215532 -0.0784674 -0.973339 
-0.0554084 -0.157112 -0.986025 -0.0840364 -0.120398 -0.989162 -0.325577 -0.0123728 -0.945435 
-0.250162 -0.0681826 -0.9658 0.769186 -0.0263008 -0.638484 0.628905 -0.00879643 -0.777433 
0.324958 -0.0235507 -0.945435 -0.0594507 -0.0975237 -0.993456 -0.366254 0.056544 -0.928795 
-0.100272 -0.00219973 -0.994958 -0.110486 -0.101102 -0.988722 -0.268248 -0.1517 -0.951331 
-0.268017 -0.125487 -0.955207 -0.240389 -0.146451 -0.959565 0.764923 -0.247089 -0.594845 
0.725269 -0.387549 -0.569026 0.668078 -0.222022 -0.710195 0.283362 -0.140905 -0.948605 
-0.128173 -0.0625619 -0.989777 -0.15517 -0.149255 -0.976548 -0.213197 0.0852626 -0.973282 
-0.202024 0.09847 -0.974418 -0.284435 -0.0641461 -0.956547 -0.239824 -0.005991 -0.970798 
0.691617 -0.437912 -0.574368 0.439038 -0.339707 -0.831772 0.153577 -0.231993 -0.960517 
-0.0134953 -0.21172 -0.977237 -0.0633686 -0.210843 -0.975464 -0.0512529 -0.25132 -0.966546 
-0.0861776 -0.213555 -0.973123 -0.0734506 -0.193267 -0.978393 -0.0983319 -0.102446 -0.989867 
-0.202939 -0.0412783 -0.978321 -0.393082 -0.129594 -0.910325 -0.345492 -0.368586 -0.863006 
-0.315737 -0.077893 -0.945644 0.588839 -0.603408 -0.537744 0.576317 -0.615129 -0.538029 
0.568615 -0.597182 -0.56573 0.359323 -0.715361 -0.599287 0.237979 -0.464719 -0.852879 
0.0232705 -0.396512 -0.917734 -0.0627228 -0.344591 -0.936655 -0.0630285 -0.345452 -0.936317 
-0.0679326 -0.348744 -0.934753 -0.0915843 -0.579147 -0.810062 -0.0521515 -0.35993 -0.93152 
-0.0846849 -0.610055 -0.78782 -0.0533533 -0.385396 -0.921207 -0.342984 -0.37597 -0.860818 
-0.189577 -0.552301 -0.811803 -0.180405 -0.35249 -0.918262 0.227225 -0.708449 -0.668183 
0.155626 -0.690863 -0.706038 0.137145 -0.659931 -0.738703 0.00728701 -0.627913 -0.77825 
-0.010488 -0.560919 -0.827805 -0.0720157 -0.579391 -0.811862 -0.0712539 -0.548915 -0.832836 
-0.0874678 -0.582958 -0.807781 -0.0874271 -0.582857 -0.807858 -0.0873641 -0.582509 -0.808116 
0.257091 0.369228 -0.893071 0.0681273 0.359827 -0.930528 -0.0201402 0.295366 -0.955172 
-0.0652979 0.17664 -0.982107 0.259571 0.367769 -0.892955 0.256135 0.36671 -0.894382 
0.036351 0.29956 -0.953385 -0.050337 0.262949 -0.963496 -0.0842493 0.151944 -0.984792 
-0.0745334 0.164479 -0.983561 -0.237962 0.100965 -0.966012 0.356665 0.17724 -0.917265 
0.190923 0.116743 -0.974638 0.0344491 0.104677 -0.993909 -0.0733832 0.119786 -0.990084 
-0.147272 0.12579 -0.981065 -0.245712 0.0999952 -0.964172 -0.246504 0.100565 -0.96391 
0.357014 0.0106733 -0.934038 0.163993 -0.0225433 -0.986204 0.0354549 -0.0503899 -0.9981 
-0.0340483 -0.0552585 -0.997891 -0.0963447 -0.0334586 -0.994785 -0.270159 0.0792144 -0.959552 
-0.098229 -0.0768668 -0.992191 -0.176517 -0.0348168 -0.983682 -0.199091 -0.0386083 -0.97922 
0.295998 -0.0315643 -0.954667 0.127299 -0.0877504 -0.987975 0.00285948 -0.107753 -0.994174 
-0.0564478 -0.125101 -0.990537 -0.0830031 -0.0982942 -0.99169 -0.128309 -0.0998704 -0.986693 
-0.18584 -0.0495023 -0.981332 -0.195149 -0.0456318 -0.979711 -0.192637 -0.0487855 -0.980057 
-0.193264 -0.046675 -0.980036 0.199032 -0.13096 -0.971203 0.121404 -0.180571 -0.976041 
0.0851552 -0.11843 -0.989304 -0.0127734 -0.205801 -0.97851 -0.000412754 -0.118833 -0.992914 
-0.0438181 -0.171522 -0.984205 -0.0256038 -0.137306 -0.990198 -0.101185 -0.0910759 -0.99069 
-0.0629862 -0.168323 -0.983718 -0.0692268 -0.125168 -0.989717 
