# vtk DataFile Version 4.2
vtk output
ASCII
DATASET POLYDATA
POINTS 556 float
-62.2619 -32.7154 -15.9478 -53.1335 -32.7154 -17.71 -44.0052 -32.7154 -18.7512 
-34.8769 -32.7154 -18.0919 -25.7486 -32.7154 -17.4752 -16.6203 -32.7154 -15.4311 
-7.49194 -32.7154 -14.4419 1.63638 -32.7154 -14.0364 -71.3902 -23.5871 -14.2974 
-62.2619 -23.5871 -17.9303 -53.1335 -23.5871 -19.8106 -44.0052 -23.5871 -20.3478 
-34.8769 -23.5871 -19.3678 -25.7486 -23.5871 -19.2234 -16.6203 -23.5871 -17.9723 
-7.49194 -23.5871 -17.1009 1.63638 -23.5871 -16.9099 10.7647 -23.5871 -15.5417 
38.1497 -23.5871 -14.2948 -71.3902 -14.4588 -15.2476 -62.2619 -14.4588 -20.6824 
-53.1335 -14.4588 -20.4365 -44.0052 -14.4588 -20.3881 -34.8769 -14.4588 -20.0052 
-25.7486 -14.4588 -18.5713 -16.6203 -14.4588 -18.2053 -7.49194 -14.4588 -19.6323 
1.63638 -14.4588 -17.0333 10.7647 -14.4588 -18.4589 29.0213 -14.4588 -14.0568 
38.1497 -14.4588 -15.4824 47.278 -14.4588 -15.7248 56.4063 -14.4588 -15.1535 
65.5346 -14.4588 -14.7601 -71.3902 -5.33044 -15.8113 -62.2619 -5.33044 -19.9784 
-53.1335 -5.33044 -21.4212 -44.0052 -5.33044 -20.8366 -34.8769 -5.33044 -19.4723 
-25.7486 -5.33044 -17.5143 -16.6203 -5.33044 -17.7021 -7.49194 -5.33044 -22.2921 
1.63638 -5.33044 -15.7417 10.7647 -5.33044 -21.1495 19.893 -5.33044 -13.9022 
29.0213 -5.33044 -15.8373 38.1497 -5.33044 -16.981 47.278 -5.33044 -17.7288 
56.4063 -5.33044 -17.3454 65.5346 -5.33044 -14.9495 -71.3902 3.79787 -15.6474 
-62.2619 3.79787 -20.1951 -53.1335 3.79787 -22.0458 -44.0052 3.79787 -21.3004 
-34.8769 3.79787 -20.1163 -25.7486 3.79787 -18.4377 -16.6203 3.79787 -16.693 
-7.49194 3.79787 -19.6426 1.63638 3.79787 -17.1275 10.7647 3.79787 -20.3994 
19.893 3.79787 -16.7902 29.0213 3.79787 -17.933 38.1497 3.79787 -19.4906 
47.278 3.79787 -19.5004 56.4063 3.79787 -18.924 65.5346 3.79787 -15.7503 
-71.3902 12.9262 -16.2159 -62.2619 12.9262 -21.4922 -53.1335 12.9262 -21.8592 
-44.0052 12.9262 -21.5521 -34.8769 12.9262 -20.8255 -25.7486 12.9262 -19.8887 
-16.6203 12.9262 -17.8936 -7.49194 12.9262 -16.2259 1.63638 12.9262 -18.5747 
10.7647 12.9262 -18.5508 19.893 12.9262 -19.5122 29.0213 12.9262 -20.4698 
38.1497 12.9262 -21.4484 47.278 12.9262 -20.9861 56.4063 12.9262 -18.8363 
65.5346 12.9262 -15.4326 -62.2619 22.0545 -17.8728 -53.1335 22.0545 -20.1275 
-44.0052 22.0545 -21.4761 -34.8769 22.0545 -21.5078 -25.7486 22.0545 -20.2061 
-16.6203 22.0545 -18.2872 -7.49194 22.0545 -15.5635 1.63638 22.0545 -16.8066 
10.7647 22.0545 -19.7225 19.893 22.0545 -20.6502 29.0213 22.0545 -21.5431 
38.1497 22.0545 -21.7903 47.278 22.0545 -21.0227 56.4063 22.0545 -17.995 
65.5346 22.0545 -14.089 -62.2619 31.1828 -14.5128 -53.1335 31.1828 -17.8569 
-44.0052 31.1828 -20.2158 -34.8769 31.1828 -20.3506 -25.7486 31.1828 -19.0381 
-16.6203 31.1828 -16.894 -7.49194 31.1828 -15.4004 1.63638 31.1828 -16.6045 
10.7647 31.1828 -19.485 19.893 31.1828 -20.9746 29.0213 31.1828 -21.545 
38.1497 31.1828 -20.7666 47.278 31.1828 -18.8507 56.4063 31.1828 -14.3707 
-44.0052 40.3112 -16.5368 -34.8769 40.3112 -17.0699 -25.7486 40.3112 -16.41 
-16.6203 40.3112 -14.5533 1.63638 40.3112 -14.9333 10.7647 40.3112 -17.5907 
19.893 40.3112 -19.2465 29.0213 40.3112 -19.6371 38.1497 40.3112 -17.7659 
19.893 49.4395 -14.2725 -62.2619 -36.2479 -13.8822 -62.2619 -41.8437 -7.34335 
-53.1335 -40.7065 -13.8822 -53.1335 -41.8437 -13.1185 -44.0052 -40.9342 -13.8822 
-44.0052 -41.8437 -13.1359 -34.8769 -40.0364 -13.8822 -34.8769 -41.8437 -12.4942 
-25.7486 -39.3162 -13.8822 -25.7486 -41.8437 -11.287 -16.6203 -35.2707 -13.8822 
-16.6203 -41.8437 -7.95813 -7.49194 -33.5665 -13.8822 -7.49194 -41.8437 -5.63381 
1.63638 -32.958 -13.8822 1.63638 -41.8437 -6.21885 10.7647 -41.8437 -5.37071 
19.893 -41.8437 -5.48328 29.0213 -41.8437 -6.30409 38.1497 -41.8437 -5.65171 
47.278 -41.8437 -6.22782 -65.9791 -32.7154 -13.8822 -71.3902 -24.6353 -13.8822 
-71.3902 -32.7154 -7.72338 2.11358 -32.7154 -13.8822 10.7647 -27.0205 -13.8822 
10.7647 -32.7154 -10.9735 19.893 -32.7154 -9.73899 29.0213 -32.7154 -10.4038 
38.1497 -24.8172 -13.8822 38.1497 -32.7154 -10.9625 47.278 -32.7154 -11.901 
56.4063 -32.7154 -8.88884 65.5346 -32.7154 -6.38641 -71.9268 -23.5871 -13.8822 
16.6138 -23.5871 -13.8822 19.893 -23.5871 -12.9525 34.7364 -23.5871 -13.8822 
29.0213 -16.1863 -13.8822 29.0213 -23.5871 -13.1257 45.6675 -23.5871 -13.8822 
47.278 -23.1335 -13.8822 47.278 -23.5871 -13.7811 56.4063 -18.4759 -13.8822 
56.4063 -23.5871 -12.4465 65.5346 -16.6609 -13.8822 65.5346 -23.5871 -9.68619 
-73.2601 -14.4588 -13.8822 18.4062 -14.4588 -13.8822 27.051 -14.4588 -13.8822 
19.893 -5.53016 -13.8822 19.893 -14.4588 -13.2491 67.0562 -14.4588 -13.8822 
74.6629 -14.4588 -7.80311 -74.2133 -5.33044 -13.8822 -80.5185 -5.33044 -5.24241 
68.2058 -5.33044 -13.8822 74.6629 -5.33044 -10.9703 -73.5774 3.79787 -13.8822 
69.3334 3.79787 -13.8822 74.6629 3.79787 -10.2454 -74.0487 12.9262 -13.8822 
-71.3902 18.3204 -13.8822 68.1116 12.9262 -13.8822 74.6629 12.9262 -6.53715 
-68.2109 22.0545 -13.8822 -71.3902 22.0545 -7.19967 65.7561 22.0545 -13.8822 
65.5346 22.3638 -13.8822 -63.0431 31.1828 -13.8822 -62.2619 31.9766 -13.8822 
-53.1335 40.1014 -13.8822 -7.49194 39.4341 -13.8822 47.278 40.1859 -13.8822 
57.0084 31.1828 -13.8822 56.4063 31.7983 -13.8822 -52.6835 40.3112 -13.8822 
-53.1335 40.3112 -13.4388 -44.0052 42.8087 -13.8822 -34.8769 45.2398 -13.8822 
-25.7486 44.7095 -13.8822 -9.39211 40.3112 -13.8822 -16.6203 41.3704 -13.8822 
-6.16668 40.3112 -13.8822 -7.49194 40.3112 -13.7198 1.63638 42.7218 -13.8822 
10.7647 47.9192 -13.8822 29.0213 48.7523 -13.8822 47.1077 40.3112 -13.8822 
38.1497 45.6515 -13.8822 47.278 40.3112 -13.6898 -34.8769 49.4395 -6.18706 
-25.7486 49.4395 -8.62805 -16.6203 49.4395 -7.51056 -7.49194 49.4395 -9.18932 
1.63638 49.4395 -10.4809 16.9156 49.4395 -13.8822 10.7647 49.4395 -12.9356 
23.9925 49.4395 -13.8822 19.893 49.8947 -13.8822 29.0213 49.4395 -13.0606 
38.1497 49.4395 -5.90395 -62.2619 -43.3979 -4.75389 -53.1335 -46.9626 -4.75389 
-44.0052 -48.173 -4.75389 -34.8769 -47.717 -4.75389 -25.7486 -45.1389 -4.75389 
-16.6203 -44.0635 -4.75389 -7.49194 -42.4407 -4.75389 1.63638 -42.9564 -4.75389 
10.7647 -42.416 -4.75389 19.893 -42.6056 -4.75389 29.0213 -43.6276 -4.75389 
38.1497 -43.0517 -4.75389 47.278 -43.3569 -4.75389 -64.311 -41.8437 -4.75389 
-71.3902 -34.9485 -4.75389 53.4743 -41.8437 -4.75389 56.4063 -40.3976 -4.75389 
56.4063 -41.8437 -3.73979 65.5346 -34.9468 -4.75389 -73.1562 -32.7154 -4.75389 
-71.3902 -32.7154 3.78449 67.6982 -32.7154 -4.75389 -77.4818 -23.5871 -4.75389 
74.5652 -23.5871 -4.75389 74.6629 -23.4438 -4.75389 74.6629 -23.5871 -4.63828 
-80.2065 -14.4588 -4.75389 -80.5185 -8.83506 -4.75389 77.4827 -14.4588 -4.75389 
-80.7129 -5.33044 -4.75389 -80.5185 -3.4002 -4.75389 -80.5185 -5.33044 -4.19178 
79.8974 -5.33044 -4.75389 -79.7588 3.79787 -4.75389 78.4176 3.79787 -4.75389 
-76.9155 12.9262 -4.75389 75.552 12.9262 -4.75389 74.6629 14.8396 -4.75389 
74.6629 12.9262 1.55483 -72.093 22.0545 -4.75389 -71.3902 23.1838 -4.75389 
-71.3902 22.0545 -3.27668 70.586 22.0545 -4.75389 65.5346 27.6721 -4.75389 
-65.7024 31.1828 -4.75389 -62.2619 34.7679 -4.75389 -62.2619 31.1828 1.47172 
62.0835 31.1828 -4.75389 56.4063 36.384 -4.75389 -55.9628 40.3112 -4.75389 
-53.1335 42.3816 -4.75389 -53.1335 40.3112 0.345692 -44.0052 47.2215 -4.75389 
52.0368 40.3112 -4.75389 47.278 44.0521 -4.75389 -36.6168 49.4395 -4.75389 
-34.8769 49.9489 -4.75389 -34.8769 49.4395 -2.47807 -25.7486 51.2724 -4.75389 
-16.6203 51.815 -4.75389 -7.49194 53.812 -4.75389 1.63638 54.87 -4.75389 
10.7647 55.879 -4.75389 19.893 55.4912 -4.75389 29.0213 53.8573 -4.75389 
38.829 49.4395 -4.75389 38.1497 49.832 -4.75389 38.1497 49.4395 -2.86525 
-62.2619 -42.8014 4.37443 -53.1335 -46.597 4.37443 -44.0052 -48.3847 4.37443 
-34.8769 -48.3319 4.37443 -25.7486 -46.6122 4.37443 -16.6203 -45.2738 4.37443 
-7.49194 -45.0819 4.37443 1.63638 -46.3117 4.37443 10.7647 -47.6729 4.37443 
19.893 -48.2483 4.37443 29.0213 -49.5541 4.37443 38.1497 -49.9007 4.37443 
47.278 -49.6085 4.37443 56.4063 -47.188 4.37443 -63.4194 -41.8437 4.37443 
-62.2619 -41.8437 5.53057 -53.1335 -41.8437 11.014 -44.0052 -41.8437 12.857 
64.4331 -41.8437 4.37443 65.5346 -40.8037 4.37443 -71.1781 -32.7154 4.37443 
-71.3902 -32.4215 4.37443 -62.2619 -32.7154 12.143 71.9856 -32.7154 4.37443 
74.6629 -29.0345 4.37443 -75.0419 -23.5871 4.37443 -71.3902 -23.5871 8.23296 
77.641 -23.5871 4.37443 74.6629 -23.5871 10.0244 -77.2036 -14.4588 4.37443 
-71.3902 -14.4588 10.6831 78.7702 -14.4588 4.37443 74.6629 -14.4588 10.3849 
-77.3881 -5.33044 4.37443 -71.3902 -5.33044 10.1053 79.3285 -5.33044 4.37443 
74.6629 -5.33044 10.6445 -75.6172 3.79787 4.37443 -71.3902 3.79787 8.44104 
78.2796 3.79787 4.37443 74.6629 12.0674 4.37443 74.6629 3.79787 9.10573 
-73.0845 12.9262 4.37443 -71.3902 15.9121 4.37443 -71.3902 12.9262 6.01894 
-62.2619 12.9262 11.8823 74.1553 12.9262 4.37443 -67.5381 22.0545 4.37443 
-62.2619 29.1772 4.37443 -62.2619 22.0545 8.83404 -53.1335 22.0545 12.2529 
56.4063 22.0545 13.2613 68.1667 22.0545 4.37443 65.5346 24.8149 4.37443 
65.5346 22.0545 7.19886 -59.7119 31.1828 4.37443 -53.1335 37.4517 4.37443 
-53.1335 31.1828 8.69801 -44.0052 31.1828 12.9731 47.278 31.1828 12.7826 
59.2041 31.1828 4.37443 56.4063 33.6646 4.37443 56.4063 31.1828 7.35218 
-50.2524 40.3112 4.37443 -44.0052 44.0153 4.37443 -44.0052 40.3112 8.27756 
-34.8769 47.379 4.37443 -34.8769 40.3112 10.9247 38.1497 47.438 4.37443 
38.1497 40.3112 11.3917 48.9174 40.3112 4.37443 47.278 41.6207 4.37443 
47.278 40.3112 5.98239 -29.4266 49.4395 4.37443 -25.7486 50.4839 4.37443 
-25.7486 49.4395 6.06616 -16.6203 52.8994 4.37443 -16.6203 49.4395 8.99329 
-7.49194 54.3718 4.37443 -7.49194 49.4395 10.7576 1.63638 55.6029 4.37443 
1.63638 49.4395 12.1533 10.7647 55.5134 4.37443 10.7647 49.4395 11.8603 
19.893 54.0552 4.37443 19.893 49.4395 10.3148 34.6389 49.4395 4.37443 
29.0213 51.903 4.37443 29.0213 49.4395 8.09146 -34.8769 -42.2356 13.5027 
[...]
POINT_DATA 556
SCALARS ImageScalars float
LOOKUP_TABLE default
0 0 0 0 0 0 0 0 0 
0 0 0 0 0 0 0 0 0 
0 0 0 0 0 0 0 0 0 
0 0 0 0 0 0 0 0 0 
0 0 0 0 0 0 0 0 0 
0 0 0 0 0 0 0 0 0 
0 0 0 0 0 0 0 0 0 
0 0 0 0 0 0 0 0 0 
0 0 0 0 0 0 0 0 0 
0 0 0 0 0 0 0 0 0 
0 0 0 0 0 0 0 0 0 
0 0 0 0 0 0 0 0 0 
0 0 0 0 0 0 0 0 0 
0 0 0 0 0 0 0 0 0 
0 0 0 0 0 0 0 0 0 
0 0 0 0 0 0 0 0 0 
0 0 0 0 0 0 0 0 0 
0 0 0 0 0 0 0 0 0 
0 0 0 0 0 0 0 0 0 
0 0 0 0 0 0 0 0 0 
0 0 0 0 0 0 0 0 0 
0 0 0 0 0 0 0 0 0 
0 0 0 0 0 0 0 0 0 
0 0 0 0 0 0 0 0 0 
0 0 0 0 0 0 0 0 0 
0 0 0 0 0 0 0 0 0 
0 0 0 0 0 0 0 0 0 
0 0 0 0 0 0 0 0 0 
0 0 0 0 0 0 0 0 0 
0 0 0 0 0 0 0 0 0 
0 0 0 0 0 0 0 0 0 
0 0 0 0 0 0 0 0 0 
0 0 0 0 0 0 0 0 0 
0 0 0 0 0 0 0 0 0 
0 0 0 0 0 0 0 0 0 
0 0 0 0 0 0 0 0 0 
0 0 0 0 0 0 0 0 0 
0 0 0 0 0 0 0 0 0 
0 0 0 0 0 0 0 0 0 
0 0 0 0 0 0 0 0 0 
0 0 0 0 0 0 0 0 0 
0 0 0 0 0 0 0 0 0 
0 0 0 0 0 0 0 0 0 
0 0 0 0 0 0 0 0 0 
0 0 0 0 0 0 0 0 0 
0 0 0 0 0 0 0 0 0 
0 0 0 0 0 0 0 0 0 
0 0 0 0 0 0 0 0 0 
0 0 0 0 0 0 0 0 0 
0 0 0 0 0 0 0 0 0 
0 0 0 0 0 0 0 0 0 
0 0 0 0 0 0 0 0 0 
0 0 0 0 0 0 0 0 0 
0 0 0 0 0 0 0 0 0 
0 0 0 0 0 0 0 0 0 
0 0 0 0 0 0 0 0 0 
0 0 0 0 0 0 0 0 0 
0 0 0 0 0 0 0 0 0 
0 0 0 0 0 0 0 0 0 
0 0 0 0 0 0 0 0 0 
0 0 0 0 0 0 0 0 0 
0 0 0 0 0 0 0 
NORMALS Normals float
-0.330526 -0.359752 -0.872543 -0.186162 -0.403735 -0.895736 -0.0120955 -0.306331 -0.951848 
0.0712252 -0.298958 -0.951605 0.144283 -0.350794 -0.92527 0.14717 -0.41228 -0.899092 
0.0730586 -0.458395 -0.885741 0.168795 -0.448555 -0.877671 -0.550447 -0.233156 -0.801652 
-0.345878 -0.252671 -0.903618 -0.103486 -0.11531 -0.987924 0.0176196 -0.100313 -0.9948 
0.0587926 -0.099892 -0.99326 0.0764949 -0.04783 -0.995922 0.115174 -0.144881 -0.982723 
0.0557187 -0.246552 -0.967526 0.0796053 -0.149266 -0.985587 0.223562 -0.334902 -0.915347 
-0.0351285 -0.232474 -0.971968 -0.530156 -0.0803263 -0.844086 -0.224971 -0.0793025 -0.971133 
0.0140142 -0.0973732 -0.995149 0.024394 -0.0266698 -0.999347 0.0971597 -0.00565695 -0.995253 
0.1009 0.0843823 -0.991312 -0.0479628 0.00683992 -0.998826 0.0701375 -0.275346 -0.958783 
0.0678836 0.0467539 -0.996597 0.171432 -0.249073 -0.953191 -0.117042 -0.1443 -0.982588 
-0.090984 -0.148662 -0.984694 0.0157724 -0.196584 -0.98036 0.0575202 -0.278318 -0.958765 
0.326938 -0.21851 -0.919437 -0.525705 -0.0189189 -0.850457 -0.242272 0.0164353 -0.970069 
-0.0605541 -0.0869722 -0.994369 0.104791 -0.0496778 -0.993253 0.17106 -0.00467209 -0.985249 
0.106052 0.0134485 -0.99427 -0.236706 0.0947722 -0.966948 0.103312 0.00629234 -0.994629 
0.164353 0.0142519 -0.986299 0.0941227 -0.111233 -0.989327 0.0811771 -0.220718 -0.971954 
-0.132932 -0.199138 -0.970914 -0.100582 -0.20664 -0.973234 -0.0176803 -0.207403 -0.978096 
0.137507 -0.199712 -0.970158 0.294849 -0.0514307 -0.954159 -0.608901 -0.0267037 -0.792797 
-0.256462 -0.0634714 -0.964468 -0.081757 -0.0247357 -0.996345 0.10284 -0.0389082 -0.993937 
0.146711 -0.0733362 -0.986457 0.183278 -0.120716 -0.975621 -0.0628439 -0.0249489 -0.997711 
-0.0433085 0.305899 -0.951078 -0.00381657 -0.158369 -0.987373 0.0650404 0.145882 -0.987162 
0.084166 -0.269203 -0.959399 -0.140466 -0.254647 -0.956778 -0.0797907 -0.233795 -0.969006 
0.0329493 -0.170201 -0.984858 0.18803 -0.0828784 -0.97866 0.376094 -0.0258185 -0.926222 
-0.625647 0.182779 -0.758391 -0.306179 0.066674 -0.949636 0.00155514 0.104904 -0.994481 
0.0549897 -0.00907804 -0.998446 0.0896809 -0.0781148 -0.992903 0.156979 -0.0910185 -0.983399 
0.186995 -0.0821199 -0.978923 -0.031445 0.208956 -0.977419 -0.127561 0.0278506 -0.99144 
-0.051393 0.00718546 -0.998653 -0.104667 -0.206727 -0.972784 -0.100242 -0.183681 -0.977861 
-0.0295161 -0.120123 -0.99232 0.139594 -0.0828962 -0.986733 0.266198 0.0507862 -0.962579 
0.447502 0.0876714 -0.889975 -0.442324 0.356676 -0.82288 -0.183663 0.215397 -0.9591 
-0.0662504 0.0617955 -0.995888 0.0684898 0.0324358 -0.997124 0.173021 0.0454626 -0.983868 
0.255174 0.054998 -0.96533 0.085249 0.0417878 -0.995483 -0.233331 0.0998854 -0.967254 
-0.191535 -0.0510357 -0.980158 -0.101082 -0.0809289 -0.991581 -0.0619368 -0.0581827 -0.996383 
0.0252872 0.0411691 -0.998832 0.219097 0.119619 -0.968343 0.34044 0.192517 -0.920347 
0.650199 0.367414 -0.665018 -0.57753 0.5294 -0.621446 -0.291004 0.316014 -0.903024 
-0.143299 0.226196 -0.963484 0.0599259 0.22668 -0.972124 0.193612 0.191568 -0.962193 
0.195469 0.192321 -0.961667 0.0198132 0.0966543 -0.995121 -0.224916 0.0943485 -0.9698 
-0.224342 0.107048 -0.968613 -0.110072 0.0733596 -0.991213 0.0132454 0.0911567 -0.995748 
0.139044 0.198473 -0.970194 0.299539 0.31172 -0.901725 0.580099 0.529425 -0.619027 
-0.172303 0.603713 -0.778359 0.0134499 0.491613 -0.87071 0.137256 0.427196 -0.89368 
0.13833 0.414404 -0.899519 -0.194013 0.272023 -0.94253 -0.22084 0.305696 -0.926164 
-0.100462 0.320563 -0.941885 0.0754005 0.330287 -0.940864 0.253401 0.47392 -0.84332 
-0.0201392 0.649299 -0.760267 -0.422736 -0.542029 -0.726291 -0.539862 -0.772104 -0.335266 
-0.168099 -0.604173 -0.778921 -0.180071 -0.649336 -0.738876 0.022058 -0.581327 -0.813371 
0.0248758 -0.630698 -0.77563 0.0538757 -0.600435 -0.797857 0.0629425 -0.698359 -0.712975 
0.157315 -0.631908 -0.75891 0.170797 -0.776541 -0.606476 0.162846 -0.495818 -0.853022 
0.171787 -0.829114 -0.532034 0.0747105 -0.489598 -0.868742 0.0625835 -0.865921 -0.496249 
0.167891 -0.456477 -0.873751 0.0157994 -0.812481 -0.582773 0.027286 -0.713765 -0.699854 
-0.0500792 -0.631481 -0.773772 -0.0106798 -0.606645 -0.794901 0.00769541 -0.589687 -0.807595 
0.0814432 -0.630507 -0.771899 -0.512983 -0.466631 -0.720489 -0.576059 -0.275306 -0.769651 
-0.751225 -0.588184 -0.299499 0.172942 -0.450701 -0.875762 0.221851 -0.381708 -0.897263 
0.207387 -0.464568 -0.860911 0.0250061 -0.370775 -0.928386 -0.0634641 -0.374837 -0.924916 
-0.0415646 -0.253557 -0.966427 -0.0671768 -0.401712 -0.913299 0.0808964 -0.374552 -0.92367 
0.283679 -0.486968 -0.826068 0.448083 -0.474151 -0.757893 -0.56935 -0.247114 -0.784076 
0.158502 -0.226722 -0.960976 0.115905 -0.173908 -0.977917 -0.0476645 -0.216295 -0.975164 
-0.110134 -0.152178 -0.982198 -0.0716888 -0.188629 -0.979428 0.0842265 -0.200169 -0.976134 
0.106464 -0.192257 -0.975552 0.110697 -0.193655 -0.974804 0.0992368 -0.277081 -0.955708 
0.17986 -0.283347 -0.942001 0.34465 -0.284806 -0.894484 0.420026 -0.423356 -0.802713 
-0.60626 -0.0909255 -0.790051 0.198673 -0.0622105 -0.978089 -0.0596261 -0.127543 -0.990039 
0.0829368 -0.217197 -0.972598 0.182553 -0.0550247 -0.981655 0.375567 -0.238285 -0.895639 
0.711344 -0.305082 -0.633178 -0.654577 -0.0110235 -0.755915 -0.998547 0.0210398 -0.0496077 
0.403577 -0.0712702 -0.912166 0.722011 -0.135384 -0.678507 -0.711684 -0.00429137 -0.702486 
0.528879 0.0109048 -0.848627 0.806253 0.137558 -0.575355 -0.761458 0.210851 -0.612963 
-0.698972 0.348731 -0.624359 0.571518 0.152876 -0.806223 0.894061 0.377295 -0.24146 
-0.637703 0.42952 -0.639412 -0.845456 0.526631 -0.0886775 0.658727 0.370302 -0.654946 
0.655377 0.376927 -0.654528 -0.606968 0.536779 -0.586054 -0.595236 0.549874 -0.585946 
-0.446087 0.695423 -0.563377 -0.0140146 0.271785 -0.962256 0.496987 0.663525 -0.55923 
0.59235 0.543989 -0.594304 0.590036 0.549115 -0.591886 -0.437762 0.70117 -0.562783 
-0.459255 0.715073 -0.527025 -0.236342 0.729068 -0.642341 -0.0832041 0.694144 -0.715012 
0.132166 0.586706 -0.798942 0.0130413 0.318255 -0.947916 0.130893 0.453752 -0.881463 
-0.0433525 0.287908 -0.956676 -0.0197933 0.292444 -0.956078 -0.190029 0.339022 -0.921387 
-0.182582 0.5367 -0.823782 0.171902 0.735931 -0.654871 0.494477 0.665354 -0.559282 
0.334485 0.707804 -0.6222 0.501777 0.671547 -0.545201 -0.206799 0.96734 -0.146589 
-0.00111212 0.895658 -0.444743 -0.0534117 0.811854 -0.581413 -0.143225 0.69428 -0.705309 
-0.171942 0.645959 -0.743756 -0.0665394 0.631592 -0.77244 -0.16532 0.613602 -0.772116 
0.0673539 0.703787 -0.707211 -0.0135588 0.663544 -0.748014 0.192846 0.783565 -0.590624 
0.456248 0.882427 -0.114715 -0.534065 -0.809129 -0.245124 -0.264157 -0.929306 -0.258092 
-0.0401537 -0.972599 -0.228996 0.159931 -0.934674 -0.317502 0.19125 -0.926229 -0.324844 
0.140582 -0.915827 -0.376161 0.0597178 -0.883689 -0.464249 -0.00182454 -0.847069 -0.53148 
0.0183635 -0.731628 -0.681456 -0.0579901 -0.6647 -0.744857 -0.0290836 -0.675961 -0.736363 
0.0132844 -0.637708 -0.770163 0.0861963 -0.672877 -0.734715 -0.592411 -0.769544 -0.238435 
-0.751884 -0.633303 -0.183297 0.248185 -0.604526 -0.756936 0.314902 -0.566031 -0.761869 
0.354203 -0.620006 -0.700094 0.507867 -0.53188 -0.677625 -0.798472 -0.576933 -0.17202 
-0.72969 -0.541029 0.418139 0.553282 -0.524457 -0.647166 -0.91779 -0.376529 -0.126046 
0.662658 -0.430405 -0.612891 0.665971 -0.429259 -0.610098 0.669771 -0.431579 -0.604273 
-0.984564 -0.162259 -0.0656213 -0.998085 -0.0480658 -0.0389448 0.847363 -0.287398 -0.446518 
-0.999439 0.0221241 -0.0251251 -0.998039 0.0603821 -0.0164989 -0.99967 0.0254257 -0.00359336 
0.937117 -0.0451105 -0.346088 -0.977986 0.208557 0.00694657 0.928602 0.223802 -0.295993 
-0.92376 0.379966 0.0478909 0.909925 0.381057 -0.163805 0.89057 0.423425 -0.166121 
0.871702 0.438575 0.218603 -0.852921 0.517876 0.0658135 -0.843847 0.530203 0.082498 
-0.837248 0.530914 0.130945 0.805975 0.578286 -0.126448 0.739747 0.66945 -0.0679025 
-0.754136 0.649507 0.0970572 -0.706351 0.702516 0.0868349 -0.633931 0.639827 0.434457 
0.696089 0.715181 -0.0630607 0.67689 0.735109 -0.0378754 -0.601615 0.795515 0.0722151 
-0.550435 0.83218 0.0670683 -0.575155 0.743119 0.34201 -0.370371 0.928546 -0.0250513 
0.643868 0.764423 -0.0330536 0.580815 0.812991 -0.0412249 -0.243377 0.968432 -0.0539218 
-0.215474 0.974366 -0.0646703 -0.246416 0.967332 0.0595702 -0.103403 0.974762 -0.197855 
-0.135071 0.88648 -0.442617 -0.163362 0.889196 -0.427368 -0.11383 0.903852 -0.412425 
-0.027558 0.961106 -0.274802 0.10656 0.981488 -0.159142 0.299415 0.948026 -0.107693 
0.470195 0.8807 -0.0573137 0.462226 0.884743 -0.0598004 0.473513 0.880197 0.0322396 
-0.577569 -0.716418 0.391356 -0.302781 -0.897172 0.32157 -0.0882923 -0.965662 0.244338 
0.100153 -0.972646 0.209595 0.158606 -0.979976 0.12038 0.0842369 -0.992575 0.0877423 
-0.0583795 -0.998292 0.0023272 -0.137247 -0.990145 -0.0278504 -0.111909 -0.985832 -0.124943 
-0.0960817 -0.970604 -0.220674 -0.0992681 -0.947017 -0.305459 -0.000250811 -0.961345 -0.275348 
0.140147 -0.955176 -0.260763 0.411788 -0.901267 -0.134715 -0.615186 -0.683115 0.393573 
-0.576999 -0.671656 0.464705 -0.31844 -0.628018 0.710063 -0.10585 -0.618299 0.778782 
0.665419 -0.739364 -0.102749 0.695204 -0.713073 -0.0906534 -0.716475 -0.528654 0.455179 
-0.718643 -0.522925 0.458368 -0.444317 -0.43138 0.785171 0.80088 -0.59704 0.0462094 
0.863294 -0.499237 0.07406 -0.832406 -0.301239 0.46514 -0.674865 -0.280764 0.682444 
0.94635 -0.3096 0.0925768 0.840484 -0.310839 0.443807 -0.890215 -0.118932 0.439741 
-0.549099 -0.0936912 0.830489 0.964629 -0.104047 0.24221 0.812626 -0.0250164 0.582248 
-0.878066 0.0785457 0.472049 -0.49993 0.120248 0.857677 0.949972 0.0270683 0.31116 
0.739839 0.0609023 0.670021 -0.767997 0.231282 0.597234 -0.612148 0.215568 0.760792 
0.914217 0.260586 0.310325 0.820537 0.426551 0.38049 0.757176 0.266124 0.596542 
-0.702411 0.343179 0.623576 -0.67951 0.432857 0.592369 -0.63857 0.326075 0.697068 
-0.42784 0.300714 0.852364 0.810063 0.443253 0.383828 -0.668459 0.486656 0.562431 
-0.574472 0.552738 0.603707 -0.448505 0.390567 0.803928 -0.358819 0.251232 0.898961 
0.439279 0.403437 0.802666 0.690446 0.585897 0.424274 0.661569 0.617846 0.424962 
0.616141 0.576257 0.536934 -0.550089 0.573351 0.607183 -0.535923 0.602593 0.591327 
-0.464063 0.444567 0.766163 -0.295608 0.353135 0.887644 0.365029 0.503796 0.782907 
0.620716 0.666469 0.412954 0.6056 0.679922 0.413467 0.563518 0.625771 0.539313 
-0.497458 0.66098 0.56182 -0.380562 0.758295 0.529302 -0.354278 0.612129 0.706954 
-0.312487 0.812912 0.491454 -0.270671 0.563669 0.780394 0.469013 0.769751 0.433023 
0.395692 0.563635 0.725082 0.560945 0.704726 0.434398 0.545534 0.717028 0.433893 
0.531096 0.681436 0.503569 -0.291814 0.874891 0.386537 -0.269076 0.901145 0.339907 
-0.266627 0.864111 0.426875 -0.206701 0.938416 0.276859 -0.176092 0.796665 0.578201 
-0.162088 0.943888 0.287755 -0.141093 0.71026 0.689654 -0.0582165 0.96453 0.257474 
-0.0406861 0.6185 0.784731 0.0816424 0.939514 0.332637 0.072802 0.64952 0.756851 
0.189495 0.898369 0.396264 0.143382 0.730231 0.667986 0.411281 0.816753 0.404675 
0.306749 0.866248 0.39436 0.289874 0.783297 0.549926 -0.0357061 -0.665548 0.745501 
0.0161927 -0.709741 0.704276 -0.0069123 -0.748527 0.663068 -0.071751 -0.780105 0.62152 
-0.139476 -0.775398 0.615877 -0.177998 -0.776723 0.604168 -0.193517 -0.840267 0.506461 
-0.182556 -0.917561 0.353206 0.0297639 -0.950305 0.309894 0.279978 -0.846154 0.453471 
0.465411 -0.620657 0.631012 -0.295297 -0.409637 0.863133 -0.0637077 -0.634573 0.770233 
-0.113015 -0.568852 0.814638 -0.0387833 -0.653385 0.756032 0.0163663 -0.70346 0.710547 
-0.006986 -0.747797 0.663891 -0.0716134 -0.76777 0.636711 -0.130949 -0.708172 0.69379 
-0.163214 -0.606422 0.778212 -0.190519 -0.59585 0.78017 -0.102732 -0.443496 0.890369 
-0.0188198 -0.416064 0.909141 0.275608 -0.460672 0.843695 0.4945 -0.591756 0.636628 
0.467358 -0.582957 0.664634 0.62711 -0.332781 0.704265 -0.359971 -0.378446 0.85276 
-0.428557 -0.313462 0.847396 -0.29273 -0.328091 0.898146 -0.15579 -0.251568 0.955219 
-0.0379427 -0.227429 0.973055 -0.00844261 -0.246776 0.969036 -0.0304972 -0.278924 0.959829 
-0.0473116 -0.283594 0.957777 -0.0352058 -0.226779 0.97331 -0.143022 -0.182759 0.972699 
-0.128934 -0.15633 0.979253 0.00556491 -0.0252395 0.999666 0.0645004 -0.0869282 0.994124 
0.0830604 -0.00642166 0.996524 0.417834 -0.180751 0.890361 0.629949 -0.28362 0.722997 
0.602171 -0.246247 0.759442 -0.487843 -0.116 0.865189 -0.437778 -0.0879764 0.894768 
-0.253795 -0.134984 0.957793 -0.0425163 -0.0676915 0.9968 -0.0262354 -0.0557331 0.998101 
-0.0040151 -0.0562704 0.998407 -0.0396201 -0.0086518 0.999177 -0.0343324 -0.0135214 0.999319 
-0.00651987 -0.00714546 0.999953 -0.0593028 0.00598291 0.998222 -0.0652303 0.121107 0.990494 
-0.0301433 0.0846467 0.995955 0.0165908 0.055391 0.998327 0.163826 -0.014093 0.986389 
0.226361 0.0490081 0.97281 0.591271 -0.14677 0.793005 0.419909 -0.0799102 0.904041 
-0.380311 0.0583169 0.923018 -0.355683 0.0801343 0.931165 -0.219092 0.0691889 0.973248 
-0.101768 0.0202189 0.994603 -0.0264131 0.0231476 0.999383 0.0374979 0.0105989 0.999241 
0.0107834 -0.0602691 0.998124 -0.0396255 -0.0394778 0.998434 -0.0174511 0.0844442 0.996275 
-0.0234471 -0.0774466 0.996721 -0.0423029 0.058337 0.9974 -0.0575167 0.0559311 0.996777 
-0.0221628 0.0577751 0.998084 0.092837 0.0399222 0.994881 0.220194 -0.00310066 0.975451 
0.577008 -0.0226154 0.816425 0.413335 -0.0322808 0.910007 -0.376297 -0.0355326 0.925818 
-0.375187 -0.0383285 0.926156 -0.229122 0.0670291 0.971087 -0.104391 0.0758314 0.991641 
-0.0364869 0.0577696 0.997663 -0.0884566 0.0233422 0.995807 -0.102045 -0.0861343 0.991044 
0.123938 -0.024687 0.991983 -0.0487604 -0.0536963 0.997366 -0.0803017 -0.0537861 0.995318 
0.0730307 -0.0127919 0.997248 -0.0359031 -0.0237809 0.999072 0.0019777 -0.00584681 0.999981 
0.0812868 0.0222851 0.996442 0.204244 0.0549236 0.977378 0.529378 0.052861 0.846738 
0.360345 0.0318388 0.932276 -0.422781 0.0981058 0.900906 -0.407594 0.205243 0.889799 
-0.367896 0.0752345 0.926819 -0.177172 0.138727 0.974354 -0.103246 0.0962332 0.98999 
-0.0790365 0.0471963 0.995754 -0.100431 -0.0225348 0.994689 -0.0317533 0.0725656 0.996858 
-0.0211045 0.152218 0.988122 -0.0501349 -0.186877 0.981103 0.0341522 0.137525 0.989909 
-0.0208681 0.0388882 0.999026 -0.0505712 -0.010218 0.998668 0.0260167 0.012285 0.999586 
0.136872 0.0363964 0.98992 0.256855 0.103121 0.960933 0.489435 0.151372 0.858801 
0.412095 0.12231 0.902894 -0.325752 0.264891 0.907589 -0.298257 0.227825 0.926897 
-0.244159 0.217662 0.944992 -0.177683 0.0961855 0.979376 -0.153748 0.0408002 0.987267 
-0.068168 -0.010068 0.997623 0.0717222 0.0552207 0.995895 -0.107122 0.0383958 0.993504 
-0.0691176 0.093815 0.993188 0.117591 0.0350108 0.992445 -0.0687225 0.023876 0.99735 
-0.0609477 0.0443057 0.997157 0.0486385 0.113398 0.992358 0.178771 0.164941 0.969967 
0.429145 0.39305 0.813232 0.293611 0.239367 0.925471 0.521942 0.302636 0.797489 
0.514415 0.317341 0.796663 0.505819 0.295143 0.810579 -0.335262 0.220635 0.915926 
-0.288616 0.322275 0.901576 -0.269585 0.177767 0.946426 -0.188318 0.128417 0.973676 
-0.0841978 0.105247 0.990875 0.0287906 0.0596783 0.997802 -0.00558846 0.00469741 0.999973 
-0.0563779 0.153804 0.986492 -0.0211234 0.0104531 0.999722 -0.0125588 0.00447018 0.999911 
0.0376986 0.118217 0.992272 0.139178 0.212982 0.967093 0.43017 0.39643 0.811047 
0.348007 0.475646 0.807869 0.262403 0.296906 0.918146 -0.278988 0.345227 0.896094 
-0.249592 0.418211 0.873386 -0.231665 0.311268 0.921653 -0.134129 0.265964 0.954606 
-0.0314669 0.205639 0.978122 -0.0201073 0.11395 0.993283 -0.0493813 0.137415 0.989282 
-0.0359656 0.146154 0.988608 0.0399694 0.157159 0.986764 0.148542 0.233515 0.96094 
0.342725 0.475036 0.810482 0.344293 0.472773 0.81114 0.260154 0.350306 0.899781 
-0.203692 0.46366 0.862281 -0.193389 0.474718 0.858629 -0.188463 0.448935 0.873464 
-0.126271 0.496277 0.858932 -0.117962 0.413641 0.902766 -0.119584 0.499247 0.858168 
-0.0823423 0.336221 0.938177 -0.0355689 0.503772 0.863104 -0.0276604 0.304006 0.952268 
0.056012 0.528689 0.846965 0.00650676 0.331461 0.943446 0.106163 0.553059 0.82635 
0.0848179 0.399449 0.912823 0.308428 0.488434 0.816275 0.240435 0.521121 0.818916 
0.22044 0.42375 0.878545 
