# vtk DataFile Version 4.2
vtk output
ASCII
DATASET POLYDATA
POINTS 540 float
-17.9862 -34.376 -15.764 -10.0718 -34.376 -16.3597 -2.15737 -34.376 -15.1514 
-41.7294 -26.4616 -15.4893 -33.815 -26.4616 -17.2919 -25.9006 -26.4616 -17.4334 
-17.9862 -26.4616 -17.8044 -10.0718 -26.4616 -17.7055 -2.15737 -26.4616 -17.1481 
5.75705 -26.4616 -15.5576 -49.6439 -18.5472 -17.4453 -41.7294 -18.5472 -19.4393 
-33.815 -18.5472 -19.6739 -25.9006 -18.5472 -18.7402 -17.9862 -18.5472 -17.8484 
-10.0718 -18.5472 -17.8242 -2.15737 -18.5472 -16.6139 5.75705 -18.5472 -15.7389 
-57.5583 -10.6327 -16.1788 -49.6439 -10.6327 -20.2513 -41.7294 -10.6327 -20.9228 
-33.815 -10.6327 -20.551 -25.9006 -10.6327 -19.333 -17.9862 -10.6327 -17.1947 
-10.0718 -10.6327 -17.875 -2.15737 -10.6327 -17.3914 5.75705 -10.6327 -17.8836 
37.4147 -10.6327 -14.6813 -57.5583 -2.71833 -16.9972 -49.6439 -2.71833 -20.7244 
-41.7294 -2.71833 -21.1749 -33.815 -2.71833 -20.6004 -25.9006 -2.71833 -19.0638 
-17.9862 -2.71833 -17.078 -10.0718 -2.71833 -21.0011 -2.15737 -2.71833 -18.3276 
5.75705 -2.71833 -18.893 13.6715 -2.71833 -20.3283 29.5003 -2.71833 -15.05 
37.4147 -2.71833 -16.484 45.3291 -2.71833 -15.5687 53.2435 -2.71833 -14.815 
-57.5583 5.19608 -14.6666 -49.6439 5.19608 -18.1858 -41.7294 5.19608 -19.4962 
-33.815 5.19608 -19.5426 -25.9006 5.19608 -18.4018 -17.9862 5.19608 -17.1329 
-10.0718 5.19608 -19.8281 -2.15737 5.19608 -17.9458 5.75705 5.19608 -18.2773 
13.6715 5.19608 -19.7272 21.5859 5.19608 -15.414 29.5003 5.19608 -16.4551 
37.4147 5.19608 -16.0629 45.3291 5.19608 -16.0288 53.2435 5.19608 -15.1942 
-49.6439 13.1105 -15.5631 -41.7294 13.1105 -17.2467 -33.815 13.1105 -17.8 
-25.9006 13.1105 -17.4766 -17.9862 13.1105 -17.4295 -10.0718 13.1105 -18.1549 
-2.15737 13.1105 -18.8494 5.75705 13.1105 -19.4099 13.6715 13.1105 -18.9937 
21.5859 13.1105 -17.4597 29.5003 13.1105 -16.8943 37.4147 13.1105 -16.9882 
45.3291 13.1105 -14.9869 -33.815 21.0249 -15.4414 -25.9006 21.0249 -16.197 
-17.9862 21.0249 -16.768 -10.0718 21.0249 -17.2216 -2.15737 21.0249 -17.8856 
5.75705 21.0249 -17.9134 13.6715 21.0249 -17.5087 21.5859 21.0249 -17.1001 
29.5003 21.0249 -15.9577 37.4147 21.0249 -14.8908 -17.9862 28.9393 -14.8093 
-10.0718 28.9393 -15.9308 -2.15737 28.9393 -16.4502 5.75705 28.9393 -16.115 
13.6715 28.9393 -15.2521 -17.9862 -36.073 -14.6489 -10.0718 -36.949 -14.6489 
-2.15737 -35.1795 -14.6489 -41.7294 -27.4468 -14.6489 -33.815 -30.8124 -14.6489 
-33.815 -34.376 -11.3895 -23.4356 -34.376 -14.6489 -25.9006 -33.1628 -14.6489 
-25.9006 -34.376 -13.992 1.43743 -34.376 -14.6489 5.75705 -31.3547 -14.6489 
5.75705 -34.376 -13.9126 13.6715 -34.376 -9.95558 -43.4226 -26.4616 -14.6489 
-49.6439 -22.3705 -14.6489 -49.6439 -26.4616 -8.70369 9.01492 -26.4616 -14.6489 
13.6715 -26.4616 -13.171 21.5859 -26.4616 -10.238 29.5003 -26.4616 -9.85745 
37.4147 -26.4616 -8.89537 -54.109 -18.5472 -14.6489 -57.5583 -13.9954 -14.6489 
-57.5583 -18.5472 -10.3462 9.18042 -18.5472 -14.6489 13.6715 -18.5472 -13.0761 
21.5859 -18.5472 -12.0732 29.5003 -18.5472 -11.9601 37.4147 -10.7478 -14.6489 
37.4147 -18.5472 -12.3987 45.3291 -18.5472 -11.8803 53.2435 -18.5472 -11.304 
-59.6592 -10.6327 -14.6489 12.3111 -10.6327 -14.6489 13.6715 -8.02342 -14.6489 
13.6715 -10.6327 -14.0044 21.5859 -10.6327 -12.8883 37.1413 -10.6327 -14.6489 
29.5003 -5.15229 -14.6489 29.5003 -10.6327 -13.6953 37.9365 -10.6327 -14.6489 
45.3291 -8.03493 -14.6489 45.3291 -10.6327 -14.2384 53.2435 -3.42502 -14.6489 
53.2435 -10.6327 -12.9409 61.158 -10.6327 -10.658 -61.1989 -2.71833 -14.6489 
-65.4727 -2.71833 -7.43841 17.5818 -2.71833 -14.6489 27.3438 -2.71833 -14.6489 
21.5859 2.08823 -14.6489 21.5859 -2.71833 -13.5854 54.4841 -2.71833 -14.6489 
61.158 -2.71833 -13.3945 -57.582 5.19608 -14.6489 -57.5583 5.25791 -14.6489 
55.9604 5.19608 -14.6489 53.2435 6.96583 -14.6489 61.158 5.19608 -13.1847 
-52.4152 13.1105 -14.6489 -57.5583 13.1105 -11.5372 -49.6439 15.0361 -14.6489 
-41.7294 21.005 -14.6489 46.623 13.1105 -14.6489 45.3291 14.5481 -14.6489 
53.2435 13.1105 -12.6932 61.158 13.1105 -8.15251 -49.6439 21.0249 -11.043 
-41.6645 21.0249 -14.6489 -41.7294 21.0249 -14.6407 -33.815 23.2263 -14.6489 
-25.9006 26.2201 -14.6489 21.5859 28.8273 -14.6489 29.5003 24.5736 -14.6489 
38.4564 21.0249 -14.6489 37.4147 21.5685 -14.6489 45.3291 21.0249 -12.8469 
53.2435 21.0249 -8.82109 -41.7294 28.9393 -9.0316 -33.815 28.9393 -12.0691 
-19.2819 28.9393 -14.6489 -25.9006 28.9393 -13.7783 -17.9862 29.332 -14.6489 
-10.0718 31.6536 -14.6489 -2.15737 32.631 -14.6489 5.75705 31.8308 -14.6489 
21.0821 28.9393 -14.6489 13.6715 30.0035 -14.6489 21.5859 28.9393 -14.6042 
29.5003 28.9393 -12.6239 37.4147 28.9393 -9.92848 -25.9006 36.8537 -7.95466 
-17.9862 36.8537 -10.2817 -10.0718 36.8537 -11.26 -2.15737 36.8537 -11.6841 
5.75705 36.8537 -11.061 13.6715 36.8537 -9.5752 21.5859 36.8537 -7.03815 
-33.815 -37.1525 -6.73449 -25.9006 -40.4355 -6.73449 -17.9862 -41.9845 -6.73449 
-10.0718 -42.1179 -6.73449 -2.15737 -41.4717 -6.73449 5.75705 -40.1263 -6.73449 
13.6715 -37.2654 -6.73449 -49.6439 -27.5775 -6.73449 -38.8588 -34.376 -6.73449 
-41.7294 -32.7667 -6.73449 19.8418 -34.376 -6.73449 21.5859 -33.0286 -6.73449 
21.5859 -34.376 -4.60791 29.5003 -30.6119 -6.73449 29.5003 -34.376 0.324367 
37.4147 -29.135 -6.73449 -51.5392 -26.4616 -6.73449 -57.5583 -21.4401 -6.73449 
-49.6439 -26.4616 -0.836451 44.6476 -26.4616 -6.73449 45.3291 -26.1375 -6.73449 
45.3291 -26.4616 -6.32285 53.2435 -22.7459 -6.73449 53.2435 -26.4616 0.94014 
-59.3505 -18.5472 -6.73449 -57.5583 -18.5472 0.344526 58.6245 -18.5472 -6.73449 
61.158 -15.7831 -6.73449 61.158 -18.5472 -3.47377 -64.1855 -10.6327 -6.73449 
-65.4727 -4.08294 -6.73449 65.2538 -10.6327 -6.73449 -65.747 -2.71833 -6.73449 
-65.4727 4.03679 -6.73449 -65.4727 -2.71833 -2.62098 68.1326 -2.71833 -6.73449 
69.0724 -2.71833 -1.27374 -65.415 5.19608 -6.73449 -65.4727 5.19608 -3.17969 
68.1793 5.19608 -6.73449 69.0724 5.19608 0.0980986 -62.2787 13.1105 -6.73449 
-57.5583 17.9771 -6.73449 62.4888 13.1105 -6.73449 61.158 15.1568 -6.73449 
-54.9817 21.0249 -6.73449 -57.5583 21.0249 -2.70001 -49.6439 26.0456 -6.73449 
45.3291 27.521 -6.73449 55.3705 21.0249 -6.73449 53.2435 22.4958 -6.73449 
-45.6207 28.9393 -6.73449 -49.6439 28.9393 -1.97176 -41.7294 31.7697 -6.73449 
-33.815 34.9674 -6.73449 29.5003 34.4284 -6.73449 42.5791 28.9393 -6.73449 
37.4147 31.3452 -6.73449 -29.1848 36.8537 -6.73449 -33.815 36.8537 -2.91132 
-25.9006 37.8988 -6.73449 -17.9862 39.5411 -6.73449 -10.0718 40.3827 -6.73449 
-2.15737 40.5309 -6.73449 5.75705 40.0707 -6.73449 13.6715 38.977 -6.73449 
22.2308 36.8537 -6.73449 21.5859 37.052 -6.73449 -33.815 -36.9462 1.17992 
-25.9006 -40.4866 1.17992 -17.9862 -41.7832 1.17992 -10.0718 -41.6268 1.17992 
-2.15737 -40.8367 1.17992 5.75705 -39.852 1.17992 13.6715 -38.2966 1.17992 
21.5859 -36.3558 1.17992 29.5003 -34.7274 1.17992 -38.2486 -34.376 1.17992 
-41.7294 -32.1311 1.17992 -33.815 -34.376 6.34495 21.5859 -34.376 6.98825 
30.7636 -34.376 1.17992 29.5003 -34.376 2.49152 37.4147 -32.6282 1.17992 
45.3291 -30.198 1.17992 53.2435 -26.5507 1.17992 -49.1549 -26.4616 1.17992 
-49.6439 -26.093 1.17992 53.3762 -26.4616 1.17992 53.2435 -26.4616 1.37855 
61.158 -20.866 1.17992 -57.3214 -18.5472 1.17992 -57.5583 -18.2113 1.17992 
63.3226 -18.5472 1.17992 61.158 -18.5472 4.77611 -62.8109 -10.6327 1.17992 
67.7909 -10.6327 1.17992 69.0724 -4.2134 1.17992 -65.2101 -2.71833 1.17992 
-65.4727 3.72777 1.17992 69.33 -2.71833 1.17992 69.0724 -2.71833 1.78198 
-65.5295 5.19608 1.17992 -65.4727 5.61769 1.17992 -65.4727 5.19608 1.30172 
69.1553 5.19608 1.17992 69.0724 5.40668 1.17992 69.0724 5.19608 1.38685 
-64.3228 13.1105 1.17992 65.5232 13.1105 1.17992 61.158 18.562 1.17992 
-59.3871 21.0249 1.17992 -57.5583 23.2943 1.17992 -57.5583 21.0249 5.09926 
45.3291 28.8609 1.17992 58.4033 21.0249 1.17992 53.2435 24.9919 1.17992 
-51.6089 28.9393 1.17992 -49.6439 30.5661 1.17992 -49.6439 28.9393 5.28473 
-41.7294 35.1809 1.17992 29.5003 35.1264 1.17992 45.1651 28.9393 1.17992 
37.4147 32.303 1.17992 -37.5023 36.8537 1.17992 -33.815 38.2101 1.17992 
-33.815 36.8537 5.45452 -25.9006 40.3007 1.17992 -17.9862 41.316 1.17992 
-10.0718 41.4327 1.17992 -2.15737 41.3096 1.17992 5.75705 41.025 1.17992 
13.6715 40.0687 1.17992 24.6746 36.8537 1.17992 21.5859 37.9477 1.17992 
21.5859 36.8537 3.84007 -25.9006 -36.2833 9.09434 -17.9862 -37.9532 9.09434 
-10.0718 -38.0734 9.09434 -2.15737 -37.4581 9.09434 5.75705 -36.4889 9.09434 
13.6715 -35.0765 9.09434 -41.7294 -27.16 9.09434 -30.2678 -34.376 9.09434 
-33.815 -32.5012 9.09434 -25.9006 -34.376 11.0225 -17.9862 -34.376 12.7648 
-10.0718 -34.376 13.3274 -2.15737 -34.376 13.0362 5.75705 -34.376 11.9908 
17.3495 -34.376 9.09434 13.6715 -34.376 10.0494 21.5859 -33.4883 9.09434 
29.5003 -32.1185 9.09434 37.4147 -29.4943 9.09434 45.3291 -27.2481 9.09434 
-42.5589 -26.4616 9.09434 -49.6439 -20.0333 9.09434 -41.7294 -26.4616 9.72046 
-33.815 -26.4616 13.7566 -25.9006 -26.4616 16.1135 21.5859 -26.4616 15.9511 
29.5003 -26.4616 14.5662 37.4147 -26.4616 11.9914 46.7747 -26.4616 9.09434 
45.3291 -26.4616 9.94701 53.2435 -22.0984 9.09434 -51.0801 -18.5472 9.09434 
-57.5583 -10.9047 9.09434 -49.6439 -18.5472 10.242 -41.7294 -18.5472 14.279 
-33.815 -18.5472 16.8684 37.4147 -18.5472 16.9222 45.3291 -18.5472 15.6214 
57.3591 -18.5472 9.09434 53.2435 -18.5472 11.9486 61.158 -13.4888 9.09434 
-57.8018 -10.6327 9.09434 -57.5583 -10.6327 9.27127 -49.6439 -10.6327 13.7569 
-41.7294 -10.6327 16.6319 53.2435 -10.6327 15.3414 63.7823 -10.6327 9.09434 
61.158 -10.6327 10.6011 -59.9797 -2.71833 9.09434 -57.5583 -2.71833 11.2303 
-49.6439 -2.71833 16.1645 65.4791 -2.71833 9.09434 61.158 -2.71833 13.205 
-61.1259 5.19608 9.09434 -57.5583 5.19608 12.1819 -49.6439 5.19608 15.3732 
65.5224 5.19608 9.09434 61.158 5.19608 13.3545 -60.1383 13.1105 9.09434 
-57.5583 17.6658 9.09434 -57.5583 13.1105 11.3899 -49.6439 13.1105 16.1351 
53.2435 13.1105 16.3114 62.1392 13.1105 9.09434 61.158 14.4444 9.09434 
[...]
POINT_DATA 540
SCALARS ImageScalars float
LOOKUP_TABLE default
0 0 0 0 0 0 0 0 0 
0 0 0 0 0 0 0 0 0 
0 0 0 0 0 0 0 0 0 
0 0 0 0 0 0 0 0 0 
0 0 0 0 0 0 0 0 0 
0 0 0 0 0 0 0 0 0 
0 0 0 0 0 0 0 0 0 
0 0 0 0 0 0 0 0 0 
0 0 0 0 0 0 0 0 0 
0 0 0 0 0 0 0 0 0 
0 0 0 0 0 0 0 0 0 
0 0 0 0 0 0 0 0 0 
0 0 0 0 0 0 0 0 0 
0 0 0 0 0 0 0 0 0 
0 0 0 0 0 0 0 0 0 
0 0 0 0 0 0 0 0 0 
0 0 0 0 0 0 0 0 0 
0 0 0 0 0 0 0 0 0 
0 0 0 0 0 0 0 0 0 
0 0 0 0 0 0 0 0 0 
0 0 0 0 0 0 0 0 0 
0 0 0 0 0 0 0 0 0 
0 0 0 0 0 0 0 0 0 
0 0 0 0 0 0 0 0 0 
0 0 0 0 0 0 0 0 0 
0 0 0 0 0 0 0 0 0 
0 0 0 0 0 0 0 0 0 
0 0 0 0 0 0 0 0 0 
0 0 0 0 0 0 0 0 0 
0 0 0 0 0 0 0 0 0 
0 0 0 0 0 0 0 0 0 
0 0 0 0 0 0 0 0 0 
0 0 0 0 0 0 0 0 0 
0 0 0 0 0 0 0 0 0 
0 0 0 0 0 0 0 0 0 
0 0 0 0 0 0 0 0 0 
0 0 0 0 0 0 0 0 0 
0 0 0 0 0 0 0 0 0 
0 0 0 0 0 0 0 0 0 
0 0 0 0 0 0 0 0 0 
0 0 0 0 0 0 0 0 0 
0 0 0 0 0 0 0 0 0 
0 0 0 0 0 0 0 0 0 
0 0 0 0 0 0 0 0 0 
0 0 0 0 0 0 0 0 0 
0 0 0 0 0 0 0 0 0 
0 0 0 0 0 0 0 0 0 
0 0 0 0 0 0 0 0 0 
0 0 0 0 0 0 0 0 0 
0 0 0 0 0 0 0 0 0 
0 0 0 0 0 0 0 0 0 
0 0 0 0 0 0 0 0 0 
0 0 0 0 0 0 0 0 0 
0 0 0 0 0 0 0 0 0 
0 0 0 0 0 0 0 0 0 
0 0 0 0 0 0 0 0 0 
0 0 0 0 0 0 0 0 0 
0 0 0 0 0 0 0 0 0 
0 0 0 0 0 0 0 0 0 
0 0 0 0 0 0 0 0 0 

NORMALS Normals float
0.127565 0.449453 0.884149 -0.033935 0.404488 0.913913 -0.146931 0.418326 0.896334 
0.289711 0.587416 0.755652 0.109424 0.423559 0.899235 0.0321762 0.251813 0.967241 
0.0159452 0.123443 0.992224 -0.0410863 0.0916348 0.994945 -0.133477 0.0814057 0.987703 
-0.231887 0.101261 0.967458 0.373391 0.435823 0.818924 0.124091 0.304181 0.944497 
-0.0438587 0.182218 0.982279 -0.11024 0.115277 0.987197 -0.0571861 -0.0353459 0.997738 
-0.0764657 0.00995975 0.997022 -0.132061 0.00484157 0.99123 -0.210571 0.113497 0.970968 
0.542807 0.233494 0.806747 0.296236 0.194415 0.935119 0.0130007 0.104361 0.994454 
-0.0944456 0.0557389 0.993968 -0.205765 0.0196376 0.978404 -0.0974392 -0.0481161 0.994078 
0.0178696 0.135806 0.990574 -0.000272637 0.100598 0.994927 -0.101032 0.216962 0.970938 
0.0275813 0.250748 0.967659 0.500196 -0.062307 0.863668 0.277144 -0.128508 0.952196 
-0.0112656 -0.0887687 0.995989 -0.130889 -0.0625726 0.98942 -0.21816 -0.0564073 0.974282 
0.0175774 -0.00326814 0.99984 0.191866 0.124773 0.973457 -0.113787 0.0408147 0.992666 
0.0538338 0.0219814 0.998308 -0.377976 0.225068 0.898042 0.1694 0.167748 0.971166 
0.0312719 0.0853581 0.995859 -0.0991618 0.112618 0.988678 -0.121862 0.138983 0.982768 
0.513792 -0.268889 0.814688 0.242711 -0.30117 0.922165 0.0772106 -0.233118 0.969378 
-0.0681258 -0.171701 0.982791 -0.154249 -0.101108 0.982845 0.0607223 0.0223048 0.997905 
0.0895289 -0.170342 0.981309 -0.102856 0.0530389 0.993281 0.0968595 0.059063 0.993544 
-0.210194 -0.0640867 0.975557 -0.118469 0.242423 0.96291 0.0346696 0.118915 0.992299 
-0.0268601 0.0287521 0.999226 -0.0502783 -0.0361428 0.998081 -0.164596 -0.125827 0.978302 
0.253727 -0.382016 0.888643 0.14123 -0.314582 0.938665 0.0114291 -0.243056 0.969945 
-0.0227293 -0.134944 0.990592 0.0423981 -0.0222238 0.998854 0.0899517 -0.146006 0.985186 
0.0787321 -0.0163477 0.996762 0.0104992 -0.0344082 0.999353 -0.129665 -0.127006 0.98339 
-0.125537 0.089438 0.988049 -0.0316817 -0.0295033 0.999062 -0.119646 -0.0661001 0.990614 
-0.23461 -0.168772 0.957327 0.099201 -0.319856 0.942259 0.0804937 -0.218006 0.972622 
0.0629361 -0.158873 0.985291 0.0695534 -0.137577 0.988046 0.0428116 -0.1504 0.987698 
-0.0238773 -0.205839 0.978294 -0.0515602 -0.2145 0.975362 -0.094431 -0.169631 0.980973 
-0.136868 -0.224088 0.96491 -0.173117 -0.334465 0.926371 0.128342 -0.314609 0.940505 
0.0980692 -0.294685 0.950549 0.0116924 -0.320153 0.947294 -0.0689999 -0.343966 0.936444 
-0.093339 -0.399019 0.91218 0.13982 0.537489 0.831598 -0.0300121 0.561924 0.826644 
-0.147773 0.463399 0.873742 0.317221 0.623202 0.714836 0.222997 0.564338 0.794855 
0.361929 0.753475 0.548892 0.173648 0.521947 0.835115 0.171602 0.504796 0.84601 
0.200497 0.574904 0.793276 -0.200197 0.420703 0.884833 -0.254144 0.296764 0.920512 
-0.271167 0.450752 0.850465 -0.425849 0.607464 0.670552 0.325137 0.632957 0.702604 
0.422344 0.616367 0.664618 0.532227 0.808939 0.249703 -0.276917 0.119058 0.953489 
-0.344665 0.159082 0.925148 -0.187064 0.334121 0.92378 -0.0855545 0.455172 0.886284 
-0.176996 0.560807 0.808806 0.567522 0.472602 0.674215 0.608219 0.34277 0.715946 
0.766403 0.549264 0.33307 -0.220158 0.077426 0.972387 -0.234237 0.0424639 0.971252 
-0.0627442 0.156763 0.985641 0.0198494 0.237054 0.971294 0.0273447 0.252123 0.967309 
-0.00149739 0.3416 0.939844 -0.0557979 0.430898 0.900674 -0.326819 0.46998 0.819944 
0.625923 0.275574 0.729575 -0.358969 0.217144 0.907739 -0.404262 0.296363 0.865298 
-0.379186 0.222575 0.898153 -0.00911675 0.108216 0.994086 0.030225 0.248943 0.968046 
0.156886 0.176142 0.971782 0.108197 0.195394 0.974738 0.0192249 0.247351 0.968735 
-0.0962489 0.171973 0.980388 -0.0940797 0.202795 0.974691 -0.121154 0.140239 0.982677 
-0.197799 0.186451 0.962347 -0.491631 0.391379 0.777896 0.663789 -0.0645726 0.745127 
0.976713 0.0705652 0.202615 -0.208259 0.288971 0.934411 0.126738 0.171054 0.977076 
-0.081766 0.231968 0.969281 -0.0277361 0.176888 0.98384 -0.175223 0.13214 0.975621 
-0.459116 0.0995266 0.882784 0.514622 -0.269055 0.814109 0.51405 -0.270205 0.814089 
-0.273127 -0.158176 0.948885 -0.191729 -0.147443 0.970309 -0.488923 -0.2153 0.84534 
0.348829 -0.39814 0.848412 0.565333 -0.473292 0.675569 0.286281 -0.416787 0.862747 
0.220625 -0.435067 0.87295 -0.246373 -0.17814 0.952663 -0.231493 -0.19497 0.953099 
-0.358988 -0.275515 0.89175 -0.644102 -0.465447 0.607035 0.417223 -0.530442 0.73794 
0.219853 -0.434515 0.873419 0.220903 -0.435449 0.872689 0.13713 -0.368125 0.919608 
0.117124 -0.345471 0.931092 -0.132682 -0.441052 0.88762 -0.171122 -0.353165 0.919778 
-0.179011 -0.333085 0.925748 -0.175503 -0.349505 0.92035 -0.269339 -0.407458 0.872603 
-0.536567 -0.638637 0.551578 0.365789 -0.597665 0.713439 0.25601 -0.522238 0.813465 
0.130126 -0.329784 0.935045 0.144667 -0.420661 0.895609 0.13076 -0.329037 0.93522 
0.0879381 -0.411832 0.907007 0.00379303 -0.4665 0.884513 -0.0835815 -0.451137 0.888532 
-0.130696 -0.442275 0.887306 -0.0997262 -0.439116 0.892879 -0.133598 -0.446112 0.884949 
-0.233337 -0.58087 0.779836 -0.307175 -0.732301 0.607765 0.241583 -0.76428 0.597924 
0.161096 -0.736492 0.656984 0.0647468 -0.7338 0.676273 -0.00880021 -0.723982 0.689763 
-0.0976074 -0.749786 0.654442 -0.172282 -0.800892 0.57349 -0.261162 -0.887293 0.38014 
0.424758 0.873334 0.238471 0.284839 0.915677 0.283551 0.0988991 0.96728 0.233641 
-0.0322798 0.98166 0.187889 -0.121548 0.97405 0.190924 -0.255278 0.929725 0.265415 
-0.398885 0.798474 0.450921 0.556651 0.816385 0.153801 0.471607 0.85342 0.221949 
0.489858 0.846311 0.209275 -0.382399 0.71323 0.58743 -0.33549 0.665742 0.666508 
-0.340836 0.825045 0.450701 -0.163431 0.690387 0.704738 -0.235859 0.964412 0.119501 
-0.20043 0.712172 0.672784 0.593855 0.795089 0.123166 0.757307 0.648144 0.0799754 
0.590794 0.780148 -0.205746 -0.304726 0.676693 0.670246 -0.307505 0.676902 0.668763 
-0.321895 0.704357 0.632665 -0.408691 0.696852 0.58938 -0.51512 0.856916 -0.0186095 
0.79766 0.592303 0.113651 0.74717 0.577288 -0.329355 -0.566443 0.569136 0.596009 
-0.617281 0.514861 0.594879 -0.709334 0.631451 0.313234 0.930123 0.348719 0.115174 
0.980103 0.128558 0.15123 -0.727994 0.413233 0.547049 0.983393 0.0801139 0.162851 
0.95511 -0.10303 0.277759 0.989674 0.117252 -0.0824499 -0.8456 0.121764 0.519744 
-0.995304 0.0913507 0.0320113 0.944526 -0.136438 0.298755 0.993607 -0.0971824 0.0574449 
-0.823424 -0.265438 0.501514 -0.972986 -0.216908 -0.0790473 0.754003 -0.496846 0.429678 
0.654641 -0.565625 0.50151 -0.699871 -0.479784 0.529139 -0.672711 -0.527267 0.519085 
0.616271 -0.568995 0.544476 0.761078 -0.606031 0.231274 0.502456 -0.635397 0.586352 
-0.437972 -0.83324 0.337479 -0.588639 -0.687554 0.425176 -0.559518 -0.716936 0.415862 
0.452552 -0.647692 0.612937 0.587839 -0.771708 0.242718 0.3835 -0.690962 0.61278 
0.288465 -0.747588 0.598247 -0.320981 -0.873345 0.366388 -0.413844 -0.847373 0.332704 
-0.37488 -0.851812 0.365899 0.256935 -0.790807 0.555526 0.314227 -0.904484 0.288391 
0.235902 -0.812421 0.533219 0.146737 -0.875967 0.459511 0.059048 -0.914888 0.399367 
-0.0199901 -0.929677 0.367834 -0.0955416 -0.919237 0.381937 -0.184801 -0.895464 0.404961 
-0.268407 -0.893675 0.359587 -0.263508 -0.894101 0.362142 0.450602 0.866925 -0.213068 
0.279527 0.937952 -0.205207 0.0654163 0.976298 -0.206309 -0.0597013 0.973159 -0.222255 
-0.111403 0.967421 -0.227344 -0.158492 0.966211 -0.203263 -0.216492 0.968885 -0.119969 
-0.221314 0.975131 -0.0118297 -0.233929 0.969984 0.0663913 0.491044 0.839569 -0.232378 
0.533715 0.804906 -0.259375 0.436391 0.772518 -0.461279 -0.174636 0.911941 -0.371302 
-0.238651 0.969168 0.0613173 -0.233008 0.972353 -0.0154282 -0.26744 0.963391 0.0188167 
-0.356667 0.934211 0.00623211 -0.515808 0.856035 -0.0338449 0.583964 0.74617 -0.319713 
0.587563 0.742136 -0.322497 -0.517777 0.854871 -0.0332066 -0.515816 0.855533 -0.0446912 
-0.700826 0.712092 -0.0420574 0.729755 0.569919 -0.377689 0.733718 0.563914 -0.379024 
-0.78176 0.621495 -0.050943 -0.729589 0.608842 -0.311467 0.862821 0.400474 -0.308482 
-0.927835 0.371845 -0.0292154 -0.982944 0.124348 -0.135493 0.938657 0.149044 -0.31098 
0.971412 -0.0129425 -0.237049 -0.985399 0.07182 -0.154371 -0.980628 0.0666242 -0.184199 
0.974319 -0.0473001 -0.220147 0.973823 -0.0618921 -0.218719 0.97305 -0.0462379 -0.225911 
-0.966367 -0.20327 -0.157534 -0.965182 -0.21088 -0.154768 -0.965141 -0.201383 -0.167178 
0.925708 -0.346233 -0.152272 -0.847774 -0.530357 -0.000417525 -0.704186 -0.709655 -0.0226292 
0.806213 -0.591614 0.00350813 0.762888 -0.646504 -0.00593138 0.775347 -0.591249 -0.221952 
-0.413015 -0.906438 -0.0882516 -0.62758 -0.778174 -0.0242626 -0.533533 -0.844617 -0.0443234 
0.625206 -0.779912 0.0292417 0.59123 -0.805738 0.035111 0.599987 -0.757744 -0.256591 
0.422979 -0.906135 0.0029604 -0.345487 -0.922147 -0.174022 -0.41139 -0.907104 -0.0889973 
-0.356678 -0.926347 -0.121086 0.356357 -0.934338 -0.00478391 0.306095 -0.952 0.0012372 
0.297377 -0.916358 -0.268058 0.181557 -0.983002 -0.0272778 0.076015 -0.994019 -0.0784044 
-0.000474613 -0.992919 -0.118794 -0.0256477 -0.991747 -0.125622 -0.0764327 -0.99148 -0.105482 
-0.186534 -0.976497 -0.107973 -0.320808 -0.935112 -0.15049 -0.298854 -0.944255 -0.138093 
-0.306094 -0.911842 -0.273587 0.258145 0.739072 -0.622201 0.090642 0.787539 -0.609562 
-0.0282935 0.824766 -0.564766 -0.0860266 0.847246 -0.524188 -0.13016 0.850097 -0.510288 
-0.162392 0.842315 -0.513939 0.500464 0.602242 -0.621965 0.345388 0.711691 -0.611721 
0.404678 0.676418 -0.615382 0.251594 0.673275 -0.69527 0.112196 0.636536 -0.763042 
0.015872 0.661797 -0.749515 -0.0560678 0.737482 -0.673036 -0.123486 0.782802 -0.609895 
-0.157055 0.845324 -0.510647 -0.162295 0.820328 -0.548382 -0.154113 0.840571 -0.519317 
-0.205691 0.826033 -0.524747 -0.258918 0.763019 -0.592253 -0.351782 0.731393 -0.58422 
0.501472 0.595894 -0.627245 0.525815 0.504742 -0.684656 0.494204 0.581287 -0.646427 
0.336227 0.476563 -0.812305 0.187514 0.372859 -0.908743 -0.147613 0.517282 -0.842988 
-0.205595 0.544784 -0.812983 -0.237909 0.637659 -0.73266 -0.365185 0.723381 -0.585969 
-0.338539 0.701403 -0.627236 -0.448275 0.632192 -0.631967 0.551669 0.47695 -0.684237 
0.566676 0.412415 -0.713297 0.513791 0.466457 -0.720025 0.368195 0.361362 -0.85665 
0.217664 0.244067 -0.945015 -0.124263 0.361845 -0.923919 -0.273169 0.397941 -0.875798 
-0.548898 0.500114 -0.669774 -0.430131 0.47138 -0.769928 -0.553216 0.434529 -0.710729 
0.570747 0.406524 -0.713433 0.562172 0.405576 -0.720743 0.416117 0.311837 -0.854169 
0.247432 0.208619 -0.946179 -0.383543 0.295558 -0.874952 -0.603854 0.362949 -0.709667 
-0.50572 0.372376 -0.778193 0.684813 0.145393 -0.714067 0.600267 0.159265 -0.783782 
0.373783 0.0665071 -0.925129 -0.780198 0.0571755 -0.622914 -0.572805 0.148009 -0.806219 
0.728341 0.00562793 -0.685192 0.555904 0.00725984 -0.831215 0.339352 -0.00359305 -0.940652 
-0.796476 -0.136215 -0.589127 -0.60089 -0.145045 -0.786062 0.706533 -0.258588 -0.658744 
0.692835 -0.440336 -0.571038 0.611553 -0.219454 -0.760159 0.33596 -0.0936418 -0.93721 
-0.444463 -0.338616 -0.829332 -0.6804 -0.452436 -0.576505 -0.655829 -0.494881 -0.570071 
-0.651559 -0.446431 -0.613327 0.675259 -0.521914 -0.521183 0.551465 -0.632674 -0.5437 
0.358249 -0.433923 -0.826661 0.208897 -0.24816 -0.945928 -0.0260927 -0.316403 -0.948266 
-0.136985 -0.537217 -0.832246 -0.34734 -0.817312 -0.459734 -0.291788 -0.599517 -0.745278 
-0.498735 -0.703708 -0.506022 -0.467477 -0.723514 -0.507931 -0.467334 -0.701141 -0.538517 
0.510168 -0.674738 -0.533345 0.367726 -0.755462 -0.542268 0.32414 -0.559692 -0.762678 
0.240733 -0.789468 -0.564613 0.151114 -0.476873 -0.865885 0.103036 -0.372277 -0.922385 
0.0332756 -0.383244 -0.923048 0.0158331 -0.362367 -0.931901 0.0029794 -0.344067 -0.93894 
-0.024394 -0.347912 -0.93721 -0.130111 -0.407053 -0.90409 -0.293476 -0.748073 -0.595196 
-0.226531 -0.519133 -0.824127 -0.243434 -0.757778 -0.605403 -0.202737 -0.713938 -0.670217 
-0.263054 -0.816133 -0.514519 -0.254552 -0.812893 -0.523839 -0.245315 -0.80394 -0.541758 
0.169101 -0.799895 -0.575823 0.143123 -0.795115 -0.589328 0.137733 -0.778939 -0.611787 
0.0450143 -0.796388 -0.603108 0.0430552 -0.753722 -0.655782 0.0109494 -0.809572 -0.586919 
0.017487 -0.759699 -0.65004 0.000193343 -0.82309 -0.567911 0.00691155 -0.765514 -0.643382 
-0.0704788 -0.835388 -0.545124 -0.0693802 -0.780819 -0.620892 -0.204944 -0.806379 -0.554752 
-0.201558 -0.807337 -0.554599 -0.201348 -0.804328 -0.559031 0.080519 0.314723 -0.945762 
0.0869595 0.323282 -0.942299 0.0305511 0.510251 -0.859483 -0.0956425 0.527253 -0.844308 
-0.153015 0.473405 -0.867453 0.0988435 0.312139 -0.94488 0.14942 0.276451 -0.949341 
0.077919 0.299075 -0.951043 0.0959979 0.279828 -0.955239 0.0705456 0.397674 -0.914811 
-0.0842862 0.421945 -0.902695 -0.149643 0.465992 -0.872043 -0.151537 0.451099 -0.879515 
-0.136007 0.406544 -0.903451 -0.15757 0.349515 -0.923586 0.204156 0.234257 -0.950497 
0.208614 0.228723 -0.950877 0.100745 0.158764 -0.982163 0.0446548 0.103865 -0.993589 
0.149923 0.118369 -0.981586 0.116499 0.208979 -0.970956 -0.0842305 0.131713 -0.987703 
-0.109189 0.0939299 -0.989573 -0.0986934 0.185243 -0.977724 -0.123894 0.354777 -0.926706 
-0.135244 0.274591 -0.952003 -0.122734 0.354941 -0.926797 -0.222821 0.297814 -0.928255 
0.219409 0.182416 -0.958428 0.210691 0.171605 -0.962373 0.132437 0.0974542 -0.986389 
0.0398334 -0.0106756 -0.999149 0.0398453 -0.0209879 -0.998985 0.210191 0.0925849 -0.973266 
0.0913382 0.041924 -0.994937 -0.204964 -0.01553 -0.978646 -0.0946791 -0.0959648 -0.990872 
0.0188539 0.0375177 -0.999118 -0.0267596 0.156428 -0.987327 -0.107598 0.230117 -0.967197 
-0.247622 0.264672 -0.932004 -0.200801 0.257644 -0.945145 -0.391317 0.128341 -0.911263 
0.265592 0.0685646 -0.961644 0.135685 0.0852867 -0.987074 0.0145729 -0.00605125 -0.999875 
-0.0156893 -0.0683869 -0.997536 0.145688 -0.0810684 -0.986004 0.216078 0.0641289 -0.974268 
0.0127966 -0.166526 -0.985954 -0.237737 -0.0377546 -0.970596 -0.0397692 -0.0212867 -0.998982 
0.155087 0.0524633 -0.986507 0.0656503 0.115117 -0.99118 -0.0504639 0.158909 -0.986003 
-0.202996 0.163589 -0.965418 -0.395672 0.113136 -0.911397 -0.391033 0.112731 -0.913447 
0.246806 -0.0292708 -0.968623 0.181098 -0.0401669 -0.982644 -0.0248268 -0.0564034 -0.998099 
-0.0363971 -0.0289922 -0.998917 0.175444 -0.00780497 -0.984459 0.123731 -0.0958046 -0.98768 
-0.012918 -0.258471 -0.965933 -0.0528964 -0.166678 -0.984591 -0.00915462 -0.000785949 -0.999958 
0.15534 -0.0142703 -0.987758 0.0824562 -0.0138354 -0.996499 -0.0495965 -0.0190548 -0.998588 
-0.231254 -0.0497012 -0.971623 -0.409965 -0.0476304 -0.910857 -0.419092 -0.182783 -0.889355 
-0.391767 -0.0399967 -0.919195 0.115369 -0.168157 -0.978986 0.087885 -0.183769 -0.979033 
0.0810793 -0.180248 -0.980274 0.0245502 -0.057712 -0.998031 0.0325655 -0.0213481 -0.999242 
0.0887546 0.0107159 -0.995996 -0.0336071 -0.171083 -0.984683 -0.0639633 -0.1174 -0.991023 
0.040184 -0.154932 -0.987108 0.0845661 -0.0765988 -0.993469 -0.0213383 -0.312891 -0.949549 
0.142507 -0.191349 -0.971122 0.0570241 -0.239036 -0.969335 -0.126844 -0.498663 -0.857465 
-0.0870602 -0.279861 -0.956085 -0.389042 -0.323602 -0.862513 -0.246973 -0.424676 -0.871008 
-0.226274 -0.306605 -0.924551 0.136578 -0.209092 -0.968311 0.12838 -0.221899 -0.966581 
0.125477 -0.203452 -0.971011 0.0456869 -0.168683 -0.984611 0.0321408 -0.118974 -0.992377 
0.0252994 -0.226587 -0.973662 0.0234401 -0.143871 -0.989319 0.00321769 -0.253989 -0.967202 
-0.00815474 -0.174214 -0.984674 0.000504831 -0.18043 -0.983588 -0.00110202 -0.0930207 -0.995664 
-0.0112639 -0.212607 -0.977073 -0.00406588 -0.107301 -0.994218 -0.0282534 -0.299855 -0.953566 
-0.0704123 -0.220717 -0.972793 -0.046983 -0.153864 -0.986974 -0.0257528 -0.365005 -0.930649 
-0.0498586 -0.489319 -0.870679 -0.0291764 -0.482508 -0.875406 -0.0246977 -0.475995 -0.879101 

