# vtk DataFile Version 4.2
vtk output
ASCII
DATASET POLYDATA
POINTS 522 float
1.40707 -34.0721 -23.9959 9.55348 -34.0721 -23.9597 -14.8857 -42.2185 -17.4102 
-6.73934 -42.2185 -19.7279 1.40707 -34.4601 -23.8835 1.40707 -42.2185 -21.0255 
9.55348 -34.2909 -23.8835 9.55348 -42.2185 -20.6437 17.6999 -42.2185 -18.8768 
25.8463 -42.2185 -15.7391 -31.1786 -34.0721 -17.2718 -23.0321 -34.0721 -19.9427 
-14.8857 -34.0721 -21.1804 0.613419 -34.0721 -23.8835 -6.73934 -34.0721 -22.7013 
1.40707 -31.7584 -23.8835 10.0418 -34.0721 -23.8835 9.55348 -32.4267 -23.8835 
17.6999 -34.0721 -22.7787 25.8463 -34.0721 -21.5346 33.9927 -34.0721 -17.4701 
-39.325 -25.9257 -19.4055 -31.1786 -25.9257 -22.1519 -23.0321 -25.9257 -22.1327 
-14.8857 -25.9257 -22.1066 -6.73934 -25.9257 -23.1172 1.40707 -25.9257 -23.5792 
9.55348 -25.9257 -23.6006 17.6999 -25.9257 -23.3703 25.8463 -25.9257 -22.6544 
33.9927 -25.9257 -20.9562 42.1391 -25.9257 -16.9616 -47.4714 -17.7793 -16.4797 
-39.325 -17.7793 -21.7462 -31.1786 -17.7793 -22.8315 -23.0321 -17.7793 -22.3978 
-14.8857 -17.7793 -21.6843 -6.73934 -17.7793 -22.1613 1.40707 -17.7793 -22.5402 
9.55348 -17.7793 -22.1338 17.6999 -17.7793 -22.4264 25.8463 -17.7793 -22.5928 
33.9927 -17.7793 -22.0426 42.1391 -17.7793 -19.9115 -47.4714 -9.6329 -17.0972 
-39.325 -9.6329 -22.5067 -31.1786 -9.6329 -23.3629 -23.0321 -9.6329 -21.6157 
-14.8857 -9.6329 -20.7001 -6.73934 -9.6329 -22.5866 1.40707 -9.6329 -21.906 
9.55348 -9.6329 -20.7626 17.6999 -9.6329 -21.4644 25.8463 -9.6329 -22.2041 
33.9927 -9.6329 -22.1693 42.1391 -9.6329 -20.7956 50.2855 -9.6329 -16.8019 
-47.4714 -1.4865 -16.9832 -39.325 -1.4865 -21.6808 -31.1786 -1.4865 -22.6014 
-23.0321 -1.4865 -21.7483 -14.8857 -1.4865 -20.7402 -6.73934 -1.4865 -23.078 
1.40707 -1.4865 -20.5715 9.55348 -1.4865 -21.8242 17.6999 -1.4865 -20.5223 
25.8463 -1.4865 -20.9983 33.9927 -1.4865 -21.3275 42.1391 -1.4865 -20.3516 
50.2855 -1.4865 -16.7709 -47.4714 6.65991 -16.777 -39.325 6.65991 -21.8079 
-31.1786 6.65991 -23.0322 -23.0321 6.65991 -22.2853 -14.8857 6.65991 -21.7117 
-6.73934 6.65991 -22.7878 1.40707 6.65991 -21.2074 9.55348 6.65991 -20.6999 
17.6999 6.65991 -18.9713 25.8463 6.65991 -19.8087 33.9927 6.65991 -20.2935 
42.1391 6.65991 -19.3205 50.2855 6.65991 -15.822 -47.4714 14.8063 -15.8041 
-39.325 14.8063 -21.3235 -31.1786 14.8063 -22.0509 -23.0321 14.8063 -21.4683 
-14.8857 14.8063 -20.5081 -6.73934 14.8063 -21.4077 1.40707 14.8063 -20.9246 
9.55348 14.8063 -19.9031 17.6999 14.8063 -19.5346 25.8463 14.8063 -20.6235 
33.9927 14.8063 -20.3828 42.1391 14.8063 -18.3273 -39.325 22.9527 -18.0323 
-31.1786 22.9527 -19.4563 -23.0321 22.9527 -19.6493 -14.8857 22.9527 -19.0177 
-6.73934 22.9527 -19.545 1.40707 22.9527 -19.2743 9.55348 22.9527 -19.5395 
17.6999 22.9527 -20.3189 25.8463 22.9527 -20.2566 33.9927 22.9527 -19.2393 
42.1391 22.9527 -16.157 -31.1786 31.0991 -16.404 -23.0321 31.0991 -17.2663 
-14.8857 31.0991 -18.4481 -6.73934 31.0991 -18.4204 1.40707 31.0991 -18.3462 
9.55348 31.0991 -18.3941 17.6999 31.0991 -19.1272 25.8463 31.0991 -18.8717 
33.9927 31.0991 -17.2174 -14.8857 39.2455 -15.795 -6.73934 39.2455 -16.8141 
1.40707 39.2455 -16.6887 9.55348 39.2455 -15.9813 -14.8857 -43.9183 -15.7371 
-6.73934 -46.7606 -15.7371 1.40707 -47.6427 -15.7371 1.40707 -50.3649 -8.40636 
9.55348 -46.8548 -15.7371 17.6999 -45.0888 -15.7371 25.8463 -42.2201 -15.7371 
-31.1786 -35.5017 -15.7371 -18.2892 -42.2185 -15.7371 -23.0321 -39.3979 -15.7371 
-23.0321 -42.2185 -9.64641 25.8491 -42.2185 -15.7371 33.9927 -36.3335 -15.7371 
-34.135 -34.0721 -15.7371 -39.325 -31.0324 -15.7371 -39.325 -34.0721 -10.1722 
36.4994 -34.0721 -15.7371 42.1391 -27.6808 -15.7371 -44.7291 -25.9257 -15.7371 
-47.4714 -19.7918 -15.7371 -47.4714 -25.9257 -12.0096 43.5701 -25.9257 -15.7371 
-48.132 -17.7793 -15.7371 49.173 -17.7793 -15.7371 50.2855 -14.3178 -15.7371 
50.2855 -17.7793 -14.3758 -48.6887 -9.6329 -15.7371 51.4634 -9.6329 -15.7371 
-48.5613 -1.4865 -15.7371 51.4834 -1.4865 -15.7371 -48.334 6.65991 -15.7371 
50.3867 6.65991 -15.7371 50.2855 6.97661 -15.7371 -47.5262 14.8063 -15.7371 
-47.4714 14.9563 -15.7371 46.9458 14.8063 -15.7371 50.2855 14.8063 -12.4785 
-43.0133 22.9527 -15.7371 -47.4714 22.9527 -10.3618 -39.325 27.3542 -15.7371 
42.7271 22.9527 -15.7371 42.1391 23.9677 -15.7371 -33.2963 31.0991 -15.7371 
-39.325 31.0991 -13.0431 -31.1786 32.4245 -15.7371 -23.0321 35.3766 -15.7371 
17.6999 38.6195 -15.7371 25.8463 36.9959 -15.7371 36.636 31.0991 -15.7371 
33.9927 33.2937 -15.7371 42.1391 31.0991 -10.7608 -31.1786 39.2455 -11.1359 
-15.178 39.2455 -15.7371 -23.0321 39.2455 -14.1456 -14.8857 39.3445 -15.7371 
-6.73934 41.3173 -15.7371 1.40707 41.1659 -15.7371 13.1665 39.2455 -15.7371 
9.55348 39.6783 -15.7371 17.6999 39.2455 -15.3721 25.8463 39.2455 -14.0198 
33.9927 39.2455 -9.24061 -14.8857 47.3919 -9.21642 -6.73934 47.3919 -10.5847 
1.40707 47.3919 -11.1355 9.55348 47.3919 -9.56003 1.40707 -50.6167 -7.59073 
-23.0321 -42.9356 -7.59073 -14.8857 -47.3766 -7.59073 -1.54421 -50.3649 -7.59073 
-6.73934 -49.9138 -7.59073 3.3804 -50.3649 -7.59073 1.40707 -50.3649 -0.456888 
9.55348 -49.5772 -7.59073 17.6999 -48.0016 -7.59073 25.8463 -45.5038 -7.59073 
-39.325 -35.1516 -7.59073 -24.4156 -42.2185 -7.59073 -31.1786 -38.7797 -7.59073 
31.9886 -42.2185 -7.59073 33.9927 -40.9674 -7.59073 -41.3753 -34.0721 -7.59073 
-47.4714 -29.3706 -7.59073 41.9072 -34.0721 -7.59073 42.1391 -33.8333 -7.59073 
-50.0737 -25.9257 -7.59073 48.8872 -25.9257 -7.59073 50.2855 -23.8938 -7.59073 
-52.7315 -17.7793 -7.59073 54.1837 -17.7793 -7.59073 -52.7936 -9.6329 -7.59073 
56.5644 -9.6329 -7.59073 -52.1628 -1.4865 -7.59073 57.0443 -1.4865 -7.59073 
-51.2034 6.65991 -7.59073 55.84 6.65991 -7.59073 -50.7052 14.8063 -7.59073 
53.308 14.8063 -7.59073 50.2855 21.4023 -7.59073 -48.8557 22.9527 -7.59073 
-47.4714 25.9046 -7.59073 49.5359 22.9527 -7.59073 -44.3022 31.0991 -7.59073 
-39.325 36.6892 -7.59073 44.1772 31.0991 -7.59073 42.1391 33.3605 -7.59073 
-36.0731 39.2455 -7.59073 -39.325 39.2455 -1.67758 -31.1786 42.4154 -7.59073 
-23.0321 46.0937 -7.59073 17.6999 46.9368 -7.59073 25.8463 44.2775 -7.59073 
35.348 39.2455 -7.59073 33.9927 40.2128 -7.59073 -18.8901 47.3919 -7.59073 
-23.0321 47.3919 -0.570974 -14.8857 48.4673 -7.59073 -6.73934 49.4088 -7.59073 
1.40707 49.9791 -7.59073 15.9249 47.3919 -7.59073 9.55348 48.8396 -7.59073 
17.6999 47.3919 -6.43835 -23.0321 -42.6918 0.555671 -14.8857 -47.3539 0.555671 
-6.73934 -49.7204 0.555671 1.40707 -50.3289 0.555671 9.55348 -49.2801 0.555671 
17.6999 -47.8745 0.555671 25.8463 -45.4968 0.555671 -39.325 -35.449 0.555671 
-23.9269 -42.2185 0.555671 -31.1786 -38.4436 0.555671 -23.0321 -42.2185 2.1564 
31.7768 -42.2185 0.555671 33.9927 -40.8141 0.555671 -42.932 -34.0721 0.555671 
-47.4714 -31.6981 0.555671 -39.325 -34.0721 5.42412 41.6572 -34.0721 0.555671 
42.1391 -33.5822 0.555671 -52.1363 -25.9257 0.555671 49.0122 -25.9257 0.555671 
50.2855 -24.1299 0.555671 -55.4668 -17.7793 0.555671 54.2301 -17.7793 0.555671 
-55.5938 -9.6329 0.555671 -55.6178 -9.6329 1.16221 57.0942 -9.6329 0.555671 
-54.8499 -1.4865 0.555671 57.7442 -1.4865 0.555671 -52.5953 6.65991 0.555671 
56.671 6.65991 0.555671 -51.3713 14.8063 0.555671 54.1584 14.8063 0.555671 
50.2855 22.8647 0.555671 -50.1726 22.9527 0.555671 -47.4714 28.4433 0.555671 
50.2402 22.9527 0.555671 -46.1316 31.0991 0.555671 44.857 31.0991 0.555671 
42.1391 34.2257 0.555671 -40.1448 39.2455 0.555671 -39.325 39.9877 0.555671 
-39.325 39.2455 3.29718 -31.1786 45.0629 0.555671 25.8463 46.4745 0.555671 
36.7566 39.2455 0.555671 33.9927 41.4481 0.555671 -23.6482 47.3919 0.555671 
-23.0321 47.5631 0.555671 -23.0321 47.3919 1.07631 -14.8857 49.2759 0.555671 
-14.8857 47.3919 5.20397 -6.73934 50.584 0.555671 1.40707 51.1869 0.555671 
9.55348 51.1976 0.555671 23.6683 47.3919 0.555671 17.6999 49.7089 0.555671 
-14.8857 -44.8381 8.70208 -6.73934 -47.0873 8.70208 1.40707 -47.3785 8.70208 
9.55348 -46.3914 8.70208 17.6999 -45.27 8.70208 25.8463 -42.6043 8.70208 
-31.1786 -35.9635 8.70208 -19.5953 -42.2185 8.70208 -23.0321 -40.0325 8.70208 
-14.8857 -42.2185 12.5438 -6.73934 -42.2185 15.2117 1.40707 -42.2185 15.0607 
9.55348 -42.2185 13.9748 17.6999 -42.2185 12.7808 26.5412 -42.2185 8.70208 
25.8463 -42.2185 9.25558 33.9927 -37.3607 8.70208 -47.4714 -29.4 8.70208 
-36.6015 -34.0721 8.70208 -39.325 -33.0686 8.70208 -31.1786 -34.0721 11.3841 
-23.0321 -34.0721 15.6464 37.6557 -34.0721 8.70208 33.9927 -34.0721 12.2054 
42.1391 -29.4118 8.70208 -50.8225 -25.9257 8.70208 -47.4714 -25.9257 12.9257 
45.2721 -25.9257 8.70208 42.1391 -25.9257 12.0855 50.2855 -19.3299 8.70208 
-55.4388 -17.7793 8.70208 -55.6178 -14.6425 8.70208 51.3078 -17.7793 8.70208 
50.2855 -17.7793 10.0434 -55.8933 -9.6329 8.70208 -55.6178 -6.07589 8.70208 
-55.6178 -9.6329 9.5271 54.8157 -9.6329 8.70208 50.2855 -9.6329 15.0598 
-55.1967 -1.4865 8.70208 55.8533 -1.4865 8.70208 50.2855 -1.4865 16.8093 
-52.4056 6.65991 8.70208 55.1124 6.65991 8.70208 50.2855 6.65991 16.7632 
-50.0085 14.8063 8.70208 -47.4714 14.8063 12.8323 52.679 14.8063 8.70208 
50.2855 19.7646 8.70208 50.2855 14.8063 13.2226 -47.9449 22.9527 8.70208 
-47.4714 24.0753 8.70208 -47.4714 22.9527 9.50976 48.6491 22.9527 8.70208 
-44.0657 31.0991 8.70208 -39.325 37.2668 8.70208 -39.325 31.0991 14.706 
42.9651 31.0991 8.70208 42.1391 32.0675 8.70208 42.1391 31.0991 10.1107 
-36.7556 39.2455 8.70208 -31.1786 42.5109 8.70208 -31.1786 39.2455 12.8337 
-23.0321 44.4001 8.70208 -23.0321 39.2455 14.2504 -14.8857 45.7354 8.70208 
-14.8857 39.2455 15.6293 -6.73934 39.2455 15.9802 25.8463 45.3048 8.70208 
34.6293 39.2455 8.70208 33.9927 39.76 8.70208 33.9927 39.2455 9.58636 
-8.54658 47.3919 8.70208 -6.73934 47.7871 8.70208 -6.73934 47.3919 9.25904 
1.40707 48.6917 8.70208 1.40707 47.3919 10.5388 9.55348 49.6442 8.70208 
9.55348 47.3919 12.4202 20.888 47.3919 8.70208 17.6999 48.6278 8.70208 
17.6999 47.3919 10.9955 -14.8857 -37.297 16.8485 -6.73934 -40.186 16.8485 
1.40707 -39.5803 16.8485 9.55348 -38.7593 16.8485 17.6999 -37.5465 16.8485 
[...]
POINT_DATA 522
SCALARS ImageScalars float
LOOKUP_TABLE default
0 0 0 0 0 0 0 0 0 
0 0 0 0 0 0 0 0 0 
0 0 0 0 0 0 0 0 0 
0 0 0 0 0 0 0 0 0 
0 0 0 0 0 0 0 0 0 
0 0 0 0 0 0 0 0 0 
0 0 0 0 0 0 0 0 0 
0 0 0 0 0 0 0 0 0 
0 0 0 0 0 0 0 0 0 
0 0 0 0 0 0 0 0 0 
0 0 0 0 0 0 0 0 0 
0 0 0 0 0 0 0 0 0 
0 0 0 0 0 0 0 0 0 
0 0 0 0 0 0 0 0 0 
0 0 0 0 0 0 0 0 0 
0 0 0 0 0 0 0 0 0 
0 0 0 0 0 0 0 0 0 
0 0 0 0 0 0 0 0 0 
0 0 0 0 0 0 0 0 0 
0 0 0 0 0 0 0 0 0 
0 0 0 0 0 0 0 0 0 
0 0 0 0 0 0 0 0 0 
0 0 0 0 0 0 0 0 0 
0 0 0 0 0 0 0 0 0 
0 0 0 0 0 0 0 0 0 
0 0 0 0 0 0 0 0 0 
0 0 0 0 0 0 0 0 0 
0 0 0 0 0 0 0 0 0 
0 0 0 0 0 0 0 0 0 
0 0 0 0 0 0 0 0 0 
0 0 0 0 0 0 0 0 0 
0 0 0 0 0 0 0 0 0 
0 0 0 0 0 0 0 0 0 
0 0 0 0 0 0 0 0 0 
0 0 0 0 0 0 0 0 0 
0 0 0 0 0 0 0 0 0 
0 0 0 0 0 0 0 0 0 
0 0 0 0 0 0 0 0 0 
0 0 0 0 0 0 0 0 0 
0 0 0 0 0 0 0 0 0 
0 0 0 0 0 0 0 0 0 
0 0 0 0 0 0 0 0 0 
0 0 0 0 0 0 0 0 0 
0 0 0 0 0 0 0 0 0 
0 0 0 0 0 0 0 0 0 
0 0 0 0 0 0 0 0 0 
0 0 0 0 0 0 0 0 0 
0 0 0 0 0 0 0 0 0 
0 0 0 0 0 0 0 0 0 
0 0 0 0 0 0 0 0 0 
0 0 0 0 0 0 0 0 0 
0 0 0 0 0 0 0 0 0 
0 0 0 0 0 0 0 0 0 
0 0 0 0 0 0 0 0 0 
0 0 0 0 0 0 0 0 0 
0 0 0 0 0 0 0 0 0 
0 0 0 0 0 0 0 0 0 
0 0 0 0 0 0 0 0 0 

NORMALS Normals float
0.0718708 0.127164 0.989274 -0.0793002 0.148718 0.985695 0.319037 0.642184 0.697005 
0.192348 0.518359 0.833251 0.0713435 0.142274 0.987253 0.0508957 0.518665 0.853461 
-0.0802934 0.157758 0.984208 -0.108345 0.570468 0.814142 -0.229228 0.667007 0.708912 
-0.397099 0.743512 0.538054 0.34291 0.683684 0.644197 0.209436 0.438273 0.874102 
0.153789 0.245611 0.957091 0.081825 0.132121 0.987851 0.17223 0.184314 0.96766 
0.0596364 0.0669735 0.995971 -0.0827378 0.152037 0.984906 -0.0667054 0.095406 0.993201 
-0.13176 0.218874 0.966816 -0.287678 0.307859 0.906898 -0.494966 0.501543 0.709551 
0.418258 0.404076 0.8135 0.148441 0.256463 0.955088 -0.00270218 0.132264 0.991211 
0.0575692 0.0302901 0.997882 0.0920075 -0.0338372 0.995183 0.0283012 -0.0868645 0.995818 
-0.0132009 -0.113088 0.993497 -0.0566435 -0.0208094 0.998178 -0.13811 0.0546572 0.988908 
-0.292918 0.254876 0.921541 -0.558637 0.449321 0.697162 0.721206 0.16801 0.672038 
0.317894 0.178155 0.931238 0.0332983 0.0669993 0.997197 -0.0694376 -0.0321568 0.997068 
-0.0153578 -0.0859266 0.996183 0.0526515 -0.0304833 0.998148 -0.00210575 -0.101626 0.99482 
-0.00652787 -0.175985 0.984371 0.0279288 -0.116396 0.99281 -0.0231267 -0.027474 0.999355 
-0.157839 0.0663498 0.985233 -0.373828 0.18459 0.908944 0.731483 0.0233213 0.68146 
0.289489 -0.00912679 0.957138 -0.0646766 -0.0159901 0.997778 -0.155241 -0.0407253 0.987037 
0.0581665 -0.0580116 0.99662 0.0785816 0.0566097 0.995299 -0.113743 -0.119005 0.986357 
-0.0246457 -0.018125 0.999532 0.0881348 -0.11437 0.989521 0.0428597 -0.096948 0.994366 
-0.082297 -0.0437553 0.995647 -0.284367 0.0258875 0.958366 -0.628855 0.0939983 0.77182 
0.74949 -0.015385 0.661836 0.279217 -0.0372759 0.959504 0.0043036 -0.0155111 0.99987 
-0.113762 0.0408622 0.992667 0.0794361 0.0629366 0.994851 -0.00409015 0.0125296 0.999913 
-0.076071 -0.0426492 0.99619 -0.00369374 0.00205096 0.999991 -0.051244 -0.153971 0.986746 
0.0486677 -0.147695 0.987835 -0.0371692 -0.114496 0.992728 -0.24277 -0.0876372 0.966117 
-0.590858 -0.0546212 0.804924 0.787698 -0.0555596 0.613551 0.30821 -0.0181267 0.951146 
0.027811 -0.0316186 0.999113 -0.0801523 -0.0131719 0.996696 0.0300349 -0.0119787 0.999477 
-0.0306404 -0.0965621 0.994855 -0.127456 0.0216663 0.991608 -0.14255 -0.122683 0.982155 
-0.0457804 -0.0598422 0.997158 0.081115 -0.0228018 0.996444 -0.0277843 -0.0579407 0.997933 
-0.245368 -0.122543 0.961654 -0.603548 -0.173804 0.778153 0.783416 -0.218818 0.581703 
0.29024 -0.218642 0.931642 0.00577713 -0.210322 0.977615 -0.0943236 -0.163212 0.982072 
-0.00282312 -0.164511 0.986371 0.0265701 -0.204348 0.978538 -0.0934581 -0.123265 0.987963 
-0.0805022 -0.0670722 0.994495 0.0456413 0.0889236 0.994992 0.0495816 0.0280469 0.998376 
-0.14559 -0.0633674 0.987314 -0.358539 -0.166474 0.918551 0.343256 -0.407627 0.846177 
0.0913292 -0.33023 0.939472 -0.0271022 -0.239441 0.970533 -0.00550592 -0.11981 0.992782 
0.0150285 -0.172777 0.984846 -0.000268632 -0.150211 0.988654 0.0671881 -0.0908408 0.993596 
0.0424971 -0.0288485 0.99868 -0.0630798 -0.102018 0.992781 -0.220407 -0.166448 0.961101 
-0.49276 -0.315978 0.810768 0.190724 -0.400807 0.89609 0.117401 -0.29978 0.946757 
0.0680304 -0.174544 0.982296 -0.00599547 -0.166435 0.986034 -0.00160677 -0.159555 0.987188 
0.0485494 -0.207843 0.976957 0.0285295 -0.262357 0.964549 -0.0984556 -0.317256 0.943215 
-0.345103 -0.41601 0.841332 0.150286 -0.408816 0.900158 0.0448854 -0.35175 0.935017 
-0.0492463 -0.345479 0.937133 -0.073514 -0.407572 0.910209 0.345628 0.717251 0.605056 
0.197725 0.779528 0.594341 -0.000698071 0.835708 0.549173 -0.0207786 0.985615 0.167726 
-0.139382 0.8373 0.528678 -0.244459 0.8041 0.541907 -0.397107 0.743576 0.53796 
0.367904 0.737832 0.565907 0.3753 0.721106 0.58237 0.386224 0.712818 0.585425 
0.472688 0.85175 0.226027 -0.397163 0.74354 0.537969 -0.521174 0.584458 0.621922 
0.393155 0.720746 0.570924 0.458681 0.638487 0.618018 0.450334 0.837828 0.308615 
-0.552863 0.548505 0.627284 -0.590501 0.499886 0.633579 0.616665 0.431637 0.658342 
0.728569 0.229623 0.645337 0.740033 0.453099 0.497044 -0.599637 0.480256 0.640148 
0.747699 0.164502 0.643339 -0.661557 0.311474 0.682148 -0.679688 0.227344 0.69738 
-0.72986 0.343989 0.590741 0.779729 0.0221008 0.625726 -0.675673 0.10138 0.730197 
0.79737 -0.0198808 0.603164 -0.639598 -0.0507577 0.767032 0.82691 -0.0585098 0.559283 
-0.608207 -0.173917 0.774492 -0.607269 -0.178249 0.774243 0.78595 -0.21834 0.578455 
0.783367 -0.222202 0.580485 -0.540583 -0.248691 0.803693 -0.751305 -0.318159 0.5782 
0.520747 -0.408867 0.749434 0.833948 -0.355832 0.421798 0.393701 -0.471925 0.788851 
-0.512201 -0.324912 0.795036 -0.506747 -0.34129 0.791662 0.251444 -0.435721 0.864247 
0.488501 -0.55252 0.675343 0.213321 -0.428882 0.877812 0.164481 -0.392888 0.904757 
-0.0767791 -0.530444 0.844236 -0.174763 -0.547667 0.818241 -0.434962 -0.456972 0.775876 
-0.372264 -0.506041 0.778037 -0.672986 -0.592666 0.442535 0.386216 -0.6636 0.640681 
0.15301 -0.411376 0.898531 0.234666 -0.515042 0.824417 0.151298 -0.411913 0.898575 
0.0558218 -0.441308 0.895618 -0.054427 -0.422343 0.9048 -0.0802473 -0.47136 0.878282 
-0.0792306 -0.420603 0.903778 -0.0905835 -0.55718 0.825436 -0.220342 -0.665732 0.712917 
-0.494318 -0.78156 0.380543 0.188633 -0.869094 0.457268 0.0792931 -0.824233 0.560671 
-0.0465954 -0.780197 0.623795 -0.166148 -0.802645 0.572849 -0.0209447 0.99068 0.134593 
0.482649 0.86504 0.136948 0.386845 0.907368 0.164418 0.0545586 0.989643 0.132777 
0.187743 0.973183 0.132922 -0.0533157 0.989911 0.131276 -0.0260442 0.990078 -0.138087 
-0.154546 0.980245 0.123428 -0.230903 0.962399 0.143079 -0.382518 0.909574 0.162344 
0.441466 0.876619 0.191433 0.469744 0.872415 0.135032 0.403179 0.904958 0.136002 
-0.520085 0.837851 0.165882 -0.567891 0.804921 0.172054 0.491284 0.843079 0.218763 
0.722363 0.614023 0.318068 -0.70123 0.690324 0.178127 -0.704501 0.68676 0.178995 
0.818147 0.468197 0.333807 -0.78718 0.581316 0.205957 -0.812595 0.543661 0.210051 
0.913377 0.127493 0.386638 -0.872407 0.427365 0.237201 0.931602 -0.0326673 0.362008 
-0.950494 0.152455 0.270775 0.935574 -0.0916405 0.341033 -0.953394 -0.040443 0.299004 
0.96693 -0.0841829 0.240749 -0.925225 -0.221059 0.308368 0.966936 -0.139187 0.213686 
-0.889679 -0.343042 0.301319 -0.854086 -0.434182 0.286396 0.899376 -0.32223 0.29545 
0.865565 -0.392709 0.310768 -0.841442 -0.457362 0.287743 0.747366 -0.543169 0.382637 
0.591681 -0.663731 0.457576 -0.736847 -0.620548 0.268284 -0.694303 -0.666702 0.271019 
0.520122 -0.710596 0.473843 0.644272 -0.751629 0.141303 0.424079 -0.769894 0.476886 
0.321686 -0.842803 0.431511 -0.246636 -0.839379 0.484369 -0.350207 -0.8409 0.412605 
-0.535884 -0.790723 0.295949 -0.507933 -0.806205 0.303377 0.251621 -0.889465 0.381497 
0.245625 -0.969115 -0.0220129 0.182427 -0.91771 0.352886 0.0913178 -0.916081 0.390457 
-0.0336316 -0.906855 0.420099 -0.232253 -0.846106 0.479753 -0.165491 -0.867046 0.469941 
-0.256588 -0.868871 0.423351 0.497024 0.856313 -0.140339 0.390699 0.910143 -0.137822 
0.171957 0.972393 -0.157742 -0.0266051 0.983958 -0.176403 -0.144376 0.974139 -0.173805 
-0.213928 0.96477 -0.153143 -0.379167 0.913411 -0.148031 0.360916 0.926075 -0.110117 
0.485961 0.862492 -0.141241 0.378421 0.914069 -0.145861 0.493552 0.849456 -0.186631 
-0.514962 0.842931 -0.155826 -0.569705 0.806552 -0.157831 0.45114 0.889516 -0.0723513 
0.62205 0.782881 -0.0122869 0.327183 0.898702 -0.292036 -0.699725 0.694621 -0.166991 
-0.705412 0.688805 -0.167153 0.836151 0.546743 0.0438659 -0.783347 0.602683 -0.152123 
-0.80983 0.567883 -0.147255 0.972514 0.172156 0.156778 -0.885868 0.441176 -0.143531 
0.982176 -0.0352558 0.184628 0.986536 -0.0335609 0.160064 -0.976693 0.192355 -0.0952353 
0.968509 -0.176515 0.175592 -0.997376 -0.0250482 -0.0679224 0.977308 -0.19975 0.070495 
-0.975214 -0.217113 -0.0426473 0.989416 -0.139799 -0.0388777 -0.934233 -0.354837 -0.0360587 
-0.875647 -0.480689 -0.0466905 0.952987 -0.29856 -0.0517578 0.899778 -0.434821 -0.0364766 
-0.874835 -0.482153 -0.046821 0.867291 -0.497365 -0.020832 -0.776835 -0.627458 -0.0531372 
-0.728773 -0.683198 -0.0461566 0.66927 -0.742731 0.0206947 0.645235 -0.763681 0.021542 
0.646457 -0.753276 -0.121117 0.416513 -0.909129 -0.000624814 -0.438483 -0.897231 0.0520525 
-0.633503 -0.773283 -0.0266 -0.591171 -0.806436 -0.0133298 0.243635 -0.966581 -0.079766 
0.231028 -0.969243 -0.0848234 0.228774 -0.967158 -0.110757 0.188022 -0.971856 -0.141928 
0.183366 -0.914545 -0.360534 0.111216 -0.989379 -0.0935989 0.0375313 -0.996613 -0.0731677 
-0.0863819 -0.995438 0.0405041 -0.392942 -0.917428 0.0626283 -0.271466 -0.959139 0.0797372 
0.362404 0.829005 -0.425928 0.139063 0.87937 -0.455379 -0.038251 0.872427 -0.487244 
-0.117326 0.866026 -0.486039 -0.198615 0.862788 -0.464919 -0.378167 0.812102 -0.444386 
0.34233 0.840722 -0.41952 0.430875 0.805548 -0.406742 0.455057 0.791529 -0.407928 
0.334522 0.741479 -0.581638 0.0933101 0.691433 -0.716389 -0.0546568 0.649921 -0.758034 
-0.0979514 0.707452 -0.699941 -0.18032 0.759185 -0.625398 -0.394023 0.803681 -0.445918 
-0.377799 0.801012 -0.464378 -0.563316 0.67675 -0.474009 0.545168 0.754568 -0.365266 
0.313594 0.852623 -0.417962 0.313705 0.852347 -0.418443 0.320535 0.787242 -0.52679 
0.331489 0.565273 -0.755369 -0.615435 0.628632 -0.475459 -0.547296 0.581228 -0.602197 
-0.643745 0.599343 -0.475794 0.682896 0.648298 -0.336694 0.534745 0.622732 -0.571185 
-0.669034 0.572344 -0.474148 -0.588656 0.534064 -0.606844 -0.745452 0.484979 -0.457271 
0.95 0.223102 -0.218461 0.973011 0.131349 -0.189728 -0.762356 0.459371 -0.455841 
-0.728634 0.459237 -0.508127 0.989402 -0.0117147 -0.144728 0.982752 -0.0996776 -0.155768 
0.981492 -0.00778454 -0.191347 -0.874593 0.235636 -0.423749 -0.655166 0.261632 -0.708735 
0.960101 -0.220614 -0.171859 -0.923568 0.0148822 -0.383146 -0.640067 0.0686401 -0.765247 
0.933332 -0.280348 -0.224269 -0.923697 -0.183529 -0.336306 -0.69497 -0.114591 -0.709849 
0.903893 -0.2614 -0.338595 0.79166 -0.275307 -0.545417 -0.886717 -0.343428 -0.309499 
-0.854109 -0.420951 -0.305448 -0.801339 -0.323274 -0.503338 0.864266 -0.312244 -0.394395 
0.857062 -0.334238 -0.392083 0.847452 -0.313979 -0.428068 -0.825498 -0.472803 -0.308238 
0.780566 -0.479224 -0.401323 0.621004 -0.662693 -0.41856 0.57029 -0.427041 -0.701716 
-0.73101 -0.611657 -0.30249 -0.718374 -0.626537 -0.302308 -0.710334 -0.606894 -0.356518 
0.520299 -0.737248 -0.430991 0.341087 -0.822198 -0.455687 0.299 -0.707299 -0.640568 
0.167733 -0.823597 -0.541806 0.121362 -0.6659 -0.736103 0.159465 -0.823547 -0.544372 
0.0814695 -0.594331 -0.800083 0.0853738 -0.489397 -0.867872 -0.441849 -0.842457 -0.308279 
-0.601228 -0.741817 -0.297041 -0.592494 -0.749198 -0.296063 -0.587418 -0.737472 -0.33328 
0.162714 -0.837221 -0.522098 0.158786 -0.839959 -0.518899 0.159423 -0.824588 -0.542807 
0.110439 -0.874126 -0.472977 0.124411 -0.820277 -0.558273 -0.00395366 -0.925741 -0.378137 
0.0338413 -0.825552 -0.56331 -0.316795 -0.89789 -0.305671 -0.2365 -0.920317 -0.311584 
-0.226827 -0.877811 -0.421897 0.266685 0.533413 -0.802714 0.076288 0.596168 -0.799227 
-0.050784 0.536029 -0.842671 -0.0682849 0.552507 -0.830707 -0.14393 0.560804 -0.815342 
-0.313377 0.483828 -0.817132 0.223577 0.568806 -0.7915 0.173976 0.471166 -0.864716 
0.295677 0.503099 -0.812075 0.292437 0.47225 -0.831541 0.245997 0.426481 -0.870402 
0.0551336 0.381788 -0.922604 -0.0406352 0.376868 -0.925375 -0.0287868 0.398831 -0.916572 
-0.132248 0.438515 -0.88894 -0.337624 0.468588 -0.816355 -0.309071 0.453172 -0.836128 
-0.392535 0.381358 -0.836948 0.2743 0.548014 -0.790215 0.44754 0.410272 -0.794598 
0.217618 0.541307 -0.812176 0.122571 0.384364 -0.915009 0.198081 0.238962 -0.950611 
0.185686 0.159607 -0.96956 0.0434053 0.22109 -0.974287 -0.0413869 0.233675 -0.971434 
-0.0404918 0.229773 -0.972402 -0.111962 0.171784 -0.978752 -0.238032 0.213891 -0.947413 
-0.395286 0.375407 -0.838343 -0.372334 0.356909 -0.856728 -0.422703 0.332145 -0.843209 
0.520684 0.322302 -0.790575 0.422924 0.319865 -0.847833 0.0833999 0.252384 -0.964026 
0.0216125 0.210568 -0.97734 0.0820054 0.0573988 -0.994978 0.234946 -0.0155634 -0.971884 
0.125981 0.0960802 -0.987369 -0.0364382 0.0388852 -0.998579 -0.0818901 0.10721 -0.990858 
-0.132188 0.0302397 -0.990763 -0.142285 0.0759213 -0.98691 -0.254998 0.221192 -0.941302 
-0.423563 0.330492 -0.843427 -0.419998 0.328457 -0.846001 0.676085 0.052172 -0.734974 
0.430588 0.0454143 -0.901405 0.123809 0.0896893 -0.988244 -0.0933565 0.106379 -0.989933 
-0.0373744 0.0105278 -0.999246 0.233448 0.00932897 -0.972324 0.0833011 -0.0594035 -0.994752 
-0.0250569 -0.218743 -0.975461 -0.0509826 -0.0416513 -0.997831 -0.154319 -0.0935739 -0.98358 
-0.0544162 0.0281459 -0.998122 -0.10603 0.123554 -0.986657 -0.516858 0.248615 -0.819175 
-0.304736 0.227583 -0.924847 0.693778 -0.199594 -0.691979 0.492305 -0.130947 -0.860517 
0.136343 -0.0659554 -0.988464 -0.072399 -0.0197249 -0.997181 -0.0105207 0.00251614 -0.999941 
0.170009 0.0238458 -0.985154 -0.120558 -0.0546406 -0.991201 -0.00399065 -0.0552033 -0.998467 
0.036795 -0.188465 -0.98139 -0.0588531 -0.0909521 -0.994115 0.0758247 0.0442982 -0.996137 
-0.0476054 0.0857485 -0.995179 -0.636838 0.0690841 -0.767896 -0.28398 0.104313 -0.953139 
0.643675 -0.321088 -0.694683 0.638781 -0.317005 -0.701047 0.633209 -0.317376 -0.705917 
0.209869 -0.17369 -0.962178 -0.0223464 -0.0769962 -0.996781 0.00901031 0.0300559 -0.999508 
0.173826 -0.0293904 -0.984338 0.00609331 -0.0744979 -0.997203 -0.16638 0.0202592 -0.985854 
-0.0930689 -0.226928 -0.969454 0.101287 -0.0147637 -0.994748 0.120813 0.0101561 -0.992623 
-0.0416445 -0.00339027 -0.999127 -0.688831 -0.112667 -0.716113 -0.299891 -0.0232462 -0.95369 
0.49885 -0.238067 -0.833351 0.341014 -0.209359 -0.916449 0.123565 -0.0559808 -0.990756 
0.0433697 0.0263169 -0.998712 0.0516227 -0.0241444 -0.998375 -0.0511012 -0.154857 -0.986614 
-0.157279 -0.0940724 -0.983064 0.0108989 0.0347438 -0.999337 0.157664 0.0442134 -0.986502 
0.0861377 -0.0129956 -0.996198 -0.0811473 -0.0674969 -0.994414 -0.6443 -0.268805 -0.715976 
-0.378879 -0.187096 -0.906337 0.475579 -0.2049 -0.855477 0.468818 -0.241402 -0.849667 
0.448358 -0.194186 -0.872506 0.228075 -0.150441 -0.961951 0.0424858 -0.0880297 -0.995211 
-0.0139786 -0.10896 -0.993948 -0.0528434 -0.145576 -0.987935 -0.00313762 -0.0233624 -0.999722 
0.053562 0.0939741 -0.994133 0.0607964 0.00932515 -0.998107 0.0108616 -0.0674898 -0.997661 
-0.225389 -0.223273 -0.94834 -0.573922 -0.406868 -0.710684 -0.561325 -0.432522 -0.705577 
-0.532604 -0.389354 -0.751489 0.373308 -0.378962 -0.846776 0.234564 -0.447892 -0.86277 
0.221875 -0.350925 -0.909738 0.0964772 -0.504523 -0.857991 0.0814024 -0.344146 -0.935381 
0.0587221 -0.511283 -0.857404 -0.00578561 -0.299227 -0.954164 0.0648429 -0.429644 -0.900667 
0.0271489 -0.272456 -0.961785 0.0917665 -0.16213 -0.982493 0.0398697 -0.114944 -0.992572 
-0.00751869 -0.123275 -0.992344 -0.144973 -0.255238 -0.955948 -0.473519 -0.481831 -0.737305 
-0.432002 -0.50905 -0.744475 -0.383375 -0.433262 -0.815664 0.121439 -0.464442 -0.877238 
0.145118 -0.476592 -0.867065 0.14476 -0.456396 -0.877922 0.103483 -0.521303 -0.847074 
0.101594 -0.397337 -0.912032 -0.130001 -0.577374 -0.806064 -0.0779284 -0.398742 -0.913746 
-0.351447 -0.573475 -0.740008 -0.350778 -0.573602 -0.740227 -0.350449 -0.572966 -0.740875 

