# vtk DataFile Version 4.2
vtk output
ASCII
DATASET POLYDATA
POINTS 526 float
-19.1966 -46.16 -10.8311 -11.3934 -46.16 -11.0118 -3.59018 -46.16 -11.575 
4.21303 -46.16 -11.4551 12.0162 -46.16 -11.3436 19.8195 -46.16 -12.2464 
27.6227 -46.16 -11.2409 -34.803 -38.3568 -10.5896 -26.9998 -38.3568 -12.7966 
-19.1966 -38.3568 -14.2048 -11.3934 -38.3568 -14.4639 -3.59018 -38.3568 -14.4129 
4.21303 -38.3568 -14.1104 12.0162 -38.3568 -14.0028 19.8195 -38.3568 -14.1968 
27.6227 -38.3568 -15.2892 35.4259 -38.3568 -12.6956 43.2291 -38.3568 -10.7024 
-42.6062 -30.5536 -11.3086 -34.803 -30.5536 -14.1907 -26.9998 -30.5536 -15.2329 
-19.1966 -30.5536 -15.9236 -11.3934 -30.5536 -15.8284 -3.59018 -30.5536 -15.3581 
4.21303 -30.5536 -15.0073 12.0162 -30.5536 -15.0599 19.8195 -30.5536 -16.228 
27.6227 -30.5536 -15.8164 35.4259 -30.5536 -15.2484 43.2291 -30.5536 -12.619 
-42.6062 -22.7504 -13.0966 -34.803 -22.7504 -15.0287 -26.9998 -22.7504 -15.9414 
-19.1966 -22.7504 -16.4128 -11.3934 -22.7504 -15.7294 -3.59018 -22.7504 -15.3868 
4.21303 -22.7504 -14.9582 12.0162 -22.7504 -14.9985 19.8195 -22.7504 -15.8022 
27.6227 -22.7504 -15.9089 35.4259 -22.7504 -15.8206 43.2291 -22.7504 -16.5189 
51.0323 -22.7504 -11.6317 -50.4094 -14.9472 -11.1301 -42.6062 -14.9472 -14.0859 
-34.803 -14.9472 -16.1558 -26.9998 -14.9472 -16.114 -19.1966 -14.9472 -15.4727 
-11.3934 -14.9472 -14.4982 -3.59018 -14.9472 -14.5144 4.21303 -14.9472 -14.7305 
12.0162 -14.9472 -14.3103 19.8195 -14.9472 -15.0403 27.6227 -14.9472 -15.7176 
35.4259 -14.9472 -16.3562 43.2291 -14.9472 -14.8348 51.0323 -14.9472 -11.8696 
-50.4094 -7.144 -11.463 -42.6062 -7.144 -14.1628 -34.803 -7.144 -15.7194 
-26.9998 -7.144 -15.6621 -19.1966 -7.144 -14.7788 -11.3934 -7.144 -13.5592 
-3.59018 -7.144 -16.3836 4.21303 -7.144 -15.7554 12.0162 -7.144 -14.9737 
19.8195 -7.144 -14.5335 27.6227 -7.144 -15.6025 35.4259 -7.144 -15.8325 
43.2291 -7.144 -15.2451 51.0323 -7.144 -13.1981 -42.6062 0.659213 -13.1099 
-34.803 0.659213 -15.0428 -26.9998 0.659213 -15.391 -19.1966 0.659213 -15.1271 
-11.3934 0.659213 -15.4277 -3.59018 0.659213 -15.7871 4.21303 0.659213 -14.1349 
12.0162 0.659213 -16.2673 19.8195 0.659213 -14.1874 27.6227 0.659213 -15.2087 
35.4259 0.659213 -15.8933 43.2291 0.659213 -15.4735 51.0323 0.659213 -13.8059 
-42.6062 8.46242 -11.7486 -34.803 8.46242 -13.6872 -26.9998 8.46242 -14.9736 
-19.1966 8.46242 -15.0494 -11.3934 8.46242 -14.5726 -3.59018 8.46242 -15.4639 
4.21303 8.46242 -16.7153 12.0162 8.46242 -13.5432 19.8195 8.46242 -14.5275 
27.6227 8.46242 -15.8043 35.4259 8.46242 -16.1696 43.2291 8.46242 -15.4829 
51.0323 8.46242 -13.7138 -34.803 16.2656 -12.6563 -26.9998 16.2656 -14.5594 
-19.1966 16.2656 -15.6602 -11.3934 16.2656 -15.5347 -3.59018 16.2656 -14.927 
4.21303 16.2656 -14.7022 12.0162 16.2656 -14.6347 19.8195 16.2656 -15.4292 
27.6227 16.2656 -16.4265 35.4259 16.2656 -17.4786 43.2291 16.2656 -15.3767 
51.0323 16.2656 -12.2513 -34.803 24.0688 -11.072 -26.9998 24.0688 -14.2006 
-19.1966 24.0688 -15.2458 -11.3934 24.0688 -14.6545 -3.59018 24.0688 -13.3184 
4.21303 24.0688 -13.6218 12.0162 24.0688 -15.1535 19.8195 24.0688 -16.3165 
27.6227 24.0688 -16.4561 35.4259 24.0688 -16.0683 43.2291 24.0688 -15.4401 
-26.9998 31.8721 -12.0035 -19.1966 31.8721 -13.0275 -11.3934 31.8721 -12.5152 
-3.59018 31.8721 -12.2397 4.21303 31.8721 -13.4407 12.0162 31.8721 -14.7934 
19.8195 31.8721 -16.3179 27.6227 31.8721 -15.8549 35.4259 31.8721 -14.5012 
43.2291 31.8721 -12.2736 -3.59018 39.6753 -10.2686 4.21303 39.6753 -11.8164 
12.0162 39.6753 -13.4034 19.8195 39.6753 -13.5601 27.6227 39.6753 -13.6485 
35.4259 39.6753 -11.8644 -19.1966 -47.0428 -10.0331 -11.3934 -47.3429 -10.0331 
-3.59018 -48.2418 -10.0331 4.21303 -48.101 -10.0331 12.0162 -47.8773 -10.0331 
19.8195 -48.8011 -10.0331 27.6227 -47.6045 -10.0331 -34.803 -38.9846 -10.0331 
-21.2822 -46.16 -10.0331 -26.9998 -42.3201 -10.0331 -26.9998 -46.16 -4.48421 
31.1834 -46.16 -10.0331 35.4259 -42.833 -10.0331 35.4259 -46.16 -6.12761 
43.2291 -39.2702 -10.0331 -35.6589 -38.3568 -10.0331 -42.6062 -32.3601 -10.0331 
44.1279 -38.3568 -10.0331 -44.346 -30.5536 -10.0331 48.3944 -30.5536 -10.0331 
51.0323 -27.7028 -10.0331 51.0323 -30.5536 -6.96322 -48.7299 -22.7504 -10.0331 
-50.4094 -19.7361 -10.0331 -50.4094 -22.7504 -8.91796 52.8991 -22.7504 -10.0331 
-51.787 -14.9472 -10.0331 53.3942 -14.9472 -10.0331 -52.1642 -7.144 -10.0331 
-50.4094 -0.162329 -10.0331 55.4258 -7.144 -10.0331 -49.9713 0.659213 -10.0331 
-50.4094 0.659213 -9.78578 56.1444 0.659213 -10.0331 -45.673 8.46242 -10.0331 
-50.4094 8.46242 -6.75867 -42.6062 13.0938 -10.0331 55.6938 8.46242 -10.0331 
-40.387 16.2656 -10.0331 -42.6062 16.2656 -8.79267 53.2521 16.2656 -10.0331 
51.0323 23.6413 -10.0331 -36.7113 24.0688 -10.0331 -42.6062 24.0688 -6.27697 
-34.803 28.4442 -10.0331 50.858 24.0688 -10.0331 51.0323 24.0688 -9.17982 
-32.6722 31.8721 -10.0331 -34.803 31.8721 -9.1333 -26.9998 36.1305 -10.0331 
-19.1966 37.9034 -10.0331 -11.3934 38.1203 -10.0331 45.7991 31.8721 -10.0331 
43.2291 34.9777 -10.0331 -34.803 39.6753 -2.37964 -26.9998 39.6753 -8.01215 
-19.1966 39.6753 -9.11197 -5.84096 39.6753 -10.0331 -11.3934 39.6753 -9.47661 
-3.59018 40.2384 -10.0331 4.21303 45.2551 -10.0331 12.0162 46.4893 -10.0331 
19.8195 47.1079 -10.0331 27.6227 44.7743 -10.0331 38.1568 39.6753 -10.0331 
35.4259 41.7074 -10.0331 -19.1966 47.4785 -2.88074 -11.3934 47.4785 -4.95067 
-3.59018 47.4785 -6.93592 4.21303 47.4785 -8.84765 12.0162 47.4785 -9.29546 
19.8195 47.4785 -9.71945 27.6227 47.4785 -5.62122 -26.9998 -47.0542 -2.22988 
-19.1966 -50.6633 -2.22988 -11.3934 -52.8603 -2.22988 -3.59018 -53.9028 -2.22988 
4.21303 -53.7094 -2.22988 12.0162 -53.6192 -2.22988 19.8195 -52.0526 -2.22988 
27.6227 -50.73 -2.22988 35.4259 -47.7025 -2.22988 -28.7009 -46.16 -2.22988 
-34.803 -42.7655 -2.22988 -26.9998 -46.16 2.02927 19.8195 -46.16 5.37292 
38.0494 -46.16 -2.22988 35.4259 -46.16 0.466144 43.2291 -42.5013 -2.22988 
-41.54 -38.3568 -2.22988 -42.6062 -37.5499 -2.22988 47.1713 -38.3568 -2.22988 
43.2291 -38.3568 3.26857 51.0323 -32.9705 -2.22988 -49.8401 -30.5536 -2.22988 
-50.4094 -29.8457 -2.22988 43.2291 -30.5536 4.88372 52.4991 -30.5536 -2.22988 
51.0323 -30.5536 0.0313203 -55.0892 -22.7504 -2.22988 55.1678 -22.7504 -2.22988 
51.0323 -22.7504 3.2411 -57.2742 -14.9472 -2.22988 56.5516 -14.9472 -2.22988 
-57.4658 -7.144 -2.22988 -58.2126 -7.144 5.2696 58.2704 -7.144 -2.22988 
51.0323 -7.144 4.57008 -56.2295 0.659213 -2.22988 58.6109 0.659213 -2.22988 
51.0323 0.659213 4.77382 -53.7938 8.46242 -2.22988 -50.4094 15.4402 -2.22988 
57.3897 8.46242 -2.22988 -49.9007 16.2656 -2.22988 -50.4094 16.2656 -0.36293 
55.6782 16.2656 -2.22988 51.0323 16.2656 3.49142 -46.2029 24.0688 -2.22988 
-42.6062 30.6042 -2.22988 43.2291 24.0688 4.34673 51.8681 24.0688 -2.22988 
51.0323 25.4165 -2.22988 51.0323 24.0688 -1.08011 -41.8492 31.8721 -2.22988 
-42.6062 31.8721 -0.170689 46.6221 31.8721 -2.22988 43.2291 36.4233 -2.22988 
43.2291 31.8721 2.0546 -34.9401 39.6753 -2.22988 -34.803 39.7953 -2.22988 
-26.9998 44.7708 -2.22988 40.1369 39.6753 -2.22988 35.4259 43.7639 -2.22988 
35.4259 39.6753 3.62544 -20.4982 47.4785 -2.22988 -19.1966 48.1074 -2.22988 
-11.3934 50.0097 -2.22988 -3.59018 51.9061 -2.22988 4.21303 52.9219 -2.22988 
12.0162 52.8771 -2.22988 19.8195 51.6283 -2.22988 29.8126 47.4785 -2.22988 
27.6227 48.6982 -2.22988 27.6227 47.4785 0.730444 -19.1966 -47.4488 5.57333 
-11.3934 -50.152 5.57333 -3.59018 -51.0866 5.57333 4.21303 -50.2472 5.57333 
12.0162 -48.4176 5.57333 27.6227 -46.4255 5.57333 -34.803 -40.4563 5.57333 
-23.692 -46.16 5.57333 -26.9998 -45.1635 5.57333 -19.1966 -46.16 7.269 
-11.3934 -46.16 8.70164 -3.59018 -46.16 8.99326 4.21303 -46.16 9.06075 
19.0075 -46.16 5.57333 12.0162 -46.16 7.32193 23.1141 -46.16 5.57333 
19.8195 -45.8486 5.57333 28.1809 -46.16 5.57333 27.6227 -46.16 5.78305 
35.4259 -38.5576 5.57333 -38.7616 -38.3568 5.57333 -42.6062 -35.9544 5.57333 
-34.803 -38.3568 8.46134 -26.9998 -38.3568 10.886 -19.1966 -38.3568 12.6578 
-11.3934 -38.3568 12.5692 -3.59018 -38.3568 12.1917 4.21303 -38.3568 11.6111 
12.0162 -38.3568 10.23 19.8195 -38.3568 9.46021 27.6227 -38.3568 9.5438 
35.8212 -38.3568 5.57333 35.4259 -38.3568 5.66928 -49.2335 -30.5536 5.57333 
-50.4094 -29.1573 5.57333 -42.6062 -30.5536 9.73122 4.21303 -30.5536 12.7025 
12.0162 -30.5536 11.5387 19.8195 -30.5536 11.7525 27.6227 -30.5536 10.3431 
42.0947 -30.5536 5.57333 35.4259 -30.5536 9.00187 43.2291 -27.8702 5.57333 
-54.2844 -22.7504 5.57333 -50.4094 -22.7504 10.9685 4.21303 -22.7504 13.0385 
12.0162 -22.7504 12.0408 19.8195 -22.7504 11.8573 27.6227 -22.7504 11.4309 
35.4259 -22.7504 9.61157 46.4457 -22.7504 5.57333 43.2291 -22.7504 6.97428 
51.0323 -16.7646 5.57333 -57.3688 -14.9472 5.57333 -58.2126 -7.44455 5.57333 
-50.4094 -14.9472 11.5872 12.0162 -14.9472 12.3559 19.8195 -14.9472 11.3982 
27.6227 -14.9472 10.9563 35.4259 -14.9472 9.91716 43.2291 -14.9472 8.87621 
51.6078 -14.9472 5.57333 51.0323 -12.018 5.57333 51.0323 -14.9472 6.01342 
-58.2376 -7.144 5.57333 -58.2126 -6.98361 5.57333 -58.2126 -7.144 5.6162 
-50.4094 -7.144 12.5613 19.8195 -7.144 11.2893 27.6227 -7.144 10.8807 
35.4259 -7.144 10.1661 49.4712 -7.144 5.57333 43.2291 -7.144 8.7677 
-56.7911 0.659213 5.57333 -50.4094 0.659213 12.4082 19.8195 0.659213 11.6802 
27.6227 0.659213 11.1572 35.4259 0.659213 10.3537 49.7532 0.659213 5.57333 
43.2291 0.659213 8.8301 51.0323 3.80005 5.57333 -54.6177 8.46242 5.57333 
-50.4094 8.46242 11.0249 19.8195 8.46242 12.3472 27.6227 8.46242 11.2373 
35.4259 8.46242 10.0879 43.2291 8.46242 8.62892 52.1869 8.46242 5.57333 
51.0323 11.4957 5.57333 51.0323 8.46242 6.43838 -51.666 16.2656 5.57333 
-50.4094 19.5239 5.57333 -50.4094 16.2656 7.71136 19.8195 16.2656 13.105 
27.6227 16.2656 11.255 35.4259 16.2656 9.39597 46.5575 16.2656 5.57333 
43.2291 20.4174 5.57333 43.2291 16.2656 6.92547 -48.5307 24.0688 5.57333 
27.6227 24.0688 11.1476 41.3539 24.0688 5.57333 35.4259 24.0688 8.72399 
[...]
POINT_DATA 526
SCALARS ImageScalars float
LOOKUP_TABLE default
0 0 0 0 0 0 0 0 0 
0 0 0 0 0 0 0 0 0 
0 0 0 0 0 0 0 0 0 
0 0 0 0 0 0 0 0 0 
0 0 0 0 0 0 0 0 0 
0 0 0 0 0 0 0 0 0 
0 0 0 0 0 0 0 0 0 
0 0 0 0 0 0 0 0 0 
0 0 0 0 0 0 0 0 0 
0 0 0 0 0 0 0 0 0 
0 0 0 0 0 0 0 0 0 
0 0 0 0 0 0 0 0 0 
0 0 0 0 0 0 0 0 0 
0 0 0 0 0 0 0 0 0 
0 0 0 0 0 0 0 0 0 
0 0 0 0 0 0 0 0 0 
0 0 0 0 0 0 0 0 0 
0 0 0 0 0 0 0 0 0 
0 0 0 0 0 0 0 0 0 
0 0 0 0 0 0 0 0 0 
0 0 0 0 0 0 0 0 0 
0 0 0 0 0 0 0 0 0 
0 0 0 0 0 0 0 0 0 
0 0 0 0 0 0 0 0 0 
0 0 0 0 0 0 0 0 0 
0 0 0 0 0 0 0 0 0 
0 0 0 0 0 0 0 0 0 
0 0 0 0 0 0 0 0 0 
0 0 0 0 0 0 0 0 0 
0 0 0 0 0 0 0 0 0 
0 0 0 0 0 0 0 0 0 
0 0 0 0 0 0 0 0 0 
0 0 0 0 0 0 0 0 0 
0 0 0 0 0 0 0 0 0 
0 0 0 0 0 0 0 0 0 
0 0 0 0 0 0 0 0 0 
0 0 0 0 0 0 0 0 0 
0 0 0 0 0 0 0 0 0 
0 0 0 0 0 0 0 0 0 
0 0 0 0 0 0 0 0 0 
0 0 0 0 0 0 0 0 0 
0 0 0 0 0 0 0 0 0 
0 0 0 0 0 0 0 0 0 
0 0 0 0 0 0 0 0 0 
0 0 0 0 0 0 0 0 0 
0 0 0 0 0 0 0 0 0 
0 0 0 0 0 0 0 0 0 
0 0 0 0 0 0 0 0 0 
0 0 0 0 0 0 0 0 0 
0 0 0 0 0 0 0 0 0 
0 0 0 0 0 0 0 0 0 
0 0 0 0 0 0 0 0 0 
0 0 0 0 0 0 0 0 0 
0 0 0 0 0 0 0 0 0 
0 0 0 0 0 0 0 0 0 
0 0 0 0 0 0 0 0 0 
0 0 0 0 0 0 0 0 0 
0 0 0 0 0 0 0 0 0 
0 0 0 0 
NORMALS Normals float
0.190524 0.64932 0.736264 0.0422565 0.571118 0.81978 0.0233855 0.501254 0.864984 
-0.0130577 0.503559 0.863862 0.0610726 0.479974 0.875154 -0.0193711 0.510238 0.859815 
-0.236964 0.605848 0.759471 0.400682 0.586303 0.704061 0.235498 0.451092 0.860847 
0.082642 0.314446 0.945671 0.0142408 0.26192 0.964984 -0.0223456 0.209838 0.977481 
-0.025534 0.194084 0.980653 0.00538496 0.203083 0.979147 0.0688877 0.264961 0.961795 
-0.0544701 0.299046 0.952683 -0.295139 0.503189 0.812216 -0.48045 0.466637 0.742575 
0.477225 0.403803 0.780512 0.254141 0.273662 0.927643 0.102464 0.167511 0.980531 
0.0344427 0.139223 0.989662 -0.0368464 0.0763348 0.996401 -0.0520053 0.0591603 0.996893 
-0.0190516 0.0519695 0.998467 0.0754476 0.0606835 0.995302 0.0483028 0.0964117 0.994169 
-0.0730779 0.0344295 0.996732 -0.148797 0.151262 0.977231 -0.506492 0.352341 0.78697 
0.357886 0.18215 0.915827 0.160871 0.112264 0.98057 0.0854247 0.0535317 0.994906 
-0.0136892 -0.0267757 0.999548 -0.064976 -0.0841396 0.994333 -0.0496279 -0.0542365 0.997294 
-0.0244755 -0.0176903 0.999544 0.053943 -0.0479062 0.997394 0.0580683 -0.0748147 0.995505 
0.00138465 -0.00660128 0.999977 0.0266442 0.0815632 0.996312 -0.272818 0.0687765 0.959604 
-0.636818 0.183762 0.748796 0.544863 0.126641 0.828907 0.309243 0.055559 0.949359 
0.130821 0.038429 0.990661 -0.043551 -0.0179046 0.998891 -0.102253 -0.103554 0.989354 
-0.0621482 -0.138281 0.988441 0.0152664 0.0400755 0.99908 -0.0133228 0.0491922 0.9987 
0.0199119 -0.00662286 0.99978 0.0896222 -0.0789568 0.992841 0.0838398 -0.019742 0.996284 
-0.0569715 -0.000442535 0.998376 -0.255619 -0.0526249 0.965344 -0.595827 0.10605 0.79608 
0.560899 -0.0713023 0.824808 0.28011 -0.0576664 0.958234 0.0969681 -0.0675954 0.992989 
-0.0601584 -0.0461679 0.997121 -0.13099 -0.0219928 0.99114 0.0707843 0.0575399 0.995831 
0.15949 0.112247 0.980797 -0.0801622 -0.00741244 0.996754 -0.0810539 0.108551 0.990781 
0.044803 -0.0560896 0.99742 0.0795437 -0.0326177 0.996298 -0.0227579 -0.029641 0.999301 
-0.146476 0.0430621 0.988277 -0.538186 0.120587 0.834155 0.316487 -0.14749 0.937061 
0.138356 -0.127953 0.982082 0.00518178 -0.0438244 0.999026 0.00111638 0.0172627 0.99985 
0.037666 0.0673203 0.99702 -0.0707493 -0.0653621 0.99535 0.0306699 0.0394944 0.998749 
-0.0451254 -0.120188 0.991725 -0.027454 -0.00108548 0.999622 0.111458 0.0109762 0.993708 
0.017761 0.0220725 0.999599 -0.118332 0.0160751 0.992844 -0.516113 0.0319445 0.855925 
0.376952 -0.251107 0.891545 0.187403 -0.150234 0.970726 0.0832678 -0.0533931 0.995096 
-0.0244707 0.0341266 0.999118 0.0207016 0.0105813 0.99973 0.127314 -0.0502349 0.99059 
-0.146182 -0.00684485 0.989234 -0.107601 -0.0529668 0.992782 0.144741 0.0820438 0.986062 
0.0998665 0.0794944 0.99182 -0.0210447 0.0980285 0.994961 -0.137705 -0.00828237 0.990439 
-0.570334 -0.0979484 0.815552 0.326954 -0.147992 0.933381 0.184189 -0.0473115 0.981752 
0.0612656 0.0132311 0.998034 -0.0453344 0.00211128 0.99897 -0.0552216 -0.137106 0.989016 
-0.0192941 -0.182074 0.983095 0.046522 0.102525 0.993642 0.113862 0.108464 0.987558 
0.126469 0.0395194 0.991183 -0.100661 0.000219423 0.994921 -0.269449 -0.0035842 0.963008 
-0.673129 -0.23214 0.702145 0.426645 -0.204556 0.880983 0.232994 -0.152041 0.960519 
0.0241455 -0.150772 0.988274 -0.120245 -0.172367 0.977666 -0.0674947 -0.166584 0.983714 
0.117978 -0.0773877 0.989996 0.170832 0.0091439 0.985258 0.0828725 0.0565114 0.994957 
-0.0143564 -0.0343506 0.999307 -0.0610263 -0.210528 0.975681 -0.369551 -0.196693 0.908154 
0.21722 -0.34318 0.913807 0.0339035 -0.368544 0.928992 -0.0463727 -0.319309 0.946515 
0.0598367 -0.182012 0.981474 0.16466 -0.117898 0.979279 0.170631 -0.116814 0.978386 
0.0774761 -0.172087 0.98203 -0.129747 -0.153976 0.979519 -0.227897 -0.26714 0.936322 
-0.563332 -0.497689 0.659517 0.154544 -0.319778 0.934804 0.198187 -0.263817 0.943993 
0.113132 -0.309977 0.943989 0.0149228 -0.388546 0.921309 -0.10876 -0.467924 0.877051 
-0.411293 -0.594289 0.691129 0.20208 0.700167 0.684784 0.053279 0.617763 0.784557 
0.0343595 0.596394 0.801956 -0.015421 0.583693 0.811828 0.0498224 0.58593 0.808829 
-0.0312914 0.707539 0.705981 -0.253599 0.692254 0.675627 0.41698 0.617485 0.666963 
0.25077 0.685993 0.683028 0.351753 0.608535 0.711305 0.449736 0.861504 0.235685 
-0.324811 0.649263 0.687718 -0.347394 0.62496 0.699101 -0.478616 0.825617 0.298801 
-0.503781 0.518013 0.69128 0.431922 0.609275 0.665002 0.522602 0.496581 0.693033 
-0.533948 0.492429 0.687323 0.526722 0.458078 0.716051 -0.611766 0.394511 0.685641 
-0.653297 0.342045 0.675432 -0.786952 0.497835 0.364509 0.533676 0.31096 0.786444 
0.571513 0.257493 0.779147 0.616172 0.362688 0.699135 -0.750217 0.203825 0.628991 
0.606778 0.128784 0.78437 -0.758846 0.129461 0.638273 0.648277 -0.0723431 0.75796 
0.558811 -0.222255 0.798958 -0.728028 0.126221 0.673828 0.542082 -0.236491 0.806362 
0.56312 -0.238838 0.791108 -0.769556 0.0103964 0.638494 0.444657 -0.29478 0.845804 
0.655297 -0.366289 0.660619 0.459454 -0.266627 0.847238 -0.781413 -0.165069 0.601786 
0.46002 -0.237713 0.855497 0.533605 -0.277262 0.798994 -0.80942 -0.249393 0.531642 
-0.757679 -0.389732 0.52348 0.447814 -0.226401 0.864989 0.631682 -0.34312 0.695159 
0.442448 -0.290884 0.848308 -0.753502 -0.400337 0.521502 -0.787376 -0.429302 0.442424 
0.387826 -0.354386 0.850883 0.471252 -0.37345 0.799035 0.233363 -0.465798 0.853565 
0.0542852 -0.474149 0.878769 0.0444801 -0.386964 0.921021 -0.690755 -0.528503 0.493499 
-0.639122 -0.587529 0.496319 0.583779 -0.686412 0.433637 0.282057 -0.604222 0.745224 
0.0765607 -0.515572 0.853419 0.129058 -0.346661 0.92907 0.0652859 -0.40789 0.910694 
0.162456 -0.331643 0.929312 0.163913 -0.47508 0.864541 0.0427617 -0.614149 0.788031 
-0.0560828 -0.649756 0.758071 -0.256252 -0.671447 0.695337 -0.501235 -0.682151 0.532384 
-0.436059 -0.727708 0.529428 0.301984 -0.745229 0.594508 0.216431 -0.677806 0.702664 
0.199708 -0.560883 0.803447 0.132383 -0.59316 0.794126 0.0318921 -0.670798 0.740954 
-0.064518 -0.679559 0.730778 -0.41588 -0.867529 0.272831 0.442189 0.893098 0.0827367 
0.355222 0.933656 0.0458755 0.196414 0.97432 0.110103 0.0545635 0.993627 0.0986286 
-0.0178907 0.996609 0.0803123 -0.106636 0.993825 0.0306666 -0.185051 0.981496 -0.0492212 
-0.282664 0.957708 -0.05381 -0.460216 0.884079 -0.0812719 0.450538 0.88825 0.089599 
0.511634 0.854277 0.0918766 0.40273 0.893638 -0.198041 -0.0801601 0.59122 -0.802517 
-0.524916 0.846064 -0.0929461 -0.487705 0.806752 -0.333609 -0.665172 0.736609 -0.122283 
0.619685 0.768822 0.15781 0.634919 0.753812 0.169247 -0.773766 0.618541 -0.13672 
-0.573818 0.488975 -0.65699 -0.839818 0.518374 -0.161227 0.745415 0.627114 0.226019 
0.756355 0.61163 0.232026 -0.499434 0.194425 -0.844254 -0.870015 0.463956 -0.166791 
-0.823784 0.470575 -0.316133 0.878193 0.412772 0.241654 -0.947692 0.251729 -0.196246 
-0.665301 0.244311 -0.705469 0.94789 0.135872 0.288172 -0.960835 0.202931 -0.18872 
0.937568 -0.0637701 0.341905 0.967686 -0.040601 -0.24887 -0.971625 0.110954 -0.20889 
-0.576033 -0.0545761 -0.815603 0.918793 -0.223012 0.325707 -0.969375 -0.045238 -0.241383 
-0.567659 0.102388 -0.816872 0.86838 -0.356024 0.3452 0.780205 -0.439784 0.444825 
-0.946541 -0.188743 -0.261604 0.772065 -0.438864 0.459689 0.844412 -0.440827 0.304368 
-0.916119 -0.323678 -0.236556 -0.627537 -0.327551 -0.706334 0.797657 -0.396787 0.454207 
0.731114 -0.50442 0.459383 -0.539767 -0.265821 -0.798743 -0.811226 -0.526254 -0.254888 
-0.794353 -0.53882 -0.280495 -0.7629 -0.541892 -0.352614 0.717991 -0.525152 0.456842 
0.775876 -0.547458 0.313537 -0.788241 -0.548788 -0.278401 -0.739729 -0.630686 -0.234598 
-0.676189 -0.420776 -0.604745 0.587838 -0.687263 0.426751 0.584931 -0.689388 0.427317 
0.401113 -0.780111 0.48014 -0.693091 -0.696167 -0.187021 -0.62561 -0.771601 -0.115082 
-0.57593 -0.512752 -0.636702 0.329197 -0.763806 0.555185 0.307137 -0.763011 0.568754 
0.209488 -0.801466 0.560149 0.163713 -0.866073 0.472352 0.0695433 -0.865456 0.496135 
-0.0835758 -0.943868 0.319576 -0.250371 -0.959406 0.129827 -0.494118 -0.868777 -0.0327786 
-0.447556 -0.893974 -0.0224765 -0.47303 -0.844399 -0.251464 0.272031 0.797029 -0.539207 
0.176658 0.770937 -0.611922 0.010821 0.77106 -0.63667 -0.119156 0.723395 -0.680074 
-0.175749 0.611707 -0.771315 -0.17451 0.604422 -0.777316 0.449554 0.77686 -0.440897 
0.306348 0.815687 -0.49072 0.333573 0.814209 -0.475177 0.22269 0.742014 -0.632316 
0.0720291 0.590167 -0.804061 0.0204654 0.524581 -0.851114 -0.0888416 0.519188 -0.85003 
-0.0861396 0.574255 -0.814132 -0.180044 0.504334 -0.84453 -0.116718 0.586279 -0.801657 
-0.0765635 0.571137 -0.817276 -0.189481 0.593569 -0.782159 -0.172474 0.590267 -0.788567 
-0.296571 0.426217 -0.854626 0.500843 0.756835 -0.41995 0.539893 0.715135 -0.443957 
0.379099 0.704708 -0.599726 0.18667 0.498983 -0.846268 0.0970892 0.333717 -0.93766 
-0.0286581 0.335219 -0.941704 -0.0567832 0.287519 -0.95609 -0.124905 0.184982 -0.974772 
-0.128084 0.226703 -0.965505 -0.0425248 0.339029 -0.939814 -0.185706 0.297656 -0.936437 
-0.302054 0.420423 -0.855575 -0.294452 0.421532 -0.857676 0.680797 0.625197 -0.381633 
0.717148 0.598338 -0.357337 0.437187 0.525735 -0.729705 -0.141265 0.0856135 -0.986263 
-0.0608629 0.112816 -0.99175 -0.0713444 0.142932 -0.987158 -0.178816 0.108859 -0.977842 
-0.448634 0.179255 -0.875554 -0.289966 0.195208 -0.936917 -0.430698 0.184065 -0.883527 
0.822071 0.439009 -0.362588 0.608672 0.318718 -0.726593 -0.152401 0.146031 -0.977471 
-0.0758378 0.052421 -0.995741 -0.0386252 -0.0231229 -0.998986 -0.138264 0.0367291 -0.989714 
-0.246561 0.0582546 -0.967375 -0.432314 0.227517 -0.872549 -0.365606 0.213847 -0.905871 
-0.574336 0.0997508 -0.812519 0.91915 0.194791 -0.342374 0.961358 -0.0308038 -0.273571 
0.525942 0.0813346 -0.846623 -0.236866 0.13331 -0.962353 -0.0886998 -0.0366335 -0.995385 
-0.0943714 -0.0348273 -0.994928 -0.121546 0.0352051 -0.991961 -0.291134 0.0992718 -0.951518 
-0.604439 0.0630671 -0.794151 -0.564064 0.00480122 -0.825717 -0.574264 0.0574826 -0.816649 
0.961602 -0.0394269 -0.271601 0.961671 -0.0433694 -0.270753 0.960667 -0.0391158 -0.274933 
0.487708 0.0519692 -0.871459 -0.194966 0.0178749 -0.980647 -0.0709523 0.0129046 -0.997396 
-0.140586 0.0276084 -0.989683 -0.487715 -0.0522028 -0.871441 -0.307061 -0.00156979 -0.951688 
0.941994 -0.215081 -0.25766 0.573226 -0.0831357 -0.815169 -0.254764 0.07066 -0.964418 
-0.0837029 0.0229537 -0.996226 -0.153909 -0.00485386 -0.988073 -0.499378 0.0900974 -0.861687 
-0.310047 -0.00679963 -0.950697 -0.539146 0.0475367 -0.84087 0.922952 -0.303891 -0.23624 
0.714693 -0.210485 -0.667016 -0.226676 0.0895725 -0.969843 -0.143083 0.0062202 -0.989691 
-0.155621 -0.059751 -0.986008 -0.263989 -0.111877 -0.958015 -0.591557 -0.0778512 -0.802496 
-0.542232 -0.167021 -0.823461 -0.524698 -0.064873 -0.848813 0.918721 -0.356185 -0.17054 
0.911399 -0.385384 -0.144331 0.889335 -0.335822 -0.310333 -0.256067 0.0838934 -0.963012 
-0.228779 -0.00542558 -0.973463 -0.248466 -0.0863751 -0.964782 -0.421371 -0.273922 -0.864531 
-0.424685 -0.232542 -0.874967 -0.341856 -0.232256 -0.910599 0.897117 -0.428206 -0.108723 
-0.311705 -0.0639075 -0.948027 -0.477044 -0.21396 -0.852438 -0.368157 -0.129057 -0.920763 
0.839072 -0.536801 -0.0883384 0.805871 -0.588526 -0.0648793 0.792825 -0.525595 -0.30851 
-0.320374 -0.127606 -0.938657 -0.356455 -0.197394 -0.913223 -0.484822 -0.299447 -0.821754 
-0.486968 -0.360801 -0.795415 -0.445797 -0.280674 -0.849992 0.695243 -0.716669 -0.0549708 
0.627783 -0.776576 -0.0530903 0.612381 -0.640669 -0.463177 0.467852 -0.88322 -0.0322104 
-0.367096 -0.243063 -0.897865 -0.495651 -0.413577 -0.76373 -0.455954 -0.543051 -0.705125 
-0.440133 -0.366573 -0.819699 0.461842 -0.886431 -0.0306876 0.358188 -0.933244 -0.0275119 
0.307965 -0.69367 -0.651137 0.212064 -0.977127 -0.0158802 0.0862733 -0.992787 -0.0832488 
-0.0953463 -0.975819 -0.196687 -0.329394 -0.883826 -0.332192 -0.289436 -0.517479 -0.805259 
-0.427931 -0.715776 -0.551851 -0.420082 -0.757346 -0.499959 -0.417707 -0.677699 -0.605182 
0.223878 0.288617 -0.930902 0.0927285 0.302782 -0.948538 0.0740408 0.272952 -0.959174 
-0.0508838 0.248166 -0.96738 -0.0964159 0.17014 -0.980692 0.226405 0.283941 -0.931729 
0.238654 0.322361 -0.916039 0.221654 0.279704 -0.93415 0.0858572 0.265646 -0.96024 
0.0282976 0.182872 -0.982729 -0.068052 0.142737 -0.987418 -0.118222 0.12227 -0.985431 
-0.108576 0.141507 -0.983965 0.31704 0.287953 -0.903642 0.217944 0.290143 -0.931836 
0.0870345 0.212312 -0.973318 0.0175396 0.144047 -0.989415 -0.0408001 0.0371134 -0.998478 
-0.0670621 0.00230003 -0.997746 -0.144188 0.131462 -0.980779 -0.119234 0.0831089 -0.989382 
-0.15611 0.155315 -0.975452 0.37159 0.0615544 -0.926354 0.286555 0.074137 -0.955191 
0.095 0.0630204 -0.99348 -0.0680268 0.0443253 -0.996698 -0.120421 -0.00991582 -0.992673 
-0.0272671 -0.00618456 -0.999609 0.0504518 0.104795 -0.993213 -0.220021 0.162414 -0.96188 
-0.172909 0.203532 -0.963679 -0.284672 0.173424 -0.942808 0.393266 0.0546148 -0.917801 
0.208989 0.0616583 -0.975972 0.0528589 0.025146 -0.998285 -0.0621703 0.0506319 -0.99678 
-0.0830132 0.0933043 -0.992171 0.0463893 0.268057 -0.962285 0.0643809 0.164017 -0.984354 
-0.10151 -0.00511613 -0.994821 -0.288877 0.147825 -0.945885 -0.320045 0.192247 -0.927692 
0.451385 -0.0479676 -0.891039 0.234617 0.0130768 -0.972 0.0871164 0.0913639 -0.992 
0.000456388 0.139726 -0.99019 0.0842202 0.191052 -0.97796 0.0605588 0.169468 -0.983673 
-0.215578 0.12177 -0.968864 -0.153651 0.101481 -0.9829 -0.246852 0.058279 -0.967299 
-0.220143 0.0317989 -0.974949 0.501049 -0.101922 -0.859396 0.348817 -0.0306143 -0.936691 
0.170901 0.0816019 -0.981903 0.0362141 0.140409 -0.989431 -0.0332475 0.16974 -0.984928 
-0.0334086 0.041104 -0.998596 -0.024988 0.0664591 -0.997476 -0.181584 0.134418 -0.974145 
-0.266379 0.0536893 -0.962372 -0.322903 0.00552045 -0.946416 0.5734 -0.124422 -0.809773 
0.469765 -0.0707964 -0.879948 0.248635 0.0107389 -0.968538 0.0854295 0.111384 -0.990099 
-0.0121777 0.139586 -0.990135 -0.0509787 0.156609 -0.986344 -0.103157 0.127063 -0.986516 
-0.21843 0.0358818 -0.975193 -0.256834 0.0812695 -0.963032 -0.268524 0.0586087 -0.961488 
-0.271388 0.0453525 -0.961401 0.656758 -0.242781 -0.713952 0.645484 -0.30005 -0.702368 
0.600054 -0.216009 -0.770243 0.338373 -0.112065 -0.934316 0.170545 -0.0332236 -0.98479 
0.00766422 0.0692535 -0.99757 -0.0465079 0.0785396 -0.995826 -0.143797 0.0575846 -0.98793 
-0.244942 0.0347534 -0.968915 -0.271949 0.0199559 -0.962105 -0.292357 -0.00439529 -0.956299 
-0.306278 -0.0720384 -0.949213 -0.288634 0.00295145 -0.957435 0.601742 -0.416727 -0.681355 
0.537977 -0.482727 -0.691054 0.449249 -0.354753 -0.819954 0.239532 -0.202666 -0.949501 
0.104652 -0.15995 -0.981562 -0.0614441 -0.0876458 -0.994255 -0.151822 -0.0921679 -0.984101 
-0.240712 -0.0730681 -0.967842 -0.317377 -0.124985 -0.940027 -0.300561 -0.0933499 -0.949183 
0.497302 -0.551814 -0.669471 0.393655 -0.687607 -0.610108 0.342685 -0.472656 -0.811889 
0.304587 -0.684649 -0.66218 0.151352 -0.401051 -0.903466 0.0174005 -0.289411 -0.957047 
-0.139483 -0.265955 -0.953841 -0.238851 -0.25599 -0.936707 -0.337755 -0.21617 -0.916074 
-0.305729 -0.295799 -0.905004 -0.32797 -0.228889 -0.91654 0.300113 -0.687791 -0.660966 
0.119075 -0.745766 -0.65548 0.111128 -0.643663 -0.757198 -0.0472983 -0.673903 -0.737304 
-0.0865796 -0.544792 -0.83409 -0.222445 -0.483756 -0.846462 -0.203194 -0.522435 -0.828115 
-0.213165 -0.49218 -0.84399 
