# vtk DataFile Version 4.2
vtk output
ASCII
DATASET POLYDATA
POINTS 606 float
-7.53034 -0.35597 -20.4601 -36.1554 -28.981 -13.4559 -28.9991 -28.981 -13.5601 
-21.8429 -28.981 -13.8254 -14.6866 -28.981 -13.5789 13.9384 -28.981 -13.805 
-50.4679 -21.8248 -13.2855 -43.3116 -21.8248 -15.6901 -36.1554 -21.8248 -15.9688 
-28.9991 -21.8248 -16.3249 -21.8429 -21.8248 -15.5403 -14.6866 -21.8248 -14.9659 
-7.53034 -21.8248 -14.7793 -0.374083 -21.8248 -15.1628 6.78218 -21.8248 -16.1398 
13.9384 -21.8248 -15.9775 21.0947 -21.8248 -15.4007 28.251 -21.8248 -15.1737 
35.4072 -21.8248 -14.4904 42.5635 -21.8248 -14.5003 -57.6242 -14.6685 -13.4993 
-50.4679 -14.6685 -15.9766 -43.3116 -14.6685 -16.455 -36.1554 -14.6685 -16.8804 
-28.9991 -14.6685 -16.5912 -21.8429 -14.6685 -15.3916 -14.6866 -14.6685 -14.3818 
-7.53034 -14.6685 -14.4073 -0.374083 -14.6685 -15.87 6.78218 -14.6685 -17.2455 
13.9384 -14.6685 -15.815 21.0947 -14.6685 -15.1397 28.251 -14.6685 -15.4732 
35.4072 -14.6685 -16.1765 42.5635 -14.6685 -14.9589 49.7197 -14.6685 -13.8437 
-50.4679 -7.51223 -16.0377 -43.3116 -7.51223 -16.9385 -36.1554 -7.51223 -16.9537 
-28.9991 -7.51223 -16.6941 -21.8429 -7.51223 -15.1267 -14.6866 -7.51223 -13.6912 
-7.53034 -0.510771 -20.3976 -7.53034 -7.51223 -15.7021 -0.374083 -7.51223 -16.1167 
6.78218 -7.51223 -18.715 13.9384 -7.51223 -14.6869 21.0947 -7.51223 -14.5008 
28.251 -7.51223 -15.3407 35.4072 -7.51223 -15.7042 42.5635 -7.51223 -15.5382 
49.7197 -7.51223 -15.468 -50.4679 -0.35597 -15.7722 -43.3116 -0.35597 -16.844 
-36.1554 -0.35597 -16.6187 -28.9991 -0.35597 -15.7544 -21.8429 -0.35597 -14.8395 
-7.65875 -0.35597 -20.3976 -14.6866 -0.35597 -13.4052 -7.44559 -0.35597 -20.3976 
-7.53034 -0.150064 -20.3976 6.78218 -0.35597 -19.1043 21.0947 -0.35597 -13.9197 
28.251 -0.35597 -15.1958 35.4072 -0.35597 -15.5004 42.5635 -0.35597 -15.4198 
49.7197 -0.35597 -14.7581 -50.4679 6.80029 -14.8881 -43.3116 6.80029 -15.6214 
-36.1554 6.80029 -16.1038 -28.9991 6.80029 -16.0998 -21.8429 6.80029 -15.1377 
-14.6866 6.80029 -15.5764 -7.53034 6.80029 -18.0019 -0.374083 6.80029 -16.5304 
6.78218 6.80029 -17.1642 21.0947 6.80029 -14.3983 28.251 6.80029 -15.1751 
35.4072 6.80029 -15.4414 42.5635 6.80029 -15.0064 49.7197 6.80029 -14.3432 
-43.3116 13.9566 -15.2286 -36.1554 13.9566 -15.6544 -28.9991 13.9566 -15.8573 
-21.8429 13.9566 -15.4837 -14.6866 13.9566 -15.255 -7.53034 13.9566 -14.9748 
-0.374083 13.9566 -15.8524 6.78218 13.9566 -14.1102 13.9384 13.9566 -13.6215 
21.0947 13.9566 -14.5823 28.251 13.9566 -15.1492 35.4072 13.9566 -15.4785 
42.5635 13.9566 -15.0722 -36.1554 21.1128 -13.6436 -28.9991 21.1128 -15.2869 
-21.8429 21.1128 -14.9371 -14.6866 21.1128 -14.2728 -7.53034 21.1128 -13.3793 
13.9384 21.1128 -14.1672 21.0947 21.1128 -14.424 28.251 21.1128 -15.0175 
35.4072 21.1128 -13.9217 -36.1554 -29.2605 -13.2414 -28.9991 -29.4356 -13.2414 
-21.8429 -29.8441 -13.2414 -14.6866 -29.5042 -13.2414 13.9384 -29.691 -13.2414 
-50.4679 -21.9143 -13.2414 -37.0124 -28.981 -13.2414 -43.3116 -26.4032 -13.2414 
-43.3116 -28.981 -10.7938 -10.4647 -28.981 -13.2414 -7.53034 -28.027 -13.2414 
-7.53034 -28.981 -12.9089 -0.374083 -26.9046 -13.2414 -0.374083 -28.981 -12.0954 
8.32513 -28.981 -13.2414 6.78218 -28.6342 -13.2414 6.78218 -28.981 -13.0206 
18.9488 -28.981 -13.2414 21.0947 -28.2819 -13.2414 21.0947 -28.981 -12.8951 
28.251 -28.4624 -13.2414 28.251 -28.981 -12.9747 35.4072 -25.1611 -13.2414 
35.4072 -28.981 -11.2529 42.5635 -23.5103 -13.2414 42.5635 -28.981 -8.51596 
49.7197 -28.981 -7.02857 -50.5676 -21.8248 -13.2414 -57.6242 -15.3576 -13.2414 
-57.6242 -21.8248 -7.93685 45.0946 -21.8248 -13.2414 49.7197 -16.236 -13.2414 
49.7197 -21.8248 -11.1619 56.876 -21.8248 -8.69281 -57.9652 -14.6685 -13.2414 
-57.6242 -13.0639 -13.2414 53.6485 -14.6685 -13.2414 56.876 -14.6685 -12.4745 
-56.0319 -7.51223 -13.2414 -57.6242 -7.51223 -12.176 -0.374083 -2.51144 -13.2414 
13.9384 -0.568951 -13.2414 54.0584 -7.51223 -13.2414 56.876 -7.51223 -12.0085 
64.0323 -7.51223 -8.7068 -64.7804 -0.35597 -7.05672 -56.6119 -0.35597 -13.2414 
-57.6242 -0.35597 -12.6756 -1.77198 -0.35597 -13.2414 1.27856 -0.35597 -13.2414 
-0.374083 1.70291 -13.2414 -0.374083 -0.35597 -11.4641 13.8858 -0.35597 -13.2414 
14.2318 -0.35597 -13.2414 13.9384 -0.35597 -13.2115 53.3808 -0.35597 -13.2414 
56.876 -0.35597 -11.8229 64.0323 -0.35597 -7.81555 -56.9165 6.80029 -13.2414 
-57.6242 6.80029 -12.9334 -50.4679 10.7123 -13.2414 13.7852 6.80029 -13.2414 
14.2593 6.80029 -13.2414 13.9384 7.77566 -13.2414 13.9384 6.80029 -13.1859 
54.8257 6.80029 -13.2414 49.7197 9.86006 -13.2414 56.876 6.80029 -12.6545 
64.0323 6.80029 -6.14239 -57.6242 13.9566 -8.4459 -48.1102 13.9566 -13.2414 
-50.4679 13.9566 -12.0061 -43.3116 19.0128 -13.2414 -0.374083 20.4995 -13.2414 
6.78218 19.4308 -13.2414 47.1113 13.9566 -13.2414 42.5635 19.2526 -13.2414 
49.7197 13.9566 -12.0256 56.876 13.9566 -7.83405 -50.4679 21.1128 -8.19447 
-38.16 21.1128 -13.2414 -43.3116 21.1128 -12.1293 -36.1554 22.0041 -13.2414 
-28.9991 25.1621 -13.2414 -21.8429 25.3696 -13.2414 -14.6866 24.14 -13.2414 
-4.73587 21.1128 -13.2414 -7.53034 21.5498 -13.2414 -0.374083 21.1128 -13.0369 
8.10069 21.1128 -13.2414 6.78218 21.1128 -13.0358 13.9384 24.4591 -13.2414 
21.0947 25.8818 -13.2414 28.251 27.8296 -13.2414 38.6394 21.1128 -13.2414 
35.4072 22.9196 -13.2414 42.5635 21.1128 -12.2977 49.7197 21.1128 -9.10359 
-43.3116 28.2691 -6.32778 -36.1554 28.2691 -9.6079 -28.9991 28.2691 -11.4996 
-21.8429 28.2691 -11.8882 -14.6866 28.2691 -11.6105 -7.53034 28.2691 -10.9168 
-0.374083 28.2691 -10.5569 6.78218 28.2691 -11.0943 13.9384 28.2691 -12.1332 
21.0947 28.2691 -12.6101 28.251 28.2691 -13.0964 35.4072 28.2691 -10.8288 
42.5635 28.2691 -6.79004 13.9384 35.4253 -6.56788 21.0947 35.4253 -7.29167 
28.251 35.4253 -6.18006 -43.3116 -32.338 -6.08512 -36.1554 -34.5708 -6.08512 
-28.9991 -35.5356 -6.08512 -21.8429 -35.6128 -6.08512 -14.6866 -35.3198 -6.08512 
-7.53034 -34.0543 -6.08512 -0.374083 -33.3774 -6.08512 6.78218 -33.5966 -6.08512 
13.9384 -33.6829 -6.08512 21.0947 -33.5605 -6.08512 28.251 -33.4596 -6.08512 
35.4072 -32.6351 -6.08512 42.5635 -31.1409 -6.08512 49.7197 -29.5829 -6.08512 
-57.6242 -23.1488 -6.08512 -49.4747 -28.981 -6.08512 -50.4679 -28.3475 -6.08512 
50.7406 -28.981 -6.08512 56.876 -24.3474 -6.08512 -58.6661 -21.8248 -6.08512 
-57.6242 -21.8248 -0.356708 59.7149 -21.8248 -6.08512 -62.8523 -14.6685 -6.08512 
63.4168 -14.6685 -6.08512 64.0323 -13.6036 -6.08512 64.0323 -14.6685 -3.78185 
-64.5543 -7.51223 -6.08512 -64.7804 -5.86054 -6.08512 66.1432 -7.51223 -6.08512 
-65.3622 -0.35597 -6.08512 -64.7804 1.49633 -6.08512 65.5441 -0.35597 -6.08512 
-62.3971 6.80029 -6.08512 64.0833 6.80029 -6.08512 64.0323 6.88963 -6.08512 
-59.6538 13.9566 -6.08512 -57.6242 16.6694 -6.08512 58.6109 13.9566 -6.08512 
56.876 16.5142 -6.08512 -53.3175 21.1128 -6.08512 -50.4679 23.6803 -6.08512 
52.7749 21.1128 -6.08512 49.7197 23.8022 -6.08512 -43.6955 28.2691 -6.08512 
-43.3116 28.4745 -6.08512 -36.1554 31.5218 -6.08512 -28.9991 33.2843 -6.08512 
-21.8429 34.5001 -6.08512 -14.6866 34.4157 -6.08512 -7.53034 33.7238 -6.08512 
-0.374083 33.3214 -6.08512 6.78218 34.3382 -6.08512 35.4072 32.6801 -6.08512 
43.2733 28.2691 -6.08512 42.5635 28.6558 -6.08512 -28.9991 35.4253 -0.0119315 
-21.8429 35.4253 -3.72225 -14.6866 35.4253 -4.13565 -7.53034 35.4253 -2.70131 
-0.374083 35.4253 -1.43769 11.8412 35.4253 -6.08512 6.78218 35.4253 -3.77386 
13.9384 35.8131 -6.08512 21.0947 36.4257 -6.08512 28.4417 35.4253 -6.08512 
28.251 35.4939 -6.08512 -43.3116 -31.9443 1.07115 -36.1554 -34.704 1.07115 
-28.9991 -35.5962 1.07115 -21.8429 -35.913 1.07115 -14.6866 -35.5835 1.07115 
-7.53034 -34.6473 1.07115 -0.374083 -33.8822 1.07115 6.78218 -33.284 1.07115 
13.9384 -32.745 1.07115 21.0947 -32.8182 1.07115 28.251 -33.4092 1.07115 
35.4072 -33.0051 1.07115 42.5635 -31.8985 1.07115 49.7197 -29.4859 1.07115 
-49.0326 -28.981 1.07115 -50.4679 -28.0744 1.07115 -43.3116 -28.981 6.42194 
13.9384 -28.981 7.96575 21.0947 -28.981 7.7696 42.5635 -28.981 7.0369 
50.7065 -28.981 1.07115 49.7197 -28.981 2.46182 56.876 -25.113 1.07115 
-57.2989 -21.8248 1.07115 -57.6242 -21.3925 1.07115 60.9945 -21.8248 1.07115 
56.876 -21.8248 5.86684 64.0323 -16.6651 1.07115 -63.1259 -14.6685 1.07115 
-57.6242 -14.6685 6.08725 64.7978 -14.6685 1.07115 64.0323 -14.6685 2.65348 
-63.7875 -7.51223 1.07115 -64.7804 -2.00944 1.07115 67.3129 -7.51223 1.07115 
64.0323 -7.51223 7.92973 -65.0792 -0.35597 1.07115 -64.7804 0.68125 1.07115 
-64.7804 -0.35597 1.88406 67.1199 -0.35597 1.07115 64.0323 -0.35597 6.73162 
-63.0688 6.80029 1.07115 65.5348 6.80029 1.07115 64.0323 9.24756 1.07115 
64.0323 6.80029 4.23565 -60.7616 13.9566 1.07115 -57.6242 18.7752 1.07115 
-57.6242 13.9566 7.22644 61.2499 13.9566 1.07115 56.876 19.2126 1.07115 
-55.8615 21.1128 1.07115 -50.4679 26.1192 1.07115 54.8425 21.1128 1.07115 
49.7197 25.7402 1.07115 -47.8419 28.2691 1.07115 -43.3116 31.2065 1.07115 
-36.1554 34.1294 1.07115 35.4072 34.0223 1.07115 45.7372 28.2691 1.07115 
42.5635 30.0515 1.07115 42.5635 28.2691 4.79548 -30.5656 35.4253 1.07115 
-28.9991 35.7644 1.07115 -28.9991 35.4253 3.06744 -21.8429 36.865 1.07115 
-14.6866 37.4614 1.07115 -7.53034 36.8616 1.07115 -0.374083 36.2809 1.07115 
-0.374083 35.4253 7.70175 6.78218 37.1102 1.07115 13.9384 38.3839 1.07115 
21.0947 38.753 1.07115 32.6302 35.4253 1.07115 28.251 37.3302 1.07115 
28.251 35.4253 6.25849 -36.1554 -30.61 8.22741 -28.9991 -32.0073 8.22741 
-21.8429 -32.6787 8.22741 -14.6866 -32.1564 8.22741 -7.53034 -31.3936 8.22741 
-0.374083 -30.693 8.22741 6.78218 -29.7163 8.22741 28.251 -29.9616 8.22741 
35.4072 -29.7535 8.22741 -50.4679 -22.0501 8.22741 -40.4 -28.981 8.22741 
-43.3116 -27.6051 8.22741 -36.1554 -28.981 9.84437 -28.9991 -28.981 11.1233 
-21.8429 -28.981 11.5076 -14.6866 -28.981 11.2355 -7.53034 -28.981 10.6664 
-0.374083 -28.981 9.932 12.6191 -28.981 8.22741 6.78218 -28.981 9.03335 
13.9384 -28.7714 8.22741 22.6745 -28.981 8.22741 21.0947 -28.6406 8.22741 
[...]
POINT_DATA 606
SCALARS ImageScalars float
LOOKUP_TABLE default
0 0 0 0 0 0 0 0 0 
0 0 0 0 0 0 0 0 0 
0 0 0 0 0 0 0 0 0 
0 0 0 0 0 0 0 0 0 
0 0 0 0 0 0 0 0 0 
0 0 0 0 0 0 0 0 0 
0 0 0 0 0 0 0 0 0 
0 0 0 0 0 0 0 0 0 
0 0 0 0 0 0 0 0 0 
0 0 0 0 0 0 0 0 0 
0 0 0 0 0 0 0 0 0 
0 0 0 0 0 0 0 0 0 
0 0 0 0 0 0 0 0 0 
0 0 0 0 0 0 0 0 0 
0 0 0 0 0 0 0 0 0 
0 0 0 0 0 0 0 0 0 
0 0 0 0 0 0 0 0 0 
0 0 0 0 0 0 0 0 0 
0 0 0 0 0 0 0 0 0 
0 0 0 0 0 0 0 0 0 
0 0 0 0 0 0 0 0 0 
0 0 0 0 0 0 0 0 0 
0 0 0 0 0 0 0 0 0 
0 0 0 0 0 0 0 0 0 
0 0 0 0 0 0 0 0 0 
0 0 0 0 0 0 0 0 0 
0 0 0 0 0 0 0 0 0 
0 0 0 0 0 0 0 0 0 
0 0 0 0 0 0 0 0 0 
0 0 0 0 0 0 0 0 0 
0 0 0 0 0 0 0 0 0 
0 0 0 0 0 0 0 0 0 
0 0 0 0 0 0 0 0 0 
0 0 0 0 0 0 0 0 0 
0 0 0 0 0 0 0 0 0 
0 0 0 0 0 0 0 0 0 
0 0 0 0 0 0 0 0 0 
0 0 0 0 0 0 0 0 0 
0 0 0 0 0 0 0 0 0 
0 0 0 0 0 0 0 0 0 
0 0 0 0 0 0 0 0 0 
0 0 0 0 0 0 0 0 0 
0 0 0 0 0 0 0 0 0 
0 0 0 0 0 0 0 0 0 
0 0 0 0 0 0 0 0 0 
0 0 0 0 0 0 0 0 0 
0 0 0 0 0 0 0 0 0 
0 0 0 0 0 0 0 0 0 
0 0 0 0 0 0 0 0 0 
0 0 0 0 0 0 0 0 0 
0 0 0 0 0 0 0 0 0 
0 0 0 0 0 0 0 0 0 
0 0 0 0 0 0 0 0 0 
0 0 0 0 0 0 0 0 0 
0 0 0 0 0 0 0 0 0 
0 0 0 0 0 0 0 0 0 
0 0 0 0 0 0 0 0 0 
0 0 0 0 0 0 0 0 0 
0 0 0 0 0 0 0 0 0 
0 0 0 0 0 0 0 0 0 
0 0 0 0 0 0 0 0 0 
0 0 0 0 0 0 0 0 0 
0 0 0 0 0 0 0 0 0 
0 0 0 0 0 0 0 0 0 
0 0 0 0 0 0 0 0 0 
0 0 0 0 0 0 0 0 0 
0 0 0 0 0 0 0 0 0 
0 0 0 
NORMALS Normals float
-0.148239 0.0589393 0.987194 0.12462 0.536818 0.834444 0.0222993 0.522276 0.852485 
-0.00034384 0.428106 0.903728 -0.0545809 0.420648 0.905581 -0.00577481 0.552156 0.833721 
0.406104 0.392167 0.825399 0.155108 0.279426 0.947556 0.0512111 0.239268 0.969602 
-0.0286421 0.181179 0.983033 -0.10317 0.0899496 0.990588 -0.0517322 0.0571906 0.997022 
0.01424 0.0947582 0.995398 0.0923904 0.215976 0.972018 0.0576954 0.245619 0.967648 
-0.0508429 0.132716 0.989849 -0.0578609 0.117992 0.991327 -0.0577883 0.159988 0.985426 
-0.0509086 0.267055 0.962336 -0.204689 0.328813 0.921946 0.560666 0.121979 0.819008 
0.230604 0.169944 0.958092 0.0584054 0.094219 0.993837 0.00837106 0.0633687 0.997955 
-0.103587 0.028371 0.994216 -0.146929 -0.0283874 0.98874 -0.0711443 -0.0860548 0.993747 
0.0982047 0.0291282 0.99474 0.202202 0.0677586 0.976997 -0.00889402 0.171545 0.985136 
-0.150307 -0.0642462 0.98655 -0.0234565 -0.0620599 0.997797 0.0704441 0.0131731 0.997429 
-0.0339671 0.077846 0.996387 -0.143547 0.063359 0.987613 -0.167847 0.285697 0.943506 
0.268978 -0.0155593 0.963021 0.0761893 0.0272506 0.996721 -0.0172 -0.0183869 0.999683 
-0.130227 -0.0533405 0.990048 -0.193864 -0.0378116 0.980299 -0.0182057 -0.0618715 0.997918 
-0.142157 0.0690006 0.987436 0.184303 0.384724 0.904444 0.200782 -0.191802 0.960676 
-0.0130747 0.132222 0.991134 -0.322912 -0.1406 0.935927 0.0507212 -0.0859555 0.995007 
0.0837153 -0.0193211 0.996302 0.0138765 -0.0460382 0.998843 -0.0160014 0.031059 0.999389 
-0.253158 0.0588809 0.965631 0.241072 -0.0720589 0.967828 0.0680567 -0.093954 0.993248 
-0.0686032 -0.0591079 0.995892 -0.130033 -0.0435898 0.990551 -0.111737 0.000900724 0.993737 
-0.138096 0.0614942 0.988508 0.301255 0.138029 0.943501 -0.147723 0.0593191 0.987248 
-0.142709 0.0450938 0.988737 0.183644 -0.0745838 0.980159 0.110043 -0.0071768 0.993901 
0.109455 -0.0114937 0.993925 0.015679 -0.0183495 0.999709 -0.0485656 -0.0365047 0.998153 
-0.248149 -0.0709876 0.966117 0.208855 -0.256279 0.943769 0.0777322 -0.112355 0.990623 
0.0323116 -0.0657173 0.997315 -0.0675222 0.00508187 0.997705 -0.0421891 0.0448484 0.998103 
0.206627 0.0592888 0.976622 0.0493956 -0.336674 0.940325 -0.0745874 0.206386 0.975624 
-0.19928 -0.297387 0.933728 0.119271 0.0466781 0.991764 0.0726049 -0.00324367 0.997356 
-0.0107297 -0.00159796 0.999941 -0.071349 -0.0237617 0.997168 -0.17764 -0.203727 0.962777 
0.20876 -0.192377 0.958859 0.0500453 -0.166671 0.984742 -0.0127914 -0.0529393 0.998516 
-0.0416107 -0.0125618 0.999055 -0.0344676 -0.084678 0.995812 0.0309603 -0.288863 0.95687 
-0.0368931 -0.257198 0.965654 -0.146427 -0.232085 0.961611 0.0434126 0.0629141 0.997074 
0.0998141 0.00206445 0.995004 0.0614987 -0.0103358 0.998054 -0.0113052 -0.102403 0.994679 
-0.210887 -0.144597 0.966757 0.18767 -0.332469 0.924254 0.0854868 -0.273103 0.958179 
-0.0666291 -0.215361 0.974259 -0.103221 -0.227868 0.968205 -0.0841503 -0.253655 0.963628 
0.0976074 -0.102339 0.989949 0.0567149 -0.127068 0.990271 -0.0319627 -0.148825 0.988347 
-0.163237 -0.270034 0.948913 0.127396 0.551052 0.824689 0.0251011 0.547827 0.836215 
0.00309961 0.478081 0.878311 -0.0568162 0.4526 0.889902 -0.00785706 0.60163 0.798737 
0.407011 0.394949 0.823624 0.139342 0.55431 0.820564 0.216656 0.538614 0.81422 
0.305872 0.736176 0.603728 -0.0698186 0.464509 0.882812 -0.0700002 0.442064 0.894248 
-0.0855176 0.509234 0.856369 0.0334144 0.465901 0.884206 0.00338996 0.623568 0.781761 
0.0782788 0.591572 0.802443 0.0992273 0.582629 0.806658 0.100194 0.610917 0.785329 
-0.0397888 0.576069 0.816432 -0.0539345 0.539267 0.840406 -0.0543854 0.601923 0.7967 
-0.0782829 0.540631 0.83761 -0.0794618 0.582512 0.808928 -0.153906 0.408743 0.899579 
-0.246581 0.679226 0.691267 -0.211481 0.420978 0.882073 -0.205288 0.802748 0.559869 
-0.399443 0.821222 0.407479 0.409168 0.393575 0.823214 0.569992 0.159694 0.805982 
0.740201 0.581012 0.338419 -0.250663 0.342365 0.905513 -0.193169 0.294735 0.935851 
-0.363686 0.368324 0.85561 -0.578295 0.586688 0.566897 0.582852 0.12726 0.802551 
0.561982 0.0795562 0.823315 -0.326076 0.207672 0.922251 -0.465148 0.16154 0.870369 
0.485691 -0.0310513 0.873579 0.573923 -0.0277483 0.818439 0.045362 -0.0981582 0.994136 
-0.312513 -0.100544 0.944578 -0.330386 -0.0146829 0.943732 -0.383776 -0.0307599 0.922914 
-0.779705 0.12995 0.612514 0.924086 -0.122548 0.362005 0.455874 0.0305254 0.88952 
0.505636 0.0434777 0.861651 -0.112476 0.0765964 0.990698 -0.0508993 -0.0530723 0.997293 
-0.119164 0.113136 0.986408 -0.0940952 0.00468892 0.995552 -0.31 -0.0978982 0.945683 
-0.288937 -0.0920784 0.95291 -0.311071 -0.0964812 0.945477 -0.339153 -0.00274892 0.940727 
-0.428599 0.0239328 0.903178 -0.775402 -0.145045 0.614584 0.502733 -0.197732 0.841524 
0.541469 -0.191854 0.818537 0.299986 -0.343168 0.890081 -0.109999 0.0239059 0.993644 
-0.0944244 0.031018 0.995049 -0.083684 0.0359393 0.995844 -0.106376 0.0302227 0.993867 
-0.379892 -0.166879 0.909854 -0.267588 -0.207229 0.940985 -0.464239 -0.165288 0.870151 
-0.778135 -0.372251 0.5059 0.658226 -0.474237 0.584669 0.329493 -0.321726 0.887652 
0.395313 -0.380638 0.835968 0.284031 -0.416471 0.863643 -0.026557 -0.296962 0.95452 
0.0295025 -0.186704 0.981973 -0.324476 -0.188855 0.926849 -0.215438 -0.309241 0.926259 
-0.403044 -0.235382 0.884393 -0.655362 -0.450002 0.606629 0.522706 -0.558318 0.644252 
0.222203 -0.382369 0.896895 0.318917 -0.507727 0.800316 0.198418 -0.363337 0.910284 
0.101916 -0.419874 0.901842 -0.0225712 -0.395504 0.918187 -0.0879619 -0.33376 0.938545 
-0.0596722 -0.272823 0.960212 -0.0829754 -0.264502 0.960809 -0.0226356 -0.302597 0.95285 
0.080356 -0.164933 0.983026 0.07614 -0.180958 0.980539 0.0952645 -0.232333 0.96796 
0.0615214 -0.300694 0.951734 -0.088524 -0.429403 0.898764 -0.186053 -0.316459 0.930182 
-0.173902 -0.326298 0.929133 -0.246954 -0.40174 0.881827 -0.513399 -0.584353 0.628452 
0.380265 -0.7513 0.539395 0.28452 -0.663502 0.691964 0.121616 -0.566495 0.815042 
0.00570953 -0.544628 0.838658 -0.0595639 -0.506935 0.859924 -0.0638302 -0.495787 0.866095 
0.0122343 -0.506008 0.862442 0.101325 -0.438623 0.89294 0.0943666 -0.400328 0.9115 
0.0574876 -0.395927 0.916481 -0.0931561 -0.450122 0.888095 -0.261239 -0.58793 0.765566 
-0.49316 -0.785315 0.374263 0.119597 -0.813946 0.568497 -0.0180292 -0.804818 0.593247 
-0.22552 -0.84663 0.482036 0.372774 0.89716 0.236946 0.213413 0.928911 0.30262 
0.0686611 0.957487 0.280186 -0.0141882 0.966868 0.254883 -0.107107 0.951553 0.288227 
-0.135194 0.93683 0.322602 -0.030692 0.948757 0.314512 0.0213324 0.976894 0.212659 
-0.00246931 0.988326 0.152335 -0.0162152 0.97886 0.203886 -0.0662356 0.958816 0.276196 
-0.145349 0.946433 0.288337 -0.214475 0.896411 0.387876 -0.397918 0.85832 0.323956 
0.75329 0.629717 0.189762 0.518706 0.833516 0.190247 0.537995 0.821997 0.186769 
-0.438074 0.834303 0.334708 -0.621915 0.654636 0.429738 0.791676 0.581161 0.188417 
0.778852 0.60127 -0.178504 -0.682185 0.564901 0.464231 0.86926 0.380323 0.31582 
-0.781566 0.361784 0.5082 -0.802771 0.330497 0.496317 -0.882272 0.372267 0.28812 
0.951149 0.146131 0.27196 0.956936 0.0882778 0.276551 -0.87674 0.129895 0.463092 
0.943764 -0.115041 0.309959 0.929358 -0.177007 0.323978 -0.838003 -0.131649 0.529546 
0.86299 -0.332283 0.380573 -0.779192 -0.372741 0.503908 -0.778451 -0.375307 0.503148 
0.779886 -0.465297 0.41866 0.726417 -0.532951 0.433915 -0.724787 -0.472558 0.501371 
-0.698967 -0.528525 0.481774 0.613126 -0.613374 0.497844 0.556525 -0.656834 0.508772 
-0.610989 -0.675109 0.413426 -0.565049 -0.717332 0.407621 0.390819 -0.755789 0.525398 
0.382039 -0.759059 0.527139 0.295434 -0.805669 0.513436 0.168527 -0.861625 0.478749 
0.0713604 -0.853948 0.515442 -0.0431086 -0.813972 0.579302 -0.060501 -0.801291 0.595208 
0.0326905 -0.799246 0.600114 0.138998 -0.805514 0.576045 -0.367603 -0.842639 0.393481 
-0.508015 -0.796316 0.328331 -0.499649 -0.804355 0.321503 0.182983 -0.975663 0.120827 
0.0937514 -0.928853 0.35839 -0.0311012 -0.897318 0.440288 -0.0724477 -0.935349 0.346227 
0.0234304 -0.967012 0.253651 0.125706 -0.828968 0.544986 0.144821 -0.904961 0.40009 
0.121275 -0.830929 0.543 -0.0247939 -0.846555 0.531723 -0.23076 -0.849601 0.474265 
-0.227244 -0.849023 0.476991 0.397346 0.885844 -0.239575 0.246715 0.940222 -0.234765 
0.0807977 0.975399 -0.205107 -0.0010688 0.988357 -0.152148 -0.0873959 0.981142 -0.172404 
-0.117753 0.982206 -0.14631 -0.0939883 0.983975 -0.151527 -0.0790868 0.969273 -0.232928 
-0.0322131 0.954293 -0.297132 0.0461183 0.954004 -0.296225 0.0152667 0.972825 -0.231038 
-0.10458 0.980307 -0.167517 -0.230697 0.957108 -0.175278 -0.387281 0.906272 -0.169363 
0.500881 0.837121 -0.219877 0.534829 0.81436 -0.225336 0.34695 0.732474 -0.585754 
-0.0600354 0.763553 -0.642948 0.0707449 0.799012 -0.597139 -0.190058 0.814897 -0.547559 
-0.417227 0.893872 -0.164056 -0.382971 0.89476 -0.229645 -0.607041 0.777643 -0.163626 
0.755985 0.595415 -0.27197 0.761333 0.586385 -0.27663 -0.734588 0.666489 -0.127172 
-0.570807 0.665405 -0.481057 -0.90248 0.411932 -0.125865 0.882658 0.36153 -0.300351 
0.668338 0.315963 -0.673418 -0.930304 0.340243 -0.137003 -0.910736 0.331925 -0.245737 
0.958225 0.122078 -0.258654 0.977324 -0.018222 -0.210964 -0.983363 0.159254 -0.0873849 
-0.794097 0.140869 -0.591241 0.978258 -0.0543593 -0.200143 0.978922 -0.0832861 -0.186482 
0.965633 -0.0441853 -0.256125 -0.988481 -0.10748 -0.106554 -0.864381 -0.112219 -0.490156 
0.955848 -0.270761 -0.114201 -0.912608 -0.394971 -0.105566 -0.893889 -0.442011 -0.0747597 
-0.891142 -0.326455 -0.315107 0.891259 -0.440565 -0.107513 0.810873 -0.574393 -0.112062 
0.800874 -0.402198 -0.443664 -0.833451 -0.552348 -0.0164702 -0.703736 -0.709561 -0.035778 
0.758792 -0.647003 -0.0749828 0.64965 -0.759771 -0.0265342 -0.662606 -0.747477 -0.0472339 
-0.587843 -0.797204 -0.137497 0.581693 -0.813369 -0.00801368 0.454067 -0.890461 0.0300391 
0.32401 -0.945294 0.0378948 -0.460083 -0.882112 -0.101004 -0.526997 -0.838794 -0.136741 
-0.498446 -0.857744 -0.125801 -0.474338 -0.798845 -0.369932 0.214366 -0.974775 0.062144 
0.182031 -0.980827 0.0695886 0.19856 -0.979053 -0.0450386 0.11663 -0.989782 0.0820278 
-0.000359119 -0.993204 0.116383 -0.0828334 -0.990159 0.1128 0.016802 -0.994689 0.101544 
0.0242791 -0.939506 -0.341672 0.146655 -0.983969 0.101472 0.112801 -0.990303 0.0810957 
-0.0773524 -0.996699 0.0246419 -0.399313 -0.913956 -0.0723517 -0.295501 -0.95443 -0.0417474 
-0.348608 -0.843874 -0.40786 0.226174 0.719456 -0.65668 0.118817 0.754773 -0.645136 
0.00979065 0.77737 -0.628967 -0.0744399 0.762659 -0.642503 -0.0881573 0.768606 -0.633619 
-0.101941 0.759085 -0.642961 -0.1148 0.755144 -0.645428 0.0623372 0.794036 -0.604666 
-0.10372 0.797055 -0.594933 0.451696 0.461832 -0.763337 0.281295 0.678846 -0.678264 
0.323521 0.637273 -0.699441 0.239306 0.644353 -0.726321 0.0976062 0.616754 -0.781081 
0.00725622 0.601298 -0.798992 -0.0504331 0.583625 -0.810455 -0.0807371 0.617342 -0.782541 
-0.0937821 0.659971 -0.745415 -0.0703344 0.752264 -0.655097 -0.11058 0.717901 -0.687307 
-0.0583911 0.749106 -0.659871 0.0695558 0.786179 -0.614072 0.0724053 0.777992 -0.624088 
0.0555364 0.758869 -0.648871 -0.147457 0.777043 -0.611932 -0.107478 0.765205 -0.634752 
-0.181315 0.754362 -0.630922 -0.361365 0.699565 -0.616461 0.457179 0.455456 -0.763903 
0.449527 0.453833 -0.76939 0.323884 0.429827 -0.842821 0.189547 0.332653 -0.923804 
0.0935213 0.299737 -0.949427 -0.0592893 0.267376 -0.961767 -0.0959276 0.237048 -0.96675 
-0.0430088 0.205215 -0.977772 -0.0163269 0.307935 -0.951267 -0.0147129 0.371383 -0.928363 
0.0255088 0.420922 -0.906738 0.0735307 0.422641 -0.903309 0.0184287 0.391793 -0.919869 
-0.0466795 0.442238 -0.895682 -0.178452 0.466543 -0.86631 -0.478434 0.574112 -0.664452 
-0.339015 0.457439 -0.822082 -0.52295 0.530735 -0.666966 0.573823 0.246752 -0.780923 
0.591137 0.23427 -0.771799 0.424712 0.263446 -0.86615 0.269489 0.193194 -0.943425 
-0.125157 0.0963333 -0.987449 -0.0104006 0.16179 -0.98677 0.0805278 0.216816 -0.972886 
0.0182793 0.193879 -0.980855 0.0323102 0.162501 -0.986179 -0.316773 0.355747 -0.87926 
-0.638416 0.346062 -0.687507 -0.49086 0.325213 -0.808265 0.610033 0.226681 -0.75926 
0.572281 0.216095 -0.791074 0.330998 0.168607 -0.928446 0.217158 0.0811719 -0.972756 
-0.774481 0.140425 -0.616814 -0.426246 0.137873 -0.894039 0.621603 0.0296146 -0.782772 
0.515387 0.0390317 -0.856068 0.386453 0.0811963 -0.918728 -0.068755 0.0163839 -0.997499 
-0.786231 -0.104696 -0.608999 -0.415428 -0.0432079 -0.908599 0.713455 -0.172789 -0.679062 
0.757558 -0.324526 -0.566382 0.643375 -0.0967271 -0.759416 0.342196 -0.0349315 -0.938979 
-0.747443 -0.255697 -0.613146 -0.515106 -0.219283 -0.828602 0.768782 -0.374742 -0.51821 
0.378803 -0.230625 -0.896282 -0.223356 -0.250041 -0.942121 -0.339675 -0.452579 -0.824495 
-0.601314 -0.489417 -0.631579 -0.585799 -0.515525 -0.625359 -0.575641 -0.482098 -0.660469 
0.639726 -0.561084 -0.525296 0.583454 -0.646224 -0.49191 0.572866 -0.523053 -0.631063 
0.350397 -0.338725 -0.873205 -0.195977 -0.204547 -0.959038 -0.175156 -0.363876 -0.91483 
-0.415418 -0.664119 -0.62159 -0.331543 -0.501797 -0.798923 -0.412001 -0.631759 -0.65661 
-0.403006 -0.63296 -0.66102 -0.398767 -0.623477 -0.672504 0.498572 -0.722488 -0.478996 
0.481269 -0.732852 -0.480945 0.47015 -0.696538 -0.542028 0.338393 -0.828319 -0.446517 
0.281993 -0.592767 -0.754392 0.223447 -0.895338 -0.385282 0.107123 -0.483143 -0.868963 
0.0643909 -0.391709 -0.917833 -0.0297385 -0.342408 -0.939081 0.0248025 -0.925056 -0.379021 
0.0288104 -0.389123 -0.920735 -0.357028 -0.743418 -0.565563 -0.313277 -0.436845 -0.843222 
-0.412809 -0.674934 -0.611598 -0.41329 -0.684008 -0.601103 -0.386583 -0.60723 -0.694136 
0.172248 -0.913207 -0.369301 0.139479 -0.917659 -0.372086 0.134675 -0.894272 -0.426779 
-0.00459221 -0.922577 -0.385786 -0.00517348 -0.870379 -0.492355 0.0102444 -0.926073 -0.377205 
-0.0835592 -0.922134 -0.377739 -0.0815857 -0.900877 -0.426338 0.0335623 -0.926132 -0.375703 
0.135186 -0.923011 -0.360242 0.132996 -0.883622 -0.448915 0.0500457 -0.923871 -0.379417 
0.0299601 -0.822663 -0.567739 -0.29531 -0.802192 -0.518922 -0.170498 -0.872076 -0.458708 
-0.191299 -0.793978 -0.577064 0.109856 0.186029 -0.976384 0.0753558 0.24147 -0.967478 
-0.0618102 0.178536 -0.98199 0.0718502 0.207669 -0.975557 0.0407603 0.272211 -0.961374 
-0.043479 0.313848 -0.948477 -0.142332 0.221784 -0.964652 0.117452 0.182973 -0.976077 
0.107527 0.181985 -0.977404 0.0340554 0.121069 -0.99206 -0.109814 0.0906164 -0.989813 
-0.061385 0.0738266 -0.99538 -0.05421 0.0610934 -0.996659 0.0511837 0.241078 -0.969155 
0.068695 0.175772 -0.982031 0.0134517 0.189265 -0.981834 0.0387464 0.161789 -0.986064 
0.0261147 0.146985 -0.988794 0.0716277 0.159211 -0.984643 0.0597556 0.156037 -0.985942 
-0.0466811 0.190277 -0.98062 -0.173523 0.228892 -0.957861 -0.134151 0.194285 -0.971729 
-0.292046 0.242989 -0.925022 0.177161 0.0795377 -0.980963 0.198035 0.0780116 -0.977086 
0.119241 0.0814123 -0.989522 -0.00604607 0.0477574 -0.998841 -0.0873115 0.0163335 -0.996047 
0.0028661 0.0332602 -0.999443 0.0862418 0.280725 -0.955906 -0.0613314 0.0160441 -0.997989 
0.00806737 0.0273603 -0.999593 -0.0612531 0.123286 -0.990479 -0.00788696 0.067517 -0.997687 
0.0639602 0.0277415 -0.997567 0.0652001 0.0417182 -0.997 0.0138091 0.0539096 -0.99845 
-0.05495 0.112372 -0.992146 -0.301754 0.079168 -0.950093 -0.248143 0.0500663 -0.967429 
0.225829 0.0799024 -0.970884 0.185775 0.0784299 -0.979457 0.0670164 0.0720955 -0.995144 
-0.036341 0.0450668 -0.998323 -0.0764349 0.0459421 -0.996016 0.123998 0.00782372 -0.992252 
-0.0674645 0.0144392 -0.997617 0.000246412 -0.0146095 -0.999893 -0.0594327 0.0168081 -0.998091 
-0.0586978 0.02075 -0.99806 0.0602857 0.0295268 -0.997744 -0.0660833 -0.00828397 -0.99778 
0.04518 -0.0084071 -0.998944 0.0811458 0.00261645 -0.996699 0.0209353 -0.00545012 -0.999766 
-0.125321 -0.0193629 -0.991927 -0.280922 -0.0295456 -0.959276 -0.275291 -0.0302027 -0.960887 
0.239328 -0.0163081 -0.970802 0.196071 -0.00359463 -0.980583 0.0906226 0.030648 -0.995414 
-0.0321727 0.100591 -0.994408 -0.121771 0.0804728 -0.989291 -0.061793 0.0550683 -0.996569 
0.0928698 -0.13574 -0.986382 0.049553 0.0572971 -0.997127 -0.0847978 -0.0454953 -0.995359 
-0.0427406 0.0179103 -0.998926 0.0752361 0.0087959 -0.997127 0.0675966 -0.0357308 -0.997073 
-0.00818412 -0.0730556 -0.997294 -0.193082 -0.228286 -0.954256 -0.078104 -0.149877 -0.985615 
-0.301235 -0.155407 -0.940801 -0.266357 -0.228935 -0.936292 -0.256436 -0.155097 -0.954037 
0.252498 -0.0830076 -0.96403 0.298114 -0.195023 -0.934395 0.242419 -0.0644461 -0.968029 
0.166491 -0.0561661 -0.984442 0.013109 -0.0296887 -0.999473 -0.122594 0.020567 -0.992244 
-0.0860476 0.0908596 -0.992139 -0.00977572 0.0371529 -0.999262 0.0239346 -0.0339545 -0.999137 
0.014457 0.0286575 -0.999485 -0.0118026 0.127334 -0.99179 -0.00679051 0.0532864 -0.998556 
-0.160408 -0.187029 -0.969169 0.00260621 -0.111657 -0.993743 -0.192845 -0.236885 -0.952206 
-0.116126 -0.262831 -0.957828 -0.0879282 -0.195793 -0.976695 0.288772 -0.304063 -0.907831 
0.175321 -0.341234 -0.923484 0.13523 -0.234715 -0.962612 0.0800231 -0.373106 -0.924331 
0.0471705 -0.229832 -0.972087 0.0570957 -0.359224 -0.931503 0.000412353 -0.136483 -0.990642 
-0.0417848 -0.053007 -0.99772 -0.0297681 -0.337089 -0.941002 -0.0361688 -0.0541319 -0.997879 
0.0327574 -0.317916 -0.947553 0.0470138 -0.0831267 -0.995429 0.0779888 -0.0439277 -0.995986 
-0.024817 -0.00160455 -0.999691 -0.19125 -0.183337 -0.964267 -0.156647 -0.0542353 -0.986164 
0.0364256 -0.37453 -0.926499 -0.0258827 -0.343929 -0.938639 0.0107023 -0.380237 -0.924827 
0.0104903 -0.36324 -0.931637 0.0521304 -0.373806 -0.926041 0.0902649 -0.401314 -0.911482 
0.089012 -0.364794 -0.926824 -0.0179101 -0.431655 -0.901861 -0.0251271 -0.3401 -0.940054 
-0.202857 -0.344758 -0.91651 -0.201858 -0.346445 -0.916095 -0.201722 -0.343772 -0.917131 

