# vtk DataFile Version 4.2
vtk output
ASCII
DATASET POLYDATA
POINTS 544 float
-14.579 -36.3871 -18.4944 -6.61944 -36.3871 -19.4422 1.34016 -36.3871 -19.2714 
9.29976 -36.3871 -17.503 -30.4982 -28.4275 -19.1956 -22.5386 -28.4275 -20.7469 
-14.579 -28.4275 -21.6297 -6.61944 -28.4275 -21.925 1.34016 -28.4275 -21.2799 
9.29976 -28.4275 -19.9025 -46.4175 -20.4679 -17.2689 -38.4579 -20.4679 -20.1325 
-30.4982 -20.4679 -21.2844 -22.5386 -20.4679 -21.8594 -14.579 -20.4679 -22.3493 
-6.61944 -20.4679 -22.432 1.34016 -20.4679 -21.271 9.29976 -20.4679 -19.6918 
17.2594 -20.4679 -17.2863 -46.4175 -12.5083 -19.8185 -38.4579 -12.5083 -21.994 
-30.4982 -12.5083 -22.1596 -22.5386 -12.5083 -22.0471 -14.579 -12.5083 -22.3726 
-6.61944 -12.5083 -22.2087 1.34016 -12.5083 -19.996 9.29976 -12.5083 -19.7616 
17.2594 -12.5083 -17.1606 -54.3771 -4.54866 -18.0226 -46.4175 -4.54866 -21.0576 
-38.4579 -4.54866 -21.9264 -30.4982 -4.54866 -21.6853 -22.5386 -4.54866 -21.0655 
-14.579 -4.54866 -23.0521 -6.61944 -4.54866 -23.6939 1.34016 -4.54866 -19.3514 
9.29976 -4.54866 -22.4883 17.2594 -4.54866 -18.5246 25.219 -4.54866 -17.6514 
33.1786 -4.54866 -18.9955 41.1382 -4.54866 -18.6832 49.0978 -4.54866 -17.6281 
-54.3771 3.41094 -17.6722 -46.4175 3.41094 -21.1122 -38.4579 3.41094 -22.2892 
-30.4982 3.41094 -22.0732 -22.5386 3.41094 -21.2334 -14.579 3.41094 -22.6115 
-6.61944 3.41094 -23.6535 1.34016 3.41094 -19.7423 9.29976 3.41094 -21.6753 
17.2594 3.41094 -19.3986 25.219 3.41094 -19.7556 33.1786 3.41094 -20.2768 
41.1382 3.41094 -20.0697 49.0978 3.41094 -18.5545 -54.3771 11.3705 -17.2986 
-46.4175 11.3705 -21.1188 -38.4579 11.3705 -22.5152 -30.4982 11.3705 -22.537 
-22.5386 11.3705 -22.0117 -14.579 11.3705 -21.8253 -6.61944 11.3705 -22.3275 
1.34016 11.3705 -22.0373 9.29976 11.3705 -20.9466 17.2594 11.3705 -20.1168 
25.219 11.3705 -20.6811 33.1786 11.3705 -21.2322 41.1382 11.3705 -20.5685 
49.0978 11.3705 -18.7497 -46.4175 19.3301 -18.5724 -38.4579 19.3301 -21.2767 
-30.4982 19.3301 -22.2172 -22.5386 19.3301 -22.3682 -14.579 19.3301 -22.397 
-6.61944 19.3301 -22.8698 1.34016 19.3301 -23.1534 9.29976 19.3301 -21.8152 
17.2594 19.3301 -20.9416 25.219 19.3301 -21.27 33.1786 19.3301 -22.1291 
41.1382 19.3301 -20.2239 49.0978 19.3301 -16.9142 -30.4982 27.2897 -19.2062 
-22.5386 27.2897 -21.1636 -14.579 27.2897 -21.8548 -6.61944 27.2897 -22.1581 
1.34016 27.2897 -21.3451 9.29976 27.2897 -19.8573 17.2594 27.2897 -19.3017 
25.219 27.2897 -19.5587 33.1786 27.2897 -18.4684 -14.579 35.2494 -16.9392 
-14.579 -38.2315 -16.9089 -6.61944 -39.7888 -16.9089 1.34016 -39.7398 -16.9089 
9.29976 -37.1132 -16.9089 -30.4982 -31.8142 -16.9089 -30.4982 -36.3871 -11.2082 
-21.8917 -36.3871 -16.9089 -22.5386 -36.1549 -16.9089 -22.5386 -36.3871 -16.6932 
10.6549 -36.3871 -16.9089 17.2594 -36.3871 -12.9082 -46.4175 -21.088 -16.9089 
-46.4175 -28.4275 -9.44498 -37.6332 -28.4275 -16.9089 -38.4579 -27.8502 -16.9089 
-38.4579 -28.4275 -16.5214 17.1545 -28.4275 -16.9089 17.2594 -27.6626 -16.9089 
17.2594 -28.4275 -16.8653 25.219 -28.4275 -11.7796 -46.9317 -20.4679 -16.9089 
18.5787 -20.4679 -16.9089 25.219 -20.4679 -15.0498 33.1786 -20.4679 -13.8923 
41.1382 -20.4679 -12.7554 49.0978 -20.4679 -9.44564 -53.0689 -12.5083 -16.9089 
-54.3771 -9.73514 -16.9089 -54.3771 -12.5083 -15.8732 19.9295 -12.5083 -16.9089 
25.219 -9.35968 -16.9089 25.219 -12.5083 -16.4536 33.1786 -11.0831 -16.9089 
33.1786 -12.5083 -16.4186 41.1382 -11.0984 -16.9089 41.1382 -12.5083 -16.4653 
49.0978 -7.21274 -16.9089 49.0978 -12.5083 -15.2015 57.0574 -12.5083 -10.4842 
-55.7067 -4.54866 -16.9089 51.067 -4.54866 -16.9089 57.0574 -4.54866 -14.5969 
-55.3216 3.41094 -16.9089 53.225 3.41094 -16.9089 57.0574 3.41094 -15.1645 
-54.822 11.3705 -16.9089 -54.3771 12.1375 -16.9089 52.7563 11.3705 -16.9089 
57.0574 11.3705 -14.0237 -48.6899 19.3301 -16.9089 -54.3771 19.3301 -9.7006 
-46.4175 21.1824 -16.9089 -38.4579 25.8129 -16.9089 41.1382 26.2573 -16.9089 
49.1058 19.3301 -16.9089 49.0978 19.3411 -16.9089 57.0574 19.3301 -8.96833 
-35.868 27.2897 -16.9089 -38.4579 27.2897 -13.7451 -30.4982 29.6814 -16.9089 
-22.5386 32.7208 -16.9089 -6.61944 34.6717 -16.9089 1.34016 32.1495 -16.9089 
9.29976 30.6608 -16.9089 17.2594 30.4387 -16.9089 25.219 30.3992 -16.9089 
38.9877 27.2897 -16.9089 33.1786 29.3353 -16.9089 41.1382 27.2897 -15.941 
49.0978 27.2897 -9.46614 -14.6769 35.2494 -16.9089 -22.5386 35.2494 -10.7206 
-14.1135 35.2494 -16.9089 -14.579 35.2758 -16.9089 -6.61944 35.2494 -15.7278 
17.2594 35.2494 -9.00272 -30.4982 -37.5682 -8.94929 -22.5386 -40.6535 -8.94929 
-14.579 -42.843 -8.94929 -6.61944 -44.128 -8.94929 1.34016 -44.3115 -8.94929 
9.29976 -42.6309 -8.94929 17.2594 -38.9458 -8.94929 -46.4175 -28.7022 -8.94929 
-33.1344 -36.3871 -8.94929 -38.4579 -33.8118 -8.94929 20.7557 -36.3871 -8.94929 
25.219 -31.8139 -8.94929 -46.7494 -28.4275 -8.94929 31.6215 -28.4275 -8.94929 
33.1786 -27.6264 -8.94929 33.1786 -28.4275 -7.35386 41.1382 -24.1975 -8.94929 
41.1382 -28.4275 -1.20627 49.0978 -21.0007 -8.94929 -54.3273 -20.4679 -8.94929 
-54.3771 -20.391 -8.94929 -54.3771 -20.4679 -8.61901 49.9787 -20.4679 -8.94929 
57.0574 -14.7699 -8.94929 -58.9171 -12.5083 -8.94929 58.7605 -12.5083 -8.94929 
-60.9865 -4.54866 -8.94929 -62.3367 -4.54866 -1.51944 62.9844 -4.54866 -8.94929 
65.017 -4.54866 -3.71449 -61.6254 3.41094 -8.94929 -62.3367 3.41094 -4.88507 
63.0772 3.41094 -8.94929 65.017 3.41094 -3.33325 -59.9565 11.3705 -8.94929 
61.126 11.3705 -8.94929 -54.8008 19.3301 -8.94929 -54.3771 19.7662 -8.94929 
-46.4175 25.3648 -8.94929 57.0709 19.3301 -8.94929 57.0574 19.3454 -8.94929 
-42.0423 27.2897 -8.94929 -38.4579 28.7204 -8.94929 -30.4982 32.9244 -8.94929 
1.34016 34.9879 -8.94929 9.29976 34.0979 -8.94929 25.219 35.0695 -8.94929 
33.1786 33.8742 -8.94929 41.1382 31.6251 -8.94929 49.4107 27.2897 -8.94929 
49.0978 27.5313 -8.94929 49.0978 27.2897 -1.07784 -24.1297 35.2494 -8.94929 
-22.5386 35.8363 -8.94929 -22.5386 35.2494 -3.78557 -14.579 37.9076 -8.94929 
0.550885 35.2494 -8.94929 -6.61944 37.4254 -8.94929 1.34016 35.2494 -5.92318 
17.1078 35.2494 -8.94929 18.1582 35.2494 -8.94929 17.2594 35.2703 -8.94929 
17.2594 35.2494 -8.67489 -30.4982 -37.3309 -0.989689 -22.5386 -40.2745 -0.989689 
-14.579 -42.2335 -0.989689 -6.61944 -43.3534 -0.989689 1.34016 -43.3128 -0.989689 
9.29976 -42.2281 -0.989689 17.2594 -39.3864 -0.989689 -46.4175 -29.1511 -0.989689 
-32.7367 -36.3871 -0.989689 -38.4579 -33.6675 -0.989689 -30.4982 -36.3871 0.962402 
-22.5386 -36.3871 6.38027 22.3792 -36.3871 -0.989689 25.219 -34.6055 -0.989689 
33.1786 -30.7572 -0.989689 41.1382 -28.5306 -0.989689 -47.3399 -28.4275 -0.989689 
-54.3771 -21.6716 -0.989689 -46.4175 -28.4275 0.494691 41.5169 -28.4275 -0.989689 
49.0978 -26.1141 -0.989689 -55.3812 -20.4679 -0.989689 -54.3771 -20.4679 1.47957 
56.9067 -20.4679 -0.989689 57.0574 -20.3425 -0.989689 -60.4865 -12.5083 -0.989689 
-62.3367 -4.98778 -0.989689 63.0802 -12.5083 -0.989689 65.017 -7.2922 -0.989689 
-62.4276 -4.54866 -0.989689 -62.3367 -4.54866 -0.581638 65.925 -4.54866 -0.989689 
65.017 -4.54866 5.58694 -62.976 3.41094 -0.989689 -62.3367 7.50411 -0.989689 
-62.3367 3.41094 2.36432 65.7117 3.41094 -0.989689 65.017 5.55682 -0.989689 
65.017 3.41094 2.43603 -61.6183 11.3705 -0.989689 62.9513 11.3705 -0.989689 
-56.1279 19.3301 -0.989689 -54.3771 21.0569 -0.989689 -46.4175 26.3243 -0.989689 
49.0978 27.2865 -0.989689 57.9856 19.3301 -0.989689 57.0574 20.2948 -0.989689 
57.0574 19.3301 2.03357 -43.9351 27.2897 -0.989689 -38.4579 29.2193 -0.989689 
-30.4982 32.2318 -0.989689 -22.5386 34.9447 -0.989689 9.29976 34.8203 -0.989689 
17.2594 34.6469 -0.989689 25.219 34.797 -0.989689 33.1786 33.8217 -0.989689 
49.0929 27.2897 -0.989689 41.1382 31.78 -0.989689 -21.5084 35.2494 -0.989689 
-14.579 37.2225 -0.989689 -6.61944 37.3648 -0.989689 5.09083 35.2494 -0.989689 
1.34016 35.6364 -0.989689 9.29976 35.2494 4.09242 -14.579 -38.0005 6.96991 
-6.61944 -38.9522 6.96991 1.34016 -39.3429 6.96991 9.29976 -39.2036 6.96991 
17.2594 -37.2766 6.96991 -38.4579 -29.2144 6.96991 -30.4982 -32.6806 6.96991 
-21.0363 -36.3871 6.96991 -22.5386 -35.9347 6.96991 -14.579 -36.3871 8.71617 
-6.61944 -36.3871 10.0216 1.34016 -36.3871 10.8973 9.29976 -36.3871 12.0006 
19.3842 -36.3871 6.96991 17.2594 -36.3871 9.07346 25.219 -34.017 6.96991 
33.1786 -31.0515 6.96991 41.1382 -28.9373 6.96991 -39.7701 -28.4275 6.96991 
-46.4175 -24.4338 6.96991 -38.4579 -28.4275 7.83823 -30.4982 -28.4275 11.1532 
-22.5386 -28.4275 12.8507 -14.579 -28.4275 14.5246 42.9391 -28.4275 6.96991 
41.1382 -28.4275 8.39447 49.0978 -26.3858 6.96991 -51.106 -20.4679 6.96991 
-54.3771 -16.7787 6.96991 -46.4175 -20.4679 11.4361 -38.4579 -20.4679 14.552 
56.8904 -20.4679 6.96991 57.0574 -20.3028 6.96991 -57.652 -12.5083 6.96991 
-54.3771 -12.5083 10.8331 62.901 -12.5083 6.96991 57.0574 -12.5083 14.7939 
-60.4332 -4.54866 6.96991 64.8019 -4.54866 6.96991 -61.3829 3.41094 6.96991 
64.0102 3.41094 6.96991 -59.8578 11.3705 6.96991 60.5873 11.3705 6.96991 
57.0574 17.0113 6.96991 57.0574 11.3705 12.0713 -54.8402 19.3301 6.96991 
-54.3771 19.8383 6.96991 -54.3771 19.3301 7.90534 -46.4175 25.8049 6.96991 
55.1713 19.3301 6.96991 49.0978 24.5007 6.96991 49.0978 19.3301 14.3277 
-43.3189 27.2897 6.96991 -38.4579 29.3651 6.96991 -30.4982 32.3615 6.96991 
-22.5386 34.8693 6.96991 17.2594 34.74 6.96991 25.219 33.6067 6.96991 
33.1786 31.7068 6.96991 44.4301 27.2897 6.96991 41.1382 28.9215 6.96991 
41.1382 27.2897 10.3093 -20.9258 35.2494 6.96991 -14.579 36.6991 6.96991 
-14.579 35.2494 12.4391 -6.61944 37.1159 6.96991 -6.61944 35.2494 14.0621 
1.34016 36.3599 6.96991 1.34016 35.2494 13.8826 11.8433 35.2494 6.96991 
9.29976 35.4947 6.96991 9.29976 35.2494 8.85355 -6.61944 -30.5544 14.9295 
1.34016 -32.3003 14.9295 9.29976 -34.075 14.9295 17.2594 -33.3968 14.9295 
25.219 -31.345 14.9295 33.1786 -28.6131 14.9295 -30.4982 -22.5092 14.9295 
-22.5386 -24.0894 14.9295 -12.8516 -28.4275 14.9295 -14.579 -27.401 14.9295 
-6.61944 -28.4275 16.3535 1.34016 -28.4275 17.7678 9.29976 -28.4275 19.277 
[...]
POINT_DATA 544
SCALARS ImageScalars float
LOOKUP_TABLE default
0 0 0 0 0 0 0 0 0 
0 0 0 0 0 0 0 0 0 
0 0 0 0 0 0 0 0 0 
0 0 0 0 0 0 0 0 0 
0 0 0 0 0 0 0 0 0 
0 0 0 0 0 0 0 0 0 
0 0 0 0 0 0 0 0 0 
0 0 0 0 0 0 0 0 0 
0 0 0 0 0 0 0 0 0 
0 0 0 0 0 0 0 0 0 
0 0 0 0 0 0 0 0 0 
0 0 0 0 0 0 0 0 0 
0 0 0 0 0 0 0 0 0 
0 0 0 0 0 0 0 0 0 
0 0 0 0 0 0 0 0 0 
0 0 0 0 0 0 0 0 0 
0 0 0 0 0 0 0 0 0 
0 0 0 0 0 0 0 0 0 
0 0 0 0 0 0 0 0 0 
0 0 0 0 0 0 0 0 0 
0 0 0 0 0 0 0 0 0 
0 0 0 0 0 0 0 0 0 
0 0 0 0 0 0 0 0 0 
0 0 0 0 0 0 0 0 0 
0 0 0 0 0 0 0 0 0 
0 0 0 0 0 0 0 0 0 
0 0 0 0 0 0 0 0 0 
0 0 0 0 0 0 0 0 0 
0 0 0 0 0 0 0 0 0 
0 0 0 0 0 0 0 0 0 
0 0 0 0 0 0 0 0 0 
0 0 0 0 0 0 0 0 0 
0 0 0 0 0 0 0 0 0 
0 0 0 0 0 0 0 0 0 
0 0 0 0 0 0 0 0 0 
0 0 0 0 0 0 0 0 0 
0 0 0 0 0 0 0 0 0 
0 0 0 0 0 0 0 0 0 
0 0 0 0 0 0 0 0 0 
0 0 0 0 0 0 0 0 0 
0 0 0 0 0 0 0 0 0 
0 0 0 0 0 0 0 0 0 
0 0 0 0 0 0 0 0 0 
0 0 0 0 0 0 0 0 0 
0 0 0 0 0 0 0 0 0 
0 0 0 0 0 0 0 0 0 
0 0 0 0 0 0 0 0 0 
0 0 0 0 0 0 0 0 0 
0 0 0 0 0 0 0 0 0 
0 0 0 0 0 0 0 0 0 
0 0 0 0 0 0 0 0 0 
0 0 0 0 0 0 0 0 0 
0 0 0 0 0 0 0 0 0 
0 0 0 0 0 0 0 0 0 
0 0 0 0 0 0 0 0 0 
0 0 0 0 0 0 0 0 0 
0 0 0 0 0 0 0 0 0 
0 0 0 0 0 0 0 0 0 
0 0 0 0 0 0 0 0 0 
0 0 0 0 0 0 0 0 0 
0 0 0 0 
NORMALS Normals float
0.156752 0.569339 0.80702 0.0402527 0.486748 0.872615 -0.100123 0.44313 0.890849 
-0.306887 0.503179 0.807856 0.222007 0.408943 0.885143 0.141868 0.283081 0.948545 
0.0725482 0.204162 0.976245 -0.0211283 0.174461 0.984437 -0.119893 0.118613 0.985676 
-0.266314 0.105473 0.958098 0.4608 0.405718 0.789339 0.219078 0.275586 0.935979 
0.101841 0.168521 0.980423 0.0656029 0.0800787 0.994627 0.0356073 0.0463607 0.99829 
-0.0679318 0.0176667 0.997534 -0.169414 -0.077558 0.982489 -0.234908 -0.00805906 0.971984 
-0.28609 0.0177485 0.958038 0.321856 0.207587 0.923751 0.153062 0.1078 0.982319 
0.00271552 0.0242176 0.999703 0.0135298 -0.0494366 0.998686 0.0105243 0.0362281 0.999288 
-0.145719 0.0656564 0.987145 -0.150876 -0.118734 0.981396 -0.166741 0.174669 0.970406 
-0.205523 0.0591236 0.976865 0.580658 0.07949 0.810258 0.233708 0.0796113 0.969042 
0.0430567 0.0185124 0.998901 -0.0533287 -0.00512305 0.998564 0.0618351 -0.051348 0.996765 
0.173731 0.0199599 0.984591 -0.248435 0.0972594 0.963753 -0.0407246 -0.0159653 0.999043 
0.00167574 0.117351 0.993089 -0.322683 0.146314 0.93513 0.0469759 0.210536 0.976457 
0.057319 0.225692 0.972511 -0.0815226 0.208541 0.97461 -0.23328 0.187982 0.954067 
0.550756 -0.0435352 0.83353 0.255347 0.0041934 0.96684 0.0561006 0.0384418 0.997685 
-0.0660406 0.0533415 0.99639 0.0241947 0.0591513 0.997956 0.159468 -0.078715 0.98406 
-0.188909 -0.0913039 0.977741 -0.109771 0.166501 0.979912 -0.0265334 -0.0982611 0.994807 
-0.11551 0.0885298 0.989353 0.0534451 0.180103 0.982195 0.0201106 0.144929 0.989238 
-0.104181 0.119058 0.987406 -0.270746 0.0671004 0.960309 0.634352 -0.242952 0.733874 
0.309057 -0.123284 0.943019 0.0870315 -0.0505039 0.994925 -0.0328574 0.0103085 0.999407 
-0.0463177 0.073561 0.996215 0.0198188 -0.00804288 0.999771 0.0141563 -0.0414473 0.99904 
-0.0842497 0.209175 0.974242 -0.120156 0.00894055 0.992715 -0.0142909 0.0955108 0.995326 
0.0696324 0.0935947 0.993172 -0.00619468 0.107234 0.994214 -0.143502 0.00814162 0.989617 
-0.349057 -0.0850384 0.933235 0.452978 -0.526433 0.719499 0.205974 -0.365918 0.907568 
0.0625928 -0.172806 0.982965 0.0110136 -0.0488125 0.998747 0.0306867 0.00194404 0.999527 
0.0479625 -0.00636823 0.998829 -0.0625461 -0.025906 0.997706 -0.140471 -0.0570746 0.988438 
-0.0321056 -0.0382361 0.998753 0.0697405 -0.0519015 0.996214 -0.0717351 -0.148563 0.986298 
-0.26951 -0.204822 0.940963 -0.514097 -0.315906 0.797438 0.298993 -0.58343 0.755124 
0.153135 -0.403166 0.902223 0.060347 -0.280803 0.957866 -0.0243636 -0.321186 0.946703 
-0.143362 -0.477057 0.867101 -0.119416 -0.508598 0.852683 -0.0196619 -0.45686 0.889321 
-0.0516171 -0.472747 0.879685 -0.167013 -0.541026 0.824256 0.100684 -0.805231 0.584351 
0.173604 0.66666 0.724863 0.0716905 0.668844 0.739938 -0.115185 0.629343 0.768544 
-0.310965 0.541683 0.780948 0.298743 0.574158 0.762296 0.38199 0.864307 0.327195 
0.254939 0.641932 0.723138 0.260316 0.636127 0.726346 0.265427 0.654193 0.708224 
-0.343536 0.508997 0.789243 -0.539006 0.635208 0.553158 0.469536 0.427165 0.772701 
0.599618 0.752277 0.273014 0.363984 0.559646 0.744521 0.36823 0.554194 0.746509 
0.386806 0.58751 0.710783 -0.413057 0.163391 0.895928 -0.403396 0.149964 0.902653 
-0.415744 0.164863 0.894415 -0.469765 0.505355 0.723835 0.476511 0.416234 0.774395 
-0.273448 0.0499039 0.960591 -0.205024 0.244556 0.947712 -0.124132 0.411476 0.902928 
-0.234872 0.582292 0.778313 -0.376747 0.650697 0.659284 0.568639 0.31858 0.75839 
0.614829 0.239952 0.751271 0.643555 0.340866 0.685308 -0.14961 0.089927 0.984647 
-0.00304389 0.175969 0.984391 -0.0442412 0.154305 0.987032 0.0156001 0.294155 0.95563 
0.000304146 0.309491 0.950902 -0.0651227 0.305016 0.950118 -0.0638704 0.332512 0.940934 
-0.259565 0.257148 0.93086 -0.299046 0.416604 0.858494 -0.561009 0.481501 0.673369 
0.645705 0.0850258 0.758839 -0.290381 0.198553 0.936085 -0.501132 0.246658 0.829474 
0.591327 -0.0456344 0.80514 -0.401484 0.0353904 0.915182 -0.557526 -0.0168797 0.829988 
0.652424 -0.246187 0.716754 0.644194 -0.273619 0.714245 -0.452275 -0.137905 0.881153 
-0.663441 -0.243307 0.707565 0.520994 -0.563136 0.641439 0.686196 -0.652048 0.322441 
0.474449 -0.618754 0.626132 0.378727 -0.717392 0.584735 -0.310456 -0.594151 0.742026 
-0.514388 -0.316027 0.797203 -0.514231 -0.316323 0.797186 -0.755298 -0.569866 0.323693 
0.382805 -0.728562 0.568029 0.40626 -0.835729 0.369473 0.356977 -0.710509 0.60642 
0.268501 -0.74718 0.607971 -0.15437 -0.8066 0.570584 -0.194771 -0.801676 0.565138 
-0.0888446 -0.738562 0.668306 -0.0143975 -0.658739 0.752234 -0.0528249 -0.673419 0.737371 
-0.272496 -0.623081 0.733155 -0.175154 -0.643876 0.744812 -0.327334 -0.677404 0.658769 
-0.576085 -0.784785 0.228558 0.103018 -0.806417 0.582305 0.304645 -0.932583 0.193598 
0.0857073 -0.808633 0.582037 0.100628 -0.806502 0.582605 -0.162549 -0.854724 0.492976 
0.0621895 -0.982681 0.174556 0.381122 0.900181 0.21076 0.312231 0.931736 0.185416 
0.213381 0.962386 0.168172 0.0890108 0.985896 0.141724 -0.0843359 0.987659 0.131971 
-0.315461 0.927035 0.202708 -0.537807 0.796374 0.276682 0.600449 0.760916 0.245902 
0.414451 0.885095 0.211747 0.489662 0.842509 0.224523 -0.579268 0.74346 0.334239 
-0.550724 0.663123 0.506923 0.606023 0.756028 0.247303 -0.37821 0.740128 0.556028 
-0.335314 0.749451 0.570865 -0.347757 0.81267 0.46758 -0.297868 0.717594 0.62955 
-0.259681 0.931166 0.25592 -0.376796 0.668365 0.641337 0.774778 0.552614 0.307141 
0.775887 0.550976 0.307286 0.777855 0.557264 0.290513 -0.390996 0.659355 0.642163 
-0.558702 0.546641 0.623727 0.861968 0.36881 0.347837 -0.627789 0.474304 0.617185 
0.919774 0.149708 0.362771 0.990453 0.137852 -0.000815317 -0.827146 0.205944 0.522892 
-0.962204 0.164194 0.217265 0.93382 -0.0524557 0.353876 0.985996 -0.0466438 0.16011 
-0.8628 -0.101684 0.495214 -0.975288 -0.153421 0.15898 0.869992 -0.357689 0.33937 
-0.85999 -0.310379 0.40507 0.696007 -0.656438 0.290969 0.682978 -0.671242 0.288054 
0.490881 -0.837386 0.240458 -0.755591 -0.569936 0.322886 -0.755339 -0.57035 0.322745 
0.426133 -0.885611 0.184672 0.395848 -0.905711 0.15163 0.406771 -0.907097 0.108221 
-0.209255 -0.961397 0.178686 0.011512 -0.975943 0.217723 -0.0846653 -0.978993 0.185487 
-0.194101 -0.961748 0.193301 -0.380951 -0.895592 0.229763 -0.582733 -0.78796 0.19885 
-0.574078 -0.794853 0.19658 -0.564045 -0.815031 -0.132583 0.327257 -0.939999 0.0964597 
0.304895 -0.947236 0.0989032 0.313202 -0.949685 -0.00170257 0.0912092 -0.99021 0.105661 
-0.207985 -0.96249 0.174226 -0.18112 -0.972379 0.147226 -0.192825 -0.971019 0.141208 
0.0615871 -0.98313 0.172228 0.0446197 -0.983899 0.173063 0.062356 -0.983196 0.171571 
0.0603207 -0.98451 0.164625 0.365076 0.902785 -0.227375 0.285317 0.927834 -0.240247 
0.183385 0.950846 -0.249522 0.064583 0.957552 -0.280933 -0.06676 0.958155 -0.278356 
-0.228358 0.952912 -0.199529 -0.432234 0.896537 -0.0969267 0.571964 0.798713 -0.186857 
0.397588 0.890952 -0.21938 0.469133 0.858346 -0.207742 0.356857 0.879445 -0.315007 
0.253733 0.757124 -0.601982 -0.474163 0.880412 -0.00661396 -0.479352 0.874433 0.0747632 
-0.330686 0.927913 0.172114 -0.258946 0.934112 0.245728 0.589752 0.786764 -0.182197 
0.755458 0.644217 -0.119443 0.5638 0.788252 -0.246555 -0.264109 0.932582 0.246045 
-0.405957 0.880155 0.246021 0.778944 0.616906 -0.112575 0.747127 0.62502 -0.226167 
-0.63053 0.750295 0.19872 -0.636037 0.745946 0.197538 0.912333 0.407614 -0.0387152 
0.988211 0.151037 -0.0250394 -0.874783 0.443771 0.194478 -0.963596 0.235244 0.127052 
0.990243 0.137036 -0.0252979 0.989553 0.138081 -0.0414435 -0.986014 0.141155 0.0886101 
-0.966387 0.067827 -0.247983 0.998955 -0.0439394 -0.0126026 0.977175 -0.212181 -0.0104337 
0.98698 -0.0387719 -0.156097 -0.984642 -0.168756 0.0447383 -0.973372 -0.227114 0.0310956 
-0.97534 -0.189476 -0.113189 0.926207 -0.376952 -0.006889 -0.911252 -0.411388 -0.0194671 
0.728043 -0.685531 0.000115858 0.668966 -0.743272 0.0055897 0.475044 -0.879627 0.024291 
-0.563579 -0.814761 -0.136174 -0.741927 -0.666418 -0.0736985 -0.7237 -0.685782 -0.0772073 
-0.724356 -0.66577 -0.179049 0.423074 -0.905643 0.0286197 0.328966 -0.943673 0.0355166 
0.328402 -0.944024 -0.0311675 0.314968 -0.94744 -0.0561505 -0.0598498 -0.994561 0.0852381 
-0.00154125 -0.999606 -0.0280292 -0.0498241 -0.994636 -0.0906487 -0.174197 -0.976528 -0.126682 
-0.563469 -0.814834 -0.136192 -0.378012 -0.914669 -0.143135 0.294455 -0.953848 -0.0589077 
0.141564 -0.987187 -0.0736319 -0.100636 -0.994729 -0.0196903 -0.114894 -0.989707 0.0853247 
-0.163208 -0.982926 0.0849676 -0.0875747 -0.996022 0.0164842 0.154018 0.767885 -0.621796 
0.0691406 0.805328 -0.588783 0.0123096 0.842249 -0.538947 -0.117461 0.895988 -0.428263 
-0.299014 0.902188 -0.310883 0.38286 0.731738 -0.563895 0.292096 0.726974 -0.621441 
0.231967 0.741771 -0.629259 0.24772 0.732921 -0.633611 0.160286 0.716957 -0.678441 
0.0968915 0.732787 -0.673524 0.0756785 0.771096 -0.632205 -0.0263946 0.825177 -0.564258 
-0.31704 0.909172 -0.269984 -0.263726 0.89064 -0.370418 -0.35741 0.919856 -0.161624 
-0.290423 0.949794 -0.116383 -0.268003 0.95248 -0.144765 0.39919 0.728086 -0.557259 
0.501013 0.698837 -0.510503 0.370149 0.715508 -0.592485 0.224232 0.610996 -0.759213 
0.167766 0.500183 -0.849512 0.188121 0.438953 -0.878596 -0.301653 0.941205 -0.152116 
-0.274603 0.93825 -0.210428 -0.442748 0.876617 -0.188461 0.609534 0.62246 -0.490929 
0.69072 0.54399 -0.476425 0.450058 0.59356 -0.667184 0.203632 0.51226 -0.834341 
-0.651345 0.726518 -0.21891 -0.658214 0.719522 -0.221454 0.774992 0.448256 -0.445481 
0.646757 0.462684 -0.606324 -0.887784 0.373791 -0.268552 -0.619371 0.326161 -0.714142 
0.905411 0.179498 -0.384723 -0.945138 0.0506399 -0.322723 0.930882 -0.0313831 -0.36397 
-0.913997 -0.212848 -0.345407 0.883655 -0.346659 -0.314613 -0.811621 -0.435673 -0.389179 
-0.725334 -0.579377 -0.37177 -0.721698 -0.404799 -0.561507 0.721501 -0.639178 -0.266246 
0.7092 -0.654899 -0.261041 0.716488 -0.629415 -0.300802 0.509621 -0.841516 -0.179267 
-0.673863 -0.646323 -0.358016 -0.542451 -0.759176 -0.35972 -0.550924 -0.589195 -0.591043 
0.446761 -0.884792 -0.13247 0.365349 -0.928043 -0.0724917 0.317319 -0.94712 -0.0476751 
0.269512 -0.958956 -0.0881333 -0.11655 -0.986684 -0.11345 -0.17905 -0.959536 -0.21733 
-0.264046 -0.915616 -0.303195 -0.440298 -0.822984 -0.358936 -0.378857 -0.850712 -0.364358 
-0.394535 -0.813941 -0.426429 0.24357 -0.964607 -0.10103 0.135694 -0.978685 -0.15415 
0.110639 -0.920056 -0.375839 -0.0216128 -0.990595 -0.135109 0.0258236 -0.889104 -0.456975 
-0.101287 -0.994378 -0.0308658 -0.0462644 -0.929121 -0.366871 -0.107022 -0.992992 -0.0501312 
-0.102227 -0.994541 -0.020921 -0.113496 -0.987974 -0.10501 0.162704 0.546411 -0.821561 
0.140894 0.622025 -0.770217 0.0407594 0.716306 -0.696595 -0.135256 0.771824 -0.621284 
-0.267781 0.796934 -0.54147 -0.288551 0.81383 -0.5044 0.127089 0.471886 -0.872452 
0.115322 0.39764 -0.910266 0.185873 0.449122 -0.873923 0.190001 0.415346 -0.8896 
0.17941 0.492354 -0.851704 0.161207 0.479669 -0.862514 0.0867057 0.435588 -0.895961 
-0.0614259 0.527107 -0.847576 -0.20871 0.659468 -0.722179 -0.289109 0.812482 -0.50625 
-0.286358 0.807269 -0.516057 -0.313356 0.754618 -0.576506 -0.467661 0.612248 -0.637531 
0.380274 0.455362 -0.805007 0.177117 0.490446 -0.853283 0.19694 0.497673 -0.84471 
0.102306 0.436799 -0.893723 0.0828741 0.329599 -0.940477 0.210335 0.294551 -0.932201 
0.19945 0.356559 -0.912735 0.0811247 0.213712 -0.973522 0.0821394 0.125496 -0.988688 
0.0511839 0.165468 -0.984886 -0.0132815 0.243234 -0.969877 -0.160535 0.379727 -0.911063 
-0.29765 0.498444 -0.814222 -0.505333 0.582447 -0.636706 -0.45967 0.573229 -0.678316 
0.438199 0.421678 -0.793832 0.607237 0.253246 -0.75308 0.358646 0.404263 -0.841395 
0.156623 0.375954 -0.913306 0.00101438 0.322682 -0.946507 0.020942 0.275525 -0.961066 
0.246429 0.275563 -0.92916 0.0995442 0.237528 -0.966267 -0.0693863 0.0721278 -0.994979 
0.0430702 0.0861497 -0.995351 0.0922902 0.0301992 -0.995274 -0.177823 0.226145 -0.957725 
-0.61205 0.323541 -0.721607 -0.395195 0.263737 -0.879923 -0.616856 0.31183 -0.722669 
0.613996 0.2415 -0.751456 0.606732 0.242626 -0.756974 0.331232 0.240246 -0.912451 
0.117024 0.215151 -0.969544 -0.0131183 0.205288 -0.978614 0.0279108 0.219999 -0.975101 
0.193341 0.156322 -0.968598 -0.0711037 0.0991847 -0.992525 0.0420542 0.1307 -0.99053 
0.0296277 0.0549499 -0.998049 -0.360918 0.0544176 -0.931009 -0.684853 0.0692551 -0.725383 
-0.606052 0.0740861 -0.791967 0.711774 0.0164551 -0.702216 0.644137 0.0268731 -0.764438 
0.31434 0.0643554 -0.947127 0.124089 0.0941199 -0.987797 -0.00739075 0.121058 -0.992618 
-0.0267125 0.130106 -0.99114 0.0823211 0.0511298 -0.995293 -0.387601 -0.0911401 -0.917311 
-0.675119 -0.196291 -0.711114 -0.661923 -0.269777 -0.699341 -0.624009 -0.184476 -0.75933 
0.689787 -0.273518 -0.670359 0.682243 -0.310122 -0.662095 0.666138 -0.269452 -0.695453 
0.393072 -0.123003 -0.911244 0.162539 -0.0338535 -0.986121 0.0416227 0.0296662 -0.998693 
-0.273034 -0.192468 -0.942554 -0.643938 -0.370556 -0.669352 -0.54799 -0.563452 -0.618247 
-0.488938 -0.310167 -0.815313 0.641879 -0.530154 -0.554012 0.553715 -0.656834 -0.51183 
0.525117 -0.47369 -0.707015 0.254942 -0.326603 -0.910129 0.0151927 -0.1173 -0.99298 
-0.0421704 -0.156411 -0.986791 -0.0310628 -0.276528 -0.960504 -0.164919 -0.398453 -0.90224 
-0.538633 -0.579159 -0.611923 -0.417426 -0.71209 -0.56452 -0.367241 -0.488835 -0.791312 
0.440484 -0.796477 -0.414245 0.425162 -0.810145 -0.403612 0.422437 -0.78379 -0.455214 
0.313627 -0.860288 -0.401924 0.233605 -0.613987 -0.753955 0.166756 -0.87567 -0.453205 
0.0630782 -0.510409 -0.857615 0.0910062 -0.854571 -0.511299 0.0339232 -0.416763 -0.908382 
0.0326272 -0.861233 -0.507162 0.0704908 -0.421103 -0.90427 -0.0360406 -0.904929 -0.424033 
0.0122732 -0.439825 -0.898 -0.146311 -0.894813 -0.421784 -0.0941441 -0.442716 -0.891706 
-0.195807 -0.835764 -0.51299 -0.156415 -0.517926 -0.841004 -0.218339 -0.808125 -0.547048 
-0.185318 -0.647987 -0.738762 -0.338543 -0.778017 -0.529225 -0.297336 -0.798253 -0.523816 
-0.284317 -0.754275 -0.591805 0.0489809 0.0894216 -0.994789 -0.071919 0.173652 -0.982177 
0.085427 0.214351 -0.973014 0.065052 0.0569798 -0.996254 0.0591808 0.0632934 -0.996239 
-0.0945025 0.151248 -0.983968 -0.0381713 0.10285 -0.993964 -0.152932 0.115162 -0.981504 
0.0961404 0.103182 -0.990005 -0.0396667 0.0766128 -0.996272 -0.0127068 0.0502893 -0.998654 
-0.0148494 0.147649 -0.988928 0.0332609 0.113316 -0.993002 0.0480572 0.0530389 -0.997435 
0.0204971 0.0480901 -0.998633 0.0645775 0.0512198 -0.996597 -0.00070235 0.0615218 -0.998105 
-0.169633 0.0562775 -0.983899 -0.14047 0.0571182 -0.988436 0.0031341 0.0895632 -0.995976 
-0.03224 0.0647319 -0.997382 0.0703771 0.0203255 -0.997313 0.0562357 -0.0102102 -0.998365 
0.00369643 0.162324 -0.986731 -0.00421319 0.0418029 -0.999117 0.0135703 0.0425992 -0.999 
0.0669786 0.0443909 -0.996766 -0.0296464 0.0489394 -0.998362 -0.223572 -0.0354302 -0.974043 
-0.253563 -0.155646 -0.954715 -0.182274 -0.0245128 -0.982942 0.102949 -0.0128491 -0.994604 
0.0288042 0.0121103 -0.999512 0.00576798 0.0397155 -0.999194 -0.0334301 0.0506201 -0.998158 
0.0505597 0.0237275 -0.998439 0.107083 -0.0142127 -0.994148 -0.017923 0.0589608 -0.998099 
-0.0775227 -0.0134276 -0.9969 -0.00672905 -0.0979547 -0.995168 0.0321558 -0.0359406 -0.998836 
-0.0150171 -0.246083 -0.969132 0.0718453 -0.0674588 -0.995132 -0.256698 -0.186341 -0.948358 
-0.126604 -0.297669 -0.946237 -0.0677676 -0.120528 -0.990394 0.0795083 -0.187859 -0.978973 
0.0785912 -0.188023 -0.979015 0.078173 -0.186999 -0.979245 0.00646235 -0.12177 -0.992537 
-0.00444495 -0.157505 -0.987508 -0.00862448 -0.128607 -0.991658 0.0309399 -0.122839 -0.991944 
0.0855196 -0.199491 -0.976161 0.0884469 -0.144544 -0.985538 0.0101381 -0.310134 -0.950639 
0.00473806 -0.144459 -0.989499 -0.0643529 -0.13749 -0.98841 -0.097705 -0.192328 -0.976455 
-0.101193 -0.109713 -0.988799 
