# vtk DataFile Version 4.2
vtk output
ASCII
DATASET POLYDATA
POINTS 542 float
9.74175 -6.50826 -19.7391 -4.72909 -42.6853 -14.0823 2.50633 -42.6853 -15.2561 
9.74175 -42.6853 -14.8804 16.9772 -42.6853 -12.8216 -11.9645 -35.4499 -14.9229 
-4.72909 -35.4499 -16.3981 2.50633 -35.4499 -17.326 9.74175 -35.4499 -17.0217 
16.9772 -35.4499 -16.2556 24.2126 -35.4499 -14.2254 -19.1999 -28.2145 -12.8794 
-11.9645 -28.2145 -14.9292 -4.72909 -28.2145 -16.6153 2.50633 -28.2145 -17.5311 
9.74175 -28.2145 -17.7286 16.9772 -28.2145 -17.7828 24.2126 -28.2145 -16.178 
31.448 -28.2145 -13.8847 -26.4353 -20.9791 -12.4956 -19.1999 -20.9791 -13.1775 
-11.9645 -20.9791 -14.2426 -4.72909 -20.9791 -15.4858 2.50633 -20.9791 -16.7546 
9.74175 -20.9791 -17.5807 16.9772 -20.9791 -18.0084 24.2126 -20.9791 -17.4008 
31.448 -20.9791 -15.2798 -33.6708 -13.7437 -13.5334 -26.4353 -13.7437 -13.6403 
-19.1999 -13.7437 -13.0625 -4.72909 -13.7437 -13.6858 2.50633 -13.7437 -15.946 
9.74175 -6.66115 -19.7064 9.74175 -13.7437 -18.1253 16.9772 -13.7437 -18.001 
24.2126 -13.7437 -17.3173 31.448 -13.7437 -16.1255 38.6834 -13.7437 -13.7787 
-40.9062 -6.50826 -13.3104 -33.6708 -6.50826 -15.033 -26.4353 -6.50826 -15.0494 
-19.1999 -6.50826 -13.6422 -4.72909 -6.50826 -13.9622 9.65117 -6.50826 -19.7064 
2.50633 -6.50826 -16.6113 9.862 -6.50826 -19.7064 9.74175 -6.36775 -19.7064 
16.9772 -6.50826 -17.7408 24.2126 -6.50826 -17.0904 31.448 -6.50826 -16.6632 
38.6834 -6.50826 -15.2109 -40.9062 0.727157 -13.0994 -33.6708 0.727157 -15.2021 
-26.4353 0.727157 -15.2817 -19.1999 0.727157 -13.9981 -11.9645 0.727157 -12.6328 
-4.72909 0.727157 -15.1265 9.74175 0.727157 -17.9567 16.9772 0.727157 -16.4212 
24.2126 0.727157 -16.7977 31.448 0.727157 -16.9724 38.6834 0.727157 -15.6638 
-40.9062 7.96257 -13.7415 -33.6708 7.96257 -15.2884 -26.4353 7.96257 -15.7527 
-19.1999 7.96257 -14.9645 -11.9645 7.96257 -14.0235 -4.72909 7.96257 -13.8815 
2.50633 7.96257 -15.512 9.74175 7.96257 -16.3413 16.9772 7.96257 -16.0424 
24.2126 7.96257 -17.0462 31.448 7.96257 -16.9128 38.6834 7.96257 -15.6041 
-33.6708 15.198 -15.5967 -26.4353 15.198 -16.9922 -19.1999 15.198 -16.6392 
-11.9645 15.198 -16.0939 -4.72909 15.198 -15.2887 2.50633 15.198 -15.5687 
9.74175 15.198 -15.9034 16.9772 15.198 -16.4121 24.2126 15.198 -16.9963 
31.448 15.198 -16.6924 38.6834 15.198 -14.9269 -33.6708 22.4334 -14.9135 
-26.4353 22.4334 -16.8489 -19.1999 22.4334 -17.3187 -11.9645 22.4334 -17.3754 
-4.72909 22.4334 -16.6029 2.50633 22.4334 -16.4176 9.74175 22.4334 -16.6204 
16.9772 22.4334 -16.5573 24.2126 22.4334 -16.8209 31.448 22.4334 -16.7525 
38.6834 22.4334 -14.0681 -33.6708 29.6688 -12.8856 -26.4353 29.6688 -16.3745 
-19.1999 29.6688 -16.974 -11.9645 29.6688 -17.51 -4.72909 29.6688 -16.8184 
2.50633 29.6688 -16.7246 9.74175 29.6688 -16.6604 16.9772 29.6688 -16.0216 
24.2126 29.6688 -16.323 31.448 29.6688 -14.656 -19.1999 36.9042 -14.0166 
-11.9645 36.9042 -15.2296 -4.72909 36.9042 -15.6572 2.50633 36.9042 -15.6608 
9.74175 36.9042 -15.3149 16.9772 36.9042 -14.1325 24.2126 36.9042 -13.0111 
-4.72909 -44.7812 -12.471 2.50633 -46.436 -12.471 2.50633 -49.9208 -7.24357 
9.74175 -45.614 -12.471 16.9772 -43.1286 -12.471 -9.07027 -42.6853 -12.471 
-11.9645 -40.5008 -12.471 -11.9645 -42.6853 -10.8546 17.6347 -42.6853 -12.471 
24.2126 -37.9733 -12.471 -26.4353 -35.4499 -5.6118 -17.4906 -35.4499 -12.471 
-19.1999 -30.8794 -12.471 -19.1999 -35.4499 -11.5476 27.0057 -35.4499 -12.471 
31.448 -30.6518 -12.471 31.448 -35.4499 -6.78697 -33.6708 -28.2145 -6.20831 
-20.8842 -28.2145 -12.471 -26.4353 -21.1118 -12.471 -26.4353 -28.2145 -10.8778 
33.4669 -28.2145 -12.471 38.6834 -28.2145 -5.39491 -40.9062 -20.9791 -5.37792 
-26.5965 -20.9791 -12.471 -33.6708 -17.2586 -12.471 -33.6708 -20.9791 -11.1643 
-11.9645 -14.8142 -12.471 38.239 -20.9791 -12.471 38.6834 -19.969 -12.471 
38.6834 -20.9791 -12.1654 -36.4417 -13.7437 -12.471 -40.9062 -9.06353 -12.471 
-40.9062 -13.7437 -10.2363 -14.4939 -13.7437 -12.471 -10.4749 -13.7437 -12.471 
-11.9645 -13.7437 -12.1627 40.8486 -13.7437 -12.471 45.9188 -13.7437 -7.8338 
-42.0872 -6.50826 -12.471 -15.1889 -6.50826 -12.471 -8.7034 -6.50826 -12.471 
-11.9645 -0.171823 -12.471 -11.9645 -6.50826 -11.4397 2.50633 0.620391 -12.471 
43.7332 -6.50826 -12.471 45.9188 -6.50826 -10.7222 -41.8417 0.727157 -12.471 
-48.1416 0.727157 -5.23814 2.31576 0.727157 -12.471 2.57785 0.727157 -12.471 
2.50633 0.854757 -12.471 2.50633 0.727157 -12.3903 44.6201 0.727157 -12.471 
45.9188 0.727157 -11.4091 -42.5508 7.96257 -12.471 -40.9062 14.1405 -12.471 
44.1698 7.96257 -12.471 45.9188 7.96257 -10.819 -40.472 15.198 -12.471 
-40.9062 15.198 -12.1076 42.6681 15.198 -12.471 45.9188 15.198 -9.02564 
-37.5081 22.4334 -12.471 -40.9062 22.4334 -8.73973 40.7396 22.4334 -12.471 
38.6834 25.9014 -12.471 -34.254 29.6688 -12.471 -33.6708 30.2986 -12.471 
-26.4353 36.1444 -12.471 35.5652 29.6688 -12.471 31.448 33.5281 -12.471 
38.6834 29.6688 -9.29334 -24.8152 36.9042 -12.471 -26.4353 36.9042 -11.6567 
-19.1999 38.7586 -12.471 -11.9645 40.5598 -12.471 -4.72909 42.5046 -12.471 
2.50633 43.2562 -12.471 9.74175 42.0742 -12.471 16.9772 39.5271 -12.471 
25.7193 36.9042 -12.471 24.2126 37.6605 -12.471 31.448 36.9042 -8.96537 
-11.9645 44.1397 -7.22305 -4.72909 44.1397 -10.604 2.50633 44.1397 -11.6669 
9.74175 44.1397 -10.659 16.9772 44.1397 -7.76327 2.50633 -50.7502 -5.23561 
-11.9645 -46.229 -5.23561 -3.57858 -49.9208 -5.23561 -4.72909 -49.7492 -5.23561 
8.4269 -49.9208 -5.23561 2.50633 -49.9208 0.983196 9.74175 -49.7214 -5.23561 
16.9772 -46.8647 -5.23561 -26.4353 -35.825 -5.23561 -17.7266 -42.6853 -5.23561 
-19.1999 -41.5722 -5.23561 24.1053 -42.6853 -5.23561 24.2126 -42.6106 -5.23561 
31.448 -36.4275 -5.23561 -26.9249 -35.4499 -5.23561 -33.6708 -29.4032 -5.23561 
32.448 -35.4499 -5.23561 31.448 -35.4499 -0.688669 38.6834 -28.338 -5.23561 
-34.8843 -28.2145 -5.23561 -40.9062 -21.167 -5.23561 38.7787 -28.2145 -5.23561 
38.6834 -28.2145 -4.61627 -41.0305 -20.9791 -5.23561 43.8372 -20.9791 -5.23561 
45.9188 -17.1365 -5.23561 -44.9853 -13.7437 -5.23561 47.52 -13.7437 -5.23561 
-47.5056 -6.50826 -5.23561 -48.1416 0.710165 -5.23561 49.4789 -6.50826 -5.23561 
-48.1429 0.727157 -5.23561 -48.1416 0.740016 -5.23561 49.7496 0.727157 -5.23561 
-47.3215 7.96257 -5.23561 49.0202 7.96257 -5.23561 -45.237 15.198 -5.23561 
47.8138 15.198 -5.23561 45.9188 20.4916 -5.23561 -42.8989 22.4334 -5.23561 
-40.9062 27.0461 -5.23561 45.169 22.4334 -5.23561 -39.4658 29.6688 -5.23561 
-33.6708 35.6326 -5.23561 41.3196 29.6688 -5.23561 38.6834 33.1921 -5.23561 
-32.0233 36.9042 -5.23561 -26.4353 39.9315 -5.23561 -19.1999 42.9902 -5.23561 
24.2126 43.141 -5.23561 34.9019 36.9042 -5.23561 31.448 39.4303 -5.23561 
-15.2988 44.1397 -5.23561 -11.9645 45.0353 -5.23561 -4.72909 46.8866 -5.23561 
2.50633 47.8344 -5.23561 9.74175 47.2861 -5.23561 21.4658 44.1397 -5.23561 
16.9772 45.6427 -5.23561 -11.9645 -46.1636 1.99981 -4.72909 -48.6308 1.99981 
2.50633 -49.7628 1.99981 9.74175 -48.3738 1.99981 16.9772 -45.3938 1.99981 
-26.4353 -38.2191 1.99981 -18.9176 -42.6853 1.99981 -19.1999 -42.5373 1.99981 
21.5666 -42.6853 1.99981 16.9772 -42.6853 6.31406 24.2126 -40.9214 1.99981 
-30.888 -35.4499 1.99981 -33.6708 -33.3031 1.99981 30.8036 -35.4499 1.99981 
24.2126 -35.4499 8.30106 31.448 -34.845 1.99981 -38.591 -28.2145 1.99981 
-40.9062 -25.0884 1.99981 37.5878 -28.2145 1.99981 31.448 -28.2145 8.39992 
38.6834 -26.8925 1.99981 -43.3992 -20.9791 1.99981 42.976 -20.9791 1.99981 
38.6834 -20.9791 7.76034 45.9188 -15.3203 1.99981 -46.3779 -13.7437 1.99981 
46.6744 -13.7437 1.99981 45.9188 -13.7437 3.2375 -48.0017 -6.50826 1.99981 
-48.1416 -3.41809 1.99981 48.7008 -6.50826 1.99981 45.9188 -6.50826 6.17565 
-48.3299 0.727157 1.99981 -48.1416 2.418 1.99981 -48.1416 0.727157 2.95347 
48.6953 0.727157 1.99981 45.9188 0.727157 6.2334 -47.524 7.96257 1.99981 
47.6839 7.96257 1.99981 45.9188 7.96257 4.69314 -45.3948 15.198 1.99981 
46.2242 15.198 1.99981 45.9188 16.0224 1.99981 45.9188 15.198 2.48099 
-42.5083 22.4334 1.99981 -40.9062 25.4071 1.99981 -40.9062 22.4334 6.11157 
43.5617 22.4334 1.99981 38.6834 22.4334 8.86584 -38.2032 29.6688 1.99981 
-33.6708 34.3894 1.99981 39.8501 29.6688 1.99981 38.6834 31.2958 1.99981 
38.6834 29.6688 3.60949 -30.3265 36.9042 1.99981 -26.4353 39.3016 1.99981 
-26.4353 36.9042 7.13948 -19.1999 42.2032 1.99981 24.2126 42.5128 1.99981 
24.2126 36.9042 9.05141 33.5244 36.9042 1.99981 31.448 38.5241 1.99981 
31.448 36.9042 4.34629 -13.2884 44.1397 1.99981 -11.9645 44.558 1.99981 
-11.9645 44.1397 3.083 -4.72909 46.4108 1.99981 -4.72909 44.1397 7.24271 
2.50633 47.341 1.99981 2.50633 44.1397 8.70343 9.74175 46.7547 1.99981 
9.74175 44.1397 7.42798 19.7315 44.1397 1.99981 16.9772 45.0667 1.99981 
16.9772 44.1397 3.80559 -11.9645 -43.1831 9.23523 -4.72909 -44.8499 9.23523 
2.50633 -45.28 9.23523 9.74175 -43.6009 9.23523 -26.4353 -37.0874 9.23523 
-13.3147 -42.6853 9.23523 -19.1999 -40.3588 9.23523 -11.9645 -42.6853 9.8784 
-4.72909 -42.6853 11.6282 2.50633 -42.6853 11.6349 11.941 -42.6853 9.23523 
9.74175 -42.6853 10.1961 16.9772 -39.9024 9.23523 -29.1427 -35.4499 9.23523 
-33.6708 -32.2642 9.23523 -26.4353 -35.4499 11.3906 -19.1999 -35.4499 14.8054 
-11.9645 -35.4499 16.0605 -4.72909 -35.4499 16.3853 2.50633 -35.4499 15.8505 
9.74175 -35.4499 14.6141 22.79 -35.4499 9.23523 16.9772 -35.4499 12.2179 
24.2126 -34.1117 9.23523 -37.4493 -28.2145 9.23523 -40.9062 -23.6588 9.23523 
-33.6708 -28.2145 13.8272 16.9772 -28.2145 14.7215 30.1721 -28.2145 9.23523 
24.2126 -28.2145 12.3045 31.448 -26.6621 9.23523 -42.6947 -20.9791 9.23523 
-40.9062 -20.9791 11.9618 16.9772 -20.9791 15.6747 24.2126 -20.9791 14.1225 
36.5157 -20.9791 9.23523 31.448 -20.9791 11.6139 38.6834 -17.0401 9.23523 
-45.3091 -13.7437 9.23523 -40.9062 -13.7437 16.1253 9.74175 -13.7437 16.4343 
16.9772 -13.7437 15.6934 24.2126 -13.7437 15.1745 31.448 -13.7437 13.5044 
40.0436 -13.7437 9.23523 38.6834 -13.7437 10.2307 -46.6454 -6.50826 9.23523 
[...]
POINT_DATA 542
SCALARS ImageScalars float
LOOKUP_TABLE default
0 0 0 0 0 0 0 0 0 
0 0 0 0 0 0 0 0 0 
0 0 0 0 0 0 0 0 0 
0 0 0 0 0 0 0 0 0 
0 0 0 0 0 0 0 0 0 
0 0 0 0 0 0 0 0 0 
0 0 0 0 0 0 0 0 0 
0 0 0 0 0 0 0 0 0 
0 0 0 0 0 0 0 0 0 
0 0 0 0 0 0 0 0 0 
0 0 0 0 0 0 0 0 0 
0 0 0 0 0 0 0 0 0 
0 0 0 0 0 0 0 0 0 
0 0 0 0 0 0 0 0 0 
0 0 0 0 0 0 0 0 0 
0 0 0 0 0 0 0 0 0 
0 0 0 0 0 0 0 0 0 
0 0 0 0 0 0 0 0 0 
0 0 0 0 0 0 0 0 0 
0 0 0 0 0 0 0 0 0 
0 0 0 0 0 0 0 0 0 
0 0 0 0 0 0 0 0 0 
0 0 0 0 0 0 0 0 0 
0 0 0 0 0 0 0 0 0 
0 0 0 0 0 0 0 0 0 
0 0 0 0 0 0 0 0 0 
0 0 0 0 0 0 0 0 0 
0 0 0 0 0 0 0 0 0 
0 0 0 0 0 0 0 0 0 
0 0 0 0 0 0 0 0 0 
0 0 0 0 0 0 0 0 0 
0 0 0 0 0 0 0 0 0 
0 0 0 0 0 0 0 0 0 
0 0 0 0 0 0 0 0 0 
0 0 0 0 0 0 0 0 0 
0 0 0 0 0 0 0 0 0 
0 0 0 0 0 0 0 0 0 
0 0 0 0 0 0 0 0 0 
0 0 0 0 0 0 0 0 0 
0 0 0 0 0 0 0 0 0 
0 0 0 0 0 0 0 0 0 
0 0 0 0 0 0 0 0 0 
0 0 0 0 0 0 0 0 0 
0 0 0 0 0 0 0 0 0 
0 0 0 0 0 0 0 0 0 
0 0 0 0 0 0 0 0 0 
0 0 0 0 0 0 0 0 0 
0 0 0 0 0 0 0 0 0 
0 0 0 0 0 0 0 0 0 
0 0 0 0 0 0 0 0 0 
0 0 0 0 0 0 0 0 0 
0 0 0 0 0 0 0 0 0 
0 0 0 0 0 0 0 0 0 
0 0 0 0 0 0 0 0 0 
0 0 0 0 0 0 0 0 0 
0 0 0 0 0 0 0 0 0 
0 0 0 0 0 0 0 0 0 
0 0 0 0 0 0 0 0 0 
0 0 0 0 0 0 0 0 0 
0 0 0 0 0 0 0 0 0 
0 0 
NORMALS Normals float
0.0448691 -0.009557 0.998947 0.239799 0.478945 0.844457 0.0510027 0.44274 0.895198 
-0.157686 0.490719 0.856931 -0.359617 0.599368 0.715146 0.325201 0.220482 0.919582 
0.151271 0.15212 0.976717 0.0430548 0.139844 0.989237 -0.074962 0.178678 0.981048 
-0.178002 0.30174 0.936626 -0.409902 0.434706 0.80188 0.260002 0.0954251 0.960881 
0.249406 -0.046811 0.967267 0.17561 -0.0605553 0.982596 0.0752287 -0.0393339 0.99639 
0.0171829 0.0363446 0.999192 -0.111423 0.125938 0.985761 -0.24841 0.201002 0.947571 
-0.47089 0.343944 0.812382 0.122778 0.172186 0.977383 0.117205 0.0116167 0.99304 
0.156188 -0.178805 0.971408 0.170478 -0.194757 0.965923 0.14062 -0.104526 0.98453 
0.0859396 0.0258418 0.995965 -0.0101125 0.0144805 0.999844 -0.185093 0.0788102 0.979556 
-0.321268 0.14362 0.936034 0.187875 0.262497 0.946466 -0.0308854 0.170181 0.984929 
-0.101409 0.0329048 0.994301 0.247651 -0.108168 0.962792 0.30635 -0.01786 0.951751 
0.0468576 -0.00616375 0.998883 0.133635 0.149665 0.979664 -0.0552006 -0.0183048 0.998307 
-0.126829 -0.0212059 0.991698 -0.219478 0.0940385 0.971075 -0.408412 0.18614 0.893617 
0.470665 0.148028 0.869806 0.119896 0.104283 0.987294 -0.0946601 0.112809 0.989097 
-0.235229 0.0634933 0.969864 0.368866 0.0918704 0.924931 0.0485579 -0.0106773 0.998763 
0.401678 -0.174144 0.899071 0.0413592 -0.0112435 0.999081 0.0464675 -0.0137626 0.998825 
-0.181895 -0.110789 0.977057 -0.0730894 -0.0343695 0.996733 -0.119762 0.0571081 0.991159 
-0.307837 0.115825 0.944363 0.448251 0.0288002 0.893444 0.133247 0.0179997 0.990919 
-0.0820369 0.0483673 0.995455 -0.166176 0.089477 0.982028 0.0339582 0.182031 0.982706 
0.0215149 -0.0346684 0.999167 0.157299 -0.237219 0.958636 -0.0780497 -0.119588 0.989751 
0.0389689 -0.00308386 0.999236 -0.0720734 0.0172086 0.997251 -0.319116 0.0242587 0.947405 
0.480391 -0.0552958 0.87531 0.134475 0.0281595 0.990517 -0.0210396 0.115451 0.99309 
-0.116277 0.174763 0.977721 -0.0739981 0.223844 0.971812 0.0973139 0.0343547 0.994661 
0.178899 0.158034 0.971092 0.0340794 -0.137853 0.989866 0.0503859 -0.000533975 0.99873 
0.0601297 0.012592 0.998111 -0.0908198 -0.0190596 0.995685 -0.337298 -0.0454521 0.9403 
0.290389 -0.019757 0.956705 0.0796342 0.0772794 0.993824 -0.0622046 0.162023 0.984824 
-0.0900872 0.223859 0.970449 -0.0358672 0.187502 0.981609 0.0423595 0.062464 0.997148 
0.0583814 0.0210312 0.998073 0.0752924 0.0354805 0.99653 0.0198266 -0.0152686 0.999687 
-0.128841 -0.0116119 0.991597 -0.369841 -0.106899 0.922925 0.385218 -0.178706 0.905357 
0.152571 -0.0370806 0.987597 0.0352313 0.0211712 0.999155 -0.0493587 0.0968262 0.994077 
-0.0660277 0.104399 0.992341 0.00129052 0.0795088 0.996833 0.00967823 0.0525131 0.998573 
0.0134712 -0.0262174 0.999565 0.0144542 -0.0429772 0.998971 -0.18891 -0.146676 0.970978 
-0.503047 -0.238509 0.830697 0.525085 -0.42196 0.739077 0.258085 -0.289693 0.921667 
0.0705518 -0.198966 0.977464 -0.0126789 -0.129564 0.99149 -0.0513429 -0.0637428 0.996645 
-0.0106879 -0.0522458 0.998577 -0.0486109 -0.0810083 0.995527 -0.0248079 -0.151573 0.988135 
-0.0992687 -0.256371 0.961467 -0.308623 -0.357275 0.881536 0.201482 -0.567557 0.798301 
0.103605 -0.467158 0.878083 0.025513 -0.327454 0.944523 -0.0208582 -0.295742 0.95504 
-0.0974899 -0.330944 0.938601 -0.153478 -0.398756 0.904123 -0.22882 -0.529425 0.816915 
0.247014 0.60402 0.757723 0.0394449 0.67743 0.734529 0.00493831 0.965553 0.26016 
-0.168962 0.682189 0.711386 -0.363744 0.622504 0.692949 0.357685 0.538313 0.763074 
0.412015 0.470089 0.780551 0.464516 0.613381 0.63874 -0.37687 0.614898 0.692726 
-0.468442 0.550652 0.690901 0.568118 0.643478 0.513009 0.429688 0.331817 0.839801 
0.337557 0.196552 0.920555 0.470466 0.385677 0.793672 -0.508005 0.512574 0.692242 
-0.535863 0.44072 0.720151 -0.684434 0.688583 0.239589 0.552435 0.575753 0.602764 
0.2767 0.149467 0.949261 0.126692 0.174983 0.976386 0.360241 0.354826 0.862743 
-0.548261 0.39976 0.734576 -0.787014 0.58804 0.186594 0.713579 0.501049 0.489648 
0.127134 0.176768 0.976007 0.250354 0.316034 0.91512 0.341819 0.392112 0.854054 
0.060011 -0.190793 0.979794 -0.508003 0.317888 0.80055 -0.506748 0.308028 0.805187 
-0.53417 0.340521 0.773762 0.309279 0.30928 0.899273 0.490388 0.225712 0.841768 
0.571098 0.388586 0.723082 -0.00880998 -0.113772 0.993468 0.086227 -0.178468 0.98016 
0.0417973 -0.192079 0.980489 -0.505993 0.203555 0.838174 -0.855599 0.326877 0.401376 
0.543838 0.14968 0.825733 -0.118081 0.0498845 0.99175 0.1618 0.0474586 0.985682 
0.0267331 0.165072 0.985919 -0.0133901 0.0332264 0.999358 0.329346 -0.0609249 0.942242 
-0.575881 0.148555 0.803923 -0.754563 0.163942 0.635419 0.5014 0.0252494 0.864847 
0.96007 -0.0127625 0.27947 0.318373 -0.0551166 0.946362 0.326408 -0.0597901 0.943336 
0.323348 -0.0504018 0.944937 0.326539 -0.0558376 0.943533 -0.600094 0.0145136 0.799798 
-0.711383 0.00715263 0.702769 0.591625 -0.0697928 0.803187 0.602814 -0.200414 0.772301 
-0.606933 -0.0764455 0.791068 -0.769768 -0.0969602 0.630916 0.599526 -0.213176 0.771443 
0.633506 -0.228559 0.73921 -0.614842 -0.170527 0.769994 -0.881739 -0.254734 0.397048 
0.587623 -0.262426 0.765396 0.830752 -0.341923 0.439249 -0.60967 -0.274766 0.74351 
-0.571562 -0.362562 0.736116 0.550132 -0.433118 0.713978 0.53578 -0.454234 0.711766 
0.359471 -0.628971 0.68933 -0.494713 -0.439308 0.749845 -0.370348 -0.522845 0.767773 
-0.712193 -0.542653 0.445319 0.329623 -0.64662 0.687918 0.376783 -0.691595 0.616224 
0.223523 -0.669195 0.708672 0.175423 -0.65521 0.734797 0.119515 -0.637961 0.760738 
-0.01108 -0.619613 0.784829 -0.148933 -0.571328 0.807096 -0.187539 -0.53965 0.820736 
-0.267403 -0.559952 0.784187 -0.241613 -0.559374 0.792921 -0.47889 -0.745325 0.463848 
0.247536 -0.918691 0.307788 0.154154 -0.794531 0.58733 -0.0025258 -0.700946 0.71321 
-0.162607 -0.748184 0.643257 -0.280766 -0.873196 0.39837 -0.00184199 0.991219 0.132217 
0.472166 0.85194 0.226402 0.23603 0.961354 0.141731 0.279616 0.949153 0.144652 
-0.206206 0.97199 0.11276 -0.0140726 0.971163 -0.237999 -0.250232 0.962022 0.109074 
-0.428596 0.899302 0.0869592 0.572675 0.658431 0.488376 0.553629 0.765097 0.328819 
0.562896 0.740679 0.366801 -0.581637 0.805245 0.115233 -0.58387 0.803583 0.11554 
-0.687671 0.713348 0.135067 0.573665 0.653749 0.493478 0.575738 0.608119 0.54655 
-0.699499 0.701189 0.137968 -0.683741 0.711349 -0.162728 -0.787227 0.591108 0.175685 
0.592732 0.594301 0.543576 0.716098 0.504926 0.481926 -0.788241 0.58952 0.176471 
-0.790832 0.596862 0.135427 0.718938 0.501685 0.481082 -0.840669 0.514342 0.169497 
-0.886877 0.423549 0.184541 0.845751 0.365923 0.388337 -0.912465 0.34942 0.21287 
0.932462 0.190774 0.306789 0.960103 -0.0122965 0.279377 -0.966237 0.153337 0.20706 
0.960113 -0.0127729 0.279321 0.960121 -0.0130797 0.279279 -0.982982 -0.0335562 0.180614 
0.947597 -0.184543 0.260775 -0.980153 -0.138529 0.141807 0.927239 -0.284485 0.243507 
-0.958946 -0.255385 0.123295 -0.929291 -0.349368 0.119833 0.908714 -0.361699 0.208357 
0.857541 -0.483314 0.176155 -0.912885 -0.389022 0.123703 0.809786 -0.565321 0.157031 
0.642782 -0.75148 0.148692 -0.814606 -0.562446 0.141672 -0.750242 -0.645205 0.144391 
0.584527 -0.798807 0.142252 0.423264 -0.894213 0.145707 0.347677 -0.924163 0.158249 
-0.37929 -0.896666 0.228317 -0.626186 -0.760791 0.170555 -0.520811 -0.831061 0.195173 
0.298485 -0.939973 0.165399 0.252903 -0.951028 0.177725 0.191497 -0.964388 0.182442 
0.0285006 -0.980392 0.194983 -0.148064 -0.96806 0.202327 -0.338704 -0.913253 0.226379 
-0.276204 -0.933949 0.226828 0.378584 0.908511 -0.176866 0.217915 0.935871 -0.276873 
-0.016107 0.953382 -0.301335 -0.271384 0.896886 -0.349207 -0.444208 0.822921 -0.354231 
0.528403 0.847581 0.0489553 0.48246 0.872636 -0.0757464 0.486086 0.871067 -0.0704489 
-0.516181 0.781435 -0.350595 -0.422891 0.725041 -0.543579 -0.550728 0.752781 -0.360583 
0.592024 0.801682 0.08254 0.651857 0.751 0.105269 -0.642243 0.684421 -0.345096 
-0.48329 0.551355 -0.680028 -0.649868 0.677167 -0.345133 0.760257 0.643832 0.0865375 
0.823849 0.561747 0.0755813 -0.721828 0.604263 -0.337387 -0.527689 0.460657 -0.71368 
-0.737985 0.589974 -0.327579 0.882627 0.463447 0.0786582 -0.795701 0.503091 -0.337283 
-0.617162 0.406406 -0.673755 -0.856879 0.389079 -0.338194 0.957232 0.288939 0.0149057 
-0.875838 0.350019 -0.332258 -0.84148 0.353958 -0.408197 0.990033 0.128767 -0.0570465 
0.995761 0.0600989 -0.0696251 -0.928912 0.135817 -0.344494 -0.793918 0.123476 -0.595355 
0.995837 -0.0327936 -0.0850461 0.993539 -0.0703968 -0.0890232 0.992552 -0.0360816 -0.116354 
-0.93245 -0.0665501 -0.355116 -0.796897 -0.0643675 -0.600676 0.976177 -0.192769 -0.099597 
-0.910375 -0.169346 -0.377543 -0.826683 -0.168111 -0.536967 0.938817 -0.31987 -0.127692 
-0.871063 -0.267047 -0.412232 -0.86668 -0.280354 -0.412635 -0.857939 -0.268476 -0.43802 
0.885577 -0.425027 -0.187364 0.847479 -0.485857 -0.213826 0.824107 -0.44455 -0.35103 
-0.847467 -0.355855 -0.393913 -0.6181 -0.25881 -0.742273 0.76081 -0.598905 -0.249962 
0.635318 -0.732793 -0.243692 -0.760432 -0.536612 -0.365775 -0.728966 -0.574211 -0.37268 
-0.70842 -0.539319 -0.455276 0.540374 -0.804733 -0.245766 0.44719 -0.864086 -0.231033 
0.432985 -0.779853 -0.452055 0.331522 -0.914626 -0.231415 -0.385175 -0.871015 -0.304916 
-0.336216 -0.608244 -0.719026 -0.610607 -0.71342 -0.343789 -0.559641 -0.7606 -0.329074 
-0.555507 -0.693272 -0.459114 0.281174 -0.93531 -0.214794 0.270868 -0.939334 -0.210435 
0.268388 -0.928891 -0.255205 0.183762 -0.956607 -0.226129 0.156409 -0.869895 -0.46778 
0.0236759 -0.968008 -0.249798 0.00130973 -0.807335 -0.590092 -0.151168 -0.954857 -0.255727 
-0.167028 -0.827747 -0.535665 -0.316227 -0.905998 -0.281369 -0.274046 -0.921009 -0.27684 
-0.283179 -0.885055 -0.369443 0.253636 0.816013 -0.519415 0.121208 0.777594 -0.616973 
-0.0671233 0.740989 -0.668155 -0.247096 0.683958 -0.6864 0.444423 0.81927 -0.362332 
0.270484 0.820826 -0.503073 0.344651 0.828327 -0.44169 0.243953 0.80083 -0.546954 
0.0809766 0.705634 -0.703934 -0.0755615 0.642825 -0.762277 -0.287993 0.667889 -0.686283 
-0.241884 0.652057 -0.718549 -0.382404 0.597024 -0.705216 0.498727 0.796355 -0.342184 
0.617294 0.725708 -0.303803 0.406867 0.769744 -0.491888 0.224804 0.612783 -0.757602 
0.0827167 0.449181 -0.889604 -0.015363 0.368165 -0.929633 -0.109436 0.334602 -0.935984 
-0.224791 0.363342 -0.904131 -0.449735 0.519257 -0.726712 -0.349023 0.438586 -0.828146 
-0.456905 0.500524 -0.735333 0.716711 0.630174 -0.298675 0.803524 0.517161 -0.294777 
0.555553 0.583021 -0.592829 -0.277826 0.21434 -0.936414 -0.489668 0.428759 -0.759204 
-0.370054 0.329241 -0.868712 -0.485804 0.414459 -0.769557 0.842137 0.448262 -0.299777 
0.775197 0.439369 -0.4539 -0.16796 0.0634687 -0.983749 -0.264834 0.181154 -0.947125 
-0.521296 0.356377 -0.7754 -0.375437 0.291561 -0.879795 -0.550872 0.304165 -0.77719 
0.918175 0.241013 -0.314433 0.646299 0.248812 -0.721381 -0.0793574 0.0218499 -0.996607 
-0.0859504 -0.0101209 -0.996248 -0.139577 0.0835729 -0.986678 -0.28665 0.180557 -0.940867 
-0.556536 0.254497 -0.790885 -0.5168 0.234071 -0.823485 0.941703 0.0950484 -0.32274 
-0.104017 -0.0207213 -0.99436 -0.0801094 0.0229816 -0.996521 -0.229195 0.065676 -0.971162 
-0.602231 0.113625 -0.790194 -0.453622 0.0985017 -0.885734 0.935719 -0.0594433 -0.347702 
-0.166821 -0.178785 -0.969643 -0.0423185 -0.064943 -0.996991 -0.0495039 0.0121871 -0.9987 
-0.0561213 -0.00291053 -0.99842 -0.22611 -0.0115609 -0.974033 -0.611725 -0.0539571 -0.789228 
-0.454957 -0.0362742 -0.889774 0.897378 -0.22859 -0.377438 0.605779 -0.250662 -0.755116 
-0.0934416 0.0820181 -0.992241 -0.0280911 0.0516874 -0.998268 -0.0478619 0.0620377 -0.996926 
-0.102327 0.00380449 -0.994744 -0.258513 -0.0628628 -0.96396 -0.58786 -0.14974 -0.794984 
-0.501031 -0.126352 -0.856156 0.82053 -0.366012 -0.43905 0.776116 -0.422309 -0.468295 
0.719151 -0.375592 -0.584596 -0.0974324 0.0426983 -0.994326 -0.173334 -0.0286314 -0.984447 
-0.338259 -0.114557 -0.934054 -0.591665 -0.153478 -0.79144 -0.598344 -0.218614 -0.770839 
-0.569414 -0.142606 -0.809587 0.737099 -0.452754 -0.501696 0.476507 -0.40442 -0.780632 
-0.158304 -0.0814334 -0.984027 -0.252823 -0.143593 -0.956798 -0.592452 -0.251947 -0.765195 
-0.380059 -0.199993 -0.903082 0.598972 -0.579866 -0.552257 0.59234 -0.586315 -0.552602 
0.589668 -0.578288 -0.563803 0.421161 -0.71942 -0.55232 0.353211 -0.484022 -0.800603 
-0.131948 -0.223849 -0.965651 -0.198727 -0.279023 -0.939497 -0.333812 -0.596249 -0.730107 
-0.290926 -0.332193 -0.897224 -0.512169 -0.416974 -0.750877 -0.499728 -0.439691 -0.746287 
-0.495045 -0.397697 -0.772507 0.378774 -0.747018 -0.546347 0.304675 -0.778601 -0.548593 
0.286093 -0.703734 -0.650315 0.226943 -0.794087 -0.563847 0.169685 -0.601751 -0.78045 
0.132079 -0.80252 -0.581822 0.046119 -0.497008 -0.866519 -0.00316621 -0.782066 -0.623187 
-0.0762723 -0.463392 -0.882865 -0.168652 -0.737494 -0.653957 -0.171258 -0.472245 -0.864671 
-0.330269 -0.600616 -0.728137 -0.279195 -0.654321 -0.70279 -0.256645 -0.532411 -0.806642 
0.283611 0.479449 -0.830478 0.148615 0.479362 -0.864942 0.0580037 0.402917 -0.913397 
-0.0182512 0.35594 -0.934331 -0.105428 0.242634 -0.964372 -0.181153 0.147824 -0.972282 
0.34618 0.462211 -0.816407 0.424022 0.426484 -0.798947 0.2503 0.414103 -0.875139 
0.0512953 0.303651 -0.951402 -0.030374 0.189338 -0.981442 -0.072031 0.111647 -0.991134 
-0.105908 0.105644 -0.988748 -0.188046 0.1299 -0.973532 -0.175071 0.119895 -0.977228 
0.480672 0.366275 -0.796742 0.35427 0.322269 -0.877859 0.133313 0.211911 -0.968154 
-0.0344802 0.0983841 -0.994551 -0.134188 0.0166816 -0.990816 -0.110878 -0.0400935 -0.993025 
-0.100124 -0.0376071 -0.994264 -0.132114 -0.00582065 -0.991217 -0.0880624 0.0142546 -0.996013 
-0.124997 -0.0182953 -0.991988 0.615623 0.242458 -0.749815 0.628336 0.221882 -0.745629 
0.274224 0.139869 -0.95144 0.0152336 0.0800831 -0.996672 -0.153079 -0.0281646 -0.987813 
-0.161947 -0.0515886 -0.98545 -0.126904 0.061899 -0.989982 -0.079653 0.0264274 -0.996472 
-0.08282 0.0728921 -0.993895 -0.0887792 0.01971 -0.995856 0.654573 0.0851217 -0.751192 
0.573035 0.0835015 -0.815266 0.18916 0.0394838 -0.981152 -0.0426098 -0.00295593 -0.999087 
-0.165859 -0.00308777 -0.986145 -0.0512588 0.0271385 -0.998317 0.0185406 0.0759902 -0.996936 
-0.164071 -0.154906 -0.97421 -0.136491 -0.0407053 -0.989805 -0.178396 -0.0142298 -0.983856 
-0.0918682 -0.0502535 -0.994502 -0.215034 -0.00991323 -0.976556 0.64593 -0.086881 -0.758437 
0.597072 -0.227395 -0.769283 0.572657 -0.0872685 -0.815137 0.208523 -0.0602856 -0.976158 
-0.0265031 -0.0305419 -0.999182 -0.124587 0.00500187 -0.992196 -0.083043 0.0452128 -0.99552 
-0.180096 -0.167187 -0.969337 -0.207754 -0.11193 -0.971756 0.580325 -0.248004 -0.775704 
0.237924 -0.17411 -0.955551 0.0223116 -0.109966 -0.993685 -0.0896936 -0.0447269 -0.994965 
-0.158896 -0.0384167 -0.986548 -0.123128 0.0382025 -0.991655 -0.198174 -0.0807114 -0.976838 
-0.0737468 0.0917887 -0.993044 -0.0422706 0.0651817 -0.996978 0.434771 -0.32232 -0.840883 
0.396818 -0.337395 -0.853639 0.360841 -0.300439 -0.88291 0.109785 -0.171395 -0.979066 
-0.0487626 -0.0920449 -0.99456 -0.123221 -0.0433808 -0.991431 -0.0960343 0.0452302 -0.99435 
-0.0333148 0.11268 -0.993073 -0.0878149 0.0521901 -0.994769 -0.0581034 0.0820343 -0.994934 
0.321487 -0.336916 -0.884948 0.266084 -0.356627 -0.895554 0.224414 -0.296966 -0.928143 
0.0417979 -0.181941 -0.982421 -0.0250227 -0.0688748 -0.997311 -0.0367965 -0.010113 -0.999272 
-0.0592228 -0.00681162 -0.998222 -0.14823 -0.0742696 -0.98616 -0.130177 -0.214069 -0.968106 
-0.0972154 -0.0389376 -0.994501 0.188729 -0.377052 -0.90676 0.188447 -0.377132 -0.906785 
0.188351 -0.376837 -0.906928 0.0901523 -0.367589 -0.925608 0.0499329 -0.255991 -0.965389 
-0.0105382 -0.298643 -0.954307 -0.03725 -0.197125 -0.979671 -0.126935 -0.221196 -0.966933 
-0.0662875 -0.25512 -0.964635 -0.0606966 -0.189065 -0.980087 
