# vtk DataFile Version 4.2
vtk output
ASCII
DATASET POLYDATA
POINTS 528 float
-29.2518 -47.8622 -13.8078 -21.086 -47.8622 -15.9389 -12.9202 -47.8622 -15.9077 
-4.75443 -47.8622 -14.5504 -37.4176 -39.6964 -13.5468 -29.2518 -39.6964 -17.2256 
-21.086 -39.6964 -19.5798 -12.9202 -39.6964 -18.5507 -4.75443 -39.6964 -17.5929 
3.41136 -39.6964 -16.243 11.5771 -39.6964 -14.5617 -37.4176 -31.5307 -15.4321 
-29.2518 -31.5307 -18.752 -21.086 -31.5307 -20.2422 -12.9202 -31.5307 -19.3442 
-4.75443 -31.5307 -18.4058 3.41136 -31.5307 -17.9981 11.5771 -31.5307 -17.5786 
19.7429 -31.5307 -16.4677 27.9087 -31.5307 -14.1925 -37.4176 -23.3649 -15.3522 
-29.2518 -23.3649 -18.9911 -21.086 -23.3649 -19.6717 -12.9202 -23.3649 -18.724 
-4.75443 -23.3649 -18.1666 3.41136 -23.3649 -18.4939 11.5771 -23.3649 -18.737 
19.7429 -23.3649 -18.757 27.9087 -23.3649 -18.1911 36.0745 -23.3649 -15.7371 
-37.4176 -15.1991 -15.5464 -29.2518 -15.1991 -18.3988 -21.086 -15.1991 -18.9506 
-12.9202 -15.1991 -18.0999 -4.75443 -15.1991 -18.5078 3.41136 -15.1991 -20.1853 
11.5771 -15.1991 -19.2569 19.7429 -15.1991 -19.4476 27.9087 -15.1991 -19.6778 
36.0745 -15.1991 -18.5383 44.2403 -15.1991 -15.4856 -37.4176 -7.0333 -16.3297 
-29.2518 -7.0333 -18.2612 -21.086 -7.0333 -18.7961 -12.9202 -7.0333 -18.6423 
-4.75443 -7.0333 -20.4511 3.41136 -7.0333 -19.7388 11.5771 -7.0333 -17.9664 
19.7429 -7.0333 -18.9488 27.9087 -7.0333 -20.0252 36.0745 -7.0333 -19.6919 
44.2403 -7.0333 -17.4766 -37.4176 1.13249 -17.2061 -29.2518 1.13249 -19.0945 
-21.086 1.13249 -18.8392 -12.9202 1.13249 -18.8448 -4.75443 1.13249 -18.6355 
3.41136 1.13249 -17.851 11.5771 1.13249 -19.4613 19.7429 1.13249 -18.6967 
27.9087 1.13249 -19.2558 36.0745 1.13249 -19.5458 44.2403 1.13249 -17.8722 
52.4061 1.13249 -13.7695 -37.4176 9.29827 -17.4583 -29.2518 9.29827 -19.0783 
-21.086 9.29827 -19.4252 -12.9202 9.29827 -19.2567 -4.75443 9.29827 -19.5574 
3.41136 9.29827 -20.3995 11.5771 9.29827 -20.6755 19.7429 9.29827 -18.1995 
27.9087 9.29827 -18.3398 36.0745 9.29827 -18.47 44.2403 9.29827 -17.1014 
52.4061 9.29827 -13.5315 -37.4176 17.4641 -16.0784 -29.2518 17.4641 -18.3122 
-21.086 17.4641 -18.8207 -12.9202 17.4641 -18.7176 -4.75443 17.4641 -17.5498 
3.41136 17.4641 -17.2282 11.5771 17.4641 -18.306 19.7429 17.4641 -18.1571 
27.9087 17.4641 -17.8865 36.0745 17.4641 -17.2122 44.2403 17.4641 -15.998 
-37.4176 25.6298 -14.4299 -29.2518 25.6298 -16.1435 -21.086 25.6298 -17.4803 
-12.9202 25.6298 -17.7919 -4.75443 25.6298 -17.4451 3.41136 25.6298 -17.2476 
11.5771 25.6298 -17.7158 19.7429 25.6298 -17.7889 27.9087 25.6298 -17.0355 
36.0745 25.6298 -14.8937 -29.2518 33.7956 -14.153 -21.086 33.7956 -15.8971 
-12.9202 33.7956 -16.585 -4.75443 33.7956 -16.5766 3.41136 33.7956 -16.5211 
11.5771 33.7956 -16.5165 19.7429 33.7956 -16.1414 27.9087 33.7956 -14.1189 
-21.086 41.9614 -13.477 -12.9202 41.9614 -14.2743 -4.75443 41.9614 -14.3648 
3.41136 41.9614 -13.9478 11.5771 41.9614 -13.432 -29.2518 -48.2719 -13.3765 
-21.086 -52.1682 -13.3765 -21.086 -56.028 -5.43348 -12.9202 -51.6787 -13.3765 
-12.9202 -56.028 -5.41743 -4.75443 -49.559 -13.3765 -29.8746 -47.8622 -13.3765 
-37.4176 -40.0298 -13.3765 -0.352409 -47.8622 -13.3765 3.41136 -45.8357 -13.3765 
3.41136 -47.8622 -11.8467 11.5771 -41.5795 -13.3765 11.5771 -47.8622 -7.92169 
-37.6003 -39.6964 -13.3765 15.153 -39.6964 -13.3765 19.7429 -37.2118 -13.3765 
19.7429 -39.6964 -11.3222 27.9087 -32.6175 -13.3765 27.9087 -39.6964 -5.5139 
-40.0861 -31.5307 -13.3765 29.5002 -31.5307 -13.3765 36.0745 -26.678 -13.3765 
36.0745 -31.5307 -8.48773 -40.0222 -23.3649 -13.3765 -45.5834 -23.3649 -7.232 
39.8084 -23.3649 -13.3765 44.2403 -18.9028 -13.3765 44.2403 -23.3649 -9.47236 
-40.5748 -15.1991 -13.3765 -45.5834 -15.1991 -8.67515 47.1207 -15.1991 -13.3765 
52.4061 -15.1991 -7.53813 -42.3794 -7.0333 -13.3765 -45.5834 -7.0333 -10.5432 
50.9336 -7.0333 -13.3765 52.4061 -1.31988 -13.3765 52.4061 -7.0333 -12.1064 
-44.5918 1.13249 -13.3765 -45.5834 1.13249 -12.6309 52.9207 1.13249 -13.3765 
-45.0778 9.29827 -13.3765 -45.5834 9.29827 -12.997 52.6121 9.29827 -13.3765 
52.4061 9.82699 -13.3765 -42.7337 17.4641 -13.3765 -45.5834 17.4641 -11.6307 
49.3029 17.4641 -13.3765 44.2403 23.6547 -13.3765 52.4061 17.4641 -11.0619 
-39.1761 25.6298 -13.3765 -45.5834 25.6298 -8.31664 -37.4176 27.8359 -13.3765 
41.0213 25.6298 -13.3765 36.0745 29.7058 -13.3765 44.2403 25.6298 -12.1878 
52.4061 25.6298 -5.98744 -31.0408 33.7956 -13.3765 -37.4176 33.7956 -10.1004 
-29.2518 35.5372 -13.3765 19.7429 40.1188 -13.3765 30.54 33.7956 -13.3765 
27.9087 35.2028 -13.3765 36.0745 33.7956 -11.3696 44.2403 33.7956 -5.94747 
-37.4176 41.9614 -7.15403 -21.361 41.9614 -13.3765 -29.2518 41.9614 -10.0511 
-21.086 42.2047 -13.3765 -12.9202 43.6559 -13.3765 -4.75443 43.77 -13.3765 
3.41136 42.8689 -13.3765 12.0383 41.9614 -13.3765 11.5771 42.0363 -13.3765 
19.7429 41.9614 -12.1023 27.9087 41.9614 -7.95307 -29.2518 50.1272 -6.10483 
-21.086 50.1272 -8.26457 -12.9202 50.1272 -9.35163 -4.75443 50.1272 -8.96574 
3.41136 50.1272 -7.04894 -21.086 -56.0877 -5.21067 -12.9202 -56.1014 -5.21067 
-21.2538 -56.028 -5.21067 -29.2518 -52.8848 -5.21067 -21.086 -56.028 -4.90411 
-12.4108 -56.028 -5.21067 -12.9202 -56.028 -4.80971 -4.75443 -54.8257 -5.21067 
3.41136 -52.469 -5.21067 11.5771 -49.7529 -5.21067 -36.2546 -47.8622 -5.21067 
-37.4176 -46.486 -5.21067 15.429 -47.8622 -5.21067 19.7429 -45.1903 -5.21067 
27.9087 -39.8976 -5.21067 -41.8862 -39.6964 -5.21067 28.1968 -39.6964 -5.21067 
36.0745 -33.877 -5.21067 -45.1297 -31.5307 -5.21067 -45.5834 -29.3797 -5.21067 
39.0237 -31.5307 -5.21067 44.2403 -26.854 -5.21067 -46.942 -23.3649 -5.21067 
47.5434 -23.3649 -5.21067 52.4061 -17.4383 -5.21067 -48.1744 -15.1991 -5.21067 
53.9606 -15.1991 -5.21067 -49.6811 -7.0333 -5.21067 57.6827 -7.0333 -5.21067 
-51.4709 1.13249 -5.21067 59.9081 1.13249 -5.21067 60.5718 1.13249 -1.06948 
-52.0409 9.29827 -5.21067 -53.7491 9.29827 2.80719 60.3171 9.29827 -5.21067 
60.5718 9.29827 -2.45407 -51.4597 17.4641 -5.21067 57.7441 17.4641 -5.21067 
-48.6857 25.6298 -5.21067 -45.5834 33.579 -5.21067 52.9384 25.6298 -5.21067 
52.4061 26.2556 -5.21067 -45.4618 33.7956 -5.21067 -45.5834 33.7956 -5.06553 
36.0745 39.6714 -5.21067 44.8105 33.7956 -5.21067 44.2403 34.2689 -5.21067 
44.2403 33.7956 1.17539 -39.5823 41.9614 -5.21067 -37.4176 44.1507 -5.21067 
11.5771 49.4746 -5.21067 19.7429 46.9512 -5.21067 31.9196 41.9614 -5.21067 
27.9087 43.8638 -5.21067 -30.3492 50.1272 -5.21067 -29.2518 50.8884 -5.21067 
-21.086 52.8049 -5.21067 -12.9202 54.1124 -5.21067 -4.75443 53.2281 -5.21067 
8.86731 50.1272 -5.21067 3.41136 51.4746 -5.21067 -29.2518 -51.0183 2.95511 
-21.086 -53.9606 2.95511 -12.9202 -54.3344 2.95511 -4.75443 -53.8858 2.95511 
3.41136 -52.7981 2.95511 11.5771 -50.3308 2.95511 -33.8095 -47.8622 2.95511 
-37.4176 -44.5286 2.95511 -29.2518 -47.8622 7.28361 -21.086 -47.8622 10.745 
-12.9202 -47.8622 10.6239 -4.75443 -47.8622 10.7248 3.41136 -47.8622 10.6607 
17.4184 -47.8622 2.95511 11.5771 -47.8622 8.20783 19.7429 -46.7958 2.95511 
27.9087 -42.1158 2.95511 -41.2431 -39.6964 2.95511 -37.4176 -39.6964 8.39555 
31.5566 -39.6964 2.95511 36.0745 -36.4165 2.95511 -45.5059 -31.5307 2.95511 
-45.5834 -31.333 2.95511 42.2758 -31.5307 2.95511 44.2403 -29.7957 2.95511 
-48.3301 -23.3649 2.95511 -45.5834 -23.3649 8.44614 50.3365 -23.3649 2.95511 
52.4061 -20.9101 2.95511 -50.2696 -15.1991 2.95511 56.2761 -15.1991 2.95511 
-51.9007 -7.0333 2.95511 59.586 -7.0333 2.95511 60.5718 -1.89877 2.95511 
-53.29 1.13249 2.95511 -53.7491 8.85292 2.95511 61.1151 1.13249 2.95511 
60.5718 1.13249 4.57744 -53.7756 9.29827 2.95511 -53.7491 11.4193 2.95511 
-53.7491 9.29827 3.04922 60.9987 9.29827 2.95511 60.5718 10.6896 2.95511 
60.5718 9.29827 3.89056 -53.6733 17.4641 2.95511 58.2644 17.4641 2.95511 
-52.441 25.6298 2.95511 44.2403 33.6441 2.95511 52.722 25.6298 2.95511 
52.4061 25.9804 2.95511 52.4061 25.6298 3.42521 -49.1934 33.7956 2.95511 
-45.5834 39.302 2.95511 44.0441 33.7956 2.95511 36.0745 39.3349 2.95511 
36.0745 33.7956 10.4066 -43.4723 41.9614 2.95511 -37.4176 48.0899 2.95511 
11.5771 48.9418 2.95511 19.7429 46.5278 2.95511 19.7429 41.9614 8.8916 
31.2956 41.9614 2.95511 27.9087 43.6305 2.95511 27.9087 41.9614 5.73558 
-34.6223 50.1272 2.95511 -29.2518 53.3003 2.95511 -21.086 56.228 2.95511 
-12.9202 55.8214 2.95511 -12.9202 50.1272 10.8857 -4.75443 53.967 2.95511 
-4.75443 50.1272 10.1867 7.51333 50.1272 2.95511 3.41136 51.3349 2.95511 
3.41136 50.1272 4.95532 -29.2518 -42.367 11.1209 -21.086 -47.3749 11.1209 
-12.9202 -47.1672 11.1209 -4.75443 -47.3541 11.1209 3.41136 -47.3839 11.1209 
11.5771 -46.03 11.1209 19.7429 -44.0652 11.1209 27.9087 -40.4038 11.1209 
-32.75 -39.6964 11.1209 -37.4176 -34.6981 11.1209 -29.2518 -39.6964 12.6438 
-21.086 -39.6964 14.7444 -12.9202 -39.6964 15.272 -4.75443 -39.6964 15.7418 
3.41136 -39.6964 15.9813 11.5771 -39.6964 16.7503 19.7429 -39.6964 15.5229 
29.1151 -39.6964 11.1209 27.9087 -39.6964 11.9761 36.0745 -35.31 11.1209 
-39.2192 -31.5307 11.1209 -37.4176 -31.5307 12.4651 -29.2518 -31.5307 15.6436 
-21.086 -31.5307 17.0213 -12.9202 -31.5307 17.6627 -4.75443 -31.5307 17.7163 
3.41136 -31.5307 18.2224 11.5771 -31.5307 18.7373 19.7429 -31.5307 19.0208 
27.9087 -31.5307 17.7909 41.0209 -31.5307 11.1209 36.0745 -31.5307 15.1281 
44.2403 -28.8553 11.1209 -43.6569 -23.3649 11.1209 -45.5834 -18.1198 11.1209 
-37.4176 -23.3649 15.2387 -29.2518 -23.3649 16.8482 -21.086 -23.3649 17.7378 
-12.9202 -23.3649 18.2317 -4.75443 -23.3649 18.2587 3.41136 -23.3649 18.7301 
11.5771 -23.3649 19.0692 36.0745 -23.3649 18.7482 49.2755 -23.3649 11.1209 
44.2403 -23.3649 15.9138 52.4061 -18.8178 11.1209 -46.5242 -15.1991 11.1209 
-45.5834 -15.1991 12.1649 -37.4176 -15.1991 16.5905 -29.2518 -15.1991 17.7865 
-21.086 -15.1991 17.8173 -12.9202 -15.1991 17.508 -4.75443 -15.1991 18.1229 
3.41136 -15.1991 18.55 11.5771 -15.1991 18.1279 19.7429 -15.1991 18.8212 
54.5676 -15.1991 11.1209 52.4061 -15.1991 13.8984 -48.4196 -7.0333 11.1209 
[...]
POINT_DATA 528
SCALARS ImageScalars float
LOOKUP_TABLE default
0 0 0 0 0 0 0 0 0 
0 0 0 0 0 0 0 0 0 
0 0 0 0 0 0 0 0 0 
0 0 0 0 0 0 0 0 0 
0 0 0 0 0 0 0 0 0 
0 0 0 0 0 0 0 0 0 
0 0 0 0 0 0 0 0 0 
0 0 0 0 0 0 0 0 0 
0 0 0 0 0 0 0 0 0 
0 0 0 0 0 0 0 0 0 
0 0 0 0 0 0 0 0 0 
0 0 0 0 0 0 0 0 0 
0 0 0 0 0 0 0 0 0 
0 0 0 0 0 0 0 0 0 
0 0 0 0 0 0 0 0 0 
0 0 0 0 0 0 0 0 0 
0 0 0 0 0 0 0 0 0 
0 0 0 0 0 0 0 0 0 
0 0 0 0 0 0 0 0 0 
0 0 0 0 0 0 0 0 0 
0 0 0 0 0 0 0 0 0 
0 0 0 0 0 0 0 0 0 
0 0 0 0 0 0 0 0 0 
0 0 0 0 0 0 0 0 0 
0 0 0 0 0 0 0 0 0 
0 0 0 0 0 0 0 0 0 
0 0 0 0 0 0 0 0 0 
0 0 0 0 0 0 0 0 0 
0 0 0 0 0 0 0 0 0 
0 0 0 0 0 0 0 0 0 
0 0 0 0 0 0 0 0 0 
0 0 0 0 0 0 0 0 0 
0 0 0 0 0 0 0 0 0 
0 0 0 0 0 0 0 0 0 
0 0 0 0 0 0 0 0 0 
0 0 0 0 0 0 0 0 0 
0 0 0 0 0 0 0 0 0 
0 0 0 0 0 0 0 0 0 
0 0 0 0 0 0 0 0 0 
0 0 0 0 0 0 0 0 0 
0 0 0 0 0 0 0 0 0 
0 0 0 0 0 0 0 0 0 
0 0 0 0 0 0 0 0 0 
0 0 0 0 0 0 0 0 0 
0 0 0 0 0 0 0 0 0 
0 0 0 0 0 0 0 0 0 
0 0 0 0 0 0 0 0 0 
0 0 0 0 0 0 0 0 0 
0 0 0 0 0 0 0 0 0 
0 0 0 0 0 0 0 0 0 
0 0 0 0 0 0 0 0 0 
0 0 0 0 0 0 0 0 0 
0 0 0 0 0 0 0 0 0 
0 0 0 0 0 0 0 0 0 
0 0 0 0 0 0 0 0 0 
0 0 0 0 0 0 0 0 0 
0 0 0 0 0 0 0 0 0 
0 0 0 0 0 0 0 0 0 
0 0 0 0 0 0 
NORMALS Normals float
0.400125 0.598641 0.693922 0.0848674 0.477888 0.874311 -0.0814105 0.479049 0.874005 
-0.205286 0.521055 0.828468 0.629538 0.342285 0.697512 0.330591 0.237853 0.91331 
0.057194 0.249007 0.966811 -0.11366 0.199714 0.97324 -0.143817 0.21941 0.964975 
-0.171231 0.314485 0.933691 -0.248226 0.443338 0.861299 0.539295 0.0949684 0.836745 
0.270203 0.0943255 0.958172 0.0367892 0.00088554 0.999323 -0.10859 0.0147667 0.993977 
-0.0849922 0.0387064 0.99563 -0.0469857 0.133174 0.989978 -0.0917735 0.225428 0.969928 
-0.176975 0.371852 0.911266 -0.348364 0.534921 0.769741 0.519067 0.00596226 0.854713 
0.233917 -0.0233869 0.971975 -0.017964 -0.0778895 0.9968 -0.0943864 -0.0780016 0.992475 
-0.0141729 0.00489326 0.999888 0.0345763 0.128273 0.991136 0.0160679 0.0975703 0.995099 
-0.0292076 0.176837 0.983807 -0.154724 0.292635 0.943624 -0.386595 0.449212 0.805452 
0.477776 0.056601 0.876656 0.181806 -0.0422428 0.982427 -0.0171511 -0.0535461 0.998418 
-0.0292545 -0.00594313 0.999554 0.12888 0.144979 0.981005 0.0403799 0.0830104 0.99573 
-0.041824 -0.0476616 0.997988 0.025151 0.0107118 0.999626 -0.0517008 0.100462 0.993597 
-0.234859 0.206628 0.949814 -0.492269 0.34675 0.798395 0.37791 0.0924293 0.921217 
0.144196 0.0412287 0.98869 0.023157 -0.00682519 0.999709 0.0997227 0.0466785 0.99392 
0.0728106 0.00854072 0.997309 -0.16428 -0.130107 0.977796 -0.03346 0.00663652 0.999418 
0.122231 -0.0457291 0.991448 0.0469673 -0.0266551 0.998541 -0.141409 0.0589433 0.988195 
-0.371584 0.130735 0.919148 0.350237 0.067838 0.934201 0.0927205 0.0500954 0.994431 
-0.0149418 0.0383496 0.999153 -0.0113473 0.0369912 0.999251 -0.0557587 -0.0557337 0.996888 
0.0550945 0.0471884 0.997365 0.0352129 0.169684 0.984869 -0.00835045 -0.0457277 0.998919 
0.0522248 -0.102344 0.993377 -0.0774524 -0.0744644 0.994211 -0.31521 -0.0217819 0.948772 
-0.570861 0.0557771 0.81915 0.323259 -0.0606034 0.944368 0.119249 -0.0460732 0.991795 
0.0108652 -0.000507887 0.999941 0.00802771 -0.00809499 0.999935 0.0644516 -0.0716302 0.995347 
0.0718332 -0.0726733 0.994766 -0.146518 -0.0808373 0.985899 -0.125666 -0.0327627 0.991531 
0.0165858 -0.0840793 0.996321 -0.068555 -0.147316 0.986711 -0.257278 -0.118889 0.958996 
-0.52995 -0.135226 0.837178 0.352163 -0.182108 0.918051 0.151125 -0.173504 0.973169 
0.0232993 -0.116014 0.992974 -0.0765685 -0.0878358 0.993188 -0.0923209 -0.129265 0.987303 
0.0464932 -0.175298 0.983417 0.0568881 -0.166822 0.984345 -0.0249534 -0.0259457 0.999352 
-0.0616856 -0.0852052 0.994452 -0.11568 -0.197265 0.973501 -0.300811 -0.228665 0.925864 
0.376416 -0.308953 0.873418 0.18058 -0.248077 0.951761 0.098161 -0.166307 0.981176 
-0.00268209 -0.128919 0.991651 -0.0333982 -0.0585978 0.997723 0.016485 -0.0421703 0.998974 
0.0332505 -0.106087 0.993801 -0.0441992 -0.121076 0.991659 -0.161236 -0.201318 0.966164 
-0.263945 -0.305473 0.914888 0.294668 -0.324912 0.898667 0.151446 -0.247399 0.957005 
0.0360565 -0.201307 0.978864 -0.00386675 -0.177626 0.98409 -0.00361014 -0.185432 0.98265 
-0.0233283 -0.237729 0.971051 -0.129821 -0.30284 0.944158 -0.24303 -0.419327 0.874701 
0.22692 -0.338231 0.913294 0.0529283 -0.373681 0.926046 -0.0178398 -0.373711 0.927374 
-0.0523191 -0.439318 0.896807 -0.0815821 -0.511314 0.855513 0.409025 0.618433 0.670999 
0.150477 0.690238 0.707763 0.184047 0.981561 0.0516286 -0.105624 0.674468 0.73071 
-0.0741643 0.992214 0.100053 -0.210138 0.601924 0.770408 0.425617 0.60591 0.672103 
0.632147 0.354572 0.688962 -0.253793 0.552009 0.794277 -0.268497 0.505915 0.819732 
-0.298816 0.630087 0.716728 -0.276825 0.507502 0.815972 -0.370645 0.791394 0.486125 
0.637027 0.344054 0.6898 -0.296863 0.50839 0.808339 -0.298652 0.517883 0.801626 
-0.37563 0.614138 0.694073 -0.370883 0.559859 0.740948 -0.51 0.760331 0.402239 
0.674515 0.12028 0.728397 -0.384466 0.560138 0.733779 -0.43839 0.545885 0.714019 
-0.52638 0.686356 0.501837 0.614775 0.0181217 0.788494 0.875495 0.142915 0.46161 
-0.484547 0.512771 0.708717 -0.540777 0.446095 0.713134 -0.612828 0.579752 0.536963 
0.580221 0.0862037 0.809884 0.790763 0.131115 0.597915 -0.578382 0.37692 0.723468 
-0.744756 0.454905 0.488262 0.565411 0.13673 0.813398 0.725066 0.162966 0.66912 
-0.603326 0.227701 0.764297 -0.596076 0.111327 0.795173 -0.669245 0.258238 0.696724 
0.600718 0.0951745 0.793775 0.647116 0.100944 0.755679 -0.588186 0.0587852 0.806586 
0.603184 -0.0511509 0.79596 0.628366 -0.0480555 0.776432 -0.537355 -0.135561 0.83239 
-0.535977 -0.145802 0.831547 0.498401 -0.205232 0.842304 0.60478 -0.213547 0.767228 
-0.500668 -0.268192 0.823046 -0.369241 -0.407943 0.835011 -0.645532 -0.312627 0.696816 
0.435299 -0.313253 0.84403 0.661657 -0.305829 0.684601 0.400463 -0.331401 0.854285 
-0.33972 -0.405833 0.848463 -0.309224 -0.402577 0.861575 -0.409541 -0.484276 0.773144 
-0.726549 -0.604379 0.326883 0.327505 -0.342391 0.88063 0.457734 -0.377243 0.805089 
0.304817 -0.345245 0.887633 -0.191434 -0.515027 0.835524 -0.275111 -0.447668 0.850828 
-0.264809 -0.464539 0.845032 -0.382367 -0.561277 0.734006 -0.604499 -0.740073 0.294741 
0.517741 -0.514474 0.683565 0.231132 -0.340091 0.911546 0.336805 -0.4236 0.840907 
0.225611 -0.345585 0.910863 0.0399267 -0.425233 0.904203 -0.028322 -0.438434 0.898317 
-0.0627622 -0.474665 0.877926 -0.0883026 -0.515431 0.85237 -0.0820062 -0.514397 0.853622 
-0.230512 -0.624161 0.746517 -0.384863 -0.803024 0.455009 0.415949 -0.687441 0.595324 
0.169967 -0.687006 0.706494 0.0271861 -0.695738 0.717781 -0.105762 -0.772442 0.626217 
-0.207418 -0.874138 0.43916 0.184007 0.982193 0.0379213 -0.0723812 0.993543 0.0873721 
0.189158 0.981212 0.0379696 0.456961 0.885112 0.0881139 0.185108 0.982482 0.0215654 
-0.0806075 0.992591 0.0909196 -0.0704902 0.995378 0.0652213 -0.210433 0.96387 0.163315 
-0.297189 0.919078 0.258794 -0.384187 0.861265 0.3326 0.693469 0.715404 0.0854284 
0.743929 0.661646 0.0937754 -0.445447 0.829036 0.338047 -0.495164 0.790106 0.361309 
-0.51343 0.764149 0.390469 0.883836 0.433232 0.176476 -0.514817 0.763174 0.39055 
-0.561398 0.731858 0.386286 0.933783 0.267395 0.2378 0.930836 0.241294 0.274448 
-0.584257 0.715072 0.383818 -0.648497 0.656205 0.385807 0.912021 0.174997 0.370937 
-0.689842 0.611216 0.387987 -0.758618 0.511079 0.404101 0.883299 0.148584 0.444642 
-0.784778 0.469453 0.404644 0.87952 0.175358 0.442373 -0.863742 0.327322 0.383158 
0.89966 0.125173 0.418263 -0.921161 0.134596 0.365166 -0.986514 0.109299 0.121839 
0.913263 0.000433516 0.407371 0.998773 0.0231341 -0.0437853 -0.936065 -0.114636 0.332626 
-0.978516 -0.134627 0.156149 0.870212 -0.15997 0.465983 -0.857161 -0.387396 0.33941 
0.755958 -0.302299 0.580639 0.668422 -0.42243 0.612181 -0.742818 -0.609636 0.276703 
-0.733132 -0.622427 0.274048 0.665245 -0.424951 0.613893 0.672358 -0.428094 0.603879 
-0.511516 -0.817201 0.265583 -0.616943 -0.748086 0.244437 -0.608972 -0.754981 0.243222 
-0.614718 -0.765795 -0.188889 0.597967 -0.54118 0.591236 0.555824 -0.585973 0.589657 
-0.243263 -0.930863 0.272611 -0.315751 -0.918665 0.237395 -0.456451 -0.850496 0.26136 
-0.40103 -0.873356 0.276449 0.440342 -0.707124 0.55324 0.413852 -0.726353 0.54876 
0.197803 -0.778535 0.595616 0.011737 -0.863915 0.5035 -0.153143 -0.904862 0.397206 
-0.237552 -0.928018 0.286971 -0.229868 -0.91629 0.327985 0.424614 0.799624 -0.424622 
0.188147 0.877669 -0.440793 -0.00744747 0.910172 -0.414164 -0.0900726 0.936747 -0.338219 
-0.208216 0.952264 -0.223249 -0.331928 0.927576 -0.171544 0.562495 0.721887 -0.403086 
0.682962 0.637907 -0.355861 0.409108 0.676386 -0.612481 0.135479 0.633332 -0.761929 
-0.000145466 0.635084 -0.772443 0.00212969 0.666301 -0.74568 -0.0731121 0.698244 -0.712116 
-0.418007 0.903206 -0.0974141 -0.23542 0.865567 -0.442008 -0.453283 0.889355 -0.0598544 
-0.527393 0.849245 0.0252684 0.790511 0.531499 -0.304303 0.599104 0.514252 -0.613693 
-0.552308 0.832375 0.0459114 -0.589822 0.804576 0.0690378 0.899286 0.38884 -0.200222 
0.901202 0.385921 -0.197232 -0.667899 0.740097 0.0785295 -0.694301 0.714738 0.0842356 
0.950049 0.281389 -0.135011 0.830505 0.287545 -0.477052 -0.757057 0.649282 0.0727788 
-0.796205 0.60221 0.0583212 0.974814 0.214227 -0.0620082 -0.880668 0.472836 0.0291738 
0.982283 0.182867 -0.0409908 -0.955237 0.294766 -0.0252057 -0.984855 0.157246 -0.0730386 
0.991967 0.114403 -0.0539756 0.998292 0.0283938 -0.0510483 -0.992243 0.0786988 -0.0962286 
-0.980753 0.0613911 -0.18535 0.998421 0.0234594 -0.0510382 0.99899 -0.00239822 -0.0448646 
0.998132 0.0235325 -0.0563725 -0.969128 -0.16152 -0.186283 -0.959447 -0.206523 -0.191859 
-0.955313 -0.171009 -0.24111 0.996679 -0.0766694 -0.0274182 -0.877986 -0.427966 -0.214443 
0.961704 -0.272211 0.0320509 -0.597066 -0.745657 -0.295817 -0.724036 -0.634661 -0.270143 
-0.718403 -0.6407 -0.270926 -0.71555 -0.633844 -0.293649 0.881231 -0.465927 0.0796478 
0.803186 -0.588446 0.0928606 -0.595822 -0.746476 -0.29626 -0.5118 -0.80779 -0.292465 
-0.38029 -0.56521 -0.732064 0.763135 -0.643468 0.059791 0.641483 -0.766144 0.0390259 
-0.267962 -0.910385 -0.315271 -0.290791 -0.902142 -0.318715 -0.219107 -0.706517 -0.672924 
-0.446004 -0.849029 -0.283247 -0.39816 -0.873889 -0.278902 -0.376843 -0.816047 -0.438242 
0.56911 -0.821782 0.0280935 0.422575 -0.905912 -0.0274582 0.15491 -0.985788 -0.0650039 
-0.136906 -0.976214 -0.168114 -0.0626614 -0.623613 -0.779218 -0.263712 -0.941663 -0.209112 
-0.199907 -0.698352 -0.687271 -0.292595 -0.910885 -0.290992 -0.313172 -0.907127 -0.281149 
-0.317985 -0.861921 -0.39494 0.350408 0.484275 -0.801681 0.13503 0.612285 -0.779021 
0.000348447 0.60406 -0.796939 0.00728942 0.640066 -0.768285 -0.0601415 0.667266 -0.742387 
-0.14804 0.761746 -0.630735 -0.291494 0.798236 -0.527115 -0.42859 0.789713 -0.438935 
0.418158 0.448619 -0.789864 0.510972 0.411632 -0.75463 0.31747 0.418482 -0.850932 
0.132656 0.365333 -0.921376 0.0583923 0.373223 -0.925902 0.0405014 0.353328 -0.934622 
0.0511926 0.394278 -0.917564 -0.0139376 0.453726 -0.891032 -0.222309 0.582165 -0.782089 
-0.442892 0.787898 -0.42786 -0.416627 0.767141 -0.487767 -0.52862 0.759287 -0.379532 
0.554297 0.375505 -0.7428 0.485597 0.355684 -0.798551 0.244754 0.225315 -0.943042 
0.111721 0.175509 -0.978118 0.0451859 0.170801 -0.984269 0.0334243 0.139964 -0.989592 
0.0636355 0.157741 -0.985428 0.0466575 0.115954 -0.992158 -0.0539726 0.210877 -0.976021 
-0.190437 0.402821 -0.895248 -0.603126 0.715337 -0.35289 -0.438112 0.61088 -0.659456 
-0.64945 0.674568 -0.350961 0.675345 0.269847 -0.686361 0.727334 0.247599 -0.640062 
0.360081 0.206073 -0.909877 0.152073 0.123277 -0.980651 0.0827452 0.0505415 -0.995288 
0.0319171 -0.0105379 -0.999435 0.0305135 0.0254648 -0.99921 0.0495483 0.0196498 -0.998578 
0.0552779 -0.0346689 -0.997869 -0.236099 0.254111 -0.937915 -0.730303 0.574714 -0.369272 
-0.506289 0.479899 -0.716497 -0.78203 0.481731 -0.395429 0.739505 0.232505 -0.631723 
0.692898 0.216357 -0.68781 0.256795 0.0902539 -0.962242 0.0684036 0.0370579 -0.996969 
-0.0171674 -0.0268166 -0.999493 0.0186301 -0.0343716 -0.999235 0.0638148 0.0149842 -0.997849 
0.00121137 0.1 -0.994987 0.0166683 -0.0790982 -0.996727 0.113722 -0.119316 -0.986322 
-0.809175 0.39736 -0.432829 -0.724454 0.346089 -0.596145 0.727125 0.158117 -0.668048 
0.579356 0.107242 -0.807989 0.218691 0.00745662 -0.975766 0.0384967 -0.0281405 -0.998862 
0.0123853 -0.0494026 -0.998702 0.0778299 0.133283 -0.988017 0.163238 0.0217527 -0.986347 
-0.181967 0.160319 -0.970147 0.129912 -0.0766698 -0.988557 -0.260914 -0.0215752 -0.965121 
-0.841382 0.171184 -0.512614 -0.590651 0.0682217 -0.804038 0.725949 0.0986846 -0.680632 
0.482297 0.0799913 -0.872348 0.177215 0.0184386 -0.983999 0.0165773 -0.00509205 -0.99985 
0.12886 -0.0430953 -0.990726 -0.107925 0.0106355 -0.994102 0.170851 -0.168928 -0.970708 
-0.0781054 -0.0476852 -0.995804 0.131784 -0.137866 -0.981645 -0.224659 -0.124995 -0.966387 
-0.774549 -0.0623719 -0.629432 -0.535339 -0.101752 -0.838486 0.751603 0.0272938 -0.65905 
0.46322 0.0238112 -0.885923 0.148781 0.042988 -0.987935 -0.025599 0.0603107 -0.997851 
-0.0567078 0.0215497 -0.998158 0.110194 -0.231755 -0.966513 0.113796 -0.204827 -0.972161 
-0.0489201 -0.0813191 -0.995487 -0.0901545 -0.196632 -0.976324 -0.00556692 -0.0447527 -0.998983 
0.0636128 -0.160497 -0.984984 -0.0423022 -0.202149 -0.978441 -0.209762 -0.283755 -0.935673 
-0.651067 -0.220005 -0.726436 -0.523833 -0.214379 -0.824403 0.756159 -0.0593527 -0.65169 
0.498438 -0.0137312 -0.866817 0.204548 0.0281335 -0.978452 0.000772302 0.0379728 -0.999278 
-0.140564 0.091554 -0.985829 -0.105306 0.0228861 -0.994177 0.0630814 -0.119557 -0.990821 
0.109019 -0.119707 -0.986805 -0.00767681 -0.064909 -0.997862 -0.0595099 -0.0166627 -0.998089 
-0.0365952 -0.118735 -0.992251 -0.126943 -0.258519 -0.957629 -0.249031 -0.277953 -0.927753 
-0.5711 -0.391365 -0.721581 -0.557872 -0.40676 -0.723412 -0.534371 -0.389129 -0.750351 
0.757422 -0.17557 -0.628878 0.568685 -0.0991674 -0.816556 0.169884 -0.092222 -0.981139 
0.0351853 -0.0266505 -0.999025 -0.0749003 0.0175928 -0.997036 -0.121325 0.0546138 -0.991109 
-0.0301638 0.00699222 -0.999521 0.0346838 -0.111713 -0.993135 0.0192936 -0.145555 -0.989162 
-0.0617367 -0.148451 -0.986991 -0.177322 -0.226797 -0.957664 -0.340756 -0.515102 -0.786483 
-0.203458 -0.320069 -0.92529 -0.446841 -0.487305 -0.750245 -0.424006 -0.49834 -0.756225 
-0.390326 -0.456366 -0.79961 0.756228 -0.368306 -0.540804 0.7064 -0.452809 -0.544025 
0.66674 -0.365506 -0.64951 0.275551 -0.236029 -0.93186 0.109268 -0.173101 -0.978824 
-0.0567816 -0.13268 -0.989531 -0.120531 -0.0979641 -0.987864 -0.104638 -0.125639 -0.986542 
-0.0436498 -0.226304 -0.973078 -0.0509593 -0.299545 -0.95272 -0.174534 -0.55733 -0.811739 
-0.143621 -0.382523 -0.912715 -0.324669 -0.517424 -0.791747 -0.233605 -0.507866 -0.829157 
-0.203661 -0.422638 -0.883119 0.558141 -0.587797 -0.58564 0.507577 -0.616723 -0.60168 
0.472916 -0.550358 -0.688082 0.137396 -0.366069 -0.920389 -0.016449 -0.319896 -0.94731 
-0.0608578 -0.600155 -0.797565 -0.0980563 -0.311839 -0.945061 -0.181732 -0.62058 -0.762793 
-0.158745 -0.304888 -0.939065 -0.218808 -0.513862 -0.829499 -0.173304 -0.434803 -0.883692 
-0.172406 -0.567311 -0.805254 -0.17299 -0.567043 -0.805318 -0.170141 -0.561635 -0.809702 
0.266653 -0.730394 -0.628825 0.254105 -0.736025 -0.627453 0.252218 -0.723028 -0.64313 
-0.0508887 -0.612991 -0.78845 -0.0154122 -0.631148 -0.77551 -0.0213572 -0.612668 -0.790052 
0.00489752 0.113455 -0.993531 -0.106314 0.242279 -0.964364 0.0652289 -0.0259677 -0.997532 
0.0949536 -0.0591308 -0.993724 0.0822423 -0.0146846 -0.996504 -0.175648 0.210071 -0.961779 
-0.0520415 0.130469 -0.990086 -0.165971 0.207367 -0.964081 -0.297609 0.173616 -0.938769 
-0.0135061 0.071507 -0.997349 0.105498 -0.0842647 -0.990843 0.0945208 -0.0297842 -0.995077 
-0.0367391 0.128321 -0.991052 -0.30809 0.159914 -0.937821 -0.271649 0.0442952 -0.961376 
-0.288383 0.152758 -0.945251 0.109493 -0.00904342 -0.993946 0.0921381 0.0251829 -0.995428 
-0.115551 0.0898557 -0.989229 0.0883297 -0.109174 -0.99009 -0.0166595 0.0243729 -0.999564 
-0.144877 0.0998668 -0.984397 0.179265 -0.0614421 -0.98188 0.143468 -0.123981 -0.981858 
0.194912 -0.0544667 -0.979307 -0.242836 -0.0238611 -0.969774 -0.0479179 -0.040724 -0.998021 
0.12695 -0.063115 -0.989899 0.0221826 -0.0270876 -0.999387 0.126891 -0.105239 -0.986318 
0.129764 -0.0632454 -0.989526 0.09257 -0.125788 -0.987729 -0.0896756 -0.0259028 -0.995634 
-0.0856699 -0.124145 -0.988559 -0.102292 -0.0170219 -0.994609 0.100079 -0.14803 -0.983906 
-0.168501 -0.138115 -0.975977 -0.0101342 -0.182653 -0.983125 -0.00212412 -0.177919 -0.984043 

