# vtk DataFile Version 4.2
vtk output
ASCII
DATASET POLYDATA
POINTS 608 float
-48.9996 -31.9747 -11.7599 -41.4163 -31.9747 -11.2694 -33.833 -31.9747 -13.1032 
-26.2497 -31.9747 -13.1125 -18.6664 -31.9747 -12.8885 -11.0831 -31.9747 -12.8463 
-3.49981 -31.9747 -12.2869 4.08349 -31.9747 -12.1982 11.6668 -31.9747 -12.3309 
19.2501 -31.9747 -11.9372 26.8334 -31.9747 -12.418 34.4167 -31.9747 -11.0013 
-56.5829 -24.3914 -11.3532 -48.9996 -24.3914 -13.4542 -41.4163 -24.3914 -15.0622 
-33.833 -24.3914 -14.9637 -26.2497 -24.3914 -14.6465 -18.6664 -24.3914 -13.8874 
-11.0831 -24.3914 -13.7538 -3.49981 -24.3914 -13.3806 4.08349 -24.3914 -13.5646 
11.6668 -24.3914 -13.9187 19.2501 -24.3914 -13.5617 26.8334 -24.3914 -13.7886 
34.4167 -24.3914 -13.6298 42 -24.3914 -13.5774 49.5833 -24.3914 -11.2711 
-56.5829 -16.8081 -13.6218 -48.9996 -16.8081 -16.8705 -41.4163 -16.8081 -16.5122 
-33.833 -16.8081 -16.8055 -26.2497 -16.8081 -15.523 -18.6664 -16.8081 -14.1003 
-11.0831 -16.8081 -13.5308 -3.49981 -16.8081 -12.8854 4.08349 -16.8081 -13.5206 
11.6668 -16.8081 -13.7886 19.2501 -16.8081 -13.9074 26.8334 -16.8081 -14.0117 
34.4167 -16.8081 -14.4934 42 -16.8081 -14.9563 49.5833 -16.8081 -12.464 
-56.5829 -9.22482 -12.9559 -48.9996 -9.22482 -16.0193 -41.4163 -9.22482 -17.3281 
-33.833 -9.22482 -16.7143 -26.2497 -9.22482 -15.6649 -18.6664 -9.22482 -14.5889 
-11.0831 -9.22482 -14.0459 -3.49981 -9.22482 -13.7121 4.08349 -9.22482 -15.2452 
11.6668 -9.22482 -12.4319 19.2501 -9.22482 -13.154 26.8334 -9.22482 -13.8499 
34.4167 -9.22482 -13.7434 42 -9.22482 -13.5369 49.5833 -9.22482 -11.3573 
-56.5829 -1.64152 -13.1709 -48.9996 -1.64152 -16.0953 -41.4163 -1.64152 -17.3764 
-33.833 -1.64152 -16.7064 -26.2497 -1.64152 -15.642 -18.6664 -1.64152 -14.522 
-11.0831 -1.64152 -16.8481 -3.49981 -1.64152 -13.778 4.08349 -1.64152 -13.4808 
11.6668 -1.64152 -14.4149 19.2501 -1.64152 -12.4825 26.8334 -1.64152 -12.2877 
34.4167 -1.64152 -11.9172 42 -1.64152 -11.2119 49.5833 -1.64152 -10.6357 
-56.5829 5.94178 -13.6588 -48.9996 5.94178 -15.7618 -41.4163 5.94178 -16.9067 
-33.833 5.94178 -16.4485 -26.2497 5.94178 -15.3631 -18.6664 5.94178 -14.2482 
-11.0831 5.94178 -16.4645 -3.49981 5.94178 -16.3663 4.08349 5.94178 -16.0084 
11.6668 5.94178 -15.7976 19.2501 5.94178 -12.1441 26.8334 5.94178 -11.7316 
34.4167 5.94178 -11.1166 -56.5829 13.5251 -13.2165 -48.9996 13.5251 -17.7259 
-41.4163 13.5251 -16.6269 -33.833 13.5251 -16.5363 -26.2497 13.5251 -16.3031 
-18.6664 13.5251 -15.5167 -11.0831 13.5251 -14.8821 -3.49981 13.5251 -15.3229 
4.08349 13.5251 -16.3116 11.6668 13.5251 -14.5541 19.2501 13.5251 -13.1394 
26.8334 13.5251 -12.7864 34.4167 13.5251 -11.8177 42 13.5251 -10.7363 
-56.5829 21.1084 -11.3685 -48.9996 21.1084 -15.8588 -41.4163 21.1084 -16.0108 
-33.833 21.1084 -17.3949 -26.2497 21.1084 -16.5083 -18.6664 21.1084 -16.0028 
-11.0831 21.1084 -16.0303 -3.49981 21.1084 -15.6628 4.08349 21.1084 -15.4355 
11.6668 21.1084 -14.3278 19.2501 21.1084 -13.889 26.8334 21.1084 -13.5768 
34.4167 21.1084 -12.5301 42 21.1084 -10.3198 -48.9996 28.6917 -12.1181 
-41.4163 28.6917 -16.264 -33.833 28.6917 -15.7213 -26.2497 28.6917 -16.8948 
-18.6664 28.6917 -16.1294 -11.0831 28.6917 -16.4714 -3.49981 28.6917 -16.1767 
4.08349 28.6917 -15.5396 11.6668 28.6917 -13.9998 19.2501 28.6917 -13.396 
26.8334 28.6917 -12.8335 34.4167 28.6917 -12.2336 42 28.6917 -11.8729 
-41.4163 36.275 -12.8721 -33.833 36.275 -14.0739 -26.2497 36.275 -14.5885 
-18.6664 36.275 -15.1627 -11.0831 36.275 -16.2963 -3.49981 36.275 -16.1232 
4.08349 36.275 -14.1958 11.6668 36.275 -12.7918 19.2501 36.275 -11.7477 
34.4167 36.275 -10.9984 -26.2497 43.8583 -11.2252 -18.6664 43.8583 -11.5258 
-11.0831 43.8583 -12.277 -3.49981 43.8583 -11.951 -48.9996 -33.8478 -10.2939 
-41.4163 -33.9654 -10.2939 -41.4163 -39.558 -7.01723 -33.833 -37.6984 -10.2939 
-33.833 -39.558 -9.23111 -26.2497 -37.2956 -10.2939 -26.2497 -39.558 -8.74074 
-18.6664 -38.3739 -10.2939 -18.6664 -39.558 -9.73456 -11.0831 -38.4068 -10.2939 
-11.0831 -39.558 -9.74453 -3.49981 -36.5609 -10.2939 -3.49981 -39.558 -8.6618 
4.08349 -35.8711 -10.2939 4.08349 -39.558 -7.86098 11.6668 -35.9205 -10.2939 
11.6668 -39.558 -7.68122 19.2501 -35.1907 -10.2939 19.2501 -39.558 -7.08871 
26.8334 -35.5359 -10.2939 26.8334 -39.558 -6.70553 34.4167 -33.2155 -10.2939 
34.4167 -39.558 -5.2523 42 -39.558 -2.73652 -51.6205 -31.9747 -10.2939 
-56.5829 -26.2302 -10.2939 -56.5829 -31.9747 -4.87789 40.9153 -31.9747 -10.2939 
42 -31.7317 -10.2939 42 -31.9747 -10.1854 49.5833 -27.8294 -10.2939 
49.5833 -31.9747 -8.8933 57.1666 -31.9747 -4.24626 -57.9543 -24.3914 -10.2939 
52.6222 -24.3914 -10.2939 57.1666 -24.3914 -8.87025 -61.2265 -16.8081 -10.2939 
-64.1662 -16.8081 -4.53464 54.6405 -16.8081 -10.2939 57.1666 -16.8081 -9.02569 
64.7499 -16.8081 -3.97196 -60.2656 -9.22482 -10.2939 53.4217 -9.22482 -10.2939 
57.1666 -9.22482 -9.05476 64.7499 -9.22482 -3.68299 -60.4831 -1.64152 -10.2939 
-64.1662 -1.64152 -3.31926 42 5.57818 -10.2939 50.2689 -1.64152 -10.2939 
49.5833 0.215253 -10.2939 57.1666 -1.64152 -6.86576 -60.5466 5.94178 -10.2939 
41.6014 5.94178 -10.2939 42 6.67667 -10.2939 42 5.94178 -10.2474 
49.5833 5.94178 -8.97749 57.1666 5.94178 -5.5573 -60.364 13.5251 -10.2939 
43.1986 13.5251 -10.2939 49.5833 13.5251 -7.64399 57.1666 13.5251 -5.18674 
-57.856 21.1084 -10.2939 -56.5829 24.2702 -10.2939 42.1018 21.1084 -10.2939 
49.5833 21.1084 -8.00939 57.1666 21.1084 -4.05134 -52.6697 28.6917 -10.2939 
-56.5829 28.6917 -6.27152 -48.9996 32.6617 -10.2939 26.8334 35.324 -10.2939 
45.7392 28.6917 -10.2939 42 32.5534 -10.2939 49.5833 28.6917 -8.23289 
-46.545 36.275 -10.2939 -48.9996 36.275 -7.05666 -41.4163 39.8527 -10.2939 
-33.833 41.459 -10.2939 4.08349 43.2064 -10.2939 11.6668 41.251 -10.2939 
25.0552 36.275 -10.2939 19.2501 38.6423 -10.2939 29.1887 36.275 -10.2939 
26.8334 36.275 -9.89657 36.6641 36.275 -10.2939 34.4167 37.3415 -10.2939 
42 36.275 -7.95149 49.5833 36.275 -2.99433 -29.1207 43.8583 -10.2939 
-33.833 43.8583 -6.05039 -26.2497 44.7355 -10.2939 -18.6664 45.0823 -10.2939 
-11.0831 46.3526 -10.2939 2.72113 43.8583 -10.2939 -3.49981 45.9702 -10.2939 
4.08349 43.8583 -9.69095 11.6668 43.8583 -7.17915 19.2501 43.8583 -5.42162 
26.8334 43.8583 -3.54644 34.4167 43.8583 -3.38632 -41.4163 -42.6066 -2.71056 
-33.833 -44.4587 -2.71056 -26.2497 -45.8754 -2.71056 -18.6664 -46.7008 -2.71056 
-18.6664 -47.1413 4.23904 -11.0831 -46.1242 -2.71056 -3.49981 -44.6732 -2.71056 
4.08349 -43.4296 -2.71056 11.6668 -43.0207 -2.71056 19.2501 -42.5344 -2.71056 
26.8334 -41.8223 -2.71056 34.4167 -41.1038 -2.71056 42 -39.5736 -2.71056 
-56.5829 -33.8969 -2.71056 -47.9121 -39.558 -2.71056 -48.9996 -38.9789 -2.71056 
42.0784 -39.558 -2.71056 49.5833 -37.8272 -2.71056 57.1666 -33.1735 -2.71056 
-58.161 -31.9747 -2.71056 58.7375 -31.9747 -2.71056 -62.7922 -24.3914 -2.71056 
-64.1662 -19.5079 -2.71056 64.3585 -24.3914 -2.71056 64.7499 -21.6488 -2.71056 
64.7499 -24.3914 0.63972 -64.9357 -16.8081 -2.71056 -64.1662 -10.0503 -2.71056 
-64.1662 -16.8081 -0.653724 65.3901 -16.8081 -2.71056 -64.0617 -9.22482 -2.71056 
-64.1662 -6.76875 -2.71056 65.6598 -9.22482 -2.71056 64.7499 -7.1604 -2.71056 
-64.3545 -1.64152 -2.71056 -64.1662 -0.695638 -2.71056 -64.1662 -1.64152 -2.33279 
62.2589 -1.64152 -2.71056 64.7499 -1.64152 2.46825 -62.8386 5.94178 -2.71056 
60.7178 5.94178 -2.71056 -63.0639 13.5251 -2.71056 58.3063 13.5251 -2.71056 
-60.5885 21.1084 -2.71056 58.001 21.1084 -2.71056 57.1666 23.2748 -2.71056 
-58.1637 28.6917 -2.71056 -56.5829 30.9939 -2.71056 -56.5829 28.6917 0.461793 
55.3619 28.6917 -2.71056 57.1666 28.6917 3.0484 -51.7353 36.275 -2.71056 
-48.9996 38.3102 -2.71056 -48.9996 36.275 2.23797 -41.4163 43.4069 -2.71056 
42 41.0132 -2.71056 49.9395 36.275 -2.71056 49.5833 36.6093 -2.71056 
-39.4011 43.8583 -2.71056 -33.833 44.9448 -2.71056 -33.833 43.8583 0.564572 
-26.2497 46.8961 -2.71056 -18.6664 48.2677 -2.71056 -11.0831 49.1631 -2.71056 
-3.49981 49.0631 -2.71056 4.08349 47.6258 -2.71056 11.6668 46.1371 -2.71056 
11.6668 43.8583 4.32558 19.2501 45.2955 -2.71056 26.8334 44.3506 -2.71056 
35.6135 43.8583 -2.71056 34.4167 44.2795 -2.71056 -18.6664 -47.1755 4.87274 
-41.4163 -41.838 4.87274 -33.833 -44.498 4.87274 -19.3408 -47.1413 4.87274 
-26.2497 -46.7312 4.87274 -17.9381 -47.1413 4.87274 -18.6664 -47.1413 4.9422 
-11.0831 -46.7926 4.87274 -3.49981 -45.2064 4.87274 4.08349 -43.6488 4.87274 
11.6668 -42.8433 4.87274 19.2501 -42.0128 4.87274 26.8334 -41.1268 4.87274 
34.4167 -40.1177 4.87274 42 -39.6948 4.87274 -56.5829 -32.3311 4.87274 
-47.403 -39.558 4.87274 -48.9996 -38.7593 4.87274 -41.4163 -39.558 8.08507 
-33.833 -39.558 9.82874 -26.2497 -39.558 11.9228 -3.49981 -39.558 12.1656 
4.08349 -39.558 10.4989 11.6668 -39.558 9.26488 19.2501 -39.558 8.21222 
26.8334 -39.558 7.5361 34.4167 -39.558 5.89213 42.4689 -39.558 4.87274 
42 -39.558 5.08519 49.5833 -36.7518 4.87274 57.1666 -34.2421 4.87274 
-56.8589 -31.9747 4.87274 -56.5829 -31.9747 5.14373 -48.9996 -31.9747 10.782 
-41.4163 -31.9747 12.2353 42 -31.9747 11.4395 49.5833 -31.9747 11.1053 
60.2344 -31.9747 4.87274 57.1666 -31.9747 7.99034 64.7499 -25.2972 4.87274 
-60.4165 -24.3914 4.87274 -56.5829 -24.3914 9.34265 -48.9996 -24.3914 11.9093 
65.2132 -24.3914 4.87274 64.7499 -24.3914 5.48476 -60.8205 -16.8081 4.87274 
-56.5829 -16.8081 8.46326 -48.9996 -16.8081 12.1968 57.1666 -16.8081 12.2574 
67.3194 -16.8081 4.87274 64.7499 -16.8081 8.71251 -58.6973 -9.22482 4.87274 
-56.5829 -9.22482 6.6558 -48.9996 -9.22482 11.217 67.7041 -9.22482 4.87274 
64.7499 -9.22482 9.87545 -57.8922 -1.64152 4.87274 -56.5829 -1.64152 5.91436 
-48.9996 -1.64152 10.6645 65.7731 -1.64152 4.87274 64.7499 4.12173 4.87274 
64.7499 -1.64152 7.00797 -58.597 5.94178 4.87274 -56.5829 5.94178 6.63532 
-48.9996 5.94178 9.68034 64.4066 5.94178 4.87274 57.1666 5.94178 11.9641 
-59.0578 13.5251 4.87274 -56.5829 13.5251 6.99137 -48.9996 13.5251 9.80556 
62.5259 13.5251 4.87274 -56.8002 21.1084 4.87274 -56.5829 21.8355 4.87274 
[...]
POINT_DATA 608
SCALARS ImageScalars float
LOOKUP_TABLE default
0 0 0 0 0 0 0 0 0 
0 0 0 0 0 0 0 0 0 
0 0 0 0 0 0 0 0 0 
0 0 0 0 0 0 0 0 0 
0 0 0 0 0 0 0 0 0 
0 0 0 0 0 0 0 0 0 
0 0 0 0 0 0 0 0 0 
0 0 0 0 0 0 0 0 0 
0 0 0 0 0 0 0 0 0 
0 0 0 0 0 0 0 0 0 
0 0 0 0 0 0 0 0 0 
0 0 0 0 0 0 0 0 0 
0 0 0 0 0 0 0 0 0 
0 0 0 0 0 0 0 0 0 
0 0 0 0 0 0 0 0 0 
0 0 0 0 0 0 0 0 0 
0 0 0 0 0 0 0 0 0 
0 0 0 0 0 0 0 0 0 
0 0 0 0 0 0 0 0 0 
0 0 0 0 0 0 0 0 0 
0 0 0 0 0 0 0 0 0 
0 0 0 0 0 0 0 0 0 
0 0 0 0 0 0 0 0 0 
0 0 0 0 0 0 0 0 0 
0 0 0 0 0 0 0 0 0 
0 0 0 0 0 0 0 0 0 
0 0 0 0 0 0 0 0 0 
0 0 0 0 0 0 0 0 0 
0 0 0 0 0 0 0 0 0 
0 0 0 0 0 0 0 0 0 
0 0 0 0 0 0 0 0 0 
0 0 0 0 0 0 0 0 0 
0 0 0 0 0 0 0 0 0 
0 0 0 0 0 0 0 0 0 
0 0 0 0 0 0 0 0 0 
0 0 0 0 0 0 0 0 0 
0 0 0 0 0 0 0 0 0 
0 0 0 0 0 0 0 0 0 
0 0 0 0 0 0 0 0 0 
0 0 0 0 0 0 0 0 0 
0 0 0 0 0 0 0 0 0 
0 0 0 0 0 0 0 0 0 
0 0 0 0 0 0 0 0 0 
0 0 0 0 0 0 0 0 0 
0 0 0 0 0 0 0 0 0 
0 0 0 0 0 0 0 0 0 
0 0 0 0 0 0 0 0 0 
0 0 0 0 0 0 0 0 0 
0 0 0 0 0 0 0 0 0 
0 0 0 0 0 0 0 0 0 
0 0 0 0 0 0 0 0 0 
0 0 0 0 0 0 0 0 0 
0 0 0 0 0 0 0 0 0 
0 0 0 0 0 0 0 0 0 
0 0 0 0 0 0 0 0 0 
0 0 0 0 0 0 0 0 0 
0 0 0 0 0 0 0 0 0 
0 0 0 0 0 0 0 0 0 
0 0 0 0 0 0 0 0 0 
0 0 0 0 0 0 0 0 0 
0 0 0 0 0 0 0 0 0 
0 0 0 0 0 0 0 0 0 
0 0 0 0 0 0 0 0 0 
0 0 0 0 0 0 0 0 0 
0 0 0 0 0 0 0 0 0 
0 0 0 0 0 0 0 0 0 
0 0 0 0 0 0 0 0 0 
0 0 0 0 0 
NORMALS Normals float
0.22715 0.467975 0.854051 0.0656644 0.47287 0.878682 0.11202 0.374695 0.920356 
-0.0131388 0.324705 0.945724 -0.0186575 0.235789 0.971625 -0.0384907 0.230055 0.972416 
-0.0403466 0.256145 0.965796 0.00253611 0.298373 0.954446 -0.0166287 0.328851 0.944236 
0.00226218 0.336516 0.941675 -0.049499 0.362129 0.930813 -0.130826 0.413999 0.900827 
0.444395 0.403843 0.79964 0.2519 0.320909 0.912997 0.0794768 0.281201 0.956352 
-0.0284803 0.2269 0.973502 -0.0694428 0.168377 0.983274 -0.0576064 0.0766978 0.995389 
-0.0332293 0.0420195 0.998564 -0.0126729 0.0359127 0.999275 0.0353191 0.0809124 0.996095 
-0.000502705 0.0886136 0.996066 -0.00857828 0.12008 0.992727 0.00473056 0.0922551 0.995724 
-0.0127847 0.193744 0.980969 -0.154242 0.300569 0.941205 -0.262017 0.18174 0.947796 
0.448573 0.101744 0.887936 0.205636 0.122216 0.970967 -0.00108745 0.160894 0.986971 
-0.0662248 0.106599 0.992094 -0.174923 0.0653963 0.982408 -0.130254 0.0439227 0.990507 
-0.080805 0.0170862 0.996583 -0.00242683 0.0158398 0.999872 0.0606058 0.0988778 0.993252 
0.0249356 -0.0971442 0.994958 0.0147207 -0.0268211 0.999532 0.0384697 0.0034945 0.999254 
0.0605857 0.00757723 0.998134 -0.121755 -0.00843778 0.992524 -0.330874 0.00384569 0.943667 
0.548091 -0.043175 0.835304 0.228604 -0.0386921 0.97275 0.062148 0.0567779 0.996451 
-0.107968 -0.00635731 0.994134 -0.134686 0.00775408 0.990858 -0.107115 0.0284545 0.993839 
-0.0552451 0.199707 0.978297 0.073292 0.0618658 0.99539 -0.101147 0.015164 0.994756 
-0.119168 0.0298871 0.992424 0.091827 -0.0914778 0.991564 0.039014 -0.103897 0.993823 
-0.0199944 -0.16819 0.985552 -0.147642 -0.23284 0.961243 -0.259555 -0.119032 0.958365 
0.550794 0.0525216 0.832987 0.22114 -0.0183634 0.975069 0.0574823 -0.0278362 0.997958 
-0.112463 -0.0173946 0.993504 -0.142815 -0.01969 0.989554 0.0568464 -0.0221469 0.998137 
-0.0014669 0.167802 0.98582 -0.249303 0.19667 0.948245 0.0479309 0.0465014 0.997768 
-0.0780075 0.224851 0.971266 -0.12957 -0.0667779 0.989319 -0.0381452 -0.147351 0.988348 
-0.0680331 -0.172436 0.982669 -0.085785 -0.207458 0.974475 -0.296571 -0.13845 0.944922 
0.523066 -0.00625765 0.852269 0.211858 0.068386 0.974905 0.0581643 -0.0490553 0.997101 
-0.100602 -0.0111667 0.994864 -0.143724 0.0376003 0.988903 0.0322975 0.0631465 0.997482 
0.16516 -0.147637 0.975154 -0.0281552 0.0702883 0.997129 -0.036392 0.174801 0.983931 
-0.256415 0.00613488 0.966547 -0.244038 0.0442344 0.968756 -0.0649542 0.034998 0.997274 
-0.0986279 -0.00654787 0.995103 0.541231 -0.154687 0.826523 0.232363 0.0532164 0.971172 
-0.0612456 -0.0587893 0.99639 -0.019758 0.0606377 0.997964 -0.0685966 0.0785729 0.994546 
-0.0903221 0.117579 0.988947 -0.0119004 0.000239767 0.999929 0.0919755 -0.0364313 0.995095 
-0.0457227 -0.042316 0.998057 -0.209454 -0.0898268 0.973684 -0.110543 0.111833 0.987559 
-0.0861422 0.124484 0.988475 -0.130796 0.0921213 0.98712 -0.247265 0.00532176 0.968933 
0.629143 -0.275233 0.726929 0.34924 -0.324202 0.879161 0.0985605 -0.0267701 0.994771 
0.0309879 -0.0502221 0.998257 -0.0896603 0.0360054 0.995321 -0.0314785 0.0394531 0.998725 
-0.0224399 0.104484 0.994273 -0.0390615 0.0584152 0.997528 -0.0874181 -0.0479101 0.995019 
-0.102564 -0.0355034 0.994093 -0.0492991 0.0175964 0.998629 -0.0893268 0.00336654 0.995997 
-0.207999 0.0283059 0.977719 -0.249504 0.0943121 0.96377 0.410348 -0.349662 0.84223 
0.17102 -0.209489 0.962739 0.0447529 -0.193606 0.980058 0.0249172 -0.141285 0.989655 
-0.0250059 -0.0496978 0.998451 0.00169986 0.0191994 0.999814 -0.0581929 0.0298527 0.997859 
-0.146238 -0.0723683 0.986599 -0.136704 -0.103218 0.98522 -0.0776507 -0.123244 0.989334 
-0.0706227 -0.200944 0.977054 -0.0723247 -0.117647 0.990418 -0.222111 -0.09586 0.970298 
0.226546 -0.526903 0.819177 0.125141 -0.426857 0.895619 0.0593177 -0.329757 0.9422 
0.11268 -0.256441 0.959969 0.0585517 -0.253267 0.965623 -0.12286 -0.250802 0.96021 
-0.214705 -0.299534 0.929614 -0.140847 -0.293839 0.945421 -0.182407 -0.384404 0.904965 
-0.0972492 -0.433141 0.896064 0.167732 -0.726508 0.666372 0.0716019 -0.671415 0.737614 
0.0183289 -0.607114 0.794403 -0.124853 -0.607648 0.784331 0.273313 0.552982 0.78709 
0.110438 0.536601 0.836578 0.344777 0.766366 0.542044 0.0854449 0.541167 0.836563 
0.0755408 0.633547 0.770007 0.0167632 0.499966 0.865883 0.0322662 0.60942 0.79219 
0.0436911 0.464555 0.884466 0.0592572 0.526174 0.84831 -0.052528 0.479159 0.876155 
-0.0579447 0.541018 0.839013 -0.0694636 0.448343 0.891158 -0.10208 0.63524 0.765539 
-0.0181434 0.474852 0.879879 -0.0536311 0.728183 0.683281 -0.022756 0.504575 0.863068 
-0.0375633 0.764117 0.643983 -0.0121532 0.480617 0.876847 -0.0444507 0.794847 0.605179 
-0.0647246 0.533987 0.843012 -0.0793193 0.842797 0.532355 -0.135633 0.477061 0.868341 
-0.169536 0.902753 0.395341 -0.196111 0.932753 0.30251 0.324057 0.534072 0.780868 
0.46343 0.471045 0.750566 0.673352 0.654609 0.343633 -0.111263 0.466714 0.877382 
-0.110676 0.467921 0.876813 -0.110254 0.476998 0.871962 -0.281887 0.33923 0.897476 
-0.322182 0.588754 0.741328 -0.548635 0.692622 0.468267 0.518773 0.401683 0.754669 
-0.27315 0.205905 0.939677 -0.370178 0.247882 0.895278 0.713158 0.131067 0.688641 
0.983908 0.106016 0.143824 -0.362701 0.0204728 0.931681 -0.433339 0.0134364 0.901131 
-0.855596 0.0386298 0.516201 0.767951 -0.0491972 0.638616 -0.366946 -0.148768 0.918269 
-0.486486 -0.168128 0.857359 -0.753052 -0.193007 0.629016 0.782403 0.0140658 0.622613 
0.994079 -0.0898241 -0.0611513 -0.127297 -0.0405409 0.991036 -0.306808 -0.150822 0.939745 
-0.311117 -0.151274 0.938255 -0.480122 -0.206256 0.852608 0.824967 -0.00815943 0.565122 
-0.128109 -0.0306281 0.991287 -0.141449 -0.0284411 0.989537 -0.130159 -0.0321 0.990973 
-0.348809 -0.187655 0.918214 -0.511943 -0.104395 0.852652 0.786776 -0.1574 0.596832 
-0.242421 -0.00357479 0.970165 -0.305373 -0.0651351 0.950003 -0.683624 -0.0748752 0.725983 
0.680022 -0.31291 0.663066 0.656373 -0.394469 0.643093 -0.249755 0.0939503 0.963741 
-0.372309 0.0435525 0.927087 -0.736103 -0.223148 0.639028 0.543328 -0.447346 0.710406 
0.822858 -0.51849 0.232535 0.533737 -0.514809 0.670892 -0.0324952 -0.41482 0.909323 
-0.373835 -0.196751 0.906386 -0.362221 -0.28098 0.888733 -0.548858 -0.282149 0.786859 
0.511517 -0.615665 0.599423 0.619248 -0.733398 0.280462 0.317809 -0.684258 0.656345 
0.229669 -0.69032 0.686084 -0.208406 -0.659717 0.722039 -0.169514 -0.603695 0.778985 
-0.0681825 -0.433719 0.898465 -0.197843 -0.495783 0.84561 -0.0504166 -0.445693 0.893765 
-0.0331413 -0.463044 0.885715 -0.210178 -0.450164 0.867858 -0.0931681 -0.488371 0.867648 
-0.460126 -0.540608 0.704292 -0.566869 -0.660621 0.492179 0.198745 -0.761577 0.616848 
0.254416 -0.927978 0.272266 0.168405 -0.789977 0.589556 0.0960673 -0.73639 0.669702 
0.0503119 -0.722307 0.68974 -0.20065 -0.676972 0.70813 -0.156221 -0.694189 0.702636 
-0.217054 -0.724919 0.653743 -0.182171 -0.87302 0.452382 -0.13245 -0.898277 0.418994 
-0.0807944 -0.935805 0.343135 -0.19209 -0.907627 0.37325 0.335285 0.902383 0.270718 
0.20531 0.922093 0.328012 0.14234 0.914135 0.3796 0.0122768 0.937867 0.346778 
0.00267834 0.984253 -0.176745 -0.122295 0.930783 0.344509 -0.164945 0.923741 0.34568 
-0.104723 0.94192 0.319092 -0.0584744 0.957134 0.283682 -0.0816641 0.959607 0.26923 
-0.0963157 0.968274 0.230585 -0.153977 0.959279 0.236802 -0.195755 0.933373 0.300823 
0.693816 0.688251 0.211968 0.42243 0.858476 0.290812 0.435531 0.854164 0.284107 
-0.197655 0.932859 0.301175 -0.389905 0.869235 0.303981 -0.546285 0.758944 0.354368 
0.749891 0.64082 0.164357 -0.617908 0.697018 0.363807 0.924996 0.370947 0.0823481 
0.98236 0.183074 0.0381299 -0.913241 0.324309 0.246606 -0.920674 0.245641 0.303346 
-0.924884 0.380091 -0.0109643 0.996501 0.0831485 0.00846296 0.997571 -0.0249581 -0.0650341 
0.985549 0.0679425 -0.155168 -0.903107 0.0861676 0.420682 0.996298 -0.0401165 -0.0760262 
0.99485 -0.0549576 -0.0851653 -0.804589 -0.175888 0.567186 -0.792267 -0.223991 0.567574 
0.990409 -0.089473 -0.105284 0.990373 -0.0885355 -0.106409 0.988079 -0.091871 -0.123534 
-0.762311 -0.256825 0.594073 -0.956593 -0.258782 0.134024 0.990072 -0.0702444 -0.121752 
-0.70542 -0.248416 0.663832 0.986809 -0.137514 -0.0854332 -0.803071 -0.180582 0.567862 
0.951237 -0.299122 -0.0753194 -0.804053 -0.198192 0.560552 -0.80497 -0.268046 0.529316 
0.889629 -0.455488 -0.0330275 0.839235 -0.543354 -0.0212297 0.827791 -0.468129 -0.309221 
-0.808005 -0.362747 0.464266 -0.85873 -0.512427 -0.00129618 0.644629 -0.764431 0.009967 
0.581942 -0.81301 0.0189188 0.565877 -0.717067 -0.406938 0.370153 -0.92897 0.00125717 
-0.390406 -0.888399 0.241518 -0.578904 -0.665293 0.471439 -0.56809 -0.675399 0.470223 
0.329054 -0.944304 0.00375524 0.23265 -0.972554 -0.00368097 0.230591 -0.940212 -0.250656 
0.21216 -0.976457 -0.0389952 0.15311 -0.986104 -0.0644743 0.0530589 -0.993981 -0.0958424 
-0.104171 -0.991689 -0.0755033 -0.181812 -0.982892 0.0294439 -0.178273 -0.980995 0.0766008 
0.00729972 -0.866732 -0.49872 -0.114219 -0.973471 0.198261 -0.0723588 -0.956598 0.282286 
-0.232833 -0.922309 0.308438 -0.202054 -0.92496 0.321904 0.00189115 0.975263 -0.221041 
0.334389 0.873996 -0.352584 0.279054 0.899405 -0.336452 0.0147742 0.974708 -0.222994 
0.150582 0.956876 -0.24842 -0.00990985 0.974126 -0.225788 0.00163761 0.97413 -0.225981 
-0.117564 0.955866 -0.269257 -0.195585 0.952903 -0.23178 -0.148352 0.949813 -0.275402 
-0.107319 0.93814 -0.329204 -0.105344 0.928831 -0.355211 -0.126145 0.93208 -0.339579 
-0.0930204 0.940984 -0.325417 -0.173168 0.931541 -0.319756 0.669928 0.562079 -0.48504 
0.42327 0.822479 -0.379962 0.460931 0.795266 -0.39382 0.298894 0.736145 -0.60725 
0.193206 0.657703 -0.728079 0.196804 0.489149 -0.849706 -0.154944 0.527656 -0.835208 
-0.141981 0.66883 -0.729731 -0.110655 0.748453 -0.653891 -0.0764912 0.805656 -0.587425 
-0.094692 0.845397 -0.525677 -0.0983312 0.912891 -0.396183 -0.183686 0.928294 -0.32331 
-0.174806 0.926098 -0.334342 -0.352036 0.848638 -0.394821 -0.450904 0.840259 -0.301081 
0.679609 0.552951 -0.482055 0.664753 0.552243 -0.503121 0.415081 0.392845 -0.820598 
0.227392 0.326818 -0.917324 -0.0761513 0.517486 -0.852297 -0.170329 0.550791 -0.817078 
-0.672809 0.668905 -0.316059 -0.50939 0.724791 -0.463897 -0.844328 0.427254 -0.323365 
0.863382 0.209603 -0.458954 0.5918 0.210629 -0.77808 0.326701 0.0695197 -0.942568 
-0.855349 0.414912 -0.310204 -0.831358 0.422169 -0.361411 0.74029 -0.0628956 -0.669339 
0.6335 -0.1417 -0.760657 0.317043 -0.045603 -0.947314 -0.39061 0.0154664 -0.920426 
-0.964339 0.159707 -0.211052 -0.852251 0.224815 -0.472363 0.738252 -0.122506 -0.663307 
0.623232 -0.129676 -0.771211 0.423443 -0.109414 -0.899291 -0.982024 -0.106812 -0.155631 
-0.854016 -0.048828 -0.51795 0.699383 0.0100085 -0.714677 0.63171 0.0144619 -0.77507 
0.374812 -0.0982097 -0.921884 -0.973613 -0.223409 -0.0465445 -0.97539 -0.215468 -0.0467732 
-0.957306 -0.232661 -0.171565 0.675671 0.0552853 -0.735128 0.575529 0.0583738 -0.815695 
0.38403 -0.0594346 -0.921406 -0.975317 -0.212129 -0.061298 -0.561982 0.0219505 -0.826858 
0.706743 -0.110645 -0.698764 0.550202 -0.098736 -0.829174 0.372911 -0.00210363 -0.927865 
-0.982128 -0.188038 0.00812879 0.663145 -0.261855 -0.701192 0.65642 -0.274476 -0.702691 
0.65303 -0.259977 -0.711311 0.478832 -0.127248 -0.868636 -0.947287 -0.312348 -0.0713237 
-0.538839 -0.295145 -0.789013 0.592205 -0.351405 -0.725126 0.522054 -0.50436 -0.687808 
0.524626 -0.324418 -0.787096 0.285068 -0.281569 -0.916218 -0.103841 -0.246174 -0.963647 
0.00221984 -0.157863 -0.987458 0.104417 -0.174413 -0.979121 -0.837037 -0.528495 -0.141639 
-0.821749 -0.55105 -0.145161 -0.824559 -0.532244 -0.191882 0.431425 -0.616776 -0.658376 
0.327808 -0.687171 -0.648335 0.314483 -0.597537 -0.737597 0.228254 -0.747978 -0.623241 
0.187102 -0.544344 -0.81773 0.0632378 -0.446578 -0.892507 -0.0189505 -0.456142 -0.889705 
-0.0210079 -0.377917 -0.925601 0.0282653 -0.34649 -0.937628 0.0866318 -0.355545 -0.930636 
0.0227638 -0.841978 -0.539032 0.0874672 -0.468195 -0.879285 0.00413552 -0.424977 -0.905195 
-0.0689581 -0.454865 -0.887887 -0.130506 -0.502351 -0.854759 -0.299965 -0.877826 -0.37342 
-0.210195 -0.647218 -0.732753 -0.636916 -0.724583 -0.263282 -0.53732 -0.798756 -0.270694 
-0.515254 -0.746204 -0.421536 0.11072 -0.815576 -0.567958 0.0964435 -0.821747 -0.561632 
0.0958341 -0.807768 -0.581659 0.00361321 -0.742392 -0.669956 0.00351772 -0.742135 -0.670241 
0.0228089 -0.688112 -0.725246 0.020768 -0.675476 -0.73709 -0.0107089 -0.685401 -0.728087 
-0.007489 -0.670606 -0.741776 -0.00783983 -0.810152 -0.586168 -0.0369496 -0.775561 -0.630191 
-0.0348682 -0.768247 -0.639203 0.0239768 -0.865705 -0.49998 0.0283026 -0.91743 -0.39689 
0.0367705 -0.898338 -0.437763 -0.0248443 -0.938657 -0.343956 -0.02244 -0.924264 -0.381095 
-0.176613 -0.9235 -0.340524 -0.171066 -0.924528 -0.340563 -0.171367 -0.919369 -0.354111 
0.0726595 0.492506 -0.867271 -0.0638101 0.560437 -0.825735 0.13912 0.447787 -0.883251 
0.149399 0.453764 -0.878509 0.168329 0.418342 -0.892555 0.0803012 0.438505 -0.895134 
-0.134614 0.512164 -0.848273 -0.0527413 0.493445 -0.868177 -0.146837 0.490804 -0.858808 
-0.100243 0.44361 -0.890596 -0.0847857 0.44565 -0.891183 -0.0774094 0.409884 -0.908847 
-0.0475091 0.379095 -0.924137 -0.0851436 0.376807 -0.92237 0.215854 0.318589 -0.922989 
0.224892 0.30681 -0.92482 0.12518 0.284036 -0.950607 0.0919737 0.202579 -0.974937 
0.0594891 0.191161 -0.979754 -0.0656022 0.171688 -0.982965 -0.0818331 0.22465 -0.970997 
-0.0606365 0.260815 -0.963482 -0.0580384 0.305227 -0.950509 -0.0853538 0.339619 -0.936682 
-0.0477285 0.355038 -0.933633 -0.0843055 0.377178 -0.922296 -0.0847134 0.37552 -0.922935 
-0.0597711 0.449079 -0.89149 -0.153496 0.413623 -0.897416 -0.391513 0.248467 -0.885992 
0.305285 0.0728865 -0.949468 0.231494 0.134385 -0.96351 0.0272933 0.131782 -0.990903 
0.0268431 0.100199 -0.994605 0.0278015 -0.0428511 -0.998695 -0.00230733 -0.0207381 -0.999782 
-0.0471904 0.0192534 -0.9987 -0.0408874 0.0291665 -0.998738 -0.0293956 0.0853985 -0.995913 
0.0054514 0.116421 -0.993185 -0.0112564 0.177544 -0.984048 0.0273416 0.224781 -0.974026 
-0.0665867 0.279635 -0.957795 -0.199871 0.323136 -0.925005 -0.388874 0.202497 -0.898762 
-0.38036 0.0626836 -0.922712 -0.35979 0.174759 -0.916521 0.304296 -0.0440365 -0.951559 
0.248956 -0.0444014 -0.967496 0.103354 0.00556107 -0.994629 -0.0655859 0.0245445 -0.997545 
-0.0672742 -0.0552695 -0.996203 -0.00462343 -0.146602 -0.989185 -0.0297453 -0.0171315 -0.999411 
0.00429705 -0.0567448 -0.998379 0.0315978 0.0209809 -0.99928 0.00616789 -0.0112096 -0.999918 
0.0769518 0.0252542 -0.996715 0.0231659 0.0904896 -0.995628 0.00515344 0.0299826 -0.999537 
-0.377085 0.0227281 -0.9259 -0.212112 0.184314 -0.959707 -0.385543 0.011854 -0.922614 
0.36393 -0.101406 -0.92589 0.258701 -0.0929511 -0.961475 0.100946 -0.0955104 -0.990297 
-0.0355216 -0.0311609 -0.998883 -0.137609 0.0348965 -0.989872 0.0276585 -0.0487073 -0.99843 
0.0458591 0.0894331 -0.994937 -0.00156621 -0.0358514 -0.999356 0.0119232 0.0717001 -0.997355 
0.0148167 -0.0615918 -0.997991 0.0953077 -0.0187817 -0.995271 0.0406239 -0.0150676 -0.999061 
0.0235678 0.0488957 -0.998526 -0.15558 -0.0149853 -0.98771 -0.475049 0.0135852 -0.879854 
-0.36969 0.0227501 -0.928877 0.292199 -0.109418 -0.950078 0.269407 -0.11744 -0.955839 
0.163712 -0.0986153 -0.981567 0.0659018 -0.0492923 -0.996608 -0.0843138 0.0267227 -0.996081 
0.0335563 0.0564721 -0.99784 -0.00295872 0.0423661 -0.999098 -0.00462501 0.020408 -0.999781 
-0.0100782 -0.00988639 -0.9999 -0.0746501 -0.00650091 -0.997189 0.122713 -0.0203488 -0.992234 
0.0897294 0.00832499 -0.995931 0.00885006 0.00713115 -0.999935 -0.17731 -0.0176227 -0.983997 
-0.494103 -0.0742102 -0.86623 -0.493936 -0.0506106 -0.868024 -0.479344 -0.0693669 -0.874881 
0.283521 -0.0280059 -0.958557 0.279012 -0.0267899 -0.959914 0.177876 -0.0502895 -0.982767 
0.0895684 -0.0277855 -0.995593 -0.0344261 -0.0174433 -0.999255 0.0533438 0.0437343 -0.997618 
0.00924818 -0.172602 -0.984948 -0.0550771 0.0387659 -0.997729 -0.013452 -0.0523727 -0.998537 
-0.00416825 0.0670279 -0.997742 0.107166 0.0578387 -0.992557 0.0677911 0.000616999 -0.997699 
-0.00608922 -0.0192151 -0.999797 -0.513034 0.0161398 -0.858216 -0.22326 -0.0367974 -0.974064 
-0.533403 0.017864 -0.845672 0.298849 0.00319687 -0.954295 0.288238 0.00127585 -0.957558 
0.160381 -0.00601973 -0.987037 0.0972527 -0.0223677 -0.995008 -0.0162035 -0.0232942 -0.999597 
-0.107995 -0.0425266 -0.993241 -0.0251208 -0.235584 -0.971529 0.114384 -0.0736668 -0.990702 
0.0315799 -0.0235198 -0.999224 0.0292882 0.0581545 -0.997878 0.0570549 0.011933 -0.9983 
0.0127249 -0.000347469 -0.999919 -0.0262764 -0.0828586 -0.996215 -0.25894 -0.152128 -0.953838 
-0.565435 -0.0178857 -0.824599 -0.510561 -0.15473 -0.845805 -0.514748 -0.0146575 -0.857216 
0.260824 -0.133481 -0.956114 0.251675 -0.143196 -0.957159 0.250834 -0.136079 -0.958418 
0.144861 -0.067537 -0.987144 0.071724 -0.119862 -0.990196 -0.0548805 -0.123014 -0.990886 
-0.10669 -0.241768 -0.964451 -0.152253 -0.16711 -0.974112 -0.0194584 -0.131492 -0.991126 
-0.0318862 -0.118079 -0.992492 0.10736 -0.172048 -0.979221 0.16121 -0.150249 -0.975416 
0.115068 -0.120991 -0.985962 0.0314748 -0.0398167 -0.998711 0.0472201 -0.0950069 -0.994356 
-0.026537 -0.130403 -0.991106 -0.127352 -0.115889 -0.985064 -0.427959 -0.230309 -0.873962 
-0.258537 -0.128212 -0.957455 0.193135 -0.279956 -0.940385 0.167022 -0.319395 -0.932786 
0.171917 -0.282528 -0.943728 0.0481966 -0.321711 -0.945611 0.0435623 -0.281823 -0.958477 
-0.101302 -0.249245 -0.963128 -0.0409245 -0.350877 -0.935527 -0.0606841 -0.292524 -0.954331 
0.105859 -0.175898 -0.9787 0.105039 -0.361097 -0.926594 0.140054 -0.219818 -0.965435 
0.0081755 -0.39026 -0.920668 0.0555727 -0.228242 -0.972017 -0.058828 -0.381598 -0.922454 
-0.0301648 -0.242965 -0.969566 -0.0760886 -0.379982 -0.921859 -0.0220624 -0.298509 -0.954152 
-0.0688282 -0.444708 -0.893027 -0.0369967 -0.351123 -0.935598 -0.469036 -0.376639 -0.798842 
-0.363861 -0.434453 -0.823927 -0.313797 -0.291515 -0.903632 
