# vtk DataFile Version 4.2
vtk output
ASCII
DATASET POLYDATA
POINTS 534 float
-29.989 -44.5087 -12.2827 -21.4251 -44.5087 -13.8266 -12.8611 -44.5087 -14.1758 
-4.29718 -44.5087 -14.2673 4.26677 -44.5087 -14.3179 12.8307 -44.5087 -13.6582 
-38.553 -35.9448 -13.8495 -29.989 -35.9448 -16.1132 -21.4251 -35.9448 -17.5344 
-12.8611 -35.9448 -17.0477 -4.29718 -35.9448 -16.0664 4.26677 -35.9448 -15.8291 
12.8307 -35.9448 -16.9404 21.3947 -35.9448 -15.5716 29.9586 -35.9448 -14.5422 
-38.553 -27.3808 -15.6145 -29.989 -27.3808 -18.0602 -21.4251 -27.3808 -18.012 
-12.8611 -27.3808 -17.3478 -4.29718 -27.3808 -16.4902 4.26677 -27.3808 -16.0068 
12.8307 -27.3808 -16.8973 21.3947 -27.3808 -16.851 29.9586 -27.3808 -17.0121 
38.5225 -27.3808 -15.7746 47.0865 -27.3808 -13.0845 -47.1169 -18.8169 -13.3508 
-38.553 -18.8169 -16.014 -29.989 -18.8169 -16.8657 -21.4251 -18.8169 -17.0523 
-12.8611 -18.8169 -16.4844 -4.29718 -18.8169 -16.1516 4.26677 -18.8169 -15.3761 
12.8307 -18.8169 -15.8056 21.3947 -18.8169 -16.8491 29.9586 -18.8169 -17.018 
38.5225 -18.8169 -16.5796 47.0865 -18.8169 -16.9038 55.6504 -18.8169 -12.516 
-47.1169 -10.2529 -14.1063 -38.553 -10.2529 -16.0094 -29.989 -10.2529 -16.5484 
-21.4251 -10.2529 -16.1923 -12.8611 -10.2529 -15.6357 -4.29718 -10.2529 -19.2543 
4.26677 -10.2529 -18.6507 12.8307 -10.2529 -15.4549 21.3947 -10.2529 -15.7624 
29.9586 -10.2529 -16.6139 38.5225 -10.2529 -16.754 47.0865 -10.2529 -16.0328 
55.6504 -10.2529 -14.5622 64.2144 -10.2529 -13.9239 -47.1169 -1.68897 -14.2853 
-38.553 -1.68897 -16.078 -29.989 -1.68897 -16.6173 -21.4251 -1.68897 -16.7416 
-12.8611 -1.68897 -18.9726 -4.29718 -1.68897 -16.0988 4.26677 -1.68897 -15.6665 
12.8307 -1.68897 -15.4426 21.3947 -1.68897 -14.6227 29.9586 -1.68897 -15.909 
38.5225 -1.68897 -16.6415 47.0865 -1.68897 -16.4429 55.6504 -1.68897 -15.8941 
64.2144 -1.68897 -13.4917 -47.1169 6.87497 -14.2485 -38.553 6.87497 -16.2939 
-29.989 6.87497 -17.0135 -21.4251 6.87497 -16.558 -12.8611 6.87497 -17.0474 
-4.29718 6.87497 -19.0507 4.26677 6.87497 -18.1606 12.8307 6.87497 -15.6695 
21.3947 6.87497 -15.2038 29.9586 6.87497 -16.4074 38.5225 6.87497 -17.0676 
47.0865 6.87497 -16.7956 55.6504 6.87497 -16.7509 64.2144 6.87497 -14.234 
-47.1169 15.4389 -13.9915 -38.553 15.4389 -16.1559 -29.989 15.4389 -17.0799 
-21.4251 15.4389 -16.7599 -12.8611 15.4389 -15.7778 -4.29718 15.4389 -17.8525 
4.26677 15.4389 -17.4141 12.8307 15.4389 -14.7704 21.3947 15.4389 -15.8451 
29.9586 15.4389 -16.8611 38.5225 15.4389 -17.8563 47.0865 15.4389 -16.3601 
55.6504 15.4389 -14.2915 -47.1169 24.0029 -12.0704 -38.553 24.0029 -15.16 
-29.989 24.0029 -16.6195 -21.4251 24.0029 -17.381 -12.8611 24.0029 -16.568 
-4.29718 24.0029 -16.7575 4.26677 24.0029 -16.7776 12.8307 24.0029 -15.7955 
21.3947 24.0029 -16.193 29.9586 24.0029 -16.6164 38.5225 24.0029 -16.1868 
47.0865 24.0029 -16.2256 55.6504 24.0029 -13.7009 -38.553 32.5668 -12.9819 
-29.989 32.5668 -15.3395 -21.4251 32.5668 -16.4891 -12.8611 32.5668 -16.539 
-4.29718 32.5668 -16.944 4.26677 32.5668 -16.8315 12.8307 32.5668 -16.1519 
21.3947 32.5668 -16.0498 29.9586 32.5668 -14.874 38.5225 32.5668 -14.8088 
47.0865 32.5668 -13.2486 -21.4251 41.1308 -13.5748 -12.8611 41.1308 -14.5519 
-4.29718 41.1308 -15.3294 4.26677 41.1308 -15.3222 12.8307 41.1308 -14.5033 
21.3947 41.1308 -13.7175 -29.989 -44.7671 -12.0365 -21.4251 -47.0207 -12.0365 
-12.8611 -47.8831 -12.0365 -4.29718 -48.4718 -12.0365 4.26677 -48.8015 -12.0365 
12.8307 -47.3213 -12.0365 -30.7897 -44.5087 -12.0365 -38.553 -39.8274 -12.0365 
-38.553 -44.5087 -7.44323 20.6604 -44.5087 -12.0365 21.3947 -44.119 -12.0365 
21.3947 -44.5087 -11.7777 29.9586 -41.2091 -12.0365 29.9586 -44.5087 -7.51978 
-42.8512 -35.9448 -12.0365 -47.1169 -35.9448 -9.22638 37.3131 -35.9448 -12.0365 
38.5225 -35.1692 -12.0365 38.5225 -35.9448 -11.4127 47.0865 -29.4842 -12.0365 
47.0865 -35.9448 -6.43821 -55.6809 -27.3808 -4.4509 -46.5677 -27.3808 -12.0365 
-47.1169 -25.9013 -12.0365 -47.1169 -27.3808 -11.7385 50.2899 -27.3808 -12.0365 
55.6504 -20.7248 -12.0365 55.6504 -27.3808 -9.63486 -49.7698 -18.8169 -12.0365 
-55.6809 -18.8169 -8.48876 56.9546 -18.8169 -12.0365 64.2144 -12.3029 -12.0365 
64.2144 -18.8169 -8.55072 -52.3921 -10.2529 -12.0365 -55.6809 -10.2529 -10.0197 
65.0144 -10.2529 -12.0365 -53.7843 -1.68897 -12.0365 -55.6809 -1.68897 -11.0347 
66.2566 -1.68897 -12.0365 -53.2554 6.87497 -12.0365 -55.6809 6.87497 -10.6613 
66.9479 6.87497 -12.0365 64.2144 14.1078 -12.0365 -51.1272 15.4389 -12.0365 
-55.6809 15.4389 -9.56411 62.4905 15.4389 -12.0365 64.2144 15.4389 -10.9937 
-47.1738 24.0029 -12.0365 -55.6809 24.0029 -5.99429 -47.1169 24.0993 -12.0365 
58.1453 24.0029 -12.0365 55.6504 26.663 -12.0365 -40.5581 32.5668 -12.0365 
-47.1169 32.5668 -7.33606 -38.553 33.9781 -12.0365 -29.989 39.1754 -12.0365 
29.9586 40.0881 -12.0365 38.5225 37.5308 -12.0365 49.119 32.5668 -12.0365 
47.0865 34.3096 -12.0365 -26.7071 41.1308 -12.0365 -29.989 41.1308 -9.98136 
-21.4251 43.3516 -12.0365 -12.8611 45.0533 -12.0365 -4.29718 46.674 -12.0365 
4.26677 46.8487 -12.0365 12.8307 45.5266 -12.0365 28.3806 41.1308 -12.0365 
21.3947 44.3094 -12.0365 29.9586 41.1308 -11.4989 38.5225 41.1308 -7.89668 
-12.8611 49.6947 -5.51087 -4.29718 49.6947 -8.76488 4.26677 49.6947 -9.20494 
12.8307 49.6947 -7.99009 21.3947 49.6947 -4.82071 -38.553 -46.1903 -3.47257 
-29.989 -49.945 -3.47257 -21.4251 -51.754 -3.47257 -12.8611 -52.5337 -3.47257 
-4.29718 -52.9999 -3.47257 4.26677 -52.9999 -3.47257 12.8307 -52.3582 -3.47257 
21.3947 -49.679 -3.47257 29.9586 -45.9993 -3.47257 -41.1391 -44.5087 -3.47257 
-47.1169 -39.8631 -3.47257 -38.553 -44.5087 4.10609 33.042 -44.5087 -3.47257 
29.9586 -44.5087 1.10647 38.5225 -41.7431 -3.47257 47.0865 -37.4529 -3.47257 
-50.7948 -35.9448 -3.47257 -55.6809 -28.4488 -3.47257 49.388 -35.9448 -3.47257 
47.0865 -35.9448 3.4598 55.6504 -31.5972 -3.47257 -56.3046 -27.3808 -3.47257 
60.4897 -27.3808 -3.47257 64.2144 -23.447 -3.47257 -59.4741 -18.8169 -3.47257 
67.7101 -18.8169 -3.47257 -60.9409 -10.2529 -3.47257 70.9395 -10.2529 -3.47257 
-62.337 -1.68897 -3.47257 -64.2448 -1.68897 4.81004 72.0061 -1.68897 -3.47257 
-61.7835 6.87497 -3.47257 -64.2448 6.87497 5.08506 71.5963 6.87497 -3.47257 
-60.9367 15.4389 -3.47257 67.982 15.4389 -3.47257 64.2144 21.3385 -3.47257 
64.2144 15.4389 3.39566 -57.6219 24.0029 -3.47257 -55.6809 26.7027 -3.47257 
62.1632 24.0029 -3.47257 55.6504 30.7939 -3.47257 -50.0914 32.5668 -3.47257 
-47.1169 35.0355 -3.47257 -38.553 40.2982 -3.47257 53.5934 32.5668 -3.47257 
47.0865 37.7547 -3.47257 47.0865 32.5668 4.47914 -36.8128 41.1308 -3.47257 
-29.989 44.2311 -3.47257 -21.4251 47.7191 -3.47257 29.9586 47.221 -3.47257 
41.7085 41.1308 -3.47257 38.5225 42.9367 -3.47257 38.5225 41.1308 0.996715 
-15.5634 49.6947 -3.47257 -12.8611 50.576 -3.47257 -12.8611 49.6947 2.51239 
-4.29718 52.3173 -3.47257 4.26677 52.6817 -3.47257 12.8307 52.1384 -3.47257 
23.0022 49.6947 -3.47257 21.3947 50.2295 -3.47257 21.3947 49.6947 -0.631748 
-29.989 -46.8555 5.09138 -21.4251 -48.8488 5.09138 -12.8611 -49.3812 5.09138 
-4.29718 -49.3192 5.09138 4.26677 -48.6703 5.09138 12.8307 -47.1919 5.09138 
21.3947 -44.8419 5.09138 -47.1169 -38.4196 5.09138 -37.7329 -44.5087 5.09138 
-38.553 -44.2202 5.09138 -29.989 -44.5087 7.67526 -21.4251 -44.5087 9.23205 
-12.8611 -44.5087 9.3471 -4.29718 -44.5087 8.65652 4.26677 -44.5087 7.87835 
12.8307 -44.5087 7.4286 22.7788 -44.5087 5.09138 21.3947 -44.5087 5.41902 
29.9586 -42.5747 5.09138 38.5225 -37.986 5.09138 -49.8024 -35.9448 5.09138 
-55.6809 -28.4244 5.09138 -47.1169 -35.9448 7.9939 -38.553 -35.9448 12.0608 
-12.8611 -35.9448 13.3538 -4.29718 -35.9448 12.0065 4.26677 -35.9448 11.1749 
12.8307 -35.9448 11.3328 21.3947 -35.9448 10.7165 29.9586 -35.9448 9.67364 
45.4923 -35.9448 5.09138 38.5225 -35.9448 7.21488 47.0865 -35.3076 5.09138 
55.6504 -29.579 5.09138 -56.3747 -27.3808 5.09138 -55.6809 -27.3808 6.10547 
-47.1169 -27.3808 13.0784 -4.29718 -27.3808 13.6253 4.26677 -27.3808 12.3534 
12.8307 -27.3808 13.1816 21.3947 -27.3808 13.3658 29.9586 -27.3808 12.8788 
38.5225 -27.3808 11.9176 47.0865 -27.3808 10.9826 58.1695 -27.3808 5.09138 
55.6504 -27.3808 7.11636 64.2144 -19.8727 5.09138 -59.9453 -18.8169 5.09138 
-55.6809 -18.8169 10.3867 -4.29718 -18.8169 13.184 4.26677 -18.8169 13.0073 
47.0865 -18.8169 12.5049 55.6504 -18.8169 11.8439 64.9493 -18.8169 5.09138 
64.2144 -18.8169 5.76509 -62.9888 -10.2529 5.09138 -64.2448 -2.05084 5.09138 
-4.29718 -10.2529 12.5759 21.3947 -10.2529 13.4531 55.6504 -10.2529 11.6406 
68.8099 -10.2529 5.09138 64.2144 -10.2529 8.94878 -64.2937 -1.68897 5.09138 
-64.2448 -1.68897 5.21378 4.26677 -1.68897 13.2166 21.3947 -1.68897 12.2862 
29.9586 -1.68897 13.1608 38.5225 -1.68897 13.6472 47.0865 -1.68897 13.3508 
55.6504 -1.68897 11.5631 66.3397 -1.68897 5.09138 64.2144 -1.68897 6.59061 
-64.2462 6.87497 5.09138 -64.2448 6.88792 5.09138 -64.2448 6.87497 5.09589 
21.3947 6.87497 12.0653 29.9586 6.87497 12.6293 38.5225 6.87497 12.4371 
47.0865 6.87497 11.8646 55.6504 6.87497 11.6406 67.5378 6.87497 5.09138 
64.2144 13.3544 5.09138 64.2144 6.87497 7.80021 -63.2516 15.4389 5.09138 
21.3947 15.4389 12.6774 29.9586 15.4389 11.697 38.5225 15.4389 11.358 
47.0865 15.4389 10.5966 61.6682 15.4389 5.09138 55.6504 15.4389 7.68338 
-59.3703 24.0029 5.09138 -55.6809 28.8496 5.09138 29.9586 24.0029 12.008 
38.5225 24.0029 10.2427 47.0865 31.4872 5.09138 47.0865 24.0029 7.76487 
56.1304 24.0029 5.09138 55.6504 24.49 5.09138 55.6504 24.0029 5.41264 
-51.5666 32.5668 5.09138 -47.1169 35.6854 5.09138 -38.553 39.7587 5.09138 
29.9586 32.5668 10.5604 45.7972 32.5668 5.09138 38.5225 37.2905 5.09138 
38.5225 32.5668 7.49262 -34.6348 41.1308 5.09138 -29.989 42.9376 5.09138 
-29.989 41.1308 8.68309 -21.4251 45.862 5.09138 -21.4251 41.1308 13.0039 
-12.8611 49.2529 5.09138 21.3947 48.12 5.09138 21.3947 41.1308 10.7041 
34.5523 41.1308 5.09138 29.9586 43.5454 5.09138 29.9586 41.1308 7.65707 
-9.82697 49.6947 5.09138 -4.29718 50.4301 5.09138 -4.29718 49.6947 6.32729 
[...]
POINT_DATA 534
SCALARS ImageScalars float
LOOKUP_TABLE default
0 0 0 0 0 0 0 0 0 
0 0 0 0 0 0 0 0 0 
0 0 0 0 0 0 0 0 0 
0 0 0 0 0 0 0 0 0 
0 0 0 0 0 0 0 0 0 
0 0 0 0 0 0 0 0 0 
0 0 0 0 0 0 0 0 0 
0 0 0 0 0 0 0 0 0 
0 0 0 0 0 0 0 0 0 
0 0 0 0 0 0 0 0 0 
0 0 0 0 0 0 0 0 0 
0 0 0 0 0 0 0 0 0 
0 0 0 0 0 0 0 0 0 
0 0 0 0 0 0 0 0 0 
0 0 0 0 0 0 0 0 0 
0 0 0 0 0 0 0 0 0 
0 0 0 0 0 0 0 0 0 
0 0 0 0 0 0 0 0 0 
0 0 0 0 0 0 0 0 0 
0 0 0 0 0 0 0 0 0 
0 0 0 0 0 0 0 0 0 
0 0 0 0 0 0 0 0 0 
0 0 0 0 0 0 0 0 0 
0 0 0 0 0 0 0 0 0 
0 0 0 0 0 0 0 0 0 
0 0 0 0 0 0 0 0 0 
0 0 0 0 0 0 0 0 0 
0 0 0 0 0 0 0 0 0 
0 0 0 0 0 0 0 0 0 
0 0 0 0 0 0 0 0 0 
0 0 0 0 0 0 0 0 0 
0 0 0 0 0 0 0 0 0 
0 0 0 0 0 0 0 0 0 
0 0 0 0 0 0 0 0 0 
0 0 0 0 0 0 0 0 0 
0 0 0 0 0 0 0 0 0 
0 0 0 0 0 0 0 0 0 
0 0 0 0 0 0 0 0 0 
0 0 0 0 0 0 0 0 0 
0 0 0 0 0 0 0 0 0 
0 0 0 0 0 0 0 0 0 
0 0 0 0 0 0 0 0 0 
0 0 0 0 0 0 0 0 0 
0 0 0 0 0 0 0 0 0 
0 0 0 0 0 0 0 0 0 
0 0 0 0 0 0 0 0 0 
0 0 0 0 0 0 0 0 0 
0 0 0 0 0 0 0 0 0 
0 0 0 0 0 0 0 0 0 
0 0 0 0 0 0 0 0 0 
0 0 0 0 0 0 0 0 0 
0 0 0 0 0 0 0 0 0 
0 0 0 0 0 0 0 0 0 
0 0 0 0 0 0 0 0 0 
0 0 0 0 0 0 0 0 0 
0 0 0 0 0 0 0 0 0 
0 0 0 0 0 0 0 0 0 
0 0 0 0 0 0 0 0 0 
0 0 0 0 0 0 0 0 0 
0 0 0 
NORMALS Normals float
0.218713 0.619296 0.75408 0.0895444 0.53122 0.842489 0.0246284 0.471021 0.881778 
0.00867457 0.38289 0.923753 -0.0372597 0.352326 0.935135 -0.119155 0.453538 0.883236 
0.330496 0.314487 0.889871 0.184533 0.27492 0.943592 0.0482806 0.226795 0.972745 
-0.0819034 0.179949 0.98026 -0.0727036 0.130757 0.988745 0.0437794 0.101855 0.993835 
-0.00861216 0.193262 0.981109 -0.135874 0.238885 0.961495 -0.192134 0.3592 0.913269 
0.322712 0.10459 0.940701 0.130075 0.0358734 0.990855 -0.041652 -0.0305989 0.998664 
-0.0868711 -0.0321847 0.9957 -0.0791675 0.00481591 0.99685 0.0241027 -0.0264876 0.999359 
0.049608 -0.0662658 0.996568 0.00616373 0.068953 0.997601 -0.070364 0.14396 0.987079 
-0.187414 0.227015 0.955688 -0.33756 0.416768 0.844013 0.374685 0.125283 0.918649 
0.184997 0.0222637 0.982487 0.0583999 -0.0839846 0.994754 -0.0221682 -0.102367 0.9945 
-0.0533438 -0.101289 0.993426 -0.0674543 0.115902 0.990968 -0.0208798 0.0957698 0.995184 
0.0866963 -0.0842965 0.992662 0.0705534 -0.0631217 0.995509 -0.0149362 -0.0233013 0.999617 
-0.0102455 0.0632819 0.997943 -0.197452 0.127778 0.971949 -0.372982 0.225364 0.900053 
0.305408 0.0479442 0.951014 0.149316 0.00371298 0.988783 0.0108456 -0.0145087 0.999836 
-0.0546438 -0.0187186 0.99833 0.12446 0.124896 0.984333 0.220054 0.0510652 0.97415 
-0.25415 0.0704687 0.964594 -0.110752 -0.0214796 0.993616 0.0683053 -0.131102 0.989013 
0.0582375 -0.0652463 0.996168 -0.0338601 0.00332261 0.999421 -0.115938 -0.018067 0.993092 
-0.111853 0.18656 0.976055 -0.594399 0.177657 0.784301 0.274442 0.00857127 0.961565 
0.139774 0.0160493 0.990053 0.0374797 0.0268505 0.998937 0.122399 0.0195391 0.992289 
0.00487515 0.105969 0.994357 -0.219368 0.00581641 0.975625 -0.0390295 0.00877418 0.9992 
-0.0675453 0.0121992 0.997642 0.0402093 -0.0355341 0.998559 0.11898 -0.0123196 0.99282 
0.0315618 0.0185634 0.999329 -0.0390609 0.0441954 0.998259 -0.223876 0.122912 0.966836 
-0.481294 0.0410189 0.875599 0.296816 -0.0148301 0.95482 0.164678 0.00452885 0.986337 
0.0139502 0.0271058 0.999535 -0.00196224 0.0011031 0.999997 0.132308 -0.188422 0.973135 
0.0656049 0.0861168 0.994123 -0.187899 0.0895248 0.9781 -0.163914 -0.0467664 0.985365 
0.0490855 0.0740233 0.996048 0.104779 0.0559645 0.99292 0.0227528 0.0696334 0.997313 
-0.0182325 -0.00425736 0.999825 -0.204307 -0.0898728 0.974772 -0.501791 -0.10864 0.85814 
0.360417 -0.112552 0.925976 0.164606 -0.0644849 0.984249 0.0329967 -0.022871 0.999194 
-0.0756473 0.0474595 0.996005 0.0385139 -0.017568 0.999104 0.119335 -0.140092 0.982921 
-0.205842 -0.0876356 0.974653 -0.054537 0.0158686 0.998386 0.121164 0.0547828 0.99112 
0.114997 0.0120477 0.993293 -0.0276061 -0.0485252 0.99844 -0.187233 -0.0315805 0.981808 
-0.315939 -0.174232 0.932645 0.441463 -0.253818 0.860631 0.233482 -0.156545 0.959677 
0.122588 -0.0935759 0.988036 -0.00344374 -0.0186579 0.99982 -0.0358338 0.044386 0.998372 
0.0124142 -0.0403059 0.99911 -0.056917 -0.0253305 0.998058 -0.0341557 0.0806641 0.996156 
0.0478533 0.0123156 0.998778 0.000724736 -0.109537 0.993982 -0.0239704 -0.157905 0.987163 
-0.17206 -0.203525 0.963832 -0.441505 -0.364773 0.819764 0.348282 -0.420311 0.837878 
0.185104 -0.281703 0.941478 0.0625255 -0.205069 0.976748 0.0265119 -0.107665 0.993834 
0.0170793 -0.0748281 0.99705 -0.0462173 -0.0765958 0.995991 -0.0450569 -0.0691241 0.99659 
-0.0735005 -0.147108 0.986386 -0.068398 -0.250942 0.965583 -0.107386 -0.349418 0.930793 
-0.384472 -0.52016 0.762637 0.184276 -0.521384 0.833187 0.0990897 -0.392873 0.914239 
0.0429647 -0.337818 0.94023 -0.0472754 -0.323749 0.944961 -0.0904771 -0.33847 0.936617 
-0.142338 -0.381955 0.913154 0.222818 0.631775 0.742437 0.131594 0.641761 0.75553 
0.0555872 0.639471 0.766803 0.0349256 0.607461 0.793581 -0.0433616 0.608533 0.792343 
-0.169335 0.581396 0.795804 0.241681 0.626504 0.741001 0.391527 0.480638 0.784661 
0.50845 0.782074 0.360331 -0.212359 0.58996 0.779006 -0.213674 0.588186 0.779988 
-0.226283 0.619554 0.75163 -0.291273 0.585449 0.756577 -0.406728 0.855304 0.320978 
0.466201 0.368309 0.804366 0.65307 0.484496 0.582034 -0.300375 0.562431 0.770355 
-0.305134 0.563903 0.767403 -0.329527 0.619924 0.712114 -0.363634 0.461163 0.809382 
-0.515871 0.784968 0.343079 0.822959 0.455805 0.339088 0.471842 0.157743 0.867457 
0.462713 0.156104 0.872656 0.492052 0.168669 0.85407 -0.386361 0.425083 0.818554 
-0.402187 0.273833 0.873648 -0.525286 0.541725 0.656208 0.445529 0.150824 0.882472 
0.719086 0.203342 0.664506 -0.431233 0.265399 0.862323 -0.681075 0.35752 0.638996 
-0.73224 0.54146 0.413092 0.474426 0.0927975 0.875391 0.630984 0.105201 0.76863 
-0.707728 0.295115 0.641894 0.490785 0.0216206 0.871013 0.574035 0.0254354 0.818435 
-0.599964 0.101888 0.793513 0.491221 -0.0623198 0.868803 0.596038 -0.0643941 0.80037 
-0.666577 -0.129767 0.734054 -0.555301 -0.35333 0.75286 0.459648 -0.161491 0.873295 
0.611164 -0.185558 0.769446 -0.515947 -0.351443 0.781208 -0.607386 -0.42221 0.67292 
0.442384 -0.254521 0.859951 0.70191 -0.465678 0.53895 0.442819 -0.256548 0.859124 
-0.590627 -0.43303 0.680915 -0.526359 -0.473929 0.70593 0.397376 -0.450072 0.799704 
0.597219 -0.624744 0.503016 0.372913 -0.485167 0.790917 0.319889 -0.591506 0.74013 
-0.192684 -0.496272 0.846514 -0.21455 -0.558438 0.801321 -0.442849 -0.566235 0.695171 
-0.410348 -0.583151 0.701106 0.28726 -0.626552 0.724509 0.367548 -0.752814 0.546058 
0.222817 -0.63443 0.74017 0.127148 -0.599294 0.790367 0.0674409 -0.620555 0.781258 
-0.0391373 -0.609762 0.791617 -0.0834088 -0.546193 0.833497 -0.197189 -0.502441 0.841825 
-0.175982 -0.534507 0.826639 -0.225059 -0.560791 0.796782 -0.41413 -0.828717 0.376463 
0.243131 -0.938259 0.246084 0.104439 -0.87365 0.475213 -0.0294245 -0.849622 0.526571 
-0.12232 -0.869449 0.47864 -0.271352 -0.943588 0.189761 0.506994 0.857626 0.0862238 
0.30234 0.950724 0.0686631 0.155669 0.986302 0.0545461 0.0721482 0.996828 0.0335898 
0.0274343 0.999581 0.00924374 -0.035861 0.999204 -0.0174565 -0.19167 0.981337 -0.0154826 
-0.356718 0.934208 0.00267053 -0.423331 0.905802 0.0177327 0.560223 0.821605 0.105427 
0.697152 0.695714 0.173093 0.412635 0.832589 -0.369496 -0.442658 0.896058 0.0336736 
-0.372514 0.878644 -0.298692 -0.46707 0.88093 0.0762072 -0.523103 0.843677 0.120719 
0.773899 0.59438 0.218615 0.831964 0.471657 0.292192 -0.544998 0.828304 0.12996 
-0.452291 0.790416 -0.41313 -0.60992 0.776315 0.159161 0.842626 0.453033 0.291106 
-0.693585 0.699329 0.172855 -0.758019 0.631168 0.16442 0.898781 0.248442 0.361206 
-0.844237 0.504554 0.180801 0.882178 0.151074 0.446026 -0.945176 0.244707 0.216245 
0.879823 0.0459194 0.473078 0.992778 0.0670457 -0.0994814 -0.987794 0.0432803 0.149635 
0.866522 -0.0725603 0.493837 0.997331 -0.0577906 -0.0446196 -0.971429 -0.225654 0.0735264 
0.848017 -0.21964 0.482313 -0.881264 -0.472614 0.00313325 -0.797422 -0.600733 -0.0569023 
-0.612891 -0.496878 -0.614391 0.779647 -0.482408 0.399291 0.74025 -0.541451 0.398573 
-0.762237 -0.642701 -0.0770016 -0.661693 -0.744537 -0.0884699 0.658451 -0.684927 0.311956 
0.600238 -0.749453 0.279348 0.458998 -0.873193 0.163873 -0.647427 -0.756905 -0.0890646 
-0.592193 -0.802933 -0.0678666 -0.458708 -0.503424 -0.732224 0.43906 -0.887214 0.141698 
0.394116 -0.911324 0.118998 0.355997 -0.93145 0.075287 -0.39442 -0.915267 0.0819776 
-0.512172 -0.858703 -0.0175635 -0.479058 -0.87776 0.0064145 -0.504936 -0.792892 -0.341119 
0.285413 -0.952128 0.109508 0.255151 -0.958415 0.127823 0.246666 -0.946519 -0.207986 
0.120535 -0.986035 0.114918 -0.010721 -0.99223 0.12395 -0.14496 -0.976918 0.156901 
-0.297093 -0.950026 0.0958451 -0.275375 -0.956001 0.101145 -0.301655 -0.950637 -0.0727608 
0.229977 0.804698 -0.547331 0.1232 0.820981 -0.557505 0.0224345 0.803003 -0.595553 
-0.0276356 0.746813 -0.66446 -0.0836805 0.683273 -0.725352 -0.163125 0.677391 -0.717309 
-0.19036 0.698154 -0.690177 0.596671 0.702786 -0.387396 0.374065 0.814534 -0.443407 
0.389974 0.813169 -0.43206 0.18411 0.731614 -0.656388 0.0755118 0.652992 -0.753591 
-0.0326137 0.586997 -0.808932 -0.0790006 0.525345 -0.847214 -0.0614185 0.49821 -0.864878 
-0.116792 0.569783 -0.813454 -0.202602 0.70846 -0.676045 -0.186056 0.685545 -0.703854 
-0.273433 0.73934 -0.615313 -0.330433 0.736053 -0.590796 0.659674 0.656974 -0.364987 
0.806905 0.508597 -0.30039 0.55407 0.631034 -0.542957 0.290103 0.51679 -0.805461 
-0.133292 0.316515 -0.939176 -0.128683 0.268699 -0.95459 -0.0415901 0.245501 -0.968504 
-0.0231976 0.275751 -0.960949 -0.0932908 0.392758 -0.914898 -0.155405 0.488503 -0.858611 
-0.392817 0.739735 -0.546339 -0.278836 0.665263 -0.692586 -0.408509 0.735432 -0.540612 
-0.537787 0.680836 -0.497241 0.82105 0.488698 -0.295043 0.796562 0.48444 -0.361671 
0.437385 0.389047 -0.810763 -0.179455 0.0724956 -0.981091 -0.0238802 0.110396 -0.993601 
0.0594611 0.174702 -0.982824 -0.0184502 0.215383 -0.976355 -0.0778921 0.263429 -0.961529 
-0.100442 0.316808 -0.943156 -0.279423 0.418517 -0.864156 -0.596879 0.625793 -0.502114 
-0.487428 0.56949 -0.661887 -0.658876 0.494138 -0.567195 0.895856 0.349809 -0.274001 
0.715771 0.339624 -0.610187 -0.156463 -0.0615159 -0.985766 0.0801791 0.282438 -0.955929 
-0.112607 0.138479 -0.983943 -0.375669 0.245532 -0.893637 -0.662424 0.471676 -0.581993 
-0.63767 0.451544 -0.624087 0.963319 0.229071 -0.139794 0.990347 0.0737363 -0.117373 
0.0401806 0.210633 -0.976739 -0.0467238 -0.13783 -0.989353 -0.27861 -0.0133249 -0.960312 
-0.836616 0.133094 -0.531376 -0.525003 0.0814553 -0.847194 0.99086 0.0672135 -0.116954 
0.989892 0.0682244 -0.124332 -0.135276 -0.120864 -0.983408 -0.0795425 -0.0852195 -0.993182 
0.0810178 -0.0773631 -0.993706 0.0114951 -0.0963977 -0.995277 -0.135311 -0.107668 -0.984936 
-0.301044 -0.00128905 -0.953609 -0.699725 -0.0773449 -0.710213 -0.631476 -0.0775524 -0.771508 
0.997317 -0.0577571 -0.0449725 0.997303 -0.058055 -0.0449128 0.997307 -0.0577245 -0.0452313 
-0.17545 0.024007 -0.984196 0.0222053 -0.0872475 -0.995939 -0.0444019 -0.1334 -0.990067 
-0.0447721 -0.165455 -0.9852 -0.242149 -0.182042 -0.953008 -0.712925 -0.18057 -0.677593 
-0.546192 -0.390274 -0.741189 -0.525287 -0.166244 -0.834528 0.965337 -0.260564 -0.0151981 
-0.208978 0.117685 -0.970813 -0.0772048 -0.0380058 -0.996291 -0.0669905 -0.141504 -0.987668 
-0.172611 -0.204197 -0.963592 -0.497761 -0.418931 -0.759428 -0.398993 -0.336953 -0.852799 
0.851042 -0.52207 -0.056304 0.767116 -0.638664 -0.0603439 -0.237512 -0.059009 -0.969591 
-0.2047 -0.172797 -0.963452 -0.425086 -0.46187 -0.778446 -0.327547 -0.36077 -0.873246 
-0.463722 -0.444694 -0.766296 -0.461062 -0.450412 -0.76456 -0.444283 -0.42834 -0.786853 
0.636388 -0.769925 -0.0471883 0.500608 -0.861733 -0.0825079 0.358751 -0.918773 -0.164786 
-0.329706 -0.200701 -0.922504 -0.419325 -0.472339 -0.775282 -0.403672 -0.548264 -0.732431 
-0.32988 -0.403643 -0.853377 0.341084 -0.913704 -0.220923 0.327195 -0.89974 -0.28881 
0.266093 -0.875781 -0.402744 0.310605 -0.885311 -0.346049 0.217761 -0.771913 -0.597269 
0.233569 -0.904075 -0.357902 -0.324797 -0.813517 -0.482386 -0.276353 -0.475552 -0.835152 
-0.445204 -0.622845 -0.643317 -0.422632 -0.685901 -0.592386 -0.404379 -0.563534 -0.720352 
0.180404 -0.912319 -0.367597 0.0860103 -0.918567 -0.385793 0.0803001 -0.898721 -0.431106 
0.0155364 -0.90837 -0.417879 0.0015694 -0.873741 -0.486389 -0.222743 -0.863524 -0.452451 
-0.129765 -0.884417 -0.448294 -0.131742 -0.847627 -0.513978 0.111569 0.492405 -0.863186 
-0.0487019 0.405735 -0.912692 0.168843 0.471907 -0.86533 0.258622 0.43925 -0.860334 
0.103961 0.455005 -0.884399 -0.111401 0.334468 -0.9358 -0.0606596 0.373175 -0.925776 
-0.140913 0.286674 -0.947608 0.389119 0.376266 -0.840839 0.419911 0.36035 -0.83296 
0.199627 0.341317 -0.918505 0.0258418 0.275175 -0.961047 -0.108252 0.208813 -0.971946 
-0.179326 0.0734838 -0.981041 -0.177471 0.130854 -0.975388 0.0721943 0.14168 -0.987276 
-0.0139825 0.165255 -0.986152 -0.0609695 0.165562 -0.984313 -0.106637 0.131371 -0.985581 
0.516673 0.295442 -0.803594 0.557997 0.260592 -0.787865 0.379488 0.263586 -0.886855 
0.172167 0.217447 -0.960768 -0.0314079 0.181157 -0.982952 -0.1954 0.138595 -0.970881 
-0.182462 -0.0412668 -0.982346 -0.28394 0.055838 -0.957215 0.0861918 0.201163 -0.975758 
0.090706 0.258081 -0.961856 0.0846319 0.0972658 -0.991654 -0.0389221 -0.112366 -0.992904 
0.00270208 0.00340484 -0.999991 -0.0457196 0.0599699 -0.997153 -0.107819 0.115735 -0.987411 
-0.110683 0.114998 -0.98718 -0.151184 0.0501754 -0.987231 0.571999 0.248945 -0.781565 
0.538183 0.241014 -0.807633 0.315787 0.234988 -0.919271 0.0942172 0.186136 -0.977996 
-0.0604722 0.121535 -0.990743 -0.216255 0.122326 -0.968644 -0.081947 0.202551 -0.975837 
-0.351575 0.138847 -0.925806 0.0815892 0.181163 -0.980063 -0.037336 0.281705 -0.958774 
-0.106626 -0.116083 -0.9875 0.130119 0.0150605 -0.991384 -0.0751493 -0.115084 -0.990509 
-0.239392 0.027586 -0.970531 -0.0113223 -0.111933 -0.993651 0.0524662 -0.0773505 -0.995623 
0.0368016 -0.0779724 -0.996276 0.0110727 -0.0948459 -0.99543 -0.0115507 -0.0111132 -0.999872 
-0.157684 0.0437119 -0.986522 -0.151754 0.0210466 -0.988194 -0.154441 0.0466586 -0.9869 
0.661213 0.143817 -0.736284 0.555962 0.155788 -0.816478 0.317737 0.137305 -0.938185 
0.033091 0.149625 -0.988189 -0.0929293 0.153269 -0.983805 -0.183752 0.140753 -0.972843 
-0.15322 0.17601 -0.972391 -0.156171 -0.0639517 -0.985658 -0.270487 0.388543 -0.880836 
-0.117209 -0.0788167 -0.989975 -0.151701 -0.0593269 -0.986644 -0.0807671 -0.00362394 -0.996726 
-0.0830678 0.0688358 -0.994164 0.754526 0.0373462 -0.655207 0.562761 0.0693587 -0.823705 
0.298764 0.0457392 -0.95323 -0.203361 0.130429 -0.970378 -0.114743 0.141156 -0.983315 
-0.243615 0.0517435 -0.968491 -0.207889 0.183133 -0.960856 -0.199939 0.0291637 -0.979374 
-0.203832 0.0186853 -0.978828 0.773896 -0.201505 -0.6004 0.612956 -0.140001 -0.777614 
0.327095 -0.013436 -0.944896 -0.216996 0.106981 -0.970293 -0.231764 0.0246329 -0.97246 
-0.19941 0.158129 -0.967073 -0.221258 0.0871956 -0.971309 -0.230951 0.0245189 -0.972656 
-0.240291 0.0746092 -0.967829 0.721602 -0.440823 -0.533821 0.71796 -0.447965 -0.532786 
0.715252 -0.436911 -0.545457 0.408158 -0.296871 -0.863293 -0.168286 -0.0493867 -0.9845 
-0.186413 0.0300938 -0.98201 -0.202942 0.078593 -0.976032 -0.227674 0.0460514 -0.972648 
-0.251322 0.0369233 -0.967199 -0.252533 0.0576305 -0.96587 0.495666 -0.737359 -0.45893 
0.436746 -0.775174 -0.456462 0.436007 -0.738649 -0.514096 0.254619 -0.821525 -0.510163 
0.22398 -0.655185 -0.721502 0.177928 -0.798317 -0.575354 0.11229 -0.575565 -0.81001 
0.204631 -0.754022 -0.624161 -0.013759 -0.453136 -0.891335 -0.063261 -0.290129 -0.954894 
-0.112836 -0.213048 -0.970504 -0.178299 -0.144404 -0.973323 -0.246514 -0.141993 -0.958681 
-0.294613 -0.161984 -0.941788 -0.294481 -0.163138 -0.94163 -0.294653 -0.162038 -0.941766 
0.197274 -0.747246 -0.634592 0.151727 -0.702913 -0.694904 0.123613 -0.643844 -0.755106 
0.016376 -0.643537 -0.76524 -0.0138298 -0.532047 -0.846602 -0.104941 -0.572937 -0.812853 
-0.119683 -0.487141 -0.865084 -0.225735 -0.443219 -0.867525 -0.222588 -0.453651 -0.862934 
-0.224927 -0.443639 -0.867521 0.0567759 0.135163 -0.989195 -0.0834127 0.146809 -0.985642 
0.182463 0.0796835 -0.979979 0.111026 0.106126 -0.988135 -0.151196 0.133106 -0.979501 
-0.0726363 0.136035 -0.988038 -0.188261 0.101741 -0.976835 0.268213 -0.00228935 -0.963357 
0.119286 0.0123948 -0.992783 -0.0574007 0.0156114 -0.998229 -0.186354 0.0888234 -0.978459 
-0.178203 0.0828121 -0.980503 0.238805 -0.267925 -0.933375 0.153304 -0.329198 -0.931733 
0.134068 -0.258137 -0.956761 0.0388788 -0.329008 -0.943526 -0.00744517 -0.180248 -0.983593 
-0.139583 -0.0772058 -0.987196 -0.0867474 -0.221624 -0.971266 -0.112649 -0.103952 -0.988182 

