# vtk DataFile Version 4.2
vtk output
ASCII
DATASET POLYDATA
POINTS 538 float
-26.3695 -20.5417 -12.7161 -19.9343 -20.5417 -13.049 -13.4992 -20.5417 -13.4932 
-7.06408 -20.5417 -13.409 -0.62895 -20.5417 -13.9023 5.80618 -20.5417 -14.2688 
12.2413 -20.5417 -14.3701 18.6764 -20.5417 -14.6539 25.1116 -20.5417 -14.4416 
31.5467 -20.5417 -13.4336 37.9818 -20.5417 -11.9661 -39.2397 -14.1065 -12.3893 
-32.8046 -14.1065 -13.8984 -26.3695 -14.1065 -14.2366 -19.9343 -14.1065 -14.2969 
-13.4992 -14.1065 -14.6311 -7.06408 -14.1065 -16.0157 -0.62895 -14.1065 -16.3733 
5.80618 -14.1065 -16.061 12.2413 -14.1065 -16.0587 18.6764 -14.1065 -16.19 
25.1116 -14.1065 -16.4254 31.5467 -14.1065 -14.9644 37.9818 -14.1065 -13.8991 
-39.2397 -7.6714 -14.3277 -32.8046 -7.6714 -15.0926 -26.3695 -7.6714 -15.3335 
-19.9343 -7.6714 -14.8586 -13.4992 -7.6714 -15.0982 -7.06408 -7.6714 -17.5502 
-0.62895 -7.6714 -16.2925 5.80618 -7.6714 -16.7882 12.2413 -7.6714 -16.7962 
18.6764 -7.6714 -15.7077 25.1116 -7.6714 -15.5979 31.5467 -7.6714 -15.316 
37.9818 -7.6714 -14.6433 44.417 -7.6714 -13.2332 -45.6749 -1.23627 -12.8031 
-39.2397 -1.23627 -15.5689 -32.8046 -1.23627 -16.4653 -26.3695 -1.23627 -16.453 
-19.9343 -1.23627 -15.8416 -13.4992 -1.23627 -15.5937 -7.06408 -1.23627 -17.887 
-0.62895 -1.23627 -13.9011 5.80618 -1.23627 -17.3125 12.2413 -1.23627 -16.676 
18.6764 -1.23627 -14.3536 25.1116 -1.23627 -14.8928 31.5467 -1.23627 -15.1613 
37.9818 -1.23627 -14.771 44.417 -1.23627 -13.4043 -45.6749 5.19886 -12.7331 
-39.2397 5.19886 -16.0358 -32.8046 5.19886 -17.0504 -26.3695 5.19886 -17.038 
-19.9343 5.19886 -16.3254 -13.4992 5.19886 -15.4562 -7.06408 5.19886 -17.2059 
-0.62895 5.19886 -16.6365 5.80618 5.19886 -17.2785 12.2413 5.19886 -15.7163 
18.6764 5.19886 -14.7755 25.1116 5.19886 -15.137 31.5467 5.19886 -15.3478 
37.9818 5.19886 -15.0458 44.417 5.19886 -13.5748 -39.2397 11.634 -14.9568 
-32.8046 11.634 -16.4897 -26.3695 11.634 -16.7496 -19.9343 11.634 -16.3302 
-13.4992 11.634 -15.6656 -7.06408 11.634 -15.8155 -0.62895 11.634 -15.9943 
5.80618 11.634 -15.9558 12.2413 11.634 -16.1452 18.6764 11.634 -16.0833 
25.1116 11.634 -15.8708 31.5467 11.634 -15.5243 37.9818 11.634 -14.1485 
-39.2397 18.0691 -13.1191 -32.8046 18.0691 -15.8149 -26.3695 18.0691 -16.5323 
-19.9343 18.0691 -16.5124 -13.4992 18.0691 -16.4544 -7.06408 18.0691 -16.5431 
-0.62895 18.0691 -16.2657 5.80618 18.0691 -16.2326 12.2413 18.0691 -16.6114 
18.6764 18.0691 -16.8438 25.1116 18.0691 -16.4591 31.5467 18.0691 -15.3806 
37.9818 18.0691 -13.4238 -32.8046 24.5042 -12.8807 -26.3695 24.5042 -14.6789 
-19.9343 24.5042 -16.1598 -13.4992 24.5042 -16.3988 -7.06408 24.5042 -16.668 
-0.62895 24.5042 -16.3928 5.80618 24.5042 -15.9166 12.2413 24.5042 -15.866 
18.6764 24.5042 -15.9253 25.1116 24.5042 -14.6969 31.5467 24.5042 -12.7481 
-19.9343 30.9394 -12.9622 -13.4992 30.9394 -14.1689 -7.06408 30.9394 -14.3007 
-0.62895 30.9394 -13.3365 5.80618 30.9394 -12.1106 -32.8046 -26.9768 -5.94117 
-26.3695 -22.1396 -11.8763 -26.3695 -26.9768 -8.76863 -19.9343 -23.1997 -11.8763 
-19.9343 -26.9768 -9.84557 -13.4992 -23.8806 -11.8763 -13.4992 -26.9768 -9.89557 
-7.06408 -23.4209 -11.8763 -7.06408 -26.9768 -9.44697 -0.62895 -23.9229 -11.8763 
-0.62895 -26.9768 -9.35131 5.80618 -24.5344 -11.8763 5.80618 -26.9768 -9.60661 
12.2413 -24.5455 -11.8763 12.2413 -26.9768 -9.37997 18.6764 -24.5534 -11.8763 
18.6764 -26.9768 -9.21887 25.1116 -24.5508 -11.8763 25.1116 -26.9768 -9.18727 
31.5467 -22.9911 -11.8763 31.5467 -26.9768 -7.51449 37.9818 -20.6653 -11.8763 
-39.2397 -15.1023 -11.8763 -39.2397 -20.5417 -7.98668 -31.4183 -20.5417 -11.8763 
-32.8046 -19.8836 -11.8763 -32.8046 -20.5417 -11.6095 38.1475 -20.5417 -11.8763 
44.417 -20.5417 -6.99198 -40.1661 -14.1065 -11.8763 -45.6749 -14.1065 -7.43807 
44.405 -14.1065 -11.8763 44.417 -14.0862 -11.8763 44.417 -14.1065 -11.8719 
50.8521 -14.1065 -5.69714 -44.573 -7.6714 -11.8763 -45.6749 -5.09183 -11.8763 
-45.6749 -7.6714 -11.2558 47.5631 -7.6714 -11.8763 50.8521 -7.6714 -9.674 
-46.8719 -1.23627 -11.8763 -52.11 -1.23627 -5.66308 47.1104 -1.23627 -11.8763 
50.8521 -1.23627 -9.00847 -46.9039 5.19886 -11.8763 -45.6749 9.06826 -11.8763 
49.6658 5.19886 -11.8763 44.417 11.5019 -11.8763 50.8521 5.19886 -11.01 
-44.6438 11.634 -11.8763 -45.6749 11.634 -11.0113 44.306 11.634 -11.8763 
44.417 11.634 -11.8306 50.8521 11.634 -5.74987 -41.0592 18.0691 -11.8763 
-45.6749 18.0691 -5.77426 -39.2397 19.9466 -11.8763 40.8021 18.0691 -11.8763 
37.9818 21.0413 -11.8763 44.417 18.0691 -8.4752 -34.3782 24.5042 -11.8763 
-39.2397 24.5042 -6.15216 -32.8046 25.682 -11.8763 -26.3695 29.3514 -11.8763 
12.2413 30.4113 -11.8763 18.6764 29.8396 -11.8763 25.1116 28.4983 -11.8763 
33.3979 24.5042 -11.8763 31.5467 25.5584 -11.8763 37.9818 24.5042 -7.88642 
-22.9685 30.9394 -11.8763 -26.3695 30.9394 -8.68054 -19.9343 31.8994 -11.8763 
-13.4992 33.3707 -11.8763 -7.06408 33.3229 -11.8763 -0.62895 32.212 -11.8763 
7.92408 30.9394 -11.8763 5.80618 31.1307 -11.8763 12.2413 30.9394 -10.5112 
18.6764 30.9394 -9.58737 25.1116 30.9394 -7.39382 -32.8046 -27.4071 -5.44115 
-26.3695 -29.8431 -5.44115 -19.9343 -31.2624 -5.44115 -13.4992 -31.049 -5.44115 
-13.4992 -33.4119 0.773287 -7.06408 -30.3741 -5.44115 -0.62895 -29.9042 -5.44115 
5.80618 -29.6853 -5.44115 12.2413 -29.3368 -5.44115 18.6764 -29.2546 -5.44115 
25.1116 -29.2188 -5.44115 31.5467 -28.0708 -5.44115 -33.6326 -26.9768 -5.44115 
-39.2397 -23.4441 -5.44115 35.2035 -26.9768 -5.44115 37.9818 -26.0343 -5.44115 
44.417 -22.0543 -5.44115 -42.6823 -20.5417 -5.44115 -45.6749 -17.0839 -5.44115 
46.087 -20.5417 -5.44115 50.8521 -14.397 -5.44115 -47.5423 -14.1065 -5.44115 
51.0177 -14.1065 -5.44115 -50.9775 -7.6714 -5.44115 -52.11 -1.90893 -5.44115 
53.5977 -7.6714 -5.44115 -52.2195 -1.23627 -5.44115 -52.11 0.12239 -5.44115 
54.177 -1.23627 -5.44115 -51.6509 5.19886 -5.44115 53.8629 5.19886 -5.44115 
-49.7738 11.634 -5.44115 51.0288 11.634 -5.44115 50.8521 11.9664 -5.44115 
-45.8636 18.0691 -5.44115 -45.6749 18.3007 -5.44115 46.9598 18.0691 -5.44115 
44.417 20.7838 -5.44115 -39.7235 24.5042 -5.44115 -39.2397 24.9048 -5.44115 
-32.8046 28.8993 -5.44115 31.5467 29.2723 -5.44115 39.9962 24.5042 -5.44115 
37.9818 25.8642 -5.44115 -28.5532 30.9394 -5.44115 -26.3695 31.8864 -5.44115 
-26.3695 30.9394 -1.80556 -19.9343 33.8591 -5.44115 -13.4992 34.9657 -5.44115 
-7.06408 34.6627 -5.44115 -0.62895 33.4599 -5.44115 5.80618 32.4578 -5.44115 
12.2413 32.2552 -5.44115 18.6764 32.2498 -5.44115 27.0653 30.9394 -5.44115 
25.1116 31.6015 -5.44115 25.1116 30.9394 -1.05108 -13.4992 -33.4816 0.993976 
-32.8046 -29.9815 0.993976 -26.3695 -31.9834 0.993976 -14.7771 -33.4119 0.993976 
-19.9343 -33.146 0.993976 -12.6115 -33.4119 0.993976 -13.4992 -33.4119 6.57086 
-7.06408 -32.9656 0.993976 -0.62895 -32.1678 0.993976 5.80618 -31.3275 0.993976 
12.2413 -30.7189 0.993976 18.6764 -30.5197 0.993976 25.1116 -30.4091 0.993976 
31.5467 -29.0165 0.993976 -38.9588 -26.9768 0.993976 -39.2397 -26.8077 0.993976 
37.8432 -26.9768 0.993976 37.9818 -26.9275 0.993976 44.417 -23.2566 0.993976 
-45.4743 -20.5417 0.993976 -45.6749 -20.2897 0.993976 47.4379 -20.5417 0.993976 
44.417 -20.5417 5.81584 50.8521 -16.6361 0.993976 -49.5746 -14.1065 0.993976 
52.5797 -14.1065 0.993976 50.8521 -14.1065 4.2328 -51.8281 -7.6714 0.993976 
-52.11 -5.95632 0.993976 54.8917 -7.6714 0.993976 -52.8859 -1.23627 0.993976 
-52.11 4.25619 0.993976 -52.11 -1.23627 3.32454 54.9959 -1.23627 0.993976 
-51.9748 5.19886 0.993976 54.3404 5.19886 0.993976 50.8521 5.19886 7.39304 
-50.0056 11.634 0.993976 51.2947 11.634 0.993976 50.8521 12.436 0.993976 
50.8521 11.634 1.67012 -46.4107 18.0691 0.993976 -45.6749 18.9328 0.993976 
-45.6749 18.0691 2.76888 46.5814 18.0691 0.993976 44.417 19.8948 0.993976 
44.417 18.0691 3.27762 -39.3333 24.5042 0.993976 -39.2397 24.5786 0.993976 
-39.2397 24.5042 1.16722 -32.8046 27.8873 0.993976 -26.3695 30.1852 0.993976 
25.1116 30.5728 0.993976 31.5467 28.2122 0.993976 31.5467 24.5042 6.57765 
38.1905 24.5042 0.993976 37.9818 24.6453 0.993976 37.9818 24.5042 1.19739 
-23.4543 30.9394 0.993976 -19.9343 31.8644 0.993976 -19.9343 30.9394 2.61097 
-13.4992 32.7099 0.993976 -13.4992 30.9394 3.71412 -7.06408 32.5714 0.993976 
-7.06408 30.9394 4.00356 -0.62895 31.6605 0.993976 -0.62895 30.9394 2.58005 
5.80618 30.9562 0.993976 5.80618 30.9394 1.03484 12.2413 31.153 0.993976 
12.2413 30.9394 1.48242 22.0564 30.9394 0.993976 18.6764 31.3278 0.993976 
18.6764 30.9394 1.80822 -32.8046 -29.153 7.4291 -26.3695 -31.4809 7.4291 
-19.9343 -32.8604 7.4291 -13.4992 -33.4002 7.4291 -7.06408 -32.9421 7.4291 
-0.62895 -31.967 7.4291 5.80618 -30.8228 7.4291 12.2413 -29.8774 7.4291 
18.6764 -29.2719 7.4291 25.1116 -28.5351 7.4291 31.5467 -27.2179 7.4291 
-36.9494 -26.9768 7.4291 -39.2397 -25.4214 7.4291 -32.8046 -26.9768 11.2458 
-0.62895 -26.9768 13.7597 5.80618 -26.9768 12.4532 12.2413 -26.9768 11.5485 
18.6764 -26.9768 10.8464 25.1116 -26.9768 9.49017 32.1412 -26.9768 7.4291 
31.5467 -26.9768 7.76508 37.9818 -24.3293 7.4291 -43.8934 -20.5417 7.4291 
-45.6749 -17.8313 7.4291 -39.2397 -20.5417 12.8777 31.5467 -20.5417 12.8395 
43.2047 -20.5417 7.4291 37.9818 -20.5417 11.2178 44.417 -19.4267 7.4291 
-47.7285 -14.1065 7.4291 -45.6749 -14.1065 10.0564 37.9818 -14.1065 13.4106 
48.8474 -14.1065 7.4291 44.417 -14.1065 11.168 50.8521 -9.01614 7.4291 
-49.6096 -7.6714 7.4291 -45.6749 -7.6714 12.1363 44.417 -7.6714 12.5569 
51.4548 -7.6714 7.4291 50.8521 -7.6714 7.96406 -50.6046 -1.23627 7.4291 
-45.6749 -1.23627 12.9239 44.417 -1.23627 12.6762 51.8596 -1.23627 7.4291 
50.8521 5.02615 7.4291 50.8521 -1.23627 8.2412 -49.416 5.19886 7.4291 
-45.6749 5.19886 11.6957 50.8196 5.19886 7.4291 44.417 5.19886 11.6723 
-47.3586 11.634 7.4291 -45.6749 14.4395 7.4291 -45.6749 11.634 9.37247 
31.5467 11.634 13.4581 37.9818 11.634 11.767 46.6676 11.634 7.4291 
44.417 14.3014 7.4291 44.417 11.634 9.17266 -42.9634 18.0691 7.4291 
-39.2397 21.3627 7.4291 -39.2397 18.0691 10.7779 -32.8046 18.0691 13.761 
[...]
POINT_DATA 538
SCALARS ImageScalars float
LOOKUP_TABLE default
0 0 0 0 0 0 0 0 0 
0 0 0 0 0 0 0 0 0 
0 0 0 0 0 0 0 0 0 
0 0 0 0 0 0 0 0 0 
0 0 0 0 0 0 0 0 0 
0 0 0 0 0 0 0 0 0 
0 0 0 0 0 0 0 0 0 
0 0 0 0 0 0 0 0 0 
0 0 0 0 0 0 0 0 0 
0 0 0 0 0 0 0 0 0 
0 0 0 0 0 0 0 0 0 
0 0 0 0 0 0 0 0 0 
0 0 0 0 0 0 0 0 0 
0 0 0 0 0 0 0 0 0 
0 0 0 0 0 0 0 0 0 
0 0 0 0 0 0 0 0 0 
0 0 0 0 0 0 0 0 0 
0 0 0 0 0 0 0 0 0 
0 0 0 0 0 0 0 0 0 
0 0 0 0 0 0 0 0 0 
0 0 0 0 0 0 0 0 0 
0 0 0 0 0 0 0 0 0 
0 0 0 0 0 0 0 0 0 
0 0 0 0 0 0 0 0 0 
0 0 0 0 0 0 0 0 0 
0 0 0 0 0 0 0 0 0 
0 0 0 0 0 0 0 0 0 
0 0 0 0 0 0 0 0 0 
0 0 0 0 0 0 0 0 0 
0 0 0 0 0 0 0 0 0 
0 0 0 0 0 0 0 0 0 
0 0 0 0 0 0 0 0 0 
0 0 0 0 0 0 0 0 0 
0 0 0 0 0 0 0 0 0 
0 0 0 0 0 0 0 0 0 
0 0 0 0 0 0 0 0 0 
0 0 0 0 0 0 0 0 0 
0 0 0 0 0 0 0 0 0 
0 0 0 0 0 0 0 0 0 
0 0 0 0 0 0 0 0 0 
0 0 0 0 0 0 0 0 0 
0 0 0 0 0 0 0 0 0 
0 0 0 0 0 0 0 0 0 
0 0 0 0 0 0 0 0 0 
0 0 0 0 0 0 0 0 0 
0 0 0 0 0 0 0 0 0 
0 0 0 0 0 0 0 0 0 
0 0 0 0 0 0 0 0 0 
0 0 0 0 0 0 0 0 0 
0 0 0 0 0 0 0 0 0 
0 0 0 0 0 0 0 0 0 
0 0 0 0 0 0 0 0 0 
0 0 0 0 0 0 0 0 0 
0 0 0 0 0 0 0 0 0 
0 0 0 0 0 0 0 0 0 
0 0 0 0 0 0 0 0 0 
0 0 0 0 0 0 0 0 0 
0 0 0 0 0 0 0 0 0 
0 0 0 0 0 0 0 0 0 
0 0 0 0 0 0 0 
NORMALS Normals float
0.106907 0.353608 0.929264 0.056976 0.295553 0.953626 0.0262592 0.306289 0.951576 
0.0282669 0.422577 0.905886 0.0620515 0.443446 0.894151 0.0333145 0.394621 0.91824 
0.0271376 0.395773 0.917948 0.00452006 0.401088 0.916028 -0.0802082 0.419329 0.904284 
-0.194379 0.409407 0.891405 -0.346337 0.474861 0.809047 0.358938 0.373427 0.855404 
0.142797 0.262358 0.954346 0.0281854 0.19175 0.981039 0.0289726 0.13523 0.990391 
0.127256 0.125006 0.983961 0.129638 0.305093 0.943458 0.00135705 0.17155 0.985174 
-0.0234665 0.183552 0.98273 0.00975319 0.176066 0.98433 0.0273757 0.0677003 0.99733 
-0.0919643 0.0872133 0.991936 -0.181368 0.125034 0.975434 -0.225914 0.198442 0.953721 
0.244714 0.247163 0.937563 0.0727419 0.187126 0.979639 -0.0185248 0.167033 0.985777 
-0.0190908 0.119249 0.992681 0.211283 0.0752439 0.974524 0.0914259 0.135869 0.986499 
-0.0620008 -0.168439 0.98376 0.0378352 0.093773 0.994874 -0.0859872 0.0519684 0.99494 
-0.0921461 -0.142445 0.985504 -0.0310515 -0.1183 0.992492 -0.0701506 0.0146845 0.997428 
-0.146417 0.0655174 0.987051 -0.331425 0.118252 0.936042 0.529799 0.0912613 0.843199 
0.241881 0.127249 0.961926 0.0620893 0.148701 0.986931 -0.0479886 0.131173 0.990197 
-0.0661141 0.113144 0.991376 0.147746 0.0266289 0.988667 -0.078846 -0.0206018 0.996674 
-0.0766598 0.0356202 0.996421 0.204413 0.0423642 0.977968 -0.256219 -0.0885132 0.962558 
-0.0975809 -0.074176 0.99246 0.0625448 -0.0324753 0.997514 -0.00851053 0.00247082 0.999961 
-0.1425 0.0302452 0.989333 -0.365566 0.0245447 0.930462 0.550143 -0.0908865 0.83011 
0.306187 -0.039933 0.951133 0.0701761 0.00234618 0.997532 -0.0561733 0.0227603 0.998162 
-0.121633 0.0374858 0.991867 0.0491641 0.00586957 0.998773 0.100509 -0.164517 0.98124 
0.00982282 0.129502 0.991531 -0.0645666 -0.109362 0.991903 -0.200861 -0.0267706 0.979254 
-0.0383366 0.137368 0.989778 0.0425174 0.0756739 0.996226 -0.00583339 0.0279281 0.999593 
-0.150842 -0.0472556 0.987428 -0.290204 -0.0924369 0.95249 0.336415 -0.212785 0.917359 
0.124668 -0.0866544 0.988407 -0.0131485 -0.0391294 0.999148 -0.0839485 0.014399 0.996366 
-0.0408642 0.0786278 0.996066 0.025853 -0.0381951 0.998936 0.0105512 -0.0260731 0.999604 
0.0117073 -0.0747122 0.997136 0.0098708 0.0662346 0.997755 -0.0213158 0.153431 0.987929 
-0.0426656 0.100022 0.99407 -0.129524 0.00213263 0.991574 -0.238479 -0.118606 0.963878 
0.475537 -0.406823 0.779974 0.243724 -0.25149 0.93667 0.0454997 -0.15722 0.986515 
-0.00604047 -0.0107478 0.999924 0.00206318 0.0569789 0.998373 -0.0150102 0.065783 0.997721 
-0.0230146 0.0302262 0.999278 0.0273792 -0.0011546 0.999624 0.0472235 -0.0210985 0.998662 
-0.0105671 -0.00128184 0.999943 -0.121043 -0.0845357 0.989041 -0.224826 -0.175462 0.958471 
-0.398515 -0.266645 0.877545 0.409963 -0.561387 0.718871 0.2313 -0.378637 0.896178 
0.137624 -0.221788 0.965334 0.0380324 -0.160733 0.986265 0.000451546 -0.151691 0.988428 
-0.0594532 -0.188995 0.980177 -0.0424658 -0.269213 0.962144 0.000297028 -0.327748 0.944765 
-0.0893011 -0.355016 0.930585 -0.215647 -0.431805 0.875809 -0.333051 -0.563484 0.756018 
0.24199 -0.707997 0.663461 0.0867399 -0.604892 0.791569 -0.0574003 -0.641467 0.765 
-0.15316 -0.728345 0.667874 -0.130553 -0.822503 0.553575 0.370192 0.748473 0.550223 
0.125181 0.413678 0.901776 0.217018 0.671652 0.708369 0.0644553 0.40636 0.911437 
0.0656866 0.610665 0.78916 0.00462196 0.45216 0.891925 -0.022382 0.63559 0.771703 
0.00398354 0.508325 0.861156 -0.0324503 0.675701 0.736461 0.0467301 0.569478 0.820677 
0.00693962 0.734741 0.678312 0.027266 0.599244 0.800102 0.00332158 0.773119 0.634252 
0.000899924 0.617712 0.786404 -0.018542 0.804278 0.593964 0.000239598 0.641274 0.767312 
-0.00878639 0.822846 0.568197 -0.0671492 0.62823 0.775124 -0.0679321 0.814682 0.575916 
-0.210869 0.536007 0.817454 -0.231328 0.862076 0.450902 -0.346872 0.481745 0.804737 
0.367535 0.39937 0.839894 0.464373 0.579802 0.669468 0.236521 0.420361 0.875988 
0.257782 0.418437 0.870896 0.275048 0.442503 0.853545 -0.350941 0.477347 0.805593 
-0.577731 0.641323 0.504907 0.394329 0.377755 0.837739 0.666228 0.442389 0.60036 
-0.403074 0.333771 0.852132 -0.403197 0.333479 0.852188 -0.403545 0.334097 0.851781 
-0.818964 0.408027 0.403499 0.499841 0.294345 0.814567 0.544371 0.228671 0.807075 
0.561971 0.312446 0.765876 -0.476263 0.113205 0.871985 -0.697086 0.136386 0.703897 
0.584899 0.101907 0.804679 0.947372 0.0432778 0.317195 -0.479424 0.0564839 0.875764 
-0.705639 0.049822 0.706817 0.607071 -0.0954322 0.788896 0.593225 -0.224669 0.773051 
-0.572268 -0.0673483 0.817296 -0.414908 -0.307828 0.856209 -0.670628 -0.0753749 0.737954 
0.576835 -0.300097 0.759739 0.649071 -0.335812 0.682596 -0.415015 -0.307754 0.856183 
-0.420323 -0.312508 0.851861 -0.85303 -0.434644 0.288832 0.547517 -0.443592 0.709543 
0.764192 -0.577776 0.28668 0.518698 -0.490272 0.700418 -0.490728 -0.349834 0.797999 
-0.465049 -0.461097 0.755724 -0.676224 -0.551184 0.488792 0.470868 -0.590647 0.655301 
0.612402 -0.749223 0.252249 0.442546 -0.62057 0.647337 0.357033 -0.691016 0.628509 
-0.0700289 -0.821641 0.565687 -0.109867 -0.797008 0.593892 -0.238924 -0.702149 0.670748 
-0.387769 -0.602176 0.697867 -0.351968 -0.62145 0.699941 -0.54587 -0.774689 0.319191 
0.320842 -0.754177 0.572954 0.384192 -0.880125 0.278883 0.261396 -0.775423 0.574797 
0.104507 -0.802302 0.587699 -0.0933868 -0.830138 0.549681 -0.17232 -0.833888 0.524344 
-0.111167 -0.835476 0.538164 -0.131272 -0.835128 0.534162 -0.0622989 -0.899431 0.4326 
-0.087088 -0.922648 0.37568 -0.231829 -0.943247 0.237783 0.376438 0.762538 0.526146 
0.240347 0.834704 0.495483 0.0799228 0.860388 0.503333 -0.0591886 0.847885 0.526865 
-0.0137832 0.986821 0.161228 -0.0779843 0.844465 0.529903 -0.0480001 0.874729 0.48223 
-0.0409086 0.914076 0.403474 -0.0315371 0.930095 0.365963 -0.00870432 0.93303 0.359693 
-0.0881696 0.93072 0.354945 -0.219336 0.924785 0.310909 0.394646 0.75533 0.523192 
0.512493 0.677045 0.528168 -0.297051 0.893184 0.337613 -0.368112 0.85574 0.363597 
-0.58251 0.714047 0.388355 0.605029 0.625116 0.493123 0.693273 0.544992 0.471547 
-0.628034 0.668796 0.397851 -0.821835 0.419126 0.385903 0.742812 0.46643 0.480284 
-0.826364 0.408157 0.387984 0.886896 0.288039 0.361178 0.949754 0.066279 0.3059 
-0.88305 0.231731 0.408073 0.95238 0.0416384 0.302057 0.95593 -0.00101056 0.293592 
-0.893663 0.0172957 0.448406 0.95009 -0.162366 0.266394 -0.919316 -0.227907 0.320806 
0.887177 -0.389916 0.246744 -0.860105 -0.435214 0.266098 -0.8564 -0.444339 0.262949 
0.769363 -0.580133 0.267442 0.763932 -0.587817 0.266231 -0.749176 -0.616827 0.241372 
-0.69915 -0.683822 0.20875 0.617958 -0.757525 0.210435 0.609324 -0.765509 0.20669 
0.491611 -0.862727 0.118413 -0.385283 -0.914753 0.121588 -0.59063 -0.793513 0.146603 
-0.546697 -0.825338 0.141204 0.395934 -0.917336 0.0415936 0.34792 -0.937401 0.0151781 
0.315837 -0.927788 -0.198637 0.226069 -0.974008 -0.0141725 0.0626776 -0.997112 -0.0428802 
-0.116552 -0.991614 -0.0558273 -0.171364 -0.984328 -0.0416267 -0.0928301 -0.995555 -0.0158847 
-0.0161582 -0.999109 0.0389823 -0.0546021 -0.995184 0.0814114 -0.265642 -0.959288 0.0959209 
-0.216421 -0.971925 0.0923211 -0.223568 -0.95677 -0.186032 -0.0118928 0.988605 0.150064 
0.398489 0.911608 0.100883 0.231119 0.967714 0.100566 0.0126787 0.990318 0.138235 
0.109274 0.98972 0.0922724 -0.0240163 0.987997 0.152594 0.00447232 0.982536 -0.186017 
-0.100156 0.980679 0.168041 -0.125135 0.982186 0.140185 -0.110917 0.990414 0.0823205 
-0.0623903 0.997331 0.037922 -0.0238884 0.999714 0.000531908 -0.116116 0.992241 -0.0444436 
-0.24533 0.967656 -0.0587869 0.558757 0.824196 0.0921493 0.567533 0.818281 0.0912335 
-0.39096 0.913761 -0.110419 -0.394882 0.911932 -0.111573 -0.595049 0.792668 -0.132648 
0.754312 0.655844 0.0296966 0.762927 0.64592 0.0270124 -0.6879 0.717758 -0.107785 
-0.563117 0.674694 -0.477166 -0.818338 0.563745 -0.111866 0.907563 0.419898 -0.00387038 
-0.880482 0.458773 -0.119494 -0.836782 0.423153 -0.347474 0.967072 0.234451 -0.0990173 
0.978885 0.175551 -0.104718 -0.976228 0.187032 -0.109538 0.994668 0.012378 -0.102382 
0.974579 -0.169629 -0.146362 0.967063 0.00413179 -0.254504 -0.99386 -0.0389089 -0.103576 
0.967784 -0.201172 -0.151407 -0.954724 -0.257164 -0.149562 -0.646464 -0.307641 -0.69817 
0.902406 -0.40454 -0.148361 -0.861897 -0.445478 -0.242246 -0.848451 -0.468428 -0.246386 
-0.84767 -0.447918 -0.284298 0.783832 -0.605421 -0.138103 0.75822 -0.635752 -0.144643 
0.752833 -0.612053 -0.242142 -0.654449 -0.697334 -0.292271 -0.600787 -0.741921 -0.297671 
-0.589656 -0.682741 -0.431474 0.56366 -0.80133 -0.200393 0.561225 -0.803038 -0.200389 
0.56104 -0.801002 -0.208879 0.381907 -0.882895 -0.27321 0.271863 -0.891388 -0.362653 
-0.220353 -0.92119 -0.320708 -0.36979 -0.867404 -0.332963 -0.348441 -0.661791 -0.663793 
-0.522262 -0.782903 -0.338089 -0.519207 -0.784335 -0.339473 -0.517323 -0.781213 -0.349403 
0.226772 -0.892879 -0.389026 0.172544 -0.894663 -0.412075 0.160855 -0.868697 -0.468498 
0.0515058 -0.881848 -0.468713 0.0559183 -0.840334 -0.539177 -0.0752297 -0.908683 -0.410654 
-0.0344366 -0.865496 -0.499731 -0.115656 -0.929509 -0.350197 -0.101073 -0.910757 -0.400381 
-0.0355151 -0.949635 -0.311338 -0.0354755 -0.949137 -0.312857 0.026983 -0.955744 -0.292961 
0.0247529 -0.949372 -0.313178 -0.137107 -0.941296 -0.308487 -0.0431982 -0.954027 -0.296592 
-0.046219 -0.940977 -0.3353 0.412656 0.862212 -0.293778 0.259632 0.931503 -0.254741 
0.140335 0.965181 -0.22075 0.00695348 0.971534 -0.236797 -0.102739 0.963961 -0.245405 
-0.158232 0.943736 -0.290386 -0.15796 0.929429 -0.333483 -0.115026 0.92825 -0.353724 
-0.100207 0.914469 -0.392053 -0.153614 0.866366 -0.475198 -0.284566 0.831548 -0.477021 
0.517686 0.795373 -0.315249 0.594748 0.728375 -0.340214 0.413744 0.750636 -0.515133 
-0.153715 0.517607 -0.841697 -0.128049 0.642773 -0.755279 -0.0905977 0.741237 -0.665101 
-0.11511 0.767869 -0.630179 -0.163757 0.785506 -0.596795 -0.29621 0.825532 -0.480372 
-0.285177 0.819049 -0.497828 -0.408042 0.738488 -0.536784 0.738911 0.571265 -0.357305 
0.775653 0.490073 -0.397733 0.553745 0.450562 -0.700258 -0.207333 0.439856 -0.873808 
-0.507239 0.63247 -0.585398 -0.378109 0.513356 -0.770389 -0.533582 0.595155 -0.600899 
0.821093 0.376483 -0.429029 0.714398 0.338906 -0.612191 -0.273847 0.241375 -0.930992 
-0.712614 0.358557 -0.603007 -0.454664 0.362132 -0.813721 -0.713828 0.219244 -0.665117 
0.839053 0.196389 -0.507368 0.645347 0.152909 -0.748429 -0.444382 0.109391 -0.889133 
-0.704782 0.190535 -0.683358 -0.68498 0.174623 -0.707326 0.845003 -0.0120798 -0.534625 
0.583316 -0.0266003 -0.811809 -0.432731 -0.055811 -0.899794 -0.6991 -0.0316783 -0.714322 
-0.645992 -0.300257 -0.701812 -0.666504 -0.0363342 -0.744616 0.836208 -0.211259 -0.506089 
0.614262 -0.199756 -0.7634 -0.643798 -0.306964 -0.700926 -0.4383 -0.24814 -0.863898 
0.768316 -0.382921 -0.512896 0.707579 -0.475878 -0.522371 0.694662 -0.384103 -0.608202 
-0.171287 -0.29607 -0.939683 -0.299041 -0.36921 -0.879919 -0.56686 -0.428336 -0.703703 
-0.514527 -0.481209 -0.709718 -0.470403 -0.403719 -0.784686 0.62022 -0.586781 -0.520591 
0.522684 -0.672449 -0.524036 0.493164 -0.547189 -0.676294 0.250773 -0.48239 -0.839293 
-0.104924 -0.283889 -0.953099 -0.00723067 -0.20605 -0.978515 -0.0230867 -0.26991 -0.962609 
-0.0494515 -0.245595 -0.96811 0.00114084 -0.24887 -0.968536 -0.0439514 -0.293404 -0.954978 
-0.15418 -0.331535 -0.930759 -0.326458 -0.613228 -0.719289 -0.249305 -0.438209 -0.863609 
-0.445472 -0.548215 -0.707824 -0.406355 -0.574519 -0.710495 -0.386726 -0.516632 -0.763894 
0.3334 -0.783549 -0.524305 0.317208 -0.789472 -0.525465 0.316875 -0.782791 -0.535564 
0.180047 -0.799588 -0.572924 0.140627 -0.715372 -0.684447 0.0973103 -0.74967 -0.654619 
0.0502384 -0.654403 -0.754475 0.0649185 -0.737494 -0.672227 0.0492224 -0.564155 -0.8242 
0.00626531 -0.760026 -0.649863 0.0101012 -0.512019 -0.858915 -0.0636862 -0.784928 -0.616305 
-0.0585051 -0.553738 -0.830633 -0.0346535 -0.761126 -0.647677 -0.041351 -0.571722 -0.819405 
-0.00260564 -0.76504 -0.643978 -0.0102128 -0.556173 -0.831004 -0.0952073 -0.731989 -0.674632 
-0.0870941 -0.555324 -0.827061 -0.307811 -0.634532 -0.708958 -0.233236 -0.67434 -0.700618 
-0.228721 -0.601787 -0.765205 0.228564 0.679926 -0.696749 0.0789632 0.688976 -0.72047 
-0.0439797 0.660741 -0.749324 -0.124877 0.572117 -0.81061 0.287384 0.657091 -0.696881 
0.382219 0.560581 -0.734614 0.216765 0.632483 -0.743625 0.0554471 0.573538 -0.8173 
-0.057783 0.54035 -0.839454 -0.150958 0.511185 -0.84611 -0.126915 0.490206 -0.862317 
-0.150927 0.502421 -0.851349 -0.0867152 0.485646 -0.869844 -0.0561944 0.485316 -0.872531 
-0.108035 0.458888 -0.881902 -0.162334 0.422349 -0.891778 0.486993 0.410975 -0.770673 
0.511625 0.342719 -0.787898 0.335907 0.34856 -0.875027 0.187427 0.301404 -0.934894 
-0.0125981 0.252091 -0.967622 -0.105931 0.223735 -0.968876 -0.16777 0.209396 -0.963331 
-0.0964635 0.245393 -0.964612 -0.0361274 0.327347 -0.944213 -0.0431614 0.310386 -0.94963 
-0.0986367 0.319423 -0.942465 -0.169519 0.4052 -0.898374 -0.157794 0.398763 -0.903377 
-0.205186 0.316607 -0.926099 0.506776 0.219918 -0.833556 0.475628 0.203006 -0.855901 
0.272599 0.167931 -0.947359 0.105092 0.0393512 -0.993684 -0.00885965 -0.0097416 -0.999913 
-0.127967 0.0164863 -0.991641 -0.121909 0.0877485 -0.988655 -0.0232634 0.195196 -0.980488 
-0.0341884 0.228605 -0.972919 -0.0854639 0.111822 -0.990046 -0.0473176 0.0956269 -0.994292 
-0.102174 0.161331 -0.981597 -0.250447 0.231474 -0.940051 -0.198836 0.21014 -0.957239 
-0.263593 0.194278 -0.944868 0.538352 0.114445 -0.834913 0.438009 0.0555345 -0.897254 
0.19211 -0.00115471 -0.981373 0.00785018 -0.0490299 -0.998766 -0.0378609 -0.140312 -0.989383 
-0.0193043 -0.132329 -0.991018 0.0158763 0.0127842 -0.999792 0.0423011 -0.015681 -0.998982 
-0.122168 -0.0183107 -0.992341 -0.180512 -0.0194718 -0.98338 -0.0419582 -0.010451 -0.999065 
-0.032922 0.0199733 -0.999258 -0.122694 0.0829614 -0.988971 -0.326619 0.112268 -0.938464 
-0.247479 0.106804 -0.962989 0.506575 -0.0313911 -0.861624 0.343445 -0.0443085 -0.938127 
0.186995 -0.0842888 -0.978738 -0.0311425 -0.0868957 -0.995731 -0.0929934 -0.100312 -0.990601 
0.0253622 -0.195342 -0.980407 -0.00752272 -0.172122 -0.985047 -0.0608571 -0.16711 -0.984058 
-0.0337005 -0.235544 -0.971279 -0.0710099 -0.131271 -0.9888 -0.00963387 -0.072658 -0.99731 
-0.0111845 -0.0726922 -0.997292 -0.109204 -0.0717737 -0.991425 -0.328875 -0.0604804 -0.942435 
-0.243286 -0.0650934 -0.967768 0.450513 -0.163978 -0.877581 0.377408 -0.136395 -0.915948 
0.163048 -0.134098 -0.977463 -0.00586887 -0.115309 -0.993312 -0.150679 -0.100742 -0.983436 
-0.0991452 -0.13997 -0.985179 0.0564776 -0.280617 -0.958157 -0.0133661 -0.127683 -0.991725 
-0.0940795 -0.216813 -0.971669 -0.0238314 -0.183926 -0.982651 0.0163806 -0.135523 -0.990639 
-0.0329179 -0.159851 -0.986592 -0.157516 -0.268045 -0.950442 -0.11804 -0.189318 -0.974795 
-0.220407 -0.214061 -0.951629 -0.220195 -0.214256 -0.951635 -0.220023 -0.213972 -0.951738 
0.416839 -0.283172 -0.863747 0.411073 -0.29397 -0.862903 0.405919 -0.280323 -0.869855 
0.248189 -0.470935 -0.846536 0.183948 -0.230348 -0.955564 0.00425768 -0.202367 -0.979301 
-0.112378 -0.186049 -0.976093 -0.110382 -0.270462 -0.956382 -0.147157 -0.15552 -0.97681 
-0.00858243 -0.188706 -0.981996 -0.00760418 -0.182214 -0.983229 -0.021296 -0.259924 -0.965394 
-0.0116891 -0.22284 -0.974785 -0.0726162 -0.216018 -0.973685 -0.0784144 -0.211953 -0.974129 
0.0188141 -0.187936 -0.982001 0.0221376 -0.174607 -0.984389 -0.00856523 -0.221983 -0.975013 
0.0102511 -0.180089 -0.983597 -0.114823 -0.26229 -0.958134 -0.0821161 -0.247594 -0.965378 
-0.0659521 -0.233474 -0.970124 0.236585 -0.477522 -0.846168 0.0824013 -0.496694 -0.864005 
0.0592711 -0.428816 -0.901445 -0.103837 -0.295168 -0.949786 -0.0582742 -0.431308 -0.900321 
-0.0893408 -0.361066 -0.928251 
