# vtk DataFile Version 4.2
vtk output
ASCII
DATASET POLYDATA
POINTS 526 float
-28.1113 -35.2569 -16.4836 -20.3591 -35.2569 -18.2298 -12.607 -35.2569 -19.0188 
-4.85481 -35.2569 -18.8695 2.89734 -35.2569 -17.7453 10.6495 -35.2569 -16.2048 
-35.8634 -27.5047 -16.7865 -28.1113 -27.5047 -18.7662 -20.3591 -27.5047 -19.7658 
-12.607 -27.5047 -20.6365 -4.85481 -27.5047 -19.9925 2.89734 -27.5047 -19.7161 
10.6495 -27.5047 -19.6076 18.4016 -27.5047 -18.5531 26.1538 -27.5047 -16.758 
-43.6156 -19.7526 -15.3094 -35.8634 -19.7526 -17.4977 -28.1113 -19.7526 -19.1111 
-20.3591 -19.7526 -19.6115 -12.607 -19.7526 -19.9918 -4.85481 -19.7526 -19.7102 
2.89734 -19.7526 -19.7735 10.6495 -19.7526 -19.8612 18.4016 -19.7526 -19.7387 
26.1538 -19.7526 -19.2144 33.9059 -19.7526 -18.4247 41.6581 -19.7526 -15.2509 
-43.6156 -12.0004 -14.5762 -35.8634 -12.0004 -16.9946 -28.1113 -12.0004 -18.4623 
-20.3591 -12.0004 -19.3342 -12.607 -12.0004 -19.4874 -4.85481 -12.0004 -18.7284 
2.89734 -12.0004 -19.8849 10.6495 -12.0004 -19.6952 18.4016 -12.0004 -19.1959 
26.1538 -12.0004 -20.1409 33.9059 -12.0004 -20.4963 41.6581 -12.0004 -18.6915 
49.4102 -12.0004 -15.5346 -43.6156 -4.24827 -14.6115 -35.8634 -4.24827 -16.5669 
-28.1113 -4.24827 -17.6742 -20.3591 -4.24827 -19.1921 -12.607 -4.24827 -21.7782 
-4.85481 -4.24827 -19.0755 2.89734 -4.24827 -20.3151 10.6495 -4.24827 -19.9772 
18.4016 -4.24827 -18.3818 26.1538 -4.24827 -19.5911 33.9059 -4.24827 -20.2415 
41.6581 -4.24827 -19.8698 49.4102 -4.24827 -17.6086 -43.6156 3.50388 -14.3893 
-35.8634 3.50388 -16.0866 -28.1113 3.50388 -16.7487 -20.3591 3.50388 -17.4177 
-12.607 3.50388 -19.6763 -4.85481 3.50388 -18.1089 2.89734 3.50388 -20.1545 
10.6495 3.50388 -19.6305 18.4016 3.50388 -18.5097 26.1538 3.50388 -19.7107 
33.9059 3.50388 -20.3317 41.6581 3.50388 -19.8766 49.4102 3.50388 -17.6343 
-43.6156 11.256 -14.8776 -35.8634 11.256 -15.9416 -28.1113 11.256 -16.4581 
-20.3591 11.256 -16.1617 -12.607 11.256 -15.5516 -4.85481 11.256 -17.3187 
2.89734 11.256 -19.8724 10.6495 11.256 -19.3854 18.4016 11.256 -19.3994 
26.1538 11.256 -19.9782 33.9059 11.256 -20.0102 41.6581 11.256 -18.8915 
49.4102 11.256 -15.8934 -35.8634 19.0082 -14.9499 -28.1113 19.0082 -15.76 
-20.3591 19.0082 -16.0139 -12.607 19.0082 -16.5125 -4.85481 19.0082 -17.8322 
2.89734 19.0082 -19.1375 10.6495 19.0082 -19.7262 18.4016 19.0082 -20.157 
26.1538 19.0082 -20.0017 33.9059 19.0082 -19.1312 41.6581 19.0082 -16.4399 
-35.8634 26.7603 -14.7291 -28.1113 26.7603 -15.3067 -20.3591 26.7603 -16.0984 
-12.607 26.7603 -17.0473 -4.85481 26.7603 -18.2021 2.89734 26.7603 -18.8099 
10.6495 26.7603 -19.8687 18.4016 26.7603 -19.6136 26.1538 26.7603 -18.9946 
33.9059 26.7603 -16.0837 -20.3591 34.5125 -14.651 -12.607 34.5125 -16.2717 
-4.85481 34.5125 -16.6911 2.89734 34.5125 -17.4889 10.6495 34.5125 -17.7459 
18.4016 34.5125 -17.2155 26.1538 34.5125 -15.1886 -28.1113 -37.8412 -14.1757 
-20.3591 -40.1939 -14.1757 -12.607 -40.9228 -14.1757 -12.607 -43.009 -6.68752 
-4.85481 -40.4763 -14.1757 2.89734 -39.125 -14.1757 10.6495 -37.2154 -14.1757 
-33.2964 -35.2569 -14.1757 -35.8634 -33.0131 -14.1757 -35.8634 -35.2569 -12.5619 
15.7019 -35.2569 -14.1757 18.4016 -33.9379 -14.1757 18.4016 -35.2569 -8.79154 
26.1538 -30.4011 -14.1757 -40.1307 -27.5047 -14.1757 -43.6156 -22.8863 -14.1757 
-43.6156 -27.5047 -11.6001 31.6718 -27.5047 -14.1757 33.9059 -26.1485 -14.1757 
33.9059 -27.5047 -11.6423 41.6581 -21.0499 -14.1757 -45.2365 -19.7526 -14.1757 
-51.3677 -19.7526 -7.52918 43.4504 -19.7526 -14.1757 49.4102 -14.3204 -14.1757 
49.4102 -19.7526 -8.16155 -44.4105 -12.0004 -14.1757 -51.3677 -12.0004 -10.0877 
51.3183 -12.0004 -14.1757 57.1624 -12.0004 -7.27875 -44.5943 -4.24827 -14.1757 
-51.3677 -4.24827 -10.8861 54.8436 -4.24827 -14.1757 57.1624 -4.24827 -12.0625 
-44.1413 3.50388 -14.1757 -51.3677 3.50388 -11.0403 54.8988 3.50388 -14.1757 
57.1624 3.50388 -12.0994 -45.0842 11.256 -14.1757 -51.3677 11.256 -10.3962 
-43.6156 15.3263 -14.1757 51.8445 11.256 -14.1757 49.4102 14.7647 -14.1757 
57.1624 11.256 -7.98798 -51.3677 19.0082 -8.81749 -39.8245 19.0082 -14.1757 
-43.6156 19.0082 -13.3247 45.5032 19.0082 -14.1757 41.6581 22.8751 -14.1757 
49.4102 19.0082 -10.8215 -37.113 26.7603 -14.1757 -43.6156 26.7603 -10.548 
-35.8634 27.9947 -14.1757 -28.1113 32.2372 -14.1757 37.5439 26.7603 -14.1757 
33.9059 29.6804 -14.1757 41.6581 26.7603 -10.3924 -35.8634 34.5125 -10.3003 
-24.1167 34.5125 -14.1757 -28.1113 34.5125 -13.588 -20.3591 35.3431 -14.1757 
-12.607 38.5797 -14.1757 -4.85481 38.9628 -14.1757 2.89734 39.7224 -14.1757 
10.6495 39.8868 -14.1757 18.4016 38.3935 -14.1757 27.782 34.5125 -14.1757 
26.1538 35.4533 -14.1757 33.9059 34.5125 -7.16498 -28.1113 42.2646 -6.52075 
-20.3591 42.2646 -8.65305 -12.607 42.2646 -10.567 -4.85481 42.2646 -11.1823 
2.89734 42.2646 -11.3159 10.6495 42.2646 -10.434 -12.607 -43.0608 -6.42357 
-35.8634 -38.9306 -6.42357 -28.1113 -41.7358 -6.42357 -14.0272 -43.009 -6.42357 
-20.3591 -42.7742 -6.42357 -11.1788 -43.009 -6.42357 -12.607 -43.009 -6.18015 
-4.85481 -42.778 -6.42357 2.89734 -41.5528 -6.42357 10.6495 -39.2102 -6.42357 
18.4016 -35.6902 -6.42357 -41.4175 -35.2569 -6.42357 -43.6156 -33.1484 -6.42357 
19.4002 -35.2569 -6.42357 18.4016 -35.2569 -3.54183 26.1538 -32.3979 -6.42357 
33.9059 -29.3652 -6.42357 -48.6423 -27.5047 -6.42357 -51.3677 -21.9348 -6.42357 
37.8521 -27.5047 -6.42357 41.6581 -25.5993 -6.42357 49.4102 -20.8846 -6.42357 
-52.3029 -19.7526 -6.42357 50.6959 -19.7526 -6.42357 57.1624 -12.7786 -6.42357 
-55.1995 -12.0004 -6.42357 57.703 -12.0004 -6.42357 -56.7477 -4.24827 -6.42357 
61.1094 -4.24827 -6.42357 -57.0001 3.50388 -6.42357 -59.1199 3.50388 0.177639 
61.1971 3.50388 -6.42357 -56.3721 11.256 -6.42357 58.2024 11.256 -6.42357 
57.1624 13.1915 -6.42357 -53.3083 19.0082 -6.42357 -51.3677 25.8295 -6.42357 
53.1978 19.0082 -6.42357 49.4102 22.7492 -6.42357 -51.0025 26.7603 -6.42357 
-51.3677 26.7603 -5.5071 -43.6156 33.053 -6.42357 44.9494 26.7603 -6.42357 
41.6581 29.3588 -6.42357 -42.0169 34.5125 -6.42357 -43.6156 34.5125 -4.14326 
-35.8634 39.6489 -6.42357 18.4016 41.9447 -6.42357 26.1538 39.0785 -6.42357 
34.4426 34.5125 -6.42357 33.9059 34.8532 -6.42357 -28.402 42.2646 -6.42357 
-28.1113 42.3393 -6.42357 -20.3591 43.826 -6.42357 -12.607 44.6152 -6.42357 
-4.85481 44.9672 -6.42357 2.89734 44.7403 -6.42357 17.0621 42.2646 -6.42357 
10.6495 43.7532 -6.42357 10.6495 42.2646 1.32584 -35.8634 -38.5197 1.32858 
-28.1113 -40.6494 1.32858 -20.3591 -41.2029 1.32858 -12.607 -41.3645 1.32858 
-4.85481 -41.2289 1.32858 2.89734 -40.1062 1.32858 10.6495 -37.7724 1.32858 
-41.3711 -35.2569 1.32858 -43.6156 -33.6325 1.32858 16.6279 -35.2569 1.32858 
18.4016 -34.5751 1.32858 26.1538 -32.2286 1.32858 33.9059 -29.3539 1.32858 
-49.7165 -27.5047 1.32858 -51.3677 -25.0962 1.32858 39.0288 -27.5047 1.32858 
41.6581 -26.501 1.32858 49.4102 -22.7064 1.32858 -54.5194 -19.7526 1.32858 
52.7977 -19.7526 1.32858 57.1624 -15.3597 1.32858 -57.4053 -12.0004 1.32858 
59.6343 -12.0004 1.32858 -58.8819 -4.24827 1.32858 -59.1199 -0.634114 1.32858 
62.9775 -4.24827 1.32858 -59.3886 3.50388 1.32858 -59.1199 8.98642 1.32858 
-59.1199 3.50388 2.18123 63.0042 3.50388 1.32858 -59.0043 11.256 1.32858 
60.2462 11.256 1.32858 57.1624 16.2944 1.32858 -56.6239 19.0082 1.32858 
55.0762 19.0082 1.32858 49.4102 24.7343 1.32858 -53.0124 26.7603 1.32858 
-51.3677 29.1266 1.32858 -51.3677 26.7603 5.25725 46.7911 26.7603 1.32858 
41.6581 30.2543 1.32858 -46.7064 34.5125 1.32858 -43.6156 37.023 1.32858 
-43.6156 34.5125 6.74087 -35.8634 41.2592 1.32858 10.6495 42.264 1.32858 
18.4016 40.5602 1.32858 26.1538 38.0125 1.32858 26.1538 34.5125 7.79888 
34.0705 34.5125 1.32858 33.9059 34.5983 1.32858 33.9059 34.5125 1.52562 
-32.8041 42.2646 1.32858 -28.1113 43.7269 1.32858 -28.1113 42.2646 4.69412 
-20.3591 44.2244 1.32858 -20.3591 42.2646 5.08646 -12.607 44.2191 1.32858 
-12.607 42.2646 4.4659 -4.85481 43.8245 1.32858 -4.85481 42.2646 3.74927 
10.6452 42.2646 1.32858 2.89734 43.3526 1.32858 2.89734 42.2646 2.97222 
-35.8634 -35.6245 9.08073 -28.1113 -37.5018 9.08073 -20.3591 -38.2908 9.08073 
-12.607 -38.6118 9.08073 -4.85481 -38.735 9.08073 2.89734 -38.1109 9.08073 
10.6495 -36.534 9.08073 -36.5072 -35.2569 9.08073 -43.6156 -30.3232 9.08073 
-35.8634 -35.2569 9.60833 -28.1113 -35.2569 12.1815 -20.3591 -35.2569 13.5502 
-12.607 -35.2569 14.3504 -4.85481 -35.2569 14.2553 2.89734 -35.2569 13.9327 
16.3106 -35.2569 9.08073 10.6495 -35.2569 12.0215 18.4016 -34.767 9.08073 
26.1538 -32.8858 9.08073 33.9059 -30.8123 9.08073 -46.4679 -27.5047 9.08073 
-51.3677 -20.3219 9.08073 -43.6156 -27.5047 12.1267 -35.8634 -27.5047 16.4244 
40.016 -27.5047 9.08073 41.6581 -26.5826 9.08073 49.4102 -22.0475 9.08073 
-51.7061 -19.7526 9.08073 -51.3677 -19.7526 9.51544 -43.6156 -19.7526 16.1717 
52.1584 -19.7526 9.08073 49.4102 -19.7526 13.5409 57.1624 -13.7559 9.08073 
-54.8624 -12.0004 9.08073 -51.3677 -12.0004 13.21 58.2374 -12.0004 9.08073 
57.1624 -12.0004 10.8607 -55.8761 -4.24827 9.08073 -51.3677 -4.24827 14.1194 
61.2178 -4.24827 9.08073 57.1624 -4.24827 14.6451 -56.1682 3.50388 9.08073 
-51.3677 3.50388 14.1385 61.0757 3.50388 9.08073 57.1624 3.50388 14.3779 
-55.4266 11.256 9.08073 -51.3677 11.256 13.2228 -12.607 11.256 16.8207 
-4.85481 11.256 16.5562 49.4102 11.256 16.3849 57.9885 11.256 9.08073 
57.1624 12.9276 9.08073 57.1624 11.256 10.1922 -53.5627 19.0082 9.08073 
-51.3677 23.5374 9.08073 -51.3677 19.0082 11.3257 -43.6156 19.0082 15.2841 
-12.607 19.0082 15.7008 -4.85481 19.0082 15.1974 2.89734 19.0082 16.1999 
10.6495 19.0082 15.7672 18.4016 19.0082 16.3379 41.6581 19.0082 15.7549 
52.639 19.0082 9.08073 49.4102 21.7246 9.08073 49.4102 19.0082 11.8789 
-48.8392 26.7603 9.08073 -43.6156 32.6131 9.08073 -43.6156 26.7603 12.8583 
-35.8634 26.7603 15.4278 -28.1113 26.7603 16.6367 -20.3591 26.7603 15.464 
-12.607 26.7603 14.5024 -4.85481 26.7603 13.8313 2.89734 26.7603 14.2104 
10.6495 26.7603 14.4554 18.4016 26.7603 14.2826 26.1538 33.5383 9.08073 
[...]
POINT_DATA 526
SCALARS ImageScalars float
LOOKUP_TABLE default
0 0 0 0 0 0 0 0 0 
0 0 0 0 0 0 0 0 0 
0 0 0 0 0 0 0 0 0 
0 0 0 0 0 0 0 0 0 
0 0 0 0 0 0 0 0 0 
0 0 0 0 0 0 0 0 0 
0 0 0 0 0 0 0 0 0 
0 0 0 0 0 0 0 0 0 
0 0 0 0 0 0 0 0 0 
0 0 0 0 0 0 0 0 0 
0 0 0 0 0 0 0 0 0 
0 0 0 0 0 0 0 0 0 
0 0 0 0 0 0 0 0 0 
0 0 0 0 0 0 0 0 0 
0 0 0 0 0 0 0 0 0 
0 0 0 0 0 0 0 0 0 
0 0 0 0 0 0 0 0 0 
0 0 0 0 0 0 0 0 0 
0 0 0 0 0 0 0 0 0 
0 0 0 0 0 0 0 0 0 
0 0 0 0 0 0 0 0 0 
0 0 0 0 0 0 0 0 0 
0 0 0 0 0 0 0 0 0 
0 0 0 0 0 0 0 0 0 
0 0 0 0 0 0 0 0 0 
0 0 0 0 0 0 0 0 0 
0 0 0 0 0 0 0 0 0 
0 0 0 0 0 0 0 0 0 
0 0 0 0 0 0 0 0 0 
0 0 0 0 0 0 0 0 0 
0 0 0 0 0 0 0 0 0 
0 0 0 0 0 0 0 0 0 
0 0 0 0 0 0 0 0 0 
0 0 0 0 0 0 0 0 0 
0 0 0 0 0 0 0 0 0 
0 0 0 0 0 0 0 0 0 
0 0 0 0 0 0 0 0 0 
0 0 0 0 0 0 0 0 0 
0 0 0 0 0 0 0 0 0 
0 0 0 0 0 0 0 0 0 
0 0 0 0 0 0 0 0 0 
0 0 0 0 0 0 0 0 0 
0 0 0 0 0 0 0 0 0 
0 0 0 0 0 0 0 0 0 
0 0 0 0 0 0 0 0 0 
0 0 0 0 0 0 0 0 0 
0 0 0 0 0 0 0 0 0 
0 0 0 0 0 0 0 0 0 
0 0 0 0 0 0 0 0 0 
0 0 0 0 0 0 0 0 0 
0 0 0 0 0 0 0 0 0 
0 0 0 0 0 0 0 0 0 
0 0 0 0 0 0 0 0 0 
0 0 0 0 0 0 0 0 0 
0 0 0 0 0 0 0 0 0 
0 0 0 0 0 0 0 0 0 
0 0 0 0 0 0 0 0 0 
0 0 0 0 0 0 0 0 0 
0 0 0 0 
NORMALS Normals float
0.313142 0.51237 0.799637 0.14036 0.444731 0.884598 0.0427086 0.421673 0.905741 
-0.0718884 0.403654 0.912083 -0.156711 0.503723 0.849532 -0.255758 0.661847 0.704661 
0.362832 0.253519 0.896706 0.172122 0.137819 0.975387 0.115823 0.0812425 0.989942 
0.0141055 0.04776 0.998759 -0.0590648 0.0391182 0.997487 -0.02372 0.100179 0.994687 
-0.0757998 0.19898 0.977068 -0.171879 0.360576 0.916757 -0.329623 0.567408 0.754584 
0.484272 0.117705 0.866964 0.250574 0.00587438 0.96808 0.139126 -0.0188092 0.990096 
0.0556176 -0.0275157 0.998073 0.00650324 -0.0749622 0.997165 -0.0130118 -0.0816558 0.996576 
0.00972956 0.0107139 0.999895 -0.00220642 0.00431606 0.999988 -0.040882 0.0389545 0.998404 
-0.0844169 0.189541 0.978237 -0.218705 0.381152 0.898271 -0.43308 0.550099 0.714025 
0.378472 -0.0471582 0.924411 0.229821 -0.0595888 0.971407 0.149438 -0.0934882 0.984342 
0.0640381 -0.0266047 0.997593 -0.0400905 0.110027 0.99312 0.0219547 -0.0434233 0.998815 
0.0641179 0.0313487 0.99745 -0.0442185 0.00475798 0.999011 0.0236276 -0.0868766 0.995939 
0.0859188 0.0238066 0.996018 -0.0941978 0.107136 0.989772 -0.280603 0.242218 0.928758 
-0.497257 0.361703 0.788611 0.321889 -0.0113241 0.94671 0.188688 -0.0576582 0.980343 
0.160624 -0.107054 0.981193 0.259228 -0.11348 0.959126 0.00181631 0.0605173 0.998165 
-0.105673 -0.0396333 0.993611 0.0595627 0.020018 0.998024 -0.135931 -0.00160308 0.990717 
-0.00957757 -0.0444321 0.998967 0.11907 -0.0246843 0.992579 0.0183053 -0.00946222 0.999788 
-0.156785 0.0773003 0.984603 -0.408912 0.121424 0.904459 0.292141 0.0208903 0.956147 
0.142283 -0.0392289 0.989048 0.0808896 -0.0779561 0.99367 0.147596 -0.201202 0.968366 
0.0391907 -0.4453 0.894523 0.0484527 -0.110877 0.992652 0.107372 -0.0297864 0.993773 
-0.111894 -0.0387981 0.992962 0.0141869 0.0664132 0.997691 0.116492 0.0248192 0.992881 
0.0111769 -0.0165837 0.9998 -0.160783 -0.0626608 0.984999 -0.405637 -0.100865 0.908452 
0.31588 -0.0511463 0.947419 0.106262 -0.0680656 0.992006 0.0164611 -0.0637644 0.997829 
-0.0596009 -0.0832942 0.994741 0.0684575 -0.116578 0.990819 0.279418 -0.015581 0.960043 
0.125857 -0.0639601 0.989984 -0.0290909 0.00819389 0.999543 0.0381236 0.105653 0.993672 
0.0395 0.0186838 0.999045 -0.0673217 -0.0696288 0.995299 -0.246939 -0.187141 0.950789 
-0.485263 -0.307201 0.818625 0.144373 -0.0878831 0.985613 0.0655982 -0.0718542 0.995256 
0.046988 -0.00418929 0.998887 0.117373 0.0972396 0.988316 0.167014 0.0550806 0.984415 
0.120271 -0.0657582 0.990561 0.0653644 0.0307167 0.997389 0.0179451 0.0151352 0.999724 
-0.0615698 -0.0563934 0.996508 -0.200618 -0.234711 0.951138 -0.402432 -0.394881 0.825904 
0.266917 -0.247051 0.931516 0.0967729 -0.139319 0.985508 0.10988 -0.0765118 0.990996 
0.131268 -0.0189534 0.991166 0.112604 -0.0638886 0.991584 0.103422 -0.0955221 0.99004 
0.051549 -0.108623 0.992746 -0.0519073 -0.177053 0.982832 -0.205296 -0.245526 0.947402 
-0.391364 -0.454819 0.799984 0.17535 -0.351969 0.91944 0.113522 -0.289984 0.950275 
0.0751377 -0.333105 0.939891 0.0621549 -0.335436 0.94001 -0.0166581 -0.404187 0.914525 
-0.132089 -0.496112 0.858152 -0.368019 -0.64752 0.667293 0.320864 0.670897 0.668538 
0.151792 0.786599 0.598515 0.01716 0.841959 0.539268 0.000812361 0.999983 0.00583906 
-0.0963704 0.832989 0.544832 -0.192508 0.801776 0.565771 -0.287214 0.787123 0.545844 
0.409776 0.562102 0.718418 0.437382 0.483938 0.757959 0.461613 0.623007 0.631487 
-0.331325 0.792386 0.512199 -0.342136 0.777517 0.527646 -0.395906 0.906079 0.14926 
-0.402265 0.732941 0.548616 0.489133 0.363019 0.793073 0.526201 0.246454 0.813863 
0.609274 0.462197 0.644329 -0.413043 0.716713 0.561888 -0.403659 0.705475 0.58255 
-0.420173 0.80766 0.413691 -0.452473 0.603909 0.656172 0.544368 0.141357 0.82685 
0.789997 0.299851 0.534783 -0.458798 0.58294 0.670586 -0.517461 0.445319 0.730702 
-0.584102 0.709245 0.39471 0.400618 -0.0341419 0.915609 0.663478 0.169718 0.728693 
-0.565787 0.369033 0.737359 -0.787055 0.469753 0.399846 0.347471 -0.00572575 0.937673 
0.583487 0.0529342 0.810396 -0.619246 0.148121 0.7711 -0.735661 0.169995 0.655671 
0.305151 0.0195461 0.952103 0.546496 -0.0295451 0.83694 -0.619016 -0.126457 0.775131 
-0.737188 -0.14821 0.659232 0.364228 -0.0486906 0.930036 0.580466 -0.0976507 0.808408 
0.299687 -0.171728 0.938455 -0.573158 -0.315911 0.756102 -0.515139 -0.406422 0.754621 
-0.804682 -0.383676 0.453077 0.679659 -0.24396 0.691771 0.211113 -0.186776 0.959451 
0.289629 -0.283503 0.914189 -0.468584 -0.475611 0.744462 -0.474278 -0.509412 0.718026 
-0.584194 -0.577836 0.569932 0.296328 -0.255179 0.920366 0.447634 -0.348746 0.823408 
0.274207 -0.288243 0.917457 0.19705 -0.328202 0.923826 -0.464823 -0.531206 0.70835 
-0.450447 -0.562994 0.692918 -0.564764 -0.669492 0.482516 0.359786 -0.528284 0.769071 
0.207119 -0.378073 0.902309 0.243667 -0.415297 0.876444 0.181024 -0.386268 0.904449 
0.119799 -0.516364 0.847948 0.0441551 -0.564054 0.824556 0.0342367 -0.641232 0.766583 
-0.0681274 -0.71128 0.6996 -0.217243 -0.710907 0.668893 -0.411726 -0.672637 0.61485 
-0.385613 -0.691398 0.61096 -0.527075 -0.820848 0.220001 0.21733 -0.853459 0.473684 
0.177595 -0.843267 0.507307 0.106788 -0.843426 0.526526 0.0294042 -0.8412 0.539925 
-0.0178763 -0.873223 0.486993 -0.139101 -0.924938 0.353751 7.12825e-05 0.999966 -0.00821062 
0.449536 0.870784 0.199131 0.236456 0.965515 0.108949 0.0146573 0.99989 -0.00212752 
0.0816867 0.996239 0.028892 -0.0173023 0.999834 -0.00574974 0.000129637 0.999866 -0.0163991 
-0.0951944 0.995415 0.00932459 -0.216788 0.975936 0.0234715 -0.352425 0.935449 0.0270428 
-0.40039 0.916244 0.0135643 0.605256 0.755659 0.25029 0.669584 0.679595 0.29968 
-0.398186 0.917118 0.0184843 -0.374994 0.926958 -0.0112991 -0.383961 0.919475 0.0844909 
-0.390827 0.907942 0.151317 0.778883 0.510816 0.36388 0.810984 0.371986 0.451587 
-0.411388 0.890957 0.192239 -0.440969 0.86324 0.245688 -0.58902 0.743293 0.317131 
0.813464 0.324814 0.482464 -0.616189 0.722821 0.312795 -0.785566 0.503858 0.359183 
0.823469 0.234801 0.516494 -0.798471 0.477516 0.366637 0.834012 0.0935566 0.543756 
-0.890801 0.193938 0.410927 0.832925 -0.0177517 0.553101 0.999446 0.004677 0.0329573 
-0.896988 -0.159463 0.412291 0.793814 -0.176286 0.582051 -0.830032 -0.398131 0.390562 
-0.81123 -0.448606 0.375044 0.768761 -0.287526 0.571258 0.734796 -0.413023 0.53804 
-0.708212 -0.617652 0.341968 -0.646994 -0.679031 0.346865 0.722044 -0.431956 0.540432 
0.763699 -0.453118 0.459835 0.555732 -0.627098 0.545811 -0.610445 -0.731232 0.304395 
-0.591903 -0.756594 0.27788 0.544703 -0.647873 0.532503 0.604373 -0.719835 0.341424 
0.407409 -0.769417 0.491951 -0.281248 -0.956543 0.0769813 -0.414502 -0.902265 0.118769 
-0.53047 -0.827033 0.18606 -0.523735 -0.832476 0.180794 0.223795 -0.855708 0.466562 
0.217587 -0.856723 0.467634 0.146309 -0.926318 0.347173 0.0706501 -0.968841 0.237392 
0.00787686 -0.982514 0.186022 -0.0783617 -0.986686 0.142511 -0.260914 -0.962472 0.07464 
-0.173728 -0.980666 0.0900683 -0.172735 -0.906288 -0.385752 0.379415 0.904919 -0.192786 
0.182211 0.948333 -0.259739 0.0441466 0.960125 -0.276064 0.0015872 0.96102 -0.276473 
-0.0789102 0.964379 -0.25248 -0.203483 0.955355 -0.214222 -0.339463 0.926275 -0.163647 
0.531877 0.83062 -0.164856 0.606802 0.7823 -0.140706 -0.335872 0.938757 -0.0769761 
-0.331093 0.942015 -0.0546292 -0.315324 0.948464 0.0314275 -0.328557 0.940847 0.0828075 
0.79344 0.599011 -0.107885 0.841323 0.533528 -0.0867359 -0.351109 0.933986 0.0662835 
-0.376291 0.92466 0.0583812 -0.562685 0.824944 0.0534026 0.906044 0.421262 -0.0402675 
-0.642419 0.763867 0.061679 -0.772618 0.633363 0.0437327 0.961481 0.272584 -0.0353956 
-0.855703 0.516701 0.0281477 0.991118 0.12121 -0.0547045 0.99651 0.0676676 -0.0488768 
-0.981141 0.193236 0.00463418 0.999263 0.00772046 -0.0376042 0.991794 -0.119564 -0.0452613 
0.995615 0.00656402 -0.0933129 -0.987556 -0.156848 -0.0114652 0.98389 -0.172531 -0.0468266 
-0.90069 -0.434242 -0.0138372 -0.814408 -0.58029 -0.00161661 0.941305 -0.336976 -0.0198257 
-0.747734 -0.663934 -0.00924098 -0.644617 -0.763194 -0.0447601 0.851478 -0.520499 -0.0637606 
0.815355 -0.574487 -0.0718348 0.771396 -0.539761 -0.337055 -0.603423 -0.794604 -0.0669752 
-0.535868 -0.836812 -0.112213 0.67744 -0.735083 -0.0269919 0.593632 -0.804207 -0.0291846 
0.553836 -0.713741 -0.428766 0.369182 -0.920211 -0.130059 -0.172722 -0.906217 -0.385926 
-0.24525 -0.908271 -0.338963 -0.347325 -0.892564 -0.287566 -0.252728 -0.782522 -0.569024 
-0.433551 -0.877906 -0.20326 -0.431323 -0.878607 -0.204965 -0.429345 -0.877603 -0.213252 
0.294606 -0.946376 -0.132591 0.182978 -0.975127 -0.125087 0.164872 -0.918768 -0.358724 
0.0335032 -0.975031 -0.219528 -0.0118347 -0.89128 -0.453298 -0.0243 -0.952252 -0.304343 
-0.0504836 -0.863799 -0.501301 -0.0530259 -0.92881 -0.366742 -0.0587574 -0.864285 -0.499559 
-0.172683 -0.906223 -0.385927 -0.0940389 -0.915216 -0.391837 -0.0920678 -0.874986 -0.475314 
0.361155 0.789816 -0.495739 0.158943 0.854941 -0.493775 0.0635309 0.884308 -0.462561 
0.026575 0.89977 -0.435554 -0.0307794 0.903733 -0.426989 -0.136429 0.919406 -0.368891 
-0.202278 0.941923 -0.268077 0.377622 0.782655 -0.494826 0.570167 0.657849 -0.492082 
0.360903 0.776586 -0.516395 0.164554 0.783527 -0.599172 0.0881279 0.769826 -0.632141 
0.0299279 0.735393 -0.676979 -0.0162096 0.745648 -0.666143 -0.0684433 0.784964 -0.61575 
-0.227243 0.958403 -0.172699 -0.160391 0.902189 -0.400411 -0.235384 0.96109 -0.144568 
-0.241428 0.966919 -0.082344 -0.383756 0.922471 -0.0421648 0.642184 0.580726 -0.500358 
0.753121 0.433576 -0.494794 0.553073 0.54882 -0.626823 0.332651 0.472633 -0.816065 
-0.448501 0.890089 -0.0811624 -0.465 0.879591 -0.100472 -0.583662 0.782414 -0.217178 
0.760468 0.422266 -0.493336 0.747346 0.421531 -0.513601 0.483456 0.294133 -0.824473 
-0.648805 0.72918 -0.217597 -0.605696 0.658204 -0.447101 -0.814495 0.491949 -0.307545 
0.827048 0.235873 -0.510251 0.684256 0.204203 -0.700068 -0.841269 0.429447 -0.328392 
-0.812343 0.409638 -0.415084 0.814804 0.0776438 -0.574513 0.634209 0.0453302 -0.771832 
-0.899165 0.158506 -0.407896 -0.709443 0.117 -0.694983 0.79105 -0.0214576 -0.611375 
0.604385 -0.0419038 -0.795589 -0.887251 -0.178919 -0.425175 -0.690426 -0.182984 -0.699878 
0.762022 -0.151718 -0.629527 0.603901 -0.15099 -0.782627 -0.102668 -0.191491 -0.97611 
0.0902363 -0.121528 -0.988478 -0.40747 -0.357369 -0.84039 -0.800476 -0.403602 -0.443106 
-0.777038 -0.448605 -0.44155 -0.7679 -0.406483 -0.495076 0.762808 -0.285397 -0.580234 
0.680394 -0.412795 -0.605528 0.654523 -0.294203 -0.696451 0.360129 -0.203745 -0.910382 
-0.121251 -0.140849 -0.982578 0.0301417 -0.167265 -0.985451 0.0359198 -0.247681 -0.968176 
0.00859891 -0.150427 -0.988584 0.102088 -0.203406 -0.973758 -0.256044 -0.473173 -0.84294 
-0.632617 -0.63084 -0.449263 -0.559992 -0.683306 -0.46851 -0.516585 -0.603718 -0.607178 
0.603481 -0.496341 -0.624065 0.496017 -0.601378 -0.626347 0.445193 -0.409225 -0.796453 
0.187656 -0.336032 -0.922967 0.00479528 -0.2544 -0.967087 -0.128604 -0.266416 -0.95524 
-0.101773 -0.244775 -0.964224 -0.0174465 -0.253396 -0.967205 0.0375642 -0.309245 -0.95024 
0.00463035 -0.297046 -0.954852 -0.0139256 -0.365954 -0.930529 -0.215118 -0.732756 -0.645595 
-0.0710576 -0.472214 -0.878615 -0.302161 -0.752211 -0.585557 -0.220842 -0.611502 -0.759799 
-0.443208 -0.746081 -0.49692 -0.4333 -0.749849 -0.499977 -0.426983 -0.739863 -0.519893 
0.409909 -0.654695 -0.635098 0.284027 -0.710789 -0.643512 0.260398 -0.602732 -0.75426 
0.108595 -0.709339 -0.696452 0.0536554 -0.549014 -0.834089 -0.0450814 -0.674707 -0.736708 
-0.0806307 -0.499588 -0.862502 -0.0732909 -0.604508 -0.79322 -0.0907257 -0.481842 -0.871549 
-0.0496142 -0.572978 -0.818067 -0.041381 -0.470718 -0.881313 -0.0473877 -0.609911 -0.791052 
-0.0225126 -0.528197 -0.848823 -0.0780523 -0.645748 -0.759551 -0.0625468 -0.586509 -0.807524 
-0.173641 -0.704182 -0.688459 -0.12996 -0.670065 -0.730837 -0.117886 -0.643759 -0.756094 
0.17597 0.517595 -0.837335 0.0719064 0.545724 -0.834874 0.0135595 0.515489 -0.856789 
0.00625774 0.519979 -0.854156 -0.00870591 0.552611 -0.833394 -0.0428639 0.64011 -0.767086 
-0.0705733 0.727687 -0.682269 -0.165844 0.782883 -0.599658 -0.32388 0.772033 -0.54687 
0.301629 0.458315 -0.836042 0.32126 0.436607 -0.840337 0.155172 0.404397 -0.901324 
0.0342562 0.327802 -0.944125 -0.0086987 0.280475 -0.959822 0.0163385 0.277513 -0.960583 
0.0407622 0.295206 -0.954564 0.0358956 0.335129 -0.941488 -0.017633 0.464374 -0.885464 
-0.112224 0.593617 -0.796884 -0.362663 0.767594 -0.528464 -0.303619 0.732934 -0.608789 
-0.485846 0.666617 -0.565311 0.431704 0.276977 -0.858438 0.441288 0.227436 -0.868065 
0.246631 0.224119 -0.942838 0.0754388 0.172545 -0.982108 -0.0330944 0.0823896 -0.996051 
-0.0203402 0.0258471 -0.999459 0.0205219 0.0882955 -0.995883 0.0116864 0.0619138 -0.998013 
0.0745483 -0.0483383 -0.996045 0.147017 0.0346 -0.988529 0.0288368 0.146067 -0.988854 
-0.170701 0.255047 -0.951742 -0.546349 0.533751 -0.645455 -0.392282 0.396886 -0.829817 
-0.557754 0.429752 -0.710087 0.439533 0.142003 -0.886931 0.38229 0.113734 -0.917016 
0.230895 0.063445 -0.970908 -0.00318149 0.0136407 -0.999902 -0.117595 -0.00686103 -0.993038 
-0.00577954 -0.048457 -0.998809 0.0516828 -0.0233954 -0.998389 -0.0956812 0.00500515 -0.995399 
0.0244996 -0.167467 -0.985573 0.188707 -0.135485 -0.972643 0.13484 -0.0843415 -0.987271 
-0.0253036 0.0338106 -0.999108 -0.225266 0.120165 -0.966859 -0.574039 0.27315 -0.771925 
-0.490077 0.24899 -0.835361 0.451209 0.024438 -0.892084 0.339698 0.00094257 -0.940534 
0.152947 -0.0496354 -0.986987 0.00867335 -0.0964209 -0.995303 -0.0950814 -0.0632214 -0.99346 
-0.0426062 -0.0553817 -0.997556 0.0757858 -0.218779 -0.972827 -0.132338 -0.0944892 -0.986691 
-0.0691153 -0.0263209 -0.997261 0.230138 -0.123355 -0.965308 0.191241 -0.117083 -0.974535 
0.0333222 -0.105808 -0.993828 -0.147752 -0.0336901 -0.98845 -0.566513 0.0747063 -0.820659 
-0.398584 0.0316609 -0.916585 0.391397 -0.0726503 -0.91735 0.298304 -0.0824574 -0.950903 
0.132687 -0.113619 -0.984624 -0.0104532 -0.11883 -0.99286 -0.0764703 -0.139547 -0.987258 
-0.103006 -0.191288 -0.976114 -0.151078 -0.152577 -0.976676 0.0380577 -0.160289 -0.986336 
-0.00336712 -0.192179 -0.981354 0.110893 -0.14359 -0.983405 -0.00575734 -0.0461452 -0.998918 
0.0890962 -0.107386 -0.990217 0.152199 -0.142449 -0.978031 0.0555648 -0.182673 -0.981602 
-0.0976806 -0.1833 -0.978192 -0.516446 -0.185081 -0.836079 -0.395135 -0.328103 -0.858031 
-0.369503 -0.19954 -0.907552 0.285443 -0.172134 -0.942811 0.281123 -0.172582 -0.944026 
0.277002 -0.171325 -0.945472 0.116968 -0.121643 -0.985658 -0.0206497 -0.115255 -0.993121 
-0.102894 -0.191164 -0.97615 -0.128459 -0.150769 -0.980187 0.0790905 -0.127011 -0.988743 
0.0319628 -0.219435 -0.975103 0.0261508 -0.16154 -0.98652 -0.039691 -0.186099 -0.981729 
-0.0434638 -0.189442 -0.980929 0.116197 -0.180433 -0.9767 0.132013 -0.147851 -0.98016 
0.131049 -0.167184 -0.977178 -0.00975975 -0.232161 -0.972628 -0.365887 -0.344274 -0.86464 
-0.224843 -0.404447 -0.886492 -0.181459 -0.298589 -0.936972 0.245138 -0.187442 -0.951195 
0.171364 -0.244653 -0.954347 0.166493 -0.183307 -0.968854 -0.00162879 -0.23814 -0.97123 
-0.0427134 -0.15002 -0.98776 -0.143549 -0.16154 -0.97637 -0.146237 -0.182981 -0.972179 
-0.149492 -0.16637 -0.974666 0.081507 -0.241955 -0.966858 0.0339184 -0.317415 -0.94768 
0.0558295 -0.288405 -0.955879 -0.131443 -0.403071 -0.90568 -0.10053 -0.399505 -0.911202 
-0.0911155 -0.381258 -0.919967 
