# vtk DataFile Version 4.2
vtk output
ASCII
DATASET POLYDATA
POINTS 506 float
-22.7043 -31.7497 -15.7395 -38.4099 -23.8969 -17.3943 -30.5571 -23.8969 -19.6477 
-22.7043 -23.8969 -19.8032 -14.8515 -23.8969 -18.1278 -6.99872 -23.8969 -16.0731 
-46.2627 -16.0442 -16.2139 -38.4099 -16.0442 -20.5934 -30.5571 -16.0442 -22.0229 
-22.7043 -16.0442 -21.9885 -14.8515 -16.0442 -20.8751 -6.99872 -16.0442 -19.2374 
0.854078 -16.0442 -17.8745 8.70688 -16.0442 -16.2947 -46.2627 -8.19135 -18.4565 
-38.4099 -8.19135 -21.5947 -30.5571 -8.19135 -22.2658 -22.7043 -8.19135 -21.8528 
-14.8515 -8.19135 -21.7009 -6.99872 -8.19135 -22.1575 0.854078 -8.19135 -20.5984 
8.70688 -8.19135 -20.2513 16.5597 -8.19135 -18.7904 -46.2627 -0.338553 -19.2828 
-38.4099 -0.338553 -21.7344 -30.5571 -0.338553 -22.0577 -22.7043 -0.338553 -21.425 
-14.8515 -0.338553 -21.0954 -6.99872 -0.338553 -23.134 0.854078 -0.338553 -20.5812 
8.70688 -0.338553 -21.1814 16.5597 -0.338553 -20.902 24.4125 -0.338553 -17.6549 
-46.2627 7.51425 -18.9987 -38.4099 7.51425 -21.7717 -30.5571 7.51425 -22.4565 
-22.7043 7.51425 -21.8308 -14.8515 7.51425 -21.2805 -6.99872 7.51425 -22.515 
0.854078 7.51425 -22.883 8.70688 7.51425 -22.3942 16.5597 7.51425 -19.8414 
24.4125 7.51425 -17.7882 32.2653 7.51425 -15.7534 -46.2627 15.367 -18.3359 
-38.4099 15.367 -22.2526 -30.5571 15.367 -23.3655 -22.7043 15.367 -22.7959 
-14.8515 15.367 -21.6721 -6.99872 15.367 -20.8297 0.854078 15.367 -21.2432 
8.70688 15.367 -21.1127 16.5597 15.367 -19.1486 24.4125 15.367 -17.1679 
-38.4099 23.2198 -20.6286 -30.5571 23.2198 -22.3297 -22.7043 23.2198 -22.7723 
-14.8515 23.2198 -22.4534 -6.99872 23.2198 -22.1883 0.854078 23.2198 -22.5809 
8.70688 23.2198 -22.0527 16.5597 23.2198 -20.2518 24.4125 23.2198 -17.6787 
-38.4099 31.0726 -16.396 -30.5571 31.0726 -21.0166 -22.7043 31.0726 -21.9347 
-14.8515 31.0726 -22.7584 -6.99872 31.0726 -22.9026 0.854078 31.0726 -23.3124 
8.70688 31.0726 -23.3786 16.5597 31.0726 -20.4977 24.4125 31.0726 -16.824 
-22.7043 38.9254 -19.3355 -14.8515 38.9254 -21.4045 -6.99872 38.9254 -21.9955 
0.854078 38.9254 -22.3287 8.70688 38.9254 -21.1839 16.5597 38.9254 -18.2857 
-14.8515 46.7782 -15.8084 -6.99872 46.7782 -17.7639 0.854078 46.7782 -17.3911 
-22.7043 -31.8619 -15.6612 -22.7043 -39.6025 -8.56018 -14.8515 -39.6025 -9.97713 
-6.99872 -39.6025 -9.37598 0.854078 -39.6025 -8.1641 -38.4099 -26.3175 -15.6612 
-38.4099 -31.7497 -9.06067 -23.6325 -31.7497 -15.6612 -30.5571 -30.7261 -15.6612 
-30.5571 -31.7497 -14.8342 -22.1013 -31.7497 -15.6612 -14.8515 -29.5742 -15.6612 
-14.8515 -31.7497 -14.714 -6.99872 -25.0999 -15.6612 -6.99872 -31.7497 -13.4713 
0.854078 -31.7497 -12.186 8.70688 -31.7497 -10.0751 16.5597 -31.7497 -8.20244 
-41.0729 -23.8969 -15.6612 -46.2627 -16.9784 -15.6612 -46.2627 -23.8969 -8.45796 
-5.53388 -23.8969 -15.6612 0.854078 -19.9735 -15.6612 0.854078 -23.8969 -13.9382 
8.70688 -16.9455 -15.6612 8.70688 -23.8969 -11.8172 16.5597 -23.8969 -10.5817 
24.4125 -23.8969 -9.23895 -46.8004 -16.0442 -15.6612 10.1348 -16.0442 -15.6612 
16.5597 -12.6082 -15.6612 16.5597 -16.0442 -13.3002 24.4125 -16.0442 -11.3457 
32.2653 -16.0442 -9.3302 -49.972 -8.19135 -15.6612 22.7939 -8.19135 -15.6612 
24.4125 -6.05175 -15.6612 24.4125 -8.19135 -14.854 32.2653 -8.19135 -12.7328 
40.1181 -8.19135 -9.63047 -51.3042 -0.338553 -15.6612 -54.1155 -0.338553 -10.155 
30.8738 -0.338553 -15.6612 32.2653 6.1047 -15.6612 32.2653 -0.338553 -15.2451 
40.1181 -0.338553 -12.2663 -50.4981 7.51425 -15.6612 32.5231 7.51425 -15.6612 
32.2653 9.70678 -15.6612 40.1181 7.51425 -12.8602 47.9709 7.51425 -8.10341 
-48.5589 15.367 -15.6612 -46.2627 22.2782 -15.6612 31.1994 15.367 -15.6612 
32.2653 15.367 -15.4081 40.1181 15.367 -11.7552 -45.8848 23.2198 -15.6612 
-46.2627 23.2198 -13.7138 28.8904 23.2198 -15.6612 32.2653 23.2198 -13.9197 
40.1181 23.2198 -9.19772 -39.0849 31.0726 -15.6612 -38.4099 31.8155 -15.6612 
-30.5571 38.3763 -15.6612 26.6539 31.0726 -15.6612 24.4125 33.5182 -15.6612 
32.2653 31.0726 -11.8885 -29.7232 38.9254 -15.6612 -30.5571 38.9254 -14.1492 
-22.7043 43.531 -15.6612 8.70688 45.8712 -15.6612 20.5332 38.9254 -15.6612 
16.5597 41.7872 -15.6612 24.4125 38.9254 -10.9585 -15.1393 46.7782 -15.6612 
-14.8515 46.8782 -15.6612 -6.99872 48.4595 -15.6612 6.00602 46.7782 -15.6612 
0.854078 48.1773 -15.6612 8.70688 46.7782 -11.1416 -22.7043 -40.2164 -7.80844 
-14.8515 -41.6253 -7.80844 -6.99872 -41.2592 -7.80844 0.854078 -40.0196 -7.80844 
-38.4099 -32.626 -7.80844 -24.46 -39.6025 -7.80844 -30.5571 -37.3579 -7.80844 
-30.5571 -39.6025 -2.42333 2.47556 -39.6025 -7.80844 8.70688 -36.9092 -7.80844 
8.70688 -39.6025 -6.27136 16.5597 -32.537 -7.80844 16.5597 -39.6025 -3.51523 
24.4125 -39.6025 -0.637938 -39.4591 -31.7497 -7.80844 -46.2627 -24.3669 -7.80844 
18.465 -31.7497 -7.80844 24.4125 -28.1232 -7.80844 24.4125 -31.7497 -6.61554 
32.2653 -31.7497 -3.20923 -46.613 -23.8969 -7.80844 29.4455 -23.8969 -7.80844 
32.2653 -21.2471 -7.80844 32.2653 -23.8969 -6.93313 40.1181 -23.8969 -3.72328 
-51.1763 -16.0442 -7.80844 36.4793 -16.0442 -7.80844 40.1181 -12.5868 -7.80844 
40.1181 -16.0442 -6.3949 47.9709 -16.0442 -0.945668 -53.8365 -8.19135 -7.80844 
-54.1155 -6.2076 -7.80844 43.2601 -8.19135 -7.80844 47.9709 -8.19135 -4.51591 
-54.9409 -0.338553 -7.80844 -54.1155 4.90609 -7.80844 -54.1155 -0.338553 -2.34965 
47.5937 -0.338553 -7.80844 47.9709 3.25147 -7.80844 47.9709 -0.338553 -7.52266 
-53.7099 7.51425 -7.80844 48.3427 7.51425 -7.80844 47.9709 8.75749 -7.80844 
-51.1012 15.367 -7.80844 45.6537 15.367 -7.80844 47.9709 15.367 -5.35107 
-47.1284 23.2198 -7.80844 -46.2627 24.5311 -7.80844 -46.2627 23.2198 -5.7989 
41.5445 23.2198 -7.80844 40.1181 25.1441 -7.80844 -41.4016 31.0726 -7.80844 
-38.4099 34.2612 -7.80844 -38.4099 31.0726 -1.80239 35.7621 31.0726 -7.80844 
32.2653 34.6442 -7.80844 -33.1943 38.9254 -7.80844 -30.5571 40.8792 -7.80844 
-30.5571 38.9254 -2.9185 -22.7043 45.7756 -7.80844 16.5597 44.3076 -7.80844 
26.8732 38.9254 -7.80844 24.4125 40.5626 -7.80844 -20.3536 46.7782 -7.80844 
-14.8515 48.9406 -7.80844 -6.99872 50.0284 -7.80844 0.854078 49.6916 -7.80844 
10.1043 46.7782 -7.80844 8.70688 47.2827 -7.80844 8.70688 46.7782 -5.5227 
-30.5571 -40.6544 0.0443559 -22.7043 -44.1421 0.0443559 -14.8515 -45.9403 0.0443559 
-6.99872 -46.7897 0.0443559 -6.99872 -47.4553 7.8397 0.854078 -46.3965 0.0443559 
8.70688 -44.9465 0.0443559 16.5597 -42.8443 0.0443559 24.4125 -40.1346 0.0443559 
-32.1297 -39.6025 0.0443559 -38.4099 -34.8534 0.0443559 25.9987 -39.6025 0.0443559 
32.2653 -36.6513 0.0443559 32.2653 -39.6025 4.87103 -41.2925 -31.7497 0.0443559 
-46.2627 -24.4098 0.0443559 39.0766 -31.7497 0.0443559 40.1181 -30.6111 0.0443559 
40.1181 -31.7497 1.03185 -46.5946 -23.8969 0.0443559 -46.2627 -23.8969 0.718462 
44.3204 -23.8969 0.0443559 47.9709 -17.9308 0.0443559 47.9709 -23.8969 5.05696 
-50.3535 -16.0442 0.0443559 -46.2627 -16.0442 6.56218 48.9058 -16.0442 0.0443559 
-52.7249 -8.19135 0.0443559 52.4851 -8.19135 0.0443559 -53.6157 -0.338553 0.0443559 
54.5388 -0.338553 0.0443559 -51.2802 7.51425 0.0443559 -46.2627 7.51425 5.29166 
54.0728 7.51425 0.0443559 -47.2736 15.367 0.0443559 -46.2627 17.4526 0.0443559 
-46.2627 15.367 1.1522 51.3567 15.367 0.0443559 47.9709 21.2297 0.0443559 
-42.8936 23.2198 0.0443559 -38.4099 29.5325 0.0443559 -38.4099 23.2198 3.80042 
46.634 23.2198 0.0443559 40.1181 30.5952 0.0443559 -37.1058 31.0726 0.0443559 
-30.5571 37.1589 0.0443559 -30.5571 31.0726 4.60712 39.6181 31.0726 0.0443559 
32.2653 36.6065 0.0443559 -28.3428 38.9254 0.0443559 -22.7043 42.4237 0.0443559 
-22.7043 38.9254 3.45854 -14.8515 38.9254 7.09385 8.70688 45.4094 0.0443559 
16.5597 42.9452 0.0443559 16.5597 38.9254 7.82642 27.5605 38.9254 0.0443559 
24.4125 40.4166 0.0443559 24.4125 38.9254 3.75596 -14.8662 46.7782 0.0443559 
-14.8515 46.7844 0.0443559 -14.8515 46.7782 0.0537761 -6.99872 47.5723 0.0443559 
-6.99872 46.7782 1.17456 3.0162 46.7782 0.0443559 0.854078 47.274 0.0443559 
0.854078 46.7782 0.859342 -6.99872 -47.4599 7.89715 -30.5571 -40.119 7.89715 
-22.7043 -44.408 7.89715 -7.03656 -47.4553 7.89715 -14.8515 -46.506 7.89715 
-6.60117 -47.4553 7.89715 -6.99872 -47.4553 7.91332 0.854078 -47.3709 7.89715 
8.70688 -46.3044 7.89715 16.5597 -44.9049 7.89715 24.4125 -43.323 7.89715 
32.2653 -40.6396 7.89715 -31.1953 -39.6025 7.89715 -38.4099 -32.0447 7.89715 
-30.5571 -39.6025 8.7617 24.4125 -39.6025 14.9392 34.1084 -39.6025 7.89715 
32.2653 -39.6025 11.9862 40.1181 -35.3887 7.89715 -38.6627 -31.7497 7.89715 
-38.4099 -31.7497 8.20303 -30.5571 -31.7497 15.5705 43.8128 -31.7497 7.89715 
47.9709 -26.0216 7.89715 -42.5688 -23.8969 7.89715 -38.4099 -23.8969 12.2893 
49.2829 -23.8969 7.89715 47.9709 -23.8969 13.7798 -45.2474 -16.0442 7.89715 
-46.2627 -10.2103 7.89715 -38.4099 -16.0442 13.573 52.9416 -16.0442 7.89715 
-46.6128 -8.19135 7.89715 -46.2627 -8.19135 8.20605 -38.4099 -8.19135 13.4675 
55.1191 -8.19135 7.89715 -46.4487 -0.338553 7.89715 -46.2627 0.116964 7.89715 
-46.2627 -0.338553 8.03245 -38.4099 -0.338553 12.3181 -30.5571 -0.338553 15.3414 
55.8167 -0.338553 7.89715 -42.7099 7.51425 7.89715 -38.4099 7.51425 10.457 
-30.5571 7.51425 13.5943 54.8824 7.51425 7.89715 -38.7183 15.367 7.89715 
-38.4099 15.8255 7.89715 -38.4099 15.367 8.10713 -30.5571 15.367 11.7941 
-22.7043 15.367 14.6797 51.8223 15.367 7.89715 47.9709 21.2769 7.89715 
47.9709 15.367 14.9385 -32.2488 23.2198 7.89715 -30.5571 25.2079 7.89715 
-30.5571 23.2198 8.88523 -22.7043 23.2198 12.0694 -14.8515 23.2198 13.3034 
-6.99872 23.2198 13.8176 0.854078 23.2198 15.6185 46.4542 23.2198 7.89715 
40.1181 29.5419 7.89715 40.1181 23.2198 15.6568 -23.9942 31.0726 7.89715 
-22.7043 32.0821 7.89715 -22.7043 31.0726 8.4557 -14.8515 37.4653 7.89715 
-14.8515 31.0726 10.7238 -6.99872 31.0726 12.2095 0.854078 31.0726 13.5419 
8.70688 31.0726 14.9757 16.5597 38.8845 7.89715 24.4125 37.242 7.89715 
37.9589 31.0726 7.89715 32.2653 34.548 7.89715 32.2653 31.0726 12.8536 
-11.2234 38.9254 7.89715 -6.99872 40.0834 7.89715 -6.99872 38.9254 8.74495 
[...]
POINT_DATA 506
SCALARS ImageScalars float
LOOKUP_TABLE default
0 0 0 0 0 0 0 0 0 
0 0 0 0 0 0 0 0 0 
0 0 0 0 0 0 0 0 0 
0 0 0 0 0 0 0 0 0 
0 0 0 0 0 0 0 0 0 
0 0 0 0 0 0 0 0 0 
0 0 0 0 0 0 0 0 0 
0 0 0 0 0 0 0 0 0 
0 0 0 0 0 0 0 0 0 
0 0 0 0 0 0 0 0 0 
0 0 0 0 0 0 0 0 0 
0 0 0 0 0 0 0 0 0 
0 0 0 0 0 0 0 0 0 
0 0 0 0 0 0 0 0 0 
0 0 0 0 0 0 0 0 0 
0 0 0 0 0 0 0 0 0 
0 0 0 0 0 0 0 0 0 
0 0 0 0 0 0 0 0 0 
0 0 0 0 0 0 0 0 0 
0 0 0 0 0 0 0 0 0 
0 0 0 0 0 0 0 0 0 
0 0 0 0 0 0 0 0 0 
0 0 0 0 0 0 0 0 0 
0 0 0 0 0 0 0 0 0 
0 0 0 0 0 0 0 0 0 
0 0 0 0 0 0 0 0 0 
0 0 0 0 0 0 0 0 0 
0 0 0 0 0 0 0 0 0 
0 0 0 0 0 0 0 0 0 
0 0 0 0 0 0 0 0 0 
0 0 0 0 0 0 0 0 0 
0 0 0 0 0 0 0 0 0 
0 0 0 0 0 0 0 0 0 
0 0 0 0 0 0 0 0 0 
0 0 0 0 0 0 0 0 0 
0 0 0 0 0 0 0 0 0 
0 0 0 0 0 0 0 0 0 
0 0 0 0 0 0 0 0 0 
0 0 0 0 0 0 0 0 0 
0 0 0 0 0 0 0 0 0 
0 0 0 0 0 0 0 0 0 
0 0 0 0 0 0 0 0 0 
0 0 0 0 0 0 0 0 0 
0 0 0 0 0 0 0 0 0 
0 0 0 0 0 0 0 0 0 
0 0 0 0 0 0 0 0 0 
0 0 0 0 0 0 0 0 0 
0 0 0 0 0 0 0 0 0 
0 0 0 0 0 0 0 0 0 
0 0 0 0 0 0 0 0 0 
0 0 0 0 0 0 0 0 0 
0 0 0 0 0 0 0 0 0 
0 0 0 0 0 0 0 0 0 
0 0 0 0 0 0 0 0 0 
0 0 0 0 0 0 0 0 0 
0 0 0 0 0 0 0 0 0 
0 0 
NORMALS Normals float
-0.0203235 0.535031 0.844588 0.388817 0.476323 0.78863 0.133496 0.399027 0.907169 
-0.0880107 0.37298 0.923656 -0.212629 0.353333 0.911013 -0.24489 0.329905 0.911697 
0.64585 0.359807 0.673362 0.298727 0.251461 0.920614 0.0804601 0.15146 0.985183 
-0.068983 0.117139 0.990717 -0.162128 0.212485 0.963621 -0.167014 0.380076 0.909752 
-0.166659 0.444691 0.880042 -0.252214 0.553403 0.793809 0.527834 0.152815 0.835487 
0.220835 0.0647847 0.973157 0.0172889 0.00156969 0.999849 -0.0359205 -0.0355151 0.998723 
0.0190938 0.0105208 0.999762 -0.0616561 0.218219 0.97395 -0.125029 0.132079 0.983322 
-0.101911 0.242879 0.964688 -0.312162 0.407601 0.858147 0.475626 0.0326921 0.87904 
0.161283 0.0112364 0.986844 -0.0180476 0.0121292 0.999764 -0.0611742 -0.00146064 0.998126 
0.106963 -0.0271157 0.993893 -0.00863667 0.0272705 0.999591 -0.138787 0.156751 0.977838 
0.016734 0.13823 0.990259 -0.216482 0.0559142 0.974684 -0.335358 0.156809 0.928949 
0.528562 -0.046342 0.847629 0.19917 0.0288648 0.97954 0.00644033 0.0813097 0.996668 
-0.074434 0.0869262 0.99343 0.0347415 0.0348335 0.998789 0.108335 -0.156497 0.981719 
-0.00802342 0.0228374 0.999707 -0.18428 -0.00989421 0.982824 -0.289408 -0.10976 0.950892 
-0.240648 -0.0297015 0.970158 -0.293525 0.0105337 0.955893 0.67761 -0.192587 0.709757 
0.233529 -0.0647795 0.97019 0.0269333 -0.013783 0.999542 -0.100863 0.0595227 0.993118 
-0.128753 0.0767713 0.988701 -0.0239427 -0.00914525 0.999672 0.0183085 -0.0155074 0.999712 
-0.128435 -0.0159107 0.99159 -0.245585 0.0271186 0.968996 -0.230523 -0.00708606 0.973041 
0.379777 -0.271544 0.884326 0.125866 -0.140431 0.982057 0.0101212 -0.0566959 0.99834 
-0.037105 0.0649451 0.997199 0.00797061 0.131414 0.991296 -0.00833407 0.129898 0.991492 
-0.142154 0.136816 0.980344 -0.276026 0.0827787 0.957579 -0.356996 -0.0128648 0.934017 
0.650898 -0.588375 0.479736 0.252675 -0.341217 0.905387 0.105923 -0.196746 0.974716 
0.064908 -0.0548751 0.996381 0.0350263 -0.0124065 0.999309 0.0299972 -0.0154159 0.999431 
-0.170568 -0.0435338 0.984384 -0.363465 -0.100611 0.926159 -0.475268 -0.254169 0.842329 
0.296611 -0.508269 0.808507 0.163252 -0.312975 0.935626 0.0540054 -0.25971 0.964175 
-0.0465401 -0.29835 0.953321 -0.231484 -0.415226 0.879774 -0.460035 -0.511698 0.725626 
0.273009 -0.830148 0.486129 0.0628202 -0.780661 0.621789 -0.142159 -0.800981 0.581567 
-0.0180007 0.537551 0.843039 0.209598 0.787242 0.57993 0.0336891 0.682913 0.729722 
-0.09439 0.622192 0.777153 -0.153578 0.586377 0.795346 0.41722 0.547606 0.725297 
0.535976 0.744306 0.398419 0.00728482 0.548831 0.835901 0.209598 0.609919 0.764243 
0.236117 0.649159 0.723077 -0.0288874 0.527377 0.84914 -0.158122 0.402119 0.90183 
-0.130001 0.430066 0.893389 -0.228797 0.329878 0.915878 -0.143611 0.351885 0.924961 
-0.203997 0.314448 0.927096 -0.230268 0.303636 0.924544 -0.204743 0.362747 0.909118 
0.489287 0.504437 0.711437 0.655127 0.386106 0.649408 0.791319 0.563876 0.236344 
-0.244114 0.322613 0.914511 -0.220927 0.366565 0.903782 -0.245372 0.286341 0.926176 
-0.249083 0.5368 0.806104 -0.200135 0.309843 0.929486 -0.147909 0.284754 0.947121 
-0.21834 0.288653 0.932205 0.667876 0.36702 0.647486 -0.263209 0.547421 0.794387 
-0.319782 0.480498 0.816616 -0.265337 0.457592 0.848649 -0.22938 0.313426 0.921493 
-0.27573 0.32142 0.905904 0.704428 0.210072 0.677975 -0.342295 0.396829 0.851681 
-0.340386 0.324259 0.882606 -0.331559 0.380227 0.863421 -0.285048 0.355555 0.890128 
-0.409718 0.331899 0.849691 0.743286 0.0228578 0.668583 0.970167 -0.000883385 0.242437 
-0.314995 0.169342 0.933864 -0.297535 0.0391238 0.953909 -0.312232 0.170996 0.93449 
-0.424823 0.17596 0.888011 0.754156 -0.1355 0.642564 -0.297501 0.0106542 0.954662 
-0.292487 -0.0199947 0.95606 -0.43144 -0.0205723 0.901907 -0.633248 -0.0719309 0.770599 
0.796209 -0.264516 0.544134 0.793819 -0.41015 0.449031 -0.278988 -0.0886354 0.956195 
-0.291023 -0.103592 0.951091 -0.503765 -0.190817 0.842502 0.786591 -0.428482 0.44461 
0.83349 -0.466623 0.295899 -0.412123 -0.0922433 0.906447 -0.466844 -0.171995 0.867453 
-0.629568 -0.398458 0.666989 0.67308 -0.603299 0.427777 0.662556 -0.613977 0.429013 
0.498086 -0.729352 0.468996 -0.507876 -0.29575 0.80907 -0.524594 -0.371574 0.765986 
-0.631717 -0.450942 0.630543 0.489471 -0.730849 0.475688 0.530499 -0.769838 0.354853 
0.383396 -0.75062 0.538123 -0.331462 -0.829701 0.449143 -0.548012 -0.570929 0.611329 
-0.483286 -0.686845 0.542843 -0.572699 -0.726436 0.379877 0.278546 -0.833754 0.476725 
0.273636 -0.835159 0.477108 0.0776091 -0.873044 0.481426 -0.270142 -0.85452 0.443643 
-0.150422 -0.86875 0.471855 -0.333444 -0.930286 0.152915 0.214301 0.803483 0.55542 
0.0606307 0.766401 0.639495 -0.0759818 0.684811 0.724749 -0.148972 0.60348 0.783338 
0.549683 0.757794 0.351562 0.250691 0.799879 0.545295 0.373675 0.787966 0.489363 
0.459136 0.850867 0.255382 -0.166881 0.580717 0.796818 -0.228855 0.460538 0.857631 
-0.231041 0.588033 0.775137 -0.205452 0.386668 0.899042 -0.252292 0.686408 0.68205 
-0.287166 0.78251 0.552462 0.576712 0.74481 0.335651 0.794772 0.570968 0.20575 
-0.216499 0.360491 0.90729 -0.237834 0.318468 0.917613 -0.264366 0.368993 0.891041 
-0.405678 0.460943 0.789276 0.801902 0.562385 0.201685 -0.240512 0.319781 0.916458 
-0.261795 0.328316 0.907564 -0.26815 0.343897 0.899906 -0.510562 0.39136 0.765613 
0.909318 0.38479 0.158358 -0.335487 0.289632 0.896416 -0.402704 0.297503 0.865634 
-0.410273 0.285609 0.866085 -0.682875 0.357442 0.637116 0.968329 0.224034 0.110214 
0.980397 0.166068 0.106037 -0.486885 0.31798 0.813531 -0.636684 0.303534 0.708872 
0.995376 -0.00895892 0.0956398 0.986285 -0.156966 0.0510214 0.969509 -0.0515727 -0.239568 
-0.599484 0.167024 0.782765 -0.624603 0.0594066 0.77868 -0.614741 0.164977 0.771282 
0.97295 -0.229258 0.0284267 -0.641919 -0.0745663 0.763138 -0.643916 -0.112924 0.756717 
0.924513 -0.376486 -0.0594566 -0.628302 -0.298601 0.718383 -0.735395 -0.357743 0.575512 
0.84956 -0.515435 -0.112131 0.835641 -0.537046 -0.115266 0.82763 -0.514412 -0.224519 
-0.669455 -0.417598 0.614363 -0.660462 -0.455292 0.597076 0.754223 -0.651462 -0.0821251 
0.710019 -0.699189 -0.0837087 0.669477 -0.600808 -0.436841 -0.671145 -0.566511 0.478153 
-0.642855 -0.654687 0.397646 0.618907 -0.783213 -0.0594266 0.579679 -0.813536 -0.0461665 
0.57566 -0.744922 -0.337204 0.449456 -0.891858 -0.0507795 -0.394879 -0.917631 0.04498 
-0.554574 -0.792154 0.254834 -0.515144 -0.832129 0.205397 0.388593 -0.920645 -0.0375173 
0.251246 -0.967793 -0.0159014 0.0464698 -0.99787 -0.0457866 -0.170344 -0.983939 -0.0533519 
-0.331887 -0.94304 -0.0229446 -0.320015 -0.946817 -0.0335733 -0.303075 -0.944875 -0.123919 
0.484038 0.863468 0.141879 0.283719 0.931131 0.229127 0.15245 0.95297 0.261931 
0.0280907 0.952762 0.302415 0.0525471 0.994063 -0.0952747 -0.103418 0.931534 0.348639 
-0.201805 0.896869 0.393575 -0.259681 0.833632 0.487466 -0.288377 0.804466 0.519301 
0.524188 0.842706 0.122778 0.702738 0.711407 -0.00769167 -0.313261 0.785434 0.533817 
-0.424212 0.64387 0.63677 -0.437016 0.866525 0.241144 0.762283 0.645244 -0.0508532 
0.849448 0.490402 -0.194793 -0.550983 0.528467 0.645863 -0.567224 0.520035 0.638609 
-0.596179 0.563217 0.572151 0.853506 0.48056 -0.201468 0.851042 0.470713 -0.232714 
-0.639416 0.429736 0.637553 -0.699191 0.373736 0.60947 -0.818934 0.494997 0.290386 
0.901089 0.321504 -0.290988 0.766626 0.223035 -0.602113 -0.70956 0.363465 0.603671 
0.920164 0.172619 -0.351428 -0.779628 0.30098 0.549174 0.912727 -0.07228 -0.402126 
-0.90775 0.0758495 0.412598 0.819764 -0.300946 -0.487256 0.62293 -0.29604 -0.724098 
-0.931677 -0.184876 0.312729 0.728889 -0.381435 -0.568532 0.714611 -0.402024 -0.572458 
0.701786 -0.376168 -0.604974 -0.866374 -0.414125 0.279101 -0.805843 -0.537165 0.249141 
0.66665 -0.449148 -0.594848 0.623954 -0.535618 -0.569029 0.557187 -0.414314 -0.719643 
-0.780689 -0.58105 0.230015 -0.686789 -0.712856 0.141976 0.608236 -0.556273 -0.566224 
0.531539 -0.641922 -0.552632 0.452168 -0.486099 -0.747832 -0.676569 -0.724906 0.129483 
-0.518485 -0.854914 -0.0172035 0.506544 -0.668733 -0.544251 0.430653 -0.721125 -0.542694 
0.397823 -0.610337 -0.685001 0.261194 -0.505884 -0.822106 -0.242401 -0.89937 -0.363835 
-0.275869 -0.913719 -0.298352 -0.164211 -0.818973 -0.549835 -0.418613 -0.899671 -0.12392 
-0.360816 -0.913992 -0.185553 -0.301249 -0.898688 -0.318763 0.251467 -0.850697 -0.461605 
0.251075 -0.850847 -0.461541 0.251082 -0.850615 -0.461965 0.0314042 -0.876437 -0.480492 
0.0343634 -0.851867 -0.52263 -0.154639 -0.897844 -0.412265 -0.122678 -0.894182 -0.430568 
-0.113851 -0.881747 -0.457778 0.0526788 0.993796 -0.0979494 0.596197 0.756427 -0.269012 
0.356848 0.913374 -0.195979 0.0532909 0.993763 -0.0979572 0.188889 0.976011 -0.108278 
0.0464554 0.994134 -0.0976735 0.0526554 0.993728 -0.0986506 -0.0727907 0.993099 -0.0919519 
-0.155809 0.984678 -0.0783176 -0.187417 0.979728 -0.0707629 -0.271258 0.961722 -0.0388585 
-0.422051 0.905893 0.0350717 0.611056 0.743046 -0.272935 0.731616 0.524148 -0.435897 
0.599517 0.73503 -0.316719 -0.168978 0.774479 -0.609614 -0.468394 0.882403 0.0443926 
-0.384164 0.885275 -0.262119 -0.657586 0.749394 0.0773911 0.73533 0.515767 -0.43963 
0.729809 0.51111 -0.454032 0.498656 0.300665 -0.812984 -0.74764 0.655863 0.104299 
-0.834548 0.540026 0.109094 0.756185 0.312612 -0.574854 0.649828 0.229856 -0.724493 
-0.862097 0.495519 0.106065 -0.813378 0.458988 -0.357417 0.720865 0.188203 -0.667033 
0.688383 0.0906464 -0.719661 0.534575 0.0527267 -0.843475 -0.934482 0.352934 0.0466957 
0.675181 0.0557841 -0.735539 0.665328 0.050765 -0.744823 0.454691 -0.0714337 -0.88778 
-0.983296 0.177871 -0.0385994 0.591495 -0.142687 -0.793583 0.586722 -0.152972 -0.795209 
0.58582 -0.143929 -0.797558 0.415006 -0.174313 -0.892964 0.288397 -0.178029 -0.940815 
-0.992367 -0.0123886 -0.122697 0.524984 -0.269795 -0.807219 0.44148 -0.237921 -0.865153 
0.336235 -0.202352 -0.919783 -0.958234 -0.231284 -0.168214 0.507846 -0.332351 -0.794755 
0.503556 -0.335503 -0.796159 0.500861 -0.330586 -0.799907 0.377805 -0.261957 -0.888055 
0.268725 -0.241083 -0.932559 -0.858314 -0.473567 -0.197564 -0.778924 -0.587979 -0.218078 
-0.672283 -0.395837 -0.625579 0.445045 -0.38196 -0.809964 0.424105 -0.396983 -0.813965 
0.420707 -0.37344 -0.82677 0.242556 -0.353062 -0.903611 0.102295 -0.336823 -0.935995 
0.135267 -0.218356 -0.966449 0.25205 -0.236582 -0.938349 -0.742791 -0.626238 -0.236826 
-0.605404 -0.744453 -0.281559 -0.476485 -0.547369 -0.688004 0.34166 -0.441341 -0.829751 
0.331671 -0.452391 -0.827851 0.322043 -0.434632 -0.841061 0.250529 -0.464021 -0.849658 
0.209469 -0.341794 -0.916133 0.169668 -0.288976 -0.942181 0.159863 -0.327426 -0.931255 
0.1289 -0.438485 -0.889447 -0.162607 -0.817438 -0.552588 -0.226836 -0.85188 -0.472066 
-0.542897 -0.780712 -0.309438 -0.39503 -0.839117 -0.373945 -0.352016 -0.728585 -0.587579 
0.201368 -0.509483 -0.836587 0.126204 -0.560606 -0.818409 0.139459 -0.517848 -0.844029 
0.00524366 -0.654447 -0.75609 0.0396013 -0.57626 -0.816306 -0.161402 -0.815766 -0.555405 
-0.112304 -0.745792 -0.656645 -0.0816827 -0.707157 -0.702322 0.401417 0.571672 -0.71558 
0.244255 0.742732 -0.623449 0.0484456 0.821655 -0.567922 -0.0760794 0.811823 -0.578926 
-0.174896 0.75783 -0.628574 -0.210084 0.679641 -0.702817 0.407903 0.563024 -0.718762 
0.400584 0.558398 -0.726447 0.264832 0.49895 -0.825175 0.0822842 0.514242 -0.853689 
-0.0880605 0.533375 -0.841283 -0.204645 0.532637 -0.82123 -0.170145 0.701404 -0.692158 
-0.196928 0.60241 -0.773512 -0.144563 0.702526 -0.696821 -0.282983 0.740388 -0.60971 
-0.53405 0.666262 -0.520467 0.48859 0.292082 -0.822173 0.484708 0.275549 -0.830139 
0.331744 0.201301 -0.921642 0.224324 0.108562 -0.968449 0.0878159 0.0845362 -0.992543 
-0.10044 0.109287 -0.988923 -0.13734 0.161978 -0.97719 -0.0535169 0.246236 -0.967731 
-0.0861125 0.353404 -0.931499 -0.166337 0.449389 -0.877714 -0.577318 0.631796 -0.51724 
-0.5057 0.611709 -0.608341 0.451283 0.119692 -0.884318 0.381355 0.0893202 -0.920103 
0.241758 -0.0120604 -0.970262 0.163398 -0.0941324 -0.982059 0.0913635 -0.15152 -0.984223 
-0.0155353 -0.0812053 -0.996576 -0.0815297 -0.0274664 -0.996292 0.00358186 0.0579014 -0.998316 
0.0908225 0.104021 -0.99042 -0.124907 0.239638 -0.962794 -0.742202 0.412598 -0.528109 
-0.40633 0.251665 -0.878385 -0.759288 0.388559 -0.522019 0.407103 -0.00433927 -0.913372 
0.319471 -0.0331272 -0.947017 0.14695 -0.0872719 -0.985286 0.0946891 -0.112672 -0.98911 
0.101087 -0.137676 -0.985305 0.0249347 -0.0985326 -0.994821 0.00387533 -0.0441266 -0.999018 
0.0927773 -0.0118565 -0.995616 0.0868833 0.00430147 -0.996209 -0.0338057 -0.00456353 -0.999418 
-0.221791 0.136722 -0.965462 -0.782896 0.245342 -0.571735 -0.696966 0.233545 -0.678008 
0.319326 -0.100438 -0.942307 0.282763 -0.155689 -0.94647 0.269241 -0.110376 -0.956727 
0.173401 -0.114019 -0.978229 0.117845 -0.000583293 -0.993032 0.110994 -0.0365748 -0.993148 
0.0740661 -0.148586 -0.986122 0.00828204 -0.0475113 -0.998836 0.054519 -0.0703362 -0.996032 
0.102523 -0.0649397 -0.992609 0.010639 -0.0217499 -0.999707 -0.175702 -0.00593109 -0.984426 
-0.748096 0.0745235 -0.659393 -0.602455 0.0117104 -0.798067 0.281408 -0.165637 -0.945185 
0.264068 -0.114913 -0.957634 0.169571 -0.0417304 -0.984634 -0.0648605 -0.110131 -0.991798 
0.0132046 -0.212239 -0.977129 0.0964668 -0.135332 -0.986093 0.0790833 -0.0696597 -0.994431 
0.134685 -0.0456463 -0.989837 0.0234839 -0.0667214 -0.997495 -0.19707 -0.084281 -0.97676 
-0.681621 -0.0775916 -0.72758 -0.547518 -0.101003 -0.830676 0.308248 -0.163067 -0.937226 
0.292616 -0.180325 -0.939073 0.301513 -0.153411 -0.941039 0.130503 -0.199485 -0.971172 
-0.0366295 -0.230129 -0.97247 0.0482615 -0.0609736 -0.996972 0.129588 -0.0452575 -0.990535 
0.133728 0.0151679 -0.990902 0.107884 -0.015824 -0.994038 -0.0302966 -0.10373 -0.994144 
-0.230671 -0.147632 -0.961767 -0.640096 -0.209883 -0.739071 -0.637287 -0.343163 -0.690004 
-0.56508 -0.19992 -0.800448 0.154458 -0.290873 -0.944212 0.0777464 -0.329378 -0.940992 
0.0768698 -0.323287 -0.943174 0.0701474 -0.287812 -0.955114 0.0640627 -0.295113 -0.953312 
0.250635 -0.231163 -0.940078 0.212979 -0.148247 -0.965745 0.181343 -0.0762946 -0.980456 
0.112179 -0.0451516 -0.992662 0.01652 -0.0939283 -0.995442 -0.109514 -0.176149 -0.978253 
-0.620229 -0.374985 -0.688986 -0.471986 -0.541986 -0.695327 -0.30738 -0.260734 -0.91517 
0.251189 -0.238613 -0.938066 0.159625 -0.389029 -0.907291 0.220127 -0.257944 -0.940749 
0.119565 -0.265657 -0.956625 -0.031223 -0.298635 -0.953857 -0.469552 -0.543046 -0.696148 
-0.296534 -0.570178 -0.766136 -0.218629 -0.387463 -0.895586 0.0581846 -0.540719 -0.839188 
0.0499111 -0.552023 -0.832334 0.0514446 -0.549074 -0.834189 -0.123709 -0.633616 -0.763693 
-0.111462 -0.633974 -0.76528 -0.109803 -0.628821 -0.769758 
