# vtk DataFile Version 4.2
vtk output
ASCII
DATASET POLYDATA
POINTS 526 float
7.91788 1.86885 -22.6767 -14.9562 -36.2546 -15.7237 -7.33149 -36.2546 -16.5407 
0.293195 -36.2546 -16.8315 7.91788 -36.2546 -16.8614 15.5426 -36.2546 -15.8559 
-30.2056 -28.6299 -15.6573 -22.5809 -28.6299 -17.0365 -14.9562 -28.6299 -18.4138 
-7.33149 -28.6299 -19.1384 0.293195 -28.6299 -19.6761 7.91788 -28.6299 -18.9219 
15.5426 -28.6299 -18.3434 23.1673 -28.6299 -17.1861 30.792 -28.6299 -16.0869 
-37.8302 -21.0052 -16.0093 -30.2056 -21.0052 -17.7181 -22.5809 -21.0052 -18.1582 
-14.9562 -21.0052 -18.4165 -7.33149 -21.0052 -19.4811 0.293195 -21.0052 -20.0432 
7.91788 -21.0052 -19.3014 15.5426 -21.0052 -18.5795 23.1673 -21.0052 -18.2703 
30.792 -21.0052 -17.7178 38.4166 -21.0052 -16.2723 -45.4549 -13.3805 -14.9836 
-37.8302 -13.3805 -17.9337 -30.2056 -13.3805 -18.3977 -22.5809 -13.3805 -18.1305 
-14.9562 -13.3805 -18.044 -7.33149 -13.3805 -19.5746 0.293195 -13.3805 -20.1691 
7.91788 -13.3805 -19.393 15.5426 -13.3805 -18.3762 23.1673 -13.3805 -18.4541 
30.792 -13.3805 -18.8091 38.4166 -13.3805 -18.2216 46.0413 -13.3805 -15.2006 
-45.4549 -5.75584 -15.5126 -37.8302 -5.75584 -18.1655 -30.2056 -5.75584 -18.654 
-22.5809 -5.75584 -18.1902 -14.9562 -5.75584 -18.6769 -7.33149 -5.75584 -21.1112 
0.293195 -5.75584 -18.3795 7.91788 1.32024 -22.5857 7.91788 -5.75584 -21.3888 
15.5426 -5.75584 -19.5559 23.1673 -5.75584 -18.809 30.792 -5.75584 -19.2936 
38.4166 -5.75584 -18.9934 46.0413 -5.75584 -16.8298 -45.4549 1.86885 -16.2735 
-37.8302 1.86885 -18.693 -30.2056 1.86885 -19.0109 -22.5809 1.86885 -18.4118 
-14.9562 1.86885 -19.2745 -7.33149 1.86885 -21.6147 7.76986 1.86885 -22.5857 
0.293195 1.86885 -17.2172 8.11184 1.86885 -22.5857 7.91788 2.23 -22.5857 
15.5426 1.86885 -18.2503 23.1673 1.86885 -18.2418 30.792 1.86885 -19.0865 
38.4166 1.86885 -19.0289 46.0413 1.86885 -17.079 -45.4549 9.49354 -16.5448 
-37.8302 9.49354 -18.9892 -30.2056 9.49354 -19.5776 -22.5809 9.49354 -19.404 
-14.9562 9.49354 -19.338 -7.33149 9.49354 -20.2571 0.293195 9.49354 -19.7022 
7.91788 9.49354 -20.6455 15.5426 9.49354 -17.7586 23.1673 9.49354 -17.9038 
30.792 9.49354 -18.7714 38.4166 9.49354 -18.599 46.0413 9.49354 -16.3887 
-45.4549 17.1182 -15.5386 -37.8302 17.1182 -18.6245 -30.2056 17.1182 -19.8252 
-22.5809 17.1182 -20.0164 -14.9562 17.1182 -19.5404 -7.33149 17.1182 -19.1038 
0.293195 17.1182 -19.0935 7.91788 17.1182 -20.0576 15.5426 17.1182 -19.631 
23.1673 17.1182 -19.6319 30.792 17.1182 -19.3712 38.4166 17.1182 -18.5755 
46.0413 17.1182 -16.2542 -37.8302 24.7429 -17.5165 -30.2056 24.7429 -19.4838 
-22.5809 24.7429 -19.9034 -14.9562 24.7429 -20.1916 -7.33149 24.7429 -19.2142 
0.293195 24.7429 -19.3721 7.91788 24.7429 -20.3126 15.5426 24.7429 -20.542 
23.1673 24.7429 -20.1757 30.792 24.7429 -19.3639 38.4166 24.7429 -17.9871 
-30.2056 32.3676 -17.2528 -22.5809 32.3676 -18.3737 -14.9562 32.3676 -19.3128 
-7.33149 32.3676 -18.9073 0.293195 32.3676 -18.5975 7.91788 32.3676 -19.4193 
15.5426 32.3676 -19.7155 23.1673 32.3676 -19.4926 30.792 32.3676 -17.9182 
38.4166 32.3676 -15.4306 -14.9562 39.9923 -15.7391 -7.33149 39.9923 -16.0947 
0.293195 39.9923 -15.788 7.91788 39.9923 -15.5212 15.5426 39.9923 -15.5182 
23.1673 39.9923 -15.0405 -14.9562 -37.3515 -14.961 -7.33149 -38.4669 -14.961 
0.293195 -38.7859 -14.961 7.91788 -38.7859 -14.961 15.5426 -37.5246 -14.961 
-30.2056 -29.8003 -14.961 -30.2056 -36.2546 -9.10749 -17.9016 -36.2546 -14.961 
-22.5809 -33.4273 -14.961 -22.5809 -36.2546 -13.2938 19.6638 -36.2546 -14.961 
23.1673 -34.323 -14.961 23.1673 -36.2546 -13.9822 30.792 -30.6828 -14.961 
30.792 -36.2546 -10.9119 -32.0243 -28.6299 -14.961 -37.8302 -23.5091 -14.961 
-37.8302 -28.6299 -11.9184 33.5471 -28.6299 -14.961 38.4166 -24.1199 -14.961 
38.4166 -28.6299 -12.4642 -39.7939 -21.0052 -14.961 -45.4549 -13.4425 -14.961 
-45.4549 -21.0052 -10.4523 40.8993 -21.0052 -14.961 46.0413 -14.0142 -14.961 
46.0413 -21.0052 -11.0866 -45.483 -13.3805 -14.961 46.3656 -13.3805 -14.961 
-46.1739 -5.75584 -14.961 48.7921 -5.75584 -14.961 53.666 -5.75584 -9.30897 
-47.174 1.86885 -14.961 49.0972 1.86885 -14.961 53.666 1.86885 -9.54497 
-47.2223 9.49354 -14.961 48.1265 9.49354 -14.961 53.666 9.49354 -7.59027 
-46.1091 17.1182 -14.961 -45.4549 18.5402 -14.961 47.6924 17.1182 -14.961 
46.0413 20.6168 -14.961 -41.4084 24.7429 -14.961 -45.4549 24.7429 -9.3414 
-37.8302 29.1891 -14.961 43.112 24.7429 -14.961 46.0413 24.7429 -11.3841 
-34.377 32.3676 -14.961 -37.8302 32.3676 -11.1641 -30.2056 35.1679 -14.961 
-22.5809 38.5515 -14.961 30.792 37.9404 -14.961 39.0224 32.3676 -14.961 
38.4166 32.9806 -14.961 -18.706 39.9923 -14.961 -22.5809 39.9923 -13.546 
-14.9562 40.9596 -14.961 -7.33149 41.5529 -14.961 0.293195 41.0193 -14.961 
7.91788 40.6235 -14.961 15.5426 40.5671 -14.961 23.5575 39.9923 -14.961 
23.1673 40.0639 -14.961 30.792 39.9923 -10.8306 -30.2056 -37.3925 -7.33634 
-22.5809 -40.645 -7.33634 -14.9562 -42.5512 -7.33634 -7.33149 -43.4796 -7.33634 
0.293195 -43.525 -7.33634 7.91788 -43.4656 -7.33634 15.5426 -43.0683 -7.33634 
23.1673 -41.8644 -7.33634 30.792 -38.8177 -7.33634 -32.2246 -36.2546 -7.33634 
-37.8302 -32.5127 -7.33634 34.8683 -36.2546 -7.33634 38.4166 -33.4717 -7.33634 
-42.1397 -28.6299 -7.33634 -45.4549 -24.4881 -7.33634 43.2827 -28.6299 -7.33634 
46.0413 -25.147 -7.33634 -47.7102 -21.0052 -7.33634 48.8595 -21.0052 -7.33634 
-50.7002 -13.3805 -7.33634 52.6029 -13.3805 -7.33634 53.666 -9.68205 -7.33634 
-52.3012 -5.75584 -7.33634 54.7761 -5.75584 -7.33634 -53.0238 1.86885 -7.33634 
-53.0796 1.86885 -5.97468 54.8352 1.86885 -7.33634 -52.2307 9.49354 -7.33634 
53.788 9.49354 -7.33634 53.666 10.0289 -7.33634 53.666 9.49354 -6.42807 
-50.226 17.1182 -7.33634 51.9512 17.1182 -7.33634 -46.4461 24.7429 -7.33634 
-45.4549 26.0608 -7.33634 -45.4549 24.7429 0.0761125 48.0064 24.7429 -7.33634 
46.0413 27.8777 -7.33634 -39.9025 32.3676 -7.33634 -37.8302 34.3321 -7.33634 
-30.2056 39.6848 -7.33634 42.7871 32.3676 -7.33634 38.4166 36.5764 -7.33634 
-29.6355 39.9923 -7.33634 -22.5809 43.4086 -7.33634 -14.9562 45.4564 -7.33634 
-7.33149 46.2943 -7.33634 0.293195 45.4216 -7.33634 7.91788 44.3676 -7.33634 
15.5426 43.8269 -7.33634 23.1673 43.285 -7.33634 32.6996 39.9923 -7.33634 
30.792 40.9274 -7.33634 30.792 39.9923 -2.86798 -30.2056 -38.4979 0.288345 
-22.5809 -41.3446 0.288345 -14.9562 -42.8578 0.288345 -7.33149 -43.2382 0.288345 
0.293195 -43.3833 0.288345 7.91788 -43.5689 0.288345 15.5426 -43.4515 0.288345 
23.1673 -42.4221 0.288345 30.792 -39.9515 0.288345 -34.6247 -36.2546 0.288345 
-37.8302 -34.3588 0.288345 36.8252 -36.2546 0.288345 38.4166 -35.1336 0.288345 
-44.1815 -28.6299 0.288345 -45.4549 -27.0451 0.288345 45.1868 -28.6299 0.288345 
46.0413 -27.527 0.288345 -49.1925 -21.0052 0.288345 50.276 -21.0052 0.288345 
-51.9281 -13.3805 0.288345 53.3462 -13.3805 0.288345 53.666 -11.9654 0.288345 
-53.0193 -5.75584 0.288345 -53.0796 -4.2056 0.288345 55.113 -5.75584 0.288345 
53.666 -5.75584 4.96832 -53.3368 1.86885 0.288345 -53.0796 3.97637 0.288345 
-53.0796 1.86885 1.76946 54.4535 1.86885 0.288345 53.666 5.36321 0.288345 
53.666 1.86885 2.36655 -52.4477 9.49354 0.288345 52.7573 9.49354 0.288345 
-50.2239 17.1182 0.288345 -45.4549 24.7009 0.288345 50.5783 17.1182 0.288345 
46.0413 17.1182 7.40049 -45.4254 24.7429 0.288345 46.1125 24.7429 0.288345 
46.0413 24.858 0.288345 46.0413 24.7429 0.398001 -38.2336 32.3676 0.288345 
-37.8302 32.7461 0.288345 -37.8302 32.3676 0.907644 -30.2056 38.9433 0.288345 
30.792 39.1863 0.288345 40.4816 32.3676 0.288345 38.4166 34.2623 0.288345 
38.4166 32.3676 2.66049 -28.0245 39.9923 0.288345 -22.5809 42.3253 0.288345 
-22.5809 39.9923 4.47793 -14.9562 44.572 0.288345 -7.33149 45.4172 0.288345 
0.293195 44.2107 0.288345 0.293195 39.9923 6.67956 7.91788 43.0014 0.288345 
7.91788 39.9923 5.07705 15.5426 42.3156 0.288345 15.5426 39.9923 4.2246 
28.1367 39.9923 0.288345 23.1673 41.4023 0.288345 23.1673 39.9923 2.57605 
-30.2056 -36.9172 7.91303 -22.5809 -39.1308 7.91303 -14.9562 -40.2761 7.91303 
-7.33149 -40.6239 7.91303 0.293195 -40.6859 7.91303 7.91788 -40.8239 7.91303 
15.5426 -40.5449 7.91303 23.1673 -39.4482 7.91303 30.792 -37.2947 7.91303 
-31.6263 -36.2546 7.91303 -37.8302 -32.9523 7.91303 -30.2056 -36.2546 9.31199 
-22.5809 -36.2546 13.7238 -14.9562 -36.2546 14.5169 -7.33149 -36.2546 14.2548 
0.293195 -36.2546 13.9367 7.91788 -36.2546 13.6526 15.5426 -36.2546 13.1254 
23.1673 -36.2546 11.8242 32.6273 -36.2546 7.91303 30.792 -36.2546 9.34281 
38.4166 -32.5119 7.91303 -42.7141 -28.6299 7.91303 -45.4549 -25.3655 7.91303 
-37.8302 -28.6299 15.5065 42.6953 -28.6299 7.91303 38.4166 -28.6299 12.5871 
46.0413 -24.3792 7.91303 -48.2249 -21.0052 7.91303 -45.4549 -21.0052 13.9531 
48.2402 -21.0052 7.91303 46.0413 -21.0052 11.1117 -50.961 -13.3805 7.91303 
51.2063 -13.3805 7.91303 46.0413 -13.3805 14.8354 -51.9695 -5.75584 7.91303 
52.6854 -5.75584 7.91303 -52.0469 1.86885 7.91303 51.5023 1.86885 7.91303 
46.0413 1.86885 14.8624 -50.8162 9.49354 7.91303 49.1352 9.49354 7.91303 
46.0413 16.437 7.91303 46.0413 9.49354 11.8135 -47.5593 17.1182 7.91303 
-45.4549 20.3069 7.91303 -45.4549 17.1182 11.792 45.6624 17.1182 7.91303 
38.4166 17.1182 14.4045 -41.8533 24.7429 7.91303 -37.8302 28.5727 7.91303 
-37.8302 24.7429 12.5482 30.792 24.7429 14.4804 40.6114 24.7429 7.91303 
38.4166 27.3389 7.91303 38.4166 24.7429 10.0067 -32.6405 32.3676 7.91303 
-30.2056 34.0307 7.91303 -30.2056 32.3676 9.89944 -22.5809 37.7081 7.91303 
-22.5809 32.3676 13.0647 -14.9562 32.3676 14.6186 -7.33149 32.3676 14.0357 
0.293195 38.9116 7.91303 0.293195 32.3676 12.8416 7.91788 37.6783 7.91303 
7.91788 32.3676 12.2753 15.5426 37.2711 7.91303 15.5426 32.3676 12.5189 
23.1673 36.2369 7.91303 23.1673 32.3676 11.5412 32.5465 32.3676 7.91303 
30.792 33.577 7.91303 30.792 32.3676 9.07639 -15.1768 39.9923 7.91303 
-14.9562 40.0552 7.91303 -14.9562 39.9923 7.98028 -5.54738 39.9923 7.91303 
-7.33149 40.2474 7.91303 -7.33149 39.9923 8.2018 -30.2056 -32.7878 15.5377 
[...]
POINT_DATA 526
SCALARS ImageScalars float
LOOKUP_TABLE default
0 0 0 0 0 0 0 0 0 
0 0 0 0 0 0 0 0 0 
0 0 0 0 0 0 0 0 0 
0 0 0 0 0 0 0 0 0 
0 0 0 0 0 0 0 0 0 
0 0 0 0 0 0 0 0 0 
0 0 0 0 0 0 0 0 0 
0 0 0 0 0 0 0 0 0 
0 0 0 0 0 0 0 0 0 
0 0 0 0 0 0 0 0 0 
0 0 0 0 0 0 0 0 0 
0 0 0 0 0 0 0 0 0 
0 0 0 0 0 0 0 0 0 
0 0 0 0 0 0 0 0 0 
0 0 0 0 0 0 0 0 0 
0 0 0 0 0 0 0 0 0 
0 0 0 0 0 0 0 0 0 
0 0 0 0 0 0 0 0 0 
0 0 0 0 0 0 0 0 0 
0 0 0 0 0 0 0 0 0 
0 0 0 0 0 0 0 0 0 
0 0 0 0 0 0 0 0 0 
0 0 0 0 0 0 0 0 0 
0 0 0 0 0 0 0 0 0 
0 0 0 0 0 0 0 0 0 
0 0 0 0 0 0 0 0 0 
0 0 0 0 0 0 0 0 0 
0 0 0 0 0 0 0 0 0 
0 0 0 0 0 0 0 0 0 
0 0 0 0 0 0 0 0 0 
0 0 0 0 0 0 0 0 0 
0 0 0 0 0 0 0 0 0 
0 0 0 0 0 0 0 0 0 
0 0 0 0 0 0 0 0 0 
0 0 0 0 0 0 0 0 0 
0 0 0 0 0 0 0 0 0 
0 0 0 0 0 0 0 0 0 
0 0 0 0 0 0 0 0 0 
0 0 0 0 0 0 0 0 0 
0 0 0 0 0 0 0 0 0 
0 0 0 0 0 0 0 0 0 
0 0 0 0 0 0 0 0 0 
0 0 0 0 0 0 0 0 0 
0 0 0 0 0 0 0 0 0 
0 0 0 0 0 0 0 0 0 
0 0 0 0 0 0 0 0 0 
0 0 0 0 0 0 0 0 0 
0 0 0 0 0 0 0 0 0 
0 0 0 0 0 0 0 0 0 
0 0 0 0 0 0 0 0 0 
0 0 0 0 0 0 0 0 0 
0 0 0 0 0 0 0 0 0 
0 0 0 0 0 0 0 0 0 
0 0 0 0 0 0 0 0 0 
0 0 0 0 0 0 0 0 0 
0 0 0 0 0 0 0 0 0 
0 0 0 0 0 0 0 0 0 
0 0 0 0 0 0 0 0 0 
0 0 0 0 
NORMALS Normals float
-0.0792279 0.0470413 -0.995746 -0.162884 -0.51307 -0.84275 -0.0704326 -0.490073 -0.868831 
-0.0194054 -0.502463 -0.864381 0.0634712 -0.481288 -0.874262 0.156799 -0.49933 -0.852105 
-0.257486 -0.39459 -0.882043 -0.174065 -0.258424 -0.95022 -0.126658 -0.161129 -0.978772 
-0.085456 -0.172686 -0.981263 0.0139307 -0.182211 -0.983161 0.0882186 -0.152238 -0.984399 
0.105942 -0.164198 -0.980722 0.140237 -0.234532 -0.96194 0.256291 -0.351181 -0.900548 
-0.342024 -0.326476 -0.881154 -0.125022 -0.156781 -0.979688 -0.0441455 -0.0660005 -0.996843 
-0.0863137 0.0241143 -0.995976 -0.106404 -0.0275227 -0.993942 0.0117432 -0.0311132 -0.999447 
0.0950453 -0.0296461 -0.995031 0.0673065 -0.00295462 -0.997728 0.0547742 -0.0790751 -0.995363 
0.118232 -0.160632 -0.979907 0.325223 -0.329132 -0.886511 -0.592644 -0.20148 -0.779858 
-0.207259 -0.119794 -0.970924 -0.0149755 -0.0575804 -0.998229 0.02354 -0.00215015 -0.999721 
-0.0908971 -0.0117086 -0.995791 -0.140878 -0.102625 -0.984694 0.011694 0.0988053 -0.995038 
0.117846 -0.130652 -0.984399 0.0595352 -0.0558009 -0.996665 -0.0285257 -0.0354749 -0.998963 
0.016956 -0.0982803 -0.995014 0.209864 -0.156745 -0.965085 0.526721 -0.257853 -0.809986 
-0.508844 -0.0779192 -0.857325 -0.176601 -0.049538 -0.983035 -0.000272523 -0.040138 -0.999194 
0.00267438 -0.0184089 -0.999827 -0.200445 -0.0816036 -0.976301 0.027067 -0.132377 -0.99083 
-0.0191479 0.192871 -0.981037 -0.0793651 0.0264972 -0.996493 -0.0767001 -0.203312 -0.976105 
0.178357 -0.0114205 -0.9839 0.0118722 0.0138883 -0.999833 -0.0126063 -0.018095 -0.999757 
0.14557 -0.0561611 -0.987753 0.449665 -0.113355 -0.885975 -0.49902 -0.0600443 -0.864508 
-0.155661 -0.0531225 -0.986381 0.0192598 -0.060369 -0.99799 -0.0084323 -0.0769939 -0.996996 
-0.210339 -0.0431233 -0.976677 0.127466 0.0611049 -0.989959 -0.0792059 0.0446136 -0.995859 
-0.0530697 -0.109741 -0.992543 -0.0692119 0.0497397 -0.996361 -0.0686584 0.0536765 -0.996195 
0.269672 0.124574 -0.95486 -0.0557134 0.06011 -0.996636 -0.0514856 0.0341669 -0.998089 
0.112976 0.025926 -0.993259 0.441932 0.0264015 -0.89666 -0.51819 0.0461482 -0.85402 
-0.167695 0.00371631 -0.985832 -0.0255595 -0.0533807 -0.998247 0.0158696 -0.106681 -0.994167 
-0.0536186 -0.0171741 -0.998414 -0.025171 0.158255 -0.987077 -0.0225631 -0.0963495 -0.995092 
0.131974 0.153926 -0.979229 0.169164 -0.0926891 -0.98122 -0.0673833 -0.0924758 -0.993432 
-0.045541 -0.0208432 -0.998745 0.135834 0.0293845 -0.990296 0.449076 0.0507627 -0.892051 
-0.611591 0.244336 -0.7525 -0.260395 0.0795306 -0.962221 -0.0847303 0.00427772 -0.996395 
0.0187093 -0.0312279 -0.999337 0.0605736 -0.0556999 -0.996608 0.0294613 0.0640796 -0.99751 
-0.0631081 0.0213412 -0.997778 -0.0372797 0.0185777 -0.999132 0.0284974 -0.184368 -0.982444 
0.0181663 -0.149928 -0.98853 0.0724021 -0.0379001 -0.996655 0.200988 0.0315927 -0.979084 
0.543635 0.188339 -0.817918 -0.426545 0.315064 -0.847817 -0.133433 0.137791 -0.981432 
-0.0439586 0.0992755 -0.994089 0.0449876 0.0092612 -0.998945 0.0524152 0.0141434 -0.998525 
-0.0718453 0.0312502 -0.996926 -0.0769066 0.0412163 -0.996186 0.00890263 -0.00371723 -0.999953 
0.0749501 0.00449614 -0.997177 0.129265 0.0949464 -0.987054 0.373687 0.206525 -0.90427 
-0.306569 0.486119 -0.818354 -0.114005 0.320922 -0.940219 -0.0278685 0.268291 -0.962935 
0.0428921 0.187106 -0.981403 -0.0315885 0.217234 -0.975608 -0.0713175 0.278575 -0.957763 
-0.00610877 0.284352 -0.9587 0.122788 0.273194 -0.95409 0.255587 0.329593 -0.908869 
0.52261 0.50019 -0.690426 -0.110115 0.585831 -0.802918 -0.00297211 0.535703 -0.844401 
0.0360316 0.5681 -0.82217 0.0170343 0.668691 -0.743345 0.0243068 0.71198 -0.701779 
0.113831 0.755636 -0.645025 -0.172319 -0.572023 -0.801933 -0.0654941 -0.60769 -0.791469 
-0.014085 -0.642822 -0.765886 0.0583435 -0.626403 -0.777313 0.160266 -0.563734 -0.810258 
-0.279294 -0.440994 -0.852947 -0.434453 -0.787222 -0.437644 -0.206517 -0.545116 -0.812526 
-0.248594 -0.464777 -0.849814 -0.29449 -0.640253 -0.709473 0.201949 -0.525138 -0.826708 
0.220166 -0.4637 -0.858201 0.245901 -0.574675 -0.780565 0.287062 -0.425178 -0.858382 
0.412299 -0.705228 -0.576769 -0.308816 -0.427935 -0.849414 -0.38501 -0.395624 -0.833816 
-0.51791 -0.572322 -0.635781 0.334986 -0.400742 -0.852754 0.384578 -0.393778 -0.834888 
0.512022 -0.521945 -0.682207 -0.415352 -0.362988 -0.8341 -0.59325 -0.203148 -0.778964 
-0.709208 -0.446066 -0.545938 0.407352 -0.369755 -0.835072 0.533363 -0.270375 -0.801512 
0.660774 -0.476391 -0.580025 -0.594112 -0.201589 -0.778712 0.542147 -0.259167 -0.799318 
-0.548627 -0.0800915 -0.832222 0.567092 -0.122166 -0.814544 0.901924 -0.145187 -0.40676 
-0.574258 -0.0476272 -0.817288 0.580697 0.0274453 -0.813657 0.926507 0.0527169 -0.372565 
-0.63869 0.0596556 -0.767148 0.572513 0.0655912 -0.817268 0.967173 0.177559 -0.181793 
-0.64695 0.245317 -0.721994 -0.634384 0.285553 -0.718343 0.654087 0.211069 -0.726375 
0.62434 0.296121 -0.72285 -0.570173 0.407312 -0.713442 -0.799906 0.533553 -0.274722 
-0.519685 0.496785 -0.695077 0.574633 0.362871 -0.733568 0.782806 0.472854 -0.404505 
-0.458881 0.566592 -0.684399 -0.628374 0.684008 -0.370512 -0.363225 0.618605 -0.696703 
-0.241196 0.63089 -0.73743 0.332432 0.678342 -0.655242 0.556896 0.507809 -0.657265 
0.53908 0.522737 -0.660408 -0.188635 0.643436 -0.741894 -0.290102 0.749025 -0.595654 
-0.127289 0.626652 -0.768833 -0.00296139 0.604587 -0.796534 0.0470802 0.619538 -0.783553 
0.0234977 0.698179 -0.715538 0.0314229 0.740252 -0.671595 0.127178 0.759403 -0.63807 
0.114804 0.759367 -0.640455 0.379156 0.885008 -0.270187 -0.43995 -0.832297 -0.337233 
-0.308469 -0.896551 -0.317872 -0.178496 -0.952514 -0.24669 -0.0625163 -0.979275 -0.192644 
0.000877295 -0.982055 -0.188592 0.0283839 -0.974125 -0.224221 0.0969464 -0.956515 -0.275102 
0.264073 -0.904809 -0.334045 0.438712 -0.825405 -0.355301 -0.478034 -0.80696 -0.346842 
-0.582435 -0.716565 -0.383803 0.533081 -0.765327 -0.360694 0.605622 -0.701613 -0.37545 
-0.67765 -0.629318 -0.380458 -0.75914 -0.527837 -0.380914 0.687779 -0.613178 -0.388553 
0.734712 -0.564253 -0.376586 -0.813485 -0.446264 -0.372949 0.794309 -0.49265 -0.355485 
-0.900043 -0.263297 -0.34727 0.889397 -0.328256 -0.318152 0.925598 -0.236942 -0.295172 
-0.93981 -0.139523 -0.311913 0.948504 -0.140043 -0.284127 -0.962613 0.00834994 -0.27075 
-0.977225 0.0139713 -0.211747 0.9721 0.0627953 -0.226006 -0.954935 0.165057 -0.24669 
0.969702 0.178075 -0.167232 0.967553 0.189719 -0.166875 0.975912 0.183786 -0.117548 
-0.915848 0.339042 -0.215113 0.922305 0.353714 -0.155693 -0.830162 0.538198 -0.145514 
-0.810117 0.568723 -0.142353 -0.791301 0.573361 0.212366 0.868082 0.484814 -0.10672 
0.830667 0.547223 -0.102666 -0.687522 0.71766 -0.110802 -0.64924 0.752507 -0.110546 
-0.491282 0.858752 -0.145556 0.739803 0.66765 -0.0832821 0.617868 0.783679 -0.0639241 
-0.47925 0.865594 -0.145145 -0.341056 0.927118 -0.155347 -0.183231 0.968852 -0.166592 
0.00247112 0.986101 -0.16613 0.128846 0.980812 -0.146311 0.105755 0.988291 -0.109988 
0.0693749 0.994026 -0.0842615 0.187771 0.979967 -0.0663876 0.426275 0.903799 -0.0379091 
0.37171 0.92789 -0.0291945 0.366025 0.907938 0.204141 -0.394834 -0.918204 0.0317345 
-0.270134 -0.958209 0.0941426 -0.117041 -0.983004 0.141437 -0.0342353 -0.984125 0.174141 
-0.021645 -0.985497 0.168305 -0.00453495 -0.988121 0.153609 0.0732633 -0.986724 0.144943 
0.222392 -0.96482 0.14023 0.413847 -0.906163 0.0871756 -0.494487 -0.869153 0.00740475 
-0.586809 -0.809603 -0.0140454 0.573899 -0.816318 0.0653005 0.615708 -0.786088 0.0544856 
-0.75487 -0.6556 -0.0189807 -0.797305 -0.603182 -0.021812 0.763038 -0.645837 0.0258326 
0.786927 -0.616496 0.0260591 -0.90246 -0.430374 -0.0185705 0.884346 -0.465419 0.0362813 
-0.970048 -0.24255 -0.0132967 0.955387 -0.284031 0.0810089 0.965434 -0.244804 0.0894898 
-0.995935 -0.0872624 0.022311 -0.997572 -0.0626006 0.0305184 0.988815 -0.0752667 0.128765 
0.949968 -0.039608 0.309826 -0.997283 0.0371785 0.0635887 -0.99462 0.0778733 0.0683143 
-0.993579 0.0437081 0.104361 0.969039 0.145797 0.199266 0.956773 0.177192 0.230624 
0.948998 0.161099 0.271016 -0.979117 0.184943 0.0844189 0.936376 0.223937 0.270282 
-0.90712 0.392215 0.152646 -0.789305 0.572448 0.222038 0.865604 0.369586 0.33784 
0.722854 0.411781 0.554903 -0.788455 0.573431 0.222521 0.796024 0.479379 0.369515 
0.794943 0.480973 0.369771 0.794331 0.479191 0.373382 -0.640408 0.714628 0.2814 
-0.63499 0.719001 0.282535 -0.630377 0.715822 0.300373 -0.467212 0.830664 0.302836 
0.35558 0.854934 0.377691 0.647469 0.650426 0.397153 0.587461 0.703237 0.400434 
0.583205 0.650323 0.486776 -0.419242 0.854006 0.308074 -0.330463 0.892466 0.307082 
-0.324441 0.821198 0.469439 -0.183498 0.93484 0.303979 0.0207776 0.92755 0.373122 
0.149368 0.921055 0.359648 0.125373 0.756962 0.641319 0.113716 0.925131 0.362218 
0.0927478 0.813497 0.574125 0.0942019 0.927251 0.362398 0.090404 0.849554 0.519697 
0.289107 0.878888 0.379438 0.187015 0.902006 0.389114 0.182223 0.865396 0.466781 
-0.33481 -0.89351 0.299235 -0.197368 -0.915183 0.351405 -0.0902777 -0.908364 0.408319 
-0.0253544 -0.895432 0.444476 -0.0118008 -0.884384 0.466611 0.0079308 -0.873391 0.486955 
0.0782014 -0.856877 0.509555 0.191213 -0.832197 0.520467 0.359793 -0.808768 0.465234 
-0.368939 -0.881228 0.295502 -0.558972 -0.780917 0.278779 -0.332588 -0.877987 0.344274 
-0.154054 -0.820944 0.549834 -0.0137825 -0.752204 0.658786 0.0242696 -0.723019 0.690402 
0.0269538 -0.694599 0.718892 0.0380933 -0.665251 0.745648 0.083698 -0.680099 0.728326 
0.16738 -0.727665 0.665197 0.411333 -0.787828 0.458402 0.353302 -0.77301 0.526909 
0.555777 -0.715277 0.423664 -0.701306 -0.663754 0.26 -0.792204 -0.555217 0.253272 
-0.51715 -0.638692 0.569762 0.6558 -0.63916 0.401746 0.483425 -0.609986 0.627867 
0.757727 -0.523787 0.389225 -0.868565 -0.428073 0.249697 -0.764237 -0.418812 0.490448 
0.807306 -0.440435 0.392776 0.732126 -0.424316 0.532867 -0.939 -0.234103 0.251941 
0.874682 -0.247284 0.416872 0.651384 -0.205111 0.730499 -0.965093 -0.0655762 0.253564 
0.899706 -0.019456 0.436062 -0.958227 0.0691765 0.277516 0.854769 0.196909 0.480204 
0.645063 0.192947 0.739368 -0.915482 0.259267 0.307691 0.794037 0.307436 0.524394 
0.719401 0.40271 0.565939 0.70009 0.315051 0.640794 -0.807642 0.456473 0.373292 
-0.751249 0.529367 0.394202 -0.722218 0.487432 0.490725 0.709617 0.411235 0.572127 
0.501118 0.392457 0.77127 -0.642087 0.619319 0.451849 -0.560504 0.67298 0.482631 
-0.50497 0.619798 0.600713 0.315512 0.469589 0.824584 0.614515 0.48903 0.619048 
0.561622 0.53265 0.633139 0.554289 0.491711 0.671554 -0.466017 0.706276 0.532919 
-0.420063 0.719099 0.553573 -0.402437 0.692289 0.598983 -0.30046 0.736747 0.605745 
-0.218311 0.613688 0.758767 -0.0429737 0.544079 0.837933 0.0984173 0.527345 0.843932 
0.119517 0.70574 0.698317 0.0975982 0.522766 0.846871 0.0731254 0.706834 0.70359 
0.0198817 0.544925 0.838249 0.0699664 0.735543 0.673855 0.0371112 0.592975 0.804365 
0.173851 0.723398 0.668185 0.167697 0.619483 0.766889 0.41154 0.632223 0.656452 
0.366719 0.660928 0.654745 0.367645 0.630516 0.683583 -0.129865 0.756815 0.640598 
-0.124039 0.756927 0.64162 -0.123836 0.755455 0.643392 0.0661906 0.742484 0.666585 
0.0490531 0.749687 0.659972 0.0498008 0.742888 0.667561 -0.293321 -0.727163 0.620642 
-0.125173 -0.751751 0.647458 0.00278642 -0.703124 0.711062 0.0407853 -0.650657 0.758276 
0.047929 -0.587927 0.807493 0.042568 -0.533552 0.844695 0.0624429 -0.522403 0.85041 
0.131941 -0.535907 0.833904 0.244056 -0.51463 0.821945 -0.515627 -0.63829 0.571589 
-0.516653 -0.637543 0.571496 -0.222299 -0.545417 0.808148 -0.0519995 -0.470738 0.880739 
0.0511706 -0.445963 0.893588 0.100329 -0.416128 0.903754 0.08113 -0.378405 0.922078 
0.0409801 -0.362961 0.930903 0.0332805 -0.369159 0.92877 0.110217 -0.428707 0.896695 
0.278001 -0.511681 0.812957 0.236553 -0.493715 0.836832 0.416495 -0.453862 0.787744 
-0.707082 -0.409522 0.576478 -0.736418 -0.354743 0.576061 -0.416591 -0.335176 0.84505 
-0.160157 -0.248069 0.955412 -0.0169878 -0.218141 0.975769 0.0607937 -0.218201 0.974008 
0.120018 -0.272601 0.954612 0.121113 -0.263863 0.956926 0.0638445 -0.23107 0.97084 
0.00863309 -0.206393 0.978431 0.0223709 -0.227799 0.973451 0.157961 -0.28409 0.945696 
0.507256 -0.359021 0.783451 0.388264 -0.334669 0.858631 -0.763275 -0.228448 0.604336 
-0.685627 -0.212282 0.696313 -0.33219 -0.152981 0.930724 0.126829 -0.0867468 0.988124 
0.109878 -0.188456 0.975916 0.0416585 -0.129923 0.990649 0.0177834 -0.0893321 0.995843 
0.118722 -0.123667 0.985196 0.603389 -0.194188 0.773442 0.335082 -0.163894 0.927825 
0.629608 -0.0983619 0.770661 -0.811375 -0.06375 0.58104 -0.661754 -0.0706307 0.746386 
-0.272314 -0.0382316 0.961449 0.054662 0.143643 0.988119 0.0230695 -0.049466 0.998509 
0.101905 -0.0716825 0.992208 0.0276292 -0.0187036 0.999443 0.0795381 -0.0286041 0.996421 
0.303419 -0.00544773 0.952842 0.635585 -0.000199299 0.772031 0.628119 0.0955824 0.772224 
0.611882 8.78914e-05 0.790949 -0.805749 0.0933082 0.58486 -0.652127 0.0998855 0.751501 
-0.25515 0.0595002 0.965069 0.0521269 0.146716 0.987804 0.12138 0.0864635 0.988833 
-0.0165149 -0.0321187 0.999348 -0.101804 0.0787875 0.99168 0.0773644 0.0589705 0.995257 
0.0587913 0.0256531 0.997941 0.126611 0.0902646 0.987837 0.60423 0.185835 0.774836 
0.356486 0.142867 0.923313 -0.723835 0.293786 0.624302 -0.67942 0.376295 0.629913 
-0.66608 0.290884 0.686822 -0.278222 0.230383 0.932478 -0.00959531 0.201609 0.979419 
0.0609495 0.177274 0.982272 -0.0310182 0.135773 0.990254 -0.08303 0.0933431 0.992166 
0.0455106 0.000264135 0.998964 0.10807 0.264547 0.958298 0.0424525 0.203573 0.978139 
0.0599774 0.130828 0.989589 0.204635 0.208579 0.956357 0.534153 0.293253 0.792896 
0.472621 0.355379 0.806434 0.421861 0.271688 0.864997 -0.568764 0.487159 0.662709 
-0.454377 0.547888 0.702396 -0.387137 0.456049 0.801339 -0.108068 0.349337 0.930744 
-0.00247291 0.250014 0.968239 -0.0222096 0.185803 0.982336 0.00646909 0.28462 0.958619 
0.159305 0.39721 0.903795 0.0533556 0.359013 0.931806 -0.0578317 0.286743 0.95626 
0.0657094 0.284879 0.956309 0.431818 0.375106 0.820261 0.298548 0.427456 0.853317 
0.270552 0.326317 0.905715 -0.323215 0.569235 0.755979 -0.274088 0.568759 0.775493 
-0.24986 0.540364 0.803478 -0.160149 0.521432 0.838129 -0.111765 0.424391 0.898555 
-0.0299826 0.495713 0.867969 -0.00455701 0.34547 0.938419 0.103189 0.473094 0.874948 
0.103316 0.394429 0.9131 0.117874 0.419012 0.900297 0.126668 0.392418 0.911023 
0.000748109 0.364238 0.931306 0.0020991 0.348628 0.937259 -0.00874182 0.424229 0.905513 
-0.0266463 0.362627 0.931553 0.204359 0.45006 0.869301 0.130091 0.46203 0.877271 
0.117717 0.43353 0.893417 -0.132931 -0.152907 0.979259 -0.0175432 -0.193061 0.98103 
0.0439594 -0.168519 0.984718 0.0904613 -0.173107 0.98074 -0.17028 -0.103268 0.97997 
-0.114215 -0.08652 0.989681 -0.0202396 -0.052754 0.998402 0.00297223 -0.05355 0.998561 
0.107892 -0.0962307 0.989494 0.0724737 -0.111902 0.991073 -0.211801 -0.0262576 0.97696 
-0.0645163 0.0018857 0.997915 0.0193189 0.042954 0.99889 0.0244299 0.116745 0.992861 
0.00249065 0.0929931 0.995664 0.0738716 0.116106 0.990486 0.102767 0.0910396 0.990531 
0.0871498 0.0927986 0.991864 -0.130872 0.0864325 0.987624 -0.0265493 0.140984 0.989656 
-0.0368738 0.11099 0.993137 0.0682931 0.119651 0.990464 0.0689342 0.120145 0.99036 
0.0694293 0.117766 0.990611 
