# vtk DataFile Version 4.2
vtk output
ASCII
DATASET POLYDATA
POINTS 516 float
-19.4803 -37.6385 -15.4054 -11.3831 -37.6385 -17.885 -3.28591 -37.6385 -18.866 
4.81128 -37.6385 -18.6018 12.9085 -37.6385 -17.9183 21.0057 -37.6385 -17.0375 
29.1028 -37.6385 -15.6903 -35.6747 -29.5413 -16.6544 -27.5775 -29.5413 -18.9102 
-19.4803 -29.5413 -19.8437 -11.3831 -29.5413 -20.9042 -3.28591 -29.5413 -21.0226 
4.81128 -29.5413 -20.8147 12.9085 -29.5413 -20.8288 21.0057 -29.5413 -20.4661 
29.1028 -29.5413 -19.8651 37.2 -29.5413 -18.4318 -43.7719 -21.4441 -18.7833 
-35.6747 -21.4441 -20.9311 -27.5775 -21.4441 -21.3562 -19.4803 -21.4441 -21.3431 
-11.3831 -21.4441 -21.2535 -3.28591 -21.4441 -21.1974 4.81128 -21.4441 -20.9754 
12.9085 -21.4441 -21.2953 21.0057 -21.4441 -21.2091 29.1028 -21.4441 -21.1162 
37.2 -21.4441 -20.4243 45.2972 -21.4441 -18.0363 -51.869 -13.3469 -17.344 
-43.7719 -13.3469 -20.847 -35.6747 -13.3469 -21.9543 -27.5775 -13.3469 -21.9604 
-19.4803 -13.3469 -21.375 -11.3831 -13.3469 -20.8797 -3.28591 -13.3469 -20.3775 
4.81128 -13.3469 -20.3623 12.9085 -13.3469 -20.3965 21.0057 -13.3469 -20.7886 
29.1028 -13.3469 -21.1804 37.2 -13.3469 -21.411 45.2972 -13.3469 -19.8118 
53.3944 -13.3469 -15.7212 -51.869 -5.24972 -18.7951 -43.7719 -5.24972 -21.2306 
-35.6747 -5.24972 -21.8495 -27.5775 -5.24972 -21.1086 -19.4803 -5.24972 -19.9734 
-11.3831 -5.24972 -19.8627 -3.28591 -5.24972 -19.6279 4.81128 -5.24972 -20.9815 
12.9085 -5.24972 -20.5098 21.0057 -5.24972 -19.2803 29.1028 -5.24972 -20.3529 
37.2 -5.24972 -20.9083 45.2972 -5.24972 -19.8767 53.3944 -5.24972 -17.0095 
-51.869 2.84747 -18.1883 -43.7719 2.84747 -20.9168 -35.6747 2.84747 -21.369 
-27.5775 2.84747 -20.4044 -19.4803 2.84747 -18.6361 -11.3831 2.84747 -18.2428 
-3.28591 2.84747 -18.6139 4.81128 2.84747 -19.9945 12.9085 2.84747 -21.2664 
21.0057 2.84747 -18.8422 29.1028 2.84747 -19.777 37.2 2.84747 -20.2237 
45.2972 2.84747 -19.088 53.3944 2.84747 -16.5477 -51.869 10.9447 -18.0454 
-43.7719 10.9447 -20.4676 -35.6747 10.9447 -21.3044 -27.5775 10.9447 -20.7653 
-19.4803 10.9447 -19.9633 -11.3831 10.9447 -19.9434 -3.28591 10.9447 -19.2125 
4.81128 10.9447 -17.6915 12.9085 10.9447 -18.7733 21.0057 10.9447 -19.0911 
29.1028 10.9447 -19.5493 37.2 10.9447 -19.3973 45.2972 10.9447 -18.3175 
53.3944 10.9447 -15.005 -51.869 19.0419 -15.2276 -43.7719 19.0419 -19.8508 
-35.6747 19.0419 -22.1416 -27.5775 19.0419 -21.9856 -19.4803 19.0419 -21.8558 
-11.3831 19.0419 -21.6715 -3.28591 19.0419 -20.5397 4.81128 19.0419 -19.4496 
12.9085 19.0419 -19.2475 21.0057 19.0419 -19.545 29.1028 19.0419 -19.3346 
37.2 19.0419 -18.2778 45.2972 19.0419 -16.4739 -43.7719 27.139 -17.8885 
-35.6747 27.139 -20.6799 -27.5775 27.139 -21.6726 -19.4803 27.139 -22.4691 
-11.3831 27.139 -21.9147 -3.28591 27.139 -21.4102 4.81128 27.139 -20.5678 
12.9085 27.139 -20.1085 21.0057 27.139 -19.1371 29.1028 27.139 -17.8473 
37.2 27.139 -16.391 -35.6747 35.2362 -17.0168 -27.5775 35.2362 -18.8938 
-19.4803 35.2362 -20.2252 -11.3831 35.2362 -20.0142 -3.28591 35.2362 -20.137 
4.81128 35.2362 -19.7683 12.9085 35.2362 -18.9599 21.0057 35.2362 -17.0243 
29.1028 35.2362 -14.5665 4.81128 43.3334 -14.6589 -19.4803 -38.62 -14.4041 
-11.3831 -41.2426 -14.4041 -3.28591 -42.3879 -14.4041 4.81128 -42.2082 -14.4041 
12.9085 -41.6365 -14.4041 21.0057 -40.5519 -14.4041 29.1028 -38.8108 -14.4041 
-35.6747 -31.9802 -14.4041 -22.0863 -37.6385 -14.4041 -27.5775 -35.2515 -14.4041 
-27.5775 -37.6385 -10.5986 31.8299 -37.6385 -14.4041 37.2 -34.6023 -14.4041 
37.2 -37.6385 -9.55816 -41.3105 -29.5413 -14.4041 -43.7719 -28.1175 -14.4041 
-43.7719 -29.5413 -12.8398 44.6329 -29.5413 -14.4041 45.2972 -28.8533 -14.4041 
45.2972 -29.5413 -13.7542 -51.0122 -21.4441 -14.4041 -51.869 -20.2902 -14.4041 
-51.869 -21.4441 -13.5274 51.0758 -21.4441 -14.4041 53.3944 -17.3198 -14.4041 
53.3944 -21.4441 -11.8681 -55.1524 -13.3469 -14.4041 55.1637 -13.3469 -14.4041 
-56.7301 -5.24972 -14.4041 -59.9662 -5.24972 -7.44526 57.133 -5.24972 -14.4041 
61.4916 -5.24972 -8.26754 -56.2452 2.84747 -14.4041 -59.9662 2.84747 -7.50142 
56.8191 2.84747 -14.4041 61.4916 2.84747 -8.11944 -55.7579 10.9447 -14.4041 
54.3225 10.9447 -14.4041 53.3944 12.9674 -14.4041 -52.8051 19.0419 -14.4041 
-51.869 20.72 -14.4041 49.6263 19.0419 -14.4041 45.2972 24.8 -14.4041 
53.3944 19.0419 -11.8678 -48.1099 27.139 -14.4041 -43.7719 31.7793 -14.4041 
42.825 27.139 -14.4041 37.2 30.7728 -14.4041 45.2972 27.139 -13.2223 
-39.4967 35.2362 -14.4041 -35.6747 37.4637 -14.4041 -27.5775 39.9638 -14.4041 
-19.4803 41.0098 -14.4041 -11.3831 41.786 -14.4041 -3.28591 42.7832 -14.4041 
12.9085 42.3223 -14.4041 21.0057 39.8262 -14.4041 29.5807 35.2362 -14.4041 
29.1028 35.4544 -14.4041 37.2 35.2362 -10.6386 2.20052 43.3334 -14.4041 
-3.28591 43.3334 -11.9369 6.81542 43.3334 -14.4041 4.81128 43.5391 -14.4041 
12.9085 43.3334 -12.8843 21.0057 43.3334 -9.30343 -27.5775 -39.7317 -6.30691 
-19.4803 -42.5366 -6.30691 -11.3831 -44.6161 -6.30691 -3.28591 -45.5234 -6.30691 
4.81128 -45.651 -6.30691 12.9085 -45.5365 -6.30691 21.0057 -44.5803 -6.30691 
29.1028 -42.4966 -6.30691 37.2 -39.1627 -6.30691 -43.7719 -32.7779 -6.30691 
-33.6662 -37.6385 -6.30691 -35.6747 -36.8981 -6.30691 39.9858 -37.6385 -6.30691 
45.2972 -34.1701 -6.30691 -48.113 -29.5413 -6.30691 -51.869 -25.9654 -6.30691 
50.5613 -29.5413 -6.30691 53.3944 -26.3491 -6.30691 -55.4554 -21.4441 -6.30691 
56.4826 -21.4441 -6.30691 -58.9348 -13.3469 -6.30691 -59.9662 -7.88225 -6.30691 
60.1245 -13.3469 -6.30691 61.4916 -8.56097 -6.30691 -60.3837 -5.24972 -6.30691 
-59.9662 -5.24972 -3.67466 62.3672 -5.24972 -6.30691 -60.4062 2.84747 -6.30691 
-59.9662 6.79281 -6.30691 -59.9662 2.84747 -3.74197 62.3027 2.84747 -6.30691 
61.4916 7.57936 -6.30691 -59.4538 10.9447 -6.30691 60.8145 10.9447 -6.30691 
-56.3442 19.0419 -6.30691 -51.869 26.8967 -6.30691 57.9241 19.0419 -6.30691 
53.3944 25.6108 -6.30691 -51.7052 27.139 -6.30691 -43.7719 35.0074 -6.30691 
52.12 27.139 -6.30691 45.2972 33.6533 -6.30691 -43.4597 35.2362 -6.30691 
-35.6747 39.5117 -6.30691 -27.5775 41.9306 -6.30691 -19.4803 42.5873 -6.30691 
-11.3831 43.0784 -6.30691 29.1028 41.8717 -6.30691 42.8143 35.2362 -6.30691 
37.2 38.2376 -6.30691 -9.62131 43.3334 -6.30691 -3.28591 44.2566 -6.30691 
-3.28591 43.3334 -0.172198 4.81128 45.6597 -6.30691 12.9085 45.955 -6.30691 
24.7648 43.3334 -6.30691 21.0057 44.5082 -6.30691 -27.5775 -40.5365 1.79028 
-19.4803 -42.8347 1.79028 -11.3831 -44.4856 1.79028 -3.28591 -45.2253 1.79028 
4.81128 -45.4273 1.79028 12.9085 -45.5302 1.79028 21.0057 -44.4609 1.79028 
29.1028 -42.3949 1.79028 37.2 -38.6127 1.79028 -43.7719 -33.0389 1.79028 
-34.9138 -37.6385 1.79028 -35.6747 -37.3352 1.79028 38.8207 -37.6385 1.79028 
37.2 -37.6385 4.1053 45.2972 -32.9776 1.79028 -48.176 -29.5413 1.79028 
-51.869 -25.6099 1.79028 49.1909 -29.5413 1.79028 45.2972 -29.5413 7.81679 
53.3944 -24.5832 1.79028 -54.7986 -21.4441 1.79028 -51.869 -21.4441 9.55902 
55.4811 -21.4441 1.79028 53.3944 -21.4441 5.58587 -58.3061 -13.3469 1.79028 
59.4116 -13.3469 1.79028 61.4916 -5.89123 1.79028 -59.0298 -5.24972 1.79028 
61.6614 -5.24972 1.79028 61.4916 -5.24972 2.15142 -58.9385 2.84747 1.79028 
61.7328 2.84747 1.79028 61.4916 4.62152 1.79028 61.4916 2.84747 2.30156 
-57.674 10.9447 1.79028 60.5988 10.9447 1.79028 -54.5153 19.0419 1.79028 
-51.869 23.3188 1.79028 -51.869 19.0419 6.61395 58.0594 19.0419 1.79028 
53.3944 26.6018 1.79028 -48.9813 27.139 1.79028 -43.7719 32.0165 1.79028 
-43.7719 27.139 8.78345 52.9867 27.139 1.79028 45.2972 34.2455 1.79028 
-38.5451 35.2362 1.79028 -35.6747 36.8492 1.79028 -35.6747 35.2362 4.47777 
-27.5775 39.1649 1.79028 -27.5775 35.2362 8.53703 -19.4803 40.3591 1.79028 
-11.3831 41.3779 1.79028 -3.28591 43.0346 1.79028 29.1028 41.8892 1.79028 
43.7102 35.2362 1.79028 37.2 38.6791 1.79028 -1.89308 43.3334 1.79028 
4.81128 44.7513 1.79028 4.81128 43.3334 8.59104 12.9085 45.329 1.79028 
12.9085 43.3334 8.85373 23.8021 43.3334 1.79028 21.0057 44.0708 1.79028 
21.0057 43.3334 4.30971 -27.5775 -38.8095 9.88747 -19.4803 -40.7536 9.88747 
-11.3831 -42.0923 9.88747 -3.28591 -42.5976 9.88747 4.81128 -42.5508 9.88747 
12.9085 -42.2885 9.88747 21.0057 -41.2411 9.88747 29.1028 -39.1307 9.88747 
-43.7719 -31.0004 9.88747 -31.0376 -37.6385 9.88747 -35.6747 -35.8427 9.88747 
-27.5775 -37.6385 11.8152 -19.4803 -37.6385 14.6054 -11.3831 -37.6385 15.6159 
-3.28591 -37.6385 15.5865 4.81128 -37.6385 15.0664 12.9085 -37.6385 14.8624 
21.0057 -37.6385 13.7978 32.1441 -37.6385 9.88747 29.1028 -37.6385 11.6065 
37.2 -34.4921 9.88747 -45.4668 -29.5413 9.88747 -43.7719 -29.5413 11.9771 
-35.6747 -29.5413 17.9622 29.1028 -29.5413 17.6351 43.6387 -29.5413 9.88747 
37.2 -29.5413 14.216 45.2972 -27.8526 9.88747 -51.7166 -21.4441 9.88747 
-51.869 -21.1193 9.88747 50.3769 -21.4441 9.88747 45.2972 -21.4441 14.0679 
53.3944 -16.2846 9.88747 -55.0219 -13.3469 9.88747 -51.869 -13.3469 14.2084 
45.2972 -13.3469 16.6958 54.7852 -13.3469 9.88747 53.3944 -13.3469 11.3181 
-55.389 -5.24972 9.88747 -51.869 -5.24972 14.4477 56.8254 -5.24972 9.88747 
53.3944 -5.24972 13.2066 -55.1609 2.84747 9.88747 -51.869 2.84747 13.9971 
56.9635 2.84747 9.88747 53.3944 2.84747 13.387 -53.6803 10.9447 9.88747 
-51.869 14.975 9.88747 -51.869 10.9447 12.1358 45.2972 10.9447 17.6012 
56.2189 10.9447 9.88747 53.3944 10.9447 12.7484 -49.4301 19.0419 9.88747 
-43.7719 26.0127 9.88747 -43.7719 19.0419 15.1002 45.2972 19.0419 15.9423 
53.7594 19.0419 9.88747 53.3944 19.6609 9.88747 53.3944 19.0419 10.2964 
-42.2801 27.139 9.88747 -35.6747 31.1007 9.88747 -35.6747 27.139 13.57 
-27.5775 34.3078 9.88747 -27.5775 27.139 16.9784 37.2 27.139 16.6772 
48.2072 27.139 9.88747 45.2972 30.0166 9.88747 45.2972 27.139 12.6712 
-24.8704 35.2362 9.88747 -19.4803 36.8487 9.88747 -19.4803 35.2362 12.4417 
-11.3831 39.4014 9.88747 -11.3831 35.2362 17.392 -3.28591 41.6821 9.88747 
4.81128 43.0474 9.88747 12.9085 42.9957 9.88747 21.0057 41.3621 9.88747 
21.0057 35.2362 16.7481 29.1028 38.8322 9.88747 29.1028 35.2362 14.0963 
[...]
POINT_DATA 516
SCALARS ImageScalars float
LOOKUP_TABLE default
0 0 0 0 0 0 0 0 0 
0 0 0 0 0 0 0 0 0 
0 0 0 0 0 0 0 0 0 
0 0 0 0 0 0 0 0 0 
0 0 0 0 0 0 0 0 0 
0 0 0 0 0 0 0 0 0 
0 0 0 0 0 0 0 0 0 
0 0 0 0 0 0 0 0 0 
0 0 0 0 0 0 0 0 0 
0 0 0 0 0 0 0 0 0 
0 0 0 0 0 0 0 0 0 
0 0 0 0 0 0 0 0 0 
0 0 0 0 0 0 0 0 0 
0 0 0 0 0 0 0 0 0 
0 0 0 0 0 0 0 0 0 
0 0 0 0 0 0 0 0 0 
0 0 0 0 0 0 0 0 0 
0 0 0 0 0 0 0 0 0 
0 0 0 0 0 0 0 0 0 
0 0 0 0 0 0 0 0 0 
0 0 0 0 0 0 0 0 0 
0 0 0 0 0 0 0 0 0 
0 0 0 0 0 0 0 0 0 
0 0 0 0 0 0 0 0 0 
0 0 0 0 0 0 0 0 0 
0 0 0 0 0 0 0 0 0 
0 0 0 0 0 0 0 0 0 
0 0 0 0 0 0 0 0 0 
0 0 0 0 0 0 0 0 0 
0 0 0 0 0 0 0 0 0 
0 0 0 0 0 0 0 0 0 
0 0 0 0 0 0 0 0 0 
0 0 0 0 0 0 0 0 0 
0 0 0 0 0 0 0 0 0 
0 0 0 0 0 0 0 0 0 
0 0 0 0 0 0 0 0 0 
0 0 0 0 0 0 0 0 0 
0 0 0 0 0 0 0 0 0 
0 0 0 0 0 0 0 0 0 
0 0 0 0 0 0 0 0 0 
0 0 0 0 0 0 0 0 0 
0 0 0 0 0 0 0 0 0 
0 0 0 0 0 0 0 0 0 
0 0 0 0 0 0 0 0 0 
0 0 0 0 0 0 0 0 0 
0 0 0 0 0 0 0 0 0 
0 0 0 0 0 0 0 0 0 
0 0 0 0 0 0 0 0 0 
0 0 0 0 0 0 0 0 0 
0 0 0 0 0 0 0 0 0 
0 0 0 0 0 0 0 0 0 
0 0 0 0 0 0 0 0 0 
0 0 0 0 0 0 0 0 0 
0 0 0 0 0 0 0 0 0 
0 0 0 0 0 0 0 0 0 
0 0 0 0 0 0 0 0 0 
0 0 0 0 0 0 0 0 0 
0 0 0 
NORMALS Normals float
-0.284941 -0.680879 -0.674694 -0.18179 -0.560028 -0.808282 -0.0387388 -0.50033 -0.864968 
0.0538472 -0.501936 -0.863227 0.088682 -0.541645 -0.835916 0.114797 -0.590682 -0.798697 
0.262852 -0.682884 -0.6816 -0.285165 -0.609933 -0.739366 -0.168159 -0.463031 -0.870244 
-0.113195 -0.307949 -0.944645 -0.0707457 -0.177786 -0.981523 0.00623685 -0.123 -0.992387 
0.0123398 -0.126441 -0.991897 0.0225201 -0.189783 -0.981568 0.054462 -0.222703 -0.973364 
0.11368 -0.285577 -0.95159 0.307792 -0.431857 -0.847799 -0.371927 -0.396568 -0.839288 
-0.134356 -0.269958 -0.953452 -0.0239115 -0.171365 -0.984917 0.00631079 -0.0906259 -0.995865 
0.00894924 0.00264579 -0.999956 0.0171855 0.0392628 -0.999081 -0.00603946 0.0276001 -0.999601 
-0.014493 0.0280947 -0.9995 0.0110038 -0.0225235 -0.999686 0.0458436 -0.0743905 -0.996175 
0.171782 -0.160767 -0.971928 0.374745 -0.311992 -0.873056 -0.590326 -0.264496 -0.762599 
-0.245047 -0.120852 -0.96195 -0.0702641 -0.0519585 -0.996174 0.0354739 0.0161083 -0.999241 
0.0665799 0.0780606 -0.994723 0.0611459 0.0807887 -0.994854 0.0317914 0.0946181 -0.995006 
-0.00117615 0.00249179 -0.999996 -0.0247532 0.048837 -0.9985 -0.0495519 0.121631 -0.991338 
-0.0363641 0.0433977 -0.998396 0.0754146 -0.0272475 -0.99678 0.321316 -0.0962271 -0.94207 
0.558236 -0.201488 -0.804845 -0.498652 -0.0467295 -0.865542 -0.181852 -0.00562971 -0.98331 
0.00904567 0.0360988 -0.999307 0.112022 0.0969469 -0.988965 0.0784131 0.173249 -0.981752 
0.0210988 0.161555 -0.986638 -0.0660019 0.105355 -0.992242 -0.057543 0.0113432 -0.998279 
0.11071 -0.0482021 -0.992683 0.00876848 0.114769 -0.993353 -0.102835 0.0893065 -0.990681 
0.0365765 0.0721805 -0.996721 0.214897 0.0448397 -0.975607 0.501549 -0.0449165 -0.863963 
-0.50548 0.0475945 -0.861525 -0.168859 0.0458745 -0.984572 0.0320171 0.0336127 -0.998922 
0.166478 0.0208909 -0.985824 0.133065 -0.00407995 -0.991099 0.00373273 -0.0125905 -0.999914 
-0.0951119 0.0267826 -0.995106 -0.157593 0.223645 -0.961846 0.0973449 0.120377 -0.987944 
0.0626092 0.0115531 -0.997971 -0.0852004 0.0471631 -0.995247 0.0447135 0.0930375 -0.994658 
0.214925 0.0935458 -0.97214 0.448069 0.112363 -0.88691 -0.52937 0.161146 -0.832947 
-0.192025 0.0659439 -0.979172 -0.0168499 -0.0446099 -0.998862 0.0842266 -0.0999553 -0.991421 
0.0513989 -0.201571 -0.978124 0.044443 -0.206329 -0.977473 0.143422 -0.115641 -0.982882 
0.0237677 0.00932864 -0.999674 -0.0886481 0.0976216 -0.991268 -0.0473695 -0.0430803 -0.997948 
-0.0190212 0.0282114 -0.999421 0.0706093 0.117429 -0.990568 0.258636 0.156769 -0.953169 
0.490846 0.225283 -0.841616 -0.659182 0.359583 -0.660438 -0.361498 0.138065 -0.922094 
-0.137879 0.0394003 -0.989665 0.0177988 -0.0566328 -0.998236 0.0191851 -0.150421 -0.988436 
0.0778503 -0.120037 -0.989712 0.137417 -0.133582 -0.981464 0.0779908 -0.179408 -0.980678 
-0.00624211 -0.078595 -0.996887 -0.00457664 -0.000783555 -0.999989 0.0738069 0.0971291 -0.992531 
0.167852 0.167581 -0.971464 0.308711 0.27277 -0.911205 -0.482468 0.431696 -0.762144 
-0.218437 0.264171 -0.939414 -0.105262 0.158623 -0.981712 -0.0186126 0.0802115 -0.996604 
0.0643232 0.0897688 -0.993883 0.0828424 0.0233461 -0.996289 0.0782571 -0.0176195 -0.996777 
0.0971073 0.0100389 -0.995223 0.126328 0.143224 -0.981595 0.164867 0.264053 -0.950313 
0.251406 0.361264 -0.897933 -0.354725 0.660823 -0.661425 -0.173249 0.562867 -0.808187 
-0.0612524 0.480902 -0.874632 0.00401128 0.448685 -0.893681 0.0169117 0.368854 -0.929334 
0.0684974 0.294863 -0.953081 0.176508 0.32455 -0.929253 0.235051 0.386632 -0.891777 
0.297265 0.51968 -0.800978 0.0122188 0.833149 -0.552913 -0.293256 -0.7212 -0.627591 
-0.200748 -0.766558 -0.609991 -0.0522065 -0.80708 -0.588129 0.038948 -0.787304 -0.615333 
0.0858771 -0.74718 -0.65905 0.146878 -0.732377 -0.664869 0.274084 -0.737182 -0.617608 
-0.321255 -0.695986 -0.642183 -0.295136 -0.723444 -0.624118 -0.281625 -0.710245 -0.645166 
-0.31365 -0.842244 -0.438462 0.320277 -0.717377 -0.618702 0.38984 -0.652618 -0.649703 
0.437896 -0.830617 -0.343979 -0.405953 -0.660505 -0.631613 -0.44431 -0.634097 -0.632859 
-0.469741 -0.697039 -0.541738 0.516232 -0.54716 -0.658879 0.523533 -0.53173 -0.665715 
0.543108 -0.570179 -0.616384 -0.591774 -0.49813 -0.633775 -0.617489 -0.470554 -0.630307 
-0.634968 -0.510452 -0.579875 0.604451 -0.401819 -0.687881 0.621178 -0.323466 -0.713798 
0.74197 -0.465389 -0.482589 -0.747641 -0.269413 -0.607 0.628226 -0.230324 -0.743158 
-0.791036 -0.0544642 -0.60934 -0.983602 -0.0810469 -0.161118 0.661636 -0.0715318 -0.746406 
0.946289 -0.123528 -0.298794 -0.758661 0.0566608 -0.649017 -0.985674 0.0581197 -0.158329 
0.609878 0.105181 -0.785485 0.94886 0.0936196 -0.301498 -0.765958 0.162257 -0.622078 
0.52707 0.236474 -0.816258 0.516204 0.25788 -0.81672 -0.698537 0.36551 -0.615182 
-0.687275 0.405143 -0.60292 0.466344 0.305787 -0.830071 0.373072 0.417608 -0.828505 
0.65688 0.387159 -0.647006 -0.657836 0.509869 -0.554333 -0.563944 0.624793 -0.540001 
0.346445 0.445428 -0.825572 0.308657 0.473384 -0.825008 0.424464 0.507058 -0.750148 
-0.466363 0.72562 -0.505946 -0.377275 0.784213 -0.492619 -0.204386 0.847639 -0.489627 
-0.0967144 0.888249 -0.449066 -0.0928155 0.880898 -0.464115 -0.0866238 0.875415 -0.475547 
0.151267 0.747337 -0.646998 0.270149 0.629807 -0.72826 0.302338 0.525478 -0.795276 
0.299861 0.528247 -0.794379 0.416917 0.715125 -0.561049 -0.0214192 0.85821 -0.512852 
-0.11406 0.941824 -0.31616 0.0438278 0.829045 -0.557462 0.0104415 0.843423 -0.537148 
0.132192 0.841797 -0.523357 0.261403 0.907227 -0.329557 -0.328007 -0.909861 -0.254096 
-0.282268 -0.935306 -0.213372 -0.175307 -0.971025 -0.162415 -0.0622976 -0.988221 -0.139777 
-0.000954034 -0.98743 -0.158052 0.0671134 -0.979765 -0.188566 0.17522 -0.967192 -0.183949 
0.302956 -0.935277 -0.182963 0.443557 -0.880909 -0.165096 -0.502997 -0.836106 -0.218907 
-0.377272 -0.896147 -0.233639 -0.39387 -0.889239 -0.232639 0.498474 -0.852778 -0.155861 
0.609034 -0.780195 -0.142735 -0.637411 -0.742604 -0.205539 -0.749959 -0.63431 -0.187652 
0.701374 -0.697138 -0.14857 0.776636 -0.611075 -0.153051 -0.841376 -0.51948 -0.149085 
0.857407 -0.492756 -0.148473 -0.946872 -0.289922 -0.139207 -0.981985 -0.149733 -0.115263 
0.930416 -0.327537 -0.164456 0.963108 -0.211082 -0.166937 -0.990947 -0.0828534 -0.105639 
-0.997609 -0.0677413 0.0137149 0.975245 -0.128857 -0.179705 -0.993131 0.0568305 -0.102282 
-0.985722 0.138705 -0.0954578 -0.997712 0.0649113 0.0189215 0.977791 0.0899316 -0.189305 
0.962782 0.174342 -0.206533 -0.970026 0.225305 -0.0910399 0.942335 0.240422 -0.232813 
-0.915998 0.397235 -0.0561464 -0.798431 0.601206 -0.0325432 0.848195 0.442704 -0.290825 
0.748577 0.602844 -0.276064 -0.792935 0.608533 -0.0306967 -0.605426 0.795732 0.0164212 
0.723251 0.632805 -0.276523 0.561479 0.763564 -0.318923 -0.596408 0.802454 0.0191386 
-0.364793 0.930675 0.027753 -0.18769 0.980639 0.055851 -0.0695104 0.996423 0.0480514 
-0.101844 0.993992 0.0401045 0.338234 0.908371 -0.245888 0.517423 0.797836 -0.309405 
0.446157 0.848111 -0.285747 -0.113994 0.992955 0.0323489 -0.158059 0.987414 -0.0055098 
-0.191518 0.975153 0.111346 -0.103237 0.992487 -0.0656701 0.0695523 0.987618 -0.140615 
0.280219 0.941366 -0.187904 0.241178 0.957509 -0.158142 -0.322239 -0.945145 0.0535009 
-0.233584 -0.967163 0.10017 -0.142953 -0.979813 0.139751 -0.0569236 -0.985563 0.159452 
-0.0184821 -0.986283 0.164024 0.0604575 -0.984338 0.1656 0.180866 -0.968671 0.170189 
0.332238 -0.926211 0.178188 0.471006 -0.858083 0.204567 -0.552333 -0.828971 0.0879462 
-0.396718 -0.916589 0.0497831 -0.405068 -0.912896 0.0504091 0.500643 -0.83916 0.212527 
0.478114 -0.829119 0.289774 0.626515 -0.739661 0.245725 -0.670435 -0.732786 0.116368 
-0.783964 -0.598621 0.164482 0.670775 -0.69595 0.256347 0.60426 -0.639563 0.475215 
0.771987 -0.572274 0.276656 -0.855248 -0.479284 0.197075 -0.784763 -0.438406 0.438119 
0.825654 -0.49367 0.273102 0.768756 -0.48133 0.421112 -0.942928 -0.252039 0.21763 
0.897323 -0.344253 0.276226 0.952175 -0.145846 0.268497 -0.961581 -0.0345753 0.272337 
0.955052 -0.129388 0.266709 0.950244 -0.130655 0.282781 -0.950442 0.0823471 0.299798 
0.963789 0.0607348 0.259657 0.962238 0.090463 0.256738 0.957264 0.060664 0.282782 
-0.909502 0.25552 0.327896 0.94979 0.204952 0.23642 -0.842379 0.424533 0.331919 
-0.781707 0.511478 0.356825 -0.755231 0.450889 0.475737 0.883535 0.417681 0.211917 
0.772305 0.611991 0.170331 -0.693365 0.608129 0.386555 -0.527226 0.74708 0.40485 
-0.519557 0.623327 0.584401 0.761597 0.626204 0.166847 0.576101 0.802492 0.155288 
-0.413266 0.803025 0.429374 -0.359574 0.830296 0.425812 -0.367443 0.789844 0.491052 
-0.195512 0.890453 0.410937 -0.249157 0.795449 0.552433 -0.128831 0.935222 0.329791 
-0.161161 0.963002 0.215996 -0.202079 0.967848 0.14978 0.304861 0.939135 0.158385 
0.537367 0.829535 0.152016 0.426992 0.892983 0.142336 -0.190481 0.970174 0.149933 
-0.136653 0.978112 0.156916 -0.0841059 0.949117 0.303486 0.0409111 0.984204 0.172246 
0.0778271 0.916622 0.392106 0.233777 0.958742 0.161748 0.20036 0.965862 0.164214 
0.208552 0.945393 0.250476 -0.2674 -0.889902 0.369555 -0.186681 -0.89708 0.400497 
-0.104644 -0.886464 0.450811 -0.0261649 -0.872304 0.488264 0.016332 -0.849959 0.526596 
0.0711197 -0.826925 0.557797 0.168344 -0.816247 0.55263 0.318301 -0.771424 0.55099 
-0.575996 -0.72327 0.380931 -0.323925 -0.878707 0.350636 -0.406219 -0.847593 0.341426 
-0.253747 -0.854102 0.454007 -0.144549 -0.775272 0.614865 -0.0377287 -0.696666 0.716402 
0.0284081 -0.642524 0.765739 0.0357111 -0.60541 0.795112 0.0638073 -0.587862 0.806441 
0.154123 -0.646883 0.746853 0.378535 -0.746373 0.547393 0.305873 -0.720201 0.622698 
0.460682 -0.684064 0.565534 -0.619007 -0.680339 0.392389 -0.575452 -0.6725 0.465401 
-0.328099 -0.582963 0.743307 0.192395 -0.407719 0.892608 0.553522 -0.602308 0.575186 
0.401718 -0.530264 0.746621 0.580774 -0.568809 0.582373 -0.780214 -0.435667 0.448843 
-0.784311 -0.42643 0.450571 0.651545 -0.436827 0.620219 0.528781 -0.368781 0.764455 
0.702977 -0.336099 0.626786 -0.848069 -0.198477 0.491309 -0.75554 -0.173309 0.631762 
0.429373 -0.210174 0.878331 0.722633 -0.277426 0.633116 0.676699 -0.268608 0.685513 
-0.840958 -0.00751729 0.541048 -0.748574 0.00987712 0.662977 0.732615 -0.108661 0.671914 
0.626623 -0.098031 0.773132 -0.827721 0.0945646 0.553114 -0.731643 0.101646 0.674068 
0.74092 0.0319717 0.670832 0.623057 0.0231449 0.781834 -0.779938 0.263104 0.567867 
-0.736222 0.355322 0.575954 -0.731623 0.26534 0.627951 0.407572 0.115408 0.905851 
0.760599 0.161645 0.628776 0.64942 0.141392 0.747169 -0.669587 0.449158 0.591532 
-0.516187 0.593619 0.617387 -0.512892 0.438973 0.737729 0.467893 0.247203 0.848509 
0.717827 0.365103 0.59281 0.709127 0.382649 0.592215 0.705114 0.364899 0.607999 
-0.483848 0.618036 0.619615 -0.362557 0.693649 0.622417 -0.362672 0.606721 0.70736 
-0.261206 0.766311 0.586974 -0.279353 0.54606 0.789797 0.311701 0.426132 0.849267 
0.613871 0.552841 0.563498 0.564628 0.61885 0.546095 0.54871 0.512546 0.660465 
-0.26235 0.794724 0.547345 -0.267357 0.838626 0.474581 -0.300981 0.78152 0.546477 
-0.268431 0.900897 0.34107 -0.306586 0.705453 0.639016 -0.202554 0.935998 0.287888 
-0.0730144 0.938947 0.336225 0.0856656 0.898214 0.43113 0.22226 0.846775 0.483293 
0.208982 0.564679 0.798414 0.302676 0.806189 0.508376 0.281848 0.661481 0.694985 
0.423538 0.751856 0.505299 0.417381 0.755812 0.50452 0.416753 0.749187 0.514816 
-0.179357 -0.615978 0.767074 -0.0833185 -0.595709 0.798867 0.0126352 -0.538127 0.842769 
0.0741903 -0.452488 0.888679 0.0876612 -0.327412 0.940807 0.0398022 -0.238988 0.970206 
0.0314366 -0.325754 0.944932 -0.533317 -0.393305 0.748922 -0.326513 -0.582225 0.744582 
-0.327739 -0.581591 0.744539 -0.154987 -0.534489 0.830844 -0.0247094 -0.442875 0.896243 
0.0587641 -0.373302 0.925847 0.100098 -0.31895 0.942471 0.104227 -0.255795 0.961096 
0.0387444 -0.224976 0.973594 0.0872218 -0.349262 0.932957 0.0258319 -0.31368 0.949177 
0.173486 -0.372405 0.911711 0.311276 -0.308155 0.89897 -0.549853 -0.367252 0.750192 
-0.527558 -0.361601 0.768718 -0.289726 -0.321079 0.901647 -0.0946228 -0.298727 0.949636 
0.0555968 -0.260121 0.963974 0.118554 -0.231017 0.9657 0.184241 -0.201895 0.961922 
0.152449 -0.121805 0.980777 0.00403412 -0.0731669 0.997312 -0.0292743 -0.110478 0.993447 
0.0801331 -0.168011 0.982523 0.329649 -0.280754 0.901393 0.293207 -0.270898 0.916866 
-0.605838 -0.142862 0.782657 -0.476704 -0.13384 0.868815 -0.27716 -0.142895 0.950139 
-0.0771851 -0.11031 0.990896 0.0680757 -0.129157 0.989285 0.131517 -0.0991075 0.986347 
0.203535 -0.00421477 0.979059 0.24883 -0.103419 0.96301 0.044234 -0.0455156 0.997984 
-0.0693824 -0.0152968 0.997473 0.0239535 -0.0511602 0.998403 0.338784 -0.165882 0.926126 
0.216983 -0.11839 0.96897 0.381729 -0.0993188 0.918923 -0.620398 0.0269069 0.783826 
-0.496699 0.0233681 0.867608 -0.264284 0.00785538 0.964413 -0.0818174 0.0148926 0.996536 
0.0682369 -0.0382003 0.996938 0.247647 -0.0346821 0.968229 0.193791 0.0819815 0.977611 
0.101157 -0.0893714 0.990848 0.0921708 -0.196581 0.976146 -0.029487 -0.0697136 0.997131 
-0.0205594 -0.03819 0.999059 0.142111 -0.0436873 0.988886 0.385802 -0.0796641 0.919136 
0.37376 -0.077526 0.92428 -0.579716 0.120799 0.805815 -0.489117 0.127709 0.862818 
-0.275569 0.137391 0.951412 -0.122071 0.10574 0.986873 0.0172312 0.0570314 0.998224 
0.223044 -0.0715099 0.972182 0.16277 -0.21062 0.963922 -0.0319308 -0.146581 0.988683 
0.0760932 -0.185201 0.97975 0.086135 -0.140142 0.986378 0.0536776 -0.0872828 0.994736 
0.177424 0.00427669 0.984125 0.379476 0.0359169 0.924504 0.381521 0.0560685 0.922658 
0.372606 0.0353137 0.927318 -0.526879 0.252561 0.811548 -0.501999 0.29103 0.814431 
-0.500326 0.251785 0.828419 -0.292753 0.263082 0.919284 -0.167913 0.236193 0.957088 
-0.106199 0.179299 0.978046 0.00140628 0.00755092 0.99997 0.125766 -0.171504 0.977123 
0.114096 -0.0581455 0.991767 0.0891259 0.0238113 0.995736 0.0779832 -0.0336079 0.996388 
0.115939 -0.00699444 0.993232 0.387067 0.108128 0.91569 0.251774 0.0583562 0.966025 
-0.355525 0.443467 0.822763 -0.311425 0.474892 0.823099 -0.300198 0.439275 0.846711 
-0.267272 0.502234 0.822391 -0.216782 0.382001 0.898377 -0.20806 0.304341 0.929563 
-0.13301 0.198655 0.971002 0.0792489 0.0861307 0.993127 0.185556 0.0510062 0.981309 
0.0996464 0.0989625 0.990089 0.0596824 0.126469 0.990174 0.142686 0.163885 0.976106 
0.356506 0.211175 0.910115 0.297036 0.312532 0.902271 0.286648 0.200864 0.936743 
-0.283649 0.512914 0.810223 -0.316061 0.544079 0.777228 -0.293605 0.463426 0.836082 
-0.305534 0.673581 0.673006 -0.226741 0.375754 0.898553 -0.0285069 0.278505 0.960012 
0.128515 0.196929 0.971958 0.155702 0.209229 0.965391 0.195888 0.461698 0.865137 
0.152731 0.279732 0.947852 0.245086 0.386165 0.889275 0.214671 0.424981 0.879379 
0.196103 0.364593 0.910283 -0.283031 0.689012 0.6672 -0.145973 0.725815 0.672224 
-0.117949 0.624135 0.772362 0.0597689 0.64776 0.759496 0.0915441 0.531993 0.841785 
0.177015 0.529346 0.829734 0.163125 0.546733 0.821263 0.164643 0.520513 0.83783 

