# vtk DataFile Version 4.2
vtk output
ASCII
DATASET POLYDATA
POINTS 526 float
-38.7201 -2.79412 -27.8324 -29.7331 -38.7424 -19.8273 -20.746 -38.7424 -20.469 
-11.7589 -38.7424 -19.5801 -47.7072 -29.7553 -20.1038 -38.7201 -29.7553 -23.7394 
-29.7331 -29.7553 -24.4008 -20.746 -29.7553 -24.2276 -11.7589 -29.7553 -23.1894 
-2.77187 -29.7553 -21.6038 6.21519 -29.7553 -19.3494 -56.6942 -20.7682 -19.428 
-47.7072 -20.7682 -24.5824 -38.7201 -20.7682 -25.8387 -29.7331 -20.7682 -25.8751 
-20.746 -20.7682 -24.93 -11.7589 -20.7682 -24.3194 -2.77187 -20.7682 -23.6228 
6.21519 -20.7682 -23.448 15.2022 -20.7682 -21.8044 24.1893 -20.7682 -19.0843 
-56.6942 -11.7812 -22.4879 -47.7072 -11.7812 -26.8754 -38.7201 -6.78385 -27.6459 
-38.7201 -11.7812 -27.4105 -29.7331 -11.7812 -26.5457 -20.746 -11.7812 -25.2115 
-11.7589 -11.7812 -25.9016 -2.77187 -11.7812 -25.5296 6.21519 -11.7812 -26.2021 
15.2022 -11.7812 -25.6419 24.1893 -11.7812 -22.6405 33.1764 -11.7812 -21.3748 
42.1634 -11.7812 -20.4345 -56.6942 -2.79412 -23.5178 -39.8152 -2.79412 -27.6459 
-47.7072 -2.79412 -26.4076 -38.0022 -2.79412 -27.6459 -38.7201 -0.367952 -27.6459 
-29.7331 -2.79412 -25.5177 -20.746 -2.79412 -24.4721 -11.7589 -2.79412 -27.4221 
-2.77187 -2.79412 -25.2005 6.21519 -2.79412 -24.7767 15.2022 -2.79412 -26.7189 
24.1893 -2.79412 -24.5709 33.1764 -2.79412 -24.3336 42.1634 -2.79412 -23.8655 
51.1505 -2.79412 -22.5354 -56.6942 6.19294 -22.8683 -47.7072 6.19294 -27.2203 
-38.7201 6.19294 -27.1414 -29.7331 6.19294 -25.2569 -20.746 6.19294 -23.1284 
-11.7589 6.19294 -25.2421 -2.77187 6.19294 -25.2958 6.21519 6.19294 -24.9826 
15.2022 6.19294 -25.7293 24.1893 6.19294 -24.0661 33.1764 6.19294 -24.3351 
42.1634 6.19294 -24.5374 51.1505 6.19294 -23.2659 60.1375 6.19294 -20.7375 
-56.6942 15.18 -20.637 -47.7072 15.18 -25.0717 -38.7201 15.18 -25.857 
-29.7331 15.18 -25.1667 -20.746 15.18 -24.0514 -11.7589 15.18 -23.6969 
-2.77187 15.18 -24.2114 6.21519 15.18 -24.199 15.2022 15.18 -22.7198 
24.1893 15.18 -21.8885 33.1764 15.18 -22.8705 42.1634 15.18 -23.1628 
51.1505 15.18 -22.2246 60.1375 15.18 -19.6625 -47.7072 24.1671 -22.1741 
-38.7201 24.1671 -25.1916 -29.7331 24.1671 -24.9313 -20.746 24.1671 -23.8405 
-11.7589 24.1671 -22.2103 -2.77187 24.1671 -20.5262 6.21519 24.1671 -20.5057 
15.2022 24.1671 -19.7656 24.1893 24.1671 -18.8597 33.1764 24.1671 -18.6656 
42.1634 24.1671 -18.9704 -38.7201 33.1541 -21.0291 -29.7331 33.1541 -22.2591 
-20.746 33.1541 -20.9608 -29.7331 -40.1424 -18.6588 -20.746 -40.8618 -18.6588 
-11.7589 -39.8423 -18.6588 -47.7072 -31.1874 -18.6588 -33.9755 -38.7424 -18.6588 
-38.7201 -37.05 -18.6588 -38.7201 -38.7424 -16.2612 -8.36262 -38.7424 -18.6588 
-2.77187 -36.0413 -18.6588 -2.77187 -38.7424 -17.0356 6.21519 -31.1611 -18.6588 
6.21519 -38.7424 -14.1964 15.2022 -38.7424 -11.4126 -49.2754 -29.7553 -18.6588 
-56.6942 -21.7618 -18.6588 9.4576 -29.7553 -18.6588 15.2022 -27.1463 -18.6588 
15.2022 -29.7553 -17.3668 24.1893 -21.628 -18.6588 24.1893 -29.7553 -14.2861 
33.1764 -29.7553 -10.9642 -57.377 -20.7682 -18.6588 25.727 -20.7682 -18.6588 
33.1764 -16.7973 -18.6588 33.1764 -20.7682 -16.4312 42.1634 -14.4992 -18.6588 
42.1634 -20.7682 -13.801 -60.947 -11.7812 -18.6588 47.6988 -11.7812 -18.6588 
51.1505 -9.93914 -18.6588 51.1505 -11.7812 -17.2873 60.1375 -11.7812 -10.3901 
-62.6989 -2.79412 -18.6588 -65.6813 -2.79412 -11.3383 59.8405 -2.79412 -18.6588 
60.1375 -2.19172 -18.6588 60.1375 -2.79412 -18.4722 -61.7243 6.19294 -18.6588 
62.9354 6.19294 -18.6588 69.1246 6.19294 -11.331 -58.5443 15.18 -18.6588 
-56.6942 19.2893 -18.6588 51.1505 22.1969 -18.6588 61.5558 15.18 -18.6588 
60.1375 17.0471 -18.6588 69.1246 15.18 -9.79906 -53.6039 24.1671 -18.6588 
-56.6942 24.1671 -12.3289 -47.7072 30.361 -18.6588 -11.7589 31.864 -18.6588 
-2.77187 27.5509 -18.6588 6.21519 26.9036 -18.6588 15.2022 25.8145 -18.6588 
24.1893 24.4305 -18.6588 33.1764 24.1763 -18.6588 44.1128 24.1671 -18.6588 
42.1634 24.5739 -18.6588 51.1505 24.1671 -17.417 60.1375 24.1671 -12.5999 
-44.1108 33.1541 -18.6588 -47.7072 33.1541 -15.3672 -38.7201 36.479 -18.6588 
-29.7331 38.0108 -18.6588 -13.7705 33.1541 -18.6588 -20.746 36.3334 -18.6588 
-11.7589 33.1541 -17.826 -2.77187 33.1541 -13.9982 6.21519 33.1541 -10.5972 
-38.7201 42.1412 -11.0317 -29.7331 42.1412 -14.3781 -20.746 42.1412 -12.3607 
-38.7201 -41.8899 -9.67174 -29.7331 -45.395 -9.67174 -20.746 -46.519 -9.67174 
-11.7589 -46.504 -9.67174 -11.7589 -47.7294 -1.14011 -2.77187 -45.2439 -9.67174 
6.21519 -43.1198 -9.67174 15.2022 -40.5812 -9.67174 -43.8175 -38.7424 -9.67174 
-47.7072 -35.8653 -9.67174 21.2256 -38.7424 -9.67174 24.1893 -37.4107 -9.67174 
24.1893 -38.7424 -8.54589 33.1764 -31.4995 -9.67174 33.1764 -38.7424 -2.40197 
-54.1766 -29.7553 -9.67174 -56.6942 -26.6414 -9.67174 35.846 -29.7553 -9.67174 
42.1634 -25.7792 -9.67174 42.1634 -29.7553 -5.86771 -60.7152 -20.7682 -9.67174 
49.7069 -20.7682 -9.67174 51.1505 -19.8897 -9.67174 51.1505 -20.7682 -8.64 
60.1375 -12.5883 -9.67174 -65.0248 -11.7812 -9.67174 -65.6813 -6.91639 -9.67174 
60.8218 -11.7812 -9.67174 -66.1895 -2.79412 -9.67174 -65.6813 3.44966 -9.67174 
67.6768 -2.79412 -9.67174 69.1246 2.28434 -9.67174 69.1246 -2.79412 -5.09798 
-65.4566 6.19294 -9.67174 70.1678 6.19294 -9.67174 -62.4693 15.18 -9.67174 
69.2109 15.18 -9.67174 69.1246 15.3976 -9.67174 -57.5217 24.1671 -9.67174 
-56.6942 25.3313 -9.67174 15.2022 31.7675 -9.67174 24.1893 30.9111 -9.67174 
33.1764 31.282 -9.67174 42.1634 32.0782 -9.67174 51.1505 30.4732 -9.67174 
63.4948 24.1671 -9.67174 60.1375 26.6339 -9.67174 -50.8122 33.1541 -9.67174 
-47.7072 36.3685 -9.67174 -11.7589 40.4264 -9.67174 -2.77187 36.2605 -9.67174 
8.4344 33.1541 -9.67174 6.21519 33.6301 -9.67174 33.1764 33.1541 -2.35717 
42.1634 33.1541 -6.45559 -39.8682 42.1412 -9.67174 -38.7201 42.8389 -9.67174 
-29.7331 45.3482 -9.67174 -15.8975 42.1412 -9.67174 -20.746 43.9007 -9.67174 
-11.7589 42.1412 -5.80751 -11.7589 -47.7899 -0.684678 -38.7201 -41.6399 -0.684678 
-29.7331 -45.5576 -0.684678 -12.804 -47.7294 -0.684678 -20.746 -47.2602 -0.684678 
-8.77201 -47.7294 -0.684678 -11.7589 -47.7294 -0.410867 -2.77187 -47.6075 -0.684678 
6.21519 -47.2238 -0.684678 15.2022 -46.3686 -0.684678 24.1893 -44.4092 -0.684678 
33.1764 -40.146 -0.684678 -43.2792 -38.7424 -0.684678 -47.7072 -35.2563 -0.684678 
-38.7201 -38.7424 6.96142 36.336 -38.7424 -0.684678 42.1634 -35.5122 -0.684678 
42.1634 -38.7424 7.29256 -53.3655 -29.7553 -0.684678 -56.6942 -25.6593 -0.684678 
51.1254 -29.7553 -0.684678 51.1505 -29.7369 -0.684678 51.1505 -29.7553 -0.651399 
-59.9882 -20.7682 -0.684678 -56.6942 -20.7682 6.8894 59.7491 -20.7682 -0.684678 
60.1375 -20.3378 -0.684678 60.1375 -20.7682 0.330677 -64.7854 -11.7812 -0.684678 
-65.6813 -6.52963 -0.684678 65.7651 -11.7812 -0.684678 69.1246 -5.6506 -0.684678 
-66.2359 -2.79412 -0.684678 -65.6813 3.55452 -0.684678 -65.6813 -2.79412 1.08554 
70.3053 -2.79412 -0.684678 69.1246 -2.79412 7.76654 -65.4381 6.19294 -0.684678 
72.0909 6.19294 -0.684678 -62.2411 15.18 -0.684678 71.5011 15.18 -0.684678 
69.1246 21.0494 -0.684678 69.1246 15.18 5.79242 -57.6335 24.1671 -0.684678 
-56.6942 25.5351 -0.684678 -56.6942 24.1671 2.333 15.2022 32.4812 -0.684678 
24.1893 31.9438 -0.684678 51.1505 32.5771 -0.684678 67.1489 24.1671 -0.684678 
60.1375 29.6166 -0.684678 -51.2899 33.1541 -0.684678 -47.7072 37.3086 -0.684678 
-2.77187 40.1956 -0.684678 13.2435 33.1541 -0.684678 6.21519 35.8645 -0.684678 
15.2022 33.1541 1.56245 30.9505 33.1541 -0.684678 24.1893 33.1541 5.82747 
33.1764 33.5586 -0.684678 48.8275 33.1541 -0.684678 42.1634 34.8093 -0.684678 
-42.3862 42.1412 -0.684678 -38.7201 44.7699 -0.684678 -29.7331 47.8678 -0.684678 
-20.746 47.1434 -0.684678 -7.10442 42.1412 -0.684678 -11.7589 44.1213 -0.684678 
-29.7331 -42.7797 8.30238 -20.746 -44.9323 8.30238 -11.7589 -45.5779 8.30238 
-2.77187 -45.7965 8.30238 6.21519 -46.1823 8.30238 15.2022 -46.2752 8.30238 
24.1893 -45.4271 8.30238 33.1764 -42.9578 8.30238 42.1634 -39.0072 8.30238 
-47.7072 -30.4918 8.30238 -37.6485 -38.7424 8.30238 -38.7201 -38.0904 8.30238 
-29.7331 -38.7424 13.7556 -20.746 -38.7424 16.8612 -2.77187 -38.7424 16.4232 
6.21519 -38.7424 16.6157 33.1764 -38.7424 17.1448 42.6072 -38.7424 8.30238 
42.1634 -38.7424 9.23584 51.1505 -32.9453 8.30238 -48.4497 -29.7553 8.30238 
-47.7072 -29.7553 9.06277 -38.7201 -29.7553 16.2593 54.6771 -29.7553 8.30238 
60.1375 -23.406 8.30238 -55.9472 -20.7682 8.30238 -56.6942 -19.586 8.30238 
-47.7072 -20.7682 16.2648 62.0789 -20.7682 8.30238 60.1375 -20.7682 14.4588 
-61.0537 -11.7812 8.30238 -56.6942 -11.7812 14.2725 66.2409 -11.7812 8.30238 
-63.1087 -2.79412 8.30238 -56.6942 -2.79412 16.9457 69.0408 -2.79412 8.30238 
69.1246 -1.97345 8.30238 -62.5026 6.19294 8.30238 -56.6942 6.19294 16.5991 
70.0025 6.19294 8.30238 69.1246 10.2606 8.30238 69.1246 6.19294 9.57376 
-59.2613 15.18 8.30238 -56.6942 20.2039 8.30238 -56.6942 15.18 12.117 
68.083 15.18 8.30238 60.1375 15.18 16.8989 -54.4605 24.1671 8.30238 
-47.7072 24.1671 16.4653 51.1505 31.6124 8.30238 51.1505 24.1671 17.1353 
63.9099 24.1671 8.30238 60.1375 26.9533 8.30238 60.1375 24.1671 11.4696 
-47.9581 33.1541 8.30238 -47.7072 33.4824 8.30238 -47.7072 33.1541 8.67469 
-2.77187 41.8603 8.30238 6.21519 38.6574 8.30238 15.2022 35.2381 8.30238 
15.2022 33.1541 16.1388 24.1893 33.6245 8.30238 24.1893 33.1541 9.79823 
33.1764 33.446 8.30238 33.1764 33.1541 9.05399 44.9106 33.1541 8.30238 
42.1634 33.8102 8.30238 42.1634 33.1541 9.71125 -40.7046 42.1412 8.30238 
-38.7201 43.7307 8.30238 -38.7201 42.1412 11.3307 -29.7331 47.4369 8.30238 
-29.7331 42.1412 16.5051 -20.746 47.3588 8.30238 -3.53103 42.1412 8.30238 
-11.7589 45.1269 8.30238 -11.7589 42.1412 15.8234 -11.7589 -38.7508 17.2894 
15.2022 -39.4809 17.2894 24.1893 -39.5491 17.2894 -29.7331 -34.1808 17.2894 
-11.9452 -38.7424 17.2894 -20.746 -38.1433 17.2894 -11.6789 -38.7424 17.2894 
-11.7589 -38.7424 17.2963 -2.77187 -37.3632 17.2894 10.8826 -38.7424 17.2894 
6.21519 -37.5932 17.2894 15.2022 -38.7424 17.8248 32.1964 -38.7424 17.2894 
[...]
POINT_DATA 526
SCALARS ImageScalars float
LOOKUP_TABLE default
0 0 0 0 0 0 0 0 0 
0 0 0 0 0 0 0 0 0 
0 0 0 0 0 0 0 0 0 
0 0 0 0 0 0 0 0 0 
0 0 0 0 0 0 0 0 0 
0 0 0 0 0 0 0 0 0 
0 0 0 0 0 0 0 0 0 
0 0 0 0 0 0 0 0 0 
0 0 0 0 0 0 0 0 0 
0 0 0 0 0 0 0 0 0 
0 0 0 0 0 0 0 0 0 
0 0 0 0 0 0 0 0 0 
0 0 0 0 0 0 0 0 0 
0 0 0 0 0 0 0 0 0 
0 0 0 0 0 0 0 0 0 
0 0 0 0 0 0 0 0 0 
0 0 0 0 0 0 0 0 0 
0 0 0 0 0 0 0 0 0 
0 0 0 0 0 0 0 0 0 
0 0 0 0 0 0 0 0 0 
0 0 0 0 0 0 0 0 0 
0 0 0 0 0 0 0 0 0 
0 0 0 0 0 0 0 0 0 
0 0 0 0 0 0 0 0 0 
0 0 0 0 0 0 0 0 0 
0 0 0 0 0 0 0 0 0 
0 0 0 0 0 0 0 0 0 
0 0 0 0 0 0 0 0 0 
0 0 0 0 0 0 0 0 0 
0 0 0 0 0 0 0 0 0 
0 0 0 0 0 0 0 0 0 
0 0 0 0 0 0 0 0 0 
0 0 0 0 0 0 0 0 0 
0 0 0 0 0 0 0 0 0 
0 0 0 0 0 0 0 0 0 
0 0 0 0 0 0 0 0 0 
0 0 0 0 0 0 0 0 0 
0 0 0 0 0 0 0 0 0 
0 0 0 0 0 0 0 0 0 
0 0 0 0 0 0 0 0 0 
0 0 0 0 0 0 0 0 0 
0 0 0 0 0 0 0 0 0 
0 0 0 0 0 0 0 0 0 
0 0 0 0 0 0 0 0 0 
0 0 0 0 0 0 0 0 0 
0 0 0 0 0 0 0 0 0 
0 0 0 0 0 0 0 0 0 
0 0 0 0 0 0 0 0 0 
0 0 0 0 0 0 0 0 0 
0 0 0 0 0 0 0 0 0 
0 0 0 0 0 0 0 0 0 
0 0 0 0 0 0 0 0 0 
0 0 0 0 0 0 0 0 0 
0 0 0 0 0 0 0 0 0 
0 0 0 0 0 0 0 0 0 
0 0 0 0 0 0 0 0 0 
0 0 0 0 0 0 0 0 0 
0 0 0 0 0 0 0 0 0 
0 0 0 0 
NORMALS Normals float
0.0463083 0.0159345 -0.9988 -0.140083 -0.634502 -0.760121 0.010582 -0.565219 -0.824873 
0.156596 -0.560566 -0.813169 -0.512684 -0.589369 -0.624339 -0.182373 -0.387313 -0.90373 
-0.0248296 -0.28885 -0.957052 0.0682499 -0.207918 -0.975762 0.137714 -0.220682 -0.965575 
0.203208 -0.306047 -0.930076 0.213892 -0.421003 -0.88148 -0.693114 -0.432647 -0.57655 
-0.290029 -0.292872 -0.911103 -0.0676594 -0.196115 -0.978244 0.0506375 -0.121734 -0.99127 
0.0858938 -0.0535325 -0.994865 0.0708857 -0.145466 -0.986821 0.0471276 -0.214268 -0.975637 
0.0900902 -0.363821 -0.927102 0.222188 -0.416636 -0.881502 0.251952 -0.404675 -0.879067 
-0.585194 -0.184865 -0.78954 -0.22863 -0.0895726 -0.969384 0.0362844 -0.0413189 -0.998487 
0.0218075 -0.108068 -0.993904 0.120927 0.020867 -0.992442 0.0389492 0.0256503 -0.998912 
-0.0185339 -0.16726 -0.985739 -0.0174585 -0.0877941 -0.995986 -0.00873846 -0.0683302 -0.997625 
0.192602 -0.249336 -0.949071 0.214111 -0.285508 -0.934153 0.114542 -0.397993 -0.91021 
0.186213 -0.481923 -0.856198 -0.502686 -0.016278 -0.864316 0.0129 0.0115831 -0.99985 
-0.207044 -0.0165414 -0.978192 0.0591095 0.019638 -0.998058 0.0620956 0.042132 -0.997181 
0.175714 0.0716145 -0.981833 -0.0899486 0.116382 -0.989123 -0.0628984 0.0197174 -0.997825 
0.153231 0.0152264 -0.988073 -0.09371 0.0730852 -0.992913 0.0208747 -0.00320223 -0.999777 
0.129932 -0.0733548 -0.988806 0.0384553 -0.141266 -0.989225 0.100046 -0.209211 -0.972739 
0.273707 -0.275357 -0.921555 -0.554272 0.122089 -0.823333 -0.202945 0.0565397 -0.977556 
0.0997155 0.105984 -0.989355 0.22791 0.0200017 -0.973477 0.0134987 0.0236403 -0.999629 
-0.132308 0.214016 -0.967828 0.0156927 0.0561763 -0.998298 -0.0234822 0.0326698 -0.99919 
0.052847 0.214314 -0.975334 0.0713579 0.142034 -0.987286 -0.0260115 0.0779689 -0.996616 
0.057175 0.034282 -0.997775 0.19798 0.0155101 -0.980083 0.463143 -0.0553432 -0.884554 
-0.652245 0.309846 -0.691789 -0.224817 0.262723 -0.938315 -0.000927953 0.104123 -0.994564 
0.0995725 0.017163 -0.994882 0.081286 -0.0398705 -0.995893 -0.00729742 0.149737 -0.988699 
-0.0283897 0.249097 -0.968062 0.0781144 0.226667 -0.970835 0.124224 0.309759 -0.942665 
-0.00971634 0.279769 -0.960018 -0.0669525 0.277219 -0.958471 0.0350006 0.279012 -0.959649 
0.188023 0.274363 -0.943065 0.462262 0.29628 -0.835782 -0.402049 0.381036 -0.832567 
-0.132593 0.238883 -0.961953 0.0729741 0.139813 -0.987485 0.147521 0.152508 -0.97723 
0.174248 0.274969 -0.945531 0.092859 0.437122 -0.894596 0.039131 0.490365 -0.870638 
0.088789 0.483444 -0.870861 0.0568664 0.527967 -0.847359 -0.00485652 0.562523 -0.826767 
0.0565293 0.569561 -0.820003 -0.232205 0.514702 -0.825326 0.00336585 0.448773 -0.89364 
0.201731 0.460259 -0.864561 -0.158542 -0.686775 -0.709369 0.0111522 -0.661694 -0.749691 
0.154842 -0.610338 -0.77686 -0.533143 -0.634599 -0.559502 -0.243613 -0.704369 -0.666721 
-0.335954 -0.703649 -0.626109 -0.37991 -0.791182 -0.479269 0.187404 -0.573183 -0.79771 
0.232196 -0.493417 -0.838227 0.234426 -0.600051 -0.764842 0.22173 -0.441292 -0.869539 
0.245236 -0.620248 -0.745085 0.230111 -0.643518 -0.730023 -0.558557 -0.613843 -0.557863 
-0.703191 -0.460197 -0.541978 0.22284 -0.435436 -0.872203 0.230006 -0.447068 -0.864423 
0.236715 -0.464677 -0.853253 0.256044 -0.410539 -0.875156 0.297265 -0.466194 -0.833245 
0.342351 -0.544853 -0.765461 -0.718892 -0.437329 -0.540313 0.248807 -0.420027 -0.872738 
0.1818 -0.459076 -0.869597 0.242648 -0.495924 -0.833775 0.214022 -0.52923 -0.821042 
0.310792 -0.598021 -0.738769 -0.752825 -0.247491 -0.60992 0.293013 -0.54422 -0.786109 
0.344577 -0.520279 -0.781394 0.365337 -0.574116 -0.732748 0.603165 -0.597422 -0.528468 
-0.790691 -0.0351099 -0.611208 -0.975035 -0.0234991 -0.220804 0.527918 -0.361782 -0.768386 
0.534132 -0.345944 -0.771379 0.537319 -0.364882 -0.760361 -0.763041 0.180921 -0.620512 
0.596955 -0.0641789 -0.799703 0.888467 -0.0721323 -0.453237 -0.726478 0.342007 -0.596038 
-0.704772 0.419056 -0.572441 0.219044 0.472938 -0.853434 0.517815 0.286611 -0.806053 
0.456913 0.37047 -0.808692 0.8679 0.229284 -0.440657 -0.630919 0.488972 -0.602368 
-0.801197 0.545241 -0.246567 -0.515895 0.571386 -0.638256 0.266764 0.531509 -0.803949 
0.133167 0.520664 -0.843313 0.057822 0.589025 -0.806043 0.0985127 0.557987 -0.823981 
0.0579184 0.53978 -0.839811 -0.00485619 0.562869 -0.826532 0.0950616 0.562989 -0.820979 
0.0544858 0.583423 -0.810339 0.237418 0.564415 -0.790613 0.478614 0.68273 -0.552095 
-0.430616 0.600665 -0.673626 -0.604243 0.652055 -0.457946 -0.270143 0.630697 -0.727492 
0.00627012 0.627222 -0.778815 0.262839 0.550905 -0.792099 0.212474 0.585688 -0.782192 
0.286466 0.580842 -0.761945 0.247013 0.738419 -0.627473 0.208703 0.904087 -0.37292 
-0.382339 0.844927 -0.374053 -0.0220288 0.803722 -0.594597 0.227997 0.816067 -0.531085 
-0.436508 -0.880655 -0.184139 -0.24995 -0.943912 -0.215765 -0.0573248 -0.962632 -0.264675 
0.062013 -0.942182 -0.329314 -0.0151863 -0.999528 0.0267042 0.163817 -0.878628 -0.448527 
0.212177 -0.783219 -0.584422 0.227856 -0.694755 -0.6822 -0.536913 -0.827367 -0.164888 
-0.619561 -0.771255 -0.145974 0.293804 -0.649569 -0.701241 0.323186 -0.618269 -0.716446 
0.331406 -0.668252 -0.66604 0.351939 -0.565012 -0.746258 0.386177 -0.746677 -0.541609 
-0.731714 -0.668222 -0.134441 -0.787779 -0.603675 -0.122393 0.369405 -0.557563 -0.743414 
0.388068 -0.586025 -0.711321 0.428617 -0.602262 -0.673475 -0.868437 -0.481904 -0.116559 
0.40603 -0.65011 -0.642259 0.419077 -0.654165 -0.629637 0.431615 -0.655066 -0.620158 
0.603356 -0.604147 -0.520546 -0.946066 -0.281307 -0.160705 -0.977842 -0.139503 -0.156087 
0.61568 -0.59693 -0.514405 -0.988388 -0.0208816 -0.15051 -0.980463 0.123996 -0.152699 
0.819531 -0.365973 -0.440945 0.887308 -0.198762 -0.416147 0.916419 -0.324259 -0.234589 
-0.970134 0.187456 -0.153947 0.91372 -0.0733028 -0.399679 -0.903257 0.400211 -0.154783 
0.870135 0.229762 -0.435976 0.867828 0.238739 -0.43575 -0.826937 0.545877 -0.134885 
-0.819075 0.556565 -0.139107 0.148594 0.955994 -0.252973 0.0267648 0.946131 -0.322676 
-0.0578617 0.925203 -0.375036 0.0458442 0.899178 -0.435176 0.232826 0.906103 -0.353227 
0.609852 0.666301 -0.429096 0.504571 0.734327 -0.454061 -0.729678 0.650166 -0.211788 
-0.66117 0.710195 -0.241821 0.359751 0.802017 -0.47681 0.318657 0.820432 -0.47471 
0.202439 0.928552 -0.311144 0.221803 0.914485 -0.338409 -0.140632 0.978171 -0.152985 
0.0506672 0.952487 -0.300334 -0.423214 0.846952 -0.32181 -0.391547 0.858807 -0.330365 
-0.0573069 0.89909 -0.433996 0.301514 0.833616 -0.462789 0.230481 0.85828 -0.458513 
0.365089 0.859214 -0.358414 -0.0187528 -0.998861 0.043883 -0.471107 -0.866659 0.164194 
-0.290395 -0.949199 0.121206 -0.029766 -0.998415 0.047764 -0.116303 -0.99015 0.0779524 
-0.00234412 -0.999766 0.0215012 -0.0196684 -0.998371 0.0535517 0.0310038 -0.99923 -0.0240505 
0.0671498 -0.988956 -0.132126 0.140578 -0.960488 -0.240208 0.289615 -0.892666 -0.345355 
0.392358 -0.791721 -0.468223 -0.551596 -0.814403 0.18025 -0.635971 -0.745849 0.198117 
-0.486883 -0.764517 0.422443 0.420347 -0.773583 -0.474213 0.466547 -0.731596 -0.497092 
0.483745 -0.874454 -0.0363487 -0.719843 -0.660563 0.213269 -0.781409 -0.587651 0.209918 
0.548301 -0.664419 -0.507852 0.548585 -0.66437 -0.507609 0.549289 -0.665033 -0.505977 
-0.841955 -0.497292 0.209316 -0.753359 -0.488539 0.440204 0.68184 -0.629064 -0.373327 
0.69043 -0.626819 -0.361117 0.712051 -0.624099 -0.321689 -0.934599 -0.30788 0.178143 
-0.975591 -0.145769 0.164236 0.829218 -0.517873 -0.210252 0.933526 -0.346531 -0.0919004 
-0.987541 -0.0311512 0.154247 -0.980043 0.131935 0.148693 -0.97738 -0.0344943 0.20866 
0.956462 -0.286793 -0.0541305 0.933505 -0.191119 0.303385 -0.969207 0.198457 0.145781 
0.997745 -0.0670929 0.00199924 -0.899336 0.410118 0.151652 0.975057 0.216737 0.047836 
0.864279 0.502993 0.00448597 0.919677 0.212635 0.330121 -0.839617 0.526941 0.131819 
-0.832549 0.539186 0.127049 -0.827237 0.517955 0.21772 0.19409 0.964559 -0.178758 
-0.0587882 0.988043 -0.14253 0.249521 0.966362 -0.0623277 0.737029 0.675565 -0.0200113 
0.495512 0.868335 -0.0215203 -0.786913 0.605994 0.116361 -0.728359 0.680273 0.0819937 
0.407491 0.87212 -0.270846 0.238568 0.951172 -0.195851 0.392351 0.886046 -0.246949 
0.212009 0.966357 -0.145626 -0.131842 0.983918 -0.120512 0.0555328 0.998451 0.0035077 
-0.155964 0.981494 -0.111107 0.196789 0.977967 -0.0696757 0.0537299 0.994828 -0.0862041 
-0.58584 0.81034 -0.0118759 -0.479113 0.876471 -0.0474315 -0.123202 0.987072 -0.102523 
0.188862 0.966901 -0.171563 0.385588 0.888898 -0.24735 0.360274 0.905245 -0.225243 
-0.312208 -0.850138 0.424019 -0.135375 -0.90475 0.403858 -0.0445774 -0.913627 0.404101 
-0.0309591 -0.916125 0.399695 -0.0246953 -0.935279 0.353048 0.0428707 -0.962166 0.26907 
0.179125 -0.967559 0.178167 0.328351 -0.941089 0.0808489 0.477409 -0.878631 0.00942683 
-0.610663 -0.618628 0.494358 -0.467114 -0.753903 0.46199 -0.488807 -0.735273 0.469511 
-0.328164 -0.706269 0.627289 -0.127508 -0.630685 0.765492 0.025848 -0.594709 0.803525 
-0.0640518 -0.569235 0.819676 0.168292 -0.767825 0.61816 0.484765 -0.87462 0.00648924 
0.47209 -0.879887 0.0541261 0.641259 -0.766272 -0.0401755 -0.618577 -0.609379 0.496004 
-0.604892 -0.603055 0.520029 -0.433037 -0.465634 0.771793 0.704371 -0.709217 -0.0295305 
0.817068 -0.576366 0.0142436 -0.727745 -0.482763 0.487163 -0.742605 -0.465064 0.481927 
-0.470958 -0.416539 0.777621 0.849827 -0.524535 0.0515479 0.807118 -0.456387 0.374528 
-0.819298 -0.328196 0.470146 -0.661098 -0.337067 0.670325 0.917527 -0.350325 0.188195 
-0.890085 -0.062091 0.451545 -0.639403 -0.0751015 0.765195 0.926761 -0.183758 0.327639 
0.927694 -0.163386 0.335691 -0.887153 0.177676 0.425899 -0.674827 0.150557 0.722455 
0.907432 0.0407395 0.41822 0.895621 0.115471 0.429568 0.886177 0.0442448 0.46123 
-0.828399 0.380582 0.410989 -0.802368 0.438102 0.405306 -0.756351 0.361512 0.545199 
0.863111 0.221781 0.453709 0.474408 0.304736 0.825877 -0.776155 0.485186 0.402712 
-0.580371 0.403783 0.707198 0.292774 0.910045 0.293429 0.339057 0.482539 0.807587 
0.659961 0.613288 0.433969 0.546695 0.719578 0.428173 0.539905 0.618621 0.570798 
-0.737872 0.541761 0.402543 -0.73496 0.546857 0.400975 -0.732952 0.539784 0.414022 
0.34156 0.939212 0.0349049 0.371893 0.927501 -0.0379098 0.2648 0.963669 -0.034966 
0.305069 0.779604 0.546946 0.101472 0.992993 0.0605645 0.115307 0.982029 0.149407 
-0.00952833 0.98109 0.193319 -0.00357582 0.974134 0.225942 0.152681 0.948916 0.276128 
0.0965397 0.9549 0.280794 0.101511 0.934957 0.339929 -0.591221 0.749834 0.296996 
-0.541303 0.79131 0.284286 -0.53833 0.732964 0.41589 -0.187286 0.944198 0.270951 
-0.196259 0.692102 0.694606 0.124548 0.972403 0.197281 0.335468 0.941203 0.0399727 
0.275212 0.954598 0.11402 0.189482 0.809921 0.55509 0.021912 -0.598638 0.80072 
-0.0591651 -0.563532 0.823973 0.039624 -0.629868 0.775691 -0.287545 -0.494612 0.820169 
0.0188955 -0.598972 0.800547 -0.124646 -0.599749 0.79042 0.0220379 -0.59817 0.801066 
0.0219553 -0.598339 0.800942 0.0295049 -0.54375 0.838729 -0.0638356 -0.543595 0.836917 
-0.0588663 -0.525705 0.848628 -0.060736 -0.534221 0.84316 0.149461 -0.746765 0.648077 
0.0226306 -0.600028 0.799659 0.163238 -0.758108 0.631368 0.329917 -0.745056 0.579695 
0.587228 -0.634741 0.502262 -0.374104 -0.42646 0.823516 -0.383994 -0.408695 0.827959 
-0.239331 -0.34072 0.909192 -0.0976344 -0.296773 0.949944 0.0163649 -0.335071 0.942051 
0.0274935 -0.384161 0.922857 -0.0180538 -0.366041 0.930423 -0.0680711 -0.2669 0.961317 
-0.0621294 -0.275325 0.959342 0.0392131 -0.30716 0.95085 0.211801 -0.45336 0.865797 
0.604462 -0.618566 0.501998 0.576095 -0.61441 0.539087 -0.411164 -0.37697 0.829963 
-0.425718 -0.370723 0.825426 -0.277431 -0.283942 0.917829 -0.175072 -0.139165 0.974671 
-0.106931 -0.0996341 0.989262 -0.0819688 -0.201419 0.976069 -0.0185789 -0.262227 0.964827 
0.0833789 -0.33674 0.937899 0.0414929 -0.118828 0.992047 -0.0830788 -0.0375424 0.995836 
-0.0630533 -0.0647153 0.99591 0.0689805 -0.167218 0.983504 0.73238 -0.397115 0.5531 
0.393505 -0.214176 0.894026 0.741691 -0.298007 0.600904 -0.486142 -0.306319 0.818434 
-0.345873 -0.262904 0.900696 -0.156878 -0.169968 0.972882 -0.0582827 -0.0775716 0.995282 
-0.166069 -0.0725911 0.983439 -0.143705 -0.17514 0.973999 -0.105937 0.0233922 0.994098 
0.247094 -0.168568 0.954217 -0.0227906 0.0371945 0.999048 -0.0961189 0.0538702 0.993911 
0.0668773 0.039 0.996999 0.299188 0.00299654 0.954189 0.720803 -0.151392 0.676405 
0.658218 -0.119016 0.74336 -0.617863 -0.077682 0.782439 -0.29274 -0.124212 0.94809 
-0.105181 -0.0612374 0.992566 -0.0745859 -0.0907253 0.993079 -0.212712 -0.110617 0.970833 
-0.0118041 -0.00242262 0.999927 0.111844 0.00880601 0.993687 -0.0609866 0.0333605 0.997581 
0.0399317 0.0282057 0.998804 0.246785 0.0299756 0.968607 0.630832 -0.0536754 0.77406 
0.557063 -0.0345333 0.829752 -0.636424 0.143459 0.757881 -0.322571 0.0844006 0.942775 
-0.128586 0.0052838 0.991684 -0.103896 -0.0283674 0.994184 -0.258707 -0.0603036 0.964072 
0.0496962 -0.111794 0.992488 0.315712 0.240532 0.917862 0.114029 0.0150012 0.993364 
-0.0741122 0.0404367 0.99643 0.0662807 0.0562042 0.996217 0.256416 0.0883783 0.962518 
0.59492 0.0746019 0.800315 0.471896 0.272748 0.838405 0.489065 0.0967954 0.86686 
-0.56278 0.300252 0.770148 -0.548126 0.37198 0.749125 -0.442241 0.247483 0.862076 
-0.205434 0.104626 0.973062 -0.138962 0.0179469 0.990135 -0.172568 0.0355545 0.984356 
0.16143 0.138114 0.977172 0.182404 0.290817 0.939231 0.0878328 0.267399 0.959575 
-0.00973671 0.123649 0.992278 -0.0142768 0.142001 0.989764 0.0895151 0.226992 0.969774 
0.449623 0.300093 0.841299 0.3365 0.470591 0.815667 0.290127 0.251458 0.923361 
-0.541054 0.377857 0.751322 -0.340664 0.214095 0.915484 -0.175147 0.0945788 0.979989 
-0.0412386 0.133882 0.990139 0.0550942 0.242706 0.968534 0.10973 0.225005 0.968159 
0.150457 0.202679 0.967618 0.29374 0.70032 0.650591 0.123013 0.298478 0.946456 
0.112847 0.670688 0.733105 0.00993713 0.410581 0.91177 0.0422255 0.679405 0.732547 
0.0267541 0.444201 0.895528 0.330658 0.477812 0.813856 0.153184 0.628123 0.762887 
0.169463 0.456376 0.873501 -0.531951 0.399051 0.746851 -0.500355 0.449704 0.739873 
-0.489975 0.36783 0.790333 -0.200942 0.636366 0.744756 -0.202727 0.310157 0.928819 
-0.012289 0.328063 0.944576 0.157896 0.725951 0.669376 0.0784454 0.370264 0.925608 
0.209057 0.74278 0.636061 0.117496 0.442439 0.889069 0.299374 0.719551 0.626596 
0.292476 0.755289 0.586512 0.241998 0.560186 0.792231 -0.0842031 0.69421 0.71483 
0.0683493 0.732755 0.677051 0.00890132 0.720827 0.693058 0.00657615 0.702846 0.711312 
0.102283 -0.242348 0.964783 -0.0691855 -0.177125 0.981754 -0.0570786 -0.0244929 0.998069 
0.157718 -0.193091 0.968422 0.100439 -0.18402 0.977777 0.323801 -0.153521 0.933587 
-0.0603491 -0.15916 0.985407 -0.00125868 -0.131446 0.991323 0.00912996 -0.177137 0.984144 
-0.104335 -0.0201743 0.994337 -0.159567 -0.0324778 0.986653 0.318429 -0.128752 0.939162 
0.328185 0.120271 0.936925 0.333263 -0.145098 0.931602 -0.199536 -0.0410581 0.97903 
0.0428458 -0.104431 0.993609 -0.0413588 0.0079884 0.999112 0.0446631 -0.082561 0.995585 
0.284833 0.241118 0.927756 0.0820172 0.249343 0.964936 -0.0139735 0.199686 0.97976 
-0.100925 0.142285 0.984667 0.114371 0.161415 0.980237 -0.00945096 0.233116 0.972403 
-0.037057 0.229457 0.972613 
