# vtk DataFile Version 4.2
vtk output
ASCII
DATASET POLYDATA
POINTS 504 float
6.27373 -19.8092 -25.7191 -8.22745 -34.3103 -20.3458 -0.97686 -34.3103 -22.1582 
6.27373 -34.3103 -22.7131 13.5243 -34.3103 -21.2505 -22.7286 -27.0598 -18.914 
-15.478 -27.0598 -21.5491 -8.22745 -27.0598 -23.6971 -0.97686 -27.0598 -24.7439 
6.27373 -20.3206 -25.6939 6.27373 -27.0598 -25.3678 13.5243 -27.0598 -25.2518 
20.7749 -27.0598 -23.2536 28.0255 -27.0598 -19.394 -22.7286 -19.8092 -21.2945 
-15.478 -19.8092 -22.7887 -8.22745 -19.8092 -23.8005 5.93211 -19.8092 -25.6939 
-0.97686 -19.8092 -25.165 6.92932 -19.8092 -25.6939 6.27373 -19.6628 -25.6939 
13.5243 -19.8092 -25.44 20.7749 -19.8092 -24.7685 28.0255 -19.8092 -22.8134 
-29.9792 -12.5586 -18.9819 -22.7286 -12.5586 -22.0627 -15.478 -12.5586 -23.1232 
-8.22745 -12.5586 -23.4426 -0.97686 -12.5586 -24.0248 6.27373 -12.5586 -24.4358 
13.5243 -12.5586 -24.8261 20.7749 -12.5586 -25.6303 28.0255 -12.5586 -24.7348 
35.2761 -12.5586 -21.4763 -29.9792 -5.30798 -19.2757 -22.7286 -5.30798 -22.0829 
-15.478 -5.30798 -23.2107 -8.22745 -5.30798 -23.0818 -0.97686 -5.30798 -22.8807 
6.27373 -5.30798 -23.1129 13.5243 -5.30798 -24.1341 20.7749 -5.30798 -25.3291 
28.0255 -5.30798 -25.1494 35.2761 -5.30798 -23.1337 -29.9792 1.9426 -18.5695 
-22.7286 1.9426 -20.944 -15.478 1.9426 -22.3164 -8.22745 1.9426 -22.321 
-0.97686 1.9426 -21.4313 6.27373 1.9426 -21.6428 13.5243 1.9426 -23.093 
20.7749 1.9426 -24.5379 28.0255 1.9426 -24.6067 35.2761 1.9426 -22.7358 
-22.7286 9.19319 -19.2622 -15.478 9.19319 -20.2764 -8.22745 9.19319 -20.7055 
-0.97686 9.19319 -19.9351 6.27373 9.19319 -19.4524 13.5243 9.19319 -21.0036 
20.7749 9.19319 -22.6157 28.0255 9.19319 -22.76 35.2761 9.19319 -20.8046 
-15.478 16.4438 -19.3692 -8.22745 16.4438 -19.9818 -0.97686 16.4438 -19.7263 
6.27373 16.4438 -19.2056 13.5243 16.4438 -19.8225 20.7749 16.4438 -20.6189 
28.0255 16.4438 -20.1058 -15.478 23.6944 -18.4782 -8.22745 23.6944 -19.1227 
-0.97686 23.6944 -19.1383 6.27373 23.6944 -18.8684 13.5243 23.6944 -18.7635 
20.7749 23.6944 -18.5791 -8.22745 -36.3556 -18.4433 -0.97686 -38.0185 -18.4433 
6.27373 -38.3505 -18.4433 13.5243 -36.7561 -18.4433 -22.7286 -27.8121 -18.4433 
-13.0542 -34.3103 -18.4433 -15.478 -32.7949 -18.4433 -15.478 -34.3103 -17.002 
19.6475 -34.3103 -18.4433 20.7749 -33.7251 -18.4433 20.7749 -34.3103 -17.2066 
28.0255 -28.1614 -18.4433 -23.5038 -27.0598 -18.4433 -29.9792 -27.0598 -11.4669 
29.1105 -27.0598 -18.4433 -28.2566 -19.8092 -18.4433 -29.9792 -15.0136 -18.4433 
-29.9792 -19.8092 -17.1213 34.9682 -19.8092 -18.4433 35.2761 -19.3214 -18.4433 
35.2761 -19.8092 -17.9872 -30.7179 -12.5586 -18.4433 -37.2298 -12.5586 -11.9412 
38.5478 -12.5586 -18.4433 -31.3425 -5.30798 -18.4433 -37.2298 -5.30798 -13.9998 
40.6952 -5.30798 -18.4433 42.5267 -5.30798 -15.0409 -30.2321 1.9426 -18.4433 
-37.2298 1.9426 -14.3441 -29.9792 2.58271 -18.4433 40.7871 1.9426 -18.4433 
42.5267 1.9426 -15.7693 -37.2298 9.19319 -13.4522 -25.5977 9.19319 -18.4433 
-29.9792 9.19319 -17.1377 -22.7286 14.7211 -18.4433 38.5041 9.19319 -18.4433 
35.2761 14.3318 -18.4433 42.5267 9.19319 -12.9532 -37.2298 16.4438 -11.3777 
-29.9792 16.4438 -15.7467 -21.1825 16.4438 -18.4433 -22.7286 16.4438 -18.1773 
32.6418 16.4438 -18.4433 28.0255 20.7706 -18.4433 35.2761 16.4438 -17.1945 
-29.9792 23.6944 -13.3826 -15.6323 23.6944 -18.4433 -22.7286 23.6944 -16.6147 
-15.478 23.8003 -18.4433 -8.22745 26.0313 -18.4433 -0.97686 25.873 -18.4433 
6.27373 25.5781 -18.4433 13.5243 24.8667 -18.4433 21.5642 23.6944 -18.4433 
20.7749 24.0132 -18.4433 28.0255 23.6944 -17.1569 35.2761 23.6944 -11.855 
-22.7286 30.945 -13.3864 -15.478 30.945 -15.6163 -8.22745 30.945 -16.8162 
-0.97686 30.945 -16.6719 6.27373 30.945 -17.0096 13.5243 30.945 -16.546 
20.7749 30.945 -14.9581 28.0255 30.945 -11.3313 -15.478 -37.9386 -11.1927 
-8.22745 -40.2946 -11.1927 -0.97686 -41.205 -11.1927 6.27373 -40.7646 -11.1927 
13.5243 -39.1905 -11.1927 20.7749 -36.4494 -11.1927 -29.9792 -27.2728 -11.1927 
-22.192 -34.3103 -11.1927 -22.7286 -33.972 -11.1927 -22.7286 -34.3103 -9.65686 
24.4396 -34.3103 -11.1927 28.0255 -31.8456 -11.1927 -30.1652 -27.0598 -11.1927 
32.8151 -27.0598 -11.1927 35.2761 -24.1055 -11.1927 -34.7409 -19.8092 -11.1927 
-37.2298 -13.8739 -11.1927 38.2582 -19.8092 -11.1927 -37.7588 -12.5586 -11.1927 
42.0753 -12.5586 -11.1927 42.5267 -11.0453 -11.1927 -39.6907 -5.30798 -11.1927 
44.1699 -5.30798 -11.1927 -40.4871 1.9426 -11.1927 44.618 1.9426 -11.1927 
-39.5795 9.19319 -11.1927 43.4454 9.19319 -11.1927 42.5267 11.7294 -11.1927 
-37.4313 16.4438 -11.1927 -37.2298 16.809 -11.1927 40.5451 16.4438 -11.1927 
-32.7228 23.6944 -11.1927 -37.2298 23.6944 -5.01462 -29.9792 27.0573 -11.1927 
35.8422 23.6944 -11.1927 35.2761 24.3547 -11.1927 -26.1052 30.945 -11.1927 
-29.9792 30.945 -6.86506 -22.7286 33.2512 -11.1927 -15.478 35.9799 -11.1927 
-8.22745 37.3774 -11.1927 -0.97686 38.0737 -11.1927 6.27373 38.0836 -11.1927 
13.5243 37.0712 -11.1927 20.7749 34.8782 -11.1927 28.1856 30.945 -11.1927 
28.0255 31.0637 -11.1927 -15.478 38.1955 -6.78561 -8.22745 38.1955 -9.735 
-0.97686 38.1955 -11.0023 6.27373 38.1955 -11.0179 13.5243 38.1955 -8.89624 
-22.7286 -35.3763 -3.9421 -15.478 -39.0517 -3.9421 -8.22745 -40.9667 -3.9421 
-0.97686 -41.4476 -3.9421 6.27373 -40.6324 -3.9421 13.5243 -38.9357 -3.9421 
20.7749 -36.0781 -3.9421 -24.2592 -34.3103 -3.9421 -29.9792 -29.3393 -3.9421 
23.7722 -34.3103 -3.9421 20.7749 -34.3103 1.49123 28.0255 -31.4857 -3.9421 
-32.0582 -27.0598 -3.9421 32.6483 -27.0598 -3.9421 35.2761 -24.0164 -3.9421 
-36.929 -19.8092 -3.9421 -37.2298 -19.2359 -3.9421 38.3116 -19.8092 -3.9421 
-40.5061 -12.5586 -3.9421 42.37 -12.5586 -3.9421 42.5267 -12.0915 -3.9421 
-43.0222 -5.30798 -3.9421 44.6397 -5.30798 -3.9421 -44.2705 1.9426 -3.9421 
-44.4804 1.9426 0.979423 45.351 1.9426 -3.9421 -43.754 9.19319 -3.9421 
44.4989 9.19319 -3.9421 42.5267 15.8488 -3.9421 -41.5331 16.4438 -3.9421 
42.3354 16.4438 -3.9421 -37.7742 23.6944 -3.9421 -37.2298 24.4596 -3.9421 
38.3568 23.6944 -3.9421 35.2761 27.4441 -3.9421 -31.7498 30.945 -3.9421 
-29.9792 32.4883 -3.9421 -22.7286 36.6914 -3.9421 20.7749 37.6849 -3.9421 
31.6369 30.945 -3.9421 28.0255 33.6672 -3.9421 -18.6288 38.1955 -3.9421 
-15.478 39.262 -3.9421 -8.22745 40.6368 -3.9421 -0.97686 41.3044 -3.9421 
6.27373 41.2822 -3.9421 19.2909 38.1955 -3.9421 13.5243 40.1025 -3.9421 
-22.7286 -35.0555 3.30849 -15.478 -38.3121 3.30849 -8.22745 -39.8312 3.30849 
-0.97686 -39.9581 3.30849 6.27373 -38.8429 3.30849 13.5243 -36.8052 3.30849 
-23.8507 -34.3103 3.30849 -29.9792 -29.2821 3.30849 -22.7286 -34.3103 6.4852 
19.4575 -34.3103 3.30849 13.5243 -34.3103 8.1677 20.7749 -33.6842 3.30849 
28.0255 -28.7106 3.30849 -32.0974 -27.0598 3.30849 29.7691 -27.0598 3.30849 
28.0255 -27.0598 5.56622 35.2761 -20.8352 3.30849 -37.2126 -19.8092 3.30849 
-37.2298 -19.7775 3.30849 36.0438 -19.8092 3.30849 35.2761 -19.8092 4.54178 
-40.8943 -12.5586 3.30849 40.3493 -12.5586 3.30849 42.5267 -6.64605 3.30849 
-43.4091 -5.30798 3.30849 -44.4804 1.34193 3.30849 42.9642 -5.30798 3.30849 
42.5267 -5.30798 4.20617 -44.5759 1.9426 3.30849 -44.4804 3.80919 3.30849 
-44.4804 1.9426 3.66155 43.879 1.9426 3.30849 42.5267 1.9426 6.10932 
-44.1826 9.19319 3.30849 43.2585 9.19319 3.30849 42.5267 11.9574 3.30849 
42.5267 9.19319 4.86654 -41.8504 16.4438 3.30849 41.2204 16.4438 3.30849 
-38.1435 23.6944 3.30849 -37.2298 24.9731 3.30849 -37.2298 23.6944 6.26619 
37.4054 23.6944 3.30849 35.2761 26.5131 3.30849 35.2761 23.6944 7.55043 
-32.2162 30.945 3.30849 -29.9792 32.8927 3.30849 -29.9792 30.945 9.73032 
-22.7286 36.9895 3.30849 20.7749 37.2785 3.30849 30.8574 30.945 3.30849 
28.0255 33.0755 3.30849 28.0255 30.945 8.0402 -19.5591 38.1955 3.30849 
-15.478 39.654 3.30849 -15.478 38.1955 10.4432 -8.22745 41.0433 3.30849 
-0.97686 41.8399 3.30849 6.27373 41.5803 3.30849 18.5225 38.1955 3.30849 
13.5243 40.0386 3.30849 13.5243 38.1955 9.20142 -15.478 -36.0289 10.5591 
-8.22745 -37.0539 10.5591 -0.97686 -36.6877 10.5591 6.27373 -35.3857 10.5591 
-29.9792 -27.7257 10.5591 -20.1027 -34.3103 10.5591 -22.7286 -33.2298 10.5591 
-15.478 -34.3103 13.5962 -8.22745 -34.3103 14.8411 -0.97686 -34.3103 13.9913 
9.57844 -34.3103 10.5591 6.27373 -34.3103 12.0357 13.5243 -32.8225 10.5591 
20.7749 -28.725 10.5591 -30.6408 -27.0598 10.5591 -29.9792 -27.0598 11.7723 
13.5243 -27.0598 16.5807 22.9702 -27.0598 10.5591 20.7749 -27.0598 12.2659 
28.0255 -22.103 10.5591 -36.0234 -19.8092 10.5591 -37.2298 -17.4321 10.5591 
20.7749 -19.8092 17.4112 30.1078 -19.8092 10.5591 28.0255 -19.8092 12.3129 
35.2761 -13.1211 10.5591 -39.515 -12.5586 10.5591 -37.2298 -12.5586 15.2434 
28.0255 -12.5586 16.8648 35.6433 -12.5586 10.5591 35.2761 -12.5586 10.9459 
-41.6824 -5.30798 10.5591 38.7913 -5.30798 10.5591 35.2761 -5.30798 14.2409 
-42.4618 1.9426 10.5591 39.8849 1.9426 10.5591 35.2761 1.9426 15.4538 
-41.8013 9.19319 10.5591 39.2976 9.19319 10.5591 35.2761 9.19319 14.9379 
-39.6468 16.4438 10.5591 -37.2298 21.1458 10.5591 -37.2298 16.4438 14.9462 
37.4467 16.4438 10.5591 35.2761 20.6103 10.5591 35.2761 16.4438 13.0686 
-35.7114 23.6944 10.5591 -29.9792 30.6058 10.5591 33.5024 23.6944 10.5591 
28.0255 29.5185 10.5591 28.0255 23.6944 15.9838 -29.5726 30.945 10.5591 
-22.7286 35.3153 10.5591 -22.7286 30.945 17.7223 -15.478 38.1698 10.5591 
13.5243 37.7134 10.5591 26.1789 30.945 10.5591 20.7749 34.3859 10.5591 
20.7749 30.945 14.9354 -15.3642 38.1955 10.5591 -8.22745 39.7563 10.5591 
-8.22745 38.1955 13.8621 -0.97686 40.4663 10.5591 -0.97686 38.1955 14.8799 
11.9934 38.1955 10.5591 6.27373 39.8268 10.5591 6.27373 38.1955 13.4921 
-22.7286 -28.7905 17.8097 -15.478 -31.3283 17.8097 -8.22745 -31.8662 17.8097 
-0.97686 -30.9705 17.8097 6.27373 -29.013 17.8097 -25.2091 -27.0598 17.8097 
-29.9792 -22.5637 17.8097 -22.7286 -27.0598 19.4156 -15.478 -27.0598 21.4182 
-8.22745 -27.0598 21.8379 -0.97686 -27.0598 21.0514 10.6557 -27.0598 17.8097 
6.27373 -27.0598 19.4876 13.5243 -25.3703 17.8097 -31.9954 -19.8092 17.8097 
[...]
POINT_DATA 504
SCALARS ImageScalars float
LOOKUP_TABLE default
0 0 0 0 0 0 0 0 0 
0 0 0 0 0 0 0 0 0 
0 0 0 0 0 0 0 0 0 
0 0 0 0 0 0 0 0 0 
0 0 0 0 0 0 0 0 0 
0 0 0 0 0 0 0 0 0 
0 0 0 0 0 0 0 0 0 
0 0 0 0 0 0 0 0 0 
0 0 0 0 0 0 0 0 0 
0 0 0 0 0 0 0 0 0 
0 0 0 0 0 0 0 0 0 
0 0 0 0 0 0 0 0 0 
0 0 0 0 0 0 0 0 0 
0 0 0 0 0 0 0 0 0 
0 0 0 0 0 0 0 0 0 
0 0 0 0 0 0 0 0 0 
0 0 0 0 0 0 0 0 0 
0 0 0 0 0 0 0 0 0 
0 0 0 0 0 0 0 0 0 
0 0 0 0 0 0 0 0 0 
0 0 0 0 0 0 0 0 0 
0 0 0 0 0 0 0 0 0 
0 0 0 0 0 0 0 0 0 
0 0 0 0 0 0 0 0 0 
0 0 0 0 0 0 0 0 0 
0 0 0 0 0 0 0 0 0 
0 0 0 0 0 0 0 0 0 
0 0 0 0 0 0 0 0 0 
0 0 0 0 0 0 0 0 0 
0 0 0 0 0 0 0 0 0 
0 0 0 0 0 0 0 0 0 
0 0 0 0 0 0 0 0 0 
0 0 0 0 0 0 0 0 0 
0 0 0 0 0 0 0 0 0 
0 0 0 0 0 0 0 0 0 
0 0 0 0 0 0 0 0 0 
0 0 0 0 0 0 0 0 0 
0 0 0 0 0 0 0 0 0 
0 0 0 0 0 0 0 0 0 
0 0 0 0 0 0 0 0 0 
0 0 0 0 0 0 0 0 0 
0 0 0 0 0 0 0 0 0 
0 0 0 0 0 0 0 0 0 
0 0 0 0 0 0 0 0 0 
0 0 0 0 0 0 0 0 0 
0 0 0 0 0 0 0 0 0 
0 0 0 0 0 0 0 0 0 
0 0 0 0 0 0 0 0 0 
0 0 0 0 0 0 0 0 0 
0 0 0 0 0 0 0 0 0 
0 0 0 0 0 0 0 0 0 
0 0 0 0 0 0 0 0 0 
0 0 0 0 0 0 0 0 0 
0 0 0 0 0 0 0 0 0 
0 0 0 0 0 0 0 0 0 
0 0 0 0 0 0 0 0 0 

NORMALS Normals float
0.0176382 -0.0614467 0.997954 0.263623 0.58195 0.76931 0.138694 0.56355 0.814356 
-0.0470638 0.58838 0.807214 -0.251652 0.672332 0.696162 0.442128 0.435168 0.784316 
0.29077 0.306761 0.906284 0.215238 0.196153 0.956659 0.107662 0.164634 0.980461 
0.0192124 -0.0460427 0.998755 0.0364679 0.162135 0.986094 -0.132682 0.216765 0.967165 
-0.333696 0.374193 0.865232 -0.5746 0.54241 0.612883 0.324357 0.194844 0.92565 
0.168882 0.104025 0.980132 0.159461 -0.0183537 0.987034 0.0230033 -0.0607359 0.997889 
0.132915 -0.047856 0.989971 0.0100186 -0.0587847 0.99822 0.0183705 -0.06377 0.997796 
-0.0663729 -0.0303435 0.997333 -0.163615 0.147678 0.975408 -0.379325 0.307044 0.872833 
0.529212 0.112899 0.840945 0.244466 0.0521298 0.968256 0.094272 0.0284872 0.995139 
0.0612266 -0.049352 0.996903 0.0679295 -0.154577 0.985643 0.0545804 -0.179173 0.982302 
0.0805247 -0.0893492 0.99274 -0.0021217 0.0408551 0.999163 -0.248379 0.153808 0.956374 
-0.57137 0.271711 0.774409 0.456742 -0.02925 0.889118 0.250195 -0.0737656 0.965381 
0.0657359 -0.0540585 0.996372 -0.022545 -0.0758206 0.996867 0.00196502 -0.172944 0.98493 
0.084438 -0.183644 0.97936 0.152274 -0.115709 0.981542 0.0682306 -0.0723407 0.995043 
-0.125721 -0.0105562 0.992009 -0.471222 0.0703096 0.879208 0.383625 -0.133505 0.913788 
0.24473 -0.187943 0.951202 0.0914691 -0.200106 0.975495 -0.0596578 -0.163755 0.984695 
-0.046421 -0.202162 0.978251 0.11034 -0.25105 0.961665 0.193554 -0.207723 0.958847 
0.0997699 -0.182922 0.978052 -0.106698 -0.152274 0.982562 -0.430428 -0.146291 0.890691 
0.20424 -0.185133 0.961255 0.0975541 -0.199728 0.974983 -0.0232557 -0.158307 0.987116 
-0.0851963 -0.114665 0.989744 0.0669493 -0.161186 0.984651 0.214211 -0.219479 0.95181 
0.11299 -0.260248 0.958908 -0.113947 -0.301872 0.946514 -0.431526 -0.311979 0.846437 
0.123669 -0.122785 0.984698 0.0238914 -0.105224 0.994161 -0.0534787 -0.0531712 0.997152 
0.00594645 -0.0393244 0.999209 0.0948408 -0.146472 0.984658 0.0217908 -0.264569 0.964121 
-0.184802 -0.344158 0.920545 0.155256 -0.224453 0.962038 0.045497 -0.198962 0.97895 
-0.0174185 -0.194489 0.98075 -0.0252294 -0.135094 0.990511 -0.018595 -0.201746 0.979261 
-0.0921013 -0.331185 0.93906 0.251419 0.694898 0.673725 0.111924 0.788964 0.60416 
-0.0792188 0.839357 0.537777 -0.267359 0.808904 0.523635 0.452463 0.466566 0.759996 
0.332363 0.624563 0.706722 0.354433 0.56818 0.742663 0.380225 0.67359 0.633802 
-0.404255 0.750519 0.52278 -0.426151 0.731792 0.531861 -0.435827 0.779081 0.450652 
-0.587009 0.585262 0.559365 0.467423 0.446914 0.762748 0.723517 0.584853 0.366702 
-0.607111 0.562791 0.560966 0.540753 0.260393 0.799864 0.559925 0.169372 0.811047 
0.631333 0.300211 0.715047 -0.684907 0.449274 0.573633 -0.690634 0.442712 0.571866 
-0.704413 0.45884 0.541542 0.55574 0.121807 0.822384 0.814011 0.273031 0.512679 
-0.733281 0.313444 0.603367 0.498207 -0.0102392 0.866998 0.722284 0.106349 0.68337 
-0.779351 0.12097 0.614799 -0.900014 0.150279 0.409135 0.390465 -0.130135 0.911374 
0.639415 -0.0301351 0.768271 0.3787 -0.137247 0.915287 -0.746034 -0.104112 0.657719 
-0.872555 -0.0769788 0.482412 0.618506 -0.169065 0.767377 0.251117 -0.181642 0.950761 
0.333929 -0.179857 0.92528 0.225355 -0.168497 0.959596 -0.598772 -0.311535 0.737847 
-0.474647 -0.402201 0.782908 -0.880744 -0.261677 0.394735 0.659527 -0.317827 0.681183 
0.39887 -0.216767 0.891019 0.208369 -0.155264 0.965648 0.231919 -0.165365 0.958576 
-0.381854 -0.404304 0.831099 -0.251247 -0.390907 0.885475 -0.518659 -0.445505 0.729738 
0.509999 -0.402473 0.760208 0.157753 -0.225232 0.961449 0.293906 -0.275065 0.915401 
0.155593 -0.227841 0.961186 0.0475838 -0.273611 0.960663 -0.00771378 -0.262862 0.964803 
-0.0196658 -0.202445 0.979096 -0.033782 -0.236274 0.971099 -0.113337 -0.342692 0.932586 
-0.0977211 -0.339814 0.935402 -0.317451 -0.451476 0.833903 -0.661132 -0.574285 0.482806 
0.386931 -0.565588 0.728282 0.193224 -0.5118 0.837093 0.0614024 -0.468397 0.881382 
0.0111418 -0.444939 0.895492 -0.00696114 -0.424307 0.905492 -0.11556 -0.467984 0.876149 
-0.268832 -0.599591 0.753803 -0.489614 -0.718514 0.49398 0.382052 0.874689 0.298253 
0.206298 0.944702 0.25491 0.0296251 0.982026 0.186406 -0.132656 0.98316 0.125696 
-0.271482 0.954195 0.125736 -0.436921 0.890832 0.124571 0.72427 0.59199 0.353527 
0.521357 0.79301 0.315153 0.53397 0.783297 0.318311 0.534409 0.804271 0.259916 
-0.524279 0.841702 0.12911 -0.622602 0.769079 0.144512 0.728482 0.586424 0.354148 
-0.731238 0.663607 0.157851 -0.786132 0.595858 0.164166 0.812812 0.401564 0.421999 
0.828288 0.303338 0.471089 -0.841704 0.51034 0.176317 0.829056 0.283025 0.482247 
-0.90965 0.364502 0.199185 -0.923908 0.323889 0.203689 0.805929 0.157631 0.570641 
-0.958797 0.170082 0.227553 0.770788 -0.000187349 0.637091 -0.964716 -0.0469382 0.259075 
0.724423 -0.163594 0.669663 -0.918422 -0.24555 0.310171 -0.893099 -0.301584 0.333798 
0.668647 -0.318763 0.671789 0.66487 -0.325737 0.672193 -0.812242 -0.421496 0.403242 
0.597966 -0.446873 0.665388 0.79603 -0.530251 0.291839 0.553152 -0.516213 0.653871 
-0.683888 -0.57592 0.4479 -0.670863 -0.588995 0.450586 0.484933 -0.608343 0.628299 
0.610979 -0.692407 0.383767 0.400991 -0.686601 0.606453 0.217979 -0.772146 0.596888 
0.107314 -0.80248 0.58695 0.0378173 -0.800673 0.597907 -0.0542376 -0.800441 0.596952 
-0.169792 -0.801473 0.573421 -0.325096 -0.772051 0.546122 -0.494964 -0.720182 0.486157 
-0.491359 -0.722709 0.486064 0.242616 -0.910882 0.333812 0.11698 -0.858547 0.499213 
0.0386137 -0.809943 0.585236 -0.0556337 -0.809011 0.585154 -0.200344 -0.881922 0.426704 
0.529946 0.846134 0.0566867 0.352979 0.935417 0.0200019 0.154746 0.987487 -0.030373 
-0.0228417 0.996475 -0.0807238 -0.164179 0.978644 -0.123695 -0.284652 0.946711 -0.150701 
-0.438658 0.883935 -0.161982 0.565748 0.82232 0.060981 0.715681 0.693067 0.0863645 
-0.503226 0.848639 -0.16302 -0.442228 0.837342 -0.321392 -0.61336 0.773537 -0.159467 
0.761041 0.641587 0.0958294 -0.722111 0.676029 -0.146769 -0.778536 0.612149 -0.138403 
0.864458 0.483627 0.137173 0.869052 0.474183 0.141067 -0.835276 0.535617 -0.124212 
0.909447 0.374437 0.180838 -0.916382 0.388936 -0.0947284 -0.921569 0.376903 -0.0930271 
0.946643 0.242796 0.211938 -0.975943 0.203728 -0.0776581 0.973865 0.0497335 0.221614 
0.998538 0.0534739 -0.00784201 -0.998722 -0.0116439 -0.0491828 0.955089 -0.174876 0.239213 
-0.981 -0.193419 -0.0150753 -0.933005 -0.358828 0.027277 0.901453 -0.369949 0.224767 
-0.926578 -0.374764 0.0317015 0.813116 -0.532486 0.235162 0.801308 -0.55059 0.233998 
-0.81918 -0.569431 0.0685042 -0.7424 -0.66401 0.0890717 0.656136 -0.718939 0.229373 
0.60739 -0.761266 0.227049 0.405801 -0.894445 0.187866 -0.38557 -0.914871 0.119775 
-0.634752 -0.766287 0.0994687 -0.551874 -0.827822 0.100726 0.317647 -0.928905 0.190359 
0.253257 -0.946525 0.199877 0.138231 -0.96744 0.212021 0.0438719 -0.973157 0.22592 
-0.0785734 -0.975079 0.207476 -0.354531 -0.926108 0.128961 -0.239381 -0.956821 0.164895 
0.499202 0.857735 -0.122831 0.303252 0.934495 -0.186432 0.10461 0.962101 -0.251831 
-0.0627925 0.951903 -0.299897 -0.198187 0.924793 -0.324777 -0.307055 0.885545 -0.348606 
0.527602 0.841434 -0.116727 0.69525 0.714577 -0.0775052 0.475483 0.854605 -0.208724 
-0.416013 0.830698 -0.369965 -0.328414 0.812262 -0.482053 -0.443501 0.812489 -0.378376 
-0.609151 0.685981 -0.397951 0.743704 0.664989 -0.0685166 -0.644528 0.653998 -0.396068 
-0.608125 0.641092 -0.468172 -0.739072 0.553993 -0.383229 0.863964 0.501138 -0.0492644 
0.864257 0.500629 -0.0492931 -0.75168 0.538017 -0.381464 -0.731345 0.5362 -0.421453 
0.918646 0.390699 -0.058688 -0.843301 0.405469 -0.352757 -0.907493 0.250295 -0.337355 
0.967768 0.237727 -0.0831315 0.991243 0.0694099 -0.112337 -0.91669 0.21515 -0.336735 
-0.905628 0.214332 -0.365924 0.991928 0.0539409 -0.114761 0.993184 -0.00584733 -0.116414 
0.990464 0.052288 -0.127464 -0.945353 0.0160818 -0.325652 -0.905192 0.0195061 -0.424554 
0.976359 -0.180574 -0.118816 -0.937988 -0.164916 -0.304929 -0.926185 -0.23591 -0.294156 
-0.918432 -0.160637 -0.361496 0.922231 -0.369484 -0.113892 -0.894518 -0.352374 -0.275082 
0.833148 -0.542328 -0.108369 0.813563 -0.571835 -0.105452 0.816645 -0.535362 -0.21559 
-0.807526 -0.537446 -0.243011 -0.755224 -0.613048 -0.23197 -0.753311 -0.512104 -0.41264 
0.674873 -0.731728 -0.0954949 0.608307 -0.788057 -0.0944972 0.613834 -0.717333 -0.329608 
0.412635 -0.907727 -0.0759166 -0.420655 -0.888159 -0.184993 -0.621915 -0.754242 -0.210574 
-0.556485 -0.804967 -0.205795 -0.556565 -0.733792 -0.389596 0.346694 -0.935262 -0.0713245 
0.265395 -0.961868 -0.0661553 0.267008 -0.912811 -0.309002 0.148641 -0.98737 -0.0548198 
0.0362785 -0.997963 -0.052481 -0.118597 -0.98876 -0.0910395 -0.375565 -0.911019 -0.170281 
-0.278401 -0.949615 -0.143962 -0.311101 -0.880855 -0.356806 0.227295 0.892806 -0.388889 
0.0406122 0.89017 -0.453814 -0.100155 0.85922 -0.501707 -0.215171 0.82236 -0.526712 
0.671068 0.688 -0.276267 0.360504 0.86465 -0.349881 0.443014 0.835374 -0.325405 
0.199801 0.84637 -0.493697 0.00750542 0.81079 -0.585289 -0.118886 0.795779 -0.593802 
-0.270748 0.7976 -0.539008 -0.220674 0.794677 -0.565501 -0.338694 0.755056 -0.561405 
-0.467035 0.646153 -0.603626 0.688567 0.671343 -0.27418 0.666617 0.670716 -0.325209 
-0.352874 0.594421 -0.722595 -0.50407 0.60915 -0.61225 -0.470457 0.602473 -0.644745 
-0.562758 0.536319 -0.62902 0.83128 0.484161 -0.273061 0.857867 0.432264 -0.27787 
-0.46497 0.447124 -0.764122 -0.589278 0.509987 -0.62663 -0.550233 0.499852 -0.668873 
-0.678634 0.410855 -0.608814 0.893311 0.337729 -0.296539 0.818876 0.310797 -0.482543 
-0.509166 0.379508 -0.772479 -0.685662 0.401647 -0.607081 -0.676559 0.400802 -0.617758 
0.92049 0.182341 -0.345614 -0.767704 0.216553 -0.603105 -0.667251 0.216588 -0.712647 
0.921664 0.0095157 -0.387873 -0.799796 0.0246992 -0.599763 -0.664719 0.0341481 -0.746313 
0.896905 -0.176248 -0.405585 -0.796193 -0.131076 -0.590674 -0.677621 -0.112334 -0.726781 
0.857359 -0.347641 -0.37958 0.808088 -0.451772 -0.378016 0.782578 -0.336136 -0.524009 
-0.774852 -0.29641 -0.558342 -0.733685 -0.40443 -0.546025 -0.715649 -0.286566 -0.636967 
0.773051 -0.510661 -0.376322 0.613748 -0.702004 -0.361252 -0.690153 -0.490448 -0.532118 
-0.556939 -0.666808 -0.495162 -0.538931 -0.447443 -0.713686 0.60044 -0.714151 -0.359805 
0.424348 -0.844676 -0.326269 0.402384 -0.651295 -0.643353 0.267 -0.911416 -0.3131 
-0.317729 -0.854836 -0.410248 -0.520258 -0.706074 -0.480407 -0.431993 -0.776622 -0.458519 
-0.431998 -0.650161 -0.625034 0.265036 -0.912087 -0.312815 0.147642 -0.941176 -0.303956 
0.136574 -0.882883 -0.449294 0.00487329 -0.943604 -0.331039 -0.0188929 -0.850994 -0.524836 
-0.285571 -0.871371 -0.39895 -0.168811 -0.913977 -0.368982 -0.179508 -0.853405 -0.489363 
0.378577 0.678316 -0.629735 0.152664 0.714196 -0.683094 -0.0168895 0.711392 -0.702593 
-0.136747 0.678631 -0.721637 -0.241195 0.639105 -0.730322 0.455881 0.635893 -0.622747 
0.612878 0.510068 -0.603499 0.364384 0.611469 -0.702374 0.132592 0.554061 -0.821849 
-0.0215471 0.52753 -0.849263 -0.132523 0.552046 -0.823215 -0.309816 0.591824 -0.74415 
-0.240017 0.586697 -0.77342 -0.356863 0.550687 -0.754581 0.665949 0.44067 -0.601932 
0.585746 0.422801 -0.691477 0.274164 0.320968 -0.90654 0.0810249 0.264511 -0.960973 
-0.0121057 0.235476 -0.971805 -0.0794197 0.267336 -0.960325 -0.200035 0.324381 -0.924534 
-0.455114 0.444663 -0.771457 -0.352619 0.411957 -0.840209 -0.460946 0.435776 -0.773064 
0.735651 0.285495 -0.614256 0.771001 0.166053 -0.614804 0.489594 0.236022 -0.8394 
-0.10782 0.0993393 -0.989195 -0.245478 0.226892 -0.942476 -0.487849 0.3699 -0.790681 
-0.413606 0.33249 -0.847573 -0.506274 0.324125 -0.799143 0.773761 0.128326 -0.620344 
0.758763 0.126574 -0.638951 0.41638 0.0934852 -0.904372 -0.125516 0.0913645 -0.987876 
-0.333765 0.161739 -0.928677 -0.554156 0.209441 -0.805633 -0.499892 0.206133 -0.8412 
0.765517 -0.0209747 -0.643074 0.735021 -0.0234315 -0.677639 0.393722 -0.0412411 -0.918304 
-0.302265 -0.00347856 -0.953218 -0.577679 0.0353454 -0.815499 -0.480025 0.0309559 -0.876709 
0.741492 -0.149569 -0.654078 0.741134 -0.152966 -0.653699 0.740339 -0.149437 -0.655413 
0.435497 -0.142967 -0.888765 -0.313001 -0.104281 -0.94401 -0.563192 -0.0986447 -0.820417 
-0.467814 -0.0909699 -0.879133 0.686032 -0.317993 -0.654401 0.462594 -0.278362 -0.841737 
0.161701 -0.215862 -0.962941 0.0287552 -0.100357 -0.994536 0.0337564 -0.0871129 -0.995626 
0.0506224 -0.123519 -0.99105 -0.202925 -0.175849 -0.963275 -0.321658 -0.196366 -0.92627 
-0.532337 -0.239136 -0.812053 -0.505794 -0.315533 -0.802877 -0.485614 -0.230009 -0.843371 
0.602749 -0.460424 -0.651693 0.587628 -0.480512 -0.651001 0.580154 -0.454895 -0.675642 
0.401089 -0.647006 -0.648468 0.309987 -0.361228 -0.879445 0.109385 -0.229733 -0.967087 
0.0212015 -0.191199 -0.981322 -0.00822666 -0.211347 -0.977377 -0.119281 -0.272176 -0.954826 
-0.240724 -0.313981 -0.918405 -0.458432 -0.409019 -0.789014 -0.397543 -0.49833 -0.770471 
-0.3627 -0.376918 -0.85228 0.398387 -0.648935 -0.648206 0.243609 -0.707638 -0.663252 
0.207308 -0.565607 -0.798193 0.107682 -0.720445 -0.685101 0.0659546 -0.483806 -0.872687 
-0.0372022 -0.713476 -0.699692 -0.0379793 -0.47439 -0.879495 -0.180968 -0.668652 -0.721218 
-0.158356 -0.50667 -0.847472 -0.345972 -0.584774 -0.733718 -0.311915 -0.614843 -0.724346 
-0.30303 -0.561955 -0.769662 0.208031 0.168752 -0.963455 0.0674158 0.218574 -0.973489 
-0.01472 0.194113 -0.980869 -0.0630381 0.159092 -0.985249 0.216782 0.160551 -0.962927 
0.203228 0.157575 -0.966369 0.0347962 0.112258 -0.99307 -0.0211388 0.0944057 -0.995309 
-0.101673 0.0952014 -0.990252 -0.0496416 0.061828 -0.996852 -0.0765983 0.0815319 -0.993723 
0.264472 0.0675599 -0.962024 0.159248 0.0480936 -0.986067 0.0206235 0.0332181 -0.999235 
-0.0634372 0.0414193 -0.997126 -0.0738134 0.0591456 -0.995517 -0.0664281 0.0699704 -0.995335 
-0.0380516 0.0597577 -0.997487 -0.13306 0.0597116 -0.989308 0.261835 -0.0316446 -0.964594 
0.14333 -0.025089 -0.989357 0.0273429 -0.0688572 -0.997252 0.00402302 -0.0644693 -0.997912 
-0.0306445 0.0393867 -0.998754 -0.0747445 0.0711864 -0.994659 -0.166634 0.00735567 -0.985991 
-0.145707 0.00959701 -0.989281 0.19638 -0.129737 -0.971907 0.13787 -0.155719 -0.978133 
0.129163 -0.126946 -0.983464 -0.0024988 -0.113519 -0.993533 -0.0203428 -0.122807 -0.992222 
0.0426049 -0.120651 -0.99178 0.0452459 -0.130943 -0.990357 0.0513292 -0.121971 -0.991206 
0.0626673 -0.0944337 -0.993557 -0.0670889 -0.0475743 -0.996612 -0.202551 -0.0730206 -0.976545 
-0.202211 -0.0736283 -0.97657 -0.202204 -0.072912 -0.976626 0.0175662 -0.133862 -0.990844 
-0.0729503 -0.158312 -0.984691 -0.0606994 -0.166052 -0.984247 -0.0545639 -0.156007 -0.986248 

