# vtk DataFile Version 4.2
vtk output
ASCII
DATASET POLYDATA
POINTS 548 float
-23.1391 -40.6235 -12.8965 -30.8584 -32.9042 -16.8789 -23.1391 -32.9042 -17.5876 
-15.4198 -32.9042 -16.3584 -7.70055 -32.9042 -14.4919 -38.5776 -25.185 -17.552 
-30.8584 -25.185 -19.44 -23.1391 -25.185 -19.524 -15.4198 -25.185 -18.191 
-7.70055 -25.185 -15.6545 0.0187185 -25.185 -13.3943 -46.2969 -17.4657 -14.1567 
-38.5776 -17.4657 -19.292 -30.8584 -17.4657 -20.338 -23.1391 -17.4657 -20.3916 
-15.4198 -17.4657 -18.3414 -7.70055 -17.4657 -15.9976 0.0187185 -17.4657 -13.4889 
-46.2969 -9.74643 -17.0176 -38.5776 -9.74643 -20.1543 -30.8584 -9.74643 -20.4319 
-23.1391 -9.74643 -19.2621 -15.4198 -9.74643 -17.4433 -7.70055 -9.74643 -16.3249 
0.0187185 -9.74643 -16.2769 7.73799 -9.74643 -13.47 -46.2969 -2.02716 -18.3033 
-38.5776 -2.02716 -20.4114 -30.8584 -2.02716 -19.9381 -23.1391 -2.02716 -18.2252 
-15.4198 -2.02716 -15.7401 -7.70055 -2.02716 -17.956 0.0187185 -2.02716 -14.2466 
7.73799 -2.02716 -14.2126 15.4573 -2.02716 -14.0474 -46.2969 5.69211 -18.0659 
-38.5776 5.69211 -19.6761 -30.8584 5.69211 -19.1574 -23.1391 5.69211 -17.3147 
-15.4198 5.69211 -14.96 -7.70055 5.69211 -16.7033 0.0187185 5.69211 -14.3271 
7.73799 5.69211 -16.8984 30.8958 5.69211 -13.2715 38.6151 5.69211 -13.039 
-46.2969 13.4114 -17.07 -38.5776 13.4114 -18.5846 -30.8584 13.4114 -18.6971 
-23.1391 13.4114 -17.9614 -15.4198 13.4114 -16.7913 -7.70055 13.4114 -16.7092 
0.0187185 13.4114 -14.1136 7.73799 13.4114 -12.9153 15.4573 13.4114 -12.9892 
23.1765 13.4114 -13.6259 30.8958 13.4114 -14.4993 38.6151 13.4114 -13.9197 
-46.2969 21.1307 -14.6719 -38.5776 21.1307 -18.2536 -30.8584 21.1307 -18.4641 
-23.1391 21.1307 -18.0493 -15.4198 21.1307 -17.5493 -7.70055 21.1307 -15.8812 
0.0187185 21.1307 -13.9444 7.73799 21.1307 -12.938 15.4573 21.1307 -14.0589 
23.1765 21.1307 -14.5301 30.8958 21.1307 -15.3192 38.6151 21.1307 -14.4289 
-38.5776 28.8499 -15.9581 -30.8584 28.8499 -18.0743 -23.1391 28.8499 -17.5683 
-15.4198 28.8499 -17.243 -7.70055 28.8499 -16.0173 0.0187185 28.8499 -14.3532 
7.73799 28.8499 -13.4693 15.4573 28.8499 -13.8965 23.1765 28.8499 -14.9759 
30.8958 28.8499 -14.406 38.6151 28.8499 -15.4382 -30.8584 36.5692 -15.2352 
-23.1391 36.5692 -16.2375 -15.4198 36.5692 -16.4119 -7.70055 36.5692 -15.4913 
0.0187185 36.5692 -13.7543 15.4573 36.5692 -13.8073 23.1765 36.5692 -13.6373 
30.8958 36.5692 -13.2842 -15.4198 44.2885 -13.0253 -7.70055 44.2885 -12.7888 
-23.1391 -40.775 -12.757 -23.6413 -40.6235 -12.757 -30.8584 -38.2483 -12.757 
-30.8584 -40.6235 -9.58191 -20.9077 -40.6235 -12.757 -15.4198 -40.0709 -12.757 
-15.4198 -40.6235 -12.3925 -7.70055 -36.9422 -12.757 -7.70055 -40.6235 -10.4574 
0.0187185 -40.6235 -7.84263 7.73799 -40.6235 -5.33749 -38.0012 -32.9042 -12.757 
-38.5776 -32.395 -12.757 -38.5776 -32.9042 -12.0271 -2.96879 -32.9042 -12.757 
0.0187185 -27.947 -12.757 0.0187185 -32.9042 -11.5466 7.73799 -32.9042 -9.48337 
15.4573 -32.9042 -7.94462 23.1765 -32.9042 -6.25437 30.8958 -32.9042 -5.61643 
-43.639 -25.185 -12.757 -46.2969 -19.9288 -12.757 2.2688 -25.185 -12.757 
7.73799 -25.185 -11.243 15.4573 -25.185 -9.74497 23.1765 -25.185 -8.53555 
30.8958 -25.185 -7.68966 38.6151 -25.185 -5.2244 -47.4304 -17.4657 -12.757 
3.99918 -17.4657 -12.757 7.73799 -13.708 -12.757 7.73799 -17.4657 -12.076 
15.4573 -17.4657 -10.6375 23.1765 -17.4657 -10.1732 30.8958 -17.4657 -9.58576 
38.6151 -17.4657 -8.75094 46.3343 -17.4657 -5.66578 -50.3297 -9.74643 -12.757 
12.1866 -9.74643 -12.757 15.4573 -7.04723 -12.757 15.4573 -9.74643 -12.2267 
23.1765 -9.74643 -11.69 30.8958 -9.74643 -11.4754 38.6151 -9.74643 -10.7867 
46.3343 -9.74643 -9.66811 54.0536 -9.74643 -5.55306 -51.6667 -2.02716 -12.757 
20.4284 -2.02716 -12.757 15.4573 1.72412 -12.757 23.1765 -2.02716 -12.2276 
30.8958 0.522371 -12.757 30.8958 -2.02716 -12.5098 38.6151 3.52266 -12.757 
38.6151 -2.02716 -12.0563 46.3343 -2.02716 -10.3117 54.0536 -2.02716 -6.74221 
-52.1458 5.69211 -12.757 13.7645 5.69211 -12.757 15.4573 12.016 -12.757 
15.4573 5.69211 -11.7203 25.1453 5.69211 -12.757 23.1765 7.04971 -12.757 
23.1765 5.69211 -12.5813 41.2136 5.69211 -12.757 46.3343 5.69211 -12.1433 
54.0536 5.69211 -12.4116 -51.5576 13.4114 -12.757 44.4241 13.4114 -12.757 
46.3343 13.4114 -12.334 54.0536 13.4114 -10.908 -48.8343 21.1307 -12.757 
-46.2969 25.1991 -12.757 46.0187 21.1307 -12.757 46.3343 21.1307 -12.6707 
54.0536 21.1307 -10.8372 -43.8211 28.8499 -12.757 -46.2969 28.8499 -7.89819 
-38.5776 34.7802 -12.757 7.73799 33.9617 -12.757 43.7898 28.8499 -12.757 
38.6151 33.2807 -12.757 46.3343 28.8499 -11.6502 54.0536 28.8499 -6.62714 
-36.4423 36.5692 -12.757 -38.5776 36.5692 -10.7197 -30.8584 40.5066 -12.757 
-23.1391 43.2661 -12.757 5.54019 36.5692 -12.757 0.0187185 39.6382 -12.757 
9.46767 36.5692 -12.757 7.73799 36.5692 -12.412 15.4573 38.451 -12.757 
23.1765 38.0843 -12.757 32.3236 36.5692 -12.757 30.8958 37.3294 -12.757 
38.6151 36.5692 -10.5196 46.3343 36.5692 -7.25562 -30.8584 44.2885 -8.41716 
-18.1166 44.2885 -12.757 -23.1391 44.2885 -12.0502 -15.4198 44.7644 -12.757 
-7.52372 44.2885 -12.757 -7.70055 44.3504 -12.757 0.0187185 44.2885 -10.7804 
7.73799 44.2885 -8.2185 15.4573 44.2885 -5.86295 -30.8584 -43.3105 -5.03773 
-23.1391 -46.1295 -5.03773 -15.4198 -46.7997 -5.03773 -7.70055 -46.271 -5.03773 
-7.70055 -48.3428 1.25636 0.0187185 -43.9118 -5.03773 7.73799 -40.9624 -5.03773 
-34.8926 -40.6235 -5.03773 -38.5776 -37.3103 -5.03773 11.0576 -40.6235 -5.03773 
15.4573 -39.8882 -5.03773 15.4573 -40.6235 -4.60028 23.1765 -35.3571 -5.03773 
23.1765 -40.6235 -2.07904 30.8958 -33.845 -5.03773 30.8958 -40.6235 1.34473 
-42.0043 -32.9042 -5.03773 32.5712 -32.9042 -5.03773 38.6151 -25.7038 -5.03773 
38.6151 -32.9042 -2.01256 -45.8431 -25.185 -5.03773 -46.2969 -24.0323 -5.03773 
39.5435 -25.185 -5.03773 46.3343 -19.8319 -5.03773 46.3343 -25.185 -3.11211 
-48.7394 -17.4657 -5.03773 47.4717 -17.4657 -5.03773 54.0536 -10.7979 -5.03773 
54.0536 -17.4657 0.361263 -51.409 -9.74643 -5.03773 54.6317 -9.74643 -5.03773 
-52.8422 -2.02716 -5.03773 55.7936 -2.02716 -5.03773 -53.7361 5.69211 -5.03773 
57.5819 5.69211 -5.03773 -53.2942 13.4114 -5.03773 57.8902 13.4114 -5.03773 
-51.1213 21.1307 -5.03773 57.8897 21.1307 -5.03773 -47.289 28.8499 -5.03773 
-46.2969 30.4445 -5.03773 -46.2969 28.8499 -2.37193 55.0362 28.8499 -5.03773 
54.0536 30.2154 -5.03773 54.0536 28.8499 -3.19434 -41.9796 36.5692 -5.03773 
-38.5776 40.4335 -5.03773 23.1765 43.6098 -5.03773 30.8958 42.0928 -5.03773 
38.6151 40.7735 -5.03773 38.6151 36.5692 1.32233 47.8228 36.5692 -5.03773 
46.3343 37.6908 -5.03773 46.3343 36.5692 -3.29364 -34.0448 44.2885 -5.03773 
-30.8584 46.605 -5.03773 -30.8584 44.2885 2.13749 -23.1391 49.3973 -5.03773 
-15.4198 50.7653 -5.03773 -7.70055 50.4541 -5.03773 0.0187185 48.4787 -5.03773 
7.73799 46.5589 -5.03773 7.73799 44.2885 -0.42359 18.7596 44.2885 -5.03773 
15.4573 44.7732 -5.03773 15.4573 44.2885 -4.09225 -7.70055 -48.6463 2.68154 
-30.8584 -42.9302 2.68154 -23.1391 -46.4997 2.68154 -12.3774 -48.3428 2.68154 
-15.4198 -48.1453 2.68154 -4.94185 -48.3428 2.68154 -7.70055 -48.3428 3.83865 
0.0187185 -47.7951 2.68154 7.73799 -46.772 2.68154 15.4573 -45.8872 2.68154 
23.1765 -44.5568 2.68154 30.8958 -41.6408 2.68154 -34.1782 -40.6235 2.68154 
-38.5776 -36.1363 2.68154 -30.8584 -40.6235 6.9436 32.7941 -40.6235 2.68154 
38.6151 -37.1301 2.68154 -40.9177 -32.9042 2.68154 -38.5776 -32.9042 6.59484 
43.8392 -32.9042 2.68154 46.3343 -30.4456 2.68154 -44.5484 -25.185 2.68154 
-46.2969 -19.8223 2.68154 50.727 -25.185 2.68154 54.0536 -19.978 2.68154 
-47.0419 -17.4657 2.68154 -46.2969 -17.4657 4.08732 55.4629 -17.4657 2.68154 
54.0536 -17.4657 8.5569 -49.4069 -9.74643 2.68154 -46.2969 -9.74643 8.17442 
57.9681 -9.74643 2.68154 -50.8534 -2.02716 2.68154 -46.2969 -2.02716 9.93102 
58.9174 -2.02716 2.68154 54.0536 -2.02716 9.36359 -51.3802 5.69211 2.68154 
-46.2969 5.69211 10.0537 59.7536 5.69211 2.68154 54.0536 5.69211 8.83548 
-50.5716 13.4114 2.68154 -46.2969 13.4114 8.41785 30.8958 13.4114 10.3829 
38.6151 13.4114 10.3862 57.7369 13.4114 2.68154 54.0536 13.4114 6.10245 
-48.2177 21.1307 2.68154 -46.2969 24.9834 2.68154 -46.2969 21.1307 5.16744 
15.4573 21.1307 9.83765 23.1765 21.1307 9.56073 30.8958 21.1307 9.01169 
38.6151 21.1307 8.3732 46.3343 21.1307 6.39317 55.3472 21.1307 2.68154 
54.0536 22.4884 2.68154 54.0536 21.1307 3.98395 -44.0053 28.8499 2.68154 
-38.5776 28.8499 8.52203 7.73799 28.8499 8.76886 15.4573 28.8499 7.62517 
23.1765 28.8499 7.24434 30.8958 28.8499 7.22112 38.6151 34.5123 2.68154 
38.6151 28.8499 5.48717 49.06 28.8499 2.68154 46.3343 31.2708 2.68154 
46.3343 28.8499 5.47099 -38.9455 36.5692 2.68154 -38.5776 37.0303 2.68154 
-38.5776 36.5692 3.07522 -30.8584 44.0633 2.68154 -30.8584 36.5692 9.74692 
0.0187185 36.5692 8.2673 7.73799 41.7428 2.68154 7.73799 36.5692 6.26177 
15.4573 40.3279 2.68154 15.4573 36.5692 5.66666 23.1765 39.0453 2.68154 
23.1765 36.5692 4.65431 35.6638 36.5692 2.68154 30.8958 39.6346 2.68154 
30.8958 36.5692 4.00186 -30.5219 44.2885 2.68154 -23.1391 47.7007 2.68154 
-23.1391 44.2885 6.73969 -15.4198 48.6792 2.68154 -15.4198 44.2885 7.52427 
-7.70055 47.5065 2.68154 -7.70055 44.2885 6.21892 3.6577 44.2885 2.68154 
0.0187185 45.716 2.68154 0.0187185 44.2885 4.1288 -23.1391 -42.2238 10.4008 
-15.4198 -44.8784 10.4008 -7.70055 -45.98 10.4008 0.0187185 -46.317 10.4008 
7.73799 -46.4937 10.4008 15.4573 -46.3066 10.4008 23.1765 -45.672 10.4008 
30.8958 -42.7996 10.4008 -26.503 -40.6235 10.4008 -30.8584 -37.9206 10.4008 
-23.1391 -40.6235 11.9047 -15.4198 -40.6235 14.1947 -7.70055 -40.6235 15.2249 
0.0187185 -40.6235 15.9766 7.73799 -40.6235 16.7852 15.4573 -40.6235 17.0686 
23.1765 -40.6235 16.2253 35.1756 -40.6235 10.4008 30.8958 -40.6235 13.369 
38.6151 -38.3165 10.4008 -35.6332 -32.9042 10.4008 -38.5776 -27.6062 10.4008 
-30.8584 -32.9042 13.7951 -23.1391 -32.9042 17.032 -15.4198 -32.9042 18.0622 
44.5538 -32.9042 10.4008 38.6151 -32.9042 15.2527 46.3343 -30.2702 10.4008 
[...]
POINT_DATA 548
SCALARS ImageScalars float
LOOKUP_TABLE default
0 0 0 0 0 0 0 0 0 
0 0 0 0 0 0 0 0 0 
0 0 0 0 0 0 0 0 0 
0 0 0 0 0 0 0 0 0 
0 0 0 0 0 0 0 0 0 
0 0 0 0 0 0 0 0 0 
0 0 0 0 0 0 0 0 0 
0 0 0 0 0 0 0 0 0 
0 0 0 0 0 0 0 0 0 
0 0 0 0 0 0 0 0 0 
0 0 0 0 0 0 0 0 0 
0 0 0 0 0 0 0 0 0 
0 0 0 0 0 0 0 0 0 
0 0 0 0 0 0 0 0 0 
0 0 0 0 0 0 0 0 0 
0 0 0 0 0 0 0 0 0 
0 0 0 0 0 0 0 0 0 
0 0 0 0 0 0 0 0 0 
0 0 0 0 0 0 0 0 0 
0 0 0 0 0 0 0 0 0 
0 0 0 0 0 0 0 0 0 
0 0 0 0 0 0 0 0 0 
0 0 0 0 0 0 0 0 0 
0 0 0 0 0 0 0 0 0 
0 0 0 0 0 0 0 0 0 
0 0 0 0 0 0 0 0 0 
0 0 0 0 0 0 0 0 0 
0 0 0 0 0 0 0 0 0 
0 0 0 0 0 0 0 0 0 
0 0 0 0 0 0 0 0 0 
0 0 0 0 0 0 0 0 0 
0 0 0 0 0 0 0 0 0 
0 0 0 0 0 0 0 0 0 
0 0 0 0 0 0 0 0 0 
0 0 0 0 0 0 0 0 0 
0 0 0 0 0 0 0 0 0 
0 0 0 0 0 0 0 0 0 
0 0 0 0 0 0 0 0 0 
0 0 0 0 0 0 0 0 0 
0 0 0 0 0 0 0 0 0 
0 0 0 0 0 0 0 0 0 
0 0 0 0 0 0 0 0 0 
0 0 0 0 0 0 0 0 0 
0 0 0 0 0 0 0 0 0 
0 0 0 0 0 0 0 0 0 
0 0 0 0 0 0 0 0 0 
0 0 0 0 0 0 0 0 0 
0 0 0 0 0 0 0 0 0 
0 0 0 0 0 0 0 0 0 
0 0 0 0 0 0 0 0 0 
0 0 0 0 0 0 0 0 0 
0 0 0 0 0 0 0 0 0 
0 0 0 0 0 0 0 0 0 
0 0 0 0 0 0 0 0 0 
0 0 0 0 0 0 0 0 0 
0 0 0 0 0 0 0 0 0 
0 0 0 0 0 0 0 0 0 
0 0 0 0 0 0 0 0 0 
0 0 0 0 0 0 0 0 0 
0 0 0 0 0 0 0 0 0 
0 0 0 0 0 0 0 0 
NORMALS Normals float
0.0846448 0.685046 0.723566 0.262113 0.46043 0.848116 -0.0359057 0.35425 0.934461 
-0.199406 0.323023 0.925145 -0.280016 0.270234 0.921176 0.454213 0.361615 0.814202 
0.108724 0.202563 0.973215 -0.0736239 0.172276 0.982293 -0.247249 0.121076 0.961358 
-0.292879 0.0949396 0.951424 -0.2816 0.11547 0.952559 0.772786 0.356846 0.524846 
0.30727 0.149809 0.939757 0.0657709 0.0605308 0.995997 -0.130404 -0.0146017 0.991353 
-0.263429 -0.0479316 0.963487 -0.307569 0.0394072 0.950709 -0.239558 0.13729 0.961126 
0.584955 0.215253 0.781981 0.181259 0.0708877 0.980877 -0.0573994 -0.0258558 0.998016 
-0.192059 -0.133871 0.97221 -0.17834 -0.164288 0.970157 -0.0839193 0.0815079 0.993133 
-0.218499 0.137877 0.966048 -0.206037 0.128427 0.97008 0.49733 0.0543234 0.865859 
0.0791359 -0.0320207 0.996349 -0.135589 -0.0813162 0.987423 -0.264181 -0.122789 0.956625 
-0.0923069 -0.166253 0.981753 0.040997 0.0388232 0.998405 -0.248231 -0.192292 0.949424 
-0.0112226 0.249275 0.968368 -0.154808 0.00228527 0.987942 0.432563 -0.0886544 0.897235 
0.0525431 -0.117464 0.991686 -0.147811 -0.079405 0.985823 -0.266046 -0.015743 0.963832 
-0.0641615 0.0713021 0.995389 -0.00374123 -0.0489825 0.998793 0.037628 -0.0121861 0.999218 
-0.0820281 -0.0304109 0.996166 0.0294924 0.128165 0.991314 -0.0669426 0.120885 0.990407 
0.423136 -0.210157 0.881357 0.101878 -0.0871929 0.990968 -0.0406071 -0.0447115 0.998174 
-0.123494 0.0469825 0.991233 -0.0806523 0.165497 0.982907 -0.145188 -0.0520263 0.988035 
-0.235767 -0.0236288 0.971522 -0.0671705 -0.261728 0.962801 0.0426273 0.143277 0.988764 
0.0976177 0.128178 0.986935 0.0159573 0.130902 0.991267 -0.12877 0.0885537 0.987713 
0.556128 -0.35478 0.751567 0.237217 -0.185286 0.953623 -0.0152579 -0.0378959 0.999165 
-0.0584783 -0.0248997 0.997978 -0.133514 0.0294794 0.990608 -0.234199 -0.0428722 0.971243 
-0.185718 0.0177246 0.982443 0.0086689 0.0357259 0.999324 0.102553 0.05569 0.993167 
0.0804903 0.0826572 0.993322 -0.00598147 -0.00414498 0.999974 -0.140929 0.080706 0.986725 
0.353843 -0.336915 0.872516 0.10371 -0.210663 0.972042 -0.0501252 -0.109033 0.992773 
-0.0994427 -0.0689252 0.992653 -0.185423 -0.02219 0.982408 -0.163072 -0.00998749 0.986564 
-0.0286473 -0.0315557 0.999091 0.0937247 -0.017204 0.995449 0.0362858 -0.0778634 0.996303 
0.0192107 -0.112282 0.993491 -0.173508 -0.19128 0.966078 0.221288 -0.42182 0.879261 
0.0798948 -0.288301 0.954201 -0.0436683 -0.264825 0.963307 -0.16259 -0.220656 0.961704 
-0.190677 -0.183069 0.964431 0.0710201 -0.301181 0.950919 -0.0280986 -0.384425 0.922729 
-0.203563 -0.416226 0.886182 0.0278635 -0.478215 0.877801 -0.110676 -0.436123 0.893055 
0.0855095 0.690077 0.718667 0.101666 0.689137 0.717464 0.338514 0.645745 0.684414 
0.398935 0.778556 0.484459 0.0282476 0.662835 0.748232 -0.118676 0.574169 0.81009 
-0.110704 0.602124 0.79069 -0.274121 0.401334 0.87395 -0.24643 0.571128 0.782997 
-0.246995 0.561029 0.790088 -0.183303 0.60434 0.775353 0.562746 0.580619 0.588386 
0.58015 0.575374 0.576515 0.604804 0.588335 0.536725 -0.293671 0.29633 0.908816 
-0.289009 0.188224 0.93864 -0.298744 0.314523 0.901015 -0.219793 0.318237 0.92218 
-0.182547 0.317958 0.930365 -0.155971 0.364162 0.918182 -0.21714 0.450437 0.866 
0.756732 0.426855 0.495129 0.810731 0.379283 0.445937 -0.267007 0.125465 0.955492 
-0.22455 0.151322 0.962642 -0.165538 0.170241 0.971398 -0.133305 0.22871 0.964325 
-0.188851 0.259692 0.947046 -0.254153 0.39968 0.880717 0.824181 0.366682 0.431591 
-0.206671 0.13298 0.969331 -0.189068 0.129759 0.973353 -0.178964 0.13887 0.974006 
-0.119724 0.157401 0.98025 -0.065818 0.198252 0.977939 -0.093815 0.244517 0.965096 
-0.209798 0.312251 0.926544 -0.448055 0.33131 0.83035 0.868608 0.256489 0.423949 
-0.155617 0.170406 0.973008 -0.127258 0.131242 0.983148 -0.119583 0.203772 0.971688 
-0.0473057 0.131121 0.990237 -0.0563206 0.185303 0.981066 -0.101296 0.223177 0.9695 
-0.318689 0.256532 0.912485 -0.634289 0.283727 0.71915 0.882684 0.105416 0.457991 
-0.0968258 0.0269538 0.994936 -0.226864 -0.0509812 0.972591 -0.0730978 0.057608 0.99566 
0.00150969 0.117338 0.993091 -0.0117901 0.113121 0.993511 -0.0853452 0.12537 0.988432 
-0.133954 0.140895 0.98092 -0.289604 0.153456 0.944765 -0.665842 0.236532 0.707607 
0.888883 -0.00617333 0.458093 -0.293002 -0.0695237 0.953581 -0.00638974 0.121641 0.992554 
-0.293002 -0.0501084 0.954798 0.0806027 0.0975069 0.991966 0.0983257 0.0940486 0.9907 
0.0990994 0.0876103 0.991213 -0.0558996 0.125146 0.990562 -0.0588167 0.136918 0.988835 
-0.442065 0.198286 0.874792 0.839408 -0.165064 0.51783 -0.140476 0.0486758 0.988887 
-0.16251 0.0325936 0.986168 -0.571176 -0.039189 0.819892 0.69612 -0.39676 0.59833 
0.671885 -0.44372 0.593028 -0.201346 -0.0474163 0.978372 -0.209584 -0.0533265 0.976336 
-0.573372 -0.181398 0.798962 0.642734 -0.452339 0.61829 0.845388 -0.506134 0.17073 
0.509289 -0.534585 0.674421 0.00537995 -0.167193 0.98591 -0.323834 -0.18701 0.927447 
-0.209589 -0.42425 0.880956 -0.428599 -0.203781 0.880214 -0.851328 -0.500139 0.158434 
0.456839 -0.547146 0.701377 0.613575 -0.622496 0.485825 0.285885 -0.566597 0.772811 
0.176401 -0.561488 0.808464 -0.0353986 -0.224588 0.973811 -0.205575 -0.294889 0.933156 
0.0372136 -0.252617 0.966851 0.018364 -0.247986 0.96859 0.0492508 -0.409177 0.911125 
-0.0399596 -0.463276 0.885312 -0.221923 -0.444417 0.867896 -0.209161 -0.467543 0.858869 
-0.270475 -0.705407 0.655167 -0.551334 -0.810547 0.197595 0.439428 -0.806945 0.394643 
0.0875729 -0.51971 0.849843 0.209268 -0.6346 0.743969 0.035838 -0.489191 0.87144 
-0.113586 -0.436691 0.892412 -0.111018 -0.437817 0.892184 -0.256352 -0.611962 0.748189 
-0.266852 -0.857273 0.44031 -0.184655 -0.976154 0.114127 0.453117 0.868093 0.202732 
0.192981 0.941424 0.276549 0.017011 0.920526 0.390311 -0.153557 0.846669 0.509483 
-0.042403 0.997487 0.0567518 -0.238176 0.70911 0.663653 -0.183559 0.61558 0.766399 
0.587184 0.787353 0.18786 0.733315 0.664272 0.144884 -0.16963 0.598252 0.783147 
-0.158656 0.563854 0.810492 -0.15587 0.602191 0.782988 -0.187549 0.432252 0.882034 
-0.276163 0.662706 0.6961 -0.208098 0.484573 0.849638 -0.397631 0.774726 0.49162 
0.829903 0.547515 0.107181 -0.270515 0.430483 0.861107 -0.269129 0.393575 0.879015 
-0.508546 0.464505 0.724994 0.923371 0.382067 0.0375743 0.929421 0.36809 0.0261904 
-0.277654 0.407571 0.869939 -0.45204 0.36406 0.814322 -0.517272 0.505204 0.690796 
0.944327 0.327877 -0.0272469 -0.47923 0.345631 0.80677 -0.639776 0.30676 0.704688 
-0.806058 0.475936 0.35179 0.961489 0.266412 -0.0675572 -0.666773 0.284398 0.688863 
0.986169 0.154043 -0.0611655 -0.722527 0.178137 0.667999 0.997027 0.031779 -0.0701978 
-0.882448 0.118304 0.45529 0.984259 -0.161635 -0.0714743 -0.924892 0.0196996 0.37972 
0.925708 -0.371976 -0.0685415 -0.939021 -0.232243 0.253581 0.868801 -0.495128 -0.00569729 
0.852933 -0.521815 -0.0146261 0.842248 -0.508891 -0.177898 -0.873779 -0.481833 0.0659317 
-0.841331 -0.537431 0.0577124 -0.855682 -0.508162 -0.0978753 0.770609 -0.63648 0.032472 
0.700434 -0.711176 0.0601755 -0.173546 -0.984826 -0.000200792 -0.185399 -0.979079 0.0838522 
-0.290306 -0.954158 0.0728314 -0.422441 -0.646612 -0.635167 -0.581476 -0.81313 -0.026557 
-0.532964 -0.845291 -0.0378598 -0.5287 -0.825548 -0.19735 0.573027 -0.812524 0.106979 
0.493855 -0.858774 0.136435 0.507796 -0.734033 -0.450932 0.247003 -0.960017 0.131745 
0.0707733 -0.993006 0.0945011 -0.168997 -0.982643 0.0765005 -0.249272 -0.966189 0.0658962 
-0.263154 -0.960799 0.087262 -0.334106 -0.84742 -0.412616 -0.183342 -0.982862 0.0191614 
-0.191204 -0.980819 0.0378869 -0.19649 -0.979996 -0.0316108 -0.0227869 0.999442 -0.0244169 
0.511854 0.8262 -0.23537 0.300534 0.935541 -0.185589 0.0708603 0.99585 -0.0571104 
0.130723 0.988274 -0.0789108 -0.0549524 0.998281 0.0203814 -0.0106517 0.995462 -0.0945606 
-0.114481 0.987981 0.103859 -0.127252 0.959442 0.251551 -0.136812 0.934861 0.327594 
-0.276105 0.863771 0.421505 -0.43435 0.803942 0.406223 0.607777 0.75763 -0.237916 
0.758311 0.59487 -0.266635 0.491904 0.747217 -0.446874 -0.45897 0.806022 0.373731 
-0.527869 0.795561 0.297383 0.815619 0.505447 -0.281583 0.747094 0.477382 -0.462554 
-0.635158 0.675357 0.37479 -0.691007 0.647155 0.322025 0.888107 0.334455 -0.315286 
0.897785 0.293694 -0.328217 -0.784873 0.575078 0.230781 -0.851444 0.486682 0.195407 
0.898228 0.282271 -0.336913 0.881074 0.276482 -0.383753 -0.883688 0.441009 0.156865 
-0.867433 0.308366 -0.390474 0.897965 0.22927 -0.375626 0.801415 0.195301 -0.565325 
-0.975746 0.217257 -0.0268036 0.90792 0.124025 -0.400373 0.759024 0.066095 -0.647699 
-0.975491 0.115751 -0.187134 -0.620297 -0.0767534 -0.780602 0.895902 -0.0162585 -0.443954 
0.73686 -0.0663633 -0.672781 -0.943068 -0.0770157 -0.32356 -0.545991 -0.204936 -0.812339 
0.854488 -0.188611 -0.484021 0.714684 -0.209139 -0.667448 -0.02589 -0.249589 -0.968006 
0.0456629 -0.278965 -0.959215 -0.890383 -0.213675 -0.401946 -0.652604 -0.235928 -0.720032 
0.804057 -0.337022 -0.489804 0.748148 -0.420357 -0.513395 0.71662 -0.359732 -0.597536 
-0.191751 -0.342826 -0.91962 -0.0505264 -0.225847 -0.972852 -0.0812408 -0.194895 -0.977454 
-0.13953 -0.28005 -0.949791 -0.268229 -0.353045 -0.896333 -0.601589 -0.547113 -0.582029 
-0.582619 -0.570127 -0.579233 -0.542155 -0.50989 -0.667892 0.709735 -0.464973 -0.529223 
0.558895 -0.385848 -0.734001 -0.217881 -0.348119 -0.911779 -0.1016 -0.293291 -0.950609 
-0.0253629 -0.333532 -0.942397 -0.107527 -0.371444 -0.922208 -0.33268 -0.515823 -0.789462 
-0.107547 -0.383611 -0.917211 -0.503319 -0.501299 -0.703824 -0.395388 -0.555471 -0.731519 
-0.325466 -0.443325 -0.835185 0.674116 -0.541812 -0.502003 0.668438 -0.551632 -0.498891 
0.664859 -0.536996 -0.519228 0.50141 -0.711013 -0.492999 0.395497 -0.458735 -0.795704 
-0.249721 -0.412291 -0.87616 -0.274091 -0.615649 -0.738817 -0.178009 -0.463287 -0.868146 
-0.132537 -0.691079 -0.710524 -0.103738 -0.452617 -0.88565 -0.0576534 -0.642628 -0.764006 
-0.114491 -0.518175 -0.847577 -0.32689 -0.493019 -0.806272 -0.123347 -0.620425 -0.774505 
-0.157623 -0.426182 -0.890799 0.491054 -0.719209 -0.491533 0.23714 -0.87868 -0.414351 
0.240961 -0.666398 -0.705586 4.91174e-05 -0.890014 -0.455932 -0.0207656 -0.629857 -0.776433 
-0.191295 -0.799929 -0.568788 -0.199373 -0.669928 -0.715155 -0.290052 -0.692345 -0.660703 
-0.250483 -0.764649 -0.593776 -0.272706 -0.68259 -0.678014 0.30786 0.693323 -0.651556 
0.185969 0.777898 -0.600241 0.0740087 0.820792 -0.566412 0.0280136 0.887938 -0.459108 
-0.00199279 0.94377 -0.330597 -0.0500384 0.965396 -0.255943 -0.220496 0.951145 -0.216113 
-0.410547 0.879607 -0.240298 0.365633 0.667151 -0.649017 0.457914 0.601303 -0.65479 
0.294677 0.63884 -0.710668 0.174608 0.578836 -0.796531 0.0971784 0.558718 -0.823645 
0.085117 0.531322 -0.842883 0.0602025 0.513529 -0.855958 -0.0276996 0.540534 -0.840866 
-0.193588 0.614373 -0.764899 -0.504732 0.832712 -0.227677 -0.379604 0.777072 -0.502056 
-0.590914 0.765615 -0.254275 0.602994 0.435521 -0.668371 0.672224 0.339776 -0.657775 
0.452269 0.412624 -0.790693 0.238129 0.396675 -0.886535 0.102582 0.336961 -0.935914 
-0.736013 0.594382 -0.324029 -0.521139 0.44381 -0.729004 -0.75758 0.534848 -0.37418 
0.687579 0.300284 -0.661109 0.653652 0.296533 -0.696281 0.415136 0.216893 -0.883527 
-0.326057 0.163363 -0.931128 -0.771082 0.417133 -0.481074 -0.664921 0.287868 -0.689211 
0.717739 0.224499 -0.659128 0.577515 0.193179 -0.793195 0.34392 0.108196 -0.932745 
-0.325749 -0.078102 -0.942225 -0.793015 0.23463 -0.562207 -0.476104 0.0811087 -0.875641 
-0.735759 0.0774511 -0.6728 0.724757 0.170729 -0.667517 0.503811 0.119595 -0.855495 
-0.0942157 -0.218115 -0.971365 -0.0802732 -0.220608 -0.972054 -0.141315 -0.216908 -0.965909 
-0.363281 -0.0924305 -0.927083 -0.684883 -0.0193552 -0.728396 -0.646153 -0.0413219 -0.762089 
-0.669196 -0.0256147 -0.742645 0.740762 0.0628194 -0.668824 0.465454 0.0439029 -0.883982 
-0.188567 -0.277093 -0.942158 -0.109053 -0.282974 -0.952908 -0.157348 -0.2393 -0.958111 
-0.497017 -0.12948 -0.858026 -0.310173 -0.229084 -0.922666 0.723182 -0.0696376 -0.687137 
0.449419 -0.0935019 -0.888414 0.0167269 -0.0934564 -0.995483 -0.0233672 -0.0325558 -0.999197 
-0.200267 -0.352657 -0.914071 -0.0258619 -0.249766 -0.967961 -0.0347952 -0.303846 -0.952086 
0.044653 -0.278687 -0.959343 -0.123875 -0.247667 -0.960893 -0.285793 -0.113512 -0.951545 
-0.23526 -0.0948653 -0.967292 0.627017 -0.229903 -0.744308 0.43547 -0.263558 -0.860757 
0.193835 -0.228677 -0.95401 0.00665033 -0.17613 -0.984345 -0.0851685 -0.100409 -0.991294 
-0.0126274 -0.252862 -0.96742 0.111071 -0.258281 -0.959664 -0.25762 -0.352716 -0.899569 
-0.530381 -0.394367 -0.750447 -0.029756 -0.247929 -0.968321 -0.0933898 -0.216706 -0.97176 
-0.127421 -0.219968 -0.967149 0.0395009 -0.277714 -0.959851 -0.287711 -0.199126 -0.936788 
-0.231739 -0.221078 -0.947323 -0.24997 -0.20815 -0.945615 0.508434 -0.315621 -0.801173 
0.502431 -0.332011 -0.79833 0.483959 -0.309216 -0.818639 0.26627 -0.283496 -0.921265 
0.064188 -0.214648 -0.97458 -0.0643786 -0.157928 -0.98535 -0.125198 -0.193998 -0.97298 
-0.109991 -0.364906 -0.924525 -0.211227 -0.395681 -0.893767 -0.234117 -0.428129 -0.872866 
-0.203861 -0.566498 -0.798449 0.43113 -0.334855 -0.837854 0.368533 -0.411915 -0.833373 
0.308101 -0.292384 -0.90531 0.144719 -0.262667 -0.953972 -0.0611426 -0.249175 -0.966526 
-0.212756 -0.267146 -0.939876 -0.257958 -0.329617 -0.908191 -0.264939 -0.344403 -0.900663 
-0.273772 -0.330334 -0.903288 0.304551 -0.440794 -0.844364 0.147837 -0.442389 -0.884554 
0.129458 -0.414633 -0.900733 -0.0282345 -0.457488 -0.888767 -0.0535699 -0.401144 -0.914447 
-0.229803 -0.370096 -0.900122 -0.227693 -0.384367 -0.894661 -0.228485 -0.367658 -0.901456 
0.0631086 0.332436 -0.941012 0.0556442 0.32254 -0.944919 0.0788688 0.36249 -0.928644 
-0.0183679 0.425283 -0.904874 -0.138142 0.352125 -0.925702 -0.233432 0.310459 -0.92148 
0.228409 0.289223 -0.929613 0.0985917 0.332501 -0.937935 0.101102 0.331654 -0.937968 
0.0512018 0.280949 -0.958356 0.0443424 0.260296 -0.96451 0.0910073 0.250458 -0.963841 
0.0071687 0.220067 -0.975459 -0.113214 0.202759 -0.972662 -0.27101 0.273955 -0.922769 
-0.218457 0.245533 -0.944452 0.299264 0.183565 -0.936347 0.218351 0.161697 -0.962381 
0.0622806 0.146133 -0.987302 0.0247759 0.118033 -0.992701 0.0531849 0.105846 -0.992959 
0.0253065 0.0977696 -0.994887 -0.0543051 -0.000381633 -0.998524 -0.118811 0.000152241 -0.992917 
-0.255353 0.100851 -0.961574 -0.15258 0.0195341 -0.988098 0.311082 0.0877132 -0.946327 
0.244485 0.0684302 -0.967235 0.168047 0.010569 -0.985722 0.0556013 -0.0272115 -0.998082 
0.00641428 -0.0294969 -0.999544 0.0292121 -0.0563604 -0.997983 -0.022542 -0.0314708 -0.99925 
-0.0931627 -0.117728 -0.988666 -0.0930186 -0.205246 -0.97428 -0.0767389 -0.148521 -0.985927 
-0.310859 -0.0801624 -0.947069 -0.0910218 -0.168432 -0.981502 -0.10017 -0.104561 -0.989461 
0.235586 0.0641212 -0.969736 0.230556 0.0629249 -0.971022 0.0900282 -0.0283064 -0.995537 
0.0207936 -0.139697 -0.989976 -0.00490018 -0.0739085 -0.997253 0.0531389 -0.0964479 -0.993919 
-0.0345574 -0.145974 -0.988685 -0.116825 -0.191462 -0.974523 -0.174829 -0.121165 -0.977115 
0.258114 0.0284548 -0.965695 0.195853 0.0257456 -0.980295 -0.0246994 -0.0359246 -0.999049 
0.00771331 -0.118334 -0.992944 0.00289475 -0.129005 -0.99164 0.0536937 -0.0204473 -0.998348 
-0.0497966 -0.0622227 -0.996819 -0.0276079 -0.113255 -0.993182 -0.0471387 -0.190248 -0.980604 
-0.167439 -0.068926 -0.98347 -0.164498 -0.0406784 -0.985538 0.211373 -0.113491 -0.970794 
0.167356 -0.145278 -0.975134 0.158777 -0.117307 -0.980321 -0.0189826 -0.0998816 -0.994818 
-0.0229577 -0.148546 -0.988639 -0.0647818 -0.106426 -0.992208 0.0369249 -0.138042 -0.989738 
0.0370298 -0.24282 -0.969364 0.0812101 -0.225201 -0.970922 -0.0797911 -0.116739 -0.989952 
-0.0640942 -0.192436 -0.979214 -0.122684 -0.172394 -0.977358 -0.248793 -0.119196 -0.961194 
-0.0181517 -0.146478 -0.989047 -0.339884 -0.165106 -0.925861 -0.371747 -0.185996 -0.909511 
-0.336244 -0.150064 -0.929742 0.00384139 -0.20689 -0.978357 -0.0931536 -0.226357 -0.96958 
-0.0271515 -0.224953 -0.973991 -0.0182461 -0.194029 -0.980826 
