# vtk DataFile Version 4.2
vtk output
ASCII
DATASET POLYDATA
POINTS 511 float
-14.2508 -37.2634 -14.7082 -6.49029 -37.2634 -15.5689 1.27018 -37.2634 -15.9988 
9.03065 -37.2634 -15.5392 -29.7717 -29.5029 -15.6867 -22.0112 -29.5029 -16.8982 
-14.2508 -29.5029 -17.836 -6.49029 -29.5029 -18.2383 1.27018 -29.5029 -18.5176 
9.03065 -29.5029 -17.6998 16.7911 -29.5029 -16.7791 24.5516 -29.5029 -15.9947 
32.3121 -29.5029 -14.1831 -37.5322 -21.7424 -15.708 -29.7717 -21.7424 -17.5142 
-22.0112 -21.7424 -18.089 -14.2508 -21.7424 -18.3174 -6.49029 -21.7424 -18.9877 
1.27018 -21.7424 -19.0346 9.03065 -21.7424 -18.2495 16.7911 -21.7424 -17.3733 
24.5516 -21.7424 -17.4434 32.3121 -21.7424 -17.0987 40.0725 -21.7424 -15.2362 
-45.2926 -13.982 -14.5042 -37.5322 -13.982 -17.3218 -29.7717 -13.982 -18.2957 
-22.0112 -13.982 -17.9018 -14.2508 -13.982 -18.0636 -6.49029 -13.982 -18.6328 
1.27018 -13.982 -18.9122 9.03065 -13.982 -17.7827 16.7911 -13.982 -16.8663 
24.5516 -13.982 -17.5326 32.3121 -13.982 -18.2384 40.0725 -13.982 -17.8356 
47.833 -13.982 -14.7488 -45.2926 -6.22149 -15.101 -37.5322 -6.22149 -17.6685 
-29.7717 -6.22149 -18.1949 -22.0112 -6.22149 -17.8367 -14.2508 -6.22149 -19.31 
-6.49029 -6.22149 -19.7047 1.27018 -6.22149 -17.1061 9.03065 -6.22149 -18.7122 
16.7911 -6.22149 -16.2137 24.5516 -6.22149 -17.6261 32.3121 -6.22149 -18.4891 
40.0725 -6.22149 -18.2383 47.833 -6.22149 -16.2279 -45.2926 1.53898 -15.7689 
-37.5322 1.53898 -18.0807 -29.7717 1.53898 -18.3293 -22.0112 1.53898 -17.5427 
-14.2508 1.53898 -18.5326 -6.49029 1.53898 -20.5351 1.27018 1.53898 -15.7064 
9.03065 1.53898 -18.4296 16.7911 1.53898 -15.5156 24.5516 1.53898 -17.3574 
32.3121 1.53898 -18.407 40.0725 1.53898 -18.3732 47.833 1.53898 -16.6128 
-45.2926 9.29945 -15.7836 -37.5322 9.29945 -18.0581 -29.7717 9.29945 -18.3769 
-22.0112 9.29945 -17.3601 -14.2508 9.29945 -16.3366 -6.49029 9.29945 -18.2952 
1.27018 9.29945 -18.8001 9.03065 9.29945 -17.6971 16.7911 9.29945 -16.3545 
24.5516 9.29945 -17.7628 32.3121 9.29945 -18.7328 40.0725 9.29945 -18.1871 
47.833 9.29945 -16.0471 -45.2926 17.0599 -15.0017 -37.5322 17.0599 -17.8902 
-29.7717 17.0599 -19.154 -22.0112 17.0599 -18.2365 -14.2508 17.0599 -17.5923 
-6.49029 17.0599 -17.4582 1.27018 17.0599 -18.0804 9.03065 17.0599 -18.8361 
16.7911 17.0599 -18.6742 24.5516 17.0599 -18.558 32.3121 17.0599 -18.5223 
40.0725 17.0599 -18.3769 47.833 17.0599 -15.7938 -37.5322 24.8204 -16.5011 
-29.7717 24.8204 -17.8369 -22.0112 24.8204 -18.3955 -14.2508 24.8204 -18.8024 
-6.49029 24.8204 -18.3685 1.27018 24.8204 -18.3925 9.03065 24.8204 -18.8945 
16.7911 24.8204 -19.5296 24.5516 24.8204 -19.7591 32.3121 24.8204 -17.8742 
40.0725 24.8204 -16.334 -29.7717 32.5809 -16.3658 -22.0112 32.5809 -17.5008 
-14.2508 32.5809 -18.6905 -6.49029 32.5809 -18.4497 1.27018 32.5809 -17.8312 
9.03065 32.5809 -17.7647 16.7911 32.5809 -18.1191 24.5516 32.5809 -17.5037 
32.3121 32.5809 -15.9025 -22.0112 40.3413 -15.6271 -14.2508 40.3413 -16.4872 
-6.49029 40.3413 -15.7854 1.27018 40.3413 -14.8709 -14.2508 -38.0619 -14.077 
-6.49029 -39.1915 -14.077 1.27018 -39.8197 -14.077 9.03065 -39.2675 -14.077 
-29.7717 -32.1732 -14.077 -29.7717 -37.2634 -9.14032 -20.4496 -37.2634 -14.077 
-22.0112 -36.8685 -14.077 -22.0112 -37.2634 -13.8085 16.5561 -37.2634 -14.077 
16.7911 -37.137 -14.077 16.7911 -37.2634 -14.0205 24.5516 -34.2747 -14.077 
24.5516 -37.2634 -12.1655 32.3121 -29.6892 -14.077 32.3121 -37.2634 -8.04501 
-34.2526 -29.5029 -14.077 -37.5322 -26.2838 -14.077 -37.5322 -29.5029 -12.4086 
32.6311 -29.5029 -14.077 40.0725 -24.2583 -14.077 40.0725 -29.5029 -10.6794 
-40.7589 -21.7424 -14.077 -45.2926 -15.2891 -14.077 -45.2926 -21.7424 -10.706 
42.3317 -21.7424 -14.077 47.833 -15.5362 -14.077 47.833 -21.7424 -9.64003 
-45.8424 -13.982 -14.077 48.7618 -13.982 -14.077 -46.6605 -6.22149 -14.077 
51.2855 -6.22149 -14.077 55.5935 -6.22149 -8.95793 -47.6058 1.53898 -14.077 
-53.0531 1.53898 -6.5812 52.1128 1.53898 -14.077 55.5935 1.53898 -10.6249 
-47.3527 9.29945 -14.077 51.3302 9.29945 -14.077 55.5935 9.29945 -10.2293 
-46.3942 17.0599 -14.077 -45.2926 19.5741 -14.077 50.3888 17.0599 -14.077 
47.833 21.5553 -14.077 55.5935 17.0599 -7.70497 -41.7011 24.8204 -14.077 
-45.2926 24.8204 -10.3456 -37.5322 30.3702 -14.077 44.7388 24.8204 -14.077 
40.0725 30.1243 -14.077 47.833 24.8204 -11.8832 -35.2121 32.5809 -14.077 
-37.5322 32.5809 -12.4495 -29.7717 36.511 -14.077 9.03065 38.7763 -14.077 
16.7911 38.4083 -14.077 24.5516 37.5718 -14.077 37.1334 32.5809 -14.077 
32.3121 34.9566 -14.077 40.0725 32.5809 -12.2607 -25.3886 40.3413 -14.077 
-29.7717 40.3413 -10.0073 -22.0112 42.1666 -14.077 -14.2508 43.2778 -14.077 
-6.49029 42.6244 -14.077 4.67475 40.3413 -14.077 1.27018 41.3406 -14.077 
9.03065 40.3413 -12.1636 16.7911 40.3413 -10.5038 24.5516 40.3413 -8.61555 
-29.7717 -39.0477 -6.3165 -22.0112 -41.6085 -6.3165 -14.2508 -43.0952 -6.3165 
-6.49029 -43.9807 -6.3165 1.27018 -44.5978 -6.3165 9.03065 -44.5186 -6.3165 
16.7911 -43.5236 -6.3165 24.5516 -41.567 -6.3165 32.3121 -38.5241 -6.3165 
-33.4426 -37.2634 -6.3165 -37.5322 -34.8383 -6.3165 34.4096 -37.2634 -6.3165 
40.0725 -33.2888 -6.3165 -43.5067 -29.5029 -6.3165 -45.2926 -27.1964 -6.3165 
44.1599 -29.5029 -6.3165 47.833 -25.0892 -6.3165 -48.4489 -21.7424 -6.3165 
50.0561 -21.7424 -6.3165 -51.4498 -13.982 -6.3165 54.3129 -13.982 -6.3165 
55.5935 -10.283 -6.3165 -52.7125 -6.22149 -6.3165 -53.0531 -0.609835 -6.3165 
56.8639 -6.22149 -6.3165 -53.1816 1.53898 -6.3165 -53.0531 2.59909 -6.3165 
-53.0531 1.53898 -4.41511 57.8722 1.53898 -6.3165 -52.2412 9.29945 -6.3165 
57.847 9.29945 -6.3165 -50.6866 17.0599 -6.3165 56.3714 17.0599 -6.3165 
55.5935 18.6045 -6.3165 55.5935 17.0599 -2.17903 -47.6226 24.8204 -6.3165 
-45.2926 28.2817 -6.3165 51.7745 24.8204 -6.3165 47.833 29.6691 -6.3165 
-41.9174 32.5809 -6.3165 -37.5322 37.0494 -6.3165 32.3121 39.8496 -6.3165 
44.7289 32.5809 -6.3165 40.0725 35.9112 -6.3165 -33.089 40.3413 -6.3165 
-29.7717 42.3962 -6.3165 -22.0112 46.2473 -6.3165 -14.2508 47.9575 -6.3165 
-6.49029 47.4593 -6.3165 1.27018 45.6189 -6.3165 9.03065 43.2328 -6.3165 
16.7911 41.8029 -6.3165 29.518 40.3413 -6.3165 24.5516 41.135 -6.3165 
24.5516 40.3413 -2.702 -29.7717 -39.4608 1.44397 -22.0112 -41.7997 1.44397 
-14.2508 -43.0593 1.44397 -6.49029 -43.8772 1.44397 1.27018 -44.4801 1.44397 
9.03065 -44.6856 1.44397 16.7911 -44.0367 1.44397 24.5516 -42.4907 1.44397 
32.3121 -39.3467 1.44397 -34.4379 -37.2634 1.44397 -37.5322 -35.5253 1.44397 
-29.7717 -37.2634 8.60309 35.6665 -37.2634 1.44397 32.3121 -37.2634 6.5039 
40.0725 -33.8163 1.44397 -44.2 -29.5029 1.44397 -45.2926 -28.1602 1.44397 
44.3502 -29.5029 1.44397 40.0725 -29.5029 8.71378 47.833 -24.5006 1.44397 
-49.2629 -21.7424 1.44397 49.4991 -21.7424 1.44397 47.833 -21.7424 4.61549 
-52.0501 -13.982 1.44397 53.1797 -13.982 1.44397 55.5935 -7.19452 1.44397 
-52.7992 -6.22149 1.44397 55.9935 -6.22149 1.44397 55.5935 -6.22149 2.12483 
-52.6777 1.53898 1.44397 57.1407 1.53898 1.44397 55.5935 1.53898 3.93083 
-51.7985 9.29945 1.44397 56.9778 9.29945 1.44397 55.5935 14.1335 1.44397 
55.5935 9.29945 3.56448 -49.7682 17.0599 1.44397 54.7805 17.0599 1.44397 
-46.4458 24.8204 1.44397 -45.2926 26.6736 1.44397 -45.2926 24.8204 4.07766 
50.1977 24.8204 1.44397 47.833 27.503 1.44397 47.833 24.8204 4.38858 
-40.7081 32.5809 1.44397 -37.5322 35.6056 1.44397 -37.5322 32.5809 6.33267 
24.5516 39.3688 1.44397 32.3121 37.6213 1.44397 32.3121 32.5809 7.93259 
42.1786 32.5809 1.44397 40.0725 34.3013 1.44397 40.0725 32.5809 3.49427 
-30.8218 40.3413 1.44397 -29.7717 40.9796 1.44397 -29.7717 40.3413 2.51039 
-22.0112 44.5875 1.44397 -22.0112 40.3413 7.73665 -14.2508 46.3563 1.44397 
-6.49029 45.8989 1.44397 -6.49029 40.3413 8.17474 1.27018 43.8672 1.44397 
1.27018 40.3413 6.13015 9.03065 41.8735 1.44397 9.03065 40.3413 3.70198 
17.042 40.3413 1.44397 16.7911 40.3741 1.44397 16.7911 40.3413 1.49883 
-22.0112 -39.3798 9.20444 -14.2508 -40.4785 9.20444 -6.49029 -41.0727 9.20444 
1.27018 -41.6669 9.20444 9.03065 -41.8778 9.20444 16.7911 -41.2551 9.20444 
24.5516 -39.3688 9.20444 -37.5322 -32.7834 9.20444 -29.1495 -37.2634 9.20444 
-29.7717 -37.0576 9.20444 -22.0112 -37.2634 12.3688 -14.2508 -37.2634 13.6733 
-6.49029 -37.2634 14.1914 1.27018 -37.2634 14.5073 9.03065 -37.2634 14.7071 
16.7911 -37.2634 13.9496 29.4315 -37.2634 9.20444 24.5516 -37.2634 11.6654 
32.3121 -35.6612 9.20444 -41.3857 -29.5029 9.20444 -45.2926 -25.0492 9.20444 
-37.5322 -29.5029 13.5587 24.5516 -29.5029 16.7388 39.6744 -29.5029 9.20444 
32.3121 -29.5029 14.1414 40.0725 -29.013 9.20444 -47.4984 -21.7424 9.20444 
-45.2926 -21.7424 13.0082 32.3121 -21.7424 16.8382 44.7802 -21.7424 9.20444 
40.0725 -21.7424 13.2178 47.833 -16.157 9.20444 -50.4814 -13.982 9.20444 
40.0725 -13.982 15.9074 48.8336 -13.982 9.20444 47.833 -13.982 10.2867 
-51.3433 -6.22149 9.20444 51.1737 -6.22149 9.20444 47.833 -6.22149 12.5455 
-50.9289 1.53898 9.20444 51.977 1.53898 9.20444 47.833 1.53898 13.151 
-49.6493 9.29945 9.20444 -45.2926 9.29945 16.6765 40.0725 9.29945 16.1703 
51.1303 9.29945 9.20444 47.833 9.29945 12.0585 -46.9794 17.0599 9.20444 
-45.2926 20.462 9.20444 -45.2926 17.0599 11.829 -6.49029 17.0599 16.6124 
1.27018 17.0599 15.61 9.03065 17.0599 16.5004 16.7911 17.0599 16.7123 
24.5516 17.0599 16.5079 32.3121 17.0599 15.4657 40.0725 17.0599 13.5033 
48.7741 17.0599 9.20444 47.833 18.4361 9.20444 47.833 17.0599 9.97335 
-42.4934 24.8204 9.20444 -37.5322 30.4604 9.20444 -37.5322 24.8204 13.9852 
-14.2508 24.8204 16.4276 -6.49029 24.8204 14.4537 1.27018 24.8204 13.7378 
9.03065 24.8204 14.2501 16.7911 24.8204 14.6083 24.5516 24.8204 14.1164 
32.3121 30.9378 9.20444 32.3121 24.8204 12.5546 42.2052 24.8204 9.20444 
40.0725 26.6822 9.20444 40.0725 24.8204 10.4904 -34.601 32.5809 9.20444 
-29.7717 35.5782 9.20444 -29.7717 32.5809 11.9796 -22.0112 38.9362 9.20444 
-22.0112 32.5809 13.7235 -14.2508 32.5809 13.452 -6.49029 38.7489 9.20444 
-6.49029 32.5809 12.5279 1.27018 36.6723 9.20444 1.27018 32.5809 11.5176 
[...]
POINT_DATA 511
SCALARS ImageScalars float
LOOKUP_TABLE default
0 0 0 0 0 0 0 0 0 
0 0 0 0 0 0 0 0 0 
0 0 0 0 0 0 0 0 0 
0 0 0 0 0 0 0 0 0 
0 0 0 0 0 0 0 0 0 
0 0 0 0 0 0 0 0 0 
0 0 0 0 0 0 0 0 0 
0 0 0 0 0 0 0 0 0 
0 0 0 0 0 0 0 0 0 
0 0 0 0 0 0 0 0 0 
0 0 0 0 0 0 0 0 0 
0 0 0 0 0 0 0 0 0 
0 0 0 0 0 0 0 0 0 
0 0 0 0 0 0 0 0 0 
0 0 0 0 0 0 0 0 0 
0 0 0 0 0 0 0 0 0 
0 0 0 0 0 0 0 0 0 
0 0 0 0 0 0 0 0 0 
0 0 0 0 0 0 0 0 0 
0 0 0 0 0 0 0 0 0 
0 0 0 0 0 0 0 0 0 
0 0 0 0 0 0 0 0 0 
0 0 0 0 0 0 0 0 0 
0 0 0 0 0 0 0 0 0 
0 0 0 0 0 0 0 0 0 
0 0 0 0 0 0 0 0 0 
0 0 0 0 0 0 0 0 0 
0 0 0 0 0 0 0 0 0 
0 0 0 0 0 0 0 0 0 
0 0 0 0 0 0 0 0 0 
0 0 0 0 0 0 0 0 0 
0 0 0 0 0 0 0 0 0 
0 0 0 0 0 0 0 0 0 
0 0 0 0 0 0 0 0 0 
0 0 0 0 0 0 0 0 0 
0 0 0 0 0 0 0 0 0 
0 0 0 0 0 0 0 0 0 
0 0 0 0 0 0 0 0 0 
0 0 0 0 0 0 0 0 0 
0 0 0 0 0 0 0 0 0 
0 0 0 0 0 0 0 0 0 
0 0 0 0 0 0 0 0 0 
0 0 0 0 0 0 0 0 0 
0 0 0 0 0 0 0 0 0 
0 0 0 0 0 0 0 0 0 
0 0 0 0 0 0 0 0 0 
0 0 0 0 0 0 0 0 0 
0 0 0 0 0 0 0 0 0 
0 0 0 0 0 0 0 0 0 
0 0 0 0 0 0 0 0 0 
0 0 0 0 0 0 0 0 0 
0 0 0 0 0 0 0 0 0 
0 0 0 0 0 0 0 0 0 
0 0 0 0 0 0 0 0 0 
0 0 0 0 0 0 0 0 0 
0 0 0 0 0 0 0 0 0 
0 0 0 0 0 0 0 
NORMALS Normals float
-0.0981572 -0.574807 -0.81238 -0.0794889 -0.526772 -0.846282 0.002953 -0.50292 -0.864328 
0.108423 -0.477628 -0.871846 -0.237668 -0.377334 -0.89506 -0.131731 -0.248246 -0.959698 
-0.0810441 -0.208682 -0.97462 -0.0439544 -0.203653 -0.978056 0.0346719 -0.184228 -0.982272 
0.107333 -0.165273 -0.98039 0.112133 -0.180956 -0.977078 0.1483 -0.279617 -0.948589 
0.265218 -0.455709 -0.849699 -0.34135 -0.280133 -0.897221 -0.139014 -0.156406 -0.977861 
-0.0498864 -0.0596185 -0.996974 -0.0578308 -0.0153154 -0.998209 -0.046285 -0.0240102 -0.99864 
0.0471705 -0.0241236 -0.998596 0.106212 -0.00569689 -0.994327 0.0526888 -0.00392822 -0.998603 
0.0203097 -0.103704 -0.994401 0.123696 -0.226598 -0.966102 0.352015 -0.345846 -0.869756 
-0.560115 -0.18697 -0.80704 -0.23474 -0.10958 -0.965862 -0.0397956 -0.0398682 -0.998412 
0.017549 0.0164953 -0.99971 -0.0471339 -0.0530434 -0.997479 -0.0544179 -0.0383099 -0.997783 
0.0520393 0.109049 -0.992673 0.13612 -0.0245003 -0.990389 0.0141587 0.0733939 -0.997203 
-0.0874398 -0.0112456 -0.996106 -0.0229823 -0.0975883 -0.994961 0.214931 -0.177401 -0.960382 
0.509937 -0.278351 -0.813932 -0.493343 -0.0773586 -0.866388 -0.17461 -0.0493441 -0.9834 
-0.00975711 -0.00159916 -0.999951 -0.0587558 0.0230891 -0.998005 -0.131796 -0.0445429 -0.990276 
0.139092 -0.123944 -0.982492 0.0621856 0.204029 -0.976988 0.0764226 -0.0473532 -0.99595 
0.0592637 0.0878876 -0.994366 -0.149507 0.0100308 -0.98871 -0.0364688 -0.0105049 -0.99928 
0.130986 -0.0315137 -0.990883 0.403666 -0.118093 -0.907253 -0.464286 -0.0405244 -0.884758 
-0.146055 -0.0247752 -0.988966 0.0350941 -0.0117101 -0.999315 -0.000627767 0.0306881 -0.999529 
-0.19131 0.213749 -0.957973 0.1556 0.0981029 -0.982937 0.126878 -0.1448 -0.981292 
0.0689466 0.0670058 -0.995368 0.0424849 -0.0081843 -0.999064 -0.191073 -0.0100777 -0.981524 
-0.0597843 -0.0156902 -0.998088 0.104105 0.00341141 -0.99456 0.361985 0.0107926 -0.932121 
-0.516929 0.0502309 -0.854553 -0.144502 0.0132907 -0.989415 0.0454577 -0.0513359 -0.997646 
0.130373 -0.0443696 -0.990472 -0.0457102 0.0345439 -0.998357 -0.173671 0.182275 -0.967788 
0.033075 -0.10059 -0.994378 0.17086 -0.0391368 -0.984518 -0.0165316 -0.206778 -0.978248 
-0.152786 -0.0759161 -0.985339 -0.0276236 -0.00760048 -0.99959 0.154795 0.00106402 -0.987946 
0.377703 0.0513239 -0.924503 -0.598686 0.215551 -0.771436 -0.240523 0.08315 -0.967075 
-0.0310585 0.0337717 -0.998947 0.0978187 -0.0661614 -0.993003 0.0494461 -0.156896 -0.986377 
-0.0317009 -0.0118212 -0.999427 -0.0881722 0.0260159 -0.995765 -0.0381457 -0.066796 -0.997037 
0.0178602 -0.200178 -0.979597 0.00965278 -0.123837 -0.992256 0.0106901 0.0547742 -0.998442 
0.18228 0.101439 -0.978 0.453609 0.168364 -0.875153 -0.347809 0.304916 -0.886598 
-0.108236 0.160601 -0.981067 -0.0602411 0.0445373 -0.99719 0.0017176 -0.0709011 -0.997482 
0.0262787 -0.0628823 -0.997675 -0.0337258 0.0156894 -0.999308 -0.072665 0.0670356 -0.995101 
-0.0555514 0.0279951 -0.998063 0.101867 0.0605127 -0.992956 0.197891 0.141365 -0.969977 
0.288879 0.317158 -0.903305 -0.271677 0.360692 -0.89224 -0.135527 0.171652 -0.975791 
-0.0599248 0.12446 -0.990413 0.052699 0.140596 -0.988663 0.0464154 0.206841 -0.977273 
-0.0167599 0.310013 -0.950585 0.0168588 0.391127 -0.920182 0.122153 0.431803 -0.893658 
0.291595 0.476222 -0.829569 -0.266718 0.516067 -0.813963 -0.0127486 0.487516 -0.873021 
0.0930716 0.512492 -0.853633 0.16322 0.591678 -0.789479 -0.106449 -0.615232 -0.781126 
-0.0851543 -0.630392 -0.771592 -0.00413294 -0.636888 -0.770946 0.117212 -0.585035 -0.802493 
-0.291608 -0.484726 -0.824624 -0.38444 -0.799446 -0.46162 -0.196083 -0.620952 -0.758927 
-0.218402 -0.611499 -0.760506 -0.223739 -0.640298 -0.734819 0.177421 -0.528805 -0.829992 
0.17813 -0.524691 -0.832448 0.179673 -0.532089 -0.827405 0.212786 -0.468326 -0.85755 
0.268902 -0.643596 -0.716572 0.269498 -0.461647 -0.845135 0.436152 -0.775104 -0.457149 
-0.363892 -0.442464 -0.819639 -0.407977 -0.400488 -0.820466 -0.489264 -0.52049 -0.699794 
0.273454 -0.461131 -0.844145 0.397054 -0.414423 -0.818903 0.525817 -0.621895 -0.580313 
-0.43813 -0.335887 -0.8338 -0.569511 -0.220164 -0.79195 -0.678918 -0.418514 -0.603255 
0.444243 -0.387861 -0.807596 0.535687 -0.320145 -0.781375 0.729309 -0.520815 -0.443688 
-0.58817 -0.187304 -0.786749 0.550154 -0.295333 -0.781095 -0.567123 -0.081863 -0.819555 
0.581221 -0.151699 -0.79948 0.911867 -0.22514 -0.343235 -0.59966 -0.0302937 -0.799682 
-0.975657 0.0289263 -0.217385 0.58755 -0.00469518 -0.809174 0.874774 -0.0401365 -0.482867 
-0.643058 0.0640818 -0.763132 0.543732 0.074169 -0.835975 0.869379 0.119678 -0.479434 
-0.661313 0.214655 -0.718741 -0.623132 0.284438 -0.728561 0.566035 0.208084 -0.797688 
0.517271 0.367028 -0.773124 0.902845 0.331096 -0.274312 -0.501296 0.388279 -0.773267 
-0.754594 0.470509 -0.457394 -0.460443 0.457087 -0.760963 0.457686 0.425714 -0.780571 
0.413628 0.478418 -0.774615 0.627675 0.542457 -0.558359 -0.435733 0.469903 -0.767677 
-0.550943 0.55777 -0.620768 -0.376966 0.511009 -0.772507 0.109263 0.679639 -0.725363 
0.0540483 0.741997 -0.668221 0.149102 0.714048 -0.684035 0.394933 0.535417 -0.746563 
0.303753 0.602698 -0.737895 0.487537 0.63719 -0.596906 -0.350864 0.588583 -0.72833 
-0.498453 0.764747 -0.408297 -0.273851 0.634073 -0.723157 -0.032887 0.622798 -0.781691 
0.0945302 0.621177 -0.777948 0.156394 0.673653 -0.72231 0.182615 0.63752 -0.748479 
0.157181 0.826386 -0.540722 0.098783 0.92841 -0.358186 0.13247 0.96759 -0.21499 
-0.376831 -0.880412 -0.287876 -0.238353 -0.936693 -0.256502 -0.147867 -0.960274 -0.236661 
-0.0958605 -0.971518 -0.216713 -0.0339346 -0.976792 -0.211484 0.0671167 -0.965616 -0.25116 
0.176173 -0.935111 -0.307458 0.305649 -0.882191 -0.358214 0.441781 -0.823797 -0.35523 
-0.457528 -0.837216 -0.299563 -0.563951 -0.76274 -0.316523 0.486421 -0.802093 -0.34647 
0.59774 -0.740213 -0.307881 -0.7151 -0.622091 -0.318803 -0.761999 -0.560848 -0.323738 
0.690159 -0.665164 -0.285022 0.773376 -0.586381 -0.240929 -0.846623 -0.428269 -0.315934 
0.816199 -0.530033 -0.229964 -0.917152 -0.244242 -0.314927 0.905556 -0.385808 -0.176411 
0.936948 -0.307399 -0.166237 -0.961474 -0.0989762 -0.25646 -0.976163 -0.00620475 -0.21695 
0.957749 -0.22536 -0.178688 -0.97877 0.0302706 -0.202712 -0.978647 0.0461643 -0.200298 
-0.992158 0.0389671 -0.11876 0.978339 -0.0621984 -0.197443 -0.970351 0.146354 -0.192353 
0.971967 0.102183 -0.211753 -0.946024 0.276227 -0.169522 0.922662 0.338617 -0.18448 
0.90897 0.380879 -0.169425 0.923485 0.367895 0.10876 -0.876262 0.456592 -0.153912 
-0.816758 0.550706 -0.172131 0.817775 0.556503 -0.146791 0.714654 0.683464 -0.148815 
-0.731838 0.659038 -0.173445 -0.644472 0.747499 -0.160938 0.304504 0.949683 -0.0733478 
0.623375 0.771689 -0.126091 0.513712 0.84823 -0.128863 -0.550456 0.821531 -0.148613 
-0.498901 0.854584 -0.144163 -0.331203 0.936162 -0.117919 -0.0699599 0.992377 -0.101462 
0.136652 0.983793 -0.116094 0.292763 0.948987 -0.117104 0.224467 0.965391 -0.132798 
0.131651 0.988029 -0.0804106 0.237103 0.96934 -0.0645085 0.125421 0.990112 -0.0628249 
0.141071 0.979171 0.146026 -0.365931 -0.923662 0.11377 -0.215831 -0.967761 0.129828 
-0.130385 -0.980057 0.149959 -0.0898037 -0.982482 0.16329 -0.0516108 -0.985302 0.16284 
0.0279629 -0.989047 0.14493 0.133963 -0.983538 0.121276 0.291994 -0.949259 0.11682 
0.458053 -0.880216 0.124121 -0.477203 -0.871571 0.112434 -0.565682 -0.817786 0.105972 
-0.349293 -0.85308 0.387619 0.540235 -0.831267 0.130926 0.459181 -0.794448 0.397499 
0.654663 -0.740047 0.154101 -0.746701 -0.658861 0.0913185 -0.784107 -0.614693 0.0856097 
0.735216 -0.651266 0.18791 0.621237 -0.546754 0.561359 0.823857 -0.519309 0.227108 
-0.899587 -0.433336 0.054434 0.855263 -0.459277 0.239977 0.808669 -0.447548 0.381778 
-0.97465 -0.215268 0.0609712 0.880996 -0.370845 0.293804 0.914938 -0.257445 0.310823 
-0.995502 -0.0380694 0.0867588 0.919201 -0.242267 0.310444 0.910044 -0.236767 0.340236 
-0.988283 0.0637808 0.138667 0.942371 -0.0550853 0.330005 0.894679 -0.0447392 0.444464 
-0.972165 0.177019 0.153493 0.927211 0.138535 0.347977 0.884721 0.280776 0.372068 
0.878429 0.140658 0.456704 -0.92395 0.31652 0.214782 0.850084 0.365388 0.379275 
-0.853964 0.459513 0.244119 -0.826015 0.506975 0.246325 -0.814661 0.480091 0.32533 
0.73893 0.565072 0.366982 0.677002 0.634341 0.373203 0.649649 0.553285 0.521375 
-0.68994 0.672397 0.268077 -0.619706 0.732386 0.282089 -0.577425 0.674375 0.460216 
0.156196 0.903961 0.398068 0.271722 0.863072 0.425762 0.280956 0.6481 0.707835 
0.541093 0.738533 0.402227 0.487035 0.774663 0.403353 0.475232 0.717667 0.509028 
-0.47704 0.819501 0.317571 -0.459753 0.829975 0.315861 -0.454368 0.813055 0.363994 
-0.299693 0.878606 0.371801 -0.243851 0.727714 0.641068 -0.0771374 0.914445 0.397292 
0.139421 0.905589 0.400587 0.14628 0.623238 0.768229 0.251758 0.8742 0.415202 
0.206919 0.73832 0.641926 0.202874 0.900369 0.384939 0.182019 0.847799 0.498102 
0.147569 0.915513 0.374246 0.147357 0.915785 0.373662 0.147137 0.914816 0.376115 
-0.194358 -0.876678 0.440069 -0.0998292 -0.879771 0.464797 -0.0692327 -0.86843 0.490954 
-0.0467253 -0.863419 0.502318 0.0230109 -0.864714 0.501738 0.140075 -0.848077 0.511023 
0.284077 -0.794792 0.536289 -0.534891 -0.741367 0.405298 -0.334411 -0.846449 0.414359 
-0.346715 -0.842292 0.412715 -0.178236 -0.803873 0.567468 -0.0764852 -0.742986 0.664922 
-0.037959 -0.688733 0.72402 -0.0241261 -0.646888 0.762203 0.0268726 -0.647136 0.761901 
0.144084 -0.665747 0.732134 0.384688 -0.74345 0.54708 0.285951 -0.710701 0.642757 
0.444334 -0.6933 0.567365 -0.640267 -0.667171 0.380711 -0.762451 -0.543307 0.351405 
-0.503703 -0.663383 0.553359 0.241792 -0.36161 0.900431 0.605331 -0.533872 0.590386 
0.401897 -0.452088 0.796301 0.611024 -0.523961 0.593393 -0.823878 -0.455952 0.336649 
-0.740325 -0.462325 0.488032 0.307172 -0.252553 0.917531 0.665928 -0.395203 0.632736 
0.523147 -0.34553 0.779055 0.720928 -0.320939 0.614216 -0.918931 -0.22293 0.325373 
0.430961 -0.222244 0.874574 0.733937 -0.291369 0.613547 0.700814 -0.286352 0.653347 
-0.953788 -0.0250929 0.29943 0.735432 -0.165523 0.657071 0.638984 -0.140998 0.756187 
-0.93972 0.102749 0.326143 0.734046 -0.00161254 0.679098 0.601303 0.0264045 0.798585 
-0.899341 0.229855 0.371958 -0.689997 0.278664 0.66802 0.331133 0.221709 0.917167 
0.667154 0.153371 0.728961 0.571584 0.17278 0.802147 -0.821411 0.365226 0.438057 
-0.775525 0.426283 0.465664 -0.758637 0.388647 0.522898 0.187615 0.439472 0.878445 
0.00397857 0.488125 0.872765 -0.0647939 0.406256 0.911459 -0.000476125 0.267672 0.96351 
0.0757867 0.26831 0.960347 0.174204 0.3335 0.926515 0.314014 0.324055 0.892403 
0.581441 0.332497 0.742544 0.554889 0.359779 0.750105 0.543821 0.33827 0.768005 
-0.674276 0.510836 0.53329 -0.53278 0.618724 0.577344 -0.463002 0.518216 0.719083 
0.185482 0.303711 0.934535 0.163429 0.234117 0.958374 0.0141887 0.233679 0.97221 
-0.0541564 0.298434 0.952892 0.00544203 0.337062 0.941467 0.122224 0.374234 0.919244 
0.257277 0.577879 0.77451 0.206153 0.409119 0.888888 0.429023 0.473383 0.769316 
0.381318 0.509681 0.771247 0.372983 0.463812 0.803593 -0.456508 0.646394 0.611371 
-0.353914 0.660281 0.6624 -0.301083 0.615947 0.727983 -0.202709 0.669038 0.71505 
-0.0682094 0.499742 0.863484 0.0697002 0.40091 0.913462 0.132979 0.552669 0.822723 
0.112545 0.351392 0.929439 0.124345 0.546582 0.828122 0.0733654 0.393082 0.916572 
0.0784303 0.603901 0.793191 0.0316796 0.506142 0.861868 0.0920361 0.653743 0.751099 
0.0791848 0.581061 0.809999 0.200117 0.606975 0.769113 0.152578 0.618485 0.770841 
0.150769 0.592341 0.791455 -0.0510818 0.639516 0.767079 0.0241301 0.616229 0.787197 
-0.00989766 0.62913 0.777237 -0.0076388 0.617836 0.786269 -0.26054 -0.617734 0.741973 
-0.0936629 -0.593515 0.799354 -0.0145652 -0.528838 0.848598 0.00307671 -0.460638 0.887583 
-0.0143111 -0.440918 0.897433 0.0133529 -0.464255 0.885601 0.131075 -0.43112 0.892723 
-0.32037 -0.602885 0.73068 -0.444389 -0.560034 0.6992 -0.239593 -0.573273 0.783551 
-0.0470641 -0.48318 0.874255 0.0271698 -0.403082 0.914761 0.0252605 -0.324445 0.945567 
-0.0122424 -0.319686 0.947445 0.00897268 -0.320562 0.947185 0.226309 -0.352937 0.907865 
0.121174 -0.309561 0.943127 0.23511 -0.341682 0.909932 -0.565705 -0.460115 0.684304 
-0.703634 -0.293811 0.646973 -0.393134 -0.441181 0.806725 -0.134383 -0.347374 0.928048 
0.0207122 -0.28662 0.957821 0.124992 -0.236856 0.963471 0.074573 -0.18647 0.979626 
-0.0148735 -0.201607 0.979353 0.0270554 -0.172571 0.984625 0.106161 -0.120377 0.987036 
0.298285 -0.248742 0.921495 0.181874 -0.189413 0.964907 0.30203 -0.245428 0.921164 
-0.726223 -0.244638 0.642458 -0.69841 -0.246614 0.671867 -0.325226 -0.216879 0.92043 
-0.0711795 -0.184339 0.980282 0.0745974 -0.13282 0.988329 0.140013 -0.120329 0.982811 
0.0568043 -0.125771 0.990432 -0.00223562 -0.0915869 0.995795 0.0998336 -0.174568 0.979571 
0.118873 -0.11379 0.986368 0.107378 -0.108975 0.988228 0.359019 -0.196674 0.912373 
0.23938 -0.152132 0.958933 0.385844 -0.127668 0.913688 -0.777008 -0.0406809 0.628174 
-0.684735 -0.0435254 0.727491 -0.313335 -0.0264329 0.949275 0.0984939 0.0248993 0.994826 
0.1282 0.00428317 0.991739 0.115876 -0.0067375 0.993241 -0.0614087 0.108483 0.9922 
-0.00162104 -0.0963908 0.995342 0.168057 -0.127778 0.977461 0.143097 -0.0516165 0.988362 
0.199979 -0.0538992 0.978317 0.395534 -0.0857689 0.914438 0.364463 -0.0788286 0.927875 
-0.76084 0.128635 0.636063 -0.688112 0.263306 0.676145 -0.696562 0.13289 0.705083 
-0.285441 0.154751 0.94582 -0.0242782 0.173022 0.984619 0.0897999 0.147126 0.985033 
0.103043 0.151689 0.983042 0.165592 0.0441843 0.985204 -0.0972733 0.00939603 0.995213 
-0.132797 0.108176 0.985222 0.178239 0.139774 0.974009 0.17341 0.11331 0.97831 
0.205207 0.0772097 0.975668 0.365401 0.0723978 0.928031 0.341598 0.119817 0.932177 
0.346462 0.075947 0.934985 -0.670765 0.280733 0.686486 -0.294404 0.263075 0.918759 
-0.0514703 0.2481 0.967366 0.0794644 0.219989 0.97226 0.0244814 0.255414 0.966522 
0.174591 0.442447 0.879636 -0.0348638 0.301291 0.952895 0.0134851 0.478955 0.877736 
0.0190531 0.227788 0.973524 -0.0410774 0.416342 0.90828 0.135953 0.420208 0.897185 
0.0137419 0.276132 0.961022 0.149647 0.359417 0.9211 0.0703704 0.266597 0.961236 
0.0661539 0.269782 0.960646 0.264384 0.232003 0.936096 0.161546 0.291222 0.942917 
0.153604 0.244478 0.957411 -0.484154 0.402681 0.776816 -0.396292 0.438698 0.806534 
-0.369152 0.391648 0.842816 -0.0710077 0.320691 0.944518 0.0872711 0.281349 0.955629 
0.190602 0.422361 0.886161 0.192145 0.300932 0.934088 0.188104 0.290107 0.938326 
-0.16238 0.434305 0.886009 -0.160493 0.434296 0.886357 -0.160048 0.433478 0.886838 
0.0999861 0.34066 0.934855 0.0248907 0.378547 0.925247 0.0344634 0.365969 0.929989 
-0.0460382 -0.0673144 0.996669 -0.102347 -0.0164764 0.994612 0.0243683 0.00339434 0.999697 
-0.0310449 0.0572801 0.997875 
