# vtk DataFile Version 4.2
vtk output
ASCII
DATASET POLYDATA
POINTS 519 float
-14.8568 -32.4215 -17.7853 -6.45468 -32.4215 -19.5799 1.94747 -32.4215 -19.4063 
10.3496 -32.4215 -18.8128 18.7518 -32.4215 -18.8084 27.1539 -32.4215 -18.8855 
35.5561 -32.4215 -17.8302 -40.0633 -24.0194 -19.538 -31.6611 -24.0194 -21.0611 
-23.259 -24.0194 -22.5695 -14.8568 -24.0194 -23.554 -6.45468 -24.0194 -23.989 
1.94747 -24.0194 -23.4202 10.3496 -24.0194 -22.9201 18.7518 -24.0194 -23.0581 
27.1539 -24.0194 -23.6462 35.5561 -24.0194 -23.2276 43.9582 -24.0194 -21.2494 
52.3603 -24.0194 -17.761 -48.4654 -15.6172 -21.5273 -40.0633 -15.6172 -23.9355 
-31.6611 -15.6172 -24.8963 -23.259 -15.6172 -25.0292 -14.8568 -15.6172 -25.2454 
-6.45468 -15.6172 -25.1016 1.94747 -15.6172 -23.6528 10.3496 -15.6172 -22.9558 
18.7518 -15.6172 -23.7019 27.1539 -15.6172 -24.5911 35.5561 -15.6172 -24.4733 
43.9582 -15.6172 -23.3885 52.3603 -15.6172 -20.5017 -56.8676 -7.21506 -19.3401 
-48.4654 -7.21506 -23.0071 -40.0633 -7.21506 -24.9185 -31.6611 -7.21506 -25.7017 
-23.259 -7.21506 -25.0262 -14.8568 -7.21506 -24.756 -6.45468 -7.21506 -25.0052 
1.94747 -7.21506 -23.2186 10.3496 -7.21506 -22.148 18.7518 -7.21506 -23.2877 
27.1539 -7.21506 -24.3308 35.5561 -7.21506 -24.9472 43.9582 -7.21506 -24.2364 
52.3603 -7.21506 -21.8442 -56.8676 1.18708 -18.4107 -48.4654 1.18708 -23.1083 
-40.0633 1.18708 -24.9022 -31.6611 1.18708 -25.227 -23.259 1.18708 -24.3683 
-14.8568 1.18708 -24.4067 -6.45468 1.18708 -25.2623 1.94747 1.18708 -24.0579 
10.3496 1.18708 -22.9942 18.7518 1.18708 -23.0431 27.1539 1.18708 -23.8745 
35.5561 1.18708 -24.3564 43.9582 1.18708 -23.2987 52.3603 1.18708 -20.5765 
-48.4654 9.58923 -21.5131 -40.0633 9.58923 -24.655 -31.6611 9.58923 -25.5035 
-23.259 9.58923 -25.4343 -14.8568 9.58923 -25.1882 -6.45468 9.58923 -24.3621 
1.94747 9.58923 -22.9846 10.3496 9.58923 -22.6849 18.7518 9.58923 -22.7357 
27.1539 9.58923 -23.2235 35.5561 9.58923 -22.7096 43.9582 9.58923 -21.0096 
52.3603 9.58923 -17.4678 -48.4654 17.9914 -17.6256 -40.0633 17.9914 -24.1058 
-31.6611 17.9914 -25.0975 -23.259 17.9914 -25.6166 -14.8568 17.9914 -25.2514 
-6.45468 17.9914 -24.8639 1.94747 17.9914 -23.9654 10.3496 17.9914 -23.3011 
18.7518 17.9914 -22.7827 27.1539 17.9914 -22.1119 35.5561 17.9914 -19.9855 
-40.0633 26.3935 -18.1608 -31.6611 26.3935 -21.9257 -23.259 26.3935 -23.683 
-14.8568 26.3935 -24.1866 -6.45468 26.3935 -24.5523 1.94747 26.3935 -24.4594 
10.3496 26.3935 -23.4715 18.7518 26.3935 -21.3439 27.1539 26.3935 -18.771 
-14.8568 34.7957 -18.9843 -6.45468 34.7957 -21.9475 1.94747 34.7957 -22.5029 
10.3496 34.7957 -20.0911 -14.8568 -32.7412 -17.4547 -6.45468 -34.6942 -17.4547 
1.94747 -34.4219 -17.4547 10.3496 -33.6103 -17.4547 18.7518 -33.6717 -17.4547 
27.1539 -33.6623 -17.4547 35.5561 -32.7843 -17.4547 -40.0633 -25.8728 -17.4547 
-31.6611 -27.8211 -17.4547 -31.6611 -32.4215 -10.2761 -15.8031 -32.4215 -17.4547 
-23.259 -29.7696 -17.4547 -23.259 -32.4215 -13.6435 37.07 -32.4215 -17.4547 
43.9582 -30.1132 -17.4547 43.9582 -32.4215 -14.41 52.3603 -24.5163 -17.4547 
-44.8219 -24.0194 -17.4547 -48.4654 -21.9045 -17.4547 -48.4654 -24.0194 -14.8608 
52.8108 -24.0194 -17.4547 60.7625 -24.0194 -9.10987 -55.6326 -15.6172 -17.4547 
-56.8676 -13.2659 -17.4547 -56.8676 -15.6172 -16.3089 57.3081 -15.6172 -17.4547 
60.7625 -15.6172 -14.8541 -58.8409 -7.21506 -17.4547 60.4947 -7.21506 -17.4547 
60.7625 -7.21506 -17.2909 -57.8847 1.18708 -17.4547 -56.8676 3.36678 -17.4547 
57.608 1.18708 -17.4547 60.7625 1.18708 -15.2282 -53.7615 9.58923 -17.4547 
-56.8676 9.58923 -12.3939 43.9582 16.7894 -17.4547 52.3804 9.58923 -17.4547 
52.3603 9.61109 -17.4547 60.7625 9.58923 -10.0845 -48.6423 17.9914 -17.4547 
-48.4654 18.2156 -17.4547 42.3794 17.9914 -17.4547 35.5561 22.3746 -17.4547 
43.9582 17.9914 -16.6218 52.3603 17.9914 -9.89271 -40.8553 26.3935 -17.4547 
-40.0633 27.026 -17.4547 -31.6611 31.2937 -17.4547 -23.259 33.3756 -17.4547 
18.7518 33.8716 -17.4547 30.1062 26.3935 -17.4547 27.1539 28.3036 -17.4547 
35.5561 26.3935 -13.6297 -19.2196 34.7957 -17.4547 -23.259 34.7957 -14.5556 
-14.8568 36.2825 -17.4547 -6.45468 39.6279 -17.4547 1.94747 40.5424 -17.4547 
17.3005 34.7957 -17.4547 10.3496 38.0233 -17.4547 18.7518 34.7957 -16.61 
27.1539 34.7957 -9.75329 -6.45468 43.1978 -9.4554 1.94747 43.1978 -11.469 
-31.6611 -33.0587 -9.05256 -23.259 -35.5156 -9.05256 -14.8568 -39.2776 -9.05256 
-14.8568 -40.8237 -1.68103 -6.45468 -39.8585 -9.05256 1.94747 -38.6114 -9.05256 
10.3496 -36.5279 -9.05256 18.7518 -36.6808 -9.05256 27.1539 -36.7747 -9.05256 
35.5561 -36.2639 -9.05256 43.9582 -35.1407 -9.05256 -48.4654 -27.5504 -9.05256 
-33.54 -32.4215 -9.05256 -40.0633 -30.3907 -9.05256 -40.0633 -32.4215 -3.11849 
50.0546 -32.4215 -9.05256 52.3603 -31.2599 -9.05256 60.7625 -24.0698 -9.05256 
-56.703 -24.0194 -9.05256 -56.8676 -23.9051 -9.05256 -56.8676 -24.0194 -8.84541 
60.811 -24.0194 -9.05256 -61.9706 -15.6172 -9.05256 65.5514 -15.6172 -9.05256 
-63.8501 -7.21506 -9.05256 -65.2697 -7.21506 -1.97379 68.0974 -7.21506 -9.05256 
69.1646 -7.21506 -5.7311 -62.5627 1.18708 -9.05256 65.9221 1.18708 -9.05256 
-58.5193 9.58923 -9.05256 -56.8676 11.9058 -9.05256 61.7137 9.58923 -9.05256 
60.7625 10.6167 -9.05256 -52.0179 17.9914 -9.05256 -48.4654 21.8769 -9.05256 
43.9582 23.9003 -9.05256 53.1343 17.9914 -9.05256 52.3603 18.5579 -9.05256 
-43.7644 26.3935 -9.05256 -40.0633 29.2137 -9.05256 -31.6611 33.1559 -9.05256 
40.2015 26.3935 -9.05256 35.5561 29.5238 -9.05256 -27.9094 34.7957 -9.05256 
-23.259 36.803 -9.05256 -14.8568 39.8591 -9.05256 10.3496 42.518 -9.05256 
18.7518 39.5462 -9.05256 27.7988 34.7957 -9.05256 27.1539 35.2188 -9.05256 
-6.82757 43.1978 -9.05256 -6.45468 43.3293 -9.05256 6.68242 43.1978 -9.05256 
1.94747 43.9566 -9.05256 -14.8568 -40.9843 -0.650415 -40.0633 -33.4497 -0.650415 
-31.6611 -36.5891 -0.650415 -15.6285 -40.8237 -0.650415 -23.259 -38.9978 -0.650415 
-8.07017 -40.8237 -0.650415 -14.8568 -40.8237 0.895015 -6.45468 -40.781 -0.650415 
1.94747 -38.1308 -0.650415 10.3496 -34.9351 -0.650415 18.7518 -34.9488 -0.650415 
27.1539 -35.3072 -0.650415 35.5561 -35.9879 -0.650415 43.9582 -35.5011 -0.650415 
-56.8676 -26.385 -0.650415 -43.3112 -32.4215 -0.650415 -48.4654 -30.7384 -0.650415 
10.3496 -32.4215 4.48914 18.7518 -32.4215 4.56716 27.1539 -32.4215 6.89345 
35.5561 -32.4215 7.06963 51.7154 -32.4215 -0.650415 43.9582 -32.4215 5.40517 
52.3603 -32.1799 -0.650415 60.7625 -26.5694 -0.650415 -59.4322 -24.0194 -0.650415 
63.3241 -24.0194 -0.650415 60.7625 -24.0194 4.44403 -64.26 -15.6172 -0.650415 
-65.2697 -9.08727 -0.650415 68.1749 -15.6172 -0.650415 69.1646 -12.2169 -0.650415 
-65.5193 -7.21506 -0.650415 -65.2697 -6.09622 -0.650415 -65.2697 -7.21506 0.928753 
69.1646 -0.984563 -0.650415 69.1646 -7.21506 5.13993 -63.4882 1.18708 -0.650415 
68.6656 1.18708 -0.650415 -59.6839 9.58923 -0.650415 -56.8676 12.9579 -0.650415 
64.698 9.58923 -0.650415 60.7625 14.5298 -0.650415 -51.9589 17.9914 -0.650415 
-48.4654 21.493 -0.650415 43.9582 26.008 -0.650415 56.8091 17.9914 -0.650415 
52.3603 21.0478 -0.650415 -42.8819 26.3935 -0.650415 -40.0633 28.6772 -0.650415 
-40.0633 26.3935 6.84703 -31.6611 33.8164 -0.650415 43.3144 26.3935 -0.650415 
35.5561 31.5595 -0.650415 -29.7658 34.7957 -0.650415 -23.259 38.0818 -0.650415 
-14.8568 41.1378 -0.650415 10.3496 43.0677 -0.650415 18.7518 41.1453 -0.650415 
30.9405 34.7957 -0.650415 27.1539 37.3088 -0.650415 -7.1487 43.1978 -0.650415 
-6.45468 43.3679 -0.650415 -6.45468 43.1978 0.956277 8.75087 43.1978 -0.650415 
1.94747 43.7633 -0.650415 1.94747 43.1978 2.86817 -40.0633 -35.743 7.75173 
-31.6611 -38.4087 7.75173 -23.259 -39.7594 7.75173 -14.8568 -39.9361 7.75173 
-6.45468 -37.1185 7.75173 1.94747 -33.2908 7.75173 -56.8676 -26.2297 7.75173 
-47.6258 -32.4215 7.75173 -48.4654 -31.9966 7.75173 -6.45468 -32.4215 13.2266 
4.58804 -32.4215 7.75173 1.94747 -32.4215 8.75645 10.3496 -30.6555 7.75173 
18.7518 -30.4684 7.75173 27.1539 -31.9878 7.75173 35.5561 -32.0306 7.75173 
43.9582 -31.2031 7.75173 52.3603 -28.7852 7.75173 -59.0736 -24.0194 7.75173 
-56.8676 -24.0194 12.0239 10.3496 -24.0194 15.0247 18.7518 -24.0194 13.9959 
27.1539 -24.0194 14.9098 35.5561 -24.0194 15.103 43.9582 -24.0194 14.8171 
58.5639 -24.0194 7.75173 52.3603 -24.0194 11.9894 60.7625 -21.9231 7.75173 
-63.2447 -15.6172 7.75173 65.6839 -15.6172 7.75173 60.7625 -15.6172 12.1924 
-64.1186 -7.21506 7.75173 68.3734 -7.21506 7.75173 60.7625 -7.21506 15.0002 
-63.2626 1.18708 7.75173 -56.8676 1.18708 16.0805 66.5411 1.18708 7.75173 
60.7625 1.18708 14.2251 -57.3312 9.58923 7.75173 -56.8676 10.1182 7.75173 
-56.8676 9.58923 8.61218 62.8422 9.58923 7.75173 60.7625 12.1564 7.75173 
60.7625 9.58923 10.232 -48.9523 17.9914 7.75173 -48.4654 18.459 7.75173 
-48.4654 17.9914 8.5867 -40.0633 26.0553 7.75173 43.9582 24.9173 7.75173 
43.9582 17.9914 16.128 54.6063 17.9914 7.75173 52.3603 19.5506 7.75173 
52.3603 17.9914 9.96922 -39.7168 26.3935 7.75173 -31.6611 33.9688 7.75173 
41.7322 26.3935 7.75173 35.5561 30.8368 7.75173 35.5561 26.3935 14.8787 
-30.5538 34.7957 7.75173 -23.259 39.1178 7.75173 -14.8568 41.87 7.75173 
-6.45468 42.4832 7.75173 1.94747 42.3819 7.75173 10.3496 41.7527 7.75173 
18.7518 40.5301 7.75173 30.5008 34.7957 7.75173 27.1539 37.0769 7.75173 
27.1539 34.7957 13.3146 -40.0633 -34.2487 16.1539 -31.6611 -36.7037 16.1539 
-23.259 -37.828 16.1539 -14.8568 -34.6169 16.1539 -43.3706 -32.4215 16.1539 
-48.4654 -28.5119 16.1539 -40.0633 -32.4215 18.5867 -31.6611 -32.4215 21.2935 
-23.259 -32.4215 21.1363 -10.9267 -32.4215 16.1539 -14.8568 -32.4215 18.2485 
-6.45468 -28.9552 16.1539 1.94747 -24.8497 16.1539 -53.566 -24.0194 16.1539 
-56.8676 -18.8415 16.1539 -48.4654 -24.0194 20.0251 -40.0633 -24.0194 23.3208 
-23.259 -24.0194 24.5396 -14.8568 -24.0194 22.8618 -6.45468 -24.0194 19.2391 
5.20847 -24.0194 16.1539 1.94747 -24.0194 16.7426 10.3496 -22.2397 16.1539 
18.7518 -19.5492 16.1539 27.1539 -20.8676 16.1539 35.5561 -21.6943 16.1539 
[...]
POINT_DATA 519
SCALARS ImageScalars float
LOOKUP_TABLE default
0 0 0 0 0 0 0 0 0 
0 0 0 0 0 0 0 0 0 
0 0 0 0 0 0 0 0 0 
0 0 0 0 0 0 0 0 0 
0 0 0 0 0 0 0 0 0 
0 0 0 0 0 0 0 0 0 
0 0 0 0 0 0 0 0 0 
0 0 0 0 0 0 0 0 0 
0 0 0 0 0 0 0 0 0 
0 0 0 0 0 0 0 0 0 
0 0 0 0 0 0 0 0 0 
0 0 0 0 0 0 0 0 0 
0 0 0 0 0 0 0 0 0 
0 0 0 0 0 0 0 0 0 
0 0 0 0 0 0 0 0 0 
0 0 0 0 0 0 0 0 0 
0 0 0 0 0 0 0 0 0 
0 0 0 0 0 0 0 0 0 
0 0 0 0 0 0 0 0 0 
0 0 0 0 0 0 0 0 0 
0 0 0 0 0 0 0 0 0 
0 0 0 0 0 0 0 0 0 
0 0 0 0 0 0 0 0 0 
0 0 0 0 0 0 0 0 0 
0 0 0 0 0 0 0 0 0 
0 0 0 0 0 0 0 0 0 
0 0 0 0 0 0 0 0 0 
0 0 0 0 0 0 0 0 0 
0 0 0 0 0 0 0 0 0 
0 0 0 0 0 0 0 0 0 
0 0 0 0 0 0 0 0 0 
0 0 0 0 0 0 0 0 0 
0 0 0 0 0 0 0 0 0 
0 0 0 0 0 0 0 0 0 
0 0 0 0 0 0 0 0 0 
0 0 0 0 0 0 0 0 0 
0 0 0 0 0 0 0 0 0 
0 0 0 0 0 0 0 0 0 
0 0 0 0 0 0 0 0 0 
0 0 0 0 0 0 0 0 0 
0 0 0 0 0 0 0 0 0 
0 0 0 0 0 0 0 0 0 
0 0 0 0 0 0 0 0 0 
0 0 0 0 0 0 0 0 0 
0 0 0 0 0 0 0 0 0 
0 0 0 0 0 0 0 0 0 
0 0 0 0 0 0 0 0 0 
0 0 0 0 0 0 0 0 0 
0 0 0 0 0 0 0 0 0 
0 0 0 0 0 0 0 0 0 
0 0 0 0 0 0 0 0 0 
0 0 0 0 0 0 0 0 0 
0 0 0 0 0 0 0 0 0 
0 0 0 0 0 0 0 0 0 
0 0 0 0 0 0 0 0 0 
0 0 0 0 0 0 0 0 0 
0 0 0 0 0 0 0 0 0 
0 0 0 0 0 0 
NORMALS Normals float
0.219045 0.703352 0.676251 0.0733645 0.633638 0.770144 -0.0383934 0.654441 0.755138 
-0.0321331 0.738998 0.672941 0.00365852 0.727188 0.686429 -0.0509982 0.737591 0.673319 
-0.157291 0.731622 0.663316 0.236952 0.656824 0.715846 0.152777 0.605989 0.780664 
0.131441 0.485806 0.864127 0.0747962 0.365575 0.927772 -0.00906793 0.280524 0.959804 
-0.0634289 0.209633 0.975721 -0.0209558 0.190016 0.981557 0.0411386 0.246118 0.968366 
0.0129439 0.280008 0.95991 -0.136836 0.33535 0.932103 -0.284846 0.376916 0.881361 
-0.493446 0.409779 0.767198 0.370712 0.329648 0.868277 0.188792 0.261668 0.946513 
0.062561 0.226161 0.972079 0.0209445 0.119622 0.992598 0.00431649 0.0625267 0.998034 
-0.0942372 0.0579628 0.993861 -0.12886 -0.0119852 0.99159 0.00357526 -0.0461194 0.99893 
0.096088 0.0121437 0.995299 0.0464878 0.0353169 0.998294 -0.067955 0.0920381 0.993434 
-0.217147 0.173883 0.960527 -0.418137 0.211455 0.88343 0.610052 0.0863008 0.787647 
0.313895 0.0899477 0.945187 0.152081 0.0569087 0.986728 0.00661499 0.0205883 0.999766 
-0.0564175 -0.0399984 0.997606 -0.000618115 -0.0503127 0.998733 -0.088828 0.00946954 0.996002 
-0.172945 0.0241276 0.984636 0.00556138 0.00202816 0.999982 0.129476 -0.0392041 0.990807 
0.0995365 -0.0430304 0.994103 -0.00330883 -0.00718585 0.999969 -0.164231 -0.00608264 0.986403 
-0.377109 0.00275972 0.926165 0.672255 -0.229364 0.703893 0.334016 -0.0830562 0.938901 
0.127681 -0.0167005 0.991675 -0.032462 -0.0117456 0.999404 -0.0494954 0.0262406 0.99843 
0.0533755 0.0267057 0.998217 -0.0214738 -0.0372955 0.999074 -0.134591 -0.0152401 0.990784 
-0.0599317 0.0321371 0.997685 0.0523852 -0.0328532 0.998086 0.0774072 -0.0648468 0.994888 
-0.0312261 -0.129595 0.991075 -0.202161 -0.174223 0.963731 -0.404095 -0.206014 0.891216 
0.506718 -0.274609 0.817207 0.217046 -0.0389187 0.975385 0.0490816 -0.00799843 0.998763 
-0.0192548 0.0769568 0.996848 -0.0626003 0.0487899 0.996845 -0.131789 -0.02439 0.990978 
-0.0978451 -0.00514558 0.995188 -0.0147354 0.0182525 0.999725 0.031383 -0.015286 0.999391 
-0.000358809 -0.100132 0.994974 -0.121525 -0.245709 0.961696 -0.264912 -0.345909 0.900094 
-0.466506 -0.414724 0.781265 0.670106 -0.502725 0.546101 0.368073 -0.293215 0.882353 
0.0776243 -0.176645 0.981209 0.00920783 -0.0813418 0.996644 -0.0449835 -0.0536449 0.997546 
-0.077169 0.0111638 0.996956 -0.0922256 0.0881795 0.991826 -0.0713556 0.0461268 0.996384 
-0.0661588 -0.0769356 0.994839 -0.158142 -0.239456 0.957941 -0.277333 -0.402577 0.872364 
0.510465 -0.687795 0.516104 0.26449 -0.554307 0.78917 0.12006 -0.437634 0.891101 
0.0472187 -0.298182 0.95334 0.0144265 -0.14471 0.989369 -0.0616658 -0.0701574 0.995628 
-0.178096 -0.156567 0.971478 -0.254116 -0.301246 0.919062 -0.341962 -0.484138 0.805402 
0.282317 -0.696099 0.660109 0.171893 -0.513858 0.840478 -0.0997249 -0.449289 0.887803 
-0.289383 -0.529451 0.797458 0.221486 0.710457 0.667978 0.0791636 0.719579 0.689884 
-0.0588643 0.748556 0.660453 -0.0388136 0.806128 0.590467 0.0029652 0.790322 0.612684 
-0.0478115 0.803573 0.593283 -0.156399 0.748636 0.64427 0.244377 0.744449 0.62135 
0.190629 0.747638 0.636159 0.254276 0.864615 0.433342 0.22312 0.714552 0.663048 
0.212834 0.718509 0.662153 0.253296 0.797546 0.547505 -0.180429 0.739267 0.64879 
-0.285461 0.660047 0.694874 -0.291978 0.812702 0.504246 -0.49654 0.429784 0.754144 
0.31611 0.701318 0.638927 0.390755 0.621848 0.678687 0.382682 0.741746 0.550789 
-0.503999 0.413406 0.758341 -0.699632 0.586694 0.407806 0.5899 0.377299 0.713907 
0.631274 0.298229 0.715928 0.644943 0.383577 0.660998 -0.522401 0.250994 0.814923 
-0.640549 0.308803 0.703092 0.698168 0.0794114 0.711516 -0.521043 0.0114197 0.853454 
-0.530578 0.0119316 0.847552 0.71299 -0.236211 0.660189 0.706662 -0.282753 0.648598 
-0.509419 -0.238468 0.826816 -0.618785 -0.272803 0.736671 0.683768 -0.377363 0.624546 
0.78756 -0.472137 0.396025 -0.366057 -0.514324 0.775547 -0.466959 -0.414949 0.780876 
-0.466827 -0.415277 0.78078 -0.668484 -0.555904 0.494065 0.67355 -0.506558 0.538265 
0.672167 -0.510742 0.536035 -0.360087 -0.51911 0.775153 -0.359184 -0.528661 0.769093 
-0.388938 -0.55965 0.731791 -0.555297 -0.720405 0.415526 0.53708 -0.694593 0.478629 
0.519211 -0.708843 0.477453 0.312448 -0.812804 0.491656 0.222045 -0.806281 0.548276 
-0.365501 -0.595779 0.715161 -0.378413 -0.539928 0.751852 -0.37587 -0.541968 0.75166 
-0.469039 -0.690729 0.55036 0.265527 -0.78677 0.557214 0.276297 -0.869222 0.410017 
0.311256 -0.752759 0.580064 0.208992 -0.784399 0.583987 -0.0669639 -0.799818 0.596495 
-0.363088 -0.615814 0.699242 -0.296047 -0.680821 0.669954 -0.379972 -0.64637 0.661685 
-0.490817 -0.781967 0.384222 0.22362 -0.956444 0.187642 -0.046911 -0.967357 0.249038 
0.26306 0.871506 0.413857 0.311138 0.840526 0.443519 0.209775 0.886135 0.413229 
0.107722 0.991573 0.0719652 -0.0429935 0.955895 0.290545 -0.194489 0.964435 0.178998 
-0.10575 0.992089 0.0676489 0.014477 0.998333 0.0558695 -0.0240343 0.996844 0.0756609 
-0.0891358 0.983719 0.156053 -0.274632 0.929676 0.24552 0.381491 0.833843 0.398961 
0.257304 0.877878 0.403886 0.257701 0.888666 0.379294 0.285842 0.89912 0.331477 
-0.427765 0.868857 0.249207 -0.488406 0.828476 0.27402 -0.699649 0.588375 0.405346 
0.568349 0.717826 0.402125 0.575009 0.712088 0.402859 0.574115 0.716813 0.39569 
-0.700515 0.587139 0.405643 0.834462 0.382403 0.396789 -0.835448 0.326277 0.442233 
0.935234 0.023 0.353283 0.997195 -0.0354082 0.0659443 -0.905254 0.0161434 0.424563 
-0.968479 0.0203189 0.248267 0.909774 -0.305538 0.280995 -0.854997 -0.270613 0.442436 
0.821853 -0.503879 0.265825 0.805052 -0.543042 0.23874 -0.690791 -0.560789 0.456425 
-0.673823 -0.579679 0.458186 0.753054 -0.642189 0.14319 0.714753 -0.691065 0.107508 
-0.502004 -0.784764 0.363506 -0.566214 -0.727772 0.386975 -0.557868 -0.736478 0.382601 
0.628521 -0.774546 0.0709957 0.544084 -0.835775 0.0738465 0.401574 -0.908823 0.113043 
-0.509783 -0.7882 0.344764 -0.521968 -0.779252 0.346865 0.378423 -0.911969 0.158454 
0.34961 -0.909566 0.224639 0.357951 -0.904827 0.230562 -0.239904 -0.946266 0.216856 
-0.379344 -0.868 0.320427 -0.497395 -0.790722 0.356871 -0.493118 -0.792829 0.358131 
0.231229 -0.957228 0.173919 0.2232 -0.959539 0.171656 -0.15222 -0.971846 0.179848 
-0.0420812 -0.98871 0.143814 0.0941601 0.995202 0.0265946 0.306892 0.89994 0.309719 
0.286138 0.90783 0.306543 0.107653 0.993348 0.0408822 0.245205 0.945742 0.213183 
-0.0973367 0.991369 -0.0878246 0.0596295 0.997692 -0.0324881 -0.143123 0.982985 -0.115135 
-0.323131 0.912525 -0.250767 -0.156773 0.937731 -0.309973 0.0217482 0.946984 -0.320544 
0.0613118 0.964978 -0.255064 0.0147064 0.97636 -0.215648 -0.218188 0.958512 -0.183438 
0.601698 0.787844 0.131385 0.338769 0.899884 0.274672 0.397259 0.891828 0.216399 
-0.132103 0.87723 -0.461538 0.0549011 0.872434 -0.485638 0.0718479 0.85037 -0.521257 
-0.0407074 0.852405 -0.521295 -0.390765 0.914567 -0.104259 -0.166522 0.864642 -0.473988 
-0.405232 0.909088 -0.0966757 -0.682923 0.727289 -0.0683214 0.724984 0.679682 0.111496 
-0.739737 0.670266 -0.0594322 -0.664545 0.676601 -0.317162 0.933711 0.352644 0.0618455 
0.999046 0.0362319 0.0243918 -0.939561 0.341346 0.026604 -0.977077 0.211033 0.0280415 
0.998936 -0.0434997 0.0153326 0.996339 -0.0826862 0.0217054 0.998396 -0.0321704 -0.0465839 
-0.977336 -0.209593 0.0297649 -0.954689 0.0192305 -0.296982 0.933156 -0.356977 0.0422674 
-0.956131 -0.29105 0.03321 0.819016 -0.571141 -0.0548714 0.770424 -0.632183 -0.082404 
-0.821164 -0.569472 0.0372936 -0.724217 -0.687179 0.057403 0.717162 -0.684855 -0.129041 
0.676582 -0.720696 -0.15111 -0.502076 -0.863479 0.0481986 -0.622685 -0.780639 0.0535391 
-0.565443 -0.823485 0.0463397 0.629047 -0.760172 -0.162595 0.599177 -0.788171 -0.140617 
0.660823 -0.70205 -0.265403 0.489961 -0.870577 0.0451077 -0.505098 -0.861711 0.0482777 
-0.557945 -0.827335 0.0649089 0.467872 -0.880804 0.0726649 0.390388 -0.911178 0.13173 
0.292163 -0.949773 0.112128 -0.147216 -0.98783 -0.050187 -0.318381 -0.946859 0.0457425 
-0.542171 -0.835707 0.0874377 -0.50547 -0.857822 0.0929591 0.159807 -0.986356 -0.0395539 
0.147789 -0.987693 -0.0511938 0.125982 -0.990002 -0.0634346 -0.123447 -0.990572 -0.0593951 
-0.0180805 -0.995478 -0.0932539 -0.0300054 -0.988272 -0.149728 0.367037 0.929455 0.0373831 
0.227133 0.973861 0.00245151 0.0863211 0.995023 -0.0497713 -0.121013 0.941658 -0.314064 
-0.312201 0.799922 -0.5125 -0.302309 0.770268 -0.561513 0.679098 0.704154 -0.207349 
0.48669 0.871858 -0.054743 0.501511 0.862277 -0.0704693 -0.36663 0.656182 -0.659551 
-0.246706 0.790021 -0.561252 -0.296598 0.75271 -0.587756 -0.130252 0.815057 -0.56455 
0.0594764 0.791752 -0.60794 0.0733904 0.827175 -0.557131 -0.0408496 0.831738 -0.553663 
-0.144683 0.799079 -0.583558 -0.380265 0.74508 -0.547954 0.752874 0.617605 -0.227477 
0.685174 0.586255 -0.432253 -0.133701 0.604137 -0.785584 0.000259848 0.559851 -0.828594 
0.0539142 0.497393 -0.865848 -0.00534185 0.499802 -0.866123 -0.144346 0.522245 -0.840491 
-0.56309 0.637772 -0.525525 -0.354592 0.577515 -0.735351 -0.614641 0.594732 -0.51818 
0.911935 0.282031 -0.298048 -0.741091 0.402004 -0.537751 -0.579508 0.356407 -0.732901 
0.944416 0.011188 -0.328563 -0.885018 0.0222519 -0.465024 -0.51569 0.105232 -0.850288 
0.878698 -0.381561 -0.286881 0.687529 -0.347058 -0.637852 -0.87441 -0.246675 -0.417802 
-0.601209 -0.188042 -0.776652 0.729455 -0.587963 -0.349564 0.719052 -0.599876 -0.350875 
0.719342 -0.584231 -0.375794 -0.750904 -0.530635 -0.393153 -0.708052 -0.594499 -0.381095 
-0.700723 -0.49547 -0.513319 0.657138 -0.671725 -0.341987 0.65666 -0.672386 -0.341608 
0.654885 -0.6639 -0.361058 0.66439 -0.693399 -0.278898 -0.515399 -0.804705 -0.294642 
-0.40327 -0.511343 -0.758882 -0.583193 -0.739153 -0.336953 -0.55949 -0.756603 -0.338412 
-0.533339 -0.720018 -0.443987 0.665434 -0.694237 -0.274284 0.617351 -0.783881 -0.066397 
-0.531835 -0.802927 -0.269185 -0.586662 -0.776844 -0.228784 -0.552911 -0.584346 -0.593995 
0.592286 -0.804495 -0.0445441 0.421667 -0.906577 0.0177553 0.181945 -0.983256 -0.0101691 
0.0307866 -0.992623 -0.117266 -0.0446572 -0.972489 -0.228627 -0.103693 -0.96578 -0.237732 
-0.255217 -0.947879 -0.190761 -0.545977 -0.817199 -0.184649 -0.493722 -0.850776 -0.180051 
-0.503248 -0.759191 -0.41276 0.393576 0.816105 -0.423166 0.194554 0.877237 -0.438867 
-0.0876147 0.864736 -0.494525 -0.355816 0.683677 -0.637166 0.464314 0.763577 -0.448735 
0.543024 0.651248 -0.530096 0.389526 0.725172 -0.567799 0.106362 0.62326 -0.774748 
-0.150419 0.56909 -0.8084 -0.374564 0.629251 -0.680989 -0.359258 0.61338 -0.703349 
-0.36311 0.544513 -0.75608 -0.215716 0.526956 -0.822061 0.602563 0.516971 -0.607996 
0.674848 0.342482 -0.653671 0.488605 0.440807 -0.752964 0.258046 0.26447 -0.92923 
-0.110491 0.17576 -0.978213 -0.290439 0.284858 -0.91351 -0.331792 0.400203 -0.854255 
-0.180021 0.540385 -0.821935 -0.207477 0.504605 -0.838049 -0.134968 0.552509 -0.822507 
-0.0489226 0.415756 -0.90816 0.0494981 0.394521 -0.917553 0.00101981 0.426461 -0.904505 
-0.117961 0.434339 -0.892992 -0.299465 0.3799 -0.875212 0.713979 0.22946 -0.6615 
0.659749 0.230611 -0.715227 0.353171 0.140449 -0.924957 0.161362 0.0744364 -0.984084 
-0.164975 0.0854775 -0.982587 -0.237209 0.244434 -0.940204 -0.119497 0.271289 -0.955051 
-0.129211 0.429805 -0.893629 -0.0828285 0.328432 -0.940889 0.0538721 0.265623 -0.962571 
0.0264032 0.275368 -0.960976 -0.0914938 0.2967 -0.950578 -0.365128 0.317504 -0.875142 
-0.300817 0.31973 -0.898489 0.749473 -0.0503247 -0.66012 0.68715 -0.340983 -0.641526 
0.657748 -0.0514342 -0.75148 0.324231 -0.00942841 -0.945931 -0.0311281 0.0220403 -0.999272 
-0.0338161 0.159054 -0.986691 -0.157457 0.315455 -0.935786 -0.0181062 0.28231 -0.959152 
-0.0753829 0.378391 -0.922571 -0.213386 0.295698 -0.931144 -0.00611282 0.166799 -0.985972 
0.0194919 0.133716 -0.990828 -0.0869823 0.105342 -0.990625 -0.424159 0.0959421 -0.900491 
-0.262565 0.0857369 -0.961098 0.684929 -0.34611 -0.641155 0.388739 -0.220423 -0.894592 
0.188572 -0.116333 -0.975145 -0.322627 0.22802 -0.918651 -0.101767 0.127773 -0.986569 
-0.0351783 0.0456115 -0.99834 -0.137621 -0.0291017 -0.990057 -0.455908 -0.125002 -0.881205 
-0.305932 -0.0818301 -0.94853 0.613049 -0.515219 -0.598933 0.597008 -0.553183 -0.581008 
0.545959 -0.480261 -0.686497 0.31895 -0.25707 -0.912242 -0.303654 0.157975 -0.939595 
-0.190324 0.0846347 -0.978066 -0.138468 -0.069746 -0.987908 -0.402024 -0.509323 -0.760899 
-0.215501 -0.20244 -0.955289 -0.454974 -0.345134 -0.820903 -0.424756 -0.399797 -0.812247 
-0.400665 -0.32789 -0.855544 0.614374 -0.566937 -0.54875 0.638395 -0.567763 -0.519709 
0.558425 -0.483179 -0.674314 0.315937 -0.215427 -0.923999 -0.332611 -0.0420558 -0.942126 
-0.402681 -0.509592 -0.760371 -0.517027 -0.513951 -0.684498 -0.323528 -0.277211 -0.904701 
0.672659 -0.561192 -0.482279 0.663129 -0.630876 -0.40281 0.595308 -0.434713 -0.675746 
-0.538147 -0.531879 -0.653836 -0.496997 -0.659231 -0.564277 -0.468284 -0.342162 -0.814638 
0.594241 -0.717156 -0.364094 0.44334 -0.827174 -0.345302 0.433643 -0.649223 -0.624871 
0.139835 -0.934876 -0.326273 0.164719 -0.496376 -0.852337 -0.0836772 -0.921344 -0.379637 
-0.0746675 -0.554091 -0.829101 -0.125675 -0.875924 -0.465794 -0.120632 -0.682764 -0.720611 
-0.101128 -0.870481 -0.481701 -0.11333 -0.693987 -0.711013 -0.428274 -0.729853 -0.532818 
-0.258983 -0.821696 -0.507684 -0.282116 -0.706181 -0.649399 0.0663264 0.230182 -0.970885 
0.11257 0.194763 -0.974369 -0.103904 0.175932 -0.978903 0.0635051 0.181529 -0.981333 
-0.105509 0.156535 -0.982021 0.105858 0.0420853 -0.99349 0.136809 0.0358978 -0.989947 
0.0304772 -0.00135952 -0.999535 -0.0826951 0.0138907 -0.996478 -0.0407184 0.0147994 -0.999061 
-0.0633763 -0.0025249 -0.997986 0.144589 0.0144156 -0.989387 0.164469 -0.0664037 -0.984145 
0.123017 0.0168611 -0.992261 -0.0291476 0.0209546 -0.999355 -0.0156244 0.0131022 -0.999792 
-0.0198699 0.0282119 -0.999404 -0.0255605 0.160093 -0.986771 -0.148049 0.299437 -0.94256 
-0.0448412 0.284359 -0.957669 -0.0802477 0.313272 -0.946267 0.167256 -0.101129 -0.980713 
0.0357546 -0.00746107 -0.999333 0.0809785 0.0829422 -0.993259 0.127206 0.15793 -0.979223 
-0.113458 0.202445 -0.972699 -0.0483005 0.282306 -0.958108 -0.220711 0.213992 -0.951575 
-0.0848497 0.189354 -0.978236 0.19745 -0.10428 -0.974751 0.215146 -0.117475 -0.96949 
0.181696 -0.0855056 -0.97963 0.131944 0.0397002 -0.990462 0.0970572 0.0224513 -0.995026 
-0.0221956 0.0256468 -0.999425 -0.0286002 0.179804 -0.983287 -0.291713 0.152009 -0.94435 
-0.126305 0.0801362 -0.988749 -0.304082 0.139646 -0.942355 0.25654 -0.146699 -0.955336 
0.187598 -0.0533844 -0.980794 0.109544 -0.0293914 -0.993547 0.0490594 -0.00589861 -0.998778 
-0.0016723 0.0165437 -0.999862 -0.121285 -0.0294306 -0.992181 -0.315697 0.00665976 -0.948837 
-0.299532 0.0206297 -0.953863 0.323874 -0.24099 -0.914893 0.312464 -0.26146 -0.913239 
0.301849 -0.22704 -0.925927 0.161425 -0.433994 -0.886336 0.136342 -0.15979 -0.97769 
-0.0729353 -0.547326 -0.833735 0.0248307 -0.175302 -0.984201 -0.101382 -0.498286 -0.861065 
-0.0525164 -0.259514 -0.96431 -0.131128 -0.450921 -0.882879 -0.131672 -0.291708 -0.947401 
-0.288859 -0.278126 -0.916082 -0.278393 -0.298583 -0.912878 -0.277474 -0.276104 -0.920204 

