# vtk DataFile Version 4.2
vtk output
ASCII
DATASET POLYDATA
POINTS 572 float
-26.4855 -38.7513 -13.8073 -18.3519 -38.7513 -16.1259 -10.2184 -38.7513 -16.5742 
-2.08482 -38.7513 -16.464 6.04873 -38.7513 -16.4334 14.1823 -38.7513 -16.4274 
22.3158 -38.7513 -15.9004 30.4494 -38.7513 -13.9507 -34.619 -30.6177 -15.0763 
-26.4855 -30.6177 -17.1665 -18.3519 -30.6177 -18.7617 -10.2184 -30.6177 -18.4605 
-2.08482 -30.6177 -18.4185 6.04873 -30.6177 -18.8368 14.1823 -30.6177 -19.5384 
22.3158 -30.6177 -19.7272 30.4494 -30.6177 -18.4125 38.5829 -30.6177 -16.1688 
-42.7526 -22.4842 -16.2349 -34.619 -22.4842 -17.448 -26.4855 -22.4842 -18.2011 
-18.3519 -22.4842 -18.8098 -10.2184 -22.4842 -18.791 -2.08482 -22.4842 -18.4458 
6.04873 -22.4842 -19.3938 14.1823 -22.4842 -20.089 22.3158 -22.4842 -20.1997 
30.4494 -22.4842 -20.0075 38.5829 -22.4842 -18.9681 46.7165 -22.4842 -17.1365 
-59.0197 -14.3506 -14.0723 -50.8861 -14.3506 -16.7845 -42.7526 -14.3506 -18.9562 
-34.619 -14.3506 -18.8587 -26.4855 -14.3506 -18.2768 -18.3519 -14.3506 -18.0488 
-10.2184 -14.3506 -18.6052 -2.08482 -14.3506 -17.6937 6.04873 -14.3506 -19.1107 
14.1823 -14.3506 -19.6511 22.3158 -14.3506 -19.2095 30.4494 -14.3506 -19.4789 
38.5829 -14.3506 -19.6346 46.7165 -14.3506 -18.8561 54.8501 -14.3506 -16.2549 
-59.0197 -6.21708 -14.611 -50.8861 -6.21708 -18.1364 -42.7526 -6.21708 -19.4253 
-34.619 -6.21708 -19.6567 -26.4855 -6.21708 -18.3561 -18.3519 -6.21708 -16.3258 
-10.2184 -6.21708 -19.1523 -2.08482 -6.21708 -18.6638 6.04873 -6.21708 -20.0917 
14.1823 -6.21708 -19.8211 22.3158 -6.21708 -17.9719 30.4494 -6.21708 -19.1247 
38.5829 -6.21708 -19.8976 46.7165 -6.21708 -20.3816 54.8501 -6.21708 -18.5102 
62.9836 -6.21708 -14.0309 -59.0197 1.91647 -14.9086 -50.8861 1.91647 -18.2478 
-42.7526 1.91647 -19.4238 -34.619 1.91647 -19.5253 -26.4855 1.91647 -17.9391 
-18.3519 1.91647 -15.5786 -10.2184 1.91647 -15.09 -2.08482 1.91647 -16.5668 
6.04873 1.91647 -19.2717 14.1823 1.91647 -20.425 22.3158 1.91647 -17.7335 
30.4494 1.91647 -18.9539 38.5829 1.91647 -19.9322 46.7165 1.91647 -20.4241 
54.8501 1.91647 -18.2099 62.9836 1.91647 -14.6343 -59.0197 10.05 -13.7434 
-50.8861 10.05 -17.6466 -42.7526 10.05 -19.2197 -34.619 10.05 -19.0972 
-26.4855 10.05 -17.7315 -18.3519 10.05 -15.8583 -10.2184 10.05 -16.2934 
-2.08482 10.05 -20.1589 6.04873 10.05 -17.2799 14.1823 10.05 -17.2413 
22.3158 10.05 -17.613 30.4494 10.05 -18.7235 38.5829 10.05 -19.4643 
46.7165 10.05 -19.5916 54.8501 10.05 -18.1937 62.9836 10.05 -14.2531 
-50.8861 18.1836 -16.043 -42.7526 18.1836 -18.2683 -34.619 18.1836 -18.3037 
-26.4855 18.1836 -18.0947 -18.3519 18.1836 -16.086 -10.2184 18.1836 -14.056 
-2.08482 18.1836 -15.112 6.04873 18.1836 -14.4893 14.1823 18.1836 -15.1363 
22.3158 18.1836 -16.6714 30.4494 18.1836 -17.9516 38.5829 18.1836 -18.3478 
46.7165 18.1836 -17.8375 54.8501 18.1836 -17.0054 62.9836 18.1836 -13.8556 
-42.7526 26.3171 -16.216 -34.619 26.3171 -16.7433 -26.4855 26.3171 -15.9001 
-18.3519 26.3171 -14.237 6.04873 26.3171 -13.8363 14.1823 26.3171 -14.003 
22.3158 26.3171 -15.0151 30.4494 26.3171 -15.9849 38.5829 26.3171 -15.8956 
46.7165 26.3171 -15.3668 -26.4855 -39.0079 -13.6259 -18.3519 -41.937 -13.6259 
-18.3519 -46.8848 -6.64231 -10.2184 -42.991 -13.6259 -10.2184 -46.8848 -6.55803 
-2.08482 -42.5322 -13.6259 6.04873 -42.1896 -13.6259 14.1823 -41.9218 -13.6259 
22.3158 -40.9516 -13.6259 30.4494 -39.0619 -13.6259 -26.9321 -38.7513 -13.6259 
-34.619 -33.3614 -13.6259 -34.619 -38.7513 -8.57324 31.1519 -38.7513 -13.6259 
38.5829 -34.173 -13.6259 -37.9652 -30.6177 -13.6259 -42.7526 -27.1054 -13.6259 
-42.7526 -30.6177 -10.5134 43.9881 -30.6177 -13.6259 46.7165 -28.6916 -13.6259 
46.7165 -30.6177 -11.0348 -59.0197 -15.1846 -13.6259 -59.0197 -22.4842 -5.72263 
-48.5449 -22.4842 -13.6259 -50.8861 -20.4142 -13.6259 -50.8861 -22.4842 -12.0409 
53.1875 -22.4842 -13.6259 54.8501 -20.2876 -13.6259 54.8501 -22.4842 -11.6728 
-59.5711 -14.3506 -13.6259 59.6208 -14.3506 -13.6259 62.9836 -7.52467 -13.6259 
62.9836 -14.3506 -9.71558 -60.2369 -6.21708 -13.6259 63.4796 -6.21708 -13.6259 
-60.6074 1.91647 -13.6259 64.3806 1.91647 -13.6259 -59.1617 10.05 -13.6259 
-59.0197 10.769 -13.6259 63.9075 10.05 -13.6259 -56.6805 18.1836 -13.6259 
-59.0197 18.1836 -11.6343 -50.8861 24.7241 -13.6259 -10.2184 20.4131 -13.6259 
-2.08482 23.6726 -13.6259 54.8501 23.5429 -13.6259 63.2689 18.1836 -13.6259 
62.9836 18.6131 -13.6259 -59.0197 26.3171 -6.72083 -49.4569 26.3171 -13.6259 
-50.8861 26.3171 -12.8365 -42.7526 30.9927 -13.6259 -34.619 33.4571 -13.6259 
-26.4855 31.8357 -13.6259 -15.4463 26.3171 -13.6259 -18.3519 27.9255 -13.6259 
-10.2184 26.3171 -12.5666 3.94308 26.3171 -13.6259 -2.08482 26.3171 -13.0277 
6.04873 26.9701 -13.6259 14.1823 27.5537 -13.6259 22.3158 31.3494 -13.6259 
30.4494 32.4973 -13.6259 38.5829 30.7423 -13.6259 51.2279 26.3171 -13.6259 
46.7165 30.9433 -13.6259 54.8501 26.3171 -11.838 62.9836 26.3171 -5.57584 
-50.8861 34.4507 -6.00403 -42.7526 34.4507 -10.7675 -34.619 34.4507 -13.0543 
-26.4855 34.4507 -12.2822 -18.3519 34.4507 -10.5941 -10.2184 34.4507 -9.95321 
-2.08482 34.4507 -10.2985 6.04873 34.4507 -11.0139 14.1823 34.4507 -11.2504 
22.3158 34.4507 -12.5051 30.4494 34.4507 -12.6573 38.5829 34.4507 -11.3043 
46.7165 34.4507 -10.4434 -18.3519 -47.4037 -5.49235 -10.2184 -47.2879 -5.49235 
-34.619 -40.7034 -5.49235 -20.2362 -46.8848 -5.49235 -26.4855 -44.8556 -5.49235 
-18.3519 -46.8848 -2.74789 -7.07114 -46.8848 -5.49235 -10.2184 -46.8848 -3.79485 
-2.08482 -46.2507 -5.49235 6.04873 -45.3483 -5.49235 14.1823 -45.0452 -5.49235 
22.3158 -44.3221 -5.49235 30.4494 -42.1678 -5.49235 -37.6582 -38.7513 -5.49235 
-42.7526 -34.9673 -5.49235 37.9247 -38.7513 -5.49235 38.5829 -38.437 -5.49235 
46.7165 -33.4952 -5.49235 -59.0197 -22.6272 -5.49235 -49.2025 -30.6177 -5.49235 
-50.8861 -29.3096 -5.49235 50.3978 -30.6177 -5.49235 54.8501 -26.5769 -5.49235 
-59.1506 -22.4842 -5.49235 58.6943 -22.4842 -5.49235 62.9836 -17.3454 -5.49235 
-64.0116 -14.3506 -5.49235 65.0731 -14.3506 -5.49235 -66.6177 -6.21708 -5.49235 
-67.1533 -6.21708 1.91497 69.537 -6.21708 -5.49235 -66.9924 1.91647 -5.49235 
-67.1533 1.91647 -4.33197 70.8509 1.91647 -5.49235 -65.9681 10.05 -5.49235 
71.0549 10.05 -5.49235 -62.695 18.1836 -5.49235 68.1986 18.1836 -5.49235 
-59.7466 26.3171 -5.49235 -59.0197 27.3179 -5.49235 54.8501 33.5714 -5.49235 
63.0439 26.3171 -5.49235 62.9836 26.3801 -5.49235 62.9836 26.3171 -4.19431 
-51.2894 34.4507 -5.49235 -50.8861 34.7814 -5.49235 -42.7526 39.3427 -5.49235 
-34.619 40.9364 -5.49235 -26.4855 41.3737 -5.49235 -18.3519 40.0304 -5.49235 
-10.2184 39.7405 -5.49235 -2.08482 40.5175 -5.49235 6.04873 40.769 -5.49235 
14.1823 40.8738 -5.49235 22.3158 40.9856 -5.49235 30.4494 41.2593 -5.49235 
38.5829 39.9138 -5.49235 53.0076 34.4507 -5.49235 46.7165 37.1945 -5.49235 
-34.619 42.5842 2.45046 -26.4855 42.5842 -0.0879264 -18.3519 42.5842 0.508676 
-10.2184 42.5842 0.361572 -2.08482 42.5842 0.121381 6.04873 42.5842 2.32248 
-34.619 -40.5134 2.64121 -26.4855 -43.9985 2.64121 -18.3519 -45.6975 2.64121 
-10.2184 -45.1864 2.64121 -2.08482 -43.6763 2.64121 6.04873 -42.412 2.64121 
14.1823 -42.0892 2.64121 22.3158 -41.7072 2.64121 30.4494 -39.8274 2.64121 
-37.7731 -38.7513 2.64121 -42.7526 -35.7518 2.64121 -34.619 -38.7513 6.1116 
-26.4855 -38.7513 10.1392 -2.08482 -38.7513 9.691 6.04873 -38.7513 7.77373 
14.1823 -38.7513 7.27148 22.3158 -38.7513 6.92924 33.3335 -38.7513 2.64121 
30.4494 -38.7513 4.66064 38.5829 -36.5697 2.64121 46.7165 -31.5727 2.64121 
-59.0197 -23.3177 2.64121 -50.5852 -30.6177 2.64121 -50.8861 -30.4029 2.64121 
47.9904 -30.6177 2.64121 46.7165 -30.6177 4.12755 54.8501 -24.6802 2.64121 
-59.7641 -22.4842 2.64121 -59.0197 -22.4842 4.46237 56.9744 -22.4842 2.64121 
54.8501 -22.4842 5.4605 62.9836 -15.4007 2.64121 -65.037 -14.3506 2.64121 
-67.1533 -6.41989 2.64121 63.7234 -14.3506 2.64121 62.9836 -14.3506 3.80264 
-67.1997 -6.21708 2.64121 -67.1533 -6.21708 2.77378 68.5372 -6.21708 2.64121 
-68.0031 1.91647 2.64121 -67.1533 7.38173 2.64121 -67.1533 1.91647 5.06576 
70.1543 1.91647 2.64121 -66.7383 10.05 2.64121 70.6032 10.05 2.64121 
-64.4678 18.1836 2.64121 68.196 18.1836 2.64121 62.9836 25.948 2.64121 
62.9836 18.1836 9.83036 -61.2481 26.3171 2.64121 -59.0197 29.372 2.64121 
-59.0197 26.3171 10.3621 62.6582 26.3171 2.64121 54.8501 33.4092 2.64121 
-54.4271 34.4507 2.64121 -50.8861 37.4117 2.64121 -42.7526 41.1027 2.64121 
14.1823 42.2668 2.64121 22.3158 42.4994 2.64121 30.4494 41.8054 2.64121 
38.5829 40.5449 2.64121 53.1598 34.4507 2.64121 46.7165 38.0128 2.64121 
46.7165 34.4507 8.20102 -34.8034 42.5842 2.64121 -34.619 42.6161 2.64121 
-34.619 42.5842 2.7488 -26.4855 43.0462 2.64121 -26.4855 42.5842 4.10069 
-18.3519 43.2303 2.64121 -18.3519 42.5842 4.40939 -10.2184 43.3551 2.64121 
-10.2184 42.5842 4.73601 -2.08482 43.2464 2.64121 -2.08482 42.5842 4.27303 
7.38707 42.5842 2.64121 6.04873 42.6418 2.64121 6.04873 42.5842 2.76198 
-18.3519 -39.5368 10.7748 -10.2184 -39.3613 10.7748 -42.7526 -32.0431 10.7748 
-34.619 -35.6282 10.7748 -22.9767 -38.7513 10.7748 -26.4855 -38.0558 10.7748 
-18.3519 -38.7513 11.4625 -6.92874 -38.7513 10.7748 -10.2184 -38.7513 11.3456 
-2.08482 -37.7011 10.7748 6.04873 -35.824 10.7748 14.1823 -35.0317 10.7748 
22.3158 -35.0517 10.7748 30.4494 -34.1295 10.7748 38.5829 -30.6794 10.7748 
-45.1003 -30.6177 10.7748 -50.8861 -26.6619 10.7748 -42.7526 -30.6177 12.2944 
-34.619 -30.6177 14.8413 -26.4855 -30.6177 16.1785 -18.3519 -30.6177 16.4555 
-10.2184 -30.6177 16.5988 -2.08482 -30.6177 15.9484 6.04873 -30.6177 14.5952 
14.1823 -30.6177 14.045 22.3158 -30.6177 14.2687 30.4494 -30.6177 13.5707 
38.6879 -30.6177 10.7748 38.5829 -30.6177 10.8339 46.7165 -24.8161 10.7748 
-55.5548 -22.4842 10.7748 -59.0197 -18.0888 10.7748 -50.8861 -22.4842 14.7332 
-42.7526 -22.4842 17.7702 -10.2184 -22.4842 18.5964 -2.08482 -22.4842 18.6643 
6.04873 -22.4842 17.2697 14.1823 -22.4842 17.1506 22.3158 -22.4842 17.7844 
30.4494 -22.4842 17.8282 38.5829 -22.4842 16.4735 49.3502 -22.4842 10.7748 
[...]
POINT_DATA 572
SCALARS ImageScalars float
LOOKUP_TABLE default
0 0 0 0 0 0 0 0 0 
0 0 0 0 0 0 0 0 0 
0 0 0 0 0 0 0 0 0 
0 0 0 0 0 0 0 0 0 
0 0 0 0 0 0 0 0 0 
0 0 0 0 0 0 0 0 0 
0 0 0 0 0 0 0 0 0 
0 0 0 0 0 0 0 0 0 
0 0 0 0 0 0 0 0 0 
0 0 0 0 0 0 0 0 0 
0 0 0 0 0 0 0 0 0 
0 0 0 0 0 0 0 0 0 
0 0 0 0 0 0 0 0 0 
0 0 0 0 0 0 0 0 0 
0 0 0 0 0 0 0 0 0 
0 0 0 0 0 0 0 0 0 
0 0 0 0 0 0 0 0 0 
0 0 0 0 0 0 0 0 0 
0 0 0 0 0 0 0 0 0 
0 0 0 0 0 0 0 0 0 
0 0 0 0 0 0 0 0 0 
0 0 0 0 0 0 0 0 0 
0 0 0 0 0 0 0 0 0 
0 0 0 0 0 0 0 0 0 
0 0 0 0 0 0 0 0 0 
0 0 0 0 0 0 0 0 0 
0 0 0 0 0 0 0 0 0 
0 0 0 0 0 0 0 0 0 
0 0 0 0 0 0 0 0 0 
0 0 0 0 0 0 0 0 0 
0 0 0 0 0 0 0 0 0 
0 0 0 0 0 0 0 0 0 
0 0 0 0 0 0 0 0 0 
0 0 0 0 0 0 0 0 0 
0 0 0 0 0 0 0 0 0 
0 0 0 0 0 0 0 0 0 
0 0 0 0 0 0 0 0 0 
0 0 0 0 0 0 0 0 0 
0 0 0 0 0 0 0 0 0 
0 0 0 0 0 0 0 0 0 
0 0 0 0 0 0 0 0 0 
0 0 0 0 0 0 0 0 0 
0 0 0 0 0 0 0 0 0 
0 0 0 0 0 0 0 0 0 
0 0 0 0 0 0 0 0 0 
0 0 0 0 0 0 0 0 0 
0 0 0 0 0 0 0 0 0 
0 0 0 0 0 0 0 0 0 
0 0 0 0 0 0 0 0 0 
0 0 0 0 0 0 0 0 0 
0 0 0 0 0 0 0 0 0 
0 0 0 0 0 0 0 0 0 
0 0 0 0 0 0 0 0 0 
0 0 0 0 0 0 0 0 0 
0 0 0 0 0 0 0 0 0 
0 0 0 0 0 0 0 0 0 
0 0 0 0 0 0 0 0 0 
0 0 0 0 0 0 0 0 0 
0 0 0 0 0 0 0 0 0 
0 0 0 0 0 0 0 0 0 
0 0 0 0 0 0 0 0 0 
0 0 0 0 0 0 0 0 0 
0 0 0 0 0 0 0 0 0 
0 0 0 0 0 
NORMALS Normals float
0.304655 0.54158 0.783503 0.160823 0.481646 0.861483 0.0164752 0.428354 0.903461 
-0.00888845 0.466044 0.884717 -0.00232628 0.52441 0.851462 -0.0265081 0.59247 0.805157 
-0.13753 0.648831 0.748401 -0.285282 0.72345 0.628677 0.316876 0.38484 0.866884 
0.211736 0.239315 0.947574 0.0853194 0.14014 0.986449 -0.0197454 0.130743 0.99122 
0.0226826 0.116203 0.992966 0.0707445 0.168452 0.983168 0.0515638 0.197075 0.979032 
-0.0717042 0.217343 0.973458 -0.190385 0.315157 0.929747 -0.319212 0.470003 0.822923 
0.2425 0.3849 0.890531 0.119495 0.22087 0.967955 0.0872595 0.07054 0.993685 
0.0353951 -0.0441134 0.998399 -0.0223511 0.00879669 0.999711 0.0348462 -0.044101 0.998419 
0.102811 0.0165247 0.994564 0.0476288 0.00864727 0.998828 -0.00466281 -0.0342818 0.999401 
-0.0816074 0.0656492 0.9945 -0.166719 0.177524 0.969892 -0.332349 0.305216 0.892405 
0.594534 0.302633 0.744945 0.286832 0.26845 0.919599 0.126614 0.198231 0.971943 
-0.0423652 0.138876 0.989403 -0.0476645 0.00937826 0.998819 0.0198405 -0.142835 0.989548 
-0.0211974 0.00811371 0.999742 0.0313975 0.00287713 0.999503 0.122314 0.035036 0.991873 
0.0057753 -0.0182241 0.999817 -0.0105654 -0.136313 0.99061 0.0258784 -0.053118 0.998253 
-0.0377603 0.0604849 0.997455 -0.191566 0.191495 0.962617 -0.392165 0.315363 0.864149 
0.560611 0.0498539 0.826577 0.251726 0.0907494 0.963534 0.0870547 0.0265817 0.995849 
-0.0681593 0.0404454 0.996854 -0.189075 -0.0207095 0.981744 -0.0255631 -0.159164 0.986921 
0.17502 -0.080698 0.981252 0.0681271 -0.0214309 0.997446 0.0668527 0.0319452 0.997251 
-0.144958 0.0467864 0.988331 -0.025344 -0.0909582 0.995532 0.117478 -0.0320663 0.992558 
0.0753775 0.0179707 0.996993 -0.0975008 0.0986142 0.990338 -0.31632 0.104297 0.942902 
-0.633698 0.156133 0.75766 0.546529 -0.044898 0.836236 0.237134 -0.0289541 0.971045 
0.0735115 -0.013392 0.997204 -0.0942675 -0.0350962 0.994928 -0.233082 -0.0384831 0.971695 
-0.164791 -0.026415 0.985975 0.0370875 -0.157561 0.986813 0.195938 0.125767 0.972518 
0.201028 -0.190466 0.960891 -0.13722 -0.161907 0.977219 -0.0617286 -0.0219575 0.997851 
0.134085 -0.0245363 0.990666 0.0888392 -0.0264432 0.995695 -0.0981563 -0.0453241 0.994138 
-0.297555 -0.0205813 0.954483 -0.541733 0.0115809 0.840471 0.587425 -0.129222 0.798895 
0.293964 -0.132028 0.946654 0.081244 -0.0678926 0.994379 -0.0908738 -0.0717572 0.993274 
-0.195683 0.008735 0.980628 -0.099625 0.0307695 0.994549 0.29561 -0.122553 0.947415 
-0.0235541 -0.129227 0.991335 -0.172024 -0.265484 0.948644 0.0222199 -0.306389 0.951647 
0.0888446 -0.0641015 0.993981 0.112435 -0.0598411 0.991856 0.0531101 -0.0960644 0.993957 
-0.0861378 -0.154688 0.984201 -0.272673 -0.0552125 0.960521 -0.551473 -0.0451461 0.83297 
0.332347 -0.247711 0.910047 0.136222 -0.194806 0.971336 -0.0103062 -0.135954 0.990662 
-0.135422 -0.108705 0.984807 -0.235804 -0.0952741 0.967119 -0.0735627 -0.173493 0.982084 
0.0239345 -0.428523 0.903214 0.00729272 -0.18959 0.981836 0.132403 -0.184005 0.973967 
0.167681 -0.15753 0.973174 0.102009 -0.164234 0.981133 -0.00583875 -0.204946 0.978756 
-0.0699472 -0.248748 0.966039 -0.25226 -0.328315 0.910261 -0.559517 -0.288755 0.776892 
0.186408 -0.359969 0.914152 -0.0172615 -0.314811 0.948997 -0.144049 -0.32576 0.934415 
-0.201859 -0.293758 0.934323 0.0591622 -0.197127 0.978591 0.0701506 -0.213467 0.974428 
0.117333 -0.23733 0.964317 0.0535617 -0.307311 0.9501 -0.0362492 -0.349598 0.936198 
-0.194777 -0.330437 0.923511 0.307285 0.554162 0.773615 0.170163 0.623336 0.763215 
0.138137 0.968738 0.206071 0.0226905 0.670109 0.741916 -0.0632018 0.988403 0.138076 
-0.0385729 0.698789 0.714287 -0.0312801 0.737805 0.674289 -0.0639073 0.769196 0.635809 
-0.16042 0.76664 0.621715 -0.288621 0.738973 0.608783 0.313314 0.550848 0.773564 
0.377457 0.48668 0.787826 0.494502 0.757807 0.42567 -0.301357 0.735667 0.606612 
-0.405594 0.644099 0.64856 0.36935 0.488876 0.790304 0.361775 0.520597 0.773368 
0.458009 0.659912 0.595604 -0.453188 0.620515 0.639986 -0.478313 0.596883 0.644165 
-0.54727 0.723068 0.421508 0.598423 0.336289 0.727186 0.716831 0.631776 0.294977 
0.396582 0.505408 0.766346 0.398432 0.489265 0.775804 0.463593 0.571693 0.676941 
-0.555817 0.478303 0.679922 -0.545602 0.467219 0.695719 -0.642371 0.563533 0.519414 
0.619232 0.304678 0.723687 -0.566748 0.370905 0.735681 -0.646608 0.187749 0.739357 
-0.780279 0.469021 0.413744 0.610021 0.0501963 0.790794 -0.644716 0.162046 0.747049 
0.612237 -0.0466381 0.789298 -0.565074 0.0221702 0.824742 0.592079 -0.129503 0.795406 
0.592983 -0.138381 0.793235 -0.585316 -0.0517026 0.809155 0.553317 -0.254006 0.793298 
0.69037 -0.272715 0.670086 0.405033 -0.369975 0.836102 -0.0761403 -0.175229 0.981579 
0.0624896 -0.30903 0.948997 -0.335563 -0.448638 0.828324 -0.5734 -0.296016 0.763929 
-0.564873 -0.312324 0.763788 0.756847 -0.493281 0.428786 0.3802 -0.395439 0.836108 
0.436171 -0.413256 0.799359 0.207118 -0.516637 0.830776 0.0483638 -0.528689 0.847436 
-0.126318 -0.456889 0.880509 -0.155019 -0.267354 0.951047 -0.188784 -0.331113 0.924513 
-0.0660771 -0.220315 0.973188 0.0640994 -0.214153 0.974695 0.0759387 -0.258722 0.962962 
0.059484 -0.217303 0.97429 0.0739113 -0.247768 0.965996 0.0958279 -0.38402 0.918339 
-0.0322515 -0.470678 0.881715 -0.037276 -0.487401 0.872382 -0.306442 -0.406282 0.86083 
-0.202437 -0.505903 0.838499 -0.42919 -0.523913 0.735739 -0.702967 -0.659209 0.266985 
0.5417 -0.720744 0.432538 0.25176 -0.670693 0.697702 0.0624497 -0.571887 0.817952 
-0.115354 -0.546458 0.829504 -0.121985 -0.536 0.835359 -0.0123382 -0.470408 0.882363 
0.0594689 -0.481057 0.87467 0.0560278 -0.505323 0.861109 0.0756103 -0.511846 0.855743 
0.0761047 -0.512123 0.855534 -0.0573763 -0.549731 0.833369 -0.0948668 -0.664392 0.741339 
-0.257608 -0.754729 0.603343 0.132376 0.982939 0.127702 -0.0710994 0.995191 0.0673708 
0.504767 0.827093 0.24724 0.188256 0.972771 0.135187 0.380676 0.90666 0.181804 
0.118156 0.992395 -0.0345258 -0.0900765 0.994698 0.0496292 -0.0812362 0.996429 -0.0230129 
-0.120085 0.992464 0.0243784 -0.0741326 0.997151 -0.0139371 -0.0624789 0.997862 -0.0191971 
-0.171723 0.985079 0.0113918 -0.331104 0.943243 0.0257456 0.53014 0.804501 0.267823 
0.548127 0.771668 0.322622 -0.443111 0.894775 0.0550517 -0.454452 0.888721 0.0604047 
-0.586066 0.806062 0.082403 0.719589 0.634089 0.283058 0.582246 0.748217 0.318058 
0.590649 0.73956 0.322777 -0.638253 0.764688 0.0887976 -0.696946 0.709759 0.102514 
0.723162 0.630128 0.2828 -0.733596 0.670779 0.109053 -0.804584 0.582706 0.114451 
0.856719 0.425941 0.290873 -0.840845 0.525024 0.131642 0.945825 0.141799 0.292075 
0.981607 0.159805 -0.104453 -0.921431 0.330391 0.204469 0.947635 -0.0343345 0.317505 
0.966524 -0.0336219 0.254363 -0.97608 0.0903988 0.197729 0.918813 -0.221077 0.326968 
-0.956378 -0.153346 0.248648 0.859413 -0.357262 0.365751 -0.871696 -0.40886 0.270146 
0.791775 -0.487713 0.367734 0.771066 -0.5181 0.370175 -0.509237 -0.81553 0.274935 
-0.70472 -0.658586 0.263883 -0.703868 -0.659533 0.263792 -0.72062 -0.671278 0.173476 
0.554739 -0.724966 0.408276 0.54466 -0.732449 0.40849 0.309148 -0.846274 0.433876 
0.0994459 -0.897923 0.428771 -0.0394212 -0.885657 0.462663 -0.0834271 -0.813332 0.575787 
0.0237687 -0.779629 0.625791 0.0499244 -0.805356 0.590685 0.0178455 -0.861192 0.507967 
0.0116398 -0.88159 0.471872 0.0203938 -0.891766 0.452038 -0.0577423 -0.919669 0.388426 
-0.199952 -0.91239 0.357161 -0.468707 -0.842761 0.264701 -0.354051 -0.88918 0.28984 
0.112163 -0.992221 -0.05401 0.0152929 -0.995586 0.0926004 -0.00332855 -0.995181 0.0979963 
0.00698947 -0.991884 0.126955 -0.0205871 -0.994225 0.105324 -0.0578621 -0.989924 -0.129239 
0.445166 0.865977 -0.22784 0.27993 0.910811 -0.303418 0.0744995 0.921227 -0.381826 
-0.109778 0.911451 -0.396492 -0.155239 0.884262 -0.440433 -0.088722 0.873359 -0.478929 
-0.0399105 0.872294 -0.48735 -0.129098 0.88529 -0.446761 -0.276807 0.881985 -0.381419 
0.486179 0.850225 -0.201861 0.528182 0.836753 -0.144459 0.400723 0.832552 -0.382462 
0.174938 0.69029 -0.702066 -0.147205 0.727319 -0.670327 -0.0943865 0.76384 -0.638467 
-0.0333016 0.767452 -0.640241 -0.0844966 0.800342 -0.59356 -0.32465 0.871381 -0.367828 
-0.261436 0.855594 -0.446778 -0.413673 0.835431 -0.361842 -0.549701 0.760506 -0.345628 
0.74033 0.65847 -0.135381 0.592999 0.796546 -0.117752 0.597244 0.793531 -0.116655 
-0.572849 0.744359 -0.343181 -0.5457 0.738739 -0.39557 -0.663053 0.668575 -0.336702 
0.758492 0.637235 -0.136464 0.740256 0.634802 -0.221467 -0.680576 0.656939 -0.324417 
-0.630268 0.633961 -0.44817 -0.773754 0.542767 -0.326663 0.900273 0.413571 -0.135899 
0.976015 0.166564 -0.140184 -0.786448 0.525692 -0.324265 -0.764629 0.52559 -0.372957 
0.977052 0.160709 -0.139794 0.976091 0.161037 -0.145991 -0.862771 0.370843 -0.343658 
0.993499 -0.0287367 -0.110157 0.983372 -0.147107 -0.106486 0.972685 -0.0193664 -0.231321 
-0.947467 0.10598 -0.301785 0.973336 -0.204622 -0.103665 -0.947552 -0.113732 -0.29868 
0.945408 -0.323747 -0.0373044 -0.877484 -0.383478 -0.288038 -0.712255 -0.637583 -0.293565 
-0.608387 -0.38063 -0.696409 0.864649 -0.500099 -0.0477823 0.808964 -0.586097 -0.0454744 
0.736753 -0.501965 -0.453019 -0.70464 -0.646616 -0.292182 -0.539483 -0.800364 -0.261485 
0.665687 -0.745837 -0.0242471 0.547787 -0.836062 -0.0305007 0.304846 -0.949609 -0.0728818 
-0.00907736 -0.985167 -0.171358 -0.0274988 -0.985346 -0.168337 -0.116611 -0.968481 -0.220105 
-0.212929 -0.954259 -0.209885 -0.513768 -0.820358 -0.251108 -0.408699 -0.881226 -0.2375 
-0.405654 -0.711925 -0.573243 0.116304 -0.991135 -0.0642294 0.112105 -0.991631 -0.0640346 
0.112099 -0.991257 -0.0695887 0.0373664 -0.996778 -0.070977 0.0320088 -0.988838 -0.145516 
0.0190657 -0.999346 -0.0307242 0.0139628 -0.990807 -0.13456 0.00101526 -0.999893 -0.0145819 
-0.00435427 -0.98815 -0.153429 -0.0439781 -0.996536 -0.070589 -0.0566129 -0.983075 -0.174237 
-0.0516865 -0.986789 -0.153545 -0.0600413 -0.986799 -0.150407 -0.0605653 -0.98572 -0.157121 
0.053966 0.671844 -0.738725 -0.0787815 0.687381 -0.722012 0.38956 0.731255 -0.559919 
0.273417 0.715316 -0.643091 0.118041 0.665794 -0.736739 0.161239 0.659971 -0.733785 
0.0541293 0.649139 -0.758742 -0.105102 0.689345 -0.716769 -0.0748317 0.668966 -0.739516 
-0.142648 0.684605 -0.714819 -0.106122 0.644876 -0.756884 -0.0312873 0.628375 -0.777281 
-0.0367757 0.666962 -0.744184 -0.191002 0.681938 -0.70603 -0.347107 0.654867 -0.671316 
0.434364 0.714147 -0.548929 0.538961 0.653145 -0.531904 0.369507 0.692616 -0.619474 
0.1909 0.563761 -0.803573 0.0857982 0.472529 -0.877129 0.0221762 0.397123 -0.917497 
-0.027003 0.38211 -0.923722 -0.110492 0.447695 -0.887334 -0.102864 0.459089 -0.882415 
-0.0187778 0.494328 -0.869073 -0.0239573 0.530121 -0.847584 -0.164501 0.576746 -0.80019 
-0.348584 0.654293 -0.671111 -0.346302 0.653504 -0.673058 -0.47758 0.568515 -0.669857 
0.618371 0.580515 -0.529736 0.699588 0.465247 -0.54233 0.472234 0.525325 -0.707834 
0.233335 0.4287 -0.872795 -0.0172633 0.1925 -0.981145 -0.0773656 0.212151 -0.97417 
-0.0913341 0.194649 -0.976611 0.0326178 0.218672 -0.975253 0.0393506 0.267514 -0.96275 
-0.069766 0.321973 -0.944175 -0.260993 0.394911 -0.880868 -0.497274 0.543338 -0.676389 
-0.458442 0.508931 -0.728574 -0.548722 0.465722 -0.694267 0.743406 0.365797 -0.559947 
0.675333 0.366334 -0.640098 0.361876 0.273918 -0.891075 -0.107423 0.146667 -0.983336 
0.0747513 0.107037 -0.991441 -0.167381 0.199544 -0.965487 -0.335937 0.306132 -0.890747 
-0.570919 0.44057 -0.692784 -0.522326 0.418344 -0.743077 -0.655293 0.332707 -0.678157 
0.799722 0.16642 -0.576844 0.620518 0.175673 -0.764262 -0.216434 0.159749 -0.963139 
-0.419096 0.238388 -0.876088 -0.661958 0.319251 -0.678152 -0.652146 0.317667 -0.688326 
0.834528 0.0097005 -0.550881 0.596336 0.0280754 -0.802244 -0.116163 -0.0286926 -0.992816 
-0.385682 0.0279151 -0.92221 -0.680701 0.0819745 -0.72796 -0.604627 0.0670271 -0.793683 
0.841309 -0.135536 -0.523288 0.634722 -0.125222 -0.762527 -0.198076 0.13204 -0.971252 
-0.0680947 -0.154838 -0.98559 0.048021 -0.193104 -0.980003 0.0905483 -0.102273 -0.990627 
-0.148501 -0.159008 -0.976045 -0.348788 -0.123945 -0.92897 -0.648173 -0.127482 -0.750746 
-0.586948 -0.297415 -0.753018 -0.574218 -0.125948 -0.808957 0.827015 -0.275749 -0.489906 
0.730802 -0.489384 -0.475847 0.696546 -0.251697 -0.671917 -0.162899 -0.0697209 -0.984176 
0.0267495 -0.116249 -0.99286 0.0893206 -0.148874 -0.984814 0.0691693 -0.161964 -0.98437 
-0.0729683 -0.230035 -0.970443 -0.200423 -0.221042 -0.954448 -0.558753 -0.354201 -0.749891 
-0.414227 -0.324622 -0.850316 0.723557 -0.499327 -0.47659 0.417186 -0.397719 -0.817175 
-0.0963091 -0.2526 -0.962766 -0.0353676 -0.259975 -0.964967 -0.124748 -0.252565 -0.959505 
-0.145807 -0.217207 -0.965174 -0.03421 -0.229018 -0.972821 0.0362076 -0.2857 -0.957635 
-0.00707311 -0.280399 -0.959857 -0.102146 -0.347414 -0.932132 -0.344807 -0.586809 -0.732642 
-0.26531 -0.459595 -0.847574 -0.449544 -0.472715 -0.757925 -0.439958 -0.486703 -0.75469 
-0.432482 -0.461665 -0.774484 0.493443 -0.702633 -0.512661 0.490016 -0.705407 -0.512138 
0.490247 -0.701814 -0.516832 0.264921 -0.786372 -0.558065 0.217733 -0.679303 -0.700814 
0.0935026 -0.817948 -0.567642 0.0475403 -0.619597 -0.783479 -0.00275951 -0.810917 -0.585154 
-0.0140829 -0.565448 -0.824664 -0.00851813 -0.784917 -0.619543 -0.0257474 -0.537145 -0.843097 
-0.0213215 -0.761383 -0.647951 -0.045515 -0.537057 -0.842317 -0.108499 -0.72726 -0.677732 
-0.119297 -0.53997 -0.833187 -0.0995214 -0.656289 -0.747918 -0.112832 -0.527334 -0.842133 
-0.0192755 -0.625389 -0.780075 -0.0295695 -0.51644 -0.855813 -0.0293522 -0.613004 -0.789535 
-0.00868845 -0.518835 -0.85483 -0.026821 -0.655209 -0.754971 -0.0053841 -0.597108 -0.802143 
-0.26667 -0.639995 -0.72062 -0.17233 -0.689759 -0.703232 -0.170728 -0.59954 -0.781923 
0.0845446 0.36948 -0.925384 -0.0107285 0.289948 -0.956982 -0.0329681 0.235117 -0.971408 
0.113858 0.370189 -0.921953 0.205226 0.338031 -0.918486 0.0731747 0.352215 -0.933054 
-0.0191441 0.274116 -0.961506 -0.0317413 0.226808 -0.973422 -0.0339599 0.232076 -0.972105 
-0.0216915 0.185848 -0.982339 -0.0855758 0.171486 -0.981463 0.0799989 0.148195 -0.985717 
-0.0415253 0.206316 -0.977604 0.293572 0.256918 -0.920765 0.339394 0.232182 -0.911539 
0.171808 0.224901 -0.959115 0.0402182 0.172234 -0.984235 -0.0543442 0.165012 -0.984793 
-0.0746679 0.134109 -0.98815 -0.0368241 0.168178 -0.985069 -0.111907 0.0864791 -0.989949 
-0.11464 0.0301753 -0.992949 -0.0588394 0.124875 -0.990426 0.0870398 0.111503 -0.989945 
-0.00210357 0.101892 -0.994793 0.0920984 0.113263 -0.989287 -0.141092 0.18824 -0.971936 
-0.0285422 0.140336 -0.989693 -0.158555 0.186175 -0.969639 0.412068 0.177508 -0.893695 
0.325106 0.174651 -0.92941 0.117058 0.124083 -0.985343 -0.000515668 0.075807 -0.997122 
-0.0650844 0.0333651 -0.997322 -0.0347108 0.0132699 -0.999309 -0.118104 0.0661734 -0.990794 
-0.106576 -0.156838 -0.981857 -0.107316 -0.167963 -0.979934 -0.013574 0.109889 -0.993851 
-0.0042452 0.101926 -0.994783 0.0785003 -0.0160363 -0.996785 0.0266261 0.0303793 -0.999184 
-0.199214 0.150273 -0.968365 -0.0863546 0.0826725 -0.992828 -0.205575 0.109961 -0.972444 
0.481176 0.0328484 -0.876008 0.309693 0.0417997 -0.949917 0.071899 0.0373495 -0.996712 
-0.0496636 0.0120993 -0.998693 -0.119612 -0.0221225 -0.992574 -0.0422386 -0.0401512 -0.9983 
-0.15581 -0.0430709 -0.986848 -0.192606 -0.0572634 -0.979604 0.0996752 -0.127894 -0.986766 
0.0879017 -0.174225 -0.980775 0.178138 -0.166632 -0.969794 -0.0129463 -0.131794 -0.991193 
-0.0531856 -0.0902632 -0.994497 0.0291345 -0.0943552 -0.995112 0.0232283 -0.093596 -0.995339 
0.0687081 -0.0733186 -0.994939 -0.0414156 -0.0446215 -0.998145 -0.221817 -0.00508855 -0.975075 
-0.162696 -0.0923165 -0.982348 -0.182481 -0.0122592 -0.983133 0.468832 -0.119899 -0.875112 
0.337985 -0.109854 -0.934718 0.0854157 -0.0761581 -0.99343 -0.0591742 -0.0453503 -0.997217 
-0.11668 -0.0154847 -0.993049 -0.0691254 -0.0209198 -0.997389 -0.188614 0.108787 -0.976007 
-0.105129 -0.0665755 -0.992228 -0.193908 0.0563505 -0.9794 0.0751082 -0.122772 -0.989589 
0.0732203 -0.127974 -0.989071 0.0733091 -0.125038 -0.98944 -0.0926482 -0.135656 -0.986415 
-0.0511995 -0.16731 -0.984574 -0.0256978 -0.104792 -0.994162 0.368358 -0.172461 -0.913548 
0.359227 -0.221179 -0.906662 0.344206 -0.168252 -0.923696 0.133503 -0.163701 -0.977435 
0.0103744 -0.154367 -0.987959 -0.0944603 -0.108025 -0.98965 -0.097498 -0.227637 -0.968853 
-0.0921619 -0.113919 -0.989206 -0.0458664 -0.210548 -0.976507 -0.0663829 -0.129237 -0.989389 
-0.184639 -0.0424909 -0.981887 -0.172792 -0.0878212 -0.981035 -0.186393 -0.0403898 -0.981645 
0.224774 -0.354108 -0.907791 0.123101 -0.384511 -0.914876 0.112695 -0.338091 -0.934342 
0.0251313 -0.377591 -0.925631 0.020105 -0.317456 -0.94806 -0.0919227 -0.262669 -0.960497 
-0.0513557 -0.367873 -0.928457 -0.0660843 -0.310028 -0.948428 
