# vtk DataFile Version 4.2
vtk output
ASCII
DATASET POLYDATA
POINTS 524 float
-16.8946 -44.9936 -17.5881 -8.48555 -44.9936 -18.9216 -0.0765035 -44.9936 -19.0595 
8.33254 -44.9936 -18.3395 16.7416 -44.9936 -17.1478 -25.3036 -36.5846 -18.7743 
-16.8946 -36.5846 -20.6917 -8.48555 -36.5846 -21.8375 -0.0765035 -36.5846 -20.3485 
8.33254 -36.5846 -21.1395 16.7416 -36.5846 -20.2541 25.1506 -36.5846 -19.4508 
33.5597 -36.5846 -16.838 -33.7127 -28.1756 -18.4048 -25.3036 -28.1756 -20.9495 
-16.8946 -28.1756 -20.7552 -8.48555 -28.1756 -20.6018 -0.0765035 -28.1756 -19.9016 
8.33254 -28.1756 -20.4079 16.7416 -28.1756 -20.5671 25.1506 -28.1756 -21.5561 
33.5597 -28.1756 -19.9142 41.9687 -28.1756 -17.465 -42.1217 -19.7665 -16.7624 
-33.7127 -19.7665 -19.4138 -25.3036 -19.7665 -20.3358 -16.8946 -19.7665 -19.8351 
-8.48555 -19.7665 -18.9226 -0.0765035 -19.7665 -18.8662 8.33254 -19.7665 -19.2201 
16.7416 -19.7665 -20.0091 25.1506 -19.7665 -21.4937 33.5597 -19.7665 -22.4176 
41.9687 -19.7665 -20.5207 50.3777 -19.7665 -16.4905 -42.1217 -11.3575 -17.6239 
-33.7127 -11.3575 -19.5888 -25.3036 -11.3575 -19.5858 -16.8946 -11.3575 -19.2877 
-8.48555 -11.3575 -19.1296 -0.0765035 -11.3575 -22.9099 8.33254 -11.3575 -21.356 
16.7416 -11.3575 -19.8161 25.1506 -11.3575 -21.5485 33.5597 -11.3575 -22.3744 
41.9687 -11.3575 -21.881 50.3777 -11.3575 -18.5893 -42.1217 -2.94844 -17.073 
-33.7127 -2.94844 -18.5366 -25.3036 -2.94844 -18.6474 -16.8946 -2.94844 -19.9806 
-8.48555 -2.94844 -21.3849 -0.0765035 -2.94844 -20.0846 8.33254 -2.94844 -22.9346 
16.7416 -2.94844 -20.5675 25.1506 -2.94844 -21.7295 33.5597 -2.94844 -22.4478 
41.9687 -2.94844 -21.9025 50.3777 -2.94844 -19.0391 -42.1217 5.4606 -15.6412 
-33.7127 5.4606 -17.3829 -25.3036 5.4606 -17.4936 -16.8946 5.4606 -18.8022 
-8.48555 5.4606 -21.6844 -0.0765035 5.4606 -20.7306 8.33254 5.4606 -22.026 
16.7416 5.4606 -19.1611 25.1506 5.4606 -20.5284 33.5597 5.4606 -21.3249 
41.9687 5.4606 -20.866 50.3777 5.4606 -18.2885 -33.7127 13.8696 -16.2197 
-25.3036 13.8696 -17.2014 -16.8946 13.8696 -18.3755 -8.48555 13.8696 -20.4755 
-0.0765035 13.8696 -20.004 8.33254 13.8696 -18.7586 16.7416 13.8696 -18.8648 
25.1506 13.8696 -19.6908 33.5597 13.8696 -20.3273 41.9687 13.8696 -19.7557 
50.3777 13.8696 -16.4263 -33.7127 22.2787 -16.0009 -25.3036 22.2787 -18.0074 
-16.8946 22.2787 -19.3862 -8.48555 22.2787 -19.9312 -0.0765035 22.2787 -19.3669 
8.33254 22.2787 -19.6807 16.7416 22.2787 -20.2673 25.1506 22.2787 -20.449 
33.5597 22.2787 -19.7593 41.9687 22.2787 -17.4584 -25.3036 30.6877 -17.5649 
-16.8946 30.6877 -19.5903 -8.48555 30.6877 -20.104 -0.0765035 30.6877 -20.4967 
8.33254 30.6877 -21.0632 16.7416 30.6877 -20.5465 25.1506 30.6877 -19.9204 
33.5597 30.6877 -17.5444 -25.3036 39.0968 -15.851 -16.8946 39.0968 -18.3962 
-8.48555 39.0968 -19.165 -0.0765035 39.0968 -19.6839 8.33254 39.0968 -19.5087 
16.7416 39.0968 -18.4909 -16.8946 -47.1328 -15.5345 -8.48555 -49.8351 -15.5345 
-8.48555 -53.4027 -7.20375 -0.0765035 -50.1366 -15.5345 -0.0765035 -53.4027 -8.20247 
8.33254 -48.9164 -15.5345 16.7416 -46.7071 -15.5345 -21.6972 -44.9936 -15.5345 
-25.3036 -42.7306 -15.5345 -25.3036 -44.9936 -11.9706 23.7376 -44.9936 -15.5345 
25.1506 -44.5273 -15.5345 25.1506 -44.9936 -14.8541 33.5597 -38.3458 -15.5345 
-33.4624 -36.5846 -15.5345 -33.7127 -36.3135 -15.5345 -33.7127 -36.5846 -15.3164 
36.0117 -36.5846 -15.5345 41.9687 -31.3324 -15.5345 41.9687 -36.5846 -7.77486 
-40.1412 -28.1756 -15.5345 -42.1217 -24.3441 -15.5345 -42.1217 -28.1756 -14.1867 
44.7949 -28.1756 -15.5345 50.3777 -21.5373 -15.5345 -44.201 -19.7665 -15.5345 
-50.5308 -19.7665 -10.8916 51.4699 -19.7665 -15.5345 -46.3928 -11.3575 -15.5345 
-50.5308 -11.3575 -13.2271 53.987 -11.3575 -15.5345 58.7868 -11.3575 -7.49222 
-45.5329 -2.94844 -15.5345 -50.5308 -2.94844 -13.0036 54.7613 -2.94844 -15.5345 
58.7868 -2.94844 -9.92091 -42.3621 5.4606 -15.5345 -50.5308 5.4606 -11.4235 
-42.1217 6.02803 -15.5345 54.0206 5.4606 -15.5345 58.7868 5.4606 -9.29633 
-50.5308 13.8696 -9.1209 -36.5167 13.8696 -15.5345 -42.1217 13.8696 -14.1053 
51.4945 13.8696 -15.5345 50.3777 15.9205 -15.5345 -35.1453 22.2787 -15.5345 
-42.1217 22.2787 -12.8744 -33.7127 25.1247 -15.5345 45.193 22.2787 -15.5345 
41.9687 26.0234 -15.5345 50.3777 22.2787 -10.7519 -42.1217 30.6877 -10.1259 
-31.1768 30.6877 -15.5345 -33.7127 30.6877 -14.5943 25.1506 38.6692 -15.5345 
37.6342 30.6877 -15.5345 33.5597 33.422 -15.5345 41.9687 30.6877 -11.07 
-26.1075 39.0968 -15.5345 -33.7127 39.0968 -11.8795 -25.3036 39.7182 -15.5345 
-16.8946 45.942 -15.5345 -8.48555 47.3654 -15.5345 -0.0765035 46.8299 -15.5345 
8.33254 45.058 -15.5345 24.5221 39.0968 -15.5345 16.7416 42.3993 -15.5345 
25.1506 39.0968 -14.2147 -25.3036 47.5058 -9.78763 -16.8946 47.5058 -14.4535 
-8.48555 47.5058 -15.4462 -0.0765035 47.5058 -14.9042 8.33254 47.5058 -10.6273 
-8.48555 -53.4261 -7.12545 -0.0765035 -53.7423 -7.12545 -25.3036 -46.7367 -7.12545 
-8.56937 -53.4027 -7.12545 -16.8946 -50.7688 -7.12545 -8.48555 -53.4027 -6.98989 
2.79702 -53.4027 -7.12545 -0.0765035 -53.4027 -5.42011 8.33254 -52.7473 -7.12545 
16.7416 -50.9804 -7.12545 25.1506 -47.8905 -7.12545 -28.0891 -44.9936 -7.12545 
-33.7127 -41.0645 -7.12545 30.5754 -44.9936 -7.12545 33.5597 -43.1731 -7.12545 
41.9687 -36.8512 -7.12545 -39.835 -36.5846 -7.12545 -42.1217 -34.6963 -7.12545 
-42.1217 -36.5846 0.367178 42.2649 -36.5846 -7.12545 41.9687 -36.5846 -6.23406 
-48.4919 -28.1756 -7.12545 -50.5308 -25.128 -7.12545 -50.5308 -28.1756 -2.31827 
50.3319 -28.1756 -7.12545 50.3777 -28.1138 -7.12545 -53.8291 -19.7665 -7.12545 
55.7483 -19.7665 -7.12545 58.7868 -11.8296 -7.12545 -56.5677 -11.3575 -7.12545 
58.9424 -11.3575 -7.12545 58.7868 -11.3575 -4.24879 -56.0193 -2.94844 -7.12545 
-58.9398 -2.94844 0.587567 60.1805 -2.94844 -7.12545 -55.0982 5.4606 -7.12545 
59.8387 5.4606 -7.12545 58.7868 9.03947 -7.12545 -52.596 13.8696 -7.12545 
-50.5308 19.5541 -7.12545 57.2041 13.8696 -7.12545 -49.3487 22.2787 -7.12545 
-50.5308 22.2787 -5.49009 52.8201 22.2787 -7.12545 50.3777 25.4285 -7.12545 
-45.5862 30.6877 -7.12545 -42.1217 35.1534 -7.12545 33.5597 37.0893 -7.12545 
44.9194 30.6877 -7.12545 41.9687 32.7075 -7.12545 -38.9556 39.0968 -7.12545 
-42.1217 39.0968 -0.221801 -33.7127 44.0645 -7.12545 16.7416 44.311 -7.12545 
28.507 39.0968 -7.12545 25.1506 40.3663 -7.12545 -28.7104 47.5058 -7.12545 
-25.3036 49.4886 -7.12545 -16.8946 52.3296 -7.12545 -8.48555 53.4032 -7.12545 
-0.0765035 51.9418 -7.12545 10.5896 47.5058 -7.12545 8.33254 48.6585 -7.12545 
-25.3036 -45.969 1.28359 -16.8946 -49.7234 1.28359 -8.48555 -51.9216 1.28359 
-0.0765035 -52.0545 1.28359 8.33254 -50.8347 1.28359 16.7416 -49.0208 1.28359 
25.1506 -45.132 1.28359 -42.1217 -36.7913 1.28359 -27.2212 -44.9936 1.28359 
-33.7127 -41.5041 1.28359 -25.3036 -44.9936 6.18372 16.7416 -44.9936 8.08497 
25.4659 -44.9936 1.28359 25.1506 -44.9936 1.49779 33.5597 -40.9557 1.28359 
-42.4618 -36.5846 1.28359 -50.5308 -30.0427 1.28359 -42.1217 -36.5846 2.89591 
38.7864 -36.5846 1.28359 33.5597 -36.5846 6.75731 41.9687 -34.0883 1.28359 
-51.883 -28.1756 1.28359 48.5983 -28.1756 1.28359 41.9687 -28.1756 9.38449 
50.3777 -26.1309 1.28359 -56.7021 -19.7665 1.28359 54.6859 -19.7665 1.28359 
50.3777 -19.7665 8.85026 -58.9274 -11.3575 1.28359 -58.9398 -10.9129 1.28359 
58.4712 -11.3575 1.28359 58.7868 -9.90502 1.28359 -59.1656 -2.94844 1.28359 
-58.9398 -1.34318 1.28359 -58.9398 -2.94844 2.36922 60.2234 -2.94844 1.28359 
58.7868 -2.94844 4.82006 -57.9726 5.4606 1.28359 60.1763 5.4606 1.28359 
58.7868 10.5442 1.28359 58.7868 5.4606 4.97703 -56.1761 13.8696 1.28359 
57.8448 13.8696 1.28359 -53.6811 22.2787 1.28359 -50.5308 28.2959 1.28359 
53.7118 22.2787 1.28359 50.3777 26.3013 1.28359 -49.0787 30.6877 1.28359 
33.5597 36.9931 1.28359 45.6679 30.6877 1.28359 41.9687 33.1245 1.28359 
-42.7075 39.0968 1.28359 -42.1217 39.7052 1.28359 -42.1217 39.0968 3.17739 
-33.7127 46.6069 1.28359 16.7416 43.6099 1.28359 26.8899 39.0968 1.28359 
25.1506 39.6283 1.28359 -32.1012 47.5058 1.28359 -25.3036 50.8044 1.28359 
-16.8946 53.3203 1.28359 -8.48555 54.1541 1.28359 -0.0765035 52.4993 1.28359 
10.2991 47.5058 1.28359 8.33254 48.6636 1.28359 -16.8946 -47.9276 9.69264 
-8.48555 -49.5379 9.69264 -0.0765035 -49.1565 9.69264 8.33254 -47.3128 9.69264 
-33.7127 -40.3456 9.69264 -23.7791 -44.9936 9.69264 -25.3036 -44.315 9.69264 
-16.8946 -44.9936 14.3462 -8.48555 -44.9936 15.9854 -0.0765035 -44.9936 15.3518 
14.4967 -44.9936 9.69264 8.33254 -44.9936 12.8041 16.7416 -43.9656 9.69264 
25.1506 -39.5122 9.69264 -50.5308 -28.2174 9.69264 -40.627 -36.5846 9.69264 
-42.1217 -35.7431 9.69264 -33.7127 -36.5846 15.5556 16.7416 -36.5846 16.4807 
30.0133 -36.5846 9.69264 25.1506 -36.5846 12.6137 33.5597 -34.1383 9.69264 
-50.5628 -28.1756 9.69264 -50.5308 -28.1756 9.73966 -42.1217 -28.1756 17.6185 
25.1506 -28.1756 17.7634 41.63 -28.1756 9.69264 33.5597 -28.1756 14.6251 
41.9687 -27.8996 9.69264 -55.2322 -19.7665 9.69264 -50.5308 -19.7665 16.328 
49.7335 -19.7665 9.69264 41.9687 -19.7665 15.47 50.3777 -18.7928 9.69264 
-56.9839 -11.3575 9.69264 -50.5308 -11.3575 16.7947 54.2104 -11.3575 9.69264 
50.3777 -11.3575 13.8221 -57.0768 -2.94844 9.69264 -50.5308 -2.94844 16.3913 
56.3162 -2.94844 9.69264 50.3777 -2.94844 15.3404 -55.8047 5.4606 9.69264 
-50.5308 5.4606 15.5087 56.5786 5.4606 9.69264 50.3777 5.4606 15.5929 
-54.2559 13.8696 9.69264 -50.5308 13.8696 14.7987 54.4278 13.8696 9.69264 
50.3777 13.8696 14.3644 -51.6892 22.2787 9.69264 -50.5308 24.6416 9.69264 
-50.5308 22.2787 11.4216 -42.1217 22.2787 17.8164 41.9687 22.2787 17.8853 
50.9085 22.2787 9.69264 50.3777 23.015 9.69264 50.3777 22.2787 10.3845 
-46.6054 30.6877 9.69264 -42.1217 36.2756 9.69264 -42.1217 30.6877 14.5762 
33.5597 36.6012 9.69264 43.3883 30.6877 9.69264 41.9687 31.7397 9.69264 
41.9687 30.6877 11.4448 -38.928 39.0968 9.69264 -33.7127 42.9052 9.69264 
-33.7127 39.0968 13.6426 -25.3036 39.0968 16.7021 16.7416 43.8317 9.69264 
26.3261 39.0968 9.69264 25.1506 39.5246 9.69264 25.1506 39.0968 11.4038 
[...]
POINT_DATA 524
SCALARS ImageScalars float
LOOKUP_TABLE default
0 0 0 0 0 0 0 0 0 
0 0 0 0 0 0 0 0 0 
0 0 0 0 0 0 0 0 0 
0 0 0 0 0 0 0 0 0 
0 0 0 0 0 0 0 0 0 
0 0 0 0 0 0 0 0 0 
0 0 0 0 0 0 0 0 0 
0 0 0 0 0 0 0 0 0 
0 0 0 0 0 0 0 0 0 
0 0 0 0 0 0 0 0 0 
0 0 0 0 0 0 0 0 0 
0 0 0 0 0 0 0 0 0 
0 0 0 0 0 0 0 0 0 
0 0 0 0 0 0 0 0 0 
0 0 0 0 0 0 0 0 0 
0 0 0 0 0 0 0 0 0 
0 0 0 0 0 0 0 0 0 
0 0 0 0 0 0 0 0 0 
0 0 0 0 0 0 0 0 0 
0 0 0 0 0 0 0 0 0 
0 0 0 0 0 0 0 0 0 
0 0 0 0 0 0 0 0 0 
0 0 0 0 0 0 0 0 0 
0 0 0 0 0 0 0 0 0 
0 0 0 0 0 0 0 0 0 
0 0 0 0 0 0 0 0 0 
0 0 0 0 0 0 0 0 0 
0 0 0 0 0 0 0 0 0 
0 0 0 0 0 0 0 0 0 
0 0 0 0 0 0 0 0 0 
0 0 0 0 0 0 0 0 0 
0 0 0 0 0 0 0 0 0 
0 0 0 0 0 0 0 0 0 
0 0 0 0 0 0 0 0 0 
0 0 0 0 0 0 0 0 0 
0 0 0 0 0 0 0 0 0 
0 0 0 0 0 0 0 0 0 
0 0 0 0 0 0 0 0 0 
0 0 0 0 0 0 0 0 0 
0 0 0 0 0 0 0 0 0 
0 0 0 0 0 0 0 0 0 
0 0 0 0 0 0 0 0 0 
0 0 0 0 0 0 0 0 0 
0 0 0 0 0 0 0 0 0 
0 0 0 0 0 0 0 0 0 
0 0 0 0 0 0 0 0 0 
0 0 0 0 0 0 0 0 0 
0 0 0 0 0 0 0 0 0 
0 0 0 0 0 0 0 0 0 
0 0 0 0 0 0 0 0 0 
0 0 0 0 0 0 0 0 0 
0 0 0 0 0 0 0 0 0 
0 0 0 0 0 0 0 0 0 
0 0 0 0 0 0 0 0 0 
0 0 0 0 0 0 0 0 0 
0 0 0 0 0 0 0 0 0 
0 0 0 0 0 0 0 0 0 
0 0 0 0 0 0 0 0 0 
0 0 
NORMALS Normals float
0.270748 0.594942 0.756796 0.0694859 0.469436 0.880228 -0.0345872 0.382214 0.923427 
-0.100087 0.482965 0.869901 -0.185432 0.593965 0.782828 0.282637 0.352768 0.892004 
0.180474 0.146335 0.972633 -0.0244541 0.102669 0.994415 -0.0373767 0.0501744 0.998041 
-0.00289511 0.117579 0.993059 -0.102282 0.158507 0.982046 -0.166153 0.326528 0.930469 
-0.413847 0.509589 0.754354 0.343478 0.198949 0.917846 0.136733 0.0857918 0.986886 
-0.0188372 -0.0511115 0.998515 -0.0531501 -0.165932 0.984704 -0.00954158 -0.0906448 0.995838 
0.0410927 -0.116263 0.992368 0.0637063 -0.0154591 0.997849 -0.0318488 0.124247 0.99174 
-0.203472 0.281839 0.937638 -0.441101 0.467633 0.765996 0.407508 0.166401 0.897913 
0.19456 0.0714648 0.978284 0.0221884 -0.0788113 0.996643 -0.0780818 -0.0867541 0.993165 
-0.0602512 -0.0814496 0.994855 0.0186 0.11897 0.992724 0.0690957 0.0303049 0.99715 
0.133663 -0.0442041 0.990041 0.139486 -0.000232122 0.990224 -0.0567827 0.134789 0.989246 
-0.298274 0.213865 0.930212 -0.627999 0.340993 0.699529 0.344926 0.0145759 0.938517 
0.103595 -0.0555177 0.993069 -0.0178611 -0.0994398 0.994883 -0.025637 0.00590819 0.999654 
0.171534 0.153555 0.973138 0.139982 0.136228 0.980738 -0.182586 0.24735 0.951567 
0.0352737 0.0337129 0.998809 0.150442 0.0133599 0.988529 0.021273 0.00195559 0.999772 
-0.194247 0.0843862 0.977316 -0.525459 0.13232 0.840467 0.306634 -0.109993 0.945451 
0.0829322 -0.12455 0.988741 0.0804491 -0.125198 0.988865 0.165213 -0.0172721 0.986107 
0.0204601 0.132625 0.990955 0.107995 -0.11448 0.987538 -0.0145279 0.0299851 0.999445 
-0.068073 -0.0345087 0.997083 0.113918 -0.0612482 0.9916 0.0094078 -0.0621766 0.998021 
-0.180375 -0.0590465 0.981824 -0.489686 -0.015456 0.871762 0.310662 -0.166753 0.935779 
0.101997 -0.140681 0.984787 0.0698581 -0.0843517 0.993984 0.267508 -0.0981523 0.958543 
0.0958691 -0.049324 0.994171 0.00329364 -0.00822441 0.999961 -0.107817 -0.267168 0.957599 
-0.0513113 -0.105111 0.993136 0.122947 -0.116718 0.985526 0.0207459 -0.125347 0.991896 
-0.155374 -0.130587 0.979186 -0.467946 -0.147142 0.871422 0.170386 -0.0770726 0.982359 
0.12669 0.0286962 0.991527 0.186203 0.0392729 0.981726 0.107145 -0.108547 0.9883 
-0.106195 -0.0791527 0.99119 -0.0592729 -0.103313 0.992881 0.0574244 0.0698418 0.995904 
0.0839787 -0.0045679 0.996457 0.00201454 -0.0895448 0.995981 -0.213004 -0.173297 0.96156 
-0.559047 -0.284262 0.778885 0.276976 -0.0907805 0.956579 0.19233 0.0226304 0.981069 
0.111923 0.0731501 0.991021 0.00115178 -0.0191636 0.999816 -0.0172027 0.0365344 0.999184 
0.05395 0.137959 0.988967 0.0424708 0.0927833 0.99478 -0.0275628 0.01647 0.999484 
-0.157919 -0.159696 0.974453 -0.383911 -0.36202 0.849443 0.282698 -0.11345 0.952476 
0.140992 -0.0577047 0.988328 0.0559714 -0.0422914 0.997536 0.0566308 0.0176379 0.998239 
0.00313417 -0.00829368 0.999961 -0.0661198 -0.095445 0.993236 -0.192029 -0.238113 0.952065 
-0.370103 -0.467236 0.802941 0.337585 -0.331598 0.880954 0.175997 -0.2654 0.947939 
0.0759691 -0.240134 0.967763 0.0206414 -0.264746 0.964097 -0.0724915 -0.387052 0.919204 
-0.210307 -0.549396 0.808663 0.3225 0.702989 0.633877 0.138505 0.725719 0.673905 
0.159873 0.98479 0.0680414 -0.0414179 0.714549 0.698359 -0.0405867 0.991921 0.120191 
-0.15469 0.689854 0.707228 -0.215023 0.684628 0.696455 0.407627 0.67633 0.613529 
0.436609 0.62613 0.646013 0.495889 0.779638 0.382437 -0.301469 0.695087 0.652665 
-0.314415 0.688158 0.653898 -0.333275 0.733494 0.59238 -0.452906 0.570103 0.685463 
0.521089 0.544935 0.656896 0.522223 0.539056 0.660834 0.528686 0.555481 0.641819 
-0.474054 0.554905 0.683633 -0.503447 0.542246 0.672689 -0.665877 0.741369 0.0835465 
0.494528 0.344306 0.798057 0.488559 0.286396 0.824189 0.557057 0.412623 0.720715 
-0.533372 0.51198 0.673343 -0.652952 0.387803 0.650586 0.474948 0.194103 0.85834 
0.690324 0.331374 0.643151 -0.67726 0.34737 0.648577 0.4433 0.0461788 0.895183 
0.57623 0.0874114 0.812599 -0.706319 0.150553 0.691699 -0.952297 0.232543 0.197622 
0.393653 -0.101319 0.913658 0.564685 -0.0881758 0.820583 -0.683197 0.00459209 0.730219 
-0.924956 0.04359 0.377566 0.3177 -0.167135 0.933345 0.604048 -0.19571 0.772544 
0.313452 -0.164032 0.93533 -0.632054 -0.150209 0.760227 -0.918042 -0.167354 0.359433 
0.669907 -0.253292 0.697903 0.226358 -0.0960134 0.969301 0.359616 -0.141191 0.922356 
-0.607201 -0.286913 0.740937 -0.579601 -0.325402 0.747112 0.304366 -0.107426 0.946478 
0.472856 -0.202532 0.857548 0.310723 -0.125138 0.942227 -0.473225 -0.422614 0.772952 
-0.461645 -0.482131 0.744603 -0.697256 -0.5256 0.48742 0.594173 -0.37739 0.710306 
0.350147 -0.165877 0.92189 0.386482 -0.197527 0.900897 -0.433316 -0.766373 0.474246 
-0.461103 -0.548239 0.697723 -0.425542 -0.612253 0.666378 -0.537913 -0.716664 0.443895 
0.348515 -0.335678 0.875133 0.507852 -0.45371 0.732279 0.342197 -0.35288 0.870849 
0.206888 -0.555618 0.805286 0.0216561 -0.597574 0.801521 -0.0847671 -0.671992 0.735691 
-0.207208 -0.731501 0.649593 -0.429386 -0.772969 0.467062 -0.323841 -0.760767 0.56246 
-0.436155 -0.814088 0.383443 0.420287 -0.735162 0.531879 0.216245 -0.647697 0.730565 
0.020581 -0.606643 0.794708 -0.107918 -0.722727 0.682656 -0.360905 -0.877516 0.315773 
0.159836 0.985085 0.0637146 -0.0400435 0.997536 0.0575975 0.493203 0.862738 0.11151 
0.161938 0.984739 0.063757 0.371106 0.923477 0.0973132 0.159548 0.98541 0.0592573 
-0.0797853 0.995471 0.0516813 -0.0448205 0.998976 -0.00614054 -0.158732 0.986054 0.0500166 
-0.286122 0.954117 0.0882892 -0.407874 0.912532 0.0304027 0.526068 0.838697 0.140856 
0.569913 0.792861 0.215802 -0.497113 0.866072 0.0529007 -0.546075 0.834006 0.0789691 
-0.665288 0.745312 0.0436013 0.570932 0.759683 0.311317 0.594041 0.718956 0.360855 
0.527922 0.845986 0.0748702 -0.669507 0.74146 0.0446966 -0.664289 0.747471 0.00267599 
0.719221 0.533386 0.44522 0.741043 0.468356 0.481143 0.776433 0.579888 0.246742 
-0.780345 0.615506 0.110518 -0.781315 0.614251 0.110645 0.792609 0.361211 0.49122 
-0.886491 0.442896 0.134079 -0.952784 0.245607 0.178551 0.865132 0.104858 0.490461 
-0.955014 0.234514 0.181528 -0.965298 0.257056 0.0460672 0.848243 -0.070746 0.524861 
0.994409 -0.0569402 0.0889336 -0.970118 0.0521976 0.236952 0.811361 -0.169861 0.559322 
-0.954453 -0.161608 0.250805 -0.933794 -0.241989 0.263573 0.751609 -0.265391 0.603864 
0.723561 -0.292178 0.625373 -0.887761 -0.357576 0.289861 0.710067 -0.301627 0.63626 
0.784169 -0.332446 0.523983 -0.786919 -0.542054 0.294849 -0.736057 -0.613647 0.285758 
0.705699 -0.420136 0.570505 0.669706 -0.50525 0.544258 -0.405353 -0.902733 0.144092 
-0.58323 -0.773222 0.248939 -0.513502 -0.827405 0.227412 0.653493 -0.576813 0.490136 
0.722329 -0.683624 0.104395 0.564803 -0.692574 0.448709 -0.439033 -0.896878 0.0534715 
-0.390208 -0.917874 0.0724251 -0.391858 -0.919226 0.0383418 0.479333 -0.781897 0.398593 
0.415581 -0.823018 0.387213 0.207751 -0.918823 0.335566 -0.0226403 -0.950765 0.309084 
-0.261115 -0.930235 0.257843 -0.428262 -0.895509 0.12106 -0.417542 -0.896677 0.147069 
0.429353 0.894221 -0.12659 0.330318 0.930234 -0.159857 0.133891 0.965652 -0.222688 
-0.0622109 0.962198 -0.26515 -0.159303 0.939071 -0.304578 -0.286689 0.885143 -0.366512 
-0.365286 0.832179 -0.417187 0.519283 0.85358 0.0417879 0.436874 0.892768 -0.110029 
0.47171 0.880937 -0.0379418 0.409378 0.885491 -0.219808 -0.351182 0.786479 -0.508057 
-0.368911 0.830595 -0.417153 -0.365634 0.829304 -0.422571 -0.511367 0.760757 -0.399691 
0.525365 0.849829 0.0422172 0.756125 0.648829 0.0854168 0.52049 0.853554 -0.0231605 
-0.573915 0.722279 -0.385921 -0.48691 0.682447 -0.545146 -0.592991 0.718953 -0.362585 
0.796964 0.59752 0.0884174 -0.694038 0.646193 -0.317404 -0.516927 0.611952 -0.598583 
-0.738681 0.603806 -0.299613 0.928729 0.366757 0.0543345 -0.834702 0.486596 -0.257869 
-0.67178 0.485411 -0.559542 0.990459 0.137595 0.00764063 0.991774 0.127591 0.0102071 
-0.930224 0.289176 -0.225964 -0.9422 0.25363 -0.218932 0.996803 -0.0558456 0.0571332 
0.995706 -0.0778979 0.0500045 0.998395 -0.0566268 -0.000497746 -0.978375 0.090976 -0.185759 
-0.933638 0.103951 -0.342803 0.984652 -0.173296 0.0207038 -0.979014 -0.134529 -0.153079 
-0.957387 -0.252 -0.14109 -0.93737 -0.122259 -0.326176 0.964655 -0.255239 0.0655296 
-0.934019 -0.333268 -0.128615 0.92295 -0.376649 0.0793662 0.864112 -0.499917 0.0582436 
-0.819404 -0.565942 -0.0910319 -0.737385 -0.670748 -0.0797579 0.838238 -0.543863 0.0396136 
-0.378604 -0.925128 -0.0282231 -0.584302 -0.809467 -0.0579161 -0.487475 -0.871884 -0.0467574 
0.723264 -0.689977 0.0286516 0.712417 -0.701323 0.0246798 0.70911 -0.701051 -0.075432 
0.542838 -0.838738 -0.0429524 -0.47431 -0.880019 -0.0244371 -0.364381 -0.930177 -0.044691 
-0.359499 -0.932017 -0.0458722 0.502953 -0.86303 -0.047085 0.363757 -0.92817 -0.0786181 
0.182195 -0.979882 -0.0814572 -0.0496094 -0.995657 -0.0787725 -0.304778 -0.950942 -0.0530918 
-0.50647 -0.860726 -0.0513723 -0.487804 -0.871474 -0.0508041 0.275981 0.888517 -0.366567 
0.0745066 0.901594 -0.426119 -0.120583 0.876241 -0.466542 -0.257638 0.825184 -0.502688 
0.439356 0.847359 -0.298244 0.373527 0.875889 -0.305442 0.392826 0.869426 -0.299641 
0.228477 0.778645 -0.584389 0.0355428 0.665404 -0.745637 -0.129198 0.67918 -0.722511 
-0.332246 0.778536 -0.532442 -0.261364 0.740741 -0.618864 -0.356401 0.752515 -0.553804 
-0.403899 0.677242 -0.614987 0.762066 0.556708 -0.330653 0.496212 0.81684 -0.294186 
0.514484 0.802227 -0.302882 0.415242 0.671742 -0.613462 -0.301319 0.47252 -0.82821 
-0.432727 0.654057 -0.620449 -0.388957 0.60229 -0.697107 -0.446604 0.638758 -0.626525 
0.762881 0.55556 -0.330704 0.761985 0.555375 -0.333074 0.38859 0.440423 -0.809336 
-0.243443 0.366013 -0.898204 -0.509878 0.606791 -0.609778 -0.378963 0.507882 -0.773591 
-0.513007 0.603909 -0.610014 0.868229 0.315228 -0.383158 0.643585 0.228281 -0.730538 
-0.643089 0.479348 -0.597211 -0.426909 0.42608 -0.797624 -0.660118 0.459486 -0.594236 
0.892847 0.101165 -0.43885 0.562838 -0.00146089 -0.826566 -0.756157 0.281972 -0.590524 
-0.628094 0.266921 -0.730925 0.88446 -0.0616255 -0.462529 0.564671 -0.0630382 -0.822905 
-0.796902 0.111511 -0.593727 -0.568018 0.0781298 -0.819299 0.872779 -0.145157 -0.466032 
0.63259 -0.072224 -0.771112 -0.809205 -0.0952639 -0.579752 -0.560795 -0.0398467 -0.826995 
0.872092 -0.234466 -0.429514 0.70849 -0.166524 -0.685793 -0.799372 -0.274291 -0.534573 
-0.660338 -0.208915 -0.721324 0.834984 -0.354156 -0.42116 0.812543 -0.402226 -0.421886 
0.78756 -0.352621 -0.505378 0.403138 -0.255121 -0.878859 -0.470509 -0.263117 -0.842253 
-0.768258 -0.460298 -0.444865 -0.760297 -0.481265 -0.436271 -0.755898 -0.451908 -0.473705 
0.719093 -0.53292 -0.445984 0.62458 -0.62326 -0.470582 0.543644 -0.463812 -0.699521 
-0.404862 -0.89505 -0.187009 -0.604948 -0.725893 -0.327288 -0.576119 -0.754806 -0.313617 
-0.589574 -0.702559 -0.398515 0.571478 -0.65829 -0.489967 0.495516 -0.696957 -0.518376 
0.421569 -0.591041 -0.687714 0.209977 -0.428205 -0.878948 -0.440909 -0.883843 -0.156273 
-0.41755 -0.900319 -0.122792 -0.419967 -0.900306 -0.114355 -0.411653 -0.887617 -0.206588 
0.372033 -0.785027 -0.495303 0.350783 -0.795894 -0.493461 0.350017 -0.777069 -0.523117 
0.21332 -0.83208 -0.511994 0.201002 -0.697024 -0.688299 0.0149466 -0.882528 -0.470022 
0.0648104 -0.678911 -0.731355 -0.22448 -0.904405 -0.36285 -0.123578 -0.760587 -0.637366 
-0.404771 -0.883006 -0.237615 -0.401547 -0.883059 -0.242829 -0.395617 -0.880185 -0.262223 
0.212307 0.529308 -0.821437 0.114357 0.4781 -0.870829 0.0240865 0.470789 -0.881917 
-0.11295 0.42872 -0.896349 -0.208019 0.412698 -0.886797 0.269739 0.51469 -0.81384 
0.309253 0.447518 -0.839101 0.174257 0.429617 -0.886038 0.0844629 0.298426 -0.950688 
-0.00628526 0.243873 -0.969787 -0.0933639 0.219431 -0.971151 -0.230475 0.392389 -0.890456 
-0.19265 0.358697 -0.913358 -0.227325 0.330227 -0.916119 0.346602 0.401516 -0.847733 
0.362275 0.388421 -0.847282 0.200829 0.272502 -0.940962 0.0634771 0.117304 -0.991065 
-0.0319559 0.0172867 -0.99934 -0.0578456 -0.0815593 -0.994988 -0.011333 -0.0294877 -0.999501 
-0.0408062 0.0554557 -0.997627 -0.226043 0.335229 -0.914618 -0.154372 0.213365 -0.964699 
-0.224297 0.34047 -0.913111 -0.260953 0.313373 -0.913072 0.501296 0.175235 -0.847346 
0.272124 0.108419 -0.956135 0.0708392 0.0578982 -0.995806 -0.0855041 -0.0541218 -0.994867 
-0.112811 -0.112996 -0.98717 -0.0527001 -0.0255433 -0.998284 0.0358399 0.0423796 -0.998459 
0.0646979 -0.00372446 -0.997898 0.00660598 0.0987143 -0.995094 -0.112232 0.187665 -0.9758 
-0.271396 0.30877 -0.911595 -0.24478 0.288398 -0.925694 -0.329323 0.238415 -0.913622 
0.413352 -0.0251031 -0.910225 0.211863 -0.027497 -0.976912 0.0182455 -0.0550016 -0.99832 
-0.105129 -0.0653215 -0.992311 -0.0154503 -0.086848 -0.996102 0.118172 0.131723 -0.984218 
0.00616225 0.0190255 -0.9998 0.0105185 0.104423 -0.994477 0.0415503 0.101012 -0.994017 
-0.048354 0.0834892 -0.995335 -0.143262 0.126609 -0.981553 -0.353404 0.195779 -0.914755 
-0.305934 0.183391 -0.934223 0.392082 -0.0396436 -0.919076 0.226896 -0.0168505 -0.973773 
0.0177373 0.00306816 -0.999838 -0.115953 0.0287733 -0.992838 0.0648038 0.050136 -0.996638 
0.0625742 0.0685832 -0.995681 0.0221872 0.0331449 -0.999204 0.152206 0.189791 -0.969955 
-0.0232351 0.0821111 -0.996352 -0.0845683 0.0226179 -0.996161 -0.137642 0.0386058 -0.989729 
-0.362881 0.0412057 -0.930924 -0.286686 0.0362661 -0.957338 0.406044 -0.0171328 -0.913693 
0.273678 -0.00759968 -0.961791 0.0649279 0.00685049 -0.997866 -0.0589712 0.0589053 -0.99652 
0.0313632 0.122597 -0.991961 0.104618 0.0378408 -0.993792 0.137704 0.18282 -0.973455 
0.0344956 -0.0603875 -0.997579 -0.121844 -0.0404521 -0.991725 -0.085396 0.019359 -0.996159 
-0.126378 0.0193138 -0.991794 -0.369595 -0.00993579 -0.92914 -0.283191 -0.000836835 -0.959063 
0.451683 -0.119814 -0.884097 0.383971 -0.233498 -0.893333 0.283817 -0.094166 -0.954244 
0.0878277 -0.0314084 -0.99564 -0.00079484 -0.000936758 -0.999999 0.050983 0.0466333 -0.99761 
0.103474 -0.0298801 -0.994183 -0.081905 -0.0716488 -0.994061 -0.0443405 -0.176725 -0.983261 
0.054957 -0.0385173 -0.997746 -0.0304057 0.0701348 -0.997074 -0.149344 0.0394573 -0.987998 
-0.406421 -0.102922 -0.907871 -0.448281 -0.232765 -0.863055 -0.334272 -0.080448 -0.939037 
0.375304 -0.242642 -0.894579 0.159958 -0.16451 -0.973319 0.020978 -0.103764 -0.994381 
0.0092879 -0.0504188 -0.998685 0.000391619 -0.0682101 -0.997671 -0.0289041 -0.0534447 -0.998152 
0.0572931 0.0528032 -0.99696 0.128009 -0.00848343 -0.991737 0.00233888 -0.047067 -0.998889 
-0.456827 -0.250283 -0.85362 -0.282247 -0.0989455 -0.954226 0.23419 -0.315607 -0.919537 
0.221023 -0.321219 -0.920851 0.21193 -0.306683 -0.927918 0.147341 -0.321982 -0.93521 
0.108339 -0.227149 -0.967815 0.0863651 -0.1465 -0.985433 0.084134 -0.08713 -0.992638 
0.0541327 -0.0265543 -0.998181 0.00108217 -0.0226742 -0.999742 -0.0409848 -0.170726 -0.984466 
-0.270019 -0.654102 -0.706569 -0.123304 -0.343628 -0.930976 -0.455275 -0.497071 -0.738678 
-0.422525 -0.560997 -0.711867 -0.384763 -0.461651 -0.799272 0.151134 -0.323466 -0.934092 
0.149234 -0.324813 -0.933931 0.147713 -0.315784 -0.937263 0.0985672 -0.400515 -0.910973 
0.113093 -0.296559 -0.948294 -0.0156237 -0.491678 -0.870637 0.0266227 -0.30667 -0.951443 
-0.143421 -0.55851 -0.817005 -0.0972426 -0.409537 -0.907096 -0.229228 -0.620362 -0.750071 
-0.215239 -0.607682 -0.764457 -0.206845 -0.580603 -0.787474 
