# vtk DataFile Version 4.2
vtk output
ASCII
DATASET POLYDATA
POINTS 516 float
23.168 -11.3055 -17.9245 30.808 -11.3055 -18.8475 38.448 -11.3055 -18.705 
-7.39207 -3.66548 -18.3374 7.88796 -3.66548 -18.0497 15.528 -3.66548 -17.6327 
23.168 -3.66548 -19.5162 30.808 -3.66548 -20.7999 38.448 -3.66548 -21.0296 
46.088 -3.66548 -18.8436 -37.9521 3.97453 -17.4787 -30.3121 3.97453 -19.1393 
-22.6721 3.97453 -19.6428 -15.0321 3.97453 -19.4594 -7.39207 3.97453 -19.6934 
0.247946 3.97453 -20.1903 7.88796 3.97453 -18.323 15.528 3.97453 -18.4511 
23.168 3.97453 -20.4873 30.808 3.97453 -21.4967 38.448 3.97453 -21.5778 
46.088 3.97453 -19.2836 -37.9521 11.6145 -19.8552 -30.3121 11.6145 -21.8388 
-22.6721 11.6145 -22.2529 -15.0321 11.6145 -22.1286 -7.39207 11.6145 -22.1834 
0.247946 11.6145 -22.0571 7.88796 11.6145 -19.9328 15.528 11.6145 -20.098 
23.168 11.6145 -21.6617 30.808 11.6145 -22.857 38.448 11.6145 -22.1009 
46.088 11.6145 -18.319 -37.9521 19.2546 -20.0338 -30.3121 19.2546 -22.4027 
-22.6721 19.2546 -23.1772 -15.0321 19.2546 -23.3518 -7.39207 19.2546 -23.7626 
0.247946 19.2546 -24.0284 7.88796 19.2546 -22.7816 15.528 19.2546 -22.2278 
23.168 19.2546 -22.4959 30.808 19.2546 -22.445 38.448 19.2546 -20.8395 
-30.3121 26.8946 -20.3436 -22.6721 26.8946 -21.807 -15.0321 26.8946 -22.9361 
-7.39207 26.8946 -24.1323 0.247946 26.8946 -24.7022 7.88796 26.8946 -24.3903 
15.528 26.8946 -23.1342 23.168 26.8946 -22.737 30.808 26.8946 -22.1751 
38.448 26.8946 -17.7402 -15.0321 34.5346 -19.2629 -7.39207 34.5346 -22.411 
0.247946 34.5346 -24.0849 7.88796 34.5346 -23.5246 15.528 34.5346 -21.7114 
23.168 34.5346 -20.183 0.247946 42.1746 -17.3483 -22.6721 -34.2255 -9.67978 
-15.0321 -34.2255 -9.74267 -30.3121 -26.5855 -11.1185 -22.6721 -26.5855 -13.1848 
-15.0321 -26.5855 -13.1164 -7.39207 -26.5855 -11.5426 0.247946 -26.5855 -10.1257 
7.88796 -26.5855 -11.98 15.528 -26.5855 -13.4064 23.168 -26.5855 -13.95 
30.808 -26.5855 -13.2298 38.448 -26.5855 -10.946 -37.9521 -18.9455 -10.4284 
-30.3121 -18.9455 -13.0882 -22.6721 -18.9455 -14.4604 -15.0321 -18.9455 -14.3673 
-7.39207 -18.9455 -13.1732 0.247946 -18.9455 -13.4146 7.88796 -18.9455 -15.6542 
15.528 -18.9455 -16.015 23.168 -15.0683 -17.0951 23.168 -18.9455 -16.2749 
30.808 -16.9676 -17.0951 30.808 -18.9455 -16.509 38.448 -15.9422 -17.0951 
38.448 -18.9455 -15.9171 46.088 -18.9455 -12.4421 -37.9521 -11.3055 -12.7879 
-30.3121 -11.3055 -14.2863 -22.6721 -11.3055 -15.0458 -15.0321 -11.3055 -15.2664 
-7.39207 -6.69151 -17.0951 -7.39207 -11.3055 -14.9921 0.247946 -11.3055 -15.3105 
7.88796 -8.62573 -17.0951 7.88796 -11.3055 -16.6089 18.867 -11.3055 -17.0951 
15.528 -7.15049 -17.0951 15.528 -11.3055 -16.4615 43.6159 -11.3055 -17.0951 
46.088 -9.01606 -17.0951 46.088 -11.3055 -16.1734 -45.5921 -3.66548 -11.2208 
-37.9521 2.69681 -17.0951 -37.9521 -3.66548 -15.1025 -30.3121 -2.37819 -17.0951 
-30.3121 -3.66548 -16.6763 -22.6721 -1.98769 -17.0951 -22.6721 -3.66548 -16.4153 
-13.208 -3.66548 -17.0951 -15.0321 -2.50854 -17.0951 -15.0321 -3.66548 -16.6835 
-1.14307 -3.66548 -17.0951 2.04035 -3.66548 -17.0951 0.247946 -3.01939 -17.0951 
0.247946 -3.66548 -16.8084 48.8464 -3.66548 -17.0951 53.728 -3.66548 -9.96594 
-38.7877 3.97453 -17.0951 -45.5921 3.97453 -13.5627 49.0261 3.97453 -17.0951 
-43.1551 11.6145 -17.0951 -45.5921 11.6145 -15.5226 47.5459 11.6145 -17.0951 
46.088 15.5125 -17.0951 -43.2213 19.2546 -17.0951 -45.5921 19.2546 -14.9096 
-37.9521 26.1612 -17.0951 44.2607 19.2546 -17.0951 46.088 19.2546 -13.5574 
-37.2315 26.8946 -17.0951 -37.9521 26.8946 -16.5595 -30.3121 30.5436 -17.0951 
-22.6721 33.7949 -17.0951 30.808 33.6414 -17.0951 39.2792 26.8946 -17.0951 
38.448 27.7162 -17.0951 -30.3121 34.5346 -9.91986 -20.9963 34.5346 -17.0951 
-22.6721 34.5346 -15.948 -15.0321 36.9869 -17.0951 -7.39207 40.3998 -17.0951 
7.88796 42.0373 -17.0951 15.528 39.8375 -17.0951 29.4571 34.5346 -17.0951 
23.168 37.4393 -17.0951 30.808 34.5346 -14.7384 -0.509736 42.1746 -17.0951 
-7.39207 42.1746 -11.8518 4.84791 42.1746 -17.0951 0.247946 42.3385 -17.0951 
7.88796 42.1746 -16.6298 -22.6721 -34.4982 -9.45509 -15.0321 -34.6266 -9.45509 
-23.5468 -34.2255 -9.45509 -30.3121 -30.5788 -9.45509 -30.3121 -34.2255 -6.9708 
-13.9634 -34.2255 -9.45509 -7.39207 -30.9095 -9.45509 -7.39207 -34.2255 -7.24697 
0.247946 -27.6412 -9.45509 0.247946 -34.2255 -3.52219 7.88796 -29.4879 -9.45509 
15.528 -31.6223 -9.45509 15.528 -34.2255 -4.65755 23.168 -32.0091 -9.45509 
23.168 -34.2255 -6.00934 30.808 -31.2841 -9.45509 30.808 -34.2255 -4.7427 
38.448 -28.2662 -9.45509 -34.5819 -26.5855 -9.45509 -37.9521 -21.9501 -9.45509 
-37.9521 -26.5855 -7.33359 40.7033 -26.5855 -9.45509 46.088 -22.4126 -9.45509 
46.088 -26.5855 -2.39458 -39.4945 -18.9455 -9.45509 -45.5921 -18.9455 -4.39599 
48.8159 -18.9455 -9.45509 -44.7184 -11.3055 -9.45509 -45.5921 -9.50382 -9.45509 
-45.5921 -11.3055 -8.79329 52.3465 -11.3055 -9.45509 53.728 -4.85386 -9.45509 
-47.5227 -3.66548 -9.45509 53.9454 -3.66548 -9.45509 53.728 -0.352053 -9.45509 
53.728 -3.66548 -4.43876 -49.9138 3.97453 -9.45509 -53.2321 3.97453 -2.01009 
53.4409 3.97453 -9.45509 -50.9116 11.6145 -9.45509 51.1034 11.6145 -9.45509 
-48.7056 19.2546 -9.45509 -45.5921 24.3583 -9.45509 47.4743 19.2546 -9.45509 
46.088 21.4327 -9.45509 46.088 19.2546 -4.31649 -43.424 26.8946 -9.45509 
-37.9521 31.1104 -9.45509 41.9683 26.8946 -9.45509 38.448 30.264 -9.45509 
-30.7658 34.5346 -9.45509 -30.3121 34.7247 -9.45509 -30.3121 34.5346 -7.22665 
-22.6721 37.3828 -9.45509 -15.0321 40.1539 -9.45509 15.528 42.0684 -9.45509 
23.168 39.7051 -9.45509 32.8254 34.5346 -9.45509 30.808 35.9202 -9.45509 
30.808 34.5346 -4.99499 -9.36183 42.1746 -9.45509 -7.39207 42.8533 -9.45509 
-7.39207 42.1746 -6.56368 0.247946 44.1611 -9.45509 0.247946 42.1746 -2.27461 
15.0745 42.1746 -9.45509 7.88796 43.727 -9.45509 7.88796 42.1746 -3.93084 
-30.3121 -37.7931 -1.81508 -22.6721 -40.6028 -1.81508 -15.0321 -41.3101 -1.81508 
-15.0321 -41.8655 4.31079 -7.39207 -38.758 -1.81508 0.247946 -35.5639 -1.81508 
15.528 -35.3609 -1.81508 23.168 -36.178 -1.81508 30.808 -35.6315 -1.81508 
-35.1183 -34.2255 -1.81508 -37.9521 -31.5329 -1.81508 7.46878 -34.2255 -1.81508 
8.32337 -34.2255 -1.81508 7.88796 -34.1501 -1.81508 7.88796 -34.2255 -1.66591 
34.5668 -34.2255 -1.81508 38.448 -32.6463 -1.81508 46.088 -26.8556 -1.81508 
-42.1825 -26.5855 -1.81508 -45.5921 -21.8797 -1.81508 46.3386 -26.5855 -1.81508 
46.088 -26.5855 2.44934 -47.4207 -18.9455 -1.81508 51.1428 -18.9455 -1.81508 
-50.66 -11.3055 -1.81508 53.2607 -11.3055 -1.81508 -52.6298 -3.66548 -1.81508 
-53.2321 3.17885 -1.81508 53.6087 -3.66548 -1.81508 -53.2996 3.97453 -1.81508 
-53.2321 4.68438 -1.81508 -53.2321 3.97453 -0.941123 52.5794 3.97453 -1.81508 
-52.5454 11.6145 -1.81508 49.7045 11.6145 -1.81508 46.088 18.1081 -1.81508 
46.088 11.6145 3.86464 -49.6919 19.2546 -1.81508 -45.5921 24.8705 -1.81508 
45.2503 19.2546 -1.81508 -43.4312 26.8946 -1.81508 -37.9521 30.7715 -1.81508 
-37.9521 26.8946 5.65004 -30.3121 34.0606 -1.81508 30.808 33.433 -1.81508 
39.133 26.8946 -1.81508 38.448 27.5942 -1.81508 38.448 26.8946 -0.924257 
-28.9701 34.5346 -1.81508 -22.6721 36.6733 -1.81508 -22.6721 34.5346 2.46659 
-15.0321 38.8103 -1.81508 -15.0321 34.5346 5.61727 -7.39207 41.0061 -1.81508 
0.247946 42.0321 -1.81508 7.88796 41.521 -1.81508 15.528 39.8606 -1.81508 
28.8956 34.5346 -1.81508 23.168 37.3534 -1.81508 23.168 34.5346 2.64986 
-15.0321 -41.9738 5.82493 -30.3121 -38.9628 5.82493 -17.3706 -41.8655 5.82493 
-22.6721 -41.6167 5.82493 -13.9627 -41.8655 5.82493 -15.0321 -41.8655 6.67523 
-7.39207 -41.1272 5.82493 0.247946 -38.8657 5.82493 7.88796 -37.4783 5.82493 
15.528 -37.3134 5.82493 23.168 -37.2427 5.82493 30.808 -36.0767 5.82493 
-37.2374 -34.2255 5.82493 -37.9521 -33.61 5.82493 35.4991 -34.2255 5.82493 
30.808 -34.2255 11.1397 38.448 -32.8065 5.82493 -44.3011 -26.5855 5.82493 
-45.5921 -24.9144 5.82493 45.8334 -26.5855 5.82493 46.088 -26.1776 5.82493 
-49.4067 -18.9455 5.82493 49.511 -18.9455 5.82493 46.088 -18.9455 11.5953 
-51.9159 -11.3055 5.82493 50.9145 -11.3055 5.82493 46.088 -11.3055 13.1659 
-53.1903 -3.66548 5.82493 50.3746 -3.66548 5.82493 46.088 -3.66548 11.8476 
-52.6793 3.97453 5.82493 48.5941 3.97453 5.82493 46.088 8.80288 5.82493 
46.088 3.97453 8.89623 -50.8834 11.6145 5.82493 -45.5921 11.6145 12.64 
44.4374 11.6145 5.82493 38.448 11.6145 11.5295 -46.8274 19.2546 5.82493 
-45.5921 20.736 5.82493 -45.5921 19.2546 7.28 -37.9521 26.7802 5.82493 
-37.9521 19.2546 12.8241 30.808 19.2546 11.159 38.8983 19.2546 5.82493 
38.448 19.793 5.82493 38.448 19.2546 6.21856 -37.7262 26.8946 5.82493 
-30.3121 30.199 5.82493 -30.3121 26.8946 9.2794 -22.6721 32.2746 5.82493 
-22.6721 26.8946 10.6661 -15.0321 34.3766 5.82493 -15.0321 26.8946 12.1944 
7.88796 26.8946 13.1459 15.528 26.8946 11.9385 23.168 31.7445 5.82493 
23.168 26.8946 9.58564 31.3499 26.8946 5.82493 30.808 27.3168 5.82493 
30.808 26.8946 6.1873 -14.4367 34.5346 5.82493 -7.39207 36.2704 5.82493 
-7.39207 34.5346 7.61231 0.247946 37.2182 5.82493 0.247946 34.5346 8.55131 
7.88796 36.7247 5.82493 7.88796 34.5346 8.12428 16.7906 34.5346 5.82493 
15.528 34.9868 5.82493 15.528 34.5346 6.30107 -30.3121 -36.8708 13.4649 
-22.6721 -39.8785 13.4649 -15.0321 -40.8964 13.4649 -7.39207 -40.4452 13.4649 
0.247946 -39.1478 13.4649 7.88796 -37.9292 13.4649 15.528 -36.7623 13.4649 
23.168 -35.4494 13.4649 -34.1508 -34.2255 13.4649 -37.9521 -30.9561 13.4649 
-30.3121 -34.2255 17.0046 -22.6721 -34.2255 20.7527 0.247946 -34.2255 20.9657 
7.88796 -34.2255 19.2539 15.528 -34.2255 17.7662 27.7768 -34.2255 13.4649 
23.168 -34.2255 15.2824 30.808 -33.2337 13.4649 38.448 -28.6576 13.4649 
-41.7866 -26.5855 13.4649 -45.5921 -20.2933 13.4649 -37.9521 -26.5855 17.7768 
30.808 -26.5855 20.0648 40.6972 -26.5855 13.4649 38.448 -26.5855 15.4234 
-46.3385 -18.9455 13.4649 -45.5921 -18.9455 14.4071 -37.9521 -18.9455 20.6805 
44.7757 -18.9455 13.4649 38.448 -18.9455 19.0364 -49.2101 -11.3055 13.4649 
[...]
POINT_DATA 516
SCALARS ImageScalars float
LOOKUP_TABLE default
0 0 0 0 0 0 0 0 0 
0 0 0 0 0 0 0 0 0 
0 0 0 0 0 0 0 0 0 
0 0 0 0 0 0 0 0 0 
0 0 0 0 0 0 0 0 0 
0 0 0 0 0 0 0 0 0 
0 0 0 0 0 0 0 0 0 
0 0 0 0 0 0 0 0 0 
0 0 0 0 0 0 0 0 0 
0 0 0 0 0 0 0 0 0 
0 0 0 0 0 0 0 0 0 
0 0 0 0 0 0 0 0 0 
0 0 0 0 0 0 0 0 0 
0 0 0 0 0 0 0 0 0 
0 0 0 0 0 0 0 0 0 
0 0 0 0 0 0 0 0 0 
0 0 0 0 0 0 0 0 0 
0 0 0 0 0 0 0 0 0 
0 0 0 0 0 0 0 0 0 
0 0 0 0 0 0 0 0 0 
0 0 0 0 0 0 0 0 0 
0 0 0 0 0 0 0 0 0 
0 0 0 0 0 0 0 0 0 
0 0 0 0 0 0 0 0 0 
0 0 0 0 0 0 0 0 0 
0 0 0 0 0 0 0 0 0 
0 0 0 0 0 0 0 0 0 
0 0 0 0 0 0 0 0 0 
0 0 0 0 0 0 0 0 0 
0 0 0 0 0 0 0 0 0 
0 0 0 0 0 0 0 0 0 
0 0 0 0 0 0 0 0 0 
0 0 0 0 0 0 0 0 0 
0 0 0 0 0 0 0 0 0 
0 0 0 0 0 0 0 0 0 
0 0 0 0 0 0 0 0 0 
0 0 0 0 0 0 0 0 0 
0 0 0 0 0 0 0 0 0 
0 0 0 0 0 0 0 0 0 
0 0 0 0 0 0 0 0 0 
0 0 0 0 0 0 0 0 0 
0 0 0 0 0 0 0 0 0 
0 0 0 0 0 0 0 0 0 
0 0 0 0 0 0 0 0 0 
0 0 0 0 0 0 0 0 0 
0 0 0 0 0 0 0 0 0 
0 0 0 0 0 0 0 0 0 
0 0 0 0 0 0 0 0 0 
0 0 0 0 0 0 0 0 0 
0 0 0 0 0 0 0 0 0 
0 0 0 0 0 0 0 0 0 
0 0 0 0 0 0 0 0 0 
0 0 0 0 0 0 0 0 0 
0 0 0 0 0 0 0 0 0 
0 0 0 0 0 0 0 0 0 
0 0 0 0 0 0 0 0 0 
0 0 0 0 0 0 0 0 0 
0 0 0 
NORMALS Normals float
0.147865 0.205653 0.96739 0.0493095 0.260599 0.964187 -0.140057 0.292157 0.946059 
0.0121885 0.273128 0.9619 0.0490026 0.116502 0.991981 0.0961487 0.128592 0.987026 
0.203652 0.160459 0.965805 0.0962949 0.167802 0.981106 -0.125458 0.182731 0.975125 
-0.420624 0.164976 0.892109 0.303668 0.272365 0.913019 0.129382 0.329742 0.935163 
0.0204198 0.377138 0.925932 0.00358187 0.345589 0.938379 0.0456137 0.244799 0.9685 
-0.0761709 0.31503 0.94602 -0.115673 0.119511 0.986071 0.130241 0.151765 0.979798 
0.199967 0.141663 0.969508 0.0671782 0.134475 0.988637 -0.127794 0.0623638 0.989838 
-0.495023 -0.0287794 0.868403 0.341233 0.155566 0.927016 0.142464 0.201825 0.969005 
0.0179389 0.218277 0.975722 -0.00454615 0.238765 0.971067 -0.00441815 0.260189 0.965548 
-0.134118 0.240759 0.961274 -0.126288 0.280685 0.951455 0.114726 0.248032 0.961935 
0.169344 0.124387 0.977676 0.0337057 0.0631384 0.997435 -0.262104 -0.0359433 0.96437 
-0.616139 -0.184868 0.765635 0.385022 -0.158803 0.909142 0.18576 -0.0723103 0.979931 
0.0606423 -0.0260038 0.997821 0.0379834 0.0509724 0.997977 0.0437941 0.123565 0.99137 
-0.0624481 0.168418 0.983736 -0.114716 0.275086 0.954551 -0.0176677 0.185906 0.982409 
0.0139044 0.0691711 0.997508 -0.0972049 -0.0410653 0.994417 -0.352767 -0.265659 0.897207 
0.27643 -0.48238 0.831202 0.156889 -0.356629 0.920979 0.151707 -0.217423 0.964216 
0.112967 -0.0700355 0.991127 0.0184155 0.008895 0.999791 -0.100771 0.0537651 0.993456 
-0.105177 -0.0252343 0.994133 -0.0581423 -0.123031 0.990698 -0.285667 -0.313688 0.905535 
-0.580961 -0.530487 0.617307 0.332987 -0.60465 0.723546 0.262456 -0.427797 0.864931 
0.0642495 -0.313044 0.947563 -0.142091 -0.332293 0.932412 -0.198773 -0.442599 0.874412 
-0.30115 -0.592102 0.747478 0.0888074 -0.884127 0.45873 0.112277 0.564878 0.8175 
-0.118351 0.551819 0.825523 0.312774 0.308673 0.898272 0.124098 0.275078 0.953379 
-0.105874 0.277976 0.954736 -0.185166 0.305919 0.933878 0.00830029 0.477224 0.878743 
0.200811 0.589573 0.782355 0.113179 0.507327 0.854289 -0.0101819 0.472281 0.881389 
-0.148646 0.54353 0.826123 -0.372344 0.621071 0.68966 0.435485 0.302031 0.848015 
0.235441 0.20032 0.95102 0.0769383 0.116072 0.990256 -0.0784467 0.138468 0.987255 
-0.0648789 0.217398 0.973924 0.157433 0.320181 0.934183 0.155163 0.266147 0.951362 
0.0395443 0.177203 0.983379 0.0910047 0.212081 0.973006 0.0317954 0.227492 0.973261 
0.00478738 0.312314 0.949967 -0.0167139 0.33406 0.942404 -0.173253 0.363314 0.915416 
-0.209039 0.426285 0.880104 -0.568183 0.501514 0.65242 0.303743 0.256321 0.917627 
0.143754 0.216982 0.965533 0.0620096 0.124784 0.990244 -0.00169272 0.143427 0.989659 
0.00831295 0.304834 0.952369 0.00179109 0.341288 0.939957 0.106693 0.209247 0.972025 
0.0636171 0.134209 0.988909 0.0692447 0.145964 0.986863 0.113654 0.151614 0.981884 
0.0923526 0.119527 0.988526 0.0861757 0.105963 0.990629 -0.353914 0.328164 0.875816 
-0.446189 0.290209 0.846578 -0.482172 0.346652 0.804576 0.57517 0.254569 0.777415 
0.29921 0.273237 0.914229 0.287413 0.291085 0.912504 0.0793502 0.299253 0.950869 
0.0719492 0.295189 0.952726 0.00363737 0.306657 0.951813 0.000552729 0.279392 0.960177 
0.0972619 0.269225 0.958153 0.108404 0.278164 0.954397 0.125557 0.263263 0.956519 
-0.0171485 0.307818 0.951291 -0.00478818 0.268158 0.963363 -0.0289697 0.315731 0.948406 
-0.023475 0.312285 0.949698 -0.568594 0.163272 0.806253 -0.973166 0.0633288 0.221218 
0.329457 0.265111 0.906187 0.596458 0.216046 0.773021 -0.657686 -0.0682586 0.750193 
0.521741 0.129328 0.843244 0.647341 0.0907225 0.756782 -0.688172 -0.217212 0.692271 
-0.702737 -0.313332 0.638736 0.635257 -0.215752 0.741552 0.773951 -0.279185 0.56838 
0.489763 -0.521211 0.698907 -0.69022 -0.389921 0.609556 -0.833107 -0.475096 0.283226 
0.477291 -0.554137 0.682001 0.503245 -0.574717 0.645325 0.328328 -0.668871 0.666942 
0.300498 -0.728908 0.615137 -0.46279 -0.706324 0.53566 -0.610926 -0.55082 0.568654 
-0.593904 -0.572972 0.564784 0.355109 -0.918375 0.174599 0.316065 -0.734473 0.600544 
0.311711 -0.790304 0.527499 0.359496 -0.724026 0.588684 0.275337 -0.806639 0.522994 
-0.138394 -0.883323 0.447871 -0.257173 -0.808723 0.528988 -0.449124 -0.725204 0.521887 
-0.342006 -0.773658 0.533371 -0.497278 -0.793618 0.350549 0.106655 -0.887205 0.44888 
0.264298 -0.951034 0.16025 -0.0483346 -0.893454 0.446547 0.0875402 -0.891586 0.44431 
-0.139223 -0.899304 0.414572 0.114951 0.577847 0.808009 -0.1196 0.566065 0.815638 
0.146528 0.571885 0.807141 0.361933 0.456388 0.812843 0.446511 0.640539 0.62477 
-0.141351 0.562076 0.814917 -0.240979 0.478411 0.844424 -0.28635 0.651972 0.702095 
-0.0159069 0.509499 0.860324 -0.232373 0.77234 0.59118 0.175115 0.71066 0.681394 
0.122807 0.761283 0.636684 0.127503 0.901004 0.414651 -0.0166156 0.759397 0.650415 
-0.00326393 0.889027 0.457843 -0.160792 0.730706 0.663486 -0.193267 0.898743 0.393584 
-0.401319 0.667538 0.627165 0.437809 0.380797 0.814443 0.47918 0.354606 0.802895 
0.578692 0.469956 0.666526 -0.460229 0.649233 0.605546 -0.613286 0.602143 0.51118 
-0.725484 0.664338 0.179802 0.472815 0.328617 0.817592 0.714305 0.444443 0.540592 
-0.714979 0.511341 0.476797 0.564751 0.295225 0.770648 0.595399 0.28647 0.750623 
0.616143 0.303499 0.726812 -0.890308 0.288743 0.352107 -0.973677 0.0904648 0.209213 
0.649681 0.244818 0.719707 -0.980203 0.0578461 0.189357 -0.984438 -0.0439814 0.170142 
-0.99767 -0.00313828 -0.0681571 0.786837 0.168661 0.593668 0.98976 -0.00154085 0.14273 
-0.973666 -0.175817 0.145132 0.901704 -0.0866352 0.423586 -0.932308 -0.351027 0.0870679 
0.876103 -0.373916 0.304352 0.781383 -0.575154 0.242156 -0.866951 -0.497986 0.020121 
-0.840928 -0.541056 0.00995569 -0.8077 -0.537883 -0.241459 0.690013 -0.69208 0.211914 
0.530898 -0.827657 0.18202 -0.733164 -0.679773 -0.0194833 -0.670712 -0.741582 -0.014164 
0.362921 -0.919725 0.149645 0.354541 -0.923066 0.149161 0.356276 -0.933415 0.0424606 
0.326336 -0.935451 0.135782 0.346624 -0.935794 0.064357 -0.247265 -0.968803 -0.0167512 
-0.371344 -0.928403 -0.0130889 -0.550115 -0.834767 -0.0231955 -0.500221 -0.865593 -0.0229776 
-0.50029 -0.831553 -0.241307 0.279816 -0.959708 0.0257649 0.253881 -0.967084 0.0171246 
0.237563 -0.964299 -0.117008 0.0519723 -0.998397 -0.0224288 0.0309932 -0.931517 -0.362376 
-0.240064 -0.97058 -0.0185301 -0.133664 -0.99045 -0.0337973 -0.132179 -0.949185 -0.285615 
0.463993 0.816184 0.344317 0.188878 0.923005 0.335241 -0.110356 0.928148 0.355476 
-0.0426661 0.998265 0.0405844 -0.306615 0.8406 0.446519 -0.261387 0.809051 0.526416 
0.121181 0.938733 0.322639 0.0177308 0.958154 0.285704 -0.214061 0.943879 0.251534 
0.608357 0.704607 0.365281 0.668556 0.641184 0.376717 -0.0177171 0.88842 0.45869 
0.00464923 0.895345 0.445349 -0.00225182 0.891341 0.453327 -0.00478986 0.893983 0.448074 
-0.337995 0.915749 0.217169 -0.467673 0.863628 0.188226 -0.730106 0.665701 0.154234 
0.730769 0.562236 0.387127 0.768274 0.492059 0.409431 -0.738097 0.65756 0.151088 
-0.77596 0.627962 -0.0595754 0.800488 0.44519 0.401279 -0.913971 0.404897 0.0267593 
0.884035 0.317318 0.343208 -0.986528 0.142281 -0.0807328 0.949961 0.156102 0.270566 
0.98915 0.0111031 0.146489 -0.978405 -0.036495 -0.203448 0.991096 -0.00506832 0.133051 
0.992229 -0.0240064 0.122085 0.995839 -0.0181062 0.0893147 -0.934504 -0.239483 -0.263343 
0.975814 -0.218549 0.00487994 -0.856799 -0.390074 -0.33725 -0.769367 -0.519533 -0.371698 
-0.737035 -0.40745 -0.539225 0.873706 -0.479291 -0.0831729 0.728508 -0.667651 -0.153354 
-0.749978 -0.53976 -0.38235 0.648661 -0.73853 -0.183884 0.491457 -0.842276 -0.221451 
0.422028 -0.722483 -0.547641 0.341349 -0.910881 -0.231899 -0.483828 -0.777574 -0.401608 
-0.660906 -0.630155 -0.407563 -0.650884 -0.640326 -0.407839 -0.645472 -0.626708 -0.436582 
0.330677 -0.913787 -0.235894 0.285004 -0.920992 -0.265605 0.248208 -0.853786 -0.457649 
0.266351 -0.911441 -0.313579 0.196072 -0.762684 -0.616335 0.195926 -0.914839 -0.353104 
0.0291764 -0.922755 -0.384282 -0.127239 -0.91489 -0.383127 -0.242623 -0.893046 -0.378951 
-0.451266 -0.801125 -0.393138 -0.359799 -0.844779 -0.396097 -0.351535 -0.761717 -0.544253 
-0.0275492 0.999222 -0.0282369 0.448601 0.892007 -0.0554982 0.0341043 0.998928 -0.0312967 
0.175064 0.983774 -0.0392611 -0.0515836 0.998605 -0.0112609 -0.0210023 0.997976 -0.0600266 
-0.204936 0.974038 0.0961842 -0.224259 0.954639 0.195888 -0.0991955 0.971415 0.215671 
-0.0151284 0.996358 0.0839154 -0.0754072 0.996233 -0.0428277 -0.261491 0.956741 -0.127548 
0.65656 0.753468 -0.03487 0.677438 0.734879 -0.0320935 -0.412172 0.899096 -0.147446 
-0.30911 0.874218 -0.374425 -0.519732 0.836657 -0.172867 0.78859 0.614456 -0.0238668 
0.814994 0.578451 -0.0343236 -0.778014 0.583636 -0.232516 -0.789642 0.565036 -0.239165 
0.900034 0.432003 -0.0575562 -0.894207 0.299244 -0.332936 -0.792411 0.23226 -0.564039 
0.967323 0.240251 -0.0810325 -0.906716 0.0478611 -0.419017 -0.765565 -0.00100651 -0.643357 
0.985346 0.0469698 -0.163973 -0.864875 -0.123106 -0.486658 -0.760495 -0.178604 -0.624298 
0.953463 -0.126652 -0.273621 -0.78234 -0.301123 -0.545224 -0.720829 -0.374837 -0.583012 
-0.717012 -0.321932 -0.618266 0.860645 -0.334533 -0.383898 0.602998 -0.393006 -0.694219 
-0.680753 -0.41393 -0.604349 -0.520571 -0.441641 -0.730725 0.695333 -0.530204 -0.485177 
0.656859 -0.563341 -0.501181 0.643995 -0.535168 -0.546686 0.419257 -0.718289 -0.555234 
0.360388 -0.545701 -0.756525 -0.372409 -0.478781 -0.795035 -0.575272 -0.509345 -0.640024 
-0.569623 -0.514571 -0.640895 -0.565256 -0.509182 -0.649014 0.41454 -0.719669 -0.556985 
0.27046 -0.761736 -0.588735 0.227424 -0.672747 -0.704053 0.202204 -0.752092 -0.627273 
0.14876 -0.60173 -0.784724 0.194161 -0.754829 -0.626526 0.155751 -0.508424 -0.846904 
-0.132467 -0.456149 -0.879989 -0.194283 -0.455661 -0.868693 -0.330442 -0.655583 -0.678983 
-0.302669 -0.531877 -0.790885 -0.445985 -0.584974 -0.677424 -0.436447 -0.59201 -0.677524 
-0.4329 -0.582605 -0.687872 0.190875 -0.755487 -0.626743 0.148924 -0.751231 -0.643019 
0.138826 -0.706418 -0.694047 0.0220528 -0.759623 -0.64999 0.0246394 -0.690317 -0.723087 
-0.115729 -0.748906 -0.652493 -0.112161 -0.678978 -0.725541 -0.245537 -0.711191 -0.658725 
-0.228158 -0.719059 -0.656428 -0.227397 -0.705348 -0.671397 0.444115 0.793861 -0.415387 
0.230237 0.895827 -0.380112 0.0333514 0.939011 -0.342267 -0.107838 0.947966 -0.299551 
-0.158006 0.959882 -0.231646 -0.157982 0.958341 -0.23796 -0.158078 0.939915 -0.302607 
-0.202989 0.884225 -0.420644 0.55086 0.723011 -0.416902 0.645289 0.63311 -0.427521 
0.447231 0.687435 -0.572204 0.21185 0.574107 -0.790899 -0.115884 0.601026 -0.790784 
-0.135372 0.71017 -0.690893 -0.17533 0.779358 -0.601548 -0.276519 0.843927 -0.4597 
-0.217859 0.827227 -0.517912 -0.329928 0.802858 -0.496554 -0.548235 0.619234 -0.562127 
0.727266 0.526525 -0.44029 0.765831 0.407241 -0.497652 0.607358 0.464725 -0.644319 
-0.305307 0.462079 -0.832629 -0.620603 0.533638 -0.574528 -0.548884 0.52704 -0.648811 
0.772969 0.384939 -0.504323 0.746232 0.377409 -0.548361 0.473114 0.208726 -0.855918 
-0.734734 0.218924 -0.642058 -0.53384 0.205586 -0.820213 0.823476 0.174761 -0.539765 
0.651812 0.133919 -0.746462 -0.756868 -0.0040132 -0.653556 -0.533509 -0.00527465 -0.845778 
0.777218 -0.0609125 -0.626277 0.616175 -0.0867263 -0.782819 0.301613 -0.0983521 -0.948344 
-0.712671 -0.199643 -0.67249 -0.487059 -0.225217 -0.843831 0.715633 -0.206957 -0.667112 
0.598748 -0.355872 -0.717534 0.609123 -0.231101 -0.758658 0.328191 -0.226975 -0.916937 
-0.177098 -0.348047 -0.920597 -0.271506 -0.368889 -0.888935 -0.581201 -0.347713 -0.735732 
-0.511267 -0.40392 -0.758587 -0.501037 -0.363936 -0.785183 0.5523 -0.39577 -0.73371 
0.354596 -0.523186 -0.774944 0.338147 -0.404936 -0.84952 0.15381 -0.411553 -0.898313 
0.0394309 -0.457524 -0.888323 0.0329772 -0.493742 -0.868983 0.0743976 -0.344541 -0.935818 
-0.222235 -0.429605 -0.875244 -0.189802 -0.410851 -0.891727 -0.418743 -0.44429 -0.791998 
-0.333606 -0.457844 -0.824067 -0.306367 -0.440938 -0.843631 0.308009 -0.538161 -0.784547 
0.161453 -0.562118 -0.811145 0.14003 -0.524291 -0.839947 0.0732436 -0.527992 -0.846085 
0.0257526 -0.499621 -0.865861 0.130354 -0.46831 -0.873896 0.0971942 -0.435244 -0.895051 
0.174031 -0.407276 -0.896571 -0.0160253 -0.414166 -0.91006 -0.138997 -0.451367 -0.881446 
-0.20865 -0.45404 -0.866206 -0.182372 -0.409 -0.894125 -0.183258 -0.39027 -0.902278 
-0.226075 -0.436609 -0.870783 -0.214549 -0.43583 -0.874083 -0.208214 -0.430293 -0.878348 
0.120116 -0.494058 -0.861091 0.117429 -0.497185 -0.859661 0.117613 -0.494066 -0.861433 
-0.102884 -0.47722 -0.872741 -0.0160502 -0.552624 -0.833276 -0.0248748 -0.532888 -0.84582 
0.0515535 0.595436 -0.801747 -0.0441571 0.590463 -0.805856 0.368382 0.401732 -0.838395 
0.160843 0.56575 -0.808737 0.206367 0.540241 -0.815814 0.0523551 0.561189 -0.82603 
-0.104695 0.589474 -0.800974 -0.0433875 0.551198 -0.833245 -0.113888 0.583898 -0.803799 
-0.120488 0.500023 -0.857589 -0.137823 0.435156 -0.889744 -0.143603 0.442561 -0.885166 
0.412698 0.342104 -0.844183 0.33517 0.305398 -0.891288 0.163377 0.240391 -0.956828 
0.0295807 0.210039 -0.977245 -0.0556062 0.206369 -0.976893 -0.0814673 0.220494 -0.97198 
-0.102015 0.246588 -0.963736 -0.103677 0.298596 -0.948732 -0.192109 0.422171 -0.885926 
-0.131769 0.408935 -0.903 -0.287331 0.341447 -0.894905 0.43964 0.185555 -0.878798 
0.41698 0.140054 -0.89806 0.257123 0.0659168 -0.964128 0.115911 0.00168358 -0.993258 
0.004399 -0.0417834 -0.999117 -0.04134 0.011267 -0.999082 -0.0680772 0.054095 -0.996212 
-0.0552056 0.054171 -0.997004 -0.0222188 0.0989602 -0.994843 -0.0888331 0.136324 -0.986673 
-0.372386 0.19034 -0.90835 -0.26941 0.184115 -0.945262 0.37254 0.0388978 -0.927201 
0.302293 -0.0923743 -0.948729 0.319872 0.0151267 -0.94734 0.153005 -0.0367403 -0.987542 
0.0668395 -0.0828355 -0.994319 0.0390384 -0.100213 -0.9942 0.038557 -0.0395159 -0.998475 
-0.0399317 -0.0216952 -0.998967 -0.0594577 -0.00757947 -0.998202 -0.0112828 -0.0348898 -0.999327 
-0.0547909 -0.0464385 -0.997417 -0.424258 -0.010982 -0.905475 -0.233126 -0.0372724 -0.971732 
0.298523 -0.0982788 -0.949329 0.169541 -0.0868644 -0.981687 0.0593234 -0.0771984 -0.995249 
0.0507798 -0.0401072 -0.997904 0.0345478 -0.0999079 -0.994397 -0.0375336 -0.185812 -0.981868 
-0.0666224 -0.0483463 -0.996606 -0.0612665 -0.122786 -0.99054 -0.161331 -0.321929 -0.932917 
-0.0943236 -0.203403 -0.974541 -0.298479 -0.248134 -0.921596 -0.23868 -0.290795 -0.926536 
-0.230544 -0.253817 -0.939375 0.236238 -0.220304 -0.946392 0.162706 -0.275417 -0.947456 
0.166888 -0.214838 -0.962285 0.0687622 -0.372149 -0.925623 0.111784 -0.232516 -0.966147 
0.0246693 -0.426282 -0.904254 0.0125855 -0.224685 -0.97435 0.0220121 -0.323402 -0.946006 
-0.105611 -0.265187 -0.958395 0.0189983 -0.204945 -0.978589 0.00304871 -0.167083 -0.985938 
-0.176089 -0.322432 -0.93007 -0.196113 -0.323745 -0.925597 -0.171216 -0.265109 -0.948895 
0.0561025 -0.215745 -0.974837 0.0540454 -0.211447 -0.975894 0.0553615 -0.207955 -0.97657 
-0.142227 -0.396417 -0.906987 -0.137841 -0.397184 -0.907328 -0.133308 -0.391787 -0.910347 

