# vtk DataFile Version 4.2
vtk output
ASCII
DATASET POLYDATA
POINTS 562 float
7.46135 3.24749 -21.9174 -24.7481 -37.0143 -13.9545 -40.8528 -28.962 -13.7997 
-32.8005 -28.962 -15.2877 -24.7481 -28.962 -16.2621 -16.6957 -28.962 -15.9816 
-8.64338 -28.962 -16.2431 -0.591018 -28.962 -15.5894 7.46135 -28.962 -14.0591 
-40.8528 -20.9096 -15.727 -32.8005 -20.9096 -16.8832 -24.7481 -20.9096 -17.0208 
-16.6957 -20.9096 -16.1873 -8.64338 -20.9096 -15.8891 -0.591018 -20.9096 -16.1653 
7.46135 -20.9096 -14.9939 15.5137 -20.9096 -14.8218 23.5661 -20.9096 -15.7454 
31.6184 -20.9096 -16.2073 39.6708 -20.9096 -15.106 47.7232 -20.9096 -13.7594 
-48.9052 -12.8572 -15.3879 -40.8528 -12.8572 -16.9548 -32.8005 -12.8572 -17.1778 
-24.7481 -12.8572 -16.646 -16.6957 -12.8572 -15.4026 -8.64338 -12.8572 -14.8866 
-0.591018 -12.8572 -16.6429 7.46135 -12.8572 -15.5473 15.5137 -12.8572 -15.6221 
23.5661 -12.8572 -16.0723 31.6184 -12.8572 -16.8589 39.6708 -12.8572 -17.3922 
47.7232 -12.8572 -15.5779 -48.9052 -4.80487 -16.1485 -40.8528 -4.80487 -17.0732 
-32.8005 -4.80487 -16.6457 -24.7481 -4.80487 -15.6876 -16.6957 -4.80487 -14.6364 
-8.64338 -4.80487 -17.4359 -0.591018 -4.80487 -15.9429 7.46135 2.99118 -21.8009 
7.46135 -4.80487 -17.9068 15.5137 -4.80487 -14.3881 23.5661 -4.80487 -15.9656 
31.6184 -4.80487 -17.3914 39.6708 -4.80487 -17.6996 47.7232 -4.80487 -17.3373 
55.7755 -4.80487 -16.3934 -48.9052 3.24749 -15.6651 -40.8528 3.24749 -16.1023 
-32.8005 3.24749 -15.7358 -24.7481 3.24749 -14.5467 -8.64338 3.24749 -18.389 
7.26642 3.24749 -21.8009 -0.591018 3.24749 -15.5668 7.69023 3.24749 -21.8009 
7.46135 3.60806 -21.8009 15.5137 3.24749 -15.1304 23.5661 3.24749 -15.9207 
31.6184 3.24749 -17.6869 39.6708 3.24749 -18.3389 47.7232 3.24749 -18.2539 
55.7755 3.24749 -17.3295 -48.9052 11.2999 -14.1468 -40.8528 11.2999 -14.8941 
-32.8005 11.2999 -15.1369 -24.7481 11.2999 -14.8057 -16.6957 11.2999 -15.9017 
-8.64338 11.2999 -18.0045 -0.591018 11.2999 -15.9521 7.46135 11.2999 -19.201 
15.5137 11.2999 -16.4314 23.5661 11.2999 -17.2716 31.6184 11.2999 -18.8157 
39.6708 11.2999 -18.744 47.7232 11.2999 -18.4293 55.7755 11.2999 -17.7423 
-40.8528 19.3522 -15.0027 -32.8005 19.3522 -15.5021 -24.7481 19.3522 -16.9258 
-16.6957 19.3522 -18.5091 -8.64338 19.3522 -18.5566 -0.591018 19.3522 -17.9028 
7.46135 19.3522 -18.947 15.5137 19.3522 -18.373 23.5661 19.3522 -17.8186 
31.6184 19.3522 -18.2798 39.6708 19.3522 -19.7387 47.7232 19.3522 -16.9195 
55.7755 19.3522 -15.292 -32.8005 27.4046 -14.5335 -24.7481 27.4046 -17.3684 
-16.6957 27.4046 -18.9494 -8.64338 27.4046 -19.5394 -0.591018 27.4046 -19.1303 
7.46135 27.4046 -19.7348 15.5137 27.4046 -19.0763 23.5661 27.4046 -18.1661 
31.6184 27.4046 -18.9916 39.6708 27.4046 -16.0842 47.7232 27.4046 -14.5248 
-24.7481 35.4569 -15.1405 -16.6957 35.4569 -17.7852 -8.64338 35.4569 -18.6007 
-0.591018 35.4569 -19.0641 7.46135 35.4569 -19.2098 15.5137 35.4569 -18.2111 
23.5661 35.4569 -17.0189 31.6184 35.4569 -15.2244 -8.64338 43.5093 -14.0237 
-0.591018 43.5093 -14.4567 7.46135 43.5093 -14.7039 -24.7481 -37.3689 -13.7485 
-40.8528 -29.1021 -13.7485 -40.8528 -37.0143 -7.13218 -25.6817 -37.0143 -13.7485 
-32.8005 -32.7896 -13.7485 -32.8005 -37.0143 -11.5674 -21.2572 -37.0143 -13.7485 
-16.6957 -36.1167 -13.7485 -16.6957 -37.0143 -13.4284 -8.64338 -36.379 -13.7485 
-8.64338 -37.0143 -13.4987 -0.591018 -34.3348 -13.7485 -0.591018 -37.0143 -12.5598 
7.46135 -29.7793 -13.7485 7.46135 -37.0143 -10.6244 15.5137 -37.0143 -8.48922 
23.5661 -37.0143 -7.20765 31.6184 -37.0143 -6.23789 -41.0114 -28.962 -13.7485 
-48.9052 -28.962 -8.40793 10.4226 -28.962 -13.7485 15.5137 -26.2767 -13.7485 
15.5137 -28.962 -13.1924 23.5661 -27.8283 -13.7485 23.5661 -28.962 -13.3764 
31.6184 -28.7747 -13.7485 31.6184 -28.962 -13.6688 39.6708 -24.8085 -13.7485 
39.6708 -28.962 -12.1359 47.7232 -20.9514 -13.7485 47.7232 -28.962 -10.2147 
-56.9576 -20.9096 -6.94699 -47.1707 -20.9096 -13.7485 -48.9052 -19.0442 -13.7485 
-48.9052 -20.9096 -13.1017 47.7753 -20.9096 -13.7485 55.7755 -20.9096 -11.1549 
-54.5795 -12.8572 -13.7485 -56.9576 -12.8572 -12.2716 53.9675 -12.8572 -13.7485 
55.7755 -11.347 -13.7485 55.7755 -12.8572 -13.1878 63.8279 -12.8572 -8.23119 
-53.8972 -4.80487 -13.7485 -56.9576 -4.80487 -11.806 -16.6957 0.68616 -13.7485 
62.1057 -4.80487 -13.7485 63.8279 -4.80487 -12.6504 -65.0099 3.24749 -5.9417 
-53.1803 3.24749 -13.7485 -56.9576 3.24749 -11.7323 -19.4381 3.24749 -13.7485 
-15.7127 3.24749 -13.7485 -16.6957 4.76208 -13.7485 -16.6957 3.24749 -13.3376 
63.4817 3.24749 -13.7485 63.8279 3.24749 -13.4783 -49.7756 11.2999 -13.7485 
-56.9576 11.2999 -10.4066 -48.9052 12.6292 -13.7485 63.1532 11.2999 -13.7485 
63.8279 11.2999 -12.9808 -56.9576 19.3522 -6.80558 -44.5322 19.3522 -13.7485 
-48.9052 19.3522 -11.9092 -40.8528 23.247 -13.7485 57.7491 19.3522 -13.7485 
55.7755 23.038 -13.7485 -48.9052 27.4046 -7.81733 -35.3518 27.4046 -13.7485 
-40.8528 27.4046 -12.0425 -32.8005 30.7718 -13.7485 39.6708 32.0303 -13.7485 
50.1006 27.4046 -13.7485 47.7232 28.6811 -13.7485 -40.8528 35.4569 -5.88399 
-29.0554 35.4569 -13.7485 -32.8005 35.4569 -12.1542 -24.7481 37.7164 -13.7485 
-16.6957 42.3203 -13.7485 15.5137 42.7835 -13.7485 23.5661 39.6446 -13.7485 
35.5746 35.4569 -13.7485 31.6184 37.3155 -13.7485 39.6708 35.4569 -10.5548 
-24.7481 43.5093 -6.89917 -10.474 43.5093 -13.7485 -16.6957 43.5093 -12.1367 
-8.64338 43.7594 -13.7485 -0.591018 44.1011 -13.7485 12.5831 43.5093 -13.7485 
7.46135 44.2838 -13.7485 15.5137 43.5093 -12.2978 -40.8528 -37.8676 -5.69617 
-32.8005 -42.3046 -5.69617 -24.7481 -44.0942 -5.69617 -16.6957 -44.9636 -5.69617 
-8.64338 -44.3315 -5.69617 -0.591018 -43.2761 -5.69617 7.46135 -41.7229 -5.69617 
15.5137 -39.7972 -5.69617 23.5661 -38.3941 -5.69617 31.6184 -37.4936 -5.69617 
-42.0335 -37.0143 -5.69617 -48.9052 -31.0695 -5.69617 34.4998 -37.0143 -5.69617 
39.6708 -36.1416 -5.69617 39.6708 -37.0143 -2.17659 47.7232 -32.1675 -5.69617 
-50.6999 -28.962 -5.69617 -56.9576 -22.0865 -5.69617 53.1282 -28.962 -5.69617 
55.7755 -26.7807 -5.69617 55.7755 -28.962 1.12904 -57.7753 -20.9096 -5.69617 
60.8521 -20.9096 -5.69617 63.8279 -16.9959 -5.69617 -61.5107 -12.8572 -5.69617 
65.6985 -12.8572 -5.69617 -63.969 -4.80487 -5.69617 -65.0099 1.77653 -5.69617 
67.9471 -4.80487 -5.69617 -65.1908 3.24749 -5.69617 -65.0099 4.29362 -5.69617 
67.8309 3.24749 -5.69617 -63.1787 11.2999 -5.69617 66.6047 11.2999 -5.69617 
63.8279 18.1137 -5.69617 63.8279 11.2999 1.53737 -57.9505 19.3522 -5.69617 
-56.9576 20.8796 -5.69617 63.2182 19.3522 -5.69617 55.7755 27.3873 -5.69617 
-51.2665 27.4046 -5.69617 -48.9052 29.5166 -5.69617 55.7556 27.4046 -5.69617 
47.7232 33.3467 -5.69617 -41.0838 35.4569 -5.69617 -40.8528 35.5841 -5.69617 
-32.8005 40.3924 -5.69617 23.5661 43.4961 -5.69617 31.6184 41.1288 -5.69617 
44.1927 35.4569 -5.69617 39.6708 37.9009 -5.69617 39.6708 35.4569 -0.322071 
-26.1039 43.5093 -5.69617 -24.7481 44.0494 -5.69617 -24.7481 43.5093 -1.72932 
-16.6957 46.3074 -5.69617 -8.64338 47.492 -5.69617 -0.591018 47.3565 -5.69617 
7.46135 46.5184 -5.69617 23.5116 43.5093 -5.69617 15.5137 45.4084 -5.69617 
15.5137 43.5093 -0.86129 -40.8528 -39.6831 2.35619 -32.8005 -43.2593 2.35619 
-24.7481 -44.6207 2.35619 -16.6957 -44.625 2.35619 -8.64338 -44.5399 2.35619 
-0.591018 -43.9638 2.35619 7.46135 -43.5653 2.35619 15.5137 -42.5675 2.35619 
23.5661 -41.4577 2.35619 31.6184 -40.1475 2.35619 39.6708 -37.9196 2.35619 
-44.4259 -37.0143 2.35619 -48.9052 -32.9673 2.35619 -40.8528 -37.0143 8.7259 
31.6184 -37.0143 10.1348 42.0409 -37.0143 2.35619 39.6708 -37.0143 5.09239 
47.7232 -34.6181 2.35619 55.7755 -29.2014 2.35619 -52.3184 -28.962 2.35619 
-56.9576 -22.8673 2.35619 -48.9052 -28.962 9.86279 56.027 -28.962 2.35619 
55.7755 -28.962 2.77776 -58.2637 -20.9096 2.35619 -56.9576 -20.9096 5.2597 
62.8665 -20.9096 2.35619 63.8279 -18.4791 2.35619 -62.4181 -12.8572 2.35619 
65.6757 -12.8572 2.35619 63.8279 -12.8572 5.32464 -64.7035 -4.80487 2.35619 
-65.0099 -2.17673 2.35619 66.8722 -4.80487 2.35619 63.8279 -4.80487 6.56697 
-65.6324 3.24749 2.35619 -65.0099 7.53453 2.35619 -65.0099 3.24749 3.66431 
66.5217 3.24749 2.35619 63.8279 10.4672 2.35619 63.8279 3.24749 5.68806 
-64.4553 11.2999 2.35619 63.3277 11.2999 2.35619 55.7755 11.2999 8.37914 
-60.6701 19.3522 2.35619 -56.9576 24.5597 2.35619 -56.9576 19.3522 8.64227 
47.7232 19.3522 8.56479 58.3627 19.3522 2.35619 55.7755 21.9923 2.35619 
55.7755 19.3522 4.59664 -54.3765 27.4046 2.35619 -48.9052 31.8848 2.35619 
-48.9052 27.4046 10.2697 31.6184 27.4046 9.1854 39.6708 33.4271 2.35619 
39.6708 27.4046 7.00485 49.7516 27.4046 2.35619 47.7232 28.9594 2.35619 
47.7232 27.4046 3.80995 -43.3996 35.4569 2.35619 -40.8528 37.0694 2.35619 
-40.8528 35.4569 5.48606 -32.8005 40.3838 2.35619 -24.7481 42.9244 2.35619 
15.5137 41.9526 2.35619 15.5137 35.4569 9.05215 23.5661 39.9121 2.35619 
23.5661 35.4569 7.29854 36.5546 35.4569 2.35619 31.6184 37.9563 2.35619 
31.6184 35.4569 4.6449 -22.5705 43.5093 2.35619 -16.6957 44.993 2.35619 
-16.6957 43.5093 4.95694 -8.64338 45.5729 2.35619 -8.64338 43.5093 5.70145 
-0.591018 45.0354 2.35619 -0.591018 43.5093 4.79427 8.44687 43.5093 2.35619 
7.46135 43.7146 2.35619 7.46135 43.5093 2.63761 -32.8005 -39.6959 10.4086 
-24.7481 -41.3944 10.4086 -16.6957 -41.5267 10.4086 -8.64338 -40.3094 10.4086 
-0.591018 -40.0819 10.4086 7.46135 -40.4508 10.4086 15.5137 -39.8912 10.4086 
23.5661 -38.5095 10.4086 -39.1263 -37.0143 10.4086 -40.8528 -36.0854 10.4086 
-32.8005 -37.0143 13.6453 -24.7481 -37.0143 14.8449 -16.6957 -37.0143 14.4869 
-8.64338 -37.0143 13.5469 -0.591018 -37.0143 13.3318 7.46135 -37.0143 13.7934 
15.5137 -37.0143 13.303 30.905 -37.0143 10.4086 23.5661 -37.0143 11.9441 
31.6184 -36.8221 10.4086 39.6708 -34.3892 10.4086 47.7232 -31.1625 10.4086 
-48.5619 -28.962 10.4086 -48.9052 -28.5381 10.4086 -40.8528 -28.962 15.9604 
-16.6957 -28.962 18.2942 -8.64338 -28.962 16.9679 -0.591018 -28.962 17.028 
7.46135 -28.962 17.4345 15.5137 -28.962 17.3258 23.5661 -28.962 16.6553 
[...]
POINT_DATA 562
SCALARS ImageScalars float
LOOKUP_TABLE default
0 0 0 0 0 0 0 0 0 
0 0 0 0 0 0 0 0 0 
0 0 0 0 0 0 0 0 0 
0 0 0 0 0 0 0 0 0 
0 0 0 0 0 0 0 0 0 
0 0 0 0 0 0 0 0 0 
0 0 0 0 0 0 0 0 0 
0 0 0 0 0 0 0 0 0 
0 0 0 0 0 0 0 0 0 
0 0 0 0 0 0 0 0 0 
0 0 0 0 0 0 0 0 0 
0 0 0 0 0 0 0 0 0 
0 0 0 0 0 0 0 0 0 
0 0 0 0 0 0 0 0 0 
0 0 0 0 0 0 0 0 0 
0 0 0 0 0 0 0 0 0 
0 0 0 0 0 0 0 0 0 
0 0 0 0 0 0 0 0 0 
0 0 0 0 0 0 0 0 0 
0 0 0 0 0 0 0 0 0 
0 0 0 0 0 0 0 0 0 
0 0 0 0 0 0 0 0 0 
0 0 0 0 0 0 0 0 0 
0 0 0 0 0 0 0 0 0 
0 0 0 0 0 0 0 0 0 
0 0 0 0 0 0 0 0 0 
0 0 0 0 0 0 0 0 0 
0 0 0 0 0 0 0 0 0 
0 0 0 0 0 0 0 0 0 
0 0 0 0 0 0 0 0 0 
0 0 0 0 0 0 0 0 0 
0 0 0 0 0 0 0 0 0 
0 0 0 0 0 0 0 0 0 
0 0 0 0 0 0 0 0 0 
0 0 0 0 0 0 0 0 0 
0 0 0 0 0 0 0 0 0 
0 0 0 0 0 0 0 0 0 
0 0 0 0 0 0 0 0 0 
0 0 0 0 0 0 0 0 0 
0 0 0 0 0 0 0 0 0 
0 0 0 0 0 0 0 0 0 
0 0 0 0 0 0 0 0 0 
0 0 0 0 0 0 0 0 0 
0 0 0 0 0 0 0 0 0 
0 0 0 0 0 0 0 0 0 
0 0 0 0 0 0 0 0 0 
0 0 0 0 0 0 0 0 0 
0 0 0 0 0 0 0 0 0 
0 0 0 0 0 0 0 0 0 
0 0 0 0 0 0 0 0 0 
0 0 0 0 0 0 0 0 0 
0 0 0 0 0 0 0 0 0 
0 0 0 0 0 0 0 0 0 
0 0 0 0 0 0 0 0 0 
0 0 0 0 0 0 0 0 0 
0 0 0 0 0 0 0 0 0 
0 0 0 0 0 0 0 0 0 
0 0 0 0 0 0 0 0 0 
0 0 0 0 0 0 0 0 0 
0 0 0 0 0 0 0 0 0 
0 0 0 0 0 0 0 0 0 
0 0 0 0 0 0 0 0 0 
0 0 0 0 
NORMALS Normals float
0.0556578 0.0811327 0.995148 0.0810117 0.450644 0.88902 0.250639 0.300465 0.920272 
0.152735 0.269759 0.950738 0.0387399 0.187473 0.981506 -0.00319584 0.152897 0.988237 
-0.025991 0.124386 0.991893 -0.127286 0.187912 0.973903 -0.152677 0.245974 0.957176 
0.204327 0.186654 0.960943 0.0754757 0.10906 0.991166 -0.0433994 0.0275295 0.998678 
-0.0690117 -0.036061 0.996964 -0.0014456 -0.0820638 0.996626 -0.0572909 0.0653553 0.996216 
-0.082233 0.0882287 0.9927 0.0446753 0.148076 0.987966 0.0852041 0.154674 0.984285 
-0.0371152 0.190301 0.981024 -0.134699 0.278433 0.950963 -0.19262 0.251291 0.948552 
0.245732 0.170832 0.954166 0.118687 0.0818315 0.989554 -0.0195985 -0.0147272 0.999699 
-0.109301 -0.0791831 0.99085 -0.107758 -0.0960935 0.989522 0.076448 0.0643063 0.994998 
0.0381457 -0.00995777 0.999223 -0.061819 0.167155 0.983991 0.032372 -0.0178017 0.999317 
0.0765158 0.0129639 0.996984 0.0801967 0.0747939 0.993969 -0.077214 0.157313 0.984526 
-0.226314 0.18951 0.955441 0.271047 0.0153298 0.962444 0.0403485 -0.0537274 0.99774 
-0.0818297 -0.0889025 0.992673 -0.125721 -0.131559 0.983304 0.0757739 -0.116355 0.990313 
0.104165 0.222389 0.969378 0.0419869 -0.0654485 0.996972 0.0512664 0.0949609 0.99416 
-0.0812034 0.322155 0.943198 -0.109347 -0.0538683 0.992543 0.174592 -0.00930065 0.984597 
0.106349 0.0507893 0.993031 -0.00246425 0.0582564 0.998299 -0.0727012 0.164023 0.983774 
-0.268704 0.220526 0.937639 0.237318 -0.112162 0.964935 0.00731993 -0.132501 0.991156 
-0.0954056 -0.0929612 0.991088 -0.132645 -0.0511396 0.989843 0.122052 0.0287453 0.992107 
0.0585429 0.0799779 0.995076 0.145385 0.0015806 0.989374 0.0421622 0.0836195 0.995605 
0.055275 0.0678364 0.996164 -0.255735 0.137692 0.956891 0.143921 0.0844967 0.985975 
0.141803 0.0904488 0.985754 0.0351663 0.0648157 0.997277 -0.0531506 0.0666959 0.996357 
-0.309147 0.0718602 0.948295 0.260301 -0.250329 0.932512 0.0563917 -0.0674961 0.996125 
-0.00543756 -0.0152249 0.999869 0.0362016 0.146957 0.98848 0.203691 0.2904 0.934975 
-0.0127762 0.0198011 0.999722 0.0699229 0.145667 0.98686 0.0402097 -0.128275 0.990923 
-0.121209 0.172204 0.977576 0.144978 0.111061 0.983182 0.0923447 0.0367381 0.995049 
-0.0230753 0.0808684 0.996458 -0.0532093 -0.0775352 0.995569 -0.311231 -0.0893679 0.946123 
0.197668 -0.148839 0.968904 0.125636 -0.0338357 0.991499 0.184127 0.156877 0.970303 
0.0996718 0.162194 0.981712 -0.0378802 0.0957756 0.994682 0.0246795 0.192503 0.980986 
0.0315152 0.0339498 0.998927 -0.07217 0.155334 0.985222 -0.00310674 0.0549675 0.998483 
0.1111 0.00292278 0.993805 -0.075123 -0.144433 0.986659 -0.234176 -0.19559 0.952316 
-0.473965 -0.349502 0.808211 0.307012 -0.165044 0.937285 0.265732 -0.0906873 0.959772 
0.130568 -0.0442008 0.990454 0.0109913 0.00775062 0.99991 0.0127578 0.0738579 0.997187 
-0.00324623 0.0202777 0.999789 -0.0963135 -0.00872588 0.995313 -0.0145066 -0.0352766 0.999272 
-0.106785 -0.186956 0.976547 -0.216543 -0.383424 0.897828 -0.269868 -0.460595 0.845591 
0.318244 -0.402102 0.858508 0.186625 -0.31617 0.930165 0.0802324 -0.282001 0.956054 
0.0351782 -0.208552 0.977378 -0.0503017 -0.249056 0.967182 -0.126462 -0.316132 0.940249 
-0.195258 -0.40967 0.891092 -0.242609 -0.563561 0.789645 0.0832826 -0.735806 0.672051 
0.0350136 -0.756851 0.652649 -0.0659104 -0.781715 0.620143 0.0832227 0.468834 0.879357 
0.252875 0.305699 0.917934 0.503081 0.759712 0.412004 0.0956088 0.462839 0.881271 
0.183197 0.401785 0.897222 0.256883 0.610011 0.749598 0.0360298 0.452719 0.890925 
-0.0259593 0.419388 0.907436 -0.0252599 0.461544 0.886758 -0.0415155 0.456862 0.888569 
-0.0446464 0.492308 0.869275 -0.147866 0.404073 0.902696 -0.158672 0.548142 0.821196 
-0.158461 0.274364 0.94848 -0.210556 0.580831 0.786321 -0.179736 0.667508 0.722584 
-0.110361 0.758086 0.642749 -0.115015 0.801225 0.587206 0.256288 0.30344 0.917737 
0.664948 0.567772 0.485262 -0.109987 0.275484 0.954993 -0.0116028 0.262736 0.964798 
-0.0396512 0.327425 0.944045 0.038406 0.394882 0.917929 0.0249742 0.436873 0.899177 
-0.0659478 0.476848 0.876508 -0.0665536 0.484768 0.872107 -0.133074 0.364974 0.921458 
-0.142114 0.504117 0.851862 -0.193385 0.252932 0.94796 -0.394734 0.615623 0.68205 
0.777698 0.48208 0.403466 0.356581 0.258 0.897934 0.358009 0.261472 0.89636 
0.415713 0.296956 0.859651 -0.1944 0.252267 0.947929 -0.496958 0.447255 0.743637 
0.481872 0.169095 0.859771 0.629155 0.185537 0.754811 -0.33078 0.223268 0.916916 
-0.343088 0.228587 0.911064 -0.376932 0.246914 0.892724 -0.767905 0.375891 0.518679 
0.440899 -0.0345952 0.89689 0.578059 -0.0190558 0.815772 0.125329 -0.00321063 0.99211 
-0.526901 0.228428 0.818655 -0.643761 0.22142 0.732492 0.900424 -0.0280058 0.434111 
0.371077 -0.106661 0.922456 0.511515 -0.0761281 0.855895 0.0420506 0.0217136 0.998879 
0.155779 0.0698216 0.985321 0.166499 0.119627 0.978758 0.148047 0.0653822 0.986817 
-0.630252 0.0222508 0.776072 -0.654543 0.0177857 0.755815 0.286119 -0.244558 0.92646 
0.517143 -0.223085 0.826315 0.27796 -0.251132 0.927184 -0.652513 -0.20741 0.72884 
-0.72082 -0.224563 0.655736 0.700135 -0.453111 0.551816 0.268118 -0.188165 0.944831 
0.379452 -0.26411 0.886714 0.2285 -0.249937 0.940914 -0.54993 -0.364016 0.751711 
-0.52323 -0.454741 0.720723 0.561042 -0.582268 0.588384 0.294722 -0.224382 0.928866 
0.304497 -0.394433 0.867009 0.328505 -0.275734 0.903358 -0.290625 -0.552054 0.78152 
-0.370704 -0.516728 0.771732 -0.2992 -0.528601 0.794393 0.493436 -0.787585 0.369094 
0.33645 -0.428441 0.838594 0.386166 -0.510945 0.767991 0.333645 -0.504001 0.796658 
0.210944 -0.697166 0.685173 -0.210064 -0.771642 0.600368 -0.252455 -0.669955 0.69816 
-0.300774 -0.627422 0.718245 -0.269523 -0.658313 0.702838 -0.406266 -0.826733 0.389178 
0.345122 -0.910458 0.227939 0.111978 -0.744415 0.658261 0.214061 -0.808994 0.547455 
0.0818005 -0.748182 0.658432 0.0310678 -0.788266 0.614549 -0.159149 -0.804743 0.571891 
-0.0656339 -0.826153 0.55961 -0.215339 -0.859375 0.463792 0.519007 0.789994 0.326405 
0.30952 0.876495 0.368718 0.141817 0.945602 0.292787 0.0131022 0.959889 0.280074 
-0.09317 0.946524 0.308888 -0.15155 0.919821 0.361886 -0.190295 0.852816 0.486304 
-0.18726 0.801031 0.56858 -0.11919 0.808848 0.575812 -0.124374 0.819316 0.559689 
0.541913 0.774764 0.325686 0.693804 0.643764 0.322805 -0.163578 0.841631 0.514684 
-0.239181 0.867658 0.435846 -0.285591 0.937003 0.201156 -0.468208 0.761991 0.447383 
0.71493 0.620824 0.321642 0.796134 0.509424 0.326584 -0.566757 0.691654 0.447662 
-0.605981 0.656577 0.449103 -0.678135 0.731896 -0.0667932 0.812793 0.482852 0.325916 
-0.700193 0.572852 0.42611 -0.796288 0.47085 0.37977 0.860453 0.364858 0.355668 
-0.871575 0.352244 0.341001 0.899547 0.175145 0.400174 0.910366 0.0109011 0.41366 
-0.968062 0.137712 0.2095 0.906957 -0.0268391 0.420368 0.903388 -0.0651622 0.423845 
-0.982011 -0.0863785 0.167907 0.814362 -0.324502 0.481158 -0.96091 -0.27396 0.0399651 
-0.876297 -0.481374 -0.0195645 -0.770164 -0.453715 -0.448318 0.735178 -0.47238 0.48618 
0.716239 -0.499396 0.487448 -0.851136 -0.524641 -0.0178896 -0.66143 -0.73651 -0.141647 
0.619692 -0.631821 0.4656 0.595482 -0.67029 0.442847 -0.661102 -0.736818 -0.141571 
-0.545435 -0.833331 -0.0897765 0.49574 -0.791095 0.358343 0.493033 -0.793168 0.357494 
0.449215 -0.855066 0.258976 -0.253023 -0.967241 -0.0205741 -0.338175 -0.940048 0.0441301 
-0.481257 -0.874093 -0.0659758 -0.415384 -0.909592 0.00991063 -0.463749 -0.780868 -0.418547 
0.351473 -0.922403 0.160126 0.335883 -0.930009 0.149218 0.309314 -0.948075 -0.0740115 
0.209893 -0.971642 0.108888 0.0659965 -0.99479 0.0776983 -0.0604002 -0.99758 0.0344428 
-0.119807 -0.992626 -0.0184242 -0.252557 -0.967356 -0.0208939 -0.189353 -0.981009 -0.0420281 
-0.196207 -0.919291 -0.341185 0.5221 0.848775 -0.0836231 0.270303 0.954142 -0.128645 
0.0799478 0.986933 -0.139896 -0.00486749 0.986256 -0.165154 -0.040975 0.979853 -0.195472 
-0.0594389 0.986688 -0.151371 -0.0855917 0.994981 -0.0518424 -0.130593 0.991429 0.00373697 
-0.154969 0.987895 0.00691976 -0.205327 0.977841 -0.0408374 -0.319963 0.945609 -0.0587205 
0.607058 0.790248 -0.0835934 0.717325 0.690761 -0.0910761 0.487284 0.754192 -0.440169 
-0.196609 0.8003 -0.566449 -0.364872 0.928372 -0.0706715 -0.328427 0.918281 -0.221122 
-0.483912 0.87201 -0.0736676 -0.671119 0.726658 -0.146858 0.767151 0.634076 -0.0970896 
0.829397 0.535622 -0.158777 0.67044 0.548956 -0.499157 -0.67737 0.721181 -0.14515 
-0.671036 0.721024 -0.172729 0.851332 0.497732 -0.165822 0.815751 0.491547 -0.304848 
-0.856408 0.496739 -0.140767 -0.887541 0.417041 -0.195828 0.909951 0.382727 -0.159717 
-0.932979 0.235522 -0.272176 -0.869689 0.193314 -0.454171 0.965903 0.176051 -0.189838 
0.974111 0.111592 -0.196609 -0.931018 0.0501146 -0.361516 -0.791255 0.00241656 -0.611481 
0.980888 -0.0155225 -0.193955 0.968064 -0.148258 -0.202165 0.964598 -0.0190263 -0.263037 
-0.89805 -0.150735 -0.413262 -0.747137 -0.439509 -0.498616 -0.759682 -0.165745 -0.628818 
0.944507 -0.267011 -0.19134 -0.721999 -0.462573 -0.514533 -0.42814 -0.387195 -0.816564 
0.848877 -0.514748 -0.120174 0.76002 -0.638101 -0.123271 0.674056 -0.485241 -0.556947 
-0.322956 -0.458464 -0.827956 -0.602268 -0.503582 -0.619417 -0.553977 -0.559006 -0.616946 
-0.510559 -0.480555 -0.713019 0.689283 -0.714766 -0.118315 0.582003 -0.806243 -0.106042 
0.508253 -0.544602 -0.667149 -0.224801 -0.418094 -0.880149 -0.417589 -0.622577 -0.661829 
-0.294567 -0.487545 -0.821906 -0.468954 -0.623704 -0.625361 -0.437071 -0.643195 -0.628705 
-0.413335 -0.590092 -0.693502 0.500137 -0.854742 -0.138849 0.463622 -0.874325 -0.143565 
0.445374 -0.831309 -0.332516 0.328456 -0.916076 -0.230048 0.261253 -0.915932 -0.304657 
-0.193162 -0.81395 -0.547881 -0.176143 -0.576333 -0.798006 -0.204516 -0.784222 -0.585807 
-0.222102 -0.617843 -0.754282 -0.391519 -0.667544 -0.633323 -0.28919 -0.758174 -0.584415 
-0.30909 -0.629893 -0.71253 0.235392 -0.918689 -0.317178 0.155387 -0.923765 -0.350019 
0.140742 -0.869245 -0.473924 0.00426367 -0.916426 -0.40018 -0.0073457 -0.836782 -0.547487 
-0.100624 -0.89803 -0.428271 -0.116473 -0.842331 -0.526224 -0.173686 -0.848338 -0.500155 
-0.170182 -0.852092 -0.494952 -0.172061 -0.845838 -0.504929 0.263387 0.787954 -0.556558 
0.0917479 0.810935 -0.577898 -0.0554317 0.790207 -0.610327 -0.0708558 0.754624 -0.652321 
0.00745317 0.764489 -0.644594 -0.0107363 0.802573 -0.596457 -0.105817 0.808295 -0.579191 
-0.164271 0.789085 -0.591912 0.42255 0.72475 -0.544232 0.461542 0.697645 -0.547969 
0.244556 0.690485 -0.680752 0.0317474 0.623267 -0.781365 -0.0683501 0.568048 -0.820152 
-0.0620412 0.592513 -0.803168 0.0126459 0.613068 -0.789929 -0.000900339 0.615896 -0.787827 
-0.0985933 0.652571 -0.751286 -0.191648 0.785704 -0.588167 -0.146063 0.722739 -0.67551 
-0.19458 0.782496 -0.591472 -0.269759 0.727953 -0.630329 -0.444906 0.654745 -0.611038 
0.652032 0.538707 -0.533524 0.658007 0.53119 -0.533727 0.403906 0.461734 -0.789722 
-0.109219 0.248889 -0.962354 -0.0710854 0.232748 -0.969936 0.0282394 0.255273 -0.966456 
0.0184354 0.271576 -0.962241 -0.0475256 0.267904 -0.962273 -0.0687408 0.325228 -0.943134 
-0.147003 0.394897 -0.906888 -0.193702 0.48745 -0.851394 -0.490067 0.60439 -0.62813 
-0.428376 0.582645 -0.690666 -0.55617 0.444666 -0.702102 0.697654 0.427583 -0.574849 
0.724731 0.377495 -0.576422 0.565983 0.330409 -0.75531 -0.0632387 0.0270428 -0.997632 
0.0592541 0.108699 -0.992307 -0.0410566 0.0615825 -0.997257 -0.0141905 0.135438 -0.990684 
-0.0305371 0.159236 -0.986768 -0.106531 0.239233 -0.9651 -0.341543 0.221916 -0.913292 
-0.642417 0.346895 -0.683348 -0.51243 0.34196 -0.787705 0.741048 0.330329 -0.584578 
0.679087 0.311215 -0.664821 0.449617 0.150264 -0.880492 -0.0448617 0.0398877 -0.998197 
-0.0209813 0.0222751 -0.999532 -0.148933 0.0157802 -0.988721 -0.313785 0.0162808 -0.949355 
-0.627091 0.0535317 -0.777104 -0.528013 0.0357913 -0.848482 0.765454 0.086757 -0.637615 
0.590596 0.0483546 -0.805517 0.364702 0.00208898 -0.931122 -0.132044 -0.129301 -0.982774 
-0.310129 -0.114633 -0.943758 -0.569112 -0.0577178 -0.820232 -0.490325 -0.0739616 -0.868396 
0.671382 -0.046281 -0.739665 0.554496 -0.0572736 -0.830213 0.338193 -0.0981687 -0.935942 
-0.0935902 -0.180279 -0.979153 0.116831 -0.063256 -0.991135 -0.138038 -0.217457 -0.96626 
-0.0983932 -0.254415 -0.962077 -0.140116 -0.272445 -0.951915 -0.25946 -0.268411 -0.927705 
-0.498589 -0.191224 -0.845483 -0.441143 -0.269976 -0.855865 -0.463497 -0.203973 -0.862302 
0.689243 -0.20471 -0.695009 0.614982 -0.375075 -0.693626 0.566022 -0.196021 -0.800746 
0.314302 -0.136541 -0.939452 0.181929 -0.142156 -0.972982 -0.178311 -0.198089 -0.963829 
-0.00481719 -0.110198 -0.993898 0.0719807 -0.157807 -0.984843 -0.150078 -0.262777 -0.953113 
-0.162686 -0.273606 -0.947984 -0.106906 -0.27784 -0.95466 -0.167411 -0.314322 -0.934439 
-0.297504 -0.356025 -0.885854 -0.28199 -0.379293 -0.881259 -0.251119 -0.327013 -0.911045 
0.571339 -0.432417 -0.697558 0.50324 -0.535084 -0.678553 0.411562 -0.327861 -0.850367 
0.188153 -0.2725 -0.94358 0.095139 -0.210612 -0.972929 -0.118484 -0.172183 -0.977913 
-0.148167 -0.122388 -0.98136 -0.0475497 -0.0894087 -0.994859 -0.0341305 -0.195063 -0.980197 
-0.15592 -0.248043 -0.956119 -0.153986 -0.229372 -0.961081 -0.19231 -0.36973 -0.909019 
-0.148108 -0.296419 -0.943504 -0.229039 -0.34856 -0.908871 -0.226281 -0.347159 -0.910097 
-0.223725 -0.344295 -0.911816 0.500217 -0.538041 -0.67845 0.344413 -0.633423 -0.692933 
0.288996 -0.474327 -0.831562 0.158718 -0.373702 -0.913868 0.0253914 -0.356364 -0.934002 
-0.0383092 -0.302005 -0.952536 -0.0841854 -0.224958 -0.970725 -0.078223 -0.195565 -0.977566 
-0.104431 -0.271919 -0.956637 -0.16906 -0.486074 -0.857409 -0.171449 -0.317938 -0.932481 
-0.22113 -0.349579 -0.910437 -0.228795 -0.382322 -0.895256 -0.225427 -0.295711 -0.928298 
0.260368 -0.715086 -0.648738 0.238942 -0.721135 -0.650286 0.232844 -0.70318 -0.671805 
0.128004 -0.667616 -0.733419 0.0865829 -0.602257 -0.793593 0.0574521 -0.626218 -0.777529 
0.0225485 -0.515412 -0.856646 -0.0294811 -0.58691 -0.809115 -0.0375718 -0.467455 -0.883218 
-0.0973543 -0.563714 -0.820213 -0.0857836 -0.466268 -0.880475 -0.160767 -0.535281 -0.829233 
-0.159252 -0.549489 -0.820183 -0.155388 -0.521174 -0.839185 0.147008 0.379584 -0.913403 
-0.0289909 0.347087 -0.937385 0.176121 0.366884 -0.913443 0.340016 0.29332 -0.893506 
0.140376 0.351546 -0.925586 -0.0827237 0.275213 -0.957818 -0.0310578 0.324788 -0.945277 
-0.120451 0.21624 -0.968882 0.0189855 0.153987 -0.98789 0.371837 0.246616 -0.89494 
0.314026 0.228744 -0.921447 0.08093 0.176241 -0.981015 -0.108575 0.154275 -0.982044 
-0.10865 0.0478165 -0.992929 -0.167432 0.0778856 -0.982802 0.0413531 0.108039 -0.993286 
0.085442 0.0915785 -0.992126 -0.0341569 0.0665889 -0.997196 0.017682 0.105574 -0.994254 
0.00314688 0.101381 -0.994843 -0.0303884 0.109512 -0.993521 0.368216 0.104326 -0.923868 
0.252755 0.0623298 -0.965521 0.061613 0.0369499 -0.997416 -0.124846 0.0527785 -0.990771 
-0.144082 0.050543 -0.988274 -0.247071 0.0588723 -0.967207 0.0717879 0.0621728 -0.99548 
-0.0562863 0.132922 -0.989527 0.116991 0.0707036 -0.990613 -0.0212631 0.0207064 -0.999559 
-0.0305166 -0.00813346 -0.999501 -0.0158742 0.0242455 -0.99958 -0.0173424 0.0255653 -0.999523 
0.0316244 0.0402892 -0.998688 -0.123619 0.0192788 -0.992142 -0.0312463 0.032273 -0.998991 
0.327356 -0.0125889 -0.944817 0.214932 -0.0550179 -0.975078 0.0720543 -0.0786021 -0.994299 
-0.0847333 -0.0562305 -0.994816 -0.177569 0.0220713 -0.983861 -0.0581224 0.14644 -0.987511 
-0.0311673 -0.131022 -0.990889 0.00852069 -0.0943585 -0.995502 0.0693076 -0.0603969 -0.995765 
-0.0267848 -0.0546696 -0.998145 0.00818896 0.0482875 -0.9988 -0.0564795 -0.125541 -0.990479 
-0.00143593 -0.0624543 -0.998047 -0.083088 -0.121413 -0.989118 -0.0598232 -0.139466 -0.988418 
-0.0530406 -0.118062 -0.991589 0.251215 -0.115809 -0.960978 0.183053 -0.138728 -0.973266 
0.185448 -0.13034 -0.973972 0.0633465 -0.133488 -0.989024 -0.0281444 -0.1245 -0.99182 
-0.0470585 -0.0618007 -0.996979 -0.122695 -0.119971 -0.985166 -0.171699 -0.148334 -0.973918 
-0.153091 -0.0449571 -0.987189 0.0916363 -0.0658638 -0.993612 -0.0876215 -0.153184 -0.984305 
-0.0815232 -0.156276 -0.984343 -0.0315502 -0.0770039 -0.996531 0.157795 -0.141084 -0.977341 
0.0900642 -0.186658 -0.978288 0.0803268 -0.139019 -0.987026 -0.0120426 -0.116693 -0.993095 
-0.141836 -0.162548 -0.976453 -0.112472 -0.150232 -0.982232 -0.102203 -0.124551 -0.986935 
0.0118421 -0.196325 -0.980467 -0.0280482 -0.189525 -0.981475 -0.00908505 -0.200201 -0.979713 
-0.0105601 -0.192485 -0.981243 
