# vtk DataFile Version 4.2
vtk output
ASCII
DATASET POLYDATA
POINTS 558 float
36.8716 -6.13844 -21.5105 -20.1588 -38.7273 -13.9757 -12.0116 -38.7273 -15.1265 
-3.86442 -38.7273 -15.7364 4.28279 -38.7273 -16.5664 12.43 -38.7273 -16.8841 
20.5772 -38.7273 -16.5031 28.7244 -38.7273 -13.4843 -36.4532 -30.5801 -14.7968 
-28.306 -30.5801 -16.7891 -20.1588 -30.5801 -17.0935 -12.0116 -30.5801 -18.115 
-3.86442 -30.5801 -17.4002 4.28279 -30.5801 -17.9724 12.43 -30.5801 -18.8617 
20.5772 -30.5801 -19.7533 28.7244 -30.5801 -18.4009 36.8716 -30.5801 -15.8364 
-44.6004 -22.4328 -16.0736 -36.4532 -22.4328 -17.423 -28.306 -22.4328 -17.7519 
-20.1588 -22.4328 -17.9559 -12.0116 -22.4328 -17.8292 -3.86442 -22.4328 -17.447 
4.28279 -22.4328 -17.7657 12.43 -22.4328 -19.2203 20.5772 -22.4328 -20.4081 
28.7244 -22.4328 -20.2712 36.8716 -22.4328 -19.4577 45.0188 -22.4328 -17.3426 
-52.7476 -14.2856 -15.5145 -44.6004 -14.2856 -16.9803 -36.4532 -14.2856 -17.7716 
-28.306 -14.2856 -17.5023 -20.1588 -14.2856 -17.1888 -12.0116 -14.2856 -17.4154 
-3.86442 -14.2856 -17.125 4.28279 -14.2856 -16.8833 12.43 -14.2856 -18.3832 
20.5772 -14.2856 -19.6344 28.7244 -14.2856 -20.4799 36.8716 -13.4227 -21.15 
36.8716 -14.2856 -21.1063 45.0188 -14.2856 -21.0917 53.166 -14.2856 -16.9309 
-60.8948 -6.13844 -13.0057 -52.7476 -6.13844 -15.9411 -44.6004 -6.13844 -17.2253 
-36.4532 -6.13844 -17.6629 -28.306 -6.13844 -17.1933 -20.1588 -6.13844 -16.3919 
-12.0116 -6.13844 -17.5137 -3.86442 -6.13844 -18.2443 4.28279 -6.13844 -18.337 
12.43 -6.13844 -17.5121 20.5772 -6.13844 -18.2816 34.8454 -6.13844 -21.15 
28.7244 -6.13844 -19.9938 39.7151 -6.13844 -21.15 36.8716 -1.72886 -21.15 
45.0188 -6.13844 -20.4775 53.166 -6.13844 -19.495 61.3132 -6.13844 -15.5279 
-52.7476 2.00876 -14.5328 -44.6004 2.00876 -16.2139 -36.4532 2.00876 -16.8663 
-28.306 2.00876 -16.6011 -20.1588 2.00876 -16.3241 -12.0116 2.00876 -19.466 
-3.86442 2.00876 -16.2394 4.28279 2.00876 -18.5869 12.43 2.00876 -19.7569 
20.5772 2.00876 -17.6334 28.7244 2.00876 -19.3767 36.8716 2.00876 -20.8195 
45.0188 2.00876 -20.3691 53.166 2.00876 -19.3302 61.3132 2.00876 -16.646 
-44.6004 10.156 -15.5934 -36.4532 10.156 -16.1998 -28.306 10.156 -16.2022 
-20.1588 10.156 -15.8361 -12.0116 10.156 -17.8227 -3.86442 10.156 -17.5808 
4.28279 10.156 -16.3091 12.43 10.156 -17.6365 20.5772 10.156 -18.162 
28.7244 10.156 -19.3876 36.8716 10.156 -20.121 45.0188 10.156 -20.0012 
53.166 10.156 -18.6481 61.3132 10.156 -15.71 -44.6004 18.3032 -13.5038 
-36.4532 18.3032 -14.767 -28.306 18.3032 -15.4693 -20.1588 18.3032 -15.996 
-12.0116 18.3032 -16.6268 -3.86442 18.3032 -16.2353 4.28279 18.3032 -15.8911 
12.43 18.3032 -17.1238 20.5772 18.3032 -18.8285 28.7244 18.3032 -19.1083 
36.8716 18.3032 -19.1614 45.0188 18.3032 -19.0283 53.166 18.3032 -19.0102 
-36.4532 26.4504 -14.2892 -28.306 26.4504 -14.9662 -20.1588 26.4504 -15.781 
-12.0116 26.4504 -16.1868 -3.86442 26.4504 -15.4457 4.28279 26.4504 -15.1854 
12.43 26.4504 -16.3185 20.5772 26.4504 -17.451 28.7244 26.4504 -17.9198 
36.8716 26.4504 -17.5748 45.0188 26.4504 -16.2997 -28.306 34.5976 -13.0798 
-20.1588 34.5976 -13.4957 -12.0116 34.5976 -13.2832 -20.1588 -39.7021 -13.0028 
-12.0116 -40.9104 -13.0028 -3.86442 -42.656 -13.0028 4.28279 -44.0375 -13.0028 
4.28279 -46.8745 -5.99342 12.43 -44.1562 -13.0028 20.5772 -42.2357 -13.0028 
28.7244 -39.1556 -13.0028 -36.4532 -33.2098 -13.0028 -23.0093 -38.7273 -13.0028 
-28.306 -36.0511 -13.0028 -28.306 -38.7273 -8.24842 29.3984 -38.7273 -13.0028 
36.8716 -33.4943 -13.0028 -41.7397 -30.5801 -13.0028 -44.6004 -28.7791 -13.0028 
-44.6004 -30.5801 -11.2816 41.0485 -30.5801 -13.0028 45.0188 -27.6762 -13.0028 
-60.8948 -22.4328 -6.25042 -52.1889 -22.4328 -13.0028 -52.7476 -21.5784 -13.0028 
-52.7476 -22.4328 -12.6581 51.8103 -22.4328 -13.0028 53.166 -21.0223 -13.0028 
53.166 -22.4328 -9.80755 -59.9491 -14.2856 -13.0028 -60.8948 -6.23269 -13.0028 
-60.8948 -14.2856 -12.5966 59.7428 -14.2856 -13.0028 61.3132 -11.7885 -13.0028 
61.3132 -14.2856 -10.3387 -60.8988 -6.13844 -13.0028 -60.8948 -6.11953 -13.0028 
64.2412 -6.13844 -13.0028 -56.7957 2.00876 -13.0028 -60.8948 2.00876 -10.9563 
-52.7476 9.94635 -13.0028 66.0195 2.00876 -13.0028 69.4604 2.00876 -8.26793 
-60.8948 10.156 -8.51782 -52.6428 10.156 -13.0028 -52.7476 10.156 -12.964 
65.0846 10.156 -13.0028 61.3132 18.2916 -13.0028 69.4604 10.156 -8.00012 
-60.8948 18.3032 -4.97319 -46.6162 18.3032 -13.0028 -52.7476 18.3032 -11.0583 
-44.6004 19.6573 -13.0028 61.3074 18.3032 -13.0028 53.166 26.013 -13.0028 
61.3132 18.3032 -12.9987 -52.7476 26.4504 -7.11821 -39.5741 26.4504 -13.0028 
-44.6004 26.4504 -10.5502 -36.4532 29.3379 -13.0028 -3.86442 32.9226 -13.0028 
4.28279 31.7265 -13.0028 12.43 32.8123 -13.0028 20.5772 33.802 -13.0028 
28.7244 34.3684 -13.0028 36.8716 32.6232 -13.0028 52.5772 26.4504 -13.0028 
45.0188 30.4486 -13.0028 53.166 26.4504 -12.5888 -44.6004 34.5976 -7.52915 
-28.5447 34.5976 -13.0028 -36.4532 34.5976 -9.98659 -28.306 34.7436 -13.0028 
-20.1588 35.3096 -13.0028 -9.63371 34.5976 -13.0028 -12.0116 34.9835 -13.0028 
-3.86442 34.5976 -12.0958 4.28279 34.5976 -10.983 12.43 34.5976 -11.0471 
20.5772 34.5976 -11.9359 28.7244 34.5976 -12.5535 36.8716 34.5976 -9.30518 
45.0188 34.5976 -5.32019 -28.306 42.7448 -4.91146 -20.1588 42.7448 -5.12452 
4.28279 -47.185 -4.85557 -28.306 -39.8616 -4.85557 -20.1588 -42.1963 -4.85557 
-12.0116 -44.1851 -4.85557 2.03995 -46.8745 -4.85557 -3.86442 -45.9462 -4.85557 
11.1285 -46.8745 -4.85557 4.28279 -46.8745 -4.23094 12.43 -46.8139 -4.85557 
20.5772 -45.315 -4.85557 28.7244 -41.3536 -4.85557 -44.6004 -34.3359 -4.85557 
-32.807 -38.7273 -4.85557 -36.4532 -37.7865 -4.85557 -28.306 -38.7273 -0.822867 
32.4432 -38.7273 -4.85557 28.7244 -38.7273 3.0278 36.8716 -35.4851 -4.85557 
-60.8948 -23.5869 -4.85557 -52.2867 -30.5801 -4.85557 -52.7476 -30.2809 -4.85557 
43.7081 -30.5801 -4.85557 45.0188 -29.6119 -4.85557 53.166 -23.983 -4.85557 
-61.8442 -22.4328 -4.85557 54.9024 -22.4328 -4.85557 53.166 -22.4328 0.395951 
61.3132 -16.6555 -4.85557 -66.8894 -14.2856 -4.85557 63.4748 -14.2856 -4.85557 
-67.5173 -6.13844 -4.85557 -69.042 -6.13844 2.47469 69.2826 -6.13844 -4.85557 
69.4604 -5.37329 -4.85557 -66.7537 2.00876 -4.85557 -69.042 2.00876 1.78923 
70.8985 2.00876 -4.85557 -64.2116 10.156 -4.85557 71.0998 10.156 -4.85557 
69.4604 14.6635 -4.85557 -61.0073 18.3032 -4.85557 -60.8948 18.4904 -4.85557 
68.0528 18.3032 -4.85557 61.3132 26.0873 -4.85557 -55.3141 26.4504 -4.85557 
-52.7476 29.3158 -4.85557 60.8384 26.4504 -4.85557 53.166 31.5365 -4.85557 
-47.6119 34.5976 -4.85557 -44.6004 36.9374 -4.85557 -36.4532 40.4276 -4.85557 
-12.0116 41.6863 -4.85557 -3.86442 39.8636 -4.85557 4.28279 38.2941 -4.85557 
12.43 37.6031 -4.85557 20.5772 37.5642 -4.85557 28.7244 37.1104 -4.85557 
36.8716 36.0986 -4.85557 36.8716 34.5976 2.87888 45.5636 34.5976 -4.85557 
45.0188 34.8036 -4.85557 45.0188 34.5976 -3.68181 -28.4414 42.7448 -4.85557 
-28.306 42.7773 -4.85557 -19.0561 42.7448 -4.85557 -20.1588 42.8976 -4.85557 
-20.1588 -38.8305 3.29163 -12.0116 -39.9703 3.29163 -3.86442 -40.5915 3.29163 
4.28279 -42.0239 3.29163 12.43 -43.0806 3.29163 20.5772 -41.8527 3.29163 
-44.6004 -32.8535 3.29163 -36.4532 -35.9092 3.29163 -20.7897 -38.7273 3.29163 
-28.306 -37.3629 3.29163 -20.1588 -38.7273 3.44494 -12.0116 -38.7273 4.81045 
-3.86442 -38.7273 5.25329 4.28279 -38.7273 6.60382 12.43 -38.7273 7.86096 
28.4982 -38.7273 3.29163 20.5772 -38.7273 7.07777 28.7244 -38.6157 3.29163 
36.8716 -32.5771 3.29163 -60.8948 -23.4002 3.29163 -50.1368 -30.5801 3.29163 
-52.7476 -29.3852 3.29163 -44.6004 -30.5801 7.10734 -36.4532 -30.5801 9.9762 
28.7244 -30.5801 10.8635 39.7441 -30.5801 3.29163 36.8716 -30.5801 5.74612 
45.0188 -27.1958 3.29163 -61.8155 -22.4328 3.29163 -60.8948 -22.4328 4.78226 
51.9831 -22.4328 3.29163 45.0188 -22.4328 9.35421 53.166 -21.571 3.29163 
61.3132 -14.8583 3.29163 -67.8074 -14.2856 3.29163 -69.042 -7.09045 3.29163 
61.8437 -14.2856 3.29163 61.3132 -14.2856 4.07521 -69.1704 -6.13844 3.29163 
-69.042 -6.13844 3.6083 68.269 -6.13844 3.29163 69.4604 -1.03577 3.29163 
-69.4092 2.00876 3.29163 -69.042 3.74944 3.29163 -69.042 2.00876 4.40355 
69.9902 2.00876 3.29163 69.4604 2.00876 4.26333 -67.6909 10.156 3.29163 
70.3041 10.156 3.29163 69.4604 12.5115 3.29163 69.4604 10.156 4.71348 
-63.9766 18.3032 3.29163 -60.8948 23.6412 3.29163 67.1888 18.3032 3.29163 
61.3132 24.8959 3.29163 -58.995 26.4504 3.29163 -52.7476 32.963 3.29163 
36.8716 34.5026 3.29163 45.0188 33.1596 3.29163 59.4546 26.4504 3.29163 
53.166 30.4885 3.29163 53.166 26.4504 9.28116 -50.7988 34.5976 3.29163 
-44.6004 38.7716 3.29163 -36.4532 41.9849 3.29163 -12.0116 41.4023 3.29163 
-3.86442 39.526 3.29163 -3.86442 34.5976 10.6432 4.28279 37.6899 3.29163 
4.28279 34.5976 8.58659 12.43 36.2036 3.29163 12.43 34.5976 6.09832 
20.5772 35.5014 3.29163 20.5772 34.5976 4.79847 35.9807 34.5976 3.29163 
28.7244 35.3032 3.29163 28.7244 34.5976 4.43245 -32.9787 42.7448 3.29163 
-28.306 43.7667 3.29163 -28.306 42.7448 5.23116 -18.6557 42.7448 3.29163 
-20.1588 43.0262 3.29163 -20.1588 42.7448 3.96954 -28.306 -30.966 11.4388 
-20.1588 -31.9757 11.4388 -12.0116 -32.1082 11.4388 -3.86442 -31.061 11.4388 
4.28279 -32.0054 11.4388 12.43 -33.6848 11.4388 20.5772 -33.1286 11.4388 
-52.7476 -23.1315 11.4388 -44.6004 -26.9476 11.4388 -30.1919 -30.5801 11.4388 
-36.4532 -29.194 11.4388 -28.306 -30.5801 11.7993 -20.1588 -30.5801 12.6898 
-12.0116 -30.5801 12.7877 -3.86442 -30.5801 11.8077 4.28279 -30.5801 12.309 
12.43 -30.5801 13.189 26.8532 -30.5801 11.4388 20.5772 -30.5801 13.0118 
28.7244 -29.6315 11.4388 36.8716 -24.6977 11.4388 -53.749 -22.4328 11.4388 
-60.8948 -16.0607 11.4388 -52.7476 -22.4328 12.1042 -44.6004 -22.4328 14.8515 
-36.4532 -22.4328 16.7562 -28.306 -22.4328 17.2803 -20.1588 -22.4328 17.5632 
-12.0116 -22.4328 17.3562 -3.86442 -22.4328 16.894 4.28279 -22.4328 16.1943 
12.43 -22.4328 15.7904 20.5772 -22.4328 15.6334 28.7244 -22.4328 14.6775 
[...]
POINT_DATA 558
SCALARS ImageScalars float
LOOKUP_TABLE default
0 0 0 0 0 0 0 0 0 
0 0 0 0 0 0 0 0 0 
0 0 0 0 0 0 0 0 0 
0 0 0 0 0 0 0 0 0 
0 0 0 0 0 0 0 0 0 
0 0 0 0 0 0 0 0 0 
0 0 0 0 0 0 0 0 0 
0 0 0 0 0 0 0 0 0 
0 0 0 0 0 0 0 0 0 
0 0 0 0 0 0 0 0 0 
0 0 0 0 0 0 0 0 0 
0 0 0 0 0 0 0 0 0 
0 0 0 0 0 0 0 0 0 
0 0 0 0 0 0 0 0 0 
0 0 0 0 0 0 0 0 0 
0 0 0 0 0 0 0 0 0 
0 0 0 0 0 0 0 0 0 
0 0 0 0 0 0 0 0 0 
0 0 0 0 0 0 0 0 0 
0 0 0 0 0 0 0 0 0 
0 0 0 0 0 0 0 0 0 
0 0 0 0 0 0 0 0 0 
0 0 0 0 0 0 0 0 0 
0 0 0 0 0 0 0 0 0 
0 0 0 0 0 0 0 0 0 
0 0 0 0 0 0 0 0 0 
0 0 0 0 0 0 0 0 0 
0 0 0 0 0 0 0 0 0 
0 0 0 0 0 0 0 0 0 
0 0 0 0 0 0 0 0 0 
0 0 0 0 0 0 0 0 0 
0 0 0 0 0 0 0 0 0 
0 0 0 0 0 0 0 0 0 
0 0 0 0 0 0 0 0 0 
0 0 0 0 0 0 0 0 0 
0 0 0 0 0 0 0 0 0 
0 0 0 0 0 0 0 0 0 
0 0 0 0 0 0 0 0 0 
0 0 0 0 0 0 0 0 0 
0 0 0 0 0 0 0 0 0 
0 0 0 0 0 0 0 0 0 
0 0 0 0 0 0 0 0 0 
0 0 0 0 0 0 0 0 0 
0 0 0 0 0 0 0 0 0 
0 0 0 0 0 0 0 0 0 
0 0 0 0 0 0 0 0 0 
0 0 0 0 0 0 0 0 0 
0 0 0 0 0 0 0 0 0 
0 0 0 0 0 0 0 0 0 
0 0 0 0 0 0 0 0 0 
0 0 0 0 0 0 0 0 0 
0 0 0 0 0 0 0 0 0 
0 0 0 0 0 0 0 0 0 
0 0 0 0 0 0 0 0 0 
0 0 0 0 0 0 0 0 0 
0 0 0 0 0 0 0 0 0 
0 0 0 0 0 0 0 0 0 
0 0 0 0 0 0 0 0 0 
0 0 0 0 0 0 0 0 0 
0 0 0 0 0 0 0 0 0 
0 0 0 0 0 0 0 0 0 
0 0 0 0 0 0 0 0 0 

NORMALS Normals float
0.0271842 -0.0177719 0.999472 0.227597 0.686379 0.690712 0.113498 0.620657 0.775824 
0.0881819 0.448617 0.889363 0.0746263 0.396737 0.914894 0.00282173 0.439169 0.8984 
-0.177706 0.595012 0.783825 -0.41965 0.734528 0.533256 0.249286 0.46416 0.849948 
0.144444 0.358087 0.922448 0.077661 0.223559 0.971591 0.016261 0.120782 0.992546 
-0.00627997 0.101795 0.994786 0.0891562 0.0733733 0.993311 0.103538 0.136694 0.985188 
-0.0243733 0.196572 0.980186 -0.21175 0.366497 0.906003 -0.414456 0.611122 0.674356 
0.245364 0.249773 0.936701 0.113543 0.184616 0.97623 0.0319118 0.0338808 0.998916 
0.00444595 0.00334427 0.999985 -0.0311604 -0.0417805 0.998641 -0.00402184 -0.0169185 0.999849 
0.108807 -0.0667785 0.991817 0.160816 -0.0289733 0.986559 0.0638182 -0.0101912 0.997909 
-0.0562937 0.115728 0.991684 -0.1686 0.27558 0.946377 -0.368875 0.523217 0.768228 
0.271879 0.168714 0.947427 0.125817 0.0760331 0.989135 0.0300272 0.0131422 0.999463 
-0.0367604 -0.0348757 0.998715 -0.0054527 -0.09803 0.995169 -0.00390438 -0.0201907 0.999789 
-0.0335755 0.0443786 0.99845 0.0774272 0.0326347 0.996464 0.167643 -0.102233 0.980533 
0.127513 -0.123744 0.984087 0.0882737 -0.0142284 0.995995 0.0379317 0.113635 0.992798 
0.0386887 0.128068 0.99101 -0.22374 0.15489 0.962263 -0.461114 0.348972 0.815839 
0.549118 -0.0664224 0.833101 0.282248 -0.0570969 0.957641 0.096894 -0.0468228 0.994193 
-0.00274421 -0.0553575 0.998463 -0.0775556 -0.0549502 0.995473 0.0124264 -0.0529342 0.998521 
0.118692 0.11485 0.986267 0.0498006 -0.0282774 0.998359 -0.0478645 0.109366 0.992848 
-0.00544376 0.0466799 0.998895 0.148101 -0.124291 0.981131 0.0687856 -0.0283425 0.997229 
0.185074 -0.0660242 0.980504 -0.0235988 -0.0272911 0.999349 0.0423399 -0.0560901 0.997528 
-0.111867 -0.0383279 0.992984 -0.265034 0.143885 0.953443 -0.581641 0.232117 0.779625 
0.294085 -0.168318 0.940842 0.132369 -0.10187 0.985952 0.022538 -0.0885722 0.995815 
-0.0331641 -0.0606646 0.997607 0.147256 -0.0345055 0.988496 0.0451956 0.018446 0.998808 
-0.0831709 -0.045902 0.995478 0.206255 -0.137828 0.968742 -0.0900528 0.00710102 0.995912 
0.00798353 -0.00468615 0.999957 0.18612 -0.0353444 0.981891 0.056507 -0.085827 0.994706 
-0.0860348 -0.0300772 0.995838 -0.187854 -0.0499372 0.980927 -0.500946 0.00829823 0.865439 
0.176601 -0.149006 0.972938 0.0391337 -0.125373 0.991338 -0.0221719 -0.0693273 0.997348 
0.0888376 -0.0204827 0.995835 0.114519 -0.167943 0.979122 -0.0881239 -0.0199794 0.995909 
0.00881078 -0.134394 0.990889 0.109662 -0.129585 0.985486 0.105747 0.0703495 0.991901 
0.119364 -0.0163676 0.992716 0.0369999 -0.0963539 0.994659 -0.084564 -0.0758725 0.993525 
-0.23128 -0.0249446 0.972567 -0.499471 -0.188424 0.845592 0.198452 -0.311352 0.929342 
0.113923 -0.119822 0.986237 0.0736156 -0.0739062 0.994544 0.0707205 -0.00308423 0.997491 
0.0148201 -0.0942346 0.99544 -0.0452202 -0.122424 0.991447 0.0546894 -0.0656529 0.996343 
0.177314 -0.0791968 0.980963 0.119618 -0.0353957 0.992189 0.020014 -0.0902985 0.995714 
-0.00430174 -0.140512 0.99007 -0.00923635 -0.229942 0.973161 -0.291529 -0.255722 0.921747 
0.239506 -0.242751 0.940058 0.0967567 -0.150154 0.983917 0.0743944 -0.135126 0.988032 
-0.0189979 -0.181947 0.983125 -0.0633915 -0.222956 0.972765 0.0535309 -0.230165 0.971678 
0.13056 -0.251141 0.959105 0.0995015 -0.314123 0.944154 0.00819683 -0.319022 0.947712 
-0.104522 -0.415055 0.903772 -0.229486 -0.479135 0.847211 0.180628 -0.370321 0.911173 
0.014191 -0.451934 0.891939 -0.0657635 -0.52104 0.850995 0.227832 0.748871 0.622322 
0.162019 0.74955 0.641813 0.154042 0.703288 0.694015 0.0710437 0.740488 0.668304 
0.0524534 0.998263 -0.0268368 -0.0901856 0.770644 0.630852 -0.269968 0.765565 0.583976 
-0.422676 0.752235 0.505458 0.281138 0.601725 0.747588 0.250788 0.729572 0.636262 
0.255815 0.661908 0.704583 0.275907 0.923049 0.268058 -0.432011 0.748588 0.502973 
-0.49747 0.722619 0.479943 0.318745 0.586891 0.744285 0.335376 0.562508 0.755716 
0.381033 0.702195 0.601445 -0.508068 0.723578 0.467229 -0.525123 0.706056 0.475111 
0.705225 0.606053 0.36791 0.451726 0.360783 0.815953 0.446073 0.347323 0.824855 
0.47251 0.380583 0.794916 -0.589007 0.645631 0.486037 -0.594864 0.619485 0.512226 
-0.633658 0.718864 0.285854 0.509142 0.222094 0.831534 0.549283 -0.0629402 0.833262 
0.551086 0.230256 0.802051 -0.652999 0.471933 0.592344 -0.672415 0.411917 0.614966 
-0.724481 0.557336 0.40559 0.549264 -0.0664065 0.833006 0.549127 -0.0666992 0.833073 
-0.686437 0.267026 0.676389 0.417759 -0.177318 0.891087 0.570717 -0.18237 0.800639 
0.356993 -0.169025 0.918687 -0.685009 0.0431911 0.727253 -0.920472 0.0927511 0.379644 
0.636592 -0.28237 0.717647 0.356442 -0.168986 0.918908 0.359129 -0.169491 0.917769 
-0.622235 -0.182816 0.761184 -0.559549 -0.334401 0.758341 -0.893753 -0.186142 0.408115 
0.700062 -0.411059 0.583904 0.254378 -0.311976 0.915403 0.438684 -0.308884 0.843888 
0.22817 -0.311739 0.922365 -0.559484 -0.334642 0.758282 -0.416642 -0.590857 0.690867 
-0.559719 -0.33473 0.75807 0.561653 -0.49757 0.661037 0.296172 -0.262775 0.918276 
0.38744 -0.303181 0.870615 0.252237 -0.327456 0.910576 -0.0881675 -0.48629 0.869338 
0.00844213 -0.49663 0.867921 0.0673991 -0.655224 0.752422 0.0595849 -0.738287 0.67185 
-0.0521601 -0.790731 0.609938 -0.187658 -0.733863 0.652863 -0.406455 -0.598213 0.690605 
-0.25786 -0.697405 0.668681 -0.42437 -0.615701 0.663944 0.475343 -0.605545 0.638251 
0.183088 -0.373444 0.909405 0.287095 -0.539302 0.791663 0.179576 -0.376976 0.908648 
0.00533773 -0.486491 0.873669 -0.0723852 -0.532776 0.843155 -0.0671117 -0.538283 0.840088 
-0.104615 -0.595478 0.796531 -0.0491068 -0.733065 0.678383 0.0278347 -0.832328 0.553583 
0.042718 -0.820078 0.570655 -0.0556664 -0.81926 0.570714 -0.178271 -0.920849 0.34678 
-0.263713 -0.952638 0.151448 0.122937 -0.930178 0.345912 -0.0627336 -0.948691 0.309918 
0.049354 0.992246 -0.11407 0.253371 0.967199 0.018134 0.255552 0.964899 -0.0605242 
0.215754 0.972633 -0.0862277 0.0818757 0.989305 -0.120718 0.17363 0.976715 -0.126014 
-0.0822434 0.993511 -0.0785599 0.0547562 0.986376 -0.155124 -0.106923 0.99174 -0.0708435 
-0.306647 0.950835 -0.0433714 -0.511074 0.859028 -0.0295673 0.416064 0.899795 0.131376 
0.278957 0.958619 0.0568633 0.315487 0.94456 0.0909592 0.201863 0.958564 -0.201012 
-0.561674 0.826779 -0.030968 -0.452697 0.78183 -0.428728 -0.588112 0.807832 -0.0391263 
0.711005 0.648349 0.272241 0.542579 0.822199 0.172037 0.550017 0.815731 0.179067 
-0.569639 0.820965 -0.0390934 -0.568948 0.821704 -0.0331895 -0.624345 0.781147 0.00142839 
0.735766 0.614264 0.285181 -0.640716 0.767764 0.00464946 -0.600508 0.762914 -0.239484 
-0.722381 0.689343 0.0545149 0.878356 0.294853 0.376235 -0.762583 0.642695 0.0735491 
0.888299 0.000753517 0.459266 0.994563 0.0757329 -0.0714812 -0.906635 0.38993 0.161142 
-0.917257 0.364448 0.16068 0.819678 -0.163138 0.549103 0.992978 -0.104683 0.0551028 
-0.982043 0.111546 0.152151 0.772583 -0.285801 0.566951 -0.963858 -0.171229 0.204103 
-0.926525 -0.321853 0.194836 0.705328 -0.411743 0.577044 0.703571 -0.413553 0.577894 
-0.87231 -0.445685 0.201097 -0.627367 -0.765522 0.142786 0.64535 -0.51134 0.567498 
0.618056 -0.553655 0.558098 -0.61379 -0.776598 0.141978 -0.44786 -0.883666 0.136218 
0.566033 -0.659014 0.495285 0.491822 -0.727996 0.477632 0.328908 -0.838326 0.434775 
-0.172995 -0.950535 0.257986 -0.202874 -0.946973 0.249166 -0.136269 -0.966457 0.217695 
-0.0438338 -0.990935 0.126988 -0.0301634 -0.997809 0.0588913 -0.0881866 -0.995378 0.0380208 
-0.134068 -0.989159 0.0599144 -0.115395 -0.930819 -0.346784 -0.273922 -0.95365 0.124571 
-0.262976 -0.956381 0.127199 -0.265689 -0.962144 0.0607312 0.126452 -0.930759 0.34307 
0.122936 -0.931359 0.34272 -0.0780411 -0.954288 0.288521 -0.0637719 -0.953453 0.294722 
0.137486 0.859871 -0.49165 0.0944193 0.808794 -0.580463 0.102154 0.747847 -0.655965 
0.121815 0.744034 -0.656943 -0.0139533 0.808711 -0.588041 -0.232979 0.818805 -0.52467 
0.325139 0.880957 -0.3438 0.252212 0.874833 -0.413589 0.138109 0.862369 -0.487079 
0.147693 0.882417 -0.446683 0.135684 0.85815 -0.495145 0.0720327 0.787761 -0.611755 
0.0833531 0.709265 -0.699996 0.11946 0.663779 -0.738327 0.0262195 0.665899 -0.745581 
-0.442886 0.778618 -0.44453 -0.181702 0.732 -0.656628 -0.448634 0.776272 -0.442864 
-0.516177 0.736119 -0.437824 0.68743 0.684831 -0.241756 0.431159 0.842674 -0.322495 
0.486876 0.817774 -0.306915 0.295993 0.8189 -0.491723 0.175575 0.735646 -0.654216 
-0.311735 0.512174 -0.800312 -0.503428 0.748351 -0.431893 -0.477201 0.697187 -0.534986 
-0.495665 0.770103 -0.401569 0.711113 0.659256 -0.244336 0.686806 0.648933 -0.32739 
-0.5572 0.74062 -0.375514 -0.406443 0.663405 -0.62825 -0.567795 0.734041 -0.37255 
-0.687764 0.642142 -0.338577 0.898873 0.399073 -0.181022 0.985079 0.11515 -0.127903 
-0.69667 0.634447 -0.334854 -0.679835 0.632275 -0.371556 0.989201 0.0808944 -0.122219 
0.987318 0.0832837 -0.135156 -0.842707 0.415985 -0.341762 -0.916224 0.221187 -0.33408 
0.99504 -0.0900516 -0.0422609 0.990304 -0.134209 -0.0358488 0.990001 -0.0848257 -0.11271 
-0.941391 0.105641 -0.320349 -0.926426 0.106108 -0.361214 0.954124 -0.299189 -0.0115378 
-0.931763 -0.156485 -0.327613 -0.911416 -0.242321 -0.332568 -0.905367 -0.161102 -0.392881 
0.877955 -0.478029 0.026114 0.82925 -0.557615 0.0375609 -0.825751 -0.46056 -0.325606 
-0.633655 -0.705803 -0.316737 0.790299 -0.61152 0.0383459 0.677252 -0.735646 0.0124182 
-0.114043 -0.921976 -0.370073 -0.241206 -0.896043 -0.372728 -0.573171 -0.755524 -0.317266 
-0.391626 -0.873803 -0.288267 -0.424471 -0.621137 -0.658797 0.629217 -0.777165 -0.0100771 
0.466077 -0.882048 -0.0690158 0.274424 -0.953979 -0.120892 -0.205044 -0.948815 -0.240223 
-0.221103 -0.937784 -0.267721 -0.191433 -0.658155 -0.728138 -0.197887 -0.937599 -0.285917 
-0.176033 -0.783194 -0.596339 -0.129804 -0.929252 -0.345892 -0.135799 -0.867816 -0.477969 
-0.0529032 -0.913576 -0.403212 -0.0572804 -0.885529 -0.461039 -0.107588 -0.921922 -0.372136 
-0.0590885 -0.916795 -0.394962 -0.0556822 -0.896748 -0.439024 0.187612 -0.969716 -0.156372 
0.0640382 -0.977685 -0.200077 0.059971 -0.95041 -0.305164 -0.151644 -0.966897 -0.205219 
-0.139424 -0.969738 -0.200423 -0.135649 -0.962751 -0.233902 0.120125 0.686523 -0.717116 
0.0516114 0.67585 -0.73523 -0.032936 0.657131 -0.753057 -0.0145245 0.584629 -0.811171 
0.0887801 0.505817 -0.85806 0.0383636 0.490394 -0.870656 -0.131287 0.509033 -0.850675 
0.39086 0.611207 -0.688225 0.254825 0.664619 -0.702386 0.130649 0.688146 -0.713713 
0.162333 0.683608 -0.711567 0.118118 0.676777 -0.726651 0.0482326 0.638063 -0.768472 
-0.0427431 0.62182 -0.781993 -0.0216036 0.579617 -0.814603 0.0741898 0.481981 -0.873035 
0.0389826 0.408102 -0.912104 -0.262699 0.486536 -0.83323 -0.122196 0.423838 -0.897457 
-0.284785 0.482273 -0.828438 -0.313444 0.563986 -0.763985 0.422114 0.588993 -0.689135 
0.577841 0.401301 -0.710674 0.391656 0.594391 -0.702357 0.221522 0.530872 -0.817987 
0.126978 0.476815 -0.869784 0.0433871 0.436254 -0.898777 0.00373006 0.381993 -0.924158 
-0.0365214 0.348642 -0.936544 -0.0667856 0.437407 -0.89678 -0.0610446 0.458228 -0.886736 
-0.0318999 0.193302 -0.980621 -0.0670717 0.219262 -0.973358 -0.137443 0.343558 -0.92902 
-0.327962 0.588323 -0.739132 -0.257752 0.52626 -0.810317 -0.35801 0.599427 -0.715902 
-0.449273 0.570497 -0.687523 0.606675 0.378813 -0.698889 0.558508 0.374347 -0.740225 
0.352002 0.313823 -0.881822 0.130345 0.317224 -0.93935 0.00775337 0.178417 -0.983925 
-0.213346 0.120434 -0.969525 0.0468743 0.151744 -0.987308 0.00383608 0.296367 -0.955067 
-0.0876414 0.382508 -0.919786 -0.258647 0.478975 -0.838859 -0.456878 0.563345 -0.688407 
-0.445283 0.559915 -0.698726 -0.597892 0.435484 -0.672963 0.740238 0.151695 -0.655009 
0.566905 0.186383 -0.802421 0.315497 0.107865 -0.942776 -0.243891 0.206264 -0.947614 
0.118178 0.172463 -0.977901 -0.16311 0.251951 -0.953895 -0.378517 0.310805 -0.871852 
-0.61181 0.415822 -0.67289 -0.59625 0.415519 -0.686899 0.773796 -0.0240681 -0.632977 
0.57705 0.0041602 -0.816698 -0.00546522 0.0401094 -0.99918 -0.333565 0.0249821 -0.942396 
-0.712393 0.131115 -0.689424 -0.553381 0.106877 -0.826043 0.765453 -0.210782 -0.607991 
0.646689 -0.194761 -0.73747 0.314805 -0.171252 -0.933579 -0.124565 -0.248638 -0.960553 
0.00824007 -0.195714 -0.980626 0.0854936 -0.153829 -0.984392 -0.328816 -0.144032 -0.933346 
-0.674597 -0.175385 -0.717049 -0.537397 -0.172128 -0.825576 0.758011 -0.36542 -0.540267 
0.746017 -0.387778 -0.541375 0.729625 -0.363345 -0.579333 0.435603 -0.264213 -0.860489 
-0.112067 -0.138585 -0.983989 -0.146711 -0.236429 -0.960509 -0.166699 -0.320799 -0.932362 
-0.0386182 -0.281762 -0.958707 0.0690142 -0.283809 -0.956394 0.0810576 -0.328329 -0.941079 
0.0417679 -0.354127 -0.934264 -0.0470274 -0.400652 -0.915023 -0.140157 -0.382111 -0.913426 
-0.383319 -0.518473 -0.764364 -0.307004 -0.43843 -0.844705 -0.524451 -0.461331 -0.715629 
-0.522488 -0.464103 -0.715272 -0.522508 -0.461189 -0.71714 0.640446 -0.553706 -0.532202 
0.569896 -0.618041 -0.54152 0.529596 -0.518574 -0.671274 0.251143 -0.409063 -0.877265 
0.0907365 -0.359623 -0.928676 -0.0582897 -0.309643 -0.949064 -0.122637 -0.27795 -0.952735 
-0.179983 -0.312029 -0.932869 -0.181845 -0.588703 -0.78763 -0.146547 -0.316457 -0.937219 
-0.133273 -0.55779 -0.819212 -0.0811304 -0.333561 -0.939231 -0.0879327 -0.57844 -0.810971 
-0.0407815 -0.446097 -0.894055 -0.01984 -0.616013 -0.787486 0.0041426 -0.531183 -0.847247 
-0.0178692 -0.658744 -0.752155 -0.00616325 -0.568814 -0.822443 -0.0411867 -0.6814 -0.730751 
-0.0262284 -0.611291 -0.790972 -0.311552 -0.602322 -0.734945 -0.167729 -0.705485 -0.688592 
-0.180607 -0.632961 -0.752823 0.400231 -0.72428 -0.561457 0.359414 -0.737566 -0.571679 
0.346314 -0.706405 -0.6173 0.157402 -0.72841 -0.666816 0.121989 -0.594835 -0.794538 
0.0274276 -0.7163 -0.697253 0.0179995 -0.563345 -0.826026 -0.101116 -0.710508 -0.696387 
-0.113254 -0.544223 -0.831261 -0.189623 -0.616216 -0.764409 -0.19714 -0.65029 -0.733662 
-0.189867 -0.572976 -0.797276 0.0755314 0.322549 -0.943534 -0.00701791 0.301014 -0.953594 
-0.0493268 0.251949 -0.966483 0.0772369 0.20761 -0.975158 -0.194394 0.412993 -0.889746 
0.104187 0.304982 -0.946642 0.138299 0.27194 -0.952325 0.0660587 0.286383 -0.955835 
-0.020315 0.263172 -0.964535 -0.0222174 0.202891 -0.978949 -0.059403 0.230907 -0.971161 
0.0437206 0.172982 -0.983954 -0.020342 0.173555 -0.984614 0.110593 0.164385 -0.980177 
-0.25308 0.305579 -0.917917 -0.229902 0.359421 -0.904412 0.103313 0.207532 -0.972757 
-0.0390233 0.260575 -0.964665 0.252683 0.11362 -0.960855 0.280679 0.0373624 -0.959074 
0.171284 0.137631 -0.975561 0.0616465 0.107197 -0.992325 -0.014748 0.100674 -0.99481 
-0.0789194 0.101851 -0.991664 -0.101216 0.159743 -0.981956 0.110075 -0.0287297 -0.993508 
-0.213992 0.0983191 -0.971875 -0.0972887 -0.092641 -0.990935 0.110062 0.198589 -0.973883 
0.0662296 0.0625054 -0.995845 0.109587 0.20138 -0.973364 -0.0981642 0.245173 -0.964497 
-0.0342481 0.239115 -0.970387 -0.167308 0.157942 -0.973171 0.290089 0.0258793 -0.95665 
0.285608 -0.0283971 -0.957926 0.277186 0.0268483 -0.960441 0.136381 0.0125832 -0.990577 
0.0299189 -0.00912469 -0.999511 -0.027382 -0.037002 -0.99894 -0.0103026 -0.0603635 -0.998123 
-0.112408 0.00371038 -0.993655 -0.138434 0.0535529 -0.988923 -0.0058604 -0.0387748 -0.999231 
-0.0337587 -0.203386 -0.978517 -0.00682185 -0.189494 -0.981858 0.0378771 0.051774 -0.99794 
0.0668474 0.0387043 -0.997012 0.0646759 0.0589117 -0.996166 0.0784116 0.013328 -0.996832 
-0.0251262 0.0339321 -0.999108 -0.215668 0.0319129 -0.975945 -0.175214 0.0374843 -0.983817 
0.269428 -0.145069 -0.952031 0.130224 -0.0559561 -0.989904 0.0126451 -0.0849768 -0.996303 
-0.0661483 -0.0974121 -0.993043 -0.104436 -0.137713 -0.984951 -0.0425087 -0.133575 -0.990127 
-0.0617313 -0.219467 -0.973665 0.010791 -0.20363 -0.978988 -0.11757 -0.226358 -0.966923 
-0.115877 -0.225668 -0.967288 -0.0915892 -0.165522 -0.981944 0.0868691 -0.160875 -0.983144 
0.0804889 -0.199207 -0.976646 0.0885267 -0.167859 -0.981828 -0.0217266 -0.270212 -0.962556 
-0.0107531 -0.189321 -0.981856 -0.195664 -0.176207 -0.964711 -0.17208 -0.201579 -0.964238 
-0.177103 -0.182651 -0.967095 0.27577 -0.232092 -0.932783 0.224249 -0.276859 -0.934377 
0.207898 -0.219275 -0.953256 0.0663188 -0.310806 -0.948157 -0.0112856 -0.150002 -0.988621 
-0.106773 -0.140695 -0.984279 -0.068806 -0.222609 -0.972477 -0.0729245 -0.155183 -0.98519 

