# vtk DataFile Version 4.2
vtk output
ASCII
DATASET POLYDATA
POINTS 546 float
36.7616 -13.3435 -17.8534 -0.429077 -43.096 -11.8678 7.00906 -43.096 -12.5188 
14.4472 -43.096 -10.9139 -22.7435 -35.6579 -11.6687 -15.3053 -35.6579 -12.9205 
-7.86721 -35.6579 -13.3978 -0.429077 -35.6579 -14.4245 7.00906 -35.6579 -14.597 
14.4472 -35.6579 -13.7345 21.8853 -35.6579 -12.9402 29.3235 -35.6579 -10.9699 
-37.6197 -28.2197 -12.5822 -30.1816 -28.2197 -13.7081 -22.7435 -28.2197 -14.5638 
-15.3053 -28.2197 -14.1184 -7.86721 -28.2197 -14.3432 -0.429077 -28.2197 -14.6742 
7.00906 -28.2197 -14.7255 14.4472 -28.2197 -14.4574 21.8853 -28.2197 -15.2533 
29.3235 -28.2197 -14.168 36.7616 -28.2197 -13.3412 44.1997 -28.2197 -10.7012 
-45.0579 -20.7816 -13.353 -37.6197 -20.7816 -14.911 -30.1816 -20.7816 -15.7573 
-22.7435 -20.7816 -15.2619 -15.3053 -20.7816 -14.3566 -7.86721 -20.7816 -13.8103 
-0.429077 -20.7816 -13.8536 7.00906 -20.7816 -13.638 14.4472 -20.7816 -14.2333 
21.8853 -20.7816 -15.4895 29.3235 -20.7816 -15.9698 36.7616 -13.4155 -17.8384 
36.7616 -20.7816 -15.8873 44.1997 -20.7816 -14.889 -52.496 -13.3435 -12.2845 
-45.0579 -13.3435 -14.8546 -37.6197 -13.3435 -16.5577 -30.1816 -13.3435 -16.096 
-22.7435 -13.3435 -15.0943 -15.3053 -13.3435 -13.6951 -7.86721 -13.3435 -12.7631 
-0.429077 -13.3435 -12.6253 7.00906 -13.3435 -12.2919 14.4472 -13.3435 -13.8205 
21.8853 -13.3435 -15.4787 36.659 -13.3435 -17.8384 29.3235 -13.3435 -16.5979 
36.8145 -13.3435 -17.8384 36.7616 -13.2346 -17.8384 44.1997 -13.3435 -15.331 
51.6379 -13.3435 -11.771 -52.496 -5.90534 -12.5887 -45.0579 -5.90534 -15.2049 
-37.6197 -5.90534 -17.1788 -30.1816 -5.90534 -15.9645 -22.7435 -5.90534 -14.6756 
-15.3053 -5.90534 -12.6855 -7.86721 -5.90534 -13.6697 -0.429077 -5.90534 -15.0154 
7.00906 -5.90534 -15.7559 14.4472 -5.90534 -13.3235 21.8853 -5.90534 -14.9906 
29.3235 -5.90534 -16.4001 36.7616 -5.90534 -16.6712 44.1997 -5.90534 -16.1822 
51.6379 -5.90534 -15.0335 -52.496 1.53279 -13.246 -45.0579 1.53279 -15.3628 
-37.6197 1.53279 -16.1811 -30.1816 1.53279 -15.9339 -22.7435 1.53279 -14.3292 
-15.3053 1.53279 -12.2398 -7.86721 1.53279 -16.1381 7.00906 1.53279 -15.5741 
14.4472 1.53279 -12.007 21.8853 1.53279 -14.2847 29.3235 1.53279 -15.9903 
36.7616 1.53279 -16.2724 44.1997 1.53279 -15.8538 51.6379 1.53279 -14.3082 
-52.496 8.97092 -12.4851 -45.0579 8.97092 -15.0478 -37.6197 8.97092 -17.137 
-30.1816 8.97092 -16.1342 -22.7435 8.97092 -14.9658 -15.3053 8.97092 -14.1544 
-7.86721 8.97092 -16.8484 -0.429077 8.97092 -15.2686 7.00906 8.97092 -15.7459 
14.4472 8.97092 -11.8566 21.8853 8.97092 -13.2349 29.3235 8.97092 -14.9552 
36.7616 8.97092 -16.0859 44.1997 8.97092 -15.1013 51.6379 8.97092 -13.2371 
-52.496 16.4091 -11.8438 -45.0579 16.4091 -14.5496 -37.6197 16.4091 -16.295 
-30.1816 16.4091 -16.1721 -22.7435 16.4091 -15.8852 -15.3053 16.4091 -15.6076 
-7.86721 16.4091 -14.7932 -0.429077 16.4091 -14.6664 7.00906 16.4091 -15.3754 
14.4472 16.4091 -12.6473 21.8853 16.4091 -12.6353 29.3235 16.4091 -13.4341 
36.7616 16.4091 -13.8491 44.1997 16.4091 -13.7325 51.6379 16.4091 -11.9738 
-45.0579 23.8472 -12.1215 -37.6197 23.8472 -14.5207 -30.1816 23.8472 -15.974 
-22.7435 23.8472 -15.7474 -15.3053 23.8472 -15.4535 -7.86721 23.8472 -14.4948 
-0.429077 23.8472 -14.4402 7.00906 23.8472 -14.6252 14.4472 23.8472 -12.6129 
21.8853 23.8472 -11.4752 29.3235 23.8472 -11.6609 36.7616 23.8472 -11.1463 
-37.6197 31.2853 -10.9548 -30.1816 31.2853 -13.2704 -22.7435 31.2853 -14.0371 
-15.3053 31.2853 -14.4441 -7.86721 31.2853 -13.6709 -0.429077 31.2853 -13.2266 
7.00906 31.2853 -12.5727 14.4472 31.2853 -11.1812 -15.3053 38.7234 -10.7522 
-7.86721 38.7234 -10.469 -0.429077 -44.966 -10.4002 7.00906 -45.8093 -10.4002 
7.00906 -50.5341 -3.19252 14.4472 -43.7473 -10.4002 -22.7435 -37.438 -10.4002 
-15.3053 -40.5732 -10.4002 -15.3053 -43.096 -7.08311 -5.71084 -43.096 -10.4002 
-7.86721 -42.0463 -10.4002 -7.86721 -43.096 -9.62647 17.243 -43.096 -10.4002 
21.8853 -41.6427 -10.4002 21.8853 -43.096 -7.72107 29.3235 -36.2878 -10.4002 
-37.6197 -31.3366 -10.4002 -27.2467 -35.6579 -10.4002 -30.1816 -34.1607 -10.4002 
-30.1816 -35.6579 -8.75911 30.617 -35.6579 -10.4002 36.7616 -32.6627 -10.4002 
44.1997 -28.5384 -10.4002 -43.6787 -28.2197 -10.4002 -45.0579 -27.1849 -10.4002 
-45.0579 -28.2197 -9.15381 44.5789 -28.2197 -10.4002 -50.1243 -20.7816 -10.4002 
-52.496 -17.9264 -10.4002 -52.496 -20.7816 -7.28136 50.9042 -20.7816 -10.4002 
51.6379 -18.8412 -10.4002 51.6379 -20.7816 -8.56793 -54.651 -13.3435 -10.4002 
53.2145 -13.3435 -10.4002 -55.2384 -5.90534 -10.4002 -0.429077 0.34029 -10.4002 
56.3788 -5.90534 -10.4002 59.076 -5.90534 -4.53763 -56.2694 1.53279 -10.4002 
-59.9341 1.53279 -4.3532 -2.12569 1.53279 -10.4002 0.604492 1.53279 -10.4002 
-0.429077 2.46998 -10.4002 -0.429077 1.53279 -9.14362 57.2585 1.53279 -10.4002 
59.076 1.53279 -7.27251 -55.1575 8.97092 -10.4002 56.1719 8.97092 -10.4002 
59.076 8.97092 -6.92734 -54.1755 16.4091 -10.4002 -52.496 19.5928 -10.4002 
44.1997 23.3777 -10.4002 53.9346 16.4091 -10.4002 51.6379 19.2843 -10.4002 
-48.1535 23.8472 -10.4002 -52.496 23.8472 -5.27127 -45.0579 27.4325 -10.4002 
21.8853 27.8746 -10.4002 29.3235 26.5548 -10.4002 42.5077 23.8472 -10.4002 
36.7616 26.1506 -10.4002 44.1997 23.8472 -10.1231 51.6379 23.8472 -6.46627 
-39.3412 31.2853 -10.4002 -45.0579 31.2853 -5.45867 -37.6197 32.0049 -10.4002 
-30.1816 35.9132 -10.4002 -22.7435 37.7262 -10.4002 -0.429077 36.9535 -10.4002 
7.00906 35.1059 -10.4002 17.7678 31.2853 -10.4002 14.4472 32.844 -10.4002 
21.8853 31.2853 -9.44363 29.3235 31.2853 -7.91142 36.7616 31.2853 -8.3172 
44.1997 31.2853 -3.93853 -30.1816 38.7234 -6.60789 -18.1381 38.7234 -10.4002 
-22.7435 38.7234 -9.58869 -15.3053 39.1689 -10.4002 -7.37753 38.7234 -10.4002 
-7.86721 38.8169 -10.4002 -0.429077 38.7234 -9.08119 7.00906 38.7234 -7.48766 
14.4472 38.7234 -6.44313 21.8853 38.7234 -4.59213 7.00906 -50.6241 -2.96209 
-15.3053 -44.8399 -2.96209 -7.86721 -48.0114 -2.96209 6.23029 -50.5341 -2.96209 
-0.429077 -49.7173 -2.96209 7.43279 -50.5341 -2.96209 7.00906 -50.5341 -2.41961 
14.4472 -48.8951 -2.96209 21.8853 -44.5478 -2.96209 -30.1816 -38.7104 -2.96209 
-19.3443 -43.096 -2.96209 -22.7435 -41.5871 -2.96209 23.9895 -43.096 -2.96209 
21.8853 -43.096 0.322345 29.3235 -39.6364 -2.96209 -45.0579 -30.5162 -2.96209 
-36.9048 -35.6579 -2.96209 -37.6197 -35.3186 -2.96209 35.3003 -35.6579 -2.96209 
29.3235 -35.6579 4.44194 36.7616 -34.7591 -2.96209 44.1997 -29.9743 -2.96209 
-47.6888 -28.2197 -2.96209 -52.496 -23.0614 -2.96209 46.3461 -28.2197 -2.96209 
44.1997 -28.2197 0.213481 51.6379 -22.5575 -2.96209 -54.1806 -20.7816 -2.96209 
-52.496 -20.7816 2.94946 53.0148 -20.7816 -2.96209 51.6379 -20.7816 -0.32764 
-57.8605 -13.3435 -2.96209 56.7735 -13.3435 -2.96209 59.076 -7.35625 -2.96209 
-59.5341 -5.90534 -2.96209 -59.9341 -2.61863 -2.96209 59.6005 -5.90534 -2.96209 
59.076 -5.90534 -1.39305 -60.4404 1.53279 -2.96209 -59.9341 6.01649 -2.96209 
-59.9341 1.53279 -1.2529 60.4669 1.53279 -2.96209 59.076 1.53279 1.06585 
-59.6006 8.97092 -2.96209 60.9341 8.97092 -2.96209 59.076 15.8195 -2.96209 
59.076 8.97092 4.13716 -57.4819 16.4091 -2.96209 58.9088 16.4091 -2.96209 
-53.5427 23.8472 -2.96209 -52.496 25.1065 -2.96209 -52.496 23.8472 1.84875 
54.4807 23.8472 -2.96209 51.6379 26.7376 -2.96209 -46.1668 31.2853 -2.96209 
-45.0579 32.1497 -2.96209 -45.0579 31.2853 2.74973 -37.6197 37.2445 -2.96209 
29.3235 37.8711 -2.96209 36.7616 35.4527 -2.96209 45.4553 31.2853 -2.96209 
44.1997 32.1714 -2.96209 -34.3614 38.7234 -2.96209 -30.1816 40.4542 -2.96209 
-22.7435 43.0747 -2.96209 -15.3053 44.3055 -2.96209 -7.86721 44.5313 -2.96209 
-0.429077 43.1982 -2.96209 7.00906 41.976 -2.96209 14.4472 41.2567 -2.96209 
26.9908 38.7234 -2.96209 21.8853 40.0837 -2.96209 29.3235 38.7234 -1.13674 
-15.3053 -43.5347 4.47604 -7.86721 -46.6652 4.47604 -0.429077 -48.7168 4.47604 
7.00906 -49.0824 4.47604 14.4472 -46.1537 4.47604 -30.1816 -37.3884 4.47604 
-16.3909 -43.096 4.47604 -22.7435 -40.31 4.47604 -15.3053 -43.096 5.18005 
-7.86721 -43.096 8.88925 -0.429077 -43.096 10.8926 7.00906 -43.096 10.4524 
18.8804 -43.096 4.47604 14.4472 -43.096 7.33318 21.8853 -40.5804 4.47604 
-45.0579 -28.5498 4.47604 -33.7635 -35.6579 4.47604 -37.6197 -33.1521 4.47604 
-30.1816 -35.6579 6.70595 -22.7435 -35.6579 10.3282 29.2833 -35.6579 4.47604 
21.8853 -35.6579 7.91474 29.3235 -35.6264 4.47604 36.7616 -29.708 4.47604 
-45.4332 -28.2197 4.47604 -45.0579 -28.2197 4.86651 -37.6197 -28.2197 8.93694 
21.8853 -28.2197 11.1899 29.3235 -28.2197 8.52164 39.1663 -28.2197 4.47604 
36.7616 -28.2197 5.80535 44.1997 -24.4145 4.47604 -51.7933 -20.7816 4.47604 
-52.496 -19.826 4.47604 -45.0579 -20.7816 9.06132 29.3235 -20.7816 11.7535 
36.7616 -20.7816 10.3214 47.7413 -20.7816 4.47604 44.1997 -20.7816 7.01985 
51.6379 -16.4838 4.47604 -55.5823 -13.3435 4.47604 -52.496 -13.3435 7.77644 
-45.0579 -13.3435 11.5425 44.1997 -13.3435 10.0314 53.3697 -13.3435 4.47604 
51.6379 -13.3435 6.2025 -56.4522 -5.90534 4.47604 -52.496 -5.90534 8.72432 
55.9662 -5.90534 4.47604 51.6379 -5.90534 8.40492 -57.4799 1.53279 4.47604 
-52.496 1.53279 9.61449 57.3571 1.53279 4.47604 51.6379 1.53279 10.1857 
-56.6716 8.97092 4.47604 -52.496 8.97092 8.7877 58.9499 8.97092 4.47604 
51.6379 8.97092 10.3023 -55.4874 16.4091 4.47604 -52.496 22.767 4.47604 
-52.496 16.4091 7.83146 -45.0579 16.4091 11.7198 57.125 16.4091 4.47604 
-51.6828 23.8472 4.47604 -45.0579 30.8749 4.47604 -45.0579 23.8472 9.29116 
54.1704 23.8472 4.47604 51.6379 27.2339 4.47604 51.6379 23.8472 7.653 
-44.6071 31.2853 4.47604 -37.6197 36.1072 4.47604 -37.6197 31.2853 9.43366 
36.7616 37.6629 4.47604 47.3968 31.2853 4.47604 44.1997 33.6533 4.47604 
44.1997 31.2853 8.41363 -33.077 38.7234 4.47604 -30.1816 40.0097 4.47604 
-30.1816 38.7234 6.42005 -22.7435 42.6746 4.47604 -22.7435 38.7234 10.1917 
-15.3053 44.3536 4.47604 -7.86721 44.8818 4.47604 -0.429077 43.9991 4.47604 
7.00906 43.2904 4.47604 14.4472 43.0545 4.47604 21.8853 42.4273 4.47604 
[...]
POINT_DATA 546
SCALARS ImageScalars float
LOOKUP_TABLE default
0 0 0 0 0 0 0 0 0 
0 0 0 0 0 0 0 0 0 
0 0 0 0 0 0 0 0 0 
0 0 0 0 0 0 0 0 0 
0 0 0 0 0 0 0 0 0 
0 0 0 0 0 0 0 0 0 
0 0 0 0 0 0 0 0 0 
0 0 0 0 0 0 0 0 0 
0 0 0 0 0 0 0 0 0 
0 0 0 0 0 0 0 0 0 
0 0 0 0 0 0 0 0 0 
0 0 0 0 0 0 0 0 0 
0 0 0 0 0 0 0 0 0 
0 0 0 0 0 0 0 0 0 
0 0 0 0 0 0 0 0 0 
0 0 0 0 0 0 0 0 0 
0 0 0 0 0 0 0 0 0 
0 0 0 0 0 0 0 0 0 
0 0 0 0 0 0 0 0 0 
0 0 0 0 0 0 0 0 0 
0 0 0 0 0 0 0 0 0 
0 0 0 0 0 0 0 0 0 
0 0 0 0 0 0 0 0 0 
0 0 0 0 0 0 0 0 0 
0 0 0 0 0 0 0 0 0 
0 0 0 0 0 0 0 0 0 
0 0 0 0 0 0 0 0 0 
0 0 0 0 0 0 0 0 0 
0 0 0 0 0 0 0 0 0 
0 0 0 0 0 0 0 0 0 
0 0 0 0 0 0 0 0 0 
0 0 0 0 0 0 0 0 0 
0 0 0 0 0 0 0 0 0 
0 0 0 0 0 0 0 0 0 
0 0 0 0 0 0 0 0 0 
0 0 0 0 0 0 0 0 0 
0 0 0 0 0 0 0 0 0 
0 0 0 0 0 0 0 0 0 
0 0 0 0 0 0 0 0 0 
0 0 0 0 0 0 0 0 0 
0 0 0 0 0 0 0 0 0 
0 0 0 0 0 0 0 0 0 
0 0 0 0 0 0 0 0 0 
0 0 0 0 0 0 0 0 0 
0 0 0 0 0 0 0 0 0 
0 0 0 0 0 0 0 0 0 
0 0 0 0 0 0 0 0 0 
0 0 0 0 0 0 0 0 0 
0 0 0 0 0 0 0 0 0 
0 0 0 0 0 0 0 0 0 
0 0 0 0 0 0 0 0 0 
0 0 0 0 0 0 0 0 0 
0 0 0 0 0 0 0 0 0 
0 0 0 0 0 0 0 0 0 
0 0 0 0 0 0 0 0 0 
0 0 0 0 0 0 0 0 0 
0 0 0 0 0 0 0 0 0 
0 0 0 0 0 0 0 0 0 
0 0 0 0 0 0 0 0 0 
0 0 0 0 0 0 0 0 0 
0 0 0 0 0 0 
NORMALS Normals float
-0.0757683 0.0387726 0.996371 0.15305 0.513914 0.844078 -0.0509738 0.47643 0.877734 
-0.178328 0.544271 0.819737 0.211815 0.524208 0.824827 0.111788 0.322907 0.939806 
0.100045 0.25329 0.962203 0.0793961 0.156603 0.984465 -0.0456636 0.119581 0.991774 
-0.112008 0.193754 0.974635 -0.148781 0.354079 0.923305 -0.356694 0.6225 0.696608 
0.253147 0.476455 0.841966 0.113459 0.370984 0.921682 0.0242688 0.238485 0.970843 
-0.0125191 0.0972544 0.995181 0.0373495 0.0236944 0.999021 0.0256263 -0.0393486 0.998897 
-0.0145433 -0.0645298 0.99781 0.0315376 0.030516 0.999037 -0.011774 0.176243 0.984276 
-0.134447 0.301973 0.943788 -0.210498 0.472087 0.856052 -0.538379 0.642875 0.544848 
0.387201 0.348847 0.853453 0.145509 0.227928 0.962744 0.0198396 0.145054 0.989225 
-0.0957109 0.0322146 0.994888 -0.0990966 -0.0250087 0.994763 -0.0334808 -0.105433 0.993863 
-0.0116836 -0.130595 0.991367 0.0249933 -0.161419 0.986569 0.1243 -0.0405048 0.991418 
0.115669 0.0139565 0.99319 0.0268889 0.149342 0.98842 -0.0753311 0.0412082 0.996307 
-0.0576654 0.305394 0.950478 -0.360456 0.284518 0.888325 0.577689 0.213419 0.787863 
0.264903 0.10059 0.959014 0.0932428 0.14951 0.984354 -0.0959273 0.0152943 0.995271 
-0.152447 -0.0389263 0.987545 -0.160435 -0.1144 0.980394 -0.0681904 -0.0362459 0.997014 
-0.0346783 0.041468 0.998538 0.0782833 0.0548642 0.99542 0.21762 -0.060311 0.974168 
0.175699 -0.0328592 0.983895 -0.0727351 0.0387919 0.996597 0.151617 0.0290805 0.988011 
-0.0773434 0.0388428 0.996248 -0.0749721 0.0368337 0.996505 -0.335819 0.0771293 0.938763 
-0.619514 0.291871 0.728707 0.493426 0.0617649 0.867592 0.263436 0.0348313 0.964048 
0.0447096 -0.0262993 0.998654 -0.162211 -0.010743 0.986698 -0.21533 -0.0502908 0.975245 
-0.0981614 -0.0957178 0.990557 0.166508 0.15711 0.973443 0.119099 -0.0927256 0.988543 
-0.148298 0.282572 0.947714 0.0116122 -0.106859 0.994206 0.196299 -0.0794612 0.977319 
0.11387 -0.0415614 0.992626 -0.014367 -0.100456 0.994838 -0.092546 0.0349544 0.995095 
-0.515327 0.148017 0.844114 0.489535 -0.00647228 0.87196 0.168808 -0.010164 0.985597 
0.0361101 -0.00271604 0.999344 -0.122529 0.0113304 0.9924 -0.241137 0.0190623 0.970304 
-0.0416936 0.109547 0.993107 0.0151199 0.204003 0.978853 0.0535215 5.63796e-05 0.998567 
-0.0445782 -0.104263 0.99355 0.237461 -0.117268 0.964293 0.13113 -0.0927917 0.987013 
-0.00836385 -0.0390825 0.999201 -0.113084 -0.0720893 0.990967 -0.443313 -0.109501 0.889653 
0.484036 -0.092339 0.870163 0.267656 -0.053817 0.96201 0.0695092 0.010712 0.997524 
-0.141428 0.0158405 0.989822 -0.133294 0.104624 0.985539 0.104041 0.227257 0.968261 
0.0918655 -0.136599 0.986358 -0.0798323 0.202793 0.975962 -0.22224 -0.0162269 0.974857 
-0.0871253 0.0425493 0.995288 0.186225 -0.108902 0.976453 0.187272 -0.167858 0.96786 
0.00876214 -0.15939 0.987177 -0.169421 -0.127048 0.97732 -0.365745 -0.152842 0.918079 
0.580133 -0.247109 0.776133 0.280487 -0.153756 0.947463 0.114757 -0.172782 0.978252 
-0.0271528 -0.00976497 0.999584 -0.0368497 0.052323 0.99795 -0.0751245 0.0886807 0.993223 
-0.0593558 -0.136419 0.988872 0.0357828 -0.0547313 0.99786 -0.118857 -0.0696207 0.990468 
-0.177225 0.0438809 0.983192 0.0512998 -0.114987 0.992041 0.0805381 -0.216131 0.973037 
0.0203223 -0.303692 0.952553 -0.128056 -0.307351 0.94294 -0.402017 -0.30232 0.864283 
0.410421 -0.401867 0.81857 0.212361 -0.295776 0.931354 0.0826041 -0.19243 0.977828 
-0.0343593 -0.11415 0.992869 -0.0829086 -0.0701846 0.994083 -0.0693467 -0.0778102 0.994553 
0.00848401 -0.0969675 0.995251 -0.119633 -0.175532 0.977178 -0.207608 -0.0904772 0.974019 
-0.062559 -0.202119 0.977361 -0.018223 -0.336886 0.941369 -0.0903462 -0.326304 0.940937 
0.299272 -0.576305 0.760466 0.16919 -0.440847 0.881492 0.075481 -0.337862 0.938164 
-0.0293252 -0.292621 0.955779 -0.0756556 -0.246358 0.966221 -0.0719472 -0.3032 0.950207 
-0.129616 -0.381825 0.915101 -0.199868 -0.331036 0.922208 0.0354525 -0.590395 0.806335 
-0.0820432 -0.567583 0.819218 0.15441 0.61845 0.770504 -0.0528498 0.627949 0.776458 
-0.0493067 0.990195 0.130701 -0.185023 0.578693 0.79428 0.262333 0.610595 0.747231 
0.197093 0.616367 0.762395 0.306605 0.849601 0.429151 0.181408 0.577862 0.795718 
0.175229 0.549174 0.817131 0.211637 0.636556 0.741624 -0.245572 0.615189 0.749158 
-0.326195 0.638199 0.697351 -0.458268 0.795727 0.395992 -0.388037 0.64999 0.653406 
0.330774 0.620475 0.711055 0.255356 0.629982 0.733428 0.240892 0.635468 0.733588 
0.304171 0.760324 0.573923 -0.384528 0.667765 0.63736 -0.360078 0.701996 0.614447 
-0.54511 0.653805 0.524781 0.472376 0.592942 0.652136 0.49858 0.577797 0.646196 
0.546181 0.647712 0.531183 -0.554514 0.645515 0.525191 0.579506 0.467402 0.667614 
0.652412 0.389966 0.649835 0.749812 0.540746 0.381281 -0.697551 0.421991 0.579091 
-0.699977 0.387706 0.599763 -0.773565 0.489032 0.403045 0.73234 0.234564 0.639263 
-0.686127 0.293038 0.665851 0.697351 0.0851212 0.711657 0.229103 0.0666092 0.97112 
-0.764228 0.184613 0.61796 -0.965291 0.234881 0.114208 0.667834 -0.00320416 0.744304 
0.989736 0.00355282 0.142861 0.105235 0.204386 0.973217 0.226717 0.120593 0.966466 
0.160925 0.188255 0.968846 0.15735 0.198889 0.967308 -0.719916 0.0042379 0.694048 
-0.92777 0.0556824 0.368975 0.679889 -0.113323 0.724506 -0.651708 -0.16369 0.740596 
-0.915432 -0.157882 0.370212 0.694582 -0.26513 0.668776 0.628388 -0.382151 0.677561 
-0.214083 -0.518241 0.828006 -0.540063 -0.357091 0.762114 -0.463888 -0.427598 0.775866 
0.508566 -0.48032 0.7146 0.756379 -0.60235 0.255079 0.464479 -0.534754 0.705902 
-0.134719 -0.296213 0.945573 -0.0309292 -0.395078 0.918127 -0.191558 -0.48275 0.854551 
-0.118529 -0.339615 0.933066 -0.228458 -0.5353 0.813179 -0.571197 -0.664189 0.482273 
0.349621 -0.601366 0.718418 0.584599 -0.770109 0.255296 0.315315 -0.601227 0.734236 
0.229242 -0.643196 0.73058 0.131144 -0.631395 0.764292 -0.126556 -0.550158 0.825415 
-0.13477 -0.535334 0.833819 -0.199811 -0.350432 0.915026 -0.196309 -0.400329 0.895098 
-0.19755 -0.385893 0.901144 -0.0792793 -0.525414 0.847145 -0.201981 -0.515272 0.832885 
-0.499206 -0.706124 0.502177 0.318764 -0.848254 0.422913 0.0773467 -0.62323 0.778204 
0.156169 -0.70336 0.693467 0.0416927 -0.607533 0.7932 -0.0857562 -0.571916 0.815817 
-0.0822937 -0.57102 0.816801 -0.143036 -0.667514 0.73073 -0.126198 -0.748924 0.650529 
-0.147557 -0.745274 0.650226 -0.211096 -0.74983 0.627051 -0.048952 0.992285 0.113901 
0.377275 0.918891 0.11534 0.332096 0.928865 0.164082 -0.0287091 0.992829 0.116048 
0.156788 0.977107 0.1438 -0.0652978 0.991579 0.11184 -0.0539104 0.99548 0.0781846 
-0.351557 0.932755 0.079843 -0.548921 0.834934 -0.0396472 0.398023 0.909698 0.118439 
0.372173 0.921666 0.10963 0.37749 0.918336 0.118995 -0.552382 0.831724 -0.0557661 
-0.566182 0.788961 -0.238702 -0.563566 0.824809 -0.0456434 0.616524 0.786397 0.0384317 
0.454886 0.888934 0.0536147 0.464109 0.884591 0.0458379 -0.529895 0.8424 -0.0978447 
-0.450538 0.615981 -0.646207 -0.518158 0.847361 -0.11615 -0.618448 0.773197 -0.14032 
0.670369 0.740951 0.0399581 0.798849 0.599984 0.0431325 -0.666703 0.732559 -0.137345 
-0.594694 0.718918 -0.359856 -0.780952 0.613728 -0.11598 0.844142 0.534457 0.0421924 
0.750949 0.538471 -0.382261 -0.812972 0.571625 -0.111001 -0.757412 0.582398 -0.295194 
0.935793 0.349524 0.0460895 -0.922344 0.384375 -0.0392049 -0.964718 0.262903 -0.0141876 
0.986257 0.161532 0.0347171 0.995312 0.0908718 0.0331013 -0.971512 0.236983 -0.00173823 
-0.961166 0.248318 -0.120406 0.99949 0.0045778 0.031602 0.992896 -0.111205 0.0423219 
0.995417 0.00699123 -0.0953724 -0.996063 0.0877387 -0.0126675 -0.943816 0.112204 -0.310841 
0.980973 -0.187774 0.0493164 -0.991165 -0.10308 0.0834619 -0.933983 -0.336657 0.119743 
-0.865891 -0.0371472 -0.498852 0.930477 -0.360622 0.0645325 -0.925603 -0.357842 0.123323 
0.804597 -0.586997 0.0897645 0.782635 -0.615089 0.0956503 0.771408 -0.587201 -0.245202 
-0.692508 -0.661534 0.28776 -0.599909 -0.741169 0.301293 0.620019 -0.780253 0.0823541 
0.593258 -0.800642 0.0837631 0.621221 -0.74151 -0.253469 0.474603 -0.86638 0.155362 
-0.27716 -0.785968 0.552664 -0.295321 -0.879071 0.374192 -0.526437 -0.733528 0.429885 
-0.508082 -0.740559 0.439801 0.425546 -0.889897 0.164296 0.3703 -0.910632 0.183377 
0.241929 -0.943479 0.226536 0.0988689 -0.960001 0.26196 -0.0736273 -0.95077 0.301023 
-0.166092 -0.924977 0.341806 -0.126085 -0.909755 0.395536 -0.121415 -0.880758 0.457737 
-0.263094 -0.802761 0.535123 -0.202581 -0.831267 0.517645 -0.306621 -0.869183 0.387948 
0.350718 0.864507 -0.360034 0.315467 0.870944 -0.376746 0.136502 0.916061 -0.377094 
-0.12255 0.890046 -0.43909 -0.410356 0.734274 -0.540786 0.381604 0.827164 -0.412527 
0.351957 0.864898 -0.357879 0.368431 0.854395 -0.366425 0.342451 0.85297 -0.393916 
0.253075 0.720755 -0.645341 0.0648629 0.597493 -0.799246 -0.190254 0.589137 -0.785316 
-0.501754 0.679383 -0.535427 -0.37676 0.62663 -0.682192 -0.517763 0.629029 -0.579865 
0.578751 0.671023 -0.463438 0.43736 0.796378 -0.417729 0.486829 0.742324 -0.460384 
0.368076 0.767798 -0.52441 0.324621 0.638041 -0.69823 -0.449473 0.613912 -0.648912 
-0.44539 0.420063 -0.79068 -0.449086 0.613978 -0.649117 -0.400238 0.628941 -0.666516 
0.586925 0.663331 -0.464232 0.576044 0.657156 -0.486127 0.42727 0.568123 -0.703333 
-0.303457 0.304526 -0.902872 -0.287669 0.43579 -0.852839 -0.415245 0.613945 -0.6713 
-0.36649 0.593261 -0.716748 -0.498022 0.562422 -0.660042 0.696275 0.514436 -0.500555 
0.718525 0.486022 -0.497498 0.508811 0.369386 -0.777602 -0.1675 0.339437 -0.925595 
-0.255957 0.390929 -0.884116 -0.566097 0.514287 -0.644238 -0.47314 0.466462 -0.747363 
-0.662794 0.407572 -0.628163 0.808814 0.256929 -0.528968 0.656922 0.232787 -0.717122 
0.36323 0.186402 -0.912863 -0.400533 0.26788 -0.87625 -0.728394 0.334823 -0.597775 
-0.634012 0.332876 -0.698013 0.794409 0.106863 -0.597909 0.609159 0.0961771 -0.787195 
-0.74209 0.222907 -0.632151 -0.581806 0.215076 -0.784375 0.804639 0.0121897 -0.593639 
0.563497 0.00233555 -0.826115 -0.795593 0.135813 -0.590413 -0.564368 0.091817 -0.820401 
0.796624 -0.117464 -0.592952 0.606312 -0.0926778 -0.789808 -0.84938 -0.0319497 -0.526814 
-0.550859 0.105166 -0.827946 0.820902 -0.260503 -0.50819 0.734919 -0.510354 -0.44658 
0.675201 -0.223097 -0.703087 0.402486 -0.168108 -0.899858 -0.859734 -0.256005 -0.441949 
0.708719 -0.548219 -0.444043 0.613027 -0.697704 -0.370684 0.538532 -0.372143 -0.755972 
-0.801013 -0.488807 -0.34561 -0.733743 -0.618274 -0.281706 -0.675557 -0.486755 -0.553798 
0.607766 -0.706079 -0.363419 0.50693 -0.781089 -0.364585 0.44659 -0.594631 -0.66856 
-0.411878 -0.909358 -0.0585177 -0.629334 -0.75596 -0.180175 -0.566471 -0.810037 -0.151493 
-0.551707 -0.661292 -0.508244 0.421041 -0.847327 -0.323667 0.372367 -0.871391 -0.319407 
0.360141 -0.827328 -0.431077 0.283418 -0.910532 -0.301009 0.261581 -0.691171 -0.673689 
0.141613 -0.961194 -0.236752 -0.024899 -0.965851 -0.257897 -0.107667 -0.975477 -0.191969 
-0.0623403 -0.991425 -0.114847 -0.0578262 -0.995288 -0.0778271 -0.176057 -0.983704 -0.0364861 
-0.18982 -0.645034 -0.740202 -0.369952 -0.927722 -0.0496743 -0.30496 -0.95009 -0.065788 
-0.303518 -0.876336 -0.374049 0.231644 0.563725 -0.792815 0.167381 0.536065 -0.827417 
0.0393253 0.507136 -0.860969 -0.174554 0.451731 -0.874912 -0.340029 0.350644 -0.872599 
0.327368 0.491059 -0.807274 0.265135 0.553022 -0.789855 0.282657 0.529841 -0.799608 
0.215612 0.501477 -0.837874 0.100062 0.407198 -0.907842 -0.0182441 0.283436 -0.958818 
-0.147605 0.277323 -0.949371 -0.3596 0.319597 -0.876667 -0.342914 0.314278 -0.885234 
0.348996 0.465247 -0.813479 0.379161 0.361648 -0.851732 0.309051 0.424342 -0.85113 
0.191783 0.336494 -0.92195 0.0903043 0.243568 -0.965671 -0.0181311 0.106415 -0.994156 
-0.0440333 0.0546949 -0.997532 -0.143732 0.0708116 -0.98708 -0.293352 0.246719 -0.92362 
-0.273751 0.129432 -0.953052 -0.252779 0.263987 -0.930813 0.401333 0.284995 -0.870465 
0.34001 0.250085 -0.90656 0.211381 0.149466 -0.965908 0.132974 0.0737822 -0.988369 
-0.0109147 0.0270341 -0.999575 -0.105895 -0.0185675 -0.994204 -0.0661978 -0.0660351 -0.995619 
-0.0731556 0.0362943 -0.99666 -0.146024 0.0831571 -0.98578 -0.167043 0.322974 -0.931549 
-0.164115 0.194087 -0.967159 -0.161139 0.330162 -0.930068 -0.247325 0.295684 -0.922714 
0.337582 0.161168 -0.927396 0.329045 0.13371 -0.9348 0.228147 0.0454695 -0.972564 
0.133251 -0.0279862 -0.990687 0.0727403 -0.124701 -0.989524 -0.00491969 -0.170778 -0.985297 
-0.114011 0.0609898 -0.991606 0.00683877 0.130725 -0.991395 0.00456607 0.22343 -0.974709 
-0.116666 0.0447792 -0.992161 -0.0510039 0.127979 -0.990465 -0.0772004 0.199808 -0.976789 
-0.315781 0.236911 -0.918779 -0.247057 0.222568 -0.943094 -0.327022 0.221296 -0.918741 
0.338355 0.0831315 -0.937339 0.299334 0.0752009 -0.95118 0.134581 0.00464897 -0.990892 
0.0408989 -0.0737647 -0.996437 -0.0198945 -0.152354 -0.988126 0.173843 -0.238422 -0.955476 
0.225281 0.104254 -0.9687 0.0890017 0.0410035 -0.995187 -0.171665 0.143422 -0.97466 
-0.224294 0.101832 -0.969186 -0.00284988 0.112673 -0.993628 -0.0592413 0.139704 -0.98842 
-0.171901 0.14811 -0.973917 -0.337953 0.220555 -0.914955 -0.317002 0.216083 -0.923481 
0.349317 0.00510745 -0.936991 0.26834 0.0071725 -0.963297 0.0947537 0.0357299 -0.994859 
-0.0195074 0.0383328 -0.999075 -0.0843889 0.0507843 -0.995138 0.119473 0.108425 -0.986899 
0.217305 -0.00905061 -0.976062 0.120021 0.00689401 -0.992747 0.0790351 -0.00336631 -0.996866 
-0.151327 0.116471 -0.981598 -0.0217436 0.104798 -0.994256 -0.0408192 0.124444 -0.991387 
-0.184528 0.127565 -0.974513 -0.42754 0.104242 -0.897966 -0.30053 0.125428 -0.945489 
0.37321 -0.0727142 -0.924893 0.380694 -0.138874 -0.914213 0.332645 -0.0619529 -0.941015 
0.164068 0.0548906 -0.984921 0.0630201 0.119022 -0.99089 0.0382802 0.230849 -0.972236 
0.114548 0.275232 -0.954529 0.118372 -0.0143648 -0.992865 0.0901957 0.121156 -0.988527 
-0.0527353 -0.0701321 -0.996143 -0.129249 0.00704473 -0.991587 0.00740043 0.0537186 -0.998529 
-0.0316675 0.0452562 -0.998473 -0.181615 0.050725 -0.982061 -0.461077 0.100842 -0.881611 
-0.336746 0.0589821 -0.939746 -0.575045 -0.0328146 -0.817463 0.39055 -0.158023 -0.906917 
0.259733 -0.0457798 -0.964595 0.139965 0.063225 -0.988136 0.0843505 0.0957476 -0.991825 
-0.00160138 0.101007 -0.994884 -0.00509336 -0.000268898 -0.999987 0.0198277 -0.0304286 -0.99934 
-0.044175 -0.0803882 -0.995784 -0.035477 -0.000367622 -0.99937 0.0131117 0.00590667 -0.999897 
-0.0436554 -0.0459424 -0.99799 -0.181507 -0.0900391 -0.979259 -0.246567 -0.106385 -0.963269 
-0.607382 -0.103276 -0.787668 -0.585485 -0.156867 -0.795361 -0.575417 -0.0985828 -0.811897 
0.43972 -0.290216 -0.849954 0.397116 -0.418663 -0.816713 0.363703 -0.26133 -0.894107 
0.22697 -0.164867 -0.959846 0.0748043 -0.113453 -0.990723 0.0106674 -0.100637 -0.994866 
-0.0164007 -0.0654458 -0.997721 0.0082334 -0.0674119 -0.997691 -0.0196795 -0.0651755 -0.99768 
-0.0446541 -0.0433843 -0.99806 -0.0381854 -0.0471354 -0.998158 -0.119616 -0.169412 -0.97826 
-0.241385 -0.205423 -0.948438 -0.394557 -0.302486 -0.867656 -0.393013 -0.313176 -0.864559 
-0.385096 -0.291233 -0.87572 0.346292 -0.503808 -0.791366 0.305589 -0.542326 -0.782622 
0.284521 -0.456544 -0.84298 0.228879 -0.568743 -0.790029 0.154042 -0.391971 -0.906989 
0.0495135 -0.297483 -0.953442 0.0224499 -0.276564 -0.960733 0.0191516 -0.25945 -0.965567 
-0.019105 -0.27106 -0.962373 -0.0197116 -0.24945 -0.968187 -0.186652 -0.614652 -0.766397 
-0.131558 -0.322255 -0.937467 -0.231202 -0.545864 -0.805343 -0.199878 -0.391487 -0.898213 
-0.295623 -0.470772 -0.831252 -0.269932 -0.491535 -0.827968 -0.262652 -0.461522 -0.847356 
0.139612 -0.59862 -0.788773 0.108675 -0.600435 -0.792255 0.10829 -0.583444 -0.804902 
0.00805622 -0.622813 -0.782329 0.0159008 -0.59386 -0.804411 0.0248563 -0.669866 -0.742066 
0.0286033 -0.639303 -0.768422 0.00954862 -0.712315 -0.701795 0.00938794 -0.645209 -0.763949 
-0.169141 -0.631583 -0.756634 -0.0676255 -0.690514 -0.720151 -0.0776334 -0.63843 -0.765755 

