# vtk DataFile Version 4.2
vtk output
ASCII
DATASET POLYDATA
POINTS 512 float
-8.9069 -2.31789 -22.622 -8.9069 -40.6336 -15.0424 -24.2332 -32.9704 -16.2248 
-16.57 -32.9704 -18.7317 -8.9069 -32.9704 -18.9717 -1.24377 -32.9704 -18.8056 
6.41937 -32.9704 -18.2204 14.0825 -32.9704 -16.8398 -31.8963 -25.3073 -17.0079 
-24.2332 -25.3073 -19.4818 -16.57 -25.3073 -20.6665 -8.9069 -25.3073 -20.2964 
-1.24377 -25.3073 -20.1861 6.41937 -25.3073 -19.8496 14.0825 -25.3073 -18.7135 
21.7456 -25.3073 -15.7575 -39.5594 -17.6442 -16.7074 -31.8963 -17.6442 -19.7274 
-24.2332 -17.6442 -21.2227 -16.57 -17.6442 -20.5754 -8.9069 -17.6442 -20.4225 
-1.24377 -17.6442 -20.431 6.41937 -17.6442 -19.9766 14.0825 -17.6442 -18.8431 
21.7456 -17.6442 -16.9493 -39.5594 -9.98102 -19.8454 -31.8963 -9.98102 -20.987 
-24.2332 -9.98102 -20.8027 -16.57 -9.98102 -20.0165 -8.9069 -2.60732 -22.5587 
-8.9069 -9.98102 -20.8739 -1.24377 -9.98102 -20.2849 6.41937 -9.98102 -19.8471 
14.0825 -9.98102 -19.3159 21.7456 -9.98102 -18.1111 29.4088 -9.98102 -17.3801 
37.0719 -9.98102 -15.8733 -47.2226 -2.31789 -17.251 -39.5594 -2.31789 -21.2297 
-31.8963 -2.31789 -21.9758 -24.2332 -2.31789 -20.6842 -9.11465 -2.31789 -22.5587 
-16.57 -2.31789 -20.3145 -8.74106 -2.31789 -22.5587 -8.9069 -2.05577 -22.5587 
-1.24377 -2.31789 -19.1742 6.41937 -2.31789 -20.1972 14.0825 -2.31789 -21.2082 
21.7456 -2.31789 -19.3882 29.4088 -2.31789 -18.9802 37.0719 -2.31789 -17.9895 
44.735 -2.31789 -15.5595 -47.2226 5.34525 -18.9846 -39.5594 5.34525 -22.1405 
-31.8963 5.34525 -22.4535 -24.2332 5.34525 -21.1873 -16.57 5.34525 -19.6276 
-8.9069 5.34525 -20.2402 -1.24377 5.34525 -19.7124 6.41937 5.34525 -20.0343 
14.0825 5.34525 -19.5317 21.7456 5.34525 -19.3768 29.4088 5.34525 -19.8332 
37.0719 5.34525 -19.217 44.735 5.34525 -17.5045 -47.2226 13.0084 -19.3191 
-39.5594 13.0084 -21.804 -31.8963 13.0084 -22.0425 -24.2332 13.0084 -20.8664 
-16.57 13.0084 -19.1882 -8.9069 13.0084 -18.8752 -1.24377 13.0084 -20.456 
6.41937 13.0084 -19.9517 14.0825 13.0084 -19.4717 21.7456 13.0084 -19.8414 
29.4088 13.0084 -20.0304 37.0719 13.0084 -19.4063 44.735 13.0084 -16.9248 
-47.2226 20.6715 -17.99 -39.5594 20.6715 -20.3694 -31.8963 20.6715 -21.0399 
-24.2332 20.6715 -20.814 -16.57 20.6715 -19.9283 -8.9069 20.6715 -20.0755 
-1.24377 20.6715 -21.272 6.41937 20.6715 -20.9835 14.0825 20.6715 -20.9213 
21.7456 20.6715 -21.1174 29.4088 20.6715 -19.9932 37.0719 20.6715 -18.9891 
44.735 20.6715 -15.9823 -39.5594 28.3347 -17.1792 -31.8963 28.3347 -19.0695 
-24.2332 28.3347 -20.0896 -16.57 28.3347 -19.9074 -8.9069 28.3347 -20.3044 
-1.24377 28.3347 -20.75 6.41937 28.3347 -20.7883 14.0825 28.3347 -20.8318 
21.7456 28.3347 -20.2122 29.4088 28.3347 -19.1432 37.0719 28.3347 -15.9054 
-24.2332 35.9978 -15.7227 -16.57 35.9978 -17.0589 -8.9069 35.9978 -17.6246 
-1.24377 35.9978 -17.3191 6.41937 35.9978 -17.3814 14.0825 35.9978 -17.633 
21.7456 35.9978 -16.7631 -8.9069 -40.812 -14.8956 -24.2332 -34.59 -14.8956 
-9.87026 -40.6336 -14.8956 -16.57 -39.0062 -14.8956 -16.57 -40.6336 -13.0453 
-3.43497 -40.6336 -14.8956 -1.24377 -40.536 -14.8956 -1.24377 -40.6336 -14.8213 
6.41937 -39.1099 -14.8956 6.41937 -40.6336 -13.6462 14.0825 -36.1244 -14.8956 
14.0825 -40.6336 -10.5887 -26.3502 -32.9704 -14.8956 -31.8963 -28.1998 -14.8956 
18.265 -32.9704 -14.8956 21.7456 -28.0158 -14.8956 21.7456 -32.9704 -12.7682 
-34.8579 -25.3073 -14.8956 -39.5594 -20.3258 -14.8956 23.6091 -25.3073 -14.8956 
29.4088 -25.3073 -11.6427 -41.634 -17.6442 -14.8956 29.2816 -17.6442 -14.8956 
29.4088 -17.5422 -14.8956 29.4088 -17.6442 -14.8584 37.0719 -12.2094 -14.8956 
37.0719 -17.6442 -11.9264 -46.5828 -9.98102 -14.8956 -47.2226 -8.3895 -14.8956 
-47.2226 -9.98102 -13.2241 39.7523 -9.98102 -14.8956 44.735 -4.27953 -14.8956 
44.735 -9.98102 -12.5104 -49.2628 -2.31789 -14.8956 45.9308 -2.31789 -14.8956 
52.3982 -2.31789 -10.3054 -51.2016 5.34525 -14.8956 49.5797 5.34525 -14.8956 
52.3982 5.34525 -12.8247 -52.1169 13.0084 -14.8956 -54.8857 13.0084 -9.53665 
48.2164 13.0084 -14.8956 52.3982 13.0084 -11.7178 -50.5025 20.6715 -14.8956 
-47.2226 25.5639 -14.8956 46.289 20.6715 -14.8956 44.735 22.796 -14.8956 
52.3982 20.6715 -7.96259 -43.5859 28.3347 -14.8956 -47.2226 28.3347 -11.2369 
-39.5594 30.9397 -14.8956 -31.8963 34.9576 -14.8956 29.4088 35.2742 -14.8956 
38.8303 28.3347 -14.8956 37.0719 29.7577 -14.8956 44.735 28.3347 -9.31035 
-28.2191 35.9978 -14.8956 -31.8963 35.9978 -13.1752 -24.2332 36.9243 -14.8956 
-16.57 38.3093 -14.8956 -8.9069 38.6476 -14.8956 -1.24377 38.109 -14.8956 
6.41937 38.1747 -14.8956 14.0825 38.5851 -14.8956 27.7148 35.9978 -14.8956 
21.7456 37.9505 -14.8956 29.4088 35.9978 -13.7067 -16.57 -43.9374 -7.23246 
-8.9069 -46.3386 -7.23246 -1.24377 -46.2874 -7.23246 6.41937 -45.2443 -7.23246 
14.0825 -42.9135 -7.23246 -21.8888 -40.6336 -7.23246 -24.2332 -38.778 -7.23246 
18.0055 -40.6336 -7.23246 21.7456 -38.1118 -7.23246 21.7456 -40.6336 -0.633895 
-29.6138 -32.9704 -7.23246 -31.8963 -30.6182 -7.23246 27.1114 -32.9704 -7.23246 
29.4088 -30.4746 -7.23246 29.4088 -32.9704 -3.31016 -37.3901 -25.3073 -7.23246 
-39.5594 -23.042 -7.23246 34.9948 -25.3073 -7.23246 37.0719 -23.3922 -7.23246 
37.0719 -25.3073 -4.45359 -44.0311 -17.6442 -7.23246 -47.2226 -12.9364 -7.23246 
43.7244 -17.6442 -7.23246 44.735 -16.689 -7.23246 44.735 -17.6442 -5.93696 
-48.9459 -9.98102 -7.23246 50.5208 -9.98102 -7.23246 52.3982 -7.17928 -7.23246 
52.3982 -9.98102 -4.11604 -52.1675 -2.31789 -7.23246 55.1293 -2.31789 -7.23246 
-54.3995 5.34525 -7.23246 -54.8857 8.19367 -7.23246 57.0396 5.34525 -7.23246 
-55.7238 13.0084 -7.23246 -54.8857 17.0719 -7.23246 56.1558 13.0084 -7.23246 
-54.1066 20.6715 -7.23246 52.9714 20.6715 -7.23246 52.3982 21.4284 -7.23246 
-49.3837 28.3347 -7.23246 -47.2226 30.49 -7.23246 -39.5594 35.3917 -7.23246 
37.0719 34.9445 -7.23246 46.3004 28.3347 -7.23246 44.735 29.6617 -7.23246 
-38.1378 35.9978 -7.23246 -31.8963 38.383 -7.23246 -24.2332 40.3183 -7.23246 
-16.57 41.536 -7.23246 -8.9069 41.0521 -7.23246 -1.24377 40.0598 -7.23246 
6.41937 40.1781 -7.23246 14.0825 40.9371 -7.23246 21.7456 40.7652 -7.23246 
35.0356 35.9978 -7.23246 29.4088 38.5711 -7.23246 -16.57 -45.5092 0.430678 
-8.9069 -48.0899 0.430678 -1.24377 -48.2821 0.430678 6.41937 -47.2204 0.430678 
14.0825 -45.0342 0.430678 21.7456 -40.9754 0.430678 -23.3833 -40.6336 0.430678 
-24.2332 -39.7996 0.430678 22.2364 -40.6336 0.430678 29.4088 -34.9701 0.430678 
-29.3155 -32.9704 0.430678 -31.8963 -29.9896 0.430678 31.727 -32.9704 0.430678 
37.0719 -28.2263 0.430678 -36.548 -25.3073 0.430678 -39.5594 -22.0293 0.430678 
41.0144 -25.3073 0.430678 44.735 -22.0479 0.430678 -43.2106 -17.6442 0.430678 
-47.2226 -11.5479 0.430678 48.5507 -17.6442 0.430678 52.3982 -13.0578 0.430678 
-48.1459 -9.98102 0.430678 -47.2226 -9.98102 5.09269 54.4813 -9.98102 0.430678 
-51.6348 -2.31789 0.430678 57.9529 -2.31789 0.430678 -53.8976 5.34525 0.430678 
-54.8857 11.1175 0.430678 59.3992 5.34525 0.430678 -55.238 13.0084 0.430678 
-54.8857 14.6302 0.430678 -54.8857 13.0084 1.42044 58.4282 13.0084 0.430678 
-53.6286 20.6715 0.430678 54.902 20.6715 0.430678 52.3982 23.9936 0.430678 
-48.9692 28.3347 0.430678 -47.2226 29.9804 0.430678 -47.2226 28.3347 3.86114 
-39.5594 34.8969 0.430678 37.0719 34.8173 0.430678 47.4882 28.3347 0.430678 
44.735 30.1629 0.430678 44.735 28.3347 5.44549 -36.7593 35.9978 0.430678 
-31.8963 37.7921 0.430678 -31.8963 35.9978 4.96834 -24.2332 39.8067 0.430678 
-16.57 40.5197 0.430678 -8.9069 40.0083 0.430678 -1.24377 38.8676 0.430678 
-1.24377 35.9978 7.13153 6.41937 38.9776 0.430678 6.41937 35.9978 7.08077 
14.0825 39.8313 0.430678 21.7456 39.7594 0.430678 21.7456 35.9978 8.06593 
34.095 35.9978 0.430678 29.4088 37.8255 0.430678 29.4088 35.9978 4.67049 
-16.57 -44.9458 8.09381 -8.9069 -47.6556 8.09381 -1.24377 -47.7675 8.09381 
6.41937 -46.8067 8.09381 14.0825 -44.7336 8.09381 21.7456 -41.154 8.09381 
-22.923 -40.6336 8.09381 -24.2332 -39.4001 8.09381 22.5361 -40.6336 8.09381 
21.7456 -40.6336 9.43213 29.4088 -35.6157 8.09381 -29.2404 -32.9704 8.09381 
-31.8963 -29.851 8.09381 32.591 -32.9704 8.09381 29.4088 -32.9704 13.828 
37.0719 -29.1328 8.09381 -36.0531 -25.3073 8.09381 -39.5594 -21.1129 8.09381 
41.7575 -25.3073 8.09381 37.0719 -25.3073 14.8671 44.735 -22.2973 8.09381 
-42.1636 -17.6442 8.09381 48.5942 -17.6442 8.09381 44.735 -17.6442 13.6129 
52.3982 -11.9961 8.09381 -46.6352 -9.98102 8.09381 -47.2226 -8.45338 8.09381 
53.6002 -9.98102 8.09381 52.3982 -9.98102 10.0936 -49.484 -2.31789 8.09381 
-47.2226 -2.31789 12.2576 56.8014 -2.31789 8.09381 52.3982 -2.31789 14.2326 
-51.5658 5.34525 8.09381 -47.2226 5.34525 14.3427 58.0852 5.34525 8.09381 
-52.4999 13.0084 8.09381 -47.2226 13.0084 15.1177 56.626 13.0084 8.09381 
52.3982 13.0084 13.7904 -50.6665 20.6715 8.09381 -47.2226 25.7031 8.09381 
-47.2226 20.6715 12.584 44.735 27.3423 8.09381 44.735 20.6715 14.8645 
52.4932 20.6715 8.09381 52.3982 20.7881 8.09381 52.3982 20.6715 8.2119 
-44.3394 28.3347 8.09381 -39.5594 31.5064 8.09381 -39.5594 28.3347 12.0516 
-31.8963 34.6355 8.09381 -31.8963 28.3347 15.0587 -1.24377 35.5117 8.09381 
-1.24377 28.3347 15.6948 6.41937 35.4345 8.09381 6.41937 28.3347 14.8607 
14.0825 28.3347 14.9684 21.7456 35.982 8.09381 21.7456 28.3347 15.0041 
29.4088 34.2377 8.09381 29.4088 28.3347 14.1792 43.1092 28.3347 8.09381 
37.0719 31.6542 8.09381 37.0719 28.3347 12.4961 -26.6966 35.9978 8.09381 
-24.2332 36.6046 8.09381 -24.2332 35.9978 8.95279 -16.57 37.2694 8.09381 
-16.57 35.9978 9.87255 -4.13845 35.9978 8.09381 -8.9069 36.7175 8.09381 
-8.9069 35.9978 9.13072 11.6083 35.9978 8.09381 21.3179 35.9978 8.09381 
14.0825 36.2332 8.09381 14.0825 35.9978 8.39073 -16.57 -41.8138 15.7569 
-8.9069 -44.1906 15.7569 -1.24377 -44.2055 15.7569 6.41937 -43.0571 15.7569 
14.0825 -41.0662 15.7569 -18.6752 -40.6336 15.7569 -24.2332 -36.5603 15.7569 
-16.57 -40.6336 16.994 -8.9069 -40.6336 18.924 -1.24377 -40.6336 18.9675 
6.41937 -40.6336 18.0319 15.1131 -40.6336 15.7569 14.0825 -40.6336 16.1841 
[...]
POINT_DATA 512
SCALARS ImageScalars float
LOOKUP_TABLE default
0 0 0 0 0 0 0 0 0 
0 0 0 0 0 0 0 0 0 
0 0 0 0 0 0 0 0 0 
0 0 0 0 0 0 0 0 0 
0 0 0 0 0 0 0 0 0 
0 0 0 0 0 0 0 0 0 
0 0 0 0 0 0 0 0 0 
0 0 0 0 0 0 0 0 0 
0 0 0 0 0 0 0 0 0 
0 0 0 0 0 0 0 0 0 
0 0 0 0 0 0 0 0 0 
0 0 0 0 0 0 0 0 0 
0 0 0 0 0 0 0 0 0 
0 0 0 0 0 0 0 0 0 
0 0 0 0 0 0 0 0 0 
0 0 0 0 0 0 0 0 0 
0 0 0 0 0 0 0 0 0 
0 0 0 0 0 0 0 0 0 
0 0 0 0 0 0 0 0 0 
0 0 0 0 0 0 0 0 0 
0 0 0 0 0 0 0 0 0 
0 0 0 0 0 0 0 0 0 
0 0 0 0 0 0 0 0 0 
0 0 0 0 0 0 0 0 0 
0 0 0 0 0 0 0 0 0 
0 0 0 0 0 0 0 0 0 
0 0 0 0 0 0 0 0 0 
0 0 0 0 0 0 0 0 0 
0 0 0 0 0 0 0 0 0 
0 0 0 0 0 0 0 0 0 
0 0 0 0 0 0 0 0 0 
0 0 0 0 0 0 0 0 0 
0 0 0 0 0 0 0 0 0 
0 0 0 0 0 0 0 0 0 
0 0 0 0 0 0 0 0 0 
0 0 0 0 0 0 0 0 0 
0 0 0 0 0 0 0 0 0 
0 0 0 0 0 0 0 0 0 
0 0 0 0 0 0 0 0 0 
0 0 0 0 0 0 0 0 0 
0 0 0 0 0 0 0 0 0 
0 0 0 0 0 0 0 0 0 
0 0 0 0 0 0 0 0 0 
0 0 0 0 0 0 0 0 0 
0 0 0 0 0 0 0 0 0 
0 0 0 0 0 0 0 0 0 
0 0 0 0 0 0 0 0 0 
0 0 0 0 0 0 0 0 0 
0 0 0 0 0 0 0 0 0 
0 0 0 0 0 0 0 0 0 
0 0 0 0 0 0 0 0 0 
0 0 0 0 0 0 0 0 0 
0 0 0 0 0 0 0 0 0 
0 0 0 0 0 0 0 0 0 
0 0 0 0 0 0 0 0 0 
0 0 0 0 0 0 0 0 0 
0 0 0 0 0 0 0 0 
NORMALS Normals float
-0.0388432 -0.0113352 0.999181 0.0536202 0.625869 0.778083 0.413795 0.591965 0.691629 
0.157646 0.364423 0.917793 0.00239503 0.302099 0.953274 -0.0473551 0.306625 0.950652 
-0.115375 0.337447 0.934247 -0.292716 0.374063 0.879997 0.488847 0.512751 0.705772 
0.210706 0.289376 0.933737 0.0576963 0.105466 0.992748 -0.0301587 0.0950358 0.995017 
-0.0292805 0.106079 0.993927 -0.0908318 0.110888 0.989673 -0.245176 0.113697 0.962788 
-0.393828 0.217437 0.893096 0.574375 0.482352 0.661385 0.261321 0.231888 0.936984 
0.0608861 0.092671 0.993833 -0.0520424 -0.0420858 0.997758 -0.0087244 0.0359728 0.999315 
-0.0289986 0.00645413 0.999559 -0.10154 -0.000145908 0.994832 -0.191589 0.0377855 0.980748 
-0.244713 0.14264 0.959046 0.349503 0.270221 0.897122 0.0592358 0.14778 0.987245 
-0.0607323 -0.033761 0.997583 0.00168458 -0.0148072 0.999889 -0.0372033 -0.00557706 0.999292 
0.0163356 0.141559 0.989795 -0.0663083 -0.0715846 0.995228 -0.0613777 0.0117171 0.998046 
-0.115013 0.150035 0.981968 -0.122916 0.154387 0.980335 -0.140191 0.251489 0.957653 
-0.262781 0.331035 0.90629 0.677149 0.241064 0.695239 0.247719 0.152007 0.956833 
-0.0419293 0.0950479 0.994589 -0.10855 0.0232256 0.99382 -0.0346335 -0.0121523 0.999326 
0.122972 -0.0266233 0.992053 -0.0416005 -0.0121108 0.999061 -0.0376107 -0.0194443 0.999103 
-0.178758 -0.0430241 0.982952 0.129079 0.0137179 0.991539 -0.0615851 0.0164137 0.997967 
-0.136118 0.0802117 0.98744 -0.0886326 0.159015 0.98329 -0.204977 0.209021 0.956187 
-0.390834 0.260606 0.882799 0.573751 0.0996104 0.81295 0.170988 0.0316028 0.984766 
-0.0590233 0.00380231 0.998249 -0.186128 0.0122372 0.982449 -0.0647749 -0.0741387 0.995142 
0.00751969 -0.262826 0.964814 -0.0060544 0.081201 0.996679 -0.0111104 -0.0149372 0.999827 
-0.0445918 -0.111957 0.992712 0.0200514 0.0295539 0.999362 -0.00916945 0.0671398 0.997701 
-0.141596 0.0897659 0.985846 -0.356438 0.0829656 0.930628 0.5099 -0.0622802 0.857976 
0.142781 -0.122734 0.982115 -0.0618616 -0.0950129 0.993552 -0.183189 -0.0225485 0.982819 
-0.128374 0.0198871 0.991526 0.0825543 0.0102243 0.996534 0.0669746 0.101092 0.99262 
-0.0646445 0.0632799 0.9959 -0.00594823 0.0915442 0.995783 0.036075 0.111181 0.993145 
-0.0265676 0.0102083 0.999595 -0.189655 -0.0175097 0.981695 -0.403577 -0.0932164 0.910185 
0.542158 -0.338169 0.769225 0.178613 -0.237658 0.954786 0.0296006 -0.186616 0.981987 
-0.0741286 -0.0450447 0.996231 -0.0472435 0.0466708 0.997792 0.0887425 0.0906342 0.991922 
0.058788 0.0174408 0.998118 -0.0228541 0.0516867 0.998402 0.00853416 0.0890896 0.995987 
-0.0675231 0.0212109 0.997492 -0.136709 -0.0554442 0.989058 -0.248764 -0.179213 0.95184 
-0.51578 -0.281266 0.809235 0.350814 -0.560561 0.750134 0.14967 -0.378698 0.913338 
0.0544994 -0.288857 0.95582 0.0167753 -0.16485 0.986176 0.0538067 -0.123522 0.990882 
0.0328164 -0.201629 0.978912 0.0053293 -0.180554 0.983551 -0.0411871 -0.180629 0.982689 
-0.105626 -0.239236 0.965199 -0.24835 -0.298097 0.921662 -0.446171 -0.499942 0.742287 
0.168758 -0.66294 0.729405 0.115157 -0.603241 0.789201 0.0190559 -0.620826 0.783717 
-0.014638 -0.7084 0.70566 0.0184288 -0.701234 0.712693 -0.038671 -0.641442 0.766196 
-0.176752 -0.66201 0.728356 0.0561398 0.63283 0.772253 0.451361 0.648118 0.613365 
0.0848547 0.642596 0.761492 0.283372 0.670561 0.685601 0.334187 0.761237 0.555732 
-0.0284024 0.628721 0.777112 -0.0613151 0.624256 0.77881 -0.0614442 0.630061 0.774111 
-0.155557 0.590214 0.792117 -0.168423 0.678669 0.714872 -0.32403 0.509902 0.796872 
-0.371328 0.752565 0.54384 0.495255 0.650674 0.575626 0.584703 0.620336 0.522787 
-0.41968 0.41531 0.807085 -0.439216 0.295975 0.848227 -0.540473 0.474639 0.6947 
0.605915 0.603957 0.517788 0.64462 0.569566 0.509961 -0.414817 0.265492 0.870311 
-0.507507 0.463215 0.726546 0.666817 0.526352 0.52755 -0.277851 0.314571 0.907659 
-0.276465 0.316553 0.907393 -0.278764 0.317757 0.906268 -0.29594 0.37497 0.878531 
-0.409697 0.513622 0.753884 0.76787 0.3801 0.515655 0.779992 0.35946 0.512251 
0.819451 0.406448 0.404104 -0.330864 0.360696 0.872025 -0.409672 0.296207 0.862804 
-0.488001 0.439812 0.753937 0.781881 0.266283 0.563699 -0.427618 0.266895 0.863661 
-0.692934 0.317124 0.647514 0.787352 0.15315 0.597178 -0.499026 0.0784212 0.863032 
-0.633978 0.0729743 0.7699 0.749646 -0.0449231 0.660313 0.959271 -0.0273387 0.28116 
-0.517207 -0.130458 0.845859 -0.705876 -0.201341 0.679117 0.72962 -0.324129 0.602159 
0.5787 -0.517649 0.630195 -0.566008 -0.298793 0.768347 -0.541543 -0.367745 0.755973 
-0.768914 -0.465629 0.438134 0.472136 -0.614945 0.631609 0.622427 -0.670573 0.403628 
0.39778 -0.657255 0.640146 0.262184 -0.733873 0.62665 -0.347417 -0.715656 0.605919 
-0.475455 -0.536008 0.697594 -0.466597 -0.560024 0.684588 -0.609099 -0.695412 0.381315 
0.227784 -0.730506 0.643798 0.284524 -0.825136 0.488055 0.181289 -0.705238 0.685401 
0.0975333 -0.737747 0.667994 -0.0139433 -0.804156 0.594255 -0.0288383 -0.841234 0.539902 
0.0302957 -0.837908 0.54497 -0.0114328 -0.817011 0.576508 -0.31294 -0.739575 0.5959 
-0.181712 -0.766049 0.616562 -0.353884 -0.782325 0.512576 0.397942 0.862663 0.312177 
0.132811 0.915713 0.379251 -0.0647038 0.912119 0.404786 -0.190209 0.895198 0.40304 
-0.372221 0.83957 0.395693 0.573885 0.77532 0.263696 0.650863 0.724733 0.226142 
-0.468392 0.781641 0.411881 -0.566833 0.700585 0.433452 -0.546722 0.817112 0.182821 
0.715784 0.691641 0.0963621 0.711336 0.699563 0.0679092 -0.627963 0.60562 0.488761 
-0.612139 0.592579 0.52358 -0.643077 0.674544 0.36255 0.712079 0.699507 0.0602863 
0.736407 0.674071 0.0577365 -0.551915 0.61613 0.561938 -0.531705 0.625897 0.570563 
-0.57057 0.683454 0.455346 0.797331 0.599127 0.0728717 0.857446 0.509151 0.0745061 
-0.564162 0.600184 0.56701 -0.57654 0.591666 0.563501 -0.601543 0.6194 0.50447 
0.887945 0.452932 0.0800367 -0.678995 0.490526 0.546214 -0.729074 0.424018 0.53727 
-0.777503 0.507475 0.371427 0.930527 0.343775 0.126246 -0.789291 0.318836 0.52475 
0.968041 0.214762 0.129515 0.982463 0.13101 0.132672 -0.88083 0.0596373 0.469661 
0.989591 -0.0148524 0.14314 0.969935 -0.187422 0.155242 -0.852155 -0.212805 0.478064 
0.925412 -0.341024 0.165274 -0.78007 -0.476409 0.405617 -0.771175 -0.494272 0.401229 
0.72353 -0.66649 0.17971 0.649299 -0.740503 0.173396 0.450197 -0.87716 0.167069 
-0.48337 -0.855841 0.184093 -0.645965 -0.710024 0.280349 -0.617974 -0.741082 0.262497 
0.416652 -0.895446 0.156772 0.287168 -0.94784 0.138323 0.197808 -0.970545 0.137528 
0.0473849 -0.992881 0.109282 -0.0949314 -0.993366 0.0649042 -0.0567518 -0.997784 0.0347429 
0.0568851 -0.997701 0.0368431 0.0388426 -0.997204 0.0638397 -0.14837 -0.984793 0.090384 
-0.443659 -0.882807 0.154333 -0.347427 -0.930125 0.119002 0.468608 0.881619 0.0561634 
0.149907 0.985637 0.0777703 -0.0553569 0.994881 0.0845441 -0.199234 0.975944 0.0885412 
-0.3653 0.925859 0.0966463 -0.54298 0.827071 0.145348 0.689022 0.723954 0.0337384 
0.71769 0.695803 0.0279301 -0.550758 0.821441 0.147986 -0.637501 0.739774 0.215238 
0.770169 0.637603 -0.0173828 0.739279 0.672548 -0.0338663 -0.6419 0.731357 0.230394 
-0.616113 0.746076 0.252537 0.717728 0.693741 -0.0599096 0.745678 0.66164 -0.078721 
-0.627433 0.738761 0.246089 -0.671602 0.706978 0.221659 0.794319 0.599645 -0.0973836 
0.863352 0.487448 -0.130454 -0.729599 0.657827 0.186947 -0.80764 0.571502 0.145265 
0.877324 0.46061 -0.134691 0.873877 0.425918 -0.234378 -0.853375 0.504561 0.13103 
0.921667 0.351556 -0.164131 -0.952863 0.292787 0.0795505 0.962119 0.214219 -0.168634 
0.980346 0.0432048 -0.192496 -0.998642 0.0290131 0.0432684 0.979945 -0.0139689 -0.198775 
0.977011 -0.0762375 -0.199089 0.972419 -0.0175967 -0.232575 -0.969655 -0.244027 0.0148103 
0.928457 -0.317239 -0.193202 -0.834323 -0.550976 -0.0182027 -0.761294 -0.647845 -0.026966 
0.703311 -0.680847 -0.204453 0.639674 -0.740845 -0.204854 0.642404 -0.685943 -0.341759 
0.43706 -0.873896 -0.2128 -0.417802 -0.889868 -0.183237 -0.597864 -0.797095 -0.0848487 
-0.545235 -0.830225 -0.115956 -0.506139 -0.802152 -0.31682 0.375935 -0.90169 -0.213609 
0.282753 -0.93542 -0.212227 0.282094 -0.891891 -0.353486 0.165648 -0.961747 -0.218182 
0.0135152 -0.965968 -0.25831 -0.104195 -0.958695 -0.264663 -0.0642411 -0.959442 -0.274487 
-0.0698569 -0.869761 -0.488503 0.0600525 -0.957842 -0.280949 0.0422571 -0.853682 -0.519077 
0.0496382 -0.958048 -0.282275 -0.128727 -0.947012 -0.294276 -0.104196 -0.83077 -0.546777 
-0.365605 -0.906633 -0.210591 -0.293275 -0.925573 -0.239384 -0.269677 -0.875747 -0.400426 
0.446416 0.873939 -0.192205 0.160045 0.965556 -0.205151 -0.0546965 0.975341 -0.21382 
-0.184677 0.958162 -0.218678 -0.340489 0.917727 -0.20456 -0.499932 0.851402 -0.158693 
0.657657 0.739877 -0.14167 0.706261 0.696317 -0.127823 -0.513441 0.844188 -0.15403 
-0.494798 0.841074 -0.218562 -0.614973 0.778158 -0.127588 0.77025 0.634175 -0.0673568 
0.752289 0.655701 -0.0641698 -0.634121 0.764623 -0.115075 -0.547953 0.675245 -0.493752 
-0.643386 0.756028 -0.120321 0.748045 0.656138 -0.0995574 0.784822 0.604073 -0.138385 
-0.670506 0.721452 -0.172999 -0.56785 0.540785 -0.620562 -0.718391 0.663563 -0.208802 
0.813045 0.551953 -0.185218 -0.773879 0.587533 -0.236465 -0.659467 0.488839 -0.571086 
-0.82461 0.486574 -0.288554 0.866346 0.401408 -0.297181 0.872827 0.37701 -0.309898 
-0.84281 0.446263 -0.300866 -0.803298 0.431238 -0.410788 0.890175 0.286678 -0.354126 
0.821112 0.244187 -0.515895 -0.898114 0.262442 -0.352869 -0.68322 0.218166 -0.69686 
0.890634 0.175672 -0.419417 0.71675 0.104867 -0.6894 -0.929275 -0.0112209 -0.369219 
0.878978 -0.0473434 -0.474506 0.624575 -0.0778584 -0.777074 -0.866743 -0.281917 -0.411436 
-0.651991 -0.299826 -0.696428 0.796 -0.357943 -0.48812 0.649469 -0.566301 -0.507437 
0.639494 -0.388627 -0.663337 -0.479779 -0.758653 -0.440747 -0.410027 -0.489128 -0.769826 
-0.715723 -0.554147 -0.425044 -0.713213 -0.55732 -0.425114 -0.712969 -0.553891 -0.429976 
0.543212 -0.672052 -0.503257 0.414463 -0.762487 -0.496824 0.407351 -0.656065 -0.635329 
0.269231 -0.835222 -0.479499 0.216541 -0.575469 -0.788635 -0.0719608 -0.847973 -0.525132 
-0.101304 -0.572918 -0.813328 0.0368468 -0.824755 -0.564289 -0.0360683 -0.527004 -0.849097 
0.00761246 -0.475363 -0.879757 -0.10405 -0.829992 -0.547985 -0.039322 -0.476686 -0.878194 
-0.237327 -0.803307 -0.546236 -0.120793 -0.601294 -0.789845 -0.447643 -0.776395 -0.443652 
-0.345853 -0.804504 -0.482866 -0.29207 -0.690404 -0.661843 0.187708 -0.847561 -0.496393 
0.148189 -0.846076 -0.51205 0.14268 -0.829075 -0.540626 0.00591773 -0.856198 -0.516613 
0.00725588 -0.815622 -0.57854 -0.0817846 -0.852977 -0.515501 -0.100001 -0.854924 -0.509024 
-0.0987384 -0.834055 -0.542773 0.0315812 -0.821387 -0.569496 -0.0968009 -0.829833 -0.549552 
0.0279589 -0.81732 -0.575506 0.0281038 -0.810027 -0.585719 0.359889 0.742564 -0.56487 
0.135115 0.754443 -0.642308 -0.0624297 0.753497 -0.654481 -0.169814 0.725438 -0.66701 
-0.279949 0.719674 -0.635373 0.428429 0.725395 -0.538749 0.593769 0.645943 -0.479787 
0.33933 0.697165 -0.631519 0.10637 0.563594 -0.819175 -0.0520143 0.552317 -0.83201 
-0.1575 0.598207 -0.785711 -0.299496 0.718602 -0.627625 -0.273472 0.701457 -0.658158 
-0.418331 0.658926 -0.625153 0.653006 0.607061 -0.452835 0.682201 0.582511 -0.441908 
0.520246 0.510902 -0.684341 0.171101 0.281426 -0.944205 0.0499252 0.223024 -0.973534 
-0.040462 0.179101 -0.982998 -0.0880571 0.238842 -0.967058 -0.135518 0.284791 -0.948962 
-0.481119 0.599556 -0.639575 -0.346552 0.440631 -0.828098 -0.486359 0.583797 -0.650105 
0.693522 0.556475 -0.457561 0.748165 0.42221 -0.511847 0.610208 0.487908 -0.624173 
0.237201 0.180463 -0.954552 0.0730289 0.062011 -0.9954 -0.0189483 -0.0129869 -0.999736 
-0.034596 -0.0222384 -0.999154 -0.0315981 -0.018543 -0.999329 -0.0741209 0.0339974 -0.99667 
-0.120875 0.12142 -0.985214 -0.531606 0.490482 -0.690523 -0.35386 0.33319 -0.873938 
-0.52779 0.476221 -0.703315 0.749669 0.412597 -0.517456 0.741915 0.408698 -0.531534 
0.326749 0.167493 -0.930151 0.102049 0.0214953 -0.994547 -0.00493376 -0.0557913 -0.99843 
-0.0363145 -0.0324166 -0.998815 -0.0469618 0.00573444 -0.99888 -0.0315896 -0.0805184 -0.996252 
-0.00106002 -0.0675648 -0.997714 -0.0338917 -0.0208459 -0.999208 -0.15135 0.104704 -0.982919 
-0.535966 0.392422 -0.747493 -0.345504 0.281048 -0.895343 -0.549308 0.367538 -0.750451 
0.713133 0.242858 -0.657617 0.565263 0.167859 -0.807651 0.198036 0.0510365 -0.978865 
0.0116386 -0.0618072 -0.99802 0.0196904 -0.0825891 -0.996389 0.0466603 0.0549554 -0.997398 
-0.0869537 -0.00775076 -0.996182 -0.103346 0.0699937 -0.99218 -0.0151659 0.010638 -0.999828 
0.0499215 -0.0323228 -0.99823 -0.0300297 0.0227864 -0.999289 -0.216927 0.13301 -0.967084 
-0.545832 0.308724 -0.778946 -0.470266 0.265936 -0.841503 0.659513 0.147528 -0.737074 
0.429941 0.0470899 -0.901628 0.102302 -0.00977111 -0.994705 -0.0282622 -0.0614974 -0.997707 
0.106191 -0.0962024 -0.989681 0.0433313 -0.123101 -0.991448 -0.0298448 -0.141192 -0.989532 
-0.0130359 0.0808324 -0.996642 -0.105435 0.0102843 -0.994373 -0.0218579 -0.0292619 -0.999333 
0.00799957 -0.0373998 -0.999268 -0.122291 0.0399875 -0.991688 -0.574494 0.186741 -0.796922 
-0.350567 0.109615 -0.930101 -0.619053 0.00232818 -0.785346 0.622861 0.0665325 -0.779499 
0.358206 -0.0225601 -0.93337 0.0914761 -0.0604118 -0.993973 -0.073283 -0.041742 -0.996437 
-0.0407118 -0.0798547 -0.995975 0.0082527 -0.170143 -0.985385 0.115075 0.00740583 -0.993329 
0.0385551 -0.104194 -0.993809 -0.123742 -0.166461 -0.978253 0.00735063 -0.0798311 -0.996781 
0.0388674 -0.0491334 -0.998036 -0.0750158 -0.0410575 -0.996337 -0.294743 -0.0240088 -0.955275 
-0.620082 -0.0224833 -0.784215 -0.615499 -0.0450346 -0.78685 -0.613105 -0.0225458 -0.78968 
0.570363 -0.0868893 -0.816784 0.305987 -0.122597 -0.944109 0.0904359 -0.118357 -0.988844 
-0.0483851 -0.10718 -0.993062 -0.0216842 -0.0563965 -0.998173 0.115536 -0.0566937 -0.991684 
0.0357321 -0.0227758 -0.999102 -0.176751 -0.260164 -0.949249 -0.0623627 -0.181312 -0.981446 
0.0886621 -0.150736 -0.98459 0.04325 -0.143473 -0.988709 -0.100032 -0.202761 -0.974106 
-0.51137 -0.285736 -0.810466 -0.386094 -0.429137 -0.816562 -0.346763 -0.264384 -0.89992 
0.437634 -0.360863 -0.823562 0.362366 -0.434696 -0.824457 0.350596 -0.344899 -0.870705 
0.202134 -0.528201 -0.82471 0.113936 -0.297098 -0.948025 -0.00448926 -0.22718 -0.973842 
0.0142149 -0.173439 -0.984742 0.0363418 -0.19221 -0.980681 -0.101321 -0.569169 -0.815954 
-0.081669 -0.33629 -0.938211 -0.0573039 -0.462715 -0.884653 -0.120049 -0.32077 -0.939518 
6.71184e-06 -0.403932 -0.914789 -0.0168678 -0.223633 -0.974527 -0.0200098 -0.410393 -0.911689 
0.0388979 -0.258568 -0.96521 -0.0691703 -0.49921 -0.863716 -0.00735285 -0.340304 -0.940287 
-0.343571 -0.452717 -0.822804 -0.222934 -0.507481 -0.832324 -0.188937 -0.3895 -0.901439 
0.164421 -0.536695 -0.827602 0.0967025 -0.537687 -0.837581 0.0898724 -0.490834 -0.866605 
0.00511598 -0.513604 -0.858012 0.00635783 -0.449938 -0.893037 -0.0995042 -0.568736 -0.816479 
-0.0699394 -0.55257 -0.830527 -0.061705 -0.503271 -0.861923 
