# vtk DataFile Version 4.2
vtk output
ASCII
DATASET POLYDATA
POINTS 548 float
-19.5418 -41.1535 -10.832 -11.89 -41.1535 -12.8885 -4.23831 -41.1535 -13.8631 
3.41342 -41.1535 -14.2317 11.0651 -41.1535 -13.9527 18.7169 -41.1535 -12.4212 
26.3686 -41.1535 -10.7764 -34.8452 -33.5018 -10.609 -27.1935 -33.5018 -13.0011 
-19.5418 -33.5018 -14.3417 -11.89 -33.5018 -15.1387 -4.23831 -33.5018 -15.2914 
3.41342 -33.5018 -15.5856 11.0651 -33.5018 -15.6162 18.7169 -33.5018 -15.5394 
26.3686 -33.5018 -13.7956 34.0203 -33.5018 -10.6355 -42.497 -25.85 -13.5506 
-34.8452 -25.85 -14.8796 -27.1935 -25.85 -15.7307 -19.5418 -25.85 -15.1598 
-11.89 -25.85 -15.7184 -4.23831 -25.85 -15.3951 3.41342 -25.85 -15.6868 
11.0651 -25.85 -15.9638 18.7169 -25.85 -15.8893 26.3686 -25.85 -15.4609 
34.0203 -25.85 -13.961 41.6721 -25.85 -11.4881 -50.1487 -18.1983 -13.7158 
-42.497 -18.1983 -16.1542 -34.8452 -18.1983 -17.2906 -27.1935 -18.1983 -16.4702 
-19.5418 -18.1983 -15.496 -11.89 -18.1983 -14.8243 -4.23831 -18.1983 -14.5564 
3.41342 -18.1983 -14.8583 11.0651 -18.1983 -15.2573 18.7169 -18.1983 -15.1402 
26.3686 -18.1983 -15.1736 34.0203 -18.1983 -15.5992 41.6721 -18.1983 -14.801 
49.3238 -18.1983 -12.1988 -57.8004 -10.5466 -12.2262 -50.1487 -10.5466 -17.3274 
-42.497 -10.5466 -17.1791 -34.8452 -10.5466 -17.2508 -27.1935 -10.5466 -16.828 
-19.5418 -10.5466 -15.6628 -11.89 -10.5466 -14.8126 -4.23831 -10.5466 -14.4016 
3.41342 -10.5466 -14.6805 11.0651 -10.5466 -15.2989 18.7169 -10.5466 -14.4523 
26.3686 -10.5466 -15.5492 34.0203 -10.5466 -16.2207 41.6721 -10.5466 -16.1671 
49.3238 -10.5466 -16.2275 56.9755 -10.5466 -12.4502 -57.8004 -2.89486 -13.3779 
-50.1487 -2.89486 -15.5323 -42.497 -2.89486 -17.1819 -34.8452 -2.89486 -16.9871 
-27.1935 -2.89486 -16.31 -19.5418 -2.89486 -15.2589 -11.89 -2.89486 -15.5787 
-4.23831 -2.89486 -13.4999 3.41342 -2.89486 -14.3428 11.0651 -2.89486 -16.8705 
18.7169 -2.89486 -14.1096 26.3686 -2.89486 -15.4401 34.0203 -2.89486 -16.5687 
41.6721 -2.89486 -17.0333 49.3238 -2.89486 -15.9862 56.9755 -2.89486 -12.9611 
-57.8004 4.75687 -12.433 -50.1487 4.75687 -15.5524 -42.497 4.75687 -15.8434 
-34.8452 4.75687 -15.9285 -27.1935 4.75687 -15.0851 -19.5418 4.75687 -13.6839 
-11.89 4.75687 -13.6485 -4.23831 4.75687 -14.7206 3.41342 4.75687 -15.512 
11.0651 4.75687 -15.1324 18.7169 4.75687 -13.2822 26.3686 4.75687 -14.9081 
34.0203 4.75687 -16.1335 41.6721 4.75687 -16.6308 49.3238 4.75687 -15.9552 
56.9755 4.75687 -13.2648 -57.8004 12.4086 -10.7475 -50.1487 12.4086 -13.0299 
-42.497 12.4086 -14.3865 -34.8452 12.4086 -15.1177 -27.1935 12.4086 -14.2841 
-19.5418 12.4086 -13.2994 -11.89 12.4086 -13.1549 -4.23831 12.4086 -14.7485 
3.41342 12.4086 -15.652 11.0651 12.4086 -13.6525 18.7169 12.4086 -13.2892 
26.3686 12.4086 -14.6107 34.0203 12.4086 -15.9196 41.6721 12.4086 -15.4566 
49.3238 12.4086 -15.3694 56.9755 12.4086 -12.7015 -42.497 20.0603 -13.1967 
-34.8452 20.0603 -13.4755 -27.1935 20.0603 -13.8828 -19.5418 20.0603 -13.362 
-11.89 20.0603 -13.3414 -4.23831 20.0603 -14.2963 3.41342 20.0603 -15.0783 
11.0651 20.0603 -13.7084 18.7169 20.0603 -12.9851 26.3686 20.0603 -13.7912 
34.0203 20.0603 -13.8022 41.6721 20.0603 -14.482 49.3238 20.0603 -12.0326 
-34.8452 27.7121 -11.7214 -27.1935 27.7121 -12.2464 -19.5418 27.7121 -12.4864 
-11.89 27.7121 -12.8183 -4.23831 27.7121 -13.5309 3.41342 27.7121 -14.1057 
11.0651 27.7121 -12.9949 18.7169 27.7121 -11.4606 26.3686 27.7121 -11.4957 
34.0203 27.7121 -11.3208 41.6721 27.7121 -11.5763 -4.23831 35.3638 -11.0656 
3.41342 35.3638 -10.9154 -19.5418 -41.6298 -10.3783 -11.89 -44.8787 -10.3783 
-4.23831 -46.5844 -10.3783 3.41342 -47.1198 -10.3783 11.0651 -46.0956 -10.3783 
18.7169 -43.8005 -10.3783 26.3686 -41.5474 -10.3783 -34.8452 -33.7631 -10.3783 
-20.9302 -41.1535 -10.3783 -27.1935 -38.4944 -10.3783 -27.1935 -41.1535 -3.58003 
26.9804 -41.1535 -10.3783 34.0203 -33.8648 -10.3783 -35.5046 -33.5018 -10.3783 
-42.497 -30.2744 -10.3783 -42.497 -33.5018 -2.99175 34.5777 -33.5018 -10.3783 
41.6721 -27.8278 -10.3783 -49.3499 -25.85 -10.3783 -50.1487 -25.1044 -10.3783 
-50.1487 -25.85 -9.36688 44.7572 -25.85 -10.3783 49.3238 -22.2199 -10.3783 
49.3238 -25.85 -6.86982 -55.4501 -18.1983 -10.3783 -57.8004 -15.2972 -10.3783 
-57.8004 -18.1983 -6.85556 53.3259 -18.1983 -10.3783 56.9755 -15.2226 -10.3783 
56.9755 -18.1983 -6.43045 -60.0199 -10.5466 -10.3783 59.6865 -10.5466 -10.3783 
-61.5845 -2.89486 -10.3783 -65.4521 -2.89486 -2.73324 60.7862 -2.89486 -10.3783 
64.6273 -2.89486 -5.40888 -60.6441 4.75687 -10.3783 -65.4521 4.75687 -3.19591 
61.9428 4.75687 -10.3783 64.6273 4.75687 -7.40749 -58.3209 12.4086 -10.3783 
-57.8004 13.2811 -10.3783 -50.1487 19.9336 -10.3783 60.3554 12.4086 -10.3783 
56.9755 18.2775 -10.3783 64.6273 12.4086 -4.21373 -57.8004 20.0603 -6.50925 
-50.0314 20.0603 -10.3783 -50.1487 20.0603 -10.3355 -42.497 26.1069 -10.3783 
54.3373 20.0603 -10.3783 49.3238 24.521 -10.3783 56.9755 20.0603 -9.28019 
-50.1487 27.7121 -6.95249 -39.6904 27.7121 -10.3783 -42.497 27.7121 -9.64318 
-34.8452 31.3172 -10.3783 -27.1935 32.1355 -10.3783 -19.5418 33.5637 -10.3783 
-11.89 35.2162 -10.3783 11.0651 33.3925 -10.3783 18.7169 29.9344 -10.3783 
26.3686 30.028 -10.3783 34.0203 29.195 -10.3783 45.8974 27.7121 -10.3783 
41.6721 29.4279 -10.3783 49.3238 27.7121 -8.88818 -42.497 35.3638 -4.25794 
-34.8452 35.3638 -8.6023 -27.1935 35.3638 -8.77777 -19.5418 35.3638 -9.65375 
-11.3435 35.3638 -10.3783 -11.89 35.3638 -10.3202 -4.23831 36.4012 -10.3783 
6.07924 35.3638 -10.3783 3.41342 36.0961 -10.3783 11.0651 35.3638 -9.11023 
18.7169 35.3638 -6.94605 26.3686 35.3638 -6.35957 34.0203 35.3638 -5.296 
41.6721 35.3638 -3.90485 -19.5418 43.0155 -2.98578 -11.89 43.0155 -3.20538 
-4.23831 43.0155 -3.03044 -27.1935 -41.3532 -2.72659 -19.5418 -45.0866 -2.72659 
-11.89 -47.5335 -2.72659 -4.23831 -48.7574 -2.72659 3.41342 -48.7283 -2.72659 
11.0651 -48.1231 -2.72659 18.7169 -46.2723 -2.72659 26.3686 -43.1378 -2.72659 
-42.497 -33.5729 -2.72659 -27.6182 -41.1535 -2.72659 -34.8452 -37.7691 -2.72659 
-27.1935 -41.1535 -2.27889 18.7169 -41.1535 4.7523 29.651 -41.1535 -2.72659 
26.3686 -41.1535 1.2942 34.0203 -38.4362 -2.72659 -42.6191 -33.5018 -2.72659 
-50.1487 -28.3103 -2.72659 -42.497 -33.5018 -2.56694 -34.8452 -33.5018 3.89187 
41.022 -33.5018 -2.72659 41.6721 -33.0237 -2.72659 49.3238 -27.648 -2.72659 
-53.1769 -25.85 -2.72659 -57.8004 -20.6804 -2.72659 -50.1487 -25.85 1.82773 
51.3477 -25.85 -2.72659 49.3238 -25.85 1.23841 56.9755 -19.9122 -2.72659 
-59.371 -18.1983 -2.72659 -57.8004 -18.1983 0.725718 58.4402 -18.1983 -2.72659 
56.9755 -18.1983 1.82473 -63.6961 -10.5466 -2.72659 -65.4521 -2.90744 -2.72659 
63.1955 -10.5466 -2.72659 64.6273 -6.62791 -2.72659 -65.455 -2.89486 -2.72659 
-65.4521 -2.89486 -2.71509 65.8386 -2.89486 -2.72659 64.6273 -2.89486 1.10294 
-65.7011 4.75687 -2.72659 -65.4521 6.79384 -2.72659 -65.4521 4.75687 -0.757002 
66.6973 4.75687 -2.72659 64.6273 4.75687 4.24188 -64.6974 12.4086 -2.72659 
65.4301 12.4086 -2.72659 64.6273 15.6415 -2.72659 64.6273 12.4086 3.05196 
-60.8464 20.0603 -2.72659 -57.8004 24.3132 -2.72659 63.197 20.0603 -2.72659 
56.9755 27.5825 -2.72659 -54.6692 27.7121 -2.72659 -50.1487 32.003 -2.72659 
56.8381 27.7121 -2.72659 49.3238 32.5996 -2.72659 56.9755 27.7121 -0.848269 
-44.7594 35.3638 -2.72659 -42.497 36.5467 -2.72659 -34.8452 39.9378 -2.72659 
-27.1935 42.2048 -2.72659 3.41342 42.2314 -2.72659 11.0651 40.775 -2.72659 
18.7169 38.9129 -2.72659 26.3686 37.9476 -2.72659 34.0203 37.1931 -2.72659 
43.5794 35.3638 -2.72659 41.6721 36.1684 -2.72659 -21.1876 43.0155 -2.72659 
-19.5418 43.188 -2.72659 -11.89 43.3206 -2.72659 -2.7402 43.0155 -2.72659 
-4.23831 43.1888 -2.72659 -19.5418 -41.226 4.92514 -11.89 -42.7386 4.92514 
-4.23831 -44.5074 4.92514 3.41342 -44.5619 4.92514 11.0651 -43.4446 4.92514 
-19.7004 -41.1535 4.92514 -27.1935 -36.4366 4.92514 -19.5418 -41.1535 4.99779 
-11.89 -41.1535 6.31992 -4.23831 -41.1535 7.8391 3.41342 -41.1535 7.94408 
18.1985 -41.1535 4.92514 11.0651 -41.1535 6.91137 18.7169 -40.9511 4.92514 
26.3686 -38.0869 4.92514 34.0203 -34.5673 4.92514 -42.497 -28.3826 4.92514 
-32.9271 -33.5018 4.92514 -34.8452 -32.5953 4.92514 -27.1935 -33.5018 7.10013 
-19.5418 -33.5018 9.57656 -11.89 -33.5018 11.2557 -4.23831 -33.5018 12.56 
11.0651 -33.5018 11.6266 18.7169 -33.5018 9.87126 26.3686 -33.5018 7.64108 
35.7139 -33.5018 4.92514 34.0203 -33.5018 5.87821 41.6721 -27.8464 4.92514 
-46.6195 -25.85 4.92514 -50.1487 -22.8831 4.92514 -42.497 -25.85 7.08265 
-34.8452 -25.85 9.83323 -27.1935 -25.85 11.7575 26.3686 -25.85 11.5563 
34.0203 -25.85 9.51209 44.9553 -25.85 4.92514 41.6721 -25.85 6.41838 
49.3238 -22.3667 4.92514 -54.3291 -18.1983 4.92514 -57.8004 -13.0834 4.92514 
-50.1487 -18.1983 7.82129 -42.497 -18.1983 11.0152 34.0203 -18.1983 12.5108 
41.6721 -18.1983 10.7979 54.4544 -18.1983 4.92514 49.3238 -18.1983 7.61479 
56.9755 -16.3647 4.92514 -59.1159 -10.5466 4.92514 -57.8004 -10.5466 6.16779 
-50.1487 -10.5466 10.8651 49.3238 -10.5466 10.9423 59.9872 -10.5466 4.92514 
56.9755 -10.5466 7.7712 -62.3917 -2.89486 4.92514 -57.8004 -2.89486 9.27276 
-50.1487 -2.89486 12.5506 62.7243 -2.89486 4.92514 56.9755 -2.89486 10.2461 
-64.3664 4.75687 4.92514 -57.8004 4.75687 11.7338 64.3262 4.75687 4.92514 
56.9755 4.75687 12.0555 -63.6596 12.4086 4.92514 -57.8004 12.4086 12.3818 
64.2642 12.4086 4.92514 -60.7748 20.0603 4.92514 -57.8004 24.4643 4.92514 
-57.8004 20.0603 8.53312 -50.1487 20.0603 12.3196 61.609 20.0603 4.92514 
56.9755 20.0603 11.6661 -54.2797 27.7121 4.92514 -50.1487 31.8826 4.92514 
-50.1487 27.7121 9.15699 -42.497 27.7121 12.341 49.3238 33.8103 4.92514 
49.3238 27.7121 11.6269 57.2751 27.7121 4.92514 56.9755 28.08 4.92514 
56.9755 27.7121 5.35357 -45.9974 35.3638 4.92514 -42.497 37.2113 4.92514 
-42.497 35.3638 7.63072 -34.8452 40.3231 4.92514 -34.8452 35.3638 9.98053 
-27.1935 42.6845 4.92514 3.41342 42.6049 4.92514 11.0651 41.2367 4.92514 
11.0651 35.3638 12.3505 18.7169 39.7748 4.92514 18.7169 35.3638 11.351 
[...]
POINT_DATA 548
SCALARS ImageScalars float
LOOKUP_TABLE default
0 0 0 0 0 0 0 0 0 
0 0 0 0 0 0 0 0 0 
0 0 0 0 0 0 0 0 0 
0 0 0 0 0 0 0 0 0 
0 0 0 0 0 0 0 0 0 
0 0 0 0 0 0 0 0 0 
0 0 0 0 0 0 0 0 0 
0 0 0 0 0 0 0 0 0 
0 0 0 0 0 0 0 0 0 
0 0 0 0 0 0 0 0 0 
0 0 0 0 0 0 0 0 0 
0 0 0 0 0 0 0 0 0 
0 0 0 0 0 0 0 0 0 
0 0 0 0 0 0 0 0 0 
0 0 0 0 0 0 0 0 0 
0 0 0 0 0 0 0 0 0 
0 0 0 0 0 0 0 0 0 
0 0 0 0 0 0 0 0 0 
0 0 0 0 0 0 0 0 0 
0 0 0 0 0 0 0 0 0 
0 0 0 0 0 0 0 0 0 
0 0 0 0 0 0 0 0 0 
0 0 0 0 0 0 0 0 0 
0 0 0 0 0 0 0 0 0 
0 0 0 0 0 0 0 0 0 
0 0 0 0 0 0 0 0 0 
0 0 0 0 0 0 0 0 0 
0 0 0 0 0 0 0 0 0 
0 0 0 0 0 0 0 0 0 
0 0 0 0 0 0 0 0 0 
0 0 0 0 0 0 0 0 0 
0 0 0 0 0 0 0 0 0 
0 0 0 0 0 0 0 0 0 
0 0 0 0 0 0 0 0 0 
0 0 0 0 0 0 0 0 0 
0 0 0 0 0 0 0 0 0 
0 0 0 0 0 0 0 0 0 
0 0 0 0 0 0 0 0 0 
0 0 0 0 0 0 0 0 0 
0 0 0 0 0 0 0 0 0 
0 0 0 0 0 0 0 0 0 
0 0 0 0 0 0 0 0 0 
0 0 0 0 0 0 0 0 0 
0 0 0 0 0 0 0 0 0 
0 0 0 0 0 0 0 0 0 
0 0 0 0 0 0 0 0 0 
0 0 0 0 0 0 0 0 0 
0 0 0 0 0 0 0 0 0 
0 0 0 0 0 0 0 0 0 
0 0 0 0 0 0 0 0 0 
0 0 0 0 0 0 0 0 0 
0 0 0 0 0 0 0 0 0 
0 0 0 0 0 0 0 0 0 
0 0 0 0 0 0 0 0 0 
0 0 0 0 0 0 0 0 0 
0 0 0 0 0 0 0 0 0 
0 0 0 0 0 0 0 0 0 
0 0 0 0 0 0 0 0 0 
0 0 0 0 0 0 0 0 0 
0 0 0 0 0 0 0 0 0 
0 0 0 0 0 0 0 0 
NORMALS Normals float
0.298461 0.649408 0.699421 0.168917 0.482026 0.85972 0.0943221 0.393288 0.914564 
0.00712023 0.382122 0.924084 -0.12125 0.447234 0.886161 -0.209148 0.557419 0.803456 
-0.417017 0.68899 0.592781 0.311551 0.682964 0.660679 0.201719 0.420699 0.884489 
0.158102 0.230303 0.96019 0.0553331 0.174705 0.983065 0.0296579 0.10091 0.994453 
0.0211224 0.0979852 0.994964 -0.00252688 0.131859 0.991265 -0.127505 0.230979 0.964568 
-0.277169 0.28886 0.916372 -0.416993 0.562748 0.713744 0.30658 0.500209 0.809814 
0.115547 0.342719 0.932305 0.0253158 0.236801 0.971228 0.001819 0.0705853 0.997504 
0.0152174 -0.0146701 0.999777 -0.0018909 -0.0479537 0.998848 0.0371121 -0.0473082 0.998191 
0.0132669 -0.0236956 0.999631 -0.030976 -0.0288779 0.999103 -0.144375 0.0915689 0.985277 
-0.207423 0.251212 0.945446 -0.354021 0.508614 0.784844 0.464676 0.412375 0.783597 
0.185652 0.185452 0.964956 0.0298288 0.165784 0.985711 -0.116226 0.0694661 0.990791 
-0.101423 0.0325807 0.99431 -0.0625714 -0.0599817 0.996236 0.00300516 -0.064143 0.997936 
0.0461943 -0.0652989 0.996796 0.0182955 -0.0436217 0.998881 -0.00544939 -0.089996 0.995927 
0.027534 0.00538452 0.999606 -0.0324795 0.166909 0.985437 -0.168917 0.240275 0.955895 
-0.412974 0.428511 0.803636 0.595991 0.244267 0.764937 0.315745 0.0483137 0.947613 
-0.00283937 0.0762113 0.997088 -0.0230878 -0.0196518 0.99954 -0.103139 -0.0115641 0.9946 
-0.132963 -0.0154447 0.991001 -0.0811763 0.0458876 0.995643 -0.0106717 -0.0580877 0.998254 
0.0585718 -0.0267926 0.997924 -0.0160015 0.071676 0.9973 0.0155496 -0.0691368 0.997486 
0.114293 0.0180262 0.993284 0.0372932 0.0599014 0.997507 -0.000403612 0.158336 0.987385 
-0.234829 0.184327 0.9544 -0.541115 0.24721 0.803792 0.483754 0.00852947 0.875163 
0.241225 -0.0846703 0.966769 0.110107 -0.0878568 0.990029 -0.0560113 -0.0855068 0.994762 
-0.111528 -0.112078 0.987421 -0.0499123 -0.123267 0.991118 -0.0886404 -0.0585375 0.994342 
-0.121732 0.0194435 0.992373 0.2138 0.0549991 0.975328 -0.104911 0.0249377 0.994169 
-0.0256864 -0.0755365 0.996812 0.158973 -0.0406936 0.986444 0.103053 -0.00555057 0.99466 
-0.0468883 0.0294896 0.998465 -0.22098 -0.013832 0.97518 -0.480876 0.0508012 0.875316 
0.488221 -0.165842 0.856818 0.27009 -0.157654 0.94984 0.021629 -0.178008 0.983791 
-0.0488413 -0.120897 0.991463 -0.142033 -0.134465 0.980686 -0.0962423 -0.132394 0.986514 
0.0635683 -0.159562 0.985139 0.116798 0.0758191 0.990257 0.0358725 0.069385 0.996945 
-0.17238 -0.202629 0.963964 0.0252155 -0.0546912 0.998185 0.188606 -0.0547624 0.980525 
0.111218 -0.0418223 0.992916 -0.0170602 -0.102469 0.99459 -0.179416 -0.0332636 0.983211 
-0.411287 -0.0247922 0.911169 0.446714 -0.305154 0.841027 0.23117 -0.293872 0.927469 
0.120907 -0.158796 0.97988 -0.00738749 -0.15889 0.987269 -0.117383 -0.0771618 0.990085 
-0.0730723 -0.0190476 0.997145 0.0928989 -0.0151763 0.99556 0.160604 -0.0288531 0.986597 
-0.0696224 -0.0307792 0.997099 -0.157785 -0.0635828 0.985424 0.0625839 -0.0191943 0.997855 
0.169042 -0.0705828 0.983078 0.055963 -0.145766 0.987735 -0.0344671 -0.132694 0.990558 
-0.214163 -0.258001 0.942109 -0.446539 -0.173174 0.877846 0.190834 -0.299157 0.934927 
0.0419222 -0.201547 0.978581 -0.00794652 -0.13243 0.991161 -0.0346287 -0.0508279 0.998107 
0.0620044 -0.0230826 0.997809 0.112854 -0.0734885 0.99089 -0.0364955 -0.0965133 0.994662 
-0.138763 -0.0428379 0.989399 0.00397076 -0.113602 0.993518 0.0546336 -0.214811 0.975126 
0.0392586 -0.268882 0.962373 -0.100152 -0.269033 0.957909 -0.259209 -0.359413 0.896456 
0.158996 -0.29595 0.941878 0.0433915 -0.290973 0.955747 0.0380149 -0.21469 0.975942 
0.0625903 -0.187018 0.980361 0.0865488 -0.208265 0.974236 -0.0371303 -0.248596 0.967895 
-0.16324 -0.251669 0.953947 -0.0963299 -0.321523 0.941989 -0.00745915 -0.378711 0.925485 
0.0064761 -0.432183 0.901763 -0.128091 -0.503824 0.854256 0.0383326 -0.462124 0.885986 
-0.100748 -0.535265 0.838654 0.311206 0.675249 0.668722 0.234468 0.71118 0.662758 
0.108162 0.777228 0.619853 -0.0284043 0.82085 0.570438 -0.167297 0.787567 0.593085 
-0.262619 0.713104 0.650011 -0.420366 0.707621 0.567948 0.320337 0.692956 0.645907 
0.317369 0.680596 0.660353 0.325172 0.660171 0.677081 0.443398 0.895887 -0.028013 
-0.434544 0.696095 0.571509 -0.426788 0.57403 0.698814 0.322266 0.694117 0.643697 
0.390333 0.677285 0.623639 0.503576 0.862 -0.0580223 -0.425262 0.57286 0.700702 
-0.405489 0.553437 0.727521 0.498725 0.591444 0.633615 0.515066 0.573018 0.637462 
0.546975 0.635738 0.544662 -0.418048 0.549701 0.723232 -0.46929 0.506992 0.722998 
-0.603742 0.7095 0.363464 0.629563 0.429568 0.647396 0.654087 0.374903 0.656976 
0.784252 0.529804 0.322887 -0.507438 0.492379 0.707156 -0.576204 0.443089 0.686776 
-0.707784 0.624351 0.330496 0.685753 0.276228 0.673381 -0.670264 0.286477 0.684599 
0.716263 0.04025 0.696669 0.987381 0.129671 0.0909026 -0.669596 0.0990746 0.736088 
-0.946585 0.214523 0.240744 0.603349 -0.16214 0.78082 0.970018 -0.051499 0.237516 
-0.672928 -0.0404617 0.738601 -0.913898 -0.0613069 0.401287 0.466242 -0.304403 0.830637 
0.448406 -0.314349 0.83673 0.340465 -0.314119 0.886235 -0.605172 -0.244367 0.757662 
-0.486789 -0.447194 0.75037 -0.929577 -0.23221 0.286295 0.63448 -0.477416 0.607872 
0.340479 -0.314676 0.886032 0.343382 -0.315999 0.88444 0.230655 -0.401355 0.886404 
-0.41409 -0.462396 0.78404 -0.343092 -0.444157 0.827655 -0.520476 -0.532828 0.667232 
0.415162 -0.649209 0.637313 0.210832 -0.375003 0.902731 0.255071 -0.444721 0.858582 
0.169693 -0.404172 0.898804 0.0499452 -0.413782 0.909005 0.0777222 -0.408111 0.909618 
0.0815408 -0.441848 0.893377 -0.19344 -0.479649 0.855873 -0.101264 -0.402242 0.909916 
-0.026665 -0.466616 0.884058 -0.0170594 -0.513503 0.857919 -0.269938 -0.520248 0.810232 
-0.14599 -0.575922 0.804363 -0.391307 -0.558797 0.731181 0.460825 -0.757909 0.461752 
0.202926 -0.607944 0.76761 0.062186 -0.5523 0.831323 0.0904521 -0.486291 0.869103 
0.0788329 -0.447894 0.890605 0.0818696 -0.448481 0.890035 0.0296917 -0.508021 0.860833 
-0.137406 -0.544863 0.82719 -0.102859 -0.565797 0.818103 -0.207281 -0.601814 0.771268 
-0.138512 -0.71173 0.688661 -0.079041 -0.778431 0.622734 -0.119345 -0.849508 0.5139 
-0.274456 -0.850981 0.447777 0.0633702 -0.913019 0.402965 0.00295831 -0.912848 0.408288 
-0.0647302 -0.938032 0.34045 0.442435 0.891611 -0.0963411 0.387116 0.919825 -0.0637475 
0.22304 0.969066 -0.105661 0.0784035 0.991293 -0.105792 -0.0385537 0.991142 -0.127086 
-0.16058 0.979597 -0.120846 -0.295606 0.945973 -0.13324 -0.474041 0.871072 -0.128524 
0.503564 0.860417 -0.0781371 0.442652 0.891614 -0.0953138 0.448281 0.891414 -0.0665232 
0.442741 0.887782 -0.12579 -0.219376 0.676067 -0.703426 -0.510272 0.852939 -0.110082 
-0.426891 0.802931 -0.416012 -0.540324 0.840447 -0.0412158 0.505319 0.859375 -0.0782772 
0.624808 0.777655 -0.0697692 0.503212 0.859583 -0.0888565 0.345964 0.738821 -0.578318 
-0.589802 0.807111 -0.0265622 -0.59273 0.804836 -0.0301624 -0.636761 0.770975 -0.011504 
0.676729 0.732985 -0.0690743 0.793562 0.606792 -0.0454124 0.578752 0.69581 -0.425317 
-0.672879 0.739663 -0.0114743 -0.610808 0.717686 -0.334427 -0.765663 0.642975 0.0185215 
0.831256 0.555077 -0.0300406 0.783074 0.538794 -0.310638 -0.788997 0.614116 0.0185951 
-0.692159 0.635054 -0.342963 0.937005 0.348831 0.0184216 0.98737 0.130059 0.0904685 
-0.898936 0.437943 -0.0109626 -0.947916 0.317587 0.0243444 0.987414 0.129713 0.0904885 
0.987465 0.129882 0.0896808 -0.976733 0.208764 0.0490948 -0.93489 0.246066 -0.255796 
0.978109 -0.0473657 0.20263 0.969814 -0.111613 0.216801 0.998854 -0.0260451 0.0401421 
-0.998788 -0.0248719 0.0424632 -0.869303 0.0565886 -0.491029 0.930517 -0.281354 0.234475 
-0.959316 -0.212408 0.185998 -0.924033 -0.321 0.20766 -0.937956 -0.168927 -0.302825 
0.811449 -0.53121 0.243651 0.734952 -0.644719 0.210199 -0.848993 -0.475942 0.229542 
-0.671356 -0.662799 0.331632 0.688104 -0.699969 0.191196 0.575738 -0.744774 0.337397 
-0.666686 -0.666299 0.334029 -0.414572 -0.826092 0.38171 -0.721889 -0.663714 0.195856 
0.482291 -0.795334 0.367205 0.453483 -0.820692 0.34759 0.309918 -0.886103 0.344633 
0.201444 -0.901953 0.381971 -0.138615 -0.945342 0.29515 -0.204468 -0.923429 0.324766 
-0.173418 -0.90393 0.390942 -0.109156 -0.906732 0.407336 -0.121373 -0.903853 0.410266 
-0.315447 -0.865608 0.388865 -0.278527 -0.878435 0.388296 0.0943168 -0.919537 0.381517 
0.0629625 -0.921566 0.383081 -8.0548e-05 -0.926972 0.375132 -0.0806709 -0.945518 0.315416 
-0.0669714 -0.944142 0.322661 0.265645 0.701267 -0.661557 0.167161 0.686371 -0.70778 
0.0855904 0.742617 -0.664224 -0.0497179 0.75121 -0.658188 -0.171609 0.705227 -0.687899 
0.267553 0.70134 -0.66071 0.345356 0.645422 -0.681292 0.264527 0.699317 -0.664064 
0.154674 0.634068 -0.75765 0.0863471 0.629061 -0.772546 -0.0494244 0.630399 -0.774697 
-0.213025 0.666685 -0.714248 -0.157483 0.626853 -0.763056 -0.216572 0.663394 -0.716243 
-0.298773 0.62489 -0.721282 -0.37313 0.654211 -0.657862 0.395158 0.640196 -0.658786 
0.318932 0.670769 -0.66959 0.317846 0.676439 -0.664383 0.282579 0.572838 -0.769419 
0.228077 0.461453 -0.857346 0.17456 0.44088 -0.880428 0.0843957 0.397028 -0.913918 
-0.162234 0.433586 -0.886388 -0.229543 0.426259 -0.874994 -0.233364 0.486515 -0.841929 
-0.399665 0.642143 -0.654156 -0.348158 0.61723 -0.705559 -0.431269 0.612435 -0.662519 
0.445499 0.600145 -0.664346 0.505053 0.542628 -0.671175 0.369552 0.56563 -0.73722 
0.237263 0.439264 -0.86646 0.201122 0.415238 -0.887202 -0.211966 0.36499 -0.906561 
-0.258958 0.394916 -0.881466 -0.442893 0.602099 -0.664321 -0.376439 0.57226 -0.728568 
-0.495276 0.564945 -0.659954 0.590926 0.450143 -0.669461 0.648961 0.355874 -0.672461 
0.475967 0.425794 -0.769516 0.245312 0.322005 -0.914404 -0.194122 0.338617 -0.920682 
-0.233596 0.362359 -0.902291 -0.550616 0.565901 -0.613659 -0.44373 0.471312 -0.762213 
-0.604004 0.528884 -0.596206 0.673669 0.322237 -0.665082 0.638039 0.326162 -0.697513 
0.365454 0.236763 -0.900215 -0.345585 0.283917 -0.894406 -0.757007 0.353226 -0.549701 
-0.55146 0.354511 -0.755125 0.758882 0.237321 -0.606446 0.611712 0.271666 -0.742971 
0.280253 0.209956 -0.936684 -0.767904 0.23205 -0.597056 -0.547512 0.232348 -0.803894 
0.868572 0.0505085 -0.492982 0.53166 0.129326 -0.837026 -0.835959 0.0655164 -0.544868 
-0.566587 0.119679 -0.815265 0.873156 -0.216151 -0.436895 0.539941 -0.154533 -0.827395 
-0.87732 -0.143584 -0.457923 0.83164 -0.424287 -0.358268 0.731999 -0.587952 -0.344223 
0.664364 -0.420828 -0.617677 0.405776 -0.232549 -0.883893 -0.846965 -0.366627 -0.385012 
-0.635651 -0.292751 -0.714314 0.650908 -0.683071 -0.331261 0.612137 -0.725698 -0.314086 
0.528474 -0.54881 -0.647706 0.28972 -0.428085 -0.856041 -0.440502 -0.875954 -0.196628 
-0.429922 -0.494405 -0.755467 -0.781731 -0.561483 -0.271355 -0.772547 -0.575269 -0.268769 
-0.771021 -0.561936 -0.299591 0.518433 -0.806799 -0.283379 0.438772 -0.855823 -0.273946 
0.393914 -0.769096 -0.503312 0.339466 -0.889059 -0.307144 0.257264 -0.648057 -0.716825 
0.210358 -0.95107 -0.226309 -0.159412 -0.958214 -0.237517 -0.17875 -0.949588 -0.257546 
-0.115187 -0.588496 -0.800253 -0.144498 -0.964628 -0.220486 -0.0685321 -0.700485 -0.710369 
-0.096053 -0.980613 -0.170796 -0.0669826 -0.76508 -0.640442 -0.142836 -0.972278 -0.185128 
-0.141424 -0.848341 -0.510213 -0.347253 -0.916998 -0.19629 -0.270219 -0.939254 -0.211624 
-0.263089 -0.88229 -0.390318 0.181638 -0.955929 -0.230667 0.101396 -0.962994 -0.249724 
0.0973468 -0.931253 -0.35113 -0.0121223 -0.979368 -0.201719 0.00307567 -0.928021 -0.372516 
-0.140291 -0.963812 -0.226683 -0.104631 -0.971789 -0.21137 -0.103107 -0.944789 -0.311034 
-0.0531728 0.425495 -0.903397 0.165152 0.425089 -0.889957 0.14554 0.392331 -0.908237 
0.0696758 0.399777 -0.913961 0.0843004 0.39572 -0.914494 -0.0675247 0.421596 -0.904266 
-0.0532393 0.419844 -0.906034 -0.157257 0.380244 -0.911419 -0.19319 0.312783 -0.92997 
0.2127 0.290571 -0.932913 0.176145 0.414493 -0.892843 0.212701 0.358366 -0.909028 
0.152709 0.418293 -0.895383 0.0978238 0.336696 -0.936518 0.0659844 0.218512 -0.973601 
-0.0155484 0.20394 -0.97886 -0.146797 0.261781 -0.953898 -0.194978 0.318473 -0.927663 
-0.187473 0.297157 -0.936243 -0.186372 0.319791 -0.928977 0.213266 0.288059 -0.933563 
0.222775 0.248277 -0.942725 0.212801 0.286879 -0.934032 0.234378 0.226977 -0.945277 
0.155716 0.253026 -0.954846 -0.031169 0.229156 -0.97289 -0.0537636 0.0251232 -0.998238 
-0.0065073 -0.0108729 -0.99992 -0.0754727 0.10051 -0.992069 -0.136049 0.205813 -0.969088 
-0.192074 0.334894 -0.922472 -0.145265 0.26274 -0.953869 -0.19311 0.336704 -0.921596 
-0.232884 0.311764 -0.921178 0.267205 0.21628 -0.939055 0.220982 0.210937 -0.952193 
0.144751 0.177098 -0.97349 0.176316 0.093907 -0.979844 0.146049 -0.0172234 -0.989127 
-0.129405 -0.0437816 -0.990625 -0.178372 -0.0829588 -0.98046 0.0665738 0.0502199 -0.996517 
0.0683909 0.0141373 -0.997558 -0.0262409 0.165186 -0.985913 -0.0791239 0.239597 -0.967643 
-0.147289 0.274037 -0.950373 -0.280414 0.284726 -0.916678 -0.244877 0.297795 -0.922688 
-0.317634 0.251371 -0.914287 0.27812 0.208987 -0.937536 0.27914 0.208612 -0.937317 
0.169118 0.14548 -0.9748 0.0914835 0.117131 -0.988894 0.0528603 0.0730588 -0.995926 
0.0227743 -0.0352035 -0.999121 -0.0941518 -0.0735729 -0.992836 0.0360201 0.0076491 -0.999322 
0.0871015 0.0332487 -0.995644 0.0419948 0.0309955 -0.998637 0.0934178 0.135766 -0.986327 
-0.0244182 0.205823 -0.978285 -0.123549 0.236488 -0.963748 -0.210685 0.232566 -0.949487 
-0.37627 0.25381 -0.891068 -0.310021 0.249609 -0.917378 0.449978 0.127502 -0.883891 
0.272866 0.12437 -0.953979 0.135686 0.0845286 -0.987139 0.0622334 0.0855741 -0.994386 
0.0240609 0.0695188 -0.99729 0.00396537 0.0637654 -0.997957 -0.100257 0.0834148 -0.991459 
-0.0674694 0.132656 -0.988863 0.0887902 -0.0362186 -0.995392 0.174692 0.0584632 -0.982886 
0.14636 0.0712969 -0.986659 0.0225193 0.111881 -0.993466 -0.109297 0.141261 -0.983921 
-0.227624 0.140936 -0.963496 -0.527483 0.123641 -0.84052 -0.314368 0.123206 -0.941272 
-0.5563 0.0332492 -0.830316 0.519745 -0.153506 -0.840417 0.383433 -0.214762 -0.898252 
0.270138 -0.122587 -0.954986 0.135196 -0.0236311 -0.990537 0.0744516 -0.0122592 -0.997149 
0.0304028 -0.0126659 -0.999457 0.0356783 0.000156409 -0.999363 -0.0252387 0.0400988 -0.998877 
-0.0855108 0.131927 -0.987564 0.0150663 0.0836947 -0.996378 0.150603 0.00927612 -0.988551 
0.148867 -0.0376711 -0.988139 0.0429668 -0.0340592 -0.998496 -0.0921777 -0.0274996 -0.995363 
-0.251026 -0.00249618 -0.967977 -0.33418 0.0181968 -0.942334 -0.557363 -0.00933752 -0.830216 
-0.572138 -0.0817761 -0.81607 -0.549313 -0.0082538 -0.835576 0.389317 -0.224653 -0.893288 
0.281468 -0.408891 -0.868092 0.210272 -0.174677 -0.961911 0.0793954 -0.152412 -0.985123 
0.037836 -0.108256 -0.993403 0.0581761 -0.0915835 -0.994097 0.0336463 -0.0639283 -0.997387 
-0.0258733 -0.0105504 -0.99961 -0.036076 -0.00288953 -0.999345 0.0510754 -0.0739003 -0.995957 
0.104509 -0.176172 -0.978796 0.0323459 -0.205805 -0.978058 -0.0750052 -0.182678 -0.980308 
-0.16698 -0.200929 -0.96527 -0.562586 -0.278783 -0.778317 -0.392609 -0.405096 -0.825685 
-0.359456 -0.218207 -0.907291 0.274598 -0.416197 -0.86682 0.192384 -0.468452 -0.862288 
0.152317 -0.324497 -0.933542 0.0794628 -0.2506 -0.964824 0.0827157 -0.199929 -0.976313 
0.0545736 -0.160121 -0.985588 -0.0246834 -0.190082 -0.981458 -0.0494671 -0.208175 -0.97684 
-0.109086 -0.5633 -0.81902 -0.0292956 -0.253775 -0.966819 -0.0343457 -0.58656 -0.809177 
0.0195352 -0.351754 -0.935889 -0.0429974 -0.637222 -0.76948 0.0257017 -0.383568 -0.923155 
-0.12592 -0.663211 -0.737764 -0.094228 -0.407888 -0.908157 -0.365561 -0.457042 -0.81085 
-0.241732 -0.581389 -0.776887 -0.235459 -0.422882 -0.87506 0.185121 -0.419239 -0.888802 
0.183925 -0.420025 -0.888679 0.183341 -0.411673 -0.892699 0.0983416 -0.503866 -0.858165 
0.114132 -0.441329 -0.890058 0.0485121 -0.568439 -0.821294 0.0489278 -0.458371 -0.887413 
-0.0629923 -0.567722 -0.820807 -0.0601607 -0.454309 -0.88881 -0.113664 -0.566832 -0.815955 
-0.125651 -0.55524 -0.822144 -0.111265 -0.498581 -0.859673 
