# vtk DataFile Version 4.2
vtk output
ASCII
DATASET POLYDATA
POINTS 502 float
-5.41375 -42.5385 -14.8061 2.75133 -42.5385 -16.6567 10.9164 -42.5385 -17.6799 
19.0815 -42.5385 -17.5264 27.2466 -42.5385 -16.6563 -29.909 -34.3734 -14.6065 
-21.7439 -34.3734 -16.4043 -13.5788 -34.3734 -17.216 -5.41375 -34.3734 -17.8967 
2.75133 -34.3734 -18.99 10.9164 -34.3734 -19.5118 19.0815 -34.3734 -19.6855 
27.2466 -34.3734 -19.1293 35.4117 -34.3734 -16.9564 -38.0741 -26.2083 -15.5501 
-29.909 -26.2083 -18.2612 -21.7439 -26.2083 -18.7921 -13.5788 -26.2083 -18.3954 
-5.41375 -26.2083 -18.2626 2.75133 -26.2083 -18.4621 10.9164 -26.2083 -19.3126 
19.0815 -26.2083 -19.831 27.2466 -26.2083 -20.362 35.4117 -26.2083 -18.0155 
-46.2392 -18.0432 -16.1487 -38.0741 -18.0432 -18.3111 -29.909 -18.0432 -19.7843 
-21.7439 -18.0432 -19.6379 -13.5788 -18.0432 -18.5742 -5.41375 -18.0432 -17.1259 
2.75133 -18.0432 -17.2557 10.9164 -18.0432 -18.3705 19.0815 -18.0432 -19.4795 
27.2466 -18.0432 -19.758 35.4117 -18.0432 -18.1301 -54.4043 -9.87813 -14.906 
-46.2392 -9.87813 -18.1019 -38.0741 -9.87813 -18.9861 -29.909 -9.87813 -19.0298 
-21.7439 -9.87813 -18.6212 -13.5788 -9.87813 -18.488 -5.41375 -9.87813 -19.0868 
2.75133 -9.87813 -19.3404 10.9164 -9.87813 -18.6592 19.0815 -9.87813 -18.8665 
27.2466 -9.87813 -19.7603 35.4117 -9.87813 -19.0832 43.5768 -9.87813 -16.5518 
-54.4043 -1.71304 -15.8204 -46.2392 -1.71304 -18.7749 -38.0741 -1.71304 -19.1973 
-29.909 -1.71304 -18.6523 -21.7439 -1.71304 -17.5888 -13.5788 -1.71304 -18.0538 
-5.41375 -1.71304 -18.5703 2.75133 -1.71304 -17.8647 10.9164 -1.71304 -20.0611 
19.0815 -1.71304 -18.2051 27.2466 -1.71304 -19.1546 35.4117 -1.71304 -19.8661 
43.5768 -1.71304 -19.1724 51.7418 -1.71304 -16.0463 -54.4043 6.45204 -15.3306 
-46.2392 6.45204 -18 -38.0741 6.45204 -18.5544 -29.909 6.45204 -17.9646 
-21.7439 6.45204 -16.7226 -13.5788 6.45204 -17.3369 -5.41375 6.45204 -19.1864 
2.75133 6.45204 -19.7005 10.9164 6.45204 -21.5503 19.0815 6.45204 -18.0672 
27.2466 6.45204 -19.4653 35.4117 6.45204 -20.0455 43.5768 6.45204 -19.7409 
51.7418 6.45204 -18.0661 -46.2392 14.6171 -16.2516 -38.0741 14.6171 -16.9008 
-29.909 14.6171 -16.7088 -21.7439 14.6171 -15.8841 -13.5788 14.6171 -15.7953 
-5.41375 14.6171 -18.1536 2.75133 14.6171 -18.0957 10.9164 14.6171 -19.319 
19.0815 14.6171 -18.6944 27.2466 14.6171 -19.2334 35.4117 14.6171 -19.9371 
43.5768 14.6171 -20.2058 51.7418 14.6171 -17.9992 -29.909 22.7822 -13.8508 
-21.7439 22.7822 -14.0182 -13.5788 22.7822 -15.3105 -5.41375 22.7822 -16.6136 
2.75133 22.7822 -16.4483 10.9164 22.7822 -17.7452 19.0815 22.7822 -18.5756 
27.2466 22.7822 -19.0303 35.4117 22.7822 -18.543 43.5768 22.7822 -17.6654 
51.7418 22.7822 -14.7316 -13.5788 30.9473 -13.9275 -5.41375 30.9473 -16.0014 
2.75133 30.9473 -16.1364 10.9164 30.9473 -16.6553 19.0815 30.9473 -17.1589 
27.2466 30.9473 -17.0283 35.4117 30.9473 -16.6965 19.0815 39.1124 -14.0364 
-5.41375 -43.8024 -13.6218 2.75133 -46.1197 -13.6218 10.9164 -47.3231 -13.6218 
10.9164 -50.7036 -6.49791 19.0815 -47.2862 -13.6218 27.2466 -46.3273 -13.6218 
-29.909 -35.3843 -13.6218 -21.7439 -38.293 -13.6218 -11.5583 -42.5385 -13.6218 
-13.5788 -41.8664 -13.6218 -13.5788 -42.5385 -12.7329 33.0735 -42.5385 -13.6218 
35.4117 -40.3426 -13.6218 35.4117 -42.5385 -10.4661 -31.4915 -34.3734 -13.6218 
-38.0741 -28.8696 -13.6218 38.9014 -34.3734 -13.6218 -41.4031 -26.2083 -13.6218 
-46.2392 -22.271 -13.6218 -46.2392 -26.2083 -7.72094 40.7443 -26.2083 -13.6218 
43.5768 -26.2083 -8.14191 -50.27 -18.0432 -13.6218 -54.4043 -12.0058 -13.6218 
-54.4043 -18.0432 -8.34096 42.4647 -18.0432 -13.6218 43.5768 -16.1324 -13.6218 
43.5768 -18.0432 -11.7245 -55.9253 -9.87813 -13.6218 47.4285 -9.87813 -13.6218 
51.7418 -5.41528 -13.6218 -58.1499 -1.71304 -13.6218 -62.5693 -1.71304 -7.70173 
54.7609 -1.71304 -13.6218 -56.6267 6.45204 -13.6218 -54.4043 10.275 -13.6218 
58.7996 6.45204 -13.6218 59.9069 6.45204 -11.4085 -51.6313 14.6171 -13.6218 
-54.4043 14.6171 -11.317 -46.2392 19.3747 -13.6218 -38.0741 22.4575 -13.6218 
58.1706 14.6171 -13.6218 59.9069 14.6171 -10.687 -46.2392 22.7822 -10.7259 
-34.8391 22.7822 -13.6218 -38.0741 22.7822 -13.4636 -29.909 23.305 -13.6218 
-21.7439 23.9526 -13.6218 43.5768 30.2743 -13.6218 53.2138 22.7822 -13.6218 
51.7418 24.3315 -13.6218 -38.0741 30.9473 -6.79884 -29.909 30.9473 -9.47708 
-14.519 30.9473 -13.6218 -21.7439 30.9473 -10.9706 -13.5788 31.9168 -13.6218 
-5.41375 36.615 -13.6218 2.75133 37.3307 -13.6218 10.9164 38.2944 -13.6218 
27.2466 38.0424 -13.6218 42.8139 30.9473 -13.6218 35.4117 35.3121 -13.6218 
43.5768 30.9473 -13.0723 -13.5788 39.1124 -10.1442 -5.41375 39.1124 -12.3568 
2.75133 39.1124 -12.7826 14.7189 39.1124 -13.6218 10.9164 39.1124 -13.1641 
22.4842 39.1124 -13.6218 19.0815 39.5828 -13.6218 27.2466 39.1124 -12.7181 
35.4117 39.1124 -8.45579 10.9164 -51.0431 -5.45671 -13.5788 -45.1253 -5.45671 
-5.41375 -47.5544 -5.45671 8.28808 -50.7036 -5.45671 2.75133 -49.8989 -5.45671 
16.3821 -50.7036 -5.45671 10.9164 -50.7036 -4.66811 19.0815 -50.5373 -5.45671 
27.2466 -49.52 -5.45671 35.4117 -44.9025 -5.45671 -29.909 -38.1838 -5.45671 
-20.5019 -42.5385 -5.45671 -21.7439 -42.0533 -5.45671 -13.5788 -42.5385 2.38841 
37.6701 -42.5385 -5.45671 35.4117 -42.5385 0.323984 -46.2392 -27.3503 -5.45671 
-36.3232 -34.3734 -5.45671 -38.0741 -33.2577 -5.45671 41.9901 -34.3734 -5.45671 
43.5768 -29.1729 -5.45671 -47.4963 -26.2083 -5.45671 -54.4043 -19.8555 -5.45671 
-46.2392 -26.2083 -1.76601 44.4192 -26.2083 -5.45671 43.5768 -26.2083 -1.39356 
-56.1399 -18.0432 -5.45671 46.1961 -18.0432 -5.45671 -61.5625 -9.87813 -5.45671 
-62.5693 -6.12723 -5.45671 51.5527 -9.87813 -5.45671 51.7418 -9.66572 -5.45671 
-63.5711 -1.71304 -5.45671 -62.5693 4.78845 -5.45671 -62.5693 -1.71304 0.948685 
57.9285 -1.71304 -5.45671 59.9069 2.51785 -5.45671 -62.2956 6.45204 -5.45671 
61.9052 6.45204 -5.45671 -58.8646 14.6171 -5.45671 -54.4043 21.6117 -5.45671 
62.2119 14.6171 -5.45671 59.9069 20.1728 -5.45671 59.9069 14.6171 1.054 
-53.2304 22.7822 -5.45671 -46.2392 28.4092 -5.45671 58.6156 22.7822 -5.45671 
51.7418 30.5398 -5.45671 -40.8026 30.9473 -5.45671 -38.0741 32.0171 -5.45671 
-29.909 34.9195 -5.45671 -21.7439 38.4241 -5.45671 51.2328 30.9473 -5.45671 
43.5768 36.4422 -5.45671 -20.6971 39.1124 -5.45671 -21.7439 39.1124 -3.86683 
-13.5788 42.4622 -5.45671 -5.41375 44.9081 -5.45671 2.75133 45.3044 -5.45671 
10.9164 44.8308 -5.45671 19.0815 44.5863 -5.45671 27.2466 43.4515 -5.45671 
38.8522 39.1124 -5.45671 35.4117 40.9312 -5.45671 -5.41375 -44.7495 2.70837 
2.75133 -46.1697 2.70837 10.9164 -47.231 2.70837 19.0815 -47.1795 2.70837 
27.2466 -45.8852 2.70837 -29.909 -34.9003 2.70837 -21.7439 -39.0381 2.70837 
-13.1876 -42.5385 2.70837 -13.5788 -42.4186 2.70837 -5.41375 -42.5385 6.29186 
2.75133 -42.5385 7.38214 10.9164 -42.5385 7.89285 19.0815 -42.5385 7.9496 
33.6463 -42.5385 2.70837 27.2466 -42.5385 6.30307 35.4117 -41.2392 2.70837 
-30.7876 -34.3734 2.70837 -38.0741 -29.8163 2.70837 -29.909 -34.3734 3.58479 
-21.7439 -34.3734 9.89236 39.791 -34.3734 2.70837 35.4117 -34.3734 8.56055 
-54.4043 -18.3676 2.70837 -44.016 -26.2083 2.70837 -46.2392 -24.7708 2.70837 
-38.0741 -26.2083 8.58616 42.5173 -26.2083 2.70837 43.5768 -20.8176 2.70837 
-54.7201 -18.0432 2.70837 -54.4043 -18.0432 3.20956 44.1045 -18.0432 2.70837 
43.5768 -18.0432 4.04333 -60.2939 -9.87813 2.70837 48.9347 -9.87813 2.70837 
43.5768 -9.87813 10.6677 51.7418 -6.55996 2.70837 -62.2547 -1.71304 2.70837 
55.485 -1.71304 2.70837 51.7418 -1.71304 7.49292 59.9069 6.00178 2.70837 
-61.246 6.45204 2.70837 51.7418 6.45204 9.98813 60.1472 6.45204 2.70837 
59.9069 8.67914 2.70837 59.9069 6.45204 3.01545 -58.2038 14.6171 2.70837 
-54.4043 21.8285 2.70837 -54.4043 14.6171 9.7142 59.1152 14.6171 2.70837 
51.7418 14.6171 10.7555 -53.7746 22.7822 2.70837 -46.2392 30.22 2.70837 
55.7769 22.7822 2.70837 51.7418 27.7061 2.70837 51.7418 22.7822 6.96213 
-45.2375 30.9473 2.70837 -38.0741 35.2266 2.70837 -29.909 38.3414 2.70837 
48.344 30.9473 2.70837 43.5768 34.791 2.70837 43.5768 30.9473 7.26077 
-27.6091 39.1124 2.70837 -21.7439 41.0236 2.70837 -13.5788 43.6362 2.70837 
-5.41375 44.8613 2.70837 2.75133 44.7002 2.70837 10.9164 44.3798 2.70837 
19.0815 43.7918 2.70837 19.0815 39.1124 10.563 27.2466 42.5342 2.70837 
27.2466 39.1124 8.22734 36.4158 39.1124 2.70837 35.4117 39.6456 2.70837 
35.4117 39.1124 3.57894 -13.5788 -37.571 10.8735 -5.41375 -39.0594 10.8735 
2.75133 -38.9097 10.8735 10.9164 -38.0778 10.8735 19.0815 -37.7572 10.8735 
27.2466 -36.7771 10.8735 -29.909 -28.8755 10.8735 -20.3345 -34.3734 10.8735 
-21.7439 -33.6232 10.8735 -13.5788 -34.3734 14.3118 -5.41375 -34.3734 15.5898 
2.75133 -34.3734 14.2995 10.9164 -34.3734 13.1235 19.0815 -34.3734 12.7572 
31.1607 -34.3734 10.8735 27.2466 -34.3734 12.497 35.4117 -29.8866 10.8735 
-46.2392 -19.2553 10.8735 -34.9081 -26.2083 10.8735 -38.0741 -24.4332 10.8735 
-29.909 -26.2083 13.4153 -21.7439 -26.2083 17.5893 2.75133 -26.2083 18.6939 
10.9164 -26.2083 17.0214 19.0815 -26.2083 16.7015 27.2466 -26.2083 16.1374 
37.2443 -26.2083 10.8735 35.4117 -26.2083 12.6069 -47.7339 -18.0432 10.8735 
-54.4043 -11.2304 10.8735 -46.2392 -18.0432 12.0147 -38.0741 -18.0432 16.171 
40.2232 -18.0432 10.8735 35.4117 -18.0432 15.988 -55.3118 -9.87813 10.8735 
-54.4043 -9.87813 11.7759 -46.2392 -9.87813 16.6639 43.4209 -9.87813 10.8735 
35.4117 -9.87813 17.7911 43.5768 -9.54838 10.8735 -56.5336 -1.71304 10.8735 
-54.4043 -1.71304 13.0204 -46.2392 -1.71304 18.3492 35.4117 -1.71304 18.0007 
47.9195 -1.71304 10.8735 43.5768 -1.71304 13.8386 -55.4 6.45204 10.8735 
-54.4043 11.1565 10.8735 -54.4043 6.45204 11.9164 -46.2392 6.45204 18.1668 
35.4117 6.45204 17.5922 50.4957 6.45204 10.8735 43.5768 6.45204 14.9395 
-53.5296 14.6171 10.8735 -46.2392 14.6171 16.7382 35.4117 14.6171 16.9925 
51.5462 14.6171 10.8735 43.5768 14.6171 14.2272 -48.6947 22.7822 10.8735 
-46.2392 25.9403 10.8735 -46.2392 22.7822 13.5858 27.2466 22.7822 18.5255 
35.4117 22.7822 15.6714 45.6614 22.7822 10.8735 43.5768 25.238 10.8735 
[...]
POINT_DATA 502
SCALARS ImageScalars float
LOOKUP_TABLE default
0 0 0 0 0 0 0 0 0 
0 0 0 0 0 0 0 0 0 
0 0 0 0 0 0 0 0 0 
0 0 0 0 0 0 0 0 0 
0 0 0 0 0 0 0 0 0 
0 0 0 0 0 0 0 0 0 
0 0 0 0 0 0 0 0 0 
0 0 0 0 0 0 0 0 0 
0 0 0 0 0 0 0 0 0 
0 0 0 0 0 0 0 0 0 
0 0 0 0 0 0 0 0 0 
0 0 0 0 0 0 0 0 0 
0 0 0 0 0 0 0 0 0 
0 0 0 0 0 0 0 0 0 
0 0 0 0 0 0 0 0 0 
0 0 0 0 0 0 0 0 0 
0 0 0 0 0 0 0 0 0 
0 0 0 0 0 0 0 0 0 
0 0 0 0 0 0 0 0 0 
0 0 0 0 0 0 0 0 0 
0 0 0 0 0 0 0 0 0 
0 0 0 0 0 0 0 0 0 
0 0 0 0 0 0 0 0 0 
0 0 0 0 0 0 0 0 0 
0 0 0 0 0 0 0 0 0 
0 0 0 0 0 0 0 0 0 
0 0 0 0 0 0 0 0 0 
0 0 0 0 0 0 0 0 0 
0 0 0 0 0 0 0 0 0 
0 0 0 0 0 0 0 0 0 
0 0 0 0 0 0 0 0 0 
0 0 0 0 0 0 0 0 0 
0 0 0 0 0 0 0 0 0 
0 0 0 0 0 0 0 0 0 
0 0 0 0 0 0 0 0 0 
0 0 0 0 0 0 0 0 0 
0 0 0 0 0 0 0 0 0 
0 0 0 0 0 0 0 0 0 
0 0 0 0 0 0 0 0 0 
0 0 0 0 0 0 0 0 0 
0 0 0 0 0 0 0 0 0 
0 0 0 0 0 0 0 0 0 
0 0 0 0 0 0 0 0 0 
0 0 0 0 0 0 0 0 0 
0 0 0 0 0 0 0 0 0 
0 0 0 0 0 0 0 0 0 
0 0 0 0 0 0 0 0 0 
0 0 0 0 0 0 0 0 0 
0 0 0 0 0 0 0 0 0 
0 0 0 0 0 0 0 0 0 
0 0 0 0 0 0 0 0 0 
0 0 0 0 0 0 0 0 0 
0 0 0 0 0 0 0 0 0 
0 0 0 0 0 0 0 0 0 
0 0 0 0 0 0 0 0 0 
0 0 0 0 0 0 0 
NORMALS Normals float
0.197101 0.622488 0.757404 0.153756 0.513563 0.844164 0.0463042 0.466856 0.88312 
-0.0684141 0.458455 0.886081 -0.231898 0.508211 0.829424 0.377828 0.669806 0.639223 
0.146244 0.484892 0.86226 0.0903343 0.289963 0.952765 0.10574 0.174424 0.978977 
0.0984836 0.088342 0.99121 0.0419227 0.0794004 0.995961 -0.0270547 0.119909 0.992416 
-0.153021 0.208944 0.965882 -0.536709 0.243705 0.807806 0.415456 0.49843 0.760897 
0.178188 0.279124 0.943578 0.00866736 0.179401 0.983738 -0.0340363 0.0786268 0.996323 
0.00324987 -0.0492386 0.998782 0.0662389 -0.107807 0.991963 0.0804511 -0.0658355 0.994582 
0.0626472 -0.0128809 0.997953 -0.0845596 0.0458837 0.995361 -0.47182 0.0725163 0.878708 
0.411911 0.350881 0.840959 0.212472 0.176908 0.96102 0.0842891 0.0481637 0.995277 
-0.0742398 -0.00486958 0.997229 -0.15374 0.00561125 0.988095 -0.0805697 0.0383247 0.996012 
0.0712056 0.0403957 0.996643 0.139753 -0.0419412 0.989298 0.0798121 -0.0588551 0.995071 
-0.0813845 -0.0353357 0.996056 -0.361241 0.0646285 0.93023 0.537574 0.299096 0.788388 
0.203428 0.166707 0.964793 0.0510244 0.0570217 0.997068 -0.02139 -0.0669283 0.997528 
-0.0335556 -0.126313 0.991423 0.0253642 -0.029088 0.999255 0.0537562 0.100956 0.993438 
-0.0281885 0.064095 0.997546 -0.0238405 0.0978782 0.994913 0.0670398 -0.0775303 0.994734 
0.0147725 -0.0369642 0.999207 -0.167484 0.108665 0.979868 -0.468908 0.37211 0.801036 
0.440073 0.0176578 0.897788 0.217651 -0.00793635 0.975994 -0.00960742 -0.0266831 0.999598 
-0.0973236 -0.0643313 0.993172 -0.0406432 -0.115478 0.992478 0.0597991 -0.0682015 0.995878 
-0.00625055 0.00750013 0.999952 0.104475 0.0130838 0.994441 -0.00802833 0.159914 0.987098 
-0.0449527 -0.0494349 0.997765 0.102348 -0.0197329 0.994553 0.000421545 0.0570613 0.998371 
-0.214382 0.162809 0.963085 -0.534697 0.386287 0.751586 0.483858 -0.213393 0.848731 
0.160908 -0.164002 0.973248 -0.00452167 -0.140904 0.990013 -0.111039 -0.115833 0.987043 
-0.0443942 -0.103545 0.993634 0.156954 -0.142241 0.977309 0.131119 -0.029256 0.990935 
0.134981 0.00101818 0.990848 -0.14268 -0.0491724 0.988547 -0.0815859 0.0307444 0.996192 
0.124638 0.00493681 0.99219 0.0144603 0.00450169 0.999885 -0.108857 0.0603758 0.992222 
-0.358959 0.11632 0.926077 0.244042 -0.337027 0.909317 0.0296093 -0.286537 0.957611 
-0.0626551 -0.238869 0.969028 -0.0548864 -0.163877 0.984953 0.132886 -0.111608 0.984827 
0.139517 -0.157588 0.9776 0.0721606 -0.19503 0.978139 0.0287038 -0.211773 0.976897 
-0.00202035 0.031044 0.999516 0.0749922 -0.025509 0.996858 0.0587091 -0.100741 0.993179 
-0.131648 -0.112414 0.984902 -0.370306 -0.132764 0.919373 0.0305008 -0.364242 0.930805 
0.0853793 -0.271081 0.958763 0.159529 -0.113571 0.980639 0.0667304 -0.119753 0.990559 
0.0695927 -0.105967 0.991931 0.127623 -0.149268 0.980526 0.0788986 -0.0897035 0.992839 
-0.00477802 -0.135508 0.990765 -0.0760976 -0.194843 0.977878 -0.1851 -0.332752 0.92467 
-0.457427 -0.498362 0.736475 0.275959 -0.234159 0.93221 0.131143 -0.218829 0.96691 
0.038332 -0.187923 0.981435 0.060923 -0.245341 0.967521 0.0213946 -0.258054 0.965894 
-0.0285497 -0.332853 0.942546 -0.16455 -0.414442 0.895076 -0.0136704 -0.606134 0.795245 
0.212617 0.694786 0.687071 0.176547 0.716332 0.675055 0.0556326 0.741002 0.669194 
0.0383057 0.998977 0.0240266 -0.056156 0.77811 0.625612 -0.268374 0.732905 0.625161 
0.393625 0.70943 0.584609 0.262676 0.677781 0.686742 0.238146 0.708291 0.664538 
0.239311 0.69614 0.676845 0.262757 0.76646 0.586087 -0.528004 0.61802 0.582463 
-0.632358 0.524716 0.569909 -0.672677 0.667235 0.319848 0.414704 0.694239 0.588262 
0.479066 0.592785 0.647381 -0.753044 0.283715 0.593659 0.496473 0.580633 0.645276 
0.515424 0.525729 0.676718 0.634524 0.745819 0.202812 -0.730043 0.18816 0.656987 
-0.945769 0.239832 0.219094 0.561338 0.436242 0.703272 0.583708 0.375425 0.71996 
0.721779 0.609975 0.327057 -0.724253 0.25505 0.64063 -0.713133 0.312066 0.627738 
-0.820927 0.299159 0.486398 0.598866 0.330918 0.729282 -0.604166 0.510394 0.611949 
-0.62832 0.494632 0.60046 0.612263 0.0299357 0.790088 0.953337 0.0394357 0.29932 
-0.671477 0.444219 0.593117 0.585924 -0.241077 0.773676 0.543248 -0.297989 0.78491 
-0.759333 0.177997 0.625884 -0.873046 0.210709 0.439764 0.479075 -0.359089 0.800963 
0.655135 -0.40925 0.635069 0.272049 -0.484897 0.831183 0.12797 -0.447528 0.885066 
-0.730437 -0.182218 0.658223 -0.901395 -0.178169 0.394642 0.35272 -0.633158 0.688985 
0.0924005 -0.418779 0.903375 0.135715 -0.456798 0.879157 0.0365153 -0.374983 0.926312 
0.104035 -0.289157 0.951612 -0.420184 -0.564132 0.710774 -0.516717 -0.517948 0.681713 
-0.477511 -0.560709 0.676453 0.282012 -0.781983 0.555852 0.186581 -0.634354 0.750189 
0.269201 -0.252662 0.929351 0.239853 -0.447324 0.86161 0.281089 -0.271229 0.920556 
0.108461 -0.452757 0.885013 0.0426295 -0.466 0.883757 0.0675655 -0.543032 0.836989 
-0.178832 -0.590546 0.78694 -0.412264 -0.572929 0.708372 -0.260197 -0.63268 0.729392 
-0.445161 -0.602257 0.66266 0.348308 -0.659106 0.666529 0.113672 -0.595829 0.795026 
0.0395284 -0.570164 0.820579 0.0304135 -0.59226 0.805173 0.0624824 -0.593982 0.802048 
-0.0932361 -0.620017 0.779028 -0.0132726 -0.628785 0.777466 -0.211184 -0.666034 0.715402 
-0.367867 -0.8576 0.359438 0.0363824 0.997895 -0.0536763 0.309563 0.950869 0.00445476 
0.277461 0.960665 0.0117727 0.0896844 0.994628 -0.0516828 0.205539 0.97794 -0.0372472 
-0.048936 0.99732 -0.0543929 0.0360114 0.994014 -0.103148 -0.0896341 0.994618 -0.0519707 
-0.3001 0.953223 -0.0361371 -0.663186 0.748225 0.018541 0.482786 0.875084 -0.0338416 
0.372591 0.927992 -0.00250204 0.386442 0.922314 -0.000304723 0.298399 0.878325 -0.373502 
-0.752244 0.658843 0.00740761 -0.657373 0.667449 -0.34982 0.643157 0.763087 0.0636264 
0.53599 0.843951 -0.0214902 0.547419 0.836826 -0.00737955 -0.937732 0.344406 0.0452111 
-0.962084 0.267934 0.0510453 0.64842 0.758203 0.0684036 0.719005 0.681036 0.13864 
0.61763 0.776952 -0.121981 -0.969881 0.238218 0.0508163 -0.959774 0.244538 -0.137968 
0.74546 0.648337 0.154754 -0.916078 0.39704 0.0562117 0.909189 0.391249 0.142475 
0.962928 0.231358 0.138718 -0.776792 0.629222 0.0259682 -0.776709 0.629366 0.0249391 
0.988437 0.0376339 0.146891 0.972715 -0.190803 0.131985 0.969827 0.0411691 -0.240292 
-0.859715 0.510676 0.00997741 -0.921374 0.387926 0.0241461 0.959514 -0.247752 0.133981 
-0.962958 0.267251 0.035913 0.841179 -0.493705 0.220619 0.714285 -0.656678 0.242014 
-0.985023 -0.16487 0.0504827 -0.914998 -0.402958 0.0200953 -0.867992 -0.222629 -0.443876 
0.678236 -0.684812 0.266511 0.498647 -0.776416 0.385395 -0.84218 -0.538284 0.0313449 
-0.639671 -0.765393 0.0706681 0.368457 -0.810684 0.455005 0.309448 -0.811473 0.495736 
0.282791 -0.781728 0.555815 0.384082 -0.768615 0.511578 -0.630196 -0.77281 0.0749516 
-0.524152 -0.841472 0.13111 0.389996 -0.78491 0.481475 0.381442 -0.82969 0.407575 
0.367311 -0.848788 0.380317 0.1658 -0.937289 0.306595 -0.00509838 -0.963902 0.266207 
-0.04475 -0.968121 0.246454 -0.0857828 -0.975056 0.20471 -0.21472 -0.96133 0.172453 
-0.450168 -0.878717 0.158764 -0.396107 -0.89984 0.182719 0.204316 0.879987 -0.42881 
0.142198 0.838861 -0.525444 0.0526534 0.82001 -0.569922 -0.0703778 0.81568 -0.574207 
-0.259874 0.78786 -0.558339 0.452126 0.785783 -0.422052 0.397164 0.814056 -0.423761 
0.292282 0.873178 -0.39004 0.297244 0.872125 -0.388643 0.152255 0.840957 -0.519239 
0.0649337 0.764647 -0.64117 0.0233048 0.671372 -0.740754 -0.0750284 0.661314 -0.746347 
-0.548055 0.652102 -0.523832 -0.26804 0.654788 -0.706687 -0.628398 0.596549 -0.499245 
0.458552 0.781646 -0.422799 0.473253 0.77642 -0.416178 0.452177 0.777038 -0.43789 
0.379156 0.727219 -0.572182 -0.804605 0.399729 -0.439121 -0.586093 0.433534 -0.684502 
0.677433 0.666564 -0.311089 0.525771 0.764414 -0.373143 0.551859 0.751421 -0.361688 
0.424708 0.727597 -0.538726 -0.900302 0.248358 -0.357456 -0.905096 0.291959 -0.309129 
0.682515 0.661717 -0.310328 0.673769 0.660032 -0.332254 -0.900532 0.319774 -0.294595 
-0.893727 0.309201 -0.325034 0.868387 0.37671 -0.32248 -0.728083 0.571467 -0.378579 
-0.723916 0.3158 -0.613365 -0.705656 0.574975 -0.414069 0.93832 0.0434675 -0.343026 
-0.752826 0.48324 -0.446914 -0.674036 0.393728 -0.625023 -0.854838 0.220631 -0.469654 
0.923669 -0.210838 -0.319974 -0.594336 0.133029 -0.793138 -0.859175 0.204912 -0.46886 
-0.857549 0.0912473 -0.506244 -0.850973 0.203516 -0.484176 0.868414 -0.423758 -0.25746 
0.78841 -0.574115 -0.220913 0.753674 -0.331589 -0.567472 -0.787702 -0.224486 -0.5737 
-0.572869 -0.132651 -0.808842 0.776289 -0.594926 -0.208419 0.623131 -0.778266 -0.0775259 
-0.737798 -0.482359 -0.472212 -0.655616 -0.607755 -0.448108 -0.573193 -0.440111 -0.691196 
0.596136 -0.800935 -0.0559058 0.438176 -0.896585 0.0643252 0.324846 -0.939305 0.110371 
-0.600021 -0.690739 -0.403551 -0.540415 -0.750058 -0.381267 -0.514489 -0.603603 -0.609068 
0.320175 -0.942788 0.0929425 0.309922 -0.949108 0.0560595 0.225 -0.972619 -0.0581947 
0.0640712 -0.985645 -0.156199 -0.0295852 -0.973222 -0.227955 -0.0545248 -0.96831 -0.243727 
-0.108141 -0.95197 -0.286458 -0.136986 -0.764324 -0.630114 -0.230852 -0.920374 -0.315625 
-0.241893 -0.800653 -0.548127 -0.425496 -0.83748 -0.3429 -0.409389 -0.845987 -0.341622 
-0.409319 -0.829861 -0.379195 0.245922 0.764087 -0.596401 0.0657265 0.749997 -0.658167 
-0.0351239 0.653652 -0.75598 -0.0409913 0.548324 -0.835261 -0.0472888 0.525566 -0.849438 
-0.203906 0.520795 -0.828972 0.398186 0.683655 -0.611607 0.355886 0.719937 -0.595849 
0.377569 0.707618 -0.59726 0.228387 0.670665 -0.705725 -0.00941892 0.624809 -0.780721 
-0.124644 0.545222 -0.828973 -0.0787705 0.476938 -0.8754 -0.0346481 0.456109 -0.889249 
-0.367835 0.474435 -0.799755 -0.19408 0.501652 -0.843017 -0.571115 0.376751 -0.729305 
0.48112 0.613766 -0.625952 0.399466 0.688548 -0.605251 0.40627 0.678669 -0.611843 
0.374261 0.630191 -0.680285 0.29975 0.475285 -0.827197 -0.168136 0.387626 -0.906353 
-0.108808 0.393687 -0.912782 -0.0495604 0.429701 -0.90161 -0.193726 0.420826 -0.886214 
-0.646482 0.331729 -0.687034 -0.56995 0.346492 -0.745051 0.500469 0.591546 -0.632142 
0.646388 0.368886 -0.667911 0.479334 0.580637 -0.658102 0.356303 0.505382 -0.785899 
-0.785172 0.27939 -0.552671 -0.603372 0.263209 -0.75277 0.676043 0.319134 -0.664168 
0.642043 0.324871 -0.694435 0.434517 0.305087 -0.847418 -0.720758 0.309549 -0.620232 
-0.537726 0.0886389 -0.838447 -0.715979 0.309985 -0.625526 0.717543 0.0111765 -0.696424 
0.664813 0.0163985 -0.74683 0.430308 0.0761534 -0.899464 -0.37214 -0.0134089 -0.92808 
-0.600776 0.290563 -0.744743 -0.532111 0.2032 -0.821929 0.701463 -0.131651 -0.700441 
0.71736 -0.230889 -0.657331 0.683347 -0.126277 -0.719091 0.49712 -0.0778343 -0.864183 
-0.286834 -0.0597959 -0.956112 -0.558928 0.117457 -0.820855 -0.397792 0.0156087 -0.917343 
0.719816 -0.305051 -0.623545 0.56666 -0.203907 -0.798322 -0.30183 -0.103896 -0.947684 
-0.566825 -0.133301 -0.812983 -0.369048 -0.152771 -0.916769 0.703024 -0.462618 -0.540131 
0.67966 -0.53632 -0.500422 0.673356 -0.422762 -0.606518 -0.293015 -0.208493 -0.933099 
-0.347647 -0.253731 -0.902642 -0.441061 -0.357537 -0.823184 -0.447378 -0.397811 -0.800999 
-0.433826 -0.331114 -0.837949 0.587782 -0.695792 -0.412779 0.510507 -0.774001 -0.374574 
0.517178 -0.661492 -0.543098 0.328637 -0.887979 -0.321699 -0.105552 -0.455389 -0.884013 
-0.137866 -0.751127 -0.645601 -0.140047 -0.484138 -0.863711 -0.244694 -0.68442 -0.6868 
-0.264244 -0.456972 -0.849324 -0.414332 -0.508435 -0.754866 -0.384957 -0.548976 -0.741912 
-0.383827 -0.48817 -0.783816 0.243424 -0.911417 -0.331757 0.216191 -0.915452 -0.339423 
0.211343 -0.897355 -0.387412 0.129371 -0.896042 -0.424702 0.0954525 -0.808213 -0.581103 
-0.0189814 -0.865698 -0.500207 -0.0532926 -0.758643 -0.649323 -0.10724 -0.823385 -0.557258 
-0.122438 -0.757013 -0.641826 -0.131683 -0.757306 -0.639646 -0.109494 -0.773109 -0.62475 
-0.11183 -0.746648 -0.655752 0.13455 0.378909 -0.9156 -0.0504737 0.382296 -0.92266 
0.22008 0.394462 -0.892168 0.178734 0.378808 -0.908052 0.213534 0.353336 -0.9108 
0.121316 0.335079 -0.934347 -0.139295 0.367951 -0.919352 -0.0531067 0.310167 -0.949198 
-0.158643 0.375731 -0.913049 -0.0837967 0.360238 -0.929089 -0.0268825 0.381051 -0.924163 
-0.197555 0.344002 -0.917951 0.221997 0.393616 -0.892067 0.291559 0.332224 -0.897006 
0.215931 0.388937 -0.895601 0.120436 0.224475 -0.967009 0.0709784 0.120215 -0.990207 
0.022671 0.156408 -0.987432 -0.0778245 0.288733 -0.954241 -0.0644869 0.335635 -0.939782 
-0.0150868 0.344306 -0.938736 -0.307489 0.301487 -0.902528 -0.203681 0.312255 -0.927907 
0.315417 0.287225 -0.904441 0.27241 0.281835 -0.919979 0.10113 0.205531 -0.973411 
0.00816005 0.139182 -0.990233 0.0555381 0.0725465 -0.995818 0.125275 0.118501 -0.98502 
-0.00159201 0.125421 -0.992102 -0.0634176 0.125717 -0.990037 -0.0596547 0.0730613 -0.995542 
-0.449492 0.0590347 -0.891331 -0.261339 0.0245103 -0.964936 0.390247 0.0861923 -0.916667 
0.247516 0.1152 -0.962011 0.0818368 0.143706 -0.986231 -0.0202125 0.147442 -0.988864 
0.0461661 0.123396 -0.991283 0.0801986 0.0627644 -0.994801 -0.0657024 0.017761 -0.997681 
-0.109375 0.031533 -0.9935 -0.121388 -0.0577057 -0.990926 -0.309422 -0.060935 -0.94897 
-0.222168 -0.118885 -0.967733 0.455425 -0.0606296 -0.888207 0.315657 0.00335548 -0.948867 
0.133435 0.0852225 -0.987387 -0.0130819 0.109849 -0.993862 -0.0233788 0.0832979 -0.99625 
0.0165911 -0.0616664 -0.997959 -0.0295669 -0.0675346 -0.997279 -0.137049 0.0231834 -0.990293 
-0.213989 -0.00178525 -0.976834 -0.254311 -0.0678691 -0.964738 -0.238915 -0.0668807 -0.968735 
0.485298 -0.15602 -0.860316 0.395475 -0.109029 -0.911983 0.181741 -0.0514017 -0.982002 
-0.0205139 -0.0253451 -0.999468 -0.129745 -0.0406065 -0.990716 -0.0711112 -0.102101 -0.992229 
0.018399 -0.155572 -0.987653 -0.0441265 -0.117376 -0.992107 -0.200036 -0.0536122 -0.978321 
-0.297302 -0.0699207 -0.95222 -0.295153 -0.12277 -0.94753 -0.296084 -0.0644028 -0.952988 
0.484075 -0.324311 -0.812708 0.4587 -0.371428 -0.80724 0.44288 -0.313513 -0.83998 
0.203855 -0.251752 -0.946078 0.000541441 -0.233724 -0.972303 -0.0926219 -0.166833 -0.981625 
-0.10023 -0.130469 -0.986373 -0.0458383 -0.190547 -0.980607 -0.0871076 -0.401409 -0.911747 
-0.0352954 -0.265653 -0.963422 -0.262639 -0.216043 -0.940397 -0.146779 -0.367556 -0.918345 
-0.151916 -0.247209 -0.956979 0.306194 -0.577857 -0.756523 0.280294 -0.594518 -0.753647 
0.276964 -0.575112 -0.769764 0.102123 -0.581724 -0.80695 0.0609683 -0.476715 -0.876941 
0.00939868 -0.51965 -0.854328 -0.0219949 -0.402782 -0.915032 -0.0787568 -0.454539 -0.887238 
-0.0812464 -0.339535 -0.937078 -0.120839 -0.397837 -0.909463 -0.127972 -0.39688 -0.908906 
-0.125674 -0.377695 -0.917362 
