# vtk DataFile Version 4.2
vtk output
ASCII
DATASET POLYDATA
POINTS 528 float
-16.091 -42.0376 -13.1182 -8.04885 -42.0376 -13.6866 -0.00667296 -42.0376 -13.4123 
8.0355 -42.0376 -12.5997 16.0777 -42.0376 -12.1905 -32.1754 -33.9954 -14.0875 
-24.1332 -33.9954 -14.7555 -16.091 -33.9954 -15.6207 -8.04885 -33.9954 -15.1653 
-0.00667296 -33.9954 -14.7964 8.0355 -33.9954 -15.096 16.0777 -33.9954 -15.7103 
24.1199 -33.9954 -15.6397 32.162 -33.9954 -15.1566 40.2042 -33.9954 -12.3792 
-40.2176 -25.9533 -14.335 -32.1754 -25.9533 -15.8383 -24.1332 -25.9533 -15.8481 
-16.091 -25.9533 -15.8316 -8.04885 -25.9533 -15.157 -0.00667296 -25.9533 -14.9437 
8.0355 -25.9533 -15.332 16.0777 -25.9533 -16.7978 24.1199 -25.9533 -16.8532 
32.162 -25.9533 -16.9296 40.2042 -25.9533 -15.5849 48.2464 -25.9533 -12.08 
-48.2597 -17.9111 -12.8216 -40.2176 -17.9111 -15.6698 -32.1754 -17.9111 -16.3912 
-24.1332 -17.9111 -16.3505 -16.091 -17.9111 -15.0506 -8.04885 -17.9111 -14.1637 
-0.00667296 -17.9111 -14.2919 8.0355 -17.9111 -14.8719 16.0777 -17.9111 -16.2285 
24.1199 -17.9111 -16.5409 32.162 -17.9111 -16.6143 40.2042 -17.9111 -15.904 
48.2464 -17.9111 -15.5134 56.2886 -17.9111 -12.8554 -48.2597 -9.86891 -14.7158 
-40.2176 -9.86891 -16.5993 -32.1754 -9.86891 -16.6074 -24.1332 -9.86891 -15.7275 
-16.091 -9.86891 -14.0454 -8.04885 -9.86891 -15.2316 -0.00667296 -9.86891 -18.4583 
8.0355 -9.86891 -15.6829 16.0777 -9.86891 -14.6736 24.1199 -9.86891 -15.1367 
32.162 -9.86891 -15.9464 40.2042 -9.86891 -16.3177 48.2464 -9.86891 -15.934 
56.2886 -9.86891 -12.3666 -56.3019 -1.82673 -13.3957 -48.2597 -1.82673 -15.6241 
-40.2176 -1.82673 -17.2687 -32.1754 -1.82673 -16.7625 -24.1332 -1.82673 -15.564 
-16.091 -1.82673 -13.721 -8.04885 -1.82673 -16.1267 -0.00667296 -1.82673 -13.5253 
8.0355 -1.82673 -18.414 16.0777 -1.82673 -16.5267 24.1199 -1.82673 -15.0785 
32.162 -1.82673 -16.0918 40.2042 -1.82673 -16.7428 48.2464 -1.82673 -15.6196 
56.2886 -1.82673 -13.1565 -48.2597 6.21545 -15.7309 -40.2176 6.21545 -17.0692 
-32.1754 6.21545 -16.4869 -24.1332 6.21545 -15.1762 -16.091 6.21545 -13.3849 
-8.04885 6.21545 -15.6446 -0.00667296 6.21545 -16.62 8.0355 6.21545 -16.7506 
16.0777 6.21545 -16.1058 24.1199 6.21545 -15.7313 32.162 6.21545 -16.5441 
40.2042 6.21545 -17.0734 48.2464 6.21545 -15.9897 56.2886 6.21545 -13.7411 
-56.3019 14.2576 -12.253 -48.2597 14.2576 -14.7628 -40.2176 14.2576 -15.6276 
-32.1754 14.2576 -15.6102 -24.1332 14.2576 -15.1163 -16.091 14.2576 -14.0665 
-8.04885 14.2576 -14.1598 -0.00667296 14.2576 -15.2571 8.0355 14.2576 -13.7793 
16.0777 14.2576 -14.7713 24.1199 14.2576 -15.632 32.162 14.2576 -16.5643 
40.2042 14.2576 -16.9252 48.2464 14.2576 -15.8577 56.2886 14.2576 -12.0304 
-40.2176 22.2998 -13.9173 -32.1754 22.2998 -14.3981 -24.1332 22.2998 -14.5182 
-16.091 22.2998 -14.7662 -8.04885 22.2998 -14.5982 -0.00667296 22.2998 -14.9107 
8.0355 22.2998 -14.91 16.0777 22.2998 -15.305 24.1199 22.2998 -15.4016 
32.162 22.2998 -16.4723 40.2042 22.2998 -15.526 48.2464 22.2998 -14.5226 
-32.1754 30.342 -12.581 -24.1332 30.342 -13.3061 -16.091 30.342 -14.1471 
-8.04885 30.342 -13.6425 -0.00667296 30.342 -13.7706 8.0355 30.342 -14.19 
16.0777 30.342 -14.3932 24.1199 30.342 -14.3957 32.162 30.342 -14.7891 
40.2042 30.342 -13.8376 48.2464 30.342 -12.4813 -16.091 -44.181 -12.0161 
-8.04885 -45.4425 -12.0161 -8.04885 -50.0798 -4.99565 -0.00667296 -44.5407 -12.0161 
8.0355 -43.0284 -12.0161 16.0777 -42.2989 -12.0161 -32.1754 -39.6314 -12.0161 
-32.1754 -42.0376 -9.88945 -22.5916 -42.0376 -12.0161 -24.1332 -41.3151 -12.0161 
-24.1332 -42.0376 -11.6291 19.3001 -42.0376 -12.0161 24.1199 -41.4818 -12.0161 
24.1199 -42.0376 -11.6072 32.162 -39.5239 -12.0161 32.162 -42.0376 -8.11257 
40.2042 -34.4836 -12.0161 -37.6587 -33.9954 -12.0161 -40.2176 -31.627 -12.0161 
-40.2176 -33.9954 -10.6324 40.9486 -33.9954 -12.0161 48.2464 -26.1049 -12.0161 
-47.8696 -25.9533 -12.0161 -48.2597 -24.7087 -12.0161 -48.2597 -25.9533 -11.759 
48.3731 -25.9533 -12.0161 56.2886 -19.7441 -12.0161 -49.5585 -17.9111 -12.0161 
-56.3019 -17.9111 -4.83723 57.444 -17.9111 -12.0161 -54.9765 -9.86891 -12.0161 
-56.3019 -7.75131 -12.0161 -56.3019 -9.86891 -11.1227 56.9232 -9.86891 -12.0161 
64.3307 -9.86891 -4.90837 -58.0727 -1.82673 -12.0161 -56.3019 5.35501 -12.0161 
58.5391 -1.82673 -12.0161 64.3307 -1.82673 -7.09295 -55.9678 6.21545 -12.0161 
-56.3019 9.55258 -12.0161 -56.3019 6.21545 -11.7963 59.4899 6.21545 -12.0161 
64.3307 6.21545 -7.82877 -56.6466 14.2576 -12.0161 -56.3019 14.8666 -12.0161 
-48.2597 20.1871 -12.0161 56.3123 14.2576 -12.0161 56.2886 15.1915 -12.0161 
-56.3019 22.2998 -7.40211 -45.8995 22.2998 -12.0161 -48.2597 22.2998 -11.0327 
-40.2176 26.5142 -12.0161 55.9422 22.2998 -12.0161 56.2886 22.2998 -11.8599 
-48.2597 30.342 -6.86558 -33.8547 30.342 -12.0161 -40.2176 30.342 -9.79232 
-32.1754 31.8204 -12.0161 -24.1332 33.6705 -12.0161 -16.091 35.8364 -12.0161 
-8.04885 35.1754 -12.0161 -0.00667296 35.2484 -12.0161 8.0355 36.5162 -12.0161 
16.0777 37.2851 -12.0161 24.1199 36.0326 -12.0161 32.162 35.4474 -12.0161 
40.2042 33.9034 -12.0161 49.1095 30.342 -12.0161 48.2464 31.0688 -12.0161 
56.2886 30.342 -4.19258 -32.1754 38.3842 -8.8999 -24.1332 38.3842 -9.82033 
-16.091 38.3842 -10.9195 -8.04885 38.3842 -10.7196 -0.00667296 38.3842 -10.6661 
8.0355 38.3842 -11.2289 16.0777 38.3842 -11.5291 24.1199 38.3842 -10.8153 
32.162 38.3842 -9.59209 40.2042 38.3842 -8.56058 -8.04885 -50.4226 -3.97393 
-32.1754 -44.8663 -3.97393 -24.1332 -47.7032 -3.97393 -11.7459 -50.0798 -3.97393 
-16.091 -49.6539 -3.97393 -2.90477 -50.0798 -3.97393 -8.04885 -50.0798 -1.82737 
-0.00667296 -49.8728 -3.97393 8.0355 -48.8442 -3.97393 16.0777 -47.9586 -3.97393 
24.1199 -46.9096 -3.97393 32.162 -43.7298 -3.97393 -37.8237 -42.0376 -3.97393 
-40.2176 -40.565 -3.97393 35.2254 -42.0376 -3.97393 32.162 -42.0376 2.50669 
40.2042 -39.0518 -3.97393 -46.8902 -33.9954 -3.97393 -48.2597 -32.3004 -3.97393 
47.0717 -33.9954 -3.97393 48.2464 -33.0192 -3.97393 -52.6046 -25.9533 -3.97393 
-56.3019 -18.8512 -3.97393 55.683 -25.9533 -3.97393 56.2886 -25.2712 -3.97393 
-56.7552 -17.9111 -3.97393 -56.3019 -17.9111 1.63047 61.5465 -17.9111 -3.97393 
64.3307 -11.0769 -3.97393 -60.7411 -9.86891 -3.97393 64.8048 -9.86891 -3.97393 
64.3307 -9.86891 -2.62087 -62.9156 -1.82673 -3.97393 65.8922 -1.82673 -3.97393 
64.3307 -1.82673 0.986949 -64.0263 6.21545 -3.97393 66.357 6.21545 -3.97393 
64.3307 13.9599 -3.97393 64.3307 6.21545 2.7045 -63.1023 14.2576 -3.97393 
64.2394 14.2576 -3.97393 -58.9514 22.2998 -3.97393 -56.3019 25.4345 -3.97393 
61.8225 22.2998 -3.97393 -51.1227 30.342 -3.97393 -48.2597 32.7431 -3.97393 
-40.2176 37.8443 -3.97393 48.2464 37.1279 -3.97393 56.4226 30.342 -3.97393 
56.2886 30.4967 -3.97393 56.2886 30.342 -3.4097 -39.4755 38.3842 -3.97393 
-40.2176 38.3842 -1.58827 -32.1754 42.091 -3.97393 -24.1332 44.0577 -3.97393 
-16.091 45.0194 -3.97393 -8.04885 45.3375 -3.97393 -0.00667296 45.3107 -3.97393 
8.0355 45.8856 -3.97393 16.0777 45.7448 -3.97393 24.1199 44.9297 -3.97393 
32.162 42.9675 -3.97393 45.8706 38.3842 -3.97393 40.2042 40.983 -3.97393 
-16.091 46.4263 3.73715 -8.04885 46.4263 0.0438866 -0.00667296 46.4263 -0.100014 
8.0355 46.4263 -1.56175 16.0777 46.4263 1.36845 -32.1754 -43.6117 4.06824 
-24.1332 -46.1296 4.06824 -16.091 -48.0384 4.06824 -8.04885 -48.8968 4.06824 
-0.00667296 -48.3016 4.06824 8.0355 -47.5481 4.06824 16.0777 -46.6552 4.06824 
24.1199 -44.5378 4.06824 -35.1946 -42.0376 4.06824 -40.2176 -38.8636 4.06824 
-32.1754 -42.0376 6.20514 -24.1332 -42.0376 8.94624 -16.091 -42.0376 11.019 
-8.04885 -42.0376 11.2763 -0.00667296 -42.0376 10.7608 8.0355 -42.0376 10.4549 
16.0777 -42.0376 9.75368 30.8894 -42.0376 4.06824 24.1199 -42.0376 7.07602 
32.162 -41.2785 4.06824 40.2042 -35.4093 4.06824 -45.1721 -33.9954 4.06824 
-48.2597 -30.3217 4.06824 -40.2176 -33.9954 9.07847 32.162 -33.9954 8.62024 
41.9542 -33.9954 4.06824 40.2042 -33.9954 5.30866 48.2464 -28.2866 4.06824 
-51.3201 -25.9533 4.06824 -48.2597 -25.9533 7.95214 32.162 -25.9533 11.6628 
40.2042 -25.9533 9.75333 50.7564 -25.9533 4.06824 48.2464 -25.9533 5.89056 
56.2886 -19.8429 4.06824 -56.0557 -17.9111 4.06824 -56.3019 -17.5769 4.06824 
-48.2597 -17.9111 11.4784 40.2042 -17.9111 11.5518 48.2464 -17.9111 9.63116 
57.7382 -17.9111 4.06824 56.2886 -17.9111 5.33319 -60.5761 -9.86891 4.06824 
-56.3019 -9.86891 10.6457 48.2464 -9.86891 11.1698 60.6947 -9.86891 4.06824 
56.2886 -9.86891 7.54658 -62.6874 -1.82673 4.06824 -56.3019 -1.82673 11.5196 
62.7018 -1.82673 4.06824 56.2886 -1.82673 9.25524 -64.2514 6.21545 4.06824 
63.661 6.21545 4.06824 56.2886 6.21545 10.0929 -63.5341 14.2576 4.06824 
48.2464 14.2576 11.7788 60.8185 14.2576 4.06824 56.2886 14.2576 7.99348 
-59.5802 22.2998 4.06824 -56.3019 26.3889 4.06824 -56.3019 22.2998 9.30747 
48.2464 22.2998 10.5284 59.2251 22.2998 4.06824 56.2886 27.2922 4.06824 
56.2886 22.2998 6.88979 -52.3319 30.342 4.06824 -48.2597 33.8261 4.06824 
-48.2597 30.342 9.68047 40.2042 30.342 10.859 54.1104 30.342 4.06824 
48.2464 35.6438 4.06824 48.2464 30.342 9.00338 -41.6218 38.3842 4.06824 
-40.2176 39.3215 4.06824 -40.2176 38.3842 5.95223 -32.1754 43.4181 4.06824 
-32.1754 38.3842 11.4608 -24.1332 45.709 4.06824 24.1199 44.8257 4.06824 
24.1199 38.3842 10.7716 32.162 42.6644 4.06824 32.162 38.3842 8.39126 
43.7421 38.3842 4.06824 40.2042 40.1746 4.06824 40.2042 38.3842 6.38462 
-16.6806 46.4263 4.06824 -16.091 46.4796 4.06824 -16.091 46.4263 4.20293 
-8.04885 47.2916 4.06824 -8.04885 46.4263 5.93624 -0.00667296 47.3653 4.06824 
-0.00667296 46.4263 6.21549 8.0355 47.4291 4.06824 8.0355 46.4263 6.15452 
17.4916 46.4263 4.06824 16.0777 46.709 4.06824 16.0777 46.4263 4.72307 
-32.1754 -34.5903 12.1104 -24.1332 -37.7131 12.1104 -16.091 -40.3864 12.1104 
-8.04885 -40.6458 12.1104 -0.00667296 -39.7713 12.1104 8.0355 -39.4871 12.1104 
16.0777 -38.7834 12.1104 24.1199 -35.8196 12.1104 -33.1812 -33.9954 12.1104 
-40.2176 -27.445 12.1104 -32.1754 -33.9954 12.4207 -24.1332 -33.9954 14.187 
[...]
POINT_DATA 528
SCALARS ImageScalars float
LOOKUP_TABLE default
0 0 0 0 0 0 0 0 0 
0 0 0 0 0 0 0 0 0 
0 0 0 0 0 0 0 0 0 
0 0 0 0 0 0 0 0 0 
0 0 0 0 0 0 0 0 0 
0 0 0 0 0 0 0 0 0 
0 0 0 0 0 0 0 0 0 
0 0 0 0 0 0 0 0 0 
0 0 0 0 0 0 0 0 0 
0 0 0 0 0 0 0 0 0 
0 0 0 0 0 0 0 0 0 
0 0 0 0 0 0 0 0 0 
0 0 0 0 0 0 0 0 0 
0 0 0 0 0 0 0 0 0 
0 0 0 0 0 0 0 0 0 
0 0 0 0 0 0 0 0 0 
0 0 0 0 0 0 0 0 0 
0 0 0 0 0 0 0 0 0 
0 0 0 0 0 0 0 0 0 
0 0 0 0 0 0 0 0 0 
0 0 0 0 0 0 0 0 0 
0 0 0 0 0 0 0 0 0 
0 0 0 0 0 0 0 0 0 
0 0 0 0 0 0 0 0 0 
0 0 0 0 0 0 0 0 0 
0 0 0 0 0 0 0 0 0 
0 0 0 0 0 0 0 0 0 
0 0 0 0 0 0 0 0 0 
0 0 0 0 0 0 0 0 0 
0 0 0 0 0 0 0 0 0 
0 0 0 0 0 0 0 0 0 
0 0 0 0 0 0 0 0 0 
0 0 0 0 0 0 0 0 0 
0 0 0 0 0 0 0 0 0 
0 0 0 0 0 0 0 0 0 
0 0 0 0 0 0 0 0 0 
0 0 0 0 0 0 0 0 0 
0 0 0 0 0 0 0 0 0 
0 0 0 0 0 0 0 0 0 
0 0 0 0 0 0 0 0 0 
0 0 0 0 0 0 0 0 0 
0 0 0 0 0 0 0 0 0 
0 0 0 0 0 0 0 0 0 
0 0 0 0 0 0 0 0 0 
0 0 0 0 0 0 0 0 0 
0 0 0 0 0 0 0 0 0 
0 0 0 0 0 0 0 0 0 
0 0 0 0 0 0 0 0 0 
0 0 0 0 0 0 0 0 0 
0 0 0 0 0 0 0 0 0 
0 0 0 0 0 0 0 0 0 
0 0 0 0 0 0 0 0 0 
0 0 0 0 0 0 0 0 0 
0 0 0 0 0 0 0 0 0 
0 0 0 0 0 0 0 0 0 
0 0 0 0 0 0 0 0 0 
0 0 0 0 0 0 0 0 0 
0 0 0 0 0 0 0 0 0 
0 0 0 0 0 0 
NORMALS Normals float
0.108545 0.404076 0.908262 0.0177891 0.341924 0.939559 -0.0697737 0.369105 0.926765 
-0.0778592 0.45975 0.884629 -0.0504086 0.536228 0.842566 0.20249 0.285398 0.936774 
0.0929756 0.216021 0.971952 0.023833 0.173164 0.984605 -0.048933 0.0929712 0.994466 
-0.00341862 0.0961102 0.995365 0.0526765 0.165592 0.984787 0.0366202 0.277085 0.960147 
-0.0371691 0.26283 0.964126 -0.164581 0.346199 0.923612 -0.410186 0.56697 0.714348 
0.236977 0.252944 0.938009 0.0975408 0.148519 0.984087 -0.000444988 0.0958567 0.995395 
-0.0428742 -0.0360483 0.99843 -0.0559443 -0.0632134 0.996431 0.0107874 -0.0314204 0.999448 
0.114095 -0.0121861 0.993395 0.0946499 0.0261573 0.995167 0.00786115 0.0503113 0.998703 
-0.0952495 0.101197 0.990296 -0.250828 0.168067 0.95333 -0.483837 0.371865 0.792223 
0.462167 0.190367 0.866119 0.187639 0.138859 0.972373 0.0402412 0.0461199 0.998125 
-0.083031 -0.00757945 0.996518 -0.134013 -0.108917 0.984976 -0.0482539 -0.0290888 0.998411 
0.0440758 0.119162 0.991896 0.121874 0.0169978 0.9924 0.0997021 -0.132453 0.986162 
0.0247402 -0.109876 0.993637 -0.038765 -0.0601917 0.997434 -0.0660341 0.0493237 0.996598 
-0.224086 0.214563 0.950657 -0.521903 0.222504 0.823474 0.301391 0.15354 0.941057 
0.120462 0.0982588 0.987843 -0.053713 0.0230414 0.998291 -0.157437 -0.0484553 0.986339 
-0.0675124 -0.083271 0.994237 0.26288 0.117168 0.957688 -0.0689075 0.0967459 0.992921 
-0.176056 0.193533 0.965168 -0.0290867 -0.0333731 0.99902 0.0787374 -0.0841066 0.993341 
0.0732902 -0.0325881 0.996778 -0.00403443 0.0514016 0.99867 -0.197697 0.00198336 0.980261 
-0.485289 0.00622332 0.874331 0.538195 0.0326113 0.842189 0.243152 0.0623745 0.967981 
0.0816613 0.0287618 0.996245 -0.10358 -0.00702547 0.994596 -0.189827 -0.0343309 0.981217 
-0.0635204 -0.0432161 0.997044 0.0802102 0.0193369 0.99659 0.278884 -0.0496489 0.959041 
0.147007 0.101344 0.98393 -0.240165 0.12108 0.963151 0.012393 0.0373423 0.999226 
0.102551 0.0369879 0.99404 -0.0289926 0.0469202 0.998478 -0.191629 0.000567943 0.981467 
-0.35893 0.0757363 0.930287 0.275311 -0.0411342 0.960475 0.0575923 -0.10131 0.993186 
-0.116252 -0.0699449 0.990754 -0.188945 -0.0274671 0.981603 -0.0379582 0.0223422 0.99903 
0.252125 -0.135837 0.958113 0.0461673 0.0403523 0.998118 -0.0345151 -0.311429 0.949642 
-0.0591892 -0.112061 0.991937 0.0302169 0.0345216 0.998947 0.0827246 0.0292184 0.996144 
-0.0340966 0.01154 0.999352 -0.180381 0.0136591 0.983502 -0.352956 -0.0624964 0.93355 
0.505579 -0.187458 0.84217 0.229256 -0.276019 0.93341 0.0440408 -0.1982 0.979172 
-0.0320005 -0.125356 0.991596 -0.0960924 -0.0413642 0.994513 -0.0590648 0.0848964 0.994638 
0.0758915 -0.0221903 0.996869 -0.0217123 -0.0919543 0.995526 -0.0285594 -0.0618383 0.997678 
0.113541 -0.0404852 0.992708 0.112241 -0.0205798 0.993468 0.0780088 -0.00420339 0.996944 
-0.050428 -0.0958275 0.99412 -0.255872 -0.0727527 0.963969 -0.515793 -0.0972869 0.851171 
0.175275 -0.306818 0.93549 0.0396009 -0.172322 0.984244 0.0222359 -0.107808 0.993923 
0.00502867 0.00767761 0.999958 0.00894825 -0.0315874 0.999461 0.0193453 -0.0901546 0.99574 
0.0242719 0.0230157 0.99944 0.0307901 -0.0253436 0.999205 0.0699504 -0.0738152 0.994816 
0.0094647 -0.127045 0.991852 -0.105514 -0.16563 0.980527 -0.260737 -0.254197 0.931343 
0.202175 -0.298869 0.932632 0.0863088 -0.24984 0.964433 0.0192551 -0.224514 0.974281 
-0.0214329 -0.217952 0.975724 0.0333317 -0.238378 0.9706 0.0383704 -0.208885 0.977187 
0.012344 -0.216766 0.976145 0.0275267 -0.233845 0.971884 -0.0228437 -0.33368 0.94241 
-0.176076 -0.374001 0.910561 -0.334618 -0.42404 0.841559 0.141629 0.514165 0.845917 
0.00815882 0.544246 0.838886 0.010415 0.986367 0.164228 -0.0886804 0.522087 0.848269 
-0.0855337 0.511488 0.855023 -0.0551821 0.548295 0.834462 0.269309 0.53174 0.802948 
0.329495 0.726244 0.603326 0.138722 0.515679 0.845477 0.135787 0.514089 0.846921 
0.152376 0.566126 0.810113 -0.0787006 0.578791 0.811669 -0.111215 0.620016 0.776666 
-0.12899 0.666138 0.73459 -0.256025 0.658642 0.707561 -0.374689 0.860836 0.34434 
-0.416651 0.58624 0.694783 0.34355 0.405426 0.847115 0.350251 0.406897 0.843658 
0.452795 0.511075 0.730602 -0.429192 0.574705 0.696784 -0.486877 0.375544 0.788617 
0.545435 0.302523 0.781652 0.548273 0.286811 0.78558 0.572977 0.311722 0.757975 
-0.486758 0.375142 0.788882 -0.554145 0.303176 0.775247 0.509575 0.222178 0.831246 
0.848925 0.461091 0.258307 -0.581777 0.245426 0.775436 0.553591 0.278606 0.784803 
0.598514 0.225457 0.768733 0.634085 0.299251 0.713012 -0.512279 0.0160381 0.858669 
-0.952416 0.271262 0.138997 0.637502 0.0530328 0.768621 0.560913 -0.0662253 0.825222 
-0.510347 0.0811812 0.856128 -0.954735 0.102822 0.279122 0.547615 -0.0774775 0.833135 
0.539475 -0.121206 0.833232 0.565179 -0.0761373 0.821447 -0.542538 -0.0830956 0.835911 
-0.924178 -0.116212 0.363854 0.519707 -0.190604 0.832812 0.509058 -0.212179 0.83417 
0.298784 -0.364324 0.882041 -0.516811 -0.0975268 0.850526 -0.514678 -0.115459 0.849574 
0.614477 -0.538488 0.576583 0.283041 -0.359683 0.88911 0.345054 -0.394202 0.851788 
0.222668 -0.403081 0.887662 -0.488547 -0.256719 0.833917 -0.505045 -0.261514 0.822521 
0.500653 -0.643145 0.579405 0.219536 -0.340144 0.914388 0.289609 -0.528181 0.798217 
0.213527 -0.351029 0.911694 0.0876204 -0.363108 0.927618 0.0366393 -0.389651 0.920234 
-0.0135034 -0.370883 0.928581 0.0291878 -0.389138 0.920717 0.0451443 -0.409651 0.911125 
-0.0146803 -0.441487 0.897148 -0.0531523 -0.445254 0.893825 -0.0542656 -0.546053 0.835991 
-0.1906 -0.501164 0.844101 -0.377177 -0.450356 0.80927 -0.356421 -0.457758 0.814507 
-0.749018 -0.641175 0.166932 0.278474 -0.644069 0.71248 0.10447 -0.587516 0.802441 
0.0449907 -0.49637 0.866944 -0.0137085 -0.507844 0.86134 0.0269628 -0.518162 0.854857 
0.0446042 -0.49145 0.869763 -0.0198227 -0.493205 0.869687 -0.10317 -0.579009 0.808767 
-0.100941 -0.729476 0.676517 -0.270592 -0.773741 0.572805 0.0133224 0.99586 0.0899244 
0.406297 0.902521 0.142753 0.285847 0.946331 0.150831 0.0800064 0.992955 0.0874079 
0.159268 0.982861 0.0928334 -0.0564504 0.993011 0.103643 0.0141426 0.999138 -0.039017 
-0.0959138 0.988774 0.11457 -0.116794 0.981757 0.150044 -0.120768 0.979459 0.161479 
-0.251441 0.962717 0.0997695 -0.433455 0.899126 0.0607444 0.525969 0.837436 0.148522 
0.584323 0.792842 0.173115 -0.473855 0.88019 0.0269669 -0.474915 0.793518 -0.380506 
-0.546915 0.83715 -0.00794531 0.746737 0.649937 0.141302 0.776386 0.617686 0.125257 
-0.636902 0.769269 -0.0508064 -0.652346 0.756368 -0.0485054 0.849831 0.505543 0.149039 
0.860101 0.471257 0.195303 -0.743059 0.669223 -0.00200984 -0.752649 0.658368 -0.00841763 
0.861638 0.465497 0.202218 0.843419 0.510754 -0.166658 -0.882054 0.469668 0.0373243 
-0.952543 0.295343 0.0737196 0.906445 0.335443 0.256585 -0.960905 0.266344 0.0756501 
-0.960646 0.277716 -0.00581499 0.942883 0.203712 0.263579 -0.990749 0.0973718 0.0945298 
-0.927552 0.118949 -0.354258 0.946417 0.0179027 0.32245 -0.989443 -0.101956 0.10299 
-0.958034 -0.262728 0.114652 -0.864877 -0.0924562 -0.493395 0.884693 -0.304068 0.353356 
-0.956041 -0.269453 0.115674 0.7649 -0.529986 0.366118 0.68568 -0.624341 0.374222 
-0.888771 -0.441198 0.124222 0.587731 -0.707919 0.391693 0.54946 -0.735776 0.395889 
0.510215 -0.750047 0.420844 -0.52042 -0.833193 0.186953 -0.751984 -0.640527 0.155712 
-0.748465 -0.644464 0.156416 -0.757377 -0.643243 0.112333 0.504295 -0.758129 0.413432 
0.54195 -0.802513 0.249525 0.333022 -0.846157 0.416071 0.173501 -0.87879 0.44455 
0.0674401 -0.917777 0.391327 0.0169674 -0.887758 0.459998 0.0283991 -0.880925 0.472403 
0.0218846 -0.90697 0.420626 -0.0514794 -0.927324 0.370702 -0.165662 -0.938115 0.304131 
-0.229409 -0.925294 0.301997 -0.468514 -0.862246 0.192425 -0.342075 -0.912899 0.222709 
0.0939745 -0.990713 -0.0982692 0.0415922 -0.987148 0.154304 0.0191267 -0.983949 0.17742 
0.00161911 -0.970672 0.240401 -0.120655 -0.992683 0.00477003 0.3776 0.838052 -0.39381 
0.244462 0.873969 -0.420021 0.146335 0.8976 -0.415813 0.0144729 0.905806 -0.423446 
-0.0730735 0.901861 -0.425801 -0.0910892 0.911766 -0.400481 -0.163504 0.905269 -0.392115 
-0.290234 0.828921 -0.478178 0.445014 0.803718 -0.394969 0.565586 0.72211 -0.398334 
0.362198 0.778025 -0.513312 0.214158 0.710971 -0.669819 0.104763 0.621253 -0.776575 
-0.0133787 0.576394 -0.817062 -0.0395635 0.592294 -0.80475 -0.0469609 0.631732 -0.773763 
-0.152786 0.68103 -0.716139 -0.440311 0.750671 -0.492564 -0.280395 0.730801 -0.622341 
-0.465853 0.721321 -0.51252 -0.491795 0.611446 -0.619896 0.674862 0.625916 -0.390884 
0.72691 0.571769 -0.380371 0.502823 0.53438 -0.679417 -0.430269 0.399387 -0.809542 
-0.484991 0.617889 -0.618867 -0.453202 0.575665 -0.680601 -0.491658 0.59094 -0.63958 
0.775736 0.509516 -0.372325 0.650524 0.461944 -0.602849 -0.257843 0.237141 -0.936633 
-0.325363 0.351294 -0.877913 -0.547794 0.534267 -0.643802 -0.454476 0.491756 -0.742716 
-0.621945 0.434058 -0.651749 0.799641 0.506577 -0.322418 0.803593 0.50279 -0.318497 
0.510509 0.342725 -0.788619 -0.191644 0.189136 -0.963068 -0.350142 0.309759 -0.883997 
-0.636541 0.39914 -0.659927 -0.579712 0.371416 -0.725248 0.886495 0.361846 -0.288434 
0.655209 0.286905 -0.698846 -0.289054 0.127752 -0.94875 -0.759398 0.244513 -0.602933 
-0.534104 0.22379 -0.815261 0.927072 0.22038 -0.303266 0.664542 0.0970853 -0.740917 
-0.769947 0.119974 -0.626728 -0.524791 0.127614 -0.841611 0.960703 0.0507711 -0.272896 
-0.789565 -0.0837891 -0.60792 -0.508191 -0.0621727 -0.858997 0.9209 -0.283256 -0.267785 
-0.308495 -0.118844 -0.943773 -0.81802 -0.218951 -0.531888 -0.573123 -0.184132 -0.798515 
0.820753 -0.521863 -0.232429 0.742635 -0.634733 -0.213559 0.641504 -0.511036 -0.572114 
-0.411833 -0.164557 -0.896278 -0.789242 -0.34015 -0.511269 -0.712337 -0.468963 -0.522158 
-0.601421 -0.322727 -0.730849 0.667487 -0.719559 -0.19156 0.607036 -0.775308 -0.17437 
0.545571 -0.597779 -0.587379 -0.244066 -0.394809 -0.885753 -0.674701 -0.554317 -0.487351 
-0.530776 -0.715585 -0.454109 -0.502436 -0.490489 -0.712024 0.545665 -0.825703 -0.143056 
0.532025 -0.834969 -0.140626 0.525641 -0.806486 -0.270706 0.368086 -0.91604 -0.159324 
0.323541 -0.642973 -0.694195 0.183629 -0.97726 -0.106032 -0.236594 -0.921032 -0.309393 
-0.292268 -0.53088 -0.795453 -0.280278 -0.877865 -0.388327 -0.228487 -0.667034 -0.709126 
-0.440841 -0.793659 -0.419244 -0.371172 -0.835159 -0.405882 -0.366549 -0.76914 -0.523513 
0.100624 -0.988272 -0.114865 0.0946409 -0.988762 -0.115729 0.0940615 -0.987919 -0.123164 
0.0558577 -0.991473 -0.117733 0.0531634 -0.970327 -0.235881 0.00853035 -0.995334 -0.0961081 
0.0065816 -0.972171 -0.234178 -0.0406749 -0.989348 -0.139771 -0.0423071 -0.961121 -0.272868 
-0.161806 -0.969157 -0.185886 -0.147354 -0.974924 -0.166761 -0.151133 -0.965921 -0.21013 
0.25148 0.420309 -0.871836 0.179684 0.506887 -0.843077 0.0927421 0.542665 -0.834813 
-0.0172695 0.512612 -0.858447 -0.0334988 0.481518 -0.875796 -0.030768 0.508743 -0.860369 
-0.125317 0.520449 -0.844647 -0.313501 0.41754 -0.852864 0.271135 0.411873 -0.869969 
0.360612 0.328154 -0.873083 0.246343 0.40167 -0.88203 0.166641 0.381581 -0.90919 
0.0528558 0.335813 -0.940445 -0.0302699 0.298021 -0.954079 -0.0152312 0.279829 -0.959929 
0.0100829 0.333 -0.942873 -0.105242 0.362327 -0.92609 -0.354481 0.351428 -0.866511 
-0.324062 0.345241 -0.880791 0.370961 0.310877 -0.875068 0.340717 0.294904 -0.892717 
0.236163 0.252516 -0.93833 0.115507 0.174945 -0.977779 0.00411927 0.125083 -0.992138 
-0.0770741 0.120359 -0.989734 -0.00881563 0.0700413 -0.997505 0.0410001 0.0974965 -0.994391 
-0.115075 0.107003 -0.987577 -0.259062 0.213237 -0.942028 -0.297115 0.101596 -0.949422 
-0.235799 0.21083 -0.948657 0.462324 0.322606 -0.825943 0.467212 0.330464 -0.820065 
0.265336 0.276057 -0.923791 0.12683 0.182763 -0.974942 0.0434307 0.0837325 -0.995541 
-0.00773417 0.017616 -0.999815 -0.0911332 0.142442 -0.985599 -0.0317529 0.197718 -0.979744 
0.062365 0.0314154 -0.997559 -0.102885 0.00682647 -0.99467 -0.231392 0.0373715 -0.972142 
-0.190713 0.17211 -0.96644 -0.198985 0.161836 -0.966548 -0.186366 0.162991 -0.968866 
0.537422 0.282017 -0.794761 0.355699 0.276578 -0.892739 0.212661 0.182893 -0.959857 
0.0335085 0.144815 -0.988891 -0.0549122 0.0973816 -0.993731 0.0651218 0.0772844 -0.99488 
0.169242 0.215948 -0.961625 -0.168758 0.239745 -0.956056 -0.164401 0.0267291 -0.986031 
-0.113715 0.00148219 -0.993512 -0.145662 0.0403984 -0.988509 -0.12371 0.108525 -0.986366 
-0.231376 0.126452 -0.964611 -0.188711 0.133884 -0.972863 -0.246549 0.0952637 -0.964437 
0.62666 0.0929108 -0.773734 0.608477 0.108064 -0.786179 0.328422 0.108633 -0.938263 
0.151467 0.0704833 -0.985946 0.039948 0.0524062 -0.997827 -0.0230968 0.052529 -0.998352 
0.086449 0.0874844 -0.992408 -0.228765 -0.0340998 -0.972884 -0.105983 0.0595699 -0.992582 
-0.092306 -0.0384957 -0.994986 -0.119711 0.0254397 -0.992483 -0.0995453 0.0491496 -0.993818 
-0.163167 0.0692792 -0.984163 -0.248825 0.0951076 -0.963868 -0.245946 0.0947232 -0.964644 
0.590179 0.121022 -0.798149 0.549932 0.119241 -0.826654 0.311457 -0.0267348 -0.949884 
0.149314 0.0244393 -0.988488 0.0150083 -0.00615631 -0.999868 -0.0215058 -0.00198329 -0.999767 
0.0715836 0.0129894 -0.99735 0.0363769 -0.0529101 -0.997936 -0.127963 0.0286173 -0.991366 
-0.198707 -0.0334501 -0.979488 -0.14418 -0.119453 -0.982315 -0.0587489 0.00486359 -0.998261 
-0.0805933 0.00879348 -0.996708 -0.14459 0.00996923 -0.989441 -0.299255 -0.034208 -0.95356 
-0.275086 -0.0820409 -0.957913 -0.235042 -0.0236823 -0.971697 0.640182 -0.162904 -0.750752 
0.579333 -0.314261 -0.752072 0.545819 -0.148464 -0.824645 0.297315 -0.125252 -0.946528 
0.169937 -0.127782 -0.977135 0.0127012 -0.0955294 -0.995346 -0.00350256 -0.023758 -0.999712 
0.0380726 0.00258756 -0.999272 0.0381093 -0.105563 -0.993682 -0.182266 -0.127997 -0.974882 
-0.272925 -0.101164 -0.956702 -0.0389823 -0.0629414 -0.997256 0.00754589 -0.0443038 -0.99899 
-0.0928542 -0.0318925 -0.995169 -0.284088 -0.102179 -0.953338 -0.188093 -0.00152902 -0.98215 
0.462735 -0.431581 -0.774348 0.433743 -0.455219 -0.777587 0.36376 -0.358937 -0.85956 
0.195417 -0.244119 -0.949852 0.128386 -0.176063 -0.975971 0.073736 -0.0954109 -0.992703 
-0.00872463 -0.0689083 -0.997585 -0.0920312 -0.143443 -0.98537 -0.113873 -0.151983 -0.981801 
-0.142164 -0.0223221 -0.989591 -0.0909436 0.00310156 -0.995851 -0.0288246 -0.106561 -0.993888 
-0.0354318 -0.115389 -0.992688 -0.33613 -0.165525 -0.927156 -0.243619 -0.308209 -0.919596 
-0.241013 -0.18554 -0.952621 0.412211 -0.49182 -0.766939 0.36171 -0.529419 -0.767386 
0.318284 -0.438933 -0.840258 0.30647 -0.587074 -0.74928 0.185849 -0.306541 -0.933538 
0.103248 -0.246091 -0.963732 -0.00775483 -0.233715 -0.972274 -0.0524984 -0.181411 -0.982005 
-0.0680225 -0.129747 -0.989211 -0.11964 -0.117874 -0.985795 -0.128476 -0.102175 -0.986435 
-0.21258 -0.372009 -0.903559 -0.106627 -0.205725 -0.972784 -0.205232 -0.347714 -0.914863 
-0.179034 -0.394653 -0.901219 -0.167228 -0.315533 -0.934063 0.284316 -0.60703 -0.742077 
0.163596 -0.664586 -0.729083 0.142142 -0.531212 -0.83523 0.036321 -0.667349 -0.743859 
0.0414345 -0.491747 -0.869751 0.0242933 -0.655658 -0.754667 0.0142037 -0.450781 -0.892521 
-0.0188144 -0.640697 -0.767564 -0.0356189 -0.409884 -0.911442 -0.0586686 -0.568832 -0.820358 
-0.0904476 -0.383022 -0.9193 -0.238486 -0.429909 -0.870806 -0.177539 -0.499593 -0.847872 
-0.174218 -0.370494 -0.91235 0.0492665 0.0574213 -0.997134 0.0379014 0.043177 -0.998348 
0.0143648 0.033697 -0.999329 0.0356825 0.011272 -0.9993 0.0355627 0.0391981 -0.998598 

