# vtk DataFile Version 4.2
vtk output
ASCII
DATASET POLYDATA
POINTS 512 float
-33.9705 -8.31799 -24.0306 -26.136 -8.31799 -24.0108 5.20194 -39.656 -16.2014 
-26.136 -31.8215 -19.1227 -18.3015 -31.8215 -19.6817 -10.467 -31.8215 -19.4578 
-2.63255 -31.8215 -18.5754 5.20194 -31.8215 -18.6985 13.0364 -31.8215 -19.7575 
20.8709 -31.8215 -20.2834 28.7054 -31.8215 -18.3283 -33.9705 -23.987 -21.3673 
-26.136 -23.987 -22.783 -18.3015 -23.987 -22.4051 -10.467 -23.987 -21.2224 
-2.63255 -23.987 -19.44 5.20194 -23.987 -19.4934 13.0364 -23.987 -21.2244 
20.8709 -23.987 -21.9017 28.7054 -23.987 -20.6113 36.5399 -23.987 -16.6177 
-41.805 -16.1525 -19.1712 -33.9705 -8.50293 -24.0095 -33.9705 -16.1525 -23.0624 
-26.136 -8.42802 -24.0095 -26.136 -16.1525 -23.9167 -18.3015 -16.1525 -23.4299 
-10.467 -16.1525 -21.6109 -2.63255 -16.1525 -19.0039 5.20194 -16.1525 -19.296 
13.0364 -16.1525 -21.5129 20.8709 -16.1525 -22.6535 28.7054 -16.1525 -21.6289 
36.5399 -16.1525 -18.4054 -34.0426 -8.31799 -24.0095 -41.805 -8.31799 -21.0049 
-33.9705 -8.04262 -24.0095 -26.1149 -8.31799 -24.0095 -26.136 -8.2488 -24.0095 
-18.3015 -8.31799 -23.5248 -10.467 -8.31799 -22.1067 -2.63255 -8.31799 -19.7088 
5.20194 -8.31799 -20.349 13.0364 -8.31799 -22.3275 20.8709 -8.31799 -22.3583 
28.7054 -8.31799 -21.4636 36.5399 -8.31799 -19.3887 -41.805 -0.483493 -21.2383 
-33.9705 -0.483493 -23.3969 -26.136 -0.483493 -23.8635 -18.3015 -0.483493 -23.3741 
-10.467 -0.483493 -22.9709 -2.63255 -0.483493 -21.2883 5.20194 -0.483493 -21.9134 
13.0364 -0.483493 -23.1249 20.8709 -0.483493 -22.689 28.7054 -0.483493 -22.1365 
36.5399 -0.483493 -20.4852 -41.805 7.351 -20.614 -33.9705 7.351 -23.4056 
-26.136 7.351 -23.4025 -18.3015 7.351 -22.9987 -10.467 7.351 -22.8084 
-2.63255 7.351 -22.2144 5.20194 7.351 -22.0048 13.0364 7.351 -22.8231 
20.8709 7.351 -23.1569 28.7054 7.351 -22.891 36.5399 7.351 -21.3902 
44.3744 7.351 -17.2627 -41.805 15.1855 -18.1445 -33.9705 15.1855 -21.7482 
-26.136 15.1855 -22.5586 -18.3015 15.1855 -22.2672 -10.467 15.1855 -21.7753 
-2.63255 15.1855 -21.561 5.20194 15.1855 -21.9444 13.0364 15.1855 -22.7723 
20.8709 15.1855 -23.2801 28.7054 15.1855 -22.9722 36.5399 15.1855 -21.038 
44.3744 15.1855 -16.5326 -33.9705 23.02 -19.3643 -26.136 23.02 -20.9851 
-18.3015 23.02 -21.3418 -10.467 23.02 -21.604 -2.63255 23.02 -21.4094 
5.20194 23.02 -21.8241 13.0364 23.02 -22.4321 20.8709 23.02 -22.5569 
28.7054 23.02 -21.9415 36.5399 23.02 -19.2468 -26.136 30.8545 -18.3712 
-18.3015 30.8545 -19.7191 -10.467 30.8545 -20.4335 -2.63255 30.8545 -20.8815 
5.20194 30.8545 -20.9813 13.0364 30.8545 -20.7329 20.8709 30.8545 -20.0043 
28.7054 30.8545 -18.2392 -10.467 38.689 -17.3411 -2.63255 38.689 -17.4656 
5.20194 38.689 -17.3786 5.20194 -39.6949 -16.175 -26.136 -35.1138 -16.175 
-18.3015 -36.8737 -16.175 -18.3015 -39.656 -12.39 -10.467 -38.2761 -16.175 
-10.467 -39.656 -15.0574 3.93027 -39.656 -16.175 -2.63255 -39.2476 -16.175 
-2.63255 -39.656 -15.9999 9.47391 -39.656 -16.175 13.0364 -39.6124 -16.175 
13.0364 -39.656 -16.1446 20.8709 -38.4468 -16.175 20.8709 -39.656 -15.0174 
28.7054 -34.8813 -16.175 28.7054 -39.656 -8.50962 -32.956 -31.8215 -16.175 
-33.9705 -31.1864 -16.175 -33.9705 -31.8215 -15.101 32.3223 -31.8215 -16.175 
36.5399 -25.0976 -16.175 36.5399 -31.8215 -10.0842 -40.9147 -23.987 -16.175 
-41.805 -22.5865 -16.175 -41.805 -23.987 -14.626 37 -23.987 -16.175 
-44.7779 -16.1525 -16.175 39.5359 -16.1525 -16.175 44.3744 -16.1525 -8.78545 
-46.7503 -8.31799 -16.175 41.4248 -8.31799 -16.175 44.3744 -8.31799 -13.2162 
-47.3538 -0.483493 -16.175 -49.6395 -0.483493 -8.80009 44.3647 -0.483493 -16.175 
44.3744 -0.438925 -16.175 44.3744 -0.483493 -16.1667 -46.4377 7.351 -16.175 
45.5439 7.351 -16.175 -43.8064 15.1855 -16.175 -41.805 18.9152 -16.175 
44.7417 15.1855 -16.175 44.3744 16.1004 -16.175 -38.6594 23.02 -16.175 
-41.805 23.02 -11.6277 -33.9705 28.0641 -16.175 40.8443 23.02 -16.175 
36.5399 27.9169 -16.175 44.3744 23.02 -10.746 -30.6982 30.8545 -16.175 
-33.9705 30.8545 -13.409 -26.136 33.9497 -16.175 -18.3015 37.4391 -16.175 
13.0364 38.4585 -16.175 20.8709 36.1469 -16.175 32.7409 30.8545 -16.175 
28.7054 33.1616 -16.175 36.5399 30.8545 -12.3367 -26.136 38.689 -10.1612 
-15.2764 38.689 -16.175 -18.3015 38.689 -15.0918 -10.467 40.1748 -16.175 
-2.63255 40.2618 -16.175 12.1862 38.689 -16.175 5.20194 40.09 -16.175 
13.0364 38.689 -15.9327 20.8709 38.689 -12.0234 -18.3015 -41.7278 -8.34049 
-10.467 -44.364 -8.34049 -2.63255 -45.9979 -8.34049 -2.63255 -47.4904 -0.549451 
5.20194 -46.3596 -8.34049 5.20194 -47.4904 -2.70229 13.0364 -45.5732 -8.34049 
20.8709 -43.5197 -8.34049 28.7054 -39.7316 -8.34049 -33.9705 -34.373 -8.34049 
-23.495 -39.656 -8.34049 -26.136 -38.5659 -8.34049 28.8127 -39.656 -8.34049 
36.5399 -32.7513 -8.34049 -37.3881 -31.8215 -8.34049 -41.805 -27.2794 -8.34049 
37.2689 -31.8215 -8.34049 -44.2984 -23.987 -8.34049 41.2373 -23.987 -8.34049 
44.3744 -16.6456 -8.34049 -47.7373 -16.1525 -8.34049 44.5865 -16.1525 -8.34049 
-49.4001 -8.31799 -8.34049 -49.6395 -2.85642 -8.34049 47.3616 -8.31799 -8.34049 
-49.7435 -0.483493 -8.34049 -49.6395 0.303574 -8.34049 -49.6395 -0.483493 -5.55575 
49.4874 -0.483493 -8.34049 -48.7007 7.351 -8.34049 50.2473 7.351 -8.34049 
-46.7017 15.1855 -8.34049 49.1676 15.1855 -8.34049 -43.257 23.02 -8.34049 
-41.805 25.3193 -8.34049 45.4778 23.02 -8.34049 44.3744 24.55 -8.34049 
-37.6115 30.8545 -8.34049 -33.9705 34.4175 -8.34049 28.7054 37.1558 -8.34049 
38.8459 30.8545 -8.34049 36.5399 32.7676 -8.34049 -27.917 38.689 -8.34049 
-26.136 39.7713 -8.34049 -18.3015 43.1824 -8.34049 -10.467 45.1483 -8.34049 
-2.63255 45.7013 -8.34049 5.20194 44.7478 -8.34049 13.0364 42.7508 -8.34049 
24.8901 38.689 -8.34049 20.8709 40.2811 -8.34049 -2.63255 -47.4978 -0.505994 
5.20194 -47.8798 -0.505994 -18.3015 -41.9188 -0.505994 -2.66153 -47.4904 -0.505994 
-10.467 -45.3526 -0.505994 -2.63255 -47.4904 -0.474274 8.11121 -47.4904 -0.505994 
5.20194 -47.4904 1.31371 13.0364 -46.8093 -0.505994 20.8709 -44.5063 -0.505994 
28.7054 -40.5682 -0.505994 -33.9705 -33.7929 -0.505994 -23.1746 -39.656 -0.505994 
-26.136 -38.1232 -0.505994 -18.3015 -39.656 6.05947 29.9271 -39.656 -0.505994 
28.7054 -39.656 3.59122 36.5399 -33.389 -0.505994 -36.609 -31.8215 -0.505994 
-41.805 -26.8424 -0.505994 -33.9705 -31.8215 3.86018 37.7651 -31.8215 -0.505994 
36.5399 -31.8215 3.99908 -44.0731 -23.987 -0.505994 -41.805 -23.987 4.88115 
41.7417 -23.987 -0.505994 44.3744 -18.5316 -0.505994 -47.5743 -16.1525 -0.505994 
45.4883 -16.1525 -0.505994 44.3744 -16.1525 3.82638 -49.1365 -8.31799 -0.505994 
48.4505 -8.31799 -0.505994 -49.4378 -0.483493 -0.505994 50.6727 -0.483493 -0.505994 
-48.0652 7.351 -0.505994 51.3097 7.351 -0.505994 -46.0354 15.1855 -0.505994 
50.1833 15.1855 -0.505994 -43.4168 23.02 -0.505994 -41.805 25.935 -0.505994 
-41.805 23.02 4.68215 46.4277 23.02 -0.505994 44.3744 25.78 -0.505994 
-38.5814 30.8545 -0.505994 -33.9705 35.4974 -0.505994 28.7054 37.6054 -0.505994 
39.4732 30.8545 -0.505994 36.5399 33.2222 -0.505994 -29.7457 38.689 -0.505994 
-26.136 40.8862 -0.505994 -18.3015 44.0688 -0.505994 -10.467 45.9783 -0.505994 
-2.63255 46.52 -0.505994 5.20194 45.5439 -0.505994 13.0364 43.3199 -0.505994 
26.1351 38.689 -0.505994 20.8709 40.8179 -0.505994 -10.467 -43.1029 7.3285 
-2.63255 -45.4811 7.3285 5.20194 -46.109 7.3285 13.0364 -45.2188 7.3285 
20.8709 -42.8941 7.3285 -26.136 -34.7979 7.3285 -17.3751 -39.656 7.3285 
-18.3015 -39.1508 7.3285 -10.467 -39.656 12.5335 27.0869 -39.656 7.3285 
20.8709 -39.656 14.0932 28.7054 -38.5851 7.3285 -31.1473 -31.8215 7.3285 
-33.9705 -29.9507 7.3285 -26.136 -31.8215 11.4187 35.3806 -31.8215 7.3285 
36.5399 -30.0223 7.3285 -40.4851 -23.987 7.3285 -41.805 -22.2777 7.3285 
-33.9705 -23.987 14.2113 39.7462 -23.987 7.3285 36.5399 -23.987 13.1699 
-45.3049 -16.1525 7.3285 -41.805 -16.1525 13.4545 43.4305 -16.1525 7.3285 
44.3744 -14.073 7.3285 -47.1769 -8.31799 7.3285 46.8944 -8.31799 7.3285 
44.3744 -8.31799 12.1492 -47.3264 -0.483493 7.3285 49.351 -0.483493 7.3285 
-45.8392 7.351 7.3285 50.0418 7.351 7.3285 -43.7029 15.1855 7.3285 
-41.805 20.7218 7.3285 -41.805 15.1855 11.9648 48.7443 15.1855 7.3285 
-40.9529 23.02 7.3285 44.6963 23.02 7.3285 44.3744 23.441 7.3285 
44.3744 23.02 7.95663 -36.2627 30.8545 7.3285 -33.9705 33.245 7.3285 
-33.9705 30.8545 11.0977 28.7054 35.6544 7.3285 28.7054 30.8545 14.7649 
37.2845 30.8545 7.3285 36.5399 31.4461 7.3285 36.5399 30.8545 8.43496 
-26.3496 38.689 7.3285 -26.136 38.8086 7.3285 -26.136 38.689 7.56129 
-18.3015 41.7446 7.3285 -18.3015 38.689 12.1796 -10.467 43.4089 7.3285 
-10.467 38.689 13.9809 -2.63255 44.1035 7.3285 -2.63255 38.689 14.6778 
5.20194 43.4345 7.3285 5.20194 38.689 14.0541 13.0364 41.4149 7.3285 
13.0364 38.689 11.6898 21.277 38.689 7.3285 20.8709 38.8506 7.3285 
20.8709 38.689 7.62536 -2.63255 -40.0959 15.163 5.20194 -41.1326 15.163 
13.0364 -40.8732 15.163 -18.3015 -33.3599 15.163 -4.02167 -39.656 15.163 
-10.467 -37.2487 15.163 -2.63255 -39.656 15.5724 5.20194 -39.656 16.5473 
18.3783 -39.656 15.163 13.0364 -39.656 16.3927 20.8709 -38.9412 15.163 
28.7054 -33.4475 15.163 -20.819 -31.8215 15.163 -26.136 -28.2213 15.163 
-18.3015 -31.8215 16.4668 -10.467 -31.8215 19.1445 -2.63255 -31.8215 20.3532 
5.20194 -31.8215 20.9351 13.0364 -31.8215 21.2051 20.8709 -31.8215 20.1352 
30.2465 -31.8215 15.163 28.7054 -31.8215 16.4876 -32.5022 -23.987 15.163 
-33.9705 -22.8539 15.163 -26.136 -23.987 18.2839 -18.3015 -23.987 20.9668 
-10.467 -23.987 22.7822 -2.63255 -23.987 22.7466 5.20194 -23.987 22.4013 
20.8709 -23.987 22.2438 35.0485 -23.987 15.163 28.7054 -23.987 19.649 
36.5399 -20.8779 15.163 -40.2502 -16.1525 15.163 -41.805 -13.3808 15.163 
-33.9705 -16.1525 19.4357 -26.136 -16.1525 22.4774 13.0364 -16.1525 22.9066 
20.8709 -16.1525 22.4906 28.7054 -16.1525 21.3291 38.5385 -16.1525 15.163 
36.5399 -16.1525 16.9329 -43.6277 -8.31799 15.163 -41.805 -8.31799 17.4314 
-33.9705 -8.31799 22.9238 28.7054 -8.31799 21.981 42.1592 -8.31799 15.163 
[...]
POINT_DATA 512
SCALARS ImageScalars float
LOOKUP_TABLE default
0 0 0 0 0 0 0 0 0 
0 0 0 0 0 0 0 0 0 
0 0 0 0 0 0 0 0 0 
0 0 0 0 0 0 0 0 0 
0 0 0 0 0 0 0 0 0 
0 0 0 0 0 0 0 0 0 
0 0 0 0 0 0 0 0 0 
0 0 0 0 0 0 0 0 0 
0 0 0 0 0 0 0 0 0 
0 0 0 0 0 0 0 0 0 
0 0 0 0 0 0 0 0 0 
0 0 0 0 0 0 0 0 0 
0 0 0 0 0 0 0 0 0 
0 0 0 0 0 0 0 0 0 
0 0 0 0 0 0 0 0 0 
0 0 0 0 0 0 0 0 0 
0 0 0 0 0 0 0 0 0 
0 0 0 0 0 0 0 0 0 
0 0 0 0 0 0 0 0 0 
0 0 0 0 0 0 0 0 0 
0 0 0 0 0 0 0 0 0 
0 0 0 0 0 0 0 0 0 
0 0 0 0 0 0 0 0 0 
0 0 0 0 0 0 0 0 0 
0 0 0 0 0 0 0 0 0 
0 0 0 0 0 0 0 0 0 
0 0 0 0 0 0 0 0 0 
0 0 0 0 0 0 0 0 0 
0 0 0 0 0 0 0 0 0 
0 0 0 0 0 0 0 0 0 
0 0 0 0 0 0 0 0 0 
0 0 0 0 0 0 0 0 0 
0 0 0 0 0 0 0 0 0 
0 0 0 0 0 0 0 0 0 
0 0 0 0 0 0 0 0 0 
0 0 0 0 0 0 0 0 0 
0 0 0 0 0 0 0 0 0 
0 0 0 0 0 0 0 0 0 
0 0 0 0 0 0 0 0 0 
0 0 0 0 0 0 0 0 0 
0 0 0 0 0 0 0 0 0 
0 0 0 0 0 0 0 0 0 
0 0 0 0 0 0 0 0 0 
0 0 0 0 0 0 0 0 0 
0 0 0 0 0 0 0 0 0 
0 0 0 0 0 0 0 0 0 
0 0 0 0 0 0 0 0 0 
0 0 0 0 0 0 0 0 0 
0 0 0 0 0 0 0 0 0 
0 0 0 0 0 0 0 0 0 
0 0 0 0 0 0 0 0 0 
0 0 0 0 0 0 0 0 0 
0 0 0 0 0 0 0 0 0 
0 0 0 0 0 0 0 0 0 
0 0 0 0 0 0 0 0 0 
0 0 0 0 0 0 0 0 0 
0 0 0 0 0 0 0 0 
NORMALS Normals float
-0.154883 -0.0199016 -0.987732 0.0321158 0.00348873 -0.999478 -0.00714896 -0.488737 -0.872402 
-0.207986 -0.587976 -0.781682 -0.0149453 -0.468632 -0.883267 0.0676435 -0.336381 -0.939294 
0.0491194 -0.207141 -0.977077 -0.0771342 -0.199719 -0.976813 -0.0924523 -0.291411 -0.95212 
0.0760077 -0.372917 -0.924746 0.364759 -0.457106 -0.811175 -0.364 -0.387061 -0.847165 
-0.0481188 -0.270048 -0.961644 0.0955986 -0.222823 -0.97016 0.18876 -0.138143 -0.972258 
0.10779 -0.0272201 -0.993801 -0.113497 -0.0372287 -0.992841 -0.156098 -0.11523 -0.980997 
0.0363816 -0.132424 -0.990525 0.296574 -0.185075 -0.936905 0.661067 -0.271399 -0.699523 
-0.639316 -0.279128 -0.716493 -0.156891 -0.0225995 -0.987357 -0.251387 -0.14177 -0.957447 
0.0313506 0.00241705 -0.999506 -0.023757 -0.0742241 -0.996959 0.139537 -0.0692621 -0.987792 
0.273927 -0.0549814 -0.960178 0.142759 -0.0154463 -0.989637 -0.161479 -0.047744 -0.985721 
-0.21127 -0.0698474 -0.974929 -0.0146831 -0.0310523 -0.99941 0.253139 -0.0535454 -0.965947 
0.5051 -0.153571 -0.849288 -0.157656 -0.0207516 -0.987276 -0.535425 -0.108986 -0.837521 
-0.154026 -0.0179964 -0.987903 0.0323545 0.00348807 -0.99947 0.0318438 0.00379821 -0.999486 
0.118913 0.00358123 -0.992898 0.23582 -0.0848028 -0.96809 0.117305 -0.143037 -0.982741 
-0.175538 -0.171048 -0.969499 -0.113616 -0.102826 -0.988189 0.0560305 -0.00248153 -0.998426 
0.168934 -0.0328329 -0.98508 0.400886 -0.127577 -0.907201 -0.477999 0.0232781 -0.878052 
-0.137302 0.0364299 -0.989859 0.000713849 0.0387072 -0.99925 0.0567984 0.0333117 -0.99783 
0.126665 -0.0432831 -0.991001 0.0716036 -0.159637 -0.984576 -0.118899 -0.0970068 -0.988156 
-0.0446466 -0.0310271 -0.998521 0.0624401 -0.0508233 -0.996754 0.137009 -0.0912878 -0.986354 
0.327492 -0.116329 -0.937666 -0.524016 0.167134 -0.835149 -0.149671 0.10283 -0.983374 
0.0256955 0.0823318 -0.996274 0.037864 0.0704247 -0.996798 0.0495934 0.0760663 -0.995869 
0.051404 -0.0139928 -0.99858 -0.039064 -0.0016318 -0.999235 -0.073537 0.0225517 -0.997037 
-0.00451703 -0.0379921 -0.999268 0.111411 -0.0529281 -0.992364 0.310831 -0.0343231 -0.949845 
0.650926 -0.0208456 -0.758855 -0.632077 0.345268 -0.693736 -0.238605 0.225109 -0.944666 
-0.0323889 0.148943 -0.988315 0.0495707 0.104384 -0.993301 0.0448645 0.0762338 -0.99608 
-0.0107838 0.0508501 -0.998648 -0.0771046 0.0114683 -0.996957 -0.0850113 0.0255863 -0.996051 
-0.0120383 0.0372574 -0.999233 0.133357 0.0592049 -0.989298 0.358068 0.120121 -0.925936 
0.688289 0.200898 -0.697064 -0.351049 0.415693 -0.839025 -0.108725 0.256172 -0.960497 
-0.0378794 0.158554 -0.986623 -0.00405478 0.0804401 -0.996751 -0.0141251 0.0412865 -0.999048 
-0.0667774 0.0575068 -0.996109 -0.0456017 0.116834 -0.992104 0.0309053 0.193489 -0.980615 
0.185037 0.259015 -0.947983 0.471569 0.355899 -0.80682 -0.293391 0.464957 -0.835306 
-0.121657 0.332584 -0.935194 -0.0725095 0.254585 -0.964328 -0.0328086 0.214593 -0.976152 
0.00835231 0.250744 -0.968017 0.0594112 0.365447 -0.928934 0.138232 0.461667 -0.876217 
0.298709 0.590835 -0.749458 -0.116831 0.554332 -0.824055 -0.00248272 0.558603 -0.829431 
0.0775995 0.599276 -0.796773 -0.00700346 -0.490561 -0.871378 -0.279113 -0.74759 -0.602665 
-0.135732 -0.667759 -0.731898 -0.261847 -0.846305 -0.463901 -0.0788609 -0.578711 -0.811711 
-0.12967 -0.665589 -0.734967 -0.0137656 -0.490342 -0.871422 -0.0430408 -0.482435 -0.874874 
-0.0500451 -0.504185 -0.862144 0.0207826 -0.544209 -0.838692 0.0431928 -0.586534 -0.808772 
0.0442349 -0.589114 -0.806838 0.181048 -0.651672 -0.736577 0.214722 -0.723576 -0.655998 
0.411739 -0.599368 -0.686461 0.53151 -0.81089 -0.244856 -0.442818 -0.693198 -0.568673 
-0.468845 -0.681059 -0.562444 -0.486824 -0.719486 -0.49532 0.544994 -0.508027 -0.667001 
0.677172 -0.309308 -0.667657 0.774546 -0.565653 -0.283047 -0.673073 -0.478389 -0.564018 
-0.700563 -0.442487 -0.559836 -0.729879 -0.495286 -0.471135 0.68165 -0.281955 -0.67517 
-0.779603 -0.288337 -0.55595 0.642844 -0.208654 -0.737031 0.889479 -0.355187 -0.287523 
-0.825953 -0.137419 -0.546733 0.616874 -0.191983 -0.763288 0.783605 -0.255193 -0.566428 
-0.846608 0.0183509 -0.5319 -0.99261 0.0427099 -0.113588 0.656148 -0.167496 -0.735809 
0.656601 -0.166674 -0.735592 0.656766 -0.167545 -0.735246 -0.82716 0.190217 -0.528794 
0.697796 -0.0176525 -0.716079 -0.732955 0.361486 -0.576285 -0.685554 0.4325 -0.585627 
0.701227 0.205147 -0.682784 0.700177 0.233377 -0.674749 -0.590992 0.493401 -0.638188 
-0.793757 0.503062 -0.341875 -0.477058 0.539522 -0.693781 0.636892 0.430064 -0.639854 
0.536707 0.570902 -0.621302 0.792618 0.502748 -0.344966 -0.430678 0.548439 -0.716751 
-0.562426 0.627505 -0.538437 -0.34458 0.588354 -0.731508 -0.248569 0.583681 -0.773 
0.177976 0.697194 -0.694439 0.229651 0.706847 -0.66905 0.439173 0.654218 -0.615732 
0.347405 0.697105 -0.627179 0.578445 0.717861 -0.387397 -0.446921 0.803396 -0.393467 
-0.212437 0.60456 -0.767709 -0.281691 0.661934 -0.694617 -0.11878 0.61483 -0.779664 
0.00442103 0.62465 -0.780892 0.170773 0.696414 -0.697025 0.0935923 0.66 -0.745413 
0.184631 0.713195 -0.676213 0.304866 0.863959 -0.400789 -0.340385 -0.912697 -0.226102 
-0.254505 -0.911693 -0.322557 -0.119856 -0.917707 -0.378746 -0.151679 -0.987992 0.0294348 
0.0256301 -0.923401 -0.382981 0.0385199 -0.995668 -0.0846231 0.176102 -0.923112 -0.341838 
0.319193 -0.901099 -0.29349 0.532108 -0.81259 -0.237821 -0.540743 -0.832851 -0.118135 
-0.387875 -0.906193 -0.168424 -0.414942 -0.899685 -0.135607 0.535289 -0.810606 -0.237451 
0.777028 -0.594019 -0.208253 -0.626713 -0.771012 -0.113015 -0.774575 -0.619172 -0.129075 
0.795959 -0.568615 -0.20767 -0.842535 -0.519428 -0.142584 0.883358 -0.402836 -0.239588 
0.893527 -0.361482 -0.266347 -0.946532 -0.290192 -0.140947 0.894054 -0.358542 -0.268543 
-0.985547 -0.121335 -0.118219 -0.994882 -0.00620247 -0.10085 0.900703 -0.294632 -0.319257 
-0.994631 0.0438728 -0.09372 -0.994084 0.0581083 -0.0917589 -0.998616 0.0514886 -0.010712 
0.930404 -0.172904 -0.32319 -0.979244 0.186707 -0.0788798 0.95342 0.0163579 -0.301203 
-0.942445 0.316527 -0.107741 0.91743 0.276604 -0.286029 -0.856205 0.48011 -0.190807 
-0.823846 0.527341 -0.207821 0.82346 0.511227 -0.24609 0.798686 0.550623 -0.242724 
-0.70435 0.656481 -0.270046 -0.616943 0.733258 -0.285858 0.414397 0.886476 -0.205999 
0.642608 0.734269 -0.21887 0.583212 0.783812 -0.213316 -0.491476 0.813947 -0.309745 
-0.459166 0.831103 -0.313743 -0.31173 0.90268 -0.296638 -0.152981 0.946663 -0.283593 
0.0249848 0.954581 -0.296903 0.184462 0.944079 -0.273291 0.264485 0.932158 -0.247244 
0.373252 0.903757 -0.209538 0.332639 0.916417 -0.222553 -0.151775 -0.987915 0.0314284 
0.0413677 -0.998979 0.018157 -0.415454 -0.900781 0.126457 -0.152463 -0.987805 0.0315588 
-0.336112 -0.939336 0.0683807 -0.151878 -0.987857 0.0327458 0.103297 -0.994432 0.0208328 
0.0373545 -0.995001 0.0926126 0.209981 -0.977418 0.0236994 0.364725 -0.930657 0.0291995 
0.564051 -0.824164 0.0509929 -0.541274 -0.813425 0.212982 -0.443364 -0.879553 0.172672 
-0.459303 -0.866268 0.196522 -0.444591 -0.816691 0.367906 0.598486 -0.799142 0.0564539 
0.574599 -0.798142 0.181126 0.786168 -0.611228 0.0913289 -0.597881 -0.772774 0.212977 
-0.753719 -0.62949 0.188812 -0.534108 -0.766107 0.357502 0.81672 -0.569598 0.0923351 
0.79035 -0.567527 0.230779 -0.821204 -0.542081 0.178247 -0.736249 -0.57401 0.358399 
0.89331 -0.442556 0.0783693 0.907851 -0.414147 0.0654852 -0.947278 -0.288168 0.140083 
0.914692 -0.399673 0.0600026 0.890004 -0.402859 0.213536 -0.984705 -0.110274 0.134892 
0.949526 -0.312674 0.0252151 -0.987304 0.0649727 0.144943 0.984698 -0.17411 0.00751988 
-0.964438 0.198518 0.174498 0.999574 0.02697 0.0111302 -0.94459 0.274133 0.180558 
0.955523 0.294024 0.0229069 -0.903518 0.408747 0.128768 -0.869921 0.482292 0.103112 
-0.882137 0.385534 0.270551 0.84222 0.537697 0.0393352 0.790793 0.610338 0.0461927 
-0.778016 0.625372 0.0599998 -0.662576 0.747552 0.0464766 0.425096 0.901681 0.0791522 
0.652005 0.755443 0.0647682 0.576945 0.81377 0.0700921 -0.540696 0.840086 0.0436253 
-0.455272 0.888775 0.0529732 -0.313482 0.945923 0.0834194 -0.148581 0.98383 0.100016 
0.0279541 0.995536 0.090145 0.199117 0.977176 0.0740297 0.286573 0.955174 0.0742853 
0.396677 0.914613 0.0782919 0.344141 0.935635 0.078449 -0.332956 -0.856387 0.39464 
-0.171855 -0.906236 0.386266 0.0166782 -0.9336 0.357929 0.186445 -0.927704 0.323425 
0.36162 -0.883579 0.297522 -0.448039 -0.775235 0.445277 -0.436388 -0.799942 0.411896 
-0.446397 -0.792616 0.415318 -0.317192 -0.742405 0.590105 0.527081 -0.794388 0.301884 
0.324378 -0.771107 0.54788 0.579094 -0.756328 0.304334 -0.491513 -0.74107 0.457417 
-0.526961 -0.711933 0.464181 -0.432649 -0.703778 0.563482 0.757255 -0.562896 0.33123 
0.785081 -0.522484 0.332654 -0.682014 -0.583344 0.441098 -0.733703 -0.530775 0.424214 
-0.482694 -0.586038 0.65082 0.839926 -0.428411 0.33315 0.752819 -0.376458 0.539947 
-0.866329 -0.335659 0.369874 -0.716795 -0.4042 0.568179 0.852661 -0.397214 0.339396 
0.861974 -0.3843 0.330626 -0.941577 -0.114282 0.316816 0.887912 -0.335752 0.314458 
0.803305 -0.332841 0.493881 -0.945515 0.0823226 0.315 0.936295 -0.182929 0.299816 
-0.926502 0.208801 0.313043 0.955612 0.0318859 0.292896 -0.908048 0.27544 0.315567 
-0.879034 0.343219 0.330907 -0.867219 0.28433 0.408764 0.905031 0.3043 0.297188 
-0.860673 0.37895 0.340057 0.777272 0.546599 0.311573 0.770143 0.556151 0.312372 
0.767359 0.548029 0.332904 -0.724716 0.606511 0.327003 -0.660272 0.67618 0.326836 
-0.642865 0.621068 0.448329 0.399509 0.849632 0.344264 0.317699 0.687112 0.65341 
0.577059 0.75245 0.317524 0.557528 0.766695 0.318341 0.553996 0.752377 0.356396 
-0.415646 0.8421 0.343667 -0.410166 0.844515 0.344323 -0.40866 0.842317 0.351426 
-0.258331 0.8806 0.397252 -0.207076 0.794416 0.570984 -0.136416 0.887942 0.439261 
-0.0948407 0.720492 0.686948 -0.00112416 0.898725 0.438512 -0.00293707 0.665863 0.746068 
0.158223 0.898785 0.408842 0.115563 0.69031 0.714225 0.261796 0.887527 0.379156 
0.225561 0.79171 0.56773 0.328695 0.874051 0.357763 0.32489 0.874886 0.359195 
0.322595 0.871323 0.369768 -0.172102 -0.669558 0.722546 -0.0376813 -0.699919 0.713228 
0.108811 -0.746491 0.656438 -0.369712 -0.620397 0.69168 -0.194317 -0.666825 0.719434 
-0.274324 -0.648274 0.710272 -0.170562 -0.654108 0.73692 -0.0434882 -0.640774 0.766497 
0.247992 -0.747509 0.616223 0.0953478 -0.702509 0.705259 0.315482 -0.732079 0.603764 
0.561953 -0.557662 0.610919 -0.378114 -0.614172 0.692693 -0.383492 -0.603875 0.698762 
-0.350958 -0.582992 0.732768 -0.203745 -0.497446 0.843229 -0.100111 -0.391384 0.914766 
-0.0497525 -0.320495 0.945943 0.0457184 -0.370034 0.927893 0.247609 -0.401831 0.881602 
0.601691 -0.512613 0.612532 0.546953 -0.496253 0.674222 -0.44738 -0.57184 0.687641 
-0.470153 -0.559258 0.682779 -0.322253 -0.51853 0.79201 -0.248302 -0.42761 0.869193 
-0.0978628 -0.387784 0.91654 0.0240965 -0.264702 0.964029 -0.033706 -0.131062 0.990801 
0.204223 -0.133456 0.969785 0.68821 -0.342048 0.63982 0.451093 -0.25292 0.855889 
0.684388 -0.333798 0.648222 -0.64217 -0.41946 0.641616 -0.721566 -0.332218 0.607432 
-0.430287 -0.431103 0.793097 -0.265655 -0.391908 0.880816 0.0412684 -0.0112865 0.999084 
0.0878622 -0.0492741 0.994913 0.306648 -0.138393 0.941708 0.661878 -0.321151 0.677332 
0.596929 -0.280214 0.751769 -0.810099 -0.175888 0.559289 -0.736004 -0.195915 0.648009 
-0.391459 -0.261022 0.882399 0.21491 -0.129491 0.968011 0.691056 -0.307477 0.65414 
0.448705 -0.242801 0.860065 0.743741 -0.228315 0.628268 -0.861721 0.0581612 0.504037 
-0.782235 0.033747 0.622069 0.387999 -0.155633 0.908425 0.753265 -0.184397 0.63134 
0.723287 -0.180208 0.666619 -0.850764 0.204015 0.484332 -0.84264 0.234623 0.484674 
-0.826412 0.199779 0.526433 0.380519 -5.55753e-05 0.924773 0.781524 0.0173885 0.623633 
0.716578 0.00975599 0.697439 -0.816603 0.287365 0.50058 -0.54647 0.270761 0.792502 
0.364834 0.258163 0.894566 0.747108 0.301846 0.592214 0.73366 0.332512 0.592603 
0.729242 0.299537 0.615211 -0.723634 0.421458 0.546559 -0.622611 0.534997 0.571081 
-0.604891 0.432273 0.668765 -0.243426 0.400014 0.883591 0.0864037 0.291736 0.952588 
0.0426938 0.29264 0.955269 0.0334109 0.32332 0.9457 0.0599574 0.354728 0.933045 
0.310421 0.671506 0.672844 0.203176 0.437429 0.876 0.570607 0.52115 0.634673 
0.502847 0.579186 0.64163 0.479341 0.501752 0.720054 -0.479693 0.624475 0.61638 
-0.343852 0.694101 0.632447 -0.314734 0.610088 0.727141 -0.157113 0.701275 0.695362 
-0.0922972 0.564013 0.820592 -0.075771 0.669635 0.738815 -0.0016196 0.477294 0.878742 
0.000620433 0.636923 0.770927 0.0369856 0.406752 0.912789 0.100391 0.624141 0.774835 
0.0664726 0.408211 0.910464 0.156126 0.631345 0.759624 0.0939608 0.469401 0.877972 
0.301391 0.672182 0.676266 0.221314 0.668365 0.710147 0.18288 0.568021 0.802438 
0.0163557 -0.1406 0.989931 -0.217812 -0.378455 0.899628 -0.0921899 -0.381626 0.919708 
0.0430641 -0.257774 0.965245 -0.002867 -0.113304 0.993556 0.0900062 -0.121331 0.988523 
0.0635072 -0.11218 0.991656 0.0343436 -0.0342989 0.998821 0.0115482 -0.10468 0.994439 
-0.246959 -0.378934 0.891863 -0.2596 -0.370093 0.891986 -0.199439 -0.350287 0.915163 
-0.0296286 -0.292558 0.955789 0.173618 -0.211095 0.961923 0.0730957 -0.0573432 0.995675 
0.116212 -0.119878 0.985964 0.0481225 -0.0416443 0.997973 0.0918424 -0.119933 0.988525 
-0.38629 -0.261378 0.884568 -0.393766 -0.251288 0.884196 -0.240262 -0.270834 0.93216 
-0.132228 -0.235784 0.962768 0.0537537 -0.0923834 0.994272 0.205076 -0.0248206 0.978431 
0.164543 -0.183933 0.969069 0.0818091 -0.19566 0.977253 0.096894 -0.125197 0.987389 
0.0925162 -0.125294 0.987797 0.195748 -0.132358 0.971681 -0.516054 -0.0487558 0.855167 
-0.442569 -0.0695132 0.894036 -0.230284 -0.0992023 0.968054 -0.0189818 -0.0533817 0.998394 
0.185223 0.0493279 0.981458 0.0825562 0.0423255 0.995687 -0.0448023 -0.133607 0.990021 
0.101092 -0.18448 0.977623 0.159865 -0.134322 0.977957 0.23227 -0.140299 0.96248 
0.187849 -0.136851 0.972617 -0.553686 0.132479 0.82212 -0.52017 0.209107 0.828069 
-0.496214 0.118183 0.860119 -0.226628 0.101453 0.968683 0.0198051 0.122296 0.992296 
0.155073 0.115665 0.981109 0.0206974 0.0551075 0.998266 -0.0636977 0.110279 0.991857 
0.0866609 0.130795 0.987615 0.138877 0.0495909 0.989067 0.292125 0.00759971 0.95635 
0.189484 0.022589 0.981624 -0.468047 0.264714 0.843124 -0.241411 0.39249 0.887509 
-0.225431 0.251047 0.941359 -0.00130247 0.256238 0.966613 0.114071 0.231145 0.966209 
0.0869991 0.26016 0.961638 0.0822854 0.208589 0.974536 0.0388335 0.299747 0.953228 
0.034206 0.308161 0.950719 0.0304302 0.315357 0.948485 0.032278 0.313561 0.949019 
0.0490674 0.274345 0.960379 0.0474982 0.24967 0.967165 0.147727 0.229224 0.962098 
0.13626 0.236092 0.96213 0.134646 0.227896 0.964331 -0.209153 0.397593 0.893406 
-0.0170055 0.407192 0.913184 -0.00780438 0.37885 0.925425 0.0944412 0.33861 0.936175 
0.0940038 0.340566 0.93551 0.0946151 0.339783 0.935733 
