# vtk DataFile Version 4.2
vtk output
ASCII
DATASET POLYDATA
POINTS 530 float
-46.2607 -0.694703 -20.982 -46.2607 16.1632 -21.3573 -12.5449 -42.8395 -13.6208 
-4.11598 -42.8395 -15.1794 4.31297 -42.8395 -14.9465 12.7419 -42.8395 -13.5837 
-29.4028 -34.4105 -13.8476 -20.9739 -34.4105 -14.8843 -12.5449 -34.4105 -16.8115 
-4.11598 -34.4105 -18.3295 4.31297 -34.4105 -18.0344 12.7419 -34.4105 -17.2464 
21.1709 -34.4105 -15.9089 -54.6897 -25.9816 -13.7653 -46.2607 -25.9816 -15.9284 
-37.8318 -25.9816 -15.9874 -29.4028 -25.9816 -16.5531 -20.9739 -25.9816 -16.0102 
-12.5449 -25.9816 -17.2698 -4.11598 -25.9816 -18.4368 4.31297 -25.9816 -18.3567 
12.7419 -25.9816 -18.819 21.1709 -25.9816 -18.7453 29.5998 -25.9816 -16.6798 
-63.1186 -17.5526 -12.4625 -54.6897 -17.5526 -16.4872 -46.2607 -17.5526 -17.4392 
-37.8318 -17.5526 -18.6216 -29.4028 -17.5526 -17.3507 -20.9739 -17.5526 -16.2077 
-12.5449 -17.5526 -16.6079 -4.11598 -17.5526 -18.0235 4.31297 -17.5526 -16.8689 
12.7419 -17.5526 -18.9598 21.1709 -17.5526 -19.3317 29.5998 -17.5526 -18.0979 
38.0288 -17.5526 -15.3237 46.4577 -17.5526 -12.6054 -63.1186 -9.12365 -14.1036 
-54.6897 -9.12365 -18.0564 -46.2607 -2.70758 -20.6705 -46.2607 -9.12365 -19.5105 
-37.8318 -9.12365 -18.9296 -29.4028 -9.12365 -17.8107 -20.9739 -9.12365 -16.3783 
-12.5449 -9.12365 -18.3863 -4.11598 -9.12365 -18.8652 4.31297 -9.12365 -17.235 
12.7419 -9.12365 -19.9196 21.1709 -9.12365 -18.3537 29.5998 -9.12365 -17.5769 
38.0288 -9.12365 -17.2124 46.4577 -9.12365 -15.9755 54.8867 -9.12365 -13.7689 
-63.1186 -0.694703 -15.9774 -47.6642 -0.694703 -20.6705 -54.6897 -0.694703 -18.8522 
-43.6786 -0.694703 -20.6705 -46.2607 3.75144 -20.6705 -37.8318 -0.694703 -19.8799 
-29.4028 -0.694703 -18.5471 -20.9739 -0.694703 -16.7338 -12.5449 -0.694703 -18.2097 
-4.11598 -0.694703 -17.9867 4.31297 -0.694703 -17.0293 12.7419 -0.694703 -18.8399 
21.1709 -0.694703 -16.5738 29.5998 -0.694703 -17.5038 38.0288 -0.694703 -18.1497 
46.4577 -0.694703 -17.9838 54.8867 -0.694703 -17.1538 63.3156 -0.694703 -14.3176 
-63.1186 7.73425 -16.2952 -54.6897 7.73425 -19.0558 -46.2607 10.5013 -20.6705 
-46.2607 7.73425 -20.3587 -37.8318 7.73425 -20.4525 -29.4028 7.73425 -19.1039 
-20.9739 7.73425 -17.1162 -12.5449 7.73425 -15.775 -4.11598 7.73425 -17.8699 
4.31297 7.73425 -17.7085 12.7419 7.73425 -17.2219 21.1709 7.73425 -15.8667 
29.5998 7.73425 -17.0623 38.0288 7.73425 -18.0891 46.4577 7.73425 -18.3447 
54.8867 7.73425 -18.4793 63.3156 7.73425 -14.357 -63.1186 16.1632 -15.9616 
-48.1797 16.1632 -20.6705 -54.6897 16.1632 -18.6804 -39.3457 16.1632 -20.6705 
-46.2607 18.8091 -20.6705 -37.8318 16.1632 -20.5341 -29.4028 16.1632 -19.7 
-20.9739 16.1632 -18.5326 -12.5449 16.1632 -17.6813 -4.11598 16.1632 -15.3211 
4.31297 16.1632 -15.5919 12.7419 16.1632 -16.0562 21.1709 16.1632 -14.317 
29.5998 16.1632 -15.8405 38.0288 16.1632 -16.7517 46.4577 16.1632 -17.0877 
54.8867 16.1632 -16.2658 63.3156 16.1632 -13.6928 -63.1186 24.5921 -12.2562 
-54.6897 24.5921 -17.3641 -46.2607 24.5921 -19.078 -37.8318 24.5921 -19.6875 
-29.4028 24.5921 -20.3415 -20.9739 24.5921 -19.4489 -12.5449 24.5921 -18.1608 
-4.11598 24.5921 -15.4817 4.31297 24.5921 -14.4121 12.7419 24.5921 -13.4305 
29.5998 24.5921 -12.3676 38.0288 24.5921 -12.8781 46.4577 24.5921 -13.5871 
54.8867 24.5921 -12.82 -46.2607 33.0211 -16.3107 -37.8318 33.0211 -17.7042 
-29.4028 33.0211 -19.4336 -20.9739 33.0211 -18.1935 -12.5449 33.0211 -16.6328 
-4.11598 33.0211 -13.9773 -29.4028 41.4501 -12.9814 -20.9739 41.4501 -12.7202 
-12.5449 -44.5761 -12.2415 -4.11598 -46.3462 -12.2415 4.31297 -46.1587 -12.2415 
12.7419 -44.5833 -12.2415 -29.4028 -37.7859 -12.2415 -29.4028 -42.8395 -6.30501 
-16.0899 -42.8395 -12.2415 -20.9739 -39.355 -12.2415 -20.9739 -42.8395 -9.46904 
15.967 -42.8395 -12.2415 21.1709 -39.8665 -12.2415 21.1709 -42.8395 -6.74993 
-54.6897 -28.1396 -12.2415 -46.2607 -32.7276 -12.2415 -46.2607 -34.4105 -10.6654 
-37.7275 -34.4105 -12.2415 -37.8318 -34.361 -12.2415 -37.8318 -34.4105 -12.2135 
28.3792 -34.4105 -12.2415 29.5998 -33.3784 -12.2415 29.5998 -34.4105 -10.883 
-57.0861 -25.9816 -12.2415 -63.1186 -17.9804 -12.2415 37.5355 -25.9816 -12.2415 
38.0288 -25.2975 -12.2415 38.0288 -25.9816 -11.8477 46.4577 -18.234 -12.2415 
46.4577 -25.9816 -6.41135 -63.3822 -17.5526 -12.2415 47.6068 -17.5526 -12.2415 
54.8867 -12.7114 -12.2415 54.8867 -17.5526 -9.46935 -65.4227 -9.12365 -12.2415 
58.4269 -9.12365 -12.2415 63.3156 -5.30884 -12.2415 63.3156 -9.12365 -9.56906 
-68.0421 -0.694703 -12.2415 -71.5476 -0.694703 -5.63318 66.2084 -0.694703 -12.2415 
71.7446 -0.694703 -5.44151 -67.8987 7.73425 -12.2415 67.6516 7.73425 -12.2415 
71.7446 7.73425 -9.19429 -67.015 16.1632 -12.2415 21.1709 23.2581 -12.2415 
65.4732 16.1632 -12.2415 63.3156 18.7735 -12.2415 71.7446 16.1632 -5.17729 
-63.1327 24.5921 -12.2415 -63.1186 24.6097 -12.2415 -54.6897 32.286 -12.2415 
4.31297 31.9656 -12.2415 18.9751 24.5921 -12.2415 12.7419 27.5136 -12.2415 
27.6416 24.5921 -12.2415 21.1709 24.5921 -11.8268 29.5998 24.832 -12.2415 
38.0288 25.5178 -12.2415 46.4577 26.2803 -12.2415 56.1363 24.5921 -12.2415 
54.8867 25.5558 -12.2415 63.3156 24.5921 -7.14748 -53.691 33.0211 -12.2415 
-54.6897 33.0211 -10.6284 -46.2607 36.7033 -12.2415 -37.8318 40.8365 -12.2415 
-12.5449 39.4275 -12.2415 2.95496 33.0211 -12.2415 -4.11598 35.6549 -12.2415 
4.31297 33.0211 -11.8436 12.7419 33.0211 -9.39746 21.1709 33.0211 -6.62373 
29.5998 33.0211 -6.27809 38.0288 33.0211 -6.37867 46.4577 33.0211 -5.69528 
-34.4593 41.4501 -12.2415 -37.8318 41.4501 -10.5101 -29.4028 42.1278 -12.2415 
-19.1221 41.4501 -12.2415 -20.9739 41.8641 -12.2415 -12.5449 41.4501 -9.22442 
-4.11598 41.4501 -4.72841 -29.4028 -43.9147 -3.81257 -20.9739 -46.3734 -3.81257 
-12.5449 -49.0771 -3.81257 -4.11598 -51.0214 -3.81257 4.31297 -51.2084 -3.81257 
12.7419 -49.451 -3.81257 21.1709 -44.0637 -3.81257 -46.2607 -37.7494 -3.81257 
-32.7168 -42.8395 -3.81257 -37.8318 -41.1072 -3.81257 -29.4028 -42.8395 1.76435 
22.9812 -42.8395 -3.81257 29.5998 -38.2259 -3.81257 -52.073 -34.4105 -3.81257 
-54.6897 -32.6246 -3.81257 35.2469 -34.4105 -3.81257 38.0288 -32.5562 -3.81257 
46.4577 -27.759 -3.81257 -61.7707 -25.9816 -3.81257 -63.1186 -24.1698 -3.81257 
49.5201 -25.9816 -3.81257 54.8867 -22.549 -3.81257 -67.1992 -17.5526 -3.81257 
61.7918 -17.5526 -3.81257 63.3156 -16.1228 -3.81257 63.3156 -17.5526 0.191257 
-70.3795 -9.12365 -3.81257 -71.5476 -3.46637 -3.81257 68.5135 -9.12365 -3.81257 
71.7446 -3.16318 -3.81257 -72.1199 -0.694703 -3.81257 -71.5476 6.60907 -3.81257 
-71.5476 -0.694703 -2.25592 72.848 -0.694703 -3.81257 -71.4593 7.73425 -3.81257 
75.1196 7.73425 -3.81257 -69.5316 16.1632 -3.81257 72.6976 16.1632 -3.81257 
71.7446 18.1486 -3.81257 -65.0633 24.5921 -3.81257 -63.1186 26.9794 -3.81257 
-63.1186 24.5921 0.867045 54.8867 31.9036 -3.81257 67.0638 24.5921 -3.81257 
63.3156 27.7178 -3.81257 -56.8055 33.0211 -3.81257 -54.6897 34.7779 -3.81257 
-54.6897 33.0211 1.0254 -46.2607 39.6494 -3.81257 4.31297 39.9394 -3.81257 
12.7419 37.7576 -3.81257 21.1709 35.6252 -3.81257 29.5998 35.0014 -3.81257 
38.0288 35.0359 -3.81257 51.5175 33.0211 -3.81257 46.4577 34.4502 -3.81257 
54.8867 33.0211 0.265978 -41.8223 41.4501 -3.81257 -37.8318 42.9305 -3.81257 
-37.8318 41.4501 4.4818 -29.4028 45.2205 -3.81257 -20.9739 45.0179 -3.81257 
-12.5449 43.7371 -3.81257 -2.08768 41.4501 -3.81257 -4.11598 41.8923 -3.81257 
-20.9739 -44.1286 4.61638 -12.5449 -47.1679 4.61638 -4.11598 -49.8271 4.61638 
4.31297 -50.6815 4.61638 12.7419 -48.5656 4.61638 21.1709 -43.7361 4.61638 
-46.2607 -35.0945 4.61638 -37.8318 -38.0578 4.61638 -26.603 -42.8395 4.61638 
-29.4028 -42.0463 4.61638 -20.9739 -42.8395 6.19719 -12.5449 -42.8395 9.49828 
-4.11598 -42.8395 12.5738 12.7419 -42.8395 12.4445 22.4761 -42.8395 4.61638 
21.1709 -42.8395 6.32644 29.5998 -38.3474 4.61638 -47.3448 -34.4105 4.61638 
-54.6897 -28.8944 4.61638 -46.2607 -34.4105 5.34472 -37.8318 -34.4105 8.75256 
-29.4028 -34.4105 10.6674 -20.9739 -34.4105 12.5712 36.3256 -34.4105 4.61638 
29.5998 -34.4105 11.8495 38.0288 -33.5565 4.61638 46.4577 -29.9127 4.61638 
-57.6606 -25.9816 4.61638 -63.1186 -18.3315 4.61638 -54.6897 -25.9816 6.94478 
-46.2607 -25.9816 11.372 -37.8318 -25.9816 12.5055 53.8696 -25.9816 4.61638 
54.8867 -25.3999 4.61638 63.3156 -18.7192 4.61638 -63.59 -17.5526 4.61638 
-63.1186 -17.5526 5.06292 -54.6897 -17.5526 10.7878 -46.2607 -17.5526 12.9614 
64.4152 -17.5526 4.61638 63.3156 -17.5526 7.05064 -67.0844 -9.12365 4.61638 
-63.1186 -9.12365 8.4371 -54.6897 -9.12365 12.0115 70.2855 -9.12365 4.61638 
71.7446 -5.2418 4.61638 -67.8809 -0.694703 4.61638 -63.1186 -0.694703 9.04458 
73.2078 -0.694703 4.61638 71.7446 -0.694703 7.14865 -66.9774 7.73425 4.61638 
-63.1186 7.73425 8.42493 75.4108 7.73425 4.61638 71.7446 7.73425 9.90896 
-65.9183 16.1632 4.61638 -63.1186 21.4215 4.61638 -63.1186 16.1632 7.37359 
-54.6897 16.1632 11.9751 72.6142 16.1632 4.61638 71.7446 18.1536 4.61638 
71.7446 16.1632 5.91222 -61.2507 24.5921 4.61638 -54.6897 31.4802 4.61638 
-54.6897 24.5921 10.303 67.9399 24.5921 4.61638 63.3156 29.0778 4.61638 
63.3156 24.5921 10.4576 -52.7403 33.0211 4.61638 -46.2607 37.3452 4.61638 
-46.2607 33.0211 9.92011 -37.8318 41.4196 4.61638 4.31297 41.4363 4.61638 
12.7419 40.1188 4.61638 21.1709 39.2214 4.61638 29.5998 38.2812 4.61638 
38.0288 37.6631 4.61638 46.4577 36.6901 4.61638 46.4577 33.0211 11.4561 
57.012 33.0211 4.61638 54.8867 34.0112 4.61638 54.8867 33.0211 7.60292 
-37.7314 41.4501 4.61638 -29.4028 43.57 4.61638 -29.4028 41.4501 7.98126 
-20.9739 44.0681 4.61638 -20.9739 41.4501 9.40869 -12.5449 43.5571 4.61638 
-12.5449 41.4501 9.03472 4.21302 41.4501 4.61638 -4.11598 42.5324 4.61638 
-4.11598 41.4501 7.31267 4.31297 -44.3126 13.0453 -12.5449 -37.1287 13.0453 
-1.848 -42.8395 13.0453 -4.11598 -41.7732 13.0453 10.414 -42.8395 13.0453 
4.31297 -42.8395 14.0569 12.7419 -42.0288 13.0453 21.1709 -37.4786 13.0453 
-29.4028 -28.1632 13.0453 -18.8882 -34.4105 13.0453 -20.9739 -33.1165 13.0453 
[...]
POINT_DATA 530
SCALARS ImageScalars float
LOOKUP_TABLE default
0 0 0 0 0 0 0 0 0 
0 0 0 0 0 0 0 0 0 
0 0 0 0 0 0 0 0 0 
0 0 0 0 0 0 0 0 0 
0 0 0 0 0 0 0 0 0 
0 0 0 0 0 0 0 0 0 
0 0 0 0 0 0 0 0 0 
0 0 0 0 0 0 0 0 0 
0 0 0 0 0 0 0 0 0 
0 0 0 0 0 0 0 0 0 
0 0 0 0 0 0 0 0 0 
0 0 0 0 0 0 0 0 0 
0 0 0 0 0 0 0 0 0 
0 0 0 0 0 0 0 0 0 
0 0 0 0 0 0 0 0 0 
0 0 0 0 0 0 0 0 0 
0 0 0 0 0 0 0 0 0 
0 0 0 0 0 0 0 0 0 
0 0 0 0 0 0 0 0 0 
0 0 0 0 0 0 0 0 0 
0 0 0 0 0 0 0 0 0 
0 0 0 0 0 0 0 0 0 
0 0 0 0 0 0 0 0 0 
0 0 0 0 0 0 0 0 0 
0 0 0 0 0 0 0 0 0 
0 0 0 0 0 0 0 0 0 
0 0 0 0 0 0 0 0 0 
0 0 0 0 0 0 0 0 0 
0 0 0 0 0 0 0 0 0 
0 0 0 0 0 0 0 0 0 
0 0 0 0 0 0 0 0 0 
0 0 0 0 0 0 0 0 0 
0 0 0 0 0 0 0 0 0 
0 0 0 0 0 0 0 0 0 
0 0 0 0 0 0 0 0 0 
0 0 0 0 0 0 0 0 0 
0 0 0 0 0 0 0 0 0 
0 0 0 0 0 0 0 0 0 
0 0 0 0 0 0 0 0 0 
0 0 0 0 0 0 0 0 0 
0 0 0 0 0 0 0 0 0 
0 0 0 0 0 0 0 0 0 
0 0 0 0 0 0 0 0 0 
0 0 0 0 0 0 0 0 0 
0 0 0 0 0 0 0 0 0 
0 0 0 0 0 0 0 0 0 
0 0 0 0 0 0 0 0 0 
0 0 0 0 0 0 0 0 0 
0 0 0 0 0 0 0 0 0 
0 0 0 0 0 0 0 0 0 
0 0 0 0 0 0 0 0 0 
0 0 0 0 0 0 0 0 0 
0 0 0 0 0 0 0 0 0 
0 0 0 0 0 0 0 0 0 
0 0 0 0 0 0 0 0 0 
0 0 0 0 0 0 0 0 0 
0 0 0 0 0 0 0 0 0 
0 0 0 0 0 0 0 0 0 
0 0 0 0 0 0 0 0 
NORMALS Normals float
0.0529707 0.0442856 0.997614 0.124919 -0.0630479 0.990162 0.247202 0.545478 0.80084 
0.0733727 0.517035 0.852814 -0.0839727 0.508608 0.856893 -0.253817 0.571774 0.780161 
0.124954 0.379587 0.916679 0.176618 0.278939 0.943927 0.193677 0.199135 0.960643 
0.0697602 0.167934 0.983327 -0.0631753 0.174126 0.982695 -0.117465 0.27145 0.955258 
-0.276794 0.449079 0.849537 0.417223 0.481376 0.770845 0.141379 0.339906 0.929772 
0.0343375 0.314695 0.948572 0.000104115 0.222168 0.975008 0.044377 0.0719477 0.996421 
0.142429 -0.0138367 0.989708 0.0642693 -0.0185518 0.99776 0.0215189 -0.0723137 0.99715 
0.021896 0.0997546 0.994771 -0.113933 0.185403 0.976035 -0.365832 0.309951 0.877552 
0.609286 0.338491 0.717073 0.318894 0.310232 0.89558 0.110225 0.186043 0.976339 
-0.00751684 0.163601 0.986498 -0.138726 0.0713127 0.98776 -0.0435363 0.0213458 0.998824 
0.109826 0.0425202 0.993041 0.0154201 0.0207559 0.999666 0.0459203 -0.0632701 0.996939 
0.150119 0.0644679 0.986564 -0.0483 -0.0222024 0.998586 -0.225348 0.0450941 0.973234 
-0.283472 0.278804 0.917558 -0.292359 0.428265 0.855053 0.580093 0.190467 0.791968 
0.246627 0.10906 0.962954 0.0598278 0.0829834 0.994753 0.066689 0.210232 0.975374 
-0.0989157 0.0735048 0.992377 -0.147373 0.0698586 0.986611 0.00671056 0.0315274 0.99948 
0.165919 0.11505 0.979405 -0.068507 0.0153548 0.997532 0.0742123 0.0142976 0.99714 
0.047894 -0.00071981 0.998852 -0.139887 -0.168564 0.975714 -0.0668534 -0.0332882 0.997207 
-0.0911471 0.157725 0.983268 -0.187285 0.272469 0.943761 -0.300223 0.372802 0.878 
0.511384 0.113191 0.851865 0.0838906 0.0525596 0.995088 0.259645 0.0669226 0.963383 
-0.00519647 0.0586728 0.998264 0.0664535 0.030794 0.997314 -0.142392 0.0889145 0.985809 
-0.183443 0.0751886 0.980151 -0.0501547 0.0440144 0.997771 0.0984602 -0.177484 0.979186 
-0.0682027 -0.0717903 0.995085 0.0639055 0.0343181 0.997366 -0.0635799 -0.158337 0.985336 
-0.0566184 -0.141979 0.988249 0.0928481 -0.03018 0.995223 0.0285589 0.051781 0.99825 
-0.0545998 0.135401 0.989285 -0.226502 0.241641 0.94356 -0.472001 0.191678 0.860509 
0.551005 -0.00399828 0.834493 0.208166 -0.0129577 0.978008 0.0935075 -0.00971415 0.995571 
0.0784735 0.0165784 0.996778 -0.0745471 0.039263 0.996444 -0.193917 0.0671023 0.97872 
-0.193521 0.107816 0.975154 0.02578 0.0108356 0.999609 0.11996 -0.174923 0.977247 
-0.0329164 -0.0874594 0.995624 -0.110995 -0.156022 0.981498 0.00663157 -0.137145 0.990529 
0.124473 -0.0963658 0.987532 0.0752947 -0.078795 0.994043 0.0224966 -0.0561102 0.998171 
-0.205558 -0.0442129 0.977646 -0.406291 -0.0407816 0.912833 0.553958 -0.228736 0.800506 
0.165132 -0.0627644 0.984272 0.2875 -0.0746078 0.95487 -0.0564555 -0.0483044 0.997236 
0.116411 -0.115845 0.986422 -0.0929514 -0.0441258 0.994692 -0.118685 0.0718609 0.990328 
-0.118701 0.139689 0.983055 -0.189627 0.132858 0.972826 -0.119971 -0.119454 0.985565 
0.0427193 -0.197852 0.979301 -0.0823538 -0.211914 0.973812 -0.002312 -0.217954 0.975956 
0.13934 -0.26016 0.955459 0.073905 -0.272391 0.959344 -0.0236835 -0.250236 0.967895 
-0.221065 -0.340257 0.913978 -0.445501 -0.287222 0.847958 0.65235 -0.550436 0.521018 
0.374565 -0.365968 0.85192 0.118803 -0.253333 0.960056 0.0691196 -0.151943 0.98597 
-0.0141019 -0.00679862 0.999877 -0.126649 -0.0195912 0.991754 -0.222333 -0.0564846 0.973333 
-0.223246 -0.0739521 0.971953 -0.109941 -0.195626 0.974497 -0.148315 -0.328061 0.932941 
0.0562546 -0.455926 0.888238 0.0658987 -0.516744 0.8536 -0.0132424 -0.559325 0.828842 
-0.265793 -0.477223 0.837623 0.308985 -0.558051 0.770134 0.153134 -0.37662 0.913623 
0.0160775 -0.339782 0.940367 -0.145741 -0.315743 0.937585 -0.243444 -0.350836 0.90424 
-0.265343 -0.374362 0.888508 0.0405047 -0.777538 0.627531 -0.111652 -0.786918 0.606872 
0.262969 0.631054 0.729807 0.0715913 0.703415 0.707165 -0.0746261 0.685617 0.724127 
-0.271625 0.647987 0.711571 0.169151 0.522013 0.835997 0.287811 0.91101 0.29534 
0.256483 0.606548 0.752539 0.213689 0.528883 0.821353 0.283184 0.782952 0.553889 
-0.337455 0.650248 0.680663 -0.407214 0.656014 0.63547 -0.51944 0.804018 0.289375 
0.444189 0.544173 0.711738 0.256842 0.610871 0.748911 0.329408 0.725863 0.603833 
0.153917 0.554745 0.81766 0.153586 0.555703 0.817071 0.154871 0.558499 0.81492 
-0.475425 0.613755 0.630299 -0.490774 0.598468 0.633227 -0.515179 0.660515 0.546178 
0.501314 0.507406 0.700873 0.618365 0.349657 0.703822 -0.451163 0.454204 0.768213 
-0.441439 0.446945 0.778056 -0.456548 0.47296 0.753573 -0.306578 0.44488 0.841482 
-0.466767 0.722482 0.510048 0.623475 0.341124 0.703501 -0.307735 0.445808 0.840568 
-0.351869 0.439847 0.82627 -0.426761 0.584396 0.690186 0.71522 0.200334 0.669572 
-0.391539 0.437931 0.809267 -0.501898 0.385466 0.774283 -0.553588 0.524126 0.647172 
0.709234 0.102803 0.697438 0.992303 0.072358 0.100498 -0.589203 0.244012 0.770258 
-0.847158 0.337253 0.410588 0.750109 -0.0562945 0.658913 -0.548984 -0.0303145 0.835283 
-0.797185 -0.0148884 0.603552 0.82533 -0.260715 0.500857 -0.0473769 -0.351731 0.934901 
-0.523735 -0.319583 0.789663 -0.473587 -0.406248 0.781459 -0.839724 -0.373704 0.393966 
0.65306 -0.550461 0.520101 0.652545 -0.550962 0.520217 0.526384 -0.664106 0.530926 
-0.207855 -0.427746 0.879676 -0.0825897 -0.365109 0.927294 -0.185653 -0.404194 0.895634 
0.0288523 -0.438421 0.898307 -0.0602827 -0.38269 0.921908 0.0540078 -0.461363 0.885566 
0.0523509 -0.530617 0.845994 -0.00119191 -0.626338 0.779551 -0.304398 -0.507059 0.80637 
-0.275629 -0.517969 0.809776 -0.528634 -0.663722 0.529167 0.516532 -0.675078 0.526748 
0.56384 -0.715204 0.412998 0.392572 -0.744343 0.540223 0.254919 -0.83391 0.489501 
-0.252225 -0.706058 0.661713 -0.22853 -0.45038 0.863094 -0.269505 -0.518635 0.811409 
-0.224288 -0.476376 0.850153 -0.251657 -0.615746 0.746677 -0.138382 -0.696598 0.70399 
-0.0120969 -0.750895 0.660311 -0.0261857 -0.76971 0.637856 -0.138909 -0.826936 0.544868 
0.171972 -0.834501 0.523483 0.270621 -0.890573 0.365573 0.0500215 -0.803319 0.593444 
-0.141838 -0.794149 0.59094 -0.114141 -0.803328 0.584496 -0.225655 -0.865605 0.446998 
-0.220837 -0.924705 0.310084 0.303394 0.945863 0.115303 0.312306 0.939746 0.139078 
0.275247 0.956621 0.0954756 0.121722 0.983622 0.132933 -0.078299 0.981212 0.176329 
-0.36036 0.921381 0.145591 -0.543113 0.82688 0.145939 0.443163 0.893385 0.0739541 
0.315776 0.942512 0.109348 0.338156 0.934715 0.109359 0.301459 0.915483 -0.266482 
-0.549597 0.823028 0.143417 -0.569757 0.800985 0.18385 0.557347 0.828811 0.0493656 
0.613239 0.789081 0.0359151 -0.53057 0.816029 0.229329 -0.511243 0.811176 0.283944 
-0.468332 0.790758 0.394167 0.770142 0.637765 0.0117104 0.802616 0.596432 0.00874345 
-0.493653 0.765028 0.413569 -0.517493 0.725193 0.454199 0.883424 0.468544 0.00546145 
-0.613325 0.664611 0.426761 -0.645999 0.636229 0.42178 -0.702043 0.687751 0.184757 
0.964834 0.262829 0.00412441 0.991655 0.126835 -0.0230774 -0.757971 0.522663 0.390261 
-0.848525 0.399129 0.347422 0.997521 0.0642366 -0.0287161 0.992623 -0.113569 -0.0424503 
0.993512 0.0645628 -0.0936253 -0.883464 0.332451 0.330104 0.989 -0.14102 -0.0446245 
-0.960857 -0.00687456 0.276958 0.933799 -0.354694 -0.0470296 -0.87521 -0.365188 0.317245 
-0.835749 -0.438046 0.331119 0.817973 -0.570009 -0.0775217 0.76449 -0.64038 -0.0739551 
0.768201 -0.54801 -0.330988 -0.316129 -0.877141 0.361506 -0.641563 -0.668422 0.37631 
-0.546953 -0.727137 0.414866 0.62907 -0.776007 -0.0456523 0.595201 -0.802584 -0.0399204 
0.602335 -0.74238 -0.293367 0.441183 -0.897378 0.00833586 -0.223358 -0.904516 0.363266 
-0.231193 -0.852247 0.469282 -0.14557 -0.794568 0.589467 -0.0310951 -0.829913 0.557026 
-0.032596 -0.862031 0.505807 -0.260586 -0.874127 0.409874 -0.170408 -0.856169 0.487786 
-0.356249 -0.921419 0.155159 0.35882 -0.933374 0.00786303 0.296276 -0.954908 0.0192615 
0.327257 -0.87995 -0.344369 0.122234 -0.990517 0.0627305 -0.0861232 -0.990793 0.104458 
-0.17926 -0.967967 0.175799 -0.214352 -0.934331 0.284742 -0.213595 -0.939495 0.267817 
0.267846 0.829196 -0.490604 0.298806 0.844323 -0.444785 0.180814 0.912893 -0.365967 
-0.0641998 0.95518 -0.28898 -0.349292 0.888939 -0.296282 -0.527308 0.818269 -0.228872 
0.415685 0.721658 -0.553549 0.341806 0.774309 -0.532554 0.274722 0.836199 -0.474657 
0.282475 0.832148 -0.477219 0.255272 0.782167 -0.568375 0.282462 0.648689 -0.706695 
0.213836 0.501947 -0.838047 -0.251051 0.607894 -0.753285 -0.527383 0.819063 -0.225838 
-0.512742 0.799367 -0.313222 -0.497016 0.844554 -0.199259 0.431525 0.704876 -0.56297 
0.541365 0.587992 -0.60099 0.41737 0.689534 -0.5919 0.280979 0.599912 -0.749104 
0.184379 0.501996 -0.844988 0.199287 0.427122 -0.881959 -0.429854 0.893063 -0.132906 
-0.34235 0.726139 -0.596254 -0.415376 0.902422 -0.114442 -0.441044 0.897393 -0.0128705 
0.599527 0.520312 -0.608148 0.6476 0.453586 -0.612269 0.527011 0.502363 -0.685486 
0.298085 0.37656 -0.877125 0.124737 0.254524 -0.958988 -0.546022 0.837686 0.011918 
-0.562335 0.826823 0.011988 -0.717416 0.693168 -0.0695171 0.655687 0.444579 -0.610265 
0.635197 0.442132 -0.63328 0.419848 0.281442 -0.862855 0.174229 0.209453 -0.962171 
-0.744122 0.663109 -0.0810454 -0.726622 0.648047 -0.228157 0.812489 0.204052 -0.5461 
0.569766 0.206999 -0.79531 0.375491 0.119474 -0.919093 -0.878917 0.462378 -0.117097 
-0.904891 0.38349 -0.184682 0.823256 0.00705783 -0.567626 0.574082 0.00984852 -0.818738 
-0.925584 0.277977 -0.25695 -0.896811 0.251234 -0.364159 0.811138 -0.0947776 -0.577124 
0.628522 -0.0887007 -0.772717 -0.945725 -0.0325907 -0.323329 -0.82433 -0.0660724 -0.562241 
0.773979 -0.278944 -0.56846 0.720439 -0.411682 -0.558109 0.63571 -0.264788 -0.725093 
0.455993 -0.15798 -0.87585 -0.875585 -0.370726 -0.309699 -0.849 -0.425973 -0.312644 
-0.840997 -0.375852 -0.389178 0.693965 -0.49034 -0.527237 0.578126 -0.65519 -0.486309 
0.493312 -0.376465 -0.784166 -0.755321 -0.607413 -0.246046 -0.663709 -0.718627 -0.207523 
-0.590103 -0.503236 -0.631294 0.552617 -0.690935 -0.466073 0.453913 -0.776306 -0.437392 
0.427687 -0.58025 -0.693104 0.327397 -0.877181 -0.351233 -0.140615 -0.983673 -0.112316 
-0.13148 -0.987465 -0.0873289 -0.108584 -0.993831 -0.0225822 -0.0936344 -0.995468 0.0166039 
-0.0915479 -0.995779 0.00651713 -0.21558 -0.973128 -0.0809126 -0.187095 -0.837993 -0.512604 
-0.4444 -0.892158 -0.0810114 -0.369968 -0.927768 -0.0486814 -0.39712 -0.876678 -0.271534 
0.325345 -0.878075 -0.350905 0.153617 -0.914015 -0.37547 0.1563 -0.840512 -0.518757 
-0.00343054 -0.953677 -0.300814 0.0396822 -0.841316 -0.539085 -0.0911434 -0.969186 -0.228848 
-0.0568259 -0.880276 -0.471047 -0.140416 -0.98366 -0.112677 -0.127126 -0.979834 -0.154154 
-0.117239 -0.943604 -0.309624 -0.0033716 0.562199 -0.826995 0.195056 0.410525 -0.890743 
0.157427 0.493331 -0.855477 0.204887 0.456184 -0.865978 -0.17395 0.567504 -0.804786 
0.00361985 0.496092 -0.868263 -0.227596 0.56437 -0.793528 -0.316503 0.579652 -0.750886 
0.155731 0.302849 -0.940229 0.187664 0.397303 -0.898294 0.19019 0.387644 -0.901976 
0.160624 0.33388 -0.928829 0.150217 0.23684 -0.959865 0.0649786 0.237415 -0.969233 
-0.0938443 0.332248 -0.938512 -0.300419 0.650598 -0.697474 -0.237302 0.472739 -0.848649 
-0.293266 0.669918 -0.682059 -0.261334 0.754759 -0.6017 -0.359292 0.75716 -0.545544 
0.13153 0.246006 -0.960302 0.120737 0.226061 -0.966602 0.160298 0.250088 -0.954862 
0.145346 0.224924 -0.963475 0.0853855 0.18214 -0.979558 0.109819 0.0727823 -0.991283 
0.103699 0.160524 -0.981569 -0.00585726 0.16616 -0.986081 -0.0473903 0.211614 -0.976204 
-0.049933 0.381943 -0.922836 -0.176158 0.57306 -0.800357 -0.413462 0.732791 -0.540431 
-0.348234 0.699229 -0.624349 -0.515206 0.633725 -0.577022 0.169976 0.207513 -0.963352 
0.174497 0.206238 -0.962817 0.133736 0.200957 -0.970428 0.133921 0.161468 -0.977749 
0.119544 0.126518 -0.984735 0.0106263 0.131765 -0.991224 0.129519 0.0700906 -0.989097 
0.178055 0.295135 -0.938718 -0.0470672 0.0974097 -0.994131 -0.00172865 0.0842042 -0.996447 
0.0585558 0.159343 -0.985485 -0.00897615 0.213162 -0.976976 -0.229791 0.293162 -0.928037 
-0.588197 0.517381 -0.621564 -0.463309 0.421149 -0.77973 -0.654332 0.383695 -0.651635 
0.330473 0.115552 -0.936715 0.324585 0.0721576 -0.9431 0.225696 0.144088 -0.963483 
0.0969734 0.154431 -0.983233 0.0829084 0.120058 -0.989299 0.109215 0.0901728 -0.98992 
0.0325334 0.156683 -0.987113 0.243229 0.126567 -0.961676 -0.216937 0.0316811 -0.975671 
0.0278115 0.0244768 -0.999313 0.100863 0.0499527 -0.993645 -0.028276 0.0496741 -0.998365 
-0.150758 0.037854 -0.987846 -0.275339 0.113408 -0.954635 -0.715185 0.271325 -0.644122 
-0.584124 0.240877 -0.775099 0.321362 0.0689189 -0.944445 0.314745 0.0685136 -0.9467 
0.204175 0.054558 -0.977413 0.106527 0.0861854 -0.990568 0.0705076 0.0823928 -0.994103 
0.155794 0.0335241 -0.98722 0.0504451 -0.00996705 -0.998677 -0.045156 0.0833471 -0.995497 
0.0736033 -0.264462 -0.961583 -0.000972602 0.00702184 -0.999975 0.0202681 0.0762431 -0.996883 
0.0881762 -0.00735585 -0.996078 -0.0246975 -0.0367431 -0.99902 -0.146806 0.0143931 -0.989061 
-0.284777 0.00308963 -0.958589 -0.621187 0.0490326 -0.782127 -0.480253 0.0026846 -0.877126 
0.360161 -0.0675837 -0.930439 0.368187 -0.0754491 -0.926685 0.354338 -0.0651661 -0.932844 
0.235379 0.00974635 -0.971855 0.120337 0.0387441 -0.991977 0.0304663 0.0654782 -0.997389 
0.00364664 0.00469977 -0.999982 0.0722121 -0.188449 -0.979424 0.0153163 -0.169268 -0.985451 
0.0657322 -0.124403 -0.990052 0.128745 -0.0762933 -0.988739 0.00656652 0.0380119 -0.999256 
-0.00544727 -0.00312911 -0.99998 -0.00341104 -0.0465279 -0.998911 -0.124147 -0.0191414 -0.992079 
-0.263424 -0.0657775 -0.962435 -0.60982 -0.0860715 -0.787852 -0.43468 -0.0934744 -0.895721 
0.42311 -0.14517 -0.894374 0.308229 -0.120294 -0.943676 0.162592 -0.0784368 -0.983571 
0.0411729 -0.0329673 -0.998608 -0.0827782 -0.00576865 -0.996551 -0.1012 -0.0305907 -0.994396 
0.00696079 -0.0905171 -0.995871 0.125154 -0.0674289 -0.989843 0.173234 -0.172248 -0.969701 
0.0934151 -0.138556 -0.985939 0.00199146 -0.0816853 -0.996656 -0.0397723 -0.0503368 -0.99794 
-0.186428 -0.166153 -0.968317 -0.330377 -0.197089 -0.923042 -0.529152 -0.197451 -0.825234 
-0.527052 -0.207563 -0.824096 -0.525267 -0.195528 -0.828169 0.344192 -0.312612 -0.885328 
0.335932 -0.346888 -0.875682 0.319245 -0.304289 -0.897491 0.206685 -0.254947 -0.944607 
0.109168 -0.171109 -0.979185 0.000659305 -0.110141 -0.993916 -0.039707 -0.0579099 -0.997532 
-0.0100692 -0.0269965 -0.999585 0.00547976 -0.0980678 -0.995165 0.0534128 -0.220073 -0.97402 
0.086695 -0.272837 -0.958146 0.0766536 -0.290572 -0.953778 -0.0791499 -0.30081 -0.950394 
-0.186513 -0.745355 -0.640046 -0.220571 -0.305655 -0.926242 -0.469313 -0.396145 -0.789186 
-0.412377 -0.503188 -0.759438 -0.420073 -0.373134 -0.82723 0.262723 -0.446065 -0.855572 
0.261016 -0.447214 -0.855494 0.26061 -0.444856 -0.856846 0.17828 -0.564306 -0.806086 
0.183132 -0.41312 -0.892073 0.0575622 -0.630002 -0.774457 0.0370441 -0.377124 -0.925422 
-0.0292013 -0.623556 -0.781233 -0.0183441 -0.349727 -0.936672 -0.0728397 -0.625698 -0.776657 
-0.0433518 -0.373722 -0.926527 -0.0920308 -0.633651 -0.768126 -0.0686193 -0.450016 -0.89038 
-0.0689618 -0.639632 -0.765581 -0.0380588 -0.518386 -0.854299 -0.0261153 -0.70948 -0.704242 
-0.00967151 -0.627502 -0.778555 -0.0155076 -0.752877 -0.657979 -0.0249567 -0.677841 -0.734785 
-0.157533 -0.751267 -0.640922 -0.136408 -0.739594 -0.659085 -0.121163 -0.680201 -0.722942 
0.163525 0.158355 -0.973747 0.187118 0.0281704 -0.981933 -0.0745251 0.00911398 -0.997177 
0.109271 -0.147783 -0.982965 0.135467 -0.0246159 -0.990476 
