# vtk DataFile Version 4.2
vtk output
ASCII
DATASET POLYDATA
POINTS 594 float
-21.7562 -25.9581 -18.6787 -30.0434 -17.6709 -18.7042 -54.9049 -1.0966 -18.695 
-30.0434 -42.5324 -12.1815 -21.7562 -42.5324 -13.8446 -13.4691 -42.5324 -14.7382 
-5.18188 -42.5324 -14.7074 3.10529 -42.5324 -12.8412 -46.6177 -34.2453 -11.4297 
-38.3306 -34.2453 -15.5406 -30.0434 -34.2453 -16.7204 -21.7562 -26.7724 -18.5441 
-21.7562 -34.2453 -17.3316 -13.4691 -34.2453 -17.2187 -5.18188 -34.2453 -17.44 
3.10529 -34.2453 -16.3019 11.3925 -34.2453 -12.8938 -54.9049 -25.9581 -11.976 
-46.6177 -25.9581 -16.3596 -38.3306 -25.9581 -17.5808 -24.0598 -25.9581 -18.5441 
-30.0434 -20.2959 -18.5441 -30.0434 -25.9581 -18.1962 -20.6322 -25.9581 -18.5441 
-21.7562 -23.9899 -18.5441 -13.4691 -25.9581 -17.697 -5.18188 -25.9581 -17.3141 
3.10529 -25.9581 -16.739 11.3925 -25.9581 -14.349 19.6796 -25.9581 -10.9508 
-63.1921 -17.6709 -10.2799 -54.9049 -17.6709 -15.2644 -46.6177 -17.6709 -17.195 
-33.7833 -17.6709 -18.5441 -38.3306 -17.6709 -18.3659 -27.7829 -17.6709 -18.5441 
-30.0434 -16.3153 -18.5441 -21.7562 -17.6709 -18.117 -13.4691 -17.6709 -17.0146 
-5.18188 -17.6709 -15.9989 3.10529 -17.6709 -15.5654 11.3925 -17.6709 -13.3719 
19.6796 -17.6709 -12.0589 27.9668 -17.6709 -12.5302 36.254 -17.6709 -13.0118 
44.5411 -17.6709 -12.4261 52.8283 -17.6709 -11.8699 -63.1921 -9.38377 -13.2679 
-54.9049 -2.66893 -18.5441 -54.9049 -9.38377 -17.5876 -46.6177 -9.38377 -18.0466 
-38.3306 -9.38377 -18.3072 -30.0434 -9.38377 -17.7215 -21.7562 -9.38377 -16.7414 
-13.4691 -9.38377 -15.8457 -5.18188 -9.38377 -16.1467 3.10529 -9.38377 -15.9056 
11.3925 -9.38377 -14.3692 19.6796 -9.38377 -14.6838 27.9668 -9.38377 -15.3964 
36.254 -9.38377 -15.7872 44.5411 -9.38377 -15.4149 52.8283 -9.38377 -14.5337 
61.1155 -9.38377 -13.002 -55.2488 -1.0966 -18.5441 -63.1921 -1.0966 -14.5438 
-51.3705 -1.0966 -18.5441 -54.9049 0.457326 -18.5441 -46.6177 -1.0966 -18.288 
-38.3306 -1.0966 -17.9462 -30.0434 -1.0966 -16.9472 -21.7562 -1.0966 -15.2426 
-13.4691 -1.0966 -14.4698 -5.18188 -1.0966 -16.7295 3.10529 -1.0966 -13.4958 
11.3925 -1.0966 -16.2165 19.6796 -1.0966 -16.7092 27.9668 -1.0966 -17.2345 
36.254 -1.0966 -17.5615 44.5411 -1.0966 -17.443 52.8283 -1.0966 -16.52 
61.1155 -1.0966 -14.3144 69.4026 -1.0966 -11.2926 -63.1921 7.19057 -13.5093 
-54.9049 7.19057 -17.5865 -46.6177 7.19057 -17.7581 -38.3306 7.19057 -17.6637 
-30.0434 7.19057 -17.2809 -21.7562 7.19057 -15.4411 -13.4691 7.19057 -13.7853 
-5.18188 7.19057 -16.7754 3.10529 7.19057 -16.7369 11.3925 7.19057 -15.5172 
19.6796 7.19057 -16.5795 27.9668 7.19057 -17.5907 36.254 7.19057 -18.1291 
44.5411 7.19057 -18.2155 52.8283 7.19057 -17.3621 61.1155 7.19057 -15.5657 
69.4026 7.19057 -15.4194 -63.1921 15.4777 -11.6672 -54.9049 15.4777 -15.7637 
-46.6177 15.4777 -16.9585 -38.3306 15.4777 -17.6106 -30.0434 15.4777 -17.3368 
-21.7562 15.4777 -16.2014 -13.4691 15.4777 -15.0649 -5.18188 15.4777 -14.6801 
3.10529 15.4777 -15.3178 11.3925 15.4777 -16.4819 19.6796 15.4777 -17.3574 
27.9668 15.4777 -17.7736 36.254 15.4777 -17.9023 44.5411 15.4777 -17.7683 
52.8283 15.4777 -17.5778 61.1155 15.4777 -13.833 -54.9049 23.7649 -14.3213 
-46.6177 23.7649 -17.5026 -38.3306 23.7649 -17.0699 -30.0434 23.7649 -17.004 
-21.7562 23.7649 -16.9989 -13.4691 23.7649 -16.3248 -5.18188 23.7649 -16.2492 
3.10529 23.7649 -16.2581 11.3925 23.7649 -16.7595 19.6796 23.7649 -17.3971 
27.9668 23.7649 -17.319 36.254 23.7649 -17.4486 44.5411 23.7649 -16.2237 
52.8283 23.7649 -14.3829 61.1155 23.7649 -12.4921 -46.6177 32.0521 -13.2718 
-38.3306 32.0521 -15.2093 -30.0434 32.0521 -16.2127 -21.7562 32.0521 -16.8737 
-13.4691 32.0521 -16.1901 -5.18188 32.0521 -16.083 3.10529 32.0521 -15.4756 
11.3925 32.0521 -15.5119 19.6796 32.0521 -15.5156 27.9668 32.0521 -15.1052 
36.254 32.0521 -13.7699 44.5411 32.0521 -11.7656 -38.3306 40.3392 -12.5005 
-30.0434 40.3392 -13.1777 -21.7562 40.3392 -13.8689 -13.4691 40.3392 -14.2245 
-5.18188 40.3392 -13.3531 3.10529 40.3392 -11.741 11.3925 40.3392 -10.4863 
-30.0434 -44.3052 -10.2569 -21.7562 -46.7897 -10.2569 -13.4691 -47.8723 -10.2569 
-5.18188 -47.5796 -10.2569 3.10529 -45.6749 -10.2569 -46.6177 -35.4205 -10.2569 
-34.602 -42.5324 -10.2569 -38.3306 -40.6706 -10.2569 -38.3306 -42.5324 -5.34987 
9.46823 -42.5324 -10.2569 11.3925 -40.7778 -10.2569 11.3925 -42.5324 -8.9398 
19.6796 -42.5324 -2.34052 -48.1539 -34.2453 -10.2569 -54.9049 -28.1548 -10.2569 
16.3188 -34.2453 -10.2569 19.6796 -28.343 -10.2569 19.6796 -34.2453 -8.27839 
27.9668 -34.2453 -5.4014 36.254 -34.2453 -2.84577 -57.34 -25.9581 -10.2569 
-63.1921 -17.7171 -10.2569 23.4579 -25.9581 -10.2569 27.9668 -23.7739 -10.2569 
27.9668 -25.9581 -9.48948 36.254 -23.274 -10.2569 36.254 -25.9581 -8.88773 
44.5411 -21.9192 -10.2569 44.5411 -25.9581 -8.26639 52.8283 -20.1904 -10.2569 
52.8283 -25.9581 -5.7563 -63.218 -17.6709 -10.2569 57.2377 -17.6709 -10.2569 
61.1155 -14.8994 -10.2569 61.1155 -17.6709 -8.44344 -66.8664 -9.38377 -10.2569 
66.0267 -9.38377 -10.2569 69.4026 -3.31371 -10.2569 69.4026 -9.38377 -7.7954 
-68.8097 -1.0966 -10.2569 -71.4792 -1.0966 -5.4904 71.0098 -1.0966 -10.2569 
77.6898 -1.0966 -3.4215 -67.3257 7.19057 -10.2569 -71.4792 7.19057 -2.37062 
75.6481 7.19057 -10.2569 69.4026 15.1963 -10.2569 77.6898 7.19057 -7.31546 
-64.991 15.4777 -10.2569 -63.1921 18.9691 -10.2569 69.1541 15.4777 -10.2569 
69.4026 15.4777 -10.1296 -60.7865 23.7649 -10.2569 -63.1921 23.7649 -5.95271 
-54.9049 31.0121 -10.2569 52.8283 31.4181 -10.2569 63.5211 23.7649 -10.2569 
61.1155 26.1274 -10.2569 69.4026 23.7649 -3.93721 -53.2018 32.0521 -10.2569 
-54.9049 32.0521 -8.82952 -46.6177 36.9585 -10.2569 19.6796 39.5813 -10.2569 
27.9668 38.8024 -10.2569 36.254 36.7211 -10.2569 51.0971 32.0521 -10.2569 
44.5411 33.7594 -10.2569 52.8283 32.0521 -9.57856 61.1155 32.0521 -3.46745 
-42.9977 40.3392 -10.2569 -46.6177 40.3392 -6.37277 -38.3306 42.7994 -10.2569 
-30.0434 44.0069 -10.2569 -21.7562 45.4748 -10.2569 -13.4691 45.5802 -10.2569 
-5.18188 44.0748 -10.2569 3.10529 41.9887 -10.2569 13.5928 40.3392 -10.2569 
11.3925 40.5484 -10.2569 19.6796 40.3392 -8.63746 27.9668 40.3392 -6.43325 
-30.0434 48.6264 -2.29341 -21.7562 48.6264 -4.51983 -13.4691 48.6264 -3.0362 
-38.3306 -43.3602 -1.96977 -30.0434 -47.3636 -1.96977 -21.7562 -49.9855 -1.96977 
-13.4691 -50.8177 -1.96977 -5.18188 -50.6743 -1.96977 3.10529 -49.4943 -1.96977 
11.3925 -46.6316 -1.96977 19.6796 -42.8193 -1.96977 -39.6443 -42.5324 -1.96977 
-46.6177 -37.7842 -1.96977 -38.3306 -42.5324 0.645556 20.1844 -42.5324 -1.96977 
27.9668 -37.8181 -1.96977 36.254 -35.3576 -1.96977 -51.6104 -34.2453 -1.96977 
-54.9049 -31.656 -1.96977 38.9964 -34.2453 -1.96977 44.5411 -32.6106 -1.96977 
44.5411 -34.2453 2.53611 52.8283 -30.7049 -1.96977 -61.0638 -25.9581 -1.96977 
-63.1921 -23.5021 -1.96977 58.6843 -25.9581 -1.96977 61.1155 -24.2758 -1.96977 
61.1155 -25.9581 5.3391 -67.5087 -17.6709 -1.96977 69.0401 -17.6709 -1.96977 
69.4026 -17.273 -1.96977 69.4026 -17.6709 1.03875 -70.9644 -9.38377 -1.96977 
-71.4792 -7.43848 -1.96977 75.6338 -9.38377 -1.96977 77.6898 -3.51843 -1.96977 
-73.1577 -1.0966 -1.96977 -71.4792 -1.0966 5.82384 78.3762 -1.0966 -1.96977 
-71.6542 7.19057 -1.96977 -71.4792 8.04652 -1.96977 -71.4792 7.19057 -1.10247 
79.4792 7.19057 -1.96977 77.6898 13.1413 -1.96977 -69.7704 15.4777 -1.96977 
76.9122 15.4777 -1.96977 -65.1044 23.7649 -1.96977 -63.1921 26.7511 -1.96977 
71.1718 23.7649 -1.96977 69.4026 25.204 -1.96977 -59.1026 32.0521 -1.96977 
-54.9049 36.6339 -1.96977 -54.9049 32.0521 5.34888 36.254 40.1418 -1.96977 
44.5411 38.2227 -1.96977 52.8283 35.484 -1.96977 62.2135 32.0521 -1.96977 
61.1155 32.8117 -1.96977 61.1155 32.0521 1.47271 -50.2412 40.3392 -1.96977 
-46.6177 42.6071 -1.96977 -38.3306 46.4357 -1.96977 -5.18188 47.2348 -1.96977 
3.10529 45.2382 -1.96977 11.3925 43.9305 -1.96977 19.6796 42.4144 -1.96977 
19.6796 40.3392 4.75688 35.0432 40.3392 -1.96977 27.9668 41.4822 -1.96977 
27.9668 40.3392 1.14637 -30.4819 48.6264 -1.96977 -30.0434 48.7421 -1.96977 
-30.0434 48.6264 -1.49755 -21.7562 49.5549 -1.96977 -21.7562 48.6264 1.06896 
-11.901 48.6264 -1.96977 -13.4691 48.9498 -1.96977 -13.4691 48.6264 -0.935053 
-30.0434 -43.7193 6.3174 -21.7562 -47.2628 6.3174 -13.4691 -48.3468 6.3174 
-5.18188 -48.9739 6.3174 3.10529 -49.276 6.3174 11.3925 -47.6715 6.3174 
19.6796 -45.2178 6.3174 -46.6177 -34.6511 6.3174 -32.848 -42.5324 6.3174 
-38.3306 -39.5367 6.3174 -30.0434 -42.5324 7.42125 -21.7562 -42.5324 10.691 
-13.4691 -42.5324 12.5689 -5.18188 -42.5324 12.8916 3.10529 -42.5324 14.2606 
26.659 -42.5324 6.3174 19.6796 -42.5324 12.2874 27.9668 -42.0331 6.3174 
36.254 -38.7894 6.3174 44.5411 -35.5002 6.3174 -47.1827 -34.2453 6.3174 
-54.9049 -28.013 6.3174 -46.6177 -34.2453 6.75635 -38.3306 -34.2453 9.7702 
-30.0434 -34.2453 13.5157 36.254 -34.2453 13.2857 47.6129 -34.2453 6.3174 
44.5411 -34.2453 8.18908 52.8283 -31.7435 6.3174 61.1155 -26.1668 6.3174 
-57.5482 -25.9581 6.3174 -63.1921 -20.4368 6.3174 -54.9049 -25.9581 8.21054 
-46.6177 -25.9581 11.2828 -38.3306 -25.9581 13.701 52.8283 -25.9581 11.6077 
61.4101 -25.9581 6.3174 61.1155 -25.9581 6.61088 69.4026 -18.3327 6.3174 
-65.1166 -17.6709 6.3174 -63.1921 -17.6709 8.2549 -54.9049 -17.6709 12.0558 
61.1155 -17.6709 11.8651 69.9041 -17.6709 6.3174 69.4026 -17.6709 6.95072 
-68.2729 -9.38377 6.3174 -63.1921 -9.38377 11.8158 3.10529 -9.38377 14.3918 
19.6796 -9.38377 14.5119 61.1155 -9.38377 14.4717 74.8572 -9.38377 6.3174 
69.4026 -9.38377 13.1126 77.6898 -1.45085 6.3174 -71.3118 -1.0966 6.3174 
-63.1921 -1.0966 14.4753 3.10529 -1.0966 11.3775 19.6796 -1.0966 13.1223 
77.7723 -1.0966 6.3174 77.6898 -1.0966 6.41924 -69.2648 7.19057 6.3174 
-63.1921 7.19057 12.9644 19.6796 7.19057 13.0041 78.3189 7.19057 6.3174 
77.6898 9.15173 6.3174 77.6898 7.19057 7.06175 -65.9958 15.4777 6.3174 
-63.1921 15.4777 9.24604 -54.9049 15.4777 13.9922 -5.18188 15.4777 13.1995 
3.10529 15.4777 13.2221 11.3925 15.4777 13.6607 19.6796 15.4777 13.5546 
[...]
POINT_DATA 594
SCALARS ImageScalars float
LOOKUP_TABLE default
0 0 0 0 0 0 0 0 0 
0 0 0 0 0 0 0 0 0 
0 0 0 0 0 0 0 0 0 
0 0 0 0 0 0 0 0 0 
0 0 0 0 0 0 0 0 0 
0 0 0 0 0 0 0 0 0 
0 0 0 0 0 0 0 0 0 
0 0 0 0 0 0 0 0 0 
0 0 0 0 0 0 0 0 0 
0 0 0 0 0 0 0 0 0 
0 0 0 0 0 0 0 0 0 
0 0 0 0 0 0 0 0 0 
0 0 0 0 0 0 0 0 0 
0 0 0 0 0 0 0 0 0 
0 0 0 0 0 0 0 0 0 
0 0 0 0 0 0 0 0 0 
0 0 0 0 0 0 0 0 0 
0 0 0 0 0 0 0 0 0 
0 0 0 0 0 0 0 0 0 
0 0 0 0 0 0 0 0 0 
0 0 0 0 0 0 0 0 0 
0 0 0 0 0 0 0 0 0 
0 0 0 0 0 0 0 0 0 
0 0 0 0 0 0 0 0 0 
0 0 0 0 0 0 0 0 0 
0 0 0 0 0 0 0 0 0 
0 0 0 0 0 0 0 0 0 
0 0 0 0 0 0 0 0 0 
0 0 0 0 0 0 0 0 0 
0 0 0 0 0 0 0 0 0 
0 0 0 0 0 0 0 0 0 
0 0 0 0 0 0 0 0 0 
0 0 0 0 0 0 0 0 0 
0 0 0 0 0 0 0 0 0 
0 0 0 0 0 0 0 0 0 
0 0 0 0 0 0 0 0 0 
0 0 0 0 0 0 0 0 0 
0 0 0 0 0 0 0 0 0 
0 0 0 0 0 0 0 0 0 
0 0 0 0 0 0 0 0 0 
0 0 0 0 0 0 0 0 0 
0 0 0 0 0 0 0 0 0 
0 0 0 0 0 0 0 0 0 
0 0 0 0 0 0 0 0 0 
0 0 0 0 0 0 0 0 0 
0 0 0 0 0 0 0 0 0 
0 0 0 0 0 0 0 0 0 
0 0 0 0 0 0 0 0 0 
0 0 0 0 0 0 0 0 0 
0 0 0 0 0 0 0 0 0 
0 0 0 0 0 0 0 0 0 
0 0 0 0 0 0 0 0 0 
0 0 0 0 0 0 0 0 0 
0 0 0 0 0 0 0 0 0 
0 0 0 0 0 0 0 0 0 
0 0 0 0 0 0 0 0 0 
0 0 0 0 0 0 0 0 0 
0 0 0 0 0 0 0 0 0 
0 0 0 0 0 0 0 0 0 
0 0 0 0 0 0 0 0 0 
0 0 0 0 0 0 0 0 0 
0 0 0 0 0 0 0 0 0 
0 0 0 0 0 0 0 0 0 
0 0 0 0 0 0 0 0 0 
0 0 0 0 0 0 0 0 0 
0 0 0 0 0 0 0 0 0 

NORMALS Normals float
-0.0306719 0.0482785 0.998363 -0.0139983 -0.0285722 0.999494 0.228774 -0.000820963 0.973479 
0.263988 0.6833 0.680744 0.124421 0.568757 0.813041 0.0486408 0.496078 0.866914 
-0.100896 0.517396 0.849777 -0.279018 0.555598 0.783236 0.480319 0.650948 0.587843 
0.280877 0.447071 0.849256 0.0942058 0.297759 0.949982 -0.0255093 0.0686136 0.997317 
0.0257997 0.255544 0.966453 0.00599161 0.163726 0.986488 -0.0548619 0.136308 0.989146 
-0.246812 0.192697 0.949711 -0.439482 0.244718 0.864274 0.515642 0.489294 0.703352 
0.306197 0.293714 0.905525 0.0981271 0.145794 0.984436 -0.00447699 0.0652879 0.997856 
0.0103126 0.0148887 0.999836 0.0636161 0.110508 0.991837 -0.0376734 0.0399042 0.998493 
-0.0475687 0.0100897 0.998817 -0.0813208 -0.0126367 0.996608 -0.0567984 -0.0861646 0.994661 
-0.172495 -0.04444 0.984007 -0.342226 0.0215721 0.93937 -0.273505 0.194437 0.942013 
0.636969 0.405921 0.655362 0.401733 0.310959 0.861345 0.173319 0.0904882 0.9807 
0.0314094 0.00249319 0.999503 0.084286 0.039066 0.995676 -0.0377801 -0.0511005 0.997979 
-0.0262997 -0.0411045 0.998809 -0.100584 -0.111394 0.988673 -0.127061 -0.10974 0.985806 
-0.0878799 -0.071851 0.993536 -0.159531 -0.0508212 0.985884 -0.21151 -0.00331971 0.97737 
-0.0504747 0.200844 0.978322 0.0538046 0.333835 0.941095 -0.00358846 0.383274 0.923628 
-0.0678799 0.402664 0.912827 -0.183263 0.443596 0.87729 0.535221 0.231307 0.812426 
0.239597 0.0296719 0.970419 0.280725 0.166008 0.945322 0.0395021 0.0648898 0.99711 
-0.0197142 -0.0256233 0.999477 -0.0912217 -0.105155 0.990263 -0.115468 -0.178012 0.97723 
-0.0343061 -0.144011 0.988981 0.0040949 0.0411379 0.999145 -0.097234 -0.115045 0.98859 
-0.0776528 0.179837 0.980627 0.0607163 0.285542 0.956441 0.0599065 0.276376 0.959181 
0.00132207 0.267084 0.963672 -0.0698364 0.281784 0.956933 -0.15011 0.294663 0.943738 
-0.320985 0.278975 0.905065 0.237145 -0.000387636 0.971474 0.473551 0.0126313 0.880676 
0.118047 -0.00758252 0.992979 0.234966 -0.0271202 0.971625 -0.0456411 -0.0174615 0.998805 
-0.0796465 -0.038653 0.996073 -0.16085 -0.0277415 0.986589 -0.147211 -0.0771502 0.986092 
0.0801377 -0.133765 0.987768 -0.0719942 0.0452509 0.996378 -0.0200493 0.0679011 0.997491 
0.181176 0.0553654 0.981891 0.0598594 0.0981539 0.993369 0.0512231 0.127513 0.990513 
0.0125696 0.135642 0.990678 -0.0650402 0.162667 0.984535 -0.173682 0.160646 0.971611 
-0.259015 0.146708 0.954666 -0.432204 0.310505 0.846633 0.51088 -0.166739 0.843327 
0.255486 -0.145798 0.955756 0.00309843 -0.0797472 0.99681 -0.0268929 -0.0202656 0.999433 
-0.128373 0.0241172 0.991433 -0.207464 0.0589575 0.976464 0.0286993 0.0418277 0.998713 
0.21321 -0.148176 0.965704 -0.0807219 0.0987532 0.991833 -0.00556732 0.0177234 0.999827 
0.124566 0.0372904 0.99151 0.0928523 0.0320651 0.995163 0.0375945 0.0202703 0.999087 
-0.0537518 0.0199683 0.998355 -0.138528 0.0606561 0.988499 -0.136696 -0.0243716 0.990313 
-0.420079 -0.0091097 0.907442 0.556054 -0.281687 0.781957 0.328352 -0.204687 0.922111 
0.100571 -0.0211632 0.994705 0.0219 -0.034614 0.999161 -0.0843495 -0.0168791 0.996293 
-0.135489 0.0890291 0.986771 -0.0905691 0.151709 0.984267 0.0156283 0.0118115 0.999808 
0.108974 -0.0242681 0.993748 0.121745 0.0750324 0.989721 0.078444 0.0498648 0.995671 
0.0322198 -0.0165468 0.999344 -0.000163165 -0.0382826 0.999267 -0.0193606 -0.128703 0.991494 
-0.207239 -0.141802 0.967959 -0.344856 -0.146789 0.927107 0.397758 -0.315274 0.861621 
0.1801 -0.172182 0.968461 -0.0256134 -0.150868 0.988222 -0.0041464 -0.0646375 0.9979 
-0.0409978 0.0408832 0.998322 -0.0450079 0.0673389 0.996714 -0.00403036 0.0851614 0.996359 
0.0308175 0.011231 0.999462 0.0696193 -0.0591508 0.995818 0.0333273 -0.103057 0.994117 
0.00231042 -0.14264 0.989772 -0.0754227 -0.245147 0.966548 -0.153088 -0.271738 0.950117 
-0.193774 -0.411646 0.890505 -0.433011 -0.412652 0.801386 0.323662 -0.469728 0.821339 
0.150479 -0.265248 0.952365 0.101593 -0.192328 0.976058 -0.00347599 -0.175121 0.984541 
-0.0448968 -0.119938 0.991766 -0.0423537 -0.159226 0.986333 -0.0335949 -0.237842 0.970723 
0.00234185 -0.31424 0.949341 -0.0218537 -0.382392 0.923742 -0.105533 -0.427938 0.897626 
-0.163687 -0.516728 0.840356 -0.215926 -0.651852 0.726956 0.257038 -0.559469 0.787988 
0.0853095 -0.519071 0.850463 0.0533305 -0.469364 0.881393 -0.0287999 -0.446675 0.894233 
-0.143461 -0.53354 0.833519 -0.163391 -0.639559 0.751177 -0.108167 -0.764253 0.635781 
0.298388 0.766244 0.569065 0.172409 0.773327 0.610116 0.0371633 0.7993 0.599782 
-0.0982034 0.795808 0.597533 -0.28568 0.708405 0.645407 0.507431 0.680888 0.528115 
0.373587 0.749095 0.547074 0.42399 0.727581 0.539313 0.501429 0.84565 0.18288 
-0.406637 0.591106 0.696592 -0.447301 0.516641 0.730071 -0.440221 0.627737 0.641991 
-0.45129 0.744246 0.492377 0.532573 0.673832 0.512168 0.575849 0.586947 0.569114 
-0.403749 0.302704 0.863341 -0.301572 0.233604 0.924383 -0.382945 0.378912 0.842484 
-0.277834 0.578002 0.767282 -0.237743 0.700408 0.672984 0.575705 0.566804 0.589319 
0.63747 0.407837 0.653682 -0.20118 0.263235 0.943522 -0.068538 0.339879 0.937969 
-0.116603 0.35457 0.92773 -0.046706 0.465988 0.883558 -0.0712394 0.52193 0.850008 
-0.106466 0.39705 0.911601 -0.166178 0.462483 0.870916 -0.199757 0.5013 0.8419 
-0.349724 0.628566 0.694693 0.637743 0.406308 0.654368 -0.275466 0.48554 0.82968 
-0.349088 0.440641 0.827026 -0.385879 0.54667 0.743135 0.689417 0.274774 0.670226 
-0.449969 0.302953 0.840088 -0.457317 0.302208 0.83638 -0.585795 0.385943 0.712666 
0.730981 0.0266319 0.681878 0.947737 0.0379181 0.316793 -0.48938 0.294559 0.820818 
-0.931424 0.214737 0.293831 0.693056 -0.18715 0.696167 0.973133 -0.18707 0.13423 
-0.658809 -0.0568806 0.750157 -0.486404 -0.414998 0.768887 -0.849072 -0.0674527 0.523953 
0.628387 -0.298496 0.718352 0.630862 -0.388026 0.671899 -0.484351 -0.417628 0.768759 
-0.492895 -0.428967 0.756995 0.637114 -0.436623 0.635174 0.798811 -0.510901 0.317618 
0.496118 -0.561398 0.662344 -0.292105 -0.676611 0.675923 -0.515527 -0.466821 0.718547 
-0.466639 -0.529819 0.708195 -0.664593 -0.674932 0.320598 0.470315 -0.569145 0.674446 
0.551825 -0.626841 0.550054 0.425596 -0.568568 0.703987 -0.0744281 -0.800907 0.594145 
-0.129799 -0.807605 0.575261 -0.207593 -0.737547 0.642596 -0.276526 -0.692272 0.666552 
-0.240496 -0.707417 0.664622 -0.297197 -0.727321 0.61861 -0.491163 -0.841233 0.226023 
0.376405 -0.638972 0.670845 0.502838 -0.763014 0.406157 0.277133 -0.714123 0.642826 
0.135961 -0.683176 0.717485 0.0623567 -0.713802 0.697566 -0.068578 -0.757719 0.648968 
-0.176305 -0.743216 0.645404 -0.188015 -0.729069 0.65811 -0.100598 -0.784767 0.611572 
-0.111134 -0.773603 0.623849 -0.0929678 -0.886485 0.453322 -0.138621 -0.959031 0.247069 
0.186161 -0.979396 0.0782838 0.0219068 -0.978947 0.202935 -0.133389 -0.989152 0.0615352 
0.509583 0.859831 -0.0318755 0.368124 0.92965 -0.0153688 0.20346 0.978867 0.0205538 
0.0396342 0.999204 0.00456438 -0.0758244 0.995395 0.0586421 -0.220933 0.964085 0.147409 
-0.362402 0.882966 0.298387 -0.448681 0.758279 0.472968 0.523794 0.851174 -0.0338099 
0.567943 0.822161 -0.0386242 0.509383 0.840863 -0.182968 -0.4438 0.757177 0.479296 
-0.298877 0.743453 0.598289 -0.260221 0.733066 0.62841 0.605163 0.795622 -0.0276313 
0.64116 0.767255 -0.0152819 -0.24483 0.781814 0.573432 -0.21079 0.875335 0.435151 
-0.31754 0.945775 0.0683892 -0.441543 0.779954 0.443523 0.730503 0.682678 0.017808 
0.773611 0.632097 0.0444928 -0.473479 0.78773 0.394081 -0.477379 0.807163 0.347272 
-0.599998 0.783898 -0.159705 0.853699 0.514431 0.0809863 -0.76439 0.584428 0.27231 
-0.769431 0.579634 0.268329 -0.806072 0.589298 0.0545478 0.951043 0.293934 0.095497 
0.966783 0.232088 0.107078 -0.826277 0.506011 0.247425 -0.939082 0.281556 0.197108 
0.994933 0.0402184 0.092147 0.866601 0.0435037 -0.497102 -0.96146 0.197821 0.190949 
0.976022 -0.187032 0.111359 0.972583 -0.203762 0.112088 0.979904 -0.191626 0.0553771 
-0.992241 -0.0755526 0.0987396 -0.952069 -0.281367 0.119987 0.927022 -0.367093 0.0766435 
-0.915257 -0.380739 0.131687 0.856123 -0.510739 0.078732 0.823341 -0.55742 0.106737 
-0.686577 -0.700454 0.194875 -0.670813 -0.719571 0.179522 0.749619 -0.659816 0.0520909 
0.682427 -0.728747 0.0567485 0.653196 -0.590175 -0.474371 -0.195305 -0.980684 0.0107165 
-0.267188 -0.961593 0.0628371 -0.321887 -0.939858 0.114265 -0.522081 -0.843524 0.126091 
-0.482921 -0.8664 0.127033 -0.526963 -0.838128 -0.140896 0.567067 -0.81644 0.108906 
0.488695 -0.864562 0.117092 0.332694 -0.938682 0.0905038 -0.221137 -0.97464 0.0342829 
-0.203109 -0.978632 0.0320402 -0.166341 -0.985448 0.0349571 -0.144855 -0.989438 0.00536519 
-0.173815 -0.870253 -0.46092 -0.186154 -0.98252 0.00117317 -0.134856 -0.989698 -0.0480737 
-0.13514 -0.966481 -0.218294 0.191832 -0.979579 0.0602127 0.184256 -0.981198 0.0574497 
0.18183 -0.982799 0.0322947 0.0125605 -0.999389 0.0326286 0.000188508 -0.990738 -0.135788 
-0.153631 -0.988125 0.00244291 -0.138231 -0.990395 -0.00319645 -0.132336 -0.989765 -0.0534128 
0.338291 0.715708 -0.611 0.218884 0.812328 -0.540568 0.0850409 0.876051 -0.47466 
0.0534915 0.890208 -0.452403 -0.0829843 0.949301 -0.303217 -0.231111 0.955029 -0.185763 
-0.333924 0.939126 -0.080853 0.467554 0.691622 -0.550501 0.372798 0.707856 -0.599968 
0.421902 0.677379 -0.602625 0.320955 0.674071 -0.665294 0.255856 0.600552 -0.757545 
0.109024 0.523989 -0.844718 0.086364 0.543012 -0.835272 0.0846299 0.529531 -0.844058 
-0.352649 0.935487 -0.0224105 -0.278606 0.799883 -0.531568 -0.35866 0.933243 -0.0204935 
-0.410766 0.904579 -0.114052 -0.379786 0.913403 -0.146484 0.472666 0.688512 -0.550035 
0.515668 0.647984 -0.560539 0.459135 0.678623 -0.573294 0.336427 0.492068 -0.802923 
0.254704 0.382493 -0.888158 -0.321725 0.549305 -0.771205 -0.412794 0.894743 -0.170399 
-0.375934 0.87739 -0.298094 -0.499857 0.831144 -0.243602 -0.606679 0.764683 -0.217258 
0.547346 0.636557 -0.543331 0.678628 0.512939 -0.525697 0.466728 0.59333 -0.655838 
0.283822 0.456092 -0.843461 0.22441 0.32538 -0.918568 -0.434345 0.500516 -0.748885 
-0.608975 0.761072 -0.223428 -0.606322 0.759491 -0.235684 -0.766274 0.558844 -0.317045 
0.720457 0.437053 -0.538449 0.655327 0.442758 -0.611974 0.390112 0.352912 -0.85045 
-0.40843 0.395856 -0.822486 -0.778471 0.54377 -0.313524 -0.763139 0.548525 -0.341669 
0.788831 0.289545 -0.542134 0.571486 0.278464 -0.771921 -0.104163 -0.143127 -0.984208 
0.00377723 -0.226167 -0.974081 -0.215333 0.184802 -0.958895 -0.836086 0.404902 -0.370155 
-0.617472 0.469451 -0.631145 -0.872053 0.168223 -0.459592 0.843149 0.0431596 -0.535945 
0.496534 0.0428585 -0.866959 -0.0365882 0.0349534 -0.998719 -0.0484446 -0.104803 -0.993312 
-0.87356 0.156134 -0.460994 -0.870856 0.155224 -0.466385 0.818359 -0.21082 -0.534642 
0.55453 -0.187864 -0.810681 -0.0473673 0.0261501 -0.998535 -0.863736 -0.126806 -0.48773 
-0.837554 -0.190997 -0.511882 -0.844376 -0.13043 -0.519631 0.776166 -0.299432 -0.554893 
0.662893 -0.290689 -0.68998 0.306385 -0.234449 -0.922584 -0.120619 -0.22514 -0.966832 
0.0266835 -0.0845448 -0.996062 0.0211233 -0.0973558 -0.995025 0.0330445 0.0190163 -0.999273 
0.101954 -0.0827905 -0.991338 -0.21203 -0.208088 -0.954852 -0.740095 -0.386017 -0.550681 
-0.629903 -0.461691 -0.624551 0.750179 -0.409965 -0.518807 0.745163 -0.417756 -0.519819 
0.744444 -0.410176 -0.526838 0.615567 -0.561133 -0.553359 0.434451 -0.365058 -0.823398 
-0.111617 0.0181091 -0.993586 0.029228 -0.0059333 -0.999555 -0.0147323 -0.0623004 -0.997949 
-0.0468079 -0.108696 -0.992972 0.0776403 -0.186844 -0.979317 -0.146039 -0.284566 -0.947468 
-0.13332 -0.378817 -0.915819 -0.483828 -0.679632 -0.551372 -0.365379 -0.590128 -0.719894 
-0.586532 -0.635116 -0.502601 -0.58499 -0.639319 -0.499057 -0.584908 -0.633725 -0.506236 
0.618785 -0.557381 -0.553563 0.365393 -0.395235 -0.842779 -0.0979208 -0.164328 -0.981533 
-0.0543403 -0.235102 -0.970451 -0.0875597 -0.34109 -0.935944 -0.171724 -0.783817 -0.596776 
-0.10052 -0.37603 -0.921139 -0.120373 -0.765737 -0.631789 -0.0968591 -0.44974 -0.887892 
-0.0946385 -0.772403 -0.628043 -0.0555836 -0.562109 -0.825194 -0.157198 -0.78188 -0.603284 
-0.0881005 -0.630191 -0.771425 -0.399519 -0.741694 -0.538771 -0.224975 -0.832099 -0.506949 
-0.215343 -0.734491 -0.643546 0.466499 -0.739907 -0.484682 0.451965 -0.750851 -0.481612 
0.446943 -0.735985 -0.508497 0.301707 -0.780109 -0.54809 0.258976 -0.622061 -0.738899 
0.119992 -0.86793 -0.481974 0.139709 -0.529853 -0.836503 -0.0150504 -0.851105 -0.52478 
0.00604394 -0.510106 -0.86009 -0.0809073 -0.853464 -0.514834 -0.0923205 -0.470669 -0.877467 
-0.179641 -0.813876 -0.552571 -0.169915 -0.538456 -0.825345 -0.197041 -0.80262 -0.563006 
-0.16101 -0.666587 -0.727831 -0.170766 -0.800887 -0.57395 -0.165932 -0.808554 -0.564542 
-0.160235 -0.760953 -0.628709 -0.0461146 0.619517 -0.783628 0.128788 0.285043 -0.949823 
0.0902846 0.317505 -0.943949 0.0793616 0.331151 -0.940235 -0.0406327 0.615237 -0.787295 
0.090619 0.483765 -0.870494 -0.0480794 0.620005 -0.783123 -0.0459747 0.618736 -0.784253 
-0.222174 0.594442 -0.772837 -0.253006 0.401773 -0.880094 0.130336 0.285515 -0.94947 
0.196246 0.260786 -0.94524 0.128211 0.283743 -0.95029 0.0746095 0.203429 -0.976243 
0.0778568 0.173159 -0.981812 0.110806 0.161139 -0.980692 0.0133996 0.186332 -0.982395 
-0.144325 0.229212 -0.962617 -0.254334 0.40165 -0.879768 -0.239619 0.365617 -0.899392 
-0.191171 0.345507 -0.918738 -0.259437 0.409147 -0.874809 0.222739 0.342514 -0.912727 
0.187428 0.239058 -0.952744 0.153111 0.28256 -0.946951 0.153851 0.166901 -0.973896 
0.0596601 0.106525 -0.992519 -0.000260108 0.0370767 -0.999312 0.0571975 -0.0249177 -0.998052 
0.119746 -0.0912912 -0.988598 0.0339725 -0.0441091 -0.998449 -0.0860534 -0.0295782 -0.995851 
-0.131186 0.0705595 -0.988844 -0.0613052 0.19676 -0.978533 -0.275523 0.36274 -0.890229 
-0.243569 0.338916 -0.908741 -0.263157 0.373313 -0.889599 0.267598 0.317614 -0.909677 
0.289975 0.280044 -0.915144 0.204353 0.297894 -0.932469 0.0439989 0.216909 -0.9752 
0.0275264 0.127242 -0.99149 0.00201001 -0.014316 -0.999896 -0.0562973 -0.0210133 -0.998193 
-0.0547782 0.0663647 -0.996291 -0.067939 -0.144274 -0.987203 0.0957332 -0.17805 -0.979354 
0.0768658 -0.136633 -0.987635 0.0024356 -0.225222 -0.974304 -0.0364615 -0.20532 -0.978015 
-0.00158865 -0.0725684 -0.997362 -0.0518677 0.0392552 -0.997882 -0.0757725 0.0411461 -0.996276 
-0.265056 0.344954 -0.900418 -0.228924 0.368852 -0.900856 0.339899 0.274021 -0.899656 
0.268562 0.263434 -0.92654 0.105167 0.132563 -0.985579 0.029563 0.125378 -0.991668 
-0.074907 0.0749033 -0.994373 -0.0976864 -0.0117386 -0.995148 0.0945731 -0.0517195 -0.994174 
-0.106271 -0.120197 -0.987046 -0.113402 0.140064 -0.983627 -0.0872446 -0.120605 -0.988859 
0.00418812 -0.212341 -0.977187 0.000648616 -0.0168583 -0.999858 0.0124356 -0.215559 -0.976412 
0.107965 -0.0954132 -0.989565 0.0570411 -0.0491391 -0.997162 0.0891735 0.0697638 -0.99357 
-0.207807 0.184612 -0.960591 -0.116143 0.12525 -0.985304 -0.208288 0.163357 -0.964329 
-0.489878 0.310299 -0.814698 0.484411 0.0426699 -0.873799 0.241874 0.0373875 -0.969587 
0.0880061 0.0354406 -0.995489 -0.0139224 0.0556021 -0.998356 -0.114739 0.0169282 -0.993251 
-0.113896 0.0433213 -0.992548 0.0499181 0.0188698 -0.998575 -0.113555 0.0716869 -0.990942 
-0.13854 0.0195854 -0.990163 -0.0474022 0.0797765 -0.995685 -0.0985612 0.0155528 -0.995009 
-0.0749418 -0.0519205 -0.995835 -0.0397795 0.12041 -0.991927 0.1341 -0.0622837 -0.989009 
0.170273 -0.0532895 -0.983955 0.113227 -0.0222459 -0.99332 0.123752 0.000287508 -0.992313 
-0.0677243 0.0112464 -0.997641 -0.201123 0.0578578 -0.977856 -0.450428 0.117988 -0.884982 
-0.377462 0.0848202 -0.922132 0.414016 -0.169903 -0.894273 0.279121 -0.208308 -0.93739 
0.270173 -0.15592 -0.950103 0.126254 -0.0876057 -0.988122 0.0113676 -0.0384741 -0.999195 
-0.0907883 0.00265217 -0.995867 -0.0921267 0.030279 -0.995287 0.0626404 -0.0351939 -0.997415 
-0.102816 -0.251893 -0.962278 -0.0504944 -0.270168 -0.961488 -0.0598034 -0.044947 -0.997198 
-0.0975676 -0.0317178 -0.994723 -0.140976 -0.0903967 -0.985877 -0.0442058 -0.153823 -0.987109 
-0.187169 -0.322589 -0.927849 0.154221 -0.0383724 -0.987291 0.153972 -0.051847 -0.986714 
0.168733 -0.0430099 -0.984723 0.114485 -0.0497697 -0.992177 0.124365 -0.0777714 -0.989184 
-0.0588729 -0.11846 -0.991212 -0.146859 -0.1509 -0.97758 -0.146176 -0.12894 -0.98082 
-0.454194 -0.173562 -0.873833 -0.443479 -0.304976 -0.842802 -0.344766 -0.125714 -0.930232 
0.267262 -0.208848 -0.940719 0.197734 -0.131685 -0.97137 0.0749128 -0.119171 -0.990044 
-0.0460568 -0.0662286 -0.996741 -0.149082 -0.0204616 -0.988613 -0.192768 -0.0925147 -0.976873 
-0.212702 -0.0428087 -0.976179 0.0908723 -0.0754424 -0.993001 0.0756444 -0.073548 -0.994419 
-0.0678268 -0.206961 -0.975995 0.0333293 -0.147632 -0.988481 -0.158734 -0.262004 -0.951923 
-0.122949 -0.348269 -0.929296 -0.130579 -0.338428 -0.931888 0.299481 -0.290886 -0.908678 
0.282346 -0.304682 -0.909642 0.274499 -0.289959 -0.916828 0.0863456 -0.160745 -0.983212 
0.0109834 -0.148754 -0.988813 -0.0818236 -0.0828389 -0.993198 -0.143322 0.000716665 -0.989676 
-0.167346 -0.0215923 -0.985662 0.0395118 -0.264551 -0.963562 -0.0021561 -0.273171 -0.961963 
0.032213 -0.284679 -0.958081 0.0333753 -0.274179 -0.961099 0.214762 -0.37619 -0.901309 
0.210845 -0.38011 -0.900589 0.21066 -0.375898 -0.902399 0.0531591 -0.291374 -0.955131 
0.0350067 -0.264034 -0.963878 -0.00928883 -0.284796 -0.958543 -0.0189723 -0.220994 -0.975091 
-0.106119 -0.18845 -0.976333 -0.106826 -0.212464 -0.971312 -0.108665 -0.194988 -0.974768 

