# vtk DataFile Version 4.2
vtk output
ASCII
DATASET POLYDATA
POINTS 540 float
-32.9998 -42.0144 -18.571 -24.2962 -42.0144 -20.256 -15.5925 -42.0144 -18.5189 
-6.88884 -42.0144 -17.3008 1.81482 -42.0144 -16.4336 10.5185 -42.0144 -15.8435 
-41.7035 -33.3107 -18.74 -32.9998 -33.3107 -21.0339 -24.2962 -33.3107 -22.4873 
-15.5925 -33.3107 -20.839 -6.88884 -33.3107 -19.9368 1.81482 -33.3107 -20.0459 
10.5185 -33.3107 -19.9146 19.2221 -33.3107 -19.2063 27.9258 -33.3107 -18.5476 
36.6295 -33.3107 -17.0472 -50.4071 -24.6071 -16.5196 -41.7035 -24.6071 -20.5062 
-32.9998 -24.6071 -22.9312 -24.2962 -24.6071 -22.1067 -15.5925 -24.6071 -20.9675 
-6.88884 -24.6071 -20.0797 1.81482 -24.6071 -20.5976 10.5185 -24.6071 -20.8505 
19.2221 -24.6071 -21.3386 27.9258 -24.6071 -21.3099 36.6295 -24.6071 -20.8492 
45.3331 -24.6071 -19.9307 54.0368 -24.6071 -16.5732 -50.4071 -15.9034 -19.1269 
-41.7035 -15.9034 -21.74 -32.9998 -15.9034 -22.0719 -24.2962 -15.9034 -21.3775 
-15.5925 -15.9034 -19.9192 -6.88884 -15.9034 -19.0213 1.81482 -15.9034 -19.9303 
10.5185 -15.9034 -20.7063 19.2221 -15.9034 -21.0638 27.9258 -15.9034 -22.1676 
36.6295 -15.9034 -22.4725 45.3331 -15.9034 -21.4147 54.0368 -15.9034 -19.1689 
-50.4071 -7.19973 -20.1507 -41.7035 -7.19973 -21.9266 -32.9998 -7.19973 -21.9649 
-24.2962 -7.19973 -20.9301 -15.5925 -7.19973 -19.3866 -6.88884 -7.19973 -20.9036 
1.81482 -7.19973 -20.0757 10.5185 -7.19973 -21.5347 19.2221 -7.19973 -19.3436 
27.9258 -7.19973 -20.2953 36.6295 -7.19973 -21.1388 45.3331 -7.19973 -21.4777 
54.0368 -7.19973 -20.7558 62.7404 -7.19973 -17.6667 -50.4071 1.50393 -18.5573 
-41.7035 1.50393 -20.4566 -32.9998 1.50393 -20.6239 -24.2962 1.50393 -19.6684 
-15.5925 1.50393 -18.7266 -6.88884 1.50393 -20.4027 1.81482 1.50393 -18.4952 
10.5185 1.50393 -23.8593 19.2221 1.50393 -17.6078 27.9258 1.50393 -19.04 
36.6295 1.50393 -20.3524 45.3331 1.50393 -20.945 54.0368 1.50393 -20.14 
62.7404 1.50393 -17.1529 -50.4071 10.2076 -16.5417 -41.7035 10.2076 -18.7797 
-32.9998 10.2076 -19.3269 -24.2962 10.2076 -18.4332 -15.5925 10.2076 -18.2167 
-6.88884 10.2076 -20.8961 1.81482 10.2076 -20.5325 10.5185 10.2076 -21.7114 
19.2221 10.2076 -18.1161 27.9258 10.2076 -18.5819 36.6295 10.2076 -19.6553 
45.3331 10.2076 -19.7897 54.0368 10.2076 -18.4147 -41.7035 18.9112 -16.6001 
-32.9998 18.9112 -18.0943 -24.2962 18.9112 -18.7321 -15.5925 18.9112 -19.1125 
-6.88884 18.9112 -20.223 1.81482 18.9112 -20.5989 10.5185 18.9112 -20.5834 
19.2221 18.9112 -18.9078 27.9258 18.9112 -17.7078 36.6295 18.9112 -16.8859 
45.3331 18.9112 -16.1491 -32.9998 27.6149 -17.6912 -24.2962 27.6149 -18.7716 
-15.5925 27.6149 -19.4725 -6.88884 27.6149 -20.4874 1.81482 27.6149 -21.3831 
10.5185 27.6149 -20.7182 19.2221 27.6149 -18.8995 27.9258 27.6149 -15.4227 
-24.2962 36.3186 -17.0559 -15.5925 36.3186 -18.2975 -6.88884 36.3186 -20.2013 
1.81482 36.3186 -20.7615 10.5185 36.3186 -20.078 19.2221 36.3186 -16.1497 
-6.88884 45.0222 -16.2085 1.81482 45.0222 -17.0502 10.5185 45.0222 -15.7016 
-32.9998 -46.1823 -15.3283 -24.2962 -47.4278 -15.3283 -24.2962 -50.718 -7.76523 
-15.5925 -45.9501 -15.3283 -6.88884 -44.281 -15.3283 1.81482 -43.1859 -15.3283 
10.5185 -42.5714 -15.3283 -38.8554 -42.0144 -15.3283 -41.7035 -39.2697 -15.3283 
-41.7035 -42.0144 -11.4879 12.9896 -42.0144 -15.3283 19.2221 -39.8984 -15.3283 
19.2221 -42.0144 -12.841 27.9258 -37.816 -15.3283 27.9258 -42.0144 -9.02889 
36.6295 -35.2985 -15.3283 -45.921 -33.3107 -15.3283 -50.4071 -26.8272 -15.3283 
-50.4071 -33.3107 -6.74939 43.9581 -33.3107 -15.3283 45.3331 -32.797 -15.3283 
45.3331 -33.3107 -14.8982 54.0368 -26.9532 -15.3283 54.0368 -33.3107 -8.38577 
-52.0161 -24.6071 -15.3283 56.4786 -24.6071 -15.3283 -56.1719 -15.9034 -15.3283 
-59.1108 -15.9034 -12.3985 61.4507 -15.9034 -15.3283 62.7404 -13.5976 -15.3283 
62.7404 -15.9034 -14.2568 -59.0379 -7.19973 -15.3283 -59.1108 -7.19973 -15.2772 
65.5792 -7.19973 -15.3283 -56.6557 1.50393 -15.3283 -59.1108 1.50393 -13.7901 
64.9118 1.50393 -15.3283 62.7404 6.89948 -15.3283 -52.642 10.2076 -15.3283 
-59.1108 10.2076 -10.8699 -50.4071 13.1861 -15.3283 60.8159 10.2076 -15.3283 
54.0368 16.1542 -15.3283 62.7404 10.2076 -13.9874 -44.7727 18.9112 -15.3283 
-50.4071 18.9112 -12.6649 -41.7035 23.9544 -15.3283 36.6295 22.6494 -15.3283 
48.4015 18.9112 -15.3283 45.3331 20.05 -15.3283 54.0368 18.9112 -13.2819 
62.7404 18.9112 -7.34251 -50.4071 27.6149 -7.83009 -39.2162 27.6149 -15.3283 
-41.7035 27.6149 -14.2336 -32.9998 36.0561 -15.3283 28.3086 27.6149 -15.3283 
27.9258 27.8614 -15.3283 36.6295 27.6149 -12.7182 45.3331 27.6149 -8.02698 
-41.7035 36.3186 -9.00946 -32.6351 36.3186 -15.3283 -32.9998 36.3186 -15.2368 
-24.2962 39.2584 -15.3283 -15.5925 43.0093 -15.3283 20.7265 36.3186 -15.3283 
19.2221 37.736 -15.3283 27.9258 36.3186 -10.8975 -24.2962 45.0222 -9.55382 
-10.9458 45.0222 -15.3283 -15.5925 45.0222 -13.8417 -6.88884 46.1021 -15.3283 
1.81482 47.1066 -15.3283 11.2242 45.0222 -15.3283 10.5185 45.3967 -15.3283 
19.2221 45.0222 -8.99843 -24.2962 -51.0672 -6.62462 -41.7035 -44.455 -6.62462 
-32.277 -50.718 -6.62462 -32.9998 -50.6818 -6.62462 -22.6039 -50.718 -6.62462 
-24.2962 -50.718 -5.37302 -15.5925 -49.2515 -6.62462 -6.88884 -47.3756 -6.62462 
1.81482 -46.1673 -6.62462 10.5185 -45.9497 -6.62462 19.2221 -44.8428 -6.62462 
27.9258 -43.15 -6.62462 -43.9154 -42.0144 -6.62462 -50.4071 -33.3887 -6.62462 
-41.7035 -42.0144 -0.500379 1.81482 -42.0144 1.56616 34.0329 -42.0144 -6.62462 
36.6295 -41.5037 -6.62462 45.3331 -38.7768 -6.62462 54.0368 -34.2279 -6.62462 
-50.4635 -33.3107 -6.62462 -50.4071 -33.3107 -6.40789 55.1824 -33.3107 -6.62462 
-57.7405 -24.6071 -6.62462 -59.1108 -22.6033 -6.62462 62.7313 -24.6071 -6.62462 
62.7404 -24.5939 -6.62462 -62.9897 -15.9034 -6.62462 67.3824 -15.9034 -6.62462 
-66.5332 -7.19973 -6.62462 -67.8145 -7.19973 1.18204 70.5622 -7.19973 -6.62462 
-66.2154 1.50393 -6.62462 -67.8145 1.50393 -1.25357 70.2317 1.50393 -6.62462 
-63.1953 10.2076 -6.62462 -59.1108 17.679 -6.62462 68.0795 10.2076 -6.62462 
-58.2889 18.9112 -6.62462 -59.1108 18.9112 -4.97953 54.0368 25.183 -6.62462 
63.2365 18.9112 -6.62462 62.7404 19.3877 -6.62462 -51.7262 27.6149 -6.62462 
-50.4071 29.5839 -6.62462 36.6295 33.784 -6.62462 48.4243 27.6149 -6.62462 
45.3331 28.969 -6.62462 -44.813 36.3186 -6.62462 -41.7035 38.5748 -6.62462 
-32.9998 43.6119 -6.62462 33.2654 36.3186 -6.62462 27.9258 40.5419 -6.62462 
36.6295 36.3186 -2.9412 -29.1285 45.0222 -6.62462 -24.2962 46.6361 -6.62462 
-15.5925 49.425 -6.62462 -6.88884 51.6472 -6.62462 1.81482 52.3991 -6.62462 
10.5185 50.5958 -6.62462 21.681 45.0222 -6.62462 19.2221 46.4506 -6.62462 
-32.9998 -47.658 2.07904 -24.2962 -48.5428 2.07904 -15.5925 -46.7624 2.07904 
-6.88884 -43.6193 2.07904 10.5185 -42.4746 2.07904 19.2221 -42.9645 2.07904 
27.9258 -42.6305 2.07904 -40.6116 -42.0144 2.07904 -41.7035 -40.9432 2.07904 
-32.9998 -42.0144 10.2199 0.385176 -42.0144 2.07904 -6.88884 -42.0144 4.60976 
5.36373 -42.0144 2.07904 1.81482 -41.6906 2.07904 10.5185 -42.0144 2.78783 
19.2221 -42.0144 3.74413 36.0086 -42.0144 2.07904 27.9258 -42.0144 3.44886 
36.6295 -41.9658 2.07904 45.3331 -39.3126 2.07904 54.0368 -34.2162 2.07904 
-48.1694 -33.3107 2.07904 -50.4071 -30.5719 2.07904 -41.7035 -33.3107 10.6425 
55.0895 -33.3107 2.07904 54.0368 -33.3107 4.13168 -56.826 -24.6071 2.07904 
-59.1108 -22.2786 2.07904 -50.4071 -24.6071 9.82216 61.9044 -24.6071 2.07904 
62.7404 -22.8384 2.07904 -63.4204 -15.9034 2.07904 -67.8145 -7.48342 2.07904 
65.6831 -15.9034 2.07904 62.7404 -15.9034 6.79971 -67.9385 -7.19973 2.07904 
-67.8145 -7.19973 2.48267 68.602 -7.19973 2.07904 62.7404 -7.19973 10.3221 
-68.5848 1.50393 2.07904 -67.8145 4.79204 2.07904 -67.8145 1.50393 5.39286 
68.4106 1.50393 2.07904 62.7404 1.50393 10.2041 -66.5457 10.2076 2.07904 
66.9561 10.2076 2.07904 62.7404 10.2076 8.84315 -61.5337 18.9112 2.07904 
-59.1108 22.8223 2.07904 54.0368 27.5053 2.07904 62.9475 18.9112 2.07904 
62.7404 19.1514 2.07904 62.7404 18.9112 2.4546 -55.8184 27.6149 2.07904 
-50.4071 34.059 2.07904 53.8959 27.6149 2.07904 45.3331 33.4837 2.07904 
-47.8352 36.3186 2.07904 -41.7035 40.7675 2.07904 -32.9998 43.5643 2.07904 
27.9258 44.9289 2.07904 41.2455 36.3186 2.07904 36.6295 39.407 2.07904 
-26.6617 45.0222 2.07904 -24.2962 45.5645 2.07904 -24.2962 45.0222 3.19757 
-15.5925 48.1706 2.07904 -15.5925 45.0222 8.28656 -6.88884 51.0674 2.07904 
1.81482 52.2051 2.07904 10.5185 51.4174 2.07904 27.7568 45.0222 2.07904 
19.2221 48.9659 2.07904 27.9258 45.0222 5.53755 -24.2962 -43.0084 10.7827 
-15.5925 -42.423 10.7827 -30.4814 -42.0144 10.7827 -32.9998 -41.3261 10.7827 
-24.2962 -42.0144 11.9228 -14.82 -42.0144 10.7827 -15.5925 -42.0144 11.1961 
-6.88884 -37.2376 10.7827 1.81482 -33.5586 10.7827 10.5185 -34.5714 10.7827 
19.2221 -36.7266 10.7827 27.9258 -37.7082 10.7827 36.6295 -37.7825 10.7827 
45.3331 -35.3736 10.7827 -41.5262 -33.3107 10.7827 -41.7035 -33.1426 10.7827 
-32.9998 -33.3107 15.3503 -24.2962 -33.3107 17.8518 -15.5925 -33.3107 17.252 
-6.88884 -33.3107 13.9894 1.81482 -33.3107 10.9771 10.5185 -33.3107 11.6392 
19.2221 -33.3107 13.5253 27.9258 -33.3107 15.0996 36.6295 -33.3107 15.4361 
48.8573 -33.3107 10.7827 45.3331 -33.3107 13.0571 54.0368 -28.3897 10.7827 
-59.1108 -16.112 10.7827 -49.5271 -24.6071 10.7827 -50.4071 -23.8974 10.7827 
-41.7035 -24.6071 15.7029 -32.9998 -24.6071 19.0927 -6.88884 -24.6071 17.4839 
1.81482 -24.6071 15.5442 10.5185 -24.6071 15.7609 19.2221 -24.6071 17.8016 
45.3331 -24.6071 18.0691 56.6408 -24.6071 10.7827 54.0368 -24.6071 13.183 
-59.336 -15.9034 10.7827 -59.1108 -15.9034 10.9426 -50.4071 -15.9034 16.768 
-6.88884 -15.9034 18.4967 10.5185 -15.9034 18.4411 59.377 -15.9034 10.7827 
54.0368 -15.9034 15.3501 -64.4588 -7.19973 10.7827 -59.1108 -7.19973 16.7026 
62.2727 -7.19973 10.7827 54.0368 -7.19973 16.6707 -66.2025 1.50393 10.7827 
-59.1108 1.50393 18.9812 62.1303 1.50393 10.7827 54.0368 1.50393 16.6026 
-64.2428 10.2076 10.7827 -59.1108 10.2076 17.3095 61.0721 10.2076 10.7827 
[...]
POINT_DATA 540
SCALARS ImageScalars float
LOOKUP_TABLE default
0 0 0 0 0 0 0 0 0 
0 0 0 0 0 0 0 0 0 
0 0 0 0 0 0 0 0 0 
0 0 0 0 0 0 0 0 0 
0 0 0 0 0 0 0 0 0 
0 0 0 0 0 0 0 0 0 
0 0 0 0 0 0 0 0 0 
0 0 0 0 0 0 0 0 0 
0 0 0 0 0 0 0 0 0 
0 0 0 0 0 0 0 0 0 
0 0 0 0 0 0 0 0 0 
0 0 0 0 0 0 0 0 0 
0 0 0 0 0 0 0 0 0 
0 0 0 0 0 0 0 0 0 
0 0 0 0 0 0 0 0 0 
0 0 0 0 0 0 0 0 0 
0 0 0 0 0 0 0 0 0 
0 0 0 0 0 0 0 0 0 
0 0 0 0 0 0 0 0 0 
0 0 0 0 0 0 0 0 0 
0 0 0 0 0 0 0 0 0 
0 0 0 0 0 0 0 0 0 
0 0 0 0 0 0 0 0 0 
0 0 0 0 0 0 0 0 0 
0 0 0 0 0 0 0 0 0 
0 0 0 0 0 0 0 0 0 
0 0 0 0 0 0 0 0 0 
0 0 0 0 0 0 0 0 0 
0 0 0 0 0 0 0 0 0 
0 0 0 0 0 0 0 0 0 
0 0 0 0 0 0 0 0 0 
0 0 0 0 0 0 0 0 0 
0 0 0 0 0 0 0 0 0 
0 0 0 0 0 0 0 0 0 
0 0 0 0 0 0 0 0 0 
0 0 0 0 0 0 0 0 0 
0 0 0 0 0 0 0 0 0 
0 0 0 0 0 0 0 0 0 
0 0 0 0 0 0 0 0 0 
0 0 0 0 0 0 0 0 0 
0 0 0 0 0 0 0 0 0 
0 0 0 0 0 0 0 0 0 
0 0 0 0 0 0 0 0 0 
0 0 0 0 0 0 0 0 0 
0 0 0 0 0 0 0 0 0 
0 0 0 0 0 0 0 0 0 
0 0 0 0 0 0 0 0 0 
0 0 0 0 0 0 0 0 0 
0 0 0 0 0 0 0 0 0 
0 0 0 0 0 0 0 0 0 
0 0 0 0 0 0 0 0 0 
0 0 0 0 0 0 0 0 0 
0 0 0 0 0 0 0 0 0 
0 0 0 0 0 0 0 0 0 
0 0 0 0 0 0 0 0 0 
0 0 0 0 0 0 0 0 0 
0 0 0 0 0 0 0 0 0 
0 0 0 0 0 0 0 0 0 
0 0 0 0 0 0 0 0 0 
0 0 0 0 0 0 0 0 0 

NORMALS Normals float
-0.32252 -0.485459 -0.812595 0.0109311 -0.487656 -0.872967 0.156322 -0.487955 -0.858757 
0.12163 -0.588402 -0.799368 0.0832898 -0.673198 -0.734756 0.125829 -0.69427 -0.70863 
-0.460141 -0.361477 -0.810928 -0.185782 -0.217976 -0.958108 0.0144866 -0.0794602 -0.996733 
0.140057 -0.123328 -0.982433 0.0454311 -0.144721 -0.988429 0.00162945 -0.219773 -0.97555 
0.0431234 -0.25058 -0.967135 0.0798171 -0.34984 -0.933403 0.102887 -0.470871 -0.876182 
0.186186 -0.56711 -0.802322 -0.568554 -0.362476 -0.738483 -0.324941 -0.150488 -0.933685 
-0.0944526 -0.0570158 -0.993895 0.109438 0.0619597 -0.992061 0.116494 0.052567 -0.991799 
0.0210081 0.0527012 -0.998389 -0.0445784 0.00739519 -0.998978 -0.0418461 -0.0467811 -0.998028 
-0.0267483 -0.0952212 -0.995097 0.0259857 -0.191907 -0.981069 0.0747016 -0.265622 -0.961179 
0.231594 -0.345132 -0.909532 0.416938 -0.389014 -0.821481 -0.409592 -0.190702 -0.892114 
-0.146731 -0.0814774 -0.985815 0.021081 0.0532887 -0.998357 0.122587 0.0671551 -0.990183 
0.136387 0.0914768 -0.986423 -0.000800296 -0.0435791 -0.99905 -0.0970953 0.0303513 -0.994812 
-0.0640099 -0.0362273 -0.997292 -0.0844057 0.113974 -0.989892 -0.0790853 0.0478061 -0.995721 
0.0513979 -0.0120793 -0.998605 0.170309 -0.0744506 -0.982574 0.338241 -0.213952 -0.916416 
-0.317045 0.0354211 -0.947749 -0.0939415 0.0724692 -0.992937 0.0565849 0.0819518 -0.995029 
0.148661 0.0974476 -0.984075 0.00421773 0.0677589 -0.997693 -0.0430942 -0.0843658 -0.995503 
-0.0346681 0.0622267 -0.99746 0.0465519 -0.129445 -0.990493 0.0685683 0.18262 -0.98079 
-0.104888 0.175281 -0.978915 -0.063452 0.118986 -0.990866 0.0190706 0.0264134 -0.999469 
0.180163 -0.0533965 -0.982186 0.534331 -0.12809 -0.835514 -0.315582 0.189283 -0.929828 
-0.109611 0.177002 -0.978088 0.045464 0.156938 -0.986561 0.108134 0.145272 -0.983465 
-0.0365906 0.0683537 -0.99699 -0.0126242 0.000468187 -0.99992 -0.0897886 -0.0375554 -0.995253 
0.105104 -0.018347 -0.994292 0.141505 0.0777583 -0.986879 -0.152474 0.096661 -0.983569 
-0.103474 0.0855164 -0.990949 0.0101563 0.0989123 -0.995044 0.175427 0.128236 -0.976105 
0.528892 0.160386 -0.833396 -0.374075 0.291652 -0.880345 -0.152295 0.210471 -0.965665 
0.0204213 0.139387 -0.990027 0.0659054 0.0532795 -0.996402 -0.139437 -0.0237597 -0.989946 
-0.130189 0.0122242 -0.991414 -0.0423106 -0.0936589 -0.994705 0.145945 0.146454 -0.978392 
0.165904 -0.0746373 -0.983313 -0.0847355 0.0712095 -0.993856 -0.0707552 0.189974 -0.979236 
0.0644217 0.244441 -0.967522 0.260287 0.310883 -0.914113 -0.262809 0.240088 -0.934499 
-0.115517 0.0958346 -0.988672 -0.057487 -0.0192735 -0.99816 -0.0843294 -0.0693427 -0.994022 
-0.0857721 0.0223003 -0.996065 -0.0205179 -0.0492316 -0.998577 0.0999147 0.0510206 -0.993687 
0.15917 -0.0431463 -0.986308 0.114871 0.173567 -0.9781 0.0823525 0.343157 -0.935661 
0.148365 0.512336 -0.845872 -0.247962 0.164166 -0.954759 -0.0973027 0.0847091 -0.991643 
-0.0975887 0.0432048 -0.994289 -0.108667 0.000124827 -0.994078 -0.0135996 -0.00884309 -0.999868 
0.14185 0.024489 -0.989585 0.296129 0.124566 -0.946991 0.317916 0.307992 -0.8967 
-0.172927 0.357628 -0.917714 -0.16482 0.251527 -0.953713 -0.138501 0.212043 -0.967396 
0.00473893 0.222345 -0.974957 0.221471 0.237832 -0.94572 0.433129 0.401236 -0.807099 
-0.138616 0.579122 -0.80337 0.0196186 0.581828 -0.813075 0.287739 0.637666 -0.714555 
-0.306061 -0.663852 -0.682369 0.0177128 -0.769349 -0.638583 0.0765134 -0.993773 -0.0810047 
0.155582 -0.745993 -0.647525 0.139868 -0.728616 -0.670489 0.0872356 -0.74199 -0.664711 
0.131019 -0.723462 -0.677818 -0.506738 -0.571049 -0.645848 -0.568577 -0.527068 -0.631601 
-0.672621 -0.65234 -0.349332 0.153384 -0.71841 -0.678499 0.184407 -0.672286 -0.716956 
0.203948 -0.843316 -0.497216 0.166554 -0.662138 -0.730639 0.196973 -0.927316 -0.318255 
0.19764 -0.637903 -0.744324 -0.635886 -0.449537 -0.627349 -0.631319 -0.408853 -0.658996 
-0.814535 -0.574683 -0.0791956 0.253062 -0.60622 -0.753961 0.262536 -0.597341 -0.757799 
0.271228 -0.623019 -0.733678 0.442959 -0.478526 -0.758155 0.577812 -0.756655 -0.305952 
-0.61947 -0.393977 -0.678999 0.492969 -0.427813 -0.7576 -0.605188 -0.256187 -0.753734 
-0.750525 -0.343111 -0.564789 0.603991 -0.274454 -0.748245 0.627036 -0.246993 -0.738796 
0.68611 -0.306645 -0.659714 -0.622978 -0.0302432 -0.781654 -0.626385 -0.0312783 -0.778886 
0.636223 -0.150003 -0.756782 -0.507172 0.192118 -0.840159 -0.600131 0.194075 -0.776001 
0.605502 0.167183 -0.778085 0.56614 0.299006 -0.768167 -0.440203 0.306122 -0.844104 
-0.632141 0.336559 -0.697944 -0.411598 0.327352 -0.850545 0.506648 0.369319 -0.779045 
0.324495 0.487854 -0.810371 0.616911 0.393041 -0.681865 -0.338952 0.287133 -0.895917 
-0.499227 0.388086 -0.774701 -0.357816 0.277953 -0.891465 0.172784 0.416086 -0.892758 
0.212242 0.537271 -0.816268 0.167131 0.542065 -0.823549 0.368616 0.609685 -0.701717 
0.655514 0.685266 -0.317352 -0.638807 0.455916 -0.61973 -0.373838 0.270075 -0.887302 
-0.431212 0.326825 -0.840976 -0.322463 0.436889 -0.83973 0.316965 0.317831 -0.893598 
0.322849 0.313791 -0.892919 0.309377 0.552814 -0.773746 0.341839 0.745838 -0.571726 
-0.542375 0.614707 -0.572682 -0.318119 0.441565 -0.83894 -0.325921 0.447114 -0.832985 
-0.215575 0.479654 -0.850564 -0.220751 0.554164 -0.802603 0.442789 0.423698 -0.790201 
0.446584 0.44659 -0.77532 0.500702 0.548155 -0.669943 -0.316843 0.867974 -0.382403 
-0.184949 0.611456 -0.76936 -0.250733 0.699276 -0.669437 -0.146311 0.617795 -0.772608 
0.0377389 0.661932 -0.748613 0.30823 0.641747 -0.70225 0.291614 0.65182 -0.700066 
0.486044 0.733419 -0.475246 0.0813708 -0.996584 -0.0140875 -0.69727 -0.715187 -0.0481878 
-0.240589 -0.970483 -0.0167267 -0.27065 -0.962521 -0.0174043 0.103786 -0.994509 -0.0134548 
0.0754706 -0.99621 0.0432304 0.205753 -0.978381 -0.020871 0.181987 -0.982482 0.0401336 
0.0785162 -0.994699 0.0664027 0.0751881 -0.997112 0.0106556 0.159489 -0.981763 -0.103459 
0.184726 -0.964192 -0.190289 -0.735432 -0.676209 -0.0433777 -0.814289 -0.57582 -0.0732461 
-0.690832 -0.662773 0.288934 0.0563311 -0.836655 0.544826 0.221236 -0.943259 -0.247621 
0.237002 -0.931241 -0.276805 0.362744 -0.896306 -0.255055 0.585482 -0.779838 -0.221503 
-0.814554 -0.575447 -0.0732254 -0.815073 -0.575877 -0.0634107 0.616922 -0.756934 -0.215542 
-0.795973 -0.578152 -0.179353 -0.814221 -0.540295 -0.212427 0.813786 -0.566582 -0.129375 
0.814046 -0.566232 -0.12927 -0.859461 -0.436967 -0.265304 0.914913 -0.381644 -0.131462 
-0.915116 -0.16205 -0.369191 -0.969762 -0.24073 0.0401227 0.981952 -0.170383 -0.0820995 
-0.871759 0.152794 -0.4655 -0.980894 0.106263 -0.162957 0.98781 0.125277 -0.0924012 
-0.760943 0.368906 -0.533736 -0.732834 0.438276 -0.52045 0.898908 0.39288 -0.193932 
-0.728202 0.447698 -0.51893 -0.769321 0.477658 -0.424251 0.467174 0.799964 -0.376572 
0.677867 0.680755 -0.277612 0.657839 0.698249 -0.282306 -0.667542 0.488309 -0.562086 
-0.666296 0.515598 -0.53871 0.42717 0.692039 -0.5819 0.39604 0.784393 -0.477368 
0.373179 0.760823 -0.530929 -0.617992 0.649427 -0.443092 -0.551055 0.706793 -0.4436 
-0.375877 0.881889 -0.284584 0.478925 0.670502 -0.56662 0.522967 0.679399 -0.514705 
0.48636 0.751312 -0.446076 -0.335375 0.913147 -0.231704 -0.313144 0.931129 -0.186924 
-0.28496 0.942646 -0.173828 -0.166483 0.96679 -0.19391 0.0561837 0.974316 -0.218062 
0.309041 0.90847 -0.281382 0.491782 0.763818 -0.418011 0.472739 0.79021 -0.389982 
-0.278857 -0.853466 0.440266 0.0403632 -0.913503 0.404826 0.260102 -0.899532 0.350982 
0.247335 -0.839818 0.483251 -0.0650797 -0.863182 0.500682 -0.00487637 -0.9272 0.374536 
0.0535632 -0.967742 0.246184 -0.625749 -0.650065 0.431107 -0.655461 -0.625043 0.423902 
-0.360553 -0.640303 0.678243 0.0866073 -0.824359 0.559403 0.275189 -0.800637 0.532213 
0.00698659 -0.837909 0.545765 0.0548923 -0.817412 0.573433 -0.071865 -0.849271 0.523043 
-0.0234995 -0.899526 0.436234 0.176117 -0.969684 0.169399 0.0408028 -0.95485 0.294274 
0.185698 -0.968911 0.163484 0.378544 -0.913539 0.148833 0.631562 -0.754289 0.17938 
-0.741857 -0.565641 0.360138 -0.724395 -0.60417 0.332011 -0.546598 -0.533819 0.645188 
0.658863 -0.728544 0.187414 0.640056 -0.721715 0.263545 -0.684528 -0.688752 0.238837 
-0.730768 -0.652798 0.199583 -0.517615 -0.639085 0.568899 0.837424 -0.482658 0.25644 
0.848253 -0.447998 0.282425 -0.826891 -0.553585 0.09897 -0.963512 -0.255566 0.0795612 
0.88191 -0.326406 0.340138 0.787373 -0.288064 0.545035 -0.966073 -0.245192 0.081139 
-0.964465 -0.244524 0.100075 0.924398 -0.151695 0.349967 0.669125 -0.117007 0.733881 
-0.996827 0.079592 -0.00054221 -0.982274 0.187205 -0.00961997 -0.981997 0.0625989 0.17822 
0.935218 0.0847344 0.343785 0.676236 0.048683 0.735075 -0.932151 0.360648 -0.0320692 
0.909042 0.299236 0.29 0.740223 0.247942 0.624975 -0.842895 0.532819 -0.0750436 
-0.821362 0.565875 -0.0717706 0.625934 0.778604 0.0445209 0.775079 0.578607 0.253901 
0.771653 0.584696 0.250363 0.772932 0.574386 0.26955 -0.796236 0.598862 -0.0858604 
-0.696848 0.717101 -0.0129968 0.623257 0.780963 0.0405934 0.56578 0.812343 -0.141392 
-0.622809 0.78202 0.0235442 -0.45378 0.889702 0.0501405 -0.239219 0.949182 0.20452 
0.484812 0.854218 -0.187798 0.55581 0.806427 -0.201868 0.530795 0.806244 -0.261204 
-0.246902 0.932211 0.264616 -0.251355 0.924441 0.286757 -0.245622 0.913139 0.325341 
-0.297765 0.909944 0.288683 -0.275682 0.812282 0.514001 -0.228122 0.946033 0.23018 
-0.0153378 0.98826 0.15201 0.177709 0.982808 0.0500851 0.482374 0.856145 -0.185288 
0.348705 0.933691 -0.0813995 0.466721 0.884402 -0.00235073 -0.0360698 -0.753049 0.656974 
0.244837 -0.751232 0.612948 -0.26545 -0.671355 0.691967 -0.358961 -0.618904 0.698645 
-0.037244 -0.725649 0.687056 0.253994 -0.745317 0.616433 0.245112 -0.739503 0.626941 
0.338734 -0.65258 0.67779 0.111491 -0.582998 0.804788 -0.126086 -0.571373 0.810947 
-0.118739 -0.668634 0.734051 -0.0430319 -0.769818 0.636811 0.110401 -0.792107 0.600315 
0.34241 -0.748186 0.568307 -0.541364 -0.53169 0.65133 -0.543161 -0.531321 0.650134 
-0.334968 -0.427887 0.83947 -0.0890342 -0.375275 0.922627 0.192284 -0.429045 0.88258 
0.32499 -0.527118 0.785193 0.113069 -0.576792 0.809028 -0.126618 -0.533346 0.836367 
-0.166392 -0.558395 0.812717 -0.0926531 -0.587737 0.803729 0.0876699 -0.63771 0.765271 
0.45333 -0.682086 0.573804 0.334353 -0.66232 0.670478 0.640153 -0.475598 0.603333 
-0.588434 -0.54278 0.599279 -0.500188 -0.612336 0.612256 -0.496326 -0.6196 0.608076 
-0.416121 -0.41968 0.806667 -0.215684 -0.268946 0.938695 0.244162 -0.224957 0.943281 
0.0955788 -0.418119 0.90335 -0.116405 -0.344136 0.931676 -0.205397 -0.31712 0.925876 
0.306277 -0.330439 0.892751 0.678017 -0.364458 0.638329 0.618236 -0.33245 0.712223 
-0.593111 -0.540193 0.597002 -0.585929 -0.539554 0.604623 -0.375027 -0.458058 0.805939 
0.0514846 -0.172617 0.983643 -0.0244968 -0.259605 0.965404 0.675568 -0.218949 0.704038 
0.580774 -0.158909 0.798404 -0.79796 -0.234151 0.555367 -0.56225 -0.314948 0.764645 
0.649989 -0.112444 0.751579 0.492044 -0.0564928 0.868736 -0.867373 0.0209044 0.497219 
-0.53556 -0.0250331 0.844126 0.651222 0.0449897 0.757552 0.497851 0.0254802 0.866888 
-0.840379 0.299107 0.451994 -0.616534 0.241076 0.749512 0.668772 0.205197 0.714589 
0.536371 0.0756006 0.84059 -0.811297 0.452236 0.370512 -0.798018 0.480285 0.363996 
-0.777887 0.444379 0.444318 -0.423118 0.271929 0.864307 0.721603 0.413494 0.555258 
0.702595 0.529468 0.47542 0.654057 0.342006 0.674716 -0.702895 0.612459 0.361706 
-0.612633 0.693348 0.379406 -0.565898 0.535846 0.626601 0.672832 0.618446 0.405981 
0.64474 0.698895 0.309608 0.563485 0.509655 0.650181 -0.414162 0.788516 0.454656 
-0.339958 0.808558 0.480274 -0.329785 0.763763 0.554895 -0.119248 0.833729 0.539143 
-0.103632 0.753865 0.648805 -0.162948 0.779554 0.604767 -0.0718286 0.685447 0.724571 
-0.25976 0.738421 0.622302 -0.189305 0.538946 0.820793 -0.24607 0.377564 0.89269 
0.616191 0.741907 0.264351 0.567861 0.790014 0.23111 0.539509 0.632245 0.556053 
-0.289639 0.763151 0.577676 -0.311798 0.770125 0.556497 -0.313575 0.731688 0.605229 
-0.142851 0.880307 0.452385 -0.158809 0.653165 0.740375 0.0717372 0.915105 0.396783 
0.0505386 0.658392 0.750977 0.244904 0.90494 0.348002 0.244755 0.766138 0.594245 
0.410843 0.868353 0.277797 0.407223 0.869424 0.27977 0.405181 0.866837 0.290556 
-0.0583051 -0.207482 0.9765 0.148325 -0.211048 0.966157 -0.101185 -0.313986 0.94402 
0.0793299 -0.320792 0.943822 -0.207729 -0.32048 0.924198 -0.142964 -0.222783 0.964328 
-0.175823 -0.240512 0.954589 -0.0469149 -0.161066 0.985828 0.161883 -0.170642 0.971944 
0.138601 -0.157836 0.97769 0.00166586 -0.310667 0.950517 -0.105854 -0.309825 0.944883 
-0.186888 -0.183881 0.965019 -0.100834 -0.309648 0.94549 0.111606 -0.304794 0.945857 
0.0780452 -0.300838 0.950476 0.306608 -0.204762 0.92955 -0.209572 -0.324743 0.922292 
-0.28839 -0.332163 0.898053 -0.198379 -0.315793 0.927858 -0.0702159 -0.161451 0.98438 
0.0179673 -0.0897114 0.995806 0.0970316 -0.127749 0.987049 0.138487 -0.0917112 0.986109 
0.00174193 -0.310104 0.950701 0.0397048 -0.202296 0.978519 0.00150142 -0.310404 0.950604 
0.00155909 -0.310569 0.95055 -0.139568 -0.182122 0.97332 0.00487413 -0.256072 0.966645 
-0.178591 -0.152897 0.971971 -0.115175 -0.129206 0.984906 0.0696176 -0.121387 0.990161 
0.36872 -0.128659 0.920593 0.315252 -0.121869 0.941151 -0.357178 -0.295056 0.886209 
-0.263647 -0.265217 0.927443 -0.0704245 -0.195172 0.978237 0.0194704 -0.113874 0.993304 
0.0223003 -0.0359721 0.999104 0.0453367 -0.143435 0.988621 0.0302289 -0.242954 0.969567 
0.0242441 -0.0645528 0.99762 0.0276588 -0.250493 0.967723 -0.0863121 -0.116589 0.989423 
-0.0727842 -0.0541778 0.995875 0.0801029 -0.0191293 0.996603 0.328165 -0.0124113 0.944539 
0.272498 -0.003133 0.962151 -0.487791 -0.0291069 0.872475 -0.22301 -0.0297748 0.974361 
-0.0697954 -0.0704459 0.995071 0.0891302 -0.0614945 0.99412 -0.00690504 -0.0426438 0.999066 
-0.0702005 -0.0481026 0.996372 0.125787 -0.114971 0.985373 -0.0247588 -0.0984682 0.994832 
-0.0635236 -0.066242 0.995779 0.0195386 -0.0777295 0.996783 -0.0177508 -0.06135 0.997958 
0.114981 -0.0347944 0.992758 0.348731 0.00645384 0.937201 0.295867 0.00025544 0.955229 
-0.453798 0.19483 0.869545 -0.401989 0.254898 0.87945 -0.280792 0.114249 0.952944 
-0.111398 0.0441008 0.992797 0.0437754 -0.0175779 0.998887 0.0348584 -0.0793297 0.996239 
-0.0206189 0.02065 0.999574 -0.00870075 -0.00201078 0.99996 0.0644059 -0.0837617 0.994402 
0.0442767 0.139509 0.98923 -0.0800249 0.0187578 0.996616 -0.0293325 -0.0199904 0.99937 
0.137881 0.000277006 0.990449 0.372457 0.0321379 0.927493 0.326965 0.0296815 0.94457 
-0.398918 0.260453 0.879221 -0.185596 0.182447 0.96554 -0.0328171 0.111495 0.993223 
0.0278966 0.0698496 0.997167 0.0103576 0.0963745 0.995291 0.00718855 0.0393149 0.999201 
0.124535 0.0125837 0.992135 0.0344736 -0.00405116 0.999397 -0.129187 0.0167711 0.991478 
-0.0360253 0.0506688 0.998066 0.161418 0.115622 0.98009 0.383381 0.188192 0.904214 
0.378512 0.218561 0.899422 0.35007 0.172597 0.920685 -0.264494 0.416553 0.869785 
-0.230162 0.434457 0.870788 -0.223708 0.407985 0.885157 -0.0713901 0.467928 0.880878 
-0.0626029 0.350527 0.934458 -0.00264301 0.455922 0.890016 0.0114265 0.354331 0.93505 
-0.0961802 0.37007 0.924012 -0.0585318 0.29616 0.953343 -0.241255 0.370055 0.897137 
-0.0940059 0.167606 0.981362 0.033063 0.0611989 0.997578 0.0453839 -0.0417983 0.998095 
-0.0395873 0.0538468 0.997764 0.0673945 0.143283 0.987384 0.343381 0.335123 0.877373 
0.333143 0.350804 0.875187 0.281867 0.294171 0.913244 -0.239966 0.37158 0.896853 
-0.126251 0.407078 0.904626 -0.0974407 0.273837 0.956827 0.0425707 0.421488 0.905834 
0.0306401 0.18529 0.982206 0.107462 0.386605 0.915963 0.0661331 0.278673 0.958106 
0.25979 0.459146 0.849526 0.205844 0.481195 0.852103 0.184239 0.420675 0.888306 

