# vtk DataFile Version 4.2
vtk output
ASCII
DATASET POLYDATA
POINTS 482 float
-13.6828 -36.2789 -19.3151 -5.3671 -36.2789 -20.2016 2.94861 -36.2789 -18.4541 
-30.3142 -27.9632 -20.2791 -21.9985 -27.9632 -22.6672 -13.6828 -27.9632 -23.7198 
-5.3671 -27.9632 -24.0235 2.94861 -27.9632 -23.4291 11.2643 -27.9632 -21.7591 
19.58 -27.9632 -19.4641 -38.6299 -19.6474 -22.126 -30.3142 -19.6474 -24.8938 
-21.9985 -19.6474 -25.0492 -13.6828 -19.6474 -25.0981 -5.3671 -19.6474 -25.4723 
2.94861 -19.6474 -25.5488 11.2643 -19.6474 -25.0291 19.58 -19.6474 -23.786 
27.8957 -19.6474 -21.7907 36.2114 -19.6474 -19.4427 -46.9457 -11.3317 -20.545 
-38.6299 -11.3317 -24.9673 -30.3142 -11.3317 -25.9622 -21.9985 -11.3317 -25.5708 
-13.6828 -11.3317 -24.926 -5.3671 -11.3317 -25.4326 2.94861 -11.3317 -25.276 
11.2643 -11.3317 -25.7397 19.58 -11.3317 -25.2698 27.8957 -11.3317 -23.6275 
36.2114 -11.3317 -22.164 44.5272 -11.3317 -19.8343 -46.9457 -3.01603 -22.9381 
-38.6299 -3.01603 -26.177 -30.3142 -3.01603 -26.0556 -21.9985 -3.01603 -25.2961 
-13.6828 -3.01603 -25.0086 -5.3671 -3.01603 -26.2115 2.94861 -3.01603 -24.9329 
11.2643 -3.01603 -25.7358 19.58 -3.01603 -25.6049 27.8957 -3.01603 -24.4007 
36.2114 -3.01603 -23.2738 44.5272 -3.01603 -21.0079 -46.9457 5.29968 -22.1695 
-38.6299 5.29968 -25.6481 -30.3142 5.29968 -26.4297 -21.9985 5.29968 -25.1384 
-13.6828 5.29968 -24.7959 -5.3671 5.29968 -25.9449 2.94861 5.29968 -25.2336 
11.2643 5.29968 -25.5813 19.58 5.29968 -25.5242 27.8957 5.29968 -24.5904 
36.2114 5.29968 -23.3293 44.5272 5.29968 -20.8639 -46.9457 13.6154 -19.0784 
-38.6299 13.6154 -23.9897 -30.3142 13.6154 -25.5035 -21.9985 13.6154 -25.1875 
-13.6828 13.6154 -24.3099 -5.3671 13.6154 -23.8892 2.94861 13.6154 -24.4756 
11.2643 13.6154 -24.7247 19.58 13.6154 -24.6234 27.8957 13.6154 -23.7209 
36.2114 13.6154 -22.0577 44.5272 13.6154 -18.9883 -38.6299 21.9311 -21.6746 
-30.3142 21.9311 -24.7906 -21.9985 21.9311 -24.7205 -13.6828 21.9311 -23.4819 
-5.3671 21.9311 -22.6523 2.94861 21.9311 -23.04 11.2643 21.9311 -23.2584 
19.58 21.9311 -22.8427 27.8957 21.9311 -21.6996 36.2114 21.9311 -19.1662 
-30.3142 30.2468 -21.4484 -21.9985 30.2468 -22.0734 -13.6828 30.2468 -21.1621 
-5.3671 30.2468 -19.79 2.94861 30.2468 -19.8858 11.2643 30.2468 -19.9072 
19.58 30.2468 -19.4117 -13.6828 -37.5868 -18.1335 -5.3671 -38.5909 -18.1335 
2.94861 -36.6451 -18.1335 -30.3142 -30.5572 -18.1335 -18.2728 -36.2789 -18.1335 
-21.9985 -34.8799 -18.1335 -21.9985 -36.2789 -16.5159 3.73769 -36.2789 -18.1335 
11.2643 -32.6498 -18.1335 11.2643 -36.2789 -13.6897 19.58 -29.483 -18.1335 
-34.0127 -27.9632 -18.1335 -38.6299 -24.3546 -18.1335 -38.6299 -27.9632 -12.2637 
23.8687 -27.9632 -18.1335 27.8957 -25.9962 -18.1335 27.8957 -27.9632 -16.5862 
36.2114 -21.7586 -18.1335 36.2114 -27.9632 -12.6537 -43.7 -19.6474 -18.1335 
-46.9457 -15.3944 -18.1335 39.3174 -19.6474 -18.1335 44.5272 -15.1726 -18.1335 
44.5272 -19.6474 -15.4194 -49.1885 -11.3317 -18.1335 48.335 -11.3317 -18.1335 
52.8429 -11.3317 -15.0613 -51.8966 -3.01603 -18.1335 50.5132 -3.01603 -18.1335 
52.8429 -3.01603 -16.813 -51.168 5.29968 -18.1335 50.1229 5.29968 -18.1335 
52.8429 5.29968 -16.4384 -47.886 13.6154 -18.1335 -46.9457 15.4516 -18.1335 
46.0046 13.6154 -18.1335 44.5272 15.3994 -18.1335 52.8429 13.6154 -12.4598 
-42.9336 21.9311 -18.1335 -38.6299 27.6901 -18.1335 27.8957 29.0027 -18.1335 
38.124 21.9311 -18.1335 36.2114 23.634 -18.1335 44.5272 21.9311 -13.6486 
-35.9597 30.2468 -18.1335 -38.6299 30.2468 -14.1199 -30.3142 33.6521 -18.1335 
-21.9985 35.0366 -18.1335 -13.6828 34.4292 -18.1335 -5.3671 32.6245 -18.1335 
2.94861 32.6657 -18.1335 11.2643 32.6613 -18.1335 25.089 30.2468 -18.1335 
19.58 31.885 -18.1335 27.8957 30.2468 -17.2794 36.2114 30.2468 -12.6925 
-21.9985 38.5625 -12.072 -13.6828 38.5625 -12.0292 -5.3671 38.5625 -11.386 
2.94861 38.5625 -11.2827 11.2643 38.5625 -10.2778 -21.9985 -39.8925 -9.81779 
-13.6828 -42.9188 -9.81779 -5.3671 -43.922 -9.81779 -5.3671 -44.5946 -3.88279 
2.94861 -42.2706 -9.81779 11.2643 -38.8995 -9.81779 -38.6299 -29.0926 -9.81779 
-29.2168 -36.2789 -9.81779 -30.3142 -35.6419 -9.81779 17.7514 -36.2789 -9.81779 
19.58 -35.5879 -9.81779 19.58 -36.2789 -7.64793 27.8957 -33.269 -9.81779 
36.2114 -29.987 -9.81779 -39.7385 -27.9632 -9.81779 40.1211 -27.9632 -9.81779 
44.5272 -25.2093 -9.81779 -46.6525 -19.6474 -9.81779 -46.9457 -19.2072 -9.81779 
51.4405 -19.6474 -9.81779 52.8429 -18.0303 -9.81779 52.8429 -19.6474 -5.90563 
-52.1028 -11.3317 -9.81779 57.1729 -11.3317 -9.81779 -54.8999 -3.01603 -9.81779 
59.5793 -3.01603 -9.81779 61.1586 -3.01603 -4.84644 -54.6726 5.29968 -9.81779 
-55.2614 5.29968 -2.42253 58.9902 5.29968 -9.81779 61.1586 5.29968 -3.78019 
-51.7671 13.6154 -9.81779 -46.9457 21.9064 -9.81779 54.8533 13.6154 -9.81779 
52.8429 16.4474 -9.81779 -46.9305 21.9311 -9.81779 -46.9457 21.9311 -8.28907 
48.0892 21.9311 -9.81779 44.5272 25.6326 -9.81779 -40.2902 30.2468 -9.81779 
-38.6299 31.8933 -9.81779 -30.3142 37.2803 -9.81779 19.58 37.9125 -9.81779 
27.8957 35.8624 -9.81779 39.2492 30.2468 -9.81779 36.2114 32.306 -9.81779 
-25.6268 38.5625 -9.81779 -21.9985 39.4987 -9.81779 -13.6828 39.5183 -9.81779 
-5.3671 39.5225 -9.81779 2.94861 39.4572 -9.81779 13.5651 38.5625 -9.81779 
11.2643 38.7915 -9.81779 -5.3671 -44.8435 -1.50208 -21.9985 -40.7762 -1.50208 
-7.22471 -44.5946 -1.50208 -13.6828 -43.7204 -1.50208 -3.46631 -44.5946 -1.50208 
-5.3671 -44.5946 -0.425399 2.94861 -43.7174 -1.50208 11.2643 -40.9193 -1.50208 
19.58 -37.9801 -1.50208 -38.6299 -28.205 -1.50208 -29.7776 -36.2789 -1.50208 
-30.3142 -35.8918 -1.50208 25.4496 -36.2789 -1.50208 27.8957 -35.5316 -1.50208 
36.2114 -32.0749 -1.50208 -38.8508 -27.9632 -1.50208 -38.6299 -27.9632 -0.60304 
43.4418 -27.9632 -1.50208 44.5272 -27.2827 -1.50208 52.8429 -20.9073 -1.50208 
-46.0125 -19.6474 -1.50208 -46.9457 -18.4259 -1.50208 54.211 -19.6474 -1.50208 
52.8429 -19.6474 1.72196 -52.1359 -11.3317 -1.50208 59.89 -11.3317 -1.50208 
61.1586 -6.58266 -1.50208 -55.1855 -3.01603 -1.50208 -55.2614 1.16718 -1.50208 
62.0268 -3.01603 -1.50208 61.1586 -3.01603 2.68827 -55.3344 5.29968 -1.50208 
-55.2614 5.52955 -1.50208 -55.2614 5.29968 -0.809057 61.7816 5.29968 -1.50208 
61.1586 6.57607 -1.50208 61.1586 5.29968 2.08379 -52.3769 13.6154 -1.50208 
57.3588 13.6154 -1.50208 52.8429 19.7189 -1.50208 -47.0159 21.9311 -1.50208 
-46.9457 22.0174 -1.50208 -46.9457 21.9311 -1.19737 50.8435 21.9311 -1.50208 
44.5272 28.0314 -1.50208 -39.686 30.2468 -1.50208 -38.6299 31.2301 -1.50208 
-38.6299 30.2468 1.22279 -30.3142 36.7407 -1.50208 19.58 38.3377 -1.50208 
27.8957 36.5271 -1.50208 41.5465 30.2468 -1.50208 36.2114 33.5581 -1.50208 
-24.8129 38.5625 -1.50208 -21.9985 39.4308 -1.50208 -21.9985 38.5625 2.78177 
-13.6828 40.8817 -1.50208 -5.3671 41.7626 -1.50208 2.94861 41.3073 -1.50208 
18.166 38.5625 -1.50208 11.2643 39.6393 -1.50208 11.2643 38.5625 2.29657 
-21.9985 -39.1395 6.81363 -13.6828 -41.8778 6.81363 -5.3671 -42.7399 6.81363 
2.94861 -41.6695 6.81363 11.2643 -39.2701 6.81363 19.58 -36.5852 6.81363 
-26.9625 -36.2789 6.81363 -30.3142 -33.8102 6.81363 -21.9985 -36.2789 12.5793 
2.94861 -36.2789 14.4944 11.2643 -36.2789 11.2119 20.4926 -36.2789 6.81363 
19.58 -36.2789 7.30918 27.8957 -33.4338 6.81363 36.2114 -29.4163 6.81363 
-36.4526 -27.9632 6.81363 -38.6299 -25.5209 6.81363 27.8957 -27.9632 12.958 
38.7068 -27.9632 6.81363 36.2114 -27.9632 8.64606 44.5272 -24.2517 6.81363 
-43.7446 -19.6474 6.81363 -46.9457 -15.6737 6.81363 50.3396 -19.6474 6.81363 
44.5272 -19.6474 11.7418 52.8429 -17.1126 6.81363 -50.2606 -11.3317 6.81363 
57.3801 -11.3317 6.81363 52.8429 -11.3317 11.6612 -54.0449 -3.01603 6.81363 
60.1598 -3.01603 6.81363 -54.4211 5.29968 6.81363 60.099 5.29968 6.81363 
-51.2199 13.6154 6.81363 -46.9457 19.499 6.81363 55.7805 13.6154 6.81363 
52.8429 17.6651 6.81363 52.8429 13.6154 11.2151 -44.8659 21.9311 6.81363 
-38.6299 28.0405 6.81363 49.0046 21.9311 6.81363 44.5272 25.9927 6.81363 
44.5272 21.9311 12.4665 -35.8907 30.2468 6.81363 -30.3142 33.989 6.81363 
-30.3142 30.2468 14.961 -21.9985 37.677 6.81363 11.2643 37.1416 6.81363 
19.58 35.1574 6.81363 19.58 30.2468 14.1812 27.8957 34.1549 6.81363 
27.8957 30.2468 12.5836 38.4004 30.2468 6.81363 36.2114 31.5079 6.81363 
36.2114 30.2468 9.00296 -19.3241 38.5625 6.81363 -13.6828 40.2983 6.81363 
-13.6828 38.5625 12.392 -5.3671 41.5674 6.81363 -5.3671 38.5625 15.1056 
7.63775 38.5625 6.81363 2.94861 40.3399 6.81363 2.94861 38.5625 10.6727 
-13.6828 -37.2522 15.1293 -5.3671 -37.4584 15.1293 -30.3142 -29.2674 15.1293 
-17.1369 -36.2789 15.1293 -21.9985 -34.6375 15.1293 -13.6828 -36.2789 16.2744 
0.460083 -36.2789 15.1293 -5.3671 -36.2789 16.3447 2.94861 -35.6256 15.1293 
11.2643 -32.3078 15.1293 19.58 -28.7919 15.1293 -31.7994 -27.9632 15.1293 
-38.6299 -21.5613 15.1293 -30.3142 -27.9632 16.5871 -21.9985 -27.9632 21.2011 
-13.6828 -27.9632 22.6317 -5.3671 -27.9632 22.5965 2.94861 -27.9632 20.5027 
11.2643 -27.9632 18.0793 21.5811 -27.9632 15.1293 19.58 -27.9632 15.6919 
27.8957 -24.6485 15.1293 36.2114 -20.444 15.1293 -40.4128 -19.6474 15.1293 
-46.9457 -11.6227 15.1293 -38.6299 -19.6474 17.4289 11.2643 -19.6474 21.825 
19.58 -19.6474 19.5537 27.8957 -19.6474 17.6766 37.5299 -19.6474 15.1293 
36.2114 -19.6474 15.6273 44.5272 -14.8364 15.1293 -47.1652 -11.3317 15.1293 
-46.9457 -11.3317 15.4668 19.58 -11.3317 22.7203 27.8957 -11.3317 21.0038 
36.2114 -11.3317 19.5509 47.9872 -11.3317 15.1293 44.5272 -11.3317 17.1788 
52.8429 -4.05218 15.1293 -51.2044 -3.01603 15.1293 -46.9457 -3.01603 21.2229 
36.2114 -3.01603 22.4665 44.5272 -3.01603 20.0129 53.3396 -3.01603 15.1293 
52.8429 -3.01603 15.5178 -51.3117 5.29968 15.1293 -46.9457 5.29968 20.9056 
36.2114 5.29968 23.1311 44.5272 5.29968 20.6233 53.3585 5.29968 15.1293 
52.8429 6.45006 15.1293 52.8429 5.29968 15.5583 -47.8262 13.6154 15.1293 
-46.9457 14.7913 15.1293 -46.9457 13.6154 16.2737 27.8957 13.6154 23.4404 
36.2114 13.6154 21.6805 49.2174 13.6154 15.1293 44.5272 19.1476 15.1293 
[...]
POINT_DATA 482
SCALARS ImageScalars float
LOOKUP_TABLE default
0 0 0 0 0 0 0 0 0 
0 0 0 0 0 0 0 0 0 
0 0 0 0 0 0 0 0 0 
0 0 0 0 0 0 0 0 0 
0 0 0 0 0 0 0 0 0 
0 0 0 0 0 0 0 0 0 
0 0 0 0 0 0 0 0 0 
0 0 0 0 0 0 0 0 0 
0 0 0 0 0 0 0 0 0 
0 0 0 0 0 0 0 0 0 
0 0 0 0 0 0 0 0 0 
0 0 0 0 0 0 0 0 0 
0 0 0 0 0 0 0 0 0 
0 0 0 0 0 0 0 0 0 
0 0 0 0 0 0 0 0 0 
0 0 0 0 0 0 0 0 0 
0 0 0 0 0 0 0 0 0 
0 0 0 0 0 0 0 0 0 
0 0 0 0 0 0 0 0 0 
0 0 0 0 0 0 0 0 0 
0 0 0 0 0 0 0 0 0 
0 0 0 0 0 0 0 0 0 
0 0 0 0 0 0 0 0 0 
0 0 0 0 0 0 0 0 0 
0 0 0 0 0 0 0 0 0 
0 0 0 0 0 0 0 0 0 
0 0 0 0 0 0 0 0 0 
0 0 0 0 0 0 0 0 0 
0 0 0 0 0 0 0 0 0 
0 0 0 0 0 0 0 0 0 
0 0 0 0 0 0 0 0 0 
0 0 0 0 0 0 0 0 0 
0 0 0 0 0 0 0 0 0 
0 0 0 0 0 0 0 0 0 
0 0 0 0 0 0 0 0 0 
0 0 0 0 0 0 0 0 0 
0 0 0 0 0 0 0 0 0 
0 0 0 0 0 0 0 0 0 
0 0 0 0 0 0 0 0 0 
0 0 0 0 0 0 0 0 0 
0 0 0 0 0 0 0 0 0 
0 0 0 0 0 0 0 0 0 
0 0 0 0 0 0 0 0 0 
0 0 0 0 0 0 0 0 0 
0 0 0 0 0 0 0 0 0 
0 0 0 0 0 0 0 0 0 
0 0 0 0 0 0 0 0 0 
0 0 0 0 0 0 0 0 0 
0 0 0 0 0 0 0 0 0 
0 0 0 0 0 0 0 0 0 
0 0 0 0 0 0 0 0 0 
0 0 0 0 0 0 0 0 0 
0 0 0 0 0 0 0 0 0 
0 0 0 0 0 
NORMALS Normals float
0.147061 0.635961 0.757579 -0.038893 0.597729 0.800754 -0.254063 0.641056 0.724223 
0.346392 0.581254 0.736313 0.184817 0.393527 0.900544 0.0730917 0.303034 0.950173 
-0.0152467 0.276997 0.96075 -0.121338 0.36187 0.924298 -0.208775 0.502091 0.839236 
-0.246256 0.599506 0.761545 0.441814 0.479593 0.75815 0.128981 0.291787 0.947747 
0.010935 0.152344 0.988267 0.0249872 0.0697989 0.997248 0.0267518 0.0827126 0.996214 
-0.025879 0.100563 0.994594 -0.100521 0.20842 0.97286 -0.181036 0.300412 0.936471 
-0.239039 0.343574 0.908195 -0.298556 0.427502 0.853292 0.687541 0.357119 0.632261 
0.260648 0.196274 0.945272 0.0357669 0.0630312 0.99737 -0.0620772 0.0136775 0.997978 
-0.00810982 -0.00522915 0.999953 0.0210234 0.044035 0.998809 0.0184394 -0.0366311 0.999159 
-0.000345023 0.0415333 0.999137 -0.122514 0.102969 0.987111 -0.186985 0.144472 0.971681 
-0.218566 0.206543 0.953713 -0.351007 0.257871 0.900165 0.533693 0.0694646 0.84282 
0.163844 0.0449072 0.985464 -0.0548784 0.0290123 0.998071 -0.0628387 -0.0258874 0.997688 
0.0552696 -0.0078975 0.99844 -0.00481409 0.0314941 0.999492 -0.0282469 -0.00256031 0.999598 
0.040607 -0.0095099 0.99913 -0.0817451 0.0153987 0.996534 -0.136138 0.0556498 0.989126 
-0.196864 0.0713605 0.97783 -0.343283 0.061398 0.937223 0.55087 -0.183713 0.814121 
0.230832 -0.130788 0.964163 -0.0347858 -0.0324485 0.998868 -0.0967578 -0.00650232 0.995287 
0.0468279 -0.0418375 0.998026 0.0264398 -0.137948 0.990086 -0.0208473 -0.0269588 0.999419 
0.0175706 -0.0606441 0.998005 -0.0599985 -0.0577418 0.996527 -0.127059 -0.0386908 0.99114 
-0.213003 -0.0723086 0.974372 -0.364346 -0.114167 0.924239 0.68355 -0.359128 0.635443 
0.31714 -0.201549 0.926715 0.0692218 -0.0945966 0.993106 -0.0709221 -0.0241053 0.997191 
-0.0773855 -0.076183 0.994086 0.00974765 -0.19277 0.981196 0.049322 -0.130389 0.990235 
0.0088219 -0.135838 0.990692 -0.0583469 -0.154436 0.986278 -0.151087 -0.163957 0.974829 
-0.265118 -0.216245 0.939655 -0.437607 -0.310252 0.843945 0.487452 -0.375819 0.788131 
0.137436 -0.194347 0.971257 -0.0753496 -0.171264 0.98234 -0.121082 -0.170467 0.977896 
-0.0242507 -0.22908 0.973105 0.0347363 -0.252534 0.966964 -0.0106112 -0.2641 0.964437 
-0.0862153 -0.284438 0.95481 -0.188702 -0.320437 0.928284 -0.361576 -0.422969 0.830879 
0.257313 -0.563696 0.78488 -0.0197234 -0.483762 0.874978 -0.131556 -0.442842 0.886896 
-0.0665516 -0.47493 0.877504 0.0065134 -0.505181 0.862989 -0.0258082 -0.517739 0.855149 
-0.125706 -0.54184 0.831028 0.157888 0.68455 0.711662 -0.0359312 0.6933 0.719753 
-0.255895 0.653334 0.712512 0.396067 0.652369 0.646177 0.238696 0.687795 0.685538 
0.296892 0.673039 0.677402 0.329082 0.749065 0.574984 -0.261862 0.651799 0.711748 
-0.280642 0.645197 0.710606 -0.343512 0.779231 0.524213 -0.254867 0.648758 0.717046 
0.459351 0.639432 0.616541 0.534855 0.631692 0.561155 0.6641 0.705812 0.246577 
-0.262817 0.619627 0.739587 -0.271099 0.565748 0.778739 -0.279852 0.658266 0.698834 
-0.312106 0.492911 0.812176 -0.366441 0.756865 0.541181 0.646262 0.566982 0.510761 
0.734896 0.464011 0.494593 -0.34777 0.46321 0.815164 -0.389408 0.376482 0.840608 
-0.462113 0.547935 0.697293 0.775724 0.374476 0.507957 -0.460576 0.274081 0.844245 
-0.637679 0.320649 0.700393 0.818953 0.100589 0.564976 -0.499335 0.0476222 0.865099 
-0.584916 0.0531247 0.809352 0.779539 -0.194336 0.595443 -0.50861 -0.146516 0.848439 
-0.609985 -0.179706 0.771767 0.714615 -0.36887 0.594357 0.709931 -0.394171 0.583633 
-0.475197 -0.327345 0.816721 -0.460895 -0.353561 0.813985 -0.708199 -0.444782 0.548292 
0.657637 -0.471321 0.587681 0.600629 -0.553537 0.576924 -0.269294 -0.545439 0.793711 
-0.404685 -0.446994 0.797763 -0.377586 -0.466646 0.799794 -0.591441 -0.561815 0.578412 
0.525863 -0.616046 0.586478 0.671311 -0.666557 0.324104 0.290723 -0.727186 0.621837 
0.0418737 -0.739705 0.671627 -0.106117 -0.655584 0.747629 -0.0676747 -0.571672 0.817686 
0.00144223 -0.595441 0.803398 -0.0336417 -0.617781 0.78563 -0.229531 -0.574135 0.785929 
-0.133311 -0.610363 0.780823 -0.285133 -0.609842 0.739454 -0.465946 -0.724645 0.507725 
0.114314 -0.948221 0.296326 -0.0238352 -0.922916 0.384262 -0.0202244 -0.879192 0.476038 
-0.0340915 -0.890027 0.454631 -0.0837031 -0.945222 0.315515 0.38432 0.884159 0.265633 
0.220972 0.932081 0.287049 -0.0322001 0.954103 0.297743 -0.00761282 0.999316 0.0361921 
-0.261498 0.908709 0.325373 -0.36337 0.851399 0.378262 0.686293 0.714908 0.133821 
0.522036 0.822747 0.224869 0.542361 0.811767 0.216514 -0.298586 0.866904 0.399154 
-0.279587 0.870242 0.405599 -0.287296 0.907067 0.307719 -0.292336 0.862472 0.413137 
-0.384688 0.826867 0.410252 0.703492 0.699795 0.12404 -0.443869 0.802566 0.398582 
-0.52359 0.747111 0.409486 0.799511 0.596423 0.0711435 0.80442 0.58973 0.0716011 
-0.640211 0.6359 0.431 -0.677926 0.592008 0.435825 -0.696925 0.68902 0.198863 
0.881203 0.451378 0.140497 -0.802114 0.359808 0.476604 0.979212 0.122374 0.161766 
-0.867353 0.0893982 0.489598 -0.97517 0.102319 0.196406 0.964555 -0.164944 0.20598 
0.988635 -0.149953 0.0107324 -0.836644 -0.249937 0.487399 -0.949239 -0.268008 0.164672 
0.881173 -0.422667 0.211866 0.819916 -0.552086 0.151453 -0.770102 -0.463721 0.438071 
-0.730096 -0.530255 0.431033 0.819706 -0.552439 0.151307 0.81744 -0.565713 0.108448 
-0.662806 -0.62249 0.416167 -0.635691 -0.663461 0.394609 0.712937 -0.692053 0.113062 
0.674312 -0.731229 0.102994 0.374441 -0.918232 0.129014 -0.158095 -0.949181 0.272141 
-0.297629 -0.906743 0.298721 -0.540207 -0.759194 0.363043 -0.475688 -0.806113 0.351997 
0.23198 -0.95845 0.166007 0.125952 -0.972496 0.195927 0.00146247 -0.957641 0.287962 
-0.00340782 -0.909183 0.416382 -0.0440994 -0.917919 0.394309 -0.10539 -0.952391 0.286084 
-0.0869774 -0.9517 0.294453 0.00205196 0.998048 -0.0624174 0.416506 0.908275 -0.0394898 
0.0522573 0.996673 -0.0625484 0.229002 0.971671 -0.0584247 -0.0485585 0.997244 -0.0560882 
0.00137013 0.994958 -0.100287 -0.224876 0.973894 -0.0310024 -0.33599 0.941843 0.00650512 
-0.30307 0.951795 0.0472786 0.732732 0.666185 -0.138928 0.59608 0.799701 -0.0718857 
0.6089 0.789612 -0.0758558 -0.324499 0.945572 0.0243542 -0.336834 0.94149 0.0118412 
-0.426216 0.904444 -0.0179129 0.734758 0.663777 -0.139749 0.733073 0.662801 -0.15264 
-0.524987 0.850097 -0.0415255 -0.541769 0.83947 -0.0421406 -0.688242 0.724593 -0.0358846 
0.772918 0.622406 -0.123323 0.783902 0.609917 -0.116185 -0.718716 0.69457 -0.0319418 
-0.683943 0.705388 -0.186144 0.863007 0.498391 -0.0826116 -0.929394 0.368651 0.0179876 
-0.978153 0.206439 0.0245031 0.987536 0.150254 -0.0468613 0.999556 -0.0023399 -0.0296936 
-0.994532 0.101793 0.0233428 -0.977366 0.114344 -0.177992 0.988939 -0.147757 -0.0129777 
0.987742 -0.155547 -0.0130404 0.98865 -0.147343 -0.0293473 -0.963141 -0.264578 0.0485578 
-0.950923 -0.30513 0.0514017 -0.957985 -0.255 -0.1313 0.893262 -0.448748 -0.0266297 
-0.856501 -0.514033 0.0466537 -0.765768 -0.641701 0.0426536 0.786525 -0.61134 -0.0874145 
0.785676 -0.612335 -0.0880856 0.784335 -0.613168 -0.0940382 -0.72908 -0.683289 0.0394913 
-0.638678 -0.769459 0.00486116 0.678721 -0.71634 -0.161844 0.656521 -0.735329 -0.168141 
0.650585 -0.727479 -0.217976 0.416895 -0.892282 -0.173297 -0.185497 -0.972502 -0.140825 
-0.257912 -0.962284 -0.0865458 -0.572114 -0.819993 -0.0172079 -0.443044 -0.895357 -0.0452595 
0.290483 -0.948817 -0.123962 0.23255 -0.967396 -0.100323 0.288055 -0.941071 -0.177226 
0.137415 -0.989494 0.0449313 0.0257126 -0.993486 0.111016 -0.124068 -0.991036 0.0495553 
-0.185011 -0.973872 -0.131701 -0.18166 -0.980097 -0.0800554 -0.228415 -0.947134 -0.225309 
0.396713 0.866728 -0.302327 0.194078 0.920343 -0.339564 -0.00752898 0.924818 -0.380335 
-0.195473 0.899225 -0.391388 -0.281255 0.881766 -0.37866 -0.303276 0.879397 -0.366994 
0.527063 0.798281 -0.291464 0.609031 0.742364 -0.279242 0.363934 0.795514 -0.484469 
-0.205989 0.698347 -0.685478 -0.263167 0.776175 -0.57297 -0.308458 0.875958 -0.370878 
-0.302477 0.870182 -0.388962 -0.359839 0.828225 -0.429604 -0.432402 0.771293 -0.467051 
0.699814 0.662666 -0.266711 0.724557 0.641617 -0.251685 -0.305647 0.608385 -0.732426 
-0.450985 0.758683 -0.470119 -0.417712 0.724862 -0.547806 -0.498486 0.725112 -0.475104 
0.743024 0.626511 -0.235372 0.773046 0.59025 -0.23239 -0.58785 0.663023 -0.4635 
-0.425552 0.600097 -0.67734 -0.645667 0.606445 -0.464046 0.822137 0.520698 -0.230139 
-0.785891 0.410831 -0.46216 -0.605208 0.41583 -0.678829 0.957309 0.188443 -0.2192 
-0.908584 0.121615 -0.399606 0.966179 -0.138982 -0.217214 -0.896825 -0.227163 -0.379609 
0.850142 -0.474635 -0.227994 0.752258 -0.60714 -0.255909 -0.808518 -0.476171 -0.345774 
-0.741829 -0.576774 -0.342083 -0.720226 -0.446707 -0.53078 0.709595 -0.650375 -0.271086 
0.622119 -0.71626 -0.316132 -0.657097 -0.676569 -0.332381 -0.58558 -0.7339 -0.34422 
-0.549453 -0.625973 -0.553406 0.570422 -0.752059 -0.330192 0.458162 -0.824467 -0.332177 
0.466942 -0.745991 -0.474829 0.337169 -0.906503 -0.254104 -0.282964 -0.87211 -0.399195 
-0.158278 -0.878367 -0.451021 -0.158111 -0.75712 -0.633854 -0.19341 -0.885732 -0.421986 
-0.164844 -0.782078 -0.600983 -0.442846 -0.820596 -0.361261 -0.390424 -0.84408 -0.367558 
-0.380683 -0.813352 -0.439932 0.301204 -0.925894 -0.228027 0.222853 -0.957519 -0.183015 
0.209996 -0.906797 -0.365542 0.00852828 -0.984465 -0.175374 -0.062036 -0.859607 -0.507177 
-0.271641 -0.90068 -0.339096 -0.245874 -0.933348 -0.261548 -0.290631 -0.872271 -0.393291 
0.128842 0.774863 -0.618859 -0.0660914 0.740814 -0.668451 0.528569 0.688215 -0.496965 
0.214941 0.76813 -0.603139 0.335574 0.745227 -0.576218 0.119186 0.746284 -0.65487 
-0.166301 0.696935 -0.697586 -0.0762442 0.70807 -0.702014 -0.207429 0.671678 -0.711211 
-0.245882 0.597479 -0.763257 -0.252064 0.528691 -0.810524 0.552791 0.677623 -0.485026 
0.655759 0.638964 -0.402127 0.507175 0.672068 -0.539534 0.242538 0.584552 -0.774257 
0.0641225 0.486212 -0.871485 -0.108409 0.475254 -0.873144 -0.237184 0.484508 -0.842019 
-0.24696 0.477281 -0.843335 -0.25609 0.519183 -0.815394 -0.24821 0.502352 -0.828272 
-0.254357 0.50295 -0.826042 -0.288115 0.498067 -0.817874 0.672142 0.629461 -0.389878 
0.767135 0.513256 -0.384802 0.626626 0.620555 -0.471436 -0.272207 0.408103 -0.87141 
-0.221428 0.371919 -0.901469 -0.21006 0.410678 -0.887253 -0.294739 0.49621 -0.816643 
-0.278012 0.483191 -0.830202 -0.376968 0.479811 -0.79226 0.770132 0.507689 -0.386198 
0.766434 0.506094 -0.395534 -0.265723 0.316235 -0.910707 -0.170235 0.331922 -0.927819 
-0.201048 0.37648 -0.904346 -0.450903 0.403269 -0.796279 -0.371852 0.407553 -0.834043 
-0.592285 0.186755 -0.783787 0.878222 0.189333 -0.439179 0.729854 0.157759 -0.665151 
-0.209971 0.192764 -0.958517 -0.369499 0.170804 -0.913398 -0.608632 0.159047 -0.777349 
-0.593247 0.16188 -0.788576 0.864235 -0.159857 -0.477015 0.711424 -0.180076 -0.6793 
-0.227634 -0.0436793 -0.972767 -0.398379 -0.0790526 -0.913808 -0.653673 -0.156356 -0.740448 
-0.649479 -0.189613 -0.736358 -0.640193 -0.152265 -0.752973 0.749208 -0.471924 -0.464732 
0.733309 -0.499956 -0.460762 0.728395 -0.468183 -0.500246 -0.152051 -0.225379 -0.962333 
-0.269984 -0.264385 -0.925856 -0.592161 -0.395046 -0.702342 -0.51329 -0.524228 -0.679499 
-0.466775 -0.353819 -0.810514 0.608014 -0.646096 -0.461389 0.582815 -0.664342 -0.467949 
0.56529 -0.629263 -0.533362 0.466791 -0.743758 -0.478467 -0.197042 -0.416475 -0.887538 
-0.1547 -0.731375 -0.664198 -0.11841 -0.48178 -0.868255 -0.163122 -0.711989 -0.682981 
-0.168449 -0.500068 -0.849445 -0.461282 -0.580675 -0.670847 -0.350727 -0.643841 -0.680044 
-0.344891 -0.530832 -0.774124 0.464323 -0.745442 -0.478247 0.355012 -0.812165 -0.462985 
0.309631 -0.682561 -0.661996 0.198822 -0.861709 -0.466828 0.112264 -0.59214 -0.797977 
-0.0622332 -0.858933 -0.508293 -0.112191 -0.508418 -0.853771 -0.324145 -0.755015 -0.569984 
-0.300396 -0.549497 -0.779625 -0.201743 -0.731791 -0.650985 -0.300244 -0.71744 -0.628596 
-0.291847 -0.674807 -0.677835 0.355759 0.554455 -0.75234 0.174673 0.516823 -0.838083 
0.0454545 0.455696 -0.888974 -0.108042 0.427795 -0.897395 -0.235053 0.394182 -0.888465 
0.383181 0.550033 -0.742048 0.529898 0.453848 -0.716401 0.339839 0.536046 -0.772764 
0.10579 0.443908 -0.889806 -0.0197257 0.370988 -0.928428 -0.104131 0.293007 -0.950423 
-0.248876 0.386268 -0.888177 -0.223636 0.361689 -0.905079 -0.272812 0.3854 -0.881499 
0.565652 0.414124 -0.713119 0.509724 0.399776 -0.761814 0.25823 0.325692 -0.909529 
0.0400939 0.312765 -0.948984 -0.110304 0.265256 -0.957848 -0.122178 0.166258 -0.978484 
-0.118349 0.194719 -0.973693 -0.269729 0.322344 -0.907381 -0.254538 0.329017 -0.909373 
-0.261495 0.265221 -0.928051 -0.149986 0.214073 -0.965234 0.630489 0.131326 -0.765008 
0.451811 0.103934 -0.886038 0.248626 0.078566 -0.965408 0.0318277 0.0796071 -0.996318 
-0.169782 0.0953092 -0.980862 -0.186595 0.0501596 -0.981156 -0.0663151 -0.000505164 -0.997799 
-0.167105 0.0511018 -0.984614 -0.240881 0.137189 -0.96081 -0.159759 0.200854 -0.966506 
-0.14872 0.202255 -0.967975 0.593161 -0.18382 -0.783817 0.438314 -0.172536 -0.882107 
0.247755 -0.17208 -0.953418 0.0552999 -0.142492 -0.98825 -0.145093 -0.0917588 -0.985154 
-0.223987 -0.0416774 -0.973701 -0.110388 -0.0776657 -0.990849 -0.119605 -0.137149 -0.983303 
-0.138414 -0.0445572 -0.989372 -0.204089 -0.036367 -0.978277 -0.151943 -0.224484 -0.962559 
-0.121867 -0.0112354 -0.992483 0.479713 -0.417881 -0.771525 0.470352 -0.428785 -0.771306 
0.465891 -0.416846 -0.780503 0.284524 -0.351363 -0.891958 0.116823 -0.280851 -0.952615 
-0.0669155 -0.215838 -0.974134 -0.170696 -0.119639 -0.978033 -0.160401 -0.132009 -0.978185 
-0.179126 -0.359755 -0.915691 -0.135885 -0.229607 -0.963751 -0.151841 -0.225315 -0.962381 
-0.114532 -0.294505 -0.948762 -0.111034 -0.214617 -0.970366 0.386011 -0.503481 -0.772983 
0.385319 -0.504089 -0.772932 0.384773 -0.502732 -0.774087 0.255926 -0.551299 -0.794085 
0.200543 -0.421647 -0.884305 0.102482 -0.568741 -0.816107 0.018458 -0.334662 -0.942157 
-0.11404 -0.494392 -0.861726 -0.134583 -0.271353 -0.953024 -0.204949 -0.375488 -0.903883 
-0.249759 -0.387867 -0.887231 -0.222358 -0.305751 -0.925782 
