# vtk DataFile Version 4.2
vtk output
ASCII
DATASET POLYDATA
POINTS 530 float
11.6188 -0.879568 -21.6284 -20.9233 -41.5573 -16.7984 -12.7878 -41.5573 -17.8823 
-4.65226 -41.5573 -18.031 3.48328 -41.5573 -17.1323 11.6188 -41.5573 -15.8603 
19.7544 -41.5573 -14.3865 -29.0589 -33.4217 -17.8414 -20.9233 -33.4217 -19.2143 
-12.7878 -33.4217 -20.1482 -4.65226 -33.4217 -19.8503 3.48328 -33.4217 -19.112 
11.6188 -33.4217 -18.6792 19.7544 -33.4217 -17.6669 27.8899 -33.4217 -16.2957 
36.0254 -33.4217 -13.5393 -45.3299 -25.2862 -14.3043 -37.1944 -25.2862 -17.9844 
-29.0589 -25.2862 -19.1367 -20.9233 -25.2862 -19.945 -12.7878 -25.2862 -20.0314 
-4.65226 -25.2862 -19.7153 3.48328 -25.2862 -19.0488 11.6188 -25.2862 -18.8698 
19.7544 -25.2862 -18.3775 27.8899 -25.2862 -18.4503 36.0254 -25.2862 -18.3974 
44.161 -25.2862 -15.0433 -45.3299 -17.1506 -18.0747 -37.1944 -17.1506 -19.3247 
-29.0589 -17.1506 -19.8806 -20.9233 -17.1506 -19.6396 -12.7878 -17.1506 -18.952 
-4.65226 -17.1506 -18.3029 3.48328 -17.1506 -18.048 11.6188 -17.1506 -17.683 
19.7544 -17.1506 -18.3069 27.8899 -17.1506 -19.37 36.0254 -17.1506 -19.6489 
44.161 -17.1506 -18.4044 52.2965 -17.1506 -14.2836 -53.4655 -9.01511 -16.2688 
-45.3299 -9.01511 -20.3962 -37.1944 -9.01511 -20.8712 -29.0589 -9.01511 -20.4102 
-20.9233 -9.01511 -19.4423 -12.7878 -9.01511 -19.1139 -4.65226 -9.01511 -18.0366 
3.48328 -9.01511 -18.8774 11.6188 -0.898066 -21.6213 11.6188 -9.01511 -18.2369 
19.7544 -9.01511 -18.439 27.8899 -9.01511 -20.0609 36.0254 -9.01511 -20.3621 
44.161 -9.01511 -19.4061 52.2965 -9.01511 -15.7635 -53.4655 -0.879568 -16.9431 
-45.3299 -0.879568 -19.5712 -37.1944 -0.879568 -21.0434 -29.0589 -0.879568 -20.1562 
-20.9233 -0.879568 -18.8475 -12.7878 -0.879568 -20.2275 -4.65226 -0.879568 -18.2612 
11.5995 -0.879568 -21.6213 3.48328 -0.879568 -17.3771 11.6427 -0.879568 -21.6213 
11.6188 -0.849939 -21.6213 19.7544 -0.879568 -19.2466 27.8899 -0.879568 -19.3601 
36.0254 -0.879568 -19.8863 44.161 -0.879568 -18.9218 52.2965 -0.879568 -15.6138 
-53.4655 7.25597 -15.473 -45.3299 7.25597 -19.6239 -37.1944 7.25597 -20.1943 
-29.0589 7.25597 -19.3523 -20.9233 7.25597 -18.0666 -12.7878 7.25597 -17.3202 
-4.65226 7.25597 -19.5781 3.48328 7.25597 -18.0114 11.6188 7.25597 -19.5368 
19.7544 7.25597 -19.118 27.8899 7.25597 -19.3561 36.0254 7.25597 -19.1622 
44.161 7.25597 -18.0904 52.2965 7.25597 -14.8872 -45.3299 15.3915 -17.3362 
-37.1944 15.3915 -18.9057 -29.0589 15.3915 -19.0333 -20.9233 15.3915 -18.0644 
-12.7878 15.3915 -17.4851 -4.65226 15.3915 -18.3587 3.48328 15.3915 -17.5588 
11.6188 15.3915 -17.8748 19.7544 15.3915 -18.9156 27.8899 15.3915 -19.1016 
36.0254 15.3915 -18.5082 44.161 15.3915 -16.9136 -45.3299 23.527 -14.9334 
-37.1944 23.527 -18.1646 -29.0589 23.527 -18.7945 -20.9233 23.527 -18.4947 
-12.7878 23.527 -18.7464 -4.65226 23.527 -18.7758 3.48328 23.527 -18.7335 
11.6188 23.527 -18.4396 19.7544 23.527 -18.8536 27.8899 23.527 -18.8904 
36.0254 23.527 -18.1027 44.161 23.527 -14.7373 -37.1944 31.6626 -14.7049 
-29.0589 31.6626 -17.1714 -20.9233 31.6626 -17.5664 -12.7878 31.6626 -18.4124 
-4.65226 31.6626 -18.5544 3.48328 31.6626 -18.4654 11.6188 31.6626 -18.8033 
19.7544 31.6626 -17.5213 27.8899 31.6626 -16.7422 36.0254 31.6626 -14.3058 
-20.9233 39.7981 -14.0703 -12.7878 39.7981 -15.1878 -4.65226 39.7981 -15.9486 
3.48328 39.7981 -15.9254 11.6188 39.7981 -14.9317 -20.9233 -44.9428 -13.4857 
-12.7878 -46.9566 -13.4857 -4.65226 -47.3631 -13.4857 -4.65226 -49.6928 -6.6532 
3.48328 -46.367 -13.4857 11.6188 -44.3096 -13.4857 19.7544 -42.4945 -13.4857 
-26.5131 -41.5573 -13.4857 -29.0589 -39.3805 -13.4857 -29.0589 -41.5573 -10.1217 
21.7026 -41.5573 -13.4857 27.8899 -37.3668 -13.4857 27.8899 -41.5573 -7.05265 
36.0254 -33.4831 -13.4857 -45.3299 -26.4329 -13.4857 -36.8905 -33.4217 -13.4857 
-37.1944 -33.146 -13.4857 -37.1944 -33.4217 -13.2136 36.1225 -33.4217 -13.4857 
44.161 -27.3884 -13.4857 -46.8031 -25.2862 -13.4857 46.3855 -25.2862 -13.4857 
52.2965 -18.1507 -13.4857 -53.4519 -17.1506 -13.4857 -53.4655 -17.1296 -13.4857 
-53.4655 -17.1506 -13.4729 52.941 -17.1506 -13.4857 -57.3354 -9.01511 -13.4857 
55.6557 -9.01511 -13.4857 60.432 -9.01511 -5.83231 -58.7797 -0.879568 -13.4857 
-61.601 -0.879568 -7.28301 55.571 -0.879568 -13.4857 60.432 -0.879568 -7.94052 
-56.1671 7.25597 -13.4857 -53.4655 13.1458 -13.4857 54.5666 7.25597 -13.4857 
52.2965 12.6515 -13.4857 60.432 7.25597 -7.50517 -52.0874 15.3915 -13.4857 
-53.4655 15.3915 -12.2408 50.9026 15.3915 -13.4857 52.2965 15.3915 -12.6252 
-47.7218 23.527 -13.4857 -45.3299 26.1264 -13.4857 46.6841 23.527 -13.4857 
44.161 25.7833 -13.4857 52.2965 23.527 -8.49699 -39.4908 31.6626 -13.4857 
-45.3299 31.6626 -7.50629 -37.1944 33.357 -13.4857 -29.0589 37.0258 -13.4857 
19.7544 39.4088 -13.4857 27.8899 35.7871 -13.4857 37.5981 31.6626 -13.4857 
36.0254 32.6771 -13.4857 44.161 31.6626 -7.62399 -22.8827 39.7981 -13.4857 
-29.0589 39.7981 -10.3703 -20.9233 40.4314 -13.4857 -12.7878 41.5953 -13.4857 
-4.65226 42.8332 -13.4857 3.48328 42.6641 -13.4857 18.5366 39.7981 -13.4857 
11.6188 41.2173 -13.4857 19.7544 39.7981 -13.0056 27.8899 39.7981 -7.03737 
-4.65226 -50.0206 -5.3502 -29.0589 -43.7064 -5.3502 -20.9233 -47.5005 -5.3502 
-11.184 -49.6928 -5.3502 -12.7878 -49.6054 -5.3502 2.1793 -49.6928 -5.3502 
-4.65226 -49.6928 -4.27835 3.48328 -49.6267 -5.3502 11.6188 -48.3548 -5.3502 
19.7544 -46.0353 -5.3502 27.8899 -42.3089 -5.3502 -31.9966 -41.5573 -5.3502 
-37.1944 -37.8981 -5.3502 29.2123 -41.5573 -5.3502 27.8899 -41.5573 -2.93591 
36.0254 -37.5005 -5.3502 -43.0389 -33.4217 -5.3502 -45.3299 -31.5865 -5.3502 
41.4808 -33.4217 -5.3502 44.161 -31.2858 -5.3502 -52.4919 -25.2862 -5.3502 
-53.4655 -24.1403 -5.3502 50.882 -25.2862 -5.3502 52.2965 -23.7553 -5.3502 
-58.2557 -17.1506 -5.3502 57.2211 -17.1506 -5.3502 60.432 -9.53031 -5.3502 
-61.079 -9.01511 -5.3502 -61.601 -5.09955 -5.3502 60.6307 -9.01511 -5.3502 
-62.1614 -0.879568 -5.3502 -61.601 2.12778 -5.3502 -61.601 -0.879568 -1.58239 
61.8357 -0.879568 -5.3502 -60.5959 7.25597 -5.3502 61.6876 7.25597 -5.3502 
60.432 11.3127 -5.3502 -57.6677 15.3915 -5.3502 -53.4655 23.5049 -5.3502 
58.9757 15.3915 -5.3502 -53.4517 23.527 -5.3502 -53.4655 23.527 -5.05979 
54.342 23.527 -5.3502 52.2965 25.9202 -5.3502 -46.678 31.6626 -5.3502 
-45.3299 32.9053 -5.3502 -37.1944 38.5966 -5.3502 36.0254 36.9781 -5.3502 
46.0395 31.6626 -5.3502 44.161 33.1101 -5.3502 -34.9041 39.7981 -5.3502 
-29.0589 42.5205 -5.3502 -20.9233 44.7969 -5.3502 -12.7878 46.5764 -5.3502 
-4.65226 47.0584 -5.3502 3.48328 46.3005 -5.3502 11.6188 44.9476 -5.3502 
19.7544 42.9609 -5.3502 29.5617 39.7981 -5.3502 27.8899 40.4526 -5.3502 
27.8899 39.7981 0.220664 -29.0589 -41.5691 2.78534 -20.9233 -45.1102 2.78534 
-12.7878 -46.8001 2.78534 -4.65226 -47.2593 2.78534 3.48328 -46.9661 2.78534 
11.6188 -45.5605 2.78534 19.7544 -43.4808 2.78534 -29.0784 -41.5573 2.78534 
-37.1944 -36.3619 2.78534 -29.0589 -41.5573 2.80474 -20.9233 -41.5573 8.11514 
-12.7878 -41.5573 10.2791 -4.65226 -41.5573 10.5288 3.48328 -41.5573 9.83684 
11.6188 -41.5573 8.40299 24.0812 -41.5573 2.78534 19.7544 -41.5573 5.8125 
27.8899 -39.5524 2.78534 36.0254 -34.9565 2.78534 -41.112 -33.4217 2.78534 
-45.3299 -30.0071 2.78534 -37.1944 -33.4217 6.90806 27.8899 -33.4217 10.2216 
38.354 -33.4217 2.78534 36.0254 -33.4217 5.14775 44.161 -29.2639 2.78534 
-50.389 -25.2862 2.78534 -53.4655 -21.4462 2.78534 -45.3299 -25.2862 8.2996 
49.0177 -25.2862 2.78534 44.161 -25.2862 8.83093 52.2965 -22.1727 2.78534 
-56.3181 -17.1506 2.78534 -53.4655 -17.1506 6.52526 56.4583 -17.1506 2.78534 
52.2965 -17.1506 10.0476 60.432 -9.72046 2.78534 -59.5466 -9.01511 2.78534 
60.7606 -9.01511 2.78534 60.432 -9.01511 3.62241 -60.8436 -0.879568 2.78534 
62.6109 -0.879568 2.78534 60.432 -0.879568 8.99964 -59.8976 7.25597 2.78534 
62.821 7.25597 2.78534 60.432 15.0599 2.78534 60.432 7.25597 10.6262 
-57.8229 15.3915 2.78534 60.3242 15.3915 2.78534 -53.7886 23.527 2.78534 
-53.4655 23.9974 2.78534 -53.4655 23.527 4.09222 55.1374 23.527 2.78534 
52.2965 26.5252 2.78534 52.2965 23.527 9.85349 -47.0276 31.6626 2.78534 
-45.3299 33.1903 2.78534 -45.3299 31.6626 8.21374 -37.1944 38.7878 2.78534 
27.8899 39.4868 2.78534 36.0254 36.7157 2.78534 45.9323 31.6626 2.78534 
44.161 33.0241 2.78534 44.161 31.6626 6.01466 -35.1467 39.7981 2.78534 
-29.0589 42.6869 2.78534 -29.0589 39.7981 10.6444 -20.9233 44.943 2.78534 
-12.7878 46.1355 2.78534 -4.65226 46.1716 2.78534 3.48328 45.161 2.78534 
11.6188 43.563 2.78534 11.6188 39.7981 10.6887 26.7159 39.7981 2.78534 
19.7544 41.6935 2.78534 19.7544 39.7981 7.95917 -29.0589 -34.7559 10.9209 
-20.9233 -38.7787 10.9209 -12.7878 -40.8748 10.9209 -4.65226 -41.1244 10.9209 
3.48328 -40.3203 10.9209 11.6188 -38.789 10.9209 19.7544 -36.6498 10.9209 
-31.2069 -33.4217 10.9209 -37.1944 -28.5722 10.9209 -29.0589 -33.4217 11.8961 
-20.9233 -33.4217 14.5227 -12.7878 -33.4217 15.5257 -4.65226 -33.4217 15.6751 
3.48328 -33.4217 15.1965 11.6188 -33.4217 14.3236 26.3792 -33.4217 10.9209 
19.7544 -33.4217 13.1681 27.8899 -32.6713 10.9209 36.0254 -28.5778 10.9209 
-41.1192 -25.2862 10.9209 -45.3299 -20.6441 10.9209 -37.1944 -25.2862 12.6544 
-29.0589 -25.2862 15.4724 -20.9233 -25.2862 16.9609 -12.7878 -25.2862 17.2629 
-4.65226 -25.2862 17.64 3.48328 -25.2862 17.318 11.6188 -25.2862 17.299 
19.7544 -25.2862 16.7718 27.8899 -25.2862 15.8698 41.4613 -25.2862 10.9209 
36.0254 -25.2862 13.612 44.161 -23.5416 10.9209 -47.8448 -17.1506 10.9209 
-53.4655 -10.2617 10.9209 -45.3299 -17.1506 12.5086 -37.1944 -17.1506 15.6295 
-29.0589 -17.1506 17.0816 -20.9233 -17.1506 17.659 -12.7878 -17.1506 17.5272 
-4.65226 -17.1506 17.8198 11.6188 -17.1506 18.9519 36.0254 -17.1506 18.7572 
51.5341 -17.1506 10.9209 44.161 -17.1506 15.9359 52.2965 -16.2731 10.9209 
-54.0775 -9.01511 10.9209 -53.4655 -9.01511 11.5006 -45.3299 -9.01511 15.5148 
-37.1944 -9.01511 17.7636 -29.0589 -9.01511 18.7366 -20.9233 -9.01511 18.609 
-12.7878 -9.01511 18.3558 56.8297 -9.01511 10.9209 52.2965 -9.01511 15.4379 
[...]
POINT_DATA 530
SCALARS ImageScalars float
LOOKUP_TABLE default
0 0 0 0 0 0 0 0 0 
0 0 0 0 0 0 0 0 0 
0 0 0 0 0 0 0 0 0 
0 0 0 0 0 0 0 0 0 
0 0 0 0 0 0 0 0 0 
0 0 0 0 0 0 0 0 0 
0 0 0 0 0 0 0 0 0 
0 0 0 0 0 0 0 0 0 
0 0 0 0 0 0 0 0 0 
0 0 0 0 0 0 0 0 0 
0 0 0 0 0 0 0 0 0 
0 0 0 0 0 0 0 0 0 
0 0 0 0 0 0 0 0 0 
0 0 0 0 0 0 0 0 0 
0 0 0 0 0 0 0 0 0 
0 0 0 0 0 0 0 0 0 
0 0 0 0 0 0 0 0 0 
0 0 0 0 0 0 0 0 0 
0 0 0 0 0 0 0 0 0 
0 0 0 0 0 0 0 0 0 
0 0 0 0 0 0 0 0 0 
0 0 0 0 0 0 0 0 0 
0 0 0 0 0 0 0 0 0 
0 0 0 0 0 0 0 0 0 
0 0 0 0 0 0 0 0 0 
0 0 0 0 0 0 0 0 0 
0 0 0 0 0 0 0 0 0 
0 0 0 0 0 0 0 0 0 
0 0 0 0 0 0 0 0 0 
0 0 0 0 0 0 0 0 0 
0 0 0 0 0 0 0 0 0 
0 0 0 0 0 0 0 0 0 
0 0 0 0 0 0 0 0 0 
0 0 0 0 0 0 0 0 0 
0 0 0 0 0 0 0 0 0 
0 0 0 0 0 0 0 0 0 
0 0 0 0 0 0 0 0 0 
0 0 0 0 0 0 0 0 0 
0 0 0 0 0 0 0 0 0 
0 0 0 0 0 0 0 0 0 
0 0 0 0 0 0 0 0 0 
0 0 0 0 0 0 0 0 0 
0 0 0 0 0 0 0 0 0 
0 0 0 0 0 0 0 0 0 
0 0 0 0 0 0 0 0 0 
0 0 0 0 0 0 0 0 0 
0 0 0 0 0 0 0 0 0 
0 0 0 0 0 0 0 0 0 
0 0 0 0 0 0 0 0 0 
0 0 0 0 0 0 0 0 0 
0 0 0 0 0 0 0 0 0 
0 0 0 0 0 0 0 0 0 
0 0 0 0 0 0 0 0 0 
0 0 0 0 0 0 0 0 0 
0 0 0 0 0 0 0 0 0 
0 0 0 0 0 0 0 0 0 
0 0 0 0 0 0 0 0 0 
0 0 0 0 0 0 0 0 0 
0 0 0 0 0 0 0 0 
NORMALS Normals float
-0.0365008 -0.0746086 -0.996545 -0.315903 -0.550144 -0.773011 -0.0682072 -0.493319 -0.86717 
0.0461888 -0.441375 -0.896133 0.122011 -0.457149 -0.880982 0.165563 -0.540156 -0.825118 
0.281833 -0.649291 -0.706393 -0.3237 -0.36946 -0.871044 -0.137921 -0.179543 -0.974034 
-0.0343628 -0.115896 -0.992667 0.0651434 -0.0966389 -0.993185 0.0696875 -0.107804 -0.991727 
0.0966881 -0.152684 -0.983534 0.126068 -0.21283 -0.968922 0.248979 -0.436309 -0.864664 
0.389656 -0.643953 -0.658402 -0.433737 -0.512484 -0.741102 -0.271381 -0.32192 -0.907039 
-0.112374 -0.111509 -0.987389 -0.0524967 -0.0234286 -0.998346 0.0140885 0.0737728 -0.997176 
0.060088 0.0905072 -0.994081 0.0517798 0.0642525 -0.996589 0.0414899 0.0586927 -0.997414 
0.025908 -0.0422718 -0.99877 -0.00186006 -0.167245 -0.985914 0.182161 -0.338393 -0.923205 
0.478896 -0.49957 -0.721865 -0.266593 -0.342591 -0.900866 -0.102571 -0.163133 -0.981258 
-0.0179287 -0.0756532 -0.996973 0.0567637 0.0306862 -0.997916 0.0815781 0.0576368 -0.994999 
0.0562997 0.104683 -0.992911 0.0365423 0.0107432 -0.999274 -0.0160122 0.0426872 -0.99896 
-0.10211 -0.0037751 -0.994766 -0.0803823 -0.0959052 -0.99214 0.048311 -0.10809 -0.992967 
0.256605 -0.257073 -0.931702 0.675953 -0.369931 -0.637368 -0.532207 -0.151565 -0.832937 
-0.258934 -0.0685217 -0.963461 0.00340002 -0.104394 -0.99453 0.0863445 -0.0180176 -0.996102 
0.0797291 0.0490813 -0.995607 0.0870514 -0.0642857 -0.994127 0.0127865 0.00566923 -0.999902 
-0.0151188 0.0143698 -0.999782 -0.0364606 -0.0750099 -0.996516 0.0285102 -0.236591 -0.971191 
-0.113344 -0.0588788 -0.99181 -0.117451 0.000746576 -0.993078 0.0354383 -0.0139698 -0.999274 
0.257829 -0.0240837 -0.96589 0.514599 -0.0493509 -0.856009 -0.462242 0.0453712 -0.885592 
-0.235652 0.0390386 -0.971053 -0.047093 0.0405946 -0.998065 0.137606 0.066875 -0.988227 
0.0092045 0.0847801 -0.996357 0.00458287 0.108991 -0.994032 0.166991 -0.115734 -0.979142 
-0.036917 -0.0743575 -0.996548 -0.252924 0.0679185 -0.965099 -0.0360631 -0.0745213 -0.996567 
-0.0367311 -0.0734934 -0.996619 0.126203 -0.0415487 -0.991134 -0.0395199 0.0440606 -0.998247 
0.0228535 0.0734399 -0.997038 0.245355 0.0739106 -0.966612 0.478021 0.0483946 -0.877014 
-0.548195 0.215913 -0.808 -0.261351 0.117973 -0.958007 0.0215072 0.131622 -0.991067 
0.127118 0.0646319 -0.98978 0.122365 0.0487733 -0.991286 -0.0932122 0.13716 -0.986153 
-0.0321707 0.0165495 -0.999345 0.00581427 -0.000329879 -0.999983 -0.0714499 0.232944 -0.969862 
0.00903564 0.0203708 -0.999752 -0.00286299 0.0158791 -0.99987 0.0733732 0.0832485 -0.993824 
0.242421 0.113045 -0.963563 0.462997 0.151676 -0.873286 -0.309281 0.267095 -0.912691 
-0.0922142 0.115337 -0.989037 0.0517664 0.0336907 -0.998091 0.0972355 -0.0268034 -0.9949 
-0.0183643 -0.082245 -0.996443 -0.00644386 0.0457084 -0.998934 0.030527 -0.0456043 -0.998493 
-0.0826957 0.0596215 -0.99479 -0.0745951 0.0161627 -0.997083 0.0237781 0.0282138 -0.999319 
0.125339 0.0613633 -0.990214 0.309334 0.197337 -0.930253 -0.450204 0.376283 -0.80977 
-0.214701 0.233424 -0.948376 -0.0157635 0.099786 -0.994884 0.00337504 0.0280667 -0.9996 
-0.0178381 -0.0604602 -0.998011 0.000915773 -0.0123048 -0.999924 0.0203945 -0.0530974 -0.998381 
-0.00722348 -0.0549659 -0.998462 -0.0274111 0.0794626 -0.996461 0.0399194 0.122322 -0.991687 
0.241974 0.233307 -0.941815 0.401957 0.361489 -0.841283 -0.358186 0.507448 -0.783709 
-0.163158 0.387527 -0.907305 -0.0693123 0.24302 -0.967542 -0.0587801 0.17243 -0.983266 
-0.0027881 0.160179 -0.987084 -0.0135673 0.157651 -0.987402 0.0527173 0.153989 -0.986665 
0.116232 0.304861 -0.945278 0.18629 0.452411 -0.872136 0.355116 0.565663 -0.744256 
-0.190835 0.633711 -0.749661 -0.110253 0.587674 -0.80155 -0.037001 0.526783 -0.849194 
0.0506562 0.546059 -0.836213 0.155349 0.661828 -0.733383 -0.344695 -0.753345 -0.56005 
-0.129179 -0.806998 -0.576252 0.0269221 -0.804547 -0.593278 0.00198284 -0.998467 -0.0553208 
0.145814 -0.739307 -0.657391 0.204458 -0.68576 -0.69852 0.284335 -0.702039 -0.652912 
-0.466442 -0.652714 -0.596988 -0.476942 -0.607445 -0.635245 -0.529117 -0.757646 -0.38211 
0.317827 -0.679456 -0.661306 0.370069 -0.591588 -0.716291 0.477495 -0.861537 -0.172488 
0.391037 -0.646086 -0.655487 -0.457443 -0.55151 -0.697554 -0.485173 -0.558629 -0.672711 
-0.48348 -0.556954 -0.675315 -0.495008 -0.572594 -0.653532 0.392394 -0.645985 -0.654775 
0.518771 -0.584781 -0.623625 -0.476222 -0.535974 -0.697097 0.555378 -0.544039 -0.628949 
0.690336 -0.413311 -0.593809 -0.633677 -0.406815 -0.657993 -0.63395 -0.406385 -0.657996 
-0.634637 -0.407206 -0.656825 0.699552 -0.387995 -0.600072 -0.699574 -0.213916 -0.681789 
0.648256 -0.132767 -0.749758 0.938393 -0.257867 -0.23005 -0.738311 0.051974 -0.672455 
-0.981655 0.0333495 -0.187728 0.601093 0.0380973 -0.79827 0.894061 -0.0365371 -0.446452 
-0.656319 0.268382 -0.705136 -0.636679 0.310488 -0.705859 0.539231 0.166161 -0.825603 
0.527032 0.218881 -0.821175 0.871486 0.168492 -0.460568 -0.61701 0.321983 -0.71807 
-0.703102 0.350855 -0.618504 0.518282 0.238148 -0.821383 0.578083 0.263314 -0.772325 
-0.539307 0.420004 -0.729893 -0.503519 0.468817 -0.725727 0.468014 0.390009 -0.793004 
0.435405 0.444175 -0.783027 0.707134 0.530186 -0.467829 -0.429915 0.551283 -0.715025 
-0.640947 0.69195 -0.332252 -0.384784 0.578073 -0.719564 -0.263068 0.604661 -0.751785 
0.240355 0.704585 -0.667675 0.264658 0.653093 -0.709525 0.390447 0.585221 -0.710681 
0.364782 0.611215 -0.702389 0.551644 0.748165 -0.368698 -0.21591 0.654217 -0.724833 
-0.328872 0.78155 -0.530116 -0.189795 0.664671 -0.722628 -0.12509 0.668137 -0.733447 
-0.0523649 0.6789 -0.732361 0.0838558 0.707338 -0.701884 0.233526 0.716983 -0.656811 
0.17508 0.730104 -0.660527 0.24753 0.741056 -0.624151 0.330436 0.917281 -0.222277 
-0.0010124 -0.999641 0.026756 -0.515505 -0.855103 -0.0552587 -0.3272 -0.944948 0.00373345 
-0.114401 -0.992857 0.0338706 -0.142819 -0.989148 0.0344673 0.0859755 -0.996282 0.00546038 
-0.00308312 -0.996732 0.080718 0.102542 -0.994729 0.00049874 0.213736 -0.976789 -0.0141233 
0.338493 -0.940244 -0.0369306 0.46953 -0.881444 -0.050971 -0.542205 -0.83726 -0.0707777 
-0.585989 -0.804243 -0.0990459 0.487246 -0.871645 -0.0531622 0.473589 -0.877133 0.0796963 
0.563542 -0.824297 -0.0543552 -0.61265 -0.781206 -0.119901 -0.625494 -0.770556 -0.122477 
0.604269 -0.795243 -0.0494648 0.633656 -0.771689 -0.0545539 -0.73617 -0.672102 -0.0795784 
-0.760994 -0.643989 -0.0785191 0.718127 -0.689895 -0.0913122 0.749666 -0.653429 -0.105025 
-0.887183 -0.453504 -0.0850978 0.86045 -0.482916 -0.162538 0.940061 -0.274503 -0.202321 
-0.974061 -0.217408 -0.062767 -0.993137 -0.0992656 -0.0618523 0.943497 -0.260622 -0.204671 
-0.997196 0.0267804 -0.0698835 -0.989688 0.111567 -0.0898394 -0.99261 0.00597274 0.121199 
0.948966 -0.0617007 -0.309284 -0.955234 0.260002 -0.141165 0.924563 0.161522 -0.345101 
0.89698 0.271951 -0.348525 -0.884805 0.399163 -0.240394 -0.807488 0.55083 -0.211067 
0.852105 0.374773 -0.365325 -0.807201 0.551244 -0.211084 -0.809918 0.551296 -0.200265 
0.762231 0.576088 -0.295172 0.722923 0.634764 -0.272869 -0.676506 0.697925 -0.235035 
-0.643871 0.728714 -0.23325 -0.49173 0.844321 -0.212894 0.402863 0.898068 -0.176562 
0.582883 0.77482 -0.244748 0.541989 0.80434 -0.243484 -0.450437 0.867063 -0.212859 
-0.348673 0.909213 -0.227506 -0.235805 0.945792 -0.223324 -0.139866 0.968339 -0.206778 
0.0183648 0.989313 -0.144649 0.12548 0.98622 -0.107817 0.205279 0.973986 -0.0959796 
0.276236 0.95594 -0.0993618 0.336605 0.932189 -0.133118 0.324833 0.937389 -0.125643 
0.296085 0.949492 0.103913 -0.45182 -0.812457 0.368473 -0.289929 -0.864517 0.410551 
-0.120496 -0.88788 0.444015 -0.0102297 -0.88956 0.456704 0.0982719 -0.88032 0.46409 
0.194875 -0.864339 0.463619 0.3155 -0.845281 0.43123 -0.452061 -0.812392 0.368322 
-0.542877 -0.766222 0.343787 -0.451731 -0.81218 0.369192 -0.261737 -0.757304 0.598318 
-0.0895502 -0.702289 0.706238 0.0187455 -0.685171 0.728141 0.0857074 -0.688854 0.719816 
0.152715 -0.733508 0.662302 0.384486 -0.822731 0.418668 0.296629 -0.789107 0.537886 
0.432908 -0.796827 0.421495 0.480498 -0.783722 0.393577 -0.575029 -0.743305 0.341817 
-0.612752 -0.706414 0.35428 -0.506534 -0.666731 0.546712 0.32165 -0.640231 0.6976 
0.514055 -0.769618 0.378729 0.459784 -0.75676 0.464664 0.581274 -0.73864 0.341368 
-0.683923 -0.623372 0.379021 -0.734983 -0.554397 0.390441 -0.538982 -0.535545 0.650146 
0.634107 -0.710173 0.30588 0.497879 -0.683359 0.533982 0.696991 -0.660508 0.279165 
-0.790521 -0.47499 0.386601 -0.657443 -0.474862 0.585043 0.794068 -0.556949 0.243443 
0.642122 -0.564082 0.519125 0.920053 -0.349393 0.177277 -0.901708 -0.230156 0.365994 
0.927584 -0.332122 0.171123 0.917878 -0.337424 0.208916 -0.933375 -0.020274 0.358329 
0.98702 -0.114237 0.11288 0.898005 -0.150029 0.413617 -0.953956 0.163553 0.251432 
0.987813 0.137936 0.0721021 0.919255 0.385032 0.0819791 0.870328 0.122393 0.477022 
-0.926757 0.346865 0.144247 0.914704 0.395694 0.0821144 -0.844598 0.527532 0.0914596 
-0.839842 0.535276 0.0902508 -0.840986 0.523969 0.134903 0.751701 0.650052 0.111258 
0.68811 0.715811 0.118819 0.656498 0.618407 0.431953 -0.689358 0.718103 0.0954603 
-0.644354 0.758465 0.0976648 -0.633671 0.723022 0.275136 -0.484068 0.869577 0.0975435 
0.276848 0.936845 0.213721 0.350938 0.918484 0.182292 0.56085 0.811341 0.164843 
0.526068 0.832126 0.175554 0.512936 0.806059 0.295238 -0.449473 0.886569 0.109407 
-0.355164 0.922102 0.153582 -0.260696 0.836601 0.481805 -0.199019 0.966211 0.163791 
-0.0724355 0.976183 0.2045 0.0573945 0.96755 0.246076 0.153681 0.94919 0.274628 
0.204837 0.937643 0.280832 0.130642 0.812209 0.56855 0.270222 0.938104 0.216659 
0.235189 0.941709 0.240562 0.197309 0.892229 0.406199 -0.352624 -0.551099 0.756272 
-0.237249 -0.621829 0.746352 -0.0868771 -0.666364 0.740548 0.0198524 -0.663832 0.747618 
0.0851745 -0.632457 0.769899 0.135221 -0.613426 0.77809 0.23765 -0.603323 0.761264 
-0.374875 -0.536983 0.755724 -0.396962 -0.477608 0.78378 -0.340489 -0.511608 0.788876 
-0.197839 -0.411248 0.889795 -0.0636342 -0.359086 0.931133 0.0189654 -0.374343 0.927096 
0.0781631 -0.39292 0.916245 0.111925 -0.442408 0.889802 0.297137 -0.612048 0.732876 
0.203674 -0.508422 0.836674 0.303609 -0.619265 0.724108 0.357462 -0.648999 0.671581 
-0.421952 -0.440457 0.792435 -0.465693 -0.41259 0.782879 -0.348977 -0.393995 0.850284 
-0.243487 -0.281637 0.928114 -0.102743 -0.179666 0.978348 -0.0403471 -0.118703 0.99211 
-0.00285954 -0.124247 0.992247 0.0200639 -0.232365 0.972422 0.0319988 -0.270534 0.962179 
0.0792591 -0.334821 0.938942 0.162236 -0.474212 0.865334 0.4241 -0.648864 0.631755 
0.300533 -0.592615 0.74732 0.465685 -0.63891 0.612317 -0.469883 -0.387561 0.793099 
-0.608098 -0.266789 0.74769 -0.433471 -0.357187 0.827357 -0.236415 -0.292357 0.926626 
-0.118369 -0.190964 0.974434 -0.0258274 -0.0986744 0.994785 -0.00972782 -0.0647684 0.997853 
-0.106958 -0.148913 0.983049 0.00873771 -0.212474 0.977128 0.166228 -0.421155 0.891626 
0.612678 -0.557746 0.559951 0.377998 -0.511305 0.771806 0.632219 -0.538506 0.557055 
-0.636222 -0.230988 0.736116 -0.609853 -0.239435 0.75548 -0.357795 -0.268486 0.89437 
-0.183931 -0.273044 0.944254 -0.0510187 -0.233857 0.970932 0.0226537 -0.186973 0.982104 
-0.09198 -0.149369 0.984494 0.731503 -0.369242 0.573205 0.590438 -0.336227 0.733713 
-0.70924 -0.0847717 0.699852 -0.666921 -0.103755 0.737869 -0.407136 -0.24194 0.880741 
0.840149 -0.158283 0.518745 0.557803 -0.143346 0.817501 -0.798959 0.00723766 0.601342 
-0.738593 -0.0338268 0.673303 0.861139 0.121172 0.493717 0.551801 0.0887204 0.829243 
-0.854229 0.2156 0.473085 -0.83417 0.340562 0.433795 -0.809931 0.187583 0.555719 
0.778076 0.386433 0.495245 0.646153 0.588814 0.485576 0.615147 0.339847 0.711406 
-0.775449 0.486304 0.402726 -0.621736 0.684 0.381561 -0.552479 0.415981 0.722307 
-0.016573 0.169908 0.985321 0.630277 0.606756 0.484353 0.469288 0.728998 0.498328 
0.418598 0.554131 0.719524 -0.585269 0.712624 0.386818 -0.42827 0.792677 0.433874 
-0.353512 0.650162 0.672547 -0.256688 0.830441 0.494447 0.0430412 0.392028 0.918946 
0.0807267 0.294231 0.952319 0.0508361 0.300092 0.952555 0.00970761 0.321952 0.946706 
0.126599 0.804489 0.580319 -0.000140883 0.408957 0.912554 0.165066 0.83153 0.530388 
0.044772 0.553888 0.831386 0.250826 0.831855 0.495079 0.174121 0.649701 0.73998 
0.404202 0.774031 0.487337 0.348072 0.801248 0.48667 0.334862 0.746822 0.574565 
-0.251084 0.830946 0.496473 -0.158901 0.825673 0.541308 -0.140094 0.763321 0.630647 
-0.0333312 0.802063 0.596309 -0.0094445 0.673115 0.739478 0.0854818 0.763528 0.640092 
0.0895463 0.654944 0.750353 0.128897 0.801042 0.584566 0.138116 0.752883 0.643498 
0.125985 0.704595 0.698336 -0.0596876 -0.329557 0.942247 -0.0187631 -0.246951 0.968846 
0.0304353 -0.339168 0.940233 -0.0766892 -0.314509 0.946152 -0.204042 -0.153091 0.966918 
-0.0154215 -0.253262 0.967275 -0.0692974 -0.34259 0.936926 -0.00855326 -0.23066 0.972997 
0.0147623 -0.212363 0.977079 -0.0222171 -0.244337 0.969436 0.0913125 -0.374626 0.922668 
0.0200684 -0.329229 0.944037 0.156996 -0.406283 0.900159 0.319231 -0.359276 0.876934 
-0.186142 -0.274927 0.943274 -0.0473053 -0.236906 0.97038 0.0315431 -0.188985 0.981473 
-0.168519 -0.149639 0.974274 -0.0361537 -0.116211 0.992566 -0.286558 -0.141175 0.947604 
-0.0313057 -0.123069 0.991904 0.113169 -0.20844 0.971466 -0.0462754 -0.22458 0.973356 
-0.0434133 -0.252428 0.966641 0.100365 -0.2825 0.954002 0.366937 -0.315287 0.875187 
0.309635 -0.313477 0.897696 -0.297372 -0.263842 0.917582 -0.412297 -0.182673 0.892548 
-0.187694 -0.275294 0.94286 -0.0169456 -0.256302 0.966448 0.0730583 -0.192912 0.978492 
0.0400804 -0.0740449 0.996449 -0.102492 -0.0633715 0.992713 -0.141466 -0.0150179 0.989829 
-0.0747578 -0.130881 0.988575 -0.0801146 -0.17611 0.981105 -0.0523453 -0.167518 0.984478 
0.0947594 -0.148 0.984437 0.496744 -0.140585 0.856435 0.298624 -0.140292 0.944003 
-0.463208 -0.133042 0.876206 -0.418753 -0.137673 0.897603 -0.181053 -0.153353 0.971444 
0.0412399 -0.100672 0.994065 0.196777 -0.0689061 0.978024 0.0327802 -0.0182005 0.999297 
-0.223178 -0.017839 0.974615 -0.100133 0.0411153 0.994124 -0.051978 0.0437545 0.997689 
-0.0832462 -0.0189206 0.996349 -0.019159 0.000589123 0.999816 0.12033 0.0439089 0.991762 
0.519581 0.0822841 0.85045 0.304894 0.0522838 0.95095 -0.534646 0.119516 0.836582 
-0.499293 0.243426 0.831535 -0.465 0.105017 0.87906 -0.148413 0.0629042 0.986923 
0.0678833 0.0790993 0.994553 0.167529 0.0305132 0.985395 0.0982649 -0.0190381 0.994978 
-0.0238426 0.128777 0.991387 -0.0275657 0.189763 0.981443 -0.0774696 0.280501 0.956722 
-0.148422 0.213273 0.965653 -0.126007 0.167269 0.977826 0.0116424 0.182252 0.983183 
0.149111 0.226826 0.962453 0.472717 0.301823 0.827914 0.379554 0.425363 0.821587 
0.337133 0.277579 0.899606 -0.3987 0.386497 0.83166 -0.262686 0.482255 0.835719 
-0.195898 0.346153 0.917498 -0.000618971 0.220686 0.975345 0.0431618 0.391663 0.919096 
0.0994982 0.162587 0.981665 0.0982803 0.208813 0.973005 0.120014 0.108819 0.98679 
0.0400908 0.159519 0.986381 0.0703822 0.171282 0.982705 0.0742379 0.154217 0.985244 
-0.0682761 0.194994 0.978425 -0.106734 0.266274 0.95797 -0.140812 0.233021 0.962223 
-0.0281644 0.441641 0.89675 -0.104252 0.308081 0.945631 0.109047 0.505291 0.856032 
0.0517592 0.376318 0.925044 0.294462 0.484899 0.823508 0.248893 0.500351 0.829277 
0.234728 0.454849 0.859078 -0.130034 0.489316 0.862358 0.0132591 0.409985 0.911996 
-0.128947 0.489204 0.862585 -0.128662 0.488354 0.863109 
