# vtk DataFile Version 4.2
vtk output
ASCII
DATASET POLYDATA
POINTS 504 float
35.8417 -0.0865137 -19.7692 35.8417 7.25298 -19.9053 43.1812 7.25298 -20.0315 
-15.5348 -36.784 -12.731 -30.2137 -29.4445 -13.7115 -22.8743 -29.4445 -15.4117 
-15.5348 -29.4445 -14.9518 -8.19526 -29.4445 -14.6993 -0.855768 -29.4445 -13.9717 
6.48373 -29.4445 -13.1189 13.8232 -29.4445 -12.7524 21.1627 -29.4445 -13.4467 
28.5022 -29.4445 -13.626 -37.5532 -22.105 -13.963 -30.2137 -22.105 -16.0015 
-22.8743 -22.105 -16.6142 -15.5348 -22.105 -15.9295 -8.19526 -22.105 -15.7195 
-0.855768 -22.105 -15.4579 6.48373 -22.105 -14.6706 13.8232 -22.105 -15.1449 
21.1627 -22.105 -16.9296 28.5022 -22.105 -16.7898 35.8417 -22.105 -16.6255 
43.1812 -22.105 -13.1994 -37.5532 -14.7655 -15.4162 -30.2137 -14.7655 -16.7525 
-22.8743 -14.7655 -16.7672 -15.5348 -14.7655 -15.6692 -8.19526 -14.7655 -14.7329 
-0.855768 -14.7655 -15.4132 6.48373 -14.7655 -14.8374 13.8232 -14.7655 -15.6737 
21.1627 -14.7655 -17.2963 28.5022 -14.7655 -17.8137 35.8417 -14.7655 -17.6531 
43.1812 -14.7655 -16.4577 -37.5532 -7.42601 -15.9925 -30.2137 -7.42601 -17.0606 
-22.8743 -7.42601 -16.6329 -15.5348 -7.42601 -15.3337 -8.19526 -7.42601 -14.3348 
-0.855768 -7.42601 -15.3511 6.48373 -7.42601 -15.8065 13.8232 -7.42601 -15.2464 
21.1627 -7.42601 -16.9726 28.5022 -7.42601 -18.2683 35.8417 -2.37211 -19.476 
35.8417 -7.42601 -18.8209 43.1812 -7.42601 -18.492 50.5207 -7.42601 -15.0243 
-37.5532 -0.0865137 -14.7361 -30.2137 -0.0865137 -15.9882 -22.8743 -0.0865137 -15.5913 
-15.5348 -0.0865137 -14.8436 -8.19526 -0.0865137 -16.741 -0.855768 -0.0865137 -14.6979 
6.48373 -0.0865137 -18.4657 13.8232 -0.0865137 -16.4455 21.1627 -0.0865137 -17.5698 
32.9638 -0.0865137 -19.476 28.5022 -0.0865137 -19.0273 37.8012 -0.0865137 -19.476 
43.1812 3.97941 -19.476 43.1812 -0.0865137 -18.7212 50.5207 -0.0865137 -16.2286 
-37.5532 7.25298 -12.297 -30.2137 7.25298 -14.1353 -22.8743 7.25298 -14.0531 
-15.5348 7.25298 -13.652 -8.19526 7.25298 -14.337 -0.855768 7.25298 -14.7929 
6.48373 7.25298 -16.2848 13.8232 7.25298 -17.2515 21.1627 7.25298 -18.488 
30.3619 7.25298 -19.476 28.5022 7.25298 -19.3341 35.8417 9.26167 -19.476 
44.5162 7.25298 -19.476 43.1812 9.29739 -19.476 50.5207 7.25298 -16.0132 
-22.8743 14.5925 -12.4589 -15.5348 14.5925 -12.7414 -8.19526 14.5925 -12.8758 
-0.855768 14.5925 -14.3731 6.48373 14.5925 -14.581 13.8232 14.5925 -15.9513 
21.1627 14.5925 -17.8122 28.5022 14.5925 -18.4195 35.8417 14.5925 -18.285 
43.1812 14.5925 -17.4636 50.5207 14.5925 -12.3961 -0.855768 21.932 -12.8876 
6.48373 21.932 -13.7766 13.8232 21.932 -14.4814 21.1627 21.932 -15.2131 
28.5022 21.932 -15.7723 35.8417 21.932 -14.7008 6.48373 29.2715 -12.8481 
13.8232 29.2715 -12.488 -15.5348 -37.5886 -12.1365 -30.2137 -32.2338 -12.1365 
-30.2137 -36.784 -8.3831 -20.6488 -36.784 -12.1365 -22.8743 -36.1985 -12.1365 
-22.8743 -36.784 -11.7731 -11.8554 -36.784 -12.1365 -8.19526 -35.3842 -12.1365 
-8.19526 -36.784 -11.3933 -0.855768 -33.7325 -12.1365 -0.855768 -36.784 -10.392 
6.48373 -31.2411 -12.1365 6.48373 -36.784 -7.66994 13.8232 -30.3507 -12.1365 
13.8232 -36.784 -5.41568 21.1627 -31.1387 -12.1365 28.5022 -31.1577 -12.1365 
-33.7889 -29.4445 -12.1365 -37.5532 -26.0727 -12.1365 -37.5532 -29.4445 -9.62064 
35.49 -29.4445 -12.1365 35.8417 -29.3225 -12.1365 35.8417 -29.4445 -11.9955 
43.1812 -23.5888 -12.1365 -40.2937 -22.105 -12.1365 -44.8927 -22.105 -6.296 
44.856 -22.105 -12.1365 -43.1966 -14.7655 -12.1365 -44.8927 -14.7655 -10.7221 
50.3206 -14.7655 -12.1365 50.5207 -14.4854 -12.1365 50.5207 -14.7655 -11.9244 
-44.8186 -7.42601 -12.1365 -44.8927 -7.42601 -12.0884 54.3292 -7.42601 -12.1365 
-44.0763 -0.0865137 -12.1365 -44.8927 -0.0865137 -11.6932 55.8853 -0.0865137 -12.1365 
-37.8699 7.25298 -12.1365 -44.8927 7.25298 -7.77003 -37.5532 7.57462 -12.1365 
-30.2137 12.3462 -12.1365 55.3269 7.25298 -12.1365 -37.5532 14.5925 -8.00773 
-24.7964 14.5925 -12.1365 -30.2137 14.5925 -11.1081 -22.8743 15.4368 -12.1365 
-15.5348 16.578 -12.1365 -8.19526 17.7474 -12.1365 43.1812 20.9238 -12.1365 
50.7906 14.5925 -12.1365 50.5207 14.911 -12.1365 -30.2137 21.932 -6.50026 
-22.8743 21.932 -9.39898 -15.5348 21.932 -10.4309 -4.07902 21.932 -12.1365 
-8.19526 21.932 -11.1739 -0.855768 26.6053 -12.1365 21.1627 27.7596 -12.1365 
28.5022 26.7594 -12.1365 41.318 21.932 -12.1365 35.8417 24.5108 -12.1365 
43.1812 21.932 -6.12932 -22.8743 29.2715 -5.05905 -15.5348 29.2715 -7.50523 
-8.19526 29.2715 -9.66737 1.83994 29.2715 -12.1365 -0.855768 29.2715 -11.6989 
6.48373 31.5659 -12.1365 16.1946 29.2715 -12.1365 13.8232 30.1026 -12.1365 
21.1627 29.2715 -11.1598 28.5022 29.2715 -7.92666 -8.19526 36.611 -7.46406 
-0.855768 36.611 -9.44245 6.48373 36.611 -10.2225 13.8232 36.611 -8.63378 
-0.855768 43.9505 -5.08186 -30.2137 -39.5594 -4.79697 -22.8743 -42.4629 -4.79697 
-15.5348 -43.6679 -4.79697 -15.5348 -44.1235 1.50772 -8.19526 -42.8646 -4.79697 
-0.855768 -41.5992 -4.79697 6.48373 -39.0544 -4.79697 13.8232 -37.1802 -4.79697 
-34.1968 -36.784 -4.79697 -37.5532 -33.8911 -4.79697 18.255 -36.784 -4.79697 
21.1627 -36.5395 -4.79697 28.5022 -35.749 -4.79697 35.8417 -32.7393 -4.79697 
-41.2421 -29.4445 -4.79697 -44.8927 -23.6522 -4.79697 40.8186 -29.4445 -4.79697 
43.1812 -27.5562 -4.79697 -45.7752 -22.105 -4.79697 48.5631 -22.105 -4.79697 
50.5207 -19.801 -4.79697 -49.0494 -14.7655 -4.79697 54.177 -14.7655 -4.79697 
-50.892 -7.42601 -4.79697 57.0193 -7.42601 -4.79697 -51.3794 -0.0865137 -4.79697 
-52.2322 -0.0865137 -0.508144 57.5951 -0.0865137 -4.79697 -47.6806 7.25298 -4.79697 
-44.8927 11.1503 -4.79697 56.3653 7.25298 -4.79697 -41.6626 14.5925 -4.79697 
-44.8927 14.5925 -0.3741 -37.5532 18.6248 -4.79697 52.1218 14.5925 -4.79697 
50.5207 16.545 -4.79697 50.5207 14.5925 -2.20141 -33.046 21.932 -4.79697 
-37.5532 21.932 -1.09014 -30.2137 24.3757 -4.79697 35.8417 26.6374 -4.79697 
35.8417 21.932 2.12798 43.4737 21.932 -4.79697 43.1812 22.1254 -4.79697 
43.1812 21.932 -4.4931 -23.4612 29.2715 -4.79697 -30.2137 29.2715 -0.69029 
-22.8743 29.7991 -4.79697 -15.5348 35.5494 -4.79697 21.1627 35.7375 -4.79697 
31.3687 29.2715 -4.79697 28.5022 30.8637 -4.79697 28.5022 29.2715 -0.634812 
-22.8743 36.611 -0.166007 -14.5135 36.611 -4.79697 -15.5348 36.611 -4.25906 
-8.19526 43.1848 -4.79697 6.48373 43.8066 -4.79697 19.8642 36.611 -4.79697 
13.8232 41.3955 -4.79697 -15.5348 43.9505 -0.0301453 -3.88834 43.9505 -4.79697 
-8.19526 43.9505 -4.33239 4.28959 43.9505 -4.79697 -0.855768 44.2574 -4.79697 
6.48373 43.9505 -4.61065 -15.5348 -44.1854 2.54252 -30.2137 -39.8278 2.54252 
-15.8913 -44.1235 2.54252 -22.8743 -42.8812 2.54252 -12.8977 -44.1235 2.54252 
-15.5348 -44.1235 2.69329 -8.19526 -44.0058 2.54252 -0.855768 -42.5793 2.54252 
6.48373 -40.2179 2.54252 13.8232 -37.6532 2.54252 -34.2581 -36.784 2.54252 
-37.5532 -33.6254 2.54252 -30.2137 -36.784 8.06196 6.48373 -36.784 7.91614 
17.3708 -36.784 2.54252 13.8232 -36.784 4.05904 21.1627 -35.7166 2.54252 
28.5022 -33.7213 2.54252 35.8417 -30.4974 2.54252 -40.9354 -29.4445 2.54252 
-44.8927 -23.0647 2.54252 -37.5532 -29.4445 8.45444 21.1627 -29.4445 9.49266 
28.5022 -29.4445 7.12158 37.3839 -29.4445 2.54252 35.8417 -29.4445 3.87358 
43.1812 -24.5911 2.54252 -45.4999 -22.105 2.54252 -44.8927 -22.105 3.69239 
35.8417 -22.105 9.11796 45.5421 -22.105 2.54252 43.1812 -22.105 4.95093 
50.5207 -15.7716 2.54252 -49.2871 -14.7655 2.54252 43.1812 -14.7655 9.56469 
51.1992 -14.7655 2.54252 50.5207 -14.7655 3.32982 -52.0756 -7.42601 2.54252 
-52.2322 -5.36289 2.54252 54.1265 -7.42601 2.54252 50.5207 -7.42601 6.27964 
-52.6328 -0.0865137 2.54252 -52.2322 1.54119 2.54252 -52.2322 -0.0865137 4.24663 
54.3313 -0.0865137 2.54252 50.5207 -0.0865137 6.28983 -50.7825 7.25298 2.54252 
43.1812 7.25298 8.09791 52.4194 7.25298 2.54252 50.5207 9.32782 2.54252 
50.5207 7.25298 3.84117 -46.389 14.5925 2.54252 -44.8927 16.573 2.54252 
28.5022 14.5925 8.79469 35.8417 21.4964 2.54252 35.8417 14.5925 7.11465 
45.7613 14.5925 2.54252 43.1812 16.5893 2.54252 43.1812 14.5925 4.25639 
-40.227 21.932 2.54252 -37.5532 24.8547 2.54252 21.1627 21.932 9.26368 
35.2236 21.932 2.54252 28.5022 27.0982 2.54252 28.5022 21.932 5.69879 
-33.1563 29.2715 2.54252 -30.2137 32.2336 2.54252 26.8187 29.2715 2.54252 
21.1627 34.9763 2.54252 21.1627 29.2715 7.00264 -25.5219 36.611 2.54252 
-22.8743 39.0429 2.54252 19.762 36.611 2.54252 13.8232 42.4794 2.54252 
13.8232 36.611 8.99629 -17.989 43.9505 2.54252 -15.5348 45.8458 2.54252 
-8.19526 48.9173 2.54252 -0.855768 49.5051 2.54252 12.1021 43.9505 2.54252 
6.48373 47.7214 2.54252 6.48373 43.9505 9.22846 -22.8743 -38.1797 9.88202 
-15.5348 -39.6826 9.88202 -8.19526 -39.2187 9.88202 -0.855768 -37.6603 9.88202 
-26.813 -36.784 9.88202 -30.2137 -35.0765 9.88202 -22.8743 -36.784 11.0842 
-15.5348 -36.784 11.9735 -8.19526 -36.784 11.5919 1.56607 -36.784 9.88202 
-0.855768 -36.784 10.526 6.48373 -34.3231 9.88202 13.8232 -30.8528 9.88202 
-36.1355 -29.4445 9.88202 -37.5532 -27.5744 9.88202 -30.2137 -29.4445 13.105 
-22.8743 -29.4445 15.2885 -15.5348 -29.4445 14.9517 -8.19526 -29.4445 13.9743 
-0.855768 -29.4445 13.095 6.48373 -29.4445 12.2928 19.119 -29.4445 9.88202 
13.8232 -29.4445 10.7502 21.1627 -28.6892 9.88202 28.5022 -25.5792 9.88202 
-40.6877 -22.105 9.88202 -44.8927 -15.2155 9.88202 -37.5532 -22.105 12.2637 
-30.2137 -22.105 15.8851 -22.8743 -22.105 17.1202 -15.5348 -22.105 16.5342 
-8.19526 -22.105 15.1798 -0.855768 -22.105 14.0444 6.48373 -22.105 13.4746 
13.8232 -22.105 12.9693 21.1627 -22.105 12.6508 33.9813 -22.105 9.88202 
28.5022 -22.105 11.6576 35.8417 -20.3643 9.88202 -45.1262 -14.7655 9.88202 
-44.8927 -14.7655 10.1461 -37.5532 -14.7655 15.0286 -30.2137 -14.7655 16.9632 
-22.8743 -14.7655 17.2045 -15.5348 -14.7655 16.7086 -8.19526 -14.7655 14.8791 
-0.855768 -14.7655 13.8827 6.48373 -14.7655 13.9468 13.8232 -14.7655 13.5304 
21.1627 -14.7655 13.6408 28.5022 -14.7655 13.5167 42.4253 -14.7655 9.88202 
35.8417 -14.7655 11.8393 43.1812 -12.4857 9.88202 -49.23 -7.42601 9.88202 
[...]
POINT_DATA 504
SCALARS ImageScalars float
LOOKUP_TABLE default
0 0 0 0 0 0 0 0 0 
0 0 0 0 0 0 0 0 0 
0 0 0 0 0 0 0 0 0 
0 0 0 0 0 0 0 0 0 
0 0 0 0 0 0 0 0 0 
0 0 0 0 0 0 0 0 0 
0 0 0 0 0 0 0 0 0 
0 0 0 0 0 0 0 0 0 
0 0 0 0 0 0 0 0 0 
0 0 0 0 0 0 0 0 0 
0 0 0 0 0 0 0 0 0 
0 0 0 0 0 0 0 0 0 
0 0 0 0 0 0 0 0 0 
0 0 0 0 0 0 0 0 0 
0 0 0 0 0 0 0 0 0 
0 0 0 0 0 0 0 0 0 
0 0 0 0 0 0 0 0 0 
0 0 0 0 0 0 0 0 0 
0 0 0 0 0 0 0 0 0 
0 0 0 0 0 0 0 0 0 
0 0 0 0 0 0 0 0 0 
0 0 0 0 0 0 0 0 0 
0 0 0 0 0 0 0 0 0 
0 0 0 0 0 0 0 0 0 
0 0 0 0 0 0 0 0 0 
0 0 0 0 0 0 0 0 0 
0 0 0 0 0 0 0 0 0 
0 0 0 0 0 0 0 0 0 
0 0 0 0 0 0 0 0 0 
0 0 0 0 0 0 0 0 0 
0 0 0 0 0 0 0 0 0 
0 0 0 0 0 0 0 0 0 
0 0 0 0 0 0 0 0 0 
0 0 0 0 0 0 0 0 0 
0 0 0 0 0 0 0 0 0 
0 0 0 0 0 0 0 0 0 
0 0 0 0 0 0 0 0 0 
0 0 0 0 0 0 0 0 0 
0 0 0 0 0 0 0 0 0 
0 0 0 0 0 0 0 0 0 
0 0 0 0 0 0 0 0 0 
0 0 0 0 0 0 0 0 0 
0 0 0 0 0 0 0 0 0 
0 0 0 0 0 0 0 0 0 
0 0 0 0 0 0 0 0 0 
0 0 0 0 0 0 0 0 0 
0 0 0 0 0 0 0 0 0 
0 0 0 0 0 0 0 0 0 
0 0 0 0 0 0 0 0 0 
0 0 0 0 0 0 0 0 0 
0 0 0 0 0 0 0 0 0 
0 0 0 0 0 0 0 0 0 
0 0 0 0 0 0 0 0 0 
0 0 0 0 0 0 0 0 0 
0 0 0 0 0 0 0 0 0 
0 0 0 0 0 0 0 0 0 

NORMALS Normals float
-0.0236835 0.0728492 0.997062 0.0498731 -0.0956159 0.994168 -0.216295 -0.0595204 0.974512 
-0.0210505 0.506904 0.861746 0.275607 0.392311 0.877572 0.0747161 0.303262 0.949973 
-0.044397 0.215057 0.975592 -0.0636455 0.262851 0.962735 -0.104495 0.304617 0.946726 
-0.0772357 0.362783 0.928667 0.0164593 0.468883 0.883107 0.0520241 0.551661 0.832444 
-0.0866257 0.580742 0.809466 0.437545 0.278348 0.85503 0.169646 0.185418 0.967905 
-0.00326812 0.0842444 0.99644 -0.0602895 0.0464817 0.997098 -0.0322418 -0.000911634 0.99948 
-0.0698857 0.0906659 0.993426 -0.0238949 0.114157 0.993175 0.14451 0.1761 0.973707 
0.113632 0.232092 0.966034 -0.0180722 0.246911 0.96887 -0.242852 0.371785 0.89599 
-0.473561 0.495242 0.728337 0.323758 0.137746 0.936059 0.0825813 0.0747017 0.993781 
-0.0730711 0.00156292 0.997326 -0.137811 -0.0402884 0.989639 -0.0180514 -0.093811 0.995426 
0.00703498 -0.00725016 0.999949 0.0179107 0.0650748 0.99772 0.165929 0.00603287 0.986119 
0.145511 0.00158338 0.989355 0.024188 0.0967718 0.995013 -0.0794856 0.136074 0.987505 
-0.296898 0.348183 0.889168 0.302357 -0.0379571 0.952439 0.0380376 -0.0479392 0.998126 
-0.118743 -0.0824588 0.989495 -0.144523 -0.0550341 0.98797 -0.00238243 0.129427 0.991586 
0.0921539 -0.0475054 0.994611 -0.00977146 0.255184 0.966843 0.0845046 0.0517225 0.99508 
0.203416 0.0157916 0.978965 0.12296 0.0820824 0.989011 -0.0091313 0.0941601 0.995515 
0.0180338 0.142436 0.98964 -0.249164 0.142976 0.957849 -0.536451 0.223264 0.813863 
0.273391 -0.231444 0.933644 0.0462298 -0.20151 0.978395 -0.0737147 -0.168848 0.982882 
0.0652785 -0.116455 0.991048 -0.00290296 -0.00194119 0.999994 0.115777 -0.0385398 0.992527 
0.107408 0.0156201 0.994092 -0.0560133 0.142327 0.988234 0.178683 0.104145 0.978379 
0.0408531 0.072406 0.996538 0.140921 0.0716023 0.987428 -0.0783273 0.0798483 0.993725 
-0.22195 0.0127205 0.974975 -0.222112 0.0943948 0.970441 -0.494653 0.0632573 0.866785 
0.356871 -0.372937 0.856482 0.106972 -0.298426 0.948419 -0.0329132 -0.209431 0.977269 
0.0151306 -0.137596 0.990373 0.0801992 -0.251508 0.964527 0.121076 -0.0220897 0.992397 
0.169559 -0.260671 0.950421 0.143596 -0.0317905 0.989126 0.14024 0.0141513 0.990016 
0.0848087 -0.0550862 0.994873 0.0946293 -0.041127 0.994663 0.0282174 -0.152599 0.987885 
-0.271427 -0.0791943 0.959195 -0.244163 -0.163715 0.955815 -0.580902 -0.234806 0.779371 
0.0978766 -0.288967 0.952323 0.0273399 -0.212924 0.976686 0.110198 -0.2059 0.972348 
0.113447 -0.128737 0.985168 0.10315 -0.157101 0.982181 0.216337 -0.189824 0.957687 
0.166578 -0.211382 0.963104 0.0309768 -0.233344 0.971901 -0.0586699 -0.321568 0.945067 
-0.327986 -0.463724 0.823034 -0.680365 -0.537759 0.497914 0.170777 -0.175466 0.96956 
0.107804 -0.118843 0.987043 0.0922394 -0.230438 0.968705 0.087003 -0.374758 0.923031 
-0.024279 -0.510092 0.859777 -0.264877 -0.66254 0.700629 0.0519746 -0.217262 0.974729 
-0.0911659 -0.338683 0.936474 -0.0225165 0.549643 0.835096 0.312173 0.493611 0.811724 
0.422541 0.732027 0.534412 0.133596 0.542928 0.829085 0.192468 0.533944 0.823322 
0.204026 0.564374 0.79991 -0.0744697 0.529068 0.845305 -0.114977 0.492646 0.862601 
-0.12699 0.566912 0.813931 -0.139915 0.446667 0.883692 -0.186644 0.604982 0.774055 
-0.106835 0.434556 0.894286 -0.235757 0.768167 0.595263 0.00324613 0.505817 0.862635 
-0.146368 0.915844 0.373906 0.0338511 0.617201 0.786077 -0.0948558 0.691596 0.716029 
0.403162 0.459329 0.791503 0.506871 0.404384 0.761285 0.617099 0.543729 0.568812 
-0.341701 0.646571 0.682046 -0.352652 0.64325 0.679608 -0.358074 0.653961 0.666422 
-0.504935 0.562936 0.654327 0.566348 0.320509 0.759292 0.837383 0.440804 0.323235 
-0.537596 0.531932 0.654247 0.59668 0.19596 0.778185 0.709453 0.243333 0.661412 
-0.656684 0.429996 0.619572 -0.660532 0.426826 0.617671 -0.672242 0.436998 0.597598 
0.572429 0.0410115 0.818928 0.576347 0.041961 0.816127 -0.704118 0.30366 0.641879 
0.489142 -0.228367 0.841777 0.528009 -0.228179 0.81801 -0.811513 0.0529793 0.581928 
0.367456 -0.376053 0.850624 0.603724 -0.432755 0.669507 0.360927 -0.378459 0.85235 
0.201607 -0.386665 0.899914 -0.797534 -0.32627 0.507433 0.457206 -0.524933 0.71792 
0.136041 -0.325977 0.935538 0.250538 -0.433614 0.865569 0.108582 -0.306663 0.945604 
0.0464255 -0.244948 0.968424 0.130563 -0.206813 0.96963 -0.463169 -0.766009 0.445763 
-0.689454 -0.542722 0.479694 -0.682049 -0.552432 0.479195 0.398312 -0.538434 0.742588 
0.213238 -0.447722 0.868375 0.109211 -0.329685 0.937753 0.164862 -0.191022 0.967642 
0.161332 -0.211234 0.964029 0.196751 -0.194658 0.960936 -0.108371 -0.538329 0.835738 
-0.163333 -0.706184 0.688931 -0.429611 -0.775606 0.462461 -0.330787 -0.776865 0.535781 
-0.541052 -0.835558 -0.0954196 0.342179 -0.471297 0.812892 0.281669 -0.363746 0.887892 
0.257741 -0.23695 0.936709 0.154076 -0.211134 0.965237 0.209895 -0.209995 0.954907 
0.0278047 -0.264536 0.963975 -0.116849 -0.415146 0.90222 -0.112864 -0.358993 0.926491 
-0.199105 -0.612558 0.764938 -0.388986 -0.866087 0.31398 0.298576 -0.340793 0.891467 
0.179151 -0.377913 0.908343 -0.0410471 -0.425037 0.904245 -0.33091 -0.592826 0.734204 
0.0228105 -0.650696 0.758996 0.462775 0.832791 0.303805 0.236669 0.920378 0.311275 
0.0250193 0.937548 0.346956 0.0697341 0.991765 -0.107424 -0.122642 0.907592 0.401542 
-0.231168 0.896168 0.37874 -0.272671 0.873316 0.403695 -0.156401 0.930532 0.331132 
0.586186 0.765991 0.263899 0.698971 0.675549 0.234678 -0.116364 0.96026 0.253691 
-0.0913052 0.975048 0.202346 -0.241904 0.96362 0.113659 -0.456632 0.888862 0.0375818 
0.785191 0.575391 0.228909 0.849404 0.477942 0.223795 -0.581424 0.812692 0.0384458 
-0.648436 0.76056 0.0328449 0.859648 0.454876 0.232579 -0.760686 0.649093 -0.00590838 
-0.799299 0.600919 -0.00413172 0.907294 0.315376 0.278129 -0.876694 0.480953 0.00962603 
0.924668 0.136129 0.355609 -0.972111 0.230584 -0.0427853 0.885007 -0.18516 0.427174 
0.983591 -0.124852 0.130235 -0.993627 -0.0349148 -0.107176 0.716377 -0.440737 0.540884 
0.649193 -0.509202 0.565032 -0.92546 -0.36515 -0.100938 0.589542 -0.564654 0.577587 
0.707644 -0.599064 0.37465 0.516487 -0.582882 0.627288 -0.781313 -0.601146 -0.167847 
-0.72125 -0.668912 -0.179879 -0.710197 -0.615962 -0.340898 0.46111 -0.573587 0.677035 
0.593794 -0.622595 0.50969 0.435746 -0.553274 0.709939 -0.512726 -0.850612 -0.1165 
-0.42882 -0.614969 -0.66176 -0.542344 -0.814477 -0.206132 -0.538222 -0.817305 -0.205743 
-0.537113 -0.813302 -0.223715 0.355552 -0.479822 0.802093 0.55297 -0.607901 0.569808 
0.352743 -0.475974 0.805619 0.370549 -0.391331 0.84235 -0.554149 -0.7815 0.286664 
-0.490474 -0.871455 -0.00140817 -0.500416 -0.863059 0.0686528 -0.589835 -0.751006 -0.296793 
0.547436 -0.619932 0.562137 0.372067 -0.388522 0.842981 0.394866 -0.409802 0.822279 
0.242475 -0.505932 0.827791 -0.141801 -0.765097 0.628107 -0.546998 -0.76989 0.32873 
-0.438761 -0.779876 0.446411 0.551844 -0.646251 0.527094 0.109761 -0.606728 0.787295 
0.238469 -0.547267 0.802266 -0.0943344 -0.7387 0.667401 0.0135988 -0.668134 0.743917 
-0.152008 -0.776669 0.611293 0.075483 0.981468 -0.176132 0.514877 0.831327 -0.209278 
0.0841687 0.980587 -0.177102 0.258567 0.945109 -0.199779 0.0103334 0.98566 -0.168427 
0.0755328 0.979737 -0.185499 -0.107143 0.982275 -0.153803 -0.250003 0.952252 -0.175257 
-0.328791 0.925993 -0.185561 -0.28542 0.928158 -0.238869 0.634776 0.742231 -0.214831 
0.721252 0.654063 -0.228027 0.46508 0.700101 -0.54181 -0.295231 0.716778 -0.631718 
-0.259442 0.924118 -0.280528 -0.285747 0.896397 -0.338853 -0.238784 0.905941 -0.349647 
-0.308495 0.83216 -0.460804 -0.453631 0.755779 -0.472247 0.79095 0.566869 -0.230344 
0.824558 0.515779 -0.232544 0.653394 0.514599 -0.555215 -0.195425 0.516907 -0.833437 
-0.280489 0.649901 -0.706367 -0.498609 0.719152 -0.483952 -0.453656 0.700804 -0.550518 
-0.618732 0.603068 -0.503468 0.829751 0.508829 -0.229361 0.812355 0.505719 -0.290393 
-0.372879 0.42348 -0.825606 -0.644608 0.59307 -0.48244 -0.547732 0.558893 -0.622599 
-0.712177 0.467185 -0.523968 0.900286 0.391412 -0.190481 -0.459961 0.275481 -0.844124 
-0.724716 0.434619 -0.53469 -0.703153 0.423456 -0.571192 0.975197 0.209789 -0.0705659 
0.989522 0.128997 -0.0648573 -0.820409 0.190001 -0.539286 -0.641207 0.156092 -0.751325 
0.995234 -0.0848198 -0.0481127 0.988886 -0.147612 -0.0177713 0.989882 -0.0652853 -0.12598 
-0.809758 -0.057773 -0.583912 -0.595369 -0.129503 -0.792947 0.922206 -0.370311 0.111383 
-0.354482 -0.33451 -0.873182 -0.59164 -0.412139 -0.692895 -0.560306 -0.468373 -0.683143 
-0.538293 -0.407021 -0.737953 0.760569 -0.594364 0.261277 0.746599 -0.597095 0.293374 
-0.170671 -0.322994 -0.930885 -0.412292 -0.59345 -0.691254 -0.256154 -0.457901 -0.8513 
-0.478537 -0.567145 -0.670334 -0.433676 -0.60471 -0.66802 -0.402092 -0.541102 -0.7386 
0.696062 -0.60499 0.386632 0.651451 -0.634963 0.415252 -0.394113 -0.173601 -0.902518 
-0.419861 -0.58804 -0.691322 -0.562835 -0.553346 -0.614024 -0.407737 -0.419405 -0.811079 
0.622916 -0.638507 0.451979 0.615701 -0.642839 0.45571 -0.619864 -0.568589 -0.54081 
-0.69422 -0.62028 -0.365118 -0.590374 -0.395879 -0.703376 0.605421 -0.661464 0.442641 
0.606837 -0.670397 0.426986 -0.705305 -0.63902 -0.306918 -0.658135 -0.729664 -0.185603 
-0.615244 -0.433685 -0.658325 0.586755 -0.717069 0.376206 0.520866 -0.790227 0.322861 
0.248306 -0.931179 0.266927 -0.0844316 -0.977051 0.195557 -0.600004 -0.788854 -0.133061 
-0.389206 -0.921151 -5.48198e-05 -0.522468 -0.647397 -0.554892 0.202813 0.65725 -0.725872 
0.0529367 0.665467 -0.744547 -0.0972867 0.61326 -0.783867 -0.202754 0.562028 -0.801882 
0.316456 0.641449 -0.698855 0.414086 0.60908 -0.676427 0.179247 0.605499 -0.775398 
0.0253607 0.524827 -0.850831 -0.0936687 0.481667 -0.871334 -0.221315 0.555748 -0.801351 
-0.194293 0.515241 -0.834731 -0.231391 0.519764 -0.822377 -0.197628 0.48026 -0.854572 
0.575232 0.484674 -0.658938 0.607509 0.45513 -0.650992 0.349834 0.416955 -0.838907 
0.105433 0.353993 -0.929286 -0.0819558 0.286437 -0.954587 -0.125392 0.231117 -0.964812 
-0.111946 0.22642 -0.967575 -0.14336 0.297884 -0.943776 -0.187721 0.480607 -0.856608 
-0.179248 0.413604 -0.892638 -0.179339 0.480279 -0.858586 -0.232488 0.467845 -0.852684 
0.630493 0.39433 -0.668568 0.679254 0.411961 -0.607373 0.533526 0.33735 -0.775593 
0.280788 0.232462 -0.931192 0.0402914 0.118825 -0.992097 -0.124753 0.120293 -0.984869 
-0.171508 0.059109 -0.983408 -0.111334 0.0507899 -0.992484 -0.0716522 0.110941 -0.991241 
-0.0547628 0.172629 -0.983463 -0.0896756 0.261165 -0.96112 -0.323941 0.398515 -0.858049 
-0.201947 0.346142 -0.916189 -0.33793 0.367379 -0.866508 0.682269 0.409663 -0.605545 
0.673391 0.407126 -0.617084 0.358589 0.266554 -0.89463 0.133725 0.0994676 -0.986014 
-0.0178197 -0.0222184 -0.999594 -0.155991 -0.0636065 -0.985708 -0.192994 -0.0423086 -0.980287 
-0.0635001 0.101453 -0.992812 -0.0242154 0.140703 -0.989756 -0.021156 0.0282881 -0.999376 
-0.000611829 0.0742437 -0.99724 -0.1223 0.145967 -0.981701 -0.433944 0.26576 -0.860851 
-0.254532 0.211449 -0.943664 -0.436175 0.193704 -0.878766 0.763632 0.287256 -0.57823 
0.526179 0.282549 -0.802061 0.222756 0.171815 -0.959614 -0.124623 0.000148219 -0.992204 
-0.156259 -0.107917 -0.981803 0.0032354 -0.0051053 -0.999982 0.0941782 0.0780888 -0.992488 
-0.17824 0.0835626 -0.980432 -0.11136 0.0266969 -0.993421 0.0262261 -0.0196636 -0.999463 
-0.0726173 -0.0282204 -0.996961 -0.214303 0.0211165 -0.976539 -0.406532 0.0344952 -0.912985 
-0.379507 0.0242546 -0.924871 0.885512 0.0340408 -0.463367 0.470786 0.139689 -0.871119 
-0.154558 0.0927171 -0.983624 -0.0302873 0.143895 -0.989129 0.00667098 0.0346204 -0.999378 
-0.0568724 -0.0799052 -0.995179 -0.10629 -0.0426961 -0.993418 -0.0549603 -0.160804 -0.985455 
-0.0797441 -0.165956 -0.982904 -0.19679 -0.153231 -0.968398 -0.361504 -0.130201 -0.923235 
-0.356598 -0.142123 -0.923384 -0.35664 -0.130777 -0.925043 0.907836 -0.213632 -0.360825 
0.583985 -0.106251 -0.80478 -0.151661 0.187642 -0.970458 -0.0552039 0.0989602 -0.993559 
-0.130549 0.0634002 -0.989413 -0.212967 -0.00567273 -0.977043 -0.228377 -0.0955404 -0.968874 
-0.0895163 -0.224628 -0.970324 -0.121909 -0.299034 -0.946423 -0.0679549 -0.28435 -0.956309 
-0.220735 -0.307996 -0.925427 -0.20055 -0.322757 -0.924991 -0.195493 -0.307525 -0.931242 
0.883102 -0.424052 -0.200776 0.834699 -0.532079 -0.142016 0.785964 -0.363552 -0.50009 
-0.13523 0.0652252 -0.988665 -0.120376 0.0258345 -0.992392 -0.21773 0.0342251 -0.975409 
-0.328644 -0.0141431 -0.944348 -0.224577 -0.155593 -0.961954 -0.271824 -0.137231 -0.952512 
-0.236101 -0.128429 -0.963204 0.782899 -0.614688 -0.0960659 0.744294 -0.660715 -0.0973775 
0.468135 -0.409327 -0.783135 -0.144448 0.0643175 -0.98742 -0.264691 0.0132218 -0.964243 
-0.385395 -0.14483 -0.911315 -0.381433 -0.0426864 -0.92341 0.729449 -0.676933 -0.0983175 
0.636391 -0.757359 -0.146333 0.346763 -0.486148 -0.802132 -0.169032 -0.0375852 -0.984894 
-0.323287 -0.0835022 -0.94261 -0.508287 -0.255366 -0.822455 -0.566745 -0.354787 -0.74359 
-0.459084 -0.175048 -0.870977 0.618612 -0.767155 -0.169685 0.592348 -0.786288 -0.175716 
0.504516 -0.586112 -0.633984 -0.105171 -0.213686 -0.971225 -0.184937 -0.221509 -0.957461 
-0.576127 -0.392318 -0.717052 -0.519651 -0.587275 -0.62054 -0.411723 -0.272154 -0.869722 
0.530676 -0.802872 -0.271625 0.452978 -0.82335 -0.341915 0.360016 -0.742657 -0.564667 
0.153725 -0.889212 -0.430894 0.043753 -0.578348 -0.814616 -0.502089 -0.619582 -0.603344 
-0.291612 -0.790815 -0.538121 -0.2314 -0.564063 -0.792646 0.0544401 0.0822105 -0.995127 
0.0487464 0.0907073 -0.994684 0.169616 0.159122 -0.972579 -0.0189685 0.0568431 -0.998203 
0.0135328 0.0740631 -0.997162 -0.194363 0.117192 -0.973904 0.233713 0.150934 -0.960519 
0.123652 0.153213 -0.980426 -0.0441533 0.151022 -0.987544 -0.19488 0.118244 -0.973674 
-0.195021 0.118254 -0.973644 0.398375 -0.0263202 -0.916845 0.221954 0.0422171 -0.974143 
-0.0177545 0.106225 -0.994184 -0.152383 0.184262 -0.970993 -0.161327 0.142877 -0.976504 
-0.156359 0.177919 -0.971544 0.43434 -0.166292 -0.885266 0.440858 -0.366762 -0.819225 
0.297374 -0.112238 -0.948141 0.0504202 -0.0275465 -0.998348 -0.117279 0.0398726 -0.992298 
-0.160461 0.0865856 -0.983237 -0.18947 0.111942 -0.975484 -0.143916 0.0716006 -0.986996 
0.430882 -0.382183 -0.817482 0.315344 -0.447413 -0.836887 0.140308 -0.193518 -0.971012 
-0.0217434 -0.104396 -0.994298 -0.125037 0.0548163 -0.990637 -0.144897 0.0717609 -0.986841 
-0.145356 0.0729119 -0.986689 0.273891 -0.413012 -0.868565 0.180335 -0.289127 -0.940152 
0.115666 -0.233906 -0.965355 -0.00745305 -0.0912489 -0.9958 -0.147841 -0.0384763 -0.988262 
-0.117322 -0.126826 -0.984962 -0.125969 -0.0367488 -0.991353 0.153347 -0.368303 -0.916972 
-0.0220199 -0.271097 -0.9623 0.089361 -0.371148 -0.924264 0.0691016 -0.334393 -0.939897 

