# vtk DataFile Version 4.2
vtk output
ASCII
DATASET POLYDATA
POINTS 546 float
-30.6819 -36.3189 -12.946 -22.8456 -36.3189 -15.5461 -15.0093 -36.3189 -15.9634 
-7.17299 -36.3189 -16.6734 0.6633 -36.3189 -16.7527 8.49959 -36.3189 -16.2213 
16.3359 -36.3189 -16.4788 24.1722 -36.3189 -15.5869 32.0085 -36.3189 -14.9261 
-38.5182 -28.4826 -15.2771 -30.6819 -28.4826 -17.5951 -22.8456 -28.4826 -17.8718 
-15.0093 -28.4826 -18.0512 -7.17299 -28.4826 -18.1658 0.6633 -28.4826 -18.2304 
8.49959 -28.4826 -17.4989 16.3359 -28.4826 -18.0807 24.1722 -28.4826 -17.7377 
32.0085 -28.4826 -18.7829 39.8448 -28.4826 -16.575 47.681 -28.4826 -13.0925 
-46.3544 -20.6463 -14.9696 -38.5182 -20.6463 -17.7593 -30.6819 -20.6463 -18.4442 
-22.8456 -20.6463 -18.4818 -15.0093 -20.6463 -17.8665 -7.17299 -20.6463 -17.797 
0.6633 -20.6463 -17.7813 8.49959 -20.6463 -17.3204 16.3359 -20.6463 -17.7355 
24.1722 -20.6463 -18.0466 32.0085 -20.6463 -18.3575 39.8448 -20.6463 -18.2723 
47.681 -20.6463 -15.8323 55.5173 -20.6463 -13.0513 -46.3544 -12.81 -16.0351 
-38.5182 -12.81 -17.7032 -30.6819 -12.81 -18.6905 -22.8456 -12.81 -18.1151 
-15.0093 -12.81 -16.9993 -7.17299 -12.81 -16.4121 0.6633 -12.81 -17.3549 
8.49959 -12.81 -16.8488 16.3359 -12.81 -16.907 24.1722 -12.81 -17.7158 
32.0085 -12.81 -18.508 39.8448 -12.81 -18.0521 47.681 -12.81 -16.552 
55.5173 -12.81 -13.2551 -54.1907 -4.97374 -13.6827 -46.3544 -4.97374 -16.5417 
-38.5182 -4.97374 -17.5947 -30.6819 -4.97374 -17.3402 -22.8456 -4.97374 -16.5471 
-15.0093 -4.97374 -15.882 -7.17299 -4.97374 -18.7744 0.6633 -4.97374 -16.96 
8.49959 -4.97374 -20.22 16.3359 -4.97374 -16.5446 24.1722 -4.97374 -16.7663 
32.0085 -4.97374 -17.8791 39.8448 -4.97374 -17.8669 47.681 -4.97374 -17.2334 
55.5173 -4.97374 -14.4662 -54.1907 2.86255 -14.0198 -46.3544 2.86255 -16.5666 
-38.5182 2.86255 -17.32 -30.6819 2.86255 -17.2015 -22.8456 2.86255 -15.472 
-15.0093 2.86255 -14.0449 -7.17299 2.86255 -18.3615 0.6633 2.86255 -13.9394 
8.49959 2.86255 -19.3626 16.3359 2.86255 -16.3146 24.1722 2.86255 -16.3701 
32.0085 2.86255 -17.3242 39.8448 2.86255 -17.169 47.681 2.86255 -16.262 
55.5173 2.86255 -13.767 -54.1907 10.6988 -12.9399 -46.3544 10.6988 -16.0798 
-38.5182 10.6988 -17.9215 -30.6819 10.6988 -16.9582 -22.8456 10.6988 -15.5686 
-15.0093 10.6988 -13.7341 -7.17299 10.6988 -15.0241 0.6633 10.6988 -17.9838 
8.49959 10.6988 -17.492 16.3359 10.6988 -15.6445 24.1722 10.6988 -15.921 
32.0085 10.6988 -16.5296 39.8448 10.6988 -16.5664 47.681 10.6988 -15.4858 
-46.3544 18.5351 -14.8314 -38.5182 18.5351 -16.1522 -30.6819 18.5351 -16.0403 
-22.8456 18.5351 -15.3447 -15.0093 18.5351 -13.9131 -7.17299 18.5351 -13.707 
0.6633 18.5351 -15.0657 8.49959 18.5351 -14.7772 16.3359 18.5351 -15.2173 
24.1722 18.5351 -15.713 32.0085 18.5351 -15.846 39.8448 18.5351 -14.6504 
47.681 18.5351 -12.7965 -38.5182 26.3714 -13.8392 -30.6819 26.3714 -14.2571 
-22.8456 26.3714 -14.4097 -15.0093 26.3714 -13.6712 -7.17299 26.3714 -13.984 
0.6633 26.3714 -14.2233 8.49959 26.3714 -13.9797 16.3359 26.3714 -14.1688 
24.1722 26.3714 -14.6973 32.0085 26.3714 -13.7252 16.3359 34.2077 -12.6619 
-30.6819 -36.9207 -12.4058 -22.8456 -39.7991 -12.4058 -15.0093 -41.0015 -12.4058 
-7.17299 -41.9773 -12.4058 -7.17299 -44.1552 -5.81411 0.6633 -41.9149 -12.4058 
0.6633 -44.1552 -5.80344 8.49959 -41.4453 -12.4058 8.49959 -44.1552 -4.9755 
16.3359 -40.965 -12.4058 24.1722 -40.2839 -12.4058 32.0085 -39.8756 -12.4058 
-31.9174 -36.3189 -12.4058 -38.5182 -32.6056 -12.4058 -38.5182 -36.3189 -6.49762 
38.5589 -36.3189 -12.4058 39.8448 -35.5647 -12.4058 39.8448 -36.3189 -10.7483 
47.681 -29.3823 -12.4058 -43.8365 -28.4826 -12.4058 -46.3544 -25.8223 -12.4058 
-46.3544 -28.4826 -9.81454 48.5299 -28.4826 -12.4058 55.5173 -21.7416 -12.4058 
-51.1603 -20.6463 -12.4058 -54.1907 -20.6463 -8.73642 56.1838 -20.6463 -12.4058 
-54.1758 -12.81 -12.4058 -54.1907 -12.7587 -12.4058 -54.1907 -12.81 -12.3963 
56.6421 -12.81 -12.4058 -55.8909 -4.97374 -12.4058 58.4782 -4.97374 -12.4058 
63.3536 -4.97374 -6.43088 -56.4629 2.86255 -12.4058 -62.027 2.86255 -5.094 
57.655 2.86255 -12.4058 55.5173 7.65465 -12.4058 63.3536 2.86255 -5.96085 
-54.9123 10.6988 -12.4058 -54.1907 18.5115 -12.4058 54.1645 10.6988 -12.4058 
55.5173 10.6988 -11.4994 -54.1867 18.5351 -12.4058 -54.1907 18.5351 -12.403 
-46.3544 23.9475 -12.4058 39.8448 25.9029 -12.4058 48.6973 18.5351 -12.4058 
47.681 19.2826 -12.4058 55.5173 18.5351 -8.27495 -42.8956 26.3714 -12.4058 
-46.3544 26.3714 -10.6906 -38.5182 30.4835 -12.4058 -30.6819 30.6586 -12.4058 
-22.8456 33.7708 -12.4058 -15.0093 32.093 -12.4058 -7.17299 33.8637 -12.4058 
0.6633 34.0363 -12.4058 8.49959 32.5282 -12.4058 24.1722 32.8861 -12.4058 
39.0769 26.3714 -12.4058 32.0085 29.4775 -12.4058 39.8448 26.3714 -12.2455 
47.681 26.3714 -8.38841 -38.5182 34.2077 -9.18137 -30.6819 34.2077 -10.5201 
-22.8456 34.2077 -12.262 -15.0093 34.2077 -11.9142 -7.17299 34.2077 -12.3332 
0.6633 34.2077 -12.3648 13.3377 34.2077 -12.4058 8.49959 34.2077 -11.961 
19.2621 34.2077 -12.4058 16.3359 34.6293 -12.4058 24.1722 34.2077 -11.9133 
32.0085 34.2077 -9.97631 39.8448 34.2077 -7.76848 -22.8456 42.044 -5.72756 
-15.0093 42.044 -6.89947 -7.17299 42.044 -7.84262 0.6633 42.044 -7.67684 
8.49959 42.044 -6.93989 16.3359 42.044 -6.11021 24.1722 42.044 -5.89082 
-7.17299 -44.4535 -4.56953 0.6633 -44.4725 -4.56953 8.49959 -44.2621 -4.56953 
-38.5182 -37.121 -4.56953 -30.6819 -40.504 -4.56953 -22.8456 -42.735 -4.56953 
-10.8341 -44.1552 -4.56953 -15.0093 -43.8328 -4.56953 -7.17299 -44.1552 -2.62256 
0.6633 -44.1552 -3.34263 10.5104 -44.1552 -4.56953 8.49959 -44.1552 -4.22834 
16.3359 -43.844 -4.56953 24.1722 -43.5179 -4.56953 32.0085 -41.6603 -4.56953 
39.8448 -38.3157 -4.56953 -39.8134 -36.3189 -4.56953 -46.3544 -31.557 -4.56953 
-38.5182 -36.3189 0.0866401 43.0769 -36.3189 -4.56953 39.8448 -36.3189 -0.676765 
47.681 -33.0267 -4.56953 -49.6845 -28.4826 -4.56953 -54.1907 -23.2884 -4.56953 
52.4305 -28.4826 -4.56953 47.681 -28.4826 2.56671 55.5173 -24.7177 -4.56953 
-56.0906 -20.6463 -4.56953 58.6089 -20.6463 -4.56953 55.5173 -20.6463 1.04818 
-59.9486 -12.81 -4.56953 62.0994 -12.81 -4.56953 63.3536 -8.20702 -4.56953 
-61.9095 -4.97374 -4.56953 -62.027 -2.47354 -4.56953 64.1859 -4.97374 -4.56953 
63.3536 -4.97374 -1.36558 -62.2491 2.86255 -4.56953 -62.027 5.16894 -4.56953 
-62.027 2.86255 -2.81399 63.9684 2.86255 -4.56953 63.3536 5.17751 -4.56953 
63.3536 2.86255 -2.13753 -61.4157 10.6988 -4.56953 61.6271 10.6988 -4.56953 
-58.1241 18.5351 -4.56953 -54.1907 24.7996 -4.56953 57.8974 18.5351 -4.56953 
55.5173 21.6965 -4.56953 -52.7534 26.3714 -4.56953 -46.3544 32.0647 -4.56953 
51.6239 26.3714 -4.56953 47.681 30.19 -4.56953 -42.8252 34.2077 -4.56953 
-38.5182 36.6207 -4.56953 -30.6819 40.0123 -4.56953 32.0085 39.9714 -4.56953 
42.7462 34.2077 -4.56953 39.8448 36.2808 -4.56953 -24.9848 42.044 -4.56953 
-22.8456 42.6734 -4.56953 -15.0093 43.9013 -4.56953 -7.17299 44.7376 -4.56953 
0.6633 44.8359 -4.56953 8.49959 44.1126 -4.56953 16.3359 43.3592 -4.56953 
26.8637 42.044 -4.56953 24.1722 42.9038 -4.56953 -30.6819 -39.411 3.26676 
-22.8456 -41.8132 3.26676 -15.0093 -42.9589 3.26676 -7.17299 -43.2139 3.26676 
0.6633 -42.366 3.26676 8.49959 -41.5181 3.26676 16.3359 -40.672 3.26676 
24.1722 -39.2734 3.26676 32.0085 -37.8264 3.26676 -46.3544 -29.9859 3.26676 
-37.2933 -36.3189 3.26676 -38.5182 -35.6136 3.26676 -30.6819 -36.3189 8.3592 
8.49959 -36.3189 10.882 16.3359 -36.3189 8.20439 24.1722 -36.3189 6.49538 
35.1948 -36.3189 3.26676 32.0085 -36.3189 4.74972 39.8448 -32.9957 3.26676 
-47.9696 -28.4826 3.26676 -54.1907 -21.404 3.26676 -46.3544 -28.4826 5.2831 
32.0085 -28.4826 9.12309 46.7175 -28.4826 3.26676 39.8448 -28.4826 6.5361 
47.681 -27.6635 3.26676 -54.745 -20.6463 3.26676 -54.1907 -20.6463 4.07433 
39.8448 -20.6463 10.3229 53.5716 -20.6463 3.26676 47.681 -20.6463 7.23337 
55.5173 -18.6458 3.26676 -59.0319 -12.81 3.26676 -54.1907 -12.81 9.47373 
47.681 -12.81 10.2746 58.9047 -12.81 3.26676 55.5173 -12.81 6.52873 
-60.3644 -4.97374 3.26676 61.6215 -4.97374 3.26676 55.5173 -4.97374 9.30237 
-61.0926 2.86255 3.26676 61.5561 2.86255 3.26676 55.5173 2.86255 9.79954 
-59.9748 10.6988 3.26676 60.5496 10.6988 3.26676 55.5173 10.6988 9.34813 
-57.1118 18.5351 3.26676 -54.1907 23.3907 3.26676 -54.1907 18.5351 7.67176 
57.5552 18.5351 3.26676 55.5173 21.4305 3.26676 55.5173 18.5351 6.35687 
-51.9682 26.3714 3.26676 -46.3544 31.9164 3.26676 -46.3544 26.3714 10.3464 
51.6801 26.3714 3.26676 47.681 30.6735 3.26676 47.681 26.3714 8.82705 
-43.0728 34.2077 3.26676 -38.5182 36.9508 3.26676 -38.5182 34.2077 7.76538 
-30.6819 39.999 3.26676 -30.6819 34.2077 10.6311 32.0085 41.3836 3.26676 
43.7528 34.2077 3.26676 39.8448 37.173 3.26676 39.8448 34.2077 8.64417 
-24.8797 42.044 3.26676 -22.8456 42.6629 3.26676 -22.8456 42.044 4.41491 
-15.0093 44.6832 3.26676 -15.0093 42.044 7.14073 -7.17299 45.4878 3.26676 
-7.17299 42.044 8.32854 0.6633 46.258 3.26676 0.6633 42.044 10.0259 
8.49959 46.0242 3.26676 8.49959 42.044 10.4373 16.3359 45.347 3.26676 
16.3359 42.044 9.25635 30.2246 42.044 3.26676 24.1722 44.0186 3.26676 
24.1722 42.044 6.72464 -22.8456 -37.6999 11.103 -15.0093 -39.3387 11.103 
-7.17299 -39.5347 11.103 0.6633 -38.532 11.103 -38.5182 -28.7327 11.103 
-26.1878 -36.3189 11.103 -30.6819 -33.7344 11.103 -22.8456 -36.3189 12.4927 
-15.0093 -36.3189 14.2072 -7.17299 -36.3189 14.4297 7.9645 -36.3189 11.103 
0.6633 -36.3189 13.4886 8.49959 -36.083 11.103 16.3359 -32.2989 11.103 
24.1722 -29.1393 11.103 -38.8483 -28.4826 11.103 -46.3544 -20.6835 11.103 
-38.5182 -28.4826 11.3169 -30.6819 -28.4826 14.6924 -22.8456 -28.4826 16.8951 
-15.0093 -28.4826 17.9746 -7.17299 -28.4826 18.4492 0.6633 -28.4826 18.0327 
8.49959 -28.4826 16.0212 16.3359 -28.4826 13.3453 25.2467 -28.4826 11.103 
24.1722 -28.4826 11.4051 32.0085 -23.3687 11.103 -46.3844 -20.6463 11.103 
-46.3544 -20.6463 11.1249 -38.5182 -20.6463 15.3117 -30.6819 -20.6463 17.381 
-22.8456 -20.6463 18.7938 8.49959 -20.6463 18.6725 16.3359 -20.6463 16.4287 
[...]
POINT_DATA 546
SCALARS ImageScalars float
LOOKUP_TABLE default
0 0 0 0 0 0 0 0 0 
0 0 0 0 0 0 0 0 0 
0 0 0 0 0 0 0 0 0 
0 0 0 0 0 0 0 0 0 
0 0 0 0 0 0 0 0 0 
0 0 0 0 0 0 0 0 0 
0 0 0 0 0 0 0 0 0 
0 0 0 0 0 0 0 0 0 
0 0 0 0 0 0 0 0 0 
0 0 0 0 0 0 0 0 0 
0 0 0 0 0 0 0 0 0 
0 0 0 0 0 0 0 0 0 
0 0 0 0 0 0 0 0 0 
0 0 0 0 0 0 0 0 0 
0 0 0 0 0 0 0 0 0 
0 0 0 0 0 0 0 0 0 
0 0 0 0 0 0 0 0 0 
0 0 0 0 0 0 0 0 0 
0 0 0 0 0 0 0 0 0 
0 0 0 0 0 0 0 0 0 
0 0 0 0 0 0 0 0 0 
0 0 0 0 0 0 0 0 0 
0 0 0 0 0 0 0 0 0 
0 0 0 0 0 0 0 0 0 
0 0 0 0 0 0 0 0 0 
0 0 0 0 0 0 0 0 0 
0 0 0 0 0 0 0 0 0 
0 0 0 0 0 0 0 0 0 
0 0 0 0 0 0 0 0 0 
0 0 0 0 0 0 0 0 0 
0 0 0 0 0 0 0 0 0 
0 0 0 0 0 0 0 0 0 
0 0 0 0 0 0 0 0 0 
0 0 0 0 0 0 0 0 0 
0 0 0 0 0 0 0 0 0 
0 0 0 0 0 0 0 0 0 
0 0 0 0 0 0 0 0 0 
0 0 0 0 0 0 0 0 0 
0 0 0 0 0 0 0 0 0 
0 0 0 0 0 0 0 0 0 
0 0 0 0 0 0 0 0 0 
0 0 0 0 0 0 0 0 0 
0 0 0 0 0 0 0 0 0 
0 0 0 0 0 0 0 0 0 
0 0 0 0 0 0 0 0 0 
0 0 0 0 0 0 0 0 0 
0 0 0 0 0 0 0 0 0 
0 0 0 0 0 0 0 0 0 
0 0 0 0 0 0 0 0 0 
0 0 0 0 0 0 0 0 0 
0 0 0 0 0 0 0 0 0 
0 0 0 0 0 0 0 0 0 
0 0 0 0 0 0 0 0 0 
0 0 0 0 0 0 0 0 0 
0 0 0 0 0 0 0 0 0 
0 0 0 0 0 0 0 0 0 
0 0 0 0 0 0 0 0 0 
0 0 0 0 0 0 0 0 0 
0 0 0 0 0 0 0 0 0 
0 0 0 0 0 0 0 0 0 
0 0 0 0 0 0 
NORMALS Normals float
0.343172 0.653379 0.67478 0.169034 0.512451 0.841916 0.071293 0.463332 0.883312 
0.0503133 0.407916 0.911632 -0.0304262 0.423161 0.905543 -0.0217208 0.413327 0.910324 
-0.0333503 0.463584 0.885425 -0.0998592 0.473166 0.875296 -0.17914 0.547789 0.817213 
0.351365 0.430229 0.831532 0.15191 0.296287 0.942941 0.0282769 0.17804 0.983617 
0.0175722 0.108673 0.993922 0.0120661 0.068519 0.997577 -0.0429271 0.0633831 0.997066 
-0.0101338 0.0670896 0.997696 0.0160838 0.0586659 0.998148 0.0355272 0.133424 0.990422 
-0.0854708 0.209663 0.974031 -0.268732 0.299379 0.915508 -0.585565 0.503316 0.635442 
0.413496 0.266591 0.870603 0.219808 0.146526 0.964476 0.0425173 0.0632625 0.997091 
-0.0367658 0.0151976 0.999208 -0.045004 -0.069975 0.996533 -0.00542293 -0.11247 0.99364 
-0.0310805 -0.0561039 0.997941 -0.00163655 -0.0411822 0.99915 0.0467522 -0.0747812 0.996103 
0.0394525 -0.00180811 0.99922 0.0150239 -0.0134058 0.999797 -0.179781 0.108194 0.977739 
-0.311645 0.160118 0.936611 -0.681294 0.305173 0.665363 0.286211 0.0964423 0.953301 
0.158229 -0.00999993 0.987352 0.0277868 -0.0696455 0.997185 -0.109472 -0.124538 0.986157 
-0.105034 -0.12634 0.986411 0.0218745 0.0369501 0.999078 0.0289297 -0.0482307 0.998417 
-0.0292705 0.126334 0.991556 0.0560081 -0.075073 0.995604 0.101355 -0.0768749 0.991876 
0.02144 -0.027949 0.999379 -0.118772 -0.0241431 0.992628 -0.254549 0.0909136 0.962777 
-0.551891 0.0825939 0.829816 0.522229 0.0869835 0.848358 0.208497 0.031762 0.977507 
0.0470796 -0.0243809 0.998594 -0.0666795 -0.0941214 0.993325 -0.0945791 -0.159262 0.982695 
0.116177 -0.180611 0.976669 0.0952331 0.152028 0.983778 0.0599544 -0.208143 0.976259 
-0.0534199 0.204765 0.977352 -0.165295 -0.0395536 0.985451 0.0817971 -0.0883695 0.992724 
0.0671554 -0.0774066 0.994735 -0.0394207 -0.0560505 0.997649 -0.18168 -0.0186323 0.983181 
-0.491365 0.0242677 0.870616 0.490529 -0.041736 0.870425 0.175493 -0.0283455 0.984073 
0.0391177 0.0191657 0.999051 -0.110853 -0.0253663 0.993513 -0.185524 -0.0642704 0.980536 
0.0687716 -0.149008 0.986442 0.0256743 -0.212458 0.976833 0.172679 0.118242 0.977855 
0.111999 -0.172972 0.978538 -0.176727 -0.0618716 0.982313 0.0645591 -0.0529542 0.996508 
0.0508916 -0.0835555 0.995203 -0.0649057 -0.0802151 0.994662 -0.179822 -0.110069 0.977522 
-0.453275 -0.162815 0.876375 0.530961 -0.0969572 0.841831 0.267253 -0.110455 0.957275 
0.0500368 -0.0665374 0.996529 -0.145179 -0.0714893 0.986819 -0.200082 -0.00854994 0.979742 
-0.0643646 -0.0057806 0.99791 0.314692 -0.22209 0.922846 0.0959647 0.0197588 0.995189 
-0.15387 -0.279591 0.947709 -0.0905258 -0.0668812 0.993646 0.0561326 -0.0417229 0.997551 
0.0409449 -0.0958858 0.99455 -0.0721357 -0.157557 0.984872 -0.264438 -0.183119 0.946858 
0.230702 -0.266381 0.935851 0.0806252 -0.258048 0.962762 -0.0502827 -0.164472 0.985099 
-0.134976 -0.0700978 0.988366 -0.102764 -0.00416576 0.994697 0.0733524 -0.038335 0.996569 
0.0648542 -0.243155 0.967817 0.0100445 -0.203667 0.978989 0.0589126 -0.0926822 0.993951 
0.0405245 -0.0741792 0.996421 -0.0622662 -0.166905 0.984005 -0.174014 -0.236097 0.956022 
-0.286189 -0.415417 0.863438 0.170597 -0.314564 0.933781 0.0347302 -0.292727 0.955565 
-0.0385674 -0.202521 0.978518 -0.0247309 -0.120785 0.992371 0.0352056 -0.0820822 0.996004 
-0.000126885 -0.163021 0.986623 -0.00339257 -0.171953 0.985099 0.0435081 -0.164662 0.98539 
-0.0258764 -0.235286 0.971582 -0.13091 -0.326343 0.936143 -0.00143142 -0.403326 0.915055 
0.351174 0.678081 0.645665 0.205513 0.759588 0.617082 0.118411 0.762244 0.636367 
0.0461851 0.791868 0.608943 0.0413275 0.992903 0.111512 -0.027303 0.802886 0.595507 
-0.0148948 0.996906 0.0771821 -0.0487233 0.769247 0.637091 -0.0410054 0.999158 0.0014004 
-0.0588577 0.759417 0.647937 -0.0580164 0.755655 0.652395 -0.228515 0.767017 0.599555 
0.36629 0.673667 0.641875 0.416111 0.621861 0.66343 0.479433 0.849938 0.218517 
-0.395793 0.728348 0.559336 -0.42147 0.717567 0.554491 -0.45802 0.800833 0.385855 
-0.599054 0.544616 0.586964 0.505695 0.541176 0.671864 0.522466 0.484718 0.701483 
0.611882 0.635983 0.47024 -0.612354 0.529157 0.58738 -0.705071 0.345244 0.61942 
0.587808 0.354593 0.727149 0.774264 0.477362 0.4155 -0.723299 0.311175 0.616448 
0.580763 0.177399 0.794508 0.580905 0.176983 0.794497 0.58174 0.177822 0.793699 
-0.594204 0.101741 0.797854 0.586147 0.0950414 0.804611 -0.595706 0.0422656 0.80209 
-0.964223 0.108482 0.241877 0.582496 -0.0399394 0.811852 0.981613 -0.0292713 0.188626 
-0.536893 -0.158686 0.828592 -0.513707 -0.191845 0.836242 -0.964635 -0.157607 0.211282 
0.557933 -0.101905 0.823606 0.589497 -0.2988 0.750474 -0.504874 -0.213302 0.836424 
-0.58392 -0.236013 0.776747 0.589436 -0.299383 0.75029 0.589741 -0.29946 0.75002 
0.332459 -0.435385 0.836607 -0.291932 -0.324387 0.899749 -0.320639 -0.418927 0.849524 
-0.299217 -0.425698 0.853961 -0.689937 -0.498921 0.524466 0.294877 -0.417662 0.859422 
0.441709 -0.560265 0.700711 0.210553 -0.474672 0.854607 0.057144 -0.415841 0.90764 
0.0597045 -0.345696 0.936445 -0.00392894 -0.280222 0.959927 0.0272929 -0.306033 0.95163 
-0.0215254 -0.332379 0.9429 0.0144108 -0.318116 0.947942 -0.119974 -0.362711 0.924147 
-0.281459 -0.331155 0.900621 -0.144849 -0.396636 0.906476 -0.301607 -0.335443 0.892475 
-0.537261 -0.578539 0.613713 0.323606 -0.749934 0.576956 0.138346 -0.600479 0.787582 
0.0671941 -0.360205 0.93045 0.00922232 -0.351358 0.936196 0.0271537 -0.317618 0.94783 
-0.0220988 -0.336878 0.941289 0.00669896 -0.386983 0.922063 0.0141727 -0.365229 0.93081 
-0.0524694 -0.399288 0.915323 -0.000595289 -0.420563 0.907263 -0.139147 -0.400939 0.905476 
-0.211258 -0.572828 0.791984 -0.438514 -0.711122 0.549556 0.21808 -0.900993 0.375036 
0.0940359 -0.806161 0.584176 0.0408114 -0.770363 0.636298 -0.0476208 -0.741557 0.669197 
-0.080303 -0.759845 0.645125 -0.0514536 -0.801727 0.595472 -0.164781 -0.863792 0.476141 
0.0413214 0.998317 0.0406935 -0.0126324 0.999917 -0.00241871 -0.0406134 0.99883 -0.0262551 
0.477494 0.871763 0.109676 0.354271 0.929303 0.104346 0.203581 0.97407 0.0987002 
0.0716659 0.995955 0.0541989 0.107033 0.99161 0.0724858 0.0228158 0.999231 -0.0318923 
-0.0256835 0.998312 -0.0521007 -0.0428701 0.998624 -0.0302101 -0.0425942 0.998186 -0.0425524 
-0.0475483 0.998048 -0.0404801 -0.142153 0.98778 -0.0639048 -0.313371 0.941249 -0.125893 
-0.472684 0.878178 -0.0732962 0.502097 0.858209 0.106661 0.640541 0.758522 0.119797 
0.505112 0.848626 -0.157146 -0.540324 0.833317 -0.116761 -0.516616 0.773958 -0.366193 
-0.639747 0.759753 -0.116183 0.698235 0.705359 0.122215 0.796664 0.594063 0.111425 
-0.737204 0.669365 -0.0920938 -0.536421 0.594768 -0.598752 -0.79328 0.598643 -0.11106 
0.841782 0.526249 0.120268 -0.847345 0.527128 -0.0643597 -0.724389 0.59166 -0.353836 
0.92433 0.337617 0.177846 -0.949482 0.312686 0.0266908 -0.979526 0.192719 0.0582155 
0.97906 0.142452 0.14543 0.985304 0.087372 0.14677 -0.989272 0.114455 0.0907807 
-0.97787 0.138893 -0.156455 0.988014 -0.0284284 0.151723 0.983545 -0.0927795 0.15502 
0.99882 -0.0275418 0.0400118 -0.98403 -0.149462 0.0966723 -0.971078 -0.20658 0.119719 
-0.987287 -0.136393 -0.081611 0.953682 -0.248498 0.16953 -0.912002 -0.350953 0.212332 
0.882319 -0.444474 0.154777 0.75516 -0.632665 0.171664 -0.808644 -0.535376 0.243859 
-0.767303 -0.588363 0.255098 0.706773 -0.677765 0.202746 0.567722 -0.785407 0.246634 
-0.693653 -0.64466 0.321339 -0.622291 -0.701999 0.346339 0.499141 -0.835714 0.228997 
0.428786 -0.870429 0.241858 0.316559 -0.898338 0.304597 -0.371588 -0.83785 0.399911 
-0.546459 -0.771562 0.325691 -0.48984 -0.803926 0.337282 0.26073 -0.923475 0.281449 
0.235963 -0.928681 0.286134 0.135227 -0.89818 0.418313 0.0593324 -0.911767 0.4064 
-0.0375139 -0.875703 0.481391 -0.0868893 -0.85514 0.511063 -0.0739268 -0.852881 0.516845 
-0.25283 -0.889121 0.381498 -0.185594 -0.90113 0.391816 0.348938 0.883166 -0.313465 
0.211268 0.937983 -0.274872 0.0845609 0.96663 -0.241818 -0.0350044 0.961687 -0.271906 
-0.099969 0.939023 -0.329002 -0.0958166 0.898027 -0.42938 -0.120534 0.823102 -0.554954 
-0.159688 0.748775 -0.6433 -0.248203 0.719818 -0.648273 0.620166 0.697455 -0.359097 
0.478947 0.808904 -0.341004 0.501778 0.790412 -0.35138 0.373997 0.758918 -0.533076 
-0.252366 0.686526 -0.681904 -0.182588 0.669578 -0.719949 -0.177868 0.657932 -0.731771 
-0.350789 0.651094 -0.673071 -0.264712 0.636088 -0.724789 -0.432775 0.574251 -0.69494 
0.645961 0.671018 -0.363963 0.750535 0.548039 -0.369257 0.610691 0.644346 -0.460299 
-0.251352 0.417685 -0.873133 -0.493817 0.568351 -0.65812 -0.335071 0.498286 -0.799649 
-0.509742 0.559097 -0.653891 0.764297 0.532939 -0.363079 0.739201 0.53349 -0.411059 
-0.252335 0.354984 -0.900174 -0.627105 0.561473 -0.539896 -0.358524 0.423073 -0.832148 
-0.67433 0.528085 -0.516145 0.869128 0.323342 -0.374255 0.654598 0.313719 -0.68781 
-0.377565 0.280165 -0.882583 -0.744076 0.35253 -0.567515 -0.591949 0.282188 -0.754961 
0.916231 0.113252 -0.38431 -0.827455 0.14846 -0.541551 -0.567632 0.178487 -0.803701 
0.925731 -0.0222128 -0.37753 -0.862755 -0.0631545 -0.501662 -0.60118 0.00129967 -0.799113 
0.902592 -0.229183 -0.36442 -0.888896 -0.227946 -0.397372 -0.650177 -0.133604 -0.747943 
0.850372 -0.402074 -0.339415 0.775382 -0.543025 -0.322346 0.734399 -0.397129 -0.550406 
-0.825224 -0.485754 -0.288181 -0.787295 -0.545773 -0.286877 -0.731896 -0.461961 -0.50092 
0.719833 -0.627962 -0.295811 0.602312 -0.754448 -0.260823 0.534555 -0.524457 -0.662718 
-0.743313 -0.616282 -0.260158 -0.691133 -0.687165 -0.223916 -0.633549 -0.502957 -0.58792 
0.530339 -0.811407 -0.245681 0.440037 -0.86557 -0.239074 0.391886 -0.767365 -0.507519 
0.327244 -0.903874 -0.275541 0.223155 -0.673893 -0.704322 -0.400341 -0.905549 -0.140384 
-0.620511 -0.761261 -0.188274 -0.542439 -0.822056 -0.173159 -0.504541 -0.687363 -0.522467 
0.29539 -0.918124 -0.264182 0.281293 -0.922782 -0.263338 0.271258 -0.903975 -0.330527 
0.18139 -0.947193 -0.264431 0.152439 -0.830691 -0.535457 0.110739 -0.966268 -0.232514 
0.132646 -0.781195 -0.610033 0.0305179 -0.984354 -0.173541 0.0853841 -0.734834 -0.672851 
-0.0591273 -0.991246 -0.118044 -0.0260682 -0.73744 -0.67491 -0.127917 -0.984404 -0.120772 
-0.145057 -0.822425 -0.550068 -0.36483 -0.918824 -0.150536 -0.246145 -0.951397 -0.185086 
-0.22111 -0.891044 -0.396423 0.250277 0.722708 -0.644247 0.100539 0.786817 -0.608943 
-0.0448709 0.792162 -0.60866 -0.173031 0.776361 -0.606072 0.430114 0.569705 -0.700313 
0.303264 0.691954 -0.655157 0.361867 0.623301 -0.693216 0.244253 0.661914 -0.708668 
0.105729 0.633294 -0.766655 -0.037074 0.644858 -0.763403 -0.250433 0.684755 -0.684393 
-0.174259 0.682052 -0.710239 -0.256377 0.675158 -0.691688 -0.227175 0.523575 -0.821134 
-0.235867 0.407315 -0.882305 0.434218 0.564649 -0.701873 0.537848 0.399395 -0.742431 
0.42838 0.562562 -0.707117 0.285674 0.417742 -0.862486 0.189945 0.349935 -0.917315 
0.0926841 0.278421 -0.955977 0.00482931 0.26976 -0.962916 -0.141859 0.29965 -0.943444 
-0.272091 0.404362 -0.873188 -0.26473 0.420518 -0.867804 -0.238071 0.392422 -0.888441 
-0.237581 0.389502 -0.889856 -0.237172 0.350435 -0.90606 0.537911 0.399016 -0.742588 
0.537593 0.398542 -0.743073 0.328537 0.289479 -0.899036 0.213824 0.241673 -0.946506 
0.127768 0.180854 -0.975175 -0.155425 0.224462 -0.962008 -0.271342 0.316397 -0.908992 
-0.247003 0.2888 -0.924978 -0.239858 0.338149 -0.910013 -0.232142 0.317155 -0.919523 
-0.248363 0.327805 -0.911515 0.561523 0.301346 -0.770638 0.64083 0.172903 -0.747958 
0.414317 0.242861 -0.877131 0.283303 0.182957 -0.941417 0.17114 0.156748 -0.972698 
-0.232483 0.187329 -0.95439 -0.258312 0.213167 -0.94225 -0.187023 0.243486 -0.951702 
-0.344227 0.265906 -0.900445 -0.250419 0.256072 -0.933658 -0.349803 0.242479 -0.904899 
0.673275 0.0821161 -0.734818 0.639957 0.0818265 -0.764042 0.388218 0.140557 -0.910786 
0.264579 0.132462 -0.955223 -0.204301 0.202301 -0.957776 -0.181422 0.22254 -0.957895 
-0.205957 0.185502 -0.960818 -0.422635 0.195562 -0.884949 -0.306587 0.19718 -0.931195 
0.671426 -0.0118946 -0.740977 0.664258 -0.0111944 -0.747419 0.418232 0.0214766 -0.908086 
-0.204338 0.172973 -0.963497 -0.262295 0.124888 -0.956872 -0.51706 0.0157874 -0.855803 
-0.373323 0.0627238 -0.925579 0.686983 -0.145598 -0.711938 0.674577 -0.189634 -0.713432 
0.665522 -0.1423 -0.732688 0.439689 -0.13333 -0.888199 -0.301646 -0.000212781 -0.95342 
-0.534295 -0.105404 -0.838701 -0.423025 -0.0648515 -0.903794 0.592218 -0.350088 -0.725753 
0.517654 -0.479216 -0.708792 0.493123 -0.299482 -0.816787 0.318547 -0.271088 -0.908317 
-0.0723417 -0.203524 -0.976394 0.0614153 -0.176904 -0.98231 -0.0382972 -0.15998 -0.986377 
0.0666719 -0.185845 -0.980314 -0.199881 -0.128251 -0.971391 -0.345024 -0.178934 -0.92138 
-0.528504 -0.281856 -0.800775 -0.544721 -0.336437 -0.768172 -0.501369 -0.245069 -0.829802 
0.492652 -0.506563 -0.707594 0.332478 -0.611042 -0.718392 0.312456 -0.482701 -0.818151 
0.212312 -0.64994 -0.729727 0.122431 -0.463964 -0.877353 0.00697866 -0.40609 -0.913807 
0.0201007 -0.319789 -0.947275 0.0829401 -0.260531 -0.961896 0.0310508 -0.256466 -0.966054 
-0.031404 -0.17939 -0.983277 0.00569884 -0.200351 -0.979708 -0.0235406 -0.297719 -0.954363 
-0.211267 -0.349131 -0.912948 -0.526962 -0.42055 -0.738545 -0.448341 -0.540131 -0.712214 
-0.407494 -0.360175 -0.83918 0.201932 -0.642215 -0.739448 0.148645 -0.620448 -0.770032 
0.120032 -0.543855 -0.83055 0.0992114 -0.578558 -0.809585 0.0825185 -0.47092 -0.878308 
0.137385 -0.582904 -0.800842 0.125179 -0.428144 -0.894999 0.0879855 -0.651364 -0.753647 
0.0830919 -0.411383 -0.907667 -0.0222243 -0.682117 -0.730905 0.00785419 -0.369926 -0.929028 
-0.120831 -0.690811 -0.712867 -0.0498815 -0.38385 -0.922047 -0.16949 -0.686203 -0.707389 
-0.164321 -0.471168 -0.866602 -0.378927 -0.593048 -0.710429 -0.310408 -0.616675 -0.723435 
-0.292626 -0.557213 -0.777099 0.0570015 0.201348 -0.97786 -0.00806369 0.206076 -0.978503 
-0.0605534 0.140471 -0.988231 0.108017 0.177444 -0.978185 0.12571 0.171556 -0.977121 
0.0367396 0.165588 -0.98551 -0.0217799 0.152178 -0.988113 -0.0896873 0.157021 -0.983514 
-0.044971 0.110551 -0.992852 -0.135274 0.19205 -0.972017 0.164248 0.151482 -0.974718 
0.167883 0.153532 -0.973778 0.115 0.114268 -0.986771 0.0742881 0.146874 -0.986362 
-0.0504563 0.241795 -0.969015 -0.0683294 0.0932588 -0.993294 -0.218757 0.177703 -0.959462 
-0.0618251 0.0728644 -0.995424 -0.220076 0.175197 -0.959621 0.222184 0.131857 -0.966048 
0.273111 0.0737536 -0.959151 0.13972 0.128738 -0.981787 0.110828 0.0834564 -0.990329 
0.152333 0.00569917 -0.988313 -0.0637808 -0.0332931 -0.997408 -0.212452 0.0434207 -0.976206 
-0.0635737 0.00170552 -0.997976 -0.155152 0.131092 -0.979154 -0.128184 0.0887273 -0.987773 
-0.156556 0.173256 -0.972354 0.286866 0.0464408 -0.956844 0.27525 0.0483971 -0.960154 
0.122788 0.0533778 -0.990996 -0.00713744 0.0415931 -0.999109 -0.038539 -0.123719 -0.991569 
-0.01373 -0.212394 -0.977088 -0.0422149 0.0737764 -0.996381 -0.0153086 0.00997504 -0.999833 
-0.0228405 0.0416323 -0.998872 -0.166272 0.164101 -0.972329 -0.131076 0.154286 -0.979293 
-0.209265 0.0535745 -0.97639 0.297379 -0.0782074 -0.951551 0.292365 -0.107236 -0.950275 
0.286355 -0.0757857 -0.955122 0.130986 -0.0785333 -0.988269 -0.0648849 -0.0927078 -0.993577 
-0.0816192 -0.183399 -0.979644 -0.101047 -0.135149 -0.985659 0.0873432 -0.157276 -0.983685 
0.125618 -0.127726 -0.983822 0.0157726 -0.0583351 -0.998172 -0.0585946 -0.14013 -0.988398 
-0.0984613 -0.0961138 -0.990489 0.0665474 -0.185609 -0.980368 0.0120856 -0.0848698 -0.996319 
-0.072318 -0.0027968 -0.997378 -0.215204 0.0272015 -0.97619 -0.20631 -0.0282585 -0.978078 
-0.209557 0.0290414 -0.977365 0.19271 -0.262269 -0.945557 0.103233 -0.302628 -0.947502 
0.10339 -0.259592 -0.960168 -0.0707353 -0.231866 -0.970172 -0.0518302 -0.317457 -0.946855 
-0.0647725 -0.288618 -0.955251 0.0342587 -0.2073 -0.977677 -0.0233265 -0.199981 -0.979522 
0.00928801 -0.251174 -0.967897 -0.00539369 -0.248773 -0.968547 0.0662152 -0.185744 -0.980365 
-0.142424 -0.139776 -0.979887 -0.0137861 -0.204112 -0.97885 -0.0139359 -0.164354 -0.986303 

