# vtk DataFile Version 4.2
vtk output
ASCII
DATASET POLYDATA
POINTS 520 float
-18.8442 -47.065 -17.6913 -9.97264 -47.065 -18.2591 -1.1011 -47.065 -18.2854 
7.77043 -47.065 -17.3201 -36.5872 -38.1935 -17.5057 -27.7157 -38.1935 -20.2233 
-18.8442 -38.1935 -21.8176 -9.97264 -38.1935 -21.8012 -1.1011 -38.1935 -21.5992 
7.77043 -38.1935 -21.0257 16.642 -38.1935 -19.8358 25.5135 -38.1935 -16.8992 
-36.5872 -29.3219 -19.9191 -27.7157 -29.3219 -21.7823 -18.8442 -29.3219 -22.7486 
-9.97264 -29.3219 -22.4226 -1.1011 -29.3219 -22.075 7.77043 -29.3219 -21.8649 
16.642 -29.3219 -21.7166 25.5135 -29.3219 -21.1432 34.385 -29.3219 -18.9345 
-45.4588 -20.4504 -18.8376 -36.5872 -20.4504 -21.0343 -27.7157 -20.4504 -21.9693 
-18.8442 -20.4504 -22.1949 -9.97264 -20.4504 -22.2436 -1.1011 -20.4504 -21.4743 
7.77043 -20.4504 -21.5116 16.642 -20.4504 -21.565 25.5135 -20.4504 -21.4541 
34.385 -20.4504 -21.2194 43.2566 -20.4504 -19.2957 -54.3303 -11.5789 -17.2877 
-45.4588 -11.5789 -20.8742 -36.5872 -11.5789 -21.7268 -27.7157 -11.5789 -21.4938 
-18.8442 -11.5789 -21.1495 -9.97264 -11.5789 -23.0385 -1.1011 -11.5789 -23.2472 
7.77043 -11.5789 -22.8484 16.642 -11.5789 -21.1993 25.5135 -11.5789 -20.9736 
34.385 -11.5789 -21.0792 43.2566 -11.5789 -19.9718 52.1281 -11.5789 -16.9877 
-54.3303 -2.70732 -19.1763 -45.4588 -2.70732 -22.3721 -36.5872 -2.70732 -22.9782 
-27.7157 -2.70732 -22.3249 -18.8442 -2.70732 -21.6148 -9.97264 -2.70732 -24.8377 
-1.1011 -2.70732 -21.2099 7.77043 -2.70732 -24.1906 16.642 -2.70732 -23.1636 
25.5135 -2.70732 -21.3928 34.385 -2.70732 -21.6383 43.2566 -2.70732 -20.6641 
52.1281 -2.70732 -17.7304 -54.3303 6.16421 -20.0963 -45.4588 6.16421 -23.1986 
-36.5872 6.16421 -23.7277 -27.7157 6.16421 -22.8886 -18.8442 6.16421 -21.6902 
-9.97264 6.16421 -23.6906 -1.1011 6.16421 -21.7586 7.77043 6.16421 -22.4368 
16.642 6.16421 -22.2407 25.5135 6.16421 -21.7371 34.385 6.16421 -21.5088 
43.2566 6.16421 -20.2721 52.1281 6.16421 -17.6885 -54.3303 15.0357 -19.4788 
-45.4588 15.0357 -22.5476 -36.5872 15.0357 -23.5175 -27.7157 15.0357 -22.9902 
-18.8442 15.0357 -22.1466 -9.97264 15.0357 -22.2641 -1.1011 15.0357 -22.3362 
7.77043 15.0357 -20.477 16.642 15.0357 -20.3106 25.5135 15.0357 -20.5533 
34.385 15.0357 -20.4511 43.2566 15.0357 -18.404 -54.3303 23.9073 -16.3873 
-45.4588 23.9073 -20.9761 -36.5872 23.9073 -23.3731 -27.7157 23.9073 -23.3265 
-18.8442 23.9073 -22.9167 -9.97264 23.9073 -22.4533 -1.1011 23.9073 -21.8547 
7.77043 23.9073 -21.3364 16.642 23.9073 -20.7138 25.5135 23.9073 -20.0692 
34.385 23.9073 -18.6953 -45.4588 32.7788 -17.777 -36.5872 32.7788 -20.7785 
-27.7157 32.7788 -22.7275 -18.8442 32.7788 -22.6304 -9.97264 32.7788 -22.7051 
-1.1011 32.7788 -22.2123 7.77043 32.7788 -21.459 16.642 32.7788 -20.8039 
25.5135 32.7788 -18.8845 -27.7157 41.6503 -18.9117 -18.8442 41.6503 -20.1419 
-9.97264 41.6503 -20.4342 -1.1011 41.6503 -20.1822 7.77043 41.6503 -19.4381 
16.642 41.6503 -18.4471 -18.8442 -48.5793 -16.1188 -9.97264 -49.7953 -16.1188 
-1.1011 -49.8442 -16.1188 7.77043 -48.2729 -16.1188 -36.5872 -39.9484 -16.1188 
-24.3758 -47.065 -16.1188 -27.7157 -45.7307 -16.1188 -27.7157 -47.065 -14.3851 
10.9911 -47.065 -16.1188 16.642 -44.2554 -16.1188 16.642 -47.065 -12.1324 
25.5135 -39.106 -16.1188 -38.3809 -38.1935 -16.1188 27.3549 -38.1935 -16.1188 
34.385 -33.9192 -16.1188 34.385 -38.1935 -9.86473 -44.9266 -29.3219 -16.1188 
-45.4588 -28.4433 -16.1188 -45.4588 -29.3219 -15.6846 43.0536 -29.3219 -16.1188 
43.2566 -29.1233 -16.1188 43.2566 -29.3219 -16.0075 52.1281 -29.3219 -7.93496 
-49.8248 -20.4504 -16.1188 -54.3303 -14.1742 -16.1188 -54.3303 -20.4504 -11.5228 
50.5568 -20.4504 -16.1188 52.1281 -16.5969 -16.1188 52.1281 -20.4504 -15.2467 
-55.6732 -11.5789 -16.1188 53.5424 -11.5789 -16.1188 60.9996 -11.5789 -9.72929 
-57.9349 -2.70732 -16.1188 54.8043 -2.70732 -16.1188 60.9996 -2.70732 -11.0122 
-58.8498 6.16421 -16.1188 -63.2018 6.16421 -8.03148 54.5576 6.16421 -16.1188 
52.1281 10.9889 -16.1188 60.9996 6.16421 -9.8934 -58.0986 15.0357 -16.1188 
48.9323 15.0357 -16.1188 43.2566 21.6812 -16.1188 52.1281 15.0357 -14.3557 
-54.615 23.9073 -16.1188 -54.3303 24.3322 -16.1188 41.2724 23.9073 -16.1188 
34.385 31.2268 -16.1188 43.2566 23.9073 -15.1359 52.1281 23.9073 -7.65908 
-47.6043 32.7788 -16.1188 -45.4588 34.7554 -16.1188 -36.5872 40.5995 -16.1188 
32.7896 32.7788 -16.1188 25.5135 39.7004 -16.1188 34.385 32.7788 -15.4008 
43.2566 32.7788 -7.88309 -34.5808 41.6503 -16.1188 -36.5872 41.6503 -14.359 
-27.7157 44.2751 -16.1188 -18.8442 46.9125 -16.1188 -9.97264 48.0874 -16.1188 
-1.1011 48.3059 -16.1188 7.77043 47.0981 -16.1188 23.407 41.6503 -16.1188 
16.642 45.0911 -16.1188 25.5135 41.6503 -15.0117 -18.8442 50.5219 -7.4734 
-9.97264 50.5219 -12.0173 -1.1011 50.5219 -12.9745 7.77043 50.5219 -11.5592 
16.642 50.5219 -8.05859 -27.7157 -50.3624 -7.24728 -18.8442 -53.3517 -7.24728 
-9.97264 -55.1152 -7.24728 -1.1011 -55.447 -7.24728 7.77043 -53.719 -7.24728 
16.642 -49.3148 -7.24728 -34.256 -47.065 -7.24728 -36.5872 -45.6987 -7.24728 
20.056 -47.065 -7.24728 25.5135 -43.5521 -7.24728 34.385 -39.3477 -7.24728 
-44.782 -38.1935 -7.24728 -45.4588 -37.3844 -7.24728 37.7947 -38.1935 -7.24728 
43.2566 -35.9513 -7.24728 52.1281 -29.7887 -7.24728 -51.2802 -29.3219 -7.24728 
-54.3303 -24.5464 -7.24728 52.6754 -29.3219 -7.24728 -56.7665 -20.4504 -7.24728 
59.9136 -20.4504 -7.24728 60.9996 -17.5744 -7.24728 60.9996 -20.4504 -2.93035 
-60.9564 -11.5789 -7.24728 62.8875 -11.5789 -7.24728 -62.9458 -2.70732 -7.24728 
-63.2018 1.28851 -7.24728 63.824 -2.70732 -7.24728 -63.5095 6.16421 -7.24728 
-63.2018 8.34043 -7.24728 -63.2018 6.16421 -5.25944 62.999 6.16421 -7.24728 
60.9996 10.9628 -7.24728 -62.2103 15.0357 -7.24728 59.0434 15.0357 -7.24728 
60.9996 15.0357 -3.27402 -58.956 23.9073 -7.24728 -54.3303 30.9962 -7.24728 
52.5087 23.9073 -7.24728 52.1281 24.3542 -7.24728 -52.8977 32.7788 -7.24728 
-45.4588 39.4667 -7.24728 34.385 41.579 -7.24728 43.908 32.7788 -7.24728 
43.2566 33.4167 -7.24728 -41.8678 41.6503 -7.24728 -36.5872 44.4123 -7.24728 
-27.7157 48.1085 -7.24728 34.2954 41.6503 -7.24728 25.5135 47.6826 -7.24728 
34.385 41.6503 -7.04215 -19.0921 50.5219 -7.24728 -18.8442 50.5903 -7.24728 
-18.8442 50.5219 -6.63573 -9.97264 52.2513 -7.24728 -1.1011 52.7691 -7.24728 
7.77043 52.3883 -7.24728 17.8296 50.5219 -7.24728 16.642 50.91 -7.24728 
-27.7157 -49.4994 1.62425 -18.8442 -52.7567 1.62425 -9.97264 -54.7301 1.62425 
-1.1011 -55.6608 1.62425 7.77043 -54.1821 1.62425 16.642 -49.4046 1.62425 
-32.3137 -47.065 1.62425 -36.5872 -44.5253 1.62425 -27.7157 -47.065 6.92383 
20.019 -47.065 1.62425 16.642 -47.065 10.4013 25.5135 -43.3614 1.62425 
34.385 -39.5645 1.62425 -43.9035 -38.1935 1.62425 -45.4588 -36.4961 1.62425 
37.3833 -38.1935 1.62425 34.385 -38.1935 7.06386 43.2566 -35.7348 1.62425 
52.1281 -30.7979 1.62425 -51.0183 -29.3219 1.62425 -54.3303 -23.9659 1.62425 
53.9653 -29.3219 1.62425 52.1281 -29.3219 7.36873 60.9996 -21.773 1.62425 
-56.3649 -20.4504 1.62425 -54.3303 -20.4504 6.58493 61.9132 -20.4504 1.62425 
60.9996 -20.4504 5.10621 -60.1964 -11.5789 1.62425 65.2421 -11.5789 1.62425 
-62.1782 -2.70732 1.62425 66.5499 -2.70732 1.62425 -62.149 6.16421 1.62425 
66.0562 6.16421 1.62425 -61.0379 15.0357 1.62425 62.8423 15.0357 1.62425 
60.9996 18.1757 1.62425 -57.9358 23.9073 1.62425 -54.3303 29.713 1.62425 
-54.3303 23.9073 10.3088 57.1017 23.9073 1.62425 52.1281 29.4399 1.62425 
-51.8514 32.7788 1.62425 -45.4588 38.5864 1.62425 48.7311 32.7788 1.62425 
43.2566 37.695 1.62425 -40.16 41.6503 1.62425 -36.5872 43.4744 1.62425 
-36.5872 41.6503 6.92486 -27.7157 46.9821 1.62425 -18.8442 49.5609 1.62425 
25.5135 48.7178 1.62425 37.9255 41.6503 1.62425 34.385 44.0445 1.62425 
-14.3139 50.5219 1.62425 -9.97264 51.4153 1.62425 -9.97264 50.5219 4.85205 
-1.1011 52.3551 1.62425 -1.1011 50.5219 10.0374 7.77043 52.2131 1.62425 
7.77043 50.5219 8.19093 18.7778 50.5219 1.62425 16.642 51.0509 1.62425 
16.642 50.5219 3.72625 -18.8442 -48.3966 10.4958 -9.97264 -50.7151 10.4958 
-1.1011 -52.2178 10.4958 7.77043 -50.9845 10.4958 -36.5872 -39.6862 10.4958 
-22.5032 -47.065 10.4958 -27.7157 -44.8753 10.4958 -18.8442 -47.065 11.9695 
-9.97264 -47.065 14.409 -1.1011 -47.065 15.8063 16.5833 -47.065 10.4958 
7.77043 -47.065 14.834 16.642 -47.0347 10.4958 25.5135 -41.1415 10.4958 
-38.395 -38.1935 10.4958 -45.4588 -31.0435 10.4958 -36.5872 -38.1935 12.055 
-27.7157 -38.1935 16.3829 -18.8442 -38.1935 18.4693 16.642 -38.1935 17.934 
32.2946 -38.1935 10.4958 25.5135 -38.1935 14.4616 34.385 -37.2532 10.4958 
43.2566 -34.3532 10.4958 -46.8502 -29.3219 10.4958 -45.4588 -29.3219 12.1075 
-36.5872 -29.3219 18.1741 50.8297 -29.3219 10.4958 43.2566 -29.3219 16.1194 
52.1281 -28.2451 10.4958 -52.3701 -20.4504 10.4958 -54.3303 -16.6609 10.4958 
-45.4588 -20.4504 17.2444 59.1495 -20.4504 10.4958 52.1281 -20.4504 16.8996 
60.9996 -16.8474 10.4958 -56.5099 -11.5789 10.4958 -54.3303 -11.5789 13.4007 
63.0951 -11.5789 10.4958 60.9996 -11.5789 13.3289 -58.1069 -2.70732 10.4958 
-54.3303 -2.70732 14.857 64.7853 -2.70732 10.4958 60.9996 -2.70732 15.8505 
-57.9444 6.16421 10.4958 -54.3303 6.16421 14.6529 64.7377 6.16421 10.4958 
60.9996 6.16421 15.8016 -56.913 15.0357 10.4958 -54.3303 23.6164 10.4958 
-54.3303 15.0357 13.6233 61.8382 15.0357 10.4958 60.9996 16.6009 10.4958 
60.9996 15.0357 11.8877 -54.2194 23.9073 10.4958 -45.4588 23.9073 17.9006 
56.6234 23.9073 10.4958 52.1281 29.0469 10.4958 52.1281 23.9073 16.4583 
-47.5552 32.7788 10.4958 -45.4588 34.7771 10.4958 -45.4588 32.7788 12.8652 
-36.5872 40.255 10.4958 -36.5872 32.7788 18.546 48.3385 32.7788 10.4958 
43.2566 37.0197 10.4958 43.2566 32.7788 16.4224 -33.7725 41.6503 10.4958 
-27.7157 44.2264 10.4958 -27.7157 41.6503 14.3159 -18.8442 46.6756 10.4958 
-18.8442 41.6503 17.5083 -9.97264 48.8236 10.4958 -9.97264 41.6503 19.3128 
-1.1011 50.4066 10.4958 7.77043 49.8598 10.4958 16.642 48.6425 10.4958 
25.5135 46.6197 10.4958 25.5135 41.6503 16.9491 36.5271 41.6503 10.4958 
[...]
POINT_DATA 520
SCALARS ImageScalars float
LOOKUP_TABLE default
0 0 0 0 0 0 0 0 0 
0 0 0 0 0 0 0 0 0 
0 0 0 0 0 0 0 0 0 
0 0 0 0 0 0 0 0 0 
0 0 0 0 0 0 0 0 0 
0 0 0 0 0 0 0 0 0 
0 0 0 0 0 0 0 0 0 
0 0 0 0 0 0 0 0 0 
0 0 0 0 0 0 0 0 0 
0 0 0 0 0 0 0 0 0 
0 0 0 0 0 0 0 0 0 
0 0 0 0 0 0 0 0 0 
0 0 0 0 0 0 0 0 0 
0 0 0 0 0 0 0 0 0 
0 0 0 0 0 0 0 0 0 
0 0 0 0 0 0 0 0 0 
0 0 0 0 0 0 0 0 0 
0 0 0 0 0 0 0 0 0 
0 0 0 0 0 0 0 0 0 
0 0 0 0 0 0 0 0 0 
0 0 0 0 0 0 0 0 0 
0 0 0 0 0 0 0 0 0 
0 0 0 0 0 0 0 0 0 
0 0 0 0 0 0 0 0 0 
0 0 0 0 0 0 0 0 0 
0 0 0 0 0 0 0 0 0 
0 0 0 0 0 0 0 0 0 
0 0 0 0 0 0 0 0 0 
0 0 0 0 0 0 0 0 0 
0 0 0 0 0 0 0 0 0 
0 0 0 0 0 0 0 0 0 
0 0 0 0 0 0 0 0 0 
0 0 0 0 0 0 0 0 0 
0 0 0 0 0 0 0 0 0 
0 0 0 0 0 0 0 0 0 
0 0 0 0 0 0 0 0 0 
0 0 0 0 0 0 0 0 0 
0 0 0 0 0 0 0 0 0 
0 0 0 0 0 0 0 0 0 
0 0 0 0 0 0 0 0 0 
0 0 0 0 0 0 0 0 0 
0 0 0 0 0 0 0 0 0 
0 0 0 0 0 0 0 0 0 
0 0 0 0 0 0 0 0 0 
0 0 0 0 0 0 0 0 0 
0 0 0 0 0 0 0 0 0 
0 0 0 0 0 0 0 0 0 
0 0 0 0 0 0 0 0 0 
0 0 0 0 0 0 0 0 0 
0 0 0 0 0 0 0 0 0 
0 0 0 0 0 0 0 0 0 
0 0 0 0 0 0 0 0 0 
0 0 0 0 0 0 0 0 0 
0 0 0 0 0 0 0 0 0 
0 0 0 0 0 0 0 0 0 
0 0 0 0 0 0 0 0 0 
0 0 0 0 0 0 0 0 0 
0 0 0 0 0 0 0 
NORMALS Normals float
-0.148162 -0.637307 -0.756233 -0.0265056 -0.554509 -0.831756 0.0390426 -0.539373 -0.841161 
0.200695 -0.624911 -0.754458 -0.487414 -0.477712 -0.730903 -0.207431 -0.313918 -0.926514 
-0.0927727 -0.240971 -0.966088 0.0126863 -0.20857 -0.977925 0.0438133 -0.190339 -0.98074 
0.0925229 -0.19624 -0.976181 0.228437 -0.370719 -0.900213 0.345255 -0.609673 -0.713511 
-0.306257 -0.168327 -0.936949 -0.158965 -0.0964956 -0.982557 -0.0363422 -0.0177926 -0.999181 
0.0377266 -0.0257848 -0.998955 0.0314249 0.00542664 -0.999491 0.0199366 -0.0284382 -0.999397 
0.0379913 -0.0868469 -0.995497 0.153045 -0.222039 -0.962952 0.259505 -0.388904 -0.883974 
-0.386967 -0.280614 -0.878358 -0.157878 -0.105002 -0.98186 -0.0627037 0.0163314 -0.997899 
-0.0156284 0.0912002 -0.99571 0.0405119 -0.0341562 -0.998595 0.041624 -0.0627701 -0.99716 
-0.0050957 -0.0494951 -0.998761 0.00318179 0.0287928 -0.99958 0.018813 0.011521 -0.999757 
0.11312 -0.121916 -0.986073 0.302424 -0.198003 -0.932381 -0.600031 -0.291869 -0.744833 
-0.208976 -0.17174 -0.962722 -0.0364895 -0.106087 -0.993687 0.0325175 -0.020188 -0.999267 
-0.0857194 0.0304168 -0.995855 -0.120746 -0.147596 -0.981649 0.00937288 -0.00188277 -0.999954 
0.120113 -0.149126 -0.981496 0.100481 -0.0796555 -0.991745 0.00669464 0.00320046 -0.999972 
0.0545583 -0.0240241 -0.998222 0.212335 -0.0711481 -0.974603 0.44173 -0.118807 -0.889246 
-0.529474 -0.14206 -0.836347 -0.182332 -0.134711 -0.973965 0.00435004 -0.112144 -0.993682 
0.0759867 -0.0782444 -0.994034 -0.14272 -0.0316404 -0.989257 -0.00615984 -0.0432131 -0.999047 
0.0612633 0.0959315 -0.993501 -0.102164 0.0275516 -0.994386 0.163714 -0.0669076 -0.984236 
0.0750737 -0.0429509 -0.996253 0.0396771 -0.0242352 -0.998919 0.204332 -0.0167323 -0.978759 
0.429985 -0.0357678 -0.902127 -0.502061 -0.0120765 -0.864748 -0.174362 -0.00993214 -0.984632 
0.019165 -0.0302876 -0.999357 0.114745 -0.0375035 -0.992687 -0.0338446 -0.0302038 -0.998971 
-0.0162025 0.150409 -0.988491 0.0679872 -0.0651889 -0.995554 -0.0248957 0.203639 -0.97873 
0.0413333 0.164776 -0.985465 0.0392164 0.0469888 -0.998125 0.0793704 0.0685112 -0.994488 
0.208737 0.124206 -0.970053 0.444414 0.15463 -0.882375 -0.547474 0.181602 -0.81688 
-0.211447 0.121728 -0.96978 -0.0218868 0.0195331 -0.99957 0.0769369 -0.0244357 -0.996736 
0.040761 -0.0688711 -0.996792 -0.0107626 0.0620608 -0.998014 0.101086 -0.0020148 -0.994876 
0.113964 0.0576171 -0.991813 -0.0044069 0.0786011 -0.996896 -0.00773708 0.0931795 -0.995619 
0.114795 0.155104 -0.981206 0.300757 0.250106 -0.920322 -0.645883 0.419227 -0.638031 
-0.337163 0.23345 -0.912043 -0.12985 0.153648 -0.979557 0.0258008 0.0116181 -0.9996 
0.0489156 -0.0275981 -0.998422 0.059631 -0.0243696 -0.997923 0.062969 0.00725759 -0.997989 
0.0647242 -0.0547155 -0.996402 0.0706683 -0.0280662 -0.997105 0.112249 0.0861459 -0.989939 
0.24175 0.250247 -0.937514 -0.484191 0.531717 -0.694865 -0.239926 0.372883 -0.896322 
-0.107369 0.205921 -0.97266 0.000865058 0.146946 -0.989144 0.0234956 0.100205 -0.994689 
0.0698427 0.083325 -0.994072 0.0820983 0.0972221 -0.991871 0.129217 0.119051 -0.984444 
0.283229 0.237512 -0.929177 -0.233582 0.616461 -0.751941 -0.071017 0.474064 -0.877622 
-0.00283096 0.412487 -0.910959 0.0535156 0.372621 -0.926439 0.0953808 0.377075 -0.921258 
0.196439 0.445596 -0.873416 -0.169072 -0.705051 -0.688707 -0.0589142 -0.665752 -0.743844 
0.0643509 -0.654659 -0.753181 0.220382 -0.677126 -0.702091 -0.501394 -0.537678 -0.67787 
-0.272888 -0.69433 -0.665912 -0.325209 -0.659735 -0.677487 -0.360028 -0.757155 -0.545066 
0.285018 -0.678126 -0.677429 0.365871 -0.63409 -0.681225 0.46355 -0.783062 -0.414652 
0.366531 -0.640424 -0.674916 -0.529145 -0.501692 -0.684333 0.359161 -0.645052 -0.674471 
0.331421 -0.591031 -0.73542 0.372166 -0.86669 -0.332177 -0.560236 -0.36687 -0.742659 
-0.559212 -0.370727 -0.741515 -0.586444 -0.387028 -0.711542 0.421978 -0.498486 -0.757262 
0.423399 -0.494146 -0.759311 0.426849 -0.503593 -0.751129 0.619785 -0.700327 -0.354132 
-0.524734 -0.36874 -0.767259 -0.627075 -0.329625 -0.705779 -0.763627 -0.454691 -0.458399 
0.433032 -0.294615 -0.851872 0.456779 -0.226215 -0.860337 0.484585 -0.328101 -0.81088 
-0.661164 -0.29133 -0.691368 0.487163 -0.115285 -0.865669 0.805928 -0.169264 -0.5673 
-0.703041 -0.140511 -0.69713 0.514162 -0.031439 -0.857116 0.778385 -0.0072196 -0.627745 
-0.747384 -0.0023788 -0.664389 -0.987524 0.0378526 -0.152854 0.527633 0.162662 -0.833753 
0.477035 0.283585 -0.831876 0.781831 0.215134 -0.585199 -0.740132 0.192669 -0.64427 
0.426115 0.340566 -0.838118 0.414013 0.371748 -0.830901 0.520706 0.397191 -0.755715 
-0.656685 0.421838 -0.625154 -0.652606 0.430403 -0.623585 0.405384 0.38064 -0.83113 
0.401249 0.405503 -0.82132 0.458674 0.423406 -0.781246 0.647757 0.547434 -0.529836 
-0.561858 0.558523 -0.61022 -0.517902 0.588974 -0.620393 -0.386728 0.693777 -0.607549 
0.411312 0.401912 -0.818101 0.405876 0.458733 -0.790461 0.441921 0.443884 -0.779533 
0.610851 0.601459 -0.514887 -0.37181 0.714776 -0.592327 -0.414824 0.769481 -0.485613 
-0.282898 0.738263 -0.61232 -0.170254 0.747028 -0.642622 -0.0601337 0.730902 -0.679828 
0.0335629 0.705597 -0.707818 0.120697 0.642186 -0.756987 0.375372 0.507486 -0.775599 
0.228889 0.598242 -0.76793 0.440368 0.5447 -0.713707 -0.227592 0.968088 -0.104915 
-0.105743 0.919076 -0.379627 0.015493 0.884601 -0.466091 0.125936 0.899754 -0.417831 
0.239854 0.932328 -0.270619 -0.385048 -0.911026 -0.147543 -0.244955 -0.95268 -0.179994 
-0.121767 -0.973248 -0.194834 0.073599 -0.968533 -0.237755 0.303763 -0.919697 -0.248768 
0.503299 -0.842443 -0.192303 -0.508294 -0.847942 -0.150438 -0.561797 -0.811866 -0.158928 
0.517979 -0.836411 -0.179206 0.494817 -0.851237 -0.174792 0.368491 -0.906043 -0.208089 
-0.733238 -0.650828 -0.196937 -0.743485 -0.637565 -0.201845 0.395517 -0.895223 -0.205286 
0.465399 -0.852873 -0.236665 0.617339 -0.717088 -0.323539 -0.82498 -0.518765 -0.224254 
-0.849617 -0.480484 -0.217455 0.63087 -0.703512 -0.327221 -0.862658 -0.461951 -0.205966 
0.820634 -0.439975 -0.364666 0.845614 -0.360113 -0.394026 0.863981 -0.476388 -0.163068 
-0.928387 -0.326497 -0.177474 0.863076 -0.196281 -0.465375 -0.98028 -0.124915 -0.153123 
-0.989451 -0.0511789 -0.135524 0.875168 -0.00623982 -0.483779 -0.992376 0.0371701 -0.117512 
-0.989312 0.0849985 -0.118475 -0.998563 0.0440645 -0.030495 0.836248 0.228025 -0.498693 
0.802946 0.338602 -0.490537 -0.963239 0.236615 -0.127217 0.758858 0.42857 -0.490369 
0.839984 0.442561 -0.313955 -0.888914 0.43929 -0.129835 -0.783061 0.603651 -0.149736 
0.654532 0.550506 -0.5182 0.651554 0.555383 -0.516746 -0.746629 0.648528 -0.148179 
-0.593568 0.79082 -0.149269 0.566599 0.717555 -0.405069 0.618612 0.611802 -0.492968 
0.617745 0.616031 -0.48877 -0.517885 0.845222 -0.131887 -0.418272 0.90124 -0.113207 
-0.314365 0.943235 -0.107157 0.565914 0.718798 -0.403821 0.4318 0.845757 -0.313437 
0.566489 0.722481 -0.396374 -0.22992 0.968664 -0.0939551 -0.227555 0.969205 -0.094128 
-0.229515 0.970459 -0.0743753 -0.122821 0.984783 -0.122949 -0.00768344 0.987421 -0.157927 
0.0990835 0.976641 -0.19067 0.25813 0.936192 -0.238566 0.235895 0.943987 -0.230742 
-0.387773 -0.888473 0.245454 -0.28088 -0.930997 0.233131 -0.16098 -0.963373 0.21447 
0.0282793 -0.988755 0.146848 0.316649 -0.940096 0.126304 0.53141 -0.840408 0.106386 
-0.480541 -0.839498 0.253623 -0.565316 -0.783387 0.258307 -0.387114 -0.817505 0.426414 
0.532754 -0.838989 0.110777 0.468399 -0.771953 0.429757 0.493863 -0.861362 0.118973 
0.397295 -0.912263 0.0996637 -0.700987 -0.677282 0.223397 -0.730965 -0.648217 0.213316 
0.39632 -0.913561 0.0913042 0.351414 -0.89572 0.272386 0.410648 -0.90937 0.0664415 
0.595681 -0.801138 0.057807 -0.813499 -0.551357 0.185001 -0.852259 -0.488338 0.187566 
0.649536 -0.758379 0.0544418 0.606004 -0.749343 0.266917 0.850636 -0.524916 0.0297007 
-0.870795 -0.452456 0.192353 -0.82148 -0.443315 0.358667 0.868575 -0.494881 0.0258701 
0.846483 -0.501923 0.177594 -0.926372 -0.304086 0.222186 0.970156 -0.242391 -0.00668061 
-0.964171 -0.107371 0.242583 0.99804 -0.0439807 -0.0445245 -0.957336 0.0612741 0.282405 
0.975634 0.205418 -0.077078 -0.93279 0.238963 0.269815 0.894716 0.431292 -0.116063 
0.855264 0.502747 -0.125573 -0.876223 0.423373 0.230191 -0.796184 0.564749 0.217138 
-0.770465 0.391604 0.503022 0.773662 0.613945 -0.156585 0.710373 0.687763 -0.149506 
-0.72896 0.651374 0.210546 -0.581893 0.788221 0.200273 0.679128 0.719686 -0.144353 
0.628164 0.76979 -0.113284 -0.468101 0.861676 0.19595 -0.408584 0.891961 0.193558 
-0.420477 0.847282 0.324518 -0.31128 0.928528 0.202336 -0.244558 0.948961 0.199157 
0.359937 0.931525 0.0520193 0.560465 0.82536 -0.0682554 0.520934 0.852545 -0.0423617 
-0.198528 0.961902 0.187967 -0.151718 0.972295 0.177829 -0.166303 0.953425 0.251644 
-0.0434303 0.990528 0.130258 -0.0520148 0.927433 0.370354 0.0710372 0.988633 0.132509 
0.0841731 0.942134 0.324497 0.227215 0.968718 0.0997951 0.186896 0.975732 0.114089 
0.180432 0.967225 0.178664 -0.26157 -0.764634 0.588995 -0.178704 -0.791582 0.584348 
-0.0119205 -0.829109 0.55896 0.255761 -0.812158 0.524391 -0.498167 -0.65746 0.56531 
-0.303918 -0.755416 0.5805 -0.358542 -0.734013 0.576777 -0.251435 -0.724964 0.641255 
-0.166275 -0.673279 0.72045 -0.0194608 -0.601614 0.79855 0.466042 -0.770877 0.434229 
0.21721 -0.665583 0.714016 0.467038 -0.770471 0.433877 0.427774 -0.809017 0.403113 
-0.527558 -0.640782 0.557746 -0.65562 -0.54984 0.517532 -0.482254 -0.627447 0.611344 
-0.277225 -0.540775 0.794172 -0.155603 -0.445281 0.881767 0.229241 -0.452315 0.861893 
0.33749 -0.856183 0.391217 0.33313 -0.732942 0.593144 0.318161 -0.861241 0.39628 
0.41185 -0.825742 0.385395 -0.675248 -0.527856 0.515177 -0.639149 -0.5174 0.569021 
-0.360244 -0.409075 0.838381 0.56784 -0.720221 0.398548 0.375452 -0.618642 0.690158 
0.593959 -0.696338 0.402896 -0.748496 -0.418319 0.514551 -0.785719 -0.354302 0.507065 
-0.52629 -0.33429 0.781837 0.752694 -0.489998 0.439721 0.49944 -0.407385 0.76459 
0.808577 -0.399369 0.432096 -0.816004 -0.258329 0.517111 -0.752845 -0.240108 0.61284 
0.856415 -0.269224 0.440535 0.777151 -0.263341 0.571566 -0.819808 -0.0738155 0.567861 
-0.699715 -0.0472981 0.712855 0.906632 -0.0851703 0.413237 0.732305 -0.0946537 0.674367 
-0.811498 0.0574527 0.581523 -0.699646 0.0493898 0.71278 0.91528 0.152588 0.372801 
0.773457 0.125422 0.621317 -0.80148 0.188603 0.567501 -0.768648 0.383748 0.511779 
-0.728551 0.162248 0.665499 0.864615 0.386908 0.320535 0.850507 0.42318 0.312342 
0.839672 0.38069 0.387332 -0.766205 0.389977 0.510732 -0.490183 0.305005 0.816512 
0.766671 0.576847 0.281891 0.702563 0.662237 0.260475 0.639161 0.48573 0.596271 
-0.635677 0.603007 0.481973 -0.58953 0.651604 0.477354 -0.588618 0.584865 0.558088 
-0.419382 0.793505 0.440985 -0.318923 0.468842 0.823696 0.642653 0.721728 0.257111 
0.574608 0.769686 0.278226 0.504853 0.650323 0.56763 -0.383182 0.817613 0.429745 
-0.30482 0.847564 0.434419 -0.292569 0.753344 0.588962 -0.241303 0.870929 0.428084 
-0.198192 0.637685 0.744364 -0.18681 0.891928 0.411785 -0.112948 0.544813 0.830916 
-0.0523431 0.921092 0.385811 0.0872906 0.910062 0.405177 0.161176 0.89514 0.415628 
0.296931 0.873265 0.386317 0.253829 0.66337 0.703926 0.475458 0.823167 0.310379 
0.443354 0.835587 0.324394 0.424183 0.80531 0.414179 -0.0940784 -0.373096 0.923011 
-0.00757699 -0.319106 0.947689 0.12243 -0.337853 0.933202 -0.20401 -0.381488 0.90158 
-0.104901 -0.377267 0.920144 -0.127404 -0.387303 0.913107 -0.0884301 -0.355494 0.930486 
-0.00299974 -0.255672 0.966759 0.135347 -0.338125 0.931318 0.114085 -0.310475 0.943711 
0.126433 -0.331033 0.935111 0.128175 -0.435103 0.891211 0.211422 -0.512385 0.832324 
-0.272906 -0.362724 0.891041 -0.322691 -0.336994 0.88448 -0.175891 -0.312722 0.933417 
-0.0604637 -0.245025 0.967629 0.0309377 -0.165358 0.985748 0.0311953 -0.103707 0.994119 
0.0179248 -0.0779046 0.9968 0.0296067 -0.215525 0.976049 0.0723214 -0.334429 0.939642 
0.213759 -0.51077 0.832719 0.209912 -0.508835 0.83488 0.315496 -0.375032 0.871673 
-0.394492 -0.272382 0.877601 -0.427622 -0.209106 0.87944 -0.280665 -0.22258 0.933641 
-0.0965138 -0.150371 0.983907 0.0033221 -0.0787972 0.996885 0.0668367 -0.108098 0.991891 
0.0882959 -0.145204 0.985454 -0.0093287 -0.0887713 0.996008 -0.0629906 -0.0677639 0.995711 
-0.0341485 -0.107152 0.993656 0.0846254 -0.193414 0.977461 0.358815 -0.312679 0.879479 
0.285325 -0.27159 0.919145 0.406944 -0.247861 0.879182 -0.44279 -0.164014 0.881496 
-0.390615 -0.155272 0.907365 -0.176546 -0.0881437 0.980338 -0.0398659 -0.0302466 0.998747 
-0.0169402 0.00729031 0.99983 -0.0325907 -0.0383861 0.998731 0.0394775 -0.00650701 0.999199 
0.098595 -0.202266 0.974355 0.0110849 -0.0224206 0.999687 -0.0708256 0.00239838 0.997486 
0.0174146 -0.0569134 0.998227 0.172471 -0.150938 0.973381 0.424037 -0.219295 0.878694 
0.393149 -0.21321 0.894413 -0.450879 -0.0160301 0.892441 -0.381116 -0.014024 0.924421 
-0.150787 -0.0164233 0.98843 -0.000502179 0.0136066 0.999907 -0.00461339 0.0238302 0.999705 
0.0531102 -0.0259304 0.998252 -0.0698463 -0.0405579 0.996733 -0.0399387 -0.159078 0.986458 
0.146411 -0.0700314 0.986742 -0.06245 -0.0158298 0.997923 -0.0652378 -0.0480049 0.996714 
0.130643 -0.104432 0.985914 0.483055 -0.106705 0.869064 0.343481 -0.102206 0.933582 
-0.439596 0.026151 0.897815 -0.378256 0.0264287 0.925324 -0.145296 0.0389558 0.988621 
-0.00045011 0.0203866 0.999792 -0.0552429 0.00707353 0.998448 -0.107482 0.026353 0.993858 
-0.100031 -0.126737 0.98688 0.0781531 0.0379343 0.996219 0.16473 -0.0391974 0.98556 
-0.0524136 -0.091827 0.994395 -0.072335 -0.0367404 0.996703 0.128775 -0.0137147 0.991579 
0.54144 0.0776755 0.837144 0.361507 0.0325207 0.931802 -0.434426 0.123008 0.892269 
-0.42169 0.188437 0.886944 -0.386011 0.116652 0.915089 -0.16302 0.0607424 0.984751 
-0.0327356 0.0148071 0.999354 0.00225426 -0.0105443 0.999942 -0.0711292 0.0735409 0.994752 
-0.0612027 0.0768961 0.995159 0.0491445 0.142743 0.988539 0.00899735 -0.0191593 0.999776 
-0.0544771 -0.0629557 0.996528 0.0135362 0.0407858 0.999076 0.193038 0.122763 0.973481 
0.517334 0.260961 0.815025 0.512516 0.31486 0.798868 0.465919 0.241844 0.851135 
-0.390095 0.257388 0.884069 -0.297664 0.392396 0.8703 -0.242619 0.193885 0.95055 
-0.0715096 0.11388 0.990918 0.00195141 0.0613998 0.998111 -0.0197799 0.0132582 0.999716 
-0.0261614 0.064358 0.997584 -0.0164947 0.0670187 0.997615 -0.0440044 0.0434841 0.998085 
0.00740783 0.105463 0.994396 0.105408 0.169001 0.979963 0.493054 0.38495 0.780199 
0.41751 0.49437 0.76242 0.30322 0.294592 0.906241 -0.264703 0.429246 0.863527 
-0.199066 0.467048 0.861533 -0.168715 0.377706 0.910425 -0.161513 0.476215 0.864369 
-0.10253 0.255651 0.961317 -0.112298 0.539355 0.834557 -0.0726434 0.175682 0.981763 
-0.00639817 0.145232 0.989377 0.0276775 0.160375 0.986668 0.0469779 0.215577 0.975356 
0.179613 0.505358 0.844009 0.0770945 0.325555 0.942375 0.353943 0.5347 0.767346 
0.282571 0.545973 0.788712 0.233256 0.442822 0.865737 -0.10803 0.54238 0.833159 
-0.0304809 0.55913 0.82852 -0.0306167 0.516675 0.855634 0.0336809 0.555507 0.83083 
0.0331206 0.524056 0.851039 0.132291 0.550254 0.824451 0.119776 0.553075 0.824476 
0.119785 0.541336 0.83223 
