# vtk DataFile Version 4.2
vtk output
ASCII
DATASET POLYDATA
POINTS 512 float
-26.1304 -30.4007 -14.4446 -18.5473 -30.4007 -14.8486 -10.9642 -30.4007 -13.7821 
-26.1304 -22.8177 -15.4299 -18.5473 -22.8177 -16.1723 -10.9642 -22.8177 -14.4037 
4.20189 -22.8177 -13.5913 11.785 -22.8177 -14.3159 19.368 -22.8177 -14.5697 
26.9511 -22.8177 -15.1583 34.5342 -22.8177 -13.5327 -33.7135 -15.2346 -14.9857 
-26.1304 -15.2346 -15.6492 -18.5473 -15.2346 -15.7848 -10.9642 -15.2346 -15.0303 
-3.38118 -15.2346 -14.0828 4.20189 -15.2346 -15.8643 11.785 -15.2346 -15.3474 
19.368 -15.2346 -14.3571 26.9511 -15.2346 -14.815 34.5342 -15.2346 -14.903 
42.1172 -15.2346 -14.6485 -41.2965 -7.65151 -14.6743 -33.7135 -7.65151 -15.4203 
-26.1304 -7.65151 -15.2221 -18.5473 -7.65151 -14.2182 -10.9642 -7.65151 -16.6471 
-3.38118 -7.65151 -17.6685 4.20189 -7.65151 -18.7581 11.785 -7.65151 -18.2816 
19.368 -7.65151 -14.3745 26.9511 -7.65151 -15.1974 34.5342 -7.65151 -15.2506 
42.1172 -7.65151 -14.785 -48.8796 -0.0684396 -13.6811 -41.2965 -0.0684396 -16.6559 
-33.7135 -0.0684396 -16.7229 -26.1304 -0.0684396 -16.0154 -18.5473 -0.0684396 -14.7287 
-10.9642 -0.0684396 -19.405 -3.38118 -0.0684396 -16.5653 4.20189 -0.0684396 -15.3264 
11.785 -0.0684396 -19.4666 19.368 -0.0684396 -14.7846 26.9511 -0.0684396 -15.4704 
34.5342 -0.0684396 -16.0962 42.1172 -0.0684396 -15.7982 49.7003 -0.0684396 -14.6117 
-48.8796 7.51463 -13.99 -41.2965 7.51463 -16.9588 -33.7135 7.51463 -17.5574 
-26.1304 7.51463 -17.1511 -18.5473 7.51463 -16.283 -10.9642 7.51463 -16.8043 
-3.38118 7.51463 -17.3885 4.20189 7.51463 -18.351 11.785 7.51463 -16.5286 
19.368 7.51463 -15.2657 26.9511 7.51463 -16.0649 34.5342 7.51463 -16.5244 
42.1172 7.51463 -16.0663 49.7003 7.51463 -14.9376 -41.2965 15.0977 -15.4708 
-33.7135 15.0977 -17.3845 -26.1304 15.0977 -17.77 -18.5473 15.0977 -17.3305 
-10.9642 15.0977 -16.4503 -3.38118 15.0977 -16.0026 4.20189 15.0977 -17.518 
11.785 15.0977 -16.2519 19.368 15.0977 -16.0071 26.9511 15.0977 -16.5249 
34.5342 15.0977 -16.3257 42.1172 15.0977 -14.7559 -33.7135 22.6808 -16.3952 
-26.1304 22.6808 -18.0794 -18.5473 22.6808 -17.9416 -10.9642 22.6808 -17.5242 
-3.38118 22.6808 -16.7162 4.20189 22.6808 -17.0027 11.785 22.6808 -16.8819 
19.368 22.6808 -16.6203 26.9511 22.6808 -15.5248 34.5342 22.6808 -14.3722 
-26.1304 30.2638 -15.8783 -18.5473 30.2638 -16.9335 -10.9642 30.2638 -16.8015 
-3.38118 30.2638 -16.5458 4.20189 30.2638 -16.4795 11.785 30.2638 -16.2708 
19.368 30.2638 -15.7477 26.9511 30.2638 -13.7319 -26.1304 -33.6026 -13.2612 
-26.1304 -37.9838 -11.2774 -18.5473 -35.5884 -13.2612 -18.5473 -37.9838 -12.3144 
-10.9642 -32.3268 -13.2612 -10.9642 -37.9838 -11.256 -3.38118 -37.9838 -10.2525 
4.20189 -37.9838 -9.19999 11.785 -37.9838 -8.2517 19.368 -37.9838 -7.92948 
26.9511 -37.9838 -5.79573 -29.3654 -30.4007 -13.2612 -33.7135 -30.4007 -10.834 
-6.9462 -30.4007 -13.2612 -3.38118 -30.4007 -12.7734 4.20189 -26.1678 -13.2612 
4.20189 -30.4007 -12.8075 11.785 -29.1503 -13.2612 11.785 -30.4007 -13.0307 
19.368 -29.0843 -13.2612 19.368 -30.4007 -12.9773 26.9511 -28.0827 -13.2612 
26.9511 -30.4007 -12.3483 34.5342 -24.1068 -13.2612 34.5342 -30.4007 -11.7118 
42.1172 -30.4007 -8.66773 -33.0787 -22.8177 -13.2612 -33.7135 -21.9741 -13.2612 
-33.7135 -22.8177 -13.0061 -4.39015 -22.8177 -13.2612 -0.736902 -22.8177 -13.2612 
-3.38118 -21.2013 -13.2612 -3.38118 -22.8177 -13.0842 35.9237 -22.8177 -13.2612 
42.1172 -19.623 -13.2612 42.1172 -22.8177 -12.1081 49.7003 -22.8177 -7.7983 
-38.6382 -15.2346 -13.2612 -41.2965 -12.2352 -13.2612 -41.2965 -15.2346 -11.9213 
45.4768 -15.2346 -13.2612 49.7003 -15.2346 -11.0401 -44.7937 -7.65151 -13.2612 
-48.8796 -1.65211 -13.2612 -48.8796 -7.65151 -10.9099 49.0902 -7.65151 -13.2612 
49.7003 -6.83777 -13.2612 49.7003 -7.65151 -13.1258 57.2834 -7.65151 -8.45476 
-49.7424 -0.0684396 -13.2612 -56.4627 -0.0684396 -6.78504 52.8601 -0.0684396 -13.2612 
57.2834 -0.0684396 -9.68049 -50.1023 7.51463 -13.2612 -48.8796 9.82001 -13.2612 
52.5437 7.51463 -13.2612 49.7003 11.0949 -13.2612 57.2834 7.51463 -8.99067 
-45.3709 15.0977 -13.2612 -48.8796 15.0977 -10.185 -41.2965 20.6967 -13.2612 
45.9316 15.0977 -13.2612 42.1172 20.5162 -13.2612 49.7003 15.0977 -11.4269 
-39.7311 22.6808 -13.2612 -41.2965 22.6808 -11.7064 -33.7135 28.701 -13.2612 
39.3496 22.6808 -13.2612 34.5342 25.9085 -13.2612 42.1172 22.6808 -12.3791 
-32.0265 30.2638 -13.2612 -33.7135 30.2638 -11.3127 -26.1304 33.9199 -13.2612 
-18.5473 36.6167 -13.2612 -10.9642 36.8002 -13.2612 -3.38118 37.034 -13.2612 
4.20189 37.8303 -13.2612 11.785 37.6239 -13.2612 19.368 36.9607 -13.2612 
28.741 30.2638 -13.2612 26.9511 31.1864 -13.2612 34.5342 30.2638 -11.038 
-18.5473 37.8469 -11.4882 -10.9642 37.8469 -12.296 -3.38118 37.8469 -12.7124 
4.20189 37.8469 -13.2523 11.785 37.8469 -13.1501 19.368 37.8469 -12.666 
26.9511 37.8469 -7.7752 -26.1304 -43.4144 -5.67812 -18.5473 -44.4324 -5.67812 
-18.5473 -45.5669 -0.712353 -10.9642 -43.497 -5.67812 -3.38118 -42.5429 -5.67812 
4.20189 -41.2601 -5.67812 11.785 -39.9804 -5.67812 19.368 -39.5209 -5.67812 
26.9511 -38.0634 -5.67812 -33.5937 -37.9838 -5.67812 -33.7135 -37.8226 -5.67812 
27.2542 -37.9838 -5.67812 26.9511 -37.9838 -4.02459 34.5342 -35.9932 -5.67812 
42.1172 -32.4394 -5.67812 -37.3723 -30.4007 -5.67812 44.6933 -30.4007 -5.67812 
49.7003 -24.9449 -5.67812 -40.9478 -22.8177 -5.67812 -41.2965 -22.3287 -5.67812 
51.1379 -22.8177 -5.67812 -46.5676 -15.2346 -5.67812 -48.8796 -12.6587 -5.67812 
56.1588 -15.2346 -5.67812 57.2834 -12.7012 -5.67812 -52.943 -7.65151 -5.67812 
-56.4627 -1.23788 -5.67812 59.0549 -7.65151 -5.67812 -57.0002 -0.0684396 -5.67812 
-56.4627 3.38931 -5.67812 59.1479 -0.0684396 -5.67812 -55.7756 7.51463 -5.67812 
59.024 7.51463 -5.67812 57.2834 11.6412 -5.67812 57.2834 7.51463 1.4868 
-51.7899 15.0977 -5.67812 -48.8796 18.8331 -5.67812 55.4929 15.0977 -5.67812 
49.7003 22.1584 -5.67812 -45.1934 22.6808 -5.67812 -41.2965 26.412 -5.67812 
49.168 22.6808 -5.67812 42.1172 28.578 -5.67812 -36.8902 30.2638 -5.67812 
-33.7135 32.7727 -5.67812 -26.1304 37.559 -5.67812 40.0145 30.2638 -5.67812 
34.5342 34.2534 -5.67812 -25.3462 37.8469 -5.67812 -18.5473 40.1276 -5.67812 
-10.9642 41.6045 -5.67812 -3.38118 42.8196 -5.67812 4.20189 43.9048 -5.67812 
11.785 44.1202 -5.67812 19.368 42.182 -5.67812 29.0891 37.8469 -5.67812 
26.9511 39.1424 -5.67812 26.9511 37.8469 1.8952 -18.5473 -46.0584 1.90495 
-20.3474 -45.5669 1.90495 -26.1304 -43.7266 1.90495 -12.4692 -45.5669 1.90495 
-18.5473 -45.5669 3.06277 -10.9642 -45.4417 1.90495 -3.38118 -43.9165 1.90495 
4.20189 -41.9364 1.90495 11.785 -40.1325 1.90495 19.368 -39.34 1.90495 
-32.9412 -37.9838 1.90495 -33.7135 -36.6019 1.90495 4.20189 -37.9838 8.85743 
11.785 -37.9838 5.79026 25.7302 -37.9838 1.90495 19.368 -37.9838 4.27592 
26.9511 -37.6781 1.90495 34.5342 -35.7328 1.90495 42.1172 -31.799 1.90495 
-36.486 -30.4007 1.90495 -33.7135 -30.4007 7.98516 26.9511 -30.4007 9.37887 
34.5342 -30.4007 8.12356 43.8134 -30.4007 1.90495 42.1172 -30.4007 3.33746 
49.7003 -24.0842 1.90495 -39.6579 -22.8177 1.90495 -41.2965 -20.7807 1.90495 
42.1172 -22.8177 8.98494 50.6446 -22.8177 1.90495 49.7003 -22.8177 2.89714 
-46.0853 -15.2346 1.90495 -48.8796 -12.4861 1.90495 55 -15.2346 1.90495 
49.7003 -15.2346 7.28138 57.2834 -8.41219 1.90495 -53.0172 -7.65151 1.90495 
-56.4627 -0.327417 1.90495 57.6033 -7.65151 1.90495 57.2834 -7.65151 2.23335 
-56.5766 -0.0684396 1.90495 -56.4627 0.939691 1.90495 -56.4627 -0.0684396 2.20235 
58.2295 -0.0684396 1.90495 57.2834 6.62366 1.90495 57.2834 -0.0684396 2.87835 
-55.7196 7.51463 1.90495 57.1516 7.51463 1.90495 49.7003 7.51463 9.44649 
-51.3093 15.0977 1.90495 -48.8796 17.8832 1.90495 -48.8796 15.0977 7.51435 
53.5272 15.0977 1.90495 49.7003 19.8377 1.90495 49.7003 15.0977 5.92491 
-43.8582 22.6808 1.90495 -41.2965 25.0453 1.90495 -41.2965 22.6808 7.9211 
47.0573 22.6808 1.90495 42.1172 26.955 1.90495 42.1172 22.6808 6.7232 
-35.0197 30.2638 1.90495 -33.7135 31.3286 1.90495 -33.7135 30.2638 6.98066 
-26.1304 36.3306 1.90495 26.9511 37.8449 1.90495 37.9775 30.2638 1.90495 
34.5342 32.809 1.90495 34.5342 30.2638 5.34775 -22.7105 37.8469 1.90495 
-18.5473 39.5343 1.90495 -10.9642 41.6999 1.90495 -3.38118 43.2868 1.90495 
4.20189 44.0053 1.90495 11.785 43.5118 1.90495 26.9478 37.8469 1.90495 
19.368 41.5114 1.90495 19.368 37.8469 7.20497 -26.1304 -38.9522 9.48802 
-18.5473 -41.8837 9.48802 -10.9642 -41.5522 9.48802 -3.38118 -39.7642 9.48802 
-27.3169 -37.9838 9.48802 -26.1304 -37.9838 10.4226 -18.5473 -37.9838 13.0957 
-10.9642 -37.9838 12.8889 2.62804 -37.9838 9.48802 -3.38118 -37.9838 11.2935 
4.20189 -37.4674 9.48802 11.785 -34.9276 9.48802 19.368 -32.9443 9.48802 
-32.9227 -30.4007 9.48802 -33.7135 -28.6149 9.48802 -26.1304 -30.4007 16.2902 
-3.38118 -30.4007 16.8998 4.20189 -30.4007 15.3961 11.785 -30.4007 13.0833 
26.521 -30.4007 9.48802 19.368 -30.4007 11.179 26.9511 -30.163 9.48802 
34.5342 -27.1255 9.48802 -36.2154 -22.8177 9.48802 -41.2965 -16.7015 9.48802 
-33.7135 -22.8177 13.0915 11.785 -22.8177 16.2591 19.368 -22.8177 13.8948 
26.9511 -22.8177 12.4944 40.5343 -22.8177 9.48802 34.5342 -22.8177 11.0441 
42.1172 -20.678 9.48802 -42.6045 -15.2346 9.48802 -48.8796 -8.67472 9.48802 
-41.2965 -15.2346 11.2782 19.368 -15.2346 15.3485 26.9511 -15.2346 13.8425 
34.5342 -15.2346 12.4911 44.5462 -15.2346 9.48802 42.1172 -15.2346 10.5143 
49.7003 -7.69829 9.48802 -49.7256 -7.65151 9.48802 -48.8796 -7.65151 10.6658 
26.9511 -7.65151 15.2186 34.5342 -7.65151 13.9242 42.1172 -7.65151 12.157 
49.7185 -7.65151 9.48802 49.7003 -7.65151 9.50023 -52.9024 -0.0684396 9.48802 
-48.8796 -0.0684396 14.1735 26.9511 -0.0684396 16.3245 34.5342 -0.0684396 14.5978 
42.1172 -0.0684396 12.6677 50.7832 -0.0684396 9.48802 49.7003 7.24665 9.48802 
49.7003 -0.0684396 10.2653 -52.1064 7.51463 9.48802 -48.8796 13.4806 9.48802 
-48.8796 7.51463 13.338 26.9511 7.51463 16.6074 34.5342 7.51463 14.6477 
49.6208 7.51463 9.48802 42.1172 7.51463 12.631 -47.8499 15.0977 9.48802 
[...]
POINT_DATA 512
SCALARS ImageScalars float
LOOKUP_TABLE default
0 0 0 0 0 0 0 0 0 
0 0 0 0 0 0 0 0 0 
0 0 0 0 0 0 0 0 0 
0 0 0 0 0 0 0 0 0 
0 0 0 0 0 0 0 0 0 
0 0 0 0 0 0 0 0 0 
0 0 0 0 0 0 0 0 0 
0 0 0 0 0 0 0 0 0 
0 0 0 0 0 0 0 0 0 
0 0 0 0 0 0 0 0 0 
0 0 0 0 0 0 0 0 0 
0 0 0 0 0 0 0 0 0 
0 0 0 0 0 0 0 0 0 
0 0 0 0 0 0 0 0 0 
0 0 0 0 0 0 0 0 0 
0 0 0 0 0 0 0 0 0 
0 0 0 0 0 0 0 0 0 
0 0 0 0 0 0 0 0 0 
0 0 0 0 0 0 0 0 0 
0 0 0 0 0 0 0 0 0 
0 0 0 0 0 0 0 0 0 
0 0 0 0 0 0 0 0 0 
0 0 0 0 0 0 0 0 0 
0 0 0 0 0 0 0 0 0 
0 0 0 0 0 0 0 0 0 
0 0 0 0 0 0 0 0 0 
0 0 0 0 0 0 0 0 0 
0 0 0 0 0 0 0 0 0 
0 0 0 0 0 0 0 0 0 
0 0 0 0 0 0 0 0 0 
0 0 0 0 0 0 0 0 0 
0 0 0 0 0 0 0 0 0 
0 0 0 0 0 0 0 0 0 
0 0 0 0 0 0 0 0 0 
0 0 0 0 0 0 0 0 0 
0 0 0 0 0 0 0 0 0 
0 0 0 0 0 0 0 0 0 
0 0 0 0 0 0 0 0 0 
0 0 0 0 0 0 0 0 0 
0 0 0 0 0 0 0 0 0 
0 0 0 0 0 0 0 0 0 
0 0 0 0 0 0 0 0 0 
0 0 0 0 0 0 0 0 0 
0 0 0 0 0 0 0 0 0 
0 0 0 0 0 0 0 0 0 
0 0 0 0 0 0 0 0 0 
0 0 0 0 0 0 0 0 0 
0 0 0 0 0 0 0 0 0 
0 0 0 0 0 0 0 0 0 
0 0 0 0 0 0 0 0 0 
0 0 0 0 0 0 0 0 0 
0 0 0 0 0 0 0 0 0 
0 0 0 0 0 0 0 0 0 
0 0 0 0 0 0 0 0 0 
0 0 0 0 0 0 0 0 0 
0 0 0 0 0 0 0 0 0 
0 0 0 0 0 0 0 0 
NORMALS Normals float
0.197442 0.222665 0.954692 -0.0452179 0.241206 0.96942 -0.137667 0.17886 0.974195 
0.185526 0.0716028 0.980027 -0.0677201 0.0612687 0.995821 -0.199824 0.0809398 0.976483 
0.0804627 0.17222 0.981767 0.0624123 0.138647 0.988373 0.0563336 0.0821026 0.99503 
-0.0645675 0.15087 0.986443 -0.19237 0.177101 0.965209 0.21647 0.148392 0.964946 
0.0489437 -0.0140651 0.998703 -0.0403304 -0.123302 0.991549 -0.100329 0.115604 0.988216 
0.0364107 0.311344 0.949599 0.0689724 0.325025 0.943187 -0.102253 0.195165 0.975425 
-0.024887 -0.0127549 0.999609 0.0358145 0.0020759 0.999356 -0.0138497 0.112659 0.993537 
-0.215844 0.155314 0.963996 0.229269 0.269855 0.935208 0.0315665 0.107357 0.993719 
-0.076941 0.022595 0.99678 0.0440477 -0.0733855 0.99633 0.264438 0.231058 0.936314 
0.115414 0.163941 0.979695 0.0607004 0.0067303 0.998133 -0.346616 0.26938 0.898494 
-0.0989123 0.0299709 0.994645 0.0578287 0.0431603 0.997393 -0.0263534 0.0776894 0.996629 
-0.12511 0.0769112 0.989157 0.408476 0.146681 0.900906 0.210843 0.152386 0.965569 
-0.04175 0.136897 0.989705 -0.125895 0.127947 0.983758 0.0624025 0.140251 0.988148 
0.268812 -0.00831686 0.963157 -0.224307 -0.0354158 0.973875 0.223768 0.0143217 0.974537 
-0.152718 -0.144931 0.977585 -0.181215 0.0600093 0.981611 0.0859766 0.0569784 0.994667 
0.0219016 0.083664 0.996253 -0.0833792 0.0832204 0.993037 -0.306789 0.112082 0.945155 
0.466017 -0.122718 0.876224 0.2495 -0.0736233 0.965572 0.00898957 0.0418239 0.999085 
-0.0826726 0.111738 0.990293 -0.0318502 0.170179 0.984898 0.079028 -0.118317 0.989826 
0.103929 -0.0691588 0.992177 -0.0544075 0.0863448 0.994779 -0.213946 -0.172453 0.961502 
-0.0181155 0.0805937 0.996582 0.082564 0.0685991 0.994222 0.00129063 0.0138478 0.999903 
-0.0883337 -0.0661515 0.993892 -0.339627 -0.173766 0.924369 0.344271 -0.262426 0.901449 
0.135942 -0.0661191 0.988508 -0.00421065 0.0597785 0.998203 -0.0812926 0.108072 0.990814 
-0.0900453 0.0482746 0.994767 0.074723 -0.0306818 0.996732 0.0149421 -0.0863826 0.99615 
-0.100184 0.0261305 0.994626 0.0177809 0.0879896 0.995963 0.0200562 -0.0351071 0.999182 
-0.105858 -0.121322 0.986952 -0.277493 -0.209501 0.937607 0.34149 -0.286375 0.895195 
0.0879328 -0.116928 0.98924 -0.0334927 -0.0196323 0.999246 -0.0848325 0.0221219 0.99615 
-0.0291725 0.0349227 0.998964 0.0109353 -0.0663917 0.997734 -0.0248845 0.0029167 0.999686 
-0.0881949 -0.0199542 0.995903 -0.133998 -0.163136 0.977462 -0.185006 -0.307144 0.933507 
0.260522 -0.461725 0.847902 0.059927 -0.317696 0.946297 -0.0239107 -0.254895 0.966673 
-0.0199095 -0.208458 0.977829 -0.0170968 -0.208909 0.977786 -0.0504103 -0.213403 0.975663 
-0.146397 -0.231414 0.961777 -0.269604 -0.354244 0.895447 0.231862 0.331813 0.914407 
0.313794 0.559622 0.767044 -0.0132315 0.400577 0.916167 -0.00157931 0.503485 0.864003 
-0.134831 0.222756 0.965505 -0.121575 0.450309 0.884557 -0.112341 0.505895 0.855249 
-0.118813 0.647341 0.752883 -0.0729748 0.797817 0.598467 -0.113347 0.864329 0.489988 
-0.229283 0.920993 0.314961 0.33207 0.266687 0.904769 0.647379 0.348906 0.677617 
-0.0961879 0.168597 0.980981 -0.0622866 0.165985 0.984159 0.0521185 0.194179 0.979581 
0.0154843 0.237728 0.971208 0.018157 0.269703 0.962772 0.0100213 0.305654 0.95209 
-0.0253932 0.289301 0.956901 -0.04296 0.340095 0.939409 -0.0659329 0.346797 0.93562 
-0.0751378 0.457983 0.88578 -0.181304 0.202414 0.962371 -0.161092 0.44602 0.880407 
-0.530201 0.676755 0.510772 0.409357 0.197957 0.89064 0.407771 0.203458 0.890128 
0.443371 0.216443 0.869813 -0.0733885 0.0741658 0.994542 -0.00670132 0.106259 0.994316 
-0.0379334 0.120584 0.991978 -0.0537092 0.0732812 0.995864 -0.195935 0.192064 0.961624 
-0.212672 0.215523 0.953058 -0.259339 0.297721 0.918752 -0.74447 0.507057 0.434346 
0.384375 0.293978 0.875119 0.381714 0.323662 0.865758 0.519317 0.405727 0.752127 
-0.327347 0.170444 0.929405 -0.528681 0.258084 0.808634 0.3699 0.331577 0.867889 
0.430748 0.206929 0.878428 0.591752 0.468084 0.656298 -0.287058 0.198403 0.937141 
-0.300724 0.200583 0.93238 -0.305447 0.21121 0.928489 -0.849042 0.223164 0.478879 
0.4459 0.152345 0.882023 0.936669 0.162667 0.310147 -0.469436 0.0854958 0.878818 
-0.840034 0.0313354 0.541628 0.521971 -0.149474 0.839764 0.514594 -0.22664 0.826938 
-0.48919 -0.206378 0.847409 -0.407419 -0.260403 0.875329 -0.871465 -0.238143 0.428762 
0.500543 -0.365517 0.784764 0.701117 -0.511991 0.496286 0.521782 -0.427452 0.73826 
-0.378069 -0.271886 0.884953 -0.310904 -0.381994 0.870299 -0.539699 -0.411792 0.73427 
0.534139 -0.456212 0.711734 0.603895 -0.549124 0.577732 0.499032 -0.556996 0.66387 
-0.264875 -0.403066 0.876002 -0.266014 -0.394408 0.87959 -0.352834 -0.49557 0.793674 
0.474468 -0.589641 0.653609 0.55843 -0.671282 0.487377 0.329699 -0.66636 0.668777 
0.138108 -0.713307 0.68711 0.0148261 -0.651981 0.75809 0.0312025 -0.589945 0.80684 
0.0193301 -0.56543 0.82457 -0.0238069 -0.535785 0.844019 -0.190367 -0.561461 0.805309 
-0.295632 -0.391799 0.871261 -0.290619 -0.386631 0.875247 -0.442582 -0.601266 0.665282 
0.181911 -0.831946 0.524189 0.0420864 -0.745585 0.66508 0.0452503 -0.649611 0.758919 
0.019473 -0.566473 0.82385 -0.0250395 -0.549931 0.834835 -0.205912 -0.628223 0.750291 
-0.479245 -0.800572 0.359734 0.353533 0.882072 0.31139 0.00522064 0.882309 0.470642 
0.0698999 0.994995 0.0714093 -0.122216 0.890091 0.439092 -0.134432 0.881404 0.45283 
-0.173259 0.887054 0.427922 -0.114425 0.922313 0.369114 -0.121954 0.939861 0.319044 
-0.230601 0.92353 0.306457 0.761809 0.593278 0.260133 0.76786 0.586676 0.257298 
-0.233648 0.924136 0.302294 -0.238748 0.955321 0.174245 -0.309825 0.920783 0.236996 
-0.55166 0.802993 0.225551 0.88161 0.428188 0.198541 -0.6259 0.744664 0.231787 
-0.773036 0.587207 0.240005 0.836183 0.510516 0.200426 0.831369 0.518305 0.200463 
-0.803037 0.544465 0.242257 0.761972 0.602754 0.236825 0.760247 0.597182 0.255732 
-0.863041 0.43248 0.261002 -0.909005 0.350886 0.224919 0.796135 0.549646 0.253098 
0.946843 0.232304 0.222536 -0.952045 0.189764 0.240001 0.960047 0.161542 0.228503 
0.973502 -0.0556993 0.221792 -0.980774 -0.0020555 0.195138 0.931968 -0.289182 0.218655 
-0.96173 -0.223254 0.158851 -0.908576 -0.392168 0.143854 -0.843769 -0.262916 -0.467899 
0.80803 -0.553403 0.202071 0.758179 -0.625641 0.18368 -0.829309 -0.530157 0.17658 
-0.706024 -0.696377 0.1288 0.691982 -0.707596 0.143067 0.66165 -0.741297 0.112688 
-0.698284 -0.704547 0.126539 -0.619077 -0.761083 0.19364 0.627225 -0.77425 0.0844121 
0.586802 -0.805394 0.0836893 0.416523 -0.904778 0.0887971 -0.604802 -0.773322 0.190229 
-0.560455 -0.805428 0.192809 0.397798 -0.912888 0.0916113 0.255849 -0.956903 0.137393 
0.17033 -0.956522 0.236755 0.149601 -0.942118 0.300057 0.0842434 -0.95361 0.289018 
-0.114872 -0.960157 0.254759 -0.307254 -0.926539 0.217072 -0.503596 -0.842599 0.190833 
-0.472654 -0.861338 0.186264 -0.48971 -0.803814 -0.337738 0.0971098 0.987646 -0.122985 
0.18072 0.973959 -0.136908 0.458417 0.86636 -0.198175 -0.0951662 0.990441 -0.0998493 
0.0992288 0.976161 -0.193039 -0.139959 0.985638 -0.0944966 -0.223502 0.966257 -0.128043 
-0.249539 0.948105 -0.197046 -0.17374 0.955637 -0.237849 -0.157744 0.941916 -0.296497 
0.795583 0.562725 -0.224472 0.826744 0.515065 -0.226278 -0.226211 0.763334 -0.605103 
-0.181124 0.864557 -0.46876 -0.216383 0.924348 -0.31426 -0.167434 0.883642 -0.437199 
-0.226522 0.919398 -0.321551 -0.330669 0.870707 -0.364043 -0.568948 0.725103 -0.387974 
0.880597 0.403274 -0.248837 0.816146 0.366477 -0.446766 -0.174185 0.508208 -0.843436 
-0.29736 0.550003 -0.780432 -0.615748 0.686704 -0.386384 -0.564741 0.666038 -0.4873 
-0.704656 0.595389 -0.385968 0.822268 0.511923 -0.248615 0.785896 0.57125 -0.236729 
-0.412007 0.35981 -0.83713 -0.723995 0.566929 -0.392967 -0.695827 0.55197 -0.459514 
0.728992 0.659588 -0.183069 0.747369 0.640815 -0.175486 -0.854786 0.369706 -0.364222 
-0.530734 0.347477 -0.773034 -0.834716 0.231865 -0.499487 0.822725 0.54194 -0.171533 
0.958363 0.179576 -0.222022 -0.829921 0.214607 -0.51495 -0.820243 0.205015 -0.534013 
0.960795 0.166008 -0.222066 0.96967 0.10431 -0.221042 0.957568 0.166098 -0.235533 
-0.871917 -0.0254232 -0.488993 -0.83224 -0.235355 -0.501981 -0.837519 -0.0207158 -0.546015 
0.939102 -0.284683 -0.192464 -0.824878 -0.261793 -0.50104 -0.510365 -0.215848 -0.832428 
0.753975 -0.626618 -0.197157 0.71117 -0.679166 -0.181582 0.739436 -0.538048 -0.404647 
-0.773742 -0.468702 -0.426194 -0.675582 -0.584055 -0.449965 -0.585648 -0.461456 -0.66639 
0.667138 -0.721817 -0.184142 0.652383 -0.731736 -0.197383 0.637836 -0.685567 -0.350946 
-0.634728 -0.645169 -0.425297 -0.582233 -0.706822 -0.401755 -0.524479 -0.555205 -0.645499 
0.614686 -0.771857 -0.162475 0.603777 -0.781397 -0.157712 0.615795 -0.746235 -0.252842 
0.459264 -0.872494 -0.166823 -0.489629 -0.803593 -0.338381 -0.555725 -0.737842 -0.383092 
-0.535787 -0.75709 -0.373827 -0.507891 -0.672709 -0.53806 0.392677 -0.908193 -0.144882 
0.320976 -0.93963 -0.11862 0.235103 -0.965955 -0.107972 0.148877 -0.981232 -0.122557 
0.0159577 -0.982225 -0.187027 -0.157086 -0.946894 -0.280562 -0.489577 -0.80363 -0.338367 
-0.340583 -0.885737 -0.315394 -0.327168 -0.725694 -0.605251 0.424377 0.658885 -0.621108 
0.115285 0.766664 -0.631614 -0.107363 0.778471 -0.61843 -0.207391 0.742939 -0.63642 
0.473352 0.63102 -0.614615 0.41486 0.63921 -0.647535 0.112509 0.642839 -0.757694 
-0.0906185 0.650374 -0.75419 -0.217178 0.735033 -0.642308 -0.191378 0.685176 -0.702786 
-0.22186 0.732697 -0.643377 -0.19969 0.668941 -0.71599 -0.194794 0.567156 -0.800243 
0.775475 0.37786 -0.505826 0.793036 0.37072 -0.483385 0.405284 0.461875 -0.788934 
-0.138093 0.460782 -0.876704 -0.211412 0.51664 -0.829692 -0.241912 0.501938 -0.830384 
-0.175238 0.502192 -0.846815 -0.201955 0.460357 -0.864457 -0.17387 0.496651 -0.850357 
-0.250792 0.398454 -0.882234 0.780277 0.445488 -0.438985 0.684886 0.584039 -0.435695 
0.721395 0.415851 -0.553767 -0.314176 0.283409 -0.906075 -0.231265 0.253793 -0.939205 
-0.171224 0.252359 -0.952364 -0.360956 0.329799 -0.872321 -0.218925 0.259289 -0.94066 
-0.37611 0.301797 -0.876048 0.663121 0.605674 -0.439806 0.69625 0.523814 -0.49077 
0.656283 0.574304 -0.489355 -0.254917 0.202579 -0.945504 -0.178325 0.172864 -0.968668 
-0.200279 0.173501 -0.964254 -0.350311 0.230555 -0.907814 -0.303924 0.192508 -0.933044 
-0.490559 0.181816 -0.852229 0.71523 0.491535 -0.496828 0.696455 0.485223 -0.528686 
-0.20208 0.15588 -0.966884 -0.189283 0.133883 -0.972752 -0.29039 0.132329 -0.947715 
-0.491365 0.18057 -0.85203 -0.490778 0.180666 -0.852348 0.813131 0.14152 -0.564615 
0.697087 0.107396 -0.708897 -0.265438 0.0901049 -0.959908 -0.232382 0.0451742 -0.971575 
-0.290307 0.0281993 -0.956518 -0.545185 -0.00144872 -0.838314 -0.510003 -0.208169 -0.834604 
-0.506261 -0.00101266 -0.862379 0.787253 -0.251893 -0.562835 0.74208 -0.439687 -0.505957 
0.699127 -0.23052 -0.676817 -0.240078 -0.00871804 -0.970715 -0.243056 -0.0636649 -0.967921 
-0.507614 -0.215138 -0.834292 -0.337345 -0.127093 -0.932762 0.722391 -0.498298 -0.479428 
0.63161 -0.663623 -0.400841 0.553016 -0.400603 -0.730541 -0.269469 -0.161822 -0.949316 
-0.328797 -0.231495 -0.915589 -0.427063 -0.3333 -0.840552 -0.433613 -0.36235 -0.825035 
-0.408306 -0.304079 -0.86071 0.631042 -0.669299 -0.392204 0.619245 -0.72202 -0.308581 
-0.248594 -0.279371 -0.927444 -0.327156 -0.348385 -0.878406 -0.416698 -0.435573 -0.797896 
-0.404576 -0.460036 -0.790371 -0.378871 -0.399983 -0.834548 0.603581 -0.737721 -0.302419 
0.459975 -0.838088 -0.293312 -0.140092 -0.343464 -0.928658 -0.211705 -0.41783 -0.883515 
-0.308896 -0.613036 -0.727166 -0.296164 -0.464517 -0.834572 -0.3793 -0.535335 -0.754684 
-0.374654 -0.537321 -0.755593 -0.369041 -0.526256 -0.76607 0.317626 -0.894553 -0.314466 
0.299113 -0.899749 -0.317779 0.291266 -0.890197 -0.350305 0.149821 -0.903608 -0.401306 
0.0963513 -0.826467 -0.554679 0.0367316 -0.853949 -0.519059 -0.0295167 -0.721515 -0.691769 
-0.103612 -0.77181 -0.627355 -0.134867 -0.670694 -0.72937 -0.251096 -0.670092 -0.698519 
-0.226129 -0.68975 -0.687831 -0.227706 -0.659334 -0.716539 0.0860198 0.494627 -0.864838 
-0.0758985 0.461927 -0.883664 0.276449 0.464123 -0.841526 0.391719 0.431832 -0.812451 
0.0838513 0.455352 -0.886354 -0.126743 0.454706 -0.881577 -0.0756593 0.430775 -0.899282 
-0.13556 0.447791 -0.883803 -0.215027 0.406833 -0.887834 0.533148 0.386869 -0.752387 
0.568986 0.408195 -0.713886 0.358474 0.311332 -0.880096 0.0469931 0.209209 -0.976741 
-0.0853553 0.194014 -0.977278 -0.10147 0.227998 -0.96836 -0.28696 0.28538 -0.914446 
-0.205302 0.285508 -0.936128 -0.319449 0.257542 -0.911934 0.555696 0.430021 -0.711537 
0.546469 0.387583 -0.742395 0.496582 0.374897 -0.782853 0.176019 0.144162 -0.973773 
-0.0238541 0.0224289 -0.999464 -0.0689934 -0.0112559 -0.997554 -0.0482891 0.0771271 -0.995851 
-0.160535 0.0979024 -0.982163 -0.301823 0.221935 -0.927172 -0.320907 0.225691 -0.919828 
-0.303892 0.216528 -0.927775 0.550288 0.361599 -0.752615 0.511787 0.34186 -0.788166 
0.252626 0.194922 -0.947726 0.0234121 0.0451938 -0.998704 -0.114798 -0.0913372 -0.989181 
-0.0226437 -0.0965864 -0.995067 0.00541946 0.0341405 -0.999402 -0.0647197 -0.119459 -0.990727 
-0.196857 0.0951907 -0.9758 -0.301402 0.214342 -0.929093 -0.306344 0.21727 -0.926794 
0.541787 0.0754305 -0.837124 0.418057 0.0583447 -0.906545 0.170075 0.0169466 -0.985285 
-0.0965661 -0.0219887 -0.995084 -0.15925 -0.0284892 -0.986827 0.0553709 -0.0108115 -0.998407 
-0.0751214 -0.0187201 -0.996999 -0.109809 -0.122781 -0.98634 0.0217621 -0.0869437 -0.995975 
-0.252766 0.0876785 -0.963546 -0.214396 0.0679973 -0.974377 0.524212 -0.187866 -0.830607 
0.514462 -0.324937 -0.793565 0.419312 -0.165985 -0.892539 0.168196 -0.101742 -0.980489 
-0.021969 -0.0404838 -0.998939 -0.104217 0.0880521 -0.990649 -0.012098 0.0754968 -0.997073 
-0.0982609 -0.103661 -0.989747 -0.133399 0.0550042 -0.989535 -0.0164056 -0.0395324 -0.999084 
-0.212107 -0.0195779 -0.97705 -0.129813 -0.0560565 -0.989953 0.506866 -0.358461 -0.783959 
0.298489 -0.215186 -0.929838 0.0931272 -0.0617367 -0.993738 -0.047602 0.0342105 -0.99828 
-0.135124 0.0422276 -0.989928 -0.0990482 -0.0831696 -0.991601 -0.0429779 -0.00559696 -0.99906 
-0.0882008 -0.0405881 -0.995275 -0.221017 -0.141898 -0.964892 -0.215647 -0.20716 -0.954244 
-0.17778 -0.125854 -0.975989 0.511144 -0.467679 -0.721116 0.510119 -0.47191 -0.719082 
0.503059 -0.460061 -0.731626 0.234844 -0.238072 -0.942428 0.00428377 -0.153975 -0.988065 
-0.135978 -0.100522 -0.985599 -0.14438 -0.122987 -0.98185 -0.135342 -0.323596 -0.936466 
-0.090054 -0.152321 -0.98422 -0.200369 -0.255396 -0.945846 -0.16374 -0.291845 -0.942346 
-0.135873 -0.22676 -0.964426 0.40178 -0.616739 -0.676909 0.393998 -0.622251 -0.676439 
0.391708 -0.613491 -0.685706 0.143311 -0.626132 -0.766434 0.100138 -0.496548 -0.862214 
-0.0380772 -0.5501 -0.83423 -0.0938004 -0.403639 -0.910097 -0.138314 -0.340745 -0.929926 
-0.126281 -0.378542 -0.916929 -0.136369 -0.335938 -0.93196 
