# vtk DataFile Version 4.2
vtk output
ASCII
DATASET POLYDATA
POINTS 520 float
14.2963 -34.463 -14.4144 -25.748 -26.4541 -14.9355 -17.7391 -26.4541 -15.182 
-9.73029 -26.4541 -15.4192 -1.72144 -26.4541 -15.2567 6.28741 -26.4541 -16.1574 
14.2963 -26.4541 -17.2329 22.3051 -26.4541 -17.5325 30.3139 -26.4541 -15.5572 
-33.7568 -18.4453 -15.8168 -25.748 -18.4453 -16.7714 -17.7391 -18.4453 -16.4891 
-9.73029 -18.4453 -15.7871 -1.72144 -18.4453 -17.1882 6.28741 -18.4453 -17.8039 
14.2963 -18.4453 -18.372 22.3051 -18.4453 -19.0198 30.3139 -18.4453 -17.8329 
-41.7657 -10.4365 -15.5429 -33.7568 -10.4365 -17.8692 -25.748 -10.4365 -18.6797 
-17.7391 -10.4365 -18.5152 -9.73029 -10.4365 -18.2974 -1.72144 -10.4365 -19.7869 
6.28741 -10.4365 -18.4668 14.2963 -10.4365 -18.3501 22.3051 -10.4365 -19.4012 
30.3139 -10.4365 -18.8885 38.3228 -10.4365 -16.3101 -41.7657 -2.4276 -17.371 
-33.7568 -2.4276 -18.5719 -25.748 -2.4276 -18.8808 -17.7391 -2.4276 -19.4926 
-9.73029 -2.4276 -20.7604 -1.72144 -2.4276 -17.488 6.28741 -2.4276 -18.919 
14.2963 -2.4276 -19.3626 22.3051 -2.4276 -19.6249 30.3139 -2.4276 -19.3801 
38.3228 -2.4276 -17.8432 46.3316 -2.4276 -14.5165 -41.7657 5.58124 -17.64 
-33.7568 5.58124 -18.8886 -25.748 5.58124 -18.1468 -17.7391 5.58124 -18.5251 
-9.73029 5.58124 -21.8348 -1.72144 5.58124 -21.4055 6.28741 5.58124 -21.4494 
14.2963 5.58124 -19.4995 22.3051 5.58124 -19.3844 30.3139 5.58124 -19.4711 
38.3228 5.58124 -18.5754 46.3316 5.58124 -16.2483 -41.7657 13.5901 -17.0793 
-33.7568 13.5901 -18.551 -25.748 13.5901 -19.1292 -17.7391 13.5901 -18.8788 
-9.73029 13.5901 -19.3129 -1.72144 13.5901 -19.7344 6.28741 13.5901 -20.2593 
14.2963 13.5901 -19.2563 22.3051 13.5901 -19.1671 30.3139 13.5901 -19.4357 
38.3228 13.5901 -18.7661 46.3316 13.5901 -16.1063 -41.7657 21.5989 -15.9478 
-33.7568 21.5989 -18.2903 -25.748 21.5989 -19.5336 -17.7391 21.5989 -19.4885 
-9.73029 21.5989 -19.4207 -1.72144 21.5989 -20.0357 6.28741 21.5989 -20.9476 
14.2963 21.5989 -20.4275 22.3051 21.5989 -19.7783 30.3139 21.5989 -19.6622 
38.3228 21.5989 -18.3753 46.3316 21.5989 -15.8435 -41.7657 29.6078 -14.5179 
-33.7568 29.6078 -17.6813 -25.748 29.6078 -18.8556 -17.7391 29.6078 -19.1589 
-9.73029 29.6078 -19.6459 -1.72144 29.6078 -20.6218 6.28741 29.6078 -21.4672 
14.2963 29.6078 -21.0886 22.3051 29.6078 -19.7061 30.3139 29.6078 -17.9077 
38.3228 29.6078 -15.6211 -25.748 37.6166 -15.7887 -17.7391 37.6166 -16.86 
-9.73029 37.6166 -18.398 -1.72144 37.6166 -20.0648 6.28741 37.6166 -20.984 
14.2963 37.6166 -19.4942 22.3051 37.6166 -16.784 30.3139 37.6166 -14.2131 
-1.72144 45.6255 -15.1527 6.28741 45.6255 -16.087 -17.7391 -42.4718 -8.26957 
-9.73029 -42.4718 -9.42682 -1.72144 -42.4718 -9.42374 6.28741 -42.4718 -9.30226 
14.2963 -34.8688 -14.1946 14.2963 -42.4718 -9.13334 22.3051 -42.4718 -7.78415 
-33.7568 -34.463 -8.27498 -25.748 -28.8988 -14.1946 -25.748 -34.463 -12.0154 
-17.7391 -30.3089 -14.1946 -17.7391 -34.463 -13.1071 -9.73029 -32.2315 -14.1946 
-9.73029 -34.463 -13.6434 -1.72144 -31.8097 -14.1946 -1.72144 -34.463 -13.6323 
11.0926 -34.463 -14.1946 6.28741 -33.3004 -14.1946 6.28741 -34.463 -13.8522 
19.702 -34.463 -14.1946 22.3051 -34.213 -14.1946 22.3051 -34.463 -14.073 
30.3139 -29.34 -14.1946 30.3139 -34.463 -10.7947 -41.7657 -26.4541 -7.90593 
-30.0332 -26.4541 -14.1946 -33.7568 -24.1089 -14.1946 -33.7568 -26.4541 -13.3632 
32.6177 -26.4541 -14.1946 38.3228 -26.4541 -8.93372 -38.7505 -18.4453 -14.1946 
-41.7657 -14.8568 -14.1946 -41.7657 -18.4453 -12.9474 37.6169 -18.4453 -14.1946 
38.3228 -17.2963 -14.1946 38.3228 -18.4453 -13.7275 -44.4561 -10.4365 -14.1946 
-49.7745 -10.4365 -10.3665 42.0239 -10.4365 -14.1946 46.3316 -3.34339 -14.1946 
46.3316 -10.4365 -10.902 -48.1221 -2.4276 -14.1946 -49.7745 -2.4276 -13.1966 
46.8126 -2.4276 -14.1946 54.3405 -2.4276 -6.80999 -49.5371 5.58124 -14.1946 
-49.7745 5.58124 -14.0725 49.8858 5.58124 -14.1946 54.3405 5.58124 -9.82969 
-48.0405 13.5901 -14.1946 -49.7745 13.5901 -13.2339 49.3004 13.5901 -14.1946 
54.3405 13.5901 -9.46734 -45.1271 21.5989 -14.1946 -49.7745 21.5989 -10.8481 
48.7128 21.5989 -14.1946 46.3316 25.2848 -14.1946 54.3405 21.5989 -6.99394 
-42.244 29.6078 -14.1946 -41.7657 30.0849 -14.1946 -33.7568 36.3177 -14.1946 
41.3921 29.6078 -14.1946 38.3228 31.6325 -14.1946 46.3316 29.6078 -10.241 
-31.2785 37.6166 -14.1946 -33.7568 37.6166 -12.8979 -25.748 39.2732 -14.1946 
-17.7391 41.2229 -14.1946 -9.73029 43.8495 -14.1946 14.2963 45.4188 -14.1946 
22.3051 40.9905 -14.1946 30.3496 37.6166 -14.1946 30.3139 37.6361 -14.1946 
-4.58007 45.6255 -14.1946 -9.73029 45.6255 -10.498 -1.72144 46.4188 -14.1946 
13.5452 45.6255 -14.1946 6.28741 47.172 -14.1946 14.2963 45.6255 -13.8413 
-17.7391 -44.3869 -6.18579 -9.73029 -45.8947 -6.18579 -1.72144 -46.0977 -6.18579 
6.28741 -45.9522 -6.18579 14.2963 -45.5547 -6.18579 22.3051 -43.8417 -6.18579 
-33.7568 -36.8743 -6.18579 -23.677 -42.4718 -6.18579 -25.748 -41.601 -6.18579 
-25.748 -42.4718 -4.30913 25.5676 -42.4718 -6.18579 30.3139 -39.7227 -6.18579 
30.3139 -42.4718 -1.23261 -36.7489 -34.463 -6.18579 -41.7657 -28.9296 -6.18579 
35.3694 -34.463 -6.18579 38.3228 -30.2921 -6.18579 38.3228 -34.463 -0.98771 
-43.5463 -26.4541 -6.18579 40.6036 -26.4541 -6.18579 -48.9352 -18.4453 -6.18579 
-49.7745 -16.9022 -6.18579 -49.7745 -18.4453 -3.66239 45.519 -18.4453 -6.18579 
46.3316 -17.2054 -6.18579 46.3316 -18.4453 -4.69544 -53.2145 -10.4365 -6.18579 
50.8154 -10.4365 -6.18579 54.3405 -3.48241 -6.18579 -55.8924 -2.4276 -6.18579 
54.7847 -2.4276 -6.18579 -57.2024 5.58124 -6.18579 -57.7834 5.58124 0.263722 
56.9763 5.58124 -6.18579 -56.4173 13.5901 -6.18579 56.6139 13.5901 -6.18579 
-53.1233 21.5989 -6.18579 -49.7745 27.1961 -6.18579 54.84 21.5989 -6.18579 
54.3405 22.4424 -6.18579 54.3405 21.5989 -3.68644 -48.1458 29.6078 -6.18579 
-41.7657 36.1113 -6.18579 38.3228 37.1215 -6.18579 49.119 29.6078 -6.18579 
46.3316 32.2903 -6.18579 46.3316 29.6078 -0.063334 -39.4944 37.6166 -6.18579 
-33.7568 40.8271 -6.18579 -25.748 43.3759 -6.18579 -17.7391 45.3559 -6.18579 
22.3051 45.6138 -6.18579 37.4174 37.6166 -6.18579 30.3139 41.4381 -6.18579 
-16.4892 45.6255 -6.18579 -9.73029 47.0634 -6.18579 -9.73029 45.6255 -0.18206 
-1.72144 49.44 -6.18579 6.28741 50.403 -6.18579 22.2781 45.6255 -6.18579 
14.2963 48.7366 -6.18579 -25.748 -44.4328 1.82305 -17.7391 -47.3842 1.82305 
-9.73029 -49.2266 1.82305 -1.72144 -50.0999 1.82305 6.28741 -50.3183 1.82305 
14.2963 -49.8827 1.82305 22.3051 -47.7072 1.82305 30.3139 -43.6277 1.82305 
-29.728 -42.4718 1.82305 -33.7568 -40.3501 1.82305 31.757 -42.4718 1.82305 
38.3228 -35.8819 1.82305 -40.7056 -34.463 1.82305 -41.7657 -33.2248 1.82305 
39.4307 -34.463 1.82305 -46.6794 -26.4541 1.82305 -49.7745 -21.0714 1.82305 
44.4616 -26.4541 1.82305 46.3316 -23.4106 1.82305 -51.1918 -18.4453 1.82305 
-49.7745 -18.4453 6.63475 49.2495 -18.4453 1.82305 -54.8332 -10.4365 1.82305 
53.966 -10.4365 1.82305 54.3405 -9.58612 1.82305 -56.9543 -2.4276 1.82305 
-57.7834 4.58102 1.82305 57.2789 -2.4276 1.82305 -57.8999 5.58124 1.82305 
-57.7834 6.51409 1.82305 -57.7834 5.58124 2.14769 58.2908 5.58124 1.82305 
-56.8304 13.5901 1.82305 56.8537 13.5901 1.82305 54.3405 19.3396 1.82305 
54.3405 13.5901 6.22143 -53.3202 21.5989 1.82305 -49.7745 26.7335 1.82305 
-49.7745 21.5989 8.0441 53.0723 21.5989 1.82305 46.3316 28.7544 1.82305 
46.3316 21.5989 8.39997 -47.3569 29.6078 1.82305 -41.7657 34.6864 1.82305 
-41.7657 29.6078 8.90243 30.3139 29.6078 9.01828 45.2678 29.6078 1.82305 
38.3228 34.3316 1.82305 38.3228 29.6078 6.72029 -36.8094 37.6166 1.82305 
-33.7568 39.1878 1.82305 -33.7568 37.6166 4.38552 -25.748 41.7395 1.82305 
-25.748 37.6166 7.91747 -17.7391 43.2095 1.82305 -17.7391 37.6166 9.09848 
-9.73029 45.0701 1.82305 22.3051 44.4053 1.82305 22.3051 37.6166 8.3299 
32.4993 37.6166 1.82305 30.3139 38.9347 1.82305 30.3139 37.6166 3.32988 
-8.15119 45.6255 1.82305 -1.72144 47.6817 1.82305 -1.72144 45.6255 5.14586 
6.28741 49.1424 1.82305 6.28741 45.6255 7.71101 19.769 45.6255 1.82305 
14.2963 47.7843 1.82305 14.2963 45.6255 5.34567 -25.748 -43.2648 9.8319 
-17.7391 -45.8751 9.8319 -9.73029 -48.1469 9.8319 -1.72144 -49.7074 9.8319 
6.28741 -50.1895 9.8319 14.2963 -49.7508 9.8319 22.3051 -47.2837 9.8319 
30.3139 -43.2246 9.8319 -27.2957 -42.4718 9.8319 -33.7568 -38.4484 9.8319 
-25.748 -42.4718 11.0757 -17.7391 -42.4718 14.6307 -9.73029 -42.4718 17.5471 
22.3051 -42.4718 16.1805 31.2498 -42.4718 9.8319 30.3139 -42.4718 11.2282 
38.3228 -35.6807 9.8319 -38.6057 -34.463 9.8319 -41.7657 -30.561 9.8319 
-33.7568 -34.463 14.5962 39.3005 -34.463 9.8319 38.3228 -34.463 11.6333 
-44.4776 -26.4541 9.8319 -41.7657 -26.4541 13.0954 44.1617 -26.4541 9.8319 
38.3228 -26.4541 16.3047 46.3316 -22.893 9.8319 -48.682 -18.4453 9.8319 
-49.7745 -16.2588 9.8319 -41.7657 -18.4453 17.0165 48.8805 -18.4453 9.8319 
46.3316 -18.4453 12.8841 -52.324 -10.4365 9.8319 -49.7745 -10.4365 13.1542 
52.3189 -10.4365 9.8319 46.3316 -10.4365 15.5318 54.3405 -3.41542 9.8319 
-53.7795 -2.4276 9.8319 -49.7745 -2.4276 13.7357 14.2963 -2.4276 17.7511 
46.3316 -2.4276 16.159 54.5947 -2.4276 9.8319 54.3405 -2.4276 10.1458 
-54.2009 5.58124 9.8319 -49.7745 5.58124 13.9611 6.28741 5.58124 17.7148 
22.3051 5.58124 17.7921 30.3139 5.58124 17.7684 38.3228 5.58124 17.1861 
46.3316 5.58124 15.2081 54.4955 5.58124 9.8319 54.3405 6.03726 9.8319 
54.3405 5.58124 10.0025 -52.2717 13.5901 9.8319 -49.7745 18.9588 9.8319 
-49.7745 13.5901 12.2954 -41.7657 13.5901 16.5745 -25.748 13.5901 17.7625 
-17.7391 13.5901 16.7215 -9.73029 13.5901 16.1847 -1.72144 13.5901 15.8644 
6.28741 13.5901 15.3903 14.2963 13.5901 15.595 22.3051 13.5901 15.3533 
30.3139 13.5901 15.3286 38.3228 13.5901 14.2506 50.5861 13.5901 9.8319 
46.3316 18.9692 9.8319 46.3316 13.5901 12.7251 -48.0001 21.5989 9.8319 
-41.7657 28.4538 9.8319 -41.7657 21.5989 13.4023 -33.7568 21.5989 16.077 
-25.748 21.5989 16.3446 -17.7391 21.5989 16.0356 -9.73029 21.5989 15.6684 
-1.72144 21.5989 14.9387 6.28741 21.5989 15.4791 14.2963 21.5989 14.6838 
[...]
POINT_DATA 520
SCALARS ImageScalars float
LOOKUP_TABLE default
0 0 0 0 0 0 0 0 0 
0 0 0 0 0 0 0 0 0 
0 0 0 0 0 0 0 0 0 
0 0 0 0 0 0 0 0 0 
0 0 0 0 0 0 0 0 0 
0 0 0 0 0 0 0 0 0 
0 0 0 0 0 0 0 0 0 
0 0 0 0 0 0 0 0 0 
0 0 0 0 0 0 0 0 0 
0 0 0 0 0 0 0 0 0 
0 0 0 0 0 0 0 0 0 
0 0 0 0 0 0 0 0 0 
0 0 0 0 0 0 0 0 0 
0 0 0 0 0 0 0 0 0 
0 0 0 0 0 0 0 0 0 
0 0 0 0 0 0 0 0 0 
0 0 0 0 0 0 0 0 0 
0 0 0 0 0 0 0 0 0 
0 0 0 0 0 0 0 0 0 
0 0 0 0 0 0 0 0 0 
0 0 0 0 0 0 0 0 0 
0 0 0 0 0 0 0 0 0 
0 0 0 0 0 0 0 0 0 
0 0 0 0 0 0 0 0 0 
0 0 0 0 0 0 0 0 0 
0 0 0 0 0 0 0 0 0 
0 0 0 0 0 0 0 0 0 
0 0 0 0 0 0 0 0 0 
0 0 0 0 0 0 0 0 0 
0 0 0 0 0 0 0 0 0 
0 0 0 0 0 0 0 0 0 
0 0 0 0 0 0 0 0 0 
0 0 0 0 0 0 0 0 0 
0 0 0 0 0 0 0 0 0 
0 0 0 0 0 0 0 0 0 
0 0 0 0 0 0 0 0 0 
0 0 0 0 0 0 0 0 0 
0 0 0 0 0 0 0 0 0 
0 0 0 0 0 0 0 0 0 
0 0 0 0 0 0 0 0 0 
0 0 0 0 0 0 0 0 0 
0 0 0 0 0 0 0 0 0 
0 0 0 0 0 0 0 0 0 
0 0 0 0 0 0 0 0 0 
0 0 0 0 0 0 0 0 0 
0 0 0 0 0 0 0 0 0 
0 0 0 0 0 0 0 0 0 
0 0 0 0 0 0 0 0 0 
0 0 0 0 0 0 0 0 0 
0 0 0 0 0 0 0 0 0 
0 0 0 0 0 0 0 0 0 
0 0 0 0 0 0 0 0 0 
0 0 0 0 0 0 0 0 0 
0 0 0 0 0 0 0 0 0 
0 0 0 0 0 0 0 0 0 
0 0 0 0 0 0 0 0 0 
0 0 0 0 0 0 0 0 0 
0 0 0 0 0 0 0 
NORMALS Normals float
0.0142331 0.419573 0.90761 0.0998028 0.261356 0.960069 0.0316063 0.199319 0.979425 
0.00436591 0.120691 0.992681 0.0407036 0.204353 0.978051 0.12098 0.240831 0.962998 
0.0797502 0.236495 0.968354 -0.0972719 0.277281 0.955852 -0.372883 0.337834 0.864191 
0.207359 0.262674 0.94234 0.0413541 0.230852 0.97211 -0.060663 0.204361 0.977014 
0.038693 0.165517 0.985448 0.128646 0.286622 0.949367 0.0707881 0.13738 0.987986 
0.0745183 0.0678739 0.994907 -0.0271933 0.111545 0.993387 -0.279563 0.199525 0.939167 
0.366527 0.24103 0.898645 0.177587 0.173675 0.968659 0.0384985 0.129445 0.990839 
-0.0222717 0.181853 0.983074 0.080636 0.312597 0.946457 0.000773679 0.019125 0.999817 
-0.0898775 0.0685906 0.993588 0.059313 0.0623413 0.996291 0.0317857 0.0371994 0.998802 
-0.177785 0.0908415 0.979868 -0.406954 0.223016 0.885806 0.310411 0.117198 0.94335 
0.0832952 0.0596552 0.994738 0.0575502 -0.033821 0.99777 0.116423 0.000905787 0.993199 
-0.107722 0.199001 0.974061 -0.123705 0.0777124 0.989271 0.113402 0.192836 0.974656 
0.0426838 0.0698217 0.996646 0.0010106 -0.00110401 0.999999 -0.107082 0.0354748 0.993617 
-0.280192 0.130565 0.951023 -0.489013 0.248196 0.836221 0.289864 -0.0161898 0.956931 
0.0242072 0.000246586 0.999707 -0.0221415 0.01556 0.999634 0.2114 -0.0377001 0.976672 
0.185937 -0.0965656 0.977805 -0.0228394 0.127279 0.991604 -0.114355 0.0725301 0.990789 
-0.13214 -0.00695718 0.991207 -0.0014242 -0.0286871 0.999587 -0.048866 0.00344118 0.998799 
-0.186254 0.055603 0.980927 -0.40249 0.0941409 0.910571 0.315951 -0.0960077 0.943906 
0.118421 -0.0368988 0.992278 0.0195705 0.0863116 0.996076 0.0116625 0.0612158 0.998056 
0.0545921 -0.137668 0.988973 0.0621591 -0.0756891 0.995192 -0.0303453 -0.0301029 0.999086 
-0.0682736 0.0587313 0.995936 0.0112149 0.024196 0.999644 -0.0236639 0.0113522 0.999656 
-0.188358 -0.0147265 0.98199 -0.439304 -0.0247509 0.897998 0.367913 -0.150957 0.917525 
0.203399 -0.0471025 0.977962 0.0724166 -0.0143558 0.997271 -0.0070396 0.0160789 0.999846 
0.0339149 0.0204573 0.999215 0.0958167 0.0552149 0.993866 0.0242252 0.0751773 0.996876 
-0.0725154 0.109858 0.991298 -0.0477348 0.0342942 0.998271 -0.0970604 -0.0993162 0.990311 
-0.225773 -0.161195 0.960751 -0.482137 -0.191435 0.854925 0.486215 -0.392808 0.780575 
0.256863 -0.265549 0.92925 0.0835911 -0.198562 0.976517 0.0468452 -0.151806 0.9873 
0.094277 -0.0639281 0.993491 0.112203 0.00538912 0.993671 0.0313144 0.00580102 0.999493 
-0.109274 -0.0558063 0.992444 -0.191498 -0.140751 0.971348 -0.219561 -0.297062 0.929272 
-0.322971 -0.468254 0.822452 0.192886 -0.587921 0.785585 0.154748 -0.479762 0.863644 
0.190001 -0.352325 0.916388 0.156691 -0.250314 0.955401 -0.0369832 -0.24006 0.970053 
-0.21672 -0.350395 0.911184 -0.324082 -0.487387 0.810818 -0.348753 -0.653452 0.671842 
0.173095 -0.755575 0.631778 -0.0583149 -0.736277 0.674163 0.194722 0.711643 0.675017 
0.0586595 0.620831 0.781747 -0.00660118 0.604151 0.796843 -0.0148241 0.618645 0.785531 
0.0108705 0.428694 0.903384 -0.0696921 0.669998 0.739084 -0.230866 0.731582 0.641474 
0.450258 0.582802 0.676469 0.136646 0.313598 0.939673 0.248966 0.469668 0.847011 
0.0546502 0.272083 0.960721 0.0851418 0.362571 0.928059 0.0253041 0.273864 0.961435 
0.0322269 0.337981 0.940601 0.018723 0.271832 0.962163 0.0117647 0.315694 0.948788 
0.0256292 0.397209 0.91737 0.0557817 0.34438 0.937172 0.0445214 0.365041 0.929926 
-0.101671 0.462172 0.880942 -0.156654 0.474819 0.866029 -0.160083 0.482441 0.861176 
-0.390935 0.400438 0.828746 -0.457667 0.545006 0.702502 0.617612 0.497143 0.60943 
0.21892 0.326864 0.919366 0.2901 0.345709 0.892372 0.332959 0.388627 0.859132 
-0.454163 0.3564 0.816526 -0.697368 0.417673 0.582433 0.359406 0.319805 0.876671 
0.413495 0.303921 0.858285 0.470418 0.368312 0.801906 -0.526929 0.317863 0.788231 
-0.529236 0.315337 0.787701 -0.554835 0.333505 0.762189 0.440968 0.266167 0.857148 
0.67976 0.356239 0.641109 -0.497385 0.291881 0.816954 -0.501477 0.260881 0.824901 
-0.618804 0.393016 0.680162 0.495449 0.139846 0.857306 0.566013 0.156487 0.809408 
-0.503746 0.253013 0.825969 -0.825524 0.283306 0.488107 0.487797 0.0011206 0.872957 
0.497235 0.00166741 0.867614 -0.542447 0.104542 0.83356 -0.799546 0.119784 0.588538 
0.456915 -0.122446 0.881043 0.536124 -0.14066 0.832338 -0.551175 -0.0461589 0.833112 
-0.846611 -0.105101 0.521731 0.503665 -0.199662 0.840509 0.741317 -0.348192 0.573769 
-0.579252 -0.224805 0.783536 -0.541635 -0.370922 0.754353 -0.896876 -0.369712 0.242747 
0.502215 -0.399564 0.766895 0.491426 -0.415848 0.765226 0.369772 -0.597135 0.711828 
-0.422865 -0.526724 0.737392 -0.375217 -0.557228 0.740749 -0.657218 -0.666622 0.351682 
0.329816 -0.638812 0.695083 0.40415 -0.698545 0.590507 0.217394 -0.671854 0.708062 
0.21527 -0.677363 0.703448 0.23435 -0.743439 0.626401 -0.259617 -0.767451 0.586189 
-0.384024 -0.638561 0.666908 -0.349264 -0.654197 0.670851 -0.349059 -0.654351 0.670807 
0.197791 -0.792077 0.577488 0.2538 -0.913357 0.318378 0.173777 -0.794781 0.581484 
-0.240844 -0.776878 0.581768 -0.0544588 -0.809691 0.584324 -0.261829 -0.786003 0.56004 
0.215067 0.797876 0.563152 0.094638 0.785484 0.611603 0.00324169 0.759341 0.650684 
-0.0259033 0.753269 0.657202 -0.109 0.770434 0.628133 -0.253789 0.771764 0.583071 
0.481643 0.661518 0.574817 0.313922 0.774278 0.549497 0.350125 0.758597 0.549493 
0.372994 0.826138 0.422339 -0.354578 0.748191 0.560789 -0.516285 0.682031 0.517961 
-0.570364 0.775918 0.269511 0.546934 0.614478 0.568577 0.649307 0.54323 0.532261 
-0.656062 0.558975 0.50708 -0.727447 0.482047 0.488316 -0.773285 0.575846 0.265389 
0.676534 0.513325 0.528014 -0.746167 0.448809 0.491737 0.777435 0.436472 0.452865 
0.791304 0.426436 0.438167 0.84553 0.445198 0.294752 -0.719546 0.472009 0.509373 
-0.715627 0.473696 0.513313 -0.749778 0.492983 0.441362 0.833504 0.383023 0.398203 
-0.754551 0.428581 0.496962 -0.833739 0.297925 0.464887 0.911329 0.202884 0.358213 
-0.838883 0.285598 0.463368 0.94166 0.0320694 0.335035 0.998424 0.00304282 -0.0560397 
-0.908322 0.117916 0.401307 0.911535 -0.242816 0.331881 -0.938535 -0.122787 0.322607 
0.855782 -0.426251 0.293167 0.815859 -0.53236 0.225759 -0.904764 -0.380004 0.192349 
-0.89558 -0.407231 0.179165 -0.897258 -0.441482 0.00456436 0.789696 -0.583363 0.189915 
0.614335 -0.771517 0.165394 -0.471828 -0.87997 0.0550449 -0.737357 -0.671471 0.073701 
-0.650696 -0.755754 0.0736922 -0.649952 -0.697416 -0.30195 0.55152 -0.822209 0.140706 
0.407922 -0.906979 0.10483 0.258032 -0.962054 0.0887246 0.231239 -0.971034 0.0601822 
-0.438328 -0.891717 0.112734 -0.464041 -0.884463 0.0489083 -0.443327 -0.89373 0.0686238 
0.234116 -0.970652 0.0549882 0.252251 -0.966483 0.0477522 0.262984 -0.917873 -0.297234 
0.202169 -0.977738 0.0561872 -0.0376957 -0.99483 0.0943023 -0.437859 -0.891956 0.112672 
-0.29022 -0.949331 0.120598 0.395615 0.915864 0.068419 0.2785 0.957526 0.0747122 
0.167605 0.98072 0.100479 0.0669688 0.984232 0.163714 -0.0115643 0.980441 0.196471 
-0.165031 0.965898 0.199513 -0.335548 0.926646 0.169514 -0.579249 0.803227 0.138917 
0.458219 0.88675 0.0609095 0.540971 0.839254 0.0547909 -0.619175 0.773216 0.136962 
-0.778433 0.607907 0.156499 0.732428 0.678906 0.0513378 0.759003 0.649394 0.0469152 
-0.796999 0.582891 0.158212 0.849591 0.526741 0.0271867 0.888175 0.459437 -0.00789434 
-0.835158 0.52616 0.160208 -0.83237 0.531232 0.157961 0.898768 0.437937 -0.0206507 
0.86656 0.418182 -0.272393 -0.838357 0.52687 0.139874 0.934429 0.349155 -0.0702369 
-0.892683 0.447189 0.0560305 -0.902261 0.428566 0.0475035 0.979989 0.173677 -0.0972499 
0.990692 0.0170674 -0.135045 -0.96669 0.255403 -0.0167129 0.990148 -0.00350483 -0.139982 
0.988726 -0.0323822 -0.14619 0.987727 -0.00610004 -0.156074 -0.991469 -0.0250109 -0.12792 
0.945018 -0.265851 -0.190431 -0.937775 -0.269413 -0.219075 -0.803221 -0.463157 -0.374595 
-0.757273 -0.371204 -0.537351 0.846293 -0.491371 -0.205773 0.780216 -0.573466 -0.249799 
0.685467 -0.481973 -0.545744 -0.731294 -0.525868 -0.434365 -0.610784 -0.665159 -0.429542 
-0.427475 -0.439602 -0.789946 0.719818 -0.633699 -0.283349 0.542414 -0.772139 -0.331042 
0.475176 -0.598309 -0.645162 -0.292914 -0.434577 -0.851671 -0.589217 -0.6746 -0.444679 
-0.423796 -0.767005 -0.481768 -0.311541 -0.522207 -0.793878 0.438398 -0.82867 -0.348014 
0.382901 -0.855557 -0.348438 0.377338 -0.800395 -0.465816 0.220234 -0.903856 -0.366798 
0.171495 -0.729039 -0.66264 0.195279 -0.886372 -0.419775 0.113265 -0.665372 -0.737869 
0.258907 -0.869872 -0.41987 -0.475582 -0.805023 -0.354625 -0.435242 -0.484293 -0.758963 
-0.467025 -0.743059 -0.479323 -0.48314 -0.73226 -0.47997 -0.457358 -0.682481 -0.570126 
0.255975 -0.876657 -0.407369 0.226957 -0.896818 -0.379747 0.238671 -0.816568 -0.525598 
0.00973521 -0.939453 -0.34254 0.0124006 -0.76699 -0.641539 -0.40948 -0.849854 -0.331775 
-0.264605 -0.907344 -0.326665 -0.265862 -0.817288 -0.511231 0.374694 0.855317 -0.357823 
0.285716 0.883098 -0.372163 0.217733 0.918912 -0.328927 0.116015 0.948481 -0.294829 
0.00384251 0.969371 -0.245572 -0.17326 0.94783 -0.267581 -0.355383 0.888074 -0.291594 
-0.570391 0.782011 -0.251223 0.405169 0.840928 -0.358718 0.537619 0.748212 -0.388772 
0.369889 0.832241 -0.412985 0.262886 0.735185 -0.624815 0.19098 0.58435 -0.788709 
-0.272088 0.633966 -0.723917 -0.593706 0.764814 -0.250146 -0.563762 0.756013 -0.33259 
-0.756154 0.607819 -0.24246 0.656639 0.647535 -0.386684 0.736877 0.545732 -0.398984 
0.509714 0.597569 -0.618953 -0.775615 0.583604 -0.240474 -0.744841 0.567786 -0.350471 
0.772572 0.473015 -0.423543 0.696112 0.429991 -0.574922 -0.818036 0.499482 -0.285192 
-0.576846 0.310623 -0.755488 -0.819278 0.483212 -0.30869 0.806129 0.382785 -0.451256 
0.816228 0.359217 -0.452476 0.541362 0.231695 -0.808235 -0.821389 0.443897 -0.358156 
-0.744319 0.360614 -0.562092 0.833729 0.273196 -0.479854 0.735583 0.220372 -0.640589 
-0.841101 0.302559 -0.448338 -0.539664 0.163408 -0.82587 -0.836025 0.13752 -0.531179 
0.805759 0.109009 -0.582125 0.649621 0.0389146 -0.759262 -0.0312504 -0.0584286 -0.997802 
-0.426276 -0.0184494 -0.904405 -0.831571 0.114011 -0.543591 -0.82128 0.110326 -0.559756 
0.783822 -0.0675264 -0.617303 0.597998 -0.065595 -0.798809 -0.0294944 -0.227139 -0.973416 
-0.0330985 -0.196896 -0.979866 -0.0366811 -0.223397 -0.974037 -0.140158 -0.247249 -0.958761 
-0.367021 -0.184565 -0.911719 -0.745376 -0.151022 -0.649313 -0.733723 -0.167953 -0.658364 
-0.737332 -0.155212 -0.657458 0.695927 -0.2795 -0.661487 0.645593 -0.402202 -0.649187 
0.615248 -0.260376 -0.744092 0.293067 -0.257683 -0.920712 -0.0876072 -0.162771 -0.982767 
-0.097168 -0.115502 -0.988543 -0.053443 -0.140506 -0.988636 -0.0516179 -0.243169 -0.968609 
-0.0165269 -0.143881 -0.989457 -0.00257279 -0.228668 -0.973501 -0.0163319 -0.271115 -0.962408 
-0.0630538 -0.33083 -0.941581 -0.13983 -0.356634 -0.92372 -0.510181 -0.386416 -0.768374 
-0.396819 -0.398666 -0.826801 -0.374836 -0.379796 -0.845726 0.589575 -0.453068 -0.668679 
0.449351 -0.557676 -0.697912 0.367337 -0.390839 -0.843984 0.156155 -0.33131 -0.93051 
-0.00423601 -0.236748 -0.971562 -0.0407435 -0.162845 -0.98581 -0.0685322 -0.134512 -0.988539 
-0.0110266 -0.0767947 -0.996986 -0.0159407 -0.0147431 -0.999764 -0.123975 -0.0862023 -0.988534 
-0.147498 -0.19442 -0.969766 -0.265046 -0.403445 -0.875776 -0.155134 -0.352797 -0.92275 
-0.281245 -0.42441 -0.860684 -0.221594 -0.429748 -0.875336 -0.216937 -0.431207 -0.875785 
0.416672 -0.57203 -0.706517 0.288305 -0.592162 -0.752479 0.248459 -0.513294 -0.82146 
0.145616 -0.628732 -0.763866 0.1003 -0.421747 -0.901149 0.0999069 -0.62069 -0.777665 
0.00867705 -0.367404 -0.930021 0.0394705 -0.298588 -0.953565 0.0702274 -0.160589 -0.98452 
-0.0249461 -0.144368 -0.98921 -0.185995 -0.156219 -0.970052 -0.291742 -0.39082 -0.87301 
-0.377105 -0.395971 -0.837257 -0.291569 -0.280069 -0.91463 0.147204 -0.60318 -0.783904 
0.179721 -0.581008 -0.793807 0.171099 -0.56192 -0.809303 0.193938 -0.579651 -0.79145 
0.149527 -0.430791 -0.889978 0.00915354 -0.614725 -0.788688 -0.0081052 -0.377424 -0.926005 
-0.361813 -0.43156 -0.826346 -0.250994 -0.546447 -0.798998 -0.241678 -0.386468 -0.890075 
0.0905688 0.566856 -0.818824 -0.0212172 0.527726 -0.84915 -0.144362 0.505616 -0.850595 
0.2995 0.534817 -0.790108 0.198646 0.55182 -0.809959 0.170986 0.563765 -0.808043 
0.180495 0.558777 -0.809438 0.0781143 0.499665 -0.86269 -0.0374065 0.422814 -0.905444 
-0.165839 0.502658 -0.848429 -0.137052 0.475296 -0.869086 -0.223159 0.457199 -0.860912 
-0.33105 0.351984 -0.875507 0.353387 0.49758 -0.792169 0.433197 0.369216 -0.822204 
0.278549 0.464348 -0.840709 0.125157 0.390062 -0.912243 0.0389222 0.292254 -0.955548 
-0.021841 0.188988 -0.981736 -0.0184829 0.141905 -0.989708 -0.0466693 0.178496 -0.982833 
-0.181691 0.241747 -0.953177 -0.342912 0.340108 -0.875635 -0.319978 0.329567 -0.888256 
0.457902 0.311804 -0.832528 0.403892 0.282483 -0.8701 0.204678 0.198495 -0.958492 
0.066413 0.146523 -0.986975 -0.0400001 0.077175 -0.996215 -0.089058 0.0022058 -0.996024 
-0.0421307 -0.00847144 -0.999076 -0.0145271 -0.010692 -0.999837 -0.0710621 0.0330241 -0.996925 
-0.431025 0.218077 -0.875591 -0.243953 0.117449 -0.962649 -0.425515 0.187694 -0.885273 
0.482742 0.199623 -0.852708 0.452458 0.143225 -0.880209 0.304229 0.0887671 -0.948454 
0.151309 0.0141666 -0.988385 0.00181013 -0.0225893 -0.999743 -0.110419 -0.0510797 -0.992572 
-0.109568 -0.0607254 -0.992123 -0.0361652 -0.0261762 -0.999003 -0.00679499 -0.119606 -0.992798 
-0.0464275 -0.106869 -0.993189 -0.114539 -0.03367 -0.992848 -0.407638 0.142452 -0.901964 
-0.3366 0.10677 -0.935575 0.422724 0.0839283 -0.902364 0.381788 0.0696895 -0.921619 
0.212753 -0.017778 -0.976944 0.0960062 -0.102434 -0.990096 0.00140019 -0.154619 -0.987973 
-0.0774321 -0.0954676 -0.992416 -0.063088 -0.127251 -0.989862 -0.102278 -0.0842899 -0.991178 
-0.0356848 -0.0662674 -0.997164 -0.09644 -0.183854 -0.978211 0.0133441 -0.124453 -0.992136 
-0.0408725 -0.0566623 -0.997556 -0.294304 0.0233837 -0.955426 -0.216894 -0.0145547 -0.976087 
0.378249 -0.0261156 -0.925336 0.347043 -0.0299665 -0.93737 0.144926 -0.0814216 -0.986087 
0.0118618 -0.169827 -0.985403 0.0090135 -0.258647 -0.96593 -0.081256 -0.209289 -0.974472 
-0.115302 -0.145807 -0.982571 -0.0348528 -0.0682405 -0.99706 -0.0344879 -0.226026 -0.973511 
-0.0848644 -0.205536 -0.974963 -0.0195518 -0.0625918 -0.997848 -0.0258138 -0.0704051 -0.997184 
-0.0262131 -0.190737 -0.981291 0.0776741 -0.0949634 -0.992446 -0.0348591 -0.216847 -0.975583 
-0.00227894 -0.106892 -0.994268 -0.237128 -0.0702132 -0.968938 -0.15342 -0.169696 -0.973481 
-0.168439 -0.0902195 -0.981575 0.292745 -0.0985313 -0.9511 0.287767 -0.107377 -0.951662 
0.287692 -0.0993135 -0.95256 0.0680305 -0.127085 -0.989556 -0.0877432 -0.164162 -0.982523 
-0.0807749 -0.18798 -0.978846 -0.0685187 -0.223071 -0.972391 -0.0641272 -0.234977 -0.969883 
0.0446824 -0.299607 -0.953016 0.0553486 -0.316297 -0.947044 -0.0290635 -0.224165 -0.974118 
-0.0296028 -0.218869 -0.975305 -0.0269595 -0.190816 -0.981256 -0.0227624 -0.207195 -0.978035 
-0.0295492 -0.19082 -0.98118 0.00303613 -0.14883 -0.988858 0.00320782 -0.129751 -0.991541 
0.112683 -0.209173 -0.971365 -0.0573712 -0.169765 -0.983813 0.0810396 -0.218388 -0.972491 
0.0661125 -0.19793 -0.977984 
