# vtk DataFile Version 4.2
vtk output
ASCII
DATASET POLYDATA
POINTS 508 float
34.7237 -21.2674 -24.5053 -20.4728 -29.1526 -17.0508 -12.5876 -29.1526 -17.2889 
-4.7024 -29.1526 -16.997 3.18282 -29.1526 -18.1356 11.068 -29.1526 -19.5376 
18.9532 -29.1526 -20.3175 26.8385 -29.1526 -21.0843 34.7237 -21.6209 -24.3726 
34.7237 -29.1526 -20.563 42.6089 -29.1526 -19.3445 -36.2432 -21.2674 -17.7821 
-28.358 -21.2674 -20.0584 -20.4728 -21.2674 -20.7592 -12.5876 -21.2674 -20.3947 
-4.7024 -21.2674 -19.6796 3.18282 -21.2674 -21.0046 11.068 -21.2674 -21.8364 
18.9532 -21.2674 -22.0066 34.0258 -21.2674 -24.3726 26.8385 -21.2674 -22.6271 
35.2697 -21.2674 -24.3726 34.7237 -20.4061 -24.3726 42.6089 -21.2674 -22.009 
50.4941 -21.2674 -20.6119 -44.1285 -13.3822 -16.5635 -36.2432 -13.3822 -19.4131 
-28.358 -13.3822 -21.1903 -20.4728 -13.3822 -21.1005 -12.5876 -13.3822 -20.9815 
-4.7024 -13.3822 -20.4696 3.18282 -13.3822 -22.6401 11.068 -13.3822 -22.7213 
18.9532 -13.3822 -21.5769 26.8385 -13.3822 -22.0869 34.7237 -13.3822 -23.0144 
42.6089 -13.3822 -23.9115 50.4941 -13.3822 -22.9532 58.3793 -13.3822 -18.3664 
-44.1285 -5.49698 -17.5542 -36.2432 -5.49698 -19.8137 -28.358 -5.49698 -20.1468 
-20.4728 -5.49698 -20.5172 -12.5876 -5.49698 -21.2783 -4.7024 -5.49698 -21.2247 
3.18282 -5.49698 -23.138 11.068 -5.49698 -23.7229 18.9532 -5.49698 -20.7146 
26.8385 -5.49698 -21.6431 34.7237 -5.49698 -22.7538 42.6089 -5.49698 -23.7449 
50.4941 -5.49698 -22.3338 58.3793 -5.49698 -19.3252 -44.1285 2.38823 -16.7389 
-36.2432 2.38823 -18.8652 -28.358 2.38823 -19.7363 -20.4728 2.38823 -19.9307 
-12.5876 2.38823 -23.0692 -4.7024 2.38823 -22.1094 3.18282 2.38823 -21.0385 
11.068 2.38823 -24.0043 18.9532 2.38823 -21.544 26.8385 2.38823 -21.4935 
34.7237 2.38823 -22.3515 42.6089 2.38823 -22.7633 50.4941 2.38823 -21.5628 
58.3793 2.38823 -18.8728 -36.2432 10.2734 -16.5139 -28.358 10.2734 -17.5557 
-20.4728 10.2734 -18.1055 -12.5876 10.2734 -20.846 -4.7024 10.2734 -21.786 
3.18282 10.2734 -21.1548 11.068 10.2734 -22.5987 18.9532 10.2734 -21.7234 
26.8385 10.2734 -21.6882 34.7237 10.2734 -21.9416 42.6089 10.2734 -21.746 
50.4941 10.2734 -20.8452 58.3793 10.2734 -16.6252 -4.7024 18.1587 -17.8412 
3.18282 18.1587 -19.6234 11.068 18.1587 -20.3207 18.9532 18.1587 -20.5988 
26.8385 18.1587 -21.0786 34.7237 18.1587 -21.103 42.6089 18.1587 -20.6934 
50.4941 18.1587 -18.0494 18.9532 26.0439 -17.9773 26.8385 26.0439 -18.6692 
34.7237 26.0439 -19.0835 42.6089 26.0439 -17.2088 -20.4728 -29.7791 -16.4874 
-12.5876 -30.0958 -16.4874 -4.7024 -29.8054 -16.4874 3.18282 -31.3082 -16.4874 
11.068 -32.8893 -16.4874 18.9532 -34.2188 -16.4874 18.9532 -37.0378 -10.1289 
26.8385 -34.1119 -16.4874 34.7237 -34.379 -16.4874 42.6089 -31.9877 -16.4874 
-36.2432 -23.4499 -16.4874 -36.2432 -29.1526 -10.4766 -24.3445 -29.1526 -16.4874 
-28.358 -28.1734 -16.4874 -28.358 -29.1526 -15.5192 48.7138 -29.1526 -16.4874 
50.4941 -27.9296 -16.4874 50.4941 -29.1526 -12.9526 -39.6 -21.2674 -16.4874 
-44.1285 -13.6806 -16.4874 -44.1285 -21.2674 -13.8319 56.28 -21.2674 -16.4874 
58.3793 -18.234 -16.4874 58.3793 -21.2674 -11.4371 -44.2613 -13.3822 -16.4874 
-52.0137 -13.3822 -11.1451 60.4245 -13.3822 -16.4874 -46.1283 -5.49698 -16.4874 
-52.0137 -5.49698 -13.0047 61.6078 -5.49698 -16.4874 -44.6311 2.38823 -16.4874 
-52.0137 2.38823 -12.3184 -44.1285 3.25043 -16.4874 61.0157 2.38823 -16.4874 
-52.0137 10.2734 -10.1623 -36.3479 10.2734 -16.4874 -44.1285 10.2734 -14.2658 
-36.2432 10.3292 -16.4874 -28.358 12.6382 -16.4874 -20.4728 13.7185 -16.4874 
-12.5876 16.0206 -16.4874 58.5371 10.2734 -16.4874 58.3793 10.6625 -16.4874 
-44.1285 18.1587 -10.0048 -36.2432 18.1587 -12.3147 -28.358 18.1587 -13.6131 
-20.4728 18.1587 -14.2436 -8.54115 18.1587 -16.4874 -12.5876 18.1587 -15.0672 
-4.7024 20.0795 -16.4874 3.18282 23.2168 -16.4874 11.068 25.8961 -16.4874 
53.2136 18.1587 -16.4874 50.4941 21.7915 -16.4874 58.3793 18.1587 -10.8395 
-20.4728 26.0439 -8.8448 -12.5876 26.0439 -10.0277 -4.7024 26.0439 -11.7956 
3.18282 26.0439 -14.2423 11.4432 26.0439 -16.4874 11.068 26.0439 -16.4013 
18.9532 28.5059 -16.4874 26.8385 29.8446 -16.4874 34.7237 30.6341 -16.4874 
44.7561 26.0439 -16.4874 42.6089 27.0663 -16.4874 50.4941 26.0439 -13.5498 
11.068 33.9291 -9.27498 18.9532 33.9291 -12.1409 26.8385 33.9291 -13.4059 
34.7237 33.9291 -13.1639 42.6089 33.9291 -9.24542 18.9532 -37.5173 -8.60221 
-36.2432 -30.273 -8.60221 -28.358 -32.8798 -8.60221 -20.4728 -34.3097 -8.60221 
-12.5876 -35.1525 -8.60221 -4.7024 -35.5507 -8.60221 3.18282 -36.2121 -8.60221 
11.3225 -37.0378 -8.60221 11.068 -37.0214 -8.60221 23.4113 -37.0378 -8.60221 
18.9532 -37.0378 -6.11462 26.8385 -36.6692 -8.60221 34.7237 -35.7529 -8.60221 
42.6089 -33.823 -8.60221 50.4941 -29.9175 -8.60221 -38.6599 -29.1526 -8.60221 
-44.1285 -25.9221 -8.60221 51.5036 -29.1526 -8.60221 50.4941 -29.1526 -7.03615 
58.3793 -22.1891 -8.60221 -49.2506 -21.2674 -8.60221 -52.0137 -17.3802 -8.60221 
-52.0137 -21.2674 -3.5985 59.1505 -21.2674 -8.60221 58.3793 -21.2674 -7.28055 
-54.3073 -13.3822 -8.60221 62.6076 -13.3822 -8.60221 -56.0592 -5.49698 -8.60221 
64.3176 -5.49698 -8.60221 -55.6577 2.38823 -8.60221 63.8858 2.38823 -8.60221 
-53.5738 10.2734 -8.60221 -52.0137 12.3991 -8.60221 62.2345 10.2734 -8.60221 
-46.0309 18.1587 -8.60221 -52.0137 18.1587 -1.93293 -44.1285 19.6385 -8.60221 
-36.2432 22.893 -8.60221 -28.358 24.7807 -8.60221 59.3584 18.1587 -8.60221 
58.3793 19.7068 -8.60221 58.3793 18.1587 -5.62306 -36.2432 26.0439 -4.93513 
-22.0208 26.0439 -8.60221 -28.358 26.0439 -7.43845 -20.4728 26.3028 -8.60221 
-12.5876 27.5648 -8.60221 -4.7024 29.0862 -8.60221 3.18282 31.3782 -8.60221 
53.5716 26.0439 -8.60221 50.4941 29.1097 -8.60221 -4.7024 33.9291 -0.744713 
9.60364 33.9291 -8.60221 3.18282 33.9291 -4.70008 11.068 34.456 -8.60221 
18.9532 36.9326 -8.60221 26.8385 37.2594 -8.60221 34.7237 36.7153 -8.60221 
43.2217 33.9291 -8.60221 42.6089 34.2717 -8.60221 42.6089 33.9291 -2.06019 
-36.2432 -31.9958 -0.716996 -28.358 -34.0676 -0.716996 -20.4728 -35.3575 -0.716996 
-12.5876 -35.9441 -0.716996 -4.7024 -36.1088 -0.716996 3.18282 -36.3241 -0.716996 
11.068 -36.3889 -0.716996 18.9532 -35.8356 -0.716996 26.8385 -34.0212 -0.716996 
34.7237 -31.8166 -0.716996 42.6089 -29.6854 -0.716996 -52.0137 -22.5232 -0.716996 
-43.1226 -29.1526 -0.716996 -44.1285 -28.6623 -0.716996 26.8385 -29.1526 4.50124 
34.7237 -29.1526 1.81761 43.6967 -29.1526 -0.716996 42.6089 -29.1526 -0.190444 
50.4941 -24.8699 -0.716996 -53.18 -21.2674 -0.716996 34.7237 -21.2674 6.6476 
42.6089 -21.2674 4.00014 53.8945 -21.2674 -0.716996 50.4941 -21.2674 1.68584 
58.3793 -13.4549 -0.716996 -57.6506 -13.3822 -0.716996 50.4941 -13.3822 4.71548 
58.4126 -13.3822 -0.716996 58.3793 -13.3822 -0.684743 -59.5882 -5.49698 -0.716996 
50.4941 -5.49698 5.70366 61.2149 -5.49698 -0.716996 58.3793 -5.49698 2.13337 
-59.7854 2.38823 -0.716996 -59.8989 2.38823 0.987996 50.4941 2.38823 6.28847 
60.9289 2.38823 -0.716996 58.3793 2.38823 1.94823 -57.7972 10.2734 -0.716996 
50.4941 10.2734 5.75918 59.6746 10.2734 -0.716996 58.3793 13.6672 -0.716996 
58.3793 10.2734 0.716577 -52.8485 18.1587 -0.716996 -52.0137 19.1082 -0.716996 
-44.1285 25.3549 -0.716996 56.1035 18.1587 -0.716996 50.4941 18.1587 6.06667 
-42.6688 26.0439 -0.716996 -44.1285 26.0439 0.849254 -36.2432 28.8525 -0.716996 
-28.358 30.9508 -0.716996 -20.4728 32.1106 -0.716996 -12.5876 32.8367 -0.716996 
42.6089 33.8221 -0.716996 42.6089 26.0439 5.55582 51.5869 26.0439 -0.716996 
50.4941 27.2577 -0.716996 50.4941 26.0439 0.464071 -20.4728 33.9291 7.10157 
-4.80763 33.9291 -0.716996 -12.5876 33.9291 3.77169 -4.7024 33.944 -0.716996 
3.18282 36.1492 -0.716996 11.068 38.0881 -0.716996 18.9532 38.7159 -0.716996 
26.8385 38.5803 -0.716996 42.444 33.9291 -0.716996 34.7237 37.169 -0.716996 
34.7237 33.9291 3.9035 -36.2432 -30.9114 7.16822 -28.358 -33.1092 7.16822 
-20.4728 -34.4366 7.16822 -12.5876 -34.6686 7.16822 -4.7024 -34.2518 7.16822 
3.18282 -34.0593 7.16822 11.068 -33.3319 7.16822 18.9532 -30.4944 7.16822 
-52.0137 -21.591 7.16822 -40.5181 -29.1526 7.16822 -44.1285 -27.4451 7.16822 
-36.2432 -29.1526 11.2763 -4.7024 -29.1526 14.8003 3.18282 -29.1526 13.4529 
11.068 -29.1526 12.3728 21.582 -29.1526 7.16822 18.9532 -29.1526 8.59203 
26.8385 -24.4973 7.16822 -52.315 -21.2674 7.16822 -52.0137 -21.2674 7.7873 
18.9532 -21.2674 13.0051 32.8857 -21.2674 7.16822 26.8385 -21.2674 8.70624 
34.7237 -19.7839 7.16822 42.6089 -13.489 7.16822 -57.2629 -13.3822 7.16822 
26.8385 -13.3822 11.3378 34.7237 -13.3822 9.16816 42.7858 -13.3822 7.16822 
42.6089 -13.3822 7.20963 -59.5817 -5.49698 7.16822 -59.8989 -1.97742 7.16822 
26.8385 -5.49698 13.5784 34.7237 -5.49698 11.2383 47.4136 -5.49698 7.16822 
42.6089 -5.49698 9.29725 -60.2885 2.38823 7.16822 -59.8989 5.47939 7.16822 
-59.8989 2.38823 8.5802 34.7237 2.38823 12.3561 48.4853 2.38823 7.16822 
42.6089 2.38823 9.71422 -59.2567 10.2734 7.16822 34.7237 10.2734 12.5703 
47.7261 10.2734 7.16822 42.6089 10.2734 9.62448 -55.1243 18.1587 7.16822 
-52.0137 22.0363 7.16822 26.8385 18.1587 14.2941 34.7237 18.1587 11.715 
48.2272 18.1587 7.16822 42.6089 22.5021 7.16822 42.6089 18.1587 8.73846 
-47.5633 26.0439 7.16822 -44.1285 28.3989 7.16822 -36.2432 31.6098 7.16822 
-28.358 33.2046 7.16822 18.9532 26.0439 14.7924 26.8385 26.0439 12.1719 
39.9758 26.0439 7.16822 34.7237 30.2215 7.16822 34.7237 26.0439 9.76049 
-20.6201 33.9291 7.16822 -20.4728 33.9428 7.16822 -20.4728 33.9291 7.36889 
-12.5876 34.7081 7.16822 -12.5876 33.9291 12.6877 -4.7024 35.8868 7.16822 
-4.7024 33.9291 14.9484 3.18282 37.2579 7.16822 3.18282 33.9291 14.1195 
11.068 37.5229 7.16822 11.068 33.9291 12.4623 18.9532 36.4384 7.16822 
18.9532 33.9291 9.97285 28.0199 33.9291 7.16822 26.8385 34.4752 7.16822 
26.8385 33.9291 7.6544 -28.358 -29.6464 15.0534 -20.4728 -30.6885 15.0534 
-12.5876 -30.4723 15.0534 -44.1285 -23.1707 15.0534 -30.1307 -29.1526 15.0534 
-36.2432 -27.1918 15.0534 -28.358 -29.1526 15.6597 -20.4728 -29.1526 16.7212 
[...]
POINT_DATA 508
SCALARS ImageScalars float
LOOKUP_TABLE default
0 0 0 0 0 0 0 0 0 
0 0 0 0 0 0 0 0 0 
0 0 0 0 0 0 0 0 0 
0 0 0 0 0 0 0 0 0 
0 0 0 0 0 0 0 0 0 
0 0 0 0 0 0 0 0 0 
0 0 0 0 0 0 0 0 0 
0 0 0 0 0 0 0 0 0 
0 0 0 0 0 0 0 0 0 
0 0 0 0 0 0 0 0 0 
0 0 0 0 0 0 0 0 0 
0 0 0 0 0 0 0 0 0 
0 0 0 0 0 0 0 0 0 
0 0 0 0 0 0 0 0 0 
0 0 0 0 0 0 0 0 0 
0 0 0 0 0 0 0 0 0 
0 0 0 0 0 0 0 0 0 
0 0 0 0 0 0 0 0 0 
0 0 0 0 0 0 0 0 0 
0 0 0 0 0 0 0 0 0 
0 0 0 0 0 0 0 0 0 
0 0 0 0 0 0 0 0 0 
0 0 0 0 0 0 0 0 0 
0 0 0 0 0 0 0 0 0 
0 0 0 0 0 0 0 0 0 
0 0 0 0 0 0 0 0 0 
0 0 0 0 0 0 0 0 0 
0 0 0 0 0 0 0 0 0 
0 0 0 0 0 0 0 0 0 
0 0 0 0 0 0 0 0 0 
0 0 0 0 0 0 0 0 0 
0 0 0 0 0 0 0 0 0 
0 0 0 0 0 0 0 0 0 
0 0 0 0 0 0 0 0 0 
0 0 0 0 0 0 0 0 0 
0 0 0 0 0 0 0 0 0 
0 0 0 0 0 0 0 0 0 
0 0 0 0 0 0 0 0 0 
0 0 0 0 0 0 0 0 0 
0 0 0 0 0 0 0 0 0 
0 0 0 0 0 0 0 0 0 
0 0 0 0 0 0 0 0 0 
0 0 0 0 0 0 0 0 0 
0 0 0 0 0 0 0 0 0 
0 0 0 0 0 0 0 0 0 
0 0 0 0 0 0 0 0 0 
0 0 0 0 0 0 0 0 0 
0 0 0 0 0 0 0 0 0 
0 0 0 0 0 0 0 0 0 
0 0 0 0 0 0 0 0 0 
0 0 0 0 0 0 0 0 0 
0 0 0 0 0 0 0 0 0 
0 0 0 0 0 0 0 0 0 
0 0 0 0 0 0 0 0 0 
0 0 0 0 0 0 0 0 0 
0 0 0 0 0 0 0 0 0 
0 0 0 0 
NORMALS Normals float
-0.0307381 0.128802 0.991194 0.0779573 0.644745 0.760412 -0.00294804 0.584714 0.811234 
0.0518103 0.528851 0.847132 0.14353 0.514797 0.845212 0.133631 0.486822 0.863219 
0.0872061 0.432355 0.897477 0.0158314 0.458957 0.888317 -0.031642 0.144097 0.989057 
-0.084629 0.551344 0.829974 -0.291374 0.595334 0.748785 0.319998 0.359017 0.87676 
0.180458 0.289734 0.939941 0.0216002 0.220858 0.975067 -0.0678571 0.211017 0.975124 
0.0371522 0.193584 0.98038 0.134948 0.261172 0.955813 0.0607931 0.177597 0.982224 
0.0496305 0.0732015 0.996081 -0.0152425 0.121383 0.992489 0.14577 0.0450889 0.988291 
-0.0411736 0.13382 0.99015 -0.0157955 0.105173 0.994328 -0.216685 0.240021 0.946276 
-0.430843 0.438784 0.78857 0.428929 0.169219 0.887347 0.265803 0.122281 0.956241 
0.102411 0.00614998 0.994723 -0.0129992 -0.0150584 0.999802 -0.0397486 0.0535842 0.997772 
0.0965699 0.0965526 0.990632 0.14554 0.131255 0.980607 -0.0689451 0.112304 0.991279 
-0.0369635 -0.0808066 0.996044 0.0905307 -0.0613348 0.994003 0.111492 -0.100264 0.988694 
0.00918107 0.101638 0.994779 -0.329372 0.0683107 0.941726 -0.645583 0.232131 0.727556 
0.386488 0.00702801 0.922268 0.147542 -0.0334869 0.988489 0.0432511 -0.0889204 0.995099 
0.0692234 -0.0732618 0.994907 0.045454 0.120447 0.991679 0.105685 0.0963992 0.989716 
0.161919 -0.09164 0.98254 -0.168333 0.0847452 0.982081 -0.110648 -0.00502812 0.993847 
0.128001 -0.0373514 0.99107 0.130393 -0.0415622 0.990591 -0.0298938 -0.0723792 0.996929 
-0.268583 -0.0812655 0.959822 -0.597144 0.0307093 0.801546 0.353134 -0.176163 0.918838 
0.176551 -0.198788 0.964009 0.0641633 -0.15568 0.985721 0.188329 -0.142992 0.971641 
0.152962 0.00698068 0.988207 -0.122718 0.0399995 0.991635 0.140514 -0.124422 0.98223 
0.0159492 -0.0719551 0.99728 -0.163626 0.0658965 0.984319 0.0513545 0.00286343 0.998676 
0.0796052 -0.0512552 0.995508 -0.0566096 -0.124798 0.990566 -0.238089 -0.0853186 0.967489 
-0.576789 -0.160584 0.800954 0.177185 -0.356067 0.917508 0.0929341 -0.343702 0.934469 
0.163282 -0.333062 0.928659 0.233321 -0.439803 0.867257 0.00447829 -0.236503 0.97162 
0.0534648 -0.0837559 0.995051 0.0344633 -0.224207 0.973932 -0.0567017 -0.0574821 0.996735 
0.013824 -0.0247932 0.999597 0.00398113 -0.082052 0.99662 -0.0607684 -0.138187 0.98854 
-0.296358 -0.192314 0.935514 -0.637706 -0.315896 0.702525 0.241258 -0.518658 0.820237 
0.139892 -0.366086 0.920006 0.0571277 -0.352165 0.934193 0.0462637 -0.227121 0.972767 
0.0313778 -0.176231 0.983849 -0.0260804 -0.180267 0.983272 -0.15578 -0.224668 0.961903 
-0.440825 -0.349434 0.826783 0.124552 -0.434148 0.89219 0.0686581 -0.387513 0.919304 
-0.0644848 -0.394535 0.916616 -0.268301 -0.533618 0.802039 0.0826159 0.676787 0.731528 
0.00345751 0.631862 0.775073 0.0554687 0.564494 0.823571 0.142002 0.631289 0.762437 
0.139671 0.703547 0.696788 0.0593021 0.743833 0.66573 -0.00967579 0.988216 0.152759 
0.00856633 0.809649 0.586852 -0.100828 0.850185 0.516739 -0.353059 0.775778 0.52299 
0.351476 0.46512 0.812482 0.379465 0.816984 0.434215 0.158764 0.672099 0.723241 
0.235804 0.642627 0.72899 0.242903 0.715598 0.654918 -0.472085 0.709725 0.522901 
-0.508227 0.683058 0.524535 -0.578513 0.786742 0.215311 0.404237 0.399825 0.822638 
0.432938 0.179453 0.883381 0.544494 0.492216 0.679154 -0.679352 0.486273 0.549562 
-0.711912 0.404156 0.574317 -0.790981 0.603163 0.102684 0.431317 0.170709 0.885903 
0.683494 0.316771 0.657641 -0.764938 0.260137 0.589235 0.429454 0.0152477 0.90296 
0.624663 0.0496485 0.779315 -0.791259 0.0326045 0.610612 0.365963 -0.175068 0.914014 
0.62916 -0.148927 0.762875 0.353522 -0.194623 0.914956 -0.773051 -0.159991 0.613836 
0.61254 -0.397208 0.683389 0.179345 -0.356132 0.917063 0.357469 -0.368837 0.858007 
0.177277 -0.357229 0.917039 0.0943911 -0.390129 0.915909 0.111282 -0.399934 0.909763 
0.209485 -0.530421 0.821443 -0.645017 -0.316578 0.695508 -0.639881 -0.323833 0.69691 
0.397759 -0.582424 0.708922 0.184183 -0.556247 0.810349 0.103161 -0.517054 0.849713 
0.0765186 -0.497262 0.864219 0.228961 -0.538501 0.810921 0.191817 -0.541913 0.818252 
0.247833 -0.554456 0.794454 0.200885 -0.548503 0.811659 0.18717 -0.525628 0.829869 
-0.523689 -0.376735 0.764081 -0.465565 -0.430195 0.773422 -0.844767 -0.484155 0.227955 
0.121916 -0.668144 0.733975 0.146858 -0.643408 0.751305 0.200185 -0.676833 0.708395 
0.227043 -0.645932 0.728851 0.18653 -0.524553 0.830693 0.190066 -0.529821 0.826538 
0.140986 -0.5045 0.851823 0.0798907 -0.539471 0.838205 -0.0936924 -0.593538 0.799334 
-0.328859 -0.544523 0.771587 -0.282723 -0.561078 0.777984 -0.567033 -0.631003 0.529441 
0.275563 -0.772445 0.572183 0.182725 -0.734969 0.653017 0.050271 -0.767095 0.639561 
-0.139498 -0.807016 0.573816 -0.415378 -0.868737 0.269734 -0.0224942 0.998033 0.0585166 
0.365689 0.859232 0.35776 0.233933 0.925669 0.297341 0.137142 0.947867 0.287646 
0.0768121 0.952291 0.295367 0.0656382 0.956591 0.283947 0.0911711 0.970387 0.223691 
0.0775819 0.986831 0.141932 0.0809685 0.986122 0.144939 -0.0712463 0.997298 0.0178958 
-0.0529011 0.996283 -0.0679863 -0.10978 0.993863 -0.0135823 -0.172121 0.976397 -0.130477 
-0.349366 0.925958 -0.143339 -0.586574 0.795844 -0.150209 0.415094 0.829222 0.374284 
0.552513 0.713584 0.430728 -0.618465 0.770309 -0.155324 -0.586183 0.770963 -0.249007 
-0.763428 0.629232 -0.145753 0.660587 0.576566 0.480829 0.718195 0.459634 0.52243 
0.733726 0.627829 0.259764 -0.781022 0.608688 -0.139657 -0.77032 0.608227 -0.191486 
0.784531 0.330486 0.52468 -0.949167 0.293936 -0.112624 0.82069 0.0691331 0.567176 
-0.996195 0.0783432 -0.0381841 0.782115 -0.13308 0.608758 -0.991651 -0.128324 -0.0127074 
0.677107 -0.396154 0.620152 0.629615 -0.458859 0.626924 -0.957736 -0.285283 0.0368189 
0.46398 -0.596476 0.654934 0.682355 -0.598406 0.419883 0.408684 -0.626682 0.663511 
0.230084 -0.674021 0.701967 0.138364 -0.671965 0.727543 -0.885905 -0.461771 0.0440482 
-0.863665 -0.500584 0.0591453 -0.870343 -0.462423 -0.169315 0.288126 -0.772789 0.565492 
0.127146 -0.674888 0.726884 0.151342 -0.716114 0.681378 0.122982 -0.675616 0.726924 
0.139197 -0.692575 0.707788 0.182605 -0.752836 0.632371 0.261766 -0.764905 0.588556 
-0.721057 -0.681393 0.12562 -0.630984 -0.761458 0.148462 0.189581 -0.909647 0.369597 
0.276213 -0.782773 0.55765 0.271004 -0.844978 0.461053 0.278785 -0.78726 0.550001 
0.166602 -0.861892 0.478943 -0.0160575 -0.922489 0.38569 -0.185283 -0.933069 0.308306 
-0.430513 -0.874517 0.223334 -0.415475 -0.881114 0.225871 -0.511609 -0.825395 -0.238703 
0.331665 0.942749 0.0349597 0.202184 0.979243 0.0142892 0.116265 0.993196 0.00659926 
0.047325 0.998411 -0.0305765 0.023982 0.9969 -0.07494 0.0175778 0.992426 -0.121581 
-0.0262878 0.978057 -0.206671 -0.132449 0.917165 -0.375854 -0.215 0.837165 -0.502922 
-0.235564 0.727929 -0.643917 -0.313685 0.680309 -0.662406 0.724598 0.678582 0.120355 
0.482094 0.874421 0.0545294 0.507241 0.859728 0.059789 -0.310701 0.593032 -0.742818 
-0.242768 0.624675 -0.742189 -0.338953 0.674243 -0.65613 -0.311479 0.664675 -0.679109 
-0.503978 0.57002 -0.648909 0.765708 0.631575 0.121671 -0.26724 0.389707 -0.881312 
-0.283147 0.404668 -0.869524 -0.628628 0.497314 -0.597917 -0.41461 0.471946 -0.778052 
-0.647547 0.354986 -0.674291 0.915957 0.372575 0.149034 -0.448347 0.250023 -0.85818 
-0.647429 0.353133 -0.675376 -0.646159 0.352336 -0.677006 0.97308 0.119554 0.197034 
-0.428343 0.0775124 -0.900285 -0.770607 0.133007 -0.623276 -0.658247 0.149196 -0.73787 
0.964037 -0.0955083 0.248013 0.982005 -0.0787929 0.171633 -0.454429 0.00554771 -0.890765 
-0.793504 -0.0867255 -0.602354 -0.701467 -0.0744663 -0.708801 0.879049 -0.361573 0.310706 
-0.495852 -0.0207235 -0.86816 -0.797777 -0.258892 -0.544543 -0.767659 -0.324149 -0.552836 
-0.732374 -0.2511 -0.632912 0.709359 -0.592816 0.381287 0.683798 -0.619715 0.385193 
0.462634 -0.760532 0.455589 -0.752518 -0.389844 -0.530791 -0.573303 -0.241857 -0.782834 
0.432 -0.777988 0.456191 0.471772 -0.791141 0.389264 0.285096 -0.853573 0.436042 
0.174452 -0.89221 0.416567 0.110828 -0.913205 0.39214 0.104324 -0.924167 0.367466 
-0.517084 -0.787946 -0.334314 -0.495737 -0.444854 -0.745888 -0.685441 -0.557038 -0.468912 
-0.664874 -0.592441 -0.454924 -0.649215 -0.550434 -0.524921 0.0929737 -0.993165 0.0705562 
0.188443 -0.910273 0.368636 0.116087 -0.977382 0.176773 0.189683 -0.909963 0.368766 
0.259229 -0.90949 0.325004 0.151762 -0.975124 0.16156 0.031096 -0.999197 -0.025271 
-0.0964493 -0.98976 -0.105223 -0.512868 -0.791939 -0.33136 -0.292729 -0.917676 -0.268665 
-0.336918 -0.764683 -0.549315 0.321351 0.912345 -0.253691 0.207905 0.946669 -0.246158 
0.0939527 0.963608 -0.250264 -0.0100367 0.954571 -0.297815 -0.0373924 0.923258 -0.382356 
-0.0526834 0.893733 -0.445495 -0.18072 0.850689 -0.493628 -0.348591 0.661895 -0.663611 
0.70828 0.660016 -0.250435 0.408016 0.875517 -0.258831 0.491317 0.830339 -0.262952 
0.320843 0.863554 -0.389017 -0.14064 0.680044 -0.719556 -0.1042 0.647233 -0.755137 
-0.223241 0.658796 -0.718436 -0.360091 0.592991 -0.720206 -0.381331 0.608209 -0.696181 
-0.322806 0.42579 -0.845281 0.719586 0.648276 -0.248866 0.707818 0.65101 -0.274188 
-0.493943 0.327553 -0.805437 -0.277557 0.377131 -0.883592 -0.33256 0.353435 -0.87435 
-0.260832 0.362392 -0.894784 -0.229237 0.323846 -0.917918 0.883906 0.422307 -0.200913 
-0.335997 0.2779 -0.899932 -0.239142 0.275292 -0.931142 -0.233073 0.321285 -0.917852 
-0.228513 0.322463 -0.918586 0.971226 0.165827 -0.170945 0.986514 0.0828388 -0.141166 
-0.368898 0.233588 -0.899639 -0.255917 0.184406 -0.948947 -0.396166 0.091907 -0.913568 
-0.323501 0.148645 -0.934479 0.994352 -0.0185306 -0.104499 0.987533 -0.125568 -0.0949311 
0.986159 -0.0152083 -0.165106 -0.329887 0.0827072 -0.94039 -0.424948 0.00889411 -0.905174 
-0.349466 0.0213066 -0.936707 0.953337 -0.293023 -0.0727077 -0.341141 -0.0385336 -0.939222 
-0.450761 -0.011003 -0.892577 -0.385685 -0.0590521 -0.920739 0.829908 -0.557532 0.0202634 
0.732614 -0.678498 0.054011 -0.309921 -0.189266 -0.931734 -0.33538 -0.167676 -0.927041 
-0.490961 -0.227228 -0.841026 -0.413135 -0.330197 -0.848699 -0.333089 -0.20812 -0.91964 
0.575784 -0.811388 0.100612 0.48335 -0.869825 0.0988789 0.290436 -0.948522 0.126304 
0.14074 -0.983361 0.114862 -0.290536 -0.345286 -0.892394 -0.295001 -0.355501 -0.886901 
-0.442372 -0.408894 -0.798193 -0.35285 -0.548152 -0.758305 -0.341488 -0.3628 -0.867042 
0.0936338 -0.993218 0.0689275 0.0928001 -0.993354 0.0680898 0.0915787 -0.993971 0.0602881 
0.124277 -0.991306 0.0432202 0.0609139 -0.972196 -0.226105 0.162571 -0.986688 -0.00410102 
-0.00688996 -0.880572 -0.473863 0.101291 -0.985577 -0.135568 -0.0865316 -0.788762 -0.608577 
-0.0415698 -0.943159 -0.329733 -0.180885 -0.730487 -0.658536 -0.170118 -0.831431 -0.528944 
-0.236473 -0.699858 -0.674002 -0.290522 -0.654514 -0.698003 -0.281431 -0.665843 -0.690977 
-0.280138 -0.642424 -0.713312 0.177315 0.804428 -0.566969 0.0467945 0.788299 -0.61351 
-0.0875685 0.754462 -0.650476 0.470932 0.687415 -0.552887 0.206922 0.802033 -0.560292 
0.3077 0.776567 -0.549787 0.170761 0.786909 -0.592971 0.0341606 0.733627 -0.678693 
-0.136582 0.680228 -0.720163 -0.0957715 0.704189 -0.703524 -0.145632 0.666144 -0.731467 
-0.117036 0.534249 -0.837186 -0.242946 0.490611 -0.836826 0.525825 0.642326 -0.557607 
0.670781 0.480224 -0.565189 0.459447 0.63165 -0.624441 0.230555 0.552502 -0.80099 
0.0937328 0.488982 -0.867243 -0.0233695 0.450949 -0.892244 -0.150429 0.431369 -0.889546 
-0.226368 0.445076 -0.866409 -0.138189 0.378997 -0.915022 -0.400986 0.343003 -0.849446 
-0.244778 0.352575 -0.903203 -0.48875 0.265533 -0.831033 0.711635 0.422282 -0.561474 
0.663731 0.43003 -0.611993 0.393958 0.404166 -0.825498 -0.24488 0.228304 -0.94229 
-0.267893 0.123185 -0.955541 -0.474657 0.257742 -0.841587 -0.482407 0.252683 -0.83871 
0.820212 0.218224 -0.528801 0.659037 0.229613 -0.716204 -0.341694 0.101511 -0.934313 
-0.22188 0.0209406 -0.974849 -0.37975 0.22714 -0.89677 -0.350431 0.188805 -0.917361 
-0.39256 0.13225 -0.910169 0.878172 0.0135789 -0.478152 0.639576 0.0620038 -0.766223 
-0.403902 0.0967607 -0.90967 -0.185124 0.0483551 -0.981525 -0.239728 0.0533223 -0.969375 
-0.387751 0.10657 -0.915583 -0.393453 0.107295 -0.913062 0.874142 -0.229011 -0.428287 
0.70122 -0.155453 -0.69579 -0.266998 -0.0139543 -0.963596 -0.287444 -0.114301 -0.950953 
-0.35373 -0.0617659 -0.933306 -0.341455 -0.104949 -0.93402 -0.355664 -0.0659457 -0.932284 
0.807198 -0.472056 -0.354393 0.767236 -0.546516 -0.335663 0.763798 -0.459639 -0.453149 
-0.356546 -0.200375 -0.912537 -0.294759 -0.161814 -0.941771 -0.305513 -0.197406 -0.9315 
-0.291331 -0.327298 -0.89889 -0.292224 -0.217798 -0.931219 0.568043 -0.77278 -0.283088 
0.507526 -0.816837 -0.274215 0.509454 -0.74934 -0.42302 0.297599 -0.92151 -0.249507 
0.129637 -0.961442 -0.242534 0.0389924 -0.965843 -0.256178 0.0272452 -0.93736 -0.347294 
-0.0100842 -0.876761 -0.48082 -0.222321 -0.481169 -0.847968 -0.124648 -0.717964 -0.684829 
-0.254205 -0.385283 -0.887095 -0.290448 -0.343303 -0.893187 -0.25141 -0.508359 -0.823629 
-0.290742 -0.339251 -0.894638 0.200327 0.43026 -0.880196 0.0789007 0.441027 -0.894019 
-0.029256 0.416302 -0.908756 -0.142867 0.341993 -0.928779 -0.240353 0.297486 -0.923976 
0.325416 0.387655 -0.862454 0.375586 0.358426 -0.854673 0.186395 0.356923 -0.915348 
0.028904 0.315112 -0.948614 -0.0608774 0.256074 -0.964738 -0.125003 0.22944 -0.965262 
-0.24214 0.281989 -0.928359 -0.239167 0.284919 -0.928235 0.501778 0.229013 -0.83413 
0.339266 0.225061 -0.913371 0.136162 0.21169 -0.967805 -0.00611914 0.198082 -0.980166 
-0.111584 0.156534 -0.981349 -0.134885 0.129832 -0.982318 -0.301041 0.125421 -0.945327 
-0.231254 0.142127 -0.962456 0.564818 0.0735606 -0.821931 0.354999 0.104839 -0.92897 
0.144898 0.0975193 -0.984629 -0.0390392 0.0999353 -0.994228 -0.131342 0.107844 -0.985454 
-0.134018 0.119305 -0.983771 -0.379424 0.0987432 -0.919939 -0.244291 0.107788 -0.963693 
-0.402642 0.0160326 -0.915217 0.630569 -0.134745 -0.764347 0.351761 -0.0877699 -0.931966 
0.139892 -0.0235015 -0.989888 0.00330667 -0.00991461 -0.999945 -0.095833 0.0191955 -0.995212 
-0.136325 0.0184886 -0.990492 -0.248351 -0.0252784 -0.96834 -0.389716 -0.01735 -0.920772 
-0.392256 -0.0606351 -0.917855 -0.39996 -0.0185938 -0.916344 0.523402 -0.393786 -0.755634 
0.459219 -0.488382 -0.742025 0.446569 -0.374755 -0.812487 0.239653 -0.28643 -0.927644 
0.00320025 -0.250644 -0.968074 -0.0995464 -0.215258 -0.97147 -0.173403 -0.217108 -0.960622 
-0.341535 -0.221214 -0.913465 -0.248411 -0.405382 -0.879749 -0.286719 -0.252508 -0.924138 
0.30477 -0.645036 -0.700745 0.272478 -0.66379 -0.696519 0.268487 -0.63797 -0.72174 
0.0773896 -0.683945 -0.725417 0.0589188 -0.586016 -0.808154 -0.0476628 -0.646704 -0.76125 
-0.0601891 -0.552173 -0.831554 -0.183591 -0.497565 -0.847776 -0.137368 -0.56486 -0.813672 
-0.145891 -0.51986 -0.841702 
