# vtk DataFile Version 4.2
vtk output
ASCII
DATASET POLYDATA
POINTS 530 float
-32.0287 -17.5342 -20.9178 -24.3682 -40.5156 -16.2739 -16.7077 -40.5156 -17.9778 
-9.04727 -40.5156 -17.6704 -1.38681 -40.5156 -17.8273 6.27366 -40.5156 -17.1998 
13.9341 -40.5156 -15.9633 -39.6891 -32.8552 -13.2701 -32.0287 -32.8552 -17.8485 
-24.3682 -32.8552 -18.6717 -16.7077 -32.8552 -20.0106 -9.04727 -32.8552 -19.529 
-1.38681 -32.8552 -19.6282 6.27366 -32.8552 -19.3923 13.9341 -32.8552 -19.6752 
21.5946 -32.8552 -17.4017 -39.6891 -25.1947 -17.3688 -32.0287 -18.8314 -20.6726 
-32.0287 -25.1947 -19.212 -24.3682 -25.1947 -19.8259 -16.7077 -25.1947 -20.097 
-9.04727 -25.1947 -19.7281 -1.38681 -25.1947 -19.7862 6.27366 -25.1947 -19.7392 
13.9341 -25.1947 -20.5588 21.5946 -25.1947 -19.3321 29.2551 -25.1947 -16.0055 
-47.3496 -17.5342 -15.4406 -32.9627 -17.5342 -20.6726 -39.6891 -17.5342 -18.7789 
-28.3645 -17.5342 -20.6726 -32.0287 -14.8518 -20.6726 -24.3682 -17.5342 -20.3682 
-16.7077 -17.5342 -19.6112 -9.04727 -17.5342 -19.1792 -1.38681 -17.5342 -19.3126 
6.27366 -17.5342 -19.1575 13.9341 -17.5342 -19.7655 21.5946 -17.5342 -19.4906 
29.2551 -17.5342 -16.8831 -47.3496 -9.87378 -17.1474 -39.6891 -9.87378 -19.2298 
-32.0287 -9.87378 -20.1558 -24.3682 -9.87378 -19.9199 -16.7077 -9.87378 -19.1462 
-9.04727 -9.87378 -19.2647 -1.38681 -9.87378 -20.6072 6.27366 -9.87378 -19.2995 
13.9341 -9.87378 -19.6918 21.5946 -9.87378 -18.5903 29.2551 -9.87378 -15.215 
-47.3496 -2.21331 -16.1239 -39.6891 -2.21331 -18.9135 -32.0287 -2.21331 -19.8795 
-24.3682 -2.21331 -19.7681 -16.7077 -2.21331 -19.1046 -9.04727 -2.21331 -19.2528 
-1.38681 -2.21331 -19.1112 6.27366 -2.21331 -19.2907 13.9341 -2.21331 -19.615 
21.5946 -2.21331 -16.4453 -47.3496 5.44715 -15.1149 -39.6891 5.44715 -18.1868 
-32.0287 5.44715 -19.3708 -24.3682 5.44715 -19.8916 -16.7077 5.44715 -19.6111 
-9.04727 5.44715 -19.9672 -1.38681 5.44715 -20.5732 6.27366 5.44715 -18.5305 
13.9341 5.44715 -18.0246 21.5946 5.44715 -15.5197 -39.6891 13.1076 -17.0917 
-32.0287 13.1076 -18.7613 -24.3682 13.1076 -19.597 -16.7077 13.1076 -19.5679 
-9.04727 13.1076 -19.1683 -1.38681 13.1076 -18.2391 6.27366 13.1076 -15.5567 
13.9341 13.1076 -16.4039 21.5946 13.1076 -15.8211 -39.6891 20.7681 -14.6976 
-32.0287 20.7681 -17.4154 -24.3682 20.7681 -18.4666 -16.7077 20.7681 -18.3981 
-9.04727 20.7681 -17.9424 -1.38681 20.7681 -17.2563 6.27366 20.7681 -16.3167 
13.9341 20.7681 -16.47 21.5946 20.7681 -15.4634 -32.0287 28.4286 -14.01 
-24.3682 28.4286 -15.4095 -16.7077 28.4286 -16.2672 -9.04727 28.4286 -16.8505 
-1.38681 28.4286 -16.8604 6.27366 28.4286 -16.414 13.9341 28.4286 -15.9388 
21.5946 28.4286 -13.9909 -9.04727 36.089 -14.1894 -1.38681 36.089 -15.29 
6.27366 36.089 -15.0186 13.9341 36.089 -13.4349 -24.3682 -43.6996 -13.0122 
-16.7077 -45.447 -13.0122 -9.04727 -46.6986 -13.0122 -9.04727 -48.1761 -7.51015 
-1.38681 -46.6115 -13.0122 -1.38681 -48.1761 -5.82707 6.27366 -45.3741 -13.0122 
13.9341 -42.8939 -13.0122 -39.6891 -33.1647 -13.0122 -30.5605 -40.5156 -13.0122 
-32.0287 -39.3652 -13.0122 -32.0287 -40.5156 -8.39999 18.7252 -40.5156 -13.0122 
21.5946 -38.7899 -13.0122 21.5946 -40.5156 -8.19555 -39.9994 -32.8552 -13.0122 
28.6304 -32.8552 -13.0122 29.2551 -31.8619 -13.0122 29.2551 -32.8552 -12.1611 
-45.6519 -25.1947 -13.0122 -47.3496 -22.7916 -13.0122 -47.3496 -25.1947 -7.15152 
33.035 -25.1947 -13.0122 36.9155 -25.1947 -9.22747 -50.5078 -17.5342 -13.0122 
34.5444 -17.5342 -13.0122 36.9155 -17.5342 -11.1401 44.576 -17.5342 -5.39839 
-51.7813 -9.87378 -13.0122 -55.0101 -9.87378 -5.45003 33.2881 -9.87378 -13.0122 
29.2551 -2.6701 -13.0122 36.9155 -9.87378 -11.0639 44.576 -9.87378 -7.27317 
-51.2245 -2.21331 -13.0122 -55.0101 -2.21331 -6.71603 28.9238 -2.21331 -13.0122 
29.2551 -2.21331 -12.8856 36.9155 -2.21331 -10.8084 44.576 -2.21331 -7.85207 
-50.4618 5.44715 -13.0122 -47.3496 11.5332 -13.0122 27.9664 5.44715 -13.0122 
29.2551 5.44715 -12.539 36.9155 5.44715 -10.4186 44.576 5.44715 -7.60955 
-46.3731 13.1076 -13.0122 -47.3496 13.1076 -12.1225 28.6302 13.1076 -13.0122 
29.2551 13.1076 -12.7459 36.9155 13.1076 -9.35724 44.576 13.1076 -5.54632 
-42.172 20.7681 -13.0122 -47.3496 20.7681 -6.74435 -39.6891 23.6275 -13.0122 
26.9587 20.7681 -13.0122 29.2551 20.7681 -11.8586 36.9155 20.7681 -7.48872 
-33.9971 28.4286 -13.0122 -39.6891 28.4286 -8.58208 -32.0287 29.6853 -13.0122 
-24.3682 32.4239 -13.0122 -16.7077 34.9514 -13.0122 23.5438 28.4286 -13.0122 
21.5946 30.7205 -13.0122 29.2551 28.4286 -9.23906 -32.0287 36.089 -5.69532 
-24.3682 36.089 -10.0084 -14.2255 36.089 -13.0122 -16.7077 36.089 -12.3377 
-9.04727 38.005 -13.0122 -1.38681 40.2093 -13.0122 6.27366 39.8189 -13.0122 
15.0096 36.089 -13.0122 13.9341 36.7502 -13.0122 21.5946 36.089 -9.59384 
-9.04727 43.7495 -7.95919 -1.38681 43.7495 -10.0641 6.27366 43.7495 -9.67132 
13.9341 43.7495 -6.29699 -9.04727 -48.5959 -5.35169 -1.38681 -48.2538 -5.35169 
-32.0287 -41.1329 -5.35169 -24.3682 -45.386 -5.35169 -12.4676 -48.1761 -5.35169 
-16.7077 -47.6033 -5.35169 -9.04727 -48.1761 -4.56112 -0.822446 -48.1761 -5.35169 
-1.38681 -48.1761 -5.19459 6.27366 -47.0394 -5.35169 13.9341 -44.5462 -5.35169 
21.5946 -41.2905 -5.35169 -32.975 -40.5156 -5.35169 -39.6891 -35.0938 -5.35169 
-32.0287 -40.5156 -4.44157 22.9711 -40.5156 -5.35169 21.5946 -40.5156 -3.28334 
29.2551 -36.4972 -5.35169 -41.9876 -32.8552 -5.35169 -47.3496 -25.9041 -5.35169 
-39.6891 -32.8552 -2.83568 33.9482 -32.8552 -5.35169 36.9155 -29.6566 -5.35169 
-47.7761 -25.1947 -5.35169 -47.3496 -25.1947 -4.72556 41.1514 -25.1947 -5.35169 
44.576 -17.6536 -5.35169 44.576 -25.1947 -0.493294 -52.551 -17.5342 -5.35169 
-55.0101 -9.99722 -5.35169 44.6371 -17.5342 -5.35169 52.2365 -17.5342 1.92946 
-55.0455 -9.87378 -5.35169 -55.0101 -9.87378 -5.25712 47.6755 -9.87378 -5.35169 
52.2365 -9.87378 -2.07733 -55.5597 -2.21331 -5.35169 -55.0101 1.30991 -5.35169 
-55.0101 -2.21331 -3.62144 49.4533 -2.21331 -5.35169 52.2365 -2.21331 -3.28643 
-54.3258 5.44715 -5.35169 48.922 5.44715 -5.35169 52.2365 5.44715 -3.32718 
-51.7613 13.1076 -5.35169 44.8775 13.1076 -5.35169 44.576 13.6493 -5.35169 
52.2365 13.1076 0.403661 -48.1699 20.7681 -5.35169 -47.3496 22.2089 -5.35169 
40.4035 20.7681 -5.35169 36.9155 24.7736 -5.35169 44.576 20.7681 -2.00961 
-42.5977 28.4286 -5.35169 -39.6891 31.3036 -5.35169 34.1119 28.4286 -5.35169 
29.2551 33.1348 -5.35169 36.9155 28.4286 -2.13657 -32.5176 36.089 -5.35169 
-32.0287 36.3549 -5.35169 -24.3682 40.082 -5.35169 -16.7077 42.9317 -5.35169 
26.232 36.089 -5.35169 21.5946 40.3058 -5.35169 29.2551 36.089 0.0904976 
-14.5841 43.7495 -5.35169 -16.7077 43.7495 -3.85745 -9.04727 45.7615 -5.35169 
-1.38681 47.3324 -5.35169 6.27366 46.8628 -5.35169 15.4177 43.7495 -5.35169 
13.9341 44.375 -5.35169 -24.3682 -40.5502 2.30878 -16.7077 -43.5816 2.30878 
-9.04727 -43.8547 2.30878 -1.38681 -43.8152 2.30878 6.27366 -42.9466 2.30878 
13.9341 -41.1193 2.30878 -24.4208 -40.5156 2.30878 -32.0287 -35.6974 2.30878 
-24.3682 -40.5156 2.3378 -16.7077 -40.5156 4.96135 -9.04727 -40.5156 5.87579 
-1.38681 -40.5156 6.08371 6.27366 -40.5156 5.38281 15.416 -40.5156 2.30878 
13.9341 -40.5156 3.05366 21.5946 -38.4517 2.30878 29.2551 -35.6463 2.30878 
-35.2622 -32.8552 2.30878 -39.6891 -28.3781 2.30878 -32.0287 -32.8552 4.49067 
-24.3682 -32.8552 7.39854 -16.7077 -32.8552 9.55997 34.5153 -32.8552 2.30878 
36.9155 -31.5322 2.30878 44.576 -26.6325 2.30878 -42.3866 -25.1947 2.30878 
-47.3496 -18.6503 2.30878 -39.6891 -25.1947 4.45301 -32.0287 -25.1947 7.85282 
46.1561 -25.1947 2.30878 52.2365 -17.8727 2.30878 -48.2637 -17.5342 2.30878 
-47.3496 -17.5342 3.03059 -39.6891 -17.5342 7.81095 52.4804 -17.5342 2.30878 
-51.4495 -9.87378 2.30878 -47.3496 -9.87378 6.62784 55.6642 -9.87378 2.30878 
-52.5351 -2.21331 2.30878 -47.3496 -2.21331 7.84907 56.4592 -2.21331 2.30878 
-52.5901 5.44715 2.30878 -47.3496 5.44715 8.7683 56.7851 5.44715 2.30878 
-51.217 13.1076 2.30878 -47.3496 13.1076 8.32991 53.7284 13.1076 2.30878 
52.2365 15.4121 2.30878 -48.763 20.7681 2.30878 -47.3496 23.4248 2.30878 
-47.3496 20.7681 5.57657 48.2137 20.7681 2.30878 44.576 24.5384 2.30878 
-44.3033 28.4286 2.30878 -39.6891 33.6611 2.30878 40.2989 28.4286 2.30878 
36.9155 31.2918 2.30878 -36.5427 36.089 2.30878 -32.0287 39.178 2.30878 
-24.3682 43.1326 2.30878 21.5946 41.8222 2.30878 30.4854 36.089 2.30878 
29.2551 36.9737 2.30878 -22.9539 43.7495 2.30878 -16.7077 46.5582 2.30878 
-9.04727 48.5144 2.30878 -1.38681 49.3032 2.30878 6.27366 48.3228 2.30878 
17.8786 43.7495 2.30878 13.9341 45.6703 2.30878 13.9341 43.7495 7.79288 
-9.04727 -34.4911 9.96924 -1.38681 -35.5193 9.96924 6.27366 -35.6959 9.96924 
13.9341 -34.85 9.96924 21.5946 -33.78 9.96924 29.2551 -32.8853 9.96924 
-24.3682 -26.8943 9.96924 -14.445 -32.8552 9.96924 -16.7077 -31.8192 9.96924 
-9.04727 -32.8552 10.9327 -1.38681 -32.8552 11.7542 6.27366 -32.8552 12.1741 
13.9341 -32.8552 11.799 21.5946 -32.8552 11.0191 29.3259 -32.8552 9.96924 
29.2551 -32.8552 10.0084 36.9155 -30.075 9.96924 44.576 -26.2682 9.96924 
-26.295 -25.1947 9.96924 -32.0287 -19.3622 9.96924 -24.3682 -25.1947 10.6184 
-16.7077 -25.1947 12.4026 -9.04727 -25.1947 13.9147 -1.38681 -25.1947 15.4107 
6.27366 -25.1947 16.138 13.9341 -25.1947 16.4071 36.9155 -25.1947 16.5422 
46.0082 -25.1947 9.96924 44.576 -25.1947 11.6654 52.2365 -19.1458 9.96924 
-34.0197 -17.5342 9.96924 -39.6891 -10.2675 9.96924 -32.0287 -17.5342 10.5778 
-24.3682 -17.5342 12.6258 -16.7077 -17.5342 14.2326 -9.04727 -17.5342 15.6637 
-1.38681 -17.5342 17.4193 6.27366 -17.5342 17.6102 53.4566 -17.5342 9.96924 
52.2365 -17.5342 12.0559 -39.9527 -9.87378 9.96924 -39.6891 -9.87378 10.0712 
-32.0287 -9.87378 12.6279 -24.3682 -9.87378 14.331 -16.7077 -9.87378 16.0738 
-9.04727 -9.87378 17.5493 56.9593 -9.87378 9.96924 52.2365 -9.87378 15.743 
-43.9455 -2.21331 9.96924 -39.6891 -2.21331 11.9242 -32.0287 -2.21331 14.2081 
-24.3682 -2.21331 15.7045 -16.7077 -2.21331 17.2665 -1.38681 -2.21331 16.8928 
58.1801 -2.21331 9.96924 52.2365 -2.21331 16.3914 -45.5354 5.44715 9.96924 
[...]
POINT_DATA 530
SCALARS ImageScalars float
LOOKUP_TABLE default
0 0 0 0 0 0 0 0 0 
0 0 0 0 0 0 0 0 0 
0 0 0 0 0 0 0 0 0 
0 0 0 0 0 0 0 0 0 
0 0 0 0 0 0 0 0 0 
0 0 0 0 0 0 0 0 0 
0 0 0 0 0 0 0 0 0 
0 0 0 0 0 0 0 0 0 
0 0 0 0 0 0 0 0 0 
0 0 0 0 0 0 0 0 0 
0 0 0 0 0 0 0 0 0 
0 0 0 0 0 0 0 0 0 
0 0 0 0 0 0 0 0 0 
0 0 0 0 0 0 0 0 0 
0 0 0 0 0 0 0 0 0 
0 0 0 0 0 0 0 0 0 
0 0 0 0 0 0 0 0 0 
0 0 0 0 0 0 0 0 0 
0 0 0 0 0 0 0 0 0 
0 0 0 0 0 0 0 0 0 
0 0 0 0 0 0 0 0 0 
0 0 0 0 0 0 0 0 0 
0 0 0 0 0 0 0 0 0 
0 0 0 0 0 0 0 0 0 
0 0 0 0 0 0 0 0 0 
0 0 0 0 0 0 0 0 0 
0 0 0 0 0 0 0 0 0 
0 0 0 0 0 0 0 0 0 
0 0 0 0 0 0 0 0 0 
0 0 0 0 0 0 0 0 0 
0 0 0 0 0 0 0 0 0 
0 0 0 0 0 0 0 0 0 
0 0 0 0 0 0 0 0 0 
0 0 0 0 0 0 0 0 0 
0 0 0 0 0 0 0 0 0 
0 0 0 0 0 0 0 0 0 
0 0 0 0 0 0 0 0 0 
0 0 0 0 0 0 0 0 0 
0 0 0 0 0 0 0 0 0 
0 0 0 0 0 0 0 0 0 
0 0 0 0 0 0 0 0 0 
0 0 0 0 0 0 0 0 0 
0 0 0 0 0 0 0 0 0 
0 0 0 0 0 0 0 0 0 
0 0 0 0 0 0 0 0 0 
0 0 0 0 0 0 0 0 0 
0 0 0 0 0 0 0 0 0 
0 0 0 0 0 0 0 0 0 
0 0 0 0 0 0 0 0 0 
0 0 0 0 0 0 0 0 0 
0 0 0 0 0 0 0 0 0 
0 0 0 0 0 0 0 0 0 
0 0 0 0 0 0 0 0 0 
0 0 0 0 0 0 0 0 0 
0 0 0 0 0 0 0 0 0 
0 0 0 0 0 0 0 0 0 
0 0 0 0 0 0 0 0 0 
0 0 0 0 0 0 0 0 0 
0 0 0 0 0 0 0 0 
NORMALS Normals float
0.105292 0.0519981 0.993081 0.335561 0.580663 0.741774 0.0807315 0.508826 0.857076 
-0.00518967 0.438052 0.898934 -0.0300839 0.444475 0.895286 -0.103689 0.514455 0.851225 
-0.30452 0.683346 0.663556 0.611459 0.592669 0.524272 0.30701 0.394697 0.866002 
0.131803 0.224165 0.965597 0.0543961 0.109733 0.992472 -0.0227418 0.12946 0.991324 
-0.00877577 0.123604 0.992293 0.00107387 0.155373 0.987855 -0.115916 0.214959 0.96972 
-0.376658 0.403229 0.833988 0.448387 0.356165 0.819814 0.108391 0.0707229 0.991589 
0.143825 0.187682 0.971643 0.0548818 0.105008 0.992956 -0.00648602 -0.026447 0.999629 
-0.0201551 -0.022936 0.999534 0.000728821 -0.0207635 0.999784 0.0486621 -0.0144588 0.998711 
-0.0254138 0.000436494 0.999677 -0.245281 0.121826 0.961767 -0.547271 0.218135 0.80803 
0.588955 0.30904 0.746744 0.130506 0.0559545 0.989867 0.324422 0.0997946 0.940634 
0.0159442 0.0311651 0.999387 0.0838334 0.0112764 0.996416 -0.0859284 0.00601658 0.996283 
-0.0775805 -0.0619965 0.995057 -0.0193166 -0.0303413 0.999353 -0.0010577 0.051695 0.998662 
0.0287599 -0.0294885 0.999151 0.0208638 -0.0557624 0.998226 -0.166454 -0.0446749 0.985037 
-0.488918 -0.052148 0.87077 0.505521 0.0471809 0.861524 0.188775 0.0119342 0.981948 
0.0417418 -0.0676428 0.996836 -0.0656364 -0.0389654 0.997083 -0.0428914 -0.0328899 0.998538 
0.0958502 0.00492684 0.995384 0.00324052 -0.00973317 0.999947 -0.0587323 0.00848463 0.998238 
-0.0423326 -0.00957039 0.999058 -0.271897 -0.172812 0.946683 -0.44025 -0.23136 0.867555 
0.48652 -0.13023 0.863909 0.217333 -0.0702461 0.973566 0.0527389 -0.0509318 0.997309 
-0.0504344 -0.00186228 0.998726 -0.033681 0.0303319 0.998972 0.000757736 0.0458402 0.998949 
0.0026146 -0.00527783 0.999983 0.03241 -0.0467905 0.998379 -0.144377 -0.106011 0.983828 
-0.423105 -0.192387 0.88542 0.521105 -0.208252 0.827696 0.256591 -0.103463 0.960966 
0.114668 -0.0729114 0.990725 0.0153039 -0.0110655 0.999822 0.00491785 0.030225 0.999531 
0.0614471 -0.00457892 0.9981 -0.0855336 -0.0417996 0.995458 -0.163238 -0.245046 0.95567 
-0.179561 -0.204396 0.962279 -0.348786 -0.0297718 0.936729 0.366165 -0.217691 0.904729 
0.144296 -0.124511 0.98167 0.0524369 -0.0927372 0.994309 -0.027456 -0.079969 0.996419 
-0.0799845 -0.132706 0.987923 -0.24441 -0.222201 0.94387 -0.104566 -0.136234 0.985143 
0.0174541 -0.0997493 0.99486 -0.229604 -0.00392434 0.973276 0.454636 -0.382436 0.804393 
0.22629 -0.281493 0.932499 0.0621241 -0.250157 0.96621 -0.03332 -0.200242 0.97918 
-0.0746522 -0.151002 0.985711 -0.105003 -0.0812006 0.991151 -0.051133 0.0544984 0.997204 
-0.0517224 -0.0291981 0.998235 -0.268874 -0.114473 0.956349 0.289772 -0.542085 0.788782 
0.131803 -0.460102 0.878028 0.0899548 -0.355348 0.930395 0.0349275 -0.226646 0.973351 
-0.0279917 -0.126061 0.991628 -0.0577197 -0.0832004 0.99486 -0.15428 -0.174887 0.972426 
-0.3557 -0.287462 0.889293 0.168956 -0.449521 0.877146 0.048156 -0.351355 0.935003 
-0.104571 -0.336623 0.935815 -0.278008 -0.436852 0.855495 0.329279 0.808309 0.488069 
0.178271 0.826542 0.533899 0.0612063 0.841221 0.537217 0.0473306 0.998864 0.00544836 
-0.0740774 0.859748 0.505318 -0.0950021 0.986006 -0.136991 -0.214434 0.831676 0.512184 
-0.362744 0.813311 0.454908 0.616137 0.604193 0.505298 0.488762 0.716559 0.49765 
0.509999 0.694859 0.507022 0.549894 0.830421 0.0895396 -0.43635 0.767168 0.470161 
-0.466899 0.717177 0.517361 -0.468574 0.871591 0.144111 0.621496 0.59799 0.506114 
-0.612286 0.504612 0.608665 -0.623852 0.469587 0.624738 -0.629971 0.535203 0.562756 
0.680599 0.492204 0.542698 0.702896 0.44977 0.55104 0.83475 0.550387 -0.0163295 
-0.607945 0.24437 0.755437 -0.65615 0.346733 0.670257 0.760037 0.314618 0.568647 
-0.550682 0.0215465 0.834437 -0.56586 0.0749973 0.821083 -0.620328 0.254598 0.741872 
0.793141 0.0352044 0.60802 0.984261 0.176714 -0.00123933 -0.455786 -0.129956 0.880551 
-0.322387 -0.16302 0.932465 -0.444319 -0.0199594 0.895646 -0.492467 0.116768 0.862462 
0.705088 -0.069207 0.705735 0.991309 -0.0394741 0.125494 -0.319004 -0.160194 0.934117 
-0.313342 -0.157179 0.936542 -0.297437 -0.0385671 0.953962 -0.426401 0.0181152 0.904353 
0.677113 -0.212873 0.704417 0.602044 -0.316135 0.733213 -0.311303 -0.00665572 0.950287 
-0.303556 -0.00985244 0.952763 -0.287662 -0.0833282 0.9541 -0.410254 -0.127987 0.902946 
0.588745 -0.333604 0.736266 0.648092 -0.354055 0.674256 -0.372718 -0.0311156 0.927423 
-0.384597 -0.0359908 0.922383 -0.411179 -0.167038 0.89612 -0.491594 -0.265894 0.829238 
0.553528 -0.400126 0.730415 0.814008 -0.455897 0.359929 0.490778 -0.456353 0.742212 
-0.408525 -0.151479 0.90009 -0.467034 -0.179513 0.865826 -0.509336 -0.320234 0.798766 
0.346645 -0.563369 0.749969 0.572435 -0.618295 0.538544 0.303801 -0.583894 0.752843 
0.202061 -0.558424 0.80457 0.190435 -0.518851 0.833383 -0.407759 -0.304082 0.860969 
-0.384772 -0.355586 0.851768 -0.556659 -0.408443 0.723398 0.399016 -0.788074 0.468749 
0.29254 -0.66663 0.685584 0.195796 -0.515682 0.834108 0.21115 -0.555568 0.804214 
0.189238 -0.512317 0.837688 0.0690355 -0.521371 0.850533 -0.125568 -0.498836 0.857552 
-0.303407 -0.452402 0.838616 -0.285565 -0.46385 0.838627 -0.497397 -0.567756 0.655934 
0.239665 -0.760024 0.60409 0.0753438 -0.730033 0.679246 -0.149994 -0.753387 0.640242 
-0.338814 -0.840583 0.42264 0.040531 0.98434 -0.171555 -0.0948845 0.980473 -0.172248 
0.516222 0.837963 -0.17701 0.351266 0.929174 -0.115101 0.10601 0.985102 -0.135413 
0.18748 0.978458 -0.0864335 0.0335073 0.975539 -0.217258 -0.103399 0.979628 -0.172157 
-0.0944201 0.978872 -0.181366 -0.214841 0.964337 -0.154587 -0.346013 0.934775 -0.080436 
-0.445458 0.893908 -0.0499541 0.536878 0.825611 -0.173574 0.680334 0.713142 -0.169037 
0.513627 0.82539 -0.234345 -0.471225 0.881185 -0.0382046 -0.42183 0.894315 -0.149196 
-0.594832 0.796194 0.110677 0.714169 0.679676 -0.16734 0.820975 0.547037 -0.163553 
0.663674 0.666116 -0.340332 -0.643898 0.728436 0.234043 -0.683275 0.617929 0.388973 
0.828508 0.534516 -0.166938 0.82 0.534303 -0.205232 -0.69227 0.470512 0.547157 
-0.622512 0.259391 0.738373 -0.712129 0.624837 0.320081 0.913026 0.397607 -0.0910596 
0.983465 0.180903 -0.00840115 -0.620397 0.256545 0.741143 -0.779498 0.513152 0.359246 
0.984008 0.177983 -0.00704991 0.983889 0.178357 -0.0123055 -0.549269 0.153855 0.82136 
-0.720539 0.194261 0.665647 0.998185 -0.0439547 0.041161 0.991189 -0.125878 0.0412125 
0.998047 -0.0268968 -0.0563731 -0.564483 0.044942 0.82422 -0.695005 0.0608287 0.716428 
0.971691 -0.230115 0.0535113 -0.520734 -0.155536 0.839431 -0.664153 -0.167488 0.728594 
0.904425 -0.375582 0.202371 -0.494728 -0.27049 0.825881 -0.498606 -0.277779 0.821116 
-0.726724 -0.449373 0.519554 0.841299 -0.458456 0.286415 0.821553 -0.487712 0.295275 
-0.540848 -0.380198 0.750288 -0.565812 -0.444841 0.694242 -0.624817 -0.514365 0.587394 
0.681103 -0.633206 0.367626 0.612993 -0.678394 0.404994 -0.591468 -0.512231 0.622724 
-0.601098 -0.597578 0.530642 -0.628803 -0.610463 0.481603 0.413819 -0.788704 0.454642 
0.401632 -0.792957 0.45816 0.341972 -0.790944 0.507408 0.299889 -0.788485 0.536989 
-0.594431 -0.653034 0.469253 -0.54082 -0.738509 0.40264 -0.588915 -0.779364 0.213939 
0.287034 -0.801256 0.524976 0.315133 -0.832974 0.454804 0.240822 -0.83188 0.49998 
0.0623686 -0.89178 0.44815 -0.176015 -0.899814 0.39919 -0.374189 -0.849506 0.371917 
-0.342086 -0.862529 0.372854 0.369528 0.634477 -0.678887 0.147426 0.747783 -0.647368 
0.0106916 0.775007 -0.631862 -0.0516439 0.796098 -0.602961 -0.136178 0.818011 -0.55885 
-0.270321 0.815664 -0.511488 0.370228 0.634093 -0.678865 0.443903 0.585644 -0.678212 
0.369324 0.633389 -0.680013 0.18276 0.619048 -0.763792 0.059911 0.653765 -0.754322 
-0.0207373 0.70499 -0.708914 -0.124137 0.762353 -0.635144 -0.287809 0.821393 -0.492422 
-0.261666 0.807623 -0.528465 -0.316484 0.858898 -0.402656 -0.398302 0.897294 -0.190312 
0.49594 0.540927 -0.679295 0.548039 0.490827 -0.677305 0.416212 0.487053 -0.76782 
0.292326 0.443529 -0.847247 0.195552 0.415694 -0.888233 -0.460859 0.882392 -0.0948325 
-0.502604 0.864208 -0.0230927 -0.673172 0.717097 0.180584 0.586612 0.448918 -0.674062 
0.590663 0.451572 -0.66873 0.497463 0.420294 -0.75887 0.353469 0.350685 -0.867225 
-0.705277 0.677049 0.210212 -0.783491 0.522829 0.335845 0.604173 0.438565 -0.665308 
0.569104 0.439359 -0.695043 0.423757 0.332377 -0.842589 -0.788539 0.515291 0.335682 
0.792453 0.204464 -0.574641 0.542852 0.255553 -0.800003 -0.877758 0.22628 0.422301 
0.848458 0.0674587 -0.524947 0.567716 0.112961 -0.815438 -0.880458 0.0758585 0.468017 
0.88804 -0.0852487 -0.451794 0.641497 0.0255969 -0.766698 -0.887513 -0.170388 0.428121 
0.916033 -0.250615 -0.313169 0.741385 -0.100176 -0.663561 -0.802706 -0.448266 0.393345 
-0.762509 -0.508659 0.399807 0.905154 -0.389514 -0.170218 0.880827 -0.447589 -0.154296 
0.866414 -0.352542 -0.353611 -0.703899 -0.614045 0.357036 -0.661217 -0.674691 0.328001 
0.808729 -0.578053 -0.108683 0.672489 -0.739156 -0.0375176 -0.643636 -0.71297 0.27822 
-0.628774 -0.741043 0.235581 0.597418 -0.801873 0.0095625 0.536507 -0.841519 0.063289 
0.409371 -0.907063 0.0982488 -0.493331 -0.869264 -0.0316936 -0.574524 -0.809182 0.12307 
-0.567771 -0.81636 0.105799 0.397838 -0.911441 0.104882 0.337893 -0.933963 0.116369 
0.174543 -0.981301 0.0811393 -0.0122152 -0.999923 0.00202034 -0.223711 -0.972489 -0.064947 
-0.441287 -0.895326 -0.060466 -0.384396 -0.920652 -0.0681212 -0.345996 -0.854329 -0.387827 
0.115973 0.484826 -0.866888 0.0434375 0.569255 -0.821012 -0.0330779 0.630867 -0.775186 
-0.0934784 0.691945 -0.715873 -0.0996609 0.774307 -0.624913 -0.230491 0.829975 -0.507953 
0.274065 0.331824 -0.902652 0.175627 0.426501 -0.887272 0.196847 0.396161 -0.896832 
0.129192 0.453122 -0.882037 0.0719667 0.512715 -0.855538 0.00460857 0.563968 -0.825784 
-0.0577749 0.64127 -0.765137 -0.0829235 0.753372 -0.652345 -0.231549 0.830587 -0.506469 
-0.229592 0.829215 -0.509598 -0.34515 0.873693 -0.342828 -0.543493 0.793116 -0.274923 
0.289767 0.316363 -0.903299 0.292336 0.296791 -0.909095 0.267731 0.303409 -0.914474 
0.203757 0.283056 -0.93721 0.186201 0.283375 -0.940759 0.136225 0.32836 -0.934678 
0.0602896 0.306676 -0.949903 0.082039 0.363162 -0.928107 -0.233184 0.566745 -0.790206 
-0.595904 0.759508 -0.260856 -0.540871 0.75388 -0.372992 -0.788323 0.584373 -0.192494 
0.3091 0.291695 -0.905191 0.334685 0.238771 -0.911578 0.273303 0.279839 -0.920324 
0.227955 0.230988 -0.945876 0.189035 0.227145 -0.955338 0.200172 0.224178 -0.953769 
0.121756 0.228863 -0.965814 0.0607802 0.154097 -0.986185 -0.811887 0.55214 -0.189687 
-0.770546 0.529195 -0.355261 0.333904 0.235509 -0.912712 0.330873 0.234051 -0.91419 
0.25 0.227482 -0.941144 0.211585 0.194484 -0.957814 0.201272 0.193474 -0.960238 
0.188389 0.200679 -0.961373 -0.9355 0.276453 -0.220033 -0.662922 0.162579 -0.730823 
0.442924 0.145152 -0.884731 0.359977 0.171068 -0.917144 0.234783 0.157637 -0.959181 
0.195081 0.156778 -0.968176 0.200749 0.0954866 -0.974978 -0.0264265 0.010058 -0.9996 
-0.974415 0.0674808 -0.214385 -0.572313 0.0208924 -0.819769 0.559109 0.0471363 -0.827753 
0.376868 0.0945113 -0.921433 0.247436 0.129 -0.960278 0.147256 0.138452 -0.97936 
0.189705 0.0612047 -0.979932 -0.943964 -0.216701 -0.248943 -0.640002 -0.0768 -0.764525 
0.633782 -0.0491389 -0.771949 0.433711 0.0129109 -0.90096 0.284127 0.0909485 -0.954463 
-0.877269 -0.442549 -0.185876 -0.799535 -0.574379 -0.175593 -0.724961 -0.371215 -0.580199 
0.695316 -0.23243 -0.680082 0.519426 -0.0980371 -0.848873 0.311825 -0.0134306 -0.950045 
-0.721918 -0.66087 -0.205148 -0.652127 -0.728512 -0.209762 -0.575583 -0.524929 -0.62702 
0.730534 -0.429035 -0.531271 0.713593 -0.470804 -0.518777 0.698325 -0.401292 -0.592712 
0.3471 -0.273125 -0.897176 -0.594624 -0.773578 -0.219088 -0.530494 -0.806892 -0.25981 
-0.458775 -0.710608 -0.533444 0.579991 -0.673465 -0.458319 0.544657 -0.712012 -0.443155 
0.536756 -0.649154 -0.538973 0.419147 -0.829014 -0.370204 0.316843 -0.461838 -0.828442 
0.126257 -0.347779 -0.929036 -0.10006 -0.284261 -0.953511 -0.122593 -0.328072 -0.936664 
-0.305136 -0.776047 -0.551944 -0.159632 -0.431752 -0.887754 -0.362583 -0.799982 -0.478081 
-0.259352 -0.639046 -0.724125 -0.435018 -0.830539 -0.347799 -0.434539 -0.830496 -0.3485 
-0.433646 -0.830074 -0.350611 0.360445 -0.856067 -0.370444 0.295709 -0.862219 -0.41126 
0.26219 -0.790887 -0.55295 0.124591 -0.881995 -0.454491 0.0770214 -0.702254 -0.707748 
-0.102482 -0.841117 -0.531056 -0.11378 -0.657628 -0.744701 -0.290596 -0.783503 -0.549251 
-0.242979 -0.781254 -0.574982 -0.227244 -0.707199 -0.6695 0.0803514 0.428906 -0.899768 
-0.0533402 0.502814 -0.862748 0.0804431 0.428541 -0.899934 0.11464 0.228618 -0.966743 
0.0804198 0.428701 -0.89986 -0.0730732 0.500615 -0.86258 -0.0523568 0.495622 -0.866959 
-0.190584 0.448351 -0.873303 -0.348716 0.423574 -0.836051 0.114923 0.196034 -0.97384 
0.062493 0.153921 -0.986105 0.0592403 0.152129 -0.986584 0.127585 0.146587 -0.980936 
0.108913 0.154018 -0.982047 0.0169896 0.206148 -0.978373 -0.107167 0.250622 -0.962135 
-0.374324 0.39403 -0.839418 -0.337019 0.386833 -0.858358 0.182229 0.188784 -0.964963 
0.175558 0.197464 -0.964462 0.00796793 1.8835e-05 -0.999968 0.06628 -0.0282343 -0.997402 
-0.0175169 0.058471 -0.998135 0.0936641 0.0420085 -0.994717 0.161804 -0.00852028 -0.986786 
0.0559178 0.0131901 -0.998348 -0.089201 0.0409623 -0.995171 -0.478129 0.108553 -0.871555 
-0.269692 0.0720455 -0.960248 0.149111 0.10718 -0.982995 -0.0231282 0.0676591 -0.99744 
-0.0193738 0.146079 -0.989083 0.0538003 0.0388239 -0.997797 -0.0230405 0.0656948 -0.997574 
0.139454 0.0629802 -0.988224 0.0591624 0.0938044 -0.993831 0.0774538 -0.00195943 -0.996994 
0.07161 -0.0459051 -0.996376 -0.0401276 0.00394332 -0.999187 -0.410291 0.0268446 -0.911559 
-0.222918 0.0364811 -0.974154 0.131969 0.105844 -0.985587 0.188393 0.0604655 -0.980231 
0.182601 0.0630608 -0.981163 0.121641 0.0305281 -0.992105 -0.023904 0.179876 -0.983399 
0.0538814 0.0180677 -0.998384 0.0309327 0.0748411 -0.996716 0.0217463 0.113017 -0.993355 
0.0612638 0.049928 -0.996872 -0.01174 0.0173518 -0.999781 -0.503118 -0.0516612 -0.862672 
-0.242948 -0.062815 -0.968003 0.152385 0.0936143 -0.983878 0.125325 0.0947572 -0.98758 
0.0826121 0.0884858 -0.992646 0.0899865 -0.0365411 -0.995272 -0.0295717 -0.0639726 -0.997513 
0.0420508 -0.0824887 -0.995704 0.15136 -0.0679381 -0.986141 0.0564899 0.0323567 -0.997879 
-0.026719 -0.00694308 -0.999619 -0.164385 -0.0945833 -0.981851 -0.396449 -0.29347 -0.869887 
-0.367787 -0.350633 -0.861272 -0.291749 -0.280972 -0.914296 0.215051 0.000632338 -0.976603 
0.145369 0.0105416 -0.989321 0.0631353 0.0458057 -0.996953 -0.0302962 0.00357592 -0.999535 
-0.0663559 -0.0469781 -0.996689 0.0424344 -0.0541648 -0.99763 0.138862 -0.148635 -0.979094 
0.0889205 -0.198752 -0.976008 -0.0599335 -0.192551 -0.979455 -0.413438 -0.383342 -0.825905 
-0.340722 -0.469528 -0.814526 -0.261911 -0.295148 -0.918853 0.212933 -0.167798 -0.96255 
0.208502 -0.199408 -0.957478 0.184267 -0.143503 -0.972344 0.108922 -0.27514 -0.955214 
0.0740556 -0.105374 -0.991671 -0.00825415 -0.0827163 -0.996539 -0.0993594 -0.270058 -0.957704 
-0.0891861 -0.0567327 -0.994398 -0.0724717 -0.15738 -0.984875 -0.0625496 -0.120651 -0.990722 
-0.0115308 -0.231454 -0.972778 0.00114578 -0.21731 -0.976102 -0.00938569 -0.389784 -0.920859 
0.00640129 -0.3779 -0.925824 -0.185191 -0.514552 -0.837222 -0.166645 -0.512669 -0.842259 
-0.156674 -0.493021 -0.855794 0.0621602 -0.307093 -0.949647 -0.0750563 -0.284836 -0.955633 
0.0256946 -0.314444 -0.948928 0.0234581 -0.28646 -0.957805 
