# vtk DataFile Version 4.2
vtk output
ASCII
DATASET POLYDATA
POINTS 526 float
-30.1093 -14.8195 -24.9439 18.3622 -30.9767 -16.908 -38.1879 -22.8981 -20.9253 
-30.1093 -14.8612 -24.9318 -30.1093 -22.8981 -22.0936 -22.0307 -22.8981 -22.175 
-13.9521 -22.8981 -21.5623 -5.87355 -22.8981 -21.1496 2.20503 -22.8981 -20.6953 
10.2836 -22.8981 -20.2924 18.3622 -22.8981 -20.4374 26.4408 -22.8981 -20.4528 
34.5193 -22.8981 -18.9298 -46.2664 -14.8195 -21.7128 -30.2076 -14.8195 -24.9318 
-38.1879 -14.8195 -23.9439 -29.4142 -14.8195 -24.9318 -30.1093 -13.2266 -24.9318 
-22.0307 -14.8195 -24.8037 -13.9521 -14.8195 -24.0471 -5.87355 -14.8195 -23.3884 
2.20503 -14.8195 -23.6723 10.2836 -14.8195 -22.5558 18.3622 -14.8195 -21.1783 
26.4408 -14.8195 -21.3791 34.5193 -14.8195 -21.0542 42.5979 -14.8195 -20.2759 
-54.345 -6.74092 -18.869 -46.2664 -6.74092 -22.5935 -38.1879 -6.74092 -23.9521 
-30.1093 -6.74092 -24.8779 -22.0307 -6.74092 -24.1789 -13.9521 -6.74092 -23.8452 
-5.87355 -6.74092 -22.3402 2.20503 -6.74092 -22.2042 10.2836 -6.74092 -23.539 
18.3622 -6.74092 -21.0946 26.4408 -6.74092 -21.1292 34.5193 -6.74092 -21.5557 
42.5979 -6.74092 -21.3891 50.6765 -6.74092 -20.3002 -54.345 1.33765 -19.4317 
-46.2664 1.33765 -22.3101 -38.1879 1.33765 -23.0541 -30.1093 1.33765 -22.561 
-22.0307 1.33765 -21.5362 -13.9521 1.33765 -22.2981 -5.87355 1.33765 -22.7986 
2.20503 1.33765 -20.4583 10.2836 1.33765 -22.9503 18.3622 1.33765 -20.5411 
26.4408 1.33765 -20.9591 34.5193 1.33765 -21.7014 42.5979 1.33765 -21.7694 
50.6765 1.33765 -20.6498 58.7551 1.33765 -17.628 -54.345 9.41623 -18.2575 
-46.2664 9.41623 -21.4483 -38.1879 9.41623 -22.3836 -30.1093 9.41623 -21.7881 
-22.0307 9.41623 -20.5022 -13.9521 9.41623 -20.4243 -5.87355 9.41623 -21.8251 
2.20503 9.41623 -20.699 10.2836 9.41623 -21.4175 18.3622 9.41623 -20.5669 
26.4408 9.41623 -20.9823 34.5193 9.41623 -21.5392 42.5979 9.41623 -21.4627 
50.6765 9.41623 -20.4617 58.7551 9.41623 -17.4472 -54.345 17.4948 -16.8564 
-46.2664 17.4948 -20.42 -38.1879 17.4948 -22.6509 -30.1093 17.4948 -22.1412 
-22.0307 17.4948 -21.4831 -13.9521 17.4948 -20.7086 -5.87355 17.4948 -20.643 
2.20503 17.4948 -21.6452 10.2836 17.4948 -21.9113 18.3622 17.4948 -21.8202 
26.4408 17.4948 -21.5316 34.5193 17.4948 -21.1105 42.5979 17.4948 -20.2472 
50.6765 17.4948 -18.8611 -46.2664 25.5734 -17.5075 -38.1879 25.5734 -20.7365 
-30.1093 25.5734 -21.8216 -22.0307 25.5734 -20.9629 -13.9521 25.5734 -19.9375 
-5.87355 25.5734 -19.0327 2.20503 25.5734 -20.0198 10.2836 25.5734 -20.7524 
18.3622 25.5734 -20.6189 26.4408 25.5734 -19.6722 34.5193 25.5734 -18.7342 
42.5979 25.5734 -17.7529 -30.1093 33.652 -17.4369 -22.0307 33.652 -17.4285 
18.3622 -31.0436 -16.8532 -38.1879 -26.6488 -16.8532 -30.1093 -28.2098 -16.8532 
-30.1093 -30.9767 -11.1372 -22.0307 -28.4866 -16.8532 -22.0307 -30.9767 -12.1089 
-13.9521 -28.2219 -16.8532 -13.9521 -30.9767 -12.8842 -5.87355 -28.0974 -16.8532 
-5.87355 -30.9767 -13.5008 2.20503 -28.0472 -16.8532 2.20503 -30.9767 -14.0002 
17.8979 -30.9767 -16.8532 10.2836 -29.5075 -16.8532 10.2836 -30.9767 -15.8578 
26.0667 -30.9767 -16.8532 26.4408 -30.9722 -16.8532 26.4408 -30.9767 -16.8499 
34.5193 -26.7115 -16.8532 34.5193 -30.9767 -12.8253 -45.9451 -22.8981 -16.8532 
-46.2664 -22.6606 -16.8532 -46.2664 -22.8981 -16.4571 41.6388 -22.8981 -16.8532 
42.5979 -22.3841 -16.8532 42.5979 -22.8981 -16.4679 50.6765 -22.8981 -9.50954 
-54.2002 -14.8195 -16.8532 -54.345 -14.4199 -16.8532 -54.345 -14.8195 -16.6551 
50.45 -14.8195 -16.8532 50.6765 -14.5436 -16.8532 50.6765 -14.8195 -16.7182 
58.7551 -14.8195 -9.69939 -56.5715 -6.74092 -16.8532 57.4099 -6.74092 -16.8532 
58.7551 -3.20627 -16.8532 58.7551 -6.74092 -15.9197 -57.5612 1.33765 -16.8532 
-62.4236 1.33765 -9.97274 59.7647 1.33765 -16.8532 -56.0342 9.41623 -16.8532 
59.5878 9.41623 -16.8532 58.7551 11.5851 -16.8532 -54.3486 17.4948 -16.8532 
-54.345 17.5012 -16.8532 54.8984 17.4948 -16.8532 50.6765 22.5449 -16.8532 
58.7551 17.4948 -14.7162 -47.288 25.5734 -16.8532 -46.2664 26.5197 -16.8532 
-38.1879 32.0123 -16.8532 -13.9521 31.9184 -16.8532 -5.87355 29.0175 -16.8532 
2.20503 29.2339 -16.8532 10.2836 30.2635 -16.8532 18.3622 30.2423 -16.8532 
26.4408 29.8665 -16.8532 34.5193 28.8277 -16.8532 45.7052 25.5734 -16.8532 
42.5979 26.6039 -16.8532 50.6765 25.5734 -15.1549 -32.687 33.652 -16.8532 
-38.1879 33.652 -14.6125 -30.1093 34.3081 -16.8532 -19.1296 33.652 -16.8532 
-22.0307 34.2823 -16.8532 -13.9521 33.652 -15.1347 -5.87355 33.652 -11.2553 
18.3622 33.652 -10.3302 26.4408 33.652 -10.4478 34.5193 33.652 -9.06495 
-30.1093 -31.812 -8.77463 -22.0307 -32.3539 -8.77463 -13.9521 -33.2779 -8.77463 
-5.87355 -34.2081 -8.77463 2.20503 -35.0159 -8.77463 10.2836 -36.9676 -8.77463 
10.2836 -39.0552 -1.34314 18.3622 -37.5942 -8.77463 18.3622 -39.0552 -1.55946 
26.4408 -36.4951 -8.77463 34.5193 -33.2839 -8.77463 -46.2664 -26.039 -8.77463 
-32.8355 -30.9767 -8.77463 -38.1879 -29.0731 -8.77463 38.8267 -30.9767 -8.77463 
42.5979 -28.8118 -8.77463 50.6765 -23.3655 -8.77463 -51.6886 -22.8981 -8.77463 
-54.345 -20.6051 -8.77463 51.2312 -22.8981 -8.77463 58.7551 -15.5844 -8.77463 
-58.3666 -14.8195 -8.77463 59.3835 -14.8195 -8.77463 -61.6669 -6.74092 -8.77463 
-62.4236 -2.1387 -8.77463 64.6469 -6.74092 -8.77463 -62.9861 1.33765 -8.77463 
-62.4236 5.06197 -8.77463 65.9971 1.33765 -8.77463 66.8336 1.33765 -1.54771 
-61.7659 9.41623 -8.77463 66.2394 9.41623 -8.77463 66.8336 9.41623 -3.35587 
-58.6383 17.4948 -8.77463 -54.345 24.2473 -8.77463 63.7039 17.4948 -8.77463 
58.7551 23.7534 -8.77463 -53.3122 25.5734 -8.77463 -46.2664 32.1895 -8.77463 
2.20503 33.0035 -8.77463 10.2836 33.4258 -8.77463 42.5979 32.7902 -8.77463 
56.7606 25.5734 -8.77463 50.6765 29.7756 -8.77463 -43.9294 33.652 -8.77463 
-38.1879 36.8098 -8.77463 -30.1093 38.7318 -8.77463 -22.0307 38.8291 -8.77463 
-13.9521 37.3657 -8.77463 -0.575287 33.652 -8.77463 -5.87355 34.9413 -8.77463 
12.5876 33.652 -8.77463 18.3622 34.23 -8.77463 18.3622 33.652 -3.29218 
26.4408 34.2523 -8.77463 35.4184 33.652 -8.77463 34.5193 33.7469 -8.77463 
34.5193 33.652 -5.02235 10.2836 -39.2101 -0.696049 18.3622 -39.2191 -0.696049 
-30.1093 -32.0521 -0.696049 -22.0307 -33.9271 -0.696049 -13.9521 -35.5456 -0.696049 
-5.87355 -36.8357 -0.696049 9.31081 -39.0552 -0.696049 2.20503 -37.8855 -0.696049 
10.2836 -39.0552 0.458054 19.1938 -39.0552 -0.696049 18.3622 -39.0552 0.243905 
26.4408 -37.4835 -0.696049 34.5193 -34.0133 -0.696049 -46.2664 -26.7399 -0.696049 
-34.1422 -30.9767 -0.696049 -38.1879 -29.869 -0.696049 40.1298 -30.9767 -0.696049 
42.5979 -29.5334 -0.696049 50.6765 -24.3458 -0.696049 -52.9747 -22.8981 -0.696049 
-54.345 -21.7118 -0.696049 52.4562 -22.8981 -0.696049 50.6765 -22.8981 2.83219 
58.7551 -16.7581 -0.696049 -58.9414 -14.8195 -0.696049 60.3565 -14.8195 -0.696049 
58.7551 -14.8195 2.60763 -62.2141 -6.74092 -0.696049 -62.4236 -5.25799 -0.696049 
65.3428 -6.74092 -0.696049 66.8336 0.753729 -0.696049 -63.2765 1.33765 -0.696049 
-62.4236 6.34851 -0.696049 -62.4236 1.33765 1.93848 66.8336 1.33765 -0.445402 
-61.8265 9.41623 -0.696049 66.8336 10.2428 -0.696049 66.8336 9.41623 0.0124196 
-57.6611 17.4948 -0.696049 -54.345 22.78 -0.696049 -54.345 17.4948 5.15937 
64.1646 17.4948 -0.696049 58.7551 24.574 -0.696049 -52.1396 25.5734 -0.696049 
-46.2664 31.0126 -0.696049 -46.2664 25.5734 7.30026 2.20503 33.3946 -0.696049 
10.2836 33.0272 -0.696049 18.3622 33.3737 -0.696049 34.5193 33.5355 -0.696049 
42.5979 33.0861 -0.696049 57.6759 25.5734 -0.696049 50.6765 30.0123 -0.696049 
-42.3395 33.652 -0.696049 -38.1879 35.9657 -0.696049 -38.1879 33.652 4.24656 
-30.1093 38.736 -0.696049 -22.0307 39.315 -0.696049 -13.9521 38.1804 -0.696049 
1.00449 33.652 -0.696049 -5.87355 35.2881 -0.696049 21.7131 33.652 -0.696049 
32.706 33.652 -0.696049 26.4408 34.0502 -0.696049 26.4408 33.652 0.198145 
-30.1093 -31.9652 7.38253 -22.0307 -34.0774 7.38253 -13.9521 -35.782 7.38253 
-5.87355 -36.6897 7.38253 2.20503 -37.2149 7.38253 10.2836 -38.0782 7.38253 
18.3622 -37.7076 7.38253 26.4408 -35.4057 7.38253 34.5193 -31.6557 7.38253 
-46.2664 -25.3639 7.38253 -33.1819 -30.9767 7.38253 -38.1879 -29.2948 7.38253 
-30.1093 -30.9767 12.362 26.4408 -30.9767 15.1532 35.7103 -30.9767 7.38253 
34.5193 -30.9767 8.72831 42.5979 -26.6153 7.38253 -49.8799 -22.8981 7.38253 
-54.345 -18.242 7.38253 -46.2664 -22.8981 13.5524 47.808 -22.8981 7.38253 
42.5979 -22.8981 12.8545 50.6765 -20.4804 7.38253 -56.7398 -14.8195 7.38253 
-54.345 -14.8195 11.6067 55.94 -14.8195 7.38253 50.6765 -14.8195 12.9086 
58.7551 -10.3315 7.38253 -59.375 -6.74092 7.38253 61.1835 -6.74092 7.38253 
58.7551 -6.74092 9.83606 -60.2344 1.33765 7.38253 -54.345 1.33765 15.1881 
62.8712 1.33765 7.38253 58.7551 1.33765 11.2662 -58.0845 9.41623 7.38253 
-54.345 15.4311 7.38253 -54.345 9.41623 11.7992 62.7925 9.41623 7.38253 
58.7551 9.41623 10.8691 -53.0336 17.4948 7.38253 -46.2664 25.5141 7.38253 
-46.2664 17.4948 14.5538 50.6765 17.4948 13.9865 59.2483 17.4948 7.38253 
58.7551 18.1816 7.38253 58.7551 17.4948 7.94803 -46.209 25.5734 7.38253 
-38.1879 32.1608 7.38253 -38.1879 25.5734 14.5916 2.20503 32.0182 7.38253 
10.2836 30.6998 7.38253 18.3622 29.8808 7.38253 18.3622 25.5734 13.3636 
26.4408 30.0612 7.38253 26.4408 25.5734 13.2265 34.5193 30.1425 7.38253 
34.5193 25.5734 12.8148 42.5979 28.5094 7.38253 42.5979 25.5734 11.3084 
50.8356 25.5734 7.38253 50.6765 25.6734 7.38253 50.6765 25.5734 7.48827 
-35.3683 33.652 7.38253 -30.1093 36.0541 7.38253 -30.1093 33.652 11.7274 
-22.0307 37.21 7.38253 -22.0307 33.652 13.6226 -13.9521 36.3645 7.38253 
-13.9521 33.652 12.1296 -4.94435 33.652 7.38253 -5.87355 33.8651 7.38253 
-5.87355 33.652 7.78507 -22.0307 -32.1335 15.4611 -13.9521 -33.4301 15.4611 
-5.87355 -33.8759 15.4611 2.20503 -33.7579 15.4611 10.2836 -33.9448 15.4611 
18.3622 -33.2095 15.4611 -38.1879 -27.0135 15.4611 -27.1496 -30.9767 15.4611 
-30.1093 -30.249 15.4611 -22.0307 -30.9767 17.1745 -13.9521 -30.9767 18.9303 
-5.87355 -30.9767 19.4137 2.20503 -30.9767 18.9904 10.2836 -30.9767 18.7147 
[...]
POINT_DATA 526
SCALARS ImageScalars float
LOOKUP_TABLE default
0 0 0 0 0 0 0 0 0 
0 0 0 0 0 0 0 0 0 
0 0 0 0 0 0 0 0 0 
0 0 0 0 0 0 0 0 0 
0 0 0 0 0 0 0 0 0 
0 0 0 0 0 0 0 0 0 
0 0 0 0 0 0 0 0 0 
0 0 0 0 0 0 0 0 0 
0 0 0 0 0 0 0 0 0 
0 0 0 0 0 0 0 0 0 
0 0 0 0 0 0 0 0 0 
0 0 0 0 0 0 0 0 0 
0 0 0 0 0 0 0 0 0 
0 0 0 0 0 0 0 0 0 
0 0 0 0 0 0 0 0 0 
0 0 0 0 0 0 0 0 0 
0 0 0 0 0 0 0 0 0 
0 0 0 0 0 0 0 0 0 
0 0 0 0 0 0 0 0 0 
0 0 0 0 0 0 0 0 0 
0 0 0 0 0 0 0 0 0 
0 0 0 0 0 0 0 0 0 
0 0 0 0 0 0 0 0 0 
0 0 0 0 0 0 0 0 0 
0 0 0 0 0 0 0 0 0 
0 0 0 0 0 0 0 0 0 
0 0 0 0 0 0 0 0 0 
0 0 0 0 0 0 0 0 0 
0 0 0 0 0 0 0 0 0 
0 0 0 0 0 0 0 0 0 
0 0 0 0 0 0 0 0 0 
0 0 0 0 0 0 0 0 0 
0 0 0 0 0 0 0 0 0 
0 0 0 0 0 0 0 0 0 
0 0 0 0 0 0 0 0 0 
0 0 0 0 0 0 0 0 0 
0 0 0 0 0 0 0 0 0 
0 0 0 0 0 0 0 0 0 
0 0 0 0 0 0 0 0 0 
0 0 0 0 0 0 0 0 0 
0 0 0 0 0 0 0 0 0 
0 0 0 0 0 0 0 0 0 
0 0 0 0 0 0 0 0 0 
0 0 0 0 0 0 0 0 0 
0 0 0 0 0 0 0 0 0 
0 0 0 0 0 0 0 0 0 
0 0 0 0 0 0 0 0 0 
0 0 0 0 0 0 0 0 0 
0 0 0 0 0 0 0 0 0 
0 0 0 0 0 0 0 0 0 
0 0 0 0 0 0 0 0 0 
0 0 0 0 0 0 0 0 0 
0 0 0 0 0 0 0 0 0 
0 0 0 0 0 0 0 0 0 
0 0 0 0 0 0 0 0 0 
0 0 0 0 0 0 0 0 0 
0 0 0 0 0 0 0 0 0 
0 0 0 0 0 0 0 0 0 
0 0 0 0 
NORMALS Normals float
0.0521392 0.139418 0.98886 0.0461226 0.575511 0.816492 0.250286 0.575559 0.778517 
0.0522363 0.141173 0.988606 0.0668751 0.550466 0.832175 -0.0293719 0.525664 0.850185 
-0.0540912 0.495796 0.866753 -0.0474933 0.472919 0.879825 -0.0484997 0.488625 0.871145 
-0.0122292 0.363824 0.931387 0.00937192 0.218646 0.975759 -0.0795718 0.256505 0.963262 
-0.226143 0.377512 0.897967 0.380316 0.263413 0.886552 0.053753 0.139509 0.988761 
0.187597 0.149765 0.970761 0.0429535 0.135426 0.989856 0.0455316 0.0840642 0.99542 
-0.0546301 0.0924991 0.994213 -0.0870678 0.116285 0.989392 -0.0227724 0.0549882 0.998227 
-0.0495926 0.0745287 0.995985 -0.1525 0.190711 0.969728 -0.0683026 0.0418637 0.996786 
-0.00896158 0.043968 0.998993 -0.0702639 0.140872 0.987531 -0.233803 0.243897 0.941196 
0.585854 0.137267 0.798707 0.270098 0.0341534 0.962227 0.129369 -0.0549042 0.990075 
0.0158825 -0.152751 0.988137 -0.059385 -0.200371 0.977919 -0.109231 -0.0979576 0.989178 
-0.103048 -0.0404236 0.993855 0.0769963 -0.198627 0.977046 -0.0738519 0.0237128 0.996987 
-0.149742 -0.0398224 0.987923 0.0284443 -0.0274901 0.999217 0.0164415 0.0424721 0.998962 
-0.0692025 0.0978478 0.992792 -0.306493 0.22537 0.924808 0.490894 -0.0341139 0.870551 
0.191046 -0.0683386 0.979199 0.0133182 -0.0962705 0.995266 -0.0937381 -0.177546 0.979638 
-0.0209606 -0.222728 0.974655 0.0786266 -0.216861 0.973031 -0.113108 -0.0318918 0.993071 
0.0181494 -0.0906771 0.995715 -0.00494 -0.134447 0.990908 -0.12082 -0.0330178 0.992125 
0.0714223 -0.0090693 0.997405 0.0499887 -0.00102799 0.998749 -0.0604155 0.00413969 0.998165 
-0.253254 0.00788445 0.967368 -0.525065 0.0654399 0.848543 0.532882 -0.144658 0.833733 
0.216104 -0.116578 0.969386 0.0181792 -0.0258843 0.9995 -0.119301 -0.0266018 0.992502 
-0.0847148 -0.00255457 0.996402 0.0803528 -0.0892654 0.992761 0.0142384 -0.131128 0.991263 
-0.0218745 0.0721642 0.997153 -0.00834736 -0.0605868 0.998128 -0.0270736 0.0781899 0.996571 
0.0600148 0.0343782 0.997605 0.0297893 -0.0385628 0.998812 -0.0616126 -0.0918624 0.993864 
-0.253809 -0.100053 0.962066 -0.50188 -0.132189 0.854776 0.641602 -0.299648 0.706086 
0.315225 -0.194752 0.928819 0.115036 -0.114972 0.986685 -0.0708164 0.0041824 0.997481 
-0.0879954 0.0301864 0.995663 -0.0518116 -0.031375 0.998164 0.056608 -0.160364 0.985433 
0.0789544 -0.0279958 0.996485 0.010752 -0.0338683 0.999368 -0.0228227 0.0145808 0.999633 
-0.0467283 -0.0782831 0.995835 -0.0734257 -0.151691 0.985697 -0.130994 -0.184393 0.974084 
-0.285702 -0.291476 0.912916 0.491547 -0.48121 0.725823 0.20995 -0.341428 0.916159 
0.0217312 -0.250685 0.967825 -0.112858 -0.216325 0.969776 -0.112018 -0.247578 0.962371 
-0.0046741 -0.390996 0.920381 0.107278 -0.471484 0.875325 0.03486 -0.426069 0.904019 
-0.0695517 -0.406011 0.911218 -0.103595 -0.399486 0.910867 -0.104185 -0.422864 0.900184 
-0.19372 -0.525958 0.828155 0.0963442 -0.650015 0.753789 -0.088205 -0.629519 0.771962 
0.0461937 0.578135 0.814633 0.281741 0.825666 0.488772 0.102711 0.804962 0.584369 
0.169373 0.943008 0.286443 0.00161837 0.794619 0.607107 0.0489239 0.916786 0.39637 
-0.018519 0.739367 0.673048 0.0428653 0.859035 0.510118 -0.00792108 0.692351 0.721518 
0.0405615 0.80363 0.593745 0.042888 0.645867 0.762245 0.103855 0.745935 0.657872 
0.0506405 0.577692 0.814682 0.102879 0.559095 0.822696 0.127939 0.622823 0.771831 
-0.122823 0.603964 0.787491 -0.130726 0.604661 0.785682 -0.130793 0.604942 0.785454 
-0.300051 0.531069 0.792424 -0.399017 0.775583 0.489139 0.478247 0.705816 0.522593 
0.485547 0.696044 0.528929 0.484484 0.714691 0.504471 -0.339954 0.548282 0.76408 
-0.347317 0.548724 0.760442 -0.361015 0.577481 0.732246 -0.599006 0.728464 0.332465 
0.683518 0.380245 0.62307 0.685473 0.369246 0.627522 0.692064 0.384768 0.610738 
-0.45364 0.393575 0.799568 -0.454394 0.391714 0.800054 -0.461345 0.400543 0.791661 
-0.73517 0.571987 0.363808 0.685142 0.156436 0.711413 -0.541585 0.29052 0.78885 
-0.56465 0.19803 0.801221 -0.608785 0.315101 0.728074 0.664483 -0.0220397 0.746978 
0.956935 0.00335625 0.290284 -0.569291 0.0718331 0.818992 0.620688 -0.153022 0.76898 
-0.534328 -0.134741 0.834469 -0.515134 -0.21112 0.830702 0.641775 -0.29968 0.705915 
0.641704 -0.299865 0.705901 -0.42604 -0.351229 0.833743 -0.36398 -0.43297 0.824654 
-0.587699 -0.443517 0.676685 0.52076 -0.499776 0.692122 0.502173 -0.516535 0.693552 
0.280118 -0.661156 0.695993 -0.19979 -0.601241 0.773688 -0.0848433 -0.56919 0.817817 
0.0624155 -0.725175 0.68573 0.0518094 -0.765477 0.641374 -0.0177733 -0.723605 0.689986 
-0.0531078 -0.643428 0.763662 -0.137272 -0.604539 0.784659 -0.275392 -0.534412 0.799101 
-0.203886 -0.579275 0.789222 -0.416007 -0.58016 0.700252 0.16058 -0.683336 0.712226 
0.322686 -0.790339 0.520804 0.0992651 -0.676376 0.729836 -0.13752 -0.65726 0.741012 
-0.0907532 -0.661342 0.744574 -0.230898 -0.743011 0.628189 -0.221059 -0.8917 0.394974 
0.0464161 -0.976036 0.2126 -0.0246534 -0.967837 0.250366 -0.0869481 -0.982657 0.163782 
0.184758 0.964691 0.18771 0.0893891 0.954336 0.285048 0.106957 0.916181 0.386229 
0.0965674 0.887303 0.450964 0.15031 0.862964 0.48239 0.142905 0.885059 0.442999 
0.0864302 0.992827 0.0826098 -0.0320881 0.928285 0.370481 -0.0919291 0.994853 0.0426307 
-0.243931 0.921192 0.303155 -0.419111 0.865741 0.273566 0.440282 0.874976 0.201417 
0.227068 0.956101 0.185233 0.315773 0.932589 0.174831 -0.465839 0.843083 0.268712 
-0.505576 0.81633 0.279281 -0.601001 0.743947 0.292133 0.589427 0.77727 0.22006 
0.704484 0.671188 0.230671 -0.607555 0.737849 0.294035 -0.741633 0.589815 0.31953 
0.843641 0.488667 0.22243 -0.754943 0.573367 0.318294 0.936798 0.242668 0.252036 
0.963579 0.105153 0.245883 -0.848089 0.385198 0.363823 0.970866 0.00469706 0.239575 
0.965018 -0.108366 0.238742 -0.932142 0.0799023 0.353167 -0.991514 0.0958264 -0.0878452 
0.941266 -0.241328 0.236175 -0.925639 -0.132767 0.354353 -0.987405 -0.156878 0.0205136 
0.882313 -0.441881 0.162062 0.7761 -0.614648 0.140986 -0.848351 -0.430437 0.30826 
-0.665208 -0.669477 0.330604 0.745912 -0.650169 0.144557 0.578374 -0.803464 0.14117 
-0.0856615 -0.976154 0.199464 0.0745313 -0.989501 0.123823 -0.243374 -0.931943 0.268798 
-0.606482 -0.729223 0.31688 -0.436653 -0.860503 0.262429 0.51417 -0.845159 0.146068 
0.373121 -0.912032 0.170228 0.11225 -0.970815 0.211938 -0.0730327 -0.96556 0.249721 
-0.247197 -0.925357 0.287416 -0.14106 -0.966371 0.215008 -0.250034 -0.93325 0.25793 
0.0687393 -0.98999 0.123268 0.0517527 -0.9905 0.127406 0.05986 -0.990558 -0.123334 
-0.0279415 -0.986758 0.159774 -0.101325 -0.98189 0.160076 -0.0842853 -0.985347 0.148283 
-0.0715979 -0.997413 -0.00637056 0.0820436 0.995191 0.0535218 -0.0973435 0.995223 0.00750792 
0.233225 0.972363 0.0108344 0.213765 0.971311 0.104208 0.173407 0.974289 0.143844 
0.140523 0.980907 0.134445 0.0900254 0.994128 0.0600355 0.142737 0.98342 0.111857 
0.0754015 0.99713 0.00681326 -0.118124 0.992996 0.00223207 -0.102792 0.994332 -0.0271762 
-0.307585 0.949963 -0.0544168 -0.432245 0.897584 -0.0866417 0.460966 0.886756 -0.0342744 
0.259604 0.965678 0.00853228 0.298271 0.954386 0.0135106 -0.500225 0.860435 -0.0970938 
-0.524096 0.845257 -0.104231 -0.607596 0.786438 -0.111091 0.636963 0.76783 -0.0686683 
0.697952 0.711978 -0.0771331 -0.634799 0.763912 -0.116057 -0.616082 0.741877 -0.264691 
-0.761791 0.631659 -0.143809 0.871701 0.483823 -0.0778014 -0.796993 0.585395 -0.148713 
-0.769742 0.56747 -0.292361 0.96278 0.237882 -0.128321 0.97247 0.191916 -0.132179 
-0.900096 0.406481 -0.156846 -0.982573 0.119444 -0.14242 0.988733 -0.0218601 -0.148086 
0.969117 -0.187087 -0.160655 0.968498 -0.0255259 -0.24771 -0.982974 0.097112 -0.155983 
0.941706 -0.28808 -0.173783 -0.969276 -0.192597 -0.153006 -0.966874 -0.167223 -0.19285 
0.836797 -0.478014 -0.266971 0.763349 -0.587953 -0.267598 0.755202 -0.469263 -0.457671 
-0.868255 -0.453705 -0.200711 -0.685564 -0.707373 -0.172119 0.708145 -0.652374 -0.27007 
0.59465 -0.765442 -0.245946 0.609641 -0.589988 -0.529388 -0.129458 -0.99008 -0.0546011 
-0.0024073 -0.987761 -0.155958 0.0606154 -0.968918 -0.239841 -0.0543789 -0.980313 -0.189813 
-0.216848 -0.945092 -0.244497 -0.639492 -0.749649 -0.17052 -0.409149 -0.892939 -0.187767 
0.503388 -0.832742 -0.230525 0.42367 -0.872306 -0.244102 0.418523 -0.822656 -0.384806 
0.175823 -0.972424 -0.153225 -0.0288113 -0.995221 -0.0933028 -0.24603 -0.967148 -0.0639898 
-0.150645 -0.987042 -0.0552615 -0.282218 -0.957341 -0.0620631 0.0404414 -0.971067 -0.235357 
-0.0394347 -0.979369 -0.198198 0.00998353 -0.973915 -0.226693 0.0117937 -0.964894 -0.262376 
0.275741 0.956159 -0.0986213 0.230485 0.96809 -0.0983838 0.155698 0.980902 -0.11657 
0.0856959 0.982916 -0.16289 0.0828166 0.970592 -0.226035 0.0301222 0.960403 -0.276982 
-0.145643 0.93937 -0.310438 -0.333711 0.880347 -0.337084 -0.441969 0.827691 -0.345819 
0.519755 0.821334 -0.235086 0.301724 0.946245 -0.116547 0.356401 0.921686 -0.153208 
0.277507 0.92202 -0.26994 -0.300228 0.72991 -0.61408 -0.449469 0.8213 -0.351345 
-0.442213 0.810637 -0.383817 -0.509025 0.762513 -0.399335 0.60404 0.749415 -0.271131 
0.761137 0.554861 -0.335857 0.565414 0.720151 -0.402106 -0.570939 0.692813 -0.440499 
-0.512702 0.638186 -0.57433 -0.609202 0.636351 -0.473213 0.830302 0.440367 -0.341578 
0.785034 0.40962 -0.464687 -0.697901 0.516658 -0.495983 -0.576323 0.467798 -0.670087 
-0.73138 0.41412 -0.541837 0.8971 0.166975 -0.409061 -0.734134 0.339614 -0.58797 
-0.711992 0.289479 -0.639742 0.883329 -0.0541351 -0.465617 0.705577 -0.152902 -0.691941 
-0.765966 0.0715878 -0.638883 -0.67752 0.040555 -0.734385 0.790371 -0.333207 -0.514088 
0.732211 -0.432182 -0.526389 0.693396 -0.351537 -0.628987 -0.723385 -0.17524 -0.667836 
-0.654125 -0.135619 -0.744129 0.71228 -0.464065 -0.526594 0.609301 -0.588165 -0.531803 
0.554873 -0.448583 -0.700635 -0.394453 -0.445223 -0.803855 -0.686066 -0.417314 -0.595955 
-0.674976 -0.436694 -0.594732 -0.676238 -0.412349 -0.610467 0.608486 -0.589177 -0.531615 
0.429293 -0.763556 -0.482379 0.462553 -0.541388 -0.702099 -0.174342 -0.931914 -0.318026 
-0.119583 -0.912473 -0.39127 -0.0374834 -0.868809 -0.493726 -0.0835863 -0.75866 -0.646103 
0.0141501 -0.840518 -0.541599 -0.0233583 -0.747236 -0.664148 -0.0850019 -0.851833 -0.516871 
-0.0781656 -0.729543 -0.679454 -0.218709 -0.815032 -0.536553 -0.240222 -0.711102 -0.660777 
-0.394346 -0.688108 -0.609096 -0.389906 -0.691488 -0.608126 -0.390846 -0.68744 -0.6121 
0.36692 -0.814479 -0.449438 0.259325 -0.875235 -0.408306 0.284595 -0.787718 -0.546357 
0.0166119 -0.928354 -0.371325 0.0103002 -0.79396 -0.607882 -0.197985 -0.911871 -0.359573 
-0.188271 -0.825899 -0.531455 -0.245136 -0.912957 -0.326217 -0.254227 -0.909473 -0.328979 
-0.251872 -0.904435 -0.344322 0.182682 0.888859 -0.420187 0.0991492 0.886073 -0.452819 
0.0190378 0.877424 -0.479338 0.00303624 0.845992 -0.533187 -0.0262699 0.793195 -0.608401 
-0.156061 0.751358 -0.641176 0.401094 0.812876 -0.422322 0.240286 0.885846 -0.396913 
0.27331 0.878447 -0.391961 0.172332 0.850229 -0.497406 0.0894207 0.783088 -0.615448 
0.00125945 0.759658 -0.650322 -0.0309927 0.745585 -0.66569 -0.0631558 0.677532 -0.732776 
-0.287115 0.723234 -0.62809 -0.160397 0.67071 -0.724169 -0.297629 0.718577 -0.628541 
-0.417744 0.636786 -0.648069 0.549627 0.699585 -0.456609 0.584784 0.655718 -0.477558 
0.355444 0.634038 -0.686772 0.186507 0.524055 -0.831012 -0.124889 0.367939 -0.921425 
-0.22663 0.41979 -0.878871 -0.46561 0.580204 -0.66826 -0.386295 0.508895 -0.769287 
-0.49423 0.521242 -0.695733 0.719942 0.377602 -0.582323 0.770127 0.106068 -0.629011 
0.572282 0.317641 -0.756041 -0.295398 0.265371 -0.917779 -0.516077 0.409073 -0.752545 
-0.450611 0.34412 -0.82373 -0.536886 0.302448 -0.787578 0.77078 0.0927787 -0.63031 
0.751872 0.00776262 -0.659263 0.767967 0.0918372 -0.633871 0.516171 0.0171464 -0.856314 
-0.25532 0.100573 -0.961611 -0.371318 0.128938 -0.91951 -0.564209 0.198489 -0.801418 
-0.512666 0.191598 -0.836937 0.696338 -0.156157 -0.70052 0.502951 -0.18774 -0.843679 
-0.254802 -0.0573692 -0.96529 -0.35935 -0.0379782 -0.93243 -0.541758 0.00880175 -0.840489 
-0.491937 0.00137177 -0.87063 0.603426 -0.347318 -0.717807 0.545959 -0.424108 -0.722538 
0.508309 -0.340208 -0.791126 0.306376 -0.307204 -0.900977 -0.227171 -0.224024 -0.947738 
-0.319518 -0.200936 -0.926031 -0.516417 -0.139847 -0.844841 -0.421071 -0.315159 -0.850514 
-0.459897 -0.158102 -0.873784 0.526941 -0.440051 -0.72711 0.450603 -0.514973 -0.729219 
0.38098 -0.394186 -0.836344 0.22639 -0.307571 -0.924201 -0.18142 -0.433668 -0.88262 
-0.0860478 -0.694553 -0.714278 -0.0595719 -0.535954 -0.842143 -0.0327098 -0.687663 -0.725293 
-0.0398639 -0.524031 -0.850765 -0.106799 -0.642329 -0.758951 -0.157265 -0.466528 -0.870414 
-0.338959 -0.431779 -0.835867 -0.284249 -0.490006 -0.824073 -0.297735 -0.412225 -0.86106 
0.434148 -0.526758 -0.730781 0.297709 -0.64339 -0.705279 0.292204 -0.47412 -0.830558 
0.0146213 -0.717514 -0.696391 0.0460184 -0.480922 -0.875555 -0.163845 -0.716323 -0.67826 
-0.100592 -0.560728 -0.821867 -0.165694 -0.738301 -0.653802 -0.118004 -0.68895 -0.715138 
-0.137439 -0.768939 -0.624375 -0.131125 -0.725587 -0.675522 -0.164466 -0.722291 -0.671749 
-0.16683 -0.722933 -0.670474 -0.167002 -0.721199 -0.672297 0.0912315 0.516923 -0.851156 
0.0482196 0.464494 -0.884262 -0.00542994 0.463112 -0.886283 -0.0875787 0.445886 -0.890795 
-0.122502 0.353988 -0.927192 0.321896 0.408791 -0.853975 0.17864 0.517621 -0.836753 
0.184151 0.515576 -0.836821 0.0734257 0.451061 -0.889468 0.0325255 0.370392 -0.928306 
-0.00353309 0.327638 -0.944797 -0.0954702 0.356599 -0.929367 -0.122702 0.352225 -0.927837 
-0.122763 0.351847 -0.927972 -0.117884 0.305923 -0.94473 -0.190121 0.238622 -0.95232 
0.416367 0.275585 -0.866425 0.310978 0.265237 -0.912656 0.109429 0.228683 -0.967331 
-0.0102366 0.19623 -0.980504 -0.0459333 0.166575 -0.984958 -0.0193857 0.100366 -0.994762 
-0.0408858 0.10404 -0.993732 -0.0931463 0.207445 -0.973802 -0.108809 0.222665 -0.968804 
-0.202982 0.220946 -0.953929 -0.186131 0.215162 -0.958677 0.450438 0.00373492 -0.8928 
0.285331 -0.0171308 -0.958276 0.117429 -0.0249446 -0.992768 0.00375968 0.0172722 -0.999844 
-0.0692291 0.107532 -0.991788 -0.0712195 0.0924262 -0.993169 0.0116637 -0.0352722 -0.99931 
-0.00750676 0.0448525 -0.998965 -0.122948 0.0996622 -0.987396 -0.246011 0.0982523 -0.964274 
-0.184192 0.0808296 -0.979561 0.373318 -0.206267 -0.904482 0.294772 -0.267977 -0.917223 
0.282638 -0.210823 -0.935772 0.144847 -0.181937 -0.972583 0.120802 -0.138924 -0.982907 
0.0261443 -0.0236466 -0.999378 -0.162101 0.0700105 -0.984287 -0.0878922 -0.0510998 -0.994818 
0.0419021 -0.175505 -0.983586 -0.0734154 -0.113902 -0.990776 -0.253042 -0.0577495 -0.96573 
-0.18375 -0.0700443 -0.980474 0.240859 -0.276197 -0.930431 0.205219 -0.271673 -0.940255 
0.186656 -0.252153 -0.949515 0.157048 -0.228311 -0.960838 0.140993 -0.24681 -0.958752 
-0.0917847 -0.166469 -0.981766 -0.234086 -0.12146 -0.964599 -0.0946671 -0.318689 -0.94312 
-0.0701119 -0.294337 -0.953126 -0.0249695 -0.391324 -0.919914 -0.0167338 -0.350862 -0.936278 
-0.1437 -0.268324 -0.952551 -0.11617 -0.29848 -0.94732 -0.122726 -0.278504 -0.952562 
0.124154 -0.29919 -0.946082 0.110142 -0.30614 -0.945593 0.113866 -0.298715 -0.947525 
0.0404187 -0.426962 -0.903366 0.0650354 -0.408166 -0.910588 -0.0411132 -0.545556 -0.837066 
-0.0300649 -0.500736 -0.865078 -0.197507 -0.405845 -0.892346 -0.196581 -0.413543 -0.88901 
-0.19879 -0.404959 -0.892463 
