# vtk DataFile Version 4.2
vtk output
ASCII
DATASET POLYDATA
POINTS 538 float
-28.3831 -32.3095 -16.4701 -20.4377 -32.3095 -18.2179 -12.4923 -32.3095 -18.2838 
-4.54692 -32.3095 -18.0106 3.39848 -32.3095 -17.6434 11.3439 -32.3095 -17.5882 
19.2893 -32.3095 -17.1241 27.2347 -32.3095 -15.6403 -44.2739 -24.3641 -17.2486 
-36.3285 -24.3641 -18.6494 -28.3831 -24.3641 -19.6276 -20.4377 -24.3641 -19.8999 
-12.4923 -24.3641 -20.0747 -4.54692 -24.3641 -20.1503 3.39848 -24.3641 -19.5865 
11.3439 -24.3641 -19.5568 19.2893 -24.3641 -19.7158 27.2347 -24.3641 -19.7638 
35.1801 -24.3641 -18.1408 43.1255 -24.3641 -16.6019 -52.2193 -16.4187 -16.6252 
-44.2739 -16.4187 -19.7579 -36.3285 -16.4187 -20.3158 -28.3831 -16.4187 -19.9183 
-20.4377 -16.4187 -19.4547 -12.4923 -16.4187 -19.5397 -4.54692 -16.4187 -19.7596 
3.39848 -16.4187 -19.3175 11.3439 -16.4187 -19.551 19.2893 -16.4187 -19.768 
27.2347 -16.4187 -19.9426 35.1801 -16.4187 -19.5317 43.1255 -16.4187 -18.9216 
51.0709 -16.4187 -16.9521 -52.2193 -8.47326 -18.2437 -44.2739 -8.47326 -20.2373 
-36.3285 -8.47326 -21.468 -28.3831 -8.47326 -20.2297 -20.4377 -8.47326 -18.8019 
-12.4923 -8.47326 -18.9834 -4.54692 -8.47326 -19.6937 3.39848 -8.47326 -19.4339 
11.3439 -8.47326 -19.4569 19.2893 -8.47326 -18.2377 27.2347 -8.47326 -18.8652 
35.1801 -8.47326 -19.278 43.1255 -8.47326 -19.1086 51.0709 -8.47326 -17.2946 
-60.1647 -0.527862 -15.2254 -52.2193 -0.527862 -18.8205 -44.2739 -0.527862 -20.1537 
-36.3285 -0.527862 -20.3017 -28.3831 -0.527862 -19.6919 -20.4377 -0.527862 -18.196 
-12.4923 -0.527862 -20.5862 -4.54692 -0.527862 -19.4803 3.39848 -0.527862 -19.2344 
11.3439 -0.527862 -22.3733 19.2893 -0.527862 -16.7759 27.2347 -0.527862 -17.9106 
35.1801 -0.527862 -18.8517 43.1255 -0.527862 -18.8303 51.0709 -0.527862 -17.3468 
-52.2193 7.41754 -17.4473 -44.2739 7.41754 -19.2832 -36.3285 7.41754 -19.4496 
-28.3831 7.41754 -18.4867 -20.4377 7.41754 -17.5719 -12.4923 7.41754 -19.8883 
-4.54692 7.41754 -19.8557 3.39848 7.41754 -19.4852 11.3439 7.41754 -20.0063 
19.2893 7.41754 -16.9377 27.2347 7.41754 -17.7482 35.1801 7.41754 -18.6696 
43.1255 7.41754 -19.2923 51.0709 7.41754 -17.5842 59.0163 7.41754 -15.2577 
-44.2739 15.3629 -16.6593 -36.3285 15.3629 -17.5376 -28.3831 15.3629 -17.363 
-20.4377 15.3629 -17.3813 -12.4923 15.3629 -18.6999 -4.54692 15.3629 -18.2501 
3.39848 15.3629 -17.9498 11.3439 15.3629 -18.2012 19.2893 15.3629 -17.4386 
27.2347 15.3629 -18.1729 35.1801 15.3629 -18.6681 43.1255 15.3629 -19.1626 
51.0709 15.3629 -16.6373 -20.4377 23.3083 -16.4623 -12.4923 23.3083 -17.0993 
-4.54692 23.3083 -16.1008 3.39848 23.3083 -16.0626 11.3439 23.3083 -17.2448 
19.2893 23.3083 -17.3652 27.2347 23.3083 -18.079 35.1801 23.3083 -18.2324 
43.1255 23.3083 -17.2148 51.0709 23.3083 -16.1489 19.2893 31.2537 -15.1624 
27.2347 31.2537 -15.4302 35.1801 31.2537 -16.2856 -28.3831 -34.1344 -14.9435 
-20.4377 -36.2663 -14.9435 -12.4923 -36.4277 -14.9435 -4.54692 -35.9979 -14.9435 
3.39848 -35.8964 -14.9435 11.3439 -35.9794 -14.9435 11.3439 -40.2549 -7.31654 
19.2893 -35.0629 -14.9435 27.2347 -33.0916 -14.9435 -44.2739 -27.8144 -14.9435 
-44.2739 -32.3095 -7.44955 -35.9333 -32.3095 -14.9435 -36.3285 -32.1677 -14.9435 
-36.3285 -32.3095 -14.7848 29.5996 -32.3095 -14.9435 35.1801 -29.8676 -14.9435 
35.1801 -32.3095 -11.6381 43.1255 -26.6429 -14.9435 -48.3677 -24.3641 -14.9435 
-52.2193 -19.7967 -14.9435 -52.2193 -24.3641 -10.8091 46.6471 -24.3641 -14.9435 
51.0709 -20.6291 -14.9435 51.0709 -24.3641 -11.8201 -54.7486 -16.4187 -14.9435 
-60.1647 -16.4187 -8.20418 54.6002 -16.4187 -14.9435 59.0163 -16.4187 -11.2698 
-58.0699 -8.47326 -14.9435 -60.1647 -1.79029 -14.9435 -60.1647 -8.47326 -13.2099 
57.688 -8.47326 -14.9435 59.0163 -8.47326 -14.4244 66.9617 -8.47326 -9.085 
-60.5251 -0.527862 -14.9435 -60.1647 0.734262 -14.9435 58.4447 -0.527862 -14.9435 
59.0163 2.70288 -14.9435 59.0163 -0.527862 -14.7582 66.9617 -0.527862 -8.78674 
-57.6489 7.41754 -14.9435 -60.1647 7.41754 -13.5546 -52.2193 15.0877 -14.9435 
59.7615 7.41754 -14.9435 59.0163 8.98686 -14.9435 66.9617 7.41754 -10.4994 
-60.1647 15.3629 -10.106 -51.8119 15.3629 -14.9435 -52.2193 15.3629 -14.8471 
-44.2739 18.4492 -14.9435 -36.3285 20.7719 -14.9435 -28.3831 23.2322 -14.9435 
55.8796 15.3629 -14.9435 59.0163 15.3629 -13.7657 -52.2193 23.3083 -8.25561 
-44.2739 23.3083 -11.6735 -36.3285 23.3083 -13.4412 -28.2664 23.3083 -14.9435 
-28.3831 23.3083 -14.9165 -20.4377 26.2745 -14.9435 -12.4923 28.233 -14.9435 
-4.54692 25.7487 -14.9435 3.39848 25.6394 -14.9435 11.3439 28.6902 -14.9435 
43.1255 30.1668 -14.9435 55.9208 23.3083 -14.9435 51.0709 25.428 -14.9435 
59.0163 23.3083 -13.7208 -28.3831 31.2537 -8.12447 -20.4377 31.2537 -11.0328 
-12.4923 31.2537 -12.8935 -4.54692 31.2537 -10.4543 3.39848 31.2537 -10.3534 
18.0721 31.2537 -14.9435 11.3439 31.2537 -13.1677 19.2893 31.5455 -14.9435 
27.2347 31.8701 -14.9435 41.5542 31.2537 -14.9435 35.1801 32.9686 -14.9435 
43.1255 31.2537 -14.4768 51.0709 31.2537 -11.0473 11.3439 -40.378 -6.99809 
-44.2739 -32.5146 -6.99809 -36.3285 -36.3017 -6.99809 -28.3831 -37.7196 -6.99809 
-20.4377 -38.6357 -6.99809 -12.4923 -39.0928 -6.99809 -4.54692 -39.3758 -6.99809 
8.12483 -40.2549 -6.99809 3.39848 -40.0763 -6.99809 12.3816 -40.2549 -6.99809 
11.3439 -40.2549 -2.78495 19.2893 -39.3897 -6.99809 27.2347 -37.0835 -6.99809 
35.1801 -34.4901 -6.99809 -44.6257 -32.3095 -6.99809 -52.2193 -27.054 -6.99809 
-44.2739 -32.3095 -2.36547 42.1101 -32.3095 -6.99809 43.1255 -31.9701 -6.99809 
43.1255 -32.3095 -0.0788749 51.0709 -28.1204 -6.99809 -55.0533 -24.3641 -6.99809 
-60.1647 -17.5759 -6.99809 57.1746 -24.3641 -6.99809 59.0163 -22.6066 -6.99809 
-60.9197 -16.4187 -6.99809 63.7949 -16.4187 -6.99809 66.9617 -11.5271 -6.99809 
-64.5547 -8.47326 -6.99809 68.4369 -8.47326 -6.99809 -67.1704 -0.527862 -6.99809 
68.2339 -0.527862 -6.99809 -66.5526 7.41754 -6.99809 -68.1101 7.41754 0.273739 
69.4053 7.41754 -6.99809 66.9617 15.2987 -6.99809 -63.049 15.3629 -6.99809 
-60.1647 19.1781 -6.99809 66.9406 15.3629 -6.99809 66.9617 15.3629 -6.92413 
-54.4829 23.3083 -6.99809 -60.1647 23.3083 -0.553418 -52.2193 24.2823 -6.99809 
-44.2739 27.6045 -6.99809 -36.3285 29.3834 -6.99809 65.0909 23.3083 -6.99809 
59.0163 29.3214 -6.99809 -30.5284 31.2537 -6.99809 -36.3285 31.2537 -1.58617 
-28.3831 31.9147 -6.99809 -20.4377 34.1261 -6.99809 -12.4923 34.8808 -6.99809 
-4.54692 33.4308 -6.99809 3.39848 33.2066 -6.99809 11.3439 35.1627 -6.99809 
19.2893 37.0094 -6.99809 27.2347 37.929 -6.99809 35.1801 38.1188 -6.99809 
43.1255 37.291 -6.99809 56.7673 31.2537 -6.99809 51.0709 34.7195 -6.99809 
-36.3285 -34.5633 0.94731 -28.3831 -36.0103 0.94731 -20.4377 -36.7604 0.94731 
-12.4923 -37.6304 0.94731 -4.54692 -38.3915 0.94731 3.39848 -39.59 0.94731 
11.3439 -40.1446 0.94731 19.2893 -39.3722 0.94731 27.2347 -37.1225 0.94731 
35.1801 -34.5679 0.94731 43.1255 -32.3575 0.94731 -52.2193 -26.5223 0.94731 
-43.794 -32.3095 0.94731 -44.2739 -32.1466 0.94731 -36.3285 -32.3095 4.78029 
-28.3831 -32.3095 6.7415 -20.4377 -32.3095 7.76265 35.1801 -32.3095 7.31962 
43.227 -32.3095 0.94731 43.1255 -32.3095 1.07491 51.0709 -28.9566 0.94731 
-54.2254 -24.3641 0.94731 -60.1647 -17.2123 0.94731 -52.2193 -24.3641 4.33355 
58.2831 -24.3641 0.94731 59.0163 -23.7867 0.94731 -60.8272 -16.4187 0.94731 
-60.1647 -16.4187 2.16353 65.7323 -16.4187 0.94731 66.9617 -13.9969 0.94731 
-65.0597 -8.47326 0.94731 69.7473 -8.47326 0.94731 66.9617 -8.47326 6.92833 
-67.7324 -0.527862 0.94731 -68.1101 5.48056 0.94731 70.7987 -0.527862 0.94731 
66.9617 -0.527862 8.17497 -68.2254 7.41754 0.94731 -68.1101 8.36034 0.94731 
-68.1101 7.41754 1.5086 71.1779 7.41754 0.94731 66.9617 7.41754 8.77557 
-67.0275 15.3629 0.94731 68.8278 15.3629 0.94731 66.9617 20.4874 0.94731 
66.9617 15.3629 4.34187 -60.7178 23.3083 0.94731 -60.1647 23.8022 0.94731 
-60.1647 23.3083 5.83211 -52.2193 27.8354 0.94731 -44.2739 30.3034 0.94731 
65.6106 23.3083 0.94731 59.0163 30.7012 0.94731 59.0163 23.3083 8.49652 
-39.8385 31.2537 0.94731 -36.3285 32.0256 0.94731 -28.3831 33.3209 0.94731 
-20.4377 34.742 0.94731 -12.4923 34.8497 0.94731 -4.54692 32.8995 0.94731 
-4.54692 31.2537 4.95117 3.39848 32.3025 0.94731 3.39848 31.2537 3.16444 
11.3439 34.4983 0.94731 11.3439 31.2537 7.74954 19.2893 37.0328 0.94731 
27.2347 37.7519 0.94731 35.1801 38.2844 0.94731 43.1255 38.0605 0.94731 
58.2438 31.2537 0.94731 51.0709 34.9669 0.94731 51.0709 31.2537 6.713 
-12.4923 -32.405 8.89271 -4.54692 -34.162 8.89271 3.39848 -35.5131 8.89271 
11.3439 -36.5381 8.89271 19.2893 -35.9971 8.89271 27.2347 -34.2448 8.89271 
-44.2739 -26.8683 8.89271 -36.3285 -29.2842 8.89271 -28.3831 -30.6259 8.89271 
-13.3066 -32.3095 8.89271 -20.4377 -31.3281 8.89271 -12.4923 -32.3095 8.99452 
-4.54692 -32.3095 10.8321 3.39848 -32.3095 11.9447 11.3439 -32.3095 13.0277 
19.2893 -32.3095 13.1969 33.2968 -32.3095 8.89271 27.2347 -32.3095 11.2814 
35.1801 -31.6538 8.89271 43.1255 -29.0286 8.89271 51.0709 -25.5079 8.89271 
-48.1576 -24.3641 8.89271 -52.2193 -21.1804 8.89271 -44.2739 -24.3641 11.312 
-36.3285 -24.3641 13.3721 -28.3831 -24.3641 14.2378 -20.4377 -24.3641 14.1067 
-12.4923 -24.3641 14.9586 -4.54692 -24.3641 16.2108 3.39848 -24.3641 16.1952 
27.2347 -24.3641 16.8237 35.1801 -24.3641 15.4548 43.1255 -24.3641 13.7034 
52.7973 -24.3641 8.89271 51.0709 -24.3641 10.1022 59.0163 -19.0066 8.89271 
-56.3951 -16.4187 8.89271 -60.1647 -11.4968 8.89271 -52.2193 -16.4187 12.8216 
-44.2739 -16.4187 16.6727 51.0709 -16.4187 15.5875 61.2865 -16.4187 8.89271 
59.0163 -16.4187 10.8271 -62.0524 -8.47326 8.89271 -60.1647 -8.47326 11.3811 
51.0709 -8.47326 16.5438 65.825 -8.47326 8.89271 59.0163 -8.47326 14.0238 
-66.6636 -0.527862 8.89271 -60.1647 -0.527862 15.1784 19.2893 -0.527862 15.8131 
51.0709 -0.527862 16.7333 66.3576 -0.527862 8.89271 59.0163 -0.527862 14.0453 
-66.4801 7.41754 8.89271 11.3439 7.41754 15.3202 19.2893 7.41754 14.6713 
27.2347 7.41754 16.171 66.8798 7.41754 8.89271 59.0163 7.41754 14.2392 
[...]
POINT_DATA 538
SCALARS ImageScalars float
LOOKUP_TABLE default
0 0 0 0 0 0 0 0 0 
0 0 0 0 0 0 0 0 0 
0 0 0 0 0 0 0 0 0 
0 0 0 0 0 0 0 0 0 
0 0 0 0 0 0 0 0 0 
0 0 0 0 0 0 0 0 0 
0 0 0 0 0 0 0 0 0 
0 0 0 0 0 0 0 0 0 
0 0 0 0 0 0 0 0 0 
0 0 0 0 0 0 0 0 0 
0 0 0 0 0 0 0 0 0 
0 0 0 0 0 0 0 0 0 
0 0 0 0 0 0 0 0 0 
0 0 0 0 0 0 0 0 0 
0 0 0 0 0 0 0 0 0 
0 0 0 0 0 0 0 0 0 
0 0 0 0 0 0 0 0 0 
0 0 0 0 0 0 0 0 0 
0 0 0 0 0 0 0 0 0 
0 0 0 0 0 0 0 0 0 
0 0 0 0 0 0 0 0 0 
0 0 0 0 0 0 0 0 0 
0 0 0 0 0 0 0 0 0 
0 0 0 0 0 0 0 0 0 
0 0 0 0 0 0 0 0 0 
0 0 0 0 0 0 0 0 0 
0 0 0 0 0 0 0 0 0 
0 0 0 0 0 0 0 0 0 
0 0 0 0 0 0 0 0 0 
0 0 0 0 0 0 0 0 0 
0 0 0 0 0 0 0 0 0 
0 0 0 0 0 0 0 0 0 
0 0 0 0 0 0 0 0 0 
0 0 0 0 0 0 0 0 0 
0 0 0 0 0 0 0 0 0 
0 0 0 0 0 0 0 0 0 
0 0 0 0 0 0 0 0 0 
0 0 0 0 0 0 0 0 0 
0 0 0 0 0 0 0 0 0 
0 0 0 0 0 0 0 0 0 
0 0 0 0 0 0 0 0 0 
0 0 0 0 0 0 0 0 0 
0 0 0 0 0 0 0 0 0 
0 0 0 0 0 0 0 0 0 
0 0 0 0 0 0 0 0 0 
0 0 0 0 0 0 0 0 0 
0 0 0 0 0 0 0 0 0 
0 0 0 0 0 0 0 0 0 
0 0 0 0 0 0 0 0 0 
0 0 0 0 0 0 0 0 0 
0 0 0 0 0 0 0 0 0 
0 0 0 0 0 0 0 0 0 
0 0 0 0 0 0 0 0 0 
0 0 0 0 0 0 0 0 0 
0 0 0 0 0 0 0 0 0 
0 0 0 0 0 0 0 0 0 
0 0 0 0 0 0 0 0 0 
0 0 0 0 0 0 0 0 0 
0 0 0 0 0 0 0 0 0 
0 0 0 0 0 0 0 
NORMALS Normals float
0.208276 0.579898 0.787616 0.113831 0.480202 0.869741 -0.012381 0.478885 0.87779 
-0.0409563 0.504501 0.862439 -0.0250015 0.459346 0.887905 -0.0290911 0.446224 0.894448 
-0.11994 0.527781 0.84087 -0.214012 0.643438 0.734973 0.314312 0.446463 0.837782 
0.141698 0.29739 0.944183 0.0855763 0.204213 0.975179 0.0274259 0.0746038 0.996836 
0.0154708 0.0691283 0.997488 -0.0307885 0.0949437 0.995006 -0.0370176 0.0979916 0.994499 
0.00790347 0.114575 0.993383 0.0126371 0.140125 0.990053 -0.0990408 0.235009 0.966934 
-0.183411 0.327688 0.926812 -0.299928 0.465983 0.832408 0.46637 0.289958 0.835717 
0.220713 0.187081 0.957229 0.00592798 0.186139 0.982506 -0.0529922 0.0365044 0.997927 
-0.0237395 -0.0649711 0.997605 0.0191531 -0.0659642 0.997638 -0.013992 -0.0282888 0.999502 
-0.0131026 -0.00959582 0.999868 0.0280356 -0.00594657 0.999589 0.0247069 -0.0925319 0.995403 
-0.0145853 -0.0580243 0.998209 -0.0615499 0.0715517 0.995536 -0.177268 0.152794 0.972229 
-0.359681 0.215548 0.907838 0.350769 0.132352 0.927062 0.186726 0.0209227 0.982189 
-0.00133828 -0.00422744 0.99999 -0.159 -0.0108239 0.987219 -0.0819401 -0.0818849 0.993268 
0.0576052 0.0383026 0.997604 0.0263714 -0.0145038 0.999547 -0.01518 -0.00198932 0.999883 
-0.0791498 0.110069 0.990767 -0.0332113 -0.177135 0.983626 0.0654646 -0.128064 0.989603 
0.0146518 -0.0423818 0.998994 -0.116474 -0.00817707 0.99316 -0.266048 0.0269792 0.963582 
0.555297 -0.000790043 0.831652 0.256074 -0.0489422 0.965417 0.0845982 -0.0624989 0.994453 
-0.0251495 -0.122945 0.992095 -0.138112 -0.113639 0.983876 0.0220004 -0.075898 0.996873 
0.117487 0.0680343 0.990741 -0.0738792 0.0103604 0.997213 0.133082 0.00281879 0.991101 
-0.208563 0.0808163 0.974664 -0.150056 -0.0872738 0.984818 0.121883 -0.0696077 0.990101 
0.0574766 -0.0382017 0.997616 -0.0885801 0.00939685 0.996025 -0.231752 0.0170656 0.972625 
0.305509 -0.200978 0.930737 0.113822 -0.196813 0.973812 -0.0501151 -0.178476 0.982667 
-0.116368 -0.135902 0.983864 0.0663039 -0.0522813 0.996429 0.161178 -0.117189 0.979943 
-0.0252604 -0.0863732 0.995943 0.0027657 -0.090133 0.995926 -0.193777 -0.23911 0.95146 
-0.0916368 0.041664 0.99492 0.108639 0.0164838 0.993945 0.095446 -0.0114959 0.995368 
-0.0646302 0.0235699 0.997631 -0.220974 -0.0421243 0.974369 -0.331586 -0.057758 0.941655 
0.145195 -0.412381 0.899366 0.038791 -0.331217 0.942757 -0.0100773 -0.223724 0.9746 
0.0810988 -0.0677334 0.994402 0.060351 -0.157196 0.985722 -0.0466482 -0.230088 0.972051 
-0.00249892 -0.208926 0.977928 -0.0337274 -0.146356 0.988657 -0.00123258 0.0272645 0.999627 
0.0770542 0.0206791 0.996812 0.0607353 -0.0302473 0.997696 -0.127735 -0.128753 0.983416 
-0.296707 -0.0788557 0.951707 0.131021 -0.299988 0.944902 -0.0222153 -0.298281 0.954219 
-0.0610906 -0.35355 0.933419 0.0725841 -0.330461 0.941024 0.0784576 -0.241567 0.967207 
0.0519775 -0.130702 0.990058 0.0556138 -0.143632 0.988067 -0.0497582 -0.149685 0.987481 
-0.120659 -0.228519 0.966033 -0.209653 -0.280518 0.936672 0.101272 -0.510932 0.853635 
0.0762953 -0.521165 0.850039 -0.0337274 -0.503229 0.863495 0.221887 0.680652 0.698197 
0.122119 0.778732 0.615357 -0.0134099 0.767789 0.640562 -0.0273793 0.736507 0.675875 
-0.00126711 0.679164 0.733985 -0.0374583 0.661547 0.748968 -0.0389912 0.980704 0.191571 
-0.148962 0.677038 0.720715 -0.225933 0.67984 0.697691 0.393822 0.583565 0.710181 
0.464918 0.861373 0.204665 0.282467 0.672977 0.683604 0.283087 0.670485 0.685792 
0.287475 0.682836 0.671635 -0.243559 0.680107 0.691472 -0.265716 0.629518 0.730138 
-0.306172 0.832497 0.461745 -0.332922 0.558981 0.75941 0.498486 0.509351 0.701479 
0.538789 0.421439 0.729448 0.654512 0.63809 0.40553 -0.372004 0.525731 0.764996 
-0.403612 0.414554 0.815624 -0.447953 0.664269 0.598402 0.548369 0.339928 0.764029 
0.819938 0.476865 0.316705 -0.462797 0.256461 0.848556 -0.636911 0.363297 0.67997 
0.582864 0.213425 0.784041 0.576768 0.0408533 0.815886 0.703647 0.273775 0.655689 
-0.388842 0.14638 0.909602 -0.422209 0.185583 0.887298 -0.811417 0.223771 0.539934 
0.570905 0.00302416 0.821011 0.556368 -0.0327293 0.830291 -0.361411 0.0438578 0.931374 
-0.354037 0.00386591 0.935223 -0.376608 0.0475743 0.92515 -0.825406 0.05406 0.561945 
0.468754 -0.204395 0.859356 0.573531 -0.213137 0.790971 0.285027 -0.412258 0.865334 
-0.354846 -0.0594653 0.933032 -0.345369 -0.0573949 0.93671 -0.770915 -0.0751131 0.632493 
0.595766 -0.460483 0.658042 0.276414 -0.420924 0.863955 0.284363 -0.421888 0.8609 
0.174844 -0.504015 0.845812 0.117668 -0.487932 0.864914 0.17222 -0.377289 0.909942 
-0.36559 -0.0737482 0.92785 -0.44806 -0.0971332 0.888711 0.339746 -0.761419 0.552099 
0.229426 -0.66271 0.712867 0.159385 -0.583439 0.796363 0.17317 -0.377766 0.909563 
0.17408 -0.379555 0.908644 0.140124 -0.43079 0.891507 -0.0110239 -0.498706 0.866701 
-0.0698509 -0.450646 0.889966 0.0826391 -0.430444 0.898826 0.156249 -0.496656 0.853767 
-0.262853 -0.520848 0.812174 -0.378192 -0.287222 0.880042 -0.243091 -0.387883 0.889075 
-0.50858 -0.315032 0.801312 0.27901 -0.854326 0.438499 0.182545 -0.767935 0.613965 
-0.0135378 -0.717612 0.696312 -0.11187 -0.847288 0.519219 0.121217 -0.872318 0.473675 
0.115382 -0.529301 0.840552 0.210453 -0.699133 0.683318 0.10262 -0.525131 0.844812 
0.0759232 -0.547785 0.833167 -0.229921 -0.56202 0.794525 -0.0530806 -0.612674 0.788551 
-0.279498 -0.583062 0.762837 -0.410829 -0.679554 0.607805 -0.0393319 0.983846 0.174643 
0.465695 0.866614 0.179186 0.303289 0.946607 0.109325 0.141647 0.986696 0.0797993 
0.0863333 0.996148 0.0153585 0.0469351 0.997975 0.0429334 0.0620588 0.993255 0.0979431 
0.00207503 0.98604 0.166495 0.0625733 0.985688 0.156538 -0.0597607 0.982806 0.174705 
-0.02475 0.99948 -0.0206864 -0.200351 0.962309 0.183904 -0.286325 0.937784 0.196415 
-0.290811 0.934442 0.20554 0.47349 0.862187 0.18011 0.657448 0.723634 0.210037 
0.428268 0.899835 -0.0829737 -0.348828 0.901277 0.256942 -0.361004 0.893219 0.268022 
-0.356013 0.929062 -0.100491 -0.455813 0.833368 0.312622 0.718308 0.666854 0.198341 
0.826806 0.509663 0.237984 -0.596244 0.733155 0.327073 -0.655182 0.663822 0.360661 
0.83636 0.48747 0.250747 -0.757727 0.473336 0.449225 -0.847539 0.32717 0.417897 
0.896792 0.333212 0.29109 -0.875433 0.226516 0.426975 0.947695 0.124136 0.294048 
-0.876572 0.0538354 0.478249 0.892318 -0.173632 0.416678 0.999053 -0.0409628 0.0146356 
-0.901182 -0.079068 0.426168 -0.876509 -0.206967 0.434621 0.72691 -0.472794 0.498065 
0.624445 -0.577246 0.526171 -0.875862 -0.208403 0.435241 -0.878521 -0.209379 0.429374 
0.4084 -0.754694 0.513466 0.62876 -0.757487 0.175714 0.346406 -0.789124 0.507234 
0.261865 -0.821329 0.506799 0.2193 -0.846041 0.485924 -0.800613 -0.473906 0.366651 
-0.648516 -0.675874 0.350172 0.265456 -0.878688 0.396787 0.202825 -0.955017 0.216342 
0.280843 -0.885329 0.370566 0.18562 -0.921585 0.34092 -0.0419818 -0.966084 0.254794 
-0.115845 -0.959231 0.257791 0.114805 -0.970298 0.212936 0.238257 -0.949613 0.203637 
0.176309 -0.952749 0.247354 0.070581 -0.966627 0.246273 -0.0374629 -0.958044 0.284162 
-0.183902 -0.919379 0.34774 -0.596802 -0.719869 0.354424 -0.426366 -0.836296 0.344705 
0.222179 0.908126 -0.354886 0.126833 0.914575 -0.384014 0.0907349 0.91579 -0.391276 
0.0953967 0.930785 -0.352899 0.116467 0.952682 -0.28077 0.106117 0.967327 -0.230257 
-0.0111173 0.980398 -0.196712 -0.183702 0.965559 -0.184252 -0.277707 0.948463 -0.15263 
-0.282417 0.946865 -0.153905 -0.351654 0.923681 -0.152157 0.656803 0.714008 -0.242491 
0.370831 0.885816 -0.278953 0.382342 0.882413 -0.274156 0.201048 0.844022 -0.497199 
0.103944 0.807039 -0.581277 0.0829075 0.764736 -0.638988 -0.279872 0.866722 -0.412873 
-0.352692 0.9233 -0.152069 -0.351817 0.922651 -0.157923 -0.434303 0.891066 -0.131843 
0.695478 0.673846 -0.249482 0.779444 0.588872 -0.213767 0.636719 0.668551 -0.384225 
-0.609786 0.778435 -0.149 -0.632431 0.760453 -0.147451 0.790558 0.577061 -0.204982 
0.771645 0.584788 -0.250172 -0.849565 0.514758 -0.115169 -0.887531 0.443527 -0.12479 
0.92793 0.348398 -0.132536 -0.945206 0.306676 -0.111963 -0.846314 0.275917 -0.455655 
0.977604 0.209928 -0.0148755 0.999616 0.0229883 -0.0154473 -0.993779 0.083885 -0.073254 
-0.797017 0.0588778 -0.60108 0.999334 -0.0326558 -0.0162782 0.997328 -0.0728717 -0.00517361 
0.998578 -0.0327348 -0.0420687 -0.986788 -0.126362 -0.101398 -0.768094 -0.137221 -0.625461 
0.909344 -0.404209 0.0985322 -0.945502 -0.299308 -0.12822 -0.891858 -0.423694 -0.158346 
-0.889667 -0.282995 -0.358338 0.645795 -0.756673 0.101953 0.624849 -0.773887 0.103257 
0.652667 -0.746109 -0.131711 0.384867 -0.910764 0.149617 0.237763 -0.955406 0.175126 
-0.832973 -0.523601 -0.178877 -0.604543 -0.753976 -0.256997 -0.459446 -0.581452 -0.671433 
0.209607 -0.968281 0.135999 0.189204 -0.97638 0.104327 0.167642 -0.985801 -0.00961457 
0.0955616 -0.989696 -0.106629 -0.104264 -0.977428 -0.183748 -0.162754 -0.960781 -0.224525 
-0.180802 -0.900725 -0.394974 0.100714 -0.954353 -0.28119 0.0923919 -0.926847 -0.363893 
0.279062 -0.928471 -0.245084 0.24461 -0.804776 -0.540834 0.195234 -0.956536 -0.216618 
0.0773589 -0.971876 -0.222425 0.0194968 -0.976254 -0.21575 -0.194231 -0.95719 -0.214619 
-0.583219 -0.770122 -0.258393 -0.402543 -0.888313 -0.22104 -0.458443 -0.716392 -0.52594 
0.137699 0.732361 -0.666848 0.153936 0.760739 -0.63054 0.125301 0.759138 -0.638756 
0.0220884 0.806396 -0.590964 -0.127472 0.831412 -0.540837 -0.238866 0.824586 -0.512836 
0.329221 0.702344 -0.631131 0.173793 0.731265 -0.659581 0.0906311 0.74037 -0.666061 
0.131716 0.73219 -0.668243 0.0774631 0.72069 -0.688916 0.137568 0.729396 -0.670117 
0.14316 0.694043 -0.705556 0.113989 0.618583 -0.777407 0.0660945 0.604451 -0.793896 
-0.0795959 0.660892 -0.746248 -0.266159 0.830489 -0.489335 -0.220142 0.749338 -0.624524 
-0.272647 0.826055 -0.493251 -0.324622 0.767242 -0.553137 -0.435409 0.686676 -0.582147 
0.455309 0.65224 -0.606033 0.565005 0.601684 -0.564576 0.322536 0.640302 -0.697125 
0.144693 0.619604 -0.771463 0.0353571 0.538555 -0.841848 0.0402991 0.492482 -0.869389 
0.117876 0.448296 -0.886079 0.0675718 0.458864 -0.885933 0.0462441 0.35259 -0.934634 
-0.108126 0.318556 -0.941717 -0.173313 0.439847 -0.881191 -0.280544 0.556702 -0.781906 
-0.469844 0.664016 -0.58166 -0.425651 0.64365 -0.636031 -0.559461 0.559213 -0.611788 
0.629584 0.571561 -0.526252 0.735675 0.474656 -0.483202 0.485962 0.540314 -0.686951 
0.284258 0.487815 -0.825369 -0.326684 0.328671 -0.886145 -0.609981 0.483726 -0.627641 
-0.538719 0.45161 -0.711217 0.778766 0.419484 -0.466429 0.723297 0.400856 -0.562278 
-0.256629 0.0562331 -0.964873 -0.767344 0.246246 -0.592069 -0.422857 0.177674 -0.888608 
0.8634 0.281522 -0.418672 0.63593 0.293177 -0.713891 -0.0884139 -0.178911 -0.979885 
-0.230681 0.0485367 -0.971818 -0.746543 0.053445 -0.663187 -0.426117 0.014698 -0.904548 
0.915289 -0.038208 -0.400982 -0.244292 -0.203801 -0.948044 0.0576144 -0.0449386 -0.997327 
0.15685 -0.0529044 -0.986204 -0.760874 -0.136413 -0.634399 -0.397482 -0.10946 -0.911058 
0.894064 -0.354307 -0.274072 0.656618 -0.698603 -0.284265 0.557287 -0.316839 -0.767492 
-0.0829577 -0.280981 -0.956121 -0.0649192 -0.0721715 -0.995277 0.0440313 -0.0117179 -0.998961 
0.0774717 -0.0272329 -0.996623 -0.00380392 -0.143786 -0.989601 -0.0522516 -0.122602 -0.991079 
-0.239013 -0.298789 -0.923904 -0.634414 -0.282815 -0.719399 -0.44874 -0.554685 -0.700683 
-0.452315 -0.26063 -0.852926 0.633334 -0.722745 -0.276636 0.434479 -0.869474 -0.235037 
0.383622 -0.686888 -0.617267 0.211536 -0.965422 -0.152361 -0.199667 -0.375707 -0.904974 
-0.184792 -0.773344 -0.606458 -0.145882 -0.505884 -0.850177 0.0602064 -0.767963 -0.637659 
0.0215304 -0.526805 -0.849713 0.226094 -0.755628 -0.614742 0.071914 -0.350898 -0.933648 
0.0888587 -0.246042 -0.965177 0.0152113 -0.268067 -0.96328 -0.0226687 -0.268446 -0.963028 
-0.136097 -0.32636 -0.935397 -0.434459 -0.563364 -0.702756 -0.416244 -0.586495 -0.694813 
-0.304683 -0.386651 -0.870442 0.111446 -0.972142 -0.206202 0.0450896 -0.968911 -0.243264 
0.0433775 -0.966172 -0.254224 0.0560967 -0.946751 -0.317043 0.0383537 -0.928418 -0.369551 
-0.0066444 -0.884553 -0.466393 -0.0318902 -0.843645 -0.535953 -0.163782 -0.825095 -0.540734 
-0.155092 -0.831193 -0.533915 -0.158599 -0.8157 -0.556309 0.215226 -0.754622 -0.619858 
0.169506 -0.721504 -0.671342 0.149646 -0.664907 -0.731782 0.0796064 -0.739513 -0.668418 
0.0783937 -0.632319 -0.770732 -0.0325621 -0.75402 -0.656044 -0.0472795 -0.562048 -0.825752 
-0.345632 -0.632662 -0.693021 -0.210227 -0.668511 -0.71337 -0.202509 -0.592045 -0.780047 
0.0687349 0.304376 -0.950069 -0.0155909 0.306281 -0.951813 0.101999 0.507641 -0.85551 
-0.0247571 0.432999 -0.901054 -0.00195788 0.379036 -0.92538 0.117844 0.372761 -0.920414 
0.0613061 0.429095 -0.901176 0.0633927 0.305314 -0.950139 0.0147034 0.305933 -0.951939 
0.06797 0.295221 -0.953008 -0.105556 0.316726 -0.942625 -0.00971913 0.257153 -0.966322 
-0.107328 0.315347 -0.942888 -0.106791 0.25564 -0.960856 -0.110514 0.256108 -0.96031 
0.430191 0.409177 -0.80468 0.26762 0.485406 -0.832323 0.281504 0.483055 -0.829104 
0.0728536 0.448476 -0.890821 -0.0507494 0.391398 -0.918821 -0.0103437 0.350409 -0.93654 
0.120607 0.342364 -0.931794 0.0234297 0.30207 -0.952998 -0.0693563 0.191076 -0.979122 
-0.00789 0.1196 -0.992791 -0.0319791 0.0109981 -0.999428 -0.0428978 0.0597118 -0.997293 
-0.0703437 0.158392 -0.984867 -0.11157 0.255888 -0.960247 -0.110175 0.255495 -0.960512 
0.474894 0.37719 -0.795112 0.427685 0.381479 -0.819487 0.216012 0.352105 -0.910692 
0.0203011 0.311013 -0.950189 -0.0868529 0.301796 -0.949408 -0.0235404 0.250419 -0.967851 
0.0586308 0.218725 -0.974023 -0.0970504 -0.00366216 -0.995273 -0.137234 -0.0346088 -0.989934 
-0.114162 0.0383935 -0.99272 -0.0805806 -0.164063 -0.983153 -0.0661332 -0.154825 -0.985726 
0.0455248 -0.0634948 -0.996943 0.0355729 0.0213794 -0.999138 -0.233487 0.0569529 -0.970691 
-0.107948 0.0884694 -0.990212 0.562887 0.280516 -0.777476 0.639535 0.130222 -0.757653 
0.387493 0.258048 -0.88502 0.17036 0.208896 -0.962985 0.0118688 0.170813 -0.985232 
-0.123888 0.12198 -0.98477 -0.100259 0.0497027 -0.993719 -0.121219 -0.109094 -0.986613 
-0.261825 -0.173224 -0.949442 -0.0247051 -0.0810497 -0.996404 -0.11278 -0.205159 -0.972209 
-0.204904 -0.245389 -0.947522 -0.162531 -0.218294 -0.962253 0.0997947 -0.113583 -0.988504 
0.13895 -0.091727 -0.986042 0.134126 -0.102062 -0.985694 0.0807789 -0.0675775 -0.994439 
-0.219907 0.0419973 -0.974616 -0.0779164 -0.0610863 -0.995087 -0.225332 0.029299 -0.973841 
0.667029 0.0557968 -0.742939 0.584273 -0.195003 -0.787781 0.641361 0.046081 -0.765854 
0.403481 0.0277023 -0.914568 0.121006 -0.00102905 -0.992651 -0.0703702 -0.0400922 -0.996715 
-0.205511 -0.0576399 -0.976956 -0.256728 -0.117345 -0.959334 -0.141235 -0.25697 -0.956043 
-0.0489092 -0.155867 -0.986566 -0.231073 -0.151017 -0.961145 -0.125557 -0.214808 -0.968552 
-0.184364 -0.0984775 -0.977912 0.105224 -0.0870077 -0.990635 0.0457514 -0.119674 -0.991759 
0.078242 -0.104715 -0.99142 -0.0131397 -0.126801 -0.991841 0.00791466 -0.136507 -0.990608 
-0.227448 -0.0779327 -0.970667 -0.214656 -0.136953 -0.96704 -0.19801 -0.0655582 -0.978005 
0.529749 -0.309505 -0.789667 0.381999 -0.672023 -0.634399 0.378831 -0.277542 -0.882869 
0.109073 -0.266895 -0.957533 -0.042089 -0.259606 -0.964797 -0.202552 -0.233528 -0.951019 
-0.290731 -0.211141 -0.933218 -0.177532 -0.247984 -0.952358 -0.168391 -0.18724 -0.967774 
-0.0793182 -0.266256 -0.960633 -0.0797683 -0.267478 -0.960257 -0.0792223 -0.265805 -0.960766 
0.370081 -0.678332 -0.634749 0.200444 -0.672798 -0.712155 0.158159 -0.599984 -0.784223 
0.00994616 -0.723807 -0.689931 -0.014528 -0.562658 -0.826562 -0.104945 -0.618959 -0.77838 
-0.135544 -0.513301 -0.847437 -0.182033 -0.393588 -0.901084 -0.163712 -0.465904 -0.869558 
-0.175761 -0.417948 -0.891307 
