# vtk DataFile Version 4.2
vtk output
ASCII
DATASET POLYDATA
POINTS 532 float
-36.784 7.76138 -24.2112 -21.9728 -29.2667 -18.8013 -14.5672 -29.2667 -20.1867 
-7.16155 -29.2667 -19.2246 0.244061 -29.2667 -17.3415 -36.784 -21.8611 -18.1131 
-29.3784 -21.8611 -21.0967 -21.9728 -21.8611 -22.485 -14.5672 -21.8611 -22.6827 
-7.16155 -21.8611 -21.8084 0.244061 -21.8611 -20.2444 7.64967 -21.8611 -18.2492 
15.0553 -21.8611 -16.8428 -44.1896 -14.4554 -18.4219 -36.784 -14.4554 -21.2565 
-29.3784 -14.4554 -22.7656 -21.9728 -14.4554 -23.3499 -14.5672 -14.4554 -23.4351 
-7.16155 -14.4554 -22.3463 0.244061 -14.4554 -20.9082 7.64967 -14.4554 -19.4529 
15.0553 -14.4554 -17.7668 22.4609 -14.4554 -17.0823 29.8665 -14.4554 -16.6515 
-51.5952 -7.04984 -16.7345 -44.1896 -7.04984 -20.9425 -36.784 -7.04984 -22.7289 
-29.3784 -7.04984 -23.3467 -21.9728 -7.04984 -23.21 -14.5672 -7.04984 -23.2092 
-7.16155 -7.04984 -22.9605 0.244061 -7.04984 -21.0848 7.64967 -7.04984 -20.5483 
15.0553 -7.04984 -17.5567 29.8665 -7.04984 -16.6981 37.2721 -7.04984 -16.6825 
-51.5952 0.355771 -19.4573 -44.1896 0.355771 -22.6579 -36.784 3.37597 -24.0145 
-36.784 0.355771 -23.8746 -29.3784 0.355771 -23.6664 -21.9728 0.355771 -22.7686 
-14.5672 0.355771 -22.1005 -7.16155 0.355771 -23.4127 0.244061 0.355771 -20.6544 
7.64967 0.355771 -21.3843 15.0553 0.355771 -18.9844 -51.5952 7.76138 -18.2467 
-37.6624 7.76138 -24.0145 -44.1896 7.76138 -22.4315 -32.4793 7.76138 -24.0145 
-36.784 8.97542 -24.0145 -29.3784 7.76138 -23.8772 -21.9728 7.76138 -22.9993 
-14.5672 7.76138 -22.4431 -7.16155 7.76138 -23.5247 0.244061 7.76138 -20.9858 
7.64967 7.76138 -20.6232 15.0553 7.76138 -19.303 -44.1896 15.167 -21.178 
-36.784 15.167 -23.096 -29.3784 15.167 -23.2921 -21.9728 15.167 -23.1423 
-14.5672 15.167 -23.5764 -7.16155 15.167 -23.9976 0.244061 15.167 -22.3263 
7.64967 15.167 -21.2143 15.0553 15.167 -18.9698 -36.784 22.5726 -20.5899 
-29.3784 22.5726 -21.6526 -21.9728 22.5726 -21.8388 -14.5672 22.5726 -22.2543 
-7.16155 22.5726 -22.3 0.244061 22.5726 -20.7392 7.64967 22.5726 -18.3412 
-21.9728 -31.4326 -16.6089 -14.5672 -33.3313 -16.6089 -7.16155 -32.6052 -16.6089 
-7.16155 -36.6723 -9.42857 0.244061 -30.225 -16.6089 -36.784 -23.73 -16.6089 
-27.185 -29.2667 -16.6089 -29.3784 -28.1277 -16.6089 -29.3784 -29.2667 -14.6785 
2.24351 -29.2667 -16.6089 7.64967 -25.4019 -16.6089 7.64967 -29.2667 -14.2084 
15.0553 -22.4196 -16.6089 15.0553 -29.2667 -12.8476 22.4609 -29.2667 -11.6193 
29.8665 -29.2667 -9.52414 -39.9252 -21.8611 -16.6089 -44.1896 -18.0619 -16.6089 
-44.1896 -21.8611 -12.7933 17.7568 -21.8611 -16.6089 22.4609 -18.4237 -16.6089 
22.4609 -21.8611 -16.163 29.8665 -14.7627 -16.6089 29.8665 -21.8611 -15.4467 
37.2721 -21.8611 -13.1852 44.6777 -21.8611 -10.317 -47.3725 -14.4554 -16.6089 
-51.5952 -7.36476 -16.6089 -51.5952 -14.4554 -12.6984 22.4609 -9.97318 -16.6089 
30.4142 -14.4554 -16.6089 37.2721 -8.04511 -16.6089 37.2721 -14.4554 -16.0334 
44.6777 -14.4554 -14.5746 52.0833 -14.4554 -10.2213 -51.7327 -7.04984 -16.6089 
20.429 -7.04984 -16.6089 28.1923 -7.04984 -16.6089 22.4609 -7.04984 -16.2951 
29.8665 -6.48938 -16.6089 37.5753 -7.04984 -16.6089 37.2721 -6.5939 -16.6089 
44.6777 -7.04984 -14.8679 52.0833 -7.04984 -12.9948 -54.4428 0.355771 -16.6089 
-59.0008 0.355771 -9.83221 19.6814 0.355771 -16.6089 22.4609 0.355771 -15.5154 
29.8665 0.355771 -15.5037 37.2721 0.355771 -15.3313 44.6777 0.355771 -14.0242 
52.0833 0.355771 -11.3139 -53.2321 7.76138 -16.6089 -51.5952 13.6852 -16.6089 
18.4091 7.76138 -16.6089 22.4609 7.76138 -14.1935 29.8665 7.76138 -13.4836 
37.2721 7.76138 -13.0242 44.6777 7.76138 -11.9151 52.0833 7.76138 -9.48152 
-51.1047 15.167 -16.6089 -51.5952 15.167 -15.6614 -44.1896 22.4853 -16.6089 
17.7627 15.167 -16.6089 15.0553 19.4193 -16.6089 22.4609 15.167 -12.8691 
29.8665 15.167 -11.1733 37.2721 15.167 -10.1621 -44.0745 22.5726 -16.6089 
-44.1896 22.5726 -16.4368 -36.784 26.6419 -16.6089 -29.3784 28.9663 -16.6089 
-21.9728 29.4984 -16.6089 -14.5672 29.4578 -16.6089 -7.16155 29.0311 -16.6089 
0.244061 27.3463 -16.6089 11.3672 22.5726 -16.6089 7.64967 24.4915 -16.6089 
15.0553 22.5726 -13.5623 -29.3784 29.9782 -13.801 -21.9728 29.9782 -15.6742 
-14.5672 29.9782 -15.6107 -7.16155 29.9782 -15.0693 0.244061 29.9782 -12.6504 
-7.16155 -36.7618 -9.20327 -29.3784 -31.5451 -9.20327 -21.9728 -34.3204 -9.20327 
-8.50214 -36.6723 -9.20327 -14.5672 -36.2574 -9.20327 -6.59109 -36.6723 -9.20327 
-7.16155 -36.6723 -8.30806 0.244061 -35.421 -9.20327 7.64967 -33.4232 -9.20327 
15.0553 -32.3315 -9.20327 22.4609 -31.1948 -9.20327 29.8665 -29.5286 -9.20327 
-44.1896 -23.7734 -9.20327 -33.9959 -29.2667 -9.20327 -36.784 -27.8735 -9.20327 
30.6665 -29.2667 -9.20327 37.2721 -26.5995 -9.20327 37.2721 -29.2667 -1.91434 
44.6777 -23.0029 -9.20327 -47.0967 -21.8611 -9.20327 -51.5952 -17.6845 -9.20327 
46.2307 -21.8611 -9.20327 52.0833 -16.0708 -9.20327 -54.0137 -14.4554 -9.20327 
53.3837 -14.4554 -9.20327 -57.5329 -7.04984 -9.20327 -59.0008 -1.0832 -9.20327 
57.4374 -7.04984 -9.20327 59.4889 -7.04984 -6.34549 -59.3227 0.355771 -9.20327 
-59.0008 1.67038 -9.20327 55.3904 0.355771 -9.20327 59.4889 0.355771 -5.65157 
-57.5092 7.76138 -9.20327 44.6777 14.388 -9.20327 52.6768 7.76138 -9.20327 
52.0833 8.23311 -9.20327 59.4889 7.76138 -3.75853 -54.061 15.167 -9.20327 
-51.5952 18.8319 -9.20327 22.4609 21.5393 -9.20327 29.8665 18.7894 -9.20327 
42.7972 15.167 -9.20327 37.2721 16.8518 -9.20327 44.6777 15.167 -8.8773 
52.0833 15.167 -5.45102 -47.9224 22.5726 -9.20327 -44.1896 25.2269 -9.20327 
-36.784 28.9293 -9.20327 7.64967 28.853 -9.20327 20.933 22.5726 -9.20327 
15.0553 24.89 -9.20327 22.4609 22.5726 -8.39376 29.8665 22.5726 -6.78246 
37.2721 22.5726 -5.44099 44.6777 22.5726 -2.74425 -33.3189 29.9782 -9.20327 
-29.3784 31.2065 -9.20327 -21.9728 32.3721 -9.20327 -14.5672 32.5863 -9.20327 
-7.16155 32.8054 -9.20327 5.02237 29.9782 -9.20327 0.244061 31.802 -9.20327 
7.64967 29.9782 -2.96729 -29.3784 -30.777 -1.79766 -21.9728 -32.7786 -1.79766 
-14.5672 -34.6963 -1.79766 -7.16155 -35.9794 -1.79766 0.244061 -35.8469 -1.79766 
7.64967 -35.0112 -1.79766 15.0553 -34.1688 -1.79766 22.4609 -33.1799 -1.79766 
29.8665 -31.5176 -1.79766 37.2721 -29.2973 -1.79766 -44.1896 -24.6364 -1.79766 
-33.3356 -29.2667 -1.79766 -36.784 -27.8608 -1.79766 -29.3784 -29.2667 2.68835 
37.3396 -29.2667 -1.79766 37.2721 -29.2667 -1.6837 44.6777 -25.7966 -1.79766 
-49.1218 -21.8611 -1.79766 -51.5952 -19.9043 -1.79766 50.6996 -21.8611 -1.79766 
52.0833 -20.7615 -1.79766 -55.5216 -14.4554 -1.79766 58.3108 -14.4554 -1.79766 
59.4889 -12.3314 -1.79766 -58.8044 -7.04984 -1.79766 -59.0008 -5.16936 -1.79766 
62.1296 -7.04984 -1.79766 -59.6334 0.355771 -1.79766 -59.0008 2.73002 -1.79766 
-59.0008 0.355771 0.122765 62.1844 0.355771 -1.79766 -57.7613 7.76138 -1.79766 
60.6076 7.76138 -1.79766 59.4889 9.46825 -1.79766 -53.3824 15.167 -1.79766 
-51.5952 17.7271 -1.79766 -51.5952 15.167 2.06349 55.8534 15.167 -1.79766 
52.0833 18.7465 -1.79766 -46.4204 22.5726 -1.79766 -44.1896 24.0745 -1.79766 
-44.1896 22.5726 1.50136 -36.784 28.0985 -1.79766 15.0553 28.0391 -1.79766 
22.4609 27.9142 -1.79766 29.8665 27.563 -1.79766 37.2721 25.8196 -1.79766 
46.0297 22.5726 -1.79766 44.6777 23.4905 -1.79766 -32.1329 29.9782 -1.79766 
-29.3784 30.9529 -1.79766 -29.3784 29.9782 1.51827 -21.9728 32.1165 -1.79766 
-14.5672 33.1691 -1.79766 -7.16155 34.3908 -1.79766 0.244061 34.1352 -1.79766 
8.30649 29.9782 -1.79766 7.64967 30.195 -1.79766 22.4609 29.9782 5.04255 
29.8665 29.9782 4.02947 -21.9728 -29.5247 5.60795 -14.5672 -31.0099 5.60795 
-7.16155 -31.8485 5.60795 0.244061 -32.3625 5.60795 7.64967 -32.5389 5.60795 
15.0553 -32.2921 5.60795 22.4609 -31.1984 5.60795 29.8665 -29.3272 5.60795 
-44.1896 -22.4188 5.60795 -36.784 -25.904 5.60795 -23.3522 -29.2667 5.60795 
-29.3784 -28.1393 5.60795 -21.9728 -29.2667 6.04604 -14.5672 -29.2667 8.02288 
-7.16155 -29.2667 8.83869 0.244061 -29.2667 9.37051 7.64967 -29.2667 9.91326 
15.0553 -29.2667 9.50435 22.4609 -29.2667 8.24538 30.0598 -29.2667 5.60795 
29.8665 -29.2667 5.70272 37.2721 -27.022 5.60795 44.6777 -24.2503 5.60795 
-45.2382 -21.8611 5.60795 -51.5952 -16.6231 5.60795 -44.1896 -21.8611 6.4431 
-36.784 -21.8611 12.0208 48.9838 -21.8611 5.60795 44.6777 -21.8611 9.27559 
52.0833 -19.8486 5.60795 -53.1473 -14.4554 5.60795 -51.5952 -14.4554 7.49601 
57.8121 -14.4554 5.60795 52.0833 -14.4554 12.0478 59.4889 -12.0607 5.60795 
-56.6384 -7.04984 5.60795 -51.5952 -7.04984 11.3998 62.4493 -7.04984 5.60795 
59.4889 -7.04984 10.602 -56.9073 0.355771 5.60795 -51.5952 0.355771 11.7183 
62.6889 0.355771 5.60795 59.4889 0.355771 10.6173 -54.5424 7.76138 5.60795 
-51.5952 12.4471 5.60795 -51.5952 7.76138 9.03333 61.9512 7.76138 5.60795 
59.4889 12.8657 5.60795 59.4889 7.76138 12.2122 -49.451 15.167 5.60795 
-44.1896 20.2712 5.60795 -44.1896 15.167 10.6326 58.2984 15.167 5.60795 
52.0833 21.9529 5.60795 -41.0379 22.5726 5.60795 -36.784 25.0728 5.60795 
-36.784 22.5726 9.22328 -29.3784 28.4847 5.60795 15.0553 29.9724 5.60795 
37.2721 29.9178 5.60795 51.299 22.5726 5.60795 44.6777 26.9462 5.60795 
-24.3364 29.9782 5.60795 -21.9728 30.6188 5.60795 -21.9728 29.9782 7.51825 
-14.5672 32.5184 5.60795 -7.16155 34.2814 5.60795 0.244061 34.3762 5.60795 
15.0255 29.9782 5.60795 7.64967 31.6558 5.60795 15.3635 29.9782 5.60795 
15.0553 29.9782 5.76848 22.4609 30.1182 5.60795 36.5914 29.9782 5.60795 
29.8665 30.4926 5.60795 -29.3784 -23.1493 13.0136 -21.9728 -24.8794 13.0136 
-14.5672 -25.3017 13.0136 -7.16155 -25.3549 13.0136 0.244061 -25.5092 13.0136 
7.64967 -25.7572 13.0136 15.0553 -25.2879 13.0136 22.4609 -24.6462 13.0136 
29.8665 -23.8368 13.0136 37.2721 -22.226 13.0136 -44.1896 -16.1461 13.0136 
-34.0073 -21.8611 13.0136 -36.784 -20.8559 13.0136 -29.3784 -21.8611 14.3703 
-21.9728 -21.8611 16.0692 -14.5672 -21.8611 16.3949 -7.16155 -21.8611 16.1276 
0.244061 -21.8611 16.1033 7.64967 -21.8611 15.6802 15.0553 -21.8611 15.4079 
22.4609 -21.8611 15.2826 29.8665 -21.8611 14.8463 38.1638 -21.8611 13.0136 
[...]
POINT_DATA 532
SCALARS ImageScalars float
LOOKUP_TABLE default
0 0 0 0 0 0 0 0 0 
0 0 0 0 0 0 0 0 0 
0 0 0 0 0 0 0 0 0 
0 0 0 0 0 0 0 0 0 
0 0 0 0 0 0 0 0 0 
0 0 0 0 0 0 0 0 0 
0 0 0 0 0 0 0 0 0 
0 0 0 0 0 0 0 0 0 
0 0 0 0 0 0 0 0 0 
0 0 0 0 0 0 0 0 0 
0 0 0 0 0 0 0 0 0 
0 0 0 0 0 0 0 0 0 
0 0 0 0 0 0 0 0 0 
0 0 0 0 0 0 0 0 0 
0 0 0 0 0 0 0 0 0 
0 0 0 0 0 0 0 0 0 
0 0 0 0 0 0 0 0 0 
0 0 0 0 0 0 0 0 0 
0 0 0 0 0 0 0 0 0 
0 0 0 0 0 0 0 0 0 
0 0 0 0 0 0 0 0 0 
0 0 0 0 0 0 0 0 0 
0 0 0 0 0 0 0 0 0 
0 0 0 0 0 0 0 0 0 
0 0 0 0 0 0 0 0 0 
0 0 0 0 0 0 0 0 0 
0 0 0 0 0 0 0 0 0 
0 0 0 0 0 0 0 0 0 
0 0 0 0 0 0 0 0 0 
0 0 0 0 0 0 0 0 0 
0 0 0 0 0 0 0 0 0 
0 0 0 0 0 0 0 0 0 
0 0 0 0 0 0 0 0 0 
0 0 0 0 0 0 0 0 0 
0 0 0 0 0 0 0 0 0 
0 0 0 0 0 0 0 0 0 
0 0 0 0 0 0 0 0 0 
0 0 0 0 0 0 0 0 0 
0 0 0 0 0 0 0 0 0 
0 0 0 0 0 0 0 0 0 
0 0 0 0 0 0 0 0 0 
0 0 0 0 0 0 0 0 0 
0 0 0 0 0 0 0 0 0 
0 0 0 0 0 0 0 0 0 
0 0 0 0 0 0 0 0 0 
0 0 0 0 0 0 0 0 0 
0 0 0 0 0 0 0 0 0 
0 0 0 0 0 0 0 0 0 
0 0 0 0 0 0 0 0 0 
0 0 0 0 0 0 0 0 0 
0 0 0 0 0 0 0 0 0 
0 0 0 0 0 0 0 0 0 
0 0 0 0 0 0 0 0 0 
0 0 0 0 0 0 0 0 0 
0 0 0 0 0 0 0 0 0 
0 0 0 0 0 0 0 0 0 
0 0 0 0 0 0 0 0 0 
0 0 0 0 0 0 0 0 0 
0 0 0 0 0 0 0 0 0 
0 
NORMALS Normals float
-0.087178 0.0582236 -0.99449 -0.2476 -0.664093 -0.705461 -0.0181766 -0.534208 -0.845157 
0.170655 -0.490329 -0.854666 0.281787 -0.535336 -0.796248 -0.386549 -0.537398 -0.749522 
-0.272924 -0.391954 -0.87857 -0.097596 -0.255771 -0.961799 0.0426216 -0.191789 -0.98051 
0.16116 -0.19086 -0.968297 0.230583 -0.213612 -0.949316 0.222136 -0.279485 -0.934101 
0.130899 -0.263654 -0.955695 -0.427783 -0.365121 -0.826855 -0.268304 -0.267558 -0.925433 
-0.135316 -0.138233 -0.981112 -0.045602 -0.0490994 -0.997752 0.0663746 -0.0358323 -0.997151 
0.170009 -0.0753554 -0.982557 0.188897 -0.0540832 -0.980507 0.212241 -0.147488 -0.966023 
0.152651 -0.0492784 -0.987051 0.0763882 -0.00783865 -0.997047 0.0676052 -0.0723755 -0.995084 
-0.611156 -0.290209 -0.736388 -0.329572 -0.248592 -0.910815 -0.150973 -0.168536 -0.974065 
-0.0313883 -0.0617126 -0.9976 0.00914873 0.0374065 -0.999258 0.0163041 0.0898767 -0.995819 
0.142328 -0.0715295 -0.987232 0.159413 0.014395 -0.987107 0.212016 -0.125333 -0.969196 
0.294059 -0.0618625 -0.953783 -0.0253707 0.0761341 -0.996775 0.128944 0.0466384 -0.990555 
-0.577575 -0.0822665 -0.812182 -0.257859 -0.100049 -0.960988 -0.0700183 -0.0354287 -0.996916 
-0.0580653 -0.100658 -0.993225 0.0702484 -0.0355628 -0.996895 0.107883 0.0146164 -0.994056 
-0.0461862 0.0528688 -0.997533 0.0783134 -0.0373534 -0.996229 0.152576 0.00943839 -0.988247 
0.0825114 -0.0049332 -0.996578 0.435134 -0.109987 -0.893622 -0.645868 0.167298 -0.744893 
-0.114781 0.0636561 -0.991349 -0.337908 0.0952656 -0.936345 0.0112683 0.0386137 -0.999191 
-0.0946471 0.0810541 -0.992206 0.0807691 0.0247084 -0.996427 0.0967591 -0.0243255 -0.99501 
-0.0351978 -0.0954994 -0.994807 0.0804707 -0.0395267 -0.995973 0.208002 -0.111574 -0.971744 
0.0928778 0.00939518 -0.995633 0.447475 0.0024814 -0.894293 -0.399597 0.273985 -0.874788 
-0.127875 0.201361 -0.971134 -0.00389935 0.139398 -0.990229 -0.017593 0.070336 -0.997368 
-0.059502 0.00574042 -0.998212 0.0777346 0.0655892 -0.994814 0.190843 0.00935956 -0.981576 
0.196204 0.124927 -0.972573 0.513444 0.23653 -0.824881 -0.246706 0.574746 -0.780258 
-0.0734404 0.414545 -0.90706 -0.0385719 0.377517 -0.925199 -0.0289532 0.372734 -0.927487 
0.0888983 0.429524 -0.898669 0.238375 0.436089 -0.867758 0.334373 0.569085 -0.751223 
-0.273368 -0.772741 -0.572836 -0.0755929 -0.784456 -0.61556 0.151869 -0.686627 -0.710971 
0.0469199 -0.98616 -0.159019 0.283806 -0.585353 -0.759484 -0.414718 -0.620335 -0.665728 
-0.348931 -0.736991 -0.578871 -0.376016 -0.707843 -0.597972 -0.392824 -0.797303 -0.458254 
0.276508 -0.554572 -0.784852 0.233703 -0.425515 -0.874254 0.228998 -0.653357 -0.721584 
0.129268 -0.288944 -0.948578 0.130044 -0.701113 -0.701091 0.178811 -0.742663 -0.645351 
0.251988 -0.811704 -0.526914 -0.44381 -0.588292 -0.675977 -0.479714 -0.49974 -0.721203 
-0.533886 -0.717292 -0.447726 0.11195 -0.264168 -0.957958 0.0798545 -0.144625 -0.986259 
0.0850363 -0.271406 -0.958701 0.0720674 -0.0837099 -0.993881 0.175077 -0.370216 -0.912298 
0.297351 -0.500286 -0.813201 0.44003 -0.623764 -0.645982 -0.522274 -0.400468 -0.752898 
-0.614385 -0.295318 -0.731654 -0.698136 -0.487192 -0.524642 0.0603098 0.0613292 -0.996294 
0.0713533 -0.0822046 -0.994058 0.128115 0.0147166 -0.99165 0.124944 -0.216531 -0.968248 
0.357857 -0.249079 -0.899943 0.547494 -0.427416 -0.719421 -0.617042 -0.289983 -0.731552 
0.114224 0.066277 -0.991242 -0.00925351 0.0827811 -0.996525 0.0482573 0.10561 -0.993236 
-0.0232559 0.086368 -0.995992 0.133516 0.0473086 -0.989917 0.127906 0.0574819 -0.990119 
0.234421 0.0416322 -0.971243 0.410668 -0.0682329 -0.909228 -0.715523 -0.0698615 -0.695087 
-0.951725 0.00544419 -0.306904 0.270022 0.0618308 -0.960867 0.176123 0.137632 -0.974699 
0.0120643 0.21281 -0.977019 0.102101 0.2343 -0.966788 0.242647 0.180976 -0.953084 
0.439799 0.201341 -0.875237 -0.715672 0.175199 -0.676106 -0.733803 0.337215 -0.589761 
0.427555 0.0711305 -0.901186 0.309055 0.17053 -0.935631 0.0770454 0.27433 -0.958544 
0.0961963 0.317586 -0.943337 0.191825 0.335918 -0.922151 0.346498 0.358093 -0.867011 
-0.72887 0.377854 -0.570942 -0.764872 0.402644 -0.50284 -0.532161 0.693999 -0.484944 
0.530803 0.242242 -0.812137 0.537622 0.471943 -0.698736 0.407266 0.304558 -0.861034 
0.163179 0.388407 -0.906925 0.140868 0.426723 -0.893344 -0.528858 0.69729 -0.483834 
-0.533922 0.701591 -0.471908 -0.320477 0.785673 -0.529162 -0.156595 0.830711 -0.534225 
-0.0248189 0.813213 -0.581437 0.0244641 0.823775 -0.566388 0.107189 0.794982 -0.597088 
0.243372 0.711196 -0.659522 0.430435 0.616317 -0.659454 0.349374 0.663284 -0.661809 
0.463594 0.695789 -0.548597 -0.186841 0.919537 -0.345748 -0.0324209 0.85662 -0.514929 
0.0189914 0.86292 -0.504983 0.0947392 0.847704 -0.52194 0.240199 0.840756 -0.485215 
0.0444895 -0.988233 -0.146342 -0.399991 -0.908865 -0.118204 -0.303575 -0.950909 -0.0601265 
0.00928944 -0.991459 -0.130091 -0.156406 -0.9862 -0.0542816 0.0562884 -0.986431 -0.154223 
0.0313989 -0.994775 -0.0971399 0.217911 -0.936346 -0.275266 0.193027 -0.883962 -0.425855 
0.135203 -0.866263 -0.480946 0.18149 -0.852865 -0.489573 0.253041 -0.822855 -0.508802 
-0.534813 -0.802684 -0.263957 -0.422806 -0.893044 -0.153974 -0.444564 -0.877185 -0.181408 
0.264469 -0.819109 -0.509035 0.349005 -0.754965 -0.555179 0.364477 -0.931204 -0.0038726 
0.468367 -0.666457 -0.580059 -0.589109 -0.752917 -0.29337 -0.710846 -0.609932 -0.350258 
0.491231 -0.652721 -0.576757 0.562367 -0.513693 -0.647968 -0.778212 -0.519466 -0.352904 
0.587303 -0.447865 -0.67416 -0.890988 -0.289875 -0.349447 -0.956464 -0.0490032 -0.287706 
0.717417 -0.122409 -0.685805 0.851093 -0.189033 -0.489804 -0.960986 0.0106942 -0.276389 
-0.962328 0.0638441 -0.264287 0.560186 0.166915 -0.811376 0.806666 0.0886695 -0.584319 
-0.928832 0.295256 -0.223821 0.244379 0.449758 -0.859068 0.367368 0.358283 -0.858297 
0.352188 0.369249 -0.860011 0.803303 0.38836 -0.451532 -0.849875 0.514556 -0.113776 
-0.776738 0.621373 -0.10283 0.287803 0.609601 -0.738618 0.163225 0.487961 -0.857468 
0.220832 0.454909 -0.862723 0.153845 0.45943 -0.874789 0.250142 0.468453 -0.847337 
0.49902 0.558079 -0.662968 -0.641019 0.762864 -0.084457 -0.544217 0.836289 -0.0666948 
-0.343687 0.936651 -0.0675586 0.419498 0.853679 -0.308633 0.30518 0.683145 -0.663459 
0.380407 0.823809 -0.420274 0.257385 0.666495 -0.699669 0.145893 0.622952 -0.768535 
0.20945 0.659914 -0.721557 0.367737 0.711411 -0.598886 -0.278258 0.95674 -0.0849761 
-0.219356 0.969741 -0.107167 -0.0917433 0.983916 -0.153271 -0.0283583 0.974434 -0.222876 
0.0475911 0.946418 -0.319419 0.359916 0.870622 -0.335377 0.235262 0.891921 -0.386172 
0.411934 0.891381 -0.189078 -0.305713 -0.92923 0.207537 -0.255224 -0.922815 0.28857 
-0.207345 -0.926284 0.314653 -0.0708024 -0.956066 0.284473 0.0648325 -0.983058 0.171445 
0.111169 -0.992342 0.0538378 0.12207 -0.992519 0.00219367 0.1737 -0.984796 0.00241044 
0.260666 -0.965383 0.0094623 0.363864 -0.931447 0.00296089 -0.464886 -0.882543 0.0707096 
-0.334547 -0.928049 0.163721 -0.365132 -0.922568 0.124689 -0.257497 -0.908828 0.328218 
0.364723 -0.931112 0.00279123 0.363669 -0.931486 0.0088685 0.469732 -0.881253 -0.0523859 
-0.584124 -0.810891 0.0354319 -0.696301 -0.717321 0.024793 0.597424 -0.793832 -0.113642 
0.63409 -0.761415 -0.134826 -0.84645 -0.531319 0.0349671 0.809574 -0.546778 -0.213596 
0.859083 -0.455138 -0.234149 -0.972565 -0.228486 0.0437264 -0.985372 -0.156786 0.0667786 
0.935288 -0.235383 -0.264256 -0.988209 0.0729699 0.134607 -0.976327 0.165322 0.139481 
-0.972503 0.085758 0.216526 0.944869 0.0811053 -0.317245 -0.924967 0.349102 0.150212 
0.862312 0.387635 -0.325817 0.829376 0.436931 -0.348177 -0.782803 0.581877 0.22054 
-0.737251 0.634026 0.23339 -0.733636 0.573037 0.365247 0.673088 0.584271 -0.453409 
0.546704 0.682689 -0.48482 -0.58787 0.770047 0.247864 -0.536759 0.807043 0.246114 
-0.542282 0.767577 0.341694 -0.393965 0.89314 0.217007 0.144849 0.931967 -0.332349 
0.0266352 0.891598 -0.452044 0.122239 0.835645 -0.535494 0.217223 0.792316 -0.570132 
0.404798 0.729471 -0.551371 0.372144 0.740005 -0.560269 -0.300655 0.93779 0.173655 
-0.247282 0.95573 0.159471 -0.276339 0.927578 0.251468 -0.154303 0.981744 0.111217 
-0.151407 0.988464 0.00384701 -0.0643099 0.99338 -0.0951893 0.228243 0.960329 -0.160231 
0.385945 0.904352 -0.18219 0.409507 0.896548 -0.168838 -0.0315453 0.987237 -0.156103 
0.0375011 0.97514 -0.218394 -0.166471 -0.869765 0.464539 -0.134858 -0.837845 0.528989 
-0.0757818 -0.81361 0.576451 -0.039487 -0.829402 0.557255 0.00533224 -0.874136 0.485651 
0.0820526 -0.88734 0.453756 0.178759 -0.876897 0.446202 0.246747 -0.874338 0.41791 
-0.44328 -0.807087 0.390017 -0.314148 -0.881518 0.352474 -0.175708 -0.872898 0.455167 
-0.218912 -0.881053 0.419312 -0.161254 -0.866264 0.472846 -0.104817 -0.813719 0.571729 
-0.0573873 -0.76415 0.642481 -0.0482053 -0.744706 0.665649 -0.00580814 -0.747965 0.663713 
0.0751491 -0.758719 0.647069 0.15824 -0.813757 0.559249 0.248652 -0.873728 0.418057 
0.246192 -0.872877 0.421279 0.308786 -0.859483 0.407358 0.394407 -0.844349 0.362653 
-0.468194 -0.793081 0.389637 -0.710905 -0.556048 0.43061 -0.441622 -0.793842 0.418073 
-0.311421 -0.685678 0.657923 0.500096 -0.79918 0.333489 0.382505 -0.766594 0.515775 
0.583401 -0.749141 0.313738 -0.761663 -0.479801 0.435502 -0.722143 -0.458499 0.517965 
0.751985 -0.593314 0.287222 0.555615 -0.539688 0.632478 0.821032 -0.505949 0.264427 
-0.868767 -0.185094 0.459329 -0.67962 -0.175693 0.712214 0.915951 -0.312088 0.252258 
0.775583 -0.276789 0.567327 -0.866791 0.121965 0.483526 -0.675181 0.123125 0.727304 
0.97146 0.0337612 0.234787 0.838566 -0.0389401 0.543407 -0.770608 0.360343 0.525658 
-0.702335 0.481063 0.524694 -0.687814 0.349096 0.63643 0.954732 0.281408 0.0964209 
0.902786 0.427299 0.0489251 0.811769 0.16262 0.56088 -0.656054 0.557088 0.509163 
-0.544618 0.682087 0.488004 -0.544602 0.517638 0.659893 0.858493 0.510623 0.0474845 
0.641521 0.766315 -0.0348154 -0.491861 0.734511 0.46751 -0.428867 0.783259 0.450087 
-0.445292 0.699961 0.558364 -0.316001 0.871611 0.374749 0.0894016 0.98694 -0.134002 
0.238489 0.953828 -0.182579 0.613753 0.787731 -0.052786 0.420969 0.903077 -0.0850673 
-0.267426 0.918629 0.290867 -0.250169 0.934178 0.254414 -0.27076 0.913682 0.303107 
-0.235758 0.958251 0.161781 -0.120031 0.984989 0.124055 0.157861 0.982478 0.0990762 
0.0902277 0.986912 -0.133659 0.302339 0.952804 -0.0274959 0.0843764 0.987372 -0.134082 
0.088319 0.988022 -0.126539 -0.0346007 0.990134 -0.135783 0.217668 0.959341 -0.179681 
0.0110953 0.989431 -0.144581 -0.199663 -0.723129 0.661225 -0.112114 -0.754959 0.646117 
-0.025694 -0.731175 0.681706 -0.0096287 -0.687479 0.72614 -0.0170904 -0.666124 0.745645 
0.00864335 -0.61018 0.792216 0.04731 -0.598026 0.800079 0.0672507 -0.654919 0.752701 
0.123504 -0.695859 0.707479 0.245282 -0.729037 0.639017 -0.454185 -0.490395 0.743793 
-0.269331 -0.675255 0.686652 -0.30671 -0.631959 0.711727 -0.205869 -0.678932 0.704748 
-0.102171 -0.646772 0.755809 -0.00338462 -0.633136 0.774033 0.0152493 -0.609396 0.79272 
0.0258003 -0.608268 0.793312 0.0389883 -0.51438 0.856676 0.0225291 -0.511466 0.859008 
0.0309234 -0.587377 0.808723 0.0920661 -0.646721 0.75715 0.258591 -0.722436 0.641262 
0.242829 -0.716943 0.653473 0.367006 -0.64223 0.672939 -0.500933 -0.42027 0.756597 
-0.450593 -0.416519 0.789606 -0.289591 -0.404098 0.867665 -0.184259 -0.371992 0.909764 
-0.0989673 -0.339987 0.935208 -0.00132181 -0.298335 0.95446 0.112458 -0.410054 0.905102 
-0.00973657 -0.389198 0.921103 -0.0610849 -0.39793 0.91538 0.0501604 -0.411929 0.909834 
0.184073 -0.439067 0.879396 0.516511 -0.524893 0.676538 0.327172 -0.499409 0.802215 
0.534943 -0.486457 0.690794 -0.604776 -0.157685 0.780629 -0.43623 -0.141234 0.888683 
-0.274282 -0.150008 0.949877 0.318179 -0.196913 0.927355 0.635057 -0.276204 0.721397 
0.479628 -0.270906 0.834606 -0.609685 0.112003 0.784691 -0.42276 0.0797334 0.902727 
-0.278421 0.0686106 0.958005 0.28472 0.00493731 0.958598 0.706519 -0.0711752 0.704105 
0.471861 -0.0595926 0.879657 -0.579586 0.319527 0.749655 -0.530397 0.409287 0.742404 
-0.491486 0.300459 0.817414 -0.32639 0.235813 0.915348 0.276855 -0.0060911 0.960892 
0.763645 0.14861 0.6283 0.434716 0.155477 0.887045 -0.498113 0.483232 0.71998 
-0.451322 0.568222 0.688064 -0.431112 0.440231 0.787616 -0.336279 0.321664 0.885126 
0.374635 0.217046 0.90141 0.635928 0.429066 0.641481 0.608596 0.506562 0.610742 
0.584105 0.384658 0.714744 -0.43815 0.648483 0.62249 -0.421806 0.685605 0.593318 
-0.426107 0.616654 0.661945 -0.343768 0.802545 0.487591 -0.337162 0.510327 0.791131 
0.141686 0.371102 0.917719 0.300206 0.862704 0.406962 0.291445 0.480874 0.826934 
0.570277 0.64493 0.508772 0.495375 0.723366 0.480983 0.466905 0.60424 0.645673 
-0.280655 0.866617 0.412562 -0.268219 0.875444 0.402066 -0.268661 0.856075 0.44154 
-0.124241 0.90701 0.402366 -0.12415 0.800763 0.585974 0.0987453 0.912731 0.396449 
0.088602 0.793495 0.602092 0.153953 0.934324 0.321462 0.142995 0.902468 0.40633 
0.0320468 0.973436 0.226708 0.02924 0.964003 0.264279 0.00396072 0.974267 0.22536 
0.00790393 0.961637 0.274213 0.119751 0.942124 0.313149 0.0857046 0.950841 0.297584 
0.0902079 0.943162 0.319855 -0.00563387 -0.339236 0.940685 0.0556582 -0.356964 0.932459 
-0.166762 -0.219541 0.961245 -0.0554161 -0.33242 0.941502 -0.0961567 -0.320854 0.942235 
-0.00265175 -0.305402 0.95222 -0.00503647 -0.324238 0.945962 0.0137504 -0.309473 0.950809 
-0.000746266 -0.286498 0.958081 0.0671494 -0.355531 0.932249 0.0548523 -0.341709 0.938204 
0.0885517 -0.370009 0.924798 0.012927 -0.312478 0.949837 -0.0477235 -0.321249 0.945791 
0.0438882 -0.340015 0.939395 0.149537 -0.2786 0.948694 -0.212986 -0.143182 0.966507 
-0.158333 -0.134154 0.97823 -0.0737175 -0.148909 0.986099 0.0336422 -0.176937 0.983647 
0.0087999 -0.133914 0.990954 -0.0646861 -0.123472 0.990238 0.0316878 -0.272701 0.961577 
0.031256 -0.242762 0.969582 -0.0143141 -0.181756 0.98324 0.0359409 -0.158374 0.986725 
0.25782 -0.190872 0.947152 0.129141 -0.180103 0.975134 -0.23216 0.0521193 0.97128 
-0.180187 0.029729 0.983183 -0.135265 -0.0121398 0.990735 0.0126894 -0.0552972 0.998389 
0.0494811 -0.0971161 0.994042 -0.0907653 -0.0348306 0.995263 -0.00549948 -0.0243153 0.999689 
0.0799181 -0.044587 0.995804 0.018121 -0.025464 0.999511 0.0505365 -0.0168797 0.99858 
0.258503 0.00624004 0.96599 0.149901 -0.0050589 0.988688 -0.247685 0.156928 0.956047 
-0.252511 0.173759 0.951865 -0.234975 0.142727 0.961466 -0.160548 0.0871768 0.983171 
-0.0498749 0.0316965 0.998252 0.0307987 -0.0742502 0.996764 0.00364697 -0.0562524 0.99841 
0.0198299 0.0752029 0.996971 0.0358044 0.00616023 0.99934 0.0143316 -0.0121503 0.999823 
0.0570347 0.0180197 0.99821 0.230489 0.000342848 0.973075 0.148728 0.0257021 0.988544 
-0.271386 0.242866 0.931325 -0.2699 0.291807 0.917607 -0.240481 0.208965 0.947894 
-0.146846 0.129326 0.980669 -0.0387585 0.0208925 0.99903 0.0613537 0.016428 0.997981 
0.055353 0.098775 0.993569 -0.00743017 0.0723959 0.997348 0.0285214 0.0686261 0.997235 
0.138555 0.353672 0.925051 0.0874402 0.117837 0.989176 0.354896 0.21153 0.910661 
0.18283 0.273393 0.944367 0.131849 0.150948 0.97971 -0.258678 0.412661 0.873382 
-0.239855 0.444715 0.862959 -0.232963 0.388625 0.891459 -0.103379 0.528827 0.84241 
-0.0855518 0.33084 0.939801 0.0776405 0.51609 0.853008 0.0759924 0.304847 0.949365 
0.0955076 0.442519 0.891658 0.0864665 0.354155 0.931181 -0.00568888 0.448984 0.893521 
-0.00206781 0.383147 0.923685 0.132132 0.366153 0.921126 0.0466999 0.453092 0.89024 
0.0507307 0.350424 0.935216 
