# vtk DataFile Version 4.2
vtk output
ASCII
DATASET POLYDATA
POINTS 551 float
47.0436 -9.7231 -21.3745 47.0436 -1.37232 -20.893 -44.815 -34.7754 -12.9598 
-36.4642 -34.7754 -14.3513 -28.1134 -34.7754 -14.7059 -19.7626 -34.7754 -14.6528 
-11.4119 -34.7754 -13.7026 -53.1658 -26.4247 -12.0055 -44.815 -26.4247 -14.4287 
-36.4642 -26.4247 -15.8222 -28.1134 -26.4247 -16.8415 -19.7626 -26.4247 -15.657 
-11.4119 -26.4247 -14.5971 -3.06109 -26.4247 -13.0421 30.342 -26.4247 -13.8696 
38.6928 -26.4247 -15.6774 47.0436 -26.4247 -15.9512 55.3944 -26.4247 -14.8005 
-53.1658 -18.0739 -12.8961 -44.815 -18.0739 -15.5391 -36.4642 -18.0739 -16.949 
-28.1134 -18.0739 -16.4713 -19.7626 -18.0739 -15.4557 -11.4119 -18.0739 -14.2542 
-3.06109 -18.0739 -12.621 21.9913 -18.0739 -15.1821 30.342 -18.0739 -18.007 
38.6928 -18.0739 -19.1348 47.0436 -14.9732 -20.35 47.0436 -18.0739 -19.7293 
55.3944 -18.0739 -20.1728 63.7451 -18.0739 -15.5829 -61.5165 -9.7231 -12.4804 
-53.1658 -9.7231 -15.8908 -44.815 -9.7231 -16.6006 -36.4642 -9.7231 -17.024 
-28.1134 -9.7231 -16.5823 -19.7626 -9.7231 -15.2884 -11.4119 -9.7231 -14.7388 
-3.06109 -9.7231 -14.4947 5.28969 -9.7231 -16.8179 13.6405 -9.7231 -14.5813 
21.9913 -9.7231 -16.669 30.342 -9.7231 -18.7927 40.0156 -9.7231 -20.35 
38.6928 -9.7231 -20.1654 51.0108 -9.7231 -20.35 55.3944 -9.7231 -19.218 
63.7451 -9.7231 -16.3843 -61.5165 -1.37232 -13.9966 -53.1658 -1.37232 -17.4561 
-44.815 -1.37232 -17.6426 -36.4642 -1.37232 -17.5747 -28.1134 -1.37232 -16.5597 
-19.7626 -1.37232 -15.1331 -11.4119 -1.37232 -17.0792 -3.06109 -1.37232 -12.9808 
5.28969 -1.37232 -16.2867 13.6405 -1.37232 -15.4054 21.9913 -1.37232 -16.6465 
30.342 -1.37232 -18.768 40.9374 -1.37232 -20.35 38.6928 -1.37232 -20.1308 
49.3098 -1.37232 -20.35 47.0436 5.91883 -20.35 55.3944 -1.37232 -18.689 
63.7451 -1.37232 -15.1479 -61.5165 6.97846 -12.591 -53.1658 6.97846 -16.8983 
-44.815 6.97846 -18.3215 -36.4642 6.97846 -18.0545 -28.1134 6.97846 -17.0728 
-19.7626 6.97846 -15.7125 -11.4119 6.97846 -16.9731 -3.06109 6.97846 -17.2251 
5.28969 6.97846 -17.4069 13.6405 6.97846 -16.7486 21.9913 6.97846 -17.4212 
30.342 6.97846 -18.9517 38.6928 6.97846 -19.8671 47.0436 6.97846 -20.2591 
55.3944 6.97846 -18.1918 63.7451 6.97846 -14.8468 -61.5165 15.3292 -14.0472 
-53.1658 15.3292 -17.9741 -44.815 15.3292 -18.2091 -36.4642 15.3292 -18.4145 
-28.1134 15.3292 -18.0413 -19.7626 15.3292 -17.8369 -11.4119 15.3292 -18.0529 
-3.06109 15.3292 -16.5872 5.28969 15.3292 -15.4372 13.6405 15.3292 -16.7631 
21.9913 15.3292 -18.6256 30.342 15.3292 -19.3711 38.6928 15.3292 -19.7303 
47.0436 15.3292 -19.4595 55.3944 15.3292 -16.9167 -53.1658 23.68 -15.8058 
-44.815 23.68 -17.2642 -36.4642 23.68 -19.1093 -28.1134 23.68 -18.9484 
-19.7626 23.68 -18.7283 -11.4119 23.68 -18.3784 -3.06109 23.68 -17.1565 
5.28969 23.68 -16.9378 13.6405 23.68 -18.0273 21.9913 23.68 -18.7998 
30.342 23.68 -19.5621 38.6928 23.68 -20.2383 47.0436 23.68 -17.5786 
55.3944 23.68 -13.6796 -53.1658 32.0308 -12.9767 -44.815 32.0308 -16.2318 
-36.4642 32.0308 -16.8968 -28.1134 32.0308 -18.4738 -19.7626 32.0308 -17.6665 
-11.4119 32.0308 -17.1261 -3.06109 32.0308 -17.2324 5.28969 32.0308 -17.747 
13.6405 32.0308 -17.9879 21.9913 32.0308 -17.9923 30.342 32.0308 -18.7492 
38.6928 32.0308 -17.3203 47.0436 32.0308 -14.3765 -36.4642 40.3816 -12.3785 
-28.1134 40.3816 -14.0228 -19.7626 40.3816 -14.2428 -11.4119 40.3816 -14.4702 
-3.06109 40.3816 -14.4105 5.28969 40.3816 -15.1445 13.6405 40.3816 -15.2668 
21.9913 40.3816 -15.1804 30.342 40.3816 -13.8232 -44.815 -36.2804 -11.9992 
-44.815 -43.1262 -3.76985 -36.4642 -40.1562 -11.9992 -36.4642 -43.1262 -10.0756 
-28.1134 -41.4327 -11.9992 -28.1134 -43.1262 -11.0767 -19.7626 -41.6565 -11.9992 
-19.7626 -43.1262 -11.3291 -11.4119 -39.2629 -11.9992 -11.4119 -43.1262 -10.3023 
-3.06109 -43.1262 -7.85821 5.28969 -43.1262 -4.26339 -46.4082 -34.7754 -11.9992 
-53.1658 -26.4371 -11.9992 -53.1658 -34.7754 -4.88212 -4.13555 -34.7754 -11.9992 
-3.06109 -33.1876 -11.9992 -3.06109 -34.7754 -11.7507 5.28969 -34.7754 -8.64353 
13.6405 -34.7754 -5.27987 21.9913 -34.7754 -5.25296 30.342 -28.909 -11.9992 
30.342 -34.7754 -6.56887 38.6928 -31.8382 -11.9992 38.6928 -34.7754 -8.24636 
47.0436 -31.763 -11.9992 47.0436 -34.7754 -8.32236 55.3944 -29.3005 -11.9992 
-53.1751 -26.4247 -11.9992 0.828242 -26.4247 -11.9992 5.28969 -26.4247 -10.772 
13.6405 -26.4247 -8.76484 24.2625 -26.4247 -11.9992 21.9913 -25.1526 -11.9992 
21.9913 -26.4247 -11.2856 60.5745 -26.4247 -11.9992 63.7451 -24.1463 -11.9992 
63.7451 -26.4247 -8.66215 -54.9955 -18.0739 -11.9992 -61.5165 -11.0451 -11.9992 
-61.5165 -18.0739 -7.78844 0.633279 -18.0739 -11.9992 5.28969 -16.9091 -11.9992 
5.28969 -18.0739 -11.2447 14.4974 -18.0739 -11.9992 13.6405 -17.1501 -11.9992 
13.6405 -18.0739 -11.6565 67.7576 -18.0739 -11.9992 -62.1183 -9.7231 -11.9992 
68.9885 -9.7231 -11.9992 72.0959 -9.7231 -6.17158 -64.1164 -1.37232 -11.9992 
67.3376 -1.37232 -11.9992 -62.3653 6.97846 -11.9992 66.6705 6.97846 -11.9992 
63.7451 13.2171 -11.9992 -64.2057 15.3292 -11.9992 -61.5165 21.8387 -11.9992 
62.2546 15.3292 -11.9992 63.7451 15.3292 -9.84099 -60.0968 23.68 -11.9992 
-61.5165 23.68 -10.8323 57.5173 23.68 -11.9992 55.3944 27.0512 -11.9992 
-54.5567 32.0308 -11.9992 -53.1658 33.4255 -11.9992 -44.815 38.2842 -11.9992 
38.6928 39.5243 -11.9992 50.9059 32.0308 -11.9992 47.0436 35.0159 -11.9992 
55.3944 32.0308 -5.4902 -38.1358 40.3816 -11.9992 -44.815 40.3816 -9.19003 
-36.4642 40.7451 -11.9992 -28.1134 42.7281 -11.9992 -19.7626 43.2757 -11.9992 
-11.4119 43.756 -11.9992 -3.06109 43.4018 -11.9992 5.28969 44.2128 -11.9992 
13.6405 44.3043 -11.9992 21.9913 44.2977 -11.9992 36.3003 40.3816 -11.9992 
30.342 42.3473 -11.9992 38.6928 40.3816 -10.5845 5.28969 48.7324 -4.54942 
13.6405 48.7324 -4.2776 -44.815 -43.2063 -3.64844 -36.4642 -47.1611 -3.64844 
-28.1134 -49.1648 -3.64844 -19.7626 -50.5438 -3.64844 -19.7626 -51.477 3.83499 
-11.4119 -49.7271 -3.64844 -11.4119 -51.477 4.63921 -3.06109 -47.4505 -3.64844 
5.28969 -43.7224 -3.64844 -44.9273 -43.1262 -3.64844 -53.1658 -35.8608 -3.64844 
6.21723 -43.1262 -3.64844 13.6405 -36.8747 -3.64844 13.6405 -43.1262 3.56718 
21.9913 -36.3868 -3.64844 30.342 -36.8162 -3.64844 38.6928 -37.0027 -3.64844 
47.0436 -37.2408 -3.64844 -54.14 -34.7754 -3.64844 54.1173 -34.7754 -3.64844 
55.3944 -34.3636 -3.64844 63.7451 -29.2706 -3.64844 -60.3488 -26.4247 -3.64844 
-61.5165 -24.2174 -3.64844 66.4864 -26.4247 -3.64844 -64.4777 -18.0739 -3.64844 
70.9275 -18.0739 -3.64844 72.0959 -13.2202 -3.64844 -67.6798 -9.7231 -3.64844 
72.0959 -4.47457 -3.64844 72.0959 -9.7231 -0.919143 -69.5785 -1.37232 -3.64844 
71.6076 -1.37232 -3.64844 -69.8671 6.97846 -3.64844 69.9834 6.97846 -3.64844 
-69.4623 15.3292 -3.64844 66.3117 15.3292 -3.64844 63.7451 20.5162 -3.64844 
-65.5755 23.68 -3.64844 -61.5165 30.0513 -3.64844 61.9833 23.68 -3.64844 
-59.9044 32.0308 -3.64844 -53.1658 38.1248 -3.64844 47.0436 39.6023 -3.64844 
56.0444 32.0308 -3.64844 55.3944 32.714 -3.64844 55.3944 32.0308 -1.44565 
-49.3076 40.3816 -3.64844 -44.815 42.7076 -3.64844 -36.4642 45.136 -3.64844 
-28.1134 46.3935 -3.64844 -19.7626 47.3971 -3.64844 -11.4119 47.8792 -3.64844 
-3.06109 48.5187 -3.64844 21.9913 47.6545 -3.64844 30.342 46.0608 -3.64844 
45.6109 40.3816 -3.64844 38.6928 43.5696 -3.64844 -0.0586726 48.7324 -3.64844 
5.28969 49.1061 -3.64844 5.28969 48.7324 -1.19299 15.2406 48.7324 -3.64844 
13.6405 48.9879 -3.64844 13.6405 48.7324 -2.00271 -19.7626 -51.5687 4.70233 
-11.4119 -51.4879 4.70233 -44.815 -43.5179 4.70233 -36.4642 -47.4383 4.70233 
-20.2413 -51.477 4.70233 -28.1134 -49.8623 4.70233 -19.7626 -51.477 4.92129 
-11.3239 -51.477 4.70233 -11.4119 -51.477 4.73265 -3.06109 -50.3935 4.70233 
5.28969 -47.617 4.70233 13.6405 -43.8459 4.70233 -45.374 -43.1262 4.70233 
-53.1658 -36.4793 4.70233 -44.815 -43.1262 5.39453 -36.4642 -43.1262 10.732 
15.353 -43.1262 4.70233 13.6405 -43.1262 6.92797 21.9913 -40.6866 4.70233 
30.342 -40.1084 4.70233 38.6928 -38.9172 4.70233 47.0436 -37.594 4.70233 
-54.7258 -34.7754 4.70233 -53.1658 -34.7754 7.09399 -44.815 -34.7754 12.9088 
53.5233 -34.7754 4.70233 47.0436 -34.7754 10.319 55.3944 -33.5985 4.70233 
63.7451 -26.8153 4.70233 -60.5363 -26.4247 4.70233 -61.5165 -24.8517 4.70233 
-53.1658 -26.4247 11.7181 64.0784 -26.4247 4.70233 63.7451 -26.4247 5.07161 
-64.6515 -18.0739 4.70233 -61.5165 -18.0739 9.41191 68.5178 -18.0739 4.70233 
63.7451 -18.0739 9.90856 -66.7757 -9.7231 4.70233 -61.5165 -9.7231 12.333 
69.8423 -9.7231 4.70233 63.7451 -9.7231 11.6567 -68.6243 -1.37232 4.70233 
68.7747 -1.37232 4.70233 63.7451 -1.37232 10.9047 -68.2863 6.97846 4.70233 
67.7678 6.97846 4.70233 63.7451 6.97846 9.71039 -66.999 15.3292 4.70233 
-61.5165 15.3292 10.5179 55.3944 15.3292 12.239 64.1453 15.3292 4.70233 
63.7451 16.1527 4.70233 63.7451 15.3292 5.22586 -63.7279 23.68 4.70233 
-61.5165 27.0043 4.70233 -61.5165 23.68 7.22052 59.5417 23.68 4.70233 
55.3944 29.3533 4.70233 55.3944 23.68 9.10438 -57.4183 32.0308 4.70233 
-53.1658 35.7603 4.70233 -53.1658 32.0308 8.4731 -44.815 32.0308 11.3303 
38.6928 32.0308 12.3795 52.2359 32.0308 4.70233 47.0436 36.1581 4.70233 
47.0436 32.0308 8.94497 -45.0275 40.3816 4.70233 -44.815 40.498 4.70233 
-44.815 40.3816 4.84 -36.4642 42.9783 4.70233 -36.4642 40.3816 7.95985 
-28.1134 43.9152 4.70233 -28.1134 40.3816 8.45647 -19.7626 44.6768 4.70233 
-19.7626 40.3816 8.92829 -11.4119 45.571 4.70233 -11.4119 40.3816 9.73731 
-3.06109 46.8565 4.70233 -3.06109 40.3816 11.1 5.28969 47.6294 4.70233 
5.28969 40.3816 12.13 13.6405 47.4751 4.70233 13.6405 40.3816 12.14 
21.9913 46.2046 4.70233 21.9913 40.3816 11.0082 30.342 44.1278 4.70233 
30.342 40.3816 8.96511 41.1629 40.3816 4.70233 38.6928 41.6083 4.70233 
38.6928 40.3816 6.27908 -28.1134 -45.1298 13.0531 -19.7626 -47.1821 13.0531 
-11.4119 -47.5187 13.0531 -3.06109 -46.1624 13.0531 5.28969 -44.1794 13.0531 
-32.0992 -43.1262 13.0531 -36.4642 -40.7103 13.0531 -28.1134 -43.1262 14.6808 
[...]
POINT_DATA 551
SCALARS ImageScalars float
LOOKUP_TABLE default
0 0 0 0 0 0 0 0 0 
0 0 0 0 0 0 0 0 0 
0 0 0 0 0 0 0 0 0 
0 0 0 0 0 0 0 0 0 
0 0 0 0 0 0 0 0 0 
0 0 0 0 0 0 0 0 0 
0 0 0 0 0 0 0 0 0 
0 0 0 0 0 0 0 0 0 
0 0 0 0 0 0 0 0 0 
0 0 0 0 0 0 0 0 0 
0 0 0 0 0 0 0 0 0 
0 0 0 0 0 0 0 0 0 
0 0 0 0 0 0 0 0 0 
0 0 0 0 0 0 0 0 0 
0 0 0 0 0 0 0 0 0 
0 0 0 0 0 0 0 0 0 
0 0 0 0 0 0 0 0 0 
0 0 0 0 0 0 0 0 0 
0 0 0 0 0 0 0 0 0 
0 0 0 0 0 0 0 0 0 
0 0 0 0 0 0 0 0 0 
0 0 0 0 0 0 0 0 0 
0 0 0 0 0 0 0 0 0 
0 0 0 0 0 0 0 0 0 
0 0 0 0 0 0 0 0 0 
0 0 0 0 0 0 0 0 0 
0 0 0 0 0 0 0 0 0 
0 0 0 0 0 0 0 0 0 
0 0 0 0 0 0 0 0 0 
0 0 0 0 0 0 0 0 0 
0 0 0 0 0 0 0 0 0 
0 0 0 0 0 0 0 0 0 
0 0 0 0 0 0 0 0 0 
0 0 0 0 0 0 0 0 0 
0 0 0 0 0 0 0 0 0 
0 0 0 0 0 0 0 0 0 
0 0 0 0 0 0 0 0 0 
0 0 0 0 0 0 0 0 0 
0 0 0 0 0 0 0 0 0 
0 0 0 0 0 0 0 0 0 
0 0 0 0 0 0 0 0 0 
0 0 0 0 0 0 0 0 0 
0 0 0 0 0 0 0 0 0 
0 0 0 0 0 0 0 0 0 
0 0 0 0 0 0 0 0 0 
0 0 0 0 0 0 0 0 0 
0 0 0 0 0 0 0 0 0 
0 0 0 0 0 0 0 0 0 
0 0 0 0 0 0 0 0 0 
0 0 0 0 0 0 0 0 0 
0 0 0 0 0 0 0 0 0 
0 0 0 0 0 0 0 0 0 
0 0 0 0 0 0 0 0 0 
0 0 0 0 0 0 0 0 0 
0 0 0 0 0 0 0 0 0 
0 0 0 0 0 0 0 0 0 
0 0 0 0 0 0 0 0 0 
0 0 0 0 0 0 0 0 0 
0 0 0 0 0 0 0 0 0 
0 0 0 0 0 0 0 0 0 
0 0 0 0 0 0 0 0 0 
0 0 
NORMALS Normals float
-0.0526595 0.0618196 0.996697 -0.0786272 -0.0613705 0.995013 0.371796 0.393564 0.840759 
0.117766 0.308969 0.943753 0.0143298 0.29155 0.956448 -0.0576492 0.228617 0.971808 
-0.166813 0.224367 0.960121 0.454253 0.296265 0.840168 0.261618 0.180429 0.948157 
0.126691 0.13701 0.982435 -0.0115514 0.100292 0.994891 -0.130597 0.0450342 0.990412 
-0.15298 0.0302058 0.987768 -0.225839 0.0491359 0.972925 0.232997 0.54246 0.807124 
0.0972901 0.491972 0.865158 -0.0400087 0.531221 0.846288 -0.270272 0.590112 0.760737 
0.362194 0.215425 0.906867 0.211028 0.115732 0.970604 0.0549895 0.0709379 0.995964 
-0.0880853 -0.0150918 0.995999 -0.130627 -0.0212871 0.991203 -0.168865 0.00200131 0.985637 
-0.16824 0.0782385 0.982636 0.332553 0.283094 0.899592 0.222194 0.234418 0.946403 
0.0947673 0.241161 0.965847 0.0202952 0.20484 0.978585 0.0564982 0.284583 0.956985 
-0.232181 0.182663 0.955367 -0.548091 0.28804 0.785257 0.538477 0.257464 0.802343 
0.262786 0.235381 0.935702 0.0621462 0.126019 0.990079 -1.02051e-05 0.0373021 0.999304 
-0.101777 0.00544684 0.994792 -0.100626 -0.0197944 0.994727 -0.0510785 0.157754 0.986156 
0.133645 0.0610081 0.98915 -0.00838985 0.236532 0.971587 -0.00276802 0.184127 0.982899 
0.256818 0.0773799 0.963357 0.201458 0.0407079 0.978651 0.120985 0.0596866 0.990858 
0.151461 0.0573617 0.986798 -0.142643 -0.00501712 0.989761 -0.249086 -0.0752177 0.965556 
-0.556937 -0.0110724 0.830481 0.52731 0.0264995 0.849259 0.240933 0.0422885 0.96962 
0.00533297 0.102323 0.994737 -0.0643317 0.0615183 0.996031 -0.144845 0.0290587 0.989028 
0.00418755 0.0256944 0.999661 -0.0230099 0.119337 0.992587 -0.107416 0.233407 0.966428 
0.100872 0.028707 0.994485 0.0473291 0.140681 0.988923 0.183296 0.0430994 0.982113 
0.205342 0.0093324 0.978646 0.0711275 -0.0298529 0.99702 0.127484 -0.0176977 0.991683 
-0.131024 -0.0627727 0.98939 -0.102068 -0.0849929 0.99114 -0.291101 -0.0599606 0.954812 
-0.54663 -0.0794781 0.833594 0.565307 -0.000804033 0.82488 0.278242 0.0227357 0.960242 
0.07982 0.0339809 0.99623 -0.0738965 0.0501761 0.996003 -0.138375 0.0877452 0.986485 
-0.0168585 0.161944 0.986656 0.0980597 0.0663796 0.992964 0.0277679 0.140271 0.989724 
-0.0324103 -0.0950798 0.994942 0.0105003 0.0689962 0.997562 0.129051 0.113919 0.985073 
0.142417 0.0357994 0.989159 0.0764067 -0.0238744 0.996791 -0.105475 -0.0888551 0.990444 
-0.286319 -0.0866851 0.954205 -0.605579 -0.218919 0.765081 0.522206 -0.08139 0.848926 
0.258544 -0.0286575 0.965574 0.0244319 -0.0629733 0.997716 -0.0104704 0.0617169 0.998039 
-0.0343973 0.11107 0.993217 0.000739942 0.179176 0.983817 -0.0689308 0.0737211 0.994894 
-0.163528 -0.000760396 0.986538 0.00829657 0.00336519 0.99996 0.187938 0.0786946 0.979023 
0.149347 0.0813917 0.985429 0.0629206 0.0361631 0.997363 0.006331 0.0193094 0.999794 
-0.139155 -0.166358 0.976197 -0.434867 -0.229056 0.870875 0.376812 -0.300674 0.876132 
0.175567 -0.101571 0.979214 0.0939764 -0.0790757 0.992429 -0.0225921 0.0295988 0.999306 
-0.0332462 -0.00610096 0.999429 -0.0949458 -0.0532122 0.994059 -0.0836992 0.0362098 0.995833 
0.0529627 0.13775 0.98905 0.111266 0.066608 0.991556 0.0909274 -0.0373044 0.995159 
0.0829613 -0.0311625 0.996065 -0.11725 -0.135045 0.983878 -0.309935 -0.227824 0.923058 
-0.583721 -0.376968 0.719142 0.470948 -0.452518 0.757255 0.239385 -0.354696 0.903817 
0.11409 -0.320497 0.940354 0.0426439 -0.26621 0.962971 -0.0747311 -0.253224 0.964517 
-0.02454 -0.224839 0.974087 0.0366392 -0.140509 0.989401 0.0452151 -0.0843855 0.995407 
0.0144752 -0.142948 0.989624 0.0398035 -0.202036 0.978569 -0.0388924 -0.285165 0.957689 
-0.194181 -0.402168 0.894737 -0.435917 -0.515855 0.737475 0.19126 -0.690179 0.697906 
0.0843404 -0.617252 0.782232 0.026047 -0.550355 0.834524 0.0100786 -0.502903 0.864284 
0.0352979 -0.495334 0.867985 0.0455426 -0.472702 0.880045 0.00153385 -0.50456 0.863375 
-0.0763506 -0.528268 0.845638 -0.192097 -0.654091 0.731617 0.408398 0.46792 0.783749 
0.536625 0.782814 0.315019 0.199302 0.510176 0.83666 0.271724 0.664627 0.696015 
0.034559 0.512069 0.858249 0.0499523 0.602444 0.796596 -0.0484783 0.453701 0.889834 
-0.0420184 0.520895 0.852586 -0.169249 0.376401 0.910866 -0.174635 0.542259 0.821863 
-0.306795 0.587251 0.749009 -0.431352 0.643073 0.632766 0.440501 0.438845 0.783182 
0.454654 0.296724 0.839788 0.672378 0.637827 0.375614 -0.257729 0.248539 0.933705 
-0.262785 0.212804 0.941094 -0.27164 0.252712 0.928627 -0.343496 0.332371 0.878374 
-0.185245 0.504489 0.843312 0.0465875 0.67605 0.735381 0.238373 0.592315 0.769637 
0.12143 0.790496 0.600309 0.10169 0.696857 0.709964 0.067115 0.847393 0.526707 
-0.117462 0.683971 0.71999 -0.155751 0.844553 0.51232 -0.276239 0.697693 0.660997 
0.454573 0.296532 0.8399 -0.232438 0.0884921 0.968577 -0.244407 0.140003 0.959513 
-0.00736851 0.329657 0.944072 0.262451 0.536435 0.802096 0.284579 0.495786 0.820494 
0.263894 0.531657 0.804798 -0.436428 0.61421 0.657478 -0.565158 0.520089 0.640393 
-0.638907 0.648882 0.413219 0.443676 0.249985 0.860615 0.559543 0.291006 0.776033 
0.748439 0.431883 0.503305 -0.131264 0.205852 0.969739 -0.0494211 0.362018 0.93086 
-0.0640495 0.371059 0.926398 0.233491 0.345941 0.908739 0.195294 0.331976 0.92285 
0.217546 0.351132 0.910703 -0.768756 0.287462 0.571296 0.560919 0.271817 0.781975 
-0.687573 -0.00205603 0.726113 -0.97892 0.0434419 0.199571 0.642247 0.0427901 0.765303 
-0.735419 -0.111165 0.668432 0.592178 -0.000281046 0.805807 -0.779056 -0.235197 0.581167 
-0.70216 -0.340898 0.625108 0.635353 -0.106584 0.764831 0.586427 -0.328653 0.740332 
-0.668131 -0.373432 0.643545 -0.778132 -0.405714 0.479486 0.558998 -0.378001 0.737995 
0.634064 -0.421707 0.648171 -0.655153 -0.401529 0.63996 -0.622003 -0.456996 0.63582 
0.524895 -0.487889 0.697459 0.496927 -0.526983 0.689459 0.305626 -0.637867 0.706908 
-0.281437 -0.742728 0.607576 -0.545288 -0.571544 0.613188 -0.46989 -0.636577 0.611533 
-0.724255 -0.67478 0.141868 0.219879 -0.699203 0.680271 0.360886 -0.806778 0.467835 
0.19367 -0.707357 0.679808 0.116468 -0.730825 0.672555 0.0485381 -0.692217 0.720055 
0.00650849 -0.685766 0.727793 0.020646 -0.66147 0.749688 0.0402243 -0.696629 0.716303 
0.0038172 -0.713554 0.700589 -0.0967701 -0.751022 0.653147 -0.26575 -0.745584 0.611131 
-0.222531 -0.733371 0.642376 -0.302976 -0.810675 0.501011 0.0283167 -0.984115 0.175262 
-0.0824518 -0.984301 0.156056 0.53656 0.784828 0.310078 0.334965 0.893772 0.298279 
0.185482 0.924666 0.33255 0.0355118 0.92993 0.366018 0.0881651 0.990037 -0.109792 
-0.152503 0.885181 0.439542 -0.0679758 0.993537 -0.0909035 -0.313176 0.780504 0.541049 
-0.430485 0.668581 0.606368 0.53884 0.78319 0.310265 0.672359 0.664959 0.325213 
-0.434351 0.654491 0.618855 -0.244168 0.569784 0.784684 -0.409704 0.888577 0.206332 
0.00339634 0.731475 0.68186 0.0350075 0.864575 0.501282 0.0243272 0.937204 0.347933 
-0.158088 0.950291 0.268244 0.688006 0.647173 0.328353 -0.322876 0.924396 0.203083 
-0.35228 0.916743 0.188363 -0.693114 0.71518 0.0900565 0.815188 0.492383 0.305006 
0.82502 0.472539 0.309919 -0.763536 0.640962 0.0786113 0.852277 0.416163 0.316911 
-0.950984 0.30738 0.0338712 -0.988877 0.14731 0.0205563 0.932321 0.269307 0.241352 
-0.995676 -0.0893613 0.0253885 -0.986166 0.0424161 -0.160239 0.95894 0.135736 0.249019 
-0.985501 -0.165722 0.0363953 0.980994 -0.00837266 0.193859 -0.947751 -0.314571 0.0530433 
0.959176 -0.235833 0.15609 -0.907719 -0.415421 0.0589135 -0.872553 -0.486233 0.0472041 
0.876436 -0.462151 0.135193 0.764095 -0.63303 0.124223 -0.845976 -0.530901 0.0496934 
0.72588 -0.677773 0.117139 0.580324 -0.810615 0.0782761 -0.540025 -0.841219 0.0269054 
-0.736823 -0.675663 0.0239066 -0.722681 -0.690796 0.0230986 -0.718071 -0.688515 -0.101591 
0.478581 -0.875624 0.0651387 0.380197 -0.922574 0.0656303 0.208269 -0.975371 0.0726369 
0.135504 -0.989743 0.045252 0.0896501 -0.994929 0.0456057 0.068386 -0.995777 0.0612451 
0.072346 -0.989368 0.126166 -0.170163 -0.982522 0.0754641 -0.23284 -0.969941 0.070705 
-0.505906 -0.861778 0.0373878 -0.355212 -0.931705 0.0758282 0.0561526 -0.990334 0.126828 
0.0279628 -0.991269 0.128854 0.0288907 -0.99947 -0.0150108 -0.103066 -0.988072 0.11442 
-0.0870612 -0.988484 0.123774 -0.0869282 -0.995742 0.0306958 0.0924695 0.982968 -0.158821 
-0.0673669 0.99326 -0.0943213 0.540943 0.80575 -0.241137 0.359341 0.896784 -0.258173 
0.100561 0.982254 -0.15832 0.232661 0.958908 -0.162372 0.0925739 0.981214 -0.16926 
-0.068882 0.993192 -0.093946 -0.067288 0.993111 -0.0959348 -0.217372 0.974575 -0.0543384 
-0.364363 0.931001 0.0218519 -0.398896 0.908279 0.126139 0.551827 0.798055 -0.242065 
0.709284 0.662349 -0.241266 0.540568 0.792442 -0.282529 0.344012 0.729762 -0.590849 
-0.362969 0.921 0.14147 -0.385555 0.921802 -0.0403596 -0.210119 0.968026 0.137026 
-0.109613 0.993591 0.0276056 -0.140407 0.988425 -0.0574602 -0.291684 0.933662 -0.207834 
0.742168 0.624842 -0.242404 0.694445 0.599499 -0.397929 0.437918 0.483157 -0.758148 
-0.454687 0.853499 -0.254557 -0.314715 0.779824 -0.541137 -0.50639 0.809266 -0.297754 
-0.658392 0.598104 -0.456937 0.809805 0.51428 -0.282368 0.833226 0.481458 -0.271905 
0.592498 0.326486 -0.736446 -0.666938 0.590595 -0.454302 -0.656043 0.589312 -0.471508 
0.896539 0.331093 -0.29427 0.74324 0.303188 -0.596382 -0.82794 0.253358 -0.500324 
-0.635208 0.25233 -0.729959 0.902541 0.217449 -0.371667 0.631964 0.180571 -0.753668 
-0.822081 0.024532 -0.568841 -0.598619 0.0605977 -0.798739 0.917734 0.0793023 -0.389198 
-0.843237 -0.109587 -0.526253 -0.654803 -0.0820974 -0.751328 0.888419 -0.0709597 -0.453515 
-0.848955 -0.247757 -0.466788 -0.691832 -0.23023 -0.68437 0.828214 -0.243251 -0.504867 
0.595077 -0.253995 -0.762476 -0.521333 -0.27296 -0.80852 -0.79249 -0.407201 -0.454034 
-0.786301 -0.416409 -0.456437 -0.777935 -0.407641 -0.47817 0.787134 -0.419419 -0.452225 
0.72137 -0.495743 -0.483596 0.693527 -0.42005 -0.585303 -0.740684 -0.486424 -0.463442 
-0.648875 -0.5973 -0.471374 -0.595476 -0.422298 -0.683427 0.615426 -0.623524 -0.48215 
0.515029 -0.714735 -0.473179 0.456941 -0.58491 -0.670138 0.246297 -0.498738 -0.831023 
-0.208993 -0.436756 -0.874966 -0.590783 -0.651034 -0.476581 -0.527944 -0.698606 -0.482934 
-0.460407 -0.578843 -0.673027 0.391697 -0.774116 -0.497311 0.387604 -0.775308 -0.498658 
0.387391 -0.772106 -0.503766 0.181303 -0.847142 -0.49948 0.163902 -0.735263 -0.657666 
0.0930046 -0.846213 -0.524665 0.0466822 -0.700673 -0.711954 0.0852359 -0.83211 -0.548021 
0.0655827 -0.654017 -0.753631 0.111064 -0.848654 -0.517156 0.109902 -0.602054 -0.790855 
0.104827 -0.887957 -0.44782 0.12043 -0.537498 -0.834621 0.0309079 -0.911286 -0.410612 
0.0521052 -0.502831 -0.862813 -0.0760407 -0.910489 -0.406483 -0.0535965 -0.530612 -0.845919 
-0.177165 -0.894213 -0.411092 -0.15035 -0.576431 -0.803195 -0.248062 -0.851414 -0.462124 
-0.218431 -0.686518 -0.693528 -0.410289 -0.7876 -0.459728 -0.355705 -0.818925 -0.450373 
-0.345819 -0.772329 -0.532839 0.279833 0.659934 -0.697267 0.106251 0.754782 -0.647314 
-0.0471377 0.776013 -0.628953 -0.175371 0.734211 -0.655881 -0.268511 0.718205 -0.641938 
0.308681 0.630219 -0.712418 0.32346 0.594894 -0.73585 0.272158 0.573875 -0.772397 
0.139171 0.548504 -0.824485 -0.0280961 0.560376 -0.827762 -0.169761 0.587327 -0.791346 
-0.26768 0.731218 -0.62743 -0.260858 0.658505 -0.705921 -0.226904 0.731538 -0.642936 
-0.166496 0.800123 -0.576265 -0.17211 0.788836 -0.590013 -0.210024 0.697839 -0.68477 
0.431134 0.477581 -0.765532 0.433472 0.473295 -0.766872 0.27724 0.358038 -0.891598 
0.202962 0.25173 -0.946276 0.0750903 0.18848 -0.979202 -0.0584345 0.157971 -0.985713 
-0.141854 0.171593 -0.974902 -0.140663 0.260014 -0.955304 -0.0846968 0.427788 -0.899902 
-0.0861583 0.585391 -0.80616 -0.157529 0.653558 -0.740302 -0.235156 0.68189 -0.692623 
-0.20924 0.664745 -0.71717 -0.294486 0.58637 -0.754618 -0.501881 0.364587 -0.784342 
0.524653 0.284944 -0.802214 0.504074 0.273158 -0.819326 0.345129 0.209876 -0.914788 
0.1814 0.128126 -0.975027 0.0688011 0.0100121 -0.99758 0.0681937 -0.0667674 -0.995435 
-0.0289633 -0.0476565 -0.998444 -0.120441 0.00653175 -0.992699 -0.0350209 0.0487099 -0.998199 
0.0536097 0.166675 -0.984553 0.00343932 0.193018 -0.981189 -0.0982612 0.207992 -0.973182 
-0.216325 0.281711 -0.934795 -0.269696 0.285351 -0.919695 -0.502051 0.36178 -0.785532 
-0.500044 0.360441 -0.787425 0.495755 0.258433 -0.82912 0.402285 0.229782 -0.886209 
0.206099 0.116846 -0.97153 0.0948043 -0.00452157 -0.995486 0.0102346 -0.0370608 -0.999261 
0.0132286 -0.120305 -0.992649 0.0138712 -0.146291 -0.989144 -0.0449124 0.0159178 -0.998864 
0.0265326 0.0837111 -0.996137 0.0703455 -0.00856583 -0.997486 0.00699092 -0.0353322 -0.999351 
-0.0661151 0.00272364 -0.997808 -0.153331 0.0719589 -0.985551 -0.213293 0.129333 -0.96839 
-0.464576 0.181144 -0.866808 -0.399792 0.157567 -0.902961 0.58638 0.174598 -0.790995 
0.598085 0.131541 -0.790564 0.363736 0.0593165 -0.929612 0.131327 0.042139 -0.990443 
0.0216986 -0.00730415 -0.999738 -0.0427461 -0.032668 -0.998552 -0.0403397 -0.034161 -0.998602 
0.103974 0.117036 -0.98767 0.122591 -0.0121649 -0.992383 -0.0640146 0.0626861 -0.995978 
-0.0724523 -0.0373278 -0.996673 0.0151695 -0.0666444 -0.997661 0.00746305 -0.0233121 -0.9997 
-0.0826382 0.0342615 -0.995991 -0.188029 0.0609963 -0.980268 -0.514601 0.0685411 -0.854686 
-0.353241 0.0381757 -0.934753 0.589477 0.0300985 -0.807224 0.547213 0.0255402 -0.836603 
0.275629 -0.027737 -0.960864 0.16389 -0.0616699 -0.984549 0.0222973 -0.052742 -0.998359 
-0.016156 -0.0498338 -0.998627 0.159708 -0.00203179 -0.987162 -0.12719 -0.111075 -0.985639 
0.00575553 0.0345724 -0.999386 -0.0503321 0.06356 -0.996708 0.0242587 -0.0100613 -0.999655 
0.0332144 -0.010997 -0.999388 -0.0713824 -0.0105002 -0.997394 -0.207887 -0.0166497 -0.978011 
-0.528148 -0.0704132 -0.846228 -0.38258 -0.0415251 -0.922989 0.553199 -0.138336 -0.821483 
0.548952 -0.146285 -0.822953 0.54908 -0.138425 -0.824227 0.28619 -0.109384 -0.951909 
0.117188 -0.118442 -0.986022 0.0345261 -0.0867976 -0.995628 0.00770374 -0.0507488 -0.998682 
0.116957 -0.0574913 -0.991472 0.0178243 -0.190023 -0.981618 0.0375498 0.0706386 -0.996795 
0.10759 0.0157379 -0.994071 -0.128655 -0.115138 -0.984983 -0.0543955 -0.061496 -0.996624 
0.00654692 -0.0593393 -0.998216 -0.0875429 -0.0934073 -0.991772 -0.2189 -0.111938 -0.969305 
-0.498046 -0.197638 -0.844328 -0.483826 -0.239941 -0.84163 -0.405724 -0.174125 -0.897256 
0.378777 -0.157105 -0.912056 0.286528 -0.0991189 -0.952931 0.162947 -0.118416 -0.979503 
0.088524 -0.120855 -0.988715 0.0146623 -0.106622 -0.994192 0.0280567 -0.106302 -0.993938 
0.134849 -0.22323 -0.965393 0.0930217 -0.0939586 -0.991221 -0.161073 -0.24672 -0.955607 
-0.10376 -0.223323 -0.969206 0.0661064 -0.128215 -0.989541 0.00324206 -0.152403 -0.988313 
-0.122525 -0.195425 -0.973035 -0.47975 -0.260815 -0.837745 -0.289883 -0.219797 -0.931481 
0.426538 -0.315015 -0.847839 0.383869 -0.348242 -0.855203 0.364897 -0.285753 -0.886113 
0.186754 -0.404569 -0.895236 0.127677 -0.270576 -0.954195 0.0511833 -0.205946 -0.977224 
0.0222415 -0.209637 -0.977526 -0.00243046 -0.216226 -0.97634 0.0311998 -0.250724 -0.967556 
0.0446248 -0.299662 -0.953001 -0.0335428 -0.238375 -0.970594 -0.0204262 -0.101597 -0.994616 
0.0215143 -0.151074 -0.988288 -0.0649492 -0.250752 -0.96587 -0.1973 -0.399125 -0.895417 
-0.182545 -0.293599 -0.938337 -0.326602 -0.35363 -0.876514 -0.317955 -0.365797 -0.874698 
-0.309273 -0.350165 -0.884158 0.18295 -0.432438 -0.882908 0.170175 -0.437448 -0.882995 
0.169151 -0.422415 -0.890479 0.0191956 -0.455564 -0.889996 0.0120372 -0.389307 -0.92103 
-0.0118955 -0.413021 -0.910644 -0.0207393 -0.384998 -0.922684 0.0655877 -0.385356 -0.920434 
0.0493375 -0.335846 -0.940624 0.0901174 -0.392874 -0.915166 0.0688357 -0.315105 -0.946557 
0.0588099 -0.420235 -0.905507 0.0623629 -0.272359 -0.960173 -0.0429902 -0.448209 -0.892895 
-0.00508791 -0.229237 -0.973357 -0.130676 -0.420269 -0.897941 -0.102932 -0.301045 -0.948039 
-0.170344 -0.413355 -0.894495 -0.150758 -0.434228 -0.888098 -0.139509 -0.393417 -0.908713 
0.0637398 0.114116 -0.991421 0.0666667 0.107655 -0.991951 0.048852 0.098941 -0.993893 
0.0566447 0.0785862 -0.995297 0.0603875 0.112156 -0.991854 
