# vtk DataFile Version 4.2
vtk output
ASCII
DATASET POLYDATA
POINTS 555 float
-40.9636 5.01849 -23.5683 -31.9129 -49.2856 -15.1355 -22.8622 -49.2856 -16.9397 
-13.8116 -49.2856 -17.4916 -4.76087 -49.2856 -16.5605 4.28981 -49.2856 -14.2693 
-40.9636 -40.2349 -16.3732 -31.9129 -40.2349 -18.6771 -22.8622 -40.2349 -19.8451 
-13.8116 -40.2349 -19.6853 -4.76087 -40.2349 -18.8348 4.28981 -40.2349 -18.3597 
13.3405 -40.2349 -17.4659 22.3912 -40.2349 -16.1738 -50.0143 -31.1842 -16.2718 
-40.9636 -31.1842 -18.7182 -31.9129 -31.1842 -19.6625 -22.8622 -31.1842 -20.8896 
-13.8116 -31.1842 -20.6174 -4.76087 -31.1842 -20.0488 4.28981 -31.1842 -19.581 
13.3405 -31.1842 -19.9606 22.3912 -31.1842 -20.2444 31.4419 -31.1842 -18.2138 
40.4925 -31.1842 -14.9024 -50.0143 -22.1336 -18.7761 -40.9636 -22.1336 -19.9152 
-31.9129 -22.1336 -20.2649 -22.8622 -22.1336 -19.8512 -13.8116 -22.1336 -20.1812 
-4.76087 -22.1336 -19.7736 4.28981 -22.1336 -19.723 13.3405 -22.1336 -20.8454 
22.3912 -22.1336 -21.0042 31.4419 -22.1336 -20.4861 40.4925 -22.1336 -19.1241 
49.5432 -22.1336 -16.8002 -59.065 -13.0829 -17.1219 -50.0143 -13.0829 -20.6521 
-40.9636 -13.0829 -20.8666 -31.9129 -13.0829 -20.0894 -22.8622 -13.0829 -18.6706 
-13.8116 -13.0829 -19.3584 -4.76087 -13.0829 -20.2946 4.28981 -13.0829 -20.4177 
13.3405 -13.0829 -19.4895 22.3912 -13.0829 -19.6212 31.4419 -13.0829 -20.4746 
40.4925 -13.0829 -20.7483 49.5432 -13.0829 -19.9088 58.5939 -13.0829 -17.1185 
-59.065 -4.03219 -19.2327 -50.0143 -4.03219 -21.6199 -40.9636 0.782786 -23.1404 
-40.9636 -4.03219 -22.6532 -31.9129 -4.03219 -21.3816 -22.8622 -4.03219 -19.7058 
-13.8116 -4.03219 -21.7498 -4.76087 -4.03219 -19.4713 4.28981 -4.03219 -20.7281 
13.3405 -4.03219 -19.8555 22.3912 -4.03219 -18.9092 31.4419 -4.03219 -20.728 
40.4925 -4.03219 -21.2931 49.5432 -4.03219 -20.514 58.5939 -4.03219 -17.7624 
-59.065 5.01849 -19.7473 -43.7174 5.01849 -23.1404 -50.0143 5.01849 -22.2645 
-37.9136 5.01849 -23.1404 -40.9636 11.167 -23.1404 -31.9129 5.01849 -22.2328 
-22.8622 5.01849 -20.2515 -13.8116 5.01849 -20.6591 -4.76087 5.01849 -20.3833 
4.28981 5.01849 -20.4365 13.3405 5.01849 -20.2424 22.3912 5.01849 -19.4221 
31.4419 5.01849 -20.0169 40.4925 5.01849 -19.8242 49.5432 5.01849 -19.2248 
58.5939 5.01849 -17.191 -59.065 14.0692 -18.167 -50.0143 14.0692 -22.6636 
-40.9636 14.0692 -22.9366 -31.9129 14.0692 -21.8286 -22.8622 14.0692 -20.1731 
-13.8116 14.0692 -18.2277 -4.76087 14.0692 -20.1632 4.28981 14.0692 -18.5997 
13.3405 14.0692 -18.3701 22.3912 14.0692 -19.2897 31.4419 14.0692 -18.9258 
40.4925 14.0692 -17.994 49.5432 14.0692 -16.1199 -59.065 23.1199 -15.5277 
-50.0143 23.1199 -19.8215 -40.9636 23.1199 -21.2229 -31.9129 23.1199 -21.5776 
-22.8622 23.1199 -20.0975 -13.8116 23.1199 -18.9043 -4.76087 23.1199 -19.1147 
4.28981 23.1199 -18.1374 13.3405 23.1199 -18.5054 22.3912 23.1199 -18.9346 
31.4419 23.1199 -17.9793 40.4925 23.1199 -16.0671 -50.0143 32.1705 -16.3276 
-40.9636 32.1705 -19.0696 -31.9129 32.1705 -19.83 -22.8622 32.1705 -19.394 
-13.8116 32.1705 -19.1716 -4.76087 32.1705 -18.6414 4.28981 32.1705 -17.8713 
13.3405 32.1705 -17.6603 22.3912 32.1705 -17.5275 31.4419 32.1705 -16.6984 
-40.9636 41.2212 -14.9112 -31.9129 41.2212 -16.8082 -22.8622 41.2212 -16.5574 
-13.8116 41.2212 -16.7029 -4.76087 41.2212 -16.4532 4.28981 41.2212 -15.6204 
13.3405 41.2212 -14.8773 22.3912 41.2212 -15.2428 -31.9129 -50.4039 -14.0897 
-22.8622 -53.9597 -14.0897 -13.8116 -53.6735 -14.0897 -13.8116 -58.3363 -5.31073 
-4.76087 -53.1777 -14.0897 4.28981 -49.5252 -14.0897 -34.9255 -49.2856 -14.0897 
-40.9636 -45.8277 -14.0897 -40.9636 -49.2856 -9.10533 4.93684 -49.2856 -14.0897 
13.3405 -45.6659 -14.0897 13.3405 -49.2856 -9.96921 22.3912 -42.5936 -14.0897 
-46.9376 -40.2349 -14.0897 -50.0143 -36.2642 -14.0897 -50.0143 -40.2349 -10.1963 
27.438 -40.2349 -14.0897 31.4419 -37.9423 -14.0897 31.4419 -40.2349 -11.7022 
40.4925 -32.2487 -14.0897 -52.8161 -31.1842 -14.0897 42.0131 -31.1842 -14.0897 
49.5432 -25.9741 -14.0897 49.5432 -31.1842 -6.1811 -58.4543 -22.1336 -14.0897 
-59.065 -20.9997 -14.0897 -59.065 -22.1336 -12.9742 55.3154 -22.1336 -14.0897 
58.5939 -18.7846 -14.0897 58.5939 -22.1336 -11.1961 -63.203 -13.0829 -14.0897 
63.4927 -13.0829 -14.0897 67.6446 -13.0829 -10.4622 -66.5706 -4.03219 -14.0897 
67.3358 -4.03219 -14.0897 67.6446 -4.03219 -13.8894 -66.7974 5.01849 -14.0897 
-68.1157 5.01849 -6.58592 66.1997 5.01849 -14.0897 58.5939 11.4904 -14.0897 
67.6446 5.01849 -13.1449 -65.0034 14.0692 -14.0897 55.0802 14.0692 -14.0897 
49.5432 19.118 -14.0897 58.5939 14.0692 -12.6815 67.6446 14.0692 -7.52198 
-60.2878 23.1199 -14.0897 -59.065 25.1477 -14.0897 45.4594 23.1199 -14.0897 
40.4925 29.2327 -14.0897 49.5432 23.1199 -12.3876 58.5939 23.1199 -8.74902 
-53.5092 32.1705 -14.0897 -59.065 32.1705 -5.14024 -50.0143 36.2865 -14.0897 
38.0429 32.1705 -14.0897 31.4419 38.8824 -14.0897 40.4925 32.1705 -13.0777 
49.5432 32.1705 -8.70077 -43.1053 41.2212 -14.0897 -50.0143 41.2212 -8.7793 
-40.9636 42.4046 -14.0897 -31.9129 45.1968 -14.0897 -22.8622 44.9415 -14.0897 
-13.8116 45.1183 -14.0897 -4.76087 44.7085 -14.0897 4.28981 43.4905 -14.0897 
13.3405 42.3808 -14.0897 27.6085 41.2212 -14.0897 22.3912 43.0137 -14.0897 
31.4419 41.2212 -12.8989 40.4925 41.2212 -9.40437 -31.9129 50.2719 -8.51167 
-22.8622 50.2719 -9.21737 -13.8116 50.2719 -8.96367 -4.76087 50.2719 -8.26691 
4.28981 50.2719 -6.21376 -13.8116 -58.4492 -5.03899 -40.9636 -50.6203 -5.03899 
-31.9129 -55.3558 -5.03899 -15.276 -58.3363 -5.03899 -22.8622 -57.7321 -5.03899 
-12.3141 -58.3363 -5.03899 -13.8116 -58.3363 -4.68476 -4.76087 -57.7442 -5.03899 
4.28981 -55.2039 -5.03899 13.3405 -52.1764 -5.03899 -42.8605 -49.2856 -5.03899 
-50.0143 -42.624 -5.03899 -40.9636 -49.2856 -1.02081 21.4753 -49.2856 -5.03899 
22.3912 -48.9367 -5.03899 22.3912 -49.2856 3.58766 31.4419 -44.3381 -5.03899 
-51.8216 -40.2349 -5.03899 -50.0143 -40.2349 0.30614 37.7194 -40.2349 -5.03899 
40.4925 -38.2335 -5.03899 49.5432 -31.8045 -5.03899 -57.4517 -31.1842 -5.03899 
-59.065 -28.0889 -5.03899 50.5817 -31.1842 -5.03899 58.5939 -26.1549 -5.03899 
-61.892 -22.1336 -5.03899 -59.065 -22.1336 1.29697 64.5035 -22.1336 -5.03899 
67.6446 -19.0206 -5.03899 -65.7274 -13.0829 -5.03899 71.2458 -13.0829 -5.03899 
-67.7228 -4.03219 -5.03899 -68.1157 2.01077 -5.03899 74.1863 -4.03219 -5.03899 
-68.3081 5.01849 -5.03899 -68.1157 6.21895 -5.03899 -68.1157 5.01849 -4.4303 
74.6453 5.01849 -5.03899 76.6953 5.01849 3.47671 -66.8061 14.0692 -5.03899 
70.0105 14.0692 -5.03899 67.6446 17.6253 -5.03899 -64.0934 23.1199 -5.03899 
63.1903 23.1199 -5.03899 58.5939 28.3686 -5.03899 67.6446 23.1199 2.3855 
-59.1066 32.1705 -5.03899 -59.065 32.2392 -5.03899 -59.065 32.1705 -4.44723 
54.018 32.1705 -5.03899 49.5432 36.3892 -5.03899 58.5939 32.1705 0.172685 
-52.4035 41.2212 -5.03899 -50.0143 43.5532 -5.03899 -40.9636 49.4337 -5.03899 
13.3405 49.9422 -5.03899 22.3912 48.9759 -5.03899 31.4419 47.3232 -5.03899 
45.1013 41.2212 -5.03899 40.4925 44.2765 -5.03899 -38.7093 50.2719 -5.03899 
-40.9636 50.2719 3.92382 -31.9129 52.4073 -5.03899 -22.8622 52.9627 -5.03899 
-13.8116 52.5523 -5.03899 -4.76087 52.0064 -5.03899 10.1846 50.2719 -5.03899 
4.28981 50.8482 -5.03899 4.28981 50.2719 -2.25747 -31.9129 -52.3031 4.01169 
-22.8622 -53.5396 4.01169 -13.8116 -54.444 4.01169 -4.76087 -54.7024 4.01169 
4.28981 -53.6617 4.01169 13.3405 -52.1973 4.01169 22.3912 -49.3003 4.01169 
-37.888 -49.2856 4.01169 -40.9636 -46.879 4.01169 -31.9129 -49.2856 7.59143 
-22.8622 -49.2856 8.42499 -13.8116 -49.2856 9.41786 -4.76087 -49.2856 8.9852 
4.28981 -49.2856 9.31704 13.3405 -49.2856 9.48837 22.4275 -49.2856 4.01169 
22.3912 -49.2856 4.05256 31.4419 -45.4296 4.01169 -48.0835 -40.2349 4.01169 
-50.0143 -37.8454 4.01169 -40.9636 -40.2349 10.2846 39.4986 -40.2349 4.01169 
40.4925 -39.515 4.01169 49.5432 -32.5287 4.01169 -53.7249 -31.1842 4.01169 
-50.0143 -31.1842 7.98732 51.5336 -31.1842 4.01169 49.5432 -31.1842 7.30832 
58.5939 -26.2304 4.01169 -57.5074 -22.1336 4.01169 -59.065 -18.814 4.01169 
-50.0143 -22.1336 11.3973 65.1225 -22.1336 4.01169 58.5939 -22.1336 11.3517 
67.6446 -19.9001 4.01169 -61.4062 -13.0829 4.01169 -59.065 -13.0829 6.59486 
71.9192 -13.0829 4.01169 67.6446 -13.0829 11.2138 -63.9966 -4.03219 4.01169 
-59.065 -4.03219 9.79302 76.5266 -4.03219 4.01169 76.6953 1.84802 4.01169 
-64.8877 5.01849 4.01169 -59.065 5.01849 11.2782 76.6953 5.31094 4.01169 
76.6953 5.01849 4.25893 -65.0688 14.0692 4.01169 -59.065 14.0692 12.2087 
73.7089 14.0692 4.01169 -62.1606 23.1199 4.01169 -59.065 30.8017 4.01169 
-59.065 23.1199 9.53994 68.4896 23.1199 4.01169 67.6446 24.1118 4.01169 
67.6446 23.1199 7.07185 -58.4608 32.1705 4.01169 49.5432 41.1665 4.01169 
60.7327 32.1705 4.01169 58.5939 34.2857 4.01169 58.5939 32.1705 12.03 
-52.9068 41.2212 4.01169 -50.0143 44.0682 4.01169 -50.0143 41.2212 9.45279 
4.28981 48.5757 4.01169 4.28981 41.2212 10.9717 13.3405 47.6058 4.01169 
13.3405 41.2212 10.4151 22.3912 46.9832 4.01169 22.3912 41.2212 11.5709 
31.4419 46.7737 4.01169 49.44 41.2212 4.01169 40.4925 45.3613 4.01169 
40.4925 41.2212 10.3783 -40.9776 50.2719 4.01169 -40.9636 50.2793 4.01169 
-40.9636 50.2719 4.03196 -31.9129 52.8469 4.01169 -31.9129 50.2719 11.0668 
-22.8622 53.5227 4.01169 -22.8622 50.2719 10.4789 -13.8116 52.3142 4.01169 
-13.8116 50.2719 7.55809 -2.45739 50.2719 4.01169 -4.76087 50.7323 4.01169 
-4.76087 50.2719 4.7667 -31.9129 -40.3012 13.0624 -22.8622 -41.9195 13.0624 
-13.8116 -42.3481 13.0624 -4.76087 -41.7451 13.0624 4.28981 -44.6382 13.0624 
13.3405 -46.5626 13.0624 22.3912 -45.7268 13.0624 31.4419 -43.0352 13.0624 
-32.0722 -40.2349 13.0624 -40.9636 -34.8252 13.0624 -31.9129 -40.2349 13.0998 
-22.8622 -40.2349 13.935 -13.8116 -40.2349 13.8642 -4.76087 -40.2349 13.8117 
4.28981 -40.2349 15.7984 13.3405 -40.2349 18.0167 22.3912 -40.2349 18.7071 
35.98 -40.2349 13.0624 31.4419 -40.2349 16.225 40.4925 -36.4376 13.0624 
-43.0993 -31.1842 13.0624 -40.9636 -31.1842 14.4151 -31.9129 -31.1842 17.8005 
[...]
POINT_DATA 555
SCALARS ImageScalars float
LOOKUP_TABLE default
0 0 0 0 0 0 0 0 0 
0 0 0 0 0 0 0 0 0 
0 0 0 0 0 0 0 0 0 
0 0 0 0 0 0 0 0 0 
0 0 0 0 0 0 0 0 0 
0 0 0 0 0 0 0 0 0 
0 0 0 0 0 0 0 0 0 
0 0 0 0 0 0 0 0 0 
0 0 0 0 0 0 0 0 0 
0 0 0 0 0 0 0 0 0 
0 0 0 0 0 0 0 0 0 
0 0 0 0 0 0 0 0 0 
0 0 0 0 0 0 0 0 0 
0 0 0 0 0 0 0 0 0 
0 0 0 0 0 0 0 0 0 
0 0 0 0 0 0 0 0 0 
0 0 0 0 0 0 0 0 0 
0 0 0 0 0 0 0 0 0 
0 0 0 0 0 0 0 0 0 
0 0 0 0 0 0 0 0 0 
0 0 0 0 0 0 0 0 0 
0 0 0 0 0 0 0 0 0 
0 0 0 0 0 0 0 0 0 
0 0 0 0 0 0 0 0 0 
0 0 0 0 0 0 0 0 0 
0 0 0 0 0 0 0 0 0 
0 0 0 0 0 0 0 0 0 
0 0 0 0 0 0 0 0 0 
0 0 0 0 0 0 0 0 0 
0 0 0 0 0 0 0 0 0 
0 0 0 0 0 0 0 0 0 
0 0 0 0 0 0 0 0 0 
0 0 0 0 0 0 0 0 0 
0 0 0 0 0 0 0 0 0 
0 0 0 0 0 0 0 0 0 
0 0 0 0 0 0 0 0 0 
0 0 0 0 0 0 0 0 0 
0 0 0 0 0 0 0 0 0 
0 0 0 0 0 0 0 0 0 
0 0 0 0 0 0 0 0 0 
0 0 0 0 0 0 0 0 0 
0 0 0 0 0 0 0 0 0 
0 0 0 0 0 0 0 0 0 
0 0 0 0 0 0 0 0 0 
0 0 0 0 0 0 0 0 0 
0 0 0 0 0 0 0 0 0 
0 0 0 0 0 0 0 0 0 
0 0 0 0 0 0 0 0 0 
0 0 0 0 0 0 0 0 0 
0 0 0 0 0 0 0 0 0 
0 0 0 0 0 0 0 0 0 
0 0 0 0 0 0 0 0 0 
0 0 0 0 0 0 0 0 0 
0 0 0 0 0 0 0 0 0 
0 0 0 0 0 0 0 0 0 
0 0 0 0 0 0 0 0 0 
0 0 0 0 0 0 0 0 0 
0 0 0 0 0 0 0 0 0 
0 0 0 0 0 0 0 0 0 
0 0 0 0 0 0 0 0 0 
0 0 0 0 0 0 0 0 0 
0 0 0 0 0 0 
NORMALS Normals float
0.00760688 0.0165601 0.999834 0.262521 0.581326 0.770157 0.102887 0.462759 0.880493 
-0.0217055 0.449598 0.892967 -0.175897 0.426807 0.887072 -0.256091 0.585678 0.769024 
0.296782 0.312601 0.902331 0.205052 0.19507 0.959115 0.0485346 0.208411 0.976836 
-0.0545729 0.17529 0.983003 -0.0737485 0.191355 0.978746 -0.0710102 0.269743 0.960311 
-0.110014 0.408658 0.906033 -0.239301 0.571555 0.784895 0.466326 0.371115 0.803003 
0.150734 0.211549 0.965674 0.11237 0.0807546 0.99038 0.0528151 0.00332219 0.998599 
-0.0449998 0.0263255 0.99864 -0.0579905 0.0495775 0.997085 -0.00420895 0.0781744 0.996931 
0.0349904 0.176827 0.98362 -0.0904368 0.222252 0.970786 -0.260546 0.371772 0.891012 
-0.400133 0.553624 0.730338 0.263777 0.191417 0.9454 0.0839014 0.106691 0.990746 
-0.00129991 0.0235499 0.999722 -0.00493237 -0.120896 0.992653 -0.00433581 -0.0676482 0.9977 
-0.0246442 0.0132621 0.999608 0.0598116 0.0455332 0.997171 0.0704349 -0.0230084 0.997251 
-0.0187622 -0.0382462 0.999092 -0.104367 0.120141 0.987256 -0.189437 0.282161 0.940478 
-0.327208 0.456189 0.827542 0.525716 0.28183 0.802617 0.193402 0.186914 0.96315 
-0.0320029 0.155918 0.987251 -0.120829 0.0614698 0.990768 -0.0431064 -0.0120305 0.998998 
0.0927599 0.0666371 0.993456 0.0560438 -0.00645268 0.998407 -0.0435278 0.0528675 0.997652 
-0.0439162 -0.061796 0.997122 0.0540457 -0.111776 0.992263 0.0616231 0.0133641 0.99801 
-0.0294761 0.119312 0.992419 -0.171196 0.193415 0.966065 -0.420353 0.257322 0.870108 
0.436445 0.137156 0.889215 0.177137 0.0828394 0.980694 0.00205959 0.0798115 0.996808 
-0.0070801 0.145592 0.989319 -0.154607 0.113166 0.981474 -0.000367894 0.0912773 0.995825 
0.00964127 0.0854292 0.996298 -0.0617246 -0.00050047 0.998093 0.0217503 0.00233847 0.999761 
-0.101588 0.0470633 0.993713 0.0642308 -0.0116942 0.997867 0.123884 -0.0251432 0.991978 
-0.0102244 -0.0518932 0.9986 -0.189986 -0.0284215 0.981375 -0.354155 -0.0029985 0.935182 
0.452128 -0.0499532 0.890553 0.0687287 0.0325684 0.997104 0.189619 0.0552063 0.980305 
-0.0593401 0.0195392 0.998047 -0.031697 -0.0838693 0.995973 -0.182415 0.0252499 0.982897 
-0.0832304 0.024406 0.996231 0.0104634 -0.207247 0.978233 -0.0116609 0.0323509 0.999409 
-0.00825896 -0.11277 0.993587 -0.0589292 -0.0937779 0.993848 -0.00960172 0.0189599 0.999774 
0.0219609 -0.100029 0.994742 -0.0389603 -0.176166 0.983589 -0.151243 -0.243213 0.958109 
-0.295569 -0.247208 0.922782 0.523196 -0.195855 0.829401 0.222792 -0.112148 0.968394 
-0.0481515 -0.127983 0.990607 -0.151304 -0.0342122 0.987895 -0.196877 -0.00834121 0.980393 
-0.0111646 -0.0755649 0.997078 0.0323043 -0.073132 0.996799 -0.0962204 -0.127141 0.987207 
0.0404317 -0.0910863 0.995022 0.030188 -0.02682 0.999184 -0.0667369 -0.110516 0.991631 
-0.15383 -0.204865 0.966626 -0.261537 -0.327445 0.907953 0.649051 -0.396448 0.649278 
0.238692 -0.326345 0.914618 0.0870662 -0.196999 0.97653 -0.0613074 -0.115691 0.991391 
-0.146397 -0.0418951 0.988338 -0.0525117 0.0512535 0.997304 -0.0420458 -0.0787893 0.996004 
-0.0337003 -0.0379704 0.99871 0.0445757 -0.0383502 0.99827 -0.0277464 -0.0944188 0.995146 
-0.151291 -0.11777 0.981448 -0.279292 -0.24353 0.928811 0.40966 -0.414295 0.812735 
0.18537 -0.336817 0.923142 0.0136656 -0.250406 0.968045 -0.0374531 -0.174874 0.983878 
-0.0427174 -0.100742 0.993995 -0.0712034 -0.124709 0.989635 -0.0549026 -0.117422 0.991563 
-0.0195329 -0.180155 0.983444 -0.0488554 -0.201167 0.978338 -0.228164 -0.25205 0.940432 
0.273838 -0.519163 0.809619 0.0813822 -0.465013 0.881555 -0.00707111 -0.435857 0.899988 
-0.00482621 -0.407079 0.91338 -0.0524485 -0.424173 0.904061 -0.0772631 -0.418437 0.904953 
-0.0157853 -0.455742 0.889972 -0.0914512 -0.448548 0.889068 0.288617 0.634992 0.716579 
0.121891 0.692292 0.711248 -0.0284377 0.687009 0.726092 -0.00022721 0.998036 0.0626359 
-0.172588 0.634969 0.753012 -0.259089 0.595415 0.760496 0.342851 0.625547 0.700817 
0.409767 0.54169 0.733937 0.543213 0.794355 0.271881 -0.259738 0.594695 0.760838 
-0.235411 0.58327 0.777417 -0.315935 0.794183 0.519093 -0.280641 0.65385 0.702653 
0.515639 0.452722 0.727433 0.568688 0.473635 0.672506 0.737186 0.57126 0.360858 
-0.3292 0.636037 0.697915 -0.357575 0.602066 0.713902 -0.410414 0.703575 0.580122 
-0.419911 0.587084 0.692104 0.586594 0.438353 0.680995 -0.419612 0.590085 0.689729 
-0.402598 0.588585 0.701058 -0.515247 0.808862 0.283307 0.724094 0.364183 0.585712 
0.727836 0.369774 0.577514 0.787337 0.382668 0.483389 -0.442079 0.541672 0.714953 
-0.482085 0.469814 0.739506 -0.530701 0.642876 0.552329 0.727751 0.356275 0.586043 
-0.546318 0.316902 0.775312 -0.719742 0.376815 0.58308 0.857028 0.141003 0.495601 
-0.592429 0.0785885 0.801781 -0.604917 0.0807769 0.792181 0.867785 -0.0545283 0.49394 
0.998772 -0.0486648 -0.00929748 -0.539198 -0.276394 0.795533 -0.356152 -0.369862 0.858113 
-0.59613 -0.270953 0.755787 0.790786 -0.302611 0.532056 -0.341099 -0.377324 0.860975 
-0.320198 -0.308319 0.895775 -0.38861 -0.404389 0.82792 -0.615581 -0.454034 0.644138 
0.702114 -0.421109 0.574198 0.68252 -0.433752 0.58824 -0.327936 -0.270215 0.90523 
-0.311335 -0.25862 0.914432 -0.367644 -0.313382 0.875574 -0.476305 -0.464405 0.746633 
0.542916 -0.461575 0.701563 0.839055 -0.523034 0.149741 0.46073 -0.516373 0.721863 
-0.298497 -0.264487 0.917031 -0.232115 -0.44217 0.866377 -0.343289 -0.287679 0.894088 
-0.51889 -0.487887 0.70194 0.331472 -0.548807 0.767422 0.598122 -0.682356 0.420285 
0.28592 -0.55603 0.780436 0.0885415 -0.615289 0.783314 -0.00411018 -0.571106 0.820866 
-0.00790425 -0.57698 0.81672 -0.0544409 -0.555217 0.829922 -0.080081 -0.535306 0.840854 
-0.0138356 -0.506802 0.861951 -0.170404 -0.488009 0.856043 -0.0927972 -0.53949 0.836862 
-0.241549 -0.557392 0.794335 -0.47675 -0.636716 0.606054 0.15717 -0.867269 0.472379 
0.0170455 -0.846404 0.532269 -0.0324844 -0.883631 0.467055 -0.0843041 -0.911145 0.403371 
-0.114919 -0.971408 0.207751 0.000703485 0.998814 0.048674 0.549219 0.835678 -0.00135822 
0.352249 0.935777 0.0155823 0.0276832 0.999068 0.033121 0.172845 0.983979 -0.0436929 
-0.0268839 0.998629 0.0449052 0.00234525 0.99964 0.0267322 -0.173704 0.984273 0.0321481 
-0.298294 0.942659 0.149715 -0.334664 0.913029 0.23319 0.589194 0.807987 0.00268315 
0.78158 0.623741 0.00896204 0.560988 0.798735 -0.217519 -0.380523 0.886389 0.263658 
-0.385583 0.883169 0.267092 -0.340504 0.930997 -0.131535 -0.474514 0.833193 0.283945 
0.8165 0.57734 -0.00247294 0.76719 0.574705 -0.284841 -0.53297 0.801851 0.270145 
-0.551324 0.791787 0.262898 -0.523583 0.817501 0.239902 0.86158 0.50674 -0.029901 
0.885957 0.461088 -0.0497862 -0.523471 0.818375 0.23715 -0.567128 0.790047 0.232791 
0.918669 0.389928 -0.0632792 0.838494 0.364762 -0.404817 -0.636366 0.724159 0.265767 
-0.729527 0.617556 0.293964 0.941892 0.315546 -0.115198 -0.855463 0.416428 0.307849 
0.981293 0.130366 -0.141664 0.993594 0.0103504 -0.112532 -0.871625 0.167099 0.460813 
0.994349 -0.0471473 -0.0951153 0.993322 -0.0716244 -0.090447 0.991981 -0.0416093 -0.119338 
-0.811551 -0.227939 0.537986 -0.987109 -0.145043 -0.0676625 0.971487 -0.23508 -0.0308353 
-0.72052 -0.443297 0.533235 -0.668871 -0.489481 0.559482 0.923738 -0.378671 0.057591 
-0.607904 -0.533154 0.588388 -0.559255 -0.55886 0.612299 -0.768844 -0.614368 0.177291 
0.840052 -0.522728 0.145145 0.83946 -0.523546 0.145624 0.846411 -0.518463 0.121592 
-0.563366 -0.571615 0.596552 -0.580944 -0.590634 0.560049 -0.659423 -0.680141 0.320265 
0.692098 -0.682662 0.234462 0.637643 -0.729024 0.248867 0.393078 -0.872891 0.289052 
-0.101674 -0.984196 0.144984 -0.138016 -0.982931 0.121644 -0.250431 -0.936982 0.243617 
-0.556763 -0.696597 0.452513 -0.451371 -0.811349 0.371454 0.337746 -0.895655 0.28936 
0.380115 -0.916512 -0.124571 0.178421 -0.934417 0.30827 0.00837292 -0.946319 0.323126 
-0.0543035 -0.965896 0.25317 -0.0960333 -0.978493 0.18256 -0.106462 -0.984177 0.141637 
-0.115879 -0.983455 0.139243 -0.130029 -0.990946 -0.0334565 0.276835 0.807228 -0.521292 
0.110763 0.760035 -0.640373 0.0525283 0.764931 -0.641967 -0.0404855 0.826853 -0.560959 
-0.131884 0.899512 -0.416516 -0.221532 0.943945 -0.244728 -0.336994 0.929552 -0.149559 
0.438722 0.733831 -0.518666 0.524115 0.68087 -0.511586 0.25116 0.67665 -0.692144 
0.0767888 0.646803 -0.758782 0.0190397 0.604079 -0.796697 -0.00388371 0.618791 -0.785546 
0.0214687 0.736722 -0.675855 -0.0993126 0.866031 -0.490028 -0.337464 0.92945 -0.149131 
-0.3364 0.929554 -0.15088 -0.472606 0.879875 -0.0496311 0.664347 0.552308 -0.503587 
0.710181 0.493544 -0.502053 0.436171 0.525692 -0.730345 -0.580744 0.813268 -0.0364929 
-0.590446 0.806071 -0.0402907 -0.577125 0.807535 -0.121709 0.73541 0.398367 -0.548156 
0.670671 0.339595 -0.659451 -0.573037 0.80812 -0.136274 -0.582086 0.769477 -0.262833 
-0.571014 0.798542 -0.190457 0.755077 0.323376 -0.57034 0.756232 0.327914 -0.566202 
0.606976 0.228477 -0.761169 -0.632364 0.747494 -0.203393 -0.514399 0.64208 -0.568442 
-0.694324 0.689535 -0.206047 0.746207 0.310445 -0.588897 0.699445 0.300082 -0.648636 
-0.828411 0.526749 -0.190448 -0.663403 0.451195 -0.596925 0.803813 0.168003 -0.570666 
0.677917 0.184491 -0.711612 -0.968771 0.223747 -0.106869 -0.994751 -0.0115163 -0.101671 
0.864548 0.0542806 -0.49961 0.714971 0.0992984 -0.692066 -0.984784 -0.146572 -0.093368 
-0.984624 -0.137955 -0.10716 0.905591 -0.149858 -0.396796 0.718423 -0.0430218 -0.694275 
-0.912807 -0.406828 0.0356936 0.88925 -0.311451 -0.335013 0.879371 -0.398399 -0.260739 
0.827446 -0.246896 -0.504357 -0.785853 -0.611016 0.0953672 -0.776776 -0.622146 0.097747 
-0.776841 -0.621243 -0.102835 0.873986 -0.418495 -0.247 -0.522963 -0.85235 -0.00311946 
-0.707596 -0.698178 0.108883 -0.679237 -0.727648 0.0957358 -0.566713 -0.657665 -0.4963 
0.759945 -0.629927 -0.160233 0.693566 -0.701925 -0.162076 0.672501 -0.609983 -0.419121 
-0.147794 -0.866126 -0.477475 -0.149433 -0.564228 -0.811983 -0.0739015 -0.872821 -0.482413 
0.0160834 -0.617803 -0.786168 -0.0402458 -0.922252 -0.384488 0.105933 -0.643235 -0.758306 
-0.0859827 -0.951397 -0.29572 -0.5203 -0.853964 -0.0058042 -0.285664 -0.936206 -0.204729 
-0.205543 -0.794709 -0.57113 0.380133 -0.915989 -0.128311 0.379711 -0.91617 -0.128269 
0.37981 -0.916006 -0.129138 0.166578 -0.975477 -0.143863 0.123385 -0.87939 -0.459836 
-0.0286978 -0.981052 -0.191608 -0.109472 -0.853659 -0.509197 -0.152756 -0.948237 -0.278411 
-0.178613 -0.880022 -0.440066 -0.177981 -0.901683 -0.394069 -0.187977 -0.908149 -0.374073 
-0.192532 -0.893696 -0.405263 0.140877 0.476982 -0.867549 0.0528744 0.478042 -0.876744 
-0.00462514 0.394578 -0.918851 0.0774192 0.399901 -0.913283 0.144039 0.546311 -0.825104 
0.019487 0.726615 -0.686768 -0.153495 0.831041 -0.534613 -0.39805 0.787886 -0.469885 
0.144735 0.477167 -0.866812 0.425614 0.362188 -0.82926 0.140246 0.476556 -0.867886 
0.036667 0.453512 -0.890496 -0.00607653 0.347102 -0.937808 0.0954509 0.368906 -0.924553 
0.201069 0.451922 -0.869102 0.14358 0.512746 -0.846449 -0.0653048 0.566196 -0.82168 
-0.504775 0.729421 -0.461679 -0.36989 0.671708 -0.641865 -0.578972 0.641024 -0.503864 
0.476442 0.283031 -0.832404 0.436252 0.275962 -0.856463 0.170648 0.34637 -0.922446 
-0.0520388 0.34809 -0.936016 -0.0645439 0.303182 -0.950744 0.141803 0.29702 -0.944283 
0.266286 0.33237 -0.904777 0.147899 0.252322 -0.956274 -0.270864 0.223903 -0.936216 
-0.566946 0.609802 -0.553817 -0.494485 0.451945 -0.742449 -0.526863 0.582431 -0.619023 
0.557064 0.217319 -0.801531 0.546186 0.213259 -0.810062 0.422727 0.194395 -0.885162 
0.207932 0.164883 -0.964146 -0.0238964 0.216159 -0.976066 -0.0708881 0.212177 -0.974657 
0.148815 0.281321 -0.948005 -0.160957 -0.00742114 -0.986933 -0.273027 0.171138 -0.946661 
-0.48053 0.562353 -0.672942 -0.389892 0.385222 -0.836414 -0.477688 0.556699 -0.679633 
0.541124 0.213969 -0.813266 0.535513 0.210591 -0.817849 0.379301 0.174305 -0.908707 
0.181884 0.102027 -0.978013 -0.0226863 0.0185277 -0.999571 -0.00424788 0.0599285 -0.998194 
0.138828 0.0403162 -0.989496 -0.0942937 -0.168602 -0.981164 -0.0700141 -0.065082 -0.995421 
-0.0880281 0.0693057 -0.993704 -0.153906 0.272523 -0.94976 -0.565902 0.408604 -0.716098 
-0.361979 0.343069 -0.866761 -0.597767 0.33558 -0.728053 0.564874 0.214288 -0.796868 
0.483324 0.225678 -0.845853 0.303722 0.175304 -0.936494 0.0610371 0.100493 -0.993064 
-0.0659162 -0.0355799 -0.997191 -0.0548041 0.0444038 -0.997509 -0.0412123 -0.00717978 -0.999125 
0.194221 -0.26886 -0.943394 -0.165824 -0.155762 -0.973777 0.0697961 -0.0355875 -0.996926 
0.0655127 0.0543096 -0.996373 -0.0931377 0.143214 -0.985299 -0.295573 0.11108 -0.94884 
-0.637018 0.216436 -0.73984 -0.51468 0.196978 -0.834449 0.658527 0.11635 -0.743508 
0.465382 0.143766 -0.873356 0.238982 0.111129 -0.964644 -0.077749 0.030758 -0.996498 
0.0429316 -0.0253374 -0.998757 -0.00783292 0.03755 -0.999264 -0.00768097 -0.254975 -0.966917 
-0.045567 -0.0369828 -0.998276 0.136783 -0.0131766 -0.990513 0.099274 0.00446776 -0.99505 
-0.281778 -0.00582006 -0.959462 -0.684497 0.00111463 -0.729015 -0.509948 0.0246286 -0.859852 
0.68343 -0.0284307 -0.729463 0.462467 0.0264648 -0.886241 -0.135152 0.0405507 -0.989995 
-0.0659322 -0.0261618 -0.997481 -0.00299444 -0.121447 -0.992593 -0.0746252 -0.0133844 -0.997122 
-0.0670014 -0.152524 -0.986026 0.0434783 -0.00148794 -0.999053 0.110833 -0.012536 -0.99376 
0.0670653 -0.07057 -0.99525 -0.116414 -0.153953 -0.981196 -0.282962 -0.109759 -0.95283 
-0.772687 -0.255234 -0.581215 -0.687693 -0.449953 -0.569756 -0.600933 -0.223134 -0.767522 
0.740346 -0.191047 -0.644506 0.499132 -0.148263 -0.853748 0.205052 -0.0619487 -0.976789 
-0.102686 -0.0266466 -0.994357 -0.129277 -0.0223741 -0.991356 -0.12653 -0.163359 -0.978419 
-0.064787 -0.258017 -0.963966 0.0192099 -0.208493 -0.977835 0.0915464 -0.135971 -0.986474 
0.0735412 -0.107254 -0.991508 -0.0404875 -0.181675 -0.982525 -0.151072 -0.239874 -0.958977 
-0.627149 -0.529335 -0.571392 -0.529972 -0.621504 -0.576943 -0.390157 -0.362361 -0.846447 
0.674191 -0.351426 -0.649589 0.618071 -0.478007 -0.624098 0.594554 -0.337546 -0.729773 
0.283177 -0.233967 -0.930092 0.0194781 -0.192309 -0.981141 -0.108244 -0.148174 -0.98302 
-0.205056 -0.209566 -0.956051 -0.234676 -0.289459 -0.927977 -0.125944 -0.462931 -0.877401 
-0.104175 -0.38006 -0.919077 0.0533313 -0.485185 -0.872783 0.060449 -0.392214 -0.917886 
0.122763 -0.546524 -0.828397 0.127468 -0.35366 -0.926648 0.0480267 -0.380302 -0.923615 
-0.148631 -0.650267 -0.745025 -0.0757149 -0.434882 -0.897299 -0.513553 -0.628699 -0.583953 
-0.315246 -0.670072 -0.672029 -0.253512 -0.507099 -0.823761 0.53684 -0.561547 -0.629657 
0.371246 -0.683568 -0.628419 0.329177 -0.521714 -0.787056 0.104335 -0.803693 -0.585826 
0.0988155 -0.447956 -0.888578 -0.137277 -0.736587 -0.662264 -0.112055 -0.452966 -0.884458 
-0.220283 -0.645546 -0.731263 -0.235408 -0.493844 -0.837079 -0.226406 -0.511052 -0.829196 
-0.251444 -0.534252 -0.807063 -0.25759 -0.501194 -0.826107 -0.0262637 -0.665277 -0.746135 
-0.0423665 -0.671555 -0.739743 -0.0377011 -0.671359 -0.740173 -0.0364637 -0.66837 -0.742935 
-0.04081 0.222242 -0.974137 0.185065 0.203163 -0.961497 0.075199 0.231985 -0.969808 
0.127928 0.217691 -0.967598 -0.0912001 0.200153 -0.975511 -0.0412122 0.196981 -0.979541 
0.172573 0.198591 -0.964769 0.173589 0.18787 -0.966733 0.0241387 0.0384295 -0.99897 
-0.12791 -0.0158746 -0.991659 -0.0909417 -0.138534 -0.986173 -0.0772447 -0.0277019 -0.996627 
0.125397 0.0206728 -0.991891 0.102382 -0.157012 -0.982275 0.0417164 -0.0928644 -0.994805 
-0.0881877 -0.116048 -0.989321 -0.0690159 0.0385029 -0.996872 0.0581773 0.0988346 -0.993402 
-0.142673 0.0162713 -0.989636 0.078125 -0.15945 -0.98411 -0.10585 -0.108615 -0.988432 
-0.0213742 -0.213829 -0.976637 -0.0439284 -0.0541157 -0.997568 -0.0900483 0.0150801 -0.995823 
0.165162 0.0937537 -0.9818 0.211377 0.0378566 -0.976671 -0.0538679 0.0385043 -0.997805 
-0.0320341 0.0449398 -0.998476 -0.12472 0.0112247 -0.992129 -0.146425 0.0155184 -0.9891 
-0.140123 0.00631538 -0.990114 -0.148937 0.0160447 -0.988716 -0.0649571 -0.00937225 -0.997844 
-0.0956114 -0.0115677 -0.995352 -0.0928225 -0.0276471 -0.995299 -0.0892503 -0.0108555 -0.99595 
0.210327 -0.00275614 -0.977627 0.198331 -0.0224464 -0.979878 0.194672 -0.00441467 -0.980859 
-0.118239 0.0342339 -0.992395 -0.0189202 -0.00461079 -0.99981 0.141074 -0.0558181 -0.988424 
-0.0892414 -0.028977 -0.995588 0.0188232 -0.182234 -0.983075 0.0171109 -0.0450407 -0.998839 

