# vtk DataFile Version 4.2
vtk output
ASCII
DATASET POLYDATA
POINTS 502 float
-24.9143 -35.3445 -17.1848 -17.1079 -35.3445 -18.8045 -9.30149 -35.3445 -19.1336 
-1.49509 -35.3445 -18.5939 6.31131 -35.3445 -18.5363 14.1177 -35.3445 -18.3073 
21.9241 -35.3445 -16.1021 -40.5271 -27.5381 -15.3983 -32.7207 -27.5381 -18.6236 
-24.9143 -27.5381 -21.0812 -17.1079 -27.5381 -20.9866 -9.30149 -27.5381 -20.5109 
-1.49509 -27.5381 -20.6832 6.31131 -27.5381 -20.9618 14.1177 -27.5381 -21.3523 
21.9241 -27.5381 -20.4828 29.7305 -27.5381 -19.6897 37.5369 -27.5381 -17.5267 
-40.5271 -19.7317 -17.6637 -32.7207 -19.7317 -20.0408 -24.9143 -19.7317 -21.0037 
-17.1079 -19.7317 -20.7949 -9.30149 -19.7317 -20.3382 -1.49509 -19.7317 -20.5549 
6.31131 -19.7317 -21.2347 14.1177 -19.7317 -21.5222 21.9241 -19.7317 -21.6439 
29.7305 -19.7317 -21.6293 37.5369 -19.7317 -20.9775 45.3433 -19.7317 -18.3229 
-40.5271 -11.9253 -17.1187 -32.7207 -11.9253 -19.2963 -24.9143 -11.9253 -19.9267 
-17.1079 -11.9253 -19.6557 -9.30149 -11.9253 -19.2323 -1.49509 -11.9253 -19.794 
6.31131 -11.9253 -20.5807 14.1177 -11.9253 -20.9484 21.9241 -11.9253 -21.6614 
29.7305 -11.9253 -22.3294 37.5369 -11.9253 -22.142 45.3433 -11.9253 -20.2091 
53.1497 -11.9253 -15.6255 -40.5271 -4.11887 -15.3141 -32.7207 -4.11887 -17.9014 
-24.9143 -4.11887 -18.3642 -17.1079 -4.11887 -18.5701 -9.30149 -4.11887 -19.1675 
-1.49509 -4.11887 -19.4824 6.31131 -4.11887 -21.1179 14.1177 -4.11887 -20.8396 
21.9241 -4.11887 -21.6043 29.7305 -4.11887 -22.4418 37.5369 -4.11887 -22.5018 
45.3433 -4.11887 -21.0481 53.1497 -4.11887 -16.9518 -32.7207 3.68753 -15.5407 
-24.9143 3.68753 -17.2358 -17.1079 3.68753 -18.7726 -9.30149 3.68753 -19.8476 
-1.49509 3.68753 -18.8222 6.31131 3.68753 -22.0644 14.1177 3.68753 -21.533 
21.9241 3.68753 -21.8173 29.7305 3.68753 -22.4843 37.5369 3.68753 -22.3528 
45.3433 3.68753 -20.7888 53.1497 3.68753 -16.3181 -24.9143 11.4939 -16.4612 
-17.1079 11.4939 -19.2774 -9.30149 11.4939 -20.2686 -1.49509 11.4939 -19.5177 
6.31131 11.4939 -20.8757 14.1177 11.4939 -21.6868 21.9241 11.4939 -22.1284 
29.7305 11.4939 -22.2558 37.5369 11.4939 -21.6399 45.3433 11.4939 -19.1621 
-24.9143 19.3003 -14.841 -17.1079 19.3003 -18.2752 -9.30149 19.3003 -20.0005 
-1.49509 19.3003 -20.5653 6.31131 19.3003 -21.3614 14.1177 19.3003 -21.9691 
21.9241 19.3003 -22.281 29.7305 19.3003 -21.72 37.5369 19.3003 -19.7794 
45.3433 19.3003 -15.0536 -17.1079 27.1067 -16.4428 -9.30149 27.1067 -19.4223 
-1.49509 27.1067 -20.8884 6.31131 27.1067 -21.6648 14.1177 27.1067 -21.5631 
21.9241 27.1067 -20.7723 29.7305 27.1067 -18.17 -9.30149 34.9131 -17.5583 
-1.49509 34.9131 -19.2981 6.31131 34.9131 -19.6074 14.1177 34.9131 -18.7001 
-24.9143 -38.1346 -14.7561 -17.1079 -39.9794 -14.7561 -9.30149 -40.2757 -14.7561 
-9.30149 -43.1509 -7.01283 -1.49509 -40.0837 -14.7561 6.31131 -39.8216 -14.7561 
14.1177 -38.9162 -14.7561 21.9241 -36.6365 -14.7561 -40.5271 -28.4674 -14.7561 
-32.1286 -35.3445 -14.7561 -32.7207 -35.0039 -14.7561 -32.7207 -35.3445 -14.36 
25.9399 -35.3445 -14.7561 29.7305 -33.9343 -14.7561 29.7305 -35.3445 -12.2219 
37.5369 -30.4092 -14.7561 -41.3683 -27.5381 -14.7561 42.4671 -27.5381 -14.7561 
45.3433 -25.1889 -14.7561 45.3433 -27.5381 -11.6518 -44.5483 -19.7317 -14.7561 
-48.3335 -19.7317 -11.3074 50.2378 -19.7317 -14.7561 53.1497 -14.2522 -14.7561 
53.1497 -19.7317 -10.269 -45.1055 -11.9253 -14.7561 -48.3335 -11.9253 -12.5803 
54.0105 -11.9253 -14.7561 -41.5108 -4.11887 -14.7561 -48.3335 -4.11887 -10.3452 
-40.5271 -2.52239 -14.7561 55.402 -4.11887 -14.7561 -48.3335 3.68753 -7.154 
-34.894 3.68753 -14.7561 -40.5271 3.68753 -12.5465 -32.7207 6.96559 -14.7561 
54.7413 3.68753 -14.7561 53.1497 7.94216 -14.7561 -40.5271 11.4939 -10.0533 
-29.6747 11.4939 -14.7561 -32.7207 11.4939 -13.607 51.4948 11.4939 -14.7561 
53.1497 11.4939 -12.1463 -25.0943 19.3003 -14.7561 -32.7207 19.3003 -10.998 
-24.9143 19.5855 -14.7561 37.5369 25.3314 -14.7561 45.6884 19.3003 -14.7561 
45.3433 19.5918 -14.7561 -32.7207 27.1067 -7.22828 -20.4061 27.1067 -14.7561 
-24.9143 27.1067 -12.3019 -17.1079 32.0489 -14.7561 21.9241 33.6927 -14.7561 
34.6473 27.1067 -14.7561 29.7305 29.7924 -14.7561 -24.9143 34.9131 -8.02964 
-15.0594 34.9131 -14.7561 -17.1079 34.9131 -13.645 -9.30149 38.9303 -14.7561 
-1.49509 40.9084 -14.7561 6.31131 40.0126 -14.7561 19.5002 34.9131 -14.7561 
14.1177 37.4245 -14.7561 -17.1079 42.7195 -7.00133 -9.30149 42.7195 -10.6487 
-1.49509 42.7195 -10.093 -9.30149 -43.1678 -6.94968 -32.7207 -38.9224 -6.94968 
-24.9143 -41.755 -6.94968 -11.414 -43.1509 -6.94968 -17.1079 -43.1041 -6.94968 
-8.91037 -43.1509 -6.94968 -9.30149 -43.1509 -6.72335 -1.49509 -42.8317 -6.94968 
6.31131 -42.4542 -6.94968 14.1177 -41.5437 -6.94968 21.9241 -39.7739 -6.94968 
29.7305 -37.4217 -6.94968 -39.0512 -35.3445 -6.94968 -40.5271 -34.3454 -6.94968 
34.8543 -35.3445 -6.94968 37.5369 -34.2077 -6.94968 45.3433 -29.7578 -6.94968 
-47.4446 -27.5381 -6.94968 -48.3335 -26.0694 -6.94968 -48.3335 -27.5381 -3.45662 
48.1158 -27.5381 -6.94968 53.1497 -21.8472 -6.94968 -51.7284 -19.7317 -6.94968 
54.6675 -19.7317 -6.94968 53.1497 -19.7317 0.695435 -53.2353 -11.9253 -6.94968 
-56.1399 -11.9253 -0.56871 57.6936 -11.9253 -6.94968 -51.907 -4.11887 -6.94968 
59.0723 -4.11887 -6.94968 -48.5535 3.68753 -6.94968 -48.3335 4.18197 -6.94968 
58.4326 3.68753 -6.94968 -44.7492 11.4939 -6.94968 -48.3335 11.4939 -3.01528 
-40.5271 18.0963 -6.94968 55.5054 11.4939 -6.94968 53.1497 15.0437 -6.94968 
-39.5619 19.3003 -6.94968 -40.5271 19.3003 -6.21788 37.5369 26.6139 -6.94968 
49.424 19.3003 -6.94968 45.3433 23.0398 -6.94968 -33.1773 27.1067 -6.94968 
-40.5271 27.1067 -1.06971 -32.7207 27.5479 -6.94968 21.9241 32.2655 -6.94968 
36.1554 27.1067 -6.94968 29.7305 29.2996 -6.94968 -26.3108 34.9131 -6.94968 
-32.7207 34.9131 -1.18598 -24.9143 36.3645 -6.94968 6.31131 40.1648 -6.94968 
16.3485 34.9131 -6.94968 14.1177 36.2717 -6.94968 14.1177 34.9131 -2.60676 
-17.1798 42.7195 -6.94968 -24.9143 42.7195 -0.466857 -17.1079 42.7625 -6.94968 
-9.30149 44.966 -6.94968 0.612063 42.7195 -6.94968 -1.49509 43.6317 -6.94968 
-32.7207 -39.2343 0.856718 -24.9143 -41.8154 0.856718 -17.1079 -42.9033 0.856718 
-9.30149 -42.5707 0.856718 -1.49509 -41.7375 0.856718 6.31131 -40.9086 0.856718 
14.1177 -40.0153 0.856718 21.9241 -38.3751 0.856718 29.7305 -36.2755 0.856718 
-48.3335 -28.6494 0.856718 -40.1922 -35.3445 0.856718 -40.5271 -35.1427 0.856718 
14.1177 -35.3445 7.96578 21.9241 -35.3445 5.95613 32.4219 -35.3445 0.856718 
29.7305 -35.3445 2.69077 37.5369 -33.4367 0.856718 45.3433 -28.4627 0.856718 
-49.3351 -27.5381 0.856718 -48.3335 -27.5381 4.88816 46.489 -27.5381 0.856718 
45.3433 -27.5381 2.23651 -54.178 -19.7317 0.856718 -56.1399 -13.709 0.856718 
53.1163 -19.7317 0.856718 53.1497 -19.6603 0.856718 -56.6613 -11.9253 0.856718 
-56.1399 -5.92058 0.856718 -56.1399 -11.9253 4.76275 56.3875 -11.9253 0.856718 
53.1497 -11.9253 5.77022 -55.955 -4.11887 0.856718 58.0377 -4.11887 0.856718 
-54.0351 3.68753 0.856718 57.6584 3.68753 0.856718 53.1497 3.68753 8.59366 
-51.2717 11.4939 0.856718 -48.3335 18.3155 0.856718 54.9138 11.4939 0.856718 
53.1497 14.2411 0.856718 53.1497 11.4939 4.32979 -47.8336 19.3003 0.856718 
-48.3335 19.3003 2.88401 37.5369 25.5258 0.856718 48.658 19.3003 0.856718 
45.3433 22.1256 0.856718 45.3433 19.3003 6.67434 -41.9711 27.1067 0.856718 
-40.5271 28.6938 0.856718 14.1177 34.056 0.856718 21.9241 30.2373 0.856718 
31.9504 27.1067 0.856718 29.7305 27.7115 0.856718 -34.4583 34.9131 0.856718 
-32.7207 36.6 0.856718 12.7766 34.9131 0.856718 6.31131 39.1113 0.856718 
14.1177 34.9131 4.17625 -25.9413 42.7195 0.856718 -24.9143 43.4947 0.856718 
-17.1079 46.5519 0.856718 -9.30149 47.1639 0.856718 0.80258 42.7195 0.856718 
-1.49509 44.1152 0.856718 -32.7207 -37.1266 8.66312 -24.9143 -39.6267 8.66312 
-17.1079 -40.3758 8.66312 -9.30149 -39.6163 8.66312 -1.49509 -37.934 8.66312 
6.31131 -36.2213 8.66312 -36.2537 -35.3445 8.66312 -40.5271 -32.9006 8.66312 
-32.7207 -35.3445 11.4004 -24.9143 -35.3445 14.2869 -17.1079 -35.3445 15.0324 
-9.30149 -35.3445 13.9275 -1.49509 -35.3445 11.627 11.2654 -35.3445 8.66312 
6.31131 -35.3445 9.60806 14.1177 -34.7474 8.66312 21.9241 -33.4094 8.66312 
29.7305 -31.3358 8.66312 37.5369 -28.3778 8.66312 -47.1311 -27.5381 8.66312 
-48.3335 -26.3596 8.66312 -40.5271 -27.5381 14.923 6.31131 -27.5381 15.1774 
14.1177 -27.5381 14.5679 21.9241 -27.5381 13.8352 29.7305 -27.5381 12.0778 
38.9066 -27.5381 8.66312 37.5369 -27.5381 9.502 45.3433 -21.7268 8.66312 
-52.9748 -19.7317 8.66312 -48.3335 -19.7317 15.5064 29.7305 -19.7317 16.323 
37.5369 -19.7317 14.0778 47.0225 -19.7317 8.66312 45.3433 -19.7317 9.9606 
-55.502 -11.9253 8.66312 50.6222 -11.9253 8.66312 45.3433 -11.9253 13.0432 
53.1497 -4.54213 8.66312 -55.7713 -4.11887 8.66312 45.3433 -4.11887 14.637 
53.271 -4.11887 8.66312 53.1497 1.44278 8.66312 53.1497 -4.11887 8.78627 
-54.9171 3.68753 8.66312 53.0955 3.68753 8.66312 45.3433 3.68753 14.9677 
-53.0074 11.4939 8.66312 50.4578 11.4939 8.66312 45.3433 18.0212 8.66312 
45.3433 11.4939 13.2909 -49.341 19.3003 8.66312 -48.3335 20.7946 8.66312 
-48.3335 19.3003 11.3744 44.0811 19.3003 8.66312 37.5369 23.4939 8.66312 
37.5369 19.3003 13.9135 -43.5053 27.1067 8.66312 -40.5271 30.331 8.66312 
-40.5271 27.1067 13.8302 21.9241 31.6981 8.66312 30.7604 27.1067 8.66312 
29.7305 27.671 8.66312 29.7305 27.1067 9.93856 -35.8842 34.9131 8.66312 
-32.7207 37.8759 8.66312 -32.7207 34.9131 13.8217 6.31131 40.1487 8.66312 
16.3009 34.9131 8.66312 14.1177 36.1198 8.66312 -26.8694 42.7195 8.66312 
-24.9143 44.0986 8.66312 -24.9143 42.7195 11.666 -17.1079 47.0317 8.66312 
-9.30149 47.2589 8.66312 1.55825 42.7195 8.66312 -1.49509 44.0456 8.66312 
-1.49509 42.7195 13.5481 -32.7207 -30.2247 16.4695 -24.9143 -32.3527 16.4695 
-17.1079 -33.3052 16.4695 -9.30149 -31.0021 16.4695 -1.49509 -27.7223 16.4695 
-37.382 -27.5381 16.4695 -40.5271 -25.1581 16.4695 -32.7207 -27.5381 18.0556 
-24.9143 -27.5381 19.2116 -17.1079 -27.5381 19.247 -9.30149 -27.5381 18.0584 
[...]
POINT_DATA 502
SCALARS ImageScalars float
LOOKUP_TABLE default
0 0 0 0 0 0 0 0 0 
0 0 0 0 0 0 0 0 0 
0 0 0 0 0 0 0 0 0 
0 0 0 0 0 0 0 0 0 
0 0 0 0 0 0 0 0 0 
0 0 0 0 0 0 0 0 0 
0 0 0 0 0 0 0 0 0 
0 0 0 0 0 0 0 0 0 
0 0 0 0 0 0 0 0 0 
0 0 0 0 0 0 0 0 0 
0 0 0 0 0 0 0 0 0 
0 0 0 0 0 0 0 0 0 
0 0 0 0 0 0 0 0 0 
0 0 0 0 0 0 0 0 0 
0 0 0 0 0 0 0 0 0 
0 0 0 0 0 0 0 0 0 
0 0 0 0 0 0 0 0 0 
0 0 0 0 0 0 0 0 0 
0 0 0 0 0 0 0 0 0 
0 0 0 0 0 0 0 0 0 
0 0 0 0 0 0 0 0 0 
0 0 0 0 0 0 0 0 0 
0 0 0 0 0 0 0 0 0 
0 0 0 0 0 0 0 0 0 
0 0 0 0 0 0 0 0 0 
0 0 0 0 0 0 0 0 0 
0 0 0 0 0 0 0 0 0 
0 0 0 0 0 0 0 0 0 
0 0 0 0 0 0 0 0 0 
0 0 0 0 0 0 0 0 0 
0 0 0 0 0 0 0 0 0 
0 0 0 0 0 0 0 0 0 
0 0 0 0 0 0 0 0 0 
0 0 0 0 0 0 0 0 0 
0 0 0 0 0 0 0 0 0 
0 0 0 0 0 0 0 0 0 
0 0 0 0 0 0 0 0 0 
0 0 0 0 0 0 0 0 0 
0 0 0 0 0 0 0 0 0 
0 0 0 0 0 0 0 0 0 
0 0 0 0 0 0 0 0 0 
0 0 0 0 0 0 0 0 0 
0 0 0 0 0 0 0 0 0 
0 0 0 0 0 0 0 0 0 
0 0 0 0 0 0 0 0 0 
0 0 0 0 0 0 0 0 0 
0 0 0 0 0 0 0 0 0 
0 0 0 0 0 0 0 0 0 
0 0 0 0 0 0 0 0 0 
0 0 0 0 0 0 0 0 0 
0 0 0 0 0 0 0 0 0 
0 0 0 0 0 0 0 0 0 
0 0 0 0 0 0 0 0 0 
0 0 0 0 0 0 0 0 0 
0 0 0 0 0 0 0 0 0 
0 0 0 0 0 0 0 
NORMALS Normals float
-0.226544 -0.584896 -0.778829 -0.116271 -0.50019 -0.858074 0.0142118 -0.431385 -0.902056 
0.0336852 -0.479177 -0.877071 0.0165972 -0.511424 -0.859168 0.134091 -0.577184 -0.80553 
0.248918 -0.707093 -0.661861 -0.528095 -0.414834 -0.740965 -0.320103 -0.27755 -0.905815 
-0.143997 -0.205269 -0.968054 0.0365161 -0.113925 -0.992818 0.018172 -0.0598745 -0.99804 
-0.0285176 -0.113754 -0.9931 -0.0408999 -0.156455 -0.986838 0.0307741 -0.169088 -0.98512 
0.0981072 -0.29353 -0.950902 0.162079 -0.420857 -0.89253 0.341813 -0.563632 -0.751986 
-0.439384 -0.0939232 -0.893376 -0.19297 -0.039683 -0.980402 -0.0447412 0.0738302 -0.996267 
0.0421204 0.0835086 -0.995616 0.0157737 0.0809262 -0.996595 -0.0569914 0.0572251 -0.996733 
-0.0613661 0.0248669 -0.997806 -0.0256914 0.0266087 -0.999316 -0.00690956 -0.0752512 -0.997141 
0.0399885 -0.160148 -0.986283 0.177053 -0.248014 -0.95244 0.447056 -0.369659 -0.814551 
-0.378312 0.127652 -0.916834 -0.172899 0.126123 -0.976831 -0.024625 0.165356 -0.985926 
0.043916 0.142091 -0.988879 -0.00894871 0.0751637 -0.997131 -0.0858109 0.0670373 -0.994054 
-0.0735214 0.00714548 -0.997268 -0.0693057 0.0438557 -0.996631 -0.0903568 0.0025886 -0.995906 
-0.0300542 -0.0506209 -0.998266 0.126373 -0.0888147 -0.987999 0.360076 -0.144994 -0.921587 
0.702241 -0.223168 -0.676058 -0.397167 0.262508 -0.879402 -0.175351 0.236127 -0.95577 
-0.0411536 0.173427 -0.983986 -0.0512457 0.0568073 -0.997069 -0.0583599 -0.0384282 -0.997556 
-0.12387 0.0611939 -0.99041 -0.0869553 -0.0927914 -0.991881 -0.0314213 -0.0374319 -0.998805 
-0.102168 -0.00995004 -0.994717 -0.0571862 -0.00990142 -0.998314 0.0890158 -0.0146725 -0.995922 
0.30176 -0.0350187 -0.952741 0.666836 -0.0367273 -0.744299 -0.270863 0.249866 -0.929624 
-0.190755 0.115784 -0.974785 -0.170276 -0.0442802 -0.984401 -0.00061957 -0.0716169 -0.997432 
-0.136816 -0.00269807 -0.990593 -0.170696 0.013201 -0.985235 0.0140393 -0.0548601 -0.998395 
-0.0608959 -0.0334979 -0.997582 -0.0342243 0.0118632 -0.999344 0.105234 0.057071 -0.992809 
0.326383 0.107356 -0.939121 0.681811 0.17754 -0.709657 -0.336701 0.142249 -0.930805 
-0.235447 0.0309178 -0.971395 -0.0112345 -0.00930122 -0.999894 -0.0343458 -0.106876 -0.993679 
-0.142232 0.0433283 -0.988885 -0.0773517 -0.0278168 -0.996616 -0.0363866 -0.0294609 -0.998903 
0.0330092 0.0488177 -0.998262 0.172574 0.146082 -0.974104 0.444692 0.285449 -0.84898 
-0.417002 0.22815 -0.879805 -0.307656 0.162835 -0.937461 -0.138727 0.0530537 -0.988909 
-0.0852508 -0.0884945 -0.992422 -0.0897732 -0.0498015 -0.994716 -0.056648 0.00897923 -0.998354 
0.0161923 0.0767038 -0.996922 0.153098 0.192306 -0.969319 0.359261 0.411077 -0.837823 
0.58884 0.603774 -0.537331 -0.409588 0.259134 -0.874693 -0.25553 0.136694 -0.957089 
-0.140088 0.0757157 -0.98724 -0.0438523 0.0999407 -0.994027 0.0528557 0.132008 -0.989838 
0.186916 0.402758 -0.896018 0.392519 0.689239 -0.608998 -0.312534 0.390673 -0.865851 
-0.118788 0.413696 -0.902632 0.0157652 0.52697 -0.849738 0.292309 0.736241 -0.610332 
-0.257371 -0.720306 -0.644143 -0.111483 -0.779921 -0.615869 -0.00638343 -0.802064 -0.597204 
0.0173771 -0.994903 -0.0993316 0.0237954 -0.785634 -0.618234 0.0655579 -0.795747 -0.60207 
0.179548 -0.802456 -0.569057 0.261189 -0.764107 -0.589848 -0.540179 -0.444585 -0.714529 
-0.405874 -0.6724 -0.618986 -0.415363 -0.66196 -0.623925 -0.420427 -0.687082 -0.592587 
0.280889 -0.764011 -0.580852 0.294197 -0.747055 -0.596118 0.31723 -0.855214 -0.409848 
0.385859 -0.691595 -0.610582 -0.55651 -0.417387 -0.71839 0.478719 -0.632329 -0.609088 
0.527019 -0.580323 -0.620867 0.582768 -0.710236 -0.394901 -0.586984 -0.15968 -0.793695 
-0.735471 -0.250454 -0.629568 0.617898 -0.451743 -0.64353 0.71354 -0.295377 -0.635306 
0.803362 -0.502906 -0.318897 -0.498362 0.0936027 -0.861901 -0.627302 0.058925 -0.776543 
0.739166 -0.223915 -0.635213 -0.421018 0.265353 -0.867371 -0.633834 0.262706 -0.727489 
-0.402762 0.270558 -0.874403 0.763293 -0.0405696 -0.644778 -0.654457 0.316064 -0.686869 
-0.314613 0.261078 -0.91261 -0.438081 0.294155 -0.849446 -0.310458 0.249583 -0.917237 
0.744492 0.184993 -0.641491 0.723335 0.290836 -0.626259 -0.475307 0.322114 -0.818734 
-0.348615 0.212897 -0.912766 -0.361703 0.256674 -0.896264 0.687295 0.376425 -0.621232 
0.786008 0.424418 -0.449512 -0.417764 0.23039 -0.87886 -0.449752 0.332971 -0.828766 
-0.419275 0.231839 -0.877758 0.483774 0.784384 -0.388206 0.598323 0.608784 -0.520953 
0.591604 0.616061 -0.520071 -0.508433 0.456545 -0.730112 -0.440784 0.290232 -0.849396 
-0.478682 0.34094 -0.809088 -0.448304 0.352322 -0.821519 0.437653 0.873383 -0.213688 
0.476437 0.815529 -0.328512 0.477658 0.829184 -0.290338 -0.552951 0.486951 -0.67611 
-0.428521 0.408813 -0.805756 -0.467768 0.41448 -0.780641 -0.286551 0.588868 -0.755727 
-0.029651 0.802378 -0.596079 0.217469 0.885699 -0.410176 0.424042 0.886703 -0.184244 
0.385428 0.892308 -0.235013 -0.370752 0.736763 -0.565441 -0.141556 0.82382 -0.548893 
0.174167 0.934443 -0.310615 0.0176319 -0.995187 -0.0963937 -0.399473 -0.891822 -0.212307 
-0.247457 -0.952431 -0.177878 -0.0104011 -0.993932 -0.109506 -0.0869763 -0.985556 -0.145308 
0.0190068 -0.995335 -0.0945846 0.0191656 -0.995936 -0.0879958 0.0455183 -0.996914 -0.0639645 
0.081191 -0.996055 -0.0358125 0.167058 -0.984611 -0.0513171 0.260482 -0.961542 -0.0870959 
0.326485 -0.939773 -0.101159 -0.538559 -0.801041 -0.261317 -0.577759 -0.767042 -0.279002 
0.38206 -0.917054 -0.114199 0.417584 -0.900025 -0.124814 0.597162 -0.793026 -0.120447 
-0.758327 -0.542825 -0.360944 -0.778681 -0.491493 -0.389987 -0.770603 -0.606417 -0.196035 
0.662623 -0.738392 -0.125335 0.822025 -0.557195 -0.117515 -0.84395 -0.288286 -0.452371 
0.858018 -0.502725 -0.105223 0.822574 -0.456519 0.33906 -0.850237 -0.0190842 -0.526053 
-0.977562 -0.0982719 -0.186318 0.961685 -0.245755 -0.121521 -0.764626 0.226018 -0.603542 
0.99059 -0.0448444 -0.129307 -0.660793 0.316056 -0.680779 -0.658144 0.317302 -0.682763 
0.967869 0.207697 -0.141743 -0.60362 0.329557 -0.725972 -0.758991 0.33867 -0.556089 
-0.526917 0.392454 -0.753882 0.875897 0.458787 -0.149397 0.801755 0.581562 -0.137753 
-0.52177 0.397767 -0.754677 -0.544184 0.41363 -0.729913 0.345125 0.938557 -6.78533e-05 
0.6731 0.730741 -0.113815 0.552676 0.825913 -0.111432 -0.513313 0.461422 -0.723602 
-0.664497 0.584478 -0.465648 -0.513039 0.46317 -0.722679 0.407197 0.891202 0.199874 
0.339071 0.940462 0.0237141 0.336104 0.933909 0.121856 -0.559302 0.502749 -0.659109 
-0.63194 0.622211 -0.462066 -0.551024 0.525492 -0.648252 0.400923 0.914556 0.0533656 
0.471571 0.857343 0.206357 0.471547 0.858697 0.200707 0.495935 0.864436 0.0824474 
-0.37186 0.736535 -0.56501 -0.539445 0.760668 -0.361086 -0.370045 0.738033 -0.564247 
-0.0247413 0.910916 -0.41185 0.300037 0.947943 -0.106686 0.278985 0.946055 -0.164765 
-0.371669 -0.922912 0.100477 -0.218635 -0.968127 0.122187 -0.0482403 -0.986095 0.159026 
0.0716185 -0.976538 0.203089 0.102184 -0.956527 0.273158 0.101878 -0.934151 0.342027 
0.146509 -0.919075 0.365837 0.224479 -0.911737 0.344012 0.276265 -0.911583 0.304456 
-0.728476 -0.68504 0.00660876 -0.553037 -0.829593 0.0769843 -0.561592 -0.823981 0.0752961 
0.137813 -0.754213 0.642004 0.178739 -0.826934 0.533134 0.305883 -0.903167 0.301206 
0.271764 -0.883952 0.380492 0.391048 -0.870389 0.299172 0.596076 -0.73814 0.315979 
-0.754119 -0.656694 0.00756139 -0.731832 -0.652811 0.195599 0.622066 -0.715564 0.317808 
0.593568 -0.710639 0.377715 -0.918694 -0.390606 -0.0585511 -0.979056 -0.173199 -0.107012 
0.819622 -0.454842 0.348338 0.820654 -0.452922 0.348408 -0.986774 -0.107981 -0.120904 
-0.981716 0.0914501 -0.166948 -0.985019 -0.142764 0.0967241 0.895614 -0.272255 0.351786 
0.769103 -0.277562 0.575708 -0.971462 0.152904 -0.181332 0.94819 -0.0700436 0.309888 
-0.915228 0.255549 -0.311532 0.940972 0.179702 0.286843 0.755065 0.130826 0.642465 
-0.850461 0.354772 -0.388398 -0.799607 0.466738 -0.377867 0.864157 0.437205 0.249166 
0.809462 0.537277 0.236864 0.82007 0.411622 0.397559 -0.788537 0.484502 -0.378771 
-0.827318 0.502179 -0.251717 0.321862 0.928416 0.185606 0.631955 0.744224 0.216251 
0.525352 0.822223 0.218986 0.594593 0.681978 0.425869 -0.703786 0.603853 -0.374227 
-0.687333 0.62402 -0.371716 0.490279 0.871554 0.00449452 0.364029 0.930517 0.0402539 
0.268182 0.95585 0.120124 0.260664 0.960881 0.0936002 -0.656509 0.658204 -0.368461 
-0.647106 0.671949 -0.360191 0.501281 0.865268 0.00531112 0.563486 0.826041 0.0118605 
0.486805 0.873147 -0.0252058 -0.554063 0.77465 -0.304845 -0.529622 0.793183 -0.3006 
-0.229205 0.947374 -0.223491 0.152004 0.979382 -0.133066 0.521168 0.853083 -0.0251427 
0.462942 0.886027 -0.0253157 -0.357395 -0.84422 0.399451 -0.186933 -0.883976 0.428535 
-0.00110796 -0.887894 0.460047 0.136573 -0.853778 0.502406 0.185775 -0.791493 0.582259 
0.163221 -0.74061 0.65181 -0.408769 -0.820256 0.400111 -0.485675 -0.774011 0.406236 
-0.343885 -0.783936 0.516902 -0.144136 -0.674986 0.723615 0.0174996 -0.640982 0.767357 
0.162739 -0.641971 0.749259 0.204867 -0.685895 0.698268 0.145301 -0.734699 0.66265 
0.16576 -0.711612 0.682739 0.131471 -0.729221 0.67153 0.154201 -0.747034 0.646654 
0.24495 -0.710784 0.659383 0.359211 -0.668774 0.650929 -0.677076 -0.628163 0.383379 
-0.711668 -0.593908 0.375236 -0.447114 -0.569209 0.689993 0.111543 -0.477879 0.871315 
0.0726044 -0.522713 0.849412 0.129081 -0.551698 0.823995 0.222245 -0.590485 0.775844 
0.39082 -0.647176 0.65454 0.357617 -0.639263 0.680774 0.55766 -0.46127 0.690105 
-0.84448 -0.412823 0.34122 -0.596412 -0.360808 0.717015 0.207427 -0.336015 0.918732 
0.340229 -0.38064 0.859859 0.596365 -0.407728 0.691452 0.540193 -0.405197 0.737569 
-0.926795 -0.171535 0.334106 0.658609 -0.264825 0.704345 0.527609 -0.248653 0.812281 
0.730186 -0.111667 0.674062 -0.969385 0.038538 0.242504 0.476144 -0.0969131 0.874011 
0.733043 -0.102772 0.672373 0.751287 0.0636521 0.656898 0.729899 -0.103437 0.675684 
-0.973625 0.165012 0.157559 0.752214 0.13004 0.64596 0.506509 0.0657516 0.859724 
-0.930385 0.341718 0.13271 0.716014 0.361978 0.596905 0.607745 0.601946 0.517984 
0.564902 0.312318 0.763769 -0.856446 0.508948 0.0864468 -0.841366 0.533712 0.0851681 
-0.82736 0.495272 0.264917 0.581359 0.654722 0.483075 0.452606 0.802176 0.389436 
0.437949 0.564245 0.699878 -0.756935 0.642775 0.117858 -0.719287 0.684892 0.116402 
-0.665084 0.593818 0.452817 0.455446 0.889074 0.0459941 0.458995 0.86186 0.215685 
0.465074 0.863899 0.193354 0.475225 0.837721 0.269043 -0.68351 0.719844 0.12099 
-0.656197 0.743651 0.128014 -0.607975 0.659929 0.441429 0.475821 0.879185 0.0250549 
0.474259 0.879147 -0.0466765 0.47515 0.877749 -0.0615568 -0.547235 0.823195 0.151274 
-0.498519 0.851577 0.162161 -0.493051 0.806605 0.326022 -0.187273 0.969332 0.159138 
0.17866 0.968904 0.17119 0.445862 0.890889 0.0867408 0.410191 0.903628 0.123287 
0.35145 0.855341 0.380625 -0.24401 -0.52408 0.815965 -0.110819 -0.521426 0.84607 
0.0308091 -0.52739 0.849064 0.17376 -0.438178 0.881934 0.162924 -0.404721 0.899809 
-0.340149 -0.497902 0.797742 -0.38365 -0.465653 0.797483 -0.210639 -0.4225 0.881547 
-0.0739943 -0.350574 0.933607 0.06606 -0.290093 0.954716 0.169508 -0.321731 0.931534 
0.157863 -0.404919 0.900622 0.161657 -0.400171 0.90207 0.0974483 -0.416976 0.903679 
0.0688197 -0.418594 0.905562 0.114087 -0.389439 0.913959 -0.51604 -0.337259 0.787375 
-0.559386 -0.24147 0.792957 -0.28804 -0.275566 0.917113 -0.119706 -0.200119 0.972431 
0.0240673 -0.110032 0.993637 0.0586289 -0.0857475 0.99459 0.0501758 -0.193815 0.979754 
0.0696658 -0.31513 0.946488 0.0828408 -0.311072 0.946769 0.0714101 -0.325937 0.94269 
0.196016 -0.334008 0.921964 0.107787 -0.324486 0.939729 0.204575 -0.325084 0.923293 
0.285877 -0.241288 0.927391 -0.572725 -0.141973 0.80736 -0.53251 -0.140459 0.834688 
-0.229057 -0.156074 0.960819 -0.0438414 -0.0850357 0.995413 0.0496063 -0.0379424 0.998048 
-0.0129214 -0.0171109 0.99977 -0.0742514 -0.125879 0.989263 0.0562258 -0.0356248 0.997782 
0.0957747 -0.105448 0.989802 0.052537 -0.247756 0.967397 0.115285 -0.208711 0.971159 
0.172259 -0.19997 0.964541 0.308127 -0.22026 0.925496 0.278648 -0.21694 0.935571 
-0.642502 -0.0420018 0.765132 -0.548341 -0.056044 0.834374 -0.210815 -0.0800174 0.974245 
-0.000385541 -0.0733719 0.997305 0.0959816 -0.044466 0.994389 -0.0285331 -0.0663631 0.997387 
0.0241064 -0.0780091 0.996661 0.0955587 0.019277 0.995237 -0.150662 -0.186611 0.970813 
-0.0218151 -0.257269 0.966094 0.166112 -0.129293 0.977594 0.195416 -0.122839 0.972997 
0.368272 -0.08642 0.925693 0.296193 -0.0902395 0.950856 -0.673042 0.0989714 0.732952 
-0.581775 0.0802545 0.809381 -0.216318 0.0365296 0.975639 -0.00521186 -0.00901154 0.999946 
0.0548437 -0.070394 0.99601 -0.0467115 -0.104949 0.99338 0.00196754 -0.040514 0.999177 
-0.0513539 -0.147521 0.987725 -0.170887 -0.125419 0.977276 0.124101 0.0552215 0.990732 
0.244002 0.0303509 0.9693 0.200399 0.0150604 0.979599 0.415481 0.0411301 0.908671 
0.309834 0.0216991 0.950543 -0.687261 0.218802 0.692674 -0.686579 0.228903 0.690082 
-0.680763 0.217479 0.699474 -0.296149 0.166789 0.940466 -0.105181 0.07638 0.991516 
-0.000725986 -0.0262387 0.999655 0.00144595 -0.056878 0.99838 -0.00607089 -0.00383823 0.999974 
-0.00371305 -0.0213304 0.999766 0.0501436 0.137369 0.98925 0.130383 0.21649 0.967539 
0.132433 0.123925 0.983415 0.192128 0.15028 0.969795 0.384842 0.23375 0.892893 
0.361083 0.308262 0.88011 0.332284 0.219561 0.917268 -0.610634 0.386036 0.69145 
-0.559226 0.471262 0.68204 -0.41281 0.302984 0.858946 -0.196662 0.165042 0.966481 
-0.076404 0.0622967 0.995129 -0.0240919 -0.00275693 0.999706 0.0386272 -0.0186279 0.99908 
0.0762162 -0.0132877 0.997003 0.0741213 0.0472473 0.996129 0.108115 0.0352836 0.993512 
0.173678 0.174616 0.969198 0.374355 0.404709 0.834307 0.39876 0.4462 0.801184 
0.341597 0.349476 0.872455 -0.554642 0.498126 0.666516 -0.519678 0.548171 0.65532 
-0.363583 0.337573 0.868246 -0.171908 0.178195 0.968862 -0.0797805 0.0982751 0.991956 
-0.0184126 0.0613177 0.997948 0.0641897 0.0441313 0.996961 0.0966973 0.0956429 0.990708 
0.271461 0.231971 0.934076 0.474345 0.558257 0.680696 0.490751 0.572518 0.6568 
0.464605 0.506426 0.726412 -0.497551 0.568346 0.655306 -0.406895 0.618564 0.672172 
-0.315338 0.422635 0.849671 -0.136609 0.302973 0.943157 -0.0124398 0.298388 0.954364 
0.276655 0.770835 0.573825 0.118637 0.390132 0.913084 0.362102 0.769653 0.525849 
0.282406 0.550005 0.785965 0.474374 0.728663 0.493984 0.473667 0.729243 0.493806 
0.473109 0.727783 0.496488 -0.234051 0.687833 0.687099 -0.19561 0.691953 0.694938 
-0.190956 0.668129 0.719124 0.195346 0.765125 0.613534 0.0835537 0.735403 0.672459 
0.0692741 0.684842 0.725392 
