# vtk DataFile Version 4.2
vtk output
ASCII
DATASET POLYDATA
POINTS 534 float
-12.77 26.8614 -19.6753 -20.9067 -38.2321 -11.486 -45.3167 -30.0954 -11.8966 
-37.18 -30.0954 -14.6467 -29.0433 -30.0954 -15.6659 -20.9067 -30.0954 -15.4998 
-12.77 -30.0954 -14.4988 -4.63329 -30.0954 -13.8527 3.50339 -30.0954 -13.5512 
11.6401 -30.0954 -12.7559 19.7768 -30.0954 -11.9754 27.9134 -30.0954 -11.5276 
-53.4534 -21.9587 -12.7197 -45.3167 -21.9587 -15.8812 -37.18 -21.9587 -17.3314 
-29.0433 -21.9587 -17.387 -20.9067 -21.9587 -16.9426 -12.77 -21.9587 -15.5664 
-4.63329 -21.9587 -15.0906 3.50339 -21.9587 -15.2566 11.6401 -21.9587 -14.4499 
19.7768 -21.9587 -13.9572 27.9134 -21.9587 -13.6328 36.0501 -21.9587 -13.0708 
-61.5901 -13.822 -12.3575 -53.4534 -13.822 -16.2575 -45.3167 -13.822 -17.296 
-37.18 -13.822 -17.8933 -29.0433 -13.822 -17.7694 -20.9067 -13.822 -17.117 
-12.77 -13.822 -15.8686 -4.63329 -13.822 -16.1108 3.50339 -13.822 -17.2523 
11.6401 -13.822 -15.7095 19.7768 -13.822 -14.8206 27.9134 -13.822 -14.5331 
36.0501 -13.822 -14.0831 44.1868 -13.822 -13.2432 52.3235 -13.822 -11.7106 
-61.5901 -5.68533 -14.6108 -53.4534 -5.68533 -16.6344 -45.3167 -5.68533 -18.4836 
-37.18 -5.68533 -18.2057 -29.0433 -5.68533 -17.4079 -20.9067 -5.68533 -16.4343 
-12.77 -5.68533 -16.8225 -4.63329 -5.68533 -18.8991 3.50339 -5.68533 -16.9951 
11.6401 -5.68533 -18.209 19.7768 -5.68533 -16.2295 27.9134 -5.68533 -15.2774 
36.0501 -5.68533 -14.8834 44.1868 -5.68533 -14.1105 52.3235 -5.68533 -11.7959 
-61.5901 2.45136 -15.1848 -53.4534 2.45136 -17.0509 -45.3167 2.45136 -18.79 
-37.18 2.45136 -18.3242 -29.0433 2.45136 -17.4313 -20.9067 2.45136 -16.1187 
-12.77 2.45136 -16.2636 -4.63329 2.45136 -17.4325 3.50339 2.45136 -15.508 
11.6401 2.45136 -18.5709 19.7768 2.45136 -16.6716 27.9134 2.45136 -15.3221 
36.0501 2.45136 -15.0127 44.1868 2.45136 -13.9484 52.3235 2.45136 -11.5002 
-61.5901 10.588 -12.9773 -53.4534 10.588 -17.368 -45.3167 10.588 -18.001 
-37.18 10.588 -18.0493 -29.0433 10.588 -17.8099 -20.9067 10.588 -17.5275 
-12.77 10.588 -18.2641 -4.63329 10.588 -18.8423 3.50339 10.588 -17.0217 
11.6401 10.588 -17.5814 19.7768 10.588 -16.672 27.9134 10.588 -15.3141 
36.0501 10.588 -14.3427 44.1868 10.588 -13.0309 52.3235 10.588 -11.5718 
-53.4534 18.7247 -12.2678 -45.3167 18.7247 -15.7472 -37.18 18.7247 -18.123 
-29.0433 18.7247 -18.1565 -20.9067 18.7247 -18.8169 -12.77 23.382 -19.5265 
-12.77 18.7247 -19.3249 -4.63329 18.7247 -17.8213 3.50339 18.7247 -16.3063 
11.6401 18.7247 -17.3798 19.7768 18.7247 -16.9093 27.9134 18.7247 -14.9502 
36.0501 18.7247 -13.1519 -37.18 26.8614 -14.3269 -29.0433 26.8614 -16.9885 
-14.256 26.8614 -19.5265 -20.9067 26.8614 -18.8743 -11.7187 26.8614 -19.5265 
-12.77 32.662 -19.5265 -4.63329 26.8614 -18.5223 3.50339 26.8614 -17.4609 
11.6401 26.8614 -16.982 19.7768 26.8614 -16.0992 27.9134 26.8614 -13.6446 
-29.0433 34.9981 -14.4017 -20.9067 34.9981 -17.945 -12.77 34.9981 -19.4647 
-4.63329 34.9981 -18.9937 3.50339 34.9981 -17.5626 11.6401 34.9981 -16.1847 
19.7768 34.9981 -13.9593 -20.9067 43.1348 -14.965 -12.77 43.1348 -18.0399 
-4.63329 43.1348 -18.1472 3.50339 43.1348 -16.101 11.6401 43.1348 -13.324 
-12.77 51.2715 -12.4595 -4.63329 51.2715 -13.6139 -20.9067 -38.3519 -11.3899 
-45.3167 -30.7071 -11.3899 -37.18 -34.9159 -11.3899 -37.18 -38.2321 -6.71559 
-21.9864 -38.2321 -11.3899 -29.0433 -37.1996 -11.3899 -29.0433 -38.2321 -10.3597 
-14.8821 -38.2321 -11.3899 -12.77 -38.1519 -11.3899 -12.77 -38.2321 -11.3471 
-4.63329 -36.4732 -11.3899 -4.63329 -38.2321 -10.5138 3.50339 -35.0403 -11.3899 
3.50339 -38.2321 -9.6343 11.6401 -33.3111 -11.3899 11.6401 -38.2321 -8.86811 
19.7768 -31.4274 -11.3899 19.7768 -38.2321 -7.95362 27.9134 -30.4305 -11.3899 
27.9134 -38.2321 -7.33834 36.0501 -38.2321 -4.55441 -46.3456 -30.0954 -11.3899 
-53.4534 -24.2587 -11.3899 -53.4534 -30.0954 -4.61868 28.714 -30.0954 -11.3899 
36.0501 -26.7084 -11.3899 36.0501 -30.0954 -9.96635 44.1868 -30.0954 -7.45737 
-55.7321 -21.9587 -11.3899 -61.5901 -15.766 -11.3899 -61.5901 -21.9587 -5.65732 
42.6393 -21.9587 -11.3899 44.1868 -20.4357 -11.3899 44.1868 -21.9587 -10.9774 
52.3235 -14.8246 -11.3899 52.3235 -21.9587 -8.09568 -62.8437 -13.822 -11.3899 
52.9275 -13.822 -11.3899 60.4602 -13.822 -6.40932 -65.6546 -5.68533 -11.3899 
-69.7267 -5.68533 -3.73577 53.2823 -5.68533 -11.3899 60.4602 -5.68533 -8.57487 
-66.4029 2.45136 -11.3899 52.5941 2.45136 -11.3899 60.4602 2.45136 -8.29681 
-63.4246 10.588 -11.3899 -61.5901 13.2788 -11.3899 44.1868 16.4961 -11.3899 
52.67 10.588 -11.3899 52.3235 11.1628 -11.3899 60.4602 10.588 -6.28984 
-54.7535 18.7247 -11.3899 -53.4534 19.7769 -11.3899 -45.3167 25.8222 -11.3899 
42.1341 18.7247 -11.3899 36.0501 24.2756 -11.3899 44.1868 18.7247 -10.7904 
52.3235 18.7247 -8.5739 -43.7724 26.8614 -11.3899 -45.3167 26.8614 -9.18991 
-37.18 30.9699 -11.3899 33.7698 26.8614 -11.3899 27.9134 31.5054 -11.3899 
36.0501 26.8614 -10.4233 44.1868 26.8614 -7.82224 -32.9721 34.9981 -11.3899 
-29.0433 38.8122 -11.3899 24.6629 34.9981 -11.3899 19.7768 39.2109 -11.3899 
27.9134 34.9981 -8.81176 36.0501 34.9981 -3.7754 -25.1047 43.1348 -11.3899 
-20.9067 47.9073 -11.3899 3.50339 50.085 -11.3899 15.1415 43.1348 -11.3899 
11.6401 46.1946 -11.3899 19.7768 43.1348 -5.92432 -14.5173 51.2715 -11.3899 
-12.77 51.9824 -11.3899 0.693682 51.2715 -11.3899 -4.63329 52.8193 -11.3899 
3.50339 51.2715 -9.31082 -37.18 -39.8244 -3.25318 -29.0433 -42.2872 -3.25318 
-20.9067 -43.7177 -3.25318 -12.77 -44.3602 -3.25318 -4.63329 -44.5562 -3.25318 
3.50339 -44.3916 -3.25318 3.50339 -46.3687 4.8801 11.6401 -44.2164 -3.25318 
19.7768 -42.9714 -3.25318 27.9134 -41.7913 -3.25318 36.0501 -39.3493 -3.25318 
-53.4534 -30.7962 -3.25318 -40.6206 -38.2321 -3.25318 -45.3167 -35.809 -3.25318 
-37.18 -38.2321 2.60121 38.8833 -38.2321 -3.25318 44.1868 -35.0462 -3.25318 
44.1868 -38.2321 4.068 -54.2871 -30.0954 -3.25318 -61.5901 -23.5361 -3.25318 
-53.4534 -30.0954 0.143387 52.3103 -30.0954 -3.25318 52.3235 -30.0852 -3.25318 
52.3235 -30.0954 -3.23717 -62.9363 -21.9587 -3.25318 -61.5901 -21.9587 4.38916 
58.9544 -21.9587 -3.25318 60.4602 -20.0783 -3.25318 60.4602 -21.9587 -0.608838 
-68.4317 -13.822 -3.25318 -69.7267 -7.12655 -3.25318 63.8243 -13.822 -3.25318 
-69.9549 -5.68533 -3.25318 -69.7267 2.44946 -3.25318 -69.7267 -5.68533 -2.30097 
66.4186 -5.68533 -3.25318 68.5968 -5.68533 3.07832 -69.7267 2.45136 -3.25318 
65.9355 2.45136 -3.25318 68.5968 2.45136 4.26673 -67.1384 10.588 -3.25318 
-61.5901 17.2949 -3.25318 63.7879 10.588 -3.25318 60.4602 17.3629 -3.25318 
-59.9898 18.7247 -3.25318 -53.4534 23.8664 -3.25318 59.6655 18.7247 -3.25318 
52.3235 25.7451 -3.25318 60.4602 18.7247 -1.59748 -48.429 26.8614 -3.25318 
-45.3167 28.6125 -3.25318 -45.3167 26.8614 0.767586 -37.18 33.3701 -3.25318 
50.8155 26.8614 -3.25318 44.1868 31.0703 -3.25318 52.3235 26.8614 -0.844339 
-35.0028 34.9981 -3.25318 -29.0433 40.1953 -3.25318 -29.0433 34.9981 3.74475 
27.9134 39.13 -3.25318 36.715 34.9981 -3.25318 36.0501 35.314 -3.25318 
-26.1237 43.1348 -3.25318 -20.9067 47.7508 -3.25318 -20.9067 43.1348 2.57809 
11.6401 49.5939 -3.25318 21.7837 43.1348 -3.25318 19.7768 44.3699 -3.25318 
19.7768 43.1348 1.13237 -15.4529 51.2715 -3.25318 -12.77 52.7866 -3.25318 
-12.77 51.2715 -0.974939 -4.63329 54.4302 -3.25318 -4.63329 51.2715 2.12326 
8.20323 51.2715 -3.25318 3.50339 53.3571 -3.25318 3.50339 51.2715 1.13259 
3.50339 -46.3694 4.8835 -29.0433 -40.2801 4.8835 -20.9067 -42.6828 4.8835 
-12.77 -44.4684 4.8835 3.496 -46.3687 4.8835 -4.63329 -45.6004 4.8835 
3.53913 -46.3687 4.8835 3.50339 -46.3687 4.88503 11.6401 -46.2124 4.8835 
19.7768 -45.6202 4.8835 27.9134 -44.1572 4.8835 36.0501 -41.8286 4.8835 
44.1868 -38.4526 4.8835 -45.3167 -33.9835 4.8835 -34.9959 -38.2321 4.8835 
-37.18 -37.4299 4.8835 -29.0433 -38.2321 7.43774 -20.9067 -38.2321 10.7236 
36.0501 -38.2321 11.291 44.5486 -38.2321 4.8835 44.1868 -38.2321 5.55779 
52.3235 -32.9267 4.8835 -51.9156 -30.0954 4.8835 -53.4534 -28.991 4.8835 
-45.3167 -30.0954 9.19724 -37.18 -30.0954 11.9164 55.5972 -30.0954 4.8835 
52.3235 -30.0954 11.307 60.4602 -24.6645 4.8835 -61.4672 -21.9587 4.8835 
-61.5901 -21.8143 4.8835 -53.4534 -21.9587 10.5248 62.6671 -21.9587 4.8835 
60.4602 -21.9587 8.80182 -66.5791 -13.822 4.8835 -61.5901 -13.822 9.95817 
66.4304 -13.822 4.8835 60.4602 -13.822 11.7098 68.5968 -7.54492 4.8835 
-67.0613 -5.68533 4.8835 -61.5901 -5.68533 10.2727 69.1598 -5.68533 4.8835 
68.5968 -5.68533 6.16046 -65.2551 2.45136 4.8835 -61.5901 2.45136 8.01128 
-53.4534 2.45136 12.1195 68.7947 2.45136 4.8835 68.5968 3.44317 4.8835 
68.5968 2.45136 5.33381 -63.7837 10.588 4.8835 -61.5901 13.1384 4.8835 
-61.5901 10.588 6.87046 -53.4534 10.588 9.23847 -45.3167 10.588 11.4701 
-37.18 10.588 12.4596 -20.9067 10.588 12.9011 67.0171 10.588 4.8835 
60.4602 10.588 12.9565 -55.2038 18.7247 4.8835 -53.4534 20.0309 4.8835 
-53.4534 18.7247 6.1241 -45.3167 23.2085 4.8835 -45.3167 18.7247 7.50472 
-37.18 18.7247 10.1198 -29.0433 18.7247 11.2047 -20.9067 18.7247 12.7564 
62.8576 18.7247 4.8835 60.4602 21.5887 4.8835 60.4602 18.7247 9.94794 
-40.4601 26.8614 4.8835 -37.18 28.444 4.8835 -37.18 26.8614 6.19817 
-29.0433 33.7236 4.8835 -29.0433 26.8614 8.39185 -20.9067 26.8614 10.6369 
-12.77 26.8614 12.1137 -4.63329 26.8614 12.9402 44.1868 32.9222 4.8835 
54.9798 26.8614 4.8835 52.3235 28.8821 4.8835 52.3235 26.8614 8.1217 
-27.3075 34.9981 4.8835 -20.9067 39.8823 4.8835 -20.9067 34.9981 7.30804 
-12.77 34.9981 9.67221 -4.63329 34.9981 11.1044 3.50339 34.9981 12.0707 
11.6401 34.9981 11.9446 19.7768 41.9118 4.8835 19.7768 34.9981 11.3179 
27.9134 38.2368 4.8835 27.9134 34.9981 9.47091 38.7152 34.9981 4.8835 
36.0501 35.9392 4.8835 36.0501 34.9981 6.32536 -15.6658 43.1348 4.8835 
-12.77 44.6369 4.8835 -12.77 43.1348 5.91184 -4.63329 48.2638 4.8835 
-4.63329 43.1348 7.8253 3.50339 48.4117 4.8835 3.50339 43.1348 8.22464 
16.4873 43.1348 4.8835 11.6401 45.0618 4.8835 11.6401 43.1348 6.56712 
-12.77 -38.2365 13.0202 -4.63329 -39.9206 13.0202 3.50339 -41.0232 13.0202 
[...]
POINT_DATA 534
SCALARS ImageScalars float
LOOKUP_TABLE default
0 0 0 0 0 0 0 0 0 
0 0 0 0 0 0 0 0 0 
0 0 0 0 0 0 0 0 0 
0 0 0 0 0 0 0 0 0 
0 0 0 0 0 0 0 0 0 
0 0 0 0 0 0 0 0 0 
0 0 0 0 0 0 0 0 0 
0 0 0 0 0 0 0 0 0 
0 0 0 0 0 0 0 0 0 
0 0 0 0 0 0 0 0 0 
0 0 0 0 0 0 0 0 0 
0 0 0 0 0 0 0 0 0 
0 0 0 0 0 0 0 0 0 
0 0 0 0 0 0 0 0 0 
0 0 0 0 0 0 0 0 0 
0 0 0 0 0 0 0 0 0 
0 0 0 0 0 0 0 0 0 
0 0 0 0 0 0 0 0 0 
0 0 0 0 0 0 0 0 0 
0 0 0 0 0 0 0 0 0 
0 0 0 0 0 0 0 0 0 
0 0 0 0 0 0 0 0 0 
0 0 0 0 0 0 0 0 0 
0 0 0 0 0 0 0 0 0 
0 0 0 0 0 0 0 0 0 
0 0 0 0 0 0 0 0 0 
0 0 0 0 0 0 0 0 0 
0 0 0 0 0 0 0 0 0 
0 0 0 0 0 0 0 0 0 
0 0 0 0 0 0 0 0 0 
0 0 0 0 0 0 0 0 0 
0 0 0 0 0 0 0 0 0 
0 0 0 0 0 0 0 0 0 
0 0 0 0 0 0 0 0 0 
0 0 0 0 0 0 0 0 0 
0 0 0 0 0 0 0 0 0 
0 0 0 0 0 0 0 0 0 
0 0 0 0 0 0 0 0 0 
0 0 0 0 0 0 0 0 0 
0 0 0 0 0 0 0 0 0 
0 0 0 0 0 0 0 0 0 
0 0 0 0 0 0 0 0 0 
0 0 0 0 0 0 0 0 0 
0 0 0 0 0 0 0 0 0 
0 0 0 0 0 0 0 0 0 
0 0 0 0 0 0 0 0 0 
0 0 0 0 0 0 0 0 0 
0 0 0 0 0 0 0 0 0 
0 0 0 0 0 0 0 0 0 
0 0 0 0 0 0 0 0 0 
0 0 0 0 0 0 0 0 0 
0 0 0 0 0 0 0 0 0 
0 0 0 0 0 0 0 0 0 
0 0 0 0 0 0 0 0 0 
0 0 0 0 0 0 0 0 0 
0 0 0 0 0 0 0 0 0 
0 0 0 0 0 0 0 0 0 
0 0 0 0 0 0 0 0 0 
0 0 0 0 0 0 0 0 0 
0 0 0 
NORMALS Normals float
-0.020222 0.0088637 0.999756 0.0319831 0.621895 0.782448 0.370254 0.593285 0.71479 
0.188569 0.435786 0.880075 0.0517346 0.341217 0.93856 -0.0660703 0.300286 0.951558 
-0.102736 0.237058 0.966048 -0.0566666 0.251324 0.966243 -0.0651508 0.306254 0.949718 
-0.0927072 0.29666 0.950473 -0.0740448 0.32208 0.943812 -0.110176 0.329085 0.937851 
0.427777 0.424664 0.797914 0.234727 0.267039 0.934662 0.0971483 0.199811 0.975007 
-0.0256406 0.119358 0.99252 -0.10798 0.0987408 0.989237 -0.117666 0.0818372 0.989675 
-0.0188979 0.129064 0.991456 -0.0380148 0.220391 0.974671 -0.078646 0.17464 0.981486 
-0.0490226 0.165559 0.984981 -0.0561899 0.184808 0.981167 -0.150936 0.227184 0.962084 
0.52293 0.365054 0.770247 0.30867 0.225627 0.924021 0.0897883 0.162688 0.982584 
0.027226 0.051289 0.998313 -0.0466769 0.00087302 0.99891 -0.118931 -0.0313583 0.992407 
-0.0605192 0.0736193 0.995448 0.0888789 0.230145 0.969089 -0.0295987 0.110488 0.993437 
-0.14688 0.220923 0.964168 -0.0701243 0.13255 0.988693 -0.0447095 0.099232 0.994059 
-0.0776468 0.114086 0.990432 -0.156478 0.189411 0.969349 -0.365379 0.168925 0.915403 
0.448971 0.158046 0.879458 0.23635 0.0451509 0.970618 0.114579 0.0900904 0.989321 
-0.0650977 0.0263824 0.99753 -0.109035 -0.0208038 0.99382 -0.0379532 -0.058851 0.997545 
0.147945 0.0291978 0.988564 0.0104514 0.0776966 0.996922 -0.0371585 -0.103974 0.993886 
-0.0460697 0.174496 0.98358 -0.180402 0.116393 0.976682 -0.078297 0.0483457 0.995757 
-0.075049 0.0566304 0.99557 -0.176098 0.0397275 0.983571 -0.332906 -0.011092 0.942895 
0.426059 -0.101832 0.898946 0.217922 0.0421282 0.975056 0.0955939 -0.0271187 0.995051 
-0.0819583 -0.00950489 0.99659 -0.134206 0.0244886 0.990651 -0.0723995 0.0665697 0.995152 
0.0774909 0.0902606 0.992899 -0.0437544 0.0011173 0.999042 0.0867233 0.0105562 0.996176 
0.0573225 -0.0405565 0.997532 -0.208246 0.0262976 0.977723 -0.0953003 0.00220843 0.995446 
-0.0896114 -0.0329449 0.995432 -0.200908 -0.0610246 0.977707 -0.33532 -0.011785 0.94203 
0.5592 -0.40086 0.725676 0.310684 -0.199164 0.929413 0.0357668 -0.194026 0.980344 
-0.0120248 -0.0130776 0.999842 -0.0318704 0.0441153 0.998518 0.025188 0.164734 0.986016 
0.0804561 0.180444 0.980289 -0.0811086 0.0152085 0.996589 -0.0723589 0.0391896 0.996608 
-0.018841 -0.0717688 0.997243 -0.140944 0.0146638 0.989909 -0.138628 -0.0223022 0.990093 
-0.133962 -0.111552 0.984688 -0.18051 -0.189164 0.965211 -0.360983 -0.161215 0.918532 
0.482535 -0.580459 0.655918 0.285272 -0.356914 0.889512 0.14325 -0.204707 0.968284 
0.0432093 -0.0482684 0.997899 0.0705953 0.0822735 0.994106 -0.0376176 0.0401154 0.998487 
-0.0602799 0.0829745 0.994727 -0.188852 -0.0164801 0.981867 -0.0262749 0.0272612 0.999283 
0.0374684 -0.036731 0.998623 -0.147145 -0.0335479 0.988546 -0.224911 -0.0944246 0.969793 
-0.235983 -0.207396 0.949368 0.35107 -0.516752 0.780844 0.280505 -0.209536 0.936703 
0.0119219 -0.000731756 0.999929 0.158977 -0.0466347 0.98618 -0.0357199 0.01678 0.999221 
0.0331544 -0.0577665 0.997779 -0.138505 0.0720781 0.987735 -0.0938387 0.0765798 0.992638 
-0.0803531 -0.0740828 0.99401 -0.19549 -0.171283 0.965632 -0.311735 -0.284153 0.906686 
0.536831 -0.483164 0.69164 0.289482 -0.226809 0.929923 0.0558196 -0.0859958 0.994731 
-0.116373 -0.0157837 0.99308 -0.174915 -0.0678076 0.982246 -0.202985 -0.19502 0.959565 
-0.371812 -0.367495 0.852469 0.503353 -0.484986 0.715139 0.195785 -0.325077 0.925199 
-0.114087 -0.242437 0.963436 -0.294068 -0.327785 0.89782 -0.388699 -0.480146 0.786367 
0.254739 -0.844634 0.470852 -0.0906436 -0.776984 0.622961 0.0334192 0.626931 0.778358 
0.376958 0.613638 0.693795 0.251551 0.652686 0.714649 0.338082 0.886172 0.31686 
0.0476913 0.634665 0.771314 0.142114 0.670838 0.72786 0.167448 0.754885 0.634121 
-0.0266141 0.573435 0.818819 -0.0488434 0.551467 0.832766 -0.0478946 0.55628 0.829614 
-0.0787726 0.471222 0.87849 -0.0821986 0.560053 0.824369 -0.0774493 0.45077 0.889274 
-0.0812639 0.58163 0.809384 -0.0948323 0.394335 0.91406 -0.0880714 0.586879 0.80487 
-0.0732514 0.359133 0.930407 -0.0795144 0.618171 0.782011 -0.111883 0.339187 0.934042 
-0.166913 0.661375 0.731248 -0.322774 0.741241 0.588539 0.390745 0.602744 0.695714 
0.477998 0.474967 0.738867 0.606694 0.767587 0.20672 -0.116606 0.339129 0.933485 
-0.16656 0.346819 0.923024 -0.193319 0.444581 0.874629 -0.374199 0.587938 0.71715 
0.520296 0.459881 0.719584 0.5649 0.435127 0.701108 0.741284 0.615453 0.267797 
-0.235807 0.260432 0.936253 -0.234705 0.255825 0.937799 -0.259339 0.273737 0.926181 
-0.358787 0.202519 0.911185 -0.397544 0.455667 0.796446 0.56661 0.396127 0.722521 
-0.38031 0.166187 0.909806 -0.630701 0.280319 0.723628 0.693016 0.16684 0.701351 
0.988055 0.068121 0.138227 -0.342534 -0.00358598 0.939499 -0.493198 0.107418 0.863259 
0.80324 -0.126702 0.582024 -0.338425 -0.0135868 0.940895 -0.51849 -0.13372 0.844563 
0.640872 -0.427558 0.637555 0.595958 -0.489801 0.63634 -0.240411 -0.245665 0.939069 
-0.368789 -0.16777 0.914247 -0.366411 -0.183397 0.9122 -0.601172 -0.315518 0.734194 
0.513673 -0.590625 0.622336 0.496783 -0.605335 0.621913 0.452399 -0.684459 0.57171 
-0.259634 -0.249887 0.932817 -0.286835 -0.329357 0.899583 -0.269472 -0.268936 0.924694 
-0.443833 -0.454692 0.772183 0.456113 -0.690809 0.56102 0.486629 -0.793415 0.365629 
0.511969 -0.654877 0.555899 -0.313457 -0.361253 0.878203 -0.386617 -0.440493 0.810242 
-0.319357 -0.414775 0.85204 -0.402338 -0.5623 0.722456 0.596141 -0.642265 0.481779 
0.654843 -0.614367 0.440152 -0.422 -0.491514 0.761794 -0.474667 -0.55645 0.681949 
-0.457623 -0.643174 0.613929 -0.426133 -0.832733 0.353505 0.661063 -0.619169 0.423823 
0.568068 -0.727929 0.383952 -0.315487 -0.737953 0.596568 -0.464431 -0.593379 0.657423 
-0.44282 -0.632852 0.635145 -0.547364 -0.804441 0.230796 0.326043 -0.869852 0.370207 
0.257541 -0.884135 0.389844 -0.239013 -0.81136 0.533448 -0.0761957 -0.877014 0.474385 
-0.32516 -0.863596 0.385321 0.359082 0.929356 0.0857767 0.240491 0.963564 0.117086 
0.124152 0.97458 0.186494 0.0515574 0.958781 0.279429 0.00304633 0.926941 0.375196 
-0.0179113 0.883848 0.467431 0.0362099 0.991916 -0.121619 -0.0757919 0.861016 0.502899 
-0.134565 0.820652 0.555358 -0.204921 0.82303 0.529745 -0.313491 0.795977 0.517826 
0.606534 0.786139 0.118754 0.400986 0.912086 0.0854962 0.46844 0.877112 0.106018 
0.351244 0.894945 -0.275136 -0.381219 0.750818 0.539393 -0.458474 0.683463 0.568049 
-0.492604 0.869874 0.025691 0.617821 0.777385 0.118193 0.74396 0.651227 0.149757 
0.614184 0.782689 -0.100876 -0.526199 0.653428 0.544194 -0.52646 0.653199 0.544216 
-0.526811 0.65386 0.54308 0.773696 0.614729 0.153307 0.703694 0.599046 -0.382046 
-0.692477 0.549646 0.467294 -0.708632 0.528241 0.467762 -0.765362 0.589299 0.258742 
0.909417 0.390003 0.144422 0.98575 0.11881 0.119087 -0.758914 0.36451 0.539614 
0.991803 0.06512 0.109934 0.985152 -0.170991 0.0153985 0.997327 0.0581869 0.0441952 
-0.86118 0.116698 0.494723 -0.99073 0.131528 0.0339751 0.985143 -0.171047 0.0153733 
-0.847427 -0.145539 0.510573 -0.991204 -0.129271 -0.0283576 0.886152 -0.463095 0.0166602 
0.70342 -0.709253 -0.0464838 -0.733241 -0.344647 0.586153 -0.681879 -0.486609 0.546125 
0.672977 -0.738469 -0.0420164 0.555783 -0.828974 -0.0625007 -0.672772 -0.508786 0.537135 
-0.542705 -0.666809 0.510723 -0.721911 -0.544419 0.427145 0.491141 -0.867006 -0.0841547 
0.480935 -0.873706 -0.0730737 0.48874 -0.795723 -0.357712 0.575863 -0.807544 -0.127492 
-0.528112 -0.690662 0.494047 -0.45298 -0.771425 0.446892 -0.57077 -0.751239 0.331454 
0.598721 -0.786613 -0.150908 0.673086 -0.709141 -0.209939 0.463869 -0.616085 -0.636604 
-0.494182 -0.84613 0.199622 -0.426802 -0.841735 0.330639 -0.425238 -0.845677 0.322496 
0.675473 -0.696812 -0.241225 0.582272 -0.757171 -0.29606 0.486854 -0.603123 -0.631835 
-0.481221 -0.872786 -0.081673 -0.529932 -0.843383 0.0887545 -0.542692 -0.837395 0.065238 
-0.456881 -0.861934 -0.219839 0.450542 -0.847192 -0.281564 0.370506 -0.895103 -0.248025 
0.391015 -0.816082 -0.425579 0.0326185 -0.97926 -0.199967 0.0930573 -0.812764 -0.575114 
-0.410046 -0.908127 -0.0846652 -0.290595 -0.951833 -0.0978207 -0.240786 -0.880383 -0.408592 
0.0362242 0.991891 -0.121821 0.288701 0.844167 -0.451702 0.234061 0.902261 -0.362133 
0.168017 0.947923 -0.270577 0.0362883 0.991882 -0.121878 0.111561 0.976 -0.187026 
0.0358709 0.991913 -0.121748 0.0362319 0.991878 -0.121921 -0.0455081 0.993518 -0.10417 
-0.12382 0.989218 -0.0782104 -0.228551 0.97306 -0.0303205 -0.336314 0.939141 -0.0700458 
-0.483155 0.875046 -0.0292362 0.396779 0.806175 -0.438918 0.321169 0.841075 -0.43525 
0.328354 0.837439 -0.436898 0.271336 0.77295 -0.573519 0.246141 0.669848 -0.700513 
-0.289041 0.767533 -0.572144 -0.488771 0.871995 -0.0269927 -0.484016 0.871904 -0.0742457 
-0.619705 0.783976 -0.0367012 0.538312 0.729879 -0.421304 0.56606 0.705973 -0.42565 
0.360274 0.65031 -0.668805 0.249197 0.509633 -0.823514 -0.691152 0.720779 -0.0527817 
-0.548465 0.59861 -0.583825 -0.786773 0.613283 -0.0697948 0.691304 0.591417 -0.41512 
0.694837 0.587018 -0.415466 0.448687 0.432436 -0.782099 -0.826535 0.557673 -0.0764161 
-0.758411 0.507154 -0.409399 0.824519 0.288612 -0.486695 0.653276 0.269204 -0.707644 
-0.923617 0.357888 -0.137291 -0.63378 0.225687 -0.739857 -0.980615 0.181477 -0.0738902 
0.798666 -0.0454248 -0.600058 0.561941 -0.0841756 -0.822883 -0.988325 0.132881 -0.0745453 
-0.981498 0.139302 -0.131368 0.770047 -0.171773 -0.614428 0.576606 -0.182817 -0.796306 
0.31005 -0.209826 -0.927277 -0.989765 -0.127107 -0.0648828 -0.986275 -0.153614 -0.0605357 
-0.988127 -0.128273 -0.0845616 0.669272 -0.38189 -0.637366 0.570074 -0.528644 -0.628929 
0.518223 -0.37031 -0.770919 0.280977 -0.386021 -0.878658 0.178625 -0.382891 -0.906359 
0.0891164 -0.268704 -0.959092 0.1222 -0.0393147 -0.991727 -0.936856 -0.342094 -0.0726112 
-0.587554 -0.134878 -0.797865 0.430029 -0.643768 -0.63296 0.413971 -0.621523 -0.665084 
0.363052 -0.592673 -0.71898 0.372795 -0.571575 -0.730976 0.249819 -0.474269 -0.844192 
0.191447 -0.357601 -0.91404 0.156935 -0.26347 -0.951817 0.188252 -0.128242 -0.973712 
-0.812406 -0.581174 -0.0472612 -0.752347 -0.657774 -0.0361555 -0.705014 -0.515258 -0.487303 
0.366561 -0.633049 -0.681823 0.337824 -0.642263 -0.688021 0.298698 -0.605689 -0.737509 
0.408264 -0.563709 -0.718019 0.252797 -0.401555 -0.880254 0.211724 -0.312535 -0.92601 
0.132785 -0.267341 -0.954409 0.150138 -0.209147 -0.96629 -0.411352 -0.903684 -0.118936 
-0.610723 -0.786581 -0.0911468 -0.5435 -0.832815 -0.105008 -0.52942 -0.768881 -0.35852 
0.410428 -0.55524 -0.723365 0.384488 -0.503306 -0.773855 0.304609 -0.419408 -0.855167 
0.216462 -0.320532 -0.922173 0.13476 -0.296044 -0.94562 0.051168 -0.3631 -0.930344 
-0.0383459 -0.447928 -0.893247 -0.336585 -0.806648 -0.485829 -0.105891 -0.555396 -0.824817 
-0.315262 -0.885145 -0.342239 -0.223423 -0.755546 -0.615819 -0.332196 -0.918738 -0.213465 
-0.291653 -0.91955 -0.263376 -0.270658 -0.89642 -0.350963 0.327661 -0.521963 -0.787524 
0.282337 -0.518809 -0.806922 0.263065 -0.49885 -0.8258 0.122149 -0.613764 -0.779983 
0.11209 -0.451999 -0.884948 -0.142798 -0.682326 -0.716965 -0.059344 -0.511201 -0.85741 
-0.314136 -0.770706 -0.554374 -0.284753 -0.710829 -0.643147 -0.226974 -0.663082 -0.713306 
0.170925 0.593609 -0.786393 0.119757 0.620077 -0.775347 0.0659367 0.618722 -0.782838 
-0.00791546 0.658827 -0.752253 -0.052595 0.699381 -0.712811 -0.179601 0.687473 -0.703651 
0.199831 0.454026 -0.86829 0.171049 0.593478 -0.786464 0.208064 0.494258 -0.844049 
0.170918 0.59343 -0.786529 0.107945 0.555404 -0.824545 0.0575727 0.501583 -0.863192 
0.0152986 0.517223 -0.855714 -0.0481415 0.564431 -0.824075 -0.228174 0.65857 -0.717093 
-0.168591 0.585203 -0.793168 -0.257329 0.629457 -0.733189 -0.341166 0.564569 -0.751577 
0.286562 0.370123 -0.883681 0.216327 0.440143 -0.871479 0.209615 0.42394 -0.8811 
0.183844 0.396764 -0.899322 0.168159 0.317875 -0.933101 0.161193 0.25589 -0.953172 
0.0659381 0.261472 -0.962956 0.0333203 0.232739 -0.971968 0.037713 0.23092 -0.972242 
-0.0159538 0.250159 -0.968073 -0.102844 0.283299 -0.953501 -0.169681 0.363137 -0.916155 
-0.437646 0.509319 -0.740986 -0.318764 0.456074 -0.830895 -0.463173 0.454436 -0.760893 
0.310779 0.333774 -0.88995 0.296321 0.160377 -0.941527 0.276317 0.317349 -0.90716 
0.106818 0.269766 -0.956983 0.097744 0.172489 -0.98015 0.109034 0.0634196 -0.992013 
0.138987 -0.027426 -0.989914 0.0797645 0.0678469 -0.994502 0.0240027 0.0483095 -0.998544 
0.0527874 0.0654302 -0.99646 0.0153664 0.0580155 -0.998197 -0.0787081 0.0745849 -0.994104 
-0.150923 0.116043 -0.981711 -0.241688 0.192372 -0.951094 -0.481289 0.323623 -0.814634 
-0.385398 0.289144 -0.876279 0.299255 0.157685 -0.941054 0.292503 0.15534 -0.943563 
0.218376 0.0685242 -0.973456 0.0977036 0.0689795 -0.992822 -0.0403438 0.0091496 -0.999144 
-0.0305156 -0.118357 -0.992502 0.152374 -0.199097 -0.968061 0.147514 -0.0186671 -0.988884 
0.0309306 -0.142821 -0.989265 0.0517436 -0.032675 -0.998126 -0.00843732 -0.080069 -0.996754 
-0.0389391 -0.0720387 -0.996641 -0.0270826 0.0111101 -0.999571 -0.170816 0.146527 -0.974347 
-0.536248 0.209822 -0.817565 -0.344822 0.200027 -0.917108 -0.573036 0.145997 -0.806421 
0.311652 -0.0647863 -0.947985 0.275899 -0.107242 -0.955185 0.269009 -0.0667685 -0.960821 
0.179842 -0.0405872 -0.982858 0.0470085 -0.140687 -0.988938 -0.0936799 -0.155835 -0.983331 
-0.105562 -0.192647 -0.975573 0.240088 -0.157813 -0.957838 0.122001 -0.0507781 -0.99123 
0.0201246 -0.17887 -0.983667 0.112134 -0.0515898 -0.992353 -0.0259573 -0.153946 -0.987738 
0.0211591 -0.0782475 -0.996709 0.0489814 -0.021046 -0.998578 -0.0764282 0.0154954 -0.996955 
-0.227762 0.0407139 -0.972865 -0.63839 0.120053 -0.760293 -0.52403 0.111367 -0.844388 
0.24822 -0.212583 -0.94509 0.160715 -0.305907 -0.938399 0.155696 -0.216608 -0.963763 
0.0602307 -0.264387 -0.962534 -0.018659 -0.248932 -0.968341 -0.080433 -0.178938 -0.980567 
0.0793504 -0.0566603 -0.995235 -0.0528219 -0.115106 -0.991948 0.302104 0.0706893 -0.95065 
0.0642833 -0.213418 -0.974844 0.053085 0.0226015 -0.998334 0.0598906 -0.153537 -0.986326 
-0.0341593 -0.115503 -0.99272 0.0901606 -0.0517698 -0.994581 0.0665059 -0.0378838 -0.997067 
-0.0941095 -0.0623811 -0.993606 -0.267394 -0.0711548 -0.960956 -0.566244 -0.077944 -0.820544 
-0.579495 -0.129286 -0.804656 -0.467085 -0.0690218 -0.881514 0.0370714 -0.201902 -0.978704 
0.0696335 -0.125755 -0.989614 0.0354895 -0.194134 -0.980333 0.0288064 -0.190696 -0.981227 
0.125581 -0.0337682 -0.991508 0.180623 0.0120218 -0.983479 0.103598 -0.192663 -0.975781 
0.0479113 0.00165462 -0.99885 -0.0148795 -0.16331 -0.986463 0.0775273 -0.0661238 -0.994795 
0.101176 -0.0503116 -0.993596 0.0383371 -0.0730341 -0.996592 -0.0857122 -0.155878 -0.984051 
-0.58173 -0.133093 -0.802419 -0.261284 -0.0841579 -0.961586 0.175191 -0.13598 -0.975099 
0.1206 -0.231906 -0.965233 0.107793 -0.184247 -0.976951 0.148074 -0.207009 -0.967068 
0.11049 -0.163037 -0.980414 0.084232 -0.140628 -0.986473 0.00206459 -0.0857909 -0.996311 
0.0748609 -0.100292 -0.992138 0.0896742 -0.155109 -0.983819 -0.0382068 -0.212741 -0.976361 
-0.131436 -0.26504 -0.955237 -0.479631 -0.447417 -0.754833 -0.349676 -0.547666 -0.760124 
-0.321473 -0.454474 -0.830728 0.148636 -0.210788 -0.966165 0.0808316 -0.317738 -0.944727 
0.119603 -0.238004 -0.963872 -0.0076302 -0.372219 -0.928114 0.0287793 -0.231086 -0.972508 
-0.0501212 -0.422402 -0.905022 -0.00332493 -0.266921 -0.963713 -0.107994 -0.498444 -0.860169 
-0.0423701 -0.386852 -0.921168 -0.113439 -0.582962 -0.804542 -0.0872683 -0.515648 -0.852345 
-0.292021 -0.554234 -0.779454 -0.290726 -0.554809 -0.779529 -0.290495 -0.553439 -0.780588 

