# vtk DataFile Version 4.2
vtk output
ASCII
DATASET POLYDATA
POINTS 540 float
-29.0402 -14.9782 -23.0544 -21.0833 -38.8489 -17.2702 -13.1265 -38.8489 -19.3592 
-5.16959 -38.8489 -20.3545 2.78728 -38.8489 -20.3019 10.7442 -38.8489 -19.2534 
18.701 -38.8489 -17.0052 -36.9971 -30.892 -16.9577 -29.0402 -30.892 -20.5381 
-21.0833 -30.892 -21.6927 -13.1265 -30.892 -22.8866 -5.16959 -30.892 -22.4175 
2.78728 -30.892 -22.1366 10.7442 -30.892 -21.7446 18.701 -30.892 -20.337 
26.6579 -30.892 -18.6725 34.6148 -30.892 -15.4467 -44.9539 -22.9351 -17.2219 
-36.9971 -22.9351 -20.4976 -29.0402 -15.4983 -22.9897 -29.0402 -22.9351 -22.0542 
-21.0833 -22.9351 -22.6112 -13.1265 -22.9351 -22.7482 -5.16959 -22.9351 -22.7014 
2.78728 -22.9351 -22.0441 10.7442 -22.9351 -21.7967 18.701 -22.9351 -21.0072 
26.6579 -22.9351 -20.4361 34.6148 -22.9351 -19.2436 42.5716 -22.9351 -16.827 
-44.9539 -14.9782 -19.1518 -29.8227 -14.9782 -22.9897 -36.9971 -14.9782 -22.3622 
-28.5412 -14.9782 -22.9897 -29.0402 -14.4444 -22.9897 -21.0833 -14.9782 -22.0443 
-13.1265 -14.9782 -21.9227 -5.16959 -14.9782 -22.07 2.78728 -14.9782 -20.8254 
10.7442 -14.9782 -19.9613 18.701 -14.9782 -20.6175 26.6579 -14.9782 -21.552 
34.6148 -14.9782 -21.2357 42.5716 -14.9782 -19.2631 50.5285 -14.9782 -15.8521 
-52.9108 -7.02137 -15.6258 -44.9539 -7.02137 -20.0178 -36.9971 -7.02137 -21.7719 
-29.0402 -7.02137 -22.1108 -21.0833 -7.02137 -21.6077 -13.1265 -7.02137 -21.5156 
-5.16959 -7.02137 -22.9196 2.78728 -7.02137 -20.9968 10.7442 -7.02137 -19.5862 
18.701 -7.02137 -19.899 26.6579 -7.02137 -20.4922 34.6148 -7.02137 -20.6 
42.5716 -7.02137 -19.5782 50.5285 -7.02137 -17.0424 -52.9108 0.935498 -15.657 
-44.9539 0.935498 -19.5655 -36.9971 0.935498 -21.232 -29.0402 0.935498 -21.3732 
-21.0833 0.935498 -20.8851 -13.1265 0.935498 -21.5692 -5.16959 0.935498 -21.5547 
2.78728 0.935498 -19.9678 10.7442 0.935498 -21.5489 18.701 0.935498 -19.2564 
26.6579 0.935498 -19.5348 34.6148 0.935498 -19.7198 42.5716 0.935498 -18.8981 
50.5285 0.935498 -16.3847 -44.9539 8.89237 -18.2165 -36.9971 8.89237 -20.4905 
-29.0402 8.89237 -20.8091 -21.0833 8.89237 -19.8101 -13.1265 8.89237 -19.8732 
-5.16959 8.89237 -20.4822 2.78728 8.89237 -19.0626 10.7442 8.89237 -18.0912 
18.701 8.89237 -17.4572 26.6579 8.89237 -18.3618 34.6148 8.89237 -18.6762 
42.5716 8.89237 -17.8819 50.5285 8.89237 -15.4593 -44.9539 16.8492 -15.9994 
-36.9971 16.8492 -18.6769 -29.0402 16.8492 -19.5828 -21.0833 16.8492 -19.6871 
-13.1265 16.8492 -19.7304 -5.16959 16.8492 -19.7033 2.78728 16.8492 -17.0215 
10.7442 16.8492 -15.1853 18.701 16.8492 -16.2574 26.6579 16.8492 -17.4524 
34.6148 16.8492 -16.8319 42.5716 16.8492 -15.6449 -36.9971 24.8061 -16.8126 
-29.0402 24.8061 -18.7078 -21.0833 24.8061 -19.4399 -13.1265 24.8061 -19.5591 
-5.16959 24.8061 -18.4984 2.78728 24.8061 -16.146 18.701 24.8061 -15.1519 
26.6579 24.8061 -15.904 -29.0402 32.763 -16.4222 -21.0833 32.763 -17.4985 
-13.1265 32.763 -17.8044 -5.16959 32.763 -16.074 -21.0833 -40.7652 -15.0328 
-13.1265 -42.7946 -15.0328 -5.16959 -44.0098 -15.0328 2.78728 -44.5442 -15.0328 
2.78728 -46.8057 -9.14707 10.7442 -43.6153 -15.0328 18.701 -40.9366 -15.0328 
-36.9971 -32.8757 -15.0328 -26.2918 -38.8489 -15.0328 -29.0402 -37.6435 -15.0328 
-29.0402 -38.8489 -11.6212 23.3616 -38.8489 -15.0328 26.6579 -36.8507 -15.0328 
26.6579 -38.8489 -11.9249 34.6148 -31.3372 -15.0328 -39.7079 -30.892 -15.0328 
-44.9539 -26.0925 -15.0328 -44.9539 -30.892 -7.63335 35.3393 -30.892 -15.0328 
42.5716 -25.593 -15.0328 42.5716 -30.892 -8.75315 -47.5514 -22.9351 -15.0328 
45.4927 -22.9351 -15.0328 50.5285 -16.7775 -15.0328 50.5285 -22.9351 -10.3046 
-51.5493 -14.9782 -15.0328 -52.9108 -10.1324 -15.0328 -52.9108 -14.9782 -13.545 
51.6127 -14.9782 -15.0328 -53.5724 -7.02137 -15.0328 53.7161 -7.02137 -15.0328 
58.4854 -7.02137 -10.5716 -53.7319 0.935498 -15.0328 -52.9108 3.91525 -15.0328 
52.7736 0.935498 -15.0328 58.4854 0.935498 -10.2107 -51.076 8.89237 -15.0328 
-52.9108 8.89237 -13.7297 51.3916 8.89237 -15.0328 50.5285 10.3543 -15.0328 
58.4854 8.89237 -8.83369 -46.477 16.8492 -15.0328 -52.9108 16.8492 -9.34608 
-44.9539 19.3468 -15.0328 10.7442 19.1224 -15.0328 34.6148 23.5724 -15.0328 
44.4635 16.8492 -15.0328 42.5716 18.9735 -15.0328 50.5285 16.8492 -12.7831 
-40.621 24.8061 -15.0328 -44.9539 24.8061 -12.1855 -36.9971 28.6754 -15.0328 
8.61626 24.8061 -15.0328 2.78728 29.3009 -15.0328 16.8825 24.8061 -15.0328 
10.7442 24.8061 -14.6743 18.701 25.2276 -15.0328 32.564 24.8061 -15.0328 
26.6579 26.8978 -15.0328 34.6148 24.8061 -14.6949 42.5716 24.8061 -13.1705 
50.5285 24.8061 -7.44727 -32.2975 32.763 -15.0328 -36.9971 32.763 -12.391 
-29.0402 34.6923 -15.0328 -21.0833 37.2639 -15.0328 -13.1265 37.2272 -15.0328 
-0.894674 32.763 -15.0328 -5.16959 34.694 -15.0328 2.78728 32.763 -14.1378 
10.7442 32.763 -13.4506 18.701 32.763 -12.8641 26.6579 32.763 -12.0525 
34.6148 32.763 -10.4525 -29.0402 40.7199 -8.44775 -21.0833 40.7199 -11.8264 
-13.1265 40.7199 -11.6866 -5.16959 40.7199 -10.0559 2.78728 40.7199 -7.9994 
10.7442 40.7199 -7.32098 2.78728 -47.4028 -7.07597 -29.0402 -40.1258 -7.07597 
-21.0833 -42.953 -7.07597 -13.1265 -44.987 -7.07597 -2.67982 -46.8057 -7.07597 
-5.16959 -46.5369 -7.07597 7.35168 -46.8057 -7.07597 2.78728 -46.8057 -2.88747 
10.7442 -46.3741 -7.07597 18.701 -44.3072 -7.07597 26.6579 -40.8447 -7.07597 
-44.9539 -31.1344 -7.07597 -31.9078 -38.8489 -7.07597 -36.9971 -36.3347 -7.07597 
30.4903 -38.8489 -7.07597 34.6148 -36.5673 -7.07597 42.5716 -31.8516 -7.07597 
-45.2443 -30.892 -7.07597 43.885 -30.892 -7.07597 50.5285 -25.3551 -7.07597 
-52.8054 -22.9351 -7.07597 -52.9108 -22.7676 -7.07597 52.9163 -22.9351 -7.07597 
-56.9676 -14.9782 -7.07597 58.0825 -14.9782 -7.07597 58.4854 -13.8975 -7.07597 
58.4854 -14.9782 -3.56275 -59.029 -7.02137 -7.07597 60.8188 -7.02137 -7.07597 
-59.5991 0.935498 -7.07597 -60.8677 0.935498 -3.14801 60.8082 0.935498 -7.07597 
-58.1351 8.89237 -7.07597 59.6704 8.89237 -7.07597 58.4854 12.1755 -7.07597 
-54.7252 16.8492 -7.07597 -52.9108 19.7647 -7.07597 56.6759 16.8492 -7.07597 
58.4854 16.8492 -3.28284 -49.5179 24.8061 -7.07597 -44.9539 30.147 -7.07597 
42.5716 31.8929 -7.07597 50.9399 24.8061 -7.07597 50.5285 25.2694 -7.07597 
-42.3214 32.763 -7.07597 -36.9971 37.09 -7.07597 18.701 39.7331 -7.07597 
26.6579 38.3499 -7.07597 41.0122 32.763 -7.07597 34.6148 36.038 -7.07597 
42.5716 32.763 -5.41276 -30.7184 40.7199 -7.07597 -29.0402 41.5723 -7.07597 
-21.0833 43.5045 -7.07597 -13.1265 43.6088 -7.07597 -5.16959 42.5906 -7.07597 
2.78728 41.3807 -7.07597 12.1952 40.7199 -7.07597 10.7442 40.9008 -7.07597 
18.701 40.7199 -3.71266 -29.0402 -38.8901 0.880902 -21.0833 -41.721 0.880902 
-13.1265 -43.9604 0.880902 -5.16959 -45.4908 0.880902 2.78728 -46.2413 0.880902 
10.7442 -45.5764 0.880902 18.701 -43.6967 0.880902 26.6579 -40.5498 0.880902 
-44.9539 -31.0007 0.880902 -29.1406 -38.8489 0.880902 -36.9971 -35.395 0.880902 
-29.0402 -38.8489 0.971154 -21.0833 -38.8489 6.85665 30.2446 -38.8489 0.880902 
26.6579 -38.8489 4.66282 34.6148 -36.7871 0.880902 42.5716 -32.4967 0.880902 
-45.0885 -30.892 0.880902 -44.9539 -30.892 1.14642 44.644 -30.892 0.880902 
42.5716 -30.892 4.60196 50.5285 -26.1174 0.880902 -52.7464 -22.9351 0.880902 
-52.9108 -22.7297 0.880902 53.6324 -22.9351 0.880902 50.5285 -22.9351 7.39227 
58.4854 -15.7888 0.880902 -57.934 -14.9782 0.880902 58.9405 -14.9782 0.880902 
58.4854 -14.9782 2.13181 -60.7613 -7.02137 0.880902 -60.8677 -6.3587 0.880902 
62.0549 -7.02137 0.880902 -62.0355 0.935498 0.880902 -60.8677 6.98102 0.880902 
-60.8677 0.935498 6.92624 62.6278 0.935498 0.880902 -60.4985 8.89237 0.880902 
62.2685 8.89237 0.880902 -57.2329 16.8492 0.880902 -52.9108 23.4078 0.880902 
60.009 16.8492 0.880902 58.4854 19.6135 0.880902 58.4854 16.8492 7.83945 
-51.8391 24.8061 0.880902 -44.9539 32.0007 0.880902 55.0904 24.8061 0.880902 
50.5285 29.5746 0.880902 -44.0496 32.763 0.880902 -36.9971 38.2415 0.880902 
26.6579 40.6395 0.880902 34.6148 38.5486 0.880902 46.4299 32.763 0.880902 
42.5716 35.2517 0.880902 -32.3007 40.7199 0.880902 -29.0402 42.2649 0.880902 
-29.0402 40.7199 6.19583 -21.0833 44.333 0.880902 -13.1265 44.7606 0.880902 
-5.16959 44.1893 0.880902 2.78728 43.4268 0.880902 10.7442 42.4021 0.880902 
26.1014 40.7199 0.880902 18.701 41.7707 0.880902 18.701 40.7199 5.81903 
-13.1265 -39.792 8.83777 -5.16959 -40.9964 8.83777 2.78728 -41.4077 8.83777 
10.7442 -40.8717 8.83777 18.701 -39.6596 8.83777 -36.9971 -31.4526 8.83777 
-29.0402 -34.8555 8.83777 -16.8878 -38.8489 8.83777 -21.0833 -37.6805 8.83777 
-13.1265 -38.8489 9.85164 -5.16959 -38.8489 10.9735 2.78728 -38.8489 11.306 
10.7442 -38.8489 10.7448 21.0798 -38.8489 8.83777 18.701 -38.8489 9.71976 
26.6579 -36.7243 8.83777 34.6148 -33.4492 8.83777 -38.0743 -30.892 8.83777 
-44.9539 -26.6653 8.83777 -36.9971 -30.892 9.51503 -29.0402 -30.892 13.1651 
-21.0833 -30.892 15.1656 -13.1265 -30.892 15.4587 -5.16959 -30.892 15.7243 
2.78728 -30.892 15.817 10.7442 -30.892 15.7622 18.701 -30.892 15.3261 
26.6579 -30.892 14.4268 39.3033 -30.892 8.83777 34.6148 -30.892 11.7355 
42.5716 -28.8011 8.83777 -49.4823 -22.9351 8.83777 -52.9108 -18.8776 8.83777 
-44.9539 -22.9351 12.465 -36.9971 -22.9351 16.4112 49.6034 -22.9351 8.83777 
42.5716 -22.9351 14.1337 50.5285 -22.0397 8.83777 -55.1614 -14.9782 8.83777 
-52.9108 -14.9782 11.5774 55.6851 -14.9782 8.83777 50.5285 -14.9782 14.3458 
58.4854 -8.78768 8.83777 -58.5819 -7.02137 8.83777 -52.9108 -7.02137 16.1166 
59.2599 -7.02137 8.83777 58.4854 -7.02137 9.85354 -60.4287 0.935498 8.83777 
60.3936 0.935498 8.83777 58.4854 0.935498 11.5509 -59.0843 8.89237 8.83777 
60.544 8.89237 8.83777 58.4854 16.0259 8.83777 58.4854 8.89237 11.8816 
-55.9517 16.8492 8.83777 -52.9108 21.4301 8.83777 -52.9108 16.8492 13.5258 
58.2402 16.8492 8.83777 -50.2209 24.8061 8.83777 -44.9539 30.1071 8.83777 
-44.9539 24.8061 15.0355 53.2843 24.8061 8.83777 50.5285 27.6619 8.83777 
50.5285 24.8061 12.4221 -41.4655 32.763 8.83777 -36.9971 35.907 8.83777 
[...]
POINT_DATA 540
SCALARS ImageScalars float
LOOKUP_TABLE default
0 0 0 0 0 0 0 0 0 
0 0 0 0 0 0 0 0 0 
0 0 0 0 0 0 0 0 0 
0 0 0 0 0 0 0 0 0 
0 0 0 0 0 0 0 0 0 
0 0 0 0 0 0 0 0 0 
0 0 0 0 0 0 0 0 0 
0 0 0 0 0 0 0 0 0 
0 0 0 0 0 0 0 0 0 
0 0 0 0 0 0 0 0 0 
0 0 0 0 0 0 0 0 0 
0 0 0 0 0 0 0 0 0 
0 0 0 0 0 0 0 0 0 
0 0 0 0 0 0 0 0 0 
0 0 0 0 0 0 0 0 0 
0 0 0 0 0 0 0 0 0 
0 0 0 0 0 0 0 0 0 
0 0 0 0 0 0 0 0 0 
0 0 0 0 0 0 0 0 0 
0 0 0 0 0 0 0 0 0 
0 0 0 0 0 0 0 0 0 
0 0 0 0 0 0 0 0 0 
0 0 0 0 0 0 0 0 0 
0 0 0 0 0 0 0 0 0 
0 0 0 0 0 0 0 0 0 
0 0 0 0 0 0 0 0 0 
0 0 0 0 0 0 0 0 0 
0 0 0 0 0 0 0 0 0 
0 0 0 0 0 0 0 0 0 
0 0 0 0 0 0 0 0 0 
0 0 0 0 0 0 0 0 0 
0 0 0 0 0 0 0 0 0 
0 0 0 0 0 0 0 0 0 
0 0 0 0 0 0 0 0 0 
0 0 0 0 0 0 0 0 0 
0 0 0 0 0 0 0 0 0 
0 0 0 0 0 0 0 0 0 
0 0 0 0 0 0 0 0 0 
0 0 0 0 0 0 0 0 0 
0 0 0 0 0 0 0 0 0 
0 0 0 0 0 0 0 0 0 
0 0 0 0 0 0 0 0 0 
0 0 0 0 0 0 0 0 0 
0 0 0 0 0 0 0 0 0 
0 0 0 0 0 0 0 0 0 
0 0 0 0 0 0 0 0 0 
0 0 0 0 0 0 0 0 0 
0 0 0 0 0 0 0 0 0 
0 0 0 0 0 0 0 0 0 
0 0 0 0 0 0 0 0 0 
0 0 0 0 0 0 0 0 0 
0 0 0 0 0 0 0 0 0 
0 0 0 0 0 0 0 0 0 
0 0 0 0 0 0 0 0 0 
0 0 0 0 0 0 0 0 0 
0 0 0 0 0 0 0 0 0 
0 0 0 0 0 0 0 0 0 
0 0 0 0 0 0 0 0 0 
0 0 0 0 0 0 0 0 0 
0 0 0 0 0 0 0 0 0 

NORMALS Normals float
0.0228247 -0.00146458 -0.999738 -0.262416 -0.730825 -0.630105 -0.156768 -0.608756 -0.777715 
-0.0492068 -0.495926 -0.86697 0.0638171 -0.462144 -0.884506 0.17712 -0.488666 -0.854303 
0.303852 -0.612761 -0.729519 -0.482112 -0.570085 -0.66526 -0.254062 -0.389582 -0.885256 
-0.135199 -0.264815 -0.954774 -0.044955 -0.159466 -0.986179 0.0460943 -0.120132 -0.991687 
0.0400251 -0.0843992 -0.995628 0.117366 -0.142126 -0.982866 0.181703 -0.212427 -0.960135 
0.262516 -0.362192 -0.894373 0.420263 -0.586849 -0.692089 -0.53728 -0.394805 -0.745291 
-0.273047 -0.281471 -0.919902 0.0141719 -0.0108352 -0.999841 -0.124339 -0.147359 -0.981237 
-0.0424989 -0.0217481 -0.99886 -0.00562561 0.0597597 -0.998197 0.0439965 0.0219862 -0.99879 
0.0556557 0.0797554 -0.99526 0.0673117 0.11505 -0.991076 0.0804551 -0.0187308 -0.996582 
0.104379 -0.17151 -0.979637 0.202858 -0.295919 -0.933424 0.401804 -0.440236 -0.802961 
-0.443173 -0.151567 -0.88353 -0.0014322 -0.00792253 -0.999968 -0.221882 -0.066644 -0.972793 
0.0265968 0.00254211 -0.999643 0.022633 0.00571294 -0.999728 0.071847 0.0649258 -0.9953 
-0.00160638 0.077352 -0.997003 0.065968 -0.013058 -0.997736 0.135045 0.0675853 -0.988532 
0.0135068 0.131226 -0.991261 -0.100659 0.0710156 -0.992383 -0.0371918 -0.00215513 -0.999306 
0.143217 -0.0732769 -0.986975 0.302952 -0.140339 -0.942616 0.543657 -0.262884 -0.797075 
-0.649631 -0.0811176 -0.75591 -0.340507 -0.0217448 -0.93999 -0.12921 0.0705104 -0.989107 
0.010452 0.103506 -0.994574 0.0373157 0.0724544 -0.996673 -0.0830647 0.0228728 -0.996282 
0.0268321 0.0236751 -0.99936 0.210634 0.0515542 -0.976205 0.0666641 -0.0999315 -0.992759 
-0.0562174 0.0825473 -0.995 -0.0437091 0.124374 -0.991272 0.0552316 0.0925671 -0.994173 
0.207063 0.0216524 -0.978088 0.430131 -0.0307064 -0.902244 -0.587869 0.0916281 -0.80375 
-0.325345 0.1083 -0.939373 -0.10977 0.0757655 -0.991065 0.0212073 0.0819081 -0.996414 
-0.00968093 0.112072 -0.993653 -0.0441873 0.104705 -0.993521 0.101588 0.163913 -0.98123 
-0.00784231 0.123465 -0.992318 0.0503902 0.0428404 -0.99781 0.123242 0.150401 -0.980913 
-0.0287964 0.132888 -0.990713 0.0389102 0.119162 -0.992112 0.194489 0.0996081 -0.975834 
0.422246 0.0927946 -0.901719 -0.356487 0.199259 -0.912805 -0.155051 0.156933 -0.975362 
0.0432472 0.112197 -0.992744 0.0583989 0.0753502 -0.995446 -0.0429381 0.11125 -0.992864 
0.0498175 0.108122 -0.992889 0.140026 0.173718 -0.97479 0.10742 0.430601 -0.896127 
-0.0271455 0.186564 -0.982068 -0.0749139 0.12891 -0.988823 0.0266923 0.178353 -0.983604 
0.196451 0.194495 -0.96103 0.390803 0.195552 -0.899462 -0.431465 0.305842 -0.848704 
-0.201669 0.208637 -0.956975 -0.0600146 0.127561 -0.990013 -0.00919819 0.02277 -0.999698 
-0.00105678 0.0197659 -0.999804 0.150332 0.122421 -0.981027 0.29486 0.185922 -0.937278 
0.0365404 0.166548 -0.985356 -0.140226 0.13964 -0.980223 -0.0344832 0.160384 -0.986452 
0.102845 0.230377 -0.967651 0.217377 0.267233 -0.938794 -0.325552 0.310825 -0.892975 
-0.149109 0.17229 -0.973695 -0.0507104 0.128045 -0.990471 0.0565005 0.109435 -0.992387 
0.206566 0.209671 -0.955703 0.238481 0.161958 -0.957547 -0.0831639 0.204139 -0.975403 
0.0246966 0.297215 -0.954491 -0.252838 0.448994 -0.857017 -0.0721294 0.36159 -0.929543 
0.0807557 0.378545 -0.922053 0.210877 0.387969 -0.897224 -0.277941 -0.821836 -0.497328 
-0.185999 -0.844602 -0.502048 -0.0973558 -0.847478 -0.521827 0.0190871 -0.829166 -0.558677 
0.011235 -0.984067 -0.177443 0.187894 -0.795462 -0.576138 0.327556 -0.716629 -0.615751 
-0.505028 -0.660782 -0.55526 -0.347164 -0.803859 -0.482999 -0.382968 -0.778035 -0.497993 
-0.388252 -0.875921 -0.286398 0.385241 -0.696394 -0.605495 0.409424 -0.655324 -0.634762 
0.443371 -0.797434 -0.409293 0.428704 -0.602902 -0.672846 -0.538835 -0.621349 -0.568843 
-0.586534 -0.521115 -0.620014 -0.625356 -0.753582 -0.202595 0.430901 -0.598614 -0.675267 
0.440767 -0.53192 -0.723039 0.544125 -0.765579 -0.343244 -0.623628 -0.44303 -0.64406 
0.473364 -0.48566 -0.734889 0.561671 -0.320056 -0.762948 0.648034 -0.601192 -0.467569 
-0.621463 -0.266442 -0.736744 -0.658577 -0.157895 -0.735762 -0.698778 -0.301782 -0.648565 
0.582884 -0.271761 -0.765762 -0.673617 -0.0827536 -0.734433 0.558149 -0.0613116 -0.827472 
0.824794 -0.138965 -0.54809 -0.619247 0.0852833 -0.780551 -0.589495 0.153674 -0.793019 
0.5031 0.0759105 -0.860888 0.798566 0.0642606 -0.598467 -0.528718 0.249013 -0.811449 
-0.613025 0.261937 -0.745378 0.423893 0.196626 -0.884112 0.397006 0.233945 -0.8875 
0.801557 0.222534 -0.554964 -0.482352 0.317549 -0.816394 -0.728342 0.423613 -0.538581 
-0.459869 0.341132 -0.819847 0.0418184 0.143154 -0.988817 0.147407 0.312038 -0.938565 
0.268441 0.292931 -0.917677 0.247041 0.30224 -0.920664 0.473673 0.392766 -0.78827 
-0.410182 0.364448 -0.836019 -0.574303 0.47015 -0.670175 -0.383401 0.414925 -0.825131 
0.103973 0.110294 -0.988446 0.18862 0.277231 -0.942107 -0.0504901 0.17844 -0.982654 
0.0566714 0.094784 -0.993883 -0.0751755 0.214459 -0.973836 0.121303 0.320348 -0.939501 
0.0427079 0.352849 -0.934705 0.156736 0.33307 -0.929784 0.340501 0.439899 -0.830992 
0.609868 0.544926 -0.575428 -0.332579 0.486226 -0.808069 -0.483046 0.589735 -0.647209 
-0.272417 0.524746 -0.806493 -0.0955108 0.563548 -0.820544 0.0817785 0.58956 -0.803574 
0.17837 0.382326 -0.906648 0.206294 0.463522 -0.861737 0.149952 0.387831 -0.909451 
0.0756964 0.361565 -0.929269 0.0805188 0.44288 -0.892958 0.12643 0.562308 -0.817206 
0.29535 0.655138 -0.695387 -0.346491 0.852845 -0.39064 -0.113458 0.806261 -0.580578 
0.0686062 0.806589 -0.587118 0.15771 0.820616 -0.549288 0.112393 0.845701 -0.521687 
0.0931012 0.865409 -0.492341 0.0103379 -0.997299 -0.0727117 -0.376401 -0.92487 -0.0541988 
-0.28878 -0.956149 -0.0488306 -0.21703 -0.974561 -0.0559421 -0.0985185 -0.992883 -0.0669098 
-0.147156 -0.98689 -0.0662793 0.109697 -0.990955 -0.0772988 0.00208372 -0.99173 0.128322 
0.182328 -0.979574 -0.0848053 0.328861 -0.935518 -0.129061 0.434878 -0.886154 -0.16004 
-0.623196 -0.762293 -0.174743 -0.416708 -0.906502 -0.0678893 -0.494172 -0.863035 -0.104709 
0.4623 -0.867587 -0.183226 0.484013 -0.843599 -0.232534 0.549838 -0.794089 -0.259038 
-0.629893 -0.756352 -0.176541 0.56563 -0.783154 -0.258328 0.66963 -0.685413 -0.286013 
-0.791254 -0.567179 -0.228527 -0.793858 -0.562631 -0.230731 0.7191 -0.630885 -0.291339 
-0.891092 -0.357633 -0.279379 0.862125 -0.387902 -0.325996 0.872942 -0.357567 -0.33184 
0.898841 -0.418993 -0.128566 -0.91545 -0.143609 -0.375937 0.91584 -0.163921 -0.36656 
-0.910327 0.0508331 -0.410756 -0.975328 0.0329802 -0.218284 0.89468 0.0610826 -0.442512 
-0.87078 0.250336 -0.423171 0.846083 0.233776 -0.479054 0.825107 0.29815 -0.479902 
-0.780847 0.436472 -0.446957 -0.759557 0.490723 -0.426924 0.769472 0.384604 -0.509894 
0.874677 0.397084 -0.277966 -0.73136 0.558058 -0.392025 -0.67145 0.64782 -0.359839 
0.435806 0.712859 -0.549459 0.621111 0.548506 -0.559787 0.6133 0.558784 -0.558232 
-0.629227 0.700517 -0.336673 -0.544612 0.773606 -0.32393 0.127796 0.858944 -0.495867 
0.191389 0.8244 -0.532668 0.413691 0.729087 -0.545245 0.321589 0.793432 -0.516766 
0.453232 0.77122 -0.446991 -0.391497 0.865849 -0.311505 -0.350726 0.882142 -0.31435 
-0.112287 0.943174 -0.312752 0.0553908 0.934691 -0.35112 0.136716 0.911261 -0.388473 
0.105175 0.874366 -0.473731 0.100704 0.874014 -0.47535 0.0931355 0.874636 -0.47575 
0.126438 0.955437 -0.266745 -0.348527 -0.895541 0.276649 -0.286989 -0.916189 0.279706 
-0.218388 -0.935375 0.278172 -0.134812 -0.94727 0.290699 -0.005553 -0.949202 0.314618 
0.150847 -0.949504 0.275113 0.2825 -0.925304 0.252994 0.38501 -0.899168 0.207999 
-0.585222 -0.78873 0.188203 -0.349663 -0.895203 0.276309 -0.442028 -0.863275 0.243653 
-0.348149 -0.894778 0.279579 -0.262415 -0.830476 0.491374 0.409219 -0.892354 0.190381 
0.362059 -0.859684 0.360356 0.440821 -0.882639 0.163175 0.548344 -0.825337 0.134674 
-0.588974 -0.786034 0.187776 -0.584554 -0.786722 0.198405 0.583323 -0.801006 0.134624 
0.53877 -0.783435 0.30977 0.681893 -0.720039 0.128712 -0.761429 -0.637949 0.115093 
-0.766361 -0.63237 0.113133 0.74415 -0.654142 0.135424 0.64134 -0.630236 0.437591 
0.882667 -0.454277 0.120545 -0.892352 -0.442642 0.0881807 0.8932 -0.434476 0.115865 
0.881505 -0.438301 0.175617 -0.972751 -0.231343 0.0153631 -0.977453 -0.210926 0.00975023 
0.970597 -0.227348 0.0790837 -0.998798 0.0167259 -0.0460681 -0.975734 0.213797 -0.0472577 
-0.955691 -0.00872306 0.294243 0.999554 -0.0115229 0.0275654 -0.9604 0.274513 -0.0476802 
0.985861 0.164005 -0.0343451 -0.887121 0.45865 -0.051552 -0.792344 0.608839 -0.038818 
0.918979 0.389132 -0.063666 0.884099 0.462673 -0.0655959 0.872742 0.364908 0.32429 
-0.770491 0.636694 -0.0310665 -0.654531 0.755908 0.0138615 0.783131 0.616596 -0.0807152 
0.659863 0.748558 -0.0651312 -0.640107 0.767962 0.0223277 -0.536467 0.841841 0.0592259 
0.193573 0.981074 0.00478586 0.328831 0.94424 -0.0167688 0.553212 0.830952 -0.0589529 
0.470347 0.880592 -0.0577281 -0.425705 0.901338 0.0797797 -0.352214 0.931166 0.0942079 
-0.346988 0.890756 0.293518 -0.145126 0.987233 0.0656471 0.00943548 0.99966 0.0242886 
0.083726 0.996422 -0.0115668 0.111577 0.993613 -0.0168584 0.100203 0.994965 0.00222434 
0.187501 0.982255 0.00427493 0.109194 0.994009 -0.00487247 0.127191 0.958506 0.255126 
-0.166786 -0.761873 0.625885 -0.0846991 -0.743774 0.663043 0.00478316 -0.727904 0.685663 
0.0930169 -0.733669 0.67311 0.202738 -0.756127 0.622229 -0.37643 -0.762502 0.526205 
-0.300076 -0.772322 0.559886 -0.20437 -0.77286 0.600767 -0.240248 -0.779098 0.57904 
-0.155397 -0.73098 0.664469 -0.0730102 -0.666196 0.742194 0.0114488 -0.631145 0.77558 
0.0806243 -0.665944 0.741633 0.235014 -0.763285 0.601802 0.190249 -0.73046 0.655921 
0.295669 -0.771509 0.563342 0.372887 -0.76453 0.525783 -0.394217 -0.754582 0.524594 
-0.518007 -0.681501 0.516938 -0.371484 -0.74813 0.549818 -0.250876 -0.646313 0.720652 
-0.109541 -0.52043 0.846849 -0.0300104 -0.446047 0.894506 -0.020126 -0.358018 0.933498 
-0.00207118 -0.361991 0.932179 0.0264517 -0.410393 0.911525 0.0702835 -0.491601 0.867979 
0.170788 -0.574878 0.800217 0.447052 -0.730366 0.51644 0.343215 -0.689785 0.637496 
0.493139 -0.697838 0.519457 -0.615144 -0.623697 0.482286 -0.71332 -0.521179 0.468559 
-0.479198 -0.579268 0.659407 -0.256316 -0.45255 0.854108 0.604715 -0.611433 0.510362 
0.425197 -0.522736 0.738887 0.625626 -0.592199 0.507831 -0.76992 -0.430248 0.471285 
-0.677396 -0.427218 0.598849 0.747426 -0.424439 0.511083 0.552996 -0.376407 0.743312 
0.810704 -0.300712 0.502326 -0.85238 -0.276314 0.443958 -0.593862 -0.224424 0.772633 
0.826412 -0.259042 0.49994 0.798221 -0.263803 0.541527 -0.911863 -0.0194619 0.410034 
0.890766 -0.0697813 0.449073 0.81107 -0.0838337 0.57891 -0.903087 0.239072 0.356762 
0.906246 0.127231 0.403151 0.861482 0.333869 0.382596 0.82018 0.114321 0.560568 
-0.832495 0.445667 0.32914 -0.762025 0.558355 0.327958 -0.705342 0.433687 0.560722 
0.853686 0.356413 0.379724 -0.697332 0.631593 0.338849 -0.609707 0.720868 0.329555 
-0.550461 0.528343 0.64641 0.698536 0.615104 0.365643 0.627855 0.690529 0.359122 
0.603808 0.589531 0.536534 -0.556294 0.755352 0.346383 -0.486257 0.784048 0.385775 
-0.437371 0.700065 0.56446 -0.341124 0.850223 0.400942 0.13257 0.8929 0.430296 
0.0621084 0.544173 0.836671 0.183551 0.88326 0.431463 0.111285 0.624355 0.773173 
0.275201 0.867737 0.413881 0.23265 0.729009 0.643754 0.474217 0.798768 0.370253 
0.446434 0.814003 0.371613 0.437518 0.786986 0.435008 -0.293718 0.871509 0.392687 
-0.186095 0.905199 0.382078 -0.19119 0.850011 0.490844 -0.0250084 0.935361 0.35281 
-0.0302063 0.829042 0.55837 0.0901811 0.934912 0.34323 0.0943908 0.849219 0.519536 
0.119093 0.91861 0.376793 0.12603 0.880915 0.456185 0.110318 0.908837 0.402299 
0.104566 0.9114 0.398015 0.10541 0.90545 0.411155 -0.146697 -0.437325 0.887258 
-0.0599184 -0.403099 0.913193 0.00748682 -0.358005 0.93369 -5.59586e-05 -0.277088 0.960844 
-0.0221314 -0.314069 0.949142 -0.0033512 -0.374054 0.927401 0.0354738 -0.416971 0.908227 
0.113509 -0.43607 0.892725 0.240068 -0.445231 0.862634 -0.374976 -0.38006 0.845545 
-0.221619 -0.430063 0.875175 -0.243604 -0.427556 0.870548 -0.116456 -0.370125 0.921654 
-0.016285 -0.296338 0.954944 0.0448067 -0.262701 0.963836 0.0173097 -0.219061 0.975558 
-0.0532649 -0.267742 0.962017 -0.0559259 -0.328747 0.942761 0.00593584 -0.311217 0.95032 
0.08573 -0.338795 0.936946 0.271981 -0.430808 0.860483 0.225777 -0.410226 0.883595 
0.338046 -0.372699 0.864188 -0.381843 -0.373114 0.845566 -0.370657 -0.367978 0.852763 
-0.169728 -0.276634 0.945868 -0.0516607 -0.167056 0.984593 0.0120533 -0.116866 0.993075 
0.0514338 -0.155829 0.986444 -0.0222937 -0.172786 0.984707 -0.112925 -0.174801 0.978107 
-0.0201669 -0.227462 0.973578 0.0425597 -0.151704 0.987509 0.03502 -0.181958 0.982682 
0.15562 -0.239358 0.958379 0.384412 -0.326002 0.863684 0.301078 -0.300789 0.904919 
0.483683 -0.21768 0.847742 -0.542107 -0.215008 0.812337 -0.550467 -0.104262 0.828321 
-0.276584 -0.170403 0.945761 -0.0767354 -0.123739 0.989343 0.0359568 -0.072305 0.996734 
0.00181664 -0.00181317 0.999997 -0.00249879 0.0127717 0.999915 -0.00189674 -0.0904298 0.995901 
-0.126746 -0.0708161 0.989404 -0.0308252 -0.0478296 0.99838 0.0513112 -0.0513348 0.997362 
0.0111707 -0.115525 0.993242 0.0943313 -0.14263 0.985271 0.246462 -0.197088 0.948901 
0.486786 -0.20998 0.847908 0.480905 -0.209411 0.851398 -0.547311 -0.0738353 0.833666 
-0.540219 -0.074453 0.838224 -0.258628 -0.0489567 0.964736 -0.0593896 -0.0546548 0.996738 
0.0797255 -0.0618657 0.994895 0.0988445 -0.0255076 0.994776 -0.0381921 0.0621407 0.997336 
-0.104933 -0.0237723 0.994195 -0.0770393 -0.0871025 0.993216 0.00105203 0.0830382 0.996546 
-0.0220109 -0.00587248 0.99974 -0.0579083 -0.0745991 0.995531 0.0611809 -0.100559 0.993048 
0.2363 -0.111388 0.965275 0.544709 -0.101937 0.832407 0.477326 -0.104619 0.872476 
-0.609237 0.129095 0.78241 -0.597242 0.200251 0.77666 -0.563909 0.122697 0.816671 
-0.26116 0.0644422 0.963142 -0.0866916 -0.0157156 0.996111 0.0602766 -0.0529033 0.996779 
0.123626 -0.0919261 0.988062 0.00410222 -0.0744779 0.997214 -0.150865 0.0254366 0.988227 
-0.00928576 0.0752444 0.997122 0.0397382 0.112229 0.992887 -0.109061 0.019221 0.993849 
-0.0811636 0.0221765 0.996454 0.052258 0.0233366 0.998361 0.231052 0.0184915 0.972766 
0.572424 0.0622915 0.817588 0.487542 0.0380966 0.872268 -0.532747 0.345342 0.772606 
-0.487347 0.421963 0.764486 -0.386834 0.249004 0.887895 -0.184576 0.145864 0.971934 
0.00661391 0.0636086 0.997953 0.0795748 -0.046211 0.995757 0.0786524 -0.0816127 0.993556 
0.0309678 -0.00867748 0.999483 0.0150725 0.117451 0.992964 -0.050058 0.0887638 0.994794 
-0.115846 0.0967021 0.988549 -0.0494024 0.138883 0.989076 0.0612756 0.185692 0.980695 
0.232885 0.195914 0.952566 0.586578 0.273508 0.762312 0.562807 0.313228 0.764942 
0.556557 0.269755 0.785797 -0.464898 0.469211 0.750807 -0.356941 0.546984 0.757233 
-0.286044 0.397233 0.872 -0.123852 0.259174 0.957857 -0.0216353 0.144518 0.989266 
0.0388132 0.0741557 0.996491 0.056917 0.0633159 0.996369 0.0861181 0.125846 0.988305 
0.0213148 0.180137 0.983411 0.0503447 0.512722 0.857077 -0.0460404 0.274168 0.960579 
0.0941221 0.576222 0.811855 0.0113426 0.348148 0.937371 0.190633 0.571407 0.798219 
0.128147 0.413232 0.901564 0.385758 0.530934 0.75452 0.341136 0.559462 0.7554 
0.337488 0.528097 0.77924 -0.291979 0.581481 0.75936 -0.267699 0.585868 0.764916 
-0.259041 0.547565 0.795657 -0.159848 0.602667 0.781819 -0.129501 0.44877 0.884215 
-0.0308599 0.606037 0.794837 -0.012466 0.362534 0.931887 0.0942814 0.591731 0.800603 
0.0846733 0.375343 0.92301 0.14045 0.530895 0.835718 0.134203 0.412078 0.901211 
0.0811938 0.504959 0.859316 0.113247 0.486283 0.866432 0.109638 0.458272 0.882024 

