# vtk DataFile Version 4.2
vtk output
ASCII
DATASET POLYDATA
POINTS 558 float
-34.9301 -19.1471 -17.5997 -50.0441 -34.261 -10.5941 -42.4871 -34.261 -13.2398 
-34.9301 -34.261 -14.1607 -27.3732 -34.261 -13.1282 -19.8162 -34.261 -11.9499 
-50.0441 -26.704 -12.9982 -42.4871 -26.704 -15.2145 -34.9301 -19.3634 -17.556 
-34.9301 -26.704 -16.0235 -27.3732 -26.704 -16.312 -19.8162 -26.704 -14.8283 
-12.2593 -26.704 -14.2389 -4.7023 -26.704 -12.046 25.5255 -26.704 -10.8088 
33.0825 -26.704 -10.3716 40.6395 -26.704 -11.0504 -57.601 -19.1471 -11.8497 
-50.0441 -19.1471 -15.8015 -35.2628 -19.1471 -17.556 -42.4871 -19.1471 -16.6079 
-34.6901 -19.1471 -17.556 -34.9301 -18.7175 -17.556 -27.3732 -19.1471 -16.2886 
-19.8162 -19.1471 -15.1162 -12.2593 -19.1471 -14.7769 -4.7023 -19.1471 -14.7078 
2.85466 -19.1471 -11.0362 10.4116 -19.1471 -10.4872 17.9686 -19.1471 -11.6955 
25.5255 -19.1471 -12.4305 33.0825 -19.1471 -12.996 40.6395 -19.1471 -12.0207 
48.1964 -19.1471 -11.7891 -57.601 -11.5901 -13.33 -50.0441 -11.5901 -17.3869 
-42.4871 -11.5901 -17.0311 -34.9301 -11.5901 -16.8544 -27.3732 -11.5901 -16.4554 
-19.8162 -11.5901 -14.8799 -12.2593 -11.5901 -13.5116 -4.7023 -11.5901 -16.5082 
2.85466 -11.5901 -11.9213 10.4116 -11.5901 -11.8073 17.9686 -11.5901 -12.8691 
25.5255 -11.5901 -13.4674 33.0825 -11.5901 -13.9401 40.6395 -11.5901 -13.8039 
48.1964 -11.5901 -12.8533 55.7534 -11.5901 -11.4437 -57.601 -4.03316 -13.1302 
-50.0441 -4.03316 -15.5728 -42.4871 -4.03316 -17.105 -34.9301 -4.03316 -16.944 
-27.3732 -4.03316 -16.0701 -19.8162 -4.03316 -14.6894 -12.2593 -4.03316 -14.3308 
-4.7023 -4.03316 -16.9931 2.85466 -4.03316 -13.5644 10.4116 -4.03316 -14.6913 
17.9686 -4.03316 -13.7968 25.5255 -4.03316 -14.4223 33.0825 -4.03316 -15.1723 
40.6395 -4.03316 -15.3426 48.1964 -4.03316 -15.1315 55.7534 -4.03316 -12.4496 
-57.601 3.5238 -12.2578 -50.0441 3.5238 -16.3366 -42.4871 3.5238 -16.7393 
-34.9301 3.5238 -16.886 -27.3732 3.5238 -16.4925 -19.8162 3.5238 -15.9506 
-12.2593 3.5238 -17.4862 -4.7023 3.5238 -15.0836 2.85466 3.5238 -14.8919 
10.4116 3.5238 -15.1907 17.9686 3.5238 -13.9602 25.5255 3.5238 -15.0318 
33.0825 3.5238 -15.8627 40.6395 3.5238 -15.986 48.1964 3.5238 -15.9934 
55.7534 3.5238 -12.6946 -57.601 11.0808 -10.146 -50.0441 11.0808 -14.4427 
-42.4871 11.0808 -15.8097 -34.9301 11.0808 -16.6069 -27.3732 11.0808 -16.6624 
-19.8162 11.0808 -16.5336 -12.2593 11.0808 -16.7341 -4.7023 11.0808 -16.5689 
2.85466 11.0808 -15.2387 10.4116 11.0808 -13.9482 17.9686 11.0808 -14.4762 
25.5255 11.0808 -15.3633 33.0825 11.0808 -15.9096 40.6395 11.0808 -15.689 
48.1964 11.0808 -15.3176 55.7534 11.0808 -12.3844 -50.0441 18.6377 -11.1556 
-42.4871 18.6377 -14.7926 -34.9301 18.6377 -16.5046 -27.3732 18.6377 -16.6087 
-19.8162 18.6377 -16.6161 -12.2593 18.6377 -16.6405 -4.7023 18.6377 -16.7702 
2.85466 18.6377 -15.7053 10.4116 18.6377 -14.9104 17.9686 18.6377 -15.6054 
25.5255 18.6377 -16.0069 33.0825 18.6377 -16.7514 40.6395 18.6377 -14.5089 
48.1964 18.6377 -12.6929 -42.4871 26.1947 -12.2 -34.9301 26.1947 -14.8482 
-27.3732 26.1947 -16.2514 -19.8162 26.1947 -16.282 -12.2593 26.1947 -16.8209 
-4.7023 26.1947 -17.3662 2.85466 26.1947 -16.4714 10.4116 26.1947 -15.674 
17.9686 26.1947 -15.7676 25.5255 26.1947 -15.6665 33.0825 26.1947 -14.5797 
40.6395 26.1947 -13.2568 -34.9301 33.7516 -11.1377 -27.3732 33.7516 -13.3889 
-19.8162 33.7516 -15.0795 -12.2593 33.7516 -16.0985 -4.7023 33.7516 -16.7647 
2.85466 33.7516 -16.0045 10.4116 33.7516 -15.0652 17.9686 33.7516 -14.8147 
25.5255 33.7516 -13.8704 33.0825 33.7516 -11.8976 -19.8162 41.3086 -10.197 
-12.2593 41.3086 -12.7584 -4.7023 41.3086 -14.0782 2.85466 41.3086 -13.3603 
10.4116 41.3086 -12.0653 -50.0441 -34.9469 -9.99906 -42.4871 -38.1524 -9.99906 
-34.9301 -38.5857 -9.99906 -34.9301 -41.818 -2.65716 -27.3732 -38.4634 -9.99906 
-19.8162 -36.3059 -9.99906 -50.913 -34.261 -9.99906 -13.7769 -34.261 -9.99906 
-12.2593 -33.5607 -9.99906 -12.2593 -34.261 -8.63946 -4.7023 -29.3174 -9.99906 
17.9686 -34.261 -2.5655 25.5255 -28.1036 -9.99906 25.5255 -34.261 -5.40999 
33.0825 -27.6736 -9.99906 33.0825 -34.261 -6.50722 40.6395 -28.5651 -9.99906 
40.6395 -34.261 -5.99411 48.1964 -34.261 -3.84391 -56.0313 -26.704 -9.99906 
-57.601 -24.757 -9.99906 -57.601 -26.704 -8.69208 -1.57483 -26.704 -9.99906 
2.85466 -21.2063 -9.99906 2.85466 -26.704 -5.98828 10.4116 -20.3609 -9.99906 
10.4116 -26.704 -6.51221 20.261 -26.704 -9.99906 17.9686 -25.518 -9.99906 
17.9686 -26.704 -9.60527 43.8629 -26.704 -9.99906 48.1964 -23.4161 -9.99906 
48.1964 -26.704 -8.54724 55.7534 -26.704 -4.19044 -59.8358 -19.1471 -9.99906 
52.6505 -19.1471 -9.99906 55.7534 -15.4529 -9.99906 55.7534 -19.1471 -8.54845 
63.3103 -19.1471 -3.74211 -61.6256 -11.5901 -9.99906 -65.158 -11.5901 -2.77951 
58.3091 -11.5901 -9.99906 63.3103 -11.5901 -6.37826 -61.4685 -4.03316 -9.99906 
61.2381 -4.03316 -9.99906 63.3103 -4.03316 -9.0054 -60.3061 3.5238 -9.99906 
61.1463 3.5238 -9.99906 63.3103 3.5238 -8.6158 -57.7602 11.0808 -9.99906 
-57.601 11.3887 -9.99906 59.6212 11.0808 -9.99906 55.7534 17.0476 -9.99906 
63.3103 11.0808 -5.52346 -51.7014 18.6377 -9.99906 -50.0441 21.5921 -9.99906 
54.0016 18.6377 -9.99906 48.1964 24.873 -9.99906 55.7534 18.6377 -8.49873 
-46.5887 26.1947 -9.99906 -50.0441 26.1947 -6.15967 -42.4871 30.0025 -9.99906 
46.958 26.1947 -9.99906 40.6395 31.1015 -9.99906 48.1964 26.1947 -8.66449 
-37.4382 33.7516 -9.99906 -42.4871 33.7516 -5.28265 -34.9301 35.0331 -9.99906 
-27.3732 39.4784 -9.99906 17.9686 40.809 -9.99906 25.5255 39.4766 -9.99906 
36.9574 33.7516 -9.99906 33.0825 35.7447 -9.99906 40.6395 33.7516 -2.53314 
-20.6232 41.3086 -9.99906 -27.3732 41.3086 -6.26341 -19.8162 41.4661 -9.99906 
-12.2593 44.1737 -9.99906 -4.7023 45.6421 -9.99906 2.85466 45.0496 -9.99906 
16.8469 41.3086 -9.99906 10.4116 43.5689 -9.99906 17.9686 41.3086 -9.06673 
-34.9301 -41.8877 -2.4421 -50.0441 -38.3 -2.4421 -36.0559 -41.818 -2.4421 
-42.4871 -41.3875 -2.4421 -31.4452 -41.818 -2.4421 -34.9301 -41.818 -2.05663 
-27.3732 -41.7392 -2.4421 -19.8162 -39.2399 -2.4421 -12.2593 -36.4712 -2.4421 
17.9686 -34.3402 -2.4421 25.5255 -36.4387 -2.4421 33.0825 -37.8668 -2.4421 
40.6395 -37.8122 -2.4421 48.1964 -34.9752 -2.4421 -54.9492 -34.261 -2.4421 
-57.601 -31.2321 -2.4421 -7.67449 -34.261 -2.4421 -4.7023 -32.8368 -2.4421 
2.85466 -28.934 -2.4421 17.8301 -34.261 -2.4421 10.4116 -29.9127 -2.4421 
49.5634 -34.261 -2.4421 55.7534 -29.4972 -2.4421 55.7534 -34.261 3.87872 
-60.839 -26.704 -2.4421 58.1007 -26.704 -2.4421 63.3103 -20.9699 -2.4421 
-63.5409 -19.1471 -2.4421 -65.158 -12.2207 -2.4421 64.5654 -19.1471 -2.4421 
-65.2971 -11.5901 -2.4421 -65.158 -4.91461 -2.4421 -65.158 -11.5901 -1.8196 
67.0226 -11.5901 -2.4421 -65.1396 -4.03316 -2.4421 69.2469 -4.03316 -2.4421 
-64.095 3.5238 -2.4421 67.9025 3.5238 -2.4421 -61.5448 11.0808 -2.4421 
-57.601 18.2207 -2.4421 65.2964 11.0808 -2.4421 63.3103 14.2564 -2.4421 
-57.3368 18.6377 -2.4421 59.8556 18.6377 -2.4421 55.7534 22.2523 -2.4421 
-51.8987 26.1947 -2.4421 -50.0441 28.1253 -2.4421 -50.0441 26.1947 2.42949 
51.4199 26.1947 -2.4421 48.1964 28.7542 -2.4421 48.1964 26.1947 4.2376 
-43.9958 33.7516 -2.4421 -42.4871 34.9259 -2.4421 -42.4871 33.7516 1.00067 
-34.9301 39.3783 -2.4421 25.5255 41.2578 -2.4421 33.0825 38.2031 -2.4421 
40.6673 33.7516 -2.4421 40.6395 33.7703 -2.4421 40.6395 33.7516 -2.40318 
-30.184 41.3086 -2.4421 -27.3732 42.3668 -2.4421 -27.3732 41.3086 1.41635 
-19.8162 44.2773 -2.4421 -19.8162 41.3086 3.96723 -12.2593 45.9413 -2.4421 
-4.7023 47.1543 -2.4421 2.85466 47.0771 -2.4421 10.4116 45.5026 -2.4421 
25.3627 41.3086 -2.4421 17.9686 43.5236 -2.4421 17.9686 41.3086 4.03506 
-50.0441 -36.3202 5.11486 -42.4871 -39.0419 5.11486 -34.9301 -40.225 5.11486 
-27.3732 -39.556 5.11486 -19.8162 -37.6138 5.11486 -12.2593 -34.7543 5.11486 
17.9686 -34.6046 5.11486 25.5255 -37.5717 5.11486 33.0825 -41.1088 5.11486 
40.6395 -40.2381 5.11486 48.1964 -38.2903 5.11486 55.7534 -34.824 5.11486 
-52.5472 -34.261 5.11486 -57.601 -28.3335 5.11486 -50.0441 -34.261 7.46799 
-42.4871 -34.261 10.7838 -34.9301 -34.261 11.5779 -27.3732 -34.261 11.5137 
-19.8162 -34.261 9.8587 -11.1313 -34.261 5.11486 -12.2593 -34.261 5.90653 
-4.7023 -31.4384 5.11486 2.85466 -27.993 5.11486 17.4149 -34.261 5.11486 
10.4116 -29.6459 5.11486 17.9686 -34.261 5.83767 25.5255 -34.261 10.9788 
48.1964 -34.261 11.5574 56.3625 -34.261 5.11486 55.7534 -34.261 6.57144 
-58.7407 -26.704 5.11486 -57.601 -26.704 6.40741 -50.0441 -26.704 12.5126 
-4.7023 -26.704 11.4051 2.85466 -26.704 6.89652 10.4116 -26.704 9.10669 
62.0986 -26.704 5.11486 55.7534 -26.704 11.6449 63.3103 -24.8036 5.11486 
-60.3549 -19.1471 5.11486 -57.601 -19.1471 8.17791 66.1691 -19.1471 5.11486 
63.3103 -19.1471 9.67511 -62.9184 -11.5901 5.11486 -57.601 -11.5901 11.6418 
67.8705 -11.5901 5.11486 63.3103 -11.5901 12.0998 -62.9466 -4.03316 5.11486 
-57.601 -4.03316 11.5045 68.4484 -4.03316 5.11486 63.3103 -4.03316 11.7804 
-61.4451 3.5238 5.11486 -57.601 3.5238 9.78081 66.8435 3.5238 5.11486 
63.3103 3.5238 9.28082 -58.4614 11.0808 5.11486 -57.601 12.8662 5.11486 
-57.601 11.0808 6.21828 -50.0441 11.0808 11.5118 55.7534 11.0808 11.0646 
63.6034 11.0808 5.11486 63.3103 11.5042 5.11486 63.3103 11.0808 5.43092 
-54.1362 18.6377 5.11486 -50.0441 24.3735 5.11486 -50.0441 18.6377 9.37824 
-42.4871 18.6377 12.4411 33.0825 18.6377 12.3642 40.6395 18.6377 11.0895 
48.1964 25.5178 5.11486 48.1964 18.6377 9.59612 56.2295 18.6377 5.11486 
55.7534 19.0125 5.11486 55.7534 18.6377 5.51355 -48.3958 26.1947 5.11486 
-42.4871 31.4439 5.11486 -42.4871 26.1947 8.35115 -34.9301 26.1947 12.0938 
25.5255 26.1947 10.9676 33.0825 26.1947 9.27437 46.2062 26.1947 5.11486 
40.6395 27.7726 5.11486 40.6395 26.1947 6.33216 -39.1119 33.7516 5.11486 
-34.9301 35.8545 5.11486 -34.9301 33.7516 7.024 -27.3732 39.7411 5.11486 
-27.3732 33.7516 9.84626 -19.8162 40.5732 5.11486 -19.8162 33.7516 11.1497 
-12.2593 33.7516 11.5552 -4.7023 33.7516 12.572 10.4116 33.7516 12.4378 
[...]
POINT_DATA 558
SCALARS ImageScalars float
LOOKUP_TABLE default
0 0 0 0 0 0 0 0 0 
0 0 0 0 0 0 0 0 0 
0 0 0 0 0 0 0 0 0 
0 0 0 0 0 0 0 0 0 
0 0 0 0 0 0 0 0 0 
0 0 0 0 0 0 0 0 0 
0 0 0 0 0 0 0 0 0 
0 0 0 0 0 0 0 0 0 
0 0 0 0 0 0 0 0 0 
0 0 0 0 0 0 0 0 0 
0 0 0 0 0 0 0 0 0 
0 0 0 0 0 0 0 0 0 
0 0 0 0 0 0 0 0 0 
0 0 0 0 0 0 0 0 0 
0 0 0 0 0 0 0 0 0 
0 0 0 0 0 0 0 0 0 
0 0 0 0 0 0 0 0 0 
0 0 0 0 0 0 0 0 0 
0 0 0 0 0 0 0 0 0 
0 0 0 0 0 0 0 0 0 
0 0 0 0 0 0 0 0 0 
0 0 0 0 0 0 0 0 0 
0 0 0 0 0 0 0 0 0 
0 0 0 0 0 0 0 0 0 
0 0 0 0 0 0 0 0 0 
0 0 0 0 0 0 0 0 0 
0 0 0 0 0 0 0 0 0 
0 0 0 0 0 0 0 0 0 
0 0 0 0 0 0 0 0 0 
0 0 0 0 0 0 0 0 0 
0 0 0 0 0 0 0 0 0 
0 0 0 0 0 0 0 0 0 
0 0 0 0 0 0 0 0 0 
0 0 0 0 0 0 0 0 0 
0 0 0 0 0 0 0 0 0 
0 0 0 0 0 0 0 0 0 
0 0 0 0 0 0 0 0 0 
0 0 0 0 0 0 0 0 0 
0 0 0 0 0 0 0 0 0 
0 0 0 0 0 0 0 0 0 
0 0 0 0 0 0 0 0 0 
0 0 0 0 0 0 0 0 0 
0 0 0 0 0 0 0 0 0 
0 0 0 0 0 0 0 0 0 
0 0 0 0 0 0 0 0 0 
0 0 0 0 0 0 0 0 0 
0 0 0 0 0 0 0 0 0 
0 0 0 0 0 0 0 0 0 
0 0 0 0 0 0 0 0 0 
0 0 0 0 0 0 0 0 0 
0 0 0 0 0 0 0 0 0 
0 0 0 0 0 0 0 0 0 
0 0 0 0 0 0 0 0 0 
0 0 0 0 0 0 0 0 0 
0 0 0 0 0 0 0 0 0 
0 0 0 0 0 0 0 0 0 
0 0 0 0 0 0 0 0 0 
0 0 0 0 0 0 0 0 0 
0 0 0 0 0 0 0 0 0 
0 0 0 0 0 0 0 0 0 
0 0 0 0 0 0 0 0 0 
0 0 0 0 0 0 0 0 0 

NORMALS Normals float
-0.0253431 0.0498479 0.998435 0.484195 0.52228 0.701982 0.234999 0.470088 0.85076 
-0.00227747 0.476694 0.879066 -0.118512 0.516045 0.848323 -0.214461 0.610384 0.762521 
0.336833 0.33373 0.880436 0.161243 0.210404 0.964226 -0.0219147 0.0537887 0.998312 
0.0797777 0.203269 0.975868 -0.0796174 0.197531 0.977058 -0.131563 0.17637 0.975492 
-0.164626 0.290784 0.94252 -0.413068 0.503046 0.759157 0.0465245 0.373258 0.92656 
0.0243257 0.347199 0.937476 -0.115172 0.346712 0.930874 0.572773 0.211398 0.791986 
0.335428 0.25514 0.906858 -0.0197112 0.0539368 0.99835 0.109046 0.129826 0.985522 
-0.0297722 0.0488588 0.998362 -0.0255752 0.0445836 0.998678 -0.158231 0.008134 0.987369 
-0.104849 0.00300949 0.994484 -0.0269103 -0.0507493 0.998349 -0.204194 0.240419 0.948949 
-0.279999 0.243025 0.92873 0.0485427 0.279077 0.959041 0.124206 0.202337 0.971407 
0.0906277 0.163491 0.982373 -0.0223256 0.208085 0.977856 -0.0951946 0.1988 0.975406 
-0.192924 0.253349 0.947942 0.531953 0.0817812 0.842815 0.238051 -0.0402979 0.970416 
-0.0316669 0.0326435 0.998965 -0.0347518 -0.0417745 0.998523 -0.136867 -0.0149526 0.990477 
-0.184599 -0.0278989 0.982418 0.0841745 -0.042883 0.995528 0.00939415 0.152423 0.988271 
-0.318452 0.178535 0.930975 0.065675 0.269574 0.960738 0.106931 0.136187 0.984895 
0.0695346 0.129091 0.989192 0.0222454 0.150448 0.988368 -0.066924 0.202311 0.977032 
-0.163334 0.218745 0.962015 -0.351625 0.226978 0.908208 0.496337 -0.0726345 0.865086 
0.257578 -0.0559673 0.964635 0.0994619 -0.018841 0.994863 -0.0678125 0.00208644 0.997696 
-0.14396 0.00529046 0.989569 -0.112266 0.0719705 0.991068 0.119586 0.27675 0.953472 
-0.0829658 -0.0840317 0.993003 -0.10626 0.149424 0.983047 0.0110969 0.219998 0.975437 
-0.0146587 0.0711515 0.997358 0.0903384 0.103992 0.990467 0.0604396 0.126848 0.990079 
-0.0013619 0.146061 0.989275 -0.179243 0.193597 0.964568 -0.315574 0.0832715 0.94524 
0.557684 -0.189002 0.808249 0.295118 -0.0417356 0.954549 0.0319935 -0.0850008 0.995867 
-0.0166789 -0.0222586 0.999613 -0.0616016 0.0390323 0.997337 0.0571939 0.119032 0.991242 
-0.0246199 0.121977 0.992228 -0.187076 0.00641625 0.982324 0.00763081 0.130083 0.991474 
-0.0756485 -0.0582427 0.995432 0.00476051 0.0448832 0.998981 0.125128 0.0615614 0.990229 
0.0625294 0.046986 0.996937 0.00870673 0.0209017 0.999744 -0.195377 0.01141 0.980662 
-0.383702 -0.00582848 0.923438 0.628044 -0.350025 0.695013 0.38874 -0.29975 0.871224 
0.124961 -0.133842 0.983093 0.0537807 -0.0248164 0.998244 -0.00486093 0.00769374 0.999959 
0.00473711 0.0437743 0.99903 0.00248991 -0.0522159 0.998633 -0.0917368 0.0905605 0.991657 
-0.180464 0.0487434 0.982373 -0.0447558 -0.00312945 0.998993 0.0949068 0.110338 0.989352 
0.0964453 0.0655845 0.993175 0.0216613 0.0551969 0.99824 -0.0360622 -0.0957115 0.994756 
-0.223424 -0.180492 0.957865 -0.42792 -0.201918 0.880973 0.525126 -0.340667 0.779864 
0.278305 -0.183584 0.942785 0.133508 -0.129935 0.982493 0.00698872 -0.0254915 0.999651 
0.00210451 -0.0161544 0.999867 0.0101692 0.00572088 0.999932 -0.0592383 0.0531265 0.996829 
-0.125621 0.0806676 0.988793 -0.00421908 0.115936 0.993248 0.071997 0.0846257 0.993808 
0.0725951 0.0181728 0.997196 -0.0988633 -0.0837138 0.991574 -0.235981 -0.136347 0.962145 
-0.348669 -0.366176 0.862754 0.434696 -0.440493 0.785496 0.209161 -0.266827 0.940774 
0.0995886 -0.201393 0.974435 0.0381316 -0.0917758 0.995049 0.070595 -0.033606 0.996939 
-0.0230791 0.00140273 0.999733 -0.11126 0.0183534 0.993622 -0.0465227 0.00909558 0.998876 
-0.00103405 -0.0457114 0.998954 -0.0728443 -0.131702 0.988609 -0.149534 -0.276024 0.949447 
-0.34062 -0.384158 0.858138 0.328596 -0.611202 0.720039 0.206724 -0.430277 0.878708 
0.180407 -0.294737 0.938394 0.103526 -0.239278 0.965416 -0.00674528 -0.201166 0.979534 
-0.113848 -0.18827 0.975496 -0.0755417 -0.209015 0.97499 -0.0850282 -0.311777 0.946343 
-0.160651 -0.429312 0.888753 -0.363039 -0.583965 0.726077 0.253198 -0.773794 0.580632 
0.204509 -0.636745 0.743459 0.0345034 -0.56382 0.825177 -0.128452 -0.548364 0.826315 
-0.204723 -0.636218 0.743852 0.491955 0.561305 0.66552 0.219146 0.769641 0.59969 
0.0202145 0.77814 0.627765 0.0217866 0.996277 0.0834138 -0.124913 0.73193 0.669832 
-0.243519 0.736511 0.631071 0.514027 0.539959 0.666499 -0.329129 0.719808 0.611187 
-0.342226 0.705449 0.620663 -0.371698 0.784901 0.495754 -0.45558 0.637608 0.621211 
0.403863 0.853161 0.33017 0.0641508 0.418011 0.906174 0.17625 0.774802 0.607139 
0.0226716 0.388069 0.921351 0.0205466 0.730524 0.682578 -0.101065 0.408153 0.907302 
-0.0859142 0.645086 0.759265 -0.358417 0.785935 0.503829 0.614571 0.439237 0.655266 
0.645869 0.419771 0.637687 0.707328 0.492344 0.507233 -0.403972 0.572966 0.713104 
-0.293592 0.332201 0.896352 -0.248145 0.833235 0.494109 0.0670299 0.327177 0.942583 
0.207287 0.72384 0.658095 0.165774 0.403881 0.899666 0.201828 0.379377 0.902961 
0.223913 0.4284 0.875406 -0.246939 0.333467 0.909847 -0.319643 0.28561 0.903469 
-0.387754 0.325452 0.862397 -0.570966 0.486272 0.661465 0.669527 0.266454 0.693352 
-0.357612 0.35735 0.862795 -0.411687 0.331026 0.849079 -0.452892 0.406862 0.793317 
-0.712526 0.407731 0.571018 0.728382 0.0950005 0.678553 0.988814 0.0990547 0.11151 
-0.428735 0.262409 0.864481 -0.661832 0.322034 0.676958 0.723343 -0.0794662 0.685901 
-0.397648 0.123481 0.909191 -0.498253 0.148721 0.854181 0.687627 -0.222256 0.69121 
-0.505354 -0.0745423 0.859687 -0.644549 -0.158191 0.748019 0.634298 -0.353368 0.687602 
0.631646 -0.362714 0.685173 -0.575314 -0.262031 0.774825 -0.503325 -0.460014 0.731472 
-0.8176 -0.4236 0.389992 0.589277 -0.378227 0.713931 0.580227 -0.394572 0.712495 
-0.479437 -0.490878 0.727447 -0.504231 -0.528021 0.683334 -0.564769 -0.583008 0.58407 
0.535735 -0.485683 0.690725 0.70385 -0.621188 0.344559 0.478882 -0.549577 0.684571 
-0.510999 -0.545268 0.664502 -0.47881 -0.623306 0.618248 -0.56304 -0.621928 0.544234 
0.393447 -0.637626 0.662293 0.589008 -0.768771 0.24912 0.356564 -0.66419 0.65705 
0.281718 -0.712525 0.642607 -0.217671 -0.79183 0.570635 -0.245563 -0.788465 0.563934 
-0.458649 -0.67065 0.582983 -0.406019 -0.708263 0.577505 -0.541394 -0.833968 -0.106728 
0.258178 -0.779117 0.571245 0.309321 -0.906284 0.288044 0.255288 -0.78181 0.568859 
0.251837 -0.794736 0.552243 0.0544169 -0.8487 0.526067 -0.126951 -0.812264 0.569307 
-0.227027 -0.79473 0.562905 -0.249622 -0.765142 0.593503 -0.235418 -0.84646 0.477581 
0.0205598 0.997252 0.0711808 0.50107 0.862383 0.072281 0.0509738 0.99603 0.0729807 
0.234384 0.96912 0.0766227 -0.0662147 0.996714 0.0466487 0.0194872 0.998568 0.0498304 
-0.164959 0.986116 0.0190629 -0.31668 0.946612 0.0603329 -0.404555 0.913718 0.0381538 
0.40523 0.855609 0.322058 0.216845 0.896245 0.386941 0.0885528 0.835042 0.543013 
-0.166522 0.828156 0.535189 -0.379195 0.826255 0.416551 0.695672 0.71554 0.0635836 
0.79282 0.604757 0.0755318 -0.43379 0.899527 0.0517431 -0.451771 0.889447 0.0691839 
-0.174363 0.963774 0.201836 0.403921 0.856571 0.321145 0.300443 0.900352 0.314801 
-0.421812 0.798239 0.429987 -0.599715 0.566448 0.565224 -0.64692 0.755921 0.100388 
0.88279 0.463149 0.0785821 -0.628385 0.540982 0.55899 -0.731285 0.462566 0.501253 
0.955516 0.289393 0.056938 0.98926 0.113783 0.0917552 -0.775162 0.408714 0.481745 
0.991025 0.0984571 0.0904191 0.992976 -0.0547969 0.104863 0.993566 0.102111 0.0489866 
-0.862313 0.312916 0.39812 0.991522 -0.0751179 0.106025 -0.988302 0.0442789 0.145944 
0.965148 -0.242604 0.0981468 -0.957727 -0.236523 0.163758 0.915367 -0.396958 0.0672809 
0.849368 -0.522203 0.0766696 -0.875101 -0.457985 0.156358 -0.818304 -0.556696 0.143065 
0.8454 -0.528134 0.0798278 -0.722907 -0.686665 0.0767856 -0.684347 -0.728324 0.0348317 
0.749823 -0.659614 0.0517186 0.72303 -0.689535 0.0420633 0.686428 -0.643845 -0.338053 
-0.639375 -0.768845 0.00878798 -0.591174 -0.806308 -0.0195152 -0.440361 -0.707664 -0.552534 
0.619936 -0.784018 0.0315557 0.591046 -0.806166 0.0275675 0.583532 -0.781881 -0.219435 
0.429518 -0.902833 0.0201767 -0.327455 -0.938034 -0.113429 -0.439929 -0.892019 -0.103749 
-0.540519 -0.833641 -0.113496 -0.540392 -0.833705 -0.113636 -0.540565 -0.833243 -0.116172 
0.345182 -0.938519 0.00553254 0.300081 -0.953899 -0.00536515 0.270973 -0.926698 -0.260393 
0.240016 -0.96973 -0.0448985 0.134348 -0.852264 -0.505566 0.189082 -0.975465 -0.112765 
0.074286 -0.990237 -0.117951 -0.109541 -0.990974 -0.0772755 -0.231084 -0.969638 -0.0800144 
-0.326126 -0.938782 -0.111039 -0.271457 -0.962185 -0.0226214 -0.262929 -0.839848 -0.474894 
0.474423 0.718323 -0.508857 0.25323 0.816826 -0.518334 0.0140713 0.905237 -0.424674 
-0.149088 0.887127 -0.436782 -0.279359 0.881203 -0.381365 -0.355201 0.861717 -0.362321 
0.482504 0.850622 -0.208883 0.38559 0.914105 -0.125431 0.169424 0.97957 -0.108346 
-0.167854 0.98578 0.00792338 -0.352324 0.935864 0.0050972 -0.632876 0.773923 0.0225985 
0.57401 0.636416 -0.515254 0.714665 0.446937 -0.538052 0.480443 0.611844 -0.628349 
0.227115 0.599748 -0.767282 0.0292636 0.596154 -0.802337 -0.0699011 0.626227 -0.776501 
-0.229054 0.729191 -0.644838 -0.360677 0.861862 -0.356518 -0.348559 0.847991 -0.399272 
-0.394134 0.851139 -0.346728 -0.0995331 0.918473 -0.382754 0.478488 0.851707 -0.213645 
0.358073 0.876143 -0.322735 0.482667 0.838427 -0.253128 0.354778 0.731961 -0.581692 
-0.342529 0.701995 -0.624401 -0.663846 0.747506 0.0233126 -0.652674 0.751183 -0.0986905 
0.750505 0.402959 -0.5238 0.690211 0.406355 -0.598736 0.420785 0.295053 -0.857837 
-0.331949 0.601234 -0.726862 -0.0998131 0.86558 -0.490723 0.342606 0.745742 -0.571393 
-0.798667 0.598062 -0.0667299 -0.61184 0.339707 -0.714319 -0.83701 0.540094 -0.0878246 
0.798899 0.227588 -0.556744 0.693323 0.232459 -0.682104 -0.931812 0.310739 -0.187533 
-0.79915 0.297193 -0.522528 0.839056 0.126908 -0.529036 0.585585 0.138998 -0.798605 
-0.952671 0.161233 -0.257725 -0.602872 0.086819 -0.7931 0.845452 -0.0717138 -0.529214 
0.606761 -0.0701404 -0.791784 -0.899882 -0.0505825 -0.43319 -0.575782 -0.11459 -0.809533 
0.811966 -0.233556 -0.534942 0.642345 -0.20995 -0.737098 -0.833532 -0.303356 -0.461735 
-0.663275 -0.308617 -0.681778 0.779875 -0.339613 -0.525794 0.766415 -0.362277 -0.530437 
0.741855 -0.340284 -0.577805 0.409727 -0.228334 -0.883169 -0.405052 -0.392992 -0.825524 
-0.724987 -0.472321 -0.501306 -0.714625 -0.481517 -0.507398 -0.709087 -0.472287 -0.523585 
0.707247 -0.463273 -0.534022 0.621807 -0.55509 -0.552478 0.555474 -0.404269 -0.726646 
0.216268 -0.330219 -0.918795 -0.134375 -0.343276 -0.929573 -0.145404 -0.402074 -0.903988 
-0.403392 -0.667384 -0.625998 -0.291126 -0.511938 -0.808186 -0.513403 -0.667984 -0.538716 
-0.510849 -0.673215 -0.534616 -0.5021 -0.657511 -0.561761 0.57193 -0.577282 -0.582788 
0.484989 -0.651384 -0.583511 0.413381 -0.499293 -0.761461 0.29395 -0.391016 -0.872181 
-0.266875 -0.327342 -0.906435 -0.22985 -0.395997 -0.889019 -0.381101 -0.656336 -0.651141 
-0.348277 -0.603881 -0.716959 -0.295536 -0.577208 -0.761242 0.439364 -0.677137 -0.590292 
0.370532 -0.701088 -0.609247 0.333937 -0.628761 -0.702244 0.223603 -0.802653 -0.552947 
0.220724 -0.549826 -0.805588 0.111851 -0.793469 -0.598244 0.0982166 -0.512566 -0.853012 
0.0809633 -0.486302 -0.870032 0.0977419 -0.424426 -0.900172 -0.172927 -0.485552 -0.856934 
-0.256669 -0.783363 -0.566095 -0.268734 -0.478575 -0.835912 -0.303425 -0.661136 -0.686173 
-0.264546 -0.536074 -0.801648 -0.356689 -0.654012 -0.667115 -0.340254 -0.664429 -0.665404 
-0.333928 -0.642066 -0.690104 0.12482 -0.776862 -0.617175 0.13982 -0.753434 -0.642485 
0.131976 -0.732735 -0.667594 0.0833489 -0.761849 -0.642369 0.0840179 -0.700051 -0.709133 
-0.0604864 -0.792156 -0.607315 -0.0412457 -0.722319 -0.690329 -0.219056 -0.798216 -0.56113 
-0.154565 -0.802882 -0.575751 -0.143913 -0.7732 -0.617618 0.191237 0.691242 -0.69686 
-0.0881181 0.69564 -0.712966 0.206646 0.442598 -0.872585 0.0489592 0.51007 -0.858739 
-0.0473192 0.549746 -0.833991 -0.172414 0.549892 -0.817247 -0.224414 0.533217 -0.81567 
0.411993 0.569278 -0.711466 0.285435 0.650444 -0.703882 0.322979 0.606309 -0.726687 
0.16823 0.598012 -0.783633 -0.286542 0.616777 -0.73313 -0.112581 0.498307 -0.85966 
-0.334405 0.603414 -0.723924 0.403713 0.293069 -0.866676 0.409305 0.236655 -0.881172 
0.202314 0.306138 -0.930241 0.11042 0.327884 -0.938243 -0.0124939 0.362991 -0.931709 
-0.136092 0.399024 -0.906785 -0.265256 0.520688 -0.811494 -0.204783 0.472057 -0.857453 
-0.2846 0.480064 -0.829784 -0.0428928 0.498708 -0.865708 0.379934 0.552068 -0.742207 
0.274867 0.507435 -0.816675 0.383045 0.486591 -0.785179 0.210935 0.350341 -0.912561 
0.0641166 0.27692 -0.958751 0.0545058 0.264992 -0.962709 -0.541825 0.303023 -0.783966 
-0.367425 0.253189 -0.894927 -0.53177 0.271469 -0.8022 0.397888 0.12697 -0.908605 
0.384983 0.11879 -0.915247 0.261351 0.147169 -0.953959 0.133672 0.15568 -0.978721 
0.0162206 0.173779 -0.984651 -0.114272 0.202713 -0.972548 -0.159062 0.221113 -0.962189 
-0.185091 0.267289 -0.945673 -0.0317686 0.45775 -0.888513 0.219238 0.389692 -0.894469 
0.226958 0.179007 -0.957312 0.137157 0.0821779 -0.987135 0.0460402 0.0670528 -0.996687 
-0.139366 0.0442058 -0.989254 -0.182599 -0.0907281 -0.978992 -0.574102 0.234997 -0.784336 
-0.398478 0.191346 -0.896996 0.506347 0.135491 -0.851619 0.334185 0.120703 -0.934747 
0.203291 0.0648869 -0.976966 0.118305 0.0510715 -0.991663 0.029348 0.02089 -0.999351 
-0.0640251 0.0325911 -0.997416 -0.138485 0.0887275 -0.986382 -0.0712912 0.232793 -0.96991 
0.0374158 0.210465 -0.976885 0.068396 0.252289 -0.965232 0.0599182 0.00114614 -0.998203 
0.0742509 -0.0673905 -0.99496 0.0310739 -0.106037 -0.993877 -0.111907 -0.0639544 -0.991659 
-0.187114 -0.0269676 -0.981968 -0.544715 0.0692807 -0.835755 -0.331407 -0.0631766 -0.94137 
0.526721 -0.0625625 -0.847733 0.359329 -0.0402414 -0.932343 0.19382 -0.0311652 -0.980542 
0.0965053 -0.0380503 -0.994605 -0.00265803 -0.0574575 -0.998344 -0.0516946 -0.0903979 -0.994563 
0.0420109 -0.0995815 -0.994142 -0.0626893 0.188906 -0.979992 -0.0172982 0.0609932 -0.997988 
0.0127571 0.131276 -0.991264 -0.0920387 0.00915242 -0.995713 0.0328706 -0.103988 -0.994035 
0.0470523 -0.152292 -0.987215 -0.0598577 -0.131311 -0.989532 -0.193255 -0.116808 -0.974171 
-0.484954 -0.115201 -0.866919 -0.304574 -0.121518 -0.944705 0.452115 -0.207458 -0.867499 
0.367972 -0.21033 -0.905736 0.368332 -0.203828 -0.907075 0.202327 -0.162324 -0.965772 
0.0925336 -0.122861 -0.988101 -0.0217988 -0.119272 -0.992622 -0.110588 -0.104772 -0.988328 
0.113053 -0.0840828 -0.990025 0.112812 -0.136733 -0.984163 0.000316914 0.00494217 -0.999988 
0.0129654 -0.0450736 -0.9989 -0.180467 -0.0386163 -0.982823 -0.0864159 -0.129366 -0.987824 
0.00324188 -0.17835 -0.983962 -0.077972 -0.229795 -0.970111 -0.188668 -0.21469 -0.958286 
-0.33272 -0.201829 -0.921174 -0.312572 -0.223738 -0.923169 -0.289315 -0.181299 -0.939908 
0.346459 -0.214741 -0.913155 0.221423 -0.315016 -0.922896 0.277236 -0.228545 -0.933224 
0.134499 -0.185589 -0.973379 0.0143328 -0.143617 -0.98953 -0.0162655 -0.0595953 -0.99809 
0.0308278 0.00809077 -0.999492 0.0288889 -0.186654 -0.982001 0.0485313 -0.0602378 -0.997004 
-0.0301591 -0.151964 -0.987926 -0.178614 -0.177551 -0.967767 -0.101216 -0.187465 -0.977043 
-0.124846 -0.331594 -0.935125 -0.0604352 -0.245847 -0.967423 -0.115915 -0.3462 -0.930972 
-0.107602 -0.312247 -0.943887 -0.198397 -0.305268 -0.93137 -0.171261 -0.313508 -0.934014 
-0.165421 -0.295777 -0.940825 0.206102 -0.319903 -0.924762 0.263601 -0.354557 -0.897109 
0.18523 -0.263377 -0.946743 0.110759 -0.188353 -0.975836 0.0469774 -0.126073 -0.990908 
-0.00317646 -0.10038 -0.994944 0.0184496 -0.127259 -0.991698 0.0389816 -0.0669601 -0.996994 
-0.099406 -0.139121 -0.985273 -0.215706 -0.16737 -0.962007 -0.139634 -0.315475 -0.938604 
-0.188605 -0.270825 -0.943971 -0.153414 -0.249403 -0.956171 0.233523 -0.362063 -0.902429 
0.158968 -0.369031 -0.915721 0.141406 -0.319116 -0.937107 0.087747 -0.40369 -0.910678 
0.0748636 -0.289521 -0.95424 0.0634991 -0.414159 -0.907987 0.0339766 -0.278029 -0.959972 
0.0966819 -0.416011 -0.904205 0.0630664 -0.214609 -0.974662 0.0366565 -0.197831 -0.979551 
-0.170195 -0.468146 -0.867106 -0.132016 -0.247844 -0.959763 -0.28211 -0.287306 -0.915352 
-0.280934 -0.324321 -0.903268 -0.282953 -0.267172 -0.921171 0.0830086 -0.42618 -0.900822 
-0.128431 -0.472654 -0.871839 -0.00840377 -0.467692 -0.883852 -0.00506371 -0.438272 -0.898828 

