# vtk DataFile Version 4.2
vtk output
ASCII
DATASET POLYDATA
POINTS 502 float
-5.7607 3.59483 -24.4312 -13.234 -26.2985 -19.5971 -5.7607 -26.2985 -20.6347 
1.71263 -26.2985 -20.7604 9.18596 -26.2985 -19.2661 -28.1807 -18.8252 -18.0325 
-20.7074 -18.8252 -21.4569 -13.234 -18.8252 -23.728 -5.7607 -18.8252 -23.9486 
1.71263 -18.8252 -23.8678 9.18596 -18.8252 -22.5437 16.6593 -18.8252 -19.296 
-35.654 -11.3518 -18.2919 -28.1807 -11.3518 -21.0675 -20.7074 -11.3518 -22.9065 
-13.234 -11.3518 -23.9847 -5.7607 -11.3518 -23.6301 1.71263 -11.3518 -23.4772 
9.18596 -11.3518 -23.6578 16.6593 -11.3518 -21.2525 24.1326 -11.3518 -18.8842 
-43.1274 -3.8785 -17.0117 -35.654 -3.8785 -21.1008 -28.1807 -3.8785 -22.743 
-20.7074 -3.8785 -23.2251 -13.234 -3.8785 -23.6791 -5.7607 3.26627 -24.382 
-5.7607 -3.8785 -23.2871 1.71263 -3.8785 -22.7189 9.18596 -3.8785 -24.26 
16.6593 -3.8785 -22.6994 24.1326 -3.8785 -19.7588 31.6059 -3.8785 -17.9075 
-43.1274 3.59483 -18.4887 -35.654 3.59483 -22.069 -28.1807 3.59483 -23.5403 
-20.7074 3.59483 -23.2404 -6.11707 3.59483 -24.382 -13.234 3.59483 -23.396 
-5.18823 3.59483 -24.382 -5.7607 3.84106 -24.382 1.71263 3.59483 -23.7868 
9.18596 3.59483 -23.6211 16.6593 3.59483 -22.7216 24.1326 3.59483 -20.3536 
31.6059 3.59483 -17.7157 -43.1274 11.0682 -17.6924 -35.654 11.0682 -21.7133 
-28.1807 11.0682 -22.9645 -20.7074 11.0682 -22.675 -13.234 11.0682 -22.0092 
-5.7607 11.0682 -22.9226 1.71263 11.0682 -23.3187 9.18596 11.0682 -23.0628 
16.6593 11.0682 -23.0106 24.1326 11.0682 -21.4675 31.6059 11.0682 -18.7818 
-35.654 18.5415 -19.7219 -28.1807 18.5415 -21.8498 -20.7074 18.5415 -21.7197 
-13.234 18.5415 -21.4874 -5.7607 18.5415 -22.5506 1.71263 18.5415 -23.8513 
9.18596 18.5415 -24.0393 16.6593 18.5415 -23.8462 24.1326 18.5415 -22.3511 
31.6059 18.5415 -19.3653 -28.1807 26.0148 -18.8786 -20.7074 26.0148 -19.9926 
-13.234 26.0148 -21.1 -5.7607 26.0148 -22.682 1.71263 26.0148 -23.7526 
9.18596 26.0148 -24.0228 16.6593 26.0148 -23.6455 24.1326 26.0148 -21.9982 
31.6059 26.0148 -17.832 -13.234 33.4882 -18.1363 -5.7607 33.4882 -20.2748 
1.71263 33.4882 -22.1497 9.18596 33.4882 -22.3037 16.6593 33.4882 -21.0924 
24.1326 33.4882 -18.613 -13.234 -29.064 -16.9087 -13.234 -33.7718 -9.84343 
-5.7607 -30.2963 -16.9087 -5.7607 -33.7718 -12.5047 1.71263 -30.8503 -16.9087 
1.71263 -33.7718 -13.6617 9.18596 -29.4216 -16.9087 9.18596 -33.7718 -12.906 
16.6593 -33.7718 -10.2993 -28.1807 -20.4198 -16.9087 -28.1807 -26.2985 -10.4722 
-20.0002 -26.2985 -16.9087 -20.7074 -25.9153 -16.9087 -20.7074 -26.2985 -16.5149 
15.3457 -26.2985 -16.9087 16.6593 -25.0657 -16.9087 16.6593 -26.2985 -16.3826 
24.1326 -26.2985 -13.4618 31.6059 -26.2985 -9.79135 -30.2518 -18.8252 -16.9087 
-35.654 -13.8214 -16.9087 -35.654 -18.8252 -12.837 23.4966 -18.8252 -16.9087 
24.1326 -18.137 -16.9087 24.1326 -18.8252 -16.6959 31.6059 -18.8252 -14.6825 
39.0793 -18.8252 -10.3486 -38.011 -11.3518 -16.9087 -43.1274 -4.11467 -16.9087 
-43.1274 -11.3518 -12.495 31.4292 -11.3518 -16.9087 31.6059 -11.0153 -16.9087 
31.6059 -11.3518 -16.8598 39.0793 -11.3518 -13.5132 -43.2484 -3.8785 -16.9087 
33.9541 -3.8785 -16.9087 39.0793 -3.8785 -14.4744 -44.9492 3.59483 -16.9087 
33.5509 3.59483 -16.9087 39.0793 3.59483 -14.491 -44.0321 11.0682 -16.9087 
-43.1274 13.1595 -16.9087 34.7275 11.0682 -16.9087 39.0793 11.0682 -13.8262 
-39.9894 18.5415 -16.9087 -43.1274 18.5415 -13.6201 -35.654 23.717 -16.9087 
34.8742 18.5415 -16.9087 39.0793 18.5415 -12.6938 -32.7033 26.0148 -16.9087 
-35.654 26.0148 -14.9161 -28.1807 28.6416 -16.9087 -20.7074 33.1429 -16.9087 
32.7366 26.0148 -16.9087 31.6059 27.656 -16.9087 39.0793 26.0148 -9.5788 
-28.1807 33.4882 -11.0742 -19.8627 33.4882 -16.9087 -20.7074 33.4882 -16.6233 
-13.234 35.0713 -16.9087 -5.7607 37.5986 -16.9087 1.71263 39.1198 -16.9087 
9.18596 39.2114 -16.9087 16.6593 37.7896 -16.9087 26.4789 33.4882 -16.9087 
24.1326 35.0976 -16.9087 31.6059 33.4882 -10.7976 1.71263 40.9615 -12.5939 
9.18596 40.9615 -12.3063 -13.234 -34.0069 -9.43539 -5.7607 -35.9046 -9.43539 
1.71263 -36.9333 -9.43539 9.18596 -36.6153 -9.43539 16.6593 -34.5155 -9.43539 
-28.1807 -27.0073 -9.43539 -13.8936 -33.7718 -9.43539 -20.7074 -31.1496 -9.43539 
-20.7074 -33.7718 -3.41622 18.3714 -33.7718 -9.43539 24.1326 -30.894 -9.43539 
24.1326 -33.7718 -5.33937 31.6059 -26.6809 -9.43539 -29.2927 -26.2985 -9.43539 
-35.654 -21.7457 -9.43539 32.1461 -26.2985 -9.43539 39.0793 -20.0999 -9.43539 
-39.5519 -18.8252 -9.43539 -43.1274 -15.0299 -9.43539 40.1783 -18.8252 -9.43539 
-45.4998 -11.3518 -9.43539 44.3165 -11.3518 -9.43539 46.5526 -11.3518 -6.43233 
-48.6563 -3.8785 -9.43539 45.9978 -3.8785 -9.43539 46.5526 -3.8785 -8.78385 
-49.5059 3.59483 -9.43539 -50.6007 3.59483 -3.46945 45.7885 3.59483 -9.43539 
46.5526 3.59483 -8.50243 -48.5878 11.0682 -9.43539 44.0643 11.0682 -9.43539 
46.5526 11.0682 -5.6689 -45.3836 18.5415 -9.43539 -43.1274 21.8424 -9.43539 
42.0823 18.5415 -9.43539 -39.4799 26.0148 -9.43539 -35.654 29.5893 -9.43539 
39.1855 26.0148 -9.43539 39.0793 26.157 -9.43539 -29.7451 33.4882 -9.43539 
-28.1807 34.3695 -9.43539 -20.7074 37.319 -9.43539 -13.234 39.4037 -9.43539 
-5.7607 40.8964 -9.43539 16.6593 40.8215 -9.43539 24.1326 38.4777 -9.43539 
32.5237 33.4882 -9.43539 31.6059 34.2785 -9.43539 -5.31458 40.9615 -9.43539 
1.71263 41.9867 -9.43539 15.6631 40.9615 -9.43539 9.18596 41.8495 -9.43539 
-20.7074 -34.3274 -1.96206 -13.234 -37.1607 -1.96206 -5.7607 -39.3423 -1.96206 
1.71263 -40.3279 -1.96206 1.71263 -41.2451 4.74095 9.18596 -40.1795 -1.96206 
16.6593 -38.5954 -1.96206 24.1326 -35.6341 -1.96206 -21.8219 -33.7718 -1.96206 
-28.1807 -30.4206 -1.96206 27.6739 -33.7718 -1.96206 31.6059 -31.5392 -1.96206 
-34.4805 -26.2985 -1.96206 -35.654 -25.4488 -1.96206 -35.654 -26.2985 1.35906 
38.718 -26.2985 -1.96206 39.0793 -25.9911 -1.96206 39.0793 -26.2985 0.212857 
-43.0759 -18.8252 -1.96206 -43.1274 -18.7631 -1.96206 -43.1274 -18.8252 -1.62985 
45.3208 -18.8252 -1.96206 46.5526 -16.5212 -1.96206 -48.0257 -11.3518 -1.96206 
48.9927 -11.3518 -1.96206 -50.4391 -3.8785 -1.96206 -50.6007 -1.01661 -1.96206 
50.547 -3.8785 -1.96206 -50.8588 3.59483 -1.96206 -50.6007 4.97062 -1.96206 
-50.6007 3.59483 0.576069 50.2955 3.59483 -1.96206 -49.3804 11.0682 -1.96206 
48.4029 11.0682 -1.96206 46.5526 15.735 -1.96206 -46.0797 18.5415 -1.96206 
-43.1274 22.6818 -1.96206 45.3657 18.5415 -1.96206 -40.137 26.0148 -1.96206 
-35.654 29.9116 -1.96206 40.698 26.0148 -1.96206 39.0793 28.0823 -1.96206 
39.0793 26.0148 2.99821 -29.4734 33.4882 -1.96206 -28.1807 34.1548 -1.96206 
-28.1807 33.4882 -0.196245 -20.7074 36.9057 -1.96206 -20.7074 33.4882 5.31414 
-13.234 38.7706 -1.96206 -5.7607 40.1685 -1.96206 16.6593 40.2673 -1.96206 
24.1326 38.2605 -1.96206 33.1892 33.4882 -1.96206 31.6059 34.6373 -1.96206 
31.6059 33.4882 0.659737 0.268712 40.9615 -1.96206 1.71263 41.1476 -1.96206 
1.71263 40.9615 -1.47049 10.8149 40.9615 -1.96206 9.18596 41.1521 -1.96206 
9.18596 40.9615 -1.39815 1.71263 -41.3444 5.51127 -20.7074 -35.823 5.51127 
-13.234 -38.4834 5.51127 0.711925 -41.2451 5.51127 -5.7607 -40.568 5.51127 
5.39909 -41.2451 5.51127 1.71263 -41.2451 6.05311 9.18596 -41.1434 5.51127 
16.6593 -39.5717 5.51127 24.1326 -36.7338 5.51127 -35.654 -27.3381 5.51127 
-25.0657 -33.7718 5.51127 -28.1807 -32.2432 5.51127 29.687 -33.7718 5.51127 
31.6059 -32.6609 5.51127 39.0793 -27.0229 5.51127 -36.8944 -26.2985 5.51127 
-43.1274 -19.9919 5.51127 -35.654 -26.2985 12.5454 39.8838 -26.2985 5.51127 
39.0793 -26.2985 7.29683 -44.0266 -18.8252 5.51127 -43.1274 -18.8252 8.90007 
46.2711 -18.8252 5.51127 46.5526 -18.3309 5.51127 -48.1644 -11.3518 5.51127 
49.9022 -11.3518 5.51127 -50.0856 -3.8785 5.51127 51.594 -3.8785 5.51127 
-50.0692 3.59483 5.51127 51.1685 3.59483 5.51127 -48.4044 11.0682 5.51127 
48.7171 11.0682 5.51127 46.5526 15.2668 5.51127 46.5526 11.0682 9.71401 
-44.4263 18.5415 5.51127 -43.1274 20.2201 5.51127 -43.1274 18.5415 7.79436 
44.5674 18.5415 5.51127 39.0793 25.015 5.51127 39.0793 18.5415 12.2663 
-36.7827 26.0148 5.51127 -35.654 26.875 5.51127 -35.654 26.0148 6.6763 
-28.1807 31.011 5.51127 -28.1807 26.0148 10.6558 -20.7074 33.3661 5.51127 
-20.7074 26.0148 12.0678 38.0655 26.0148 5.51127 31.6059 31.342 5.51127 
31.6059 26.0148 11.3668 -20.2482 33.4882 5.51127 -13.234 35.1563 5.51127 
-13.234 33.4882 7.45023 -5.7607 36.7838 5.51127 -5.7607 33.4882 9.17333 
1.71263 37.8317 5.51127 1.71263 33.4882 10.345 9.18596 38.1712 5.51127 
9.18596 33.4882 10.5877 16.6593 37.3236 5.51127 16.6593 33.4882 9.88755 
27.5626 33.4882 5.51127 24.1326 35.2031 5.51127 24.1326 33.4882 7.64785 
-20.7074 -35.1335 12.9846 -13.234 -37.4574 12.9846 -5.7607 -39.0985 12.9846 
1.71263 -39.8488 12.9846 9.18596 -39.283 12.9846 16.6593 -37.3334 12.9846 
24.1326 -34.3235 12.9846 -23.7097 -33.7718 12.9846 -28.1807 -31.5326 12.9846 
-20.7074 -33.7718 15.8525 -13.234 -33.7718 19.5942 9.18596 -33.7718 19.8081 
16.6593 -33.7718 17.4806 25.1555 -33.7718 12.9846 24.1326 -33.7718 13.7101 
31.6059 -29.8969 12.9846 -35.5687 -26.2985 12.9846 -35.654 -26.2113 12.9846 
24.1326 -26.2985 19.9051 36.2106 -26.2985 12.9846 31.6059 -26.2985 16.7792 
39.0793 -23.4737 12.9846 -41.8213 -18.8252 12.9846 -43.1274 -16.2031 12.9846 
-35.654 -18.8252 19.4416 42.9803 -18.8252 12.9846 39.0793 -18.8252 16.8217 
46.5526 -12.2758 12.9846 -45.2095 -11.3518 12.9846 -43.1274 -11.3518 15.6875 
39.0793 -11.3518 19.8297 46.9797 -11.3518 12.9846 46.5526 -11.3518 13.52 
-46.5177 -3.8785 12.9846 -43.1274 -3.8785 16.5784 39.0793 -3.8785 20.3634 
48.6513 -3.8785 12.9846 46.5526 -3.8785 15.33 -46.2458 3.59483 12.9846 
-43.1274 3.59483 16.3832 -35.654 3.59483 20.1336 39.0793 3.59483 19.3887 
47.8023 3.59483 12.9846 46.5526 6.60909 12.9846 46.5526 3.59483 14.3626 
-44.0851 11.0682 12.9846 -43.1274 12.7249 12.9846 -43.1274 11.0682 13.8948 
-35.654 11.0682 18.1588 -28.1807 11.0682 19.5724 -20.7074 11.0682 19.2308 
-13.234 11.0682 18.7683 -5.7607 11.0682 20.4158 9.18596 11.0682 20.3369 
16.6593 11.0682 19.8233 24.1326 11.0682 19.4479 31.6059 11.0682 18.5443 
[...]
POINT_DATA 502
SCALARS ImageScalars float
LOOKUP_TABLE default
0 0 0 0 0 0 0 0 0 
0 0 0 0 0 0 0 0 0 
0 0 0 0 0 0 0 0 0 
0 0 0 0 0 0 0 0 0 
0 0 0 0 0 0 0 0 0 
0 0 0 0 0 0 0 0 0 
0 0 0 0 0 0 0 0 0 
0 0 0 0 0 0 0 0 0 
0 0 0 0 0 0 0 0 0 
0 0 0 0 0 0 0 0 0 
0 0 0 0 0 0 0 0 0 
0 0 0 0 0 0 0 0 0 
0 0 0 0 0 0 0 0 0 
0 0 0 0 0 0 0 0 0 
0 0 0 0 0 0 0 0 0 
0 0 0 0 0 0 0 0 0 
0 0 0 0 0 0 0 0 0 
0 0 0 0 0 0 0 0 0 
0 0 0 0 0 0 0 0 0 
0 0 0 0 0 0 0 0 0 
0 0 0 0 0 0 0 0 0 
0 0 0 0 0 0 0 0 0 
0 0 0 0 0 0 0 0 0 
0 0 0 0 0 0 0 0 0 
0 0 0 0 0 0 0 0 0 
0 0 0 0 0 0 0 0 0 
0 0 0 0 0 0 0 0 0 
0 0 0 0 0 0 0 0 0 
0 0 0 0 0 0 0 0 0 
0 0 0 0 0 0 0 0 0 
0 0 0 0 0 0 0 0 0 
0 0 0 0 0 0 0 0 0 
0 0 0 0 0 0 0 0 0 
0 0 0 0 0 0 0 0 0 
0 0 0 0 0 0 0 0 0 
0 0 0 0 0 0 0 0 0 
0 0 0 0 0 0 0 0 0 
0 0 0 0 0 0 0 0 0 
0 0 0 0 0 0 0 0 0 
0 0 0 0 0 0 0 0 0 
0 0 0 0 0 0 0 0 0 
0 0 0 0 0 0 0 0 0 
0 0 0 0 0 0 0 0 0 
0 0 0 0 0 0 0 0 0 
0 0 0 0 0 0 0 0 0 
0 0 0 0 0 0 0 0 0 
0 0 0 0 0 0 0 0 0 
0 0 0 0 0 0 0 0 0 
0 0 0 0 0 0 0 0 0 
0 0 0 0 0 0 0 0 0 
0 0 0 0 0 0 0 0 0 
0 0 0 0 0 0 0 0 0 
0 0 0 0 0 0 0 0 0 
0 0 0 0 0 0 0 0 0 
0 0 0 0 0 0 0 0 0 
0 0 0 0 0 0 0 
NORMALS Normals float
0.0260194 -0.0249075 0.999351 0.202894 0.624955 0.753834 0.0624278 0.575376 0.815503 
-0.0786425 0.534671 0.841393 -0.247467 0.502077 0.828661 0.423012 0.476029 0.771011 
0.334685 0.327051 0.883755 0.147557 0.229297 0.962107 0.00862799 0.159218 0.987206 
-0.084094 0.143958 0.986004 -0.280271 0.258727 0.924396 -0.356123 0.283582 0.890369 
0.415632 0.41005 0.811855 0.278778 0.27595 0.919856 0.188702 0.106374 0.976256 
0.046513 -0.00468376 0.998907 -0.0341727 -0.04365 0.998462 0.00205659 -0.0758753 0.997115 
-0.132596 0.106996 0.985378 -0.320443 0.208001 0.924149 -0.271386 0.186122 0.944303 
0.620801 0.265484 0.737648 0.328482 0.22061 0.918385 0.140007 0.159635 0.977197 
0.061401 0.0214935 0.997882 0.00482654 -0.0391773 0.999221 0.0221631 -0.0216305 0.99952 
-0.0649225 0.0553907 0.996352 0.0675208 0.0225158 0.997464 0.00602197 -0.00286133 0.999978 
-0.301243 0.0910827 0.949187 -0.303316 0.0952839 0.948114 -0.323362 0.0561838 0.944606 
0.604656 0.0403543 0.795464 0.30737 0.0404341 0.950731 0.0723761 0.0139461 0.99728 
-0.00930324 -0.0365546 0.999288 0.0285806 -0.0291343 0.999167 0.0794723 -0.111683 0.990561 
0.0198872 -0.0201818 0.999599 0.0280677 -0.028124 0.99921 -0.0543848 0.0389335 0.997761 
-0.069369 -0.0808827 0.994307 -0.212795 0.0207722 0.976876 -0.313408 0.107585 0.943505 
-0.357516 0.0543295 0.932325 0.641123 -0.203363 0.740003 0.304024 -0.130601 0.94367 
0.0635466 -0.107792 0.992141 -0.0634392 -0.100023 0.992961 0.0158412 -0.126253 0.991872 
0.0894242 -0.126805 0.987889 0.00897617 0.00343521 0.999954 -0.0207511 0.0283348 0.999383 
-0.100859 0.073925 0.99215 -0.273699 0.129802 0.953016 -0.435606 0.101733 0.89437 
0.39533 -0.35682 0.8464 0.11122 -0.240006 0.964379 -0.0237113 -0.171663 0.98487 
0.0522631 -0.0618967 0.996713 0.158106 -0.0165529 0.987283 0.095978 0.0294966 0.994946 
-0.000577884 0.0643857 0.997925 -0.112013 0.0427408 0.992787 -0.282248 0.0334436 0.958758 
-0.523165 -0.0475869 0.850902 0.245995 -0.494361 0.833723 0.138338 -0.304654 0.942363 
0.165674 -0.197185 0.966266 0.181516 -0.133706 0.974256 0.0873664 -0.0923338 0.991888 
-0.00628337 -0.0961475 0.995347 -0.132951 -0.155487 0.97885 -0.345276 -0.193205 0.918399 
-0.591543 -0.31969 0.740186 0.215343 -0.557754 0.801585 0.23804 -0.47996 0.844379 
0.126399 -0.440133 0.888992 -0.0603151 -0.457743 0.887036 -0.203637 -0.541931 0.815379 
-0.413746 -0.612482 0.673558 0.215508 0.72567 0.653421 0.259678 0.853459 0.451858 
0.0892215 0.719385 0.688857 0.138328 0.811369 0.567931 -0.0331677 0.687703 0.725234 
0.010995 0.779411 0.626416 -0.212307 0.600147 0.7712 -0.152955 0.74216 0.652537 
-0.294906 0.723495 0.624167 0.437223 0.530188 0.726455 0.46845 0.736493 0.487988 
0.364437 0.665997 0.650872 0.379305 0.652475 0.656052 0.380339 0.671015 0.63646 
-0.304917 0.465053 0.831114 -0.324066 0.424547 0.845424 -0.317238 0.458765 0.829997 
-0.342369 0.518952 0.783245 -0.442065 0.613024 0.654813 0.444786 0.510489 0.735912 
0.44688 0.46773 0.762579 0.508134 0.620828 0.596969 -0.268026 0.309181 0.912452 
-0.260409 0.300096 0.917676 -0.261414 0.312891 0.913105 -0.351454 0.388926 0.851597 
-0.550471 0.456417 0.699046 0.471455 0.429758 0.770089 0.620987 0.271089 0.735449 
0.676405 0.456534 0.577973 -0.311879 0.1787 0.933165 -0.313662 0.172909 0.933658 
-0.313345 0.178746 0.932665 -0.517393 0.22185 0.82649 0.625564 0.264751 0.733878 
-0.368413 0.0525672 0.928175 -0.488726 0.055369 0.870679 0.687786 0.0387662 0.724878 
-0.384773 0.0330004 0.922421 -0.492681 -0.0345161 0.869525 0.680935 -0.212328 0.700888 
0.663982 -0.264239 0.699504 -0.511604 0.0372445 0.858414 -0.618213 -0.0924894 0.78055 
0.581901 -0.405951 0.704696 0.750684 -0.451807 0.48202 0.470772 -0.512932 0.717826 
-0.612385 -0.0909677 0.785309 -0.728786 -0.187393 0.658601 0.401067 -0.548484 0.733697 
0.540223 -0.611386 0.578244 0.309274 -0.583098 0.751229 0.277837 -0.627439 0.727411 
-0.62117 -0.324566 0.713306 -0.600896 -0.387531 0.699102 -0.792063 -0.462122 0.398848 
0.42754 -0.843911 0.324073 0.274008 -0.634788 0.72247 0.285226 -0.654886 0.699836 
0.227134 -0.641455 0.732766 0.208733 -0.740319 0.639029 0.0850715 -0.820813 0.564826 
-0.0750598 -0.837346 0.541495 -0.228723 -0.782204 0.57952 -0.473858 -0.63435 0.610785 
-0.413042 -0.698279 0.58464 -0.619041 -0.717616 0.319086 0.0685118 -0.960011 0.271448 
-0.0788624 -0.964589 0.251694 0.262929 0.856891 0.443402 0.168286 0.848748 0.501305 
0.0410147 0.852249 0.521526 -0.13083 0.820109 0.55705 -0.291675 0.746467 0.598091 
0.469252 0.754505 0.458829 0.272104 0.854756 0.441986 0.377978 0.817662 0.434236 
0.392893 0.870061 0.297704 -0.311806 0.733896 0.603469 -0.366818 0.681601 0.633138 
-0.403083 0.804281 0.436641 -0.444958 0.623637 0.64272 0.480569 0.747194 0.459081 
0.532635 0.700177 0.475449 -0.453362 0.618067 0.642228 -0.559732 0.496311 0.663608 
0.60014 0.653412 0.461395 0.706016 0.549924 0.446233 -0.580936 0.466255 0.667173 
0.779659 0.454341 0.430935 -0.696876 0.252802 0.67116 -0.81714 0.282548 0.502443 
0.89912 0.217962 0.379573 -0.729468 0.0669992 0.680726 -0.761252 0.0695212 0.644718 
0.947266 -0.00501502 0.320408 0.994642 -0.054036 0.088135 -0.731967 -0.0916925 0.675143 
-0.776121 -0.100737 0.622485 0.926638 -0.261272 0.27033 -0.745579 -0.179466 0.641797 
-0.867132 -0.256957 0.42668 0.83848 -0.47588 0.265499 0.786813 -0.564757 0.248946 
-0.796788 -0.257854 0.546479 0.698186 -0.674158 0.24093 0.609666 -0.758572 0.229947 
-0.793793 -0.465064 0.391928 -0.791912 -0.469632 0.390284 0.460907 -0.859904 0.219383 
0.430803 -0.875122 0.220385 0.318984 -0.928188 0.191614 0.231635 -0.959218 0.162009 
0.167395 -0.97942 0.112765 -0.208016 -0.970339 0.123174 -0.373544 -0.912924 0.164422 
-0.636199 -0.729715 0.250532 -0.611432 -0.752533 0.244634 0.161091 -0.980646 0.111282 
0.0632442 -0.992937 0.100384 -0.190275 -0.97441 0.119665 -0.0785274 -0.991671 0.10209 
0.395445 0.87892 0.266688 0.309009 0.912516 0.268006 0.196263 0.941551 0.273794 
0.052757 0.96277 0.265124 0.0377306 0.999287 0.00120498 -0.109452 0.958025 0.264968 
-0.275483 0.919408 0.280711 -0.410875 0.861841 0.29734 0.409226 0.872135 0.268169 
0.482424 0.827503 0.287239 -0.455071 0.840581 0.293828 -0.505817 0.811235 0.293339 
0.563762 0.779556 0.272883 0.580245 0.769718 0.266176 0.607808 0.77643 0.16651 
-0.623918 0.731793 0.274235 -0.631948 0.725042 0.273781 -0.649386 0.74234 0.165013 
0.744786 0.642631 0.179775 0.746683 0.640647 0.178984 0.749643 0.640017 0.168563 
-0.814182 0.509836 0.277805 -0.854714 0.436807 0.28047 0.893847 0.425813 0.140433 
-0.90878 0.299243 0.290814 0.982354 0.16812 0.0819561 0.994845 0.0786907 0.0639656 
-0.943932 0.0811682 0.320006 0.997299 -0.0650387 0.0341259 0.993952 -0.106287 0.0276048 
0.9952 -0.0753986 -0.0623818 -0.943403 -0.136954 0.302051 0.955072 -0.296259 -0.00828139 
-0.922693 -0.300111 0.242015 -0.905156 -0.388194 0.173203 0.863302 -0.502587 -0.0460108 
0.78921 -0.610395 -0.0675676 -0.888693 -0.440737 0.126392 0.701485 -0.706166 -0.0961654 
0.583616 -0.800653 -0.13545 -0.80787 -0.588656 -0.0288131 -0.769033 -0.637445 -0.0474638 
-0.710691 -0.635085 -0.30263 0.428647 -0.88681 -0.172712 0.402861 -0.897371 -0.180077 
0.389335 -0.88486 -0.255816 0.287285 -0.931774 -0.221958 0.225803 -0.798683 -0.55778 
0.20589 -0.950437 -0.232979 0.155498 -0.960824 -0.229427 -0.179594 -0.962973 -0.201069 
-0.32693 -0.926611 -0.185768 -0.563737 -0.8154 -0.131617 -0.520036 -0.840516 -0.151969 
-0.501487 -0.821554 -0.271221 0.0815597 -0.968305 -0.23608 0.0632971 -0.968997 -0.238826 
0.064082 -0.964504 -0.256175 -0.0829805 -0.974628 -0.207882 -0.0567923 -0.975971 -0.210369 
-0.0552365 -0.971345 -0.231166 0.0360893 0.998976 -0.0272878 0.379561 0.923968 0.0470691 
0.299092 0.954105 0.0150884 0.055838 0.998112 -0.0256008 0.186559 0.982325 -0.0152767 
-0.0384073 0.998574 -0.0370661 0.034874 0.998143 -0.0499393 -0.114304 0.992311 -0.0474599 
-0.276907 0.958608 -0.0662856 -0.41438 0.907374 -0.0704392 0.628024 0.777042 0.0423265 
0.433109 0.899414 0.0589187 0.478649 0.875695 0.0636705 -0.497138 0.864398 -0.0752981 
-0.528975 0.844969 -0.078819 -0.663224 0.741893 -0.0986348 0.651552 0.757936 0.03184 
0.797744 0.600652 -0.0531197 0.66292 0.691326 -0.287412 -0.678684 0.72752 -0.100517 
-0.6644 0.72382 -0.186165 0.818427 0.57101 -0.0642316 0.812741 0.543799 -0.209129 
-0.844992 0.523875 -0.107446 -0.854505 0.508296 -0.107032 0.918129 0.363567 -0.157666 
-0.941512 0.319094 -0.108322 0.96908 0.112971 -0.219367 -0.992065 0.0808749 -0.0962575 
0.96188 -0.0955107 -0.256251 -0.974321 -0.181251 -0.133592 0.901421 -0.332882 -0.276822 
-0.898958 -0.392948 -0.19356 -0.855453 -0.454813 -0.24768 -0.7888 -0.417393 -0.451196 
0.7717 -0.545903 -0.326297 0.734001 -0.588095 -0.339687 0.710415 -0.555154 -0.432567 
-0.794073 -0.524011 -0.307996 -0.647608 -0.632523 -0.424875 -0.490699 -0.530226 -0.691429 
0.532827 -0.72929 -0.429223 0.505962 -0.740971 -0.441547 0.487248 -0.726916 -0.483925 
0.31961 -0.785715 -0.529623 0.222539 -0.652968 -0.723954 0.222404 -0.792037 -0.568519 
0.12594 -0.530019 -0.838582 -0.623438 -0.641531 -0.446948 -0.449048 -0.739132 -0.502035 
-0.378486 -0.566693 -0.731851 0.22095 -0.792059 -0.569055 0.191731 -0.789102 -0.583573 
0.180801 -0.724831 -0.664779 0.149438 -0.813406 -0.562173 0.141941 -0.685909 -0.71371 
0.0769589 -0.831139 -0.550713 0.0704092 -0.653605 -0.753554 -0.0297976 -0.841826 -0.538925 
-0.0230334 -0.64226 -0.766141 -0.16742 -0.832448 -0.528205 -0.139196 -0.673101 -0.726333 
-0.38151 -0.770379 -0.510849 -0.322226 -0.794179 -0.515218 -0.314195 -0.732418 -0.604024 
0.352629 0.900325 -0.255084 0.247274 0.922444 -0.29657 0.15056 0.926029 -0.346123 
0.0133441 0.928958 -0.369943 -0.148435 0.895881 -0.418765 -0.289874 0.844144 -0.450993 
-0.402541 0.786902 -0.467702 0.404072 0.880193 -0.248968 0.490296 0.829693 -0.266871 
0.342187 0.848638 -0.403388 0.18108 0.744003 -0.643172 -0.174441 0.625838 -0.760196 
-0.279653 0.678351 -0.679437 -0.416381 0.78006 -0.467047 -0.400684 0.767914 -0.49976 
-0.499346 0.718879 -0.483597 0.66061 0.684783 -0.30768 0.662694 0.682073 -0.309213 
-0.299911 0.441448 -0.845681 -0.576908 0.655212 -0.487723 -0.451871 0.585186 -0.673328 
-0.624985 0.600891 -0.498321 0.775821 0.484942 -0.40365 0.800326 0.41093 -0.436595 
0.54649 0.321922 -0.77312 -0.699739 0.491301 -0.518641 -0.560224 0.448597 -0.696355 
-0.792535 0.311477 -0.524281 0.825004 0.262401 -0.500514 0.746699 0.216798 -0.62884 
-0.459379 0.17641 -0.870546 -0.800742 0.287981 -0.525243 -0.785517 0.284509 -0.549562 
0.806524 0.0595203 -0.588197 0.673669 0.0294219 -0.738447 -0.392879 -0.0261997 -0.919217 
-0.814438 0.0503029 -0.578066 -0.728701 0.0346846 -0.683953 0.784509 -0.122642 -0.607869 
0.638178 -0.140889 -0.756888 0.290697 -0.183335 -0.939086 -0.365919 -0.23752 -0.899826 
-0.765361 -0.220027 -0.604823 -0.720874 -0.300924 -0.624329 -0.7118 -0.225014 -0.665364 
0.684529 -0.338563 -0.645597 0.64813 -0.386661 -0.656065 0.6437 -0.344414 -0.683395 
0.298756 -0.347488 -0.888818 0.0661764 -0.351794 -0.933735 -0.0477191 -0.392448 -0.918536 
0.0642764 -0.428067 -0.901458 0.116414 -0.442446 -0.889207 -0.0506826 -0.384041 -0.921924 
-0.0550274 -0.30959 -0.949276 -0.0803316 -0.313068 -0.946327 -0.186211 -0.350323 -0.917932 
-0.610421 -0.408362 -0.678695 -0.467881 -0.504319 -0.725775 -0.404619 -0.390113 -0.827101 
0.402959 -0.558214 -0.725274 0.346093 -0.57933 -0.737967 0.335884 -0.553481 -0.762129 
0.158262 -0.576109 -0.801905 0.0938744 -0.485305 -0.869291 0.0928014 -0.491949 -0.865664 
-0.0143474 -0.422591 -0.906207 0.0618386 -0.340528 -0.938199 0.0902476 -0.359294 -0.928851 
0.0342497 -0.350275 -0.936021 0.0133225 -0.331501 -0.943361 -0.0287104 -0.316775 -0.948066 
-0.117146 -0.358461 -0.926165 -0.439873 -0.506426 -0.74165 -0.326498 -0.502585 -0.800505 
-0.259833 -0.420908 -0.869094 0.126686 -0.444807 -0.886622 0.126885 -0.444295 -0.886849 
0.126755 -0.443712 -0.88716 0.122284 -0.475846 -0.870986 0.113197 -0.413006 -0.903666 
0.0557564 -0.489973 -0.869953 0.0455694 -0.382006 -0.923036 -0.0228285 -0.490683 -0.871039 
-0.0135332 -0.382538 -0.923841 -0.103131 -0.504588 -0.857179 -0.0863911 -0.426411 -0.900394 
-0.227691 -0.504603 -0.832786 -0.185012 -0.504722 -0.843224 -0.174894 -0.483421 -0.857739 
0.0703256 0.68179 -0.72816 -0.0521001 0.654664 -0.754122 0.422774 0.512789 -0.747202 
0.279905 0.60191 -0.747902 0.112146 0.690919 -0.71418 0.16768 0.678722 -0.714996 
0.0658089 0.662946 -0.74577 -0.118619 0.621977 -0.773999 -0.0556028 0.627954 -0.776262 
-0.174803 0.574339 -0.799737 -0.253226 0.459573 -0.851275 0.424269 0.511224 -0.747426 
0.421856 0.509995 -0.749628 0.224733 0.377084 -0.8985 0.127183 0.285876 -0.949789 
0.0595047 0.282465 -0.95743 -0.0747921 0.297103 -0.951912 -0.179541 0.302157 -0.936198 
-0.282637 0.408828 -0.867742 -0.232369 0.323662 -0.917196 -0.275227 0.390029 -0.878708 
-0.318018 0.33125 -0.888334 0.475124 0.273539 -0.836321 0.458621 0.174305 -0.87137 
0.291396 0.175068 -0.940446 0.130799 0.103662 -0.985974 0.0860869 0.00933101 -0.996244 
0.0689671 -0.0256754 -0.997288 -0.0328345 0.0242812 -0.999166 -0.168894 0.0808601 -0.982312 
-0.171251 0.111035 -0.978951 -0.183368 0.207913 -0.960806 -0.323815 0.323705 -0.889021 
-0.311613 0.317006 -0.89577 0.442823 0.0956751 -0.89149 0.409039 0.087879 -0.908276 
0.227425 0.00433684 -0.973786 0.0493465 -0.0607311 -0.996934 -0.00213155 -0.11364 -0.99352 
0.0776264 -0.16801 -0.982724 0.0297259 -0.122062 -0.992077 -0.10273 -0.0557471 -0.993146 
-0.10746 -0.00922146 -0.994167 -0.0973002 0.0443484 -0.994267 -0.403488 0.158908 -0.90108 
-0.219191 0.106689 -0.969831 0.410199 -0.0435831 -0.910954 0.315941 -0.139999 -0.938393 
0.368202 -0.0538683 -0.928184 0.15495 -0.115022 -0.981204 0.0143901 -0.165486 -0.986107 
-0.0193663 -0.124223 -0.992065 0.0574252 -0.082974 -0.994896 0.0754684 -0.14209 -0.986973 
-0.0515428 -0.119546 -0.99149 -0.0765332 -0.116 -0.990296 -0.0674704 -0.105924 -0.992083 
-0.38309 -0.0290423 -0.923254 -0.179251 -0.0853735 -0.980092 0.255117 -0.19215 -0.947625 
0.0891012 -0.301353 -0.94934 0.122468 -0.228952 -0.965703 -0.0130469 -0.345744 -0.938238 
0.0396743 -0.273465 -0.961064 0.0802312 -0.37815 -0.922261 0.0838449 -0.284317 -0.955057 
0.115901 -0.439482 -0.890742 0.0611105 -0.166966 -0.984067 -0.00780587 -0.221848 -0.97505 
-0.0524201 -0.379687 -0.923629 -0.0769634 -0.253902 -0.964163 -0.0676606 -0.292311 -0.953927 
-0.0948004 -0.237325 -0.966793 -0.0721609 -0.283043 -0.956389 -0.0637072 -0.244795 -0.96748 
-0.234547 -0.246508 -0.940331 -0.153277 -0.28004 -0.947673 -0.144132 -0.249373 -0.957622 
0.0936134 -0.437033 -0.894561 -0.032071 -0.395412 -0.917944 -0.0032604 -0.408792 -0.912622 
-0.00551949 -0.410128 -0.912011 
