# vtk DataFile Version 4.2
vtk output
ASCII
DATASET POLYDATA
POINTS 508 float
-26.2104 -37.7967 -18.4784 -17.8928 -37.7967 -19.7449 -9.57529 -37.7967 -20.4133 
-1.25776 -37.7967 -19.9387 7.05977 -37.7967 -19.6548 15.3773 -37.7967 -18.4014 
-42.8454 -29.4791 -17.0078 -34.5279 -29.4791 -20.3265 -26.2104 -29.4791 -22.2135 
-17.8928 -29.4791 -23.224 -9.57529 -29.4791 -22.5369 -1.25776 -29.4791 -22.3418 
7.05977 -29.4791 -22.3633 15.3773 -29.4791 -22.9106 23.6948 -29.4791 -21.1383 
32.0124 -29.4791 -19.0431 -42.8454 -21.1616 -19.5565 -34.5279 -21.1616 -21.4167 
-26.2104 -21.1616 -22.6627 -17.8928 -21.1616 -22.9276 -9.57529 -21.1616 -22.6372 
-1.25776 -21.1616 -22.3862 7.05977 -21.1616 -22.7266 15.3773 -21.1616 -22.7611 
23.6948 -21.1616 -22.5648 32.0124 -21.1616 -21.9537 40.3299 -21.1616 -20.1366 
-51.163 -12.8441 -16.747 -42.8454 -12.8441 -20.0915 -34.5279 -12.8441 -20.9381 
-26.2104 -12.8441 -20.8779 -17.8928 -12.8441 -20.3474 -9.57529 -12.8441 -20.652 
-1.25776 -12.8441 -21.6794 7.05977 -12.8441 -21.8884 15.3773 -12.8441 -21.6249 
23.6948 -12.8441 -22.4151 32.0124 -12.8441 -23.2765 40.3299 -12.8441 -22.9442 
48.6474 -12.8441 -19.7597 -51.163 -4.52653 -17.402 -42.8454 -4.52653 -20.7181 
-34.5279 -4.52653 -21.4733 -26.2104 -4.52653 -20.7135 -17.8928 -4.52653 -18.7328 
-9.57529 -4.52653 -19.4413 -1.25776 -4.52653 -21.4984 7.05977 -4.52653 -22.446 
15.3773 -4.52653 -21.4821 23.6948 -4.52653 -22.375 32.0124 -4.52653 -23.2755 
40.3299 -4.52653 -23.2625 48.6474 -4.52653 -21.5614 56.965 -4.52653 -16.0154 
-51.163 3.791 -18.1256 -42.8454 3.791 -21.5034 -34.5279 3.791 -22.342 
-26.2104 3.791 -21.7694 -17.8928 3.791 -20.6369 -9.57529 3.791 -21.4521 
-1.25776 3.791 -20.7616 7.05977 3.791 -22.5831 15.3773 3.791 -22.5788 
23.6948 3.791 -22.9792 32.0124 3.791 -23.6568 40.3299 3.791 -23.5172 
48.6474 3.791 -21.7655 56.965 3.791 -16.7219 -51.163 12.1085 -17.9886 
-42.8454 12.1085 -21.2167 -34.5279 12.1085 -22.5373 -26.2104 12.1085 -22.3414 
-17.8928 12.1085 -21.6114 -9.57529 12.1085 -21.2119 -1.25776 12.1085 -21.7727 
7.05977 12.1085 -21.7497 15.3773 12.1085 -21.6581 23.6948 12.1085 -22.6607 
32.0124 12.1085 -23.4213 40.3299 12.1085 -23.3167 48.6474 12.1085 -20.5056 
-51.163 20.4261 -15.4223 -42.8454 20.4261 -19.9827 -34.5279 20.4261 -22.8418 
-26.2104 20.4261 -22.8191 -17.8928 20.4261 -22.2263 -9.57529 20.4261 -22.2211 
-1.25776 20.4261 -22.8485 7.05977 20.4261 -22.4836 15.3773 20.4261 -21.9962 
23.6948 20.4261 -21.7987 32.0124 20.4261 -21.7428 40.3299 20.4261 -20.8308 
48.6474 20.4261 -17.8693 -42.8454 28.7436 -17.3984 -34.5279 28.7436 -20.5722 
-26.2104 28.7436 -21.6017 -17.8928 28.7436 -22.5037 -9.57529 28.7436 -22.5208 
-1.25776 28.7436 -22.8721 7.05977 28.7436 -22.2695 15.3773 28.7436 -21.2088 
23.6948 28.7436 -20.3566 32.0124 28.7436 -19.9486 40.3299 28.7436 -17.4577 
-34.5279 37.0611 -17.1118 -26.2104 37.0611 -18.9442 -17.8928 37.0611 -20.1071 
-9.57529 37.0611 -20.3674 -1.25776 37.0611 -20.2289 7.05977 37.0611 -19.2251 
15.3773 37.0611 -18.0091 23.6948 37.0611 -16.225 -26.2104 -40.4943 -15.4094 
-17.8928 -41.6402 -15.4094 -9.57529 -42.739 -15.4094 -1.25776 -43.3653 -15.4094 
7.05977 -42.6101 -15.4094 15.3773 -40.2972 -15.4094 -42.8454 -31.7321 -15.4094 
-34.5062 -37.7967 -15.4094 -34.5279 -37.7852 -15.4094 -34.5279 -37.7967 -15.3901 
21.4981 -37.7967 -15.4094 23.6948 -36.7726 -15.4094 32.0124 -32.8633 -15.4094 
-44.8716 -29.4791 -15.4094 38.5527 -29.4791 -15.4094 40.3299 -28.2253 -15.4094 
40.3299 -29.4791 -12.9689 -49.0206 -21.1616 -15.4094 -51.163 -17.1025 -15.4094 
-51.163 -21.1616 -13.2363 48.5532 -21.1616 -15.4094 48.6474 -21.0438 -15.4094 
48.6474 -21.1616 -15.2833 -52.7234 -12.8441 -15.4094 53.8844 -12.8441 -15.4094 
56.965 -6.05988 -15.4094 56.965 -12.8441 -10.2308 -53.5282 -4.52653 -15.4094 
57.5635 -4.52653 -15.4094 -54.2543 3.791 -15.4094 58.2789 3.791 -15.4094 
56.965 10.9035 -15.4094 -54.0816 12.1085 -15.4094 56.6735 12.1085 -15.4094 
56.965 12.1085 -15.0645 -51.1762 20.4261 -15.4094 -51.163 20.4504 -15.4094 
52.2679 20.4261 -15.4094 48.6474 25.0143 -15.4094 56.965 20.4261 -9.62643 
-45.4106 28.7436 -15.4094 -51.163 28.7436 -7.26766 -42.8454 31.718 -15.4094 
32.0124 36.2525 -15.4094 44.4371 28.7436 -15.4094 40.3299 31.3999 -15.4094 
48.6474 28.7436 -11.98 -37.2569 37.0611 -15.4094 -42.8454 37.0611 -8.76391 
-34.5279 38.8528 -15.4094 -26.2104 41.6448 -15.4094 -17.8928 43.6921 -15.4094 
-9.57529 43.6156 -15.4094 -1.25776 42.9224 -15.4094 7.05977 41.2798 -15.4094 
15.3773 39.6725 -15.4094 28.5724 37.0611 -15.4094 23.6948 37.9008 -15.4094 
32.0124 37.0611 -14.2238 -26.2104 45.3787 -8.16645 -17.8928 45.3787 -12.3294 
-9.57529 45.3787 -11.9548 -1.25776 45.3787 -9.40441 -34.5279 -40.8272 -7.09184 
-26.2104 -42.8692 -7.09184 -17.8928 -44.0765 -7.09184 -9.57529 -45.2001 -7.09184 
-1.25776 -46.1051 -7.09184 7.05977 -44.7496 -7.09184 15.3773 -41.0792 -7.09184 
-41.0218 -37.7967 -7.09184 -42.8454 -36.7845 -7.09184 22.9534 -37.7967 -7.09184 
23.6948 -37.4777 -7.09184 32.0124 -34.9162 -7.09184 40.3299 -31.4737 -7.09184 
-49.9914 -29.4791 -7.09184 -51.163 -27.6468 -7.09184 43.722 -29.4791 -7.09184 
48.6474 -25.6972 -7.09184 -54.779 -21.1616 -7.09184 53.1684 -21.1616 -7.09184 
56.965 -15.4445 -7.09184 -57.3081 -12.8441 -7.09184 58.3634 -12.8441 -7.09184 
-58.8987 -4.52653 -7.09184 61.7381 -4.52653 -7.09184 -59.3767 3.791 -7.09184 
62.5291 3.791 -7.09184 -58.6098 12.1085 -7.09184 61.3188 12.1085 -7.09184 
-55.71 20.4261 -7.09184 58.3071 20.4261 -7.09184 56.965 22.4285 -7.09184 
-51.2547 28.7436 -7.09184 -51.163 28.8816 -7.09184 40.3299 36.87 -7.09184 
51.9121 28.7436 -7.09184 48.6474 31.6383 -7.09184 -43.977 37.0611 -7.09184 
-42.8454 38.0424 -7.09184 -34.5279 42.9519 -7.09184 7.05977 44.2411 -7.09184 
15.3773 42.5349 -7.09184 23.6948 41.502 -7.09184 39.87 37.0611 -7.09184 
32.0124 39.8359 -7.09184 -27.4834 45.3787 -7.09184 -26.2104 45.7815 -7.09184 
-26.2104 45.3787 -3.10256 -17.8928 47.1465 -7.09184 -9.57529 47.1189 -7.09184 
1.93971 45.3787 -7.09184 -1.25776 46.081 -7.09184 -1.25776 45.3787 0.459428 
-34.5279 -40.4041 1.22569 -26.2104 -42.5607 1.22569 -17.8928 -43.8243 1.22569 
-9.57529 -44.7983 1.22569 -1.25776 -45.2544 1.22569 7.05977 -43.2239 1.22569 
15.3773 -39.2497 1.22569 -40.2705 -37.7967 1.22569 -42.8454 -36.3878 1.22569 
19.1193 -37.7967 1.22569 23.6948 -36.1782 1.22569 32.0124 -34.4535 1.22569 
40.3299 -31.8165 1.22569 -49.4802 -29.4791 1.22569 -51.163 -26.7498 1.22569 
43.7279 -29.4791 1.22569 48.6474 -25.6584 1.22569 -54.1636 -21.1616 1.22569 
-51.163 -21.1616 7.0863 52.9523 -21.1616 1.22569 56.965 -14.965 1.22569 
-57.0027 -12.8441 1.22569 58.1137 -12.8441 1.22569 56.965 -12.8441 5.30018 
-58.5455 -4.52653 1.22569 61.6353 -4.52653 1.22569 -59.1432 3.791 1.22569 
62.3476 3.791 1.22569 -58.5259 12.1085 1.22569 61.2424 12.1085 1.22569 
-55.8404 20.4261 1.22569 58.1121 20.4261 1.22569 56.965 22.0774 1.22569 
56.965 20.4261 3.75042 -51.3963 28.7436 1.22569 -51.163 29.0736 1.22569 
-51.163 28.7436 1.8892 40.3299 35.7942 1.22569 51.0897 28.7436 1.22569 
48.6474 30.8198 1.22569 48.6474 28.7436 5.12553 -43.6043 37.0611 1.22569 
-42.8454 37.6693 1.22569 -42.8454 37.0611 2.7046 -34.5279 42.249 1.22569 
-26.2104 44.9524 1.22569 -1.25776 45.3049 1.22569 7.05977 43.1553 1.22569 
15.3773 41.0364 1.22569 15.3773 37.0611 9.5072 23.6948 39.996 1.22569 
23.6948 37.0611 6.79153 36.7473 37.0611 1.22569 32.0124 38.6303 1.22569 
32.0124 37.0611 4.33008 -23.424 45.3787 1.22569 -17.8928 46.2642 1.22569 
-17.8928 45.3787 3.28069 -1.85665 45.3787 1.22569 -9.57529 46.3352 1.22569 
-9.57529 45.3787 3.44427 -34.5279 -37.8116 9.54323 -26.2104 -40.7348 9.54323 
-17.8928 -42.33 9.54323 -9.57529 -43.4391 9.54323 -1.25776 -43.5894 9.54323 
7.05977 -41.4974 9.54323 15.3773 -38.3564 9.54323 -34.5553 -37.7967 9.54323 
-42.8454 -31.7577 9.54323 -34.5279 -37.7967 9.56821 -26.2104 -37.7967 14.4051 
17.4901 -37.7967 9.54323 15.3773 -37.7967 11.9594 23.6948 -36.1915 9.54323 
32.0124 -33.9828 9.54323 40.3299 -30.43 9.54323 -44.9065 -29.4791 9.54323 
-42.8454 -29.4791 11.5634 -34.5279 -29.4791 16.9056 41.7216 -29.4791 9.54323 
40.3299 -29.4791 11.7568 48.6474 -23.4531 9.54323 -49.4963 -21.1616 9.54323 
-51.163 -17.4664 9.54323 -42.8454 -21.1616 15.1701 50.6238 -21.1616 9.54323 
48.6474 -21.1616 12.8946 -52.9777 -12.8441 9.54323 -51.163 -12.8441 11.5142 
-42.8454 -12.8441 17.2689 55.7142 -12.8441 9.54323 56.965 -9.69358 9.54323 
-54.6231 -4.52653 9.54323 -51.163 -4.52653 13.5927 58.9574 -4.52653 9.54323 
56.965 -4.52653 12.649 -55.6988 3.791 9.54323 -51.163 3.791 14.77 
59.4886 3.791 9.54323 56.965 3.791 13.2284 -55.6294 12.1085 9.54323 
-51.163 12.1085 14.8981 57.9443 12.1085 9.54323 56.965 14.3279 9.54323 
56.965 12.1085 10.8335 -53.0328 20.4261 9.54323 -51.163 23.9429 9.54323 
-51.163 20.4261 12.1927 40.3299 20.4261 17.6493 53.2982 20.4261 9.54323 
48.6474 25.4572 9.54323 48.6474 20.4261 13.7061 -48.0594 28.7436 9.54323 
-42.8454 34.0083 9.54323 -42.8454 28.7436 15.2224 15.3773 37.0392 9.54323 
15.3773 28.7436 16.8582 23.6948 35.3785 9.54323 23.6948 28.7436 15.5105 
32.0124 33.6001 9.54323 32.0124 28.7436 14.0357 43.7906 28.7436 9.54323 
40.3299 30.7249 9.54323 40.3299 28.7436 11.488 -38.0356 37.0611 9.54323 
-34.5279 38.9183 9.54323 -34.5279 37.0611 12.2129 -26.2104 41.2514 9.54323 
-26.2104 37.0611 14.6934 -17.8928 42.2041 9.54323 -17.8928 37.0611 15.2633 
-9.57529 42.2386 9.54323 -9.57529 37.0611 15.0474 -1.25776 41.333 9.54323 
-1.25776 37.0611 13.9295 15.3028 37.0611 9.54323 7.05977 39.2278 9.54323 
7.05977 37.0611 12.1616 -17.8928 -38.1552 17.8608 -9.57529 -40.0011 17.8608 
-1.25776 -40.2997 17.8608 7.05977 -38.6821 17.8608 -18.8911 -37.7967 17.8608 
-26.2104 -33.8469 17.8608 -17.8928 -37.7967 18.2441 -9.57529 -37.7967 20.3407 
-1.25776 -37.7967 20.9305 10.2492 -37.7967 17.8608 7.05977 -37.7967 19.0424 
15.3773 -36.1805 17.8608 23.6948 -33.7383 17.8608 32.0124 -31.3417 17.8608 
-32.4894 -29.4791 17.8608 -34.5279 -25.8883 17.8608 -26.2104 -29.4791 20.2909 
-17.8928 -29.4791 22.9969 -9.57529 -29.4791 25.5598 -1.25776 -29.4791 26.0961 
[...]
POINT_DATA 508
SCALARS ImageScalars float
LOOKUP_TABLE default
0 0 0 0 0 0 0 0 0 
0 0 0 0 0 0 0 0 0 
0 0 0 0 0 0 0 0 0 
0 0 0 0 0 0 0 0 0 
0 0 0 0 0 0 0 0 0 
0 0 0 0 0 0 0 0 0 
0 0 0 0 0 0 0 0 0 
0 0 0 0 0 0 0 0 0 
0 0 0 0 0 0 0 0 0 
0 0 0 0 0 0 0 0 0 
0 0 0 0 0 0 0 0 0 
0 0 0 0 0 0 0 0 0 
0 0 0 0 0 0 0 0 0 
0 0 0 0 0 0 0 0 0 
0 0 0 0 0 0 0 0 0 
0 0 0 0 0 0 0 0 0 
0 0 0 0 0 0 0 0 0 
0 0 0 0 0 0 0 0 0 
0 0 0 0 0 0 0 0 0 
0 0 0 0 0 0 0 0 0 
0 0 0 0 0 0 0 0 0 
0 0 0 0 0 0 0 0 0 
0 0 0 0 0 0 0 0 0 
0 0 0 0 0 0 0 0 0 
0 0 0 0 0 0 0 0 0 
0 0 0 0 0 0 0 0 0 
0 0 0 0 0 0 0 0 0 
0 0 0 0 0 0 0 0 0 
0 0 0 0 0 0 0 0 0 
0 0 0 0 0 0 0 0 0 
0 0 0 0 0 0 0 0 0 
0 0 0 0 0 0 0 0 0 
0 0 0 0 0 0 0 0 0 
0 0 0 0 0 0 0 0 0 
0 0 0 0 0 0 0 0 0 
0 0 0 0 0 0 0 0 0 
0 0 0 0 0 0 0 0 0 
0 0 0 0 0 0 0 0 0 
0 0 0 0 0 0 0 0 0 
0 0 0 0 0 0 0 0 0 
0 0 0 0 0 0 0 0 0 
0 0 0 0 0 0 0 0 0 
0 0 0 0 0 0 0 0 0 
0 0 0 0 0 0 0 0 0 
0 0 0 0 0 0 0 0 0 
0 0 0 0 0 0 0 0 0 
0 0 0 0 0 0 0 0 0 
0 0 0 0 0 0 0 0 0 
0 0 0 0 0 0 0 0 0 
0 0 0 0 0 0 0 0 0 
0 0 0 0 0 0 0 0 0 
0 0 0 0 0 0 0 0 0 
0 0 0 0 0 0 0 0 0 
0 0 0 0 0 0 0 0 0 
0 0 0 0 0 0 0 0 0 
0 0 0 0 0 0 0 0 0 
0 0 0 0 
NORMALS Normals float
0.201546 0.664737 0.719378 0.100679 0.615454 0.781716 0.00614172 0.525396 0.850836 
-0.0394033 0.483945 0.874211 -0.0752535 0.538754 0.839096 -0.256719 0.717994 0.646978 
0.52114 0.423514 0.740979 0.297044 0.274426 0.914579 0.164676 0.206859 0.964412 
0.0221105 0.153121 0.98796 -0.0506666 0.103623 0.993325 -0.0103321 0.133157 0.991041 
0.0316077 0.166506 0.985534 -0.067736 0.183229 0.980734 -0.212335 0.375174 0.902307 
-0.343147 0.604775 0.718678 0.394104 0.174146 0.902417 0.170224 0.0355171 0.984765 
0.0878578 -0.0797107 0.992939 -0.00169415 -0.158701 0.987325 -0.0322118 -0.106381 0.993804 
0.00549325 -0.0399365 0.999187 0.0221173 -0.0288017 0.99934 -0.00965817 -0.0739071 0.997218 
-0.0497323 0.0707907 0.996251 -0.135678 0.212269 0.967747 -0.333464 0.392814 0.857029 
0.600763 0.17581 0.779855 0.233683 0.0616163 0.970359 0.0497797 0.00465004 0.998749 
-0.0330182 -0.11552 0.992756 -0.0146666 -0.251051 0.967863 0.0810692 -0.191861 0.978068 
0.0708319 -0.0524633 0.996108 -0.00280906 -0.0173484 0.999846 0.0299176 -0.079184 0.996411 
0.0986447 -0.0116432 0.995055 0.0317883 0.0841346 0.995947 -0.16927 0.172903 0.970285 
-0.482545 0.300836 0.822586 0.549626 0.0772639 0.831831 0.211543 0.0852621 0.973643 
-0.00222331 0.0841498 0.996451 -0.158066 0.0533076 0.985989 -0.0822626 0.021696 0.996374 
0.173846 0.0514813 0.983426 0.167922 -0.0546549 0.984284 0.000177764 0.0420791 0.999114 
-0.00382745 0.0585995 0.998274 0.105956 0.0339086 0.993792 0.0530098 0.0228341 0.998333 
-0.0956319 0.0314327 0.99492 -0.36383 0.0980737 0.926288 -0.727273 0.187202 0.660325 
0.538885 0.0300715 0.841843 0.221544 0.0300442 0.974687 0.0129611 0.0638606 0.997875 
-0.099977 0.0975411 0.990197 -0.0206435 0.16824 0.98553 0.00618418 0.0987111 0.995097 
0.0666481 0.0166355 0.997638 0.111266 -0.0429694 0.992861 0.0237378 0.00869088 0.99968 
0.0648009 0.0176659 0.997742 0.032295 0.00906407 0.999437 -0.1091 0.00523305 0.994017 
-0.339301 -0.0585899 0.938851 -0.706887 -0.0414289 0.706112 0.565091 -0.141345 0.812831 
0.258338 -0.0913054 0.96173 0.0618185 0.028571 0.997678 -0.0552194 0.0621869 0.996536 
-0.0678071 0.093434 0.993314 0.00956532 0.0466685 0.998865 0.032267 0.125072 0.991623 
-0.00686223 -0.00480007 0.999965 0.0527755 -0.0353013 0.997982 0.105932 -0.074343 0.99159 
0.0388975 -0.124024 0.991517 -0.161036 -0.149579 0.975548 -0.399477 -0.19631 0.895478 
0.667538 -0.353249 0.655445 0.376543 -0.191208 0.906452 0.160314 -0.115613 0.980272 
-0.0375217 -0.0489832 0.998095 -0.0352029 0.052676 0.997991 0.0372728 0.0781166 0.996247 
0.0157882 0.065562 0.997724 -0.051113 0.0320332 0.998179 -0.0409642 -0.0244319 0.998862 
-0.0149253 -0.133264 0.990968 -0.0526174 -0.196258 0.97914 -0.200329 -0.292242 0.935127 
-0.43661 -0.384978 0.81312 0.496274 -0.414313 0.762926 0.216051 -0.293649 0.931178 
0.1104 -0.210302 0.971383 0.0587816 -0.108859 0.992318 0.0217695 -0.101156 0.994632 
-0.0137973 -0.141317 0.989868 -0.0983109 -0.173283 0.979953 -0.114164 -0.209663 0.971086 
-0.0715578 -0.291502 0.95389 -0.140435 -0.362697 0.921265 -0.351832 -0.499182 0.791854 
0.357251 -0.599737 0.716022 0.154913 -0.485027 0.860669 0.0813008 -0.421109 0.903359 
0.00636633 -0.426297 0.904561 -0.0629723 -0.486495 0.871411 -0.12436 -0.553975 0.823192 
-0.167731 -0.614407 0.770954 -0.168034 -0.692816 0.701263 0.205453 0.828324 0.521219 
0.125259 0.849763 0.512067 0.0953474 0.833371 0.544429 -0.00650911 0.805205 0.592961 
-0.166394 0.818677 0.549619 -0.333492 0.851365 0.404921 0.550442 0.503712 0.665798 
0.396765 0.738591 0.545034 0.397224 0.738089 0.545378 0.39725 0.739108 0.543978 
-0.365951 0.850876 0.376947 -0.377133 0.839898 0.39031 -0.396284 0.788555 0.470256 
0.597417 0.442894 0.668534 -0.472019 0.716411 0.513764 -0.486058 0.685 0.5427 
-0.488379 0.774057 0.402893 0.589196 0.318386 0.742616 0.636381 0.263105 0.725117 
0.713313 0.370774 0.594736 -0.617317 0.527296 0.583848 -0.618439 0.525709 0.584092 
-0.621122 0.530868 0.57653 0.680927 0.176044 0.710877 -0.684747 0.373758 0.625641 
-0.743057 0.224308 0.630517 -0.848135 0.416491 0.327417 0.664417 0.0752133 0.743568 
-0.745589 0.192395 0.638029 0.701217 0.024033 0.712542 -0.752592 -0.0383093 0.657372 
-0.710403 -0.199189 0.675019 0.71286 -0.155833 0.683774 -0.696432 -0.226936 0.680795 
-0.717276 -0.227977 0.658438 0.668065 -0.353296 0.654882 0.667809 -0.353665 0.654944 
-0.581314 -0.424876 0.693941 -0.508972 -0.494702 0.704427 -0.81714 -0.473594 0.328619 
0.578046 -0.450317 0.680498 0.820981 -0.520966 0.233632 0.537665 -0.505302 0.674971 
-0.250729 -0.715593 0.651967 -0.455157 -0.550052 0.700196 -0.394128 -0.596556 0.699131 
-0.596177 -0.650854 0.470066 0.433578 -0.632828 0.641513 0.607752 -0.739331 0.289876 
0.375001 -0.676437 0.633883 0.214851 -0.715349 0.664917 0.0923116 -0.761581 0.641462 
-0.0357399 -0.78073 0.623846 -0.113313 -0.794198 0.597001 -0.166748 -0.785346 0.596177 
-0.179181 -0.77706 0.603384 -0.219632 -0.730186 0.646985 -0.169621 -0.734032 0.657591 
-0.259802 -0.788318 0.557726 0.23668 -0.954262 0.182666 0.0904348 -0.907817 0.4095 
-0.0564749 -0.922555 0.381711 -0.15954 -0.963318 0.215791 0.323388 0.937369 0.129457 
0.17836 0.977974 0.108417 0.144758 0.982763 0.114983 0.120612 0.98851 0.0911042 
-0.0256604 0.997176 0.0705859 -0.288447 0.957419 0.012104 -0.423194 0.904246 -0.0569791 
0.500237 0.84989 0.16568 0.561432 0.807499 0.180937 -0.348679 0.936026 -0.0477279 
-0.340524 0.939239 -0.0432861 -0.344796 0.935376 0.0786638 -0.447596 0.881166 0.152332 
0.803021 0.563936 0.192699 0.831976 0.518336 0.197849 -0.522225 0.83944 0.150407 
-0.64962 0.742094 0.165197 0.906834 0.377351 0.187771 -0.757103 0.629055 0.176309 
-0.860736 0.477863 0.175442 0.947103 0.242178 0.210584 -0.886425 0.427668 0.177059 
0.971774 0.116585 0.205092 -0.953957 0.230286 0.192185 0.978347 -0.0146434 0.206452 
-0.980323 -0.0228984 0.19607 0.956749 -0.202797 0.208578 -0.950537 -0.228909 0.209951 
0.897002 -0.382329 0.221837 -0.856657 -0.469894 0.212927 -0.831307 -0.513786 0.21202 
0.823337 -0.52102 0.225065 0.821469 -0.524044 0.224871 -0.429244 -0.893185 0.134055 
-0.700939 -0.687485 0.189863 -0.625022 -0.760376 0.176567 0.631989 -0.748245 0.201791 
0.606547 -0.769341 0.200538 0.395797 -0.904723 0.157544 -0.210471 -0.974505 0.0777267 
-0.160557 -0.985329 0.0578619 -0.167351 -0.981236 0.0957635 -0.418505 -0.898906 0.129696 
-0.254018 -0.962741 0.0927603 0.250965 -0.95896 0.131957 0.230228 -0.964447 0.129756 
0.229426 -0.972342 -0.043759 0.0783343 -0.991338 0.105417 -0.0631734 -0.990556 0.121687 
-0.184624 -0.978747 0.089264 -0.168653 -0.980416 0.101693 -0.180005 -0.961498 -0.207654 
0.326755 0.931587 -0.1593 0.185635 0.974912 -0.122822 0.142052 0.984483 -0.103022 
0.0844993 0.990907 -0.104705 -0.0897901 0.984601 -0.149996 -0.333047 0.923469 -0.190486 
-0.409029 0.899364 -0.1544 0.484794 0.853775 -0.189849 0.569328 0.794507 -0.211244 
-0.343571 0.931633 -0.118401 -0.265265 0.961367 -0.0735432 -0.237787 0.96973 -0.0555077 
-0.44829 0.892484 -0.0500773 0.785984 0.573755 -0.230291 0.833287 0.498953 -0.238072 
-0.539727 0.838993 -0.0691785 -0.666452 0.740532 -0.0863379 0.893201 0.374759 -0.248491 
0.790155 0.372064 -0.487056 -0.763806 0.635274 -0.114136 -0.867681 0.479252 -0.132089 
0.939406 0.26112 -0.22211 -0.889684 0.436163 -0.134995 -0.874634 0.416543 -0.248008 
0.96692 0.125015 -0.222344 -0.960055 0.235675 -0.150837 0.982443 -0.000840019 -0.186562 
-0.985914 -0.0209963 -0.165929 0.968577 -0.194346 -0.155207 -0.95741 -0.230507 -0.173877 
0.916934 -0.373883 -0.13944 -0.851548 -0.482558 -0.204951 -0.823005 -0.527376 -0.211038 
-0.812905 -0.498606 -0.300961 0.824808 -0.548044 -0.139068 0.820488 -0.554464 -0.139175 
0.821143 -0.547082 -0.16256 -0.398202 -0.877943 -0.265802 -0.651952 -0.719236 -0.24012 
-0.597025 -0.762559 -0.249128 -0.572842 -0.719616 -0.392433 0.594524 -0.785103 -0.173653 
0.57344 -0.799479 -0.178887 0.569136 -0.790419 -0.226544 0.383154 -0.898675 -0.213486 
0.219529 -0.946792 -0.235357 -0.180193 -0.954101 -0.239212 -0.243574 -0.934285 -0.260352 
-0.176138 -0.938466 -0.297081 -0.187136 -0.807598 -0.559255 -0.141566 -0.934702 -0.326023 
-0.147676 -0.852417 -0.501574 -0.323199 -0.902633 -0.284246 -0.225033 -0.924622 -0.307302 
-0.213424 -0.878443 -0.427537 0.173293 -0.954547 -0.242506 0.0799324 -0.962953 -0.257552 
0.0767747 -0.942241 -0.326017 -0.171383 -0.955549 -0.239903 -0.0559264 -0.965874 -0.252904 
-0.0526478 -0.942294 -0.33062 0.424047 0.803345 -0.418116 0.24414 0.89534 -0.372508 
0.161386 0.944537 -0.286014 0.072843 0.964847 -0.252516 -0.109293 0.957442 -0.267134 
-0.293236 0.923989 -0.245472 -0.309757 0.937824 -0.156639 0.424693 0.802838 -0.418435 
0.597221 0.566586 -0.567721 0.424328 0.802741 -0.41899 0.278674 0.750972 -0.59865 
-0.298603 0.943217 -0.145523 -0.298347 0.924662 -0.236621 -0.254333 0.958767 -0.126811 
-0.291997 0.943782 -0.154966 -0.493039 0.835993 -0.24089 0.641429 0.503233 -0.579073 
0.594119 0.483205 -0.643067 0.427162 0.347629 -0.834678 -0.528691 0.813468 -0.242396 
-0.507194 0.798787 -0.323563 -0.711957 0.635979 -0.297738 0.714338 0.34845 -0.60688 
0.741081 0.30944 -0.595857 0.521306 0.274893 -0.807882 -0.747084 0.583148 -0.319068 
-0.717943 0.547304 -0.430136 0.763652 0.247162 -0.596445 0.703092 0.245672 -0.667313 
0.426434 0.17674 -0.887084 -0.841384 0.386041 -0.378212 -0.85956 0.316587 -0.401159 
0.803079 0.1392 -0.579385 0.677075 0.148629 -0.720749 -0.877062 0.20075 -0.436419 
-0.820098 0.181161 -0.542789 0.833628 0.0520575 -0.549868 0.677533 0.0571092 -0.733272 
-0.883693 -0.0506849 -0.465315 -0.801978 -0.0737374 -0.592785 0.856042 -0.146138 -0.495818 
0.692855 -0.100044 -0.714103 -0.815045 -0.272076 -0.511543 -0.784446 -0.334912 -0.521995 
-0.781039 -0.277464 -0.559457 0.817439 -0.353291 -0.454949 0.786207 -0.418835 -0.454373 
0.761753 -0.336549 -0.553594 -0.219933 -0.433975 -0.873668 -0.648601 -0.511072 -0.564023 
-0.52682 -0.619062 -0.582429 -0.490353 -0.498538 -0.714852 0.702252 -0.539779 -0.464199 
0.539074 -0.694745 -0.47616 0.526006 -0.522219 -0.671272 -0.187039 -0.806576 -0.560759 
-0.131881 -0.464513 -0.875691 -0.152614 -0.780701 -0.605982 -0.138949 -0.531069 -0.835858 
-0.202852 -0.743073 -0.637726 -0.183515 -0.59735 -0.780702 -0.405559 -0.678181 -0.612856 
-0.333628 -0.704375 -0.626537 -0.314672 -0.657752 -0.684357 0.414506 -0.777831 -0.472402 
0.338213 -0.81054 -0.478159 0.327416 -0.762956 -0.557401 0.167812 -0.830612 -0.530965 
0.115628 -0.695873 -0.708796 0.0515239 -0.821364 -0.568072 0.0143897 -0.649433 -0.760283 
-0.043453 -0.811614 -0.582575 -0.0641591 -0.616836 -0.784473 -0.152012 -0.797233 -0.58422 
-0.126963 -0.634848 -0.762134 -0.187337 -0.806699 -0.560483 -0.219619 -0.800095 -0.558225 
-0.194358 -0.72855 -0.656841 0.249534 0.718632 -0.649077 0.10829 0.805693 -0.58235 
-0.0733453 0.836007 -0.543795 -0.217508 0.837184 -0.501809 0.255961 0.703389 -0.66312 
0.312305 0.511662 -0.800417 0.252438 0.701766 -0.666183 0.124036 0.708546 -0.694678 
-0.0507666 0.729636 -0.681948 -0.233097 0.844083 -0.482897 -0.209555 0.804088 -0.556353 
-0.256382 0.832733 -0.490738 -0.25378 0.816186 -0.519073 -0.367969 0.761786 -0.53318 
0.398044 0.327558 -0.856894 0.392652 0.264846 -0.880728 0.328243 0.322946 -0.887673 
0.29232 0.285219 -0.912797 0.174843 0.316985 -0.932175 0.00911001 0.320691 -0.94714 
-0.146283 0.313115 -0.938382 -0.186582 0.430409 -0.883139 -0.175583 0.572594 -0.800816 
-0.433011 0.710074 -0.555244 -0.355928 0.663479 -0.658111 -0.494325 0.603001 -0.626125 
0.3945 0.208921 -0.894831 0.347879 0.18239 -0.919627 0.292812 0.0851283 -0.952373 
0.290526 0.0828574 -0.953273 -0.0812989 0.103325 -0.99132 -0.077148 0.181091 -0.980436 
-0.212211 0.244758 -0.946076 -0.59223 0.46765 -0.656176 -0.431696 0.411753 -0.802557 
-0.645655 0.328511 -0.689355 0.391214 0.166816 -0.905055 0.401998 0.163621 -0.900903 
0.255082 0.123894 -0.958949 0.237275 0.0383873 -0.970684 0.359656 0.0454106 -0.931979 
-0.136829 -0.0471804 -0.98947 -0.00960483 0.0292406 -0.999526 -0.0101002 0.041142 -0.999102 
-0.123447 0.0902779 -0.988236 -0.322729 0.162571 -0.932425 -0.649515 0.285127 -0.704864 
-0.618098 0.272596 -0.737324 0.419666 0.149718 -0.895246 0.373895 0.150584 -0.915165 
0.216476 0.126308 -0.968083 0.209052 0.0683066 -0.975516 0.349753 0.00154372 -0.936841 
-0.0208651 -0.015843 -0.999657 0.00805064 -0.0161364 -0.999837 -0.0141205 -0.0734133 -0.997202 
-0.0796505 -0.0527525 -0.995426 -0.266091 -0.00399442 -0.96394 -0.6493 0.1194 -0.751101 
-0.529764 0.0790301 -0.844455 0.500635 0.0752713 -0.86238 0.383058 0.0896644 -0.919362 
0.172521 0.0910016 -0.980793 0.122832 0.0845296 -0.988821 0.218797 -0.0716762 -0.973134 
-0.0611705 -0.112251 -0.991795 -0.0266118 -0.136393 -0.990297 -0.0704019 -0.27024 -0.960216 
-0.0410955 -0.238161 -0.970356 -0.053808 -0.225221 -0.972821 -0.212338 -0.169586 -0.962368 
-0.600646 -0.120814 -0.790335 -0.469922 -0.135337 -0.872271 0.524511 -0.0621591 -0.849132 
0.391805 -0.0436205 -0.919014 0.204732 -0.0249755 -0.978499 0.0623064 0.00355766 -0.998051 
0.0359295 -0.075143 -0.996525 0.0326554 -0.255807 -0.966176 -0.0765483 -0.248668 -0.965559 
-0.172883 -0.293027 -0.940344 -0.0863576 -0.292039 -0.9525 0.0270235 -0.307525 -0.951156 
-0.0203598 -0.311772 -0.949939 -0.217079 -0.426331 -0.878134 -0.191826 -0.338379 -0.921251 
-0.459796 -0.32507 -0.826388 -0.451503 -0.334181 -0.827326 -0.451709 -0.326049 -0.830452 
0.518047 -0.25019 -0.817944 0.479188 -0.34035 -0.809037 0.449898 -0.228735 -0.863292 
0.218223 -0.18733 -0.957751 0.0735623 -0.180895 -0.980748 -0.0501323 -0.181232 -0.982162 
-0.112877 -0.282924 -0.952477 -0.0896244 -0.323952 -0.941819 -0.0846681 -0.286681 -0.954277 
-0.117068 -0.382082 -0.916683 -0.0882552 -0.247013 -0.964985 -0.0867774 -0.382628 -0.919818 
-0.0577178 -0.319924 -0.945683 -0.191724 -0.426576 -0.883898 -0.0935342 -0.431626 -0.89719 
-0.0798947 -0.401502 -0.912367 0.359698 -0.474405 -0.803466 0.264302 -0.527062 -0.807682 
0.248266 -0.442533 -0.861701 0.0757145 -0.55606 -0.827686 0.0634104 -0.425557 -0.902707 
-0.0241923 -0.526826 -0.849629 -0.0625275 -0.412584 -0.908771 -0.0835938 -0.453647 -0.887252 
-0.0979659 -0.370803 -0.92353 -0.086187 -0.408725 -0.908579 -0.0812401 -0.368405 -0.926109 
-0.100881 -0.400151 -0.91088 -0.0983348 -0.400716 -0.91091 -0.0963395 -0.392738 -0.91459 
0.188856 0.233673 -0.953798 0.00739741 0.30839 -0.951231 -0.140813 0.114282 -0.983418 
0.228894 0.119254 -0.966119 0.204634 0.132367 -0.969847 -0.0324351 0.0883467 -0.995562 
-0.122883 0.0275744 -0.992038 -0.136946 -0.0172483 -0.990428 -0.136184 0.00516092 -0.99067 
0.276456 0.0618734 -0.959033 0.173871 0.067254 -0.982469 -0.134405 -0.05448 -0.989428 
-0.119309 -0.0826167 -0.989414 0.253275 -0.0281825 -0.966984 0.0629276 -0.0743911 -0.995242 
-0.126017 -0.109144 -0.986006 -0.135693 -0.127492 -0.982514 -0.149791 -0.130427 -0.980077 
0.0908167 -0.181806 -0.979132 0.00776095 -0.170262 -0.985368 0.0506955 -0.218553 -0.974507 
0.0528187 -0.208048 -0.976691 
