# vtk DataFile Version 4.2
vtk output
ASCII
DATASET POLYDATA
POINTS 538 float
-12.9447 -51.3498 -14.5433 -4.48881 -51.3498 -16.3627 3.96708 -51.3498 -16.7209 
12.423 -51.3498 -15.4446 -21.4006 -42.8939 -15.774 -12.9447 -42.8939 -18.2989 
-4.48881 -42.8939 -18.8179 3.96708 -42.8939 -19.137 12.423 -42.8939 -19.734 
20.8789 -42.8939 -17.5566 29.3347 -42.8939 -15.0645 -29.8565 -34.438 -15.1886 
-21.4006 -34.438 -17.9216 -12.9447 -34.438 -19.1794 -4.48881 -34.438 -19.2087 
3.96708 -34.438 -19.3418 12.423 -34.438 -19.824 20.8789 -34.438 -18.5243 
29.3347 -34.438 -17.0156 37.7906 -34.438 -14.8463 -29.8565 -25.9821 -15.9699 
-21.4006 -25.9821 -18.22 -12.9447 -25.9821 -18.9361 -4.48881 -25.9821 -18.4377 
3.96708 -25.9821 -18.2336 12.423 -25.9821 -18.896 20.8789 -25.9821 -18.6717 
29.3347 -25.9821 -17.2805 37.7906 -25.9821 -15.1725 -29.8565 -17.5263 -15.3787 
-21.4006 -17.5263 -16.9739 -12.9447 -17.5263 -18.2571 -4.48881 -17.5263 -17.599 
3.96708 -17.5263 -16.6229 12.423 -17.5263 -17.6585 20.8789 -17.5263 -17.375 
29.3347 -17.5263 -17.0348 37.7906 -17.5263 -16.4153 46.2465 -17.5263 -14.8113 
-38.3124 -9.07036 -14.8644 -29.8565 -9.07036 -16.3278 -21.4006 -9.07036 -16.2679 
-12.9447 -9.07036 -17.8556 -4.48881 -9.07036 -20.0721 3.96708 -9.07036 -18.4281 
12.423 -9.07036 -19.8621 20.8789 -9.07036 -17.0607 29.3347 -9.07036 -17.3175 
37.7906 -9.07036 -17.2764 46.2465 -9.07036 -16.0325 -46.7682 -0.614476 -14.1606 
-38.3124 -0.614476 -16.8924 -29.8565 -0.614476 -17.9452 -21.4006 -0.614476 -18.4727 
-12.9447 -0.614476 -19.0097 -4.48881 -0.614476 -18.9693 3.96708 -0.614476 -17.2063 
12.423 -0.614476 -20.709 20.8789 -0.614476 -17.9359 29.3347 -0.614476 -18.2325 
37.7906 -0.614476 -18.4229 46.2465 -0.614476 -17.6663 54.7024 -0.614476 -15.3942 
-46.7682 7.84141 -14.4696 -38.3124 7.84141 -17.142 -29.8565 7.84141 -18.3228 
-21.4006 7.84141 -18.6114 -12.9447 7.84141 -17.44 -4.48881 7.84141 -18.3879 
3.96708 7.84141 -18.8381 12.423 7.84141 -16.2576 20.8789 7.84141 -16.8059 
29.3347 7.84141 -18.1145 37.7906 7.84141 -18.5744 46.2465 7.84141 -18.0291 
54.7024 7.84141 -16.0263 -38.3124 16.2973 -16.261 -29.8565 16.2973 -17.4556 
-21.4006 16.2973 -17.4093 -12.9447 16.2973 -16.1813 -4.48881 16.2973 -15.8248 
3.96708 16.2973 -16.7312 12.423 16.2973 -15.0283 20.8789 16.2973 -16.2283 
29.3347 16.2973 -17.5376 37.7906 16.2973 -18.0104 46.2465 16.2973 -16.7712 
54.7024 16.2973 -14.2927 -38.3124 24.7532 -14.4867 -29.8565 24.7532 -16.7225 
-21.4006 24.7532 -16.9064 -12.9447 24.7532 -15.9759 -4.48881 24.7532 -15.4469 
3.96708 24.7532 -14.874 12.423 24.7532 -14.5736 20.8789 24.7532 -15.1947 
29.3347 24.7532 -15.9824 37.7906 24.7532 -15.7291 46.2465 24.7532 -15.0511 
-29.8565 33.2091 -14.7705 -21.4006 33.2091 -15.9737 -12.9447 33.2091 -15.2931 
-4.48881 33.2091 -14.856 3.96708 33.2091 -14.4686 29.3347 33.2091 -13.9028 
-12.9447 41.665 -13.4924 -4.48881 41.665 -13.6549 -12.9447 -53.2239 -13.3461 
-4.48881 -56.3427 -13.3461 -4.48881 -59.8057 -4.95919 3.96708 -56.8075 -13.3461 
12.423 -54.252 -13.3461 -29.8565 -51.3498 -5.19121 -16.4346 -51.3498 -13.3461 
-21.4006 -47.7859 -13.3461 -21.4006 -51.3498 -10.8678 18.6625 -51.3498 -13.3461 
20.8789 -50.0028 -13.3461 20.8789 -51.3498 -11.1019 29.3347 -45.8732 -13.3461 
-38.3124 -42.8939 -7.27086 -27.877 -42.8939 -13.3461 -29.8565 -40.5111 -13.3461 
-29.8565 -42.8939 -12.4582 32.5764 -42.8939 -13.3461 37.7906 -37.5499 -13.3461 
37.7906 -42.8939 -8.41271 -33.3372 -34.438 -13.3461 -38.3124 -34.438 -10.3113 
41.7483 -34.438 -13.3461 46.2465 -34.438 -9.01553 -46.7682 -25.9821 -6.80976 
-36.0258 -25.9821 -13.3461 -38.3124 -25.9821 -12.2541 43.3438 -25.9821 -13.3461 
46.2465 -22.9098 -13.3461 46.2465 -25.9821 -12.1777 -46.7682 -17.5263 -9.77291 
-37.9636 -17.5263 -13.3461 -38.3124 -17.0445 -13.3461 -38.3124 -17.5263 -13.2578 
51.4048 -17.5263 -13.3461 54.7024 -17.5263 -11.162 -55.2241 -9.07036 -7.03804 
-44.4507 -9.07036 -13.3461 -46.7682 -5.56297 -13.3461 -46.7682 -9.07036 -12.7301 
53.5468 -9.07036 -13.3461 54.7024 -7.3941 -13.3461 54.7024 -9.07036 -12.8195 
-48.645 -0.614476 -13.3461 -55.2241 -0.614476 -9.4098 58.1221 -0.614476 -13.3461 
63.1583 -0.614476 -8.10566 -49.2151 7.84141 -13.3461 -55.2241 7.84141 -9.42403 
-46.7682 14.2587 -13.3461 59.2988 7.84141 -13.3461 63.1583 7.84141 -9.70475 
-55.2241 16.2973 -8.27914 -45.8285 16.2973 -13.3461 -46.7682 16.2973 -12.9695 
56.2142 16.2973 -13.3461 54.7024 20.9664 -13.3461 63.1583 16.2973 -6.33213 
-55.2241 24.7532 -5.08634 -41.0914 24.7532 -13.3461 -46.7682 24.7532 -10.734 
-38.3124 29.9081 -13.3461 12.423 33.1919 -13.3461 20.8789 31.7556 -13.3461 
37.7906 30.7075 -13.3461 52.4659 24.7532 -13.3461 46.2465 29.9789 -13.3461 
54.7024 24.7532 -12.0369 -46.7682 33.2091 -8.35264 -35.4459 33.2091 -13.3461 
-38.3124 33.2091 -12.5826 -29.8565 36.8959 -13.3461 -21.4006 40.1979 -13.3461 
12.4051 33.2091 -13.3461 3.96708 38.3222 -13.3461 12.423 33.2091 -13.3435 
24.2046 33.2091 -13.3461 20.8789 33.2091 -12.968 32.5608 33.2091 -13.3461 
29.3347 34.587 -13.3461 37.7906 33.2091 -12.2765 46.2465 33.2091 -11.1994 
-38.3124 41.665 -9.12074 -29.8565 41.665 -11.2948 -14.8268 41.665 -13.3461 
-21.4006 41.665 -12.7778 -12.9447 42.0205 -13.3461 -1.97405 41.665 -13.3461 
-4.48881 42.5083 -13.3461 3.96708 41.665 -12.4492 12.423 41.665 -10.7811 
20.8789 41.665 -9.34298 29.3347 41.665 -8.24987 37.7906 41.665 -6.537 
-21.4006 50.1208 -6.84224 -12.9447 50.1208 -7.55716 -4.48881 50.1208 -8.44437 
3.96708 50.1208 -6.93745 12.423 50.1208 -5.90544 -4.48881 -59.8229 -4.89016 
-29.8565 -51.5041 -4.89016 -21.4006 -55.6004 -4.89016 -4.61275 -59.8057 -4.89016 
-12.9447 -58.5393 -4.89016 -4.21702 -59.8057 -4.89016 -4.48881 -59.8057 -4.83045 
3.96708 -59.2675 -4.89016 12.423 -57.0533 -4.89016 20.8789 -53.4136 -4.89016 
-30.0792 -51.3498 -4.89016 -38.3124 -44.6959 -4.89016 -29.8565 -51.3498 -4.03719 
25.9046 -51.3498 -4.89016 20.8789 -51.3498 -0.724754 29.3347 -49.8409 -4.89016 
37.7906 -45.0614 -4.89016 -40.041 -42.8939 -4.89016 40.5645 -42.8939 -4.89016 
37.7906 -42.8939 0.320082 46.2465 -36.9851 -4.89016 -45.6443 -34.438 -4.89016 
-46.7682 -31.3065 -4.89016 -46.7682 -34.438 -0.546587 48.2537 -34.438 -4.89016 
46.2465 -34.438 0.525362 -48.5985 -25.9821 -4.89016 53.0863 -25.9821 -4.89016 
54.7024 -23.3253 -4.89016 -53.7928 -17.5263 -4.89016 -55.2241 -14.3728 -4.89016 
-55.2241 -17.5263 -2.26751 57.9401 -17.5263 -4.89016 -57.1664 -9.07036 -4.89016 
62.0534 -9.07036 -4.89016 63.1583 -5.83618 -4.89016 -59.7298 -0.614476 -4.89016 
-63.68 -0.614476 3.0145 64.679 -0.614476 -4.89016 -59.4365 7.84141 -4.89016 
65.6726 7.84141 -4.89016 -58.4174 16.2973 -4.89016 63.9136 16.2973 -4.89016 
63.1583 18.0725 -4.89016 -55.3872 24.7532 -4.89016 -55.2241 25.0511 -4.89016 
59.393 24.7532 -4.89016 54.7024 31.3907 -4.89016 -49.7007 33.2091 -4.89016 
-46.7682 37.2766 -4.89016 52.771 33.2091 -4.89016 46.2465 37.9404 -4.89016 
-43.152 41.665 -4.89016 -38.3124 45.3363 -4.89016 -29.8565 48.8999 -4.89016 
20.8789 47.3942 -4.89016 29.3347 44.3679 -4.89016 40.3985 41.665 -4.89016 
37.7906 42.957 -4.89016 -26.3718 50.1208 -4.89016 -29.8565 50.1208 -0.188486 
-21.4006 51.5369 -4.89016 -12.9447 52.0125 -4.89016 -4.48881 52.7451 -4.89016 
3.96708 51.7212 -4.89016 14.8335 50.1208 -4.89016 12.423 50.9143 -4.89016 
20.8789 50.1208 3.54626 -21.4006 -54.1696 3.56572 -12.9447 -55.6576 3.56572 
-4.48881 -56.5246 3.56572 3.96708 -55.7413 3.56572 12.423 -53.2515 3.56572 
-38.3124 -44.5128 3.56572 -27.0519 -51.3498 3.56572 -29.8565 -49.6952 3.56572 
-21.4006 -51.3498 7.17003 -12.9447 -51.3498 8.76178 -4.48881 -51.3498 9.29175 
3.96708 -51.3498 7.9831 16.3244 -51.3498 3.56572 12.423 -51.3498 5.60705 
20.8789 -48.2254 3.56572 29.3347 -45.4911 3.56572 -40.1568 -42.8939 3.56572 
-46.7682 -35.4749 3.56572 -38.3124 -42.8939 5.92553 -29.8565 -42.8939 10.6006 
12.423 -42.8939 9.90521 20.8789 -42.8939 8.11629 34.7125 -42.8939 3.56572 
29.3347 -42.8939 5.97375 37.7906 -40.5279 3.56572 -47.5189 -34.438 3.56572 
-46.7682 -34.438 5.12554 29.3347 -34.438 10.4715 44.2495 -34.438 3.56572 
37.7906 -34.438 7.76794 46.2465 -32.7693 3.56572 -52.597 -25.9821 3.56572 
-55.2241 -21.3728 3.56572 -46.7682 -25.9821 11.239 37.7906 -25.9821 10.5459 
50.7857 -25.9821 3.56572 46.2465 -25.9821 7.80375 54.7024 -19.4124 3.56572 
-57.3837 -17.5263 3.56572 -55.2241 -17.5263 10.0112 46.2465 -17.5263 11.1047 
55.8563 -17.5263 3.56572 54.7024 -17.5263 4.79804 -61.3623 -9.07036 3.56572 
-63.68 -1.27029 3.56572 60.099 -9.07036 3.56572 54.7024 -9.07036 9.11149 
63.1583 -1.09134 3.56572 -63.8742 -0.614476 3.56572 -63.68 4.76192 3.56572 
-63.68 -0.614476 4.26603 54.7024 -0.614476 11.4677 63.3207 -0.614476 3.56572 
63.1583 -0.614476 3.79888 -63.5729 7.84141 3.56572 64.7351 7.84141 3.56572 
63.1583 7.84141 5.98987 -61.5585 16.2973 3.56572 63.3281 16.2973 3.56572 
63.1583 16.7632 3.56572 63.1583 16.2973 3.8304 -58.5869 24.7532 3.56572 
-55.2241 30.167 3.56572 59.8378 24.7532 3.56572 54.7024 32.4374 3.56572 
54.7024 24.7532 10.883 -53.2196 33.2091 3.56572 -46.7682 41.1392 3.56572 
54.0693 33.2091 3.56572 46.2465 40.1507 3.56572 46.2465 33.2091 11.258 
-46.1782 41.665 3.56572 -38.3124 47.2505 3.56572 29.3347 47.7004 3.56572 
43.7862 41.665 3.56572 37.7906 44.84 3.56572 37.7906 41.665 10.7478 
-31.7529 50.1208 3.56572 -29.8565 50.8782 3.56572 -29.8565 50.1208 5.81034 
-21.4006 53.3135 3.56572 -21.4006 50.1208 10.1658 -12.9447 54.6652 3.56572 
-4.48881 55.3968 3.56572 3.96708 54.6609 3.56572 3.96708 50.1208 11.3029 
12.423 52.9483 3.56572 12.423 50.1208 8.8087 20.8943 50.1208 3.56572 
20.8789 50.1253 3.56572 20.8789 50.1208 3.57901 -21.4006 -43.8313 12.0216 
-12.9447 -46.4041 12.0216 -4.48881 -46.74 12.0216 3.96708 -43.1865 12.0216 
-38.3124 -35.2041 12.0216 -23.8478 -42.8939 12.0216 -29.8565 -40.8853 12.0216 
-21.4006 -42.8939 12.5332 -12.9447 -42.8939 13.4864 -4.48881 -42.8939 13.5265 
4.50536 -42.8939 12.0216 3.96708 -42.8939 12.1539 12.423 -37.7525 12.0216 
20.8789 -34.9388 12.0216 -39.1927 -34.438 12.0216 -38.3124 -34.438 12.4552 
[...]
POINT_DATA 538
SCALARS ImageScalars float
LOOKUP_TABLE default
0 0 0 0 0 0 0 0 0 
0 0 0 0 0 0 0 0 0 
0 0 0 0 0 0 0 0 0 
0 0 0 0 0 0 0 0 0 
0 0 0 0 0 0 0 0 0 
0 0 0 0 0 0 0 0 0 
0 0 0 0 0 0 0 0 0 
0 0 0 0 0 0 0 0 0 
0 0 0 0 0 0 0 0 0 
0 0 0 0 0 0 0 0 0 
0 0 0 0 0 0 0 0 0 
0 0 0 0 0 0 0 0 0 
0 0 0 0 0 0 0 0 0 
0 0 0 0 0 0 0 0 0 
0 0 0 0 0 0 0 0 0 
0 0 0 0 0 0 0 0 0 
0 0 0 0 0 0 0 0 0 
0 0 0 0 0 0 0 0 0 
0 0 0 0 0 0 0 0 0 
0 0 0 0 0 0 0 0 0 
0 0 0 0 0 0 0 0 0 
0 0 0 0 0 0 0 0 0 
0 0 0 0 0 0 0 0 0 
0 0 0 0 0 0 0 0 0 
0 0 0 0 0 0 0 0 0 
0 0 0 0 0 0 0 0 0 
0 0 0 0 0 0 0 0 0 
0 0 0 0 0 0 0 0 0 
0 0 0 0 0 0 0 0 0 
0 0 0 0 0 0 0 0 0 
0 0 0 0 0 0 0 0 0 
0 0 0 0 0 0 0 0 0 
0 0 0 0 0 0 0 0 0 
0 0 0 0 0 0 0 0 0 
0 0 0 0 0 0 0 0 0 
0 0 0 0 0 0 0 0 0 
0 0 0 0 0 0 0 0 0 
0 0 0 0 0 0 0 0 0 
0 0 0 0 0 0 0 0 0 
0 0 0 0 0 0 0 0 0 
0 0 0 0 0 0 0 0 0 
0 0 0 0 0 0 0 0 0 
0 0 0 0 0 0 0 0 0 
0 0 0 0 0 0 0 0 0 
0 0 0 0 0 0 0 0 0 
0 0 0 0 0 0 0 0 0 
0 0 0 0 0 0 0 0 0 
0 0 0 0 0 0 0 0 0 
0 0 0 0 0 0 0 0 0 
0 0 0 0 0 0 0 0 0 
0 0 0 0 0 0 0 0 0 
0 0 0 0 0 0 0 0 0 
0 0 0 0 0 0 0 0 0 
0 0 0 0 0 0 0 0 0 
0 0 0 0 0 0 0 0 0 
0 0 0 0 0 0 0 0 0 
0 0 0 0 0 0 0 0 0 
0 0 0 0 0 0 0 0 0 
0 0 0 0 0 0 0 0 0 
0 0 0 0 0 0 0 
NORMALS Normals float
-0.258637 -0.498303 -0.827527 -0.123855 -0.438402 -0.890204 0.0520583 -0.457721 -0.887571 
0.209764 -0.574337 -0.791287 -0.281044 -0.332515 -0.900249 -0.167022 -0.257251 -0.951801 
-0.0466924 -0.162243 -0.985645 -0.0487172 -0.147864 -0.987807 0.0717306 -0.24077 -0.967928 
0.282766 -0.279036 -0.917705 0.384849 -0.388441 -0.83726 -0.38955 -0.15877 -0.907217 
-0.216074 -0.127518 -0.968014 -0.0790497 -0.0323206 -0.996347 -0.00956456 0.0203124 -0.999748 
-0.0357959 0.0515 -0.998031 0.0479691 0.0508774 -0.997552 0.156636 -0.0577261 -0.985968 
0.228409 -0.131367 -0.964662 0.312859 -0.241564 -0.918567 -0.322389 -0.00778427 -0.946575 
-0.16954 0.0562669 -0.983916 -0.0117636 0.054052 -0.998469 0.0421954 0.0969228 -0.994397 
-0.0273044 0.162678 -0.986301 -0.0257095 0.126272 -0.991663 0.0935935 0.0633699 -0.993592 
0.195259 0.000223357 -0.980752 0.2562 -0.0893064 -0.96249 -0.206618 -0.0223075 -0.978167 
-0.166478 0.110579 -0.979825 -0.0369095 0.0608275 -0.997466 0.0985299 -0.0730245 -0.992451 
-0.00371316 0.00640659 -0.999973 -0.0457416 -0.0260858 -0.998613 0.0376282 0.0963167 -0.994639 
0.053625 -0.00235503 -0.998558 0.143272 -0.124276 -0.98185 0.2437 -0.191859 -0.950684 
-0.205412 -0.208705 -0.956163 -0.0787688 -0.151461 -0.98532 -0.0761919 -0.0866766 -0.993319 
-0.218192 -0.0476341 -0.974743 -0.0321657 -0.10312 -0.994149 0.0183693 -0.0587321 -0.998105 
0.11063 -0.203864 -0.972728 0.116389 -0.0358914 -0.992555 -0.0128143 -0.0716519 -0.997347 
0.0722363 -0.115039 -0.990731 0.221389 -0.169347 -0.960369 -0.368487 -0.0974337 -0.924513 
-0.214658 -0.128176 -0.968242 -0.0915895 -0.11784 -0.9888 -0.0633996 -0.136522 -0.988606 
-0.0300196 0.0314577 -0.999054 0.0935117 0.097202 -0.990862 -0.114504 -0.0398543 -0.992623 
0.00668055 0.212325 -0.977176 0.129497 0.0154486 -0.991459 -0.0286397 -0.0469235 -0.998488 
0.0317704 -0.076304 -0.996578 0.155078 -0.114821 -0.981207 0.406387 -0.158443 -0.899858 
-0.376481 0.0610167 -0.924413 -0.225638 0.03536 -0.973569 -0.0834839 0.0286533 -0.996097 
0.0485276 0.0632925 -0.996814 0.0195932 0.171277 -0.985028 -0.0826754 0.179917 -0.980201 
0.120372 0.038988 -0.991963 0.117796 0.308405 -0.943934 -0.106453 0.100805 -0.989195 
-0.103579 0.0400431 -0.993815 0.00377263 0.026254 -0.999648 0.132047 0.0516967 -0.989895 
0.383961 0.0558547 -0.921659 -0.240555 0.150187 -0.958946 -0.0637807 0.0964243 -0.993295 
0.0746431 0.100056 -0.992178 0.092269 0.0822374 -0.992332 -0.0273449 0.166088 -0.985732 
0.0534638 0.247842 -0.967324 0.0184713 0.0925502 -0.995537 -0.146135 0.0944085 -0.984749 
-0.106713 0.125735 -0.986308 0.0413819 0.156166 -0.986863 0.196942 0.175401 -0.964598 
0.426436 0.189503 -0.884444 -0.320867 0.19359 -0.927129 -0.13223 0.148234 -0.980072 
0.0438837 0.0818553 -0.995678 0.0854462 0.0519004 -0.99499 0.0647153 0.055481 -0.99636 
0.0513432 0.121261 -0.991292 -0.0186484 0.0968636 -0.995123 -0.0819183 0.185979 -0.979133 
-0.0318769 0.219191 -0.975161 0.0546162 0.294893 -0.953968 0.176919 0.264754 -0.947948 
-0.175543 0.288811 -0.941155 -0.0276676 0.221087 -0.974862 0.0628246 0.146927 -0.98715 
0.0487002 0.107586 -0.993002 0.0853202 0.13458 -0.987223 0.025877 0.330777 -0.943354 
-0.0489274 0.320152 -0.946102 0.0549585 0.265813 -0.962457 -0.278108 -0.573986 -0.770193 
-0.134877 -0.704678 -0.69659 -0.0384179 -0.99915 0.0149385 0.0942573 -0.765071 -0.63701 
0.288938 -0.703669 -0.649126 -0.555518 -0.812459 -0.176947 -0.299553 -0.529134 -0.793905 
-0.316929 -0.478268 -0.819034 -0.368828 -0.676373 -0.637561 0.333495 -0.716698 -0.612475 
0.344796 -0.703282 -0.621699 0.386641 -0.840071 -0.380512 0.419985 -0.549302 -0.722413 
-0.691318 -0.56241 -0.453624 -0.367049 -0.372404 -0.852403 -0.398385 -0.312339 -0.8624 
-0.415783 -0.408324 -0.812648 0.451009 -0.468888 -0.759431 0.388735 -0.372468 -0.842705 
0.586902 -0.735449 -0.338616 -0.441841 -0.17613 -0.879633 -0.573118 -0.228462 -0.786982 
0.455782 -0.302591 -0.837079 0.76787 -0.494671 -0.407034 -0.672606 -0.301433 -0.675825 
-0.37705 -0.110293 -0.919603 -0.419297 -0.159719 -0.893689 0.386637 -0.171324 -0.906179 
0.370322 -0.223008 -0.901737 0.512134 -0.262193 -0.817908 -0.483667 -0.264131 -0.834447 
-0.294809 -0.131465 -0.94647 -0.293437 -0.140089 -0.945658 -0.299585 -0.136704 -0.944225 
0.459837 -0.256108 -0.85027 0.681325 -0.347186 -0.644405 -0.691942 -0.250574 -0.677074 
-0.303585 -0.224836 -0.925897 -0.352423 -0.176383 -0.919069 -0.35042 -0.23079 -0.907712 
0.449489 -0.169774 -0.877004 0.470795 -0.170945 -0.865523 0.508869 -0.188254 -0.840008 
-0.417179 -0.0986797 -0.903451 -0.62646 -0.100727 -0.772918 0.544906 -0.174334 -0.820174 
0.898541 -0.206244 -0.387411 -0.443108 0.0755762 -0.893277 -0.647306 0.0585207 -0.75998 
-0.40944 0.164395 -0.897404 0.567002 0.0633925 -0.821273 0.842755 0.0624119 -0.534667 
-0.666534 0.188119 -0.721349 -0.401959 0.19026 -0.895673 -0.420992 0.195168 -0.885819 
0.480991 0.199816 -0.853652 0.481482 0.297635 -0.824372 0.897752 0.313248 -0.309705 
-0.727857 0.406389 -0.552334 -0.369742 0.19045 -0.909406 -0.48152 0.218355 -0.848799 
-0.300992 0.236666 -0.923793 0.0923745 0.218623 -0.971427 -0.0419304 0.285081 -0.957586 
0.0894609 0.410541 -0.907443 0.429831 0.35916 -0.828401 0.245197 0.432178 -0.867814 
0.560425 0.421914 -0.71268 -0.63025 0.410043 -0.659279 -0.244739 0.277186 -0.929124 
-0.297768 0.273396 -0.914653 -0.172691 0.376124 -0.910334 -0.101523 0.38781 -0.916131 
0.0925889 0.218679 -0.971394 0.134189 0.236146 -0.962408 0.0925953 0.218876 -0.971349 
-0.00771598 0.315564 -0.948873 -0.0310134 0.308279 -0.95079 0.0606438 0.374804 -0.925119 
0.0393465 0.38153 -0.923518 0.132291 0.474034 -0.870512 0.34387 0.599758 -0.722526 
-0.425307 0.594798 -0.68215 -0.184527 0.524971 -0.830876 -0.0649896 0.341852 -0.937504 
-0.115503 0.427269 -0.896716 -0.0523604 0.334029 -0.941108 0.0879484 0.277531 -0.956683 
0.0530547 0.301516 -0.951984 0.160953 0.326416 -0.931422 0.168324 0.376954 -0.910809 
0.127382 0.546469 -0.827735 0.135939 0.724182 -0.676078 0.279996 0.784465 -0.553369 
-0.162952 0.815461 -0.555402 -0.0656045 0.779198 -0.623335 0.0263923 0.733644 -0.679021 
0.110246 0.753271 -0.648405 0.206059 0.793859 -0.572126 -0.037711 -0.999105 0.0191551 
-0.554476 -0.817316 -0.156686 -0.399387 -0.901883 -0.164614 -0.0404211 -0.999012 0.0184833 
-0.245992 -0.967452 -0.0593675 -0.031473 -0.999261 0.0220784 -0.0373013 -0.999047 0.0226803 
0.166987 -0.981028 0.09849 0.328408 -0.940338 0.0889573 0.388703 -0.919374 0.060513 
-0.557979 -0.814462 -0.159096 -0.699077 -0.652843 -0.291697 -0.553955 -0.826132 -0.103153 
0.43188 -0.897489 0.0894014 0.419848 -0.834012 0.357983 0.464448 -0.882108 0.0785715 
0.570096 -0.81833 -0.0729811 -0.732608 -0.60295 -0.31581 0.632083 -0.772065 -0.0662305 
0.58224 -0.733165 0.351376 0.785244 -0.617828 -0.0409953 -0.797742 -0.408483 -0.443565 
-0.776474 -0.393695 -0.49203 -0.835577 -0.53176 -0.137992 0.824609 -0.562805 -0.0571973 
0.70932 -0.612613 0.34867 -0.721064 -0.37005 -0.585773 0.858475 -0.494528 -0.135878 
0.857439 -0.503642 -0.105563 -0.720919 -0.344931 -0.601081 -0.74618 -0.30653 -0.590978 
-0.823606 -0.400943 -0.401146 0.865699 -0.484799 -0.124642 -0.75709 -0.260722 -0.599031 
0.907313 -0.386155 -0.166336 0.936878 -0.31617 -0.149321 -0.775747 -0.107513 -0.621818 
-0.989138 -0.128842 -0.0707546 0.967646 -0.200102 -0.153689 -0.785258 0.069145 -0.615296 
0.980091 0.0452615 -0.193323 -0.794311 0.207655 -0.57092 0.926858 0.30545 -0.218253 
0.908975 0.348182 -0.229203 -0.733531 0.40749 -0.543952 -0.73252 0.409771 -0.543601 
0.804321 0.524596 -0.279046 0.676953 0.658336 -0.329132 -0.720527 0.465104 -0.514314 
-0.680896 0.537021 -0.497985 0.620089 0.700628 -0.353001 0.502647 0.775882 -0.381252 
-0.594144 0.650988 -0.472449 -0.462862 0.762328 -0.452344 -0.314276 0.829733 -0.461273 
0.282724 0.775099 -0.565057 0.211958 0.813288 -0.541883 0.363178 0.819771 -0.442805 
0.29531 0.835801 -0.462849 -0.255307 0.858527 -0.444691 -0.335159 0.929356 -0.15481 
-0.163658 0.878134 -0.449552 -0.068486 0.861688 -0.502795 0.0135059 0.853524 -0.520878 
0.107689 0.829832 -0.547524 0.231068 0.825612 -0.514755 0.206336 0.833079 -0.51323 
0.300117 0.952628 0.0492947 -0.310405 -0.862085 0.400572 -0.127846 -0.844463 0.520133 
0.00193476 -0.80027 0.599636 0.180466 -0.763909 0.619576 0.327723 -0.727174 0.603171 
-0.597045 -0.750056 0.284523 -0.410524 -0.817675 0.403581 -0.459357 -0.799381 0.387274 
-0.281711 -0.710395 0.644963 -0.0921318 -0.671015 0.735697 0.0497298 -0.623913 0.77991 
0.171014 -0.592515 0.787198 0.372097 -0.672338 0.639926 0.334916 -0.62738 0.703012 
0.333659 -0.641681 0.690592 0.287787 -0.723235 0.627782 -0.63974 -0.723065 0.260595 
-0.787741 -0.601557 0.132643 -0.564754 -0.709838 0.42093 -0.259689 -0.613354 0.745894 
0.199415 -0.410399 0.889835 0.208305 -0.544512 0.812475 0.427864 -0.642928 0.635276 
0.278928 -0.612578 0.739559 0.508199 -0.584921 0.63214 -0.799937 -0.587401 0.12272 
-0.777192 -0.584376 0.233402 0.210429 -0.365771 0.906604 0.578701 -0.574451 0.578887 
0.422388 -0.444846 0.789747 0.617155 -0.556418 0.556344 -0.853531 -0.517434 0.0612051 
-0.873979 -0.485846 0.0106637 -0.542827 -0.419583 0.727523 0.285032 -0.245675 0.926499 
0.736372 -0.434157 0.518906 0.530104 -0.382505 0.756756 0.717201 -0.479592 0.505584 
-0.882782 -0.469557 -0.0145795 -0.759453 -0.429326 0.488784 0.393998 -0.263079 0.880656 
0.716654 -0.489238 0.497045 0.674386 -0.479484 0.561515 -0.934545 -0.353854 -0.0375955 
-0.988528 -0.146066 -0.0384232 0.801116 -0.373219 0.467889 0.550811 -0.321922 0.770048 
0.868655 -0.256907 0.4236 -0.990988 -0.128497 -0.0378353 -0.997636 0.0379067 -0.0573111 
-0.991333 -0.131138 0.00783079 0.513898 -0.206055 0.832737 0.872666 -0.24833 0.42046 
0.865917 -0.250424 0.432984 -0.98928 0.129499 -0.0674948 0.935665 -0.000514822 0.352889 
0.861386 -0.00871886 0.507877 -0.95766 0.285048 -0.0404333 0.901738 0.25916 0.345983 
0.89861 0.271254 0.344851 0.896262 0.259543 0.359655 -0.898911 0.435973 -0.0434254 
-0.851258 0.524353 -0.0203532 0.850597 0.456468 0.261003 0.754607 0.625523 0.198218 
0.647411 0.309841 0.696317 -0.819795 0.572646 0.00363409 -0.697162 0.715229 0.0491238 
0.737856 0.646178 0.194993 0.568511 0.812006 0.132064 0.513821 0.496624 0.699537 
-0.682053 0.729127 0.0563765 -0.466771 0.878431 0.102393 0.292603 0.954904 0.0504075 
0.51898 0.8479 0.108285 0.406817 0.909478 0.0857326 0.34865 0.742533 0.571916 
-0.350672 0.9342 0.0655722 -0.325363 0.943434 0.0638117 -0.32014 0.927403 0.19348 
-0.222066 0.969632 0.102474 -0.168686 0.83492 0.523883 -0.122537 0.990175 0.0673699 
-0.000174066 0.99683 0.0795572 0.148986 0.985236 0.0843439 0.146269 0.740137 0.656356 
0.263432 0.957477 0.117651 0.206436 0.852654 0.479963 0.299978 0.952611 0.0504424 
0.300009 0.952601 0.050452 0.299931 0.952583 0.0512458 -0.165332 -0.432843 0.886179 
-0.0775276 -0.458823 0.885139 0.0841306 -0.431779 0.898048 0.199131 -0.373284 0.906094 
-0.407533 -0.413457 0.81423 -0.174924 -0.469672 0.865338 -0.213611 -0.527279 0.822403 
-0.148849 -0.425091 0.892828 -0.0489956 -0.349911 0.935501 0.0754664 -0.301375 0.950514 
0.197958 -0.370005 0.907694 0.198108 -0.367479 0.908687 0.16188 -0.34386 0.924962 
0.163126 -0.331188 0.929357 -0.427765 -0.403059 0.809049 -0.401585 -0.393045 0.827191 
-0.153787 -0.314991 0.936552 -0.039638 -0.268493 0.962466 0.0314865 -0.201197 0.979045 
0.0665377 -0.168145 0.983514 0.114241 -0.225205 0.967591 0.147657 -0.308313 0.939755 
0.164045 -0.32318 0.932011 0.159872 -0.319277 0.934079 0.218705 -0.251018 0.942952 
-0.470675 -0.37122 0.800413 -0.473042 -0.381342 0.794235 -0.281437 -0.243053 0.928288 
-0.132268 -0.125612 0.983223 0.0021643 -0.0910352 0.995845 0.0604943 -0.106679 0.992452 
0.0467212 -0.0854404 0.995247 0.044871 -0.140149 0.989113 0.0944799 -0.236075 0.967131 
0.159072 -0.174268 0.971765 0.241639 -0.211736 0.946984 0.2262 -0.200744 0.953171 
0.195562 -0.226897 0.954082 -0.62428 -0.380821 0.682092 -0.66068 -0.355856 0.660961 
-0.311788 -0.270978 0.910692 -0.150362 -0.16149 0.975352 -0.0154604 -0.0268638 0.99952 
-0.0151028 0.0533651 0.998461 0.0462265 -0.0223443 0.998681 0.0333474 -0.0692351 0.997043 
-0.0385311 -0.0854995 0.995593 0.0999544 -0.149633 0.983676 0.209481 -0.0611826 0.975897 
0.147827 -0.126021 0.980951 0.274149 -0.24392 0.930239 0.162274 -0.224609 0.960842 
0.330236 -0.237145 0.913623 -0.679123 -0.291975 0.673456 -0.586635 -0.287686 0.757031 
-0.174652 -0.22719 0.958061 -0.00453451 -0.096776 0.995296 0.0706564 -0.0559144 0.995932 
0.014369 0.0400489 0.999094 -0.0694454 0.0516493 0.996248 -0.0209705 -0.0283388 0.999378 
-0.0371599 -0.00852187 0.999273 0.134724 0.0290259 0.990458 0.169416 -0.0980392 0.980656 
0.0610004 -0.206508 0.976542 0.135433 -0.250901 0.958492 0.326612 -0.236055 0.915206 
0.29484 -0.227193 0.928145 -0.751782 -0.150445 0.64202 -0.520842 -0.1824 0.833939 
-0.121964 -0.144419 0.981972 0.0242035 -0.139203 0.989968 0.121718 -0.125027 0.984659 
0.0890631 -0.118343 0.988971 -0.0149087 -0.0408894 0.999052 -0.0208443 -0.0837541 0.996268 
0.0169204 -0.137198 0.990399 0.00771832 0.071214 0.997431 -0.0252066 -0.143583 0.989317 
0.00561912 -0.205262 0.978691 0.12829 -0.219585 0.967122 0.474089 -0.207053 0.855785 
0.286552 -0.217509 0.933048 0.497765 -0.161047 0.852229 -0.804016 0.0911018 0.587588 
-0.582391 0.0543905 0.811087 -0.115761 -0.00406013 0.993269 0.0156788 -0.0523844 0.998504 
0.0910374 -0.0868983 0.992049 0.0993843 -0.139575 0.985211 -0.0187871 -0.116394 0.993025 
-0.109946 -0.0822286 0.99053 0.112051 -0.0942123 0.989226 0.099018 -0.105328 0.989496 
-0.102636 -0.109108 0.988717 -0.0223501 -0.104768 0.994246 0.11888 -0.0973762 0.988122 
0.274366 -0.0814336 0.958171 0.523693 -0.054387 0.850169 0.483398 -0.0622232 0.873187 
-0.757991 0.252971 0.601212 -0.637574 0.260389 0.72505 -0.221624 0.185647 0.957297 
-0.0552436 0.00848749 0.998437 0.0353747 -0.0191813 0.99919 0.0562677 -0.0846571 0.99482 
0.0296019 -0.113376 0.993111 -0.0108129 -0.0423682 0.999044 0.00375798 0.0394652 0.999214 
0.012969 -0.131133 0.99128 -0.0258087 -0.0787387 0.996561 0.015575 -0.0237028 0.999598 
0.145486 0.00415825 0.989352 0.321054 0.0702321 0.944453 0.576294 0.113508 0.809321 
0.584358 0.186285 0.789825 0.549823 0.104445 0.828725 -0.715738 0.381697 0.58483 
-0.701368 0.405211 0.586419 -0.681375 0.379145 0.626081 -0.361127 0.242634 0.900398 
-0.194698 0.179321 0.964332 -0.00154759 0.0206412 0.999786 0.00503488 -0.00572556 0.999971 
0.0232694 -0.0438662 0.998766 0.0436021 -0.0204598 0.998839 0.0201271 0.0310565 0.999315 
-0.0144886 0.0207278 0.99968 0.00443794 0.0448111 0.998986 0.0586109 0.0690822 0.995888 
0.219879 0.160167 0.962289 0.567166 0.282065 0.773797 0.477338 0.439996 0.760626 
0.367345 0.23509 0.899883 -0.593748 0.505694 0.625889 -0.561846 0.523543 0.640493 
-0.546104 0.478041 0.68793 -0.262409 0.322632 0.909423 -0.146068 0.25157 0.956753 
-0.0121509 0.155537 0.987755 0.0144267 0.0880276 0.996014 0.0622966 0.0782548 0.994985 
0.0485093 0.110603 0.99268 0.0300981 0.186733 0.981949 0.0275023 0.235138 0.971573 
0.132199 0.265095 0.955117 0.47655 0.456149 0.751551 0.329984 0.662092 0.672863 
0.296088 0.340564 0.892383 -0.412946 0.643915 0.644088 -0.401488 0.651635 0.643567 
-0.3979 0.640449 0.656887 -0.261992 0.706426 0.657512 -0.203585 0.484694 0.850662 
-0.140747 0.726302 0.672812 -0.136615 0.410773 0.901445 -0.0532416 0.354045 0.933712 
0.0619324 0.373002 0.925761 0.141252 0.680751 0.718767 0.125792 0.347491 0.929207 
0.130843 0.645488 0.75248 0.10427 0.431111 0.896254 0.173443 0.685344 0.707263 
0.103784 0.503056 0.858 0.283047 0.692343 0.663736 0.221359 0.705445 0.673311 
0.206882 0.67424 0.708943 -0.0970764 0.755902 0.647448 -0.0868689 0.756443 0.648265 
-0.0830971 0.750194 0.655975 0.0904067 0.689839 0.718296 0.0360474 0.685813 0.726885 
0.0378868 0.666439 0.744597 
