# vtk DataFile Version 4.2
vtk output
ASCII
DATASET POLYDATA
POINTS 472 float
36.7626 -4.47442 -29.8705 -18.8836 -50.8462 -24.4594 -9.6092 -50.8462 -26.3692 
-0.334848 -50.8462 -25.5529 -28.1579 -41.5718 -22.7613 -18.8836 -41.5718 -26.1449 
-9.6092 -41.5718 -27.8539 -0.334848 -41.5718 -27.8613 8.9395 -41.5718 -25.0285 
-28.1579 -32.2975 -24.0656 -18.8836 -32.2975 -26.3213 -9.6092 -32.2975 -27.3595 
-0.334848 -32.2975 -27.5066 8.9395 -32.2975 -26.2833 18.2139 -32.2975 -24.097 
27.4882 -32.2975 -20.3907 -28.1579 -23.0231 -24.3816 -18.8836 -23.0231 -25.6781 
-9.6092 -23.0231 -25.9933 -0.334848 -23.0231 -25.8632 8.9395 -23.0231 -26.0518 
18.2139 -23.0231 -26.3016 27.4882 -23.0231 -26.3118 36.7626 -23.0231 -24.714 
-28.1579 -13.7488 -24.024 -18.8836 -13.7488 -25.6154 -9.6092 -13.7488 -25.967 
-0.334848 -13.7488 -26.133 8.9395 -13.7488 -26.9048 18.2139 -13.7488 -27.4508 
27.4882 -13.7488 -28.3222 36.7626 -7.38677 -29.4332 36.7626 -13.7488 -28.5166 
46.0369 -13.7488 -26.8819 55.3113 -13.7488 -20.9161 -28.1579 -4.47442 -23.1449 
-18.8836 -4.47442 -25.0681 -9.6092 -4.47442 -25.9624 -0.334848 -4.47442 -26.1021 
8.9395 -4.47442 -27.0351 18.2139 -4.47442 -27.3122 32.3271 -4.47442 -29.4332 
27.4882 -4.47442 -28.9373 40.0413 -4.47442 -29.4332 36.7626 -0.0452935 -29.4332 
46.0369 -4.47442 -28.6041 55.3113 -4.47442 -24.4747 -37.4323 4.79993 -20.3394 
-28.1579 4.79993 -22.5393 -18.8836 4.79993 -23.6543 -9.6092 4.79993 -24.5677 
-0.334848 4.79993 -24.4179 8.9395 4.79993 -26.3808 18.2139 4.79993 -27.3367 
27.4882 4.79993 -28.6967 36.7626 4.79993 -28.9466 46.0369 4.79993 -27.8813 
55.3113 4.79993 -22.9862 -28.1579 14.0743 -22.1634 -18.8836 14.0743 -22.8295 
-9.6092 14.0743 -24.107 -0.334848 14.0743 -25.0711 8.9395 14.0743 -26.9141 
18.2139 14.0743 -28.0994 27.4882 14.0743 -27.9106 36.7626 14.0743 -26.6858 
46.0369 14.0743 -23.1835 -28.1579 23.3486 -20.9026 -18.8836 23.3486 -22.3397 
-9.6092 23.3486 -23.4315 -0.334848 23.3486 -24.09 8.9395 23.3486 -25.4546 
18.2139 23.3486 -26.7378 27.4882 23.3486 -25.8017 36.7626 23.3486 -21.3444 
-18.8836 32.623 -21.3619 -9.6092 32.623 -21.8691 -0.334848 32.623 -21.9976 
8.9395 32.623 -22.0823 18.2139 32.623 -22.0646 -18.8836 -57.3129 -20.1588 
-9.6092 -59.0645 -20.1588 -9.6092 -60.1205 -15.8086 -0.334848 -56.824 -20.1588 
-25.6781 -50.8462 -20.1588 -28.1579 -47.6095 -20.1588 -28.1579 -50.8462 -16.5048 
8.23306 -50.8462 -20.1588 8.9395 -50.1112 -20.1588 8.9395 -50.8462 -15.9352 
-31.7306 -41.5718 -20.1588 -37.4323 -41.5718 -11.7989 16.7961 -41.5718 -20.1588 
18.2139 -40.0188 -20.1588 18.2139 -41.5718 -12.2237 27.4882 -32.5292 -20.1588 
-35.2537 -32.2975 -20.1588 -37.4323 -32.2975 -18.1934 27.8797 -32.2975 -20.1588 
36.7626 -27.4713 -20.1588 -36.9955 -23.0231 -20.1588 -37.4323 -23.0231 -19.9113 
45.2457 -23.0231 -20.1588 46.0369 -22.5275 -20.1588 55.3113 -14.5889 -20.1588 
-46.7066 -13.7488 -11.8608 -37.3944 -13.7488 -20.1588 -37.4323 -13.7488 -20.1403 
55.9668 -13.7488 -20.1588 -46.7066 -4.47442 -13.1434 -37.2863 -4.47442 -20.1588 
-37.4323 -2.54635 -20.1588 -37.4323 -4.47442 -20.1054 59.3448 -4.47442 -20.1588 
-37.794 4.79993 -20.1588 -46.7066 4.79993 -14.423 -37.4323 10.1698 -20.1588 
58.0311 4.79993 -20.1588 55.3113 8.46578 -20.1588 -46.7066 14.0743 -14.5602 
-36.8912 14.0743 -20.1588 -37.4323 14.0743 -20.0218 49.7692 14.0743 -20.1588 
46.0369 17.1973 -20.1588 -46.7066 23.3486 -12.4018 -30.9783 23.3486 -20.1588 
-37.4323 23.3486 -18.3217 -28.1579 26.6458 -20.1588 27.4882 30.7029 -20.1588 
38.1864 23.3486 -20.1588 36.7626 24.4074 -20.1588 -37.4323 32.623 -14.7882 
-23.3457 32.623 -20.1588 -28.1579 32.623 -18.6948 -18.8836 35.1361 -20.1588 
-9.6092 36.1705 -20.1588 -0.334848 35.9301 -20.1588 8.9395 35.218 -20.1588 
23.3787 32.623 -20.1588 18.2139 34.595 -20.1588 27.4882 32.623 -12.4926 
-28.1579 41.8973 -12.5019 -18.8836 41.8973 -15.3903 -9.6092 41.8973 -15.9953 
-0.334848 41.8973 -14.5824 -9.6092 -60.8864 -10.8845 -28.1579 -53.2606 -10.8845 
-13.7982 -60.1205 -10.8845 -18.8836 -59.115 -10.8845 -7.55381 -60.1205 -10.8845 
-9.6092 -60.1205 -9.30476 -0.334848 -57.2792 -10.8845 8.9395 -51.3977 -10.8845 
-30.6422 -50.8462 -10.8845 -37.4323 -42.2385 -10.8845 -28.1579 -50.8462 -3.96368 
9.50853 -50.8462 -10.8845 8.9395 -50.8462 -10.1305 18.2139 -41.7478 -10.8845 
-37.9038 -41.5718 -10.8845 -37.4323 -41.5718 -5.17014 18.3991 -41.5718 -10.8845 
18.2139 -41.5718 -10.6472 27.4882 -33.7829 -10.8845 -43.1424 -32.2975 -10.8845 
30.0406 -32.2975 -10.8845 27.4882 -32.2975 -8.53274 36.7626 -28.2571 -10.8845 
-45.9619 -23.0231 -10.8845 -46.7066 -18.5075 -10.8845 -46.7066 -23.0231 -8.66091 
46.0346 -23.0231 -10.8845 46.0369 -23.0219 -10.8845 55.3113 -16.7773 -10.8845 
-47.4789 -13.7488 -10.8845 57.7548 -13.7488 -10.8845 -48.7186 -4.47442 -10.8845 
62.2932 -4.47442 -10.8845 -50.0805 4.79993 -10.8845 61.0663 4.79993 -10.8845 
55.3113 12.7064 -10.8845 -50.3388 14.0743 -10.8845 53.9922 14.0743 -10.8845 
46.0369 20.381 -10.8845 -48.1984 23.3486 -10.8845 -46.7066 26.6886 -10.8845 
41.6393 23.3486 -10.8845 36.7626 26.4796 -10.8845 -43.0539 32.623 -10.8845 
-46.7066 32.623 -5.49401 -37.4323 37.8295 -10.8845 8.9395 41.8075 -10.8845 
18.2139 38.3025 -10.8845 27.9678 32.623 -10.8845 27.4882 32.9555 -10.8845 
27.4882 32.623 -9.55639 -31.1283 41.8973 -10.8845 -37.4323 41.8973 -4.40801 
-28.1579 43.2606 -10.8845 -18.8836 45.4457 -10.8845 -9.6092 45.493 -10.8845 
8.59094 41.8973 -10.8845 -0.334848 44.1672 -10.8845 8.9395 41.8973 -9.95597 
-18.8836 -54.9196 -1.61011 -9.6092 -55.0347 -1.61011 -0.334848 -51.707 -1.61011 
-26.7387 -50.8462 -1.61011 -28.1579 -49.7911 -1.61011 -18.8836 -50.8462 2.69273 
-9.6092 -50.8462 2.2934 0.829219 -50.8462 -1.61011 -0.334848 -50.8462 -0.647433 
8.9395 -42.4458 -1.61011 -36.9924 -41.5718 -1.61011 -37.4323 -41.1561 -1.61011 
-28.1579 -41.5718 7.52681 -0.334848 -41.5718 6.9335 9.8157 -41.5718 -1.61011 
8.9395 -41.5718 -0.840861 18.2139 -33.915 -1.61011 -44.1381 -32.2975 -1.61011 
-46.7066 -27.4885 -1.61011 20.3103 -32.2975 -1.61011 18.2139 -32.2975 0.00829728 
27.4882 -27.5615 -1.61011 36.7626 -23.3737 -1.61011 -48.7671 -23.0231 -1.61011 
27.4882 -23.0231 4.39775 37.6413 -23.0231 -1.61011 36.7626 -23.0231 -0.873993 
46.0369 -19.6428 -1.61011 55.3113 -14.4379 -1.61011 -51.6117 -13.7488 -1.61011 
55.9395 -13.7488 -1.61011 55.3113 -13.7488 -0.252087 -53.5651 -4.47442 -1.61011 
61.5943 -4.47442 -1.61011 -54.9832 4.79993 -1.61011 -55.981 4.79993 6.58269 
61.1654 4.79993 -1.61011 55.3113 13.2613 -1.61011 -55.1401 14.0743 -1.61011 
54.4424 14.0743 -1.61011 46.0369 19.7609 -1.61011 -53.0203 23.3486 -1.61011 
27.4882 30.6627 -1.61011 39.5108 23.3486 -1.61011 36.7626 24.8057 -1.61011 
-48.4004 32.623 -1.61011 -46.7066 34.8022 -1.61011 24.7103 32.623 -1.61011 
18.2139 37.3864 -1.61011 -39.1136 41.8973 -1.61011 -37.4323 43.1161 -1.61011 
-28.1579 47.2555 -1.61011 -18.8836 48.9429 -1.61011 -9.6092 48.1199 -1.61011 
-0.334848 46.0242 -1.61011 10.5164 41.8973 -1.61011 8.9395 42.7013 -1.61011 
-18.8836 -44.98 7.66424 -9.6092 -44.7283 7.66424 -37.4323 -35.2462 7.66424 
-27.8744 -41.5718 7.66424 -28.1579 -41.456 7.66424 -18.8836 -41.5718 11.0731 
-1.95055 -41.5718 7.66424 -9.6092 -41.5718 10.7685 -0.334848 -40.8182 7.66424 
8.9395 -32.5675 7.66424 -40.5799 -32.2975 7.66424 -46.7066 -24.6357 7.66424 
-37.4323 -32.2975 11.1132 9.24983 -32.2975 7.66424 8.9395 -32.2975 8.12839 
18.2139 -25.2671 7.66424 -47.6667 -23.0231 7.66424 -46.7066 -23.0231 9.47713 
22.4652 -23.0231 7.66424 18.2139 -23.0231 11.108 27.4882 -20.89 7.66424 
36.7626 -19.1187 7.66424 46.0369 -15.404 7.66424 -52.0024 -13.7488 7.66424 
49.0243 -13.7488 7.66424 46.0369 -13.7488 13.3244 55.3113 -9.81915 7.66424 
-54.7567 -4.47442 7.66424 -55.981 3.90138 7.66424 59.559 -4.47442 7.66424 
-56.1087 4.79993 7.66424 -55.981 8.56531 7.66424 -55.981 4.79993 8.11551 
60.3767 4.79993 7.66424 55.3113 12.9176 7.66424 -55.7895 14.0743 7.66424 
54.1242 14.0743 7.66424 46.0369 19.8937 7.66424 -53.5881 23.3486 7.66424 
27.4882 29.5091 7.66424 39.3899 23.3486 7.66424 36.7626 24.6225 7.66424 
-48.7666 32.623 7.66424 -46.7066 35.2668 7.66424 -46.7066 32.623 13.2671 
22.6835 32.623 7.66424 18.2139 35.7669 7.66424 -39.9704 41.8973 7.66424 
-37.4323 43.8295 7.66424 -37.4323 41.8973 14.5642 -28.1579 48.1383 7.66424 
-18.8836 50.0908 7.66424 -9.6092 49.0475 7.66424 -0.334848 46.5175 7.66424 
9.57985 41.8973 7.66424 8.9395 42.2894 7.66424 8.9395 41.8973 11.261 
-28.1579 -32.4471 16.9386 -18.8836 -35.7349 16.9386 -9.6092 -36.0639 16.9386 
-0.334848 -33.3897 16.9386 -28.431 -32.2975 16.9386 -37.4323 -26.7649 16.9386 
-28.1579 -32.2975 17.0754 -18.8836 -32.2975 20.302 -9.6092 -32.2975 20.9985 
1.64292 -32.2975 16.9386 -0.334848 -32.2975 18.3063 8.9395 -27.5515 16.9386 
-41.1778 -23.0231 16.9386 -46.7066 -15.0973 16.9386 -37.4323 -23.0231 19.6703 
-28.1579 -23.0231 23.4423 -18.8836 -23.0231 25.5188 -0.334848 -23.0231 25.4571 
13.9206 -23.0231 16.9386 8.9395 -23.0231 21.1965 18.2139 -19.4869 16.9386 
27.4882 -16.5507 16.9386 36.7626 -15.1549 16.9386 -47.4292 -13.7488 16.9386 
-46.7066 -13.7488 17.6728 -37.4323 -13.7488 23.2604 -28.1579 -13.7488 25.7832 
18.2139 -13.7488 23.753 27.4882 -13.7488 21.588 42.1238 -13.7488 16.9386 
36.7626 -13.7488 19.6346 46.0369 -12.4468 16.9386 55.3113 -5.23344 16.9386 
-51.0903 -4.47442 16.9386 -46.7066 -4.47442 21.2372 -37.4323 -4.47442 25.6409 
46.0369 -4.47442 26.1131 55.9263 -4.47442 16.9386 55.3113 -4.47442 17.8343 
-52.8795 4.79993 16.9386 -46.7066 4.79993 22.9773 57.4521 4.79993 16.9386 
55.3113 8.94871 16.9386 55.3113 4.79993 20.4538 -52.205 14.0743 16.9386 
-46.7066 14.0743 22.5442 51.9039 14.0743 16.9386 46.0369 19.4863 16.9386 
46.0369 14.0743 25.6134 -49.6022 23.3486 16.9386 -46.7066 29.3879 16.9386 
-46.7066 23.3486 19.9431 -37.4323 23.3486 26.024 27.4882 29.7514 16.9386 
39.5821 23.3486 16.9386 36.7626 24.8574 16.9386 36.7626 23.3486 20.3478 
-44.8563 32.623 16.9386 -37.4323 40.8765 16.9386 -37.4323 32.623 23.2648 
8.9395 41.2251 16.9386 22.9032 32.623 16.9386 18.2139 35.5212 16.9386 
[...]
POINT_DATA 472
SCALARS ImageScalars float
LOOKUP_TABLE default
0 0 0 0 0 0 0 0 0 
0 0 0 0 0 0 0 0 0 
0 0 0 0 0 0 0 0 0 
0 0 0 0 0 0 0 0 0 
0 0 0 0 0 0 0 0 0 
0 0 0 0 0 0 0 0 0 
0 0 0 0 0 0 0 0 0 
0 0 0 0 0 0 0 0 0 
0 0 0 0 0 0 0 0 0 
0 0 0 0 0 0 0 0 0 
0 0 0 0 0 0 0 0 0 
0 0 0 0 0 0 0 0 0 
0 0 0 0 0 0 0 0 0 
0 0 0 0 0 0 0 0 0 
0 0 0 0 0 0 0 0 0 
0 0 0 0 0 0 0 0 0 
0 0 0 0 0 0 0 0 0 
0 0 0 0 0 0 0 0 0 
0 0 0 0 0 0 0 0 0 
0 0 0 0 0 0 0 0 0 
0 0 0 0 0 0 0 0 0 
0 0 0 0 0 0 0 0 0 
0 0 0 0 0 0 0 0 0 
0 0 0 0 0 0 0 0 0 
0 0 0 0 0 0 0 0 0 
0 0 0 0 0 0 0 0 0 
0 0 0 0 0 0 0 0 0 
0 0 0 0 0 0 0 0 0 
0 0 0 0 0 0 0 0 0 
0 0 0 0 0 0 0 0 0 
0 0 0 0 0 0 0 0 0 
0 0 0 0 0 0 0 0 0 
0 0 0 0 0 0 0 0 0 
0 0 0 0 0 0 0 0 0 
0 0 0 0 0 0 0 0 0 
0 0 0 0 0 0 0 0 0 
0 0 0 0 0 0 0 0 0 
0 0 0 0 0 0 0 0 0 
0 0 0 0 0 0 0 0 0 
0 0 0 0 0 0 0 0 0 
0 0 0 0 0 0 0 0 0 
0 0 0 0 0 0 0 0 0 
0 0 0 0 0 0 0 0 0 
0 0 0 0 0 0 0 0 0 
0 0 0 0 0 0 0 0 0 
0 0 0 0 0 0 0 0 0 
0 0 0 0 0 0 0 0 0 
0 0 0 0 0 0 0 0 0 
0 0 0 0 0 0 0 0 0 
0 0 0 0 0 0 0 0 0 
0 0 0 0 0 0 0 0 0 
0 0 0 0 0 0 0 0 0 
0 0 0 0 
NORMALS Normals float
-0.0162896 0.0255225 0.999542 0.343741 0.388984 0.854713 0.0587921 0.353748 0.933491 
-0.282114 0.447384 0.848681 0.518764 0.235613 0.821809 0.249045 0.0812938 0.965074 
0.100825 0.0406083 0.994075 -0.140504 0.089402 0.986035 -0.462814 0.313366 0.82922 
0.365488 0.0790396 0.927454 0.174285 -0.0240265 0.984402 0.0648245 -0.0959401 0.993274 
-0.0580655 -0.111032 0.992119 -0.187875 0.0496111 0.980939 -0.30604 0.372864 0.875964 
-0.458518 0.743808 0.486324 0.271644 -0.00131509 0.962397 0.0807896 -0.0392252 0.995959 
0.0101227 -0.0763768 0.997028 0.0034225 -0.0662718 0.997796 0.0233442 0.0327415 0.999191 
0.0147859 0.184934 0.98264 -0.0748846 0.384638 0.920025 -0.287939 0.639635 0.712712 
0.276772 -0.0645164 0.958767 0.100434 -0.031762 0.994437 0.0280931 -0.00162087 0.999604 
0.0502869 0.0131667 0.998648 0.0717865 0.0537115 0.995973 0.0753635 0.0533139 0.99573 
0.0582265 0.132151 0.989518 -0.0306656 0.0869292 0.995742 -0.0660896 0.231354 0.970622 
-0.345952 0.353148 0.869255 -0.720772 0.489526 0.490766 0.253993 -0.0767892 0.964153 
0.149445 -0.105562 0.983119 0.0543569 -0.076181 0.995611 0.0598249 -0.0948679 0.993691 
0.0630211 -0.0280691 0.997617 0.098238 -0.00612608 0.995144 0.0575141 0.02312 0.998077 
0.139018 0.020273 0.990082 -0.0953422 0.0329963 0.994898 -0.0258546 -0.0639567 0.997618 
-0.248471 0.0471017 0.967493 -0.640338 0.0791285 0.764007 0.360206 -0.00408274 0.932864 
0.177323 -0.0532531 0.982711 0.107488 -0.118014 0.987177 0.0404696 -0.0981929 0.994344 
0.0968678 -0.0515482 0.993961 0.156038 -0.00746438 0.987723 0.12342 0.0422419 0.991455 
0.085979 -0.0541485 0.994824 -0.0378803 -0.163525 0.985812 -0.27634 -0.240257 0.930544 
-0.656025 -0.364112 0.6611 0.138051 -0.0840278 0.986854 0.105578 -0.0699177 0.99195 
0.120095 -0.0609396 0.99089 0.147044 -0.017814 0.98897 0.164042 -0.046639 0.98535 
0.051624 -0.0286876 0.998254 -0.0720902 -0.146203 0.986624 -0.22149 -0.337524 0.914888 
-0.480261 -0.584243 0.654225 0.198525 -0.173973 0.964532 0.13366 -0.0794335 0.987839 
0.093181 -0.119104 0.9885 0.104082 -0.160855 0.981475 0.139378 -0.243404 0.959858 
0.021123 -0.300969 0.9534 -0.238506 -0.427372 0.872048 -0.52609 -0.680152 0.510513 
0.15637 -0.286005 0.945383 0.0339601 -0.302906 0.952415 0.0110672 -0.36213 0.932062 
0.00370308 -0.502796 0.864397 -0.149493 -0.677032 0.72061 0.397909 0.765564 0.505549 
-0.0473545 0.883784 0.465493 -0.082907 0.988889 0.123388 -0.392444 0.836866 0.381632 
0.610835 0.546112 0.573273 0.640537 0.463484 0.612286 0.6994 0.639414 0.319358 
-0.622134 0.664105 0.414624 -0.63537 0.649901 0.417054 -0.700107 0.706487 0.103568 
0.642107 0.323503 0.695014 0.825936 0.516643 0.225632 -0.631651 0.600679 0.490104 
-0.608693 0.605308 0.512928 -0.679201 0.720569 -0.139523 -0.467914 0.748375 0.470098 
0.563568 0.175427 0.807228 0.667226 0.246513 0.702881 -0.463446 0.752801 0.467449 
-0.417791 0.819456 0.392356 0.547089 0.062616 0.834729 0.563634 0.0692509 0.823117 
-0.499122 0.792846 0.349674 -0.511467 0.783456 0.352984 -0.72462 0.521107 0.450969 
0.804294 0.118062 0.582385 0.498948 0.00771287 0.866598 0.500061 0.00805672 0.865953 
-0.742843 0.492298 0.453683 0.730874 0.100569 0.675062 0.426151 0.00899783 0.904607 
0.414945 0.00728377 0.909817 0.429516 0.0105026 0.902998 -0.82537 0.0994908 0.555757 
0.36985 -0.00276699 0.929087 0.66875 0.0570383 0.741296 0.355124 -0.0593038 0.932936 
-0.757061 -0.374985 0.535019 -0.695338 -0.495938 0.520144 0.663708 -0.0834341 0.743324 
0.338334 -0.0985197 0.935855 0.35149 -0.0991737 0.930924 -0.586062 -0.635855 0.502215 
-0.544257 -0.677754 0.494403 0.685738 -0.264438 0.678112 0.246474 -0.192704 0.949798 
0.37761 -0.238786 0.894646 0.23476 -0.2327 0.94379 -0.433145 -0.756921 0.489342 
-0.544918 -0.706735 0.451209 -0.543653 -0.711632 0.444996 0.458957 -0.453037 0.764275 
0.226969 -0.311738 0.922662 0.302647 -0.354936 0.884548 0.159441 -0.381081 0.91069 
0.0204543 -0.440066 0.897732 -0.0336398 -0.499275 0.86579 -0.0512916 -0.605623 0.794097 
-0.336213 -0.770554 0.541486 -0.195544 -0.754774 0.626162 -0.538998 -0.840305 0.0580387 
0.29813 -0.720933 0.625599 0.136652 -0.714166 0.686508 -0.0232486 -0.752168 0.658561 
-0.158323 -0.835556 0.526099 -0.0887168 0.982886 -0.161443 0.662133 0.749356 0.00678028 
0.107717 0.978882 -0.173745 0.34423 0.926458 -0.152256 -0.172313 0.966796 -0.188715 
-0.104439 0.962149 -0.251717 -0.441439 0.865778 -0.235713 -0.68742 0.684001 -0.244122 
0.719814 0.693021 0.0398659 0.825292 0.53521 0.180118 0.601662 0.729929 -0.324355 
-0.693812 0.677317 -0.244678 -0.687588 0.672109 -0.274757 -0.663775 0.711307 -0.231182 
0.828185 0.527629 0.188988 0.770061 0.63271 -0.0817563 -0.66201 0.713061 -0.23084 
-0.66093 0.71036 -0.241993 -0.538493 0.817928 -0.20253 0.87012 0.387233 0.304864 
-0.510938 0.834384 -0.206752 -0.510176 0.805046 -0.302689 -0.480638 0.855495 -0.192652 
0.862104 0.193794 0.46821 0.845917 0.160751 0.508511 0.898424 0.240074 0.367695 
-0.476772 0.867784 -0.140139 -0.476785 0.867781 -0.140116 -0.716996 0.696776 -0.020489 
0.824256 0.125886 0.552045 -0.802794 0.596254 -0.00190104 0.78464 0.11767 0.608682 
-0.982376 0.158165 0.0996081 0.773197 0.0731194 0.629937 -0.905546 -0.39558 0.15331 
-0.741509 -0.651475 0.160451 0.775839 -0.0784055 0.62604 -0.70157 -0.695522 0.155074 
-0.575593 -0.811696 0.099211 0.732113 -0.275533 0.622971 0.709126 -0.35679 0.608146 
-0.560173 -0.826531 0.0552564 -0.563586 -0.826004 0.00940745 0.625451 -0.504687 0.595065 
0.763437 -0.546518 0.344213 0.50421 -0.631179 0.589394 -0.289248 -0.913491 0.286129 
-0.416623 -0.899996 0.128186 -0.549393 -0.835369 -0.0180436 -0.546777 -0.837103 -0.0171197 
-0.551404 -0.833365 -0.0381653 0.365737 -0.740754 0.563488 0.533346 -0.788078 0.307368 
0.298736 -0.768515 0.565811 0.105724 -0.848906 0.517862 -0.0668558 -0.897591 0.43573 
-0.285559 -0.913753 0.288983 -0.183511 -0.911818 0.367304 -0.302802 -0.91695 0.259836 
0.21654 0.7821 -0.584321 -0.146887 0.718082 -0.680281 -0.415472 0.658902 -0.627081 
0.50319 0.725988 -0.468765 0.552319 0.710905 -0.435382 0.152272 0.714745 -0.682607 
-0.13508 0.679069 -0.72154 -0.442582 0.63834 -0.629796 -0.408062 0.640343 -0.650728 
-0.559205 0.570447 -0.601565 0.691994 0.673088 -0.260955 0.701872 0.667994 -0.247305 
0.371793 0.687995 -0.623244 -0.435106 0.614676 -0.657918 -0.554496 0.572437 -0.604028 
-0.556177 0.567232 -0.607384 -0.503109 0.630965 -0.590563 0.841128 0.535323 -0.0770272 
0.900043 0.435551 0.0147321 -0.485356 0.652063 -0.582446 -0.495332 0.643349 -0.583736 
-0.406374 0.729608 -0.550029 -0.333872 0.85097 -0.405438 0.930757 0.357343 0.077444 
-0.302017 0.803495 -0.513012 -0.33586 0.853275 -0.398898 -0.325691 0.856165 -0.401133 
-0.393303 0.848487 -0.354094 -0.662628 0.692232 -0.2859 0.945294 0.249411 0.210268 
-0.684816 0.672188 -0.281407 -0.661161 0.687764 -0.299744 0.944593 0.174574 0.277972 
-0.95616 0.248606 -0.154771 0.957567 0.0819598 0.27631 0.997458 0.0574212 -0.0421905 
-0.941621 -0.334253 -0.0403004 -0.713043 -0.701085 0.00702312 0.96387 -0.0991019 0.247253 
-0.677697 -0.735324 0.00513781 -0.527144 -0.849536 -0.02021 0.918697 -0.324447 0.225232 
-0.557926 -0.815055 -0.156219 -0.486796 -0.871307 -0.0620817 -0.489682 -0.868075 -0.0815914 
0.808035 -0.553824 0.200892 0.769644 -0.605958 0.201153 -0.567896 -0.808682 -0.153386 
-0.546995 -0.829375 -0.113726 0.568951 -0.793843 0.214728 0.529056 -0.820231 0.217531 
0.271192 -0.936635 0.221743 0.0471052 -0.972457 0.228274 -0.150922 -0.971802 0.181169 
-0.275727 -0.953817 0.119198 -0.433274 -0.901247 0.00523432 -0.410463 -0.911576 0.0234334 
0.11135 0.678039 -0.726542 -0.136276 0.683721 -0.716907 0.546192 0.682589 -0.485537 
0.3612 0.688124 -0.629302 0.368961 0.687422 -0.625555 0.108845 0.695684 -0.710054 
-0.384033 0.63731 -0.668098 -0.144299 0.70416 -0.695224 -0.436273 0.626819 -0.645573 
-0.543091 0.690131 -0.4783 0.619484 0.654206 -0.433883 0.814481 0.499315 -0.295474 
0.511869 0.660262 -0.549585 -0.540846 0.693343 -0.476195 -0.54062 0.695646 -0.473082 
-0.481248 0.714564 -0.507738 0.83633 0.473285 -0.276685 0.804927 0.481102 -0.347322 
-0.385591 0.777054 -0.4975 -0.472933 0.720819 -0.50671 -0.261835 0.839745 -0.47568 
-0.253332 0.886539 -0.387133 -0.393213 0.860548 -0.32379 0.924208 0.340894 -0.172136 
-0.470958 0.818039 -0.330169 -0.403779 0.838292 -0.366372 -0.703073 0.621096 -0.346306 
0.972786 0.211135 -0.0954398 0.994238 0.0685761 -0.0823839 -0.882801 0.37353 -0.284848 
0.995171 0.0538247 -0.0820775 0.994971 -0.0165388 -0.0987927 0.993497 0.0535945 -0.100453 
-0.955019 -0.230314 -0.186799 -0.739919 -0.663114 -0.113133 0.98471 -0.122129 -0.124222 
-0.690206 -0.717533 -0.0936029 -0.532432 -0.846404 -0.0107906 0.927847 -0.347025 -0.136649 
-0.505864 -0.861618 -0.0414152 -0.446719 -0.894673 0.00173713 -0.434762 -0.900542 0.00230066 
0.821891 -0.552596 -0.138322 0.781655 -0.608825 -0.135453 0.778203 -0.532802 -0.332449 
-0.545907 -0.835745 -0.0592954 -0.572051 -0.816058 -0.0824995 0.617078 -0.781071 -0.0956245 
0.553659 -0.828507 -0.0838955 0.591617 -0.738826 -0.322686 0.296458 -0.954228 -0.0395073 
0.0499964 -0.998656 -0.0136927 -0.184942 -0.982535 0.0205245 -0.341843 -0.939719 -0.0084582 
-0.506375 -0.859212 -0.0730762 -0.498718 -0.86396 -0.0696689 -0.497509 -0.858196 -0.126432 
0.314794 0.642334 -0.698793 0.131975 0.688374 -0.713248 -0.102281 0.725823 -0.680235 
-0.333022 0.762205 -0.555104 0.319286 0.641208 -0.697789 0.467764 0.545924 -0.6951 
0.315336 0.640262 -0.700448 0.156275 0.628636 -0.761837 -0.0652799 0.665278 -0.743736 
-0.373303 0.759823 -0.532272 -0.323252 0.744706 -0.583885 -0.533882 0.666566 -0.52025 
0.562645 0.487296 -0.667813 0.684786 0.385269 -0.618575 0.452787 0.459642 -0.764012 
0.270104 0.369662 -0.889041 0.149518 0.300294 -0.942055 -0.216361 0.401002 -0.89016 
-0.508865 0.662394 -0.54981 -0.481366 0.554704 -0.678668 -0.409764 0.733342 -0.542498 
-0.18386 0.871169 -0.455258 -0.188054 0.888395 -0.418795 0.698142 0.368431 -0.613886 
0.67399 0.366369 -0.641491 0.355791 0.27389 -0.893531 0.196637 0.160889 -0.967186 
-0.21406 0.670469 -0.710387 -0.124671 0.812241 -0.569843 -0.309366 0.857174 -0.41176 
-0.188679 0.851217 -0.489724 -0.418433 0.80198 -0.426313 -0.725217 0.47194 -0.501332 
0.780263 0.242444 -0.576551 0.590097 0.232249 -0.773205 0.247868 0.160109 -0.955472 
-0.419284 0.461675 -0.781701 -0.746292 0.437534 -0.501609 -0.726619 0.441853 -0.526109 
0.836945 0.0493268 -0.54506 0.543486 0.0594448 -0.837311 -0.890979 -0.154592 -0.426917 
-0.844126 -0.363777 -0.39385 -0.82635 -0.131236 -0.547653 0.820577 -0.141845 -0.553655 
0.597275 -0.124716 -0.792281 -0.726858 -0.618602 -0.298345 -0.598488 -0.767365 -0.230138 
-0.529159 -0.496166 -0.688339 0.772544 -0.318959 -0.549036 0.744035 -0.438173 -0.504396 
0.685387 -0.282727 -0.671051 0.382552 -0.172917 -0.907609 -0.485825 -0.863693 -0.134192 
-0.484176 -0.855494 -0.183585 -0.45817 -0.872908 -0.167667 -0.46849 -0.817074 -0.336018 
0.720509 -0.497406 -0.483171 0.593071 -0.68419 -0.424443 0.5031 -0.366745 -0.782553 
-0.488291 -0.845669 -0.215445 -0.504323 -0.854066 -0.127397 -0.520795 -0.840739 -0.148088 
-0.453998 -0.747586 -0.48477 0.562363 -0.716897 -0.412076 0.356118 -0.849791 -0.388632 
0.342341 -0.643531 -0.684595 0.107972 -0.932927 -0.343497 0.165811 -0.576592 -0.80003 
-0.146429 -0.949521 -0.277431 -0.472304 -0.853178 -0.221396 -0.351189 -0.903842 -0.244408 
-0.261373 -0.758043 -0.597541 -0.00324748 0.333532 -0.942733 0.0411828 0.309263 -0.950084 
0.143984 0.217762 -0.965323 -0.0593924 0.336814 -0.939696 -0.00119722 0.313916 -0.94945 
-0.176476 0.355251 -0.917961 -0.247169 0.441225 -0.862686 0.178462 0.143908 -0.973366 
0.15618 0.137624 -0.978094 0.140225 0.107511 -0.984265 0.0708034 0.147088 -0.986586 
-0.0631192 0.243514 -0.967841 -0.203939 0.497678 -0.843046 -0.207269 0.423222 -0.881999 
-0.135093 0.536553 -0.832983 -0.0724472 0.602008 -0.795197 -0.195287 0.576445 -0.793457 
0.174246 0.134577 -0.975463 0.232422 0.103528 -0.967089 0.103724 0.110154 -0.988487 
0.136293 0.0498693 -0.989413 0.136553 0.0239645 -0.990343 0.0447932 0.0841504 -0.995446 
-0.040048 0.185272 -0.981871 -0.0394851 0.298816 -0.953493 -0.0304299 0.355908 -0.934026 
-0.411806 0.459972 -0.786665 -0.170348 0.429423 -0.886892 -0.420607 0.447486 -0.789206 
0.246677 0.0782429 -0.965934 0.227669 0.0797373 -0.970468 0.0869553 0.0871196 -0.992396 
0.0524371 0.0704154 -0.996139 0.109959 0.0095246 -0.99389 0.111189 0.0845625 -0.990195 
0.0342799 0.162088 -0.986181 0.00103105 0.150711 -0.988577 0.0208687 0.0931088 -0.995437 
-0.114287 0.0123044 -0.993372 -0.564518 -0.0357648 -0.824645 -0.515181 -0.426321 -0.743531 
-0.437693 -0.0122234 -0.899041 0.334799 -0.0417832 -0.941363 0.364362 -0.148807 -0.919292 
0.26706 -0.0181422 -0.963509 0.0958674 0.0476749 -0.994252 0.0590671 0.103668 -0.992857 
0.150323 0.112988 -0.982159 0.19659 0.136233 -0.970975 0.0232283 0.149286 -0.988521 
-0.104644 0.0675489 -0.992213 -0.158974 -0.128065 -0.978942 -0.494446 -0.472048 -0.729859 
-0.389074 -0.549382 -0.739459 -0.275895 -0.362455 -0.890229 0.36977 -0.162506 -0.914802 
0.206215 -0.0355274 -0.977861 0.114761 0.0553004 -0.991853 0.14044 0.0575501 -0.988415 
0.14728 -0.0259387 -0.988755 -0.0258539 -0.123929 -0.991954 -0.440303 -0.714778 -0.543346 
-0.295537 -0.269653 -0.916485 -0.448462 -0.606995 -0.656079 -0.458287 -0.623482 -0.633438 
-0.423624 -0.521435 -0.740708 0.355609 -0.272349 -0.894074 0.305557 -0.363437 -0.880084 
0.295093 -0.241648 -0.924406 0.165939 -0.560307 -0.811492 0.156827 -0.180253 -0.971038 
0.063334 -0.197931 -0.978168 -0.217754 -0.689137 -0.691139 -0.011724 -0.34723 -0.937707 
-0.429467 -0.72463 -0.538952 -0.336998 -0.732104 -0.591993 -0.241408 -0.588905 -0.771307 
0.133432 -0.578967 -0.804359 -0.126446 -0.666573 -0.734637 -0.0391813 -0.628792 -0.776586 
-0.0321202 -0.600045 -0.799321 
