# vtk DataFile Version 4.2
vtk output
ASCII
DATASET POLYDATA
POINTS 556 float
-7.19439 4.59881 -23.3816 -24.2003 -46.419 -17.5511 -15.6974 -46.419 -18.4059 
-7.19439 -46.419 -17.7325 1.30859 -46.419 -16.3658 9.81156 -46.419 -15.2814 
-41.2063 -37.9161 -14.7137 -32.7033 -37.9161 -19.0753 -24.2003 -37.9161 -20.3496 
-15.6974 -37.9161 -20.8823 -7.19439 -37.9161 -20.459 1.30859 -37.9161 -19.378 
9.81156 -37.9161 -18.6487 18.3145 -37.9161 -18.7437 26.8175 -37.9161 -18.4292 
35.3205 -37.9161 -16.6098 -41.2063 -29.4131 -18.9446 -32.7033 -29.4131 -20.953 
-24.2003 -29.4131 -21.4221 -15.6974 -29.4131 -21.1787 -7.19439 -29.4131 -20.4568 
1.30859 -29.4131 -19.7734 9.81156 -29.4131 -19.7955 18.3145 -29.4131 -19.8723 
26.8175 -29.4131 -20.0561 35.3205 -29.4131 -19.3162 43.8235 -29.4131 -17.8192 
-49.7093 -20.9101 -16.8691 -41.2063 -20.9101 -20.2793 -32.7033 -20.9101 -21.606 
-24.2003 -20.9101 -21.8538 -15.6974 -20.9101 -20.5142 -7.19439 -20.9101 -19.1577 
1.30859 -20.9101 -19.1957 9.81156 -20.9101 -19.6335 18.3145 -20.9101 -19.4229 
26.8175 -20.9101 -20.2152 35.3205 -20.9101 -20.4525 43.8235 -20.9101 -19.7293 
52.3264 -20.9101 -16.3744 -49.7093 -12.4071 -17.6313 -41.2063 -12.4071 -20.4616 
-32.7033 -12.4071 -21.0732 -24.2003 -12.4071 -20.5402 -15.6974 -12.4071 -19.2131 
-7.19439 -12.4071 -18.4046 1.30859 -12.4071 -21.958 9.81156 -12.4071 -19.8987 
18.3145 -12.4071 -18.887 26.8175 -12.4071 -20.3216 35.3205 -12.4071 -20.9145 
43.8235 -12.4071 -19.7071 52.3264 -12.4071 -16.7215 -49.7093 -3.90416 -17.8898 
-41.2063 -3.90416 -20.5363 -32.7033 -3.90416 -20.7197 -24.2003 -3.90416 -19.6012 
-15.6974 -3.90416 -18.0402 -7.19439 2.75159 -22.9698 -7.19439 -3.90416 -21.3294 
1.30859 -3.90416 -18.8992 9.81156 -3.90416 -19.9876 18.3145 -3.90416 -19.5888 
26.8175 -3.90416 -19.0439 35.3205 -3.90416 -18.5046 43.8235 -3.90416 -17.1532 
-49.7093 4.59881 -18.1947 -41.2063 4.59881 -20.727 -32.7033 4.59881 -20.812 
-24.2003 4.59881 -19.6605 -8.00645 4.59881 -22.9698 -15.6974 4.59881 -18.8837 
-6.49753 4.59881 -22.9698 -7.19439 5.61386 -22.9698 1.30859 4.59881 -17.4694 
9.81156 4.59881 -21.6408 18.3145 4.59881 -16.177 -49.7093 13.1018 -17.7048 
-41.2063 13.1018 -20.3442 -32.7033 13.1018 -20.7278 -24.2003 13.1018 -19.4142 
-15.6974 13.1018 -18.2438 -7.19439 13.1018 -19.8701 1.30859 13.1018 -19.4118 
9.81156 13.1018 -20.5839 -49.7093 21.6048 -15.9581 -41.2063 21.6048 -19.5798 
-32.7033 21.6048 -20.1012 -24.2003 21.6048 -19.1986 -15.6974 21.6048 -18.855 
-7.19439 21.6048 -19.5739 1.30859 21.6048 -19.3453 9.81156 21.6048 -19.5237 
18.3145 21.6048 -16.7009 -41.2063 30.1077 -16.3865 -32.7033 30.1077 -18.1062 
-24.2003 30.1077 -18.3677 -15.6974 30.1077 -19.3719 -7.19439 30.1077 -20.2391 
1.30859 30.1077 -19.9361 9.81156 30.1077 -19.3693 18.3145 30.1077 -17.7409 
-24.2003 38.6107 -16.0674 -15.6974 38.6107 -17.9749 -7.19439 38.6107 -18.8842 
1.30859 38.6107 -18.4726 9.81156 38.6107 -17.8057 18.3145 38.6107 -16.4851 
-7.19439 47.1137 -14.6541 -24.2003 -49.9515 -14.4668 -15.6974 -51.109 -14.4668 
-15.6974 -54.922 -7.5174 -7.19439 -50.1655 -14.4668 1.30859 -48.5518 -14.4668 
9.81156 -47.2327 -14.4668 -41.2063 -38.2616 -14.4668 -30.8369 -46.419 -14.4668 
-32.7033 -44.9974 -14.4668 -32.7033 -46.419 -12.7533 14.5009 -46.419 -14.4668 
18.3145 -45.4247 -14.4668 18.3145 -46.419 -12.5741 26.8175 -43.0604 -14.4668 
26.8175 -46.419 -7.12557 35.3205 -40.6508 -14.4668 -41.5633 -37.9161 -14.4668 
39.9007 -37.9161 -14.4668 43.8235 -35.0565 -14.4668 43.8235 -37.9161 -10.2542 
-48.0583 -29.4131 -14.4668 -49.7093 -26.9221 -14.4668 -49.7093 -29.4131 -12.6089 
50.329 -29.4131 -14.4668 52.3264 -26.3389 -14.4668 52.3264 -29.4131 -12.4349 
-52.6714 -20.9101 -14.4668 56.2155 -20.9101 -14.4668 60.8294 -20.9101 -9.41086 
-53.5815 -12.4071 -14.4668 -58.2122 -12.4071 -6.67099 57.5134 -12.4071 -14.4668 
52.3264 -4.91607 -14.4668 60.8294 -12.4071 -11.5784 -53.8108 -3.90416 -14.4668 
-58.2122 -3.90416 -6.99814 26.8175 3.68017 -14.4668 35.3205 3.24723 -14.4668 
51.3158 -3.90416 -14.4668 43.8235 2.90567 -14.4668 52.3264 -3.90416 -14.1164 
60.8294 -3.90416 -9.01824 -54.1231 4.59881 -14.4668 -58.2122 4.59881 -6.50942 
23.7418 4.59881 -14.4668 18.3145 8.03566 -14.4668 26.8175 4.59881 -13.9073 
35.3205 4.59881 -13.739 43.8235 4.59881 -13.758 52.3264 4.59881 -10.9217 
-53.8541 13.1018 -14.4668 16.6122 13.1018 -14.4668 18.3145 16.7232 -14.4668 
18.3145 13.1018 -13.0881 26.8175 13.1018 -11.2392 35.3205 13.1018 -10.956 
43.8235 13.1018 -10.0304 52.3264 13.1018 -6.67999 -51.4607 21.6048 -14.4668 
-49.7093 24.6167 -14.4668 22.016 21.6048 -14.4668 26.8175 21.6048 -12.0024 
35.3205 21.6048 -9.78561 43.8235 21.6048 -7.15396 -44.7762 30.1077 -14.4668 
-49.7093 30.1077 -10.5326 -41.2063 33.05 -14.4668 -32.7033 38.2798 -14.4668 
25.0476 30.1077 -14.4668 26.8175 30.1077 -13.6237 35.3205 30.1077 -9.76143 
43.8235 30.1077 -6.99434 -41.2063 38.6107 -9.80899 -31.9922 38.6107 -14.4668 
-32.7033 38.6107 -14.2936 -24.2003 41.5156 -14.4668 -15.6974 45.8166 -14.4668 
1.30859 47.0569 -14.4668 9.81156 45.0483 -14.4668 24.5327 38.6107 -14.4668 
18.3145 42.1687 -14.4668 26.8175 38.6107 -13.7118 35.3205 38.6107 -7.21875 
-24.2003 47.1137 -9.90502 -8.85715 47.1137 -14.4668 -15.6974 47.1137 -13.3661 
0.117926 47.1137 -14.4668 -7.19439 47.3059 -14.4668 1.30859 47.1137 -14.4234 
9.81156 47.1137 -12.6881 18.3145 47.1137 -10.6422 26.8175 47.1137 -6.77831 
-15.6974 -55.5177 -5.96381 -32.7033 -50.3435 -5.96381 -18.8139 -54.922 -5.96381 
-24.2003 -53.8581 -5.96381 -9.04301 -54.922 -5.96381 -15.6974 -54.922 -3.92616 
-7.19439 -54.7443 -5.96381 1.30859 -52.6438 -5.96381 9.81156 -50.2265 -5.96381 
18.3145 -48.4797 -5.96381 26.8175 -46.7599 -5.96381 -38.1597 -46.419 -5.96381 
-41.2063 -44.0181 -5.96381 9.81156 -46.419 1.8743 18.3145 -46.419 -1.74547 
28.0061 -46.419 -5.96381 26.8175 -46.419 -5.27564 35.3205 -43.9267 -5.96381 
43.8235 -39.8808 -5.96381 -47.3582 -37.9161 -5.96381 -49.7093 -34.982 -5.96381 
46.6148 -37.9161 -5.96381 43.8235 -37.9161 -0.497591 52.3264 -33.5012 -5.96381 
-53.443 -29.4131 -5.96381 56.5443 -29.4131 -5.96381 60.8294 -23.5143 -5.96381 
-56.6657 -20.9101 -5.96381 -58.2122 -13.8241 -5.96381 62.5073 -20.9101 -5.96381 
-58.4843 -12.4071 -5.96381 -58.2122 -12.4071 -2.50749 64.1891 -12.4071 -5.96381 
-58.6169 -3.90416 -5.96381 -58.2122 -3.90416 -3.50875 63.4587 -3.90416 -5.96381 
60.8294 3.34315 -5.96381 -58.3993 4.59881 -5.96381 -58.2122 8.0059 -5.96381 
-58.2122 4.59881 -5.01681 60.1087 4.59881 -5.96381 60.8294 4.59881 -5.31046 
-57.9098 13.1018 -5.96381 53.559 13.1018 -5.96381 52.3264 15.8316 -5.96381 
60.8294 13.1018 0.159529 -56.0515 21.6048 -5.96381 47.714 21.6048 -5.96381 
52.3264 21.6048 -4.27369 -52.8031 30.1077 -5.96381 -49.7093 34.6131 -5.96381 
45.3673 30.1077 -5.96381 43.8235 32.5605 -5.96381 -45.6519 38.6107 -5.96381 
-41.2063 42.0427 -5.96381 -32.7033 46.5078 -5.96381 37.2911 38.6107 -5.96381 
35.3205 40.4415 -5.96381 43.8235 38.6107 0.800017 -31.2727 47.1137 -5.96381 
-32.7033 47.1137 -4.20506 -24.2003 49.798 -5.96381 -15.6974 51.7305 -5.96381 
-7.19439 52.3229 -5.96381 1.30859 52.3945 -5.96381 9.81156 51.618 -5.96381 
18.3145 50.4249 -5.96381 28.0851 47.1137 -5.96381 26.8175 47.7824 -5.96381 
-32.7033 -49.5442 2.53917 -24.2003 -52.4351 2.53917 -15.6974 -52.8107 2.53917 
-7.19439 -51.5945 2.53917 1.30859 -49.0712 2.53917 -37.5109 -46.419 2.53917 
-41.2063 -43.7216 2.53917 -32.7033 -46.419 8.69636 -7.19439 -46.419 9.60092 
8.80422 -46.419 2.53917 1.30859 -46.419 6.15908 9.81156 -45.9995 2.53917 
18.3145 -43.6487 2.53917 26.8175 -42.0351 2.53917 35.3205 -39.5648 2.53917 
-47.0396 -37.9161 2.53917 -49.7093 -34.4241 2.53917 9.81156 -37.9161 10.8134 
18.3145 -37.9161 8.40777 26.8175 -37.9161 7.17551 40.3022 -37.9161 2.53917 
35.3205 -37.9161 4.49722 43.8235 -36.6612 2.53917 52.3264 -30.6844 2.53917 
-52.9572 -29.4131 2.53917 -49.7093 -29.4131 9.04724 43.8235 -29.4131 10.4259 
53.9513 -29.4131 2.53917 52.3264 -29.4131 4.74972 60.8294 -22.2052 2.53917 
-56.0372 -20.9101 2.53917 61.8142 -20.9101 2.53917 60.8294 -20.9101 4.03106 
-57.7639 -12.4071 2.53917 65.3706 -12.4071 2.53917 60.8294 -12.4071 10.8701 
-57.1406 -3.90416 2.53917 66.5734 -3.90416 2.53917 -56.5676 4.59881 2.53917 
65.1764 4.59881 2.53917 -56.7566 13.1018 2.53917 62.1635 13.1018 2.53917 
60.8294 15.8337 2.53917 60.8294 13.1018 7.55744 -55.2002 21.6048 2.53917 
57.7492 21.6048 2.53917 52.3264 30.0189 2.53917 -53.0179 30.1077 2.53917 
-49.7093 36.0742 2.53917 -49.7093 30.1077 10.0504 52.2423 30.1077 2.53917 
-47.8988 38.6107 2.53917 -41.2063 44.2656 2.53917 35.3205 45.7598 2.53917 
44.7691 38.6107 2.53917 43.8235 39.4976 2.53917 43.8235 38.6107 6.462 
-36.4221 47.1137 2.53917 -32.7033 48.9591 2.53917 -32.7033 47.1137 9.29878 
-24.2003 51.2758 2.53917 -15.6974 52.3658 2.53917 -7.19439 53.0093 2.53917 
1.30859 52.8792 2.53917 9.81156 52.4635 2.53917 18.3145 51.6302 2.53917 
32.5603 47.1137 2.53917 26.8175 49.6715 2.53917 26.8175 47.1137 10.8559 
-24.2003 -47.2285 11.0421 -15.6974 -46.7085 11.0421 -41.2063 -38.9436 11.0421 
-27.5475 -46.419 11.0421 -32.7033 -44.8613 11.0421 -24.2003 -46.419 11.928 
-14.0794 -46.419 11.0421 -15.6974 -46.419 11.3595 -7.19439 -44.8855 11.0421 
1.30859 -41.1256 11.0421 -42.2699 -37.9161 11.0421 -41.2063 -37.9161 11.9903 
-32.7033 -37.9161 16.3725 -24.2003 -37.9161 18.6318 -15.6974 -37.9161 17.5171 
-7.19439 -37.9161 15.8034 9.12725 -37.9161 11.0421 1.30859 -37.9161 13.3737 
9.81156 -37.6517 11.0421 18.3145 -34.746 11.0421 26.8175 -32.8559 11.0421 
35.3205 -31.3368 11.0421 -48.3976 -29.4131 11.0421 -49.7093 -26.0379 11.0421 
-41.2063 -29.4131 16.5764 -32.7033 -29.4131 19.1796 -7.19439 -29.4131 19.0257 
1.30859 -29.4131 18.0789 9.81156 -29.4131 17.2613 18.3145 -29.4131 14.8548 
26.8175 -29.4131 13.3737 41.7312 -29.4131 11.0421 35.3205 -29.4131 12.6178 
43.8235 -28.6671 11.0421 52.3264 -24.4517 11.0421 -51.3574 -20.9101 11.0421 
-49.7093 -20.9101 12.944 -41.2063 -20.9101 18.518 18.3145 -20.9101 18.8183 
26.8175 -20.9101 18.1556 35.3205 -20.9101 17.2962 43.8235 -20.9101 15.8852 
[...]
POINT_DATA 556
SCALARS ImageScalars float
LOOKUP_TABLE default
0 0 0 0 0 0 0 0 0 
0 0 0 0 0 0 0 0 0 
0 0 0 0 0 0 0 0 0 
0 0 0 0 0 0 0 0 0 
0 0 0 0 0 0 0 0 0 
0 0 0 0 0 0 0 0 0 
0 0 0 0 0 0 0 0 0 
0 0 0 0 0 0 0 0 0 
0 0 0 0 0 0 0 0 0 
0 0 0 0 0 0 0 0 0 
0 0 0 0 0 0 0 0 0 
0 0 0 0 0 0 0 0 0 
0 0 0 0 0 0 0 0 0 
0 0 0 0 0 0 0 0 0 
0 0 0 0 0 0 0 0 0 
0 0 0 0 0 0 0 0 0 
0 0 0 0 0 0 0 0 0 
0 0 0 0 0 0 0 0 0 
0 0 0 0 0 0 0 0 0 
0 0 0 0 0 0 0 0 0 
0 0 0 0 0 0 0 0 0 
0 0 0 0 0 0 0 0 0 
0 0 0 0 0 0 0 0 0 
0 0 0 0 0 0 0 0 0 
0 0 0 0 0 0 0 0 0 
0 0 0 0 0 0 0 0 0 
0 0 0 0 0 0 0 0 0 
0 0 0 0 0 0 0 0 0 
0 0 0 0 0 0 0 0 0 
0 0 0 0 0 0 0 0 0 
0 0 0 0 0 0 0 0 0 
0 0 0 0 0 0 0 0 0 
0 0 0 0 0 0 0 0 0 
0 0 0 0 0 0 0 0 0 
0 0 0 0 0 0 0 0 0 
0 0 0 0 0 0 0 0 0 
0 0 0 0 0 0 0 0 0 
0 0 0 0 0 0 0 0 0 
0 0 0 0 0 0 0 0 0 
0 0 0 0 0 0 0 0 0 
0 0 0 0 0 0 0 0 0 
0 0 0 0 0 0 0 0 0 
0 0 0 0 0 0 0 0 0 
0 0 0 0 0 0 0 0 0 
0 0 0 0 0 0 0 0 0 
0 0 0 0 0 0 0 0 0 
0 0 0 0 0 0 0 0 0 
0 0 0 0 0 0 0 0 0 
0 0 0 0 0 0 0 0 0 
0 0 0 0 0 0 0 0 0 
0 0 0 0 0 0 0 0 0 
0 0 0 0 0 0 0 0 0 
0 0 0 0 0 0 0 0 0 
0 0 0 0 0 0 0 0 0 
0 0 0 0 0 0 0 0 0 
0 0 0 0 0 0 0 0 0 
0 0 0 0 0 0 0 0 0 
0 0 0 0 0 0 0 0 0 
0 0 0 0 0 0 0 0 0 
0 0 0 0 0 0 0 0 0 
0 0 0 0 0 0 0 0 0 
0 0 0 0 0 0 0 
NORMALS Normals float
-0.0451062 -0.0968099 0.99428 0.238807 0.525344 0.816692 0.0174067 0.447377 0.894176 
-0.106715 0.515531 0.8502 -0.132495 0.566082 0.813631 -0.141711 0.680905 0.718531 
0.516758 0.51373 0.684867 0.284605 0.367852 0.88526 0.0951377 0.215291 0.971905 
0.00656636 0.140213 0.9901 -0.0875061 0.124004 0.988416 -0.10334 0.169712 0.980061 
-0.0369163 0.253541 0.96662 -0.0101496 0.323712 0.946101 -0.131699 0.435874 0.89032 
-0.297898 0.544924 0.783782 0.37928 0.2868 0.879712 0.128967 0.138369 0.981948 
0.0119461 0.0853532 0.996279 -0.0565836 -0.0220592 0.998154 -0.0830549 -0.0704099 0.994054 
-0.0388734 -0.0109338 0.999184 0.00583281 0.0522956 0.998615 0.0149272 0.0406442 0.999062 
-0.0357197 0.0879189 0.995487 -0.127934 0.209082 0.969493 -0.303224 0.341193 0.889743 
0.568032 0.210396 0.795659 0.258522 0.0739664 0.96317 0.0920425 0.00512665 0.995742 
-0.0627469 -0.0513601 0.996707 -0.151476 -0.114697 0.981784 -0.0800775 -0.12364 0.989091 
0.0278379 0.109298 0.993619 0.0127091 0.00402988 0.999911 0.0353817 -0.0568724 0.997754 
0.0600519 0.0148228 0.998085 -0.0252387 0.0981848 0.994848 -0.243041 0.117713 0.962847 
-0.419866 0.164315 0.892588 0.495766 0.0572633 0.866566 0.180775 0.0155412 0.983402 
0.00354349 -0.0541426 0.998527 -0.107917 -0.131268 0.985456 -0.124347 -0.146013 0.981437 
0.138783 0.113481 0.983799 0.107233 0.0379863 0.993508 -0.173604 0.0220049 0.98457 
0.0284083 0.00970511 0.999549 0.115691 -0.0658348 0.991101 -0.0337641 -0.100762 0.994337 
-0.243231 -0.126359 0.961703 -0.380504 -0.0990218 0.919462 0.492655 0.0311809 0.869666 
0.143587 0.0154779 0.989517 -0.0549291 -0.0153271 0.998373 -0.158762 -0.051696 0.985963 
0.079716 -0.0242058 0.996524 -0.00420219 -0.00789018 0.99996 0.103327 0.285554 0.952776 
-0.0751905 -0.274971 0.958508 0.02109 0.0921647 0.99552 -0.057213 -0.0744497 0.995582 
-0.0627676 -0.312066 0.947985 -0.0967554 -0.36705 0.925155 -0.214783 -0.328984 0.919586 
0.490968 -0.010443 0.871115 0.132595 -0.0111909 0.991107 -0.0624724 0.000479119 0.998047 
-0.110985 -0.0111332 0.99376 -0.0176545 -0.0885652 0.995914 0.18305 0.0129895 0.983018 
-0.0504589 -0.0959361 0.994108 -0.0305888 -0.116735 0.992692 -0.0852114 0.0699764 0.993903 
0.0275312 0.045469 0.998586 -0.48336 -0.420149 0.768009 0.487058 -0.122916 0.864677 
0.154841 -0.0615382 0.986021 -0.0554031 -0.0406951 0.997634 -0.148199 -0.0275148 0.988575 
0.0215872 0.00166136 0.999766 0.0723506 -0.196037 0.977924 0.03575 0.0882988 0.995452 
-0.222337 -0.130741 0.966164 0.552578 -0.293125 0.780215 0.209368 -0.205942 0.955904 
-0.0274352 -0.144196 0.989169 -0.0713313 -0.0598381 0.995656 0.0223558 0.0668725 0.997511 
0.0293911 0.0228407 0.999307 -0.00274335 0.0298454 0.999551 -0.124922 -0.0639706 0.990102 
-0.417231 0.207566 0.88478 0.30491 -0.439193 0.845068 0.103599 -0.326751 0.939415 
0.0721375 -0.167935 0.983155 0.106761 -0.050849 0.992984 0.0337266 -0.0354799 0.998801 
-0.0512254 -0.0455566 0.997648 -0.123853 -0.10264 0.986978 -0.326828 -0.0136985 0.944985 
0.20944 -0.371387 0.904548 0.14904 -0.289416 0.945529 0.0317506 -0.289963 0.956511 
-0.0640749 -0.294637 0.953459 -0.101354 -0.316962 0.943007 -0.236759 -0.318763 0.917788 
0.0378135 -0.673842 0.737907 0.234861 0.721003 0.651916 0.0206479 0.742954 0.669024 
0.0526758 0.990724 0.125266 -0.122585 0.700657 0.702889 -0.152283 0.70767 0.689937 
-0.14915 0.730324 0.66662 0.521706 0.524413 0.672914 0.419193 0.611508 0.671071 
0.446205 0.584745 0.677476 0.488118 0.665431 0.564749 -0.159699 0.748407 0.643726 
-0.161651 0.746323 0.645656 -0.190382 0.863201 0.467588 -0.212332 0.713385 0.66783 
-0.254358 0.96702 -0.0131742 -0.329521 0.701622 0.631777 0.52633 0.519017 0.673497 
-0.407897 0.655854 0.635198 -0.448295 0.594614 0.667432 -0.511871 0.801191 0.309969 
0.605367 0.400525 0.687831 0.637717 0.354561 0.683815 0.697007 0.436271 0.569078 
-0.564856 0.44503 0.6949 -0.558387 0.367818 0.743582 -0.660181 0.530453 0.531771 
0.712156 0.22065 0.666444 -0.569712 0.248282 0.783444 -0.843575 0.362255 0.396423 
0.708143 0.0528523 0.704088 0.976725 0.103994 0.187601 -0.555542 -0.106191 0.82468 
-0.376095 -0.293691 0.878805 -0.751154 -0.0509091 0.658162 0.720715 0.0250077 0.692781 
0.986206 -0.0024864 0.165501 -0.099088 -0.455639 0.884632 -0.0219485 -0.4262 0.904362 
-0.358198 -0.31855 0.877622 -0.150658 -0.39706 0.905343 -0.380021 -0.316557 0.869124 
-0.709141 -0.242386 0.662094 0.747032 0.00265965 0.664782 0.994089 -0.0387446 0.101415 
-0.231432 -0.475715 0.848607 -0.539079 -0.250922 0.80401 -0.0890494 -0.45522 0.885915 
-0.00868826 -0.425628 0.904857 -0.135355 -0.409961 0.902004 -0.364302 -0.36753 0.85569 
0.72318 -0.126159 0.67904 -0.537798 0.0345796 0.842364 -0.505254 0.150353 0.849772 
-0.514108 0.0840851 0.853594 -0.123807 -0.103765 0.986866 -0.0711439 -0.219086 0.973108 
-0.201695 -0.311404 0.928626 -0.450752 -0.326772 0.830688 0.633715 -0.311895 0.707903 
0.58117 -0.376396 0.721503 -0.412815 0.210053 0.886263 -0.364024 0.136687 0.921305 
-0.250555 -0.0668712 0.96579 -0.300428 -0.188809 0.93493 0.439669 -0.475716 0.761831 
0.68823 -0.519742 0.506169 0.353821 -0.502022 0.789167 0.264556 -0.451678 0.852055 
-0.387289 0.0780377 0.91865 -0.400084 0.0929867 0.911749 -0.43033 -0.108588 0.896116 
-0.489635 -0.233301 0.840136 0.467308 -0.66389 0.583844 0.264972 -0.449734 0.852953 
0.272456 -0.460669 0.84472 0.224698 -0.472246 0.852346 0.177576 -0.604117 0.776859 
-0.0764655 -0.650624 0.75554 -0.138835 -0.568799 0.810674 -0.344493 -0.267278 0.899937 
-0.244762 -0.457237 0.855 -0.393547 -0.259591 0.881892 -0.58987 -0.374476 0.715417 
0.270509 -0.773471 0.573208 0.0660296 -0.67306 0.736634 0.178414 -0.690976 0.700515 
-0.0608209 -0.656576 0.751804 0.0374921 -0.681691 0.730679 -0.0765476 -0.654316 0.752337 
-0.142164 -0.703896 0.695931 -0.236794 -0.744142 0.624645 -0.374976 -0.785967 0.491577 
0.0504272 0.997707 0.0451475 0.501298 0.852556 0.147815 0.124967 0.990066 0.0644438 
0.264806 0.958471 0.105881 -0.116945 0.992972 0.0181943 0.0309712 0.997459 -0.0641613 
-0.165729 0.986088 0.012815 -0.262144 0.964925 -0.0141763 -0.236015 0.971401 -0.0260085 
-0.203855 0.976279 -0.0729581 -0.249006 0.963398 -0.0993041 0.589317 0.78932 0.172276 
0.636777 0.74986 0.179513 -0.269468 0.792098 -0.547694 -0.216242 0.910807 -0.351667 
-0.267695 0.958233 -0.100645 -0.249388 0.957887 -0.142335 -0.375266 0.923789 -0.0760902 
-0.505573 0.862238 0.0306882 0.73869 0.650578 0.176312 0.787104 0.591224 0.175842 
-0.542793 0.839476 0.0256293 -0.46299 0.832544 -0.304156 -0.658464 0.750513 0.0561697 
0.867719 0.461992 0.183377 -0.753689 0.644768 0.127387 -0.870524 0.461716 0.170314 
0.95333 0.269183 0.136759 0.979678 0.131196 0.151722 -0.898417 0.388311 0.20509 
0.981875 0.105715 0.157306 0.995849 0.0908672 -0.00534175 -0.926277 0.0620474 0.371699 
0.99335 -0.00510824 0.115017 0.999714 -0.0238011 -0.00246185 -0.803936 -0.186116 0.564843 
-0.676279 -0.321322 0.662872 0.996354 -0.0409313 0.0748569 0.993558 -0.0801372 0.0801344 
0.998665 -0.0396663 0.0330932 -0.638048 -0.346414 0.687671 -0.693753 -0.340635 0.634567 
0.986014 -0.138771 0.092297 -0.481217 -0.331211 0.811621 -0.462675 -0.314826 0.828744 
-0.835005 -0.448054 0.319396 0.951747 -0.270815 0.144347 -0.381426 -0.246953 0.890802 
-0.554158 -0.361112 0.750005 0.833026 -0.479763 0.275491 0.72373 -0.60752 0.327314 
-0.531836 -0.297567 0.792846 -0.551316 -0.340511 0.761645 0.598481 -0.695052 0.3984 
0.49951 -0.759068 0.417499 0.384097 -0.829707 0.405039 -0.601027 -0.43922 0.667722 
-0.602738 -0.469653 0.645084 -0.708691 -0.668272 0.226206 0.365948 -0.84311 0.394015 
0.384736 -0.869403 0.310026 0.271551 -0.887059 0.373346 0.141376 -0.944864 0.295374 
0.0375113 -0.956851 0.288146 -0.0399589 -0.954507 0.2955 -0.111306 -0.94076 0.320284 
-0.199829 -0.907254 0.37008 -0.407182 -0.789285 0.459599 -0.375702 -0.809339 0.451462 
0.443578 0.862767 -0.242636 0.163539 0.930368 -0.328131 -0.0443747 0.892305 -0.449246 
-0.209796 0.850658 -0.482044 -0.268017 0.815926 -0.512281 0.541434 0.812431 -0.216344 
0.622196 0.75686 -0.200087 0.385422 0.77406 -0.502276 -0.201611 0.697496 -0.687643 
-0.27277 0.770189 -0.576546 -0.287601 0.741227 -0.606522 -0.267361 0.764052 -0.587148 
-0.190401 0.759704 -0.62177 -0.194219 0.775006 -0.601369 -0.263802 0.791678 -0.551049 
0.737328 0.646344 -0.196435 0.801789 0.560238 -0.20801 -0.220901 0.637445 -0.738151 
-0.159068 0.662889 -0.731625 -0.162463 0.690942 -0.704418 -0.356003 0.777324 -0.518681 
-0.255791 0.744401 -0.616797 -0.408953 0.770345 -0.489209 -0.578612 0.731878 -0.359949 
0.867837 0.441212 -0.228454 0.768048 0.392968 -0.505646 -0.246036 0.628383 -0.737971 
-0.613103 0.705656 -0.355184 -0.558292 0.70371 -0.439435 -0.767665 0.55777 -0.315568 
0.934386 0.251945 -0.251887 -0.785224 0.537785 -0.306936 -0.757937 0.536926 -0.370461 
0.962699 0.0622397 -0.263318 -0.957492 0.233608 -0.169224 -0.665201 0.316054 -0.676475 
0.950015 -0.0666104 -0.305017 -0.998976 -0.012603 -0.0434618 0.944874 -0.0219014 -0.326702 
-0.966656 -0.253461 0.0365111 0.953607 -0.0777063 -0.290854 -0.89542 -0.421711 0.142766 
-0.872062 -0.455959 0.177787 -0.878288 -0.379124 -0.291333 0.949063 -0.200147 -0.243353 
-0.837669 -0.496118 0.228423 -0.736587 -0.6269 0.25384 0.915853 -0.361669 -0.174378 
0.823796 -0.556432 -0.108368 0.798711 -0.325222 -0.506253 -0.735724 -0.628035 0.25354 
0.747238 -0.660215 -0.0758372 0.566536 -0.823099 -0.0393187 -0.515378 -0.856885 -0.0115203 
-0.723036 -0.678824 0.128132 -0.708979 -0.695992 0.113772 -0.678086 -0.721414 -0.140579 
0.445969 -0.894994 -0.00991697 0.359552 -0.933123 -0.00202946 0.341768 -0.851024 -0.39869 
0.201479 -0.976398 -0.0778055 0.0994734 -0.98674 -0.128253 0.0298255 -0.991854 -0.123835 
-0.0319166 -0.99109 -0.129316 -0.0716479 -0.992368 -0.100364 -0.1572 -0.982845 -0.0964564 
-0.442942 -0.895948 -0.032854 -0.325567 -0.944393 -0.0461325 -0.295027 -0.811351 -0.504647 
0.0731948 0.744315 -0.663805 -0.0952203 0.719113 -0.688338 0.553614 0.603153 -0.574211 
0.181226 0.74049 -0.647172 0.346708 0.701836 -0.62227 0.0734248 0.723749 -0.686146 
-0.116793 0.70825 -0.696234 -0.0972982 0.712538 -0.694855 -0.203638 0.646375 -0.735344 
-0.267122 0.613292 -0.743316 0.574207 0.58286 -0.574944 0.543043 0.571463 -0.615251 
0.306659 0.461814 -0.832279 0.0551998 0.424458 -0.903764 -0.146043 0.409042 -0.900753 
-0.205537 0.458214 -0.864751 -0.224068 0.631107 -0.742629 -0.243983 0.554669 -0.795496 
-0.220356 0.633074 -0.742065 -0.172669 0.601782 -0.779772 -0.127506 0.591392 -0.79624 
-0.158741 0.614094 -0.773104 0.705595 0.361083 -0.609717 0.732627 0.297639 -0.612102 
0.449663 0.301531 -0.840763 0.231666 0.218223 -0.948003 -0.115297 0.233306 -0.965544 
-0.0937105 0.403177 -0.910311 -0.164865 0.493362 -0.854057 -0.19315 0.506247 -0.84048 
-0.110264 0.538101 -0.835637 -0.214744 0.617074 -0.757036 -0.143115 0.59299 -0.79239 
-0.234428 0.606283 -0.759911 -0.485193 0.517784 -0.704619 0.748815 0.197689 -0.63261 
0.697077 0.182539 -0.693371 0.351665 0.102017 -0.93055 -0.150264 0.277789 -0.948817 
-0.0798308 0.342113 -0.936261 -0.126961 0.377257 -0.917365 -0.216199 0.400558 -0.8904 
-0.560086 0.452862 -0.6937 -0.456341 0.428953 -0.779585 0.734305 0.0499564 -0.676979 
0.631883 0.0364451 -0.774206 0.326942 0.0197884 -0.944837 -0.177246 0.179212 -0.967712 
-0.65392 0.314118 -0.688272 -0.3847 0.194543 -0.902308 -0.660323 0.305005 -0.686255 
0.762471 -0.039626 -0.645808 0.670739 -0.0186572 -0.741458 0.340462 0.0184125 -0.940078 
-0.0371693 -0.0868749 -0.995526 -0.0185005 -0.0248646 -0.99952 -0.165729 0.0675777 -0.983853 
-0.328596 0.0229523 -0.944192 -0.759253 0.0628294 -0.647756 -0.637162 0.0708447 -0.767467 
0.773531 -0.0232655 -0.633331 0.700296 -0.0219117 -0.713516 0.354592 -0.00911909 -0.934977 
-0.0228919 0.0268774 -0.999377 0.0583515 0.00641815 -0.998275 -0.140376 -0.0362838 -0.989433 
-0.382654 -0.0141269 -0.923784 -0.776383 -0.163928 -0.608569 -0.759693 -0.236878 -0.605603 
-0.709492 -0.15775 -0.68683 0.760251 -0.0203929 -0.649309 0.688037 0.00286482 -0.72567 
0.354733 0.00131718 -0.934967 -0.16717 -0.122582 -0.978278 -0.746303 -0.292665 -0.597812 
-0.451073 -0.133735 -0.88241 0.817765 -0.135102 -0.55947 0.783749 -0.282246 -0.55324 
0.748317 -0.120721 -0.652264 0.337919 -0.0698976 -0.938576 -0.182397 -0.0323359 -0.982693 
-0.293567 -0.210408 -0.932495 -0.731582 -0.39698 -0.554251 -0.711975 -0.491032 -0.501975 
-0.583976 -0.332802 -0.740415 0.765192 -0.315947 -0.560945 0.422404 -0.24617 -0.872339 
-0.285287 -0.258208 -0.923006 -0.69538 -0.526592 -0.489026 -0.565708 -0.668263 -0.483113 
-0.477425 -0.370587 -0.796699 0.599644 -0.599906 -0.52966 0.546976 -0.65811 -0.517405 
0.521198 -0.581635 -0.624543 0.325342 -0.789735 -0.520068 0.260194 -0.439953 -0.8595 
0.0907927 -0.364707 -0.926685 0.00139877 -0.336211 -0.941786 0.0449938 -0.322012 -0.945666 
-0.131768 -0.411296 -0.901927 -0.293511 -0.804257 -0.516742 -0.250242 -0.42473 -0.870048 
-0.526005 -0.690676 -0.496272 -0.422914 -0.712937 -0.559343 -0.353936 -0.583481 -0.730944 
0.261549 -0.815315 -0.516579 0.136368 -0.836673 -0.530454 0.128384 -0.795474 -0.592232 
0.082659 -0.818827 -0.568058 0.0659416 -0.743991 -0.664928 0.0370039 -0.822306 -0.567841 
0.0434171 -0.711299 -0.701547 -0.00975352 -0.839421 -0.543394 0.00298725 -0.733335 -0.679861 
-0.0703384 -0.850316 -0.521551 -0.0674464 -0.758056 -0.648693 -0.286379 -0.806771 -0.516825 
-0.135848 -0.826398 -0.546453 -0.133937 -0.781683 -0.609124 0.0538028 0.319783 -0.945962 
-0.124115 0.222657 -0.966964 0.194602 0.200527 -0.960166 0.212197 0.182558 -0.960023 
0.0499426 0.138729 -0.98907 -0.113863 0.203704 -0.972389 -0.109947 0.173016 -0.978763 
-0.0489148 0.177035 -0.982988 -0.0254958 0.320933 -0.946759 -0.14441 0.335558 -0.930885 
0.257029 0.0868808 -0.96249 0.155755 0.0718689 -0.985178 0.00359952 -0.0151881 -0.999878 
-0.0648148 0.0121128 -0.997824 0.0218617 0.118664 -0.992694 0.0459873 0.220028 -0.974409 
-0.146259 0.259972 -0.954475 -0.135315 0.231135 -0.963466 -0.12382 0.173704 -0.976983 
-0.0431181 0.137556 -0.989555 -0.100341 0.132124 -0.986141 0.214026 0.00950766 -0.976782 
0.11429 0.00293256 -0.993443 -0.0055043 -0.0168595 -0.999843 0.0290759 -0.00335455 -0.999572 
0.10501 0.17716 -0.978564 0.0269249 -0.0472935 -0.998518 -0.107758 0.0652692 -0.992032 
-0.0958354 0.0749639 -0.99257 -0.0361635 -0.0548123 -0.997842 -0.0309109 0.0687002 -0.997158 
-0.105763 0.121723 -0.986913 -0.0433231 0.0186038 -0.998888 -0.0978673 0.113952 -0.988654 
0.258744 0.0215605 -0.965705 0.113528 0.0245609 -0.993231 0.00337546 0.0291389 -0.99957 
0.132785 0.0168187 -0.991002 -0.0358783 0.091131 -0.995192 -0.066511 -0.079805 -0.994589 
-0.00434963 0.115724 -0.993272 -0.0567323 -0.0782147 -0.995321 -0.155478 -0.0251427 -0.987519 
0.276734 -0.00676761 -0.960923 0.121822 -0.00261344 -0.992549 -0.0130146 -0.0158663 -0.999789 
0.100774 -0.0544999 -0.993416 0.0117451 -0.145654 -0.989266 0.0533237 0.118595 -0.99151 
-0.0221536 0.111779 -0.993486 -0.292508 0.0910676 -0.951917 -0.324837 0.0989429 -0.94058 
-0.098426 0.104616 -0.98963 -0.0638434 0.0106525 -0.997903 0.250131 0.00764875 -0.968182 
0.106983 0.0145811 -0.994154 -0.0476876 6.18833e-05 -0.998862 -0.00602221 -0.00168968 -0.99998 
0.137447 -0.142918 -0.980144 0.186456 0.0377269 -0.981739 -0.0129465 -0.0454657 -0.998882 
-0.240293 0.126334 -0.962444 -0.122106 0.127139 -0.98434 -0.0860316 0.00644377 -0.996272 
-0.116413 -0.00298495 -0.993196 -0.0834949 0.0113591 -0.996443 0.277285 -0.0689848 -0.958308 
0.127983 -0.0656875 -0.989599 -0.037005 0.0247047 -0.99901 -0.042819 0.0308905 -0.998605 
0.060588 0.00728644 -0.998136 0.148261 -0.0592264 -0.987173 0.0395591 -0.0983992 -0.99436 
-0.125593 -0.0176042 -0.991926 -0.180151 -0.0278163 -0.983246 -0.162739 0.0206355 -0.986453 
0.193418 -0.209803 -0.958422 0.192967 -0.210184 -0.958429 0.192847 -0.209738 -0.958551 
0.079155 -0.299567 -0.950786 0.048237 -0.123806 -0.991133 -0.0113122 -0.220965 -0.975216 
-0.0201188 -0.0955232 -0.995224 0.0448019 -0.2406 -0.96959 0.0436524 -0.0756901 -0.996175 
0.0884419 -0.111598 -0.98981 0.0214101 -0.162992 -0.986395 -0.129365 -0.372582 -0.918938 
-0.111453 -0.166763 -0.979678 -0.223274 -0.218823 -0.949876 -0.171227 -0.234026 -0.957034 
-0.149275 -0.175802 -0.973042 0.0531277 -0.317862 -0.946647 0.0533596 -0.320828 -0.945633 
0.05356 -0.317828 -0.946634 -0.0797173 -0.393655 -0.915795 -0.023166 -0.402162 -0.915276 
-0.0187935 -0.375356 -0.92669 
