# vtk DataFile Version 4.2
vtk output
ASCII
DATASET POLYDATA
POINTS 501 float
-19.3947 -37.5343 -19.0098 -11.5804 -37.5343 -20.3323 -3.76602 -37.5343 -20.265 
4.04831 -37.5343 -19.3286 11.8626 -37.5343 -17.828 -27.209 -29.7199 -21.247 
-19.3947 -29.7199 -23.8499 -11.5804 -29.7199 -24.052 -3.76602 -29.7199 -23.5213 
4.04831 -29.7199 -22.2651 11.8626 -29.7199 -21.376 19.677 -29.7199 -19.6518 
27.4913 -29.7199 -17.416 -35.0233 -21.9056 -20.2581 -27.209 -21.9056 -23.6872 
-19.3947 -21.9056 -24.8452 -11.5804 -21.9056 -24.6735 -3.76602 -21.9056 -24.0096 
4.04831 -21.9056 -22.9118 11.8626 -21.9056 -21.4644 19.677 -21.9056 -21.0977 
27.4913 -21.9056 -20.3117 35.3056 -21.9056 -18.1414 -35.0233 -14.0913 -21.4671 
-27.209 -14.0913 -23.1887 -19.3947 -14.0913 -23.6042 -11.5804 -14.0913 -23.5532 
-3.76602 -14.0913 -23.4787 4.04831 -14.0913 -22.2759 11.8626 -14.0913 -21.4591 
19.677 -14.0913 -21.9893 27.4913 -14.0913 -22.0121 35.3056 -14.0913 -20.7849 
43.12 -14.0913 -17.2047 -42.8377 -6.27693 -18.397 -35.0233 -6.27693 -21.7387 
-27.209 -6.27693 -22.8921 -19.3947 -6.27693 -21.9811 -11.5804 -6.27693 -21.8447 
-3.76602 -6.27693 -23.5974 4.04831 -6.27693 -22.8393 11.8626 -6.27693 -22.2527 
19.677 -6.27693 -22.8759 27.4913 -6.27693 -23.2813 35.3056 -6.27693 -22.1112 
43.12 -6.27693 -19.0759 -42.8377 1.5374 -19.254 -35.0233 1.5374 -22.0518 
-27.209 1.5374 -22.7829 -19.3947 1.5374 -21.7146 -11.5804 1.5374 -21.4385 
-3.76602 1.5374 -22.8534 4.04831 1.5374 -22.6284 11.8626 1.5374 -23.625 
19.677 1.5374 -23.895 27.4913 1.5374 -23.734 35.3056 1.5374 -22.5574 
43.12 1.5374 -19.157 -42.8377 9.35174 -19.0888 -35.0233 9.35174 -21.9657 
-27.209 9.35174 -22.8953 -19.3947 9.35174 -22.4825 -11.5804 9.35174 -21.8159 
-3.76602 9.35174 -22.0142 4.04831 9.35174 -23.1776 11.8626 9.35174 -24.6483 
19.677 9.35174 -24.8504 27.4913 9.35174 -24.6171 35.3056 9.35174 -22.228 
43.12 9.35174 -17.8576 -35.0233 17.1661 -21.1292 -27.209 17.1661 -22.6399 
-19.3947 17.1661 -22.5848 -11.5804 17.1661 -22.1625 -3.76602 17.1661 -22.4323 
4.04831 17.1661 -23.3845 11.8626 17.1661 -24.2489 19.677 17.1661 -24.3675 
27.4913 17.1661 -23.4107 35.3056 17.1661 -20.6966 -35.0233 24.9804 -18.7528 
-27.209 24.9804 -21.2191 -19.3947 24.9804 -21.8057 -11.5804 24.9804 -22.0954 
-3.76602 24.9804 -22.2579 4.04831 24.9804 -22.5693 11.8626 24.9804 -22.4169 
19.677 24.9804 -21.8002 27.4913 24.9804 -19.9092 -27.209 32.7947 -17.2208 
-19.3947 32.7947 -19.269 -11.5804 32.7947 -20.4103 -3.76602 32.7947 -21.1218 
4.04831 32.7947 -20.7959 11.8626 32.7947 -19.6699 19.677 32.7947 -17.293 
-3.76602 40.6091 -17.8638 4.04831 40.6091 -17.3123 -19.3947 -39.1647 -17.1802 
-11.5804 -40.7152 -17.1802 -3.76602 -40.8915 -17.1802 4.04831 -40.0422 -17.1802 
11.8626 -38.2827 -17.1802 -23.0052 -37.5343 -17.1802 -27.209 -35.1825 -17.1802 
-27.209 -37.5343 -12.8838 13.8733 -37.5343 -17.1802 19.677 -34.5328 -17.1802 
19.677 -37.5343 -14.7178 27.4913 -30.0892 -17.1802 -33.5275 -29.7199 -17.1802 
-35.0233 -27.7396 -17.1802 -35.0233 -29.7199 -15.3354 27.9653 -29.7199 -17.1802 
35.3056 -23.5296 -17.1802 35.3056 -29.7199 -11.5664 -38.7659 -21.9056 -17.1802 
-42.8377 -21.9056 -10.9616 36.9221 -21.9056 -17.1802 43.12 -14.141 -17.1802 
43.12 -21.9056 -11.3627 -42.0569 -14.0913 -17.1802 -42.8377 -11.6801 -17.1802 
-42.8377 -14.0913 -16.3297 43.1506 -14.0913 -17.1802 -44.2161 -6.27693 -17.1802 
45.5218 -6.27693 -17.1802 -45.3846 1.5374 -17.1802 45.4834 1.5374 -17.1802 
-45.0115 9.35174 -17.1802 -42.8377 16.2619 -17.1802 43.8272 9.35174 -17.1802 
43.12 11.1322 -17.1802 -42.4127 17.1661 -17.1802 -42.8377 17.1661 -16.7757 
40.1869 17.1661 -17.1802 35.3056 23.1213 -17.1802 43.12 17.1661 -11.105 
-37.2951 24.9804 -17.1802 -35.0233 27.3116 -17.1802 33.0065 24.9804 -17.1802 
27.4913 28.7922 -17.1802 35.3056 24.9804 -14.9053 -27.2911 32.7947 -17.1802 
-35.0233 32.7947 -9.70428 -27.209 32.8473 -17.1802 -19.3947 36.0201 -17.1802 
-11.5804 39.2152 -17.1802 11.8626 37.2486 -17.1802 19.971 32.7947 -17.1802 
19.677 32.9555 -17.1802 27.4913 32.7947 -12.2718 -19.3947 40.6091 -12.2502 
-7.56679 40.6091 -17.1802 -11.5804 40.6091 -16.0953 -3.76602 41.476 -17.1802 
4.53384 40.6091 -17.1802 4.04831 40.7824 -17.1802 11.8626 40.6091 -14.4158 
19.677 40.6091 -9.49343 -27.209 -38.9921 -9.36584 -19.3947 -42.446 -9.36584 
-11.5804 -44.0694 -9.36584 -3.76602 -44.9122 -9.36584 4.04831 -44.4479 -9.36584 
11.8626 -43.6236 -9.36584 19.677 -41.2019 -9.36584 -29.5078 -37.5343 -9.36584 
-35.0233 -33.4337 -9.36584 27.1126 -37.5343 -9.36584 27.4913 -37.2988 -9.36584 
27.4913 -37.5343 -8.48054 35.3056 -31.3649 -9.36584 -38.6017 -29.7199 -9.36584 
-42.8377 -23.2869 -9.36584 37.1084 -29.7199 -9.36584 43.12 -23.5384 -9.36584 
-43.642 -21.9056 -9.36584 44.4453 -21.9056 -9.36584 -46.9363 -14.0913 -9.36584 
48.7185 -14.0913 -9.36584 -48.8827 -6.27693 -9.36584 50.5807 -6.27693 -9.36584 
50.9343 -6.27693 -6.30731 -49.831 1.5374 -9.36584 -50.652 1.5374 -3.53182 
50.0061 1.5374 -9.36584 -49.4789 9.35174 -9.36584 47.8327 9.35174 -9.36584 
-47.1547 17.1661 -9.36584 -42.8377 24.7023 -9.36584 43.7417 17.1661 -9.36584 
43.12 18.0667 -9.36584 -42.6385 24.9804 -9.36584 -42.8377 24.9804 -7.32452 
38.1605 24.9804 -9.36584 35.3056 27.948 -9.36584 -35.2409 32.7947 -9.36584 
-35.0233 32.9808 -9.36584 -27.209 38.3832 -9.36584 29.6224 32.7947 -9.36584 
27.4913 34.6426 -9.36584 -23.0438 40.6091 -9.36584 -19.3947 42.3627 -9.36584 
-11.5804 45.0627 -9.36584 -3.76602 46.6784 -9.36584 4.04831 46.6328 -9.36584 
11.8626 44.6702 -9.36584 19.8013 40.6091 -9.36584 19.677 40.6976 -9.36584 
-27.209 -39.6775 -1.55151 -19.3947 -42.9783 -1.55151 -11.5804 -44.6967 -1.55151 
-3.76602 -45.3317 -1.55151 4.04831 -45.3333 -1.55151 11.8626 -44.8728 -1.55151 
19.677 -42.6952 -1.55151 27.4913 -39.0156 -1.55151 -30.6582 -37.5343 -1.55151 
-35.0233 -34.3017 -1.55151 29.685 -37.5343 -1.55151 35.3056 -33.3344 -1.55151 
-39.772 -29.7199 -1.55151 -42.8377 -25.4707 -1.55151 39.1791 -29.7199 -1.55151 
43.12 -25.3612 -1.55151 -44.9429 -21.9056 -1.55151 45.8197 -21.9056 -1.55151 
-48.1268 -14.0913 -1.55151 49.913 -14.0913 -1.55151 50.9343 -8.96086 -1.55151 
-50.0425 -6.27693 -1.55151 -50.652 -0.862458 -1.55151 50.9343 -2.02709 -1.55151 
50.9343 -6.27693 0.986158 -50.92 1.5374 -1.55151 -50.652 6.52524 -1.55151 
-50.652 1.5374 0.12447 50.5142 1.5374 -1.55151 -50.4971 9.35174 -1.55151 
47.8172 9.35174 -1.55151 -47.9597 17.1661 -1.55151 43.761 17.1661 -1.55151 
43.12 18.1825 -1.55151 43.12 17.1661 2.58609 -43.3498 24.9804 -1.55151 
-42.8377 25.6255 -1.55151 -42.8377 24.9804 0.6018 38.3909 24.9804 -1.55151 
35.3056 28.7537 -1.55151 -36.0251 32.7947 -1.55151 -35.0233 33.6852 -1.55151 
-35.0233 32.7947 1.65323 -27.209 39.2993 -1.55151 31.516 32.7947 -1.55151 
27.4913 36.6397 -1.55151 -24.7883 40.6091 -1.55151 -19.3947 43.2726 -1.55151 
-11.5804 46.008 -1.55151 -3.76602 47.5692 -1.55151 4.04831 47.7608 -1.55151 
11.8626 46.4126 -1.55151 23.1084 40.6091 -1.55151 19.677 42.9912 -1.55151 
-27.209 -38.1764 6.26282 -19.3947 -41.482 6.26282 -11.5804 -43.3988 6.26282 
-3.76602 -44.2059 6.26282 4.04831 -44.2413 6.26282 11.8626 -43.7727 6.26282 
19.677 -41.786 6.26282 27.4913 -38.1819 6.26282 -28.3388 -37.5343 6.26282 
-35.0233 -32.8983 6.26282 -27.209 -37.5343 7.36536 -19.3947 -37.5343 12.2439 
19.677 -37.5343 14.0391 28.4534 -37.5343 6.26282 27.4913 -37.5343 7.5801 
35.3056 -32.1591 6.26282 -38.336 -29.7199 6.26282 -42.8377 -23.571 6.26282 
-35.0233 -29.7199 10.6693 37.8358 -29.7199 6.26282 35.3056 -29.7199 10.1682 
43.12 -23.4657 6.26282 -43.7989 -21.9056 6.26282 -42.8377 -21.9056 7.93794 
44.2474 -21.9056 6.26282 43.12 -21.9056 8.26229 -46.9151 -14.0913 6.26282 
-42.8377 -14.0913 13.0697 48.1668 -14.0913 6.26282 -48.736 -6.27693 6.26282 
49.8211 -6.27693 6.26282 -49.5924 1.5374 6.26282 48.876 1.5374 6.26282 
-49.2219 9.35174 6.26282 46.2581 9.35174 6.26282 43.12 16.0304 6.26282 
-46.4672 17.1661 6.26282 -42.8377 22.9481 6.26282 -42.8377 17.1661 13.1837 
42.5602 17.1661 6.26282 -41.2705 24.9804 6.26282 -35.0233 31.3632 6.26282 
38.1162 24.9804 6.26282 35.3056 29.0461 6.26282 -33.298 32.7947 6.26282 
-27.209 37.2764 6.26282 -27.209 32.7947 13.2101 32.2281 32.7947 6.26282 
27.4913 37.1344 6.26282 -20.9366 40.6091 6.26282 -19.3947 41.3576 6.26282 
-19.3947 40.6091 7.60931 -11.5804 43.7205 6.26282 -11.5804 40.6091 11.4391 
-3.76602 44.9146 6.26282 -3.76602 40.6091 12.9667 4.04831 45.4362 6.26282 
4.04831 40.6091 13.9476 11.8626 44.6113 6.26282 22.5709 40.6091 6.26282 
19.677 42.2556 6.26282 19.677 40.6091 10.6802 -11.5804 -38.1801 14.0771 
-3.76602 -39.4405 14.0771 4.04831 -39.8671 14.0771 11.8626 -39.4113 14.0771 
-27.209 -32.2655 14.0771 -14.0062 -37.5343 14.0771 -19.3947 -35.7586 14.0771 
-11.5804 -37.5343 14.6521 -3.76602 -37.5343 15.791 4.04831 -37.5343 16.2744 
19.5757 -37.5343 14.0771 11.8626 -37.5343 15.8774 19.677 -37.5016 14.0771 
27.4913 -33.051 14.0771 -30.9903 -29.7199 14.0771 -35.0233 -25.9547 14.0771 
-27.209 -29.7199 15.9441 -19.3947 -29.7199 17.9921 -11.5804 -29.7199 19.0551 
-3.76602 -29.7199 19.6998 4.04831 -29.7199 20.205 11.8626 -29.7199 20.0913 
19.677 -29.7199 19.0529 31.6418 -29.7199 14.0771 27.4913 -29.7199 16.5529 
35.3056 -26.1592 14.0771 -38.0037 -21.9056 14.0771 -35.0233 -21.9056 16.1918 
-27.209 -21.9056 19.3256 -19.3947 -21.9056 20.7706 -11.5804 -21.9056 21.2007 
-3.76602 -21.9056 21.1323 4.04831 -21.9056 21.3001 11.8626 -21.9056 21.4973 
19.677 -21.9056 21.3516 27.4913 -21.9056 20.0825 38.7523 -21.9056 14.0771 
35.3056 -21.9056 16.7313 43.12 -15.7417 14.0771 -41.8704 -14.0913 14.0771 
-42.8377 -10.953 14.0771 -35.0233 -14.0913 18.5004 -27.209 -14.0913 21.0273 
35.3056 -14.0913 20.3237 44.0024 -14.0913 14.0771 43.12 -14.0913 15.0966 
-43.8697 -6.27693 14.0771 -42.8377 -6.27693 15.0684 -35.0233 -6.27693 19.882 
45.7355 -6.27693 14.0771 43.12 -6.27693 17.0466 -45.2222 1.5374 14.0771 
-42.8377 1.5374 16.5181 -35.0233 1.5374 21.2392 45.7165 1.5374 14.0771 
43.12 1.5374 17.6693 -45.124 9.35174 14.0771 -42.8377 15.7618 14.0771 
-42.8377 9.35174 16.5014 -35.0233 9.35174 21.3125 44.2094 9.35174 14.0771 
[...]
POINT_DATA 501
SCALARS ImageScalars float
LOOKUP_TABLE default
0 0 0 0 0 0 0 0 0 
0 0 0 0 0 0 0 0 0 
0 0 0 0 0 0 0 0 0 
0 0 0 0 0 0 0 0 0 
0 0 0 0 0 0 0 0 0 
0 0 0 0 0 0 0 0 0 
0 0 0 0 0 0 0 0 0 
0 0 0 0 0 0 0 0 0 
0 0 0 0 0 0 0 0 0 
0 0 0 0 0 0 0 0 0 
0 0 0 0 0 0 0 0 0 
0 0 0 0 0 0 0 0 0 
0 0 0 0 0 0 0 0 0 
0 0 0 0 0 0 0 0 0 
0 0 0 0 0 0 0 0 0 
0 0 0 0 0 0 0 0 0 
0 0 0 0 0 0 0 0 0 
0 0 0 0 0 0 0 0 0 
0 0 0 0 0 0 0 0 0 
0 0 0 0 0 0 0 0 0 
0 0 0 0 0 0 0 0 0 
0 0 0 0 0 0 0 0 0 
0 0 0 0 0 0 0 0 0 
0 0 0 0 0 0 0 0 0 
0 0 0 0 0 0 0 0 0 
0 0 0 0 0 0 0 0 0 
0 0 0 0 0 0 0 0 0 
0 0 0 0 0 0 0 0 0 
0 0 0 0 0 0 0 0 0 
0 0 0 0 0 0 0 0 0 
0 0 0 0 0 0 0 0 0 
0 0 0 0 0 0 0 0 0 
0 0 0 0 0 0 0 0 0 
0 0 0 0 0 0 0 0 0 
0 0 0 0 0 0 0 0 0 
0 0 0 0 0 0 0 0 0 
0 0 0 0 0 0 0 0 0 
0 0 0 0 0 0 0 0 0 
0 0 0 0 0 0 0 0 0 
0 0 0 0 0 0 0 0 0 
0 0 0 0 0 0 0 0 0 
0 0 0 0 0 0 0 0 0 
0 0 0 0 0 0 0 0 0 
0 0 0 0 0 0 0 0 0 
0 0 0 0 0 0 0 0 0 
0 0 0 0 0 0 0 0 0 
0 0 0 0 0 0 0 0 0 
0 0 0 0 0 0 0 0 0 
0 0 0 0 0 0 0 0 0 
0 0 0 0 0 0 0 0 0 
0 0 0 0 0 0 0 0 0 
0 0 0 0 0 0 0 0 0 
0 0 0 0 0 0 0 0 0 
0 0 0 0 0 0 0 0 0 
0 0 0 0 0 0 0 0 0 
0 0 0 0 0 0 
NORMALS Normals float
-0.258028 -0.699145 -0.666796 -0.0596053 -0.630484 -0.77391 0.0593737 -0.583197 -0.810158 
0.135513 -0.554375 -0.821161 0.226315 -0.581868 -0.781161 -0.396958 -0.421541 -0.815309 
-0.155984 -0.281467 -0.946808 0.021159 -0.236221 -0.971469 0.113828 -0.213657 -0.970254 
0.129159 -0.206099 -0.96997 0.164218 -0.190424 -0.967869 0.226237 -0.316245 -0.921307 
0.370223 -0.469399 -0.801623 -0.525384 -0.278375 -0.804039 -0.243289 -0.101512 -0.964627 
-0.0571946 0.0209688 -0.998143 0.0523868 0.0303963 -0.998164 0.112205 0.00427931 -0.993676 
0.162018 -0.000360692 -0.986788 0.113578 -0.00471255 -0.993518 0.0704311 -0.146396 -0.986716 
0.174776 -0.274673 -0.94552 0.396042 -0.431548 -0.810504 -0.35819 -0.0786059 -0.930334 
-0.134147 0.0477744 -0.989809 -0.023078 0.18092 -0.983227 0.00798611 0.181404 -0.983376 
0.0790618 0.0259091 -0.996533 0.130984 0.00527204 -0.99137 0.0167637 -0.0492819 -0.998644 
-0.0352628 -0.11209 -0.993072 0.0740145 -0.182071 -0.980496 0.27365 -0.230834 -0.933719 
0.578907 -0.324949 -0.747846 -0.59824 -0.147815 -0.787566 -0.261096 -0.0367124 -0.964614 
-0.0121724 0.0258868 -0.999591 0.0671295 0.11848 -0.990685 -0.103127 0.131649 -0.985918 
-0.0642139 0.0393422 -0.99716 0.0865628 -0.0218819 -0.996006 -0.00299026 -0.137444 -0.990505 
-0.0644732 -0.121256 -0.990525 0.0453067 -0.110006 -0.992898 0.249534 -0.11098 -0.961986 
0.5375 -0.112127 -0.835776 -0.541585 -0.0403538 -0.839677 -0.210661 -0.0141491 -0.977457 
0.0238856 -0.000227991 -0.999715 0.0855056 -0.0301246 -0.995882 -0.0717001 0.00155401 -0.997425 
-0.076821 0.101671 -0.991848 -0.0484385 -0.0215558 -0.998594 -0.0808186 -0.151256 -0.985185 
-0.00645339 -0.126104 -0.991996 0.0805069 -0.0818333 -0.993389 0.270072 -0.00758815 -0.96281 
0.574701 0.0644267 -0.815823 -0.56398 0.129754 -0.815531 -0.228042 0.0588282 -0.971873 
-0.0308047 0.0102017 -0.999473 0.0700419 -0.0565285 -0.995941 0.0282231 -0.0462743 -0.99853 
-0.0855221 0.0258273 -0.996001 -0.170177 -0.0486462 -0.984212 -0.10589 -0.0389053 -0.993616 
0.00151212 -0.0307555 -0.999526 0.153315 0.0168101 -0.988034 0.37319 0.105535 -0.921733 
0.668918 0.232168 -0.706149 -0.324495 0.182517 -0.928111 -0.0877079 0.103523 -0.990752 
0.0307115 0.0446306 -0.998531 0.00977162 -0.0179341 -0.999791 -0.0771009 -0.0156091 -0.996901 
-0.116141 0.0402268 -0.992418 -0.0617693 0.136 -0.988781 0.0522688 0.1749 -0.983198 
0.208902 0.260263 -0.942668 0.464013 0.32272 -0.824951 -0.457015 0.437964 -0.774161 
-0.173852 0.308726 -0.935128 -0.0546858 0.194001 -0.979476 -0.0296248 0.104993 -0.994032 
-0.0304423 0.0784716 -0.996451 -0.0105699 0.153968 -0.988019 0.0442381 0.281021 -0.958682 
0.14149 0.408375 -0.901782 0.304267 0.525142 -0.794763 -0.335825 0.596152 -0.729263 
-0.18007 0.450533 -0.874411 -0.110912 0.330058 -0.937422 -0.0232044 0.262656 -0.964611 
0.0870357 0.313192 -0.945693 0.192681 0.412844 -0.890188 0.306899 0.552145 -0.775209 
-0.0500483 0.566718 -0.822391 0.157532 0.562467 -0.811674 -0.27289 -0.771674 -0.574501 
-0.0922006 -0.788049 -0.608669 0.0333199 -0.752775 -0.657434 0.128777 -0.68861 -0.713606 
0.226886 -0.617258 -0.753336 -0.349286 -0.741295 -0.573133 -0.439364 -0.671781 -0.59638 
-0.469197 -0.806729 -0.359225 0.251511 -0.598747 -0.760424 0.282854 -0.513186 -0.810329 
0.335056 -0.687878 -0.643864 0.376734 -0.483072 -0.790388 -0.597141 -0.499887 -0.627324 
-0.618077 -0.461079 -0.6367 -0.654249 -0.542484 -0.526944 0.381078 -0.479704 -0.790357 
0.428959 -0.471534 -0.770487 0.584255 -0.660054 -0.472202 -0.65674 -0.353763 -0.665991 
-0.828242 -0.437358 -0.350333 0.453379 -0.454707 -0.766609 0.579544 -0.32631 -0.74676 
0.709836 -0.555453 -0.433133 -0.67198 -0.23001 -0.703944 -0.674687 -0.215289 -0.706009 
-0.720666 -0.250795 -0.64633 0.579913 -0.325251 -0.746935 -0.664056 -0.160476 -0.730259 
0.635119 -0.109445 -0.764622 -0.674845 -0.0409723 -0.736822 0.67089 0.0883541 -0.736274 
-0.67619 0.142555 -0.722803 -0.641416 0.304812 -0.704042 0.695734 0.242072 -0.676281 
0.697698 0.280521 -0.659186 -0.632933 0.319297 -0.705298 -0.658833 0.331313 -0.675404 
0.667848 0.406601 -0.623421 0.529222 0.571629 -0.627028 0.825435 0.515187 -0.230737 
-0.549071 0.47801 -0.685586 -0.497742 0.530407 -0.686237 0.470069 0.611696 -0.636288 
0.377115 0.619184 -0.688764 0.582503 0.658276 -0.476826 -0.338403 0.597774 -0.726739 
-0.612081 0.745978 -0.262437 -0.336911 0.597898 -0.72733 -0.233155 0.570091 -0.787804 
-0.204338 0.570107 -0.795754 0.262314 0.514684 -0.816267 0.312937 0.557901 -0.768646 
0.310397 0.555125 -0.771679 0.534815 0.72128 -0.440144 -0.350617 0.810944 -0.468442 
-0.13548 0.5983 -0.789736 -0.232099 0.656915 -0.717351 -0.0540282 0.603963 -0.795179 
0.167364 0.565673 -0.807467 0.157156 0.568774 -0.80734 0.328497 0.66317 -0.672529 
0.49405 0.756339 -0.428796 -0.480306 -0.852223 -0.207419 -0.289201 -0.93637 -0.198932 
-0.147775 -0.966167 -0.211384 -0.0244092 -0.973806 -0.226065 0.0762897 -0.960181 -0.268759 
0.19028 -0.928749 -0.318148 0.354146 -0.86594 -0.353168 -0.529714 -0.823196 -0.20433 
-0.6642 -0.713221 -0.223954 0.508103 -0.783791 -0.357075 0.514945 -0.77895 -0.357866 
0.519352 -0.792392 -0.319982 0.607146 -0.702216 -0.371843 -0.742446 -0.618878 -0.256447 
-0.834325 -0.474813 -0.280096 0.627516 -0.68543 -0.369336 0.725499 -0.594915 -0.346015 
-0.848383 -0.446983 -0.283641 0.756768 -0.556346 -0.343192 -0.905225 -0.2959 -0.304976 
0.870627 -0.360912 -0.334292 -0.93684 -0.175773 -0.302383 0.953099 -0.067963 -0.29493 
0.986395 -0.0534577 -0.155459 -0.9596 -0.0357886 -0.279083 -0.997873 -0.0305112 -0.0576011 
0.954681 0.169114 -0.244918 -0.944912 0.160667 -0.285179 0.92019 0.343115 -0.188472 
-0.888171 0.373609 -0.267523 -0.781293 0.575547 -0.24151 0.83674 0.528212 -0.144423 
0.828969 0.540418 -0.14408 -0.7761 0.582853 -0.240732 -0.788851 0.593033 -0.161328 
0.725552 0.665182 -0.176372 0.670972 0.708832 -0.217611 -0.617912 0.746197 -0.247739 
-0.614097 0.749126 -0.248386 -0.48955 0.825547 -0.280736 0.607022 0.735357 -0.301286 
0.589294 0.739899 -0.324472 -0.428501 0.853639 -0.296118 -0.371623 0.874205 -0.31251 
-0.262156 0.912868 -0.312965 -0.0957632 0.94629 -0.308812 0.109448 0.931449 -0.347023 
0.355781 0.844335 -0.400646 0.496957 0.757735 -0.422932 0.495345 0.758549 -0.423364 
-0.470943 -0.881075 0.0438063 -0.297026 -0.953443 0.0521732 -0.144128 -0.988878 0.0367166 
-0.0400943 -0.99829 0.042547 0.0283173 -0.999524 0.0122178 0.162613 -0.98666 -0.0076367 
0.337208 -0.940898 -0.0316383 0.517487 -0.854454 -0.0459902 -0.545416 -0.837571 0.0315563 
-0.649227 -0.760281 0.0218524 0.555272 -0.830289 -0.0478949 0.646685 -0.761584 -0.0423006 
-0.755204 -0.655474 0.00459901 -0.842544 -0.538528 -0.0103404 0.705138 -0.708308 -0.0328752 
0.77358 -0.633651 -0.00772212 -0.88979 -0.456274 -0.00936217 0.829222 -0.558851 0.00872067 
-0.954293 -0.298861 -0.00274331 0.944296 -0.326818 0.0386753 0.990067 -0.132898 0.0458735 
-0.985179 -0.171401 0.00663279 -0.997319 -0.0724586 0.0102511 0.992926 0.103605 0.0579941 
0.990561 -0.0357594 0.132328 -0.999509 -0.028818 0.0123106 -0.994512 0.104055 0.010901 
-0.996839 -0.029382 0.073812 0.974059 0.216143 0.0670163 -0.983822 0.178832 0.0106659 
0.916262 0.390032 0.09132 -0.916181 0.399274 0.0345402 0.856517 0.51189 0.0659383 
0.849458 0.524638 0.0563582 0.870579 0.479694 0.109477 -0.796418 0.601708 0.0605447 
-0.786588 0.614428 0.061296 -0.785324 0.605736 0.127863 0.789605 0.613612 0.00230588 
0.752645 0.656486 -0.0505133 -0.661157 0.746844 0.0713841 -0.645787 0.760291 0.0701132 
-0.642198 0.745821 0.17701 -0.518069 0.853622 0.0541695 0.702054 0.70334 -0.111504 
0.664075 0.738022 -0.119698 -0.473769 0.878974 0.0542891 -0.385765 0.921121 0.0521765 
-0.261048 0.962305 0.0763063 -0.107993 0.988863 0.102413 0.0645736 0.995106 0.0747895 
0.307523 0.951247 0.0236397 0.581892 0.806134 -0.107468 0.502942 0.860731 -0.078685 
-0.432613 -0.839171 0.329602 -0.293438 -0.88958 0.350058 -0.157991 -0.929641 0.332875 
-0.0498483 -0.951605 0.303255 0.0259519 -0.956021 0.292149 0.144522 -0.948155 0.283047 
0.312629 -0.910387 0.271033 0.50315 -0.825114 0.256955 -0.456859 -0.827671 0.325945 
-0.622649 -0.720342 0.305639 -0.426239 -0.821604 0.378534 -0.266742 -0.741115 0.616115 
0.275292 -0.707873 0.650484 0.521947 -0.813295 0.257144 0.501919 -0.806477 0.312525 
0.64562 -0.711603 0.277121 -0.69897 -0.646901 0.304893 -0.827694 -0.471473 0.304361 
-0.588998 -0.618935 0.519616 0.682776 -0.673078 0.284223 0.623123 -0.642789 0.445579 
0.772216 -0.556011 0.307464 -0.849928 -0.430893 0.303237 -0.818002 -0.427658 0.384684 
0.792377 -0.52337 0.313405 0.759192 -0.523565 0.386661 -0.90601 -0.28 0.317403 
-0.722964 -0.258992 0.640505 0.894752 -0.306867 0.324426 -0.932992 -0.154828 0.32489 
0.945903 -0.0399548 0.321979 -0.949353 -0.0291268 0.312858 0.936607 0.207456 0.282363 
-0.93932 0.175932 0.294491 0.907279 0.361879 0.214218 0.885706 0.43605 0.159325 
-0.860851 0.41181 0.298911 -0.772463 0.553066 0.31212 -0.735524 0.404142 0.543758 
0.880833 0.449781 0.147751 -0.73251 0.602975 0.31599 -0.623392 0.707271 0.333391 
0.842755 0.537113 0.0356941 0.799915 0.59977 0.0202638 -0.596264 0.728339 0.337627 
-0.500678 0.793797 0.345264 -0.445358 0.663557 0.601123 0.7246 0.689028 0.0139507 
0.627991 0.77703 0.0430244 -0.376343 0.856914 0.352227 -0.348374 0.867715 0.354551 
-0.342993 0.849963 0.399898 -0.202954 0.894019 0.399424 -0.178046 0.801574 0.57077 
-0.0992529 0.896622 0.43153 -0.0898331 0.772168 0.629036 0.0196098 0.915135 0.402671 
-0.059241 0.770536 0.634638 0.187336 0.936529 0.296343 0.484567 0.858781 0.166407 
0.399061 0.892061 0.21208 0.334348 0.885608 0.32235 -0.161412 -0.669019 0.725507 
-0.0846987 -0.690957 0.717917 0.00217627 -0.726848 0.686795 0.124746 -0.727304 0.674884 
-0.350965 -0.591658 0.725785 -0.188342 -0.667901 0.720025 -0.239963 -0.647591 0.723218 
-0.157698 -0.645512 0.747292 -0.0890581 -0.606731 0.789902 -0.00555801 -0.619588 0.784908 
0.273024 -0.706601 0.652819 0.116423 -0.650028 0.750939 0.274748 -0.705933 0.652818 
0.434129 -0.621719 0.651918 -0.433696 -0.547737 0.715466 -0.524506 -0.460406 0.716183 
-0.325757 -0.511917 0.794873 -0.176437 -0.421504 0.889497 -0.10001 -0.366461 0.925043 
-0.069545 -0.298239 0.951954 -0.0228905 -0.276709 0.960681 0.0696154 -0.320375 0.94473 
0.193787 -0.39775 0.896795 0.503299 -0.571023 0.648555 0.385926 -0.510913 0.768133 
0.559747 -0.524554 0.641504 -0.582206 -0.368724 0.724624 -0.484924 -0.341625 0.805072 
-0.262114 -0.289587 0.920563 -0.112964 -0.287477 0.951102 -0.0221922 -0.271019 0.962318 
-0.00640184 -0.173997 0.984725 -0.0235864 -0.112457 0.993377 -0.003028 -0.165241 0.986249 
0.0835305 -0.237457 0.9678 0.255135 -0.32404 0.910991 0.602869 -0.465169 0.648202 
0.497655 -0.428955 0.753881 0.705749 -0.355379 0.612882 -0.668626 -0.248917 0.700699 
-0.69208 -0.213251 0.689601 -0.412925 -0.21128 0.88592 -0.246029 -0.178012 0.952776 
0.369249 -0.307597 0.876949 0.726656 -0.313927 0.611082 0.69667 -0.315469 0.644306 
-0.70853 -0.157773 0.687817 -0.671681 -0.158392 0.723711 -0.392757 -0.156953 0.90615 
0.794024 -0.0928837 0.600748 0.707394 -0.118649 0.69679 -0.766313 -0.0625985 0.63941 
-0.677935 -0.0753274 0.731252 -0.382935 -0.0845133 0.919901 0.862546 0.0923264 0.497484 
0.77724 0.0270785 0.628621 -0.772567 0.150027 0.616954 -0.726879 0.356334 0.587088 
-0.692125 0.135035 0.709034 -0.377514 0.0858085 0.92202 0.892329 0.258117 0.370304 
0.893572 0.301817 0.332319 0.864867 0.225517 0.448494 -0.707414 0.39854 0.583722 
-0.43265 0.306483 0.847869 0.889449 0.367346 0.271913 -0.565222 0.578631 0.587971 
-0.547648 0.593157 0.590123 -0.537405 0.571905 0.619775 -0.42701 0.639183 0.639616 
-0.281217 0.463269 0.840416 -0.145526 0.288877 0.946241 -0.133955 0.22162 0.965889 
0.832808 0.510034 0.215167 0.780323 0.585099 0.220806 0.723105 0.486333 0.490509 
-0.4121 0.644099 0.644445 -0.294191 0.678466 0.673153 -0.265481 0.55582 0.787771 
-0.159285 0.713084 0.682744 -0.150737 0.507352 0.848453 -0.089489 0.737466 0.669429 
-0.120848 0.504925 0.854661 -0.0608415 0.766633 0.639196 -0.108383 0.511853 0.852209 
0.26739 0.866562 0.421394 0.651983 0.716097 0.249244 0.521912 0.800439 0.294797 
0.434545 0.698325 0.568782 -0.0335327 0.7807 0.624006 0.11326 0.837485 0.534595 
0.0733241 0.824251 0.561456 0.0650106 0.814917 0.575921 -0.133323 -0.240474 0.961456 
-0.0106944 -0.261186 0.965229 0.0448416 -0.153767 0.987089 -0.0207232 -0.137502 0.990285 
-0.020336 -0.183923 0.98273 0.0654872 -0.237746 0.969117 0.170483 -0.287865 0.942374 
-0.196701 -0.191285 0.961623 -0.24911 -0.164909 0.954332 -0.150813 -0.203284 0.967435 
0.0149081 -0.236385 0.971545 0.0901793 -0.138422 0.986259 -0.0203183 -0.145569 0.989139 
-0.0642781 -0.233425 0.970248 0.0316577 -0.243479 0.969389 0.201934 -0.287292 0.936315 
0.154443 -0.280604 0.947316 0.3903 -0.225603 0.89262 -0.273849 -0.156882 0.948891 
-0.251648 -0.157289 0.954952 -0.167206 -0.0968363 0.981155 0.0464741 -0.0418546 0.998042 
0.0842353 -0.0195416 0.996254 -0.123198 -0.161913 0.979085 -0.101022 -0.221731 0.969861 
0.0394823 -0.228395 0.972768 0.162707 -0.224083 0.960892 0.430116 -0.194545 0.881563 
0.400672 -0.201925 0.893693 -0.327381 -0.0822646 0.941305 -0.185186 -0.0737688 0.979931 
-0.043679 0.0367823 0.998368 0.0946744 0.121868 0.988021 -0.0226749 -0.0292345 0.999315 
-0.224715 -0.0931583 0.969961 -0.126343 -0.0371361 0.991291 0.0166812 -0.0949992 0.995338 
0.169748 -0.12405 0.977649 0.542546 -0.0742015 0.836743 0.417576 -0.0988064 0.903254 
-0.312185 0.0809559 0.946566 -0.129491 0.079622 0.988379 0.027884 0.129796 0.991149 
-0.0180171 0.0997398 0.99485 -0.134304 -0.0774002 0.987913 -0.132534 -0.0441525 0.990195 
-0.109174 0.0232236 0.993751 -0.0457897 -0.0161282 0.998821 0.159337 -0.0347634 0.986612 
0.621756 0.0747512 0.779636 0.478306 0.0312878 0.877636 -0.192976 0.243127 0.950605 
-0.161237 0.26915 0.949506 -0.142669 0.234829 0.96151 -0.0514466 0.194085 0.979635 
-0.0160893 0.159889 0.987004 -0.13223 0.210493 0.968611 -0.11238 0.0747207 0.990852 
-0.173113 0.04316 0.983956 -0.118429 0.0557702 0.991395 -0.101377 0.0559381 0.993274 
-0.0432908 0.062159 0.997127 0.20082 0.132019 0.970692 0.661022 0.247685 0.708309 
0.626824 0.327634 0.706929 0.597621 0.231565 0.767611 -0.134357 0.222376 0.965659 
-0.138632 0.337793 0.930955 -0.146097 0.242648 0.95905 -0.113054 0.43942 0.891139 
-0.117403 0.253202 0.960263 -0.0923832 0.24151 0.965991 0.0283678 0.28771 0.957297 
0.526958 0.422248 0.737578 0.348852 0.555402 0.754872 0.298365 0.357706 0.884887 
-0.0556037 0.502102 0.863019 -0.0525239 0.504124 0.862033 -0.0528139 0.501928 0.863295 
0.105775 0.563634 0.819224 0.0952952 0.562169 0.821514 0.0940038 0.558649 0.824059 

