# vtk DataFile Version 4.2
vtk output
ASCII
DATASET POLYDATA
POINTS 554 float
35.5872 16.7603 -22.4984 -22.0887 -32.6762 -14.8566 -13.8493 -32.6762 -15.2941 
-5.60989 -32.6762 -14.582 -30.3281 -24.4368 -15.3636 -22.0887 -24.4368 -17.1758 
-13.8493 -24.4368 -18.5474 -5.60989 -24.4368 -18.1861 2.62952 -24.4368 -16.6774 
10.8689 -24.4368 -15.2874 -38.5675 -16.1973 -14.7389 -30.3281 -16.1973 -15.5141 
-22.0887 -16.1973 -17.2198 -13.8493 -16.1973 -19.6017 -5.60989 -16.1973 -19.7983 
2.62952 -16.1973 -18.4947 10.8689 -16.1973 -18.2528 19.1083 -16.1973 -17.1883 
27.3478 -16.1973 -15.0327 -46.8069 -7.95793 -14.7656 -38.5675 -7.95793 -16.2737 
-30.3281 -7.95793 -16.5952 -22.0887 -7.95793 -16.9442 -13.8493 -7.95793 -20.1466 
-5.60989 -7.95793 -19.296 2.62952 -7.95793 -21.0419 10.8689 -7.95793 -20.6746 
19.1083 -7.95793 -18.9572 27.3478 -7.95793 -17.982 35.5872 -7.95793 -17.0993 
43.8266 -7.95793 -15.5528 -46.8069 0.281478 -16.4709 -38.5675 0.281478 -17.5727 
-30.3281 0.281478 -17.575 -22.0887 0.281478 -18.1502 -13.8493 0.281478 -21.6337 
-5.60989 0.281478 -19.1127 2.62952 0.281478 -20.4972 10.8689 0.281478 -18.7763 
19.1083 0.281478 -19.2652 27.3478 0.281478 -20.3004 35.5872 0.281478 -20.3834 
43.8266 0.281478 -19.4422 52.066 0.281478 -17.3967 -55.0464 8.52089 -14.8049 
-46.8069 8.52089 -17.4053 -38.5675 8.52089 -18.3031 -30.3281 8.52089 -18.0953 
-22.0887 8.52089 -17.5517 -13.8493 8.52089 -17.6387 -5.60989 8.52089 -18.4692 
2.62952 8.52089 -22.1691 10.8689 8.52089 -18.88 19.1083 8.52089 -19.9622 
27.3478 8.52089 -21.5541 35.5872 15.6042 -22.4522 35.5872 8.52089 -22.1673 
43.8266 8.52089 -21.4886 52.066 8.52089 -19.6272 60.3054 8.52089 -15.866 
-55.0464 16.7603 -14.5734 -46.8069 16.7603 -17.5008 -38.5675 16.7603 -18.8314 
-30.3281 16.7603 -19.2286 -22.0887 16.7603 -18.9279 -13.8493 16.7603 -17.7357 
-5.60989 16.7603 -18.2339 2.62952 16.7603 -19.8728 10.8689 16.7603 -19.4057 
19.1083 16.7603 -20.3627 34.8073 16.7603 -22.4522 27.3478 16.7603 -22.0091 
36.0657 16.7603 -22.4522 35.5872 17.105 -22.4522 43.8266 16.7603 -21.6808 
52.066 16.7603 -19.9758 -46.8069 24.9997 -16.9381 -38.5675 24.9997 -19.7651 
-30.3281 24.9997 -19.9899 -22.0887 24.9997 -19.8385 -13.8493 24.9997 -20.2289 
-5.60989 24.9997 -19.8369 2.62952 24.9997 -20.1133 10.8689 24.9997 -19.9731 
19.1083 24.9997 -20.7529 27.3478 24.9997 -21.0312 35.5872 24.9997 -21.3341 
43.8266 24.9997 -21.091 52.066 24.9997 -17.1439 -46.8069 33.2391 -17.6589 
-38.5675 33.2391 -18.0962 -30.3281 33.2391 -19.7256 -22.0887 33.2391 -19.8297 
-13.8493 33.2391 -19.7217 -5.60989 33.2391 -19.5032 2.62952 33.2391 -19.3127 
10.8689 33.2391 -19.2069 19.1083 33.2391 -19.6126 27.3478 33.2391 -19.4018 
35.5872 33.2391 -18.83 43.8266 33.2391 -16.1344 -38.5675 41.4785 -14.4278 
-30.3281 41.4785 -16.6168 -22.0887 41.4785 -16.6194 -13.8493 41.4785 -15.7571 
-5.60989 41.4785 -14.5263 2.62952 41.4785 -14.3521 10.8689 41.4785 -14.8989 
19.1083 41.4785 -15.4048 27.3478 41.4785 -14.3109 -38.5675 -40.9156 -7.21537 
-30.3281 -40.9156 -8.58842 -22.0887 -33.7804 -14.2128 -22.0887 -40.9156 -9.0883 
-13.8493 -34.209 -14.2128 -13.8493 -40.9156 -7.58071 -5.60989 -33.144 -14.2128 
-38.5675 -32.6762 -10.7426 -29.9051 -32.6762 -14.2128 -30.3281 -32.443 -14.2128 
-30.3281 -32.6762 -14.1741 -3.20406 -32.6762 -14.2128 2.62952 -30.695 -14.2128 
2.62952 -32.6762 -13.0668 10.8689 -26.542 -14.2128 10.8689 -32.6762 -10.1229 
19.1083 -32.6762 -7.13236 -46.8069 -24.4368 -9.57104 -36.6657 -24.4368 -14.2128 
-38.5675 -21.2044 -14.2128 -38.5675 -24.4368 -13.8187 15.6934 -24.4368 -14.2128 
19.1083 -22.7968 -14.2128 19.1083 -24.4368 -13.3881 27.3478 -18.0357 -14.2128 
27.3478 -24.4368 -11.0652 35.5872 -24.4368 -9.25793 43.8266 -24.4368 -6.2949 
-55.0464 -16.1973 -7.2157 -41.257 -16.1973 -14.2128 -46.8069 -10.7221 -14.2128 
-46.8069 -16.1973 -12.8789 31.1288 -16.1973 -14.2128 35.5872 -14.1209 -14.2128 
35.5872 -16.1973 -13.241 43.8266 -10.6435 -14.2128 43.8266 -16.1973 -11.5463 
52.066 -16.1973 -8.21863 -48.1999 -7.95793 -14.2128 -55.0464 -7.95793 -11.0432 
48.4232 -7.95793 -14.2128 52.066 -6.10274 -14.2128 52.066 -7.95793 -13.1497 
60.3054 -7.95793 -9.59628 -54.1815 0.281478 -14.2128 -55.0464 3.24315 -14.2128 
-55.0464 0.281478 -13.898 57.541 0.281478 -14.2128 60.3054 5.10401 -14.2128 
60.3054 0.281478 -12.147 -55.9796 8.52089 -14.2128 62.2005 8.52089 -14.2128 
60.3054 15.0611 -14.2128 -55.5945 16.7603 -14.2128 -55.0464 19.68 -14.2128 
59.8203 16.7603 -14.2128 60.3054 16.7603 -13.7574 -53.7195 24.9997 -14.2128 
-55.0464 24.9997 -13.5395 57.2511 24.9997 -14.2128 52.066 29.0514 -14.2128 
60.3054 24.9997 -6.25387 -51.3886 33.2391 -14.2128 -55.0464 33.2391 -10.0841 
-46.8069 36.69 -14.2128 35.5872 38.4312 -14.2128 46.8843 33.2391 -14.2128 
43.8266 35.3217 -14.2128 -39.0462 41.4785 -14.2128 -46.8069 41.4785 -6.93684 
-38.5675 41.7381 -14.2128 -30.3281 44.23 -14.2128 -22.0887 43.6407 -14.2128 
-13.8493 42.6382 -14.2128 -5.60989 41.7348 -14.2128 2.62952 41.6016 -14.2128 
10.8689 42.09 -14.2128 19.1083 42.4383 -14.2128 27.6344 41.4785 -14.2128 
27.3478 41.5597 -14.2128 35.5872 41.4785 -6.61709 -38.5675 -42.001 -5.97343 
-30.3281 -44.4334 -5.97343 -30.3281 -49.155 1.60022 -22.0887 -43.9489 -5.97343 
-13.8493 -42.1791 -5.97343 -40.0782 -40.9156 -5.97343 -8.60131 -40.9156 -5.97343 
-5.60989 -40.196 -5.97343 -5.60989 -40.9156 -4.77602 2.62952 -38.4446 -5.97343 
2.62952 -40.9156 -1.60782 10.8689 -36.274 -5.97343 10.8689 -40.9156 1.02895 
19.1083 -33.853 -5.97343 -45.9238 -32.6762 -5.97343 -46.8069 -31.4959 -5.97343 
-46.8069 -32.6762 -4.6913 23.9096 -32.6762 -5.97343 27.3478 -31.6594 -5.97343 
27.3478 -32.6762 -5.08766 35.5872 -29.3416 -5.97343 35.5872 -32.6762 -2.71659 
43.8266 -24.8938 -5.97343 43.8266 -32.6762 2.12535 -52.2838 -24.4368 -5.97343 
-55.0464 -18.2906 -5.97343 44.7407 -24.4368 -5.97343 52.066 -19.9588 -5.97343 
52.066 -24.4368 -1.94027 -55.7688 -16.1973 -5.97343 57.024 -16.1973 -5.97343 
60.3054 -13.8754 -5.97343 60.3054 -16.1973 -2.93927 -60.1272 -7.95793 -5.97343 
65.1173 -7.95793 -5.97343 -62.9064 0.281478 -5.97343 67.0442 0.281478 -5.97343 
-63.2833 8.52089 -5.97343 68.326 8.52089 -5.97343 -63.0486 16.7603 -5.97343 
65.8063 16.7603 -5.97343 -61.0283 24.9997 -5.97343 52.066 32.9891 -5.97343 
60.3766 24.9997 -5.97343 60.3054 25.0823 -5.97343 60.3054 24.9997 -5.79424 
-57.2136 33.2391 -5.97343 -55.0464 35.8026 -5.97343 -55.0464 33.2391 2.02263 
51.6663 33.2391 -5.97343 43.8266 37.9678 -5.97343 -47.5858 41.4785 -5.97343 
-46.8069 41.9537 -5.97343 -46.8069 41.4785 -4.24384 -38.5675 45.2912 -5.97343 
-30.3281 46.7517 -5.97343 -22.0887 46.0401 -5.97343 -13.8493 44.678 -5.97343 
-5.60989 43.8287 -5.97343 2.62952 43.9032 -5.97343 2.62952 41.4785 1.33184 
10.8689 43.8917 -5.97343 10.8689 41.4785 0.004654 19.1083 44.0544 -5.97343 
19.1083 41.4785 -0.640079 27.3478 43.5244 -5.97343 27.3478 41.4785 -2.02406 
36.0624 41.4785 -5.97343 35.5872 41.669 -5.97343 35.5872 41.4785 -5.59539 
-30.3281 -49.3679 2.26599 -30.8763 -49.155 2.26599 -38.5675 -45.2485 2.26599 
-27.3759 -49.155 2.26599 -30.3281 -49.155 4.19623 -22.0887 -48.6568 2.26599 
-13.8493 -46.7975 2.26599 -13.8493 -49.155 10.4749 -5.60989 -44.6828 2.26599 
2.62952 -42.9442 2.26599 10.8689 -41.6896 2.26599 -43.9501 -40.9156 2.26599 
-46.8069 -37.4708 2.26599 13.6277 -40.9156 2.26599 19.1083 -39.4645 2.26599 
19.1083 -40.9156 5.32264 27.3478 -38.0472 2.26599 35.5872 -36.0718 2.26599 
43.8266 -32.7701 2.26599 -49.9654 -32.6762 2.26599 43.9733 -32.6762 2.26599 
52.066 -27.2287 2.26599 -53.668 -24.4368 2.26599 -55.0464 -20.3466 2.26599 
55.1628 -24.4368 2.26599 60.3054 -19.1235 2.26599 -56.4636 -16.1973 2.26599 
-55.0464 -16.1973 4.09474 -46.8069 -16.1973 10.2251 62.595 -16.1973 2.26599 
60.3054 -16.1973 7.47677 -58.8411 -7.95793 2.26599 -55.0464 -7.95793 6.45839 
66.6827 -7.95793 2.26599 -60.7418 0.281478 2.26599 -55.0464 0.281478 8.37835 
68.0873 0.281478 2.26599 -61.2862 8.52089 2.26599 -55.0464 8.52089 9.25076 
67.4133 8.52089 2.26599 60.3054 8.52089 10.375 -61.1576 16.7603 2.26599 
-55.0464 16.7603 9.72341 64.2447 16.7603 2.26599 60.3054 21.6132 2.26599 
60.3054 16.7603 6.74003 -59.6429 24.9997 2.26599 -55.0464 33.1334 2.26599 
-55.0464 24.9997 8.26827 43.8266 24.9997 10.4066 56.6741 24.9997 2.26599 
52.066 28.9168 2.26599 52.066 24.9997 6.26118 -54.9621 33.2391 2.26599 
-46.8069 39.6004 2.26599 -46.8069 33.2391 9.6575 2.62952 41.1128 2.26599 
10.8689 40.2795 2.26599 10.8689 33.2391 9.00313 19.1083 39.6201 2.26599 
19.1083 33.2391 8.34286 27.3478 38.741 2.26599 27.3478 33.2391 7.97676 
35.5872 36.9922 2.26599 35.5872 33.2391 6.36573 44.8436 33.2391 2.26599 
43.8266 33.9395 2.26599 43.8266 33.2391 2.94693 -40.9288 41.4785 2.26599 
-38.5675 42.2803 2.26599 -38.5675 41.4785 3.66897 -30.3281 43.4652 2.26599 
-30.3281 41.4785 5.1819 -22.0887 42.8856 2.26599 -22.0887 41.4785 4.28866 
-13.8493 42.3121 2.26599 -13.8493 41.4785 3.77737 -0.493835 41.4785 2.26599 
-5.60989 42.029 2.26599 -5.60989 41.4785 3.38279 -13.8493 -49.1638 10.5054 
-38.5675 -43.7966 10.5054 -30.3281 -47.9542 10.5054 -14.8723 -49.155 10.5054 
-22.0887 -49.0902 10.5054 -13.7887 -49.155 10.5054 -13.8493 -49.155 10.5272 
-5.60989 -47.8727 10.5054 2.62952 -46.7305 10.5054 10.8689 -45.3768 10.5054 
19.1083 -43.2406 10.5054 -41.4539 -40.9156 10.5054 -46.8069 -32.8132 10.5054 
-38.5675 -40.9156 13.8384 -30.3281 -40.9156 16.1661 26.4978 -40.9156 10.5054 
19.1083 -40.9156 17.7388 27.3478 -40.6201 10.5054 35.5872 -37.1845 10.5054 
43.8266 -33.1153 10.5054 -46.8846 -32.6762 10.5054 -46.8069 -32.6762 10.5928 
-38.5675 -32.6762 14.5419 -30.3281 -32.6762 18.4519 27.3478 -32.6762 18.1075 
35.5872 -32.6762 15.5982 44.4954 -32.6762 10.5054 43.8266 -32.6762 11.0946 
52.066 -26.1176 10.5054 -48.2178 -24.4368 10.5054 -46.8069 -17.6599 10.5054 
-46.8069 -24.4368 11.6231 -38.5675 -24.4368 15.001 -30.3281 -24.4368 18.3829 
43.8266 -24.4368 15.7726 53.5688 -24.4368 10.5054 52.066 -24.4368 11.8237 
-46.2501 -16.1973 10.5054 -46.8069 -13.5402 10.5054 -38.5675 -16.1973 14.4212 
[...]
POINT_DATA 554
SCALARS ImageScalars float
LOOKUP_TABLE default
0 0 0 0 0 0 0 0 0 
0 0 0 0 0 0 0 0 0 
0 0 0 0 0 0 0 0 0 
0 0 0 0 0 0 0 0 0 
0 0 0 0 0 0 0 0 0 
0 0 0 0 0 0 0 0 0 
0 0 0 0 0 0 0 0 0 
0 0 0 0 0 0 0 0 0 
0 0 0 0 0 0 0 0 0 
0 0 0 0 0 0 0 0 0 
0 0 0 0 0 0 0 0 0 
0 0 0 0 0 0 0 0 0 
0 0 0 0 0 0 0 0 0 
0 0 0 0 0 0 0 0 0 
0 0 0 0 0 0 0 0 0 
0 0 0 0 0 0 0 0 0 
0 0 0 0 0 0 0 0 0 
0 0 0 0 0 0 0 0 0 
0 0 0 0 0 0 0 0 0 
0 0 0 0 0 0 0 0 0 
0 0 0 0 0 0 0 0 0 
0 0 0 0 0 0 0 0 0 
0 0 0 0 0 0 0 0 0 
0 0 0 0 0 0 0 0 0 
0 0 0 0 0 0 0 0 0 
0 0 0 0 0 0 0 0 0 
0 0 0 0 0 0 0 0 0 
0 0 0 0 0 0 0 0 0 
0 0 0 0 0 0 0 0 0 
0 0 0 0 0 0 0 0 0 
0 0 0 0 0 0 0 0 0 
0 0 0 0 0 0 0 0 0 
0 0 0 0 0 0 0 0 0 
0 0 0 0 0 0 0 0 0 
0 0 0 0 0 0 0 0 0 
0 0 0 0 0 0 0 0 0 
0 0 0 0 0 0 0 0 0 
0 0 0 0 0 0 0 0 0 
0 0 0 0 0 0 0 0 0 
0 0 0 0 0 0 0 0 0 
0 0 0 0 0 0 0 0 0 
0 0 0 0 0 0 0 0 0 
0 0 0 0 0 0 0 0 0 
0 0 0 0 0 0 0 0 0 
0 0 0 0 0 0 0 0 0 
0 0 0 0 0 0 0 0 0 
0 0 0 0 0 0 0 0 0 
0 0 0 0 0 0 0 0 0 
0 0 0 0 0 0 0 0 0 
0 0 0 0 0 0 0 0 0 
0 0 0 0 0 0 0 0 0 
0 0 0 0 0 0 0 0 0 
0 0 0 0 0 0 0 0 0 
0 0 0 0 0 0 0 0 0 
0 0 0 0 0 0 0 0 0 
0 0 0 0 0 0 0 0 0 
0 0 0 0 0 0 0 0 0 
0 0 0 0 0 0 0 0 0 
0 0 0 0 0 0 0 0 0 
0 0 0 0 0 0 0 0 0 
0 0 0 0 0 0 0 0 0 
0 0 0 0 0 
NORMALS Normals float
-0.0185344 -0.0467972 0.998732 0.0656324 0.406727 0.911189 -0.0137387 0.504899 0.863069 
-0.108037 0.568386 0.815638 0.210385 0.0826827 0.974116 0.181848 0.129546 0.974756 
0.0622357 0.242782 0.968083 -0.111108 0.281611 0.953074 -0.162798 0.27376 0.94792 
-0.180827 0.390731 0.902569 0.139408 0.152402 0.978437 0.146303 0.0735222 0.986504 
0.248227 -0.0138691 0.968603 0.154388 0.0911492 0.983797 -0.0654574 0.0681944 0.995522 
-0.0923054 0.257067 0.961975 -0.076061 0.314562 0.946185 -0.183616 0.30868 0.933275 
-0.217993 0.367866 0.903965 0.276756 0.189752 0.942019 0.106086 0.167557 0.980138 
0.0400895 0.123954 0.991478 0.197885 0.0537834 0.978749 0.153486 0.114122 0.981539 
0.0519201 -0.0405055 0.997829 0.0841529 0.126582 0.98838 -0.12651 0.026609 0.991608 
-0.157332 0.117951 0.980477 -0.108199 0.306188 0.945802 -0.132725 0.401502 0.90619 
-0.20316 0.441829 0.873792 0.183291 0.150369 0.971491 0.0639092 0.123712 0.990258 
0.0332733 0.091065 0.995289 0.211874 0.0365608 0.976613 0.0711675 -0.125015 0.989599 
-0.0548588 -0.0464083 0.997415 -0.0294138 0.0701315 0.997104 -0.064717 -0.112198 0.991576 
0.0921807 0.0612378 0.993857 0.0647165 0.206225 0.976362 -0.0506266 0.289202 0.955928 
-0.175921 0.32029 0.930842 -0.353962 0.31669 0.88001 0.446403 0.0359559 0.894109 
0.179945 0.0613724 0.98176 0.0388889 0.0760741 0.996343 -0.0453769 0.0935015 0.994585 
-0.0287194 0.0491107 0.99838 0.0514234 -0.212822 0.975737 0.275268 -0.0524669 0.959935 
-0.0163858 -0.054613 0.998373 -0.125989 0.0401045 0.991221 0.161719 0.0652777 0.984675 
0.130814 0.101254 0.986223 -0.0163782 -0.022952 0.999602 -0.00293942 0.124894 0.992166 
-0.144155 0.133389 0.980524 -0.279477 0.16004 0.94672 -0.572949 0.0972859 0.813796 
0.472575 -0.0638765 0.878972 0.212302 -0.0264236 0.976847 0.0979928 0.0847246 0.991574 
0.00607386 0.119158 0.992857 -0.0824114 0.140253 0.98668 -0.0475598 0.143531 0.988502 
0.133577 0.0906327 0.986885 0.0597873 -0.114368 0.991638 0.0294608 0.0651774 0.997439 
0.159262 0.0476778 0.986084 -0.00464656 -0.0463999 0.998912 0.128691 -0.0380705 0.990954 
-0.0249407 -0.0448038 0.998684 -0.0166271 -0.0521932 0.998499 -0.137846 -0.0176142 0.990297 
-0.395461 -0.14534 0.906911 0.314063 -0.00431687 0.949392 0.182712 -0.033824 0.982584 
0.00362566 0.024778 0.999686 0.0116471 0.0545177 0.998445 -6.92946e-05 0.110264 0.993902 
-0.00408881 0.0655128 0.997843 0.00826018 -0.0345521 0.999369 0.0378585 -0.0128348 0.999201 
0.0665888 -0.0380473 0.997055 0.0327382 -0.156258 0.987174 0.00896061 -0.194506 0.98086 
-0.234947 -0.293666 0.926585 -0.448736 -0.422988 0.787221 0.369104 -0.319685 0.872676 
0.132199 -0.308234 0.94208 0.0905398 -0.180111 0.979471 2.12994e-05 -0.157226 0.987563 
-0.0201304 -0.187418 0.982074 -0.0265383 -0.245427 0.969052 -0.0187659 -0.290733 0.95662 
0.0159521 -0.271377 0.962341 0.0132866 -0.293982 0.955719 -0.0393406 -0.358514 0.932695 
-0.187447 -0.509382 0.839877 -0.381201 -0.634104 0.672754 0.341921 -0.607061 0.717333 
0.132623 -0.623654 0.770368 -0.0390502 -0.671564 0.739916 -0.108483 -0.783398 0.61198 
-0.0638019 -0.827541 0.557768 0.0215462 -0.811695 0.583684 0.0542136 -0.791169 0.60919 
-0.0291759 -0.784927 0.6189 -0.190487 -0.826005 0.5305 0.395372 0.658693 0.64016 
0.092506 0.612191 0.78528 0.0560269 0.441246 0.895635 -0.0355003 0.692854 0.720204 
-0.0313378 0.556234 0.830435 -0.158782 0.76909 0.619103 -0.112118 0.584703 0.803463 
0.36993 0.328327 0.869111 0.222189 0.346919 0.911197 0.230178 0.336187 0.913234 
0.230612 0.343467 0.910411 -0.135459 0.5767 0.805648 -0.193935 0.511534 0.837092 
-0.200726 0.609527 0.766932 -0.209671 0.443171 0.871572 -0.257371 0.663196 0.702803 
-0.219723 0.678674 0.700803 0.503745 0.335796 0.795915 0.28408 0.189382 0.939911 
0.246019 0.193588 0.949736 0.309977 0.221564 0.924567 -0.20636 0.444823 0.871521 
-0.212606 0.450011 0.867345 -0.222386 0.486963 0.844637 -0.221471 0.392606 0.892643 
-0.21537 0.493946 0.842397 -0.243945 0.499026 0.831543 -0.306246 0.585085 0.750925 
0.805528 0.418886 0.419118 0.17909 0.203834 0.962485 0.275157 0.235348 0.932148 
0.310532 0.341894 0.886949 -0.207366 0.393981 0.895421 -0.179156 0.420024 0.889653 
-0.190514 0.421086 0.886787 -0.216667 0.448391 0.86718 -0.24903 0.469628 0.847014 
-0.381641 0.521992 0.762807 0.313668 0.19434 0.929432 0.605103 0.285888 0.743047 
-0.261404 0.465218 0.845719 -0.322532 0.447934 0.833863 -0.306701 0.479726 0.822069 
-0.533334 0.412882 0.738298 0.393581 0.202465 0.896717 0.429124 0.146958 0.89121 
0.43568 0.212359 0.874692 -0.510535 0.312508 0.801057 -0.590381 0.184208 0.785823 
-0.607996 0.291824 0.738363 0.482246 0.03223 0.875443 -0.625707 0.0803015 0.775914 
-0.664707 -0.121805 0.737108 0.491718 -0.0679097 0.868103 0.49712 -0.0911486 0.862881 
-0.663924 -0.171358 0.727902 -0.692655 -0.188947 0.696081 0.506551 -0.125142 0.85308 
0.575954 -0.160444 0.801583 -0.622574 -0.476748 0.620574 -0.521598 -0.609636 0.596891 
-0.768632 -0.63861 -0.0371672 0.552612 -0.388092 0.737566 0.752929 -0.502633 0.424804 
0.41906 -0.558185 0.716114 -0.297953 -0.754672 0.584545 -0.470455 -0.693473 0.54568 
-0.411224 -0.731567 0.543788 0.350958 -0.616189 0.705081 0.475594 -0.866331 0.152577 
0.344096 -0.619212 0.705815 0.0922052 -0.783684 0.614279 -0.0935783 -0.810245 0.578573 
-0.114782 -0.854144 0.507211 -0.0611703 -0.841268 0.537146 0.0221298 -0.817753 0.575143 
0.0505454 -0.826797 0.560224 -0.0341376 -0.844142 0.535031 -0.194484 -0.827932 0.526027 
-0.19002 -0.830157 0.524149 -0.321511 -0.945309 -0.0549589 0.407704 0.707653 0.577065 
0.116535 0.709356 0.695151 0.183074 0.9701 0.159341 -0.107858 0.776822 0.620414 
-0.176091 0.79231 0.584156 0.46061 0.671771 0.580139 -0.185032 0.80433 0.564639 
-0.188917 0.811516 0.552948 -0.198175 0.827128 0.525914 -0.192348 0.820642 0.538098 
-0.179482 0.862624 0.472934 -0.214734 0.781725 0.585488 -0.190737 0.839028 0.50956 
-0.212895 0.706124 0.675326 0.659913 0.489308 0.570169 0.665768 0.491588 0.561332 
0.726354 0.513072 0.457348 -0.187614 0.681696 0.707172 -0.173245 0.659026 0.731895 
-0.172533 0.69625 0.696756 -0.242783 0.63446 0.733837 -0.274752 0.769662 0.576309 
-0.311855 0.591885 0.743249 -0.478657 0.815414 0.325557 0.745413 0.420815 0.516985 
0.832619 0.429392 0.349811 -0.323637 0.590508 0.739297 -0.421619 0.568422 0.706494 
-0.545921 0.693226 0.47054 0.842739 0.432851 0.320049 -0.505332 0.573789 0.64452 
-0.57497 0.553255 0.602759 -0.672778 0.623233 0.398686 0.889987 0.374665 0.259902 
-0.683088 0.468498 0.560268 0.97756 0.172394 0.121065 -0.861712 0.170755 0.477802 
0.994368 0.00630194 0.105796 -0.975103 -0.0969785 0.199421 0.983017 -0.13482 0.124501 
-0.910618 -0.38357 0.153782 0.935802 -0.306989 0.173297 -0.569005 -0.821281 -0.0416078 
-0.766409 -0.640073 -0.0540761 -0.76542 -0.641277 -0.0538124 -0.76496 -0.641153 -0.0613154 
0.809741 -0.576997 0.106743 0.737723 -0.663606 0.124064 0.759207 -0.503841 -0.412006 
-0.561645 -0.826148 -0.0451058 -0.459573 -0.886907 -0.046773 0.488695 -0.866488 0.101861 
0.471729 -0.877094 0.090428 0.445427 -0.89526 -0.0101918 0.257915 -0.966007 0.0175986 
0.0470384 -0.996389 -0.0706821 -0.123139 -0.991805 -0.0340652 -0.133644 -0.990814 -0.0206523 
-0.0469216 -0.99884 0.0108293 0.00384561 -0.999657 -0.0259182 -0.0798875 -0.924723 -0.372163 
0.00933286 -0.996832 -0.0789887 -0.0484517 -0.900807 -0.431509 -0.0222247 -0.992537 -0.119905 
-0.0623578 -0.893272 -0.44517 -0.141683 -0.982269 -0.122774 -0.152421 -0.926877 -0.343027 
-0.326167 -0.940161 -0.0985485 -0.316927 -0.943011 -0.101423 -0.313599 -0.941581 -0.122808 
0.182528 0.975884 0.119725 0.203528 0.971609 0.12063 0.507128 0.856434 0.0966574 
0.065127 0.984007 0.165797 0.211855 0.977241 0.0108526 -0.15073 0.957739 0.244984 
-0.221232 0.902536 0.369439 -0.0690952 0.996059 -0.0556051 -0.221264 0.893935 0.389772 
-0.164565 0.883167 0.439243 -0.18672 0.847269 0.497263 0.695755 0.718052 0.0180649 
0.807272 0.590175 0.00235605 -0.198099 0.849983 0.488146 -0.196797 0.860151 0.470543 
-0.24528 0.917007 0.314541 -0.193639 0.874277 0.445133 -0.295725 0.884036 0.361977 
-0.479383 0.817959 0.318017 0.880257 0.473053 -0.0369949 -0.481594 0.816942 0.317289 
-0.603662 0.765226 0.223653 0.911338 0.349256 -0.217905 0.897673 0.339141 -0.281366 
-0.649697 0.736968 0.186473 -0.759127 0.648752 0.0533658 0.892704 0.31792 -0.319384 
0.848659 0.28942 -0.442735 0.499019 -0.032821 -0.865969 -0.827642 0.561153 0.0107796 
-0.756962 0.501954 -0.41839 0.871205 0.255928 -0.41893 0.698141 0.223917 -0.680045 
-0.938201 0.324413 -0.120565 0.894207 0.151821 -0.421122 0.555874 0.145567 -0.818422 
-0.972099 0.0397157 -0.231185 0.91583 0.0245088 -0.400818 0.540334 0.0674421 -0.838744 
-0.936414 -0.227561 -0.267106 -0.471144 -0.331676 -0.817322 0.885949 -0.0972673 -0.453468 
0.639596 -0.0363654 -0.767851 -0.796987 -0.463225 -0.3876 -0.673365 -0.599951 -0.432017 
-0.59561 -0.450829 -0.664832 0.870923 -0.340027 -0.354788 0.755729 -0.497077 -0.426366 
0.641945 -0.310459 -0.701086 -0.285747 -0.507269 -0.813036 -0.595825 -0.644179 -0.479611 
-0.465724 -0.702878 -0.537647 -0.427375 -0.595183 -0.68052 0.752937 -0.500759 -0.426996 
0.334428 -0.830379 -0.445678 0.411932 -0.55373 -0.723668 -0.093763 -0.900792 -0.424006 
-0.0762703 -0.815261 -0.574049 -0.136981 -0.571015 -0.809431 -0.0754544 -0.778552 -0.623028 
-0.0490613 -0.605518 -0.794318 -0.132595 -0.792317 -0.595527 -0.0936629 -0.617182 -0.781226 
-0.22006 -0.784081 -0.580336 -0.226629 -0.665116 -0.711519 -0.415552 -0.704515 -0.575304 
-0.406901 -0.708396 -0.576721 -0.403204 -0.688795 -0.602485 0.235836 -0.871849 -0.429255 
0.214185 -0.87705 -0.43001 0.212313 -0.856166 -0.471067 0.0264675 -0.874899 -0.483583 
0.00931694 -0.821284 -0.570444 -0.0669478 -0.866859 -0.494037 -0.0513757 -0.833219 -0.550552 
-0.0457038 -0.916772 -0.396788 -0.0295741 -0.892063 -0.450942 -0.080722 -0.918004 -0.388269 
-0.0651137 -0.937692 -0.341313 -0.0635629 -0.920945 -0.384473 -0.0684666 0.996013 -0.0571852 
0.574643 0.678846 -0.457114 0.300586 0.85972 -0.412952 -0.0534577 0.995824 -0.0740001 
0.0527367 0.980039 -0.191685 -0.0689582 0.996039 -0.0561303 -0.0682038 0.995949 -0.0586027 
-0.143512 0.98725 0.0688613 -0.152882 0.981164 0.118085 -0.197694 0.977704 0.0708033 
-0.283712 0.957374 0.0542452 0.699321 0.547818 -0.459179 0.715786 0.346504 -0.606288 
0.532809 0.480493 -0.696593 0.344666 0.427721 -0.83562 -0.335974 0.940332 -0.0538228 
-0.356109 0.745026 -0.564024 -0.345501 0.935134 -0.0784477 -0.43991 0.865421 -0.239845 
-0.531892 0.784189 -0.319592 0.715137 0.343262 -0.608892 0.713029 0.340914 -0.612672 
0.445717 0.0617544 -0.893041 0.377592 0.11356 -0.918982 -0.317459 0.353808 -0.879795 
-0.377882 0.59323 -0.710832 -0.543291 0.773938 -0.325353 -0.533319 0.76058 -0.370256 
-0.653487 0.588183 -0.476441 0.635981 0.0227607 -0.771369 0.507809 -0.034602 -0.860775 
0.568408 -0.0155927 -0.822599 0.413285 -0.00437519 -0.910591 0.349343 -0.0636831 -0.934828 
-0.414852 0.282034 -0.865075 -0.683386 0.553249 -0.47634 -0.614798 0.526602 -0.587124 
0.48276 -0.0395676 -0.874858 0.463323 0.0196259 -0.885972 0.393598 -0.0443837 -0.918211 
0.288737 -0.0998451 -0.952188 -0.0736096 -0.181138 -0.980699 -0.089502 -0.0809754 -0.992689 
-0.202033 0.0981624 -0.974447 -0.654544 0.391129 -0.646986 -0.460801 0.288386 -0.839342 
-0.666885 0.339633 -0.66326 0.424559 0.141855 -0.894219 0.399929 0.13222 -0.906959 
0.303868 0.0609978 -0.95076 0.270786 0.049609 -0.96136 -0.313369 -0.0702466 -0.94703 
-0.0392078 -0.09551 -0.994656 -0.00458429 -0.0559136 -0.998425 -0.0247471 -0.0200874 -0.999492 
-0.261899 0.044734 -0.964058 -0.70882 0.196569 -0.677447 -0.588033 0.178819 -0.788823 
0.414194 0.137319 -0.89977 0.371194 0.149983 -0.916362 0.324231 0.201597 -0.924247 
0.235368 0.223331 -0.945899 0.0753628 -0.177904 -0.981158 -0.255282 0.0296771 -0.966411 
-0.0599277 -0.00470164 -0.998192 -0.0154764 -0.0716831 -0.997307 -0.0892244 -0.107363 -0.990208 
-0.261205 -0.170843 -0.950045 -0.639599 -0.0826237 -0.764256 -0.470518 -0.320119 -0.822275 
-0.518647 -0.0945068 -0.849749 0.475367 0.0789465 -0.876238 0.470313 0.116115 -0.874827 
0.330509 0.185942 -0.925305 -0.0343849 -0.0477105 -0.998269 -0.00687258 -0.222196 -0.974978 
-0.0579229 -0.0134028 -0.998231 -0.141782 -0.00245414 -0.989895 -0.105917 -0.104211 -0.988899 
-0.145379 -0.157545 -0.976752 -0.459103 -0.327485 -0.825819 -0.248715 -0.22188 -0.94282 
0.597409 -0.0269163 -0.801485 0.478256 -0.0183623 -0.878029 -0.0531256 -0.123508 -0.990921 
-0.112964 -0.222301 -0.968412 0.00381278 -0.284931 -0.95854 -0.00842785 -0.248527 -0.968588 
-0.153642 -0.20958 -0.965645 -0.165651 -0.241926 -0.95605 -0.28342 -0.501996 -0.817113 
-0.211525 -0.296359 -0.931358 -0.400398 -0.378135 -0.834683 -0.355528 -0.426894 -0.831482 
-0.343474 -0.370578 -0.862958 0.538872 -0.276625 -0.795673 0.418177 -0.492246 -0.763428 
0.457403 -0.244213 -0.855068 0.21752 -0.321211 -0.921688 0.00965748 -0.329017 -0.944274 
-0.0893288 -0.355263 -0.930488 -0.0443428 -0.306024 -0.95099 -0.0772879 -0.304288 -0.949439 
-0.183662 -0.324677 -0.927822 -0.131479 -0.51612 -0.846365 -0.0844984 -0.436886 -0.895539 
-0.0322279 -0.558854 -0.82864 0.00108261 -0.51467 -0.857388 -0.084869 -0.534474 -0.840913 
-0.0977998 -0.46446 -0.880177 -0.278869 -0.503595 -0.817694 -0.174418 -0.49138 -0.853302 
-0.163316 -0.443642 -0.881198 0.340684 -0.550213 -0.762365 0.175036 -0.636711 -0.750973 
0.178522 -0.556384 -0.811521 0.0176285 -0.691191 -0.722457 0.0404677 -0.62804 -0.777128 
-0.00579457 -0.67694 -0.736016 -0.0340287 -0.581598 -0.812764 0.0023097 -0.650964 -0.759105 
-0.01038 -0.545571 -0.838 -0.0705483 -0.669583 -0.739379 -0.0696635 -0.538216 -0.839923 
-0.196051 -0.555416 -0.808132 -0.223069 -0.588704 -0.77696 -0.226394 -0.548246 -0.805091 
0.241635 0.480362 -0.843128 0.0979952 0.636339 -0.76516 0.0151305 0.767042 -0.641419 
-0.140769 0.788618 -0.598553 -0.248787 0.734785 -0.631027 0.287123 0.354902 -0.889722 
0.261237 0.342391 -0.90251 0.144697 0.441349 -0.885592 0.0292301 0.430862 -0.901944 
-0.0859546 0.508712 -0.856635 -0.333969 0.682688 -0.649925 -0.231111 0.627945 -0.74315 
-0.351753 0.634234 -0.688489 0.364253 0.105482 -0.925307 0.245342 0.0568003 -0.967771 
0.116749 0.0380262 -0.992433 0.0547588 0.0321269 -0.997983 0.000745073 0.0406917 -0.999171 
-0.149571 0.0823972 -0.985312 -0.302083 0.295622 -0.906286 -0.278878 0.115915 -0.953305 
-0.25914 0.253547 -0.931966 -0.269822 0.126251 -0.954598 0.335093 -0.0675692 -0.939759 
0.229043 -0.0905542 -0.969195 0.103632 -0.0688535 -0.99223 0.0284434 -0.10805 -0.993739 
-0.0117261 -0.153268 -0.988115 -0.114545 -0.156949 -0.980942 -0.132307 -0.119393 -0.983992 
-0.0781818 -0.15978 -0.984052 -0.122841 0.0136924 -0.992332 -0.27437 0.101412 -0.956262 
-0.219919 0.045581 -0.974453 -0.260627 0.0884813 -0.961377 0.260098 -0.107398 -0.959591 
0.24265 -0.108974 -0.963974 0.101412 -0.030694 -0.994371 -0.0318114 -0.0179338 -0.999333 
-0.0488027 -0.0748888 -0.995997 -0.0928255 -0.000902601 -0.995682 -0.0932762 -0.175833 -0.979991 
-0.223918 -0.117424 -0.967508 -0.134431 -0.153811 -0.978913 0.298056 0.0100436 -0.954496 
0.302891 0.0021256 -0.953023 0.189737 -0.11842 -0.974667 -0.0126128 -0.0899454 -0.995867 
0.071274 -0.174892 -0.982004 0.00142847 -0.116202 -0.993225 -0.306644 -0.059698 -0.94995 
-0.155352 0.0614355 -0.985947 0.191095 0.187791 -0.96344 0.21387 0.204047 -0.955314 
0.0552699 0.0728417 -0.995811 -0.0317914 -0.0595191 -0.997721 -0.00328753 -0.188295 -0.982107 
0.0583863 -0.177524 -0.982383 -0.0405493 -0.171298 -0.984384 0.0693088 -0.183585 -0.980557 
-0.0201917 -0.0992238 -0.99486 -0.216946 -0.0347737 -0.975564 -0.0112299 -0.230993 -0.97289 
-0.0193276 -0.283635 -0.958738 0.267952 0.166062 -0.949013 0.324743 0.0251136 -0.945469 
0.126721 0.109835 -0.985839 -0.036311 -0.0462179 -0.998271 -0.102259 0.00300827 -0.994753 
-0.0317924 -0.0480809 -0.998337 0.019792 -0.0567409 -0.998193 -0.0665672 -0.0894754 -0.993762 
-0.0883324 -0.0661755 -0.99389 -0.0854563 -0.045998 -0.99528 0.333955 -0.0431865 -0.941599 
0.305111 -0.0896121 -0.948091 0.321809 -0.0444161 -0.945762 0.01897 -0.264896 -0.96409 
0.0463446 -0.126231 -0.990918 -0.0629127 -0.129844 -0.989537 -0.101078 -0.246649 -0.963819 
-0.109275 -0.159526 -0.981127 -0.0425359 -0.160691 -0.986088 -0.0456394 -0.181893 -0.982259 
-0.0399162 -0.182833 -0.982333 -0.0372566 -0.17771 -0.983377 
