# vtk DataFile Version 4.2
vtk output
ASCII
DATASET POLYDATA
POINTS 518 float
1.5655 -27.8717 -13.877 8.15239 -27.8717 -14.6523 14.7393 -27.8717 -14.6344 
21.3262 -27.8717 -14.006 -11.6083 -21.2848 -13.5693 -5.0214 -21.2848 -14.8727 
1.5655 -21.2848 -16.3282 8.15239 -21.2848 -17.0353 14.7393 -21.2848 -17.693 
21.3262 -21.2848 -17.5989 27.9131 -21.2848 -17.233 34.5 -21.2848 -16.0423 
-31.369 -14.6979 -14.7615 -24.7821 -14.6979 -14.882 -18.1952 -14.6979 -14.3861 
-11.6083 -14.6979 -14.434 -5.0214 -14.6979 -16.3532 1.5655 -14.6979 -17.6025 
8.15239 -14.6979 -17.7995 14.7393 -14.6979 -18.2946 21.3262 -14.6979 -18.6684 
27.9131 -14.6979 -18.8535 34.5 -14.6979 -18.0837 41.0869 -14.6979 -16.3058 
-37.9559 -8.11101 -14.2943 -31.369 -8.11101 -15.3227 -24.7821 -8.11101 -15.3814 
-18.1952 -8.11101 -14.5634 -11.6083 -8.11101 -14.5938 -5.0214 -8.11101 -17.8713 
1.5655 -8.11101 -18.1318 8.15239 -8.11101 -18.9214 14.7393 -8.11101 -19.0086 
21.3262 -8.11101 -19.1065 27.9131 -8.11101 -19.147 34.5 -8.11101 -18.7825 
41.0869 -8.11101 -17.4036 -37.9559 -1.52412 -14.5053 -31.369 -1.52412 -15.5596 
-24.7821 -1.52412 -15.5754 -18.1952 -1.52412 -15.084 -11.6083 -1.52412 -15.9739 
-5.0214 -1.52412 -17.8514 1.5655 -1.52412 -17.0149 8.15239 -1.52412 -20.095 
14.7393 -1.52412 -18.8615 21.3262 -1.52412 -18.1071 27.9131 -1.52412 -18.3022 
34.5 -1.52412 -17.9414 41.0869 -1.52412 -16.3295 -31.369 5.06278 -14.5399 
-24.7821 5.06278 -14.8223 -18.1952 5.06278 -14.2248 -11.6083 5.06278 -15.2595 
-5.0214 5.06278 -16.9979 1.5655 5.06278 -17.0484 8.15239 5.06278 -18.8552 
14.7393 5.06278 -17.1979 21.3262 5.06278 -16.9985 27.9131 5.06278 -17.0897 
34.5 5.06278 -16.4957 41.0869 5.06278 -14.4608 -11.6083 11.6497 -14.1193 
-5.0214 11.6497 -15.3358 1.5655 11.6497 -17.0645 8.15239 11.6497 -18.3565 
14.7393 11.6497 -17.4052 21.3262 11.6497 -16.9327 27.9131 11.6497 -16.7042 
34.5 11.6497 -15.0604 -11.6083 18.2366 -13.8772 -5.0214 18.2366 -14.8073 
1.5655 18.2366 -16.3757 8.15239 18.2366 -17.7821 14.7393 18.2366 -17.6562 
21.3262 18.2366 -16.756 27.9131 18.2366 -15.0055 -5.0214 24.8235 -13.881 
1.5655 24.8235 -14.9197 8.15239 24.8235 -16.0527 14.7393 24.8235 -16.1307 
21.3262 24.8235 -14.723 1.5655 -28.3896 -13.5093 8.15239 -29.4185 -13.5093 
14.7393 -29.1336 -13.5093 21.3262 -28.3918 -13.5093 -24.7821 -27.8717 -8.6353 
-18.1952 -27.8717 -9.75852 -11.6083 -21.4544 -13.5093 -11.6083 -27.8717 -10.5462 
0.257001 -27.8717 -13.5093 -5.0214 -24.5168 -13.5093 -5.0214 -27.8717 -11.8008 
23.4506 -27.8717 -13.5093 27.9131 -26.5013 -13.5093 27.9131 -27.8717 -11.2302 
34.5 -24.222 -13.5093 -37.9559 -21.2848 -9.39763 -31.369 -17.9793 -13.5093 
-31.369 -21.2848 -11.9301 -24.7821 -21.1655 -13.5093 -24.7821 -21.2848 -13.4799 
-13.2682 -21.2848 -13.5093 -18.1952 -20.2123 -13.5093 -18.1952 -21.2848 -13.3376 
40.3726 -21.2848 -13.5093 41.0869 -20.6658 -13.5093 41.0869 -21.2848 -12.9415 
-44.5428 -14.6979 -8.61186 -35.7145 -14.6979 -13.5093 -37.9559 -11.4953 -13.5093 
-37.9559 -14.6979 -12.7628 44.7663 -14.6979 -13.5093 47.6738 -14.6979 -10.0026 
-39.9522 -8.11101 -13.5093 -44.5428 -8.11101 -11.4494 47.1539 -8.11101 -13.5093 
47.6738 -8.11101 -12.9345 -40.5647 -1.52412 -13.5093 -44.5428 -1.52412 -11.8539 
-37.9559 3.45497 -13.5093 45.4368 -1.52412 -13.5093 47.6738 -1.52412 -11.2282 
-44.5428 5.06278 -9.87799 -36.4568 5.06278 -13.5093 -37.9559 5.06278 -13.2052 
-31.369 9.07257 -13.5093 -24.7821 10.5058 -13.5093 -18.1952 11.4942 -13.5093 
42.6832 5.06278 -13.5093 41.0869 7.88446 -13.5093 47.6738 5.06278 -7.81837 
-37.9559 11.6497 -10.6807 -31.369 11.6497 -12.7758 -24.7821 11.6497 -13.2207 
-18.0107 11.6497 -13.5093 -18.1952 11.6497 -13.492 38.4665 11.6497 -13.5093 
34.5 15.2598 -13.5093 41.0869 11.6497 -11.8174 -31.369 18.2366 -9.17881 
-24.7821 18.2366 -11.364 -13.3881 18.2366 -13.5093 -18.1952 18.2366 -12.5189 
-11.6083 19.892 -13.5093 31.2642 18.2366 -13.5093 27.9131 21.9344 -13.5093 
34.5 18.2366 -11.7303 -18.1952 24.8235 -9.99555 -6.75826 24.8235 -13.5093 
-11.6083 24.8235 -12.3466 -5.0214 25.6608 -13.5093 1.5655 27.8227 -13.5093 
8.15239 29.2307 -13.5093 14.7393 28.6827 -13.5093 24.6128 24.8235 -13.5093 
21.3262 26.4907 -13.5093 27.9131 24.8235 -11.6698 -11.6083 31.4104 -7.84767 
-5.0214 31.4104 -9.99892 1.5655 31.4104 -11.2794 8.15239 31.4104 -11.6178 
14.7393 31.4104 -10.4523 -24.7821 -29.0205 -6.92239 -18.1952 -30.109 -6.92239 
-11.6083 -30.9141 -6.92239 -5.0214 -32.7896 -6.92239 1.5655 -33.9914 -6.92239 
1.5655 -34.4586 -1.84239 8.15239 -34.0252 -6.92239 14.7393 -32.8084 -6.92239 
21.3262 -31.1937 -6.92239 27.9131 -29.5759 -6.92239 -37.9559 -24.0541 -6.92239 
-29.1466 -27.8717 -6.92239 -31.369 -27.1178 -6.92239 -31.369 -27.8717 -4.5065 
33.695 -27.8717 -6.92239 34.5 -27.6128 -6.92239 41.0869 -23.9063 -6.92239 
-40.9901 -21.2848 -6.92239 -44.5428 -17.1135 -6.92239 44.1648 -21.2848 -6.92239 
47.6738 -17.0453 -6.92239 -46.1223 -14.6979 -6.92239 49.2554 -14.6979 -6.92239 
-48.7493 -8.11101 -6.92239 50.693 -8.11101 -6.92239 -49.3906 -1.52412 -6.92239 
-51.1297 -1.52412 -2.32267 50.1249 -1.52412 -6.92239 -47.4561 5.06278 -6.92239 
-44.5428 9.97132 -6.92239 48.1228 5.06278 -6.92239 47.6738 5.88513 -6.92239 
-43.078 11.6497 -6.92239 -44.5428 11.6497 -4.9539 -37.9559 16.3025 -6.92239 
44.5652 11.6497 -6.92239 41.0869 16.2713 -6.92239 -35.1769 18.2366 -6.92239 
-37.9559 18.2366 -4.18309 -31.369 20.5498 -6.92239 -24.7821 24.5696 -6.92239 
39.3266 18.2366 -6.92239 34.5 23.2058 -6.92239 -24.3736 24.8235 -6.92239 
-24.7821 24.8235 -6.57843 -18.1952 28.3578 -6.92239 21.3262 31.3424 -6.92239 
32.5475 24.8235 -6.92239 27.9131 28.1281 -6.92239 -13.1747 31.4104 -6.92239 
-18.1952 31.4104 -0.610555 -11.6083 32.1634 -6.92239 -5.0214 34.0666 -6.92239 
1.5655 34.8181 -6.92239 8.15239 34.5413 -6.92239 21.1335 31.4104 -6.92239 
14.7393 33.5027 -6.92239 21.3262 31.4104 -6.56975 1.5655 -34.5742 -0.335497 
-31.369 -28.8855 -0.335497 -24.7821 -30.159 -0.335497 -18.1952 -30.6844 -0.335497 
-11.6083 -31.7949 -0.335497 0.554373 -34.4586 -0.335497 -5.0214 -33.7225 -0.335497 
3.45098 -34.4586 -0.335497 1.5655 -34.4586 -0.0312423 8.15239 -34.117 -0.335497 
14.7393 -32.1478 -0.335497 21.3262 -30.1893 -0.335497 27.9131 -28.5799 -0.335497 
-33.8611 -27.8717 -0.335497 -37.9559 -26.0177 -0.335497 -31.369 -27.8717 2.54901 
-24.7821 -27.8717 5.51891 21.3262 -27.8717 4.10512 30.4419 -27.8717 -0.335497 
27.9131 -27.8717 0.889344 34.5 -26.3751 -0.335497 41.0869 -21.8606 -0.335497 
-44.0959 -21.2848 -0.335497 -44.5428 -20.7969 -0.335497 34.5 -21.2848 5.65463 
41.773 -21.2848 -0.335497 41.0869 -21.2848 0.583967 47.6738 -15.7541 -0.335497 
-48.5832 -14.6979 -0.335497 41.0869 -14.6979 6.08298 48.4081 -14.6979 -0.335497 
47.6738 -14.6979 0.83815 -50.9912 -8.11101 -0.335497 -51.1297 -6.96651 -0.335497 
49.1128 -8.11101 -0.335497 47.6738 -8.11101 2.35983 -51.7882 -1.52412 -0.335497 
-51.1297 1.39368 -0.335497 -51.1297 -1.52412 2.82768 49.4237 -1.52412 -0.335497 
47.6738 -1.52412 2.5541 -50.262 5.06278 -0.335497 48.3673 5.06278 -0.335497 
47.6738 6.47904 -0.335497 47.6738 5.06278 1.0397 -46.9435 11.6497 -0.335497 
-44.5428 14.817 -0.335497 44.8801 11.6497 -0.335497 41.0869 17.1343 -0.335497 
-40.8956 18.2366 -0.335497 -37.9559 20.4624 -0.335497 -31.369 24.477 -0.335497 
40.2234 18.2366 -0.335497 34.5 24.3436 -0.335497 -30.7272 24.8235 -0.335497 
-31.369 24.8235 5.92684 -24.7821 28.0099 -0.335497 33.9677 24.8235 -0.335497 
27.9131 29.3293 -0.335497 -18.3833 31.4104 -0.335497 -18.1952 31.5078 -0.335497 
-11.6083 34.3182 -0.335497 -5.0214 36.1862 -0.335497 1.5655 36.6655 -0.335497 
8.15239 36.1216 -0.335497 14.7393 34.7134 -0.335497 23.8307 31.4104 -0.335497 
21.3262 32.5628 -0.335497 -18.1952 -28.4357 6.2514 -11.6083 -28.8287 6.2514 
-5.0214 -30.522 6.2514 1.5655 -31.4479 6.2514 8.15239 -30.3644 6.2514 
14.7393 -28.5318 6.2514 -37.9559 -24.0596 6.2514 -31.369 -26.5261 6.2514 
-22.5354 -27.8717 6.2514 -24.7821 -27.566 6.2514 -18.1952 -27.8717 7.11984 
-11.6083 -27.8717 7.54725 -5.0214 -27.8717 9.50149 1.5655 -27.8717 10.2738 
8.15239 -27.8717 8.91917 17.0024 -27.8717 6.2514 14.7393 -27.8717 7.04088 
21.3262 -26.4754 6.2514 27.9131 -23.9043 6.2514 -41.4704 -21.2848 6.2514 
-44.5428 -18.1386 6.2514 -37.9559 -21.2848 9.63025 14.7393 -21.2848 12.8333 
21.3262 -21.2848 11.1438 33.457 -21.2848 6.2514 27.9131 -21.2848 8.76717 
34.5 -20.5451 6.2514 -47.211 -14.6979 6.2514 -44.5428 -14.6979 9.59781 
27.9131 -14.6979 12.4858 40.8372 -14.6979 6.2514 34.5 -14.6979 9.73334 
41.0869 -14.3457 6.2514 -49.7654 -8.11101 6.2514 34.5 -8.11101 11.9987 
44.6074 -8.11101 6.2514 41.0869 -8.11101 8.52692 -50.3818 -1.52412 6.2514 
44.9273 -1.52412 6.2514 41.0869 -1.52412 9.667 -49.1802 5.06278 6.2514 
44.3455 5.06278 6.2514 41.0869 5.06278 9.39561 -46.2876 11.6497 6.2514 
-44.5428 14.0766 6.2514 -44.5428 11.6497 9.34559 34.5 11.6497 12.4237 
41.3145 11.6497 6.2514 41.0869 12.0016 6.2514 41.0869 11.6497 6.49684 
-40.7613 18.2366 6.2514 -37.9559 20.4988 6.2514 -37.9559 18.2366 10.7759 
36.9472 18.2366 6.2514 34.5 21.1478 6.2514 34.5 18.2366 8.96979 
-31.4006 24.8235 6.2514 -31.369 24.8423 6.2514 -31.369 24.8235 6.31216 
-24.7821 28.4837 6.2514 31.1732 24.8235 6.2514 27.9131 27.5997 6.2514 
27.9131 24.8235 10.1934 -18.9859 31.4104 6.2514 -18.1952 31.7898 6.2514 
-18.1952 31.4104 7.93911 -11.6083 34.1559 6.2514 -5.0214 35.5006 6.2514 
1.5655 35.7979 6.2514 8.15239 35.2333 6.2514 14.7393 33.9349 6.2514 
14.7393 31.4104 12.4287 21.686 31.4104 6.2514 21.3262 31.6009 6.2514 
21.3262 31.4104 6.69279 -31.369 -21.5097 12.8383 -24.7821 -22.541 12.8383 
-18.1952 -22.3265 12.8383 -11.6083 -23.0801 12.8383 -5.0214 -24.5326 12.8383 
1.5655 -24.5551 12.8383 8.15239 -22.799 12.8383 -31.8925 -21.2848 12.8383 
-37.9559 -17.6273 12.8383 -31.369 -21.2848 13.0505 -24.7821 -21.2848 13.7501 
-18.1952 -21.2848 13.6129 -11.6083 -21.2848 14.2036 -5.0214 -21.2848 15.2076 
1.5655 -21.2848 14.9677 14.7075 -21.2848 12.8383 8.15239 -21.2848 13.7324 
14.7393 -21.2748 12.8383 21.3262 -18.1999 12.8383 -40.9265 -14.6979 12.8383 
[...]
POINT_DATA 518
SCALARS ImageScalars float
LOOKUP_TABLE default
0 0 0 0 0 0 0 0 0 
0 0 0 0 0 0 0 0 0 
0 0 0 0 0 0 0 0 0 
0 0 0 0 0 0 0 0 0 
0 0 0 0 0 0 0 0 0 
0 0 0 0 0 0 0 0 0 
0 0 0 0 0 0 0 0 0 
0 0 0 0 0 0 0 0 0 
0 0 0 0 0 0 0 0 0 
0 0 0 0 0 0 0 0 0 
0 0 0 0 0 0 0 0 0 
0 0 0 0 0 0 0 0 0 
0 0 0 0 0 0 0 0 0 
0 0 0 0 0 0 0 0 0 
0 0 0 0 0 0 0 0 0 
0 0 0 0 0 0 0 0 0 
0 0 0 0 0 0 0 0 0 
0 0 0 0 0 0 0 0 0 
0 0 0 0 0 0 0 0 0 
0 0 0 0 0 0 0 0 0 
0 0 0 0 0 0 0 0 0 
0 0 0 0 0 0 0 0 0 
0 0 0 0 0 0 0 0 0 
0 0 0 0 0 0 0 0 0 
0 0 0 0 0 0 0 0 0 
0 0 0 0 0 0 0 0 0 
0 0 0 0 0 0 0 0 0 
0 0 0 0 0 0 0 0 0 
0 0 0 0 0 0 0 0 0 
0 0 0 0 0 0 0 0 0 
0 0 0 0 0 0 0 0 0 
0 0 0 0 0 0 0 0 0 
0 0 0 0 0 0 0 0 0 
0 0 0 0 0 0 0 0 0 
0 0 0 0 0 0 0 0 0 
0 0 0 0 0 0 0 0 0 
0 0 0 0 0 0 0 0 0 
0 0 0 0 0 0 0 0 0 
0 0 0 0 0 0 0 0 0 
0 0 0 0 0 0 0 0 0 
0 0 0 0 0 0 0 0 0 
0 0 0 0 0 0 0 0 0 
0 0 0 0 0 0 0 0 0 
0 0 0 0 0 0 0 0 0 
0 0 0 0 0 0 0 0 0 
0 0 0 0 0 0 0 0 0 
0 0 0 0 0 0 0 0 0 
0 0 0 0 0 0 0 0 0 
0 0 0 0 0 0 0 0 0 
0 0 0 0 0 0 0 0 0 
0 0 0 0 0 0 0 0 0 
0 0 0 0 0 0 0 0 0 
0 0 0 0 0 0 0 0 0 
0 0 0 0 0 0 0 0 0 
0 0 0 0 0 0 0 0 0 
0 0 0 0 0 0 0 0 0 
0 0 0 0 0 0 0 0 0 
0 0 0 0 0 
NORMALS Normals float
0.183687 0.50639 0.842513 0.0544137 0.512955 0.856689 -0.0434079 0.604238 0.795621 
-0.138244 0.713754 0.686618 0.111695 0.233678 0.965877 0.198792 0.290824 0.935897 
0.157091 0.264862 0.951404 0.0977728 0.222696 0.969973 0.0407362 0.230191 0.972292 
-0.0305731 0.300977 0.953141 -0.10222 0.409622 0.90651 -0.284779 0.50779 0.81305 
0.145465 0.2235 0.963788 -0.0283518 0.150691 0.988174 -0.0329972 0.087966 0.995577 
0.134825 0.0734846 0.988141 0.242855 0.217475 0.945371 0.0992585 0.13146 0.98634 
0.0515793 0.136351 0.989317 0.0653662 0.0954021 0.99329 0.0421479 0.115811 0.992377 
-0.0411726 0.128653 0.990835 -0.166433 0.167515 0.97172 -0.447699 0.278362 0.849753 
0.246862 0.121305 0.961428 0.0767136 0.0633537 0.995038 -0.0553309 0.0513281 0.997148 
-0.0610404 0.0537422 0.996687 0.242362 0.0985142 0.965171 0.243862 0.105998 0.964 
0.0755812 -0.0347163 0.996535 0.0676351 0.173203 0.982561 0.013942 0.0441986 0.998925 
0.0103274 -0.042224 0.999055 -0.0232771 -0.0415683 0.998864 -0.117455 -0.011717 0.993009 
-0.382952 -0.00507602 0.923754 0.269422 -0.0805443 0.959648 0.0753871 -0.058229 0.995453 
-0.0360709 -0.0419923 0.998467 0.0149416 -0.0265492 0.999536 0.225502 0.0520076 0.972854 
0.0574134 -0.0665847 0.996128 0.182771 -0.0912872 0.978908 0.12191 -0.00785016 0.99251 
-0.152256 -0.140698 0.978275 -0.0369399 -0.159458 0.986513 -0.0115138 -0.154717 0.987892 
-0.132687 -0.167543 0.976895 -0.390881 -0.18406 0.901851 0.114163 -0.191982 0.974736 
-0.0244314 -0.170456 0.985062 0.0181347 -0.120633 0.992531 0.227296 -0.140616 0.96362 
0.112877 -0.187929 0.975675 0.147541 0.00356683 0.989049 0.0044162 -0.130216 0.991476 
-0.142586 -0.100152 0.984702 -0.00806312 -0.0885957 0.996035 -0.0357485 -0.118209 0.992345 
-0.17198 -0.21729 0.960837 -0.420506 -0.286256 0.860949 0.137599 -0.0874462 0.98662 
0.211756 -0.158466 0.96439 0.2314 -0.0503197 0.971557 0.0204328 -0.0796499 0.996613 
-0.111337 0.0349015 0.99317 -0.0514552 -0.0168676 0.998533 -0.144645 -0.145352 0.97875 
-0.295381 -0.287136 0.91121 0.16957 -0.123852 0.977705 0.181362 -0.108762 0.977384 
0.221415 -0.15099 0.96342 0.0937301 -0.163981 0.982 -0.0707654 -0.0900608 0.993419 
-0.192051 -0.150385 0.969794 -0.308258 -0.295413 0.904272 0.175269 -0.285011 0.942364 
0.159351 -0.322526 0.933051 0.0850187 -0.376803 0.922383 -0.0882293 -0.402271 0.911259 
-0.267346 -0.452744 0.850617 0.183254 0.530916 0.827373 0.0368801 0.60239 0.797349 
-0.0640789 0.687464 0.723386 -0.147372 0.743033 0.652827 0.203126 0.818203 0.537851 
0.107536 0.765707 0.634136 0.112054 0.240493 0.964161 0.136842 0.662062 0.73685 
0.186965 0.51221 0.838263 0.197263 0.402384 0.893965 0.202908 0.580647 0.788465 
-0.169487 0.74914 0.640362 -0.220148 0.737326 0.638659 -0.24593 0.87434 0.418386 
-0.330311 0.686176 0.648118 0.45587 0.596887 0.660234 0.190228 0.346057 0.918726 
0.246981 0.500843 0.829552 0.0855467 0.328672 0.940562 0.0881036 0.332933 0.938826 
0.0852065 0.246341 0.96543 -1.65804e-05 0.251217 0.967931 0.00804923 0.286229 0.958127 
-0.49574 0.583456 0.643289 -0.516919 0.558843 0.648452 -0.532624 0.607694 0.589083 
0.670067 0.412886 0.616875 0.29212 0.263213 0.919448 0.31337 0.201943 0.927911 
0.373212 0.294222 0.879856 -0.62984 0.322391 0.706658 -0.818538 0.401405 0.410936 
0.333286 0.138129 0.932653 0.592726 0.198006 0.780686 -0.68916 0.0362308 0.723703 
-0.743559 0.0407088 0.66743 0.338728 -0.0858296 0.936961 0.501237 -0.0970261 0.859853 
0.286626 -0.192589 0.938486 -0.60486 -0.178678 0.776027 -0.805402 -0.186234 0.562712 
0.603668 -0.350364 0.716122 0.252436 -0.220866 0.942069 0.29617 -0.230914 0.926802 
0.136819 -0.276101 0.95134 0.0368192 -0.240679 0.969906 0.0646692 -0.124368 0.990126 
-0.502095 -0.304443 0.809453 -0.483907 -0.336488 0.807843 -0.862726 -0.402022 0.306729 
0.400068 -0.457159 0.794325 0.159991 -0.34502 0.924859 0.0520228 -0.254201 0.965751 
0.0680095 -0.123253 0.990042 0.0660867 -0.124512 0.990015 -0.445975 -0.365124 0.817185 
-0.3865 -0.389547 0.835985 -0.604833 -0.443363 0.661518 0.347746 -0.585358 0.732413 
0.204178 -0.38966 0.89804 0.172011 -0.149453 0.973692 0.180925 -0.22752 0.956818 
0.189477 -0.179405 0.965356 -0.39095 -0.381343 0.837697 -0.379717 -0.438852 0.814385 
-0.519579 -0.507737 0.687197 0.356536 -0.50683 0.78486 0.192935 -0.299738 0.934309 
0.255715 -0.363901 0.895648 0.177869 -0.32189 0.929919 0.133769 -0.447098 0.884426 
0.0203711 -0.591642 0.805943 -0.130638 -0.628482 0.766775 -0.352033 -0.510569 0.784469 
-0.287551 -0.554014 0.78127 -0.462048 -0.614721 0.639242 0.333012 -0.75665 0.562658 
0.193361 -0.681143 0.706156 0.0918116 -0.667302 0.739107 -0.0342385 -0.743557 0.667795 
-0.184888 -0.823692 0.536048 0.209368 0.886194 0.413311 0.138368 0.907359 0.39693 
0.188248 0.896184 0.401766 0.21474 0.883668 0.415953 0.0791992 0.937029 0.340154 
0.0377987 0.998062 -0.049425 -0.090231 0.965489 0.244315 -0.205581 0.966069 0.156355 
-0.237064 0.966687 0.0965239 -0.270105 0.957529 0.100905 0.49039 0.715183 0.498026 
0.267813 0.851921 0.450008 0.294048 0.824097 0.484149 0.30442 0.911732 0.275814 
-0.37184 0.923496 0.0942897 -0.388225 0.916844 0.0931586 -0.575603 0.815986 0.053362 
0.590457 0.63367 0.499823 0.698517 0.507538 0.504459 -0.698886 0.71239 0.0637045 
-0.846516 0.510807 0.149955 0.745793 0.423171 0.514508 -0.896196 0.410083 0.169309 
0.844654 0.204237 0.49482 -0.990815 0.066273 0.117874 0.853398 -0.082629 0.514668 
0.982599 -0.0595168 0.175946 -0.964486 -0.177949 0.195195 0.766857 -0.337165 0.546123 
0.64381 -0.492544 0.585585 -0.882788 -0.401637 0.243665 -0.874878 -0.41639 0.247404 
0.589232 -0.540743 0.600335 0.692272 -0.557718 0.457941 0.474455 -0.645453 0.598567 
-0.805843 -0.519306 0.284497 -0.733177 -0.609928 0.300731 0.444731 -0.659582 0.605943 
0.533604 -0.734531 0.419203 0.405703 -0.669475 0.62226 0.408448 -0.690297 0.597211 
-0.704794 -0.631342 0.323531 -0.636138 -0.697807 0.32923 0.411917 -0.69126 0.593703 
0.41537 -0.707236 0.572088 0.432635 -0.698453 0.57008 -0.351066 -0.882996 0.311562 
-0.601036 -0.732697 0.319234 -0.49957 -0.800776 0.330435 0.367093 -0.777318 0.510901 
0.434533 -0.879134 0.195716 0.339261 -0.791314 0.50865 0.189515 -0.83523 0.516212 
0.0306088 -0.886597 0.461528 -0.0974768 -0.910645 0.401526 -0.346915 -0.884621 0.311601 
-0.217402 -0.91307 0.34502 -0.35251 -0.888219 0.294624 0.0268789 0.987862 -0.152988 
0.297083 0.953164 -0.0567488 0.13005 0.987366 -0.0905241 0.117983 0.985319 -0.123394 
0.212953 0.968324 -0.13038 0.0532857 0.986935 -0.152053 0.204905 0.968631 -0.140599 
-0.0274102 0.985024 -0.170223 0.0258856 0.985055 -0.170286 -0.169723 0.961679 -0.21533 
-0.268089 0.922796 -0.276725 -0.245011 0.923078 -0.296472 -0.250537 0.906475 -0.339902 
0.370848 0.927764 -0.0415518 0.497764 0.867227 -0.0121318 0.255908 0.939984 -0.225703 
0.134471 0.906346 -0.400567 -0.255723 0.830898 -0.494181 -0.306463 0.888192 -0.342337 
-0.251896 0.882137 -0.397972 -0.415727 0.834231 -0.362257 -0.58029 0.712302 -0.394828 
0.706756 0.706994 0.0256099 0.728747 0.684194 0.0283777 -0.379643 0.60535 -0.699587 
-0.59858 0.696031 -0.396538 -0.579017 0.685574 -0.441279 -0.804033 0.450841 -0.387652 
0.894814 0.440846 0.0704446 -0.5264 0.402531 -0.748914 -0.832879 0.397569 -0.385034 
-0.79119 0.407293 -0.456213 0.973831 0.219497 0.0589393 0.983124 0.173165 0.058995 
-0.924995 0.0809112 -0.371264 -0.860864 0.0852152 -0.501649 0.99699 -0.0509751 0.0584227 
0.983644 -0.163925 0.074655 0.989631 -0.0473754 -0.135599 -0.944115 -0.056919 -0.324665 
-0.879011 -0.0489587 -0.474282 0.944361 -0.314126 0.0975062 -0.921701 -0.315529 -0.225631 
-0.909266 -0.35988 -0.209095 -0.904773 -0.295414 -0.306783 0.821287 -0.551962 0.144312 
0.743012 -0.649313 0.162253 -0.845589 -0.503684 -0.176868 -0.780773 -0.608734 -0.140838 
0.627528 -0.754443 0.19242 0.568892 -0.796348 0.205407 0.457635 -0.859543 0.227501 
-0.765236 -0.631197 -0.126505 -0.681506 -0.726971 -0.0840461 0.454435 -0.861706 0.225724 
0.495763 -0.863673 -0.0910401 0.450383 -0.864415 0.223479 -0.670629 -0.737786 -0.0770001 
-0.531537 -0.846586 -0.0275759 0.433743 -0.882058 0.183957 0.432832 -0.882713 0.182962 
0.34283 -0.930052 0.132176 0.169392 -0.982015 0.083378 -0.00621772 -0.998132 0.0607773 
-0.14511 -0.988486 0.0428731 -0.255374 -0.966333 0.0313637 -0.421694 -0.906732 0.00326746 
-0.362265 -0.931897 0.0182424 0.082077 0.881638 -0.464735 0.133497 0.843851 -0.519705 
0.168006 0.82972 -0.532296 -0.00654027 0.818571 -0.574368 -0.183962 0.782334 -0.595073 
-0.225582 0.783058 -0.579598 0.462375 0.782046 -0.417867 0.210139 0.870728 -0.444606 
0.115607 0.886814 -0.447433 0.131632 0.887331 -0.441947 0.0729098 0.86064 -0.503968 
0.118751 0.816379 -0.565175 0.137034 0.751089 -0.645823 -0.0354229 0.686873 -0.725913 
-0.175091 0.698304 -0.694057 -0.236715 0.777978 -0.581994 -0.219897 0.763757 -0.606894 
-0.262922 0.7533 -0.602835 -0.295723 0.693916 -0.656528 0.589952 0.704574 -0.394375 
0.697413 0.607305 -0.38052 0.433504 0.671679 -0.600768 -0.162206 0.497482 -0.852174 
-0.242053 0.552227 -0.797781 -0.359946 0.600007 -0.714444 -0.310576 0.597104 -0.739601 
-0.378451 0.572271 -0.727517 0.794766 0.471584 -0.382041 0.672283 0.460176 -0.579892 
-0.296522 0.349513 -0.888772 -0.520345 0.39954 -0.754725 -0.383851 0.39093 -0.836559 
-0.524868 0.388319 -0.757445 0.908877 0.189745 -0.371403 -0.40481 0.239242 -0.882549 
-0.652592 0.161637 -0.740268 -0.521921 0.200753 -0.829033 0.932667 -0.0412365 -0.358375 
-0.729633 -0.0187856 -0.683581 -0.589455 0.0584522 -0.805684 0.906264 -0.26479 -0.329501 
-0.751294 -0.205378 -0.627198 -0.650395 -0.169915 -0.740348 0.820293 -0.50668 -0.265321 
0.773518 -0.580062 -0.255339 0.75764 -0.486435 -0.435158 -0.536308 -0.258075 -0.803598 
-0.718594 -0.40468 -0.565559 -0.716704 -0.410753 -0.563575 -0.712998 -0.401577 -0.574778 
0.664886 -0.718345 -0.204714 0.605717 -0.775639 -0.177458 0.61186 -0.65368 -0.445343 
-0.695856 -0.52137 -0.493921 -0.669606 -0.580435 -0.463381 -0.647484 -0.476885 -0.594428 
0.496847 -0.861154 -0.107503 0.496509 -0.861389 -0.107179 0.496961 -0.860745 -0.11022 
0.464871 -0.882631 -0.0696868 -0.631795 -0.663652 -0.400501 -0.57729 -0.732123 -0.36157 
-0.580497 -0.593199 -0.557797 0.403078 -0.911864 -0.0776732 0.393525 -0.915527 -0.0833553 
0.38025 -0.909753 -0.166613 0.267243 -0.951434 -0.15282 0.11638 -0.970448 -0.211393 
-0.0191729 -0.969344 -0.244959 -0.133898 -0.96054 -0.24379 -0.252719 -0.938682 -0.234539 
-0.260941 -0.80995 -0.525253 -0.415233 -0.870434 -0.264438 -0.406365 -0.875747 -0.260644 
-0.410926 -0.867429 -0.280548 0.213109 0.624773 -0.751161 0.0488939 0.593059 -0.803673 
0.0284403 0.576755 -0.816422 0.112498 0.574336 -0.810853 0.0782927 0.602256 -0.794454 
-0.0734125 0.558546 -0.826219 -0.142581 0.482784 -0.864054 0.224052 0.619165 -0.752619 
0.379123 0.522116 -0.763977 0.211178 0.615889 -0.759003 0.0334059 0.533964 -0.844847 
0.0307698 0.535929 -0.843702 0.110272 0.480077 -0.870268 0.0535136 0.470989 -0.880514 
-0.105142 0.449478 -0.887082 -0.162044 0.497104 -0.852426 -0.139935 0.432626 -0.890647 
-0.16211 0.497118 -0.852405 -0.230053 0.441944 -0.867042 0.489775 0.42482 -0.761347 
0.62454 0.272526 -0.731901 0.375017 0.423312 -0.824724 0.123834 0.355824 -0.926312 
0.0124627 0.307791 -0.951372 -0.0505421 0.226564 -0.972684 0.0608559 0.104955 -0.992613 
0.103725 0.170135 -0.979947 -0.103925 0.212617 -0.971593 -0.119665 0.243951 -0.962376 
-0.115583 0.310734 -0.943443 -0.281759 0.345975 -0.894938 -0.220103 0.340484 -0.914126 
-0.296272 0.331549 -0.895711 0.65015 0.235605 -0.722354 0.61867 0.239845 -0.748146 
0.327041 0.201242 -0.923334 0.0866122 0.195317 -0.976908 -0.0869561 0.199536 -0.976025 
-0.176625 0.142941 -0.973844 0.0392127 0.117699 -0.992275 0.182343 0.143697 -0.972678 
-0.0412536 0.0852632 -0.995504 -0.0583468 0.155499 -0.986111 -0.0613941 0.227381 -0.971869 
-0.198104 0.248692 -0.948107 -0.370152 0.242971 -0.896634 -0.297046 0.259761 -0.918851 
-0.420822 0.168002 -0.89145 0.715186 -0.00576623 -0.69891 0.62743 0.00124531 -0.778672 
0.323218 0.0388571 -0.945526 0.118931 0.0898736 -0.988827 -0.0414635 0.145975 -0.988419 
-0.120471 0.216011 -0.96893 0.0579986 0.318332 -0.946204 -0.0927596 0.0809494 -0.992392 
0.0238394 0.125134 -0.991853 -0.0203209 0.104154 -0.994354 -0.18893 0.138331 -0.972198 
-0.307743 0.141906 -0.940828 -0.451811 0.113823 -0.884822 -0.431178 0.118659 -0.89443 
0.702219 -0.222105 -0.67643 0.688635 -0.272657 -0.671893 0.675987 -0.218666 -0.703724 
0.392021 -0.146759 -0.908175 0.192899 -0.0508383 -0.979901 -0.0925945 0.140899 -0.985684 
-0.032871 0.141882 -0.989338 -0.045877 0.0197094 -0.998753 -0.159682 -0.00534772 -0.987154 
-0.316143 -0.0290833 -0.948266 -0.503269 -0.0816168 -0.860267 -0.515647 -0.201962 -0.832658 
-0.465 -0.0643342 -0.88297 0.621404 -0.417492 -0.662991 0.578972 -0.544157 -0.607194 
0.492465 -0.345598 -0.798774 0.281391 -0.21496 -0.935207 -0.169926 0.0338476 -0.984875 
-0.232675 -0.0656227 -0.970338 -0.51547 -0.243887 -0.821468 -0.370302 -0.160175 -0.914998 
0.563922 -0.585474 -0.582419 0.506623 -0.676467 -0.534532 0.428985 -0.475208 -0.768212 
0.244633 -0.307057 -0.919712 -0.251488 -0.0744022 -0.964996 -0.340345 -0.184503 -0.922022 
-0.524991 -0.347679 -0.776855 -0.521699 -0.418301 -0.743542 -0.474721 -0.300452 -0.827265 
0.48584 -0.726209 -0.486396 0.462238 -0.74705 -0.477757 0.424693 -0.658314 -0.621497 
0.326327 -0.824121 -0.462963 0.248254 -0.477339 -0.842922 0.111349 -0.334351 -0.935848 
0.0717315 -0.305657 -0.949436 -0.125974 -0.366309 -0.921926 -0.262541 -0.790875 -0.5528 
-0.2807 -0.367672 -0.886581 -0.508906 -0.509965 -0.693506 -0.447986 -0.602947 -0.660124 
-0.431327 -0.450821 -0.781484 0.243183 -0.856203 -0.455827 0.199454 -0.860119 -0.469482 
0.193014 -0.827049 -0.527955 0.0710935 -0.844222 -0.531258 0.0535638 -0.759808 -0.647937 
-0.0381167 -0.8366 -0.546486 -0.0334456 -0.764762 -0.643444 -0.240267 -0.803708 -0.544358 
-0.125335 -0.837185 -0.532365 -0.122253 -0.78864 -0.602579 0.048156 0.17706 -0.983021 
-0.0361611 0.138558 -0.989694 -0.0553937 0.153129 -0.986652 0.0442331 0.182706 -0.982172 
0.0253792 0.196529 -0.980169 0.0362184 0.173107 -0.984237 0.0432919 0.177699 -0.983132 
0.183383 -0.0458342 -0.981972 0.0387295 0.0300336 -0.998798 -0.0201515 0.115588 -0.993093 
0.0144073 0.159782 -0.987047 -0.08121 0.109119 -0.990706 -0.0513198 0.0283255 -0.998281 
-0.0673339 0.136457 -0.988355 -0.0637141 0.146221 -0.987198 0.162791 -0.133563 -0.977579 
0.155228 -0.159645 -0.974894 0.121133 -0.104725 -0.987096 0.0219912 -0.0174188 -0.999606 
-0.0251283 0.012044 -0.999612 0.0164851 0.00597146 -0.999846 0.0157291 0.122408 -0.992355 
-0.142181 0.0819924 -0.986439 -0.0980242 0.147449 -0.9842 0.131941 -0.199992 -0.970873 
0.116238 -0.204944 -0.971847 0.100943 -0.173023 -0.979731 0.0689291 -0.195808 -0.978217 
0.0376719 -0.097545 -0.994518 0.070045 -0.254689 -0.964483 0.0595162 -0.0420502 -0.997341 
0.0466931 -0.0440965 -0.997935 -0.231568 -0.0700526 -0.970293 -0.125582 -0.338887 -0.932408 
-0.116427 -0.0505609 -0.991911 0.0441991 -0.317322 -0.947287 -0.0825314 -0.355929 -0.930862 
0.00234444 -0.363506 -0.931589 0.00343351 -0.336927 -0.941525 
