# vtk DataFile Version 4.2
vtk output
ASCII
DATASET POLYDATA
POINTS 510 float
-22.9039 -34.8791 -16.1907 -15.2312 -34.8791 -17.8159 -7.55859 -34.8791 -18.2463 
0.114068 -34.8791 -18.1632 7.78672 -34.8791 -17.7692 15.4594 -34.8791 -17.3945 
-30.5765 -27.2064 -18.0048 -22.9039 -27.2064 -19.85 -15.2312 -27.2064 -20.7224 
-7.55859 -27.2064 -20.4546 0.114068 -27.2064 -20.5222 7.78672 -27.2064 -20.4858 
15.4594 -27.2064 -20.39 23.132 -27.2064 -19.3238 30.8047 -27.2064 -17.8739 
-38.2492 -19.5338 -17.4916 -30.5765 -19.5338 -20.1336 -22.9039 -19.5338 -21.1405 
-15.2312 -19.5338 -21.2318 -7.55859 -19.5338 -21.0202 0.114068 -19.5338 -20.745 
7.78672 -19.5338 -20.9775 15.4594 -19.5338 -20.9308 23.132 -19.5338 -21.0237 
30.8047 -19.5338 -19.8436 38.4773 -19.5338 -17.9159 -38.2492 -11.8611 -19.1158 
-30.5765 -11.8611 -20.9971 -22.9039 -11.8611 -21.6552 -15.2312 -11.8611 -21.5201 
-7.55859 -11.8611 -21.4233 0.114068 -11.8611 -20.5547 7.78672 -11.8611 -20.0883 
15.4594 -11.8611 -20.127 23.132 -11.8611 -20.7391 30.8047 -11.8611 -20.7636 
38.4773 -11.8611 -19.466 46.15 -11.8611 -15.9783 -45.9219 -4.18847 -16.0397 
-38.2492 -4.18847 -20.0304 -30.5765 -4.18847 -21.3892 -22.9039 -4.18847 -21.0855 
-15.2312 -4.18847 -21.825 -7.55859 -4.18847 -23.235 0.114068 -4.18847 -21.3924 
7.78672 -4.18847 -20.556 15.4594 -4.18847 -19.7092 23.132 -4.18847 -20.2351 
30.8047 -4.18847 -20.9332 38.4773 -4.18847 -20.293 46.15 -4.18847 -16.8895 
-45.9219 3.48418 -16.471 -38.2492 3.48418 -20.3783 -30.5765 3.48418 -21.6615 
-22.9039 3.48418 -21.0481 -15.2312 3.48418 -21.2863 -7.55859 3.48418 -22.409 
0.114068 3.48418 -21.3664 7.78672 3.48418 -21.72 15.4594 3.48418 -20.0089 
23.132 3.48418 -20.1063 30.8047 3.48418 -20.32 38.4773 3.48418 -19.3604 
46.15 3.48418 -16.2802 -45.9219 11.1568 -15.837 -38.2492 11.1568 -20.0722 
-30.5765 11.1568 -21.7499 -22.9039 11.1568 -21.8432 -15.2312 11.1568 -21.71 
-7.55859 11.1568 -20.9002 0.114068 11.1568 -19.8095 7.78672 11.1568 -20.5924 
15.4594 11.1568 -20.4004 23.132 11.1568 -20.1394 30.8047 11.1568 -19.5325 
38.4773 11.1568 -17.8309 -38.2492 18.8295 -18.9894 -30.5765 18.8295 -21.1933 
-22.9039 18.8295 -22.3124 -15.2312 18.8295 -22.291 -7.55859 18.8295 -21.3825 
0.114068 18.8295 -20.5628 7.78672 18.8295 -20.8612 15.4594 18.8295 -20.9612 
23.132 18.8295 -20.2107 30.8047 18.8295 -18.9827 38.4773 18.8295 -15.7803 
-30.5765 26.5021 -19.5275 -22.9039 26.5021 -21.3875 -15.2312 26.5021 -21.6952 
-7.55859 26.5021 -21.3981 0.114068 26.5021 -20.8197 7.78672 26.5021 -20.2183 
15.4594 26.5021 -19.8002 23.132 26.5021 -18.3466 30.8047 26.5021 -16.3646 
-22.9039 34.1748 -16.5894 -15.2312 34.1748 -18.2545 -7.55859 34.1748 -18.6043 
0.114068 34.1748 -18.0934 7.78672 34.1748 -16.855 -22.9039 -35.5464 -15.6255 
-15.2312 -37.5988 -15.6255 -7.55859 -38.4616 -15.6255 -7.55859 -42.5517 -8.44946 
0.114068 -38.2509 -15.6255 7.78672 -37.5467 -15.6255 15.4594 -36.8728 -15.6255 
-24.2521 -34.8791 -15.6255 -30.5765 -30.9846 -15.6255 -30.5765 -34.8791 -10.0067 
22.2247 -34.8791 -15.6255 23.132 -34.4742 -15.6255 23.132 -34.8791 -15.2322 
30.8047 -30.4747 -15.6255 30.8047 -34.8791 -9.50028 -35.1975 -27.2064 -15.6255 
-38.2492 -23.6996 -15.6255 -38.2492 -27.2064 -12.8286 35.1099 -27.2064 -15.6255 
38.4773 -23.8844 -15.6255 38.4773 -27.2064 -12.5378 -41.1973 -19.5338 -15.6255 
-45.9219 -19.5338 -10.2717 42.6868 -19.5338 -15.6255 46.15 -12.9626 -15.6255 
46.15 -19.5338 -12.058 -44.5002 -11.8611 -15.6255 -45.9219 -6.56113 -15.6255 
-45.9219 -11.8611 -14.4806 46.5892 -11.8611 -15.6255 -46.3736 -4.18847 -15.6255 
47.8409 -4.18847 -15.6255 53.8226 -4.18847 -9.09877 -46.8546 3.48418 -15.6255 
47.0615 3.48418 -15.6255 46.15 5.77455 -15.6255 53.8226 3.48418 -8.64656 
-46.1514 11.1568 -15.6255 -45.9219 11.8483 -15.6255 43.1482 11.1568 -15.6255 
46.15 11.1568 -13.8233 -43.3459 18.8295 -15.6255 -45.9219 18.8295 -12.445 
-38.2492 25.8319 -15.6255 38.759 18.8295 -15.6255 38.4773 19.1945 -15.6255 
46.15 18.8295 -9.78945 -37.6219 26.5021 -15.6255 -38.2492 26.5021 -14.9117 
-30.5765 31.3814 -15.6255 15.4594 33.6682 -15.6255 23.132 30.7543 -15.6255 
32.3032 26.5021 -15.6255 30.8047 27.5419 -15.6255 38.4773 26.5021 -10.8792 
-24.9734 34.1748 -15.6255 -30.5765 34.1748 -8.45324 -22.9039 35.0176 -15.6255 
-15.2312 36.8949 -15.6255 -7.55859 37.4652 -15.6255 0.114068 36.9219 -15.6255 
13.8828 34.1748 -15.6255 7.78672 35.4756 -15.6255 15.4594 34.1748 -15.0442 
23.132 34.1748 -11.1753 -7.55859 -42.7444 -7.95289 -30.5765 -35.8113 -7.95289 
-22.9039 -39.5162 -7.95289 -8.9318 -42.5517 -7.95289 -15.2312 -41.6872 -7.95289 
-2.86209 -42.5517 -7.95289 -7.55859 -42.5517 -6.14033 0.114068 -42.4286 -7.95289 
7.78672 -41.7115 -7.95289 15.4594 -40.7398 -7.95289 23.132 -38.9648 -7.95289 
30.8047 -35.6754 -7.95289 -32.0393 -34.8791 -7.95289 -38.2492 -30.4176 -7.95289 
32.1098 -34.8791 -7.95289 38.4773 -30.3638 -7.95289 -41.5947 -27.2064 -7.95289 
-45.9219 -21.5884 -7.95289 42.0554 -27.2064 -7.95289 46.15 -22.7705 -7.95289 
-47.2919 -19.5338 -7.95289 48.7114 -19.5338 -7.95289 -50.6294 -11.8611 -7.95289 
52.7316 -11.8611 -7.95289 53.8226 -7.3756 -7.95289 53.8226 -11.8611 -2.39517 
-52.0657 -4.18847 -7.95289 -53.5945 -4.18847 -1.15193 54.5865 -4.18847 -7.95289 
-52.5564 3.48418 -7.95289 -53.5945 3.48418 -2.97507 54.2862 3.48418 -7.95289 
53.8226 4.98313 -7.95289 -51.8713 11.1568 -7.95289 51.6434 11.1568 -7.95289 
53.8226 11.1568 -2.96628 -48.4945 18.8295 -7.95289 -45.9219 22.4844 -7.95289 
47.8053 18.8295 -7.95289 46.15 21.1377 -7.95289 -42.4169 26.5021 -7.95289 
-38.2492 29.9661 -7.95289 30.8047 33.3022 -7.95289 41.4808 26.5021 -7.95289 
38.4773 28.896 -7.95289 -30.8565 34.1748 -7.95289 -30.5765 34.3186 -7.95289 
-30.5765 34.1748 -1.3643 -22.9039 37.3808 -7.95289 -15.2312 39.4476 -7.95289 
-7.55859 40.4696 -7.95289 0.114068 40.1894 -7.95289 7.78672 38.9471 -7.95289 
15.4594 37.4486 -7.95289 28.2965 34.1748 -7.95289 23.132 35.7532 -7.95289 
30.8047 34.1748 -4.65173 -30.5765 -35.5838 -0.280237 -22.9039 -38.6099 -0.280237 
-15.2312 -40.9164 -0.280237 -7.55859 -41.8715 -0.280237 0.114068 -41.7995 -0.280237 
7.78672 -41.2691 -0.280237 15.4594 -40.4543 -0.280237 23.132 -38.8286 -0.280237 
30.8047 -35.7837 -0.280237 -31.8538 -34.8791 -0.280237 -38.2492 -30.8382 -0.280237 
-30.5765 -34.8791 1.32874 32.3158 -34.8791 -0.280237 30.8047 -34.8791 1.65759 
38.4773 -30.262 -0.280237 -42.4078 -27.2064 -0.280237 -45.9219 -23.3159 -0.280237 
42.0029 -27.2064 -0.280237 38.4773 -27.2064 5.21075 46.15 -23.1409 -0.280237 
-48.5625 -19.5338 -0.280237 49.2669 -19.5338 -0.280237 46.15 -19.5338 6.22955 
53.8226 -12.5918 -0.280237 -52.1757 -11.8611 -0.280237 -53.5945 -5.12205 -0.280237 
54.2074 -11.8611 -0.280237 53.8226 -11.8611 1.05246 -53.7779 -4.18847 -0.280237 
-53.5945 -4.18847 0.819474 56.7453 -4.18847 -0.280237 -54.1154 3.48418 -0.280237 
-53.5945 8.44155 -0.280237 -53.5945 3.48418 3.05928 57.0307 3.48418 -0.280237 
-53.2862 11.1568 -0.280237 54.8728 11.1568 -0.280237 53.8226 13.9309 -0.280237 
-49.9421 18.8295 -0.280237 -45.9219 24.1299 -0.280237 51.6294 18.8295 -0.280237 
46.15 25.6214 -0.280237 -43.3234 26.5021 -0.280237 -38.2492 30.2868 -0.280237 
-30.5765 34.1511 -0.280237 45.2786 26.5021 -0.280237 38.4773 31.5207 -0.280237 
-30.5109 34.1748 -0.280237 -22.9039 36.8423 -0.280237 -15.2312 38.8324 -0.280237 
-7.55859 40.0378 -0.280237 0.114068 40.0876 -0.280237 7.78672 39.207 -0.280237 
15.4594 38.0749 -0.280237 23.132 36.9749 -0.280237 33.135 34.1748 -0.280237 
30.8047 35.2295 -0.280237 30.8047 34.1748 7.23924 -22.9039 -35.0503 7.39242 
-15.2312 -36.6699 7.39242 -7.55859 -37.8553 7.39242 0.114068 -38.2568 7.39242 
7.78672 -38.114 7.39242 15.4594 -37.4465 7.39242 23.132 -35.511 7.39242 
-38.2492 -27.8993 7.39242 -23.333 -34.8791 7.39242 -30.5765 -32.0486 7.39242 
-22.9039 -34.8791 7.63304 -15.2312 -34.8791 9.86083 -7.55859 -34.8791 11.4857 
0.114068 -34.8791 12.2695 7.78672 -34.8791 12.1967 15.4594 -34.8791 11.0965 
24.4965 -34.8791 7.39242 23.132 -34.8791 8.29865 30.8047 -31.4882 7.39242 
-39.1397 -27.2064 7.39242 -45.9219 -20.7334 7.39242 -38.2492 -27.2064 8.58071 
-30.5765 -27.2064 14.0444 36.7668 -27.2064 7.39242 30.8047 -27.2064 11.6765 
38.4773 -25.8225 7.39242 -46.8351 -19.5338 7.39242 -45.9219 -19.5338 8.95405 
45.4318 -19.5338 7.39242 38.4773 -19.5338 12.8742 46.15 -18.8988 7.39242 
-50.6811 -11.8611 7.39242 51.7521 -11.8611 7.39242 46.15 -11.8611 14.4391 
53.8226 -8.03272 7.39242 -52.4427 -4.18847 7.39242 55.6447 -4.18847 7.39242 
53.8226 -4.18847 10.7598 -52.8904 3.48418 7.39242 56.4342 3.48418 7.39242 
53.8226 3.48418 12.4291 -52.1775 11.1568 7.39242 55.1518 11.1568 7.39242 
53.8226 14.2844 7.39242 53.8226 11.1568 10.3502 -48.5641 18.8295 7.39242 
-45.9219 22.1571 7.39242 -45.9219 18.8295 12.4853 51.5595 18.8295 7.39242 
46.15 25.2843 7.39242 -40.8648 26.5021 7.39242 -38.2492 28.3473 7.39242 
-38.2492 26.5021 11.4139 -30.5765 31.9217 7.39242 30.8047 34.1527 7.39242 
44.7719 26.5021 7.39242 38.4773 31.1739 7.39242 38.4773 26.5021 14.3649 
-23.2854 34.1748 7.39242 -22.9039 34.294 7.39242 -22.9039 34.1748 7.58946 
-15.2312 35.9182 7.39242 -15.2312 34.1748 9.82864 -7.55859 37.246 7.39242 
-7.55859 34.1748 11.3902 0.114068 37.8693 7.39242 0.114068 34.1748 12.5176 
7.78672 37.691 7.39242 7.78672 34.1748 12.8652 15.4594 37.0521 7.39242 
15.4594 34.1748 12.2609 30.7098 34.1748 7.39242 23.132 35.839 7.39242 
23.132 34.1748 10.4701 -22.9039 -28.6134 15.0651 -15.2312 -30.2277 15.0651 
-7.55859 -31.4813 15.0651 0.114068 -32.2638 15.0651 7.78672 -32.3205 15.0651 
15.4594 -30.9595 15.0651 23.132 -27.7627 15.0651 -38.2492 -21.6215 15.0651 
-27.5853 -27.2064 15.0651 -30.5765 -26.2094 15.0651 -22.9039 -27.2064 16.2923 
-15.2312 -27.2064 17.6149 -7.55859 -27.2064 18.3954 0.114068 -27.2064 18.9131 
7.78672 -27.2064 18.9954 15.4594 -27.2064 17.7177 23.993 -27.2064 15.0651 
23.132 -27.2064 15.4156 30.8047 -21.8536 15.0651 -40.3186 -19.5338 15.0651 
-45.9219 -12.2807 15.0651 -38.2492 -19.5338 16.453 -30.5765 -19.5338 19.7144 
-22.9039 -19.5338 21.1006 -15.2312 -19.5338 21.9774 -7.55859 -19.5338 22.562 
[...]
POINT_DATA 510
SCALARS ImageScalars float
LOOKUP_TABLE default
0 0 0 0 0 0 0 0 0 
0 0 0 0 0 0 0 0 0 
0 0 0 0 0 0 0 0 0 
0 0 0 0 0 0 0 0 0 
0 0 0 0 0 0 0 0 0 
0 0 0 0 0 0 0 0 0 
0 0 0 0 0 0 0 0 0 
0 0 0 0 0 0 0 0 0 
0 0 0 0 0 0 0 0 0 
0 0 0 0 0 0 0 0 0 
0 0 0 0 0 0 0 0 0 
0 0 0 0 0 0 0 0 0 
0 0 0 0 0 0 0 0 0 
0 0 0 0 0 0 0 0 0 
0 0 0 0 0 0 0 0 0 
0 0 0 0 0 0 0 0 0 
0 0 0 0 0 0 0 0 0 
0 0 0 0 0 0 0 0 0 
0 0 0 0 0 0 0 0 0 
0 0 0 0 0 0 0 0 0 
0 0 0 0 0 0 0 0 0 
0 0 0 0 0 0 0 0 0 
0 0 0 0 0 0 0 0 0 
0 0 0 0 0 0 0 0 0 
0 0 0 0 0 0 0 0 0 
0 0 0 0 0 0 0 0 0 
0 0 0 0 0 0 0 0 0 
0 0 0 0 0 0 0 0 0 
0 0 0 0 0 0 0 0 0 
0 0 0 0 0 0 0 0 0 
0 0 0 0 0 0 0 0 0 
0 0 0 0 0 0 0 0 0 
0 0 0 0 0 0 0 0 0 
0 0 0 0 0 0 0 0 0 
0 0 0 0 0 0 0 0 0 
0 0 0 0 0 0 0 0 0 
0 0 0 0 0 0 0 0 0 
0 0 0 0 0 0 0 0 0 
0 0 0 0 0 0 0 0 0 
0 0 0 0 0 0 0 0 0 
0 0 0 0 0 0 0 0 0 
0 0 0 0 0 0 0 0 0 
0 0 0 0 0 0 0 0 0 
0 0 0 0 0 0 0 0 0 
0 0 0 0 0 0 0 0 0 
0 0 0 0 0 0 0 0 0 
0 0 0 0 0 0 0 0 0 
0 0 0 0 0 0 0 0 0 
0 0 0 0 0 0 0 0 0 
0 0 0 0 0 0 0 0 0 
0 0 0 0 0 0 0 0 0 
0 0 0 0 0 0 0 0 0 
0 0 0 0 0 0 0 0 0 
0 0 0 0 0 0 0 0 0 
0 0 0 0 0 0 0 0 0 
0 0 0 0 0 0 0 0 0 
0 0 0 0 0 0 
NORMALS Normals float
0.273117 0.622967 0.733021 0.123013 0.515579 0.847966 0.0186632 0.463146 0.886086 
-0.0293768 0.486194 0.873357 -0.0469007 0.53109 0.846016 -0.137868 0.575937 0.805784 
0.335755 0.408809 0.848613 0.162046 0.286676 0.944223 0.0388936 0.188241 0.981353 
-0.0121344 0.1688 0.985576 0.00200425 0.156521 0.987673 -0.00821853 0.190422 0.981668 
-0.0765753 0.207572 0.975218 -0.151541 0.316575 0.936384 -0.314551 0.430701 0.845904 
0.457695 0.280757 0.843618 0.2223 0.178318 0.958533 0.0710015 0.11386 0.990956 
-0.00740436 0.0491117 0.998766 -0.0322658 0.0617788 0.997568 -0.002749 0.00198801 0.999994 
0.0121238 -0.0264012 0.999578 0.00295053 -0.0172631 0.999847 -0.0719882 0.0888667 0.993439 
-0.187583 0.172536 0.966977 -0.3696 0.313178 0.874823 0.354299 0.155682 0.922082 
0.154122 0.0833231 0.984532 0.0329 -0.00208594 0.999456 -0.0149227 0.0393673 0.999113 
-0.0631456 0.143145 0.987685 -0.0857349 0.0404974 0.995495 -0.0277333 -0.028387 0.999212 
0.0430705 -0.0805605 0.995819 0.0398587 -0.0510004 0.997903 -0.0788774 0.073689 0.994157 
-0.274446 0.145774 0.950489 -0.56525 0.189926 0.802758 0.618285 0.0937401 0.780344 
0.28673 0.073623 0.955178 0.0588789 0.0414637 0.997404 0.028756 -0.0395658 0.998803 
0.140306 -0.0155066 0.989987 -0.0250614 0.065706 0.997524 -0.174124 0.0537043 0.983258 
-0.110473 0.107952 0.987999 -0.0193138 -0.00711707 0.999788 0.080435 -0.0414547 0.995897 
0.00638264 -0.0286258 0.99957 -0.239904 -0.00752793 0.970767 -0.529941 0.0152988 0.847897 
0.604393 -0.00902014 0.796635 0.275741 0.0027914 0.961228 0.0337978 0.0225129 0.999175 
-0.0232437 0.0492379 0.998517 0.0850536 -0.00745686 0.996349 0.0071699 -0.154582 0.987954 
-0.0411342 -0.10492 0.99363 -0.0869068 0.000155122 0.996216 -0.10498 0.0453351 0.99344 
0.0202597 -0.00635191 0.999775 -0.0466334 -0.0905268 0.994802 -0.23712 -0.151958 0.959522 
-0.503595 -0.158228 0.849327 0.634919 -0.157144 0.756428 0.326552 -0.087668 0.941105 
0.105492 -0.0298703 0.993971 -0.00289257 0.0842747 0.996438 -0.0600808 0.0653769 0.99605 
-0.124796 -0.0607877 0.990319 -0.018275 -0.0498499 0.99859 0.0387319 -0.0555055 0.997707 
-0.0294598 0.0608248 0.997714 -0.0552839 0.00654814 0.998449 -0.143676 -0.0826103 0.986171 
-0.314283 -0.215531 0.924539 0.425055 -0.247491 0.870676 0.206809 -0.128967 0.969844 
0.0686003 -0.0276306 0.997262 -0.0600461 -0.00152669 0.998194 -0.114918 0.0323275 0.992849 
-0.0335987 0.0653212 0.997298 0.0259191 -0.023121 0.999397 -0.040323 -0.0313947 0.998693 
-0.119387 -0.108681 0.986881 -0.268328 -0.193439 0.943706 -0.435626 -0.317254 0.842366 
0.334461 -0.42063 0.84333 0.128956 -0.300285 0.945092 0.000533723 -0.221701 0.975114 
-0.0570499 -0.15754 0.985863 -0.0755677 -0.138327 0.987499 -0.0630821 -0.227041 0.97184 
-0.117538 -0.306514 0.944582 -0.207666 -0.391535 0.896424 -0.347288 -0.476278 0.807806 
0.272593 -0.754713 0.596742 0.107642 -0.64575 0.755923 -0.0109097 -0.570884 0.820958 
-0.104931 -0.572016 0.813503 -0.160712 -0.640287 0.751136 0.283265 0.65586 0.699721 
0.147382 0.684775 0.713696 0.0297407 0.663796 0.747322 0.0475865 0.984643 0.167969 
-0.0455261 0.678765 0.732943 -0.0698571 0.679942 0.729931 -0.150786 0.694501 0.703514 
0.310689 0.649478 0.69401 0.420624 0.583036 0.695086 0.501729 0.816588 0.285399 
-0.279821 0.645342 0.710797 -0.289774 0.633851 0.717122 -0.300781 0.665318 0.683289 
-0.378112 0.583557 0.718674 -0.462495 0.83054 0.310326 0.499777 0.505495 0.703347 
0.540848 0.430867 0.722383 0.623229 0.595844 0.506513 -0.454625 0.52867 0.716816 
-0.479659 0.472364 0.739459 -0.583449 0.644695 0.493919 0.567895 0.332115 0.753123 
0.782139 0.450907 0.430047 -0.527623 0.384676 0.757389 -0.581001 0.223525 0.782608 
-0.714481 0.49371 0.49575 0.591488 0.201584 0.780708 0.629081 0.130333 0.766336 
0.671557 0.227911 0.70503 -0.582659 0.19331 0.789392 0.636448 0.0935477 0.765626 
-0.590724 0.0235359 0.80653 -0.866953 0.0847944 0.491124 0.64121 -0.00928298 0.76731 
-0.536808 -0.159356 0.828518 -0.522243 -0.19527 0.83014 -0.857056 -0.157893 0.490434 
0.644396 -0.158682 0.748047 0.646064 -0.177428 0.742375 -0.46214 -0.258104 0.848415 
-0.581938 -0.300076 0.755846 0.629121 -0.338423 0.699769 0.75019 -0.415858 0.514078 
0.569221 -0.563828 0.598402 -0.44071 -0.321743 0.838007 -0.441026 -0.328315 0.835288 
-0.666849 -0.461849 0.584814 0.563672 -0.581558 0.58657 0.581588 -0.605138 0.543657 
0.427837 -0.701195 0.570334 -0.211929 -0.700708 0.681245 -0.248377 -0.611649 0.751128 
-0.388066 -0.492811 0.778808 -0.359275 -0.521863 0.77368 -0.551708 -0.614056 0.564406 
0.32176 -0.783085 0.532211 0.426213 -0.893169 0.143496 0.286451 -0.794672 0.535203 
0.145433 -0.789391 0.596415 0.00232144 -0.754687 0.656081 -0.114296 -0.725685 0.678467 
-0.207027 -0.710505 0.672549 -0.173639 -0.708674 0.683835 -0.217733 -0.743358 0.632464 
-0.268013 -0.853594 0.446706 0.0489852 0.9893 0.137429 0.499924 0.84784 0.176757 
0.354457 0.925727 0.13187 0.0758753 0.987865 0.13552 0.199529 0.971206 0.130184 
-0.0218624 0.98913 0.145409 0.0494156 0.99788 0.0423434 -0.0667197 0.986267 0.151081 
-0.10842 0.979722 0.168492 -0.170474 0.969721 0.174871 -0.313895 0.927192 0.204412 
-0.466337 0.854863 0.227463 0.523096 0.831528 0.186902 0.641561 0.726697 0.245582 
-0.490735 0.841042 0.227657 -0.611743 0.758977 0.22299 0.711729 0.648468 0.270056 
0.79864 0.51387 0.313229 -0.668173 0.707331 0.230711 -0.751949 0.6125 0.243753 
0.822556 0.468442 0.322434 -0.794865 0.545968 0.264779 0.887592 0.284065 0.362612 
-0.877297 0.316057 0.36119 -0.892688 0.184918 0.410992 -0.917991 0.392288 0.0583405 
0.919529 0.111822 0.376778 0.991176 0.118716 0.0589619 -0.891078 0.0909337 0.444647 
0.930112 -0.00905539 0.367163 0.990725 -0.0216928 0.134141 -0.87213 -0.155547 0.46389 
-0.862188 -0.187136 0.470757 0.909015 -0.235243 0.344024 -0.791633 -0.326213 0.516626 
-0.902884 -0.310088 0.297736 0.824954 -0.4677 0.317344 0.773886 -0.56002 0.295766 
-0.719305 -0.474392 0.507497 -0.690362 -0.521847 0.501074 0.679252 -0.694489 0.237281 
0.56491 -0.801033 0.198047 -0.366596 -0.853336 0.370709 -0.606534 -0.649719 0.458238 
-0.545301 -0.715118 0.437326 0.42747 -0.895761 0.121989 0.423742 -0.897798 0.120002 
0.383771 -0.917635 -0.103276 0.308785 -0.946555 0.0931912 0.199325 -0.975292 0.0952658 
0.0453068 -0.991296 0.123612 -0.0983276 -0.982702 0.156935 -0.175772 -0.965318 0.193043 
-0.198332 -0.953573 0.226633 -0.322401 -0.883621 0.339517 -0.244782 -0.923498 0.295351 
-0.349306 -0.909395 0.225802 0.422563 0.881987 -0.20866 0.311543 0.916479 -0.251012 
0.193738 0.93658 -0.292034 0.0501111 0.957277 -0.284797 -0.0373141 0.96871 -0.245375 
-0.0827081 0.973411 -0.213611 -0.145924 0.969898 -0.194948 -0.292126 0.935893 -0.196892 
-0.45315 0.868546 -0.200706 0.452926 0.869029 -0.199115 0.607856 0.782865 -0.132795 
0.4153 0.871108 -0.2621 -0.486079 0.851452 -0.196868 -0.450298 0.844154 -0.290922 
-0.612862 0.767524 -0.187903 0.693257 0.714785 -0.092068 0.792523 0.608268 -0.043789 
-0.655503 0.730854 -0.190178 -0.576499 0.683098 -0.44836 -0.72175 0.673799 -0.158343 
0.858022 0.513065 -0.0237154 -0.775568 0.617458 -0.131296 -0.633288 0.638899 -0.436755 
-0.901524 0.429417 -0.0534355 0.948983 0.315292 0.00478515 0.989569 0.142689 0.0198441 
-0.911115 0.409326 -0.048189 -0.898758 0.424298 -0.110482 0.992599 0.11949 0.0216667 
0.99246 0.120278 -0.0235916 -0.983646 0.1712 0.0559613 0.999391 -0.0299663 0.0179055 
0.9839 -0.177878 0.0173528 0.993674 -0.0217852 -0.110171 -0.985018 -0.111497 0.13156 
0.965454 -0.260039 0.0166975 -0.933637 -0.302989 0.191102 -0.907881 -0.374548 0.188323 
0.864717 -0.502252 0.00291037 0.75085 -0.660017 -0.0245317 -0.834955 -0.519889 0.180459 
-0.705217 -0.69585 0.135875 0.665826 -0.744061 -0.0552197 0.516763 -0.851315 -0.0906593 
0.375239 -0.916361 -0.139562 -0.678898 -0.723214 0.126722 -0.511493 -0.85267 0.10644 
0.3744 -0.91663 -0.140049 0.287892 -0.93999 -0.183129 0.201663 -0.95679 -0.209486 
0.0780507 -0.978678 -0.189993 -0.0544273 -0.988949 -0.137904 -0.128266 -0.988783 -0.0765305 
-0.14322 -0.989386 -0.0245742 -0.176294 -0.98432 0.00589924 -0.381396 -0.922294 0.0625314 
-0.329155 -0.94318 0.0454824 -0.265533 -0.919 -0.291428 0.259003 0.821439 -0.50809 
0.153665 0.8281 -0.539108 0.0887752 0.840908 -0.533848 0.0142388 0.865967 -0.499898 
-0.0471985 0.87829 -0.475793 -0.14587 0.867291 -0.47595 -0.311406 0.810999 -0.495284 
0.535031 0.753048 -0.382964 0.265519 0.820758 -0.505822 0.362622 0.808587 -0.46335 
0.257627 0.818259 -0.513888 0.151966 0.792867 -0.590143 0.0971115 0.771187 -0.629158 
0.0294154 0.772223 -0.63467 -0.0477826 0.787205 -0.614838 -0.152629 0.785838 -0.599303 
-0.334048 0.796206 -0.504448 -0.316211 0.791207 -0.523452 -0.433861 0.704416 -0.56175 
0.556634 0.739968 -0.377631 0.750677 0.559889 -0.350727 0.530081 0.738169 -0.417278 
0.272476 0.696935 -0.663354 -0.529134 0.644988 -0.551369 -0.422869 0.572883 -0.70213 
-0.539375 0.637379 -0.550294 0.775427 0.529629 -0.34381 0.743059 0.533386 -0.404182 
-0.598115 0.629968 -0.495378 -0.428492 0.523039 -0.736767 -0.61288 0.624717 -0.483845 
0.888841 0.328926 -0.319012 -0.773511 0.473652 -0.421111 -0.487282 0.485145 -0.726079 
-0.849942 0.373034 -0.372081 0.942247 0.126762 -0.310003 -0.908862 0.267205 -0.320268 
-0.820543 0.292577 -0.491028 0.958735 -0.0131606 -0.283998 -0.96454 -0.0290863 -0.262329 
-0.849675 -0.000332326 -0.527306 0.922741 -0.256715 -0.287482 -0.945331 -0.270444 -0.182232 
-0.905617 -0.379177 -0.189954 -0.899002 -0.261068 -0.351624 0.8088 -0.51224 -0.288881 
0.72336 -0.620623 -0.302617 0.708937 -0.519025 -0.477515 -0.813989 -0.546938 -0.195653 
-0.67342 -0.715101 -0.187447 0.559059 -0.774973 -0.294737 0.490643 -0.817967 -0.300333 
0.472936 -0.769021 -0.430044 0.325129 -0.87828 -0.350594 -0.264048 -0.917219 -0.298309 
-0.632912 -0.74703 -0.203392 -0.470357 -0.847322 -0.246597 -0.366999 -0.694453 -0.618908 
0.237692 -0.874471 -0.422852 0.23316 -0.873766 -0.426812 0.230277 -0.871224 -0.433522 
0.172959 -0.856143 -0.486933 0.15036 -0.800563 -0.580078 0.11774 -0.857823 -0.500277 
0.117602 -0.723979 -0.679723 0.0254402 -0.894654 -0.446035 0.0669715 -0.707949 -0.703081 
-0.0524633 -0.927441 -0.370272 -0.00837956 -0.740548 -0.671951 -0.114182 -0.940183 -0.320966 
-0.087564 -0.793069 -0.602805 -0.262855 -0.917536 -0.298387 -0.176904 -0.932678 -0.314352 
-0.165466 -0.874702 -0.455542 0.18147 0.666304 -0.723261 0.128064 0.667556 -0.733463 
0.0904827 0.664993 -0.741348 0.0365232 0.676308 -0.735713 -0.0540295 0.683689 -0.727771 
-0.181023 0.595105 -0.782994 -0.320619 0.451269 -0.832802 0.477051 0.534703 -0.697506 
0.226624 0.668531 -0.708313 0.262124 0.658815 -0.705162 0.173533 0.632813 -0.754609 
0.112653 0.591859 -0.798131 0.0705491 0.552243 -0.830693 0.0332733 0.531985 -0.846099 
-0.0697811 0.503847 -0.86097 -0.208585 0.443688 -0.871569 -0.329365 0.442607 -0.834037 
-0.319601 0.427553 -0.845608 -0.307074 0.431798 -0.84809 0.527386 0.488845 -0.694906 
0.677247 0.338071 -0.653487 0.463073 0.472745 -0.749717 0.252493 0.439013 -0.862273 
0.132822 0.419241 -0.898107 0.0861769 0.415957 -0.905292 0.0453534 0.406525 -0.912513 
-0.148932 0.285969 -0.946594 -0.282976 0.168408 -0.944226 -0.242451 0.214787 -0.946089 
-0.321817 0.432928 -0.842026 -0.260861 0.378326 -0.888156 -0.334234 0.457802 -0.823835 
0.683455 0.326749 -0.652782 0.674939 0.325729 -0.662086 0.378977 0.303445 -0.874241 
0.205036 0.271244 -0.940418 -0.30857 0.0166744 -0.951056 -0.126347 0.151903 -0.980287 
-0.110831 0.287421 -0.95137 -0.434815 0.470561 -0.767795 -0.24114 0.405096 -0.881901 
-0.473603 0.457833 -0.752389 0.746327 0.146199 -0.649324 0.664772 0.147394 -0.732361 
0.384915 0.147357 -0.911113 -0.213451 0.0308174 -0.976468 0.0222381 0.166805 -0.985739 
0.00894912 0.237612 -0.971319 -0.165859 0.286375 -0.943652 -0.616639 0.295819 -0.729553 
-0.442576 0.278057 -0.852532 0.784578 -0.000948972 -0.62003 0.66845 0.00976973 -0.743693 
-0.0773059 0.0170935 -0.996861 0.0733927 0.10911 -0.991316 0.0240994 0.107781 -0.993883 
-0.183814 0.10732 -0.977085 -0.709476 0.025783 -0.704258 -0.464006 0.0760921 -0.882558 
0.759213 -0.239787 -0.60506 0.695954 -0.404226 -0.593506 0.679568 -0.226983 -0.697615 
0.378339 -0.19663 -0.904542 -0.0876529 -0.233227 -0.968464 -0.105441 -0.193078 -0.975502 
0.00851042 -0.0641662 -0.997903 0.116054 -0.0767818 -0.990271 0.0110538 -0.103437 -0.994575 
-0.167224 -0.126264 -0.9778 -0.716174 -0.211146 -0.665216 -0.505 -0.156196 -0.848868 
0.619063 -0.509314 -0.597796 0.442028 -0.670201 -0.596189 0.410648 -0.4697 -0.781505 
0.139059 -0.460351 -0.876778 -0.0727166 -0.432719 -0.898591 -0.154796 -0.432296 -0.888346 
-0.0648947 -0.388365 -0.919218 0.0343387 -0.32961 -0.943492 0.0362906 -0.251722 -0.967119 
0.0402832 -0.188659 -0.981216 0.0396326 -0.221993 -0.974242 -0.0333952 -0.313934 -0.948857 
-0.34877 -0.664263 -0.661146 -0.241532 -0.382285 -0.89192 -0.636984 -0.453337 -0.623487 
-0.599635 -0.501931 -0.6233 -0.584915 -0.4465 -0.677135 0.264615 -0.724286 -0.636701 
0.191715 -0.729995 -0.656012 0.181242 -0.704635 -0.686033 0.0660343 -0.70326 -0.70786 
0.0388775 -0.658874 -0.751248 0.0270174 -0.594122 -0.803921 -0.0232785 -0.53389 -0.845233 
0.0582692 -0.486536 -0.871715 0.0214776 -0.407953 -0.91275 0.078758 -0.50827 -0.857589 
0.0727214 -0.363565 -0.928726 0.016613 -0.566582 -0.823838 0.0454022 -0.360363 -0.931706 
-0.0410324 -0.588814 -0.807226 0.0179818 -0.394521 -0.918711 -0.086876 -0.652661 -0.752653 
-0.0302324 -0.456499 -0.88921 -0.323861 -0.669088 -0.668906 -0.195765 -0.672772 -0.71348 
-0.1696 -0.567272 -0.805877 -0.0204598 0.347491 -0.93746 0.147123 0.332049 -0.931718 
0.0898157 0.387846 -0.917338 -0.0191776 0.348547 -0.937095 0.0422064 0.395704 -0.917408 
-0.0213853 0.346934 -0.937646 -0.0205109 0.347324 -0.937521 -0.186851 0.222394 -0.956884 
0.191879 0.273386 -0.942572 0.208936 0.25339 -0.944531 0.15784 0.279811 -0.946991 
0.0965541 0.308049 -0.946458 -0.0169062 0.223782 -0.974493 -0.0971839 0.0761095 -0.992352 
-0.286236 0.0561815 -0.956511 -0.261578 0.0764832 -0.962147 0.329143 0.151738 -0.932009 
0.379346 0.0258508 -0.924894 0.234641 0.169353 -0.957216 0.170172 0.149952 -0.973938 
0.0319549 0.118538 -0.992435 -0.1908 0.0129294 -0.981544 -0.174395 -0.109254 -0.978596 
-0.222756 -0.0433289 -0.973911 -0.218675 -0.0674139 -0.973466 0.383373 0.0152963 -0.923467 
0.379044 -0.00823175 -0.925342 0.378904 0.0152571 -0.92531 0.212923 0.0054981 -0.977054 
0.112555 -0.0440633 -0.992668 -0.0397781 -0.152804 -0.987456 -0.246892 -0.182426 -0.951717 
-0.126513 -0.172242 -0.976897 -0.172113 -0.0982867 -0.980162 -0.131947 -0.107342 -0.985428 
-0.132334 -0.115116 -0.984498 -0.133578 -0.1109 -0.984814 0.318078 -0.194563 -0.927886 
0.146187 -0.361013 -0.921031 0.170317 -0.198144 -0.965262 -0.0562352 -0.381565 -0.92263 
0.00395704 -0.272824 -0.962056 -0.13296 -0.41825 -0.898548 -0.110875 -0.395486 -0.911755 
-0.10149 -0.301863 -0.947934 -0.113486 -0.398098 -0.910296 -0.119972 -0.395431 -0.910627 

