# vtk DataFile Version 4.2
vtk output
ASCII
DATASET POLYDATA
POINTS 520 float
-35.5803 1.94212 -24.6615 -35.5803 9.32018 -24.9696 -35.5803 -20.1921 -19.2803 
-28.2022 -20.1921 -19.8297 -20.8242 -20.1921 -18.9374 -13.4461 -20.1921 -17.2962 
-42.9584 -12.814 -20.7837 -35.5803 -12.814 -21.6539 -28.2022 -12.814 -22.0013 
-20.8242 -12.814 -20.1829 -13.4461 -12.814 -18.2922 -6.06805 -12.814 -17.8744 
-50.3364 -5.43594 -19.1708 -42.9584 -5.43594 -22.7193 -35.5803 0.294381 -24.3751 
-35.5803 -5.43594 -23.3777 -28.2022 -5.43594 -22.5139 -20.8242 -5.43594 -20.5903 
-13.4461 -5.43594 -18.36 -6.06805 -5.43594 -19.0647 8.68808 -5.43594 -18.1073 
16.0661 -5.43594 -17.4856 -50.3364 1.94212 -20.0638 -39.0994 1.94212 -24.3751 
-42.9584 1.94212 -24.0292 -33.4685 1.94212 -24.3751 -28.2022 1.94212 -23.6355 
-20.8242 1.94212 -21.813 -13.4461 1.94212 -19.6247 -6.06805 1.94212 -18.7966 
1.31001 1.94212 -17.0903 8.68808 1.94212 -18.3902 16.0661 1.94212 -17.4526 
23.4442 1.94212 -17.7077 30.8223 1.94212 -18.0451 38.2003 1.94212 -17.7 
-50.3364 9.32018 -20.4749 -40.9243 9.32018 -24.3751 -42.9584 9.32018 -24.1232 
-29.3315 9.32018 -24.3751 -35.5803 14.8557 -24.3751 -28.2022 9.32018 -24.2704 
-20.8242 9.32018 -22.8352 -13.4461 9.32018 -20.0078 8.68808 9.32018 -17.7691 
16.0661 9.32018 -17.2752 23.4442 9.32018 -17.6127 30.8223 9.32018 -18.0031 
38.2003 9.32018 -17.4621 -50.3364 16.6982 -17.3026 -42.9584 16.6982 -22.3581 
-35.5803 16.6982 -24.1733 -28.2022 16.6982 -23.7944 -20.8242 16.6982 -22.6602 
-13.4461 16.6982 -19.2825 -42.9584 24.0763 -18.9493 -35.5803 24.0763 -22.2109 
-28.2022 24.0763 -21.9241 -20.8242 24.0763 -20.3288 -28.2022 31.4544 -17.3102 
-35.5803 -23.7034 -16.997 -35.5803 -27.5701 -13.0125 -28.2022 -25.9205 -16.997 
-28.2022 -27.5701 -15.6206 -20.8242 -23.9848 -16.997 -20.8242 -27.5701 -14.7214 
-13.4461 -20.8346 -16.997 -13.4461 -27.5701 -12.8564 -6.06805 -27.5701 -9.9564 
-42.1631 -20.1921 -16.997 -42.9584 -19.7419 -16.997 -42.9584 -20.1921 -16.5681 
-11.8209 -20.1921 -16.997 -6.06805 -16.2341 -16.997 -6.06805 -20.1921 -15.7906 
1.31001 -20.1921 -13.3346 8.68808 -20.1921 -12.2827 16.0661 -20.1921 -10.4524 
-48.9404 -12.814 -16.997 -50.3364 -10.1257 -16.997 -50.3364 -12.814 -15.0644 
-1.13366 -12.814 -16.997 1.31001 -12.814 -16.5423 8.68808 -9.60505 -16.997 
8.68808 -12.814 -16.1264 16.0661 -7.03602 -16.997 16.0661 -12.814 -15.0194 
23.4442 -12.814 -13.189 30.8223 -12.814 -12.4794 38.2003 -12.814 -11.2399 
45.5784 -12.814 -9.97183 -52.3662 -5.43594 -16.997 0.731215 -5.43594 -16.997 
2.33755 -5.43594 -16.997 1.31001 -0.565882 -16.997 1.31001 -5.43594 -16.8189 
19.6976 -5.43594 -16.997 23.4442 -2.41437 -16.997 23.4442 -5.43594 -16.489 
30.8223 -3.99861 -16.997 30.8223 -5.43594 -16.7232 38.2003 -2.22239 -16.997 
38.2003 -5.43594 -16.3755 45.5784 -5.43594 -15.4848 52.9564 -5.43594 -12.532 
-54.1263 1.94212 -16.997 -57.7145 1.94212 -9.85206 -6.06805 7.01688 -16.997 
1.31001 4.31757 -16.997 42.0421 1.94212 -16.997 45.5784 1.94212 -16.3313 
52.9564 1.94212 -13.7761 -53.4561 9.32018 -16.997 -7.66606 9.32018 -16.997 
-6.06805 9.32018 -16.1713 2.7779 9.32018 -16.997 1.31001 9.32018 -16.7916 
8.68808 11.5577 -16.997 16.0661 10.5967 -16.997 23.4442 12.3674 -16.997 
30.8223 14.5248 -16.997 40.7858 9.32018 -16.997 38.2003 11.184 -16.997 
45.5784 9.32018 -16.1321 52.9564 9.32018 -13.1833 -50.6061 16.6982 -16.997 
-50.3364 17.2373 -16.997 -8.94166 16.6982 -16.997 -13.4461 23.4471 -16.997 
-6.06805 16.6982 -15.6308 1.31001 16.6982 -14.745 8.68808 16.6982 -14.6499 
16.0661 16.6982 -15.2937 23.4442 16.6982 -16.0526 30.8223 16.6982 -16.4943 
38.2003 16.6982 -15.4104 45.5784 16.6982 -12.9041 52.9564 16.6982 -9.67854 
-45.7433 24.0763 -16.997 -42.9584 26.9718 -16.997 -35.5803 30.4173 -16.997 
-13.9088 24.0763 -16.997 -20.8242 29.0683 -16.997 -13.4461 24.0763 -16.7519 
-6.06805 24.0763 -12.1181 30.8223 24.0763 -9.88506 -30.0236 31.4544 -16.997 
-35.5803 31.4544 -15.4758 -27.122 31.4544 -16.997 -28.2022 31.7267 -16.997 
-20.8242 31.4544 -14.2066 -35.5803 -29.6818 -9.61896 -28.2022 -31.5334 -9.61896 
-20.8242 -32.0747 -9.61896 -13.4461 -30.4568 -9.61896 -6.06805 -27.8826 -9.61896 
-39.5178 -27.5701 -9.61896 -42.9584 -25.3925 -9.61896 -5.24238 -27.5701 -9.61896 
1.31001 -24.6412 -9.61896 1.31001 -27.5701 -6.882 8.68808 -23.6051 -9.61896 
8.68808 -27.5701 -5.62066 16.0661 -21.2081 -9.61896 16.0661 -27.5701 -2.80019 
-48.3777 -20.1921 -9.61896 -50.3364 -17.4875 -9.61896 17.9734 -20.1921 -9.61896 
23.4442 -17.3929 -9.61896 23.4442 -20.1921 -6.92128 30.8223 -15.8753 -9.61896 
30.8223 -20.1921 -3.99112 38.2003 -14.4578 -9.61896 38.2003 -20.1921 -2.29904 
45.5784 -13.1417 -9.61896 -53.1732 -12.814 -9.61896 46.298 -12.814 -9.61896 
52.9564 -8.94691 -9.61896 52.9564 -12.814 -5.43963 -56.3467 -5.43594 -9.61896 
-57.7145 1.51002 -9.61896 57.2751 -5.43594 -9.61896 60.3345 -5.43594 -7.19536 
-57.7982 1.94212 -9.61896 -57.7145 3.33173 -9.61896 59.3801 1.94212 -9.61896 
60.3345 1.94212 -8.78877 -57.3404 9.32018 -9.61896 57.846 9.32018 -9.61896 
60.3345 9.32018 -6.7072 -54.5176 16.6982 -9.61896 -50.3364 23.6897 -9.61896 
1.31001 22.5792 -9.61896 8.68808 21.498 -9.61896 16.0661 22.6601 -9.61896 
23.4442 24.0665 -9.61896 38.2003 23.1022 -9.61896 45.5784 19.9306 -9.61896 
53.0265 16.6982 -9.61896 52.9564 16.7559 -9.61896 -50.0443 24.0763 -9.61896 
-42.9584 31.0139 -9.61896 -13.4461 30.9775 -9.61896 -1.47496 24.0763 -9.61896 
-6.06805 26.3593 -9.61896 1.31001 24.0763 -6.96064 8.68808 24.0763 -5.19225 
16.0661 24.0763 -6.62067 23.7654 24.0763 -9.61896 23.4442 24.0763 -9.59143 
32.2102 24.0763 -9.61896 30.8223 24.2816 -9.61896 38.2003 24.0763 -6.16681 
-42.1611 31.4544 -9.61896 -35.5803 34.3705 -9.61896 -28.2022 35.0627 -9.61896 
-14.5247 31.4544 -9.61896 -20.8242 34.0982 -9.61896 -13.4461 31.4544 -6.97147 
-35.5803 -30.8844 -2.2409 -28.2022 -33.3013 -2.2409 -20.8242 -34.1063 -2.2409 
-13.4461 -34.2616 -2.2409 -6.06805 -33.1644 -2.2409 -6.06805 -34.9482 5.02033 
1.31001 -31.5258 -2.2409 8.68808 -30.0182 -2.2409 16.0661 -27.9574 -2.2409 
-40.8446 -27.5701 -2.2409 -42.9584 -25.9368 -2.2409 16.8167 -27.5701 -2.2409 
23.4442 -24.0524 -2.2409 30.8223 -21.3805 -2.2409 38.2003 -20.2244 -2.2409 
-48.4725 -20.1921 -2.2409 -50.3364 -17.5247 -2.2409 38.2989 -20.1921 -2.2409 
45.5784 -17.5202 -2.2409 45.5784 -20.1921 4.99089 52.9564 -14.9838 -2.2409 
-53.2559 -12.814 -2.2409 55.9537 -12.814 -2.2409 60.3345 -9.42233 -2.2409 
-56.3797 -5.43594 -2.2409 -57.7145 0.821381 -2.2409 63.8591 -5.43594 -2.2409 
-57.9458 1.94212 -2.2409 -57.7145 4.59828 -2.2409 -57.7145 1.94212 -1.596 
64.8225 1.94212 -2.2409 -57.3034 9.32018 -2.2409 63.1272 9.32018 -2.2409 
60.3345 13.4453 -2.2409 -54.2447 16.6982 -2.2409 -50.3364 22.8011 -2.2409 
-50.3364 16.6982 5.08657 45.5784 23.3394 -2.2409 57.216 16.6982 -2.2409 
52.9564 19.4321 -2.2409 -49.2984 24.0763 -2.2409 -42.9584 30.2992 -2.2409 
-42.9584 24.0763 5.09976 -6.06805 28.3899 -2.2409 1.31001 26.0227 -2.2409 
8.68808 25.4219 -2.2409 16.0661 25.6413 -2.2409 23.4442 26.1918 -2.2409 
30.8223 26.3473 -2.2409 42.412 24.0763 -2.2409 38.2003 24.9512 -2.2409 
-40.9734 31.4544 -2.2409 -35.5803 33.9663 -2.2409 -35.5803 31.4544 2.96146 
-28.2022 35.2035 -2.2409 -20.8242 34.7262 -2.2409 -12.0404 31.4544 -2.2409 
-13.4461 32.149 -2.2409 -13.4461 31.4544 0.471879 -6.06805 -34.9732 5.13716 
-35.5803 -29.6431 5.13716 -28.2022 -32.6247 5.13716 -20.8242 -34.0426 5.13716 
-6.61846 -34.9482 5.13716 -13.4461 -34.6354 5.13716 -5.71906 -34.9482 5.13716 
-6.06805 -34.9482 5.21744 1.31001 -34.4178 5.13716 8.68808 -32.4468 5.13716 
16.0661 -30.2273 5.13716 -38.5826 -27.5701 5.13716 -42.9584 -23.7081 5.13716 
-35.5803 -27.5701 9.0457 23.2214 -27.5701 5.13716 23.4442 -27.4814 5.13716 
30.8223 -24.7871 5.13716 38.2003 -22.2553 5.13716 45.5784 -20.2442 5.13716 
-46.0683 -20.1921 5.13716 -50.3364 -13.5293 5.13716 -42.9584 -20.1921 9.79095 
45.6846 -20.1921 5.13716 45.5784 -20.1921 5.51007 52.9564 -16.8895 5.13716 
-50.7902 -12.814 5.13716 -50.3364 -12.814 5.81315 58.4119 -12.814 5.13716 
60.3345 -10.798 5.13716 -53.3904 -5.43594 5.13716 -50.3364 -5.43594 8.72938 
64.8798 -5.43594 5.13716 -54.5813 1.94212 5.13716 -50.3364 1.94212 9.42298 
65.951 1.94212 5.13716 -53.4031 9.32018 5.13716 -50.3364 16.6213 5.13716 
-50.3364 9.32018 8.82156 -42.9584 9.32018 12.1932 63.9585 9.32018 5.13716 
60.3345 14.4152 5.13716 -50.2916 16.6982 5.13716 -42.9584 24.034 5.13716 
-42.9584 16.6982 9.55872 -35.5803 16.6982 12.4158 45.5784 23.3268 5.13716 
57.7692 16.6982 5.13716 52.9564 19.5334 5.13716 -42.9136 24.0763 5.13716 
-35.5803 29.9662 5.13716 -35.5803 24.0763 9.13892 -28.2022 24.0763 11.4604 
-20.8242 24.0763 12.2656 -13.4461 30.0803 5.13716 -13.4461 24.0763 12.0546 
-6.06805 26.6664 5.13716 -6.06805 24.0763 8.97501 1.31001 24.6498 5.13716 
1.31001 24.0763 6.09647 8.68808 24.6287 5.13716 8.68808 24.0763 6.19613 
16.0661 25.1152 5.13716 16.0661 24.0763 7.69804 23.4442 25.6236 5.13716 
23.4442 24.0763 9.58973 30.8223 25.9726 5.13716 30.8223 24.0763 10.7441 
41.3011 24.0763 5.13716 38.2003 24.5664 5.13716 38.2003 24.0763 6.80219 
-30.8484 31.4544 5.13716 -28.2022 32.0714 5.13716 -28.2022 31.4544 5.84336 
-17.3864 31.4544 5.13716 -20.8242 32.6202 5.13716 -20.8242 31.4544 6.54728 
-28.2022 -29.0618 12.5152 -20.8242 -30.3799 12.5152 -13.4461 -31.071 12.5152 
-6.06805 -32.0413 12.5152 1.31001 -31.5007 12.5152 8.68808 -29.3569 12.5152 
16.0661 -28.3779 12.5152 -31.4703 -27.5701 12.5152 -35.5803 -24.7802 12.5152 
-28.2022 -27.5701 14.1146 -20.8242 -27.5701 15.1875 -13.4461 -27.5701 15.7365 
-6.06805 -27.5701 16.7735 1.31001 -27.5701 16.4752 8.68808 -27.5701 14.4173 
20.8218 -27.5701 12.5152 16.0661 -27.5701 13.582 23.4442 -27.1127 12.5152 
30.8223 -24.7878 12.5152 38.2003 -22.1927 12.5152 -40.3959 -20.1921 12.5152 
-42.9584 -15.9123 12.5152 -35.5803 -20.1921 15.8879 -28.2022 -20.1921 18.4518 
-20.8242 -20.1921 19.1307 -13.4461 -20.1921 19.0347 8.68808 -20.1921 19.6407 
30.8223 -20.1921 19.2839 43.2022 -20.1921 12.5152 38.2003 -20.1921 15.8891 
[...]
POINT_DATA 520
SCALARS ImageScalars float
LOOKUP_TABLE default
0 0 0 0 0 0 0 0 0 
0 0 0 0 0 0 0 0 0 
0 0 0 0 0 0 0 0 0 
0 0 0 0 0 0 0 0 0 
0 0 0 0 0 0 0 0 0 
0 0 0 0 0 0 0 0 0 
0 0 0 0 0 0 0 0 0 
0 0 0 0 0 0 0 0 0 
0 0 0 0 0 0 0 0 0 
0 0 0 0 0 0 0 0 0 
0 0 0 0 0 0 0 0 0 
0 0 0 0 0 0 0 0 0 
0 0 0 0 0 0 0 0 0 
0 0 0 0 0 0 0 0 0 
0 0 0 0 0 0 0 0 0 
0 0 0 0 0 0 0 0 0 
0 0 0 0 0 0 0 0 0 
0 0 0 0 0 0 0 0 0 
0 0 0 0 0 0 0 0 0 
0 0 0 0 0 0 0 0 0 
0 0 0 0 0 0 0 0 0 
0 0 0 0 0 0 0 0 0 
0 0 0 0 0 0 0 0 0 
0 0 0 0 0 0 0 0 0 
0 0 0 0 0 0 0 0 0 
0 0 0 0 0 0 0 0 0 
0 0 0 0 0 0 0 0 0 
0 0 0 0 0 0 0 0 0 
0 0 0 0 0 0 0 0 0 
0 0 0 0 0 0 0 0 0 
0 0 0 0 0 0 0 0 0 
0 0 0 0 0 0 0 0 0 
0 0 0 0 0 0 0 0 0 
0 0 0 0 0 0 0 0 0 
0 0 0 0 0 0 0 0 0 
0 0 0 0 0 0 0 0 0 
0 0 0 0 0 0 0 0 0 
0 0 0 0 0 0 0 0 0 
0 0 0 0 0 0 0 0 0 
0 0 0 0 0 0 0 0 0 
0 0 0 0 0 0 0 0 0 
0 0 0 0 0 0 0 0 0 
0 0 0 0 0 0 0 0 0 
0 0 0 0 0 0 0 0 0 
0 0 0 0 0 0 0 0 0 
0 0 0 0 0 0 0 0 0 
0 0 0 0 0 0 0 0 0 
0 0 0 0 0 0 0 0 0 
0 0 0 0 0 0 0 0 0 
0 0 0 0 0 0 0 0 0 
0 0 0 0 0 0 0 0 0 
0 0 0 0 0 0 0 0 0 
0 0 0 0 0 0 0 0 0 
0 0 0 0 0 0 0 0 0 
0 0 0 0 0 0 0 0 0 
0 0 0 0 0 0 0 0 0 
0 0 0 0 0 0 0 0 0 
0 0 0 0 0 0 0 
NORMALS Normals float
-0.0246472 0.107062 0.993947 0.010885 -0.0319663 0.99943 0.1846 0.441268 0.878183 
-0.023464 0.361411 0.932111 -0.169197 0.306998 0.936549 -0.190937 0.287036 0.938698 
0.294841 0.347006 0.890312 0.0786071 0.250347 0.96496 -0.0952935 0.178342 0.979343 
-0.241292 0.103814 0.964884 -0.151225 0.0679065 0.986164 -0.112767 0.200387 0.973205 
0.619664 0.224473 0.752083 0.221763 0.218873 0.950219 -0.0260054 0.127701 0.991472 
-0.0171716 0.198841 0.979881 -0.183386 0.104636 0.977456 -0.272565 0.104239 0.956474 
-0.102285 0.0903107 0.990647 -0.09577 0.0647007 0.993299 0.040901 0.14813 0.988122 
-0.108565 0.145463 0.983389 0.569814 0.061535 0.819467 0.115771 0.0955563 0.988669 
0.264613 0.0815596 0.960899 -0.0715156 0.109896 0.991367 -0.183535 0.117569 0.975957 
-0.263566 0.14907 0.953054 -0.193089 0.107493 0.975275 -0.17761 -0.189811 0.965622 
-0.020737 -0.00119555 0.999784 0.022207 -0.0229198 0.999491 -0.0468859 -0.0144349 0.998796 
0.0400119 0.0738334 0.996468 -0.000767382 0.0798245 0.996809 -0.112657 0.0665779 0.991401 
0.620933 -0.120717 0.774513 0.161584 -0.0813385 0.983501 0.223097 -0.099227 0.969733 
-0.11737 0.00246114 0.993085 0.0646568 -0.130426 0.989348 -0.13913 0.00888627 0.990234 
-0.269452 0.0522598 0.961595 -0.417448 -0.0173931 0.908534 0.0278589 -0.20677 0.977993 
-0.0101054 -0.120253 0.992692 0.0497836 -0.104164 0.993313 -0.00930398 -0.0932885 0.995596 
-0.123992 -0.134538 0.98312 0.708584 -0.349433 0.61303 0.352032 -0.295428 0.888142 
0.0848306 -0.164871 0.98266 -0.0971734 -0.147738 0.984241 -0.278324 -0.144743 0.949518 
-0.440571 -0.183876 0.878685 0.469997 -0.487741 0.73567 0.15747 -0.438168 0.884993 
-0.109847 -0.365349 0.924367 -0.30341 -0.411249 0.859544 -0.0468602 -0.762895 0.644821 
0.237194 0.570564 0.786255 0.31875 0.794918 0.51624 0.0228385 0.589095 0.807741 
0.0530567 0.694288 0.717739 -0.164431 0.464738 0.870046 -0.133943 0.657649 0.741321 
-0.194435 0.315554 0.928774 -0.237518 0.665848 0.707271 -0.281751 0.698062 0.658275 
0.402023 0.562122 0.72277 0.421221 0.560684 0.712886 0.439039 0.582598 0.683977 
-0.195658 0.314234 0.928964 -0.159845 0.29439 0.942223 -0.226082 0.424761 0.876621 
-0.205148 0.534757 0.819725 -0.149631 0.563395 0.812525 -0.269662 0.578708 0.769662 
0.632079 0.406637 0.659638 0.681161 0.355482 0.64004 0.740198 0.438542 0.509693 
-0.1162 0.189709 0.97494 -0.11855 0.189308 0.974735 -0.0297545 0.2597 0.965231 
-0.0910586 0.343704 0.934653 -0.120438 0.198856 0.9726 -0.179573 0.40685 0.895671 
-0.147959 0.523492 0.839086 -0.101106 0.624547 0.774415 -0.140592 0.672259 0.726844 
-0.252826 0.702137 0.665644 0.718457 0.249582 0.649252 -0.0721412 0.0389145 0.996635 
-0.0532408 0.0541652 0.997112 -0.0366219 0.0117114 0.999261 -0.0692117 0.0379842 0.996879 
-0.0788262 0.204095 0.975772 -0.0124621 0.185038 0.982652 -0.0502652 0.265547 0.962787 
-0.00304652 0.28068 0.959796 -0.00542737 0.331061 0.943594 -0.0855382 0.215786 0.972687 
-0.0689451 0.342991 0.936805 -0.22673 0.372473 0.899921 -0.415394 0.409862 0.812072 
0.737981 0.0561005 0.672485 0.978088 0.0651371 0.197739 -0.202501 -0.209953 0.956511 
0.0204499 -0.0456242 0.998749 -0.179966 0.0426392 0.982748 -0.244905 0.0298945 0.969086 
-0.407595 0.0368737 0.912418 0.763198 -0.183743 0.619489 -0.264637 -0.173919 0.948535 
-0.207572 -0.205098 0.956477 0.093469 -0.15752 0.983082 0.110277 -0.145264 0.983228 
0.034344 -0.309013 0.950438 0.00204288 -0.169235 0.985574 0.0554306 -0.204783 0.977237 
-0.0264855 -0.305152 0.951935 -0.164653 -0.146054 0.975478 -0.141043 -0.196843 0.970237 
-0.247665 -0.173075 0.953261 -0.475291 -0.250568 0.843395 0.719492 -0.350688 0.599457 
0.714385 -0.364975 0.597032 -0.340678 -0.195842 0.919557 -0.432983 -0.40696 0.804307 
-0.277324 -0.214396 0.93655 -0.0638967 -0.459086 0.886091 0.030531 -0.587424 0.808703 
0.0852494 -0.461847 0.882854 0.067796 -0.376466 0.923946 -0.0361092 -0.410978 0.91093 
-0.20223 -0.434921 0.877466 -0.343617 -0.590563 0.73018 -0.518983 -0.625188 0.58292 
0.575937 -0.531844 0.620837 0.492329 -0.614803 0.616141 0.190472 -0.735012 0.650752 
-0.424523 -0.428335 0.79769 -0.324484 -0.636723 0.699495 -0.433639 -0.434063 0.78965 
-0.456387 -0.617296 0.640826 -0.0527638 -0.852547 0.51998 0.0119541 -0.772094 0.635396 
0.20602 -0.8118 0.546385 -0.0882885 -0.765371 0.637505 -0.0473079 -0.776258 0.628638 
-0.310695 -0.796215 0.519144 0.348158 0.876691 0.331963 0.145471 0.909604 0.389176 
-0.0590487 0.8726 0.484852 -0.227266 0.780776 0.582012 -0.278812 0.706336 0.650656 
0.479524 0.829732 0.285662 0.598087 0.762225 0.247599 -0.271874 0.69902 0.661404 
-0.1985 0.63913 0.743041 -0.192374 0.713512 0.673716 -0.146586 0.641515 0.752975 
-0.173861 0.780895 0.59998 -0.276694 0.602801 0.74838 -0.340785 0.818797 0.461992 
0.744546 0.633203 0.211436 0.800434 0.566389 0.196236 -0.271577 0.605693 0.747918 
-0.226165 0.6306 0.742424 -0.296459 0.696714 0.653224 -0.134975 0.724529 0.675899 
-0.198575 0.823741 0.531054 -0.153253 0.709321 0.688024 -0.226506 0.886813 0.402812 
-0.252799 0.714923 0.651903 0.859133 0.474876 0.190741 -0.266318 0.704413 0.657933 
-0.41603 0.558216 0.717854 -0.430992 0.729674 0.530869 0.940593 0.27587 0.197942 
0.979571 0.0772264 0.185679 -0.537479 0.398152 0.743365 -0.667771 0.415099 0.61788 
0.980454 0.0653686 0.185572 0.982104 0.0151805 0.187727 -0.643434 0.01829 0.765283 
-0.700727 0.00365922 0.71342 0.959172 -0.203914 0.195979 -0.655877 -0.322978 0.682283 
-0.766546 -0.396541 0.505137 0.892735 -0.414142 0.177513 0.769756 -0.625218 0.128755 
-0.242482 -0.757482 0.606155 0.00564071 -0.793253 0.608866 0.146521 -0.825137 0.545601 
0.0866342 -0.886386 0.454768 -0.233901 -0.86896 0.436118 -0.363381 -0.743449 0.56146 
-0.521381 -0.625623 0.580308 -0.518741 -0.628818 0.579219 0.759572 -0.637976 0.126638 
0.554578 -0.824785 0.110336 -0.427617 -0.835151 0.345928 -0.341468 -0.760576 0.552199 
-0.470246 -0.743348 0.475711 -0.240326 -0.882883 0.403436 -0.0157749 -0.942187 0.334715 
0.106202 -0.929295 0.35374 0.0807602 -0.885853 0.456884 0.0865172 -0.887274 0.453056 
-0.0877769 -0.86757 0.489508 -0.0542867 -0.861253 0.505268 -0.220507 -0.943371 0.247848 
0.52096 -0.845694 0.115766 0.259446 -0.948311 0.182741 -0.0112572 -0.978805 0.204487 
-0.40401 -0.85307 0.330224 -0.275618 -0.914182 0.297163 -0.418682 -0.885827 0.200038 
0.43063 0.902528 -0.00118761 0.198577 0.977939 0.0648258 0.0635569 0.99163 0.112385 
-0.0550028 0.969827 0.237509 -0.163587 0.899755 0.404574 -0.0151914 0.998994 -0.0421835 
-0.195434 0.832978 0.517642 -0.20423 0.86298 0.46212 -0.340475 0.830746 0.440384 
0.589207 0.806447 -0.049785 0.656489 0.750566 -0.075318 -0.348752 0.823431 0.447586 
-0.370522 0.775744 0.510818 -0.226881 0.837696 0.49678 -0.226646 0.887768 0.400625 
0.780482 0.613709 -0.119199 0.819904 0.557347 -0.130849 -0.228125 0.887158 0.401136 
-0.30823 0.85643 0.414152 -0.369959 0.922527 0.109883 -0.436751 0.810822 0.389636 
0.87208 0.473041 -0.125333 -0.518062 0.771686 0.368934 -0.680481 0.656619 0.325265 
0.945951 0.2803 -0.16312 0.981774 0.0919772 -0.166312 -0.860137 0.400087 0.316379 
0.984126 0.0589072 -0.167412 0.983294 -0.0430213 -0.176869 0.978411 0.0567504 -0.198724 
-0.950481 -0.0301045 0.309322 0.95603 -0.220574 -0.193271 -0.861984 -0.417843 0.287037 
-0.762238 -0.579959 0.287472 0.858208 -0.460229 -0.227304 0.746067 -0.615601 -0.253811 
0.663032 -0.423355 -0.617381 -0.355157 -0.917333 0.179897 -0.630029 -0.744181 0.221941 
-0.505505 -0.847663 0.161034 0.719369 -0.641203 -0.267146 0.563731 -0.785747 -0.254576 
0.527357 -0.533711 -0.661095 -0.381204 -0.92446 0.00752148 -0.189287 -0.977397 0.0941587 
-0.026531 -0.985656 0.166671 0.0521058 -0.989773 0.132792 0.0479372 -0.994483 0.0933081 
-0.0794562 -0.992642 0.0913719 -0.287809 -0.948256 0.134077 -0.195463 -0.977247 0.082352 
0.494657 -0.834564 -0.242524 0.308253 -0.920286 -0.240942 0.313298 -0.80378 -0.505749 
0.0471119 -0.984013 -0.171755 -0.218079 -0.971262 -0.0953566 -0.394683 -0.917732 -0.04465 
-0.391347 -0.918735 -0.0526699 -0.379455 -0.906776 -0.18377 -0.0131848 0.998732 -0.048595 
0.476527 0.830508 -0.288406 0.266486 0.93121 -0.248664 0.131594 0.971544 -0.196938 
-0.00757771 0.998357 -0.0567902 0.0629436 0.984632 -0.162906 -0.0201709 0.998748 -0.0457737 
-0.0126885 0.998493 -0.0533967 -0.166627 0.98595 0.0117483 -0.271151 0.96232 -0.0204052 
-0.310281 0.950507 0.0162092 0.564128 0.768943 -0.300809 0.68619 0.644915 -0.336493 
0.487134 0.740972 -0.462234 -0.34329 0.924668 0.164747 -0.34461 0.923315 0.169509 
-0.329563 0.922548 0.200734 -0.268923 0.954588 0.128227 -0.370276 0.92318 0.103128 
0.743536 0.559408 -0.366355 0.80133 0.426893 -0.419085 0.676162 0.497463 -0.543448 
-0.371406 0.922778 0.102658 -0.373024 0.924223 0.0816418 -0.472624 0.880681 0.0320609 
0.806434 0.413168 -0.423033 0.796987 0.402959 -0.44993 -0.677706 0.735202 0.0138685 
-0.759036 0.650735 -0.0201918 0.826352 0.201217 -0.525978 0.724513 0.143078 -0.674248 
-0.895569 0.437859 -0.0789646 0.807447 0.00737521 -0.589894 0.649001 0.00790916 -0.760746 
-0.99625 -0.0511333 -0.06979 0.752488 -0.23861 -0.613862 0.662011 -0.4208 -0.620217 
0.608145 -0.233845 -0.758602 0.245853 -0.29017 -0.924855 -0.878291 -0.464469 -0.113461 
-0.736175 -0.665886 -0.121004 0.660449 -0.42255 -0.620692 0.526179 -0.532248 -0.66321 
0.397956 -0.36646 -0.841034 0.21293 -0.288417 -0.933529 -0.330843 -0.923142 -0.195836 
-0.614581 -0.780023 -0.117708 -0.478297 -0.870723 -0.114341 0.525682 -0.532673 -0.663263 
0.31487 -0.700157 -0.64081 0.316321 -0.449239 -0.835539 0.195095 -0.390256 -0.899799 
0.0362378 -0.397485 -0.916893 -0.339097 -0.841786 -0.420012 -0.142019 -0.528851 -0.836748 
-0.327389 -0.864233 -0.381993 -0.272132 -0.772334 -0.573972 -0.122639 -0.917439 -0.378505 
-0.113906 -0.899132 -0.422595 0.0317786 -0.951456 -0.30614 0.0458034 -0.935508 -0.350325 
0.0658333 -0.97112 -0.229331 0.096365 -0.941184 -0.323863 0.0565055 -0.977743 -0.202053 
0.0772673 -0.930273 -0.358639 -0.0684802 -0.980088 -0.186382 -0.0496006 -0.912347 -0.406403 
-0.233878 -0.955551 -0.179507 -0.165606 -0.971929 -0.167121 -0.173541 -0.959859 -0.220351 
0.197966 -0.765501 -0.612224 0.13638 -0.784613 -0.6048 0.138563 -0.759154 -0.635991 
-0.233839 -0.856368 -0.460384 -0.125881 -0.856085 -0.50127 -0.102449 -0.810454 -0.576774 
0.256875 0.738837 -0.623005 0.11568 0.763636 -0.635199 0.0930347 0.754374 -0.649818 
0.0240936 0.809278 -0.586931 -0.15512 0.806284 -0.570827 -0.176932 0.793562 -0.582198 
-0.139444 0.870653 -0.47172 0.352215 0.692987 -0.629058 0.468507 0.59458 -0.653434 
0.247676 0.676104 -0.693931 0.0909154 0.627277 -0.773472 0.0918022 0.584295 -0.806332 
0.0449548 0.572304 -0.818808 -0.128812 0.617695 -0.775797 -0.148814 0.722242 -0.675441 
-0.19324 0.912731 -0.359971 -0.11325 0.842544 -0.526587 -0.222289 0.927175 -0.301554 
-0.311196 0.917509 -0.247658 -0.344649 0.903816 -0.25364 0.587123 0.44858 -0.673842 
0.611326 0.306674 -0.729542 0.429607 0.378232 -0.819987 0.182912 0.300618 -0.936041 
0.0337996 0.265897 -0.963409 0.0556037 0.218158 -0.974328 0.00411352 0.426961 -0.904261 
-0.199109 0.585672 -0.785713 -0.376583 0.874671 -0.305184 -0.337131 0.802397 -0.492445 
-0.395284 0.855173 -0.335306 -0.520317 0.741281 -0.423996 0.609946 0.220619 -0.761113 
0.560637 0.188793 -0.806253 0.344262 0.0384218 -0.938087 0.168605 -0.0483495 -0.984497 
0.00756257 -0.0491783 -0.998761 0.0223683 0.0143031 -0.999647 -0.332328 0.447155 -0.830428 
-0.608657 0.660792 -0.439193 -0.515978 0.624092 -0.586751 -0.760221 0.462633 -0.456108 
0.530542 0.0547515 -0.845888 0.441213 0.0223755 -0.897123 0.229102 -0.111696 -0.966973 
0.106957 -0.248288 -0.962763 0.0918518 -0.279689 -0.955687 0.0655221 -0.0778566 -0.994809 
0.0625806 0.0233368 -0.997767 -0.800809 0.338422 -0.494142 -0.726871 0.321262 -0.607001 
0.470615 -0.0615445 -0.880189 0.260462 -0.265827 -0.928168 0.357019 -0.125355 -0.925648 
0.10907 -0.189951 -0.975716 -0.0133345 -0.249003 -0.968411 0.0950295 -0.311551 -0.945466 
0.378881 -0.281798 -0.881498 0.0591095 -0.153591 -0.986365 -0.803467 -0.071167 -0.591081 
-0.694762 -0.0835749 -0.714368 0.218298 -0.281115 -0.934516 0.20715 -0.284859 -0.935919 
0.128351 -0.235153 -0.963446 -0.00200725 -0.167363 -0.985893 0.0314751 -0.115055 -0.99286 
0.358722 -0.173407 -0.917196 0.142346 -0.341977 -0.928864 0.0741382 -0.271008 -0.959718 
-0.410767 -0.388956 -0.824611 -0.741432 -0.413578 -0.528424 -0.722621 -0.436163 -0.536265 
-0.702241 -0.413395 -0.579622 0.19708 -0.273942 -0.941337 0.133737 -0.255276 -0.957574 
0.0925639 -0.174809 -0.980242 0.048521 -0.346545 -0.936778 0.0981398 -0.0892168 -0.991165 
-0.10293 -0.462902 -0.880413 0.08668 -0.166604 -0.982207 -0.136973 -0.612198 -0.77875 
-0.00360756 -0.509077 -0.860713 -0.0114478 -0.659434 -0.751675 0.0337909 -0.58008 -0.813859 
0.151448 -0.754584 -0.638488 0.198019 -0.626664 -0.753712 0.16492 -0.822367 -0.544531 
0.179353 -0.545001 -0.819027 0.0936352 -0.866643 -0.490064 0.0852723 -0.498459 -0.86271 
-0.0409219 -0.872676 -0.486582 -0.0292311 -0.520523 -0.853347 -0.185558 -0.875573 -0.446026 
-0.148801 -0.547248 -0.823637 -0.293647 -0.809434 -0.508516 -0.28666 -0.660172 -0.694262 
-0.492572 -0.706839 -0.507693 -0.427209 -0.756695 -0.494878 -0.439814 -0.707995 -0.552545 
0.0772598 0.200047 -0.976735 -0.0290788 0.305257 -0.951826 0.0358096 0.464572 -0.884811 
-0.0559678 0.501346 -0.863435 0.0757923 0.193316 -0.978205 0.0776139 0.191888 -0.978343 
-0.00486425 0.362404 -0.932009 -0.0192487 0.276144 -0.960923 0.0186399 0.429363 -0.902939 
0.00976888 0.399278 -0.916778 0.039647 0.434484 -0.899807 -0.117186 0.515893 -0.8486 
-0.0516642 0.47296 -0.879568 -0.169833 0.502763 -0.847577 -0.218293 0.47322 -0.85347 
0.0887514 -0.0201633 -0.99585 0.109282 -0.0202941 -0.993804 0.12933 -0.0419845 -0.990712 
0.124265 0.00555365 -0.992234 0.0402862 0.158908 -0.986471 0.0257186 0.0559214 -0.998104 
0.0130041 0.0865873 -0.996159 -0.0606455 0.186984 -0.980489 -0.31958 0.43479 -0.841918 
-0.152225 0.309916 -0.938499 -0.322884 0.428065 -0.844101 -0.360604 0.265897 -0.894015 
0.149242 -0.0969967 -0.984032 0.0460207 0.00478237 -0.998929 0.164429 -0.169901 -0.971646 
0.20102 -0.171623 -0.964436 0.0557636 -0.0514124 -0.997119 -0.0352274 -0.101228 -0.994239 
0.0835575 -0.0756888 -0.993624 0.0625808 0.00655457 -0.998018 -0.0215569 0.0841601 -0.996219 
-0.162365 0.158562 -0.973907 -0.368585 0.255162 -0.893889 -0.355372 0.252086 -0.900091 
0.136727 -0.0915567 -0.986369 0.0355977 -0.0749004 -0.996555 0.0695734 -0.160486 -0.984583 
0.0201747 -0.0184851 -0.999626 0.0768636 -0.150704 -0.985586 0.0984792 -0.140158 -0.98522 
0.00214006 -0.0260652 -0.999658 0.117828 -0.001876 -0.993032 0.0982253 -0.00435494 -0.995155 
-0.00439818 -0.0605431 -0.998156 -0.15452 -0.0787488 -0.984846 -0.378806 -0.10128 -0.919917 
-0.358035 -0.157607 -0.92031 -0.349289 -0.0987561 -0.931796 0.175439 -0.287258 -0.94165 
0.18722 -0.303774 -0.934168 0.183529 -0.288267 -0.939798 0.131013 -0.268218 -0.954408 
0.103523 -0.13048 -0.986031 0.0912966 -0.406925 -0.908888 0.116953 -0.123431 -0.985437 
-0.0270863 -0.49032 -0.871122 0.00169232 -0.164151 -0.986434 -0.128837 -0.414748 -0.900769 
-0.0976469 -0.235392 -0.966983 -0.279987 -0.334653 -0.899786 -0.229404 -0.382687 -0.894944 
-0.194211 -0.294341 -0.935759 
