# vtk DataFile Version 4.2
vtk output
ASCII
DATASET POLYDATA
POINTS 555 float
-16.1361 -37.8676 -13.2627 -7.8057 -37.8676 -13.8274 0.524683 -37.8676 -14.3009 
8.85506 -37.8676 -14.3692 17.1854 -37.8676 -14.5281 25.5158 -37.8676 -14.9729 
33.8462 -37.8676 -13.5007 42.1766 -37.8676 -11.9691 -32.7968 -29.5373 -13.2471 
-24.4665 -29.5373 -13.3611 -16.1361 -29.5373 -14.4765 -7.8057 -29.5373 -14.9364 
0.524683 -29.5373 -15.1615 8.85506 -29.5373 -15.5774 17.1854 -29.5373 -16.4609 
25.5158 -29.5373 -17.0154 33.8462 -29.5373 -16.3551 42.1766 -29.5373 -14.5527 
50.507 -29.5373 -12.0973 -41.1272 -21.2069 -13.88 -32.7968 -21.2069 -13.9389 
-24.4665 -21.2069 -13.8214 -16.1361 -21.2069 -14.4119 -7.8057 -21.2069 -14.8641 
0.524683 -21.2069 -14.3934 8.85506 -21.2069 -15.3731 17.1854 -21.2069 -16.7414 
25.5158 -21.2069 -17.4157 33.8462 -21.2069 -17.3328 42.1766 -21.2069 -15.7931 
50.507 -21.2069 -13.4312 -49.4576 -12.8765 -13.122 -41.1272 -12.8765 -14.4234 
-32.7968 -12.8765 -14.5983 -24.4665 -12.8765 -14.5828 -16.1361 -12.8765 -14.3587 
-7.8057 -12.8765 -15.7134 0.524683 -12.8765 -16.5294 8.85506 -12.8765 -15.6364 
17.1854 -12.8765 -15.8819 25.5158 -12.8765 -16.7068 33.8462 -12.8765 -17.2708 
42.1766 -12.8765 -16.8187 50.507 -12.8765 -15.7331 58.8373 -12.8765 -12.4735 
-57.788 -4.54612 -12.9654 -49.4576 -4.54612 -15.673 -41.1272 -4.54612 -15.637 
-32.7968 -4.54612 -15.557 -24.4665 -4.54612 -15.0604 -16.1361 -4.54612 -16.8655 
-7.8057 -4.54612 -17.4006 0.524683 -4.54612 -16.5755 8.85506 -4.54612 -18.2437 
17.1854 -4.54612 -15.2686 25.5158 -4.54612 -16.6569 33.8462 -4.54612 -17.4575 
42.1766 -4.54612 -17.4922 50.507 -4.54612 -16.0965 58.8373 -4.54612 -12.3534 
-49.4576 3.78426 -15.8641 -41.1272 3.78426 -16.6066 -32.7968 3.78426 -16.1939 
-24.4665 3.78426 -15.3796 -16.1361 3.78426 -16.1762 -7.8057 3.78426 -18.4509 
0.524683 3.78426 -15.0393 8.85506 3.78426 -18.0836 17.1854 3.78426 -17.0267 
25.5158 3.78426 -17.7365 33.8462 3.78426 -18.1893 42.1766 3.78426 -17.7741 
50.507 3.78426 -16.0096 -57.788 12.1146 -12.0388 -49.4576 12.1146 -15.9081 
-41.1272 12.1146 -16.8427 -32.7968 12.1146 -16.5542 -24.4665 12.1146 -15.7483 
-16.1361 12.1146 -15.1158 -7.8057 12.1146 -17.499 0.524683 12.1146 -17.6844 
8.85506 12.1146 -15.6861 17.1854 12.1146 -17.4839 25.5158 12.1146 -18.4606 
33.8462 12.1146 -18.6371 42.1766 12.1146 -17.4661 50.507 12.1146 -15.5576 
-57.788 20.445 -11.9841 -49.4576 20.445 -15.321 -41.1272 20.445 -16.326 
-32.7968 20.445 -16.7708 -24.4665 20.445 -16.9196 -16.1361 20.445 -16.0534 
-7.8057 20.445 -15.3014 0.524683 20.445 -15.9225 8.85506 20.445 -16.0482 
17.1854 20.445 -17.2184 25.5158 20.445 -18.1094 33.8462 20.445 -17.8276 
42.1766 20.445 -16.4264 50.507 20.445 -13.0769 -49.4576 28.7754 -11.8984 
-41.1272 28.7754 -15.6583 -32.7968 28.7754 -16.6878 -24.4665 28.7754 -16.6322 
-16.1361 28.7754 -16.3471 -7.8057 28.7754 -16.4342 0.524683 28.7754 -16.5757 
8.85506 28.7754 -16.8471 17.1854 28.7754 -17.1137 25.5158 28.7754 -16.8729 
33.8462 28.7754 -16.3897 42.1766 28.7754 -14.4358 -41.1272 37.1058 -12.1754 
-32.7968 37.1058 -15.8081 -24.4665 37.1058 -15.564 -16.1361 37.1058 -15.9024 
-7.8057 37.1058 -16.3493 0.524683 37.1058 -16.4576 8.85506 37.1058 -16.8063 
17.1854 37.1058 -16.7937 25.5158 37.1058 -14.9764 33.8462 37.1058 -13.3717 
-16.1361 45.4362 -13.2103 -7.8057 45.4362 -14.1417 0.524683 45.4362 -14.9324 
8.85506 45.4362 -15.1936 17.1854 45.4362 -13.8266 -32.7968 -46.198 -5.86487 
-24.4665 -46.198 -8.17597 -16.1361 -41.3476 -11.8582 -16.1361 -46.198 -9.28206 
-7.8057 -43.0344 -11.8582 -7.8057 -46.198 -10.4714 0.524683 -44.3415 -11.8582 
0.524683 -46.198 -11.0275 8.85506 -43.8211 -11.8582 8.85506 -46.198 -10.5601 
17.1854 -43.2476 -11.8582 17.1854 -46.198 -9.91845 25.5158 -43.0704 -11.8582 
25.5158 -46.198 -8.7309 33.8462 -40.476 -11.8582 33.8462 -46.198 -4.9244 
42.1766 -38.0015 -11.8582 -49.4576 -37.8676 -4.99991 -41.1272 -37.8676 -8.84589 
-32.7968 -33.1611 -11.8582 -32.7968 -37.8676 -10.1076 -23.6232 -37.8676 -11.8582 
-24.4665 -37.035 -11.8582 -24.4665 -37.8676 -11.6774 42.3454 -37.8676 -11.8582 
50.507 -29.905 -11.8582 -49.4576 -29.5373 -9.88974 -38.847 -29.5373 -11.8582 
-41.1272 -27.8047 -11.8582 -41.1272 -29.5373 -11.4016 50.8354 -29.5373 -11.8582 
-57.788 -21.2069 -7.63366 -46.9158 -21.2069 -11.8582 -49.4576 -17.6983 -11.8582 
-49.4576 -21.2069 -11.0435 54.2812 -21.2069 -11.8582 58.8373 -15.2547 -11.8582 
58.8373 -21.2069 -9.28808 -53.9137 -12.8765 -11.8582 -57.788 -9.24034 -11.8582 
-57.788 -12.8765 -10.387 59.6692 -12.8765 -11.8582 -59.4098 -4.54612 -11.8582 
-57.788 3.27819 -11.8582 59.5733 -4.54612 -11.8582 58.8373 1.40508 -11.8582 
67.1677 -4.54612 -3.81463 -66.1184 3.78426 -3.87223 -57.6474 3.78426 -11.8582 
-57.788 6.77189 -11.8582 -57.788 3.78426 -11.7688 58.5172 3.78426 -11.8582 
58.8373 3.78426 -11.6343 -58.0519 12.1146 -11.8582 57.4645 12.1146 -11.8582 
58.8373 12.1146 -10.7572 -57.951 20.445 -11.8582 -57.788 20.7292 -11.8582 
52.3114 20.445 -11.8582 50.507 23.5874 -11.8582 -49.528 28.7754 -11.8582 
-49.4576 28.8691 -11.8582 46.7418 28.7754 -11.8582 42.1766 33.782 -11.8582 
50.507 28.7754 -7.83786 -41.8122 37.1058 -11.8582 -41.1272 37.6049 -11.8582 
-32.7968 44.8273 -11.8582 -24.4665 45.1353 -11.8582 25.5158 43.8801 -11.8582 
37.7124 37.1058 -11.8582 33.8462 39.5171 -11.8582 42.1766 37.1058 -8.66035 
-32.7968 45.4362 -11.1628 -23.5311 45.4362 -11.8582 -24.4665 45.4362 -11.6751 
-16.1361 47.4966 -11.8582 -7.8057 50.7461 -11.8582 0.524683 52.7159 -11.8582 
8.85506 52.6396 -11.8582 23.3336 45.4362 -11.8582 17.1854 49.1961 -11.8582 
25.5158 45.4362 -10.9587 33.8462 45.4362 -5.63926 -16.1361 53.7665 -4.73612 
-7.8057 53.7665 -9.0447 0.524683 53.7665 -10.8802 8.85506 53.7665 -10.6955 
17.1854 53.7665 -6.76274 -32.7968 -48.4932 -3.52784 -24.4665 -50.3389 -3.52784 
-16.1361 -52.0247 -3.52784 -7.8057 -53.7335 -3.52784 -7.8057 -54.5284 3.369 
0.524683 -53.1371 -3.52784 8.85506 -51.9857 -3.52784 17.1854 -50.872 -3.52784 
25.5158 -49.5528 -3.52784 33.8462 -46.8088 -3.52784 -49.4576 -39.6006 -3.52784 
-37.8406 -46.198 -3.52784 -41.1272 -44.1171 -3.52784 -41.1272 -46.198 1.20874 
35.2503 -46.198 -3.52784 42.1766 -42.8539 -3.52784 -51.3316 -37.8676 -3.52784 
49.1104 -37.8676 -3.52784 50.507 -36.7006 -3.52784 -57.6869 -29.5373 -3.52784 
-57.788 -29.4176 -3.52784 -57.788 -29.5373 -3.10231 57.5116 -29.5373 -3.52784 
58.8373 -27.7038 -3.52784 -61.2474 -21.2069 -3.52784 63.3762 -21.2069 -3.52784 
-63.7663 -12.8765 -3.52784 65.8871 -12.8765 -3.52784 67.1677 -5.64015 -3.52784 
-65.3794 -4.54612 -3.52784 -66.1184 1.98634 -3.52784 67.1677 -3.21172 -3.52784 
67.1677 -4.54612 -1.79942 -66.291 3.78426 -3.52784 -66.1184 6.53186 -3.52784 
-66.1184 3.78426 -2.89911 66.1882 3.78426 -3.52784 -65.7473 12.1146 -3.52784 
63.1367 12.1146 -3.52784 58.8373 20.0553 -3.52784 -62.4178 20.445 -3.52784 
-57.788 27.4449 -3.52784 58.6087 20.445 -3.52784 -56.7677 28.7754 -3.52784 
-49.4576 36.8197 -3.52784 52.654 28.7754 -3.52784 50.507 31.3294 -3.52784 
-49.1257 37.1058 -3.52784 -41.1272 43.3657 -3.52784 45.0722 37.1058 -3.52784 
42.1766 39.8364 -3.52784 -37.9253 45.4362 -3.52784 -32.7968 48.2777 -3.52784 
-32.7968 45.4362 4.02245 -24.4665 51.8887 -3.52784 25.5158 52.2462 -3.52784 
35.3444 45.4362 -3.52784 33.8462 46.5482 -3.52784 -18.133 53.7665 -3.52784 
-16.1361 54.3253 -3.52784 -16.1361 53.7665 0.894158 -7.8057 56.4169 -3.52784 
0.524683 57.2764 -3.52784 8.85506 57.1669 -3.52784 21.6925 53.7665 -3.52784 
17.1854 55.3102 -3.52784 -7.8057 -54.6552 4.80254 -41.1272 -47.2433 4.80254 
-32.7968 -50.664 4.80254 -24.4665 -52.166 4.80254 -9.1798 -54.5284 4.80254 
-16.1361 -53.8418 4.80254 -4.26329 -54.5284 4.80254 -7.8057 -54.5284 5.13714 
0.524683 -54.3374 4.80254 8.85506 -52.1704 4.80254 17.1854 -49.9665 4.80254 
25.5158 -48.4396 4.80254 33.8462 -46.2683 4.80254 -43.3499 -46.198 4.80254 
-49.4576 -42.6479 4.80254 -41.1272 -46.198 7.00536 -32.7968 -46.198 10.9681 
8.85506 -46.198 12.7544 17.1854 -46.198 9.72325 25.5158 -46.198 7.81426 
34.0215 -46.198 4.80254 33.8462 -46.198 4.92795 42.1766 -42.6015 4.80254 
-54.1022 -37.8676 4.80254 -57.788 -31.4974 4.80254 -49.4576 -37.8676 11.2472 
49.013 -37.8676 4.80254 42.1766 -37.8676 11.9475 50.507 -36.4426 4.80254 
-58.7764 -29.5373 4.80254 -57.788 -29.5373 6.16538 -49.4576 -29.5373 11.5936 
57.2784 -29.5373 4.80254 50.507 -29.5373 12.9709 58.8373 -27.7205 4.80254 
-61.1195 -21.2069 4.80254 -57.788 -21.2069 8.58892 63.1506 -21.2069 4.80254 
58.8373 -21.2069 10.4753 -61.6507 -12.8765 4.80254 -57.788 -12.8765 8.98773 
-49.4576 -12.8765 12.5513 65.2963 -12.8765 4.80254 58.8373 -12.8765 12.9302 
-61.811 -4.54612 4.80254 -57.788 -4.54612 8.71706 -49.4576 -4.54612 12.1848 
66.3866 -4.54612 4.80254 -62.4767 3.78426 4.80254 -57.788 3.78426 8.88922 
-49.4576 3.78426 12.3354 65.3385 3.78426 4.80254 58.8373 3.78426 12.5127 
-60.8535 12.1146 4.80254 -57.788 12.1146 7.50999 -49.4576 12.1146 11.9052 
50.507 12.1146 13.0694 61.8919 12.1146 4.80254 58.8373 17.2222 4.80254 
58.8373 12.1146 8.47742 -59.193 20.445 4.80254 -57.788 22.4853 4.80254 
-57.788 20.445 6.13704 -49.4576 20.445 9.91813 -41.1272 20.445 12.6439 
56.2121 20.445 4.80254 50.507 20.445 9.5701 -52.4147 28.7754 4.80254 
-49.4576 31.8428 4.80254 -49.4576 28.7754 7.06696 -41.1272 28.7754 9.73605 
-32.7968 28.7754 12.3926 42.1766 28.7754 11.1058 50.5531 28.7754 4.80254 
50.507 28.8318 4.80254 50.507 28.7754 4.85817 -43.3587 37.1058 4.80254 
-41.1272 38.9625 4.80254 -41.1272 37.1058 6.27857 -32.7968 44.8876 4.80254 
-32.7968 37.1058 9.20036 -24.4665 37.1058 12.276 33.8462 37.1058 11.7865 
43.9071 37.1058 4.80254 42.1766 38.8429 4.80254 42.1766 37.1058 6.97768 
-31.948 45.4362 4.80254 -24.4665 48.8522 4.80254 -24.4665 45.4362 8.7473 
-16.1361 53.1136 4.80254 -16.1361 45.4362 11.6556 25.5158 50.9312 4.80254 
25.5158 45.4362 10.4357 34.2114 45.4362 4.80254 33.8462 45.7242 4.80254 
33.8462 45.4362 5.25078 -14.6058 53.7665 4.80254 -7.8057 55.9385 4.80254 
-7.8057 53.7665 8.05287 0.524683 56.0972 4.80254 0.524683 53.7665 8.67816 
[...]
POINT_DATA 555
SCALARS ImageScalars float
LOOKUP_TABLE default
0 0 0 0 0 0 0 0 0 
0 0 0 0 0 0 0 0 0 
0 0 0 0 0 0 0 0 0 
0 0 0 0 0 0 0 0 0 
0 0 0 0 0 0 0 0 0 
0 0 0 0 0 0 0 0 0 
0 0 0 0 0 0 0 0 0 
0 0 0 0 0 0 0 0 0 
0 0 0 0 0 0 0 0 0 
0 0 0 0 0 0 0 0 0 
0 0 0 0 0 0 0 0 0 
0 0 0 0 0 0 0 0 0 
0 0 0 0 0 0 0 0 0 
0 0 0 0 0 0 0 0 0 
0 0 0 0 0 0 0 0 0 
0 0 0 0 0 0 0 0 0 
0 0 0 0 0 0 0 0 0 
0 0 0 0 0 0 0 0 0 
0 0 0 0 0 0 0 0 0 
0 0 0 0 0 0 0 0 0 
0 0 0 0 0 0 0 0 0 
0 0 0 0 0 0 0 0 0 
0 0 0 0 0 0 0 0 0 
0 0 0 0 0 0 0 0 0 
0 0 0 0 0 0 0 0 0 
0 0 0 0 0 0 0 0 0 
0 0 0 0 0 0 0 0 0 
0 0 0 0 0 0 0 0 0 
0 0 0 0 0 0 0 0 0 
0 0 0 0 0 0 0 0 0 
0 0 0 0 0 0 0 0 0 
0 0 0 0 0 0 0 0 0 
0 0 0 0 0 0 0 0 0 
0 0 0 0 0 0 0 0 0 
0 0 0 0 0 0 0 0 0 
0 0 0 0 0 0 0 0 0 
0 0 0 0 0 0 0 0 0 
0 0 0 0 0 0 0 0 0 
0 0 0 0 0 0 0 0 0 
0 0 0 0 0 0 0 0 0 
0 0 0 0 0 0 0 0 0 
0 0 0 0 0 0 0 0 0 
0 0 0 0 0 0 0 0 0 
0 0 0 0 0 0 0 0 0 
0 0 0 0 0 0 0 0 0 
0 0 0 0 0 0 0 0 0 
0 0 0 0 0 0 0 0 0 
0 0 0 0 0 0 0 0 0 
0 0 0 0 0 0 0 0 0 
0 0 0 0 0 0 0 0 0 
0 0 0 0 0 0 0 0 0 
0 0 0 0 0 0 0 0 0 
0 0 0 0 0 0 0 0 0 
0 0 0 0 0 0 0 0 0 
0 0 0 0 0 0 0 0 0 
0 0 0 0 0 0 0 0 0 
0 0 0 0 0 0 0 0 0 
0 0 0 0 0 0 0 0 0 
0 0 0 0 0 0 0 0 0 
0 0 0 0 0 0 0 0 0 
0 0 0 0 0 0 0 0 0 
0 0 0 0 0 0 
NORMALS Normals float
-0.117449 -0.266216 -0.956731 -0.0620184 -0.235103 -0.96999 -0.0318359 -0.216716 -0.975716 
-0.0128664 -0.251179 -0.967855 -0.0367587 -0.327998 -0.943963 0.0449365 -0.386019 -0.921396 
0.193331 -0.453298 -0.87014 0.394343 -0.532629 -0.748866 -0.114412 -0.223528 -0.967959 
-0.0763437 -0.120004 -0.989834 -0.0919478 -0.0707218 -0.993249 -0.0422638 -0.0595642 -0.997329 
-0.0383121 -0.0070441 -0.999241 -0.0782144 -0.0566242 -0.995327 -0.0870548 -0.124517 -0.988391 
0.00416096 -0.145132 -0.989403 0.130004 -0.200131 -0.971106 0.26481 -0.235301 -0.935152 
0.471369 -0.379198 -0.796254 -0.168834 -0.181359 -0.968816 0.00383043 -0.0784565 -0.99691 
-0.0283488 -0.0727267 -0.996949 -0.0622279 0.0072179 -0.998036 -0.00121989 -0.0419709 -0.999118 
-0.0319771 -0.0344937 -0.998893 -0.139687 -0.00135461 -0.990195 -0.122012 0.0347403 -0.99192 
-0.0350845 0.0173126 -0.999234 0.0913791 -0.0498757 -0.994566 0.213992 -0.119596 -0.969486 
0.348483 -0.213908 -0.91258 -0.225264 -0.260152 -0.938923 -0.0795887 -0.10207 -0.991588 
-0.00931422 -0.0951935 -0.995415 0.0143245 -0.0742749 -0.997135 -0.061606 -0.113067 -0.991676 
-0.117377 -0.145476 -0.982374 0.00191652 -0.155331 -0.987861 0.0208527 -0.138773 -0.990105 
-0.0617233 0.0866468 -0.994325 -0.0830971 0.0453678 -0.995508 -0.00715352 -0.00721301 -0.999948 
0.0842898 -0.100236 -0.991387 0.272375 -0.142282 -0.951613 0.535895 -0.124684 -0.835027 
-0.480237 -0.06456 -0.87476 -0.190393 -0.155834 -0.969261 0.00663138 -0.129642 -0.991539 
0.0344224 -0.0952424 -0.994859 -0.0520808 -0.0478455 -0.997496 -0.156565 -0.134883 -0.978414 
0.00534869 -0.160994 -0.986941 -0.0394901 0.0975681 -0.994445 0.139356 -0.151832 -0.978533 
0.038927 -0.0695965 -0.996815 -0.127515 -0.0589293 -0.990084 -0.0498303 -0.0533358 -0.997333 
0.0889337 -0.0568679 -0.994413 0.268052 -0.0129649 -0.963317 0.530514 0.0431817 -0.846576 
-0.230334 -0.0119533 -0.973038 -0.0281072 -0.0724085 -0.996979 0.0729479 -0.0595416 -0.995557 
0.0110505 -0.0412112 -0.999089 -0.18181 0.109848 -0.977179 0.0437639 -0.0182376 -0.998875 
-0.0265877 -0.100509 -0.994581 -0.0652046 0.147027 -0.986981 0.0224356 -0.130289 -0.991222 
-0.0697166 -0.110113 -0.991471 -0.00195728 -0.0717833 -0.997418 0.133846 0.00102943 -0.991002 
0.315264 0.0267978 -0.948626 -0.542252 -0.0103217 -0.840153 -0.227998 0.0237863 -0.973371 
-0.0494131 0.016561 -0.998641 0.0650865 -0.0345267 -0.997282 0.0857064 -0.0917917 -0.992083 
-0.0650345 -0.00627393 -0.997863 -0.179852 0.207385 -0.961585 0.124017 -0.00505637 -0.992267 
-0.0149719 0.124978 -0.992047 -0.162577 -0.0114073 -0.98663 -0.0686146 -0.0206792 -0.997429 
0.0568976 0.0222945 -0.998131 0.166873 0.0786076 -0.98284 0.361484 0.1498 -0.920266 
-0.570154 0.233228 -0.787736 -0.296457 0.225054 -0.928151 -0.0768479 0.0760125 -0.994141 
-0.0348136 -0.00822063 -0.99936 0.0429402 -0.0528693 -0.997678 0.0955319 -0.0733585 -0.99272 
0.00801492 0.0252255 -0.99965 -0.0441115 0.0426781 -0.998115 -0.0786962 -0.0696293 -0.994464 
-0.123482 0.0220632 -0.992101 -0.0365728 0.094064 -0.994894 0.0951012 0.123498 -0.987777 
0.246882 0.152089 -0.957036 0.487932 0.297497 -0.82062 -0.501985 0.355115 -0.788609 
-0.229489 0.196956 -0.953175 -0.0671168 0.0476886 -0.996605 0.0202324 0.0782897 -0.996725 
0.0118943 0.00787964 -0.999898 -0.0137159 -0.061783 -0.997995 -0.0248874 -0.0323144 -0.999168 
-0.0320843 -0.0453978 -0.998454 -0.00176121 0.0244275 -0.9997 0.0394195 0.177982 -0.983244 
0.123301 0.231515 -0.964986 0.362294 0.352487 -0.862841 -0.388879 0.529552 -0.753889 
-0.166152 0.305359 -0.93763 -0.0082569 0.250449 -0.968095 -0.0463846 0.156893 -0.986526 
-0.0322589 0.14065 -0.989534 -0.0267742 0.100513 -0.994575 -0.0200719 0.102405 -0.99454 
0.106449 0.196725 -0.974663 0.175329 0.299015 -0.938003 0.273869 0.452005 -0.848933 
-0.14009 0.456153 -0.878806 -0.0916022 0.328701 -0.939981 -0.0655728 0.301402 -0.95124 
0.0627001 0.318358 -0.945895 0.214969 0.409602 -0.886575 -0.321152 -0.663888 -0.675362 
-0.178092 -0.622448 -0.76213 -0.118909 -0.385192 -0.915144 -0.121763 -0.596004 -0.793695 
-0.0725284 -0.390405 -0.917782 -0.0889862 -0.524451 -0.846777 -0.0172066 -0.448052 -0.893842 
-0.0079884 -0.53808 -0.842856 0.0289582 -0.475016 -0.8795 0.0553443 -0.61727 -0.784802 
0.0212217 -0.520775 -0.85343 0.0795873 -0.703629 -0.706097 0.085423 -0.601773 -0.794086 
0.157709 -0.808962 -0.566311 0.233183 -0.56066 -0.794535 0.363089 -0.893918 -0.262824 
0.397314 -0.539693 -0.742208 -0.500586 -0.547446 -0.670609 -0.308426 -0.546053 -0.77891 
-0.121117 -0.296327 -0.947376 -0.143951 -0.397855 -0.906085 -0.186853 -0.277507 -0.942378 
-0.183683 -0.261945 -0.947441 -0.194408 -0.279858 -0.940152 0.401077 -0.537176 -0.74201 
0.482363 -0.395164 -0.781774 -0.531552 -0.41352 -0.739225 -0.139058 -0.234635 -0.962086 
-0.152083 -0.22666 -0.962027 -0.156056 -0.244346 -0.957048 0.480724 -0.389916 -0.785411 
-0.629646 -0.379946 -0.677634 -0.272905 -0.154042 -0.949628 -0.275895 -0.186895 -0.942843 
-0.327877 -0.15734 -0.931526 0.435032 -0.285475 -0.853962 0.542994 -0.196042 -0.816532 
0.614345 -0.409581 -0.674406 -0.355059 -0.270602 -0.894823 -0.478844 -0.179282 -0.859399 
-0.530278 -0.28632 -0.798014 0.57196 -0.12933 -0.810022 -0.536904 -0.0730999 -0.840471 
-0.516228 0.0585699 -0.854446 0.556432 0.0428688 -0.829787 0.570123 0.0577584 -0.819526 
0.959458 -0.01546 -0.281426 -0.99004 -0.0191044 -0.139487 -0.513368 0.0631229 -0.855844 
-0.528216 0.0377547 -0.84827 -0.52176 0.0647128 -0.850634 0.572933 0.0629134 -0.817184 
0.590393 0.0657757 -0.804431 -0.552048 -0.00746858 -0.833779 0.587873 0.207239 -0.781957 
0.672165 0.236584 -0.701585 -0.576532 0.237968 -0.781654 -0.576853 0.246999 -0.778609 
0.55215 0.3328 -0.764444 0.548789 0.371526 -0.748865 -0.50487 0.356777 -0.786013 
-0.503975 0.35723 -0.786381 0.517699 0.444127 -0.731258 0.456498 0.512966 -0.726963 
0.71205 0.58331 -0.390814 -0.401218 0.539778 -0.740043 -0.396675 0.547276 -0.736979 
-0.24684 0.646958 -0.721468 -0.0834923 0.551488 -0.829994 0.280742 0.480221 -0.831006 
0.393276 0.529201 -0.751851 0.331113 0.523875 -0.784805 0.578039 0.662699 -0.476131 
-0.272301 0.704516 -0.655369 -0.093593 0.551314 -0.829031 -0.0907168 0.571763 -0.815388 
-0.181268 0.538598 -0.822833 -0.156044 0.569451 -0.807079 -0.0511135 0.64303 -0.764133 
0.107681 0.660683 -0.742901 0.284191 0.487677 -0.825474 0.263965 0.547859 -0.793835 
0.323401 0.551034 -0.769268 0.560599 0.768384 -0.30873 -0.268505 0.930325 -0.249799 
-0.179826 0.803081 -0.568087 -0.0489866 0.728531 -0.683259 0.115681 0.752217 -0.648681 
0.292871 0.86376 -0.410055 -0.320828 -0.794348 -0.51583 -0.186578 -0.851598 -0.489866 
-0.183181 -0.864729 -0.467641 -0.0530137 -0.914359 -0.40142 -0.0327694 -0.99749 0.0627649 
0.0933607 -0.924409 -0.3698 0.133403 -0.942977 -0.304954 0.141917 -0.960575 -0.239074 
0.239968 -0.947494 -0.211353 0.367009 -0.913004 -0.178125 -0.547492 -0.618573 -0.563578 
-0.379888 -0.74765 -0.544706 -0.397551 -0.731003 -0.554607 -0.438287 -0.88023 -0.181934 
0.387679 -0.90301 -0.185144 0.496336 -0.838258 -0.225774 -0.602078 -0.587546 -0.540639 
0.620279 -0.742957 -0.251534 0.643109 -0.722535 -0.253682 -0.704466 -0.496815 -0.506856 
-0.707027 -0.494649 -0.505406 -0.724979 -0.500456 -0.473233 0.758392 -0.589932 -0.277166 
0.774729 -0.560555 -0.292529 -0.903737 -0.319906 -0.284463 0.829995 -0.459431 -0.316277 
-0.93493 -0.259773 -0.241708 0.929775 -0.220923 -0.294469 0.961966 -0.0413049 -0.27003 
-0.977293 -0.133569 -0.164492 -0.990602 -0.0406383 -0.130599 0.963107 0.0292876 -0.267521 
0.991108 -0.0145783 -0.132261 -0.993096 -0.0174796 -0.115995 -0.99247 0.0628344 -0.105146 
-0.997588 -0.013361 -0.0681166 0.929127 0.248452 -0.273853 -0.972973 0.217701 -0.0770024 
0.901396 0.396057 -0.174999 0.842877 0.52648 -0.111254 -0.896848 0.439818 -0.0471615 
-0.78942 0.613812 -0.00713985 0.839639 0.532199 -0.108492 -0.770635 0.637168 -0.011727 
-0.656436 0.753229 0.0416795 0.772564 0.627699 -0.095601 0.750544 0.653652 -0.0970703 
-0.652943 0.756181 0.043093 -0.579566 0.814813 0.0135677 0.68619 0.714374 -0.13716 
0.657111 0.738332 -0.151888 -0.520868 0.853283 0.0245894 -0.440649 0.897588 -0.0128279 
-0.454253 0.694679 0.557741 -0.346686 0.931366 -0.111203 0.455664 0.867118 -0.20119 
0.601254 0.78059 -0.1708 0.585635 0.791225 -0.176054 -0.289002 0.945239 -0.15166 
-0.267152 0.948922 -0.167859 -0.322893 0.93744 0.130179 -0.179641 0.962391 -0.203796 
-0.0473586 0.985028 -0.165761 0.117682 0.979188 -0.165352 0.377005 0.905652 -0.194067 
0.2842 0.936352 -0.206094 -0.0289321 -0.988461 0.148686 -0.408478 -0.908754 0.0855103 
-0.287897 -0.948568 0.131661 -0.188396 -0.974882 0.118795 -0.047638 -0.989146 0.138999 
-0.143648 -0.985004 0.0955587 0.0402853 -0.984649 0.169836 -0.0254461 -0.985616 0.167076 
0.134671 -0.970751 0.19876 0.243589 -0.935444 0.25614 0.20677 -0.907906 0.364628 
0.215156 -0.897491 0.384991 0.30838 -0.902124 0.301785 -0.466274 -0.879643 0.0938942 
-0.65953 -0.740042 0.13175 -0.41183 -0.874102 0.257569 -0.223416 -0.721196 0.655715 
0.25067 -0.597197 0.761919 0.211599 -0.754397 0.621379 0.181039 -0.82657 0.532923 
0.311482 -0.901169 0.301453 0.307616 -0.900306 0.30793 0.470393 -0.835592 0.283755 
-0.793042 -0.582195 0.179256 -0.856149 -0.440953 0.269387 -0.578888 -0.394567 0.713586 
0.627166 -0.726198 0.281602 0.388471 -0.602136 0.697511 0.656725 -0.697373 0.287025 
-0.874191 -0.392438 0.285978 -0.845858 -0.387863 0.366177 -0.554837 -0.133534 0.821173 
0.728719 -0.613002 0.305282 0.503438 -0.395877 0.768005 0.756714 -0.576232 0.308772 
-0.89458 -0.155504 0.418982 -0.775647 -0.118472 0.619949 0.840409 -0.412836 0.351112 
0.629812 -0.364989 0.685653 -0.847918 -0.0446287 0.528246 -0.640653 -0.0122776 0.767733 
-0.297658 0.0947388 0.94996 0.898457 -0.187691 0.396923 0.54228 -0.152049 0.826326 
-0.776569 -0.0349011 0.629065 -0.678737 0.00414061 0.73437 -0.269765 0.011788 0.962854 
0.906913 -0.00668227 0.421265 -0.747237 0.0405309 0.663321 -0.62537 0.0612694 0.77792 
-0.283278 0.0204163 0.958821 0.847473 0.277816 0.452335 0.554077 0.249931 0.794061 
-0.719449 0.151196 0.677889 -0.654426 0.143148 0.742452 -0.314412 0.135954 0.939501 
0.362726 0.294192 0.88424 0.814458 0.405399 0.415101 0.751527 0.496619 0.434255 
0.673317 0.396646 0.623951 -0.711584 0.350037 0.609198 -0.681422 0.417742 0.600963 
-0.634064 0.330031 0.699315 -0.359064 0.284756 0.888812 -0.271145 0.249262 0.929704 
0.702213 0.530538 0.47479 0.561563 0.385073 0.73237 -0.568863 0.561336 0.60108 
-0.518218 0.565942 0.641218 -0.435514 0.501528 0.747527 -0.299727 0.35404 0.8859 
-0.253368 0.288971 0.923201 0.48382 0.361632 0.796957 0.707238 0.557615 0.434602 
0.707182 0.557829 0.434419 0.706141 0.556758 0.437476 -0.493554 0.57694 0.650803 
-0.482472 0.589022 0.648286 -0.455036 0.532502 0.713711 -0.438208 0.64596 0.625068 
-0.320864 0.403834 0.856717 -0.316044 0.266434 0.910565 0.393848 0.433368 0.810602 
0.683321 0.631499 0.366444 0.655588 0.665338 0.357112 0.635905 0.600584 0.48469 
-0.441777 0.660932 0.606632 -0.394811 0.752522 0.5271 -0.381452 0.589299 0.712195 
-0.347201 0.848822 0.398689 -0.242715 0.504212 0.82877 0.463032 0.805603 0.369602 
0.361026 0.600723 0.713297 0.580529 0.749693 0.31772 0.578235 0.751927 0.316623 
0.574575 0.743551 0.342047 -0.314741 0.868218 0.383584 -0.169474 0.918648 0.356881 
-0.182232 0.8121 0.554333 -0.00530063 0.929694 0.368295 -0.0216492 0.816082 0.57753 
0.070016 0.927183 0.368007 0.0788219 0.820879 0.565637 0.335926 0.880846 0.333563 
0.264333 0.905702 0.331409 0.260823 0.858788 0.440971 -0.2187 -0.602278 0.767744 
-0.103899 -0.640033 0.76129 0.0213429 -0.622596 0.782252 0.130593 -0.641204 0.756176 
-0.292111 -0.46072 0.838098 -0.216323 -0.597297 0.772296 -0.185831 -0.541164 0.820127 
-0.217846 -0.592777 0.775344 -0.0754855 -0.493942 0.866212 -0.00360891 -0.489419 0.872041 
0.232671 -0.580522 0.780294 0.116743 -0.527885 0.841254 0.243209 -0.566259 0.787528 
0.142947 -0.548616 0.823764 0.109002 -0.594001 0.797045 0.194124 -0.53593 0.821642 
-0.36669 -0.378687 0.849785 -0.283041 -0.406789 0.868568 -0.155227 -0.288694 0.944754 
-0.095899 -0.216787 0.971497 -0.0621582 -0.199091 0.978008 -0.0189116 -0.221069 0.975075 
0.0826769 -0.235125 0.968442 0.136219 -0.271903 0.952635 0.08626 -0.406799 0.909436 
0.0938469 -0.446517 0.88984 0.275081 -0.534977 0.798831 0.183341 -0.496466 0.848474 
0.33921 -0.49193 0.801836 -0.465511 -0.0980809 0.87959 -0.440619 -0.0728844 0.89473 
-0.286447 -0.0689755 0.95561 -0.0919968 -0.0529934 0.994348 -0.0642603 -0.0417571 0.997059 
-0.0718141 -0.022193 0.997171 -0.0335583 -0.0241938 0.999144 0.0747173 -0.0182108 0.997038 
0.0540268 -0.0688968 0.99616 -0.00242259 -0.175053 0.984556 0.049299 -0.204871 0.977547 
0.165987 -0.254405 0.952747 0.489718 -0.385799 0.78188 0.246351 -0.237402 0.939655 
0.486889 -0.373595 0.789535 -0.447744 -0.0708678 0.891349 -0.344343 0.0185379 0.938661 
-0.400439 -0.0611883 0.914278 -0.166724 0.123897 0.978189 -0.130807 0.0938431 0.986956 
-0.0671139 0.0780148 0.994691 -0.0456533 0.0890967 0.994976 -0.0176825 0.0733123 0.997152 
0.0356071 0.0781583 0.996305 -0.0194701 0.012028 0.999738 -0.048947 -0.00533035 0.998787 
0.0270341 -0.0294804 0.9992 0.126857 -0.0538311 0.990459 0.211412 -0.127995 0.96898 
0.412172 -0.230679 0.88142 0.336487 -0.162945 0.927483 -0.253663 0.0909158 0.963011 
-0.179116 0.0829043 0.980329 -0.12187 0.111456 0.986268 -0.0712847 0.105805 0.991828 
-0.0788858 0.0266331 0.996528 -0.0397191 -0.000443568 0.999211 0.0159807 -0.00301579 0.999868 
-0.0315705 -0.0303098 0.999042 -0.0449138 0.0551518 0.997467 -0.000244416 0.0564013 0.998408 
0.0624031 0.00797592 0.998019 0.169395 -0.059617 0.983743 0.522849 -0.14973 0.839172 
0.271379 -0.080212 0.959124 0.532598 -0.130104 0.836309 -0.210001 0.0156834 0.977575 
-0.169062 0.0173161 0.985453 -0.10816 0.0110867 0.994072 -0.144354 -0.0107833 0.989467 
-0.164661 -0.0323665 0.985819 -0.0448979 0.0984883 0.994125 0.00629191 -0.0827024 0.996554 
0.0394098 0.0113687 0.999158 0.0391436 0.00670647 0.999211 -0.0201344 0.0129684 0.999713 
0.0127737 0.0217557 0.999682 0.14514 0.0184154 0.98924 0.236023 0.0204015 0.971533 
0.552284 0.0170082 0.833482 0.530675 0.179723 0.828302 0.487036 0.0149074 0.873255 
-0.238644 0.0186698 0.970928 -0.189546 0.00300589 0.981867 -0.144139 -0.0344494 0.988958 
-0.120543 -0.0455137 0.991664 0.0286574 0.0394777 0.998809 -0.0882266 0.0876569 0.992236 
-0.0729596 0.08653 0.993574 0.0586262 0.18526 0.980939 -0.0449655 -0.00687335 0.998965 
0.0146926 -0.0286664 0.999481 0.0684091 0.0317074 0.997153 0.17017 0.10676 0.979614 
0.496455 0.239126 0.834477 0.358554 0.290181 0.887262 0.261037 0.146311 0.954176 
-0.252001 0.115592 0.960799 -0.256537 0.19687 0.946272 -0.22357 0.0950549 0.970042 
-0.153175 0.0709297 0.98565 -0.0770798 0.0789908 0.993891 -0.0213236 0.0646304 0.997681 
0.0276919 -0.0421228 0.998729 0.108977 0.195016 0.974727 -0.101584 0.071922 0.992224 
-0.168428 0.0243996 0.985412 0.0184955 0.0157779 0.999704 0.149292 0.0716281 0.986195 
0.35919 0.290206 0.886997 0.244266 0.152188 0.957691 -0.243792 0.231499 0.941793 
-0.221833 0.255039 0.94114 -0.16395 0.198009 0.966392 -0.12671 0.136149 0.982552 
-0.0931178 0.049493 0.994424 0.00984675 0.00667531 0.999929 0.0547806 -0.0342087 0.997912 
-0.0847976 -0.0861051 0.992671 -0.108899 0.0129967 0.993968 0.060769 0.0725674 0.99551 
0.209418 0.146447 0.966798 0.421521 0.268316 0.866214 0.407162 0.283096 0.868375 
0.364572 0.234172 0.901249 -0.239445 0.251015 0.937901 -0.276738 0.224468 0.934361 
-0.224496 0.182269 0.957277 -0.150333 0.11237 0.982229 -0.0455252 0.0516839 0.997625 
-0.000930943 0.000369674 1 -0.0403637 -0.0410074 0.998343 -0.0105656 0.0647435 0.997846 
0.145972 0.169368 0.974683 0.394924 0.303144 0.86726 0.35658 0.347752 0.867133 
0.324309 0.254035 0.911202 -0.283193 0.248411 0.926334 -0.225577 0.362474 0.904283 
-0.225389 0.235871 0.945285 -0.0993004 0.186418 0.977439 -0.0405678 0.133313 0.990243 
-0.0172246 0.129171 0.991473 0.115925 0.243514 0.962945 0.318873 0.383556 0.866721 
0.278332 0.436166 0.85574 0.244764 0.343036 0.906872 -0.187697 0.413286 0.891047 
-0.178329 0.432044 0.884046 -0.165757 0.385686 0.907618 -0.063257 0.500218 0.863586 
-0.0621637 0.341316 0.937891 0.0797622 0.524949 0.847388 0.0669314 0.378591 0.923141 
0.233091 0.445951 0.864174 0.218356 0.455863 0.86285 0.207205 0.424542 0.88138 

