# vtk DataFile Version 4.2
vtk output
ASCII
DATASET POLYDATA
POINTS 556 float
-31.175 -38.0523 -12.6153 -23.0328 -38.0523 -14.7279 -14.8907 -38.0523 -15.561 
-6.74851 -38.0523 -15.7686 1.39366 -38.0523 -15.7911 9.53582 -38.0523 -15.6635 
17.678 -38.0523 -15.4409 25.8202 -38.0523 -14.0999 -47.4593 -29.9102 -13.7359 
-39.3172 -29.9102 -15.9076 -31.175 -29.9102 -16.9212 -23.0328 -29.9102 -17.1298 
-14.8907 -29.9102 -18.0937 -6.74851 -29.9102 -17.8243 1.39366 -29.9102 -17.8359 
9.53582 -29.9102 -17.8037 17.678 -29.9102 -17.8953 25.8202 -29.9102 -17.1584 
33.9623 -29.9102 -16.3025 42.1045 -29.9102 -15.6079 50.2466 -29.9102 -13.295 
-55.6015 -21.768 -14.1931 -47.4593 -21.768 -17.1006 -39.3172 -21.768 -18.3169 
-31.175 -21.768 -17.9723 -23.0328 -21.768 -17.6866 -14.8907 -21.768 -17.814 
-6.74851 -21.768 -17.746 1.39366 -21.768 -17.4523 9.53582 -21.768 -17.5828 
17.678 -21.768 -17.7949 25.8202 -21.768 -18.1153 33.9623 -21.768 -17.5636 
42.1045 -21.768 -17.2323 50.2466 -21.768 -16.7867 58.3888 -21.768 -13.9152 
-63.7437 -13.6258 -13.2979 -55.6015 -13.6258 -17.4957 -47.4593 -13.6258 -18.2116 
-39.3172 -13.6258 -18.6564 -31.175 -13.6258 -18.7063 -23.0328 -13.6258 -17.3553 
-14.8907 -13.6258 -16.5323 -6.74851 -13.6258 -16.82 1.39366 -13.6258 -15.7439 
9.53582 -13.6258 -16.6413 17.678 -13.6258 -16.812 25.8202 -13.6258 -17.3603 
33.9623 -13.6258 -18.1515 42.1045 -13.6258 -19.1709 50.2466 -13.6258 -17.0134 
58.3888 -13.6258 -15.2656 -63.7437 -5.48366 -14.3813 -55.6015 -5.48366 -18.5637 
-47.4593 -5.48366 -18.8625 -39.3172 -5.48366 -18.8516 -31.175 -5.48366 -18.0182 
-23.0328 -5.48366 -16.2934 -14.8907 -5.48366 -15.4227 -6.74851 -5.48366 -19.725 
1.39366 -5.48366 -16.9704 9.53582 -5.48366 -19.5357 17.678 -5.48366 -15.5935 
25.8202 -5.48366 -16.8003 33.9623 -5.48366 -18.1199 42.1045 -5.48366 -18.3951 
50.2466 -5.48366 -18.2168 58.3888 -5.48366 -17.3576 66.531 -5.48366 -13.9266 
-63.7437 2.65851 -14.1425 -55.6015 2.65851 -17.404 -47.4593 2.65851 -18.3403 
-39.3172 2.65851 -18.496 -31.175 2.65851 -17.8061 -23.0328 2.65851 -16.5104 
-14.8907 2.65851 -16.0071 -6.74851 2.65851 -18.7926 1.39366 2.65851 -14.3862 
9.53582 2.65851 -18.7257 17.678 2.65851 -15.2882 25.8202 2.65851 -16.845 
33.9623 2.65851 -18.1218 42.1045 2.65851 -18.4122 50.2466 2.65851 -18.1103 
58.3888 2.65851 -17.5362 66.531 2.65851 -14.2491 -63.7437 10.8007 -12.4652 
-55.6015 10.8007 -15.8314 -47.4593 10.8007 -16.591 -39.3172 10.8007 -17.6052 
-31.175 10.8007 -17.6577 -23.0328 10.8007 -17.1384 -14.8907 10.8007 -17.1735 
-6.74851 10.8007 -17.2964 1.39366 10.8007 -17.9174 9.53582 10.8007 -18.5218 
17.678 10.8007 -16.691 25.8202 10.8007 -17.3781 33.9623 10.8007 -18.5875 
42.1045 10.8007 -18.5617 50.2466 10.8007 -17.8525 58.3888 10.8007 -17.0257 
66.531 10.8007 -13.7627 -47.4593 18.9428 -14.8541 -39.3172 18.9428 -15.452 
-31.175 18.9428 -16.2296 -23.0328 18.9428 -16.6338 -14.8907 18.9428 -16.6539 
-6.74851 18.9428 -15.7345 1.39366 18.9428 -16.704 9.53582 18.9428 -17.4224 
17.678 18.9428 -16.325 25.8202 18.9428 -17.2197 33.9623 18.9428 -17.8787 
42.1045 18.9428 -17.924 50.2466 18.9428 -17.2063 58.3888 18.9428 -15.1474 
-47.4593 27.085 -12.0441 -39.3172 27.085 -12.889 -31.175 27.085 -14.1819 
-23.0328 27.085 -15.5506 -14.8907 27.085 -15.5139 -6.74851 27.085 -15.1096 
1.39366 27.085 -14.9492 9.53582 27.085 -14.7647 17.678 27.085 -13.9648 
25.8202 27.085 -14.3226 33.9623 27.085 -15.1198 42.1045 27.085 -16.0808 
50.2466 27.085 -14.3282 -23.0328 35.2272 -13.3551 -14.8907 35.2272 -13.4338 
-6.74851 35.2272 -13.0655 1.39366 35.2272 -12.3986 -31.175 -38.8128 -11.9744 
-23.0328 -41.3413 -11.9744 -14.8907 -42.132 -11.9744 -6.74851 -42.7927 -11.9744 
1.39366 -42.7969 -11.9744 9.53582 -42.3904 -11.9744 17.678 -41.7232 -11.9744 
25.8202 -40.4963 -11.9744 -47.4593 -32.1526 -11.9744 -33.7608 -38.0523 -11.9744 
-39.3172 -36.1726 -11.9744 -39.3172 -38.0523 -9.35075 32.8096 -38.0523 -11.9744 
33.9623 -37.4464 -11.9744 33.9623 -38.0523 -11.2366 42.1045 -34.7201 -11.9744 
42.1045 -38.0523 -4.41021 50.2466 -31.3924 -11.9744 -51.8268 -29.9102 -11.9744 
-55.6015 -26.6946 -11.9744 -55.6015 -29.9102 -9.01409 52.5022 -29.9102 -11.9744 
58.3888 -24.8282 -11.9744 58.3888 -29.9102 -4.15094 -59.3462 -21.768 -11.9744 
-63.7437 -16.7785 -11.9744 -63.7437 -21.768 -7.46007 61.3935 -21.768 -11.9744 
66.531 -21.768 -4.95886 -65.37 -13.6258 -11.9744 65.7114 -13.6258 -11.9744 
66.531 -12.5886 -11.9744 66.531 -13.6258 -11.4683 -66.8176 -5.48366 -11.9744 
-71.8858 -5.48366 -4.13643 69.1136 -5.48366 -11.9744 -66.6223 2.65851 -11.9744 
-71.8858 2.65851 -4.89913 69.6293 2.65851 -11.9744 74.6731 2.65851 -4.82667 
-64.3599 10.8007 -11.9744 -63.7437 11.7492 -11.9744 -55.6015 18.0171 -11.9744 
69.1031 10.8007 -11.9744 66.531 16.3507 -11.9744 -63.7437 18.9428 -6.6149 
-54.57 18.9428 -11.9744 -55.6015 18.9428 -11.4598 64.493 18.9428 -11.9744 
58.3888 26.7103 -11.9744 66.531 18.9428 -10.6718 -47.6035 27.085 -11.9744 
-55.6015 27.085 -6.4397 -47.4593 27.1937 -11.9744 -39.3172 29.5313 -11.9744 
-31.175 33.6086 -11.9744 9.53582 33.5131 -11.9744 17.678 31.0923 -11.9744 
25.8202 30.5108 -11.9744 33.9623 32.4498 -11.9744 42.1045 31.4175 -11.9744 
57.8916 27.085 -11.9744 50.2466 30.131 -11.9744 58.3888 27.085 -11.7628 
-47.4593 35.2272 -4.07885 -39.3172 35.2272 -8.56369 -28.9946 35.2272 -11.9744 
-31.175 35.2272 -11.3833 -23.0328 39.0613 -11.9744 -14.8907 38.0233 -11.9744 
-6.74851 37.4118 -11.9744 4.2817 35.2272 -11.9744 1.39366 35.9934 -11.9744 
9.53582 35.2272 -11.1057 17.678 35.2272 -9.55339 25.8202 35.2272 -7.96184 
33.9623 35.2272 -9.0514 42.1045 35.2272 -7.34026 50.2466 35.2272 -4.7117 
-31.175 43.3693 -5.46491 -23.0328 43.3693 -8.89272 -14.8907 43.3693 -8.50002 
-6.74851 43.3693 -8.11845 1.39366 43.3693 -6.57886 9.53582 43.3693 -4.86135 
-39.3172 -40.4403 -3.83225 -31.175 -42.648 -3.83225 -23.0328 -44.461 -3.83225 
-14.8907 -45.7558 -3.83225 -6.74851 -46.0234 -3.83225 1.39366 -45.9192 -3.83225 
9.53582 -45.1434 -3.83225 17.678 -44.4469 -3.83225 25.8202 -43.314 -3.83225 
33.9623 -41.3011 -3.83225 42.1045 -38.198 -3.83225 -55.6015 -32.482 -3.83225 
-45.1523 -38.0523 -3.83225 -47.4593 -36.9764 -3.83225 42.4591 -38.0523 -3.83225 
42.1045 -38.0523 -3.27482 50.2466 -34.6766 -3.83225 58.3888 -30.0598 -3.83225 
-58.7444 -29.9102 -3.83225 -63.7437 -24.5509 -3.83225 58.5761 -29.9102 -3.83225 
58.3888 -29.9102 -3.25627 66.531 -22.4781 -3.83225 -65.7273 -21.768 -3.83225 
67.1591 -21.768 -3.83225 66.531 -21.768 -1.23495 -70.1431 -13.6258 -3.83225 
-71.8858 -6.1957 -3.83225 71.7114 -13.6258 -3.83225 -72.0506 -5.48366 -3.83225 
-71.8858 -5.48366 -1.79727 74.661 -5.48366 -3.83225 74.6731 -5.33527 -3.83225 
-72.5529 2.65851 -3.83225 -71.8858 5.45905 -3.83225 75.2545 2.65851 -3.83225 
74.6731 10.6111 -3.83225 74.6731 2.65851 0.553586 -70.3036 10.8007 -3.83225 
74.6584 10.8007 -3.83225 -66.2074 18.9428 -3.83225 -63.7437 22.6139 -3.83225 
71.5152 18.9428 -3.83225 66.531 25.759 -3.83225 -59.2121 27.085 -3.83225 
-55.6015 29.7211 -3.83225 65.2391 27.085 -3.83225 58.3888 32.6967 -3.83225 
-47.7896 35.2272 -3.83225 -47.4593 35.4376 -3.83225 -39.3172 39.8686 -3.83225 
17.678 40.9875 -3.83225 25.8202 38.6948 -3.83225 33.9623 38.0819 -3.83225 
42.1045 37.2043 -3.83225 51.5138 35.2272 -3.83225 50.2466 35.6318 -3.83225 
50.2466 35.2272 -0.448558 -33.9828 43.3693 -3.83225 -31.175 44.6498 -3.83225 
-23.0328 46.5038 -3.83225 -14.8907 47.3436 -3.83225 -6.74851 46.7246 -3.83225 
1.39366 45.492 -3.83225 11.7451 43.3693 -3.83225 9.53582 44.1073 -3.83225 
-39.3172 -38.8429 4.30991 -31.175 -40.3556 4.30991 -23.0328 -42.7969 4.30991 
-14.8907 -44.7178 4.30991 -6.74851 -45.0728 4.30991 1.39366 -44.246 4.30991 
9.53582 -43.1569 4.30991 17.678 -42.0949 4.30991 25.8202 -40.6317 4.30991 
33.9623 -39.0292 4.30991 -55.6015 -30.4492 4.30991 -41.2239 -38.0523 4.30991 
-47.4593 -34.847 4.30991 -39.3172 -38.0523 5.51434 -31.175 -38.0523 7.34438 
-23.0328 -38.0523 10.7469 9.53582 -38.0523 11.0741 17.678 -38.0523 9.48616 
25.8202 -38.0523 7.60815 36.557 -38.0523 4.30991 33.9623 -38.0523 5.62798 
42.1045 -35.4752 4.30991 50.2466 -32.2451 4.30991 -56.2471 -29.9102 4.30991 
-63.7437 -22.4736 4.30991 -55.6015 -29.9102 4.93915 -47.4593 -29.9102 9.56263 
-39.3172 -29.9102 12.4176 33.9623 -29.9102 12.2969 42.1045 -29.9102 9.50311 
54.6117 -29.9102 4.30991 50.2466 -29.9102 7.14559 58.3888 -27.5276 4.30991 
-64.2755 -21.768 4.30991 -63.7437 -21.768 4.97043 -55.6015 -21.768 11.033 
50.2466 -21.768 12.0941 64.7855 -21.768 4.30991 58.3888 -21.768 9.59105 
66.531 -19.618 4.30991 -69.002 -13.6258 4.30991 -63.7437 -13.6258 10.8819 
70.1653 -13.6258 4.30991 66.531 -13.6258 8.25183 -71.2317 -5.48366 4.30991 
-71.8858 -2.70143 4.30991 73.2502 -5.48366 4.30991 66.531 -5.48366 12.1413 
-72.8355 2.65851 4.30991 -71.8858 6.9745 4.30991 -71.8858 2.65851 5.8225 
73.9966 2.65851 4.30991 -70.9408 10.8007 4.30991 73.1142 10.8007 4.30991 
66.531 10.8007 11.2721 -67.8408 18.9428 4.30991 -63.7437 25.3481 4.30991 
-63.7437 18.9428 11.1668 70.3499 18.9428 4.30991 66.531 24.0496 4.30991 
66.531 18.9428 8.4031 -62.2304 27.085 4.30991 -55.6015 32.5694 4.30991 
42.1045 27.085 12.2824 50.2466 34.4683 4.30991 50.2466 27.085 11.0876 
63.5526 27.085 4.30991 58.3888 31.49 4.30991 58.3888 27.085 8.66778 
-51.8719 35.2272 4.30991 -47.4593 37.9237 4.30991 -47.4593 35.2272 10.5997 
-39.3172 42.8951 4.30991 9.53582 35.2272 12.1178 17.678 41.9037 4.30991 
17.678 35.2272 10.7084 25.8202 39.084 4.30991 25.8202 35.2272 8.57245 
33.9623 37.4831 4.30991 33.9623 35.2272 8.04019 46.6899 35.2272 4.30991 
42.1045 36.0456 4.30991 42.1045 35.2272 5.69229 -38.2319 43.3693 4.30991 
-31.175 45.9766 4.30991 -31.175 43.3693 8.15028 -23.0328 47.6455 4.30991 
-23.0328 43.3693 10.0404 -14.8907 47.8603 4.30991 -14.8907 43.3693 10.1623 
-6.74851 47.0306 4.30991 -6.74851 43.3693 9.26716 1.39366 45.6583 4.30991 
1.39366 43.3693 7.38672 12.3749 43.3693 4.30991 9.53582 44.0913 4.30991 
9.53582 43.3693 5.34368 -14.8907 -38.4221 12.4521 -6.74851 -39.5621 12.4521 
1.39366 -38.5372 12.4521 -31.175 -32.5767 12.4521 -16.3748 -38.0523 12.4521 
[...]
POINT_DATA 556
SCALARS ImageScalars float
LOOKUP_TABLE default
0 0 0 0 0 0 0 0 0 
0 0 0 0 0 0 0 0 0 
0 0 0 0 0 0 0 0 0 
0 0 0 0 0 0 0 0 0 
0 0 0 0 0 0 0 0 0 
0 0 0 0 0 0 0 0 0 
0 0 0 0 0 0 0 0 0 
0 0 0 0 0 0 0 0 0 
0 0 0 0 0 0 0 0 0 
0 0 0 0 0 0 0 0 0 
0 0 0 0 0 0 0 0 0 
0 0 0 0 0 0 0 0 0 
0 0 0 0 0 0 0 0 0 
0 0 0 0 0 0 0 0 0 
0 0 0 0 0 0 0 0 0 
0 0 0 0 0 0 0 0 0 
0 0 0 0 0 0 0 0 0 
0 0 0 0 0 0 0 0 0 
0 0 0 0 0 0 0 0 0 
0 0 0 0 0 0 0 0 0 
0 0 0 0 0 0 0 0 0 
0 0 0 0 0 0 0 0 0 
0 0 0 0 0 0 0 0 0 
0 0 0 0 0 0 0 0 0 
0 0 0 0 0 0 0 0 0 
0 0 0 0 0 0 0 0 0 
0 0 0 0 0 0 0 0 0 
0 0 0 0 0 0 0 0 0 
0 0 0 0 0 0 0 0 0 
0 0 0 0 0 0 0 0 0 
0 0 0 0 0 0 0 0 0 
0 0 0 0 0 0 0 0 0 
0 0 0 0 0 0 0 0 0 
0 0 0 0 0 0 0 0 0 
0 0 0 0 0 0 0 0 0 
0 0 0 0 0 0 0 0 0 
0 0 0 0 0 0 0 0 0 
0 0 0 0 0 0 0 0 0 
0 0 0 0 0 0 0 0 0 
0 0 0 0 0 0 0 0 0 
0 0 0 0 0 0 0 0 0 
0 0 0 0 0 0 0 0 0 
0 0 0 0 0 0 0 0 0 
0 0 0 0 0 0 0 0 0 
0 0 0 0 0 0 0 0 0 
0 0 0 0 0 0 0 0 0 
0 0 0 0 0 0 0 0 0 
0 0 0 0 0 0 0 0 0 
0 0 0 0 0 0 0 0 0 
0 0 0 0 0 0 0 0 0 
0 0 0 0 0 0 0 0 0 
0 0 0 0 0 0 0 0 0 
0 0 0 0 0 0 0 0 0 
0 0 0 0 0 0 0 0 0 
0 0 0 0 0 0 0 0 0 
0 0 0 0 0 0 0 0 0 
0 0 0 0 0 0 0 0 0 
0 0 0 0 0 0 0 0 0 
0 0 0 0 0 0 0 0 0 
0 0 0 0 0 0 0 0 0 
0 0 0 0 0 0 0 0 0 
0 0 0 0 0 0 0 
NORMALS Normals float
0.233419 0.640672 0.731474 0.169645 0.528206 0.831997 0.0614034 0.513638 0.855807 
0.0124873 0.465423 0.885 -0.0061596 0.471219 0.881994 -0.019753 0.501275 0.865062 
-0.0948283 0.531039 0.842025 -0.19271 0.607464 0.770617 0.322419 0.561879 0.761799 
0.157878 0.38952 0.907386 0.0773734 0.300719 0.950569 0.0690658 0.166707 0.983585 
0.0426256 0.113551 0.992617 -0.0150798 0.111267 0.993676 -0.0012668 0.0910726 0.995843 
0.00342552 0.103047 0.994671 -0.0435229 0.11664 0.99222 -0.086436 0.213558 0.973099 
-0.0918296 0.293738 0.951465 -0.18411 0.421405 0.887987 -0.379157 0.58856 0.714029 
0.448251 0.35865 0.818805 0.205837 0.215313 0.954605 0.0624807 0.175629 0.982472 
-0.037555 0.104041 0.993864 -0.00942344 0.0129145 0.999872 0.00365065 -0.0948827 0.995482 
-0.0221374 -0.0615717 0.997857 -0.0100566 -0.128653 0.991639 0.0210176 -0.0712306 0.997238 
0.0324112 -0.0659822 0.997294 -0.0139892 0.015872 0.999776 -0.0525228 0.102461 0.993349 
-0.0424547 0.187422 0.981362 -0.20799 0.219424 0.953202 -0.434422 0.377036 0.817998 
0.557344 0.259265 0.788764 0.2944 0.212958 0.931653 0.0638371 0.115587 0.991244 
0.0292528 0.031494 0.999076 -0.080315 0.00226805 0.996767 -0.133482 -0.0854351 0.987362 
-0.0328872 -0.141075 0.989452 -0.0496488 0.0537441 0.99732 -0.0111974 -0.0312055 0.99945 
0.0677348 0.0811417 0.994398 0.0436971 -0.13301 0.990151 0.0822333 -0.0801975 0.993381 
0.107538 0.0336709 0.993631 -0.069256 0.068804 0.995223 -0.208485 0.080864 0.974677 
-0.336939 0.204955 0.918948 0.544613 0.0492882 0.837238 0.278156 -0.00905657 0.960493 
0.0147996 0.00781919 0.99986 -0.0515157 -0.00977445 0.998624 -0.15501 -0.0545811 0.986404 
-0.156705 -0.0527166 0.986237 0.119284 -0.0384849 0.992114 0.0933023 0.166907 0.981548 
0.0190815 -0.0599324 0.99802 -0.0992641 0.161922 0.981798 -0.117066 -0.0970756 0.988368 
0.153169 -0.0314917 0.987698 0.0969542 -0.00181942 0.995287 0.00623221 -0.044373 0.998996 
-0.0577338 0.0670028 0.996081 -0.298727 0.124742 0.946151 -0.515966 0.150275 0.843325 
0.506489 -0.119381 0.853942 0.270874 -0.141758 0.95212 0.0602393 -0.136966 0.988742 
-0.0330081 -0.0795338 0.996285 -0.120899 -0.0219118 0.992423 -0.109939 0.0528375 0.992533 
0.118143 0.108928 0.987004 -0.0731293 -0.141057 0.987297 -0.00941513 0.050498 0.99868 
0.0155526 -0.0564455 0.998285 -0.0817634 0.0710914 0.994113 0.174525 0.0362681 0.983984 
0.0928326 0.0284261 0.995276 -0.000460813 0.0108704 0.999941 -0.0495013 -0.0220758 0.99853 
-0.282408 -0.0189407 0.959107 -0.49746 -0.00962992 0.867433 0.544826 -0.345095 0.764247 
0.253247 -0.308532 0.916883 0.107659 -0.215232 0.97061 0.0603407 -0.172564 0.983148 
-0.0284737 -0.0957437 0.994999 -0.0296437 0.007013 0.999536 0.00949755 0.0339349 0.999379 
0.0429776 -0.169567 0.984581 0.0770264 0.117335 0.990101 -0.0810237 -0.07512 0.993877 
-0.0665168 0.0610865 0.995914 0.115504 0.0219656 0.993064 0.0710274 -0.0175646 0.99732 
-0.0426309 -0.0273679 0.998716 -0.0911507 -0.0592873 0.994071 -0.28636 -0.135051 0.948556 
-0.476022 -0.185813 0.85958 0.205202 -0.27499 0.939294 0.0838066 -0.286156 0.954511 
0.0690786 -0.201398 0.977071 0.0255844 -0.0982629 0.994832 -0.0520117 -0.0980835 0.993818 
-0.00401972 -0.130751 0.991407 0.102709 -0.181011 0.978103 -0.0268828 -0.224579 0.974085 
-0.00927526 -0.162348 0.98669 0.0992033 -0.172369 0.980024 0.0403347 -0.189136 0.981122 
-0.0458919 -0.126596 0.990892 -0.14219 -0.178838 0.97355 -0.385203 -0.298232 0.873314 
0.295196 -0.502077 0.812883 0.127534 -0.324762 0.937158 0.162147 -0.268814 0.949446 
0.0754394 -0.201963 0.976483 -0.0264587 -0.189659 0.981493 -0.0338407 -0.15137 0.987898 
-0.0203816 -0.240876 0.970342 -0.0574548 -0.345119 0.936799 -0.0266311 -0.370847 0.928312 
0.0646882 -0.452473 0.889429 0.086485 -0.442296 0.89269 -0.0362063 -0.478701 0.877231 
-0.235009 -0.469232 0.85123 0.106967 -0.323494 0.940165 -0.0157109 -0.35009 0.936584 
-0.0583882 -0.342444 0.937722 -0.10414 -0.400328 0.910435 0.244071 0.675234 0.696052 
0.165116 0.737386 0.65498 0.0734983 0.745454 0.662492 0.0324831 0.760206 0.64887 
-0.0207959 0.765417 0.643199 -0.0551131 0.78226 0.620509 -0.102991 0.798138 0.593607 
-0.207015 0.751238 0.626727 0.346324 0.638813 0.687006 0.247338 0.68495 0.685323 
0.248356 0.685283 0.684621 0.289206 0.838395 0.462011 -0.25402 0.718147 0.647872 
-0.257271 0.702055 0.664026 -0.270754 0.761601 0.588776 -0.28616 0.683883 0.671131 
-0.364286 0.930743 0.0318266 -0.391426 0.647369 0.653987 0.412065 0.583433 0.699863 
0.480914 0.484072 0.731024 0.549701 0.686782 0.475561 -0.429032 0.618919 0.657929 
-0.499772 0.490904 0.713611 -0.598465 0.79346 0.110732 0.540417 0.394814 0.743015 
0.5911 0.342805 0.730127 0.751905 0.53301 0.387995 -0.553557 0.429957 0.71324 
-0.765501 0.613735 0.193231 0.618764 0.275665 0.735623 -0.521057 0.313083 0.794027 
-0.541241 0.306257 0.783112 -0.564939 0.336461 0.753417 0.658601 0.0647873 0.749698 
0.957412 0.146288 0.248923 -0.62777 0.157887 0.762218 0.625978 -0.127956 0.769272 
0.917863 -0.0975231 0.384729 -0.635543 0.00222847 0.772062 -0.958417 0.00350935 0.285349 
0.56656 -0.347818 0.747015 0.542106 -0.379738 0.749613 0.38314 -0.425371 0.819917 
-0.586675 -0.198196 0.785194 -0.527763 -0.324457 0.78498 0.63684 -0.525083 0.564556 
0.377555 -0.416052 0.827257 0.405655 -0.442864 0.799572 -0.510086 -0.35616 0.782919 
-0.413804 -0.461742 0.784577 -0.586846 -0.408187 0.699282 0.300162 -0.503843 0.809966 
0.493469 -0.639882 0.589101 0.298377 -0.503609 0.810771 0.178084 -0.377385 0.908772 
0.209694 -0.390727 0.896304 -0.128715 -0.449632 0.883891 -0.0831735 -0.448313 0.889998 
0.0467792 -0.555262 0.830359 0.0308977 -0.639928 0.767814 -0.0895637 -0.686508 0.721585 
-0.400473 -0.475826 0.783078 -0.18699 -0.683195 0.705889 -0.41999 -0.479544 0.770485 
0.442436 -0.735254 0.51347 0.364502 -0.595653 0.715776 0.191732 -0.393407 0.89915 
0.23022 -0.431282 0.87235 0.118107 -0.474677 0.8722 -0.0412398 -0.446903 0.893631 
-0.0639532 -0.420103 0.90522 -0.119866 -0.430612 0.894542 -0.108667 -0.427272 0.897569 
-0.156737 -0.502757 0.8501 -0.157486 -0.599487 0.784738 -0.049281 -0.79251 0.607865 
-0.0110447 -0.830882 0.556338 -0.132823 -0.900193 0.414741 -0.241287 -0.951304 0.191837 
0.316899 -0.787976 0.527891 0.139235 -0.737207 0.661165 -0.0322938 -0.738631 0.673336 
-0.093861 -0.759364 0.64386 -0.158281 -0.827479 0.538726 -0.250365 -0.864604 0.435635 
0.313801 0.945175 0.0904049 0.252635 0.966194 0.051426 0.189846 0.980289 0.0547013 
0.0938184 0.990353 0.101979 0.00988677 0.995608 0.0930922 -0.054094 0.997081 0.0538917 
-0.0902191 0.995707 0.0206821 -0.11183 0.993727 7.20726e-06 -0.18804 0.982124 -0.00860893 
-0.297764 0.953749 0.0412284 -0.362191 0.932094 -0.00420161 0.576909 0.811426 0.0936159 
0.390161 0.917724 0.0745499 0.429536 0.900214 0.0715043 -0.365407 0.930844 -0.00257136 
-0.364317 0.93073 -0.0318601 -0.465015 0.884374 0.0405488 -0.596402 0.797742 0.0889504 
0.648673 0.75539 0.0927837 0.783553 0.607703 0.129395 -0.600023 0.794929 0.0897787 
-0.59772 0.800033 0.0517397 -0.761701 0.635122 0.128183 0.823582 0.548719 0.143596 
-0.776015 0.617103 0.130322 -0.768395 0.63796 -0.0507466 0.929424 0.326021 0.172864 
0.959633 0.164454 0.228167 -0.89716 0.407283 0.170952 0.961629 0.148769 0.230514 
0.981015 0.173312 0.0870221 -0.955119 0.202867 0.215854 -0.955783 0.199305 0.216234 
0.941336 -0.0909799 0.324975 0.923435 -0.175738 0.341151 -0.975035 0.0020855 0.22204 
-0.958245 -0.217124 0.186072 -0.990108 -0.00234317 -0.140288 0.878579 -0.329848 0.345396 
-0.957326 -0.222111 0.184917 0.762442 -0.500469 0.410137 0.686094 -0.57186 0.449724 
-0.868757 -0.447108 0.212969 -0.714896 -0.674478 0.1844 0.564357 -0.670135 0.4821 
0.508445 -0.699825 0.501726 -0.681857 -0.709559 0.177758 -0.482359 -0.86207 0.155451 
0.447072 -0.740288 0.502096 0.444899 -0.743083 0.499893 0.459739 -0.749736 0.475958 
-0.27702 -0.878228 0.38984 -0.157651 -0.91948 0.360143 -0.0905708 -0.970695 0.222592 
-0.14821 -0.967255 0.206038 -0.277093 -0.948066 0.156177 -0.247592 -0.955248 0.161865 
-0.256247 -0.964694 -0.0608449 0.372568 -0.81322 0.447063 0.313603 -0.842298 0.438392 
0.16777 -0.910264 0.378514 0.00922491 -0.92324 0.384113 -0.111323 -0.929768 0.350912 
-0.167337 -0.916943 0.362235 -0.270489 -0.890458 0.365952 -0.258609 -0.89349 0.367148 
0.282208 0.862493 -0.420078 0.228886 0.863931 -0.448591 0.243393 0.88802 -0.390104 
0.125831 0.936693 -0.326762 -0.023836 0.951418 -0.306977 -0.110549 0.921631 -0.371988 
-0.116657 0.904865 -0.409403 -0.137398 0.88101 -0.452706 -0.173604 0.854153 -0.490188 
-0.263039 0.839398 -0.475628 0.554133 0.709382 -0.435562 0.308897 0.851327 -0.424058 
0.389392 0.806116 -0.445591 0.277813 0.829452 -0.484592 0.21518 0.789465 -0.574842 
0.231763 0.652155 -0.721789 -0.145302 0.665361 -0.732245 -0.146581 0.721951 -0.67624 
-0.168904 0.764177 -0.622499 -0.292793 0.833545 -0.468482 -0.253209 0.806411 -0.534403 
-0.342922 0.791051 -0.506599 -0.384872 0.785578 -0.4845 0.56739 0.699722 -0.434117 
0.705566 0.579836 -0.407391 0.551946 0.695987 -0.459302 0.326521 0.639935 -0.695606 
0.242899 0.524453 -0.816057 -0.208753 0.433197 -0.876791 -0.247481 0.596503 -0.763503 
-0.45554 0.755102 -0.471491 -0.352008 0.704099 -0.616713 -0.524738 0.710498 -0.468873 
0.720115 0.566409 -0.400768 0.69781 0.569754 -0.434098 0.461507 0.429416 -0.776282 
-0.268433 0.40807 -0.872595 -0.660026 0.601686 -0.449822 -0.462423 0.549513 -0.695845 
-0.702875 0.553145 -0.447211 0.853529 0.348505 -0.387339 0.574519 0.358123 -0.735987 
-0.817712 0.412641 -0.401341 -0.616028 0.424057 -0.663841 0.896266 0.222434 -0.383706 
0.922949 0.141169 -0.358101 -0.884565 0.201386 -0.4207 -0.552179 0.199641 -0.80947 
0.959236 -0.024214 -0.281566 0.948506 -0.158665 -0.274156 0.919905 -0.0122396 -0.39195 
-0.892626 -0.0051883 -0.450768 0.932017 -0.271181 -0.240426 -0.871055 -0.209619 -0.444211 
-0.606477 -0.223144 -0.763146 0.871638 -0.462787 -0.161481 0.761024 -0.636562 -0.125023 
0.645917 -0.390089 -0.656218 -0.815971 -0.432713 -0.383341 -0.681791 -0.59127 -0.430767 
-0.616027 -0.430212 -0.659869 0.718353 -0.687353 -0.107305 0.619943 -0.782143 -0.0626336 
-0.0799614 -0.408637 -0.909187 -0.247621 -0.873636 -0.41886 -0.197675 -0.524164 -0.828358 
-0.608403 -0.667484 -0.429315 -0.462816 -0.777453 -0.425873 -0.435695 -0.632144 -0.640752 
0.559405 -0.82718 -0.0532916 0.506655 -0.860385 -0.0551137 0.409178 -0.737399 -0.537416 
0.453247 -0.885671 -0.100766 -0.15121 -0.404358 -0.902014 -0.280964 -0.928416 -0.243112 
-0.195484 -0.448405 -0.872192 -0.257375 -0.910259 -0.324325 -0.157536 -0.699707 -0.696844 
-0.18314 -0.924043 -0.335566 -0.114959 -0.786045 -0.607387 -0.211129 -0.900647 -0.379816 
-0.1702 -0.920209 -0.352486 -0.176797 -0.882234 -0.436355 0.429171 -0.895527 -0.117661 
0.276445 -0.937195 -0.212703 0.212998 -0.850646 -0.480659 0.120265 -0.963927 -0.237448 
0.0921022 -0.753081 -0.651449 -0.0384837 -0.959076 -0.280521 -0.0349911 -0.709245 -0.704093 
-0.132892 -0.948827 -0.286474 -0.12683 -0.738942 -0.661724 -0.181031 -0.929581 -0.321103 
-0.175345 -0.826081 -0.535578 -0.239264 -0.92462 -0.296361 -0.220518 -0.915366 -0.336863 
-0.206482 -0.891097 -0.404119 0.137242 0.589625 -0.795932 0.00107128 0.661714 -0.749756 
-0.132585 0.638451 -0.758157 0.180743 0.553284 -0.813148 0.15191 0.582712 -0.798355 
0.200238 0.543871 -0.814929 0.138085 0.574516 -0.806761 0.0104117 0.598778 -0.800847 
-0.138204 0.624987 -0.768304 -0.133292 0.618215 -0.774625 -0.13549 0.566974 -0.812517 
-0.137471 0.538792 -0.831147 -0.168661 0.470648 -0.866051 0.297834 0.486061 -0.821608 
0.241235 0.523129 -0.817399 0.242139 0.522224 -0.817711 0.147681 0.471358 -0.86949 
0.145437 0.372741 -0.916467 0.111015 0.301862 -0.946866 -0.0207858 0.226807 -0.973718 
-0.0813219 0.247445 -0.965483 -0.076965 0.321362 -0.943823 -0.12447 0.353646 -0.927061 
-0.203605 0.427055 -0.881005 -0.169135 0.385863 -0.90692 -0.201394 0.422305 -0.883798 
-0.195423 0.452072 -0.870311 0.390243 0.401485 -0.828565 0.396161 0.363613 -0.843115 
0.292972 0.382993 -0.876061 0.12521 0.290653 -0.948601 0.0744466 0.268405 -0.960425 
0.0478293 0.180177 -0.982471 0.0332911 0.0838609 -0.995921 -0.038566 0.0599548 -0.997456 
-0.0565899 0.103981 -0.992968 -0.0481206 0.0881225 -0.994947 -0.0921006 0.0560627 -0.99417 
-0.0940157 0.14123 -0.985503 -0.0804831 0.252976 -0.964119 -0.254029 0.395395 -0.882684 
-0.161245 0.337332 -0.927473 -0.258998 0.392041 -0.882736 -0.38103 0.308435 -0.871598 
0.453753 0.337282 -0.824833 0.554814 0.233007 -0.79868 0.330737 0.301623 -0.894224 
0.19523 0.164413 -0.966878 0.132705 0.137738 -0.981538 0.0336418 0.0784407 -0.996351 
-0.051373 0.0341297 -0.998096 -0.0232269 -0.00539604 -0.999716 -0.00244776 0.0480626 -0.998841 
-0.0451339 0.0860584 -0.995267 -0.125097 0.0019425 -0.992143 -0.0729496 -0.0764868 -0.994398 
0.0180931 0.0523327 -0.998466 0.00583485 0.136485 -0.990625 -0.0702482 0.223759 -0.97211 
-0.190479 0.283556 -0.939848 -0.3821 0.292466 -0.87662 -0.369499 0.275231 -0.887535 
0.606658 0.115237 -0.786567 0.549857 0.103511 -0.82882 0.322432 0.163868 -0.932301 
0.111197 0.140095 -0.983874 0.0254675 0.068319 -0.997338 -0.0348125 -0.0306703 -0.998923 
-0.0321624 -0.0682074 -0.997153 0.0482576 -0.0341646 -0.99825 0.0554944 0.0806475 -0.995197 
-0.0902624 -0.146788 -0.985041 -0.239127 0.0746179 -0.968117 -0.0177848 -0.0167472 -0.999702 
0.1203 0.0466937 -0.991639 0.0850187 0.0885839 -0.992434 -0.0205597 0.122567 -0.992247 
-0.161968 0.1052 -0.981172 -0.524406 0.195759 -0.82866 -0.306825 0.135634 -0.942052 
-0.547681 -0.0318632 -0.83608 0.580761 0.0343028 -0.813351 0.561123 0.033917 -0.827037 
0.291513 0.057892 -0.954814 0.131891 0.0524408 -0.989876 -0.0341431 0.0174403 -0.999265 
-0.104642 -0.0125525 -0.994431 -0.0566912 -0.0465461 -0.997306 0.120193 -0.111655 -0.986452 
-0.123977 -0.0246116 -0.99198 -0.0418504 -0.122921 -0.991534 -0.00523251 -0.195543 -0.980681 
-0.0843692 -0.0627629 -0.994456 0.122268 -0.0477949 -0.991346 0.0844704 -0.026479 -0.996074 
-0.0470062 -0.0342672 -0.998307 -0.179928 -0.0384625 -0.982928 -0.295371 -0.0296116 -0.954924 
-0.547558 -0.0380882 -0.835901 -0.547643 -0.039291 -0.835789 -0.547335 -0.0380295 -0.836049 
0.633265 -0.0963921 -0.767909 0.594015 -0.281749 -0.753501 0.548836 -0.0773424 -0.832344 
0.366047 -0.0616409 -0.928553 0.051646 -0.0916174 -0.994454 -0.0388579 0.0130548 -0.999159 
-0.0933607 -0.0116862 -0.995564 -0.132427 -0.00633383 -0.991172 0.0634867 -0.0517615 -0.996639 
0.0381545 -0.136487 -0.989907 -0.260665 0.0327445 -0.964874 -0.152112 -0.27714 -0.948713 
0.1188 -0.139758 -0.983033 0.151209 -0.150414 -0.976991 0.101953 -0.147481 -0.983796 
-0.0278142 -0.175191 -0.984141 -0.165578 -0.122008 -0.978621 -0.487085 -0.178339 -0.854952 
-0.262474 -0.0761077 -0.961933 0.552882 -0.346243 -0.757917 0.368815 -0.287926 -0.883784 
0.18925 -0.159511 -0.968886 0.0442967 -0.134523 -0.98992 -0.121279 -0.0313346 -0.992124 
-0.100947 -0.0283104 -0.994489 -0.00142994 0.0377065 -0.999288 -0.021195 -0.137197 -0.990317 
-0.20282 -0.0784642 -0.976067 -0.157194 0.0225748 -0.98731 0.0322182 -0.0678546 -0.997175 
0.104754 -0.195685 -0.975056 0.057282 -0.260619 -0.963741 -0.076541 -0.396806 -0.914706 
-0.0291238 -0.280933 -0.959285 -0.14743 -0.44132 -0.885156 -0.0963889 -0.318678 -0.94295 
-0.403323 -0.341607 -0.848902 -0.361643 -0.417178 -0.833773 -0.318255 -0.274959 -0.907255 
0.495587 -0.513121 -0.700786 0.472367 -0.523878 -0.708817 0.445092 -0.4925 -0.747889 
0.339684 -0.615102 -0.711523 0.243609 -0.375839 -0.894092 0.0977725 -0.311052 -0.94535 
0.00630868 -0.212134 -0.97722 -0.0483961 -0.126871 -0.990738 -0.046806 -0.0784804 -0.995816 
-0.0843864 -0.179404 -0.98015 -0.116861 -0.171677 -0.978198 -0.148711 -0.350647 -0.924625 
-0.14186 -0.1014 -0.98468 -0.128898 -0.239045 -0.962415 -0.105873 -0.171061 -0.979556 
-0.0374849 -0.297349 -0.954033 -0.0374287 -0.296548 -0.954284 -0.0450907 -0.367106 -0.929086 
-0.011912 -0.348639 -0.937181 -0.0093587 -0.331179 -0.943522 0.299222 -0.602566 -0.739852 
0.250072 -0.572275 -0.781003 0.233254 -0.538622 -0.809617 0.119905 -0.582184 -0.804167 
0.0786455 -0.419915 -0.904149 0.0400086 -0.533928 -0.844583 0.00556857 -0.335677 -0.941961 
-0.0344587 -0.517826 -0.854791 -0.0504851 -0.359665 -0.931715 -0.107353 -0.461428 -0.880659 
-0.107585 -0.338269 -0.93488 -0.14196 -0.390305 -0.909675 -0.131938 -0.435474 -0.89048 
-0.122755 -0.381022 -0.91638 
