# vtk DataFile Version 4.2
vtk output
ASCII
DATASET POLYDATA
POINTS 552 float
10.1329 -38.0835 -14.464 -5.48061 -30.2767 -15.0059 2.32615 -30.2767 -17.2927 
10.1329 -30.2767 -17.9517 17.9397 -30.2767 -17.8466 25.7464 -30.2767 -16.9601 
33.5532 -30.2767 -14.8276 -44.5144 -22.4699 -15.0708 -36.7077 -22.4699 -17.3718 
-28.9009 -22.4699 -17.2665 -21.0941 -22.4699 -16.5453 -13.2874 -22.4699 -16.237 
-5.48061 -22.4699 -17.4607 2.32615 -22.4699 -18.6575 10.1329 -22.4699 -18.7515 
17.9397 -22.4699 -19.0083 25.7464 -22.4699 -18.7926 33.5532 -22.4699 -17.9596 
41.36 -22.4699 -15.2038 -52.3212 -14.6632 -14.5217 -44.5144 -14.6632 -19.2582 
-36.7077 -14.6632 -20.5825 -28.9009 -14.6632 -19.9164 -21.0941 -14.6632 -18.536 
-13.2874 -14.6632 -17.0607 -5.48061 -14.6632 -17.7739 2.32615 -14.6632 -18.3926 
10.1329 -14.6632 -18.7422 17.9397 -14.6632 -19.4482 25.7464 -14.6632 -19.8616 
33.5532 -14.6632 -19.8798 41.36 -14.6632 -18.9463 49.1667 -14.6632 -15.6448 
-52.3212 -6.85641 -16.6765 -44.5144 -6.85641 -19.9547 -36.7077 -6.85641 -20.9359 
-28.9009 -6.85641 -21.447 -21.0941 -6.85641 -19.2322 -13.2874 -6.85641 -18.6109 
-5.48061 -6.85641 -20.03 2.32615 -6.85641 -19.0788 10.1329 -6.85641 -21.0979 
17.9397 -6.85641 -20.598 25.7464 -6.85641 -20.5919 33.5532 -6.85641 -20.7665 
41.36 -6.85641 -20.2495 49.1667 -6.85641 -18.5585 -52.3212 0.95035 -16.9187 
-44.5144 0.95035 -19.885 -36.7077 0.95035 -20.7149 -28.9009 0.95035 -20.2165 
-21.0941 0.95035 -19.0829 -13.2874 0.95035 -20.1234 -5.48061 0.95035 -21.6764 
2.32615 0.95035 -18.6431 10.1329 0.95035 -21.7975 17.9397 0.95035 -20.9894 
25.7464 0.95035 -21.2252 33.5532 0.95035 -21.6997 41.36 0.95035 -21.5771 
49.1667 0.95035 -20.2461 56.9735 0.95035 -16.5865 -52.3212 8.75711 -16.2038 
-44.5144 8.75711 -19.3873 -36.7077 8.75711 -21.0817 -28.9009 8.75711 -20.4939 
-21.0941 8.75711 -19.3886 -13.2874 8.75711 -19.1426 -5.48061 8.75711 -20.6 
2.32615 8.75711 -19.4471 10.1329 8.75711 -20.1479 17.9397 8.75711 -20.5002 
25.7464 8.75711 -21.2592 33.5532 8.75711 -21.8784 41.36 8.75711 -21.8032 
49.1667 8.75711 -20.9082 56.9735 8.75711 -17.4447 -44.5144 16.5639 -18.4148 
-36.7077 16.5639 -20.2723 -28.9009 16.5639 -20.3828 -21.0941 16.5639 -20.3028 
-13.2874 16.5639 -20.2593 -5.48061 16.5639 -20.296 2.32615 16.5639 -20.0792 
10.1329 16.5639 -20.4009 17.9397 16.5639 -20.8878 25.7464 16.5639 -21.3452 
33.5532 16.5639 -20.9929 41.36 16.5639 -20.5894 49.1667 16.5639 -19.333 
56.9735 16.5639 -16.322 -44.5144 24.3706 -16.6635 -36.7077 24.3706 -18.7934 
-28.9009 24.3706 -20.3511 -21.0941 24.3706 -20.562 -13.2874 24.3706 -20.3849 
-5.48061 24.3706 -20.3149 2.32615 24.3706 -19.9657 10.1329 24.3706 -19.7091 
17.9397 24.3706 -19.79 25.7464 24.3706 -19.2125 33.5532 24.3706 -18.7492 
41.36 24.3706 -18.0376 49.1667 24.3706 -15.9949 -36.7077 32.1774 -15.6808 
-28.9009 32.1774 -17.3108 -21.0941 32.1774 -18.3538 -13.2874 32.1774 -18.4407 
-5.48061 32.1774 -17.9597 2.32615 32.1774 -17.1822 10.1329 32.1774 -16.3367 
17.9397 32.1774 -15.26 10.1329 -38.1846 -14.3804 -5.48061 -31.3004 -14.3804 
-5.48061 -38.0835 -8.31958 9.66268 -38.0835 -14.3804 2.32615 -35.8107 -14.3804 
2.32615 -38.0835 -12.2852 15.578 -38.0835 -14.3804 17.9397 -38.0063 -14.3804 
17.9397 -38.0835 -14.3337 25.7464 -35.7515 -14.3804 25.7464 -38.0835 -12.4936 
33.5532 -30.9246 -14.3804 33.5532 -38.0835 -6.9788 -44.5144 -23.3639 -14.3804 
-36.7077 -26.4286 -14.3804 -36.7077 -30.2767 -9.6498 -28.9009 -27.3713 -14.3804 
-28.9009 -30.2767 -11.743 -21.0941 -26.5706 -14.3804 -21.0941 -30.2767 -11.9296 
-7.69614 -30.2767 -14.3804 -13.2874 -26.9427 -14.3804 -13.2874 -30.2767 -12.6122 
34.4222 -30.2767 -14.3804 41.36 -23.9674 -14.3804 41.36 -30.2767 -9.11821 
-45.8027 -22.4699 -14.3804 -52.3212 -14.9563 -14.3804 -52.3212 -22.4699 -8.30845 
42.8117 -22.4699 -14.3804 49.1667 -16.8258 -14.3804 49.1667 -22.4699 -8.6024 
-52.4764 -14.6632 -14.3804 50.9832 -14.6632 -14.3804 -54.9169 -6.85641 -14.3804 
56.3358 -6.85641 -14.3804 56.9735 -5.76436 -14.3804 56.9735 -6.85641 -13.7588 
-55.3402 0.95035 -14.3804 -60.1279 0.95035 -6.63764 60.1634 0.95035 -14.3804 
-54.4607 8.75711 -14.3804 -52.3212 15.7715 -14.3804 61.6821 8.75711 -14.3804 
64.7803 8.75711 -9.52631 -51.9213 16.5639 -14.3804 -52.3212 16.5639 -14.0771 
59.1954 16.5639 -14.3804 56.9735 19.0785 -14.3804 -48.0966 24.3706 -14.3804 
-52.3212 24.3706 -9.75809 -44.5144 28.3885 -14.3804 25.7464 32.1237 -14.3804 
33.5532 30.5369 -14.3804 41.36 28.654 -14.3804 51.8655 24.3706 -14.3804 
49.1667 26.5405 -14.3804 56.9735 24.3706 -9.08443 -39.4605 32.1774 -14.3804 
-44.5144 32.1774 -10.2396 -36.7077 33.7989 -14.3804 -28.9009 35.7517 -14.3804 
-21.0941 36.9367 -14.3804 -13.2874 37.2055 -14.3804 -5.48061 36.5998 -14.3804 
2.32615 35.4433 -14.3804 10.1329 34.3014 -14.3804 25.3955 32.1774 -14.3804 
17.9397 33.0114 -14.3804 25.7464 32.1774 -14.3078 33.5532 32.1774 -12.1269 
41.36 32.1774 -9.82759 -21.0941 39.9842 -7.91866 -13.2874 39.9842 -7.96015 
-5.48061 39.9842 -6.91849 -5.48061 -39.2697 -6.57365 2.32615 -42.1041 -6.57365 
10.1329 -43.8936 -6.57365 10.1329 -45.8902 0.684936 17.9397 -43.8799 -6.57365 
25.7464 -42.1311 -6.57365 33.5532 -38.3519 -6.57365 -36.7077 -32.4314 -6.57365 
-28.9009 -33.894 -6.57365 -28.9009 -38.0835 0.893355 -21.0941 -34.9045 -6.57365 
-21.0941 -38.0835 -1.58432 -8.60358 -38.0835 -6.57365 -13.2874 -36.1369 -6.57365 
-13.2874 -38.0835 -3.92872 33.9499 -38.0835 -6.57365 41.36 -32.265 -6.57365 
-52.3212 -23.4658 -6.57365 -43.11 -30.2767 -6.57365 -44.5144 -29.7166 -6.57365 
-44.5144 -30.2767 -4.80582 43.42 -30.2767 -6.57365 49.1667 -24.1318 -6.57365 
-53.2144 -22.4699 -6.57365 50.587 -22.4699 -6.57365 -57.1292 -14.6632 -6.57365 
56.6445 -14.6632 -6.57365 56.9735 -14.1692 -6.57365 -59.2496 -6.85641 -6.57365 
-60.1279 0.663314 -6.57365 61.8917 -6.85641 -6.57365 -60.1593 0.95035 -6.57365 
-60.1279 1.31929 -6.57365 64.6073 0.95035 -6.57365 64.7803 1.88596 -6.57365 
-59.4498 8.75711 -6.57365 65.9783 8.75711 -6.57365 64.7803 15.0851 -6.57365 
-57.8232 16.5639 -6.57365 64.4855 16.5639 -6.57365 -54.5004 24.3706 -6.57365 
-52.3212 27.4552 -6.57365 49.1667 30.569 -6.57365 58.9983 24.3706 -6.57365 
56.9735 26.4599 -6.57365 -47.6499 32.1774 -6.57365 -44.5144 34.3629 -6.57365 
-36.7077 38.1868 -6.57365 -28.9009 39.9512 -6.57365 2.32615 39.3374 -6.57365 
10.1329 38.3805 -6.57365 17.9397 37.1403 -6.57365 25.7464 35.8265 -6.57365 
33.5532 34.9648 -6.57365 45.578 32.1774 -6.57365 41.36 34.0678 -6.57365 
-28.4154 39.9842 -6.57365 -28.9009 39.9842 -3.93536 -21.0941 40.4676 -6.57365 
-13.2874 40.437 -6.57365 -4.29678 39.9842 -6.57365 -5.48061 40.1 -6.57365 
2.32615 39.9842 -3.61939 10.1329 39.9842 0.639051 10.1329 -46.024 1.23311 
-28.9009 -38.2507 1.23311 -21.0941 -39.691 1.23311 -13.2874 -41.1212 1.23311 
-5.48061 -42.8463 1.23311 6.83677 -45.8902 1.23311 2.32615 -45.669 1.23311 
12.6268 -45.8902 1.23311 10.1329 -45.8902 2.96191 17.9397 -45.5991 1.23311 
25.7464 -43.3566 1.23311 33.5532 -39.1803 1.23311 -44.5144 -31.71 1.23311 
-29.5456 -38.0835 1.23311 -36.7077 -36.0351 1.23311 35.0854 -38.0835 1.23311 
33.5532 -38.0835 3.91837 41.36 -32.6898 1.23311 -46.2729 -30.2767 1.23311 
-52.3212 -23.4391 1.23311 43.7713 -30.2767 1.23311 41.36 -30.2767 5.37943 
49.1667 -23.7828 1.23311 -53.051 -22.4699 1.23311 -52.3212 -22.4699 3.83893 
50.2366 -22.4699 1.23311 49.1667 -22.4699 2.87312 -57.0118 -14.6632 1.23311 
55.636 -14.6632 1.23311 56.9735 -12.4624 1.23311 -58.9791 -6.85641 1.23311 
-60.1279 0.512721 1.23311 60.5722 -6.85641 1.23311 56.9735 -6.85641 6.0235 
-60.1955 0.95035 1.23311 -60.1279 2.11954 1.23311 -60.1279 0.95035 1.45599 
63.187 0.95035 1.23311 64.7803 7.04808 1.23311 -59.7445 8.75711 1.23311 
65.2624 8.75711 1.23311 64.7803 10.459 1.23311 64.7803 8.75711 1.95019 
-58.343 16.5639 1.23311 63.1923 16.5639 1.23311 -55.1044 24.3706 1.23311 
-52.3212 28.1043 1.23311 -52.3212 24.3706 8.14486 49.1667 31.0844 1.23311 
58.4377 24.3706 1.23311 56.9735 25.8615 1.23311 56.9735 24.3706 3.30789 
-48.0451 32.1774 1.23311 -44.5144 34.6475 1.23311 -44.5144 32.1774 7.35812 
-36.7077 38.1992 1.23311 17.9397 38.7064 1.23311 25.7464 37.2154 1.23311 
33.5532 36.0275 1.23311 46.89 32.1774 1.23311 41.36 34.4581 1.23311 
41.36 32.1774 6.8584 -29.1633 39.9842 1.23311 -28.9009 40.0476 1.23311 
-28.9009 39.9842 1.43056 -21.0941 40.6235 1.23311 -21.0941 39.9842 3.804 
-13.2874 40.9544 1.23311 -13.2874 39.9842 8.94541 -5.48061 41.1929 1.23311 
2.32615 40.9989 1.23311 10.8251 39.9842 1.23311 10.1329 40.1106 1.23311 
-28.9009 -39.5647 9.03987 -21.0941 -41.3792 9.03987 -13.2874 -42.682 9.03987 
-5.48061 -43.8599 9.03987 2.32615 -45.0822 9.03987 10.1329 -45.3659 9.03987 
17.9397 -43.779 9.03987 25.7464 -40.4455 9.03987 -44.5144 -30.4098 9.03987 
-32.7477 -38.0835 9.03987 -36.7077 -36.3127 9.03987 -28.9009 -38.0835 13.5033 
17.9397 -38.0835 15.3518 29.7665 -38.0835 9.03987 25.7464 -38.0835 11.6514 
33.5532 -35.2363 9.03987 -44.6532 -30.2767 9.03987 -44.5144 -30.2767 9.26354 
25.7464 -30.2767 16.7306 38.8037 -30.2767 9.03987 33.5532 -30.2767 12.9246 
41.36 -26.9898 9.03987 -50.7074 -22.4699 9.03987 -52.3212 -19.1721 9.03987 
-44.5144 -22.4699 16.8275 33.5532 -22.4699 16.2683 44.6113 -22.4699 9.03987 
41.36 -22.4699 11.7357 49.1667 -15.6468 9.03987 -54.431 -14.6632 9.03987 
-52.3212 -14.6632 12.1107 41.36 -14.6632 14.3424 49.784 -14.6632 9.03987 
49.1667 -14.6632 9.54581 -56.3441 -6.85641 9.03987 -52.3212 -6.85641 14.6891 
41.36 -6.85641 15.556 53.9065 -6.85641 9.03987 49.1667 -6.85641 12.3378 
56.9735 -0.0858969 9.03987 -57.5095 0.95035 9.03987 -52.3212 0.95035 16.0642 
41.36 0.95035 16.4021 49.1667 0.95035 13.9605 57.4313 0.95035 9.03987 
56.9735 0.95035 9.35677 -57.2078 8.75711 9.03987 -52.3212 8.75711 15.5037 
17.9397 8.75711 16.8008 41.36 8.75711 16.708 49.1667 8.75711 14.9984 
59.3242 8.75711 9.03987 56.9735 8.75711 10.9248 -55.5366 16.5639 9.03987 
-52.3212 23.5831 9.03987 -52.3212 16.5639 13.0543 33.5532 16.5639 16.8049 
41.36 16.5639 15.9057 49.1667 16.5639 14.3138 57.6589 16.5639 9.03987 
[...]
POINT_DATA 552
SCALARS ImageScalars float
LOOKUP_TABLE default
0 0 0 0 0 0 0 0 0 
0 0 0 0 0 0 0 0 0 
0 0 0 0 0 0 0 0 0 
0 0 0 0 0 0 0 0 0 
0 0 0 0 0 0 0 0 0 
0 0 0 0 0 0 0 0 0 
0 0 0 0 0 0 0 0 0 
0 0 0 0 0 0 0 0 0 
0 0 0 0 0 0 0 0 0 
0 0 0 0 0 0 0 0 0 
0 0 0 0 0 0 0 0 0 
0 0 0 0 0 0 0 0 0 
0 0 0 0 0 0 0 0 0 
0 0 0 0 0 0 0 0 0 
0 0 0 0 0 0 0 0 0 
0 0 0 0 0 0 0 0 0 
0 0 0 0 0 0 0 0 0 
0 0 0 0 0 0 0 0 0 
0 0 0 0 0 0 0 0 0 
0 0 0 0 0 0 0 0 0 
0 0 0 0 0 0 0 0 0 
0 0 0 0 0 0 0 0 0 
0 0 0 0 0 0 0 0 0 
0 0 0 0 0 0 0 0 0 
0 0 0 0 0 0 0 0 0 
0 0 0 0 0 0 0 0 0 
0 0 0 0 0 0 0 0 0 
0 0 0 0 0 0 0 0 0 
0 0 0 0 0 0 0 0 0 
0 0 0 0 0 0 0 0 0 
0 0 0 0 0 0 0 0 0 
0 0 0 0 0 0 0 0 0 
0 0 0 0 0 0 0 0 0 
0 0 0 0 0 0 0 0 0 
0 0 0 0 0 0 0 0 0 
0 0 0 0 0 0 0 0 0 
0 0 0 0 0 0 0 0 0 
0 0 0 0 0 0 0 0 0 
0 0 0 0 0 0 0 0 0 
0 0 0 0 0 0 0 0 0 
0 0 0 0 0 0 0 0 0 
0 0 0 0 0 0 0 0 0 
0 0 0 0 0 0 0 0 0 
0 0 0 0 0 0 0 0 0 
0 0 0 0 0 0 0 0 0 
0 0 0 0 0 0 0 0 0 
0 0 0 0 0 0 0 0 0 
0 0 0 0 0 0 0 0 0 
0 0 0 0 0 0 0 0 0 
0 0 0 0 0 0 0 0 0 
0 0 0 0 0 0 0 0 0 
0 0 0 0 0 0 0 0 0 
0 0 0 0 0 0 0 0 0 
0 0 0 0 0 0 0 0 0 
0 0 0 0 0 0 0 0 0 
0 0 0 0 0 0 0 0 0 
0 0 0 0 0 0 0 0 0 
0 0 0 0 0 0 0 0 0 
0 0 0 0 0 0 0 0 0 
0 0 0 0 0 0 0 0 0 
0 0 0 0 0 0 0 0 0 
0 0 0 
NORMALS Normals float
0.0736354 0.608411 0.790198 0.277999 0.433158 0.857374 0.168884 0.320044 0.932228 
0.0339659 0.245325 0.968846 -0.0655429 0.264147 0.962253 -0.163412 0.336874 0.927261 
-0.350157 0.492624 0.796688 0.366285 0.56203 0.741592 0.111793 0.507883 0.854141 
-0.0507005 0.423303 0.904569 -0.0603232 0.355428 0.932755 0.0589085 0.243027 0.968229 
0.150635 0.150731 0.977031 0.0812388 0.0673495 0.994417 0.0221813 0.0517847 0.998412 
0.00174986 0.0970297 0.99528 -0.0662853 0.178932 0.981626 -0.201542 0.274959 0.940095 
-0.410424 0.430803 0.803717 0.648615 0.329166 0.686257 0.315268 0.264116 0.911509 
0.03099 0.222682 0.974398 -0.120692 0.235284 0.964404 -0.180779 0.164223 0.969716 
-0.0438365 0.142223 0.988863 0.0847921 0.154911 0.984283 0.0600796 0.0262619 0.997848 
0.0670404 0.13269 0.988888 0.0712681 0.0989467 0.992537 0.0275769 0.120675 0.992309 
-0.048344 0.182023 0.982105 -0.251702 0.283267 0.925422 -0.478673 0.408671 0.777085 
0.595084 0.125303 0.793835 0.243809 0.0320456 0.969294 0.0942771 0.00659309 0.995524 
-0.115173 0.0175211 0.993191 -0.164858 0.0324649 0.985783 0.0473257 0.192937 0.980069 
0.0272111 0.237774 0.970939 0.0597085 0.0185174 0.998044 0.101803 0.205947 0.973253 
-0.0291575 0.0994345 0.994617 0.010726 0.0867141 0.996175 -0.0205607 0.113043 0.993377 
-0.12774 0.155569 0.979531 -0.335054 0.288051 0.897087 0.555371 -0.0288557 0.831102 
0.22417 -0.0372712 0.973837 0.0244774 0.00843211 0.999665 -0.106921 -0.0526305 0.992874 
-0.0130844 0.0088016 0.999876 0.164147 0.0312095 0.985942 -0.100882 0.0337443 0.994326 
0.0340072 0.0254971 0.999096 0.139038 -0.0667676 0.988034 -0.035408 -0.00724827 0.999347 
0.0453608 0.0424965 0.998066 0.0227003 0.0706631 0.997242 -0.0868314 0.0970039 0.991489 
-0.287583 0.129199 0.949001 -0.525828 0.178221 0.83171 0.575054 -0.154894 0.803319 
0.281279 -0.0847779 0.955874 0.078844 -0.0269253 0.996523 -0.102491 0.0106426 0.994677 
-0.0888354 0.0802486 0.992808 0.0783181 0.0160608 0.996799 0.0202141 -0.0785522 0.996705 
-0.0271245 0.0891753 0.995647 0.0667867 -0.0859875 0.994055 0.0711197 -0.00685608 0.997444 
0.0879744 0.00750071 0.996095 0.0348531 -0.0446426 0.998395 -0.057533 -0.0612704 0.996462 
-0.260826 -0.0445885 0.964356 -0.488028 -0.000570374 0.872828 0.345571 -0.171819 0.922529 
0.11302 -0.150501 0.982128 0.00162997 -0.00903529 0.999958 -0.00787689 0.0706133 0.997473 
-0.000432311 0.0790036 0.996874 -0.0115401 -0.0177171 0.999776 0.00599759 0.0330503 0.999436 
0.0521974 -0.0272909 0.998264 0.0592719 -0.0398544 0.997446 0.00666938 -0.127383 0.991831 
-0.0462246 -0.18344 0.981943 -0.0936224 -0.204544 0.97437 -0.231155 -0.317076 0.919799 
-0.504309 -0.349551 0.789612 0.402001 -0.345311 0.84803 0.216735 -0.253896 0.942636 
0.119721 -0.180535 0.976255 0.00147385 -0.109925 0.993939 -0.015444 -0.104755 0.994378 
-0.0263514 -0.133538 0.990693 -0.0385478 -0.166624 0.985267 -0.0111865 -0.226057 0.97405 
-0.0303942 -0.294232 0.955251 -0.0602175 -0.375335 0.924931 -0.06629 -0.430139 0.900325 
-0.168493 -0.499261 0.849911 -0.363548 -0.514068 0.776896 0.301877 -0.56263 0.769622 
0.154341 -0.52702 0.835721 0.0693998 -0.48016 0.874431 -0.023832 -0.455472 0.889931 
-0.0767419 -0.488178 0.869363 -0.0958669 -0.542088 0.834835 -0.107343 -0.608807 0.786023 
-0.109164 -0.694619 0.711047 0.073721 0.61301 0.786628 0.290774 0.473457 0.831438 
0.319039 0.775506 0.544798 0.0833515 0.613264 0.785468 0.231505 0.57101 0.787625 
0.251464 0.70111 0.667241 -0.0323039 0.605257 0.795375 -0.0795961 0.598012 0.797525 
-0.079914 0.602579 0.794048 -0.239298 0.556994 0.795295 -0.285937 0.68724 0.667788 
-0.358837 0.511272 0.780921 -0.490642 0.801128 0.342729 0.378267 0.592769 0.711012 
0.15565 0.643368 0.749567 0.204325 0.796279 0.569377 0.0182408 0.61105 0.791382 
0.0887173 0.748098 0.657631 -0.0178109 0.487468 0.872959 0.0402997 0.65014 0.758745 
0.245301 0.469665 0.848082 0.116892 0.416639 0.901526 0.156344 0.572245 0.805042 
-0.368801 0.502463 0.781996 -0.437279 0.445942 0.780975 -0.612888 0.654478 0.44275 
0.421368 0.571374 0.704259 0.650088 0.34089 0.679102 0.721633 0.621251 0.305439 
-0.455627 0.450444 0.767792 -0.51663 0.458849 0.722876 -0.709856 0.613544 0.345932 
0.654402 0.331294 0.679707 -0.540118 0.441637 0.7164 0.723987 0.135282 0.676418 
-0.579383 0.407315 0.705982 -0.590387 0.388638 0.707392 -0.620189 0.428775 0.656899 
0.706538 -0.023327 0.707291 0.96798 0.0118843 0.250745 -0.66689 0.203783 0.716749 
0.678527 -0.146248 0.71987 0.585182 -0.268578 0.765132 -0.694724 -0.0379151 0.718276 
-0.939973 -0.0183413 0.340756 0.571402 -0.277271 0.772412 0.593263 -0.283761 0.753338 
-0.595298 -0.374028 0.711142 -0.536516 -0.448402 0.714903 0.558262 -0.377176 0.738973 
0.758895 -0.461249 0.459703 0.464588 -0.495773 0.733735 -0.115194 -0.757888 0.642133 
-0.147622 -0.722823 0.675081 -0.179358 -0.671878 0.718617 -0.444806 -0.545491 0.710343 
-0.36348 -0.623257 0.692411 -0.623651 -0.677655 0.389671 0.366266 -0.600967 0.710414 
0.514876 -0.724188 0.458753 0.305381 -0.642063 0.703205 0.152141 -0.703764 0.693952 
0.0737587 -0.76714 0.637225 -0.0165069 -0.776489 0.629914 -0.0917837 -0.748347 0.656926 
-0.118273 -0.723294 0.680336 -0.13032 -0.718226 0.683497 -0.115371 -0.757758 0.642255 
-0.117314 -0.732924 0.670119 -0.115875 -0.761994 0.637133 -0.143871 -0.831752 0.536181 
-0.236555 -0.856866 0.458064 0.0374286 -0.968982 0.244281 -0.0212582 -0.967571 0.251702 
-0.0688701 -0.96747 0.243431 0.311084 0.814535 0.489653 0.26435 0.84232 0.469698 
0.0904117 0.907051 0.411199 -0.00109747 0.994622 0.103564 -0.098899 0.916447 0.387742 
-0.321268 0.875496 0.360961 -0.492843 0.809334 0.319505 0.235838 0.845784 0.47857 
0.132491 0.837929 0.529454 0.211639 0.920563 0.328287 0.113462 0.806808 0.579816 
0.159422 0.88131 0.444834 0.280278 0.797025 0.534972 0.217642 0.763088 0.608546 
0.211073 0.824003 0.525801 -0.500636 0.805445 0.31721 -0.645474 0.712335 0.275576 
0.730908 0.643135 0.228366 0.420097 0.822588 0.383234 0.463262 0.809906 0.359778 
0.498317 0.818488 0.285934 -0.672969 0.688946 0.269195 -0.736232 0.635056 0.233807 
0.756692 0.616387 0.217909 -0.747385 0.621773 0.234124 0.90483 0.368347 0.213551 
-0.81046 0.556508 0.182904 -0.814207 0.551646 0.180979 0.964229 0.169861 0.203492 
0.969106 0.0178075 0.246 -0.876575 0.46125 0.137349 0.968765 0.0122181 0.24768 
0.968541 0.00546568 0.248793 -0.970516 0.221468 0.0951329 -0.976156 0.193053 0.0992432 
0.952706 -0.13277 0.273355 -0.987127 -0.00825276 0.159724 -0.956745 -0.261498 0.127509 
0.915403 -0.282724 0.286539 -0.938235 -0.321776 0.127186 0.824345 -0.480496 0.299298 
0.765434 -0.574612 0.289711 -0.385541 -0.896611 0.217822 -0.672547 -0.699709 0.241015 
-0.607565 -0.757518 0.238813 0.608654 -0.751216 0.255372 0.518594 -0.818325 0.247801 
0.316826 -0.927421 0.198776 0.139832 -0.968273 0.207111 -0.106724 -0.949906 0.29375 
-0.137441 -0.941207 0.30861 -0.151667 -0.938023 0.311623 -0.134178 -0.948172 0.288039 
-0.105159 -0.951093 0.290455 -0.316534 -0.915086 0.249847 -0.252048 -0.927834 0.274948 
0.13285 -0.969622 0.205388 0.147139 -0.985357 0.0861529 0.0296285 -0.982443 0.184197 
-0.0229991 -0.981139 0.19193 -0.0732956 -0.968271 0.23891 -0.067506 -0.97081 0.230154 
-0.0920501 -0.972586 0.213548 -0.148804 -0.981531 0.120227 -0.00634091 0.996528 0.0830132 
0.215964 0.923144 0.318063 0.179079 0.9096 0.374911 0.180342 0.916391 0.357358 
0.266489 0.926461 0.265807 0.070357 0.991462 0.109786 0.184074 0.971391 0.150056 
-0.0539461 0.996849 0.0581614 -0.0195485 0.999798 -0.00477012 -0.157307 0.987547 0.00227555 
-0.377465 0.922276 -0.0832246 -0.543467 0.830771 -0.120261 0.58695 0.808135 0.0490655 
0.229805 0.922818 0.309188 0.377901 0.903277 0.20318 -0.572123 0.810156 -0.127758 
-0.552786 0.791695 -0.260091 -0.681984 0.712106 -0.166745 0.641208 0.767014 0.0232531 
0.810871 0.573253 -0.117769 -0.708415 0.682695 -0.179096 -0.67565 0.626142 -0.389158 
-0.765563 0.596918 -0.240004 0.823463 0.552125 -0.130638 0.819728 0.530255 -0.216506 
-0.774164 0.583218 -0.246023 -0.754742 0.566792 -0.33032 0.922494 0.356639 -0.147692 
-0.805307 0.504469 -0.311433 -0.808617 0.49198 -0.322636 0.968722 0.187224 -0.162865 
0.98742 0.0551847 -0.148174 -0.844067 0.426361 -0.325218 -0.701124 0.406679 -0.585693 
0.98802 0.0476675 -0.14678 0.989139 0.0239939 -0.145014 0.986669 0.0476903 -0.155593 
-0.912544 0.2629 -0.313284 -0.939825 0.0540846 -0.337349 0.985149 -0.111971 -0.130171 
-0.938868 0.000234531 -0.344277 -0.940017 -0.0726256 -0.333308 -0.92461 0.000842813 -0.380914 
0.954162 -0.270944 -0.127135 -0.891372 -0.347995 -0.29044 0.853503 -0.504869 -0.128997 
0.769394 -0.62212 -0.144915 0.720656 -0.519902 -0.458647 -0.44813 -0.878323 -0.166517 
-0.708113 -0.655931 -0.261399 -0.667731 -0.698551 -0.257219 -0.679129 -0.63237 -0.372682 
0.613772 -0.774365 -0.153763 0.509492 -0.847218 -0.150468 0.506333 -0.758648 -0.409976 
0.30693 -0.942388 -0.133036 -0.177297 -0.983273 0.0417063 -0.171354 -0.985067 -0.0167601 
-0.182793 -0.979528 -0.0843353 -0.390057 -0.907204 -0.157596 -0.281095 -0.947667 -0.151371 
-0.323421 -0.816459 -0.478324 0.160264 -0.975664 -0.149651 0.155225 -0.976312 -0.150734 
0.155199 -0.975085 -0.1585 0.0567798 -0.992128 -0.111614 0.0894073 -0.97375 -0.209327 
0.0362173 -0.998867 -0.0308675 0.139651 -0.929248 -0.342046 0.00264202 -0.999003 0.0445703 
-0.0692459 -0.993671 0.0884466 -0.151971 -0.983175 0.101355 -0.149128 -0.983174 0.105498 
0.295726 0.953105 -0.0643181 0.195113 0.980317 -0.0301728 0.155792 0.985024 -0.0738724 
0.158163 0.972649 -0.170111 0.0931754 0.954579 -0.283016 -0.0698006 0.939873 -0.334316 
-0.273197 0.860243 -0.430518 -0.413673 0.750482 -0.515413 0.665144 0.684642 -0.298074 
0.382988 0.918032 -0.102653 0.492027 0.856025 -0.158527 0.308593 0.874399 -0.374429 
-0.269621 0.50372 -0.820713 -0.481664 0.696415 -0.531983 -0.411106 0.653839 -0.635206 
-0.526293 0.63095 -0.570015 0.66778 0.68119 -0.300083 0.665968 0.678957 -0.309036 
-0.27455 0.331263 -0.902711 -0.595632 0.534502 -0.599609 -0.475996 0.462603 -0.747948 
-0.611896 0.48316 -0.626211 0.79406 0.469643 -0.385882 0.817257 0.404932 -0.410026 
0.592171 0.357168 -0.722333 -0.349937 0.218608 -0.910909 -0.608926 0.428509 -0.667525 
-0.552113 0.364694 -0.749779 -0.614425 0.365522 -0.699197 0.841455 0.3162 -0.438145 
0.774947 0.298579 -0.557052 -0.425324 0.200352 -0.882586 -0.617071 0.355345 -0.702106 
-0.601784 0.348717 -0.718507 0.866959 0.172377 -0.46762 0.7218 0.152831 -0.675017 
-0.290916 0.125424 -0.948492 -0.57765 0.319662 -0.75109 -0.465949 0.244977 -0.850222 
-0.574448 0.246086 -0.780674 0.874914 0.0505572 -0.481632 0.655016 0.0315874 -0.754954 
-0.210394 0.070668 -0.975059 -0.394202 0.141719 -0.908031 -0.58146 0.224682 -0.781935 
-0.565898 0.224935 -0.793198 0.871246 -0.111785 -0.477948 0.661861 -0.129355 -0.738381 
-0.000510913 -0.0630394 -0.998011 -0.144796 -0.0305285 -0.98899 -0.342904 0.0223382 -0.939105 
-0.632186 0.00975285 -0.774755 -0.554183 0.00637617 -0.83237 0.818321 -0.287974 -0.497416 
0.710177 -0.493497 -0.502105 0.69083 -0.293586 -0.660728 -0.103646 -0.129698 -0.986122 
-0.145395 -0.129537 -0.980857 -0.391395 -0.240601 -0.888212 -0.56879 -0.286196 -0.771083 
-0.553924 -0.318577 -0.769205 -0.545702 -0.288271 -0.786835 0.690415 -0.517261 -0.505735 
0.496324 -0.712587 -0.495865 0.445305 -0.447316 -0.775636 -0.143732 -0.103068 -0.984235 
-0.0866716 -0.274009 -0.957814 -0.0916569 -0.33526 -0.937656 -0.316046 -0.706546 -0.633173 
-0.246047 -0.417857 -0.87456 -0.502708 -0.513331 -0.69554 -0.423959 -0.630733 -0.64995 
-0.423829 -0.482119 -0.766766 0.458182 -0.735986 -0.49839 0.308129 -0.803536 -0.509301 
0.277254 -0.684586 -0.674146 0.166494 -0.847532 -0.503953 0.156493 -0.626703 -0.763383 
0.150956 -0.885229 -0.439979 0.109335 -0.525612 -0.843669 0.140832 -0.927513 -0.346245 
-0.171647 -0.371917 -0.912258 -0.275602 -0.881702 -0.382942 -0.234073 -0.454716 -0.859327 
-0.246349 -0.840481 -0.482602 -0.232935 -0.642436 -0.730081 -0.296917 -0.757904 -0.58088 
-0.253547 -0.802388 -0.540267 -0.250474 -0.738797 -0.625653 0.139727 -0.928121 -0.345061 
0.0543961 -0.957818 -0.282181 0.0631412 -0.919294 -0.388474 -0.0480881 -0.966571 -0.251849 
-0.0509988 -0.930759 -0.362058 -0.188595 -0.942371 -0.27635 -0.182945 -0.944385 -0.273253 
-0.184329 -0.939635 -0.288288 0.153919 0.745068 -0.648986 0.0130004 0.730478 -0.682813 
-0.0369734 0.627762 -0.777527 -0.0179382 0.513195 -0.858085 -0.0994971 0.453152 -0.885863 
0.477269 0.54744 -0.687404 0.2016 0.736774 -0.645385 0.286041 0.695166 -0.659488 
0.152032 0.707718 -0.689943 0.00620118 0.650519 -0.759465 -0.0500141 0.585628 -0.809036 
-0.0246387 0.480895 -0.876432 -0.128049 0.439729 -0.888955 -0.100655 0.431132 -0.896657 
-0.200784 0.346292 -0.916388 0.510412 0.500247 -0.699452 0.459638 0.470689 -0.753117 
0.206238 0.385615 -0.899315 0.0234464 0.279217 -0.959942 -0.0382917 0.242186 -0.969474 
-0.0898939 0.214264 -0.972631 -0.117182 0.16809 -0.978782 -0.105208 0.136725 -0.985006 
-0.264043 0.322 -0.909174 -0.140418 0.220486 -0.96523 -0.267163 0.316799 -0.910089 
0.590897 0.356465 -0.723722 0.591106 0.355747 -0.723905 0.293198 0.222989 -0.929683 
0.0976165 0.132323 -0.986388 0.00784324 0.0333588 -0.999413 -0.0618159 0.0157647 -0.997963 
-0.134648 0.096086 -0.986224 -0.13323 0.0653934 -0.988925 -0.0766241 -0.0170968 -0.996913 
-0.0719105 0.0508214 -0.996116 -0.299066 0.188554 -0.935418 -0.166544 0.120727 -0.978615 
-0.283745 0.10544 -0.953085 0.570461 0.22592 -0.789642 0.463303 0.170652 -0.869614 
0.249926 0.0702323 -0.965714 0.0211425 -0.00397682 -0.999769 -0.0962965 -0.059316 -0.993584 
0.0245515 -0.122916 -0.992113 -0.0407565 -0.00648352 -0.999148 -0.238571 0.0288962 -0.970695 
-0.120248 0.000599253 -0.992744 0.00551515 -0.0121471 -0.999911 -0.121278 0.00331623 -0.992613 
-0.270869 0.0730428 -0.959841 -0.259112 0.064657 -0.963681 0.603327 0.124058 -0.787786 
0.376073 0.0789858 -0.923217 0.137662 0.031207 -0.989987 -0.0317556 -0.0465729 -0.99841 
-0.114637 -0.0192963 -0.99322 -0.0163673 -0.0786595 -0.996767 0.0186983 -0.25407 -0.967005 
-0.126399 -0.206389 -0.970272 -0.108621 0.149132 -0.982833 -0.067948 -0.0522146 -0.996322 
-0.0918661 -0.0594256 -0.993997 -0.202539 0.0563226 -0.977653 -0.167027 0.0268784 -0.985586 
0.599988 0.0240436 -0.799648 0.346592 -0.0058519 -0.937998 0.13359 -0.0204867 -0.990825 
-0.0315 -0.0119541 -0.999432 -0.130006 0.00103266 -0.991513 -0.19577 -0.000173224 -0.98065 
-0.200873 -0.156605 -0.967019 0.202403 -0.165118 -0.965282 0.0159021 -0.0848738 -0.996265 
-0.00777774 -0.065478 -0.997824 -0.208172 -0.133695 -0.968912 -0.0403383 -0.0621698 -0.99725 
-0.159407 0.0429359 -0.986279 -0.0851422 0.0034725 -0.996363 0.573487 -0.128926 -0.809006 
0.337378 -0.0993638 -0.936111 0.133546 -0.0978925 -0.986196 -0.00997035 -0.0866282 -0.996191 
-0.1029 -0.0704759 -0.992192 -0.164302 -0.044678 -0.985398 -0.150635 0.0404437 -0.987762 
-0.0794759 0.0440527 -0.995863 -0.00795474 -0.0809885 -0.996683 -0.0892069 -0.274076 -0.957562 
0.00324883 -0.0583775 -0.998289 0.00530018 -0.0552533 -0.998458 0.04049 -0.0156374 -0.999058 
-0.123673 -0.0328932 -0.991778 -0.0992728 -0.123841 -0.987324 -0.0360575 -0.0432485 -0.998413 
0.46529 -0.27381 -0.841744 0.411146 -0.352432 -0.840685 0.390201 -0.26704 -0.881154 
0.151621 -0.218825 -0.963912 -0.00248505 -0.189929 -0.981795 -0.0838192 -0.153519 -0.984584 
-0.0977961 -0.0779872 -0.992146 -0.0972984 0.0157645 -0.99513 -0.124458 0.0391045 -0.991454 
-0.0680079 0.0532647 -0.996262 -0.0624774 -0.0609872 -0.996181 0.0366649 -0.0112918 -0.999264 
-0.0988885 -0.12726 -0.986928 -0.0426762 -0.161877 -0.985888 -0.0176009 -0.0867169 -0.996077 
0.320643 -0.408533 -0.85457 0.203633 -0.46453 -0.861827 0.18682 -0.3838 -0.90432 
0.0954697 -0.475888 -0.874309 0.0490575 -0.349953 -0.935482 0.0870197 -0.441897 -0.892835 
0.0200239 -0.261629 -0.964961 0.00516444 -0.157215 -0.987551 -0.0331389 -0.0749464 -0.996637 
-0.0544012 -0.0143295 -0.998416 -0.143113 -0.0901592 -0.985591 -0.165848 -0.321048 -0.932428 
-0.135584 -0.0125655 -0.990686 0.107745 -0.459064 -0.881845 0.108211 -0.459214 -0.88171 
0.107749 -0.457247 -0.882788 0.0759891 -0.441368 -0.894103 0.0629929 -0.345019 -0.93648 
-0.15473 -0.356687 -0.921321 -0.06981 -0.428823 -0.900687 -0.063757 -0.306278 -0.949805 

