# vtk DataFile Version 4.2
vtk output
ASCII
DATASET POLYDATA
POINTS 536 float
-16.5721 -41.2725 -16.7089 -8.31722 -41.2725 -18.7997 -0.0623893 -41.2725 -19.2951 
8.19244 -41.2725 -18.5911 16.4473 -41.2725 -16.5006 -24.8269 -33.0177 -17.7961 
-16.5721 -33.0177 -20.1601 -8.31722 -33.0177 -21.3442 -0.0623893 -33.0177 -21.5882 
8.19244 -33.0177 -20.9788 16.4473 -33.0177 -20.1869 24.7021 -33.0177 -18.8705 
32.9569 -33.0177 -15.1997 -33.0817 -24.7629 -17.0179 -24.8269 -24.7629 -18.6639 
-16.5721 -24.7629 -20.4253 -8.31722 -24.7629 -21.5179 -0.0623893 -24.7629 -21.284 
8.19244 -24.7629 -21.3118 16.4473 -24.7629 -21.0905 24.7021 -24.7629 -20.661 
32.9569 -24.7629 -19.207 41.2118 -24.7629 -16.3023 -41.3365 -16.508 -16.9864 
-33.0817 -16.508 -17.6312 -24.8269 -16.508 -17.9879 -16.5721 -16.508 -18.8448 
-8.31722 -16.508 -19.8309 -0.0623893 -16.508 -20.1977 8.19244 -16.508 -20.5246 
16.4473 -16.508 -21.0395 24.7021 -16.508 -21.0404 32.9569 -16.508 -20.3829 
41.2118 -16.508 -18.7876 49.4666 -16.508 -16.2852 -49.5914 -8.25321 -17.0084 
-41.3365 -8.25321 -19.0148 -33.0817 -8.25321 -18.9648 -24.8269 -8.25321 -17.8011 
-16.5721 -8.25321 -16.6081 -8.31722 -8.25321 -19.9627 -0.0623893 -8.25321 -19.9482 
8.19244 -8.25321 -21.4871 16.4473 -8.25321 -20.5659 24.7021 -8.25321 -20.3034 
32.9569 -8.25321 -20.1949 41.2118 -8.25321 -19.4202 49.4666 -8.25321 -17.5032 
-57.8462 0.00162414 -15.4645 -49.5914 0.00162414 -19.4188 -41.3365 0.00162414 -20.1242 
-33.0817 0.00162414 -19.6634 -24.8269 0.00162414 -18.0991 -16.5721 0.00162414 -17.3787 
-8.31722 0.00162414 -22.4117 -0.0623893 0.00162414 -18.2321 8.19244 0.00162414 -22.9191 
16.4473 0.00162414 -20.0793 24.7021 0.00162414 -19.3297 32.9569 0.00162414 -19.9447 
41.2118 0.00162414 -19.8102 49.4666 0.00162414 -18.3419 -57.8462 8.25646 -16.6367 
-49.5914 8.25646 -19.7585 -41.3365 8.25646 -20.5867 -33.0817 8.25646 -20.1875 
-24.8269 8.25646 -18.5557 -16.5721 8.25646 -16.9523 -8.31722 8.25646 -19.4033 
-0.0623893 8.25646 -19.2712 8.19244 8.25646 -21.7124 16.4473 8.25646 -19.3531 
24.7021 8.25646 -19.3377 32.9569 8.25646 -19.9241 41.2118 8.25646 -19.9096 
49.4666 8.25646 -18.7276 57.7214 8.25646 -15.5551 -49.5914 16.5113 -18.3425 
-41.3365 16.5113 -19.696 -33.0817 16.5113 -19.4078 -24.8269 16.5113 -17.892 
-16.5721 16.5113 -16.1399 -8.31722 16.5113 -17.9 -0.0623893 16.5113 -18.9602 
8.19244 16.5113 -18.6417 16.4473 16.5113 -19.1466 24.7021 16.5113 -19.7209 
32.9569 16.5113 -20.3599 41.2118 16.5113 -19.5779 49.4666 16.5113 -17.8092 
-41.3365 24.7661 -16.0602 -33.0817 24.7661 -15.5763 8.19244 24.7661 -15.9898 
16.4473 24.7661 -17.6016 24.7021 24.7661 -18.8379 32.9569 24.7661 -18.3556 
41.2118 24.7661 -17.6243 49.4666 24.7661 -15.201 24.7021 33.021 -15.4355 
32.9569 33.021 -15.5729 -16.5721 -43.2491 -15.0266 -8.31722 -45.7126 -15.0266 
-0.0623893 -46.7368 -15.0266 -0.0623893 -49.5274 -7.67478 8.19244 -45.8868 -15.0266 
16.4473 -43.0063 -15.0266 -21.8224 -41.2725 -15.0266 -24.8269 -39.3997 -15.0266 
-24.8269 -41.2725 -13.0983 20.3499 -41.2725 -15.0266 24.7021 -38.9686 -15.0266 
24.7021 -41.2725 -10.2487 32.9569 -33.1955 -15.0266 -41.3365 -33.0177 -6.77176 
-32.0828 -33.0177 -15.0266 -33.0817 -31.7721 -15.0266 -33.0817 -33.0177 -14.4244 
33.2438 -33.0177 -15.0266 41.2118 -26.6059 -15.0266 41.2118 -33.0177 -7.50981 
-49.5914 -24.7629 -7.71732 -40.5745 -24.7629 -15.0266 -41.3365 -23.8784 -15.0266 
-41.3365 -24.7629 -14.7237 43.3215 -24.7629 -15.0266 49.4666 -18.9691 -15.0266 
49.4666 -24.7629 -10.3039 -47.7708 -16.508 -15.0266 -49.5914 -14.729 -15.0266 
-49.5914 -16.508 -14.3723 51.3977 -16.508 -15.0266 57.7214 -16.508 -8.91862 
-53.6317 -8.25321 -15.0266 -57.8462 -1.33612 -15.0266 -57.8462 -8.25321 -12.1464 
54.5753 -8.25321 -15.0266 57.7214 -8.25321 -13.0943 -58.5339 0.00162414 -15.0266 
57.2063 0.00162414 -15.0266 57.7214 2.78357 -15.0266 57.7214 0.00162414 -14.7728 
65.9763 0.00162414 -7.45498 -59.6813 8.25646 -15.0266 -57.8462 14.8975 -15.0266 
58.5476 8.25646 -15.0266 57.7214 10.4509 -15.0266 65.9763 8.25646 -7.97644 
-57.1388 16.5113 -15.0266 -57.8462 16.5113 -14.6107 -49.5914 23.3238 -15.0266 
-24.8269 24.3986 -15.0266 -16.5721 20.5214 -15.0266 -8.31722 23.2447 -15.0266 
-0.0623893 24.1641 -15.0266 55.1848 16.5113 -15.0266 57.7214 16.5113 -13.4954 
-57.8462 24.7661 -10.119 -46.183 24.7661 -15.0266 -49.5914 24.7661 -14.1061 
-41.3365 26.2132 -15.0266 -26.6504 24.7661 -15.0266 -33.0817 25.5663 -15.0266 
-24.8269 24.7661 -14.8718 -16.5721 24.7661 -13.7448 -8.31722 24.7661 -14.3536 
1.92842 24.7661 -15.0266 -0.0623893 24.7661 -14.7102 8.19244 27.3577 -15.0266 
16.4473 31.4816 -15.0266 41.2118 29.6285 -15.0266 49.9044 24.7661 -15.0266 
49.4666 25.0353 -15.0266 57.7214 24.7661 -8.05869 -41.3365 33.021 -6.8851 
-33.0817 33.021 -9.007 -24.8269 33.021 -8.43889 -16.5721 33.021 -8.74833 
-8.31722 33.021 -9.49967 -0.0623893 33.021 -10.2401 8.19244 33.021 -12.4308 
21.4043 33.021 -15.0266 16.4473 33.021 -14.3269 24.7021 33.6038 -15.0266 
34.9693 33.021 -15.0266 32.9569 33.6959 -15.0266 41.2118 33.021 -12.6025 
-0.0623893 -49.7754 -6.77176 -24.8269 -44.0739 -6.77176 -16.5721 -47.2081 -6.77176 
-4.37018 -49.5274 -6.77176 -8.31722 -49.2916 -6.77176 2.94926 -49.5274 -6.77176 
-0.0623893 -49.5274 -5.99031 8.19244 -49.0919 -6.77176 16.4473 -46.6616 -6.77176 
24.7021 -42.4468 -6.77176 -41.3365 -33.0177 -6.77176 -29.7441 -41.2725 -6.77176 
-33.0817 -39.0276 -6.77176 26.8626 -41.2725 -6.77176 24.7021 -41.2725 -3.5641 
32.9569 -37.8789 -6.77176 41.2118 -33.4041 -6.77176 -41.3366 -33.0177 -6.77176 
-49.5914 -25.716 -6.77176 41.8669 -33.0177 -6.77176 49.4666 -27.6912 -6.77176 
-50.5438 -24.7629 -6.77176 52.9471 -24.7629 -6.77176 57.7214 -19.1723 -6.77176 
-57.334 -16.508 -6.77176 -57.8462 -15.7003 -6.77176 -57.8462 -16.508 -2.22887 
59.6038 -16.508 -6.77176 -61.9765 -8.25321 -6.77176 64.1925 -8.25321 -6.77176 
65.9763 -2.05618 -6.77176 65.9763 -8.25321 -0.0303923 -65.682 0.00162414 -6.77176 
66.4045 0.00162414 -6.77176 -65.565 8.25646 -6.77176 66.6485 8.25646 -6.77176 
65.9763 10.5369 -6.77176 -64.2285 16.5113 -6.77176 63.919 16.5113 -6.77176 
-60.2011 24.7661 -6.77176 -57.8462 27.0396 -6.77176 -49.5914 31.7375 -6.77176 
49.4666 32.6136 -6.77176 58.484 24.7661 -6.77176 57.7214 25.6909 -6.77176 
-41.8293 33.021 -6.77176 -49.5914 33.021 -3.45486 -41.3365 33.0917 -6.77176 
-33.0817 34.7142 -6.77176 -24.8269 34.5591 -6.77176 -16.5721 35.0156 -6.77176 
-8.31722 36.0884 -6.77176 -0.0623893 36.9369 -6.77176 8.19244 38.6746 -6.77176 
16.4473 40.548 -6.77176 24.7021 41.0291 -6.77176 32.9569 39.9089 -6.77176 
48.8106 33.021 -6.77176 41.2118 37.093 -6.77176 -8.31722 41.2758 1.43379 
8.19244 41.2758 0.0941695 16.4473 41.2758 -4.15248 24.7021 41.2758 -5.35296 
-24.8269 -43.3121 1.48307 -16.5721 -45.9589 1.48307 -8.31722 -46.9929 1.48307 
-0.0623893 -46.6448 1.48307 8.19244 -45.8539 1.48307 16.4473 -43.4222 1.48307 
-41.3365 -33.6286 1.48307 -29.018 -41.2725 1.48307 -33.0817 -39.2151 1.48307 
-24.8269 -41.2725 5.48511 -16.5721 -41.2725 8.86084 -8.31722 -41.2725 8.53707 
-0.0623893 -41.2725 7.28232 8.19244 -41.2725 6.54511 20.5013 -41.2725 1.48307 
16.4473 -41.2725 3.69418 24.7021 -39.3144 1.48307 32.9569 -36.0617 1.48307 
41.2118 -33.4904 1.48307 -42.159 -33.0177 1.48307 -49.5914 -26.816 1.48307 
-41.3365 -33.0177 2.64466 24.7021 -33.0177 8.42679 32.9569 -33.0177 6.24679 
42.1157 -33.0177 1.48307 41.2118 -33.0177 2.52194 49.4666 -29.0151 1.48307 
-51.6642 -24.7629 1.48307 -57.8462 -17.07 1.48307 -49.5914 -24.7629 4.96416 
55.1648 -24.7629 1.48307 57.7214 -22.2782 1.48307 -58.2264 -16.508 1.48307 
-57.8462 -16.508 2.2772 62.2887 -16.508 1.48307 65.9763 -8.91322 1.48307 
-62.4224 -8.25321 1.48307 66.2948 -8.25321 1.48307 65.9763 -8.25321 2.45894 
-65.6698 0.00162414 1.48307 67.616 0.00162414 1.48307 65.9763 0.00162414 5.65608 
-65.7013 8.25646 1.48307 67.6989 8.25646 1.48307 65.9763 13.5417 1.48307 
65.9763 8.25646 5.50453 -64.8614 16.5113 1.48307 65.0084 16.5113 1.48307 
-60.9524 24.7661 1.48307 -57.8462 28.0175 1.48307 49.4666 32.9295 1.48307 
59.3787 24.7661 1.48307 57.7214 26.7189 1.48307 57.7214 24.7661 4.51888 
-51.7645 33.021 1.48307 -49.5914 34.3385 1.48307 -41.3365 36.5723 1.48307 
-33.0817 38.1147 1.48307 -24.8269 39.4934 1.48307 -16.5721 40.6704 1.48307 
-0.0623893 41.1859 1.48307 32.9569 40.773 1.48307 49.3294 33.021 1.48307 
41.2118 37.6144 1.48307 -8.65275 41.2758 1.48307 -6.62342 41.2758 1.48307 
-8.31722 41.2987 1.48307 -8.31722 41.2758 1.64814 1.45037 41.2758 1.48307 
8.19244 41.6694 1.48307 8.19244 41.2758 2.85817 16.4473 42.5346 1.48307 
16.4473 41.2758 6.00176 30.3636 41.2758 1.48307 24.7021 42.2997 1.48307 
24.7021 41.2758 4.77803 -33.0817 -33.8298 9.7379 -24.8269 -38.2767 9.7379 
-16.5721 -40.3847 9.7379 -8.31722 -39.6555 9.7379 -0.0623893 -37.5151 9.7379 
8.19244 -35.7091 9.7379 16.4473 -33.3578 9.7379 -34.3779 -33.0177 9.7379 
-41.3365 -28.1068 9.7379 -33.0817 -33.0177 10.5107 -24.8269 -33.0177 13.7523 
-16.5721 -33.0177 14.8918 -8.31722 -33.0177 13.7312 -0.0623893 -33.0177 12.264 
8.19244 -33.0177 11.0755 17.7459 -33.0177 9.7379 16.4473 -33.0177 9.9445 
24.7021 -31.3792 9.7379 32.9569 -30.3226 9.7379 41.2118 -28.4913 9.7379 
49.4666 -25.4929 9.7379 -45.4917 -24.7629 9.7379 -49.5914 -20.9111 9.7379 
-41.3365 -24.7629 12.4776 -33.0817 -24.7629 15.6962 -24.8269 -24.7629 16.8397 
-16.5721 -24.7629 17.5584 -8.31722 -24.7629 16.6478 -0.0623893 -24.7629 15.0886 
8.19244 -24.7629 14.6035 16.4473 -24.7629 14.0814 24.7021 -24.7629 14.2559 
32.9569 -24.7629 14.3635 41.2118 -24.7629 13.3441 50.5419 -24.7629 9.7379 
49.4666 -24.7629 10.5505 57.7214 -18.1236 9.7379 -53.1715 -16.508 9.7379 
-57.8462 -9.85834 9.7379 -49.5914 -16.508 12.8489 -41.3365 -16.508 16.8035 
16.4473 -16.508 16.8832 24.7021 -16.508 17.0872 41.2118 -16.508 17.8607 
49.4666 -16.508 16.5611 58.9916 -16.508 9.7379 57.7214 -16.508 11.0363 
-58.6975 -8.25321 9.7379 -57.8462 -8.25321 10.7354 -49.5914 -8.25321 16.8013 
63.2451 -8.25321 9.7379 57.7214 -8.25321 14.9154 -61.978 0.00162414 9.7379 
[...]
POINT_DATA 536
SCALARS ImageScalars float
LOOKUP_TABLE default
0 0 0 0 0 0 0 0 0 
0 0 0 0 0 0 0 0 0 
0 0 0 0 0 0 0 0 0 
0 0 0 0 0 0 0 0 0 
0 0 0 0 0 0 0 0 0 
0 0 0 0 0 0 0 0 0 
0 0 0 0 0 0 0 0 0 
0 0 0 0 0 0 0 0 0 
0 0 0 0 0 0 0 0 0 
0 0 0 0 0 0 0 0 0 
0 0 0 0 0 0 0 0 0 
0 0 0 0 0 0 0 0 0 
0 0 0 0 0 0 0 0 0 
0 0 0 0 0 0 0 0 0 
0 0 0 0 0 0 0 0 0 
0 0 0 0 0 0 0 0 0 
0 0 0 0 0 0 0 0 0 
0 0 0 0 0 0 0 0 0 
0 0 0 0 0 0 0 0 0 
0 0 0 0 0 0 0 0 0 
0 0 0 0 0 0 0 0 0 
0 0 0 0 0 0 0 0 0 
0 0 0 0 0 0 0 0 0 
0 0 0 0 0 0 0 0 0 
0 0 0 0 0 0 0 0 0 
0 0 0 0 0 0 0 0 0 
0 0 0 0 0 0 0 0 0 
0 0 0 0 0 0 0 0 0 
0 0 0 0 0 0 0 0 0 
0 0 0 0 0 0 0 0 0 
0 0 0 0 0 0 0 0 0 
0 0 0 0 0 0 0 0 0 
0 0 0 0 0 0 0 0 0 
0 0 0 0 0 0 0 0 0 
0 0 0 0 0 0 0 0 0 
0 0 0 0 0 0 0 0 0 
0 0 0 0 0 0 0 0 0 
0 0 0 0 0 0 0 0 0 
0 0 0 0 0 0 0 0 0 
0 0 0 0 0 0 0 0 0 
0 0 0 0 0 0 0 0 0 
0 0 0 0 0 0 0 0 0 
0 0 0 0 0 0 0 0 0 
0 0 0 0 0 0 0 0 0 
0 0 0 0 0 0 0 0 0 
0 0 0 0 0 0 0 0 0 
0 0 0 0 0 0 0 0 0 
0 0 0 0 0 0 0 0 0 
0 0 0 0 0 0 0 0 0 
0 0 0 0 0 0 0 0 0 
0 0 0 0 0 0 0 0 0 
0 0 0 0 0 0 0 0 0 
0 0 0 0 0 0 0 0 0 
0 0 0 0 0 0 0 0 0 
0 0 0 0 0 0 0 0 0 
0 0 0 0 0 0 0 0 0 
0 0 0 0 0 0 0 0 0 
0 0 0 0 0 0 0 0 0 
0 0 0 0 0 0 0 0 0 
0 0 0 0 0 
NORMALS Normals float
0.259133 0.587407 0.766683 0.14097 0.508436 0.849482 -0.0137398 0.470798 0.882134 
-0.158562 0.481782 0.861826 -0.287228 0.608458 0.739783 0.331906 0.232604 0.914185 
0.205147 0.183629 0.961351 0.0869549 0.149093 0.984992 -0.0221323 0.112971 0.993352 
-0.0840565 0.155261 0.984291 -0.121639 0.245211 0.961808 -0.256091 0.388395 0.885193 
-0.454753 0.612375 0.646682 0.223839 0.167446 0.960134 0.209889 0.0107988 0.977666 
0.167804 -0.0713154 0.983238 0.050937 -0.0911094 0.994537 -0.012504 -0.0847793 0.996321 
-0.011708 -0.0278498 0.999544 -0.0385191 0.0506641 0.997973 -0.108938 0.126277 0.985995 
-0.229649 0.255401 0.939165 -0.409679 0.435512 0.801557 0.188409 0.269495 0.944391 
0.0561458 0.119021 0.991303 0.0694736 -0.0513587 0.996261 0.111345 -0.233017 0.966077 
0.0783562 -0.0959404 0.992298 0.041807 -0.0810755 0.995831 0.0510512 0.00813842 0.998663 
0.0309708 -0.0313114 0.99903 -0.0410734 -0.0203407 0.998949 -0.134746 0.0537067 0.989424 
-0.247058 0.153886 0.956703 -0.442835 0.288082 0.849062 0.336327 0.265035 0.903682 
0.104765 0.166697 0.980427 -0.0739622 0.119768 0.990043 -0.143643 0.00627602 0.98961 
0.106334 -0.0889191 0.990347 0.223655 0.127048 0.966353 0.0881603 -0.107598 0.990278 
0.0396882 0.140373 0.989303 -0.0698695 -0.0558176 0.995993 -0.0226203 -0.105327 0.99418 
-0.0521072 -0.026898 0.998279 -0.154199 0.0620347 0.98609 -0.323387 0.122965 0.938243 
0.493623 0.201473 0.846017 0.260412 0.16597 0.951125 0.00744807 0.104085 0.99454 
-0.117793 0.0748361 0.990214 -0.125671 0.0464137 0.990986 0.201408 0.0235411 0.979225 
0.0140109 -0.0425151 0.998998 0.079168 -0.0490682 0.995653 0.11156 0.0147526 0.993648 
-0.217508 -0.0783376 0.97291 -0.00292084 -0.0559151 0.998431 0.0291287 -0.0163793 0.999441 
-0.0923706 0.0291779 0.995297 -0.267768 0.0690983 0.961002 0.546022 -0.0317041 0.837171 
0.198707 -0.0655979 0.977861 0.0217435 -0.0308808 0.999287 -0.122134 -0.0146895 0.992405 
-0.196894 -0.0129076 0.98034 0.0373489 -0.0699386 0.996852 0.148349 -0.226735 0.962592 
0.138024 0.0403781 0.989605 0.003591 -0.240373 0.970674 -0.144779 -0.0542152 0.987978 
0.0345941 0.0234942 0.999125 0.034611 0.0244798 0.999101 -0.0679908 -0.0159154 0.997559 
-0.224455 -0.0295205 0.974037 -0.470971 -0.059438 0.880144 0.251916 -0.269536 0.929456 
0.0562395 -0.240576 0.969 -0.109446 -0.24472 0.963397 -0.189846 -0.20535 0.960099 
-0.00527452 -0.178534 0.98392 0.168335 -0.279622 0.945238 0.04303 -0.258523 0.965046 
0.0127744 -0.329023 0.944236 0.0632501 -0.101066 0.992867 0.0723979 -0.0268513 0.997014 
-0.0132271 -0.0914657 0.99572 -0.139542 -0.116739 0.983311 -0.321156 -0.198568 0.925975 
0.0618689 -0.547006 0.834839 -0.0650412 -0.513744 0.855474 0.165434 -0.328348 0.929956 
0.158714 -0.261698 0.95201 0.0430423 -0.241851 0.969358 -0.0649699 -0.271845 0.960145 
-0.186326 -0.380829 0.905678 -0.312489 -0.445928 0.838748 0.0640035 -0.513829 0.855502 
-0.120058 -0.54579 0.829276 0.281315 0.685635 0.671392 0.161006 0.752402 0.638724 
0.0109707 0.782755 0.622233 -0.00934351 0.999348 0.0348858 -0.178641 0.744 0.643857 
-0.31686 0.687524 0.653383 0.375953 0.64832 0.662073 0.419617 0.5787 0.699305 
0.448041 0.723767 0.524804 -0.368598 0.691554 0.621199 -0.410673 0.671887 0.616373 
-0.476868 0.850837 0.22062 -0.457845 0.619158 0.637982 0.578934 0.747109 0.326592 
0.43571 0.428113 0.791755 0.415638 0.409586 0.812086 0.458503 0.471156 0.753517 
-0.456888 0.617012 0.640742 -0.434853 0.501412 0.74799 -0.490608 0.827622 0.272665 
0.635915 0.64565 0.422787 0.378309 0.365917 0.850286 0.372579 0.373791 0.849391 
0.401151 0.394022 0.826937 -0.450024 0.474044 0.756809 -0.47762 0.367079 0.798206 
-0.569212 0.622967 0.536572 0.311943 0.358209 0.879987 0.352211 0.350861 0.867666 
0.371699 0.395528 0.83988 -0.501652 0.312737 0.806561 -0.712947 0.431051 0.553084 
0.477904 0.265778 0.837239 0.511343 0.216586 0.831636 0.679582 0.346044 0.646855 
-0.470953 0.197884 0.859677 -0.586352 0.270866 0.763428 0.520206 0.20161 0.829903 
-0.482734 0.11252 0.868509 -0.49048 0.0578611 0.869529 -0.502538 0.117175 0.856578 
-0.894557 0.123008 0.429694 0.630403 -0.0503919 0.774631 0.558169 -0.236075 0.795434 
-0.499713 -0.0632625 0.863878 -0.496707 -0.102003 0.861903 -0.904451 -0.127563 0.407058 
0.528652 -0.283014 0.800269 0.56736 -0.285007 0.772576 0.267655 -0.521587 0.810129 
-0.102237 -0.455749 0.884217 -0.0185706 -0.270855 0.962441 0.0726345 -0.413123 0.907774 
0.0865775 -0.44493 0.891371 -0.492105 -0.207432 0.845461 -0.592534 -0.253842 0.764505 
0.589886 -0.636458 0.496947 0.176024 -0.570603 0.80214 0.265161 -0.595567 0.758281 
0.0709765 -0.600947 0.796131 -0.0907241 -0.477749 0.873799 -0.0613496 -0.530302 0.845586 
-0.0977314 -0.468511 0.878035 -0.0252964 -0.38262 0.923559 0.0533011 -0.44375 0.894564 
0.10847 -0.427553 0.897459 0.0893642 -0.457227 0.884849 0.183932 -0.372939 0.909442 
0.146719 -0.453959 0.87886 -0.269011 -0.506092 0.819453 -0.325757 -0.449339 0.831851 
-0.315668 -0.456289 0.831958 -0.733121 -0.587538 0.34254 0.156721 -0.864275 0.477982 
0.0418343 -0.780284 0.624024 -0.010486 -0.730088 0.683272 0.0532905 -0.653976 0.754636 
0.0726288 -0.610944 0.788336 0.138524 -0.586175 0.798254 0.21433 -0.531565 0.819452 
0.0959599 -0.509336 0.855201 0.145338 -0.51495 0.844809 0.0603286 -0.533708 0.843514 
-0.171034 -0.560274 0.810457 -0.122785 -0.575038 0.808861 -0.349735 -0.656633 0.66822 
-0.0121476 0.999721 -0.0202783 0.436825 0.887498 0.146737 0.299583 0.949412 0.0941679 
0.071735 0.9974 0.00694943 0.149684 0.988099 0.0354139 -0.0716325 0.997094 -0.0259124 
-0.0161234 0.997852 -0.0634863 -0.176538 0.983839 -0.0299248 -0.3738 0.927305 0.0194699 
-0.476372 0.879213 -0.00738179 0.578934 0.74711 0.326592 0.50986 0.837857 0.195034 
0.550307 0.79471 0.256123 -0.479714 0.877381 0.00878288 -0.451011 0.871572 -0.192227 
-0.48565 0.867923 0.104182 -0.490587 0.840289 0.230736 0.578934 0.74711 0.326592 
0.645749 0.670354 0.365558 -0.496164 0.836054 0.234167 -0.589195 0.732654 0.340687 
0.657583 0.657284 0.368188 -0.642128 0.665646 0.380247 -0.729528 0.51982 0.444496 
0.800662 0.522332 0.293443 0.808582 0.511061 0.291569 0.84315 0.536575 0.0344313 
-0.756021 0.462362 0.463307 0.860082 0.407521 0.306897 -0.829632 0.335443 0.446306 
-0.899102 0.173802 0.401757 -0.946188 0.322282 0.0293757 0.950512 0.195076 0.24181 
-0.911166 0.119333 0.394381 0.968129 -0.0747351 0.239041 -0.931583 -0.132105 0.338675 
-0.92087 -0.198895 0.335321 0.902789 -0.307448 0.300746 -0.855368 -0.374256 0.35816 
0.709724 -0.627742 0.319736 0.613963 -0.714267 0.335965 0.322169 -0.839418 0.437705 
-0.496612 -0.815813 0.296353 -0.753983 -0.600689 0.265861 -0.736798 -0.621481 0.266251 
0.168039 -0.865282 0.472282 0.372004 -0.885768 0.27754 0.157941 -0.865727 0.474943 
0.0744291 -0.844317 0.530649 0.0120655 -0.768756 0.639428 0.0723594 -0.722488 0.687587 
0.0887282 -0.711427 0.697137 0.121914 -0.740736 0.660642 0.184564 -0.823547 0.536382 
0.116029 -0.882757 0.455277 -0.0376281 -0.922961 0.383049 -0.221399 -0.91454 0.338526 
-0.484998 -0.822689 0.296578 -0.37495 -0.878783 0.295216 0.0282623 -0.985287 0.168554 
0.0966387 -0.992769 0.0712104 0.0889302 -0.952791 0.290312 -0.0511959 -0.952573 0.299974 
0.369845 0.890769 -0.264092 0.203682 0.920044 -0.334713 0.0441322 0.893793 -0.446303 
-0.0634556 0.838824 -0.540691 -0.153039 0.832717 -0.532128 -0.336459 0.770081 -0.542005 
0.581345 0.795025 -0.173124 0.430031 0.871627 -0.235242 0.487265 0.847399 -0.210923 
0.336385 0.833904 -0.437548 0.0817956 0.74437 -0.662739 -0.0711655 0.669758 -0.739162 
-0.09433 0.640944 -0.76177 -0.160713 0.61222 -0.774182 -0.363488 0.769519 -0.525088 
-0.32427 0.698383 -0.638051 -0.35444 0.795699 -0.491158 -0.32271 0.872509 -0.366859 
-0.381662 0.900419 -0.208758 0.589128 0.789028 -0.174249 0.688119 0.708085 -0.158454 
0.575836 0.784572 -0.229912 -0.153493 0.659504 -0.735863 -0.203294 0.809856 -0.550276 
-0.39398 0.896235 -0.203822 -0.372637 0.891082 -0.259065 -0.519059 0.846364 -0.119354 
0.716354 0.67982 -0.157106 0.830066 0.534928 -0.157616 0.663348 0.667767 -0.337723 
-0.653693 0.752813 -0.0771926 -0.731414 0.679594 -0.056439 0.837273 0.524658 -0.153973 
0.82566 0.529358 -0.195106 -0.855118 0.517247 -0.0350515 -0.943557 0.326762 -0.0540926 
0.911188 0.378896 -0.161786 -0.948502 0.312195 -0.0536518 -0.945891 0.309214 -0.0983676 
0.9634 0.189634 -0.189471 -0.991439 0.0777432 -0.104907 -0.937737 0.05664 -0.342696 
0.9867 -0.044988 -0.156204 -0.979886 -0.154542 -0.126255 -0.939389 -0.310531 -0.145321 
-0.928232 -0.169115 -0.331339 0.961734 -0.252866 -0.105481 -0.904216 -0.401961 -0.144298 
0.801746 -0.590769 -0.0905253 0.708729 -0.703659 -0.05066 -0.522816 -0.836662 -0.163276 
-0.738128 -0.657368 -0.15177 -0.698912 -0.695835 -0.165335 -0.681779 -0.657598 -0.320534 
0.487658 -0.87186 0.04527 0.415545 -0.907394 0.0629185 0.240544 -0.957298 0.160373 
0.162236 -0.963905 0.211108 0.148514 -0.948828 0.27869 0.103533 -0.959898 0.260532 
0.0229667 -0.997414 0.068108 -0.279049 -0.951464 -0.1298 -0.520431 -0.838263 -0.162687 
-0.403613 -0.903986 -0.14109 0.0308571 -0.985036 0.169561 0.0267846 -0.988971 0.145665 
0.0278288 -0.985758 0.16585 0.0255714 -0.987479 0.155663 0.0333768 -0.99792 0.0551502 
0.0812258 -0.996695 -0.0015558 0.0803291 -0.993254 -0.0836337 0.0385234 -0.998793 -0.0304661 
0.0335596 -0.957704 -0.28579 -0.224488 -0.967927 -0.112796 -0.103331 -0.991431 -0.0799195 
-0.120331 -0.965314 -0.23171 0.395797 0.654142 -0.644548 0.267857 0.685771 -0.676736 
0.0604463 0.700386 -0.7112 -0.0919741 0.602629 -0.792703 -0.122956 0.513179 -0.849429 
-0.131493 0.457111 -0.879636 -0.135468 0.496266 -0.857537 0.406673 0.650047 -0.641915 
0.470047 0.608918 -0.638964 0.383589 0.632239 -0.673152 0.207146 0.490088 -0.846702 
-0.0057113 0.43497 -0.900427 -0.139083 0.406295 -0.903095 -0.147083 0.398902 -0.905121 
-0.123976 0.420144 -0.898949 -0.130578 0.515466 -0.846902 -0.129264 0.491525 -0.861216 
-0.103165 0.6089 -0.78651 -0.116604 0.710878 -0.693582 -0.245551 0.720738 -0.64826 
-0.41014 0.71002 -0.572413 0.514197 0.579881 -0.631933 0.569681 0.545281 -0.614925 
0.419066 0.528547 -0.738256 0.204964 0.349493 -0.914245 0.109928 0.268084 -0.957103 
-0.0109026 0.221917 -0.975005 -0.143868 0.301543 -0.942536 -0.115255 0.327953 -0.937637 
-0.0556779 0.398371 -0.915533 -0.0203365 0.388761 -0.921114 0.015555 0.445056 -0.895368 
-0.0395833 0.558861 -0.828316 -0.190411 0.617299 -0.763338 -0.437482 0.697144 -0.567978 
-0.40212 0.687683 -0.604476 -0.636071 0.543839 -0.547405 0.610128 0.499393 -0.615102 
0.721434 0.403862 -0.562519 0.518204 0.461441 -0.720095 0.237837 0.346501 -0.907398 
-0.0757045 0.256504 -0.963574 0.0673813 0.234983 -0.969661 -0.070755 0.306249 -0.949318 
-0.332253 0.375146 -0.865374 -0.669367 0.50115 -0.548449 -0.624511 0.490784 -0.60755 
0.746341 0.372877 -0.551306 0.7127 0.380326 -0.589416 0.423282 0.318955 -0.847998 
-0.82172 0.253229 -0.51054 -0.532504 0.232507 -0.813867 0.811585 0.215538 -0.543023 
0.660082 0.226662 -0.716182 -0.794984 0.0191236 -0.606329 -0.528795 0.00615578 -0.848727 
0.861552 0.0140169 -0.507476 0.676815 0.0200224 -0.735881 -0.781515 -0.162851 -0.602257 
-0.506174 -0.143934 -0.850336 0.853657 -0.229884 -0.467357 0.691838 -0.186694 -0.6975 
-0.354072 -0.260371 -0.898243 -0.709189 -0.360174 -0.606073 -0.600857 -0.499683 -0.623929 
-0.569101 -0.367717 -0.735465 0.750524 -0.527111 -0.398582 0.734033 -0.55323 -0.393868 
0.731011 -0.524715 -0.436231 -0.0794102 -0.296304 -0.951787 -0.286949 -0.403926 -0.868622 
-0.540424 -0.58969 -0.600172 -0.49793 -0.649077 -0.575121 -0.476016 -0.522009 -0.707754 
0.487731 -0.811933 -0.320753 0.487599 -0.812031 -0.320707 0.487624 -0.811883 -0.321043 
0.314466 -0.914102 -0.255986 0.306159 -0.78859 -0.533285 0.218211 -0.957875 -0.186705 
0.126113 -0.966937 -0.221647 -0.00228151 -0.95233 -0.305062 -0.10842 -0.893047 -0.436705 
-0.172016 -0.50952 -0.843089 -0.0686865 -0.822287 -0.564912 -0.0747184 -0.542796 -0.836534 
0.0657076 -0.809771 -0.583056 0.0807957 -0.550205 -0.831112 0.0357049 -0.846655 -0.530944 
0.0752748 -0.55018 -0.831646 -0.134562 -0.854469 -0.501772 -0.0879098 -0.545757 -0.833319 
-0.27226 -0.79298 -0.545029 -0.25392 -0.646198 -0.719689 -0.40787 -0.725313 -0.554583 
-0.386209 -0.740038 -0.550623 -0.380607 -0.703951 -0.599659 0.10095 0.258433 -0.96074 
0.073685 0.214115 -0.974025 0.000689716 0.207726 -0.978187 -0.0843501 0.303156 -0.9492 
-0.0419171 0.261863 -0.964194 -0.0801071 0.405472 -0.910591 0.0450009 0.270087 -0.961784 
0.101684 0.258849 -0.960551 0.207487 0.314308 -0.926369 0.10063 0.258243 -0.960825 
0.0563892 0.189688 -0.980224 0.0282286 0.185236 -0.982289 -0.0379089 0.306098 -0.951245 
-0.0329797 0.254578 -0.96649 -0.0833918 0.360701 -0.928946 -0.0853094 0.40419 -0.910688 
-0.147268 0.254402 -0.95582 0.0450807 0.269845 -0.961848 0.0548201 0.199469 -0.97837 
0.0432693 0.270498 -0.961748 0.0450413 0.269922 -0.961828 -0.0695017 0.290937 -0.954214 
-0.244246 0.136914 -0.959999 0.322965 0.302376 -0.896807 0.385799 0.275267 -0.880561 
0.180677 0.289257 -0.940046 0.0265265 0.267243 -0.963264 0.033229 0.168966 -0.985062 
0.118038 0.156385 -0.980618 -0.0967359 0.244173 -0.964895 -0.0279309 0.0376209 -0.998902 
-0.0100142 0.207857 -0.978108 -0.186572 0.259262 -0.947615 0.0435025 0.182395 -0.982262 
0.0514419 0.145038 -0.988088 -0.0736888 0.135966 -0.987969 -0.243297 0.11852 -0.962683 
-0.23459 0.115161 -0.965249 0.449322 0.228115 -0.863755 0.347592 0.223347 -0.910657 
0.166965 0.210798 -0.963165 -0.0203928 0.201723 -0.97923 -0.060802 0.144488 -0.987637 
0.104413 0.00785847 -0.994503 -0.103999 0.0340513 -0.993994 -0.0778415 0.187517 -0.979172 
0.11366 -0.0317571 -0.993012 -0.135388 0.144712 -0.980168 -0.04058 0.162474 -0.985878 
0.00743884 0.0930078 -0.995638 -0.0904746 0.0540941 -0.994429 -0.328905 0.0252084 -0.944026 
-0.262972 0.0305945 -0.964318 0.548207 0.0394886 -0.83541 0.386937 0.087115 -0.917982 
0.16546 0.101594 -0.98097 -0.0338192 0.0802211 -0.996203 -0.174912 0.0870383 -0.980729 
0.00199441 -0.00663573 -0.999976 0.0780258 -0.126547 -0.988887 -0.0993276 0.0497978 -0.993808 
-0.0471311 -0.175972 -0.983266 0.0167355 -0.043376 -0.998919 -0.0241624 0.0581449 -0.998016 
-0.0580439 0.0158243 -0.998189 -0.134355 -0.0588559 -0.989184 -0.313495 -0.120059 -0.94197 
-0.308405 -0.162837 -0.937214 -0.282847 -0.110934 -0.952728 0.558617 -0.161089 -0.813632 
0.436629 -0.133482 -0.889684 0.137165 -0.099254 -0.985563 -0.0444789 -0.0488525 -0.997815 
-0.144453 -0.0345474 -0.988908 -0.100131 -0.018252 -0.994807 -0.0589288 -0.174847 -0.982831 
-0.0797361 -0.295662 -0.951959 -0.111677 -0.250061 -0.961768 0.0174648 -0.165083 -0.986125 
0.104942 -0.0979822 -0.98964 0.011114 -0.0816051 -0.996603 -0.106537 -0.112867 -0.987882 
-0.288709 -0.216849 -0.932536 -0.252512 -0.300622 -0.919709 -0.215028 -0.174213 -0.960944 
0.503889 -0.407673 -0.76151 0.498413 -0.416736 -0.760208 0.497319 -0.406712 -0.766328 
0.281707 -0.631841 -0.722093 0.22297 -0.34003 -0.913599 0.0250244 -0.302748 -0.952742 
-0.127405 -0.22262 -0.966544 -0.145035 -0.169255 -0.974842 -0.080702 -0.295675 -0.951874 
-0.16604 -0.367737 -0.914986 -0.15819 -0.261251 -0.95222 -0.0457114 -0.282309 -0.958234 
0.0968766 -0.230109 -0.968331 0.0970796 -0.219491 -0.970773 0.0904538 -0.391163 -0.915866 
0.106457 -0.226219 -0.968242 -0.0671684 -0.412375 -0.908535 -0.0415815 -0.245558 -0.96849 
-0.217838 -0.356968 -0.908361 -0.180036 -0.388665 -0.903618 -0.15384 -0.316645 -0.935986 
0.176506 -0.656042 -0.733795 0.126578 -0.653047 -0.746665 0.11396 -0.610384 -0.783865 
-0.037523 -0.579942 -0.813793 -0.0397537 -0.54938 -0.834627 -0.113153 -0.497532 -0.860034 
-0.111972 -0.499354 -0.859132 -0.112273 -0.497984 -0.859887 
