# vtk DataFile Version 4.2
vtk output
ASCII
DATASET POLYDATA
POINTS 524 float
6.21618 7.90132 -20.5716 -1.44877 -38.0883 -12.7518 6.21618 -38.0883 -13.4757 
13.8811 -38.0883 -13.382 -1.44877 -30.4234 -13.7211 6.21618 -30.4234 -14.5955 
13.8811 -30.4234 -14.471 21.5461 -30.4234 -14.0403 -1.44877 -22.7584 -13.4888 
6.21618 -22.7584 -14.1704 13.8811 -22.7584 -14.9213 21.5461 -22.7584 -16.01 
29.211 -22.7584 -15.759 36.8759 -22.7584 -12.7415 -32.1085 -15.0935 -13.0015 
-24.4436 -15.0935 -13.3529 -16.7787 -15.0935 -13.0924 -9.11371 -15.0935 -13.246 
-1.44877 -15.0935 -13.5582 6.21618 -15.0935 -13.3558 13.8811 -15.0935 -14.9943 
21.5461 -15.0935 -17.1109 29.211 -15.0935 -17.994 36.8759 -15.0935 -16.366 
-39.7735 -7.42856 -15.1145 -32.1085 -7.42856 -15.5923 -24.4436 -7.42856 -15.2805 
-16.7787 -7.42856 -14.7445 -9.11371 -7.42856 -15.961 -1.44877 -7.42856 -18.2472 
6.21618 -7.42856 -15.9072 13.8811 -7.42856 -15.5447 21.5461 -7.42856 -17.2636 
29.211 -7.42856 -17.9823 36.8759 -7.42856 -17.453 44.5409 -7.42856 -15.3618 
-47.4384 0.236381 -13.8366 -39.7735 0.236381 -16.5082 -32.1085 0.236381 -17.1561 
-24.4436 0.236381 -16.8816 -16.7787 0.236381 -16.2954 -9.11371 0.236381 -18.313 
-1.44877 0.236381 -15.7556 6.21618 6.70833 -20.3278 6.21618 0.236381 -18.7333 
13.8811 0.236381 -15.2965 21.5461 0.236381 -16.2106 29.211 0.236381 -17.2521 
36.8759 0.236381 -17.1965 44.5409 0.236381 -15.5636 -47.4384 7.90132 -13.1748 
-39.7735 7.90132 -15.9675 -32.1085 7.90132 -16.6737 -24.4436 7.90132 -16.6792 
-16.7787 7.90132 -16.2588 -9.11371 7.90132 -18.6129 5.04063 7.90132 -20.3278 
-1.44877 7.90132 -18.6708 6.82223 7.90132 -20.3278 6.21618 8.77062 -20.3278 
13.8811 7.90132 -16.8894 21.5461 7.90132 -16.134 29.211 7.90132 -16.8755 
36.8759 7.90132 -16.7452 44.5409 7.90132 -15.1488 -39.7735 15.5663 -14.1124 
-32.1085 15.5663 -15.7524 -24.4436 15.5663 -16.0097 -16.7787 15.5663 -15.5932 
-9.11371 15.5663 -14.8599 -1.44877 15.5663 -16.0729 6.21618 15.5663 -18.3369 
13.8811 15.5663 -18.4025 21.5461 15.5663 -17.9497 29.211 15.5663 -17.4924 
36.8759 15.5663 -17.2863 44.5409 15.5663 -14.9917 -32.1085 23.2312 -14.5777 
-24.4436 23.2312 -15.4484 -16.7787 23.2312 -15.7518 -9.11371 23.2312 -16.4234 
-1.44877 23.2312 -16.972 6.21618 23.2312 -17.7744 13.8811 23.2312 -18.5927 
21.5461 23.2312 -18.1366 29.211 23.2312 -17.2522 36.8759 23.2312 -16.0431 
-32.1085 30.8962 -13.4202 -24.4436 30.8962 -15.3225 -16.7787 30.8962 -16.0807 
-9.11371 30.8962 -17.3403 -1.44877 30.8962 -17.4311 6.21618 30.8962 -17.2958 
13.8811 30.8962 -16.9779 21.5461 30.8962 -16.5467 29.211 30.8962 -15.5175 
36.8759 30.8962 -12.9568 -24.4436 38.5611 -13.3451 -16.7787 38.5611 -14.539 
-9.11371 38.5611 -15.8729 -1.44877 38.5611 -15.5525 6.21618 38.5611 -14.8502 
13.8811 38.5611 -13.3757 -9.11371 -45.7533 -7.38002 -1.44877 -38.3393 -12.6628 
-1.44877 -45.7533 -9.87282 6.21618 -40.1752 -12.6628 6.21618 -45.7533 -10.0332 
13.8811 -39.3438 -12.6628 13.8811 -45.7533 -6.34277 -24.4436 -38.0883 -5.50276 
-16.7787 -38.0883 -7.69019 -1.80697 -38.0883 -12.6628 -9.11371 -38.0883 -10.7106 
15.9277 -38.0883 -12.6628 21.5461 -33.3042 -12.6628 21.5461 -38.0883 -9.16453 
-32.1085 -30.4234 -5.37822 -24.4436 -30.4234 -7.754 -16.7787 -30.4234 -9.76618 
-6.29072 -30.4234 -12.6628 -9.11371 -30.4234 -12.0277 26.933 -30.4234 -12.6628 
29.211 -29.307 -12.6628 29.211 -30.4234 -11.6268 36.8759 -22.8658 -12.6628 
-39.7735 -22.7584 -7.07643 -32.1085 -16.0997 -12.6628 -32.1085 -22.7584 -10.2241 
-24.4436 -17.0444 -12.6628 -24.4436 -22.7584 -10.667 -16.7787 -16.7403 -12.6628 
-16.7787 -22.7584 -11.0878 -5.57786 -22.7584 -12.6628 -9.11371 -18.3053 -12.6628 
-9.11371 -22.7584 -11.9491 36.9884 -22.7584 -12.6628 -47.4384 -15.0935 -8.11799 
-37.9274 -15.0935 -12.6628 -39.7735 -14.7692 -12.6628 -39.7735 -15.0935 -12.5372 
43.8099 -15.0935 -12.6628 44.5409 -14.1005 -12.6628 44.5409 -15.0935 -11.8511 
-46.1688 -7.42856 -12.6628 -47.4384 -5.31316 -12.6628 -47.4384 -7.42856 -12.0939 
48.4896 -7.42856 -12.6628 52.2058 -7.42856 -7.73417 -49.4858 0.236381 -12.6628 
-55.1034 0.236381 -5.72162 49.909 0.236381 -12.6628 52.2058 0.236381 -10.8001 
-48.2479 7.90132 -12.6628 -47.4384 9.28992 -12.6628 49.4523 7.90132 -12.6628 
52.2058 7.90132 -10.7825 -42.6963 15.5663 -12.6628 -47.4384 15.5663 -9.45522 
-39.7735 20.978 -12.6628 48.1906 15.5663 -12.6628 44.5409 22.2846 -12.6628 
52.2058 15.5663 -8.44043 -47.4384 23.2312 -5.59252 -37.9781 23.2312 -12.6628 
-39.7735 23.2312 -11.9775 43.7204 23.2312 -12.6628 44.5409 23.2312 -12.1279 
-33.6808 30.8962 -12.6628 -39.7735 30.8962 -8.31959 -32.1085 32.828 -12.6628 
21.5461 37.0484 -12.6628 29.211 34.754 -12.6628 37.5545 30.8962 -12.6628 
36.8759 31.2661 -12.6628 -26.1467 38.5611 -12.6628 -32.1085 38.5611 -9.34266 
-24.4436 39.9372 -12.6628 -16.7787 41.7782 -12.6628 -9.11371 43.1629 -12.6628 
-1.44877 42.8078 -12.6628 6.21618 40.8471 -12.6628 16.8115 38.5611 -12.6628 
13.8811 39.2425 -12.6628 21.5461 38.5611 -9.84396 -16.7787 46.226 -7.77039 
-9.11371 46.226 -8.25865 -1.44877 46.226 -6.0265 -9.11371 -48.5604 -4.99787 
-1.44877 -51.7978 -4.99787 6.21618 -50.7153 -4.99787 13.8811 -46.8424 -4.99787 
-24.4436 -38.8105 -4.99787 -13.7532 -45.7533 -4.99787 -16.7787 -43.1177 -4.99787 
-16.7787 -45.7533 -2.88959 15.4408 -45.7533 -4.99787 21.5461 -41.4202 -4.99787 
-25.3625 -38.0883 -4.99787 -32.1085 -30.9615 -4.99787 -32.1085 -38.0883 1.66545 
25.5304 -38.0883 -4.99787 29.211 -34.9987 -4.99787 -32.9202 -30.4234 -4.99787 
-39.7735 -25.9165 -4.99787 -39.7735 -30.4234 -0.0323525 34.5036 -30.4234 -4.99787 
36.8759 -28.1218 -4.99787 -42.9481 -22.7584 -4.99787 -47.4384 -18.006 -4.99787 
41.6008 -22.7584 -4.99787 44.5409 -19.5668 -4.99787 -49.4561 -15.0935 -4.99787 
48.7925 -15.0935 -4.99787 52.2058 -10.0439 -4.99787 -53.9833 -7.42856 -4.99787 
-55.1034 -1.75768 -4.99787 53.892 -7.42856 -4.99787 -55.4389 0.236381 -4.99787 
-55.1034 3.69728 -4.99787 -55.1034 0.236381 1.82006 56.1502 0.236381 -4.99787 
-54.6387 7.90132 -4.99787 56.6812 7.90132 -4.99787 -51.0093 15.5663 -4.99787 
54.6096 15.5663 -4.99787 52.2058 20.0013 -4.99787 -47.8257 23.2312 -4.99787 
-47.4384 23.9094 -4.99787 50.2279 23.2312 -4.99787 44.5409 29.4907 -4.99787 
-42.8653 30.8962 -4.99787 -39.7735 35.4406 -4.99787 29.211 37.9777 -4.99787 
42.7478 30.8962 -4.99787 36.8759 34.9471 -4.99787 -37.1379 38.5611 -4.99787 
-32.1085 42.528 -4.99787 -24.4436 46.0793 -4.99787 6.21618 44.4439 -4.99787 
13.8811 41.9891 -4.99787 27.2437 38.5611 -4.99787 21.5461 40.2468 -4.99787 
21.5461 38.5611 -0.430823 -23.7482 46.226 -4.99787 -16.7787 47.5081 -4.99787 
-16.7787 46.226 0.205204 -9.11371 47.5263 -4.99787 -9.11371 46.226 -0.142838 
-0.1508 46.226 -4.99787 -1.44877 46.5864 -4.99787 -1.44877 46.226 -3.93314 
-16.7787 -49.1015 2.66708 -9.11371 -52.6826 2.66708 -1.44877 -53.4036 2.66708 
6.21618 -51.2276 2.66708 13.8811 -46.7247 2.66708 -32.1085 -38.8134 2.66708 
-22.1245 -45.7533 2.66708 -24.4436 -44.2872 2.66708 15.1267 -45.7533 2.66708 
13.8811 -45.7533 4.37073 21.5461 -41.0973 2.66708 -33.0394 -38.0883 2.66708 
-39.7735 -32.2758 2.66708 25.2024 -38.0883 2.66708 21.5461 -38.0883 9.06017 
29.211 -34.8384 2.66708 -41.471 -30.4234 2.66708 34.0214 -30.4234 2.66708 
36.8759 -27.5929 2.66708 -47.0072 -22.7584 2.66708 -47.4384 -21.9705 2.66708 
41.6223 -22.7584 2.66708 44.5409 -19.6298 2.66708 -50.9212 -15.0935 2.66708 
-47.4384 -15.0935 8.60666 48.8777 -15.0935 2.66708 52.2058 -10.2779 2.66708 
-53.5138 -7.42856 2.66708 -47.4384 -7.42856 9.69393 54.0576 -7.42856 2.66708 
52.2058 -7.42856 6.4805 -55.0528 0.236381 2.66708 56.4459 0.236381 2.66708 
-53.8365 7.90132 2.66708 56.4709 7.90132 2.66708 52.2058 7.90132 9.59791 
-51.4178 15.5663 2.66708 -47.4384 15.5663 10.1067 54.2416 15.5663 2.66708 
52.2058 18.648 2.66708 52.2058 15.5663 5.93769 -48.005 23.2312 2.66708 
-47.4384 24.349 2.66708 -47.4384 23.2312 3.87195 48.4509 23.2312 2.66708 
44.5409 27.0456 2.66708 44.5409 23.2312 7.14675 -44.0164 30.8962 2.66708 
-39.7735 36.6224 2.66708 -39.7735 30.8962 9.72007 21.5461 37.2118 2.66708 
21.5461 30.8962 10.2687 29.211 35.2721 2.66708 29.211 30.8962 7.72488 
39.5676 30.8962 2.66708 36.8759 32.6384 2.66708 36.8759 30.8962 5.03525 
-37.7594 38.5611 2.66708 -32.1085 42.6081 2.66708 -32.1085 38.5611 8.57838 
-24.4436 44.8546 2.66708 -16.7787 45.5449 2.66708 -9.11371 45.2882 2.66708 
-9.11371 38.5611 10.2592 -1.44877 43.6228 2.66708 -1.44877 38.5611 8.8483 
6.21618 41.7207 2.66708 6.21618 38.5611 6.83162 16.6918 38.5611 2.66708 
13.8811 39.2675 2.66708 13.8811 38.5611 3.74764 -16.7787 -45.9476 10.332 
-9.11371 -48.8184 10.332 -1.44877 -48.9673 10.332 6.21618 -46.3304 10.332 
-32.1085 -38.6022 10.332 -17.2766 -45.7533 10.332 -24.4436 -42.9396 10.332 
-16.7787 -45.7533 10.5454 -9.11371 -45.7533 13.4008 -1.44877 -45.7533 12.7054 
7.3499 -45.7533 10.332 6.21618 -45.7533 10.9375 13.8811 -42.1795 10.332 
-32.7174 -38.0883 10.332 -39.7735 -31.2846 10.332 -32.1085 -38.0883 10.9264 
-24.4436 -38.0883 14.2641 -16.7787 -38.0883 15.5893 -9.11371 -38.0883 16.8513 
-1.44877 -38.0883 16.2313 6.21618 -38.0883 15.8163 20.4581 -38.0883 10.332 
13.8811 -38.0883 13.9072 21.5461 -37.4514 10.332 29.211 -31.9585 10.332 
-40.422 -30.4234 10.332 -39.7735 -30.4234 11.1382 -32.1085 -30.4234 15.1218 
-24.4436 -30.4234 16.9113 -16.7787 -30.4234 17.5113 -9.11371 -30.4234 17.9256 
-1.44877 -30.4234 17.829 21.5461 -30.4234 16.6069 31.0241 -30.4234 10.332 
29.211 -30.4234 12.214 36.8759 -24.7142 10.332 -42.8816 -22.7584 10.332 
-39.7735 -22.7584 12.4426 -32.1085 -22.7584 16.4485 29.211 -22.7584 17.0873 
38.7068 -22.7584 10.332 36.8759 -22.7584 12.2837 44.5409 -15.796 10.332 
-45.6838 -15.0935 10.332 -39.7735 -15.0935 13.5036 -32.1085 -15.0935 16.4857 
36.8759 -15.0935 16.7152 45.1444 -15.0935 10.332 44.5409 -15.0935 10.9235 
-46.5067 -7.42856 10.332 -47.4384 -4.16849 10.332 -39.7735 -7.42856 13.979 
-32.1085 -7.42856 16.0465 -24.4436 -7.42856 17.1854 36.8759 -7.42856 17.5685 
50.0828 -7.42856 10.332 44.5409 -7.42856 14.6155 52.2058 -1.42793 10.332 
[...]
POINT_DATA 524
SCALARS ImageScalars float
LOOKUP_TABLE default
0 0 0 0 0 0 0 0 0 
0 0 0 0 0 0 0 0 0 
0 0 0 0 0 0 0 0 0 
0 0 0 0 0 0 0 0 0 
0 0 0 0 0 0 0 0 0 
0 0 0 0 0 0 0 0 0 
0 0 0 0 0 0 0 0 0 
0 0 0 0 0 0 0 0 0 
0 0 0 0 0 0 0 0 0 
0 0 0 0 0 0 0 0 0 
0 0 0 0 0 0 0 0 0 
0 0 0 0 0 0 0 0 0 
0 0 0 0 0 0 0 0 0 
0 0 0 0 0 0 0 0 0 
0 0 0 0 0 0 0 0 0 
0 0 0 0 0 0 0 0 0 
0 0 0 0 0 0 0 0 0 
0 0 0 0 0 0 0 0 0 
0 0 0 0 0 0 0 0 0 
0 0 0 0 0 0 0 0 0 
0 0 0 0 0 0 0 0 0 
0 0 0 0 0 0 0 0 0 
0 0 0 0 0 0 0 0 0 
0 0 0 0 0 0 0 0 0 
0 0 0 0 0 0 0 0 0 
0 0 0 0 0 0 0 0 0 
0 0 0 0 0 0 0 0 0 
0 0 0 0 0 0 0 0 0 
0 0 0 0 0 0 0 0 0 
0 0 0 0 0 0 0 0 0 
0 0 0 0 0 0 0 0 0 
0 0 0 0 0 0 0 0 0 
0 0 0 0 0 0 0 0 0 
0 0 0 0 0 0 0 0 0 
0 0 0 0 0 0 0 0 0 
0 0 0 0 0 0 0 0 0 
0 0 0 0 0 0 0 0 0 
0 0 0 0 0 0 0 0 0 
0 0 0 0 0 0 0 0 0 
0 0 0 0 0 0 0 0 0 
0 0 0 0 0 0 0 0 0 
0 0 0 0 0 0 0 0 0 
0 0 0 0 0 0 0 0 0 
0 0 0 0 0 0 0 0 0 
0 0 0 0 0 0 0 0 0 
0 0 0 0 0 0 0 0 0 
0 0 0 0 0 0 0 0 0 
0 0 0 0 0 0 0 0 0 
0 0 0 0 0 0 0 0 0 
0 0 0 0 0 0 0 0 0 
0 0 0 0 0 0 0 0 0 
0 0 0 0 0 0 0 0 0 
0 0 0 0 0 0 0 0 0 
0 0 0 0 0 0 0 0 0 
0 0 0 0 0 0 0 0 0 
0 0 0 0 0 0 0 0 0 
0 0 0 0 0 0 0 0 0 
0 0 0 0 0 0 0 0 0 
0 0 
NORMALS Normals float
0.0981633 0.0382328 -0.994436 -0.15742 -0.222828 -0.962064 -0.0381644 -0.246565 -0.968375 
0.183465 -0.360179 -0.914665 -0.162397 -0.045191 -0.98569 -0.0484489 -0.0420005 -0.997942 
0.032789 -0.101482 -0.994297 0.14513 -0.347175 -0.926502 -0.139288 0.0114878 -0.990185 
-0.0918225 0.0797231 -0.992579 -0.117288 -0.033837 -0.992521 -0.0553787 -0.190421 -0.980139 
0.174657 -0.352891 -0.919219 0.506195 -0.546002 -0.667569 -0.0503139 -0.311064 -0.949056 
-0.00470143 -0.296028 -0.955168 0.00772502 -0.240421 -0.970638 -0.0267743 -0.266769 -0.963388 
-0.00497151 -0.302741 -0.95306 -0.100989 -0.0344169 -0.994292 -0.246709 -0.0398318 -0.968271 
-0.189462 -0.0789947 -0.978705 0.0416352 -0.145083 -0.988543 0.321486 -0.268194 -0.90814 
-0.18929 -0.261473 -0.946468 -0.00868209 -0.259602 -0.965677 0.0534139 -0.22177 -0.973635 
-0.0416762 -0.196694 -0.979579 -0.207411 -0.277988 -0.937925 -0.0717653 -0.105936 -0.99178 
0.195578 -0.399109 -0.895802 -0.102899 -0.021795 -0.994453 -0.154083 0.0579565 -0.986357 
-0.0127126 0.0481955 -0.998757 0.159243 -0.0496728 -0.985989 0.44144 -0.184018 -0.878219 
-0.432596 -0.047621 -0.900329 -0.217395 -0.0540287 -0.974587 -0.021602 -0.0640099 -0.997715 
0.0540779 -0.0914626 -0.994339 -0.0793943 -0.106307 -0.991159 0.0208492 -0.18009 -0.983429 
-0.0281917 -0.0159756 -0.999475 0.0927517 0.00759075 -0.99566 0.0359236 -0.222708 -0.974223 
0.143271 -0.078878 -0.986535 -0.119976 0.0729319 -0.990094 -0.063588 0.071963 -0.995378 
0.102995 0.0457818 -0.993628 0.335308 0.0139202 -0.942006 -0.453333 0.211383 -0.865914 
-0.228347 0.151938 -0.961651 -0.0396361 0.0952423 -0.994665 0.0252897 0.0594066 -0.997913 
-0.07543 0.0486742 -0.995962 -0.182024 0.257321 -0.949028 0.0732254 0.0358293 -0.996672 
-0.131106 0.000253982 -0.991368 0.118133 0.0236518 -0.992716 0.074642 0.0565192 -0.995607 
0.29713 -0.205703 -0.932416 -0.00680897 -0.116009 -0.993225 -0.0401262 -0.0154449 -0.999075 
0.10516 -0.00282384 -0.994451 0.315195 0.0366136 -0.94832 -0.325899 0.210809 -0.921601 
-0.11271 0.128047 -0.985343 0.00903925 0.0774887 -0.996952 0.0745414 0.031017 -0.996735 
-0.0289446 0.0587 -0.997856 -0.223994 0.0852105 -0.970858 -0.148393 0.178689 -0.972651 
0.0254859 -0.0963947 -0.995017 0.0582999 -0.128609 -0.98998 0.04247 -0.0252353 -0.998779 
0.170818 0.0337563 -0.984724 0.408902 0.137454 -0.902167 -0.190367 0.162869 -0.968108 
-0.0733417 0.0466317 -0.996216 -0.0644877 -0.0320154 -0.997405 -0.0792861 -0.151168 -0.985323 
-0.0875338 -0.0880409 -0.992263 -0.104197 0.0680855 -0.992224 -0.0238169 0.0859253 -0.996017 
0.0847084 0.0880349 -0.992509 0.125151 0.107241 -0.986325 0.277636 0.271111 -0.921638 
-0.345568 0.256434 -0.902676 -0.18666 0.140455 -0.972332 -0.125401 0.0686361 -0.989729 
-0.089681 0.0210375 -0.995748 0.00324783 0.0854987 -0.996333 0.0284196 0.149173 -0.988403 
0.0515219 0.309165 -0.949612 0.084519 0.376294 -0.922637 0.239492 0.440931 -0.864999 
0.361875 0.577766 -0.731596 -0.257339 0.356589 -0.898121 -0.155266 0.352413 -0.922875 
-0.0600073 0.393735 -0.917263 0.0546454 0.443481 -0.894616 0.137122 0.578797 -0.803861 
0.188802 0.706592 -0.681969 -0.36312 -0.524478 -0.770109 -0.156173 -0.230199 -0.96053 
-0.129432 -0.525791 -0.840709 -0.00827056 -0.321793 -0.946774 0.153802 -0.618949 -0.770226 
0.205134 -0.414554 -0.886603 0.475563 -0.785119 -0.396772 -0.373993 -0.469291 -0.799935 
-0.350488 -0.344058 -0.871081 -0.162278 -0.222981 -0.961221 -0.298411 -0.240727 -0.923581 
0.246997 -0.411147 -0.877468 0.254133 -0.419661 -0.871379 0.511778 -0.643414 -0.569299 
-0.339666 -0.555043 -0.759311 -0.237736 -0.336742 -0.911091 -0.269626 -0.185783 -0.944874 
-0.213562 -0.0604196 -0.975059 -0.245881 -0.0719618 -0.966625 0.322985 -0.51332 -0.7951 
0.364062 -0.543829 -0.756114 0.428058 -0.602447 -0.673664 0.509075 -0.548447 -0.663362 
-0.418962 -0.545533 -0.725854 -0.0647648 -0.318192 -0.945811 -0.19533 -0.416499 -0.887905 
-0.0141558 -0.310505 -0.950467 -0.0503109 -0.343271 -0.937888 -0.00962247 -0.231532 -0.97278 
-0.0818026 -0.19976 -0.976424 -0.151124 -0.0287485 -0.988097 -0.0781027 -0.186951 -0.97926 
-0.158632 -0.0746191 -0.984514 0.510437 -0.548241 -0.662485 -0.643988 -0.535388 -0.546479 
-0.13123 -0.406363 -0.904239 -0.159069 -0.428241 -0.889554 -0.16134 -0.437451 -0.88465 
0.588473 -0.451247 -0.670877 0.596021 -0.432925 -0.676265 0.628009 -0.48706 -0.60694 
-0.43554 -0.237292 -0.86833 -0.46873 -0.183381 -0.864097 -0.503345 -0.250641 -0.826936 
0.613798 -0.257479 -0.746296 0.825417 -0.391467 -0.406743 -0.528458 -0.0528118 -0.847315 
-0.965125 -0.0363196 -0.259259 0.571858 -0.0459532 -0.819064 0.730218 -0.101515 -0.675631 
-0.488054 0.222963 -0.843855 -0.475972 0.237397 -0.846814 0.514867 0.0753735 -0.85395 
0.693002 0.111136 -0.712318 -0.435846 0.25418 -0.863383 -0.691009 0.364635 -0.624138 
-0.394441 0.282414 -0.874448 0.558061 0.187942 -0.808236 0.517299 0.346177 -0.782664 
0.813561 0.305603 -0.494698 -0.823842 0.446504 -0.349168 -0.366826 0.277395 -0.88797 
-0.437136 0.32669 -0.837965 0.507377 0.362673 -0.781689 0.553133 0.398428 -0.731641 
-0.393416 0.280391 -0.875559 -0.656682 0.439798 -0.612655 -0.371684 0.31872 -0.871934 
0.18774 0.732339 -0.654548 0.291591 0.681207 -0.671514 0.383495 0.588105 -0.712084 
0.367671 0.597911 -0.712265 -0.299332 0.387414 -0.871958 -0.51056 0.581365 -0.633516 
-0.266905 0.431275 -0.861837 -0.122217 0.536978 -0.834696 -0.0351591 0.648976 -0.759996 
0.115353 0.691945 -0.712675 0.196152 0.71452 -0.671555 0.194482 0.751997 -0.629824 
0.195428 0.744698 -0.638148 0.233483 0.894753 -0.380661 -0.099415 0.943974 -0.31469 
0.0373439 0.946408 -0.320808 0.201056 0.976106 -0.0824188 -0.386407 -0.657851 -0.646468 
-0.071981 -0.864529 -0.497402 0.264432 -0.883979 -0.385559 0.50337 -0.808765 -0.304167 
-0.389279 -0.503701 -0.771199 -0.441633 -0.577755 -0.686411 -0.42953 -0.523445 -0.735873 
-0.514546 -0.67952 -0.522967 0.524608 -0.80123 -0.28778 0.592806 -0.768393 -0.24115 
-0.385563 -0.49729 -0.777203 -0.356937 -0.559569 -0.747983 -0.605261 -0.722797 -0.333502 
0.618408 -0.751045 -0.231306 0.635057 -0.74351 -0.209513 -0.359006 -0.563272 -0.744203 
-0.457182 -0.57345 -0.679809 -0.631399 -0.679661 -0.373358 0.677136 -0.711917 -0.186175 
0.702215 -0.690484 -0.173565 -0.537481 -0.566324 -0.624813 -0.698224 -0.574428 -0.427219 
0.722035 -0.671583 -0.16626 0.729269 -0.662461 -0.171205 -0.757222 -0.547387 -0.356346 
0.762296 -0.613621 -0.205848 0.836143 -0.494411 -0.237536 -0.918352 -0.315053 -0.239524 
-0.971322 -0.104447 -0.213597 0.862293 -0.433857 -0.261188 -0.976839 -0.0360441 -0.210918 
-0.973946 0.0946475 -0.206087 -0.963682 -0.017254 0.266494 0.943506 -0.152245 -0.294309 
-0.945375 0.253925 -0.204422 0.953629 0.101702 -0.283282 -0.859019 0.401895 -0.317124 
0.893793 0.362069 -0.26465 0.860657 0.472097 -0.190774 -0.838562 0.450513 -0.306351 
-0.834197 0.456531 -0.309346 0.81555 0.562802 -0.134656 0.652522 0.75734 -0.0255272 
-0.764212 0.510927 -0.393616 -0.727832 0.580047 -0.365795 0.307883 0.951396 0.00737369 
0.600999 0.79922 -0.00691973 0.477814 0.877872 -0.0321752 -0.686211 0.645994 -0.334376 
-0.523597 0.794396 -0.307865 -0.276682 0.952608 -0.126435 0.287111 0.957821 -0.0120831 
0.270984 0.96256 0.00670189 0.291882 0.956372 0.0125748 0.255365 0.966702 0.0166018 
0.233052 0.928227 0.289969 -0.258359 0.958363 -0.121615 -0.0927227 0.990084 -0.10553 
-0.051419 0.973346 0.223502 0.0580655 0.996742 -0.0559814 0.0904625 0.962469 0.255873 
0.218794 0.975764 -0.00366709 0.203073 0.979139 -0.00692924 0.20973 0.975991 0.0587736 
-0.507345 -0.858967 -0.0691199 -0.257224 -0.966334 0.00580892 0.0926471 -0.988694 0.117899 
0.336342 -0.920514 0.198819 0.582296 -0.785032 0.211319 -0.611395 -0.743182 -0.271802 
-0.53426 -0.830024 -0.160083 -0.538034 -0.82002 -0.195156 0.591023 -0.778235 0.212231 
0.56678 -0.770297 0.292238 0.601338 -0.775514 0.19228 -0.621261 -0.737339 -0.265266 
-0.684615 -0.701634 -0.197514 0.616906 -0.767727 0.173269 0.506771 -0.741995 0.438892 
0.641579 -0.75245 0.148982 -0.72222 -0.67218 -0.163008 0.684671 -0.714364 0.144603 
0.701664 -0.697602 0.14498 -0.853349 -0.520954 0.0200603 -0.862424 -0.5049 0.0360645 
0.71733 -0.684153 0.131808 0.724079 -0.674382 0.144636 -0.912038 -0.369208 0.178529 
-0.754978 -0.20827 0.621798 0.760177 -0.628604 0.164279 0.839572 -0.514072 0.175638 
-0.911426 -0.247072 0.329025 -0.630652 -0.116709 0.76724 0.870404 -0.451928 0.19534 
0.827082 -0.415045 0.379042 -0.945797 -0.0146717 0.324427 0.972108 -0.118163 0.20259 
-0.923523 0.214331 0.318068 0.950093 0.14254 0.2775 0.703923 0.193797 0.683326 
-0.91608 0.342142 0.209133 -0.723233 0.202139 0.660359 0.842825 0.440912 0.308615 
0.782789 0.524078 0.335536 0.734639 0.458526 0.50006 -0.875995 0.439423 0.198846 
-0.871784 0.449008 0.195917 -0.858308 0.438987 0.265703 0.680122 0.615549 0.398162 
0.584974 0.690164 0.426004 0.527599 0.569643 0.630196 -0.834179 0.522446 0.176621 
-0.72174 0.659491 0.210148 -0.598937 0.455229 0.658818 0.209148 0.850731 0.482196 
0.19043 0.658452 0.728133 0.273904 0.824612 0.494966 0.239874 0.702937 0.669582 
0.475344 0.759829 0.443518 0.420859 0.790848 0.444339 0.40951 0.71739 0.563607 
-0.643994 0.727362 0.237097 -0.427391 0.858854 0.282323 -0.3734 0.671869 0.63966 
-0.171415 0.914876 0.365538 -0.0257324 0.918952 0.393529 0.107881 0.884457 0.453979 
0.102744 0.604042 0.790302 0.207968 0.840633 0.500086 0.158194 0.674514 0.721114 
0.250127 0.83861 0.483911 0.20951 0.742232 0.636551 0.237239 0.852662 0.465496 
0.256739 0.849343 0.461195 0.248116 0.832183 0.495892 -0.308164 -0.748914 0.586654 
-0.159385 -0.733743 0.660467 0.118732 -0.690104 0.713904 0.304224 -0.683864 0.663157 
-0.578584 -0.722609 0.378254 -0.313605 -0.753052 0.578415 -0.372846 -0.781385 0.500423 
-0.305525 -0.740663 0.598392 -0.0881382 -0.588178 0.803915 0.109098 -0.551735 0.826853 
0.326258 -0.680468 0.656139 0.293126 -0.66467 0.687234 0.413581 -0.681786 0.603423 
-0.589894 -0.712716 0.379554 -0.753059 -0.493344 0.435333 -0.570723 -0.701264 0.427205 
-0.250268 -0.543827 0.80101 -0.168213 -0.390409 0.905144 -0.0282682 -0.216837 0.975798 
0.0571034 -0.304829 0.950694 0.122986 -0.388033 0.913403 0.467865 -0.721169 0.510898 
0.295069 -0.590471 0.751184 0.478003 -0.724068 0.497231 0.567467 -0.701452 0.431216 
-0.76647 -0.462572 0.445591 -0.74316 -0.444737 0.499922 -0.364261 -0.311198 0.877764 
-0.145429 -0.274163 0.950623 -0.0672909 -0.194978 0.978497 -0.0193932 -0.0684785 0.997464 
-0.0276394 -0.145537 0.988967 0.306312 -0.469816 0.827917 0.590026 -0.684235 0.428593 
0.543322 -0.646313 0.535799 0.660296 -0.60656 0.442825 -0.674109 -0.261514 0.690787 
-0.556704 -0.140589 0.818728 -0.387302 -0.0825528 0.91825 0.355991 -0.278426 0.892048 
0.668909 -0.588635 0.453948 0.621972 -0.547365 0.559948 0.667915 -0.528889 0.523609 
-0.629659 -0.13916 0.764306 -0.423103 -0.088235 0.901775 -0.289806 0.0257548 0.956739 
0.371035 -0.256845 0.892392 0.669638 -0.520087 0.530184 0.656752 -0.507529 0.557756 
-0.58107 -0.0998248 0.807708 -0.596092 -0.0853489 0.798367 -0.351149 -0.0834564 0.932593 
-0.198951 -0.0296827 0.97956 -0.128703 0.0468058 0.990578 0.228186 -0.0576884 0.971907 
0.713971 -0.344511 0.609555 0.504031 -0.231929 0.831963 0.746147 -0.126177 0.653716 
-0.597212 -0.0538075 0.800277 -0.571529 -0.056024 0.818667 -0.320994 -0.0768639 0.943957 
-0.142247 -0.099522 0.984815 -0.0142167 -0.0509515 0.9986 -0.0341795 0.0568463 0.997798 
-0.0141523 0.0968047 0.995203 -0.169971 -0.0134033 0.985358 0.200994 0.0483122 0.9784 
0.408231 0.0200868 0.912658 0.746665 -0.0625428 0.662254 0.713361 0.0598217 0.698239 
0.724224 -0.0589323 0.687042 -0.649951 0.0566675 0.757861 -0.699791 0.161741 0.695796 
-0.636061 0.0519365 0.769889 -0.372088 0.0110254 0.928132 -0.168678 0.0161506 0.985539 
0.0247974 -0.0128316 0.99961 -0.0253342 0.0190864 0.999497 0.231992 0.183639 0.955226 
0.652507 0.202919 0.730109 0.404956 0.221268 0.887159 -0.70914 0.196828 0.677037 
-0.386385 0.165283 0.907407 -0.172064 0.107138 0.979242 -0.00910792 0.0963088 0.99531 
-0.00234596 0.0579134 0.998319 -0.0561798 0.133243 0.98949 0.0431586 0.241891 0.969343 
-0.0181154 0.131854 0.991104 0.210489 0.262769 0.941619 0.300659 0.3275 0.895739 
0.484481 0.404363 0.775737 0.4492 0.431614 0.782259 0.435183 0.391858 0.810594 
-0.603118 0.347414 0.718019 -0.568059 0.422669 0.706158 -0.491693 0.292486 0.820177 
-0.234506 0.233815 0.943577 -0.0286264 0.188122 0.981728 0.00514424 0.153473 0.988139 
0.00597213 0.19058 0.981653 0.0198811 0.235835 0.97159 0.00336718 0.232806 0.972517 
0.0283599 0.360428 0.932356 0.189988 0.655923 0.730527 0.142349 0.436519 0.888363 
0.253301 0.598548 0.759986 0.246819 0.461541 0.852092 0.362996 0.512488 0.778197 
0.344304 0.518175 0.782911 0.340243 0.50785 0.791405 -0.546222 0.438843 0.713484 
-0.320707 0.558009 0.765358 -0.252827 0.382773 0.888574 -0.0967698 0.323224 0.941362 
-0.00129489 0.317001 0.948424 0.101698 0.599612 0.793803 0.0393308 0.353802 0.934493 
0.141512 0.599448 0.787805 0.0892336 0.407062 0.909032 0.1638 0.594806 0.787004 
0.124168 0.481147 0.867802 0.188935 0.655749 0.730956 0.166009 0.640451 0.749842 
0.145764 0.593717 0.791362 -0.171144 0.630979 0.756687 -0.11432 0.643018 0.757271 
-0.108822 0.621094 0.776144 0.0955503 0.598058 0.795736 0.0226163 0.57724 0.816261 
0.0289838 0.544797 0.838067 -0.0218819 -0.241523 0.970148 0.109995 -0.347485 0.931212 
-0.139936 -0.149649 0.978787 -0.02724 -0.160559 0.98665 -0.00296587 -0.0720406 0.997397 
-0.0316034 -0.171224 0.984725 -0.0439452 -0.128569 0.990726 -0.040768 -0.223783 0.973786 
0.14885 -0.353762 0.923416 0.0903931 -0.316773 0.944184 0.223774 -0.278834 0.933904 
-0.225165 -0.0720369 0.971654 -0.140113 -0.0681928 0.987784 0.0411624 -0.109584 0.993125 
0.0235516 -0.0800613 0.996512 -0.0935592 -0.0794977 0.992435 -0.0880821 -0.0842967 0.99254 
0.030676 -0.0536258 0.99809 0.260163 -0.200242 0.944573 0.159758 -0.123949 0.979344 
0.146438 -0.104467 0.983688 -0.174733 0.103243 0.979188 -0.173846 0.103101 0.979361 
-0.174197 0.103527 0.979254 -0.0768778 0.0439948 0.996069 0.0105744 -0.120033 0.992714 
-0.0301329 -0.071041 0.997018 -0.0145454 -0.00897325 0.999854 0.0429118 0.110917 0.992903 
0.0788051 0.0369723 0.996204 0.143273 -0.0996472 0.984654 0.12777 -0.0890362 0.987799 
-0.175545 0.125547 0.976433 -0.167132 0.125853 0.977869 -0.179555 0.132224 0.974821 
-0.0219198 0.0955529 0.995183 -0.0873913 0.0918933 0.991927 -0.12836 0.0152295 0.991611 
0.00980195 0.0997297 0.994966 0.0965588 -0.05101 0.994019 0.0759157 0.00286651 0.99711 
-0.0351492 0.0356506 0.998746 0.158624 -0.0466915 0.986234 0.0615121 -0.03776 0.997392 
-0.0650443 0.0731081 0.995201 -0.164243 0.00590316 0.986402 -0.132874 -0.0159853 0.991004 
-0.117648 0.0922827 0.988758 0.134651 -0.0842782 0.987302 0.0402688 -0.0331344 0.998639 
0.165242 0.0437784 0.985281 0.0405987 0.0280518 0.998782 -0.129143 0.0180213 0.991462 
-0.121456 0.0761326 0.989673 -0.185504 0.0162898 0.982508 0.0411134 0.220048 0.974622 
0.0196221 -0.0279192 0.999418 0.022454 0.21855 0.975567 0.0307814 0.236295 0.971194 
-0.04931 0.0807207 0.995516 0.0745735 0.013243 0.997128 0.154259 0.124424 0.980165 
0.151688 0.135515 0.979095 0.142314 0.115744 0.983031 -0.0800417 0.193828 0.977765 
-0.0801583 0.205977 0.975268 -0.0853419 0.198656 0.976347 0.101502 0.216409 0.971012 
0.084408 0.228936 0.969775 0.0792118 0.207506 0.975021 
