# vtk DataFile Version 4.2
vtk output
ASCII
DATASET POLYDATA
POINTS 526 float
-8.92255 -2.59882 -24.0579 -41.7543 -35.4306 -17.1678 -33.5464 -35.4306 -18.8722 
-25.3384 -35.4306 -19.4947 -17.1305 -35.4306 -19.2788 -8.92255 -35.4306 -18.3134 
-0.714611 -35.4306 -16.8727 -49.9622 -27.2226 -17.1762 -41.7543 -27.2226 -20.7333 
-33.5464 -27.2226 -21.7778 -25.3384 -27.2226 -21.7718 -17.1305 -27.2226 -21.7813 
-8.92255 -27.2226 -20.9013 -0.714611 -27.2226 -20.4302 7.49333 -27.2226 -18.3739 
-49.9622 -19.0147 -18.5374 -41.7543 -19.0147 -21.086 -33.5464 -19.0147 -21.6599 
-25.3384 -19.0147 -22.4842 -17.1305 -19.0147 -21.6133 -8.92255 -19.0147 -21.159 
-0.714611 -19.0147 -21.2212 7.49333 -19.0147 -19.8294 15.7013 -19.0147 -17.0206 
23.9092 -19.0147 -16.5464 32.1171 -19.0147 -16.4342 40.3251 -19.0147 -16.2109 
-58.1702 -10.8068 -16.7107 -49.9622 -10.8068 -20.5659 -41.7543 -10.8068 -21.2938 
-33.5464 -10.8068 -21.2902 -25.3384 -10.8068 -20.8417 -17.1305 -10.8068 -20.5013 
-8.92255 -2.92337 -23.9413 -8.92255 -10.8068 -21.1715 -0.714611 -10.8068 -20.8138 
7.49333 -10.8068 -20.7392 15.7013 -10.8068 -17.0135 23.9092 -10.8068 -17.1587 
32.1171 -10.8068 -18.0234 40.3251 -10.8068 -17.6335 -58.1702 -2.59882 -17.6301 
-49.9622 -2.59882 -21.0994 -41.7543 -2.59882 -21.6559 -33.5464 -2.59882 -21.3385 
-25.3384 -2.59882 -20.4306 -9.20396 -2.59882 -23.9413 -17.1305 -2.59882 -20.4124 
-8.66898 -2.59882 -23.9413 -8.92255 -2.09356 -23.9413 -0.714611 -2.59882 -19.6855 
7.49333 -2.59882 -21.5446 15.7013 -2.59882 -17.4103 23.9092 -2.59882 -16.4822 
32.1171 -2.59882 -17.8441 40.3251 -2.59882 -17.7628 48.533 -2.59882 -15.8482 
-58.1702 5.60912 -17.5666 -49.9622 5.60912 -21.4464 -41.7543 5.60912 -22.2218 
-33.5464 5.60912 -21.8752 -25.3384 5.60912 -21.1255 -17.1305 5.60912 -19.4252 
-8.92255 5.60912 -21.6115 -0.714611 5.60912 -19.8724 7.49333 5.60912 -19.7947 
15.7013 5.60912 -18.9483 23.9092 5.60912 -17.5685 32.1171 5.60912 -18.0617 
40.3251 5.60912 -17.6692 48.533 5.60912 -16.5623 -58.1702 13.8171 -16.1005 
-49.9622 13.8171 -20.5959 -41.7543 13.8171 -21.8642 -33.5464 13.8171 -21.9488 
-25.3384 13.8171 -20.868 -17.1305 13.8171 -19.303 -8.92255 13.8171 -18.5637 
-0.714611 13.8171 -20.2024 7.49333 13.8171 -19.2182 15.7013 13.8171 -18.7849 
23.9092 13.8171 -18.96 32.1171 13.8171 -18.1115 40.3251 13.8171 -17.0122 
-49.9622 22.025 -17.7469 -41.7543 22.025 -20.015 -33.5464 22.025 -20.925 
-25.3384 22.025 -19.8688 -17.1305 22.025 -18.9545 -8.92255 22.025 -17.776 
-0.714611 22.025 -18.0131 7.49333 22.025 -17.4474 15.7013 22.025 -17.4196 
23.9092 22.025 -17.4138 32.1171 22.025 -16.8813 -33.5464 30.2329 -16.911 
-25.3384 30.2329 -17.076 -17.1305 30.2329 -16.0929 -41.7543 -37.0665 -15.7334 
-33.5464 -39.5949 -15.7334 -25.3384 -40.735 -15.7334 -17.1305 -39.8804 -15.7334 
-17.1305 -43.6385 -7.90756 -8.92255 -38.3634 -15.7334 -0.714611 -36.7607 -15.7334 
-44.1271 -35.4306 -15.7334 -49.9622 -29.7529 -15.7334 4.72711 -35.4306 -15.7334 
7.49333 -34.0078 -15.7334 7.49333 -35.4306 -14.9123 15.7013 -35.4306 -10.1467 
-52.0406 -27.2226 -15.7334 14.736 -27.2226 -15.7334 15.7013 -25.6027 -15.7334 
15.7013 -27.2226 -15.3875 23.9092 -22.4346 -15.7334 23.9092 -27.2226 -14.3518 
32.1171 -21.271 -15.7334 32.1171 -27.2226 -13.2671 40.3251 -20.2586 -15.7334 
40.3251 -27.2226 -12.1069 48.533 -27.2226 -8.72806 -55.2194 -19.0147 -15.7334 
-58.1702 -14.2305 -15.7334 -58.1702 -19.0147 -13.2489 43.0609 -19.0147 -15.7334 
48.533 -19.0147 -14.6138 56.741 -19.0147 -10.7759 -59.9159 -10.8068 -15.7334 
48.5119 -10.8068 -15.7334 48.533 -10.4713 -15.7334 48.533 -10.8068 -15.7286 
56.741 -10.8068 -12.5854 -62.0951 -2.59882 -15.7334 -66.3781 -2.59882 -8.24371 
48.8497 -2.59882 -15.7334 56.741 -2.59882 -12.731 -61.2608 5.60912 -15.7334 
50.3539 5.60912 -15.7334 48.533 8.53895 -15.7334 56.741 5.60912 -11.9675 
-58.7116 13.8171 -15.7334 -58.1702 14.6004 -15.7334 43.7817 13.8171 -15.7334 
40.3251 17.9836 -15.7334 48.533 13.8171 -13.8061 56.741 13.8171 -8.08943 
-52.9597 22.025 -15.7334 -58.1702 22.025 -9.63109 -49.9622 24.7933 -15.7334 
-41.7543 29.4932 -15.7334 -8.92255 28.7344 -15.7334 -0.714611 27.3991 -15.7334 
7.49333 26.0634 -15.7334 15.7013 26.1015 -15.7334 23.9092 26.0104 -15.7334 
36.2722 22.025 -15.7334 32.1171 24.4829 -15.7334 40.3251 22.025 -14.3742 
48.533 22.025 -9.66162 -49.9622 30.2329 -8.14664 -39.206 30.2329 -15.7334 
-41.7543 30.2329 -14.9284 -33.5464 31.4955 -15.7334 -25.3384 32.2004 -15.7334 
-13.7039 30.2329 -15.7334 -17.1305 30.7853 -15.7334 -8.92255 30.2329 -15.2011 
-0.714611 30.2329 -14.3296 7.49333 30.2329 -13.6747 15.7013 30.2329 -13.7534 
23.9092 30.2329 -13.3408 32.1171 30.2329 -11.7763 40.3251 30.2329 -7.77256 
-25.3384 38.4409 -8.65672 -17.1305 38.4409 -8.58257 -8.92255 38.4409 -7.78172 
-17.1305 -43.7571 -7.52543 -41.7543 -39.694 -7.52543 -33.5464 -42.4976 -7.52543 
-21.2752 -43.6385 -7.52543 -25.3384 -43.5223 -7.52543 -16.2103 -43.6385 -7.52543 
-17.1305 -43.6385 -7.03682 -8.92255 -42.7001 -7.52543 -0.714611 -41.5649 -7.52543 
7.49333 -40.2264 -7.52543 15.7013 -37.3354 -7.52543 -49.158 -35.4306 -7.52543 
-49.9622 -34.8341 -7.52543 20.993 -35.4306 -7.52543 23.9092 -34.277 -7.52543 
23.9092 -35.4306 -2.49516 32.1171 -32.2021 -7.52543 40.3251 -30.965 -7.52543 
48.533 -28.1546 -7.52543 -57.0565 -27.2226 -7.52543 -58.1702 -25.5109 -7.52543 
50.2135 -27.2226 -7.52543 56.741 -22.088 -7.52543 -61.706 -19.0147 -7.52543 
59.7064 -19.0147 -7.52543 -65.1102 -10.8068 -7.52543 -66.3781 -3.78098 -7.52543 
64.0533 -10.8068 -7.52543 64.9489 -10.8068 -5.97927 -66.6036 -2.59882 -7.52543 
-66.3781 1.29659 -7.52543 -66.3781 -2.59882 -3.95169 63.1444 -2.59882 -7.52543 
64.9489 -2.59882 -4.70762 -66.1372 5.60912 -7.52543 61.7246 5.60912 -7.52543 
64.9489 5.60912 -2.43714 -64.2121 13.8171 -7.52543 57.3226 13.8171 -7.52543 
56.741 14.7345 -7.52543 -59.418 22.025 -7.52543 -58.1702 23.452 -7.52543 
51.175 22.025 -7.52543 48.533 24.4888 -7.52543 -50.4008 30.2329 -7.52543 
-49.9622 30.5631 -7.52543 -41.7543 34.6039 -7.52543 -33.5464 37.2446 -7.52543 
-0.714611 37.6242 -7.52543 7.49333 36.9969 -7.52543 15.7013 36.5832 -7.52543 
23.9092 35.5754 -7.52543 32.1171 33.7894 -7.52543 40.679 30.2329 -7.52543 
40.3251 30.4295 -7.52543 -28.2437 38.4409 -7.52543 -33.5464 38.4409 -0.327581 
-25.3384 39.1059 -7.52543 -17.1305 39.157 -7.52543 -7.17042 38.4409 -7.52543 
-8.92255 38.6245 -7.52543 -0.714611 38.4409 -5.92666 7.49333 38.4409 -4.85117 
15.7013 38.4409 -3.721 23.9092 38.4409 -0.913617 -41.7543 -36.2602 0.682508 
-33.5464 -37.6991 0.682508 -25.3384 -40.0876 0.682508 -17.1305 -41.0705 0.682508 
-8.92255 -40.6128 0.682508 -0.714611 -40.6634 0.682508 7.49333 -40.4287 0.682508 
15.7013 -38.7621 0.682508 23.9092 -36.036 0.682508 -43.2146 -35.4306 0.682508 
-49.9622 -28.3946 0.682508 -41.7543 -35.4306 1.51451 -33.5464 -35.4306 2.45405 
-25.3384 -35.4306 4.38188 -17.1305 -35.4306 5.78976 -8.92255 -35.4306 6.42065 
-0.714611 -35.4306 7.77118 26.3134 -35.4306 0.682508 23.9092 -35.4306 2.79506 
32.1171 -33.9899 0.682508 40.3251 -32.8562 0.682508 48.533 -29.7815 0.682508 
-51.2769 -27.2226 0.682508 -58.1702 -20.3773 0.682508 -49.9622 -27.2226 1.73273 
-41.7543 -27.2226 5.89998 -33.5464 -27.2226 7.66242 -25.3384 -27.2226 8.44093 
54.1556 -27.2226 0.682508 56.741 -25.8128 0.682508 -59.0727 -19.0147 0.682508 
-58.1702 -19.0147 2.05537 -49.9622 -19.0147 8.15384 64.3182 -19.0147 0.682508 
64.9489 -17.7293 0.682508 -63.9559 -10.8068 0.682508 -58.1702 -10.8068 7.57904 
67.4819 -10.8068 0.682508 -66.0819 -2.59882 0.682508 67.5528 -2.59882 0.682508 
-65.4975 5.60912 0.682508 66.4207 5.60912 0.682508 64.9489 8.40649 0.682508 
-63.5842 13.8171 0.682508 -58.1702 13.8171 7.92797 61.7262 13.8171 0.682508 
56.741 20.5285 0.682508 -58.2191 22.025 0.682508 -58.1702 22.0848 0.682508 
-58.1702 22.025 0.762353 55.4281 22.025 0.682508 48.533 28.2112 0.682508 
-50.2088 30.2329 0.682508 -49.9622 30.4186 0.682508 -49.9622 30.2329 1.02752 
-41.7543 35.2862 0.682508 32.1171 37.078 0.682508 45.6732 30.2329 0.682508 
40.3251 33.5645 0.682508 -34.0052 38.4409 0.682508 -33.5464 38.6103 0.682508 
-33.5464 38.4409 1.27336 -25.3384 40.6944 0.682508 -17.1305 41.5608 0.682508 
-8.92255 41.4441 0.682508 -0.714611 40.9737 0.682508 7.49333 40.6622 0.682508 
15.7013 40.1647 0.682508 26.4559 38.4409 0.682508 23.9092 39.0158 0.682508 
7.49333 -35.9348 8.89045 15.7013 -35.6069 8.89045 -17.1305 -30.0374 8.89045 
-8.92255 -31.8077 8.89045 4.57638 -35.4306 8.89045 -0.714611 -34.1407 8.89045 
7.49333 -35.4306 9.42946 16.3877 -35.4306 8.89045 15.7013 -35.4306 9.11561 
23.9092 -33.4434 8.89045 32.1171 -31.723 8.89045 40.3251 -30.6822 8.89045 
48.533 -28.2483 8.89045 -41.7543 -22.2015 8.89045 -33.5464 -24.6897 8.89045 
-23.2978 -27.2226 8.89045 -25.3384 -25.8653 8.89045 -17.1305 -27.2226 10.1819 
-8.92255 -27.2226 11.5185 -0.714611 -27.2226 13.3407 7.49333 -27.2226 15.1731 
15.7013 -27.2226 16.1624 23.9092 -27.2226 15.981 32.1171 -27.2226 16.1442 
40.3251 -27.2226 14.4076 50.8975 -27.2226 8.89045 48.533 -27.2226 11.3231 
56.741 -24.1746 8.89045 -47.892 -19.0147 8.89045 -49.9622 -17.725 8.89045 
-41.7543 -19.0147 10.7264 -33.5464 -19.0147 11.2095 -25.3384 -19.0147 11.2343 
-17.1305 -19.0147 12.4893 -8.92255 -19.0147 15.2268 -0.714611 -19.0147 16.6877 
62.8152 -19.0147 8.89045 56.741 -19.0147 16.814 64.9489 -15.0436 8.89045 
-56.1321 -10.8068 8.89045 -58.1702 -6.20445 8.89045 -49.9622 -10.8068 12.1634 
-41.7543 -10.8068 13.6676 -33.5464 -10.8068 14.845 -25.3384 -10.8068 14.8073 
-17.1305 -10.8068 15.824 66.5878 -10.8068 8.89045 64.9489 -10.8068 11.9402 
-59.5875 -2.59882 8.89045 -58.1702 -2.59882 9.95971 -49.9622 -2.59882 13.9156 
-41.7543 -2.59882 16.0326 -33.5464 -2.59882 17.0184 67.1033 -2.59882 8.89045 
64.9489 -2.59882 13.2951 -59.9011 5.60912 8.89045 -58.1702 10.8965 8.89045 
-58.1702 5.60912 10.0383 -49.9622 5.60912 14.8423 -41.7543 5.60912 17.0022 
65.9482 5.60912 8.89045 64.9489 7.47948 8.89045 64.9489 5.60912 11.0716 
-57.0958 13.8171 8.89045 -49.9622 13.8171 13.4546 -41.7543 13.8171 16.3858 
[...]
POINT_DATA 526
SCALARS ImageScalars float
LOOKUP_TABLE default
0 0 0 0 0 0 0 0 0 
0 0 0 0 0 0 0 0 0 
0 0 0 0 0 0 0 0 0 
0 0 0 0 0 0 0 0 0 
0 0 0 0 0 0 0 0 0 
0 0 0 0 0 0 0 0 0 
0 0 0 0 0 0 0 0 0 
0 0 0 0 0 0 0 0 0 
0 0 0 0 0 0 0 0 0 
0 0 0 0 0 0 0 0 0 
0 0 0 0 0 0 0 0 0 
0 0 0 0 0 0 0 0 0 
0 0 0 0 0 0 0 0 0 
0 0 0 0 0 0 0 0 0 
0 0 0 0 0 0 0 0 0 
0 0 0 0 0 0 0 0 0 
0 0 0 0 0 0 0 0 0 
0 0 0 0 0 0 0 0 0 
0 0 0 0 0 0 0 0 0 
0 0 0 0 0 0 0 0 0 
0 0 0 0 0 0 0 0 0 
0 0 0 0 0 0 0 0 0 
0 0 0 0 0 0 0 0 0 
0 0 0 0 0 0 0 0 0 
0 0 0 0 0 0 0 0 0 
0 0 0 0 0 0 0 0 0 
0 0 0 0 0 0 0 0 0 
0 0 0 0 0 0 0 0 0 
0 0 0 0 0 0 0 0 0 
0 0 0 0 0 0 0 0 0 
0 0 0 0 0 0 0 0 0 
0 0 0 0 0 0 0 0 0 
0 0 0 0 0 0 0 0 0 
0 0 0 0 0 0 0 0 0 
0 0 0 0 0 0 0 0 0 
0 0 0 0 0 0 0 0 0 
0 0 0 0 0 0 0 0 0 
0 0 0 0 0 0 0 0 0 
0 0 0 0 0 0 0 0 0 
0 0 0 0 0 0 0 0 0 
0 0 0 0 0 0 0 0 0 
0 0 0 0 0 0 0 0 0 
0 0 0 0 0 0 0 0 0 
0 0 0 0 0 0 0 0 0 
0 0 0 0 0 0 0 0 0 
0 0 0 0 0 0 0 0 0 
0 0 0 0 0 0 0 0 0 
0 0 0 0 0 0 0 0 0 
0 0 0 0 0 0 0 0 0 
0 0 0 0 0 0 0 0 0 
0 0 0 0 0 0 0 0 0 
0 0 0 0 0 0 0 0 0 
0 0 0 0 0 0 0 0 0 
0 0 0 0 0 0 0 0 0 
0 0 0 0 0 0 0 0 0 
0 0 0 0 0 0 0 0 0 
0 0 0 0 0 0 0 0 0 
0 0 0 0 0 0 0 0 0 
0 0 0 0 
NORMALS Normals float
0.0223963 -0.0658788 -0.997576 -0.376306 -0.593846 -0.711155 -0.132157 -0.506492 -0.852057 
-0.0273496 -0.442803 -0.896202 0.0627005 -0.468616 -0.881174 0.132574 -0.519607 -0.844057 
0.166285 -0.587822 -0.791716 -0.508925 -0.329662 -0.795185 -0.274777 -0.217724 -0.936533 
-0.0554766 -0.167974 -0.984229 -0.000222061 -0.157109 -0.987581 0.0530153 -0.116688 -0.991753 
0.0801558 -0.142271 -0.986577 0.139246 -0.232154 -0.96266 0.299278 -0.255979 -0.919189 
-0.359334 -0.194096 -0.912801 -0.166413 -0.0299571 -0.985601 -0.0778152 0.0290705 -0.996544 
-0.000416995 0.0572395 -0.99836 0.0763865 0.0795227 -0.993902 0.0222049 -0.0160718 -0.999624 
0.0767049 -0.0215182 -0.996822 0.258269 -0.130201 -0.957259 0.192185 -0.0925559 -0.976984 
0.0347417 -0.155244 -0.987265 0.0191861 -0.234141 -0.972013 0.0926993 -0.269208 -0.958611 
-0.475007 -0.179191 -0.861544 -0.292329 -0.142913 -0.945579 -0.0379288 -0.0346729 -0.998679 
0.0264346 0.0195603 -0.999459 0.0486568 0.114775 -0.992199 -0.0209823 0.069202 -0.997382 
0.0214987 -0.0702566 -0.997297 -0.0193246 -0.167187 -0.985736 0.0257624 0.0824214 -0.996265 
0.202054 -0.102881 -0.973956 0.206969 -0.0181728 -0.978179 -0.0590673 0.00407167 -0.998246 
-0.0300356 -0.0815291 -0.996218 0.136516 -0.090746 -0.986473 -0.424109 -0.0512125 -0.904162 
-0.248658 -0.045919 -0.967502 -0.0105546 -0.056112 -0.998369 0.0739317 -0.0355208 -0.99663 
0.056284 -0.0180792 -0.998251 0.0145501 -0.0612402 -0.998017 -0.219638 0.0693685 -0.973112 
0.0270948 -0.0628919 -0.997652 0.018652 -0.0415606 -0.998962 0.172174 0.0685649 -0.982677 
0.0914424 0.0629094 -0.993821 0.318197 -0.125993 -0.939615 -0.0423754 -0.024639 -0.998798 
-0.0775934 -0.00241424 -0.996982 0.113155 -0.00145105 -0.993576 0.293437 -0.0520175 -0.954562 
-0.490237 0.0826101 -0.867665 -0.272157 0.0239163 -0.961956 -0.0206837 -0.0130867 -0.9997 
0.0658454 -0.0370661 -0.997141 0.149571 -0.026978 -0.988383 0.00424058 0.0639014 -0.997947 
-0.0425944 0.356648 -0.933267 0.0929274 -0.0327108 -0.995135 0.056475 0.133991 -0.989372 
0.139034 -0.0597806 -0.988482 0.0525229 -0.149138 -0.98742 -0.00432264 -0.0162476 -0.999859 
0.0939635 0.0417184 -0.994701 0.303168 0.101706 -0.947494 -0.556437 0.304363 -0.773137 
-0.342314 0.213751 -0.914949 -0.0701644 0.132843 -0.98865 0.0601633 0.0520206 -0.996832 
0.151939 0.0741331 -0.985606 0.142647 0.0287972 -0.989355 -0.0585953 0.18901 -0.980225 
-0.0355602 0.10947 -0.993354 0.0852916 0.135944 -0.987038 0.0155339 0.0873373 -0.996058 
0.0397045 0.00952487 -0.999166 0.11379 0.0738918 -0.990753 0.243201 0.188092 -0.951564 
-0.414585 0.46442 -0.782582 -0.169101 0.330363 -0.928582 0.00921049 0.263153 -0.96471 
0.111695 0.218471 -0.96943 0.126344 0.177244 -0.976023 0.0545489 0.185969 -0.98104 
0.0185764 0.325104 -0.945496 0.0344872 0.302601 -0.952493 0.00197553 0.273754 -0.961798 
0.032872 0.290713 -0.956245 0.166065 0.299027 -0.939684 -0.0914043 0.598731 -0.795717 
0.0465397 0.482903 -0.874436 0.105064 0.461571 -0.88086 -0.413891 -0.684497 -0.600131 
-0.178696 -0.7397 -0.648777 -0.0168488 -0.785405 -0.618752 0.109438 -0.728955 -0.675757 
0.0536202 -0.99705 -0.0549211 0.145181 -0.695125 -0.704076 0.164462 -0.652629 -0.739613 
-0.464654 -0.645693 -0.605952 -0.560569 -0.467312 -0.683654 0.251675 -0.580112 -0.77468 
0.299917 -0.514081 -0.803598 0.300458 -0.599121 -0.742145 0.348264 -0.753382 -0.557788 
-0.590751 -0.380781 -0.71135 0.224129 -0.294442 -0.929016 0.209452 -0.255138 -0.943946 
0.216695 -0.306344 -0.926928 0.0585251 -0.25749 -0.964507 0.108192 -0.44512 -0.888911 
0.0394826 -0.312562 -0.949076 0.114467 -0.613864 -0.781069 0.109567 -0.31194 -0.943763 
0.200278 -0.66587 -0.718683 0.403894 -0.757843 -0.512391 -0.522289 -0.297046 -0.799361 
-0.521065 -0.270153 -0.809635 -0.720779 -0.430533 -0.543249 0.137102 -0.286097 -0.948342 
0.255806 -0.346272 -0.902585 0.57805 -0.440645 -0.686796 -0.547366 -0.207871 -0.810666 
0.276888 -0.0603949 -0.959002 0.27794 -0.0599584 -0.958725 0.277245 -0.0603281 -0.958903 
0.477534 -0.0741742 -0.875477 -0.601927 -0.0462421 -0.797211 -0.983738 -0.062528 -0.168374 
0.299342 -0.0500479 -0.952832 0.486711 0.0310012 -0.873013 -0.618372 0.122197 -0.776327 
0.360822 0.117268 -0.925233 0.345504 0.179475 -0.921095 0.576399 0.216483 -0.787971 
-0.574365 0.315893 -0.755193 -0.569396 0.331774 -0.75214 0.313966 0.251432 -0.915537 
0.293437 0.298091 -0.908315 0.424434 0.329477 -0.843386 0.651688 0.422774 -0.629734 
-0.535355 0.486041 -0.690767 -0.744992 0.598444 -0.294705 -0.457352 0.541395 -0.705493 
-0.269478 0.67046 -0.691278 0.0843062 0.397048 -0.913918 0.057253 0.447185 -0.892607 
0.032358 0.409592 -0.911695 0.00142932 0.395391 -0.918512 0.0467333 0.425095 -0.903941 
0.255354 0.348177 -0.901979 0.186112 0.398659 -0.898016 0.348479 0.410908 -0.842447 
0.539957 0.527059 -0.656243 -0.541537 0.80182 -0.25263 -0.224005 0.674502 -0.703469 
-0.291278 0.718409 -0.631701 -0.115992 0.648426 -0.752389 0.0194096 0.559853 -0.828365 
0.0991086 0.456318 -0.88428 0.103605 0.4829 -0.869525 0.091611 0.45671 -0.884886 
0.0781047 0.532196 -0.84301 0.0293212 0.546871 -0.836703 0.0152051 0.552473 -0.833392 
0.0886994 0.60982 -0.787561 0.240342 0.68274 -0.690002 0.399547 0.753608 -0.521956 
-0.103158 0.895444 -0.433057 0.0355211 0.861766 -0.50606 0.0799784 0.851369 -0.518434 
0.050037 -0.998198 -0.0331128 -0.439702 -0.896134 0.0600562 -0.21456 -0.974276 0.0689188 
-0.013157 -0.99991 0.00266736 -0.0752063 -0.996448 0.0378892 0.0591068 -0.997534 -0.0378479 
0.0479185 -0.998839 -0.00498393 0.133002 -0.987979 -0.078797 0.146838 -0.975229 -0.16543 
0.249341 -0.932502 -0.261282 0.342919 -0.848722 -0.402589 -0.611131 -0.791375 0.0156372 
-0.630462 -0.776046 0.016425 0.299235 -0.861845 -0.409491 0.266464 -0.861821 -0.43158 
0.282782 -0.951299 -0.122735 0.179485 -0.873343 -0.452832 0.218818 -0.86919 -0.443427 
0.403435 -0.800968 -0.442369 -0.801207 -0.595835 -0.0552118 -0.824092 -0.560624 -0.0810764 
0.446394 -0.769384 -0.456925 0.60745 -0.602738 -0.517408 -0.885679 -0.455506 -0.0899319 
0.673952 -0.498324 -0.5454 -0.954443 -0.275639 -0.114292 -0.988767 -0.0943841 -0.115897 
0.778005 -0.131135 -0.61442 0.847468 -0.139539 -0.512179 -0.990486 -0.0639298 -0.121859 
-0.991253 0.0273097 -0.129118 -0.996175 -0.0761639 0.0428199 0.768834 0.100744 -0.631462 
0.881647 0.096099 -0.46202 -0.981182 0.129751 -0.142991 0.737884 0.258981 -0.623263 
0.884128 0.307357 -0.351922 -0.910075 0.374905 -0.176664 0.668427 0.430424 -0.606582 
0.662638 0.448622 -0.599708 -0.774666 0.604549 -0.185507 -0.741425 0.644952 -0.185274 
0.606284 0.568802 -0.555773 0.567126 0.617648 -0.544866 -0.551504 0.805071 -0.218413 
-0.54274 0.811098 -0.218067 -0.372074 0.887857 -0.270686 -0.235617 0.914696 -0.328354 
0.0785655 0.827439 -0.556033 0.0503137 0.808784 -0.58595 0.0708259 0.824151 -0.561924 
0.143239 0.82601 -0.545152 0.267197 0.809803 -0.522327 0.407734 0.757765 -0.509456 
0.400965 0.760876 -0.510191 -0.157972 0.919176 -0.360778 -0.298214 0.954433 0.01126 
-0.112972 0.917919 -0.380345 0.0272962 0.88616 -0.462575 0.0787464 0.852769 -0.516317 
0.0789731 0.857489 -0.508405 0.0725499 0.881669 -0.466258 0.0536293 0.896425 -0.439939 
0.0899242 0.922186 -0.376148 0.175341 0.95531 -0.237988 -0.313051 -0.71038 0.630365 
-0.181282 -0.670832 0.719111 -0.145777 -0.766359 0.625654 -0.0187512 -0.832232 0.55411 
0.0185348 -0.881439 0.471935 0.0116332 -0.936108 0.35152 0.112539 -0.969811 0.216337 
0.264794 -0.959766 0.093449 0.279248 -0.959119 0.0459376 -0.357717 -0.691805 0.627252 
-0.515104 -0.615525 0.596487 -0.297065 -0.682253 0.668044 -0.153967 -0.593892 0.789675 
-0.173581 -0.564337 0.80709 -0.106337 -0.579909 0.807711 -0.0893767 -0.65996 0.745966 
-0.126835 -0.699729 0.703059 0.251327 -0.966901 0.0440014 0.265336 -0.953347 0.143968 
0.186068 -0.981979 0.0331027 0.240206 -0.970559 0.017769 0.356116 -0.934441 0.00129322 
-0.528831 -0.615866 0.583993 -0.703661 -0.574272 0.418417 -0.478334 -0.60362 0.637839 
-0.231096 -0.493328 0.838583 -0.136294 -0.464053 0.875259 -0.139532 -0.366039 0.92008 
0.498227 -0.866329 -0.0352728 0.586425 -0.807506 -0.0635567 -0.730369 -0.549324 0.40596 
-0.693398 -0.538441 0.478833 -0.301193 -0.434453 0.848842 0.828654 -0.547293 -0.117487 
0.86411 -0.488942 -0.119369 -0.877563 -0.327729 0.349967 -0.598168 -0.270921 0.754186 
0.973771 -0.187622 -0.128713 -0.959681 -0.0900028 0.266294 0.979396 0.0651271 -0.191159 
-0.957205 0.133109 0.256984 0.925634 0.324277 -0.195056 0.900891 0.395064 -0.179776 
-0.886378 0.373517 0.273532 -0.656046 0.341287 0.673147 0.842265 0.516416 -0.15461 
0.748386 0.652692 -0.117948 -0.75579 0.58321 0.297736 -0.754757 0.584647 0.297541 
-0.754803 0.582724 0.301173 0.720227 0.685128 -0.108962 0.601135 0.791876 -0.10756 
-0.586397 0.77616 0.231763 -0.582155 0.779789 0.230271 -0.58422 0.773496 0.245748 
-0.444092 0.884765 0.141327 0.321837 0.935074 -0.148516 0.54871 0.82935 -0.105334 
0.456314 0.881175 -0.123728 -0.310724 0.948575 0.0604631 -0.303405 0.951187 0.0564648 
-0.308782 0.947409 0.0840779 -0.173121 0.984656 0.0219553 -0.0464645 0.9981 -0.0404661 
0.0358697 0.995386 -0.088994 0.0478752 0.988575 -0.142923 0.0490877 0.982234 -0.181128 
0.0983304 0.976136 -0.193622 0.223988 0.96039 -0.165774 0.178172 0.968504 -0.173939 
-0.052691 -0.747404 0.662277 0.133944 -0.82732 0.545528 -0.153066 -0.408557 0.899806 
-0.133001 -0.533091 0.835538 -0.0868531 -0.713603 0.695145 -0.147741 -0.637551 0.756109 
-0.0604214 -0.729936 0.680839 0.139958 -0.831226 0.538029 0.130173 -0.821503 0.555147 
0.192731 -0.864341 0.464511 0.146879 -0.905339 0.398482 0.196789 -0.900335 0.388164 
0.323579 -0.902088 0.285543 -0.175218 -0.471923 0.864053 -0.0986157 -0.438243 0.893431 
-0.146222 -0.35882 0.921882 -0.125597 -0.358766 0.924939 -0.169515 -0.34641 0.92264 
-0.179546 -0.436706 0.881505 -0.195883 -0.445295 0.873695 -0.150468 -0.451747 0.879366 
-0.0451998 -0.487965 0.871692 0.00377365 -0.624641 0.780903 0.0521834 -0.738449 0.672288 
0.135995 -0.8064 0.575521 0.384196 -0.874392 0.296364 0.320532 -0.867989 0.379281 
0.546539 -0.769575 0.330227 -0.256017 -0.429934 0.865801 -0.294205 -0.406145 0.865153 
-0.169961 -0.431002 0.8862 -0.0272816 -0.403473 0.914585 -0.0696138 -0.345434 0.935858 
-0.221076 -0.322952 0.920232 -0.233496 -0.379334 0.895313 -0.177136 -0.322417 0.929876 
0.747135 -0.58493 0.315667 0.504192 -0.570973 0.647904 0.868943 -0.387345 0.308061 
-0.514182 -0.260779 0.817075 -0.55734 -0.181329 0.810242 -0.304784 -0.326366 0.894758 
-0.15288 -0.301904 0.941 -0.0658851 -0.338877 0.938521 -0.0521762 -0.365283 0.929433 
-0.203946 -0.34498 0.916185 0.934933 -0.21232 0.28429 0.880654 -0.228601 0.414958 
-0.589728 -0.131494 0.796825 -0.541811 -0.121259 0.831707 -0.30852 -0.151037 0.93915 
-0.17542 -0.198196 0.964337 -0.0838954 -0.187894 0.9786 0.970294 0.0398632 0.238624 
0.885737 0.0209312 0.463715 -0.613388 0.087434 0.784927 -0.606868 0.234618 0.759385 
-0.555418 0.0787023 0.827838 -0.383458 0.0190999 0.923361 -0.181375 -0.021867 0.983171 
0.914029 0.324572 0.243319 0.895391 0.370869 0.246438 0.883249 0.321761 0.341088 
-0.607094 0.310564 0.731428 -0.395917 0.205848 0.894917 -0.248235 0.144369 0.957882 
0.816389 0.523509 0.243819 0.728663 0.640727 0.241907 0.647682 0.488578 0.584636 
-0.589986 0.462898 0.661545 -0.560857 0.518208 0.645678 -0.525165 0.430252 0.734224 
-0.325999 0.300558 0.89632 -0.242114 0.212612 0.946666 0.684825 0.685406 0.247456 
0.600064 0.764417 0.235773 -0.493706 0.65025 0.577433 -0.458941 0.682103 0.569305 
-0.449695 0.624927 0.638154 -0.349148 0.773719 0.528635 -0.321416 0.508641 0.798734 
-0.193546 0.410221 0.891212 0.33547 0.921996 0.193346 0.540596 0.810138 0.226788 
0.476722 0.85058 0.221924 0.457921 0.751712 0.474591 -0.228442 0.862471 0.451617 
-0.218059 0.866437 0.449151 -0.218074 0.85938 0.462504 -0.0966502 0.903603 0.417326 
-0.105688 0.838357 0.534777 -0.0290158 0.932275 0.360585 -0.0532757 0.847346 0.528362 
-0.0182903 0.957303 0.288507 -0.052246 0.865771 0.497706 0.00370658 0.974863 0.222775 
-0.0323198 0.875055 0.482944 0.0918377 0.978658 0.18383 0.0661688 0.901324 0.428061 
0.242902 0.953624 0.177765 0.21004 0.961963 0.174674 0.204887 0.947176 0.246736 
-0.153413 -0.375051 0.914222 -0.0708413 -0.412585 0.908161 -0.0400453 -0.54753 0.835827 
0.0296406 -0.69008 0.723126 0.10893 -0.710423 0.695294 0.286102 -0.674856 0.680231 
-0.197391 -0.255827 0.946356 -0.169165 -0.325146 0.93041 -0.17751 -0.288171 0.940982 
-0.146558 -0.334758 0.930837 -0.118775 -0.252607 0.960251 -0.13838 -0.328653 0.934258 
-0.0842689 -0.402479 0.911542 0.0713663 -0.478994 0.874912 0.489149 -0.564879 0.664564 
0.254279 -0.516801 0.817471 0.50335 -0.550561 0.665974 -0.070544 -0.200428 0.977165 
-0.186587 -0.255962 0.948509 -0.130941 -0.25399 0.958302 -0.171711 -0.178363 0.968866 
-0.198321 -0.139429 0.970169 -0.0820997 -0.295099 0.951933 -0.064132 -0.134114 0.988889 
-0.200824 -0.189615 0.961102 -0.135706 -0.198454 0.97067 0.0128084 -0.224645 0.974356 
0.215543 -0.231903 0.948558 0.660026 -0.253163 0.7073 0.487607 -0.249188 0.836746 
-0.0815889 -0.184988 0.979348 -0.0818096 -0.178014 0.980621 -0.0722545 -0.171928 0.982456 
-0.0697903 -0.162824 0.984184 -0.0411874 -0.188707 0.981169 -0.325716 -0.141695 0.93479 
-0.0899819 -0.0421173 0.995052 -0.01644 -0.121855 0.992412 -0.224085 -0.115622 0.967687 
-0.134879 -0.0895326 0.986809 0.223257 -0.0418875 0.973859 0.725873 -0.00820284 0.68778 
0.496781 -0.0284004 0.867411 -0.169648 -0.0252053 0.985182 -0.0544969 -0.0573534 0.996865 
-0.0425145 -0.0781575 0.996034 -0.192971 -0.0657278 0.979001 -0.138234 -0.122298 0.98282 
-0.0656172 -0.0799503 0.994637 -0.0925798 0.0997371 0.990697 -0.132358 -0.11617 0.984371 
-0.173524 -0.0698232 0.982351 0.262266 0.15668 0.952191 0.718206 0.281384 0.636399 
0.634265 0.46728 0.615919 0.532429 0.247 0.809636 -0.197508 0.112028 0.973879 
-0.220043 0.180848 0.95858 -0.137281 0.0722498 0.987894 -0.0837248 -0.0467482 0.995392 
-0.122207 -0.0427002 0.991586 -0.0910473 0.0642004 0.993775 -0.0532933 0.0294117 0.998146 
-0.16217 0.0116872 0.986694 -0.184795 -0.0446096 0.981764 -0.0940583 0.004731 0.995555 
0.0186737 0.0990596 0.994906 0.161678 0.211128 0.963994 0.625183 0.477858 0.617088 
0.393484 0.344586 0.852309 -0.23186 0.197735 0.95244 -0.189076 0.368756 0.910093 
-0.157729 0.109963 0.981341 -0.0838387 0.102297 0.991215 -0.0690229 0.149072 0.986414 
-0.114325 0.0944479 0.988944 -0.171523 0.0798707 0.981937 -0.133765 0.100385 0.985916 
-0.0288196 0.183893 0.982524 0.127468 0.271893 0.953848 0.426324 0.669506 0.608285 
0.309621 0.431162 0.847487 0.550138 0.57467 0.60589 0.549828 0.575009 0.60585 
0.549467 0.574179 0.606963 -0.153851 0.398183 0.904312 -0.0771229 0.418573 0.904903 
-0.0742442 0.380704 0.921711 -0.0834896 0.445734 0.891263 -0.0866921 0.365963 0.926583 
-0.10942 0.521337 0.846306 -0.120839 0.351529 0.928346 -0.0831321 0.62649 0.774984 
-0.127945 0.367952 0.921 0.00927942 0.725677 0.687972 -0.0683329 0.429074 0.900681 
0.140343 0.761804 0.632423 0.0837187 0.51624 0.852342 0.394105 0.693111 0.603556 
0.310793 0.73498 0.602671 0.284046 0.611062 0.738865 0.0171018 -0.143472 0.989507 
-0.131314 -0.0890305 0.987335 -0.132201 -0.0835726 0.987694 0.142102 -0.0525398 0.988457 
0.0209972 -0.0676325 0.997489 -0.104581 -0.00251089 0.994513 -0.0354509 0.055334 0.997838 
-0.0883386 0.0131735 0.996003 0.136247 0.112747 0.984238 0.0972594 0.132554 0.986392 
0.059355 0.0865635 0.994477 
