# vtk DataFile Version 4.2
vtk output
ASCII
DATASET POLYDATA
POINTS 524 float
-19.0843 -45.4569 -12.2781 -10.5873 -45.4569 -12.4481 -2.09043 -45.4569 -12.2955 
6.40648 -45.4569 -12.1426 -27.5812 -36.96 -14.6481 -19.0843 -36.96 -15.124 
-10.5873 -36.96 -15.063 -2.09043 -36.96 -14.8338 6.40648 -36.96 -14.8205 
14.9034 -36.96 -14.598 23.4003 -36.96 -14.1756 -36.0781 -28.4631 -14.1423 
-27.5812 -28.4631 -16.5905 -19.0843 -28.4631 -16.8503 -10.5873 -28.4631 -16.5926 
-2.09043 -28.4631 -16.4655 6.40648 -28.4631 -16.4557 14.9034 -28.4631 -16.2459 
23.4003 -28.4631 -15.6459 31.8972 -28.4631 -14.1344 -36.0781 -19.9662 -14.7066 
-27.5812 -19.9662 -16.647 -19.0843 -19.9662 -16.8782 -10.5873 -19.9662 -16.8446 
-2.09043 -19.9662 -18.2629 6.40648 -19.9662 -17.4243 14.9034 -19.9662 -16.5699 
23.4003 -19.9662 -16.1855 31.8972 -19.9662 -15.9409 40.3941 -19.9662 -14.4798 
-44.575 -11.4692 -12.7063 -36.0781 -11.4692 -15.3582 -27.5812 -11.4692 -16.3186 
-19.0843 -11.4692 -16.1396 -10.5873 -11.4692 -15.8644 -2.09043 -11.4692 -18.1594 
6.40648 -11.4692 -17.5659 14.9034 -11.4692 -15.9514 23.4003 -11.4692 -16.1907 
31.8972 -11.4692 -16.3565 40.3941 -11.4692 -15.6913 48.891 -11.4692 -13.9574 
-44.575 -2.97233 -14.261 -36.0781 -2.97233 -15.7069 -27.5812 -2.97233 -15.7737 
-19.0843 -2.97233 -15.8047 -10.5873 -2.97233 -18.5073 -2.09043 -2.97233 -15.2058 
6.40648 -2.97233 -18.0699 14.9034 -2.97233 -16.3276 23.4003 -2.97233 -16.5159 
31.8972 -2.97233 -17.4033 40.3941 -2.97233 -17.1423 48.891 -2.97233 -15.8553 
-44.575 5.52458 -14.4537 -36.0781 5.52458 -15.9378 -27.5812 5.52458 -15.3169 
-19.0843 5.52458 -13.6837 -10.5873 5.52458 -15.444 -2.09043 5.52458 -19.4114 
6.40648 5.52458 -18.2343 14.9034 5.52458 -16.6844 23.4003 5.52458 -17.5626 
31.8972 5.52458 -18.2923 40.3941 5.52458 -18.1644 48.891 5.52458 -16.795 
57.388 5.52458 -12.8136 -44.575 14.0215 -15.4277 -36.0781 14.0215 -16.3752 
-27.5812 14.0215 -15.5477 -19.0843 14.0215 -14.4045 -10.5873 14.0215 -13.9024 
-2.09043 14.0215 -17.811 6.40648 14.0215 -17.2068 14.9034 14.0215 -17.482 
23.4003 14.0215 -19.1142 31.8972 14.0215 -19.2878 40.3941 14.0215 -18.9001 
48.891 14.0215 -17.1981 57.388 14.0215 -12.4003 -53.0719 22.5184 -13.0423 
-44.575 22.5184 -16.4872 -36.0781 22.5184 -16.2237 -27.5812 22.5184 -16.3714 
-19.0843 22.5184 -16.4415 -10.5873 22.5184 -16.4334 -2.09043 22.5184 -17.0431 
6.40648 22.5184 -17.7916 14.9034 22.5184 -18.7075 23.4003 22.5184 -19.3304 
31.8972 22.5184 -19.673 40.3941 22.5184 -19.5003 48.891 22.5184 -16.2754 
57.388 22.5184 -12.3291 -44.575 31.0153 -14.5523 -36.0781 31.0153 -15.997 
-27.5812 31.0153 -18.3326 -19.0843 31.0153 -17.4244 -10.5873 31.0153 -18.0513 
-2.09043 31.0153 -17.9 6.40648 31.0153 -18.3654 14.9034 31.0153 -19.2448 
23.4003 31.0153 -18.8914 31.8972 31.0153 -19.33 40.3941 31.0153 -17.2741 
48.891 31.0153 -13.5027 -44.575 39.5122 -13.3301 -36.0781 39.5122 -17.4725 
-27.5812 39.5122 -16.4787 -19.0843 39.5122 -18.0395 -10.5873 39.5122 -17.8041 
-2.09043 39.5122 -17.6947 6.40648 39.5122 -17.846 14.9034 39.5122 -18.9943 
23.4003 39.5122 -17.263 31.8972 39.5122 -15.9545 40.3941 39.5122 -12.4741 
-36.0781 48.0091 -12.9868 -27.5812 48.0091 -14.5418 -19.0843 48.0091 -15.4235 
-10.5873 48.0091 -15.9981 -2.09043 48.0091 -16.1659 6.40648 48.0091 -15.8604 
14.9034 48.0091 -14.5742 23.4003 48.0091 -12.9457 -19.0843 -46.2713 -11.7958 
-19.0843 -53.9538 -7.12591 -10.5873 -47.0116 -11.7958 -10.5873 -53.9538 -8.01847 
-2.09043 -46.65 -11.7958 -2.09043 -53.9538 -7.94643 6.40648 -46.2286 -11.7958 
6.40648 -53.9538 -8.2708 14.9034 -53.9538 -6.91125 -36.0781 -45.4569 -5.81955 
-21.1648 -45.4569 -11.7958 -27.5812 -42.8846 -11.7958 -27.5812 -45.4569 -10.2105 
11.3786 -45.4569 -11.7958 14.9034 -44.8189 -11.7958 14.9034 -45.4569 -11.5641 
23.4003 -42.12 -11.7958 23.4003 -45.4569 -9.81488 31.8972 -45.4569 -6.48299 
-34.8591 -36.96 -11.7958 -36.0781 -35.4891 -11.7958 -36.0781 -36.96 -11.1411 
30.7451 -36.96 -11.7958 31.8972 -35.6974 -11.7958 31.8972 -36.96 -11.3356 
40.3941 -36.96 -7.12577 -40.5827 -28.4631 -11.7958 -44.575 -28.4631 -8.43961 
38.7722 -28.4631 -11.7958 40.3941 -27.1584 -11.7958 40.3941 -28.4631 -11.1585 
48.891 -28.4631 -5.37107 -43.0037 -19.9662 -11.7958 -44.575 -16.1712 -11.7958 
-44.575 -19.9662 -10.9738 46.2991 -19.9662 -11.7958 48.891 -16.4134 -11.7958 
48.891 -19.9662 -10.1433 -46.2904 -11.4692 -11.7958 -53.0719 -11.4692 -7.0194 
53.286 -11.4692 -11.7958 57.388 -11.4692 -9.12303 -52.2743 -2.97233 -11.7958 
-53.0719 -2.97233 -11.308 57.1255 -2.97233 -11.7958 57.388 -1.64044 -11.7958 
57.388 -2.97233 -11.6042 -51.6622 5.52458 -11.7958 -53.0719 5.52458 -11.1693 
58.571 5.52458 -11.7958 -61.5688 14.0215 -3.59892 -52.8415 14.0215 -11.7958 
-53.0719 14.7066 -11.7958 -53.0719 14.0215 -11.6598 58.1089 14.0215 -11.7958 
-54.6532 22.5184 -11.7958 -53.0719 26.9978 -11.7958 57.9748 22.5184 -11.7958 
57.388 23.5886 -11.7958 -49.8899 31.0153 -11.7958 -53.0719 31.0153 -9.56726 
51.2015 31.0153 -11.7958 48.891 33.6519 -11.7958 -46.9548 39.5122 -11.7958 
-44.575 42.4281 -11.7958 31.8972 46.1044 -11.7958 41.6214 39.5122 -11.7958 
40.3941 40.2581 -11.7958 -38.3937 48.0091 -11.7958 -36.0781 49.4911 -11.7958 
-27.5812 51.4681 -11.7958 -19.0843 54.4497 -11.7958 -10.5873 55.8812 -11.7958 
-2.09043 55.269 -11.7958 6.40648 54.2986 -11.7958 14.9034 51.9353 -11.7958 
26.883 48.0091 -11.7958 23.4003 49.0667 -11.7958 31.8972 48.0091 -7.05294 
-10.5873 56.5061 -7.97414 -2.09043 56.5061 -5.91148 -19.0843 -57.4929 -3.29889 
-10.5873 -58.5521 -3.29889 -2.09043 -58.6628 -3.29889 6.40648 -58.767 -3.29889 
14.9034 -56.9659 -3.29889 -36.0781 -47.7021 -3.29889 -27.3741 -53.9538 -3.29889 
-27.5812 -53.8335 -3.29889 -27.5812 -53.9538 -2.89675 21.871 -53.9538 -3.29889 
23.4003 -53.0718 -3.29889 23.4003 -53.9538 -0.524236 31.8972 -48.0866 -3.29889 
-38.2269 -45.4569 -3.29889 35.1469 -45.4569 -3.29889 40.3941 -40.3732 -3.29889 
-44.2393 -36.96 -3.29889 -44.575 -36.36 -3.29889 -44.575 -36.96 -0.305657 
43.5656 -36.96 -3.29889 48.891 -30.4372 -3.29889 -48.1949 -28.4631 -3.29889 
50.4294 -28.4631 -3.29889 -51.6802 -19.9662 -3.29889 -53.0719 -17.213 -3.29889 
56.7824 -19.9662 -3.29889 57.388 -19.1083 -3.29889 -55.8167 -11.4692 -3.29889 
61.4254 -11.4692 -3.29889 -58.5429 -2.97233 -3.29889 64.0248 -2.97233 -3.29889 
-61.0793 5.52458 -3.29889 -61.5688 11.494 -3.29889 65.5213 5.52458 -3.29889 
-61.7414 14.0215 -3.29889 -61.5688 14.9464 -3.29889 -61.5688 14.0215 -1.40738 
64.2329 14.0215 -3.29889 -60.156 22.5184 -3.29889 61.8807 22.5184 -3.29889 
57.388 30.1095 -3.29889 -56.8143 31.0153 -3.29889 -53.0719 37.8546 -3.29889 
56.7737 31.0153 -3.29889 48.891 39.4423 -3.29889 -51.9513 39.5122 -3.29889 
-44.575 47.4856 -3.29889 48.801 39.5122 -3.29889 40.3941 44.845 -3.29889 
-43.814 48.0091 -3.29889 -36.0781 52.0005 -3.29889 -36.0781 48.0091 4.06834 
-27.5812 54.8598 -3.29889 -19.0843 56.3721 -3.29889 6.40648 56.2859 -3.29889 
14.9034 54.809 -3.29889 23.4003 52.2817 -3.29889 34.0104 48.0091 -3.29889 
31.8972 48.9808 -3.29889 31.8972 48.0091 -0.571751 -17.3589 56.5061 -3.29889 
-10.5873 56.9385 -3.29889 -10.5873 56.5061 -2.39714 3.35977 56.5061 -3.29889 
-2.09043 56.8518 -3.29889 -2.09043 56.5061 -2.57985 -27.5812 -55.8265 5.19803 
-19.0843 -59.8178 5.19803 -10.5873 -62.2946 5.19803 -2.09043 -62.4117 5.19803 
6.40648 -61.5256 5.19803 14.9034 -58.6706 5.19803 23.4003 -55.3334 5.19803 
-30.3074 -53.9538 5.19803 -36.0781 -49.2851 5.19803 -27.5812 -53.9538 9.36574 
-19.0843 -53.9538 13.6201 14.9034 -53.9538 11.4204 25.4696 -53.9538 5.19803 
23.4003 -53.9538 7.67325 31.8972 -48.1579 5.19803 -39.5168 -45.4569 5.19803 
-44.575 -37.7923 5.19803 -36.0781 -45.4569 9.63081 23.4003 -45.4569 13.4515 
34.8177 -45.4569 5.19803 31.8972 -45.4569 7.78437 40.3941 -38.7549 5.19803 
-45.0969 -36.96 5.19803 -44.575 -36.96 6.29191 31.8972 -36.96 12.7631 
41.8748 -36.96 5.19803 40.3941 -36.96 7.31504 48.891 -30.1026 5.19803 
-48.9149 -28.4631 5.19803 -44.575 -28.4631 11.8073 40.3941 -28.4631 11.0811 
50.2096 -28.4631 5.19803 48.891 -28.4631 6.71629 -52.9187 -19.9662 5.19803 
-53.0719 -19.5935 5.19803 55.5132 -19.9662 5.19803 48.891 -19.9662 9.50007 
57.388 -16.3759 5.19803 -56.3843 -11.4692 5.19803 -53.0719 -11.4692 9.72791 
48.891 -11.4692 12.4999 59.3727 -11.4692 5.19803 57.388 -11.4692 7.53606 
-59.1628 -2.97233 5.19803 -53.0719 -2.97233 12.7011 62.2057 -2.97233 5.19803 
57.388 -2.97233 10.7849 -61.1983 5.52458 5.19803 -53.0719 5.52458 13.5827 
63.4463 5.52458 5.19803 57.388 5.52458 12.0654 -60.7966 14.0215 5.19803 
-53.0719 14.0215 12.3095 61.5075 14.0215 5.19803 57.388 14.0215 9.80448 
-58.5259 22.5184 5.19803 -53.0719 22.5184 10.0534 48.891 22.5184 12.1459 
59.387 22.5184 5.19803 57.388 26.0546 5.19803 57.388 22.5184 7.38721 
-54.4 31.0153 5.19803 -53.0719 32.9263 5.19803 -53.0719 31.0153 6.6028 
-44.575 31.0153 10.6978 -36.0781 31.0153 13.0917 -27.5812 31.0153 13.5089 
40.3941 31.0153 12.3329 52.9339 31.0153 5.19803 48.891 35.1048 5.19803 
48.891 31.0153 8.50636 -47.4179 39.5122 5.19803 -44.575 42.0763 5.19803 
-44.575 39.5122 7.23906 -36.0781 46.7986 5.19803 -36.0781 39.5122 9.7773 
-27.5812 39.5122 10.7614 -19.0843 39.5122 11.0465 -10.5873 39.5122 11.5509 
-2.09043 39.5122 12.0135 6.40648 39.5122 12.1733 14.9034 39.5122 11.7019 
23.4003 39.5122 11.206 31.8972 45.3112 5.19803 31.8972 39.5122 9.86313 
44.4324 39.5122 5.19803 40.3941 42.0047 5.19803 40.3941 39.5122 7.80494 
-34.2887 48.0091 5.19803 -27.5812 50.2752 5.19803 -27.5812 48.0091 7.24245 
-19.0843 49.7036 5.19803 -19.0843 48.0091 6.671 -10.5873 50.5508 5.19803 
-10.5873 48.0091 7.22968 -2.09043 50.6714 5.19803 -2.09043 48.0091 7.4706 
6.40648 50.3591 5.19803 6.40648 48.0091 7.30885 14.9034 49.2426 5.19803 
14.9034 48.0091 6.41384 25.9226 48.0091 5.19803 23.4003 48.9022 5.19803 
23.4003 48.0091 6.19834 -10.5873 -56.9117 13.6949 -2.09043 -57.4739 13.6949 
6.40648 -55.1534 13.6949 -27.5812 -50.1252 13.6949 -18.8152 -53.9538 13.6949 
-19.0843 -53.8233 13.6949 -10.5873 -53.9538 15.8216 -2.09043 -53.9538 15.4971 
[...]
POINT_DATA 524
SCALARS ImageScalars float
LOOKUP_TABLE default
0 0 0 0 0 0 0 0 0 
0 0 0 0 0 0 0 0 0 
0 0 0 0 0 0 0 0 0 
0 0 0 0 0 0 0 0 0 
0 0 0 0 0 0 0 0 0 
0 0 0 0 0 0 0 0 0 
0 0 0 0 0 0 0 0 0 
0 0 0 0 0 0 0 0 0 
0 0 0 0 0 0 0 0 0 
0 0 0 0 0 0 0 0 0 
0 0 0 0 0 0 0 0 0 
0 0 0 0 0 0 0 0 0 
0 0 0 0 0 0 0 0 0 
0 0 0 0 0 0 0 0 0 
0 0 0 0 0 0 0 0 0 
0 0 0 0 0 0 0 0 0 
0 0 0 0 0 0 0 0 0 
0 0 0 0 0 0 0 0 0 
0 0 0 0 0 0 0 0 0 
0 0 0 0 0 0 0 0 0 
0 0 0 0 0 0 0 0 0 
0 0 0 0 0 0 0 0 0 
0 0 0 0 0 0 0 0 0 
0 0 0 0 0 0 0 0 0 
0 0 0 0 0 0 0 0 0 
0 0 0 0 0 0 0 0 0 
0 0 0 0 0 0 0 0 0 
0 0 0 0 0 0 0 0 0 
0 0 0 0 0 0 0 0 0 
0 0 0 0 0 0 0 0 0 
0 0 0 0 0 0 0 0 0 
0 0 0 0 0 0 0 0 0 
0 0 0 0 0 0 0 0 0 
0 0 0 0 0 0 0 0 0 
0 0 0 0 0 0 0 0 0 
0 0 0 0 0 0 0 0 0 
0 0 0 0 0 0 0 0 0 
0 0 0 0 0 0 0 0 0 
0 0 0 0 0 0 0 0 0 
0 0 0 0 0 0 0 0 0 
0 0 0 0 0 0 0 0 0 
0 0 0 0 0 0 0 0 0 
0 0 0 0 0 0 0 0 0 
0 0 0 0 0 0 0 0 0 
0 0 0 0 0 0 0 0 0 
0 0 0 0 0 0 0 0 0 
0 0 0 0 0 0 0 0 0 
0 0 0 0 0 0 0 0 0 
0 0 0 0 0 0 0 0 0 
0 0 0 0 0 0 0 0 0 
0 0 0 0 0 0 0 0 0 
0 0 0 0 0 0 0 0 0 
0 0 0 0 0 0 0 0 0 
0 0 0 0 0 0 0 0 0 
0 0 0 0 0 0 0 0 0 
0 0 0 0 0 0 0 0 0 
0 0 0 0 0 0 0 0 0 
0 0 0 0 0 0 0 0 0 
0 0 
NORMALS Normals float
0.107983 0.412977 0.904317 0.000455723 0.352959 0.935639 -0.0165371 0.346292 0.937981 
-0.0400034 0.367381 0.92921 0.187839 0.318475 0.929134 0.0250821 0.242734 0.969769 
-0.0164147 0.226772 0.97381 -0.0137112 0.230413 0.972996 -0.0133334 0.237033 0.97141 
-0.0380743 0.246792 0.96832 -0.156588 0.296368 0.94215 0.375737 0.170172 0.910968 
0.159368 0.120835 0.979796 -0.000637491 0.0981454 0.995172 -0.0225607 0.10118 0.994612 
-0.00791465 0.193121 0.981143 -0.0127745 0.147953 0.988912 -0.0486176 0.111622 0.992561 
-0.118065 0.120071 0.98572 -0.230567 0.232755 0.944809 0.29538 0.0701946 0.952798 
0.121646 -0.0162706 0.99244 0.0114948 -0.0417945 0.99906 0.0784058 -0.0421394 0.996031 
0.0350487 0.100403 0.994329 -0.0999959 0.0659863 0.992797 -0.0725694 -0.0176274 0.997208 
-0.0363474 0.032941 0.998796 -0.107654 0.126253 0.986139 -0.275114 0.218844 0.936173 
0.387834 0.184398 0.903096 0.190215 0.0583043 0.98001 0.043041 -0.0511024 0.997766 
-0.0263401 -0.0629306 0.99767 0.108949 0.0691658 0.991638 0.105982 -0.164585 0.980653 
-0.133078 0.03687 0.99042 -0.0738688 -0.0150985 0.997154 0.0238111 0.0193414 0.999529 
-0.027681 0.0843768 0.996049 -0.124996 0.168259 0.977786 -0.317002 0.299566 0.899872 
0.254943 0.0880593 0.962938 0.0914921 0.0336731 0.995236 0.00594456 -0.0561693 0.998404 
0.133889 -0.138663 0.981247 -0.0117518 0.106514 0.994242 -0.00475276 0.0427727 0.999074 
0.0514795 0.03968 0.997885 -0.0862925 0.0449326 0.995256 0.06248 0.0801548 0.994822 
0.0363827 0.114154 0.992797 -0.0935414 0.138954 0.985871 -0.279834 0.139965 0.949791 
0.253518 0.0754725 0.964382 0.0498792 0.0379352 0.998035 -0.135119 -0.0139323 0.990731 
-0.0551708 -0.0875148 0.994634 0.391325 -0.325549 0.860745 0.0152907 0.165538 0.986085 
-0.147916 -0.0526189 0.987599 -0.037193 0.0673621 0.997035 0.0936724 0.147138 0.98467 
0.0349926 0.110192 0.993294 -0.0845348 0.104481 0.990928 -0.253199 0.0845532 0.963712 
-0.578368 0.0436602 0.814607 0.23232 0.100694 0.967413 0.0151305 0.0197184 0.999691 
-0.113551 0.0601742 0.991708 -0.096366 0.145165 0.984703 0.179589 0.124498 0.975832 
0.216803 -0.137169 0.96653 -0.0149622 -0.0249206 0.999577 0.107584 0.116163 0.987386 
0.107999 0.105199 0.988569 -0.013473 0.0829634 0.996462 -0.127009 0.0746623 0.989088 
-0.314155 -0.0283458 0.948949 -0.629728 -0.0217374 0.776511 0.530367 -0.069236 0.844936 
0.206019 -0.0107177 0.978489 -0.00409801 -0.0221218 0.999747 0.0120915 0.157994 0.987366 
0.00381549 0.184512 0.982823 0.0352532 0.2409 0.969909 0.0801029 0.011574 0.996719 
0.0947735 0.0678585 0.993183 0.0917529 0.10442 0.990292 0.0547962 -0.013352 0.998408 
0.0110528 0.00472885 0.999928 -0.20497 -0.104037 0.973223 -0.381263 -0.175539 0.907648 
-0.661313 -0.238809 0.711081 0.355904 -0.192177 0.914549 0.187129 0.0476766 0.981178 
0.084587 0.0103928 0.996362 -0.0145821 0.0844979 0.996317 0.0278602 0.0790554 0.996481 
0.0184953 0.0382075 0.999099 0.0779929 0.00352337 0.996948 0.0318817 0.0177563 0.999334 
0.00255446 -0.112555 0.993642 -0.0957851 -0.206171 0.973817 -0.264308 -0.307493 0.914106 
-0.530769 -0.420432 0.735881 0.48442 -0.323808 0.812703 0.20828 -0.17813 0.961712 
0.044835 -0.199562 0.978859 0.0788523 -0.134788 0.987732 -0.0185997 -0.122271 0.992322 
0.00169635 -0.106781 0.994281 0.0678212 -0.149736 0.986397 -0.0226446 -0.253537 0.967061 
-0.175038 -0.293001 0.939953 -0.214716 -0.447701 0.868021 -0.4131 -0.638658 0.649203 
0.343008 -0.596638 0.725513 0.175375 -0.50975 0.842258 0.0818982 -0.430763 0.898741 
0.0497413 -0.380035 0.923634 -0.00846817 -0.374105 0.927348 -0.0996813 -0.424553 0.899899 
-0.152014 -0.556327 0.816941 -0.243108 -0.692789 0.678927 0.117249 0.424331 0.897884 
0.202823 0.669516 0.714571 0.014604 0.39223 0.919751 0.043084 0.625054 0.779392 
-0.0186107 0.358568 0.933318 0.015126 0.558244 0.829539 -0.0429533 0.372513 0.927032 
-0.051422 0.550058 0.833542 -0.265927 0.683805 0.679481 0.588446 0.614117 0.525919 
0.14254 0.441774 0.88573 0.23472 0.461322 0.855621 0.28043 0.543105 0.791452 
-0.084981 0.380318 0.920943 -0.10801 0.378872 0.919125 -0.116881 0.394064 0.911621 
-0.189426 0.446859 0.874319 -0.238638 0.568834 0.78707 -0.503302 0.679085 0.534351 
0.435188 0.364476 0.823267 0.457958 0.337059 0.822597 0.489146 0.379597 0.785266 
-0.307366 0.353739 0.883399 -0.317895 0.341458 0.884505 -0.340526 0.371928 0.863546 
-0.62192 0.58375 0.521969 0.517687 0.222308 0.826183 0.725519 0.30415 0.617345 
-0.342957 0.334282 0.877859 -0.353595 0.337337 0.872453 -0.387633 0.371348 0.843707 
-0.715046 0.55668 0.422867 0.487457 0.154337 0.859398 0.46756 0.185803 0.864213 
0.553086 0.191197 0.810888 -0.426547 0.302608 0.852342 -0.416938 0.331579 0.846297 
-0.534956 0.381323 0.753933 0.438413 0.224908 0.870178 0.748768 0.350263 0.562727 
-0.45275 0.313717 0.834625 -0.689666 0.342119 0.638213 0.548843 0.147252 0.822854 
0.593473 0.158368 0.789119 -0.588257 0.143139 0.795905 -0.596711 0.126793 0.792376 
-0.604772 0.144499 0.78318 0.450009 0.0233689 0.892718 0.510181 0.0212925 0.859803 
-0.620432 0.039653 0.783257 0.961281 -0.061556 0.268608 0.503955 0.106256 0.857169 
0.51429 0.093451 0.85251 0.515867 0.106446 0.85003 -0.655971 -0.0239401 0.754407 
0.597263 -0.0849233 0.797536 0.564513 -0.19795 0.801337 -0.693504 -0.245694 0.677264 
-0.680448 -0.277882 0.678065 0.498172 -0.263982 0.825916 0.677076 -0.378105 0.631351 
-0.597444 -0.469447 0.650138 -0.560166 -0.512276 0.65099 0.598374 -0.370836 0.710231 
0.54326 -0.440515 0.714713 -0.335416 -0.723745 0.603067 -0.440546 -0.652281 0.616805 
-0.428765 -0.662709 0.613984 0.411022 -0.631996 0.656995 0.357661 -0.686383 0.633211 
0.231489 -0.684545 0.691239 0.171417 -0.778325 0.604008 0.0303465 -0.836038 0.547832 
-0.0643337 -0.82692 0.558627 -0.144687 -0.801189 0.580657 -0.239968 -0.727605 0.642656 
-0.298619 -0.747954 0.592782 -0.271962 -0.744379 0.609866 -0.392168 -0.895597 0.210022 
0.0305367 -0.978978 0.201667 -0.0503979 -0.99842 0.0248344 0.24108 0.835482 0.493812 
0.0698523 0.768574 0.635936 0.0122083 0.803539 0.595127 -0.109705 0.842803 0.526924 
-0.306885 0.842423 0.442882 0.628864 0.674778 0.386269 0.451057 0.769116 0.452778 
0.456718 0.766588 0.451389 0.464066 0.776202 0.426794 -0.417823 0.784655 0.457974 
-0.435758 0.773897 0.459563 -0.484541 0.831484 0.271762 -0.548876 0.76442 0.338225 
0.681621 0.631106 0.370268 -0.613278 0.724616 0.314359 -0.696329 0.670883 0.255034 
0.806277 0.486696 0.33622 0.813061 0.478065 0.332242 0.851341 0.500396 0.157551 
-0.725854 0.645393 0.237918 -0.75335 0.595025 0.280015 0.866931 0.372222 0.331483 
-0.759007 0.587014 0.281644 0.848176 0.386553 0.362179 0.854783 0.384109 0.349009 
-0.794722 0.552414 0.251509 -0.808419 0.537216 0.240535 0.866401 0.359171 0.346908 
-0.901717 0.388056 0.190574 0.89834 0.285126 0.334198 -0.950725 0.233755 0.203669 
0.934106 0.162709 0.317759 0.962365 0.0056445 0.271702 -0.98241 0.00532676 0.186662 
0.966339 -0.0619757 0.249697 0.964898 -0.0848361 0.248546 0.989936 -0.0776762 0.118292 
-0.973728 -0.191419 0.123337 0.94496 -0.256207 0.203494 -0.906129 -0.417131 0.070233 
-0.817434 -0.572866 0.060223 0.88618 -0.44565 0.126813 0.816389 -0.575608 0.0467505 
-0.804361 -0.591275 0.0582909 -0.635204 -0.771797 0.0290715 0.792272 -0.609688 0.0241909 
0.619272 -0.782143 -0.0689499 -0.633115 -0.773493 0.0295659 -0.49327 -0.869331 0.0308029 
0.600701 -0.795763 -0.076937 0.415577 -0.902557 -0.112638 0.3896 -0.669585 -0.632351 
0.22827 -0.96552 -0.125157 0.12755 -0.97133 -0.200619 -0.121707 -0.97919 -0.162405 
-0.222878 -0.96712 -0.122491 -0.326082 -0.94457 -0.0381775 -0.415857 -0.90874 -0.0354228 
-0.392379 -0.918729 -0.0444503 -0.387289 -0.899214 -0.203524 0.108006 -0.973493 -0.201611 
0.0282751 -0.978967 -0.20205 0.0300168 -0.966001 -0.256791 -0.0925109 -0.981172 -0.169539 
-0.0383195 -0.983767 -0.175309 -0.0382118 -0.973074 -0.227302 0.528594 0.843704 -0.0935505 
0.345755 0.934555 -0.0840223 0.150655 0.98857 -0.00566696 -0.0416785 0.999119 0.00485463 
-0.216567 0.973871 -0.0683657 -0.35496 0.921615 -0.156938 -0.499737 0.853303 -0.148781 
0.57789 0.809244 -0.105678 0.691841 0.695872 -0.192663 0.493363 0.775938 -0.393083 
0.220298 0.567129 -0.793621 -0.295095 0.654328 -0.696257 -0.552565 0.816219 -0.168697 
-0.501655 0.794427 -0.342385 -0.640439 0.691535 -0.334092 0.768398 0.609658 -0.19463 
0.852894 0.495376 -0.164849 0.64794 0.579649 -0.494146 -0.37632 0.309788 -0.873164 
-0.664169 0.656331 -0.357923 -0.601237 0.610502 -0.515559 -0.731189 0.599146 -0.326171 
0.85871 0.483873 -0.168773 0.848374 0.475523 -0.23268 -0.343586 0.318528 -0.883452 
-0.729402 0.596496 -0.334912 -0.699817 0.539445 -0.468248 -0.732237 0.562577 -0.383843 
0.891547 0.406389 -0.199978 0.693204 0.320278 -0.64567 -0.406501 0.287909 -0.867102 
-0.745944 0.544201 -0.383942 -0.70276 0.509399 -0.49663 0.908471 0.387198 -0.157349 
0.90825 0.385893 -0.161768 -0.758734 0.458451 -0.462759 -0.52611 0.307725 -0.792789 
-0.788125 0.412641 -0.456712 0.899461 0.352165 -0.258747 0.792358 0.27856 -0.542746 
-0.33066 0.274723 -0.902879 -0.802574 0.336543 -0.492559 -0.716329 0.318029 -0.621072 
0.935605 0.256482 -0.24261 0.644149 0.174102 -0.744823 -0.836701 0.210884 -0.50543 
-0.616045 0.181681 -0.766473 0.951345 0.0902958 -0.294601 0.561799 -0.0284468 -0.826785 
-0.845033 -0.036834 -0.533444 -0.580305 -0.0421675 -0.813307 0.912753 -0.125374 -0.388797 
0.553095 -0.181507 -0.813106 -0.802415 -0.213363 -0.557321 -0.63431 -0.20536 -0.745304 
0.813242 -0.324284 -0.483195 0.572224 -0.290323 -0.766989 -0.382582 -0.248849 -0.889778 
-0.776086 -0.35118 -0.523797 -0.728328 -0.446709 -0.519605 -0.693959 -0.342271 -0.63346 
0.692454 -0.483814 -0.535192 0.664737 -0.510665 -0.545295 0.638555 -0.473103 -0.606977 
0.328448 -0.390411 -0.860059 0.155382 -0.328279 -0.931713 0.0327707 -0.316615 -0.947988 
-0.264786 -0.365475 -0.892366 -0.634508 -0.562205 -0.530402 -0.588025 -0.606624 -0.535009 
-0.521377 -0.49516 -0.69497 0.519853 -0.57179 -0.634672 0.450541 -0.609265 -0.65254 
0.431506 -0.538439 -0.723799 0.357717 -0.607525 -0.709191 0.20809 -0.471502 -0.856962 
0.0561157 -0.366171 -0.928854 0.0457464 -0.355011 -0.933742 0.0511858 -0.337508 -0.93993 
0.0328643 -0.362027 -0.931588 -0.015977 -0.363157 -0.931591 -0.0521297 -0.392279 -0.918368 
-0.0986734 -0.417361 -0.903368 -0.303855 -0.73932 -0.600898 -0.172139 -0.559724 -0.810603 
-0.491091 -0.694497 -0.525836 -0.398355 -0.748335 -0.530385 -0.355089 -0.661634 -0.660418 
0.313928 -0.633402 -0.707284 0.120819 -0.705716 -0.698117 0.116478 -0.592872 -0.796829 
0.000129827 -0.660255 -0.751042 -0.00933387 -0.579141 -0.815174 0.0391984 -0.653135 -0.756226 
0.037236 -0.571553 -0.81972 -0.00849075 -0.648154 -0.761461 0.00401734 -0.590501 -0.807027 
-0.064096 -0.667991 -0.741404 -0.0478266 -0.616829 -0.785642 -0.0657859 -0.689523 -0.72127 
-0.0514906 -0.656744 -0.752353 -0.221359 -0.773989 -0.593247 -0.180825 -0.779142 -0.6002 
-0.171368 -0.7347 -0.656391 0.140516 0.605715 -0.783176 -0.0632606 0.584231 -0.809118 
-0.22639 0.559852 -0.797066 0.376745 0.520155 -0.766487 0.215464 0.560991 -0.79929 
0.216875 0.558824 -0.800425 0.0862513 0.502487 -0.860271 -0.0495023 0.417476 -0.907339 
-0.234097 0.525984 -0.817642 -0.21131 0.519947 -0.827649 -0.241981 0.437086 -0.866257 
0.432409 0.418492 -0.798678 0.47604 0.413979 -0.775891 0.312207 0.345684 -0.88489 
0.157653 0.257723 -0.95327 0.0841383 0.165324 -0.982644 -0.0418687 0.230108 -0.972264 
-0.159368 0.198684 -0.967019 -0.356635 0.301625 -0.884214 -0.230637 0.291773 -0.928265 
-0.36043 0.286181 -0.887801 0.530494 0.362596 -0.766224 0.424271 0.342708 -0.83818 
0.204716 0.235539 -0.950059 0.0449579 0.143995 -0.988557 0.0143334 0.0478755 -0.99875 
-0.0270645 0.0157253 -0.99951 -0.0884601 0.0637365 -0.994038 -0.16412 0.134815 -0.977185 
-0.292884 0.250963 -0.922625 -0.251993 0.157271 -0.954864 -0.293047 0.178581 -0.939272 
0.571558 0.268088 -0.775532 0.5869 0.248768 -0.770495 0.383108 0.189167 -0.904126 
0.119932 0.0816258 -0.989421 -0.0164556 0.0564073 -0.998272 -0.0518092 -0.00745706 -0.998629 
-0.0258827 -0.0419989 -0.998782 -0.0395252 0.0243925 -0.998921 -0.135763 0.0105134 -0.990686 
-0.241103 0.00967634 -0.970451 -0.294122 0.134975 -0.946189 -0.284466 0.118996 -0.951272 
-0.292627 0.194169 -0.936305 0.609275 0.21585 -0.763016 0.503837 0.193049 -0.841951 
0.240658 0.0598983 -0.96876 0.0788512 -0.0103184 -0.996833 -0.0471883 -0.0460917 -0.997822 
-0.0847971 0.0248751 -0.996088 0.00444918 0.0661945 -0.997797 -0.0330167 0.0458231 -0.998404 
-0.190037 -0.0796857 -0.978538 -0.155109 -0.0578479 -0.986202 -0.117897 0.060342 -0.991191 
-0.300464 0.19626 -0.933383 -0.281734 0.187494 -0.940995 0.556636 0.148242 -0.817423 
0.412661 0.109645 -0.904261 0.172033 0.0348771 -0.984474 0.016227 -0.0351649 -0.99925 
0.0174076 -0.0800938 -0.996635 0.0663657 0.0608452 -0.995938 -0.00748125 0.0671205 -0.997717 
-0.174464 -0.0669055 -0.982388 -0.260099 0.0488622 -0.964345 -0.0907768 0.0434998 -0.994921 
-0.0405523 0.084232 -0.995621 -0.21978 0.186759 -0.957506 -0.143503 0.122522 -0.982036 
-0.267339 0.192401 -0.944199 0.557753 0.146815 -0.816919 0.3078 0.0748156 -0.948505 
0.102957 0.031937 -0.994173 -0.0408609 0.0014391 -0.999164 0.0417298 -0.00251856 -0.999126 
0.0661975 -0.033936 -0.997229 -0.150058 0.01988 -0.988477 -0.022763 0.0281632 -0.999344 
-0.0701672 0.191305 -0.979019 -0.11833 0.15913 -0.980141 -0.036211 0.144307 -0.98887 
-0.132202 0.121957 -0.983692 -0.323598 0.154397 -0.933513 -0.251506 0.143209 -0.957202 
0.551348 -0.0298416 -0.833742 0.27522 -0.0572778 -0.959674 0.102221 -0.053637 -0.993315 
-0.0179449 -0.0467224 -0.998747 -0.0153111 -0.0370777 -0.999195 0.0844329 -0.190937 -0.977964 
0.0552949 0.00661993 -0.998448 -0.0239282 0.0179431 -0.999553 -0.13287 -0.154931 -0.978949 
-0.133863 0.0157789 -0.990874 -0.0729354 0.0361381 -0.996682 -0.147508 0.0126155 -0.98898 
-0.418929 -0.0312151 -0.907483 -0.244731 -0.00338462 -0.969585 0.447818 -0.178249 -0.876177 
0.297724 -0.183628 -0.936825 0.118368 -0.181325 -0.976274 -0.0247324 -0.18893 -0.981679 
-0.0982647 -0.192056 -0.976452 0.099521 -0.196793 -0.975381 0.0858581 -0.17096 -0.98153 
-0.200797 -0.221447 -0.954276 -0.0325882 -0.256453 -0.966007 0.0470171 -0.118769 -0.991808 
-0.0419408 -0.0682924 -0.996783 -0.169098 -0.104734 -0.980019 -0.349523 -0.184157 -0.918651 
-0.326585 -0.188021 -0.926278 -0.318475 -0.174175 -0.931792 0.33918 -0.292197 -0.894191 
0.308272 -0.312608 -0.898468 0.303939 -0.293266 -0.906431 0.141704 -0.314907 -0.938485 
0.106318 -0.280217 -0.954031 0.0282704 -0.313872 -0.949044 -0.0169982 -0.273046 -0.961851 
-0.02772 -0.225577 -0.973831 0.105387 -0.163663 -0.980871 0.0585355 -0.265212 -0.962412 
-0.134119 -0.175468 -0.975307 -0.0293975 -0.103778 -0.994166 0.0570728 -0.160777 -0.985339 
-0.0593937 -0.172182 -0.983273 -0.289163 -0.222906 -0.930966 -0.238463 -0.283729 -0.92878 
-0.225974 -0.215254 -0.950053 0.0289315 -0.265981 -0.963544 0.0289509 -0.260645 -0.965001 
0.0285396 -0.26002 -0.965181 0.0617643 -0.237792 -0.96935 0.0629186 -0.226856 -0.971894 
0.0401965 -0.322258 -0.945798 0.0434108 -0.308994 -0.950073 -0.0121565 -0.280788 -0.959693 
-0.0147184 -0.238549 -0.971019 -0.0441511 -0.258152 -0.965095 -0.0320815 -0.199586 -0.979355 
-0.0204314 -0.299719 -0.953809 -0.00663856 -0.278489 -0.960416 -0.155655 -0.346783 -0.924939 
-0.106127 -0.379048 -0.919271 -0.0960665 -0.337207 -0.936516 
