# vtk DataFile Version 4.2
vtk output
ASCII
DATASET POLYDATA
POINTS 544 float
-4.24202 -37.2803 -19.5698 3.69236 -37.2803 -19.5086 -20.1108 -45.2147 -12.8217 
-12.1764 -45.2147 -15.8074 -4.24202 -38.4511 -19.2812 -4.24202 -45.2147 -17.4137 
3.69236 -38.1931 -19.2812 3.69236 -45.2147 -17.3521 11.6268 -45.2147 -16.184 
19.5611 -45.2147 -13.3415 -35.9796 -37.2803 -11.799 -28.0452 -37.2803 -15.5326 
-20.1108 -37.2803 -18.2744 -6.59539 -37.2803 -19.2812 -12.1764 -37.2803 -18.6018 
-4.24202 -31.8194 -19.2812 5.73843 -37.2803 -19.2812 3.69236 -29.5113 -19.2812 
11.6268 -37.2803 -18.6292 19.5611 -37.2803 -17.6802 27.4955 -37.2803 -14.8586 
-35.9796 -29.3459 -16.1213 -28.0452 -29.3459 -17.78 -20.1108 -29.3459 -18.7613 
-12.1764 -29.3459 -18.7414 -4.24202 -29.3459 -19.1538 3.69236 -29.3459 -19.2765 
11.6268 -29.3459 -19.0079 19.5611 -29.3459 -18.6161 27.4955 -29.3459 -17.1916 
35.4299 -29.3459 -13.8923 -43.914 -21.4115 -14.7696 -35.9796 -21.4115 -18.0145 
-28.0452 -21.4115 -18.496 -20.1108 -21.4115 -18.1135 -12.1764 -21.4115 -17.5699 
-4.24202 -21.4115 -17.3904 3.69236 -21.4115 -17.6466 11.6268 -21.4115 -18.0803 
19.5611 -21.4115 -18.1018 27.4955 -21.4115 -17.2263 35.4299 -21.4115 -15.4023 
43.3643 -21.4115 -12.0301 -51.8483 -13.4771 -11.3997 -43.914 -13.4771 -16.0774 
-35.9796 -13.4771 -17.5331 -28.0452 -13.4771 -17.7105 -20.1108 -13.4771 -16.886 
-12.1764 -13.4771 -15.8351 -4.24202 -13.4771 -14.934 3.69236 -13.4771 -15.3202 
11.6268 -13.4771 -16.8774 19.5611 -13.4771 -17.4506 27.4955 -13.4771 -17.1061 
35.4299 -13.4771 -15.8104 43.3643 -13.4771 -13.2182 -51.8483 -5.54273 -14.1214 
-43.914 -5.54273 -17.5575 -35.9796 -5.54273 -18.2049 -28.0452 -5.54273 -17.4049 
-20.1108 -5.54273 -15.4895 -12.1764 -5.54273 -13.2676 -4.24202 -5.54273 -15.5126 
3.69236 -5.54273 -14.315 11.6268 -5.54273 -16.7348 19.5611 -5.54273 -17.0164 
27.4955 -5.54273 -16.3822 35.4299 -5.54273 -15.4529 43.3643 -5.54273 -13.7881 
51.2987 -5.54273 -11.5619 -51.8483 2.39166 -15.4251 -43.914 2.39166 -19.1836 
-35.9796 2.39166 -19.1908 -28.0452 2.39166 -18.0449 -20.1108 2.39166 -15.9334 
-12.1764 2.39166 -12.921 -4.24202 2.39166 -14.2763 3.69236 2.39166 -11.9412 
11.6268 2.39166 -16.1658 19.5611 2.39166 -15.6781 27.4955 2.39166 -15.0914 
35.4299 2.39166 -14.4819 43.3643 2.39166 -12.6557 -51.8483 10.326 -15.2054 
-43.914 10.326 -18.8636 -35.9796 10.326 -18.9857 -28.0452 10.326 -17.9469 
-20.1108 10.326 -15.7272 -12.1764 10.326 -12.4168 3.69236 10.326 -14.6038 
11.6268 10.326 -14.7361 19.5611 10.326 -14.62 27.4955 10.326 -14.3557 
35.4299 10.326 -13.3568 43.3643 10.326 -11.4882 -51.8483 18.2604 -13.6477 
-43.914 18.2604 -17.168 -35.9796 18.2604 -17.8042 -28.0452 18.2604 -16.66 
-20.1108 18.2604 -14.2532 -12.1764 18.2604 -11.7419 -4.24202 18.2604 -12.4611 
3.69236 18.2604 -13.8462 11.6268 18.2604 -14.7921 19.5611 18.2604 -14.7953 
27.4955 18.2604 -14.3112 35.4299 18.2604 -12.7446 -43.914 26.1948 -13.4506 
-35.9796 26.1948 -14.5789 -28.0452 26.1948 -13.826 -20.1108 26.1948 -12.9099 
-12.1764 26.1948 -12.468 -4.24202 26.1948 -13.7528 3.69236 26.1948 -14.5832 
11.6268 26.1948 -15.1144 19.5611 26.1948 -14.7647 27.4955 26.1948 -14.0285 
35.4299 26.1948 -12.3928 -20.1108 34.1292 -12.2617 -12.1764 34.1292 -12.6564 
-4.24202 34.1292 -14.4223 3.69236 34.1292 -14.8858 11.6268 34.1292 -14.7882 
19.5611 34.1292 -13.767 27.4955 34.1292 -13.0257 -4.24202 42.0636 -12.8445 
3.69236 42.0636 -13.4105 11.6268 42.0636 -12.8347 19.5611 42.0636 -11.4601 
-20.1108 -46.5158 -11.3468 -12.1764 -49.4756 -11.3468 -4.24202 -51.3388 -11.3468 
3.69236 -51.5262 -11.3468 3.69236 -53.149 -5.79455 11.6268 -50.5296 -11.3468 
19.5611 -47.3028 -11.3468 -35.9796 -37.675 -11.3468 -23.6197 -45.2147 -11.3468 
-28.0452 -43.0759 -11.3468 24.0414 -45.2147 -11.3468 27.4955 -43.0457 -11.3468 
27.4955 -45.2147 -7.75694 -36.4931 -37.2803 -11.3468 32.9607 -37.2803 -11.3468 
35.4299 -34.2263 -11.3468 35.4299 -37.2803 -8.66882 -43.9135 -29.3459 -11.3468 
-43.914 -29.3452 -11.3468 -43.914 -29.3459 -11.3461 40.9708 -29.3459 -11.3468 
43.3643 -24.1766 -11.3468 43.3643 -29.3459 -9.26681 -48.9015 -21.4115 -11.3468 
-51.8483 -13.6305 -11.3468 -51.8483 -21.4115 -5.2155 44.5136 -21.4115 -11.3468 
51.2987 -21.4115 -5.94718 -51.8986 -13.4771 -11.3468 47.6679 -13.4771 -11.3468 
51.2987 -6.58611 -11.3468 51.2987 -13.4771 -9.12257 -54.5039 -5.54273 -11.3468 
51.5749 -5.54273 -11.3468 51.2987 -4.01265 -11.3468 -56.8825 2.39166 -11.3468 
-59.7827 2.39166 -3.84395 -4.24202 8.23626 -11.3468 47.9246 2.39166 -11.3468 
51.2987 2.39166 -10.0078 -56.8307 10.326 -11.3468 -8.12492 10.326 -11.3468 
-2.45328 10.326 -11.3468 -4.24202 13.8268 -11.3468 -4.24202 10.326 -10.4382 
43.7649 10.326 -11.3468 43.3643 11.3316 -11.3468 51.2987 10.326 -7.94808 
-54.2343 18.2604 -11.3468 -51.8483 22.7178 -11.3468 40.198 18.2604 -11.3468 
43.3643 18.2604 -10.4095 51.2987 18.2604 -7.05182 -48.1859 26.1948 -11.3468 
-51.8483 26.1948 -8 -43.914 29.0061 -11.3468 -35.9796 31.3688 -11.3468 
-28.0452 32.5324 -11.3468 39.5187 26.1948 -11.3468 35.4299 29.2811 -11.3468 
43.3643 26.1948 -10.1 -43.914 34.1292 -6.71063 -35.9796 34.1292 -9.50914 
-24.696 34.1292 -11.3468 -28.0452 34.1292 -10.763 -20.1108 37.7926 -11.3468 
-12.1764 39.5482 -11.3468 31.4506 34.1292 -11.3468 27.4955 38.9036 -11.3468 
35.4299 34.1292 -9.66756 43.3643 34.1292 -5.66287 -28.0452 42.0636 -6.32383 
-20.1108 42.0636 -9.88345 -9.98728 42.0636 -11.3468 -12.1764 42.0636 -10.7029 
-4.24202 45.798 -11.3468 3.69236 47.4183 -11.3468 11.6268 46.0247 -11.3468 
20.2817 42.0636 -11.3468 19.5611 42.2565 -11.3468 27.4955 42.0636 -9.82491 
35.4299 42.0636 -5.06437 -12.1764 49.998 -4.8551 -4.24202 49.998 -8.38092 
3.69236 49.998 -9.69637 11.6268 49.998 -8.91347 19.5611 49.998 -5.33021 
3.69236 -53.7316 -3.41241 -20.1108 -48.6949 -3.41241 -12.1764 -50.9544 -3.41241 
-0.861039 -53.149 -3.41241 -4.24202 -52.7198 -3.41241 7.88352 -53.149 -3.41241 
3.69236 -53.149 0.760225 11.6268 -52.6288 -3.41241 19.5611 -50.7327 -3.41241 
27.4955 -46.9552 -3.41241 -35.9796 -40.836 -3.41241 -27.4179 -45.2147 -3.41241 
-28.0452 -44.9197 -3.41241 30.0996 -45.2147 -3.41241 35.4299 -41.149 -3.41241 
-40.4782 -37.2803 -3.41241 -43.914 -33.6462 -3.41241 39.5971 -37.2803 -3.41241 
43.3643 -33.4929 -3.41241 -47.4898 -29.3459 -3.41241 -51.8483 -22.4536 -3.41241 
47.2473 -29.3459 -3.41241 51.2987 -24.0731 -3.41241 -52.4333 -21.4115 -3.41241 
-51.8483 -21.4115 -0.716924 53.1727 -21.4115 -3.41241 -55.6616 -13.4771 -3.41241 
56.3725 -13.4771 -3.41241 -58.0987 -5.54273 -3.41241 -59.7827 1.84753 -3.41241 
58.4383 -5.54273 -3.41241 59.2331 -5.54273 -1.49143 -59.9036 2.39166 -3.41241 
-59.7827 6.04544 -3.41241 -59.7827 2.39166 -2.8839 58.4094 2.39166 -3.41241 
59.2331 2.39166 -1.70963 -59.6412 10.326 -3.41241 56.3734 10.326 -3.41241 
59.2331 10.326 2.07427 -57.9062 18.2604 -3.41241 54.982 18.2604 -3.41241 
51.2987 25.6147 -3.41241 -54.1561 26.1948 -3.41241 -51.8483 29.0406 -3.41241 
50.8751 26.1948 -3.41241 51.2987 26.1948 -2.58241 -46.9413 34.1292 -3.41241 
-43.914 36.6404 -3.41241 -35.9796 41.4334 -3.41241 45.7762 34.1292 -3.41241 
43.3643 36.7453 -3.41241 -34.4862 42.0636 -3.41241 -35.9796 42.0636 -0.973981 
-28.0452 44.5853 -3.41241 -20.1108 48.1481 -3.41241 27.4955 47.6348 -3.41241 
37.3619 42.0636 -3.41241 35.4299 43.4931 -3.41241 -15.4851 49.998 -3.41241 
-12.1764 50.9682 -3.41241 -4.24202 53.0434 -3.41241 3.69236 54.0673 -3.41241 
11.6268 53.4448 -3.41241 22.8686 49.998 -3.41241 19.5611 51.3107 -3.41241 
-20.1108 -47.059 4.52198 -12.1764 -49.1806 4.52198 -4.24202 -51.1084 4.52198 
3.69236 -52.563 4.52198 11.6268 -51.7052 4.52198 19.5611 -49.7516 4.52198 
27.4955 -45.8708 4.52198 -35.9796 -38.9688 4.52198 -24.2179 -45.2147 4.52198 
-28.0452 -43.3185 4.52198 -20.1108 -45.2147 7.64726 -12.1764 -45.2147 10.8749 
19.5611 -45.2147 11.0717 28.4256 -45.2147 4.52198 27.4955 -45.2147 5.50775 
35.4299 -39.7542 4.52198 -38.0599 -37.2803 4.52198 -43.914 -31.2414 4.52198 
-35.9796 -37.2803 6.98453 -28.0452 -37.2803 12.4032 38.3329 -37.2803 4.52198 
35.4299 -37.2803 7.54626 43.3643 -32.6665 4.52198 -45.4602 -29.3459 4.52198 
-43.914 -29.3459 6.52838 35.4299 -29.3459 12.3158 46.5813 -29.3459 4.52198 
43.3643 -29.3459 8.35623 51.2987 -24.4408 4.52198 -50.2904 -21.4115 4.52198 
-51.8483 -18.5615 4.52198 -43.914 -21.4115 10.3388 53.8167 -21.4115 4.52198 
51.2987 -21.4115 8.74078 -53.9626 -13.4771 4.52198 -51.8483 -13.4771 7.47153 
58.507 -13.4771 4.52198 59.2331 -11.5585 4.52198 -56.0887 -5.54273 4.52198 
-51.8483 -5.54273 9.55721 61.1767 -5.54273 4.52198 59.2331 -5.54273 9.46308 
-57.6661 2.39166 4.52198 -51.8483 2.39166 10.6617 61.2178 2.39166 4.52198 
59.2331 2.39166 10.0149 -57.5473 10.326 4.52198 -51.8483 10.326 10.3737 
60.09 10.326 4.52198 59.2331 13.7041 4.52198 59.2331 10.326 6.76456 
-55.1327 18.2604 4.52198 -51.8483 18.2604 8.75754 58.0063 18.2604 4.52198 
-52.6245 26.1948 4.52198 -51.8483 27.2069 4.52198 -51.8483 26.1948 5.44312 
-43.914 26.1948 10.9726 53.862 26.1948 4.52198 51.2987 30.2158 4.52198 
51.2987 26.1948 11.1019 -46.8876 34.1292 4.52198 -43.914 37.2047 4.52198 
-43.914 34.1292 8.78449 -35.9796 34.1292 12.447 48.3403 34.1292 4.52198 
43.3643 39.1686 4.52198 43.3643 34.1292 10.535 -37.5795 42.0636 4.52198 
-35.9796 43.1911 4.52198 -35.9796 42.0636 6.67559 -28.0452 46.903 4.52198 
-28.0452 42.0636 11.0426 -20.1108 49.912 4.52198 27.4955 49.3868 4.52198 
39.6511 42.0636 4.52198 35.4299 44.9176 4.52198 35.4299 42.0636 8.72757 
-19.7674 49.998 4.52198 -12.1764 51.6197 4.52198 -12.1764 49.998 7.59799 
-4.24202 52.4722 4.52198 -4.24202 49.998 7.77656 3.69236 53.8777 4.52198 
3.69236 49.998 9.56056 11.6268 53.525 4.52198 11.6268 49.998 9.47227 
26.0024 49.998 4.52198 19.5611 52.2113 4.52198 19.5611 49.998 9.14326 
-4.24202 -45.9208 12.4564 3.69236 -47.3409 12.4564 11.6268 -46.7748 12.4564 
-20.1108 -41.134 12.4564 -7.17979 -45.2147 12.4564 -12.1764 -43.7083 12.4564 
-4.24202 -45.2147 13.0791 3.69236 -45.2147 14.1986 16.1611 -45.2147 12.4564 
11.6268 -45.2147 13.7088 19.5611 -43.053 12.4564 27.4955 -37.5346 12.4564 
[...]
POINT_DATA 544
SCALARS ImageScalars float
LOOKUP_TABLE default
0 0 0 0 0 0 0 0 0 
0 0 0 0 0 0 0 0 0 
0 0 0 0 0 0 0 0 0 
0 0 0 0 0 0 0 0 0 
0 0 0 0 0 0 0 0 0 
0 0 0 0 0 0 0 0 0 
0 0 0 0 0 0 0 0 0 
0 0 0 0 0 0 0 0 0 
0 0 0 0 0 0 0 0 0 
0 0 0 0 0 0 0 0 0 
0 0 0 0 0 0 0 0 0 
0 0 0 0 0 0 0 0 0 
0 0 0 0 0 0 0 0 0 
0 0 0 0 0 0 0 0 0 
0 0 0 0 0 0 0 0 0 
0 0 0 0 0 0 0 0 0 
0 0 0 0 0 0 0 0 0 
0 0 0 0 0 0 0 0 0 
0 0 0 0 0 0 0 0 0 
0 0 0 0 0 0 0 0 0 
0 0 0 0 0 0 0 0 0 
0 0 0 0 0 0 0 0 0 
0 0 0 0 0 0 0 0 0 
0 0 0 0 0 0 0 0 0 
0 0 0 0 0 0 0 0 0 
0 0 0 0 0 0 0 0 0 
0 0 0 0 0 0 0 0 0 
0 0 0 0 0 0 0 0 0 
0 0 0 0 0 0 0 0 0 
0 0 0 0 0 0 0 0 0 
0 0 0 0 0 0 0 0 0 
0 0 0 0 0 0 0 0 0 
0 0 0 0 0 0 0 0 0 
0 0 0 0 0 0 0 0 0 
0 0 0 0 0 0 0 0 0 
0 0 0 0 0 0 0 0 0 
0 0 0 0 0 0 0 0 0 
0 0 0 0 0 0 0 0 0 
0 0 0 0 0 0 0 0 0 
0 0 0 0 0 0 0 0 0 
0 0 0 0 0 0 0 0 0 
0 0 0 0 0 0 0 0 0 
0 0 0 0 0 0 0 0 0 
0 0 0 0 0 0 0 0 0 
0 0 0 0 0 0 0 0 0 
0 0 0 0 0 0 0 0 0 
0 0 0 0 0 0 0 0 0 
0 0 0 0 0 0 0 0 0 
0 0 0 0 0 0 0 0 0 
0 0 0 0 0 0 0 0 0 
0 0 0 0 0 0 0 0 0 
0 0 0 0 0 0 0 0 0 
0 0 0 0 0 0 0 0 0 
0 0 0 0 0 0 0 0 0 
0 0 0 0 0 0 0 0 0 
0 0 0 0 0 0 0 0 0 
0 0 0 0 0 0 0 0 0 
0 0 0 0 0 0 0 0 0 
0 0 0 0 0 0 0 0 0 
0 0 0 0 0 0 0 0 0 
0 0 0 0 
NORMALS Normals float
0.0572469 0.0925023 0.994065 -0.0590342 0.106516 0.992557 0.321052 0.735493 0.596636 
0.253426 0.569831 0.781708 0.060492 0.142338 0.987968 0.0888118 0.486785 0.868995 
-0.0598113 0.142189 0.988031 -0.0705956 0.467702 0.881062 -0.228208 0.50533 0.832203 
-0.330461 0.622319 0.709588 0.513808 0.657983 0.550508 0.320578 0.435438 0.841204 
0.173755 0.284293 0.942861 0.0616382 0.111309 0.991873 0.0778101 0.155683 0.984738 
0.0410299 -0.0647314 0.997059 -0.0705541 0.118791 0.990409 -0.0102772 -0.104159 0.994507 
-0.107335 0.153601 0.982286 -0.222038 0.273722 0.935829 -0.396908 0.373161 0.838579 
0.327899 0.294928 0.897496 0.156702 0.164579 0.973837 0.0642884 -0.0150893 0.997817 
0.0242413 -0.06402 0.997654 0.0336826 -0.134113 0.990393 -0.00927177 -0.108482 0.994055 
-0.0406419 -0.034991 0.998561 -0.107512 0.0195404 0.994012 -0.27498 0.13606 0.951774 
-0.402028 0.289385 0.868694 0.481816 0.230823 0.845325 0.21419 0.0837656 0.973194 
0.00338648 -0.00216428 0.999992 -0.0573305 -0.110871 0.99218 -0.0461847 -0.177835 0.982976 
0.00381589 -0.25299 0.967461 0.0436009 -0.245756 0.968351 0.0266168 -0.133119 0.990743 
-0.0522869 -0.0720098 0.996032 -0.160577 -0.00585224 0.987006 -0.289881 0.116977 0.949887 
-0.47123 0.188733 0.861581 0.716856 0.268733 0.643351 0.308353 0.168025 0.936315 
0.0950998 0.0148527 0.995357 -0.0366174 -0.0675623 0.997043 -0.11511 -0.16673 0.97926 
-0.115953 -0.262924 0.957823 -0.029579 -0.127954 0.991339 0.122059 -0.198753 0.972419 
0.129909 -0.0843927 0.987928 0.0136016 -0.0680521 0.997589 -0.102571 -0.0519889 0.993366 
-0.235816 0.000134198 0.971798 -0.369481 0.09597 0.924269 0.607342 0.209538 0.766309 
0.199406 0.187744 0.961764 -0.0114831 0.103929 0.994518 -0.169044 0.0210354 0.985384 
-0.245716 -0.0531875 0.967882 -0.0296925 -0.176426 0.983866 0.0803729 -0.0399678 0.995963 
0.108751 -0.197104 0.974332 0.163546 -0.0450341 0.985507 -0.0220445 -0.107052 0.994009 
-0.0992244 -0.125206 0.987157 -0.16448 -0.0807499 0.983069 -0.254168 -0.0357683 0.966498 
-0.534842 0.0323667 0.844332 0.540527 0.0452057 0.840111 0.205908 0.0726756 0.975869 
-0.0714368 0.0490849 0.996237 -0.199268 0.0325419 0.979405 -0.298504 0.0154661 0.954283 
-0.120904 -0.0506427 0.991372 -0.0388341 -0.279268 0.959427 0.213027 0.0215081 0.976809 
0.165219 -0.128242 0.977884 -0.0678214 -0.153738 0.985781 -0.0729277 -0.127673 0.989132 
-0.150459 -0.13176 0.979797 -0.257484 -0.142938 0.955652 0.533286 -0.0862227 0.84153 
0.228329 -0.125909 0.965408 -0.0578398 -0.0822694 0.99493 -0.191054 -0.0852107 0.977874 
-0.322474 -0.10465 0.940776 -0.309968 -0.07406 0.947858 0.186758 0.0775191 0.979343 
0.000384786 -0.0862162 0.996276 -0.0238072 -0.0523466 0.998345 -0.07824 -0.0480444 0.995776 
-0.172662 -0.106679 0.979187 -0.284654 -0.140121 0.948335 0.590608 -0.315728 0.742629 
0.204766 -0.276284 0.939009 -0.0329591 -0.255111 0.96635 -0.210394 -0.24496 0.94643 
-0.298222 -0.16951 0.939324 -0.112664 0.0100209 0.993583 0.131793 0.172555 0.976143 
0.145856 0.00227261 0.989303 0.0598699 0.0240185 0.997917 -0.0301531 0.00907431 0.999504 
-0.124919 -0.019633 0.991973 -0.231531 -0.0561775 0.971204 0.273624 -0.518568 0.810073 
0.00660155 -0.457997 0.888929 -0.0973748 -0.344458 0.933738 -0.0831472 -0.118981 0.989409 
0.0473794 0.0537409 0.99743 0.136459 0.124342 0.982811 0.0825158 0.0669561 0.994338 
0.0113414 0.000587087 0.999936 -0.0665257 -0.0622146 0.995843 -0.140415 -0.0736322 0.987351 
-0.239291 -0.180687 0.953987 0.121147 -0.177036 0.97672 0.134112 -0.0985681 0.986052 
0.146421 -0.067648 0.986907 0.021695 -0.0770021 0.996795 -0.0702189 -0.147258 0.986602 
-0.10136 -0.183822 0.97772 -0.241245 -0.240574 0.940173 0.154251 -0.297945 0.942038 
0.000881626 -0.291094 0.956694 -0.112553 -0.306839 0.945083 -0.161484 -0.406149 0.899426 
0.341118 0.79224 0.505959 0.279209 0.847968 0.450548 0.117674 0.89977 0.420199 
-0.0394215 0.879602 0.474075 -0.0122853 0.987122 0.159497 -0.223891 0.830497 0.510047 
-0.349578 0.714964 0.605493 0.52065 0.674487 0.523441 0.384378 0.789219 0.478944 
0.430401 0.755781 0.493508 -0.422564 0.681897 0.59704 -0.476999 0.62491 0.618028 
-0.512845 0.781544 0.355217 0.528797 0.666534 0.525458 -0.548077 0.497343 0.672504 
-0.524679 0.46201 0.715023 -0.631547 0.602705 0.487745 0.672048 0.488817 0.556246 
0.67205 0.488807 0.556252 0.672077 0.488841 0.556189 -0.528555 0.389081 0.754484 
-0.516822 0.274073 0.811036 -0.638135 0.478782 0.602952 0.69342 0.336838 0.636953 
0.719589 0.270512 0.639543 0.885964 0.435118 0.160438 -0.497233 0.213024 0.841059 
-0.748844 0.42891 0.505241 0.719409 0.269081 0.640348 -0.479172 0.174131 0.860275 
-0.543891 0.0567318 0.837236 -0.623187 0.235815 0.745674 0.74003 0.251795 0.623662 
-0.54761 0.0337995 0.836051 -0.531888 -0.00474722 0.846801 0.785306 0.111855 0.60892 
0.994125 0.0955553 0.0508386 0.109937 -0.175729 0.978281 -0.391323 -0.162438 0.905804 
-0.512017 -0.167415 0.842503 0.77974 -0.125233 0.613452 -0.102001 -0.0921346 0.990508 
0.203328 -0.0452185 0.978066 0.155776 0.0458122 0.98673 0.170511 -0.0753649 0.982469 
-0.29609 -0.143405 0.944333 -0.291274 -0.130842 0.94765 -0.563186 -0.151307 0.812359 
0.707171 -0.327668 0.626533 0.594046 -0.44788 0.668216 -0.295422 -0.0635781 0.953249 
-0.345088 -0.0783191 0.935297 -0.589982 -0.247832 0.76844 0.431449 -0.552206 0.713386 
0.670287 -0.587525 0.453353 0.297315 -0.604092 0.739376 0.110172 -0.532497 0.839231 
0.0993999 -0.350558 0.931251 -0.352396 -0.208248 0.912387 -0.293138 -0.252016 0.922257 
-0.472374 -0.24173 0.847602 0.463464 -0.734304 0.495983 0.19691 -0.593099 0.78068 
0.139542 -0.278981 0.950104 0.148942 -0.363125 0.919759 0.149388 -0.31956 0.935716 
0.158407 -0.278255 0.947355 -0.319678 -0.292529 0.90124 -0.278055 -0.405764 0.870655 
-0.395152 -0.368888 0.841294 -0.566183 -0.543023 0.620131 0.315862 -0.693705 0.647305 
0.201017 -0.509712 0.836532 0.167969 -0.337785 0.926114 0.175778 -0.372454 0.911252 
0.183982 -0.460515 0.868376 0.00969167 -0.521164 0.853402 -0.1559 -0.46611 0.870883 
-0.173507 -0.416406 0.892469 -0.165511 -0.413035 0.895549 -0.314478 -0.546781 0.775973 
-0.513331 -0.685609 0.51617 0.289712 -0.840667 0.457543 0.206924 -0.751496 0.626447 
0.0195398 -0.686943 0.726449 -0.186117 -0.710078 0.67908 -0.330065 -0.810718 0.483522 
-0.00524397 0.998658 0.0515213 0.35884 0.933122 0.0227396 0.239483 0.970655 -0.0218391 
0.0957044 0.995347 0.0112073 0.169098 0.985445 -0.0174185 -0.0982041 0.994173 0.0444546 
0.0133206 0.990277 -0.138472 -0.180907 0.982529 0.0437059 -0.320848 0.9409 0.108457 
-0.512397 0.852087 0.106756 0.547586 0.835442 0.0467583 0.439142 0.898393 -0.00671017 
0.444495 0.895753 -0.00716478 -0.55805 0.82255 0.109512 -0.650789 0.742416 0.159032 
0.671149 0.740381 0.0373472 0.749187 0.661006 0.0422934 -0.68901 0.701649 0.181529 
-0.71999 0.668273 0.187149 0.801208 0.596238 0.0506465 0.886386 0.460728 0.0452717 
-0.753094 0.623788 0.209138 -0.790332 0.530719 0.306126 0.895729 0.441959 0.0483971 
0.882747 0.457924 -0.105184 -0.810532 0.470928 0.348231 0.93589 0.34368 0.0774216 
-0.836721 0.281513 0.469733 0.964889 0.256471 0.0566781 0.994152 0.104606 0.0268276 
-0.843304 0.0988456 0.528269 -0.908169 0.122187 0.400373 0.995264 0.093852 0.0253236 
0.999722 -0.00424681 0.023199 0.995554 0.0941332 -0.00345427 -0.810969 -0.0893515 0.578226 
-0.890198 -0.0819437 0.448145 0.99259 -0.119699 0.0209045 -0.725831 -0.18402 0.662801 
-0.960427 -0.219854 0.171007 0.952855 -0.301986 0.0295232 -0.777077 -0.286269 0.560536 
-0.717294 -0.441106 0.539365 0.810925 -0.574019 0.113594 0.760188 -0.635628 0.134505 
-0.712594 -0.451971 0.536594 -0.740109 -0.469959 0.481017 0.624881 -0.732177 0.271 
0.54157 -0.773065 0.330261 0.405999 -0.791538 0.456762 -0.678716 -0.555224 0.480698 
-0.625532 -0.605328 0.492227 0.389914 -0.796669 0.461829 0.470622 -0.837277 0.278356 
0.334234 -0.811458 0.479399 0.341373 -0.814383 0.469303 -0.428631 -0.798671 0.422375 
-0.539388 -0.716824 0.441841 -0.509985 -0.742685 0.433975 0.301262 -0.864484 0.402379 
0.274707 -0.891081 0.361264 0.20176 -0.943089 0.26434 0.0256918 -0.955907 0.292543 
-0.175064 -0.936689 0.303258 -0.371025 -0.843282 0.388865 -0.31944 -0.872447 0.369858 
0.326053 0.877913 -0.350655 0.23146 0.902885 -0.36225 0.192481 0.918096 -0.346484 
0.032096 0.946766 -0.320318 -0.158173 0.945347 -0.285133 -0.33176 0.885853 -0.324344 
-0.519244 0.78602 -0.335497 0.554652 0.737381 -0.385525 0.385823 0.862719 -0.32689 
0.435891 0.837089 -0.330577 0.304405 0.82177 -0.481696 0.206741 0.742413 -0.637245 
-0.353214 0.646437 -0.676283 -0.534398 0.775831 -0.335418 -0.516872 0.763169 -0.387836 
-0.610228 0.707854 -0.35576 0.596576 0.699936 -0.392665 0.707457 0.574807 -0.411219 
0.552861 0.666317 -0.500366 0.369291 0.533583 -0.760864 -0.627279 0.693344 -0.354675 
-0.570689 0.614181 -0.545065 -0.644311 0.69055 -0.328641 0.733438 0.536808 -0.41702 
0.689537 0.509946 -0.514289 -0.287735 0.335926 -0.896863 -0.668912 0.682527 -0.294471 
-0.535943 0.618594 -0.574548 -0.732679 0.645512 -0.215627 0.777052 0.444014 -0.44614 
0.813269 0.400702 -0.421937 0.560659 0.327793 -0.760403 -0.775684 0.596887 -0.205035 
-0.66435 0.543821 -0.512736 0.853134 0.31109 -0.418789 0.766238 0.284486 -0.576148 
-0.901414 0.413521 -0.128267 -0.930687 0.352408 -0.0981332 0.867188 0.208074 -0.452427 
0.688169 0.14554 -0.710804 -0.985867 0.163682 -0.0356876 -0.864555 0.202036 -0.460137 
0.874125 0.080405 -0.479 0.617056 0.0372553 -0.786037 -0.997419 -0.0678938 -0.0233686 
-0.870797 -0.0678441 -0.486939 0.865168 -0.128206 -0.484817 0.631425 -0.0772473 -0.77158 
-0.979812 -0.198277 -0.0255801 -0.964357 -0.264538 -0.00587145 -0.958928 -0.205937 -0.195059 
0.824678 -0.261223 -0.501666 0.690729 -0.227645 -0.686347 -0.932518 -0.360531 -0.0206647 
0.771812 -0.460112 -0.438866 0.764374 -0.481146 -0.429221 0.740067 -0.457854 -0.492615 
0.492518 -0.255707 -0.83189 -0.861791 -0.507161 -0.0101734 -0.806632 -0.589859 -0.0375696 
-0.696084 -0.420231 -0.582128 0.737889 -0.606747 -0.295597 0.672401 -0.696422 -0.250746 
0.629923 -0.518033 -0.578652 0.323403 -0.339642 -0.883207 -0.740042 -0.663311 -0.111163 
-0.650475 -0.748205 -0.130656 -0.559226 -0.570191 -0.601787 0.567296 -0.807876 -0.15972 
0.542033 -0.827777 -0.144866 0.540768 -0.781304 -0.311664 0.380005 -0.912252 -0.152945 
0.267458 -0.656303 -0.705501 0.281111 -0.946403 -0.159052 -0.422705 -0.894036 -0.148396 
-0.582232 -0.798903 -0.15086 -0.520016 -0.835619 -0.17699 -0.464246 -0.745881 -0.477637 
0.275828 -0.947627 -0.161004 0.166125 -0.960281 -0.224195 0.11087 -0.887495 -0.447281 
0.145229 -0.917758 -0.369635 0.0930259 -0.817137 -0.568888 0.0619569 -0.941404 -0.331541 
0.0792303 -0.752104 -0.654265 -0.10692 -0.949684 -0.294396 -0.0148624 -0.786693 -0.617166 
-0.388487 -0.909407 -0.148516 -0.245249 -0.953948 -0.17273 -0.180846 -0.850331 -0.494198 
0.159267 0.670602 -0.724519 0.0430713 0.658628 -0.751235 -0.152174 0.644406 -0.749389 
0.257539 0.629477 -0.733097 0.172243 0.671828 -0.720402 0.190446 0.654837 -0.731381 
0.153103 0.641924 -0.751328 0.0334669 0.553877 -0.831926 -0.259739 0.600087 -0.756592 
-0.139689 0.568198 -0.810948 -0.330765 0.523265 -0.785359 -0.344962 0.377625 -0.859303 
0.44567 0.330414 -0.831989 0.367178 0.531699 -0.763202 0.368463 0.529237 -0.764293 
0.232589 0.486332 -0.842249 0.097983 0.379382 -0.920037 0.0419417 0.254999 -0.966031 
-0.0124301 0.201766 -0.979355 -0.119212 0.212683 -0.969822 -0.275564 0.2718 -0.922057 
-0.347367 0.373844 -0.859987 -0.341331 0.367906 -0.86495 0.446619 0.327355 -0.832688 
0.444007 0.325521 -0.834802 0.323588 0.247094 -0.913365 0.153016 0.16216 -0.974828 
-0.012751 0.129043 -0.991557 -0.0479809 0.0290523 -0.998426 -0.0238905 -0.0264142 -0.999366 
-0.0716795 -0.00346366 -0.997422 -0.178623 0.086345 -0.980122 -0.282379 0.324512 -0.902748 
-0.256974 0.202689 -0.944924 -0.277699 0.328766 -0.90266 -0.285117 0.400833 -0.870656 
0.448931 0.252518 -0.857144 0.439569 0.23749 -0.866243 0.349105 0.198679 -0.91578 
0.226053 0.0606424 -0.972226 0.106839 -0.0669683 -0.992018 -0.0519448 -0.0297136 -0.998208 
-0.121407 -0.0244032 -0.992303 -0.04042 -0.156661 -0.986825 -0.0126959 -0.0417767 -0.999046 
-0.0557579 0.0207157 -0.998229 -0.111752 0.156231 -0.981378 -0.167571 0.26982 -0.948218 
-0.331639 0.387756 -0.860035 -0.250929 0.363527 -0.897153 -0.499398 0.321564 -0.804486 
0.447414 0.217848 -0.867389 0.402886 0.204781 -0.892047 0.234809 0.108356 -0.965983 
0.0598885 -0.0249299 -0.997894 0.0614812 -0.178107 -0.982089 0.0354995 -0.13298 -0.990483 
-0.190653 0.132941 -0.972614 -0.0232148 0.0646601 -0.997637 0.104315 0.135506 -0.98527 
0.0164387 0.0343158 -0.999276 -0.00619264 0.105588 -0.994391 -0.0758185 0.192083 -0.978445 
-0.206207 0.261728 -0.942856 -0.507596 0.311296 -0.803394 -0.489292 0.307663 -0.816049 
0.482113 0.107052 -0.869544 0.347922 0.0956143 -0.932635 0.125717 0.0281528 -0.991667 
-0.0455002 -0.0327831 -0.998426 -0.0279849 -0.0996434 -0.99463 0.260146 -0.200314 -0.944563 
0.0945201 -0.0124877 -0.995445 -0.0271622 0.108534 -0.993722 -0.0739007 0.116203 -0.990472 
-0.0867366 -0.0278609 -0.995842 0.0511714 0.0273893 -0.998314 -0.00563141 0.0833701 -0.996503 
-0.105852 0.128044 -0.986103 -0.642311 0.205074 -0.738499 -0.427519 0.149223 -0.891605 
0.480538 0.0358675 -0.87624 0.311795 0.0263387 -0.949784 0.0978895 0.00145988 -0.995196 
-0.0716383 0.0097436 -0.997383 -0.100709 0.010683 -0.994859 0.125091 -0.0107757 -0.992087 
0.0988063 -0.158172 -0.982455 0.0673526 -0.0542161 -0.996255 -0.0320685 -0.0928411 -0.995164 
-0.0367916 -0.00984526 -0.999274 0.105139 -0.00192901 -0.994456 0.0231699 -0.00326201 -0.999726 
-0.164189 -0.0107282 -0.986371 -0.683468 -0.0533274 -0.72803 -0.370486 -0.0229952 -0.928553 
0.500619 -0.0579432 -0.863726 0.310693 -0.069426 -0.947971 0.117987 -0.0465163 -0.991925 
-0.0307958 -0.00218045 -0.999523 -0.0591079 0.0965326 -0.993573 0.0829973 0.118339 -0.989498 
0.0965781 -0.0964119 -0.990645 0.0467119 -0.0383414 -0.998172 -0.0233287 -0.04418 -0.998751 
-0.0150058 0.111514 -0.99365 0.0574702 0.0628616 -0.996366 -0.0141981 -0.0327353 -0.999363 
-0.130311 -0.105532 -0.985841 -0.633762 -0.187352 -0.750497 -0.460784 -0.128051 -0.878226 
0.431605 -0.223006 -0.874063 0.388397 -0.231603 -0.891913 0.330574 -0.215626 -0.918818 
0.177071 -0.10611 -0.978461 0.0686802 -0.00852198 -0.997602 0.0245548 0.0989594 -0.994788 
-0.0565497 0.0742708 -0.995633 -0.050843 -0.0437537 -0.997748 0.117386 -0.0221791 -0.992839 
0.131172 -0.00751823 -0.991331 0.0557496 0.0833273 -0.994962 -0.0392279 0.0137306 -0.999136 
-0.139603 -0.0440855 -0.989226 -0.230909 -0.157316 -0.960173 -0.556565 -0.21909 -0.801395 
-0.589976 -0.305091 -0.747561 -0.512675 -0.20819 -0.832959 0.405616 -0.210027 -0.889587 
0.32315 -0.338552 -0.883717 0.31073 -0.164128 -0.936221 0.158577 -0.0798459 -0.984113 
0.0302225 -0.00995872 -0.999494 -0.0639271 -0.0310558 -0.997471 -0.0131792 -0.00331445 -0.999908 
0.0847888 0.0301082 -0.995944 0.094339 -0.0294446 -0.995105 0.00463794 -0.0524182 -0.998614 
-0.070983 -0.113758 -0.990969 -0.196379 -0.182927 -0.963314 -0.583625 -0.366988 -0.724363 
-0.434198 -0.44004 -0.786026 -0.298526 -0.258504 -0.918726 0.322716 -0.339158 -0.883644 
0.230337 -0.506958 -0.830626 0.209376 -0.287855 -0.934506 0.0831864 -0.282182 -0.955748 
-0.0432351 -0.200063 -0.978829 0.0133525 -0.151447 -0.988375 0.0860512 -0.123202 -0.988644 
0.0544682 -0.150348 -0.987132 -0.0288724 -0.184608 -0.982388 -0.173262 -0.235253 -0.956366 
-0.431319 -0.471155 -0.7694 -0.347568 -0.519416 -0.780643 -0.278394 -0.365361 -0.888261 
0.181594 -0.51441 -0.838097 0.162894 -0.511049 -0.843975 0.138116 -0.465202 -0.874363 
0.0403359 -0.515128 -0.856164 0.0422604 -0.388672 -0.920406 0.0369649 -0.483637 -0.874488 
0.0474363 -0.38688 -0.920909 0.0757108 -0.511336 -0.856039 0.0779587 -0.349213 -0.933795 
0.0387187 -0.564879 -0.824265 0.0318054 -0.383678 -0.922919 -0.122799 -0.62789 -0.768553 
-0.0846248 -0.392691 -0.915769 -0.348797 -0.555818 -0.754591 -0.343213 -0.559943 -0.754101 
-0.328139 -0.534264 -0.779029 
