# vtk DataFile Version 4.2
vtk output
ASCII
DATASET POLYDATA
POINTS 524 float
9.99071 1.53665 -19.1031 -19.0925 -34.8174 -11.8841 -11.8217 -34.8174 -12.4763 
-33.6341 -27.5466 -12.8956 -26.3633 -27.5466 -13.8845 -19.0925 -27.5466 -14.4333 
-11.8217 -27.5466 -14.2348 -4.5509 -27.5466 -13.7989 2.7199 -27.5466 -13.0237 
9.99071 -27.5466 -13.1928 17.2615 -27.5466 -13.4609 24.5323 -27.5466 -12.7648 
31.8031 -27.5466 -11.9799 -40.9049 -20.2758 -14.0648 -33.6341 -20.2758 -15.5853 
-26.3633 -20.2758 -15.3738 -19.0925 -20.2758 -15.7124 -11.8217 -20.2758 -14.994 
-4.5509 -20.2758 -14.3554 2.7199 -20.2758 -14.0122 9.99071 -20.2758 -14.8971 
17.2615 -20.2758 -15.1167 24.5323 -20.2758 -14.9395 31.8031 -20.2758 -14.9436 
39.0739 -20.2758 -13.9369 -48.1757 -13.005 -13.107 -40.9049 -13.005 -15.8916 
-33.6341 -13.005 -16.6745 -26.3633 -13.005 -16.4988 -19.0925 -13.005 -15.4568 
-11.8217 -13.005 -14.8579 -4.5509 -13.005 -14.2954 2.7199 -13.005 -14.052 
9.99071 -13.005 -15.5723 17.2615 -13.005 -15.0955 24.5323 -13.005 -15.5059 
31.8031 -13.005 -15.9222 39.0739 -13.005 -15.6771 46.3447 -13.005 -13.8191 
-48.1757 -5.73416 -13.8615 -40.9049 -5.73416 -17.1521 -33.6341 -5.73416 -17.5279 
-26.3633 -5.73416 -16.6027 -19.0925 -5.73416 -15.0446 -11.8217 -5.73416 -14.1154 
-4.5509 -5.73416 -16.9067 2.7199 -5.73416 -15.3192 9.99071 1.14195 -19.0084 
9.99071 -5.73416 -17.063 17.2615 -5.73416 -15.1527 24.5323 -5.73416 -16.2113 
31.8031 -5.73416 -16.9776 39.0739 -5.73416 -17.1941 46.3447 -5.73416 -15.4712 
-48.1757 1.53665 -13.101 -40.9049 1.53665 -16.8047 -33.6341 1.53665 -17.7148 
-26.3633 1.53665 -17.145 -19.0925 1.53665 -15.8543 -11.8217 1.53665 -14.6503 
-4.5509 1.53665 -15.7298 9.7565 1.53665 -19.0084 2.7199 1.53665 -15.0115 
10.239 1.53665 -19.0084 9.99071 1.97634 -19.0084 17.2615 1.53665 -16.293 
24.5323 1.53665 -16.993 31.8031 1.53665 -17.8657 39.0739 1.53665 -17.2362 
46.3447 1.53665 -15.6656 -40.9049 8.80745 -15.2258 -33.6341 8.80745 -17.0456 
-26.3633 8.80745 -17.3929 -19.0925 8.80745 -17.0627 -11.8217 8.80745 -16.4574 
-4.5509 8.80745 -15.4461 2.7199 8.80745 -16.3858 9.99071 8.80745 -17.42 
17.2615 8.80745 -16.5968 24.5323 8.80745 -17.4304 31.8031 8.80745 -17.8661 
39.0739 8.80745 -16.8764 46.3447 8.80745 -14.751 -40.9049 16.0783 -13.1961 
-33.6341 16.0783 -15.9468 -26.3633 16.0783 -17.3374 -19.0925 16.0783 -17.6427 
-11.8217 16.0783 -17.1318 -4.5509 16.0783 -15.9446 2.7199 16.0783 -16.3844 
9.99071 16.0783 -16.5848 17.2615 16.0783 -16.5654 24.5323 16.0783 -16.6951 
31.8031 16.0783 -16.6728 39.0739 16.0783 -15.3622 46.3447 16.0783 -11.9626 
-33.6341 23.3491 -13.9619 -26.3633 23.3491 -16.4042 -19.0925 23.3491 -17.35 
-11.8217 23.3491 -17.5439 -4.5509 23.3491 -16.9254 2.7199 23.3491 -17.3176 
9.99071 23.3491 -17.7859 17.2615 23.3491 -16.7256 24.5323 23.3491 -15.6908 
31.8031 23.3491 -14.4581 -26.3633 30.6199 -14.4686 -19.0925 30.6199 -16.455 
-11.8217 30.6199 -17.209 -4.5509 30.6199 -17.211 2.7199 30.6199 -17.4082 
9.99071 30.6199 -17.4984 17.2615 30.6199 -15.6356 24.5323 30.6199 -12.8552 
-19.0925 37.8907 -13.5325 -11.8217 37.8907 -14.9483 -4.5509 37.8907 -15.3097 
2.7199 37.8907 -15.3763 9.99071 37.8907 -14.4817 -19.0925 -35.0495 -11.7376 
-11.8217 -35.8173 -11.7376 -33.6341 -29.5184 -11.7376 -33.6341 -34.8174 -7.001 
-19.7733 -34.8174 -11.7376 -26.3633 -31.8607 -11.7376 -26.3633 -34.8174 -9.85751 
-8.23117 -34.8174 -11.7376 -4.5509 -32.8273 -11.7376 -4.5509 -34.8174 -10.8349 
2.7199 -31.6351 -11.7376 2.7199 -34.8174 -10.3261 9.99071 -30.7622 -11.7376 
9.99071 -34.8174 -8.92463 17.2615 -30.5732 -11.7376 17.2615 -34.8174 -7.58044 
24.5323 -29.0704 -11.7376 24.5323 -34.8174 -5.69839 31.8031 -27.9221 -11.7376 
-37.2915 -27.5466 -11.7376 -40.9049 -25.1584 -11.7376 -40.9049 -27.5466 -9.99079 
32.5474 -27.5466 -11.7376 39.0739 -24.1579 -11.7376 39.0739 -27.5466 -8.58989 
-45.8432 -20.2758 -11.7376 -48.1757 -16.4643 -11.7376 -48.1757 -20.2758 -10.0264 
44.0657 -20.2758 -11.7376 46.3447 -17.7953 -11.7376 46.3447 -20.2758 -10.1706 
-49.849 -13.005 -11.7376 50.4876 -13.005 -11.7376 53.6155 -13.005 -8.79505 
-51.1649 -5.73416 -11.7376 52.8014 -5.73416 -11.7376 53.6155 -5.73416 -10.9909 
-49.9777 1.53665 -11.7376 -48.1757 7.38979 -11.7376 52.6527 1.53665 -11.7376 
53.6155 1.53665 -10.6764 -47.5548 8.80745 -11.7376 -48.1757 8.80745 -11.234 
51.4023 8.80745 -11.7376 53.6155 8.80745 -8.4492 -43.1362 16.0783 -11.7376 
-48.1757 16.0783 -5.29599 -40.9049 18.7882 -11.7376 39.0739 22.8976 -11.7376 
46.5925 16.0783 -11.7376 46.3447 16.3729 -11.7376 -37.0596 23.3491 -11.7376 
-40.9049 23.3491 -7.71113 -33.6341 27.6148 -11.7376 38.4478 23.3491 -11.7376 
31.8031 27.3187 -11.7376 39.0739 23.3491 -11.2631 -30.9023 30.6199 -11.7376 
-33.6341 30.6199 -9.19735 -26.3633 34.9366 -11.7376 17.2615 37.7559 -11.7376 
26.8676 30.6199 -11.7376 24.5323 31.9955 -11.7376 31.8031 30.6199 -5.5877 
-22.7795 37.8907 -11.7376 -26.3633 37.8907 -8.56639 -19.0925 40.0122 -11.7376 
-11.8217 41.7081 -11.7376 -4.5509 42.7228 -11.7376 2.7199 42.4727 -11.7376 
17.0009 37.8907 -11.7376 9.99071 40.449 -11.7376 17.2615 37.8907 -11.2829 
-11.8217 45.1615 -4.78079 -4.5509 45.1615 -5.09573 -33.6341 -36.6878 -4.46675 
-26.3633 -39.6699 -4.46675 -19.0925 -41.4162 -4.46675 -11.8217 -41.7308 -4.46675 
-4.5509 -40.8107 -4.46675 2.7199 -39.3543 -4.46675 9.99071 -37.8171 -4.46675 
17.2615 -36.6839 -4.46675 24.5323 -35.5365 -4.46675 -37.017 -34.8174 -4.46675 
-40.9049 -32.3022 -4.46675 27.8774 -34.8174 -4.46675 31.8031 -33.8675 -4.46675 
39.0739 -31.1177 -4.46675 -46.4486 -27.5466 -4.46675 -48.1757 -25.809 -4.46675 
44.9915 -27.5466 -4.46675 46.3447 -26.5581 -4.46675 -52.0265 -20.2758 -4.46675 
52.1111 -20.2758 -4.46675 53.6155 -18.0444 -4.46675 -54.665 -13.005 -4.46675 
55.9814 -13.005 -4.46675 -55.2828 -5.73416 -4.46675 57.8995 -5.73416 -4.46675 
-54.4539 1.53665 -4.46675 57.2593 1.53665 -4.46675 -52.3312 8.80745 -4.46675 
55.281 8.80745 -4.46675 53.6155 12.3054 -4.46675 -48.595 16.0783 -4.46675 
-48.1757 16.7377 -4.46675 51.4379 16.0783 -4.46675 46.3447 21.4819 -4.46675 
-43.2135 23.3491 -4.46675 -40.9049 26.5568 -4.46675 44.1138 23.3491 -4.46675 
39.0739 26.9285 -4.46675 -37.5154 30.6199 -4.46675 -33.6341 34.4418 -4.46675 
24.5323 35.3408 -4.46675 32.5172 30.6199 -4.46675 31.8031 31.0464 -4.46675 
31.8031 30.6199 -2.8538 -29.7557 37.8907 -4.46675 -26.3633 40.3093 -4.46675 
-19.0925 43.7286 -4.46675 2.7199 44.9124 -4.46675 9.99071 42.8322 -4.46675 
19.7831 37.8907 -4.46675 17.2615 39.1827 -4.46675 17.2615 37.8907 -1.26936 
-12.3556 45.1615 -4.46675 -11.8217 45.1615 -4.03772 -1.4805 45.1615 -4.46675 
-4.5509 45.1615 -3.89268 -33.6341 -37.4113 2.80405 -26.3633 -40.4941 2.80405 
-19.0925 -41.8142 2.80405 -11.8217 -41.9752 2.80405 -4.5509 -40.9618 2.80405 
2.7199 -39.3089 2.80405 9.99071 -38.0439 2.80405 17.2615 -36.9381 2.80405 
24.5323 -35.8478 2.80405 -37.9103 -34.8174 2.80405 -40.9049 -32.7368 2.80405 
-33.6341 -34.8174 8.07882 2.7199 -34.8174 9.9518 9.99071 -34.8174 8.21467 
17.2615 -34.8174 6.98122 29.2864 -34.8174 2.80405 24.5323 -34.8174 5.35882 
31.8031 -34.2518 2.80405 39.0739 -31.779 2.80405 -46.3831 -27.5466 2.80405 
-48.1757 -25.3567 2.80405 -40.9049 -27.5466 9.1454 45.6232 -27.5466 2.80405 
39.0739 -27.5466 9.49832 46.3447 -26.9971 2.80405 -51.5503 -20.2758 2.80405 
-48.1757 -20.2758 8.15282 52.4723 -20.2758 2.80405 53.6155 -18.1804 2.80405 
-53.8521 -13.005 2.80405 55.9379 -13.005 2.80405 53.6155 -13.005 7.5547 
-54.4871 -5.73416 2.80405 57.7928 -5.73416 2.80405 -54.0311 1.53665 2.80405 
56.9441 1.53665 2.80405 53.6155 1.53665 9.66394 -52.2996 8.80745 2.80405 
-48.1757 8.80745 9.46878 54.778 8.80745 2.80405 53.6155 11.1619 2.80405 
53.6155 8.80745 5.24755 -48.7442 16.0783 2.80405 -48.1757 17.0265 2.80405 
-48.1757 16.0783 4.05744 50.6187 16.0783 2.80405 46.3447 20.4888 2.80405 
46.3447 16.0783 9.53412 -43.9698 23.3491 2.80405 -40.9049 27.1208 2.80405 
-40.9049 23.3491 8.77364 31.8031 29.2668 2.80405 42.5927 23.3491 2.80405 
39.0739 25.6323 2.80405 39.0739 23.3491 6.76858 -37.6806 30.6199 2.80405 
-33.6341 34.3946 2.80405 -33.6341 30.6199 8.03043 17.2615 36.057 2.80405 
17.2615 30.6199 8.91848 28.9539 30.6199 2.80405 24.5323 32.7196 2.80405 
24.5323 30.6199 5.78605 -28.8783 37.8907 2.80405 -26.3633 39.4929 2.80405 
-26.3633 37.8907 5.5003 -19.0925 42.0963 2.80405 -19.0925 37.8907 8.19138 
-11.8217 43.1668 2.80405 -11.8217 37.8907 8.97092 -4.5509 42.8866 2.80405 
-4.5509 37.8907 8.53491 2.7199 41.8573 2.80405 2.7199 37.8907 7.27963 
13.661 37.8907 2.80405 9.99071 39.5384 2.80405 9.99071 37.8907 4.95442 
-26.3633 -35.646 10.0749 -19.0925 -37.5684 10.0749 -11.8217 -37.876 10.0749 
-4.5509 -36.6528 10.0749 -29.1422 -34.8174 10.0749 -33.6341 -32.9761 10.0749 
-26.3633 -34.8174 10.8628 -19.0925 -34.8174 12.264 -11.8217 -34.8174 12.5111 
2.33683 -34.8174 10.0749 -4.5509 -34.8174 11.5635 2.7199 -34.6663 10.0749 
9.99071 -33.0246 10.0749 17.2615 -32.3885 10.0749 24.5323 -31.9626 10.0749 
31.8031 -30.2993 10.0749 -39.5479 -27.5466 10.0749 -40.9049 -26.1503 10.0749 
-33.6341 -27.5466 13.0448 -26.3633 -27.5466 15.0353 -19.0925 -27.5466 15.2163 
-11.8217 -27.5466 15.4275 -4.5509 -27.5466 14.5829 2.7199 -27.5466 13.7225 
9.99071 -27.5466 13.3786 17.2615 -27.5466 13.4194 24.5323 -27.5466 13.6391 
38.0949 -27.5466 10.0749 31.8031 -27.5466 12.5767 39.0739 -27.0981 10.0749 
46.3447 -21.4676 10.0749 -45.9455 -20.2758 10.0749 -48.1757 -16.5713 10.0749 
-40.9049 -20.2758 13.0463 -33.6341 -20.2758 15.9851 -26.3633 -20.2758 16.8892 
-19.0925 -20.2758 16.8395 -11.8217 -20.2758 16.3178 -4.5509 -20.2758 15.7617 
2.7199 -20.2758 14.9192 9.99071 -20.2758 15.2649 17.2615 -20.2758 16.1395 
24.5323 -20.2758 16.8882 31.8031 -20.2758 16.7182 39.0739 -20.2758 15.3852 
47.3745 -20.2758 10.0749 46.3447 -20.2758 10.9816 -49.5233 -13.005 10.0749 
-48.1757 -13.005 11.3182 -40.9049 -13.005 15.0791 -11.8217 -13.005 17.1627 
-4.5509 -13.005 16.5461 2.7199 -13.005 15.8096 9.99071 -13.005 15.9079 
51.9028 -13.005 10.0749 46.3447 -13.005 14.6745 53.6155 -8.54236 10.0749 
[...]
POINT_DATA 524
SCALARS ImageScalars float
LOOKUP_TABLE default
0 0 0 0 0 0 0 0 0 
0 0 0 0 0 0 0 0 0 
0 0 0 0 0 0 0 0 0 
0 0 0 0 0 0 0 0 0 
0 0 0 0 0 0 0 0 0 
0 0 0 0 0 0 0 0 0 
0 0 0 0 0 0 0 0 0 
0 0 0 0 0 0 0 0 0 
0 0 0 0 0 0 0 0 0 
0 0 0 0 0 0 0 0 0 
0 0 0 0 0 0 0 0 0 
0 0 0 0 0 0 0 0 0 
0 0 0 0 0 0 0 0 0 
0 0 0 0 0 0 0 0 0 
0 0 0 0 0 0 0 0 0 
0 0 0 0 0 0 0 0 0 
0 0 0 0 0 0 0 0 0 
0 0 0 0 0 0 0 0 0 
0 0 0 0 0 0 0 0 0 
0 0 0 0 0 0 0 0 0 
0 0 0 0 0 0 0 0 0 
0 0 0 0 0 0 0 0 0 
0 0 0 0 0 0 0 0 0 
0 0 0 0 0 0 0 0 0 
0 0 0 0 0 0 0 0 0 
0 0 0 0 0 0 0 0 0 
0 0 0 0 0 0 0 0 0 
0 0 0 0 0 0 0 0 0 
0 0 0 0 0 0 0 0 0 
0 0 0 0 0 0 0 0 0 
0 0 0 0 0 0 0 0 0 
0 0 0 0 0 0 0 0 0 
0 0 0 0 0 0 0 0 0 
0 0 0 0 0 0 0 0 0 
0 0 0 0 0 0 0 0 0 
0 0 0 0 0 0 0 0 0 
0 0 0 0 0 0 0 0 0 
0 0 0 0 0 0 0 0 0 
0 0 0 0 0 0 0 0 0 
0 0 0 0 0 0 0 0 0 
0 0 0 0 0 0 0 0 0 
0 0 0 0 0 0 0 0 0 
0 0 0 0 0 0 0 0 0 
0 0 0 0 0 0 0 0 0 
0 0 0 0 0 0 0 0 0 
0 0 0 0 0 0 0 0 0 
0 0 0 0 0 0 0 0 0 
0 0 0 0 0 0 0 0 0 
0 0 0 0 0 0 0 0 0 
0 0 0 0 0 0 0 0 0 
0 0 0 0 0 0 0 0 0 
0 0 0 0 0 0 0 0 0 
0 0 0 0 0 0 0 0 0 
0 0 0 0 0 0 0 0 0 
0 0 0 0 0 0 0 0 0 
0 0 0 0 0 0 0 0 0 
0 0 0 0 0 0 0 0 0 
0 0 0 0 0 0 0 0 0 
0 0 
NORMALS Normals float
0.0115358 0.0136237 0.999841 0.142572 0.488073 0.86108 -0.0554916 0.473735 0.878917 
0.194577 0.430771 0.881235 0.108857 0.311249 0.944073 0.020811 0.248266 0.968468 
-0.0436387 0.174071 0.983766 -0.0803853 0.20682 0.975071 -0.0406069 0.217952 0.975114 
0.0292145 0.320912 0.946658 -0.0238602 0.374498 0.926921 -0.101229 0.440667 0.891945 
-0.201184 0.496527 0.844385 0.284594 0.310638 0.906923 0.0914179 0.264457 0.960055 
0.00937818 0.164955 0.986256 -0.0260743 0.0727402 0.99701 -0.0919275 0.0411391 0.994916 
-0.0683501 0.0335573 0.997097 0.0341969 0.0679436 0.997103 0.0761668 0.159452 0.984263 
0.00237389 0.107812 0.994169 -0.0117655 0.165959 0.986062 -0.076323 0.274772 0.958475 
-0.239207 0.343841 0.908049 0.531208 0.213158 0.819989 0.19754 0.209506 0.957646 
0.0375516 0.126994 0.991192 -0.0867748 0.0861813 0.992493 -0.108606 -0.045764 0.993031 
-0.0787458 -0.0569495 0.995267 -0.0571704 0.17004 0.983777 0.0938706 0.0853494 0.991919 
0.0639361 0.127751 0.989743 -0.00483457 0.00247695 0.999985 0.0564378 0.0860327 0.994693 
0.0128834 0.13282 0.991056 -0.143943 0.229097 0.962702 -0.339084 0.288454 0.895442 
0.523367 -0.00786847 0.852071 0.250126 0.0609236 0.966295 -0.0400862 0.0713119 0.996648 
-0.168199 0.0436562 0.984786 -0.164412 0.0265318 0.986035 0.125649 -0.0197819 0.991877 
0.083626 0.105365 0.990911 -0.00201788 0.0739841 0.997257 0.00967887 0.0276133 0.999572 
-0.0253737 0.238755 0.970748 -0.0361833 0.0800219 0.996136 0.124141 0.0976997 0.987443 
0.0662532 0.13198 0.989036 -0.104486 0.0995907 0.989527 -0.334232 0.12299 0.934432 
0.571605 -0.138554 0.808747 0.275997 -0.114504 0.954314 0.0173546 -0.0324166 0.999324 
-0.124937 0.0536562 0.990713 -0.164682 0.135966 0.97693 -0.0180374 0.168386 0.985556 
0.036884 -0.105414 0.993744 0.0196739 0.0151868 0.999691 0.234974 0.0899965 0.967826 
0.00691384 0.0167597 0.999836 0.0121415 0.000814795 0.999926 -0.116569 0.103602 0.987764 
0.108677 0.0858362 0.990364 0.00994712 0.0611446 0.998079 -0.14829 -0.0218225 0.988703 
-0.360736 -0.0447901 0.931592 0.323629 -0.235196 0.916486 0.133646 -0.119209 0.983833 
0.00128135 0.0131053 0.999913 -0.0651837 0.12404 0.990134 -0.108622 0.155953 0.981774 
-0.00814374 0.0174543 0.999815 0.133941 0.0681117 0.988646 0.0116082 -0.162589 0.986626 
0.00651908 0.0180445 0.999816 0.0864531 -0.0222223 0.996008 -0.0401524 -0.0802981 0.995962 
-0.199836 -0.113231 0.973265 -0.411341 -0.199719 0.889332 0.470692 -0.346799 0.811283 
0.265728 -0.191703 0.944795 0.111237 -0.0630247 0.991793 -0.0121428 0.0183313 0.999758 
-0.117566 0.0751691 0.990216 -0.0487147 0.10203 0.993588 0.0442448 0.064584 0.996931 
0.0125347 0.0253932 0.999599 0.00753288 0.00876036 0.999933 0.00743077 -0.115058 0.993331 
-0.0797847 -0.205642 0.97537 -0.261649 -0.339146 0.903615 -0.566107 -0.488334 0.664117 
0.414519 -0.345861 0.841757 0.215366 -0.180517 0.959704 0.0741529 -0.0826325 0.993818 
-0.029324 0.0054458 0.999555 -0.0153711 0.0881594 0.995988 0.0566396 0.0703631 0.995912 
-0.0417441 0.0672853 0.99686 -0.133259 -0.0612048 0.98919 -0.14374 -0.226689 0.963302 
-0.254281 -0.440341 0.86107 0.382485 -0.380166 0.842128 0.160679 -0.237022 0.958125 
0.0552234 -0.153343 0.986629 0.0143249 -0.100285 0.994856 0.0195774 -0.119127 0.992686 
-0.119672 -0.166524 0.978748 -0.284448 -0.292561 0.912961 -0.421348 -0.554921 0.717306 
0.288551 -0.566105 0.772181 0.117737 -0.46151 0.879287 0.0254858 -0.45702 0.889091 
-0.0424965 -0.495127 0.867781 -0.229156 -0.636811 0.736179 0.14306 0.499367 0.854498 
-0.0637644 0.530341 0.845383 0.228151 0.498635 0.836248 0.369288 0.77774 0.508671 
0.153444 0.497513 0.853777 0.188321 0.477984 0.857943 0.256924 0.638621 0.725364 
-0.0902079 0.500186 0.861207 -0.11005 0.437017 0.892695 -0.126131 0.553262 0.823403 
-0.0589113 0.393499 0.917436 -0.0973692 0.601458 0.792948 -0.0263668 0.452499 0.891375 
-0.130916 0.745944 0.653014 -0.0680555 0.518946 0.852094 -0.138856 0.849813 0.508465 
-0.110659 0.519773 0.847107 -0.175356 0.913152 0.367972 -0.203899 0.513151 0.833727 
0.293613 0.502078 0.813455 0.363458 0.485063 0.795369 0.43907 0.606238 0.663094 
-0.212783 0.511923 0.832261 -0.278529 0.501563 0.819058 -0.360209 0.713763 0.600659 
0.504654 0.364733 0.782492 0.575923 0.307525 0.757457 0.656045 0.411713 0.632532 
-0.404556 0.410793 0.817057 -0.430638 0.390322 0.813756 -0.526359 0.478481 0.702853 
0.615051 0.236964 0.752037 -0.531047 0.290441 0.79601 -0.780681 0.308728 0.543344 
0.673419 7.10901e-05 0.739261 -0.647919 0.0752521 0.757983 -0.70915 0.070472 0.701527 
0.644283 -0.173322 0.744889 0.64181 -0.282714 0.712848 -0.687711 -0.0554644 0.723863 
-0.763943 -0.0743045 0.640991 0.631163 -0.306185 0.71266 0.672602 -0.319483 0.667486 
-0.660589 -0.275493 0.698374 -0.845101 -0.327356 0.422661 0.557256 -0.391034 0.732501 
0.815702 -0.508826 0.275186 0.542712 -0.405159 0.735738 -0.432189 -0.58358 0.687493 
-0.575595 -0.493907 0.651726 -0.571214 -0.500317 0.65069 0.534579 -0.419864 0.733443 
0.710279 -0.530702 0.462448 0.506748 -0.43622 0.743585 -0.426413 -0.58806 0.687283 
-0.366725 -0.619819 0.693784 -0.453252 -0.617942 0.642425 0.503261 -0.457169 0.733297 
0.607271 -0.561387 0.562198 0.447783 -0.530003 0.72013 -0.432308 -0.75222 0.497267 
-0.437233 -0.628788 0.643003 -0.462154 -0.620713 0.633348 -0.478034 -0.869266 0.125935 
0.373267 -0.612267 0.696994 0.508244 -0.719176 0.473787 0.290087 -0.679136 0.674258 
0.160957 -0.709714 0.685856 0.0398507 -0.745516 0.665295 -0.135258 -0.780299 0.610605 
-0.428392 -0.75676 0.493756 -0.298386 -0.777964 0.552936 -0.437957 -0.77453 0.456395 
0.104987 -0.99251 0.062468 -0.0190444 -0.999322 0.0315129 0.403942 0.84553 0.349156 
0.2961 0.883884 0.362042 0.121513 0.944388 0.305559 -0.0387646 0.945927 0.322055 
-0.14929 0.932238 0.329613 -0.202288 0.930025 0.306811 -0.177213 0.937346 0.299964 
-0.152425 0.946103 0.285753 -0.179299 0.938386 0.295437 0.462704 0.822819 0.32996 
0.547659 0.779067 0.305162 -0.210081 0.934431 0.287585 -0.259389 0.920684 0.291646 
-0.420994 0.845511 0.328444 0.698593 0.67383 0.240666 0.75106 0.621416 0.223049 
-0.565972 0.776107 0.278088 -0.60565 0.747889 0.271752 0.86649 0.4491 0.217957 
-0.757248 0.589164 0.281889 -0.82213 0.510902 0.251161 0.963899 0.219394 0.150883 
-0.914383 0.327394 0.238152 0.990052 -0.0143898 0.139967 -0.967013 0.0853128 0.240015 
0.964121 -0.19615 0.178872 -0.961574 -0.167633 0.217429 0.90263 -0.367118 0.224685 
-0.919427 -0.362343 0.152843 -0.873469 -0.461768 0.154345 0.828924 -0.510135 0.229452 
0.821891 -0.520376 0.23174 -0.799594 -0.577925 0.163253 -0.673004 -0.727642 0.132675 
0.766999 -0.572414 0.289921 0.752337 -0.602091 0.267349 -0.626197 -0.770709 0.117833 
-0.556635 -0.825391 0.0942728 0.712469 -0.657535 0.245023 0.670555 -0.711042 0.211603 
-0.475758 -0.8795 -0.0115469 -0.483273 -0.874263 0.0459415 -0.478513 -0.877026 0.0430251 
-0.466948 -0.883179 -0.0442108 0.598198 -0.782211 0.174087 0.527456 -0.833447 0.164791 
0.31087 -0.945087 0.100847 -0.158789 -0.986422 -0.0419318 -0.377464 -0.922836 -0.0767703 
-0.447209 -0.890765 -0.0808811 -0.443892 -0.892076 -0.084621 -0.440104 -0.8568 -0.268705 
0.11528 -0.992175 0.047948 0.0994865 -0.994868 0.0184184 -0.0755171 -0.996845 -0.0244204 
-0.025815 -0.998622 -0.0456887 0.457661 0.873585 -0.165514 0.283356 0.941603 -0.181916 
0.096225 0.978073 -0.1847 -0.0555043 0.98121 -0.184785 -0.175376 0.963068 -0.204313 
-0.198447 0.952949 -0.229143 -0.160735 0.959847 -0.229908 -0.146399 0.966508 -0.210782 
-0.179099 0.96844 -0.173342 0.530052 0.826903 -0.187818 0.5902 0.775588 -0.223894 
0.412448 0.739573 -0.5319 -0.173642 0.626432 -0.759889 -0.120117 0.776023 -0.619161 
-0.0969617 0.86745 -0.487985 -0.225817 0.958781 -0.172472 -0.164504 0.93004 -0.32858 
-0.25311 0.951358 -0.175653 -0.436386 0.880118 -0.186978 0.739669 0.621853 -0.25727 
0.779636 0.565239 -0.26958 0.537617 0.53323 -0.653172 -0.601124 0.779622 -0.175614 
-0.37461 0.72157 -0.582241 -0.621103 0.763689 -0.176098 0.856242 0.423703 -0.295508 
0.693202 0.413777 -0.590135 -0.803976 0.560274 -0.199288 -0.848234 0.487784 -0.206316 
0.934312 0.192642 -0.299918 -0.923705 0.315359 -0.217528 -0.821786 0.323374 -0.469145 
0.950457 0.0110011 -0.310662 -0.974846 0.0644197 -0.213366 0.953933 -0.14454 -0.262907 
-0.954015 -0.18936 -0.232376 -0.791612 -0.192443 -0.579928 0.913139 -0.327909 -0.242183 
0.739714 -0.237377 -0.629663 -0.892356 -0.379651 -0.244061 -0.861175 -0.443101 -0.249076 
-0.853101 -0.379094 -0.358478 0.854281 -0.486089 -0.184179 0.84602 -0.501351 -0.181376 
0.840704 -0.478289 -0.253884 -0.76286 -0.591572 -0.260936 -0.64462 -0.715454 -0.269426 
-0.594099 -0.571028 -0.566545 0.782914 -0.603683 -0.150374 0.740707 -0.649241 -0.17274 
0.656123 -0.534457 -0.532783 -0.396812 -0.841087 -0.367578 -0.551138 -0.783803 -0.286181 
-0.487469 -0.817573 -0.30651 -0.447831 -0.76424 -0.464096 0.684515 -0.695726 -0.217727 
0.612888 -0.751648 -0.243707 0.525286 -0.656072 -0.54189 -0.401924 -0.765923 -0.501817 
-0.264994 -0.647342 -0.714652 -0.387668 -0.837119 -0.385935 -0.380431 -0.814825 -0.437416 
-0.330491 -0.775414 -0.53806 0.499375 -0.818007 -0.285464 0.436348 -0.845618 -0.307458 
0.401134 -0.795647 -0.453914 0.233551 -0.877035 -0.419837 0.142115 -0.717513 -0.681894 
0.0487097 -0.876678 -0.478605 0.0139094 -0.658471 -0.752478 -0.0753729 -0.858643 -0.507002 
-0.0828853 -0.645901 -0.758909 -0.208621 -0.813975 -0.542146 -0.173076 -0.687745 -0.705019 
-0.368434 -0.785815 -0.49674 -0.303913 -0.809808 -0.501845 -0.295227 -0.762125 -0.5762 
0.215993 0.668277 -0.711866 0.110121 0.683106 -0.721969 -0.047346 0.69906 -0.713494 
-0.158573 0.663102 -0.731539 0.273887 0.65975 -0.699797 0.36839 0.615086 -0.697107 
0.204298 0.634643 -0.745312 0.0879912 0.547058 -0.832457 -0.0435014 0.533709 -0.844549 
-0.172133 0.618437 -0.76675 -0.156088 0.564362 -0.810637 -0.170984 0.614206 -0.7704 
-0.0851943 0.629394 -0.772402 -0.0463491 0.677923 -0.733671 -0.105946 0.731968 -0.673052 
-0.230719 0.725548 -0.648343 0.485239 0.493989 -0.721469 0.502059 0.481307 -0.718527 
0.314896 0.415312 -0.853438 0.135375 0.326881 -0.935319 0.0248963 0.289009 -0.957003 
-0.0438875 0.246406 -0.968173 -0.109135 0.259619 -0.959525 -0.0813997 0.301717 -0.949916 
-0.0193615 0.378655 -0.925335 0.0149098 0.464978 -0.885197 -0.04531 0.541864 -0.839244 
-0.344393 0.701266 -0.624195 -0.197467 0.624194 -0.755902 -0.364561 0.695258 -0.619444 
-0.583067 0.51854 -0.625419 0.585991 0.385132 -0.712944 0.655563 0.268068 -0.705958 
0.426722 0.326692 -0.843315 0.231465 0.269117 -0.93488 0.0535846 0.206369 -0.977006 
-0.0407757 0.203056 -0.978318 -0.0704505 0.110584 -0.991367 -0.0969894 0.131316 -0.986585 
-0.0345229 0.13582 -0.990132 0.0808808 0.168028 -0.982459 0.1057 0.265194 -0.958384 
0.0384747 0.313138 -0.948928 -0.0907819 0.392128 -0.91542 -0.292836 0.437679 -0.850108 
-0.60709 0.488366 -0.626849 -0.575881 0.479146 -0.662404 0.694268 0.156769 -0.702435 
0.626621 0.149828 -0.764786 0.382197 0.170898 -0.908141 -0.118692 0.242237 -0.96293 
-0.0921917 0.14771 -0.984725 -0.0439656 0.157822 -0.986488 0.116594 0.0915813 -0.988948 
-0.71814 0.3115 -0.622288 -0.521616 0.268095 -0.809964 -0.776052 0.161605 -0.609612 
0.699444 -0.00888622 -0.714632 0.658516 -0.00215982 -0.752563 0.390901 0.0468 -0.919242 
-0.0946156 0.0205028 -0.995303 0.0477504 0.00645884 -0.998838 -0.463501 0.0700039 -0.883327 
-0.796048 0.0668079 -0.601535 -0.784209 -0.137681 -0.60503 -0.758285 0.0677631 -0.648391 
0.701523 -0.100823 -0.705478 0.711904 -0.188677 -0.676457 0.661921 -0.093448 -0.743726 
0.374026 -0.0606206 -0.925435 -0.107183 -0.0537642 -0.992785 0.0925867 -0.0724848 -0.993063 
-0.774043 -0.190211 -0.603885 -0.498901 -0.141712 -0.854994 0.70683 -0.224135 -0.670936 
0.402727 -0.196571 -0.893963 0.204842 -0.116626 -0.971822 -0.200305 -0.0625744 -0.977733 
0.0100408 -0.0318289 -0.999443 0.198693 -0.0983558 -0.975114 -0.260398 -0.283954 -0.922802 
-0.699886 -0.357634 -0.61827 -0.586736 -0.547558 -0.596592 -0.546601 -0.321898 -0.773052 
0.63202 -0.370722 -0.680526 0.604154 -0.474957 -0.639855 0.508857 -0.323967 -0.797565 
0.284779 -0.224648 -0.931898 0.0633853 -0.183952 -0.980889 0.0149102 -0.145709 -0.989215 
-0.159352 -0.248877 -0.955336 -0.039895 -0.135268 -0.990006 0.0558078 -0.0842586 -0.99488 
0.0706025 -0.17976 -0.981174 -0.00135765 -0.340075 -0.940397 -0.157912 -0.429219 -0.889289 
-0.568798 -0.564352 -0.598311 -0.394407 -0.666847 -0.632265 -0.327487 -0.515583 -0.791787 
0.587107 -0.497709 -0.638429 0.450154 -0.571141 -0.68641 0.340992 -0.413975 -0.844008 
0.177294 -0.313025 -0.93305 0.0340452 -0.236554 -0.971022 -0.0906725 -0.266897 -0.95945 
-0.0837929 -0.219225 -0.972069 -0.0326755 -0.188945 -0.981444 -0.0414791 -0.254947 -0.966065 
-0.232403 -0.596951 -0.767879 -0.0985415 -0.401998 -0.910323 -0.230765 -0.646891 -0.726829 
-0.161684 -0.562106 -0.811108 -0.301178 -0.692335 -0.655717 -0.263921 -0.693432 -0.670446 
-0.247976 -0.666946 -0.702631 0.401413 -0.581235 -0.707838 0.300738 -0.595462 -0.744971 
0.26722 -0.497073 -0.825537 0.107689 -0.615974 -0.780371 0.0755024 -0.446127 -0.891779 
0.00138148 -0.588259 -0.808672 -0.0446559 -0.386663 -0.921139 -0.0752622 -0.542858 -0.836446 
-0.0688537 -0.366551 -0.927847 -0.13554 -0.532918 -0.835241 -0.093827 -0.403338 -0.910228 
-0.228755 -0.587465 -0.776245 -0.211656 -0.566021 -0.796758 -0.187225 -0.515728 -0.836045 
0.208069 0.14726 -0.966965 0.0555149 0.187534 -0.980688 -0.0532437 0.203826 -0.977558 
0.186852 0.143879 -0.971795 0.0565586 0.278207 -0.958854 -0.0780685 0.342791 -0.936162 
-0.273797 0.285902 -0.918311 0.208912 0.146069 -0.966964 0.207797 0.145921 -0.967227 
0.0622617 0.154524 -0.986025 -0.111602 0.237642 -0.96492 -0.0677912 0.203652 -0.976694 
-0.119917 0.244648 -0.962168 -0.143318 0.115725 -0.982887 0.190629 0.117101 -0.974653 
0.201616 0.121097 -0.97195 0.110045 0.165155 -0.980109 -0.0507273 0.192781 -0.97993 
-0.339948 0.228632 -0.91223 -0.269479 0.219989 -0.937542 0.2772 0.0481595 -0.959605 
0.211463 0.03963 -0.976582 0.110406 0.0380473 -0.993158 0.0518452 0.104933 -0.993127 
-0.122599 0.246296 -0.961409 -0.108196 0.0302942 -0.993668 -0.185923 0.091719 -0.978274 
0.125035 -0.000944862 -0.992152 0.188517 -0.00664997 -0.982047 0.123919 0.00929467 -0.992249 
-0.0207242 0.0367354 -0.99911 -0.365781 0.056716 -0.928971 -0.215662 0.0396899 -0.975661 
0.24063 -0.0790951 -0.967389 0.198655 -0.103574 -0.974581 0.188545 -0.0811845 -0.978703 
0.124732 -0.0804379 -0.988924 0.141525 -0.0927141 -0.985583 -0.108181 -0.0329176 -0.993586 
-0.305258 0.0186001 -0.952088 -0.365054 0.044517 -0.929921 0.203883 -0.0904021 -0.974812 
0.211619 -0.0929712 -0.97292 0.213178 -0.0914047 -0.972728 0.146369 -0.0651779 -0.987081 
-0.0209836 -0.0971525 -0.995048 -0.3639 -0.1241 -0.923134 -0.258137 -0.272894 -0.926765 
-0.231807 -0.112651 -0.966217 0.166512 -0.110455 -0.979833 0.0667057 -0.174751 -0.98235 
0.0991556 -0.106567 -0.989349 0.0171441 -0.14619 -0.989108 0.0977161 -0.16818 -0.980901 
0.0118034 -0.228004 -0.973589 -0.205599 -0.0848847 -0.974948 -0.184074 -0.184616 -0.965419 
-0.20734 -0.118129 -0.971111 0.165777 -0.12471 -0.978246 0.0446151 -0.268649 -0.962204 
0.109561 -0.160158 -0.980992 -0.244429 -0.279733 -0.928442 -0.108431 -0.313329 -0.943434 
-0.073002 -0.23635 -0.968922 -0.00268339 -0.165211 -0.986255 -0.086179 -0.248285 -0.964846 
-0.0788447 -0.24887 -0.965322 -0.076786 -0.247717 -0.965785 
