# vtk DataFile Version 4.2
vtk output
ASCII
DATASET POLYDATA
POINTS 548 float
-22.4646 -47.4238 -15.973 -14.1412 -47.4238 -18.1038 -5.8178 -47.4238 -18.467 
2.5056 -47.4238 -17.4999 10.829 -47.4238 -15.7812 19.1524 -47.4238 -15.0495 
-30.788 -39.1004 -17.7631 -22.4646 -39.1004 -20.2285 -14.1412 -39.1004 -21.0143 
-5.8178 -39.1004 -20.4052 2.5056 -39.1004 -19.2715 10.829 -39.1004 -18.4329 
19.1524 -39.1004 -18.3637 27.4758 -39.1004 -17.0351 35.7992 -39.1004 -14.5339 
-39.1114 -30.777 -17.7415 -30.788 -30.777 -20.5356 -22.4646 -30.777 -21.5311 
-14.1412 -30.777 -21.6446 -5.8178 -30.777 -20.8497 2.5056 -30.777 -19.347 
10.829 -30.777 -19.0459 19.1524 -30.777 -19.8713 27.4758 -30.777 -18.7211 
35.7992 -30.777 -17.4125 -47.4348 -22.4536 -14.7122 -39.1114 -22.4536 -19.6394 
-30.788 -22.4536 -21.467 -22.4646 -22.4536 -22.2698 -14.1412 -22.4536 -21.2784 
-5.8178 -22.4536 -19.9764 2.5056 -22.4536 -18.5833 10.829 -22.4536 -18.6648 
19.1524 -22.4536 -19.5133 27.4758 -22.4536 -19.4183 35.7992 -22.4536 -18.2577 
44.1226 -22.4536 -15.6749 -47.4348 -14.1302 -16.8738 -39.1114 -14.1302 -20.6003 
-30.788 -14.1302 -21.7287 -22.4646 -14.1302 -21.3621 -14.1412 -14.1302 -20.4789 
-5.8178 -14.1302 -20.3704 2.5056 -14.1302 -19.754 10.829 -14.1302 -18.7202 
19.1524 -14.1302 -18.6897 27.4758 -14.1302 -18.5161 35.7992 -14.1302 -17.8381 
44.1226 -14.1302 -16.0432 -47.4348 -5.80682 -17.026 -39.1114 -5.80682 -20.384 
-30.788 -5.80682 -21.0379 -22.4646 -5.80682 -20.0422 -14.1412 -5.80682 -19.881 
-5.8178 -5.80682 -22.2381 2.5056 -5.80682 -20.4829 10.829 -5.80682 -19.1568 
19.1524 -5.80682 -18.0424 27.4758 -5.80682 -18.4657 35.7992 -5.80682 -18.0849 
44.1226 -5.80682 -16.6372 -47.4348 2.51657 -16.2908 -39.1114 2.51657 -19.4166 
-30.788 2.51657 -19.9904 -22.4646 2.51657 -18.9923 -14.1412 2.51657 -18.5144 
-5.8178 2.51657 -19.9951 2.5056 2.51657 -17.7005 10.829 2.51657 -18.6137 
19.1524 2.51657 -17.7479 27.4758 2.51657 -18.6531 35.7992 2.51657 -18.4332 
44.1226 2.51657 -16.8105 -47.4348 10.84 -15.6869 -39.1114 10.84 -18.4487 
-30.788 10.84 -19.402 -22.4646 10.84 -19.1639 -14.1412 10.84 -18.6723 
-5.8178 10.84 -19.3605 2.5056 10.84 -19.2821 10.829 10.84 -16.5877 
19.1524 10.84 -16.9762 27.4758 10.84 -18.0975 35.7992 10.84 -18.2297 
44.1226 10.84 -16.3858 -39.1114 19.1634 -17.7225 -30.788 19.1634 -19.6953 
-22.4646 19.1634 -19.8194 -14.1412 19.1634 -19.0008 -5.8178 19.1634 -17.4675 
2.5056 19.1634 -17.0791 10.829 19.1634 -17.1813 19.1524 19.1634 -17.6707 
27.4758 19.1634 -18.3456 35.7992 19.1634 -17.6785 44.1226 19.1634 -15.6686 
-39.1114 27.4868 -16.3018 -30.788 27.4868 -18.3675 -22.4646 27.4868 -19.2679 
-14.1412 27.4868 -18.3383 -5.8178 27.4868 -17.6434 2.5056 27.4868 -17.6717 
10.829 27.4868 -17.9117 19.1524 27.4868 -18.6687 27.4758 27.4868 -17.4438 
35.7992 27.4868 -16.0444 -30.788 35.8102 -15.4338 -22.4646 35.8102 -16.5657 
-14.1412 35.8102 -16.7132 -5.8178 35.8102 -16.3764 2.5056 35.8102 -16.6347 
10.829 35.8102 -16.9669 19.1524 35.8102 -17.1547 27.4758 35.8102 -16.0177 
-22.4646 -49.2026 -14.1848 -14.1412 -51.698 -14.1848 -5.8178 -52.7387 -14.1848 
-5.8178 -55.7472 -7.60891 2.5056 -51.5952 -14.1848 2.5056 -55.7472 -6.27838 
10.829 -49.3822 -14.1848 19.1524 -48.4028 -14.1848 -25.6426 -47.4238 -14.1848 
-30.788 -43.6766 -14.1848 -30.788 -47.4238 -7.37463 21.6877 -47.4238 -14.1848 
27.4758 -43.7097 -14.1848 27.4758 -47.4238 -9.30879 35.7992 -39.6219 -14.1848 
-36.2792 -39.1004 -14.1848 -39.1114 -36.4117 -14.1848 -39.1114 -39.1004 -10.4713 
36.478 -39.1004 -14.1848 44.1226 -39.1004 -6.46021 -43.4874 -30.777 -14.1848 
-47.4348 -23.5344 -14.1848 -47.4348 -30.777 -7.31678 42.6176 -30.777 -14.1848 
44.1226 -28.5766 -14.1848 44.1226 -30.777 -13.398 52.446 -30.777 -6.12888 
-47.9523 -22.4536 -14.1848 46.6355 -22.4536 -14.1848 52.446 -22.4536 -9.28111 
-50.288 -14.1302 -14.1848 48.0321 -14.1302 -14.1848 52.446 -14.1302 -11.7815 
-50.6087 -5.80682 -14.1848 50.2398 -5.80682 -14.1848 52.446 -5.80682 -13.257 
60.7694 -5.80682 -6.40388 -49.9745 2.51657 -14.1848 50.2466 2.51657 -14.1848 
52.446 2.51657 -13.0884 -49.2356 10.84 -14.1848 -47.4348 16.3387 -14.1848 
48.6691 10.84 -14.1848 52.446 10.84 -11.8126 -46.0428 19.1634 -14.1848 
-47.4348 19.1634 -13.0081 46.6023 19.1634 -14.1848 44.1226 23.7191 -14.1848 
52.446 19.1634 -8.40024 -42.0837 27.4868 -14.1848 -47.4348 27.4868 -7.64165 
-39.1114 31.1865 -14.1848 40.5789 27.4868 -14.1848 35.7992 33.7467 -14.1848 
44.1226 27.4868 -12.2526 -33.4388 35.8102 -14.1848 -39.1114 35.8102 -9.92959 
-30.788 37.6313 -14.1848 -22.4646 40.1219 -14.1848 -14.1412 41.6759 -14.1848 
-5.8178 42.3054 -14.1848 2.5056 43.0289 -14.1848 10.829 42.0548 -14.1848 
19.1524 41.7999 -14.1848 33.7367 35.8102 -14.1848 27.4758 38.9925 -14.1848 
35.7992 35.8102 -13.2989 -30.788 44.1336 -7.09392 -22.4646 44.1336 -11.0962 
-14.1412 44.1336 -12.8134 -5.8178 44.1336 -13.4115 2.5056 44.1336 -13.6838 
10.829 44.1336 -12.8545 19.1524 44.1336 -12.0985 27.4758 44.1336 -9.15084 
-5.8178 -56.2709 -5.86142 2.5056 -55.8783 -5.86142 -30.788 -48.0274 -5.86142 
-22.4646 -52.109 -5.86142 -9.51583 -55.7472 -5.86142 -14.1412 -55.0001 -5.86142 
-5.8178 -55.7472 -4.49324 3.22887 -55.7472 -5.86142 2.5056 -55.7472 -5.6294 
10.829 -54.1445 -5.86142 19.1524 -51.1758 -5.86142 27.4758 -48.8809 -5.86142 
-31.6505 -47.4238 -5.86142 -39.1114 -41.5073 -5.86142 -30.788 -47.4238 -3.05589 
19.1524 -47.4238 -0.824611 30.7323 -47.4238 -5.86142 27.4758 -47.4238 -3.75349 
35.7992 -44.8904 -5.86142 44.1226 -39.4364 -5.86142 -41.5634 -39.1004 -5.86142 
-47.4348 -31.7655 -5.86142 44.5183 -39.1004 -5.86142 44.1226 -39.1004 -5.04275 
52.446 -30.9581 -5.86142 -48.1056 -30.777 -5.86142 52.588 -30.777 -5.86142 
52.446 -30.777 -4.88267 -52.0884 -22.4536 -5.86142 55.8941 -22.4536 -5.86142 
-54.5358 -14.1302 -5.86142 59.0955 -14.1302 -5.86142 60.7694 -7.67953 -5.86142 
60.7694 -14.1302 0.356812 -55.4427 -5.80682 -5.86142 -55.7582 -5.80682 1.80352 
61.1284 -5.80682 -5.86142 60.7694 -1.71126 -5.86142 -55.3874 2.51657 -5.86142 
-55.7582 2.51657 -1.11079 60.2906 2.51657 -5.86142 60.7694 2.51657 -4.08052 
-54.4774 10.84 -5.86142 57.7229 10.84 -5.86142 -52.137 19.1634 -5.86142 
54.3281 19.1634 -5.86142 52.446 22.4847 -5.86142 -48.5461 27.4868 -5.86142 
-47.4348 29.2851 -5.86142 49.426 27.4868 -5.86142 44.1226 34.6655 -5.86142 
-42.4574 35.8102 -5.86142 -39.1114 39.092 -5.86142 43.0921 35.8102 -5.86142 
35.7992 42.0654 -5.86142 -32.1605 44.1336 -5.86142 -30.788 44.9819 -5.86142 
-22.4646 48.5011 -5.86142 -14.1412 50.5128 -5.86142 -5.8178 51.1016 -5.86142 
2.5056 50.7163 -5.86142 10.829 49.3753 -5.86142 19.1524 48.0937 -5.86142 
31.9358 44.1336 -5.86142 27.4758 46.1551 -5.86142 -14.1412 52.457 0.700423 
-5.8178 52.457 -1.53124 2.5056 52.457 -0.793546 -22.4646 -48.961 2.46197 
-14.1412 -50.5029 2.46197 -5.8178 -51.6773 2.46197 2.5056 -49.7664 2.46197 
10.829 -47.8524 2.46197 -39.1114 -41.0412 2.46197 -27.2265 -47.4238 2.46197 
-30.788 -46.1919 2.46197 -22.4646 -47.4238 4.62182 -14.1412 -47.4238 5.97305 
-5.8178 -47.4238 5.75311 2.5056 -47.4238 4.53386 11.8128 -47.4238 2.46197 
10.829 -47.4238 2.75894 19.1524 -44.08 2.46197 27.4758 -42.5859 2.46197 
35.7992 -40.1558 2.46197 -41.3127 -39.1004 2.46197 -47.4348 -31.9985 2.46197 
-39.1114 -39.1004 6.43508 -5.8178 -39.1004 10.4546 2.5056 -39.1004 8.70529 
10.829 -39.1004 7.23217 19.1524 -39.1004 6.10334 27.4758 -39.1004 5.43308 
37.8572 -39.1004 2.46197 35.7992 -39.1004 3.5326 44.1226 -35.8685 2.46197 
-48.2951 -30.777 2.46197 -47.4348 -30.777 4.95714 10.829 -30.777 9.95123 
19.1524 -30.777 9.64964 27.4758 -30.777 9.96134 35.7992 -30.777 9.68583 
50.8809 -30.777 2.46197 44.1226 -30.777 7.93177 52.446 -29.2263 2.46197 
-52.4351 -22.4536 2.46197 57.6371 -22.4536 2.46197 52.446 -22.4536 9.70525 
60.7694 -15.2841 2.46197 -54.7617 -14.1302 2.46197 -55.7582 -6.02017 2.46197 
61.193 -14.1302 2.46197 60.7694 -14.1302 3.47772 -55.7835 -5.80682 2.46197 
-55.7582 -5.80682 2.57721 62.6506 -5.80682 2.46197 60.7694 -5.80682 8.42787 
-56.0171 2.51657 2.46197 -55.7582 4.60499 2.46197 -55.7582 2.51657 3.65067 
62.0986 2.51657 2.46197 60.7694 6.58972 2.46197 60.7694 2.51657 6.40314 
-55.0007 10.84 2.46197 59.2778 10.84 2.46197 -52.8454 19.1634 2.46197 
55.0272 19.1634 2.46197 52.446 22.8378 2.46197 52.446 19.1634 7.18851 
-49.3499 27.4868 2.46197 -47.4348 30.5667 2.46197 -47.4348 27.4868 9.35608 
49.0807 27.4868 2.46197 44.1226 33.4661 2.46197 44.1226 27.4868 9.98442 
-43.6628 35.8102 2.46197 -39.1114 40.4834 2.46197 41.9202 35.8102 2.46197 
35.7992 41.0857 2.46197 35.7992 35.8102 10.0088 -34.5765 44.1336 2.46197 
-30.788 46.7257 2.46197 -22.4646 50.726 2.46197 10.829 51.372 2.46197 
19.1524 49.0822 2.46197 30.9099 44.1336 2.46197 27.4758 45.9719 2.46197 
27.4758 44.1336 7.36273 -15.887 52.457 2.46197 -14.1412 52.8834 2.46197 
-14.1412 52.457 5.96602 -5.8178 53.4857 2.46197 6.43568 52.457 2.46197 
2.5056 53.4103 2.46197 -30.788 -40.0946 10.7854 -22.4646 -41.5016 10.7854 
-14.1412 -40.955 10.7854 -33.129 -39.1004 10.7854 -39.1114 -35.9536 10.7854 
-30.788 -39.1004 11.6858 -22.4646 -39.1004 12.7108 -7.70251 -39.1004 10.7854 
-14.1412 -39.1004 12.01 -5.8178 -38.218 10.7854 2.5056 -31.6429 10.7854 
-44.2483 -30.777 10.7854 -47.4348 -26.6932 10.7854 -39.1114 -30.777 14.4348 
-30.788 -30.777 17.3651 -22.4646 -30.777 16.9817 -14.1412 -30.777 15.6078 
-5.8178 -30.777 13.5385 4.33428 -30.777 10.7854 2.5056 -30.777 11.0242 
10.829 -27.0227 10.7854 19.1524 -27.55 10.7854 27.4758 -29.1126 10.7854 
35.7992 -29.0522 10.7854 44.1226 -26.3874 10.7854 -49.6803 -22.4536 10.7854 
-47.4348 -22.4536 13.4108 -39.1114 -22.4536 19.0072 -14.1412 -22.4536 17.5297 
-5.8178 -22.4536 15.3625 2.5056 -22.4536 13.1351 10.829 -22.4536 11.8261 
19.1524 -22.4536 12.5306 27.4758 -22.4536 13.9221 35.7992 -22.4536 14.0314 
50.4158 -22.4536 10.7854 44.1226 -22.4536 13.2419 52.446 -20.5673 10.7854 
-52.3889 -14.1302 10.7854 -47.4348 -14.1302 16.6835 -14.1412 -14.1302 18.9262 
-5.8178 -14.1302 16.8751 2.5056 -14.1302 17.8236 10.829 -14.1302 17.12 
[...]
POINT_DATA 548
SCALARS ImageScalars float
LOOKUP_TABLE default
0 0 0 0 0 0 0 0 0 
0 0 0 0 0 0 0 0 0 
0 0 0 0 0 0 0 0 0 
0 0 0 0 0 0 0 0 0 
0 0 0 0 0 0 0 0 0 
0 0 0 0 0 0 0 0 0 
0 0 0 0 0 0 0 0 0 
0 0 0 0 0 0 0 0 0 
0 0 0 0 0 0 0 0 0 
0 0 0 0 0 0 0 0 0 
0 0 0 0 0 0 0 0 0 
0 0 0 0 0 0 0 0 0 
0 0 0 0 0 0 0 0 0 
0 0 0 0 0 0 0 0 0 
0 0 0 0 0 0 0 0 0 
0 0 0 0 0 0 0 0 0 
0 0 0 0 0 0 0 0 0 
0 0 0 0 0 0 0 0 0 
0 0 0 0 0 0 0 0 0 
0 0 0 0 0 0 0 0 0 
0 0 0 0 0 0 0 0 0 
0 0 0 0 0 0 0 0 0 
0 0 0 0 0 0 0 0 0 
0 0 0 0 0 0 0 0 0 
0 0 0 0 0 0 0 0 0 
0 0 0 0 0 0 0 0 0 
0 0 0 0 0 0 0 0 0 
0 0 0 0 0 0 0 0 0 
0 0 0 0 0 0 0 0 0 
0 0 0 0 0 0 0 0 0 
0 0 0 0 0 0 0 0 0 
0 0 0 0 0 0 0 0 0 
0 0 0 0 0 0 0 0 0 
0 0 0 0 0 0 0 0 0 
0 0 0 0 0 0 0 0 0 
0 0 0 0 0 0 0 0 0 
0 0 0 0 0 0 0 0 0 
0 0 0 0 0 0 0 0 0 
0 0 0 0 0 0 0 0 0 
0 0 0 0 0 0 0 0 0 
0 0 0 0 0 0 0 0 0 
0 0 0 0 0 0 0 0 0 
0 0 0 0 0 0 0 0 0 
0 0 0 0 0 0 0 0 0 
0 0 0 0 0 0 0 0 0 
0 0 0 0 0 0 0 0 0 
0 0 0 0 0 0 0 0 0 
0 0 0 0 0 0 0 0 0 
0 0 0 0 0 0 0 0 0 
0 0 0 0 0 0 0 0 0 
0 0 0 0 0 0 0 0 0 
0 0 0 0 0 0 0 0 0 
0 0 0 0 0 0 0 0 0 
0 0 0 0 0 0 0 0 0 
0 0 0 0 0 0 0 0 0 
0 0 0 0 0 0 0 0 0 
0 0 0 0 0 0 0 0 0 
0 0 0 0 0 0 0 0 0 
0 0 0 0 0 0 0 0 0 
0 0 0 0 0 0 0 0 0 
0 0 0 0 0 0 0 0 
NORMALS Normals float
0.337279 0.678878 0.652202 0.141596 0.545075 0.826344 -0.0298657 0.39198 0.919489 
-0.146362 0.457976 0.876833 -0.144009 0.537127 0.831117 -0.195841 0.67839 0.708119 
0.405885 0.456015 0.792028 0.162321 0.290151 0.943114 0.0133174 0.186757 0.982316 
-0.106357 0.125799 0.986338 -0.120525 0.088925 0.988719 -0.0551729 0.168385 0.984176 
-0.071136 0.28579 0.955648 -0.263225 0.353321 0.897706 -0.382901 0.473832 0.793014 
0.476749 0.355792 0.803818 0.216655 0.197955 0.955968 0.059546 0.115087 0.991569 
-0.0371707 0.0141292 0.999209 -0.141607 -0.0236652 0.98964 -0.102792 -0.0417295 0.993827 
0.030067 0.0136024 0.999455 -0.0181176 0.0755611 0.996977 -0.128103 0.122724 0.984138 
-0.277432 0.24373 0.929315 0.692043 0.303956 0.654743 0.352393 0.153894 0.923112 
0.144101 0.065049 0.987423 -0.00826471 -0.00665776 0.999944 -0.126933 -0.0676413 0.989602 
-0.165658 -0.0276149 0.985797 -0.0731875 0.0149535 0.997206 0.0569355 -0.0200226 0.998177 
0.0430952 -0.0700635 0.996611 -0.0818222 -0.0136196 0.996554 -0.222063 0.0143008 0.974927 
-0.441083 0.114905 0.89008 0.598641 0.114875 0.792737 0.264142 0.0442529 0.963468 
0.0413242 -0.0246835 0.998841 -0.0723822 -0.1286 0.989052 -0.0599145 -0.0832616 0.994725 
-0.0408192 0.131467 0.99048 -0.106608 0.118891 0.987168 -0.0568116 0.0287077 0.997972 
-0.0121828 -0.088102 0.996037 -0.0507172 -0.0566029 0.997108 -0.140803 -0.0125349 0.989958 
-0.31881 0.0575489 0.94607 0.555444 -0.0312639 0.830966 0.210344 -0.0694391 0.975158 
-0.0227745 -0.105765 0.99413 -0.0700598 -0.14126 0.98749 0.121773 -0.116509 0.985696 
0.0525859 -0.0224339 0.998364 -0.20412 -0.118068 0.9718 -0.13857 -0.00580674 0.990336 
-0.0376852 -0.0561482 0.997711 0.00282972 0.0082323 0.999962 -0.105179 0.0354364 0.993822 
-0.262876 0.0435887 0.963844 0.541835 -0.0746903 0.83716 0.194608 -0.112272 0.974434 
-0.0234709 -0.0977719 0.994932 -0.0895355 -0.0537368 0.994533 0.0580132 -0.0720743 0.995711 
-0.0290468 -0.166565 0.985603 -0.0842093 -0.0576989 0.994776 -0.00733465 -0.145839 0.989281 
0.00466912 -0.0627945 0.998016 0.0410369 -0.0220808 0.998914 -0.105584 0.008654 0.994373 
-0.2858 -0.0140836 0.958186 0.546292 -0.159605 0.822247 0.211 -0.0998694 0.972371 
0.0404463 -0.0183046 0.999014 -0.0437362 0.0487436 0.997853 0.00943487 0.0290978 0.999532 
0.0386919 -0.154727 0.987199 -0.160229 -0.0585112 0.985344 -0.130608 -0.0860758 0.987691 
0.0894436 -0.0044864 0.995982 0.0728557 -0.0186357 0.997168 -0.0958447 -0.0482893 0.994224 
-0.32363 -0.0689738 0.943666 0.335976 -0.119729 0.93423 0.128344 -0.0663306 0.989509 
-0.0420759 0.00787957 0.999083 -0.140377 -0.0196168 0.989904 -0.115153 -0.0964094 0.988658 
-0.0170359 -0.0830035 0.996404 0.0354325 0.0756201 0.996507 0.0688274 0.0979457 0.992809 
-0.00252961 -0.0388927 0.99924 -0.156817 -0.117457 0.980618 -0.411215 -0.178416 0.893907 
0.431098 -0.339838 0.835861 0.164601 -0.235221 0.957903 0.000125575 -0.183574 0.983006 
-0.0942595 -0.132392 0.986705 -0.0398588 -0.0624084 0.997254 0.0161599 -0.0243124 0.999574 
0.0584978 -0.0107944 0.998229 -0.0276147 -0.0360316 0.998969 -0.143394 -0.128199 0.981327 
-0.243281 -0.249225 0.937391 0.273656 -0.487127 0.829349 0.0703692 -0.398799 0.914335 
-0.0112039 -0.299159 0.954138 -0.00443665 -0.233966 0.972235 0.0342024 -0.22033 0.974826 
0.0309499 -0.247809 0.968315 -0.0498099 -0.305089 0.95102 -0.212506 -0.331532 0.919199 
0.345545 0.759474 0.551179 0.185975 0.799782 0.570755 0.00599956 0.805719 0.592267 
0.0482642 0.997578 0.050095 -0.154737 0.687854 0.709163 -0.123597 0.987354 -0.0992717 
-0.155933 0.667534 0.728068 -0.213157 0.733936 0.644904 0.403813 0.717544 0.567508 
0.490886 0.623453 0.608553 0.524365 0.835782 0.162817 -0.270332 0.717309 0.642174 
-0.362113 0.60583 0.70841 -0.388316 0.910177 0.14418 -0.392304 0.499462 0.772422 
0.553198 0.564914 0.612245 0.576583 0.533993 0.618388 0.646153 0.650062 0.399883 
-0.40709 0.484141 0.774522 -0.654598 0.748822 0.103767 0.654812 0.425111 0.624901 
0.707282 0.323658 0.628488 0.820027 0.505692 0.268013 -0.421494 0.346528 0.83801 
-0.453832 0.297694 0.83989 -0.476299 0.387522 0.789282 -0.8227 0.530076 0.205386 
0.712462 0.307772 0.630614 -0.507308 0.131064 0.85174 -0.713652 0.240749 0.65783 
0.742213 0.134407 0.656548 -0.42168 0.104594 0.900692 -0.571133 0.199365 0.796279 
0.720472 -0.0121917 0.693377 -0.409759 0.0600147 0.910218 -0.47597 0.065808 0.876996 
-0.889089 0.0529891 0.454658 0.663575 -0.0665843 0.74514 -0.458355 -0.0440601 0.887676 
-0.537716 -0.0674064 0.840427 0.638282 -0.157943 0.753426 0.599287 -0.252094 0.759805 
-0.469065 -0.119184 0.875085 -0.641829 -0.204276 0.739139 0.570736 -0.271099 0.775091 
0.65099 -0.305987 0.694682 -0.514616 -0.2219 0.828209 -0.485061 -0.32146 0.813253 
-0.795003 -0.383822 0.469734 0.560614 -0.373636 0.738991 0.804971 -0.455181 0.380567 
0.482643 -0.450411 0.751123 -0.413227 -0.359762 0.836549 -0.378888 -0.397539 0.835708 
-0.588875 -0.464989 0.661069 0.349778 -0.526497 0.774891 0.571673 -0.625909 0.530498 
0.292526 -0.549809 0.782393 0.135194 -0.512413 0.848031 0.0618663 -0.472019 0.879415 
0.030679 -0.437274 0.898805 -0.0115717 -0.488446 0.872518 -0.0287621 -0.518133 0.854816 
-0.0987521 -0.566093 0.818405 -0.366557 -0.422212 0.82908 -0.249405 -0.48614 0.837535 
-0.440573 -0.475315 0.761558 0.422159 -0.796144 0.433516 0.226125 -0.684559 0.692998 
0.100114 -0.573438 0.813109 0.0399082 -0.516122 0.855585 -0.0219265 -0.543538 0.839098 
-0.067117 -0.645511 0.760796 -0.133458 -0.731117 0.669072 -0.316774 -0.840712 0.439156 
0.048928 0.997644 -0.0480873 -0.120668 0.983876 -0.132009 0.519168 0.851343 0.0753666 
0.379554 0.924764 -0.0274034 0.130694 0.988993 -0.0693647 0.230869 0.968447 -0.0938606 
0.0424335 0.989566 -0.137689 -0.131452 0.983374 -0.125281 -0.121819 0.981722 -0.146224 
-0.252592 0.96625 -0.0505828 -0.317138 0.940636 -0.120941 -0.33686 0.933793 -0.120646 
0.531798 0.843212 0.0786414 0.669839 0.727509 0.148477 0.493218 0.867588 -0.063459 
-0.311188 0.80036 -0.512432 -0.399427 0.910773 -0.104641 -0.320239 0.909285 -0.265796 
-0.50653 0.861507 -0.0351114 -0.646244 0.760395 0.0645617 0.711796 0.682063 0.167741 
0.822574 0.532167 0.200426 -0.653155 0.754043 0.069337 -0.641634 0.766899 0.0131226 
-0.82163 0.538866 0.185871 0.83386 0.512437 0.205148 -0.824383 0.533618 0.188798 
-0.818773 0.560314 0.125139 0.91554 0.340252 0.214512 -0.817465 0.356187 0.452639 
0.956082 0.19319 0.220419 -0.837124 0.249656 0.486719 -0.895953 0.0958036 0.433694 
-0.963301 0.266682 0.0305215 0.970744 0.0472388 0.235424 0.995347 0.0710085 -0.0651269 
-0.903506 0.0518624 0.425426 -0.898647 -0.0600186 0.434547 0.962355 -0.0525909 0.266658 
0.996263 -0.050073 0.0703691 -0.876894 -0.173399 0.448318 -0.926112 -0.182082 0.330398 
0.943345 -0.182225 0.277298 -0.862566 -0.300859 0.406772 0.90458 -0.317472 0.284509 
-0.838331 -0.424184 0.342445 -0.829356 -0.471944 0.29906 0.833213 -0.461987 0.30385 
0.812085 -0.499496 0.301698 -0.804662 -0.536794 0.253713 -0.724919 -0.651364 0.224092 
0.689923 -0.650308 0.317971 0.618533 -0.71337 0.329425 -0.706911 -0.672327 0.219665 
-0.545967 -0.811197 0.209475 0.462899 -0.804321 0.372548 0.435971 -0.815175 0.381337 
0.287892 -0.851905 0.437465 0.132218 -0.874955 0.465803 0.0089654 -0.888994 0.457831 
-0.0941226 -0.881534 0.462644 -0.142944 -0.906521 0.397223 -0.177253 -0.931948 0.316314 
-0.435378 -0.871888 0.224182 -0.329754 -0.910847 0.248232 0.152609 -0.979096 0.134466 
0.0193017 -0.967903 0.250583 -0.118884 -0.964048 0.23765 0.224077 0.8558 -0.466257 
0.1296 0.80504 -0.57889 -0.0274517 0.740712 -0.671261 -0.148683 0.674661 -0.722998 
-0.227885 0.568377 -0.790579 0.6012 0.768562 -0.218792 0.331062 0.852519 -0.404486 
0.404622 0.844064 -0.351906 0.19222 0.812943 -0.549705 0.0405296 0.70752 -0.70553 
-0.0759826 0.591519 -0.802703 -0.159003 0.587453 -0.793484 -0.239152 0.567783 -0.787673 
-0.227437 0.552877 -0.801623 -0.203208 0.622097 -0.756109 -0.175726 0.675986 -0.715656 
-0.320321 0.718287 -0.617624 0.651713 0.731304 -0.201156 0.814954 0.561281 -0.144272 
0.557852 0.734457 -0.386489 -0.173866 0.40613 -0.897122 -0.177193 0.361824 -0.915252 
-0.13626 0.393392 -0.909217 -0.100874 0.464373 -0.879876 -0.12292 0.565713 -0.81539 
-0.364253 0.713324 -0.598739 -0.307211 0.683629 -0.662021 -0.460672 0.744273 -0.48357 
0.83417 0.533805 -0.138606 0.799403 0.549291 -0.243382 -0.0803466 0.247452 -0.965563 
-0.00044888 0.338998 -0.940787 0.00439662 0.476765 -0.87902 -0.097008 0.567273 -0.817796 
-0.637266 0.682054 -0.358739 -0.319783 0.616707 -0.719313 -0.686765 0.658842 -0.307052 
0.928281 0.35339 -0.115797 -0.830285 0.528443 -0.17713 -0.52592 0.481303 -0.701253 
-0.949947 0.292066 -0.110895 0.974946 0.193132 -0.110361 0.993025 0.0757061 -0.0903852 
-0.960051 0.260999 -0.100902 -0.947068 0.275724 -0.164434 0.993296 0.0727197 -0.0898564 
0.992933 0.07291 -0.0936402 -0.997039 0.0505854 -0.0579232 -0.893577 0.084541 -0.440877 
0.996291 -0.0477204 -0.0715976 0.993908 -0.0813232 -0.0743898 0.992326 -0.0474016 -0.1142 
-0.980352 -0.187071 -0.0625634 -0.95963 -0.269957 -0.0789537 -0.933277 -0.201499 -0.297308 
0.980307 -0.180291 -0.0805757 -0.92273 -0.372009 -0.100892 0.945957 -0.315272 -0.0759483 
-0.828756 -0.534014 -0.167311 -0.799066 -0.567992 -0.197177 -0.737234 -0.526845 -0.422991 
0.879906 -0.468856 -0.0770703 0.844997 -0.52928 -0.0764367 0.814236 -0.463482 -0.349578 
-0.764299 -0.60099 -0.233792 -0.707857 -0.651659 -0.27254 -0.595589 -0.529721 -0.603878 
0.758234 -0.647594 -0.0755163 0.668563 -0.741224 -0.0600844 -0.685193 -0.672716 -0.27922 
-0.581661 -0.769371 -0.26408 -0.566971 -0.585606 -0.579318 0.578007 -0.815436 -0.0311696 
0.509972 -0.860132 -0.0100621 0.346939 -0.93785 0.00840592 -0.245554 -0.96744 0.0613415 
-0.302315 -0.95226 -0.0424963 -0.474132 -0.857137 -0.201285 -0.411994 -0.89588 -0.166312 
-0.482758 -0.803382 -0.348601 0.194601 -0.97967 0.0487635 0.154989 -0.986156 0.0589497 
0.183728 -0.978269 -0.0960895 0.0308472 -0.995388 0.0908336 -0.186042 -0.978844 0.0851615 
-0.127215 -0.986418 0.103904 0.215281 0.677736 -0.703085 0.0402197 0.633073 -0.773047 
-0.0933499 0.517986 -0.85028 0.284267 0.677402 -0.678468 0.471465 0.632805 -0.61423 
0.199973 0.654281 -0.729333 0.0106975 0.587999 -0.808791 -0.161079 0.42457 -0.890951 
-0.119187 0.485385 -0.866139 -0.183573 0.391343 -0.901749 -0.196666 0.254797 -0.946784 
0.62075 0.543662 -0.564891 0.720448 0.465369 -0.514186 0.413098 0.502273 -0.759652 
0.11483 0.399564 -0.909485 -0.0947518 0.326424 -0.940462 -0.20012 0.295864 -0.934032 
-0.255082 0.26958 -0.92858 -0.17283 0.243513 -0.954375 -0.200857 0.24389 -0.948775 
-0.0568608 0.278692 -0.958696 0.0485602 0.32399 -0.944813 0.0287128 0.451587 -0.891765 
-0.0808558 0.524983 -0.847264 -0.251638 0.521539 -0.815276 0.78038 0.373143 -0.501768 
0.686562 0.367136 -0.627569 0.284525 0.316052 -0.905073 -0.220566 0.187466 -0.957187 
-0.247749 0.185488 -0.950902 -0.198146 0.348925 -0.915964 -0.0342873 0.347639 -0.937001 
0.117205 0.309259 -0.943728 0.0854003 0.337202 -0.937551 -0.0308507 0.378048 -0.925272 
-0.430225 0.464745 -0.773898 -0.224838 0.468794 -0.854213 -0.497079 0.417604 -0.760604 
0.864724 0.215832 -0.453507 0.63447 0.241521 -0.734245 -0.224321 0.234214 -0.945951 
-0.0706167 0.304394 -0.949925 0.0245462 0.307096 -0.951362 -0.169852 0.415443 -0.89362 
-0.0266103 0.238464 -0.970787 0.0984995 0.238287 -0.966187 0.00683042 0.271915 -0.962297 
-0.153105 0.254269 -0.954938 -0.628461 0.314242 -0.71154 -0.482617 0.316966 -0.816464 
0.909372 0.0862216 -0.40695 0.566493 0.103456 -0.817547 -0.109146 0.0520063 -0.992664 
-0.0902383 0.193462 -0.976949 -0.0302357 0.240795 -0.970105 0.120273 0.193325 -0.973735 
0.0167 0.200942 -0.979461 -0.122674 0.173384 -0.977184 -0.774351 0.101224 -0.624607 
-0.430341 0.0992975 -0.897188 0.912482 -0.0463188 -0.406485 0.566898 -0.0367549 -0.822967 
-0.00291465 0.2299 -0.97321 -0.768189 -0.185693 -0.612702 -0.506499 -0.120442 -0.853787 
0.892806 -0.183929 -0.411179 0.601802 -0.166741 -0.781046 -0.298547 -0.232045 -0.925756 
-0.712867 -0.362935 -0.600082 -0.657969 -0.435175 -0.614572 -0.606241 -0.330157 -0.723511 
0.848641 -0.310299 -0.428395 0.797268 -0.441085 -0.412077 0.720532 -0.293554 -0.628219 
-0.272995 -0.245999 -0.930031 -0.60667 -0.469348 -0.641611 -0.5696 -0.5071 -0.646843 
-0.449849 -0.38516 -0.805784 0.787677 -0.456656 -0.413558 0.456031 -0.334522 -0.8247 
-0.333909 -0.151457 -0.930358 -0.569181 -0.508564 -0.646061 -0.550145 -0.557571 -0.621655 
-0.433622 -0.35766 -0.827074 0.660446 -0.608691 -0.439665 0.639001 -0.633686 -0.436027 
0.622053 -0.593182 -0.511063 0.368013 -0.411804 -0.833657 -0.552273 -0.566898 -0.611246 
-0.518086 -0.681298 -0.517127 -0.452292 -0.417148 -0.788301 0.517014 -0.751715 -0.409415 
0.504723 -0.760619 -0.408306 0.500062 -0.744799 -0.441829 0.361139 -0.835012 -0.415132 
0.330913 -0.635716 -0.697397 0.218981 -0.918815 -0.32837 -0.292403 -0.909881 -0.294309 
-0.493723 -0.738863 -0.458606 -0.412966 -0.826906 -0.381689 -0.426702 -0.663061 -0.615041 
0.121016 -0.943124 -0.309633 0.0515772 -0.95168 -0.302729 0.0513349 -0.938288 -0.342024 
-0.155721 -0.940818 -0.301019 -0.132499 -0.943305 -0.304336 -0.130721 -0.934681 -0.33058 
0.0356115 0.278335 -0.959824 -0.13301 0.22867 -0.964375 0.255775 0.307084 -0.916667 
0.281086 0.309158 -0.908522 0.0101717 0.230453 -0.97303 -0.137111 0.225023 -0.964658 
-0.133555 0.226238 -0.964873 0.397041 0.221216 -0.890743 0.227987 0.197845 -0.953352 
-0.00810944 0.165372 -0.986198 -0.21737 0.227902 -0.949111 -0.149106 0.159969 -0.975796 
-0.215096 0.227813 -0.94965 -0.155124 0.267725 -0.950926 0.526787 0.104944 -0.843494 
0.20242 0.0853349 -0.975574 -0.0142356 0.0725476 -0.997263 -0.0651481 0.0725022 -0.995238 
-0.0720801 0.120705 -0.990068 -0.157534 0.128479 -0.97912 -0.209729 0.212094 -0.954479 
-0.0716529 0.175317 -0.981901 -0.0554221 0.211283 -0.975852 0.0701193 0.159037 -0.984779 
0.00333176 0.159135 -0.987251 -0.226218 -0.0102852 -0.974022 0.561623 -0.0365588 -0.826585 
0.195966 -0.0206845 -0.980393 -0.0246013 0.0211279 -0.999474 -0.102326 0.0115767 -0.994684 
-0.081032 0.00665304 -0.996689 -0.0260266 0.210169 -0.977319 -0.127012 0.098677 -0.986981 
-7.20338e-06 0.208531 -0.978016 -0.0154366 0.225098 -0.974214 0.0150903 0.101047 -0.994767 
-0.0559653 0.208739 -0.976369 0.0461148 0.143229 -0.988615 -0.0297937 0.0678562 -0.99725 
-0.236334 -0.0230504 -0.971398 -0.234921 -0.0300046 -0.971551 -0.23253 -0.021773 -0.972346 
0.495068 -0.156907 -0.854569 0.264644 -0.107272 -0.958361 0.0179823 -0.0173394 -0.999688 
-0.08125 0.051901 -0.995342 0.00662711 0.109067 -0.994012 -0.00771928 0.12515 -0.992108 
-0.0962733 0.181591 -0.97865 -0.0786076 0.0575444 -0.995243 -0.00803923 0.091719 -0.995752 
-0.0176465 0.00603964 -0.999826 -0.201981 -0.15429 -0.96716 -0.20068 -0.168085 -0.965129 
-0.150641 -0.108446 -0.982622 0.446447 -0.220754 -0.867152 0.418408 -0.287974 -0.861398 
0.346776 -0.191538 -0.918183 0.128928 -0.0739372 -0.988894 0.0235 0.0419212 -0.998845 
-0.00633004 0.0895887 -0.995959 -0.0378968 0.075116 -0.996454 -0.0729732 0.120097 -0.990077 
-0.0810873 0.120726 -0.989368 -0.107753 0.0745544 -0.991378 -0.195142 -0.149403 -0.969329 
-0.279556 -0.130346 -0.95124 -0.150567 -0.0882862 -0.98465 0.406883 -0.305294 -0.860954 
0.345404 -0.377951 -0.858981 0.244179 -0.214399 -0.945732 0.0828984 -0.0936576 -0.992147 
0.0397266 -0.0384292 -0.998471 0.0228277 0.0086516 -0.999702 -0.0512754 0.0639947 -0.996632 
-0.121719 0.039951 -0.99176 -0.321841 -0.137233 -0.936795 -0.213053 -0.0367487 -0.976349 
0.334806 -0.391253 -0.85722 0.249152 -0.445661 -0.859831 0.196679 -0.327238 -0.924247 
0.0960318 -0.202791 -0.974502 0.0639096 -0.170084 -0.983355 -0.041028 -0.156107 -0.986888 
-0.174176 -0.159382 -0.971731 -0.337014 -0.308444 -0.889542 -0.329515 -0.356667 -0.87419 
-0.298059 -0.278794 -0.912926 0.205271 -0.485994 -0.849514 0.184604 -0.497835 -0.847397 
0.182439 -0.462186 -0.867813 0.0452032 -0.538198 -0.841605 0.0547726 -0.463071 -0.884627 
-0.0406952 -0.58183 -0.812292 -0.0314182 -0.49572 -0.867914 -0.26162 -0.533019 -0.80464 
-0.22695 -0.559121 -0.797419 -0.222728 -0.514754 -0.827901 
