# vtk DataFile Version 4.2
vtk output
ASCII
DATASET POLYDATA
POINTS 528 float
-3.30033 -47.2766 -15.2571 4.74318 -47.2766 -16.3897 12.7867 -47.2766 -15.4022 
-19.3873 -39.2331 -14.1403 -11.3438 -39.2331 -16.5594 -3.30033 -39.2331 -17.8022 
4.74318 -39.2331 -18.7428 12.7867 -39.2331 -18.9029 20.8302 -39.2331 -17.9995 
-27.4308 -31.1896 -13.9255 -19.3873 -31.1896 -16.296 -11.3438 -31.1896 -17.7371 
-3.30033 -31.1896 -18.8689 4.74318 -31.1896 -19.4745 12.7867 -31.1896 -19.6269 
20.8302 -31.1896 -20.0359 28.8737 -31.1896 -17.6438 -35.4744 -23.1461 -14.752 
-27.4308 -23.1461 -16.4741 -19.3873 -23.1461 -17.4013 -11.3438 -23.1461 -18.1972 
-3.30033 -23.1461 -18.7735 4.74318 -23.1461 -18.9086 12.7867 -23.1461 -19.2192 
20.8302 -23.1461 -20.0037 28.8737 -23.1461 -19.7437 36.9172 -23.1461 -17.3184 
-43.5179 -15.1025 -14.3805 -35.4744 -15.1025 -17.1573 -27.4308 -15.1025 -18.1354 
-19.3873 -15.1025 -18.4624 -11.3438 -15.1025 -18.8799 -3.30033 -15.1025 -19.5401 
4.74318 -15.1025 -17.8943 12.7867 -15.1025 -18.2116 20.8302 -15.1025 -19.1845 
28.8737 -15.1025 -19.3623 36.9172 -15.1025 -18.523 44.9607 -15.1025 -15.6265 
-43.5179 -7.05904 -15.0475 -35.4744 -7.05904 -17.5422 -27.4308 -7.05904 -18.8683 
-19.3873 -7.05904 -19.3018 -11.3438 -7.05904 -19.6285 -3.30033 -7.05904 -19.2165 
4.74318 -7.05904 -21.1767 12.7867 -7.05904 -18.8024 20.8302 -7.05904 -18.5218 
28.8737 -7.05904 -19.3583 36.9172 -7.05904 -19.5028 44.9607 -7.05904 -18.5408 
53.0042 -7.05904 -14.0672 -43.5179 0.98447 -14.9168 -35.4744 0.98447 -16.7384 
-27.4308 0.98447 -17.1983 -19.3873 0.98447 -17.4981 -11.3438 0.98447 -18.8032 
-3.30033 0.98447 -17.6954 4.74318 0.98447 -18.5678 12.7867 0.98447 -19.0878 
20.8302 0.98447 -17.985 28.8737 0.98447 -19.3243 36.9172 0.98447 -19.8632 
44.9607 0.98447 -19.3776 53.0042 0.98447 -16.5309 -43.5179 9.02798 -14.4601 
-35.4744 9.02798 -15.9001 -27.4308 9.02798 -15.8406 -19.3873 9.02798 -14.4216 
-11.3438 9.02798 -14.3159 -3.30033 9.02798 -19.4722 4.74318 9.02798 -16.2368 
12.7867 9.02798 -17.259 20.8302 9.02798 -18.1889 28.8737 9.02798 -19.002 
36.9172 9.02798 -19.5139 44.9607 9.02798 -19.4264 53.0042 9.02798 -17.0423 
-43.5179 17.0715 -14.5486 -35.4744 17.0715 -16.0186 -27.4308 17.0715 -15.8468 
-19.3873 17.0715 -15.2906 -11.3438 17.0715 -14.831 -3.30033 17.0715 -15.6463 
4.74318 17.0715 -16.6305 12.7867 17.0715 -18.0231 20.8302 17.0715 -18.1991 
28.8737 17.0715 -18.6914 36.9172 17.0715 -18.0998 44.9607 17.0715 -17.3767 
53.0042 17.0715 -15.8329 -35.4744 25.115 -15.265 -27.4308 25.115 -16.3017 
-19.3873 25.115 -16.169 -11.3438 25.115 -15.8949 -3.30033 25.115 -16.5326 
4.74318 25.115 -17.6248 12.7867 25.115 -17.8097 20.8302 25.115 -17.1849 
28.8737 25.115 -16.262 36.9172 25.115 -15.2345 44.9607 25.115 -14.1293 
-35.4744 33.1585 -13.7867 -27.4308 33.1585 -14.5753 -19.3873 33.1585 -15.4137 
-11.3438 33.1585 -15.4091 -3.30033 33.1585 -15.171 4.74318 33.1585 -15.7635 
12.7867 33.1585 -15.4929 -3.30033 -50.0922 -13.2723 4.74318 -50.8651 -13.2723 
12.7867 -49.4157 -13.2723 -19.3873 -40.6772 -13.2723 -19.3873 -47.2766 -7.16493 
-9.10899 -47.2766 -13.2723 -11.3438 -45.6497 -13.2723 -11.3438 -47.2766 -12.1925 
17.1714 -47.2766 -13.2723 20.8302 -44.9729 -13.2723 20.8302 -47.2766 -6.76981 
-21.2238 -39.2331 -13.2723 -27.4308 -32.5665 -13.2723 -27.4308 -39.2331 -9.14591 
28.176 -39.2331 -13.2723 28.8737 -38.5854 -13.2723 28.8737 -39.2331 -9.77026 
-29.1573 -31.1896 -13.2723 -35.4744 -26.1679 -13.2723 -35.4744 -31.1896 -10.1495 
35.0963 -31.1896 -13.2723 36.9172 -28.8841 -13.2723 36.9172 -31.1896 -6.19669 
-38.4898 -23.1461 -13.2723 -43.5179 -17.7529 -13.2723 -43.5179 -23.1461 -10.0152 
41.2348 -23.1461 -13.2723 44.9607 -18.5857 -13.2723 -45.6889 -15.1025 -13.2723 
-51.5614 -15.1025 -7.25916 47.8687 -15.1025 -13.2723 53.0042 -8.1375 -13.2723 
-46.7304 -7.05904 -13.2723 -51.5614 -7.05904 -9.92665 53.93 -7.05904 -13.2723 
-47.1531 0.98447 -13.2723 -51.5614 0.98447 -10.9256 58.846 0.98447 -13.2723 
61.0477 0.98447 -9.30786 -46.3188 9.02798 -13.2723 -51.5614 9.02798 -10.7822 
59.2398 9.02798 -13.2723 61.0477 9.02798 -11.5676 -46.108 17.0715 -13.2723 
-51.5614 17.0715 -9.82269 -43.5179 24.2968 -13.2723 60.3308 17.0715 -13.2723 
53.0042 21.6822 -13.2723 61.0477 17.0715 -12.9225 -51.5614 25.115 -9.03402 
-42.9078 25.115 -13.2723 -43.5179 25.115 -13.0879 20.8302 32.9961 -13.2723 
28.8737 29.9225 -13.2723 36.9172 28.3078 -13.2723 47.5798 25.115 -13.2723 
44.9607 26.4778 -13.2723 53.0042 25.115 -11.3057 61.0477 25.115 -5.34067 
-36.6628 33.1585 -13.2723 -43.5179 33.1585 -10.214 -35.4744 34.2491 -13.2723 
-27.4308 36.0653 -13.2723 -19.3873 37.2837 -13.2723 -11.3438 37.3696 -13.2723 
-3.30033 36.5879 -13.2723 4.74318 36.721 -13.2723 20.5391 33.1585 -13.2723 
12.7867 35.6748 -13.2723 20.8302 33.1585 -13.122 28.8737 33.1585 -10.0759 
36.9172 33.1585 -8.07298 44.9607 33.1585 -5.90628 -35.4744 41.202 -8.21742 
-27.4308 41.202 -10.4246 -19.3873 41.202 -10.5904 -11.3438 41.202 -9.89033 
-3.30033 41.202 -8.64876 4.74318 41.202 -6.15277 -19.3873 -48.938 -5.2288 
-11.3438 -52.8882 -5.2288 -3.30033 -55.0596 -5.2288 4.74318 -54.817 -5.2288 
12.7867 -52.4452 -5.2288 20.8302 -47.6712 -5.2288 -22.1282 -47.2766 -5.2288 
-27.4308 -43.5263 -5.2288 21.3792 -47.2766 -5.2288 20.8302 -47.2766 -3.40201 
28.8737 -39.9299 -5.2288 -32.801 -39.2331 -5.2288 -35.4744 -36.948 -5.2288 
29.5229 -39.2331 -5.2288 28.8737 -39.2331 -3.32283 36.9172 -31.431 -5.2288 
-41.1112 -31.1896 -5.2288 -43.5179 -28.6695 -5.2288 37.1162 -31.1896 -5.2288 
36.9172 -31.1896 -4.80984 -47.8779 -23.1461 -5.2288 -51.5614 -17.2383 -5.2288 
43.5556 -23.1461 -5.2288 44.9607 -21.4371 -5.2288 -52.7109 -15.1025 -5.2288 
49.9434 -15.1025 -5.2288 53.0042 -11.8448 -5.2288 -55.7424 -7.05904 -5.2288 
57.7396 -7.05904 -5.2288 61.0477 -1.95635 -5.2288 -57.5048 0.98447 -5.2288 
62.3821 0.98447 -5.2288 61.0477 0.98447 0.661938 -57.947 9.02798 -5.2288 
-59.6049 9.02798 2.10487 65.6855 9.02798 -5.2288 -56.993 17.0715 -5.2288 
65.4594 17.0715 -5.2288 -54.7668 25.115 -5.2288 -51.5614 32.1742 -5.2288 
53.0042 30.9045 -5.2288 61.1378 25.115 -5.2288 61.0477 25.2236 -5.2288 
-50.9588 33.1585 -5.2288 -51.5614 33.1585 -3.665 -43.5179 40.0491 -5.2288 
12.7867 39.5083 -5.2288 20.8302 37.562 -5.2288 28.8737 36.0792 -5.2288 
36.9172 34.7711 -5.2288 46.1933 33.1585 -5.2288 44.9607 33.5889 -5.2288 
-41.1495 41.202 -5.2288 -43.5179 41.202 -1.69866 -35.4744 43.1344 -5.2288 
-27.4308 45.1592 -5.2288 -19.3873 45.3486 -5.2288 -11.3438 44.235 -5.2288 
-3.30033 42.9968 -5.2288 6.25059 41.202 -5.2288 4.74318 41.5632 -5.2288 
-19.3873 -50.3571 2.81471 -11.3438 -53.5391 2.81471 -3.30033 -54.823 2.81471 
4.74318 -54.0719 2.81471 12.7867 -51.1429 2.81471 -24.4828 -47.2766 2.81471 
-27.4308 -45.2583 2.81471 -19.3873 -47.2766 9.45447 18.5721 -47.2766 2.81471 
12.7867 -47.2766 9.23147 20.8302 -45.4478 2.81471 -34.6873 -39.2331 2.81471 
-35.4744 -38.5133 2.81471 26.7421 -39.2331 2.81471 28.8737 -36.743 2.81471 
-42.1403 -31.1896 2.81471 -43.5179 -29.6217 2.81471 33.1224 -31.1896 2.81471 
28.8737 -31.1896 10.6074 36.9172 -26.3479 2.81471 -48.7344 -23.1461 2.81471 
-51.5614 -18.8105 2.81471 -43.5179 -23.1461 10.6103 39.5467 -23.1461 2.81471 
36.9172 -23.1461 7.38985 44.9607 -16.73 2.81471 -53.7328 -15.1025 2.81471 
-51.5614 -15.1025 7.43116 46.5344 -15.1025 2.81471 44.9607 -15.1025 4.66913 
53.0042 -8.53386 2.81471 -57.1831 -7.05904 2.81471 54.4656 -7.05904 2.81471 
53.0042 -7.05904 4.37219 -59.4287 0.98447 2.81471 -59.6049 5.6911 2.81471 
60.4293 0.98447 2.81471 61.0477 1.83688 2.81471 -59.7228 9.02798 2.81471 
-59.6049 11.3702 2.81471 -59.6049 9.02798 3.14248 64.9902 9.02798 2.81471 
61.0477 9.02798 8.15848 -59.3119 17.0715 2.81471 64.9017 17.0715 2.81471 
61.0477 17.0715 8.34617 -57.4969 25.115 2.81471 53.0042 32.5827 2.81471 
61.7509 25.115 2.81471 61.0477 26.0738 2.81471 61.0477 25.115 3.9022 
-53.1312 33.1585 2.81471 -51.5614 35.1096 2.81471 -51.5614 33.1585 6.56434 
12.7867 40.2178 2.81471 20.8302 38.8886 2.81471 28.8737 37.4195 2.81471 
36.9172 37.0004 2.81471 51.7194 33.1585 2.81471 44.9607 36.2781 2.81471 
-44.8817 41.202 2.81471 -43.5179 42.1499 2.81471 -43.5179 41.202 5.36225 
-35.4744 45.2649 2.81471 -27.4308 46.6095 2.81471 -19.3873 47.3071 2.81471 
-11.3438 46.0683 2.81471 -3.30033 44.3868 2.81471 9.00631 41.202 2.81471 
4.74318 42.3169 2.81471 -11.3438 -48.7115 10.8582 -3.30033 -50.1091 10.8582 
4.74318 -49.2011 10.8582 -27.4308 -39.823 10.8582 -16.5585 -47.2766 10.8582 
-19.3873 -46.2772 10.8582 -11.3438 -47.2766 12.3186 -3.30033 -47.2766 13.2503 
9.97978 -47.2766 10.8582 4.74318 -47.2766 12.6138 12.7867 -45.9246 10.8582 
20.8302 -39.5785 10.8582 -28.1475 -39.2331 10.8582 -35.4744 -32.276 10.8582 
-27.4308 -39.2331 11.362 -19.3873 -39.2331 14.9846 -11.3438 -39.2331 16.9155 
-3.30033 -39.2331 17.0914 4.74318 -39.2331 16.8994 12.7867 -39.2331 15.4002 
21.1722 -39.2331 10.8582 20.8302 -39.2331 11.1472 -36.4866 -31.1896 10.8582 
-35.4744 -31.1896 11.563 -27.4308 -31.1896 15.7326 -19.3873 -31.1896 17.2538 
-11.3438 -31.1896 18.5673 -3.30033 -31.1896 18.5627 4.74318 -31.1896 18.4796 
12.7867 -31.1896 17.9673 28.6831 -31.1896 10.8582 20.8302 -31.1896 15.5528 
28.8737 -30.9783 10.8582 -43.2689 -23.1461 10.8582 -43.5179 -22.829 10.8582 
-35.4744 -23.1461 15.7922 -27.4308 -23.1461 18.0286 -19.3873 -23.1461 18.5262 
-11.3438 -23.1461 18.2987 -3.30033 -23.1461 18.8525 4.74318 -23.1461 18.6444 
12.7867 -23.1461 18.3452 20.8302 -23.1461 17.4824 34.7232 -23.1461 10.8582 
28.8737 -23.1461 15.425 36.9172 -19.2791 10.8582 -49.088 -15.1025 10.8582 
-51.5614 -9.20396 10.8582 -43.5179 -15.1025 14.5863 -35.4744 -15.1025 17.8321 
-11.3438 -15.1025 18.7176 4.74318 -15.1025 17.841 12.7867 -15.1025 16.9873 
20.8302 -15.1025 18.1045 28.8737 -15.1025 17.5431 39.488 -15.1025 10.8582 
36.9172 -15.1025 12.9026 44.9607 -7.63984 10.8582 -52.2941 -7.05904 10.8582 
-51.5614 -7.05904 11.5939 -43.5179 -7.05904 16.4306 -35.4744 -7.05904 18.6482 
4.74318 -7.05904 18.2191 12.7867 -7.05904 17.7628 20.8302 -7.05904 18.8245 
[...]
POINT_DATA 528
SCALARS ImageScalars float
LOOKUP_TABLE default
0 0 0 0 0 0 0 0 0 
0 0 0 0 0 0 0 0 0 
0 0 0 0 0 0 0 0 0 
0 0 0 0 0 0 0 0 0 
0 0 0 0 0 0 0 0 0 
0 0 0 0 0 0 0 0 0 
0 0 0 0 0 0 0 0 0 
0 0 0 0 0 0 0 0 0 
0 0 0 0 0 0 0 0 0 
0 0 0 0 0 0 0 0 0 
0 0 0 0 0 0 0 0 0 
0 0 0 0 0 0 0 0 0 
0 0 0 0 0 0 0 0 0 
0 0 0 0 0 0 0 0 0 
0 0 0 0 0 0 0 0 0 
0 0 0 0 0 0 0 0 0 
0 0 0 0 0 0 0 0 0 
0 0 0 0 0 0 0 0 0 
0 0 0 0 0 0 0 0 0 
0 0 0 0 0 0 0 0 0 
0 0 0 0 0 0 0 0 0 
0 0 0 0 0 0 0 0 0 
0 0 0 0 0 0 0 0 0 
0 0 0 0 0 0 0 0 0 
0 0 0 0 0 0 0 0 0 
0 0 0 0 0 0 0 0 0 
0 0 0 0 0 0 0 0 0 
0 0 0 0 0 0 0 0 0 
0 0 0 0 0 0 0 0 0 
0 0 0 0 0 0 0 0 0 
0 0 0 0 0 0 0 0 0 
0 0 0 0 0 0 0 0 0 
0 0 0 0 0 0 0 0 0 
0 0 0 0 0 0 0 0 0 
0 0 0 0 0 0 0 0 0 
0 0 0 0 0 0 0 0 0 
0 0 0 0 0 0 0 0 0 
0 0 0 0 0 0 0 0 0 
0 0 0 0 0 0 0 0 0 
0 0 0 0 0 0 0 0 0 
0 0 0 0 0 0 0 0 0 
0 0 0 0 0 0 0 0 0 
0 0 0 0 0 0 0 0 0 
0 0 0 0 0 0 0 0 0 
0 0 0 0 0 0 0 0 0 
0 0 0 0 0 0 0 0 0 
0 0 0 0 0 0 0 0 0 
0 0 0 0 0 0 0 0 0 
0 0 0 0 0 0 0 0 0 
0 0 0 0 0 0 0 0 0 
0 0 0 0 0 0 0 0 0 
0 0 0 0 0 0 0 0 0 
0 0 0 0 0 0 0 0 0 
0 0 0 0 0 0 0 0 0 
0 0 0 0 0 0 0 0 0 
0 0 0 0 0 0 0 0 0 
0 0 0 0 0 0 0 0 0 
0 0 0 0 0 0 0 0 0 
0 0 0 0 0 0 
NORMALS Normals float
0.224562 0.475107 0.850791 0.0176046 0.514702 0.857189 -0.26547 0.669138 0.694103 
0.344864 0.408193 0.84525 0.221248 0.297467 0.928743 0.1242 0.217714 0.968078 
0.0675863 0.185158 0.980382 -0.0338469 0.225507 0.973653 -0.308333 0.457817 0.833867 
0.314883 0.359325 0.878484 0.220787 0.19683 0.955254 0.159055 0.0918437 0.982988 
0.107012 0.0571056 0.992616 0.0469347 0.00833232 0.998863 0.0329879 0.0226317 0.9992 
-0.117608 0.103307 0.987672 -0.422659 0.363605 0.830151 0.304513 0.362529 0.88082 
0.149728 0.243469 0.958282 0.104017 0.133135 0.985624 0.0840539 0.0701821 0.993987 
0.0438353 0.0394889 0.998258 0.0275264 -0.0970109 0.994903 0.0674309 -0.0875436 0.993876 
0.0339507 -0.0530114 0.998017 -0.135854 0.103582 0.985299 -0.5281 0.346948 0.775073 
0.414281 0.222832 0.88245 0.224835 0.153776 0.962186 0.0805815 0.143399 0.986379 
0.0458229 0.116846 0.992092 0.0653233 0.0892746 0.993863 -0.0621966 0.0306805 0.997592 
-0.0815675 0.104561 0.991168 0.0796548 -0.0293561 0.99639 0.0711044 -0.0884163 0.993542 
-0.0384578 -0.0221572 0.999015 -0.214992 0.122862 0.968857 -0.547676 0.460938 0.698274 
0.392223 0.0319603 0.919315 0.225907 -0.025933 0.973804 0.107904 -0.0580138 0.992467 
0.0470958 -0.0470687 0.997781 -0.00242519 0.00645746 0.999976 0.0785149 -0.0964178 0.992239 
-0.0285525 0.079648 0.996414 -0.146364 0.0577335 0.987545 0.0375029 -0.0768767 0.996335 
0.057004 -0.00235487 0.998371 -0.0416314 0.0820169 0.995761 -0.254742 0.206965 0.944602 
-0.62446 0.468679 0.624812 0.310741 -0.034052 0.949884 0.137211 -0.102085 0.985267 
0.0453243 -0.182231 0.982211 0.0851308 -0.308445 0.947425 0.0245687 -0.236193 0.971396 
-0.0112558 -0.0209293 0.999718 0.0778562 -0.303998 0.949486 -0.0451897 -0.104144 0.993535 
0.0210394 -0.0186389 0.999605 0.116275 -0.0221257 0.992971 0.00536759 0.000156745 0.999986 
-0.198191 0.0454528 0.979109 -0.42063 0.136162 0.896956 0.278045 -0.0207396 0.960344 
0.0801468 -0.0437701 0.995822 -0.0918343 -0.0864962 0.992011 -0.0854938 -0.116508 0.989503 
0.234983 -0.233957 0.943423 -0.0234716 -0.193316 0.980856 -0.0602594 -0.0984098 0.99332 
0.119285 -0.0563414 0.99126 0.10765 0.0132387 0.994101 0.081822 -0.038364 0.995908 
0.0267294 -0.107402 0.993856 -0.167786 -0.120795 0.978395 -0.380865 -0.0284006 0.924194 
0.326356 -0.069918 0.942658 0.0908431 -0.0385872 0.995117 -0.044828 0.0311895 0.998508 
-0.0615985 0.105095 0.992553 0.0212985 0.085898 0.996076 0.112779 -0.0918781 0.989363 
0.145995 0.0837823 0.985731 0.095948 0.0345845 0.994785 0.0401664 -0.057157 0.997557 
-0.00562876 -0.163239 0.986571 -0.0762228 -0.241151 0.96749 -0.120695 -0.292541 0.948605 
-0.273579 -0.313904 0.909186 0.180229 -0.117774 0.976548 0.0515944 -0.069356 0.996257 
-0.0262399 0.0126445 0.999576 0.0222946 0.0318269 0.999245 0.106778 -0.023947 0.993994 
0.0801472 -0.0428966 0.99586 -0.0246656 -0.142485 0.98949 -0.0938113 -0.267294 0.959038 
-0.108486 -0.409368 0.905897 -0.123482 -0.448581 0.885171 -0.204812 -0.473443 0.856682 
0.246363 -0.313096 0.917211 0.0871747 -0.316125 0.944704 0.0491148 -0.280961 0.958462 
-0.013614 -0.267146 0.96356 0.0177118 -0.334654 0.942175 0.0206949 -0.434793 0.900292 
-0.145831 -0.550198 0.822202 0.201824 0.624574 0.754436 -0.0452631 0.728693 0.683343 
-0.28493 0.769707 0.571284 0.358456 0.455199 0.815048 0.457801 0.730332 0.506985 
0.323339 0.526589 0.786229 0.331482 0.49625 0.802407 0.363345 0.573608 0.734135 
-0.406903 0.733213 0.54482 -0.492429 0.695961 0.52264 -0.577688 0.80894 0.109049 
0.371466 0.435577 0.81993 0.341472 0.38739 0.856345 0.500849 0.583519 0.639262 
-0.623628 0.651645 0.431796 -0.630422 0.644655 0.432421 -0.697437 0.685622 0.208577 
0.337432 0.387974 0.85768 0.353115 0.408365 0.841752 0.482539 0.539877 0.689703 
-0.686411 0.558341 0.465936 -0.701727 0.551892 0.450548 -0.777239 0.627174 -0.0505141 
0.394774 0.402328 0.826006 0.453516 0.302732 0.838258 0.601739 0.504959 0.618811 
-0.69 0.534932 0.487594 -0.66226 0.540151 0.519277 0.491401 0.242686 0.836438 
0.827922 0.369263 0.422125 -0.664666 0.530838 0.525766 -0.652037 0.50505 0.565484 
0.490581 0.0440098 0.870283 0.70325 0.140219 0.696978 -0.648442 0.495719 0.577741 
0.416378 -0.00776387 0.909159 0.598066 0.0404839 0.800424 -0.694018 0.201135 0.691292 
-0.88844 0.309367 0.339066 0.358627 -0.0295504 0.933013 0.560271 -0.0616923 0.826009 
-0.61912 0.0329464 0.784605 -0.733075 0.0958007 0.673367 0.404107 -0.06292 0.912545 
0.600095 -0.0840014 0.795506 0.306174 -0.237762 0.921806 -0.557083 -0.241618 0.794531 
-0.317361 -0.447387 0.836138 -0.596872 -0.233515 0.767603 0.637009 -0.251666 0.728618 
0.293649 -0.246922 0.923472 0.307561 -0.257896 0.915913 -0.255528 -0.664683 0.702069 
-0.146501 -0.586171 0.796832 -0.126329 -0.574344 0.808808 -0.257457 -0.489486 0.833138 
-0.212272 -0.52169 0.826305 -0.377084 -0.556589 0.740281 -0.702025 -0.615317 0.358533 
0.276517 -0.325025 0.904376 0.449658 -0.420865 0.787833 0.251523 -0.363217 0.897112 
0.0805074 -0.426499 0.900898 0.0360957 -0.461973 0.886159 -0.0228538 -0.493 0.869729 
-0.0225379 -0.511959 0.858714 -0.0527252 -0.638304 0.767976 -0.254972 -0.668958 0.698201 
-0.189307 -0.696953 0.691679 -0.257344 -0.676429 0.690085 -0.16378 -0.78448 0.598136 
-0.147099 -0.847633 0.509785 -0.22165 -0.859763 0.460087 0.289348 -0.764134 0.576522 
0.0860574 -0.692868 0.715911 -0.0195131 -0.694055 0.719658 -0.0716139 -0.773528 0.629703 
-0.114006 -0.858629 0.499759 -0.197237 -0.940082 0.278107 0.472349 0.785088 0.400654 
0.318513 0.893932 0.315335 0.10001 0.975245 0.19722 -0.139356 0.977591 0.157782 
-0.410581 0.907133 0.0923769 -0.58152 0.813353 0.0170597 0.507563 0.763623 0.399073 
0.557082 0.722569 0.409333 -0.592158 0.805724 0.0125651 -0.598193 0.799101 -0.060033 
-0.727486 0.682272 -0.0725866 0.599921 0.695411 0.395599 0.616664 0.688587 0.381542 
-0.733324 0.675587 -0.0762794 -0.731736 0.667814 -0.136336 -0.772303 0.62495 -0.113958 
0.670324 0.65493 0.348903 0.700517 0.631703 0.332004 -0.772948 0.624293 -0.113179 
-0.771178 0.62335 -0.129303 0.759206 0.558352 0.334438 0.846547 0.438208 0.302213 
-0.763783 0.639128 -0.0902839 -0.760343 0.643629 -0.0872909 0.865228 0.396988 0.306236 
-0.753229 0.655754 -0.0513094 -0.745483 0.666288 -0.0177367 0.867363 0.256131 0.426706 
-0.769533 0.638587 0.00499587 -0.878871 0.476331 0.0263589 0.873806 0.116742 0.472054 
-0.916617 0.39664 0.049907 -0.834423 0.471179 -0.285883 0.871783 -0.0228428 0.48936 
0.998554 -0.00829476 -0.0531099 -0.951751 0.188355 0.242266 0.823059 -0.155283 0.546316 
-0.94505 -0.227906 0.234392 0.799531 -0.316056 0.510744 0.722799 -0.488917 0.488386 
-0.372157 -0.83458 0.406172 -0.705061 -0.614293 0.354307 -0.701999 -0.61769 0.354481 
0.706051 -0.512272 0.488946 0.751843 -0.544405 0.371961 0.474195 -0.743694 0.471231 
-0.226346 -0.946394 0.230447 -0.204919 -0.9293 0.307263 -0.154233 -0.931017 0.330787 
-0.141405 -0.90852 0.393188 -0.240816 -0.873578 0.422929 -0.221544 -0.873164 0.43417 
0.421893 -0.792062 0.441186 0.50109 -0.838392 0.214493 0.300046 -0.851667 0.429692 
0.115931 -0.908633 0.401181 -0.0558755 -0.895263 0.44202 -0.137599 -0.909599 0.392042 
-0.160219 -0.934819 0.316929 -0.206147 -0.950543 0.232319 -0.203737 -0.950437 0.234865 
0.457971 0.880059 -0.125531 0.248319 0.951283 -0.182753 0.0318267 0.972909 -0.228986 
-0.188172 0.943556 -0.272568 -0.456355 0.838543 -0.297634 0.549483 0.826824 -0.120127 
0.59627 0.792171 -0.130105 0.381937 0.754401 -0.533857 -0.581985 0.748472 -0.317935 
-0.428121 0.715311 -0.552307 -0.625216 0.710924 -0.322013 0.6693 0.730569 -0.1353 
0.677482 0.722549 -0.137626 -0.701413 0.631885 -0.329761 -0.723463 0.608152 -0.32673 
0.735334 0.660548 -0.151526 0.745127 0.648078 -0.157418 -0.727189 0.582284 -0.363514 
-0.644548 0.537346 -0.54389 -0.725005 0.581914 -0.368434 0.798871 0.576375 -0.172041 
0.841965 0.517688 -0.151969 0.61972 0.470712 -0.627995 -0.718743 0.581336 -0.381388 
-0.722848 0.517146 -0.458314 -0.666126 0.613039 -0.424804 0.874829 0.461763 -0.146455 
0.801913 0.424363 -0.420537 -0.657913 0.6245 -0.420892 -0.650904 0.590762 -0.476785 
-0.648049 0.621845 -0.439707 0.934645 0.324536 -0.14531 -0.669796 0.59987 -0.437641 
-0.629726 0.602192 -0.490724 0.982182 0.15449 -0.107009 0.99319 0.058953 -0.100491 
-0.772304 0.487943 -0.406766 -0.791126 0.463749 -0.398819 0.995364 -0.0073235 -0.0958986 
0.994733 -0.0431194 -0.0929892 0.993249 -0.00698213 -0.115788 -0.921038 0.240671 -0.306213 
-0.722787 0.267025 -0.637398 0.987512 -0.132541 -0.0851677 -0.940178 -0.169267 -0.295658 
-0.769428 -0.152133 -0.620352 0.937687 -0.344277 -0.0470759 -0.442234 -0.89417 -0.0699201 
-0.835422 -0.501973 -0.223815 -0.812296 -0.538841 -0.223217 -0.819621 -0.494533 -0.289238 
0.806072 -0.587345 -0.0726183 0.762411 -0.64309 -0.0718645 0.745537 -0.58846 -0.312872 
-0.208448 -0.977986 -0.00968463 -0.16805 -0.985589 0.0193026 -0.112581 -0.993424 0.020833 
-0.0677291 -0.997677 0.0072727 -0.404472 -0.912938 -0.0542919 -0.256431 -0.966201 -0.0264295 
0.538968 -0.839234 -0.0721118 0.49972 -0.863405 -0.0693708 0.519451 -0.824207 -0.225509 
0.262679 -0.964651 -0.021159 0.120307 -0.992637 -0.01407 -0.0337206 -0.99941 0.00656548 
-0.17679 -0.983932 0.0249616 -0.227645 -0.973384 0.0264734 -0.229721 -0.973217 -0.00875932 
-0.252417 -0.967606 -0.00482356 0.183451 0.702463 -0.687671 0.0201769 0.714044 -0.69981 
-0.179521 0.699401 -0.691817 0.500595 0.583792 -0.639212 0.292775 0.701603 -0.649642 
0.349131 0.681243 -0.643441 0.165649 0.646817 -0.744438 0.00829728 0.597567 -0.801776 
-0.327432 0.681052 -0.654948 -0.158002 0.626692 -0.763081 -0.402645 0.655791 -0.638604 
-0.543856 0.574858 -0.611358 0.506339 0.578637 -0.639375 0.529322 0.51705 -0.672664 
0.487966 0.567669 -0.663054 0.266736 0.380295 -0.885566 0.124675 0.297981 -0.946395 
-0.00208378 0.290615 -0.956838 -0.0896891 0.31443 -0.945034 -0.293955 0.398758 -0.868667 
-0.548249 0.57206 -0.610057 -0.539915 0.566833 -0.622247 0.537028 0.50998 -0.671953 
0.509729 0.492966 -0.705096 0.298171 0.326198 -0.897044 0.160464 0.213185 -0.963745 
0.0773066 0.0707407 -0.994495 -0.00539994 0.10941 -0.993982 -0.0349379 0.104809 -0.993879 
-0.173803 0.161462 -0.971454 -0.636826 0.534001 -0.556144 -0.357334 0.335167 -0.871766 
-0.639111 0.532991 -0.554489 0.607389 0.462811 -0.645666 0.60935 0.459176 -0.646413 
0.351149 0.333585 -0.87488 0.152843 0.213437 -0.964927 0.0149414 0.138034 -0.990315 
0.0194179 0.0102523 -0.999759 0.0217978 0.0282572 -0.999363 -0.0308424 -0.038735 -0.998773 
-0.0751741 -0.0631353 -0.99517 -0.15615 0.143733 -0.97722 -0.673509 0.456288 -0.581539 
-0.435428 0.342026 -0.832719 -0.667032 0.415042 -0.618715 0.658632 0.350729 -0.665728 
0.68456 0.268792 -0.67759 0.473766 0.271825 -0.83765 0.272678 0.155689 -0.949425 
-0.0317454 0.0741475 -0.996742 -0.133008 -0.0299991 -0.990661 0.0179208 -0.03954 -0.999057 
0.0378635 0.0834092 -0.995796 -0.261683 0.122912 -0.957296 -0.608548 0.394747 -0.688363 
-0.586894 0.312825 -0.74679 -0.498676 0.431062 -0.752002 0.686021 0.239239 -0.687124 
0.657793 0.234632 -0.715721 0.363893 0.160708 -0.917472 0.192052 0.0579584 -0.979672 
-0.0982663 -0.0186435 -0.994986 0.0397248 0.113265 -0.99277 -0.00866258 -0.0093805 -0.999918 
-0.209099 -0.00630124 -0.977874 -0.358762 0.193713 -0.913107 -0.49325 0.433357 -0.754259 
-0.486221 0.422 -0.765184 -0.528973 0.377538 -0.760035 0.708044 0.148237 -0.690435 
0.577349 0.137022 -0.804918 0.25473 0.0781066 -0.963853 0.0881447 0.00764713 -0.996078 
-0.0242885 -0.0671843 -0.997445 0.0302351 -0.125178 -0.991674 -0.135302 -0.0587199 -0.989063 
0.0999308 0.0253582 -0.994671 0.0194707 -0.0428158 -0.998893 -0.0824605 -0.112116 -0.990268 
-0.0872691 -0.00993573 -0.996135 -0.182454 0.116089 -0.976337 -0.315288 0.251261 -0.915129 
-0.535108 0.367487 -0.760666 -0.521776 0.362245 -0.772353 0.726793 0.00791862 -0.686811 
0.55695 -0.00134281 -0.830545 0.217907 -0.000873539 -0.975969 0.0489648 0.00247141 -0.998797 
-0.0504285 0.00519251 -0.998714 -0.0701404 0.0127083 -0.997456 0.029448 -0.109885 -0.993508 
0.070983 -0.0310717 -0.996993 -0.0825477 0.0190118 -0.996406 -0.0921773 -0.042635 -0.994829 
0.0214143 0.0166501 -0.999632 0.0102514 0.0887736 -0.995999 -0.0922248 0.0717649 -0.993149 
-0.216385 0.123875 -0.968417 -0.525035 0.220649 -0.821981 -0.37719 0.202368 -0.903756 
0.714277 -0.0643729 -0.696896 0.568847 -0.0647174 -0.819893 0.263419 -0.08074 -0.961297 
0.0939993 -0.0143959 -0.995468 -0.0814046 0.0888608 -0.992712 -0.100871 0.0999427 -0.989867 
0.0125893 -0.0223451 -0.999671 0.0669261 -0.0239313 -0.997471 0.0125403 0.0991012 -0.994998 
0.051679 0.0659481 -0.996484 -0.144536 -0.00195493 -0.989498 -0.164199 0.057779 -0.984734 
-0.619473 -0.0795168 -0.78098 -0.389837 -0.0385406 -0.920077 0.732682 -0.26159 -0.62829 
0.663344 -0.416848 -0.62146 0.622048 -0.252258 -0.74123 0.313057 -0.137669 -0.939703 
0.190772 -0.0977897 -0.976751 -0.0592702 0.0816637 -0.994896 0.0486956 -0.00923542 -0.998771 
-0.0050179 -0.0611048 -0.998119 -0.0509403 -0.126227 -0.990693 -0.0538416 -0.215557 -0.975006 
-0.0571896 -0.255826 -0.96503 -0.262077 -0.263089 -0.928493 -0.554865 -0.372989 -0.743643 
-0.508677 -0.573033 -0.642558 -0.477224 -0.310117 -0.822244 0.601962 -0.520184 -0.605846 
0.509299 -0.618548 -0.598343 0.457117 -0.423992 -0.781841 0.245832 -0.280353 -0.927884 
-0.0353855 -0.207221 -0.977654 -0.0655401 -0.176108 -0.982187 -0.0859358 -0.288197 -0.953707 
-0.188958 -0.891752 -0.411184 -0.120822 -0.468512 -0.875156 -0.175593 -0.888496 -0.42396 
-0.130326 -0.555019 -0.821565 -0.174589 -0.891381 -0.41828 -0.16238 -0.679925 -0.715077 
-0.190824 -0.815337 -0.546637 -0.198811 -0.724166 -0.660347 -0.294215 -0.75272 -0.588941 
-0.280313 -0.75133 -0.597434 -0.273988 -0.743517 -0.610011 0.402526 -0.74285 -0.534927 
0.312541 -0.805197 -0.50396 0.309683 -0.721605 -0.619179 0.150758 -0.849986 -0.504774 
0.121104 -0.674407 -0.72836 -0.00483418 -0.86444 -0.502712 0.0267909 -0.633685 -0.773127 
-0.123216 -0.88996 -0.439077 -0.0883141 -0.657062 -0.748646 -0.208105 -0.87884 -0.429339 
-0.183906 -0.755782 -0.628469 -0.235522 -0.890728 -0.388758 -0.239517 -0.888668 -0.391026 
-0.23736 -0.881178 -0.408882 0.119736 0.142071 -0.982588 -0.00775602 0.117938 -0.992991 
-0.000911462 0.0292708 -0.999571 0.158157 0.117923 -0.980347 0.102254 0.100278 -0.989691 
-0.0343864 0.0769136 -0.996445 -0.0439139 0.0851884 -0.995397 -0.0458064 0.0480482 -0.997794 
-0.0325548 0.0667708 -0.997237 -0.0620025 0.026393 -0.997727 -0.0537473 0.0319536 -0.998043 
0.16364 0.0367706 -0.985835 -0.0236677 -0.0669611 -0.997475 0.0748718 -0.0327412 -0.996656 
0.0159621 -0.105445 -0.994297 -0.013621 -0.0670194 -0.997659 -0.0336916 0.0421978 -0.998541 
-0.0898674 -0.0638278 -0.993906 -0.0918469 -0.0909356 -0.991612 -0.0796195 -0.0977698 -0.992019 
-0.0127944 -0.12363 -0.992246 -0.070781 -0.108626 -0.99156 -0.0314922 -0.121181 -0.992131 
-0.0523363 -0.1192 -0.99149 -0.0224829 0.050709 -0.99846 -0.0302771 0.0179605 -0.99938 
0.0365157 0.0268802 -0.998972 -0.0276806 0.0686807 -0.997255 -0.0145621 0.0640673 -0.997839 
-0.0607534 0.0622514 -0.99621 -0.0953464 0.0829349 -0.991983 -0.0300428 0.0179752 -0.999387 
-0.0306749 0.0177483 -0.999372 -0.0304321 0.0170526 -0.999391 -0.0303784 0.0177809 -0.99938 
0.149531 -0.0591626 -0.986985 0.0530139 0.0229081 -0.998331 -0.0294756 0.0245035 -0.999265 
-0.0866285 0.0798552 -0.993035 -0.0416887 -0.177019 -0.983324 -0.09375 0.0773491 -0.992587 
0.135445 -0.251543 -0.958322 0.106386 -0.294614 -0.949676 0.106069 -0.250153 -0.962379 
-0.035473 -0.207161 -0.977664 -0.0345856 -0.212939 -0.976453 -0.0351838 -0.207205 -0.977665 

