# vtk DataFile Version 4.2
vtk output
ASCII
DATASET POLYDATA
POINTS 510 float
-22.894 -46.4104 -17.1152 -14.5907 -46.4104 -18.2037 -6.28747 -46.4104 -18.711 
2.01577 -46.4104 -18.1558 10.319 -46.4104 -15.7526 -31.1972 -38.1071 -18.4214 
-22.894 -38.1071 -20.0805 -14.5907 -38.1071 -20.8701 -6.28747 -38.1071 -20.8043 
2.01577 -38.1071 -20.5644 10.319 -38.1071 -19.0541 18.6223 -38.1071 -15.6696 
-39.5005 -29.8039 -17.2418 -31.1972 -29.8039 -19.6519 -22.894 -29.8039 -20.8002 
-14.5907 -29.8039 -20.8541 -6.28747 -29.8039 -20.6544 2.01577 -29.8039 -20.7757 
10.319 -29.8039 -20.0345 18.6223 -29.8039 -18.2647 -39.5005 -21.5006 -17.8606 
-31.1972 -21.5006 -20.0829 -22.894 -21.5006 -20.5457 -14.5907 -21.5006 -20.0859 
-6.28747 -21.5006 -19.2617 2.01577 -21.5006 -19.4267 10.319 -21.5006 -19.9237 
18.6223 -21.5006 -19.2483 26.9255 -21.5006 -16.5042 -47.8037 -13.1974 -13.9201 
-39.5005 -13.1974 -18.2591 -31.1972 -13.1974 -19.8125 -22.894 -13.1974 -19.811 
-14.5907 -13.1974 -19.1923 -6.28747 -13.1974 -19.7781 2.01577 -13.1974 -19.6638 
10.319 -13.1974 -19.8753 18.6223 -13.1974 -20.3324 26.9255 -13.1974 -18.8444 
35.2288 -13.1974 -16.2862 -47.8037 -4.89413 -15.0189 -39.5005 -4.89413 -18.9246 
-31.1972 -4.89413 -20.5747 -22.894 -4.89413 -20.1831 -14.5907 -4.89413 -19.4892 
-6.28747 -4.89413 -21.4844 2.01577 -4.89413 -20.3276 10.319 -4.89413 -20.0069 
18.6223 -4.89413 -20.6253 26.9255 -4.89413 -19.7723 35.2288 -4.89413 -18.3953 
43.532 -4.89413 -16.1322 -47.8037 3.40912 -15.2349 -39.5005 3.40912 -19.1745 
-31.1972 3.40912 -20.8929 -22.894 3.40912 -20.5725 -14.5907 3.40912 -19.6346 
-6.28747 3.40912 -19.4404 2.01577 3.40912 -19.3401 10.319 3.40912 -20.0521 
18.6223 3.40912 -20.2181 26.9255 3.40912 -20.0191 35.2288 3.40912 -19.1845 
43.532 3.40912 -17.2564 -47.8037 11.7124 -14.3518 -39.5005 11.7124 -18.5741 
-31.1972 11.7124 -20.1926 -22.894 11.7124 -20.1946 -14.5907 11.7124 -19.6196 
-6.28747 11.7124 -20.683 2.01577 11.7124 -20.98 10.319 11.7124 -19.6978 
18.6223 11.7124 -20.2122 26.9255 11.7124 -20.4171 35.2288 11.7124 -20.0927 
43.532 11.7124 -17.1743 -39.5005 20.0156 -17.1046 -31.1972 20.0156 -19.2008 
-22.894 20.0156 -19.5314 -14.5907 20.0156 -19.4428 -6.28747 20.0156 -19.9556 
2.01577 20.0156 -19.5646 10.319 20.0156 -19.0478 18.6223 20.0156 -19.7191 
26.9255 20.0156 -19.9953 35.2288 20.0156 -18.9485 43.532 20.0156 -16.0241 
-39.5005 28.3189 -14.5327 -31.1972 28.3189 -16.823 -22.894 28.3189 -17.9157 
-14.5907 28.3189 -18.2411 -6.28747 28.3189 -18.3886 2.01577 28.3189 -18.238 
10.319 28.3189 -17.9726 18.6223 28.3189 -18.4961 26.9255 28.3189 -17.9161 
35.2288 28.3189 -16.2608 -22.894 36.6221 -14.7733 -14.5907 36.6221 -15.3759 
-6.28747 36.6221 -15.7697 2.01577 36.6221 -15.9844 10.319 36.6221 -15.7145 
18.6223 36.6221 -15.2481 -22.894 -50.01 -13.727 -14.5907 -51.2067 -13.727 
-6.28747 -52.0398 -13.727 2.01577 -51.449 -13.727 10.319 -48.7353 -13.727 
-30.0555 -46.4104 -13.727 -31.1972 -45.4931 -13.727 -31.1972 -46.4104 -10.5486 
14.2397 -46.4104 -13.727 18.6223 -41.9595 -13.727 18.6223 -46.4104 -10.1447 
-38.2246 -38.1071 -13.727 -39.5005 -36.7018 -13.727 -39.5005 -38.1071 -11.6019 
21.5661 -38.1071 -13.727 26.9255 -38.1071 -8.8437 -43.558 -29.8039 -13.727 
26.3122 -29.8039 -13.727 26.9255 -28.8291 -13.727 26.9255 -29.8039 -13.2742 
35.2288 -29.8039 -5.82222 -45.8859 -21.5006 -13.727 -47.8037 -14.3427 -13.727 
-47.8037 -21.5006 -11.8846 32.6975 -21.5006 -13.727 35.2288 -18.9091 -13.727 
35.2288 -21.5006 -12.3612 43.532 -21.5006 -7.94322 -48.0611 -13.1974 -13.727 
43.0143 -13.1974 -13.727 43.532 -12.6379 -13.727 43.532 -13.1974 -13.5395 
51.8352 -13.1974 -8.95379 -49.4506 -4.89413 -13.727 49.917 -4.89413 -13.727 
51.8352 -4.89413 -12.9287 60.1385 -4.89413 -7.99122 -49.7113 3.40912 -13.727 
51.8305 3.40912 -13.727 51.8352 3.40912 -13.7248 60.1385 3.40912 -7.62539 
-48.6041 11.7124 -13.727 -47.8037 14.3327 -13.727 50.1945 11.7124 -13.727 
51.8352 11.7124 -12.6774 -45.4381 20.0156 -13.727 -47.8037 20.0156 -11.887 
47.0165 20.0156 -13.727 43.532 24.5067 -13.727 51.8352 20.0156 -8.01927 
-40.7496 28.3189 -13.727 -47.8037 28.3189 -7.23284 -39.5005 29.6816 -13.727 
-31.1972 35.1479 -13.727 26.9255 36.5797 -13.727 39.6429 28.3189 -13.727 
35.2288 31.7705 -13.727 43.532 28.3189 -9.78481 -39.5005 36.6221 -7.81255 
-27.7516 36.6221 -13.727 -31.1972 36.6221 -12.8242 -22.894 38.1284 -13.727 
-14.5907 39.4172 -13.727 -6.28747 40.5451 -13.727 2.01577 40.8996 -13.727 
10.319 40.2689 -13.727 26.7978 36.6221 -13.727 18.6223 38.7728 -13.727 
26.9255 36.6221 -13.6958 35.2288 36.6221 -7.75033 -22.894 44.9253 -7.39001 
-14.5907 44.9253 -9.55747 -6.28747 44.9253 -10.9104 2.01577 44.9253 -10.9763 
10.319 44.9253 -10.2601 18.6223 44.9253 -7.90283 -31.1972 -47.4067 -5.42373 
-22.894 -51.7606 -5.42373 -14.5907 -53.8693 -5.42373 -6.28747 -54.3501 -5.42373 
2.01577 -54.7093 -5.42373 10.319 -53.2122 -5.42373 18.6223 -49.2547 -5.42373 
-32.8217 -46.4104 -5.42373 -39.5005 -41.3509 -5.42373 -31.1972 -46.4104 -3.71925 
-22.894 -46.4104 2.33987 22.2138 -46.4104 -5.42373 26.9255 -41.3421 -5.42373 
-42.088 -38.1071 -5.42373 -39.5005 -38.1071 0.495943 29.6578 -38.1071 -5.42373 
35.2288 -30.2886 -5.42373 -47.8004 -29.8039 -5.42373 -47.8037 -29.7973 -5.42373 
35.7461 -29.8039 -5.42373 43.532 -24.1953 -5.42373 -51.5978 -21.5006 -5.42373 
47.447 -21.5006 -5.42373 51.8352 -17.9314 -5.42373 51.8352 -21.5006 0.897697 
-54.1016 -13.1974 -5.42373 56.3178 -13.1974 -5.42373 60.1385 -8.80914 -5.42373 
60.1385 -13.1974 2.30335 -55.1997 -4.89413 -5.42373 62.2337 -4.89413 -5.42373 
-55.5305 3.40912 -5.42373 -56.1069 3.40912 0.769617 61.7642 3.40912 -5.42373 
60.1385 8.29261 -5.42373 -54.8467 11.7124 -5.42373 58.6993 11.7124 -5.42373 
-52.5213 20.0156 -5.42373 53.6705 20.0156 -5.42373 51.8352 22.0975 -5.42373 
-49.1155 28.3189 -5.42373 -47.8037 30.2763 -5.42373 46.2986 28.3189 -5.42373 
43.532 31.0919 -5.42373 -41.8871 36.6221 -5.42373 -39.5005 38.6407 -5.42373 
-31.1972 44.4061 -5.42373 26.9255 43.6371 -5.42373 37.0526 36.6221 -5.42373 
35.2288 38.1145 -5.42373 -29.3957 44.9253 -5.42373 -31.1972 44.9253 -3.2613 
-22.894 46.5463 -5.42373 -14.5907 48.7288 -5.42373 -6.28747 50.3203 -5.42373 
2.01577 50.4161 -5.42373 10.319 49.1977 -5.42373 23.7335 44.9253 -5.42373 
18.6223 46.8362 -5.42373 -6.28747 53.2286 2.51855 2.01577 53.2286 2.45943 
-14.5907 -48.8255 2.87951 -6.28747 -50.5391 2.87951 2.01577 -51.5063 2.87951 
10.319 -51.4334 2.87951 18.6223 -49.3168 2.87951 -31.1972 -42.3605 2.87951 
-21.8506 -46.4104 2.87951 -22.894 -45.9389 2.87951 -14.5907 -46.4104 5.43947 
-6.28747 -46.4104 7.3656 2.01577 -46.4104 9.92245 10.319 -46.4104 10.112 
23.2902 -46.4104 2.87951 18.6223 -46.4104 8.23934 26.9255 -43.8299 2.87951 
-37.7817 -38.1071 2.87951 -39.5005 -36.8234 2.87951 -31.1972 -38.1071 6.77948 
-22.894 -38.1071 8.79487 -14.5907 -38.1071 10.9718 32.807 -38.1071 2.87951 
35.2288 -35.558 2.87951 -46.0445 -29.8039 2.87951 -47.8037 -27.3372 2.87951 
-39.5005 -29.8039 9.07343 41.7599 -29.8039 2.87951 43.532 -28.3265 2.87951 
51.8352 -22.3546 2.87951 -51.0806 -21.5006 2.87951 -47.8037 -21.5006 8.04227 
52.7934 -21.5006 2.87951 51.8352 -21.5006 6.07488 60.1385 -13.4787 2.87951 
-54.1975 -13.1974 2.87951 60.3317 -13.1974 2.87951 60.1385 -13.1974 3.48863 
-55.7584 -4.89413 2.87951 -56.1069 0.662768 2.87951 63.7437 -4.89413 2.87951 
-56.278 3.40912 2.87951 -56.1069 9.07578 2.87951 -56.1069 3.40912 3.42351 
63.4522 3.40912 2.87951 60.1385 10.3841 2.87951 60.1385 3.40912 10.5847 
-56.0239 11.7124 2.87951 59.3529 11.7124 2.87951 -53.5588 20.0156 2.87951 
43.532 20.0156 11.0614 52.7207 20.0156 2.87951 51.8352 20.8544 2.87951 
51.8352 20.0156 3.90121 -49.9756 28.3189 2.87951 -47.8037 31.5887 2.87951 
-47.8037 28.3189 8.39169 35.2288 28.3189 11.1529 44.2831 28.3189 2.87951 
43.532 29.0306 2.87951 43.532 28.3189 3.76107 -43.7131 36.6221 2.87951 
-39.5005 40.3783 2.87951 26.9255 44.0634 2.87951 35.9822 36.6221 2.87951 
35.2288 37.297 2.87951 35.2288 36.6221 3.93955 -32.993 44.9253 2.87951 
-31.1972 46.0171 2.87951 -31.1972 44.9253 6.23581 -22.894 49.5963 2.87951 
-14.5907 52.0097 2.87951 10.319 51.7117 2.87951 25.51 44.9253 2.87951 
18.6223 48.7004 2.87951 18.6223 44.9253 10.0893 -6.94818 53.2286 2.87951 
-6.28747 53.3316 2.87951 -6.28747 53.2286 3.61355 2.60383 53.2286 2.87951 
2.01577 53.3422 2.87951 2.01577 53.2286 3.62393 -6.28747 -41.0856 11.1828 
2.01577 -44.8235 11.1828 10.319 -45.3052 11.1828 18.6223 -44.2163 11.1828 
26.9255 -40.2968 11.1828 -31.1972 -31.6904 11.1828 -22.894 -34.2934 11.1828 
-13.7151 -38.1071 11.1828 -14.5907 -37.7159 11.1828 -6.28747 -38.1071 13.0572 
2.01577 -38.1071 14.9748 10.319 -38.1071 16.0584 18.6223 -38.1071 16.0059 
29.5325 -38.1071 11.1828 26.9255 -38.1071 12.9418 35.2288 -32.8101 11.1828 
-34.5665 -29.8039 11.1828 -39.5005 -26.6281 11.1828 -31.1972 -29.8039 12.3402 
-22.894 -29.8039 13.7777 -14.5907 -29.8039 15.2585 -6.28747 -29.8039 16.8012 
2.01577 -29.8039 17.8619 10.319 -29.8039 18.2977 18.6223 -29.8039 18.521 
26.9255 -29.8039 16.4957 38.7341 -29.8039 11.1828 35.2288 -29.8039 13.2248 
43.532 -26.0725 11.1828 -44.374 -21.5006 11.1828 -47.8037 -16.2671 11.1828 
-39.5005 -21.5006 13.9119 -31.1972 -21.5006 16.0714 -22.894 -21.5006 17.1187 
-14.5907 -21.5006 18.2914 -6.28747 -21.5006 19.1726 2.01577 -21.5006 18.5945 
10.319 -21.5006 18.8258 18.6223 -21.5006 18.7601 26.9255 -21.5006 18.0895 
35.2288 -21.5006 17.4066 49.6552 -21.5006 11.1828 43.532 -21.5006 14.3793 
51.8352 -19.2518 11.1828 -49.2195 -13.1974 11.1828 -47.8037 -13.1974 12.6074 
-39.5005 -13.1974 17.1242 -31.1972 -13.1974 18.6789 -22.894 -13.1974 18.4955 
10.319 -13.1974 18.9209 18.6223 -13.1974 18.3954 26.9255 -13.1974 18.4597 
35.2288 -13.1974 18.3117 43.532 -13.1974 17.3792 56.476 -13.1974 11.1828 
51.8352 -13.1974 14.9392 60.1385 -6.12247 11.1828 -51.8387 -4.89413 11.1828 
-47.8037 -4.89413 14.7052 -39.5005 -4.89413 18.309 -31.1972 -4.89413 19.4804 
-22.894 -4.89413 19.3529 18.6223 -4.89413 18.752 26.9255 -4.89413 19.1123 
35.2288 -4.89413 19.3493 43.532 -4.89413 19.332 51.8352 -4.89413 16.2794 
[...]
POINT_DATA 510
SCALARS ImageScalars float
LOOKUP_TABLE default
0 0 0 0 0 0 0 0 0 
0 0 0 0 0 0 0 0 0 
0 0 0 0 0 0 0 0 0 
0 0 0 0 0 0 0 0 0 
0 0 0 0 0 0 0 0 0 
0 0 0 0 0 0 0 0 0 
0 0 0 0 0 0 0 0 0 
0 0 0 0 0 0 0 0 0 
0 0 0 0 0 0 0 0 0 
0 0 0 0 0 0 0 0 0 
0 0 0 0 0 0 0 0 0 
0 0 0 0 0 0 0 0 0 
0 0 0 0 0 0 0 0 0 
0 0 0 0 0 0 0 0 0 
0 0 0 0 0 0 0 0 0 
0 0 0 0 0 0 0 0 0 
0 0 0 0 0 0 0 0 0 
0 0 0 0 0 0 0 0 0 
0 0 0 0 0 0 0 0 0 
0 0 0 0 0 0 0 0 0 
0 0 0 0 0 0 0 0 0 
0 0 0 0 0 0 0 0 0 
0 0 0 0 0 0 0 0 0 
0 0 0 0 0 0 0 0 0 
0 0 0 0 0 0 0 0 0 
0 0 0 0 0 0 0 0 0 
0 0 0 0 0 0 0 0 0 
0 0 0 0 0 0 0 0 0 
0 0 0 0 0 0 0 0 0 
0 0 0 0 0 0 0 0 0 
0 0 0 0 0 0 0 0 0 
0 0 0 0 0 0 0 0 0 
0 0 0 0 0 0 0 0 0 
0 0 0 0 0 0 0 0 0 
0 0 0 0 0 0 0 0 0 
0 0 0 0 0 0 0 0 0 
0 0 0 0 0 0 0 0 0 
0 0 0 0 0 0 0 0 0 
0 0 0 0 0 0 0 0 0 
0 0 0 0 0 0 0 0 0 
0 0 0 0 0 0 0 0 0 
0 0 0 0 0 0 0 0 0 
0 0 0 0 0 0 0 0 0 
0 0 0 0 0 0 0 0 0 
0 0 0 0 0 0 0 0 0 
0 0 0 0 0 0 0 0 0 
0 0 0 0 0 0 0 0 0 
0 0 0 0 0 0 0 0 0 
0 0 0 0 0 0 0 0 0 
0 0 0 0 0 0 0 0 0 
0 0 0 0 0 0 0 0 0 
0 0 0 0 0 0 0 0 0 
0 0 0 0 0 0 0 0 0 
0 0 0 0 0 0 0 0 0 
0 0 0 0 0 0 0 0 0 
0 0 0 0 0 0 0 0 0 
0 0 0 0 0 0 
NORMALS Normals float
0.272099 0.608813 0.745191 0.100433 0.522959 0.84642 -0.0022913 0.485925 0.873998 
-0.148753 0.490348 0.858738 -0.33432 0.53367 0.776805 0.418337 0.365494 0.83151 
0.126468 0.203673 0.970836 0.0513095 0.130109 0.990171 -0.0179758 0.0913058 0.995661 
-0.100416 0.128141 0.986659 -0.253276 0.219349 0.942198 -0.465381 0.353631 0.811397 
0.517995 0.242317 0.820343 0.210535 0.0828452 0.97407 0.0738268 0.0311444 0.996785 
-0.00849753 -0.0470424 0.998857 -0.00480195 -0.0926432 0.995688 -0.0363877 -0.0697777 0.996899 
-0.142551 0.0482337 0.988612 -0.343216 0.183793 0.921099 0.405811 0.0613561 0.911895 
0.146593 0.0121974 0.989122 -0.00127924 -0.0609051 0.998143 -0.0767535 -0.0994309 0.99208 
-0.0403792 -0.0560168 0.997613 0.0397278 -0.0660432 0.997026 -0.00996869 -0.00936216 0.999906 
-0.187503 0.119965 0.974911 -0.374502 0.290427 0.880569 0.608099 0.136379 0.782059 
0.314921 0.0577885 0.947357 0.0917312 0.0297948 0.995338 -0.037314 -0.0224525 0.999051 
-0.00450933 -0.0358453 0.999347 0.0304297 0.133579 0.990571 0.00629599 0.0537741 0.998533 
0.0410861 0.00503543 0.999143 -0.0574311 0.0812154 0.995041 -0.235645 0.182245 0.954598 
-0.293788 0.316696 0.901883 0.582121 0.0711474 0.809983 0.306436 0.0541016 0.950353 
0.0720813 0.0649299 0.995283 -0.0659257 0.0465201 0.99674 0.0695892 0.0267441 0.997217 
0.0592584 -0.0286332 0.997832 -0.0894109 -0.0181697 0.995829 0.019862 0.0105727 0.999747 
-0.0144641 -0.00668776 0.999873 -0.12884 0.0673432 0.989376 -0.208059 0.165646 0.963988 
-0.29136 0.20313 0.934798 0.579982 -0.0356952 0.813847 0.312877 -0.0219584 0.94954 
0.0781597 -0.0228789 0.996678 -0.075194 -5.03676e-05 0.997169 -0.0684684 0.00788564 0.997622 
-0.0176303 -0.0411628 0.998997 0.0385522 0.0413993 0.998399 0.0507489 -0.018614 0.998538 
-0.00196822 -0.0248642 0.999689 -0.0615652 0.0398415 0.997308 -0.157118 0.0962285 0.98288 
-0.299309 0.0581542 0.952382 0.60025 -0.151693 0.785296 0.313395 -0.109936 0.943238 
0.0965454 -0.0977878 0.990513 -0.034505 -0.0619115 0.997485 0.0268661 -0.0114992 0.999573 
0.0829099 0.0320178 0.996043 -0.0615956 0.0101483 0.99805 -0.0426849 -0.0612223 0.997211 
0.0437948 -0.0298936 0.998593 -0.0060571 -0.00110634 0.999981 -0.17792 -0.00994065 0.983995 
-0.372457 -0.0677626 0.925572 0.363746 -0.231146 0.902364 0.127443 -0.197714 0.97194 
0.0135254 -0.132403 0.991104 0.0253296 -0.0836755 0.996171 0.00749115 -0.133273 0.991051 
-0.0556691 -0.160831 0.985411 0.00947689 -0.101084 0.994833 0.0573781 -0.0978555 0.993545 
-0.0419523 -0.142067 0.988968 -0.227059 -0.198027 0.953535 -0.453967 -0.289747 0.842591 
0.417048 -0.391208 0.820382 0.182133 -0.329443 0.926442 0.0848599 -0.265062 0.96049 
0.0267741 -0.231728 0.972412 0.000147652 -0.242068 0.970259 -0.0243683 -0.211623 0.977048 
0.0138217 -0.197877 0.980129 -0.00165779 -0.239296 0.970945 -0.112715 -0.343157 0.932491 
-0.331334 -0.456216 0.825884 0.131041 -0.486389 0.86386 0.0539382 -0.436447 0.898112 
0.0349029 -0.389673 0.920292 -0.00350189 -0.373251 0.927724 -0.0387678 -0.375666 0.925944 
-0.109949 -0.484271 0.867982 0.267844 0.831439 0.486794 0.115051 0.843023 0.525429 
0.0140683 0.808013 0.588997 -0.157112 0.744163 0.649259 -0.333448 0.652967 0.680034 
0.50632 0.692312 0.514144 0.539813 0.658018 0.524989 0.548024 0.795213 0.259434 
-0.426063 0.563507 0.707765 -0.507815 0.454831 0.731609 -0.575602 0.645065 0.502567 
0.596537 0.534575 0.598643 0.613716 0.499534 0.611407 0.669589 0.59614 0.443021 
-0.540128 0.38136 0.750218 -0.680315 0.48556 0.549002 0.713517 0.273597 0.64501 
-0.541278 0.315963 0.779221 -0.534703 0.321527 0.781482 -0.558573 0.328641 0.761572 
-0.580571 0.582405 0.568984 0.630383 0.194598 0.751498 0.6204 0.150052 0.769798 
0.741908 0.257686 0.619008 -0.394717 0.400714 0.826817 -0.366 0.40495 0.83789 
-0.404528 0.458379 0.791357 -0.448037 0.625992 0.638277 0.617155 0.138591 0.77454 
-0.353801 0.373872 0.857347 -0.35419 0.365969 0.860591 -0.358676 0.379571 0.852806 
-0.515648 0.459662 0.723062 0.647729 0.0675768 0.758868 -0.399902 0.225702 0.888334 
-0.437217 0.237531 0.867422 -0.738678 0.238447 0.630474 0.651759 -0.0352359 0.757608 
-0.473426 -0.00677651 0.880807 -0.473555 -0.00682578 0.880738 -0.809621 -0.159215 0.564946 
0.629201 -0.153127 0.762009 0.608799 -0.195234 0.768926 -0.532216 -0.163909 0.83059 
-0.596969 -0.216534 0.77249 0.547191 -0.278306 0.789385 0.662745 -0.294769 0.68839 
-0.573092 -0.343825 0.743875 -0.52815 -0.445326 0.723009 -0.760008 -0.542305 0.358181 
0.460272 -0.397995 0.793568 0.765022 -0.466242 0.444253 0.430869 -0.428697 0.794085 
0.267772 -0.477054 0.837089 -0.253866 -0.587648 0.768259 -0.466068 -0.527889 0.71001 
-0.392084 -0.553406 0.734855 -0.649822 -0.640068 0.409932 0.532554 -0.680895 0.502761 
0.223419 -0.504673 0.8339 0.297222 -0.530388 0.793945 0.135797 -0.532872 0.835229 
0.0808216 -0.508265 0.8574 0.0489768 -0.482426 0.874566 -0.00963631 -0.492665 0.870165 
-0.0733147 -0.486101 0.870822 -0.25243 -0.58755 0.768807 -0.142646 -0.552083 0.821496 
-0.255155 -0.589647 0.766298 -0.546778 -0.76613 0.337755 0.196691 -0.784205 0.588502 
0.151588 -0.689872 0.707883 0.064288 -0.624166 0.778642 -0.0284787 -0.638479 0.769112 
-0.126425 -0.692286 0.710462 -0.260283 -0.799207 0.541776 0.479974 0.862927 -0.15806 
0.350297 0.926717 -0.135972 0.136008 0.979928 -0.145746 0.0489169 0.99483 -0.0889945 
-0.0705582 0.997046 -0.030345 -0.287103 0.953709 0.0895049 -0.55329 0.800312 0.231023 
0.518849 0.844099 -0.135254 0.717514 0.696415 -0.0134225 0.457427 0.850117 -0.260885 
0.327704 0.665998 -0.670117 -0.64752 0.706614 0.285333 -0.705061 0.588847 0.395155 
0.770632 0.636995 -0.0190976 0.658297 0.649004 -0.381365 -0.714317 0.543041 0.441428 
-0.591614 0.585352 0.554397 0.868951 0.474978 0.138995 0.868998 0.474862 0.139099 
-0.578044 0.596061 0.557294 -0.480901 0.682368 0.550552 0.916779 0.336282 0.215476 
-0.485035 0.673319 0.558017 -0.527821 0.603736 0.597418 -0.596757 0.784074 0.170613 
0.942204 0.215944 0.256164 -0.648215 0.49298 0.580334 -0.770335 0.371147 0.518491 
-0.864211 0.501463 0.0409223 0.956246 0.0767565 0.282314 -0.840201 0.228024 0.492004 
0.95564 -0.0180559 0.293983 0.999805 0.00791254 -0.0180956 -0.873178 -0.184143 0.451277 
-0.869925 -0.313096 0.381054 0.930446 -0.161603 0.32887 -0.856933 -0.394027 0.332277 
0.889338 -0.30804 0.337918 -0.778442 -0.586655 0.223303 -0.763561 -0.616406 0.192399 
0.807258 -0.471722 0.354701 0.775499 -0.522855 0.35387 -0.719081 -0.682832 0.129086 
-0.694065 -0.709441 0.12234 0.60829 -0.694996 0.383358 0.560802 -0.729725 0.391156 
0.372203 -0.838508 0.397957 -0.422959 -0.845472 0.326012 -0.594336 -0.783334 0.182077 
-0.574193 -0.795905 0.191929 0.338564 -0.841523 0.420968 0.40814 -0.871849 0.270742 
0.229931 -0.827093 0.512883 0.184155 -0.818177 0.544677 0.0835804 -0.838434 0.538557 
-0.0571617 -0.841758 0.53682 -0.178382 -0.85557 0.485983 -0.368661 -0.852687 0.370153 
-0.288002 -0.856684 0.427956 0.0788216 -0.992917 0.0888965 -0.0950896 -0.992264 0.0798117 
0.187642 0.751783 -0.632149 0.143742 0.785714 -0.601657 0.0455009 0.870301 -0.490414 
-0.124107 0.907761 -0.400708 -0.379842 0.898134 -0.221532 0.334029 0.699183 -0.632113 
0.306327 0.655591 -0.690191 0.315496 0.642774 -0.698072 0.218971 0.667741 -0.711459 
0.189692 0.663368 -0.723851 0.127346 0.66098 -0.739519 -0.048999 0.732262 -0.679259 
-0.522043 0.843044 -0.129411 -0.284717 0.823606 -0.490519 -0.634346 0.771858 -0.0428909 
0.542761 0.634669 -0.550096 0.592262 0.615453 -0.520041 0.29592 0.621573 -0.725313 
0.210804 0.552628 -0.806328 0.20593 0.485353 -0.849721 -0.714204 0.699109 0.0340464 
-0.708744 0.701847 0.0713631 0.72965 0.568343 -0.380259 0.78013 0.52844 -0.334886 
0.441394 0.539494 -0.71702 -0.62316 0.776877 0.0901876 -0.604141 0.792237 0.0858687 
-0.606349 0.792809 0.0615958 0.859414 0.428877 -0.278336 0.718564 0.440444 -0.538214 
-0.621277 0.781892 0.0515739 -0.631063 0.760261 -0.154154 -0.862998 0.505162 0.00679592 
0.941534 0.261079 -0.21296 -0.86822 0.496114 0.00811273 -0.866544 0.498216 -0.029696 
0.982303 0.119101 -0.144555 0.99098 0.04965 -0.124473 -0.982914 0.165946 -0.0796325 
0.993221 0.0154131 -0.115214 0.989796 -0.101153 -0.100354 0.989841 0.0170906 -0.141151 
-0.965931 -0.238374 -0.100771 -0.872967 -0.451638 -0.184263 -0.735812 -0.28045 -0.616383 
0.98351 -0.154878 -0.0933824 -0.844337 -0.494244 -0.206926 0.937312 -0.329217 -0.114294 
-0.438984 -0.499691 -0.746727 -0.664637 -0.677379 -0.315303 -0.655045 -0.683354 -0.322401 
-0.638803 -0.673301 -0.372285 0.865204 -0.486911 -0.119747 0.816759 -0.564141 -0.121032 
0.774388 -0.48159 -0.41036 -0.505614 -0.412501 -0.757758 -0.640914 -0.676235 -0.363229 
-0.640728 -0.675421 -0.365067 -0.62842 -0.664204 -0.404874 0.705833 -0.701294 -0.0999346 
0.621547 -0.779884 -0.0738911 -0.554906 -0.812731 -0.177618 -0.682705 -0.675698 -0.278112 
-0.678903 -0.683394 -0.268448 -0.681248 -0.657862 -0.32112 0.50169 -0.86254 -0.0658156 
0.471741 -0.879912 -0.0567103 0.484375 -0.839145 -0.247418 0.347919 -0.93719 0.0250387 
0.213119 -0.97367 0.0809097 -0.264085 -0.964348 -0.0170749 -0.532445 -0.830928 -0.161434 
-0.416491 -0.903022 -0.105299 -0.41349 -0.701472 -0.580486 0.0883937 -0.993429 0.0727059 
0.0780338 -0.994347 0.0720078 0.0779848 -0.996367 0.0342137 -0.108161 -0.992649 0.0543036 
-0.0963615 -0.993591 0.0590932 -0.102152 -0.994589 0.0189278 0.21798 0.534499 -0.816576 
0.143477 0.597986 -0.78856 -0.0292689 0.678984 -0.73357 -0.205003 0.706251 -0.67763 
-0.474033 0.647488 -0.596701 0.228654 0.4923 -0.839856 0.18152 0.502657 -0.845214 
0.206367 0.484886 -0.849881 0.204397 0.481154 -0.852474 0.213065 0.475798 -0.853358 
0.158814 0.418785 -0.89409 0.0545792 0.40102 -0.914442 -0.153921 0.441584 -0.883918 
-0.523701 0.631268 -0.572047 -0.444162 0.561207 -0.698403 -0.556752 0.613761 -0.559755 
0.291045 0.490686 -0.821291 0.386091 0.474538 -0.791042 0.219647 0.466111 -0.857027 
0.157335 0.441942 -0.883138 0.164994 0.400222 -0.901443 0.148619 0.328896 -0.932598 
0.0850091 0.192958 -0.977518 0.0387132 0.153461 -0.987396 -0.106632 0.144338 -0.983766 
-0.290134 0.27089 -0.917846 -0.532964 0.640936 -0.552404 -0.458821 0.527465 -0.715028 
-0.511731 0.664831 -0.544178 0.532053 0.418311 -0.736163 0.643289 0.346626 -0.682664 
0.336366 0.398762 -0.853139 0.177294 0.347339 -0.920827 0.125239 0.258515 -0.957855 
0.121832 0.240812 -0.962895 0.0157332 0.248087 -0.96861 -0.020343 0.102269 -0.994549 
0.00992219 0.0368593 -0.999271 -0.0433295 -0.0085114 -0.999025 -0.0756448 0.115341 -0.990442 
-0.212167 0.274958 -0.937754 -0.564321 0.609453 -0.556874 -0.397512 0.473216 -0.786162 
-0.585566 0.572323 -0.574072 0.675764 0.2981 -0.67415 0.622917 0.284789 -0.728608 
0.280762 0.245424 -0.927869 0.069144 0.190028 -0.979341 0.0515649 0.131764 -0.989939 
-0.071825 0.149697 -0.98612 -0.0272825 -0.000464198 -0.999628 -0.00474176 0.0584391 -0.99828 
-0.0601055 0.109764 -0.992139 -0.171454 0.288451 -0.942019 -0.652715 0.424409 -0.627567 
-0.461858 0.333492 -0.82187 -0.757066 0.167035 -0.631625 0.751026 0.165023 -0.639318 
0.572805 0.142935 -0.807133 0.250677 0.109698 -0.961836 0.0639163 0.10044 -0.992888 
0.00939321 0.0822769 -0.996565 -0.130569 0.0995446 -0.986429 0.0368415 0.0239253 -0.999035 
0.0124899 0.0406746 -0.999094 -0.176563 0.0523787 -0.982895 -0.400923 0.0222042 -0.915843 
-0.765487 0.11869 -0.63241 -0.74309 -0.124798 -0.657452 -0.743958 0.117491 -0.657816 
0.792338 0.0311132 -0.609288 0.556796 0.0320862 -0.830029 0.258925 0.04781 -0.964714 
-0.0613501 -0.029355 -0.997685 -0.023626 -0.139531 -0.989936 -0.19023 -0.212656 -0.958431 
-0.698361 -0.279816 -0.658783 -0.401054 -0.220252 -0.889182 0.788807 -0.14137 -0.598162 
0.585553 -0.112308 -0.802817 0.27378 -0.0330694 -0.961224 -0.211906 -0.0651611 -0.975115 
-0.176055 -0.230658 -0.956975 -0.434237 -0.494955 -0.752634 -0.272634 -0.355173 -0.89416 
-0.50889 -0.490489 -0.707426 -0.497655 -0.492033 -0.714313 -0.48628 -0.481411 -0.729229 
0.744557 -0.289677 -0.601434 0.707761 -0.393737 -0.586554 0.660448 -0.261125 -0.704004 
0.343671 -0.196344 -0.918335 -0.284462 -0.156218 -0.945874 -0.434718 -0.493786 -0.753124 
-0.504218 -0.411511 -0.759225 -0.333952 -0.322538 -0.885689 0.668196 -0.441448 -0.598864 
0.419286 -0.356165 -0.835072 0.262206 -0.265597 -0.927742 -0.209514 -0.193369 -0.958495 
-0.504664 -0.411248 -0.759071 -0.391447 -0.272535 -0.878916 0.570224 -0.585969 -0.575747 
0.569354 -0.587047 -0.57551 0.568614 -0.585066 -0.578252 0.446929 -0.676722 -0.585066 
0.363653 -0.453663 -0.813601 0.262386 -0.34199 -0.902328 -0.18464 -0.28322 -0.941113 
-0.394083 -0.64042 -0.659212 -0.29068 -0.402775 -0.867916 -0.507168 -0.487099 -0.710996 
-0.472634 -0.530615 -0.703609 -0.459818 -0.467333 -0.755094 0.429518 -0.722914 -0.541211 
0.384514 -0.759912 -0.524102 0.372669 -0.671451 -0.640524 0.247681 -0.863204 -0.439925 
0.210134 -0.542346 -0.813452 0.0581523 -0.900805 -0.430312 0.00597177 -0.490957 -0.871163 
-0.165372 -0.856124 -0.489596 -0.184353 -0.477095 -0.859299 -0.385525 -0.656276 -0.648592 
-0.324979 -0.736454 -0.593316 -0.311205 -0.570022 -0.760412 0.158802 0.0863936 -0.983523 
0.0130019 0.242439 -0.970079 -0.126327 0.133826 -0.98292 0.1541 0.0813683 -0.984699 
0.160826 0.0785546 -0.983852 0.00661543 0.211619 -0.97733 -0.12832 0.140025 -0.981798 
-0.138235 0.137212 -0.980849 -0.0862285 0.158328 -0.983614 0.0637799 0.100198 -0.992921 
0.102522 0.0798493 -0.991521 0.0126791 0.0805191 -0.996672 0.212248 0.0768094 -0.974192 
0.0483416 0.113797 -0.992327 -0.0795054 0.0313043 -0.996343 -0.134374 0.119401 -0.983711 
-0.128958 0.161676 -0.978382 -0.151542 0.107725 -0.982563 0.203413 0.0520814 -0.977707 
0.0408642 0.0633532 -0.997154 0.0239265 0.0752696 -0.996876 0.201359 0.0591863 -0.977728 
-0.0414165 0.0235759 -0.998864 -0.100703 0.094076 -0.990459 -0.00773245 0.020167 -0.999767 
-0.115979 0.0446417 -0.992248 -0.165079 0.11196 -0.979905 0.220215 -0.0227148 -0.975187 
0.08656 -0.00742267 -0.996219 0.0134793 0.0434396 -0.998965 0.150063 0.0169207 -0.988532 
0.093722 -0.0555641 -0.994047 -0.0804908 0.0722659 -0.994132 -0.10017 -0.0508806 -0.993668 
-0.202619 -0.0377262 -0.978531 -0.186338 -0.0105096 -0.982429 0.227742 -0.161463 -0.960241 
0.17483 -0.185353 -0.966995 0.117348 -0.129692 -0.984586 0.052589 -0.0209714 -0.998396 
0.0923262 0.040317 -0.994912 0.0241328 -0.0790592 -0.996578 -0.0926358 -0.102497 -0.990411 
-0.0904184 -0.124776 -0.988056 -0.190638 -0.116106 -0.97477 -0.183857 -0.137292 -0.973318 
-0.170143 -0.109196 -0.979351 0.213397 -0.178397 -0.96054 0.216608 -0.214052 -0.952504 
0.182383 -0.121669 -0.975671 0.0951411 -0.0520194 -0.994104 -0.0476335 -0.0946635 -0.994369 
-0.12694 -0.10412 -0.98643 -0.12253 -0.16816 -0.978115 -0.11148 -0.173604 -0.978485 
-0.106133 -0.163689 -0.980786 0.179697 -0.283428 -0.942007 0.142092 -0.301753 -0.942738 
0.127743 -0.253029 -0.958988 -0.0112315 -0.314876 -0.949067 -0.029159 -0.223143 -0.97435 
-0.161143 -0.197703 -0.966926 -0.160672 -0.207744 -0.964897 -0.158097 -0.188042 -0.969353 

