# vtk DataFile Version 4.2
vtk output
ASCII
DATASET POLYDATA
POINTS 524 float
-25.5582 -39.5924 -13.7114 -17.7274 -39.5924 -14.1782 -9.89656 -39.5924 -14.7927 
-2.06575 -39.5924 -14.265 -33.389 -31.7615 -15.3721 -25.5582 -31.7615 -17.338 
-17.7274 -31.7615 -17.0748 -9.89656 -31.7615 -17.5844 -2.06575 -31.7615 -17.4848 
5.76506 -31.7615 -16.519 13.5959 -31.7615 -15.3597 -41.2198 -23.9307 -16.574 
-33.389 -23.9307 -18.4801 -25.5582 -23.9307 -18.7668 -17.7274 -23.9307 -17.8492 
-9.89656 -23.9307 -17.7105 -2.06575 -23.9307 -17.415 5.76506 -23.9307 -16.8785 
13.5959 -23.9307 -16.0482 21.4267 -23.9307 -14.8282 -49.0506 -16.0999 -15.6243 
-41.2198 -16.0999 -18.583 -33.389 -16.0999 -20.0168 -25.5582 -16.0999 -19.5586 
-17.7274 -16.0999 -18.2948 -9.89656 -16.0999 -17.1768 -2.06575 -16.0999 -17.3781 
5.76506 -16.0999 -16.576 13.5959 -16.0999 -15.7887 21.4267 -16.0999 -15.6386 
29.2575 -16.0999 -15.1927 37.0883 -16.0999 -13.8665 -49.0506 -8.26911 -16.9937 
-41.2198 -8.26911 -18.9276 -33.389 -8.26911 -20.0896 -25.5582 -8.26911 -19.7083 
-17.7274 -8.26911 -18.9732 -9.89656 -8.26911 -18.705 -2.06575 -8.26911 -18.764 
5.76506 -8.26911 -18.9773 13.5959 -8.26911 -17.5028 21.4267 -8.26911 -17.0093 
29.2575 -8.26911 -17.1981 37.0883 -8.26911 -16.3806 44.9191 -8.26911 -14.4088 
-49.0506 -0.438302 -16.8506 -41.2198 -0.438302 -19.2887 -33.389 -0.438302 -19.845 
-25.5582 -0.438302 -19.3269 -17.7274 -0.438302 -18.5663 -9.89656 -0.438302 -19.3614 
-2.06575 -0.438302 -16.0602 5.76506 -0.438302 -19.4484 13.5959 -0.438302 -20.4164 
21.4267 -0.438302 -19.3187 29.2575 -0.438302 -18.977 37.0883 -0.438302 -17.8495 
44.9191 -0.438302 -15.4733 -49.0506 7.39251 -17.1635 -41.2198 7.39251 -19.0596 
-33.389 7.39251 -19.8518 -25.5582 7.39251 -19.1856 -17.7274 7.39251 -18.539 
-9.89656 7.39251 -20.3371 -2.06575 7.39251 -21.0333 5.76506 7.39251 -20.5102 
13.5959 7.39251 -19.7754 21.4267 7.39251 -19.359 29.2575 7.39251 -19.3908 
37.0883 7.39251 -18.1335 44.9191 7.39251 -15.6166 -49.0506 15.2233 -16.7209 
-41.2198 15.2233 -19.3027 -33.389 15.2233 -20.387 -25.5582 15.2233 -20.4385 
-17.7274 15.2233 -19.6746 -9.89656 15.2233 -18.9989 -2.06575 15.2233 -19.0909 
5.76506 15.2233 -19.3176 13.5959 15.2233 -19.3941 21.4267 15.2233 -19.1975 
29.2575 15.2233 -18.6975 37.0883 15.2233 -17.2066 44.9191 15.2233 -14.5902 
-49.0506 23.0541 -15.2079 -41.2198 23.0541 -19.5745 -33.389 23.0541 -20.5061 
-25.5582 23.0541 -20.4176 -17.7274 23.0541 -20.2304 -9.89656 23.0541 -18.9129 
-2.06575 23.0541 -18.4768 5.76506 23.0541 -18.9131 13.5959 23.0541 -19.3398 
21.4267 23.0541 -18.8134 29.2575 23.0541 -17.4051 37.0883 23.0541 -14.9753 
-41.2198 30.8849 -16.3348 -33.389 30.8849 -19.4896 -25.5582 30.8849 -19.2251 
-17.7274 30.8849 -19.6437 -9.89656 30.8849 -18.4525 -2.06575 30.8849 -18.2279 
5.76506 30.8849 -18.241 13.5959 30.8849 -18.0749 21.4267 30.8849 -17.2455 
29.2575 30.8849 -14.5421 -25.5582 38.7157 -15.4742 -17.7274 38.7157 -16.4 
-9.89656 38.7157 -16.4541 -2.06575 38.7157 -16.346 5.76506 38.7157 -15.4525 
13.5959 38.7157 -13.9645 -25.5582 -39.7754 -13.5805 -17.7274 -40.4234 -13.5805 
-9.89656 -41.1436 -13.5805 -2.06575 -40.3897 -13.5805 -25.9134 -39.5924 -13.5805 
-33.389 -34.6346 -13.5805 -33.389 -39.5924 -8.58619 1.24706 -39.5924 -13.5805 
5.76506 -37.8953 -13.5805 5.76506 -39.5924 -12.3255 13.5959 -34.9856 -13.5805 
13.5959 -39.5924 -8.81935 -38.2599 -31.7615 -13.5805 -41.2198 -29.6736 -13.5805 
-41.2198 -31.7615 -11.8358 18.9585 -31.7615 -13.5805 21.4267 -28.564 -13.5805 
21.4267 -31.7615 -12.5255 29.2575 -31.7615 -8.93456 -46.6097 -23.9307 -13.5805 
-49.0506 -20.9453 -13.5805 -49.0506 -23.9307 -11.1864 27.3597 -23.9307 -13.5805 
29.2575 -22.374 -13.5805 29.2575 -23.9307 -13.1765 37.0883 -16.9459 -13.5805 
37.0883 -23.9307 -11.0239 44.9191 -23.9307 -6.92203 -51.8174 -16.0999 -13.5805 
38.0514 -16.0999 -13.5805 44.9191 -10.6362 -13.5805 44.9191 -16.0999 -11.4739 
52.7499 -16.0999 -6.67339 -53.2139 -8.26911 -13.5805 46.5761 -8.26911 -13.5805 
52.7499 -8.26911 -9.67284 -53.2857 -0.438302 -13.5805 -56.8814 -0.438302 -7.52881 
48.6345 -0.438302 -13.5805 52.7499 -0.438302 -11.1341 -53.4276 7.39251 -13.5805 
48.6699 7.39251 -13.5805 52.7499 7.39251 -10.8585 -52.762 15.2233 -13.5805 
46.524 15.2233 -13.5805 44.9191 17.5252 -13.5805 52.7499 15.2233 -7.85743 
-50.8972 23.0541 -13.5805 -49.0506 26.0666 -13.5805 39.7128 23.0541 -13.5805 
37.0883 25.7175 -13.5805 44.9191 23.0541 -10.1755 -45.2176 30.8849 -13.5805 
-41.2198 34.1437 -13.5805 -33.389 37.7161 -13.5805 21.4267 36.3009 -13.5805 
31.2268 30.8849 -13.5805 29.2575 32.1505 -13.5805 37.0883 30.8849 -9.97431 
-30.8974 38.7157 -13.5805 -33.389 38.7157 -11.2188 -25.5582 40.4145 -13.5805 
-17.7274 41.5338 -13.5805 -9.89656 42.6763 -13.5805 -2.06575 42.5444 -13.5805 
5.76506 41.0145 -13.5805 14.8067 38.7157 -13.5805 13.5959 39.0766 -13.5805 
21.4267 38.7157 -10.2832 -9.89656 46.5466 -6.13966 -2.06575 46.5466 -6.10051 
-33.389 -41.352 -5.74964 -25.5582 -44.8247 -5.74964 -17.7274 -47.3553 -5.74964 
-9.89656 -47.1812 -5.74964 -2.06575 -45.92 -5.74964 5.76506 -44.0843 -5.74964 
13.5959 -41.3884 -5.74964 -36.2776 -39.5924 -5.74964 -41.2198 -36.1338 -5.74964 
18.6227 -39.5924 -5.74964 21.4267 -38.4327 -5.74964 21.4267 -39.5924 -1.46165 
29.2575 -34.6824 -5.74964 -45.9796 -31.7615 -5.74964 -49.0506 -28.2917 -5.74964 
35.4238 -31.7615 -5.74964 37.0883 -30.8124 -5.74964 37.0883 -31.7615 -3.88672 
44.9191 -25.3653 -5.74964 -52.0807 -23.9307 -5.74964 46.6798 -23.9307 -5.74964 
52.7499 -17.3514 -5.74964 -55.4511 -16.0999 -5.74964 53.5981 -16.0999 -5.74964 
-56.8482 -8.26911 -5.74964 -56.8814 -7.9148 -5.74964 57.4057 -8.26911 -5.74964 
60.5807 -8.26911 0.488965 -57.5821 -0.438302 -5.74964 -56.8814 6.02786 -5.74964 
-56.8814 -0.438302 -3.14819 58.5698 -0.438302 -5.74964 60.5807 -0.438302 -0.684223 
-56.7364 7.39251 -5.74964 57.6245 7.39251 -5.74964 -55.837 15.2233 -5.74964 
54.4566 15.2233 -5.74964 52.7499 18.2183 -5.74964 -53.5116 23.0541 -5.74964 
-49.0506 30.2982 -5.74964 49.4225 23.0541 -5.74964 44.9191 28.0537 -5.74964 
-48.5164 30.8849 -5.74964 -41.2198 37.1424 -5.74964 29.2575 38.249 -5.74964 
41.856 30.8849 -5.74964 37.0883 34.1877 -5.74964 -37.897 38.7157 -5.74964 
-33.389 40.4449 -5.74964 -33.389 38.7157 0.274332 -25.5582 43.1238 -5.74964 
-17.7274 45.2157 -5.74964 5.76506 45.192 -5.74964 13.5959 43.0148 -5.74964 
28.0243 38.7157 -5.74964 21.4267 40.9763 -5.74964 -10.6852 46.5466 -5.74964 
-9.89656 46.6926 -5.74964 -9.89656 46.5466 -4.76854 -1.33775 46.5466 -5.74964 
-2.06575 46.6805 -5.74964 -2.06575 46.5466 -4.21069 -33.389 -40.3564 2.08117 
-25.5582 -44.4883 2.08117 -17.7274 -46.9253 2.08117 -9.89656 -47.3662 2.08117 
-2.06575 -46.5131 2.08117 5.76506 -44.974 2.08117 13.5959 -42.86 2.08117 
21.4267 -40.3776 2.08117 -34.5108 -39.5924 2.08117 -41.2198 -34.0953 2.08117 
-33.389 -39.5924 3.42613 23.4325 -39.5924 2.08117 21.4267 -39.5924 8.43731 
29.2575 -37.3846 2.08117 37.0883 -33.9665 2.08117 -43.6819 -31.7615 2.08117 
-49.0506 -25.0571 2.08117 -41.2198 -31.7615 5.04208 41.6939 -31.7615 2.08117 
44.9191 -30.1011 2.08117 -49.8125 -23.9307 2.08117 -49.0506 -23.9307 3.14879 
52.6588 -23.9307 2.08117 52.7499 -23.8393 2.08117 -53.3313 -16.0999 2.08117 
-49.0506 -16.0999 7.97555 58.3363 -16.0999 2.08117 60.5807 -9.8687 2.08117 
-54.7545 -8.26911 2.08117 -49.0506 -8.26911 9.74885 61.1318 -8.26911 2.08117 
60.5807 -8.26911 4.87503 -55.2254 -0.438302 2.08117 61.3803 -0.438302 2.08117 
60.5807 4.88635 2.08117 60.5807 -0.438302 5.56711 -54.356 7.39251 2.08117 
-49.0506 7.39251 8.75669 60.1756 7.39251 2.08117 -53.1395 15.2233 2.08117 
-49.0506 15.2233 7.16185 57.0595 15.2233 2.08117 52.7499 21.5321 2.08117 
-51.2293 23.0541 2.08117 -49.0506 25.963 2.08117 -49.0506 23.0541 4.50598 
51.5317 23.0541 2.08117 44.9191 29.7273 2.08117 -45.0703 30.8849 2.08117 
-41.2198 34.1438 2.08117 -41.2198 30.8849 6.39673 -33.389 38.1694 2.08117 
29.2575 38.4074 2.08117 43.3474 30.8849 2.08117 37.0883 35.0442 2.08117 
-32.0555 38.7157 2.08117 -25.5582 41.214 2.08117 -25.5582 38.7157 7.65942 
-17.7274 43.5314 2.08117 -9.89656 45.5306 2.08117 -2.06575 46.0046 2.08117 
5.76506 44.77 2.08117 13.5959 42.8018 2.08117 28.3432 38.7157 2.08117 
21.4267 41.0016 2.08117 21.4267 38.7157 7.56636 -25.5582 -39.8145 9.91198 
-17.7274 -43.2003 9.91198 -9.89656 -44.7675 9.91198 -2.06575 -44.7762 9.91198 
5.76506 -43.8415 9.91198 13.5959 -41.9547 9.91198 -25.9357 -39.5924 9.91198 
-33.389 -33.7233 9.91198 -25.5582 -39.5924 10.1397 -17.7274 -39.5924 13.6635 
-9.89656 -39.5924 16.055 -2.06575 -39.5924 16.2142 5.76506 -39.5924 16.3577 
20.8364 -39.5924 9.91198 13.5959 -39.5924 13.7174 21.4267 -39.3739 9.91198 
29.2575 -36.109 9.91198 37.0883 -33.0042 9.91198 -35.5698 -31.7615 9.91198 
-41.2198 -25.4661 9.91198 -33.389 -31.7615 11.2923 -25.5582 -31.7615 15.4236 
21.4267 -31.7615 17.33 29.2575 -31.7615 14.9673 39.5974 -31.7615 9.91198 
37.0883 -31.7615 11.4668 44.9191 -28.5583 9.91198 -42.3739 -23.9307 9.91198 
-41.2198 -23.9307 10.8063 -33.389 -23.9307 15.2575 37.0883 -23.9307 17.338 
50.6221 -23.9307 9.91198 44.9191 -23.9307 13.9708 52.7499 -21.9304 9.91198 
-46.9894 -16.0999 9.91198 -41.2198 -16.0999 13.991 -33.389 -16.0999 17.3322 
44.9191 -16.0999 17.6423 56.8632 -16.0999 9.91198 52.7499 -16.0999 14.4838 
-48.8641 -8.26911 9.91198 -49.0506 -5.96592 9.91198 -41.2198 -8.26911 15.0178 
59.2886 -8.26911 9.91198 52.7499 -8.26911 17.0787 -49.3995 -0.438302 9.91198 
-49.0506 1.46445 9.91198 -49.0506 -0.438302 10.227 -41.2198 -0.438302 14.8188 
59.2752 -0.438302 9.91198 52.7499 -0.438302 16.0062 -47.5134 7.39251 9.91198 
-41.2198 7.39251 13.7087 -33.389 7.39251 16.4348 -25.5582 7.39251 17.4906 
-17.7274 7.39251 16.7855 57.7778 7.39251 9.91198 52.7499 7.39251 15.5352 
-45.5648 15.2233 9.91198 -41.2198 15.2233 12.6341 -33.389 15.2233 16.1937 
-25.5582 15.2233 17.4045 44.9191 15.2233 16.8836 54.5965 15.2233 9.91198 
52.7499 17.8797 9.91198 52.7499 15.2233 12.0998 -42.8763 23.0541 9.91198 
-41.2198 25.4792 9.91198 -41.2198 23.0541 11.0476 -33.389 23.0541 15.0809 
[...]
POINT_DATA 524
SCALARS ImageScalars float
LOOKUP_TABLE default
0 0 0 0 0 0 0 0 0 
0 0 0 0 0 0 0 0 0 
0 0 0 0 0 0 0 0 0 
0 0 0 0 0 0 0 0 0 
0 0 0 0 0 0 0 0 0 
0 0 0 0 0 0 0 0 0 
0 0 0 0 0 0 0 0 0 
0 0 0 0 0 0 0 0 0 
0 0 0 0 0 0 0 0 0 
0 0 0 0 0 0 0 0 0 
0 0 0 0 0 0 0 0 0 
0 0 0 0 0 0 0 0 0 
0 0 0 0 0 0 0 0 0 
0 0 0 0 0 0 0 0 0 
0 0 0 0 0 0 0 0 0 
0 0 0 0 0 0 0 0 0 
0 0 0 0 0 0 0 0 0 
0 0 0 0 0 0 0 0 0 
0 0 0 0 0 0 0 0 0 
0 0 0 0 0 0 0 0 0 
0 0 0 0 0 0 0 0 0 
0 0 0 0 0 0 0 0 0 
0 0 0 0 0 0 0 0 0 
0 0 0 0 0 0 0 0 0 
0 0 0 0 0 0 0 0 0 
0 0 0 0 0 0 0 0 0 
0 0 0 0 0 0 0 0 0 
0 0 0 0 0 0 0 0 0 
0 0 0 0 0 0 0 0 0 
0 0 0 0 0 0 0 0 0 
0 0 0 0 0 0 0 0 0 
0 0 0 0 0 0 0 0 0 
0 0 0 0 0 0 0 0 0 
0 0 0 0 0 0 0 0 0 
0 0 0 0 0 0 0 0 0 
0 0 0 0 0 0 0 0 0 
0 0 0 0 0 0 0 0 0 
0 0 0 0 0 0 0 0 0 
0 0 0 0 0 0 0 0 0 
0 0 0 0 0 0 0 0 0 
0 0 0 0 0 0 0 0 0 
0 0 0 0 0 0 0 0 0 
0 0 0 0 0 0 0 0 0 
0 0 0 0 0 0 0 0 0 
0 0 0 0 0 0 0 0 0 
0 0 0 0 0 0 0 0 0 
0 0 0 0 0 0 0 0 0 
0 0 0 0 0 0 0 0 0 
0 0 0 0 0 0 0 0 0 
0 0 0 0 0 0 0 0 0 
0 0 0 0 0 0 0 0 0 
0 0 0 0 0 0 0 0 0 
0 0 0 0 0 0 0 0 0 
0 0 0 0 0 0 0 0 0 
0 0 0 0 0 0 0 0 0 
0 0 0 0 0 0 0 0 0 
0 0 0 0 0 0 0 0 0 
0 0 0 0 0 0 0 0 0 
0 0 
NORMALS Normals float
0.205876 0.558997 0.803205 0.0631874 0.493851 0.867248 0.00642283 0.509658 0.860353 
-0.117435 0.571386 0.812236 0.238985 0.448854 0.861055 0.0922551 0.315183 0.944536 
0.0165282 0.205957 0.978422 0.0263436 0.160515 0.986682 -0.0635592 0.16225 0.984701 
-0.137395 0.225086 0.964603 -0.217706 0.300216 0.928695 0.330382 0.325937 0.885784 
0.118801 0.258581 0.958656 -0.0407617 0.132073 0.990402 -0.0651396 0.0756071 0.995008 
-0.0280896 -0.0269955 0.999241 -0.0529198 -0.0064913 0.998578 -0.0856928 0.00192636 0.99632 
-0.127478 0.0276603 0.991456 -0.173135 0.170085 0.970101 0.530331 0.249232 0.810329 
0.254354 0.126833 0.958758 0.0677502 0.108287 0.991808 -0.108523 0.0582845 0.992384 
-0.151859 0.0713402 0.985824 -0.0579288 0.062375 0.99637 -0.0381374 0.0866554 0.995508 
-0.102467 0.115625 0.987994 -0.0594511 0.0732615 0.995539 -0.0366912 0.134691 0.990208 
-0.104067 0.239348 0.965341 -0.212586 0.313449 0.925503 0.459931 0.0756606 0.884726 
0.201556 0.0463064 0.978382 0.0474052 -0.0111374 0.998814 -0.0709159 -0.0147709 0.997373 
-0.0641161 0.0184715 0.997772 -0.0135107 0.141539 0.98984 0.0159816 -0.0557849 0.998315 
-0.068589 0.191496 0.979094 -0.122299 0.30952 0.942995 -0.0141828 0.235467 0.971779 
-0.0406776 0.234071 0.971368 -0.170885 0.234067 0.957085 -0.361847 0.224712 0.904749 
0.4586 0.0118308 0.888564 0.170132 0.00811966 0.985388 0.00131377 -0.0151725 0.999884 
-0.079347 -0.0334261 0.996286 0.00152386 -0.0282718 0.999599 -0.126702 0.0982628 0.987062 
-0.0326499 0.116647 0.992637 0.264026 0.104292 0.958861 -0.018857 0.117299 0.992918 
-0.087652 0.145975 0.985398 -0.0913327 0.136816 0.986377 -0.209038 0.1108 0.97161 
-0.373763 0.0744919 0.924528 0.456847 -0.0104714 0.889483 0.172519 0.00278345 0.985002 
0.00690206 0.0345977 0.999377 -0.0822716 0.0648094 0.9945 0.0624284 0.0666666 0.99582 
0.158018 -0.023983 0.987145 0.00740431 0.163895 0.98645 -0.0746918 -0.0197459 0.997011 
-0.0743711 -0.063981 0.995176 -0.0235848 -0.00775478 0.999692 -0.0754345 -0.0177036 0.996994 
-0.226043 -0.0416363 0.973227 -0.394578 -0.0551848 0.917204 0.538781 -0.116689 0.834326 
0.217925 0.0284511 0.975551 0.0780448 0.0413556 0.996092 -0.0435668 0.0811798 0.995747 
-0.0898655 0.105585 0.990341 -0.0356752 -0.0841578 0.995814 0.0217395 -0.157354 0.987303 
0.0183278 -0.102233 0.994592 -0.00767775 -0.0268973 0.999609 -0.0440371 -0.0341577 0.998446 
-0.126218 -0.120789 0.984621 -0.252451 -0.175369 0.951585 -0.449432 -0.250105 0.857589 
0.632029 -0.314974 0.708047 0.29638 -0.154258 0.94253 0.0450437 -0.0449806 0.997972 
-0.0165177 -0.0719222 0.997273 -0.0997155 -0.00115663 0.995015 -0.104878 -0.0343236 0.993893 
2.76442e-05 -0.0516228 0.998667 0.0557378 -0.0686401 0.996083 -0.00551441 -0.0829543 0.996538 
-0.118753 -0.119201 0.985743 -0.220551 -0.22933 0.948032 -0.367993 -0.367588 0.854084 
0.442592 -0.523665 0.727933 0.154347 -0.386089 0.909457 0.0116952 -0.276254 0.961014 
-0.0508244 -0.188566 0.980745 -0.0827816 -0.14944 0.985299 -0.0132937 -0.130326 0.991382 
-0.00963908 -0.202114 0.979314 -0.0605419 -0.274271 0.959745 -0.196349 -0.381543 0.903256 
-0.369974 -0.486274 0.791617 0.190413 -0.677604 0.710349 0.0540063 -0.600781 0.797588 
-0.00430446 -0.454624 0.890673 -0.0606023 -0.445501 0.893228 -0.133347 -0.551221 0.823635 
-0.219859 -0.706374 0.672828 0.208805 0.5674 0.796528 0.0604068 0.536277 0.841878 
-0.00555878 0.581511 0.813519 -0.124199 0.610579 0.782156 0.215021 0.566009 0.795864 
0.299904 0.550813 0.778886 0.44735 0.815724 0.366704 -0.160848 0.60495 0.779848 
-0.1978 0.555254 0.807817 -0.22999 0.67719 0.698941 -0.260215 0.470882 0.842946 
-0.310255 0.809059 0.499166 0.360098 0.544817 0.7573 0.422357 0.528925 0.736106 
0.505766 0.644198 0.573768 -0.304346 0.392762 0.86782 -0.275296 0.325966 0.90441 
-0.349567 0.460304 0.816041 -0.376416 0.624962 0.68391 0.552993 0.432515 0.71213 
0.608478 0.388601 0.691913 0.726924 0.49426 0.476747 -0.206216 0.279586 0.937714 
-0.19378 0.297763 0.934765 -0.218684 0.318952 0.922197 -0.223076 0.323886 0.919421 
-0.327132 0.450726 0.83056 -0.473028 0.563906 0.676945 0.680443 0.265628 0.682963 
-0.22529 0.322521 0.919361 -0.351823 0.276313 0.894356 -0.347903 0.393283 0.851053 
-0.643134 0.400667 0.652567 0.738261 0.0684506 0.671033 -0.409413 0.216124 0.886381 
-0.596734 0.205615 0.775649 0.705631 0.0125574 0.708468 0.986071 -0.00357782 0.166287 
-0.469019 0.0656156 0.880747 -0.602391 0.0604156 0.795912 0.757392 -0.0309763 0.652225 
-0.495496 -0.0842956 0.86451 -0.647702 -0.149011 0.74718 0.769713 -0.134053 0.624156 
-0.499776 -0.266069 0.824276 -0.477868 -0.31088 0.821581 -0.742844 -0.361207 0.563661 
0.718036 -0.347284 0.603173 0.67932 -0.453578 0.576881 -0.430268 -0.403795 0.807353 
-0.398892 -0.435294 0.807096 -0.574442 -0.505019 0.644183 0.602453 -0.592607 0.534665 
0.47998 -0.677177 0.557719 0.303099 -0.769484 0.56216 -0.271341 -0.659889 0.700657 
-0.389611 -0.508791 0.767682 -0.376798 -0.540139 0.752511 -0.481874 -0.64041 0.598057 
0.276596 -0.779602 0.561886 0.334735 -0.863921 0.376288 0.204088 -0.788988 0.579522 
0.126073 -0.749965 0.649352 0.0521783 -0.687541 0.724268 -0.0832876 -0.674137 0.733895 
-0.177475 -0.670545 0.720328 -0.233077 -0.72082 0.652758 -0.226054 -0.723291 0.652494 
-0.286263 -0.835891 0.468337 0.0900393 -0.986778 0.13477 -0.0916669 -0.98211 0.164489 
0.465738 0.864458 0.189208 0.344098 0.915668 0.20772 0.131411 0.962868 0.235833 
-0.0857413 0.961189 0.262228 -0.179015 0.942128 0.283457 -0.271949 0.909794 0.313558 
-0.314036 0.887367 0.337582 0.521839 0.838173 0.158586 0.629304 0.769235 0.110697 
-0.337673 0.862672 0.37653 -0.360946 0.834189 0.41695 -0.348914 0.915489 0.200345 
-0.390764 0.768355 0.506887 0.713704 0.695962 0.0791465 0.78888 0.611297 0.0631136 
-0.403437 0.734696 0.545399 -0.408469 0.720481 0.56041 -0.424431 0.79203 0.438801 
-0.484561 0.60756 0.629342 0.862216 0.501616 0.0704613 -0.514186 0.57757 0.634055 
-0.653772 0.432518 0.620895 0.958517 0.282572 0.0374012 -0.672879 0.407063 0.617684 
0.989276 0.131251 0.0640751 0.990124 0.124878 0.0637258 -0.745584 0.238256 0.622365 
-0.963342 0.203567 0.174733 0.998054 -0.00741322 0.0619188 0.995254 -0.0898825 0.0372794 
0.994708 -0.0128191 -0.101941 -0.830584 0.00148687 0.556892 -0.979276 -0.0438693 0.197724 
0.993621 -0.107794 0.0331237 -0.837139 -0.220772 0.500458 0.978905 -0.204178 0.00755317 
-0.79053 -0.388069 0.473778 -0.771633 -0.446907 0.452611 0.923175 -0.383689 0.0230534 
0.746308 -0.665198 -0.0231464 -0.710347 -0.56008 0.426284 -0.639344 -0.666396 0.383608 
0.7247 -0.688676 -0.0231196 0.542275 -0.840104 -0.0127687 -0.373959 -0.894043 0.246661 
-0.596593 -0.724213 0.345821 -0.508841 -0.795252 0.329629 0.443765 -0.89613 -0.00484263 
0.334994 -0.942075 0.0165447 0.376311 -0.883394 -0.279294 0.28162 -0.958844 0.0361695 
0.232739 -0.969553 0.0761537 -0.229642 -0.957475 0.174662 -0.259475 -0.947237 0.188187 
-0.35628 -0.904048 0.236138 -0.284021 -0.933846 0.2174 0.105584 -0.988699 0.106428 
0.0907879 -0.989694 0.110744 0.098485 -0.992931 0.0662455 -0.103587 -0.983846 0.146001 
-0.0911302 -0.98533 0.144291 -0.0831135 -0.993674 0.0755238 0.531033 0.793741 -0.296612 
0.376982 0.895717 -0.235746 0.167228 0.964282 -0.205415 -0.0273659 0.991006 -0.130987 
-0.148527 0.986744 -0.0653992 -0.226409 0.973872 -0.0176393 -0.285431 0.957817 0.0334128 
-0.335497 0.940965 0.0450223 0.547334 0.779117 -0.305618 0.629437 0.67889 -0.378043 
0.535825 0.766823 -0.353375 -0.341788 0.938566 0.0476878 -0.337772 0.902421 -0.267481 
-0.363693 0.929465 0.0618311 -0.425188 0.89965 0.0992253 0.665515 0.638181 -0.38706 
0.758084 0.501599 -0.416783 0.612954 0.612423 -0.499225 -0.484749 0.867834 0.109009 
-0.534364 0.836526 0.121155 0.775489 0.477984 -0.41249 0.746929 0.479447 -0.460682 
-0.707371 0.697068 0.117143 -0.709973 0.694335 0.117631 0.855452 0.278002 -0.43694 
0.710448 0.254744 -0.656025 -0.88988 0.438425 0.126079 -0.967305 0.240671 0.0799868 
0.891257 0.110216 -0.439901 0.678919 0.094783 -0.728069 -0.978914 0.190207 0.0744966 
-0.976 0.186424 -0.11256 0.878548 -0.0250021 -0.476999 -0.998016 -0.0547605 0.0310721 
-0.978984 -0.202992 0.0196231 -0.979846 -0.0669213 -0.18821 0.86827 -0.119675 -0.481441 
0.661487 -0.133614 -0.737958 -0.961271 -0.275277 0.0134423 0.862689 -0.168186 -0.47695 
0.67399 -0.188446 -0.714301 -0.886892 -0.461976 -0.000314105 -0.801706 -0.596318 -0.0408976 
0.781408 -0.391458 -0.485965 0.715431 -0.487702 -0.500305 0.699015 -0.397459 -0.594478 
-0.7753 -0.628977 -0.0574257 -0.624245 -0.775055 -0.0980171 0.637063 -0.627629 -0.447474 
0.540747 -0.718082 -0.438122 0.565677 -0.591724 -0.574345 0.379835 -0.845572 -0.375144 
-0.34307 -0.931256 -0.122741 -0.591113 -0.799123 -0.109487 -0.474008 -0.870159 -0.134687 
0.366321 -0.857486 -0.361284 0.296904 -0.899178 -0.321444 0.324958 -0.805946 -0.494827 
0.263851 -0.91767 -0.297092 0.147289 -0.956545 -0.251649 -0.0461655 -0.976086 -0.212427 
-0.19817 -0.96073 -0.194234 -0.236772 -0.952395 -0.192046 -0.332828 -0.9343 -0.127707 
-0.261472 -0.948323 -0.179764 -0.221134 -0.849756 -0.478555 0.386153 0.671446 -0.632492 
0.248626 0.774366 -0.581844 0.0810941 0.869487 -0.487253 -0.0570945 0.910315 -0.409959 
-0.172147 0.924562 -0.339928 -0.271241 0.90842 -0.318121 0.391765 0.666102 -0.634687 
0.486879 0.54441 -0.683056 0.385872 0.663216 -0.641285 0.27315 0.618722 -0.736595 
0.127515 0.561259 -0.817758 0.0139481 0.593945 -0.804385 -0.0974364 0.644238 -0.758593 
-0.32865 0.881389 -0.339327 -0.263387 0.789719 -0.55405 -0.334106 0.876987 -0.34535 
-0.356921 0.853073 -0.380624 -0.392131 0.830687 -0.395213 0.50126 0.51492 -0.69541 
0.557372 0.427741 -0.711599 0.472356 0.493113 -0.730561 0.350355 0.379116 -0.856459 
-0.257565 0.405623 -0.877001 -0.299681 0.574952 -0.761328 -0.424589 0.8124 -0.399662 
-0.384376 0.781505 -0.491431 -0.504898 0.742225 -0.44066 0.565451 0.405046 -0.718473 
0.549247 0.396188 -0.735773 0.362135 0.314494 -0.877469 -0.248615 0.375171 -0.892993 
-0.628749 0.642061 -0.438671 -0.451513 0.541086 -0.70948 -0.686003 0.585236 -0.432318 
0.634754 0.241426 -0.734031 0.490245 0.213746 -0.844969 0.304615 0.184222 -0.93449 
-0.235179 0.30472 -0.92295 -0.807661 0.387436 -0.444497 -0.583495 0.372467 -0.721666 
0.671804 0.0938036 -0.734765 0.670518 0.0540699 -0.73992 0.471423 0.0447993 -0.880769 
-0.86505 0.151256 -0.47834 -0.507539 0.0773449 -0.85815 0.660237 -0.0467648 -0.7496 
0.649169 -0.0697985 -0.757435 0.648871 -0.0478892 -0.75939 0.429352 -0.0773222 -0.899821 
-0.861865 -0.0751587 -0.501537 -0.557941 -0.0666085 -0.827203 0.599836 -0.134671 -0.788708 
0.424823 -0.123701 -0.896785 0.227871 -0.094999 -0.969046 0.019626 -0.0728586 -0.997149 
0.0219046 -0.021588 -0.999527 -0.820104 -0.272597 -0.50311 -0.600152 -0.195191 -0.775705 
0.558584 -0.163906 -0.813092 0.487971 -0.141357 -0.861338 0.274369 -0.0759004 -0.958624 
0.11163 0.000798268 -0.99375 -0.386378 -0.337456 -0.858391 -0.750337 -0.437445 -0.495618 
-0.706946 -0.500571 -0.499656 -0.671083 -0.4301 -0.603873 0.548039 -0.302597 -0.7798 
0.534399 -0.370376 -0.759763 0.518877 -0.284422 -0.806146 0.351269 -0.241113 -0.904696 
0.205367 -0.11958 -0.971352 -0.254245 -0.43608 -0.863246 -0.601846 -0.602813 -0.52383 
-0.551024 -0.63758 -0.538391 -0.512375 -0.560988 -0.650203 0.461583 -0.54381 -0.700865 
0.409139 -0.610697 -0.677979 0.401185 -0.527338 -0.748976 0.331215 -0.734708 -0.592031 
0.289819 -0.442184 -0.84881 0.193019 -0.348192 -0.917336 -0.11287 -0.249973 -0.961652 
-0.150064 -0.370759 -0.916525 -0.194992 -0.749161 -0.633038 -0.143791 -0.480949 -0.864877 
-0.284281 -0.746707 -0.601342 -0.21082 -0.581261 -0.785932 -0.421425 -0.728813 -0.53966 
-0.407423 -0.735866 -0.540839 -0.39752 -0.720129 -0.568676 0.290836 -0.773921 -0.562548 
0.251925 -0.792737 -0.555069 0.246287 -0.747833 -0.616513 0.159881 -0.816451 -0.554839 
0.142214 -0.664424 -0.7337 -0.0301912 -0.833771 -0.551285 -0.0382394 -0.612022 -0.789915 
-0.191582 -0.803442 -0.563717 -0.188935 -0.664896 -0.722646 -0.21232 -0.773246 -0.597504 
-0.223237 -0.779279 -0.585568 -0.222442 -0.749992 -0.622922 0.202079 0.304233 -0.930917 
0.108211 0.330894 -0.937443 0.035325 0.397925 -0.916737 -0.0511615 0.469438 -0.881482 
-0.183254 0.451199 -0.873406 0.2087 0.295221 -0.932357 0.238669 0.230261 -0.943407 
0.197546 0.289521 -0.936565 0.0887784 0.183399 -0.979022 0.049768 0.199053 -0.978724 
-0.00318611 0.22189 -0.975067 -0.232096 0.374952 -0.89752 -0.125407 0.281242 -0.951407 
-0.227265 0.337144 -0.913611 -0.138853 0.26391 -0.954501 0.238754 0.226589 -0.944274 
0.232965 0.222743 -0.946632 0.101061 0.0988563 -0.989957 0.0487079 0.010255 -0.99876 
0.0672245 -0.030892 -0.997259 0.0124813 0.0587792 -0.998193 -0.0871382 0.0455544 -0.995154 
-0.120031 0.10873 -0.986798 -0.182911 0.301856 -0.935642 -0.10415 0.220087 -0.969904 
-0.20416 0.319189 -0.925439 0.270025 0.167606 -0.948153 0.289774 0.124901 -0.94891 
0.137663 0.102584 -0.985152 -0.0181019 0.0277923 -0.99945 -0.0405104 -0.0304828 -0.998714 
0.102507 -0.0432179 -0.993793 0.0718029 0.0420388 -0.996532 -0.0830196 0.0128944 -0.996464 
-0.0580594 0.0247945 -0.998005 -0.0289096 0.136487 -0.99022 -0.222228 0.293973 -0.929621 
-0.0908503 0.178185 -0.979794 -0.231218 0.293986 -0.927422 0.305741 0.0312258 -0.951603 
0.264134 0.0252082 -0.964157 0.0815946 -0.0446699 -0.995664 -0.0315948 -0.0769866 -0.996531 
-0.0221663 0.0325821 -0.999223 0.139 -0.0107209 -0.990234 0.0723559 -0.0866207 -0.99361 
-0.107139 0.118512 -0.987156 0.00587125 0.1522 -0.988332 0.0530406 0.13929 -0.98883 
-0.0806987 0.125971 -0.988746 -0.42505 0.0891422 -0.90077 -0.196572 0.11766 -0.973404 
0.225913 -0.121397 -0.966554 0.220587 -0.121654 -0.967751 0.220223 -0.122319 -0.96775 
0.0221334 -0.0870249 -0.99596 0.0356449 -0.130598 -0.990794 0.0453471 -0.126054 -0.990986 
0.0584273 -0.187321 -0.98056 0.0315363 -0.0508746 -0.998207 -0.0372425 0.0979691 -0.994492 
0.220088 -0.0871343 -0.971581 0.151626 0.108864 -0.982425 -0.0363178 0.202354 -0.978639 
-0.057704 0.102898 -0.993017 -0.107159 0.039899 -0.993441 -0.424082 -0.0425497 -0.904624 
-0.267887 -0.00235826 -0.963448 0.235803 -0.0717396 -0.969149 0.0512839 0.0858257 -0.994989 
0.275439 -0.0809719 -0.957902 0.100982 0.0224194 -0.994636 0.0923695 -0.0162445 -0.995592 
0.171519 -0.14475 -0.974489 -0.00896499 -0.0637997 -0.997922 -0.108399 -0.0334277 -0.993545 
-0.179132 -0.0822241 -0.980383 -0.424938 -0.177811 -0.887587 -0.350548 -0.275095 -0.895231 
-0.299845 -0.159042 -0.940637 0.0765576 0.0694005 -0.994647 0.0564712 0.107952 -0.992551 
0.0844372 0.0495341 -0.995197 0.0327341 -0.112164 -0.99315 0.0228968 -0.106684 -0.994029 
0.113118 -0.272943 -0.955357 0.0717791 -0.301579 -0.950736 -0.0754775 -0.258691 -0.963007 
-0.326001 -0.313456 -0.891891 -0.231655 -0.352022 -0.906872 -0.221319 -0.276227 -0.935263 
0.175892 -0.102296 -0.97908 0.140793 -0.205325 -0.968514 0.0787464 -0.0479225 -0.995742 
0.0286648 0.00752958 -0.999561 -0.0337907 -0.0876063 -0.995582 -0.110734 -0.240965 -0.964196 
-0.0711271 -0.0735133 -0.994755 -0.0366043 -0.228703 -0.972808 -0.0278478 -0.218977 -0.975333 
-0.0103856 -0.318541 -0.947852 -0.00728855 -0.316003 -0.94873 -0.0849373 -0.414102 -0.906259 
-0.0837625 -0.414498 -0.906187 -0.0834298 -0.414043 -0.906426 0.123626 -0.293668 -0.94788 
0.0631861 -0.317147 -0.946269 0.0432009 -0.24029 -0.969739 -0.0994969 -0.245251 -0.96434 
-0.0495032 -0.239969 -0.969518 -0.0498154 -0.228579 -0.97225 
