# vtk DataFile Version 4.2
vtk output
ASCII
DATASET POLYDATA
POINTS 540 float
-24.3109 -26.3011 -11.7198 -17.7989 -26.3011 -12.3341 -11.2868 -26.3011 -12.8476 
-4.77475 -26.3011 -13.2442 1.7373 -26.3011 -14.0361 8.24936 -26.3011 -13.4476 
14.7614 -26.3011 -12.6859 21.2735 -26.3011 -12.288 27.7855 -26.3011 -11.7264 
-37.335 -19.789 -11.8639 -30.823 -19.789 -12.7926 -24.3109 -19.789 -14.1506 
-17.7989 -19.789 -14.8019 -11.2868 -19.789 -15.4527 -4.77475 -19.789 -15.0219 
1.7373 -19.789 -14.6031 8.24936 -19.789 -14.9345 14.7614 -19.789 -14.5096 
21.2735 -19.789 -14.9798 27.7855 -19.789 -14.913 34.2976 -19.789 -14.3877 
40.8096 -19.789 -12.6518 -43.8471 -13.277 -11.191 -37.335 -13.277 -12.8091 
-30.823 -13.277 -14.9424 -24.3109 -13.277 -14.3769 -17.7989 -13.277 -14.8978 
-11.2868 -13.277 -15.9419 -4.77475 -13.277 -15.9316 1.7373 -13.277 -14.035 
8.24936 -13.277 -14.0163 14.7614 -13.277 -14.7074 21.2735 -13.277 -15.5276 
27.7855 -13.277 -16.2178 34.2976 -13.277 -15.7977 40.8096 -13.277 -14.9977 
47.3217 -13.277 -12.1844 -43.8471 -6.76491 -12.7002 -37.335 -6.76491 -13.8283 
-30.823 -6.76491 -14.1328 -24.3109 -6.76491 -13.8553 -17.7989 -6.76491 -13.6563 
-11.2868 -6.76491 -16.3215 -4.77475 -6.76491 -16.8269 1.7373 -6.76491 -13.7335 
8.24936 -6.76491 -14.1583 14.7614 -6.76491 -14.3338 21.2735 -6.76491 -15.5819 
27.7855 -6.76491 -16.0623 34.2976 -6.76491 -16.251 40.8096 -6.76491 -15.7799 
47.3217 -6.76491 -15.0368 53.8337 -6.76491 -10.9991 -50.3591 -0.252859 -11.2641 
-43.8471 -0.252859 -13.2862 -37.335 -0.252859 -14.1401 -30.823 -0.252859 -14.784 
-24.3109 -0.252859 -14.8819 -17.7989 -0.252859 -15.2143 -11.2868 -0.252859 -16.9316 
-4.77475 -0.252859 -14.8068 1.7373 -0.252859 -13.2707 8.24936 -0.252859 -15.4918 
14.7614 -0.252859 -13.9049 21.2735 -0.252859 -14.9017 27.7855 -0.252859 -15.8183 
34.2976 -0.252859 -16.0708 40.8096 -0.252859 -15.5843 47.3217 -0.252859 -14.5471 
53.8337 -0.252859 -11.0394 -43.8471 6.25919 -12.0715 -37.335 6.25919 -13.8303 
-30.823 6.25919 -15.1661 -24.3109 6.25919 -15.7312 -17.7989 6.25919 -16.0459 
-11.2868 6.25919 -15.1615 -4.77475 6.25919 -13.3229 1.7373 6.25919 -14.9811 
8.24936 6.25919 -13.4549 14.7614 6.25919 -13.4377 21.2735 6.25919 -14.8134 
27.7855 6.25919 -15.6678 34.2976 6.25919 -15.5187 40.8096 6.25919 -14.8115 
47.3217 6.25919 -13.1606 -37.335 12.7712 -12.7807 -30.823 12.7712 -14.7332 
-24.3109 12.7712 -15.4467 -17.7989 12.7712 -15.4896 -11.2868 12.7712 -14.3759 
-4.77475 12.7712 -13.8099 1.7373 12.7712 -15.0197 8.24936 12.7712 -13.918 
14.7614 12.7712 -13.7755 21.2735 12.7712 -14.3051 27.7855 12.7712 -14.5494 
34.2976 12.7712 -14.4213 40.8096 12.7712 -13.2548 -30.823 19.2833 -12.8206 
-24.3109 19.2833 -14.3678 -17.7989 19.2833 -14.5514 -11.2868 19.2833 -14.3094 
-4.77475 19.2833 -13.9278 1.7373 19.2833 -14.0893 8.24936 19.2833 -14.1201 
14.7614 19.2833 -13.7321 21.2735 19.2833 -13.6076 27.7855 19.2833 -13.0442 
34.2976 19.2833 -12.0343 -24.3109 25.7953 -11.5268 -17.7989 25.7953 -12.4387 
-11.2868 25.7953 -12.7594 -4.77475 25.7953 -12.7871 1.7373 25.7953 -12.2685 
8.24936 25.7953 -12.1665 14.7614 25.7953 -11.998 -24.3109 -27.2569 -10.8687 
-17.7989 -27.8864 -10.8687 -11.2868 -28.4673 -10.8687 -4.77475 -29.3477 -10.8687 
1.7373 -30.5813 -10.8687 1.7373 -32.8131 -5.3551 8.24936 -30.1839 -10.8687 
14.7614 -28.7388 -10.8687 21.2735 -27.6547 -10.8687 27.7855 -27.1577 -10.8687 
-37.335 -21.3054 -10.8687 -37.335 -26.3011 -6.30709 -27.53 -26.3011 -10.8687 
-30.823 -24.2925 -10.8687 -30.823 -26.3011 -9.45677 31.7059 -26.3011 -10.8687 
34.2976 -25.382 -10.8687 34.2976 -26.3011 -9.69975 40.8096 -22.9643 -10.8687 
-42.9464 -19.789 -10.8687 -43.8471 -17.6889 -10.8687 -43.8471 -19.789 -10.5882 
45.4002 -19.789 -10.8687 47.3217 -17.13 -10.8687 47.3217 -19.789 -8.75025 
-44.8925 -13.277 -10.8687 -50.3591 -13.277 -8.91021 49.2935 -13.277 -10.8687 
53.8337 -7.08079 -10.8687 53.8337 -13.277 -5.25935 -49.4538 -6.76491 -10.8687 
-50.3591 -4.39294 -10.8687 -50.3591 -6.76491 -10.4435 53.9732 -6.76491 -10.8687 
-50.9137 -0.252859 -10.8687 -50.3591 1.37745 -10.8687 54.0235 -0.252859 -10.8687 
53.8337 0.771505 -10.8687 -46.6597 6.25919 -10.8687 -50.3591 6.25919 -8.49769 
-43.8471 9.78542 -10.8687 51.6292 6.25919 -10.8687 47.3217 10.986 -10.8687 
53.8337 6.25919 -9.25697 -50.3591 12.7712 -4.99221 -41.7309 12.7712 -10.8687 
-43.8471 12.7712 -9.78902 -37.335 18.0866 -10.8687 45.8743 12.7712 -10.8687 
40.8096 16.8164 -10.8687 47.3217 12.7712 -9.97381 -43.8471 19.2833 -6.26463 
-36.1052 19.2833 -10.8687 -37.335 19.2833 -10.2978 -30.823 22.6166 -10.8687 
21.2735 25.759 -10.8687 27.7855 23.1116 -10.8687 37.1319 19.2833 -10.8687 
34.2976 20.8388 -10.8687 40.8096 19.2833 -8.63757 -26.0019 25.7953 -10.8687 
-30.823 25.7953 -7.80717 -24.3109 26.5538 -10.8687 -17.7989 28.0155 -10.8687 
-11.2868 28.7972 -10.8687 -4.77475 28.9062 -10.8687 1.7373 28.0831 -10.8687 
8.24936 27.922 -10.8687 21.1848 25.7953 -10.8687 14.7614 27.3883 -10.8687 
21.2735 25.7953 -10.8472 27.7855 25.7953 -8.50477 34.2976 25.7953 -4.42328 
-11.2868 32.3074 -6.31329 -4.77475 32.3074 -7.23753 1.7373 32.3074 -6.76511 
8.24936 32.3074 -6.14499 1.7373 -33.0686 -4.35667 -37.335 -27.4509 -4.35667 
-30.823 -29.4785 -4.35667 -24.3109 -30.5032 -4.35667 -17.7989 -30.6058 -4.35667 
-11.2868 -30.857 -4.35667 0.239783 -32.8131 -4.35667 -4.77475 -31.8907 -4.35667 
6.34913 -32.8131 -4.35667 1.7373 -32.8131 -3.55933 8.24936 -32.6986 -4.35667 
14.7614 -31.3882 -4.35667 21.2735 -30.4318 -4.35667 27.7855 -29.8822 -4.35667 
34.2976 -28.6056 -4.35667 -39.9017 -26.3011 -4.35667 -43.8471 -23.8406 -4.35667 
39.7859 -26.3011 -4.35667 40.8096 -25.8741 -4.35667 47.3217 -21.6607 -4.35667 
-49.4945 -19.789 -4.35667 -50.3591 -19.0239 -4.35667 49.4005 -19.789 -4.35667 
47.3217 -19.789 0.510838 53.8337 -13.9819 -4.35667 -54.1994 -13.277 -4.35667 
54.2307 -13.277 -4.35667 53.8337 -13.277 -2.77256 -55.422 -6.76491 -4.35667 
57.2409 -6.76491 -4.35667 -56.4244 -0.252859 -4.35667 -56.8712 -0.252859 -2.65163 
57.5051 -0.252859 -4.35667 -53.6131 6.25919 -4.35667 56.9781 6.25919 -4.35667 
53.8337 12.0922 -4.35667 -50.9365 12.7712 -4.35667 -50.3591 13.4773 -4.35667 
53.3715 12.7712 -4.35667 47.3217 18.7666 -4.35667 -45.4583 19.2833 -4.35667 
-43.8471 20.6468 -4.35667 -37.335 25.4087 -4.35667 46.5617 19.2833 -4.35667 
40.8096 22.5992 -4.35667 -36.5238 25.7953 -4.35667 -37.335 25.7953 -1.77529 
-30.823 27.7771 -4.35667 -24.3109 30.1278 -4.35667 -17.7989 31.8142 -4.35667 
14.7614 32.2092 -4.35667 21.2735 30.6863 -4.35667 27.7855 28.3458 -4.35667 
34.3857 25.7953 -4.35667 34.2976 25.838 -4.35667 -15.5074 32.3074 -4.35667 
-11.2868 33.2108 -4.35667 -4.77475 33.913 -4.35667 1.7373 33.8808 -4.35667 
14.1731 32.3074 -4.35667 8.24936 33.2984 -4.35667 14.7614 32.3074 -2.16499 
-37.335 -26.9463 2.15539 -30.823 -29.1077 2.15539 -24.3109 -29.6086 2.15539 
-17.7989 -29.6251 2.15539 -11.2868 -29.9508 2.15539 -4.77475 -30.2033 2.15539 
1.7373 -30.7466 2.15539 8.24936 -30.0585 2.15539 14.7614 -29.1936 2.15539 
21.2735 -28.497 2.15539 27.7855 -27.9166 2.15539 34.2976 -26.8292 2.15539 
-38.9061 -26.3011 2.15539 -43.8471 -24.031 2.15539 -37.335 -26.3011 3.74027 
-30.823 -26.3011 7.47689 -24.3109 -26.3011 8.32546 8.24936 -26.3011 7.34118 
14.7614 -26.3011 6.15083 21.2735 -26.3011 5.38117 27.7855 -26.3011 4.55757 
35.4536 -26.3011 2.15539 34.2976 -26.3011 2.82173 40.8096 -23.3903 2.15539 
-49.9495 -19.789 2.15539 -50.3591 -19.3845 2.15539 46.3038 -19.789 2.15539 
40.8096 -19.789 6.01177 47.3217 -19.1488 2.15539 -54.8058 -13.277 2.15539 
52.4904 -13.277 2.15539 47.3217 -13.277 7.26399 53.8337 -10.4883 2.15539 
-56.8045 -6.76491 2.15539 -56.8712 -6.26909 2.15539 55.8135 -6.76491 2.15539 
53.8337 -6.76491 4.42215 -57.6806 -0.252859 2.15539 -56.8712 2.42555 2.15539 
-56.8712 -0.252859 4.05275 56.6691 -0.252859 2.15539 53.8337 -0.252859 6.12564 
-55.6781 6.25919 2.15539 56.4449 6.25919 2.15539 53.8337 11.8289 2.15539 
53.8337 6.25919 6.57732 -52.8065 12.7712 2.15539 -50.3591 15.6339 2.15539 
-50.3591 12.7712 7.35711 53.3348 12.7712 2.15539 47.3217 19.046 2.15539 
-46.8179 19.2833 2.15539 -43.8471 21.6397 2.15539 47.0044 19.2833 2.15539 
40.8096 23.2455 2.15539 -38.0231 25.7953 2.15539 -37.335 26.1707 2.15539 
-37.335 25.7953 3.48151 -30.823 27.9001 2.15539 -30.823 25.7953 7.65468 
-24.3109 29.1828 2.15539 -17.7989 30.7655 2.15539 21.2735 30.6128 2.15539 
27.7855 28.421 2.15539 27.7855 25.7953 7.39139 35.2426 25.7953 2.15539 
34.2976 26.2581 2.15539 34.2976 25.7953 3.24458 -13.189 32.3074 2.15539 
-11.2868 32.9288 2.15539 -11.2868 32.3074 3.86273 -4.77475 34.453 2.15539 
-4.77475 32.3074 7.61245 1.7373 34.512 2.15539 1.7373 32.3074 7.23743 
8.24936 33.8955 2.15539 8.24936 32.3074 5.75393 15.4254 32.3074 2.15539 
14.7614 32.4944 2.15539 14.7614 32.3074 2.59289 -17.7989 -26.7434 8.66744 
-11.2868 -27.1618 8.66744 -4.77475 -26.9963 8.66744 1.7373 -26.3216 8.66744 
-43.8471 -19.9012 8.66744 -37.335 -22.9418 8.66744 -30.823 -25.3784 8.66744 
-22.2735 -26.3011 8.66744 -24.3109 -26.0331 8.66744 -17.7989 -26.3011 9.21125 
-11.2868 -26.3011 9.71488 -4.77475 -26.3011 9.50543 1.86009 -26.3011 8.66744 
1.7373 -26.3011 8.68935 8.24936 -24.9211 8.66744 14.7614 -23.7422 8.66744 
21.2735 -22.8541 8.66744 27.7855 -21.9643 8.66744 34.2976 -21.1035 8.66744 
-44.006 -19.789 8.66744 -50.3591 -13.5977 8.66744 -43.8471 -19.789 8.77964 
-37.335 -19.789 11.1209 -30.823 -19.789 12.6878 -24.3109 -19.789 13.3357 
-17.7989 -19.789 14.1921 -11.2868 -19.789 14.475 -4.77475 -19.789 14.1328 
1.7373 -19.789 13.0833 8.24936 -19.789 12.1454 14.7614 -19.789 11.5097 
21.2735 -19.789 10.8662 27.7855 -19.789 10.0765 36.6407 -19.789 8.66744 
34.2976 -19.789 9.66127 40.8096 -16.9443 8.66744 -50.6024 -13.277 8.66744 
-50.3591 -13.277 8.87787 -43.8471 -13.277 12.6976 -37.335 -13.277 14.564 
8.24936 -13.277 14.7275 14.7614 -13.277 14.4897 21.2735 -13.277 13.7788 
27.7855 -13.277 12.8535 34.2976 -13.277 11.7834 45.0777 -13.277 8.66744 
40.8096 -13.277 10.8308 47.3217 -10.2555 8.66744 -53.6682 -6.76491 8.66744 
[...]
POINT_DATA 540
SCALARS ImageScalars float
LOOKUP_TABLE default
0 0 0 0 0 0 0 0 0 
0 0 0 0 0 0 0 0 0 
0 0 0 0 0 0 0 0 0 
0 0 0 0 0 0 0 0 0 
0 0 0 0 0 0 0 0 0 
0 0 0 0 0 0 0 0 0 
0 0 0 0 0 0 0 0 0 
0 0 0 0 0 0 0 0 0 
0 0 0 0 0 0 0 0 0 
0 0 0 0 0 0 0 0 0 
0 0 0 0 0 0 0 0 0 
0 0 0 0 0 0 0 0 0 
0 0 0 0 0 0 0 0 0 
0 0 0 0 0 0 0 0 0 
0 0 0 0 0 0 0 0 0 
0 0 0 0 0 0 0 0 0 
0 0 0 0 0 0 0 0 0 
0 0 0 0 0 0 0 0 0 
0 0 0 0 0 0 0 0 0 
0 0 0 0 0 0 0 0 0 
0 0 0 0 0 0 0 0 0 
0 0 0 0 0 0 0 0 0 
0 0 0 0 0 0 0 0 0 
0 0 0 0 0 0 0 0 0 
0 0 0 0 0 0 0 0 0 
0 0 0 0 0 0 0 0 0 
0 0 0 0 0 0 0 0 0 
0 0 0 0 0 0 0 0 0 
0 0 0 0 0 0 0 0 0 
0 0 0 0 0 0 0 0 0 
0 0 0 0 0 0 0 0 0 
0 0 0 0 0 0 0 0 0 
0 0 0 0 0 0 0 0 0 
0 0 0 0 0 0 0 0 0 
0 0 0 0 0 0 0 0 0 
0 0 0 0 0 0 0 0 0 
0 0 0 0 0 0 0 0 0 
0 0 0 0 0 0 0 0 0 
0 0 0 0 0 0 0 0 0 
0 0 0 0 0 0 0 0 0 
0 0 0 0 0 0 0 0 0 
0 0 0 0 0 0 0 0 0 
0 0 0 0 0 0 0 0 0 
0 0 0 0 0 0 0 0 0 
0 0 0 0 0 0 0 0 0 
0 0 0 0 0 0 0 0 0 
0 0 0 0 0 0 0 0 0 
0 0 0 0 0 0 0 0 0 
0 0 0 0 0 0 0 0 0 
0 0 0 0 0 0 0 0 0 
0 0 0 0 0 0 0 0 0 
0 0 0 0 0 0 0 0 0 
0 0 0 0 0 0 0 0 0 
0 0 0 0 0 0 0 0 0 
0 0 0 0 0 0 0 0 0 
0 0 0 0 0 0 0 0 0 
0 0 0 0 0 0 0 0 0 
0 0 0 0 0 0 0 0 0 
0 0 0 0 0 0 0 0 0 
0 0 0 0 0 0 0 0 0 

NORMALS Normals float
0.153001 0.620869 0.768838 0.0832735 0.620177 0.78003 0.0662865 0.599052 0.797962 
0.0895169 0.484281 0.870321 0.0122542 0.347497 0.937601 -0.106689 0.429573 0.896708 
-0.0827059 0.496516 0.864078 -0.0737127 0.651631 0.754946 -0.115407 0.705737 0.699011 
0.172203 0.355145 0.918813 0.168153 0.307939 0.936428 0.145159 0.183318 0.972277 
0.100096 0.173342 0.979762 0.0194111 0.207956 0.977946 -0.0630829 0.176944 0.982197 
-0.0068614 -0.00486219 0.999965 -0.00682585 0.0300512 0.999525 0.00172376 0.143658 0.989626 
0.0315962 0.207639 0.977695 -0.0373488 0.297942 0.953853 -0.175632 0.34146 0.923341 
-0.290393 0.419288 0.860157 0.26929 0.145884 0.951946 0.2435 0.127342 0.961505 
0.110905 0.0886716 0.989867 -0.000498272 -0.0214099 0.999771 0.120259 -0.0878795 0.988845 
0.0798517 0.058926 0.995064 -0.144734 0.131269 0.980724 -0.137972 -0.0668719 0.988176 
0.0520505 -0.0590708 0.996896 0.115262 -0.0136767 0.993241 0.114487 0.0427386 0.992505 
0.0175175 0.0960422 0.995223 -0.0841193 0.120094 0.989192 -0.228224 0.220283 0.948361 
-0.48946 0.318715 0.811696 0.2721 0.1401 0.952016 0.100017 0.100503 0.989897 
0.00128765 -0.0100265 0.999949 -0.0363982 0.0332475 0.998784 0.146261 0.0100804 0.989195 
0.261062 0.0791598 0.962071 -0.214813 -0.0494533 0.975402 -0.1761 -0.0509954 0.983051 
0.0477316 0.107712 0.993036 0.10149 -0.0616609 0.992924 0.136625 -0.0490795 0.989406 
0.0485025 -0.0304111 0.99836 -0.0200976 0.0244954 0.999498 -0.0816438 0.0421564 0.99577 
-0.340137 0.138497 0.930121 -0.674493 0.195117 0.712031 0.525528 -0.0813426 0.846879 
0.254257 -0.0423975 0.966207 0.106386 0.000565049 0.994325 0.0559028 0.0792564 0.995286 
0.0303337 0.147983 0.988525 0.149787 0.189899 0.97031 -0.000323153 -0.090006 0.995941 
-0.278735 -0.281907 0.91806 0.0844798 0.108191 0.990534 0.0130145 -0.0457977 0.998866 
-0.0327054 -0.0668305 0.997228 0.148188 -0.055661 0.987392 0.0890329 -0.0301391 0.995573 
-0.0167231 -0.056001 0.998291 -0.101996 -0.0725668 0.992134 -0.3612 -0.115658 0.925288 
-0.643936 -0.0782747 0.761065 0.341952 -0.230615 0.910981 0.214954 -0.0999994 0.971491 
0.144558 -0.0079824 0.989464 0.065018 0.0375395 0.997178 -0.0367835 0.0123584 0.999247 
-0.21577 -0.193218 0.957136 -0.00910441 -0.04702 0.998852 0.0227868 0.112343 0.993408 
-0.117956 -0.111294 0.986762 0.106608 -0.00991646 0.994252 0.164615 -0.0458144 0.985293 
0.0540471 -0.0955724 0.993954 -0.0624097 -0.117879 0.991065 -0.15506 -0.178131 0.971713 
-0.366182 -0.284839 0.885877 0.34203 -0.215076 0.914745 0.189133 -0.154653 0.969696 
0.0610343 -0.104957 0.992602 -0.0809977 -0.117509 0.989763 -0.130511 -0.060173 0.989619 
0.05062 0.0466605 0.997627 0.00449911 -0.0683892 0.997649 -0.0960667 0.0465926 0.994284 
0.0297237 0.0210646 0.999336 0.0588335 -0.0892774 0.994268 0.00992837 -0.185667 0.982562 
-0.10335 -0.272014 0.956727 -0.268687 -0.343352 0.899954 0.266227 -0.405282 0.874568 
0.118545 -0.274956 0.954121 -0.00357537 -0.219555 0.975594 -0.0492765 -0.112872 0.992387 
-0.0163156 -0.0693004 0.997462 0.0145644 -0.197188 0.980257 -0.0269743 -0.122156 0.992144 
-0.0376276 -0.126973 0.991192 -0.0467424 -0.232085 0.971572 -0.119217 -0.368468 0.921965 
-0.240444 -0.495287 0.834792 0.241817 -0.617246 0.748687 0.0870108 -0.498732 0.862378 
0.0263492 -0.393973 0.918744 -0.0357257 -0.354979 0.934192 -0.0436995 -0.408796 0.911579 
-0.0196987 -0.42257 0.906116 -0.0874086 -0.455974 0.88569 0.156423 0.691392 0.705343 
0.0808956 0.74313 0.664239 0.0900628 0.760755 0.64276 0.13332 0.748676 0.649392 
0.0519946 0.761454 0.64613 0.0605253 0.997159 0.0448425 -0.112581 0.733224 0.670602 
-0.149004 0.693978 0.704409 -0.103292 0.747512 0.656168 -0.121541 0.762014 0.636053 
0.205036 0.441806 0.873366 0.359871 0.845242 0.395042 0.232929 0.640644 0.731655 
0.275262 0.531671 0.800973 0.298904 0.712424 0.634908 -0.181683 0.751374 0.634373 
-0.225268 0.721126 0.655158 -0.246558 0.82295 0.511823 -0.351004 0.61999 0.701719 
0.400657 0.407875 0.820434 0.385796 0.328106 0.862269 0.444243 0.425835 0.788234 
-0.485431 0.510205 0.709963 -0.537336 0.439381 0.719871 -0.635776 0.631531 0.443799 
0.302482 0.171721 0.937559 0.56293 0.336101 0.75508 -0.554446 0.336124 0.761321 
-0.677736 0.206539 0.705702 -0.871842 0.461968 0.162719 0.502227 0.139797 0.853361 
0.537448 0.0583738 0.841274 0.547957 0.133507 0.825784 -0.682559 0.196158 0.704014 
0.552139 -0.0845944 0.829449 0.546052 -0.14299 0.825458 -0.656603 -0.0776368 0.75023 
-0.643134 -0.114956 0.757076 0.448485 -0.275494 0.850273 0.637041 -0.309329 0.706041 
0.401183 -0.272481 0.874532 -0.536317 -0.309337 0.785286 -0.461921 -0.376819 0.802893 
-0.682335 -0.328777 0.652935 0.713809 -0.482403 0.507704 0.424085 -0.277687 0.861999 
0.476272 -0.323604 0.817585 0.372849 -0.426207 0.824216 -0.443691 -0.402268 0.800824 
-0.339764 -0.523621 0.781269 -0.511383 -0.435918 0.740583 0.592469 -0.638868 0.490742 
0.355613 -0.46422 0.811196 0.384973 -0.491235 0.781335 0.326248 -0.542405 0.774183 
-0.192019 -0.562087 0.804479 -0.219932 -0.537253 0.814241 -0.302931 -0.558982 0.771862 
-0.268481 -0.576004 0.772099 -0.402277 -0.682393 0.610338 0.275158 -0.640213 0.717227 
0.348435 -0.785875 0.510876 0.253068 -0.666024 0.70169 0.127482 -0.640876 0.756985 
0.048724 -0.592876 0.803818 -0.0330612 -0.57169 0.819804 -0.0439192 -0.531534 0.845898 
-0.0357367 -0.53386 0.844818 -0.191302 -0.562526 0.804343 -0.109349 -0.553148 0.825875 
-0.193127 -0.564862 0.802267 -0.317802 -0.738016 0.595259 -0.389086 -0.866067 0.313912 
0.135736 -0.932461 0.334801 0.0109239 -0.873363 0.486948 -0.0476122 -0.857319 0.512578 
-0.107636 -0.896377 0.430027 0.0588381 0.997734 -0.032646 0.351337 0.909483 0.222269 
0.237837 0.949282 0.205664 0.0820869 0.986385 0.142501 0.027777 0.994388 0.10208 
0.0927655 0.992813 0.0756057 0.085822 0.995915 -0.0280597 0.172904 0.984904 0.00828489 
-0.0771437 0.995321 -0.0581853 0.0521935 0.995347 -0.0809946 -0.133063 0.988915 -0.0658823 
-0.166752 0.985965 -0.00812479 -0.118141 0.992449 0.0329848 -0.139343 0.989357 0.0419024 
-0.289973 0.955589 0.0525784 0.421939 0.872858 0.245124 0.550816 0.789729 0.270055 
-0.401633 0.91572 -0.0122017 -0.42814 0.903468 -0.0209874 -0.654855 0.755563 0.0170134 
0.66434 0.666689 0.337903 0.689924 0.631875 0.353183 -0.708537 0.703562 0.054547 
-0.531408 0.763777 -0.366401 -0.871189 0.482407 0.0911764 0.845687 0.370218 0.384385 
-0.883894 0.459923 0.0848699 -0.893745 0.446538 -0.0427152 0.86771 0.13854 0.477373 
-0.959249 0.249415 0.132788 0.87012 -0.109552 0.480509 0.942919 -0.105702 0.315803 
-0.981856 -0.0183518 0.188739 0.814792 -0.303573 0.493921 -0.919887 -0.306854 0.244231 
-0.803729 -0.52924 0.271892 0.738723 -0.48487 0.468176 0.729464 -0.504707 0.461686 
-0.784246 -0.552331 0.282647 -0.57446 -0.770483 0.276318 0.640759 -0.674194 0.367275 
0.607495 -0.711773 0.352602 0.45972 -0.824779 0.329237 -0.554248 -0.784871 0.277104 
-0.444994 -0.840924 0.30794 0.440585 -0.841124 0.313679 0.441467 -0.884074 0.15336 
0.339263 -0.907739 0.246802 0.293743 -0.94551 0.14045 0.228528 -0.965852 0.122084 
-0.184473 -0.945404 0.268665 -0.280592 -0.926114 0.252154 -0.340981 -0.905401 0.252945 
-0.390359 -0.867115 0.309405 -0.389597 -0.867235 0.310027 0.198961 -0.969562 0.142703 
0.153462 -0.969334 0.191943 0.0509397 -0.952382 0.300621 -0.0479381 -0.936117 0.348406 
-0.178309 -0.945922 0.270995 -0.122394 -0.944819 0.303869 -0.210335 -0.970638 0.116707 
0.344605 0.912414 -0.220789 0.201069 0.941207 -0.271479 0.0374111 0.955729 -0.291861 
0.025458 0.963744 -0.26561 0.0420593 0.965642 -0.256451 0.0573712 0.938405 -0.34074 
-0.00789582 0.89497 -0.446057 -0.108813 0.867913 -0.484651 -0.109892 0.875384 -0.470772 
-0.0901808 0.890325 -0.446306 -0.115272 0.882018 -0.456898 -0.27888 0.825253 -0.491105 
0.379173 0.895428 -0.233318 0.495532 0.83548 -0.237532 0.354345 0.876802 -0.325052 
0.147576 0.802547 -0.578047 0.0754357 0.775762 -0.626501 -0.123225 0.725096 -0.677534 
-0.0966398 0.75841 -0.644573 -0.079556 0.801486 -0.592698 -0.132559 0.813256 -0.566607 
-0.321598 0.8149 -0.482195 -0.276912 0.809749 -0.517326 -0.45192 0.747211 -0.487282 
0.681354 0.696517 -0.224988 0.695521 0.681867 -0.226513 -0.450861 0.734784 -0.506772 
-0.424144 0.584219 -0.691947 -0.474634 0.724339 -0.500056 0.856654 0.473536 -0.204714 
-0.796461 0.380509 -0.46996 -0.536749 0.422533 -0.73032 -0.814866 0.343489 -0.466914 
0.973525 0.186648 -0.131957 0.977123 0.166182 -0.132718 -0.842841 0.325876 -0.42828 
-0.720492 0.335478 -0.606915 0.990306 -0.0829495 -0.111412 0.979361 -0.170783 -0.108102 
0.966946 -0.0771083 -0.243044 -0.944981 0.0348317 -0.325266 -0.751313 0.120958 -0.648767 
0.949623 -0.307554 -0.0602259 -0.936576 -0.230541 -0.263963 -0.8426 -0.469312 -0.264143 
-0.784688 -0.212571 -0.582304 0.826896 -0.558709 -0.0639345 0.763666 -0.642833 -0.0598323 
0.709926 -0.542262 -0.449395 -0.822318 -0.508433 -0.255517 -0.60227 -0.774982 -0.191504 
0.662428 -0.746244 -0.0656481 0.600483 -0.795907 -0.0771517 -0.593626 -0.782628 -0.187355 
-0.455 -0.878268 -0.147039 0.416691 -0.904098 -0.0947383 0.393407 -0.914234 -0.0969911 
0.392983 -0.903675 -0.170104 0.24421 -0.955849 -0.163443 0.185765 -0.874923 -0.447215 
0.20769 -0.94736 -0.243667 0.258377 -0.934519 -0.244778 -0.287621 -0.93516 -0.206762 
-0.311646 -0.928253 -0.203035 -0.26869 -0.810455 -0.520546 -0.38621 -0.908481 -0.159702 
-0.377564 -0.911542 -0.162903 -0.372225 -0.899379 -0.229271 0.280507 -0.936264 -0.211483 
0.281749 -0.93858 -0.199212 0.27686 -0.919954 -0.277549 0.122378 -0.982472 -0.140614 
0.0945935 -0.861755 -0.498428 -0.0425768 -0.988213 -0.147047 -0.0653576 -0.864924 -0.497629 
-0.154165 -0.97506 -0.15966 -0.160134 -0.891801 -0.423141 -0.25163 -0.949152 -0.189191 
-0.246651 -0.950695 -0.187994 -0.246042 -0.944986 -0.215558 0.0717434 0.809598 -0.582583 
0.0177384 0.820405 -0.571507 -0.0530542 0.80455 -0.59151 -0.113287 0.717257 -0.687538 
0.410766 0.621615 -0.666984 0.315344 0.652251 -0.689295 0.140119 0.739466 -0.65845 
0.0756635 0.775864 -0.626347 0.0776939 0.756183 -0.649732 0.0740899 0.78799 -0.611214 
0.0167081 0.780144 -0.625377 -0.0594613 0.772217 -0.63257 -0.113701 0.716391 -0.688372 
-0.113566 0.716421 -0.688363 -0.124617 0.654899 -0.745371 -0.0968415 0.638145 -0.763802 
-0.0852885 0.622998 -0.77756 -0.0915373 0.578501 -0.810529 -0.221908 0.586187 -0.779193 
0.414852 0.619376 -0.666536 0.566848 0.483357 -0.667121 0.40889 0.618203 -0.671293 
0.253549 0.557164 -0.790747 0.132762 0.503898 -0.8535 0.102022 0.464596 -0.879626 
0.0777906 0.394771 -0.91548 -0.00521227 0.360183 -0.932867 -0.0976108 0.389134 -0.915995 
-0.140415 0.41881 -0.897152 -0.107435 0.458941 -0.881947 -0.0849167 0.505106 -0.858869 
-0.0999033 0.500494 -0.859956 -0.0829917 0.492324 -0.866446 -0.305586 0.533045 -0.788974 
-0.231104 0.507211 -0.830258 -0.381751 0.465813 -0.798301 0.572428 0.474445 -0.668751 
0.563531 0.472145 -0.677873 0.384956 0.376037 -0.842855 0.18822 0.328737 -0.925476 
-0.0597742 0.294518 -0.953775 -0.0687475 0.363668 -0.928988 -0.119925 0.330787 -0.936054 
-0.142195 0.332447 -0.932341 -0.15855 0.316442 -0.935268 -0.456623 0.401051 -0.794137 
-0.300485 0.37659 -0.876293 -0.504962 0.340228 -0.793258 0.756112 0.199328 -0.623348 
0.553755 0.210277 -0.805692 0.329271 0.166026 -0.929524 -0.134798 0.225529 -0.964866 
-0.169874 0.249081 -0.953468 -0.277458 0.225129 -0.933988 -0.511236 0.273416 -0.814789 
-0.461045 0.250597 -0.851257 0.769793 -0.043308 -0.636823 0.593176 -0.0132078 -0.804965 
-0.170665 0.100967 -0.980142 -0.284342 0.100279 -0.953464 -0.571624 0.105557 -0.813698 
-0.464072 0.0895495 -0.88126 0.791662 -0.241743 -0.561099 0.683861 -0.472212 -0.556192 
0.634848 -0.229939 -0.737629 0.371437 -0.103299 -0.922694 -0.265112 -0.0602443 -0.962334 
-0.637904 -0.145291 -0.756287 -0.456122 -0.0923075 -0.885117 0.659171 -0.51295 -0.549887 
0.47406 -0.341883 -0.811408 -0.219848 -0.235999 -0.946558 -0.345707 -0.305786 -0.88712 
-0.573279 -0.389606 -0.720804 -0.555077 -0.45837 -0.694108 -0.525427 -0.358818 -0.771477 
0.544006 -0.686933 -0.481852 0.54244 -0.688307 -0.481655 0.541618 -0.686453 -0.485214 
0.370139 -0.769496 -0.520455 0.351846 -0.576512 -0.737454 0.183943 -0.843151 -0.505234 
0.213979 -0.50509 -0.83612 -0.0986239 -0.291079 -0.951602 -0.0125196 -0.392715 -0.919575 
-0.027448 -0.386735 -0.921782 -0.0900658 -0.392017 -0.915539 -0.249215 -0.748265 -0.61481 
-0.168294 -0.459518 -0.872078 -0.291958 -0.712652 -0.637877 -0.260687 -0.54696 -0.795535 
-0.438741 -0.644531 -0.626168 -0.410186 -0.656642 -0.632905 -0.391202 -0.616067 -0.683683 
0.176821 -0.85594 -0.485902 0.178126 -0.867249 -0.46492 0.176257 -0.838912 -0.514937 
0.221823 -0.842135 -0.491532 0.167275 -0.752117 -0.637447 0.229321 -0.819889 -0.524589 
0.121965 -0.623472 -0.772274 0.084089 -0.81372 -0.575142 -0.0332939 -0.485453 -0.873628 
-0.0760101 -0.776294 -0.625771 -0.12496 -0.432703 -0.892834 -0.150875 -0.720482 -0.676862 
-0.115621 -0.491671 -0.863071 -0.176948 -0.725595 -0.664982 -0.127536 -0.603167 -0.787352 
-0.237327 -0.751266 -0.615853 -0.220689 -0.744526 -0.630062 -0.194408 -0.682637 -0.704423 
0.0878163 0.358214 -0.9295 0.0322014 0.330024 -0.943423 0.0303268 0.278593 -0.95993 
-4.25462e-05 0.254722 -0.967014 -0.0586326 0.270298 -0.96099 -0.0885201 0.218696 -0.97177 
0.127754 0.327801 -0.936069 0.193215 0.275288 -0.941745 0.0833073 0.330215 -0.940222 
0.00760048 0.294397 -0.955653 -0.00147314 0.216177 -0.976353 0.00525901 0.177368 -0.984131 
-0.031442 0.202946 -0.978685 -0.0792346 0.226906 -0.970688 -0.0849069 0.206905 -0.97467 
-0.0283642 0.254815 -0.966574 -0.0605843 0.312095 -0.948117 -0.131425 0.234087 -0.963292 
0.28551 0.165439 -0.943988 0.318461 0.058945 -0.946101 0.211436 0.186776 -0.95938 
0.0914125 0.17544 -0.980237 -0.0135436 0.18639 -0.982382 -0.0506668 0.177695 -0.98278 
-0.01473 0.181306 -0.983316 -0.0684577 0.16478 -0.983952 -0.0518398 0.0586401 -0.996932 
0.0494211 0.159444 -0.985969 -0.0446828 0.195418 -0.979702 -0.134179 0.215815 -0.967171 
-0.132887 0.197505 -0.971253 -0.128034 0.182839 -0.97477 0.32771 0.0315115 -0.944253 
0.338266 -0.0212526 -0.94081 0.313057 0.0332315 -0.949153 0.189289 0.0443309 -0.98092 
0.0753185 0.0601826 -0.995342 0.00537486 0.0603435 -0.998163 -0.0101632 0.0780731 -0.996896 
-0.00900181 0.0729233 -0.997297 -0.140346 0.0911947 -0.985894 -0.0915943 0.244711 -0.96526 
0.0791932 0.191255 -0.97834 -0.0314844 0.0548609 -0.997998 -0.103599 0.0663421 -0.992404 
-0.158279 0.0978799 -0.982531 -0.113504 0.0906457 -0.989394 -0.16624 0.0242213 -0.985788 
0.349414 -0.0941407 -0.932227 0.229592 -0.0884308 -0.969261 0.105356 -0.0375159 -0.993727 
0.00517007 -0.0160252 -0.999858 -0.0384985 0.00431156 -0.999249 -0.00228919 -0.017669 -0.999841 
0.0878782 -0.062193 -0.994188 0.0483035 0.0795941 -0.995656 -0.127022 0.0686117 -0.989524 
-0.166082 -0.0197885 -0.985913 -0.097289 -0.0139042 -0.995159 -0.0983584 -0.0160785 -0.995021 
-0.169912 -0.0248479 -0.985146 -0.173414 -0.0598443 -0.983029 -0.162353 -0.0218818 -0.98649 
0.341538 -0.289757 -0.894088 0.278836 -0.353448 -0.892931 0.256822 -0.270895 -0.927717 
0.213415 -0.50286 -0.837607 0.153223 -0.220965 -0.96317 0.0488829 -0.172862 -0.983732 
-0.0114147 -0.114807 -0.993322 -0.0755957 -0.0878876 -0.993258 -0.046899 -0.151636 -0.987323 
-0.0865482 -0.293233 -0.952116 0.0420234 -0.317793 -0.947228 -0.0100955 -0.381032 -0.924507 
-0.0303481 -0.29576 -0.95478 -0.0384224 -0.352972 -0.934845 -0.105401 -0.183071 -0.977433 
-0.0930573 -0.294856 -0.951 -0.102938 -0.167132 -0.980546 -0.164687 -0.201316 -0.965583 
-0.127991 -0.236144 -0.963252 -0.119889 -0.181575 -0.976042 0.211781 -0.503336 -0.837736 
0.119668 -0.501857 -0.856632 0.105636 -0.428127 -0.897523 0.0788312 -0.50362 -0.860321 
0.0478594 -0.376995 -0.924978 0.0297365 -0.439336 -0.897831 -0.0339988 -0.297354 -0.954162 
-0.104052 -0.280497 -0.954198 -0.0918749 -0.340521 -0.935737 -0.130577 -0.231426 -0.96405 

