# vtk DataFile Version 4.2
vtk output
ASCII
DATASET POLYDATA
POINTS 556 float
-25.3104 -36.7838 -13.6329 -17.5052 -36.7838 -15.055 -9.70006 -36.7838 -15.4103 
-1.89488 -36.7838 -15.6576 5.91029 -36.7838 -15.1481 13.7155 -36.7838 -14.2436 
21.5206 -36.7838 -13.3007 -33.1156 -28.9787 -15.176 -25.3104 -28.9787 -16.8034 
-17.5052 -28.9787 -17.6796 -9.70006 -28.9787 -17.4478 -1.89488 -28.9787 -17.6923 
5.91029 -28.9787 -17.3666 13.7155 -28.9787 -17.1023 21.5206 -28.9787 -16.5923 
29.3258 -28.9787 -16.5144 37.131 -28.9787 -15.4579 44.9362 -28.9787 -12.7942 
-40.9208 -21.1735 -14.9075 -33.1156 -21.1735 -16.4574 -25.3104 -21.1735 -18.019 
-17.5052 -21.1735 -17.8048 -9.70006 -21.1735 -17.2737 -1.89488 -21.1735 -17.7249 
5.91029 -21.1735 -17.1174 13.7155 -21.1735 -16.8195 21.5206 -21.1735 -16.8767 
29.3258 -21.1735 -17.4037 37.131 -21.1735 -18.3777 44.9362 -21.1735 -16.288 
52.7413 -21.1735 -13.3662 -56.5311 -13.3683 -12.5135 -48.7259 -13.3683 -14.7111 
-40.9208 -13.3683 -15.846 -33.1156 -13.3683 -16.7824 -25.3104 -13.3683 -17.3376 
-17.5052 -13.3683 -17.2186 -9.70006 -13.3683 -16.3801 -1.89488 -13.3683 -17.1326 
5.91029 -13.3683 -16.5254 13.7155 -13.3683 -15.6748 21.5206 -13.3683 -16.6932 
29.3258 -13.3683 -17.6403 37.131 -13.3683 -17.6681 44.9362 -13.3683 -16.8718 
52.7413 -13.3683 -15.883 60.5465 -13.3683 -12.527 -56.5311 -5.56315 -12.7563 
-48.7259 -5.56315 -15.6685 -40.9208 -5.56315 -16.5761 -33.1156 -5.56315 -16.7002 
-25.3104 -5.56315 -16.6994 -17.5052 -5.56315 -17.0017 -9.70006 -5.56315 -18.0733 
-1.89488 -5.56315 -17.2443 5.91029 -5.56315 -18.8493 13.7155 -5.56315 -14.8342 
21.5206 -5.56315 -15.2603 29.3258 -5.56315 -16.4557 37.131 -5.56315 -17.3101 
44.9362 -5.56315 -17.6019 52.7413 -5.56315 -18.6437 60.5465 -5.56315 -13.3846 
-56.5311 2.24202 -13.7682 -48.7259 2.24202 -15.5291 -40.9208 2.24202 -16.6998 
-33.1156 2.24202 -16.4924 -25.3104 2.24202 -16.1213 -17.5052 2.24202 -17.5132 
-9.70006 2.24202 -19.1338 -1.89488 2.24202 -14.4233 5.91029 2.24202 -18.9436 
13.7155 2.24202 -14.9259 21.5206 2.24202 -14.8182 29.3258 2.24202 -16.0522 
37.131 2.24202 -16.7074 44.9362 2.24202 -16.8015 52.7413 2.24202 -16.7801 
60.5465 2.24202 -12.9664 -56.5311 10.0472 -13.2537 -48.7259 10.0472 -15.7634 
-40.9208 10.0472 -16.127 -33.1156 10.0472 -15.989 -25.3104 10.0472 -15.7369 
-17.5052 10.0472 -16.5188 -9.70006 10.0472 -17.8833 -1.89488 10.0472 -17.4067 
5.91029 10.0472 -18.1919 13.7155 10.0472 -14.8906 21.5206 10.0472 -15.0361 
29.3258 10.0472 -16.0258 37.131 10.0472 -16.2317 44.9362 10.0472 -16.0305 
52.7413 10.0472 -15.2289 60.5465 10.0472 -13.4222 -56.5311 17.8524 -13.5986 
-48.7259 17.8524 -14.3278 -40.9208 17.8524 -15.0517 -33.1156 17.8524 -15.7786 
-25.3104 17.8524 -15.6186 -17.5052 17.8524 -16.1986 -9.70006 17.8524 -17.5373 
-1.89488 17.8524 -17.2059 5.91029 17.8524 -15.9398 13.7155 17.8524 -15.5052 
21.5206 17.8524 -15.3263 29.3258 17.8524 -15.5634 37.131 17.8524 -15.535 
44.9362 17.8524 -15.591 52.7413 17.8524 -13.1085 -48.7259 25.6575 -12.8227 
-40.9208 25.6575 -12.9816 -33.1156 25.6575 -14.221 -25.3104 25.6575 -14.3498 
-17.5052 25.6575 -15.6026 -9.70006 25.6575 -17.1206 -1.89488 25.6575 -16.9924 
5.91029 25.6575 -15.6141 13.7155 25.6575 -15.082 21.5206 25.6575 -14.5385 
29.3258 25.6575 -14.3682 37.131 25.6575 -13.9426 -17.5052 33.4627 -13.1064 
-9.70006 33.4627 -14.7856 -1.89488 33.4627 -14.7523 5.91029 33.4627 -13.37 
13.7155 33.4627 -12.1024 -25.3104 -38.9157 -11.8737 -17.5052 -40.5054 -11.8737 
-9.70006 -41.3493 -11.8737 -9.70006 -44.589 -4.33131 -1.89488 -41.448 -11.8737 
5.91029 -40.7292 -11.8737 13.7155 -39.2376 -11.8737 21.5206 -38.3008 -11.8737 
-29.6934 -36.7838 -11.8737 -33.1156 -34.6666 -11.8737 -33.1156 -36.7838 -9.32369 
28.849 -36.7838 -11.8737 29.3258 -36.6279 -11.8737 29.3258 -36.7838 -11.5022 
37.131 -33.6632 -11.8737 44.9362 -29.9785 -11.8737 -48.7259 -28.9787 -4.82275 
-40.5102 -28.9787 -11.8737 -40.9208 -28.5574 -11.8737 -40.9208 -28.9787 -11.5946 
46.7518 -28.9787 -11.8737 52.7413 -23.925 -11.8737 -56.5311 -14.7306 -11.8737 
-56.5311 -21.1735 -6.76688 -48.0637 -21.1735 -11.8737 -48.7259 -20.3045 -11.8737 
-48.7259 -21.1735 -11.4792 55.4342 -21.1735 -11.8737 60.5465 -15.134 -11.8737 
60.5465 -21.1735 -5.89524 -57.6682 -13.3683 -11.8737 -64.3363 -13.3683 -5.40385 
61.4638 -13.3683 -11.8737 -58.8474 -5.56315 -11.8737 -64.3363 -5.56315 -9.65658 
63.0104 -5.56315 -11.8737 68.3517 -5.56315 -6.89427 -63.3053 2.24202 -11.8737 
-64.3363 2.24202 -11.5036 62.7127 2.24202 -11.8737 68.3517 2.24202 -8.39378 
-60.9946 10.0472 -11.8737 -64.3363 10.0472 -10.5474 63.083 10.0472 -11.8737 
60.5465 15.1311 -11.8737 68.3517 10.0472 -6.94403 -59.6579 17.8524 -11.8737 
-64.3363 17.8524 -8.20481 -56.5311 21.5807 -11.8737 44.9362 25.6056 -11.8737 
57.0352 17.8524 -11.8737 52.7413 21.6675 -11.8737 60.5465 17.8524 -10.5565 
-51.194 25.6575 -11.8737 -56.5311 25.6575 -9.02275 -48.7259 27.3059 -11.8737 
-40.9208 28.0838 -11.8737 -33.1156 30.0084 -11.8737 -25.3104 31.793 -11.8737 
21.5206 33.4542 -11.8737 29.3258 31.1445 -11.8737 44.8571 25.6575 -11.8737 
37.131 31.3316 -11.8737 44.9362 25.6575 -11.8481 52.7413 25.6575 -10.0351 
60.5465 25.6575 -4.25421 -48.7259 33.4627 -5.9454 -40.9208 33.4627 -8.8647 
-33.1156 33.4627 -9.08086 -22.3276 33.4627 -11.8737 -25.3104 33.4627 -11.0094 
-17.5052 34.9496 -11.8737 -9.70006 37.1538 -11.8737 -1.89488 37.2055 -11.8737 
5.91029 35.4773 -11.8737 21.403 33.4627 -11.8737 13.7155 33.7401 -11.8737 
21.5206 33.4627 -11.8694 29.3258 33.4627 -10.3937 37.131 33.4627 -10.3644 
44.9362 33.4627 -6.15953 -9.70006 41.2679 -4.11666 -9.70006 -44.6699 -4.06853 
-33.1156 -39.4967 -4.06853 -25.3104 -42.6234 -4.06853 -13.8567 -44.589 -4.06853 
-17.5052 -44.516 -4.06853 -8.46549 -44.589 -4.06853 -9.70006 -44.589 -3.4716 
-1.89488 -44.1595 -4.06853 5.91029 -43.2531 -4.06853 13.7155 -42.0355 -4.06853 
21.5206 -40.7414 -4.06853 29.3258 -38.4749 -4.06853 -48.7259 -29.4599 -4.06853 
-37.7996 -36.7838 -4.06853 -40.9208 -34.7973 -4.06853 35.5162 -36.7838 -4.06853 
29.3258 -36.7838 2.06829 37.131 -36.3316 -4.06853 44.9362 -33.2557 -4.06853 
-49.3455 -28.9787 -4.06853 -56.5311 -23.3459 -4.06853 52.5763 -28.9787 -4.06853 
52.7413 -28.8711 -4.06853 60.5465 -22.0644 -4.06853 -58.8487 -21.1735 -4.06853 
-64.3363 -14.6937 -4.06853 61.4506 -21.1735 -4.06853 60.5465 -21.1735 -1.60296 
-65.4429 -13.3683 -4.06853 66.7559 -13.3683 -4.06853 68.3517 -9.93191 -4.06853 
-69.3677 -5.56315 -4.06853 70.1447 -5.56315 -4.06853 -71.933 2.24202 -4.06853 
-72.1414 2.24202 -2.22399 71.6289 2.24202 -4.06853 -70.9191 10.0472 -4.06853 
70.6043 10.0472 -4.06853 68.3517 16.1544 -4.06853 -68.6308 17.8524 -4.06853 
-64.3363 24.8958 -4.06853 67.4674 17.8524 -4.06853 68.3517 17.8524 0.11784 
-63.6526 25.6575 -4.06853 -64.3363 25.6575 -0.142232 -56.5311 30.6281 -4.06853 
52.7413 30.9185 -4.06853 60.7413 25.6575 -4.06853 60.5465 25.8297 -4.06853 
-51.5013 33.4627 -4.06853 -48.7259 34.8144 -4.06853 -40.9208 36.9786 -4.06853 
-33.1156 37.9176 -4.06853 -25.3104 39.4941 -4.06853 -17.5052 40.5151 -4.06853 
-1.89488 41.1334 -4.06853 5.91029 40.192 -4.06853 13.7155 39.3555 -4.06853 
21.5206 38.9958 -4.06853 29.3258 38.0448 -4.06853 37.131 36.9947 -4.06853 
48.1912 33.4627 -4.06853 44.9362 34.9215 -4.06853 -9.90284 41.2679 -4.06853 
-8.76076 41.2679 -4.06853 -9.70006 41.2861 -4.06853 -9.70006 41.2679 -3.89042 
-33.1156 -38.7518 3.73664 -25.3104 -41.7098 3.73664 -17.5052 -43.51 3.73664 
-9.70006 -43.5051 3.73664 -1.89488 -42.5976 3.73664 5.91029 -41.2941 3.73664 
13.7155 -39.6765 3.73664 21.5206 -37.8795 3.73664 -48.7259 -29.5757 3.73664 
-36.8125 -36.7838 3.73664 -40.9208 -34.3473 3.73664 -33.1156 -36.7838 7.39394 
-25.3104 -36.7838 10.9832 5.91029 -36.7838 10.067 13.7155 -36.7838 7.98479 
26.8613 -36.7838 3.73664 21.5206 -36.7838 5.39007 29.3258 -36.1905 3.73664 
37.131 -33.1733 3.73664 44.9362 -30.2334 3.73664 -49.5599 -28.9787 3.73664 
-56.5311 -23.835 3.73664 -48.7259 -28.9787 4.80676 -40.9208 -28.9787 10.5231 
29.3258 -28.9787 11.437 37.131 -28.9787 8.41892 47.579 -28.9787 3.73664 
44.9362 -28.9787 5.27561 52.7413 -26.1141 3.73664 -59.5108 -21.1735 3.73664 
-64.3363 -15.5042 3.73664 -56.5311 -21.1735 7.87101 44.9362 -21.1735 11.4904 
58.2503 -21.1735 3.73664 52.7413 -21.1735 8.55533 60.5465 -19.1252 3.73664 
-66.084 -13.3683 3.73664 -64.3363 -13.3683 6.53857 65.4787 -13.3683 3.73664 
60.5465 -13.3683 9.12368 68.3517 -9.40011 3.73664 -70.1637 -5.56315 3.73664 
-72.1414 0.653506 3.73664 -64.3363 -5.56315 11.0879 70.7079 -5.56315 3.73664 
68.3517 -5.56315 6.9678 -72.6066 2.24202 3.73664 -72.1414 7.24929 3.73664 
-72.1414 2.24202 4.39145 71.5377 2.24202 3.73664 68.3517 2.24202 8.72113 
-71.7861 10.0472 3.73664 71.6734 10.0472 3.73664 68.3517 10.0472 9.27808 
-69.2745 17.8524 3.73664 -64.3363 17.8524 9.19768 68.885 17.8524 3.73664 
68.3517 18.7631 3.73664 68.3517 17.8524 4.7072 -64.7874 25.6575 3.73664 
-64.3363 26.1493 3.73664 -64.3363 25.6575 4.29573 -56.5311 31.5778 3.73664 
-56.5311 25.6575 10.5012 52.7413 32.7925 3.73664 62.7138 25.6575 3.73664 
60.5465 27.5387 3.73664 60.5465 25.6575 6.92054 -53.073 33.4627 3.73664 
-48.7259 35.5636 3.73664 -48.7259 33.4627 7.32443 -40.9208 37.8163 3.73664 
-40.9208 33.4627 10.8837 -33.1156 38.786 3.73664 -33.1156 33.4627 10.4618 
-25.3104 40.0781 3.73664 -25.3104 33.4627 11.1871 -17.5052 40.1752 3.73664 
-9.70006 40.3858 3.73664 -9.70006 33.4627 11.4857 -1.89488 40.0023 3.73664 
5.91029 39.2395 3.73664 5.91029 33.4627 11.1109 13.7155 38.8223 3.73664 
13.7155 33.4627 11.5275 21.5206 38.9297 3.73664 29.3258 38.4922 3.73664 
37.131 37.5905 3.73664 37.131 33.4627 10.7959 51.0576 33.4627 3.73664 
44.9362 36.0166 3.73664 44.9362 33.4627 9.9233 -17.5052 -38.3177 11.5418 
-9.70006 -38.073 11.5418 -1.89488 -36.9372 11.5418 -33.1156 -33.0978 11.5418 
-23.4153 -36.7838 11.5418 -25.3104 -36.1318 11.5418 -17.5052 -36.7838 12.797 
-9.70006 -36.7838 12.652 -1.08494 -36.7838 11.5418 -1.89488 -36.7838 11.6748 
5.91029 -34.9905 11.5418 13.7155 -33.4113 11.5418 21.5206 -31.4933 11.5418 
[...]
POINT_DATA 556
SCALARS ImageScalars float
LOOKUP_TABLE default
0 0 0 0 0 0 0 0 0 
0 0 0 0 0 0 0 0 0 
0 0 0 0 0 0 0 0 0 
0 0 0 0 0 0 0 0 0 
0 0 0 0 0 0 0 0 0 
0 0 0 0 0 0 0 0 0 
0 0 0 0 0 0 0 0 0 
0 0 0 0 0 0 0 0 0 
0 0 0 0 0 0 0 0 0 
0 0 0 0 0 0 0 0 0 
0 0 0 0 0 0 0 0 0 
0 0 0 0 0 0 0 0 0 
0 0 0 0 0 0 0 0 0 
0 0 0 0 0 0 0 0 0 
0 0 0 0 0 0 0 0 0 
0 0 0 0 0 0 0 0 0 
0 0 0 0 0 0 0 0 0 
0 0 0 0 0 0 0 0 0 
0 0 0 0 0 0 0 0 0 
0 0 0 0 0 0 0 0 0 
0 0 0 0 0 0 0 0 0 
0 0 0 0 0 0 0 0 0 
0 0 0 0 0 0 0 0 0 
0 0 0 0 0 0 0 0 0 
0 0 0 0 0 0 0 0 0 
0 0 0 0 0 0 0 0 0 
0 0 0 0 0 0 0 0 0 
0 0 0 0 0 0 0 0 0 
0 0 0 0 0 0 0 0 0 
0 0 0 0 0 0 0 0 0 
0 0 0 0 0 0 0 0 0 
0 0 0 0 0 0 0 0 0 
0 0 0 0 0 0 0 0 0 
0 0 0 0 0 0 0 0 0 
0 0 0 0 0 0 0 0 0 
0 0 0 0 0 0 0 0 0 
0 0 0 0 0 0 0 0 0 
0 0 0 0 0 0 0 0 0 
0 0 0 0 0 0 0 0 0 
0 0 0 0 0 0 0 0 0 
0 0 0 0 0 0 0 0 0 
0 0 0 0 0 0 0 0 0 
0 0 0 0 0 0 0 0 0 
0 0 0 0 0 0 0 0 0 
0 0 0 0 0 0 0 0 0 
0 0 0 0 0 0 0 0 0 
0 0 0 0 0 0 0 0 0 
0 0 0 0 0 0 0 0 0 
0 0 0 0 0 0 0 0 0 
0 0 0 0 0 0 0 0 0 
0 0 0 0 0 0 0 0 0 
0 0 0 0 0 0 0 0 0 
0 0 0 0 0 0 0 0 0 
0 0 0 0 0 0 0 0 0 
0 0 0 0 0 0 0 0 0 
0 0 0 0 0 0 0 0 0 
0 0 0 0 0 0 0 0 0 
0 0 0 0 0 0 0 0 0 
0 0 0 0 0 0 0 0 0 
0 0 0 0 0 0 0 0 0 
0 0 0 0 0 0 0 0 0 
0 0 0 0 0 0 0 
NORMALS Normals float
0.236796 0.571365 0.785792 0.106112 0.512659 0.85201 0.0350115 0.461152 0.88663 
-0.0161155 0.477795 0.878324 -0.0823564 0.513555 0.854095 -0.120311 0.602249 0.78919 
-0.141284 0.681168 0.718366 0.29847 0.30566 0.90415 0.150783 0.245955 0.957481 
0.0444864 0.150246 0.987647 0.00132227 0.109053 0.994035 -0.00514278 0.122777 0.992421 
-0.0365549 0.112475 0.992982 -0.0552974 0.128449 0.990173 -0.0344996 0.198738 0.979445 
-0.0836211 0.344775 0.934953 -0.185541 0.470227 0.862822 -0.402767 0.630923 0.66311 
0.277898 0.226303 0.933574 0.197143 0.0992359 0.975339 0.0892624 0.0370036 0.995321 
-0.0472287 -0.0299073 0.998436 -0.00509632 -0.068172 0.997661 -0.00997235 -0.0335564 0.999387 
-0.0588068 -0.0523443 0.996896 -0.0153032 -0.0897863 0.995843 0.0370377 0.00830783 0.999279 
0.0894605 0.0642267 0.993917 -0.0897368 0.160059 0.98302 -0.258166 0.188955 0.947442 
-0.470795 0.388799 0.791951 0.41758 0.273773 0.866415 0.239832 0.251055 0.937791 
0.12269 0.111082 0.986209 0.0925518 0.0156845 0.995584 0.0277483 -0.0816061 0.996278 
-0.0610921 -0.0512213 0.996817 -0.00873922 0.0396469 0.999176 0.011955 -0.0330489 0.999382 
-0.0964381 0.0891342 0.99134 0.0138196 -0.121545 0.99249 0.126785 -0.096415 0.987233 
0.0625265 -0.0603425 0.996217 -0.0479357 -0.0629869 0.996862 -0.104116 0.0867096 0.990778 
-0.302203 0.29822 0.905394 -0.524395 0.231424 0.819422 0.357164 0.0742595 0.931085 
0.211755 0.0388307 0.976551 0.0738072 0.0531115 0.995857 0.00776812 -0.0185703 0.999797 
0.0194981 -0.0789421 0.996688 0.0813063 0.0155982 0.996567 0.0220299 0.181126 0.983213 
0.0407731 -0.160013 0.986273 -0.143198 0.163057 0.976169 -0.206393 -0.0553868 0.9769 
0.102848 -0.124187 0.986914 0.126646 -0.101041 0.986788 0.0721733 -0.0612228 0.995511 
0.0746331 -0.00524395 0.997197 -0.230403 0.0349312 0.972468 -0.499762 0.0282379 0.865703 
0.231193 0.0302565 0.972437 0.169656 0.00675952 0.98548 0.0614317 -0.0285795 0.997702 
-0.0368708 -0.0454118 0.998288 0.0555949 -0.0602431 0.996634 0.197579 -0.0307826 0.979803 
-0.16999 -0.0193059 0.985257 -0.0472916 0.0283828 0.998478 0.082073 -0.0426143 0.995715 
-0.258521 0.00348828 0.965999 0.0695558 -0.0123156 0.997502 0.125478 -0.0283838 0.99169 
0.0441502 -0.0688985 0.996646 0.00479978 -0.0993054 0.995045 -0.217326 -0.18444 0.958515 
-0.420082 0.00669584 0.907462 0.291249 -0.00211955 0.956645 0.158631 -0.0642182 0.985247 
0.0176603 -0.105148 0.9943 -0.0248786 -0.0451565 0.99867 0.0318658 -0.032065 0.998978 
0.140019 -0.0795893 0.986945 0.0539942 -0.0941502 0.994093 0.0123616 0.148477 0.988839 
-0.169003 -0.198133 0.965495 -0.178187 0.0426167 0.983073 0.0722115 0.0324337 0.996862 
0.0763886 -0.0309683 0.996597 0.000395715 -0.0719769 0.997406 -0.0596476 -0.0743306 0.995448 
-0.18579 -0.221598 0.957276 -0.397447 -0.13098 0.908229 0.306168 -0.193204 0.932166 
0.111574 -0.230267 0.96671 0.0845193 -0.177094 0.980558 0.0371737 -0.128716 0.990985 
0.0273566 -0.0839074 0.996098 0.123633 -0.0566006 0.990713 0.0639957 -0.0476043 0.996814 
-0.104171 -0.0260436 0.994218 -0.10892 -0.139782 0.984173 -0.039198 0.0122715 0.999156 
0.0030044 -0.0308787 0.999519 0.0134349 -0.102655 0.994626 0.00139895 -0.154478 0.987995 
-0.139373 -0.231231 0.962864 -0.280534 -0.276606 0.919124 0.197661 -0.385933 0.901103 
0.103822 -0.349975 0.930988 0.0731913 -0.33473 0.939467 0.0846407 -0.259264 0.962091 
0.174445 -0.174745 0.969037 0.0854051 -0.163392 0.982858 -0.0956945 -0.148812 0.984224 
-0.118665 -0.154836 0.980788 -0.0685625 -0.187385 0.979891 -0.0440432 -0.208445 0.977042 
-0.0395168 -0.26489 0.963468 -0.140434 -0.282699 0.948873 0.221544 -0.5144 0.828439 
0.091897 -0.491308 0.866125 -0.0887736 -0.480044 0.872741 -0.155025 -0.486139 0.860021 
-0.0959732 -0.556707 0.825146 0.262194 0.69045 0.67419 0.122916 0.7117 0.691647 
0.0463016 0.742564 0.668173 -0.0210934 0.9948 0.099639 -0.0335759 0.779774 0.62516 
-0.119583 0.770812 0.625738 -0.14169 0.760644 0.633518 -0.144744 0.77853 0.610689 
0.347093 0.661608 0.664682 0.402446 0.613794 0.679186 0.446193 0.762883 0.46789 
-0.257317 0.76375 0.592009 -0.262908 0.759912 0.594486 -0.267971 0.784411 0.559366 
-0.278413 0.758686 0.588967 -0.416422 0.682329 0.600849 0.605967 0.730309 0.315361 
0.445751 0.496218 0.745033 0.444891 0.489973 0.749665 0.457027 0.512636 0.726863 
-0.447649 0.654159 0.60966 -0.517928 0.483405 0.705741 0.441679 0.32337 0.83687 
0.598285 0.611638 0.517642 0.422717 0.388978 0.81854 0.411434 0.394447 0.821665 
0.439398 0.412447 0.798008 -0.541692 0.439771 0.71636 -0.556851 0.303496 0.77318 
-0.717014 0.672142 0.184707 0.445102 0.303817 0.842365 0.677654 0.592656 0.435366 
-0.560605 0.250863 0.78917 0.381602 0.122874 0.916123 0.524582 0.313747 0.79144 
-0.562837 0.0612745 0.824294 -0.845597 0.255046 0.468954 0.528234 0.0647263 0.846628 
0.578723 0.0667018 0.812792 -0.461748 0.00503181 0.886997 -0.751562 -0.0087789 0.659604 
0.455584 -0.101291 0.884411 0.620445 -0.202622 0.757623 -0.489799 -0.160853 0.856868 
-0.436563 -0.321195 0.840385 -0.774282 -0.260134 0.576904 0.389162 -0.283944 0.876316 
0.599178 -0.379576 0.704917 0.403435 -0.408293 0.818863 -0.216252 -0.445362 0.868843 
-0.367393 -0.355951 0.859256 -0.304582 -0.375622 0.875293 -0.468252 -0.429128 0.772392 
0.294995 -0.469033 0.832458 0.457791 -0.616623 0.640471 0.24592 -0.449202 0.858918 
0.108112 -0.423264 0.899533 0.0926884 -0.513678 0.852962 0.172686 -0.466632 0.86743 
-0.0806043 -0.543298 0.835662 -0.048709 -0.509755 0.858939 -0.216014 -0.444848 0.869165 
-0.163925 -0.547865 0.820349 -0.216933 -0.447057 0.867802 -0.364676 -0.534397 0.762516 
-0.58133 -0.676464 0.452164 0.386791 -0.78217 0.48847 0.142278 -0.698961 0.700864 
0.107422 -0.70347 0.70256 0.210623 -0.525348 0.824407 0.204373 -0.556628 0.805231 
0.215509 -0.594359 0.774786 0.106279 -0.696975 0.709176 -0.0802494 -0.693336 0.716132 
-0.163901 -0.600277 0.782818 -0.0808688 -0.543911 0.835237 -0.0966078 -0.573383 0.813571 
-0.0806583 -0.54386 0.835291 -0.0719617 -0.667669 0.740972 -0.175668 -0.692072 0.700126 
-0.356579 -0.784692 0.50706 0.0357755 -0.989303 0.141421 -0.022944 0.996133 0.0848107 
0.449943 0.878371 0.161293 0.296413 0.948059 0.11543 0.0581636 0.992791 0.104801 
0.130732 0.983788 0.122761 -0.0333473 0.996439 0.0774396 -0.0252532 0.998092 0.0563469 
-0.0906625 0.995087 0.0397706 -0.135454 0.990731 0.0102154 -0.160039 0.987111 0.000132036 
-0.219152 0.975188 -0.0313276 -0.262173 0.964529 -0.0308171 0.607334 0.74866 0.265807 
0.516138 0.83831 0.175606 0.550977 0.809895 0.201234 -0.29736 0.954498 -0.0226091 
-0.25574 0.899567 -0.354086 -0.312396 0.949673 -0.0230162 -0.439689 0.897801 -0.0250558 
0.608819 0.745752 0.270544 0.639834 0.689544 0.339326 -0.573971 0.818846 0.00703263 
-0.5782 0.81585 0.00862617 -0.713879 0.698839 0.0447444 0.67886 0.642521 0.35541 
0.704311 0.609748 0.363529 -0.731776 0.679274 0.055595 -0.701543 0.706169 -0.0957247 
0.727888 0.594026 0.342509 -0.862044 0.474328 0.178586 -0.89226 0.380774 0.242658 
0.906188 0.323501 0.272343 -0.915345 0.27468 0.29444 0.893448 0.116077 0.433909 
0.955786 0.12333 0.26695 -0.962522 0.0348773 0.268951 0.8831 -0.180609 0.43303 
-0.885215 -0.252445 0.390726 -0.799132 -0.415079 0.434853 0.852278 -0.407236 0.328299 
0.677907 -0.600995 0.423376 -0.770462 -0.457101 0.444349 -0.881801 -0.460732 0.100761 
0.656764 -0.625552 0.421124 0.741017 -0.667969 0.0686379 0.485069 -0.763769 0.42587 
-0.452628 -0.781881 0.428708 -0.588615 -0.677924 0.440399 -0.584758 -0.679312 0.443388 
0.425283 -0.813883 0.39589 0.37233 -0.852051 0.367939 0.189466 -0.903451 0.384551 
0.154238 -0.905295 0.395793 0.149553 -0.931943 0.330329 0.107181 -0.966246 0.234265 
-0.0686163 -0.991111 0.113982 -0.113914 -0.981224 0.15564 -0.0773229 -0.972848 0.218148 
-0.0842477 -0.962481 0.25794 -0.127368 -0.946386 0.296867 -0.193846 -0.931557 0.307613 
-0.395941 -0.832138 0.3883 -0.342057 -0.858923 0.381116 0.0370188 -0.989328 0.140928 
0.0227932 -0.990493 0.135665 0.0353747 -0.9897 0.138714 0.0344398 -0.991083 0.128717 
0.408389 0.869006 -0.27937 0.276794 0.910396 -0.307513 0.108836 0.945084 -0.308173 
-0.0536308 0.942742 -0.329182 -0.129635 0.922214 -0.364301 -0.170204 0.898488 -0.404661 
-0.195807 0.879808 -0.433125 -0.197797 0.861268 -0.468075 0.543891 0.808254 -0.22563 
0.472554 0.839023 -0.269693 0.515698 0.809136 -0.281698 0.388247 0.796854 -0.462913 
0.210499 0.658658 -0.722398 -0.156163 0.695745 -0.701108 -0.18491 0.781474 -0.595908 
-0.230908 0.86037 -0.454361 -0.193501 0.834064 -0.516619 -0.250345 0.852608 -0.45868 
-0.307413 0.79664 -0.520443 -0.341359 0.782683 -0.520463 0.548232 0.805124 -0.22631 
0.642015 0.731943 -0.228204 0.538485 0.791295 -0.28963 0.389514 0.632639 -0.669363 
-0.253188 0.592222 -0.764963 -0.276253 0.674602 -0.684541 -0.413849 0.748702 -0.517855 
-0.348472 0.741921 -0.572818 -0.52102 0.690689 -0.501484 0.703659 0.672733 -0.228679 
0.751236 0.622626 -0.219046 0.583757 0.646905 -0.490654 -0.293134 0.522267 -0.800818 
-0.58661 0.686861 -0.429082 -0.407174 0.592071 -0.695458 -0.634713 0.655925 -0.408536 
0.776441 0.589337 -0.223207 0.744499 0.565586 -0.354731 -0.755091 0.536264 -0.377172 
-0.551463 0.476084 -0.685005 -0.819961 0.462197 -0.337694 0.904454 0.334023 -0.265313 
0.93254 0.160127 -0.323619 0.624417 0.278387 -0.729798 -0.897493 0.353669 -0.263486 
-0.76886 0.380286 -0.51404 0.939154 0.106584 -0.326541 0.937636 -0.0924018 -0.335113 
0.918834 0.105543 -0.380269 -0.966865 0.0635627 -0.24725 -0.786673 0.120463 -0.605503 
0.92467 -0.199463 -0.324345 -0.965922 -0.169392 -0.195706 -0.821854 -0.147163 -0.550362 
0.893082 -0.407426 -0.190811 0.490103 -0.444603 -0.749752 -0.889922 -0.421312 -0.174743 
-0.871344 -0.457189 -0.178152 -0.875454 -0.424876 -0.230349 0.728339 -0.62555 -0.27966 
0.71139 -0.646785 -0.274942 0.713656 -0.620173 -0.325701 0.502338 -0.824759 -0.259672 
0.410019 -0.513289 -0.753936 -0.425655 -0.899816 -0.0956539 -0.678108 -0.722049 -0.137167 
-0.646119 -0.753569 -0.121098 -0.629113 -0.697478 -0.343134 0.450365 -0.860419 -0.238435 
0.370018 -0.900277 -0.229319 0.38826 -0.761387 -0.519176 0.215512 -0.950679 -0.223078 
0.110048 -0.615749 -0.78022 0.139056 -0.959998 -0.243038 0.0230774 -0.607982 -0.793615 
0.0887192 -0.969672 -0.227738 0.0725663 -0.517386 -0.85267 0.0185831 -0.954911 -0.29631 
-0.0103898 -0.937008 -0.349153 -0.0108097 -0.499469 -0.866264 -0.0683618 -0.932132 -0.355606 
-0.0712998 -0.936004 -0.344693 -0.00527443 -0.592698 -0.805408 -0.0188229 -0.954223 -0.298503 
0.0320888 -0.593527 -0.804174 -0.0239543 -0.966286 -0.256353 -0.0829476 -0.981644 -0.171739 
-0.155164 -0.969089 -0.191808 -0.0847423 -0.752144 -0.653528 -0.398518 -0.911961 -0.0975218 
-0.30234 -0.944792 -0.126327 -0.222844 -0.810025 -0.542402 0.0853465 0.652801 -0.752706 
-0.0655827 0.6551 -0.75269 -0.124823 0.626581 -0.769296 0.317091 0.589337 -0.743058 
0.175933 0.632483 -0.75433 0.20048 0.622042 -0.756882 0.0850009 0.587277 -0.80491 
-0.0616236 0.59805 -0.799086 -0.127237 0.625609 -0.769691 -0.124319 0.619637 -0.77498 
-0.132142 0.595814 -0.792177 -0.139284 0.634529 -0.760245 -0.18856 0.643591 -0.741779 
0.396046 0.515241 -0.760049 0.353718 0.571436 -0.740502 0.353972 0.569792 -0.741648 
0.269854 0.416076 -0.868366 0.148533 0.352896 -0.923798 0.0272525 0.276914 -0.960508 
-0.0623499 0.256083 -0.964642 -0.0847013 0.275726 -0.957497 -0.0399464 0.338785 -0.940015 
-0.0743192 0.478469 -0.874954 -0.250204 0.590576 -0.767214 -0.17838 0.563262 -0.806794 
-0.252187 0.587129 -0.769208 -0.262998 0.553582 -0.790177 0.418389 0.51769 -0.746289 
0.472212 0.460485 -0.751645 0.367436 0.477305 -0.79823 0.206067 0.308988 -0.928473 
0.1428 0.195165 -0.970319 0.0721879 0.0818763 -0.994025 -0.0100656 0.0532746 -0.998529 
-0.0520448 0.0543047 -0.997167 -0.0490888 0.176278 -0.983116 0.0553521 0.114539 -0.991875 
0.0542139 0.179853 -0.982198 -0.103807 0.264748 -0.958714 -0.195418 0.348477 -0.91672 
-0.292292 0.520783 -0.802091 -0.240032 0.430905 -0.869888 -0.292495 0.520201 -0.802395 
-0.352927 0.446954 -0.821994 0.581713 0.377253 -0.720618 0.39602 0.284337 -0.87311 
0.220776 0.150744 -0.963605 0.0537368 0.14776 -0.987562 0.0405552 0.0299377 -0.998729 
0.00409704 -0.0480885 -0.998835 -0.00378869 -0.0736694 -0.997276 0.0614806 0.0161033 -0.997978 
-0.0290658 0.119652 -0.99239 -0.0148253 0.08423 -0.996336 0.0947536 -0.0267783 -0.995141 
-0.020241 0.0178334 -0.999636 -0.110232 0.136557 -0.98448 -0.138717 0.241615 -0.960406 
-0.214659 0.336291 -0.916968 -0.409074 0.413719 -0.813323 -0.346872 0.394479 -0.85092 
-0.496829 0.352899 -0.792858 0.565143 0.240989 -0.78901 0.585453 0.23036 -0.77729 
0.239466 0.0680332 -0.968518 0.189383 -0.0180815 -0.981737 0.0750566 -0.000751588 -0.997179 
-0.0455983 -0.0729702 -0.996291 -0.0348606 -0.157629 -0.986883 0.0566551 -0.147857 -0.987385 
0.12746 0.0318086 -0.991334 0.0221331 -0.202268 -0.97908 -0.0777255 0.16687 -0.982911 
-0.00726993 -0.092587 -0.995678 0.0624839 -0.0716505 -0.995471 0.0310994 0.049165 -0.998306 
-0.0310763 0.153618 -0.987642 -0.130927 0.226968 -0.965061 -0.252541 0.261269 -0.931645 
-0.539096 0.295569 -0.788679 -0.463748 0.265707 -0.845185 0.540188 0.0695437 -0.838666 
0.475583 0.0732354 -0.876617 0.244428 0.00650727 -0.969646 0.1211 0.0288602 -0.992221 
0.0100996 -0.0849311 -0.996336 -0.112781 -0.100662 -0.988508 -0.0837274 -0.104696 -0.990973 
0.13559 -0.183599 -0.973605 0.0202205 -0.117789 -0.992833 0.14463 -0.140633 -0.979441 
-0.136394 -0.0719791 -0.988036 0.122051 -0.0263065 -0.992175 0.11363 0.0296366 -0.993081 
0.0373855 0.0698731 -0.996855 -0.125409 0.102774 -0.986768 -0.272755 0.0992632 -0.956949 
-0.579793 0.114321 -0.806703 -0.446291 0.0843377 -0.890905 0.647959 -0.204685 -0.733657 
0.539213 -0.316202 -0.780555 0.57481 -0.18676 -0.796689 0.21309 -0.178178 -0.960648 
0.0980943 -0.0331775 -0.994624 -0.0543442 -0.116579 -0.991694 -0.070601 -0.039024 -0.996741 
-0.102778 -0.0319878 -0.99419 0.0119952 -0.0468537 -0.99883 0.158484 -0.206635 -0.965497 
0.102892 -0.0294567 -0.994256 0.00736736 -0.322031 -0.946701 0.00904554 -0.0460225 -0.998899 
0.159356 -0.00775459 -0.987191 0.126986 0.0119826 -0.991832 0.0431808 -0.0336673 -0.9985 
-0.23496 0.0328014 -0.971451 -0.672913 -0.0745859 -0.735952 -0.449012 -0.0178722 -0.893347 
0.315048 -0.214319 -0.924561 0.326436 -0.238544 -0.914624 0.312741 -0.193697 -0.929879 
0.191146 -0.289314 -0.937955 0.0154876 -0.10675 -0.994165 -0.0296549 -0.109878 -0.993503 
-0.0963587 -0.0580447 -0.993653 -0.0145898 -0.00234407 -0.999891 0.061663 -0.0757582 -0.995218 
0.0397865 -0.0932367 -0.994849 0.0613603 -0.159303 -0.985321 0.138816 -0.0815065 -0.986958 
0.178906 -0.100181 -0.978753 0.088389 -0.150693 -0.984621 -0.0268574 -0.165015 -0.985925 
-0.0427681 -0.216337 -0.975381 -0.280892 -0.222123 -0.933682 -0.611605 -0.333252 -0.717553 
-0.528192 -0.456615 -0.715903 -0.484714 -0.292326 -0.824377 0.198405 -0.367192 -0.908738 
0.195655 -0.366612 -0.909568 0.19394 -0.365072 -0.910554 0.104339 -0.545339 -0.831696 
0.117769 -0.280831 -0.952504 0.00770206 -0.466608 -0.884431 -0.00595096 -0.271328 -0.962469 
0.0664009 -0.469003 -0.880697 0.0100691 -0.177508 -0.984068 0.00285224 -0.135871 -0.990722 
-0.00959216 -0.49179 -0.870661 0.0496718 -0.158662 -0.986083 0.0216353 -0.180179 -0.983396 
-0.00140739 -0.544182 -0.838966 0.0183582 -0.205588 -0.978466 0.0322568 -0.592041 -0.805262 
0.0793658 -0.262074 -0.961779 0.0917332 -0.313827 -0.945038 0.0468771 -0.368317 -0.928518 
-0.0715528 -0.700873 -0.709688 -0.0319805 -0.407846 -0.912491 -0.195753 -0.719254 -0.666599 
-0.173424 -0.42881 -0.886592 -0.434859 -0.552414 -0.711152 -0.385844 -0.60028 -0.700563 
-0.368303 -0.519319 -0.771142 0.0368107 -0.474715 -0.879369 -0.0055071 -0.489767 -0.871836 
0.014263 -0.472464 -0.881235 0.0143713 -0.457325 -0.889184 -0.0157831 -0.535571 -0.844343 
-0.0168778 -0.551851 -0.833772 -0.0178321 -0.551402 -0.834049 -0.0177142 -0.550019 -0.834964 
0.0320961 -0.594543 -0.803423 0.0313051 -0.632676 -0.773784 0.0315695 -0.622557 -0.781937 
-0.0566833 -0.684684 -0.726632 -0.0415613 -0.666783 -0.744092 -0.0354142 -0.634914 -0.771771 
0.0357908 0.0304489 -0.998895 0.0699949 -0.021101 -0.997324 0.042692 -0.0143563 -0.998985 
0.0570878 -0.0658768 -0.996193 0.0665239 -0.00478026 -0.997773 -0.11369 -0.0449475 -0.992499 
-0.0802296 -0.0480653 -0.995617 -0.113885 -0.0508456 -0.992192 -0.111955 -0.0537475 -0.992259 
-0.112984 -0.051769 -0.992247 
