# vtk DataFile Version 4.2
vtk output
ASCII
DATASET POLYDATA
POINTS 574 float
14.1715 2.24487 -21.6281 -39.0424 -42.1 -14.2806 -30.1734 -42.1 -15.8738 
-21.3044 -42.1 -15.7279 -47.9113 -33.231 -15.85 -39.0424 -33.231 -18.0315 
-30.1734 -33.231 -20.5208 -21.3044 -33.231 -18.9837 -12.4355 -33.231 -16.8449 
-56.7803 -24.362 -14.2861 -47.9113 -24.362 -17.9115 -39.0424 -24.362 -19.7762 
-30.1734 -24.362 -20.267 -21.3044 -24.362 -19.8566 -12.4355 -24.362 -18.4409 
-3.56649 -24.362 -14.2408 14.1715 -24.362 -15.1531 23.0404 -24.362 -13.5413 
-56.7803 -15.4931 -16.2412 -47.9113 -15.4931 -18.2012 -39.0424 -15.4931 -19.1623 
-30.1734 -15.4931 -19.2665 -21.3044 -15.4931 -18.5163 -12.4355 -15.4931 -17.3718 
-3.56649 -15.4931 -17.3775 5.30248 -15.4931 -16.6453 14.1715 -15.4931 -17.3657 
23.0404 -15.4931 -14.7217 31.9094 -15.4931 -14.2083 40.7784 -15.4931 -14.7004 
49.6473 -15.4931 -13.287 58.5163 -15.4931 -13.2424 -65.6493 -6.6241 -13.222 
-56.7803 -6.6241 -17.1554 -47.9113 -6.6241 -18.7297 -39.0424 -6.6241 -19.2885 
-30.1734 -6.6241 -18.792 -21.3044 -6.6241 -17.5898 -12.4355 -6.6241 -16.3985 
-3.56649 -6.6241 -20.8298 5.30248 -6.6241 -16.6388 14.1715 2.00021 -21.5471 
14.1715 -6.6241 -18.4585 23.0404 -6.6241 -16.6028 31.9094 -6.6241 -16.661 
40.7784 -6.6241 -17.3876 49.6473 -6.6241 -16.8826 58.5163 -6.6241 -16.61 
67.3853 -6.6241 -16.2142 76.2542 -6.6241 -13.6251 -65.6493 2.24487 -13.2496 
-56.7803 2.24487 -17.4937 -47.9113 2.24487 -19.0467 -39.0424 2.24487 -19.6432 
-30.1734 2.24487 -19.2902 -21.3044 2.24487 -18.0766 -12.4355 2.24487 -17.717 
-3.56649 2.24487 -20.1873 14.0064 2.24487 -21.5471 5.30248 2.24487 -16.3683 
14.4726 2.24487 -21.5471 14.1715 2.55975 -21.5471 23.0404 2.24487 -18.815 
31.9094 2.24487 -17.6118 40.7784 2.24487 -17.7575 49.6473 2.24487 -18.165 
58.5163 2.24487 -18.5704 67.3853 2.24487 -15.4312 76.2542 2.24487 -14.3664 
-56.7803 11.1138 -16.8011 -47.9113 11.1138 -19.1165 -39.0424 11.1138 -19.8508 
-30.1734 11.1138 -19.4869 -21.3044 11.1138 -17.7114 -12.4355 11.1138 -15.8737 
-3.56649 11.1138 -20.0735 5.30248 11.1138 -16.8011 14.1715 11.1138 -19.2032 
23.0404 11.1138 -17.5369 31.9094 11.1138 -17.3082 40.7784 11.1138 -17.9442 
49.6473 11.1138 -17.4379 58.5163 11.1138 -17.4953 67.3853 11.1138 -14.4103 
76.2542 11.1138 -13.0966 -56.7803 19.9828 -15.3079 -47.9113 19.9828 -18.4366 
-39.0424 19.9828 -19.7388 -30.1734 19.9828 -19.9397 -21.3044 19.9828 -18.537 
-12.4355 19.9828 -17.9381 -3.56649 19.9828 -18.9438 5.30248 19.9828 -17.3634 
14.1715 19.9828 -18.3039 23.0404 19.9828 -18.7097 31.9094 19.9828 -17.7427 
40.7784 19.9828 -16.8476 49.6473 19.9828 -18.024 58.5163 19.9828 -14.6914 
67.3853 19.9828 -14.5513 -56.7803 28.8518 -13.5009 -47.9113 28.8518 -17.7507 
-39.0424 28.8518 -19.8829 -30.1734 28.8518 -19.3873 -21.3044 28.8518 -19.4726 
-12.4355 28.8518 -18.7809 -3.56649 28.8518 -18.7764 5.30248 28.8518 -17.4246 
14.1715 28.8518 -17.7116 23.0404 28.8518 -18.1397 31.9094 28.8518 -18.7484 
40.7784 28.8518 -16.2064 49.6473 28.8518 -14.8293 58.5163 28.8518 -13.0749 
-47.9113 37.7207 -15.8106 -39.0424 37.7207 -17.4034 -30.1734 37.7207 -18.4563 
-21.3044 37.7207 -19.4488 -12.4355 37.7207 -17.9932 -3.56649 37.7207 -16.7582 
5.30248 37.7207 -14.3441 14.1715 37.7207 -13.0896 23.0404 37.7207 -13.9851 
31.9094 37.7207 -13.295 -39.0424 46.5897 -12.9563 -30.1734 46.5897 -14.9022 
-21.3044 46.5897 -13.8085 -39.0424 -43.6218 -12.6782 -30.1734 -46.1039 -12.6782 
-21.3044 -46.2313 -12.6782 -21.3044 -50.9689 -4.26396 -42.2712 -42.1 -12.6782 
-47.9113 -38.264 -12.6782 -47.9113 -42.1 -8.03591 -12.5875 -42.1 -12.6782 
-12.4355 -41.9814 -12.6782 -12.4355 -42.1 -12.6129 -3.56649 -42.1 -7.57701 
5.30248 -42.1 -4.92353 -54.3839 -33.231 -12.6782 -56.7803 -29.548 -12.6782 
-56.7803 -33.231 -10.982 -5.19105 -33.231 -12.6782 -3.56649 -29.8392 -12.6782 
-3.56649 -33.231 -11.8264 5.30248 -33.231 -9.43554 14.1715 -28.546 -12.6782 
14.1715 -33.231 -9.74035 23.0404 -26.5653 -12.6782 23.0404 -33.231 -9.71836 
31.9094 -33.231 -6.99907 40.7784 -33.231 -4.61708 -59.5527 -24.362 -12.6782 
-65.6493 -24.362 -8.16737 2.43146 -24.362 -12.6782 7.17261 -24.362 -12.6782 
5.30248 -23.0749 -12.6782 5.30248 -24.362 -12.0145 26.312 -24.362 -12.6782 
31.9094 -20.0755 -12.6782 31.9094 -24.362 -11.1126 40.7784 -19.9479 -12.6782 
40.7784 -24.362 -10.331 49.6473 -17.3187 -12.6782 49.6473 -24.362 -9.83424 
58.5163 -16.3758 -12.6782 58.5163 -24.362 -7.17082 -65.6189 -15.4931 -12.6782 
-65.6493 -15.3295 -12.6782 -65.6493 -15.4931 -12.6639 62.4573 -15.4931 -12.6782 
67.3853 -14.3337 -12.6782 67.3853 -15.4931 -11.6646 76.2542 -7.47847 -12.6782 
76.2542 -15.4931 -6.05548 -66.3492 -6.6241 -12.6782 76.961 -6.6241 -12.6782 
85.1232 -6.6241 -5.08191 -66.3588 2.24487 -12.6782 -65.6493 6.06934 -12.6782 
5.30248 2.24487 -5.23037 77.5144 2.24487 -12.6782 85.1232 2.24487 -5.6327 
-63.9936 11.1138 -12.6782 -65.6493 11.1138 -11.5589 76.7519 11.1138 -12.6782 
76.2542 11.4824 -12.6782 85.1232 11.1138 -5.02262 -60.7463 19.9828 -12.6782 
-65.6493 19.9828 -7.97434 70.5257 19.9828 -12.6782 67.3853 23.2584 -12.6782 
76.2542 19.9828 -7.35809 -58.0121 28.8518 -12.6782 -65.6493 28.8518 -4.46337 
-56.7803 31.7883 -12.6782 40.7784 35.8367 -12.6782 49.6473 32.3453 -12.6782 
59.4061 28.8518 -12.6782 58.5163 29.52 -12.6782 67.3853 28.8518 -6.57863 
-53.647 37.7207 -12.6782 -56.7803 37.7207 -10.0972 -47.9113 44.1988 -12.6782 
-12.4355 46.262 -12.6782 -3.56649 43.3634 -12.6782 5.30248 39.6144 -12.6782 
14.1715 38.0416 -12.6782 23.0404 38.8279 -12.6782 34.8317 37.7207 -12.6782 
31.9094 38.3726 -12.6782 40.7784 37.7207 -10.2457 49.6473 37.7207 -6.85094 
-40.6464 46.5897 -12.6782 -47.9113 46.5897 -10.7896 -39.0424 46.873 -12.6782 
-30.1734 48.6583 -12.6782 -13.9685 46.5897 -12.6782 -21.3044 47.855 -12.6782 
-12.4355 46.5897 -11.7471 -21.3044 -51.1445 -3.8092 -47.9113 -44.2306 -3.8092 
-39.0424 -47.8487 -3.8092 -23.5839 -50.9689 -3.8092 -30.1734 -50.444 -3.8092 
-19.5932 -50.9689 -3.8092 -21.3044 -50.9689 -2.19928 -12.4355 -50.088 -3.8092 
-3.56649 -46.2545 -3.8092 5.30248 -43.1945 -3.8092 -51.3436 -42.1 -3.8092 
-56.7803 -38.4417 -3.8092 11.0795 -42.1 -3.8092 14.1715 -41.3347 -3.8092 
14.1715 -42.1 -2.60903 23.0404 -40.1337 -3.8092 23.0404 -42.1 -0.169647 
31.9094 -36.5034 -3.8092 40.7784 -34.0735 -3.8092 -62.3873 -33.231 -3.8092 
-65.6493 -29.2288 -3.8092 42.739 -33.231 -3.8092 49.6473 -29.988 -3.8092 
49.6473 -33.231 2.27797 58.5163 -27.8806 -3.8092 -68.8778 -24.362 -3.8092 
65.2631 -24.362 -3.8092 67.3853 -23.014 -3.8092 67.3853 -24.362 -0.688091 
76.2542 -18.2377 -3.8092 -72.8529 -15.4931 -3.8092 78.9579 -15.4931 -3.8092 
85.1232 -8.49134 -3.8092 -73.2368 -6.6241 -3.8092 5.30248 1.8236 -3.8092 
86.2972 -6.6241 -3.8092 -72.6527 2.24487 -3.8092 4.68988 2.24487 -3.8092 
5.64165 2.24487 -3.8092 5.30248 2.62849 -3.8092 86.8138 2.24487 -3.8092 
-71.1656 11.1138 -3.8092 85.7751 11.1138 -3.8092 85.1232 12.0994 -3.8092 
85.1232 11.1138 -0.376764 -68.1343 19.9828 -3.8092 79.9709 19.9828 -3.8092 
76.2542 23.9916 -3.8092 -65.9572 28.8518 -3.8092 -65.6493 29.4534 -3.8092 
-65.6493 28.8518 -0.273489 58.5163 36.4973 -3.8092 70.4406 28.8518 -3.8092 
67.3853 31.1963 -3.8092 -60.509 37.7207 -3.8092 -56.7803 42.8588 -3.8092 
-3.56649 45.3938 -3.8092 5.30248 41.5857 -3.8092 5.30248 37.7207 1.67166 
14.1715 38.6048 -3.8092 14.1715 37.7207 -2.55981 23.0404 39.7346 -3.8092 
23.0404 37.7207 -0.767223 31.9094 41.0107 -3.8092 31.9094 37.7207 4.53055 
40.7784 40.5828 -3.8092 40.7784 37.7207 2.93789 54.6553 37.7207 -3.8092 
49.6473 39.0049 -3.8092 49.6473 37.7207 1.0898 -53.1026 46.5897 -3.8092 
-47.9113 50.1541 -3.8092 -39.0424 52.2194 -3.8092 -30.1734 52.2255 -3.8092 
-21.3044 50.9817 -3.8092 -21.3044 46.5897 4.11785 -6.95531 46.5897 -3.8092 
-12.4355 48.4409 -3.8092 -12.4355 46.5897 0.0699667 -47.9113 -43.3982 5.05977 
-39.0424 -46.3465 5.05977 -30.1734 -48.9902 5.05977 -21.3044 -50.0184 5.05977 
-12.4355 -50.3356 5.05977 -3.56649 -49.4518 5.05977 5.30248 -47.4374 5.05977 
14.1715 -45.6022 5.05977 23.0404 -44.2492 5.05977 -50.1851 -42.1 5.05977 
-56.7803 -38.1953 5.05977 -47.9113 -42.1 7.2927 -39.0424 -42.1 11.5575 
-30.1734 -42.1 12.9622 -21.3044 -42.1 13.4545 -3.56649 -42.1 12.6896 
5.30248 -42.1 12.5366 14.1715 -42.1 12.8804 30.739 -42.1 5.05977 
23.0404 -42.1 10.2709 31.9094 -41.7704 5.05977 40.7784 -38.4952 5.05977 
49.6473 -34.4218 5.05977 -62.6046 -33.231 5.05977 -65.6493 -29.9959 5.05977 
-56.7803 -33.231 13.1369 52.8864 -33.231 5.05977 49.6473 -33.231 10.3145 
58.5163 -31.1972 5.05977 67.3853 -26.2522 5.05977 -69.7365 -24.362 5.05977 
-65.6493 -24.362 11.7943 58.5163 -24.362 12.6488 71.0241 -24.362 5.05977 
67.3853 -24.362 7.80899 76.2542 -20.069 5.05977 -73.5673 -15.4931 5.05977 
79.8312 -15.4931 5.05977 76.2542 -15.4931 8.66299 85.1232 -6.72708 5.05977 
-74.4318 -6.6241 5.05977 5.30248 -1.09604 5.05977 5.30248 -6.6241 13.4678 
76.2542 -6.6241 12.921 85.1703 -6.6241 5.05977 85.1232 -6.6241 5.11442 
-73.4056 2.24487 5.05977 1.09509 2.24487 5.05977 8.25321 2.24487 5.05977 
5.30248 6.1082 5.05977 23.0404 2.24487 12.8242 76.2542 2.24487 11.7593 
86.098 2.24487 5.05977 85.1232 7.03309 5.05977 85.1232 2.24487 5.97829 
-71.4117 11.1138 5.05977 -65.6493 11.1138 12.8187 5.30248 11.1138 12.285 
14.1715 11.1138 10.5687 23.0404 11.1138 12.1628 84.0541 11.1138 5.05977 
76.2542 11.1138 10.478 -68.1905 19.9828 5.05977 -65.6493 27.3599 5.05977 
-65.6493 19.9828 9.60356 -12.4355 19.9828 13.2802 -3.56649 19.9828 12.1873 
5.30248 19.9828 11.3147 14.1715 19.9828 8.99615 23.0404 19.9828 11.2902 
31.9094 19.9828 12.621 49.6473 19.9828 13.0372 67.3853 19.9828 10.5767 
77.6975 19.9828 5.05977 76.2542 21.5547 5.05977 76.2542 19.9828 6.12719 
-64.9631 28.8518 5.05977 -56.7803 28.8518 12.88 -12.4355 28.8518 12.1329 
-3.56649 28.8518 10.6367 5.30248 33.7074 5.05977 5.30248 28.8518 7.85989 
14.1715 29.6288 5.05977 14.1715 28.8518 5.57848 23.0404 31.9259 5.05977 
23.0404 28.8518 7.32683 31.9094 37.3294 5.05977 31.9094 28.8518 9.91415 
40.7784 36.475 5.05977 40.7784 28.8518 10.5519 49.6473 35.9885 5.05977 
[...]
POINT_DATA 574
SCALARS ImageScalars float
LOOKUP_TABLE default
0 0 0 0 0 0 0 0 0 
0 0 0 0 0 0 0 0 0 
0 0 0 0 0 0 0 0 0 
0 0 0 0 0 0 0 0 0 
0 0 0 0 0 0 0 0 0 
0 0 0 0 0 0 0 0 0 
0 0 0 0 0 0 0 0 0 
0 0 0 0 0 0 0 0 0 
0 0 0 0 0 0 0 0 0 
0 0 0 0 0 0 0 0 0 
0 0 0 0 0 0 0 0 0 
0 0 0 0 0 0 0 0 0 
0 0 0 0 0 0 0 0 0 
0 0 0 0 0 0 0 0 0 
0 0 0 0 0 0 0 0 0 
0 0 0 0 0 0 0 0 0 
0 0 0 0 0 0 0 0 0 
0 0 0 0 0 0 0 0 0 
0 0 0 0 0 0 0 0 0 
0 0 0 0 0 0 0 0 0 
0 0 0 0 0 0 0 0 0 
0 0 0 0 0 0 0 0 0 
0 0 0 0 0 0 0 0 0 
0 0 0 0 0 0 0 0 0 
0 0 0 0 0 0 0 0 0 
0 0 0 0 0 0 0 0 0 
0 0 0 0 0 0 0 0 0 
0 0 0 0 0 0 0 0 0 
0 0 0 0 0 0 0 0 0 
0 0 0 0 0 0 0 0 0 
0 0 0 0 0 0 0 0 0 
0 0 0 0 0 0 0 0 0 
0 0 0 0 0 0 0 0 0 
0 0 0 0 0 0 0 0 0 
0 0 0 0 0 0 0 0 0 
0 0 0 0 0 0 0 0 0 
0 0 0 0 0 0 0 0 0 
0 0 0 0 0 0 0 0 0 
0 0 0 0 0 0 0 0 0 
0 0 0 0 0 0 0 0 0 
0 0 0 0 0 0 0 0 0 
0 0 0 0 0 0 0 0 0 
0 0 0 0 0 0 0 0 0 
0 0 0 0 0 0 0 0 0 
0 0 0 0 0 0 0 0 0 
0 0 0 0 0 0 0 0 0 
0 0 0 0 0 0 0 0 0 
0 0 0 0 0 0 0 0 0 
0 0 0 0 0 0 0 0 0 
0 0 0 0 0 0 0 0 0 
0 0 0 0 0 0 0 0 0 
0 0 0 0 0 0 0 0 0 
0 0 0 0 0 0 0 0 0 
0 0 0 0 0 0 0 0 0 
0 0 0 0 0 0 0 0 0 
0 0 0 0 0 0 0 0 0 
0 0 0 0 0 0 0 0 0 
0 0 0 0 0 0 0 0 0 
0 0 0 0 0 0 0 0 0 
0 0 0 0 0 0 0 0 0 
0 0 0 0 0 0 0 0 0 
0 0 0 0 0 0 0 0 0 
0 0 0 0 0 0 0 0 0 
0 0 0 0 0 0 0 
NORMALS Normals float
0.115497 0.0386252 0.992557 0.291622 0.628439 0.721125 0.0580266 0.568941 0.820328 
-0.138135 0.501461 0.854082 0.342256 0.389822 0.854927 0.23014 0.249048 0.94075 
0.0483982 0.220165 0.974261 -0.181298 0.218182 0.95892 -0.350797 0.261758 0.899124 
0.456479 0.236563 0.857709 0.264076 0.107707 0.958469 0.140596 0.0565886 0.988449 
0.0033497 -0.0693751 0.997585 -0.0995945 -0.0282456 0.994627 -0.283123 0.0181835 0.958911 
-0.340561 0.263099 0.902661 0.0665381 0.38877 0.918929 -0.216963 0.249178 0.943842 
0.327836 0.144331 0.933645 0.15103 0.047718 0.987377 0.0578794 -0.0256606 0.997994 
-0.0360587 -0.0824061 0.995946 -0.109609 -0.130233 0.985406 -0.0649228 -0.109515 0.991863 
-0.0431872 0.325458 0.94457 0.0071538 0.244208 0.969697 -0.106333 0.177483 0.978363 
-0.175915 0.159712 0.971363 -0.00157414 0.305721 0.95212 -0.0416117 0.356763 0.933268 
-0.076286 0.333644 0.939607 -0.061331 0.479176 0.875573 0.568961 0.0332152 0.821693 
0.31844 0.0606017 0.946004 0.1103 0.047263 0.992774 0.00237482 0.0271037 0.99963 
-0.0954663 0.00134737 0.995432 -0.129921 -0.0256292 0.991193 0.120649 0.00920566 0.992653 
0.0292899 0.156867 0.987185 -0.0864544 -0.0150528 0.996142 0.112304 0.0442969 0.992686 
-0.00588288 0.23131 0.972862 -0.0987918 0.218715 0.970775 0.0424033 0.181635 0.982451 
0.0137353 0.167953 0.985699 -0.0408925 0.240654 0.969749 -0.0441822 0.29534 0.95437 
-0.107328 0.122409 0.986659 -0.598825 0.370964 0.709785 0.563586 -0.0685454 0.823209 
0.341892 -0.0161288 0.939601 0.1083 0.0216998 0.993881 0.0124212 0.031682 0.999421 
-0.0854857 0.0389826 0.995577 -0.0870684 0.00698411 0.996178 0.0996007 -0.0406649 0.994196 
-0.0731068 -0.0379459 0.996602 0.115099 0.0374299 0.992649 0.210783 0.0227675 0.977268 
0.104906 0.0384481 0.993739 0.113393 0.0302567 0.993089 -0.22881 0.0466953 0.972351 
-0.0510521 0.0370176 0.99801 0.030376 0.0305959 0.99907 0.0446368 0.0271403 0.998635 
-0.150903 0.0486331 0.987352 -0.209065 -0.110268 0.971665 -0.607195 -0.00884354 0.794504 
0.401894 -0.103121 0.909861 0.151819 -0.0339712 0.987824 0.0192109 0.00538919 0.999801 
-0.119059 0.034658 0.992282 -0.20326 0.0265905 0.978764 0.0645521 0.0208373 0.997697 
0.0653657 -0.0819593 0.99449 -0.0017032 0.0534308 0.99857 0.0446139 -0.187513 0.981248 
-0.104446 -0.000518647 0.99453 0.0231765 0.00865905 0.999694 0.00729999 -0.0495403 0.998745 
-0.0255626 -0.012502 0.999595 -0.164498 -0.202298 0.96541 -0.195699 -0.0450189 0.97963 
-0.36031 -0.403217 0.841185 0.47867 -0.160432 0.863213 0.215704 -0.078532 0.973296 
0.0806721 0.00141045 0.99674 -0.0698046 -0.00580522 0.997544 -0.104323 0.0973599 0.989766 
0.0235428 0.167411 0.985606 -0.032729 -0.0534887 0.998032 -0.0374815 0.035879 0.998653 
0.075527 -0.0838906 0.993609 -0.0333422 0.0362878 0.998785 -0.0987991 0.0720753 0.992494 
0.00681235 -0.104716 0.994479 -0.0957914 -0.0965759 0.990705 -0.170948 -0.248069 0.95354 
-0.271471 -0.262239 0.926032 0.521882 -0.20361 0.828361 0.294911 -0.117432 0.948281 
0.103533 -0.129431 0.986169 -0.0217962 -0.0760946 0.996862 -0.0346631 0.0521695 0.998037 
-0.0389233 -0.000508777 0.999242 -0.0787655 -0.122674 0.989316 -0.0652471 -0.165291 0.984084 
0.0453254 -0.245273 0.968394 0.0587425 -0.238547 0.969353 -0.136341 -0.219131 0.966123 
-0.176581 -0.202805 0.963166 -0.214717 -0.432161 0.875861 -0.30628 -0.391628 0.867652 
0.354657 -0.366593 0.860133 0.121471 -0.30739 0.943799 0.110988 -0.207385 0.971943 
-0.032869 -0.281961 0.958863 -0.143706 -0.309414 0.940006 -0.213355 -0.447009 0.868713 
-0.21501 -0.646124 0.732321 -0.0287844 -0.868527 0.494806 0.00167166 -0.809078 0.587699 
-0.122581 -0.730197 0.672151 0.158548 -0.657147 0.736899 0.026474 -0.639501 0.768335 
-0.113177 -0.692726 0.712265 0.306345 0.702935 0.641899 0.116048 0.730665 0.672802 
-0.143789 0.683096 0.716034 -0.0178974 0.986444 0.163119 0.355125 0.663328 0.658697 
0.401861 0.57597 0.711875 0.474094 0.781836 0.404928 -0.396618 0.520528 0.756138 
-0.400276 0.517247 0.756462 -0.400398 0.521998 0.753127 -0.362476 0.592173 0.719683 
-0.205979 0.668709 0.714424 0.483715 0.435487 0.759191 0.51643 0.344808 0.783841 
0.563584 0.481463 0.671242 -0.372537 0.309203 0.874991 -0.362538 0.29122 0.8853 
-0.37511 0.320191 0.869925 -0.119329 0.370669 0.921067 0.0558623 0.484393 0.873065 
0.0145337 0.556629 0.830634 -0.183819 0.313063 0.931774 -0.115039 0.527091 0.841987 
-0.257537 0.58142 0.771768 -0.255334 0.668966 0.698061 0.514039 0.288388 0.807834 
0.686173 0.482678 0.544232 -0.0768164 0.353572 0.932248 0.066136 0.395035 0.916282 
0.0598585 0.37014 0.927046 0.0560622 0.388416 0.919777 -0.192603 0.27631 0.941572 
-0.0816658 0.311142 0.946848 -0.164852 0.33404 0.928031 -0.0451244 0.437111 0.898275 
-0.0595631 0.513332 0.856121 -0.0945496 0.335717 0.937206 -0.162151 0.489619 0.856727 
-0.0823152 0.500464 0.861835 -0.264058 0.657353 0.705805 0.522956 0.189899 0.830937 
0.524654 0.187318 0.830452 0.524147 0.190094 0.830141 -0.19717 0.550437 0.81126 
-0.340911 0.565291 0.75115 -0.362181 0.629333 0.687579 -0.598715 0.369934 0.710415 
-0.518698 0.649832 0.555582 0.591677 0.0311193 0.805574 -0.620233 0.337392 0.708151 
-0.844601 0.298685 0.444337 0.587969 -0.073215 0.805563 0.589893 -0.114037 0.799388 
0.725538 0.133064 -0.675195 -0.634982 0.0112861 0.772445 -0.836351 0.0150437 0.547989 
0.585045 -0.16158 0.794742 0.65048 -0.185383 0.736552 -0.379605 -0.38643 0.840578 
-0.372958 -0.401594 0.836436 -0.905589 -0.346905 0.244062 0.582773 -0.174194 0.793746 
0.821058 -0.251828 0.512295 -0.414958 -0.315675 0.853323 -0.329483 -0.432685 0.839181 
-0.70618 -0.533019 0.466047 0.571818 -0.218075 0.790865 0.905604 -0.365364 0.215384 
0.563762 -0.257284 0.784842 -0.204221 -0.693594 0.690812 -0.240483 -0.532433 0.811593 
-0.313342 -0.428653 0.847392 -0.318137 -0.429516 0.845166 -0.497569 -0.779878 0.379756 
0.522841 -0.383906 0.761087 0.675169 -0.451659 0.583224 0.362146 -0.545446 0.75587 
-0.200781 -0.793582 0.574382 -0.30731 -0.756089 0.577832 -0.269763 -0.743661 0.611716 
-0.034875 -0.886661 0.461103 0.0217498 -0.872182 0.488698 -0.152804 -0.759634 0.632145 
-0.125968 -0.762245 0.634913 -0.181317 -0.884092 0.430704 -0.251648 -0.916652 0.31052 
0.194892 -0.650546 0.734035 0.39897 -0.674962 0.620685 0.155263 -0.665142 0.730397 
0.0407609 -0.751974 0.657932 -0.186737 -0.78944 0.584734 -0.113987 -0.743416 0.659044 
-0.221441 -0.839358 0.49643 -0.0127537 0.990129 0.139575 0.471233 0.866418 0.165104 
0.318559 0.942119 0.104555 0.036873 0.99065 0.131353 0.178908 0.977897 0.108208 
-0.0507857 0.984438 0.168234 0.00114205 0.998455 0.0555626 -0.225854 0.92742 0.298131 
-0.354949 0.741818 0.568962 -0.220285 0.708468 0.670484 0.520419 0.835842 0.174737 
0.611458 0.760081 0.219993 -0.160758 0.755903 0.63464 -0.124259 0.772281 0.62301 
-0.145134 0.83079 0.537331 -0.195738 0.769666 0.607701 -0.209685 0.916169 0.341566 
-0.280622 0.677568 0.679819 -0.266673 0.698203 0.664378 0.702898 0.655794 0.275444 
0.749524 0.580943 0.317362 -0.287403 0.708644 0.644378 -0.270226 0.786327 0.555579 
-0.38049 0.904127 0.194376 -0.318736 0.7316 0.602635 0.829547 0.470206 0.301262 
-0.391312 0.774225 0.497443 -0.410722 0.790144 0.454949 -0.482534 0.843113 0.237323 
-0.558272 0.713449 0.423466 0.912453 0.219974 0.345024 -0.602782 0.693178 0.395168 
-0.843345 0.40514 0.35303 0.919532 -0.0134948 0.392782 0.704804 0.0633983 -0.706563 
-0.881786 0.315081 0.350965 0.935703 -0.109541 0.335351 0.600942 0.188625 -0.776717 
0.700576 0.113364 -0.704515 0.667326 0.178892 -0.722962 -0.912147 -0.0202435 0.409364 
0.915959 -0.244458 0.318213 -0.91604 -0.367471 0.160732 -0.905506 -0.395143 0.154662 
-0.911641 -0.409006 -0.0403146 0.911237 -0.305589 0.276158 -0.771973 -0.590215 0.236016 
-0.685269 -0.703426 0.188673 0.912682 -0.362588 0.188522 0.908897 -0.370808 0.19081 
0.916013 -0.401148 0.0010123 -0.388872 -0.914141 0.114561 -0.574416 -0.80057 0.170687 
-0.553456 -0.803687 0.218571 0.820576 -0.536807 0.196199 0.718533 -0.673963 0.17171 
-0.359629 -0.916087 -0.177345 -0.377709 -0.905542 -0.19321 -0.354795 -0.739031 -0.572672 
-0.0985792 -0.949202 -0.298828 -0.096978 -0.917482 -0.385774 0.140484 -0.95958 -0.243867 
0.20095 -0.868385 -0.45335 0.0401004 -0.996793 -0.0692491 0.135824 -0.768659 -0.625072 
-0.116039 -0.993051 -0.0196164 -0.0650604 -0.895507 -0.440267 -0.309078 -0.945785 0.0998061 
-0.221612 -0.972188 0.0757506 -0.20422 -0.932543 -0.297755 0.591959 -0.79338 0.141892 
0.425934 -0.896882 0.119094 0.11062 -0.990107 0.0863162 -0.0713549 -0.997442 -0.00426457 
-0.209921 -0.974271 -0.0820365 -0.271836 -0.769442 -0.577983 -0.340788 -0.927634 -0.152832 
-0.301559 -0.947305 -0.108055 -0.316929 -0.87541 -0.364983 0.412472 0.860167 -0.299965 
0.272802 0.893717 -0.356158 0.188249 0.903234 -0.385656 0.0655242 0.927671 -0.367604 
-0.0340547 0.963112 -0.266936 -0.160365 0.970129 -0.182023 -0.213639 0.975186 -0.0580564 
-0.179727 0.983666 0.00994718 -0.20399 0.978972 -0.0012851 0.449904 0.849435 -0.275766 
0.560563 0.796946 -0.225046 0.390815 0.824404 -0.409416 0.190707 0.746246 -0.637767 
0.0705883 0.608973 -0.790044 0.0446414 0.503887 -0.862615 -0.0665042 0.508714 -0.858363 
0.00040335 0.642345 -0.766416 -0.0497621 0.726962 -0.684872 -0.301962 0.95197 0.0507065 
-0.183897 0.890177 -0.416854 -0.318756 0.946215 0.0554332 -0.383739 0.921418 0.0611014 
-0.382967 0.92093 0.0722751 0.663065 0.710752 -0.234898 0.737138 0.636142 -0.227927 
0.460662 0.525957 -0.714955 -0.387332 0.919769 0.0632381 -0.366161 0.864934 -0.343242 
-0.424424 0.904491 -0.0419631 -0.528904 0.836822 -0.141387 0.858629 0.464954 -0.215812 
0.658559 0.39708 -0.63924 -0.39761 0.42884 -0.811173 -0.572358 0.796502 -0.194912 
-0.512784 0.792702 -0.329661 -0.684917 0.664728 -0.29837 0.93733 0.261709 -0.230044 
-0.779572 0.542664 -0.312704 -0.698166 0.495208 -0.517043 -0.821891 0.285213 -0.493101 
0.980882 -0.0108562 -0.194299 0.563666 -0.675892 -0.474816 0.101697 -0.18239 -0.977953 
-0.585543 0.151631 -0.796334 -0.822441 0.281335 -0.49441 -0.820729 0.280254 -0.497857 
0.965703 -0.156256 -0.207366 -0.859812 0.229541 -0.456107 0.776947 -0.360062 -0.516439 
0.151878 0.440543 -0.884791 -0.0679817 -0.246348 -0.966794 -0.601613 -0.152036 -0.784186 
-0.815204 -0.0354031 -0.578091 -0.831019 -0.260629 -0.491406 -0.756573 -0.0314923 -0.65315 
0.92379 -0.282655 -0.258301 0.692249 -0.183907 -0.697832 -0.224298 0.0379007 -0.973783 
0.0151827 -0.384306 -0.923081 0.199997 -0.0865074 -0.97597 -0.814247 -0.414993 -0.405933 
-0.455072 -0.322114 -0.830152 0.908221 -0.33239 -0.254265 0.859402 -0.412808 -0.301691 
0.801235 -0.292356 -0.522064 -0.228105 -0.101205 -0.968362 -0.105893 -0.190309 -0.975997 
-0.200573 -0.243188 -0.949015 0.0204443 -0.247892 -0.968572 0.203687 -0.227959 -0.952127 
0.143219 -0.217885 -0.965409 0.0283903 -0.208423 -0.977627 -0.473909 -0.553611 -0.684781 
-0.557011 -0.606496 -0.567363 -0.532286 -0.641549 -0.552346 -0.50699 -0.573736 -0.643263 
0.841893 -0.430663 -0.325186 0.503848 -0.341794 -0.793293 -0.233242 -0.223664 -0.946347 
-0.216777 -0.312473 -0.924861 -0.294016 -0.513576 -0.806098 -0.259154 -0.400262 -0.878993 
-0.0429696 -0.502808 -0.86333 -0.0367704 -0.483444 -0.874603 0.241882 -0.567529 -0.787023 
0.225385 -0.512999 -0.828272 0.142101 -0.736109 -0.661779 0.15448 -0.418497 -0.894984 
-0.0424112 -0.801972 -0.595854 0.0686913 -0.451949 -0.889395 -0.177065 -0.765776 -0.618252 
-0.0921338 -0.457567 -0.884389 -0.303093 -0.767058 -0.565471 -0.306673 -0.627215 -0.715928 
-0.458446 -0.650515 -0.605523 -0.45539 -0.650598 -0.607735 -0.451211 -0.64477 -0.616993 
0.742765 -0.553497 -0.37675 0.660182 -0.635413 -0.400512 0.614148 -0.535012 -0.580159 
0.279584 -0.473792 -0.835077 -0.184929 -0.485898 -0.854227 -0.27059 -0.714246 -0.645471 
-0.242605 -0.455035 -0.856788 -0.275444 -0.628818 -0.72713 -0.253099 -0.473732 -0.843516 
-0.292181 -0.582169 -0.758756 -0.293384 -0.590985 -0.751441 -0.286919 -0.564547 -0.773927 
0.476913 -0.750776 -0.457045 0.39544 -0.791185 -0.466533 0.399636 -0.738816 -0.542625 
0.0442041 -0.862489 -0.504142 0.0244363 -0.741909 -0.670055 -0.262181 -0.737197 -0.622738 
-0.188926 -0.812843 -0.550993 -0.191539 -0.700722 -0.687242 -0.0422005 0.395461 -0.917513 
0.232907 0.553978 -0.799289 0.147211 0.608866 -0.779494 0.0484865 0.54782 -0.83519 
-0.0260111 0.408353 -0.912453 0.0283465 0.466497 -0.884069 -0.0435678 0.392961 -0.918523 
-0.0419269 0.387935 -0.920733 -0.0266211 0.330816 -0.94332 0.0447132 0.450584 -0.891614 
-0.0154892 0.599277 -0.800392 -0.117527 0.613048 -0.781256 -0.190003 0.576739 -0.794525 
-0.180423 0.555235 -0.811888 0.394122 0.498782 -0.771936 0.433976 0.481075 -0.761729 
0.209681 0.471206 -0.856737 0.114036 0.385962 -0.915439 -0.0178001 0.355779 -0.934401 
-0.111339 0.269791 -0.95646 -0.0816311 0.140641 -0.98669 0.0210292 0.151274 -0.988268 
0.055633 0.19128 -0.979958 0.0428058 0.209311 -0.976912 -0.027764 0.301745 -0.952984 
-0.154658 0.389388 -0.907997 -0.219712 0.598591 -0.770334 -0.159151 0.506831 -0.847227 
-0.308398 0.609394 -0.730431 0.529643 0.353922 -0.770855 0.606454 0.147128 -0.781388 
0.384294 0.344498 -0.856527 0.14003 0.27934 -0.949927 0.0525772 0.185088 -0.981314 
-0.084219 0.120291 -0.98916 -0.198729 0.0917132 -0.975754 -0.153084 0.0230829 -0.987944 
0.0114924 -0.0718814 -0.997347 0.0925887 -0.0384917 -0.99496 0.0959286 -0.0101894 -0.995336 
0.0251808 0.0347495 -0.999079 -0.0398535 0.0892254 -0.995214 -0.0364629 0.248772 -0.967876 
-0.344184 0.327848 -0.879803 -0.271767 0.24994 -0.92934 -0.246381 0.339668 -0.907702 
-0.351795 0.421689 -0.835714 0.610229 0.134847 -0.780664 0.60416 0.134132 -0.785493 
0.308102 0.0865404 -0.947409 0.1246 0.121539 -0.984735 -0.0487523 0.0851011 -0.995179 
-0.117357 0.00311154 -0.993085 -0.229568 -0.0374402 -0.972572 -0.240633 -0.0647277 -0.968456 
-0.0395626 -0.0025728 -0.999214 0.0891417 -0.147688 -0.985009 0.11901 -0.158408 -0.980175 
0.114603 -0.000720598 -0.993411 0.0765211 -0.140986 -0.98705 0.0783778 -0.0801576 -0.993696 
-0.0316073 0.00850589 -0.999464 -0.149933 -0.00433296 -0.988687 -0.0849837 0.283144 -0.955305 
-0.421211 0.331931 -0.84404 -0.259911 0.223342 -0.939449 0.608029 0.0267688 -0.793463 
0.556929 0.0328447 -0.829911 0.296068 0.0117573 -0.955095 0.116455 0.0107836 -0.993137 
-0.0604667 0.0393966 -0.997392 -0.204019 0.0103047 -0.978913 -0.246866 -0.047172 -0.967901 
-0.118444 -0.0106394 -0.992904 0.0527427 -0.0944938 -0.994127 -0.148397 0.347957 -0.925691 
0.0853395 -0.129567 -0.987891 0.10902 0.115994 -0.987249 -0.0554133 -0.255323 -0.965267 
-0.0479277 -0.215774 -0.975266 0.120024 -0.187699 -0.974866 0.0352134 -0.174498 -0.984028 
0.0167298 -0.0599537 -0.998061 -0.0990959 0.00890147 -0.995038 -0.422762 0.0278014 -0.905814 
-0.234306 -0.103102 -0.96668 0.632859 -0.113249 -0.76594 0.628644 -0.137602 -0.765423 
0.579886 -0.108597 -0.807428 0.320163 -0.0404543 -0.946498 0.126446 -0.0137203 -0.991879 
-0.0493759 -0.0385837 -0.998035 -0.200918 -0.0111346 -0.979545 -0.200807 -0.0272701 -0.979251 
-0.0133794 -0.0859872 -0.996206 -0.38249 -0.334756 -0.861185 -0.222042 -0.167745 -0.960499 
-0.171577 -0.510425 -0.842631 -0.0683403 -0.353159 -0.933064 -0.0390346 -0.496172 -0.867346 
-0.00249596 -0.505206 -0.862995 0.110777 -0.157068 -0.981355 0.153239 -0.129866 -0.979619 
0.0955323 -0.19391 -0.976357 0.0224843 -0.0760166 -0.996853 -0.116636 -0.215689 -0.969471 
-0.185387 0.0463072 -0.981574 -0.185337 0.0463413 -0.981582 0.628785 -0.170482 -0.75866 
0.360072 -0.119119 -0.925288 0.139459 -0.128318 -0.981879 -0.0577921 -0.107233 -0.992553 
-0.185035 -0.0731085 -0.980009 -0.323543 -0.0774342 -0.94304 -0.187136 -0.130923 -0.97357 
-0.173982 -0.141591 -0.974516 -0.123008 -0.263597 -0.956758 -0.100262 -0.280265 -0.954672 
-0.0994655 -0.299558 -0.948879 0.127811 -0.0934681 -0.987384 0.125644 -0.101726 -0.986846 
0.124054 -0.0941523 -0.987799 0.086234 -0.100075 -0.991236 0.022227 -0.182743 -0.982909 
-0.00768444 -0.165734 -0.98614 0.0282037 -0.0919134 -0.995368 -0.353388 -0.257594 -0.899312 
-0.439424 -0.417574 -0.795323 -0.248444 -0.0869809 -0.964733 0.542158 -0.286876 -0.789789 
0.462541 -0.326121 -0.82444 0.423065 -0.297866 -0.855741 0.149667 -0.2201 -0.963927 
0.000486888 -0.16988 -0.985465 -0.185071 -0.119886 -0.975385 -0.242051 -0.103648 -0.964712 
-0.301806 -0.111946 -0.946774 0.0324463 -0.222012 -0.974504 0.026547 -0.219739 -0.975197 
0.0275982 -0.226905 -0.973526 0.0256823 -0.222332 -0.974633 -0.0197036 -0.220455 -0.975198 
-0.182422 -0.340172 -0.922499 -0.11213 -0.281196 -0.953077 -0.0583582 -0.235592 -0.970098 
0.429398 -0.32918 -0.840986 0.255992 -0.423487 -0.86898 0.21643 -0.298461 -0.929559 
0.0466074 -0.245699 -0.968225 -0.184505 -0.484151 -0.855311 -0.136738 -0.258659 -0.956242 
-0.278624 -0.2464 -0.928254 -0.283468 -0.325604 -0.902013 -0.302068 -0.267325 -0.915037 
0.153754 -0.449902 -0.879743 -0.177034 -0.484682 -0.856587 0.0444998 -0.48181 -0.875145 
0.0571463 -0.435385 -0.898429 
