# vtk DataFile Version 4.2
vtk output
ASCII
DATASET POLYDATA
POINTS 522 float
30.8034 -15.9284 -23.3643 38.8448 -15.9284 -23.086 -9.40372 -40.0527 -16.3581 
-1.36229 -40.0527 -17.5176 6.67914 -40.0527 -18.1137 14.7206 -40.0527 -17.8189 
22.762 -40.0527 -16.699 -33.528 -32.0113 -16.4471 -25.4866 -32.0113 -17.7913 
-17.4451 -32.0113 -16.7102 -9.40372 -32.0113 -17.7628 -1.36229 -32.0113 -18.3871 
6.67914 -32.0113 -19.6093 14.7206 -32.0113 -20.4943 22.762 -32.0113 -21.6702 
30.8034 -32.0113 -20.4841 38.8448 -32.0113 -17.8033 -41.5694 -23.9698 -17.4171 
-33.528 -23.9698 -18.5871 -25.4866 -23.9698 -18.8128 -17.4451 -23.9698 -17.135 
-9.40372 -23.9698 -16.64 -1.36229 -23.9698 -17.7323 6.67914 -23.9698 -19.3952 
14.7206 -23.9698 -20.9875 22.762 -23.9698 -22.7563 30.8034 -18.311 -23.0732 
30.8034 -23.9698 -22.378 38.8448 -15.9981 -23.0732 38.8448 -23.9698 -21.4286 
46.8863 -23.9698 -17.6374 -49.6108 -15.9284 -15.3913 -41.5694 -15.9284 -18.6076 
-33.528 -15.9284 -20.0699 -25.4866 -15.9284 -19.2006 -17.4451 -15.9284 -17.1384 
-9.40372 -15.9284 -15.3152 -1.36229 -15.9284 -16.1466 6.67914 -15.9284 -18.0149 
14.7206 -15.9284 -20.4777 28.4396 -15.9284 -23.0732 22.762 -15.9284 -22.3779 
30.8034 -12.2637 -23.0732 38.932 -15.9284 -23.0732 38.8448 -15.6556 -23.0732 
46.8863 -15.9284 -21.3472 -41.5694 -7.88698 -18.4867 -33.528 -7.88698 -19.5573 
-25.4866 -7.88698 -19.0522 -17.4451 -7.88698 -17.6229 -9.40372 -7.88698 -16.2916 
-1.36229 -7.88698 -18.6782 6.67914 -7.88698 -18.3533 14.7206 -7.88698 -19.847 
22.762 -7.88698 -21.6596 30.8034 -7.88698 -22.7278 38.8448 -7.88698 -22.6768 
46.8863 -7.88698 -20.8793 54.9277 -7.88698 -16.1671 -41.5694 0.154442 -17.0725 
-33.528 0.154442 -19.0069 -25.4866 0.154442 -18.9642 -17.4451 0.154442 -18.6413 
-9.40372 0.154442 -18.8614 -1.36229 0.154442 -16.8326 6.67914 0.154442 -19.4431 
14.7206 0.154442 -19.6146 22.762 0.154442 -20.9659 30.8034 0.154442 -22.0829 
38.8448 0.154442 -22.0828 46.8863 0.154442 -20.3604 54.9277 0.154442 -15.0922 
-33.528 8.19587 -18.1868 -25.4866 8.19587 -19.5523 -17.4451 8.19587 -20.5789 
-9.40372 8.19587 -20.1915 -1.36229 8.19587 -18.2954 6.67914 8.19587 -19.3746 
14.7206 8.19587 -19.0256 22.762 8.19587 -20.3096 30.8034 8.19587 -21.1235 
38.8448 8.19587 -20.7521 46.8863 8.19587 -18.4063 -33.528 16.2373 -16.4334 
-25.4866 16.2373 -19.3241 -17.4451 16.2373 -20.595 -9.40372 16.2373 -19.821 
-1.36229 16.2373 -18.7861 6.67914 16.2373 -18.7623 14.7206 16.2373 -18.1802 
22.762 16.2373 -18.714 30.8034 16.2373 -18.5525 38.8448 16.2373 -17.495 
-25.4866 24.2787 -17.1121 -17.4451 24.2787 -18.5626 -9.40372 24.2787 -18.1325 
-1.36229 24.2787 -17.2023 6.67914 24.2787 -16.8175 14.7206 24.2787 -16.1745 
22.762 24.2787 -15.6382 -17.4451 32.3201 -16.1643 -9.40372 32.3201 -16.0173 
-1.36229 32.3201 -15.1818 -9.40372 -42.0963 -15.0317 -1.36229 -44.2448 -15.0317 
-1.36229 -48.0941 -7.02231 6.67914 -44.4506 -15.0317 14.7206 -43.43 -15.0317 
22.762 -41.7635 -15.0317 -33.528 -34.4909 -15.0317 -33.528 -40.0527 -10.1213 
-25.4866 -39.4222 -15.0317 -25.4866 -40.0527 -14.6834 -15.1008 -40.0527 -15.0317 
-17.4451 -38.3301 -15.0317 -17.4451 -40.0527 -14.479 28.7221 -40.0527 -15.0317 
30.8034 -39.374 -15.0317 30.8034 -40.0527 -12.2936 38.8448 -34.5634 -15.0317 
-39.5957 -32.0113 -15.0317 -41.5694 -30.7375 -15.0317 -41.5694 -32.0113 -14.3867 
42.1098 -32.0113 -15.0317 46.8863 -27.3875 -15.0317 -46.6954 -23.9698 -15.0317 
-49.6108 -17.7252 -15.0317 -49.6108 -23.9698 -13.0556 49.6062 -23.9698 -15.0317 
-50.0677 -15.9284 -15.0317 -49.6108 -8.44167 -15.0317 53.5387 -15.9284 -15.0317 
54.9277 -11.7659 -15.0317 54.9277 -15.9284 -12.697 -49.5519 -7.88698 -15.0317 
-49.6108 -7.88698 -14.997 55.9967 -7.88698 -15.0317 -47.1307 0.154442 -15.0317 
-49.6108 0.154442 -13.5485 -41.5694 8.17271 -15.0317 54.9854 0.154442 -15.0317 
54.9277 0.323998 -15.0317 -49.6108 8.19587 -8.7801 -41.5539 8.19587 -15.0317 
-41.5694 8.19587 -15.0243 51.275 8.19587 -15.0317 46.8863 14.1712 -15.0317 
54.9277 8.19587 -10.0608 -36.0131 16.2373 -15.0317 -41.5694 16.2373 -10.9619 
-33.528 19.7465 -15.0317 30.8034 23.7645 -15.0317 44.5622 16.2373 -15.0317 
38.8448 20.1302 -15.0317 46.8863 16.2373 -13.3852 -29.7499 24.2787 -15.0317 
-33.528 24.2787 -12.7343 -25.4866 28.9866 -15.0317 6.67914 29.3894 -15.0317 
14.7206 26.9861 -15.0317 28.4492 24.2787 -15.0317 22.762 25.3844 -15.0317 
30.8034 24.2787 -14.7293 38.8448 24.2787 -11.3509 -21.1652 32.3201 -15.0317 
-25.4866 32.3201 -13.3608 -17.4451 34.8131 -15.0317 -9.40372 34.5172 -15.0317 
-0.374583 32.3201 -15.0317 -1.36229 32.6492 -15.0317 6.67914 32.3201 -13.9214 
14.7206 32.3201 -12.495 22.762 32.3201 -10.6039 30.8034 32.3201 -7.60652 
-25.4866 40.3616 -7.5272 -17.4451 40.3616 -11.8309 -9.40372 40.3616 -12.0864 
-1.36229 40.3616 -11.0114 6.67914 40.3616 -9.10999 -1.36229 -48.1036 -6.9903 
-33.528 -41.9786 -6.9903 -25.4866 -44.7457 -6.9903 -17.4451 -46.8997 -6.9903 
-1.57926 -48.0941 -6.9903 -9.40372 -47.7498 -6.9903 -1.23935 -48.0941 -6.9903 
-1.36229 -48.0941 -6.94452 6.67914 -47.4775 -6.9903 14.7206 -46.1263 -6.9903 
22.762 -44.0194 -6.9903 30.8034 -41.0178 -6.9903 -37.5595 -40.0527 -6.9903 
-41.5694 -37.8325 -6.9903 32.7144 -40.0527 -6.9903 30.8034 -40.0527 -4.62365 
38.8448 -36.7171 -6.9903 -48.3487 -32.0113 -6.9903 -49.6108 -30.5067 -6.9903 
45.1937 -32.0113 -6.9903 46.8863 -30.5602 -6.9903 -53.9442 -23.9698 -6.9903 
52.7802 -23.9698 -6.9903 54.9277 -20.5002 -6.9903 -56.0467 -15.9284 -6.9903 
57.4316 -15.9284 -6.9903 -56.1626 -7.88698 -6.9903 -57.6523 -7.88698 -0.45876 
59.2243 -7.88698 -6.9903 -54.8183 0.154442 -6.9903 58.8844 0.154442 -6.9903 
-51.1943 8.19587 -6.9903 -49.6108 10.4623 -6.9903 56.4306 8.19587 -6.9903 
54.9277 11.3883 -6.9903 -45.3468 16.2373 -6.9903 -49.6108 16.2373 1.01399 
-41.5694 21.185 -6.9903 51.9712 16.2373 -6.9903 46.8863 21.9125 -6.9903 
-39.181 24.2787 -6.9903 -41.5694 24.2787 -3.2597 -33.528 32.0906 -6.9903 
44.1305 24.2787 -6.9903 38.8448 28.2213 -6.9903 46.8863 24.2787 -1.88681 
-33.3386 32.3201 -6.9903 -33.528 32.3201 -6.72222 14.7206 39.6809 -6.9903 
22.762 36.4339 -6.9903 31.8267 32.3201 -6.9903 30.8034 32.9726 -6.9903 
38.8448 32.3201 -0.308672 -26.1453 40.3616 -6.9903 -25.4866 40.8953 -6.9903 
-17.4451 45.3698 -6.9903 -9.40372 45.9342 -6.9903 -1.36229 44.7801 -6.9903 
13.0781 40.3616 -6.9903 6.67914 42.7852 -6.9903 14.7206 40.3616 -6.25651 
22.762 40.3616 -2.21461 -17.4451 48.403 -0.844239 -9.40372 48.403 -3.19629 
-1.36229 48.403 -1.88192 -33.528 -40.2204 1.05113 -25.4866 -43.1162 1.05113 
-17.4451 -44.4487 1.05113 -9.40372 -45.0082 1.05113 -1.36229 -45.8681 1.05113 
6.67914 -44.8354 1.05113 14.7206 -43.0299 1.05113 22.762 -40.4045 1.05113 
-33.8377 -40.0527 1.05113 -41.5694 -36.0266 1.05113 -33.528 -40.0527 1.27609 
-25.4866 -40.0527 5.07735 -17.4451 -40.0527 6.76842 -9.40372 -40.0527 7.31483 
-1.36229 -40.0527 7.03149 6.67914 -40.0527 6.52795 14.7206 -40.0527 4.54204 
23.6554 -40.0527 1.05113 22.762 -40.0527 1.47307 30.8034 -37.2531 1.05113 
38.8448 -33.3273 1.05113 -46.7617 -32.0113 1.05113 -49.6108 -29.088 1.05113 
-41.5694 -32.0113 6.55814 30.8034 -32.0113 6.82234 40.931 -32.0113 1.05113 
38.8448 -32.0113 2.59493 46.8863 -27.5798 1.05113 -53.519 -23.9698 1.05113 
-49.6108 -23.9698 6.95181 50.2832 -23.9698 1.05113 46.8863 -23.9698 4.73752 
54.9277 -16.849 1.05113 -56.6433 -15.9284 1.05113 -57.6523 -9.83046 1.05113 
55.4112 -15.9284 1.05113 54.9277 -15.9284 1.81003 -57.9584 -7.88698 1.05113 
-57.6523 -5.08729 1.05113 -57.6523 -7.88698 2.16221 58.0422 -7.88698 1.05113 
54.9277 -7.88698 6.02475 -57.0543 0.154442 1.05113 58.2747 0.154442 1.05113 
54.9277 0.154442 7.07199 -54.4961 8.19587 1.05113 56.5183 8.19587 1.05113 
54.9277 12.6413 1.05113 54.9277 8.19587 5.1666 -49.6269 16.2373 1.05113 
-49.6108 16.261 1.05113 -49.6108 16.2373 1.3646 53.4659 16.2373 1.05113 
-43.8979 24.2787 1.05113 -41.5694 27.7538 1.05113 47.901 24.2787 1.05113 
46.8863 25.4174 1.05113 46.8863 24.2787 5.55884 -38.1153 32.3201 1.05113 
-33.528 38.4971 1.05113 30.8034 37.7422 1.05113 39.6826 32.3201 1.05113 
38.8448 33.0064 1.05113 -31.8836 40.3616 1.05113 -25.4866 45.344 1.05113 
6.67914 48.3457 1.05113 14.7206 45.622 1.05113 26.5349 40.3616 1.05113 
22.762 42.3571 1.05113 -19.2119 48.403 1.05113 -17.4451 49.1128 1.05113 
-9.40372 50.5315 1.05113 6.43614 48.403 1.05113 -1.36229 49.9488 1.05113 
6.67914 48.403 1.43098 -33.528 -33.718 9.09256 -25.4866 -36.2221 9.09256 
-17.4451 -37.437 9.09256 -9.40372 -37.9208 9.09256 -1.36229 -37.6849 9.09256 
6.67914 -37.1065 9.09256 14.7206 -35.0352 9.09256 22.762 -32.1069 9.09256 
-37.144 -32.0113 9.09256 -41.5694 -29.4631 9.09256 -33.528 -32.0113 10.648 
-25.4866 -32.0113 12.2105 -17.4451 -32.0113 13.0142 -9.40372 -32.0113 13.2818 
-1.36229 -32.0113 13.3552 6.67914 -32.0113 12.589 14.7206 -32.0113 11.1954 
23.048 -32.0113 9.09256 22.762 -32.0113 9.16605 30.8034 -29.3304 9.09256 
38.8448 -25.5632 9.09256 -47.5202 -23.9698 9.09256 -49.6108 -21.7321 9.09256 
-41.5694 -23.9698 13.2393 -33.528 -23.9698 15.7318 -25.4866 -23.9698 16.9113 
6.67914 -23.9698 16.2269 14.7206 -23.9698 14.7448 22.762 -23.9698 13.5969 
30.8034 -23.9698 12.6663 41.0531 -23.9698 9.09256 38.8448 -23.9698 10.2959 
46.8863 -18.7785 9.09256 -53.0855 -15.9284 9.09256 -49.6108 -15.9284 12.7392 
-41.5694 -15.9284 16.8901 22.762 -15.9284 17.0028 30.8034 -15.9284 16.2411 
38.8448 -15.9284 14.3992 49.1106 -15.9284 9.09256 46.8863 -15.9284 10.8803 
-55.2591 -7.88698 9.09256 -49.6108 -7.88698 14.5403 52.3775 -7.88698 9.09256 
46.8863 -7.88698 13.6084 -55.1163 0.154442 9.09256 -49.6108 0.154442 15.018 
53.5496 0.154442 9.09256 46.8863 0.154442 14.7454 -53.0795 8.19587 9.09256 
-49.6108 15.4294 9.09256 -49.6108 8.19587 13.5545 53.1269 8.19587 9.09256 
46.8863 8.19587 15.2595 -49.1872 16.2373 9.09256 50.8478 16.2373 9.09256 
46.8863 22.9925 9.09256 46.8863 16.2373 14.1157 -44.5616 24.2787 9.09256 
-41.5694 29.0111 9.09256 -41.5694 24.2787 14.3875 46.0046 24.2787 9.09256 
38.8448 24.2787 16.7937 -39.3775 32.3201 9.09256 -33.528 39.5257 9.09256 
[...]
POINT_DATA 522
SCALARS ImageScalars float
LOOKUP_TABLE default
0 0 0 0 0 0 0 0 0 
0 0 0 0 0 0 0 0 0 
0 0 0 0 0 0 0 0 0 
0 0 0 0 0 0 0 0 0 
0 0 0 0 0 0 0 0 0 
0 0 0 0 0 0 0 0 0 
0 0 0 0 0 0 0 0 0 
0 0 0 0 0 0 0 0 0 
0 0 0 0 0 0 0 0 0 
0 0 0 0 0 0 0 0 0 
0 0 0 0 0 0 0 0 0 
0 0 0 0 0 0 0 0 0 
0 0 0 0 0 0 0 0 0 
0 0 0 0 0 0 0 0 0 
0 0 0 0 0 0 0 0 0 
0 0 0 0 0 0 0 0 0 
0 0 0 0 0 0 0 0 0 
0 0 0 0 0 0 0 0 0 
0 0 0 0 0 0 0 0 0 
0 0 0 0 0 0 0 0 0 
0 0 0 0 0 0 0 0 0 
0 0 0 0 0 0 0 0 0 
0 0 0 0 0 0 0 0 0 
0 0 0 0 0 0 0 0 0 
0 0 0 0 0 0 0 0 0 
0 0 0 0 0 0 0 0 0 
0 0 0 0 0 0 0 0 0 
0 0 0 0 0 0 0 0 0 
0 0 0 0 0 0 0 0 0 
0 0 0 0 0 0 0 0 0 
0 0 0 0 0 0 0 0 0 
0 0 0 0 0 0 0 0 0 
0 0 0 0 0 0 0 0 0 
0 0 0 0 0 0 0 0 0 
0 0 0 0 0 0 0 0 0 
0 0 0 0 0 0 0 0 0 
0 0 0 0 0 0 0 0 0 
0 0 0 0 0 0 0 0 0 
0 0 0 0 0 0 0 0 0 
0 0 0 0 0 0 0 0 0 
0 0 0 0 0 0 0 0 0 
0 0 0 0 0 0 0 0 0 
0 0 0 0 0 0 0 0 0 
0 0 0 0 0 0 0 0 0 
0 0 0 0 0 0 0 0 0 
0 0 0 0 0 0 0 0 0 
0 0 0 0 0 0 0 0 0 
0 0 0 0 0 0 0 0 0 
0 0 0 0 0 0 0 0 0 
0 0 0 0 0 0 0 0 0 
0 0 0 0 0 0 0 0 0 
0 0 0 0 0 0 0 0 0 
0 0 0 0 0 0 0 0 0 
0 0 0 0 0 0 0 0 0 
0 0 0 0 0 0 0 0 0 
0 0 0 0 0 0 0 0 0 
0 0 0 0 0 0 0 0 0 
0 0 0 0 0 0 0 0 0 

NORMALS Normals float
0.0427798 0.0211371 0.998861 -0.0956919 0.0731863 0.992717 0.184553 0.380223 0.906295 
0.100457 0.337855 0.935822 0.0238821 0.420191 0.907121 -0.0825041 0.550653 0.830647 
-0.17355 0.709869 0.682618 0.188729 0.361698 0.912993 0.00476197 0.263106 0.964755 
0.00633398 0.142581 0.989763 0.104954 0.00243265 0.994474 0.113221 0.016277 0.993436 
0.129697 0.0797139 0.988344 0.118272 0.180516 0.976435 0.00354567 0.317889 0.948121 
-0.197407 0.393395 0.897926 -0.463132 0.610027 0.642943 0.252276 0.257762 0.932693 
0.0773598 0.203881 0.975934 -0.0934947 0.0810609 0.992314 -0.132489 0.0261826 0.990839 
0.0358845 -0.149132 0.988166 0.167775 -0.136249 0.976364 0.199116 -0.0920109 0.975647 
0.202034 -0.00091908 0.979378 0.0868361 0.0360933 0.995569 0.00745504 0.0648642 0.997866 
-0.0801133 0.169705 0.982233 -0.0967202 0.0745787 0.992514 -0.254419 0.261372 0.931104 
-0.586103 0.449287 0.674258 0.570735 0.0653012 0.818533 0.273838 0.0561828 0.960133 
0.0404091 0.0555715 0.997637 -0.178563 0.0143788 0.983823 -0.244309 0.0301127 0.96923 
-0.0634418 -0.0389971 0.997223 0.164183 0.0316164 0.985923 0.268254 -0.0648066 0.961166 
0.257572 -0.0691061 0.963785 0.0830007 -0.00486239 0.996538 0.174155 -0.0663084 0.982483 
0.0524376 -0.0245808 0.998322 -0.0990942 0.0739236 0.992328 -0.0961411 0.0687414 0.992991 
-0.450811 0.15561 0.878951 0.269219 -0.0918506 0.958689 0.0339524 -0.0659834 0.997243 
-0.120057 -0.0148851 0.992655 -0.150404 0.0909853 0.984429 0.0452078 0.253414 0.966301 
0.110761 0.0783372 0.990755 0.0778325 0.0908612 0.992817 0.199321 -0.0530529 0.978497 
0.174771 -0.0866634 0.980788 0.062164 -0.078772 0.994953 -0.111059 -0.0599903 0.992002 
-0.347075 -0.0518953 0.9364 -0.739101 0.0636133 0.670584 0.299622 -0.194701 0.93398 
0.110231 -0.080069 0.990676 -0.0220122 0.0306881 0.999287 -0.00661199 0.180564 0.983541 
-0.0845699 0.195666 0.977017 0.0404657 -0.00812633 0.999148 0.14162 0.0611401 0.988031 
0.0934391 -0.0505595 0.99434 0.152128 -0.0822234 0.984935 0.0686898 -0.0976128 0.992851 
-0.0997645 -0.113131 0.988559 -0.362443 -0.126272 0.923412 -0.739653 -0.198504 0.643047 
0.253868 -0.152486 0.955144 0.138046 0.0231036 0.990156 0.0410484 0.118981 0.992048 
-0.138329 0.0620487 0.988441 -0.0476996 0.107653 0.993044 0.0419156 -0.0418202 0.998246 
0.0562173 -0.0888953 0.994453 0.129088 -0.13504 0.982395 0.0285182 -0.212504 0.976744 
-0.138737 -0.271934 0.952263 -0.437005 -0.337971 0.833548 0.423778 -0.276611 0.862496 
0.242359 -0.136122 0.96059 0.0289288 -0.118744 0.992503 -0.11433 -0.128548 0.985091 
-0.0626602 -0.0673611 0.995759 -0.0379803 -0.155732 0.987069 -0.00397594 -0.169597 0.985505 
0.0238096 -0.269732 0.962641 -0.0682945 -0.360481 0.930263 -0.231496 -0.451592 0.861669 
0.298546 -0.325048 0.897337 0.0522439 -0.272114 0.960846 -0.0810332 -0.220016 0.972125 
-0.0800417 -0.212613 0.973853 -0.0610971 -0.281929 0.957488 -0.0690708 -0.323541 0.94369 
-0.0794714 -0.429789 0.899425 0.129862 -0.360633 0.923623 -0.0567033 -0.33367 0.940983 
-0.118852 -0.333609 0.935189 0.198347 0.49616 0.845271 0.089447 0.628314 0.772801 
-0.0164895 0.998778 0.0465899 -0.044533 0.724611 0.687717 -0.14174 0.75709 0.637749 
-0.223407 0.790701 0.569983 0.239977 0.469389 0.849756 0.407277 0.835269 0.369393 
0.133989 0.547208 0.826202 0.149625 0.585005 0.797108 0.121762 0.425479 0.896739 
0.0722466 0.375455 0.924021 0.0987425 0.467552 0.878433 -0.321623 0.820527 0.472541 
-0.353638 0.822072 0.446249 -0.392887 0.887141 0.242116 -0.510919 0.722705 0.465467 
0.326809 0.460248 0.82545 0.361919 0.448813 0.817057 0.397765 0.507189 0.764553 
-0.566513 0.671987 0.476966 -0.647025 0.553877 0.524003 0.485152 0.3305 0.809566 
0.585195 0.129943 0.800414 0.672279 0.39699 0.624852 -0.697244 0.464992 0.545558 
0.590618 0.0716176 0.803767 0.538473 -0.0659037 0.840062 -0.736993 0.303854 0.60375 
-0.769448 0.188812 0.610164 -0.827764 0.338756 0.44727 0.533361 -0.0765432 0.842417 
0.536254 -0.0765445 0.840579 -0.790581 0.0663735 0.60875 0.487121 -0.252852 0.83593 
0.601777 -0.278134 0.748669 0.459944 -0.306309 0.833442 -0.741861 -0.198504 0.640499 
-0.74043 -0.202443 0.640921 0.669963 -0.432299 0.603546 0.460046 -0.306344 0.833374 
0.460497 -0.306681 0.833 -0.61463 -0.381347 0.69051 -0.505395 -0.503123 0.70103 
-0.845437 -0.377238 0.378059 0.473117 -0.323014 0.819648 0.60339 -0.444391 0.662146 
0.473274 -0.340732 0.81235 -0.176494 -0.521254 0.834952 -0.439441 -0.527888 0.726791 
-0.304847 -0.552018 0.776108 -0.545747 -0.563568 0.620122 0.426851 -0.378832 0.821149 
0.553499 -0.425727 0.715818 0.367743 -0.398215 0.840351 -0.113473 -0.358926 0.926443 
-0.100286 -0.377001 0.920767 -0.153611 -0.503293 0.850353 -0.0963122 -0.450581 0.887525 
-0.187749 -0.535201 0.823596 -0.401013 -0.66831 0.626539 0.261616 -0.4011 0.877881 
0.424156 -0.453081 0.784098 0.146066 -0.418744 0.89628 -0.0573201 -0.387671 0.920014 
-0.121792 -0.342536 0.931577 -0.119918 -0.342235 0.931931 -0.148378 -0.40906 0.900363 
-0.171063 -0.497658 0.850337 -0.229495 -0.60527 0.762221 -0.365264 -0.688319 0.626737 
0.492852 -0.634761 0.595126 0.198994 -0.591905 0.781057 -0.0426614 -0.568562 0.821533 
-0.150431 -0.584185 0.797558 -0.226473 -0.614848 0.755428 -0.0167104 0.998869 0.0445066 
0.385562 0.907538 0.166486 0.293234 0.939022 0.179586 0.193465 0.972015 0.133256 
-0.0144589 0.998921 0.0441378 0.0704523 0.996826 0.0370647 -0.018276 0.998869 0.0438851 
-0.01655 0.998991 0.0417473 -0.122102 0.992511 0.00357107 -0.212951 0.976739 -0.0251394 
-0.304612 0.950321 -0.0640393 -0.417649 0.902855 -0.102092 0.459499 0.872243 0.16749 
0.549353 0.816874 0.175863 -0.441058 0.892438 -0.0949899 -0.403997 0.886515 -0.225562 
-0.521008 0.85162 -0.0573875 0.738331 0.645541 0.195306 0.773013 0.600182 0.205508 
-0.644933 0.764134 -0.0126352 -0.680999 0.732282 0.00197685 0.882851 0.410037 0.229006 
-0.813689 0.579539 0.0452232 -0.874738 0.47954 0.069813 0.933331 0.124963 0.336568 
-0.930903 0.356109 0.0812776 0.919506 -0.058026 0.388768 0.999358 0.0125663 0.0335628 
-0.989662 0.0894175 0.11213 0.840481 -0.270137 0.4697 -0.97262 -0.160752 0.167838 
0.726799 -0.438295 0.52883 0.706293 -0.464391 0.534313 -0.906493 -0.363597 0.214635 
-0.864005 -0.436616 0.250722 0.687513 -0.507212 0.519674 0.806974 -0.567328 0.164109 
0.6837 -0.497534 0.533867 -0.75505 -0.570243 0.323607 -0.633314 -0.658802 0.406071 
0.684515 -0.494353 0.535774 0.747767 -0.531306 0.398194 0.661338 -0.510769 0.549315 
-0.568017 -0.68859 0.450779 -0.465664 -0.718819 0.516194 -0.712603 -0.67674 0.184987 
0.658574 -0.512233 0.551269 0.666067 -0.514292 0.540239 -0.272305 -0.667618 0.692919 
-0.269428 -0.68929 0.672524 -0.38712 -0.699236 0.601005 -0.37586 -0.701676 0.605294 
-0.579087 -0.777845 0.244164 0.512605 -0.637729 0.574924 0.496787 -0.650459 0.574548 
0.222955 -0.783509 0.580004 -0.0273688 -0.767486 0.640482 -0.141579 -0.731046 0.667479 
-0.269346 -0.670361 0.691426 -0.228315 -0.689725 0.687133 -0.282748 -0.695261 0.660806 
-0.356996 -0.819827 0.447704 0.268918 -0.925002 0.268428 0.0116427 -0.894908 0.446098 
-0.132452 -0.897195 0.421306 0.366085 0.838346 -0.403927 0.22831 0.881807 -0.412663 
0.0981712 0.882849 -0.459283 0.0738629 0.860698 -0.503729 -0.00216021 0.857772 -0.514026 
-0.140882 0.857549 -0.494735 -0.220825 0.824458 -0.521062 -0.288179 0.782081 -0.552542 
0.370267 0.83746 -0.401948 0.503137 0.796244 -0.33593 0.363259 0.835208 -0.412881 
0.22037 0.773915 -0.593711 0.0868755 0.730895 -0.676939 0.0106183 0.702215 -0.711885 
-0.0342312 0.698614 -0.71468 -0.108757 0.698592 -0.707207 -0.212929 0.730949 -0.648364 
-0.292499 0.780861 -0.551996 -0.285707 0.772206 -0.567512 -0.332963 0.780163 -0.529604 
-0.431731 0.749012 -0.502583 0.636879 0.692313 -0.339244 0.721972 0.61733 -0.312507 
0.47211 0.647213 -0.598521 -0.277007 0.652762 -0.705102 -0.468406 0.735098 -0.49013 
-0.417834 0.721198 -0.552528 -0.600535 0.660306 -0.450947 0.836329 0.482836 -0.259661 
0.641247 0.537359 -0.547766 -0.694146 0.576467 -0.4311 -0.571404 0.578255 -0.582339 
-0.830799 0.390549 -0.39654 0.959646 0.237313 -0.150872 0.995483 0.0715713 -0.0623746 
-0.839259 0.372096 -0.396471 -0.827082 0.371272 -0.422011 0.999043 0.0241208 -0.0364766 
0.998037 -0.0572167 -0.0254644 0.994875 0.0350305 -0.0948497 -0.926431 0.162141 -0.339759 
-0.802821 0.184124 -0.567078 0.976809 -0.214113 0.000173831 -0.955573 -0.0948508 -0.279075 
-0.834368 -0.00789739 -0.551151 0.904405 -0.419819 0.0761766 -0.948156 -0.26823 -0.170448 
-0.91708 -0.376024 -0.132551 -0.910373 -0.218252 -0.35155 0.807292 -0.567294 0.162655 
0.807182 -0.567397 0.162844 0.811536 -0.565286 0.147854 -0.877685 -0.472497 -0.0800983 
0.792706 -0.558597 0.244103 0.786478 -0.564593 0.250375 -0.75861 -0.649962 0.0453878 
-0.738491 -0.671734 0.0583413 -0.769712 -0.614252 -0.173889 0.775597 -0.572877 0.265068 
0.727608 -0.642261 0.241015 -0.503601 -0.840444 0.200099 -0.605219 -0.775769 0.178585 
-0.590875 -0.785354 0.184624 0.68761 -0.687708 0.232919 0.519524 -0.828543 0.208833 
-0.242581 -0.919206 0.310183 -0.341857 -0.88301 0.321601 -0.458205 -0.8547 0.243999 
-0.406531 -0.866526 0.289596 0.331252 -0.925179 0.185246 0.281209 -0.94152 0.185636 
0.0516517 -0.967147 0.248914 -0.238976 -0.920482 0.309197 -0.130605 -0.947051 0.293319 
-0.243275 -0.925943 0.288871 0.248675 0.662301 -0.706766 0.157872 0.640825 -0.751279 
0.0636857 0.644231 -0.762175 0.00907834 0.644858 -0.764249 -0.0298778 0.647211 -0.761725 
-0.102492 0.608169 -0.787163 -0.190982 0.565355 -0.802433 -0.215956 0.569468 -0.793139 
0.332048 0.619149 -0.711617 0.434521 0.56567 -0.700863 0.24435 0.617148 -0.747945 
0.11751 0.564605 -0.816953 0.0553108 0.540384 -0.839599 0.0181178 0.541272 -0.840652 
-0.0374618 0.536374 -0.843148 -0.116872 0.497681 -0.85945 -0.176895 0.492035 -0.852414 
-0.216962 0.570244 -0.792306 -0.215291 0.567563 -0.794684 -0.234952 0.587501 -0.774364 
-0.356841 0.565617 -0.743466 0.549028 0.524673 -0.650605 0.6116 0.4785 -0.630066 
0.390753 0.482656 -0.783809 0.183313 0.415869 -0.890758 0.0879499 0.39992 -0.91232 
-0.15745 0.381661 -0.910794 -0.151187 0.37108 -0.916211 -0.115499 0.41882 -0.900694 
-0.177671 0.48894 -0.854032 -0.398577 0.544198 -0.738231 -0.348528 0.533036 -0.770974 
-0.530625 0.44444 -0.721741 0.744257 0.32193 -0.585186 0.602821 0.323829 -0.729206 
0.307432 0.252647 -0.917418 -0.0928775 0.310674 -0.945968 -0.149257 0.319888 -0.935625 
-0.287185 0.369455 -0.883758 -0.59563 0.38192 -0.706655 -0.509982 0.384883 -0.769275 
0.839713 0.107979 -0.532187 0.577756 0.115501 -0.807996 -0.67735 0.197995 -0.708516 
-0.513825 0.203976 -0.833293 0.881353 -0.129166 -0.454458 0.615946 -0.0431732 -0.786604 
-0.757331 0.0275855 -0.652449 -0.520159 0.0814457 -0.850177 0.861722 -0.319966 -0.393774 
0.851747 -0.448298 -0.271213 0.724106 -0.230683 -0.649966 -0.821343 -0.149828 -0.550406 
-0.580179 -0.0230722 -0.814162 0.850435 -0.459525 -0.25612 -0.825614 -0.346725 -0.445132 
-0.767984 -0.527674 -0.362989 -0.697278 -0.266121 -0.66557 0.848014 -0.502382 -0.168774 
0.834803 -0.534866 -0.130468 0.772953 -0.401679 -0.491119 -0.752803 -0.558913 -0.347712 
-0.458993 -0.358043 -0.8131 0.807037 -0.581572 -0.102298 0.704489 -0.698542 -0.125438 
-0.528225 -0.815498 -0.236519 -0.346014 -0.550011 -0.760107 -0.622102 -0.734985 -0.269788 
-0.620991 -0.736008 -0.26956 -0.620503 -0.73454 -0.274641 0.682206 -0.719259 -0.131384 
0.489002 -0.855415 -0.170711 -0.390677 -0.908455 -0.148595 -0.51581 -0.822797 -0.23863 
-0.484521 -0.841585 -0.238693 -0.469695 -0.732952 -0.492105 0.336433 -0.923749 -0.183029 
0.290991 -0.938552 -0.185593 0.285661 -0.917615 -0.276371 0.0938237 -0.977455 -0.189153 
0.0979782 -0.877322 -0.469793 -0.0883047 -0.986807 -0.135703 -0.0722601 -0.871142 -0.485686 
-0.288169 -0.948937 -0.128362 -0.234458 -0.964199 -0.123896 -0.238576 -0.935778 -0.259617 
0.0401839 0.378224 -0.924842 0.0140194 0.388859 -0.921191 -0.0762171 0.381532 -0.921208 
0.165361 0.332775 -0.928395 0.0604284 0.383623 -0.921511 0.0857124 0.382877 -0.919814 
0.0392489 0.371127 -0.927752 0.0134536 0.368692 -0.929454 -0.103302 0.371416 -0.922702 
-0.0786521 0.36505 -0.92766 -0.149504 0.35685 -0.922121 -0.146562 0.325926 -0.933966 
0.286753 0.249077 -0.925059 0.303317 0.225603 -0.925798 0.157348 0.241344 -0.957598 
0.0551419 0.192623 -0.979722 0.0299374 0.192566 -0.980827 0.0140932 0.249459 -0.968283 
-0.0308205 0.160382 -0.986574 -0.119173 0.284696 -0.951181 -0.101198 0.310953 -0.945022 
-0.145549 0.315673 -0.937639 -0.0943919 0.300588 -0.949072 -0.12611 0.25981 -0.95739 
-0.234519 0.217685 -0.947425 0.365701 0.11091 -0.924101 0.285757 0.111062 -0.951844 
0.113182 0.0862056 -0.989828 0.0460117 0.0463509 -0.997865 0.100779 0.035927 -0.99426 
-0.0180963 0.162725 -0.986506 -0.0477723 0.0309858 -0.998378 -0.00438305 0.052394 -0.998617 
-0.136323 0.136267 -0.981248 -0.119971 0.159115 -0.979944 -0.103122 0.193788 -0.975608 
-0.238561 0.214046 -0.947245 -0.23346 0.213978 -0.94853 0.410912 0.00395881 -0.911666 
0.270518 0.030611 -0.962228 0.0845214 0.0371467 -0.995729 -0.000289808 0.0299877 -0.99955 
0.142413 -0.0399226 -0.989002 0.0170895 -0.147725 -0.988881 -0.144265 0.0241389 -0.989245 
-0.0121696 0.0212084 -0.999701 -0.041403 0.0373907 -0.998443 -0.0361194 0.12374 -0.991657 
-0.0904125 0.158704 -0.983178 -0.339629 0.103099 -0.934892 -0.267323 0.117488 -0.956418 
0.464011 -0.0864333 -0.881602 0.346322 -0.0463325 -0.936971 0.111992 0.0593115 -0.991937 
-0.0284374 0.0804827 -0.99635 -0.0702914 0.0668604 -0.995283 0.0439023 -0.114279 -0.992478 
0.114063 0.0530401 -0.992057 0.00630021 0.0540616 -0.998518 -0.029698 0.0315964 -0.999059 
-0.00109528 0.0912256 -0.99583 -0.104851 0.0822361 -0.991082 -0.438073 0.0182172 -0.898755 
-0.298547 0.0497392 -0.953098 0.561566 -0.197781 -0.803447 0.593546 -0.23808 -0.768779 
0.509789 -0.16661 -0.844012 0.195883 0.0239269 -0.980335 0.0105956 0.100582 -0.994872 
-0.0573609 0.152272 -0.986673 0.000363521 0.181823 -0.983331 0.0384403 0.125323 -0.991371 
-0.0354542 0.0322818 -0.99885 -0.00419427 -0.0123796 -0.999915 0.0154447 -0.0445541 -0.998888 
-0.126333 -0.0551266 -0.990455 -0.487401 -0.168442 -0.856777 -0.438516 -0.321883 -0.839104 
-0.346097 -0.131933 -0.928876 0.619917 -0.302062 -0.724197 0.349736 -0.170221 -0.921254 
0.0930912 0.0186654 -0.995483 0.0204133 0.0735014 -0.997086 0.00923715 0.186907 -0.982334 
-0.0424786 0.101519 -0.993926 -0.130361 0.0838435 -0.987915 -0.105822 -0.0299924 -0.993933 
-0.0477233 -0.171994 -0.983941 -0.425695 -0.343704 -0.83705 -0.269741 -0.427892 -0.86264 
-0.195623 -0.293442 -0.935748 0.582944 -0.437886 -0.684421 0.556999 -0.476722 -0.680064 
0.522545 -0.409951 -0.747588 0.250902 -0.251596 -0.934745 0.103572 -0.112074 -0.988288 
0.031687 -0.0539564 -0.99804 -0.0581694 -0.0736542 -0.995586 -0.171702 -0.0776257 -0.982086 
-0.258637 -0.156233 -0.953257 -0.272447 -0.417495 -0.866874 -0.286041 -0.41257 -0.864851 
-0.250642 -0.351221 -0.902121 0.446459 -0.595661 -0.667729 0.411321 -0.611698 -0.675752 
0.397571 -0.575183 -0.714914 0.229998 -0.695803 -0.680411 0.198725 -0.420304 -0.885355 
0.0860897 -0.73176 -0.676104 0.0498565 -0.410635 -0.910436 -0.0627261 -0.721009 -0.69008 
-0.0612171 -0.36724 -0.92811 -0.223473 -0.673152 -0.70493 -0.216661 -0.422584 -0.880046 
-0.369412 -0.485191 -0.792543 -0.36258 -0.511979 -0.778726 -0.353201 -0.450611 -0.819877 

