# vtk DataFile Version 4.2
vtk output
ASCII
DATASET POLYDATA
POINTS 536 float
-23.7682 -34.0823 -12.4964 -16.2619 -34.0823 -11.8802 -38.7808 -26.576 -14.1074 
-31.2745 -26.576 -15.2924 -23.7682 -26.576 -15.5668 -16.2619 -26.576 -15.0551 
-8.75562 -26.576 -14.4531 -1.24933 -26.576 -13.8909 6.25697 -26.576 -13.6798 
13.7633 -26.576 -13.1234 21.2696 -26.576 -12.0981 -46.2871 -19.0697 -15.0751 
-38.7808 -19.0697 -16.9915 -31.2745 -19.0697 -16.9032 -23.7682 -19.0697 -17.0739 
-16.2619 -19.0697 -15.8956 -8.75562 -19.0697 -15.2161 -1.24933 -19.0697 -14.4819 
6.25697 -19.0697 -14.028 13.7633 -19.0697 -14.1578 21.2696 -19.0697 -13.8553 
28.7759 -19.0697 -13.6748 36.2821 -19.0697 -12.7583 -53.7934 -11.5634 -14.0949 
-46.2871 -11.5634 -17.0172 -38.7808 -11.5634 -17.9616 -31.2745 -11.5634 -18.468 
-23.7682 -11.5634 -16.8679 -16.2619 -11.5634 -15.5146 -8.75562 -11.5634 -16.7197 
-1.24933 -11.5634 -16.8695 6.25697 -11.5634 -15.537 13.7633 -11.5634 -14.1921 
21.2696 -11.5634 -14.0558 28.7759 -11.5634 -14.6351 36.2821 -11.5634 -14.8982 
43.7884 -11.5634 -14.1707 -53.7934 -4.05712 -16.0025 -46.2871 -4.05712 -18.3538 
-38.7808 -4.05712 -18.8657 -31.2745 -4.05712 -18.4566 -23.7682 -4.05712 -17.0437 
-16.2619 -4.05712 -15.3211 -8.75562 -4.05712 -17.5385 -1.24933 -4.05712 -14.7666 
6.25697 -4.05712 -18.2651 13.7633 -4.05712 -12.8809 21.2696 -4.05712 -13.781 
28.7759 -4.05712 -15.2001 36.2821 -4.05712 -16.5347 43.7884 -4.05712 -15.222 
51.2947 -4.05712 -13.9994 -53.7934 3.44917 -15.6634 -46.2871 3.44917 -18.177 
-38.7808 3.44917 -18.8092 -31.2745 3.44917 -18.4688 -23.7682 3.44917 -17.1288 
-16.2619 3.44917 -15.7279 -8.75562 3.44917 -18.2766 -1.24933 3.44917 -14.8657 
6.25697 3.44917 -18.6255 13.7633 3.44917 -12.9915 21.2696 3.44917 -14.2106 
28.7759 3.44917 -15.8914 36.2821 3.44917 -16.0396 43.7884 3.44917 -15.6984 
51.2947 3.44917 -14.3891 -53.7934 10.9555 -13.4827 -46.2871 10.9555 -16.7754 
-38.7808 10.9555 -17.8958 -31.2745 10.9555 -18.3203 -23.7682 10.9555 -16.7419 
-16.2619 10.9555 -15.3437 -8.75562 10.9555 -16.0673 -1.24933 10.9555 -16.7486 
6.25697 10.9555 -15.9373 13.7633 10.9555 -14.8771 21.2696 10.9555 -14.9933 
28.7759 10.9555 -15.8643 36.2821 10.9555 -16.9513 43.7884 10.9555 -15.2175 
51.2947 10.9555 -13.6192 -46.2871 18.4618 -14.4896 -38.7808 18.4618 -16.5299 
-31.2745 18.4618 -16.8156 -23.7682 18.4618 -17.0066 -16.2619 18.4618 -16.2595 
-8.75562 18.4618 -15.8934 -1.24933 18.4618 -16.0082 6.25697 18.4618 -16.1814 
13.7633 18.4618 -15.8908 21.2696 18.4618 -15.2901 28.7759 18.4618 -15.1188 
36.2821 18.4618 -14.8354 43.7884 18.4618 -14.2007 51.2947 18.4618 -12.3698 
-38.7808 25.9681 -14.4888 -31.2745 25.9681 -16.3914 -23.7682 25.9681 -16.5682 
-16.2619 25.9681 -17.0684 -8.75562 25.9681 -16.7335 -1.24933 25.9681 -16.9821 
6.25697 25.9681 -16.9453 13.7633 25.9681 -16.2175 21.2696 25.9681 -13.813 
28.7759 25.9681 -12.4242 -31.2745 33.4744 -14.527 -23.7682 33.4744 -15.7645 
-16.2619 33.4744 -16.2475 -8.75562 33.4744 -16.2322 -1.24933 33.4744 -16.4369 
6.25697 33.4744 -16.0844 13.7633 33.4744 -14.3028 -23.7682 40.9806 -11.8288 
-16.2619 40.9806 -13.4333 -8.75562 40.9806 -13.482 -1.24933 40.9806 -13.1183 
6.25697 40.9806 -11.8379 -23.7682 -35.1636 -11.6042 -16.2619 -34.4354 -11.6042 
-38.7808 -30.9984 -11.6042 -38.7808 -34.0823 -6.28865 -28.3423 -34.0823 -11.6042 
-31.2745 -33.0271 -11.6042 -31.2745 -34.0823 -10.6035 -11.7699 -34.0823 -11.6042 
-8.75562 -33.676 -11.6042 -8.75562 -34.0823 -11.3997 -1.24933 -32.8438 -11.6042 
-1.24933 -34.0823 -11.0576 6.25697 -32.503 -11.6042 6.25697 -34.0823 -10.9583 
13.7633 -31.6345 -11.6042 13.7633 -34.0823 -10.6451 21.2696 -27.6858 -11.6042 
21.2696 -34.0823 -7.99951 28.7759 -34.0823 -5.0525 -44.4646 -26.576 -11.6042 
-46.2871 -25.1506 -11.6042 -46.2871 -26.576 -10.0309 25.0214 -26.576 -11.6042 
28.7759 -25.1436 -11.6042 28.7759 -26.576 -11.0734 36.2821 -21.5241 -11.6042 
36.2821 -26.576 -8.79533 43.7884 -26.576 -6.08033 -53.7259 -19.0697 -11.6042 
-53.7934 -18.9465 -11.6042 -53.7934 -19.0697 -11.5186 41.5658 -19.0697 -11.6042 
43.7884 -17.9837 -11.6042 43.7884 -19.0697 -11.0719 51.2947 -19.0697 -7.80954 
-56.6212 -11.5634 -11.6042 50.8252 -11.5634 -11.6042 51.2947 -10.9545 -11.6042 
51.2947 -11.5634 -11.3867 58.801 -11.5634 -5.55219 -58.4161 -4.05712 -11.6042 
-61.2997 -4.05712 -4.78326 56.2353 -4.05712 -11.6042 58.801 -4.05712 -10.004 
-57.8957 3.44917 -11.6042 58.0268 3.44917 -11.6042 58.801 3.44917 -11.1687 
-55.5705 10.9555 -11.6042 -53.7934 14.5912 -11.6042 55.5002 10.9555 -11.6042 
58.801 10.9555 -9.46103 -51.3015 18.4618 -11.6042 -53.7934 18.4618 -6.20954 
-46.2871 23.5919 -11.6042 36.2821 24.7811 -11.6042 43.7884 23.4799 -11.6042 
52.593 18.4618 -11.6042 51.2947 19.6585 -11.6042 58.801 18.4618 -5.26707 
-44.0217 25.9681 -11.6042 -46.2871 25.9681 -8.55835 -38.7808 31.4581 -11.6042 
21.2696 30.656 -11.6042 32.9521 25.9681 -11.6042 28.7759 27.0689 -11.6042 
36.2821 25.9681 -10.7615 43.7884 25.9681 -9.62975 51.2947 25.9681 -4.35661 
-36.8059 33.4744 -11.6042 -38.7808 33.4744 -9.03091 -31.2745 37.8173 -11.6042 
18.7079 33.4744 -11.6042 13.7633 37.099 -11.6042 21.2696 33.4744 -8.92006 
-24.1879 40.9806 -11.6042 -31.2745 40.9806 -4.4949 -23.7682 41.1642 -11.6042 
-16.2619 43.0059 -11.6042 -8.75562 42.825 -11.6042 -1.24933 42.3543 -11.6042 
6.72525 40.9806 -11.6042 6.25697 41.1804 -11.6042 -38.7808 -34.8826 -4.09794 
-31.2745 -37.7217 -4.09794 -23.7682 -39.4243 -4.09794 -16.2619 -40.3297 -4.09794 
-8.75562 -40.135 -4.09794 -1.24933 -40.271 -4.09794 6.25697 -40.5436 -4.09794 
13.7633 -39.8655 -4.09794 21.2696 -37.5902 -4.09794 28.7759 -34.8507 -4.09794 
-40.1365 -34.0823 -4.09794 -46.2871 -30.1878 -4.09794 -38.7808 -34.0823 2.01965 
30.7921 -34.0823 -4.09794 36.2821 -31.8287 -4.09794 36.2821 -34.0823 0.95157 
43.7884 -28.335 -4.09794 -50.537 -26.576 -4.09794 -53.7934 -23.1014 -4.09794 
46.5694 -26.576 -4.09794 51.2947 -22.9821 -4.09794 -56.7139 -19.0697 -4.09794 
55.5646 -19.0697 -4.09794 58.801 -13.9479 -4.09794 -60.834 -11.5634 -4.09794 
-61.2997 -6.45677 -4.09794 59.8097 -11.5634 -4.09794 -61.4912 -4.05712 -4.09794 
-61.2997 -1.01199 -4.09794 -61.2997 -4.05712 -3.2158 62.8781 -4.05712 -4.09794 
-61.0095 3.44917 -4.09794 63.4255 3.44917 -4.09794 -58.8283 10.9555 -4.09794 
62.4437 10.9555 -4.09794 -54.4206 18.4618 -4.09794 -53.7934 19.3882 -4.09794 
-53.7934 18.4618 -2.13049 59.5754 18.4618 -4.09794 58.801 19.4056 -4.09794 
-48.7589 25.9681 -4.09794 -46.2871 28.9706 -4.09794 -46.2871 25.9681 1.74966 
28.7759 32.9974 -4.09794 36.2821 30.8991 -4.09794 43.7884 29.1801 -4.09794 
51.5182 25.9681 -4.09794 51.2947 26.1255 -4.09794 -41.9768 33.4744 -4.09794 
-38.7808 36.1345 -4.09794 -38.7808 33.4744 1.33406 13.7633 39.6857 -4.09794 
27.6313 33.4744 -4.09794 21.2696 35.8675 -4.09794 28.7759 33.4744 -1.03751 
-31.5116 40.9806 -4.09794 -31.2745 41.116 -4.09794 -31.2745 40.9806 -3.79818 
-23.7682 43.6015 -4.09794 -23.7682 40.9806 1.39903 -16.2619 44.4113 -4.09794 
-8.75562 44.2283 -4.09794 -8.75562 40.9806 2.75263 -1.24933 43.6732 -4.09794 
-1.24933 40.9806 1.70391 10.1468 40.9806 -4.09794 6.25697 42.4493 -4.09794 
6.25697 40.9806 -0.273362 -31.2745 -37.2189 3.40835 -23.7682 -39.2058 3.40835 
-16.2619 -40.2853 3.40835 -8.75562 -40.6421 3.40835 -1.24933 -41.0668 3.40835 
6.25697 -41.5456 3.40835 13.7633 -41.416 3.40835 21.2696 -40.2021 3.40835 
28.7759 -37.9373 3.40835 36.2821 -34.9479 3.40835 -46.2871 -28.9391 3.40835 
-38.4032 -34.0823 3.40835 -38.7808 -33.8803 3.40835 -31.2745 -34.0823 8.95716 
38.1922 -34.0823 3.40835 36.2821 -34.0823 7.68656 43.7884 -31.3145 3.40835 
-48.8374 -26.576 3.40835 -53.7934 -20.9406 3.40835 -46.2871 -26.576 6.65441 
50.4343 -26.576 3.40835 51.2947 -25.7963 3.40835 -55.141 -19.0697 3.40835 
-53.7934 -19.0697 5.31504 57.1412 -19.0697 3.40835 58.801 -15.6379 3.40835 
-58.6273 -11.5634 3.40835 -53.7934 -11.5634 10.0851 60.4281 -11.5634 3.40835 
58.801 -11.5634 6.62804 -59.4939 -4.05712 3.40835 62.6724 -4.05712 3.40835 
58.801 -4.05712 9.63413 -58.9807 3.44917 3.40835 -53.7934 3.44917 9.74128 
63.2358 3.44917 3.40835 58.801 3.44917 10.2956 -56.5156 10.9555 3.40835 
-53.7934 15.4873 3.40835 -53.7934 10.9555 6.98924 62.3188 10.9555 3.40835 
58.801 10.9555 8.89747 -51.5542 18.4618 3.40835 -46.2871 24.9926 3.40835 
-46.2871 18.4618 8.77744 60.0924 18.4618 3.40835 58.801 20.1722 3.40835 
58.801 18.4618 5.44775 -45.2913 25.9681 3.40835 -38.7808 32.0756 3.40835 
-38.7808 25.9681 7.83458 -31.2745 25.9681 10.6911 36.2821 32.2249 3.40835 
43.7884 30.3791 3.40835 52.525 25.9681 3.40835 51.2947 26.9153 3.40835 
51.2947 25.9681 5.39804 -37.3726 33.4744 3.40835 -31.2745 37.5014 3.40835 
-31.2745 33.4744 7.30445 -23.7682 39.6079 3.40835 -23.7682 33.4744 8.27122 
-16.2619 33.4744 9.19677 -8.75562 40.55 3.40835 -8.75562 33.4744 9.60364 
-1.24933 40.0767 3.40835 -1.24933 33.4744 10.3154 6.25697 39.4663 3.40835 
6.25697 33.4744 10.486 13.7633 37.7075 3.40835 13.7633 33.4744 9.38557 
21.2696 35.5243 3.40835 21.2696 33.4744 7.33346 30.9929 33.4744 3.40835 
28.7759 34.089 3.40835 28.7759 33.4744 5.08951 -17.8903 40.9806 3.40835 
-12.8315 40.9806 3.40835 -16.2619 41.2786 3.40835 -16.2619 40.9806 3.74263 
-23.7682 -35.167 10.9146 -16.2619 -36.4724 10.9146 -8.75562 -37.1158 10.9146 
-1.24933 -37.6401 10.9146 6.25697 -38.0918 10.9146 13.7633 -37.9756 10.9146 
21.2696 -37.5607 10.9146 28.7759 -36.0837 10.9146 -38.7808 -28.2661 10.9146 
-27.0489 -34.0823 10.9146 -31.2745 -32.3534 10.9146 -23.7682 -34.0823 11.9525 
-16.2619 -34.0823 13.2835 -8.75562 -34.0823 13.5874 -1.24933 -34.0823 14.0033 
6.25697 -34.0823 14.2891 13.7633 -34.0823 14.8124 21.2696 -34.0823 14.4942 
34.3905 -34.0823 10.9146 28.7759 -34.0823 13.2112 36.2821 -33.2479 10.9146 
43.7884 -29.1077 10.9146 -41.1393 -26.576 10.9146 -46.2871 -21.3893 10.9146 
-38.7808 -26.576 12.2434 -31.2745 -26.576 14.9726 -23.7682 -26.576 16.4078 
-16.2619 -26.576 17.1742 -8.75562 -26.576 16.4978 -1.24933 -26.576 16.6247 
6.25697 -26.576 16.8652 13.7633 -26.576 17.0263 21.2696 -26.576 17.9157 
[...]
POINT_DATA 536
SCALARS ImageScalars float
LOOKUP_TABLE default
0 0 0 0 0 0 0 0 0 
0 0 0 0 0 0 0 0 0 
0 0 0 0 0 0 0 0 0 
0 0 0 0 0 0 0 0 0 
0 0 0 0 0 0 0 0 0 
0 0 0 0 0 0 0 0 0 
0 0 0 0 0 0 0 0 0 
0 0 0 0 0 0 0 0 0 
0 0 0 0 0 0 0 0 0 
0 0 0 0 0 0 0 0 0 
0 0 0 0 0 0 0 0 0 
0 0 0 0 0 0 0 0 0 
0 0 0 0 0 0 0 0 0 
0 0 0 0 0 0 0 0 0 
0 0 0 0 0 0 0 0 0 
0 0 0 0 0 0 0 0 0 
0 0 0 0 0 0 0 0 0 
0 0 0 0 0 0 0 0 0 
0 0 0 0 0 0 0 0 0 
0 0 0 0 0 0 0 0 0 
0 0 0 0 0 0 0 0 0 
0 0 0 0 0 0 0 0 0 
0 0 0 0 0 0 0 0 0 
0 0 0 0 0 0 0 0 0 
0 0 0 0 0 0 0 0 0 
0 0 0 0 0 0 0 0 0 
0 0 0 0 0 0 0 0 0 
0 0 0 0 0 0 0 0 0 
0 0 0 0 0 0 0 0 0 
0 0 0 0 0 0 0 0 0 
0 0 0 0 0 0 0 0 0 
0 0 0 0 0 0 0 0 0 
0 0 0 0 0 0 0 0 0 
0 0 0 0 0 0 0 0 0 
0 0 0 0 0 0 0 0 0 
0 0 0 0 0 0 0 0 0 
0 0 0 0 0 0 0 0 0 
0 0 0 0 0 0 0 0 0 
0 0 0 0 0 0 0 0 0 
0 0 0 0 0 0 0 0 0 
0 0 0 0 0 0 0 0 0 
0 0 0 0 0 0 0 0 0 
0 0 0 0 0 0 0 0 0 
0 0 0 0 0 0 0 0 0 
0 0 0 0 0 0 0 0 0 
0 0 0 0 0 0 0 0 0 
0 0 0 0 0 0 0 0 0 
0 0 0 0 0 0 0 0 0 
0 0 0 0 0 0 0 0 0 
0 0 0 0 0 0 0 0 0 
0 0 0 0 0 0 0 0 0 
0 0 0 0 0 0 0 0 0 
0 0 0 0 0 0 0 0 0 
0 0 0 0 0 0 0 0 0 
0 0 0 0 0 0 0 0 0 
0 0 0 0 0 0 0 0 0 
0 0 0 0 0 0 0 0 0 
0 0 0 0 0 0 0 0 0 
0 0 0 0 0 0 0 0 0 
0 0 0 0 0 
NORMALS Normals float
0.0516729 0.590122 0.805659 -0.0674923 0.551515 0.83143 0.248595 0.433368 0.866252 
0.0996364 0.364794 0.925742 -0.0158117 0.278861 0.960201 -0.0747195 0.234119 0.969332 
-0.0746396 0.226013 0.971261 -0.0493187 0.202 0.978143 -0.0505212 0.183182 0.98178 
-0.0994266 0.212453 0.9721 -0.127351 0.314248 0.94076 0.31667 0.344247 0.883863 
0.121157 0.261977 0.957439 0.00577372 0.196536 0.98048 -0.0682296 0.0945045 0.993184 
-0.121045 0.0275975 0.992263 -0.0925256 0.129534 0.987249 -0.0793332 0.178587 0.980721 
-0.021093 0.109708 0.99374 -0.011156 0.0693462 0.99753 -0.0315882 0.12252 0.991963 
-0.07239 0.232136 0.969986 -0.153329 0.349057 0.924473 0.547387 0.252492 0.797882 
0.210596 0.212564 0.954183 0.0902765 0.116949 0.989026 -0.0726572 0.102154 0.992112 
-0.193345 -0.00170657 0.981129 -0.023697 -0.0380086 0.998996 0.0990288 0.155291 0.982893 
-0.0768607 0.0610582 0.99517 -0.175103 0.257919 0.950167 -0.0902273 -0.0519881 0.994563 
0.0298357 -0.00514993 0.999542 0.0547411 0.0970391 0.993774 -0.0344876 0.244078 0.969142 
-0.200413 0.235988 0.950865 0.517913 0.079934 0.851691 0.15325 0.0760126 0.98526 
0.00395279 0.0561579 0.998414 -0.120055 6.05007e-05 0.992767 -0.213209 0.0176752 0.976847 
-0.00522459 0.0137835 0.999891 0.0162233 0.0952229 0.995324 0.0602445 -0.156196 0.985887 
-0.053154 0.202788 0.977779 -0.274437 -0.0998722 0.956405 0.129821 0.0101984 0.991485 
0.176913 0.0822312 0.980785 0.00286464 0.0698862 0.997551 -0.151556 0.103472 0.983018 
-0.320168 0.18346 0.929427 0.53925 -0.122927 0.833125 0.166415 -0.119952 0.978733 
0.0156149 -0.0720958 0.997275 -0.110859 -0.00896468 0.993796 -0.184152 -0.0204255 0.982685 
0.0322564 0.00194373 0.999478 0.0112792 -0.097537 0.995168 0.0322366 0.162757 0.986139 
-0.041255 -0.175304 0.98365 -0.258381 0.161856 0.952387 0.162582 0.0832686 0.983175 
0.122713 0.0448554 0.991428 -0.0125071 0.0259913 0.999584 -0.0989452 -0.000171043 0.995093 
-0.32085 -0.0232071 0.946846 0.64949 -0.310661 0.694012 0.228746 -0.225191 0.947082 
0.10217 -0.133862 0.985719 -0.0732561 -0.109525 0.991281 -0.195786 -0.00990636 0.980597 
-0.053637 0.0362424 0.997903 0.0993315 -0.134733 0.985891 -0.0158563 0.0434245 0.998931 
-0.122061 -0.125304 0.984581 -0.0621492 0.142062 0.987905 0.0652707 0.0723811 0.995239 
0.125628 -0.0553466 0.990532 -0.0410468 -0.0751372 0.996328 -0.199746 -0.0856104 0.976101 
-0.335795 -0.135434 0.932148 0.372312 -0.391103 0.841678 0.15399 -0.250855 0.955698 
0.0284831 -0.124898 0.991761 -0.0394518 -0.0120361 0.999149 -0.0691769 0.114088 0.991059 
-0.0172095 0.0465192 0.998769 0.0189453 0.021693 0.999585 -0.0086794 0.0684521 0.997617 
-0.0602778 0.0857956 0.994488 -0.0510436 -0.072077 0.996092 -0.0289771 -0.200705 0.979223 
-0.0552269 -0.338678 0.93928 -0.176853 -0.30733 0.935025 -0.395824 -0.405529 0.823935 
0.330327 -0.32433 0.886394 0.15103 -0.168003 0.974148 0.0438532 -0.073005 0.996367 
0.0108273 -0.005366 0.999927 -0.00552885 0.0239431 0.999698 0.0141552 0.0267437 0.999542 
-0.0474564 -0.00619091 0.998854 -0.203716 -0.0949638 0.974414 -0.231541 -0.302686 0.924538 
-0.172695 -0.530357 0.829999 0.283892 -0.395332 0.873566 0.136528 -0.233274 0.962779 
0.0268293 -0.225197 0.973944 0.0125811 -0.206005 0.97847 -0.00969261 -0.233729 0.972254 
-0.141639 -0.292858 0.945607 -0.360446 -0.445955 0.81927 0.322859 -0.741545 0.588109 
0.0753498 -0.670897 0.737713 -0.0197025 -0.678603 0.734241 -0.102412 -0.748655 0.655002 
-0.291402 -0.800618 0.523541 0.05803 0.653376 0.754806 -0.0663333 0.568336 0.820118 
0.303254 0.634911 0.710581 0.424366 0.869421 0.253024 0.126657 0.643215 0.755137 
0.17056 0.626411 0.760604 0.202582 0.71059 0.673812 -0.0550198 0.547265 0.835149 
-0.0475826 0.526884 0.848604 -0.0454665 0.550594 0.833534 -0.0298277 0.460409 0.887206 
-0.0237739 0.528624 0.848523 -0.0257401 0.423888 0.905349 -0.0217903 0.50712 0.8616 
-0.131955 0.390623 0.911044 -0.153905 0.51054 0.845968 -0.144149 0.354113 0.924027 
-0.26967 0.659074 0.702068 -0.303895 0.757065 0.57836 0.447033 0.556951 0.699977 
0.468897 0.551361 0.690027 0.535793 0.636127 0.555219 -0.154341 0.360466 0.919915 
-0.161658 0.371675 0.91418 -0.187232 0.41361 0.890994 -0.183668 0.410693 0.893083 
-0.263722 0.561861 0.784069 -0.396695 0.691424 0.603792 0.650612 0.439862 0.619052 
0.652611 0.437098 0.618906 0.656224 0.442212 0.611407 -0.22253 0.417268 0.881117 
-0.243926 0.414583 0.87671 -0.256597 0.448988 0.855902 -0.507607 0.547185 0.665525 
0.692172 0.259383 0.673512 -0.415339 0.306293 0.85655 -0.420531 0.299288 0.856493 
-0.434383 0.314009 0.844221 -0.800617 0.41446 0.432707 0.772269 0.057945 0.632647 
0.996996 0.0119664 0.0765262 -0.50562 0.210525 0.836677 -0.659795 0.234712 0.71385 
0.767391 -0.150835 0.623185 -0.552229 -0.018681 0.833483 -0.596439 -0.0194465 0.802423 
0.746273 -0.3155 0.58612 0.715824 -0.385891 0.581966 -0.479816 -0.181768 0.858334 
-0.68462 -0.250587 0.684471 0.616147 -0.476798 0.626919 0.826302 -0.545079 0.141821 
0.548708 -0.502425 0.668198 -0.127674 -0.562207 0.817082 -0.224063 -0.569701 0.790719 
-0.459076 -0.422683 0.781402 -0.419337 -0.44641 0.79049 -0.73591 -0.553807 0.389532 
0.546051 -0.472276 0.691942 0.711282 -0.591028 0.380479 0.494213 -0.53859 0.682404 
-0.391795 -0.4815 0.783999 -0.154148 -0.575327 0.803267 -0.195771 -0.577272 0.792736 
-0.140251 -0.627599 0.7658 -0.26545 -0.722282 0.638628 -0.520136 -0.780085 0.347745 
0.482815 -0.564425 0.669563 0.598848 -0.690042 0.406477 0.370412 -0.651176 0.662393 
-0.459079 -0.545627 0.701097 -0.423606 -0.654763 0.625974 -0.470071 -0.71529 0.517101 
0.333244 -0.749813 0.571602 0.423055 -0.905819 -0.0227452 0.327593 -0.751801 0.572256 
0.0889423 -0.812286 0.576438 -0.0448992 -0.821937 0.567806 -0.113724 -0.839005 0.532107 
-0.301828 -0.805895 0.509346 -0.290562 -0.81176 0.506576 0.446506 0.888747 0.103733 
0.285877 0.940093 0.18574 0.162751 0.965686 0.202391 0.0533225 0.963193 0.263468 
-0.00411339 0.946236 0.323451 0.0252002 0.934711 0.354514 -0.0228543 0.927752 0.372496 
-0.172417 0.894905 0.411604 -0.280372 0.814861 0.50734 -0.311677 0.786934 0.532534 
0.473237 0.875612 0.0966981 0.593874 0.79565 0.119393 0.472203 0.851039 -0.22969 
-0.319651 0.783728 0.532535 -0.339779 0.757356 0.55764 -0.390406 0.897528 0.205003 
-0.427585 0.742302 0.515906 0.676377 0.727581 0.114628 0.76683 0.637507 0.0745498 
-0.481372 0.723032 0.495485 -0.579276 0.66939 0.465142 0.844847 0.530582 0.0686787 
-0.688879 0.586073 0.426573 -0.809077 0.46038 0.365301 0.954758 0.293467 0.0481074 
0.994663 0.0973561 0.0341729 -0.845325 0.405849 0.347437 0.999487 0.00887387 0.0307843 
0.997791 -0.0621132 0.0235761 0.99973 0.00967167 -0.0211218 -0.931646 0.2252 0.285168 
0.985476 -0.168992 0.0167078 -0.962044 -0.0267407 0.271582 0.921273 -0.388006 0.0265947 
-0.928615 -0.246843 0.277023 0.836304 -0.548205 -0.00819161 0.828488 -0.559922 -0.00975642 
0.822286 -0.555153 -0.125105 -0.763614 -0.552773 0.333669 -0.734216 -0.589185 0.337324 
0.772879 -0.633938 0.0279394 0.750354 -0.661021 0.00438399 0.674971 -0.621568 -0.397576 
-0.310195 -0.890769 0.33213 -0.229514 -0.910508 0.343945 -0.309098 -0.887397 0.34203 
-0.525333 -0.783047 0.33296 -0.519066 -0.787556 0.332154 0.675958 -0.736774 -0.0156539 
0.622568 -0.782513 -0.00911606 0.604386 -0.687069 -0.403304 -0.42661 -0.904429 0.0033925 
-0.324255 -0.896033 0.303288 -0.413575 -0.896912 0.15654 -0.281254 -0.948043 0.148697 
0.427026 -0.902831 -0.0504508 0.420406 -0.905998 -0.0492638 0.421036 -0.904289 -0.0706437 
0.202397 -0.976808 -0.0698724 0.228807 -0.829774 -0.509041 0.0446628 -0.992485 -0.11392 
-0.0442992 -0.990387 -0.131035 -0.0629841 -0.82694 -0.558752 -0.117577 -0.982993 -0.14107 
-0.0801217 -0.887252 -0.454273 -0.340256 -0.938794 -0.0537753 -0.246694 -0.963633 -0.102729 
-0.197433 -0.935858 -0.291874 0.316421 0.910193 -0.267257 0.196065 0.955931 -0.218526 
0.0935068 0.975581 -0.198741 0.0512872 0.987487 -0.149127 0.0594418 0.990148 -0.126783 
0.0231498 0.993326 -0.112994 -0.0863521 0.992787 -0.0831701 -0.228452 0.973527 -0.00739933 
-0.321897 0.945462 0.0498413 -0.392154 0.917374 0.0681241 0.606652 0.724595 -0.327008 
0.462996 0.83345 -0.301655 0.470509 0.828104 -0.304739 0.32298 0.768047 -0.552981 
-0.422843 0.903516 0.0697267 -0.395099 0.89972 -0.185474 -0.524131 0.849684 0.0576609 
0.650289 0.675706 -0.347197 0.742223 0.552179 -0.379742 0.59601 0.627166 -0.501433 
-0.671012 0.741412 -0.0072074 -0.697683 0.716276 -0.0136813 0.777204 0.497644 -0.385103 
0.731216 0.493508 -0.470928 -0.843979 0.529846 -0.0834481 -0.88269 0.447295 -0.144171 
0.872391 0.247272 -0.421653 0.635286 0.227468 -0.738018 -0.917426 0.347955 -0.193019 
-0.866324 0.28922 -0.407227 0.88793 0.0211921 -0.45949 -0.940513 0.175857 -0.290707 
-0.73681 0.121623 -0.665071 0.868754 -0.168187 -0.465811 0.61757 -0.162169 -0.769616 
-0.954049 -0.0200767 -0.298979 -0.685629 -0.0280323 -0.727411 0.791093 -0.402686 -0.460451 
0.735179 -0.490954 -0.467414 0.66959 -0.396059 -0.628321 -0.931505 -0.216929 -0.291958 
-0.739212 -0.210028 -0.639886 0.699109 -0.522342 -0.488267 0.622298 -0.582141 -0.523314 
0.510404 -0.439898 -0.738903 -0.841242 -0.474069 -0.259943 -0.794727 -0.556096 -0.243241 
-0.79265 -0.47142 -0.386612 0.603884 -0.58752 -0.538651 0.547832 -0.610372 -0.572125 
0.411258 -0.498477 -0.763143 0.2289 -0.389051 -0.892325 -0.219999 -0.973751 -0.0583955 
-0.352674 -0.932397 -0.0791016 -0.578564 -0.799331 -0.162276 -0.54635 -0.823781 -0.151284 
-0.574817 -0.76781 -0.282937 0.523394 -0.631004 -0.57262 0.3439 -0.703694 -0.621729 
0.288328 -0.567717 -0.77108 0.20624 -0.710201 -0.673112 0.111398 -0.536792 -0.836328 
0.0747639 -0.503022 -0.861034 -0.0604245 -0.796164 -0.602056 0.0587949 -0.561247 -0.825558 
-0.056497 -0.832714 -0.550814 0.0470946 -0.622823 -0.780944 -0.13458 -0.859688 -0.492772 
-0.0372464 -0.646993 -0.761586 -0.23825 -0.884402 -0.401335 -0.124331 -0.715149 -0.687826 
-0.222365 -0.941563 -0.253008 -0.14395 -0.866936 -0.47718 -0.220062 -0.971223 -0.0911019 
-0.22304 -0.968981 -0.106434 -0.200513 -0.956575 -0.211564 0.0839156 -0.785153 -0.61359 
-0.00659399 -0.801051 -0.598559 0.0402183 -0.801641 -0.596451 0.0450862 -0.787793 -0.614288 
0.199873 0.722418 -0.661939 0.104823 0.749517 -0.653634 0.0635144 0.742419 -0.666919 
0.0529218 0.748589 -0.660919 0.0185808 0.749645 -0.661579 -0.0318733 0.773392 -0.633126 
-0.119228 0.81852 -0.56197 -0.246451 0.832075 -0.496903 0.404764 0.577963 -0.708608 
0.247853 0.705095 -0.664387 0.307804 0.665245 -0.680224 0.193811 0.676901 -0.7101 
0.0921103 0.630237 -0.77092 0.0425416 0.569942 -0.820583 0.0435893 0.538843 -0.841278 
0.0450393 0.52107 -0.852325 0.0144711 0.546759 -0.837165 -0.0875396 0.591798 -0.801319 
-0.342562 0.833203 -0.434078 -0.207054 0.731057 -0.650142 -0.370643 0.825921 -0.424827 
-0.532888 0.717246 -0.448987 0.447368 0.535468 -0.716335 0.527079 0.419047 -0.739316 
0.394419 0.5139 -0.761801 0.246552 0.408323 -0.878911 0.12918 0.32789 -0.935842 
0.00480934 0.224418 -0.974481 -0.0320584 0.202106 -0.978839 0.0242012 0.167516 -0.985572 
0.0270919 0.165179 -0.985891 0.0619457 0.147447 -0.987128 0.0366758 0.267177 -0.962949 
-0.0669242 0.349005 -0.934728 -0.169656 0.437595 -0.883022 -0.590168 0.654272 -0.472896 
-0.505305 0.57604 -0.64253 -0.659864 0.504834 -0.556527 0.550722 0.376593 -0.744904 
0.503582 0.346068 -0.791607 0.291547 0.273511 -0.91662 0.149069 0.174022 -0.973393 
0.0241385 0.110177 -0.993619 -0.0527535 -0.0121264 -0.998534 -0.0475628 -0.00169511 -0.998867 
0.0013695 0.0750475 -0.997179 0.0554321 0.0550887 -0.996942 0.121802 0.0560498 -0.990971 
-0.336107 0.152413 -0.92941 -0.732428 0.379567 -0.565224 -0.594728 0.341869 -0.727615 
0.579357 0.215183 -0.786156 0.63071 -0.0123322 -0.77592 0.401863 0.118198 -0.908039 
0.242439 0.104294 -0.964545 0.0780513 0.0267731 -0.99659 -0.0567964 -0.076119 -0.99548 
-0.111504 -0.096139 -0.989103 0.0480217 0.0368034 -0.998168 0.0927448 0.175971 -0.980017 
-0.000514079 0.189082 -0.981961 0.0991758 0.115784 -0.988311 -0.326487 0.0532802 -0.943699 
-0.682882 0.14364 -0.716268 -0.534453 0.0840757 -0.841006 0.631404 -0.0226008 -0.775125 
0.629839 -0.0262999 -0.77628 0.63033 -0.0226502 -0.775997 0.383066 -0.0277702 -0.923303 
0.208805 -0.0467675 -0.976838 -0.0354201 -0.0729572 -0.996706 -0.0974323 -0.110545 -0.989084 
0.0567794 -0.0652503 -0.996252 0.221063 0.145501 -0.964345 -0.272806 -0.00116002 -0.962068 
-0.656193 0.0954656 -0.74853 -0.455558 0.0454125 -0.889047 0.538227 -0.170493 -0.825375 
0.378433 -0.166137 -0.910597 0.206342 -0.179394 -0.961894 0.0222603 -0.132384 -0.990948 
-0.0499705 -0.0461471 -0.997684 0.123513 0.0113942 -0.992278 0.0902349 -0.0471258 -0.994805 
-0.224351 -0.046863 -0.973381 -0.64152 -0.0284544 -0.766578 -0.433558 -0.0309359 -0.900595 
0.4273 -0.290854 -0.856048 0.413609 -0.314571 -0.854384 0.389963 -0.274383 -0.879001 
0.235845 -0.25592 -0.937487 0.109899 -0.194669 -0.974693 0.0487959 -0.126738 -0.990735 
0.101498 -0.0729168 -0.99216 0.142458 -0.173463 -0.974483 0.0634169 -0.00881613 -0.997948 
-0.138882 -0.0985454 -0.985394 -0.244829 -0.1009 -0.964302 -0.610649 -0.188854 -0.769053 
-0.450451 -0.137801 -0.882102 0.34035 -0.388695 -0.8562 0.293384 -0.396635 -0.869831 
0.269954 -0.368296 -0.889653 0.222346 -0.38136 -0.897289 0.156832 -0.289319 -0.944298 
0.0752063 -0.249961 -0.965331 0.0845541 -0.223896 -0.970938 0.142629 -0.245727 -0.958788 
0.0238377 -0.228851 -0.97317 -0.0572281 -0.225094 -0.972655 0.0739299 -0.249875 -0.965452 
0.13242 -0.265795 -0.954892 -0.0159222 -0.236758 -0.971438 -0.141485 -0.235945 -0.961412 
-0.27719 -0.200225 -0.939721 -0.596164 -0.351977 -0.721596 -0.577672 -0.423684 -0.697701 
-0.561132 -0.346352 -0.751778 0.209884 -0.385679 -0.898443 0.128581 -0.414327 -0.900999 
0.127573 -0.371942 -0.919448 0.0909941 -0.427871 -0.899248 0.10196 -0.34696 -0.932321 
0.0843119 -0.496915 -0.863694 0.123927 -0.368312 -0.921406 0.055465 -0.59421 -0.802395 
0.0731155 -0.393172 -0.916553 -0.0335461 -0.620171 -0.783749 -0.0312168 -0.32779 -0.944235 
-0.0871182 -0.61359 -0.784804 -0.0181479 -0.370881 -0.928503 -0.049328 -0.689803 -0.722315 
0.0392558 -0.486717 -0.872677 -0.0697494 -0.75929 -0.647003 -0.0152064 -0.555661 -0.83127 
-0.154414 -0.799079 -0.581058 -0.0960931 -0.573387 -0.81363 -0.466139 -0.664355 -0.584248 
-0.363518 -0.757446 -0.542338 -0.358841 -0.645004 -0.674688 0.07456 0.172012 -0.982269 
-0.0353814 0.233622 -0.971684 -0.144731 0.201534 -0.96873 0.113216 0.0749132 -0.990742 
0.107428 0.0816715 -0.990853 -0.0112033 0.145643 -0.989274 -0.170482 0.164884 -0.971468 
-0.147309 0.171434 -0.97412 0.11469 0.0966955 -0.988684 0.000670453 0.17536 -0.984504 
0.112709 0.0810271 -0.990319 0.0523283 0.148916 -0.987464 0.132735 0.0261143 -0.990807 
0.0411959 0.0314924 -0.998655 -0.259613 0.0516167 -0.964332 -0.154717 0.0471753 -0.986832 
0.194675 0.0668898 -0.978584 0.111371 0.0189454 -0.993598 0.121791 -0.0544127 -0.991063 
0.137898 -0.0551504 -0.98891 0.00597308 0.141862 -0.989868 -0.0325526 0.202744 -0.978691 
0.0190662 0.0211732 -0.999594 0.00847057 -0.0268391 -0.999604 -0.213394 -0.031183 -0.976468 
-0.137247 -0.0700017 -0.98806 0.0844416 -0.0137517 -0.996334 0.081698 -0.0213987 -0.996427 
0.0911723 -0.0439421 -0.994865 0.080735 -0.0166474 -0.996597 0.16352 -0.07269 -0.983858 
0.249522 -0.0792074 -0.965124 -0.0381225 -0.0613162 -0.99739 -0.0904851 -0.0262443 -0.995552 
-0.049065 -0.0429175 -0.997873 -0.154029 -0.0602888 -0.986225 -0.138595 -0.0975907 -0.985529 
-0.129424 -0.0656077 -0.989417 0.0561924 -0.0417067 -0.997548 0.00302679 -0.257457 -0.966285 
0.00646834 -0.25909 -0.965832 0.0266052 -0.312834 -0.949435 0.0241759 -0.31461 -0.948913 
0.0741854 -0.177977 -0.981234 0.0386665 -0.131392 -0.990576 -0.136991 -0.0983345 -0.985679 
-0.0215561 -0.196237 -0.980319 -0.0310854 -0.0806866 -0.996255 
