# vtk DataFile Version 4.2
vtk output
ASCII
DATASET POLYDATA
POINTS 522 float
22.6121 14.4526 -22.9631 30.1028 14.4526 -23.0997 30.1028 -15.5099 -15.7102 
0.140277 -8.01929 -15.7002 7.6309 -8.01929 -15.8728 15.1215 -8.01929 -15.3294 
22.6121 -8.01929 -17.1514 30.1028 -8.01929 -18.3541 37.5934 -8.01929 -17.9778 
-29.8222 -0.528668 -16.3198 -22.3316 -0.528668 -16.3956 -14.841 -0.528668 -16.9146 
-7.35035 -0.528668 -17.5441 0.140277 -0.528668 -15.4642 7.6309 -0.528668 -16.0804 
15.1215 -0.528668 -17.2319 22.6121 -0.528668 -19.5794 30.1028 -0.528668 -20.9223 
37.5934 -0.528668 -20.8474 45.084 -0.528668 -17.9238 -37.3128 6.96196 -17.5386 
-29.8222 6.96196 -18.8766 -22.3316 6.96196 -19.6511 -14.841 6.96196 -19.5775 
-7.35035 6.96196 -19.5378 0.140277 6.96196 -19.5046 7.6309 6.96196 -18.8081 
15.1215 6.96196 -19.6969 22.6121 13.7169 -22.803 22.6121 6.96196 -21.2721 
30.1028 12.308 -22.803 30.1028 6.96196 -22.0765 37.5934 6.96196 -21.6717 
45.084 6.96196 -18.8351 -37.3128 14.4526 -18.8004 -29.8222 14.4526 -21.1835 
-22.3316 14.4526 -21.7916 -14.841 14.4526 -21.8044 -7.35035 14.4526 -21.1912 
0.140277 14.4526 -20.449 7.6309 14.4526 -20.6493 21.5859 14.4526 -22.803 
15.1215 14.4526 -21.7346 22.6121 15.9369 -22.803 32.3063 14.4526 -22.803 
30.1028 16.0162 -22.803 37.5934 14.4526 -21.9913 45.084 14.4526 -17.6041 
-37.3128 21.9432 -19.1263 -29.8222 21.9432 -21.6653 -22.3316 21.9432 -22.592 
-14.841 21.9432 -22.7157 -7.35035 21.9432 -22.0553 0.140277 21.9432 -21.3631 
7.6309 21.9432 -21.2144 15.1215 21.9432 -22.1145 22.6121 21.9432 -22.1822 
30.1028 21.9432 -21.6591 37.5934 21.9432 -19.0988 -37.3128 29.4338 -16.4619 
-29.8222 29.4338 -20.2288 -22.3316 29.4338 -21.6994 -14.841 29.4338 -22.6264 
-7.35035 29.4338 -21.7955 0.140277 29.4338 -21.1684 7.6309 29.4338 -20.7476 
15.1215 29.4338 -20.7803 22.6121 29.4338 -19.8761 30.1028 29.4338 -17.6101 
-22.3316 36.9244 -17.4579 -14.841 36.9244 -19.3424 -7.35035 36.9244 -19.2531 
0.140277 36.9244 -18.7734 7.6309 36.9244 -18.0601 15.1215 36.9244 -16.2457 
-14.841 -37.9818 -10.03 -7.35035 -37.9818 -11.0034 0.140277 -37.9818 -10.8397 
7.6309 -37.9818 -9.9227 15.1215 -37.9818 -8.41614 -29.8222 -30.4912 -9.36087 
-22.3316 -30.4912 -11.8822 -14.841 -30.4912 -13.6136 -7.35035 -30.4912 -13.859 
0.140277 -30.4912 -13.742 7.6309 -30.4912 -13.1791 15.1215 -30.4912 -12.4771 
22.6121 -30.4912 -11.4278 30.1028 -30.4912 -10.0206 -37.3128 -23.0005 -9.70691 
-29.8222 -23.0005 -12.2178 -22.3316 -23.0005 -13.5778 -14.841 -23.0005 -14.4529 
-7.35035 -23.0005 -14.4509 0.140277 -23.0005 -14.3671 7.6309 -23.0005 -14.0631 
15.1215 -23.0005 -14.0703 22.6121 -23.0005 -13.6777 30.1028 -16.6763 -15.3124 
30.1028 -23.0005 -13.0607 37.5934 -23.0005 -11.2252 -37.3128 -15.5099 -11.6443 
-29.8222 -15.5099 -13.586 -22.3316 -15.5099 -14.1351 -14.841 -15.5099 -14.3491 
-7.35035 -15.5099 -14.1241 0.140277 -9.55831 -15.3124 0.140277 -15.5099 -13.9147 
7.6309 -10.325 -15.3124 7.6309 -15.5099 -14.1398 15.1215 -8.16665 -15.3124 
15.1215 -15.5099 -14.4902 24.793 -15.5099 -15.3124 22.6121 -14.8893 -15.3124 
22.6121 -15.5099 -15.1643 33.4843 -15.5099 -15.3124 37.5934 -14.3485 -15.3124 
37.5934 -15.5099 -14.8165 45.084 -15.5099 -11.4476 -44.8035 -8.01929 -9.94794 
-37.3128 -8.01929 -13.0568 -29.8222 -4.22856 -15.3124 -29.8222 -8.01929 -14.3142 
-22.3316 -4.84217 -15.3124 -22.3316 -8.01929 -14.5802 -14.841 -5.81692 -15.3124 
-14.841 -8.01929 -14.6724 -7.01637 -8.01929 -15.3124 -7.35035 -7.96153 -15.3124 
-7.35035 -8.01929 -15.2943 44.8419 -8.01929 -15.3124 45.084 -7.75954 -15.3124 
45.084 -8.01929 -15.2007 -44.8035 -0.528668 -11.2296 -35.1831 -0.528668 -15.3124 
-37.3128 0.662085 -15.3124 -37.3128 -0.528668 -14.8913 48.4652 -0.528668 -15.3124 
52.5746 -0.528668 -9.35523 -42.1183 6.96196 -15.3124 -44.8035 6.96196 -13.6542 
49.2237 6.96196 -15.3124 52.5746 6.96196 -8.90481 -43.4566 14.4526 -15.3124 
-44.8035 14.4526 -14.3402 47.3025 14.4526 -15.3124 45.084 18.2058 -15.3124 
-43.8603 21.9432 -15.3124 -44.8035 21.9432 -14.1156 42.2645 21.9432 -15.3124 
37.5934 26.8325 -15.3124 45.084 21.9432 -9.50763 -38.598 29.4338 -15.3124 
-37.3128 30.7106 -15.3124 -29.8222 35.7732 -15.3124 22.6121 34.9991 -15.3124 
33.9887 29.4338 -15.3124 30.1028 31.6769 -15.3124 37.5934 29.4338 -9.49981 
-27.3475 36.9244 -15.3124 -29.8222 36.9244 -12.6332 -22.3316 38.7268 -15.3124 
-14.841 40.6897 -15.3124 -7.35035 41.3037 -15.3124 0.140277 41.0002 -15.3124 
7.6309 39.6994 -15.3124 17.7529 36.9244 -15.3124 15.1215 37.8098 -15.3124 
22.6121 36.9244 -11.2975 -14.841 -40.2629 -7.8218 -7.35035 -41.8076 -7.8218 
-7.35035 -45.4724 -0.713564 0.140277 -41.5465 -7.8218 7.6309 -40.0918 -7.8218 
15.1215 -38.5539 -7.8218 -29.8222 -32.6258 -7.8218 -29.8222 -37.9818 -0.439229 
-21.5482 -37.9818 -7.8218 -22.3316 -37.6055 -7.8218 -22.3316 -37.9818 -7.36483 
17.0917 -37.9818 -7.8218 22.6121 -35.8571 -7.8218 22.6121 -37.9818 -4.71044 
30.1028 -33.0856 -7.8218 -32.7243 -30.4912 -7.8218 -37.3128 -26.5197 -7.8218 
-37.3128 -30.4912 -4.14473 34.2009 -30.4912 -7.8218 37.5934 -27.6703 -7.8218 
37.5934 -30.4912 -4.38879 -40.1296 -23.0005 -7.8218 -44.8035 -23.0005 -2.61342 
42.466 -23.0005 -7.8218 45.084 -20.4292 -7.8218 45.084 -23.0005 -4.25594 
-43.8614 -15.5099 -7.8218 -44.8035 -14.0577 -7.8218 -44.8035 -15.5099 -7.10447 
48.5416 -15.5099 -7.8218 -47.1683 -8.01929 -7.8218 51.9381 -8.01929 -7.8218 
52.5746 -4.92336 -7.8218 52.5746 -8.01929 -5.71358 -48.4087 -0.528668 -7.8218 
-52.2941 -0.528668 -0.526931 53.3384 -0.528668 -7.8218 -49.6545 6.96196 -7.8218 
53.0315 6.96196 -7.8218 52.5746 8.37613 -7.8218 -49.8446 14.4526 -7.8218 
50.511 14.4526 -7.8218 -47.9249 21.9432 -7.8218 -44.8035 27.1489 -7.8218 
45.7284 21.9432 -7.8218 45.084 22.7139 -7.8218 -43.0294 29.4338 -7.8218 
-37.3128 34.6511 -7.8218 30.1028 34.7795 -7.8218 38.2773 29.4338 -7.8218 
37.5934 29.987 -7.8218 -33.169 36.9244 -7.8218 -29.8222 38.4552 -7.8218 
-22.3316 40.8326 -7.8218 -14.841 42.537 -7.8218 -7.35035 43.524 -7.8218 
0.140277 43.5256 -7.8218 7.6309 42.596 -7.8218 15.1215 40.7467 -7.8218 
25.5157 36.9244 -7.8218 22.6121 38.1772 -7.8218 -7.35035 -45.6138 -0.331175 
-29.8222 -38.0349 -0.331175 -22.3316 -41.2606 -0.331175 -8.02828 -45.4724 -0.331175 
-14.841 -43.905 -0.331175 -1.17242 -45.4724 -0.331175 -7.35035 -45.4724 0.962836 
0.140277 -45.4402 -0.331175 7.6309 -43.9903 -0.331175 15.1215 -42.0569 -0.331175 
22.6121 -40.047 -0.331175 -29.9335 -37.9818 -0.331175 -37.3128 -33.5057 -0.331175 
-29.8222 -37.9818 3.46456 28.5736 -37.9818 -0.331175 30.1028 -37.3993 -0.331175 
37.5934 -32.6826 -0.331175 -41.1103 -30.4912 -0.331175 -44.8035 -25.9203 -0.331175 
40.3271 -30.4912 -0.331175 45.084 -25.4162 -0.331175 -46.4655 -23.0005 -0.331175 
47.0052 -23.0005 -0.331175 -49.8846 -15.5099 -0.331175 51.3274 -15.5099 -0.331175 
52.5746 -12.008 -0.331175 -51.5092 -8.01929 -0.331175 -52.2941 -1.22084 -0.331175 
53.9486 -8.01929 -0.331175 52.5746 -8.01929 6.54946 -52.3718 -0.528668 -0.331175 
-52.2941 3.02375 -0.331175 -52.2941 -0.528668 1.42925 54.3992 -0.528668 -0.331175 
-52.2083 6.96196 -0.331175 53.5578 6.96196 -0.331175 52.5746 9.94355 -0.331175 
52.5746 6.96196 3.34668 -50.6107 14.4526 -0.331175 50.878 14.4526 -0.331175 
-47.143 21.9432 -0.331175 -44.8035 25.8486 -0.331175 -44.8035 21.9432 3.4568 
45.9421 21.9432 -0.331175 45.084 22.9409 -0.331175 45.084 21.9432 1.90931 
-41.778 29.4338 -0.331175 -37.3128 33.0521 -0.331175 -37.3128 29.4338 4.30192 
30.1028 34.709 -0.331175 38.2313 29.4338 -0.331175 37.5934 29.9578 -0.331175 
37.5934 29.4338 1.04109 -31.163 36.9244 -0.331175 -29.8222 37.5524 -0.331175 
-29.8222 36.9244 0.814492 -22.3316 39.9153 -0.331175 -22.3316 36.9244 5.60343 
-14.841 41.5059 -0.331175 -7.35035 42.0813 -0.331175 0.140277 42.0968 -0.331175 
7.6309 41.5253 -0.331175 15.1215 40.2268 -0.331175 15.1215 36.9244 6.95835 
25.2117 36.9244 -0.331175 22.6121 38.0141 -0.331175 22.6121 36.9244 2.55107 
-22.3316 -40.8141 7.15945 -14.841 -43.3026 7.15945 -7.35035 -44.7548 7.15945 
0.140277 -45.0148 7.15945 7.6309 -43.7595 7.15945 15.1215 -41.5264 7.15945 
22.6121 -38.9881 7.15945 -37.3128 -34.1597 7.15945 -29.6971 -37.9818 7.15945 
-29.8222 -37.9314 7.15945 -22.3316 -37.9818 13.7922 15.1215 -37.9818 13.9435 
25.3984 -37.9818 7.15945 22.6121 -37.9818 9.08971 30.1028 -36.1341 7.15945 
37.5934 -31.6679 7.15945 -42.1076 -30.4912 7.15945 -44.8035 -27.4229 7.15945 
-37.3128 -30.4912 14.6432 30.1028 -30.4912 14.1327 39.0686 -30.4912 7.15945 
37.5934 -30.4912 9.07305 45.084 -24.2373 7.15945 -47.4454 -23.0005 7.15945 
-44.8035 -23.0005 13.1162 46.0554 -23.0005 7.15945 45.084 -23.0005 8.74702 
-50.3824 -15.5099 7.15945 50.3252 -15.5099 7.15945 -51.5355 -8.01929 7.15945 
52.4484 -8.01929 7.15945 52.5746 -4.18087 7.15945 -51.9964 -0.528668 7.15945 
52.6908 -0.528668 7.15945 52.5746 0.225479 7.15945 52.5746 -0.528668 7.37027 
-50.2539 6.96196 7.15945 -44.8035 6.96196 13.6003 51.4084 6.96196 7.15945 
-47.3062 14.4526 7.15945 -44.8035 18.2468 7.15945 -44.8035 14.4526 9.68677 
-37.3128 14.4526 14.6015 48.09 14.4526 7.15945 45.084 18.8185 7.15945 
45.084 14.4526 11.2162 -42.0185 21.9432 7.15945 -37.3128 26.9172 7.15945 
-37.3128 21.9432 10.8065 -29.8222 21.9432 13.6606 42.4922 21.9432 7.15945 
37.5934 26.5963 7.15945 37.5934 21.9432 12.0566 -34.2238 29.4338 7.15945 
-29.8222 32.4659 7.15945 -29.8222 29.4338 9.76702 -22.3316 35.8082 7.15945 
-22.3316 29.4338 12.1071 -14.841 29.4338 13.7029 -7.35035 29.4338 13.5708 
0.140277 29.4338 13.4013 7.6309 29.4338 13.8753 15.1215 36.8096 7.15945 
15.1215 29.4338 13.9036 22.6121 34.8589 7.15945 22.6121 29.4338 12.8987 
33.6554 29.4338 7.15945 30.1028 31.6809 7.15945 30.1028 29.4338 9.88376 
-18.1742 36.9244 7.15945 -14.841 37.6359 7.15945 -14.841 36.9244 7.98163 
-7.35035 38.0001 7.15945 -7.35035 36.9244 8.34733 0.140277 37.8148 7.15945 
0.140277 36.9244 8.12171 14.0154 36.9244 7.15945 7.6309 37.5378 7.15945 
7.6309 36.9244 7.87639 -14.841 -39.7643 14.6501 -7.35035 -41.4188 14.6501 
0.140277 -41.8971 14.6501 7.6309 -40.4224 14.6501 -29.8222 -34.3611 14.6501 
[...]
POINT_DATA 522
SCALARS ImageScalars float
LOOKUP_TABLE default
0 0 0 0 0 0 0 0 0 
0 0 0 0 0 0 0 0 0 
0 0 0 0 0 0 0 0 0 
0 0 0 0 0 0 0 0 0 
0 0 0 0 0 0 0 0 0 
0 0 0 0 0 0 0 0 0 
0 0 0 0 0 0 0 0 0 
0 0 0 0 0 0 0 0 0 
0 0 0 0 0 0 0 0 0 
0 0 0 0 0 0 0 0 0 
0 0 0 0 0 0 0 0 0 
0 0 0 0 0 0 0 0 0 
0 0 0 0 0 0 0 0 0 
0 0 0 0 0 0 0 0 0 
0 0 0 0 0 0 0 0 0 
0 0 0 0 0 0 0 0 0 
0 0 0 0 0 0 0 0 0 
0 0 0 0 0 0 0 0 0 
0 0 0 0 0 0 0 0 0 
0 0 0 0 0 0 0 0 0 
0 0 0 0 0 0 0 0 0 
0 0 0 0 0 0 0 0 0 
0 0 0 0 0 0 0 0 0 
0 0 0 0 0 0 0 0 0 
0 0 0 0 0 0 0 0 0 
0 0 0 0 0 0 0 0 0 
0 0 0 0 0 0 0 0 0 
0 0 0 0 0 0 0 0 0 
0 0 0 0 0 0 0 0 0 
0 0 0 0 0 0 0 0 0 
0 0 0 0 0 0 0 0 0 
0 0 0 0 0 0 0 0 0 
0 0 0 0 0 0 0 0 0 
0 0 0 0 0 0 0 0 0 
0 0 0 0 0 0 0 0 0 
0 0 0 0 0 0 0 0 0 
0 0 0 0 0 0 0 0 0 
0 0 0 0 0 0 0 0 0 
0 0 0 0 0 0 0 0 0 
0 0 0 0 0 0 0 0 0 
0 0 0 0 0 0 0 0 0 
0 0 0 0 0 0 0 0 0 
0 0 0 0 0 0 0 0 0 
0 0 0 0 0 0 0 0 0 
0 0 0 0 0 0 0 0 0 
0 0 0 0 0 0 0 0 0 
0 0 0 0 0 0 0 0 0 
0 0 0 0 0 0 0 0 0 
0 0 0 0 0 0 0 0 0 
0 0 0 0 0 0 0 0 0 
0 0 0 0 0 0 0 0 0 
0 0 0 0 0 0 0 0 0 
0 0 0 0 0 0 0 0 0 
0 0 0 0 0 0 0 0 0 
0 0 0 0 0 0 0 0 0 
0 0 0 0 0 0 0 0 0 
0 0 0 0 0 0 0 0 0 
0 0 0 0 0 0 0 0 0 

NORMALS Normals float
0.0896901 0.056518 0.994365 -0.0595453 -0.0247867 0.997918 -0.0172464 0.32336 0.946119 
0.0377675 0.112328 0.992953 -0.026162 0.139085 0.989935 0.080236 0.179648 0.980453 
0.195176 0.274006 0.941715 0.0501999 0.320546 0.945902 -0.17142 0.356378 0.918482 
0.0924936 0.284332 0.954254 0.0380023 0.331089 0.942834 0.0733178 0.3166 0.945721 
-0.0767979 0.271579 0.959347 -0.102255 0.263592 0.959199 0.106501 0.183444 0.977244 
0.216069 0.280326 0.935271 0.232642 0.26105 0.936873 0.0775019 0.244983 0.966425 
-0.172799 0.23005 0.957715 -0.498135 0.202215 0.843191 0.30221 0.248691 0.920229 
0.132502 0.316817 0.939186 0.0411177 0.33471 0.941424 -0.0072939 0.310592 0.950515 
-0.00465057 0.23726 0.971435 -0.0461219 0.290177 0.955861 0.0121063 0.304938 0.952295 
0.157533 0.284701 0.945584 0.0956928 0.0716746 0.992827 0.153386 0.206353 0.96638 
-0.0356898 0.0211881 0.999138 0.0234853 0.137316 0.990249 -0.187264 0.0678726 0.979962 
-0.543229 -0.0110522 0.839512 0.400424 0.100104 0.910846 0.186645 0.172568 0.967152 
0.0408135 0.193417 0.980267 -0.0391922 0.202888 0.978417 -0.0883714 0.165222 0.982289 
-0.0348151 0.121663 0.991961 0.0813273 0.151948 0.985037 0.0985601 0.0703212 0.992643 
0.149231 0.15591 0.976433 0.0655372 0.00946669 0.997805 -0.127879 -0.0521722 0.990417 
-0.077926 -0.0787228 0.993846 -0.30203 -0.128669 0.944575 -0.657956 -0.299423 0.69097 
0.433507 -0.103494 0.895188 0.21329 -0.0482034 0.975799 0.0751861 -0.00598623 0.997152 
-0.0369097 0.0539889 0.997859 -0.0898654 0.0386774 0.995203 -0.0559423 0.0476298 0.997297 
0.0490337 0.00571947 0.998781 0.0657135 -0.0578768 0.996159 -0.0281799 -0.173577 0.984417 
-0.170478 -0.294509 0.94032 -0.477489 -0.456707 0.750615 0.566155 -0.513448 0.644857 
0.295225 -0.385835 0.874056 0.141726 -0.264213 0.953994 0.00593029 -0.177022 0.984189 
-0.0922722 -0.163065 0.982291 -0.0696012 -0.154176 0.985589 -0.0254647 -0.170539 0.985022 
-0.0511307 -0.337752 0.939845 -0.174852 -0.482903 0.858039 -0.349927 -0.656852 0.667905 
0.255229 -0.733992 0.629376 0.0914893 -0.600604 0.794295 -0.0359961 -0.542305 0.83941 
-0.0707151 -0.525074 0.848113 -0.150136 -0.58204 0.79918 -0.24203 -0.714689 0.656233 
0.196448 0.61304 0.765239 0.0433831 0.545614 0.836913 -0.059179 0.555409 0.829469 
-0.143337 0.623436 0.768624 -0.210268 0.697753 0.684783 0.383082 0.489234 0.783517 
0.2445 0.337667 0.908956 0.126452 0.243984 0.9615 0.00633247 0.203877 0.978976 
-0.0443912 0.205945 0.977556 -0.0817318 0.225242 0.970869 -0.116245 0.333219 0.935656 
-0.147313 0.436103 0.887757 -0.321334 0.557518 0.765453 0.442866 0.336297 0.831129 
0.244485 0.237673 0.940074 0.1461 0.140778 0.979202 0.059704 0.0437126 0.997259 
-0.00571569 0.0191535 0.9998 -0.0258449 0.0135278 0.999574 -0.0198174 0.0636276 0.997777 
-0.0269309 0.126308 0.991625 -0.0608913 0.235202 0.970037 -0.0310606 0.326638 0.944639 
-0.13889 0.355018 0.924485 -0.36727 0.510163 0.777719 0.371851 0.216307 0.902739 
0.148644 0.14478 0.978235 0.0491196 0.0674128 0.996515 -0.000940512 0.0145223 0.999894 
-0.0289916 0.0506438 0.998296 0.0303115 0.103928 0.994123 0.00101303 0.0812428 0.996694 
-0.00423044 0.131298 0.991334 0.0379394 0.109863 0.993222 0.0799813 0.177623 0.980843 
0.0697001 0.0800174 0.994354 0.0497486 0.251677 0.966532 0.0873222 0.225216 0.970388 
0.0777447 0.22057 0.972268 -0.107286 0.349286 0.930854 -0.212229 0.374556 0.902589 
-0.224511 0.383221 0.895956 -0.562981 0.457748 0.688128 0.574469 0.222241 0.787778 
0.269061 0.190007 0.944194 0.0962418 0.226402 0.969268 0.100474 0.17269 0.979838 
0.0295647 0.223154 0.974335 0.0235701 0.142596 0.9895 0.0576942 0.212461 0.975465 
0.0453059 0.164172 0.985391 0.0683247 0.23045 0.970682 0.0683884 0.236379 0.969251 
0.0696139 0.235836 0.969296 -0.473508 0.352939 0.806985 -0.484941 0.347245 0.802654 
-0.486403 0.352253 0.799581 0.578219 0.195755 0.79205 0.225071 0.284011 0.93203 
0.280592 0.279366 0.918271 0.282215 0.281088 0.917248 -0.656033 0.183817 0.732006 
-0.922736 0.0792272 0.377202 0.486246 0.196733 0.851388 0.621115 0.162775 0.766629 
-0.754144 -0.0735105 0.652582 -0.944471 -0.165712 0.283751 0.591213 0.0535172 0.804738 
0.666292 0.0256443 0.74525 -0.742278 -0.339827 0.57753 -0.705281 -0.450482 0.547399 
0.686558 -0.214927 0.694582 0.757338 -0.258891 0.599512 -0.652003 -0.540361 0.531886 
-0.558785 -0.651199 0.513516 -0.75811 -0.608059 0.235655 0.604351 -0.54133 0.58457 
0.573752 -0.581906 0.576363 0.389466 -0.761805 0.517658 -0.301958 -0.75042 0.587956 
-0.4731 -0.713447 0.516885 -0.39336 -0.742854 0.541698 -0.5997 -0.77375 0.204136 
0.350587 -0.794012 0.496621 0.389254 -0.856306 0.339444 0.276136 -0.820231 0.500969 
0.160463 -0.842369 0.514457 0.0223172 -0.80485 0.593059 -0.0960814 -0.764741 0.637134 
-0.191048 -0.765651 0.61423 -0.275632 -0.76028 0.588218 -0.253952 -0.758119 0.600637 
-0.34922 -0.877467 0.328782 0.225937 0.73176 0.643025 0.068683 0.749866 0.658015 
0.0950071 0.9833 0.155223 -0.0915658 0.736387 0.670335 -0.16831 0.734698 0.657184 
-0.211863 0.730198 0.649558 0.400248 0.56954 0.717932 0.425664 0.877645 0.220338 
0.331986 0.69316 0.639777 0.341258 0.68275 0.646061 0.347998 0.713736 0.607847 
-0.229822 0.721654 0.652991 -0.249747 0.679545 0.689815 -0.296466 0.847543 0.440203 
-0.345805 0.656676 0.67022 0.426011 0.52599 0.736104 0.482225 0.433346 0.761361 
0.545641 0.644695 0.535392 -0.426434 0.605127 0.672291 -0.463679 0.594145 0.657262 
-0.556018 0.712903 0.427333 0.548663 0.350546 0.759004 0.779128 0.427276 0.458688 
-0.556726 0.555292 0.617824 -0.633498 0.522647 0.570543 -0.717043 0.590665 0.370087 
0.550822 0.317234 0.771983 0.580691 0.304766 0.754928 0.598372 0.333822 0.728363 
-0.738693 0.44012 0.510517 0.693568 0.197035 0.692922 -0.862706 0.274001 0.425043 
-0.910995 0.181301 0.370429 -0.918186 0.252761 0.305035 0.738546 0.14656 0.65808 
0.981551 0.0475136 0.185203 -0.950552 0.0601566 0.304684 0.853024 0.0780037 0.516009 
-0.956597 -0.174465 0.233417 -0.948722 -0.218264 0.228666 0.933957 -0.106518 0.341143 
-0.890101 -0.412631 0.193534 0.906657 -0.390057 0.160712 0.806392 -0.572028 0.150053 
-0.772781 -0.613315 0.163264 -0.760159 -0.629462 0.161048 0.739182 -0.659315 0.137527 
0.571613 -0.815394 0.0916084 -0.471778 -0.868624 0.151387 -0.614883 -0.77745 0.132252 
-0.602741 -0.786903 0.13224 0.451292 -0.888107 0.0871895 0.375394 -0.923189 0.082467 
0.256172 -0.96467 0.0615379 0.166879 -0.985305 0.0364015 0.0692319 -0.997262 0.0259788 
-0.0615902 -0.997332 0.0391838 -0.179136 -0.980247 0.0838201 -0.279224 -0.951907 0.12612 
-0.398178 -0.905284 0.148038 -0.357945 -0.921906 0.148202 0.0957016 0.986329 0.134153 
0.425314 0.879364 0.21407 0.351891 0.9228 0.156886 0.112259 0.984599 0.134027 
0.275159 0.950061 0.147216 -0.068633 0.984873 0.159108 0.0985008 0.992518 0.0721525 
-0.10322 0.980983 0.164371 -0.213354 0.959175 0.185642 -0.250373 0.953993 0.164954 
-0.302514 0.943463 0.135512 0.427252 0.878291 0.214618 0.575482 0.765957 0.286585 
0.40753 0.913104 0.0126731 -0.391691 0.910001 0.135928 -0.418695 0.897894 0.135942 
-0.58435 0.798891 0.142504 0.662998 0.682873 0.306789 0.783619 0.525662 0.331088 
-0.641805 0.754098 0.139366 -0.760111 0.637294 0.126836 0.830755 0.445222 0.334101 
-0.804197 0.580474 0.127738 0.909266 0.295792 0.292818 -0.915565 0.393461 0.0832425 
-0.952231 0.300854 0.0523681 0.958603 0.151872 0.240862 0.982024 0.0541231 0.180828 
-0.979456 0.200131 0.024768 -0.936011 0.148743 -0.318996 0.983617 0.0446904 0.174644 
0.994512 -0.0266424 0.101177 0.997125 0.0167646 0.0738944 -0.998865 -0.0253317 -0.0403446 
0.994228 -0.10571 0.018312 -0.970945 -0.220711 -0.0924845 -0.945455 -0.309163 -0.102626 
-0.939473 -0.238694 -0.245795 0.948351 -0.295591 -0.115133 -0.887297 -0.444307 -0.123674 
0.841416 -0.471578 -0.26388 0.771499 -0.568477 -0.285698 0.735317 -0.484307 -0.474084 
-0.770274 -0.621769 -0.14171 -0.752395 -0.643151 -0.142333 -0.748358 -0.620546 -0.234269 
0.670792 -0.675775 -0.305558 0.562184 -0.757816 -0.331155 0.524423 -0.655396 -0.543542 
-0.462889 -0.871916 -0.159672 -0.615537 -0.772795 -0.154602 -0.604993 -0.781032 -0.154831 
-0.601291 -0.770639 -0.211105 0.401114 -0.864295 -0.303482 0.367632 -0.879456 -0.302331 
0.367517 -0.861001 -0.35158 0.246037 -0.928949 -0.276622 0.256534 -0.799692 -0.542847 
0.13613 -0.947895 -0.288034 0.0387102 -0.943427 -0.329312 -0.0355175 -0.939719 -0.340099 
-0.120975 -0.947251 -0.296784 -0.219143 -0.948804 -0.227482 -0.146892 -0.823524 -0.547933 
-0.377352 -0.909815 -0.172746 -0.334893 -0.92482 -0.180426 -0.315729 -0.899187 -0.302947 
0.322672 0.923226 -0.208654 0.251344 0.941518 -0.224431 0.108969 0.964514 -0.240496 
-0.063399 0.978257 -0.197468 -0.224006 0.954668 -0.196038 -0.297701 0.922969 -0.243931 
-0.329151 0.895993 -0.298087 0.544973 0.825371 -0.147536 0.373347 0.909571 -0.182464 
0.374724 0.909091 -0.18203 0.282296 0.807916 -0.517283 -0.319732 0.716229 -0.620312 
-0.358778 0.881486 -0.307018 -0.333188 0.860069 -0.386352 -0.411914 0.847214 -0.335492 
-0.566959 0.766632 -0.301385 0.673795 0.722104 -0.156734 0.789106 0.595827 -0.149338 
0.512445 0.643594 -0.568495 -0.359776 0.612707 -0.70367 -0.596326 0.743661 -0.302263 
-0.553368 0.731338 -0.398659 -0.75318 0.589409 -0.29209 0.884144 0.451089 -0.12169 
0.757135 0.413689 -0.505576 -0.775112 0.560862 -0.29092 -0.740155 0.563374 -0.367124 
0.952188 0.244295 -0.18346 -0.879338 0.366357 -0.304216 0.969725 0.0997578 -0.222893 
-0.925789 0.143169 -0.349882 -0.930542 0.039202 -0.364082 0.954301 -0.0824707 -0.287241 
-0.925373 -0.0575466 -0.374665 -0.922435 -0.0764739 -0.378505 -0.921858 -0.0580861 -0.38315 
0.865652 -0.243473 -0.437456 0.587077 -0.311456 -0.747219 -0.869948 -0.259262 -0.419492 
0.735375 -0.403601 -0.544362 0.651445 -0.464989 -0.599504 0.62275 -0.440462 -0.646665 
0.343722 -0.381497 -0.858088 -0.774645 -0.455843 -0.438328 -0.709982 -0.54008 -0.451928 
-0.652695 -0.444631 -0.613427 0.580602 -0.490043 -0.650199 0.48538 -0.575163 -0.658479 
0.440795 -0.476165 -0.760898 0.24634 -0.384017 -0.889858 -0.653119 -0.59533 -0.467993 
-0.555805 -0.681324 -0.476318 -0.486184 -0.54551 -0.682674 0.438906 -0.602567 -0.666538 
0.36664 -0.657305 -0.658426 0.353644 -0.551834 -0.755258 0.250806 -0.734851 -0.630151 
0.221936 -0.485779 -0.845437 0.0838856 -0.429718 -0.899058 -0.0176106 -0.443236 -0.896232 
0.0159167 -0.450828 -0.892469 0.0302935 -0.47669 -0.87855 -0.143843 -0.816991 -0.558422 
-0.0492218 -0.511579 -0.857825 -0.269411 -0.806242 -0.52668 -0.187615 -0.581561 -0.791573 
-0.483202 -0.728156 -0.486112 -0.41745 -0.764393 -0.491364 -0.394487 -0.688758 -0.608271 
0.17564 -0.765243 -0.619318 0.112355 -0.776578 -0.619922 0.10935 -0.750624 -0.651619 
0.0103409 -0.773421 -0.633808 0.00630439 -0.735506 -0.677489 -0.0259931 -0.76097 -0.648266 
-0.0232915 -0.73134 -0.681616 -0.132109 -0.813439 -0.566448 -0.0583027 -0.782568 -0.619829 
-0.0518179 -0.763406 -0.643836 0.222465 0.773904 -0.592944 0.121423 0.78438 -0.60828 
-0.0571625 0.803608 -0.592407 -0.250725 0.740449 -0.623596 0.346263 0.733707 -0.584616 
0.263788 0.779545 -0.568089 0.272561 0.775884 -0.568959 0.203637 0.695444 -0.689122 
0.107193 0.60048 -0.792423 -0.0578889 0.541585 -0.838651 -0.309436 0.686209 -0.658306 
-0.243392 0.599709 -0.762305 -0.309207 0.66793 -0.67695 -0.304637 0.620692 -0.722452 
0.512197 0.643404 -0.568934 0.512345 0.643225 -0.569002 0.303147 0.562092 -0.769516 
0.157291 0.426732 -0.890595 0.0934284 0.330819 -0.939058 -0.0222648 0.193733 -0.980802 
-0.074151 0.144182 -0.986769 -0.148667 0.230231 -0.961713 -0.204725 0.331877 -0.920839 
-0.343009 0.585508 -0.734524 -0.245389 0.467676 -0.849155 -0.344635 0.58092 -0.7374 
-0.448526 0.510982 -0.733295 0.680656 0.386899 -0.622107 0.711356 0.309396 -0.631068 
0.419639 0.313172 -0.851955 0.198976 0.219012 -0.955218 -0.0940842 -0.025482 -0.995238 
-0.0504923 -0.0350981 -0.998108 -0.0734706 -0.0312324 -0.996808 -0.0911002 0.113266 -0.989379 
-0.0940016 0.235528 -0.967311 -0.204771 0.344831 -0.916057 -0.483984 0.485168 -0.728266 
-0.428778 0.458637 -0.778333 -0.631223 0.321116 -0.706005 0.729723 0.16417 -0.663741 
0.676351 0.158849 -0.719247 0.330948 0.127137 -0.935045 -0.0805181 -0.12511 -0.98887 
-0.118665 -0.0618552 -0.991006 -0.0834502 0.0187779 -0.996335 0.0103255 -0.0140038 -0.999849 
0.0500819 0.0486398 -0.99756 0.00428322 0.104614 -0.994504 -0.127764 0.176949 -0.975892 
-0.324178 0.228564 -0.917969 -0.643492 0.298522 -0.704842 -0.622965 0.296118 -0.724036 
0.718714 0.0256298 -0.694833 0.627255 0.00709522 -0.778781 0.246204 -0.0473032 -0.968063 
0.010712 -0.119471 -0.99278 -0.0535848 -0.138868 -0.98886 -0.0358628 -0.156482 -0.98703 
0.0522102 -0.0474443 -0.997508 -0.00384176 0.0166524 -0.999854 -0.0443605 0.0435943 -0.998064 
0.0291543 -0.00745616 -0.999547 0.0419377 -0.00963751 -0.999074 -0.068183 0.0327022 -0.997137 
-0.285446 0.0613536 -0.956429 -0.660516 0.0854484 -0.745934 -0.579141 0.0765057 -0.81163 
0.651986 -0.173601 -0.73809 0.579883 -0.265361 -0.770272 0.582809 -0.182813 -0.791779 
0.239455 -0.210079 -0.947907 0.0336941 -0.156682 -0.987074 -0.0569038 -0.112325 -0.992041 
0.0103859 -0.0520253 -0.998592 0.0503591 -0.00534992 -0.998717 0.00648283 -0.132236 -0.991197 
-0.00963866 -0.0654385 -0.99781 -0.00144158 -0.102975 -0.994683 0.0450243 -0.0983669 -0.994131 
-0.0523271 -0.116935 -0.99176 -0.270473 -0.108018 -0.956649 -0.649232 -0.0858688 -0.755728 
-0.559516 -0.0918658 -0.823713 0.511787 -0.313817 -0.799745 0.342885 -0.380325 -0.858943 
0.307903 -0.31561 -0.897545 0.125323 -0.266955 -0.955526 0.0532148 -0.193132 -0.979729 
0.0744534 -0.111281 -0.990996 -0.0204336 -0.119559 -0.992617 -0.0627455 -0.100062 -0.993001 
-0.0201465 -0.110183 -0.993707 -0.00845815 -0.123051 -0.992364 0.023657 -0.140898 -0.989741 
-0.0868648 -0.221705 -0.971237 -0.280558 -0.243659 -0.928395 -0.573206 -0.240334 -0.783373 
-0.569573 -0.24843 -0.783498 -0.566773 -0.240088 -0.788116 0.33939 -0.380407 -0.860294 
0.219794 -0.362426 -0.905725 0.178493 -0.335493 -0.924978 0.0949458 -0.280656 -0.955101 
0.0756854 -0.250924 -0.965043 0.055878 -0.2972 -0.953179 0.0223569 -0.221235 -0.974964 
-0.0261352 -0.191728 -0.9811 -0.0309957 -0.140813 -0.989551 -0.0517322 -0.205431 -0.977303 
-0.1594 -0.271685 -0.949094 -0.433014 -0.368292 -0.822715 -0.383997 -0.40794 -0.828331 
-0.330882 -0.33529 -0.882098 0.176129 -0.345143 -0.921876 0.157024 -0.34844 -0.924085 
0.143524 -0.324871 -0.934805 0.0804506 -0.356664 -0.930762 0.0739922 -0.268648 -0.960392 
-0.00902472 -0.38576 -0.922555 0.0118954 -0.308692 -0.951088 0.024556 -0.392327 -0.919498 
0.0307809 -0.3346 -0.941858 0.0383924 -0.430922 -0.901572 0.0547602 -0.319382 -0.946043 
-0.0393607 -0.453247 -0.890515 -0.0207812 -0.280102 -0.959745 -0.142048 -0.450825 -0.881238 
-0.112176 -0.324131 -0.939338 -0.286263 -0.435396 -0.853513 -0.250371 -0.440489 -0.862139 
-0.229122 -0.404233 -0.885494 0.0826358 0.148879 -0.985397 0.00883428 0.147269 -0.989057 
0.0911486 0.144733 -0.985264 0.138382 0.0638562 -0.988318 0.0800357 0.137625 -0.987245 
-0.0666556 0.0134421 -0.997685 -0.0802218 -0.12395 -0.98904 -0.0321562 0.0610126 -0.997619 
0.151804 0.0317728 -0.9879 0.0832631 -0.0310306 -0.996044 0.120001 0.0104186 -0.992719 
-0.08009 -0.124657 -0.988962 -0.030308 -0.0875488 -0.995699 -0.0192926 -0.0592116 -0.998059 

