# vtk DataFile Version 4.2
vtk output
ASCII
DATASET POLYDATA
POINTS 544 float
-25.0492 -33.1222 -13.8538 -17.4016 -33.1222 -14.3237 -9.75414 -33.1222 -13.5725 
-2.10664 -33.1222 -13.0102 5.54086 -33.1222 -13.3043 13.1884 -33.1222 -13.6611 
20.8359 -33.1222 -13.1643 28.4834 -33.1222 -12.9642 -40.3442 -25.4747 -14.3541 
-32.6967 -25.4747 -16.0847 -25.0492 -25.4747 -16.2334 -17.4016 -25.4747 -16.8766 
-9.75414 -25.4747 -15.6012 -2.10664 -25.4747 -14.2227 5.54086 -25.4747 -14.6288 
13.1884 -25.4747 -15.6722 20.8359 -25.4747 -15.9644 28.4834 -25.4747 -16.4346 
36.1309 -25.4747 -15.9279 43.7784 -25.4747 -14.3687 -47.9917 -17.8272 -14.9029 
-40.3442 -17.8272 -16.7777 -32.6967 -17.8272 -16.9734 -25.0492 -17.8272 -17.8267 
-17.4016 -17.8272 -16.5408 -9.75414 -17.8272 -15.806 -2.10664 -17.8272 -14.1639 
5.54086 -17.8272 -14.6556 13.1884 -17.8272 -15.4895 20.8359 -17.8272 -16.7808 
28.4834 -17.8272 -18.2715 36.1309 -17.8272 -18.2445 43.7784 -17.8272 -17.8799 
51.4259 -17.8272 -15.8096 -55.6392 -10.1797 -13.7331 -47.9917 -10.1797 -17.4426 
-40.3442 -10.1797 -18.8301 -32.6967 -10.1797 -17.947 -25.0492 -10.1797 -16.7386 
-17.4016 -10.1797 -15.304 -9.75414 -10.1797 -15.9874 -2.10664 -10.1797 -15.4199 
5.54086 -10.1797 -15.2987 13.1884 -10.1797 -15.0808 20.8359 -10.1797 -16.8176 
28.4834 -10.1797 -18.579 36.1309 -10.1797 -19.768 43.7784 -10.1797 -19.2181 
51.4259 -10.1797 -17.6625 -55.6392 -2.5322 -15.1658 -47.9917 -2.5322 -17.7625 
-40.3442 -2.5322 -18.5644 -32.6967 -2.5322 -18.6477 -25.0492 -2.5322 -17.138 
-17.4016 -2.5322 -14.5863 -9.75414 -2.5322 -17.4738 -2.10664 -2.5322 -14.8429 
5.54086 -2.5322 -18.5991 13.1884 -2.5322 -17.5452 20.8359 -2.5322 -17.214 
28.4834 -2.5322 -18.8931 36.1309 -2.5322 -20.265 43.7784 -2.5322 -19.6207 
51.4259 -2.5322 -18.2392 59.0734 -2.5322 -14.2876 -55.6392 5.1153 -14.7012 
-47.9917 5.1153 -17.6525 -40.3442 5.1153 -18.6065 -32.6967 5.1153 -18.262 
-25.0492 5.1153 -17.1444 -17.4016 5.1153 -14.801 -9.75414 5.1153 -16.0161 
-2.10664 5.1153 -16.1137 5.54086 5.1153 -18.9591 13.1884 5.1153 -18.0111 
20.8359 5.1153 -17.2216 28.4834 5.1153 -18.7349 36.1309 5.1153 -19.8561 
43.7784 5.1153 -19.5386 51.4259 5.1153 -18.3127 59.0734 5.1153 -14.4436 
-47.9917 12.7628 -16.7298 -40.3442 12.7628 -18.5244 -32.6967 12.7628 -18.0748 
-25.0492 12.7628 -16.8622 -17.4016 12.7628 -15.49 -9.75414 12.7628 -15.5054 
-2.10664 12.7628 -17.3101 5.54086 12.7628 -17.9442 13.1884 12.7628 -17.3452 
20.8359 12.7628 -17.5737 28.4834 12.7628 -18.6255 36.1309 12.7628 -19.4378 
43.7784 12.7628 -19.6404 51.4259 12.7628 -17.1193 -47.9917 20.4103 -14.1478 
-40.3442 20.4103 -16.1724 -32.6967 20.4103 -16.9052 -25.0492 20.4103 -17.2144 
-17.4016 20.4103 -16.6383 -9.75414 20.4103 -16.9025 -2.10664 20.4103 -17.8027 
5.54086 20.4103 -18.2078 13.1884 20.4103 -18.4604 20.8359 20.4103 -18.7518 
28.4834 20.4103 -19.4076 36.1309 20.4103 -18.552 43.7784 20.4103 -17.6557 
51.4259 20.4103 -15.508 -40.3442 28.0578 -13.7148 -32.6967 28.0578 -15.0674 
-25.0492 28.0578 -16.2903 -17.4016 28.0578 -16.8019 -9.75414 28.0578 -17.0733 
-2.10664 28.0578 -18.0249 5.54086 28.0578 -18.7223 13.1884 28.0578 -18.8262 
20.8359 28.0578 -19.633 28.4834 28.0578 -18.1369 36.1309 28.0578 -17.4749 
43.7784 28.0578 -15.1709 -25.0492 35.7053 -13.3912 -17.4016 35.7053 -14.038 
-9.75414 35.7053 -14.9463 -2.10664 35.7053 -15.9764 5.54086 35.7053 -16.7995 
13.1884 35.7053 -16.9729 20.8359 35.7053 -16.4214 28.4834 35.7053 -15.2487 
36.1309 35.7053 -13.0788 -25.0492 -34.4275 -12.8804 -17.4016 -34.9797 -12.8804 
-9.75414 -34.0536 -12.8804 -2.10664 -33.3455 -12.8804 5.54086 -33.8543 -12.8804 
13.1884 -34.188 -12.8804 20.8359 -33.4884 -12.8804 28.4834 -33.2312 -12.8804 
-40.3442 -27.9214 -12.8804 -40.3442 -33.1222 -6.85318 -30.1832 -33.1222 -12.8804 
-32.6967 -32.1608 -12.8804 -32.6967 -33.1222 -12.186 28.8047 -33.1222 -12.8804 
36.1309 -30.0672 -12.8804 36.1309 -33.1222 -9.61178 43.7784 -27.5857 -12.8804 
-43.6075 -25.4747 -12.8804 -47.9917 -21.6494 -12.8804 -47.9917 -25.4747 -9.41229 
46.846 -25.4747 -12.8804 51.4259 -21.8379 -12.8804 51.4259 -25.4747 -8.39997 
-53.1672 -17.8272 -12.8804 -55.6392 -13.2922 -12.8804 -55.6392 -17.8272 -10.7815 
55.2137 -17.8272 -12.8804 59.0734 -17.8272 -6.45187 -56.6393 -10.1797 -12.8804 
59.0186 -10.1797 -12.8804 59.0734 -9.93447 -12.8804 59.0734 -10.1797 -12.7994 
-58.5135 -2.5322 -12.8804 -63.2867 -2.5322 -5.99612 60.4578 -2.5322 -12.8804 
-57.8207 5.1153 -12.8804 -55.6392 11.6998 -12.8804 60.6295 5.1153 -12.8804 
59.0734 10.2779 -12.8804 -55.2435 12.7628 -12.8804 -55.6392 12.7628 -12.5295 
58.1896 12.7628 -12.8804 59.0734 12.7628 -11.7898 -50.7553 20.4103 -12.8804 
-55.6392 20.4103 -8.76899 -47.9917 22.6789 -12.8804 55.3182 20.4103 -12.8804 
51.4259 24.0493 -12.8804 59.0734 20.4103 -6.40263 -42.0903 28.0578 -12.8804 
-47.9917 28.0578 -8.00721 -40.3442 29.6886 -12.8804 -32.6967 32.4753 -12.8804 
47.7739 28.0578 -12.8804 43.7784 31.4189 -12.8804 51.4259 28.0578 -7.95601 
-40.3442 35.7053 -5.94249 -26.9679 35.7053 -12.8804 -32.6967 35.7053 -10.3771 
-25.0492 36.3185 -12.8804 -17.4016 37.0597 -12.8804 -9.75414 38.2985 -12.8804 
-2.10664 39.4498 -12.8804 5.54086 40.2885 -12.8804 13.1884 40.4821 -12.8804 
20.8359 39.9198 -12.8804 28.4834 38.0834 -12.8804 36.5547 35.7053 -12.8804 
36.1309 35.9014 -12.8804 -40.3442 -34.0908 -5.23293 -32.6967 -37.4528 -5.23293 
-25.0492 -40.2987 -5.23293 -17.4016 -40.7092 -5.23293 -9.75414 -40.4505 -5.23293 
-2.10664 -40.267 -5.23293 5.54086 -40.4197 -5.23293 13.1884 -40.281 -5.23293 
20.8359 -39.5423 -5.23293 28.4834 -37.8725 -5.23293 36.1309 -35.644 -5.23293 
-42.1667 -33.1222 -5.23293 -47.9917 -29.0683 -5.23293 42.3348 -33.1222 -5.23293 
43.7784 -32.4532 -5.23293 51.4259 -27.1365 -5.23293 -51.9158 -25.4747 -5.23293 
-55.6392 -21.8387 -5.23293 53.1916 -25.4747 -5.23293 59.0734 -18.4618 -5.23293 
-58.4974 -17.8272 -5.23293 59.5048 -17.8272 -5.23293 59.0734 -17.8272 -1.72404 
-62.1547 -10.1797 -5.23293 -63.2867 -4.33662 -5.23293 62.5854 -10.1797 -5.23293 
-63.6109 -2.5322 -5.23293 -63.2867 2.31287 -5.23293 64.3847 -2.5322 -5.23293 
-63.0857 5.1153 -5.23293 64.5511 5.1153 -5.23293 -61.5123 12.7628 -5.23293 
62.6522 12.7628 -5.23293 -57.5749 20.4103 -5.23293 -55.6392 23.1969 -5.23293 
59.4195 20.4103 -5.23293 59.0734 20.8726 -5.23293 59.0734 20.4103 -3.71647 
-50.5717 28.0578 -5.23293 -47.9917 30.4905 -5.23293 43.7784 34.495 -5.23293 
52.8303 28.0578 -5.23293 51.4259 29.3736 -5.23293 51.4259 28.0578 -1.19888 
-40.9851 35.7053 -5.23293 -40.3442 36.0422 -5.23293 -32.6967 38.7968 -5.23293 
-25.0492 40.8198 -5.23293 -17.4016 41.8516 -5.23293 -9.75414 42.0823 -5.23293 
-2.10664 42.1242 -5.23293 5.54086 42.0179 -5.23293 13.1884 41.9566 -5.23293 
20.8359 41.7091 -5.23293 28.4834 39.9866 -5.23293 41.0058 35.7053 -5.23293 
36.1309 37.8724 -5.23293 36.1309 35.7053 -0.909211 -40.3442 -34.1551 2.41458 
-32.6967 -37.3598 2.41458 -25.0492 -39.9286 2.41458 -17.4016 -40.4619 2.41458 
-9.75414 -40.471 2.41458 -2.10664 -40.1743 2.41458 5.54086 -39.843 2.41458 
13.1884 -39.5212 2.41458 20.8359 -39.048 2.41458 28.4834 -37.8522 2.41458 
36.1309 -35.3899 2.41458 -42.2826 -33.1222 2.41458 -47.9917 -29.5572 2.41458 
-40.3442 -33.1222 5.05806 41.214 -33.1222 2.41458 36.1309 -33.1222 7.82423 
43.7784 -31.8379 2.41458 51.4259 -26.1084 2.41458 -52.4245 -25.4747 2.41458 
-55.6392 -21.8983 2.41458 52.0634 -25.4747 2.41458 51.4259 -25.4747 3.41816 
-58.5134 -17.8272 2.41458 -55.6392 -17.8272 8.74319 58.4482 -17.8272 2.41458 
59.0734 -16.4831 2.41458 -62.3939 -10.1797 2.41458 -63.2867 -4.2669 2.41458 
61.5316 -10.1797 2.41458 59.0734 -10.1797 6.92898 -63.5486 -2.5322 2.41458 
-63.2867 3.20049 2.41458 -63.2867 -2.5322 3.14046 63.3775 -2.5322 2.41458 
59.0734 -2.5322 9.8379 -63.1993 5.1153 2.41458 63.4753 5.1153 2.41458 
59.0734 5.1153 9.96768 -61.9931 12.7628 2.41458 61.2206 12.7628 2.41458 
59.0734 17.4103 2.41458 59.0734 12.7628 5.76832 -57.8073 20.4103 2.41458 
-55.6392 23.5569 2.41458 -55.6392 20.4103 7.12905 57.2549 20.4103 2.41458 
51.4259 26.5693 2.41458 51.4259 20.4103 8.28633 -51.6891 28.0578 2.41458 
-47.9917 31.3947 2.41458 -47.9917 28.0578 8.51724 28.4834 28.0578 9.66563 
36.1309 33.9549 2.41458 36.1309 28.0578 8.49087 49.2926 28.0578 2.41458 
43.7784 31.2071 2.41458 43.7784 28.0578 5.92253 -40.6608 35.7053 2.41458 
-40.3442 35.8675 2.41458 -40.3442 35.7053 2.75246 -32.6967 38.2912 2.41458 
-32.6967 35.7053 7.49921 -25.0492 39.6477 2.41458 -25.0492 35.7053 8.9146 
-17.4016 40.0388 2.41458 -17.4016 35.7053 8.65643 -9.75414 39.8048 2.41458 
-9.75414 35.7053 8.11449 -2.10664 39.3381 2.41458 -2.10664 35.7053 7.32414 
5.54086 38.6416 2.41458 5.54086 35.7053 6.22858 13.1884 37.7858 2.41458 
13.1884 35.7053 4.9762 20.8359 37.1564 2.41458 20.8359 35.7053 4.13979 
30.9456 35.7053 2.41458 28.4834 36.5277 2.41458 28.4834 35.7053 3.32294 
-32.6967 -34.4945 10.0621 -25.0492 -36.5471 10.0621 -17.4016 -37.8312 10.0621 
-9.75414 -38.0202 10.0621 -2.10664 -37.4517 10.0621 5.54086 -36.6466 10.0621 
13.1884 -36.1 10.0621 20.8359 -35.53 10.0621 28.4834 -34.276 10.0621 
-47.9917 -25.6934 10.0621 -35.8407 -33.1222 10.0621 -40.3442 -30.8126 10.0621 
-32.6967 -33.1222 11.7708 -25.0492 -33.1222 14.0584 -17.4016 -33.1222 15.2536 
-9.75414 -33.1222 15.663 -2.10664 -33.1222 15.2452 5.54086 -33.1222 14.3237 
13.1884 -33.1222 13.4986 20.8359 -33.1222 12.853 32.5554 -33.1222 10.0621 
28.4834 -33.1222 11.4007 36.1309 -31.7993 10.0621 43.7784 -27.6612 10.0621 
-48.2284 -25.4747 10.0621 -47.9917 -25.4747 10.2916 -40.3442 -25.4747 15.1974 
28.4834 -25.4747 16.752 36.1309 -25.4747 15.0122 46.4218 -25.4747 10.0621 
43.7784 -25.4747 12.2844 51.4259 -20.1864 10.0621 -54.8416 -17.8272 10.0621 
-55.6392 -16.662 10.0621 -47.9917 -17.8272 15.7444 43.7784 -17.8272 15.9141 
53.3732 -17.8272 10.0621 51.4259 -17.8272 11.9262 -58.8846 -10.1797 10.0621 
-55.6392 -10.1797 13.8612 56.7935 -10.1797 10.0621 51.4259 -10.1797 14.8875 
-60.0751 -2.5322 10.0621 -55.6392 -2.5322 14.8628 58.8897 -2.5322 10.0621 
51.4259 -2.5322 16.0465 -59.5641 5.1153 10.0621 -55.6392 5.1153 14.334 
[...]
POINT_DATA 544
SCALARS ImageScalars float
LOOKUP_TABLE default
0 0 0 0 0 0 0 0 0 
0 0 0 0 0 0 0 0 0 
0 0 0 0 0 0 0 0 0 
0 0 0 0 0 0 0 0 0 
0 0 0 0 0 0 0 0 0 
0 0 0 0 0 0 0 0 0 
0 0 0 0 0 0 0 0 0 
0 0 0 0 0 0 0 0 0 
0 0 0 0 0 0 0 0 0 
0 0 0 0 0 0 0 0 0 
0 0 0 0 0 0 0 0 0 
0 0 0 0 0 0 0 0 0 
0 0 0 0 0 0 0 0 0 
0 0 0 0 0 0 0 0 0 
0 0 0 0 0 0 0 0 0 
0 0 0 0 0 0 0 0 0 
0 0 0 0 0 0 0 0 0 
0 0 0 0 0 0 0 0 0 
0 0 0 0 0 0 0 0 0 
0 0 0 0 0 0 0 0 0 
0 0 0 0 0 0 0 0 0 
0 0 0 0 0 0 0 0 0 
0 0 0 0 0 0 0 0 0 
0 0 0 0 0 0 0 0 0 
0 0 0 0 0 0 0 0 0 
0 0 0 0 0 0 0 0 0 
0 0 0 0 0 0 0 0 0 
0 0 0 0 0 0 0 0 0 
0 0 0 0 0 0 0 0 0 
0 0 0 0 0 0 0 0 0 
0 0 0 0 0 0 0 0 0 
0 0 0 0 0 0 0 0 0 
0 0 0 0 0 0 0 0 0 
0 0 0 0 0 0 0 0 0 
0 0 0 0 0 0 0 0 0 
0 0 0 0 0 0 0 0 0 
0 0 0 0 0 0 0 0 0 
0 0 0 0 0 0 0 0 0 
0 0 0 0 0 0 0 0 0 
0 0 0 0 0 0 0 0 0 
0 0 0 0 0 0 0 0 0 
0 0 0 0 0 0 0 0 0 
0 0 0 0 0 0 0 0 0 
0 0 0 0 0 0 0 0 0 
0 0 0 0 0 0 0 0 0 
0 0 0 0 0 0 0 0 0 
0 0 0 0 0 0 0 0 0 
0 0 0 0 0 0 0 0 0 
0 0 0 0 0 0 0 0 0 
0 0 0 0 0 0 0 0 0 
0 0 0 0 0 0 0 0 0 
0 0 0 0 0 0 0 0 0 
0 0 0 0 0 0 0 0 0 
0 0 0 0 0 0 0 0 0 
0 0 0 0 0 0 0 0 0 
0 0 0 0 0 0 0 0 0 
0 0 0 0 0 0 0 0 0 
0 0 0 0 0 0 0 0 0 
0 0 0 0 0 0 0 0 0 
0 0 0 0 0 0 0 0 0 
0 0 0 0 
NORMALS Normals float
0.118546 0.496635 0.859826 -0.0149792 0.501504 0.865025 -0.0828488 0.46633 0.880723 
-0.0112991 0.372814 0.927837 0.0393545 0.373715 0.926708 -0.00429706 0.470458 0.882412 
-0.0418723 0.531699 0.845897 -0.134323 0.601746 0.787311 0.29483 0.408457 0.863851 
0.129046 0.290669 0.948082 0.0475955 0.228139 0.972465 -0.0428203 0.120436 0.991797 
-0.169193 0.12161 0.978051 -0.0619274 0.0734246 0.995376 0.0963616 0.0866727 0.991566 
0.0836405 0.0961976 0.991842 0.0506045 0.204249 0.97761 0.00109923 0.320238 0.947337 
-0.125202 0.435773 0.891306 -0.300154 0.52528 0.796234 0.288517 0.389983 0.874455 
0.132675 0.286157 0.948953 0.0661057 0.114172 0.991259 -0.029681 0.032453 0.999032 
-0.129909 -0.101553 0.986312 -0.151376 0.0237418 0.988191 -0.0755733 0.0650286 0.995018 
0.0875819 0.0378852 0.995437 0.136833 -0.0387948 0.989834 0.179268 0.0534987 0.982345 
0.0957711 0.143543 0.984999 -0.0225603 0.228585 0.973263 -0.126949 0.308289 0.942784 
-0.435467 0.413018 0.799866 0.603236 0.191634 0.774198 0.264528 0.177857 0.947835 
0.0370989 0.10432 0.993852 -0.131188 0.103359 0.985955 -0.170849 -0.043362 0.984343 
-0.0534316 -0.123184 0.990944 0.0151376 0.0659859 0.997706 -0.0462318 0.0633214 0.996922 
-0.0226083 0.196865 0.98017 0.102006 0.0908855 0.990623 0.224453 0.0276655 0.974092 
0.190277 0.0396555 0.980929 0.0379199 0.126663 0.991221 -0.132961 0.0990992 0.986154 
-0.339552 0.123055 0.932503 0.504009 0.0515496 0.862158 0.185804 0.0157596 0.98246 
0.0535808 -0.0135143 0.998472 -0.097158 0.0215958 0.995035 -0.238201 0.0263983 0.970857 
-0.0766225 -0.0363971 0.996396 0.0753508 0.0348468 0.996548 0.108591 0.0550963 0.992559 
0.143545 0.25873 0.955224 -0.0789503 0.222831 0.971655 0.0959438 0.0267007 0.995029 
0.189916 0.00997668 0.98175 0.0492559 0.0061018 0.998768 -0.122643 0.0229343 0.992186 
-0.289697 0.0435677 0.956126 -0.663461 0.0810576 0.743807 0.535371 -0.138624 0.833163 
0.212976 -0.0718522 0.974412 0.0354332 -0.00228107 0.999369 -0.0977518 -0.0358697 0.994564 
-0.213015 -0.0181726 0.97688 -0.105756 0.0600881 0.992575 0.095383 -0.0999914 0.990406 
0.184916 0.161907 0.969326 0.122347 -0.0603747 0.990649 -0.118033 -0.0253761 0.992685 
0.0567257 0.023856 0.998105 0.169599 -0.0172531 0.985362 0.052226 -0.0515019 0.997306 
-0.0962196 0.000802984 0.99536 -0.275953 -0.076563 0.958117 -0.65176 -0.111339 0.750209 
0.310852 -0.20193 0.92876 0.0914892 -0.145537 0.985114 -0.106492 -0.0880667 0.990406 
-0.16666 0.00422863 0.986005 -0.0891965 0.116749 0.989148 0.121934 0.0715287 0.989957 
0.156813 0.095609 0.98299 0.002134 -0.0357744 0.999358 -0.0234804 0.0371665 0.999033 
0.0829868 0.0992731 0.991594 0.120258 0.042681 0.991825 0.0658286 -0.0847581 0.994225 
-0.152024 -0.108935 0.982355 -0.381816 -0.140202 0.913542 0.332276 -0.421391 0.843814 
0.16668 -0.299172 0.939528 0.0626609 -0.178828 0.981883 -0.0179334 -0.0431362 0.998908 
-0.0196598 0.0845128 0.996228 0.075616 0.101144 0.991994 0.0864456 0.0469426 0.99515 
0.0433905 0.0501195 0.9978 0.035408 0.0959528 0.994756 0.0603439 0.128311 0.989896 
-0.0120915 -0.0290011 0.999506 -0.105911 -0.11527 0.987672 -0.157787 -0.281946 0.946366 
-0.425491 -0.395152 0.814133 0.302918 -0.397219 0.86629 0.175489 -0.347226 0.921216 
0.0997155 -0.229311 0.968232 0.05398 -0.133911 0.989522 0.0771276 -0.116391 0.990204 
0.107307 -0.110067 0.988115 0.0523952 -0.0847956 0.99502 0.056527 -0.0912673 0.994221 
-0.045405 -0.149482 0.987721 -0.132285 -0.237158 0.962422 -0.203736 -0.336653 0.919324 
-0.385393 -0.450639 0.805231 0.158635 -0.593316 0.789184 0.103471 -0.555094 0.825327 
0.118015 -0.508616 0.852867 0.123434 -0.504677 0.854439 0.068277 -0.499191 0.863798 
-0.0263696 -0.497473 0.867079 -0.102843 -0.565492 0.818317 -0.230347 -0.632323 0.739667 
-0.336024 -0.737356 0.585999 0.117941 0.574667 0.809844 -0.0150701 0.593938 0.80437 
-0.071044 0.515012 0.854234 -0.00933194 0.385101 0.922827 0.0336576 0.414107 0.909606 
-0.0185231 0.528984 0.848429 -0.042722 0.551537 0.833055 -0.135336 0.607557 0.782662 
0.329419 0.512254 0.793145 0.438549 0.828619 0.347944 0.218256 0.560569 0.798828 
0.250731 0.547744 0.798192 0.279797 0.613042 0.738846 -0.138799 0.607242 0.782299 
-0.20428 0.602901 0.77122 -0.290578 0.806474 0.514941 -0.335066 0.60422 0.722944 
0.377467 0.476472 0.794036 0.377746 0.484465 0.789051 0.553296 0.632387 0.542172 
-0.411438 0.581527 0.701815 -0.510685 0.562986 0.649806 -0.624018 0.705284 0.336416 
0.502525 0.409634 0.76136 0.617918 0.270733 0.738161 0.676316 0.445219 0.586836 
-0.605458 0.470781 0.641705 -0.848176 0.498548 0.179019 0.645592 0.195843 0.738144 
-0.756433 0.222279 0.615143 -0.756746 0.218112 0.616249 -0.761321 0.22383 0.608516 
0.642299 0.0554863 0.764444 0.965234 0.0574937 0.254984 -0.725991 0.0884279 0.681995 
0.638403 -0.1359 0.75761 0.608412 -0.224321 0.761259 -0.721707 -0.113334 0.682858 
-0.716208 -0.171302 0.676536 0.601048 -0.23665 0.763373 0.625559 -0.244105 0.741005 
-0.696197 -0.201136 0.689096 -0.771529 -0.223241 0.59574 0.44198 -0.43282 0.785698 
0.737513 -0.474184 0.480858 0.383108 -0.470999 0.794599 -0.60865 -0.452562 0.651715 
-0.540077 -0.526721 0.656416 -0.837385 -0.535134 0.111437 0.354421 -0.432854 0.828869 
0.594032 -0.638479 0.489356 0.319496 -0.466933 0.824558 0.219094 -0.504764 0.834992 
-0.523665 -0.539538 0.659299 -0.448743 -0.629209 0.634607 -0.669616 -0.701438 0.244129 
0.423031 -0.869088 0.25638 0.175073 -0.607769 0.774575 0.276153 -0.732093 0.622719 
0.157872 -0.627953 0.76207 0.109398 -0.620941 0.776186 0.126169 -0.659495 0.741045 
0.114572 -0.741445 0.66116 0.0617879 -0.820762 0.56792 -0.0224271 -0.83952 0.542865 
-0.14361 -0.814613 0.561945 -0.258021 -0.804197 0.535436 -0.345692 -0.744334 0.57137 
-0.337826 -0.747132 0.572422 0.448381 0.856671 0.255087 0.355294 0.909009 0.217874 
0.195542 0.956415 0.216873 0.00815312 0.973585 0.228181 -0.0267663 0.965173 0.260239 
-0.0018747 0.964593 0.263737 0.000643334 0.974858 0.222827 -0.0558444 0.976478 0.20826 
-0.157422 0.959576 0.233309 -0.239992 0.946435 0.216018 -0.32024 0.921144 0.221225 
0.481482 0.839764 0.25094 0.60111 0.752007 0.270467 -0.459669 0.871023 0.173273 
-0.490016 0.856153 0.163972 -0.642663 0.752192 0.145572 0.65908 0.703098 0.266957 
0.751388 0.623416 0.216262 -0.682832 0.717083 0.139758 -0.85147 0.513617 0.105814 
0.83202 0.511503 0.214726 -0.862232 0.495511 0.104999 -0.861146 0.502405 -0.0775727 
0.921834 0.297355 0.2486 0.970293 0.113867 0.213461 -0.942639 0.311292 0.120535 
0.97651 0.0567157 0.207872 0.97437 -0.0516942 0.218933 -0.983819 0.120437 0.132646 
0.966706 -0.115794 0.228191 -0.986203 -0.107171 0.126169 0.897037 -0.341678 0.280323 
-0.940818 -0.313853 0.127897 0.825522 -0.504296 0.253374 0.768941 -0.585128 0.257594 
-0.841518 -0.539306 0.0315667 -0.833991 -0.550961 0.0300112 -0.835176 -0.54802 -0.0464183 
0.653219 -0.687406 0.317456 0.622304 -0.718836 0.309859 -0.487631 -0.871908 -0.0446414 
-0.686521 -0.724918 0.0564134 -0.653241 -0.75497 0.0574129 -0.650503 -0.728078 -0.216214 
0.442237 -0.871726 0.210997 0.42579 -0.880135 0.209917 0.30158 -0.929654 0.211642 
0.19503 -0.968163 0.156917 0.0867477 -0.989724 0.11367 0.0177896 -0.998593 0.0499484 
-0.0039107 -0.999567 -0.0291644 -0.0111089 -0.99344 -0.113813 -0.0193766 -0.983898 -0.177678 
-0.128519 -0.973839 -0.187403 -0.232138 -0.968172 -0.0935675 -0.426847 -0.901124 -0.0760059 
-0.328674 -0.939767 -0.0938664 -0.313702 -0.871289 -0.377422 0.440642 0.882135 -0.16635 
0.336797 0.926994 -0.165077 0.188382 0.961688 -0.199168 0.0335289 0.986594 -0.159713 
-0.0183469 0.990463 -0.136555 -0.040051 0.986157 -0.160907 -0.0415628 0.97531 -0.216895 
-0.0505192 0.970119 -0.237313 -0.109877 0.969187 -0.220461 -0.21995 0.955473 -0.196707 
-0.356773 0.912574 -0.199805 0.474881 0.864484 -0.164791 0.60113 0.784731 -0.151127 
0.435583 0.856142 -0.278006 -0.454236 0.86074 -0.229774 -0.35916 0.820212 -0.44526 
-0.503922 0.827942 -0.246118 -0.666428 0.690752 -0.280598 0.689396 0.707874 -0.153774 
0.763831 0.621713 -0.173308 -0.678804 0.677597 -0.282997 -0.666587 0.671359 -0.323942 
0.832048 0.525955 -0.17626 0.727972 0.502469 -0.466456 -0.820081 0.48919 -0.296919 
-0.839723 0.453971 -0.29795 0.940965 0.284448 -0.183507 0.977796 0.104326 -0.181742 
-0.910156 0.301876 -0.283702 -0.808724 0.295125 -0.508789 0.982675 0.0517099 -0.177975 
0.982677 -0.0538243 -0.177339 0.975291 0.0538008 -0.214271 -0.944339 0.116258 -0.307747 
-0.761252 0.0992822 -0.640811 0.98021 -0.0895885 -0.176528 -0.940455 -0.127219 -0.315213 
-0.728669 -0.154094 -0.667305 0.92675 -0.325863 -0.186943 -0.870055 -0.351747 -0.345366 
-0.802725 -0.469209 -0.368069 -0.770336 -0.36143 -0.52531 0.842131 -0.511444 -0.170998 
0.790022 -0.587787 -0.174273 0.751146 -0.509702 -0.419504 -0.73786 -0.55152 -0.389087 
-0.591669 -0.654701 -0.470419 -0.477312 -0.542585 -0.691212 0.682561 -0.715461 -0.149082 
0.599552 -0.786693 -0.147144 0.544974 -0.656928 -0.521008 -0.111196 -0.581135 -0.806174 
-0.270317 -0.763921 -0.585964 -0.177448 -0.636944 -0.75021 -0.530001 -0.691038 -0.491493 
-0.354348 -0.789134 -0.501703 -0.34998 -0.672064 -0.652567 0.389772 -0.893654 -0.222396 
0.382101 -0.896413 -0.224595 0.379882 -0.892958 -0.241488 0.227785 -0.939659 -0.255255 
0.191925 -0.857096 -0.47807 0.105592 -0.943897 -0.312903 0.0356108 -0.760937 -0.647848 
0.0123319 -0.916112 -0.400732 -0.0341736 -0.735923 -0.676202 -0.0421588 -0.896084 -0.441878 
-0.0575517 -0.733649 -0.677087 -0.0694162 -0.871082 -0.486208 -0.0838223 -0.741197 -0.666034 
-0.0894869 -0.846043 -0.52555 -0.105513 -0.755334 -0.64679 -0.0854113 -0.811962 -0.577428 
-0.0961991 -0.758651 -0.644355 -0.0694303 -0.798637 -0.597795 -0.0784907 -0.753549 -0.652689 
-0.216352 -0.781292 -0.585469 -0.173989 -0.789431 -0.588665 -0.177483 -0.766079 -0.617756 
0.301565 0.800981 -0.517192 0.18877 0.824296 -0.533762 0.0824477 0.858739 -0.505737 
-0.0228773 0.87152 -0.489825 -0.0799975 0.862247 -0.50013 -0.0779411 0.843867 -0.530862 
-0.0632081 0.825175 -0.56133 -0.103904 0.814779 -0.570385 -0.190595 0.780072 -0.595954 
0.569928 0.636877 -0.519201 0.347031 0.784259 -0.514303 0.412586 0.745476 -0.523486 
0.290689 0.754731 -0.588117 0.166908 0.681755 -0.712287 0.0797532 0.627035 -0.774898 
0.000499849 0.590794 -0.806823 -0.0670232 0.635739 -0.768989 -0.0868783 0.684784 -0.723549 
-0.0717082 0.703452 -0.707116 -0.103601 0.714212 -0.692219 -0.270435 0.768297 -0.580158 
-0.185425 0.732702 -0.654802 -0.335462 0.744784 -0.576856 -0.474996 0.654522 -0.5882 
0.574364 0.633372 -0.518601 0.567819 0.631048 -0.528544 0.365894 0.565964 -0.738787 
-0.163847 0.394641 -0.904109 -0.247089 0.498426 -0.830975 -0.530176 0.603655 -0.595411 
-0.455837 0.574266 -0.680023 -0.610977 0.495859 -0.617115 0.689512 0.486048 -0.536964 
0.711635 0.452016 -0.537827 0.495188 0.387454 -0.777604 -0.351595 0.348536 -0.868852 
-0.640228 0.445125 -0.626077 -0.580239 0.438941 -0.686042 0.779745 0.259663 -0.569713 
0.657549 0.241686 -0.713594 -0.69821 0.269995 -0.663028 -0.548823 0.214119 -0.808051 
0.795567 0.0464384 -0.604083 0.630184 0.0256735 -0.776021 -0.751861 0.0974092 -0.652086 
-0.4995 0.0270397 -0.865892 0.783813 -0.108016 -0.611531 0.631337 -0.102408 -0.768717 
-0.723985 -0.154551 -0.67228 -0.465965 -0.171149 -0.868093 0.755475 -0.286266 -0.589329 
0.699312 -0.417041 -0.580551 0.671563 -0.290762 -0.681513 0.328642 -0.177213 -0.92768 
-0.000987419 -0.0584821 -0.998288 -0.0805082 -0.304275 -0.949176 -0.0185912 -0.299675 -0.95386 
-0.0138401 -0.363687 -0.931418 -0.0673045 -0.365307 -0.928451 -0.231813 -0.375602 -0.897321 
-0.575408 -0.366958 -0.730923 -0.46397 -0.472823 -0.749113 -0.483397 -0.370066 -0.793334 
0.642455 -0.4899 -0.589279 0.508221 -0.59753 -0.620217 0.427551 -0.406932 -0.807222 
0.126951 -0.345434 -0.929817 0.0507876 -0.262147 -0.963691 -0.0984629 -0.205198 -0.973755 
-0.0511028 -0.295283 -0.954042 -0.0129275 -0.366692 -0.930252 -0.0334386 -0.349388 -0.936381 
-0.0920111 -0.348895 -0.932634 -0.07788 -0.386276 -0.919089 -0.106134 -0.568316 -0.815937 
-0.0416453 -0.425034 -0.904219 -0.162296 -0.593055 -0.788636 -0.119297 -0.487272 -0.865063 
-0.370736 -0.528678 -0.76358 -0.29526 -0.550429 -0.780928 -0.277569 -0.517502 -0.809411 
0.464197 -0.616458 -0.636004 0.315659 -0.675747 -0.666127 0.293513 -0.577909 -0.761493 
0.154845 -0.756795 -0.635046 0.113433 -0.475887 -0.872161 0.0157981 -0.699509 -0.714449 
-0.0207696 -0.457659 -0.888885 -0.0400373 -0.660511 -0.749748 -0.0699567 -0.438803 -0.895856 
-0.0609913 -0.631993 -0.77257 -0.0645069 -0.434028 -0.898587 -0.084396 -0.61439 -0.784476 
-0.0645685 -0.456494 -0.88738 -0.108282 -0.610692 -0.78443 -0.090136 -0.511894 -0.854307 
-0.113439 -0.598867 -0.792773 -0.114815 -0.545925 -0.82993 -0.109515 -0.5641 -0.818411 
-0.106133 -0.554739 -0.825227 -0.106509 -0.540796 -0.834383 0.2075 0.476095 -0.854563 
0.08477 0.441155 -0.893418 0.0221897 0.400189 -0.916164 -0.00143031 0.347349 -0.937735 
-0.0255609 0.380848 -0.924284 -0.056931 0.416988 -0.907127 -0.058375 0.366648 -0.928526 
-0.0866063 0.315285 -0.945037 0.227115 0.471245 -0.85226 0.317139 0.414488 -0.853008 
0.198916 0.452416 -0.86934 0.0559041 0.363873 -0.92977 -0.00940855 0.28728 -0.957801 
-0.00623895 0.224703 -0.974407 -0.000861132 0.256768 -0.966473 -0.0459711 0.336341 -0.940617 
-0.0582935 0.323856 -0.944309 -0.0950846 0.314138 -0.944604 -0.0854464 0.303927 -0.948856 
-0.111484 0.310214 -0.944107 -0.175603 0.328575 -0.92801 0.389745 0.334353 -0.858083 
0.415137 0.241634 -0.877083 0.270598 0.291817 -0.917398 0.101757 0.201077 -0.974276 
-0.00182154 0.154436 -0.988001 -0.0842246 0.114898 -0.9898 -0.0338037 0.101866 -0.994224 
0.0559197 0.0987122 -0.993544 -0.0124987 0.214755 -0.976588 -0.0989628 0.157682 -0.982519 
-0.0589885 0.127197 -0.990122 -0.0529265 0.226943 -0.972469 -0.20148 0.312383 -0.928344 
-0.164087 0.302771 -0.938832 -0.310588 0.245187 -0.918378 0.423318 0.199142 -0.883824 
0.385829 0.191555 -0.902465 0.174393 0.103496 -0.979222 0.0378577 0.0408511 -0.998448 
-0.0352657 -0.0336391 -0.998812 -0.0577975 -0.0459342 -0.997271 -0.0239753 0.104428 -0.994243 
0.117819 -0.0518702 -0.991679 0.0230319 0.0526223 -0.998349 -0.15996 0.149034 -0.975808 
-0.0119736 0.0924059 -0.995649 0.0347897 0.127766 -0.991194 -0.129496 0.15577 -0.979268 
-0.360902 0.198355 -0.911266 -0.300049 0.192434 -0.934313 0.450065 0.0183131 -0.892808 
0.358631 0.00368081 -0.933472 0.115227 -0.0376895 -0.992624 -0.0293436 -0.0790882 -0.996436 
-0.0883583 -0.143322 -0.985724 0.0545513 -0.209889 -0.976202 -0.0367735 -0.00336673 -0.999318 
-0.0230635 -0.0626935 -0.997766 0.200766 -0.160355 -0.966426 -0.0647156 -0.0128848 -0.997821 
-0.075006 -0.0245821 -0.99688 0.0104641 -0.0280477 -0.999552 -0.096827 -0.0254904 -0.994975 
-0.383461 0.00828164 -0.92352 -0.273437 0.00385377 -0.961882 0.38527 -0.133526 -0.913092 
0.319238 -0.152795 -0.935276 0.323956 -0.140642 -0.93556 0.0953749 -0.147719 -0.98442 
-0.0677458 -0.137763 -0.988146 -0.156852 -0.123703 -0.979844 0.0150434 -0.0806712 -0.996627 
0.0484653 -0.126813 -0.990742 0.149963 -0.184641 -0.971298 -0.0137445 0.0290435 -0.999484 
0.0533018 -0.178515 -0.982492 -0.0786192 -0.303877 -0.949462 -0.0345502 -0.287657 -0.95711 
-0.0179097 -0.280202 -0.959774 -0.0248792 -0.207498 -0.977919 -0.00890821 -0.344819 -0.938627 
0.0325164 -0.219747 -0.975015 -0.0723084 -0.332956 -0.940166 -0.0936844 -0.219167 -0.971179 
-0.321916 -0.182381 -0.929036 -0.246423 -0.260116 -0.933604 -0.263358 -0.18657 -0.946485 
0.23023 -0.177198 -0.956867 0.117272 -0.269658 -0.955789 0.121676 -0.185723 -0.975039 
0.0450261 -0.25111 -0.966911 -0.00279675 -0.16159 -0.986854 -0.00358605 -0.0589634 -0.998254 
-0.088666 -0.0745734 -0.993266 0.00255651 -0.0638595 -0.997956 0.0448659 -0.2621 -0.963997 
0.120935 -0.247691 -0.961262 -0.00811101 -0.305557 -0.952139 -0.019338 -0.241114 -0.970304 
-0.0833036 -0.29738 -0.951118 -0.0818107 -0.269844 -0.959422 -0.111193 -0.23425 -0.965797 
-0.00555202 -0.238273 -0.971182 -0.0527962 -0.21864 -0.974376 -0.0456318 -0.229107 -0.972331 
-0.0469254 -0.220813 -0.974187 
