# vtk DataFile Version 4.2
vtk output
ASCII
DATASET POLYDATA
POINTS 542 float
-25.0273 -40.0696 -13.8917 -17.1346 -40.0696 -14.4438 -9.24189 -40.0696 -14.8668 
-1.34919 -40.0696 -14.6654 6.54352 -40.0696 -13.8911 14.4362 -40.0696 -12.5419 
-40.8127 -32.1769 -13.8959 -32.92 -32.1769 -15.2487 -25.0273 -32.1769 -16.7133 
-17.1346 -32.1769 -16.5829 -9.24189 -32.1769 -17.0306 -1.34919 -32.1769 -17.0333 
6.54352 -32.1769 -16.5639 14.4362 -32.1769 -16.0275 22.3289 -32.1769 -14.2781 
-48.7054 -24.2842 -14.051 -40.8127 -24.2842 -15.9106 -32.92 -24.2842 -17.6498 
-25.0273 -24.2842 -16.9255 -17.1346 -24.2842 -16.6593 -9.24189 -24.2842 -16.8023 
-1.34919 -24.2842 -16.8821 6.54352 -24.2842 -16.6749 14.4362 -24.2842 -16.4846 
22.3289 -24.2842 -16.6185 30.2216 -24.2842 -16.2147 38.1143 -24.2842 -15.288 
46.0071 -24.2842 -12.9326 -56.5981 -16.3914 -13.3173 -48.7054 -16.3914 -15.751 
-40.8127 -16.3914 -17.256 -32.92 -16.3914 -17.2151 -25.0273 -16.3914 -16.5479 
-17.1346 -16.3914 -16.0802 -9.24189 -16.3914 -15.5334 -1.34919 -16.3914 -15.6095 
6.54352 -16.3914 -15.4529 14.4362 -16.3914 -16.0813 22.3289 -16.3914 -17.0177 
30.2216 -16.3914 -17.5569 38.1143 -16.3914 -17.6284 46.0071 -16.3914 -16.2228 
53.8998 -16.3914 -12.6453 -56.5981 -8.49874 -12.6516 -48.7054 -8.49874 -16.3629 
-40.8127 -8.49874 -17.6621 -32.92 -8.49874 -17.2389 -25.0273 -8.49874 -16.1821 
-17.1346 -8.49874 -14.9197 -9.24189 -8.49874 -16.4317 -1.34919 -8.49874 -16.2101 
6.54352 -8.49874 -16.2236 14.4362 -8.49874 -14.9444 22.3289 -8.49874 -16.1595 
30.2216 -8.49874 -17.1972 38.1143 -8.49874 -17.0156 46.0071 -8.49874 -16.2267 
53.8998 -8.49874 -14.4366 -56.5981 -0.60603 -12.9883 -48.7054 -0.60603 -15.848 
-40.8127 -0.60603 -17.741 -32.92 -0.60603 -16.9841 -25.0273 -0.60603 -15.8379 
-17.1346 -0.60603 -14.5088 -9.24189 -0.60603 -18.3834 -1.34919 -0.60603 -12.8457 
6.54352 -0.60603 -19.165 14.4362 -0.60603 -14.5962 22.3289 -0.60603 -15.28 
30.2216 -0.60603 -16.4795 38.1143 -0.60603 -16.4146 46.0071 -0.60603 -15.7345 
53.8998 -0.60603 -13.7293 -48.7054 7.28668 -15.7865 -40.8127 7.28668 -17.2294 
-32.92 7.28668 -17.0685 -25.0273 7.28668 -16.1513 -17.1346 7.28668 -14.9526 
-9.24189 7.28668 -15.8338 -1.34919 7.28668 -15.6054 6.54352 7.28668 -16.0923 
14.4362 7.28668 -15.7748 22.3289 7.28668 -15.954 30.2216 7.28668 -16.2371 
38.1143 7.28668 -16.4932 46.0071 7.28668 -15.4774 53.8998 7.28668 -13.0859 
-48.7054 15.1794 -15.3175 -40.8127 15.1794 -16.5666 -32.92 15.1794 -17.2172 
-25.0273 15.1794 -16.5221 -17.1346 15.1794 -15.6266 -9.24189 15.1794 -13.3616 
-1.34919 15.1794 -14.4851 6.54352 15.1794 -13.5083 14.4362 15.1794 -14.09 
22.3289 15.1794 -15.4206 30.2216 15.1794 -15.7802 38.1143 15.1794 -15.3878 
46.0071 15.1794 -14.4605 -48.7054 23.0721 -12.669 -40.8127 23.0721 -15.5067 
-32.92 23.0721 -17.3747 -25.0273 23.0721 -16.4139 -17.1346 23.0721 -15.1993 
-9.24189 23.0721 -13.1946 30.2216 23.0721 -13.1927 38.1143 23.0721 -12.6974 
-40.8127 30.9648 -13.3708 -32.92 30.9648 -14.8306 -25.0273 30.9648 -15.0499 
-17.1346 30.9648 -14.0816 -9.24189 30.9648 -12.4906 -25.0273 38.8575 -13.5204 
-17.1346 38.8575 -12.6653 -25.0273 -42.769 -12.1059 -17.1346 -43.4976 -12.1059 
-9.24189 -43.7261 -12.1059 -9.24189 -47.9623 -4.49081 -1.34919 -43.2304 -12.1059 
6.54352 -42.2275 -12.1059 14.4362 -40.6028 -12.1059 -40.8127 -35.1869 -12.1059 
-40.8127 -40.0696 -5.20636 -30.9529 -40.0696 -12.1059 -32.92 -38.7859 -12.1059 
-32.92 -40.0696 -11.0411 15.3725 -40.0696 -12.1059 22.3289 -35.2608 -12.1059 
22.3289 -40.0696 -5.30835 -46.6059 -32.1769 -12.1059 -48.7054 -30.2787 -12.1059 
-48.7054 -32.1769 -10.8428 29.175 -32.1769 -12.1059 30.2216 -31.6811 -12.1059 
30.2216 -32.1769 -11.5798 38.1143 -28.921 -12.1059 38.1143 -32.1769 -6.11566 
46.0071 -25.239 -12.1059 -52.5506 -24.2842 -12.1059 -56.5981 -19.8729 -12.1059 
-56.5981 -24.2842 -8.67422 47.8017 -24.2842 -12.1059 53.8998 -17.8041 -12.1059 
53.8998 -24.2842 -8.00131 -58.1316 -16.3914 -12.1059 54.8283 -16.3914 -12.1059 
61.7925 -16.3914 -6.94835 -57.3736 -8.49874 -12.1059 59.4091 -8.49874 -12.1059 
61.7925 -8.49874 -10.8858 -57.9258 -0.60603 -12.1059 -64.4908 -0.60603 -5.11956 
-56.5981 3.53189 -12.1059 57.8796 -0.60603 -12.1059 61.7925 -0.60603 -9.76402 
-55.4988 7.28668 -12.1059 -56.5981 7.28668 -11.2287 56.021 7.28668 -12.1059 
53.8998 10.8327 -12.1059 61.7925 7.28668 -8.98381 -55.4797 15.1794 -12.1059 
-56.5981 15.1794 -11.2695 -1.34919 22.5286 -12.1059 6.54352 18.5313 -12.1059 
14.4362 19.8744 -12.1059 22.3289 23.0048 -12.1059 51.1401 15.1794 -12.1059 
46.0071 20.2086 -12.1059 53.8998 15.1794 -10.7841 61.7925 15.1794 -5.35883 
-49.5303 23.0721 -12.1059 -48.7054 24.5771 -12.1059 -2.23691 23.0721 -12.1059 
-1.34919 23.0721 -11.9723 6.54352 23.0721 -10.5809 14.4362 23.0721 -10.7394 
22.5405 23.0721 -12.1059 22.3289 23.0721 -12.0756 30.2216 24.7771 -12.1059 
40.6131 23.0721 -12.1059 38.1143 24.0477 -12.1059 46.0071 23.0721 -10.7509 
53.8998 23.0721 -7.32719 -43.5024 30.9648 -12.1059 -48.7054 30.9648 -7.39767 
-40.8127 33.5224 -12.1059 -32.92 36.7465 -12.1059 -7.18835 30.9648 -12.1059 
-9.24189 33.0548 -12.1059 -1.34919 30.9648 -11.0165 6.54352 30.9648 -9.62237 
14.4362 30.9648 -8.23323 22.3289 30.9648 -8.14623 30.2216 30.9648 -7.6561 
38.1143 30.9648 -6.81148 46.0071 30.9648 -4.7534 -40.8127 38.8575 -6.87705 
-29.2313 38.8575 -12.1059 -32.92 38.8575 -10.9083 -25.0273 41.0496 -12.1059 
-14.7153 38.8575 -12.1059 -17.1346 40.0371 -12.1059 -9.24189 38.8575 -10.9022 
-1.34919 38.8575 -8.95539 6.54352 38.8575 -7.09736 -25.0273 46.7502 -7.71671 
-17.1346 46.7502 -8.78109 -9.24189 46.7502 -6.67783 -1.34919 46.7502 -5.91316 
-9.24189 -48.0616 -4.2132 -40.8127 -40.4146 -4.2132 -32.92 -44.0527 -4.2132 
-25.0273 -46.5948 -4.2132 -12.0801 -47.9623 -4.2132 -17.1346 -47.7926 -4.2132 
-8.06004 -47.9623 -4.2132 -9.24189 -47.9623 -3.74005 -1.34919 -47.4112 -4.2132 
6.54352 -46.559 -4.2132 14.4362 -44.6345 -4.2132 22.3289 -40.6173 -4.2132 
-41.3642 -40.0696 -4.2132 -48.7054 -35.1731 -4.2132 -40.8127 -40.0696 -2.94759 
23.2798 -40.0696 -4.2132 22.3289 -40.0696 0.528264 30.2216 -36.4275 -4.2132 
38.1143 -32.9272 -4.2132 -52.0717 -32.1769 -4.2132 -56.5981 -27.2815 -4.2132 
40.3751 -32.1769 -4.2132 46.0071 -30.2722 -4.2132 53.8998 -26.9165 -4.2132 
-58.8567 -24.2842 -4.2132 -56.5981 -24.2842 3.50329 56.9117 -24.2842 -4.2132 
61.7925 -19.2881 -4.2132 -62.7056 -16.3914 -4.2132 63.8682 -16.3914 -4.2132 
-64.2493 -8.49874 -4.2132 -64.4908 -6.06861 -4.2132 67.1273 -8.49874 -4.2132 
-64.9645 -0.60603 -4.2132 -64.4908 1.57956 -4.2132 -64.4908 -0.60603 0.821899 
66.3221 -0.60603 -4.2132 -63.0106 7.28668 -4.2132 66.4673 7.28668 -4.2132 
-60.5364 15.1794 -4.2132 -56.5981 22.9287 -4.2132 62.7851 15.1794 -4.2132 
61.7925 16.9218 -4.2132 -56.5174 23.0721 -4.2132 57.3393 23.0721 -4.2132 
53.8998 26.7927 -4.2132 -50.2967 30.9648 -4.2132 -48.7054 32.7932 -4.2132 
-48.7054 30.9648 2.32063 14.4362 38.219 -4.2132 22.3289 37.3172 -4.2132 
30.2216 35.383 -4.2132 38.1143 33.3541 -4.2132 46.9732 30.9648 -4.2132 
46.0071 31.4087 -4.2132 -42.3654 38.8575 -4.2132 -40.8127 40.257 -4.2132 
-40.8127 38.8575 0.181164 -32.92 45.5959 -4.2132 13.5859 38.8575 -4.2132 
6.54352 43.9039 -4.2132 14.4362 38.8575 -3.72148 22.3289 38.8575 -2.29589 
30.2216 38.8575 2.19411 -30.6457 46.7502 -4.2132 -25.0273 49.0445 -4.2132 
-17.1346 50.3844 -4.2132 -9.24189 48.626 -4.2132 2.53184 46.7502 -4.2132 
-1.34919 48.2717 -4.2132 6.54352 46.7502 2.04966 -32.92 -41.9372 3.67951 
-25.0273 -44.2603 3.67951 -17.1346 -45.7542 3.67951 -9.24189 -46.0928 3.67951 
-1.34919 -45.3255 3.67951 6.54352 -44.4348 3.67951 14.4362 -42.7323 3.67951 
-48.7054 -32.9969 3.67951 -36.9054 -40.0696 3.67951 -40.8127 -37.5727 3.67951 
-32.92 -40.0696 6.07875 -25.0273 -40.0696 8.587 -17.1346 -40.0696 10.3793 
-9.24189 -40.0696 10.9272 -1.34919 -40.0696 10.2024 6.54352 -40.0696 9.09755 
21.384 -40.0696 3.67951 14.4362 -40.0696 7.28378 22.3289 -39.7002 3.67951 
30.2216 -36.0823 3.67951 38.1143 -32.7104 3.67951 -49.6482 -32.1769 3.67951 
-48.7054 -32.1769 4.64044 -40.8127 -32.1769 9.4608 30.2216 -32.1769 10.3219 
39.8418 -32.1769 3.67951 38.1143 -32.1769 5.17825 46.0071 -30.2494 3.67951 
53.8998 -26.9492 3.67951 -56.5094 -24.2842 3.67951 -56.5981 -24.1878 3.67951 
-48.7054 -24.2842 10.9939 57.1347 -24.2842 3.67951 53.8998 -24.2842 7.95077 
61.7925 -19.9822 3.67951 -61.0247 -16.3914 3.67951 -56.5981 -16.3914 8.90765 
64.5021 -16.3914 3.67951 61.7925 -16.3914 7.86023 -62.965 -8.49874 3.67951 
67.988 -8.49874 3.67951 -64.1497 -0.60603 3.67951 68.2407 -0.60603 3.67951 
-62.2701 7.28668 3.67951 67.8517 7.28668 3.67951 -59.6346 15.1794 3.67951 
-56.5981 21.3427 3.67951 -56.5981 15.1794 8.11874 64.6069 15.1794 3.67951 
61.7925 20.4085 3.67951 61.7925 15.1794 8.70985 -55.5253 23.0721 3.67951 
-48.7054 30.5585 3.67951 -48.7054 23.0721 10.6462 60.0071 23.0721 3.67951 
53.8998 29.4285 3.67951 -48.1597 30.9648 3.67951 -40.8127 37.3767 3.67951 
-40.8127 30.9648 9.77461 38.1143 36.9847 3.67951 51.7026 30.9648 3.67951 
46.0071 34.1874 3.67951 -38.9814 38.8575 3.67951 -32.92 43.0924 3.67951 
-32.92 38.8575 8.10752 -25.0273 38.8575 9.98256 -17.1346 38.8575 11.4416 
-1.34919 38.8575 11.404 6.54352 38.8575 10.8004 14.4362 44.0899 3.67951 
14.4362 38.8575 10.1351 22.3289 41.4066 3.67951 22.3289 38.8575 8.18081 
31.9909 38.8575 3.67951 30.2216 39.3859 3.67951 30.2216 38.8575 4.89607 
-28.2126 46.7502 3.67951 -25.0273 48.3758 3.67951 -25.0273 46.7502 5.7387 
-17.1346 50.4204 3.67951 -17.1346 46.7502 8.32647 -9.24189 49.8223 3.67951 
-9.24189 46.7502 7.78882 -1.34919 49.3953 3.67951 -1.34919 46.7502 7.41411 
7.62553 46.7502 3.67951 6.54352 47.1676 3.67951 6.54352 46.7502 4.42647 
-32.92 -32.7133 11.5722 -25.0273 -35.7396 11.5722 -17.1346 -38.381 11.5722 
-9.24189 -39.2479 11.5722 -1.34919 -38.3437 11.5722 6.54352 -36.9809 11.5722 
14.4362 -35.3987 11.5722 22.3289 -33.7141 11.5722 -34.3209 -32.1769 11.5722 
-40.8127 -28.6684 11.5722 -32.92 -32.1769 11.9088 -25.0273 -32.1769 13.5036 
-17.1346 -32.1769 14.914 -9.24189 -32.1769 15.5975 -1.34919 -32.1769 15.1448 
[...]
POINT_DATA 542
SCALARS ImageScalars float
LOOKUP_TABLE default
0 0 0 0 0 0 0 0 0 
0 0 0 0 0 0 0 0 0 
0 0 0 0 0 0 0 0 0 
0 0 0 0 0 0 0 0 0 
0 0 0 0 0 0 0 0 0 
0 0 0 0 0 0 0 0 0 
0 0 0 0 0 0 0 0 0 
0 0 0 0 0 0 0 0 0 
0 0 0 0 0 0 0 0 0 
0 0 0 0 0 0 0 0 0 
0 0 0 0 0 0 0 0 0 
0 0 0 0 0 0 0 0 0 
0 0 0 0 0 0 0 0 0 
0 0 0 0 0 0 0 0 0 
0 0 0 0 0 0 0 0 0 
0 0 0 0 0 0 0 0 0 
0 0 0 0 0 0 0 0 0 
0 0 0 0 0 0 0 0 0 
0 0 0 0 0 0 0 0 0 
0 0 0 0 0 0 0 0 0 
0 0 0 0 0 0 0 0 0 
0 0 0 0 0 0 0 0 0 
0 0 0 0 0 0 0 0 0 
0 0 0 0 0 0 0 0 0 
0 0 0 0 0 0 0 0 0 
0 0 0 0 0 0 0 0 0 
0 0 0 0 0 0 0 0 0 
0 0 0 0 0 0 0 0 0 
0 0 0 0 0 0 0 0 0 
0 0 0 0 0 0 0 0 0 
0 0 0 0 0 0 0 0 0 
0 0 0 0 0 0 0 0 0 
0 0 0 0 0 0 0 0 0 
0 0 0 0 0 0 0 0 0 
0 0 0 0 0 0 0 0 0 
0 0 0 0 0 0 0 0 0 
0 0 0 0 0 0 0 0 0 
0 0 0 0 0 0 0 0 0 
0 0 0 0 0 0 0 0 0 
0 0 0 0 0 0 0 0 0 
0 0 0 0 0 0 0 0 0 
0 0 0 0 0 0 0 0 0 
0 0 0 0 0 0 0 0 0 
0 0 0 0 0 0 0 0 0 
0 0 0 0 0 0 0 0 0 
0 0 0 0 0 0 0 0 0 
0 0 0 0 0 0 0 0 0 
0 0 0 0 0 0 0 0 0 
0 0 0 0 0 0 0 0 0 
0 0 0 0 0 0 0 0 0 
0 0 0 0 0 0 0 0 0 
0 0 0 0 0 0 0 0 0 
0 0 0 0 0 0 0 0 0 
0 0 0 0 0 0 0 0 0 
0 0 0 0 0 0 0 0 0 
0 0 0 0 0 0 0 0 0 
0 0 0 0 0 0 0 0 0 
0 0 0 0 0 0 0 0 0 
0 0 0 0 0 0 0 0 0 
0 0 0 0 0 0 0 0 0 
0 0 
NORMALS Normals float
0.155953 0.485221 0.860372 0.0606526 0.431212 0.90021 0.0143121 0.451073 0.892373 
-0.0560238 0.473528 0.878995 -0.128051 0.528343 0.839319 -0.286389 0.615125 0.734577 
0.249959 0.405805 0.879115 0.148481 0.322934 0.934702 0.0838683 0.197702 0.976668 
0.019871 0.124478 0.992023 0.028684 0.104749 0.994085 -0.0292328 0.119891 0.992357 
-0.0661366 0.152796 0.986042 -0.123628 0.219005 0.96786 -0.259427 0.444907 0.857179 
0.375581 0.303284 0.875761 0.194184 0.17562 0.965117 0.063177 0.121611 0.990565 
-0.0599047 -0.0114827 0.998138 -0.00778951 -0.0318778 0.999461 0.0139045 -0.0901355 0.995832 
-0.0082439 -0.0914223 0.995778 -0.0245976 -0.0659691 0.997518 -0.00392736 0.00500524 0.99998 
-0.0177972 0.153574 0.987977 -0.0811348 0.315655 0.945399 -0.178735 0.427077 0.886374 
-0.340761 0.581624 0.738644 0.544692 0.138577 0.827108 0.247682 0.125364 0.960696 
0.101471 0.109282 0.988818 -0.0445872 -0.0243114 0.99871 -0.0736337 -0.0481526 0.996122 
-0.0631201 -0.111571 0.99175 -0.0311355 -0.0389283 0.998757 -0.0047651 -0.0429494 0.999066 
0.030742 -0.0435138 0.99858 0.0960355 -0.0969416 0.990646 0.0934375 -0.0249007 0.995314 
0.0381968 0.062484 0.997315 -0.0964859 0.10937 0.989307 -0.272337 0.154132 0.949777 
-0.489498 0.261507 0.831869 0.560144 -0.025805 0.827993 0.261109 0.00911264 0.965266 
0.0695447 0.0311589 0.997092 -0.0923454 -0.0145694 0.99562 -0.145548 -0.0444641 0.988351 
-0.00730375 -0.0982278 0.995137 0.0991182 0.163787 0.981504 -0.010731 -0.0973016 0.995197 
-0.0964255 0.210278 0.972875 0.0116769 -0.0924938 0.995645 0.147519 -0.113595 0.982514 
0.0484743 -0.0691565 0.996427 -0.0598433 -0.0744261 0.995429 -0.149521 -0.0309345 0.988274 
-0.32474 0.0592361 0.943946 0.465102 -0.072968 0.882245 0.264517 -0.040803 0.963517 
0.0705253 -0.0270763 0.997142 -0.118122 -0.0107192 0.992941 -0.143551 -0.00192332 0.989641 
0.0914063 0.00122611 0.995813 -0.00301814 -0.0508739 0.9987 0.0580303 -0.0682679 0.995978 
0.0299082 -0.0609388 0.997693 -0.186558 0.062115 0.980478 0.111314 -0.0120843 0.993712 
0.0724563 -0.0614641 0.995476 -0.0465243 -0.0332201 0.998365 -0.159276 -0.0473561 0.986098 
-0.31084 -0.0745177 0.947537 0.300386 -0.0258706 0.953467 0.0949433 -0.0739604 0.992731 
-0.0675687 0.0147067 0.997606 -0.130389 0.0429002 0.990534 -0.0305791 0.067506 0.99725 
0.0463265 -0.284655 0.95751 0.0202184 0.0639599 0.997748 0.00543616 -0.2881 0.957585 
-0.00868121 -0.046596 0.998876 0.03082 0.010455 0.99947 0.0320543 -0.0439976 0.998517 
-0.0523234 -0.0629408 0.996645 -0.197949 -0.0708416 0.977649 -0.356607 -0.164545 0.91965 
0.318474 -0.16971 0.932616 0.105984 -0.10779 0.988508 -0.00432526 0.0188645 0.999813 
-0.100037 0.0166002 0.994845 -0.195382 0.0147229 0.980617 -0.0921306 -0.142368 0.985517 
0.0199723 -0.248422 0.968446 -0.0118094 -0.361151 0.932433 0.11614 -0.307869 0.944313 
0.106049 -0.211128 0.971689 -0.00149795 -0.179613 0.983736 -0.0772132 -0.228233 0.97054 
-0.265962 -0.274901 0.923956 0.476819 -0.305023 0.824381 0.250742 -0.166527 0.953623 
0.0522047 -0.140765 0.988666 -0.132325 -0.0885307 0.987245 -0.198452 -0.0947102 0.975524 
-0.203521 -0.0538194 0.97759 0.0304745 -0.462568 0.88606 -0.137761 -0.442856 0.885946 
0.31334 -0.373641 0.873046 0.0808731 -0.338277 0.937565 -0.0465369 -0.164768 0.985234 
-0.159313 -0.146079 0.976361 -0.187478 -0.129469 0.973699 0.0899563 -0.388932 0.916864 
-0.154148 -0.321591 0.934247 0.191194 0.636875 0.746884 0.043507 0.647651 0.760694 
-0.0142219 0.677875 0.73504 -0.0246793 0.995831 0.0878169 -0.0729368 0.689234 0.720858 
-0.131108 0.663271 0.736805 -0.288065 0.642939 0.709682 0.320879 0.541601 0.776985 
0.493665 0.863109 0.10648 0.255062 0.603823 0.755209 0.265112 0.587841 0.764303 
0.306551 0.691088 0.654541 -0.304533 0.631522 0.713049 -0.3491 0.558405 0.752538 
-0.485743 0.844762 0.22457 0.43872 0.509015 0.74056 0.469687 0.483354 0.738758 
0.536571 0.579864 0.613065 -0.269597 0.636689 0.722457 -0.253917 0.642652 0.722859 
-0.27811 0.678816 0.679606 -0.268857 0.683071 0.679066 -0.340502 0.904927 0.255276 
-0.346082 0.626089 0.698742 0.495411 0.395472 0.773414 0.595102 0.281829 0.752613 
0.716465 0.532264 0.450969 -0.38279 0.581588 0.717793 -0.503326 0.303272 0.809129 
-0.564777 0.645212 0.514517 0.64393 0.155947 0.749022 -0.517436 0.276213 0.809918 
-0.729967 0.477374 0.489144 0.599791 -0.0198455 0.799911 -0.472234 0.109853 0.874601 
-0.587089 0.127552 0.79941 0.542748 -0.0753699 0.836507 0.961501 -0.0690866 0.265974 
0.55039 -0.0750505 0.831528 -0.453646 -0.0855474 0.887066 -0.669999 -0.0937257 0.736422 
0.570369 -0.0745509 0.817999 0.638082 -0.0957703 0.763989 -0.438764 -0.18504 0.879345 
-0.407619 -0.216901 0.887018 -0.676288 -0.224696 0.701531 0.578033 -0.20661 0.789424 
0.653673 -0.219436 0.724265 -0.153094 -0.180135 0.971655 -0.0280397 -0.304192 0.952198 
0.114318 -0.344606 0.931761 0.149361 -0.423684 0.893411 -0.389393 -0.291431 0.873751 
-0.268873 -0.39908 0.876608 -0.462155 -0.299752 0.834602 -0.725865 -0.419236 0.545308 
0.502866 -0.318119 0.803695 0.500574 -0.337544 0.797176 -0.166998 -0.163744 0.972265 
-0.163036 -0.178022 0.970426 -0.0811673 -0.232373 0.969234 0.092606 -0.360012 0.92834 
0.146618 -0.426612 0.892472 0.149386 -0.425507 0.89254 0.0214581 -0.496624 0.8677 
-0.179842 -0.448297 0.875606 -0.135099 -0.459318 0.877938 -0.271599 -0.468372 0.840751 
-0.5102 -0.547998 0.662868 0.419349 -0.426543 0.801378 0.705263 -0.62145 0.341181 
0.354487 -0.465194 0.811131 0.182361 -0.462489 0.867668 -0.185644 -0.141496 0.972376 
-0.197213 -0.159176 0.967352 -0.187533 -0.18365 0.964937 -0.177945 -0.225896 0.957761 
-0.101104 -0.368081 0.924281 -0.0314198 -0.510942 0.859041 -0.0660149 -0.607301 0.791725 
-0.143105 -0.691221 0.708333 -0.303466 -0.786931 0.53726 0.587035 -0.751625 0.300749 
0.158881 -0.453901 0.876773 0.261643 -0.564063 0.783183 0.107325 -0.472223 0.874921 
-0.176274 -0.298508 0.937987 -0.129294 -0.368612 0.920548 -0.232121 -0.288742 0.928842 
-0.254929 -0.346775 0.902639 -0.276114 -0.457633 0.845182 0.226164 -0.807604 0.544633 
-0.034974 -0.685547 0.727188 -0.180195 -0.759115 0.625519 -0.254945 -0.697602 0.669593 
-0.0242044 0.997094 0.0722284 0.492637 0.869615 0.0328529 0.371849 0.924263 0.0864101 
0.232812 0.971943 0.0335372 0.0167939 0.997756 0.0648197 0.0895693 0.994567 0.0530496 
-0.034645 0.996855 0.0712661 -0.0242195 0.998631 0.0463654 -0.095447 0.993111 0.0679763 
-0.173335 0.981769 0.0780089 -0.340194 0.936671 0.0831575 -0.48524 0.86084 0.153285 
0.500027 0.865345 0.0339175 0.62861 0.775265 0.0617495 0.50044 0.864631 -0.044412 
-0.481762 0.862026 0.157531 -0.439569 0.889701 -0.123335 -0.433231 0.88228 0.184098 
-0.351101 0.921967 0.163418 0.695916 0.714328 0.0737378 0.782246 0.616538 0.0892813 
-0.337994 0.92541 0.171394 -0.33381 0.916825 0.219095 -0.548607 0.795659 0.256822 
0.833098 0.544211 0.0989029 0.691006 0.571803 -0.442213 -0.620985 0.733033 0.277562 
-0.733566 0.588833 0.339348 0.931538 0.329175 0.154533 -0.805072 0.47465 0.355762 
0.970323 0.136969 0.199279 0.975948 0.0746214 0.204836 -0.915359 0.156195 0.371108 
0.973053 -0.0671723 0.220579 0.966644 -0.122824 0.224751 0.98529 -0.0518973 -0.162818 
-0.869179 -0.0429458 0.492629 0.930499 -0.265762 0.252077 -0.835409 -0.219771 0.503779 
0.906495 -0.37732 0.189463 0.834191 -0.5201 0.18336 -0.766241 -0.437676 0.47044 
-0.749647 -0.476084 0.459753 0.832331 -0.522869 0.183937 -0.673777 -0.582868 0.454192 
-0.565862 -0.654321 0.501662 0.747253 -0.657095 0.0991875 0.72883 -0.678289 0.0934365 
0.650677 -0.684024 -0.329742 -0.242655 -0.604313 0.758896 -0.112756 -0.696193 0.708944 
-0.183936 -0.685115 0.70483 -0.203491 -0.789099 0.57958 -0.333754 -0.788652 0.516368 
-0.305639 -0.796027 0.522424 0.64742 -0.758181 0.0775148 0.626905 -0.774476 0.0847154 
0.626382 -0.739927 -0.245261 0.465321 -0.8678 0.174356 -0.259702 -0.606902 0.751149 
-0.393548 -0.672638 0.626641 -0.256109 -0.646379 0.718751 -0.175342 -0.833712 0.523622 
-0.282008 -0.956139 0.0791776 0.414575 -0.888012 0.198902 0.279661 -0.920914 0.27149 
-0.000982903 -0.918831 0.39465 -0.169811 -0.870443 0.462053 -0.321847 -0.755773 0.570281 
-0.231745 -0.830387 0.506706 -0.396262 -0.918125 -0.00477377 0.335411 0.819518 -0.46464 
0.218431 0.850094 -0.479195 0.0991519 0.892808 -0.43939 -0.0234698 0.899566 -0.436154 
-0.0911566 0.891269 -0.444219 -0.143482 0.881227 -0.450391 -0.26688 0.867005 -0.420805 
0.561025 0.681843 -0.469404 0.410241 0.77999 -0.472566 0.465825 0.736903 -0.489878 
0.323375 0.748184 -0.579352 0.200567 0.676222 -0.70887 0.107451 0.630061 -0.769075 
-0.00619498 0.64899 -0.760772 -0.0820021 0.672954 -0.735125 -0.123613 0.698731 -0.704624 
-0.372124 0.867318 -0.33058 -0.225377 0.77132 -0.595207 -0.383236 0.867323 -0.317617 
-0.38314 0.889839 -0.247771 -0.332453 0.927283 -0.172109 0.585532 0.662594 -0.467034 
0.551768 0.654413 -0.517007 0.356708 0.573319 -0.737607 -0.233257 0.740423 -0.630369 
-0.324643 0.929362 -0.175764 -0.3225 0.915619 -0.240076 -0.324695 0.920676 -0.216631 
-0.513923 0.827683 -0.225443 0.684971 0.569669 -0.454195 0.687097 0.567361 -0.453872 
0.439199 0.413687 -0.797475 -0.588103 0.775581 -0.229366 -0.532229 0.681425 -0.502387 
-0.736895 0.633927 -0.234781 0.828264 0.341072 -0.444578 0.624652 0.332053 -0.706789 
-0.840464 0.491731 -0.227643 -0.692176 0.500866 -0.51964 0.903209 0.174115 -0.392297 
-0.951193 0.232129 -0.203342 0.925018 -0.0391159 -0.377904 -0.986113 -0.00849382 -0.165861 
0.906759 -0.256385 -0.334746 -0.954785 -0.230142 -0.188203 0.860507 -0.372417 -0.347609 
0.789276 -0.510008 -0.341957 0.710169 -0.369836 -0.599068 -0.89895 -0.418978 -0.127857 
-0.8277 -0.55072 -0.107798 -0.736735 -0.399861 -0.545282 0.759488 -0.548621 -0.349561 
0.618077 -0.667094 -0.415892 0.460538 -0.43078 -0.776101 -0.778975 -0.620643 -0.0894492 
-0.628566 -0.773844 -0.0779163 0.611711 -0.670238 -0.420227 0.56567 -0.658034 -0.497 
0.396352 -0.535026 -0.746091 -0.303814 -0.952354 0.0268166 -0.561617 -0.82586 -0.0504087 
-0.420632 -0.907231 0.000404206 0.548891 -0.671628 -0.497629 0.49963 -0.715661 -0.488056 
0.375526 -0.600985 -0.705547 0.160045 -0.415266 -0.895511 0.123577 -0.309658 -0.942783 
-0.0660271 -0.293245 -0.953755 -0.0790183 -0.401559 -0.912418 -0.335558 -0.941808 -0.0199761 
-0.132061 -0.597512 -0.790911 -0.295597 -0.955023 -0.0235405 -0.223689 -0.853035 -0.471482 
-0.278345 -0.960278 -0.0197744 -0.272783 -0.961103 -0.0432478 -0.257814 -0.958095 -0.124846 
0.45068 -0.769211 -0.452992 0.371462 -0.843884 -0.387137 0.405338 -0.734054 -0.544853 
0.101979 -0.918541 -0.381946 0.108963 -0.645544 -0.75591 -0.0816929 -0.946286 -0.31284 
-0.0518973 -0.746442 -0.663424 -0.180205 -0.940351 -0.288559 -0.13217 -0.756205 -0.640847 
-0.366898 -0.919778 -0.139262 -0.36237 -0.918099 -0.160568 -0.350744 -0.90708 -0.232777 
0.207525 0.469155 -0.858386 0.187975 0.497105 -0.847085 0.113797 0.552671 -0.825594 
-0.00283994 0.608286 -0.793713 -0.0802661 0.590139 -0.803302 -0.106364 0.546047 -0.830975 
-0.130904 0.541466 -0.830469 -0.184513 0.616906 -0.765103 0.224957 0.471727 -0.852566 
0.291098 0.453223 -0.842527 0.202555 0.456115 -0.866562 0.170058 0.387866 -0.905892 
0.121948 0.338844 -0.932906 0.0145753 0.333427 -0.942663 -0.0762155 0.360993 -0.929449 
-0.0939652 0.369828 -0.924336 -0.0917798 0.428785 -0.898733 -0.189808 0.656087 -0.730426 
-0.15511 0.561683 -0.812683 -0.190058 0.66716 -0.720261 -0.245587 0.702021 -0.668471 
-0.31877 0.664221 -0.676162 0.396406 0.392865 -0.829771 0.414788 0.369612 -0.831467 
0.246253 0.34148 -0.907056 0.140732 0.262184 -0.954701 0.0990692 0.200559 -0.97466 
0.0704658 0.0993425 -0.992555 0.0201154 0.0470802 -0.998689 -0.0512207 0.0913862 -0.994497 
-0.0530467 0.126486 -0.990549 0.00110657 0.186809 -0.982396 -0.013758 0.247632 -0.968756 
-0.0867427 0.354351 -0.931081 -0.165609 0.448954 -0.878074 -0.376887 0.606311 -0.700245 
-0.313372 0.615243 -0.723377 -0.463536 0.417273 -0.781676 0.441799 0.274673 -0.85403 
0.577002 0.213934 -0.788226 0.365706 0.243877 -0.898211 0.196292 0.197222 -0.960507 
0.0893275 0.139458 -0.986191 0.00489525 0.0593516 -0.998225 -0.0330336 -0.0361347 -0.998801 
0.00875004 -0.0830316 -0.996508 0.00227047 0.00122032 -0.999997 -0.00236245 0.0875303 -0.996159 
0.0401138 -0.0291254 -0.998771 0.0386548 0.000232579 -0.999253 0.0273877 0.0848532 -0.996017 
-0.0804465 0.155322 -0.984583 -0.228729 0.200488 -0.952622 -0.483818 0.373834 -0.791308 
-0.436072 0.347015 -0.830314 -0.560566 0.290251 -0.775577 0.592673 0.193767 -0.781788 
0.573083 0.191956 -0.796699 0.305368 0.133649 -0.942809 0.153893 0.127253 -0.979859 
-0.00779805 0.0608437 -0.998117 -0.0809398 -0.0165937 -0.996581 -0.0742992 -0.118819 -0.990132 
0.0579112 -0.0370654 -0.997633 0.124184 -0.0523299 -0.990878 -0.0862379 0.109356 -0.990255 
-0.0915045 -0.177505 -0.979857 0.113841 -0.122791 -0.985882 0.0651795 -0.0361131 -0.99722 
-0.0172827 -0.0168183 -0.999709 -0.0617715 0.0624858 -0.996132 -0.30975 0.189981 -0.931645 
-0.596444 0.228082 -0.769567 -0.545276 0.222898 -0.808078 0.617006 -0.00150946 -0.786957 
0.547643 0.00232527 -0.836709 0.288751 0.00793014 -0.957371 0.134582 0.0162416 -0.990769 
-0.052249 0.0127976 -0.998552 -0.167207 -0.0163056 -0.985787 -0.0775582 -0.0592088 -0.995228 
0.071616 -0.116536 -0.990601 0.152297 -0.137038 -0.978788 -0.153002 -0.135178 -0.978937 
-0.137401 -0.0888725 -0.98652 0.170349 -0.0361536 -0.98472 0.132847 -0.0216488 -0.9909 
0.0222297 -0.00486345 -0.999741 -0.0539512 0.00562366 -0.998528 -0.296771 0.0284714 -0.954524 
-0.644534 0.00528008 -0.764557 -0.546222 0.0129433 -0.83754 0.626671 -0.205303 -0.751754 
0.613404 -0.229128 -0.755801 0.604567 -0.201933 -0.770533 0.31637 -0.109848 -0.942255 
0.159903 -0.105234 -0.981507 -0.0404558 -0.0604737 -0.99735 -0.154033 -0.020314 -0.987857 
-0.145811 0.056538 -0.987696 0.00635276 -0.0623938 -0.998031 0.102396 -0.133863 -0.985696 
-0.0675992 -0.288001 -0.955241 -0.0206231 0.0499817 -0.998537 0.183286 0.0422051 -0.982153 
0.101773 0.00922767 -0.994765 0.00847012 0.0364545 -0.999299 -0.0292069 -0.0426522 -0.998663 
-0.309327 -0.144411 -0.939927 -0.647572 -0.180916 -0.740216 -0.604365 -0.250547 -0.756287 
-0.587325 -0.176408 -0.789892 0.491115 -0.318014 -0.810971 0.42737 -0.374742 -0.822753 
0.405977 -0.27959 -0.870064 0.169943 -0.238043 -0.956271 0.032063 -0.156809 -0.987108 
-0.0583683 -0.0902883 -0.994204 -0.119022 -0.0152569 -0.992774 -0.146255 -0.0421039 -0.988351 
-0.0878604 -0.151124 -0.984603 0.0864026 -0.174106 -0.980929 0.17862 0.0195846 -0.983723 
0.137893 -0.00793289 -0.990415 0.120084 -0.037432 -0.992058 -0.0261824 -0.0725513 -0.997021 
-0.2177 -0.0864479 -0.97218 -0.512997 -0.290999 -0.80756 -0.399592 -0.243383 -0.883793 
0.37795 -0.387636 -0.840769 0.303014 -0.431255 -0.849824 0.228834 -0.323935 -0.917987 
0.116506 -0.27366 -0.954744 -0.00384456 -0.203766 -0.979012 -0.0939465 -0.136006 -0.986244 
-0.123106 -0.0824628 -0.988961 -0.0400195 -0.032003 -0.998686 0.104596 -0.0333375 -0.993956 
0.149064 -0.0854081 -0.985132 0.121516 -0.143029 -0.982231 0.0350942 -0.169454 -0.984913 
-0.0505875 -0.23572 -0.970503 -0.250281 -0.303131 -0.919495 -0.547494 -0.406968 -0.731182 
-0.523201 -0.436846 -0.731728 -0.485662 -0.379313 -0.787562 0.204137 -0.370635 -0.906067 
0.176643 -0.353592 -0.91857 0.158971 -0.332008 -0.929784 0.108111 -0.340793 -0.933902 
0.0801217 -0.301043 -0.950239 0.11623 -0.299906 -0.946862 0.00692778 -0.19251 -0.981271 
-0.0512484 -0.101063 -0.993559 -0.0604983 -0.25973 -0.963784 -0.0326094 -0.0768413 -0.99651 
-0.029494 -0.263523 -0.964202 0.0325818 -0.119887 -0.992253 -0.0281355 -0.381868 -0.923788 
0.0547124 -0.232634 -0.971024 -0.0111397 -0.491044 -0.871064 0.067857 -0.33136 -0.941061 
-0.0716168 -0.649726 -0.756787 0.00783381 -0.43473 -0.900527 -0.194154 -0.672209 -0.714451 
-0.161211 -0.578844 -0.799344 -0.377533 -0.645669 -0.663762 -0.352572 -0.659477 -0.663915 
-0.348078 -0.633075 -0.691417 0.088025 -0.298944 -0.950202 -0.0433855 -0.284179 -0.957789 
-0.00467747 -0.313437 -0.949597 -0.00173791 -0.281571 -0.959539 
