# vtk DataFile Version 4.2
vtk output
ASCII
DATASET POLYDATA
POINTS 538 float
-40.5415 -22.6907 -16.4909 -33.2786 -22.6907 -18.8072 -26.0157 -22.6907 -18.5181 
-18.7527 -22.6907 -17.4679 3.03604 -22.6907 -17.0214 10.299 -22.6907 -17.4013 
24.8248 -22.6907 -16.8895 32.0877 -22.6907 -17.4038 39.3507 -22.6907 -17.8765 
46.6136 -22.6907 -16.9093 -47.8044 -15.4277 -16.5513 -40.5415 -15.4277 -18.9347 
-33.2786 -15.4277 -21.0578 -26.0157 -15.4277 -20.339 -18.7527 -15.4277 -20.023 
-11.4898 -15.4277 -19.4863 -4.22688 -15.4277 -18.5671 3.03604 -15.4277 -19.4351 
10.299 -15.4277 -20.2482 17.5619 -15.4277 -19.3033 24.8248 -15.4277 -20.0808 
32.0877 -15.4277 -19.9158 39.3507 -15.4277 -20.4762 46.6136 -15.4277 -21.2209 
53.8765 -15.4277 -17.3253 -47.8044 -8.16481 -18.773 -40.5415 -8.16481 -20.4259 
-33.2786 -8.16481 -20.5279 -26.0157 -8.16481 -20.002 -18.7527 -8.16481 -19.7132 
-11.4898 -8.16481 -21.3713 -4.22688 -8.16481 -19.4585 3.03604 -8.16481 -18.3455 
10.299 -8.16481 -22.1512 17.5619 -8.16481 -20.5874 24.8248 -8.16481 -19.7362 
32.0877 -8.16481 -20.1698 39.3507 -8.16481 -21.0274 46.6136 -8.16481 -20.857 
53.8765 -8.16481 -19.4387 61.1394 -8.16481 -17.7689 -47.8044 -0.901881 -19.2325 
-40.5415 -0.901881 -20.5345 -33.2786 -0.901881 -20.573 -26.0157 -0.901881 -19.7945 
-18.7527 -0.901881 -18.8561 -11.4898 -0.901881 -21.2025 -4.22688 -0.901881 -20.5701 
3.03604 -0.901881 -16.5563 10.299 -0.901881 -22.6221 17.5619 -0.901881 -21.5317 
24.8248 -0.901881 -18.8667 32.0877 -0.901881 -19.4458 39.3507 -0.901881 -20.0674 
46.6136 -0.901881 -20.6169 53.8765 -0.901881 -18.0306 -47.8044 6.36104 -17.9195 
-40.5415 6.36104 -19.6218 -33.2786 6.36104 -19.9543 -26.0157 6.36104 -19.2812 
-18.7527 6.36104 -18.2222 -11.4898 6.36104 -19.1914 -4.22688 6.36104 -20.7183 
3.03604 6.36104 -17.4371 10.299 6.36104 -20.6782 17.5619 6.36104 -20.2252 
24.8248 6.36104 -18.2882 32.0877 6.36104 -18.219 39.3507 6.36104 -18.5896 
46.6136 6.36104 -18.3434 53.8765 6.36104 -17.6732 -40.5415 13.624 -17.3438 
-33.2786 13.624 -18.1088 -26.0157 13.624 -18.0036 -18.7527 13.624 -17.6009 
-11.4898 13.624 -18.2538 -4.22688 13.624 -19.5552 3.03604 13.624 -18.3694 
10.299 13.624 -18.8675 17.5619 13.624 -18.8037 24.8248 13.624 -17.7425 
32.0877 13.624 -17.0188 39.3507 13.624 -16.662 -11.4898 20.8869 -16.5428 
-4.22688 20.8869 -16.686 3.03604 20.8869 -16.6491 10.299 20.8869 -16.9431 
-40.5415 -22.9931 -16.2762 -33.2786 -26.1449 -16.2762 -26.0157 -25.9989 -16.2762 
-26.0157 -29.9536 -9.2757 -18.7527 -24.2448 -16.2762 3.03604 -23.551 -16.2762 
10.299 -23.8232 -16.2762 24.8248 -23.4562 -16.2762 32.0877 -24.1224 -16.2762 
39.3507 -24.6291 -16.2762 46.6136 -23.3838 -16.2762 -41.1305 -22.6907 -16.2762 
-47.8044 -16.2367 -16.2762 -47.8044 -22.6907 -12.4521 -14.1765 -22.6907 -16.2762 
-11.4898 -21.525 -16.2762 -11.4898 -22.6907 -15.3134 0.569701 -22.6907 -16.2762 
-4.22688 -20.028 -16.2762 -4.22688 -22.6907 -13.8303 16.711 -22.6907 -16.2762 
18.8806 -22.6907 -16.2762 17.5619 -22.4103 -16.2762 17.5619 -22.6907 -16.0384 
48.1517 -22.6907 -16.2762 53.8765 -17.7678 -16.2762 53.8765 -22.6907 -9.46353 
-48.2799 -15.4277 -16.2762 -55.0674 -15.4277 -10.6707 56.1005 -15.4277 -16.2762 
61.1394 -10.3085 -16.2762 61.1394 -15.4277 -12.4731 -52.4746 -8.16481 -16.2762 
-55.0674 -8.16481 -14.6101 62.6697 -8.16481 -16.2762 61.1394 -4.33069 -16.2762 
-54.4224 -0.901881 -16.2762 -55.0674 -0.901881 -15.9338 58.787 -0.901881 -16.2762 
61.1394 -0.901881 -15.3473 -51.0848 6.36104 -16.2762 -55.0674 6.36104 -13.9715 
-47.8044 10.655 -16.2762 46.6136 11.4171 -16.2762 56.8037 6.36104 -16.2762 
53.8765 8.85222 -16.2762 61.1394 6.36104 -13.324 -55.0674 13.624 -9.20261 
-44.2274 13.624 -16.2762 -47.8044 13.624 -14.8671 -40.5415 15.4285 -16.2762 
-33.2786 16.8487 -16.2762 -26.0157 17.4917 -16.2762 -18.7527 18.225 -16.2762 
17.5619 20.5606 -16.2762 24.8248 17.2503 -16.2762 32.0877 15.2683 -16.2762 
41.6535 13.624 -16.2762 39.3507 14.3672 -16.2762 46.6136 13.624 -15.2835 
53.8765 13.624 -12.451 -40.5415 20.8869 -11.4539 -33.2786 20.8869 -13.4603 
-26.0157 20.8869 -14.4385 -13.304 20.8869 -16.2762 -18.7527 20.8869 -15.4017 
-11.4898 21.3307 -16.2762 -4.22688 21.5279 -16.2762 3.03604 21.4825 -16.2762 
16.3946 20.8869 -16.2762 10.299 21.8688 -16.2762 17.5619 20.8869 -16.1264 
24.8248 20.8869 -14.3359 32.0877 20.8869 -13.1106 39.3507 20.8869 -11.9599 
46.6136 20.8869 -9.41469 -11.4898 28.1498 -10.3344 -4.22688 28.1498 -9.87321 
3.03604 28.1498 -9.82687 10.299 28.1498 -9.6335 -26.0157 -30.0546 -9.01325 
-47.8044 -24.6719 -9.01325 -40.5415 -28.5781 -9.01325 -32.1978 -29.9536 -9.01325 
-33.2786 -29.9362 -9.01325 -25.1592 -29.9536 -9.01325 -26.0157 -29.9536 -8.30968 
-18.7527 -29.1025 -9.01325 -11.4898 -26.6222 -9.01325 -4.22688 -25.4159 -9.01325 
3.03604 -26.8862 -9.01325 10.299 -26.6701 -9.01325 17.5619 -26.2814 -9.01325 
24.8248 -27.1899 -9.01325 32.0877 -27.4807 -9.01325 39.3507 -26.9512 -9.01325 
46.6136 -26.272 -9.01325 53.8765 -22.8391 -9.01325 -50.391 -22.6907 -9.01325 
-55.0674 -17.2108 -9.01325 54.1434 -22.6907 -9.01325 53.8765 -22.6907 -8.64269 
61.1394 -18.051 -9.01325 -56.3535 -15.4277 -9.01325 63.4732 -15.4277 -9.01325 
61.1394 -15.4277 -1.76335 -59.6341 -8.16481 -9.01325 67.4813 -8.16481 -9.01325 
-60.7786 -0.901881 -9.01325 -62.3303 -0.901881 -4.42104 67.0699 -0.901881 -9.01325 
-59.4384 6.36104 -9.01325 65.6586 6.36104 -9.01325 61.1394 11.4573 -9.01325 
-55.2749 13.624 -9.01325 -55.0674 13.8257 -9.01325 -47.8044 19.864 -9.01325 
58.6106 13.624 -9.01325 53.8765 17.198 -9.01325 61.1394 13.624 -4.35956 
-45.6143 20.8869 -9.01325 -47.8044 20.8869 -7.2538 -40.5415 22.8991 -9.01325 
-33.2786 24.6984 -9.01325 -26.0157 26.324 -9.01325 -18.7527 27.811 -9.01325 
17.5619 27.2639 -9.01325 24.8248 25.745 -9.01325 32.0877 24.7986 -9.01325 
39.3507 23.3956 -9.01325 47.3541 20.8869 -9.01325 46.6136 21.2201 -9.01325 
-26.0157 28.1498 -4.97233 -17.0162 28.1498 -9.01325 -18.7527 28.1498 -8.25368 
-11.4898 29.1135 -9.01325 -4.22688 28.7163 -9.01325 3.03604 28.6881 -9.01325 
12.6306 28.1498 -9.01325 10.299 28.5442 -9.01325 17.5619 28.1498 -6.75953 
24.8248 28.1498 -3.02562 -47.8044 -25.1664 -1.75032 -40.5415 -28.4174 -1.75032 
-33.2786 -29.4103 -1.75032 -26.0157 -29.0245 -1.75032 -18.7527 -27.8465 -1.75032 
-11.4898 -25.8249 -1.75032 -4.22688 -24.6345 -1.75032 3.03604 -25.0808 -1.75032 
10.299 -24.0081 -1.75032 17.5619 -23.3418 -1.75032 24.8248 -24.2349 -1.75032 
32.0877 -24.773 -1.75032 39.3507 -24.6758 -1.75032 46.6136 -23.2383 -1.75032 
-51.6661 -22.6907 -1.75032 -55.0674 -19.5407 -1.75032 -4.22688 -22.6907 3.96233 
3.03604 -22.6907 3.16712 10.299 -22.6907 0.515711 17.5619 -22.6907 -0.9548 
24.8248 -22.6907 -0.182017 32.0877 -22.6907 0.967071 39.3507 -22.6907 -0.125155 
47.8295 -22.6907 -1.75032 46.6136 -22.6907 -1.1041 53.8765 -19.9669 -1.75032 
-58.1547 -15.4277 -1.75032 61.1332 -15.4277 -1.75032 53.8765 -15.4277 4.57079 
61.1394 -15.4217 -1.75032 -61.7253 -8.16481 -1.75032 -62.3303 -5.10286 -1.75032 
66.2744 -8.16481 -1.75032 61.1394 -8.16481 3.8865 -63.1604 -0.901881 -1.75032 
-62.3303 5.89933 -1.75032 67.6016 -0.901881 -1.75032 -62.2731 6.36104 -1.75032 
66.6861 6.36104 -1.75032 -59.8433 13.624 -1.75032 -55.0674 18.4947 -1.75032 
53.8765 20.1855 -1.75032 61.9956 13.624 -1.75032 61.1394 14.8828 -1.75032 
61.1394 13.624 0.954045 -51.9583 20.8869 -1.75032 -47.8044 23.2994 -1.75032 
-40.5415 26.9245 -1.75032 -33.2786 28.1003 -1.75032 32.0877 27.1008 -1.75032 
39.3507 25.7478 -1.75032 52.6328 20.8869 -1.75032 46.6136 24.2812 -1.75032 
-32.991 28.1498 -1.75032 -33.2786 28.1498 -1.23338 -26.0157 29.3221 -1.75032 
-18.7527 30.4832 -1.75032 -11.4898 31.1361 -1.75032 -4.22688 30.9949 -1.75032 
3.03604 31.0507 -1.75032 10.299 30.961 -1.75032 17.5619 29.892 -1.75032 
26.8642 28.1498 -1.75032 24.8248 28.5939 -1.75032 -47.8044 -23.2727 5.5126 
-40.5415 -26.0874 5.5126 -33.2786 -26.8736 5.5126 -26.0157 -26.7838 5.5126 
-18.7527 -24.798 5.5126 -11.4898 -22.9847 5.5126 -48.842 -22.6907 5.5126 
-55.0674 -17.6364 5.5126 -47.8044 -22.6907 6.85236 -40.5415 -22.6907 12.5856 
-8.89221 -22.6907 5.5126 -11.4898 -22.6907 6.96995 -4.22688 -22.1698 5.5126 
3.03604 -21.5561 5.5126 10.299 -19.7635 5.5126 17.5619 -17.5522 5.5126 
24.8248 -16.9852 5.5126 32.0877 -17.5639 5.5126 39.3507 -16.7208 5.5126 
46.6136 -16.6415 5.5126 -56.7634 -15.4277 5.5126 -55.0674 -15.4277 8.65407 
24.8248 -15.4277 10.2226 32.0877 -15.4277 7.73249 39.3507 -15.4277 7.09335 
51.1499 -15.4277 5.5126 46.6136 -15.4277 6.65879 53.8765 -13.5796 5.5126 
-60.9326 -8.16481 5.5126 -62.3303 -2.28662 5.5126 46.6136 -8.16481 11.4186 
58.1913 -8.16481 5.5126 53.8765 -8.16481 8.00078 61.1394 -5.65546 5.5126 
-62.6182 -0.901881 5.5126 -62.3303 3.49175 5.5126 -62.3303 -0.901881 6.27832 
53.8765 -0.901881 11.8308 63.5843 -0.901881 5.5126 61.1394 -0.901881 7.91094 
-62.1189 6.36104 5.5126 63.9483 6.36104 5.5126 61.1394 11.3589 5.5126 
61.1394 6.36104 8.96957 -59.8339 13.624 5.5126 -55.0674 18.9367 5.5126 
-55.0674 13.624 12.5332 59.3078 13.624 5.5126 53.8765 18.9656 5.5126 
53.8765 13.624 10.1375 -52.8608 20.8869 5.5126 -47.8044 24.0475 5.5126 
-40.5415 27.7013 5.5126 32.0877 26.993 5.5126 39.3507 25.2628 5.5126 
50.5101 20.8869 5.5126 46.6136 22.8878 5.5126 46.6136 20.8869 8.07537 
-37.7132 28.1498 5.5126 -33.2786 28.7965 5.5126 -33.2786 28.1498 7.16423 
-26.0157 29.4953 5.5126 -26.0157 28.1498 9.39409 -18.7527 30.0696 5.5126 
-18.7527 28.1498 10.2037 -11.4898 30.6133 5.5126 -11.4898 28.1498 11.2802 
-4.22688 30.7049 5.5126 -4.22688 28.1498 11.5598 3.03604 30.9703 5.5126 
3.03604 28.1498 11.5471 10.299 31.1222 5.5126 10.299 28.1498 11.9901 
17.5619 30.2177 5.5126 17.5619 28.1498 10.0086 27.0959 28.1498 5.5126 
24.8248 28.6727 5.5126 24.8248 28.1498 6.69417 -33.2786 -23.7704 12.7755 
-26.0157 -23.8847 12.7755 -18.7527 -22.8595 12.7755 -47.8044 -19.3752 12.7755 
-40.0089 -22.6907 12.7755 -40.5415 -22.5952 12.7755 -33.2786 -22.6907 15.4185 
-26.0157 -22.6907 15.3814 -17.8054 -22.6907 12.7755 -18.7527 -22.6907 13.2058 
[...]
POINT_DATA 538
SCALARS ImageScalars float
LOOKUP_TABLE default
0 0 0 0 0 0 0 0 0 
0 0 0 0 0 0 0 0 0 
0 0 0 0 0 0 0 0 0 
0 0 0 0 0 0 0 0 0 
0 0 0 0 0 0 0 0 0 
0 0 0 0 0 0 0 0 0 
0 0 0 0 0 0 0 0 0 
0 0 0 0 0 0 0 0 0 
0 0 0 0 0 0 0 0 0 
0 0 0 0 0 0 0 0 0 
0 0 0 0 0 0 0 0 0 
0 0 0 0 0 0 0 0 0 
0 0 0 0 0 0 0 0 0 
0 0 0 0 0 0 0 0 0 
0 0 0 0 0 0 0 0 0 
0 0 0 0 0 0 0 0 0 
0 0 0 0 0 0 0 0 0 
0 0 0 0 0 0 0 0 0 
0 0 0 0 0 0 0 0 0 
0 0 0 0 0 0 0 0 0 
0 0 0 0 0 0 0 0 0 
0 0 0 0 0 0 0 0 0 
0 0 0 0 0 0 0 0 0 
0 0 0 0 0 0 0 0 0 
0 0 0 0 0 0 0 0 0 
0 0 0 0 0 0 0 0 0 
0 0 0 0 0 0 0 0 0 
0 0 0 0 0 0 0 0 0 
0 0 0 0 0 0 0 0 0 
0 0 0 0 0 0 0 0 0 
0 0 0 0 0 0 0 0 0 
0 0 0 0 0 0 0 0 0 
0 0 0 0 0 0 0 0 0 
0 0 0 0 0 0 0 0 0 
0 0 0 0 0 0 0 0 0 
0 0 0 0 0 0 0 0 0 
0 0 0 0 0 0 0 0 0 
0 0 0 0 0 0 0 0 0 
0 0 0 0 0 0 0 0 0 
0 0 0 0 0 0 0 0 0 
0 0 0 0 0 0 0 0 0 
0 0 0 0 0 0 0 0 0 
0 0 0 0 0 0 0 0 0 
0 0 0 0 0 0 0 0 0 
0 0 0 0 0 0 0 0 0 
0 0 0 0 0 0 0 0 0 
0 0 0 0 0 0 0 0 0 
0 0 0 0 0 0 0 0 0 
0 0 0 0 0 0 0 0 0 
0 0 0 0 0 0 0 0 0 
0 0 0 0 0 0 0 0 0 
0 0 0 0 0 0 0 0 0 
0 0 0 0 0 0 0 0 0 
0 0 0 0 0 0 0 0 0 
0 0 0 0 0 0 0 0 0 
0 0 0 0 0 0 0 0 0 
0 0 0 0 0 0 0 0 0 
0 0 0 0 0 0 0 0 0 
0 0 0 0 0 0 0 0 0 
0 0 0 0 0 0 0 
NORMALS Normals float
0.34152 0.477156 0.809745 0.101165 0.45224 0.886141 -0.0843757 0.431561 0.898129 
-0.192089 0.523716 0.829954 0.169561 0.592065 0.787851 -0.0558584 0.658863 0.750186 
0.0763287 0.599698 0.796578 0.0745796 0.5642 0.822263 -0.0342594 0.587925 0.80819 
-0.238501 0.668216 0.704702 0.417546 0.292086 0.860431 0.265335 0.221538 0.938359 
0.0912903 0.127364 0.987646 -0.0674748 0.100358 0.992661 -0.0574572 0.128826 0.990001 
-0.0970537 0.342888 0.934349 -0.00203355 0.270653 0.962675 0.114081 0.0850323 0.989826 
-0.0109397 0.283515 0.958905 -0.0130516 0.259574 0.965635 0.0447786 0.182948 0.982102 
0.0254778 0.149359 0.988455 0.0836151 0.207152 0.974729 -0.222834 0.253776 0.941245 
-0.420236 0.310398 0.852675 0.355738 0.160217 0.92075 0.109751 0.108114 0.988062 
-0.029504 -0.0302506 0.999107 -0.054687 -0.0367612 0.997827 0.0927333 -0.0812454 0.992371 
0.000734252 0.11938 0.992848 -0.220155 0.123854 0.96757 0.204913 -0.179895 0.962106 
0.131346 0.164038 0.977671 -0.171416 0.144176 0.974592 -0.022846 -0.0820021 0.99637 
0.0876959 -0.0320573 0.995631 0.0451808 -0.0297338 0.998536 -0.0896773 -0.0331796 0.995418 
-0.198875 0.0402042 0.9792 -0.514522 0.0977022 0.851893 0.308272 -0.0522516 0.949862 
0.0838454 -0.054812 0.99497 -0.0508318 -0.0390325 0.997944 -0.11726 -0.0488668 0.991898 
0.0549788 -0.100022 0.993465 0.155497 -0.151345 0.976174 -0.28983 0.0916212 0.952683 
0.218045 -0.0564163 0.974307 0.275609 -0.103265 0.955707 -0.287166 -0.0266498 0.95751 
-0.0860861 -0.0989991 0.991357 0.081264 -0.131907 0.987925 0.0778601 -0.162203 0.983681 
-0.126893 -0.159195 0.979058 -0.296242 -0.105347 0.949285 0.334877 -0.248154 0.908998 
0.124991 -0.210793 0.969507 -0.0238527 -0.15122 0.988212 -0.118136 -0.118284 0.985927 
-0.0149771 -0.0855496 0.996221 0.172411 -0.180845 0.968282 -0.140726 -0.0788056 0.986907 
0.00434629 0.111652 0.993738 0.19955 -0.249162 0.94768 -0.170228 -0.165987 0.971324 
-0.124572 -0.0770771 0.989212 0.0197679 -0.160696 0.986806 0.00980943 -0.235043 0.971936 
-0.0633917 -0.342823 0.937259 -0.266892 -0.288629 0.91949 0.176143 -0.412807 0.893624 
0.045541 -0.387417 0.920779 -0.0337722 -0.28842 0.956908 0.0177948 -0.181373 0.983253 
0.132713 -0.168071 0.976801 0.0065963 -0.249007 0.968479 -0.046351 -0.0488353 0.997731 
0.0296104 -0.229251 0.972917 -0.0779644 -0.252461 0.964461 -0.114966 -0.224399 0.967692 
-0.0768624 -0.296557 0.951917 -0.10356 -0.380496 0.918966 0.0793584 -0.402825 0.91183 
0.00695003 -0.480308 0.877072 0.0163492 -0.416421 0.909025 -0.0311964 -0.443942 0.895512 
0.345078 0.493711 0.79823 0.116811 0.680178 0.723681 -0.0914561 0.646403 0.757496 
-0.0505448 0.989351 0.136491 -0.218031 0.611514 0.7606 0.162651 0.657831 0.735393 
-0.0591951 0.741515 0.668319 0.0822707 0.645284 0.7595 0.0731451 0.663322 0.744751 
-0.0510832 0.734891 0.676259 -0.253476 0.706659 0.660593 0.358374 0.486489 0.796804 
0.432092 0.321452 0.842594 0.5572 0.669982 0.490563 -0.182063 0.61699 0.765622 
-0.155592 0.61029 0.776748 -0.176151 0.700355 0.691718 0.144753 0.630414 0.762643 
0.0602221 0.517696 0.853442 0.0744282 0.799484 0.596058 -0.0324337 0.664701 0.746405 
-0.00931844 0.651964 0.758193 -0.0283707 0.64545 0.763276 -0.0262811 0.678098 0.734502 
-0.306637 0.686139 0.659687 -0.466947 0.44019 0.766937 -0.491309 0.87098 -0.00320973 
0.433966 0.300698 0.849267 0.725799 0.494653 0.478052 -0.481449 0.380715 0.78947 
-0.588222 0.251223 0.768689 -0.708451 0.585011 0.394791 0.511012 0.191331 0.838009 
0.636412 0.224401 0.737986 -0.609531 0.141944 0.779951 -0.508199 -0.0777082 0.857727 
0.53302 -0.036866 0.845299 0.561339 -0.034758 0.826856 -0.400533 -0.175229 0.899371 
-0.505782 -0.219771 0.834197 0.413328 -0.267753 0.870327 0.58184 -0.310762 0.751592 
0.371933 -0.3599 0.855651 -0.163629 -0.423873 0.890818 -0.357911 -0.311447 0.880284 
-0.290655 -0.394055 0.871917 -0.553026 -0.402011 0.72976 0.594086 -0.575071 0.562454 
0.284556 -0.436681 0.853427 0.409231 -0.475011 0.779035 0.182453 -0.491876 0.851334 
0.0770814 -0.493775 0.866167 0.0367999 -0.432177 0.901038 0.082332 -0.33361 0.939109 
-0.143978 -0.489186 0.860213 -0.138932 -0.386879 0.911604 -0.090633 -0.358386 0.929164 
-0.136982 -0.407351 0.90294 -0.110316 -0.407822 0.906373 -0.219532 -0.474552 0.852412 
-0.389265 -0.601713 0.697434 0.242626 -0.742421 0.624455 0.145149 -0.666741 0.731019 
0.107945 -0.584898 0.803892 0.0884799 -0.408204 0.908593 0.122264 -0.440962 0.889159 
0.077888 -0.423103 0.902728 0.00591947 -0.504835 0.863196 0.014912 -0.447193 0.894313 
-0.129312 -0.493052 0.860336 -0.0358918 -0.494694 0.868326 -0.147987 -0.504989 0.850344 
-0.161991 -0.594409 0.787679 -0.133374 -0.631728 0.76363 -0.185472 -0.71407 0.675058 
-0.32428 -0.76695 0.553743 0.0576047 -0.834618 0.547809 -0.0232455 -0.864869 0.501458 
-0.00984547 -0.863895 0.503575 -0.084236 -0.872619 0.481083 -0.0502856 0.991525 0.119786 
0.561917 0.78253 0.268133 0.326782 0.923338 0.201646 0.0698694 0.984128 0.163127 
0.0904384 0.981197 0.170512 -0.0724481 0.990023 0.12085 -0.0553758 0.994598 0.0877974 
-0.24419 0.958726 0.145657 -0.231026 0.954135 0.190404 0.0211427 0.983828 0.177864 
0.0818912 0.994662 0.0627746 -0.0430748 0.999072 -2.28852e-05 0.0379615 0.998998 0.0237251 
0.0856365 0.995734 0.034351 -0.0165499 0.999367 -0.0315034 -0.0858744 0.996162 0.0169642 
-0.261007 0.96471 -0.0347859 -0.484751 0.874031 -0.0329637 0.637855 0.708626 0.301644 
0.744924 0.54003 0.391735 -0.487936 0.872471 -0.0266806 -0.478919 0.876705 -0.0450008 
-0.690309 0.711351 0.13211 0.769827 0.502145 0.393976 -0.803437 0.582781 0.121881 
-0.668142 0.561344 -0.488344 0.853876 0.244416 0.459518 -0.960341 0.237321 0.146371 
0.878907 -0.00854928 0.476917 0.970396 0.0223639 0.240481 -0.949092 -0.094434 0.300511 
0.828268 -0.259636 0.496549 -0.813537 -0.43336 0.387758 -0.613088 -0.644381 0.457051 
0.600322 -0.573831 0.557074 0.594864 -0.579411 0.557153 0.421144 -0.748966 0.511555 
-0.54988 -0.675916 0.490683 -0.459272 -0.736311 0.496905 -0.751429 -0.643446 0.146051 
0.366469 -0.773335 0.517352 0.426698 -0.797151 0.427176 0.265244 -0.785255 0.559482 
0.187292 -0.816041 0.546807 0.176361 -0.819131 0.545822 0.162858 -0.844758 0.509766 
-0.165958 -0.871476 0.461506 -0.1441 -0.842177 0.51959 -0.149728 -0.839136 0.522907 
-0.205535 -0.827312 0.522791 -0.343552 -0.777908 0.526147 -0.330728 -0.776284 0.536659 
0.170088 -0.930062 0.32566 0.137654 -0.856344 0.497721 0.160274 -0.871899 0.462713 
0.052952 -0.876257 0.478926 -0.0267836 -0.887025 0.460943 -0.0109862 -0.88386 0.467623 
-0.111919 -0.884576 0.452768 -0.0867873 -0.886196 0.455109 -0.164793 -0.917084 0.363042 
-0.182514 -0.957313 0.224142 0.499194 0.862227 -0.0858503 0.248633 0.957627 -0.145366 
0.0452417 0.979292 -0.197335 -0.100289 0.969694 -0.222789 -0.217331 0.936879 -0.273908 
-0.204627 0.948565 -0.241563 -0.0520388 0.974474 -0.218386 -0.0357725 0.93733 -0.346601 
-0.114449 0.877364 -0.465977 0.00631983 0.821045 -0.570828 0.0919851 0.792571 -0.602802 
0.0233552 0.844123 -0.53564 -0.102746 0.8012 -0.589509 -0.269007 0.757452 -0.594896 
0.616198 0.786597 -0.0395612 0.745946 0.665949 0.00873777 -0.0847507 0.96413 -0.251535 
-0.111199 0.917204 -0.382586 -0.163801 0.888846 -0.427927 -0.013063 0.818333 -0.574596 
0.10022 0.756069 -0.646773 -0.00296797 0.78206 -0.623196 -0.111256 0.728307 -0.676159 
-0.273838 0.783014 -0.558482 -0.235717 0.758896 -0.607054 -0.34392 0.851905 -0.394939 
0.827918 0.560513 0.0194189 -0.667554 0.561203 -0.489308 -0.434126 0.460199 -0.774436 
-0.667799 0.560941 -0.489274 0.954187 0.287989 0.0811731 0.978588 0.181194 0.0976397 
-0.836191 0.396041 -0.379389 -0.541511 0.517565 -0.662489 0.9929 0.0383064 0.112618 
0.974552 -0.159869 0.157134 -0.960213 0.0240503 -0.278232 0.971667 -0.174223 0.15972 
-0.929531 -0.340836 -0.140725 0.820663 -0.537438 0.194093 0.693705 -0.6829 0.228956 
-0.461654 -0.88323 0.0823461 -0.807109 -0.590279 -0.0120274 -0.773716 -0.633451 0.0101794 
-0.791011 -0.585891 -0.176164 0.577636 -0.782905 0.231076 0.433775 -0.870985 0.230703 
0.298028 -0.917181 0.264494 0.154399 -0.958849 0.238262 -0.182747 -0.976625 0.113165 
-0.19033 -0.974216 0.121152 -0.435329 -0.896428 0.0831041 -0.345347 -0.932483 0.105878 
0.154304 -0.959491 0.235729 0.152437 -0.965274 0.212154 0.157777 -0.970771 0.180859 
0.123652 -0.983989 0.128357 0.0342041 -0.99566 0.0865464 -0.00606242 -0.992454 0.122466 
-0.00226337 -0.989692 0.143192 -0.0777467 -0.983548 0.163062 -0.160044 -0.969868 0.183689 
-0.189462 -0.969962 0.152571 -0.192411 -0.966156 0.171815 0.422472 0.851719 -0.309986 
0.219428 0.903744 -0.367557 0.0416791 0.932834 -0.357888 -0.135172 0.928068 -0.347014 
-0.24298 0.917678 -0.314368 -0.168948 0.944273 -0.282496 0.457182 0.834015 -0.308875 
0.720994 0.624946 -0.299349 0.426171 0.84169 -0.331566 0.227967 0.848889 -0.476885 
-0.141147 0.950999 -0.275098 -0.163223 0.94637 -0.278823 -0.0927583 0.96089 -0.260935 
-0.147154 0.911683 -0.38364 -0.258396 0.932253 -0.253253 -0.173789 0.928826 -0.32723 
-0.00906543 0.851685 -0.523975 -0.0152975 0.717899 -0.695979 -0.0396904 0.732432 -0.679682 
-0.0888485 0.712804 -0.695713 0.768359 0.571889 -0.287347 0.72484 0.564723 -0.394582 
-0.23944 0.918135 -0.315749 -0.0722249 0.766677 -0.637958 -0.0510598 0.745845 -0.66416 
-0.323839 0.532064 -0.782328 -0.137785 0.669948 -0.72951 -0.439658 0.425926 -0.790751 
0.903319 0.333688 -0.269568 0.964904 0.121469 -0.23282 -0.321501 0.54439 -0.774775 
-0.470896 0.50522 -0.723194 -0.413364 0.475424 -0.776596 -0.568928 0.44911 -0.688928 
0.971399 0.0720002 -0.226276 0.972201 -0.060606 -0.226169 0.96244 0.072546 -0.261623 
-0.483236 0.276604 -0.830646 -0.779636 0.19839 -0.593978 -0.627817 0.244508 -0.73896 
0.96219 -0.150376 -0.227109 -0.842851 -0.216708 -0.492585 -0.74443 -0.451519 -0.491889 
-0.690157 -0.178874 -0.701204 0.839912 -0.491461 -0.230247 0.701732 -0.691349 -0.172073 
0.673845 -0.425013 -0.604397 -0.692893 -0.537991 -0.480068 -0.525603 -0.761877 -0.37853 
-0.565753 -0.441013 -0.696729 0.619935 -0.771438 -0.143403 0.47939 -0.870309 -0.112907 
0.298844 -0.939829 -0.165571 -0.220317 -0.945146 -0.241162 -0.241393 -0.928081 -0.28354 
-0.436904 -0.82512 -0.358178 -0.369954 -0.848675 -0.378001 -0.374906 -0.777445 -0.505 
0.229991 -0.960486 -0.156751 0.12277 -0.98225 -0.141818 0.131618 -0.962461 -0.237374 
0.0856445 -0.984117 -0.155494 0.0834157 -0.92096 -0.380623 0.0754059 -0.97463 -0.210736 
0.0524145 -0.890675 -0.451609 0.042407 -0.973174 -0.226127 0.0385839 -0.867728 -0.49554 
0.0244198 -0.977866 -0.2078 0.0080241 -0.869534 -0.493807 0.0284409 -0.977503 -0.208997 
0.0140421 -0.831165 -0.555848 -0.0502663 -0.981273 -0.185948 -0.0489429 -0.793577 -0.606498 
-0.162733 -0.969691 -0.182255 -0.167583 -0.864681 -0.473543 -0.216262 -0.953751 -0.208782 
-0.21552 -0.954981 -0.20387 -0.216321 -0.938816 -0.268011 0.072976 0.933941 -0.349898 
-0.0606549 0.919183 -0.389131 -0.15123 0.938515 -0.310352 0.486442 0.71774 -0.49822 
0.216984 0.855476 -0.470189 0.230386 0.846655 -0.479686 0.102984 0.88382 -0.456351 
-0.0585844 0.898828 -0.434368 -0.150165 0.940463 -0.304925 -0.149343 0.934066 -0.324374 
-0.144015 0.947224 -0.286404 -0.161671 0.943421 -0.289516 -0.0731332 0.924098 -0.375093 
-0.123747 0.953247 -0.275693 -0.320782 0.938478 -0.1279 0.621715 0.567767 -0.539547 
0.709867 0.411476 -0.571644 0.52975 0.515466 -0.673542 -0.185409 0.718798 -0.670039 
-0.0174076 0.640696 -0.767597 -0.335121 0.921561 -0.196009 -0.340486 0.911174 -0.232016 
-0.264648 0.823175 -0.502338 -0.239452 0.666107 -0.706374 0.750714 0.30833 -0.584261 
0.710182 0.287075 -0.642829 -0.475186 0.589358 -0.653342 -0.293106 0.589126 -0.753007 
-0.308861 0.615297 -0.725269 -0.35678 0.475365 -0.804199 0.788361 0.0589041 -0.612386 
0.655382 0.0164413 -0.755119 -0.403171 0.229725 -0.885821 -0.474235 0.277945 -0.835373 
-0.432078 0.282258 -0.856527 -0.495743 0.0826342 -0.864529 0.722789 -0.194557 -0.663117 
0.668741 -0.40687 -0.622288 0.632801 -0.18461 -0.751986 -0.290722 -0.107828 -0.950712 
-0.346515 -0.0584776 -0.93622 -0.504931 -0.0904089 -0.858412 -0.506172 -0.166976 -0.846114 
-0.480506 -0.0845934 -0.872902 0.662374 -0.41978 -0.620521 0.343823 -0.417995 -0.840872 
0.163036 -0.378629 -0.911076 0.083199 -0.358623 -0.929767 -0.100531 -0.35235 -0.930453 
-0.057578 -0.40671 -0.911741 -0.0959188 -0.394503 -0.913875 -0.235566 -0.402033 -0.884804 
-0.461839 -0.400744 -0.791271 -0.381862 -0.530975 -0.75647 -0.386671 -0.395041 -0.833323 
0.437709 -0.663865 -0.606377 0.432517 -0.668163 -0.605382 0.432638 -0.663318 -0.610602 
0.242617 -0.750284 -0.614988 0.228676 -0.612471 -0.756694 0.133945 -0.779691 -0.61167 
0.093105 -0.552983 -0.827974 0.0681049 -0.783562 -0.61757 0.060742 -0.527682 -0.847268 
0.0463527 -0.785961 -0.616536 0.0833031 -0.501767 -0.860982 0.0398784 -0.815421 -0.577494 
0.0653456 -0.545398 -0.835626 0.0011429 -0.826628 -0.562747 -0.0642633 -0.511451 -0.856906 
0.00164341 -0.768183 -0.640228 -0.0849439 -0.496382 -0.863938 -0.050565 -0.744852 -0.665311 
-0.0813814 -0.478654 -0.874224 -0.145164 -0.701368 -0.697861 -0.108125 -0.475151 -0.873236 
-0.181559 -0.705643 -0.684912 -0.118841 -0.52694 -0.841553 -0.192214 -0.69751 -0.690315 
-0.173315 -0.648261 -0.741431 -0.264881 -0.67376 -0.689845 -0.258452 -0.679016 -0.687124 
-0.258261 -0.669279 -0.696683 0.32174 0.61791 -0.717405 0.153642 0.67316 -0.72336 
-0.0511484 0.777072 -0.62733 -0.135148 0.719289 -0.681439 -0.100842 0.666722 -0.738453 
-0.148357 0.750063 -0.644512 -0.0824184 0.765691 -0.637906 0.417863 0.508523 -0.752857 
0.523966 0.267538 -0.80863 0.340441 0.506892 -0.791934 0.156137 0.466289 -0.870744 
-0.037557 0.431877 -0.90115 -0.145154 0.49469 -0.856862 -0.073422 0.508025 -0.858208 
-0.185461 0.707886 -0.681544 -0.116624 0.648178 -0.752505 -0.193543 0.69372 -0.693753 
-0.079224 0.759607 -0.645539 -0.00067719 0.398087 -0.917347 -0.0864261 0.766322 -0.636617 
-0.0813319 0.763651 -0.640485 -0.348959 0.710738 -0.610802 0.545191 0.203811 -0.813159 
0.507964 0.197518 -0.838426 0.288262 0.108345 -0.951402 0.130182 0.0597775 -0.989686 
-0.031579 0.0491473 -0.998292 -0.132506 0.084527 -0.987571 -0.0110915 0.12617 -0.991947 
0.0110762 0.122562 -0.992399 -0.258595 0.230427 -0.9381 -0.0268918 0.198776 -0.979676 
0.116326 0.192126 -0.974452 -0.47449 0.550991 -0.68649 -0.21539 0.368814 -0.904203 
-0.477145 0.502355 -0.721091 0.478469 -0.037356 -0.87731 0.420868 -0.0531939 -0.905561 
0.233032 -0.14135 -0.962141 0.081262 -0.199269 -0.97657 -0.0186939 -0.201969 -0.979214 
-0.0597724 -0.141736 -0.988098 -0.0199436 0.0056517 -0.999785 0.000239999 -0.107057 -0.994253 
-0.139167 -0.0472498 -0.989141 -0.052409 0.0945201 -0.994142 0.0969636 -0.0610263 -0.993415 
-0.057577 -0.0565876 -0.996736 -0.381091 0.192224 -0.904334 -0.290306 0.0824166 -0.953378 
0.396107 -0.229509 -0.889058 0.387852 -0.238219 -0.890406 0.390268 -0.231011 -0.891249 
0.156494 -0.346897 -0.924755 0.156598 -0.274814 -0.948659 0.0821917 -0.357519 -0.930282 
0.0524587 -0.315411 -0.947504 0.0264044 -0.299133 -0.953846 0.0756533 -0.260692 -0.962453 
0.0259206 -0.118365 -0.992632 -0.0501298 -0.154257 -0.986758 -0.0354937 -0.194119 -0.980336 
-0.0667114 -0.102209 -0.992523 -0.0891523 -0.329697 -0.939868 -0.0459972 -0.242998 -0.968936 
-0.0533184 -0.377945 -0.924292 -0.0521889 -0.302912 -0.951589 -0.252039 -0.15129 -0.955818 
-0.136106 -0.303396 -0.943094 -0.177274 -0.238933 -0.954717 0.0786562 -0.352723 -0.932416 
0.0508834 -0.342579 -0.93811 0.0454987 -0.314636 -0.948121 0.101865 -0.352652 -0.930194 
0.110998 -0.317111 -0.941871 0.0710678 -0.460965 -0.884568 0.0851156 -0.311957 -0.946276 
-0.0724444 -0.415926 -0.906509 -0.0772088 -0.277665 -0.95757 -0.0873427 -0.37804 -0.92166 
-0.0834672 -0.336395 -0.938015 -0.0983527 -0.347586 -0.932476 -0.0935891 -0.366961 -0.925516 
-0.0969211 -0.343473 -0.934148 
