# vtk DataFile Version 4.2
vtk output
ASCII
DATASET POLYDATA
POINTS 512 float
-3.73379 -42.9606 -13.4824 4.19711 -42.9606 -14.1888 12.128 -42.9606 -14.5354 
-11.6647 -35.0297 -15.1059 -3.73379 -35.0297 -16.3247 4.19711 -35.0297 -17.0424 
12.128 -35.0297 -16.8113 20.0589 -35.0297 -16.8038 27.9898 -35.0297 -15.2059 
-19.5956 -27.0988 -14.9286 -11.6647 -27.0988 -16.3923 -3.73379 -27.0988 -17.1667 
4.19711 -27.0988 -17.8369 12.128 -27.0988 -17.9799 20.0589 -27.0988 -18.2389 
27.9898 -27.0988 -17.2406 35.9207 -27.0988 -15.4737 -27.5265 -19.1679 -15.3794 
-19.5956 -19.1679 -16.8064 -11.6647 -19.1679 -16.8488 -3.73379 -19.1679 -16.5349 
4.19711 -19.1679 -17.6058 12.128 -19.1679 -18.0996 20.0589 -19.1679 -18.2252 
27.9898 -19.1679 -18.308 35.9207 -19.1679 -16.9366 43.8516 -19.1679 -14.5597 
-35.4574 -11.237 -15.7518 -27.5265 -11.237 -16.817 -19.5956 -11.237 -17.4718 
-11.6647 -11.237 -17.8938 -3.73379 -11.237 -18.1805 4.19711 -11.237 -19.6098 
12.128 -11.237 -18.9335 20.0589 -11.237 -17.6676 27.9898 -11.237 -17.9955 
35.9207 -11.237 -18.0903 43.8516 -11.237 -17.3058 51.7825 -11.237 -13.7325 
-43.3882 -3.30614 -15.6423 -35.4574 -3.30614 -17.5177 -27.5265 -3.30614 -17.7243 
-19.5956 -3.30614 -16.6069 -11.6647 -3.30614 -17.5155 -3.73379 -3.30614 -18.6038 
4.19711 -3.30614 -18.1784 12.128 -3.30614 -20.8487 20.0589 -3.30614 -17.1373 
27.9898 -3.30614 -18.3379 35.9207 -3.30614 -19.5707 43.8516 -3.30614 -19.1038 
51.7825 -3.30614 -16.9409 -43.3882 4.62475 -17.3554 -35.4574 4.62475 -18.7131 
-27.5265 4.62475 -18.3608 -19.5956 4.62475 -16.5254 -11.6647 4.62475 -16.462 
-3.73379 4.62475 -19.5114 4.19711 4.62475 -17.9886 12.128 4.62475 -18.6839 
20.0589 4.62475 -17.2706 27.9898 4.62475 -18.8755 35.9207 4.62475 -20.2379 
43.8516 4.62475 -19.7986 51.7825 4.62475 -18.12 59.7133 4.62475 -13.8277 
-43.3882 12.5556 -17.1929 -35.4574 12.5556 -18.5988 -27.5265 12.5556 -18.4154 
-19.5956 12.5556 -17.4875 -11.6647 12.5556 -16.992 -3.73379 12.5556 -17.2895 
4.19711 12.5556 -16.6711 12.128 12.5556 -17.6226 20.0589 12.5556 -18.1625 
27.9898 12.5556 -19.1323 35.9207 12.5556 -20.2935 43.8516 12.5556 -19.7775 
51.7825 12.5556 -18.2724 -43.3882 20.4865 -15.3984 -35.4574 20.4865 -17.3196 
-27.5265 20.4865 -18.1485 -19.5956 20.4865 -17.929 -11.6647 20.4865 -17.8579 
-3.73379 20.4865 -17.4358 4.19711 20.4865 -17.2775 12.128 20.4865 -18.143 
20.0589 20.4865 -19.0407 27.9898 20.4865 -19.1696 35.9207 20.4865 -19.0035 
43.8516 20.4865 -18.6061 51.7825 20.4865 -16.3617 -35.4574 28.4174 -14.1097 
-27.5265 28.4174 -15.8218 -19.5956 28.4174 -16.8383 -11.6647 28.4174 -17.362 
-3.73379 28.4174 -17.3684 4.19711 28.4174 -17.4736 12.128 28.4174 -17.9593 
20.0589 28.4174 -19.0098 27.9898 28.4174 -18.0103 35.9207 28.4174 -17.2926 
43.8516 28.4174 -14.273 -11.6647 36.3483 -14.7234 -3.73379 36.3483 -15.4957 
4.19711 36.3483 -15.9352 12.128 36.3483 -16.3571 20.0589 36.3483 -16.5476 
27.9898 36.3483 -15.2832 -3.73379 -43.1714 -13.3297 4.19711 -44.1273 -13.3297 
12.128 -44.4465 -13.3297 -4.40534 -42.9606 -13.3297 -11.6647 -39.434 -13.3297 
-11.6647 -42.9606 -11.1954 16.1902 -42.9606 -13.3297 20.0589 -40.7691 -13.3297 
20.0589 -42.9606 -11.0481 27.9898 -37.4721 -13.3297 -27.5265 -35.0297 -6.35044 
-16.4693 -35.0297 -13.3297 -19.5956 -31.5648 -13.3297 -19.5956 -35.0297 -11.8718 
31.2263 -35.0297 -13.3297 35.9207 -30.5943 -13.3297 35.9207 -35.0297 -5.79677 
-35.4574 -27.0988 -7.2547 -24.3832 -27.0988 -13.3297 -27.5265 -24.4261 -13.3297 
-27.5265 -27.0988 -12.0903 39.0678 -27.0988 -13.3297 43.8516 -21.2533 -13.3297 
-43.3882 -19.1679 -7.85266 -33.665 -19.1679 -13.3297 -35.4574 -17.6406 -13.3297 
-35.4574 -19.1679 -12.622 45.5969 -19.1679 -13.3297 51.7825 -11.8517 -13.3297 
-51.3191 -11.237 -7.63261 -42.7376 -11.237 -13.3297 -43.3882 -10.5066 -13.3297 
-43.3882 -11.237 -13.0623 52.3118 -11.237 -13.3297 -47.7086 -3.30614 -13.3297 
-51.3191 -3.30614 -10.8572 56.7335 -3.30614 -13.3297 59.7133 3.68809 -13.3297 
59.7133 -3.30614 -6.13176 -51.3156 4.62475 -13.3297 -51.3191 4.62475 -13.3274 
60.0347 4.62475 -13.3297 59.7133 6.98647 -13.3297 -51.1991 12.5556 -13.3297 
-51.3191 12.5556 -13.2505 58.9038 12.5556 -13.3297 59.7133 12.5556 -10.0191 
-47.0864 20.4865 -13.3297 -51.3191 20.4865 -9.84172 -43.3882 24.4374 -13.3297 
55.3755 20.4865 -13.3297 51.7825 23.6498 -13.3297 -37.5332 28.4174 -13.3297 
-43.3882 28.4174 -10.1548 -35.4574 29.5041 -13.3297 -27.5265 32.516 -13.3297 
-19.5956 35.8019 -13.3297 35.9207 33.849 -13.3297 45.6829 28.4174 -13.3297 
43.8516 29.5073 -13.3297 -27.5265 36.3483 -9.38674 -18.3087 36.3483 -13.3297 
-19.5956 36.3483 -12.92 -11.6647 38.0898 -13.3297 -3.73379 39.2581 -13.3297 
4.19711 40.0827 -13.3297 12.128 40.8215 -13.3297 20.0589 39.8921 -13.3297 
32.2308 36.3483 -13.3297 27.9898 38.4229 -13.3297 35.9207 36.3483 -8.33093 
4.19711 44.2792 -5.69003 12.128 44.2792 -7.0096 -11.6647 -47.6893 -5.39876 
-3.73379 -50.3098 -5.39876 4.19711 -50.7376 -5.39876 12.128 -49.0796 -5.39876 
20.0589 -45.889 -5.39876 -27.5265 -35.9395 -5.39876 -19.0937 -42.9606 -5.39876 
-19.5956 -42.5768 -5.39876 -19.5956 -42.9606 -4.26547 25.8075 -42.9606 -5.39876 
27.9898 -41.6405 -5.39876 35.9207 -35.2318 -5.39876 -28.6994 -35.0297 -5.39876 
-35.4574 -29.2166 -5.39876 36.1142 -35.0297 -5.39876 35.9207 -35.0297 -5.0267 
-38.2586 -27.0988 -5.39876 -43.3882 -22.36 -5.39876 -43.3882 -27.0988 1.12599 
42.8825 -27.0988 -5.39876 43.8516 -25.849 -5.39876 -46.4492 -19.1679 -5.39876 
-51.3191 -14.2222 -5.39876 49.1974 -19.1679 -5.39876 51.7825 -16.0331 -5.39876 
-53.2879 -11.237 -5.39876 55.5761 -11.237 -5.39876 51.7825 -11.237 0.529534 
59.7133 -3.82402 -5.39876 -56.2936 -3.30614 -5.39876 59.9764 -3.30614 -5.39876 
59.7133 -3.30614 -4.96356 -58.2578 4.62475 -5.39876 -59.25 4.62475 1.61543 
62.3335 4.62475 -5.39876 59.7133 4.62475 -1.58682 -57.7944 12.5556 -5.39876 
60.9788 12.5556 -5.39876 59.7133 15.6195 -5.39876 59.7133 12.5556 -3.70246 
-54.6968 20.4865 -5.39876 -51.3191 25.0735 -5.39876 57.4389 20.4865 -5.39876 
51.7825 25.8124 -5.39876 51.7825 20.4865 1.03622 -48.0417 28.4174 -5.39876 
-43.3882 31.9458 -5.39876 -35.4574 36.2429 -5.39876 48.3612 28.4174 -5.39876 
43.8516 31.6068 -5.39876 43.8516 28.4174 -0.548345 -35.1783 36.3483 -5.39876 
-35.4574 36.3483 -5.0446 -27.5265 38.9173 -5.39876 -19.5956 41.3872 -5.39876 
-11.6647 42.9146 -5.39876 -3.73379 43.7476 -5.39876 20.0589 43.6163 -5.39876 
27.9898 41.2003 -5.39876 37.5953 36.3483 -5.39876 35.9207 37.374 -5.39876 
35.9207 36.3483 -3.49276 2.79813 44.2792 -5.39876 4.19711 44.2792 -4.72935 
15.8968 44.2792 -5.39876 12.128 44.2792 -2.89453 -19.5956 -44.7486 2.53213 
-11.6647 -48.5546 2.53213 -3.73379 -50.3003 2.53213 4.19711 -50.0517 2.53213 
12.128 -48.2944 2.53213 20.0589 -44.5646 2.53213 -22.5101 -42.9606 2.53213 
-27.5265 -39.6678 2.53213 -19.5956 -42.9606 7.71368 22.5238 -42.9606 2.53213 
20.0589 -42.9606 5.31502 27.9898 -38.4389 2.53213 -43.3882 -27.7407 2.53213 
-34.3044 -35.0297 2.53213 -35.4574 -34.1722 2.53213 31.6183 -35.0297 2.53213 
27.9898 -35.0297 6.4692 35.9207 -29.7532 2.53213 -44.0697 -27.0988 2.53213 
-43.3882 -27.0988 8.11894 37.9619 -27.0988 2.53213 35.9207 -27.0988 4.71465 
43.8516 -19.3818 2.53213 -51.0718 -19.1679 2.53213 -51.3191 -18.8096 2.53213 
35.9207 -19.1679 9.66575 44.0779 -19.1679 2.53213 43.8516 -19.1679 2.70416 
-55.7798 -11.237 2.53213 50.3865 -11.237 2.53213 43.8516 -11.237 8.31793 
51.7825 -9.50945 2.53213 -58.3216 -3.30614 2.53213 -59.25 3.77647 2.53213 
55.592 -3.30614 2.53213 51.7825 -3.30614 6.38379 -59.3573 4.62475 2.53213 
-59.25 6.67677 2.53213 -59.25 4.62475 2.85465 57.1639 4.62475 2.53213 
51.7825 4.62475 7.8678 -58.9205 12.5556 2.53213 55.742 12.5556 2.53213 
51.7825 18.8972 2.53213 51.7825 12.5556 6.17996 -55.9003 20.4865 2.53213 
-51.3191 26.7557 2.53213 50.252 20.4865 2.53213 43.8516 26.067 2.53213 
43.8516 20.4865 7.02744 -49.8046 28.4174 2.53213 -43.3882 33.6136 2.53213 
41.2383 28.4174 2.53213 35.9207 32.4365 2.53213 35.9207 28.4174 6.52635 
-38.6972 36.3483 2.53213 -35.4574 38.0507 2.53213 -35.4574 36.3483 9.01138 
-27.5265 40.6085 2.53213 -19.5956 42.1731 2.53213 -11.6647 42.9498 2.53213 
-3.73379 43.0448 2.53213 4.19711 43.0194 2.53213 12.128 42.8787 2.53213 
20.0589 41.4054 2.53213 20.0589 36.3483 9.82344 31.0126 36.3483 2.53213 
27.9898 38.3268 2.53213 27.9898 36.3483 5.55354 -11.6647 -44.8104 10.463 
-3.73379 -46.2957 10.463 4.19711 -45.753 10.463 12.128 -43.2506 10.463 
-27.5265 -37.9757 10.463 -16.6427 -42.9606 10.463 -19.5956 -41.7431 10.463 
-11.6647 -42.9606 12.3358 -3.73379 -42.9606 13.7534 4.19711 -42.9606 13.3787 
12.7055 -42.9606 10.463 12.128 -42.9606 10.7617 20.0589 -38.1129 10.463 
-32.6654 -35.0297 10.463 -35.4574 -33.2647 10.463 -27.5265 -35.0297 13.249 
-19.5956 -35.0297 16.4133 -11.6647 -35.0297 17.561 12.128 -35.0297 16.7943 
23.3073 -35.0297 10.463 20.0589 -35.0297 12.7425 27.9898 -29.417 10.463 
-42.9648 -27.0988 10.463 -43.3882 -26.6663 10.463 -35.4574 -27.0988 15.4268 
-27.5265 -27.0988 17.782 20.0589 -27.0988 17.0153 29.6595 -27.0988 10.463 
27.9898 -27.0988 11.7804 -49.0366 -19.1679 10.463 -51.3191 -15.8706 10.463 
-43.3882 -19.1679 15.0907 -35.4574 -19.1679 17.9145 34.9369 -19.1679 10.463 
27.9898 -19.1679 15.1674 35.9207 -17.7113 10.463 -53.735 -11.237 10.463 
-51.3191 -11.237 13.4544 -43.3882 -11.237 17.4524 27.9898 -11.237 17.592 
40.7572 -11.237 10.463 35.9207 -11.237 13.713 43.8516 -6.79274 10.463 
-55.1353 -3.30614 10.463 -51.3191 -3.30614 14.6724 35.9207 -3.30614 16.1787 
45.9425 -3.30614 10.463 43.8516 -3.30614 11.8454 -55.7921 4.62475 10.463 
-51.3191 4.62475 14.3487 35.9207 4.62475 16.3624 47.3323 4.62475 10.463 
43.8516 4.62475 12.4611 -55.4439 12.5556 10.463 -51.3191 12.5556 14.6982 
27.9898 12.5556 18.0931 35.9207 12.5556 14.5719 44.2747 12.5556 10.463 
43.8516 13.1608 10.463 43.8516 12.5556 10.7176 -52.7899 20.4865 10.463 
-51.3191 22.6848 10.463 -51.3191 20.4865 12.1313 -43.3882 20.4865 16.906 
4.19711 20.4865 18.0527 27.9898 20.4865 15.8514 37.6573 20.4865 10.463 
35.9207 22.0912 10.463 35.9207 20.4865 11.3679 -45.9966 28.4174 10.463 
[...]
POINT_DATA 512
SCALARS ImageScalars float
LOOKUP_TABLE default
0 0 0 0 0 0 0 0 0 
0 0 0 0 0 0 0 0 0 
0 0 0 0 0 0 0 0 0 
0 0 0 0 0 0 0 0 0 
0 0 0 0 0 0 0 0 0 
0 0 0 0 0 0 0 0 0 
0 0 0 0 0 0 0 0 0 
0 0 0 0 0 0 0 0 0 
0 0 0 0 0 0 0 0 0 
0 0 0 0 0 0 0 0 0 
0 0 0 0 0 0 0 0 0 
0 0 0 0 0 0 0 0 0 
0 0 0 0 0 0 0 0 0 
0 0 0 0 0 0 0 0 0 
0 0 0 0 0 0 0 0 0 
0 0 0 0 0 0 0 0 0 
0 0 0 0 0 0 0 0 0 
0 0 0 0 0 0 0 0 0 
0 0 0 0 0 0 0 0 0 
0 0 0 0 0 0 0 0 0 
0 0 0 0 0 0 0 0 0 
0 0 0 0 0 0 0 0 0 
0 0 0 0 0 0 0 0 0 
0 0 0 0 0 0 0 0 0 
0 0 0 0 0 0 0 0 0 
0 0 0 0 0 0 0 0 0 
0 0 0 0 0 0 0 0 0 
0 0 0 0 0 0 0 0 0 
0 0 0 0 0 0 0 0 0 
0 0 0 0 0 0 0 0 0 
0 0 0 0 0 0 0 0 0 
0 0 0 0 0 0 0 0 0 
0 0 0 0 0 0 0 0 0 
0 0 0 0 0 0 0 0 0 
0 0 0 0 0 0 0 0 0 
0 0 0 0 0 0 0 0 0 
0 0 0 0 0 0 0 0 0 
0 0 0 0 0 0 0 0 0 
0 0 0 0 0 0 0 0 0 
0 0 0 0 0 0 0 0 0 
0 0 0 0 0 0 0 0 0 
0 0 0 0 0 0 0 0 0 
0 0 0 0 0 0 0 0 0 
0 0 0 0 0 0 0 0 0 
0 0 0 0 0 0 0 0 0 
0 0 0 0 0 0 0 0 0 
0 0 0 0 0 0 0 0 0 
0 0 0 0 0 0 0 0 0 
0 0 0 0 0 0 0 0 0 
0 0 0 0 0 0 0 0 0 
0 0 0 0 0 0 0 0 0 
0 0 0 0 0 0 0 0 0 
0 0 0 0 0 0 0 0 0 
0 0 0 0 0 0 0 0 0 
0 0 0 0 0 0 0 0 0 
0 0 0 0 0 0 0 0 0 
0 0 0 0 0 0 0 0 
NORMALS Normals float
0.138772 0.490658 0.860231 0.0620824 0.493637 0.86745 -0.121618 0.531292 0.838414 
0.23962 0.273713 0.931485 0.120195 0.207324 0.97086 0.0294076 0.203241 0.978687 
-0.0145972 0.214877 0.976532 -0.101289 0.351073 0.930853 -0.334622 0.494978 0.801889 
0.247047 0.276706 0.928656 0.132179 0.106794 0.985456 0.0938925 0.0110826 0.995521 
0.0511462 0.0335283 0.998128 0.0246402 0.0778611 0.99666 -0.0529456 0.0769388 0.995629 
-0.165959 0.186379 0.96836 -0.441737 0.376998 0.814089 0.239212 0.265363 0.934002 
0.0879143 0.153674 0.984203 -0.0174107 0.0974279 0.99509 0.0481816 0.0579254 0.997158 
0.098392 0.102549 0.98985 0.0387202 0.0565603 0.997648 0.0129528 -0.0352024 0.999296 
-0.0882305 0.0539855 0.994636 -0.22307 0.162864 0.961101 -0.51126 0.440511 0.737945 
0.215662 0.273685 0.937329 0.105715 0.141074 0.984339 0.0671544 -0.0101549 0.997691 
0.0442064 0.0458775 0.997968 0.105486 0.129923 0.985897 0.047558 0.0592824 0.997108 
-0.124755 0.154869 0.980026 -0.0543155 -0.0677637 0.996222 0.0260508 0.00257841 0.999657 
-0.0369864 0.168468 0.985013 -0.267533 0.318862 0.90926 -0.570159 0.50523 0.647812 
0.337045 0.246579 0.908625 0.120805 0.184341 0.97541 -0.0531334 0.0961419 0.993948 
-0.0277379 -0.0608575 0.997761 0.127211 -0.0865544 0.988092 0.0368416 0.0863066 0.995587 
0.131493 -0.113899 0.984752 -0.110034 -0.00648204 0.993907 -0.109486 -0.0256973 0.993656 
0.147755 0.0549824 0.987494 0.0457089 0.130024 0.990457 -0.146775 0.13691 0.979649 
-0.433016 0.258602 0.863494 0.282252 0.0917465 0.954943 0.0560129 0.0668715 0.996188 
-0.123705 0.0431413 0.991381 -0.124603 0.0584486 0.990484 0.185573 -0.0214231 0.982397 
0.0721877 -0.0994108 0.992425 -0.0486337 -0.102687 0.993524 -0.0520243 -0.190187 0.980369 
0.0241093 0.06583 0.99754 0.173599 0.0500083 0.983546 0.0607462 0.0467523 0.997058 
-0.117279 0.0454998 0.992056 -0.281378 0.0880116 0.955552 -0.855621 0.108668 0.506068 
0.277183 -0.121312 0.953128 0.0693282 -0.0900824 0.993518 -0.0694394 -0.0125847 0.997507 
-0.0880689 0.081709 0.992757 -0.0133174 0.0815445 0.996581 -0.0213511 -0.115058 0.993129 
0.0231072 -0.0336582 0.999166 0.0924929 -0.0251988 0.995394 0.0942395 0.107598 0.989718 
0.131919 0.0183308 0.991091 0.0372805 -0.076247 0.996392 -0.130893 -0.0622128 0.989443 
-0.347169 -0.0623385 0.935728 0.362914 -0.323426 0.873893 0.160166 -0.253572 0.953965 
0.0403646 -0.16065 0.986186 -0.017651 -0.0364821 0.999178 -0.0296498 0.021514 0.999329 
-0.0378123 0.00483472 0.999273 0.0455215 0.0503447 0.997694 0.110559 0.0212501 0.993642 
0.0645211 0.0533992 0.996487 -0.00208945 -0.0707967 0.997489 -0.0331819 -0.174256 0.984141 
-0.121032 -0.357053 0.92621 -0.484151 -0.504635 0.714801 0.265914 -0.526149 0.807748 
0.157488 -0.406552 0.899952 0.0962652 -0.263903 0.959733 0.0312917 -0.181041 0.982978 
0.00700555 -0.117481 0.99305 0.036995 -0.0828419 0.995876 0.0929806 -0.110504 0.989517 
0.0058276 -0.128732 0.991662 -0.101409 -0.235481 0.966574 -0.238794 -0.455208 0.857766 
-0.409773 -0.662583 0.626953 0.137601 -0.535897 0.832995 0.0752136 -0.464443 0.882403 
0.0552271 -0.4172 0.907135 0.0370176 -0.404918 0.913603 -0.0636617 -0.52377 0.849477 
-0.27782 -0.597146 0.752485 0.138352 0.500537 0.854588 0.056332 0.550253 0.833096 
-0.132333 0.619106 0.774077 0.154124 0.49576 0.854674 0.294454 0.418135 0.859337 
0.368672 0.587653 0.72024 -0.239993 0.604287 0.759764 -0.284887 0.580788 0.762577 
-0.383615 0.740449 0.551883 -0.383536 0.627266 0.677818 0.547021 0.622884 0.559271 
0.343994 0.362526 0.866166 0.343737 0.35639 0.86881 0.423589 0.439038 0.79235 
-0.486332 0.590859 0.643713 -0.576478 0.531499 0.620631 -0.728281 0.685192 0.0108911 
0.481203 0.581464 0.656006 0.329193 0.366076 0.870414 0.331162 0.372202 0.867063 
0.385812 0.435283 0.813436 -0.591939 0.510061 0.624056 -0.593157 0.503209 0.628447 
0.526602 0.539144 0.657278 0.329462 0.391122 0.859348 0.32776 0.396324 0.857614 
0.360809 0.429885 0.827657 -0.588086 0.495034 0.639607 -0.587917 0.520914 0.618872 
0.68575 0.421116 0.59364 0.384367 0.352731 0.853137 0.39526 0.347828 0.850168 
0.402138 0.362544 0.840742 -0.592169 0.513838 0.620731 0.491919 0.256863 0.831888 
0.650959 0.271549 0.708882 -0.7392 0.332832 0.585496 -0.86115 0.144287 0.487444 
-0.930957 0.360804 -0.0560251 0.599039 0.115451 0.792353 0.599228 0.115459 0.792209 
-0.866568 0.108819 0.487051 -0.878088 0.019541 0.478101 0.599211 -0.156874 0.785071 
0.605937 -0.158125 0.779639 -0.857372 -0.168044 0.486491 -0.958228 -0.209202 0.195024 
0.502999 -0.366454 0.782754 0.686297 -0.432525 0.584738 0.419952 -0.476245 0.772549 
-0.65913 -0.578271 0.480782 -0.561335 -0.69232 0.453428 0.317599 -0.556793 0.767536 
0.471455 -0.65884 0.586225 0.284243 -0.565583 0.774158 0.221483 -0.566123 0.794009 
0.2274 -0.613613 0.756154 -0.40134 -0.679126 0.614585 -0.466322 -0.702859 0.537153 
-0.436925 -0.710745 0.551306 0.286628 -0.779233 0.557351 0.222817 -0.622958 0.74985 
0.23831 -0.64895 0.722545 0.159465 -0.618735 0.769245 0.0978096 -0.622322 0.776626 
0.0760865 -0.620946 0.780152 -0.0109307 -0.641852 0.766751 -0.134227 -0.709171 0.692142 
-0.371279 -0.697024 0.61344 -0.292031 -0.729657 0.618319 -0.519112 -0.840055 0.157575 
0.0711871 -0.98954 0.125475 -0.0442897 -0.983063 0.177837 0.383912 0.856633 0.344662 
0.162947 0.94421 0.28621 -0.0769134 0.970365 0.229077 -0.287695 0.939113 0.187878 
-0.402038 0.906912 0.125998 0.5591 0.651845 0.512353 0.567344 0.701422 0.431425 
0.57136 0.692652 0.440205 0.571207 0.734886 0.365602 -0.505238 0.858353 0.0892411 
-0.55208 0.831822 0.0572691 -0.726493 0.68706 -0.0125151 0.554884 0.64504 0.525382 
0.515261 0.623157 0.588372 -0.729493 0.683868 -0.0128219 -0.730041 0.682428 -0.0364924 
0.529964 0.612822 0.586163 0.566684 0.587829 0.577343 0.668954 0.71452 0.204846 
-0.780483 0.622105 -0.0618997 -0.78297 0.61863 -0.0652319 0.59841 0.574087 0.558865 
0.704485 0.497019 0.506628 -0.765125 0.643648 -0.0173694 -0.769365 0.638154 -0.028922 
0.759498 0.429412 0.488638 -0.818253 0.570653 -0.0694072 -0.701734 0.524433 -0.482224 
-0.924143 0.367493 -0.104447 0.847612 0.266465 0.458857 -0.928109 0.35674 -0.106538 
-0.927315 0.349669 -0.133487 0.926926 0.0748783 0.367698 0.997493 0.0410661 -0.0576323 
-0.988067 0.064912 -0.13968 -0.923897 0.0345101 -0.381083 0.918659 -0.197819 0.341954 
-0.953283 -0.246239 -0.17498 -0.904603 -0.383798 -0.185453 -0.931766 -0.230183 -0.280764 
0.813234 -0.456993 0.360289 0.726719 -0.585244 0.359679 -0.756358 -0.630465 -0.17446 
-0.638979 -0.747055 -0.183343 -0.572232 -0.625742 -0.530093 0.627186 -0.689347 0.362544 
0.494397 -0.784006 0.375375 0.370808 -0.844525 0.386367 -0.595897 -0.784586 -0.171267 
-0.577756 -0.809368 -0.105456 -0.570282 -0.69031 -0.445254 0.368186 -0.846177 0.385258 
0.37336 -0.851752 0.367588 0.30384 -0.877626 0.370747 0.240271 -0.918628 0.313676 
0.142044 -0.962327 0.231842 0.0921883 -0.982179 0.163783 -0.220403 -0.974182 0.0489115 
-0.366973 -0.930158 -0.0117016 -0.539881 -0.838237 -0.076733 -0.516507 -0.852723 -0.0780027 
-0.523148 -0.827991 -0.201857 0.0735928 -0.990572 0.11555 0.0643416 -0.995127 0.0747182 
-0.129978 -0.989977 0.0552435 -0.0599985 -0.996 -0.0662154 0.487973 0.871637 -0.0461752 
0.315836 0.93918 -0.134864 0.0908225 0.976632 -0.194785 -0.112203 0.960242 -0.255627 
-0.320579 0.904257 -0.282042 -0.482475 0.809986 -0.333378 0.521147 0.853417 0.00923865 
0.572079 0.815406 0.0885385 0.40688 0.839044 -0.361184 -0.516964 0.773828 -0.365975 
-0.490237 0.753203 -0.43858 -0.589373 0.665514 -0.457964 0.672965 0.727267 0.13491 
0.599484 0.787028 0.145622 0.60264 0.782582 0.156176 -0.636218 0.589599 -0.497595 
-0.593537 0.566926 -0.571234 -0.672617 0.512556 -0.533735 0.682242 0.718683 0.134315 
0.68069 0.699276 -0.218343 -0.674474 0.496279 -0.546619 -0.65809 0.473655 -0.585293 
-0.590609 0.556037 -0.584811 0.801791 0.593668 0.0684815 0.807402 0.586405 0.0650506 
-0.576286 0.399662 -0.712857 -0.590855 0.556932 -0.58371 -0.587329 0.555432 -0.588677 
0.907607 0.419699 0.010121 -0.640897 0.476418 -0.601895 -0.555636 0.416466 -0.7196 
-0.656034 0.448625 -0.606923 0.976556 0.208519 -0.0534612 0.993369 0.0541034 -0.101448 
-0.747621 0.290007 -0.59746 -0.615884 0.296359 -0.729971 0.99363 0.0366256 -0.106569 
0.994271 -0.0252926 -0.103851 0.991617 0.036701 -0.123891 -0.770506 0.0118596 -0.637322 
-0.561123 -0.0150757 -0.827595 0.973547 -0.207733 -0.0951433 -0.69478 -0.247646 -0.675242 
-0.552248 -0.5382 -0.636681 -0.557995 -0.268641 -0.785158 0.881784 -0.460278 -0.102964 
0.763792 -0.640349 -0.0810885 -0.525493 -0.578906 -0.623478 -0.527667 -0.564345 -0.634887 
-0.427396 -0.482629 -0.764462 0.716104 -0.69369 -0.0773918 0.537954 -0.841363 -0.0521021 
-0.528912 -0.596217 -0.603968 -0.485079 -0.662686 -0.570566 -0.494448 -0.555892 -0.66821 
0.443392 -0.895952 -0.0259691 0.386588 -0.922059 -0.0188953 0.376315 -0.841984 -0.386586 
0.270044 -0.962054 -0.0390853 0.141791 -0.985732 -0.0907031 0.0536619 -0.988363 -0.142337 
0.00439471 -0.976984 -0.213266 -0.00979375 -0.952381 -0.304752 -0.0894537 -0.924411 -0.370758 
-0.265013 -0.871955 -0.411658 -0.258722 -0.70588 -0.659391 -0.463789 -0.732917 -0.497728 
-0.431565 -0.781138 -0.451193 -0.454831 -0.70773 -0.540598 0.21971 0.762642 -0.608363 
0.0465788 0.778159 -0.626338 -0.143118 0.773815 -0.617031 -0.31425 0.700296 -0.640962 
0.431732 0.774711 -0.461984 0.290644 0.762115 -0.578538 0.330179 0.759205 -0.560883 
0.210731 0.696244 -0.686176 0.0512781 0.651333 -0.757058 -0.136365 0.6772 -0.723053 
-0.325698 0.694076 -0.642012 -0.313099 0.692406 -0.650033 -0.483177 0.572375 -0.662516 
0.50051 0.769648 -0.396399 0.543343 0.751816 -0.373565 0.366084 0.665414 -0.650544 
0.220786 0.47442 -0.852161 0.120944 0.387492 -0.913905 -0.299613 0.461613 -0.834953 
-0.526665 0.510423 -0.679774 -0.473136 0.49024 -0.731988 -0.567975 0.429797 -0.701911 
0.649932 0.659668 -0.377395 0.656445 0.651281 -0.380673 0.408859 0.472644 -0.780668 
0.181007 0.308413 -0.933873 -0.430068 0.30171 -0.850889 -0.574776 0.400765 -0.713456 
-0.559529 0.383877 -0.734551 0.730186 0.501096 -0.464468 0.766166 0.446951 -0.461762 
0.508117 0.347871 -0.78791 0.231578 0.205011 -0.950969 -0.566187 0.388786 -0.726827 
-0.46427 0.305238 -0.831434 -0.563589 0.388498 -0.728997 0.806446 0.317365 -0.498924 
0.681364 0.291393 -0.671441 0.331037 0.213853 -0.919066 -0.280177 0.219839 -0.934437 
-0.529416 0.384772 -0.756088 -0.495617 0.333698 -0.801879 -0.537073 0.292139 -0.791333 
0.805392 0.119838 -0.580502 0.625128 0.0404393 -0.779474 -0.419285 0.127108 -0.898912 
-0.536229 0.215922 -0.815988 -0.525477 0.198355 -0.827363 0.776157 0.0167421 -0.630318 
0.603528 0.00098231 -0.797341 -0.38441 -0.0868931 -0.919064 -0.485116 -0.0446906 -0.873307 
-0.474386 -0.0564754 -0.878504 0.785967 -0.17451 -0.593129 0.609616 -0.111506 -0.784815 
-0.305133 -0.177898 -0.935546 -0.409678 -0.266248 -0.872511 -0.469267 -0.272763 -0.839874 
-0.460964 -0.29113 -0.838305 -0.465178 -0.276515 -0.840922 0.738493 -0.39121 -0.549166 
0.706501 -0.453316 -0.543472 0.67894 -0.383198 -0.626259 0.379963 -0.283938 -0.880345 
-0.00147516 -0.133991 -0.990981 -0.409327 -0.324542 -0.852716 -0.432216 -0.417222 -0.799447 
-0.45578 -0.42492 -0.782117 -0.44848 -0.401448 -0.798564 0.578668 -0.631629 -0.515935 
0.522752 -0.685312 -0.507029 0.49609 -0.594144 -0.633157 0.363216 -0.797024 -0.482521 
0.245346 -0.472095 -0.846718 0.111588 -0.371969 -0.921514 0.0145295 -0.299529 -0.953977 
-0.0471663 -0.236602 -0.970461 -0.0761952 -0.281847 -0.956429 -0.0390365 -0.274632 -0.960757 
-0.0530823 -0.354119 -0.933693 -0.260469 -0.681464 -0.683932 -0.25498 -0.454204 -0.85363 
-0.483698 -0.477543 -0.733478 -0.472821 -0.518264 -0.712631 -0.474706 -0.460235 -0.750225 
0.332731 -0.80758 -0.486934 0.223765 -0.81605 -0.532908 0.200795 -0.751882 -0.627977 
0.120303 -0.834449 -0.537793 0.117116 -0.664791 -0.737792 -0.000389657 -0.830931 -0.556376 
-0.0334165 -0.62666 -0.778576 -0.0806679 -0.774617 -0.627265 -0.0936379 -0.632329 -0.76902 
-0.0876012 -0.747601 -0.658346 -0.083912 -0.646718 -0.758099 -0.230667 -0.693744 -0.682284 
-0.141272 -0.714225 -0.685511 -0.14072 -0.664374 -0.734033 0.0629735 0.37707 -0.924041 
-0.100041 0.40248 -0.909946 0.133848 0.235374 -0.962644 0.077135 0.365724 -0.927521 
0.11457 0.30272 -0.946168 0.0628149 0.360231 -0.930746 -0.128569 0.399199 -0.907805 
-0.0970599 0.388505 -0.916321 -0.259624 0.339455 -0.904083 0.139253 0.229623 -0.963266 
0.149253 0.226382 -0.962536 0.117425 0.189563 -0.974822 0.111281 0.166934 -0.979668 
0.0802089 0.188651 -0.978763 -0.0419163 0.226252 -0.973167 -0.339024 0.258338 -0.904613 
-0.221947 0.205202 -0.953222 -0.325225 0.15255 -0.933251 0.184596 0.174829 -0.96714 
0.199163 0.178317 -0.963606 0.117108 0.132107 -0.984293 0.0744285 0.093935 -0.992792 
0.111525 0.0915918 -0.989532 0.120354 0.111271 -0.986475 -0.0663322 0.139447 -0.988005 
-0.227874 0.0138611 -0.973592 -0.311581 0.130335 -0.941239 -0.295099 0.111687 -0.948917 
0.235398 0.176109 -0.95581 0.277993 0.120885 -0.952946 0.147417 0.134799 -0.979846 
0.0628051 0.070299 -0.995547 0.0682911 0.0997557 -0.992666 0.131268 0.0779929 -0.988274 
0.130813 -0.126571 -0.983294 -0.138673 -0.0345138 -0.989737 -0.257901 -0.10102 -0.960876 
-0.211957 0.115781 -0.970396 -0.15389 0.0201029 -0.987884 -0.214508 0.148179 -0.965417 
0.291592 0.089347 -0.952361 0.266733 0.0928761 -0.959285 0.111924 0.0497031 -0.992473 
0.0956358 0.0596864 -0.993625 0.0842159 0.0985788 -0.991559 -0.11988 0.0176853 -0.992631 
-0.00910515 -0.246631 -0.969067 -0.0291974 -0.215453 -0.976078 -0.166203 -0.0703505 -0.983579 
0.0133555 0.0173691 -0.99976 -0.227411 0.0924315 -0.969402 -0.159835 0.0844672 -0.983523 
0.361481 0.00555764 -0.932363 0.310355 0.00741002 -0.950592 0.122613 0.0272861 -0.992079 
0.107938 0.048167 -0.99299 0.0279389 -0.043872 -0.998646 -0.186422 -0.101493 -0.977213 
-0.0862752 0.0340819 -0.995688 0.0109349 -0.162569 -0.986637 -0.0436048 0.026947 -0.998685 
0.00141845 0.0553212 -0.998468 -0.232103 -0.0664112 -0.970422 -0.267687 -0.142255 -0.952947 
-0.175923 -0.0567487 -0.982767 0.321605 -0.125841 -0.938475 0.304844 -0.157252 -0.93933 
0.290638 -0.125644 -0.948548 0.15384 -0.0648031 -0.985968 0.0255962 -0.0795175 -0.996505 
-0.0672077 -0.120945 -0.990381 -0.0660262 -0.126769 -0.989732 -0.0641208 -0.0011163 -0.997941 
-0.0117319 -0.132383 -0.991129 -0.0301912 -0.130167 -0.991032 0.0553493 -0.0143948 -0.998363 
-0.26881 -0.154724 -0.950685 -0.0685055 -0.0380568 -0.996925 0.2157 -0.245819 -0.945011 
0.170131 -0.280154 -0.944759 0.153795 -0.229523 -0.961076 0.0941287 -0.308713 -0.946486 
0.0595813 -0.20419 -0.977116 0.0141328 -0.297773 -0.954532 -0.0167493 -0.15048 -0.988471 
-0.0569248 -0.202964 -0.97753 -0.0760555 -0.125428 -0.989183 -0.0391222 -0.134593 -0.990128 
-0.0815885 -0.18335 -0.979656 -0.0850587 -0.133828 -0.987347 0.0222155 -0.134414 -0.990676 
0.0277694 -0.183698 -0.98259 0.0492207 -0.135513 -0.989552 -0.193511 -0.243032 -0.95052 
-0.167043 -0.261686 -0.950588 -0.151252 -0.227845 -0.961878 
