# vtk DataFile Version 4.2
vtk output
ASCII
DATASET POLYDATA
POINTS 510 float
1.64594 -30.1284 -21.0968 -20.9882 -37.6731 -13.8437 -13.4435 -37.6731 -16.161 
-5.89876 -37.6731 -18.1109 1.64594 -30.3763 -21.0373 1.64594 -37.6731 -18.8709 
9.19063 -37.6731 -18.3066 16.7353 -37.6731 -15.76 -28.5329 -30.1284 -16.0366 
-20.9882 -30.1284 -18.5668 -13.4435 -30.1284 -19.4217 1.07629 -30.1284 -21.0373 
-5.89876 -30.1284 -20.203 2.27932 -30.1284 -21.0373 1.64594 -29.5895 -21.0373 
9.19063 -30.1284 -20.2997 16.7353 -30.1284 -18.785 24.28 -30.1284 -15.8772 
-36.0775 -22.5837 -16.038 -28.5329 -22.5837 -18.9444 -20.9882 -22.5837 -19.952 
-13.4435 -22.5837 -20.004 -5.89876 -22.5837 -20.2069 1.64594 -22.5837 -20.1931 
9.19063 -22.5837 -20.5028 16.7353 -22.5837 -19.0706 24.28 -22.5837 -17.8027 
31.8247 -22.5837 -15.7201 -43.6222 -15.039 -13.9002 -36.0775 -15.039 -17.6009 
-28.5329 -15.039 -19.075 -20.9882 -15.039 -19.9011 -13.4435 -15.039 -19.9857 
-5.89876 -15.039 -19.1727 1.64594 -15.039 -19.1615 9.19063 -15.039 -19.6802 
16.7353 -15.039 -18.9531 24.28 -15.039 -18.2951 31.8247 -15.039 -17.8538 
39.3694 -15.039 -15.9003 -43.6222 -7.4943 -14.4364 -36.0775 -7.4943 -17.8663 
-28.5329 -7.4943 -19.0124 -20.9882 -7.4943 -19.1306 -13.4435 -7.4943 -20.1138 
-5.89876 -7.4943 -20.2208 1.64594 -7.4943 -19.118 9.19063 -7.4943 -20.5704 
16.7353 -7.4943 -19.0932 24.28 -7.4943 -18.9984 31.8247 -7.4943 -18.9813 
39.3694 -7.4943 -17.871 46.9141 -7.4943 -14.1032 -43.6222 0.0503946 -14.739 
-36.0775 0.0503946 -18.1219 -28.5329 0.0503946 -19.0814 -20.9882 0.0503946 -18.5393 
-13.4435 0.0503946 -19.2226 -5.89876 0.0503946 -20.1772 1.64594 0.0503946 -19.0621 
9.19063 0.0503946 -20.8699 16.7353 0.0503946 -19.2779 24.28 0.0503946 -19.6799 
31.8247 0.0503946 -19.7455 39.3694 0.0503946 -18.5415 46.9141 0.0503946 -14.9721 
-43.6222 7.59509 -14.1991 -36.0775 7.59509 -17.888 -28.5329 7.59509 -19.4705 
-20.9882 7.59509 -19.2529 -13.4435 7.59509 -19.532 -5.89876 7.59509 -20.1276 
1.64594 7.59509 -19.7961 9.19063 7.59509 -18.9484 16.7353 7.59509 -19.1895 
24.28 7.59509 -20.0168 31.8247 7.59509 -20.0348 39.3694 7.59509 -18.7026 
46.9141 7.59509 -14.008 -36.0775 15.1398 -16.7438 -28.5329 15.1398 -19.0931 
-20.9882 15.1398 -20.1358 -13.4435 15.1398 -20.1511 -5.89876 15.1398 -19.3569 
1.64594 15.1398 -17.472 9.19063 15.1398 -17.8942 16.7353 15.1398 -19.4242 
24.28 15.1398 -20.1815 31.8247 15.1398 -19.8268 39.3694 15.1398 -17.6849 
-36.0775 22.6845 -13.8796 -28.5329 22.6845 -17.8483 -20.9882 22.6845 -19.1804 
-13.4435 22.6845 -19.3002 -5.89876 22.6845 -18.6969 1.64594 22.6845 -17.8826 
9.19063 22.6845 -18.2611 16.7353 22.6845 -19.8132 24.28 22.6845 -19.9066 
31.8247 22.6845 -19.2073 39.3694 22.6845 -15.8948 -20.9882 30.2292 -16.2095 
-13.4435 30.2292 -17.2983 -5.89876 30.2292 -17.851 1.64594 30.2292 -17.7409 
9.19063 30.2292 -18.2158 16.7353 30.2292 -18.8947 24.28 30.2292 -18.906 
31.8247 30.2292 -17.1341 -5.89876 37.7739 -14.8083 1.64594 37.7739 -16.1828 
9.19063 37.7739 -16.848 16.7353 37.7739 -17.3737 24.28 37.7739 -15.2976 
-20.9882 -37.9457 -13.4926 -13.4435 -40.3058 -13.4926 -5.89876 -42.5626 -13.4926 
1.64594 -43.4833 -13.4926 1.64594 -45.2178 -6.7161 9.19063 -43.0366 -13.4926 
16.7353 -40.1699 -13.4926 -21.5521 -37.6731 -13.4926 -28.5329 -33.2909 -13.4926 
21.2643 -37.6731 -13.4926 24.28 -34.8348 -13.4926 24.28 -37.6731 -10.7136 
-33.1826 -30.1284 -13.4926 -36.0775 -27.0347 -13.4926 -36.0775 -30.1284 -9.76215 
30.3693 -30.1284 -13.4926 31.8247 -28.7119 -13.4926 31.8247 -30.1284 -12.6213 
-39.6598 -22.5837 -13.4926 -43.6222 -16.1166 -13.4926 -43.6222 -22.5837 -8.66305 
37.7584 -22.5837 -13.4926 39.3694 -20.8688 -13.4926 39.3694 -22.5837 -12.4846 
-44.0867 -15.039 -13.4926 43.4062 -15.039 -13.4926 46.9141 -9.24173 -13.4926 
46.9141 -15.039 -10.11 -44.7395 -7.4943 -13.4926 47.5833 -7.4943 -13.4926 
-45.1536 0.0503946 -13.4926 48.44 0.0503946 -13.4926 -44.4043 7.59509 -13.4926 
-43.6222 9.63366 -13.4926 47.4011 7.59509 -13.4926 46.9141 9.62443 -13.4926 
-40.9263 15.1398 -13.4926 -43.6222 15.1398 -10.2695 45.3043 15.1398 -13.4926 
46.9141 15.1398 -8.94036 -36.5316 22.6845 -13.4926 -36.0775 23.1971 -13.4926 
-28.5329 29.7812 -13.4926 41.4578 22.6845 -13.4926 39.3694 26.2521 -13.4926 
-27.8002 30.2292 -13.4926 -28.5329 30.2292 -12.9943 -20.9882 33.6721 -13.4926 
-13.4435 36.7913 -13.4926 36.1616 30.2292 -13.4926 31.8247 34.9075 -13.4926 
-20.9882 37.7739 -6.90742 -11.0634 37.7739 -13.4926 -13.4435 37.7739 -12.4288 
-5.89876 39.5891 -13.4926 1.64594 41.8649 -13.4926 9.19063 43.0617 -13.4926 
16.7353 42.3483 -13.4926 27.7459 37.7739 -13.4926 24.28 39.7666 -13.4926 
31.8247 37.7739 -7.56708 1.64594 45.3186 -7.92058 9.19063 45.3186 -9.97998 
16.7353 45.3186 -8.25202 1.64594 -45.3798 -5.94795 -20.9882 -39.7222 -5.94795 
-13.4435 -42.4388 -5.94795 0.0632928 -45.2178 -5.94795 -5.89876 -44.581 -5.94795 
6.81345 -45.2178 -5.94795 1.64594 -45.2178 -5.09538 9.19063 -45.1428 -5.94795 
16.7353 -43.4823 -5.94795 24.28 -40.2176 -5.94795 -36.0775 -31.9813 -5.94795 
-25.8183 -37.6731 -5.94795 -28.5329 -36.4337 -5.94795 28.3764 -37.6731 -5.94795 
31.8247 -35.2413 -5.94795 -38.3058 -30.1284 -5.94795 -43.6222 -24.6081 -5.94795 
-36.0775 -30.1284 0.85217 37.9765 -30.1284 -5.94795 39.3694 -28.7293 -5.94795 
-45.1958 -22.5837 -5.94795 44.7028 -22.5837 -5.94795 46.9141 -19.3757 -5.94795 
-48.761 -15.039 -5.94795 49.3828 -15.039 -5.94795 -50.3008 -7.4943 -5.94795 
51.7898 -7.4943 -5.94795 -51.1006 0.0503946 -5.94795 -51.1669 0.0503946 -3.90839 
51.9869 0.0503946 -5.94795 -49.063 7.59509 -5.94795 50.5124 7.59509 -5.94795 
-46.169 15.1398 -5.94795 -43.6222 19.8991 -5.94795 47.6949 15.1398 -5.94795 
46.9141 16.7018 -5.94795 46.9141 15.1398 -2.89279 -41.872 22.6845 -5.94795 
-36.0775 29.052 -5.94795 43.8117 22.6845 -5.94795 39.3694 29.6545 -5.94795 
-34.6877 30.2292 -5.94795 -36.0775 30.2292 0.387739 -28.5329 34.451 -5.94795 
38.9755 30.2292 -5.94795 -21.9436 37.7739 -5.94795 -20.9882 38.2225 -5.94795 
-13.4435 41.4024 -5.94795 -5.89876 44.4779 -5.94795 24.28 43.6372 -5.94795 
32.412 37.7739 -5.94795 31.8247 38.3313 -5.94795 31.8247 37.7739 -4.66117 
-2.26094 45.3186 -5.94795 1.64594 46.2084 -5.94795 1.64594 45.3186 1.42286 
9.19063 46.9743 -5.94795 19.5716 45.3186 -5.94795 16.7353 46.2132 -5.94795 
16.7353 45.3186 -1.82505 -20.9882 -37.765 1.59675 -13.4435 -40.5396 1.59675 
-5.89876 -42.6752 1.59675 1.64594 -43.8762 1.59675 9.19063 -43.8124 1.59675 
16.7353 -42.5695 1.59675 24.28 -40.0201 1.59675 -21.1898 -37.6731 1.59675 
-28.5329 -34.3596 1.59675 -20.9882 -37.6731 1.76113 -13.4435 -37.6731 7.0371 
28.5979 -37.6731 1.59675 24.28 -37.6731 7.38737 31.8247 -35.6794 1.59675 
-43.6222 -23.2399 1.59675 -35.7728 -30.1284 1.59675 -36.0775 -29.9461 1.59675 
-28.5329 -30.1284 8.17109 38.1893 -30.1284 1.59675 39.3694 -28.9384 1.59675 
-44.1807 -22.5837 1.59675 -43.6222 -22.5837 2.56786 44.5009 -22.5837 1.59675 
46.9141 -18.5441 1.59675 -48.7024 -15.039 1.59675 48.7787 -15.039 1.59675 
46.9141 -15.039 5.71967 -50.8521 -7.4943 1.59675 -51.1669 -2.38826 1.59675 
50.8125 -7.4943 1.59675 -51.3213 0.0503946 1.59675 -51.1669 1.00882 1.59675 
-51.1669 0.0503946 2.36576 50.7575 0.0503946 1.59675 -50.1252 7.59509 1.59675 
48.9664 7.59509 1.59675 46.9141 12.4583 1.59675 46.9141 7.59509 5.57526 
-47.4629 15.1398 1.59675 -43.6222 22.1592 1.59675 45.6339 15.1398 1.59675 
-43.29 22.6845 1.59675 40.805 22.6845 1.59675 39.3694 24.8038 1.59675 
39.3694 22.6845 3.81184 -36.3091 30.2292 1.59675 -36.0775 30.4236 1.59675 
-36.0775 30.2292 2.47479 -28.5329 35.2418 1.59675 35.5726 30.2292 1.59675 
31.8247 34.5909 1.59675 31.8247 30.2292 6.49479 -22.6751 37.7739 1.59675 
-20.9882 38.4698 1.59675 -20.9882 37.7739 3.92244 -13.4435 41.0998 1.59675 
-5.89876 43.5905 1.59675 1.64594 45.2991 1.59675 16.7353 44.5406 1.59675 
28.4795 37.7739 1.59675 24.28 41.0671 1.59675 24.28 37.7739 6.15708 
1.9361 45.3186 1.59675 12.1623 45.3186 1.59675 9.19063 45.8431 1.59675 
9.19063 45.3186 2.54948 -5.89876 -38.5953 9.14144 1.64594 -40.0801 9.14144 
9.19063 -40.2651 9.14144 16.7353 -39.3378 9.14144 -20.9882 -32.7055 9.14144 
-9.14267 -37.6731 9.14144 -13.4435 -36.1327 9.14144 -5.89876 -37.6731 10.2263 
1.64594 -37.6731 11.9129 9.19063 -37.6731 12.2258 22.0055 -37.6731 9.14144 
16.7353 -37.6731 11.2625 24.28 -36.8052 9.14144 31.8247 -31.8196 9.14144 
-36.0775 -24.5652 9.14144 -26.8159 -30.1284 9.14144 -28.5329 -29.3082 9.14144 
-20.9882 -30.1284 11.4843 -13.4435 -30.1284 13.8615 -5.89876 -30.1284 15.8234 
24.28 -30.1284 15.6598 33.7165 -30.1284 9.14144 31.8247 -30.1284 10.8699 
39.3694 -24.3631 9.14144 -38.4748 -22.5837 9.14144 -43.6222 -17.0854 9.14144 
-36.0775 -22.5837 10.9373 -28.5329 -22.5837 14.586 -20.9882 -22.5837 16.3754 
31.8247 -22.5837 15.8184 40.728 -22.5837 9.14144 39.3694 -22.5837 10.6458 
-44.985 -15.039 9.14144 -43.6222 -15.039 10.7287 -36.0775 -15.039 16.4718 
44.7316 -15.039 9.14144 39.3694 -15.039 13.827 46.9141 -7.69111 9.14144 
-48.4771 -7.4943 9.14144 -43.6222 -7.4943 15.3972 39.3694 -7.4943 15.9855 
46.9594 -7.4943 9.14144 46.9141 -7.4943 9.1978 -49.6585 0.0503946 9.14144 
39.3694 0.0503946 16.1946 46.9235 0.0503946 9.14144 46.9141 0.0871786 9.14144 
46.9141 0.0503946 9.15333 -48.7699 7.59509 9.14144 44.6552 7.59509 9.14144 
39.3694 7.59509 14.2422 -46.3306 15.1398 9.14144 -43.6222 20.108 9.14144 
-43.6222 15.1398 14.0968 31.8247 15.1398 15.3409 40.5606 15.1398 9.14144 
39.3694 16.8376 9.14144 39.3694 15.1398 10.263 -41.9532 22.6845 9.14144 
-36.0775 28.6649 9.14144 -36.0775 22.6845 16.578 16.7353 22.6845 16.5322 
24.28 22.6845 15.0591 34.7686 22.6845 9.14144 31.8247 26.6829 9.14144 
31.8247 22.6845 11.3965 -33.7292 30.2292 9.14144 -28.5329 33.2367 9.14144 
-28.5329 30.2292 13.6328 -20.9882 36.0753 9.14144 -20.9882 30.2292 15.7113 
-13.4435 30.2292 16.6134 9.19063 30.2292 15.9688 16.7353 30.2292 14.4685 
28.6689 30.2292 9.14144 24.28 34.4259 9.14144 24.28 30.2292 11.7674 
-14.2944 37.7739 9.14144 -13.4435 37.9896 9.14144 -13.4435 37.7739 9.4421 
[...]
POINT_DATA 510
SCALARS ImageScalars float
LOOKUP_TABLE default
0 0 0 0 0 0 0 0 0 
0 0 0 0 0 0 0 0 0 
0 0 0 0 0 0 0 0 0 
0 0 0 0 0 0 0 0 0 
0 0 0 0 0 0 0 0 0 
0 0 0 0 0 0 0 0 0 
0 0 0 0 0 0 0 0 0 
0 0 0 0 0 0 0 0 0 
0 0 0 0 0 0 0 0 0 
0 0 0 0 0 0 0 0 0 
0 0 0 0 0 0 0 0 0 
0 0 0 0 0 0 0 0 0 
0 0 0 0 0 0 0 0 0 
0 0 0 0 0 0 0 0 0 
0 0 0 0 0 0 0 0 0 
0 0 0 0 0 0 0 0 0 
0 0 0 0 0 0 0 0 0 
0 0 0 0 0 0 0 0 0 
0 0 0 0 0 0 0 0 0 
0 0 0 0 0 0 0 0 0 
0 0 0 0 0 0 0 0 0 
0 0 0 0 0 0 0 0 0 
0 0 0 0 0 0 0 0 0 
0 0 0 0 0 0 0 0 0 
0 0 0 0 0 0 0 0 0 
0 0 0 0 0 0 0 0 0 
0 0 0 0 0 0 0 0 0 
0 0 0 0 0 0 0 0 0 
0 0 0 0 0 0 0 0 0 
0 0 0 0 0 0 0 0 0 
0 0 0 0 0 0 0 0 0 
0 0 0 0 0 0 0 0 0 
0 0 0 0 0 0 0 0 0 
0 0 0 0 0 0 0 0 0 
0 0 0 0 0 0 0 0 0 
0 0 0 0 0 0 0 0 0 
0 0 0 0 0 0 0 0 0 
0 0 0 0 0 0 0 0 0 
0 0 0 0 0 0 0 0 0 
0 0 0 0 0 0 0 0 0 
0 0 0 0 0 0 0 0 0 
0 0 0 0 0 0 0 0 0 
0 0 0 0 0 0 0 0 0 
0 0 0 0 0 0 0 0 0 
0 0 0 0 0 0 0 0 0 
0 0 0 0 0 0 0 0 0 
0 0 0 0 0 0 0 0 0 
0 0 0 0 0 0 0 0 0 
0 0 0 0 0 0 0 0 0 
0 0 0 0 0 0 0 0 0 
0 0 0 0 0 0 0 0 0 
0 0 0 0 0 0 0 0 0 
0 0 0 0 0 0 0 0 0 
0 0 0 0 0 0 0 0 0 
0 0 0 0 0 0 0 0 0 
0 0 0 0 0 0 0 0 0 
0 0 0 0 0 0 
NORMALS Normals float
0.00563431 0.0698155 0.997544 0.368739 0.774567 0.513885 0.233636 0.647959 0.724957 
0.170624 0.511523 0.842159 0.00553903 0.080447 0.996744 0.00919536 0.461305 0.887194 
-0.188786 0.48054 0.856412 -0.364763 0.550277 0.751094 0.382245 0.511074 0.769865 
0.210786 0.320368 0.923544 0.0980951 0.213674 0.971968 0.0138082 0.0729621 0.997239 
0.112468 0.118249 0.986594 -0.00616931 0.0744804 0.997203 0.00641423 0.0561758 0.9984 
-0.14155 0.1314 0.981172 -0.266008 0.185344 0.945985 -0.357972 0.337066 0.870771 
0.466899 0.33465 0.818544 0.213516 0.17381 0.961354 0.0643306 0.0775646 0.99491 
0.0159063 0.0383456 0.999138 0.0129205 -0.0690213 0.997532 0.0194581 -0.121733 0.992372 
-0.0704246 -0.0417991 0.996641 -0.174958 0.00938679 0.984531 -0.213385 0.14303 0.966442 
-0.289685 0.293849 0.910898 0.64236 0.195998 0.740917 0.313846 0.0960069 0.944608 
0.152491 0.00357814 0.988298 0.0600292 -0.0527907 0.9968 -0.0471726 0.00688685 0.998863 
-0.0552289 0.00014424 0.998474 0.0342988 -0.0724099 0.996785 -0.013181 0.00284111 0.999909 
-0.0917104 0.00169445 0.995784 -0.070262 0.0764789 0.994592 -0.139391 0.2171 0.966146 
-0.37167 0.312813 0.874076 0.575261 0.0503595 0.816418 0.264458 0.0344526 0.963782 
0.0788068 0.000342721 0.99689 0.0712032 -0.0897726 0.993414 0.0706562 -0.0500701 0.996243 
-0.0682359 0.0688519 0.995291 0.0262841 -0.00657475 0.999633 -0.00213404 0.0796233 0.996823 
-0.101353 0.0213321 0.994622 -0.00739114 0.0920629 0.995726 -0.0743917 0.119461 0.990048 
-0.282056 0.148146 0.947891 -0.655364 0.202918 0.727545 0.557773 -0.0159673 0.82984 
0.252456 0.00193656 0.967606 0.0240681 0.0303261 0.99925 0.00946072 0.00969534 0.999908 
0.108753 -0.0373147 0.993368 -0.010643 -0.00613903 0.999925 0.0471703 0.0432862 0.997949 
0.0110913 -0.0996392 0.994962 -0.0751731 0.00636881 0.99715 0.0309081 0.0659092 0.997347 
-0.0717743 0.069451 0.995 -0.282904 0.0558604 0.95752 -0.658493 0.00161201 0.752585 
0.622564 -0.180572 0.761451 0.328212 -0.0875181 0.940541 0.0814522 0.000931257 0.996677 
0.00445952 0.105612 0.994397 0.0581104 0.0609962 0.996445 0.0189038 -0.0518948 0.998474 
-0.0763443 -0.109081 0.991097 -0.0385402 -0.201697 0.978689 0.0707265 0.00883473 0.997457 
0.0540014 0.03324 0.997987 -0.0866497 0.00440195 0.996229 -0.323518 -0.0521162 0.944786 
-0.75845 -0.159647 0.631875 0.430234 -0.216786 0.8763 0.214186 -0.100441 0.971615 
0.067564 -0.00123815 0.997714 -0.0494321 -0.0146869 0.99867 -0.177306 -0.0949881 0.979561 
-0.0942307 -0.118923 0.988422 0.123692 -0.0403093 0.991502 0.154246 0.0414277 0.987164 
0.0219982 -0.00712502 0.999733 -0.148051 -0.0491133 0.98776 -0.448626 -0.163325 0.878669 
0.573222 -0.469245 0.671733 0.290529 -0.304413 0.907153 0.0907219 -0.238424 0.966914 
-0.0322329 -0.182628 0.982653 -0.0936201 -0.100491 0.990523 -0.0282604 0.0176347 0.999445 
0.126248 0.0210489 0.991775 0.109622 -0.040831 0.993134 -0.0356761 -0.0788723 0.996246 
-0.22386 -0.156161 0.962029 -0.644461 -0.372963 0.667509 0.221541 -0.520841 0.824405 
0.101861 -0.357317 0.928412 0.0270532 -0.231488 0.972462 0.0234428 -0.108603 0.993809 
0.0790372 -0.0927737 0.992545 0.0440305 -0.133962 0.990008 -0.0881373 -0.261809 0.961087 
-0.433603 -0.435158 0.789067 0.196756 -0.544676 0.815239 0.129204 -0.394012 0.909978 
0.0706112 -0.364105 0.928677 -0.0707331 -0.457639 0.88632 -0.318969 -0.597775 0.735475 
0.372105 0.788178 0.490218 0.274978 0.797561 0.53692 0.19261 0.835999 0.513817 
0.0263359 0.870371 0.491692 0.0346673 0.998106 0.0508289 -0.180955 0.830607 0.526637 
-0.377925 0.683695 0.624287 0.379964 0.78273 0.49291 0.438328 0.665152 0.604518 
-0.450525 0.606343 0.655267 -0.449537 0.526341 0.721721 -0.508238 0.706254 0.492848 
0.513609 0.583978 0.62863 0.545477 0.513774 0.662187 0.611717 0.711359 0.346079 
-0.440664 0.478009 0.759817 -0.431369 0.467508 0.771594 -0.479127 0.531833 0.698277 
0.555569 0.421674 0.716613 0.649592 0.231717 0.724112 0.766244 0.532194 0.360055 
-0.457307 0.430785 0.778007 -0.476063 0.437306 0.762973 -0.529714 0.489303 0.692809 
0.663271 0.194725 0.722602 -0.524096 0.3725 0.765877 -0.661033 0.247764 0.708271 
-0.755957 0.418925 0.503021 0.626563 0.0546131 0.777455 -0.686545 0.199782 0.699102 
0.630715 -0.0219988 0.775702 -0.739002 -0.0108847 0.673616 0.657931 -0.187226 0.729433 
0.651352 -0.23005 0.723062 -0.777799 -0.164761 0.606533 -0.780059 -0.214133 0.587924 
0.616971 -0.317363 0.720158 0.76299 -0.382977 0.520745 -0.755742 -0.331177 0.564956 
-0.894617 -0.39853 0.202077 0.587427 -0.474272 0.65574 0.577769 -0.486566 0.655315 
0.430747 -0.644605 0.631618 -0.742842 -0.433556 0.510113 -0.714091 -0.487721 0.502198 
0.418973 -0.650466 0.633527 0.441368 -0.668868 0.598172 0.307913 -0.657661 0.687511 
0.263861 -0.666141 0.697592 -0.646053 -0.544406 0.535012 -0.540097 -0.626647 0.56179 
0.397344 -0.876975 0.270246 0.260764 -0.660563 0.70403 0.295699 -0.736428 0.60847 
0.234644 -0.626971 0.742865 0.160543 -0.634726 0.755876 0.0210823 -0.687466 0.72591 
-0.1568 -0.713933 0.682433 -0.436966 -0.665422 0.605206 -0.345368 -0.683584 0.642988 
-0.663034 -0.744456 0.0785564 0.169522 -0.944912 0.280008 0.0123697 -0.915603 0.401894 
-0.198573 -0.949247 0.243923 0.0355508 0.999312 0.0105605 0.359151 0.93327 -0.00413855 
0.299058 0.954232 0.00225066 0.0680362 0.997675 0.00394014 0.191816 0.981331 -0.014026 
-0.0712905 0.997256 0.019939 0.0394897 0.998937 -0.0237735 -0.120391 0.992409 0.0251165 
-0.297789 0.94822 0.110459 -0.477998 0.85429 0.204221 0.591947 0.802945 0.0698423 
0.405331 0.91416 0.00431342 0.442683 0.896266 0.0271957 -0.5434 0.80369 0.242483 
-0.584536 0.761812 0.279214 0.646348 0.757573 0.0912019 0.790076 0.591726 0.160125 
0.52987 0.796109 -0.292316 -0.66589 0.692517 0.277506 -0.683304 0.675002 0.278332 
0.826827 0.538381 0.162795 -0.774312 0.583625 0.244585 -0.831003 0.509952 0.222225 
0.925988 0.28753 0.244689 -0.886369 0.416731 0.201706 0.946718 0.136927 0.291506 
-0.972772 0.16083 0.16688 0.953441 -0.07868 0.291135 0.979646 -0.0711316 0.187707 
-0.98939 -0.0825752 0.119532 0.908124 -0.279951 0.311349 -0.961626 -0.264492 0.0729383 
0.862391 -0.397963 0.312901 0.811499 -0.494021 0.312112 -0.912619 -0.408791 0.00415044 
-0.903843 -0.427851 -0.00333576 -0.888935 -0.437053 -0.137038 0.768763 -0.559357 0.310037 
0.638497 -0.710595 0.295596 -0.861072 -0.507556 -0.0306932 -0.812725 -0.579116 -0.0640453 
0.608582 -0.739407 0.287933 0.629933 -0.776243 0.0251167 0.488105 -0.831207 0.266174 
-0.80816 -0.585719 -0.0617235 0.40837 -0.884423 0.225899 0.400011 -0.889367 0.221399 
0.37198 -0.905933 0.202278 0.303589 -0.938877 0.162309 -0.447637 -0.893434 0.037372 
-0.67986 -0.732618 -0.0325787 -0.66788 -0.74368 -0.0296033 -0.673703 -0.731786 -0.103022 
0.235772 -0.960246 0.149464 0.165132 -0.974217 0.153731 0.147507 -0.947265 -0.284482 
-0.00363184 -0.992328 0.123581 -0.289124 -0.95534 0.0611007 -0.202819 -0.975577 0.0843389 
-0.242358 -0.956295 -0.163593 0.366157 0.856953 -0.362713 0.289105 0.891772 -0.348082 
0.20373 0.916847 -0.343344 0.0719274 0.947505 -0.311546 -0.0825032 0.953288 -0.290577 
-0.233005 0.940008 -0.249186 -0.402201 0.896562 -0.185501 0.368239 0.855871 -0.363159 
0.424557 0.825424 -0.372058 0.366679 0.854469 -0.368006 0.292433 0.791306 -0.536952 
-0.496306 0.852294 -0.165152 -0.382521 0.81884 -0.427995 -0.577728 0.801076 -0.156548 
0.743689 0.612175 -0.268643 0.513981 0.791292 -0.33118 0.519129 0.788537 -0.329719 
0.367897 0.707981 -0.60284 -0.689408 0.703037 -0.174517 -0.710294 0.681724 -0.175311 
0.760191 0.59396 -0.263288 0.739118 0.601909 -0.302341 -0.810163 0.548438 -0.207006 
-0.864695 0.447218 -0.228689 0.908173 0.370653 -0.194519 -0.900502 0.364848 -0.236607 
-0.837779 0.357419 -0.412769 0.982297 0.159048 -0.0989724 0.995787 0.019633 -0.0895685 
-0.950522 0.125198 -0.284312 0.995218 -0.0481182 -0.0850012 0.994367 -0.0725685 -0.0772479 
0.992932 -0.0434215 -0.110457 -0.948834 -0.109212 -0.29629 0.97095 -0.238373 -0.0208584 
-0.899212 -0.295825 -0.322344 -0.846887 -0.409243 -0.339563 -0.836916 -0.303225 -0.455661 
0.918397 -0.395582 0.00789334 0.828745 -0.559612 0.0039482 -0.811057 -0.463094 -0.357394 
0.819009 -0.57377 0.00343425 -0.755101 -0.508043 -0.414385 -0.74559 -0.512465 -0.425999 
-0.719227 -0.508701 -0.473219 0.629215 -0.776875 -0.0235121 0.6237 -0.781281 -0.0244537 
0.620905 -0.781551 -0.0604641 0.456613 -0.886938 -0.0696125 -0.709998 -0.540486 -0.451417 
-0.645331 -0.614225 -0.454176 -0.610737 -0.526702 -0.591257 0.367407 -0.923464 -0.110574 
0.348224 -0.929559 -0.12108 0.327518 -0.920049 -0.21504 0.315959 -0.928406 -0.19553 
0.269876 -0.926597 -0.261887 0.146671 -0.94433 -0.294497 -0.267245 -0.887268 -0.375947 
-0.590425 -0.675803 -0.441235 -0.491392 -0.761692 -0.422327 -0.495379 -0.649914 -0.576378 
0.139198 -0.944931 -0.29619 -0.134215 -0.927276 -0.349494 -0.0491999 -0.942139 -0.331591 
-0.0522286 -0.925987 -0.373925 0.200668 0.77095 -0.604457 0.0947906 0.79741 -0.595946 
-0.0440383 0.822235 -0.567442 -0.188107 0.825081 -0.532782 0.315976 0.690721 -0.650433 
0.236588 0.756371 -0.60986 0.282645 0.722366 -0.631109 0.199371 0.738202 -0.644444 
0.096973 0.702088 -0.705457 -0.0292781 0.728817 -0.684082 -0.315633 0.796115 -0.516311 
-0.178028 0.769654 -0.613138 -0.372407 0.77248 -0.514381 -0.547368 0.647255 -0.530518 
0.456642 0.62629 -0.631854 0.343708 0.682777 -0.644733 0.35449 0.680254 -0.641554 
0.282259 0.618097 -0.73368 0.238236 0.523766 -0.817871 0.161603 0.42486 -0.890718 
-0.315244 0.522968 -0.791913 -0.579204 0.618262 -0.531296 -0.541313 0.596652 -0.592441 
-0.667668 0.503372 -0.548485 0.50718 0.596361 -0.622191 0.670612 0.489377 -0.557486 
0.438984 0.591196 -0.676595 0.274981 0.538245 -0.796666 0.169896 0.450639 -0.87639 
-0.447738 0.367039 -0.815361 -0.685443 0.469775 -0.556308 -0.653979 0.451629 -0.606912 
0.70978 0.444836 -0.546199 0.66438 0.453406 -0.594157 0.388734 0.454674 -0.801347 
-0.735261 0.323317 -0.595699 -0.572127 0.271385 -0.773964 -0.798449 0.103881 -0.593033 
0.858598 0.248739 -0.448261 0.629134 0.300438 -0.716887 -0.524444 0.120255 -0.84291 
-0.799108 0.097702 -0.593195 -0.79779 0.0976379 -0.594977 0.930563 0.0110889 -0.365964 
-0.526427 -0.0865418 -0.845804 -0.804015 -0.111364 -0.584087 -0.803874 -0.112235 -0.584115 
-0.803747 -0.111348 -0.584459 0.927537 -0.194263 -0.319277 -0.745985 -0.299509 -0.594812 
-0.569706 -0.292222 -0.768142 0.876747 -0.38126 -0.293182 0.812391 -0.507047 -0.287965 
0.767904 -0.362736 -0.527964 -0.364792 -0.385795 -0.847401 -0.648289 -0.440864 -0.620774 
-0.635938 -0.452816 -0.624932 -0.61643 -0.43523 -0.656192 0.755114 -0.583283 -0.299306 
0.574714 -0.74243 -0.344242 0.441774 -0.545326 -0.712359 -0.127849 -0.208632 -0.969602 
-0.287928 -0.321829 -0.901956 -0.586309 -0.466526 -0.662265 -0.559638 -0.476427 -0.678102 
-0.505361 -0.434174 -0.745723 0.516418 -0.777725 -0.358408 0.398698 -0.830727 -0.3885 
0.337786 -0.724023 -0.601408 0.262279 -0.848748 -0.459169 0.130956 -0.609166 -0.782156 
0.0719612 -0.477399 -0.875735 -0.138608 -0.291077 -0.946606 -0.236938 -0.358996 -0.902764 
-0.518511 -0.49338 -0.698372 -0.447256 -0.550731 -0.70474 -0.400603 -0.446757 -0.799953 
0.221353 -0.83793 -0.498875 0.21634 -0.834795 -0.506275 0.21253 -0.828611 -0.517914 
0.170406 -0.795549 -0.581432 0.131543 -0.726054 -0.674939 0.063447 -0.759596 -0.647294 
0.0222183 -0.631326 -0.775199 -0.0966763 -0.71225 -0.695236 -0.110917 -0.592049 -0.798232 
-0.335697 -0.614835 -0.713643 -0.267555 -0.642631 -0.717941 -0.264222 -0.600509 -0.754702 
0.120963 0.407599 -0.905114 0.0232854 0.483205 -0.875197 -0.122835 0.501222 -0.856556 
0.150958 0.429044 -0.89058 0.123612 0.405041 -0.905904 0.144428 0.39994 -0.90509 
0.121298 0.404419 -0.906494 0.0358498 0.418375 -0.907567 -0.201244 0.489426 -0.848506 
-0.115864 0.466106 -0.877109 -0.297586 0.457441 -0.837968 0.227432 0.48586 -0.843928 
0.157513 0.438736 -0.884704 0.164544 0.445775 -0.879892 0.12611 0.413074 -0.901924 
0.112305 0.402703 -0.908415 0.0948648 0.348716 -0.932415 0.0520463 0.278171 -0.95912 
-0.0631001 0.274311 -0.959569 -0.402062 0.345292 -0.848009 -0.262455 0.294915 -0.918772 
-0.426645 0.307756 -0.850447 0.371501 0.452958 -0.810442 0.386807 0.446713 -0.806739 
0.193578 0.435402 -0.879177 0.153607 0.422001 -0.893488 0.176841 0.457796 -0.871292 
0.0666466 0.454197 -0.888405 -0.0578174 0.318291 -0.946228 -0.0563138 0.210689 -0.97593 
-0.100663 0.133904 -0.985868 -0.22086 0.144199 -0.964587 -0.452298 0.228237 -0.862168 
-0.387378 0.205317 -0.898768 0.55296 0.311282 -0.772877 0.645786 0.18276 -0.741323 
0.370207 0.329376 -0.868595 0.19678 0.325794 -0.924735 0.175469 0.27679 -0.944774 
-0.146282 -0.0609817 -0.987361 -0.119462 0.0575736 -0.991168 -0.128322 0.019349 -0.991544 
-0.182591 0.0290387 -0.98276 -0.481683 0.112113 -0.869144 -0.326051 0.0820597 -0.941784 
0.691626 0.0934952 -0.716179 0.659912 0.0999355 -0.744667 0.370792 0.135445 -0.918786 
0.145509 0.122815 -0.981704 -0.164105 -0.252184 -0.953663 0.0214238 -0.160768 -0.98676 
0.0119868 -0.120082 -0.992692 -0.132358 -0.138929 -0.981417 -0.159018 -0.105059 -0.98167 
-0.492403 -0.0824384 -0.866454 -0.299887 -0.0708037 -0.951344 0.730063 -0.126913 -0.671492 
0.716881 -0.186445 -0.671803 0.704904 -0.12276 -0.698599 0.363917 -0.101382 -0.925897 
0.102894 -0.126981 -0.986554 -0.0662722 -0.146156 -0.987039 -0.146864 -0.190322 -0.970674 
-0.0795524 -0.145381 -0.986172 -0.0271417 -0.155115 -0.987524 -0.105502 -0.336907 -0.935608 
-0.0963469 -0.276901 -0.956056 -0.116828 -0.242398 -0.963117 -0.408514 -0.264488 -0.873592 
-0.324879 -0.325049 -0.888143 -0.293321 -0.244537 -0.92421 0.638459 -0.343304 -0.688849 
0.438982 -0.539677 -0.718362 0.389006 -0.326669 -0.861372 0.108291 -0.29149 -0.950424 
-0.0518328 -0.260186 -0.964166 -0.116785 -0.216888 -0.969186 -0.127496 -0.168327 -0.977451 
-0.156069 -0.238275 -0.958576 -0.095637 -0.24047 -0.965934 -0.118054 -0.210207 -0.970503 
-0.0508424 -0.226658 -0.972647 -0.215945 -0.312282 -0.92512 -0.181887 -0.285609 -0.940927 
-0.146399 -0.276166 -0.949894 0.432072 -0.541832 -0.720924 0.242663 -0.578053 -0.779082 
0.177867 -0.458553 -0.870685 0.0968868 -0.548117 -0.830771 0.0212524 -0.378634 -0.925302 
0.0689752 -0.471936 -0.878931 -0.04419 -0.299455 -0.953087 -0.0901901 -0.22539 -0.970085 
-0.121035 -0.165657 -0.978728 -0.120676 -0.189367 -0.974463 -0.118311 -0.194609 -0.97372 
-0.10189 -0.133697 -0.985771 0.061786 -0.463245 -0.884074 0.0142585 -0.413883 -0.910218 
0.0079669 -0.392506 -0.919715 -0.0736109 -0.316433 -0.945754 -0.0638528 -0.326308 -0.943104 
-0.0653795 -0.320308 -0.945055 0.147238 0.213305 -0.965827 0.0171142 0.250521 -0.96796 
0.151674 0.200443 -0.967893 0.0605306 0.104243 -0.992708 0.135347 0.152443 -0.979001 
-0.140112 -0.0590869 -0.988371 -0.101266 -0.137891 -0.985257 -0.041145 -0.0269325 -0.99879 
0.112834 0.101394 -0.988427 -0.028804 -0.0591217 -0.997835 0.0121849 0.0326538 -0.999392 
-0.109992 -0.123537 -0.986225 -0.109378 -0.120865 -0.986625 -0.107426 -0.11767 -0.987225 

