# vtk DataFile Version 4.2
vtk output
ASCII
DATASET POLYDATA
POINTS 494 float
-5.75948 -36.3967 -16.6367 2.13662 -36.3967 -18.9184 10.0327 -36.3967 -20.189 
17.9288 -36.3967 -20.3846 25.8249 -36.3967 -17.4385 -29.4478 -28.5006 -18.2342 
-21.5517 -28.5006 -19.2725 -13.6556 -28.5006 -20.0915 -5.75948 -28.5006 -20.4489 
2.13662 -28.5006 -21.5009 10.0327 -28.5006 -22.2862 17.9288 -28.5006 -22.8134 
25.8249 -28.5006 -21.0324 33.721 -28.5006 -18.0032 -45.2399 -20.6045 -15.6344 
-37.3439 -20.6045 -19.6235 -29.4478 -20.6045 -21.1107 -21.5517 -20.6045 -21.2356 
-13.6556 -20.6045 -21.1924 -5.75948 -20.6045 -20.9146 2.13662 -20.6045 -21.357 
10.0327 -20.6045 -22.3007 17.9288 -20.6045 -22.8869 25.8249 -20.6045 -22.2984 
33.721 -20.6045 -20.7177 41.6171 -20.6045 -16.342 -45.2399 -12.7084 -18.1884 
-37.3439 -12.7084 -21.3347 -29.4478 -12.7084 -22.3531 -21.5517 -12.7084 -21.3789 
-13.6556 -12.7084 -20.4668 -5.75948 -12.7084 -20.1301 2.13662 -12.7084 -20.2409 
10.0327 -12.7084 -21.4479 17.9288 -12.7084 -21.9047 25.8249 -12.7084 -21.6591 
33.721 -12.7084 -20.7008 41.6171 -12.7084 -18.4048 -45.2399 -4.81232 -18.9904 
-37.3439 -4.81232 -21.5867 -29.4478 -4.81232 -21.9146 -21.5517 -4.81232 -21.0159 
-13.6556 -4.81232 -20.4484 -5.75948 -4.81232 -21.5507 2.13662 -4.81232 -21.2454 
10.0327 -4.81232 -21.8104 17.9288 -4.81232 -21.0876 25.8249 -4.81232 -21.2743 
33.721 -4.81232 -20.8524 41.6171 -4.81232 -19.3862 -45.2399 3.08377 -19.6271 
-37.3439 3.08377 -22.1865 -29.4478 3.08377 -22.7588 -21.5517 3.08377 -22.1343 
-13.6556 3.08377 -21.5303 -5.75948 3.08377 -21.0359 2.13662 3.08377 -20.1407 
10.0327 3.08377 -21.7328 17.9288 3.08377 -20.6926 25.8249 3.08377 -20.9248 
33.721 3.08377 -20.6018 41.6171 3.08377 -18.9146 -45.2399 10.9799 -18.768 
-37.3439 10.9799 -22.0938 -29.4478 10.9799 -22.9906 -21.5517 10.9799 -22.5548 
-13.6556 10.9799 -21.3479 -5.75948 10.9799 -20.2978 2.13662 10.9799 -20.7897 
10.0327 10.9799 -20.4555 17.9288 10.9799 -19.5847 25.8249 10.9799 -19.8296 
33.721 10.9799 -19.7064 41.6171 10.9799 -17.7003 -45.2399 18.876 -15.6946 
-37.3439 18.876 -20.6464 -29.4478 18.876 -22.2244 -21.5517 18.876 -22.0663 
-13.6556 18.876 -21.36 -5.75948 18.876 -20.9049 2.13662 18.876 -20.6762 
10.0327 18.876 -19.2249 17.9288 18.876 -18.2973 25.8249 18.876 -18.1035 
33.721 18.876 -17.6936 -29.4478 26.7721 -19.2719 -21.5517 26.7721 -20.3397 
-13.6556 26.7721 -20.8828 -5.75948 26.7721 -20.0933 2.13662 26.7721 -19.2843 
10.0327 26.7721 -18.1263 17.9288 26.7721 -17.0826 25.8249 26.7721 -16.1399 
-13.6556 34.6681 -16.8285 -5.75948 34.6681 -16.9106 2.13662 34.6681 -16.3897 
10.0327 34.6681 -15.4875 -5.75948 -37.6495 -15.2185 2.13662 -40.7032 -15.2185 
10.0327 -42.2145 -15.2185 10.0327 -44.2928 -8.41265 17.9288 -41.7706 -15.2185 
25.8249 -38.5912 -15.2185 -29.4478 -31.4776 -15.2185 -21.5517 -32.9463 -15.2185 
-8.78176 -36.3967 -15.2185 -13.6556 -34.2771 -15.2185 29.3813 -36.3967 -15.2185 
33.721 -32.6702 -15.2185 33.721 -36.3967 -8.45926 -45.2399 -21.1202 -15.2185 
-36.3802 -28.5006 -15.2185 -37.3439 -27.8935 -15.2185 -37.3439 -28.5006 -14.1029 
37.7695 -28.5006 -15.2185 41.6171 -22.7389 -15.2185 41.6171 -28.5006 -9.2088 
-45.6358 -20.6045 -15.2185 42.8584 -20.6045 -15.2185 -48.1917 -12.7084 -15.2185 
46.364 -12.7084 -15.2185 49.5132 -12.7084 -11.2515 -49.9208 -4.81232 -15.2185 
-53.136 -4.81232 -7.93277 48.8258 -4.81232 -15.2185 49.5132 -4.81232 -14.4812 
-50.449 3.08377 -15.2185 -53.136 3.08377 -7.37752 48.4948 3.08377 -15.2185 
49.5132 3.08377 -14.2902 -48.9198 10.9799 -15.2185 45.9685 10.9799 -15.2185 
41.6171 17.1476 -15.2185 49.5132 10.9799 -11.5244 -45.6192 18.876 -15.2185 
-45.2399 19.3682 -15.2185 -37.3439 26.7335 -15.2185 39.8898 18.876 -15.2185 
33.721 23.8924 -15.2185 41.6171 18.876 -14.3106 -37.2895 26.7721 -15.2185 
-37.3439 26.7721 -15.1341 -29.4478 31.4127 -15.2185 -21.5517 34.6125 -15.2185 
17.9288 32.2233 -15.2185 28.9969 26.7721 -15.2185 25.8249 29.2433 -15.2185 
33.721 26.7721 -13.4375 -21.3405 34.6681 -15.2185 -21.5517 34.6681 -15.1312 
-13.6556 36.3106 -15.2185 -5.75948 36.8173 -15.2185 2.13662 36.4886 -15.2185 
11.8069 34.6681 -15.2185 10.0327 35.1906 -15.2185 17.9288 34.6681 -14.2262 
25.8249 34.6681 -12.2041 -5.75948 42.5642 -7.60272 2.13662 42.5642 -9.47029 
10.0327 42.5642 -9.79248 17.9288 42.5642 -7.55843 10.0327 -44.5435 -7.32241 
-5.75948 -39.8722 -7.32241 8.00222 -44.2928 -7.32241 2.13662 -43.4702 -7.32241 
14.0515 -44.2928 -7.32241 10.0327 -44.2928 -4.9146 17.9288 -44.0492 -7.32241 
25.8249 -41.4969 -7.32241 33.721 -36.8481 -7.32241 -37.3439 -30.8959 -7.32241 
-29.4478 -33.2454 -7.32241 -21.5517 -34.6998 -7.32241 -13.5077 -36.3967 -7.32241 
-13.6556 -36.3383 -7.32241 34.2975 -36.3967 -7.32241 41.6171 -29.5679 -7.32241 
-41.4885 -28.5006 -7.32241 -45.2399 -25.5791 -7.32241 42.5427 -28.5006 -7.32241 
-49.1546 -20.6045 -7.32241 47.9531 -20.6045 -7.32241 49.5132 -17.3509 -7.32241 
-52.3907 -12.7084 -7.32241 -53.136 -6.58738 -7.32241 51.5627 -12.7084 -7.32241 
-53.3376 -4.81232 -7.32241 -53.136 -4.81232 -5.69583 53.6548 -4.81232 -7.32241 
-53.1507 3.08377 -7.32241 -53.136 3.18681 -7.32241 -53.136 3.08377 -7.23191 
53.5932 3.08377 -7.32241 -51.895 10.9799 -7.32241 51.9443 10.9799 -7.32241 
49.5132 16.2206 -7.32241 -48.03 18.876 -7.32241 -45.2399 22.4531 -7.32241 
48.1017 18.876 -7.32241 41.6171 26.4943 -7.32241 -40.6057 26.7721 -7.32241 
-37.3439 29.4495 -7.32241 -29.4478 34.4052 -7.32241 41.3144 26.7721 -7.32241 
33.721 33.2657 -7.32241 41.6171 26.7721 -6.09597 -28.8994 34.6681 -7.32241 
-21.5517 38.0523 -7.32241 -13.6556 40.6626 -7.32241 31.8495 34.6681 -7.32241 
25.8249 38.8358 -7.32241 33.721 34.6681 -2.49799 -6.34765 42.5642 -7.32241 
-5.75948 42.7218 -7.32241 2.13662 44.0303 -7.32241 10.0327 44.2662 -7.32241 
18.3072 42.5642 -7.32241 17.9288 42.7293 -7.32241 -5.75948 -38.271 0.573686 
2.13662 -41.9631 0.573686 10.0327 -43.6806 0.573686 17.9288 -43.4334 0.573686 
25.8249 -41.064 0.573686 33.721 -36.5358 0.573686 -37.3439 -30.1945 0.573686 
-29.4478 -32.468 0.573686 -21.5517 -33.7082 0.573686 -9.9989 -36.3967 0.573686 
-13.6556 -35.0256 0.573686 -5.75948 -36.3967 4.27752 33.8929 -36.3967 0.573686 
33.721 -36.3967 0.901786 41.6171 -29.3162 0.573686 -40.1897 -28.5006 0.573686 
-45.2399 -24.7565 0.573686 -37.3439 -28.5006 6.1213 42.3332 -28.5006 0.573686 
41.6171 -28.5006 2.12675 -48.8764 -20.6045 0.573686 47.9037 -20.6045 0.573686 
49.5132 -17.1638 0.573686 -51.8105 -12.7084 0.573686 51.4181 -12.7084 0.573686 
49.5132 -12.7084 4.75174 -52.3548 -4.81232 0.573686 53.6205 -4.81232 0.573686 
-51.8236 3.08377 0.573686 53.649 3.08377 0.573686 -50.5393 10.9799 0.573686 
52.0608 10.9799 0.573686 49.5132 17.255 0.573686 49.5132 10.9799 6.14322 
-45.9445 18.876 0.573686 -45.2399 19.8288 0.573686 -45.2399 18.876 1.89577 
48.8039 18.876 0.573686 -39.0492 26.7721 0.573686 -37.3439 28.2492 0.573686 
-37.3439 26.7721 3.76846 -29.4478 33.7872 0.573686 43.0383 26.7721 0.573686 
41.6171 28.2831 0.573686 41.6171 26.7721 4.34062 -27.9473 34.6681 0.573686 
-21.5517 38.0492 0.573686 -13.6556 41.2346 0.573686 25.8249 41.095 0.573686 
34.7515 34.6681 0.573686 33.721 35.4799 0.573686 33.721 34.6681 3.68972 
-9.93148 42.5642 0.573686 -5.75948 43.9598 0.573686 -5.75948 42.5642 6.18563 
2.13662 45.6153 0.573686 10.0327 45.8976 0.573686 22.6993 42.5642 0.573686 
17.9288 44.57 0.573686 2.13662 -37.667 8.46978 10.0327 -39.7593 8.46978 
17.9288 -40.1438 8.46978 25.8249 -38.0772 8.46978 -29.4478 -30.6483 8.46978 
-21.5517 -31.5073 8.46978 -13.6556 -32.0186 8.46978 -0.813013 -36.3967 8.46978 
-5.75948 -33.9879 8.46978 2.13662 -36.3967 9.86834 10.0327 -36.3967 12.2969 
17.9288 -36.3967 13.1152 28.7833 -36.3967 8.46978 25.8249 -36.3967 10.6813 
33.721 -32.9005 8.46978 -45.2399 -21.6215 8.46978 -35.5774 -28.5006 8.46978 
-37.3439 -27.7433 8.46978 -29.4478 -28.5006 13.248 -21.5517 -28.5006 14.4601 
-13.6556 -28.5006 13.7209 -5.75948 -28.5006 13.6039 2.13662 -28.5006 15.039 
38.2898 -28.5006 8.46978 33.721 -28.5006 12.6872 41.6171 -24.1808 8.46978 
-46.0543 -20.6045 8.46978 -45.2399 -20.6045 10.1704 44.0143 -20.6045 8.46978 
41.6171 -20.6045 11.1338 -49.2866 -12.7084 8.46978 -45.2399 -12.7084 15.9591 
47.4485 -12.7084 8.46978 41.6171 -12.7084 13.8833 49.5132 -5.42559 8.46978 
-49.6823 -4.81232 8.46978 41.6171 -4.81232 15.4396 49.6686 -4.81232 8.46978 
49.5132 -4.81232 8.65574 -48.6345 3.08377 8.46978 -45.2399 3.08377 13.9169 
41.6171 3.08377 15.4643 49.759 3.08377 8.46978 49.5132 4.4827 8.46978 
49.5132 3.08377 8.76551 -46.1555 10.9799 8.46978 -45.2399 12.7205 8.46978 
-45.2399 10.9799 9.80941 48.2348 10.9799 8.46978 41.6171 10.9799 14.649 
-41.3421 18.876 8.46978 -37.3439 23.8762 8.46978 -37.3439 18.876 12.9954 
45.1843 18.876 8.46978 41.6171 24.4578 8.46978 41.6171 18.876 12.343 
-34.472 26.7721 8.46978 -29.4478 30.6775 8.46978 -29.4478 26.7721 13.2766 
39.9789 26.7721 8.46978 33.721 33.1793 8.46978 33.721 26.7721 15.1713 
-23.7101 34.6681 8.46978 -21.5517 35.9065 8.46978 -21.5517 34.6681 10.4956 
-13.6556 39.1189 8.46978 -13.6556 34.6681 15.194 -5.75948 41.9074 8.46978 
32.0416 34.6681 8.46978 25.8249 39.1091 8.46978 25.8249 34.6681 14.8469 
-2.87522 42.5642 8.46978 2.13662 43.6315 8.46978 2.13662 42.5642 10.1604 
10.0327 44.1759 8.46978 10.0327 42.5642 11.0902 18.5187 42.5642 8.46978 
17.9288 42.8117 8.46978 17.9288 42.5642 8.89422 10.0327 -29.5816 16.3659 
17.9288 -31.5174 16.3659 25.8249 -28.6631 16.3659 -37.3439 -23.373 16.3659 
-29.4478 -26.7542 16.3659 -21.5517 -27.377 16.3659 -13.6556 -26.3147 16.3659 
-5.75948 -24.6666 16.3659 7.80399 -28.5006 16.3659 2.13662 -25.1721 16.3659 
10.0327 -28.5006 16.8405 17.9288 -28.5006 17.7761 26.051 -28.5006 16.3659 
25.8249 -28.5006 16.4512 33.721 -21.7152 16.3659 -40.7185 -20.6045 16.3659 
-37.3439 -20.6045 19.2901 -29.4478 -20.6045 23.2798 -21.5517 -20.6045 24.2114 
-13.6556 -20.6045 22.2392 -5.75948 -20.6045 19.3254 2.13662 -20.6045 17.9659 
10.0327 -20.6045 18.9108 17.9288 -20.6045 19.1494 25.8249 -20.6045 18.4669 
34.5707 -20.6045 16.3659 33.721 -20.6045 16.8088 -44.983 -12.7084 16.3659 
[...]
POINT_DATA 494
SCALARS ImageScalars float
LOOKUP_TABLE default
0 0 0 0 0 0 0 0 0 
0 0 0 0 0 0 0 0 0 
0 0 0 0 0 0 0 0 0 
0 0 0 0 0 0 0 0 0 
0 0 0 0 0 0 0 0 0 
0 0 0 0 0 0 0 0 0 
0 0 0 0 0 0 0 0 0 
0 0 0 0 0 0 0 0 0 
0 0 0 0 0 0 0 0 0 
0 0 0 0 0 0 0 0 0 
0 0 0 0 0 0 0 0 0 
0 0 0 0 0 0 0 0 0 
0 0 0 0 0 0 0 0 0 
0 0 0 0 0 0 0 0 0 
0 0 0 0 0 0 0 0 0 
0 0 0 0 0 0 0 0 0 
0 0 0 0 0 0 0 0 0 
0 0 0 0 0 0 0 0 0 
0 0 0 0 0 0 0 0 0 
0 0 0 0 0 0 0 0 0 
0 0 0 0 0 0 0 0 0 
0 0 0 0 0 0 0 0 0 
0 0 0 0 0 0 0 0 0 
0 0 0 0 0 0 0 0 0 
0 0 0 0 0 0 0 0 0 
0 0 0 0 0 0 0 0 0 
0 0 0 0 0 0 0 0 0 
0 0 0 0 0 0 0 0 0 
0 0 0 0 0 0 0 0 0 
0 0 0 0 0 0 0 0 0 
0 0 0 0 0 0 0 0 0 
0 0 0 0 0 0 0 0 0 
0 0 0 0 0 0 0 0 0 
0 0 0 0 0 0 0 0 0 
0 0 0 0 0 0 0 0 0 
0 0 0 0 0 0 0 0 0 
0 0 0 0 0 0 0 0 0 
0 0 0 0 0 0 0 0 0 
0 0 0 0 0 0 0 0 0 
0 0 0 0 0 0 0 0 0 
0 0 0 0 0 0 0 0 0 
0 0 0 0 0 0 0 0 0 
0 0 0 0 0 0 0 0 0 
0 0 0 0 0 0 0 0 0 
0 0 0 0 0 0 0 0 0 
0 0 0 0 0 0 0 0 0 
0 0 0 0 0 0 0 0 0 
0 0 0 0 0 0 0 0 0 
0 0 0 0 0 0 0 0 0 
0 0 0 0 0 0 0 0 0 
0 0 0 0 0 0 0 0 0 
0 0 0 0 0 0 0 0 0 
0 0 0 0 0 0 0 0 0 
0 0 0 0 0 0 0 0 0 
0 0 0 0 0 0 0 0 
NORMALS Normals float
-0.315118 -0.719296 -0.619123 -0.191154 -0.533767 -0.823744 -0.0825027 -0.459568 -0.884302 
0.139195 -0.48663 -0.862448 0.404671 -0.616672 -0.675246 -0.227072 -0.637356 -0.736353 
-0.112443 -0.501217 -0.857985 -0.0760847 -0.389084 -0.918055 -0.0888236 -0.203046 -0.975132 
-0.117139 -0.126074 -0.985081 -0.0803577 -0.116981 -0.989878 0.0787461 -0.141005 -0.986872 
0.26766 -0.252975 -0.929711 0.474842 -0.416806 -0.775112 -0.665516 -0.433188 -0.607813 
-0.301435 -0.311254 -0.901254 -0.0937503 -0.219269 -0.97115 -0.00592519 -0.119383 -0.992831 
0.0209111 -0.0154842 -0.999661 -0.00901154 0.0199547 -0.99976 -0.0895248 0.0805906 -0.992719 
-0.0939868 0.0526428 -0.994181 -0.00113905 0.0579198 -0.998321 0.126831 -0.0375251 -0.991214 
0.30334 -0.144764 -0.941822 0.602163 -0.32744 -0.728136 -0.575749 -0.180472 -0.79746 
-0.200856 -0.119843 -0.972262 2.28233e-05 -0.0589425 -0.998261 0.120449 0.0142422 -0.992617 
0.0764281 0.0476745 -0.995935 0.0143649 -0.0357062 -0.999259 -0.0833793 0.0038843 -0.99651 
-0.105338 0.0311357 -0.993949 -0.0130148 0.113003 -0.993509 0.0743252 0.0631473 -0.995233 
0.193459 -0.00860939 -0.981071 0.427978 -0.161796 -0.889189 -0.51225 -0.0749889 -0.855556 
-0.164866 -0.049353 -0.98508 0.0343699 -0.0265007 -0.999058 0.09311 -0.0472349 -0.994535 
-0.0310233 -0.0685117 -0.997168 -0.0520937 -0.0616977 -0.996734 -0.0176425 0.00447398 -0.999834 
0.0102155 -0.0179934 -0.999786 0.0338537 0.0763466 -0.996506 0.0145462 0.046333 -0.99882 
0.121772 0.00637453 -0.992538 0.33288 -0.028197 -0.942548 -0.506143 0.00843282 -0.862408 
-0.183472 -0.0355729 -0.982381 0.0032673 -0.0678979 -0.997687 0.0785584 -0.0981853 -0.992063 
0.066061 -0.0566452 -0.996206 0.0901841 0.0809552 -0.992629 -0.0483346 0.0295565 -0.998394 
-0.0317516 0.0830069 -0.996043 0.050365 0.0941435 -0.994284 0.00554942 0.0905263 -0.995879 
0.12104 0.0724796 -0.989998 0.334627 0.104516 -0.936537 -0.610751 0.191547 -0.768305 
-0.228431 0.0850602 -0.969837 -0.0299329 0.031403 -0.999058 0.103185 0.00463389 -0.994651 
0.141631 0.0107623 -0.989861 0.0351362 0.0051715 -0.999369 -0.0104987 -0.0326198 -0.999413 
0.0769913 0.159247 -0.984232 0.0377047 0.15059 -0.987877 -0.00740105 0.172027 -0.985064 
0.128307 0.177276 -0.975761 0.372583 0.235831 -0.897533 -0.707935 0.492225 -0.5065 
-0.332215 0.364343 -0.869993 -0.0795608 0.209368 -0.974595 0.0544078 0.136652 -0.989124 
0.0728065 0.0264948 -0.996994 0.0430255 0.011797 -0.999004 0.104674 0.0934677 -0.990105 
0.149956 0.14175 -0.978478 0.0690295 0.156556 -0.985254 0.0368234 0.231076 -0.972239 
0.193191 0.347333 -0.917626 -0.255553 0.514891 -0.818279 -0.0894363 0.361875 -0.927926 
0.0155573 0.235891 -0.971655 0.0956423 0.229185 -0.968673 0.119392 0.247737 -0.961443 
0.137098 0.217618 -0.966357 0.121183 0.237394 -0.963825 0.197334 0.306542 -0.931177 
-0.0877401 0.641461 -0.762122 0.0253053 0.536434 -0.843563 0.0821194 0.462134 -0.883 
0.121147 0.397733 -0.909468 -0.34109 -0.785383 -0.516556 -0.246484 -0.780475 -0.574547 
-0.0495132 -0.836594 -0.545582 -0.0310118 -0.99285 -0.115274 0.19023 -0.840798 -0.506824 
0.4183 -0.721722 -0.551491 -0.267647 -0.818546 -0.508279 -0.162203 -0.825416 -0.54072 
-0.310491 -0.805013 -0.505519 -0.236472 -0.807407 -0.540533 0.488132 -0.673206 -0.555446 
0.544988 -0.577516 -0.607835 0.589497 -0.784316 -0.19324 -0.672039 -0.451386 -0.587039 
-0.440546 -0.733473 -0.517627 -0.460832 -0.709347 -0.533348 -0.460555 -0.76362 -0.452519 
0.600607 -0.479133 -0.640081 0.636299 -0.388881 -0.666254 0.744266 -0.611185 -0.269298 
-0.683254 -0.433672 -0.587446 0.640719 -0.353057 -0.681785 -0.7166 -0.229685 -0.658581 
0.622963 -0.248434 -0.741753 0.838465 -0.307423 -0.449964 -0.762056 -0.109208 -0.638236 
-0.989628 -0.0488935 -0.135076 0.680614 -0.0872676 -0.727427 0.733884 -0.0961262 -0.672439 
-0.806574 0.0572378 -0.588355 -0.995112 0.0823521 -0.0545033 0.638463 0.105059 -0.762449 
0.716806 0.105086 -0.689308 -0.789772 0.259814 -0.555659 0.557248 0.276779 -0.782859 
0.452823 0.402685 -0.795485 0.803714 0.312553 -0.506314 -0.723445 0.496881 -0.479308 
-0.714693 0.509104 -0.479611 -0.523857 0.693548 -0.494536 0.414629 0.430355 -0.801797 
0.301601 0.461087 -0.834527 0.490978 0.463628 -0.737557 -0.52302 0.694004 -0.494781 
-0.525705 0.695913 -0.489223 -0.371142 0.743077 -0.556858 -0.24011 0.759836 -0.604149 
0.135609 0.368036 -0.919869 0.266586 0.392912 -0.880086 0.240255 0.382647 -0.892109 
0.384289 0.543992 -0.745919 -0.237331 0.759686 -0.605434 -0.242629 0.764116 -0.59771 
-0.117232 0.716511 -0.687654 -0.0136419 0.627922 -0.778157 0.0544207 0.528257 -0.847338 
0.12538 0.404645 -0.905838 0.118234 0.416544 -0.901394 0.159435 0.448183 -0.879609 
0.368767 0.604912 -0.705757 -0.194009 0.915885 -0.351446 -0.0807387 0.854982 -0.512336 
0.0817851 0.818475 -0.568691 0.297105 0.839414 -0.455096 -0.0305785 -0.997616 -0.0618634 
-0.407068 -0.912972 -0.0278801 -0.0902574 -0.994316 -0.0564655 -0.272666 -0.961094 -0.0441684 
0.0753634 -0.994629 -0.0709476 -0.044256 -0.998555 0.0304795 0.177168 -0.98091 -0.0801713 
0.393289 -0.911567 -0.119872 0.585504 -0.798295 -0.141103 -0.401158 -0.909583 -0.10831 
-0.225385 -0.9731 -0.0477203 -0.18638 -0.982102 -0.0271877 -0.30569 -0.951974 -0.0173109 
-0.303632 -0.952624 -0.017774 0.596334 -0.7903 -0.140755 0.743037 -0.647297 -0.170008 
-0.5407 -0.833088 -0.116653 -0.710473 -0.69054 -0.135584 0.759539 -0.626861 -0.173626 
-0.849764 -0.50219 -0.160334 0.855749 -0.471495 -0.213041 0.888153 -0.407941 -0.211585 
-0.956605 -0.242473 -0.1616 -0.989772 -0.0865175 -0.113429 0.921457 -0.323785 -0.214662 
-0.993801 -0.043867 -0.102149 -0.998675 -0.0357564 -0.0370058 0.963159 -0.124475 -0.238393 
-0.995264 0.0824082 -0.0515541 -0.994996 0.0852762 -0.0520575 -0.995436 0.0824388 -0.0480765 
0.964074 0.102159 -0.245202 -0.947285 0.308702 -0.0857544 0.919125 0.29854 -0.257067 
0.851931 0.439481 -0.284729 -0.840929 0.540717 -0.0215027 -0.768616 0.639132 -0.0271802 
0.794962 0.517314 -0.316892 0.642439 0.675109 -0.362629 -0.657047 0.751561 -0.0587007 
-0.603206 0.794414 -0.0710523 -0.464084 0.87966 -0.104037 0.637391 0.677485 -0.367078 
0.546623 0.71927 -0.428781 0.66548 0.684243 -0.298243 -0.455883 0.883354 -0.108886 
-0.357968 0.916929 -0.176354 -0.269155 0.931149 -0.246004 0.535303 0.726988 -0.430045 
0.457351 0.762052 -0.458373 0.606706 0.778889 -0.158869 -0.202933 0.921095 -0.332269 
-0.197982 0.919685 -0.339091 -0.097338 0.909014 -0.40524 0.0784186 0.897531 -0.433923 
0.304746 0.843173 -0.442932 0.296007 0.846953 -0.441646 -0.392733 -0.870597 0.296349 
-0.296135 -0.903788 0.308983 -0.0789096 -0.963941 0.254147 0.150319 -0.964299 0.218018 
0.364786 -0.911458 0.190197 0.581189 -0.793877 0.178825 -0.396723 -0.900304 0.179063 
-0.20127 -0.966145 0.161416 -0.151046 -0.969706 0.191978 -0.32737 -0.904002 0.274972 
-0.26023 -0.931492 0.254171 -0.36021 -0.830453 0.424966 0.584595 -0.791415 0.178636 
0.581268 -0.791008 0.190877 0.742115 -0.645445 0.180738 -0.488502 -0.853499 0.181397 
-0.705196 -0.685623 0.180611 -0.42725 -0.86142 0.274613 0.75465 -0.630408 0.181906 
0.743137 -0.62349 0.242915 -0.839568 -0.514011 0.175836 0.857585 -0.477141 0.192051 
0.893654 -0.402418 0.198598 -0.963192 -0.192271 0.187864 0.924462 -0.321724 0.204605 
0.866137 -0.30554 0.395541 -0.974191 -8.03797e-05 0.225727 0.965975 -0.134484 0.220923 
-0.957852 0.0986433 0.269793 0.973158 0.0921421 0.210885 -0.89094 0.318097 0.3241 
0.944533 0.271414 0.184913 0.889101 0.429735 0.157568 0.851836 0.251504 0.459479 
-0.785255 0.522119 0.332817 -0.773001 0.540839 0.331607 -0.771525 0.520324 0.366076 
0.86797 0.474778 0.145648 -0.655218 0.713595 0.247935 -0.626584 0.742501 0.236822 
-0.637403 0.696652 0.329232 -0.510932 0.840644 0.179629 0.750827 0.656943 0.0684493 
0.731396 0.679598 0.0566315 0.743927 0.626997 0.231185 -0.491501 0.85547 0.163089 
-0.413572 0.902525 0.120025 -0.34804 0.93389 0.0819646 0.499867 0.866062 -0.00830243 
0.628929 0.777451 0.0041663 0.617076 0.786904 1.76435e-05 0.628133 0.766266 0.135225 
-0.308142 0.949379 0.0610551 -0.262461 0.96387 0.0454896 -0.256357 0.919611 0.297652 
-0.127305 0.991472 0.0278656 0.0643406 0.997891 0.00861447 0.408315 0.912829 -0.00471749 
0.273248 0.961944 -0.000191344 -0.287004 -0.741225 0.606807 -0.133325 -0.807309 0.574872 
0.0934889 -0.847927 0.521805 0.345807 -0.802159 0.486783 -0.207737 -0.928815 0.306835 
-0.0821294 -0.929707 0.359026 -0.120619 -0.877597 0.463976 -0.300075 -0.742373 0.599031 
-0.273501 -0.751402 0.600493 -0.284747 -0.6953 0.659907 -0.155851 -0.665474 0.729969 
0.0655784 -0.690805 0.720061 0.425095 -0.762901 0.48711 0.345308 -0.741423 0.575373 
0.551284 -0.666445 0.501933 -0.750016 -0.561353 0.349798 -0.385124 -0.866709 0.317009 
-0.443545 -0.835365 0.324704 -0.188957 -0.873527 0.448605 -0.00629391 -0.85924 0.511534 
0.0284099 -0.812835 0.581801 -0.0749597 -0.627721 0.774821 -0.179795 -0.425594 0.886873 
0.640367 -0.57053 0.514224 0.507523 -0.527905 0.680982 0.702822 -0.48046 0.524594 
-0.776069 -0.524131 0.350717 -0.757829 -0.529719 0.380911 0.734699 -0.411595 0.539265 
0.671155 -0.381277 0.635751 -0.899414 -0.206689 0.385142 -0.810028 -0.173911 0.560009 
0.760798 -0.272743 0.588895 0.567141 -0.204568 0.797812 0.796572 -0.125637 0.591345 
-0.914549 0.0367808 0.402799 0.490164 -0.0804301 0.867911 0.797614 -0.112558 0.592573 
0.792902 -0.112339 0.598904 -0.870065 0.197213 0.451767 -0.785629 0.238645 0.57082 
0.496108 0.0399172 0.867343 0.803481 0.0694508 0.591266 0.801785 0.0983383 0.589467 
0.795845 0.0696166 0.601485 -0.791302 0.355116 0.497729 -0.77323 0.394514 0.496462 
-0.772915 0.364871 0.519106 0.777512 0.227354 0.586333 0.584236 0.14696 0.798167 
-0.693995 0.506373 0.511818 -0.642235 0.596278 0.48165 -0.612607 0.481681 0.626655 
0.760267 0.387417 0.521442 0.728529 0.511326 0.455841 0.684434 0.323116 0.653564 
-0.599747 0.654086 0.46095 -0.541166 0.723573 0.428463 -0.513877 0.601113 0.612041 
0.703315 0.569374 0.42563 0.622211 0.689979 0.369841 0.56303 0.449413 0.69356 
-0.456464 0.800496 0.388391 -0.422999 0.82168 0.381986 -0.417572 0.783938 0.459429 
-0.329632 0.86538 0.37744 -0.270801 0.701062 0.659681 -0.249618 0.881138 0.401605 
0.59282 0.721319 0.358139 0.471759 0.803445 0.363207 0.434209 0.647457 0.626308 
-0.209718 0.891684 0.401145 -0.135303 0.903685 0.406259 -0.132437 0.872268 0.470754 
0.049632 0.917825 0.39387 0.0424636 0.867052 0.496404 0.290957 0.879824 0.375837 
0.276324 0.883924 0.377256 0.274659 0.877934 0.392167 -0.159909 -0.361192 0.918678 
0.0354652 -0.426976 0.903567 0.258499 -0.372027 0.891501 -0.470902 -0.687526 0.552774 
-0.18285 -0.813423 0.552185 0.0173788 -0.825669 0.563887 0.113597 -0.755679 0.645015 
0.0662593 -0.573579 0.816466 -0.160317 -0.351123 0.922503 -0.100037 -0.370414 0.923464 
-0.15679 -0.328152 0.931522 0.0198636 -0.304961 0.952158 0.262952 -0.369741 0.89115 
0.256656 -0.365817 0.894598 0.368509 -0.283503 0.88534 -0.598197 -0.572866 0.560343 
-0.469372 -0.578763 0.666876 -0.210925 -0.607536 0.765775 0.0465646 -0.610523 0.790629 
0.230505 -0.593332 0.771249 0.21952 -0.535138 0.815744 0.00715596 -0.319459 0.947573 
-0.07331 -0.181922 0.980576 0.0270622 -0.115748 0.99291 0.143442 -0.182022 0.972776 
0.380721 -0.259232 0.887609 0.351869 -0.250267 0.901973 -0.801304 -0.174873 0.572129 
-0.817484 -0.0135431 0.575792 -0.530298 -0.215475 0.819972 0.360762 -0.228192 0.904311 
0.202815 -0.265429 0.942557 0.0558453 -0.243171 0.968374 0.0175047 -0.0878534 0.99598 
0.104051 -0.0688104 0.992189 0.406576 -0.139033 0.902976 0.312049 -0.10569 0.944169 
-0.816471 0.0728746 0.572769 -0.811947 0.0862299 0.577327 -0.813379 0.0733833 0.577087 
0.345526 -0.153522 0.925766 0.0449684 -0.271522 0.961381 0.105104 -0.370661 0.922802 
0.212171 -0.157421 0.96447 0.129828 -0.0374472 0.990829 0.416941 -0.0735316 0.905954 
0.241582 -0.0502163 0.96908 -0.726134 0.266397 0.633847 -0.55825 0.311357 0.769034 
0.34445 -0.183006 0.920795 0.208853 -0.0949588 0.973326 0.433401 0.0211411 0.900953 
0.273003 -0.0320822 0.961478 -0.604996 0.392812 0.692588 -0.571529 0.420027 0.704934 
-0.55515 0.401803 0.72826 -0.365713 0.40833 0.836374 0.304169 -0.101215 0.947226 
0.273869 -0.0806789 0.958377 0.499555 0.0970532 0.860829 0.353306 0.00615618 0.935487 
-0.506522 0.449701 0.735666 -0.466459 0.49615 0.732292 -0.42364 0.430334 0.797083 
-0.291402 0.372944 0.880907 -0.176662 0.373563 0.910627 0.226265 0.0649259 0.9719 
0.311492 0.0616616 0.948246 0.544824 0.232093 0.805791 0.53335 0.361625 0.764699 
0.469676 0.18943 0.862277 -0.419905 0.535705 0.732598 -0.36777 0.579744 0.727078 
-0.344112 0.501198 0.793969 -0.252655 0.645276 0.720961 -0.193578 0.449614 0.871995 
-0.111258 0.419246 0.90103 -0.0764269 0.37641 0.923296 0.00779215 0.336661 0.941594 
0.184329 0.303377 0.934872 0.521673 0.412572 0.746754 0.417951 0.568098 0.70893 
0.386416 0.327859 0.862085 -0.219385 0.652686 0.72517 -0.172504 0.649059 0.740922 
-0.163818 0.612842 0.773039 -0.109196 0.656371 0.746494 -0.101815 0.567159 0.817291 
0.0221589 0.681332 0.731639 0.00713616 0.561267 0.827604 0.350335 0.623123 0.699273 
0.216758 0.67624 0.704071 0.204719 0.593875 0.778076 -0.218536 -0.533075 0.817357 
0.0466085 -0.607135 0.793231 0.260896 -0.457535 0.850056 -0.505905 -0.217895 0.834615 
-0.545336 0.0103751 0.838153 -0.233455 -0.251025 0.939407 0.0484272 -0.291791 0.955256 
0.341417 -0.23982 0.908802 0.276096 -0.281014 0.919131 -0.549291 0.0994396 0.829693 
-0.54557 0.11058 0.830738 -0.544916 0.0995119 0.832565 -0.287031 0.0686808 0.955456 
0.0217311 -0.00722679 0.999738 0.346398 -0.150008 0.926016 0.31033 -0.0990214 0.945457 
0.324468 -0.165759 0.93126 0.0166729 -0.297391 0.95461 0.133404 -0.29673 0.945598 
-0.443384 0.312993 0.839909 -0.353575 0.365788 0.860921 -0.339044 0.308162 0.888867 
-0.115907 0.24161 0.963426 0.139145 0.0429905 0.989338 0.195121 -0.211449 0.957715 
0.00674281 -0.298987 0.954233 0.254875 -0.184426 0.949224 0.169378 -0.171787 0.970464 
-0.292719 0.386477 0.874615 -0.265051 0.371909 0.889625 -0.254645 0.371937 0.892647 
-0.174564 0.366776 0.913785 -0.127867 0.249662 0.959854 0.00971467 0.0534469 0.998523 
0.078931 -0.00409629 0.996872 0.280005 -0.063091 0.957923 0.205126 0.0316967 0.978222 
-0.157632 0.365523 0.917358 -0.0838635 0.34888 0.933407 -0.0744289 0.327905 0.941774 
-0.0392779 0.307372 0.950778 -0.0135855 0.263803 0.964481 0.192685 0.0909205 0.977039 
0.0458967 0.252316 0.966556 0.0854099 0.171836 0.981416 
