# vtk DataFile Version 4.2
vtk output
ASCII
DATASET POLYDATA
POINTS 560 float
-39.4654 -31.9004 -14.3577 -30.8387 -31.9004 -14.7464 -22.2119 -31.9004 -14.7276 
-13.5852 -31.9004 -14.7068 -4.95847 -31.9004 -15.8563 3.66827 -31.9004 -16.1647 
12.295 -31.9004 -15.9155 20.9217 -31.9004 -16.6045 29.5485 -31.9004 -15.896 
-48.0921 -23.2736 -16.6211 -39.4654 -23.2736 -16.6526 -30.8387 -23.2736 -17.1909 
-22.2119 -23.2736 -16.1118 -13.5852 -23.2736 -15.5903 -4.95847 -23.2736 -16.7634 
3.66827 -23.2736 -16.8457 12.295 -23.2736 -16.6832 20.9217 -23.2736 -17.3097 
29.5485 -23.2736 -17.1839 38.1752 -23.2736 -16.0892 -56.7189 -14.6469 -15.1507 
-48.0921 -14.6469 -16.7614 -39.4654 -14.6469 -17.884 -30.8387 -14.6469 -17.5768 
-22.2119 -14.6469 -16.5912 -13.5852 -14.6469 -15.1014 -4.95847 -14.6469 -16.6239 
3.66827 -14.6469 -16.1129 12.295 -14.6469 -15.9901 20.9217 -14.6469 -17.498 
29.5485 -14.6469 -16.7019 38.1752 -14.6469 -16.4445 46.8019 -14.6469 -15.8084 
-65.3456 -6.02015 -14.5645 -56.7189 -6.02015 -16.227 -48.0921 -6.02015 -17.061 
-39.4654 -6.02015 -17.3412 -30.8387 -6.02015 -17.0109 -22.2119 -6.02015 -15.8274 
-13.5852 -6.02015 -16.244 -4.95847 -6.02015 -18.5425 3.66827 -6.02015 -16.5515 
12.295 -6.02015 -19.8706 20.9217 -6.02015 -15.9435 29.5485 -6.02015 -15.8754 
38.1752 -6.02015 -16.3759 46.8019 -6.02015 -15.6529 55.4287 -6.02015 -14.744 
-65.3456 2.60658 -15.3694 -56.7189 2.60658 -17.3365 -48.0921 2.60658 -17.4634 
-39.4654 2.60658 -17.5143 -30.8387 2.60658 -17.1478 -22.2119 2.60658 -15.075 
-13.5852 2.60658 -17.1116 -4.95847 2.60658 -18.4272 3.66827 2.60658 -18.0226 
12.295 2.60658 -21.3007 29.5485 2.60658 -15.8808 38.1752 2.60658 -16.528 
46.8019 2.60658 -16.629 55.4287 2.60658 -16.249 64.0554 2.60658 -15.3145 
-65.3456 11.2333 -14.4643 -56.7189 11.2333 -16.7304 -48.0921 11.2333 -17.892 
-39.4654 11.2333 -18.0504 -30.8387 11.2333 -17.8857 -22.2119 11.2333 -16.7743 
-13.5852 11.2333 -15.1924 -4.95847 11.2333 -18.4437 3.66827 11.2333 -19.105 
20.9217 11.2333 -15.4145 29.5485 11.2333 -17.2908 38.1752 11.2333 -17.6061 
46.8019 11.2333 -17.5546 55.4287 11.2333 -18.0621 -56.7189 19.8601 -15.3686 
-48.0921 19.8601 -17.2995 -39.4654 19.8601 -19.2874 -30.8387 19.8601 -18.2665 
-22.2119 19.8601 -17.5165 -13.5852 19.8601 -17.2128 -4.95847 19.8601 -18.0028 
3.66827 19.8601 -16.73 12.295 19.8601 -15.4558 20.9217 19.8601 -16.096 
29.5485 19.8601 -17.6346 38.1752 19.8601 -19.1391 46.8019 19.8601 -17.5781 
55.4287 19.8601 -17.9957 64.0554 19.8601 -15.6927 -48.0921 28.4868 -16.9851 
-39.4654 28.4868 -17.3339 -30.8387 28.4868 -18.2359 -22.2119 28.4868 -18.1784 
-13.5852 28.4868 -18.3767 -4.95847 28.4868 -18.2393 3.66827 28.4868 -16.2581 
12.295 28.4868 -15.5131 20.9217 28.4868 -16.1852 29.5485 28.4868 -18.1517 
38.1752 28.4868 -17.2974 46.8019 28.4868 -18.3581 -48.0921 37.1135 -14.6127 
-39.4654 37.1135 -14.9686 -30.8387 37.1135 -15.8381 -22.2119 37.1135 -18.0194 
-13.5852 37.1135 -18.1217 -4.95847 37.1135 -17.3073 3.66827 37.1135 -14.8946 
29.5485 37.1135 -14.6913 38.1752 37.1135 -14.5298 -13.5852 45.7403 -14.5714 
-39.4654 -31.9434 -14.3277 -39.4654 -40.5271 -7.93009 -30.8387 -32.706 -14.3277 
-30.8387 -40.5271 -9.39911 -22.2119 -32.8829 -14.3277 -22.2119 -40.5271 -10.7481 
-13.5852 -33.4899 -14.3277 -13.5852 -40.5271 -12.2666 -4.95847 -36.0725 -14.3277 
-4.95847 -40.5271 -12.4791 3.66827 -36.9527 -14.3277 3.66827 -40.5271 -12.8184 
12.295 -36.5864 -14.3277 12.295 -40.5271 -12.789 20.9217 -38.7492 -14.3277 
20.9217 -40.5271 -13.4841 29.5485 -35.409 -14.3277 29.5485 -40.5271 -11.4228 
38.1752 -40.5271 -7.93803 -56.7189 -31.9004 -8.27795 -39.5788 -31.9004 -14.3277 
-48.0921 -27.7158 -14.3277 -48.0921 -31.9004 -12.1336 38.0028 -31.9004 -14.3277 
38.1752 -31.7507 -14.3277 38.1752 -31.9004 -14.2961 46.8019 -31.9004 -10.2754 
55.4287 -31.9004 -6.15951 -65.3456 -23.2736 -9.35691 -53.331 -23.2736 -14.3277 
-56.7189 -17.8505 -14.3277 -56.7189 -23.2736 -12.9981 44.3536 -23.2736 -14.3277 
46.8019 -20.8219 -14.3277 46.8019 -23.2736 -13.5885 55.4287 -23.2736 -10.9812 
-60.5684 -14.6469 -14.3277 -65.3456 -8.04937 -14.3277 -65.3456 -14.6469 -12.8472 
51.3543 -14.6469 -14.3277 55.4287 -7.6787 -14.3277 55.4287 -14.6469 -12.717 
64.0554 -14.6469 -8.99887 -65.7044 -6.02015 -14.3277 -73.9724 -6.02015 -5.76275 
20.9217 -0.186012 -14.3277 58.2402 -6.02015 -14.3277 64.0554 -2.75154 -14.3277 
64.0554 -6.02015 -13.299 72.6822 -6.02015 -7.44302 -66.9328 2.60658 -14.3277 
-73.9724 2.60658 -6.30528 18.6181 2.60658 -14.3277 12.295 10.4752 -14.3277 
23.4034 2.60658 -14.3277 20.9217 5.77483 -14.3277 20.9217 2.60658 -13.7021 
65.7112 2.60658 -14.3277 64.0554 7.58817 -14.3277 72.6822 2.60658 -7.94023 
-65.5418 11.2333 -14.3277 -65.3456 11.997 -14.3277 11.8781 11.2333 -14.3277 
13.443 11.2333 -14.3277 12.295 12.3376 -14.3277 12.295 11.2333 -14.1302 
62.1955 11.2333 -14.3277 64.0554 14.055 -14.3277 64.0554 11.2333 -13.4245 
72.6822 11.2333 -7.95885 -59.6818 19.8601 -14.3277 -65.3456 19.8601 -11.8235 
-56.7189 22.8647 -14.3277 55.4287 26.8339 -14.3277 66.0718 19.8601 -14.3277 
64.0554 22.9216 -14.3277 -65.3456 28.4868 -5.88304 -53.0292 28.4868 -14.3277 
-56.7189 28.4868 -12.2132 12.295 34.557 -14.3277 20.9217 36.5797 -14.3277 
53.8852 28.4868 -14.3277 46.8019 34.0322 -14.3277 55.4287 28.4868 -13.4668 
64.0554 28.4868 -6.81464 -48.6599 37.1135 -14.3277 -48.0921 37.4875 -14.3277 
-39.4654 38.1392 -14.3277 -30.8387 39.9701 -14.3277 -22.2119 44.1408 -14.3277 
-4.95847 43.2835 -14.3277 8.06063 37.1135 -14.3277 3.66827 38.2059 -14.3277 
12.295 37.1135 -13.8154 23.1398 37.1135 -14.3277 20.9217 37.1135 -14.204 
29.5485 38.0146 -14.3277 38.8572 37.1135 -14.3277 38.1752 37.4067 -14.3277 
46.8019 37.1135 -11.2467 -30.8387 45.7403 -9.61871 -15.6104 45.7403 -14.3277 
-22.2119 45.7403 -13.0674 -12.1858 45.7403 -14.3277 -13.5852 46.0186 -14.3277 
-4.95847 45.7403 -12.3798 3.66827 45.7403 -8.7537 12.295 45.7403 -7.38797 
20.9217 45.7403 -7.07515 -39.4654 -42.4586 -5.701 -30.8387 -44.2598 -5.701 
-22.2119 -45.7077 -5.701 -13.5852 -46.9031 -5.701 -4.95847 -47.2351 -5.701 
3.66827 -47.7276 -5.701 12.295 -48.1991 -5.701 20.9217 -47.4775 -5.701 
29.5485 -45.5241 -5.701 38.1752 -42.4175 -5.701 -56.7189 -34.6472 -5.701 
-46.315 -40.5271 -5.701 -48.0921 -39.8741 -5.701 -48.0921 -40.5271 -3.03884 
42.8393 -40.5271 -5.701 46.8019 -38.3054 -5.701 55.4287 -32.3587 -5.701 
-59.9443 -31.9004 -5.701 -65.3456 -28.0218 -5.701 55.9454 -31.9004 -5.701 
-68.787 -23.2736 -5.701 63.5562 -23.2736 -5.701 64.0554 -22.5145 -5.701 
64.0554 -23.2736 -4.89736 -72.4197 -14.6469 -5.701 -73.9724 -6.41715 -5.701 
68.0502 -14.6469 -5.701 72.6822 -9.13319 -5.701 -74.0189 -6.02015 -5.701 
-73.9724 -6.02015 -3.61374 74.3112 -6.02015 -5.701 -74.4072 2.60658 -5.701 
-73.9724 4.90229 -5.701 -73.9724 2.60658 -1.55898 74.5602 2.60658 -5.701 
-72.3645 11.2333 -5.701 74.2734 11.2333 -5.701 72.6822 15.6038 -5.701 
-69.8849 19.8601 -5.701 71.0884 19.8601 -5.701 -65.4578 28.4868 -5.701 
-65.3456 28.6278 -5.701 -65.3456 28.4868 -5.20143 -56.7189 36.8013 -5.701 
55.4287 35.5006 -5.701 64.7056 28.4868 -5.701 64.0554 29.239 -5.701 
64.0554 28.4868 -4.13344 -56.2265 37.1135 -5.701 -48.0921 41.2273 -5.701 
-39.4654 45.4202 -5.701 29.5485 45.4394 -5.701 38.1752 43.5417 -5.701 
52.7435 37.1135 -5.701 46.8019 40.3685 -5.701 -38.5485 45.7403 -5.701 
-30.8387 48.3639 -5.701 -22.2119 50.267 -5.701 -13.5852 51.0446 -5.701 
-4.95847 49.9204 -5.701 3.66827 47.9254 -5.701 12.295 46.9066 -5.701 
27.281 45.7403 -5.701 20.9217 46.5931 -5.701 -48.0921 -41.5928 2.92573 
-39.4654 -44.5977 2.92573 -30.8387 -46.6839 2.92573 -22.2119 -47.5897 2.92573 
-13.5852 -47.9027 2.92573 -4.95847 -48.3817 2.92573 3.66827 -49.1134 2.92573 
12.295 -49.0948 2.92573 20.9217 -48.55 2.92573 29.5485 -46.884 2.92573 
38.1752 -44.2768 2.92573 -50.711 -40.5271 2.92573 -56.7189 -37.5399 2.92573 
-48.0921 -40.5271 5.39644 -39.4654 -40.5271 11.0084 46.1114 -40.5271 2.92573 
46.8019 -40.1892 2.92573 55.4287 -34.6906 2.92573 -63.1149 -31.9004 2.92573 
-65.3456 -29.401 2.92573 -56.7189 -31.9004 11.0706 58.8812 -31.9004 2.92573 
55.4287 -31.9004 9.34396 64.0554 -26.6786 2.92573 -69.4158 -23.2736 2.92573 
-65.3456 -23.2736 8.79865 67.2158 -23.2736 2.92573 64.0554 -23.2736 8.36922 
-73.0642 -14.6469 2.92573 71.9972 -14.6469 2.92573 72.6822 -12.8421 2.92573 
-73.7871 -6.02015 2.92573 75.1549 -6.02015 2.92573 72.6822 -6.02015 6.8445 
-73.308 2.60658 2.92573 75.5078 2.60658 2.92573 72.6822 2.60658 6.63688 
-71.502 11.2333 2.92573 -65.3456 11.2333 9.66849 73.4336 11.2333 2.92573 
72.6822 12.9963 2.92573 72.6822 11.2333 3.89357 -67.8482 19.8601 2.92573 
-65.3456 24.7414 2.92573 -65.3456 19.8601 5.69745 69.0254 19.8601 2.92573 
64.0554 25.1138 2.92573 64.0554 19.8601 7.60606 -62.8227 28.4868 2.92573 
-56.7189 34.5234 2.92573 -56.7189 28.4868 8.13525 46.8019 28.4868 10.4678 
60.6509 28.4868 2.92573 55.4287 32.3701 2.92573 55.4287 28.4868 6.82636 
-53.2623 37.1135 2.92573 -48.0921 40.2266 2.92573 -48.0921 37.1135 6.76007 
-39.4654 44.0056 2.92573 -39.4654 37.1135 9.96414 29.5485 44.5052 2.92573 
29.5485 37.1135 10.3153 38.1752 41.1539 2.92573 38.1752 37.1135 7.58325 
47.0125 37.1135 2.92573 46.8019 37.2984 2.92573 46.8019 37.1135 3.06529 
-34.7456 45.7403 2.92573 -30.8387 47.0124 2.92573 -30.8387 45.7403 4.767 
-22.2119 48.2984 2.92573 -22.2119 45.7403 6.3128 -13.5852 48.6515 2.92573 
-13.5852 45.7403 6.56893 -4.95847 48.2567 2.92573 -4.95847 45.7403 6.14827 
3.66827 47.7723 2.92573 3.66827 45.7403 6.02152 12.295 47.0928 2.92573 
12.295 45.7403 5.18601 25.2057 45.7403 2.92573 20.9217 46.7589 2.92573 
20.9217 45.7403 4.70897 -30.8387 -41.8348 11.5525 -22.2119 -42.7682 11.5525 
-13.5852 -42.5586 11.5525 -4.95847 -42.572 11.5525 3.66827 -43.1835 11.5525 
12.295 -44.0698 11.5525 20.9217 -44.333 11.5525 29.5485 -42.5284 11.5525 
38.1752 -40.691 11.5525 -48.0921 -36.2228 11.5525 -37.5484 -40.5271 11.5525 
-39.4654 -40.091 11.5525 -30.8387 -40.5271 12.9486 -22.2119 -40.5271 13.3958 
-13.5852 -40.5271 13.0896 -4.95847 -40.5271 13.0325 3.66827 -40.5271 13.407 
[...]
POINT_DATA 560
SCALARS ImageScalars float
LOOKUP_TABLE default
0 0 0 0 0 0 0 0 0 
0 0 0 0 0 0 0 0 0 
0 0 0 0 0 0 0 0 0 
0 0 0 0 0 0 0 0 0 
0 0 0 0 0 0 0 0 0 
0 0 0 0 0 0 0 0 0 
0 0 0 0 0 0 0 0 0 
0 0 0 0 0 0 0 0 0 
0 0 0 0 0 0 0 0 0 
0 0 0 0 0 0 0 0 0 
0 0 0 0 0 0 0 0 0 
0 0 0 0 0 0 0 0 0 
0 0 0 0 0 0 0 0 0 
0 0 0 0 0 0 0 0 0 
0 0 0 0 0 0 0 0 0 
0 0 0 0 0 0 0 0 0 
0 0 0 0 0 0 0 0 0 
0 0 0 0 0 0 0 0 0 
0 0 0 0 0 0 0 0 0 
0 0 0 0 0 0 0 0 0 
0 0 0 0 0 0 0 0 0 
0 0 0 0 0 0 0 0 0 
0 0 0 0 0 0 0 0 0 
0 0 0 0 0 0 0 0 0 
0 0 0 0 0 0 0 0 0 
0 0 0 0 0 0 0 0 0 
0 0 0 0 0 0 0 0 0 
0 0 0 0 0 0 0 0 0 
0 0 0 0 0 0 0 0 0 
0 0 0 0 0 0 0 0 0 
0 0 0 0 0 0 0 0 0 
0 0 0 0 0 0 0 0 0 
0 0 0 0 0 0 0 0 0 
0 0 0 0 0 0 0 0 0 
0 0 0 0 0 0 0 0 0 
0 0 0 0 0 0 0 0 0 
0 0 0 0 0 0 0 0 0 
0 0 0 0 0 0 0 0 0 
0 0 0 0 0 0 0 0 0 
0 0 0 0 0 0 0 0 0 
0 0 0 0 0 0 0 0 0 
0 0 0 0 0 0 0 0 0 
0 0 0 0 0 0 0 0 0 
0 0 0 0 0 0 0 0 0 
0 0 0 0 0 0 0 0 0 
0 0 0 0 0 0 0 0 0 
0 0 0 0 0 0 0 0 0 
0 0 0 0 0 0 0 0 0 
0 0 0 0 0 0 0 0 0 
0 0 0 0 0 0 0 0 0 
0 0 0 0 0 0 0 0 0 
0 0 0 0 0 0 0 0 0 
0 0 0 0 0 0 0 0 0 
0 0 0 0 0 0 0 0 0 
0 0 0 0 0 0 0 0 0 
0 0 0 0 0 0 0 0 0 
0 0 0 0 0 0 0 0 0 
0 0 0 0 0 0 0 0 0 
0 0 0 0 0 0 0 0 0 
0 0 0 0 0 0 0 0 0 
0 0 0 0 0 0 0 0 0 
0 0 0 0 0 0 0 0 0 
0 0 
NORMALS Normals float
0.140202 0.448153 0.882894 0.0169296 0.389283 0.920963 -0.0022791 0.270407 0.962743 
0.0607947 0.167578 0.983982 0.0839883 0.221199 0.971605 0.00270787 0.207817 0.978164 
0.0282104 0.197732 0.97985 0.000365794 0.202909 0.979197 -0.135039 0.268178 0.953858 
0.206012 0.240312 0.948583 0.0345765 0.180413 0.982983 -0.0291258 0.15493 0.987496 
-0.0967917 0.10475 0.989777 0.0387951 0.022279 0.998999 0.0729275 0.0420233 0.996451 
-0.00468522 1.25484e-05 0.999989 0.0269123 0.00601085 0.99962 0.0289762 0.0542437 0.998107 
-0.06796 0.0415129 0.996824 -0.19744 0.123092 0.972556 0.213905 0.183585 0.959449 
0.147069 0.0240052 0.988835 0.04697 0.0376735 0.998186 -0.0745374 -0.00960277 0.997172 
-0.141709 -0.0147264 0.989799 -0.00986279 0.0189725 0.999771 0.0649471 0.103094 0.992549 
-0.0345441 -0.0221014 0.999159 0.0863612 0.128414 0.987953 0.0347663 -0.0629298 0.997412 
-0.060464 -0.0755159 0.99531 -0.0581657 0.0161236 0.998177 -0.19348 0.102025 0.975785 
0.455431 0.12211 0.881857 0.176303 0.120186 0.976971 0.059751 0.0405636 0.997389 
-0.00305183 -0.0210236 0.999774 -0.084584 -0.0252848 0.996095 -0.0530108 -0.0866739 0.994825 
0.171154 0.113453 0.97869 -0.00496381 0.102904 0.994679 0.0350351 0.0963235 0.994733 
-0.0236551 0.278969 0.960009 -0.184136 -0.200359 0.962263 0.0256148 -0.0474244 0.998546 
-0.012734 0.00436859 0.999909 -0.0871766 0.0460548 0.995128 -0.1319 0.205837 0.969657 
0.447775 -0.00585667 0.894127 0.171126 0.0319963 0.98473 0.0092405 0.0478121 0.998814 
-0.0182961 0.0410998 0.998987 -0.133707 0.0516941 0.989672 -0.0467257 0.0599658 0.997106 
0.21796 -0.0874751 0.97203 0.0412376 -0.00688752 0.999126 0.0375579 0.156464 0.986969 
-0.230617 -0.336678 0.912942 0.123188 0.0814409 0.989036 0.0446891 0.0717741 0.996419 
-0.014908 0.109852 0.993836 -0.0938208 0.175914 0.979924 -0.369663 0.00484633 0.929153 
0.498735 -0.163445 0.851204 0.247825 -0.107174 0.962859 0.0672864 -0.00922947 0.997691 
-0.000521008 0.0994414 0.995043 -0.0751442 0.0661372 0.994977 -0.152768 0.135405 0.978942 
0.0780448 0.0414244 0.996089 0.220622 -0.0270324 0.974985 -0.188696 -0.112557 0.975564 
0.15783 0.112646 0.98102 0.129236 0.104309 0.986112 0.0153594 0.14587 0.989184 
0.0225728 0.0546889 0.998248 -0.233937 0.105205 0.966543 0.277488 -0.21549 0.93625 
0.192694 -0.0460691 0.980177 0.0560894 -0.0364808 0.997759 -0.0995994 0.0200441 0.994826 
-0.0600549 0.0806935 0.994928 0.0286272 0.179381 0.983363 -0.0282468 -0.00931039 0.999558 
-0.154835 -0.12682 0.979767 -0.0343118 0.0537004 0.997967 0.127062 0.0444841 0.990897 
0.171718 0.0470391 0.984022 -0.00145523 -0.0144811 0.999894 -0.0712475 0.0363964 0.996794 
-0.191524 -0.253467 0.948195 -0.455757 -0.13773 0.879384 0.257869 -0.181762 0.948929 
0.0722706 -0.212341 0.974519 0.0445262 -0.124954 0.991163 0.00796339 0.0304922 0.999503 
0.00365079 0.0472637 0.998876 -0.122534 -0.0394451 0.99168 -0.153757 -0.0974384 0.983293 
-0.00542173 -0.0876299 0.996138 0.145813 -0.100796 0.984164 0.065711 -0.165619 0.983998 
0.000793869 -0.227786 0.973711 -0.172857 -0.250413 0.952583 0.308171 -0.562241 0.767409 
0.07857 -0.427181 0.900746 0.150114 -0.377823 0.913628 0.12469 -0.24861 0.960544 
-0.039722 -0.198229 0.979351 -0.182444 -0.262532 0.947518 -0.200532 -0.317067 0.92696 
0.0197924 -0.385616 0.922447 -0.141516 -0.489703 0.860328 -0.0238651 -0.643803 0.764819 
0.140398 0.44963 0.882112 0.188801 0.761575 0.619966 0.0285135 0.409846 0.911709 
0.138278 0.677171 0.722716 0.0137766 0.300899 0.953556 0.147062 0.606244 0.781563 
0.0649885 0.213362 0.974809 0.0890944 0.496335 0.863547 0.0547961 0.356713 0.932606 
0.0282445 0.549477 0.835031 0.0107736 0.377054 0.926129 0.0156692 0.533333 0.84576 
0.0374758 0.346969 0.937128 0.0304367 0.516995 0.855447 -0.0402174 0.4314 0.901264 
-0.0557718 0.516525 0.854454 -0.177678 0.3953 0.901204 -0.247365 0.650172 0.718392 
-0.326317 0.76866 0.550163 0.486309 0.611331 0.624321 0.141499 0.448991 0.882261 
0.220191 0.38272 0.897241 0.248206 0.512448 0.822065 -0.256783 0.327205 0.909395 
-0.258221 0.324707 0.909883 -0.259457 0.328666 0.908108 -0.437077 0.454321 0.776245 
-0.566147 0.617834 0.545673 0.652215 0.443293 0.614904 0.306378 0.25609 0.916815 
0.264999 0.208746 0.941382 0.363266 0.278173 0.889189 -0.231631 0.245016 0.941443 
-0.228593 0.239101 0.943703 -0.251848 0.297606 0.920871 -0.420796 0.333071 0.843798 
0.333502 0.219578 0.916822 0.462233 0.154717 0.873157 0.504858 0.249075 0.826487 
-0.261344 0.135036 0.955753 -0.168696 0.196481 0.965886 -0.341371 0.181413 0.922255 
-0.553999 0.381751 0.739832 0.465603 0.123734 0.876301 0.909636 0.0893597 0.405682 
-0.0624105 -0.096614 0.993363 -0.213723 0.235072 0.94819 -0.377656 0.175031 0.909252 
-0.381474 0.291846 0.8771 -0.738024 0.284896 0.611682 0.496408 -0.0100166 0.868031 
0.924923 -0.0772291 0.372227 -0.0783055 -0.101102 0.99179 -0.181006 -0.071745 0.980862 
0.0441705 0.0164705 0.998888 0.0693959 0.0487959 0.996395 -0.00343707 -0.0156674 0.999871 
-0.43169 0.0163884 0.901873 -0.402305 0.0165285 0.915357 -0.813166 0.0292654 0.581295 
0.504518 -0.165244 0.847441 0.502101 -0.17471 0.846977 -0.175815 -0.0447465 0.983406 
-0.110866 -0.0145863 0.993728 -0.147626 -0.0257352 0.988708 -0.167141 -0.0430188 0.984994 
-0.385639 0.0413271 0.921724 -0.438344 -0.0216244 0.898547 -0.445232 0.0270274 0.895007 
-0.890792 -0.177568 0.418282 0.359318 -0.238362 0.902261 0.635918 -0.304576 0.709113 
0.326061 -0.254333 0.910494 -0.347284 -0.391848 0.851968 -0.573508 -0.16926 0.801523 
-0.487829 -0.295468 0.821414 0.765491 -0.613212 0.194922 0.379236 -0.266566 0.886072 
0.489878 -0.419271 0.76435 -0.0283986 -0.259017 0.965455 0.0543272 -0.332275 0.941617 
-0.370327 -0.399634 0.83854 -0.251502 -0.554134 0.793525 -0.423134 -0.448572 0.787236 
-0.711008 -0.685888 0.154998 0.328084 -0.563366 0.758274 0.312463 -0.576502 0.754991 
0.0956257 -0.476653 0.873875 0.170387 -0.475164 0.863242 0.185198 -0.535456 0.824008 
-0.234955 -0.523727 0.818844 -0.118302 -0.32651 0.937761 -0.204812 -0.354218 0.912459 
-0.0361078 -0.344011 0.938271 0.0403048 -0.356275 0.933511 0.0481116 -0.351122 0.935093 
0.0142211 -0.421423 0.906753 -0.154387 -0.508068 0.847368 -0.14988 -0.504208 0.850477 
-0.342173 -0.781137 0.522248 0.261719 -0.827213 0.497214 0.0230469 -0.638985 0.768874 
0.190189 -0.662658 0.72437 -0.0580782 -0.645928 0.761186 -0.0253683 -0.657254 0.753243 
-0.238317 -0.708159 0.664617 -0.205511 -0.821125 0.532465 -0.0684537 -0.89116 0.448495 
-0.0570239 -0.918999 0.390113 0.22014 0.8316 0.509882 0.169243 0.834996 0.523582 
0.134102 0.863645 0.485936 0.0781849 0.913745 0.398694 0.0427801 0.90886 0.414901 
0.0485259 0.904306 0.424117 -0.0133694 0.913547 0.406513 -0.136436 0.920732 0.365565 
-0.252171 0.882074 0.397938 -0.339036 0.834987 0.433417 0.517967 0.710441 0.476427 
0.289732 0.836531 0.46505 0.313894 0.829813 0.46139 0.339142 0.901248 0.269695 
-0.413178 0.800156 0.434781 -0.489926 0.729358 0.477504 -0.572424 0.63097 0.523648 
0.551592 0.688061 0.471506 0.660593 0.602222 0.448269 -0.578835 0.623125 0.52599 
0.790325 0.432743 0.433728 -0.624265 0.500748 0.599621 -0.628928 0.493498 0.600757 
-0.657232 0.528487 0.537353 0.849209 0.2792 0.44821 0.909669 0.0987692 0.40342 
-0.674193 0.416248 0.610082 -0.76961 0.357781 0.528861 0.91188 0.089113 0.400666 
0.970509 0.0774828 0.228273 -0.830244 0.280088 0.481918 0.943518 -0.0797268 0.321587 
0.936978 -0.127531 0.325281 0.98979 -0.117042 0.0813492 -0.899886 -0.00126931 0.436124 
0.919994 -0.242368 0.308009 -0.931481 -0.202879 0.301967 -0.908465 -0.333112 0.252443 
0.903174 -0.371772 0.214624 -0.874168 -0.447651 0.188254 0.768672 -0.612131 0.185576 
0.765782 -0.615752 0.185546 0.773503 -0.616177 0.148392 0.58081 -0.795459 0.172928 
-0.512019 -0.858447 0.0300821 -0.730956 -0.678331 0.0746351 -0.717637 -0.693487 0.0638251 
-0.716232 -0.697766 -0.011562 0.574941 -0.801413 0.164863 0.488684 -0.859976 0.147069 
0.341444 -0.929282 0.140892 -0.172877 -0.977056 0.124399 -0.295248 -0.953165 0.0656118 
-0.474365 -0.880102 0.0199719 -0.420824 -0.899012 0.121181 0.334388 -0.931072 0.14591 
0.290694 -0.935987 0.198559 0.15167 -0.981492 0.116916 -0.0209553 -0.993025 0.116028 
-0.180091 -0.972464 0.14792 -0.185513 -0.935962 0.299267 -0.0756349 -0.93866 0.336447 
-0.150697 -0.974023 0.169026 -0.0843468 -0.948311 0.305929 0.363702 0.924537 -0.113811 
0.277588 0.955962 -0.0952965 0.171631 0.980872 -0.0918263 0.0696285 0.990753 -0.116447 
0.0453233 0.984307 -0.170547 0.068297 0.982645 -0.172468 0.0393905 0.988862 -0.143528 
-0.0325152 0.987172 -0.156314 -0.123377 0.984066 -0.128029 -0.23642 0.963376 -0.126537 
-0.364443 0.926861 -0.090053 0.409931 0.90281 -0.129965 0.559213 0.816416 -0.144031 
0.368078 0.891351 -0.264597 0.21225 0.758182 -0.616531 -0.462256 0.883681 -0.0736651 
-0.470788 0.879183 -0.0734588 -0.598146 0.799041 -0.0612739 0.702733 0.693431 -0.159123 
0.741872 0.638038 -0.206235 0.488484 0.498304 -0.716293 -0.657702 0.751702 -0.0487064 
-0.554353 0.685336 -0.472237 -0.746147 0.664049 -0.0479896 0.857084 0.485556 -0.172171 
0.635787 0.511735 -0.577843 -0.789808 0.610265 -0.0614835 -0.699089 0.564205 -0.439257 
0.939037 0.214543 -0.268665 -0.920952 0.377792 -0.095501 -0.931316 0.338108 -0.135398 
0.938141 0.0227568 -0.345504 -0.953089 0.195737 -0.230886 -0.887977 0.13812 -0.438657 
0.96052 -0.143531 -0.238328 -0.956221 -0.0960886 -0.276422 -0.851436 -0.12818 -0.508553 
0.924236 -0.27028 -0.269697 0.51793 -0.303734 -0.799684 -0.851123 -0.331009 -0.407459 
-0.848061 -0.356171 -0.392344 -0.826513 -0.31375 -0.467372 0.770758 -0.453216 -0.447803 
0.725183 -0.50073 -0.47263 0.671552 -0.435582 -0.599404 -0.767981 -0.494404 -0.407148 
-0.599608 -0.653731 -0.461633 -0.515832 -0.464923 -0.719558 0.70113 -0.545291 -0.459428 
0.588356 -0.682995 -0.432844 0.533864 -0.536619 -0.653475 -0.292641 -0.524069 -0.799821 
-0.537385 -0.694243 -0.478793 -0.469676 -0.711465 -0.522707 -0.37472 -0.606179 -0.701522 
0.533319 -0.743605 -0.403265 0.4543 -0.806038 -0.37936 0.440815 -0.708313 -0.551339 
0.337731 -0.853982 -0.395794 0.234888 -0.593904 -0.769484 -0.293486 -0.882421 -0.367695 
-0.252666 -0.547618 -0.797668 -0.31059 -0.80439 -0.506449 -0.333701 -0.646114 -0.686426 
-0.490159 -0.628365 -0.604071 -0.486796 -0.630135 -0.604946 -0.48614 -0.624163 -0.611627 
0.283048 -0.877997 -0.386013 0.229872 -0.888109 -0.398021 0.218675 -0.84426 -0.489292 
0.0904984 -0.887706 -0.451428 0.0704585 -0.785307 -0.615084 -0.00268218 -0.875582 -0.483062 
-0.00808384 -0.714331 -0.699761 -0.0524863 -0.881659 -0.46896 -0.0245111 -0.763007 -0.645926 
-0.069978 -0.940208 -0.333336 -0.037259 -0.848585 -0.527746 -0.0598264 -0.959566 -0.275053 
-0.0500035 -0.912013 -0.407102 -0.218031 -0.925427 -0.309916 -0.13856 -0.951412 -0.274984 
-0.141945 -0.9154 -0.376689 0.127188 0.724436 -0.677507 0.031802 0.686656 -0.726287 
-0.008605 0.6482 -0.761421 0.0230517 0.606446 -0.79479 0.0620125 0.618578 -0.783273 
0.0451534 0.691099 -0.721348 -0.0730183 0.729478 -0.680096 -0.175639 0.733046 -0.657111 
-0.250412 0.766978 -0.590795 0.330985 0.624587 -0.707347 0.186928 0.729798 -0.657611 
0.203736 0.723163 -0.659944 0.107975 0.671931 -0.732701 0.00129508 0.59371 -0.804678 
-0.0192622 0.568882 -0.822194 0.0163858 0.518054 -0.855191 0.0700873 0.499819 -0.863289 
0.0693475 0.52685 -0.847125 -0.0429657 0.561207 -0.826559 -0.146019 0.661736 -0.73538 
-0.259478 0.76482 -0.589679 -0.248479 0.76102 -0.599255 -0.423776 0.659063 -0.621329 
0.458677 0.482708 -0.746062 0.473308 0.454102 -0.754832 0.296932 0.460907 -0.836299 
0.149475 0.364023 -0.919317 0.0548129 0.279353 -0.958623 -0.0345289 0.301132 -0.952957 
-0.0654525 0.312841 -0.947548 -0.0128938 0.256637 -0.966422 0.0866464 0.222624 -0.971046 
0.0822104 0.229806 -0.969758 0.0457269 0.269888 -0.961805 -0.0551776 0.331102 -0.94198 
-0.179931 0.382048 -0.906457 -0.48226 0.607253 -0.631403 -0.356886 0.502332 -0.787588 
-0.502243 0.572579 -0.648001 0.495536 0.365736 -0.787833 0.5387 0.279517 -0.794779 
0.404887 0.271668 -0.873077 0.246254 0.149421 -0.957618 0.12837 0.146605 -0.98083 
0.00313878 0.0913359 -0.995815 -0.028759 0.104958 -0.994061 -0.0778993 0.108425 -0.991048 
-0.0604284 0.154043 -0.986215 0.0597042 0.136488 -0.988841 0.114839 0.0524168 -0.992 
0.0873985 0.0617527 -0.994258 -0.126177 0.14662 -0.981113 -0.21715 0.19054 -0.957361 
-0.569754 0.452181 -0.686231 -0.431352 0.366572 -0.824355 -0.58821 0.411947 -0.695923 
0.579986 0.127154 -0.804642 0.529951 0.120681 -0.839397 0.324483 0.0981095 -0.94079 
0.140333 0.0167237 -0.989963 0.0888093 -0.030989 -0.995566 0.0208527 -0.017102 -0.999636 
-0.0209639 0.0336707 -0.999213 -0.0167455 0.0621099 -0.997929 0.0158398 0.0539308 -0.998419 
-0.01384 0.197507 -0.980204 0.00723179 -0.0357895 -0.999333 0.0631665 -0.0885507 -0.994067 
0.0334419 -0.067352 -0.997169 -0.0512917 0.00875759 -0.998645 -0.128773 0.0993114 -0.986689 
-0.313693 0.0939624 -0.944864 -0.618855 0.304994 -0.723876 -0.527906 0.273919 -0.803918 
0.571456 -0.0296126 -0.820098 0.524679 -0.045896 -0.850062 0.31551 -0.0997578 -0.943664 
0.139723 -0.0765403 -0.987228 0.084561 -0.0836651 -0.9929 0.0690417 -0.0724646 -0.994978 
0.0514827 0.00643091 -0.998653 -0.0577547 0.0484438 -0.997155 0.0681118 -0.0760128 -0.994778 
-0.167141 -0.149969 -0.974461 0.0597201 -0.0970097 -0.99349 0.0773463 -0.0941164 -0.992552 
0.0294232 -0.0867342 -0.995797 -0.125021 -0.0580504 -0.990454 -0.274643 -0.0167584 -0.9614 
-0.678199 0.0723084 -0.731312 -0.413035 0.0558078 -0.909004 0.447031 -0.209197 -0.869713 
0.434183 -0.224819 -0.87232 0.434957 -0.213271 -0.87483 0.235171 -0.149949 -0.960318 
0.15796 -0.0859482 -0.983698 0.095102 -0.072405 -0.992831 0.106342 -0.0742688 -0.991552 
0.0993255 -0.103172 -0.989692 -0.0924168 -0.167457 -0.981538 -0.130898 -0.0665763 -0.989158 
-0.0946991 -0.285396 -0.95372 0.0280918 -0.100201 -0.994571 0.114406 0.00213277 -0.993432 
0.0404964 -0.0572682 -0.997537 -0.0152188 -0.11435 -0.993324 -0.0611488 -0.182212 -0.981356 
-0.223816 -0.147077 -0.96347 -0.609745 -0.186305 -0.770391 -0.437059 -0.140276 -0.888427 
0.390513 -0.18381 -0.902061 0.33713 -0.10617 -0.935453 0.20603 -0.0904854 -0.974353 
0.102271 -0.0725464 -0.992108 0.039798 -0.0667716 -0.996974 -0.0422817 -0.13492 -0.989954 
-0.0335734 -0.223769 -0.974064 -0.0304399 -0.217158 -0.975662 -0.0592069 -0.132844 -0.989367 
0.112594 0.0375015 -0.992933 0.0936284 0.00710276 -0.995582 -0.0362942 -0.0676273 -0.99705 
-0.096578 -0.158804 -0.982575 -0.165844 -0.215677 -0.962278 -0.218603 -0.263626 -0.939529 
-0.512508 -0.397005 -0.761395 -0.499187 -0.408127 -0.764359 -0.497974 -0.3978 -0.770569 
0.450706 -0.268925 -0.851201 0.446117 -0.325002 -0.833879 0.411477 -0.221504 -0.884094 
0.224927 -0.247787 -0.942343 0.124861 -0.152434 -0.980395 0.0443052 -0.113817 -0.992513 
-0.0605424 -0.127448 -0.989996 -0.1511 -0.1398 -0.978583 -0.0296533 -0.187767 -0.981766 
0.141743 -0.0848749 -0.986258 0.150019 -0.0117091 -0.988614 0.0124134 -0.09993 -0.994917 
-0.130719 -0.180597 -0.974832 -0.16857 -0.282443 -0.944357 -0.25803 -0.467742 -0.845362 
-0.167633 -0.319432 -0.932664 -0.346541 -0.407766 -0.84477 -0.306754 -0.445339 -0.841175 
-0.293123 -0.393013 -0.871562 0.339556 -0.353084 -0.871799 0.338788 -0.353263 -0.872025 
0.337935 -0.351439 -0.873092 0.219286 -0.495232 -0.84063 0.208174 -0.303801 -0.929714 
0.0664287 -0.25268 -0.965267 -0.0639941 -0.239428 -0.968803 -0.123724 -0.212147 -0.969374 
0.00722029 -0.162502 -0.986682 0.143284 -0.183087 -0.972599 0.0964589 -0.203873 -0.974234 
-0.0691582 -0.271287 -0.960011 -0.241656 -0.478936 -0.843933 -0.215054 -0.348655 -0.912245 
-0.252461 -0.452442 -0.855313 -0.235478 -0.428807 -0.872167 -0.21893 -0.394036 -0.89264 
0.152535 -0.513987 -0.844127 0.131826 -0.515473 -0.846705 0.1256 -0.493102 -0.860857 
0.00616315 -0.494884 -0.868937 -0.00728754 -0.451612 -0.892185 -0.0427699 -0.411915 -0.910218 
-0.0482883 -0.393289 -0.918146 -0.00235407 -0.360897 -0.932603 -0.00253105 -0.3534 -0.935469 
0.0706172 -0.414541 -0.907287 0.0790022 -0.384534 -0.919724 0.0351551 -0.544102 -0.838282 
0.0545651 -0.459051 -0.886733 -0.199992 -0.507091 -0.838369 -0.138861 -0.558895 -0.817529 
-0.136144 -0.483973 -0.864428 -0.0246458 0.0856407 -0.996021 0.00541152 0.0600336 -0.998182 
-0.0371152 0.0726283 -0.996668 9.12113e-06 0.0101692 -0.999948 -0.021197 0.0601674 -0.997963 
-0.0220811 0.0754756 -0.996903 0.00746582 -0.0726948 -0.997326 -0.0748133 -0.0961708 -0.992549 
-0.050703 -0.1302 -0.990191 -0.0308251 -0.0722251 -0.996912 
