# vtk DataFile Version 4.2
vtk output
ASCII
DATASET POLYDATA
POINTS 492 float
-24.3538 -35.2423 -18.5487 -16.3088 -35.2423 -20.1907 -8.26374 -35.2423 -20.2531 
-0.218729 -35.2423 -18.0556 -32.3988 -27.1973 -18.7097 -24.3538 -27.1973 -21.0974 
-16.3088 -27.1973 -22.3821 -8.26374 -27.1973 -23.232 -0.218729 -27.1973 -22.938 
7.82628 -27.1973 -22.6309 15.8713 -27.1973 -19.5574 -40.4438 -19.1522 -17.6752 
-32.3988 -19.1522 -20.3373 -24.3538 -19.1522 -21.1664 -16.3088 -19.1522 -22.1574 
-8.26374 -19.1522 -22.9623 -0.218729 -19.1522 -23.2588 7.82628 -19.1522 -24.0803 
15.8713 -19.1522 -23.95 23.9163 -19.1522 -19.5588 31.9613 -19.1522 -16.8544 
-40.4438 -11.1072 -18.82 -32.3988 -11.1072 -20.7349 -24.3538 -11.1072 -21.2429 
-16.3088 -11.1072 -21.6387 -8.26374 -11.1072 -22.5014 -0.218729 -11.1072 -22.0427 
7.82628 -11.1072 -23.6564 15.8713 -11.1072 -23.8865 23.9163 -11.1072 -20.4804 
31.9613 -11.1072 -19.2784 40.0063 -11.1072 -18.1673 48.0514 -11.1072 -16.6221 
-40.4438 -3.06222 -18.9849 -32.3988 -3.06222 -20.6653 -24.3538 -3.06222 -20.9573 
-16.3088 -3.06222 -21.7557 -8.26374 -3.06222 -23.0698 -0.218729 -3.06222 -19.4908 
7.82628 -3.06222 -21.9932 15.8713 -3.06222 -22.3618 23.9163 -3.06222 -19.8352 
31.9613 -3.06222 -19.4925 40.0063 -3.06222 -19.1241 48.0514 -3.06222 -17.8441 
-40.4438 4.98279 -18.2576 -32.3988 4.98279 -19.9634 -24.3538 4.98279 -20.3508 
-16.3088 4.98279 -20.5519 -8.26374 4.98279 -21.2761 -0.218729 4.98279 -17.042 
7.82628 4.98279 -19.8663 15.8713 4.98279 -20.8742 23.9163 4.98279 -19.0961 
31.9613 4.98279 -18.6287 40.0063 4.98279 -18.1818 48.0514 4.98279 -17.5386 
-40.4438 13.0278 -17.7353 -32.3988 13.0278 -19.8341 -24.3538 13.0278 -20.6506 
-16.3088 13.0278 -21.3131 -8.26374 13.0278 -20.9053 -0.218729 13.0278 -18.9833 
7.82628 13.0278 -19.2335 15.8713 13.0278 -19.479 23.9163 13.0278 -18.1089 
31.9613 13.0278 -16.6756 -32.3988 21.0728 -19.3381 -24.3538 21.0728 -21.4492 
-16.3088 21.0728 -22.2717 -8.26374 21.0728 -21.6525 -0.218729 21.0728 -20.0366 
7.82628 21.0728 -19.18 15.8713 21.0728 -18.5795 -32.3988 29.1178 -17.0967 
-24.3538 29.1178 -19.9323 -16.3088 29.1178 -21.1655 -8.26374 29.1178 -20.4016 
-0.218729 29.1178 -18.6021 7.82628 29.1178 -16.9517 -16.3088 37.1628 -16.6112 
-24.3538 -38.4578 -16.4977 -16.3088 -40.2067 -16.4977 -16.3088 -43.2873 -9.22694 
-8.26374 -39.1587 -16.4977 -0.218729 -36.5495 -16.4977 -29.8884 -35.2423 -16.4977 
-32.3988 -32.9804 -16.4977 -32.3988 -35.2423 -15.2133 3.24215 -35.2423 -16.4977 
7.82628 -33.3834 -16.4977 15.8713 -29.6346 -16.4977 -37.3032 -27.1973 -16.4977 
-40.4438 -22.762 -16.4977 -40.4438 -27.1973 -14.5697 19.4096 -27.1973 -16.4977 
23.9163 -23.2315 -16.4977 31.9613 -19.5723 -16.4977 -42.92 -19.1522 -16.4977 
-48.4888 -19.1522 -12.567 33.2935 -19.1522 -16.4977 40.0063 -15.1376 -16.4977 
40.0063 -19.1522 -14.4476 48.0514 -11.3878 -16.4977 48.0514 -19.1522 -11.9697 
-45.1891 -11.1072 -16.4977 -48.4888 -11.1072 -14.5101 48.4425 -11.1072 -16.4977 
56.0964 -11.1072 -13.9636 -45.7285 -3.06222 -16.4977 -48.4888 -3.06222 -14.9087 
53.0439 -3.06222 -16.4977 56.0964 -3.06222 -15.5589 64.1414 -3.06222 -10.4046 
-44.144 4.98279 -16.4977 -48.4888 4.98279 -13.9348 40.0063 9.55637 -16.4977 
51.054 4.98279 -16.4977 48.0514 7.33605 -16.4977 56.0964 4.98279 -14.3909 
-43.0404 13.0278 -16.4977 -48.4888 13.0278 -12.7149 -40.4438 18.7777 -16.4977 
23.9163 19.7713 -16.4977 32.9189 13.0278 -16.4977 31.9613 13.4038 -16.4977 
40.0063 13.0278 -15.0966 48.0514 13.0278 -13.1093 -48.4888 21.0728 -8.49898 
-39.1477 21.0728 -16.4977 -40.4438 21.0728 -15.848 22.8745 21.0728 -16.4977 
15.8713 26.2657 -16.4977 23.9163 21.0728 -16.0934 31.9613 21.0728 -11.6715 
-33.6476 29.1178 -16.4977 -40.4438 29.1178 -10.5487 -32.3988 30.0628 -16.4977 
-24.3538 34.9858 -16.4977 -8.26374 35.9291 -16.4977 -0.218729 32.6849 -16.4977 
9.88929 29.1178 -16.4977 7.82628 29.7462 -16.4977 15.8713 29.1178 -14.7184 
-16.872 37.1628 -16.4977 -24.3538 37.1628 -13.9606 -15.3598 37.1628 -16.4977 
-16.3088 37.2816 -16.4977 -8.26374 37.1628 -15.2544 -0.218729 37.1628 -11.5003 
-16.3088 -43.5095 -8.45266 -32.3988 -40.296 -8.45266 -19.9769 -43.2873 -8.45266 
-24.3538 -43.0046 -8.45266 -15.5302 -43.2873 -8.45266 -16.3088 -43.2873 -7.0198 
-8.26374 -41.1675 -8.45266 -0.218729 -37.8474 -8.45266 -39.6361 -35.2423 -8.45266 
-40.4438 -34.4248 -8.45266 -40.4438 -35.2423 -5.78225 5.57612 -35.2423 -8.45266 
-0.218729 -35.2423 -1.30812 7.82628 -34.1309 -8.45266 15.8713 -29.5076 -8.45266 
-46.7983 -27.1973 -8.45266 -48.4888 -24.7369 -8.45266 -48.4888 -27.1973 -3.56134 
20.6814 -27.1973 -8.45266 15.8713 -27.1973 -1.39348 23.9163 -25.8401 -8.45266 
31.9613 -24.8396 -8.45266 40.0063 -23.8455 -8.45266 48.0514 -22.0944 -8.45266 
-51.5669 -19.1522 -8.45266 55.2974 -19.1522 -8.45266 56.0964 -18.7278 -8.45266 
56.0964 -19.1522 -7.50561 -53.8649 -11.1072 -8.45266 63.2085 -11.1072 -8.45266 
64.1414 -8.09904 -8.45266 64.1414 -11.1072 -6.82246 -54.591 -3.06222 -8.45266 
-56.5338 -3.06222 -2.52864 65.5809 -3.06222 -8.45266 64.1414 3.16597 -8.45266 
-53.5604 4.98279 -8.45266 63.6384 4.98279 -8.45266 56.0964 12.8639 -8.45266 
64.1414 4.98279 -7.82434 -51.941 13.0278 -8.45266 40.0063 20.9615 -8.45266 
55.8649 13.0278 -8.45266 48.0514 17.2761 -8.45266 56.0964 13.0278 -8.22142 
-48.5197 21.0728 -8.45266 -48.4888 21.1187 -8.45266 23.9163 28.9632 -8.45266 
39.7253 21.0728 -8.45266 31.9613 23.87 -8.45266 40.0063 21.0728 -8.13139 
-41.9091 29.1178 -8.45266 -40.4438 30.4842 -8.45266 -32.3988 36.3037 -8.45266 
7.82628 36.3435 -8.45266 23.6935 29.1178 -8.45266 15.8713 33.7356 -8.45266 
23.9163 29.1178 -7.64038 -30.712 37.1628 -8.45266 -32.3988 37.1628 -2.25658 
-24.3538 39.9961 -8.45266 -16.3088 41.6929 -8.45266 -8.26374 40.9959 -8.45266 
5.14588 37.1628 -8.45266 -0.218729 38.7577 -8.45266 7.82628 37.1628 -2.04621 
-40.4438 -36.5466 -0.407644 -32.3988 -40.5441 -0.407644 -24.3538 -42.0046 -0.407644 
-16.3088 -42.0666 -0.407644 -8.26374 -38.3978 -0.407644 -42.0062 -35.2423 -0.407644 
-48.4888 -28.4337 -0.407644 -40.4438 -35.2423 2.50338 -1.03742 -35.2423 -0.407644 
-8.26374 -35.2423 4.16848 -0.218729 -34.8595 -0.407644 7.82628 -30.7587 -0.407644 
-49.401 -27.1973 -0.407644 -48.4888 -27.1973 2.70982 15.183 -27.1973 -0.407644 
7.82628 -27.1973 7.01654 15.8713 -26.92 -0.407644 23.9163 -25.8332 -0.407644 
31.9613 -26.7078 -0.407644 40.0063 -25.4916 -0.407644 48.0514 -25.1212 -0.407644 
56.0964 -21.4343 -0.407644 -54.0174 -19.1522 -0.407644 60.4895 -19.1522 -0.407644 
64.1414 -15.9178 -0.407644 -56.2833 -11.1072 -0.407644 -56.5338 -8.66078 -0.407644 
67.2071 -11.1072 -0.407644 -57.1067 -3.06222 -0.407644 -56.5338 2.37404 -0.407644 
-56.5338 -3.06222 2.17184 69.165 -3.06222 -0.407644 -56.2573 4.98279 -0.407644 
67.9484 4.98279 -0.407644 64.1414 10.2034 -0.407644 -54.3371 13.0278 -0.407644 
48.0514 20.6782 -0.407644 61.1064 13.0278 -0.407644 56.0964 16.7463 -0.407644 
-50.8035 21.0728 -0.407644 -48.4888 24.3154 -0.407644 31.9613 26.1911 -0.407644 
46.8158 21.0728 -0.407644 40.0063 23.1666 -0.407644 -44.1044 29.1178 -0.407644 
-40.4438 32.2241 -0.407644 15.8713 34.6917 -0.407644 26.0714 29.1178 -0.407644 
23.9163 30.3428 -0.407644 23.9163 29.1178 4.7271 -32.8025 37.1628 -0.407644 
-32.3988 37.3911 -0.407644 -32.3988 37.1628 0.911595 -24.3538 40.8906 -0.407644 
-16.3088 42.3825 -0.407644 -8.26374 41.7982 -0.407644 -0.218729 39.7403 -0.407644 
8.47072 37.1628 -0.407644 7.82628 37.3627 -0.407644 7.82628 37.1628 0.844142 
-32.3988 -36.7187 7.63737 -24.3538 -37.7131 7.63737 -16.3088 -35.7874 7.63737 
-35.5315 -35.2423 7.63737 -40.4438 -32.8733 7.63737 -32.3988 -35.2423 9.56129 
-24.3538 -35.2423 10.1199 -14.893 -35.2423 7.63737 -16.3088 -35.2423 8.26578 
-8.26374 -32.2343 7.63737 -0.218729 -28.6187 7.63737 -46.7198 -27.1973 7.63737 
-48.4888 -24.9522 7.63737 -40.4438 -27.1973 13.6394 -16.3088 -27.1973 14.9127 
-8.26374 -27.1973 12.0793 6.34435 -27.1973 7.63737 -0.218729 -27.1973 9.22703 
7.82628 -26.9162 7.63737 15.8713 -25.5062 7.63737 23.9163 -25.4141 7.63737 
31.9613 -25.6575 7.63737 40.0063 -24.7596 7.63737 48.0514 -23.2817 7.63737 
56.0964 -20.0544 7.63737 -51.9882 -19.1522 7.63737 -48.4888 -19.1522 12.7297 
15.8713 -19.1522 15.3409 40.0063 -19.1522 15.229 48.0514 -19.1522 13.185 
57.4889 -19.1522 7.63737 56.0964 -19.1522 8.88881 64.1414 -11.6786 7.63737 
-54.7087 -11.1072 7.63737 56.0964 -11.1072 15.0429 64.5662 -11.1072 7.63737 
64.1414 -11.1072 8.19177 -55.2588 -3.06222 7.63737 67.1739 -3.06222 7.63737 
64.1414 -3.06222 11.1823 -54.7204 4.98279 7.63737 65.8733 4.98279 7.63737 
64.1414 7.41688 7.63737 64.1414 4.98279 9.75096 -52.9776 13.0278 7.63737 
-48.4888 13.0278 14.6815 48.0514 20.2234 7.63737 59.5732 13.0278 7.63737 
56.0964 16.0021 7.63737 56.0964 13.0278 11.836 -49.2612 21.0728 7.63737 
-48.4888 22.171 7.63737 -48.4888 21.0728 9.05498 23.9163 28.4311 7.63737 
31.9613 25.6294 7.63737 45.3783 21.0728 7.63737 40.0063 22.7158 7.63737 
40.0063 21.0728 12.3287 -42.2889 29.1178 7.63737 -40.4438 30.7026 7.63737 
-40.4438 29.1178 10.7604 -32.3988 35.915 7.63737 7.82628 36.0485 7.63737 
22.6725 29.1178 7.63737 15.8713 32.9525 7.63737 15.8713 29.1178 13.7755 
-29.457 37.1628 7.63737 -24.3538 39.1513 7.63737 -24.3538 37.1628 11.711 
-16.3088 40.3879 7.63737 -16.3088 37.1628 13.2298 -8.26374 39.7524 7.63737 
-8.26374 37.1628 12.0279 3.59007 37.1628 7.63737 -0.218729 38.1517 7.63737 
-0.218729 37.1628 9.53268 -32.3988 -28.2204 15.6824 -24.3538 -28.8678 15.6824 
-34.5393 -27.1973 15.6824 -40.4438 -23.9097 15.6824 -32.3988 -27.1973 16.2877 
-19.2315 -27.1973 15.6824 -24.3538 -27.1973 16.9342 -16.3088 -25.9593 15.6824 
-8.26374 -22.573 15.6824 -0.218729 -20.9853 15.6824 7.82628 -19.6899 15.6824 
23.9163 -19.3384 15.6824 31.9613 -19.9361 15.6824 -44.7757 -19.1522 15.6824 
-48.4888 -11.6897 15.6824 -40.4438 -19.1522 18.073 -32.3988 -19.1522 20.2844 
-24.3538 -19.1522 20.7027 -16.3088 -19.1522 19.5141 -8.26374 -19.1522 18.0012 
-0.218729 -19.1522 17.2735 12.3441 -19.1522 15.6824 7.82628 -19.1522 16.0694 
21.31 -19.1522 15.6824 15.8713 -18.1551 15.6824 23.9163 -19.1522 15.8169 
[...]
POINT_DATA 492
SCALARS ImageScalars float
LOOKUP_TABLE default
0 0 0 0 0 0 0 0 0 
0 0 0 0 0 0 0 0 0 
0 0 0 0 0 0 0 0 0 
0 0 0 0 0 0 0 0 0 
0 0 0 0 0 0 0 0 0 
0 0 0 0 0 0 0 0 0 
0 0 0 0 0 0 0 0 0 
0 0 0 0 0 0 0 0 0 
0 0 0 0 0 0 0 0 0 
0 0 0 0 0 0 0 0 0 
0 0 0 0 0 0 0 0 0 
0 0 0 0 0 0 0 0 0 
0 0 0 0 0 0 0 0 0 
0 0 0 0 0 0 0 0 0 
0 0 0 0 0 0 0 0 0 
0 0 0 0 0 0 0 0 0 
0 0 0 0 0 0 0 0 0 
0 0 0 0 0 0 0 0 0 
0 0 0 0 0 0 0 0 0 
0 0 0 0 0 0 0 0 0 
0 0 0 0 0 0 0 0 0 
0 0 0 0 0 0 0 0 0 
0 0 0 0 0 0 0 0 0 
0 0 0 0 0 0 0 0 0 
0 0 0 0 0 0 0 0 0 
0 0 0 0 0 0 0 0 0 
0 0 0 0 0 0 0 0 0 
0 0 0 0 0 0 0 0 0 
0 0 0 0 0 0 0 0 0 
0 0 0 0 0 0 0 0 0 
0 0 0 0 0 0 0 0 0 
0 0 0 0 0 0 0 0 0 
0 0 0 0 0 0 0 0 0 
0 0 0 0 0 0 0 0 0 
0 0 0 0 0 0 0 0 0 
0 0 0 0 0 0 0 0 0 
0 0 0 0 0 0 0 0 0 
0 0 0 0 0 0 0 0 0 
0 0 0 0 0 0 0 0 0 
0 0 0 0 0 0 0 0 0 
0 0 0 0 0 0 0 0 0 
0 0 0 0 0 0 0 0 0 
0 0 0 0 0 0 0 0 0 
0 0 0 0 0 0 0 0 0 
0 0 0 0 0 0 0 0 0 
0 0 0 0 0 0 0 0 0 
0 0 0 0 0 0 0 0 0 
0 0 0 0 0 0 0 0 0 
0 0 0 0 0 0 0 0 0 
0 0 0 0 0 0 0 0 0 
0 0 0 0 0 0 0 0 0 
0 0 0 0 0 0 0 0 0 
0 0 0 0 0 0 0 0 0 
0 0 0 0 0 0 0 0 0 
0 0 0 0 0 0 
NORMALS Normals float
0.249615 0.448005 0.858478 0.104745 0.464208 0.879511 -0.108507 0.590543 0.799679 
-0.296807 0.766062 0.570136 0.352247 0.244813 0.903321 0.219033 0.145989 0.964734 
0.135712 0.110969 0.984514 0.0365085 0.147694 0.988359 -0.0349006 0.255067 0.966293 
-0.15177 0.449743 0.880169 -0.473676 0.700836 0.533347 0.371277 0.210258 0.904403 
0.214048 0.124333 0.968878 0.107293 0.00906155 0.994186 0.11386 -0.0456123 0.992449 
0.0681475 -0.0443229 0.99669 0.0689388 -0.0551154 0.996097 0.0443274 0.048995 0.997815 
-0.249931 0.180485 0.951293 -0.455719 0.356775 0.815495 -0.268989 0.560151 0.783502 
0.3323 0.0789508 0.939863 0.143239 0.0188631 0.989508 0.0556096 -0.0135046 0.998361 
0.077584 -0.0251906 0.996668 0.0258051 0.0053776 0.999653 0.0691989 -0.215596 0.974028 
0.113765 -0.119968 0.986238 -0.194749 -0.0925117 0.976481 -0.28126 0.00744563 0.959603 
-0.136428 0.146547 0.979751 -0.162935 0.245074 0.955715 -0.234639 0.271381 0.933433 
0.307983 -0.0334468 0.950804 0.117888 -0.0476199 0.991884 0.0637797 -0.0536396 0.996521 
0.134263 -0.0695123 0.988505 -0.121615 -0.0722097 0.989947 -0.0846266 -0.307319 0.947836 
0.169735 -0.233775 0.95736 -0.145012 -0.184851 0.972009 -0.163716 -0.0837013 0.98295 
-0.0442491 -0.038515 0.998278 -0.0995938 0.00331444 0.995023 -0.20212 0.0533873 0.977905 
0.318632 -0.0751193 0.944897 0.124553 -0.051652 0.990868 0.0364782 -0.0207352 0.999119 
0.0562466 -0.0246569 0.998112 -0.18569 -0.136818 0.973037 -0.102916 -0.0188453 0.994512 
0.227916 -0.170389 0.958656 -0.0550598 -0.173507 0.983292 -0.133381 -0.107397 0.985229 
-0.0549773 -0.16454 0.984837 -0.0659433 -0.225743 0.971952 -0.203344 -0.236674 0.950072 
0.368234 -0.122397 0.921641 0.177974 -0.0352289 0.983404 0.0942008 0.0656189 0.993388 
0.0159811 0.106638 0.994169 -0.143421 0.0241307 0.989368 -0.105942 0.170679 0.979615 
0.0306369 -0.0389879 0.99877 -0.0706557 -0.139821 0.987653 -0.162306 -0.169904 0.972003 
-0.17472 -0.335274 0.925778 0.299675 -0.157495 0.940952 0.173333 -0.040484 0.984031 
0.011288 -0.00344924 0.99993 -0.137133 -0.0283691 0.990146 -0.155242 -0.0198256 0.987678 
-0.0886126 -0.122857 0.98846 -0.175112 -0.237554 0.95546 0.394276 -0.418104 0.818374 
0.229829 -0.3365 0.913207 0.0281111 -0.307337 0.951185 -0.149175 -0.30314 0.941198 
-0.202787 -0.350359 0.914399 -0.198559 -0.470837 0.859586 0.0353231 -0.68892 0.723977 
0.272344 0.631957 0.725575 0.0112674 0.752946 0.657986 -0.110404 0.987384 0.113502 
-0.208314 0.812616 0.544298 -0.327649 0.825853 0.458926 0.391481 0.519564 0.759471 
0.42966 0.457195 0.778695 0.461553 0.570845 0.679047 -0.338522 0.84071 0.422623 
-0.349551 0.852118 0.389498 -0.493047 0.813048 0.309608 0.456675 0.339483 0.822313 
0.43567 0.293007 0.851081 0.536672 0.423506 0.729812 -0.527311 0.766219 0.36722 
-0.518603 0.626129 0.582249 -0.270675 0.583171 0.765928 0.448341 0.236093 0.86212 
0.69912 0.321364 0.638715 -0.260956 0.565558 0.782334 -0.200806 0.4079 0.890671 
-0.211522 0.623351 0.75279 -0.236604 0.282426 0.929653 -0.290049 0.697509 0.65525 
0.483457 0.0819065 0.871528 0.626616 0.102467 0.772562 -0.240958 0.27385 0.931099 
-0.417118 0.337176 0.843993 0.48492 -0.0299524 0.874046 0.605976 -0.0287734 0.794963 
-0.281149 0.0469449 0.958515 -0.350771 0.0343734 0.93583 -0.746643 0.0241411 0.664787 
0.440346 -0.0778849 0.894444 0.629836 -0.103188 0.769843 -0.122968 -0.344603 0.93066 
-0.274252 -0.273197 0.922035 -0.233541 -0.333192 0.913478 -0.42892 -0.351221 0.832269 
0.453363 -0.143678 0.87967 0.692982 -0.217263 0.687439 0.448654 -0.234696 0.862338 
-0.313224 -0.354112 0.88119 -0.174848 -0.347064 0.921399 -0.182225 -0.346532 0.920168 
-0.185321 -0.462091 0.867253 -0.32001 -0.609675 0.725183 0.78036 -0.470687 0.411694 
0.451123 -0.261768 0.853209 0.49322 -0.292226 0.819352 -0.320618 -0.369905 0.871995 
-0.271975 -0.445656 0.852889 -0.348096 -0.400576 0.847566 -0.356507 -0.678677 0.642106 
0.429246 -0.439843 0.788851 0.6446 -0.63427 0.42684 0.409715 -0.46333 0.785785 
0.263223 -0.627995 0.732349 -0.167367 -0.657302 0.734807 -0.240594 -0.536249 0.809044 
-0.229847 -0.498374 0.835939 -0.205945 -0.502398 0.839752 -0.345973 -0.614161 0.709302 
0.0517298 -0.693827 0.718281 0.289415 -0.781814 0.552274 0.0108379 -0.694582 0.719332 
0.0353112 -0.69396 0.719148 -0.173812 -0.748958 0.639415 -0.277936 -0.849687 0.448089 
-0.116109 0.990987 0.0668099 0.446142 0.851293 0.276148 0.0207894 0.996094 0.0858131 
0.181589 0.97716 0.110384 -0.136524 0.98897 0.0574387 -0.129894 0.991444 -0.0129299 
-0.314711 0.948376 -0.0392448 -0.412448 0.906616 -0.0890784 0.605858 0.701825 0.374671 
0.617009 0.68183 0.392947 0.618575 0.750817 0.2316 -0.441098 0.889399 -0.12001 
-0.388109 0.825164 -0.410457 -0.451348 0.882477 -0.132359 -0.462891 0.874139 -0.14701 
0.729555 0.516173 0.448682 0.765498 0.465504 0.444207 0.808491 0.565123 0.164253 
-0.33698 0.941403 -0.0143058 -0.294997 0.930695 -0.216294 -0.25762 0.960501 0.105217 
-0.126098 0.91639 0.379905 -0.147831 0.903562 0.402145 -0.275169 0.818227 0.504764 
0.819557 0.350714 0.45313 -0.437211 0.751159 0.494576 -0.458349 0.73184 0.504308 
-0.454307 0.773976 0.441096 0.862361 0.167962 0.477622 -0.727588 0.386977 0.56645 
-0.780004 0.256386 0.570842 -0.797057 0.403802 0.449048 0.862646 -0.015314 0.505576 
0.990502 -0.00420436 0.137433 -0.812136 0.0208669 0.583094 -0.748033 -0.283657 0.599988 
0.84526 -0.144724 0.514384 -0.71192 -0.367899 0.598181 -0.493561 -0.630649 0.598898 
-0.740371 -0.375892 0.557276 0.829518 -0.281593 0.482291 -0.32792 -0.831197 0.448978 
-0.488597 -0.63685 0.596402 -0.340716 -0.776156 0.530561 -0.495517 -0.641729 0.58536 
0.781357 -0.470923 0.409527 0.780769 -0.471957 0.409459 -0.51728 -0.778535 0.355393 
-0.330371 -0.830908 0.447712 -0.413181 -0.78187 0.466863 -0.328826 -0.840173 0.431258 
0.670423 -0.660026 0.338967 0.646393 -0.688498 0.328856 0.480059 -0.831565 0.279361 
-0.279331 -0.904957 0.320979 -0.515244 -0.781185 0.352525 -0.389101 -0.863046 0.322105 
-0.518403 -0.795043 0.314904 0.440704 -0.856294 0.269334 0.468336 -0.882547 0.0421007 
0.305674 -0.912575 0.271607 0.0559065 -0.965814 0.253138 -0.174844 -0.944521 0.278045 
-0.276892 -0.911887 0.302975 -0.276208 -0.915122 0.293703 -0.289015 -0.956164 0.0471217 
0.567592 0.819919 -0.0746496 0.282753 0.943225 -0.174292 0.0868289 0.960694 -0.263681 
-0.186785 0.902025 -0.389181 -0.375847 0.820472 -0.430773 0.609989 0.789387 -0.0691412 
0.800108 0.599848 -0.00317092 0.541297 0.806884 -0.236508 -0.37998 0.808182 -0.449953 
-0.352829 0.745506 -0.565449 -0.380278 0.808163 -0.449734 -0.400574 0.832298 -0.38317 
0.818352 0.574712 0.00244796 0.795792 0.584274 -0.159181 -0.282981 0.92889 -0.238926 
-0.181908 0.866594 -0.464676 -0.270099 0.936347 -0.224278 -0.0114351 0.999632 -0.024606 
-0.0207681 0.99878 0.0447928 -0.0973883 0.993359 0.0612623 -0.245984 0.967111 0.0647104 
-0.431195 0.900604 0.0546214 0.926112 0.376696 0.0204205 -0.583161 0.810308 0.0576551 
-0.787711 0.613506 0.0558794 0.982365 0.182558 0.0403882 0.991263 0.127141 0.0351161 
-0.906913 0.417167 0.0589906 0.999724 -0.00132182 0.0234381 0.993033 -0.110489 0.0409524 
0.994698 -0.00181856 -0.10282 -0.997023 0.0281914 0.0717682 0.985341 -0.162954 0.050492 
-0.9191 -0.38605 0.0788675 -0.770572 -0.631996 0.0824625 0.946868 -0.317014 0.0542436 
-0.382039 -0.912217 0.148008 -0.656262 -0.747748 0.100961 -0.509817 -0.853131 0.110697 
0.85949 -0.509651 0.0391421 0.80248 -0.595707 0.0340481 -0.391198 -0.916822 0.0800132 
-0.369916 -0.918811 0.137656 -0.309706 -0.945843 0.09728 0.687242 -0.726183 0.0188847 
0.620059 -0.784528 0.00650394 -0.395229 -0.917786 -0.0382453 -0.467744 -0.883837 -0.00695511 
-0.49061 -0.870776 -0.0324262 -0.442859 -0.867359 -0.22708 0.469082 -0.882895 -0.0213909 
0.461307 -0.886958 -0.0223767 0.459128 -0.88623 -0.0616231 0.288129 -0.956367 -0.0484177 
0.0557869 -0.995533 -0.0761654 -0.160897 -0.984473 -0.0701802 -0.268878 -0.962501 -0.036019 
-0.296014 -0.954997 -0.0188837 -0.288948 -0.957179 -0.0178186 -0.287895 -0.955955 -0.0571602 
0.229922 0.812645 -0.535485 -0.046865 0.781721 -0.621864 -0.23409 0.718793 -0.654629 
0.317228 0.784798 -0.532408 0.464445 0.721227 -0.513929 0.218657 0.768041 -0.601915 
-0.0587847 0.717889 -0.693671 -0.252154 0.713222 -0.654013 -0.232547 0.709698 -0.665019 
-0.320103 0.679935 -0.659713 -0.239217 0.740451 -0.628099 0.681945 0.579871 -0.445759 
0.74144 0.52158 -0.422163 0.418961 0.565892 -0.710097 -0.236363 0.532986 -0.81244 
-0.260256 0.614387 -0.744846 -0.175393 0.846119 -0.503308 -0.202094 0.735725 -0.646426 
-0.161663 0.863435 -0.477854 -0.0817504 0.928808 -0.361431 0.0086917 0.956697 -0.290957 
-0.0410805 0.941777 -0.333719 -0.134656 0.944814 -0.298655 -0.270417 0.873736 -0.404302 
-0.458496 0.80077 -0.385421 0.829318 0.387536 -0.402552 0.682907 0.385185 -0.620701 
-0.015238 0.479089 -0.877634 -0.144224 0.595034 -0.790654 -0.267442 0.677967 -0.684716 
-0.50369 0.764777 -0.401762 -0.462272 0.762565 -0.452548 -0.777923 0.445677 -0.442954 
0.904575 0.188952 -0.382153 -0.396656 0.417675 -0.817442 -0.786688 0.428072 -0.444834 
-0.775812 0.421986 -0.469088 0.919597 -0.000232386 -0.392864 -0.873281 0.0476777 -0.484879 
-0.762629 0.0386628 -0.64568 0.919074 -0.129477 -0.372207 -0.813794 -0.353015 -0.461649 
-0.784606 -0.446045 -0.430624 -0.771452 -0.319815 -0.550072 0.886627 -0.310753 -0.342527 
0.729636 -0.229049 -0.644336 -0.366708 -0.900835 -0.232424 -0.654298 -0.685003 -0.320413 
-0.560235 -0.780511 -0.277379 -0.56393 -0.624191 -0.540711 0.808711 -0.498151 -0.312782 
0.792257 -0.524585 -0.311671 0.788956 -0.492282 -0.367706 -0.402054 -0.848448 -0.344222 
-0.312408 -0.918687 -0.241692 -0.339402 -0.917583 -0.206999 -0.304341 -0.934431 -0.184972 
-0.277141 -0.872141 -0.403191 0.644375 -0.713155 -0.276028 0.607606 -0.74642 -0.271427 
0.608499 -0.695004 -0.383012 0.434053 -0.85711 -0.277418 -0.276846 -0.9181 -0.283636 
-0.412176 -0.844978 -0.340768 -0.415793 -0.850116 -0.323139 -0.420609 -0.678861 -0.60186 
0.365083 -0.883923 -0.292225 0.249815 -0.912891 -0.322835 0.216626 -0.856171 -0.469089 
0.034474 -0.928543 -0.36962 0.00150581 -0.812901 -0.5824 -0.133117 -0.913892 -0.383512 
-0.121421 -0.821102 -0.557718 -0.241859 -0.919766 -0.309086 -0.214297 -0.917321 -0.335558 
-0.198451 -0.890848 -0.408665 0.158243 0.522615 -0.837755 -0.0750883 0.573689 -0.815624 
0.21928 0.514077 -0.829241 0.386882 0.465085 -0.796252 0.156643 0.499217 -0.852201 
-0.176983 0.534168 -0.826645 -0.068993 0.535817 -0.84151 -0.223296 0.513125 -0.828759 
-0.174463 0.565793 -0.805879 -0.10912 0.653477 -0.74904 -0.0967348 0.529978 -0.842476 
0.0527224 0.520772 -0.852066 -0.0268313 0.60607 -0.794959 0.517097 0.358045 -0.77744 
0.633683 0.166037 -0.755564 0.372264 0.343198 -0.862343 0.141768 0.356766 -0.923374 
-0.0408934 0.368252 -0.928826 -0.146646 0.440671 -0.885609 -0.119549 0.524534 -0.842954 
-0.105614 0.612535 -0.783356 -0.0506828 0.48567 -0.872672 -0.10217 0.50861 -0.854914 
0.0317306 0.497553 -0.866853 -0.0170899 0.438449 -0.898593 0.0538783 0.510911 -0.857943 
-0.100563 0.578291 -0.809609 -0.0238644 0.569194 -0.821857 -0.141087 0.555863 -0.819213 
-0.242009 0.490521 -0.837151 0.63857 0.151059 -0.754592 0.631176 0.15118 -0.760764 
0.365838 0.180069 -0.913092 0.170536 0.194277 -0.966009 0.0214507 0.239322 -0.970703 
-0.0664757 0.333578 -0.940376 -0.0834071 0.359681 -0.92934 -0.154473 0.310927 -0.937797 
-0.250457 0.327555 -0.911032 -0.0518759 0.252577 -0.966185 0.115714 0.274596 -0.954572 
0.0440562 0.29654 -0.954004 -0.0953333 0.339321 -0.935827 -0.345115 0.401073 -0.848549 
-0.206779 0.354479 -0.911914 -0.398353 0.348315 -0.848523 0.662685 0.00799376 -0.748855 
0.639988 0.00978976 -0.768322 0.375299 0.0538833 -0.925336 0.196223 0.0531042 -0.97912 
-0.139957 0.180358 -0.973593 -0.231713 0.180115 -0.955964 -0.0753536 0.19915 -0.977068 
0.116151 0.199236 -0.973044 0.067775 0.200972 -0.97725 -0.0931804 0.195943 -0.976178 
-0.238798 0.20179 -0.949872 -0.535879 0.0768807 -0.840787 -0.428791 0.102323 -0.89759 
0.675853 -0.0712816 -0.733582 0.68365 -0.117736 -0.72025 0.664818 -0.0700243 -0.743717 
0.401143 -0.0444376 -0.914937 0.214746 0.0084526 -0.976633 -0.251498 0.0142481 -0.967753 
-0.0485424 0.034454 -0.998227 0.110531 0.0104027 -0.993818 0.0485914 -0.0417741 -0.997945 
-0.0518451 -0.0768758 -0.995692 -0.28074 -0.11304 -0.953104 -0.57716 -0.24174 -0.780031 
-0.52762 -0.357958 -0.770378 -0.523632 -0.228443 -0.820745 0.686217 -0.211229 -0.696052 
0.446772 -0.162124 -0.879835 0.233669 -0.0938701 -0.967774 -0.278947 -0.0523069 -0.958881 
-0.091602 -0.100606 -0.9907 0.040062 -0.254948 -0.966124 -0.0223119 -0.360889 -0.932342 
-0.245894 -0.747515 -0.617056 -0.182433 -0.420723 -0.888656 -0.442935 -0.534985 -0.719444 
-0.384579 -0.617886 -0.685796 -0.380187 -0.530574 -0.757594 0.625151 -0.409345 -0.664547 
0.57895 -0.514311 -0.632693 0.545415 -0.369338 -0.752404 0.288705 -0.289645 -0.912554 
0.056996 -0.247673 -0.967166 -0.0708549 -0.247199 -0.966371 -0.0406946 -0.263381 -0.963833 
-0.0376193 -0.325255 -0.944878 -0.19629 -0.2173 -0.956165 -0.383734 -0.568205 -0.727937 
-0.257468 -0.297209 -0.919444 -0.239328 -0.612519 -0.753354 -0.196888 -0.556564 -0.807138 
-0.154246 -0.722535 -0.673908 -0.148453 -0.717812 -0.680226 -0.146202 -0.713616 -0.685111 
0.470875 -0.638674 -0.608583 0.37775 -0.695467 -0.611254 0.347821 -0.601703 -0.719009 
0.168353 -0.740599 -0.650516 0.112854 -0.530949 -0.839855 -0.0224586 -0.712417 -0.701397 
-0.0458246 -0.478912 -0.876666 -0.106993 -0.661877 -0.741938 -0.0865804 -0.481016 -0.872426 
-0.0976068 -0.694207 -0.713126 -0.0586717 -0.554617 -0.830035 -0.354588 -0.631614 -0.689443 
-0.229228 -0.712592 -0.663074 -0.219582 -0.585839 -0.780113 0.0427488 0.206682 -0.977474 
-0.0547444 0.282201 -0.957792 -0.114138 0.231568 -0.9661 0.18252 0.0603572 -0.981348 
0.106567 0.105354 -0.988708 -0.0218934 0.130743 -0.991175 -0.133407 0.17616 -0.97528 
-0.126713 0.168331 -0.977552 -0.14221 0.147965 -0.978715 0.213129 0.00831772 -0.976989 
0.102032 -0.0083839 -0.994746 -0.00239155 -0.0418014 -0.999123 -0.0393173 -0.0267371 -0.998869 
-0.199067 0.0481898 -0.9788 -0.146943 0.0788138 -0.986 0.225455 -0.0939421 -0.969714 
0.0561675 -0.220036 -0.973873 0.0583236 -0.0967665 -0.993597 -0.0577876 -0.201668 -0.977748 
-0.0410336 -0.139293 -0.989401 -0.009393 -0.182349 -0.983189 -0.00389292 -0.16753 -0.985859 
-0.166623 -0.107223 -0.980173 -0.0755265 -0.209664 -0.974852 -0.0981157 -0.134568 -0.986035 

