# vtk DataFile Version 4.2
vtk output
ASCII
DATASET POLYDATA
POINTS 550 float
-24.8565 -25.7246 -11.9241 -18.3936 -25.7246 -12.2816 -11.9306 -25.7246 -12.6855 
-5.46775 -25.7246 -12.4475 0.995155 -25.7246 -11.5976 -37.7823 -19.2617 -12.7231 
-31.3194 -19.2617 -14.4475 -24.8565 -19.2617 -14.6965 -18.3936 -19.2617 -14.8075 
-11.9306 -19.2617 -15.2218 -5.46775 -19.2617 -15.1635 0.995155 -19.2617 -14.005 
7.45806 -19.2617 -12.6698 13.921 -19.2617 -12.6503 20.3839 -19.2617 -12.6548 
26.8468 -19.2617 -12.9161 33.3097 -19.2617 -12.7623 -44.2452 -12.7988 -12.7783 
-37.7823 -12.7988 -14.8316 -31.3194 -12.7988 -15.5614 -24.8565 -12.7988 -15.6152 
-18.3936 -12.7988 -15.7656 -11.9306 -12.7988 -15.0627 -5.46775 -12.7988 -16.1092 
0.995155 -12.7988 -15.0429 7.45806 -12.7988 -13.8636 13.921 -12.7988 -14.0152 
20.3839 -12.7988 -14.3574 26.8468 -12.7988 -14.7293 33.3097 -12.7988 -14.9826 
39.7726 -12.7988 -14.3666 46.2355 -12.7988 -12.1995 -44.2452 -6.33586 -14.2731 
-37.7823 -6.33586 -16.3459 -31.3194 -6.33586 -16.3505 -24.8565 -6.33586 -15.8294 
-18.3936 -6.33586 -14.8028 -11.9306 -6.33586 -14.3007 -5.46775 -6.33586 -16.3479 
0.995155 -6.33586 -14.4232 7.45806 -6.33586 -16.7786 13.921 -6.33586 -15.3041 
20.3839 -6.33586 -14.6566 26.8468 -6.33586 -15.2225 33.3097 -6.33586 -15.5203 
39.7726 -6.33586 -15.2675 46.2355 -6.33586 -14.6122 52.6984 -6.33586 -12.3569 
-50.7081 0.127042 -11.8177 -44.2452 0.127042 -15.0759 -37.7823 0.127042 -16.2059 
-31.3194 0.127042 -16.6298 -24.8565 0.127042 -15.812 -18.3936 0.127042 -14.6057 
-11.9306 0.127042 -14.9442 -5.46775 0.127042 -17.1564 0.995155 0.127042 -12.8553 
7.45806 0.127042 -17.1753 13.921 0.127042 -14.4849 20.3839 0.127042 -14.4245 
26.8468 0.127042 -15.4169 33.3097 0.127042 -15.8639 39.7726 0.127042 -15.6719 
46.2355 0.127042 -14.3064 -44.2452 6.58994 -14.5951 -37.7823 6.58994 -16.6144 
-31.3194 6.58994 -16.6879 -24.8565 6.58994 -15.9094 -18.3936 6.58994 -14.9095 
-11.9306 6.58994 -14.3929 -5.46775 6.58994 -15.7897 0.995155 6.58994 -15.3623 
7.45806 6.58994 -15.7995 13.921 6.58994 -14.2655 20.3839 6.58994 -15.0132 
26.8468 6.58994 -15.7593 33.3097 6.58994 -16.0283 39.7726 6.58994 -15.6931 
46.2355 6.58994 -15.458 52.6984 6.58994 -11.4922 -44.2452 13.0528 -13.5563 
-37.7823 13.0528 -15.2362 -31.3194 13.0528 -15.8079 -24.8565 13.0528 -15.8519 
-18.3936 13.0528 -15.9039 -11.9306 13.0528 -15.134 -5.46775 13.0528 -14.9628 
0.995155 13.0528 -15.279 7.45806 13.0528 -15.1613 13.921 13.0528 -15.3906 
20.3839 13.0528 -16.033 26.8468 13.0528 -16.5795 33.3097 13.0528 -15.7317 
39.7726 13.0528 -15.1163 46.2355 13.0528 -12.1075 -37.7823 19.5157 -13.1628 
-31.3194 19.5157 -14.8939 -24.8565 19.5157 -15.3213 -18.3936 19.5157 -15.2499 
-11.9306 19.5157 -15.9339 -5.46775 19.5157 -15.482 0.995155 19.5157 -15.4317 
7.45806 19.5157 -14.9497 13.921 19.5157 -15.1615 20.3839 19.5157 -16.1143 
26.8468 19.5157 -15.4588 33.3097 19.5157 -15.3603 39.7726 19.5157 -12.9196 
-24.8565 25.9786 -12.7895 -18.3936 25.9786 -13.6198 -11.9306 25.9786 -14.1509 
-5.46775 25.9786 -14.1035 0.995155 25.9786 -13.8973 7.45806 25.9786 -13.2101 
13.921 25.9786 -12.9969 20.3839 25.9786 -12.9987 26.8468 25.9786 -13.1958 
33.3097 25.9786 -11.3125 -24.8565 -26.516 -11.1971 -18.3936 -27.096 -11.1971 
-11.9306 -27.5838 -11.1971 -5.46775 -27.3229 -11.1971 0.995155 -26.2261 -11.1971 
-37.7823 -21.6209 -11.1971 -37.7823 -25.7246 -6.8442 -28.2262 -25.7246 -11.1971 
-31.3194 -24.6671 -11.1971 -31.3194 -25.7246 -10.1906 3.14635 -25.7246 -11.1971 
7.45806 -23.6559 -11.1971 7.45806 -25.7246 -10.304 13.921 -22.6629 -11.1971 
13.921 -25.7246 -9.48585 20.3839 -22.173 -11.1971 20.3839 -25.7246 -8.88467 
26.8468 -22.096 -11.1971 26.8468 -25.7246 -8.08321 33.3097 -21.4774 -11.1971 
33.3097 -25.7246 -6.43171 -40.9796 -19.2617 -11.1971 -44.2452 -15.7415 -11.1971 
-44.2452 -19.2617 -8.83677 39.403 -19.2617 -11.1971 39.7726 -19.1019 -11.1971 
39.7726 -19.2617 -11.0748 46.2355 -15.5876 -11.1971 46.2355 -19.2617 -8.85549 
-47.0173 -12.7988 -11.1971 -50.7081 -12.7988 -8.16638 48.624 -12.7988 -11.1971 
52.6984 -9.35191 -11.1971 52.6984 -12.7988 -8.69791 -49.5152 -6.33586 -11.1971 
-50.7081 -2.4638 -11.1971 -50.7081 -6.33586 -10.1593 54.3291 -6.33586 -11.1971 
52.6984 -1.1677 -11.1971 59.1613 -6.33586 -5.31029 -51.555 0.127042 -11.1971 
-57.171 0.127042 -5.40632 -50.7081 3.98249 -11.1971 52.1413 0.127042 -11.1971 
52.6984 3.68005 -11.1971 52.6984 0.127042 -10.812 -50.1723 6.58994 -11.1971 
-50.7081 6.58994 -10.7433 53.0438 6.58994 -11.1971 52.6984 7.23802 -11.1971 
-48.724 13.0528 -11.1971 -50.7081 13.0528 -9.68145 -44.2452 17.6123 -11.1971 
47.7069 13.0528 -11.1971 46.2355 16.7025 -11.1971 52.6984 13.0528 -7.0306 
-42.3832 19.5157 -11.1971 -44.2452 19.5157 -9.64736 -37.7823 22.3168 -11.1971 
-31.3194 25.5411 -11.1971 44.6411 19.5157 -11.1971 39.7726 22.0766 -11.1971 
46.2355 19.5157 -9.65465 -37.7823 25.9786 -6.37465 -30.3265 25.9786 -11.1971 
-31.3194 25.9786 -10.6666 -24.8565 27.5999 -11.1971 -18.3936 28.8783 -11.1971 
-11.9306 29.4739 -11.1971 -5.46775 29.4939 -11.1971 0.995155 29.2358 -11.1971 
7.45806 28.4453 -11.1971 13.921 28.2719 -11.1971 20.3839 28.0604 -11.1971 
26.8468 27.9859 -11.1971 33.555 25.9786 -11.1971 33.3097 26.0933 -11.1971 
-37.7823 -26.9205 -4.73418 -31.3194 -29.087 -4.73418 -24.8565 -30.5553 -4.73418 
-18.3936 -31.3068 -4.73418 -11.9306 -31.8309 -4.73418 -5.46775 -31.6843 -4.73418 
0.995155 -31.0471 -4.73418 7.45806 -30.2936 -4.73418 13.921 -29.651 -4.73418 
20.3839 -28.9693 -4.73418 26.8468 -28.0528 -4.73418 33.3097 -26.8525 -4.73418 
-39.7316 -25.7246 -4.73418 -44.2452 -22.3396 -4.73418 38.8331 -25.7246 -4.73418 
39.7726 -25.4943 -4.73418 46.2355 -22.0706 -4.73418 -47.818 -19.2617 -4.73418 
-50.7081 -15.8539 -4.73418 50.7863 -19.2617 -4.73418 52.6984 -17.5507 -4.73418 
-52.9448 -12.7988 -4.73418 55.8557 -12.7988 -4.73418 59.1613 -7.19256 -4.73418 
-55.491 -6.33586 -4.73418 -57.171 -1.28853 -4.73418 59.528 -6.33586 -4.73418 
59.1613 -1.54375 -4.73418 -57.5578 0.127042 -4.73418 -57.171 2.19478 -4.73418 
59.0001 0.127042 -4.73418 59.1613 0.127042 -0.787516 -56.1727 6.58994 -4.73418 
-57.171 6.58994 1.71071 57.7896 6.58994 -4.73418 -54.024 13.0528 -4.73418 
-50.7081 17.105 -4.73418 54.1524 13.0528 -4.73418 52.6984 15.1491 -4.73418 
-48.1622 19.5157 -4.73418 -44.2452 22.3183 -4.73418 39.7726 25.6513 -4.73418 
48.7368 19.5157 -4.73418 46.2355 21.6859 -4.73418 -39.1377 25.9786 -4.73418 
-37.7823 26.7548 -4.73418 -31.3194 28.8905 -4.73418 -24.8565 30.3723 -4.73418 
-18.3936 30.9543 -4.73418 -11.9306 31.3826 -4.73418 -5.46775 30.7719 -4.73418 
0.995155 30.7858 -4.73418 7.45806 31.3462 -4.73418 13.921 31.4657 -4.73418 
20.3839 31.212 -4.73418 26.8468 30.5044 -4.73418 39.1805 25.9786 -4.73418 
33.3097 28.8838 -4.73418 -37.7823 -27.0691 1.72872 -31.3194 -29.1773 1.72872 
-24.8565 -30.4982 1.72872 -18.3936 -31.3625 1.72872 -11.9306 -31.9652 1.72872 
-5.46775 -32.0226 1.72872 0.995155 -31.4981 1.72872 7.45806 -30.6798 1.72872 
13.921 -29.9456 1.72872 20.3839 -29.1673 1.72872 26.8468 -28.5198 1.72872 
33.3097 -27.6127 1.72872 -40.1107 -25.7246 1.72872 -44.2452 -22.7781 1.72872 
-37.7823 -25.7246 5.41781 26.8468 -25.7246 7.91426 39.507 -25.7246 1.72872 
33.3097 -25.7246 5.96189 39.7726 -25.635 1.72872 46.2355 -23.1521 1.72872 
-48.5869 -19.2617 1.72872 -50.7081 -16.9613 1.72872 51.9481 -19.2617 1.72872 
46.2355 -19.2617 7.97225 52.6984 -18.6254 1.72872 -53.862 -12.7988 1.72872 
56.954 -12.7988 1.72872 52.6984 -12.7988 8.09103 59.1613 -8.0315 1.72872 
-56.8346 -6.33586 1.72872 -57.171 -5.1856 1.72872 59.8337 -6.33586 1.72872 
59.1613 -6.33586 3.36607 -58.7255 0.127042 1.72872 -57.171 0.127042 6.0276 
59.2417 0.127042 1.72872 59.1613 0.526183 1.72872 59.1613 0.127042 1.89556 
-57.1733 6.58994 1.72872 -57.171 6.59631 1.72872 -57.171 6.58994 1.73564 
57.7216 6.58994 1.72872 -54.1967 13.0528 1.72872 -50.7081 17.2163 1.72872 
-50.7081 13.0528 8.14201 53.9085 13.0528 1.72872 52.6984 14.5541 1.72872 
52.6984 13.0528 3.67934 -47.943 19.5157 1.72872 -44.2452 21.8834 1.72872 
-44.2452 19.5157 6.8114 39.7726 24.0241 1.72872 39.7726 19.5157 8.13945 
47.1893 19.5157 1.72872 46.2355 20.3033 1.72872 46.2355 19.5157 2.86368 
-37.7948 25.9786 1.72872 -37.7823 25.9859 1.72872 -37.7823 25.9786 1.74251 
-31.3194 27.6844 1.72872 -31.3194 25.9786 5.11299 -24.8565 29.1686 1.72872 
-24.8565 25.9786 7.75963 -18.3936 29.7049 1.72872 -11.9306 29.8625 1.72872 
-5.46775 29.0016 1.72872 0.995155 29.2053 1.72872 7.45806 30.2464 1.72872 
13.921 30.243 1.72872 13.921 25.9786 7.03393 20.3839 29.5465 1.72872 
20.3839 25.9786 5.971 26.8468 28.3184 1.72872 26.8468 25.9786 4.93247 
35.4499 25.9786 1.72872 33.3097 26.9787 1.72872 33.3097 25.9786 3.04807 
-31.3194 -26.5765 8.19162 -24.8565 -27.5191 8.19162 -18.3936 -28.6475 8.19162 
-11.9306 -29.0413 8.19162 -5.46775 -29.168 8.19162 0.995155 -28.5033 8.19162 
7.45806 -27.1776 8.19162 13.921 -26.2837 8.19162 20.3839 -25.7345 8.19162 
-44.2452 -20.1848 8.19162 -34.0569 -25.7246 8.19162 -37.7823 -24.2139 8.19162 
-31.3194 -25.7246 9.25658 -24.8565 -25.7246 10.2874 -18.3936 -25.7246 11.3287 
-11.9306 -25.7246 11.5525 -5.46775 -25.7246 11.6349 0.995155 -25.7246 10.9048 
7.45806 -25.7246 9.54952 13.921 -25.7246 8.74204 20.7879 -25.7246 8.19162 
20.3839 -25.7246 8.20182 26.8468 -25.5069 8.19162 33.3097 -24.0394 8.19162 
39.7726 -21.7889 8.19162 -45.4601 -19.2617 8.19162 -50.7081 -13.6741 8.19162 
-44.2452 -19.2617 9.39747 -37.7823 -19.2617 13.083 -31.3194 -19.2617 14.5851 
0.995155 -19.2617 13.9994 7.45806 -19.2617 13.3201 13.921 -19.2617 12.5783 
20.3839 -19.2617 12.2594 26.8468 -19.2617 12.1752 33.3097 -19.2617 11.6781 
45.8304 -19.2617 8.19162 39.7726 -19.2617 10.3665 46.2355 -19.0261 8.19162 
-51.5142 -12.7988 8.19162 -50.7081 -12.7988 8.95332 13.921 -12.7988 14.3586 
20.3839 -12.7988 13.7855 26.8468 -12.7988 14.1287 33.3097 -12.7988 14.3529 
39.7726 -12.7988 13.4997 52.5687 -12.7988 8.19162 46.2355 -12.7988 11.7007 
52.6984 -12.646 8.19162 -54.8223 -6.33586 8.19162 -50.7081 -6.33586 12.8766 
[...]
POINT_DATA 550
SCALARS ImageScalars float
LOOKUP_TABLE default
0 0 0 0 0 0 0 0 0 
0 0 0 0 0 0 0 0 0 
0 0 0 0 0 0 0 0 0 
0 0 0 0 0 0 0 0 0 
0 0 0 0 0 0 0 0 0 
0 0 0 0 0 0 0 0 0 
0 0 0 0 0 0 0 0 0 
0 0 0 0 0 0 0 0 0 
0 0 0 0 0 0 0 0 0 
0 0 0 0 0 0 0 0 0 
0 0 0 0 0 0 0 0 0 
0 0 0 0 0 0 0 0 0 
0 0 0 0 0 0 0 0 0 
0 0 0 0 0 0 0 0 0 
0 0 0 0 0 0 0 0 0 
0 0 0 0 0 0 0 0 0 
0 0 0 0 0 0 0 0 0 
0 0 0 0 0 0 0 0 0 
0 0 0 0 0 0 0 0 0 
0 0 0 0 0 0 0 0 0 
0 0 0 0 0 0 0 0 0 
0 0 0 0 0 0 0 0 0 
0 0 0 0 0 0 0 0 0 
0 0 0 0 0 0 0 0 0 
0 0 0 0 0 0 0 0 0 
0 0 0 0 0 0 0 0 0 
0 0 0 0 0 0 0 0 0 
0 0 0 0 0 0 0 0 0 
0 0 0 0 0 0 0 0 0 
0 0 0 0 0 0 0 0 0 
0 0 0 0 0 0 0 0 0 
0 0 0 0 0 0 0 0 0 
0 0 0 0 0 0 0 0 0 
0 0 0 0 0 0 0 0 0 
0 0 0 0 0 0 0 0 0 
0 0 0 0 0 0 0 0 0 
0 0 0 0 0 0 0 0 0 
0 0 0 0 0 0 0 0 0 
0 0 0 0 0 0 0 0 0 
0 0 0 0 0 0 0 0 0 
0 0 0 0 0 0 0 0 0 
0 0 0 0 0 0 0 0 0 
0 0 0 0 0 0 0 0 0 
0 0 0 0 0 0 0 0 0 
0 0 0 0 0 0 0 0 0 
0 0 0 0 0 0 0 0 0 
0 0 0 0 0 0 0 0 0 
0 0 0 0 0 0 0 0 0 
0 0 0 0 0 0 0 0 0 
0 0 0 0 0 0 0 0 0 
0 0 0 0 0 0 0 0 0 
0 0 0 0 0 0 0 0 0 
0 0 0 0 0 0 0 0 0 
0 0 0 0 0 0 0 0 0 
0 0 0 0 0 0 0 0 0 
0 0 0 0 0 0 0 0 0 
0 0 0 0 0 0 0 0 0 
0 0 0 0 0 0 0 0 0 
0 0 0 0 0 0 0 0 0 
0 0 0 0 0 0 0 0 0 
0 0 0 0 0 0 0 0 0 
0 
NORMALS Normals float
0.121743 0.610453 0.782641 0.052416 0.561902 0.825541 0.0123177 0.537489 0.843181 
-0.0733271 0.545206 0.835089 -0.148034 0.536189 0.831016 0.324465 0.431409 0.841789 
0.142459 0.341408 0.929056 0.0265262 0.255896 0.96634 0.0370101 0.24016 0.970028 
0.0296944 0.164015 0.986011 -0.0869663 0.257492 0.962359 -0.190051 0.234568 0.953341 
-0.0953927 0.243358 0.965234 -0.00111121 0.291689 0.956512 0.0182748 0.352308 0.935706 
0.00747626 0.402001 0.915609 -0.109881 0.475337 0.872915 0.402363 0.348194 0.846679 
0.179155 0.2643 0.947654 0.0553425 0.136426 0.989103 0.0155104 0.0827089 0.996453 
-0.0404157 0.00364248 0.999176 0.0277397 -0.0712332 0.997074 0.000963734 0.0881702 0.996105 
-0.176728 0.0296411 0.983813 -0.0731657 0.294289 0.952912 0.0370674 0.195833 0.979936 
0.0544722 0.146828 0.987661 0.0466711 0.162776 0.985559 -0.0368461 0.217471 0.975371 
-0.174908 0.246478 0.953234 -0.381968 0.317673 0.867862 0.377425 0.148706 0.914022 
0.164716 0.093685 0.981882 -0.0394479 0.0804434 0.995978 -0.119712 0.0151094 0.992694 
-0.11673 -0.0878345 0.989272 0.12141 -0.0202622 0.992396 0.0169331 0.0690162 0.997472 
0.0223485 -0.146237 0.988997 0.0681251 0.255118 0.964507 -0.163853 0.0463187 0.985397 
-0.00256077 0.00471874 0.999986 0.0678547 0.0534818 0.996261 0.00431332 0.0653568 0.997853 
-0.0633469 0.113436 0.991524 -0.248717 0.136941 0.958847 -0.491034 0.0996534 0.865422 
0.597524 0.0325055 0.801192 0.285371 0.0243836 0.958107 0.122752 0.0186391 0.992262 
-0.0276605 0.0266155 0.999263 -0.154364 0.00612178 0.987995 -0.075585 0.00842807 0.997104 
0.189268 0.00797521 0.981893 -0.164107 -0.0443865 0.985443 0.0591256 0.0932322 0.993887 
0.0863084 -0.0744174 0.993485 -0.219282 -0.0838971 0.972048 0.0740449 0.0280685 0.99686 
0.110697 0.0412047 0.993 0.0200933 0.0390918 0.999034 -0.12855 0.0321594 0.991181 
-0.317672 0.0445519 0.947154 0.361944 -0.0967539 0.927165 0.167976 -0.0617421 0.983856 
-0.055566 -0.0633009 0.996446 -0.135224 0.00304685 0.99081 -0.116147 0.0905432 0.989097 
0.0610633 0.0234698 0.997858 0.0816688 -0.157408 0.984151 0.00141749 0.14501 0.989429 
-0.0879703 -0.153551 0.984217 -0.0532659 0.0734246 0.995877 0.118306 0.127648 0.984738 
0.077979 0.0884294 0.993025 -0.00399382 -0.00982566 0.999944 -0.0410845 -0.0404895 0.998335 
-0.293813 -0.101294 0.950481 -0.623193 -0.162065 0.765091 0.370072 -0.301917 0.878574 
0.146796 -0.258659 0.95475 0.0436167 -0.126962 0.990948 0.00689504 -0.0429043 0.999055 
-0.0556815 0.0275977 0.998067 -0.0668023 0.11943 0.990593 0.0122025 -0.0186725 0.999751 
0.0144163 0.00508995 0.999883 0.00861044 -0.0619725 0.998041 0.0670698 0.0693216 0.995337 
0.0906267 0.0837269 0.992359 -0.0225693 -0.0198199 0.999549 -0.107357 -0.0465046 0.993132 
-0.228534 -0.207695 0.951123 -0.459877 -0.2999 0.835807 0.300572 -0.443404 0.844422 
0.159113 -0.324382 0.932448 0.023835 -0.205556 0.978355 0.0450691 -0.158464 0.986336 
0.0185946 -0.0560967 0.998252 -0.0377315 -0.061172 0.997414 -0.0413993 -0.0985672 0.994269 
-0.0204453 -0.128182 0.99154 0.0852658 -0.165466 0.982523 0.0224856 -0.19523 0.9805 
-0.0536504 -0.236257 0.970208 -0.20388 -0.323245 0.924092 -0.328685 -0.437712 0.836884 
0.19418 -0.613793 0.765214 0.0960182 -0.512587 0.85325 0.0388113 -0.493791 0.868714 
-0.0202739 -0.485444 0.874033 -0.0675041 -0.502361 0.862019 -0.0713854 -0.489274 0.869204 
-0.0150607 -0.525622 0.850585 0.0137766 -0.600044 0.799848 -0.120294 -0.632853 0.76487 
-0.324955 -0.691304 0.64537 0.129396 0.661158 0.739004 0.0635548 0.643566 0.762747 
0.0136435 0.644921 0.764128 -0.0739769 0.637141 0.767189 -0.144519 0.567598 0.810522 
0.355576 0.54772 0.757343 0.427356 0.806604 0.408359 0.188657 0.648471 0.737492 
0.230134 0.622366 0.74813 0.250048 0.708091 0.660366 -0.1415 0.526001 0.83863 
-0.117327 0.412076 0.903564 -0.130465 0.542424 0.829912 -0.0437708 0.444103 0.894906 
-0.0883642 0.651212 0.753734 -0.0197944 0.474604 0.879977 -0.0808551 0.717592 0.691754 
-0.0370665 0.525162 0.850194 -0.13347 0.789814 0.598649 -0.124915 0.584922 0.801413 
-0.169726 0.860161 0.480954 0.426907 0.48984 0.760136 0.463265 0.453178 0.761588 
0.562133 0.592736 0.576775 -0.207843 0.569203 0.795493 -0.21283 0.566361 0.796202 
-0.215646 0.5767 0.787981 -0.384717 0.408876 0.827534 -0.417754 0.64723 0.637632 
0.500921 0.376558 0.779283 0.706879 0.426031 0.564641 -0.443151 0.354915 0.823197 
-0.528575 0.258021 0.808724 -0.613611 0.456266 0.64444 0.596444 0.175976 0.783126 
0.620744 0.0858055 0.779304 0.663425 0.181229 0.725964 -0.603274 0.107841 0.79021 
-0.56043 -0.044049 0.82703 -0.90298 0.184101 0.388244 0.623787 0.0334899 0.780877 
0.902249 0.044579 0.428905 0.62302 -0.0478887 0.780739 -0.551116 -0.0672902 0.831711 
-0.601157 -0.121945 0.789772 -0.580903 -0.076446 0.810375 0.612807 -0.107929 0.782827 
0.643891 -0.108481 0.757387 -0.639318 -0.16597 0.750817 -0.62669 -0.183547 0.757344 
0.53282 -0.34094 0.774508 0.650989 -0.374691 0.660167 0.475508 -0.516446 0.712163 
-0.501818 -0.311887 0.806787 -0.502485 -0.424329 0.753295 -0.768812 -0.473964 0.429286 
0.453951 -0.548908 0.701874 0.536079 -0.632517 0.559054 0.354511 -0.609011 0.709526 
0.292623 -0.678111 0.674193 -0.474391 -0.52045 0.70999 -0.390066 -0.606957 0.692425 
-0.573087 -0.610409 0.546783 0.424753 -0.861229 0.279051 0.287749 -0.691406 0.66269 
0.301527 -0.723648 0.620818 0.216749 -0.722618 0.656386 0.129146 -0.74912 0.649723 
0.0460463 -0.769154 0.637402 -0.0174444 -0.801863 0.597253 -0.0696168 -0.777383 0.625164 
-0.0679297 -0.691635 0.719045 -0.0245339 -0.666463 0.745134 -0.0176727 -0.711016 0.702953 
-0.138707 -0.752584 0.643722 -0.332581 -0.696408 0.635929 -0.326906 -0.697732 0.637419 
0.431926 0.861237 0.267789 0.280961 0.925048 0.25563 0.161359 0.95677 0.241982 
0.0930684 0.966126 0.240706 0.0281527 0.967658 0.250688 -0.0571091 0.962847 0.26394 
-0.10479 0.949293 0.296413 -0.106692 0.940324 0.32312 -0.099922 0.934854 0.34068 
-0.119657 0.933594 0.337764 -0.158858 0.931842 0.326243 -0.190056 0.911016 0.365962 
0.486924 0.830288 0.271158 0.604841 0.743657 0.284855 -0.277203 0.91518 0.292583 
-0.295045 0.91265 0.282874 -0.481896 0.80918 0.336162 0.685888 0.659863 0.30682 
0.764837 0.562557 0.313934 -0.567148 0.74171 0.358063 -0.647045 0.661528 0.379094 
0.81377 0.48165 0.325256 -0.799106 0.459665 0.387477 -0.904933 0.221631 0.363285 
0.866642 0.29087 0.405371 0.916507 0.102489 0.386667 -0.915275 0.183053 0.358836 
-0.935963 -0.0398961 0.34983 0.920798 0.044279 0.387519 0.92344 -0.0439436 0.381218 
-0.930917 -0.115681 0.346427 -0.990223 -0.139025 -0.0114379 0.89769 -0.224064 0.379405 
0.953028 -0.287074 -0.0965718 -0.893512 -0.343722 0.288947 0.830187 -0.483411 0.277674 
0.725097 -0.642241 0.248515 -0.827705 -0.506256 0.242095 -0.795778 -0.571226 0.201092 
0.64402 -0.733231 0.218199 0.573602 -0.799497 0.178283 -0.474261 -0.878061 0.0639225 
-0.671427 -0.736084 0.0858338 -0.610775 -0.786781 0.0890506 0.456691 -0.873016 0.171105 
0.419993 -0.891187 0.171438 0.300222 -0.946598 0.117554 0.152798 -0.98463 0.0845954 
0.0769768 -0.996515 0.0321272 -0.0147636 -0.999826 -0.0114048 -0.0461375 -0.997391 -0.0555123 
0.0447416 -0.998666 -0.0257923 0.0537237 -0.995871 0.0731752 -0.0103515 -0.996088 0.0877637 
-0.0737524 -0.995147 0.0651371 -0.180428 -0.983538 0.00995235 -0.459733 -0.886178 0.0577353 
-0.342135 -0.937894 0.057436 0.410792 0.897731 -0.15915 0.271407 0.946382 -0.175213 
0.161117 0.967684 -0.193982 0.110473 0.97946 -0.168684 0.0501772 0.984198 -0.169812 
-0.035083 0.987896 -0.151101 -0.102147 0.983201 -0.151266 -0.11962 0.976341 -0.180139 
-0.115178 0.972661 -0.201652 -0.109767 0.972209 -0.206785 -0.125549 0.976628 -0.174456 
-0.211515 0.965714 -0.150528 0.480192 0.864169 -0.150427 0.594111 0.794227 -0.127417 
0.405666 0.839446 -0.361614 -0.0871915 0.779528 -0.620269 -0.307153 0.933754 -0.183738 
-0.209603 0.850422 -0.482544 -0.311668 0.93188 -0.185641 -0.46582 0.869042 -0.166665 
0.696633 0.710195 -0.101615 0.762652 0.640362 -0.0911017 -0.610626 0.765811 -0.201667 
-0.409938 0.618843 -0.670063 -0.644431 0.736729 -0.20479 0.838683 0.541984 -0.0535255 
-0.879264 0.463185 -0.111148 -0.545712 0.511195 -0.663986 -0.96039 0.228414 -0.159617 
0.946549 0.317828 -0.0550567 0.961512 0.267299 -0.0636025 -0.972216 0.153113 -0.177066 
-0.950658 0.129449 -0.281945 0.997428 0.0266114 -0.0665544 0.9468 0.0102101 -0.321661 
-0.965962 -0.143007 -0.215563 -0.963258 -0.157386 -0.217631 -0.963369 -0.14422 -0.226101 
0.952891 -0.287147 -0.0977053 0.952816 -0.287389 -0.0977203 0.952866 -0.28711 -0.0980484 
-0.889538 -0.39384 -0.231545 0.815202 -0.562581 -0.137652 0.696593 -0.692998 -0.185776 
0.549445 -0.604262 -0.577042 -0.778385 -0.574483 -0.253151 -0.741153 -0.615513 -0.268023 
-0.725905 -0.571942 -0.382027 0.594639 -0.780094 -0.194573 0.518818 -0.827523 -0.214555 
0.450399 -0.761898 -0.465459 -0.417827 -0.839942 -0.346293 -0.305325 -0.587963 -0.74905 
-0.580981 -0.745057 -0.327645 -0.555814 -0.757542 -0.342346 -0.544889 -0.743793 -0.387128 
0.38311 -0.872632 -0.302887 0.382785 -0.872759 -0.302931 0.382757 -0.872523 -0.303645 
0.236096 -0.919446 -0.314447 0.232591 -0.85918 -0.455754 0.144786 -0.93905 -0.311806 
0.160208 -0.772302 -0.614722 0.0510101 -0.95788 -0.282601 -0.0512937 -0.947617 -0.315264 
-0.0497682 -0.950286 -0.307377 0.0918561 -0.949344 -0.300512 0.0780989 -0.94584 -0.315098 
-0.052697 -0.915302 -0.399306 -0.145608 -0.642525 -0.752303 -0.139275 -0.876844 -0.460159 
-0.116262 -0.688334 -0.716016 -0.173001 -0.863296 -0.474122 -0.154227 -0.771773 -0.616912 
-0.347645 -0.832271 -0.431821 -0.294482 -0.829021 -0.475399 -0.274039 -0.799813 -0.534042 
0.203508 0.817585 -0.538646 0.139128 0.808229 -0.572197 0.0993973 0.812392 -0.574577 
0.034012 0.804006 -0.593648 -0.0339527 0.802078 -0.596254 -0.125089 0.77063 -0.624886 
-0.139502 0.726946 -0.672376 -0.0903869 0.714939 -0.693319 -0.044559 0.731955 -0.679895 
0.514505 0.714277 -0.47444 0.278605 0.799568 -0.532044 0.380548 0.758855 -0.52851 
0.192855 0.784621 -0.589216 0.122085 0.733811 -0.668294 0.0728839 0.654749 -0.752324 
0.0189578 0.646916 -0.762326 -0.0417694 0.610749 -0.790721 -0.135731 0.606302 -0.783565 
-0.138193 0.654237 -0.743557 -0.0869452 0.685852 -0.722529 -0.0469951 0.733939 -0.677588 
-0.0444506 0.731471 -0.680422 -0.0853968 0.758407 -0.646162 -0.1847 0.705205 -0.684523 
-0.269442 0.677756 -0.68414 0.5512 0.684885 -0.476562 0.650419 0.570337 -0.501669 
0.505264 0.681036 -0.529998 0.273813 0.576012 -0.770219 0.0917616 0.465478 -0.88029 
-0.114012 0.334194 -0.935583 -0.100372 0.392232 -0.914374 -0.0775519 0.369693 -0.925912 
-0.0290856 0.369285 -0.928861 -0.040935 0.416852 -0.908052 -0.114437 0.494348 -0.861699 
-0.39414 0.609342 -0.688008 -0.244464 0.5856 -0.772858 -0.404684 0.599564 -0.690474 
0.670345 0.558214 -0.488912 0.635319 0.555144 -0.536829 -0.135063 0.139493 -0.980969 
-0.0167154 0.175099 -0.984409 0.0420082 0.22121 -0.974321 -0.0510095 0.249048 -0.967147 
-0.174149 0.278023 -0.944656 -0.536881 0.506602 -0.674621 -0.316188 0.39056 -0.864574 
-0.540756 0.501719 -0.675175 0.854878 0.265412 -0.445802 0.600221 0.285495 -0.747146 
-0.270359 0.0317334 -0.962237 0.0653517 0.0599133 -0.996062 -0.323507 0.173563 -0.930171 
-0.711641 0.100552 -0.695311 -0.505541 0.109299 -0.855852 0.881855 0.000334914 -0.47152 
0.462579 -0.0226089 -0.88629 0.0431091 0.0192849 -0.998884 -0.33465 -0.076644 -0.939221 
-0.692843 -0.139126 -0.707539 -0.565034 -0.0832589 -0.820856 0.827776 -0.279597 -0.486428 
0.548374 -0.602508 -0.579888 0.565065 -0.338712 -0.752314 -0.0997498 -0.18496 -0.977671 
-0.15966 -0.18316 -0.970032 -0.313865 -0.314 -0.896043 -0.664277 -0.377802 -0.644982 
-0.638525 -0.416827 -0.646947 -0.623954 -0.363893 -0.691566 0.54658 -0.603815 -0.580222 
0.429303 -0.714816 -0.55203 0.384801 -0.476051 -0.790762 -0.189482 -0.301458 -0.934462 
-0.00992251 -0.264027 -0.964464 0.0807285 -0.332185 -0.939753 0.00576076 -0.351181 -0.93629 
-0.0712467 -0.355947 -0.931786 -0.304111 -0.584863 -0.751965 -0.241656 -0.429069 -0.870346 
-0.494197 -0.510055 -0.703998 -0.437255 -0.56767 -0.697537 -0.419126 -0.485979 -0.766914 
0.394743 -0.723587 -0.566215 0.318047 -0.713469 -0.624346 0.275282 -0.66531 -0.693962 
0.217471 -0.756714 -0.616515 0.169682 -0.568579 -0.804939 0.158506 -0.750633 -0.641425 
0.10493 -0.49053 -0.865084 0.0303866 -0.381501 -0.923869 -0.01178 -0.376186 -0.926469 
-0.0574486 -0.386262 -0.920598 -0.112993 -0.376133 -0.91965 -0.167786 -0.302938 -0.938124 
-0.156623 -0.537893 -0.828336 -0.131365 -0.347391 -0.928473 -0.0759382 -0.552504 -0.830044 
-0.0348217 -0.467093 -0.883522 -0.0871143 -0.618896 -0.780627 -0.0356762 -0.517891 -0.854702 
-0.299883 -0.587546 -0.751571 -0.152309 -0.655347 -0.739813 -0.148033 -0.614004 -0.775297 
0.138873 -0.764924 -0.628972 0.0749476 -0.79391 -0.603398 0.079285 -0.760052 -0.645007 
-0.0162259 -0.810283 -0.585815 -0.0097795 -0.768678 -0.639561 -0.0223587 -0.829211 -0.558488 
-0.024405 -0.801398 -0.597634 -0.00628023 -0.805063 -0.593156 -0.0163329 -0.776042 -0.63047 
-0.121408 -0.652495 -0.748004 -0.0981752 -0.688542 -0.71852 -0.108838 -0.664921 -0.738941 
0.0258649 0.403185 -0.914753 0.0376248 0.342398 -0.938801 0.00188173 0.382278 -0.924046 
-0.0874093 0.384745 -0.918875 0.413413 0.365585 -0.833928 0.217774 0.460015 -0.86079 
0.0688957 0.441818 -0.894455 0.088838 0.459638 -0.883652 0.0231453 0.392834 -0.919318 
0.0344859 0.32028 -0.946695 0.000877701 0.331303 -0.943524 -0.0974695 0.359116 -0.928189 
-0.090672 0.370735 -0.924302 -0.117268 0.292188 -0.949144 -0.109918 0.355731 -0.928102 
0.416536 0.358674 -0.835375 0.408466 0.353047 -0.841732 0.183557 0.3127 -0.931947 
0.00449147 0.279365 -0.960174 -0.0580448 0.218115 -0.974195 0.00845529 0.110029 -0.993892 
0.073632 0.141625 -0.987178 -0.0573692 0.30343 -0.951125 -0.122317 0.218335 -0.968178 
-0.131627 0.190273 -0.972867 -0.117959 0.342215 -0.932188 0.0454115 0.165671 -0.985135 
-0.0473986 0.192759 -0.980101 -0.0969961 0.145657 -0.984569 0.426476 0.194496 -0.88334 
0.298255 0.148399 -0.942879 0.15023 0.0996427 -0.983617 0.0189245 0.0706429 -0.997322 
-0.139667 0.0453401 -0.98916 -0.0627775 -0.00134744 -0.998027 0.202754 0.0703749 -0.976698 
-0.0300591 0.142291 -0.989368 -0.0780927 -0.0472109 -0.995828 -0.269069 0.0409528 -0.96225 
-0.139614 0.183798 -0.972999 -0.276159 -0.00120131 -0.961111 0.0642853 0.0619412 -0.996007 
0.0473229 0.0909826 -0.994727 -0.0379671 0.090636 -0.99516 -0.138075 0.139043 -0.980613 
-0.0846887 0.128587 -0.988075 0.40412 -0.0286226 -0.914258 0.304712 -0.0433218 -0.951459 
0.0941579 -0.0446384 -0.994556 -0.0572155 -0.0475413 -0.997229 -0.137636 -0.0604274 -0.988638 
0.0191174 -0.0141028 -0.999718 0.236326 -0.0355026 -0.971025 -0.201659 -0.0589733 -0.977679 
-0.0595566 -0.0315155 -0.997727 -0.0160621 -0.118685 -0.992802 -0.0969448 0.00352055 -0.995284 
-0.245749 -0.0498568 -0.96805 -0.27819 -0.0183706 -0.960351 0.0464359 0.0153799 -0.998803 
0.048133 -0.0132864 -0.998753 0.0773223 -0.0164192 -0.996871 -0.0117092 -0.0079207 -0.9999 
-0.225861 -0.0558762 -0.972556 -0.139805 -0.127211 -0.981973 -0.111326 -0.0328642 -0.99324 
0.357882 -0.255916 -0.898013 0.326977 -0.313652 -0.891464 0.28325 -0.232813 -0.930359 
0.142174 -0.215401 -0.96612 0.00336568 -0.181458 -0.983393 -0.107984 -0.127737 -0.985912 
-0.032927 -0.0705991 -0.996961 0.1629 -0.18052 -0.969988 -0.0279666 -0.285887 -0.957855 
-0.13577 -0.0349172 -0.990125 -0.122598 -0.225582 -0.966479 -0.188285 -0.350333 -0.917505 
-0.169433 -0.366761 -0.914756 0.00624549 -0.130984 -0.991365 0.0654917 -0.131127 -0.9892 
0.061672 -0.102442 -0.992825 0.0143326 -0.192359 -0.98122 0.0182122 -0.133613 -0.990866 
-0.116533 -0.177576 -0.977183 -0.0535533 -0.212434 -0.975707 -0.0531588 -0.172153 -0.983635 
0.195127 -0.423171 -0.884789 0.169378 -0.431807 -0.88592 0.167445 -0.418454 -0.892669 
0.0933263 -0.428309 -0.8988 0.0525512 -0.372836 -0.926408 0.0383239 -0.360988 -0.931783 
-0.0238482 -0.256822 -0.966165 -9.81939e-05 -0.268317 -0.963331 -0.0193369 -0.179498 -0.983568 
-0.0127935 -0.273857 -0.961685 -0.00786782 -0.198619 -0.980045 -0.0506124 -0.343155 -0.937914 
-0.0422009 -0.337282 -0.940457 -0.148549 -0.269353 -0.951516 -0.140243 -0.270242 -0.952523 
-0.141745 -0.26104 -0.954865 
