# vtk DataFile Version 4.2
vtk output
ASCII
DATASET POLYDATA
POINTS 582 float
-40.8748 -13.0699 -22.2709 -40.8748 -4.83418 -22.247 -32.6391 -37.7769 -14.3505 
-24.4034 -37.7769 -15.8888 -16.1677 -37.7769 -16.2649 -7.93205 -37.7769 -16.915 
0.303638 -37.7769 -16.8122 8.53933 -37.7769 -15.7683 16.775 -37.7769 -14.8913 
25.0107 -37.7769 -14.7087 -49.1105 -29.5413 -14.8374 -40.8748 -29.5413 -18.8228 
-32.6391 -29.5413 -19.5223 -24.4034 -29.5413 -19.9226 -16.1677 -29.5413 -19.5381 
-7.93205 -29.5413 -19.3358 0.303638 -29.5413 -18.8065 8.53933 -29.5413 -17.7116 
16.775 -29.5413 -18.0267 25.0107 -29.5413 -17.7995 33.2464 -29.5413 -18.1744 
41.4821 -29.5413 -16.4755 -49.1105 -21.3056 -19.6131 -40.8748 -15.5295 -21.8736 
-40.8748 -21.3056 -21.0151 -32.6391 -21.3056 -21.3924 -24.4034 -21.3056 -20.8857 
-16.1677 -21.3056 -19.821 -7.93205 -21.3056 -19.3391 0.303638 -21.3056 -18.5523 
8.53933 -21.3056 -17.9061 16.775 -21.3056 -18.3112 25.0107 -21.3056 -18.5507 
33.2464 -21.3056 -19.0274 41.4821 -21.3056 -19.2119 49.7178 -21.3056 -17.1095 
-57.3462 -13.0699 -16.58 -44.4858 -13.0699 -21.8736 -49.1105 -13.0699 -21.3049 
-34.5047 -13.0699 -21.8736 -32.6391 -13.0699 -21.7604 -24.4034 -13.0699 -20.4245 
-16.1677 -13.0699 -18.9898 -7.93205 -13.0699 -18.583 0.303638 -13.0699 -18.366 
8.53933 -13.0699 -18.2359 16.775 -13.0699 -17.1607 25.0107 -13.0699 -18.2048 
33.2464 -13.0699 -19.7761 41.4821 -13.0699 -19.6814 49.7178 -13.0699 -18.8863 
57.9535 -13.0699 -16.8154 -57.3462 -4.83418 -17.0199 -46.5059 -4.83418 -21.8736 
-49.1105 -4.83418 -21.6807 -37.4786 -4.83418 -21.8736 -40.8748 -2.46609 -21.8736 
-32.6391 -4.83418 -21.3516 -24.4034 -4.83418 -19.7789 -16.1677 -4.83418 -17.951 
-7.93205 -4.83418 -20.007 0.303638 -4.83418 -16.4264 8.53933 -4.83418 -20.7191 
16.775 -4.83418 -15.788 25.0107 -4.83418 -17.5308 33.2464 -4.83418 -19.2405 
41.4821 -4.83418 -20.195 49.7178 -4.83418 -20.649 57.9535 -4.83418 -18.454 
-57.3462 3.40151 -16.2381 -49.1105 3.40151 -20.1243 -40.8748 3.40151 -20.9534 
-32.6391 3.40151 -20.4239 -24.4034 3.40151 -18.9737 -16.1677 3.40151 -18.5714 
-7.93205 3.40151 -21.6596 0.303638 3.40151 -14.8109 8.53933 3.40151 -20.7919 
16.775 3.40151 -16.1799 25.0107 3.40151 -17.4234 33.2464 3.40151 -19.5313 
41.4821 3.40151 -20.4425 49.7178 3.40151 -20.7308 57.9535 3.40151 -18.7613 
-57.3462 11.6372 -14.3099 -49.1105 11.6372 -17.7399 -40.8748 11.6372 -19.3971 
-32.6391 11.6372 -19.6431 -24.4034 11.6372 -18.9038 -16.1677 11.6372 -18.6523 
-7.93205 11.6372 -18.667 0.303638 11.6372 -17.4808 8.53933 11.6372 -19.019 
16.775 11.6372 -16.7388 25.0107 11.6372 -18.2343 33.2464 11.6372 -19.7752 
41.4821 11.6372 -20.1362 49.7178 11.6372 -19.9654 57.9535 11.6372 -18.8491 
66.1892 11.6372 -13.7607 -49.1105 19.8729 -15.8192 -40.8748 19.8729 -18.8283 
-32.6391 19.8729 -19.4619 -24.4034 19.8729 -19.8141 -16.1677 19.8729 -19.2756 
-7.93205 19.8729 -17.7376 0.303638 19.8729 -16.3652 8.53933 19.8729 -16.5318 
16.775 19.8729 -16.6659 25.0107 19.8729 -17.5149 33.2464 19.8729 -18.532 
41.4821 19.8729 -19.6582 49.7178 19.8729 -17.9222 57.9535 19.8729 -15.6457 
-40.8748 28.1086 -16.179 -32.6391 28.1086 -18.7403 -24.4034 28.1086 -19.9557 
-16.1677 28.1086 -18.76 -7.93205 28.1086 -17.2122 0.303638 28.1086 -15.9603 
8.53933 28.1086 -15.8124 16.775 28.1086 -15.6601 25.0107 28.1086 -15.9802 
33.2464 28.1086 -16.6975 41.4821 28.1086 -16.8144 49.7178 28.1086 -14.8131 
-32.6391 36.3443 -16.8588 -24.4034 36.3443 -17.9587 -16.1677 36.3443 -17.1302 
-7.93205 36.3443 -15.6882 0.303638 36.3443 -14.3227 -32.6391 -38.4601 -13.6379 
-24.4034 -39.8849 -13.6379 -16.1677 -40.7774 -13.6379 -7.93205 -41.7632 -13.6379 
0.303638 -41.9685 -13.6379 0.303638 -46.0126 -5.75705 8.53933 -40.7169 -13.6379 
16.775 -39.2194 -13.6379 25.0107 -39.0117 -13.6379 -49.1105 -30.9719 -13.6379 
-35.0508 -37.7769 -13.6379 -40.8748 -35.9642 -13.6379 -40.8748 -37.7769 -10.7495 
31.4999 -37.7769 -13.6379 33.2464 -37.2706 -13.6379 33.2464 -37.7769 -13.1594 
41.4821 -33.7277 -13.6379 41.4821 -37.7769 -6.8957 -50.6964 -29.5413 -13.6379 
48.2132 -29.5413 -13.6379 49.7178 -28.3032 -13.6379 49.7178 -29.5413 -12.4098 
-57.1007 -21.3056 -13.6379 -57.3462 -20.7714 -13.6379 -57.3462 -21.3056 -13.2235 
56.9796 -21.3056 -13.6379 57.9535 -19.9662 -13.6379 57.9535 -21.3056 -12.7338 
-60.2872 -13.0699 -13.6379 62.4315 -13.0699 -13.6379 66.1892 -13.0699 -8.83241 
-61.1779 -4.83418 -13.6379 65.7505 -4.83418 -13.6379 66.1892 -4.83418 -13.1873 
-59.848 3.40151 -13.6379 66.1349 3.40151 -13.6379 66.1892 5.47927 -13.6379 
66.1892 3.40151 -13.5824 -58.0007 11.6372 -13.6379 -57.3462 13.1985 -13.6379 
66.3193 11.6372 -13.6379 66.1892 11.9754 -13.6379 -53.3235 19.8729 -13.6379 
-57.3462 19.8729 -9.70457 -49.1105 25.0498 -13.6379 61.0517 19.8729 -13.6379 
57.9535 24.2777 -13.6379 66.1892 19.8729 -7.92123 -46.2422 28.1086 -13.6379 
-49.1105 28.1086 -11.8244 -40.8748 34.5518 -13.6379 8.53933 35.6736 -13.6379 
16.775 33.9729 -13.6379 25.0107 35.2758 -13.6379 33.2464 34.0825 -13.6379 
41.4821 33.2629 -13.6379 52.8715 28.1086 -13.6379 49.7178 29.7987 -13.6379 
57.9535 28.1086 -10.4754 -49.1105 36.3443 -6.17307 -39.4348 36.3443 -13.6379 
-40.8748 36.3443 -12.6293 -32.6391 40.7089 -13.6379 -24.4034 42.118 -13.6379 
-16.1677 42.4042 -13.6379 -7.93205 39.8541 -13.6379 6.66062 36.3443 -13.6379 
0.303638 37.5296 -13.6379 8.53933 36.3443 -13.4058 16.775 36.3443 -12.6923 
25.0107 36.3443 -13.1822 33.2464 36.3443 -12.2344 41.4821 36.3443 -10.1728 
49.7178 36.3443 -5.79618 -32.6391 44.58 -8.37707 -24.4034 44.58 -10.4565 
-16.1677 44.58 -10.7249 -7.93205 44.58 -8.53442 0.303638 44.58 -6.57636 
0.303638 -46.139 -5.40226 -40.8748 -40.5152 -5.40226 -32.6391 -42.1643 -5.40226 
-24.4034 -43.5972 -5.40226 -16.1677 -44.6856 -5.40226 -1.66177 -46.0126 -5.40226 
-7.93205 -45.5771 -5.40226 2.82132 -46.0126 -5.40226 0.303638 -46.0126 -2.85194 
8.53933 -45.6985 -5.40226 16.775 -44.7809 -5.40226 25.0107 -43.5766 -5.40226 
33.2464 -41.7037 -5.40226 41.4821 -38.4313 -5.40226 -45.5383 -37.7769 -5.40226 
-49.1105 -35.5105 -5.40226 42.7851 -37.7769 -5.40226 49.7178 -33.8901 -5.40226 
-55.4645 -29.5413 -5.40226 -57.3462 -26.9438 -5.40226 55.1976 -29.5413 -5.40226 
57.9535 -26.9201 -5.40226 -60.7138 -21.3056 -5.40226 63.324 -21.3056 -5.40226 
66.1892 -16.4974 -5.40226 -63.8702 -13.0699 -5.40226 67.7847 -13.0699 -5.40226 
-65.1799 -4.83418 -5.40226 70.9796 -4.83418 -5.40226 -65.0406 3.40151 -5.40226 
-65.5819 3.40151 -0.588107 71.5443 3.40151 -5.40226 -63.6671 11.6372 -5.40226 
70.2569 11.6372 -5.40226 -59.9851 19.8729 -5.40226 -57.3462 25.5178 -5.40226 
67.3621 19.8729 -5.40226 66.1892 21.6462 -5.40226 -55.8111 28.1086 -5.40226 
-57.3462 28.1086 0.493269 60.785 28.1086 -5.40226 57.9535 30.8736 -5.40226 
-49.586 36.3443 -5.40226 -49.1105 36.8079 -5.40226 -40.8748 42.938 -5.40226 
8.53933 44.5598 -5.40226 16.775 43.6276 -5.40226 25.0107 43.1368 -5.40226 
33.2464 41.6838 -5.40226 41.4821 39.5013 -5.40226 50.0196 36.3443 -5.40226 
49.7178 36.531 -5.40226 49.7178 36.3443 -3.19233 -37.3347 44.58 -5.40226 
-32.6391 46.1534 -5.40226 -24.4034 47.121 -5.40226 -16.1677 46.8676 -5.40226 
-7.93205 46.3327 -5.40226 8.33632 44.58 -5.40226 0.303638 45.2844 -5.40226 
8.53933 44.58 -4.99123 -40.8748 -40.5322 2.83344 -32.6391 -42.1792 2.83344 
-24.4034 -43.0162 2.83344 -16.1677 -43.9714 2.83344 -7.93205 -44.8688 2.83344 
0.303638 -45.7203 2.83344 8.53933 -45.5765 2.83344 16.775 -44.6526 2.83344 
25.0107 -43.389 2.83344 33.2464 -41.188 2.83344 41.4821 -37.7843 2.83344 
-45.6004 -37.7769 2.83344 -49.1105 -35.5254 2.83344 -40.8748 -37.7769 10.7232 
33.2464 -37.7769 10.2261 41.4954 -37.7769 2.83344 41.4821 -37.7769 2.85 
49.7178 -32.5319 2.83344 -55.3365 -29.5413 2.83344 -57.3462 -26.7148 2.83344 
53.5985 -29.5413 2.83344 49.7178 -29.5413 7.77502 57.9535 -25.4875 2.83344 
-60.4864 -21.3056 2.83344 61.9841 -21.3056 2.83344 57.9535 -21.3056 8.17984 
66.1892 -14.4848 2.83344 -64.1644 -13.0699 2.83344 66.8576 -13.0699 2.83344 
66.1892 -13.0699 4.01827 -65.288 -4.83418 2.83344 -65.5819 -1.0994 2.83344 
70.2146 -4.83418 2.83344 66.1892 -4.83418 9.55408 -65.9361 3.40151 2.83344 
-65.5819 7.30103 2.83344 -65.5819 3.40151 4.45904 70.608 3.40151 2.83344 
66.1892 3.40151 10.3262 -65.1802 11.6372 2.83344 69.2593 11.6372 2.83344 
66.1892 11.6372 7.75766 -62.2263 19.8729 2.83344 66.339 19.8729 2.83344 
66.1892 20.1 2.83344 66.1892 19.8729 3.07918 -57.8368 28.1086 2.83344 
-57.3462 28.752 2.83344 -57.3462 28.1086 4.65609 49.7178 35.8237 2.83344 
59.5182 28.1086 2.83344 57.9535 29.7032 2.83344 57.9535 28.1086 4.86437 
-50.7521 36.3443 2.83344 -49.1105 37.7629 2.83344 -49.1105 36.3443 6.42417 
-40.8748 42.9451 2.83344 16.775 44.2733 2.83344 25.0107 43.4981 2.83344 
33.2464 41.9296 2.83344 33.2464 36.3443 11.0561 48.7384 36.3443 2.83344 
41.4821 39.7582 2.83344 41.4821 36.3443 9.33911 -36.1467 44.58 2.83344 
-32.6391 45.7393 2.83344 -32.6391 44.58 5.24478 -24.4034 46.4237 2.83344 
-24.4034 44.58 6.55987 -16.1677 46.3232 2.83344 -16.1677 44.58 6.14223 
-7.93205 45.8547 2.83344 -7.93205 44.58 5.18816 0.303638 45.2758 2.83344 
0.303638 44.58 4.26211 12.8629 44.58 2.83344 8.53933 44.9013 2.83344 
8.53933 44.58 3.53794 -32.6391 -39.527 11.0691 -24.4034 -40.4361 11.0691 
-16.1677 -41.4498 11.0691 -7.93205 -42.2978 11.0691 0.303638 -43.3293 11.0691 
8.53933 -43.4238 11.0691 16.775 -42.4343 11.0691 25.0107 -40.2617 11.0691 
-49.1105 -32.0178 11.0691 -40.3601 -37.7769 11.0691 -40.8748 -37.6309 11.0691 
-32.6391 -37.7769 13.5144 -24.4034 -37.7769 14.9743 -16.1677 -37.7769 15.5055 
-7.93205 -37.7769 16.2891 0.303638 -37.7769 17.0589 8.53933 -37.7769 17.0983 
16.775 -37.7769 16.1721 32.0135 -37.7769 11.0691 25.0107 -37.7769 14.1482 
33.2464 -37.2452 11.0691 41.4821 -32.3714 11.0691 -51.6255 -29.5413 11.0691 
-57.3462 -21.8238 11.0691 -49.1105 -29.5413 13.8279 -40.8748 -29.5413 18.6348 
25.0107 -29.5413 19.0036 33.2464 -29.5413 17.5529 45.8015 -29.5413 11.0691 
41.4821 -29.5413 13.2858 49.7178 -26.3694 11.0691 -57.6475 -21.3056 11.0691 
[...]
POINT_DATA 582
SCALARS ImageScalars float
LOOKUP_TABLE default
0 0 0 0 0 0 0 0 0 
0 0 0 0 0 0 0 0 0 
0 0 0 0 0 0 0 0 0 
0 0 0 0 0 0 0 0 0 
0 0 0 0 0 0 0 0 0 
0 0 0 0 0 0 0 0 0 
0 0 0 0 0 0 0 0 0 
0 0 0 0 0 0 0 0 0 
0 0 0 0 0 0 0 0 0 
0 0 0 0 0 0 0 0 0 
0 0 0 0 0 0 0 0 0 
0 0 0 0 0 0 0 0 0 
0 0 0 0 0 0 0 0 0 
0 0 0 0 0 0 0 0 0 
0 0 0 0 0 0 0 0 0 
0 0 0 0 0 0 0 0 0 
0 0 0 0 0 0 0 0 0 
0 0 0 0 0 0 0 0 0 
0 0 0 0 0 0 0 0 0 
0 0 0 0 0 0 0 0 0 
0 0 0 0 0 0 0 0 0 
0 0 0 0 0 0 0 0 0 
0 0 0 0 0 0 0 0 0 
0 0 0 0 0 0 0 0 0 
0 0 0 0 0 0 0 0 0 
0 0 0 0 0 0 0 0 0 
0 0 0 0 0 0 0 0 0 
0 0 0 0 0 0 0 0 0 
0 0 0 0 0 0 0 0 0 
0 0 0 0 0 0 0 0 0 
0 0 0 0 0 0 0 0 0 
0 0 0 0 0 0 0 0 0 
0 0 0 0 0 0 0 0 0 
0 0 0 0 0 0 0 0 0 
0 0 0 0 0 0 0 0 0 
0 0 0 0 0 0 0 0 0 
0 0 0 0 0 0 0 0 0 
0 0 0 0 0 0 0 0 0 
0 0 0 0 0 0 0 0 0 
0 0 0 0 0 0 0 0 0 
0 0 0 0 0 0 0 0 0 
0 0 0 0 0 0 0 0 0 
0 0 0 0 0 0 0 0 0 
0 0 0 0 0 0 0 0 0 
0 0 0 0 0 0 0 0 0 
0 0 0 0 0 0 0 0 0 
0 0 0 0 0 0 0 0 0 
0 0 0 0 0 0 0 0 0 
0 0 0 0 0 0 0 0 0 
0 0 0 0 0 0 0 0 0 
0 0 0 0 0 0 0 0 0 
0 0 0 0 0 0 0 0 0 
0 0 0 0 0 0 0 0 0 
0 0 0 0 0 0 0 0 0 
0 0 0 0 0 0 0 0 0 
0 0 0 0 0 0 0 0 0 
0 0 0 0 0 0 0 0 0 
0 0 0 0 0 0 0 0 0 
0 0 0 0 0 0 0 0 0 
0 0 0 0 0 0 0 0 0 
0 0 0 0 0 0 0 0 0 
0 0 0 0 0 0 0 0 0 
0 0 0 0 0 0 0 0 0 
0 0 0 0 0 0 0 0 0 
0 0 0 0 0 0 
NORMALS Normals float
0.0257691 0.0788506 0.996553 -0.0189953 -0.08012 0.996604 0.190209 0.734163 0.651786 
0.0976709 0.665337 0.740127 0.0572787 0.593756 0.802604 0.030593 0.508918 0.860271 
-0.070133 0.456687 0.886859 -0.107952 0.456077 0.883369 -0.065593 0.56673 0.821288 
-0.0868623 0.596147 0.798163 0.496178 0.572797 0.652465 0.23259 0.449557 0.862439 
0.0595628 0.354762 0.933057 -0.000404561 0.259947 0.965623 -0.0325483 0.184511 0.982291 
-0.0449428 0.13607 0.989679 -0.0992091 0.100796 0.989948 -0.0461528 0.122953 0.991339 
0.00574383 0.174153 0.984702 0.00630166 0.213008 0.97703 -0.0798594 0.307815 0.948089 
-0.251961 0.432317 0.865805 0.342847 0.327296 0.88053 0.0441268 0.110984 0.992842 
0.0975932 0.186444 0.977606 -0.00600661 0.13083 0.991387 -0.0974813 0.0257179 0.994905 
-0.0922448 -0.0320389 0.995221 -0.0775423 -0.0460628 0.995924 -0.0871874 -0.0267583 0.995833 
-0.0141219 0.030073 0.999448 0.0392789 -0.0533754 0.997802 0.0432 0.0233911 0.998793 
0.0396892 0.0906349 0.995093 -0.122733 0.198618 0.972362 -0.30248 0.289656 0.908078 
0.647244 0.152284 0.746917 0.138449 0.0938739 0.985911 0.283742 0.110226 0.952544 
-0.0806794 0.0169322 0.996596 -0.110012 -0.00118926 0.99393 -0.166203 -0.0659263 0.983885 
-0.110376 -0.112616 0.987489 -0.037871 0.0365458 0.998614 -0.020288 -0.10444 0.994324 
-0.0786325 0.124351 0.989118 0.00311001 -0.146893 0.989147 0.159564 -0.0579988 0.985482 
0.0901794 0.0125688 0.995846 -0.0517922 0.0575227 0.997 -0.145428 0.213692 0.966016 
-0.417353 0.287555 0.862049 0.601532 -0.0113496 0.798768 0.179458 -0.0680944 0.981406 
0.267319 -0.0619754 0.961613 -0.0742259 -0.0800492 0.994023 -0.0135105 -0.106264 0.994246 
-0.146124 -0.0800378 0.986023 -0.207086 -0.0878916 0.974367 0.00763128 -0.0316537 0.99947 
-0.0525396 0.174699 0.983219 -0.0501327 -0.243298 0.968655 -0.0660764 0.172372 0.982813 
-0.105167 -0.068892 0.992065 0.20291 -0.0490058 0.97797 0.150402 -0.0148424 0.988514 
0.0831602 0.0455825 0.995493 -0.110938 0.109302 0.987799 -0.359374 0.0923205 0.928616 
0.610543 -0.130552 0.781149 0.224853 -0.225146 0.948025 0.0126742 -0.169995 0.985363 
-0.118075 -0.1026 0.98769 -0.108629 -0.0526004 0.99269 0.129074 0.0474215 0.9905 
-0.166413 -0.0773325 0.983019 -0.0872649 0.0956141 0.991586 0.0292345 -0.112313 0.993243 
-0.125242 0.0608218 0.99026 0.19592 0.0436643 0.979647 0.181149 0.0307963 0.982973 
0.0714721 -0.00354678 0.997436 -0.112941 -0.0405965 0.992772 -0.337816 0.0223539 0.940947 
0.613569 -0.267049 0.743114 0.254325 -0.25132 0.933894 0.104076 -0.123527 0.986868 
-0.0301763 -0.0579583 0.997863 -0.0603565 0.0520258 0.99682 -0.0148798 0.0431005 0.99896 
-0.0718902 -0.204936 0.976132 0.0186432 0.0559923 0.998257 -0.0560826 -0.240468 0.969036 
-0.0319151 0.0257957 0.999158 0.177858 0.00546532 0.984041 0.119372 -0.062034 0.99091 
0.0101504 -0.0457166 0.998903 -0.0653686 -0.166346 0.983898 -0.343062 -0.144281 0.928165 
-0.689999 -0.159631 0.705989 0.392354 -0.27339 0.878246 0.211861 -0.179482 0.960678 
0.0568324 -0.0573958 0.996733 -0.011574 0.0633515 0.997924 -0.119999 0.00503033 0.992761 
-0.179158 -0.0830522 0.980309 -0.0681045 -0.0868536 0.99389 0.0180409 -0.175796 0.984261 
0.0594417 -0.0632004 0.996229 0.110194 -0.131678 0.985149 0.125266 -0.16501 0.978305 
-0.0310503 -0.209391 0.977339 -0.20628 -0.253594 0.94506 -0.418571 -0.373672 0.827748 
0.344338 -0.288868 0.893301 0.205928 -0.146113 0.967597 0.00578704 -0.0988251 0.995088 
-0.16074 -0.127972 0.978665 -0.169113 -0.122702 0.977929 -0.0827217 -0.120122 0.989307 
-0.0175228 -0.166465 0.985892 0.00959144 -0.218293 0.975836 0.0565869 -0.253763 0.96561 
0.0524927 -0.3139 0.948004 -0.0774601 -0.414228 0.906871 -0.309771 -0.491999 0.813621 
0.243838 -0.430401 0.869079 0.0128065 -0.419373 0.907723 -0.131579 -0.353214 0.926243 
-0.166569 -0.356028 0.91951 -0.130167 -0.375241 0.917742 0.187744 0.762232 0.619479 
0.118154 0.772136 0.624376 0.0961501 0.740597 0.665035 0.0596951 0.730678 0.680107 
-0.0468644 0.696939 0.715597 0.00570951 0.984855 0.173283 -0.125966 0.622321 0.77256 
-0.0790267 0.637826 0.766115 -0.0842675 0.661103 0.745548 0.509228 0.619908 0.596993 
0.227136 0.747295 0.624467 0.312062 0.708159 0.633347 0.34536 0.806269 0.480267 
-0.201577 0.637189 0.743879 -0.224135 0.625803 0.747084 -0.23854 0.664718 0.707989 
-0.315609 0.638258 0.702152 -0.423517 0.876459 0.229024 0.546672 0.58771 0.596446 
-0.430667 0.576247 0.694597 -0.447622 0.558351 0.698484 -0.494415 0.634168 0.594461 
0.746964 0.391801 0.537156 0.751137 0.380197 0.539669 0.761339 0.396794 0.512755 
-0.546252 0.432483 0.717333 -0.555515 0.42891 0.712348 -0.599468 0.474387 0.644666 
0.770642 0.20134 0.604626 -0.602806 0.332097 0.72549 -0.846076 0.386186 0.367445 
0.761124 -0.0146783 0.64844 -0.679827 0.126709 0.722344 -0.711518 0.130502 0.690443 
0.712309 -0.152224 0.68516 -0.701527 0.0231656 0.712266 -0.702742 -0.0210573 0.711133 
-0.705294 0.0231335 0.708537 0.645239 -0.263647 0.717047 0.633841 -0.284132 0.719385 
-0.696084 -0.160169 0.699867 -0.692047 -0.170878 0.701336 0.530758 -0.332333 0.779647 
0.73928 -0.379181 0.556496 0.470968 -0.343725 0.81243 -0.540315 -0.397605 0.7416 
-0.475668 -0.468777 0.744304 -0.814515 -0.484489 0.319117 0.464935 -0.350515 0.813004 
0.558366 -0.411655 0.720255 0.433429 -0.43657 0.788382 -0.0861967 -0.425233 0.90097 
-0.0054058 -0.406007 0.913854 -0.00598756 -0.437591 0.899154 -0.0621002 -0.521143 0.851207 
-0.130121 -0.628225 0.767074 -0.396761 -0.523581 0.753952 -0.327505 -0.549734 0.768461 
-0.582687 -0.63569 0.506334 0.670577 -0.660737 0.337273 0.416123 -0.481398 0.771426 
0.464143 -0.51235 0.722543 0.23466 -0.644149 0.728016 0.0727203 -0.677918 0.731532 
-0.0835458 -0.668443 0.739057 -0.173488 -0.516833 0.838323 -0.102294 -0.431665 0.896215 
-0.136405 -0.427236 0.893791 -0.0927809 -0.455038 0.885625 -0.0155552 -0.509027 0.86061 
-0.0170159 -0.484229 0.874776 -0.133859 -0.646491 0.751087 -0.214707 -0.80681 0.550416 
-0.453432 -0.867212 0.205776 0.22294 -0.895711 0.384707 0.0753738 -0.863707 0.498326 
-0.0680924 -0.859925 0.505858 -0.133823 -0.888343 0.439247 -0.114481 -0.92305 0.367252 
0.00661504 0.987861 0.155203 0.362298 0.909582 0.20347 0.170039 0.969151 0.178418 
0.147293 0.977735 0.149461 0.118649 0.98264 0.142623 0.0255117 0.988348 0.150055 
0.0878468 0.98676 0.136334 -0.0181718 0.985664 0.167737 0.0180604 0.997846 0.063061 
-0.0774309 0.976571 0.200783 -0.1237 0.965343 0.229809 -0.192662 0.959012 0.207792 
-0.281165 0.947683 0.151139 -0.427329 0.89052 0.156091 0.485083 0.853523 0.190244 
0.574949 0.798682 0.177595 -0.451239 0.879867 0.149058 -0.570945 0.810348 0.13175 
0.749946 0.640194 0.166533 0.80951 0.56518 0.158949 -0.662931 0.738105 0.125392 
-0.702805 0.699528 0.12933 0.891707 0.424391 0.157324 -0.784643 0.598959 0.159952 
-0.86277 0.482337 0.151587 0.949467 0.250532 0.189069 -0.899343 0.409557 0.153119 
0.978971 0.0691339 0.19193 -0.960222 0.209887 0.184175 0.955585 -0.0785583 0.284052 
0.996135 -0.034459 0.0807929 -0.981945 -0.0405926 0.184759 0.899924 -0.268237 0.343782 
-0.955971 -0.253348 0.1481 0.839502 -0.386856 0.381547 0.790396 -0.477892 0.383267 
-0.865443 -0.475224 0.15865 -0.833725 -0.529164 0.157758 0.756083 -0.519224 0.398429 
0.819522 -0.566327 0.0875123 -0.700536 -0.698229 0.147396 -0.642088 -0.751535 0.151388 
0.681047 -0.666952 0.30224 0.671472 -0.678501 0.297929 0.495372 -0.832718 0.247359 
-0.0938409 -0.938367 0.332659 -0.0776834 -0.926774 0.367499 -0.113929 -0.9456 0.304729 
-0.200875 -0.94087 0.272786 -0.292287 -0.9117 0.288741 -0.462805 -0.868255 0.178729 
-0.456279 -0.871449 0.17996 -0.474244 -0.879039 0.0488234 0.377782 -0.899599 0.219094 
0.226127 -0.949093 0.219295 0.0415505 -0.983001 0.178837 -0.0475811 -0.984768 0.167237 
-0.0963094 -0.968949 0.227731 -0.0941627 -0.93883 0.331258 -0.108334 -0.951026 0.289505 
-0.0926912 -0.947467 0.306128 0.357712 0.922294 -0.14634 0.138018 0.979843 -0.144428 
0.10626 0.97884 -0.174875 0.109848 0.97946 -0.169088 0.107154 0.97774 -0.180397 
0.0420567 0.987824 -0.149782 -0.0636773 0.990909 -0.118513 -0.128973 0.984401 -0.119673 
-0.206371 0.962732 -0.174811 -0.312773 0.923877 -0.220509 -0.450454 0.860782 -0.236952 
0.491839 0.85934 -0.140104 0.591885 0.79316 -0.143417 0.351478 0.811561 -0.466724 
-0.332012 0.774913 -0.537846 -0.450691 0.860636 -0.237032 -0.450542 0.86055 -0.237624 
-0.568125 0.767746 -0.296311 0.749515 0.642315 -0.160186 0.814577 0.558424 -0.156931 
-0.617464 0.728948 -0.295589 -0.53973 0.682139 -0.493334 -0.677031 0.670178 -0.304123 
0.890744 0.426685 -0.156575 -0.739609 0.59833 -0.308187 -0.616985 0.564855 -0.547967 
-0.845621 0.44139 -0.300165 0.952392 0.278358 -0.124367 -0.862115 0.412624 -0.294107 
-0.843583 0.412892 -0.343348 0.987517 0.0992625 -0.122299 0.99446 0.0508637 -0.0919874 
-0.929398 0.203084 -0.308182 -0.769725 0.193656 -0.608293 0.998406 -0.00606012 -0.0561176 
0.993514 -0.103586 -0.0468954 0.992343 -0.00232015 -0.12349 -0.948199 -0.0518716 -0.313412 
-0.755672 -0.0619266 -0.652016 0.976792 -0.211384 -0.0345686 -0.917527 -0.255409 -0.304813 
-0.795593 -0.278156 -0.538202 0.921925 -0.386983 0.0173037 -0.827175 -0.454876 -0.329954 
-0.823795 -0.461503 -0.329206 -0.823459 -0.453926 -0.340393 0.822992 -0.56763 -0.0219362 
0.814904 -0.579075 -0.0245587 0.805267 -0.581667 -0.11493 -0.483543 -0.827271 -0.286023 
-0.685743 -0.659387 -0.308165 -0.660502 -0.688938 -0.298499 -0.65235 -0.630386 -0.420777 
0.665137 -0.740535 -0.0959179 0.625328 -0.772302 -0.111871 0.59231 -0.760056 -0.267366 
0.408127 -0.896934 -0.170124 -0.0820528 -0.979362 -0.18471 -0.138148 -0.966273 -0.217326 
-0.219221 -0.948545 -0.228483 -0.139678 -0.674693 -0.724761 -0.466635 -0.839449 -0.278527 
-0.333758 -0.916494 -0.220555 -0.303805 -0.739174 -0.601103 0.291843 -0.930999 -0.219246 
0.202676 -0.94595 -0.253183 0.178805 -0.912628 -0.367612 0.0337028 -0.96039 -0.276614 
0.0240146 -0.89234 -0.450724 -0.0341004 -0.959688 -0.278991 -0.0446576 -0.897339 -0.439077 
-0.0634172 -0.956294 -0.285446 -0.058839 -0.915856 -0.397173 -0.0575591 -0.969483 -0.238307 
-0.0510211 -0.94995 -0.308206 -0.0711953 -0.978305 -0.194554 -0.0598599 -0.976484 -0.207112 
-0.057734 -0.968338 -0.242874 0.14648 0.871844 -0.467366 0.104757 0.884287 -0.455042 
0.105499 0.866268 -0.488313 0.103297 0.860223 -0.499346 0.062551 0.874252 -0.481425 
-0.0475158 0.881116 -0.470507 -0.171232 0.862853 -0.475567 -0.262431 0.81455 -0.517338 
0.579401 0.667423 -0.467804 0.337104 0.809706 -0.480351 0.350491 0.802918 -0.48216 
0.157877 0.810365 -0.564254 0.0830687 0.767012 -0.636233 0.0600072 0.701167 -0.710467 
0.0758218 0.643283 -0.761865 0.0403979 0.580542 -0.813228 -0.044324 0.574117 -0.817572 
-0.139943 0.622961 -0.769634 -0.322108 0.759581 -0.565052 -0.255266 0.70335 -0.663429 
-0.334128 0.744208 -0.578371 -0.43221 0.626275 -0.648825 0.633637 0.610772 -0.474828 
0.773114 0.434585 -0.461986 0.558562 0.5847 -0.588333 0.26051 0.451771 -0.853251 
-0.127621 0.274414 -0.953106 -0.284954 0.398189 -0.871921 -0.467787 0.598061 -0.650767 
-0.410327 0.541744 -0.733584 -0.493605 0.575975 -0.651618 0.779406 0.424211 -0.461054 
0.769916 0.423363 -0.477486 0.424557 0.315416 -0.848684 -0.238519 0.335588 -0.911312 
-0.531356 0.510551 -0.676017 -0.439519 0.437405 -0.784538 -0.577762 0.449911 -0.681008 
0.835966 0.28011 -0.471911 0.674523 0.246354 -0.695938 -0.317404 0.234281 -0.918895 
-0.639924 0.365514 -0.675941 -0.545612 0.350181 -0.761368 0.873026 0.133668 -0.468998 
0.649078 0.0957207 -0.754676 -0.0947048 -0.0143277 -0.995402 -0.706848 0.180991 -0.683819 
-0.479036 0.146154 -0.865542 0.898691 0.0132552 -0.438381 0.557964 0.00265986 -0.829861 
0.0585283 -0.0587803 -0.996554 -0.0313299 -0.0612607 -0.99763 -0.095203 -0.0231974 -0.995188 
-0.72025 -0.0623407 -0.690908 -0.464215 -0.0709018 -0.88288 0.873231 -0.188658 -0.449307 
0.617142 -0.135155 -0.775157 -0.034359 -0.0453869 -0.998378 -0.0705746 0.037681 -0.996795 
-0.00485507 -0.20086 -0.979608 0.0335471 -0.0774064 -0.996435 0.0792679 -0.0787769 -0.993736 
-0.265484 -0.154295 -0.951689 -0.648217 -0.254397 -0.717702 -0.467415 -0.224075 -0.855169 
0.82755 -0.374835 -0.417924 0.731863 -0.517587 -0.443262 0.682593 -0.357504 -0.637384 
-0.113444 -0.0800328 -0.990316 -0.028343 -0.171133 -0.98484 -0.0038498 -0.105211 -0.994442 
-0.00116513 -0.112899 -0.993606 0.0317193 -0.102684 -0.994208 0.0363473 -0.15582 -0.987117 
-0.0187032 -0.209207 -0.977692 -0.0941026 -0.303498 -0.948174 -0.308881 -0.307628 -0.899976 
-0.571159 -0.391902 -0.721242 -0.534565 -0.425163 -0.730395 -0.509953 -0.395433 -0.763924 
0.658201 -0.587694 -0.470519 0.516124 -0.696689 -0.498238 0.434965 -0.483903 -0.75937 
0.0810456 -0.365358 -0.927332 -0.0371024 -0.313078 -0.949002 -0.066448 -0.275191 -0.959091 
-0.0798184 -0.220464 -0.972124 -0.0401009 -0.215872 -0.975598 -0.00684572 -0.232342 -0.97261 
-0.00395634 -0.219347 -0.975639 -0.00990076 -0.24676 -0.969026 -0.0314418 -0.317951 -0.947586 
-0.139542 -0.673799 -0.725619 -0.11395 -0.360524 -0.925763 -0.262137 -0.638789 -0.723348 
-0.186447 -0.437991 -0.879432 -0.449953 -0.520235 -0.725878 -0.393711 -0.600235 -0.69621 
-0.388562 -0.509929 -0.767458 0.398758 -0.724007 -0.562855 0.306164 -0.729183 -0.612009 
0.25751 -0.671547 -0.694775 0.112931 -0.728911 -0.67523 0.0722586 -0.585925 -0.807137 
-0.00228456 -0.706348 -0.707861 -0.0294876 -0.518151 -0.85478 -0.0582913 -0.667462 -0.742359 
-0.0536477 -0.488832 -0.870727 -0.0327525 -0.662656 -0.748207 -0.0275273 -0.504442 -0.863006 
-0.0151554 -0.669609 -0.742559 -0.00831922 -0.50926 -0.860573 -0.0223869 -0.68096 -0.731979 
-0.0163675 -0.528541 -0.84875 -0.0653373 -0.680282 -0.730032 -0.0651777 -0.537573 -0.840694 
-0.13948 -0.673841 -0.725592 -0.131978 -0.666223 -0.733982 -0.117014 -0.598405 -0.792603 
0.122574 0.424843 -0.89693 0.0336071 0.452607 -0.891076 -0.0110262 0.38123 -0.924415 
0.0257954 0.351167 -0.935958 0.0133593 0.300435 -0.953709 -0.0378802 0.286931 -0.957202 
-0.0854311 0.260138 -0.961785 0.187171 0.411414 -0.892024 0.230331 0.391298 -0.890973 
0.112996 0.37352 -0.920714 0.0147643 0.337087 -0.941358 -0.0182528 0.300623 -0.953568 
0.00542222 0.248445 -0.968631 0.00035425 0.159905 -0.987132 -0.0316019 0.144714 -0.988969 
-0.107818 0.24556 -0.963367 -0.0778918 0.201269 -0.976434 -0.106698 0.209082 -0.97206 
-0.140674 0.158113 -0.977349 0.389211 0.302478 -0.87007 0.405778 0.296222 -0.864637 
0.158189 0.232325 -0.959688 0.0669277 0.150035 -0.986413 -0.0106636 0.0787946 -0.996834 
-0.0757329 0.0628667 -0.995144 -0.0814465 0.0896979 -0.992633 -0.0690678 -0.00193184 -0.99761 
-0.000936423 -0.0568509 -0.998382 0.00545943 -0.0258208 -0.999652 -0.0571769 0.0469287 -0.997261 
-0.137715 0.155153 -0.978244 -0.131588 0.143508 -0.980862 -0.154498 0.191358 -0.969284 
0.449458 0.209117 -0.86848 0.317235 0.178297 -0.931436 0.110831 0.121563 -0.986377 
-0.0528363 0.0539494 -0.997145 -0.0798701 -0.0921012 -0.992541 -0.000915029 -0.111603 -0.993752 
-0.0600579 0.0788688 -0.995074 -0.154019 -0.0335006 -0.9875 -0.051861 0.0800108 -0.995444 
-0.00782092 -0.0663147 -0.997768 0.0241765 -0.0844324 -0.996136 0.0419797 -0.0192614 -0.998933 
-0.0106765 0.0694057 -0.997531 -0.168409 0.170809 -0.970805 -0.137827 0.159683 -0.977499 
-0.2448 0.120821 -0.962016 0.524392 0.0673885 -0.848806 0.28644 0.0429973 -0.957133 
0.0444622 -0.00134321 -0.99901 -0.142018 -0.00563316 -0.989848 -0.183384 -0.0624191 -0.981058 
0.0686965 -0.0736399 -0.994916 0.104259 -0.128561 -0.986206 0.00796712 0.00103909 -0.999968 
-0.0662132 -0.170829 -0.983073 -0.0718243 -0.186449 -0.979836 -0.0913992 0.00507796 -0.995801 
-0.0572963 0.12609 -0.990363 -0.00972569 -0.00993382 -0.999903 0.0983304 -0.00448784 -0.995144 
0.0556542 0.0339561 -0.997873 -0.0657305 0.0675663 -0.995547 -0.250563 0.113237 -0.961455 
-0.239185 0.111665 -0.964532 0.458663 -0.00608274 -0.88859 0.233445 -0.0224425 -0.972111 
0.0539512 -0.0289203 -0.998125 -0.114194 -0.0488166 -0.992258 0.0381518 -0.0558687 -0.997709 
-0.201399 -0.0243733 -0.979206 0.0506137 -0.06434 -0.996644 -0.0740246 -0.117854 -0.990268 
-0.103392 -0.160377 -0.981626 0.042964 -0.12528 -0.991191 -0.0861757 -0.0301966 -0.995822 
0.0238096 -0.198722 -0.979767 0.0999236 -0.171788 -0.980053 -0.0617883 -0.0251805 -0.997772 
0.0812993 -0.0703808 -0.994202 0.0882103 -0.0335655 -0.995536 0.0606188 -0.0413484 -0.997304 
-0.0610294 -0.0524142 -0.996759 -0.259321 -0.0719596 -0.963107 -0.240952 -0.0883627 -0.966506 
-0.236026 -0.0723659 -0.969049 0.476112 -0.114787 -0.871861 0.263665 -0.0856621 -0.960803 
0.0174732 -0.11245 -0.993504 -0.139449 -0.103863 -0.984767 -0.069866 -0.0497533 -0.996315 
-0.18367 -0.0628369 -0.980978 -0.0274178 -0.121703 -0.992188 -0.0437572 -0.115031 -0.992398 
-0.0214113 -0.222703 -0.974651 -0.0170585 -0.243138 -0.969842 0.072872 -0.0863934 -0.993592 
0.0140977 -0.162264 -0.986647 0.0369645 -0.127807 -0.99111 -0.148303 -0.150126 -0.977481 
-0.0915841 -0.197849 -0.975945 -0.0953491 -0.151135 -0.983904 0.326303 -0.283107 -0.901874 
0.298155 -0.312162 -0.90203 0.269534 -0.274394 -0.923071 0.0690084 -0.328885 -0.941845 
0.0457639 -0.212915 -0.975998 -0.044521 -0.274777 -0.960477 -0.0607249 -0.191136 -0.979683 
-0.133821 -0.106749 -0.985239 -0.117267 -0.176942 -0.97721 -0.146832 -0.124781 -0.981259 

