# vtk DataFile Version 4.2
vtk output
ASCII
DATASET POLYDATA
POINTS 568 float
-46.4657 5.80997 -20.8544 49.2934 5.80997 -20.773 -46.4657 14.5153 -21.2405 
14.4719 -37.7169 -12.8165 23.1773 -37.7169 -14.4871 31.8826 -37.7169 -14.2319 
40.588 -37.7169 -12.4921 -55.171 -29.0115 -14.1919 -46.4657 -29.0115 -14.8213 
-37.7603 -29.0115 -14.678 -29.0549 -29.0115 -13.7889 -20.3496 -29.0115 -11.9967 
-2.93883 -29.0115 -13.1277 5.76654 -29.0115 -14.3822 14.4719 -29.0115 -15.9668 
23.1773 -29.0115 -17.1893 31.8826 -29.0115 -17.7765 40.588 -29.0115 -16.1458 
49.2934 -29.0115 -14 -63.8764 -20.3061 -15.1714 -55.171 -20.3061 -17.2917 
-46.4657 -20.3061 -17.0762 -37.7603 -20.3061 -17.8439 -29.0549 -20.3061 -16.4632 
-20.3496 -20.3061 -14.9749 -11.6442 -20.3061 -14.3141 -2.93883 -20.3061 -16.0694 
5.76654 -20.3061 -15.4301 14.4719 -20.3061 -16.9764 23.1773 -20.3061 -17.9434 
31.8826 -20.3061 -18.0015 40.588 -20.3061 -17.4553 49.2934 -20.3061 -16.4113 
57.9987 -20.3061 -14.2705 66.7041 -20.3061 -12.1718 -72.5817 -11.6008 -14.1715 
-63.8764 -11.6008 -16.3283 -55.171 -11.6008 -18.2295 -46.4657 -11.6008 -18.9569 
-37.7603 -11.6008 -18.0585 -29.0549 -11.6008 -17.1974 -20.3496 -11.6008 -16.2886 
-11.6442 -11.6008 -17.4404 -2.93883 -11.6008 -17.8711 5.76654 -11.6008 -15.1487 
14.4719 -11.6008 -16.8074 23.1773 -11.6008 -17.4191 31.8826 -11.6008 -18.1967 
40.588 -11.6008 -18.3998 49.2934 -11.6008 -18.052 57.9987 -11.6008 -17.3105 
66.7041 -11.6008 -15.2526 -72.5817 -2.8954 -14.3963 -63.8764 -2.8954 -17.5015 
-55.171 -2.8954 -18.5619 -46.4657 4.46863 -20.6561 -46.4657 -2.8954 -19.5834 
-37.7603 -2.8954 -18.5234 -29.0549 -2.8954 -17.0031 -20.3496 -2.8954 -15.5741 
-11.6442 -2.8954 -19.7605 -2.93883 -2.8954 -14.7526 5.76654 -2.8954 -17.7941 
14.4719 -2.8954 -16.2917 23.1773 -2.8954 -16.5346 31.8826 -2.8954 -18.1425 
40.588 -2.8954 -19.2023 49.2934 4.88906 -20.6561 49.2934 -2.8954 -19.6779 
57.9987 -2.8954 -18.7773 66.7041 -2.8954 -16.163 75.4095 -2.8954 -12.2113 
-72.5817 5.80997 -14.0295 -63.8764 5.80997 -18.0894 -47.3305 5.80997 -20.6561 
-55.171 5.80997 -18.8585 -45.1765 5.80997 -20.6561 -37.7603 5.80997 -19.5414 
-29.0549 5.80997 -19.0617 -20.3496 5.80997 -17.8209 -11.6442 5.80997 -18.0928 
-2.93883 5.80997 -15.022 5.76654 5.80997 -20.5826 14.4719 5.80997 -12.5975 
23.1773 5.80997 -15.9808 31.8826 5.80997 -18.2559 48.3932 5.80997 -20.6561 
40.588 5.80997 -19.6618 49.9605 5.80997 -20.6561 49.2934 6.82393 -20.6561 
57.9987 5.80997 -19.4332 66.7041 5.80997 -16.4713 75.4095 5.80997 -12.4606 
-72.5817 14.5153 -12.3846 -63.8764 14.5153 -17.2289 -48.7068 14.5153 -20.6561 
-55.171 14.5153 -19.2879 -39.6397 14.5153 -20.6561 -46.4657 17.3938 -20.6561 
-37.7603 14.5153 -20.5038 -29.0549 14.5153 -20.2129 -20.3496 14.5153 -18.8895 
-11.6442 14.5153 -16.8124 -2.93883 14.5153 -17.2193 5.76654 14.5153 -13.024 
14.4719 14.5153 -13.7707 23.1773 14.5153 -16.1327 31.8826 14.5153 -18.5809 
40.588 14.5153 -19.5837 49.2934 14.5153 -19.7695 57.9987 14.5153 -18.4293 
66.7041 14.5153 -15.1889 -63.8764 23.2207 -14.0523 -55.171 23.2207 -18.7059 
-46.4657 23.2207 -19.4245 -37.7603 23.2207 -19.9632 -29.0549 23.2207 -20.2433 
-20.3496 23.2207 -18.9605 -11.6442 23.2207 -18.1731 -2.93883 23.2207 -16.5474 
5.76654 23.2207 -12.897 14.4719 23.2207 -13.4166 23.1773 23.2207 -15.7894 
31.8826 23.2207 -17.6575 40.588 23.2207 -19.2136 49.2934 23.2207 -18.0783 
57.9987 23.2207 -16.9923 66.7041 23.2207 -12.7749 -55.171 31.9261 -12.36 
-46.4657 31.9261 -15.3093 -37.7603 31.9261 -17.5925 -29.0549 31.9261 -18.8065 
-20.3496 31.9261 -18.1293 -11.6442 31.9261 -17.9559 -2.93883 31.9261 -15.4731 
5.76654 31.9261 -12.8162 14.4719 31.9261 -11.9521 23.1773 31.9261 -13.8982 
31.8826 31.9261 -15.3928 40.588 31.9261 -15.8177 49.2934 31.9261 -15.3605 
57.9987 31.9261 -13.3521 -29.0549 40.6314 -13.3852 -20.3496 40.6314 -15.4705 
-11.6442 40.6314 -15.0545 -2.93883 40.6314 -13.5736 40.588 40.6314 -12.2296 
14.4719 -38.9022 -11.9507 23.1773 -41.1726 -11.9507 23.1773 -46.4222 -3.98666 
31.8826 -40.9531 -11.9507 40.588 -38.3525 -11.9507 -55.171 -32.4026 -11.9507 
-55.171 -37.7169 -5.46328 -46.4657 -32.9813 -11.9507 -46.4657 -37.7169 -7.63815 
-37.7603 -33.1346 -11.9507 -37.7603 -37.7169 -7.86708 -29.0549 -32.376 -11.9507 
-29.0549 -37.7169 -7.36213 -20.3496 -29.1056 -11.9507 -20.3496 -37.7169 -6.25809 
-11.6442 -37.7169 -6.49414 -2.93883 -31.4318 -11.9507 -2.93883 -37.7169 -8.15897 
11.1575 -37.7169 -11.9507 5.76654 -34.5754 -11.9507 5.76654 -37.7169 -10.1296 
42.131 -37.7169 -11.9507 49.2934 -33.0415 -11.9507 49.2934 -37.7169 -8.69591 
-60.7795 -29.0115 -11.9507 -63.8764 -26.7799 -11.9507 -63.8764 -29.0115 -10.0582 
-19.7951 -29.0115 -11.9507 -8.49991 -29.0115 -11.9507 -11.6442 -27.1205 -11.9507 
-11.6442 -29.0115 -11.2815 56.7061 -29.0115 -11.9507 57.9987 -27.9414 -11.9507 
57.9987 -29.0115 -11.4412 66.7041 -20.6455 -11.9507 66.7041 -29.0115 -4.11675 
-69.762 -20.3061 -11.9507 -72.5817 -15.4539 -11.9507 -72.5817 -20.3061 -9.32617 
67.0314 -20.3061 -11.9507 75.4095 -20.3061 -4.0322 -74.4389 -11.6008 -11.9507 
72.3151 -11.6008 -11.9507 75.4095 -3.49816 -11.9507 75.4095 -11.6008 -9.10625 
-76.0035 -2.8954 -11.9507 -81.2871 -2.8954 -4.686 75.5895 -2.8954 -11.9507 
-75.3158 5.80997 -11.9507 75.8438 5.80997 -11.9507 75.4095 7.27073 -11.9507 
-73.1273 14.5153 -11.9507 -72.5817 15.319 -11.9507 72.0981 14.5153 -11.9507 
75.4095 14.5153 -8.11064 -66.5846 23.2207 -11.9507 -63.8764 25.8324 -11.9507 
67.7706 23.2207 -11.9507 66.7041 24.3474 -11.9507 -55.7377 31.9261 -11.9507 
-55.171 32.3494 -11.9507 -46.4657 35.5741 -11.9507 -37.7603 40.3038 -11.9507 
5.76654 35.3964 -11.9507 14.4719 31.9307 -11.9507 23.1773 36.4912 -11.9507 
31.8826 39.2627 -11.9507 49.2934 36.452 -11.9507 59.9454 31.9261 -11.9507 
57.9987 33.465 -11.9507 -36.4467 40.6314 -11.9507 -37.7603 40.6314 -11.1127 
-29.0549 42.3633 -11.9507 -20.3496 45.2731 -11.9507 -11.6442 44.7902 -11.9507 
1.96641 40.6314 -11.9507 -2.93883 43.4957 -11.9507 5.76654 40.6314 -10.5926 
14.4719 40.6314 -9.49134 23.1773 40.6314 -10.2118 37.9443 40.6314 -11.9507 
31.8826 40.6314 -11.1102 41.4734 40.6314 -11.9507 40.588 40.923 -11.9507 
-11.6442 49.3368 -5.10605 -2.93883 49.3368 -5.17119 5.76654 49.3368 -3.47224 
23.1773 -46.769 -3.24534 -55.171 -39.0421 -3.24534 -46.4657 -40.7816 -3.24534 
-37.7603 -41.0971 -3.24534 -29.0549 -40.7126 -3.24534 -20.3496 -40.2151 -3.24534 
-11.6442 -40.8319 -3.24534 -2.93883 -42.0088 -3.24534 5.76654 -43.1723 -3.24534 
21.4291 -46.4222 -3.24534 14.4719 -44.9536 -3.24534 27.9289 -46.4222 -3.24534 
23.1773 -46.4222 -1.26906 31.8826 -46.1337 -3.24534 40.588 -44.7026 -3.24534 
49.2934 -41.5108 -3.24534 -58.08 -37.7169 -3.24534 -63.8764 -34.6753 -3.24534 
56.0691 -37.7169 -3.24534 57.9987 -36.2828 -3.24534 66.7041 -29.8034 -3.24534 
-72.207 -29.0115 -3.24534 -72.5817 -28.5947 -3.24534 67.6118 -29.0115 -3.24534 
75.4095 -21.1546 -3.24534 -77.4045 -20.3061 -3.24534 76.0186 -20.3061 -3.24534 
-80.9113 -11.6008 -3.24534 -81.2871 -8.83346 -3.24534 80.0748 -11.6008 -3.24534 
-82.0936 -2.8954 -3.24534 -81.2871 1.83018 -3.24534 -81.2871 -2.8954 4.0903 
82.1382 -2.8954 -3.24534 -80.5763 5.80997 -3.24534 81.5337 5.80997 -3.24534 
-77.5758 14.5153 -3.24534 -72.5817 20.8903 -3.24534 77.8302 14.5153 -3.24534 
75.4095 18.9266 -3.24534 75.4095 14.5153 4.13544 -70.5385 23.2207 -3.24534 
-63.8764 29.1094 -3.24534 72.3857 23.2207 -3.24534 66.7041 28.4784 -3.24534 
-59.6771 31.9261 -3.24534 -55.171 35.0386 -3.24534 -55.171 31.9261 5.11678 
-46.4657 39.0211 -3.24534 49.2934 40.6203 -3.24534 62.9928 31.9261 -3.24534 
57.9987 35.771 -3.24534 57.9987 31.9261 5.27081 -42.7934 40.6314 -3.24534 
-37.7603 42.7667 -3.24534 -29.0549 46.2047 -3.24534 -20.3496 48.8411 -3.24534 
14.4719 48.4994 -3.24534 23.1773 47.2337 -3.24534 31.8826 46.414 -3.24534 
49.2686 40.6314 -3.24534 40.588 44.2288 -3.24534 -17.111 49.3368 -3.24534 
-11.6442 50.1459 -3.24534 -11.6442 49.3368 0.6081 -2.93883 50.2765 -3.24534 
-2.93883 49.3368 1.33674 7.41761 49.3368 -3.24534 5.76654 49.4855 -3.24534 
5.76654 49.3368 -1.4451 -55.171 -40.133 5.46002 -46.4657 -41.7899 5.46002 
-37.7603 -42.9968 5.46002 -29.0549 -43.3483 5.46002 -20.3496 -43.1499 5.46002 
-11.6442 -43.1384 5.46002 -2.93883 -43.4559 5.46002 5.76654 -43.738 5.46002 
14.4719 -44.2388 5.46002 23.1773 -44.8926 5.46002 31.8826 -44.7636 5.46002 
40.588 -43.248 5.46002 49.2934 -40.2205 5.46002 -59.92 -37.7169 5.46002 
-63.8764 -35.2594 5.46002 -55.171 -37.7169 10.2534 -46.4657 -37.7169 11.4898 
-20.3496 -37.7169 14.1597 -11.6442 -37.7169 12.5038 -2.93883 -37.7169 13.3107 
5.76654 -37.7169 13.515 14.4719 -37.7169 12.8877 23.1773 -37.7169 13.3341 
31.8826 -37.7169 12.8653 40.588 -37.7169 11.0958 55.7696 -37.7169 5.46002 
49.2934 -37.7169 10.105 57.9987 -36.9276 5.46002 66.7041 -30.7689 5.46002 
-72.4834 -29.0115 5.46002 -72.5817 -28.8851 5.46002 -63.8764 -29.0115 13.8631 
57.9987 -29.0115 13.3821 68.7304 -29.0115 5.46002 66.7041 -29.0115 7.7517 
75.4095 -21.7749 5.46002 -77.0309 -20.3061 5.46002 -72.5817 -20.3061 11.0838 
66.7041 -20.3061 13.4552 76.4146 -20.3061 5.46002 75.4095 -20.3061 6.8115 
-79.8137 -11.6008 5.46002 -72.5817 -11.6008 13.3973 80.1199 -11.6008 5.46002 
75.4095 -11.6008 12.1221 -81.0635 -2.8954 5.46002 80.9653 -2.8954 5.46002 
75.4095 -2.8954 11.9419 -77.4699 5.80997 5.46002 -72.5817 5.80997 10.4973 
80.7025 5.80997 5.46002 75.4095 13.931 5.46002 75.4095 5.80997 10.9551 
-74.2795 14.5153 5.46002 -72.5817 16.5903 5.46002 -72.5817 14.5153 7.33552 
-63.8764 14.5153 14.0502 74.7105 14.5153 5.46002 66.7041 14.5153 11.8609 
-66.9808 23.2207 5.46002 -63.8764 25.9616 5.46002 -63.8764 23.2207 8.24186 
-55.171 31.7405 5.46002 -55.171 23.2207 11.657 49.2934 23.2207 14.0027 
57.9987 31.7636 5.46002 57.9987 23.2207 11.7126 67.9204 23.2207 5.46002 
66.7041 24.2799 5.46002 66.7041 23.2207 6.44257 -54.8687 31.9261 5.46002 
-46.4657 35.9024 5.46002 -46.4657 31.9261 9.40693 -37.7603 31.9261 13.1118 
40.588 31.9261 12.2329 57.7367 31.9261 5.46002 49.2934 36.005 5.46002 
49.2934 31.9261 9.41686 -38.1399 40.6314 5.46002 -37.7603 40.8077 5.46002 
[...]
POINT_DATA 568
SCALARS ImageScalars float
LOOKUP_TABLE default
0 0 0 0 0 0 0 0 0 
0 0 0 0 0 0 0 0 0 
0 0 0 0 0 0 0 0 0 
0 0 0 0 0 0 0 0 0 
0 0 0 0 0 0 0 0 0 
0 0 0 0 0 0 0 0 0 
0 0 0 0 0 0 0 0 0 
0 0 0 0 0 0 0 0 0 
0 0 0 0 0 0 0 0 0 
0 0 0 0 0 0 0 0 0 
0 0 0 0 0 0 0 0 0 
0 0 0 0 0 0 0 0 0 
0 0 0 0 0 0 0 0 0 
0 0 0 0 0 0 0 0 0 
0 0 0 0 0 0 0 0 0 
0 0 0 0 0 0 0 0 0 
0 0 0 0 0 0 0 0 0 
0 0 0 0 0 0 0 0 0 
0 0 0 0 0 0 0 0 0 
0 0 0 0 0 0 0 0 0 
0 0 0 0 0 0 0 0 0 
0 0 0 0 0 0 0 0 0 
0 0 0 0 0 0 0 0 0 
0 0 0 0 0 0 0 0 0 
0 0 0 0 0 0 0 0 0 
0 0 0 0 0 0 0 0 0 
0 0 0 0 0 0 0 0 0 
0 0 0 0 0 0 0 0 0 
0 0 0 0 0 0 0 0 0 
0 0 0 0 0 0 0 0 0 
0 0 0 0 0 0 0 0 0 
0 0 0 0 0 0 0 0 0 
0 0 0 0 0 0 0 0 0 
0 0 0 0 0 0 0 0 0 
0 0 0 0 0 0 0 0 0 
0 0 0 0 0 0 0 0 0 
0 0 0 0 0 0 0 0 0 
0 0 0 0 0 0 0 0 0 
0 0 0 0 0 0 0 0 0 
0 0 0 0 0 0 0 0 0 
0 0 0 0 0 0 0 0 0 
0 0 0 0 0 0 0 0 0 
0 0 0 0 0 0 0 0 0 
0 0 0 0 0 0 0 0 0 
0 0 0 0 0 0 0 0 0 
0 0 0 0 0 0 0 0 0 
0 0 0 0 0 0 0 0 0 
0 0 0 0 0 0 0 0 0 
0 0 0 0 0 0 0 0 0 
0 0 0 0 0 0 0 0 0 
0 0 0 0 0 0 0 0 0 
0 0 0 0 0 0 0 0 0 
0 0 0 0 0 0 0 0 0 
0 0 0 0 0 0 0 0 0 
0 0 0 0 0 0 0 0 0 
0 0 0 0 0 0 0 0 0 
0 0 0 0 0 0 0 0 0 
0 0 0 0 0 0 0 0 0 
0 0 0 0 0 0 0 0 0 
0 0 0 0 0 0 0 0 0 
0 0 0 0 0 0 0 0 0 
0 0 0 0 0 0 0 0 0 
0 0 0 0 0 0 0 0 0 
0 
NORMALS Normals float
0.0372639 0.0951135 0.994769 -0.0225413 0.00588996 0.999729 0.0851028 -0.0768439 0.993405 
0.216359 0.50417 0.836063 0.0748204 0.477657 0.875354 -0.0905709 0.496609 0.863236 
-0.24446 0.575261 0.780586 0.226142 0.447768 0.86508 0.0326917 0.456964 0.888884 
-0.0540145 0.459915 0.886318 -0.145951 0.4165 0.897344 -0.136786 0.396046 0.907985 
0.16551 0.378687 0.910605 0.151486 0.261577 0.953221 0.158591 0.228437 0.960555 
0.0935961 0.190507 0.977214 -0.0698422 0.215717 0.973955 -0.182876 0.228719 0.956161 
-0.281873 0.389899 0.876657 0.312791 0.292671 0.903607 0.142201 0.276441 0.950452 
0.0303984 0.206326 0.978011 -0.031937 0.185237 0.982175 -0.155143 0.178034 0.971717 
-0.118714 0.228475 0.966285 0.0604248 0.326506 0.943262 0.0586064 0.259419 0.963985 
0.0530122 0.0399536 0.997794 0.146253 0.042901 0.988317 0.0579295 0.0124692 0.998243 
-0.0270043 0.0231823 0.999366 -0.0973505 0.136944 0.985784 -0.161047 0.197636 0.966956 
-0.253705 0.316266 0.914117 -0.390927 0.460288 0.797064 0.522596 0.209411 0.826463 
0.216884 0.141395 0.965903 0.126927 0.0598451 0.990105 -0.00128861 0.147596 0.989047 
-0.0946358 0.0383111 0.994775 -0.102342 0.030497 0.994282 0.0127643 0.0314973 0.999422 
0.089641 0.263518 0.96048 -0.141047 -0.0150345 0.989889 -0.0545295 0.0958971 0.993896 
0.12943 -0.0317376 0.99108 0.07943 -0.0800648 0.99362 0.0562657 0.00806942 0.998383 
-0.00791817 0.0972818 0.995225 -0.0585832 0.192106 0.979624 -0.17788 0.260928 0.948828 
-0.343787 0.211785 0.914854 0.475505 -0.0137328 0.879606 0.269417 0.0943554 0.95839 
0.112609 0.0395877 0.99285 0.0312146 0.0964638 0.994847 -0.00257651 0.10663 0.994295 
-0.145427 0.0840206 0.985795 -0.166726 0.0955158 0.981366 0.0690989 0.0814846 0.994276 
0.0736208 0.0522447 0.995917 -0.0683805 -0.218782 0.973375 0.0573388 0.247874 0.967094 
-0.0574827 -0.224216 0.972843 0.103877 -0.0799962 0.991368 0.151928 0.00327209 0.988386 
0.086947 0.0720765 0.993602 -0.0248083 0.0217628 0.999455 -0.0329045 0.153148 0.987655 
-0.167597 0.109898 0.979711 -0.31857 0.0757 0.944872 -0.675703 0.148115 0.722141 
0.524543 -0.115259 0.843546 0.330955 -0.00810081 0.943612 0.0471659 0.0880092 0.995002 
0.149836 0.0462107 0.98763 0.0177659 0.0974016 0.995087 -0.0974804 0.112501 0.988859 
-0.0940867 0.189111 0.977438 -0.0536234 0.196505 0.979035 -0.133461 -0.148679 0.979838 
-0.0696047 0.15713 0.985122 -0.173999 -0.0998287 0.979673 0.0505347 -0.107764 0.992891 
0.284946 -0.0239163 0.958245 0.199588 0.0256384 0.979544 -0.00535322 0.00754861 0.999957 
0.140496 0.0216886 0.989844 -0.0371742 0.00455958 0.999298 -0.0288897 -0.0125402 0.999504 
-0.205862 -0.0162228 0.978447 -0.35876 -0.0476824 0.932211 -0.65573 -0.118658 0.745613 
0.593571 -0.35462 0.722439 0.469541 -0.234313 0.851251 0.109708 -0.051573 0.992625 
0.183977 0.000205088 0.98293 -0.0272506 0.0030612 0.999624 0.0727746 -0.146068 0.986594 
-0.0566076 0.0244688 0.998097 -0.0916569 0.0609989 0.993921 -0.192903 0.0587705 0.979456 
-0.0997903 0.013988 0.99491 -0.085213 0.0643401 0.994283 -0.250291 -0.1795 0.951385 
0.161446 0.0333735 0.986317 0.270326 -0.0114415 0.962701 0.190808 -0.033241 0.981064 
0.0679506 -0.0244123 0.99739 -0.0714436 -0.15053 0.986021 -0.221356 -0.12636 0.966972 
-0.439043 -0.190024 0.878141 0.519274 -0.464534 0.71733 0.289656 -0.325676 0.900019 
0.0631328 -0.293568 0.953851 0.0438877 -0.161179 0.985949 -0.0585552 -0.0698141 0.99584 
-0.11522 -0.0442264 0.992355 -0.138165 0.0668734 0.988149 -0.296517 -0.0954282 0.950248 
-0.174382 -0.00755093 0.984649 0.160734 -0.0932048 0.982587 0.240485 -0.108479 0.964572 
0.183997 -0.170615 0.968006 0.0260524 -0.212635 0.976784 -0.111568 -0.211501 0.970989 
-0.3012 -0.329591 0.89479 -0.565594 -0.451715 0.689968 0.437418 -0.690407 0.576197 
0.278832 -0.592893 0.755467 0.168161 -0.392988 0.904037 0.0277469 -0.340264 0.93992 
-0.0424896 -0.189515 0.980958 -0.14783 -0.159222 0.976112 -0.27903 -0.165884 0.945846 
-0.192423 -0.119982 0.973949 0.0467051 -0.224417 0.973373 0.181143 -0.284031 0.941548 
0.0938794 -0.305348 0.947602 0.00358 -0.381251 0.924465 -0.160256 -0.531218 0.831941 
-0.421927 -0.590339 0.688097 0.196806 -0.64599 0.73754 0.085094 -0.493833 0.865383 
-0.112058 -0.465663 0.877839 -0.222838 -0.370266 0.901802 -0.10868 -0.689703 0.71589 
0.219738 0.556494 0.801267 0.0815182 0.633587 0.769364 0.065122 0.980136 0.187328 
-0.109788 0.643602 0.757446 -0.244166 0.597655 0.76367 0.2409 0.587264 0.772715 
0.313004 0.846063 0.431516 0.0295816 0.597483 0.801336 0.0839614 0.812385 0.577045 
-0.017086 0.565503 0.824569 -0.00883442 0.765005 0.643963 -0.113861 0.520141 0.846457 
-0.0665045 0.754377 0.653064 -0.136298 0.398747 0.906876 -0.0291477 0.743392 0.668221 
0.0890337 0.694946 0.713529 0.168193 0.433138 0.885496 0.167241 0.676994 0.716735 
0.21804 0.527737 0.820946 0.190983 0.456168 0.869158 0.214102 0.621479 0.753608 
-0.264714 0.575771 0.773572 -0.320705 0.470579 0.822012 -0.41944 0.676964 0.604805 
0.352161 0.542487 0.762687 0.405029 0.504523 0.762501 0.434843 0.605547 0.666501 
-0.123906 0.395096 0.910245 0.0977163 0.376643 0.92119 0.0599064 0.359702 0.931142 
0.0626653 0.383822 0.921278 -0.387577 0.447355 0.806013 -0.38846 0.437055 0.811223 
-0.413993 0.469869 0.779637 -0.394607 0.467968 0.790754 -0.5507 0.726931 0.410245 
0.475242 0.399446 0.783957 0.554633 0.353241 0.753395 0.618331 0.482546 0.620336 
-0.399324 0.461426 0.792229 -0.777523 0.497049 0.385229 0.607666 0.228587 0.760585 
-0.519471 0.294761 0.802038 -0.676726 0.162589 0.718058 -0.675863 0.363203 0.641321 
0.600615 0.0393326 0.79857 0.950633 -0.0109387 0.310123 -0.686514 0.144303 0.712654 
0.634899 -0.134745 0.760755 -0.677231 -0.112385 0.727136 -0.674252 -0.157495 0.721512 
0.610878 -0.367594 0.701215 0.613128 -0.386117 0.689193 -0.618945 -0.292009 0.729135 
-0.81813 -0.429229 0.382656 0.61216 -0.525236 0.59109 0.556515 -0.599743 0.574977 
-0.596512 -0.474962 0.646981 -0.594297 -0.495195 0.633714 0.454868 -0.700666 0.549693 
0.446305 -0.701755 0.555294 0.344097 -0.732239 0.587727 0.28766 -0.805075 0.518754 
-0.210546 -0.223012 0.951807 0.0466629 -0.224511 0.973354 0.143484 -0.386502 0.911059 
0.108405 -0.581121 0.806565 -0.287014 -0.683495 0.671162 -0.50001 -0.638026 0.585587 
-0.446159 -0.686184 0.574538 0.280611 -0.7952 0.537508 0.302569 -0.834517 0.46047 
0.238815 -0.708431 0.664148 0.106557 -0.747587 0.65556 -0.0668443 -0.664266 0.744501 
-0.228423 -0.372811 0.899352 -0.202758 -0.502437 0.840503 -0.23326 -0.416188 0.87885 
-0.0273195 -0.47459 0.879783 0.0850464 -0.562603 0.822341 -0.0419691 -0.679673 0.732313 
0.0839645 -0.668223 0.739208 -0.136544 -0.707021 0.693886 -0.110511 -0.70867 0.696832 
0.0612031 -0.975339 0.212055 -0.0649471 -0.958755 0.276714 -0.100611 -0.942391 0.319023 
0.0627901 0.987529 0.144374 0.314657 0.886446 0.339417 0.116727 0.919755 0.374733 
-0.000752023 0.906327 0.422577 -0.0481633 0.870405 0.489975 0.00681093 0.835686 0.549165 
0.0969735 0.830504 0.548506 0.12515 0.890121 0.438204 0.163015 0.92828 0.334248 
0.0880889 0.984178 0.153735 0.198104 0.959013 0.202605 -0.0343174 0.989711 0.138903 
0.0583436 0.998118 0.0188907 -0.11422 0.984288 0.134654 -0.244949 0.952961 0.17851 
-0.442172 0.872481 0.207992 0.374849 0.860853 0.344123 0.483513 0.806358 0.34059 
-0.53028 0.796761 0.289784 -0.54438 0.773189 0.325314 -0.5625 0.744019 0.360597 
0.697995 0.636155 0.328801 0.70828 0.625892 0.326494 -0.569914 0.739127 0.359011 
-0.77966 0.528362 0.336101 0.849702 0.49084 0.192571 -0.795614 0.502597 0.338222 
0.945862 0.22809 0.230912 0.959964 0.154891 0.233407 -0.900914 0.350731 0.255621 
0.976984 -0.0160758 0.212705 0.974161 -0.135605 0.180615 0.930349 -0.0808823 -0.357642 
-0.963964 0.074711 0.255327 0.963693 -0.233373 0.12974 -0.952499 -0.222167 0.208295 
0.875141 -0.479441 0.0652993 0.77472 -0.631852 0.0239231 -0.889873 -0.453458 0.0500212 
-0.836345 -0.546248 0.0462636 -0.714763 -0.552122 -0.429272 0.72971 -0.683582 0.0154411 
0.589743 -0.807554 -0.00770083 -0.755691 -0.654797 0.0130805 -0.690771 -0.722615 -0.0257561 
0.541276 -0.840558 -0.0219892 0.49826 -0.866501 -0.0302276 0.475586 -0.716666 -0.510105 
0.398198 -0.917269 0.00745795 -0.447827 -0.893777 -0.0247581 -0.641899 -0.764459 -0.0597347 
-0.545808 -0.835243 -0.0668096 -0.463852 -0.654906 -0.596606 0.384932 -0.922873 0.0115045 
0.376069 -0.926394 0.0191595 0.327873 -0.944372 0.0256885 0.221933 -0.974866 0.0195516 
-0.123408 -0.929113 0.348597 -0.106588 -0.947142 0.30259 -0.168049 -0.966901 0.191995 
-0.447494 -0.893949 -0.0245872 -0.312255 -0.948883 0.0460132 0.168259 -0.984292 0.0534591 
0.0796179 -0.991271 0.105085 0.0948032 -0.986055 -0.13678 -0.0381404 -0.98846 0.146599 
-0.00451793 -0.983435 -0.181205 -0.103128 -0.945945 0.307494 -0.0973618 -0.948778 0.300566 
-0.0864071 -0.982465 0.165216 0.330275 0.927125 -0.177081 0.166479 0.965791 -0.198826 
0.0885301 0.989445 -0.114719 0.00926849 0.991246 -0.131705 -0.012867 0.992221 -0.123819 
0.0184117 0.982803 -0.183739 0.0351384 0.97741 -0.208409 0.0429743 0.965954 -0.255118 
0.0591033 0.929907 -0.363016 0.028593 0.882416 -0.469601 -0.0768631 0.906144 -0.415927 
-0.219369 0.880722 -0.41977 -0.325731 0.895051 -0.304604 0.46872 0.856208 -0.217275 
0.559011 0.7889 -0.255234 0.332541 0.776786 -0.534809 0.145463 0.781571 -0.60662 
-0.0961225 0.580709 -0.808417 -0.0272788 0.663045 -0.748082 0.0452182 0.633105 -0.772744 
-0.0198451 0.626657 -0.779043 -0.00789406 0.595044 -0.803654 -0.00109549 0.551086 -0.834447 
-0.0973648 0.548218 -0.830648 -0.111873 0.672411 -0.731675 -0.392132 0.882132 -0.260914 
-0.24444 0.783499 -0.571295 -0.426571 0.868101 -0.253846 -0.647608 0.724371 -0.236411 
0.708964 0.619716 -0.336635 0.711937 0.615619 -0.337875 0.423042 0.411812 -0.807122 
-0.322477 0.491899 -0.80873 -0.665534 0.703706 -0.248723 -0.641903 0.672708 -0.368 
-0.780511 0.545236 -0.30581 0.860529 0.366274 -0.354024 0.695015 0.375751 -0.612997 
-0.465809 0.310304 -0.828693 -0.8098 0.495339 -0.314426 -0.782105 0.503866 -0.366647 
0.871543 0.202805 -0.446411 0.562252 0.129327 -0.816791 -0.913636 0.259604 -0.31285 
-0.743654 0.238866 -0.624437 0.883755 -0.090626 -0.45909 -0.908373 0.027588 -0.41725 
-0.675968 -0.0656218 -0.734003 0.788224 -0.291558 -0.541938 0.676668 -0.294577 -0.674793 
-0.847961 -0.281755 -0.448973 -0.66982 -0.541431 -0.508128 -0.637834 -0.31075 -0.7047 
0.718926 -0.46906 -0.51296 0.680135 -0.497088 -0.538813 0.641407 -0.47166 -0.60509 
0.374105 -0.339409 -0.863045 -0.657948 -0.545853 -0.518796 -0.458034 -0.40038 -0.793663 
0.592363 -0.599029 -0.538768 0.529555 -0.666124 -0.525214 0.509097 -0.58754 -0.628981 
0.469065 -0.704657 -0.532387 0.334196 -0.48034 -0.810917 -0.203108 -0.34368 -0.916859 
-0.45893 -0.647346 -0.608545 -0.355516 -0.462741 -0.812083 -0.552938 -0.597592 -0.580641 
-0.538218 -0.60894 -0.582678 -0.527022 -0.592672 -0.609087 0.46801 -0.706769 -0.530512 
0.395729 -0.754886 -0.523015 0.348056 -0.628341 -0.695733 0.258884 -0.490514 -0.832091 
-0.243239 -0.441625 -0.863599 -0.457359 -0.648839 -0.608137 -0.426681 -0.678115 -0.598417 
-0.345779 -0.582385 -0.735706 0.342403 -0.81695 -0.464062 0.339568 -0.818575 -0.463281 
0.3378 -0.81318 -0.47395 0.2585 -0.82401 -0.504167 0.221527 -0.73453 -0.641398 
0.207862 -0.827324 -0.52185 0.147061 -0.622493 -0.768685 0.105533 -0.862128 -0.495578 
0.0763103 -0.519502 -0.851055 0.0314804 -0.868314 -0.495015 0.0355204 -0.540162 -0.840811 
-0.0248407 -0.90592 -0.422719 0.0275037 -0.525925 -0.850086 -0.0726892 -0.93131 -0.356901 
-0.0830777 -0.472101 -0.877621 -0.165884 -0.899967 -0.403164 -0.192051 -0.579958 -0.791685 
-0.267078 -0.81026 -0.521678 -0.195723 -0.667759 -0.718185 -0.379945 -0.761794 -0.524702 
-0.341975 -0.791246 -0.506934 -0.329621 -0.746991 -0.577369 0.122989 0.592701 -0.795977 
-0.00399879 0.637582 -0.770372 0.222185 0.490958 -0.842374 0.123316 0.59246 -0.796106 
0.135464 0.547838 -0.825544 0.12288 0.591399 -0.796961 -0.0952403 0.580842 -0.808425 
-0.0020914 0.614531 -0.78889 -0.0961609 0.580004 -0.808918 -0.010858 0.468667 -0.883308 
0.050064 0.554905 -0.830406 -0.0262741 0.567234 -0.823138 -0.030624 0.455603 -0.889656 
0.000838372 0.468016 -0.883719 -0.0707897 0.460955 -0.884596 -0.0465209 0.499073 -0.86531 
-0.177697 0.511412 -0.840763 0.385774 0.404114 -0.82938 0.416327 0.338802 -0.843733 
0.19473 0.410448 -0.890849 0.126563 0.349362 -0.928401 0.052969 0.309919 -0.949286 
-0.065328 0.285719 -0.956084 -0.0907331 0.237884 -0.967046 0.0366625 0.248674 -0.967893 
0.0778379 0.322771 -0.943271 -0.0660785 0.287975 -0.955355 -0.0840829 0.226463 -0.970384 
0.0141769 0.238178 -0.971118 0.00787414 0.323974 -0.946033 -0.0287598 0.392157 -0.919448 
-0.267295 0.440846 -0.85686 -0.169191 0.38641 -0.906676 -0.298558 0.447808 -0.842811 
0.44567 0.191145 -0.874552 0.388478 0.155152 -0.908302 0.235345 0.15363 -0.959693 
0.0835731 0.221913 -0.971478 -0.00661261 0.107998 -0.994129 -0.0747134 0.0909005 -0.993053 
-0.112329 0.0688279 -0.991284 0.0714386 0.0982962 -0.99259 0.0833675 0.120195 -0.989244 
-0.12493 0.0589535 -0.990413 -0.0742969 0.109104 -0.99125 0.0668089 0.113474 -0.991292 
0.0829919 0.122295 -0.989018 -0.0123289 0.165501 -0.986133 -0.0846031 0.170541 -0.981712 
-0.425943 0.300749 -0.853301 -0.277485 0.308042 -0.910007 -0.429262 0.232808 -0.87266 
0.509486 0.128409 -0.850844 0.524333 -0.0509323 -0.849989 0.332468 0.112259 -0.93641 
0.218378 0.0282967 -0.975454 0.0680885 -0.0080309 -0.997647 -0.08584 0.0357172 -0.995669 
-0.114183 -0.016276 -0.993326 -0.0716696 -0.00269078 -0.997425 0.0932601 0.0791893 -0.992488 
0.0375214 -0.0550381 -0.997779 -0.0734085 0.033392 -0.996743 -0.0369076 0.201721 -0.978747 
0.0327031 0.025766 -0.999133 0.0782039 0.00856633 -0.996901 0.0341061 0.00850522 -0.999382 
-0.0564436 0.0584362 -0.996694 -0.19077 0.0307797 -0.981152 -0.522772 0.15726 -0.837842 
-0.332601 0.106508 -0.937034 0.518123 -0.103156 -0.849063 0.521604 -0.113998 -0.845538 
0.512764 -0.100097 -0.852675 0.296345 -0.0997709 -0.949856 0.154269 -0.0876759 -0.984131 
0.0796539 -0.0791805 -0.993673 -0.0203049 -0.0368596 -0.999114 -0.112593 -0.00976124 -0.993593 
-0.0202696 0.016934 -0.999651 0.023035 0.0299871 -0.999285 0.0332654 0.0756332 -0.996581 
0.158428 -0.0127805 -0.987288 -0.121305 0.0727889 -0.989943 -0.119602 0.0111914 -0.992759 
0.0644392 -0.028413 -0.997517 0.036374 -0.050847 -0.998044 -0.0526121 -0.0712028 -0.996073 
-0.201908 -0.0588357 -0.977636 -0.458067 -0.0603108 -0.886869 -0.331377 -0.0340714 -0.942883 
0.383198 -0.183041 -0.905348 0.367398 -0.31938 -0.873507 0.301285 -0.152721 -0.941225 
0.237412 -0.151501 -0.959522 0.121544 -0.139891 -0.982679 -0.014336 -0.100542 -0.99483 
-0.0602792 -0.0381741 -0.997451 -0.0344914 0.00923039 -0.999362 0.148566 -0.0772804 -0.985878 
-0.000749153 0.0715572 -0.997436 -0.0870844 -0.136162 -0.986852 -0.0141721 -0.201296 -0.979428 
-0.0571561 0.0446003 -0.997369 0.0160186 -0.00873984 -0.999834 -0.00975201 -0.0501934 -0.998692 
-0.0582361 -0.151171 -0.986791 -0.198142 -0.216231 -0.956025 -0.418594 -0.192992 -0.887431 
-0.392059 -0.241125 -0.887777 -0.35902 -0.17188 -0.917367 0.364638 -0.337122 -0.867979 
0.254929 -0.380604 -0.888905 0.203197 -0.313414 -0.927622 0.13927 -0.258459 -0.95593 
0.0801995 -0.161922 -0.983539 -0.00183697 -0.08835 -0.996088 -0.0553422 -0.0465006 -0.997384 
0.0803461 -0.0562141 -0.995181 -0.0215726 -0.176911 -0.98399 -0.121772 -0.06483 -0.990439 
0.0919898 -0.14299 -0.98544 0.0512094 -0.0374464 -0.997986 -0.0320154 -0.0753509 -0.996643 
-0.108325 -0.161828 -0.980855 -0.200381 -0.335747 -0.920392 -0.195974 -0.228429 -0.953632 
-0.295157 -0.308305 -0.90434 -0.269406 -0.321676 -0.907714 -0.24554 -0.284591 -0.92667 
0.268333 -0.400295 -0.87622 0.257665 -0.411519 -0.87422 0.241215 -0.373924 -0.895542 
0.225773 -0.427298 -0.875467 0.158147 -0.287777 -0.94455 0.0601203 -0.205796 -0.976746 
-0.00174491 -0.153468 -0.988152 0.0211898 -0.125894 -0.991817 -0.0152555 -0.211509 -0.977257 
-0.0604907 -0.0768426 -0.995207 0.0182957 -0.128156 -0.991585 0.0135917 -0.213551 -0.976837 
-0.101301 -0.217929 -0.970693 -0.198755 -0.339667 -0.919305 -0.201522 -0.368833 -0.907387 
-0.170355 -0.315669 -0.933452 0.188578 -0.450245 -0.872764 0.140826 -0.462681 -0.875268 
0.12853 -0.420245 -0.898262 0.0622342 -0.421113 -0.904871 0.0302922 -0.349271 -0.936532 
0.0424288 -0.378651 -0.924567 0.0242536 -0.307145 -0.951354 0.0296634 -0.408069 -0.912469 
0.0259555 -0.302373 -0.952836 0.00885044 -0.385819 -0.922532 -0.0325024 -0.251062 -0.967425 
-0.0655923 -0.330189 -0.941633 -0.0481554 -0.220747 -0.974142 -0.0737026 -0.38034 -0.921905 
-0.0308971 -0.342367 -0.939058 -0.173934 -0.420622 -0.890407 -0.152093 -0.447213 -0.881401 
-0.146774 -0.41331 -0.898684 
